/*--------------------------------*- C++ -*----------------------------------*\
| =========                 |                                                 |
| \\      /  F ield         | OpenFOAM Extend Project: Open source CFD        |
|  \\    /   O peration     | Version:  1.6-ext                               |
|   \\  /    A nd           | Web:      www.extend-project.de                 |
|    \\/     M anipulation  |                                                 |
\*---------------------------------------------------------------------------*/
FoamFile
{
    version     2.0;
    format      ascii;
    class       volSymmTensorField;
    location    "1.1";
    object      DSigma;
}
// * * * * * * * * * * * * * * * * * * * * * * * * * * * * * * * * * * * * * //

dimensions      [1 -1 -2 0 0 0 0];

internalField   nonuniform List<symmTensor> 
328
(
(-0.059574 -0.0109263 5.48868e-24 -0.0212233 -2.22364e-20 -0.0323189)
(-0.0452192 -0.00432804 0 -0.025111 0 -0.0281321)
(-0.0403588 0.00427002 1.53399e-24 -0.0229522 -8.82103e-25 -0.0253244)
(-0.0394816 0.00827279 4.67975e-24 -0.0140075 -1.85749e-20 -0.0213957)
(-0.0556803 -0.00761029 -4.79779e-24 -0.0130671 8.09752e-21 -0.027499)
(-0.0452843 -0.00395902 7.32348e-24 -0.0171254 3.75815e-24 -0.0249639)
(-0.0404703 0.00320596 5.11887e-24 -0.0164301 -2.14799e-24 -0.0227601)
(-0.0365541 0.0056998 -1.78353e-24 -0.00810757 5.49713e-21 -0.0178647)
(-0.0546493 -0.00489845 -3.16626e-23 -0.00830399 -3.1104e-22 -0.0251813)
(-0.0477801 -0.00339424 -7.59772e-24 -0.0126076 -4.18402e-24 -0.0241551)
(-0.0426214 0.00215621 -6.03663e-24 -0.0125631 2.77199e-24 -0.0220738)
(-0.0357669 0.00350144 -8.24059e-25 -0.00458276 2.89757e-21 -0.0161399)
(-0.0532855 -0.0029688 2.91727e-23 -0.00501448 4.63587e-21 -0.02332)
(-0.0483495 -0.00269219 -1.57312e-24 -0.00844967 -1.52842e-25 -0.0227197)
(-0.0432464 0.00115458 2.97809e-23 -0.0089259 -7.16512e-24 -0.0208689)
(-0.0348817 0.00189061 -2.50313e-23 -0.0021212 -1.18129e-20 -0.0148012)
(-0.0526459 -0.0017008 5.41672e-24 -0.00310933 5.98506e-21 -0.0223021)
(-0.049035 -0.00202331 0 -0.00567332 0 -0.0218833)
(-0.0439697 0.000326273 -3.01486e-23 -0.00640586 8.97149e-24 -0.0201502)
(-0.0346241 0.000804136 -1.03879e-23 -0.000677384 6.01933e-21 -0.0141206)
(-0.0521807 -0.000900222 1.60739e-23 -0.00197275 -6.59937e-21 -0.0216614)
(-0.0491333 -0.00146457 -6.17229e-24 -0.00353824 -3.88475e-24 -0.0210686)
(-0.0442058 -0.000313987 0 -0.00443343 0 -0.0194557)
(-0.0345875 0.000101124 1.15321e-22 0.000184064 -3.56735e-21 -0.0137614)
(-0.0519648 -0.000431065 2.32586e-24 -0.00137137 -6.19023e-21 -0.0213345)
(-0.0490983 -0.00105319 -6.13578e-24 -0.00209765 -9.97142e-25 -0.0204784)
(-0.0443186 -0.000757316 6.19737e-25 -0.00306777 2.66338e-24 -0.0189546)
(-0.0348076 -0.000320252 -7.15967e-23 0.00062891 2.30254e-21 -0.0136715)
(-0.0518552 -0.000181808 1.80528e-24 -0.0010758 -4.07938e-21 -0.0211724)
(-0.0488639 -0.000783699 0 -0.00110788 0 -0.0199887)
(-0.0442551 -0.00103213 0 -0.00211286 0 -0.0185472)
(-0.035165 -0.00054834 -1.62792e-23 0.000825969 1.17142e-20 -0.0137356)
(-0.0518119 -7.57779e-05 1.21753e-23 -0.000963304 1.69856e-20 -0.0211101)
(-0.0485603 -0.000634888 0 -0.000487977 0 -0.0196193)
(-0.0441259 -0.00117102 0 -0.00149869 0 -0.0182498)
(-0.0356171 -0.000646532 6.97268e-25 0.000868292 -1.34747e-21 -0.0138995)
(-0.0517765 -5.60404e-05 -2.3382e-24 -0.000945948 3.94723e-21 -0.021089)
(-0.0482103 -0.000575309 -3.49965e-23 -0.000120543 -7.87763e-24 -0.0193323)
(-0.0439548 -0.00121257 3.49981e-23 -0.00112144 7.87798e-24 -0.0180305)
(-0.0361098 -0.000663967 9.0145e-24 0.000825185 -1.52041e-20 -0.0141138)
(-0.0517173 -8.3779e-05 3.95557e-22 -0.000973059 -7.41202e-21 -0.0210761)
(-0.0478599 -0.000574223 0 6.74266e-05 0 -0.019117)
(-0.0437845 -0.00119072 -3.06889e-22 -0.00091277 -4.74122e-23 -0.0178789)
(-0.0366115 -0.000635445 4.58439e-25 0.00073834 -6.804e-22 -0.0143492)
(-0.05161 -0.000132376 -4.62512e-22 -0.00101305 1.26144e-21 -0.0210492)
(-0.0475257 -0.000604745 4.59446e-23 0.000141286 2.00765e-23 -0.0189538)
(-0.0436323 -0.00113382 -4.21922e-23 -0.000811125 -2.00243e-23 -0.0177774)
(-0.0370988 -0.000585521 2.42361e-23 0.000634909 8.8228e-21 -0.0145856)
(-0.0514432 -0.000185084 9.97161e-23 -0.00104875 -2.79456e-21 -0.0209968)
(-0.04722 -0.000646633 2.93365e-22 0.00014606 1.03401e-22 -0.0188296)
(-0.043511 -0.0010623 2.29281e-22 -0.000773127 4.92081e-23 -0.0177136)
(-0.03756 -0.000529968 3.85166e-22 0.000530351 -2.28335e-21 -0.0148119)
(-0.0512127 -0.000232157 9.7489e-23 -0.00107152 5.09926e-21 -0.0209137)
(-0.046944 -0.000686203 -8.7686e-22 0.000114698 -3.39989e-22 -0.0187317)
(-0.0434227 -0.000989415 -8.12438e-23 -0.000767042 -1.54483e-23 -0.0176759)
(-0.0379902 -0.000478013 -2.12504e-22 0.000432855 8.5838e-21 -0.0150229)
(-0.0509204 -0.000268955 4.77382e-22 -0.00107848 -2.99975e-21 -0.0207996)
(-0.0466944 -0.000715603 8.10889e-22 6.80409e-05 3.22329e-22 -0.0186505)
(-0.0433646 -0.000922107 1.70731e-22 -0.000772789 4.07071e-23 -0.017655)
(-0.0383898 -0.000433932 -1.61059e-22 0.000345536 -9.28e-21 -0.0152177)
(-0.0505717 -0.000294163 -4.40126e-22 -0.00107005 -1.78747e-21 -0.0206567)
(-0.0464639 -0.000731324 -5.99627e-22 1.84478e-05 -2.36983e-22 -0.0185782)
(-0.04333 -0.000862667 4.21589e-22 -0.000778633 1.62745e-22 -0.0176434)
(-0.0387617 -0.000398673 1.77882e-22 0.000268514 5.84353e-22 -0.0153973)
(-0.0501736 -0.000308432 -2.61059e-22 -0.00104855 6.43552e-21 -0.0204889)
(-0.0462443 -0.000732727 0 -2.80553e-05 0 -0.0185089)
(-0.0433102 -0.000810316 -5.58549e-22 -0.000779098 -1.90365e-22 -0.0176357)
(-0.0391093 -0.000371157 1.90897e-22 0.000200306 -3.96809e-21 -0.0155636)
(-0.0497339 -0.000313337 2.03148e-21 -0.00101701 1.94089e-21 -0.0203004)
(-0.0460271 -0.000720731 -1.42162e-21 -6.93732e-05 -6.77692e-22 -0.0184386)
(-0.0432964 -0.000762655 4.71695e-22 -0.000772622 2.15783e-22 -0.0176276)
(-0.0394349 -0.000349356 2.91538e-23 0.000138915 1.22352e-20 -0.0157184)
(-0.0492597 -0.000310691 -2.56188e-21 -0.000978639 -3.896e-21 -0.0200954)
(-0.045805 -0.000696915 4.41418e-22 -0.000105582 2.12499e-22 -0.0183642)
(-0.0432797 -0.000716805 -7.54815e-22 -0.000759834 -2.95756e-22 -0.0176158)
(-0.0397381 -0.000331049 3.95014e-22 8.2541e-05 2.29201e-21 -0.0158622)
(-0.048758 -0.000302148 -9.74987e-23 -0.000936259 1.94405e-21 -0.0198777)
(-0.0455719 -0.00066294 0 -0.000137645 0 -0.0182838)
(-0.043252 -0.000670146 0 -0.000742368 0 -0.0175977)
(-0.0400163 -0.000314307 -3.20129e-24 2.985e-05 1.95582e-21 -0.0159946)
(-0.0482351 -0.000289116 1.00544e-21 -0.000892455 4.98389e-21 -0.019651)
(-0.0453231 -0.000620464 0 -0.000166558 0 -0.0181959)
(-0.0432055 -0.000620864 0 -0.000721904 0 -0.017571)
(-0.0402629 -0.000297733 3.84995e-22 -1.96239e-05 -4.22911e-21 -0.016113)
(-0.0476958 -0.000272523 1.13256e-21 -0.000848857 -4.84036e-21 -0.0194179)
(-0.0450547 -0.000570666 0 -0.000193081 0 -0.0180991)
(-0.0431337 -0.000567678 8.64958e-22 -0.000700434 4.63498e-22 -0.0175337)
(-0.0404712 -0.00028036 -1.73353e-21 -6.65524e-05 2.64693e-21 -0.0162151)
(-0.047128 -0.000251731 -7.48898e-23 -0.000807 -4.59213e-21 -0.019174)
(-0.0447526 -0.000511398 -9.82989e-22 -0.000218457 -5.89748e-22 -0.0179884)
(-0.0430233 -0.000506802 -9.07876e-22 -0.000677289 -5.44935e-22 -0.0174802)
(-0.0406308 -0.000260371 -7.44369e-23 -0.00010988 -2.43081e-21 -0.0162963)
(-0.0465562 -0.000231248 9.83189e-22 -0.000769428 -1.26149e-22 -0.0189303)
(-0.0444241 -0.000452645 -2.06188e-21 -0.000241768 -1.28676e-21 -0.0178664)
(-0.0428706 -0.000447392 9.07259e-22 -0.000656095 5.29945e-22 -0.0174107)
(-0.0407231 -0.000241579 8.23278e-22 -0.000148893 2.41712e-21 -0.0163488)
(-0.0460187 -0.000210884 4.90651e-21 -0.000738331 -1.86071e-21 -0.0187028)
(-0.0440891 -0.000394896 0 -0.000260966 0 -0.01774)
(-0.0426813 -0.000389422 9.90815e-22 -0.000638134 6.29571e-22 -0.0173278)
(-0.0407369 -0.000223236 9.29471e-24 -0.000181114 -3.93335e-21 -0.0163672)
(-0.0455144 -0.000190953 -5.18614e-21 -0.000714067 6.14293e-21 -0.0184914)
(-0.0437473 -0.000338895 0 -0.000276705 0 -0.0176096)
(-0.0424566 -0.000333322 0 -0.000623647 0 -0.0172321)
(-0.0406749 -0.000205331 -3.00773e-23 -0.000206573 1.20034e-20 -0.0163526)
(-0.0450414 -0.000171743 -2.6658e-21 -0.000696371 -1.66365e-21 -0.0182951)
(-0.0433982 -0.000285193 2.66542e-21 -0.000289124 1.87444e-21 -0.0174749)
(-0.0421971 -0.000279544 0 -0.000612413 0 -0.0171238)
(-0.0405392 -0.000188078 -3.62568e-23 -0.00022551 1.372e-20 -0.0163059)
(-0.0445972 -0.000153462 5.8813e-21 -0.000685 -3.86231e-21 -0.0181129)
(-0.0430411 -0.000234266 -2.83612e-21 -0.000298449 -2.0612e-21 -0.0173358)
(-0.0419035 -0.000228511 2.46139e-21 -0.00060433 1.8422e-21 -0.0170032)
(-0.0403327 -0.000171614 -7.21739e-21 -0.000238214 8.2703e-21 -0.0162284)
(-0.0441792 -0.000136326 2.03914e-24 -0.000679613 -7.02397e-22 -0.0179435)
(-0.0426756 -0.00018663 0 -0.000304872 0 -0.0171922)
(-0.0415769 -0.000180721 -2.79711e-21 -0.000599196 -2.18607e-21 -0.0168705)
(-0.0400584 -0.000156126 -1.42683e-22 -0.000245008 -4.69498e-21 -0.0161214)
(-0.0437843 -0.000120597 -3.15514e-21 -0.000679878 -8.21715e-21 -0.0177857)
(-0.0423008 -0.000142939 6.14858e-21 -0.000308651 4.78657e-21 -0.0170438)
(-0.0412183 -0.000136819 -2.95665e-21 -0.000596789 -2.38515e-21 -0.016726)
(-0.0397197 -0.00014186 1.11176e-23 -0.000246245 1.09672e-20 -0.0159864)
(-0.0434086 -0.000106605 7.10163e-21 -0.000685353 -7.01021e-21 -0.0176376)
(-0.0419158 -0.000104009 0 -0.00031007 0 -0.0168904)
(-0.0408288 -9.76143e-05 0 -0.000596842 0 -0.0165703)
(-0.0393209 -0.000129139 2.764e-21 -0.000242363 -4.11924e-22 -0.0158253)
(-0.0430475 -9.47243e-05 2.08131e-22 -0.000695489 -6.67302e-21 -0.0174972)
(-0.0415196 -7.07682e-05 6.77668e-21 -0.000309459 5.6475e-21 -0.0167316)
(-0.04041 -6.40387e-05 -6.38483e-21 -0.000599053 -5.38623e-21 -0.0164036)
(-0.0388668 -0.000118338 6.1568e-21 -0.000233923 2.58101e-21 -0.0156403)
(-0.0426957 -8.5336e-05 3.66876e-21 -0.000709591 2.23553e-21 -0.0173621)
(-0.0411109 -4.41765e-05 -7.1465e-21 -0.000307186 -5.96436e-21 -0.0165672)
(-0.0399634 -3.70565e-05 3.24101e-21 -0.000603076 2.85254e-21 -0.0162266)
(-0.0383632 -0.000109854 -6.31459e-21 -0.000221629 -1.33213e-21 -0.0154339)
(-0.0423468 -7.87892e-05 8.0729e-21 -0.00072682 3.08765e-21 -0.0172294)
(-0.0406881 -2.51196e-05 0 -0.000303662 0 -0.0163967)
(-0.039491 -1.75628e-05 3.39167e-21 -0.000608529 3.06884e-21 -0.0160398)
(-0.0378168 -0.000104062 -3.39846e-21 -0.000206328 -1.14788e-21 -0.0152092)
(-0.0419937 -7.53607e-05 -2.85875e-23 -0.000746213 -2.8351e-22 -0.017096)
(-0.0402495 -1.43147e-05 -3.98736e-21 -0.000299328 -3.49506e-21 -0.0162195)
(-0.0389947 -6.28765e-06 3.54024e-21 -0.000614995 3.29047e-21 -0.0158439)
(-0.0372351 -0.000101273 -3.53947e-21 -0.000188991 -3.5531e-21 -0.0149696)
(-0.0416288 -7.52257e-05 -4.22255e-21 -0.000766711 8.44405e-21 -0.0169582)
(-0.0397933 -1.22351e-05 3.95402e-21 -0.000294651 3.55367e-21 -0.0160352)
(-0.0384769 -3.72107e-06 -3.91679e-21 -0.000622028 -3.61656e-21 -0.0156396)
(-0.0366261 -0.000101707 -3.48866e-21 -0.000170685 5.44954e-21 -0.0147187)
(-0.0412442 -7.84392e-05 -4.34578e-21 -0.000787205 -2.09285e-21 -0.0168126)
(-0.0393177 -1.90637e-05 -1.5242e-22 -0.000290108 -2.34641e-22 -0.0158431)
(-0.0379398 -1.00648e-05 3.83072e-21 -0.000629166 3.75126e-21 -0.0154276)
(-0.0359981 -0.000105471 -2.38893e-22 -0.000152527 5.11763e-22 -0.0144603)
(-0.040832 -8.49304e-05 -3.39397e-25 -0.000806573 8.91807e-23 -0.0166554)
(-0.0388207 -3.46736e-05 4.26064e-21 -0.000286176 4.01741e-21 -0.0156427)
(-0.0373858 -2.52131e-05 0 -0.000635945 0 -0.0152087)
(-0.0353597 -0.000112551 -1.48781e-22 -0.000135643 -1.08815e-20 -0.0141981)
(-0.0403844 -9.45056e-05 -4.6181e-21 -0.000823728 -2.14484e-21 -0.0164832)
(-0.0383006 -5.86342e-05 8.97075e-21 -0.000283315 8.76465e-21 -0.0154335)
(-0.0368171 -4.8757e-05 -8.66861e-21 -0.00064191 -8.74312e-21 -0.0149836)
(-0.034719 -0.000122812 3.93715e-21 -0.000121124 -6.41385e-22 -0.013936)
(-0.0398942 -0.00010686 -4.98791e-21 -0.000837657 1.42518e-21 -0.0162928)
(-0.0377556 -9.02357e-05 4.70564e-21 -0.000281956 4.76248e-21 -0.015215)
(-0.0362361 -8.00087e-05 8.75364e-21 -0.000646632 9.07818e-21 -0.0147531)
(-0.0340836 -0.000136009 -2.87085e-24 -0.000109986 7.26575e-22 -0.0136774)
(-0.0393551 -0.000121592 -5.34348e-21 -0.00084745 5.18902e-22 -0.016081)
(-0.0371844 -0.000128526 -9.35244e-21 -0.000282486 -9.60749e-21 -0.0149867)
(-0.0356446 -0.000118037 -4.18292e-21 -0.00064972 -4.57611e-21 -0.0145177)
(-0.0334607 -0.000151798 4.37043e-21 -0.000103139 8.00171e-21 -0.0134255)
(-0.0387617 -0.000138227 -2.25771e-22 -0.000852331 4.00121e-21 -0.0158456)
(-0.0365857 -0.000172355 0 -0.000285237 0 -0.0147484)
(-0.0350446 -0.000161711 0 -0.000650833 0 -0.0142782)
(-0.0328561 -0.000169755 4.43173e-21 -0.00010136 7.858e-21 -0.013183)
(-0.0381095 -0.00015623 -5.49556e-21 -0.000851676 -3.24427e-22 -0.0155845)
(-0.0359587 -0.000220421 0 -0.000290478 0 -0.0144997)
(-0.0344374 -0.000209747 -2.04741e-22 -0.000649691 -1.84755e-22 -0.0140348)
(-0.032275 -0.000189391 -9.10913e-21 -0.000105272 -5.37566e-21 -0.0129521)
(-0.0373954 -0.000175031 -1.74382e-23 -0.000845029 4.14504e-21 -0.0152962)
(-0.0353028 -0.000271316 5.05709e-21 -0.000298408 5.67091e-21 -0.0142405)
(-0.0338244 -0.00026075 -2.07234e-22 -0.00064608 -1.8665e-22 -0.0137882)
(-0.031721 -0.000210172 4.51518e-21 -0.000115334 -1.45025e-21 -0.0127345)
(-0.0366176 -0.000194037 3.00493e-22 -0.000832104 -2.55348e-21 -0.0149799)
(-0.0346178 -0.000323572 7.82918e-23 -0.000309151 -1.02018e-22 -0.0139708)
(-0.0332064 -0.000313262 5.10674e-21 -0.000639863 6.06678e-21 -0.0135385)
(-0.0311966 -0.000231535 -4.84017e-21 -0.000131829 7.96875e-22 -0.0125314)
(-0.0357755 -0.000212655 4.74632e-24 -0.000812797 -1.10111e-21 -0.0146353)
(-0.0339038 -0.000375697 5.39999e-21 -0.000322752 6.15371e-21 -0.0136906)
(-0.032584 -0.000365797 -5.10673e-21 -0.000630976 -6.06678e-21 -0.013286)
(-0.0307032 -0.000252899 4.62029e-21 -0.000154864 1.42179e-21 -0.0123432)
(-0.0348701 -0.0002303 -1.17386e-20 -0.000787178 -6.35332e-21 -0.0142629)
(-0.0331613 -0.000426212 1.119e-20 -0.000339179 1.32135e-20 -0.0134002)
(-0.0319575 -0.000416878 -5.4443e-21 -0.000619436 -6.56355e-21 -0.0130308)
(-0.0302406 -0.000273686 4.92524e-21 -0.000184369 7.35537e-21 -0.01217)
(-0.0339035 -0.000246414 5.97829e-21 -0.000755491 3.10757e-21 -0.0138636)
(-0.0323912 -0.000473687 5.78307e-21 -0.000358324 7.07306e-21 -0.0130998)
(-0.0313268 -0.000465074 5.47353e-21 -0.000605334 6.99145e-21 -0.0127729)
(-0.0298073 -0.000293331 4.98591e-21 -0.000220102 -2.08831e-21 -0.012011)
(-0.0328789 -0.000260474 6.21906e-21 -0.000718146 6.9915e-21 -0.0134388)
(-0.0315946 -0.000516768 -1.16876e-20 -0.000380005 -1.44637e-20 -0.0127898)
(-0.0306915 -0.000509023 -1.0849e-20 -0.000588837 -1.41027e-20 -0.0125121)
(-0.0294008 -0.000311291 1.06844e-20 -0.000261659 6.61362e-21 -0.011865)
(-0.0318011 -0.000272004 -6.23593e-21 -0.000675705 -3.229e-21 -0.0129907)
(-0.0307729 -0.000554209 1.17111e-20 -0.000403972 1.49019e-20 -0.0124708)
(-0.030051 -0.000547469 -1.00979e-22 -0.000570183 1.23404e-22 -0.0122485)
(-0.0290173 -0.00032706 -1.07038e-20 -0.00030848 -5.07671e-21 -0.0117303)
(-0.0306755 -0.000280587 6.47906e-21 -0.000628873 2.88615e-21 -0.0125217)
(-0.029928 -0.000584894 0 -0.000429912 0 -0.0121432)
(-0.0294043 -0.000579283 1.12327e-22 -0.000549673 3.27086e-22 -0.0119816)
(-0.028652 -0.000340183 5.18496e-21 -0.000359867 3.55211e-21 -0.0116047)
(-0.0295087 -0.000285874 2.24827e-22 -0.000578478 -1.07365e-21 -0.0120349)
(-0.0290619 -0.00060787 0 -0.000457459 0 -0.0118077)
(-0.0287501 -0.00060349 -1.15299e-20 -0.000527664 -1.60508e-20 -0.0117111)
(-0.0282991 -0.000350257 1.12347e-20 -0.000414997 1.00238e-20 -0.0114857)
(-0.0283081 -0.000287589 6.4824e-21 -0.000525454 4.37732e-21 -0.0115334)
(-0.0281767 -0.000622361 -1.2606e-20 -0.000486201 -1.70584e-20 -0.0114652)
(-0.0280872 -0.000619297 1.21777e-20 -0.000504563 1.71144e-20 -0.0114367)
(-0.0279522 -0.000356952 5.51802e-21 -0.000472945 2.76552e-21 -0.0113701)
(-0.0270817 -0.000285542 -6.45761e-21 -0.000470818 -8.99038e-21 -0.011021)
(-0.0272748 -0.000627794 1.28177e-20 -0.000515693 1.77156e-20 -0.0111162)
(-0.027414 -0.000626105 -1.82096e-20 -0.000480815 -2.61957e-20 -0.0111579)
(-0.027604 -0.000360011 1.15737e-20 -0.000532704 6.71909e-21 -0.0112547)
(-0.0258377 -0.000279631 -9.20018e-23 -0.000415645 -1.76626e-21 -0.0105014)
(-0.0263588 -0.000623812 0 -0.000545463 0 -0.0107617)
(-0.0267288 -0.000623533 -6.24177e-21 -0.000456891 -9.2817e-21 -0.0108743)
(-0.027247 -0.000359262 5.93816e-21 -0.000593208 5.22606e-21 -0.0111361)
(-0.024585 -0.000269842 1.40246e-20 -0.000361042 6.20933e-21 -0.00997841)
(-0.0254311 -0.000610284 0 -0.00057503 0 -0.0104025)
(-0.0260298 -0.000611422 6.24177e-21 -0.000433282 9.2817e-21 -0.0105852)
(-0.0268733 -0.000354621 -5.94503e-21 -0.000653365 -3.76377e-21 -0.0110107)
(-0.0233321 -0.000256256 -1.77854e-25 -0.00030812 3.81419e-23 -0.00945608)
(-0.0244943 -0.000587306 0 -0.000603909 0 -0.0100393)
(-0.0253154 -0.000589842 0 -0.000410482 0 -0.0102904)
(-0.0264752 -0.000346093 6.14612e-21 -0.000712075 4.73226e-21 -0.0108749)
(-0.0220875 -0.00023904 -6.97355e-21 -0.000257966 -5.20163e-21 -0.00893819)
(-0.023551 -0.000555197 6.95028e-21 -0.000631628 1.01847e-20 -0.00967304)
(-0.0245839 -0.000559085 0 -0.00038898 0 -0.00998915)
(-0.0260448 -0.000333774 9.85194e-23 -0.000768269 3.28447e-22 -0.0107252)
(-0.0208594 -0.000218442 7.05971e-21 -0.000211621 5.21724e-21 -0.00842841)
(-0.0226034 -0.000514484 -7.03496e-21 -0.000657738 -1.04974e-20 -0.00930447)
(-0.0238336 -0.000519652 -6.42367e-21 -0.000369247 -1.03774e-20 -0.00968113)
(-0.0255749 -0.000317842 2.03183e-22 -0.000820925 1.47789e-22 -0.0105583)
(-0.0196554 -0.000194784 2.19065e-20 -0.000170051 1.65253e-20 -0.00793019)
(-0.0216539 -0.000465883 -1.39324e-20 -0.000681821 -2.15526e-20 -0.0089343)
(-0.023063 -0.000472235 1.06351e-22 -0.00035173 -1.22713e-22 -0.00936588)
(-0.0250585 -0.000298553 -7.17605e-26 -0.000869097 1.52444e-23 -0.010371)
(-0.0184824 -0.000168451 -2.94579e-20 -0.000134132 -2.11347e-20 -0.00744662)
(-0.0207046 -0.000410279 2.91665e-22 -0.000703503 5.26419e-23 -0.00856323)
(-0.0222708 -0.000417697 1.36108e-20 -0.000336835 2.19222e-20 -0.00904304)
(-0.0244896 -0.000276233 -6.5285e-21 -0.000911935 -5.91279e-21 -0.0101606)
(-0.0173465 -0.000139879 1.49723e-20 -0.00010463 1.15595e-20 -0.00698046)
(-0.0197572 -0.000348698 1.41384e-20 -0.000722461 2.28583e-20 -0.00819187)
(-0.0214559 -0.000357044 -6.97988e-21 -0.000324924 -1.13448e-20 -0.00871231)
(-0.0238627 -0.000251267 1.31502e-20 -0.000948696 1.13848e-20 -0.00992457)
(-0.0162529 -0.000109549 7.64131e-21 -8.21952e-05 4.67948e-21 -0.00653402)
(-0.0188134 -0.000282289 -1.43876e-20 -0.000738432 -2.33067e-20 -0.00782073)
(-0.0206173 -0.000291409 -6.77768e-21 -0.000316305 -1.15764e-20 -0.00837345)
(-0.0231736 -0.000224091 -6.33999e-21 -0.000978765 -5.46046e-21 -0.00966093)
(-0.0152055 -7.79808e-05 7.58172e-21 -6.73462e-05 7.12534e-21 -0.00610915)
(-0.0178745 -0.000212308 7.22904e-21 -0.00075122 1.17932e-20 -0.00745029)
(-0.0197546 -0.000222035 -6.85892e-21 -0.000311226 -1.18551e-20 -0.00802632)
(-0.0224186 -0.000195191 1.35019e-20 -0.00100166 1.17172e-20 -0.00936812)
(-0.0142076 -4.57268e-05 -2.25592e-20 -6.04661e-05 -1.83183e-20 -0.00570721)
(-0.0169415 -0.000140112 1.49145e-20 -0.000760705 2.44318e-20 -0.00708089)
(-0.0188672 -0.00015027 0 -0.000309867 0 -0.00767084)
(-0.0215957 -0.000165095 6.87396e-21 -0.00101703 6.16578e-21 -0.0090451)
(-0.0132607 -1.33741e-05 1.06174e-25 -6.17926e-05 -2.23049e-23 -0.00532899)
(-0.0160152 -6.71556e-05 0 -0.000766845 0 -0.00671281)
(-0.0179553 -7.75622e-05 -7.17163e-21 -0.000312336 -1.25331e-20 -0.00730707)
(-0.0207037 -0.000134375 1.36487e-20 -0.00102468 1.2921e-20 -0.00869136)
(-0.0123655 1.8456e-05 -2.0318e-25 -7.14065e-05 4.26425e-23 -0.00497475)
(-0.0150958 5.00864e-06 1.46524e-20 -0.000769687 2.53556e-20 -0.00634621)
(-0.0170192 -5.46485e-06 -7.48073e-21 -0.000318662 -1.28225e-20 -0.00693514)
(-0.0197428 -0.00010365 -2.06844e-20 -0.0010246 -1.93651e-20 -0.00830697)
(-0.011521 4.91092e-05 -8.51175e-24 -8.92182e-05 1.785e-21 -0.00464408)
(-0.0141835 7.47325e-05 0 -0.000769367 0 -0.00598115)
(-0.0160595 6.43708e-05 1.42994e-20 -0.000328793 2.57472e-20 -0.0065553)
(-0.0187147 -7.35839e-05 -1.43605e-20 -0.00101692 -1.29414e-20 -0.00789264)
(-0.0107249 7.79043e-05 -1.58398e-20 -0.000114952 -1.16739e-20 -0.00433595)
(-0.0132778 0.00014029 -1.48792e-20 -0.000766116 -2.62868e-20 -0.00561758)
(-0.0150773 0.000130211 1.48792e-20 -0.00034259 2.62868e-20 -0.00616795)
(-0.0176224 -4.48782e-05 -1.4034e-20 -0.00100199 -1.30304e-20 -0.00744974)
(-0.00997345 0.000104148 4.32618e-22 -0.000148128 -1.47177e-21 -0.00404863)
(-0.0123781 0.000199913 1.54138e-20 -0.000760261 2.67855e-20 -0.00525536)
(-0.0140741 0.000190273 2.70763e-22 -0.00035983 2.51133e-22 -0.00577358)
(-0.0164705 -1.82619e-05 1.46077e-20 -0.000980354 1.33796e-20 -0.00698035)
(-0.00926118 0.000127155 -1.59751e-20 -0.000188056 -1.22578e-20 -0.00377969)
(-0.0114833 0.000251849 -1.50765e-20 -0.000752218 -2.71459e-20 -0.00489419)
(-0.013052 0.000242787 2.61383e-22 -0.000380203 2.42588e-22 -0.00537286)
(-0.0152654 5.53411e-06 -1.42966e-20 -0.0009528 -1.34572e-20 -0.00648726)
(-0.00858125 0.000146285 1.56269e-20 -0.000233834 1.51726e-20 -0.00352603)
(-0.0105918 0.000294438 -1.55675e-20 -0.000742504 -2.76027e-20 -0.00453371)
(-0.0120131 0.000286067 1.47552e-20 -0.000403331 2.749e-20 -0.00496658)
(-0.0140147 2.58044e-05 -1.48247e-20 -0.000920325 -1.2949e-20 -0.00597401)
(-0.00792535 0.00016097 -1.56959e-20 -0.000284348 -1.52616e-20 -0.00328388)
(-0.00970181 0.000326198 3.91349e-22 -0.00073169 4.67069e-23 -0.0041734)
(-0.0109603 0.000318599 1.52437e-20 -0.000428741 2.7943e-20 -0.00455562)
(-0.0127278 4.1907e-05 2.44827e-22 -0.000884141 -6.42857e-22 -0.00544476)
(-0.00728411 0.000170759 1.57697e-20 -0.000338358 1.30677e-20 -0.00304899)
(-0.00881142 0.00034592 -1.56966e-20 -0.000720505 -2.83645e-20 -0.00381277)
(-0.00989672 0.000339122 1.49302e-20 -0.000455989 2.82725e-20 -0.00414108)
(-0.0114151 5.32898e-05 -2.97568e-20 -0.000845704 -2.82559e-20 -0.00490431)
(-0.00664694 0.00017534 1.58206e-20 -0.000394386 1.44048e-20 -0.00281653)
(-0.00791801 0.000352725 -1.55381e-20 -0.000709553 -2.85295e-20 -0.00345102)
(-0.00882539 0.000346692 1.57189e-22 -0.000484401 -1.61441e-22 -0.00372391)
(-0.0100879 5.95165e-05 3.795e-24 -0.00080651 -7.93495e-22 -0.00435777)
(-0.00600341 0.000174585 -4.51012e-24 -0.000451223 9.43438e-22 -0.00258185)
(-0.00701976 0.000346169 -3.10319e-20 -0.000700063 -5.79438e-20 -0.00308793)
(-0.00775044 0.000340692 4.57288e-20 -0.000513871 8.69202e-20 -0.00330573)
(-0.00875906 6.026e-05 -1.51336e-20 -0.000768591 -1.5314e-20 -0.00381106)
(-0.00534095 0.000168547 1.5915e-20 -0.000506848 1.47273e-20 -0.00233912)
(-0.00611221 0.000326198 -1.58447e-20 -0.000691992 -2.94355e-20 -0.00272168)
(-0.00667345 0.000320938 2.04382e-22 -0.000542971 1.93719e-22 -0.00288657)
(-0.00743968 5.53486e-05 1.5193e-20 -0.000733316 1.47421e-20 -0.0032692)
(-0.00465226 0.000157604 -1.62986e-20 -0.000561572 -1.49588e-20 -0.00208553)
(-0.0051972 0.000293432 0 -0.000688976 0 -0.00235447)
(-0.00560226 0.000287407 -1.53274e-20 -0.000573922 -2.95689e-20 -0.00247047)
(-0.00614645 4.44853e-05 -1.48804e-20 -0.000704309 -1.4871e-20 -0.0027403)
(-0.00391776 0.000141669 4.13007e-27 -0.000610893 -8.63934e-25 -0.00181146)
(-0.00425952 0.00024812 -3.13114e-20 -0.000685281 -6.03936e-20 -0.00197792)
(-0.00452663 0.000241038 3.56129e-22 -0.000599541 2.05917e-23 -0.00205047)
(-0.0048818 2.80603e-05 1.64539e-22 -0.0006806 -6.71405e-23 -0.00222496)
(-0.00315293 0.000121597 3.44839e-22 -0.000661307 -4.41514e-22 -0.00152569)
(-0.00332944 0.000192099 3.16859e-20 -0.000696989 6.07542e-20 -0.00161057)
(-0.00348246 0.000183122 -1.8729e-22 -0.000635261 -1.82792e-22 -0.00164709)
(-0.0036867 6.18611e-06 -3.02765e-20 -0.000674788 -3.10935e-20 -0.0017446)
(-0.00227899 8.81564e-05 -6.66573e-26 -0.000684695 1.39363e-23 -0.00118548)
(-0.00232226 0.00012057 1.56041e-20 -0.000669518 3.08002e-20 -0.00119671)
(-0.00238423 0.000119232 -1.84655e-22 -0.000622316 -1.79444e-22 -0.00120262)
(-0.00249229 -1.06804e-05 1.51382e-20 -0.00065657 1.50048e-20 -0.00125954)
(-0.00146883 4.3647e-05 1.70353e-22 -0.000695549 -2.28698e-22 -0.000865753)
(-0.00148421 3.74522e-05 8.4259e-21 -0.000684932 3.11171e-20 -0.000867658)
(-0.00149502 4.03894e-05 4.08644e-24 -0.000636231 1.95247e-26 -0.000852499)
(-0.00151855 -1.15078e-05 -1.93832e-23 -0.000642707 2.78858e-25 -0.000864504)
)
;

boundaryField
{
    plateFix
    {
        type            calculated;
        value           nonuniform List<symmTensor> 4((-0.0599916 -0.0139106 2.48347e-24 -0.0215029 -2.22352e-20 -0.0325978) (-0.0423679 -0.00417103 0 -0.0232101 0 -0.0262312) (-0.0380665 0.00476803 1.53399e-24 -0.0214241 -8.82103e-25 -0.0237962) (-0.0399233 0.0107422 2.16412e-24 -0.0143005 -1.85749e-20 -0.0216895));
    }
    plate
    {
        type            calculated;
        value           nonuniform List<symmTensor> 
168
(
(-0.0457455 -1.31113e-05 1.08335e-23 -0.000467032 -4.389e-20 -0.018485)
(-0.0304588 -1.12674e-05 9.63527e-24 -0.000489068 -3.71977e-20 -0.0123792)
(-0.0472853 -1.33119e-05 -8.15767e-24 -0.000466003 1.50161e-20 -0.0191005)
(-0.0314684 -1.08469e-05 -3.62653e-24 -0.000488212 1.11775e-20 -0.0127826)
(-0.049427 -1.37364e-05 -3.18465e-23 -0.000465306 5.41964e-22 -0.0199569)
(-0.0330335 -1.06805e-05 -1.80453e-24 -0.000487616 6.34511e-21 -0.0134085)
(-0.0502545 -1.42921e-05 2.82184e-23 -0.00046466 8.79236e-21 -0.0202877)
(-0.0337906 -1.06307e-05 -2.14203e-23 -0.00048715 -2.49756e-20 -0.0137111)
(-0.0508839 -1.57952e-05 4.52119e-24 -0.000464046 1.17913e-20 -0.0205392)
(-0.0344962 -1.14409e-05 -1.26384e-23 -0.00048681 1.25859e-20 -0.0139932)
(-0.0511755 -1.78227e-05 1.84288e-23 -0.000463439 -1.30493e-20 -0.0206556)
(-0.0350345 -1.27421e-05 1.16368e-22 -0.00048659 -6.7056e-21 -0.0142084)
(-0.0513596 -2.0417e-05 4.3419e-24 -0.000462831 -1.15559e-20 -0.020729)
(-0.0355516 -1.45537e-05 -7.22673e-23 -0.000486491 4.03937e-21 -0.0144152)
(-0.0514463 -2.34443e-05 3.94696e-24 -0.000462211 -8.91892e-21 -0.0207634)
(-0.0360408 -1.67518e-05 -2.14819e-23 -0.000486501 2.40668e-20 -0.0146109)
(-0.0514775 -2.68528e-05 3.52996e-24 -0.000461571 3.38282e-20 -0.0207756)
(-0.0365215 -1.92929e-05 1.80833e-24 -0.000486608 -3.49461e-21 -0.0148032)
(-0.0514532 -3.05757e-05 -4.7629e-24 -0.000460906 8.04047e-21 -0.0207657)
(-0.0369857 -2.21262e-05 1.77484e-23 -0.000486802 -2.99349e-20 -0.014989)
(-0.0513755 -3.45708e-05 4.00762e-22 -0.000460216 -1.51298e-20 -0.0207343)
(-0.0374298 -2.52273e-05 8.26426e-25 -0.000487081 -1.22655e-21 -0.0151667)
(-0.0512412 -3.88031e-05 -4.63547e-22 -0.000459498 2.50569e-21 -0.0206803)
(-0.0378485 -2.8576e-05 1.72716e-23 -0.000487444 1.72962e-20 -0.0153344)
(-0.0510503 -4.32513e-05 1.01866e-22 -0.000458751 -5.31592e-21 -0.0206036)
(-0.0382403 -3.21644e-05 3.87121e-22 -0.000487898 -4.58057e-21 -0.0154913)
(-0.0508043 -4.79007e-05 9.26926e-23 -0.000457975 1.0153e-20 -0.0205049)
(-0.0386058 -3.59872e-05 -2.20509e-22 -0.000488444 1.70341e-20 -0.0156377)
(-0.050507 -5.27428e-05 4.8061e-22 -0.000457172 -6.07239e-21 -0.0203857)
(-0.0389476 -4.0045e-05 -1.5124e-22 -0.000489084 -1.8643e-20 -0.0157747)
(-0.0501635 -5.77719e-05 -4.38249e-22 -0.00045635 -3.40921e-21 -0.0202479)
(-0.0392686 -4.43397e-05 1.77096e-22 -0.000489812 1.26521e-21 -0.0159034)
(-0.0497793 -6.29835e-05 -2.6983e-22 -0.000455526 1.28277e-20 -0.0200939)
(-0.0395713 -4.88746e-05 1.95836e-22 -0.000490613 -7.86426e-21 -0.0160248)
(-0.0493601 -6.83727e-05 2.03196e-21 -0.00045473 2.46917e-21 -0.0199259)
(-0.0398565 -5.36525e-05 1.38055e-23 -0.000491459 2.43754e-20 -0.0161392)
(-0.0489112 -7.39365e-05 -2.56035e-21 -0.000454007 -5.63428e-21 -0.0197461)
(-0.0401227 -5.86731e-05 3.91807e-22 -0.000492311 4.41815e-21 -0.016246)
(-0.0484373 -7.96605e-05 -1.00219e-22 -0.000453391 3.60349e-21 -0.0195563)
(-0.0403663 -6.39358e-05 -6.54433e-24 -0.000493112 3.99824e-21 -0.0163437)
(-0.0479433 -8.55464e-05 9.97839e-22 -0.000452977 9.26794e-21 -0.0193585)
(-0.0405803 -6.9429e-05 3.91883e-22 -0.000493804 -8.63743e-21 -0.0164297)
(-0.0474329 -9.15543e-05 1.14424e-21 -0.000452794 -1.02347e-20 -0.0191543)
(-0.0407577 -7.51366e-05 -1.7406e-21 -0.00049435 6.35123e-21 -0.0165008)
(-0.0468929 -9.78627e-05 -6.53564e-23 -0.000452705 -9.21373e-21 -0.0189382)
(-0.0408885 -8.13012e-05 -6.92702e-23 -0.000494539 -4.93898e-21 -0.0165532)
(-0.0463463 -0.000104228 9.84517e-22 -0.00045308 -7.25076e-22 -0.0187197)
(-0.0409547 -8.76086e-05 8.19208e-22 -0.000494648 4.25537e-21 -0.0165797)
(-0.0458299 -0.000110225 4.91922e-21 -0.00045392 -6.95415e-21 -0.0185135)
(-0.0409469 -9.35644e-05 1.82344e-23 -0.000494569 -7.71648e-21 -0.0165766)
(-0.0453425 -0.000115885 -5.21104e-21 -0.000455166 1.56756e-20 -0.0183191)
(-0.0408675 -9.91067e-05 -6.02265e-23 -0.000494219 2.40355e-20 -0.0165447)
(-0.0448821 -0.000121225 -2.66659e-21 -0.000456761 -1.36551e-21 -0.0181355)
(-0.0407187 -0.00010423 -7.23325e-23 -0.000493684 2.73715e-20 -0.016485)
(-0.0444466 -0.000126252 5.90462e-21 -0.000458728 -1.21303e-20 -0.0179621)
(-0.0405031 -0.000108898 -7.25423e-21 -0.000492917 2.18472e-20 -0.0163984)
(-0.0440336 -0.000130979 3.76768e-24 -0.000461025 -1.29781e-21 -0.0177978)
(-0.0402234 -0.000113102 -1.30281e-22 -0.000491932 -8.97227e-21 -0.0162861)
(-0.04364 -0.000135409 -3.13811e-21 -0.000463665 -1.38491e-20 -0.0176415)
(-0.039883 -0.000116828 -2.1243e-23 -0.000490719 2.17905e-20 -0.0161495)
(-0.0432624 -0.000139546 7.14101e-21 -0.000466625 -1.96923e-20 -0.0174916)
(-0.0394856 -0.000120074 2.77203e-21 -0.000489282 -2.97272e-21 -0.01599)
(-0.0428966 -0.000143388 2.29453e-22 -0.000469885 -1.34313e-20 -0.0173466)
(-0.0390359 -0.000122843 6.16568e-21 -0.000487635 -1.54236e-22 -0.0158094)
(-0.0425376 -0.000146928 3.67162e-21 -0.000473406 1.38346e-21 -0.0172044)
(-0.0385391 -0.000125146 -6.32863e-21 -0.00048581 2.86212e-21 -0.01561)
(-0.0421795 -0.000150157 8.08466e-21 -0.000477133 -5.87807e-22 -0.0170626)