/*--------------------------------*- C++ -*----------------------------------*\
| =========                 |                                                 |
| \\      /  F ield         | OpenFOAM Extend Project: Open source CFD        |
|  \\    /   O peration     | Version:  1.6-ext                               |
|   \\  /    A nd           | Web:      www.extend-project.de                 |
|    \\/     M anipulation  |                                                 |
\*---------------------------------------------------------------------------*/
FoamFile
{
    version     2.0;
    format      ascii;
    class       volVectorField;
    location    "1.1";
    object      DU;
}
// * * * * * * * * * * * * * * * * * * * * * * * * * * * * * * * * * * * * * //

dimensions      [0 1 0 0 0 0 0];

internalField   nonuniform List<vector> 
328
(
(-1.36984e-09 -2.53907e-09 0)
(-8.06901e-10 -4.49963e-10 0)
(-7.13447e-10 4.82e-10 0)
(-9.11716e-10 1.92222e-09 0)
(-4.17948e-09 -6.56383e-09 0)
(-2.67619e-09 -1.4475e-09 0)
(-2.3504e-09 1.27462e-09 0)
(-2.77106e-09 4.88279e-09 0)
(-7.43074e-09 -9.67653e-09 0)
(-5.18849e-09 -2.54401e-09 0)
(-4.53089e-09 1.87106e-09 0)
(-4.93107e-09 6.96716e-09 0)
(-1.09698e-08 -1.20716e-08 0)
(-8.12648e-09 -3.67696e-09 0)
(-7.0901e-09 2.19879e-09 0)
(-7.29269e-09 8.26696e-09 0)
(-1.48371e-08 -1.39848e-08 0)
(-1.15288e-08 -4.8291e-09 0)
(-1.0066e-08 2.22598e-09 0)
(-9.89273e-09 8.91678e-09 0)
(-1.90119e-08 -1.56021e-08 0)
(-1.53255e-08 -6.00907e-09 0)
(-1.3405e-08 1.92951e-09 0)
(-1.27248e-08 9.01543e-09 0)
(-2.3512e-08 -1.70811e-08 0)
(-1.95075e-08 -7.25048e-09 0)
(-1.71016e-08 1.30149e-09 0)
(-1.58101e-08 8.63949e-09 0)
(-2.83489e-08 -1.85474e-08 0)
(-2.40496e-08 -8.60058e-09 0)
(-2.11359e-08 3.35985e-10 0)
(-1.91652e-08 7.83799e-09 0)
(-3.35427e-08 -2.01076e-08 0)
(-2.89461e-08 -1.01165e-08 0)
(-2.55039e-08 -9.72694e-10 0)
(-2.2813e-08 6.64013e-09 0)
(-3.91131e-08 -2.18523e-08 0)
(-3.41943e-08 -1.18598e-08 0)
(-3.0205e-08 -2.63579e-09 0)
(-2.67763e-08 5.05618e-09 0)
(-4.50813e-08 -2.38625e-08 0)
(-3.98015e-08 -1.3894e-08 0)
(-3.52478e-08 -4.67196e-09 0)
(-3.10799e-08 3.08068e-09 0)
(-5.14687e-08 -2.62121e-08 0)
(-4.57814e-08 -1.6283e-08 0)
(-4.06469e-08 -7.10919e-09 0)
(-3.57493e-08 6.93636e-10 0)
(-5.82971e-08 -2.89707e-08 0)
(-5.21539e-08 -1.90907e-08 0)
(-4.64239e-08 -9.98519e-09 0)
(-4.08111e-08 -2.13779e-09 0)
(-6.55884e-08 -3.22059e-08 0)
(-5.89443e-08 -2.23816e-08 0)
(-5.26058e-08 -1.33472e-08 0)
(-4.62939e-08 -5.45801e-09 0)
(-7.33656e-08 -3.59849e-08 0)
(-6.61816e-08 -2.62211e-08 0)
(-5.92237e-08 -1.72513e-08 0)
(-5.2228e-08 -9.32152e-09 0)
(-8.16526e-08 -4.03761e-08 0)
(-7.38978e-08 -3.06767e-08 0)
(-6.63125e-08 -2.17613e-08 0)
(-5.86463e-08 -1.37915e-08 0)
(-9.04747e-08 -4.545e-08 0)
(-8.21272e-08 -3.58186e-08 0)
(-7.39095e-08 -2.69476e-08 0)
(-6.55842e-08 -1.89382e-08 0)
(-9.98585e-08 -5.12804e-08 0)
(-9.09053e-08 -4.17206e-08 0)
(-8.20538e-08 -3.28859e-08 0)
(-7.308e-08 -2.48381e-08 0)
(-1.09832e-07 -5.79447e-08 0)
(-1.00269e-07 -4.84598e-08 0)
(-9.07859e-08 -3.96566e-08 0)
(-8.11743e-08 -3.15722e-08 0)
(-1.20426e-07 -6.55237e-08 0)
(-1.10255e-07 -5.61171e-08 0)
(-1.00148e-07 -4.73435e-08 0)
(-8.991e-08 -3.92257e-08 0)
(-1.31673e-07 -7.41021e-08 0)
(-1.20902e-07 -6.47773e-08 0)
(-1.10181e-07 -5.60339e-08 0)
(-9.93315e-08 -4.78874e-08 0)
(-1.43606e-07 -8.37685e-08 0)
(-1.3225e-07 -7.45286e-08 0)
(-1.20928e-07 -6.58184e-08 0)
(-1.09484e-07 -5.76494e-08 0)
(-1.56743e-07 -9.50291e-08 0)
(-1.44798e-07 -8.58803e-08 0)
(-1.32872e-07 -7.72093e-08 0)
(-1.20829e-07 -6.90256e-08 0)
(-1.70635e-07 -1.07628e-07 0)
(-1.58125e-07 -9.85731e-08 0)
(-1.45619e-07 -8.99477e-08 0)
(-1.33001e-07 -8.17607e-08 0)
(-1.84363e-07 -1.20712e-07 0)
(-1.71344e-07 -1.11747e-07 0)
(-1.58314e-07 -1.03171e-07 0)
(-1.45179e-07 -9.49936e-08 0)
(-1.97937e-07 -1.34232e-07 0)
(-1.84455e-07 -1.25353e-07 0)
(-1.70948e-07 -1.16831e-07 0)
(-1.5734e-07 -1.08674e-07 0)
(-2.11366e-07 -1.48147e-07 0)
(-1.97456e-07 -1.39351e-07 0)
(-1.83508e-07 -1.30887e-07 0)
(-1.69465e-07 -1.22764e-07 0)
(-2.24656e-07 -1.62429e-07 0)
(-2.10347e-07 -1.53714e-07 0)
(-1.95984e-07 -1.45312e-07 0)
(-1.81532e-07 -1.37234e-07 0)
(-2.37817e-07 -1.77059e-07 0)
(-2.23124e-07 -1.68421e-07 0)
(-2.08366e-07 -1.60087e-07 0)
(-1.93522e-07 -1.52063e-07 0)
(-2.50853e-07 -1.92026e-07 0)
(-2.35786e-07 -1.83464e-07 0)
(-2.20642e-07 -1.752e-07 0)
(-2.05416e-07 -1.67243e-07 0)
(-2.6377e-07 -2.07329e-07 0)
(-2.4833e-07 -1.98841e-07 0)
(-2.32803e-07 -1.90652e-07 0)
(-2.17196e-07 -1.8277e-07 0)
(-2.76572e-07 -2.22974e-07 0)
(-2.60755e-07 -2.14559e-07 0)
(-2.44839e-07 -2.06449e-07 0)
(-2.28846e-07 -1.98651e-07 0)
(-2.89262e-07 -2.38974e-07 0)
(-2.73055e-07 -2.30634e-07 0)
(-2.56742e-07 -2.22606e-07 0)
(-2.40351e-07 -2.14901e-07 0)
(-3.0184e-07 -2.55351e-07 0)
(-2.85229e-07 -2.47084e-07 0)
(-2.68502e-07 -2.39144e-07 0)
(-2.51698e-07 -2.31538e-07 0)
(-3.14308e-07 -2.72128e-07 0)
(-2.97271e-07 -2.63937e-07 0)
(-2.80113e-07 -2.56088e-07 0)
(-2.62875e-07 -2.48587e-07 0)
(-3.2666e-07 -2.89333e-07 0)
(-3.09176e-07 -2.81222e-07 0)
(-2.91566e-07 -2.73467e-07 0)
(-2.73873e-07 -2.66076e-07 0)
(-3.38894e-07 -3.06998e-07 0)
(-3.20939e-07 -2.98969e-07 0)
(-3.02857e-07 -2.91313e-07 0)
(-2.84686e-07 -2.84036e-07 0)
(-3.51e-07 -3.25152e-07 0)
(-3.32554e-07 -3.1721e-07 0)
(-3.13978e-07 -3.09656e-07 0)
(-2.95307e-07 -3.02497e-07 0)
(-3.62971e-07 -3.43823e-07 0)
(-3.44014e-07 -3.35975e-07 0)
(-3.24926e-07 -3.28526e-07 0)
(-3.05736e-07 -3.21485e-07 0)
(-3.74795e-07 -3.63035e-07 0)
(-3.5531e-07 -3.55287e-07 0)
(-3.35696e-07 -3.47949e-07 0)
(-3.15972e-07 -3.41026e-07 0)
(-3.86459e-07 -3.82809e-07 0)
(-3.66436e-07 -3.75169e-07 0)
(-3.46286e-07 -3.67944e-07 0)
(-3.26016e-07 -3.61139e-07 0)
(-3.97947e-07 -4.03157e-07 0)
(-3.77382e-07 -3.95634e-07 0)
(-3.56693e-07 -3.88525e-07 0)
(-3.35873e-07 -3.81837e-07 0)
(-4.09245e-07 -4.24084e-07 0)
(-3.8814e-07 -4.16687e-07 0)
(-3.66915e-07 -4.09699e-07 0)
(-3.45548e-07 -4.03125e-07 0)
(-4.20335e-07 -4.45587e-07 0)
(-3.987e-07 -4.38326e-07 0)
(-3.76951e-07 -4.31461e-07 0)
(-3.55047e-07 -4.24999e-07 0)
(-4.31199e-07 -4.67653e-07 0)
(-4.09053e-07 -4.60538e-07 0)
(-3.86799e-07 -4.53801e-07 0)
(-3.64378e-07 -4.47447e-07 0)
(-4.41819e-07 -4.90259e-07 0)
(-4.19191e-07 -4.833e-07 0)
(-3.96459e-07 -4.76694e-07 0)
(-3.73549e-07 -4.70446e-07 0)
(-4.52178e-07 -5.13373e-07 0)
(-4.29103e-07 -5.0658e-07 0)
(-4.0593e-07 -5.00108e-07 0)
(-3.82567e-07 -4.93963e-07 0)
(-4.62259e-07 -5.36951e-07 0)
(-4.38782e-07 -5.30334e-07 0)
(-4.15212e-07 -5.24e-07 0)
(-3.91442e-07 -5.17955e-07 0)
(-4.72044e-07 -5.60943e-07 0)
(-4.48218e-07 -5.5451e-07 0)
(-4.24304e-07 -5.48318e-07 0)
(-4.0018e-07 -5.4237e-07 0)
(-4.81518e-07 -5.85286e-07 0)
(-4.57405e-07 -5.79047e-07 0)
(-4.33206e-07 -5.72999e-07 0)
(-4.08788e-07 -5.67147e-07 0)
(-4.90668e-07 -6.09911e-07 0)
(-4.66333e-07 -6.03874e-07 0)
(-4.41917e-07 -5.97974e-07 0)
(-4.17273e-07 -5.92217e-07 0)
(-4.9948e-07 -6.34743e-07 0)
(-4.74998e-07 -6.28915e-07 0)
(-4.50435e-07 -6.23166e-07 0)
(-4.25638e-07 -6.17503e-07 0)
(-5.07946e-07 -6.597e-07 0)
(-4.83392e-07 -6.54086e-07 0)
(-4.58759e-07 -6.48492e-07 0)
(-4.33885e-07 -6.42923e-07 0)
(-5.16056e-07 -6.84696e-07 0)
(-4.91511e-07 -6.79301e-07 0)
(-4.66885e-07 -6.73865e-07 0)
(-4.42016e-07 -6.68392e-07 0)
(-5.23806e-07 -7.09643e-07 0)
(-4.9935e-07 -7.04471e-07 0)
(-4.74813e-07 -6.99196e-07 0)
(-4.50029e-07 -6.93821e-07 0)
(-5.3119e-07 -7.3445e-07 0)
(-5.06907e-07 -7.29504e-07 0)
(-4.82537e-07 -7.24392e-07 0)
(-4.5792e-07 -7.1912e-07 0)
(-5.38209e-07 -7.59029e-07 0)
(-5.14177e-07 -7.5431e-07 0)
(-4.90054e-07 -7.49365e-07 0)
(-4.65685e-07 -7.44199e-07 0)
(-5.44863e-07 -7.83294e-07 0)
(-5.2116e-07 -7.78801e-07 0)
(-4.97359e-07 -7.74026e-07 0)
(-4.73316e-07 -7.68973e-07 0)
(-5.51156e-07 -8.07162e-07 0)
(-5.27855e-07 -8.02894e-07 0)
(-5.04448e-07 -7.98292e-07 0)
(-4.80802e-07 -7.93358e-07 0)
(-5.57094e-07 -8.30556e-07 0)
(-5.34261e-07 -8.26512e-07 0)
(-5.11313e-07 -8.22085e-07 0)
(-4.88132e-07 -8.17277e-07 0)
(-5.62684e-07 -8.53407e-07 0)
(-5.40379e-07 -8.49583e-07 0)
(-5.17949e-07 -8.45333e-07 0)
(-4.95292e-07 -8.40661e-07 0)
(-5.67936e-07 -8.75654e-07 0)
(-5.4621e-07 -8.72046e-07 0)
(-5.24349e-07 -8.67976e-07 0)
(-5.02268e-07 -8.63448e-07 0)
(-5.7286e-07 -8.97246e-07 0)
(-5.51756e-07 -8.93849e-07 0)
(-5.30505e-07 -8.89961e-07 0)
(-5.09042e-07 -8.85587e-07 0)
(-5.7747e-07 -9.18142e-07 0)
(-5.5702e-07 -9.14949e-07 0)
(-5.3641e-07 -9.11246e-07 0)
(-5.15597e-07 -9.07036e-07 0)
(-5.81777e-07 -9.38312e-07 0)
(-5.62002e-07 -9.35319e-07 0)
(-5.42055e-07 -9.31802e-07 0)
(-5.21914e-07 -9.27766e-07 0)
(-5.85796e-07 -9.5774e-07 0)
(-5.66707e-07 -9.54939e-07 0)
(-5.47433e-07 -9.51611e-07 0)
(-5.27975e-07 -9.47759e-07 0)
(-5.8954e-07 -9.7642e-07 0)
(-5.71137e-07 -9.73805e-07 0)
(-5.52536e-07 -9.70667e-07 0)
(-5.3376e-07 -9.67011e-07 0)
(-5.93023e-07 -9.94359e-07 0)
(-5.75294e-07 -9.91924e-07 0)
(-5.57355e-07 -9.88979e-07 0)
(-5.3925e-07 -9.85527e-07 0)
(-5.9626e-07 -1.01158e-06 0)
(-5.79182e-07 -1.00932e-06 0)
(-5.61883e-07 -1.00656e-06 0)
(-5.44426e-07 -1.00333e-06 0)
(-5.99261e-07 -1.02811e-06 0)
(-5.82802e-07 -1.02601e-06 0)
(-5.66112e-07 -1.02346e-06 0)
(-5.49272e-07 -1.02044e-06 0)
(-6.02038e-07 -1.04399e-06 0)
(-5.86157e-07 -1.04206e-06 0)
(-5.70036e-07 -1.0397e-06 0)
(-5.53771e-07 -1.03692e-06 0)
(-6.04601e-07 -1.05929e-06 0)
(-5.89249e-07 -1.05751e-06 0)
(-5.73649e-07 -1.05535e-06 0)
(-5.57909e-07 -1.0528e-06 0)
(-6.06956e-07 -1.07404e-06 0)
(-5.92077e-07 -1.07243e-06 0)
(-5.76944e-07 -1.07046e-06 0)
(-5.61675e-07 -1.06816e-06 0)
(-6.09109e-07 -1.08834e-06 0)
(-5.94642e-07 -1.08688e-06 0)
(-5.79918e-07 -1.08511e-06 0)
(-5.65059e-07 -1.08305e-06 0)
(-6.11061e-07 -1.10224e-06 0)
(-5.96944e-07 -1.10093e-06 0)
(-5.82567e-07 -1.09937e-06 0)
(-5.68055e-07 -1.09756e-06 0)
(-6.12812e-07 -1.11583e-06 0)
(-5.9898e-07 -1.11467e-06 0)
(-5.8489e-07 -1.11331e-06 0)
(-5.7066e-07 -1.11175e-06 0)
(-6.14358e-07 -1.12918e-06 0)
(-6.00748e-07 -1.12818e-06 0)
(-5.86884e-07 -1.12702e-06 0)
(-5.72875e-07 -1.1257e-06 0)
(-6.15691e-07 -1.14235e-06 0)
(-6.02245e-07 -1.14151e-06 0)
(-5.88549e-07 -1.14056e-06 0)
(-5.74704e-07 -1.13949e-06 0)
(-6.16802e-07 -1.15542e-06 0)
(-6.03466e-07 -1.15475e-06 0)
(-5.89889e-07 -1.154e-06 0)
(-5.76155e-07 -1.15317e-06 0)
(-6.17674e-07 -1.16845e-06 0)
(-6.04401e-07 -1.16795e-06 0)
(-5.90898e-07 -1.16741e-06 0)
(-5.77234e-07 -1.16681e-06 0)
(-6.18306e-07 -1.18149e-06 0)
(-6.05059e-07 -1.18117e-06 0)
(-5.91597e-07 -1.18083e-06 0)
(-5.77969e-07 -1.18046e-06 0)
(-6.18643e-07 -1.19461e-06 0)
(-6.054e-07 -1.19446e-06 0)
(-5.91952e-07 -1.1943e-06 0)
(-5.78338e-07 -1.19411e-06 0)
)
;

boundaryField
{
    plateFix
    {
        type            fixedDisplacement;
        value           uniform (0 0 0);
    }
    plate
    {
        type            solidTraction;
        nonLinear       updatedLagrangian;
        traction        nonuniform List<vector> 
168
(
(2.40482e-05 7.48017e-05 1.84085e-23)
(2.28755e-05 -7.6059e-05 -3.83198e-20)
(-0.000109056 -6.61162e-05 4.47566e-20)
(-0.000104613 5.94657e-05 0)
(-0.000557504 -0.000243436 -4.53121e-20)
(-0.000542126 0.000234006 4.07304e-20)
(-0.00125335 -0.000385595 0)
(-0.00122405 0.000374809 -4.11117e-20)
(-0.00214337 -0.000474749 0)
(-0.00209847 0.000463394 -1.89227e-23)
(-0.00317895 -0.000513753 2.22407e-21)
(-0.00311751 0.000502152 0)
(-0.00430995 -0.000514989 -3.31798e-20)
(-0.00423164 0.00050309 -4.20586e-21)
(-0.00549253 -0.000492513 5.74415e-20)
(-0.00539741 0.000480001 3.11471e-20)
(-0.00669229 -0.000458169 -2.81255e-20)
(-0.00658065 0.000444569 -2.5036e-20)
(-0.00788447 -0.000420559 0)
(-0.00775661 0.00040532 0)
(-0.00905313 -0.000385211 0)
(-0.00890928 0.000367756 0)
(-0.0101898 -0.000355177 1.5737e-20)
(-0.01003 0.000334935 4.16293e-23)
(-0.0112915 -0.000331705 -2.35526e-20)
(-0.0111159 0.000308128 0)
(-0.0123593 -0.000314837 0)
(-0.0121675 0.0002874 0)
(-0.0133959 -0.000303854 -1.10801e-20)
(-0.0131876 0.00027206 -1.12794e-20)
(-0.014404 -0.000297598 1.63355e-20)
(-0.0141791 0.000260968 1.33117e-20)
(-0.0153852 -0.000294663 5.71115e-21)
(-0.0151437 0.000252745 5.90641e-21)
(-0.0163379 -0.000293458 1.98622e-20)
(-0.0160801 0.000245831 1.58589e-22)
(-0.0172587 -0.000292255 -3.44213e-20)
(-0.0169855 0.000238558 4.39905e-21)
(-0.0181331 -0.000288898 1.49687e-20)
(-0.0178462 0.000228859 0)
(-0.0189652 -0.000280158 0)
(-0.0186673 0.000213734 3.26e-21)
(-0.0196836 -0.000266868 -1.70786e-22)
(-0.0193809 0.000193979 1.10931e-20)
(-0.0205309 -0.000219369 9.33594e-21)
(-0.0202215 0.000140784 -9.51171e-21)
(-0.0214134 -0.000163998 -9.07497e-21)
(-0.0210956 7.81831e-05 -1.43763e-22)
(-0.0221466 -0.000154462 0)
(-0.0218302 6.00078e-05 0)
(-0.0228414 -0.000140664 8.66081e-21)
(-0.0225302 3.79762e-05 -2.79383e-22)
(-0.0234502 -0.000136807 -8.93898e-21)
(-0.0231505 2.58534e-05 -4.12555e-22)
(-0.0240146 -0.000130194 8.61862e-21)
(-0.0237315 1.11774e-05 2.70336e-22)
(-0.0245142 -0.000125803 -8.36405e-21)
(-0.0242538 -1.10031e-06 -2.65482e-22)
(-0.0249625 -0.000120308 0)
(-0.0247307 -1.42531e-05 -8.24379e-21)
(-0.0253516 -0.000115026 0)
(-0.0251544 -2.6903e-05 8.50734e-21)
(-0.0256841 -0.000108995 -2.42752e-22)
(-0.0255276 -3.99677e-05 0)
(-0.0259559 -0.000102459 -4.73464e-22)
(-0.0258461 -5.31329e-05 -2.44188e-22)
(-0.0261658 -9.50853e-05 -3.17408e-21)
(-0.0261084 -6.66737e-05 2.37946e-22)
(-0.0263103 -8.68608e-05 6.94856e-21)
(-0.026311 -8.0534e-05 -3.65654e-21)
(-0.0263866 -7.76391e-05 1.09626e-22)
(-0.026451 -9.47937e-05 3.43467e-21)
(-0.0263916 -6.73691e-05 -3.43289e-21)
(-0.0265248 -0.000109434 0)
(-0.0263219 -5.59809e-05 0)
(-0.0265288 -0.000124458 -3.3399e-21)
(-0.0261744 -4.34441e-05 1.97906e-22)
(-0.0264594 -0.000139829 3.54863e-21)
(-0.025946 -2.9739e-05 0)
(-0.0263133 -0.000155502 1.9894e-22)
(-0.0256338 -1.48724e-05 1.83605e-22)
(-0.026087 -0.000171412 1.91259e-22)
(-0.0252352 1.12816e-06 1.76272e-22)
(-0.0257774 -0.000187479 2.88259e-21)
(-0.024748 1.8214e-05 1.6814e-22)
(-0.0253818 -0.000203609 -2.88544e-21)
(-0.0241704 3.63148e-05 0)
(-0.0248978 -0.000219695 0)
(-0.023501 5.53398e-05 0)
(-0.0243235 -0.000235617 -6.6631e-25)
(-0.022739 7.51799e-05 -2.92302e-22)
(-0.0236574 -0.00025125 0)
(-0.0218841 9.57087e-05 0)
(-0.0228987 -0.00026646 2.13067e-21)
(-0.0209369 0.000116787 0)
(-0.022047 -0.000281111 -2.14055e-21)
(-0.0198981 0.000138262 -3.69182e-22)
(-0.0211027 -0.000295067 1.31764e-22)
(-0.0187695 0.000159976 -1.54738e-21)
(-0.0200668 -0.000308194 1.23419e-22)
(-0.0175533 0.000181762 1.20113e-22)
(-0.0189408 -0.000320364 1.79416e-21)
(-0.0162524 0.000203456 1.56079e-21)
(-0.0177268 -0.000331459 -1.90526e-21)
(-0.0148701 0.000224895 -2.80854e-22)
(-0.0164276 -0.00034137 0)
(-0.0134104 0.000245924 1.73835e-22)
(-0.0150465 -0.000350006 -1.35456e-21)
(-0.0118778 0.000266394 1.60206e-22)
(-0.0135873 -0.000357289 1.45007e-21)
(-0.0102771 0.000286171 0)
(-0.012054 -0.000363159 5.35912e-22)
(-0.00861355 0.000305138 -6.80851e-23)
(-0.0104514 -0.000367578 -1.10711e-21)
(-0.00689258 0.000323193 1.2209e-22)
(-0.00878438 -0.000370524 5.65486e-22)
(-0.00511989 0.000340256 -4.1188e-22)
(-0.00705795 -0.000372 0)
(-0.00330126 0.000356267 4.1234e-22)
(-0.00527741 -0.000372027 0)
(-0.0014425 0.00037119 2.83378e-22)
(-0.00344812 -0.000370645 0)
(0.000450652 0.000385012 -3.67909e-22)
(-0.00157538 -0.000367919 0)
(0.0023726 0.000397744 0)
(0.000335586 -0.000363928 4.12334e-23)
(0.004318 0.000409423 -2.55033e-22)
(0.00227974 -0.000358772 -3.07509e-22)
(0.00628185 0.000420112 1.9895e-22)
(0.00425234 -0.00035257 -1.16885e-24)
(0.00825957 0.000429899 -1.78602e-24)
(0.00624899 -0.000345459 4.50933e-22)
(0.0102471 0.000438904 -1.08322e-22)
(0.00826577 -0.000337594 -2.11422e-22)
(0.0122411 0.00044728 1.82688e-22)
(0.0102994 -0.000329155 1.63819e-22)
(0.014239 0.000455213 0)
(0.0123472 -0.000320344 -1.63984e-22)
(0.016239 0.00046295 1.70811e-24)
(0.0144074 -0.00031141 -1.26359e-23)
(0.0182408 0.000470782 0)
(0.0164796 -0.000302631 6.45445e-23)
(0.0202453 0.000479138 -1.68122e-24)
(0.0185645 -0.000294404 6.64221e-23)
(0.0222555 0.00048853 -2.02125e-23)
(0.0206648 -0.000287195 2.26306e-23)
(0.0242776 0.000499922 -2.14715e-23)
(0.0227863 -0.00028188 -8.83126e-23)
(0.0263208 0.000514627 0)
(0.0249381 -0.000279674 2.43694e-23)
(0.0284028 0.000536222 -1.72277e-24)
(0.0271373 -0.000283967 1.26167e-23)
(0.0305516 0.00057091 -2.51246e-23)
(0.0294117 -0.000300782 5.23358e-23)
(0.0328187 0.000641817 5.18909e-23)
(0.0318119 -0.000352905 -1.55204e-23)
(0.0353243 0.000793394 1.68411e-23)
(0.0344603 -0.000484621 0)
(0.0382348 0.00123566 1.97189e-23)
(0.0375222 -0.000905348 3.7804e-23)
(0.042424 0.00235948 -2.27915e-23)
(0.0418867 -0.00200465 4.4373e-23)
(0.0483829 0.00672843 -3.68849e-23)
(0.00991455 0.00540396 -1.86905e-23)
(-0.000500432 -0.00266028 3.55191e-24)
(-0.000515007 0.00287055 -1.06445e-23)
(0.00986039 -0.00505186 6.11625e-23)
(0.0479687 -0.00632247 1.52273e-23)
)
;
        pressure        nonuniform List<scalar> 
168
(
-0.474258
-0.482171
-0.47487
-0.482769
-0.475546
-0.483436
-0.476211
-0.484097
-0.476799
-0.484684
-0.477236
-0.485126
-0.477474
-0.485374
-0.477485
-0.4854
-0.477256
-0.485193
-0.476782
-0.484745
-0.476061
-0.484055
-0.47509
-0.483123
-0.473864
-0.481942
-0.472371
-0.480501
-0.470592
-0.478784
-0.468501
-0.476765
-0.466063
-0.474411
-0.463237
-0.471683
-0.459982
-0.46854
-0.456233
-0.46492
-0.451996
-0.46083
-0.447064
-0.456065
-0.441727
-0.450907
-0.435133
-0.444538
-0.428451
-0.438078
-0.421239
-0.431104
-0.413796
-0.423899
-0.405956
-0.416304
-0.397825
-0.408419
-0.389353
-0.400195
-0.380577
-0.391665
-0.371487
-0.382819
-0.3621
-0.373671
-0.352421
-0.364224
-0.342461
-0.354488
-0.332233
-0.344473
-0.32175
-0.334191
-0.311028
-0.323656
-0.300087
-0.312886
-0.288946
-0.301898
-0.277628
-0.290716
-0.266159
-0.279361
-0.254566
-0.267861
-0.24288
-0.256244
-0.231131
-0.244541
-0.219355
-0.232784
-0.207585
-0.221008
-0.19586
-0.209249
-0.184217
-0.197544
-0.172694
-0.185931
-0.161332
-0.174449
-0.150168
-0.163135
-0.139241
-0.15203
-0.12859
-0.14117
-0.118252
-0.130592
-0.108261
-0.120332
-0.0986519
-0.110425
-0.0894554
-0.100901
-0.080701
-0.0917922
-0.0724155
-0.0831251
-0.0646229
-0.0749254
-0.0573446
-0.067216
-0.0505992
-0.0600173
-0.0444023
-0.0533471
-0.0387672
-0.0472208
-0.0337043
-0.0416514
-0.0292217
-0.0366499
-0.0253254
-0.0322253
-0.0220197
-0.0283851
-0.0193072
-0.0251353
-0.01719
-0.0224816
-0.0156691
-0.0204288
-0.0147476
-0.0189834
-0.0144274
-0.0181513
-0.0147181
-0.0179455
-0.0156275
-0.0183779
-0.0171859
-0.019481
-0.0194312
-0.0212992
-0.0224372
-0.0239028
-0.0265463
-0.0276529
-0.0316115
-0.0323917
-0.0417773
-0.0723241
-0.0491641
-0.0492127
-0.0720765
-0.0423371
)
;
        value           nonuniform List<vector> 
168
(
(-1.25643e-08 -7.04444e-09 2.22334e-26)
(-9.29514e-09 4.89353e-09 -1.85789e-26)
(-1.25276e-08 -1.1223e-08 -8.09888e-27)
(-8.69268e-09 7.95575e-09 5.49805e-27)
(-1.34361e-08 -1.45496e-08 2.73229e-28)
(-8.64385e-09 1.01973e-08 2.89824e-27)
(-1.53455e-08 -1.70273e-08 -4.59892e-27)
(-9.29565e-09 1.15733e-08 -1.18445e-26)
(-1.81759e-08 -1.90034e-08 -5.97617e-27)
(-1.06219e-08 1.2294e-08 6.01739e-27)
(-2.17372e-08 -2.065e-08 6.60889e-27)
(-1.24987e-08 1.24468e-08 -3.49185e-27)
(-2.59246e-08 -2.21475e-08 6.18854e-27)
(-1.48587e-08 1.21229e-08 2.25755e-27)
(-3.06567e-08 -2.36227e-08 4.07827e-27)
(-1.76483e-08 1.13707e-08 1.17109e-26)
(-3.58898e-08 -2.51862e-08 -1.69663e-26)
(-2.08402e-08 1.02212e-08 -1.34791e-27)
(-4.15978e-08 -2.69289e-08 -3.94618e-27)
(-2.442e-08 8.684e-09 -1.5209e-26)
(-4.77703e-08 -2.89318e-08 7.61266e-27)
(-2.83857e-08 6.75328e-09 -6.80618e-28)
(-5.44058e-08 -3.12686e-08 -1.4996e-27)
(-3.27434e-08 4.40852e-09 8.82976e-27)
(-6.15103e-08 -3.40087e-08 2.83618e-27)
(-3.75068e-08 1.61673e-09 -2.32112e-27)
(-6.90945e-08 -3.722e-08 -5.05317e-27)
(-4.26957e-08 -1.66643e-09 8.59557e-27)
(-7.71736e-08 -4.09701e-08 3.23242e-27)
(-4.8336e-08 -5.4952e-09 -9.24208e-27)
(-8.57662e-08 -4.53278e-08 1.56943e-27)
(-5.44586e-08 -9.9324e-09 5.33725e-28)
(-9.48937e-08 -5.03643e-08 -6.56812e-27)
(-6.1099e-08 -1.50482e-08 -4.03038e-27)
(-1.0458e-07 -5.61539e-08 -8.89582e-28)
(-6.82971e-08 -2.09187e-08 1.21992e-26)
(-1.14851e-07 -6.27744e-08 2.52956e-27)
(-7.60958e-08 -2.76253e-08 2.12765e-27)
(-1.25735e-07 -7.03073e-08 -2.01323e-27)
(-8.45406e-08 -3.52535e-08 1.95635e-27)
(-1.37261e-07 -7.88376e-08 -4.42209e-27)
(-9.36782e-08 -4.38926e-08 -4.40701e-27)
(-1.49464e-07 -8.84544e-08 5.50329e-27)
(-1.03556e-07 -5.36356e-08 3.58395e-27)
(-1.6287e-07 -9.96624e-08 4.52038e-27)
(-1.14627e-07 -6.49974e-08 -2.35016e-27)
(-1.77016e-07 -1.12208e-07 7.14446e-28)
(-1.26538e-07 -7.77244e-08 1.92597e-27)
(-1.90973e-07 -1.25242e-07 5.0827e-27)
(-1.38481e-07 -9.09566e-08 -3.93425e-27)
(-2.04753e-07 -1.38714e-07 -9.61204e-27)
(-1.5043e-07 -1.04644e-07 1.20061e-26)
(-2.1837e-07 -1.52585e-07 -2.10628e-28)
(-1.62359e-07 -1.18747e-07 1.3723e-26)
(-2.31838e-07 -1.66824e-07 8.09732e-27)
(-1.74243e-07 -1.33236e-07 1.37393e-26)
(-2.45168e-07 -1.81414e-07 7.02294e-28)
(-1.86057e-07 -1.48092e-07 -4.5002e-27)
(-2.58371e-07 -1.96343e-07 5.76835e-27)
(-1.97777e-07 -1.63304e-07 1.10663e-26)
(-2.71456e-07 -2.11609e-07 1.2573e-26)
(-2.09383e-07 -1.7887e-07 -2.69462e-27)
(-2.84431e-07 -2.27218e-07 6.82949e-27)
(-2.20854e-07 -1.94794e-07 -2.75736e-27)
(-2.97303e-07 -2.43183e-07 8.25983e-28)
(-2.32171e-07 -2.11092e-07 4.21775e-27)
(-3.10075e-07 -2.59525e-07 3.7348e-27)
(-2.43319e-07 -2.27781e-07 1.92141e-27)
(-3.22748e-07 -2.76267e-07 3.39453e-28)
(-2.54283e-07 -2.44885e-07 -2.62517e-28)
(-3.35322e-07 -2.93436e-07 -1.21009e-26)
(-2.65054e-07 -2.62433e-07 8.87307e-27)
(-3.47791e-07 -3.11062e-07 -1.79481e-27)
(-2.75625e-07 -2.80452e-07 6.06026e-28)
(-3.60149e-07 -3.29175e-07 -8.91724e-29)
(-2.8599e-07 -2.98973e-07 -1.07131e-26)
(-3.72383e-07 -3.47801e-07 -2.28699e-27)
(-2.96149e-07 -3.18023e-07 -4.71045e-27)
(-3.84482e-07 -3.66965e-07 -6.2873e-27)
(-3.06104e-07 -3.37625e-07 7.2666e-28)
(-3.96429e-07 -3.86686e-07 -5.82215e-27)
(-3.15859e-07 -3.57798e-07 3.24832e-27)
(-4.08206e-07 -4.06976e-07 -4.18336e-27)
(-3.25423e-07 -3.78554e-07 2.74021e-27)
(-4.19792e-07 -4.27839e-07 -5.25397e-27)
(-3.34804e-07 -3.99899e-07 5.04263e-27)
(-4.31166e-07 -4.49273e-07 -4.14477e-27)
(-3.44013e-07 -4.21827e-07 -6.95163e-27)
(-4.42306e-07 -4.71264e-07 2.6468e-27)
(-3.53063e-07 -4.44327e-07 6.78223e-27)
(-4.53189e-07 -4.93789e-07 1.10104e-27)
(-3.61967e-07 -4.67376e-07 -4.36995e-27)
(-4.63792e-07 -5.16815e-07 -7.14398e-27)
(-3.70737e-07 -4.90939e-07 1.06741e-27)
(-4.74092e-07 -5.40301e-07 3.74011e-27)
(-3.79387e-07 -5.14976e-07 -8.80429e-27)
(-4.84069e-07 -5.64193e-07 4.8162e-28)
(-3.87929e-07 -5.39433e-07 -7.73237e-27)
(-4.93702e-07 -5.88433e-07 -4.24398e-27)
(-3.96374e-07 -5.64251e-07 9.7171e-27)
(-5.02975e-07 -6.1295e-07 5.22853e-27)
(-4.04732e-07 -5.8936e-07 -3.80508e-27)
(-5.11872e-07 -6.3767e-07 1.27367e-27)
(-4.13008e-07 -6.14684e-07 -5.95314e-27)
(-5.2038e-07 -6.62511e-07 4.18818e-27)
(-4.2121e-07 -6.40143e-07 -5.58223e-27)
(-5.28489e-07 -6.87388e-07 -3.01817e-29)
(-4.29338e-07 -6.65651e-07 -1.0713e-26)
(-5.36193e-07 -7.12214e-07 1.44184e-27)
(-4.37393e-07 -6.9112e-07 -3.98647e-27)
(-5.43487e-07 -7.369e-07 1.28145e-26)
(-4.45372e-07 -7.16461e-07 5.44878e-27)
(-5.50372e-07 -7.61357e-07 -3.8141e-29)
(-4.53268e-07 -7.41585e-07 -5.13376e-27)
(-5.5685e-07 -7.855e-07 -4.9829e-27)
(-4.61071e-07 -7.66406e-07 7.9356e-30)
(-5.62928e-07 -8.09247e-07 5.28e-27)
(-4.6877e-07 -7.90843e-07 -4.33731e-29)
(-5.68614e-07 -8.32523e-07 1.61134e-26)
(-4.76349e-07 -8.14819e-07 1.52447e-29)
(-5.73919e-07 -8.55258e-07 -2.33731e-26)
(-4.83792e-07 -8.38264e-07 5.19803e-27)
(-5.78858e-07 -8.77391e-07 1.11546e-26)
(-4.91078e-07 -8.61118e-07 -1.11297e-26)
(-5.83446e-07 -8.98874e-07 7.04155e-27)
(-4.98185e-07 -8.8333e-07 5.8853e-27)
(-5.87702e-07 -9.19664e-07 4.97849e-27)
(-5.05091e-07 -9.04858e-07 -1.19373e-26)
(-5.91644e-07 -9.39733e-07 -1.82172e-26)
(-5.11771e-07 -9.25674e-07 -6.06261e-27)
(-5.95292e-07 -9.59063e-07 2.23048e-29)
(-5.182e-07 -9.45759e-07 -1.20002e-26)
(-5.98666e-07 -9.77651e-07 -4.26423e-29)
(-5.24353e-07 -9.65108e-07 1.8289e-26)
(-6.01786e-07 -9.95503e-07 -1.78499e-27)
(-5.30204e-07 -9.83728e-07 1.2806e-26)
(-6.04672e-07 -1.01264e-06 -1.47353e-26)
(-5.35729e-07 -1.00164e-06 1.30921e-26)
(-6.07341e-07 -1.02909e-06 1.52465e-27)
(-5.40905e-07 -1.01887e-06 -1.32727e-26)
(-6.0981e-07 -1.0449e-06 -1.49928e-26)
(-5.4571e-07 -1.03547e-06 1.35475e-26)
(-6.12092e-07 -1.06012e-06 1.24301e-26)
(-5.50127e-07 -1.05147e-06 1.45411e-26)
(-6.142e-07 -1.0748e-06 -1.2728e-26)
(-5.54138e-07 -1.06696e-06 -8.68372e-28)
(-6.1614e-07 -1.08903e-06 1.52968e-26)
(-5.57733e-07 -1.08198e-06 2.80682e-26)
(-6.17916e-07 -1.10286e-06 1.43243e-26)
(-5.60903e-07 -1.09662e-06 -7.93499e-28)
(-6.19529e-07 -1.11638e-06 -9.43441e-28)
(-5.63646e-07 -1.11094e-06 1.37006e-26)
(-6.20972e-07 -1.12965e-06 1.47083e-26)
(-5.65962e-07 -1.12503e-06 -1.46332e-26)
(-6.22237e-07 -1.14276e-06 -1.4844e-26)
(-5.67856e-07 -1.13894e-06 1.48323e-26)
(-6.23313e-07 -1.15575e-06 8.6394e-31)
(-5.69342e-07 -1.15275e-06 9.99229e-29)
(-6.24177e-07 -1.1687e-06 4.54414e-28)
(-5.70429e-07 -1.16651e-06 3.01229e-26)
(-6.24832e-07 -1.18164e-06 -1.39364e-29)
(-5.71163e-07 -1.18028e-06 -1.56034e-26)
(-6.25215e-07 -1.19468e-06 2.31725e-28)
(-6.18713e-07 -1.20121e-06 -1.75113e-28)
(-6.05475e-07 -1.20114e-06 -7.54743e-27)
(-5.92031e-07 -1.20107e-06 4.09295e-30)
(-5.78416e-07 -1.20093e-06 -1.94123e-29)
(-5.71535e-07 -1.19403e-06 3.71287e-31)
)
;
    }
    frontAndBackPlanes
    {
        type            empty;
    }
}


// ************************************************************************* //
