/*--------------------------------*- C++ -*----------------------------------*\
| =========                 |                                                 |
| \\      /  F ield         | OpenFOAM Extend Project: Open source CFD        |
|  \\    /   O peration     | Version:  1.6-ext                               |
|   \\  /    A nd           | Web:      www.extend-project.de                 |
|    \\/     M anipulation  |                                                 |
\*---------------------------------------------------------------------------*/
FoamFile
{
    version     2.0;
    format      ascii;
    class       volVectorField;
    location    "1.1";
    object      DU_0;
}
// * * * * * * * * * * * * * * * * * * * * * * * * * * * * * * * * * * * * * //

dimensions      [0 1 0 0 0 0 0];

internalField   nonuniform List<vector> 
328
(
(-1.23507e-09 -2.27419e-09 0)
(-7.28148e-10 -3.9075e-10 0)
(-6.42367e-10 4.4757e-10 0)
(-8.20075e-10 1.73869e-09 0)
(-3.76943e-09 -5.87358e-09 0)
(-2.41471e-09 -1.26039e-09 0)
(-2.11581e-09 1.18816e-09 0)
(-2.49149e-09 4.42244e-09 0)
(-6.70364e-09 -8.65103e-09 0)
(-4.68079e-09 -2.21862e-09 0)
(-4.07745e-09 1.75267e-09 0)
(-4.43117e-09 6.31955e-09 0)
(-9.89928e-09 -1.07821e-08 0)
(-7.33072e-09 -3.20947e-09 0)
(-6.37926e-09 2.07559e-09 0)
(-6.55014e-09 7.51184e-09 0)
(-1.33933e-08 -1.24795e-08 0)
(-1.03995e-08 -4.21782e-09 0)
(-9.05521e-09 2.12796e-09 0)
(-8.88103e-09 8.11966e-09 0)
(-1.71672e-08 -1.39116e-08 0)
(-1.38241e-08 -5.2521e-09 0)
(-1.20571e-08 1.88833e-09 0)
(-1.14178e-08 8.23103e-09 0)
(-2.12377e-08 -1.52211e-08 0)
(-1.75968e-08 -6.34347e-09 0)
(-1.53798e-08 1.34867e-09 0)
(-1.41789e-08 7.91371e-09 0)
(-2.56157e-08 -1.65225e-08 0)
(-2.1695e-08 -7.53574e-09 0)
(-1.90053e-08 5.02366e-10 0)
(-1.71788e-08 7.21041e-09 0)
(-3.032e-08 -1.79133e-08 0)
(-2.61138e-08 -8.88205e-09 0)
(-2.29299e-08 -6.57434e-10 0)
(-2.04374e-08 6.14556e-09 0)
(-3.5369e-08 -1.94777e-08 0)
(-3.0851e-08 -1.04399e-08 0)
(-2.71526e-08 -2.14311e-09 0)
(-2.39746e-08 4.7261e-09 0)
(-4.07828e-08 -2.12911e-08 0)
(-3.59138e-08 -1.22695e-08 0)
(-3.1681e-08 -3.97432e-09 0)
(-2.78118e-08 2.9442e-09 0)
(-4.65814e-08 -2.34236e-08 0)
(-4.13144e-08 -1.44317e-08 0)
(-3.65281e-08 -6.17985e-09 0)
(-3.1971e-08 7.78288e-10 0)
(-5.27854e-08 -2.59423e-08 0)
(-4.70716e-08 -1.69887e-08 0)
(-4.17128e-08 -8.79807e-09 0)
(-3.64753e-08 -1.80563e-09 0)
(-5.94158e-08 -2.89134e-08 0)
(-5.32081e-08 -2.00037e-08 0)
(-4.72589e-08 -1.1877e-08 0)
(-4.13491e-08 -4.85294e-09 0)
(-6.64947e-08 -3.2404e-08 0)
(-5.97506e-08 -2.35424e-08 0)
(-5.31942e-08 -1.54737e-08 0)
(-4.66186e-08 -8.41936e-09 0)
(-7.40447e-08 -3.64838e-08 0)
(-6.67285e-08 -2.76738e-08 0)
(-5.95496e-08 -1.9654e-08 0)
(-5.23118e-08 -1.25699e-08 0)
(-8.20902e-08 -4.12269e-08 0)
(-7.4173e-08 -3.24714e-08 0)
(-6.63579e-08 -2.44914e-08 0)
(-5.84593e-08 -1.73782e-08 0)
(-9.06569e-08 -4.67122e-08 0)
(-8.21166e-08 -3.80144e-08 0)
(-7.3654e-08 -3.0067e-08 0)
(-6.50937e-08 -2.29256e-08 0)
(-9.9772e-08 -5.30253e-08 0)
(-9.05929e-08 -4.43883e-08 0)
(-8.14737e-08 -3.6469e-08 0)
(-7.22498e-08 -2.9301e-08 0)
(-1.09464e-07 -6.02589e-08 0)
(-9.9636e-08 -5.1686e-08 0)
(-8.98539e-08 -4.37931e-08 0)
(-7.99643e-08 -3.66009e-08 0)
(-1.19765e-07 -6.85136e-08 0)
(-1.09281e-07 -6.00082e-08 0)
(-9.88321e-08 -5.21421e-08 0)
(-8.82758e-08 -4.49294e-08 0)
(-1.30704e-07 -7.78984e-08 0)
(-1.19563e-07 -6.9464e-08 0)
(-1.08446e-07 -6.16273e-08 0)
(-9.72235e-08 -5.43987e-08 0)
(-1.42759e-07 -8.89363e-08 0)
(-1.30937e-07 -8.05795e-08 0)
(-1.19128e-07 -7.27775e-08 0)
(-1.07215e-07 -6.55387e-08 0)
(-1.55513e-07 -1.01422e-07 0)
(-1.43018e-07 -9.31469e-08 0)
(-1.30524e-07 -8.5385e-08 0)
(-1.17929e-07 -7.81444e-08 0)
(-1.68122e-07 -1.14526e-07 0)
(-1.55003e-07 -1.06331e-07 0)
(-1.41874e-07 -9.86129e-08 0)
(-1.28647e-07 -9.13793e-08 0)
(-1.80589e-07 -1.28201e-07 0)
(-1.66889e-07 -1.20085e-07 0)
(-1.5317e-07 -1.12415e-07 0)
(-1.39354e-07 -1.05197e-07 0)
(-1.92917e-07 -1.42407e-07 0)
(-1.78674e-07 -1.3437e-07 0)
(-1.64401e-07 -1.26751e-07 0)
(-1.50034e-07 -1.19558e-07 0)
(-2.05111e-07 -1.57111e-07 0)
(-1.90355e-07 -1.49151e-07 0)
(-1.7556e-07 -1.41588e-07 0)
(-1.60673e-07 -1.34427e-07 0)
(-2.17172e-07 -1.72285e-07 0)
(-2.0193e-07 -1.64402e-07 0)
(-1.86638e-07 -1.56897e-07 0)
(-1.71255e-07 -1.49778e-07 0)
(-2.29106e-07 -1.87909e-07 0)
(-2.13395e-07 -1.80102e-07 0)
(-1.97626e-07 -1.7266e-07 0)
(-1.81768e-07 -1.65589e-07 0)
(-2.40913e-07 -2.03968e-07 0)
(-2.24748e-07 -1.96237e-07 0)
(-2.08516e-07 -1.88861e-07 0)
(-1.92196e-07 -1.81848e-07 0)
(-2.52596e-07 -2.20454e-07 0)
(-2.35986e-07 -2.128e-07 0)
(-2.19301e-07 -2.05494e-07 0)
(-2.02528e-07 -1.98544e-07 0)
(-2.64155e-07 -2.37364e-07 0)
(-2.47105e-07 -2.29787e-07 0)
(-2.29973e-07 -2.22555e-07 0)
(-2.12752e-07 -2.15676e-07 0)
(-2.75589e-07 -2.54699e-07 0)
(-2.581e-07 -2.47201e-07 0)
(-2.40524e-07 -2.40047e-07 0)
(-2.22858e-07 -2.33243e-07 0)
(-2.86896e-07 -2.72464e-07 0)
(-2.68969e-07 -2.65047e-07 0)
(-2.50948e-07 -2.57974e-07 0)
(-2.32836e-07 -2.51251e-07 0)
(-2.98074e-07 -2.90665e-07 0)
(-2.79705e-07 -2.83332e-07 0)
(-2.6124e-07 -2.76344e-07 0)
(-2.42679e-07 -2.69706e-07 0)
(-3.09116e-07 -3.09309e-07 0)
(-2.90305e-07 -3.02064e-07 0)
(-2.71393e-07 -2.95164e-07 0)
(-2.52382e-07 -2.88615e-07 0)
(-3.20017e-07 -3.28403e-07 0)
(-3.00761e-07 -3.21251e-07 0)
(-2.81404e-07 -3.14442e-07 0)
(-2.61941e-07 -3.07984e-07 0)
(-3.30768e-07 -3.47952e-07 0)
(-3.11068e-07 -3.40897e-07 0)
(-2.91266e-07 -3.34184e-07 0)
(-2.71352e-07 -3.27818e-07 0)
(-3.41361e-07 -3.67959e-07 0)
(-3.21221e-07 -3.61007e-07 0)
(-3.00977e-07 -3.54392e-07 0)
(-2.80615e-07 -3.4812e-07 0)
(-3.51786e-07 -3.88422e-07 0)
(-3.31211e-07 -3.81579e-07 0)
(-3.10534e-07 -3.75066e-07 0)
(-2.89731e-07 -3.68889e-07 0)
(-3.6203e-07 -4.09336e-07 0)
(-3.41032e-07 -4.02609e-07 0)
(-3.19932e-07 -3.96201e-07 0)
(-2.98699e-07 -3.90119e-07 0)
(-3.72084e-07 -4.3069e-07 0)
(-3.50677e-07 -4.24086e-07 0)
(-3.29171e-07 -4.17787e-07 0)
(-3.07523e-07 -4.11799e-07 0)
(-3.81933e-07 -4.52467e-07 0)
(-3.60138e-07 -4.45994e-07 0)
(-3.38247e-07 -4.39807e-07 0)
(-3.16204e-07 -4.33912e-07 0)
(-3.91566e-07 -4.74647e-07 0)
(-3.69409e-07 -4.68311e-07 0)
(-3.47158e-07 -4.62239e-07 0)
(-3.24748e-07 -4.56437e-07 0)
(-4.0097e-07 -4.97199e-07 0)
(-3.78483e-07 -4.91008e-07 0)
(-3.55903e-07 -4.85055e-07 0)
(-3.33156e-07 -4.79344e-07 0)
(-4.10133e-07 -5.20089e-07 0)
(-3.87351e-07 -5.1405e-07 0)
(-3.64481e-07 -5.08219e-07 0)
(-3.41434e-07 -5.02599e-07 0)
(-4.19042e-07 -5.43276e-07 0)
(-3.96009e-07 -5.37397e-07 0)
(-3.72888e-07 -5.3169e-07 0)
(-3.49585e-07 -5.2616e-07 0)
(-4.27686e-07 -5.66712e-07 0)
(-4.04448e-07 -5.60999e-07 0)
(-3.81125e-07 -5.5542e-07 0)
(-3.57611e-07 -5.4998e-07 0)
(-4.36054e-07 -5.90345e-07 0)
(-4.12663e-07 -5.84804e-07 0)
(-3.89188e-07 -5.79357e-07 0)
(-3.65517e-07 -5.74007e-07 0)
(-4.44137e-07 -6.14118e-07 0)
(-4.20649e-07 -6.08755e-07 0)
(-3.97076e-07 -6.03442e-07 0)
(-3.73302e-07 -5.98182e-07 0)
(-4.51927e-07 -6.3797e-07 0)
(-4.28399e-07 -6.32789e-07 0)
(-4.04788e-07 -6.27613e-07 0)
(-3.8097e-07 -6.22445e-07 0)
(-4.59417e-07 -6.61835e-07 0)
(-4.35911e-07 -6.56841e-07 0)
(-4.12319e-07 -6.51805e-07 0)
(-3.88517e-07 -6.4673e-07 0)
(-4.66601e-07 -6.85648e-07 0)
(-4.43178e-07 -6.80844e-07 0)
(-4.19667e-07 -6.75951e-07 0)
(-3.95944e-07 -6.70971e-07 0)
(-4.73478e-07 -7.0934e-07 0)
(-4.50199e-07 -7.04729e-07 0)
(-4.2683e-07 -6.99981e-07 0)
(-4.03247e-07 -6.951e-07 0)
(-4.80044e-07 -7.32846e-07 0)
(-4.56971e-07 -7.28429e-07 0)
(-4.33802e-07 -7.23829e-07 0)
(-4.10421e-07 -7.19051e-07 0)
(-4.86299e-07 -7.56099e-07 0)
(-4.6349e-07 -7.51876e-07 0)
(-4.40581e-07 -7.47427e-07 0)
(-4.1746e-07 -7.42756e-07 0)
(-4.92247e-07 -7.79036e-07 0)
(-4.69757e-07 -7.75008e-07 0)
(-4.47162e-07 -7.70713e-07 0)
(-4.24357e-07 -7.66154e-07 0)
(-4.97889e-07 -8.016e-07 0)
(-4.7577e-07 -7.97765e-07 0)
(-4.53539e-07 -7.93626e-07 0)
(-4.31101e-07 -7.89186e-07 0)
(-5.03231e-07 -8.23737e-07 0)
(-4.8153e-07 -8.20093e-07 0)
(-4.59707e-07 -8.16112e-07 0)
(-4.37684e-07 -8.11797e-07 0)
(-5.08279e-07 -8.45399e-07 0)
(-4.87035e-07 -8.41943e-07 0)
(-4.65662e-07 -8.38123e-07 0)
(-4.44092e-07 -8.3394e-07 0)
(-5.13041e-07 -8.66547e-07 0)
(-4.92288e-07 -8.63277e-07 0)
(-4.71396e-07 -8.59619e-07 0)
(-4.50314e-07 -8.55576e-07 0)
(-5.17525e-07 -8.87148e-07 0)
(-4.97288e-07 -8.8406e-07 0)
(-4.76904e-07 -8.80566e-07 0)
(-4.56336e-07 -8.7667e-07 0)
(-5.21739e-07 -9.07179e-07 0)
(-5.02038e-07 -9.04268e-07 0)
(-4.8218e-07 -9.0094e-07 0)
(-4.62144e-07 -8.97199e-07 0)
(-5.25695e-07 -9.26624e-07 0)
(-5.06539e-07 -9.23885e-07 0)
(-4.87217e-07 -9.20725e-07 0)
(-4.67724e-07 -9.17147e-07 0)
(-5.294e-07 -9.45476e-07 0)
(-5.10793e-07 -9.42906e-07 0)
(-4.9201e-07 -9.39915e-07 0)
(-4.73062e-07 -9.36508e-07 0)
(-5.32865e-07 -9.63737e-07 0)
(-5.148e-07 -9.61331e-07 0)
(-4.96551e-07 -9.58512e-07 0)
(-4.78144e-07 -9.55283e-07 0)
(-5.36099e-07 -9.8142e-07 0)
(-5.18564e-07 -9.79174e-07 0)
(-5.00836e-07 -9.76527e-07 0)
(-4.82955e-07 -9.73482e-07 0)
(-5.39112e-07 -9.98543e-07 0)
(-5.22086e-07 -9.96452e-07 0)
(-5.04858e-07 -9.93979e-07 0)
(-4.87483e-07 -9.91127e-07 0)
(-5.41911e-07 -1.01513e-06 0)
(-5.25366e-07 -1.01319e-06 0)
(-5.08611e-07 -1.0109e-06 0)
(-4.91715e-07 -1.00824e-06 0)
(-5.44504e-07 -1.03123e-06 0)
(-5.28406e-07 -1.02944e-06 0)
(-5.12091e-07 -1.02731e-06 0)
(-4.95639e-07 -1.02486e-06 0)
(-5.46897e-07 -1.04687e-06 0)
(-5.31206e-07 -1.04522e-06 0)
(-5.15294e-07 -1.04328e-06 0)
(-4.99247e-07 -1.04103e-06 0)
(-5.49094e-07 -1.0621e-06 0)
(-5.33767e-07 -1.0606e-06 0)
(-5.18214e-07 -1.05883e-06 0)
(-5.02528e-07 -1.0568e-06 0)
(-5.51099e-07 -1.07697e-06 0)
(-5.36088e-07 -1.07562e-06 0)
(-5.20849e-07 -1.07403e-06 0)
(-5.05477e-07 -1.07221e-06 0)
(-5.52912e-07 -1.09155e-06 0)
(-5.38168e-07 -1.09034e-06 0)
(-5.23195e-07 -1.08893e-06 0)
(-5.08088e-07 -1.08733e-06 0)
(-5.54532e-07 -1.10589e-06 0)
(-5.40007e-07 -1.10482e-06 0)
(-5.25252e-07 -1.10359e-06 0)
(-5.10361e-07 -1.10221e-06 0)
(-5.55956e-07 -1.12004e-06 0)
(-5.416e-07 -1.11911e-06 0)
(-5.27017e-07 -1.11807e-06 0)
(-5.12295e-07 -1.1169e-06 0)
(-5.57177e-07 -1.13406e-06 0)
(-5.42945e-07 -1.13329e-06 0)
(-5.28491e-07 -1.13242e-06 0)
(-5.13892e-07 -1.13147e-06 0)
(-5.58189e-07 -1.148e-06 0)
(-5.4404e-07 -1.14738e-06 0)
(-5.29675e-07 -1.14671e-06 0)
(-5.1516e-07 -1.14597e-06 0)
(-5.58976e-07 -1.16192e-06 0)
(-5.44875e-07 -1.16146e-06 0)
(-5.30567e-07 -1.16096e-06 0)
(-5.16102e-07 -1.16043e-06 0)
(-5.5954e-07 -1.17583e-06 0)
(-5.4546e-07 -1.17554e-06 0)
(-5.31181e-07 -1.17523e-06 0)
(-5.16743e-07 -1.1749e-06 0)
(-5.59833e-07 -1.18982e-06 0)
(-5.45757e-07 -1.18968e-06 0)
(-5.31488e-07 -1.18954e-06 0)
(-5.17057e-07 -1.18937e-06 0)
)
;

boundaryField
{
    plateFix
    {
        type            fixedDisplacement;
        value           uniform (0 0 0);
    }
    plate
    {
        type            solidTraction;
        nonLinear       updatedLagrangian;
        traction        uniform (0 0 0);
        pressure        uniform 0;
        value           nonuniform List<vector> 
168
(
(-1.12542e-08 -6.33206e-09 -2.17555e-26)
(-8.41016e-09 4.40624e-09 9.5867e-27)
(-1.12274e-08 -1.00722e-08 3.91042e-27)
(-7.86809e-09 7.17902e-09 -1.23396e-26)
(-1.20551e-08 -1.30449e-08 2.92801e-26)
(-7.82031e-09 9.21463e-09 -1.88358e-26)
(-1.37872e-08 -1.5253e-08 -5.00438e-27)
(-8.39916e-09 1.04727e-08 4.33965e-26)
(-1.63522e-08 -1.70098e-08 -1.56922e-26)
(-9.58069e-09 1.11415e-08 -3.90062e-26)
(-1.95796e-08 -1.84711e-08 -6.23039e-28)
(-1.1253e-08 1.12988e-08 1.55148e-26)
(-2.33757e-08 -1.98002e-08 3.04658e-27)
(-1.3355e-08 1.10252e-08 1.09769e-26)
(-2.7668e-08 -2.11128e-08 -2.66139e-27)
(-1.58378e-08 1.03631e-08 -2.36974e-26)
(-3.2418e-08 -2.251e-08 -1.05412e-27)
(-1.86759e-08 9.33853e-09 1.03462e-26)
(-3.76033e-08 -2.40759e-08 1.50807e-26)
(-2.18556e-08 7.95774e-09 5.84224e-27)
(-4.32156e-08 -2.58863e-08 -1.05863e-26)
(-2.53738e-08 6.2126e-09 -6.77545e-27)
(-4.92549e-08 -2.80109e-08 -3.7394e-27)
(-2.92351e-08 4.08107e-09 3.32269e-27)
(-5.57276e-08 -3.05168e-08 3.90683e-27)
(-3.34504e-08 1.52904e-09 -2.82108e-28)
(-6.2645e-08 -3.34703e-08 6.21583e-27)
(-3.80362e-08 -1.4888e-09 -3.44052e-27)
(-7.00225e-08 -3.69389e-08 -3.97784e-27)
(-4.30142e-08 -5.02792e-09 6.90209e-27)
(-7.78785e-08 -4.09928e-08 3.30579e-28)
(-4.84101e-08 -9.15307e-09 -1.10777e-27)
(-8.62345e-08 -4.57064e-08 3.72486e-27)
(-5.4254e-08 -1.39376e-08 -8.80019e-28)
(-9.51144e-08 -5.11593e-08 4.43749e-27)
(-6.05792e-08 -1.94627e-08 1.65881e-27)
(-1.04544e-07 -5.74373e-08 -2.27994e-27)
(-6.74217e-08 -2.58175e-08 -8.94589e-27)
(-1.14552e-07 -6.46336e-08 3.26527e-27)
(-7.48198e-08 -3.30985e-08 -1.71847e-29)
(-1.25167e-07 -7.2849e-08 -2.75456e-27)
(-8.28132e-08 -4.14103e-08 -2.321e-27)
(-1.36421e-07 -8.21925e-08 -6.01482e-28)
(-9.14427e-08 -5.08656e-08 -9.63288e-28)
(-1.48798e-07 -9.31859e-08 1.69899e-27)
(-1.01106e-07 -6.19947e-08 1.00792e-27)
(-1.61873e-07 -1.05625e-07 -2.77181e-27)
(-1.11494e-07 -7.45938e-08 -3.84309e-27)
(-1.74777e-07 -1.18684e-07 -1.34432e-27)
(-1.21911e-07 -8.78274e-08 -1.60093e-27)
(-1.87517e-07 -1.32315e-07 2.28114e-27)
(-1.32338e-07 -1.01649e-07 -7.68943e-27)
(-2.00101e-07 -1.46479e-07 -6.20153e-27)
(-1.42757e-07 -1.16018e-07 -7.17307e-28)
(-2.12535e-07 -1.61141e-07 1.55413e-27)
(-1.53149e-07 -1.30901e-07 -8.89502e-27)
(-2.24825e-07 -1.76275e-07 -2.55555e-27)
(-1.63497e-07 -1.4627e-07 1.80178e-27)
(-2.36978e-07 -1.91859e-07 -3.94178e-27)
(-1.73784e-07 -1.62104e-07 2.25137e-28)
(-2.49e-07 -2.07878e-07 -1.24305e-26)
(-1.83992e-07 -1.7839e-07 -3.09702e-28)
(-2.60894e-07 -2.24326e-07 5.73822e-27)
(-1.94107e-07 -1.95118e-07 -7.35404e-27)
(-2.72664e-07 -2.41197e-07 1.0206e-26)
(-2.04114e-07 -2.12284e-07 2.07088e-27)
(-2.84311e-07 -2.58493e-07 7.19034e-27)
(-2.14001e-07 -2.2989e-07 -1.29014e-26)
(-2.95834e-07 -2.76217e-07 1.20772e-27)
(-2.23758e-07 -2.47939e-07 -5.94259e-27)
(-3.0723e-07 -2.94377e-07 8.16749e-27)
(-2.33377e-07 -2.66437e-07 3.10547e-27)
(-3.18495e-07 -3.12977e-07 1.59326e-27)
(-2.42852e-07 -2.8539e-07 -1.2827e-26)
(-3.29621e-07 -3.32026e-07 5.1685e-28)
(-2.52179e-07 -3.04805e-07 8.43041e-27)
(-3.406e-07 -3.51526e-07 -1.82498e-27)
(-2.61358e-07 -3.24686e-07 5.18671e-28)
(-3.51421e-07 -3.71481e-07 6.48451e-27)
(-2.70388e-07 -3.45034e-07 5.31479e-27)
(-3.62072e-07 -3.91888e-07 -3.82176e-27)
(-2.79272e-07 -3.65849e-07 -1.0408e-26)
(-3.72539e-07 -4.12743e-07 5.77775e-27)
(-2.88012e-07 -3.87125e-07 -4.71632e-27)
(-3.82808e-07 -4.34034e-07 3.49691e-27)
(-2.96615e-07 -4.0885e-07 -6.61295e-28)
(-3.92864e-07 -4.55744e-07 1.11457e-26)
(-3.05086e-07 -4.31007e-07 7.97281e-28)
(-4.02691e-07 -4.77852e-07 2.98752e-28)
(-3.13431e-07 -4.53575e-07 -3.56446e-27)
(-4.12273e-07 -5.00328e-07 6.73641e-27)
(-3.21657e-07 -4.76525e-07 -1.26225e-26)
(-4.21595e-07 -5.23137e-07 -8.04258e-27)
(-3.29771e-07 -4.99821e-07 -6.73204e-27)
(-4.30641e-07 -5.4624e-07 2.36233e-28)
(-3.37781e-07 -5.23422e-07 9.69423e-27)
(-4.39397e-07 -5.69588e-07 9.85465e-27)
(-3.45691e-07 -5.47281e-07 -7.46176e-27)
(-4.4785e-07 -5.93129e-07 5.69211e-27)
(-3.53507e-07 -5.71347e-07 -5.83894e-27)
(-4.55989e-07 -6.16807e-07 3.83808e-27)
(-3.61234e-07 -5.95561e-07 -1.11381e-26)
(-4.63803e-07 -6.40561e-07 4.06403e-27)
(-3.68873e-07 -6.19863e-07 -2.25285e-28)
(-4.71284e-07 -6.64326e-07 4.2543e-27)
(-3.76426e-07 -6.44188e-07 -7.13039e-28)
(-4.78427e-07 -6.88037e-07 -1.08362e-26)
(-3.83892e-07 -6.6847e-07 4.82825e-27)
(-4.85228e-07 -7.11627e-07 9.25181e-27)
(-3.91267e-07 -6.92642e-07 -4.99014e-28)
(-4.91685e-07 -7.35029e-07 -1.77491e-26)
(-3.98546e-07 -7.16637e-07 -5.15326e-27)
(-4.97801e-07 -7.58178e-07 6.55194e-27)
(-4.05723e-07 -7.4039e-07 6.21339e-28)
(-5.03577e-07 -7.81012e-07 -5.17773e-27)
(-4.12787e-07 -7.63838e-07 -1.63893e-28)
(-5.09021e-07 -8.03474e-07 3.52216e-27)
(-4.19727e-07 -7.86923e-07 -3.6599e-29)
(-5.14139e-07 -8.2551e-07 1.48349e-27)
(-4.26531e-07 -8.09592e-07 3.15797e-29)
(-5.18942e-07 -8.47074e-07 5.67228e-27)
(-4.33182e-07 -8.31798e-07 5.64399e-27)
(-5.2344e-07 -8.68126e-07 -4.28308e-27)
(-4.39665e-07 -8.53499e-07 -5.38907e-27)
(-5.27646e-07 -8.88634e-07 -5.78006e-27)
(-4.45963e-07 -8.74665e-07 -5.87173e-27)
(-5.31573e-07 -9.08575e-07 1.28869e-26)
(-4.52056e-07 -8.9527e-07 5.99365e-27)
(-5.35235e-07 -9.27932e-07 -2.19691e-26)
(-4.57928e-07 -9.15299e-07 -1.20021e-26)
(-5.38646e-07 -9.467e-07 3.97605e-27)
(-4.63558e-07 -9.34745e-07 1.21451e-26)
(-5.4182e-07 -9.64881e-07 7.01061e-29)
(-4.68929e-07 -9.5361e-07 -6.12862e-27)
(-5.44771e-07 -9.82485e-07 1.27329e-26)
(-4.74021e-07 -9.71904e-07 1.45642e-29)
(-5.47512e-07 -9.99533e-07 -1.73158e-27)
(-4.78819e-07 -9.89647e-07 1.2078e-26)
(-5.50055e-07 -1.01605e-06 -1.58219e-27)
(-4.83305e-07 -1.00687e-06 -3.37939e-29)
(-5.52411e-07 -1.03208e-06 1.47583e-27)
(-4.87465e-07 -1.02359e-06 2.59366e-26)
(-5.54589e-07 -1.04765e-06 2.71878e-26)
(-4.91285e-07 -1.03987e-06 -7.59164e-28)
(-5.56597e-07 -1.06281e-06 -1.50507e-26)
(-4.94754e-07 -1.05575e-06 -1.37856e-26)
(-5.58439e-07 -1.07762e-06 -1.39957e-26)
(-4.97864e-07 -1.07128e-06 1.39578e-26)
(-5.60118e-07 -1.09213e-06 -1.31251e-26)
(-5.00609e-07 -1.08651e-06 -2.83649e-26)
(-5.61632e-07 -1.1064e-06 -2.31592e-29)
(-5.02985e-07 -1.1015e-06 -1.43164e-26)
(-5.62978e-07 -1.12048e-06 -1.38494e-26)
(-5.04995e-07 -1.11631e-06 -3.2313e-29)
(-5.64148e-07 -1.13444e-06 -1.55429e-26)
(-5.06642e-07 -1.13099e-06 -5.92146e-28)
(-5.65133e-07 -1.14831e-06 3.85044e-30)
(-5.07935e-07 -1.14559e-06 -1.52575e-29)
(-5.65915e-07 -1.16214e-06 -1.56849e-26)
(-5.08882e-07 -1.16016e-06 -1.51884e-26)
(-5.66498e-07 -1.17598e-06 1.51524e-26)
(-5.09521e-07 -1.17474e-06 5.99502e-28)
(-5.66823e-07 -1.18989e-06 3.08582e-26)
(-5.5989e-07 -1.19684e-06 -1.46718e-26)
(-5.45818e-07 -1.19678e-06 1.38748e-26)
(-5.31552e-07 -1.19673e-06 -7.11137e-27)
(-5.1712e-07 -1.19661e-06 1.36245e-29)
(-5.09836e-07 -1.1893e-06 2.21914e-28)
)
;
    }
    frontAndBackPlanes
    {
        type            empty;
    }
}


// ************************************************************************* //
