/*--------------------------------*- C++ -*----------------------------------*\
| =========                 |                                                 |
| \\      /  F ield         | OpenFOAM Extend Project: Open source CFD        |
|  \\    /   O peration     | Version:  1.6-ext                               |
|   \\  /    A nd           | Web:      www.extend-project.de                 |
|    \\/     M anipulation  |                                                 |
\*---------------------------------------------------------------------------*/
FoamFile
{
    version     2.0;
    format      ascii;
    class       volVectorField;
    location    "1.1";
    object      DV;
}
// * * * * * * * * * * * * * * * * * * * * * * * * * * * * * * * * * * * * * //

dimensions      [0 1 -1 0 0 0 0];

internalField   nonuniform List<vector> 
328
(
(-1.17119e-07 -2.31593e-07 0)
(-6.7166e-08 -5.20402e-08 0)
(-5.98114e-08 2.8407e-08 0)
(-7.57114e-08 1.53686e-07 0)
(-3.56292e-07 -6.0442e-07 0)
(-2.23301e-07 -1.65608e-07 0)
(-1.9752e-07 6.94713e-08 0)
(-2.31012e-07 3.84304e-07 0)
(-6.31679e-07 -8.99842e-07 0)
(-4.34271e-07 -2.89659e-07 0)
(-3.82255e-07 9.17734e-08 0)
(-4.1356e-07 5.3812e-07 0)
(-9.29788e-07 -1.13459e-06 0)
(-6.81235e-07 -4.18603e-07 0)
(-5.9984e-07 8.92083e-08 0)
(-6.14976e-07 6.23036e-07 0)
(-1.25363e-06 -1.32881e-06 0)
(-9.67356e-07 -5.50675e-07 0)
(-8.53713e-07 5.92547e-08 0)
(-8.38878e-07 6.50775e-07 0)
(-1.60097e-06 -1.49815e-06 0)
(-1.28642e-06 -6.86174e-07 0)
(-1.13937e-06 3.05474e-10 0)
(-1.08511e-06 6.30157e-07 0)
(-1.97279e-06 -1.65554e-06 0)
(-1.63744e-06 -8.27325e-07 0)
(-1.45647e-06 -8.76969e-08 0)
(-1.35599e-06 5.68362e-07 0)
(-2.36948e-06 -1.81084e-06 0)
(-2.01799e-06 -9.7722e-07 0)
(-1.80343e-06 -2.04307e-07 0)
(-1.65348e-06 4.70564e-07 0)
(-2.79207e-06 -1.97185e-06 0)
(-2.42731e-06 -1.1394e-06 0)
(-2.18009e-06 -3.48628e-07 0)
(-1.98018e-06 3.40686e-07 0)
(-3.24147e-06 -2.14452e-06 0)
(-2.86484e-06 -1.31727e-06 0)
(-2.58657e-06 -5.19718e-07 0)
(-2.33877e-06 1.81552e-07 0)
(-3.71867e-06 -2.33336e-06 0)
(-3.33088e-06 -1.51383e-06 0)
(-3.02382e-06 -7.16658e-07 0)
(-2.73215e-06 -4.75768e-09 0)
(-4.22457e-06 -2.54162e-06 0)
(-3.82623e-06 -1.73142e-06 0)
(-3.49338e-06 -9.38649e-07 0)
(-3.16336e-06 -2.16748e-07 0)
(-4.76004e-06 -2.7714e-06 0)
(-4.35224e-06 -1.97162e-06 0)
(-3.99741e-06 -1.18496e-06 0)
(-3.63565e-06 -4.5328e-07 0)
(-5.32589e-06 -3.02378e-06 0)
(-4.91066e-06 -2.23517e-06 0)
(-4.53858e-06 -1.45482e-06 0)
(-4.15248e-06 -7.13376e-07 0)
(-5.92293e-06 -3.29877e-06 0)
(-5.50359e-06 -2.52188e-06 0)
(-5.11998e-06 -1.74722e-06 0)
(-4.7176e-06 -9.95927e-07 0)
(-6.55192e-06 -3.59521e-06 0)
(-6.13336e-06 -2.83047e-06 0)
(-5.74503e-06 -2.06057e-06 0)
(-5.33508e-06 -1.29934e-06 0)
(-7.2136e-06 -3.91049e-06 0)
(-6.80242e-06 -3.15828e-06 0)
(-6.41746e-06 -2.39224e-06 0)
(-6.00943e-06 -1.621e-06 0)
(-7.90862e-06 -4.24003e-06 0)
(-7.51332e-06 -3.50072e-06 0)
(-7.14116e-06 -2.73783e-06 0)
(-6.74555e-06 -1.95664e-06 0)
(-8.63759e-06 -4.57662e-06 0)
(-8.26865e-06 -3.85053e-06 0)
(-7.92022e-06 -3.09038e-06 0)
(-7.5488e-06 -2.29943e-06 0)
(-9.40117e-06 -4.90954e-06 0)
(-9.07104e-06 -4.1969e-06 0)
(-8.75883e-06 -3.4394e-06 0)
(-8.42479e-06 -2.63912e-06 0)
(-1.02002e-05 -5.22372e-06 0)
(-9.92319e-06 -4.52458e-06 0)
(-9.66121e-06 -3.76988e-06 0)
(-9.37925e-06 -2.9611e-06 0)
(-1.10362e-05 -5.49915e-06 0)
(-1.0828e-05 -4.81323e-06 0)
(-1.06315e-05 -4.06171e-06 0)
(-1.04175e-05 -3.24576e-06 0)
(-1.19449e-05 -5.7187e-06 0)
(-1.18253e-05 -5.04569e-06 0)
(-1.17133e-05 -4.29805e-06 0)
(-1.15871e-05 -3.47679e-06 0)
(-1.28953e-05 -5.83205e-06 0)
(-1.28815e-05 -5.1705e-06 0)
(-1.28708e-05 -4.4275e-06 0)
(-1.28497e-05 -3.60397e-06 0)
(-1.38293e-05 -5.81436e-06 0)
(-1.39278e-05 -5.16166e-06 0)
(-1.40252e-05 -4.42381e-06 0)
(-1.41157e-05 -3.60164e-06 0)
(-1.47523e-05 -5.6619e-06 0)
(-1.49656e-05 -5.01556e-06 0)
(-1.51737e-05 -4.28333e-06 0)
(-1.53785e-05 -3.46598e-06 0)
(-1.56695e-05 -5.37608e-06 0)
(-1.59962e-05 -4.7338e-06 0)
(-1.6314e-05 -4.00763e-06 0)
(-1.66316e-05 -3.1983e-06 0)
(-1.65854e-05 -4.96245e-06 0)
(-1.70207e-05 -4.32216e-06 0)
(-1.74438e-05 -3.60245e-06 0)
(-1.78694e-05 -2.80402e-06 0)
(-1.75038e-05 -4.42965e-06 0)
(-1.80399e-05 -3.78958e-06 0)
(-1.8561e-05 -3.0767e-06 0)
(-1.90869e-05 -2.29166e-06 0)
(-1.84279e-05 -3.78873e-06 0)
(-1.90547e-05 -3.14735e-06 0)
(-1.96639e-05 -2.44162e-06 0)
(-2.028e-05 -1.67217e-06 0)
(-1.93605e-05 -3.05263e-06 0)
(-2.00656e-05 -2.40865e-06 0)
(-2.07509e-05 -1.71036e-06 0)
(-2.14447e-05 -9.58394e-07 0)
(-2.03039e-05 -2.23601e-06 0)
(-2.1073e-05 -1.58831e-06 0)
(-2.18205e-05 -8.97735e-07 0)
(-2.2578e-05 -1.64911e-07 0)
(-2.12599e-05 -1.35516e-06 0)
(-2.20773e-05 -7.02818e-07 0)
(-2.28714e-05 -2.01997e-08 0)
(-2.36767e-05 6.9206e-07 0)
(-2.22303e-05 -4.27978e-07 0)
(-2.30787e-05 2.29748e-07 0)
(-2.39025e-05 9.04179e-07 0)
(-2.47383e-05 1.59468e-06 0)
(-2.32162e-05 5.26128e-07 0)
(-2.40773e-05 1.18975e-06 0)
(-2.49127e-05 1.85578e-06 0)
(-2.57607e-05 2.52358e-06 0)
(-2.42185e-05 1.48644e-06 0)
(-2.50729e-05 2.15621e-06 0)
(-2.59012e-05 2.81364e-06 0)
(-2.67421e-05 3.45809e-06 0)
(-2.52371e-05 2.43128e-06 0)
(-2.60654e-05 3.10715e-06 0)
(-2.68672e-05 3.75578e-06 0)
(-2.76814e-05 4.37655e-06 0)
(-2.62718e-05 3.33852e-06 0)
(-2.70541e-05 4.02008e-06 0)
(-2.78103e-05 4.65974e-06 0)
(-2.85781e-05 5.25686e-06 0)
(-2.73212e-05 4.1861e-06 0)
(-2.80384e-05 4.8726e-06 0)
(-2.87302e-05 5.50311e-06 0)
(-2.94324e-05 6.07699e-06 0)
(-2.83834e-05 4.95271e-06 0)
(-2.90172e-05 5.64304e-06 0)
(-2.9627e-05 6.26421e-06 0)
(-3.02454e-05 6.81562e-06 0)
(-2.94556e-05 5.61842e-06 0)
(-2.99895e-05 6.3111e-06 0)
(-3.05009e-05 6.92276e-06 0)
(-3.10188e-05 7.45281e-06 0)
(-3.05346e-05 6.16523e-06 0)
(-3.09536e-05 6.85848e-06 0)
(-3.13524e-05 7.46045e-06 0)
(-3.1755e-05 7.97059e-06 0)
(-3.16163e-05 6.57768e-06 0)
(-3.19081e-05 7.26941e-06 0)
(-3.21821e-05 7.86151e-06 0)
(-3.24571e-05 8.35347e-06 0)
(-3.26964e-05 6.84321e-06 0)
(-3.28513e-05 7.53113e-06 0)
(-3.2991e-05 8.11318e-06 0)
(-3.31286e-05 8.58886e-06 0)
(-3.37701e-05 6.95251e-06 0)
(-3.37812e-05 7.63418e-06 0)
(-3.37801e-05 8.20597e-06 0)
(-3.37735e-05 8.66747e-06 0)
(-3.48324e-05 6.89976e-06 0)
(-3.4696e-05 7.57263e-06 0)
(-3.45504e-05 8.13398e-06 0)
(-3.4396e-05 8.58344e-06 0)
(-3.58783e-05 6.68271e-06 0)
(-3.55938e-05 7.34419e-06 0)
(-3.53031e-05 7.89489e-06 0)
(-3.50004e-05 8.33449e-06 0)
(-3.69027e-05 6.30268e-06 0)
(-3.64728e-05 6.95021e-06 0)
(-3.60395e-05 7.49005e-06 0)
(-3.5591e-05 7.92192e-06 0)
(-3.79008e-05 5.76446e-06 0)
(-3.7331e-05 6.39558e-06 0)
(-3.67607e-05 6.92433e-06 0)
(-3.61722e-05 7.3505e-06 0)
(-3.88679e-05 5.07617e-06 0)
(-3.81669e-05 5.68851e-06 0)
(-3.74678e-05 6.20596e-06 0)
(-3.67478e-05 6.62832e-06 0)
(-3.98e-05 4.249e-06 0)
(-3.89788e-05 4.84038e-06 0)
(-3.8162e-05 5.34627e-06 0)
(-3.73217e-05 5.76652e-06 0)
(-4.0693e-05 3.29691e-06 0)
(-3.97654e-05 3.86536e-06 0)
(-3.88441e-05 4.35944e-06 0)
(-3.78971e-05 4.77904e-06 0)
(-4.15436e-05 2.23633e-06 0)
(-4.05253e-05 2.78009e-06 0)
(-3.9515e-05 3.26211e-06 0)
(-3.84771e-05 3.68227e-06 0)
(-4.2349e-05 1.08578e-06 0)
(-4.12574e-05 1.60336e-06 0)
(-4.01752e-05 2.07303e-06 0)
(-3.90639e-05 2.49469e-06 0)
(-4.31068e-05 -1.34494e-07 0)
(-4.19609e-05 3.5568e-07 0)
(-4.08253e-05 8.12717e-07 0)
(-3.96595e-05 1.23651e-06 0)
(-4.38153e-05 -1.40295e-06 0)
(-4.2635e-05 -9.41127e-07 0)
(-4.14656e-05 -4.97028e-07 0)
(-4.02653e-05 -7.07719e-08 0)
(-4.44732e-05 -2.69715e-06 0)
(-4.32792e-05 -2.26432e-06 0)
(-4.20961e-05 -1.83348e-06 0)
(-4.08818e-05 -1.40476e-06 0)
(-4.50801e-05 -3.99416e-06 0)
(-4.38931e-05 -3.59067e-06 0)
(-4.27167e-05 -3.17342e-06 0)
(-4.15092e-05 -2.74258e-06 0)
(-4.5636e-05 -5.27101e-06 0)
(-4.44766e-05 -4.8969e-06 0)
(-4.33271e-05 -4.4936e-06 0)
(-4.21469e-05 -4.06129e-06 0)
(-4.61413e-05 -6.50512e-06 0)
(-4.50296e-05 -6.16012e-06 0)
(-4.39266e-05 -5.77112e-06 0)
(-4.27938e-05 -5.33837e-06 0)
(-4.65975e-05 -7.67473e-06 0)
(-4.55525e-05 -7.35827e-06 0)
(-4.45145e-05 -6.98396e-06 0)
(-4.3448e-05 -6.55208e-06 0)
(-4.70063e-05 -8.75938e-06 0)
(-4.60455e-05 -8.47058e-06 0)
(-4.50896e-05 -8.11134e-06 0)
(-4.41069e-05 -7.68201e-06 0)
(-4.73701e-05 -9.74037e-06 0)
(-4.65092e-05 -9.47805e-06 0)
(-4.56508e-05 -9.13429e-06 0)
(-4.47675e-05 -8.70946e-06 0)
(-4.76918e-05 -1.06012e-05 0)
(-4.69443e-05 -1.0364e-05 0)
(-4.61964e-05 -1.00361e-05 0)
(-4.5426e-05 -9.61797e-06 0)
(-4.7975e-05 -1.13282e-05 0)
(-4.73517e-05 -1.11143e-05 0)
(-4.67248e-05 -1.08026e-05 0)
(-4.60781e-05 -1.03937e-05 0)
(-4.82235e-05 -1.19106e-05 0)
(-4.77322e-05 -1.17182e-05 0)
(-4.72343e-05 -1.14232e-05 0)
(-4.67191e-05 -1.10261e-05 0)
(-4.84413e-05 -1.23413e-05 0)
(-4.80871e-05 -1.21684e-05 0)
(-4.77227e-05 -1.18904e-05 0)
(-4.7344e-05 -1.15078e-05 0)
(-4.8633e-05 -1.26171e-05 0)
(-4.84173e-05 -1.24616e-05 0)
(-4.81882e-05 -1.22009e-05 0)
(-4.79476e-05 -1.18354e-05 0)
(-4.88026e-05 -1.27383e-05 0)
(-4.8724e-05 -1.25982e-05 0)
(-4.86289e-05 -1.23551e-05 0)
(-4.85248e-05 -1.20093e-05 0)
(-4.89543e-05 -1.27092e-05 0)
(-4.90083e-05 -1.25827e-05 0)
(-4.90428e-05 -1.23574e-05 0)
(-4.90709e-05 -1.20337e-05 0)
(-4.90918e-05 -1.25378e-05 0)
(-4.9271e-05 -1.24231e-05 0)
(-4.94284e-05 -1.22157e-05 0)
(-4.95814e-05 -1.19161e-05 0)
(-4.92183e-05 -1.22349e-05 0)
(-4.95131e-05 -1.21304e-05 0)
(-4.97842e-05 -1.19411e-05 0)
(-5.00526e-05 -1.16671e-05 0)
(-4.93362e-05 -1.18135e-05 0)
(-4.97351e-05 -1.17182e-05 0)
(-5.01091e-05 -1.1547e-05 0)
(-5.04817e-05 -1.12999e-05 0)
(-4.94473e-05 -1.12888e-05 0)
(-4.99377e-05 -1.12019e-05 0)
(-5.04024e-05 -1.10487e-05 0)
(-5.08665e-05 -1.08291e-05 0)
(-4.95526e-05 -1.06767e-05 0)
(-5.0121e-05 -1.05976e-05 0)
(-5.06636e-05 -1.04624e-05 0)
(-5.12058e-05 -1.02707e-05 0)
(-4.96526e-05 -9.99359e-06 0)
(-5.02852e-05 -9.92219e-06 0)
(-5.08925e-05 -9.80478e-06 0)
(-5.14992e-05 -9.64097e-06 0)
(-4.97466e-05 -9.2554e-06 0)
(-5.04301e-05 -9.192e-06 0)
(-5.10892e-05 -9.09241e-06 0)
(-5.1747e-05 -8.95599e-06 0)
(-4.98336e-05 -8.47738e-06 0)
(-5.05552e-05 -8.42259e-06 0)
(-5.12538e-05 -8.3409e-06 0)
(-5.19503e-05 -8.2312e-06 0)
(-4.99119e-05 -7.6733e-06 0)
(-5.06597e-05 -7.62818e-06 0)
(-5.13867e-05 -7.56468e-06 0)
(-5.21107e-05 -7.48078e-06 0)
(-4.99792e-05 -6.85616e-06 0)
(-5.07423e-05 -6.82199e-06 0)
(-5.14878e-05 -6.77679e-06 0)
(-5.223e-05 -6.71745e-06 0)
(-5.00332e-05 -6.03875e-06 0)
(-5.08023e-05 -6.01654e-06 0)
(-5.15584e-05 -5.9887e-06 0)
(-5.23115e-05 -5.95207e-06 0)
(-5.00697e-05 -5.23883e-06 0)
(-5.08383e-05 -5.22546e-06 0)
(-5.15986e-05 -5.20912e-06 0)
(-5.23571e-05 -5.18646e-06 0)
)
;

boundaryField
{
    plateFix
    {
        type            calculated;
        value           uniform (0 0 0);
    }
    plate
    {
        type            calculated;
        value           nonuniform List<vector> 
168
(
(-1.14666e-06 -6.23236e-07 7.48189e-23)
(-7.38349e-07 4.07529e-07 -5.31387e-23)
(-1.13906e-06 -1.00726e-06 -1.00581e-23)
(-6.82189e-07 6.48988e-07 2.90732e-23)
(-1.21095e-06 -1.3187e-06 -7.89337e-23)
(-6.7526e-07 8.18875e-07 5.52208e-23)
(-1.36668e-06 -1.55803e-06 1.06503e-23)
(-7.30604e-07 9.1298e-07 -1.17199e-22)
(-1.59861e-06 -1.75494e-06 2.35637e-23)
(-8.46642e-07 9.4965e-07 9.90833e-23)
(-1.88967e-06 -1.92391e-06 1.6501e-23)
(-1.0133e-06 9.36656e-07 -4.2426e-23)
(-2.23004e-06 -2.07982e-06 2.96661e-24)
(-1.22557e-06 8.82458e-07 -2.92616e-23)
(-2.6118e-06 -2.23264e-06 3.10302e-24)
(-1.47975e-06 7.9217e-07 8.5981e-23)
(-3.03016e-06 -2.39053e-06 -2.16473e-23)
(-1.77446e-06 6.69878e-07 -3.5717e-23)
(-3.48179e-06 -2.55944e-06 -3.63733e-23)
(-2.10949e-06 5.18332e-07 -3.34253e-23)
(-3.96467e-06 -2.74393e-06 3.28383e-23)
(-2.4857e-06 3.39564e-07 1.35746e-23)
(-4.47749e-06 -2.94723e-06 8.62341e-24)
(-2.90469e-06 1.35004e-07 8.29024e-25)
(-5.01954e-06 -3.17149e-06 -5.18367e-24)
(-3.36871e-06 -9.42421e-08 1.10679e-24)
(-5.59049e-06 -3.41781e-06 -2.03335e-23)
(-3.88067e-06 -3.47207e-07 1.8924e-23)
(-6.19022e-06 -3.68625e-06 1.02602e-23)
(-4.44409e-06 -6.22765e-07 -3.00485e-23)
(-6.81869e-06 -3.97569e-06 -3.58686e-25)
(-5.06321e-06 -9.19288e-07 8.05585e-24)
(-7.47578e-06 -4.28354e-06 -1.91601e-23)
(-5.74306e-06 -1.23413e-06 -6.62479e-24)
(-8.16116e-06 -4.60526e-06 -7.62059e-24)
(-6.48942e-06 -1.563e-06 1.57133e-23)
(-8.87428e-06 -4.93369e-06 8.96699e-24)
(-7.30879e-06 -1.89913e-06 2.73666e-23)
(-9.61452e-06 -5.25822e-06 -1.12534e-23)
(-8.20812e-06 -2.23237e-06 -2.065e-24)
(-1.03815e-05 -5.56399e-06 -7.58154e-26)
(-9.19441e-06 -2.54836e-06 -2.54643e-25)
(-1.11759e-05 -5.83121e-06 1.13312e-23)
(-1.02739e-05 -2.82781e-06 7.66178e-24)
(-1.20309e-05 -6.04297e-06 1.57167e-24)
(-1.14968e-05 -3.05481e-06 -5.18863e-24)
(-1.29183e-05 -6.14964e-06 7.38213e-24)
(-1.2822e-05 -3.17989e-06 1.4043e-23)
(-1.37859e-05 -6.12706e-06 1.45303e-23)
(-1.41539e-05 -3.17777e-06 -5.66357e-24)
(-1.4642e-05 -5.97144e-06 -1.99279e-23)
(-1.54831e-05 -3.04453e-06 2.94405e-23)
(-1.5494e-05 -5.68403e-06 1.47226e-23)
(-1.6801e-05 -2.78129e-06 1.38028e-23)
(-1.63482e-05 -5.27017e-06 1.95605e-24)
(-1.81001e-05 -2.39321e-06 4.29467e-23)
(-1.72099e-05 -4.73831e-06 1.09183e-23)
(-1.9374e-05 -1.8886e-06 -1.55734e-23)
(-1.80833e-05 -4.09931e-06 1.86414e-23)
(-2.06175e-05 -1.27817e-06 1.65675e-23)
(-1.8972e-05 -3.36599e-06 4.85272e-23)
(-2.18258e-05 -5.74604e-07 -2.01696e-24)
(-1.98792e-05 -2.55287e-06 -5.27992e-24)
(-2.29949e-05 2.0766e-07 1.54289e-23)
(-2.08076e-05 -1.67615e-06 -2.79774e-23)
(-2.4121e-05 1.05253e-06 1.52245e-25)
(-2.17596e-05 -7.53616e-07 -8.91595e-24)
(-2.52007e-05 1.94231e-06 3.47388e-23)
(-2.27372e-05 1.95465e-07 2.28489e-24)
(-2.62311e-05 2.85778e-06 1.47219e-23)
(-2.37416e-05 1.15054e-06 -3.61143e-23)
(-2.72099e-05 3.77845e-06 7.26123e-24)
(-2.47735e-05 2.09013e-06 -7.70907e-24)
(-2.81357e-05 4.68288e-06 2.48898e-23)
(-2.58323e-05 2.99232e-06 -9.33165e-25)
(-2.90079e-05 5.54919e-06 -3.28284e-23)
(-2.69167e-05 3.83531e-06 4.3714e-24)
(-2.98269e-05 6.3556e-06 -2.82021e-24)
(-2.80242e-05 4.59802e-06 -2.22027e-23)
(-3.05943e-05 7.08105e-06 -1.19064e-23)
(-2.91513e-05 5.26075e-06 -1.24328e-24)
(-3.13125e-05 7.70582e-06 2.72589e-23)
(-3.02934e-05 5.80573e-06 -2.06245e-23)
(-3.19853e-05 8.21215e-06 1.47064e-23)
(-3.14453e-05 6.21765e-06 -1.71964e-23)
(-3.26169e-05 8.58472e-06 1.09061e-23)
(-3.26011e-05 6.48411e-06 -2.82476e-23)
(-3.32125e-05 8.8111e-06 -1.37991e-23)
(-3.37542e-05 6.59592e-06 -2.05705e-24)
(-3.37777e-05 8.88207e-06 1.75286e-23)
(-3.4898e-05 6.5473e-06 -1.56645e-23)
(-3.43185e-05 8.79183e-06 2.0461e-23)
(-3.60256e-05 6.33602e-06 1.05015e-23)
(-3.48409e-05 8.53812e-06 1.51197e-23)
(-3.71302e-05 5.96339e-06 2.6668e-24)
(-3.53511e-05 8.12221e-06 -3.49018e-23)
(-3.82054e-05 5.43415e-06 -2.22151e-23)
(-3.5855e-05 7.54879e-06 1.01878e-23)
(-3.92448e-05 4.75632e-06 -1.97576e-23)
(-3.63582e-05 6.82585e-06 2.33815e-23)
(-4.02429e-05 3.94098e-06 -1.87401e-24)
(-3.6866e-05 5.96442e-06 1.89671e-23)
(-4.11943e-05 3.00197e-06 -2.78762e-24)
(-3.73829e-05 4.97829e-06 -1.24498e-23)
(-4.20947e-05 1.95557e-06 -4.65763e-24)
(-3.79129e-05 3.88368e-06 -3.61737e-24)
(-4.29402e-05 8.2012e-07 1.96391e-23)
(-3.84596e-05 2.69891e-06 -2.78232e-23)
(-4.37277e-05 -3.84304e-07 -1.52802e-23)
(-3.90254e-05 1.44398e-06 -7.18085e-24)
(-4.44549e-05 -1.63634e-06 5.67887e-23)
(-3.96122e-05 1.40189e-07 2.11386e-23)
(-4.51203e-05 -2.91374e-06 -1.6579e-23)
(-4.02212e-05 -1.19027e-06 -1.18075e-23)
(-4.57232e-05 -4.19377e-06 2.91969e-24)
(-4.08524e-05 -2.52472e-06 1.11554e-25)
(-4.62636e-05 -5.45365e-06 6.85314e-24)
(-4.15053e-05 -3.84045e-06 4.38041e-26)
(-4.67425e-05 -6.67101e-06 2.12162e-23)
(-4.21784e-05 -5.11513e-06 -6.46175e-26)
(-4.71617e-05 -7.82429e-06 -4.30302e-23)
(-4.28693e-05 -6.32727e-06 -3.2928e-24)
(-4.75237e-05 -8.89323e-06 2.80505e-23)
(-4.35747e-05 -7.45663e-06 -6.12522e-24)
(-4.7832e-05 -9.85931e-06 2.55459e-23)
(-4.42905e-05 -8.48472e-06 2.33945e-23)
(-4.80907e-05 -1.07063e-05 -2.40432e-23)
(-4.50117e-05 -9.39526e-06 -2.69364e-23)
(-4.83046e-05 -1.14204e-05 9.60915e-24)
(-4.57327e-05 -1.01746e-05 1.78828e-23)
(-4.84794e-05 -1.19914e-05 -8.39307e-25)
(-4.6447e-05 -1.08121e-05 -4.18873e-23)
(-4.8621e-05 -1.2412e-05 -2.00862e-25)
(-4.71478e-05 -1.13008e-05 3.96705e-23)
(-4.87356e-05 -1.2679e-05 -2.72234e-23)
(-4.78281e-05 -1.1637e-05 2.5413e-23)
(-4.88294e-05 -1.27929e-05 -1.22494e-23)
(-4.84809e-05 -1.18212e-05 -4.9443e-24)
(-4.89082e-05 -1.27578e-05 1.27821e-23)
(-4.90995e-05 -1.18573e-05 -1.93601e-23)
(-4.89775e-05 -1.25815e-05 -3.35707e-23)
(-4.96781e-05 -1.17527e-05 -3.81657e-23)
(-4.90416e-05 -1.22747e-05 -2.83002e-23)
(-5.02115e-05 -1.15178e-05 2.33429e-23)
(-4.91043e-05 -1.18502e-05 4.11543e-24)
(-5.06957e-05 -1.11654e-05 2.62635e-23)
(-4.91678e-05 -1.13229e-05 4.3373e-23)
(-5.11281e-05 -1.071e-05 2.10945e-23)
(-4.92337e-05 -1.07085e-05 4.0702e-23)
(-5.15069e-05 -1.01671e-05 4.89755e-23)
(-4.93022e-05 -1.00231e-05 5.77264e-24)
(-5.18318e-05 -9.55284e-06 4.24581e-23)
(-4.93726e-05 -9.28244e-06 4.16901e-23)
(-5.21033e-05 -8.88306e-06 -1.46186e-23)
(-4.94432e-05 -8.50157e-06 8.82505e-24)
(-5.23228e-05 -8.17299e-06 1.58301e-23)
(-4.95119e-05 -7.694e-06 7.41578e-24)
(-5.24927e-05 -7.43667e-06 7.59533e-24)
(-4.95761e-05 -6.87269e-06 3.20532e-23)
(-5.26158e-05 -6.68651e-06 6.78287e-23)
(-4.96345e-05 -6.05005e-06 -3.01359e-23)
(-5.26979e-05 -5.93362e-06 -1.71634e-23)
(-4.96847e-05 -5.24451e-06 -6.13615e-23)
(-5.00797e-05 -4.85655e-06 2.90792e-23)
(-5.08489e-05 -4.84311e-06 -4.21169e-23)
(-5.16107e-05 -4.82844e-06 1.75315e-23)
(-5.23697e-05 -4.79913e-06 2.79103e-24)
(-5.27463e-05 -5.17746e-06 7.26986e-24)
)
;
    }
    frontAndBackPlanes
    {
        type            empty;
    }
}


// ************************************************************************* //
