/*--------------------------------*- C++ -*----------------------------------*\
| =========                 |                                                 |
| \\      /  F ield         | OpenFOAM Extend Project: Open source CFD        |
|  \\    /   O peration     | Version:  1.6-ext                               |
|   \\  /    A nd           | Web:      www.extend-project.de                 |
|    \\/     M anipulation  |                                                 |
\*---------------------------------------------------------------------------*/
FoamFile
{
    version     2.0;
    format      ascii;
    class       volVectorField;
    location    "1.1";
    object      DV_0;
}
// * * * * * * * * * * * * * * * * * * * * * * * * * * * * * * * * * * * * * //

dimensions      [0 1 -1 0 0 0 0];

internalField   nonuniform List<vector> 
328
(
(-1.551e-07 -3.04447e-07 0)
(-9.18059e-08 -6.80334e-08 0)
(-8.36681e-08 4.10745e-08 0)
(-1.09465e-07 2.17864e-07 0)
(-4.71964e-07 -7.92674e-07 0)
(-3.04625e-07 -2.13783e-07 0)
(-2.76128e-07 1.04984e-07 0)
(-3.33922e-07 5.4778e-07 0)
(-8.36995e-07 -1.17598e-06 0)
(-5.9102e-07 -3.70053e-07 0)
(-5.33592e-07 1.46922e-07 0)
(-5.96679e-07 7.72958e-07 0)
(-1.23257e-06 -1.4758e-06 0)
(-9.26018e-07 -5.29127e-07 0)
(-8.36183e-07 1.58687e-07 0)
(-8.85702e-07 9.05116e-07 0)
(-1.66286e-06 -1.71836e-06 0)
(-1.3139e-06 -6.88415e-07 0)
(-1.18846e-06 1.37098e-07 0)
(-1.2058e-06 9.61422e-07 0)
(-2.1251e-06 -1.92395e-06 0)
(-1.74645e-06 -8.47929e-07 0)
(-1.58405e-06 8.04878e-08 0)
(-1.55648e-06 9.55173e-07 0)
(-2.62087e-06 -2.10925e-06 0)
(-2.22242e-06 -1.01023e-06 0)
(-2.02239e-06 -1.0606e-08 0)
(-1.94071e-06 8.97394e-07 0)
(-3.15095e-06 -2.28688e-06 0)
(-2.73868e-06 -1.17903e-06 0)
(-2.50127e-06 -1.34956e-07 0)
(-2.36094e-06 7.96144e-07 0)
(-3.71706e-06 -2.46692e-06 0)
(-3.29434e-06 -1.35876e-06 0)
(-3.02047e-06 -2.90881e-07 0)
(-2.82049e-06 6.57417e-07 0)
(-4.32077e-06 -2.6572e-06 0)
(-3.88885e-06 -1.55389e-06 0)
(-3.58019e-06 -4.76917e-07 0)
(-3.32276e-06 4.85282e-07 0)
(-4.96381e-06 -2.86393e-06 0)
(-4.5228e-06 -1.76863e-06 0)
(-4.18176e-06 -6.92003e-07 0)
(-3.87144e-06 2.82338e-07 0)
(-5.64779e-06 -3.09192e-06 0)
(-5.19751e-06 -2.00662e-06 0)
(-4.82729e-06 -9.35608e-07 0)
(-4.47043e-06 5e-08 0)
(-6.37421e-06 -3.34469e-06 0)
(-5.915e-06 -2.27075e-06 0)
(-5.51973e-06 -1.20759e-06 0)
(-5.12392e-06 -2.11077e-07 0)
(-7.14447e-06 -3.62444e-06 0)
(-6.67782e-06 -2.56285e-06 0)
(-6.26266e-06 -1.50785e-06 0)
(-5.83648e-06 -5.00519e-07 0)
(-7.95981e-06 -3.93182e-06 0)
(-7.48893e-06 -2.8834e-06 0)
(-7.06024e-06 -1.83586e-06 0)
(-6.6131e-06 -8.17624e-07 0)
(-8.82139e-06 -4.26555e-06 0)
(-8.35157e-06 -3.23108e-06 0)
(-7.91707e-06 -2.18987e-06 0)
(-7.45933e-06 -1.16063e-06 0)
(-9.73024e-06 -4.62193e-06 0)
(-9.2691e-06 -3.60212e-06 0)
(-8.83807e-06 -2.5662e-06 0)
(-8.38119e-06 -1.52591e-06 0)
(-1.06875e-05 -4.99426e-06 0)
(-1.0245e-05 -3.98974e-06 0)
(-9.82842e-06 -2.95834e-06 0)
(-9.38513e-06 -1.90714e-06 0)
(-1.16943e-05 -5.37228e-06 0)
(-1.12829e-05 -4.38353e-06 0)
(-1.08934e-05 -3.35624e-06 0)
(-1.04779e-05 -2.29458e-06 0)
(-1.27526e-05 -5.7418e-06 0)
(-1.23865e-05 -4.76901e-06 0)
(-1.20384e-05 -3.74578e-06 0)
(-1.1666e-05 -2.67457e-06 0)
(-1.38647e-05 -6.08453e-06 0)
(-1.35598e-05 -5.12747e-06 0)
(-1.32687e-05 -4.10857e-06 0)
(-1.2956e-05 -3.02928e-06 0)
(-1.50342e-05 -6.37823e-06 0)
(-1.4807e-05 -5.43625e-06 0)
(-1.45893e-05 -4.42217e-06 0)
(-1.43533e-05 -3.33689e-06 0)
(-1.63126e-05 -6.60556e-06 0)
(-1.61835e-05 -5.67799e-06 0)
(-1.60592e-05 -4.66961e-06 0)
(-1.59203e-05 -3.58102e-06 0)
(-1.7658e-05 -6.71604e-06 0)
(-1.76433e-05 -5.80119e-06 0)
(-1.7629e-05 -4.79938e-06 0)
(-1.76039e-05 -3.71105e-06 0)
(-1.8986e-05 -6.68858e-06 0)
(-1.90911e-05 -5.78385e-06 0)
(-1.91925e-05 -4.78908e-06 0)
(-1.92864e-05 -3.70462e-06 0)
(-2.03015e-05 -6.52215e-06 0)
(-2.0528e-05 -5.62527e-06 0)
(-2.07471e-05 -4.63798e-06 0)
(-2.09618e-05 -3.56063e-06 0)
(-2.16088e-05 -6.21882e-06 0)
(-2.1955e-05 -5.32775e-06 0)
(-2.22905e-05 -4.34838e-06 0)
(-2.26244e-05 -3.28106e-06 0)
(-2.29115e-05 -5.78304e-06 0)
(-2.33731e-05 -4.89597e-06 0)
(-2.38207e-05 -3.92493e-06 0)
(-2.42694e-05 -2.87031e-06 0)
(-2.42131e-05 -5.22147e-06 0)
(-2.47829e-05 -4.33672e-06 0)
(-2.53357e-05 -3.37442e-06 0)
(-2.58919e-05 -2.335e-06 0)
(-2.55168e-05 -4.54305e-06 0)
(-2.61851e-05 -3.65906e-06 0)
(-2.68336e-05 -2.70589e-06 0)
(-2.74877e-05 -1.68405e-06 0)
(-2.68257e-05 -3.75922e-06 0)
(-2.75804e-05 -2.87452e-06 0)
(-2.83125e-05 -1.93088e-06 0)
(-2.90522e-05 -9.28871e-07 0)
(-2.81426e-05 -2.88413e-06 0)
(-2.89692e-05 -1.99737e-06 0)
(-2.97706e-05 -1.06366e-06 0)
(-3.05814e-05 -8.3601e-08 0)
(-2.94703e-05 -1.93467e-06 0)
(-3.03519e-05 -1.04469e-06 0)
(-3.1206e-05 -1.21283e-07 0)
(-3.20711e-05 8.34889e-07 0)
(-3.08109e-05 -9.30335e-07 0)
(-3.17288e-05 -3.62264e-08 0)
(-3.26173e-05 8.76493e-07 0)
(-3.35178e-05 1.80711e-06 0)
(-3.21659e-05 1.07081e-07 0)
(-3.30998e-05 1.00592e-06 0)
(-3.40028e-05 1.90758e-06 0)
(-3.49185e-05 2.8113e-06 0)
(-3.35363e-05 1.15403e-06 0)
(-3.44648e-05 2.05783e-06 0)
(-3.53614e-05 2.94806e-06 0)
(-3.62708e-05 3.82392e-06 0)
(-3.49221e-05 2.18584e-06 0)
(-3.58231e-05 3.09442e-06 0)
(-3.6692e-05 3.97285e-06 0)
(-3.75731e-05 4.82032e-06 0)
(-3.63225e-05 3.17743e-06 0)
(-3.71741e-05 4.09016e-06 0)
(-3.79938e-05 4.95644e-06 0)
(-3.88246e-05 5.77544e-06 0)
(-3.77357e-05 4.10405e-06 0)
(-3.85167e-05 5.01989e-06 0)
(-3.92664e-05 5.87366e-06 0)
(-4.00257e-05 6.66455e-06 0)
(-3.91592e-05 4.94207e-06 0)
(-3.98494e-05 5.85953e-06 0)
(-4.05097e-05 6.70045e-06 0)
(-4.11773e-05 7.46401e-06 0)
(-4.05895e-05 5.66959e-06 0)
(-4.11707e-05 6.58682e-06 0)
(-4.17237e-05 7.41454e-06 0)
(-4.22814e-05 8.15196e-06 0)
(-4.20226e-05 6.26711e-06 0)
(-4.24787e-05 7.18191e-06 0)
(-4.29088e-05 7.99608e-06 0)
(-4.33406e-05 8.70888e-06 0)
(-4.34538e-05 6.718e-06 0)
(-4.37714e-05 7.6279e-06 0)
(-4.40656e-05 8.42819e-06 0)
(-4.43581e-05 9.11815e-06 0)
(-4.48779e-05 7.00896e-06 0)
(-4.50467e-05 7.91126e-06 0)
(-4.51948e-05 8.69733e-06 0)
(-4.53378e-05 9.36647e-06 0)
(-4.62895e-05 7.13024e-06 0)
(-4.63023e-05 8.02211e-06 0)
(-4.62974e-05 8.79361e-06 0)
(-4.62838e-05 9.4441e-06 0)
(-4.76828e-05 7.0759e-06 0)
(-4.75359e-05 7.95441e-06 0)
(-4.73745e-05 8.711e-06 0)
(-4.72006e-05 9.34509e-06 0)
(-4.90523e-05 6.84386e-06 0)
(-4.87454e-05 7.70607e-06 0)
(-4.84271e-05 8.4474e-06 0)
(-4.80926e-05 9.06735e-06 0)
(-5.03922e-05 6.43589e-06 0)
(-4.99285e-05 7.27889e-06 0)
(-4.94564e-05 8.00463e-06 0)
(-4.89645e-05 8.61265e-06 0)
(-5.16972e-05 5.85753e-06 0)
(-5.10831e-05 6.67851e-06 0)
(-5.04635e-05 7.38831e-06 0)
(-4.98208e-05 7.98652e-06 0)
(-5.2962e-05 5.1179e-06 0)
(-5.22072e-05 5.91422e-06 0)
(-5.14496e-05 6.60773e-06 0)
(-5.06657e-05 7.1981e-06 0)
(-5.4182e-05 4.22948e-06 0)
(-5.3299e-05 4.99868e-06 0)
(-5.24155e-05 5.67557e-06 0)
(-5.1503e-05 6.25987e-06 0)
(-5.53528e-05 3.20782e-06 0)
(-5.43567e-05 3.94767e-06 0)
(-5.33624e-05 4.60761e-06 0)
(-5.23365e-05 5.18737e-06 0)
(-5.64707e-05 2.07116e-06 0)
(-5.53791e-05 2.77973e-06 0)
(-5.42909e-05 3.42237e-06 0)
(-5.31692e-05 3.99886e-06 0)
(-5.75325e-05 8.40053e-07 0)
(-5.63647e-05 1.5157e-06 0)
(-5.52017e-05 2.14071e-06 0)
(-5.40035e-05 2.71491e-06 0)
(-5.85358e-05 -4.63081e-07 0)
(-5.73126e-05 1.78346e-07 0)
(-5.60953e-05 7.85402e-07 0)
(-5.48416e-05 1.35794e-06 0)
(-5.94787e-05 -1.81443e-06 0)
(-5.82222e-05 -1.20818e-06 0)
(-5.69719e-05 -6.19397e-07 0)
(-5.56847e-05 -4.82054e-08 0)
(-6.03602e-05 -3.18928e-06 0)
(-5.90928e-05 -2.61881e-06 0)
(-5.78318e-05 -2.04862e-06 0)
(-5.65336e-05 -1.47882e-06 0)
(-6.11798e-05 -4.56256e-06 0)
(-5.99242e-05 -4.02811e-06 0)
(-5.86746e-05 -3.47681e-06 0)
(-5.73881e-05 -2.9088e-06 0)
(-6.19379e-05 -5.90931e-06 0)
(-6.07165e-05 -5.41077e-06 0)
(-5.95001e-05 -4.87867e-06 0)
(-5.82476e-05 -4.31318e-06 0)
(-6.26354e-05 -7.20523e-06 0)
(-6.14697e-05 -6.74213e-06 0)
(-6.03077e-05 -6.22955e-06 0)
(-5.91107e-05 -5.66766e-06 0)
(-6.3274e-05 -8.42712e-06 0)
(-6.21843e-05 -7.99869e-06 0)
(-6.10966e-05 -7.50592e-06 0)
(-5.99754e-05 -6.94905e-06 0)
(-6.38558e-05 -9.55338e-06 0)
(-6.28608e-05 -9.15854e-06 0)
(-6.18657e-05 -8.6859e-06 0)
(-6.0839e-05 -8.13575e-06 0)
(-6.43838e-05 -1.05644e-05 0)
(-6.35001e-05 -1.02018e-05 0)
(-6.26139e-05 -9.7496e-06 0)
(-6.16983e-05 -9.20817e-06 0)
(-6.4861e-05 -1.1443e-05 0)
(-6.4103e-05 -1.1111e-05 0)
(-6.33396e-05 -1.06796e-05 0)
(-6.25493e-05 -1.01491e-05 0)
(-6.52912e-05 -1.21746e-05 0)
(-6.46705e-05 -1.18715e-05 0)
(-6.40412e-05 -1.14612e-05 0)
(-6.33877e-05 -1.09442e-05 0)
(-6.56784e-05 -1.2748e-05 0)
(-6.52037e-05 -1.24717e-05 0)
(-6.47169e-05 -1.20829e-05 0)
(-6.42088e-05 -1.15821e-05 0)
(-6.60269e-05 -1.31551e-05 0)
(-6.57036e-05 -1.29037e-05 0)
(-6.53647e-05 -1.25367e-05 0)
(-6.50074e-05 -1.20548e-05 0)
(-6.63411e-05 -1.33917e-05 0)
(-6.61714e-05 -1.3163e-05 0)
(-6.59824e-05 -1.28182e-05 0)
(-6.5778e-05 -1.23583e-05 0)
(-6.66255e-05 -1.34575e-05 0)
(-6.66081e-05 -1.32494e-05 0)
(-6.6568e-05 -1.29273e-05 0)
(-6.65151e-05 -1.2492e-05 0)
(-6.68842e-05 -1.3356e-05 0)
(-6.70147e-05 -1.31666e-05 0)
(-6.71192e-05 -1.28675e-05 0)
(-6.72133e-05 -1.24597e-05 0)
(-6.71215e-05 -1.30949e-05 0)
(-6.73921e-05 -1.29223e-05 0)
(-6.76338e-05 -1.26466e-05 0)
(-6.78673e-05 -1.22689e-05 0)
(-6.73406e-05 -1.26853e-05 0)
(-6.7741e-05 -1.25281e-05 0)
(-6.811e-05 -1.22762e-05 0)
(-6.84725e-05 -1.19307e-05 0)
(-6.75443e-05 -1.21417e-05 0)
(-6.80618e-05 -1.19987e-05 0)
(-6.85461e-05 -1.1771e-05 0)
(-6.90248e-05 -1.14595e-05 0)
(-6.77348e-05 -1.1481e-05 0)
(-6.83549e-05 -1.13514e-05 0)
(-6.89405e-05 -1.11481e-05 0)
(-6.95212e-05 -1.08719e-05 0)
(-6.79131e-05 -1.07218e-05 0)
(-6.86201e-05 -1.06052e-05 0)
(-6.92924e-05 -1.04266e-05 0)
(-6.99597e-05 -1.01864e-05 0)
(-6.80794e-05 -9.88343e-06 0)
(-6.88575e-05 -9.77994e-06 0)
(-6.96012e-05 -9.62612e-06 0)
(-7.03393e-05 -9.422e-06 0)
(-6.82332e-05 -8.9854e-06 0)
(-6.90665e-05 -8.89539e-06 0)
(-6.98668e-05 -8.7664e-06 0)
(-7.06605e-05 -8.59794e-06 0)
(-6.8373e-05 -8.04628e-06 0)
(-6.92466e-05 -7.97055e-06 0)
(-7.00895e-05 -7.86636e-06 0)
(-7.09245e-05 -7.7325e-06 0)
(-6.84965e-05 -7.08294e-06 0)
(-6.93972e-05 -7.02266e-06 0)
(-7.02702e-05 -6.94327e-06 0)
(-7.1134e-05 -6.84253e-06 0)
(-6.86007e-05 -6.11023e-06 0)
(-6.95169e-05 -6.06662e-06 0)
(-7.04093e-05 -6.01173e-06 0)
(-7.12919e-05 -5.94237e-06 0)
(-6.8683e-05 -5.13946e-06 0)
(-6.96057e-05 -5.1136e-06 0)
(-7.0509e-05 -5.08202e-06 0)
(-7.14031e-05 -5.04189e-06 0)
(-6.8738e-05 -4.18505e-06 0)
(-6.9661e-05 -4.17355e-06 0)
(-7.05687e-05 -4.15889e-06 0)
(-7.14688e-05 -4.13789e-06 0)
)
;

boundaryField
{
    plateFix
    {
        type            calculated;
        value           uniform (0 0 0);
    }
    plate
    {
        type            calculated;
        value           nonuniform List<vector> 
168
(
(-1.50341e-06 -8.17506e-07 -1.98104e-23)
(-1.05364e-06 5.77984e-07 4.29711e-23)
(-1.49009e-06 -1.3208e-06 -4.49243e-23)
(-9.86872e-07 9.22615e-07 -5.93309e-25)
(-1.5803e-06 -1.72573e-06 1.39593e-22)
(-9.90497e-07 1.16949e-06 -8.357e-23)
(-1.78195e-06 -2.03228e-06 -5.0561e-23)
(-1.08128e-06 1.3134e-06 1.19187e-22)
(-2.08546e-06 -2.27921e-06 -1.81301e-23)
(-1.25691e-06 1.38088e-06 -1.08042e-22)
(-2.46829e-06 -2.48528e-06 -2.6078e-23)
(-1.50322e-06 1.38378e-06 3.82323e-23)
(-2.91765e-06 -2.66973e-06 -1.70988e-25)
(-1.81272e-06 1.33496e-06 7.83966e-23)
(-3.42347e-06 -2.84535e-06 4.29175e-23)
(-2.17943e-06 1.24243e-06 -1.38422e-22)
(-3.98003e-06 -3.02265e-06 -9.80855e-24)
(-2.60056e-06 1.11242e-06 7.89697e-23)
(-4.5836e-06 -3.20949e-06 2.1195e-23)
(-3.07494e-06 9.48919e-07 2.56796e-24)
(-5.23217e-06 -3.41209e-06 -1.73509e-23)
(-3.60308e-06 7.54499e-07 -1.3754e-23)
(-5.92454e-06 -3.6352e-06 -1.40946e-23)
(-4.18668e-06 5.30524e-07 3.69377e-23)
(-6.66011e-06 -3.88231e-06 7.73651e-24)
(-4.82868e-06 2.77656e-07 -2.36499e-23)
(-7.43846e-06 -4.15559e-06 1.01579e-23)
(-5.53317e-06 -3.69178e-09 -1.88364e-24)
(-8.25923e-06 -4.45567e-06 4.49746e-24)
(-6.30535e-06 -3.12761e-07 1.88051e-23)
(-9.122e-06 -4.78132e-06 1.4554e-23)
(-7.15149e-06 -6.47749e-07 -2.52914e-23)
(-1.00263e-05 -5.1289e-06 1.23191e-23)
(-8.07873e-06 -1.00504e-06 1.48087e-23)
(-1.09718e-05 -5.49185e-06 -5.332e-24)
(-9.09485e-06 -1.37842e-06 -8.4396e-24)
(-1.19586e-05 -5.86015e-06 -6.60669e-24)
(-1.02078e-05 -1.75833e-06 -4.08038e-23)
(-1.29875e-05 -6.21987e-06 6.8629e-24)
(-1.14252e-05 -2.13141e-06 2.00294e-23)
(-1.40605e-05 -6.55306e-06 -6.2632e-24)
(-1.27539e-05 -2.4802e-06 -9.74011e-24)
(-1.51814e-05 -6.83781e-06 -6.41508e-24)
(-1.41994e-05 -2.78326e-06 -6.33515e-24)
(-1.64e-05 -7.05688e-06 6.60062e-24)
(-1.58258e-05 -3.02457e-06 -1.78498e-25)
(-1.76777e-05 -7.16035e-06 -1.04613e-23)
(-1.75765e-05 -3.154e-06 -1.82173e-23)
(-1.89366e-05 -7.12759e-06 -2.26317e-23)
(-1.93278e-05 -3.14925e-06 1.37806e-23)
(-2.01832e-05 -6.95734e-06 1.00272e-23)
(-2.10717e-05 -3.0089e-06 5.15819e-24)
(-2.14231e-05 -6.65149e-06 -2.43321e-23)
(-2.28012e-05 -2.73475e-06 3.88491e-23)
(-2.26613e-05 -6.21435e-06 3.61999e-23)
(-2.45102e-05 -2.33102e-06 -3.31638e-23)
(-2.39022e-05 -5.65252e-06 -2.71981e-23)
(-2.6193e-05 -1.80425e-06 2.14201e-23)
(-2.51504e-05 -4.97488e-06 -1.6443e-23)
(-2.78438e-05 -1.1633e-06 -7.73889e-25)
(-2.64101e-05 -4.19285e-06 -4.06612e-23)
(-2.94571e-05 -4.19531e-07 -6.19335e-24)
(-2.76856e-05 -3.32048e-06 2.38658e-23)
(-3.10271e-05 4.13006e-07 -3.06901e-23)
(-2.8981e-05 -2.37457e-06 5.62293e-23)
(-3.25487e-05 1.31755e-06 1.16597e-23)
(-3.02995e-05 -1.37446e-06 6.24068e-24)
(-3.40169e-05 2.27479e-06 -4.45051e-23)
(-3.16438e-05 -3.41728e-07 -1.721e-23)
(-3.54277e-05 3.26316e-06 -1.8874e-23)
(-3.30155e-05 7.00311e-07 1.93054e-23)
(-3.67781e-05 4.25938e-06 -2.89307e-24)
(-3.4415e-05 1.72726e-06 1.59766e-23)
(-3.8066e-05 5.23909e-06 -5.78044e-24)
(-3.58416e-05 2.71433e-06 3.02453e-24)
(-3.92908e-05 6.17752e-06 1.4046e-23)
(-3.72931e-05 3.63706e-06 -2.1005e-23)
(-4.0453e-05 7.05023e-06 -2.49867e-23)
(-3.87662e-05 4.47209e-06 8.31532e-24)
(-4.15544e-05 7.83388e-06 1.8459e-23)
(-4.02565e-05 5.19777e-06 -4.48211e-24)
(-4.25979e-05 8.50682e-06 -2.51636e-23)
(-4.17586e-05 5.79483e-06 2.32921e-23)
(-4.35875e-05 9.0498e-06 -1.07471e-23)
(-4.32663e-05 6.24682e-06 1.37216e-23)
(-4.4528e-05 9.44636e-06 -7.10611e-24)
(-4.47727e-05 6.54057e-06 1.60989e-23)
(-4.54249e-05 9.68333e-06 8.09405e-24)
(-4.62705e-05 6.66644e-06 2.81311e-23)
(-4.62842e-05 9.75107e-06 -7.68632e-24)
(-4.77521e-05 6.61853e-06 2.65173e-23)
(-4.71123e-05 9.64368e-06 -2.40915e-23)
(-4.92099e-05 6.39478e-06 -3.31551e-23)
(-4.79156e-05 9.35908e-06 -1.08349e-23)
(-5.06364e-05 5.99693e-06 1.0426e-23)
(-4.87006e-05 8.899e-06 2.44624e-23)
(-5.20243e-05 5.43045e-06 2.94268e-23)
(-4.94736e-05 8.26892e-06 -4.48115e-23)
(-5.33667e-05 4.70437e-06 2.34221e-23)
(-5.02406e-05 7.47787e-06 7.3663e-24)
(-5.46572e-05 3.83105e-06 1.1843e-23)
(-5.10072e-05 6.5382e-06 -2.2339e-23)
(-5.58902e-05 2.82586e-06 -1.30028e-23)
(-5.17783e-05 5.46529e-06 1.55483e-23)
(-5.70605e-05 1.70689e-06 1.81482e-23)
(-5.25583e-05 4.27724e-06 -2.09417e-23)
(-5.81641e-05 4.94473e-07 -8.28055e-24)
(-5.33507e-05 2.99441e-06 1.74723e-23)
(-5.91977e-05 -7.89166e-07 1.36347e-23)
(-5.41584e-05 1.63902e-06 6.15505e-24)
(-6.01587e-05 -2.12044e-06 -4.08807e-23)
(-5.49833e-05 2.34689e-07 -2.14734e-23)
(-6.10459e-05 -3.47488e-06 2.3361e-23)
(-5.58263e-05 -1.1941e-06 1.75554e-23)
(-6.18587e-05 -4.82763e-06 -3.85875e-25)
(-5.66875e-05 -2.62247e-06 5.62034e-24)
(-6.25977e-05 -6.15396e-06 -2.38141e-23)
(-5.75659e-05 -4.02569e-06 -2.74204e-24)
(-6.32643e-05 -7.4298e-06 2.13511e-24)
(-5.84599e-05 -5.37966e-06 -5.04167e-24)
(-6.38608e-05 -8.63215e-06 -3.73024e-24)
(-5.93666e-05 -6.66141e-06 7.54008e-24)
(-6.43902e-05 -9.7396e-06 -1.18598e-23)
(-6.02824e-05 -7.84955e-06 -7.15519e-24)
(-6.48566e-05 -1.07327e-05 -2.9861e-23)
(-6.1203e-05 -8.92466e-06 -1.72265e-23)
(-6.52643e-05 -1.15945e-05 4.34485e-23)
(-6.21233e-05 -9.86972e-06 -8.55114e-24)
(-6.56185e-05 -1.23105e-05 -4.94234e-24)
(-6.30373e-05 -1.06705e-05 -2.96997e-23)
(-6.59249e-05 -1.28696e-05 -2.23279e-23)
(-6.39388e-05 -1.13157e-05 3.1449e-23)
(-6.61896e-05 -1.32638e-05 1.11777e-24)
(-6.48208e-05 -1.17976e-05 -9.14997e-24)
(-6.64188e-05 -1.3489e-05 9.18549e-24)
(-6.5676e-05 -1.21119e-05 -1.22073e-23)
(-6.66189e-05 -1.35448e-05 -2.64422e-23)
(-6.64968e-05 -1.22584e-05 1.40077e-23)
(-6.67963e-05 -1.34347e-05 -2.53176e-23)
(-6.72758e-05 -1.22406e-05 4.41619e-24)
(-6.69567e-05 -1.31662e-05 4.8557e-23)
(-6.80059e-05 -1.20659e-05 6.53679e-23)
(-6.71055e-05 -1.27503e-05 5.08621e-24)
(-6.86808e-05 -1.17452e-05 -7.32402e-24)
(-6.72468e-05 -1.22012e-05 1.84573e-23)
(-6.92951e-05 -1.12926e-05 -2.0646e-23)
(-6.73836e-05 -1.15355e-05 9.26341e-24)
(-6.98448e-05 -1.07244e-05 -1.35848e-23)
(-6.75177e-05 -1.07716e-05 1.49763e-24)
(-7.03271e-05 -1.00586e-05 -2.45637e-24)
(-6.76496e-05 -9.92859e-06 -1.3981e-23)
(-7.07411e-05 -9.31397e-06 5.83906e-24)
(-6.77783e-05 -9.02561e-06 1.91111e-23)
(-7.10873e-05 -8.50936e-06 -2.91019e-23)
(-6.79019e-05 -8.081e-06 -1.56954e-23)
(-7.13676e-05 -7.66266e-06 2.99127e-23)
(-6.80171e-05 -7.1113e-06 -3.70604e-23)
(-7.15856e-05 -6.79043e-06 -3.67245e-23)
(-6.81196e-05 -6.13144e-06 -1.60517e-23)
(-7.17462e-05 -5.90673e-06 1.10714e-24)
(-6.82064e-05 -5.15219e-06 1.41809e-23)
(-7.18586e-05 -5.02197e-06 -2.88723e-23)
(-6.82733e-05 -4.18934e-06 4.62478e-23)
(-6.87544e-05 -3.7231e-06 -2.20096e-23)
(-6.96782e-05 -3.71513e-06 3.29982e-23)
(-7.05876e-05 -3.70534e-06 -2.41857e-23)
(-7.1488e-05 -3.67817e-06 -1.14785e-23)
(-7.19298e-05 -4.13028e-06 -3.07421e-23)
)
;
    }
    frontAndBackPlanes
    {
        type            empty;
    }
}


// ************************************************************************* //
