/*--------------------------------*- C++ -*----------------------------------*\
| =========                 |                                                 |
| \\      /  F ield         | OpenFOAM Extend Project: Open source CFD        |
|  \\    /   O peration     | Version:  1.6-ext                               |
|   \\  /    A nd           | Web:      www.extend-project.de                 |
|    \\/     M anipulation  |                                                 |
\*---------------------------------------------------------------------------*/
FoamFile
{
    version     2.0;
    format      ascii;
    class       surfaceScalarField;
    location    "1.1";
    object      meshPhi;
}
// * * * * * * * * * * * * * * * * * * * * * * * * * * * * * * * * * * * * * //

dimensions      [0 3 -1 0 0 0 0];

internalField   nonuniform List<scalar> 
570
(
-6.85457e-11
-1.86587e-09
-8.47398e-13
-4.84257e-10
5.34122e-11
-4.13264e-10
-1.34677e-09
-2.09964e-10
-2.24925e-09
-6.53123e-12
-1.07208e-09
1.5849e-10
-9.18848e-10
-1.55188e-09
-3.4919e-10
-2.81346e-09
-2.1473e-11
-1.78075e-09
2.4878e-10
-1.53332e-09
-1.88188e-09
-4.8676e-10
-3.54704e-09
-4.80891e-11
-2.59034e-09
3.1906e-10
-2.24015e-09
-2.33799e-09
-6.26574e-10
-4.43286e-09
-8.92683e-11
-3.49941e-09
3.66118e-10
-3.03869e-09
-2.91146e-09
-7.74267e-10
-5.44945e-09
-1.48827e-10
-4.50077e-09
3.86807e-10
-3.92297e-09
-3.58863e-09
-9.36762e-10
-6.58488e-09
-2.31736e-10
-5.59244e-09
3.77257e-10
-4.89155e-09
-4.36225e-09
-1.12243e-09
-7.83119e-09
-3.44331e-10
-6.77265e-09
3.32572e-10
-5.94316e-09
-5.22767e-09
-1.34129e-09
-9.18494e-09
-4.94588e-10
-8.04201e-09
2.46422e-10
-7.07869e-09
-6.18357e-09
-1.60525e-09
-1.06453e-08
-6.92446e-10
-9.40233e-09
1.10637e-10
-8.3003e-09
-7.23066e-09
-1.92849e-09
-1.22135e-08
-9.50193e-10
-1.0857e-08
-8.52955e-11
-9.61172e-09
-8.37154e-09
-2.3278e-09
-1.38924e-08
-1.28292e-09
-1.24108e-08
-3.54791e-10
-1.1018e-08
-9.6103e-09
-2.82309e-09
-1.56857e-08
-1.70908e-09
-1.40695e-08
-7.14793e-10
-1.25254e-08
-1.09524e-08
-3.438e-09
-1.75984e-08
-2.25109e-09
-1.58397e-08
-1.18645e-09
-1.41412e-08
-1.24044e-08
-4.20058e-09
-1.96362e-08
-2.93607e-09
-1.77291e-08
-1.79588e-09
-1.58736e-08
-1.39741e-08
-5.14415e-09
-2.18051e-08
-3.79666e-09
-1.97458e-08
-2.57496e-09
-1.77315e-08
-1.56702e-08
-6.30826e-09
-2.41121e-08
-4.87197e-09
-2.18982e-08
-3.56225e-09
-1.97244e-08
-1.75024e-08
-7.73982e-09
-2.65645e-08
-6.2086e-09
-2.41954e-08
-4.80399e-09
-2.18622e-08
-1.9481e-08
-9.49433e-09
-2.917e-08
-7.86185e-09
-2.66467e-08
-6.35522e-09
-2.41552e-08
-2.16169e-08
-1.16373e-08
-3.19368e-08
-9.89705e-09
-2.92615e-08
-8.28112e-09
-2.66141e-08
-2.39216e-08
-1.42457e-08
-3.48736e-08
-1.23911e-08
-3.20498e-08
-1.06585e-08
-2.92496e-08
-2.64067e-08
-1.74101e-08
-3.799e-08
-1.54344e-08
-3.50216e-08
-1.35777e-08
-3.20728e-08
-2.90836e-08
-2.29105e-08
-4.15365e-08
-2.06524e-08
-3.84199e-08
-1.8518e-08
-3.5317e-08
-3.21774e-08
-2.61022e-08
-4.50428e-08
-2.38622e-08
-4.17924e-08
-2.17336e-08
-3.85509e-08
-3.52756e-08
-2.94164e-08
-4.85101e-08
-2.71945e-08
-4.51387e-08
-2.50739e-08
-4.17716e-08
-3.83735e-08
-3.28405e-08
-5.19406e-08
-3.06369e-08
-4.84585e-08
-2.85263e-08
-4.49762e-08
-4.14656e-08
-3.63648e-08
-5.53364e-08
-3.41796e-08
-5.17514e-08
-3.2081e-08
-4.81618e-08
-4.45466e-08
-3.99819e-08
-5.86994e-08
-3.78153e-08
-5.5017e-08
-3.57307e-08
-5.13258e-08
-4.76113e-08
-4.3687e-08
-6.20313e-08
-4.15392e-08
-5.82546e-08
-3.94706e-08
-5.44653e-08
-5.06548e-08
-4.74775e-08
-6.53335e-08
-4.53489e-08
-6.14637e-08
-4.32981e-08
-5.75778e-08
-5.36726e-08
-5.13532e-08
-6.86072e-08
-4.92441e-08
-6.46437e-08
-4.72128e-08
-6.06608e-08
-5.666e-08
-5.53157e-08
-7.18535e-08
-5.32265e-08
-6.77938e-08
-5.12165e-08
-6.37118e-08
-5.96132e-08
-5.93686e-08
-7.50727e-08
-5.72999e-08
-7.09131e-08
-5.53127e-08
-6.67288e-08
-6.25285e-08
-6.35171e-08
-7.8265e-08
-6.14695e-08
-7.40006e-08
-5.95066e-08
-6.97095e-08
-6.54027e-08
-6.77675e-08
-8.14299e-08
-6.57418e-08
-7.70551e-08
-6.38044e-08
-7.26521e-08
-6.82331e-08
-7.21271e-08
-8.45666e-08
-7.01242e-08
-8.00752e-08
-6.82135e-08
-7.55549e-08
-7.10178e-08
-7.66036e-08
-8.76735e-08
-7.46244e-08
-8.30595e-08
-7.27414e-08
-7.84165e-08
-7.37552e-08
-8.12046e-08
-9.07484e-08
-7.92503e-08
-8.60064e-08
-7.73958e-08
-8.12355e-08
-7.64445e-08
-8.59374e-08
-9.37889e-08
-8.40093e-08
-8.89139e-08
-8.2184e-08
-8.40108e-08
-7.90854e-08
-9.08082e-08
-9.67917e-08
-8.89077e-08
-9.17801e-08
-8.71122e-08
-8.67417e-08
-8.16781e-08
-9.58221e-08
-9.97532e-08
-9.39506e-08
-9.46029e-08
-9.21854e-08
-8.94274e-08
-8.42234e-08
-1.00983e-07
-1.0267e-07
-9.91416e-08
-9.738e-08
-9.74068e-08
-9.20673e-08
-8.67226e-08
-1.06291e-07
-1.05536e-07
-1.04482e-07
-1.00109e-07
-1.02778e-07
-9.46609e-08
-8.91771e-08
-1.11746e-07
-1.08349e-07
-1.09971e-07
-1.02788e-07
-1.08298e-07
-9.72081e-08
-9.15887e-08
-1.17345e-07
-1.11104e-07
-1.15606e-07
-1.05414e-07
-1.13964e-07
-9.97085e-08
-9.39595e-08
-1.23082e-07
-1.13795e-07
-1.2138e-07
-1.07985e-07
-1.19769e-07
-1.02162e-07
-9.62915e-08
-1.28949e-07
-1.16418e-07
-1.27286e-07
-1.10499e-07
-1.25706e-07
-1.04568e-07
-9.85868e-08
-1.34935e-07
-1.18969e-07
-1.33313e-07
-1.12952e-07
-1.31763e-07
-1.06927e-07
-1.00847e-07
-1.41026e-07
-1.21443e-07
-1.39446e-07
-1.15344e-07
-1.37928e-07
-1.09239e-07
-1.03075e-07
-1.47208e-07
-1.23837e-07
-1.45672e-07
-1.17672e-07
-1.44185e-07
-1.11502e-07
-1.05271e-07
-1.53463e-07
-1.26147e-07
-1.51972e-07
-1.19934e-07
-1.50516e-07
-1.13717e-07
-1.07437e-07
-1.59771e-07
-1.28371e-07
-1.58326e-07
-1.22129e-07
-1.56902e-07
-1.15884e-07
-1.09574e-07
-1.66112e-07
-1.30505e-07
-1.64714e-07
-1.24254e-07
-1.63322e-07
-1.18001e-07
-1.11681e-07
-1.72464e-07
-1.32547e-07
-1.71114e-07
-1.26309e-07
-1.69755e-07
-1.20068e-07
-1.13759e-07
-1.78804e-07
-1.34497e-07
-1.77503e-07
-1.28293e-07
-1.76177e-07
-1.22084e-07
-1.15808e-07
-1.85109e-07
-1.36354e-07
-1.83858e-07
-1.30204e-07
-1.82566e-07
-1.24047e-07
-1.17824e-07
-1.91358e-07
-1.38117e-07
-1.90157e-07
-1.32041e-07
-1.889e-07
-1.25958e-07
-1.19808e-07
-1.97528e-07
-1.39787e-07
-1.96377e-07
-1.33805e-07
-1.95156e-07
-1.27813e-07
-1.21757e-07
-2.03598e-07
-1.41366e-07
-2.02497e-07
-1.35496e-07
-2.01313e-07
-1.29612e-07
-1.23667e-07
-2.09548e-07
-1.42854e-07
-2.08498e-07
-1.37112e-07
-2.07352e-07
-1.31354e-07
-1.25535e-07
-2.15362e-07
-1.44254e-07
-2.14362e-07
-1.38655e-07
-2.13255e-07
-1.33035e-07
-1.27358e-07
-2.21023e-07
-1.45569e-07
-2.20072e-07
-1.40124e-07
-2.19006e-07
-1.34655e-07
-1.29132e-07
-2.26518e-07
-1.46801e-07
-2.25617e-07
-1.4152e-07
-2.24593e-07
-1.36211e-07
-1.30851e-07
-2.31837e-07
-1.47953e-07
-2.30984e-07
-1.42844e-07
-2.30004e-07
-1.37701e-07
-1.32512e-07
-2.36972e-07
-1.4903e-07
-2.36168e-07
-1.44096e-07
-2.35233e-07
-1.39124e-07
-1.34109e-07
-2.41919e-07
-1.50034e-07
-2.41163e-07
-1.45277e-07
-2.40275e-07
-1.40477e-07
-1.35637e-07
-2.46677e-07
-1.5097e-07
-2.45968e-07
-1.46387e-07
-2.45128e-07
-1.41758e-07
-1.37093e-07
-2.51248e-07
-1.5184e-07
-2.50586e-07
-1.47428e-07
-2.49795e-07
-1.42965e-07
-1.3847e-07
-2.55636e-07
-1.52648e-07
-2.5502e-07
-1.484e-07
-2.5428e-07
-1.44096e-07
-1.39764e-07
-2.5985e-07
-1.53398e-07
-2.59279e-07
-1.49304e-07
-2.58592e-07
-1.4515e-07
-1.40971e-07
-2.639e-07
-1.54092e-07
-2.63374e-07
-1.5014e-07
-2.62741e-07
-1.46125e-07
-1.42087e-07
-2.678e-07
-1.54732e-07
-2.67319e-07
-1.50908e-07
-2.6674e-07
-1.4702e-07
-1.43109e-07
-2.71566e-07
-1.5532e-07
-2.71129e-07
-1.51609e-07
-2.70606e-07
-1.47832e-07
-1.44035e-07
-2.75214e-07
-1.55857e-07
-2.74822e-07
-1.52243e-07
-2.74354e-07
-1.48562e-07
-1.44861e-07
-2.78763e-07
-1.56343e-07
-2.78415e-07
-1.5281e-07
-2.78005e-07
-1.49209e-07
-1.45588e-07
-2.82232e-07
-1.56778e-07
-2.8193e-07
-1.53309e-07
-2.81576e-07
-1.49773e-07
-1.46215e-07
-2.85641e-07
-1.57161e-07
-2.85383e-07
-1.53739e-07
-2.85086e-07
-1.50253e-07
-1.46742e-07
-2.89006e-07
-1.57489e-07
-2.88795e-07
-1.541e-07
-2.88555e-07
-1.50649e-07
-1.47172e-07
-2.92346e-07
-1.57759e-07
-2.92182e-07
-1.5439e-07
-2.91998e-07
-1.50963e-07
-1.47506e-07
-2.95676e-07
-1.5797e-07
-2.9556e-07
-1.54609e-07
-2.95432e-07
-1.51195e-07
-1.47749e-07
-2.99009e-07
-1.58115e-07
-2.98941e-07
-1.54753e-07
-2.98866e-07
-1.51345e-07
-1.47903e-07
-3.02359e-07
-3.02336e-07
-3.02307e-07
)
;

boundaryField
{
    plateFix
    {
        type            calculated;
        value           nonuniform List<scalar> 4(1.41794e-09 -4.32349e-14 4.71187e-14 1.062e-09);
    }
    plate
    {
        type            calculated;
        value           nonuniform List<scalar> 
168
(
3.43659e-10
2.36823e-10
5.94839e-10
4.1881e-10
8.32839e-10
5.79908e-10
1.05427e-09
7.11977e-10
1.26654e-09
8.14073e-10
1.4802e-09
8.86421e-10
1.70538e-09
9.27374e-10
1.953e-09
9.3384e-10
2.2347e-09
9.00707e-10
2.56354e-09
8.20706e-10
2.9544e-09
6.8398e-10
3.42458e-09
4.77654e-10
3.99435e-09
1.85267e-10
4.68764e-09
-2.13873e-10
5.53278e-09
-7.45414e-10
6.56335e-09
-1.44078e-09
7.81916e-09
-2.33809e-09
9.34738e-09
-3.48314e-09
1.12038e-08
-4.93064e-09
1.34541e-08
-6.74547e-09
1.61758e-08
-9.00426e-09
1.94595e-08
-1.17972e-08
2.52452e-08
-1.64628e-08
2.84112e-08
-1.96764e-08
3.17007e-08
-2.3018e-08
3.51014e-08
-2.64751e-08
3.86032e-08
-3.00378e-08
4.21989e-08
-3.36987e-08
4.58833e-08
-3.74527e-08
4.9654e-08
-4.12972e-08
5.35103e-08
-4.52316e-08
5.74538e-08
-4.92575e-08
6.14878e-08
-5.33781e-08
6.56173e-08
-5.75983e-08
6.98483e-08
-6.19241e-08
7.41878e-08
-6.63625e-08
7.86432e-08
-7.09207e-08
8.32218e-08
-7.56062e-08
8.79304e-08
-8.04256e-08
9.27753e-08
-8.53851e-08
9.7761e-08
-9.04893e-08
1.02891e-07
-9.57413e-08
1.08166e-07
-1.01142e-07
1.13585e-07
-1.06691e-07
1.19146e-07
-1.12385e-07
1.24841e-07
-1.18217e-07
1.30664e-07
-1.24179e-07
1.36603e-07
-1.30262e-07
1.42646e-07
-1.36451e-07
1.48776e-07
-1.42731e-07
1.54977e-07
-1.49084e-07
1.61229e-07
-1.55493e-07
1.67513e-07
-1.61935e-07
1.73807e-07
-1.6839e-07
1.80088e-07
-1.74836e-07
1.86334e-07
-1.81249e-07
1.92523e-07
-1.87607e-07
1.98633e-07
-1.9389e-07
2.04644e-07
-2.00075e-07
2.10536e-07
-2.06144e-07
2.16293e-07
-2.12079e-07
2.21898e-07
-2.17866e-07
2.27339e-07
-2.2349e-07
2.32606e-07
-2.28942e-07
2.37691e-07
-2.34214e-07
2.42589e-07
-2.39302e-07
2.47301e-07
-2.44204e-07
2.51827e-07
-2.48923e-07
2.56173e-07
-2.53462e-07
2.60346e-07
-2.57831e-07
2.64357e-07
-2.62039e-07
2.68219e-07
-2.66099e-07
2.71947e-07
-2.70027e-07
2.75558e-07
-2.73839e-07
2.7907e-07
-2.77554e-07
2.82502e-07
-2.81189e-07
2.85873e-07
-2.84764e-07
2.89199e-07
-2.88296e-07
2.92498e-07
-2.91802e-07
2.95785e-07
-2.95296e-07
2.99075e-07
-2.98788e-07
3.02387e-07
-1.58195e-07
-1.54831e-07
-1.51425e-07
-1.47984e-07
-3.0227e-07
)
;
    }
    frontAndBackPlanes
    {
        type            empty;
    }
}


// ************************************************************************* //
