/*--------------------------------*- C++ -*----------------------------------*\
| =========                 |                                                 |
| \\      /  F ield         | OpenFOAM Extend Project: Open source CFD        |
|  \\    /   O peration     | Version:  1.6-ext                               |
|   \\  /    A nd           | Web:      www.extend-project.de                 |
|    \\/     M anipulation  |                                                 |
\*---------------------------------------------------------------------------*/
FoamFile
{
    version     2.0;
    format      ascii;
    class       volSymmTensorField;
    location    "1.1";
    object      sigma;
}
// * * * * * * * * * * * * * * * * * * * * * * * * * * * * * * * * * * * * * //

dimensions      [1 -1 -2 0 0 0 0];

internalField   nonuniform List<symmTensor> 
328
(
(6.19844 0.522272 -6.70789e-22 2.44016 6.59259e-20 3.45339)
(1.55196 -0.404727 1.50214e-24 0.761733 5.12027e-23 0.924344)
(-1.68334 -0.247293 7.53664e-23 -0.687482 -6.88176e-23 -0.949464)
(-6.57689 0.871778 1.2247e-22 -2.12055 -1.232e-19 -3.4812)
(6.01011 0.338352 2.17555e-21 1.85295 -1.41683e-19 3.14316)
(1.53722 -0.169162 5.20934e-23 0.413206 -7.4479e-23 0.778962)
(-1.67385 -0.0385779 -1.09569e-23 -0.0735617 1.12634e-22 -0.700198)
(-6.26587 0.579829 1.28619e-21 -1.277 -3.61115e-20 -3.01938)
(6.02087 0.21943 -2.85959e-21 1.5454 -4.3362e-20 3.02435)
(1.61587 0.000145564 -1.33258e-22 0.274797 1.99377e-22 0.754933)
(-1.83522 0.100484 9.51083e-22 0.221255 7.81191e-23 -0.646967)
(-6.24315 0.370215 -5.12658e-21 -0.816705 1.28578e-19 -2.82628)
(5.96172 0.150855 1.65424e-21 1.3461 3.56379e-20 2.92091)
(1.59686 0.1111 2.09453e-22 0.171678 -1.8728e-22 0.705949)
(-1.83783 0.17967 -1.08454e-21 0.468959 -6.80531e-22 -0.549081)
(-6.14328 0.235694 4.42887e-21 -0.510915 6.489e-20 -2.66409)
(5.92709 0.115688 -1.55545e-21 1.24358 6.3744e-20 2.86599)
(1.58494 0.175533 1.90407e-21 0.131763 7.24978e-22 0.6851)
(-1.85071 0.216121 5.12277e-23 0.608188 -4.50552e-22 -0.498667)
(-6.09206 0.155724 -7.71044e-22 -0.345559 -1.24606e-19 -2.57752)
(5.87827 0.0999526 3.10627e-23 1.18851 -6.50461e-20 2.8244)
(1.55264 0.212917 -8.28655e-22 0.110838 -1.82617e-22 0.663717)
(-1.82388 0.230953 -2.3469e-21 0.706137 7.97948e-22 -0.448855)
(-6.03362 0.110348 7.67989e-23 -0.252576 2.02008e-20 -2.51699)
(5.82755 0.094755 -1.24008e-21 1.16282 9.30002e-20 2.79382)
(1.52201 0.232048 4.52472e-22 0.106198 -5.29301e-23 0.649545)
(-1.79374 0.233774 1.46203e-22 0.763635 -2.73424e-22 -0.413866)
(-5.98211 0.0864651 8.35428e-22 -0.206714 2.04098e-20 -2.47806)
(5.76965 0.0944447 4.93043e-21 1.1505 -3.10774e-20 2.76573)
(1.48977 0.240728 -9.83955e-21 0.106201 -2.19087e-21 0.636611)
(-1.75495 0.231772 1.71387e-21 0.800153 -5.58584e-22 -0.383788)
(-5.92746 0.0748909 -1.34447e-21 -0.18478 -4.99016e-20 -2.44743)
(5.70643 0.0959979 -5.40489e-21 1.14399 7.28835e-20 2.73784)
(1.46011 0.243149 7.49801e-21 0.108685 1.23356e-21 0.625716)
(-1.71595 0.228161 4.18773e-21 0.820649 -4.6206e-22 -0.360011)
(-5.86999 0.0701128 -3.80551e-21 -0.1753 9.6807e-20 -2.42064)
(5.63748 0.0978763 6.84866e-21 1.13876 -9.4051e-20 2.70819)
(1.43218 0.242273 2.93875e-21 0.111225 -4.47866e-22 0.615552)
(-1.67673 0.224635 -2.30536e-21 0.831568 2.34413e-22 -0.339959)
(-5.80722 0.068698 1.2527e-20 -0.170899 -8.77154e-20 -2.39376)
(5.56333 0.0994814 -3.3252e-21 1.13287 6.8335e-20 2.67618)
(1.40615 0.239743 -1.02992e-20 0.113604 1.49455e-21 0.606094)
(-1.63899 0.221663 5.86555e-21 0.835725 -2.15244e-21 -0.3232)
(-5.73848 0.0687292 -8.79426e-21 -0.167942 1.20071e-20 -2.36507)
(5.48407 0.100663 -9.86428e-21 1.1255 -8.30422e-20 2.64155)
(1.3813 0.236568 9.68521e-21 0.115763 2.75752e-21 0.597024)
(-1.60261 0.219252 -5.47874e-21 0.8355 2.04858e-21 -0.308726)
(-5.663 0.0691357 -3.69504e-21 -0.164567 3.25585e-20 -2.3335)
(5.3998 0.101474 1.99115e-20 1.11648 6.31912e-20 2.60425)
(1.35714 0.23327 9.12662e-22 0.117996 -1.67426e-21 0.58826)
(-1.56748 0.217189 -2.92314e-21 0.832213 1.08693e-21 -0.295979)
(-5.58043 0.0693865 2.97773e-21 -0.160019 1.4306e-20 -2.29863)
(5.31046 0.102018 -1.62569e-20 1.10586 -3.99883e-21 2.56429)
(1.33312 0.230104 -1.92686e-20 0.120521 -1.55048e-21 0.579673)
(-1.5331 0.215239 1.25982e-21 0.826813 2.97067e-21 -0.284374)
(-5.49052 0.0692432 -1.41214e-21 -0.15407 -3.62338e-20 -2.26026)
(5.21591 0.102387 -9.41538e-21 1.09377 -9.16261e-21 2.52165)
(1.30886 0.227141 -7.79558e-21 0.123495 2.13097e-22 0.57117)
(-1.49893 0.21321 7.10402e-22 0.819864 -1.65894e-21 -0.273474)
(-5.39314 0.0686367 6.68144e-21 -0.146761 1.00067e-20 -2.21836)
(5.11591 0.102636 1.34684e-20 1.08028 -1.34248e-20 2.47628)
(1.28406 0.224357 -4.50543e-21 0.126966 -4.73192e-21 0.562647)
(-1.46438 0.210975 4.66229e-21 0.811717 1.43626e-21 -0.262901)
(-5.28818 0.0675833 1.26772e-20 -0.138236 -2.22599e-20 -2.17294)
(5.01023 0.102784 -1.2824e-20 1.06546 -2.61858e-20 2.42811)
(1.2585 0.221668 8.06278e-21 0.130906 4.93937e-21 0.554012)
(-1.42891 0.208459 -1.11384e-20 0.802557 7.23121e-22 -0.252363)
(-5.17559 0.0661396 -3.83338e-22 -0.128677 2.6625e-20 -2.12404)
(4.89861 0.102825 5.56681e-20 1.0493 2.07855e-20 2.37703)
(1.23205 0.218972 -1.7136e-20 0.13523 -5.51352e-21 0.545171)
(-1.39203 0.205623 2.80828e-20 0.792461 7.05828e-21 -0.241636)
(-5.05525 0.0643753 -1.76055e-20 -0.11826 -4.96361e-20 -2.07171)
(4.78086 0.10274 -5.0778e-20 1.03182 5.8351e-21 2.32296)
(1.20462 0.216164 -4.00485e-20 0.139839 -9.50658e-21 0.536052)
(-1.35333 0.20245 -9.64524e-21 0.781441 -1.11075e-20 -0.230551)
(-4.92706 0.0623566 -3.43467e-21 -0.107141 4.6071e-20 -2.01595)
(4.65672 0.102495 -7.18533e-20 1.01292 -1.47548e-20 2.26578)
(1.17612 0.21314 6.29187e-20 0.144605 4.37232e-21 0.526569)
(-1.3125 0.198924 3.10523e-20 0.76946 6.43966e-21 -0.218998)
(-4.79091 0.060145 4.72766e-20 -0.0954526 -1.41062e-20 -1.95677)
(4.52626 0.102078 7.66697e-20 0.992644 2.2805e-20 2.20552)
(1.1466 0.209832 3.65918e-21 0.149455 1.80181e-20 0.516715)
(-1.26928 0.195036 -1.93572e-20 0.756501 -1.68517e-20 -0.206879)
(-4.64672 0.057776 -3.16409e-20 -0.0832778 3.64446e-20 -1.89419)
(4.38887 0.101357 1.17662e-20 0.970636 -2.00635e-20 2.14179)
(1.11591 0.206072 -4.75305e-20 0.154162 -3.72196e-21 0.506332)
(-1.22351 0.190691 1.38323e-20 0.742463 8.46557e-22 -0.194168)
(-4.49422 0.0552666 -2.88816e-20 -0.0706996 5.27805e-21 -1.82812)
(4.24063 0.100047 -1.7612e-20 0.946926 1.81756e-21 2.07305)
(1.0832 0.200906 8.36939e-20 0.159194 1.91479e-20 0.495277)
(-1.17323 0.18489 1.46035e-20 0.72675 -9.86929e-21 -0.180324)
(-4.32822 0.0520066 5.56801e-20 -0.0575382 -1.87015e-20 -1.75641)
(4.08619 0.0995341 -6.40673e-20 0.921406 -2.56022e-20 2.0011)
(1.04948 0.197445 -1.64947e-20 0.163819 1.4568e-20 0.483652)
(-1.12019 0.18081 4.56408e-20 0.709565 1.01167e-20 -0.165961)
(-4.15434 0.0495712 -1.75244e-19 -0.0447549 4.44255e-20 -1.68169)
(3.93498 0.0989032 -3.55347e-20 0.895805 8.71119e-21 1.93041)
(1.01703 0.194071 -2.91443e-21 0.167908 1.30533e-20 0.472323)
(-1.06757 0.176913 -1.60648e-20 0.692472 2.8517e-21 -0.151731)
(-3.98271 0.0473466 1.03375e-19 -0.0321395 -6.21307e-20 -1.60795)
(3.78714 0.0981501 1.66247e-19 0.870041 1.4555e-22 1.861)
(0.985675 0.190624 -3.22731e-20 0.171335 -2.13663e-20 0.461169)
(-1.01558 0.173002 1.47378e-20 0.675166 -3.96199e-21 -0.137838)
(-3.81407 0.0451659 -1.33135e-20 -0.0203449 3.13202e-20 -1.53573)
(3.64275 0.0972625 3.66793e-20 0.844375 -1.30064e-20 1.79302)
(0.955472 0.187101 -8.69964e-20 0.174264 -4.28287e-20 0.450276)
(-0.9641 0.169092 3.17669e-20 0.657782 6.90296e-21 -0.124181)
(-3.64822 0.043082 -6.69544e-20 -0.00916042 -1.95e-20 -1.46487)
(3.50175 0.0962821 -4.86472e-21 0.818697 3.70478e-22 1.72638)
(0.92633 0.183512 -2.73694e-20 0.176615 5.8763e-20 0.439575)
(-0.913248 0.165177 4.99678e-21 0.640236 -2.35276e-21 -0.110839)
(-3.48537 0.0410676 -9.02814e-20 0.00125727 3.04174e-20 -1.39552)
(3.36421 0.0952029 1.52718e-19 0.793099 4.75575e-20 1.66116)
(0.898273 0.179866 1.19251e-19 0.178445 -2.06861e-20 0.4291)
(-0.863006 0.161269 2.33759e-20 0.62259 6.64889e-20 -0.0977815)
(-3.3255 0.0391383 9.38963e-20 0.0109935 -7.43801e-20 -1.32764)
(3.23009 0.0940417 -1.99639e-19 0.767544 -4.13296e-20 1.59732)
(0.871254 0.176175 4.61548e-20 0.179727 -2.3069e-20 0.418822)
(-0.813434 0.157371 -5.79961e-20 0.604823 8.32356e-20 -0.0850406)
(-3.1687 0.0372834 7.3773e-21 0.020003 -1.41336e-20 -1.26128)
(3.09941 0.0927986 -6.77892e-20 0.742066 -1.49652e-20 1.53488)
(0.845271 0.172444 -1.10072e-19 0.180484 4.8303e-20 0.408747)
(-0.764545 0.153489 -4.94404e-20 0.586958 -4.84168e-20 -0.0726123)
(-3.015 0.0355074 -9.62526e-21 0.0283155 4.56581e-20 -1.19643)
(2.97215 0.0914806 -1.02368e-19 0.716659 -2.72269e-21 1.47384)
(0.82029 0.16868 1.65166e-20 0.180712 -2.76351e-20 0.398862)
(-0.716378 0.149627 -7.05992e-20 0.568993 -9.22301e-20 -0.060513)
(-2.86443 0.0338067 4.90885e-20 0.0359212 6.42607e-20 -1.13313)
(2.84828 0.0900892 -1.88328e-19 0.69134 -6.25534e-21 1.4142)
(0.796293 0.164889 3.01391e-19 0.180424 5.96388e-20 0.389164)
(-0.668957 0.145788 -9.65726e-20 0.550941 -1.46179e-19 -0.0487467)
(-2.71703 0.0321829 -6.37058e-20 0.0428336 1.64619e-20 -1.07137)
(2.72779 0.0886275 1.21791e-19 0.666114 -6.95542e-20 1.35594)
(0.77325 0.161073 -1.24502e-19 0.179626 3.02905e-20 0.379644)
(-0.622313 0.141975 2.8378e-19 0.532808 3.73202e-20 -0.037324)
(-2.57284 0.0306351 -2.4399e-19 0.0490562 1.52109e-20 -1.01117)
(2.61065 0.0870964 -2.97712e-20 0.640994 1.09451e-20 1.29906)
(0.751134 0.157236 1.17689e-19 0.178329 1.77604e-19 0.370295)
(-0.576475 0.138191 1.37041e-19 0.514605 -8.69157e-20 -0.0262514)
(-2.43188 0.029164 7.13799e-20 0.0546005 4.99186e-20 -0.952536)
(2.49682 0.085497 2.95976e-19 0.615989 2.8265e-20 1.24355)
(0.729914 0.15338 -9.17652e-20 0.176544 2.87433e-20 0.361109)
(-0.531473 0.134436 -8.17917e-20 0.496343 -3.66071e-20 -0.0155372)
(-2.29418 0.0277699 -1.57961e-19 0.0594767 -1.17428e-19 -0.895474)
(2.38627 0.0838294 -8.8742e-20 0.591113 1.37963e-19 1.18941)
(0.709557 0.149508 -1.4554e-19 0.174286 1.30443e-19 0.352078)
(-0.487338 0.130713 -5.61776e-20 0.478035 -1.22085e-19 -0.00518842)
(-2.15977 0.0264532 5.58805e-20 0.0636988 -3.44992e-20 -0.83999)
(2.27897 0.0820937 -1.75765e-19 0.566382 -1.21054e-20 1.13662)
(0.690026 0.145619 2.17143e-19 0.17157 -1.69146e-19 0.343196)
(-0.444104 0.127022 -1.38794e-19 0.459696 1.98591e-19 0.0047878)
(-2.02867 0.0252145 1.40083e-19 0.0672821 -1.07574e-19 -0.78609)
(2.17486 0.0802891 -7.32989e-21 0.541813 -1.01124e-19 1.08517)
(0.671286 0.141715 3.18882e-20 0.168414 -1.69809e-19 0.334454)
(-0.401804 0.123362 -1.48948e-19 0.441343 -6.86267e-20 0.0143847)
(-1.90092 0.024054 -2.38999e-20 0.070245 1.34338e-19 -0.733777)
(2.0739 0.078415 2.46918e-19 0.517424 1.71404e-19 1.03505)
(0.653297 0.137794 -2.64229e-20 0.164839 3.44621e-19 0.325845)
(-0.360474 0.119734 2.06603e-19 0.422995 1.38111e-19 0.0235956)
(-1.77655 0.022972 -2.50009e-19 0.0726075 -8.83309e-20 -0.683056)
(1.97606 0.0764701 -7.42084e-20 0.493238 6.71182e-20 0.986265)
(0.636019 0.133855 9.32774e-20 0.160867 -1.64217e-19 0.317362)
(-0.320152 0.116137 4.21495e-20 0.404674 2.09891e-19 0.0324143)
(-1.65559 0.0219682 -7.72163e-20 0.0743922 1.35781e-20 -0.633931)
(1.88128 0.0744532 -8.64698e-20 0.46928 -2.28828e-19 0.938793)
(0.619411 0.129897 -2.59953e-20 0.156523 2.13851e-19 0.308998)
(-0.280876 0.112567 1.45602e-19 0.386404 -2.80253e-19 0.0408346)
(-1.53808 0.0210422 1.8793e-19 0.075624 5.59839e-20 -0.586407)
(1.78952 0.0723629 9.30254e-20 0.445575 8.13377e-20 0.89263)
(0.60343 0.125918 -2.95999e-19 0.151834 6.74374e-20 0.300747)
(-0.242689 0.109024 4.33396e-19 0.368211 -2.08603e-19 0.0488507)
(-1.42405 0.0201932 -2.32005e-19 0.0763297 8.80304e-20 -0.540488)
(1.70074 0.0701979 1.07061e-19 0.422154 -1.20711e-19 0.847771)
(0.588034 0.121915 -1.80972e-19 0.146829 8.44106e-20 0.292604)
(-0.205632 0.105504 -7.12779e-20 0.350123 4.51008e-19 0.056457)
(-1.31355 0.0194199 -2.66055e-20 0.0765382 7.01963e-20 -0.496179)
(1.61489 0.0679569 3.33403e-19 0.399048 -3.00859e-20 0.804212)
(0.573179 0.117884 -1.44003e-19 0.141538 -1.85931e-19 0.284564)
(-0.16975 0.102003 -2.56723e-20 0.332173 -3.09865e-19 0.063648)
(-1.20662 0.0187207 2.09156e-20 0.0762799 -2.12738e-19 -0.453488)
(1.53194 0.0656391 -1.13136e-19 0.376292 6.89774e-20 0.76195)
(0.558823 0.113823 -6.62898e-20 0.135995 2.65812e-19 0.276622)
(-0.135088 0.0985186 -2.68443e-19 0.314392 3.23794e-19 0.0704188)
(-1.10332 0.0180933 -2.64642e-19 0.0755872 -6.86984e-21 -0.41242)
(1.45184 0.0632438 9.22955e-19 0.353921 -1.46015e-20 0.720987)
(0.544922 0.109729 -1.68584e-19 0.130234 5.55444e-19 0.268775)
(-0.101693 0.0950461 5.38915e-20 0.296815 -2.07463e-19 0.0767646)
(-1.00369 0.0175356 3.92828e-19 0.0744935 1.13704e-19 -0.372982)
(1.37458 0.0607709 -1.68789e-19 0.331974 -3.31088e-20 0.681322)
(0.531436 0.105599 -4.41745e-19 0.124289 -6.19313e-19 0.261021)
(-0.0696121 0.091582 1.19779e-19 0.279478 -3.77083e-20 0.0826808)
(-0.907789 0.0170446 -2.41016e-19 0.0730333 1.36013e-19 -0.335184)
(1.3001 0.0582208 9.05257e-20 0.310491 -3.30916e-20 0.642959)
(0.518323 0.101431 1.155e-19 0.118197 -2.8791e-20 0.253356)
(-0.0388932 0.0881229 -3.84213e-20 0.262419 -4.80765e-19 0.0881632)
(-0.815678 0.0166173 -6.4355e-19 0.071242 1.21156e-19 -0.299035)
(1.22839 0.0555945 2.18192e-19 0.289511 5.4024e-20 0.605903)
(0.505542 0.0972234 -4.97393e-20 0.111995 5.16332e-19 0.245781)
(-0.00958399 0.0846655 1.68777e-19 0.245677 -3.68586e-21 0.0932082)
(-0.727414 0.0162505 2.00569e-19 0.0691556 1.42867e-19 -0.264542)
(1.15941 0.0528939 -2.76843e-19 0.269076 -1.52158e-19 0.57016)
(0.493056 0.0929752 5.23559e-19 0.105721 6.1785e-20 0.238295)
(0.0182684 0.0812074 -2.65931e-19 0.22929 2.57521e-19 0.0978124)
(-0.643056 0.0159409 2.37576e-19 0.0668101 -3.39569e-19 -0.231716)
(1.09315 0.0501213 -4.96691e-19 0.249227 -1.0344e-19 0.535737)
(0.480827 0.0886868 -3.60115e-19 0.0994101 -8.93943e-19 0.230897)
(0.0446176 0.0777469 -1.2837e-19 0.213298 -1.43015e-19 0.101973)
(-0.562664 0.0156848 2.58054e-19 0.0642419 5.71735e-20 -0.200567)
(1.02959 0.0472802 3.16412e-19 0.230006 1.29064e-19 0.502641)
(0.468821 0.0843594 -8.36481e-20 0.0931009 2.75786e-19 0.223588)
(0.069419 0.0742828 1.29975e-19 0.197739 3.92381e-19 0.105688)
(-0.486296 0.015479 2.86666e-19 0.0614866 -3.17777e-19 -0.171102)
(0.968691 0.0443747 1.07681e-19 0.211453 -2.23319e-19 0.470881)
(0.457001 0.0799956 1.1939e-19 0.0868294 2.60163e-19 0.216369)
(0.0926301 0.0708154 -4.3978e-19 0.182652 2.16137e-19 0.108954)
(-0.414007 0.0153199 -4.12574e-19 0.0585798 8.61138e-20 -0.14333)
(0.910447 0.0414097 -2.67072e-20 0.193607 5.55271e-20 0.440463)
(0.445337 0.0755992 1.95489e-19 0.080631 2.16277e-19 0.209241)
(0.114211 0.0673459 3.46413e-19 0.168074 3.81405e-20 0.111772)
(-0.345848 0.0152045 7.12516e-20 0.0555561 -1.23445e-19 -0.117258)
(0.854831 0.0383909 -1.31836e-19 0.176506 2.91165e-20 0.411395)
(0.433798 0.0711756 -2.26935e-19 0.0745402 -1.59949e-19 0.202206)
(0.134125 0.0638768 -8.3945e-19 0.15404 2.16174e-19 0.114141)
(-0.281866 0.0151298 5.10805e-20 0.0524492 2.93277e-19 -0.0928903)
(0.801821 0.035325 -3.30255e-19 0.160183 -6.9474e-19 0.38368)
(0.422353 0.0667315 -3.79317e-20 0.0685899 2.37372e-19 0.195264)
(0.152338 0.060412 7.43364e-19 0.140585 -6.08971e-19 0.116061)
(-0.222099 0.0150932 4.46794e-19 0.0492915 -9.55989e-20 -0.0702294)
(0.751392 0.0322195 -9.58813e-20 0.144673 2.10468e-19 0.357322)
(0.410974 0.0622757 -1.0048e-19 0.0628117 1.21354e-19 0.188418)
(0.168823 0.0569574 -3.2069e-19 0.12774 2.7292e-19 0.117533)
(-0.166578 0.0150928 -6.99253e-19 0.0461146 1.36547e-19 -0.049275)
(0.703512 0.0290825 1.76716e-19 0.130005 -2.15193e-19 0.33232)
(0.399635 0.0578186 5.13864e-19 0.0572354 4.82236e-22 0.181667)
(0.183556 0.0535202 -1.79913e-19 0.115535 -1.27629e-19 0.118559)
(-0.115322 0.0151273 5.90677e-19 0.0429484 -5.40002e-19 -0.0300231)
(0.658147 0.0259232 -1.96577e-19 0.116203 2.74697e-19 0.308669)
(0.388308 0.0533727 -6.17721e-19 0.0518893 1.05511e-20 0.175014)
(0.196517 0.0501101 2.61414e-19 0.103996 -5.25439e-19 0.119144)
(-0.0683405 0.015196 -6.08706e-19 0.0398219 3.80112e-19 -0.0124653)
(0.615252 0.0227515 -5.82115e-19 0.103291 -4.11253e-20 0.286363)
(0.376968 0.0489527 4.01346e-20 0.0467996 4.06921e-20 0.168458)
(0.207696 0.0467389 6.00047e-19 0.0931455 -4.35655e-20 0.11929)
(-0.0256273 0.0152993 -6.07081e-20 0.0367626 1.33971e-19 0.00341156)
(0.574775 0.0195782 2.71537e-19 0.0912874 1.64053e-19 0.265386)
(0.365588 0.0445758 4.69845e-19 0.0419912 -6.30206e-19 0.161997)
(0.217087 0.0434208 -4.01111e-19 0.0830048 -5.051e-19 0.119005)
(0.0128389 0.0154388 -1.49044e-19 0.0337972 -6.19972e-20 0.0176268)
(0.536652 0.016415 -5.7002e-19 0.0802048 2.47469e-19 0.24572)
(0.354142 0.0402617 -4.68998e-19 0.0374873 -3.73523e-19 0.155632)
(0.22469 0.0401729 1.60513e-19 0.0735899 3.25784e-19 0.118295)
(0.047097 0.0156172 9.98787e-20 0.0309512 1.80922e-19 0.0302062)
(0.500807 0.0132744 1.19574e-19 0.0700527 -8.67709e-20 0.227336)
(0.342601 0.0360328 5.91836e-19 0.0333095 4.69323e-20 0.149359)
(0.230515 0.0370151 1.0424e-18 0.064914 5.23435e-19 0.117169)
(0.0772055 0.0158388 -2.15382e-19 0.0282498 2.55956e-19 0.0411834)
(0.467148 0.0101697 -2.41829e-19 0.0608355 -3.30963e-19 0.210201)
(0.330937 0.0319138 -4.56499e-19 0.0294783 1.0374e-18 0.143175)
(0.234578 0.03397 -1.02287e-19 0.0569863 -6.52649e-19 0.115637)
(0.103245 0.0161091 2.40127e-19 0.0257178 -6.28631e-19 0.0506002)
(0.435566 0.00711473 -2.93109e-19 0.0525525 -5.12292e-21 0.19427)
(0.319118 0.0279319 2.92745e-19 0.0260132 -2.25685e-19 0.137076)
(0.236904 0.0310625 -1.85341e-20 0.0498126 1.88814e-19 0.113712)
(0.125317 0.0164352 -5.10302e-20 0.02338 2.92415e-20 0.0585079)
(0.405937 0.00412335 -4.68111e-19 0.0451985 1.94061e-19 0.179491)
(0.30711 0.0241153 -3.17721e-20 0.022933 1.07292e-19 0.131055)
(0.237527 0.0283195 5.2754e-19 0.0433952 -5.91917e-19 0.111408)
(0.14355 0.0168253 4.11413e-19 0.0212619 -2.1596e-19 0.0649672)
(0.378115 0.00120926 1.74413e-19 0.0387628 -3.23853e-19 0.165802)
(0.294879 0.0204928 3.40577e-21 0.0202558 -1.05938e-18 0.125105)
(0.236488 0.0257683 -3.83258e-19 0.0377332 2.29959e-18 0.108741)
(0.158093 0.0172887 -5.4489e-19 0.0193898 -3.72096e-19 0.0700489)
(0.35194 -0.00161509 -2.23479e-19 0.0332311 6.6591e-19 0.153133)
(0.282386 0.0170911 3.63796e-19 0.0179997 -5.01019e-19 0.119219)
(0.233835 0.0234353 8.37298e-19 0.0328231 -1.42627e-19 0.105729)
(0.16912 0.0178347 -4.74607e-19 0.0177912 -3.23847e-19 0.0738332)
(0.327236 -0.00433953 -4.70691e-19 0.0285843 -7.39555e-19 0.141406)
(0.26959 0.0139332 -5.37953e-20 0.0161825 3.8744e-19 0.113387)
(0.229623 0.0213435 -9.13758e-20 0.0286591 -6.15513e-19 0.102392)
(0.176823 0.0184725 1.11804e-19 0.0164951 -1.89968e-19 0.0764091)
(0.303815 -0.00695776 -8.42001e-20 0.0248015 1.62544e-19 0.130538)
(0.256453 0.0110345 1.68323e-19 0.0148228 1.17123e-18 0.107601)
(0.223911 0.01951 -9.25082e-19 0.0252353 -4.22947e-19 0.0987502)
(0.181414 0.0192098 2.00575e-19 0.0155328 2.68026e-19 0.0778728)
(0.281486 -0.00946934 -5.74077e-19 0.0218588 1.56633e-19 0.120442)
(0.242928 0.00839941 -9.12655e-20 0.0139392 -3.40518e-19 0.10185)
(0.21676 0.0179432 9.7603e-19 0.0225456 4.43482e-19 0.094826)
(0.183109 0.0200522 -1.04429e-18 0.0149371 7.9613e-19 0.0783247)
(0.260066 -0.0118827 -2.23325e-19 0.0197368 4.41546e-19 0.111037)
(0.228976 0.00601576 -1.02072e-19 0.0135566 1.49101e-19 0.0961282)
(0.20823 0.0166418 2.28719e-19 0.0205909 3.48252e-19 0.0906442)
(0.182136 0.0210038 2.6232e-19 0.0147462 -4.26432e-19 0.0778706)
(0.239378 -0.0142193 2.03512e-19 0.0184177 -5.20071e-19 0.102245)
(0.214534 0.00384967 -4.77149e-19 0.0136992 -4.80505e-20 0.0904199)
(0.198359 0.0155948 2.62901e-19 0.0193744 -9.33817e-19 0.0862202)
(0.178709 0.0220681 3.30813e-19 0.0149999 1.7036e-19 0.0766124)
(0.219311 -0.0165228 2.43721e-19 0.0179117 -2.29806e-19 0.0940274)
(0.199558 0.00183409 -1.77944e-20 0.0144283 9.97111e-19 0.084732)
(0.18719 0.0147916 -4.39882e-19 0.0189396 5.57353e-19 0.0815893)
(0.173074 0.0232578 1.55791e-19 0.0157623 -2.23311e-19 0.0746739)
(0.199763 -0.0188693 -7.57349e-19 0.0182416 7.61501e-19 0.08635)
(0.183852 -0.000139182 9.46041e-19 0.0157869 -1.37255e-19 0.079003)
(0.174604 0.014235 3.35318e-19 0.0193154 -1.149e-18 0.0767153)
(0.165431 0.0246047 7.56511e-20 0.0171034 -6.47359e-19 0.0721627)
(0.180948 -0.0214113 6.7365e-19 0.0195748 -5.387e-19 0.0793668)
(0.167358 -0.00225749 -1.36551e-19 0.0180185 1.41436e-18 0.0733075)
(0.160616 0.0139936 -9.03078e-19 0.0207359 -1.31944e-18 0.0716977)
(0.156251 0.0262129 2.12093e-19 0.0192289 8.48797e-19 0.0693502)
(0.16286 -0.0243594 -1.33971e-19 0.0220882 5.60016e-19 0.0731454)
(0.149034 -0.0047474 -4.03164e-19 0.0210539 6.22632e-19 0.0672006)
(0.144243 0.0141867 9.63879e-19 0.0231232 -4.56872e-20 0.0661116)
(0.145729 0.0282449 -4.82181e-19 0.0223446 -2.35206e-19 0.0663959)
(0.147231 -0.0280833 -2.17509e-20 0.0266115 1.14251e-19 0.0687108)
(0.129374 -0.0078951 8.15168e-19 0.0256731 -1.79162e-18 0.0611918)
(0.126068 0.0150395 2.09753e-19 0.0272561 1.17669e-18 0.0605027)
(0.135829 0.0310566 2.78699e-20 0.0272976 1.26816e-19 0.0644247)
(0.132516 -0.0320606 1.69404e-21 0.0326978 1.29857e-19 0.0652664)
(0.10323 -0.0111602 2.41758e-19 0.0284116 -5.40126e-19 0.0518357)
(0.101007 0.0160427 7.06211e-20 0.0296681 1.92154e-19 0.0514492)
(0.125135 0.034127 1.2515e-19 0.0336356 4.08238e-19 0.0626892)
(0.126302 -0.0339374 5.31166e-19 0.0383361 6.32149e-20 0.0650421)
(0.0820865 -0.0128696 1.40514e-20 0.0263322 5.68211e-19 0.0425518)
(0.0808208 0.0157351 -5.77568e-19 0.0275043 5.57734e-19 0.0425144)
(0.121924 0.035295 -6.96067e-19 0.0394169 -6.48737e-19 0.0637234)
(0.0992785 -0.0237705 6.2057e-20 0.0112655 2.18031e-19 0.0434071)
(0.0452904 -0.00912694 -8.39173e-20 -0.0262299 1.07706e-18 0.00681026)
(0.0447806 0.0105999 -2.88917e-19 -0.0247288 -1.00512e-19 0.00720673)
(0.0969144 0.02485 2.68459e-19 0.0126707 2.17585e-19 0.0430236)
)
;

boundaryField
{
    plateFix
    {
        type            calculated;
        value           nonuniform List<symmTensor> 4((6.14835 0.638886 -1.43476e-21 2.40728 6.56649e-20 3.42003) (1.41287 -0.617857 1.50222e-24 0.66905 5.11903e-23 0.8316) (-1.4549 -0.453977 7.53736e-23 -0.535144 -6.88106e-23 -0.797179) (-6.54392 1.08884 -1.06687e-21 -2.09794 -1.22713e-19 -3.45917));
    }
    plate
    {
        type            calculated;
        value           nonuniform List<symmTensor> 
168
(
(4.88114 0.0010424 -3.24834e-22 0.474184 -2.93853e-20 2.14005)
(-4.85094 -0.00201921 -8.02402e-23 0.482093 -3.56926e-20 -1.74977)
(5.08742 0.00112591 1.53964e-21 0.474937 1.20892e-20 2.22279)
(-5.09828 -0.00193037 1.49951e-21 0.482828 -3.52722e-21 -1.8485)
(5.30539 0.00158178 -3.23267e-21 0.47579 -8.5128e-21 2.31023)
(-5.37966 -0.00222253 -5.48595e-21 0.483669 7.86049e-21 -1.96083)
(5.38078 0.00236439 1.64035e-21 0.476598 1.94973e-20 2.34068)
(-5.48154 -0.00287058 4.39599e-21 0.484471 2.52104e-20 -2.00131)
(5.4156 0.00344532 -1.57597e-21 0.477275 1.06049e-20 2.35485)
(-5.53918 -0.00388091 -7.92847e-22 0.485147 -2.714e-20 -2.02413)
(5.40421 0.00472576 1.45643e-23 0.477751 -1.34869e-20 2.35048)
(-5.54187 -0.00513128 8.81973e-23 0.485626 -1.55331e-20 -2.02502)
(5.37099 0.00614084 -1.20551e-21 0.477991 -9.69289e-21 2.33728)
(-5.52047 -0.00655098 8.36466e-22 0.485874 2.20583e-20 -2.01637)
(5.32141 0.00762971 4.91939e-21 0.477981 -1.78439e-20 2.31745)
(-5.4803 -0.00806887 -1.36917e-21 0.485877 4.35761e-21 -2.00029)
(5.2624 0.00915099 -5.38713e-21 0.47772 3.54115e-20 2.29375)
(-5.42924 -0.00963773 -3.77308e-21 0.485632 1.0147e-20 -1.97996)
(5.19662 0.0106751 6.80272e-21 0.477209 -9.00811e-21 2.26725)
(-5.3697 -0.0112229 1.24901e-20 0.485143 -2.09157e-20 -1.95633)
(5.1259 0.0121839 -3.28396e-21 0.476455 6.90022e-21 2.23867)
(-5.30342 -0.0128028 -8.78091e-21 0.484414 -8.28182e-21 -1.93009)
(5.05088 0.0136674 -9.93202e-21 0.475456 -2.86712e-21 2.20828)
(-5.23084 -0.0143646 -3.68072e-21 0.483446 1.55269e-20 -1.90142)
(4.9718 0.0151214 1.99571e-20 0.474209 7.81588e-21 2.17616)
(-5.1521 -0.0159022 2.97958e-21 0.482236 -1.03074e-21 -1.87039)
(4.88853 0.0165453 -1.62707e-20 0.472702 -1.539e-23 2.14227)
(-5.06712 -0.0174134 -1.45635e-21 0.480772 6.32404e-21 -1.83696)
(4.80086 0.0179401 -9.4203e-21 0.470915 4.03403e-21 2.10651)
(-4.97575 -0.018898 6.70348e-21 0.479036 -4.37978e-21 -1.80108)
(4.70847 0.0193063 1.34583e-20 0.468821 -1.53246e-20 2.06874)
(-4.87781 -0.0203556 1.26427e-20 0.477002 6.84115e-21 -1.76269)
(4.61107 0.0206426 -1.286e-20 0.466384 7.34257e-21 2.02883)
(-4.77313 -0.0217843 -3.39739e-22 0.474636 -2.3047e-21 -1.72173)
(4.50836 0.0219444 5.57223e-20 0.463562 -7.44198e-21 1.98664)
(-4.66152 -0.0231787 -1.76945e-20 0.471896 1.43145e-20 -1.67816)
(4.40013 0.0232049 -5.08069e-20 0.46031 -5.33928e-22 1.94208)
(-4.54282 -0.0245317 -3.36149e-21 0.468741 4.44504e-21 -1.6319)
(4.28612 0.0244054 -7.19049e-20 0.456562 3.49262e-21 1.895)
(-4.41684 -0.0258241 4.72782e-20 0.465106 -5.23435e-21 -1.58292)
(4.16638 0.0255462 7.66913e-20 0.452322 6.22896e-21 1.84544)
(-4.28346 -0.0270555 -3.1607e-20 0.460995 -4.69544e-21 -1.53118)
(4.04039 0.0265507 1.17936e-20 0.447382 -1.47051e-20 1.79311)
(-4.1425 -0.0281514 -2.89115e-20 0.456205 5.7307e-21 -1.47667)
(3.90439 0.0276674 -1.7586e-20 0.442003 -3.14191e-21 1.73659)
(-3.98872 -0.0293538 5.56382e-20 0.450987 -1.47878e-21 -1.41719)
(3.76256 0.0287854 -6.41064e-20 0.435361 2.02049e-21 1.67724)
(-3.8276 -0.0305431 -1.75171e-19 0.444549 3.31726e-21 -1.35528)
(3.62399 0.0297013 -3.55306e-20 0.428675 -7.37648e-21 1.61917)
(-3.66866 -0.031522 1.03258e-19 0.438064 -7.26881e-21 -1.29425)
(3.48853 0.0305306 1.66214e-19 0.421456 1.01014e-20 1.56214)
(-3.51252 -0.0323995 -1.32441e-20 0.431061 -5.98297e-22 -1.23455)
(3.35631 0.0312293 3.66422e-20 0.414015 5.18479e-21 1.50631)
(-3.35891 -0.033135 -6.70279e-20 0.423837 3.37961e-21 -1.17595)
(3.22722 0.0318434 -4.89078e-21 0.406174 -1.30596e-20 1.45156)
(-3.20805 -0.0337733 -9.02756e-20 0.416222 2.70519e-20 -1.11861)
(3.10134 0.032356 1.5283e-19 0.398044 2.43128e-21 1.39799)
(-3.05991 -0.0342992 9.37639e-20 0.408319 -1.06113e-20 -1.06247)
(2.97862 0.0327843 -1.9974e-19 0.389572 -6.59669e-21 1.34555)
(-2.91459 -0.0347299 7.29364e-21 0.400076 2.16068e-20 -1.0076)
(2.85908 0.0331237 -6.7801e-20 0.380796 -7.3344e-21 1.29425)
(-2.7721 -0.0350617 -9.54276e-21 0.391529 2.1537e-21 -0.95399)
(2.7427 0.0333801 -1.02287e-19 0.371705 -1.45923e-20 1.24409)
(-2.6325 -0.035301 4.92686e-20 0.382665 -1.1812e-21 -0.901658)
(2.62946 0.0335523 -1.88372e-19 0.362315 9.65871e-22 1.19506)
(-2.49581 -0.0354471 -6.37055e-20 0.3735 9.20585e-22 -0.850613)
(2.51933 0.0336419 1.2154e-19 0.352632 -9.70264e-21 1.14717)
(-2.36206 -0.0355023 -2.43967e-19 0.364035 -2.22463e-21 -0.800867)
(2.41229 0.0336481 -2.97247e-20 0.342668 -1.99607e-21 1.10039)
(-2.23129 -0.0354662 7.15264e-20 0.354282 9.44623e-23 -0.752426)
(2.30831 0.0335705 2.96037e-19 0.332432 1.29195e-20 1.05473)
(-2.10352 -0.0353392 -1.58459e-19 0.34425 1.37754e-20 -0.705301)
(2.20735 0.0334082 -8.8198e-20 0.321942 -1.30021e-21 1.01017)
(-1.97878 -0.0351209 5.58228e-20 0.333951 -1.26526e-20 -0.659495)
(2.10937 0.03316 -1.75801e-19 0.31121 -9.13751e-22 0.966713)
(-1.85711 -0.0348106 1.39716e-19 0.3234 -1.22581e-20 -0.615017)
(2.01433 0.0328246 -7.68238e-21 0.300258 1.03589e-21 0.924341)
(-1.73853 -0.0344077 -2.33909e-20 0.312613 -1.06328e-21 -0.571871)
(1.9222 0.0324008 2.47596e-19 0.289104 -1.26074e-22 0.883047)
(-1.62307 -0.0339115 -2.50316e-19 0.301609 5.24987e-22 -0.530061)
(1.83291 0.0318872 -7.4043e-20 0.277771 7.74913e-21 0.842824)
(-1.51077 -0.0333213 -7.71561e-20 0.29041 -2.79024e-22 -0.489594)
(1.74644 0.0312828 -8.74316e-20 0.266286 6.65999e-21 0.803663)
(-1.40166 -0.0326366 1.88095e-19 0.27904 1.32317e-21 -0.450474)
(1.66273 0.0305867 9.33382e-20 0.254675 5.99157e-21 0.765559)
(-1.29579 -0.0318571 -2.31652e-19 0.267526 -1.56657e-21 -0.412706)
(1.58175 0.0297982 1.06522e-19 0.242969 4.38998e-22 0.728506)
(-1.19319 -0.0309828 -2.62933e-20 0.255894 -8.36971e-21 -0.376295)
(1.50345 0.028917 3.33308e-19 0.231199 -4.55156e-21 0.6925)
(-1.09392 -0.030014 2.00271e-20 0.244178 1.03057e-21 -0.341248)
(1.42779 0.0279435 -1.12874e-19 0.2194 -1.93763e-22 0.657539)
(-0.998016 -0.0289516 -2.64646e-19 0.232408 -1.01563e-20 -0.30757)
(1.35474 0.0268781 9.22887e-19 0.207607 3.42856e-21 0.623622)
(-0.905533 -0.0277968 3.93285e-19 0.220621 2.84136e-21 -0.275269)
(1.28426 0.0257222 -1.6894e-19 0.195856 -9.08987e-22 0.59075)
(-0.816526 -0.0265515 -2.40399e-19 0.208851 -6.21818e-21 -0.244351)
(1.21631 0.0244773 9.03938e-20 0.184187 1.56107e-21 0.558925)
(-0.731051 -0.0252178 -6.42996e-19 0.197137 -3.76804e-21 -0.214825)
(1.15087 0.0231458 2.18425e-19 0.172638 1.75292e-21 0.528151)
(-0.649165 -0.0237985 2.01232e-19 0.185517 2.7272e-22 -0.186698)
(1.08792 0.0217305 -2.7757e-19 0.161248 -3.47013e-21 0.498432)
(-0.570927 -0.0222971 2.36099e-19 0.174028 -2.8162e-21 -0.159977)
(1.02741 0.0202347 -4.97062e-19 0.150056 -4.5927e-21 0.469775)
(-0.496393 -0.0207174 2.58288e-19 0.16271 7.4382e-22 -0.13467)
(0.969345 0.0186623 3.1694e-19 0.139102 2.10416e-21 0.442185)
(-0.425621 -0.0190636 2.85336e-19 0.151602 -1.54442e-21 -0.110785)
(0.913685 0.0170175 1.06642e-19 0.128423 -5.01236e-21 0.415668)
(-0.358663 -0.0173406 -4.12133e-19 0.14074 -5.10676e-21 -0.0883277)
(0.860412 0.0153053 -2.63709e-20 0.118056 1.82183e-22 0.390231)
(-0.295569 -0.0155535 7.07901e-20 0.130163 6.04893e-22 -0.0673027)
(0.809504 0.0135307 -1.3175e-19 0.108038 -3.96616e-21 0.365879)
(-0.236384 -0.0137077 5.25318e-20 0.119906 6.07894e-22 -0.0477139)
(0.760937 0.0116991 -3.33438e-19 0.0984013 -1.19703e-21 0.342616)
(-0.181145 -0.0118089 4.46354e-19 0.110003 1.66039e-21 -0.0295626)
(0.714685 0.00981619 -9.48225e-20 0.0891782 -7.94994e-22 0.320443)
(-0.129883 -0.00986298 -6.98658e-19 0.100485 -3.14004e-21 -0.0128479)
(0.670716 0.0078878 1.75785e-19 0.0803979 9.02379e-22 0.29936)
(-0.0826162 -0.00787597 5.88249e-19 0.0913836 2.69908e-21 0.00243426)
(0.628996 0.00591975 -1.95292e-19 0.0720872 -3.54432e-21 0.279365)
(-0.0393548 -0.00585382 -6.0689e-19 0.0827259 -2.79496e-21 0.0162914)