/*--------------------------------*- C++ -*----------------------------------*\
| =========                 |                                                 |
| \\      /  F ield         | OpenFOAM Extend Project: Open source CFD        |
|  \\    /   O peration     | Version:  1.6-ext                               |
|   \\  /    A nd           | Web:      www.extend-project.de                 |
|    \\/     M anipulation  |                                                 |
\*---------------------------------------------------------------------------*/
FoamFile
{
    version     2.0;
    format      ascii;
    class       volScalarField;
    location    "1.1";
    object      sigmaEq;
}
// * * * * * * * * * * * * * * * * * * * * * * * * * * * * * * * * * * * * * //

dimensions      [1 -1 -2 0 0 0 0];

internalField   nonuniform List<scalar> 
328
(
3.48735
1.00688
0.99143
4.234
3.73182
1.03534
1.3983
4.49898
3.96769
1.1769
1.79658
4.7949
4.07229
1.26182
2.02636
4.93953
4.1242
1.30623
2.16559
5.025
4.1265
1.31276
2.22999
5.04915
4.10349
1.30078
2.25373
5.0417
4.06341
1.27891
2.25085
5.0121
4.01398
1.25392
2.23375
4.96983
3.95853
1.22848
2.20836
4.9188
3.89909
1.20378
2.1787
4.8614
3.83642
1.17985
2.14664
4.7985
3.77075
1.15635
2.11318
4.73041
3.702
1.13282
2.07861
4.65709
3.62993
1.10888
2.04288
4.5784
3.55429
1.08423
2.00575
4.49411
3.47482
1.05868
1.96689
4.40403
3.3913
1.03213
1.92593
4.30791
3.30355
1.00451
1.88254
4.20554
3.21143
0.975809
1.83641
4.0967
3.11496
0.946077
1.78729
3.98126
3.01388
0.915248
1.73494
3.85892
2.90475
0.881641
1.67685
3.72528
2.79183
0.848748
1.61574
3.58448
2.68179
0.817421
1.55515
3.44551
2.57481
0.787491
1.49492
3.30846
2.47074
0.758859
1.43509
3.17333
2.36962
0.731509
1.37568
3.04016
2.27144
0.705413
1.31673
2.90902
2.1762
0.68055
1.25827
2.77994
2.08388
0.656894
1.20036
2.65297
1.99445
0.634416
1.14301
2.52814
1.90791
0.613086
1.08627
2.40549
1.82421
0.59287
1.03017
2.28505
1.74333
0.573731
0.974758
2.16685
1.66522
0.555632
0.920069
2.05093
1.58985
0.538531
0.866151
1.93733
1.51715
0.522386
0.813052
1.82607
1.4471
0.50715
0.760826
1.71721
1.37961
0.492779
0.709532
1.61079
1.31465
0.479221
0.659234
1.50686
1.25214
0.466428
0.610003
1.40546
1.19203
0.454348
0.561917
1.30666
1.13425
0.442928
0.515064
1.21052
1.07873
0.432116
0.469539
1.1171
1.02542
0.421859
0.425455
1.02647
0.97425
0.412105
0.382936
0.938708
0.925154
0.4028
0.342133
0.853895
0.878075
0.393894
0.303226
0.772111
0.832954
0.385336
0.26644
0.693438
0.789734
0.377077
0.232069
0.617961
0.74836
0.36907
0.200504
0.545768
0.708782
0.361269
0.172283
0.476942
0.670948
0.353629
0.14814
0.41157
0.634811
0.34611
0.129015
0.349736
0.600324
0.33867
0.115908
0.291527
0.567441
0.331272
0.109438
0.237033
0.536119
0.323879
0.109288
0.186365
0.506311
0.316456
0.11412
0.139684
0.477971
0.308969
0.122153
0.0973155
0.45105
0.301386
0.131773
0.0602182
0.425494
0.293673
0.141785
0.0328161
0.401246
0.285798
0.151382
0.0317012
0.37824
0.277724
0.160034
0.0518013
0.3564
0.269416
0.167406
0.0740202
0.335642
0.260831
0.17328
0.0940991
0.315869
0.251924
0.177526
0.111216
0.296972
0.242646
0.180068
0.1252
0.27883
0.232939
0.180869
0.136068
0.261311
0.222743
0.179922
0.143919
0.244279
0.211991
0.177237
0.148892
0.227594
0.200612
0.172834
0.151149
0.211128
0.188533
0.16674
0.150868
0.194767
0.175661
0.158962
0.148227
0.178451
0.161896
0.149495
0.143433
0.162153
0.14703
0.138216
0.136682
0.146092
0.130834
0.12499
0.128378
0.130446
0.112562
0.109156
0.118837
0.116659
0.0922994
0.0908988
0.109643
0.104198
0.0690473
0.0691516
0.100259
0.0977611
0.0544443
0.0548675
0.0955513
0.0874391
0.0639818
0.0629976
0.0855209
)
;

boundaryField
{
    plateFix
    {
        type            calculated;
        value           nonuniform List<scalar> 4(3.52945 1.2665 1.13661 4.37315);
    }
    plate
    {
        type            calculated;
        value           nonuniform List<scalar> 
168
(
3.85421
4.63895
4.03337
4.85515
4.22263
5.10111
4.28766
5.19059
4.31744
5.24141
4.30712
5.24416
4.27797
5.22573
4.23477
5.19072
4.18357
5.14601
4.12668
5.09372
4.06569
5.03533
4.00117
4.97126
3.93331
4.90162
3.86203
4.82632
3.78715
4.74522
3.70842
4.65815
3.62562
4.56492
3.53851
4.46534
3.44696
4.35921
3.35079
4.24634
3.25005
4.12663
3.14446
3.99972
3.03052
3.86128
2.91256
3.71542
2.79749
3.57141
2.68558
3.4294
2.57668
3.2894
2.47085
3.15148
2.36806
3.01568
2.26831
2.88205
2.17159
2.75063
2.07788
2.62145
1.98716
2.49455
1.89941
2.36997
1.81458
2.24773
1.73263
2.12787
1.65354
2.01042
1.57723
1.89543
1.50368
1.78293
1.43281
1.67296
1.36457
1.56558
1.29891
1.46084
1.23575
1.35879
1.17504
1.25949
1.11671
1.163
1.0607
1.06941
1.00694
0.978775
0.955374
0.891181
0.905941
0.806707
0.858584
0.725435
0.813244
0.647449
0.769869
0.572831
0.728406
0.501664
0.688805
0.434028
0.651017
0.369999
0.614996
0.309647
0.580693
0.253041
0.548063
0.200243
0.517058
0.151317
0.487629
0.106347
0.459723
0.0655192
0.433283
0.029776
0.408247
0.014882
0.384544
0.0390217
0.362095
0.0641445
0.340811
0.0861517
0.320591
0.104746
0.301324
0.119951
0.282888
0.131875
0.265154
0.140665
0.247986
0.146494
0.231254
0.149549
0.21484
0.150034
0.198642
0.148152
0.18262
0.144138
0.166762
0.138218
0.151288
0.130813
0.136315
0.122204
0.123133
0.113872
0.111347
0.105554
0.108492
0.105153
0.109799
0.0722145
0.063021
0.0617602
0.0701944
0.107661
)
;
    }
    frontAndBackPlanes
    {
        type            empty;
    }
}


// ************************************************************************* //
