/*--------------------------------*- C++ -*----------------------------------*\
| =========                 |                                                 |
| \\      /  F ield         | OpenFOAM Extend Project: Open source CFD        |
|  \\    /   O peration     | Version:  1.6-ext                               |
|   \\  /    A nd           | Web:      www.extend-project.de                 |
|    \\/     M anipulation  |                                                 |
\*---------------------------------------------------------------------------*/
FoamFile
{
    version     2.0;
    format      ascii;
    class       volVectorField;
    location    "1.1";
    object      Usolid;
}
// * * * * * * * * * * * * * * * * * * * * * * * * * * * * * * * * * * * * * //

dimensions      [0 1 0 0 0 0 0];

internalField   nonuniform List<vector> 
328
(
(1.36357e-07 1.2795e-07 0)
(2.90001e-08 -5.29802e-08 0)
(-3.29294e-08 -3.65565e-08 0)
(-1.54224e-07 2.06779e-07 0)
(4.22476e-07 3.44107e-07 0)
(9.87195e-08 -7.45736e-08 0)
(-1.16951e-07 -2.66419e-08 0)
(-4.75995e-07 5.46229e-07 0)
(7.53057e-07 5.5992e-07 0)
(1.92819e-07 -5.60961e-09 0)
(-2.42744e-07 7.20828e-08 0)
(-8.51738e-07 8.53722e-07 0)
(1.11339e-06 8.06304e-07 0)
(2.97964e-07 1.58724e-07 0)
(-3.90008e-07 2.62073e-07 0)
(-1.26199e-06 1.1654e-06 0)
(1.50524e-06 1.11333e-06 0)
(4.14248e-07 4.24195e-07 0)
(-5.59966e-07 5.48236e-07 0)
(-1.70972e-06 1.51777e-06 0)
(1.92546e-06 1.50781e-06 0)
(5.37916e-07 8.02268e-07 0)
(-7.4641e-07 9.41769e-07 0)
(-2.19104e-06 1.94253e-06 0)
(2.37417e-06 2.01548e-06 0)
(6.68654e-07 1.30773e-06 0)
(-9.48461e-07 1.45789e-06 0)
(-2.70651e-06 2.46941e-06 0)
(2.85123e-06 2.66192e-06 0)
(8.05824e-07 1.95972e-06 0)
(-1.16434e-06 2.11643e-06 0)
(-3.25613e-06 3.12701e-06 0)
(3.35729e-06 3.47409e-06 0)
(9.49716e-07 2.78125e-06 0)
(-1.39377e-06 2.94129e-06 0)
(-3.84094e-06 3.94461e-06 0)
(3.89316e-06 4.4814e-06 0)
(1.10066e-06 3.79969e-06 0)
(-1.63661e-06 3.9607e-06 0)
(-4.46208e-06 4.95335e-06 0)
(4.45987e-06 5.71676e-06 0)
(1.25916e-06 5.04693e-06 0)
(-1.89317e-06 5.20731e-06 0)
(-5.12094e-06 6.18745e-06 0)
(5.05852e-06 7.21745e-06 0)
(1.42569e-06 6.55984e-06 0)
(-2.16393e-06 6.71861e-06 0)
(-5.81891e-06 7.68508e-06 0)
(5.6902e-06 9.02595e-06 0)
(1.6007e-06 8.38077e-06 0)
(-2.44951e-06 8.5374e-06 0)
(-6.55738e-06 9.48933e-06 0)
(6.35596e-06 1.11906e-05 0)
(1.78453e-06 1.05582e-05 0)
(-2.75057e-06 1.07124e-05 0)
(-7.3377e-06 1.1649e-05 0)
(7.05674e-06 1.37667e-05 0)
(1.97745e-06 1.31472e-05 0)
(-3.06779e-06 1.32989e-05 0)
(-8.16107e-06 1.42193e-05 0)
(7.79337e-06 1.68166e-05 0)
(2.17965e-06 1.62106e-05 0)
(-3.40183e-06 1.63598e-05 0)
(-9.02859e-06 1.72629e-05 0)
(8.56646e-06 2.04115e-05 0)
(2.39123e-06 1.98194e-05 0)
(-3.75324e-06 1.9966e-05 0)
(-9.94117e-06 2.08508e-05 0)
(9.37643e-06 2.46316e-05 0)
(2.61221e-06 2.4054e-05 0)
(-4.12253e-06 2.41977e-05 0)
(-1.08995e-05 2.50631e-05 0)
(1.02234e-05 2.95672e-05 0)
(2.84251e-06 2.90047e-05 0)
(-4.51005e-06 2.91454e-05 0)
(-1.1904e-05 2.999e-05 0)
(1.11073e-05 3.53202e-05 0)
(3.082e-06 3.47732e-05 0)
(-4.91602e-06 3.49107e-05 0)
(-1.29549e-05 3.57333e-05 0)
(1.20276e-05 4.20045e-05 0)
(3.3304e-06 4.14738e-05 0)
(-5.34049e-06 4.16076e-05 0)
(-1.40517e-05 4.24066e-05 0)
(1.29834e-05 4.97477e-05 0)
(3.58739e-06 4.92337e-05 0)
(-5.78334e-06 4.93634e-05 0)
(-1.51939e-05 5.01374e-05 0)
(1.40111e-05 5.90325e-05 0)
(3.86256e-06 5.85365e-05 0)
(-6.2618e-06 5.86615e-05 0)
(-1.64254e-05 5.9408e-05 0)
(1.50677e-05 6.97604e-05 0)
(4.14412e-06 6.92829e-05 0)
(-6.75623e-06 6.94025e-05 0)
(-1.76955e-05 7.01198e-05 0)
(1.60817e-05 8.12472e-05 0)
(4.41314e-06 8.07874e-05 0)
(-7.23311e-06 8.09015e-05 0)
(-1.89179e-05 8.15898e-05 0)
(1.70543e-05 9.34631e-05 0)
(4.67006e-06 9.30203e-05 0)
(-7.69266e-06 9.31287e-05 0)
(-2.00935e-05 9.37883e-05 0)
(1.79864e-05 0.000106379 0)
(4.91529e-06 0.000105952 0)
(-8.13504e-06 0.000106055 0)
(-2.1223e-05 0.000106686 0)
(1.88789e-05 0.000119965 0)
(5.14924e-06 0.000119555 0)
(-8.56041e-06 0.000119651 0)
(-2.23073e-05 0.000120254 0)
(1.97329e-05 0.000134195 0)
(5.37235e-06 0.0001338 0)
(-8.96894e-06 0.00013389 0)
(-2.3347e-05 0.000134465 0)
(2.05494e-05 0.00014904 0)
(5.58503e-06 0.000148659 0)
(-9.36081e-06 0.000148743 0)
(-2.43429e-05 0.000149291 0)
(2.13294e-05 0.000164474 0)
(5.7877e-06 0.000164107 0)
(-9.73619e-06 0.000164184 0)
(-2.52957e-05 0.000164705 0)
(2.2074e-05 0.00018047 0)
(5.9808e-06 0.000180116 0)
(-1.00953e-05 0.000180187 0)
(-2.62064e-05 0.000180681 0)
(2.27842e-05 0.000197002 0)
(6.16474e-06 0.000196662 0)
(-1.04382e-05 0.000196726 0)
(-2.70756e-05 0.000197194 0)
(2.3461e-05 0.000214047 0)
(6.33994e-06 0.000213719 0)
(-1.07652e-05 0.000213776 0)
(-2.79042e-05 0.000214218 0)
(2.41054e-05 0.000231578 0)
(6.50683e-06 0.000231262 0)
(-1.10764e-05 0.000231312 0)
(-2.86929e-05 0.000231729 0)
(2.47185e-05 0.000249573 0)
(6.6658e-06 0.000249268 0)
(-1.13721e-05 0.000249311 0)
(-2.94425e-05 0.000249703 0)
(2.53012e-05 0.000268008 0)
(6.81726e-06 0.000267714 0)
(-1.16524e-05 0.00026775 0)
(-3.01539e-05 0.000268117 0)
(2.58545e-05 0.000286861 0)
(6.96161e-06 0.000286577 0)
(-1.19176e-05 0.000286606 0)
(-3.08278e-05 0.000286949 0)
(2.63795e-05 0.000306109 0)
(7.09922e-06 0.000305835 0)
(-1.21678e-05 0.000305857 0)
(-3.14651e-05 0.000306176 0)
(2.68771e-05 0.000325731 0)
(7.23046e-06 0.000325466 0)
(-1.24033e-05 0.000325482 0)
(-3.20667e-05 0.000325777 0)
(2.73482e-05 0.000345707 0)
(7.35569e-06 0.000345451 0)
(-1.26244e-05 0.000345459 0)
(-3.26333e-05 0.000345732 0)
(2.77938e-05 0.000366015 0)
(7.47525e-06 0.000365767 0)
(-1.28313e-05 0.000365769 0)
(-3.31658e-05 0.00036602 0)
(2.82148e-05 0.000386637 0)
(7.58945e-06 0.000386397 0)
(-1.30243e-05 0.000386392 0)
(-3.36651e-05 0.000386622 0)
(2.86122e-05 0.000407554 0)
(7.69861e-06 0.000407322 0)
(-1.32037e-05 0.00040731 0)
(-3.41321e-05 0.000407518 0)
(2.89867e-05 0.000428746 0)
(7.80302e-06 0.000428521 0)
(-1.33697e-05 0.000428503 0)
(-3.45676e-05 0.00042869 0)
(2.93393e-05 0.000450196 0)
(7.90294e-06 0.000449979 0)
(-1.35228e-05 0.000449954 0)
(-3.49727e-05 0.000450121 0)
(2.96708e-05 0.000471888 0)
(7.99863e-06 0.000471677 0)
(-1.36632e-05 0.000471645 0)
(-3.53483e-05 0.000471794 0)
(2.99821e-05 0.000493803 0)
(8.09032e-06 0.000493599 0)
(-1.37914e-05 0.000493561 0)
(-3.56952e-05 0.000493691 0)
(3.0274e-05 0.000515927 0)
(8.17821e-06 0.000515729 0)
(-1.39077e-05 0.000515685 0)
(-3.60146e-05 0.000515796 0)
(3.05472e-05 0.000538244 0)
(8.26249e-06 0.000538051 0)
(-1.40125e-05 0.000538002 0)
(-3.63075e-05 0.000538096 0)
(3.08025e-05 0.000560739 0)
(8.34334e-06 0.000560551 0)
(-1.41063e-05 0.000560496 0)
(-3.65749e-05 0.000560573 0)
(3.10407e-05 0.000583397 0)
(8.42091e-06 0.000583215 0)
(-1.41895e-05 0.000583155 0)
(-3.68178e-05 0.000583216 0)
(3.12626e-05 0.000606206 0)
(8.49533e-06 0.000606028 0)
(-1.42627e-05 0.000605963 0)
(-3.70375e-05 0.000606009 0)
(3.14688e-05 0.000629151 0)
(8.5667e-06 0.000628979 0)
(-1.43263e-05 0.000628909 0)
(-3.72349e-05 0.00062894 0)
(3.16602e-05 0.000652222 0)
(8.63513e-06 0.000652054 0)
(-1.43809e-05 0.000651979 0)
(-3.74113e-05 0.000651997 0)
(3.18373e-05 0.000675406 0)
(8.70068e-06 0.000675242 0)
(-1.4427e-05 0.000675163 0)
(-3.75678e-05 0.000675168 0)
(3.20008e-05 0.000698691 0)
(8.7634e-06 0.000698532 0)
(-1.44652e-05 0.000698449 0)
(-3.77056e-05 0.000698442 0)
(3.21515e-05 0.000722068 0)
(8.82335e-06 0.000721913 0)
(-1.4496e-05 0.000721827 0)
(-3.7826e-05 0.000721808 0)
(3.22899e-05 0.000745527 0)
(8.88054e-06 0.000745376 0)
(-1.45201e-05 0.000745286 0)
(-3.79302e-05 0.000745257 0)
(3.24168e-05 0.000769058 0)
(8.93497e-06 0.000768911 0)
(-1.45381e-05 0.000768818 0)
(-3.80194e-05 0.00076878 0)
(3.25326e-05 0.000792654 0)
(8.98664e-06 0.00079251 0)
(-1.45507e-05 0.000792415 0)
(-3.80948e-05 0.000792367 0)
(3.26381e-05 0.000816305 0)
(9.03553e-06 0.000816165 0)
(-1.45584e-05 0.000816068 0)
(-3.81578e-05 0.000816012 0)
(3.27337e-05 0.000840005 0)
(9.08158e-06 0.000839869 0)
(-1.45619e-05 0.000839769 0)
(-3.82096e-05 0.000839707 0)
(3.28201e-05 0.000863747 0)
(9.12475e-06 0.000863614 0)
(-1.45618e-05 0.000863514 0)
(-3.82514e-05 0.000863445 0)
(3.28976e-05 0.000887526 0)
(9.16497e-06 0.000887396 0)
(-1.45589e-05 0.000887294 0)
(-3.82845e-05 0.00088722 0)
(3.29669e-05 0.000911334 0)
(9.20215e-06 0.000911208 0)
(-1.45537e-05 0.000911105 0)
(-3.83101e-05 0.000911026 0)
(3.30283e-05 0.000935169 0)
(9.23618e-06 0.000935046 0)
(-1.45469e-05 0.000934943 0)
(-3.83294e-05 0.00093486 0)
(3.30823e-05 0.000959025 0)
(9.26695e-06 0.000958905 0)
(-1.45392e-05 0.000958802 0)
(-3.83436e-05 0.000958716 0)
(3.31292e-05 0.000982899 0)
(9.29432e-06 0.000982782 0)
(-1.45311e-05 0.00098268 0)
(-3.83537e-05 0.000982591 0)
(3.31693e-05 0.00100679 0)
(9.31815e-06 0.00100667 0)
(-1.45233e-05 0.00100657 0)
(-3.83608e-05 0.00100648 0)
(3.32028e-05 0.00103069 0)
(9.33824e-06 0.00103058 0)
(-1.45164e-05 0.00103048 0)
(-3.8366e-05 0.00103039 0)
(3.32301e-05 0.0010546 0)
(9.35443e-06 0.00105449 0)
(-1.45109e-05 0.00105439 0)
(-3.83702e-05 0.0010543 0)
(3.32511e-05 0.00107851 0)
(9.36649e-06 0.00107841 0)
(-1.45074e-05 0.00107831 0)
(-3.83743e-05 0.00107822 0)
(3.3266e-05 0.00110243 0)
(9.37421e-06 0.00110233 0)
(-1.45064e-05 0.00110224 0)
(-3.83792e-05 0.00110215 0)
(3.32749e-05 0.00112636 0)
(9.37731e-06 0.00112626 0)
(-1.45086e-05 0.00112617 0)
(-3.83856e-05 0.00112608 0)
(3.32778e-05 0.00115029 0)
(9.37552e-06 0.00115019 0)
(-1.45144e-05 0.00115011 0)
(-3.83943e-05 0.00115002 0)
(3.32746e-05 0.00117422 0)
(9.36843e-06 0.00117413 0)
(-1.45244e-05 0.00117404 0)
(-3.8406e-05 0.00117396 0)
(3.32654e-05 0.00119815 0)
(9.35561e-06 0.00119806 0)
(-1.45394e-05 0.00119798 0)
(-3.84212e-05 0.0011979 0)
(3.32501e-05 0.00122208 0)
(9.33606e-06 0.001222 0)
(-1.45604e-05 0.00122192 0)
(-3.84407e-05 0.00122185 0)
(3.32294e-05 0.00124601 0)
(9.30932e-06 0.00124593 0)
(-1.45881e-05 0.00124587 0)
(-3.8464e-05 0.00124579 0)
(3.32026e-05 0.00126994 0)
(9.27264e-06 0.00126987 0)
(-1.46255e-05 0.00126981 0)
(-3.84925e-05 0.00126974 0)
(3.31758e-05 0.00129389 0)
(9.23377e-06 0.00129381 0)
(-1.46646e-05 0.00129374 0)
(-3.852e-05 0.00129366 0)
)
;

boundaryField
{
    plateFix
    {
        type            fixedDisplacement;
        value           uniform (0 0 0);
    }
    plate
    {
        type            solidTraction;
        nonLinear       updatedLagrangian;
        traction        uniform (0 0 0);
        pressure        uniform 0;
        value           nonuniform List<vector> 
168
(
(7.15897e-07 5.47284e-07 -6.98484e-26)
(-1.08222e-06 7.60681e-07 -1.26526e-25)
(9.25029e-07 7.83841e-07 1.47168e-25)
(-1.23253e-06 1.12507e-06 -3.70444e-26)
(1.25322e-06 1.02137e-06 3.95672e-26)
(-1.52553e-06 1.46076e-06 1.27986e-25)
(1.67082e-06 1.27521e-06 -3.11396e-26)
(-1.9346e-06 1.78271e-06 5.90267e-26)
(2.16355e-06 1.58569e-06 -7.06226e-26)
(-2.44308e-06 2.14087e-06 -1.12009e-25)
(2.71459e-06 1.97904e-06 6.74353e-26)
(-3.02824e-06 2.5659e-06 1.55791e-26)
(3.31543e-06 2.48345e-06 -9.66534e-26)
(-3.67827e-06 3.0906e-06 1.97364e-26)
(3.9605e-06 3.12504e-06 3.51341e-26)
(-4.38487e-06 3.74409e-06 -5.02427e-26)
(4.64763e-06 3.93148e-06 -7.58625e-26)
(-5.14422e-06 4.55645e-06 9.70273e-26)
(5.37632e-06 4.93243e-06 9.67841e-26)
(-5.9547e-06 5.55905e-06 -8.22864e-26)
(6.14728e-06 6.16099e-06 -6.73294e-26)
(-6.81628e-06 6.78627e-06 8.13686e-27)
(6.96173e-06 7.65453e-06 7.74632e-26)
(-7.72978e-06 8.27635e-06 3.13682e-26)
(7.82116e-06 9.45551e-06 -5.7126e-26)
(-8.69645e-06 1.00724e-05 1.56076e-26)
(8.72705e-06 1.16123e-05 -3.21784e-27)
(-9.71771e-06 1.22231e-05 -3.51025e-26)
(9.68079e-06 1.41801e-05 8.64301e-27)
(-1.0795e-05 1.47838e-05 8.00248e-27)
(1.06835e-05 1.72215e-05 1.44221e-26)
(-1.19296e-05 1.7817e-05 -1.14222e-26)
(1.17362e-05 2.08074e-05 2.91286e-26)
(-1.31228e-05 2.13938e-05 2.0441e-26)
(1.28395e-05 2.50179e-05 -9.60232e-27)
(-1.43752e-05 2.55942e-05 -5.72987e-26)
(1.39935e-05 2.99437e-05 -1.59599e-26)
(-1.56876e-05 3.05084e-05 5.15522e-26)
(1.51982e-05 3.56864e-05 3.24203e-27)
(-1.70599e-05 3.6238e-05 7.57598e-27)
(1.64528e-05 4.23599e-05 -3.45174e-27)
(-1.84918e-05 4.28969e-05 4.02864e-27)
(1.77564e-05 5.00918e-05 1.92035e-26)
(-1.99823e-05 5.06123e-05 6.78617e-27)
(1.91578e-05 5.93646e-05 -9.12637e-27)
(-2.15882e-05 5.98661e-05 -1.5718e-26)
(2.06003e-05 7.00801e-05 1.76713e-26)
(-2.32448e-05 7.056e-05 3.28967e-26)
(2.19854e-05 8.15549e-05 -5.03925e-26)
(-2.48387e-05 8.20125e-05 -5.0409e-26)
(2.33142e-05 9.37591e-05 4.56576e-26)
(-2.63711e-05 9.41935e-05 1.08895e-26)
(2.45881e-05 0.000106663 3.34448e-26)
(-2.78429e-05 0.000107074 -5.79365e-26)
(2.58083e-05 0.000120239 -5.32135e-26)
(-2.92552e-05 0.000120625 1.21888e-25)
(2.69762e-05 0.000134458 5.09666e-26)
(-3.0609e-05 0.000134819 -2.67309e-26)
(2.8093e-05 0.000149293 -4.38949e-26)
(-3.19055e-05 0.000149628 3.0355e-26)
(2.91602e-05 0.000164717 -4.19212e-27)
(-3.31457e-05 0.000165026 1.53981e-26)
(3.0179e-05 0.000180704 1.45587e-26)
(-3.43307e-05 0.000180986 -5.43809e-26)
(3.11507e-05 0.000197228 -3.72911e-26)
(-3.54616e-05 0.000197483 -2.12847e-26)
(3.20767e-05 0.000214263 -2.0213e-26)
(-3.65394e-05 0.000214491 -6.0649e-26)
(3.29584e-05 0.000231786 -2.52587e-26)
(-3.75653e-05 0.000231987 -6.44782e-27)
(3.3797e-05 0.000249773 1.99063e-26)
(-3.85404e-05 0.000249946 9.52025e-26)
(3.45938e-05 0.000268201 1.44313e-25)
(-3.94658e-05 0.000268346 2.28142e-26)
(3.53501e-05 0.000287046 -1.78429e-26)
(-4.03426e-05 0.000287163 1.1591e-25)
(3.60673e-05 0.000306287 -7.04449e-26)
(-4.11719e-05 0.000306376 -1.5716e-25)
(3.67466e-05 0.000325902 1.44338e-25)
(-4.19548e-05 0.000325964 9.56762e-26)
(3.73893e-05 0.000345871 5.08709e-26)
(-4.26926e-05 0.000345905 -1.4991e-26)
(3.79965e-05 0.000366173 -2.15623e-25)
(-4.33863e-05 0.000366179 -7.64389e-26)
(3.85695e-05 0.000386789 7.37906e-26)
(-4.40372e-05 0.000386768 -7.55975e-26)
(3.91096e-05 0.0004077 -1.27878e-25)
(-4.46463e-05 0.000407652 -5.92298e-26)
(3.96178e-05 0.000428886 -4.27197e-26)
(-4.5215e-05 0.000428812 1.99439e-25)
(4.00955e-05 0.000450331 9.20558e-26)
(-4.57444e-05 0.000450231 5.31389e-27)
(4.05436e-05 0.000472018 -5.58965e-26)
(-4.62358e-05 0.000471892 -1.17218e-25)
(4.09633e-05 0.000493929 -1.74814e-26)
(-4.66905e-05 0.000493778 -1.41567e-25)
(4.13559e-05 0.000516048 -6.78698e-28)
(-4.71097e-05 0.000515873 -1.2882e-25)
(4.17222e-05 0.00053836 2.60242e-26)
(-4.74948e-05 0.000538162 -1.41717e-25)
(4.20635e-05 0.000560851 -1.55249e-25)
(-4.78472e-05 0.00056063 3.05362e-25)
(4.23808e-05 0.000583505 -1.00721e-25)
(-4.81681e-05 0.000583263 -1.68279e-26)
(4.26751e-05 0.00060631 1.36101e-25)
(-4.84591e-05 0.000606047 3.28722e-25)
(4.29475e-05 0.000629252 -2.05609e-25)
(-4.87216e-05 0.00062897 -1.18168e-25)
(4.3199e-05 0.000652319 4.13581e-26)
(-4.8957e-05 0.000652018 1.731e-25)
(4.34307e-05 0.000675499 2.52809e-26)
(-4.91668e-05 0.000675182 -3.37166e-25)
(4.36434e-05 0.000698781 -6.8216e-25)
(-4.93526e-05 0.000698448 1.03421e-25)
(4.38382e-05 0.000722155 2.08063e-25)
(-4.95158e-05 0.000721808 -1.38171e-25)
(4.40161e-05 0.000745611 -2.07355e-25)
(-4.9658e-05 0.000745251 5.40222e-25)
(4.41779e-05 0.00076914 2.96318e-25)
(-4.97808e-05 0.000768767 -3.7795e-25)
(4.43247e-05 0.000792732 -5.79527e-26)
(-4.98858e-05 0.00079235 -1.50075e-25)
(4.44573e-05 0.000816381 1.54047e-25)
(-4.99746e-05 0.00081599 7.60791e-26)
(4.45766e-05 0.000840079 2.62174e-25)
(-5.00486e-05 0.00083968 -1.68139e-25)
(4.46834e-05 0.000863818 -8.84101e-26)
(-5.01095e-05 0.000863414 -2.68349e-25)
(4.47787e-05 0.000887594 -3.26468e-25)
(-5.01588e-05 0.000887186 6.31053e-25)
(4.4863e-05 0.000911401 5.7887e-27)
(-5.0198e-05 0.00091099 -3.72064e-26)
(4.49372e-05 0.000935234 1.85512e-25)
(-5.02286e-05 0.000934821 2.20037e-25)
(4.5002e-05 0.000959088 -3.30782e-25)
(-5.0252e-05 0.000958675 3.67821e-25)
(4.50579e-05 0.000982959 6.70983e-25)
(-5.02696e-05 0.000982549 3.28943e-25)
(4.51055e-05 0.00100685 -7.40942e-25)
(-5.02828e-05 0.00100644 1.90874e-25)
(4.51453e-05 0.00103074 1.65525e-25)
(-5.02926e-05 0.00103034 -2.70137e-25)
(4.51776e-05 0.00105465 1.59549e-25)
(-5.03004e-05 0.00105425 -8.06251e-25)
(4.52028e-05 0.00107856 4.39128e-25)
(-5.03072e-05 0.00107818 4.24499e-25)
(4.52212e-05 0.00110248 -5.24528e-25)
(-5.0314e-05 0.0011021 -1.69535e-25)
(4.52328e-05 0.00112641 -2.19019e-25)
(-5.03216e-05 0.00112604 2.2559e-25)
(4.52378e-05 0.00115033 7.48482e-25)
(-5.0331e-05 0.00114998 6.51509e-25)
(4.52362e-05 0.00117426 -5.35585e-25)
(-5.03429e-05 0.00117392 -8.46744e-25)
(4.52282e-05 0.00119819 5.5847e-25)
(-5.0358e-05 0.00119786 2.2971e-25)
(4.52139e-05 0.00122212 1.19736e-25)
(-5.03768e-05 0.00122181 -1.28321e-25)
(4.51953e-05 0.00124604 1.28383e-25)
(-5.0398e-05 0.00124576 -4.09656e-25)
(4.51758e-05 0.00126997 6.00568e-26)
(-5.04189e-05 0.0012697 6.45312e-25)
(4.51714e-05 0.00129392 2.18649e-25)
(3.31595e-05 0.00130589 -6.30851e-26)
(9.21492e-06 0.00130579 7.86164e-26)
(-1.46836e-05 0.0013057 2.89827e-25)
(-3.85363e-05 0.00130559 -2.69742e-25)
(-5.04238e-05 0.00129363 -2.15516e-25)
)
;
    }
    frontAndBackPlanes
    {
        type            empty;
    }
}


// ************************************************************************* //
