/*--------------------------------*- C++ -*----------------------------------*\
| =========                 |                                                 |
| \\      /  F ield         | OpenFOAM Extend Project: Open source CFD        |
|  \\    /   O peration     | Version:  1.6-ext                               |
|   \\  /    A nd           | Web:      www.extend-project.de                 |
|    \\/     M anipulation  |                                                 |
\*---------------------------------------------------------------------------*/
FoamFile
{
    version     2.0;
    format      ascii;
    class       volScalarField::DimensionedInternalField;
    location    "1.1";
    object      V0;
}
// * * * * * * * * * * * * * * * * * * * * * * * * * * * * * * * * * * * * * //

dimensions      [0 3 0 0 0 0 0];

value           nonuniform List<scalar> 
328
(
2.53365e-07
2.53356e-07
2.5332e-07
2.5332e-07
2.71731e-07
2.71721e-07
2.71693e-07
2.71696e-07
2.9144e-07
2.91419e-07
2.91396e-07
2.91386e-07
3.12575e-07
3.12547e-07
3.12526e-07
3.12506e-07
3.3524e-07
3.35207e-07
3.35188e-07
3.3516e-07
3.59548e-07
3.5951e-07
3.59492e-07
3.59457e-07
3.85618e-07
3.85576e-07
3.85557e-07
3.85518e-07
4.13576e-07
4.13532e-07
4.13512e-07
4.13469e-07
4.43562e-07
4.43514e-07
4.43494e-07
4.43448e-07
4.75722e-07
4.75671e-07
4.7565e-07
4.756e-07
5.10213e-07
5.10159e-07
5.10137e-07
5.10084e-07
5.47204e-07
5.47148e-07
5.47124e-07
5.47068e-07
5.86878e-07
5.86819e-07
5.86793e-07
5.86734e-07
6.29428e-07
6.29365e-07
6.29339e-07
6.29276e-07
6.75063e-07
6.74997e-07
6.74969e-07
6.74903e-07
7.24006e-07
7.23937e-07
7.23907e-07
7.23838e-07
7.76498e-07
7.76425e-07
7.76394e-07
7.76321e-07
8.32796e-07
8.32719e-07
8.32687e-07
8.3261e-07
8.93175e-07
8.93095e-07
8.93061e-07
8.92981e-07
9.57931e-07
9.57848e-07
9.57812e-07
9.57729e-07
1.02738e-06
1.0273e-06
1.02726e-06
1.02717e-06
1.10187e-06
1.10178e-06
1.10174e-06
1.10165e-06
1.26882e-06
1.26873e-06
1.26868e-06
1.26858e-06
1.26882e-06
1.26872e-06
1.26868e-06
1.26859e-06
1.26882e-06
1.26872e-06
1.26868e-06
1.26859e-06
1.26881e-06
1.26872e-06
1.26868e-06
1.2686e-06
1.26881e-06
1.26872e-06
1.26869e-06
1.2686e-06
1.2688e-06
1.26872e-06
1.26869e-06
1.26861e-06
1.2688e-06
1.26872e-06
1.26869e-06
1.26861e-06
1.26879e-06
1.26872e-06
1.26869e-06
1.26861e-06
1.26879e-06
1.26872e-06
1.26869e-06
1.26862e-06
1.26879e-06
1.26872e-06
1.26869e-06
1.26862e-06
1.26878e-06
1.26872e-06
1.26869e-06
1.26863e-06
1.26878e-06
1.26872e-06
1.26869e-06
1.26863e-06
1.26878e-06
1.26872e-06
1.26869e-06
1.26863e-06
1.26877e-06
1.26872e-06
1.26869e-06
1.26864e-06
1.26877e-06
1.26872e-06
1.26869e-06
1.26864e-06
1.26877e-06
1.26872e-06
1.26869e-06
1.26864e-06
1.26876e-06
1.26871e-06
1.26869e-06
1.26865e-06
1.26876e-06
1.26871e-06
1.2687e-06
1.26865e-06
1.26876e-06
1.26871e-06
1.2687e-06
1.26865e-06
1.26875e-06
1.26871e-06
1.2687e-06
1.26866e-06
1.26875e-06
1.26871e-06
1.2687e-06
1.26866e-06
1.26875e-06
1.26871e-06
1.2687e-06
1.26866e-06
1.26874e-06
1.26871e-06
1.2687e-06
1.26866e-06
1.26874e-06
1.26871e-06
1.2687e-06
1.26867e-06
1.26874e-06
1.26871e-06
1.2687e-06
1.26867e-06
1.26874e-06
1.26871e-06
1.2687e-06
1.26867e-06
1.26873e-06
1.26871e-06
1.2687e-06
1.26867e-06
1.26873e-06
1.26871e-06
1.2687e-06
1.26868e-06
1.26873e-06
1.26871e-06
1.2687e-06
1.26868e-06
1.26873e-06
1.26871e-06
1.2687e-06
1.26868e-06
1.26873e-06
1.26871e-06
1.2687e-06
1.26868e-06
1.26872e-06
1.26871e-06
1.2687e-06
1.26868e-06
1.26872e-06
1.26871e-06
1.2687e-06
1.26869e-06
1.26872e-06
1.26871e-06
1.2687e-06
1.26869e-06
1.26872e-06
1.26871e-06
1.2687e-06
1.26869e-06
1.26872e-06
1.26871e-06
1.2687e-06
1.26869e-06
1.26871e-06
1.2687e-06
1.2687e-06
1.26869e-06
1.26871e-06
1.2687e-06
1.2687e-06
1.26869e-06
1.26871e-06
1.2687e-06
1.2687e-06
1.26869e-06
1.26871e-06
1.2687e-06
1.2687e-06
1.26869e-06
1.26871e-06
1.2687e-06
1.2687e-06
1.2687e-06
1.26871e-06
1.2687e-06
1.2687e-06
1.2687e-06
1.26871e-06
1.2687e-06
1.2687e-06
1.2687e-06
1.26871e-06
1.2687e-06
1.2687e-06
1.2687e-06
1.2687e-06
1.2687e-06
1.2687e-06
1.2687e-06
1.2687e-06
1.2687e-06
1.2687e-06
1.2687e-06
1.2687e-06
1.2687e-06
1.2687e-06
1.2687e-06
1.2687e-06
1.2687e-06
1.2687e-06
1.2687e-06
1.2687e-06
1.2687e-06
1.2687e-06
1.2687e-06
1.2687e-06
1.2687e-06
1.2687e-06
1.2687e-06
1.2687e-06
1.2687e-06
1.2687e-06
1.2687e-06
1.2687e-06
1.2687e-06
1.2687e-06
1.2687e-06
1.2687e-06
1.2687e-06
1.2687e-06
1.2687e-06
1.2687e-06
1.2687e-06
1.2687e-06
1.2687e-06
1.2687e-06
1.2687e-06
1.2687e-06
1.2687e-06
1.2687e-06
1.2687e-06
1.2687e-06
1.2687e-06
1.2687e-06
1.2687e-06
1.2687e-06
1.2687e-06
1.2687e-06
1.2687e-06
1.2687e-06
1.2687e-06
1.2687e-06
1.2687e-06
1.2687e-06
1.2687e-06
1.26869e-06
1.26869e-06
1.26869e-06
1.26869e-06
)
;


// ************************************************************************* //
