/*--------------------------------*- C++ -*----------------------------------*\
| =========                 |                                                 |
| \\      /  F ield         | OpenFOAM Extend Project: Open source CFD        |
|  \\    /   O peration     | Version:  1.6-ext                               |
|   \\  /    A nd           | Web:      www.extend-project.de                 |
|    \\/     M anipulation  |                                                 |
\*---------------------------------------------------------------------------*/
FoamFile
{
    version     2.0;
    format      ascii;
    class       volVectorField;
    location    "1.1";
    object      Vs;
}
// * * * * * * * * * * * * * * * * * * * * * * * * * * * * * * * * * * * * * //

dimensions      [0 1 -1 0 0 0 0];

internalField   nonuniform List<vector> 
328
(
(-1.04847e-06 -8.45935e-06 0)
(5.09808e-07 -1.68808e-06 0)
(6.05977e-07 1.73228e-06 0)
(-5.79803e-07 7.84324e-06 0)
(-3.11318e-06 -2.17141e-05 0)
(8.98055e-07 -5.04847e-06 0)
(1.23287e-06 4.90445e-06 0)
(-1.67153e-06 2.00353e-05 0)
(-6.09802e-06 -3.16479e-05 0)
(-4.22846e-07 -8.3657e-06 0)
(2.52041e-07 7.72968e-06 0)
(-3.53853e-06 2.8939e-05 0)
(-9.47525e-06 -3.88514e-05 0)
(-2.68649e-06 -1.14031e-05 0)
(-1.62347e-06 9.96002e-06 0)
(-5.70879e-06 3.50393e-05 0)
(-1.33467e-05 -4.40656e-05 0)
(-5.98931e-06 -1.4084e-05 0)
(-4.4893e-06 1.15028e-05 0)
(-8.28038e-06 3.89734e-05 0)
(-1.76116e-05 -4.78647e-05 0)
(-1.00522e-05 -1.64036e-05 0)
(-8.08318e-06 1.23196e-05 0)
(-1.11675e-05 4.12258e-05 0)
(-2.22931e-05 -5.07233e-05 0)
(-1.47994e-05 -1.84343e-05 0)
(-1.23328e-05 1.24393e-05 0)
(-1.43967e-05 4.21879e-05 0)
(-2.73897e-05 -5.30032e-05 0)
(-2.00965e-05 -2.0282e-05 0)
(-1.71094e-05 1.19125e-05 0)
(-1.7972e-05 4.21419e-05 0)
(-3.29245e-05 -5.49924e-05 0)
(-2.58729e-05 -2.20746e-05 0)
(-2.23442e-05 1.08021e-05 0)
(-2.19199e-05 4.12968e-05 0)
(-3.8916e-05 -5.69167e-05 0)
(-3.20657e-05 -2.39418e-05 0)
(-2.79766e-05 9.16251e-06 0)
(-2.6263e-05 3.9795e-05 0)
(-4.5385e-05 -5.89565e-05 0)
(-3.86442e-05 -2.60074e-05 0)
(-3.39773e-05 7.03314e-06 0)
(-3.1026e-05 3.77287e-05 0)
(-5.2349e-05 -6.12564e-05 0)
(-4.5596e-05 -2.83829e-05 0)
(-4.03355e-05 4.43158e-06 0)
(-3.6232e-05 3.51464e-05 0)
(-5.98239e-05 -6.39342e-05 0)
(-5.29283e-05 -3.11669e-05 0)
(-4.70603e-05 1.35294e-06 0)
(-4.19032e-05 3.20617e-05 0)
(-6.78243e-05 -6.70875e-05 0)
(-6.0662e-05 -3.44459e-05 0)
(-5.41749e-05 -2.2291e-06 0)
(-4.80621e-05 2.84589e-05 0)
(-7.63647e-05 -7.07999e-05 0)
(-6.88286e-05 -3.82975e-05 0)
(-6.17136e-05 -6.35911e-06 0)
(-5.47327e-05 2.42996e-05 0)
(-8.54604e-05 -7.51463e-05 0)
(-7.74656e-05 -4.27932e-05 0)
(-6.97173e-05 -1.1096e-05 0)
(-6.19416e-05 1.95276e-05 0)
(-9.51286e-05 -8.01974e-05 0)
(-8.6614e-05 -4.80022e-05 0)
(-7.82311e-05 -1.65092e-05 0)
(-6.97186e-05 1.40748e-05 0)
(-0.000105389 -8.60223e-05 0)
(-9.63156e-05 -5.39931e-05 0)
(-8.73012e-05 -2.26746e-05 0)
(-7.80977e-05 7.86493e-06 0)
(-0.000116263 -9.26911e-05 0)
(-0.000106612 -6.08359e-05 0)
(-9.69741e-05 -2.9672e-05 0)
(-8.7116e-05 8.1714e-07 0)
(-0.000127775 -0.000100276 0)
(-0.000117544 -6.86026e-05 0)
(-0.000107296 -3.75827e-05 0)
(-9.68142e-05 -7.15149e-06 0)
(-0.000139954 -0.00010885 0)
(-0.000129152 -7.73671e-05 0)
(-0.000118311 -4.64886e-05 0)
(-0.000107235 -1.61247e-05 0)
(-0.00015283 -0.00011849 0)
(-0.000141475 -8.72052e-05 0)
(-0.000130064 -5.64714e-05 0)
(-0.000118422 -2.61865e-05 0)
(-0.000166954 -0.000129686 0)
(-0.000155052 -9.86138e-05 0)
(-0.000143076 -6.80381e-05 0)
(-0.000130877 -3.78504e-05 0)
(-0.000181832 -0.00014216 0)
(-0.000169413 -0.000111309 0)
(-0.000156906 -8.09028e-05 0)
(-0.000144186 -5.08311e-05 0)
(-0.000196485 -0.000155059 0)
(-0.00018361 -0.000124421 0)
(-0.000170632 -9.41856e-05 0)
(-0.000157451 -6.42415e-05 0)
(-0.000210929 -0.000168331 0)
(-0.000197646 -0.000137899 0)
(-0.000184246 -0.000107835 0)
(-0.000170652 -7.80291e-05 0)
(-0.000225181 -0.000181936 0)
(-0.000211525 -0.000151702 0)
(-0.000197739 -0.000121811 0)
(-0.000183769 -9.2155e-05 0)
(-0.000239254 -0.000195847 0)
(-0.000225251 -0.000165804 0)
(-0.000211104 -0.000136089 0)
(-0.000196782 -0.000106592 0)
(-0.000253162 -0.000210048 0)
(-0.000238825 -0.000180191 0)
(-0.000224332 -0.000150652 0)
(-0.000209672 -0.000121325 0)
(-0.000266915 -0.000224533 0)
(-0.000252249 -0.000194856 0)
(-0.000237416 -0.000165497 0)
(-0.000222422 -0.000136348 0)
(-0.000280524 -0.000239307 0)
(-0.000265525 -0.000209806 0)
(-0.000250348 -0.000180628 0)
(-0.000235016 -0.000151666 0)
(-0.000293996 -0.000254383 0)
(-0.000278651 -0.000225055 0)
(-0.000263119 -0.00019606 0)
(-0.000247436 -0.000167294 0)
(-0.000307338 -0.000269783 0)
(-0.000291628 -0.000240625 0)
(-0.000275722 -0.000211816 0)
(-0.000259669 -0.000183252 0)
(-0.000320554 -0.000285537 0)
(-0.000304454 -0.000256548 0)
(-0.000288151 -0.000227927 0)
(-0.000271701 -0.000199571 0)
(-0.000333645 -0.000301678 0)
(-0.000317125 -0.000272858 0)
(-0.000300397 -0.000244428 0)
(-0.000283522 -0.000216285 0)
(-0.000346611 -0.000318248 0)
(-0.000329639 -0.000289597 0)
(-0.000312455 -0.000261361 0)
(-0.000295123 -0.000233435 0)
(-0.000359446 -0.000335286 0)
(-0.00034199 -0.000306808 0)
(-0.00032432 -0.000278767 0)
(-0.000306497 -0.000251061 0)
(-0.000372146 -0.000352834 0)
(-0.000354173 -0.000324533 0)
(-0.000335986 -0.000296691 0)
(-0.00031764 -0.000269206 0)
(-0.0003847 -0.000370932 0)
(-0.000366182 -0.000342812 0)
(-0.00034745 -0.000315172 0)
(-0.000328551 -0.000287908 0)
(-0.000397098 -0.000389614 0)
(-0.000378008 -0.000361684 0)
(-0.000358707 -0.000334248 0)
(-0.00033923 -0.000307205 0)
(-0.000409323 -0.000408912 0)
(-0.000389642 -0.000381178 0)
(-0.000369755 -0.000353949 0)
(-0.000349681 -0.000327125 0)
(-0.00042136 -0.000428847 0)
(-0.000401077 -0.000401319 0)
(-0.000380592 -0.0003743 0)
(-0.000359909 -0.000347691 0)
(-0.000433191 -0.000449432 0)
(-0.000412301 -0.000422119 0)
(-0.000391215 -0.000395314 0)
(-0.000369919 -0.000368917 0)
(-0.000444795 -0.000470669 0)
(-0.000423304 -0.000443582 0)
(-0.000401624 -0.000416994 0)
(-0.000379721 -0.000390805 0)
(-0.000456152 -0.000492551 0)
(-0.000434076 -0.000465701 0)
(-0.000411818 -0.000439333 0)
(-0.000389322 -0.000413348 0)
(-0.00046724 -0.000515057 0)
(-0.000444605 -0.000488455 0)
(-0.000421794 -0.000462311 0)
(-0.000398733 -0.000436526 0)
(-0.000478038 -0.000538155 0)
(-0.00045488 -0.000511813 0)
(-0.000431553 -0.000485896 0)
(-0.000407962 -0.000460308 0)
(-0.000488524 -0.000561802 0)
(-0.00046489 -0.000535731 0)
(-0.000441093 -0.000510046 0)
(-0.000417018 -0.000484649 0)
(-0.000498678 -0.000585944 0)
(-0.000474624 -0.000560155 0)
(-0.000450412 -0.000534705 0)
(-0.000425909 -0.000509497 0)
(-0.000508479 -0.000610513 0)
(-0.00048407 -0.000585017 0)
(-0.000459507 -0.000559806 0)
(-0.000434643 -0.000534785 0)
(-0.000517909 -0.000635435 0)
(-0.000493219 -0.000610241 0)
(-0.000468377 -0.000585275 0)
(-0.000443223 -0.000560439 0)
(-0.000526951 -0.000660627 0)
(-0.00050206 -0.000635745 0)
(-0.000477018 -0.000611026 0)
(-0.000451654 -0.000586377 0)
(-0.00053559 -0.000685997 0)
(-0.000510582 -0.000661435 0)
(-0.000485424 -0.00063697 0)
(-0.000459936 -0.000612507 0)
(-0.000543813 -0.000711449 0)
(-0.000518778 -0.000687215 0)
(-0.000493591 -0.000663008 0)
(-0.000468067 -0.000638735 0)
(-0.000551607 -0.000736884 0)
(-0.000526638 -0.000712984 0)
(-0.000501511 -0.000689041 0)
(-0.000476043 -0.000664962 0)
(-0.000558964 -0.000762201 0)
(-0.000534152 -0.00073864 0)
(-0.000509177 -0.000714966 0)
(-0.000483857 -0.000691088 0)
(-0.000565877 -0.000787297 0)
(-0.000541314 -0.000764081 0)
(-0.000516579 -0.000740682 0)
(-0.000491497 -0.000717011 0)
(-0.000572341 -0.000812074 0)
(-0.000548114 -0.000789206 0)
(-0.000523706 -0.000766089 0)
(-0.000498949 -0.000742636 0)
(-0.000578351 -0.000836438 0)
(-0.000554546 -0.000813919 0)
(-0.000530546 -0.000791091 0)
(-0.000506197 -0.000767867 0)
(-0.000583907 -0.000860297 0)
(-0.0005606 -0.000838132 0)
(-0.000537084 -0.0008156 0)
(-0.00051322 -0.000792617 0)
(-0.000589006 -0.000883571 0)
(-0.000566269 -0.000861761 0)
(-0.000543305 -0.000839534 0)
(-0.000519994 -0.000816806 0)
(-0.00059365 -0.000906187 0)
(-0.000571543 -0.000884733 0)
(-0.00054919 -0.000862819 0)
(-0.000526493 -0.000840364 0)
(-0.000597839 -0.000928083 0)
(-0.000576413 -0.000906987 0)
(-0.000554721 -0.000885396 0)
(-0.000532686 -0.000863231 0)
(-0.000601574 -0.000949208 0)
(-0.000580869 -0.000928472 0)
(-0.000559876 -0.000907215 0)
(-0.000538541 -0.000885359 0)
(-0.000604854 -0.000969524 0)
(-0.000584898 -0.000949151 0)
(-0.000564631 -0.000928239 0)
(-0.000544022 -0.000906714 0)
(-0.000607678 -0.000989007 0)
(-0.000588488 -0.000969 0)
(-0.000568961 -0.000948445 0)
(-0.000549092 -0.000927273 0)
(-0.000610043 -0.00100764 0)
(-0.000591623 -0.000988009 0)
(-0.000572838 -0.000967826 0)
(-0.000553708 -0.000947032 0)
(-0.000611943 -0.00102544 0)
(-0.000594283 -0.00100618 0)
(-0.000576231 -0.000986389 0)
(-0.000557828 -0.000965997 0)
(-0.00061337 -0.00104241 0)
(-0.00059645 -0.00102354 0)
(-0.000579107 -0.00100415 0)
(-0.000561407 -0.000984191 0)
(-0.000614311 -0.00105859 0)
(-0.000598098 -0.00104012 0)
(-0.00058143 -0.00102116 0)
(-0.000564396 -0.00100165 0)
(-0.000614746 -0.00107402 0)
(-0.000599198 -0.00105596 0)
(-0.000583163 -0.00103744 0)
(-0.000566747 -0.00101843 0)
(-0.000614653 -0.00108875 0)
(-0.000599718 -0.00107112 0)
(-0.000584263 -0.00105308 0)
(-0.000568408 -0.00103458 0)
(-0.000613999 -0.00110285 0)
(-0.000599619 -0.00108567 0)
(-0.000584685 -0.00106813 0)
(-0.000569326 -0.00105018 0)
(-0.000612746 -0.00111638 0)
(-0.000598856 -0.00109969 0)
(-0.000584378 -0.00108268 0)
(-0.000569445 -0.00106532 0)
(-0.000610844 -0.00112942 0)
(-0.000597379 -0.00111325 0)
(-0.000583289 -0.00109681 0)
(-0.000568707 -0.00108007 0)
(-0.000608234 -0.00114205 0)
(-0.000595128 -0.00112644 0)
(-0.000581357 -0.00111061 0)
(-0.000567052 -0.00109454 0)
(-0.000604849 -0.00115435 0)
(-0.000592035 -0.00113934 0)
(-0.000578516 -0.00112416 0)
(-0.000564416 -0.0011088 0)
(-0.000600605 -0.00116637 0)
(-0.000588017 -0.00115203 0)
(-0.000574688 -0.00113756 0)
(-0.000560727 -0.00112296 0)
(-0.000595416 -0.00117818 0)
(-0.000582991 -0.00116457 0)
(-0.000569795 -0.00115089 0)
(-0.00055592 -0.0011371 0)
(-0.000589156 -0.00118984 0)
(-0.000576823 -0.00117703 0)
(-0.000563712 -0.00116421 0)
(-0.000549894 -0.00115129 0)
(-0.000581771 -0.00120141 0)
(-0.000569455 -0.00118948 0)
(-0.00055639 -0.00117757 0)
(-0.000542629 -0.00116558 0)
(-0.000572976 -0.00121317 0)
(-0.00056062 -0.00120204 0)
(-0.000547571 -0.00119095 0)
(-0.000533871 -0.00117977 0)
)
;

boundaryField
{
    plateFix
    {
        type            calculated;
        value           uniform (0 0 0);
    }
    plate
    {
        type            calculated;
        value           nonuniform List<vector> 
168
(
(-3.81704e-05 -2.29673e-05 3.88091e-23)
(-3.48944e-05 2.07931e-05 -2.81732e-23)
(-3.02666e-05 -3.67113e-05 -1.40587e-23)
(-2.63984e-05 3.34202e-05 1.55675e-23)
(-2.4824e-05 -4.73426e-05 -1.91447e-23)
(-1.99617e-05 4.29622e-05 1.11552e-23)
(-2.21323e-05 -5.48272e-05 1.14334e-24)
(-1.59685e-05 4.93359e-05 -3.89039e-23)
(-2.19169e-05 -6.02672e-05 -1.11804e-24)
(-1.41992e-05 5.35032e-05 2.85683e-23)
(-2.35159e-05 -6.41895e-05 1.3945e-23)
(-1.40595e-05 5.59037e-05 -1.28529e-23)
(-2.65421e-05 -6.71419e-05 4.76972e-24)
(-1.52005e-05 5.69934e-05 -2.96416e-24)
(-3.06794e-05 -6.94875e-05 6.67638e-24)
(-1.73349e-05 5.70547e-05 2.93825e-23)
(-3.57332e-05 -7.1527e-05 -2.15577e-23)
(-2.02856e-05 5.63064e-05 -3.44117e-24)
(-4.15649e-05 -7.3485e-05 -1.57039e-23)
(-2.39268e-05 5.48895e-05 -2.5794e-23)
(-4.80851e-05 -7.55421e-05 1.64117e-23)
(-2.81789e-05 5.28956e-05 2.36306e-24)
(-5.52334e-05 -7.78419e-05 -9.78063e-25)
(-3.29905e-05 5.03721e-05 5.26112e-24)
(-6.29716e-05 -8.05021e-05 2.44181e-25)
(-3.83332e-05 4.73322e-05 6.64483e-25)
(-7.12777e-05 -8.36209e-05 -1.09073e-23)
(-4.41963e-05 4.37611e-05 1.38429e-23)
(-8.01423e-05 -8.72836e-05 1.09903e-23)
(-5.05835e-05 3.96216e-05 -1.71136e-23)
(-8.9566e-05 -9.15671e-05 7.15293e-25)
(-5.7511e-05 3.48593e-05 9.63079e-25)
(-9.95573e-05 -9.65439e-05 -1.02771e-23)
(-6.50051e-05 2.94078e-05 -6.9205e-24)
(-0.000110131 -0.000102285 -6.92928e-24)
(-7.31002e-05 2.31921e-05 1.87991e-23)
(-0.000121305 -0.000108863 7.51313e-24)
(-8.18368e-05 1.61323e-05 7.43976e-24)
(-0.000133104 -0.000116349 -3.96927e-24)
(-9.12593e-05 8.14565e-06 3.12171e-24)
(-0.000145553 -0.000124821 -5.8518e-24)
(-0.000101414 -8.5184e-07 -4.83933e-24)
(-0.000158682 -0.000134354 1.04117e-23)
(-0.000112349 -1.09449e-05 6.45601e-24)
(-0.00017305 -0.000145434 4.04722e-24)
(-0.000124558 -2.26499e-05 -5.46487e-24)
(-0.000188155 -0.00015779 2.63274e-24)
(-0.000137638 -3.56824e-05 7.686e-24)
(-0.000203005 -0.000170576 9.68131e-24)
(-0.000150703 -4.91518e-05 -6.53724e-24)
(-0.000217624 -0.00018374 -1.68272e-23)
(-0.000163727 -6.30053e-05 2.18465e-23)
(-0.000232034 -0.000197242 1.6608e-24)
(-0.000176683 -7.72036e-05 2.0658e-23)
(-0.000246254 -0.000211055 1.27822e-23)
(-0.000189546 -9.17195e-05 2.64635e-23)
(-0.000260304 -0.000225161 3.74165e-24)
(-0.000202291 -0.000106537 -1.04819e-23)
(-0.000274199 -0.000239555 9.04975e-24)
(-0.000214896 -0.00012165 1.8483e-23)
(-0.000287954 -0.000254242 2.47941e-23)
(-0.00022734 -0.000137064 -3.47332e-24)
(-0.000301582 -0.000269232 7.58981e-24)
(-0.000239601 -0.000152792 -4.67602e-25)
(-0.000315092 -0.00028455 -3.71316e-24)
(-0.000251661 -0.000168854 4.80259e-24)
(-0.000328492 -0.000300221 1.64274e-24)
(-0.000263505 -0.000185281 8.35116e-24)
(-0.000341786 -0.000316282 -9.40919e-26)
(-0.000275119 -0.000202107 3.54566e-24)
(-0.000354974 -0.000332769 -2.20245e-23)
(-0.000286493 -0.00021937 1.21647e-23)
(-0.000368053 -0.000349724 -3.6205e-24)
(-0.000297618 -0.000237111 6.65001e-24)
(-0.000381017 -0.000367187 -3.9188e-25)
(-0.000308493 -0.00025537 -2.10499e-23)
(-0.000393854 -0.000385196 -3.06481e-24)
(-0.000319116 -0.000274187 -7.24965e-24)
(-0.00040655 -0.000403787 -1.21183e-23)
(-0.000329491 -0.000293597 -1.28599e-24)
(-0.000419088 -0.000422988 -5.86412e-24)
(-0.000339625 -0.000313629 1.12325e-23)
(-0.000431446 -0.000442821 -1.07365e-23)
(-0.000349526 -0.000334305 6.66125e-24)
(-0.000443602 -0.000463297 -9.08428e-24)
(-0.000359207 -0.000355638 7.07794e-24)
(-0.00045553 -0.00048442 -1.09739e-23)
(-0.000368679 -0.00037763 -1.02208e-23)
(-0.000467204 -0.000506181 4.01726e-24)
(-0.000377959 -0.000400273 1.14254e-23)
(-0.000478596 -0.000528559 -3.25495e-24)
(-0.00038706 -0.000423548 2.2328e-25)
(-0.00048968 -0.000551522 -6.0216e-24)
(-0.000395998 -0.000447423 4.41738e-24)
(-0.000500427 -0.000575028 6.00782e-24)
(-0.000404787 -0.000471856 -1.72994e-23)
(-0.000510812 -0.000599021 -4.0627e-24)
(-0.000413442 -0.000496792 -8.68111e-24)
(-0.000520809 -0.000623436 -9.8026e-24)
(-0.000421974 -0.000522167 1.75635e-23)
(-0.000530396 -0.000648198 5.99848e-24)
(-0.000430392 -0.000547906 -2.13936e-25)
(-0.000539551 -0.000673224 2.62584e-25)
(-0.000438704 -0.000573927 -8.6846e-24)
(-0.000548257 -0.000698423 3.68967e-24)
(-0.000446913 -0.000600142 -8.34439e-24)
(-0.000556497 -0.000723701 4.65337e-24)
(-0.00045502 -0.000626456 -1.82141e-23)
(-0.000564259 -0.000748959 -2.39833e-24)
(-0.000463021 -0.00065277 -5.80468e-24)
(-0.000571533 -0.000774094 2.94737e-23)
(-0.00047091 -0.000678987 1.07498e-23)
(-0.000578313 -0.000799008 -4.15192e-24)
(-0.000478674 -0.000705005 -8.33478e-24)
(-0.000584595 -0.000823601 -4.8491e-24)
(-0.000486299 -0.000730729 4.45165e-25)
(-0.000590378 -0.000847779 6.51404e-24)
(-0.000493765 -0.000756066 3.1387e-25)
(-0.000595663 -0.000871453 2.30703e-23)
(-0.000501047 -0.00078093 -3.54693e-25)
(-0.000600454 -0.000894541 -3.78259e-23)
(-0.000508118 -0.000805241 4.98071e-24)
(-0.000604756 -0.000916972 1.8518e-23)
(-0.000514947 -0.00082893 -1.40151e-23)
(-0.000608574 -0.000938683 1.37447e-23)
(-0.000521496 -0.000851939 1.1733e-23)
(-0.000611916 -0.000959623 9.93712e-25)
(-0.000527728 -0.000874219 -2.09028e-23)
(-0.000614787 -0.000979754 -1.63773e-23)
(-0.0005336 -0.000895738 -3.09545e-24)
(-0.000617194 -0.000999051 -2.20686e-24)
(-0.000539067 -0.000916475 -2.37509e-23)
(-0.000619139 -0.0010175 2.20364e-25)
(-0.000544081 -0.000936424 3.01846e-23)
(-0.000620625 -0.00103511 -9.0465e-24)
(-0.000548591 -0.000955594 1.9268e-23)
(-0.00062165 -0.00105189 -2.13601e-23)
(-0.000552544 -0.000974008 1.3552e-23)
(-0.000622206 -0.00106787 3.23666e-24)
(-0.000555887 -0.000991704 -1.99345e-23)
(-0.000622282 -0.0010831 -2.30937e-23)
(-0.000558563 -0.00100873 7.40382e-24)
(-0.000621857 -0.00109762 4.87942e-24)
(-0.000560516 -0.00102515 2.21569e-23)
(-0.000620906 -0.00111149 -1.14172e-23)
(-0.000561687 -0.00104104 5.59024e-24)
(-0.000619391 -0.00112479 2.97844e-23)
(-0.000562017 -0.00105648 3.49526e-23)
(-0.000617265 -0.00113758 2.78673e-23)
(-0.000561447 -0.00107156 1.30076e-23)
(-0.000614469 -0.00114993 -1.14158e-24)
(-0.000559913 -0.00108636 2.78653e-23)
(-0.000610934 -0.00116193 2.88295e-23)
(-0.000557353 -0.00110099 -2.19512e-23)
(-0.000606571 -0.00117362 -1.44938e-23)
(-0.000553696 -0.00111554 2.24841e-23)
(-0.000601295 -0.00118507 7.73725e-26)
(-0.000548881 -0.00113009 2.04456e-25)
(-0.000594977 -0.00119634 8.52405e-24)
(-0.000542817 -0.00114472 5.2809e-23)
(-0.000587621 -0.00120746 -7.60115e-24)
(-0.000535555 -0.0011595 -2.3705e-23)
(-0.000579 -0.00121879 -1.50775e-23)
(-0.000568083 -0.0012193 7.08182e-24)
(-0.000555723 -0.0012084 -1.82671e-23)
(-0.00054268 -0.00119764 3.57126e-24)
(-0.000528988 -0.00118666 -4.53448e-26)
(-0.000526926 -0.00117413 -1.16312e-25)
)
;
    }
    frontAndBackPlanes
    {
        type            empty;
    }
}


// ************************************************************************* //
