/*--------------------------------*- C++ -*----------------------------------*\
| =========                 |                                                 |
| \\      /  F ield         | OpenFOAM Extend Project: Open source CFD        |
|  \\    /   O peration     | Version:  1.6-ext                               |
|   \\  /    A nd           | Web:      www.extend-project.de                 |
|    \\/     M anipulation  |                                                 |
\*---------------------------------------------------------------------------*/
FoamFile
{
    version     2.0;
    format      ascii;
    class       volScalarField;
    location    "4.5";
    object      p;
}
// * * * * * * * * * * * * * * * * * * * * * * * * * * * * * * * * * * * * * //

dimensions      [0 2 -2 0 0 0 0];

internalField   nonuniform List<scalar> 
284
(
0.28776
0.256283
0.244815
0.239831
0.237922
0.237886
0.238757
0.240001
0.242016
0.258549
0.249671
0.244319
0.241791
0.240822
0.240843
0.241371
0.242154
0.244311
0.246593
0.243191
0.240629
0.239471
0.239461
0.240188
0.241141
0.242093
0.245037
0.237121
0.236053
0.235015
0.234815
0.235525
0.236839
0.238244
0.239435
0.243133
0.229314
0.229006
0.228608
0.22868
0.229412
0.230629
0.231822
0.23258
0.236408
0.222224
0.222103
0.221776
0.221529
0.221526
0.221654
0.221386
0.220082
0.221895
0.215489
0.215339
0.214741
0.213746
0.212349
0.210283
0.20669
0.199849
0.194472
0.209139
0.208866
0.207785
0.20574
0.202458
0.197332
0.188784
0.174474
0.130216
0.203418
0.202979
0.201283
0.197999
0.192398
0.182869
0.163654
0.125694
0.0324716
0.198695
0.198038
0.195669
0.191258
0.184038
0.172509
0.152419
0.120576
0.067087
0.195435
0.194366
0.191173
0.185784
0.177789
0.16628
0.149317
0.12498
0.0917889
0.194143
0.192198
0.187755
0.181299
0.172789
0.161652
0.147055
0.127209
0.10341
0.196442
0.191924
0.185357
0.177609
0.168599
0.157842
0.144872
0.128199
0.109275
0.202542
0.192739
0.18353
0.174681
0.165536
0.155319
0.143504
0.128951
0.112426
0.230781
0.198895
0.184139
0.174237
0.165312
0.155871
0.144977
0.131487
0.115746
-0.100219
-0.0649812
-0.00220205
-0.0231883
0.0420436
0.011982
0.0698633
0.0432492
0.0857931
0.0634405
0.0932892
0.0735598
0.0975187
0.0779682
-0.0525466
-0.0434396
-0.0396663
-0.0378934
-0.0361679
-0.0324829
-0.0262223
-0.0168118
-0.00573193
-0.0289613
-0.0292572
-0.0293689
-0.0293799
-0.0283274
-0.0251134
-0.0199245
-0.0123292
-0.00475118
-0.00241054
-0.00926634
-0.0131033
-0.0153251
-0.0158709
-0.0143173
-0.0114043
-0.00676062
-0.00349678
0.0259186
0.0144627
0.00610578
0.000582056
-0.00252723
-0.00349326
-0.00337602
-0.00193033
-0.00250764
0.0451953
0.0310316
0.0202799
0.0125258
0.00726323
0.00405506
0.00193187
0.000948546
-0.00200574
0.0556115
0.040399
0.0281756
0.0188406
0.0120227
0.00727558
0.00386736
0.0016006
-0.00196275
0.05905
0.0424186
0.0286643
0.017907
0.00994545
0.00441267
0.000783451
-0.00129787
-0.00343766
-0.0248698
-0.0260649
-0.0257359
-0.0241747
-0.0211987
-0.0167241
-0.0111613
-0.00564676
0.00370773
-0.0235812
-0.0248419
-0.0245912
-0.0234483
-0.0211579
-0.0174394
-0.0125528
-0.00750071
0.00252564
-0.0242932
-0.0257366
-0.0257434
-0.0250252
-0.0231978
-0.01977
-0.014879
-0.00965433
0.00171221
-0.0267551
-0.0280857
-0.0283498
-0.0280904
-0.0267312
-0.0235012
-0.0183366
-0.0125488
0.000728765
-0.0309678
-0.031619
-0.0319707
-0.0321138
-0.0312136
-0.0282384
-0.0225322
-0.0154258
-0.000387857
-0.0367137
-0.0356139
-0.0357553
-0.0361188
-0.0355611
-0.0327332
-0.0268259
-0.0177841
-0.00293008
-0.0435167
-0.0389327
-0.0386499
-0.038782
-0.0382983
-0.0354752
-0.0293345
-0.0193831
-0.00500976
-0.060193
-0.0429064
-0.0402744
-0.0396129
-0.038724
-0.0355817
-0.0292554
-0.019196
-0.00593634
)
;

boundaryField
{
    inlet
    {
        type            zeroGradient;
    }
    outlet
    {
        type            totalPressure;
        rho             none;
        psi             none;
        gamma           1;
        p0              uniform 0;
        value           nonuniform List<scalar> 
15
(
-0.000103382
-0.000577271
-0.00138654
-0.00269615
0
0
0
0
0
0
0
0
0
0
0
)
;
    }
    fixedWalls
    {
        type            zeroGradient;
    }
    frontAndBack
    {
        type            empty;
    }
}


// ************************************************************************* //
