/*--------------------------------*- C++ -*----------------------------------*\
| =========                 |                                                 |
| \\      /  F ield         | OpenFOAM Extend Project: Open source CFD        |
|  \\    /   O peration     | Version:  1.6-ext                               |
|   \\  /    A nd           | Web:      www.extend-project.de                 |
|    \\/     M anipulation  |                                                 |
\*---------------------------------------------------------------------------*/
FoamFile
{
    version     2.0;
    format      ascii;
    class       surfaceScalarField;
    location    "4.5";
    object      phi;
}
// * * * * * * * * * * * * * * * * * * * * * * * * * * * * * * * * * * * * * //

dimensions      [0 3 -1 0 0 0 0];

internalField   nonuniform List<scalar> 
525
(
0.000160824
3.91762e-05
0.000117029
4.37952e-05
8.13609e-05
3.56677e-05
5.41976e-05
2.71633e-05
3.41189e-05
2.00786e-05
1.91272e-05
1.49918e-05
7.92881e-06
1.11984e-05
8.9358e-07
7.03523e-06
8.9358e-07
0.000204944
3.42319e-05
0.000190234
5.85058e-05
0.00016208
6.3821e-05
0.0001284
6.08439e-05
9.3924e-05
5.45545e-05
6.1438e-05
4.74778e-05
3.26553e-05
3.9981e-05
1.01664e-05
2.95242e-05
1.106e-05
0.000208656
2.55762e-05
0.000208062
5.90995e-05
0.000194049
7.78336e-05
0.000168249
8.66445e-05
0.000134106
8.86974e-05
9.53647e-05
8.62189e-05
5.5585e-05
7.97608e-05
1.9913e-05
6.51961e-05
3.0973e-05
0.000205058
2.0518e-05
0.00020818
5.59779e-05
0.000202615
8.33983e-05
0.000185853
0.000103407
0.000157734
0.000116816
0.000119708
0.000124246
7.46854e-05
0.000124783
2.90177e-05
0.000110864
5.99907e-05
0.000202383
1.81351e-05
0.000205271
5.30902e-05
0.000203733
8.49361e-05
0.000193875
0.000113264
0.000172887
0.000137805
0.000139204
0.000157929
9.30207e-05
0.000170966
3.93886e-05
0.000164496
9.93793e-05
0.000201257
1.68782e-05
0.000203808
5.05393e-05
0.000204722
8.40224e-05
0.000200397
0.000117588
0.000186867
0.000151335
0.000160044
0.000184752
0.000116283
0.000214727
5.57104e-05
0.000225069
0.00015509
0.00020118
1.56978e-05
0.000204435
4.72848e-05
0.000208077
8.03801e-05
0.000209393
0.000116272
0.000204579
0.000156149
0.000188565
0.000200766
0.00015305
0.000250242
8.77107e-05
0.000290408
0.0002428
0.00020172
1.39776e-05
0.000206761
4.22439e-05
0.000214105
7.30364e-05
0.000222016
0.00010836
0.000227637
0.000150529
0.000226074
0.000202329
0.000204669
0.000271647
0.00013891
0.000356166
0.000381711
0.000202632
1.13458e-05
0.000210258
3.46177e-05
0.000222124
6.11703e-05
0.000237617
9.2867e-05
0.0002568
0.000131346
0.000281617
0.000177512
0.000318945
0.000234318
0.000383585
0.000291527
0.000361234
0.000404061
0.000203914
7.43176e-06
0.000214624
2.39082e-05
0.000230947
4.48465e-05
0.000252645
7.11692e-05
0.000281093
0.000102899
0.000319742
0.000138862
0.000372352
0.000181708
0.000453738
0.000210141
0.000281407
0.000533566
0.00020598
1.45184e-06
0.000220223
9.66514e-06
0.000240142
2.49273e-05
0.000265181
4.61305e-05
0.000296496
7.15839e-05
0.000336717
9.86412e-05
0.000387989
0.000130437
0.000454301
0.000143828
0.00018756
0.000548149
0.000209413
-7.96126e-06
0.000227331
-8.25267e-06
0.000248885
3.37344e-06
0.000273923
2.10923e-05
0.000303759
4.17484e-05
0.000340445
6.19544e-05
0.000386786
8.40962e-05
0.000439055
9.15595e-05
0.000111529
0.000515086
0.00021449
-2.24515e-05
0.000232314
-2.60769e-05
0.000250092
-1.4404e-05
0.000269927
1.25772e-06
0.000294074
1.76008e-05
0.000324344
3.16849e-05
0.000363299
4.5141e-05
0.000405173
4.96848e-05
5.67516e-05
0.000459951
0.000211668
-3.41192e-05
0.000216792
-3.12014e-05
0.000220562
-1.81743e-05
0.000228022
-6.20181e-06
0.000242256
3.36644e-06
0.000263785
1.01566e-05
0.000293326
1.55997e-05
0.000325813
1.71976e-05
1.86202e-05
0.000363945
0.000165881
0.000134679
0.000116505
0.000110303
0.00011367
0.000123826
0.000139426
0.000156624
0.000175244
0.000247182
0.000156879
5.81351e-05
0.000189047
0.000509987
0.000180457
9.26135e-05
0.000475509
0.000583977
0.000144629
8.59931e-05
0.000590597
0.000565488
9.42267e-05
5.95242e-05
0.000591957
0.000505637
4.85406e-05
2.91658e-05
0.000535995
0.00039758
1.49049e-05
7.05593e-06
0.00041969
0.000190149
0.000197205
0.000193333
5.93152e-06
-1.02169e-05
0.000223675
-1.78885e-05
-1.24543e-05
0.000260383
-3.77728e-05
1.06483e-06
0.000297122
-5.92905e-05
2.2552e-05
0.000329415
-8.38257e-05
5.15326e-05
0.000355295
-0.00011057
8.46899e-05
0.000373197
-0.000134224
0.000116322
0.000383353
-0.000154981
0.000144825
-0.000159745
0.000158699
0.000450698
3.07424e-05
0.000443563
-1.07531e-05
0.000448558
-4.2768e-05
0.000459307
-7.00395e-05
0.000470367
-9.48855e-05
0.000477769
-0.000117972
0.000479206
-0.000135662
0.000473855
-0.00014963
-0.000146923
0.00058557
3.57689e-05
0.000579065
-4.24782e-06
0.000574521
-3.82234e-05
0.000570157
-6.56764e-05
0.000563913
-8.86411e-05
0.000553386
-0.000107445
0.000537694
-0.00011997
0.000515789
-0.000127724
-0.000120958
0.000604092
2.36336e-05
0.000607531
-7.68695e-06
0.000603443
-3.41355e-05
0.000593374
-5.56066e-05
0.000577227
-7.24945e-05
0.000554384
-8.46017e-05
0.000525768
-9.13536e-05
0.000491286
-9.32424e-05
-8.59578e-05
0.000552217
7.41205e-06
0.00055635
-1.18203e-05
0.000549875
-2.76601e-05
0.000533975
-3.97069e-05
0.000509606
-4.81259e-05
0.000477792
-5.27875e-05
0.000440674
-5.42358e-05
0.000399985
-5.25533e-05
-4.83758e-05
0.000428979
-1.87724e-06
0.000426103
-8.94394e-06
0.000412545
-1.41022e-05
0.000390106
-1.72677e-05
0.000360706
-1.87259e-05
0.000326644
-1.87249e-05
0.000290415
-1.80075e-05
0.000254671
-1.68089e-05
-1.69249e-05
0.000195327
0.000186383
0.000172281
0.000155014
0.000136288
0.000117563
9.95552e-05
8.27463e-05
-3.04272e-06
3.04272e-06
-1.11213e-05
8.07854e-06
-2.07855e-05
9.66427e-06
-2.96482e-05
8.86269e-06
-3.5973e-05
6.32478e-06
-3.81886e-05
2.2156e-06
-3.50538e-05
-3.13483e-06
-2.60537e-05
-9.00004e-06
-1.51573e-05
-8.93467e-06
1.19774e-05
-2.55308e-05
2.46747e-05
-4.32713e-05
2.74048e-05
-5.79273e-05
2.35187e-05
-6.66383e-05
1.50358e-05
-6.74366e-05
3.01389e-06
-5.93128e-05
-1.12587e-05
-4.28796e-05
-2.54333e-05
-3.75583e-05
-1.14281e-05
2.34055e-05
-3.08027e-05
4.40493e-05
-5.02684e-05
4.68704e-05
-6.51217e-05
3.83721e-05
-7.25243e-05
2.24384e-05
-7.08327e-05
1.32234e-06
-5.96551e-05
-2.24363e-05
-3.97824e-05
-4.53059e-05
-6.22024e-05
-1.11718e-05
3.45773e-05
-2.87009e-05
6.15784e-05
-4.51949e-05
6.33644e-05
-5.65387e-05
4.97158e-05
-6.04564e-05
2.63561e-05
-5.60387e-05
-3.09537e-06
-4.33207e-05
-3.51543e-05
-2.28603e-05
-6.57663e-05
-8.42632e-05
-9.0893e-06
4.36666e-05
-2.03281e-05
7.28172e-05
-2.90793e-05
7.21157e-05
-3.2776e-05
5.34125e-05
-3.01575e-05
2.37376e-05
-2.11694e-05
-1.20835e-05
-6.66026e-06
-4.96635e-05
1.43838e-05
-8.68104e-05
-0.000106427
-5.50236e-06
4.91689e-05
-5.34773e-06
7.26625e-05
-7.65102e-07
6.75331e-05
8.38169e-06
4.42657e-05
2.15359e-05
1.05835e-05
3.79224e-05
-2.847e-05
5.68428e-05
-6.85839e-05
7.64397e-05
-0.000106407
-0.000128483
3.91527e-06
4.52537e-05
2.12692e-05
5.53086e-05
4.53266e-05
4.34757e-05
7.12972e-05
1.82951e-05
9.7316e-05
-1.54354e-05
0.00012259
-5.37443e-05
0.000145733
-9.17269e-05
0.000165822
-0.000126496
-0.000146964
3.50368e-05
7.78912e-05
0.000122432
0.000163279
0.000199376
0.000230322
0.000254916
0.000273246
)
;

boundaryField
{
    inlet
    {
        type            calculated;
        value           uniform -0.0002;
    }
    outlet
    {
        type            calculated;
        value           nonuniform List<scalar> 
15
(
-1.08965e-05
-2.04785e-05
-1.51383e-05
-7.99447e-07
3.6548e-05
9.84953e-05
0.000184303
0.000284981
0.000384399
0.000461033
0.000489823
0.000456286
0.000362403
0.00022322
6.58214e-05
)
;
    }
    fixedWalls
    {
        type            calculated;
        value           uniform 0;
    }
    frontAndBack
    {
        type            empty;
    }
}


// ************************************************************************* //
