/*--------------------------------*- C++ -*----------------------------------*\
| =========                 |                                                 |
| \\      /  F ield         | OpenFOAM Extend Project: Open source CFD        |
|  \\    /   O peration     | Version:  1.6-ext                               |
|   \\  /    A nd           | Web:      www.extend-project.de                 |
|    \\/     M anipulation  |                                                 |
\*---------------------------------------------------------------------------*/
FoamFile
{
    version     2.0;
    format      ascii;
    class       volVectorField;
    location    "4.5";
    object      U;
}
// * * * * * * * * * * * * * * * * * * * * * * * * * * * * * * * * * * * * * //

dimensions      [0 1 -1 0 0 0 0];

internalField   nonuniform List<vector> 
284
(
(0.16378 0.0266023 0)
(0.141788 0.0268354 0)
(0.0987083 0.0192624 0)
(0.0662227 0.0122052 0)
(0.0430739 0.00724559 0)
(0.0258535 0.0043017 0)
(0.012782 0.0025346 0)
(0.00283043 0.000888234 0)
(-0.000714466 -0.001205 0)
(0.200598 0.0434011 0)
(0.202038 0.0577772 0)
(0.179223 0.0536096 0)
(0.146253 0.0444865 0)
(0.111178 0.0351794 0)
(0.0772017 0.027589 0)
(0.0459605 0.0213764 0)
(0.0185017 0.0142735 0)
(0.00296132 0.0033837 0)
(0.203094 0.0291676 0)
(0.210985 0.059982 0)
(0.204484 0.0729249 0)
(0.183921 0.0756987 0)
(0.153053 0.0726149 0)
(0.115738 0.066562 0)
(0.0752641 0.0583916 0)
(0.0344129 0.0451414 0)
(0.00722713 0.0192749 0)
(0.201523 0.022497 0)
(0.207596 0.0575011 0)
(0.207851 0.0816878 0)
(0.197287 0.0967321 0)
(0.174783 0.104338 0)
(0.141274 0.106073 0)
(0.0985017 0.101977 0)
(0.0488421 0.0865788 0)
(0.011611 0.0438959 0)
(0.200564 0.0190862 0)
(0.203988 0.0543878 0)
(0.205906 0.0846989 0)
(0.201325 0.109567 0)
(0.18664 0.128836 0)
(0.159723 0.142302 0)
(0.119163 0.148139 0)
(0.064293 0.136527 0)
(0.0173888 0.077925 0)
(0.200234 0.0174295 0)
(0.202365 0.0517997 0)
(0.204908 0.0849159 0)
(0.204332 0.116523 0)
(0.196603 0.146225 0)
(0.177746 0.173123 0)
(0.143065 0.194085 0)
(0.0863914 0.19447 0)
(0.0276884 0.123975 0)
(0.200218 0.0163043 0)
(0.202435 0.0491042 0)
(0.206372 0.0828074 0)
(0.20979 0.118189 0)
(0.209318 0.155794 0)
(0.200805 0.195469 0)
(0.178081 0.234211 0)
(0.124341 0.253123 0)
(0.0484627 0.196492 0)
(0.200345 0.0149179 0)
(0.203611 0.04515 0)
(0.210098 0.0775365 0)
(0.218441 0.113809 0)
(0.226295 0.155886 0)
(0.230653 0.205988 0)
(0.223821 0.269952 0)
(0.197691 0.339189 0)
(0.0603372 0.286372 0)
(0.200547 0.0127986 0)
(0.205485 0.0389666 0)
(0.215428 0.0680697 0)
(0.22965 0.102131 0)
(0.247296 0.143373 0)
(0.27119 0.194158 0)
(0.299035 0.260983 0)
(0.357453 0.344972 0)
(0.398342 0.428671 0)
(0.20084 0.0096173 0)
(0.207964 0.0299433 0)
(0.221675 0.0540095 0)
(0.241095 0.0832962 0)
(0.265813 0.118846 0)
(0.300315 0.160832 0)
(0.342365 0.212432 0)
(0.410389 0.255315 0)
(0.491505 0.337789 0)
(0.201384 0.00498127 0)
(0.211556 0.0176367 0)
(0.228977 0.0357315 0)
(0.251791 0.059352 0)
(0.279608 0.0878386 0)
(0.315448 0.119142 0)
(0.360071 0.156267 0)
(0.417571 0.172621 0)
(0.498012 0.228121 0)
(0.202451 -0.0023799 0)
(0.216921 0.00141089 0)
(0.23717 0.0141882 0)
(0.260648 0.0331243 0)
(0.287869 0.0557957 0)
(0.320609 0.0789511 0)
(0.36224 0.105428 0)
(0.409838 0.114038 0)
(0.473796 0.141648 0)
(0.204208 -0.0136798 0)
(0.222725 -0.0174816 0)
(0.240922 -0.00722603 0)
(0.25936 0.00910163 0)
(0.281063 0.0273734 0)
(0.307631 0.0444684 0)
(0.342706 0.0620117 0)
(0.382251 0.0680979 0)
(0.430598 0.0789564 0)
(0.201749 -0.0351363 0)
(0.215147 -0.0365621 0)
(0.21872 -0.0224877 0)
(0.223156 -0.00688991 0)
(0.233767 0.00690507 0)
(0.251355 0.0177398 0)
(0.277483 0.0268557 0)
(0.308272 0.0298159 0)
(0.344111 0.032606 0)
(0.164654 -0.0248755 0)
(0.151327 -0.0222501 0)
(0.12436 -0.0125559 0)
(0.111311 -0.00484419 0)
(0.110514 0.000420025 0)
(0.11764 0.00372124 0)
(0.130997 0.00585976 0)
(0.147525 0.00615659 0)
(0.165952 0.00606206 0)
(0.353538 0.166685 0)
(0.183601 0.044314 0)
(0.543574 0.178221 0)
(0.496997 0.0825725 0)
(0.575869 0.167592 0)
(0.596315 0.100533 0)
(0.543527 0.118145 0)
(0.584813 0.0755505 0)
(0.483826 0.0677355 0)
(0.524233 0.0425802 0)
(0.381586 0.0266454 0)
(0.411019 0.0137485 0)
(0.183501 0.0037257 0)
(0.195131 -0.00018347 0)
(0.184547 -0.00580769 0)
(0.204087 -0.0148868 0)
(0.240074 -0.0275965 0)
(0.278503 -0.0470977 0)
(0.313653 -0.0724146 0)
(0.344738 -0.101426 0)
(0.36544 -0.128455 0)
(0.383014 -0.152815 0)
(0.384644 -0.162234 0)
(0.462472 0.019512 0)
(0.444023 -0.0183954 0)
(0.44305 -0.0459431 0)
(0.45283 -0.0703585 0)
(0.464574 -0.0944177 0)
(0.476653 -0.11868 0)
(0.478579 -0.13877 0)
(0.482776 -0.155975 0)
(0.462658 -0.156759 0)
(0.592547 0.0428867 0)
(0.583316 -0.00221317 0)
(0.576325 -0.0376912 0)
(0.572592 -0.0671739 0)
(0.567298 -0.0925337 0)
(0.561583 -0.114462 0)
(0.54489 -0.13011 0)
(0.534016 -0.141485 0)
(0.492731 -0.136616 0)
(0.602788 0.032388 0)
(0.608403 -0.00482509 0)
(0.607024 -0.0355188 0)
(0.600369 -0.0608978 0)
(0.586776 -0.08171 0)
(0.569013 -0.0978218 0)
(0.539552 -0.107848 0)
(0.515613 -0.112762 0)
(0.460356 -0.105113 0)
(0.547776 0.0146797 0)
(0.557442 -0.0104566 0)
(0.555783 -0.031814 0)
(0.544597 -0.0490022 0)
(0.523934 -0.0620039 0)
(0.496452 -0.0703881 0)
(0.459116 -0.0742025 0)
(0.425495 -0.0734368 0)
(0.367165 -0.0668237 0)
(0.427236 -0.000550814 0)
(0.43042 -0.0130413 0)
(0.421924 -0.0226871 0)
(0.403638 -0.029238 0)
(0.377142 -0.0329098 0)
(0.345135 -0.0338449 0)
(0.308411 -0.0329839 0)
(0.274898 -0.0305872 0)
(0.227801 -0.0290675 0)
(0.197837 -0.00374438 0)
(0.192257 -0.00621172 0)
(0.180394 -0.00744341 0)
(0.16437 -0.007608 0)
(0.146016 -0.00705249 0)
(0.127053 -0.00611783 0)
(0.108419 -0.00536331 0)
(0.0919751 -0.00501248 0)
(0.0690191 -0.00605522 0)
(-0.000618096 0.000481696 0)
(-0.00603575 0.00256999 0)
(-0.0159868 0.0034621 0)
(-0.0257256 0.00348268 0)
(-0.0336151 0.00283549 0)
(-0.0379637 0.00146187 0)
(-0.0375325 -0.000602647 0)
(-0.0345039 -0.00316644 0)
(-0.0129331 -0.00634258 0)
(-0.00308293 0.00623557 0)
(-0.0157216 0.0145857 0)
(-0.0348237 0.0169587 0)
(-0.0519919 0.0152165 0)
(-0.0641467 0.010496 0)
(-0.0688106 0.00322938 0)
(-0.0649586 -0.00588887 0)
(-0.0565062 -0.0155112 0)
(-0.0231977 -0.0248661 0)
(-0.00425171 0.0175173 0)
(-0.0196611 0.034218 0)
(-0.0413532 0.037195 0)
(-0.0595993 0.0312237 0)
(-0.0711451 0.0191847 0)
(-0.073719 0.00273653 0)
(-0.0667428 -0.0163743 0)
(-0.0557477 -0.0349378 0)
(-0.0175787 -0.04964 0)
(-0.00438371 0.0292892 0)
(-0.0188987 0.0535843 0)
(-0.0380425 0.0561047 0)
(-0.0529273 0.0450362 0)
(-0.0608566 0.0252572 0)
(-0.0602297 -0.000190388 0)
(-0.0506367 -0.0287153 0)
(-0.0390947 -0.0557242 0)
(-0.00139922 -0.0733701 0)
(-0.00405477 0.0396635 0)
(-0.0146179 0.0688554 0)
(-0.0260117 0.0698173 0)
(-0.0328453 0.0535483 0)
(-0.0335012 0.0266994 0)
(-0.0273574 -0.00642088 0)
(-0.0141121 -0.0422383 0)
(-0.000515988 -0.0767916 0)
(0.0331212 -0.0958603 0)
(-0.00342732 0.0472524 0)
(-0.0068895 0.0757036 0)
(-0.00424004 0.0733906 0)
(0.00251226 0.0521493 0)
(0.0136474 0.0198542 0)
(0.028877 -0.0185487 0)
(0.0471391 -0.058557 0)
(0.0647452 -0.0971047 0)
(0.0944603 -0.118576 0)
(0.000503409 0.0546746 0)
(0.00856419 0.0707801 0)
(0.0323037 0.061206 0)
(0.0574289 0.0358539 0)
(0.0837041 0.00089492 0)
(0.110137 -0.0391706 0)
(0.134795 -0.0794598 0)
(0.156426 -0.116801 0)
(0.181135 -0.139143 0)
(0.0265728 0.0280842 0)
(0.0502436 0.037383 0)
(0.0998589 0.024844 0)
(0.142984 0.000183524 0)
(0.181628 -0.0322968 0)
(0.216312 -0.0689795 0)
(0.243993 -0.104517 0)
(0.266936 -0.136704 0)
(0.283497 -0.154771 0)
)
;

boundaryField
{
    inlet
    {
        type            fixedValue;
        value           uniform (0.2 0 0);
    }
    outlet
    {
        type            zeroGradient;
    }
    fixedWalls
    {
        type            fixedValue;
        value           uniform (0 0 0);
    }
    frontAndBack
    {
        type            empty;
    }
}


// ************************************************************************* //
