/*--------------------------------*- C++ -*----------------------------------*\
| =========                 |                                                 |
| \\      /  F ield         | OpenFOAM Extend Project: Open source CFD        |
|  \\    /   O peration     | Version:  1.6-ext                               |
|   \\  /    A nd           | Web:      www.extend-project.de                 |
|    \\/     M anipulation  |                                                 |
\*---------------------------------------------------------------------------*/
FoamFile
{
    version     2.0;
    format      ascii;
    class       volVectorField;
    location    "2.6";
    object      U;
}
// * * * * * * * * * * * * * * * * * * * * * * * * * * * * * * * * * * * * * //

dimensions      [0 1 -1 0 0 0 0];

internalField   nonuniform List<vector> 
72
(
(-0.00194641 0.00195066 0)
(-0.00910441 0.00366462 0)
(-0.0178382 0.0031446 0)
(-0.0224574 0.0016072 0)
(-0.0221854 -0.000207643 0)
(-0.0173484 -0.00182564 0)
(-0.00887549 -0.00299909 0)
(-0.0004208 -0.00398511 0)
(0.0155167 -0.0044739 0)
(-0.00394906 0.00905838 0)
(-0.0159575 0.014365 0)
(-0.02859 0.0107192 0)
(-0.0330872 0.00309934 0)
(-0.0285351 -0.00513231 0)
(-0.0160667 -0.0119348 0)
(0.00184684 -0.0161406 0)
(0.0200878 -0.0183723 0)
(0.0466396 -0.0187326 0)
(-0.00487604 0.0199161 0)
(-0.0187809 0.0288034 0)
(-0.0322408 0.0192393 0)
(-0.0351275 0.00172762 0)
(-0.0266948 -0.0164719 0)
(-0.0085635 -0.0309623 0)
(0.0157649 -0.0392331 0)
(0.0404607 -0.0419336 0)
(0.0739355 -0.0404729 0)
(-0.00570297 0.0320356 0)
(-0.0207526 0.0438984 0)
(-0.0339334 0.0269469 0)
(-0.0347613 -0.00211028 0)
(-0.0229012 -0.0317808 0)
(-0.000280825 -0.0548599 0)
(0.0289451 -0.0676274 0)
(0.0584983 -0.0705838 0)
(0.0970075 -0.0659961 0)
(-0.00632929 0.0450701 0)
(-0.020586 0.0583226 0)
(-0.0299992 0.0325898 0)
(-0.026249 -0.00929761 0)
(-0.00986433 -0.0513754 0)
(0.0168151 -0.0832285 0)
(0.0493808 -0.100435 0)
(0.081914 -0.103281 0)
(0.122354 -0.0941067 0)
(-0.00545925 0.0569051 0)
(-0.013354 0.0673172 0)
(-0.010962 0.0315232 0)
(0.00248052 -0.0226635 0)
(0.0256199 -0.0756586 0)
(0.0556312 -0.114914 0)
(0.0885861 -0.135271 0)
(0.120594 -0.137261 0)
(0.157603 -0.122299 0)
(0.00110421 0.0682221 0)
(0.00944598 0.0653922 0)
(0.0353891 0.0182449 0)
(0.0644748 -0.0451562 0)
(0.0953221 -0.104376 0)
(0.126182 -0.147022 0)
(0.154901 -0.167523 0)
(0.181026 -0.167468 0)
(0.207217 -0.146172 0)
(0.0334429 0.0343217 0)
(0.0667663 0.0250517 0)
(0.122617 -0.0224058 0)
(0.166869 -0.0821832 0)
(0.202107 -0.136954 0)
(0.228789 -0.175236 0)
(0.247035 -0.19119 0)
(0.261344 -0.187466 0)
(0.269193 -0.160184 0)
)
;

boundaryField
{
    inlet
    {
        type            fixedValue;
        value           nonuniform 0();
    }
    outlet
    {
        type            zeroGradient;
    }
    fixedWalls
    {
        type            fixedValue;
        value           uniform (0 0 0);
    }
    frontAndBack
    {
        type            empty;
    }
    procBoundary0to1
    {
        type            processor;
        value           nonuniform List<vector> 9((0.203651 -0.0130621 0) (0.234962 -0.0370158 0) (0.278285 -0.0761889 0) (0.314945 -0.122107 0) (0.338746 -0.163785 0) (0.350406 -0.191501 0) (0.350405 -0.199404 0) (0.347919 -0.190902 0) (0.332784 -0.159648 0));
    }
}


// ************************************************************************* //
