/*--------------------------------*- C++ -*----------------------------------*\
| =========                 |                                                 |
| \\      /  F ield         | OpenFOAM Extend Project: Open source CFD        |
|  \\    /   O peration     | Version:  1.6-ext                               |
|   \\  /    A nd           | Web:      www.extend-project.de                 |
|    \\/     M anipulation  |                                                 |
\*---------------------------------------------------------------------------*/
FoamFile
{
    version     2.0;
    format      ascii;
    class       volScalarField;
    location    "2.2";
    object      p;
}
// * * * * * * * * * * * * * * * * * * * * * * * * * * * * * * * * * * * * * //

dimensions      [0 2 -2 0 0 0 0];

internalField   nonuniform List<scalar> 
284
(
0.255889
0.224428
0.212966
0.208017
0.206158
0.206156
0.207021
0.208255
0.21041
0.226666
0.217787
0.212412
0.209885
0.208977
0.209107
0.209738
0.210586
0.212913
0.21478
0.211372
0.208783
0.20761
0.207626
0.208415
0.209433
0.210409
0.213448
0.205395
0.204325
0.20326
0.203025
0.203703
0.204972
0.206301
0.207379
0.211007
0.197696
0.197385
0.196958
0.196972
0.197606
0.198645
0.199564
0.199989
0.203517
0.190736
0.190613
0.190253
0.189928
0.189764
0.189589
0.188848
0.186964
0.188259
0.184158
0.184007
0.183376
0.18229
0.180683
0.178214
0.173993
0.166389
0.160274
0.177991
0.17772
0.176613
0.174479
0.170963
0.165377
0.156114
0.14097
0.0963217
0.172479
0.172043
0.170337
0.166986
0.161167
0.151175
0.131292
0.0925511
-0.00105994
0.16798
0.167327
0.164971
0.160546
0.153191
0.14133
0.120815
0.0885567
0.0351467
0.164954
0.163883
0.160729
0.155405
0.147428
0.135837
0.118741
0.0943072
0.0613094
0.163856
0.161924
0.157549
0.151246
0.14293
0.132007
0.117613
0.0980261
0.074593
0.166343
0.16183
0.155366
0.147832
0.139165
0.128885
0.116438
0.100334
0.0819776
0.172624
0.162814
0.1537
0.14508
0.136392
0.126826
0.115735
0.101905
0.0860431
0.200896
0.16899
0.154362
0.144786
0.136432
0.127723
0.11756
0.104694
0.0894317
-0.133977
-0.101538
-0.0345778
-0.0568322
0.0119494
-0.0175768
0.0419105
0.0165242
0.059317
0.0381517
0.0676721
0.0491313
0.071707
0.0528822
-0.0900966
-0.0814278
-0.0734788
-0.0610684
-0.0444832
-0.0276158
-0.014119
-0.00509232
-0.00135417
-0.0635126
-0.0627619
-0.0577791
-0.0479337
-0.034523
-0.0210632
-0.0106615
-0.00388759
-0.00183917
-0.0305466
-0.0348007
-0.0340471
-0.02906
-0.021257
-0.0131189
-0.00689003
-0.00278624
-0.00218908
0.000858636
-0.0081039
-0.0121189
-0.0122591
-0.00992829
-0.00675766
-0.00417185
-0.00222284
-0.00240601
0.0216946
0.0102587
0.00298845
-0.000995345
-0.0026903
-0.00303824
-0.00284355
-0.00218055
-0.00245727
0.032892
0.0200211
0.0106024
0.00419546
0.00018931
-0.00197389
-0.00280087
-0.00256339
-0.00240046
0.0354305
0.0208845
0.00978611
0.00210425
-0.00254292
-0.00473664
-0.00514007
-0.00431653
-0.00301212
-0.0303456
-0.0303909
-0.0276267
-0.0230704
-0.0173969
-0.0114873
-0.00619612
-0.00217123
0.00194921
-0.0304538
-0.0307668
-0.0284396
-0.0243903
-0.0190224
-0.0130876
-0.00765909
-0.00321062
0.00142024
-0.0330777
-0.0335665
-0.0312173
-0.0268862
-0.0210125
-0.0143305
-0.00830837
-0.00339629
0.00155746
-0.038069
-0.0386325
-0.0360956
-0.0311843
-0.0242488
-0.0163677
-0.00925863
-0.00361194
0.00166709
-0.0459995
-0.0462698
-0.0434897
-0.0377449
-0.0291802
-0.0194841
-0.0107511
-0.00401343
0.00153836
-0.0574138
-0.0564051
-0.0534043
-0.0464667
-0.0356973
-0.0235593
-0.0127321
-0.00461704
0.00106479
-0.0713362
-0.0671376
-0.0640486
-0.0556214
-0.0423954
-0.0275921
-0.0146571
-0.00526966
0.000288762
-0.0973669
-0.0798096
-0.0736972
-0.0625156
-0.0466061
-0.0296653
-0.0154711
-0.0055882
-0.000588331
)
;

boundaryField
{
    inlet
    {
        type            zeroGradient;
    }
    outlet
    {
        type            totalPressure;
        rho             none;
        psi             none;
        gamma           1;
        p0              uniform 0;
        value           uniform 0;
    }
    fixedWalls
    {
        type            zeroGradient;
    }
    frontAndBack
    {
        type            empty;
    }
}


// ************************************************************************* //
