/*--------------------------------*- C++ -*----------------------------------*\
| =========                 |                                                 |
| \\      /  F ield         | OpenFOAM Extend Project: Open source CFD        |
|  \\    /   O peration     | Version:  1.6-ext                               |
|   \\  /    A nd           | Web:      www.extend-project.de                 |
|    \\/     M anipulation  |                                                 |
\*---------------------------------------------------------------------------*/
FoamFile
{
    version     2.0;
    format      ascii;
    class       surfaceScalarField;
    location    "2.2";
    object      phi;
}
// * * * * * * * * * * * * * * * * * * * * * * * * * * * * * * * * * * * * * //

dimensions      [0 3 -1 0 0 0 0];

internalField   nonuniform List<scalar> 
525
(
0.000160895
3.9105e-05
0.000117358
4.35369e-05
8.21237e-05
3.52344e-05
5.55312e-05
2.65926e-05
3.59917e-05
1.95395e-05
2.11803e-05
1.48114e-05
9.50759e-06
1.16727e-05
1.49508e-06
8.01251e-06
1.49508e-06
0.000205082
3.40232e-05
0.000190858
5.77612e-05
0.000163507
6.25847e-05
0.000130879
5.92212e-05
9.74561e-05
5.2962e-05
6.54398e-05
4.68277e-05
3.5935e-05
4.11775e-05
1.16621e-05
3.22854e-05
1.31572e-05
0.00020878
2.52428e-05
0.000208552
5.79891e-05
0.000195052
7.60854e-05
0.00016991
8.43627e-05
0.000136563
8.6309e-05
9.8376e-05
8.50149e-05
5.82812e-05
8.12723e-05
2.1262e-05
6.93046e-05
3.44192e-05
0.000205156
2.00871e-05
0.000208479
5.46662e-05
0.000202932
8.16316e-05
0.000185974
0.000101321
0.000157776
0.000114507
0.000119993
0.000122797
7.52074e-05
0.000126058
2.93813e-05
0.000115131
6.38005e-05
0.000202479
1.76082e-05
0.0002055
5.16456e-05
0.000203661
8.34698e-05
0.00019287
0.000112113
0.000170817
0.00013656
0.000136751
0.000156863
9.11254e-05
0.000171684
3.85634e-05
0.000167693
0.000102364
0.000201361
1.62473e-05
0.000204085
4.89213e-05
0.000204695
8.28604e-05
0.000199155
0.000117653
0.00018388
0.000151834
0.000155948
0.000184794
0.000112652
0.00021498
5.39092e-05
0.000226436
0.000156273
0.000201287
1.496e-05
0.000204807
4.5402e-05
0.000208399
7.92679e-05
0.00020874
0.000117312
0.000202038
0.000158536
0.000184305
0.000202528
0.000148731
0.000250555
8.5357e-05
0.000289809
0.00024163
0.000201814
1.31462e-05
0.000207188
4.00275e-05
0.000214824
7.1632e-05
0.000222353
0.000109783
0.000226496
0.000154394
0.000222946
0.000206077
0.000200639
0.000272862
0.000136543
0.000353906
0.000378173
0.00020269
1.04559e-05
0.000210624
3.20943e-05
0.000223008
5.92474e-05
0.000238771
9.40205e-05
0.000257331
0.000135834
0.000280572
0.000182836
0.000316383
0.000237051
0.000381038
0.000289251
0.000353548
0.000405662
0.000203919
6.53654e-06
0.000214776
2.12377e-05
0.000231566
4.24578e-05
0.000253883
7.17029e-05
0.000282527
0.00010719
0.000320388
0.000144975
0.000371409
0.000186031
0.000450695
0.000209964
0.000272429
0.000531815
0.000205934
6.02302e-07
0.000220041
7.13073e-06
0.000240067
2.24321e-05
0.000265623
4.61471e-05
0.000297573
7.52395e-05
0.000337914
0.000104634
0.00038842
0.000135524
0.000452801
0.000145584
0.000180574
0.000544655
0.000209257
-8.65443e-06
0.000226764
-1.03764e-05
0.000247933
1.26319e-06
0.000273146
2.09341e-05
0.000303748
4.46374e-05
0.000341341
6.70408e-05
0.000387972
8.88933e-05
0.00043956
9.39956e-05
0.000107357
0.000512777
0.000214288
-2.29428e-05
0.000231415
-2.75033e-05
0.000248501
-1.58226e-05
0.000268289
1.14572e-06
0.000293391
1.95354e-05
0.000325295
3.51371e-05
0.000365649
4.8539e-05
0.000408135
5.15103e-05
5.4397e-05
0.000461094
0.000211415
-3.4358e-05
0.000215751
-3.18388e-05
0.000218727
-1.87988e-05
0.00022615
-6.27734e-06
0.000241581
4.1044e-06
0.000265213
1.15054e-05
0.000296826
1.6926e-05
0.000330512
1.78243e-05
1.75108e-05
0.000367398
0.000165642
0.000133803
0.000115004
0.000108727
0.000112831
0.000124337
0.000141263
0.000159087
0.000176598
0.000257619
0.000148044
4.61404e-05
0.000211478
0.000514741
0.000165118
6.96535e-05
0.000491227
0.000580544
0.00012923
6.21694e-05
0.000588028
0.000559699
8.2308e-05
3.97314e-05
0.000582137
0.000502671
4.07314e-05
1.59494e-05
0.000526453
0.000396416
1.1713e-05
1.44533e-06
0.000410921
0.000188311
0.000189756
0.000231868
-1.41627e-05
-6.22728e-06
0.000270744
-5.96522e-05
2.07761e-05
0.000303917
-0.00010952
7.63469e-05
0.000325266
-0.000156334
0.000134986
0.000334646
-0.000188228
0.000178847
0.000334675
-0.000198669
0.00019864
0.000328845
-0.000188085
0.000193915
0.000320866
-0.000164853
0.000172833
-0.000128211
0.000135976
0.000476741
3.23649e-07
0.000474467
-5.73783e-05
0.000472017
-0.00010707
0.000462818
-0.000147135
0.000445463
-0.000170873
0.000421859
-0.000175065
0.000395722
-0.000161947
0.000370573
-0.000139704
-0.000108129
0.000584478
3.87289e-06
0.000575028
-4.7928e-05
0.000558377
-9.04184e-05
0.000533058
-0.000121816
0.000500064
-0.000137879
0.000462481
-0.000137482
0.000424652
-0.000124118
0.000389833
-0.000104886
-8.11553e-05
0.000589255
-3.24504e-06
0.000581938
-4.06107e-05
0.000562365
-7.08456e-05
0.000531548
-9.09989e-05
0.000492443
-9.87744e-05
0.000449593
-9.46318e-05
0.000407999
-8.25238e-05
0.000370795
-6.76818e-05
-5.27287e-05
0.000532863
-9.65493e-06
0.000523877
-3.16249e-05
0.000500792
-4.77611e-05
0.000466272
-5.64781e-05
0.00042479
-5.72932e-05
0.000381866
-5.17075e-05
0.000342332
-4.29896e-05
0.000308713
-3.40627e-05
-2.74808e-05
0.000409596
-8.33e-06
0.00039376
-1.57898e-05
0.000366107
-2.01076e-05
0.000330777
-2.11478e-05
0.000292941
-1.94577e-05
0.000257406
-1.61724e-05
0.000227109
-1.26926e-05
0.000202948
-9.90181e-06
-9.14908e-06
0.000181426
0.000165636
0.000145529
0.000124381
0.000104923
8.87509e-05
7.60583e-05
6.61565e-05
-5.24586e-06
5.24586e-06
-1.26014e-05
7.35553e-06
-1.68008e-05
4.19942e-06
-1.61803e-05
-6.20487e-07
-1.11381e-05
-5.04226e-06
-3.10158e-06
-8.03649e-06
6.18095e-06
-9.28252e-06
1.5665e-05
-9.48406e-06
-9.43404e-06
-8.47432e-06
1.37202e-05
-1.83862e-05
1.72674e-05
-2.18935e-05
7.7068e-06
-1.66884e-05
-5.8256e-06
-3.83396e-06
-1.78967e-05
1.35862e-05
-2.54567e-05
3.25999e-05
-2.82962e-05
5.05391e-05
-2.74232e-05
-2.51105e-05
-1.0094e-05
2.38142e-05
-2.09031e-05
2.80765e-05
-2.3113e-05
9.91673e-06
-1.40513e-05
-1.48873e-05
4.44163e-06
-3.63897e-05
2.84921e-05
-4.95072e-05
5.40093e-05
-5.38133e-05
7.76446e-05
-5.10585e-05
-4.48489e-05
-1.22284e-05
3.60426e-05
-2.41256e-05
3.99736e-05
-2.51978e-05
1.09889e-05
-1.29348e-05
-2.71503e-05
1.02579e-05
-5.95823e-05
3.96041e-05
-7.88534e-05
7.0215e-05
-8.44242e-05
9.82754e-05
-7.91189e-05
-6.75023e-05
-1.38056e-05
4.98482e-05
-2.44705e-05
5.06386e-05
-2.20516e-05
8.56994e-06
-5.3543e-06
-4.38475e-05
2.2197e-05
-8.71336e-05
5.56473e-05
-0.000112304
8.96545e-05
-0.000118431
0.000120368
-0.000109833
-9.14467e-05
-1.09222e-05
6.07703e-05
-1.26215e-05
5.23379e-05
-1.24804e-06
-2.80352e-06
2.20227e-05
-6.71183e-05
5.35269e-05
-0.000118638
8.84045e-05
-0.000147181
0.000122186
-0.000152213
0.000151958
-0.000139605
-0.000113812
4.35255e-06
5.64178e-05
2.41057e-05
3.25848e-05
5.20774e-05
-3.07752e-05
8.35657e-05
-9.86066e-05
0.00011612
-0.000151192
0.0001473
-0.000178361
0.000174871
-0.000179783
0.000198019
-0.000162753
-0.000130255
5.01905e-05
0.000103551
0.000149123
0.000185502
0.000213158
0.000233436
0.000247568
0.000257647
)
;

boundaryField
{
    inlet
    {
        type            calculated;
        value           uniform -0.0002;
    }
    outlet
    {
        type            calculated;
        value           nonuniform List<scalar> 
15
(
2.5099e-05
6.62155e-05
9.7383e-05
0.000120929
0.000144313
0.000174323
0.000214461
0.000263368
0.000313101
0.000350491
0.00036286
0.000342368
0.000283465
0.000184616
5.70074e-05
)
;
    }
    fixedWalls
    {
        type            calculated;
        value           uniform 0;
    }
    frontAndBack
    {
        type            empty;
    }
}


// ************************************************************************* //
