/*--------------------------------*- C++ -*----------------------------------*\
| =========                 |                                                 |
| \\      /  F ield         | OpenFOAM Extend Project: Open source CFD        |
|  \\    /   O peration     | Version:  1.6-ext                               |
|   \\  /    A nd           | Web:      www.extend-project.de                 |
|    \\/     M anipulation  |                                                 |
\*---------------------------------------------------------------------------*/
FoamFile
{
    version     2.0;
    format      ascii;
    class       volVectorField;
    location    "2.2";
    object      U;
}
// * * * * * * * * * * * * * * * * * * * * * * * * * * * * * * * * * * * * * //

dimensions      [0 1 -1 0 0 0 0];

internalField   nonuniform List<vector> 
284
(
(0.16378 0.0265877 0)
(0.141933 0.026753 0)
(0.0992157 0.019109 0)
(0.0672571 0.0120177 0)
(0.0447319 0.00707607 0)
(0.0279611 0.00425404 0)
(0.0147627 0.00270285 0)
(0.00391715 0.00119861 0)
(-0.000484986 -0.00108255 0)
(0.200609 0.0432706 0)
(0.20231 0.0573145 0)
(0.180146 0.052815 0)
(0.14815 0.0434556 0)
(0.114256 0.0342117 0)
(0.0812402 0.027271 0)
(0.0499508 0.0222321 0)
(0.0209561 0.0160547 0)
(0.00362301 0.00461331 0)
(0.203108 0.0288813 0)
(0.21123 0.0590158 0)
(0.205187 0.0713252 0)
(0.185201 0.0735708 0)
(0.155096 0.0704642 0)
(0.11863 0.0655944 0)
(0.0784258 0.0598741 0)
(0.0365595 0.0488235 0)
(0.00786553 0.0222455 0)
(0.201537 0.0221114 0)
(0.207796 0.0562542 0)
(0.20824 0.0798084 0)
(0.197546 0.0943124 0)
(0.174778 0.101707 0)
(0.141355 0.10456 0)
(0.0989673 0.10342 0)
(0.0493758 0.0910485 0)
(0.0118067 0.0477993 0)
(0.200579 0.0186066 0)
(0.20419 0.0530033 0)
(0.206174 0.083033 0)
(0.200963 0.107799 0)
(0.185032 0.126815 0)
(0.157171 0.140824 0)
(0.116728 0.149084 0)
(0.0629103 0.140427 0)
(0.0170199 0.0815385 0)
(0.200247 0.016851 0)
(0.202592 0.0502872 0)
(0.205269 0.0836372 0)
(0.203994 0.115971 0)
(0.194523 0.145732 0)
(0.173841 0.172426 0)
(0.138668 0.194465 0)
(0.0834685 0.196802 0)
(0.0268033 0.126269 0)
(0.200227 0.0156197 0)
(0.202678 0.04738 0)
(0.206928 0.0817567 0)
(0.209975 0.118854 0)
(0.207896 0.157256 0)
(0.197139 0.196215 0)
(0.173095 0.234282 0)
(0.120634 0.25343 0)
(0.0471626 0.196378 0)
(0.200347 0.0141309 0)
(0.203833 0.0431148 0)
(0.2108 0.0763649 0)
(0.219287 0.115214 0)
(0.226181 0.159166 0)
(0.228462 0.208701 0)
(0.219558 0.270421 0)
(0.193591 0.337612 0)
(0.0598789 0.285024 0)
(0.200542 0.0119321 0)
(0.205632 0.0365839 0)
(0.216084 0.0664442 0)
(0.230878 0.103569 0)
(0.248425 0.147783 0)
(0.271065 0.198855 0)
(0.296964 0.262875 0)
(0.354143 0.342043 0)
(0.396787 0.422973 0)
(0.200829 0.00871215 0)
(0.207988 0.0272974 0)
(0.222025 0.0518156 0)
(0.242096 0.0841941 0)
(0.267321 0.123441 0)
(0.301558 0.166851 0)
(0.342261 0.216149 0)
(0.408263 0.253792 0)
(0.488599 0.327902 0)
(0.201375 0.00412976 0)
(0.21143 0.0149758 0)
(0.228795 0.0331961 0)
(0.251932 0.0595882 0)
(0.280376 0.0919275 0)
(0.316758 0.125495 0)
(0.361009 0.161305 0)
(0.417168 0.173788 0)
(0.4955 0.219571 0)
(0.202426 -0.00312853 0)
(0.216594 -0.000963383 0)
(0.236349 0.0117657 0)
(0.259653 0.0329968 0)
(0.287349 0.0591501 0)
(0.321135 0.084779 0)
(0.363391 0.110811 0)
(0.410994 0.116709 0)
(0.473252 0.13648 0)
(0.204194 -0.014313 0)
(0.222258 -0.0193243 0)
(0.239586 -0.00908435 0)
(0.257522 0.00896274 0)
(0.27969 0.029872 0)
(0.307764 0.0489656 0)
(0.344443 0.0664779 0)
(0.385244 0.0706367 0)
(0.433153 0.076127 0)
(0.201739 -0.0355061 0)
(0.214598 -0.0375744 0)
(0.217144 -0.0234822 0)
(0.221022 -0.00698086 0)
(0.232252 0.00818504 0)
(0.251693 0.0200452 0)
(0.280055 0.0291366 0)
(0.312718 0.0309634 0)
(0.348717 0.0308949 0)
(0.164636 -0.0249679 0)
(0.150842 -0.0225051 0)
(0.123062 -0.0128061 0)
(0.109589 -0.0048795 0)
(0.109168 0.000709658 0)
(0.117458 0.00422439 0)
(0.132268 0.00629171 0)
(0.149914 0.00620694 0)
(0.168215 0.00529967 0)
(0.358671 0.161718 0)
(0.199534 0.0381703 0)
(0.543183 0.164735 0)
(0.506384 0.0638343 0)
(0.57148 0.151235 0)
(0.592935 0.0756086 0)
(0.539557 0.104138 0)
(0.577083 0.0523467 0)
(0.483434 0.0579731 0)
(0.518488 0.0257658 0)
(0.383496 0.0211259 0)
(0.406738 0.00480333 0)
(0.183735 0.00201157 0)
(0.190838 -0.00237328 0)
(0.213416 -0.0186489 0)
(0.247899 -0.0532898 0)
(0.289765 -0.102698 0)
(0.319973 -0.15318 0)
(0.334728 -0.189814 0)
(0.33758 -0.20429 0)
(0.33197 -0.196148 0)
(0.32571 -0.173484 0)
(0.312256 -0.135663 0)
(0.482705 -0.00697017 0)
(0.474328 -0.0612609 0)
(0.475106 -0.111545 0)
(0.471695 -0.154881 0)
(0.457851 -0.182783 0)
(0.435674 -0.190283 0)
(0.407851 -0.178412 0)
(0.384068 -0.155498 0)
(0.351893 -0.12066 0)
(0.59065 0.00791124 0)
(0.581978 -0.0488078 0)
(0.569618 -0.0970001 0)
(0.549562 -0.134186 0)
(0.51947 -0.155051 0)
(0.482643 -0.157484 0)
(0.442066 -0.14439 0)
(0.408257 -0.123598 0)
(0.365649 -0.0956207 0)
(0.590729 0.000956184 0)
(0.589472 -0.0438327 0)
(0.576063 -0.0806807 0)
(0.550669 -0.106896 0)
(0.51437 -0.119022 0)
(0.471878 -0.116668 0)
(0.427163 -0.103651 0)
(0.390158 -0.0862592 0)
(0.345831 -0.0667312 0)
(0.534159 -0.00783054 0)
(0.53268 -0.0374797 0)
(0.516246 -0.0605922 0)
(0.486617 -0.0747453 0)
(0.447057 -0.0784015 0)
(0.403381 -0.0727044 0)
(0.36042 -0.0615919 0)
(0.325594 -0.0492557 0)
(0.286978 -0.0386931 0)
(0.41395 -0.0119738 0)
(0.405266 -0.025506 0)
(0.382827 -0.0341565 0)
(0.350125 -0.0372178 0)
(0.312115 -0.03516 0)
(0.27439 -0.0297666 0)
(0.240786 -0.0235365 0)
(0.214547 -0.0181555 0)
(0.18764 -0.0157006 0)
(0.187423 -0.00611904 0)
(0.174949 -0.00827204 0)
(0.156374 -0.00869061 0)
(0.13508 -0.00777506 0)
(0.11426 -0.0061765 0)
(0.0962108 -0.00452065 0)
(0.0818024 -0.00328723 0)
(0.070881 -0.00266375 0)
(0.0590235 -0.00317446 0)
(-0.00224525 0.00221929 0)
(-0.00897543 0.00342185 0)
(-0.0156746 0.00236572 0)
(-0.0174723 0.000558923 0)
(-0.0143713 -0.00118502 0)
(-0.00747664 -0.00247178 0)
(0.00145849 -0.00307239 0)
(0.0103984 -0.00340814 0)
(0.0231123 -0.00375181 0)
(-0.00388331 0.00892987 0)
(-0.0139972 0.0119882 0)
(-0.0221585 0.00641036 0)
(-0.0212403 -0.00188211 0)
(-0.0116844 -0.00939644 0)
(0.00429151 -0.0143165 0)
(0.0231405 -0.0163274 0)
(0.0413018 -0.0163114 0)
(0.0632541 -0.0156901 0)
(-0.00478126 0.0184372 0)
(-0.0164834 0.0225035 0)
(-0.0247004 0.00914934 0)
(-0.02113 -0.0093932 0)
(-0.00649215 -0.0257145 0)
(0.0159307 -0.0358565 0)
(0.0414508 -0.0394857 0)
(0.0656836 -0.0378798 0)
(0.0937941 -0.0339781 0)
(-0.00602393 0.0296581 0)
(-0.0196753 0.0340207 0)
(-0.0279586 0.0109417 0)
(-0.0220767 -0.0199711 0)
(-0.00319358 -0.0466607 0)
(0.0244889 -0.0628379 0)
(0.0552806 -0.0679157 0)
(0.0842146 -0.0640921 0)
(0.116897 -0.0555227 0)
(-0.00729544 0.0429584 0)
(-0.0215636 0.0461048 0)
(-0.0270282 0.0112094 0)
(-0.0169002 -0.0343815 0)
(0.00669435 -0.0724728 0)
(0.0388012 -0.0949266 0)
(0.0732628 -0.100957 0)
(0.1052 -0.0941108 0)
(0.140031 -0.0793644 0)
(-0.00678064 0.0559113 0)
(-0.0156245 0.0537237 0)
(-0.0105416 0.00531875 0)
(0.00813264 -0.0545156 0)
(0.0372485 -0.103061 0)
(0.0715639 -0.130556 0)
(0.106206 -0.136347 0)
(0.137556 -0.125634 0)
(0.170071 -0.10352 0)
(0.000638797 0.0697818 0)
(0.00903864 0.0522505 0)
(0.0368446 -0.0114554 0)
(0.0683482 -0.081776 0)
(0.101377 -0.13641 0)
(0.133431 -0.165464 0)
(0.16224 -0.168968 0)
(0.187155 -0.153859 0)
(0.21066 -0.124243 0)
(0.0362082 0.0330259 0)
(0.0716479 0.00894941 0)
(0.128133 -0.0534489 0)
(0.171369 -0.119486 0)
(0.203245 -0.169173 0)
(0.226103 -0.193211 0)
(0.24153 -0.191534 0)
(0.25336 -0.172049 0)
(0.260614 -0.136466 0)
)
;

boundaryField
{
    inlet
    {
        type            fixedValue;
        value           uniform (0.2 0 0);
    }
    outlet
    {
        type            zeroGradient;
    }
    fixedWalls
    {
        type            fixedValue;
        value           uniform (0 0 0);
    }
    frontAndBack
    {
        type            empty;
    }
}


// ************************************************************************* //
