/*--------------------------------*- C++ -*----------------------------------*\
| =========                 |                                                 |
| \\      /  F ield         | OpenFOAM Extend Project: Open source CFD        |
|  \\    /   O peration     | Version:  1.6-ext                               |
|   \\  /    A nd           | Web:      www.extend-project.de                 |
|    \\/     M anipulation  |                                                 |
\*---------------------------------------------------------------------------*/
FoamFile
{
    version     2.0;
    format      ascii;
    class       volScalarField;
    location    "2.4";
    object      p;
}
// * * * * * * * * * * * * * * * * * * * * * * * * * * * * * * * * * * * * * //

dimensions      [0 2 -2 0 0 0 0];

internalField   nonuniform List<scalar> 
70
(
-0.0985377
-0.0541627
-0.0153339
0.0187483
0.040464
0.0514481
0.0553355
-0.0869531
-0.078462
-0.0720375
-0.0621275
-0.0478315
-0.0317727
-0.0176741
-0.00718448
-0.00200211
-0.0606965
-0.0604623
-0.0569147
-0.04914
-0.0374412
-0.0244717
-0.0134951
-0.00551816
-0.00240376
-0.0286681
-0.0334647
-0.0336944
-0.0299821
-0.0231777
-0.0152809
-0.00866776
-0.00380536
-0.00263245
0.00283873
-0.00664523
-0.0114325
-0.0123828
-0.0106393
-0.00765485
-0.00495985
-0.00270395
-0.0027423
0.0237806
0.01187
0.00406561
-0.000411018
-0.00247293
-0.0030317
-0.00295082
-0.00230501
-0.00271295
0.0350044
0.0217815
0.0119695
0.00520453
0.000888682
-0.00154673
-0.00261557
-0.00255024
-0.00261682
0.03766
0.0227708
0.0112678
0.0031619
-0.00189823
-0.00445527
-0.00513236
-0.00446255
-0.00331423
)
;

boundaryField
{
    inlet
    {
        type            zeroGradient;
    }
    outlet
    {
        type            totalPressure;
        rho             none;
        psi             none;
        gamma           1;
        p0              uniform 0;
        value           uniform 0;
    }
    fixedWalls
    {
        type            zeroGradient;
    }
    frontAndBack
    {
        type            empty;
    }
    procBoundary1to2
    {
        type            processor;
        value           nonuniform List<scalar> 7(-0.13171 -0.0320874 0.0143964 0.0443291 0.0617302 0.0700574 0.0741844);
    }
    procBoundary1to0
    {
        type            processor;
        value           nonuniform List<scalar> 9(-0.0939984 -0.0767512 -0.0724598 -0.0637028 -0.050109 -0.0340271 -0.0192207 -0.0078197 -0.00120943);
    }
}


// ************************************************************************* //
