/*--------------------------------*- C++ -*----------------------------------*\
| =========                 |                                                 |
| \\      /  F ield         | OpenFOAM Extend Project: Open source CFD        |
|  \\    /   O peration     | Version:  1.6-ext                               |
|   \\  /    A nd           | Web:      www.extend-project.de                 |
|    \\/     M anipulation  |                                                 |
\*---------------------------------------------------------------------------*/
FoamFile
{
    version     2.0;
    format      ascii;
    class       volVectorField;
    location    "2.4";
    object      U;
}
// * * * * * * * * * * * * * * * * * * * * * * * * * * * * * * * * * * * * * //

dimensions      [0 1 -1 0 0 0 0];

internalField   nonuniform List<vector> 
70
(
(0.196237 0.0392341 0)
(0.504635 0.0674759 0)
(0.594039 0.0807226 0)
(0.578829 0.0571651 0)
(0.519556 0.0292024 0)
(0.407235 0.00647049 0)
(0.191404 -0.00204444 0)
(0.208105 -0.0154403 0)
(0.241037 -0.0441272 0)
(0.284006 -0.0881921 0)
(0.317905 -0.13686 0)
(0.337473 -0.17701 0)
(0.34474 -0.19909 0)
(0.341729 -0.19945 0)
(0.337068 -0.183687 0)
(0.322549 -0.148526 0)
(0.479153 -0.00223334 0)
(0.470087 -0.0537591 0)
(0.47259 -0.100943 0)
(0.473753 -0.143586 0)
(0.465597 -0.174897 0)
(0.448474 -0.188921 0)
(0.423216 -0.183887 0)
(0.400682 -0.166097 0)
(0.365927 -0.132561 0)
(0.591407 0.0139277 0)
(0.583124 -0.0418168 0)
(0.572944 -0.0890471 0)
(0.556952 -0.127045 0)
(0.531556 -0.151563 0)
(0.498542 -0.159427 0)
(0.459197 -0.15127 0)
(0.425438 -0.133497 0)
(0.379022 -0.105526 0)
(0.593324 0.00593695 0)
(0.593427 -0.0387941 0)
(0.582319 -0.0758345 0)
(0.560135 -0.103504 0)
(0.52697 -0.118849 0)
(0.486393 -0.120417 0)
(0.441273 -0.1104 0)
(0.402917 -0.0942166 0)
(0.354233 -0.0739663 0)
(0.536758 -0.00450081 0)
(0.537004 -0.0344863 0)
(0.522582 -0.0582422 0)
(0.495105 -0.0738752 0)
(0.457029 -0.0798543 0)
(0.413369 -0.0764307 0)
(0.368599 -0.0666452 0)
(0.331366 -0.0543774 0)
(0.288614 -0.0430604 0)
(0.416028 -0.0105086 0)
(0.408879 -0.0243982 0)
(0.38785 -0.0336061 0)
(0.356128 -0.0375394 0)
(0.318097 -0.0364919 0)
(0.279081 -0.0318352 0)
(0.243174 -0.0258563 0)
(0.214512 -0.0202759 0)
(0.184497 -0.0175413 0)
(0.188937 -0.00588266 0)
(0.17719 -0.00816572 0)
(0.159067 -0.00874518 0)
(0.137809 -0.00799748 0)
(0.11647 -0.00653053 0)
(0.0974091 -0.00493387 0)
(0.0817365 -0.00369934 0)
(0.0696349 -0.00304005 0)
(0.0562267 -0.00356022 0)
)
;

boundaryField
{
    inlet
    {
        type            fixedValue;
        value           nonuniform 0();
    }
    outlet
    {
        type            zeroGradient;
    }
    fixedWalls
    {
        type            fixedValue;
        value           uniform (0 0 0);
    }
    frontAndBack
    {
        type            empty;
    }
    procBoundary1to2
    {
        type            processor;
        value           nonuniform List<vector> 7((0.357877 0.163044 0) (0.543751 0.168085 0) (0.572969 0.155492 0) (0.540595 0.108016 0) (0.48319 0.060792 0) (0.382483 0.022628 0) (0.18328 0.00239125 0));
    }
    procBoundary1to0
    {
        type            processor;
        value           nonuniform List<vector> 9((0.0347647 0.0339973 0) (0.0690774 0.018158 0) (0.1253 -0.0365184 0) (0.169144 -0.0999564 0) (0.202739 -0.153283 0) (0.227496 -0.185496 0) (0.244285 -0.193134 0) (0.257319 -0.181333 0) (0.264932 -0.149239 0));
    }
}


// ************************************************************************* //
