/*--------------------------------*- C++ -*----------------------------------*\
| =========                 |                                                 |
| \\      /  F ield         | OpenFOAM Extend Project: Open source CFD        |
|  \\    /   O peration     | Version:  1.6-ext                               |
|   \\  /    A nd           | Web:      www.extend-project.de                 |
|    \\/     M anipulation  |                                                 |
\*---------------------------------------------------------------------------*/
FoamFile
{
    version     2.0;
    format      ascii;
    class       volSymmTensorField;
    location    "1.2";
    object      DSigma;
}
// * * * * * * * * * * * * * * * * * * * * * * * * * * * * * * * * * * * * * //

dimensions      [1 -1 -2 0 0 0 0];

internalField   nonuniform List<symmTensor> 
328
(
(-0.00619343 -0.00104175 1.02806e-23 -0.00216934 -3.80854e-20 -0.00334511)
(-0.00644409 -4.8778e-05 -3.79127e-27 -0.00365596 1.92695e-27 -0.00404002)
(-0.00693358 0.00131005 -1.7857e-26 -0.0038421 3.56382e-26 -0.00431027)
(-0.00931379 0.00199263 -6.67224e-24 -0.0033022 1.93665e-20 -0.0050464)
(-0.00583573 -0.000638344 -6.21937e-25 -0.00124418 3.45388e-22 -0.00283196)
(-0.00646627 0.000113044 -1.16961e-26 -0.00259933 6.09937e-27 -0.00362624)
(-0.00693949 0.00124549 1.16973e-26 -0.00260611 -6.09999e-27 -0.00381824)
(-0.00859401 0.00146547 3.33617e-24 -0.00200547 1.97271e-22 -0.00423979)
(-0.00584277 -0.00029423 -9.37863e-24 -0.000705711 4.23998e-20 -0.00261939)
(-0.0068243 0.000273912 0 -0.00197117 0 -0.00351819)
(-0.00731598 0.00115128 1.79914e-24 -0.00190904 -1.56638e-24 -0.00369001)
(-0.00829983 0.0010336 9.26681e-24 -0.00123389 -4.38399e-20 -0.00381348)
(-0.00583366 -4.36097e-05 3.04871e-25 -0.000334582 -2.03994e-22 -0.0024673)
(-0.00694018 0.000426942 -2.46671e-25 -0.00137814 1.20751e-25 -0.00332733)
(-0.00738906 0.00103512 -1.73412e-24 -0.00126988 1.68726e-24 -0.00346358)
(-0.00795362 0.00072469 1.14659e-24 -0.000695897 2.05928e-20 -0.00345981)
(-0.00593386 0.000123554 1.0252e-23 -0.000126988 -3.8146e-20 -0.00242434)
(-0.0070773 0.000552616 -3.26567e-25 -0.000964041 1.57604e-25 -0.00321654)
(-0.00747478 0.000924234 -6.76431e-24 -0.000846556 5.37283e-24 -0.00332853)
(-0.00771156 0.000519769 -1.23229e-23 -0.000373941 1.99215e-20 -0.0032342)
(-0.00607565 0.000229787 -6.65742e-25 -1.20372e-05 -2.58156e-24 -0.00243507)
(-0.00714056 0.00064809 0 -0.000636743 0 -0.00311092)
(-0.00746455 0.00083027 5.88716e-24 -0.000524232 -4.41651e-24 -0.00319551)
(-0.00749032 0.000388452 -1.22646e-23 -0.00017281 -1.81665e-20 -0.00306525)
(-0.00626656 0.000291302 8.5844e-24 3.61841e-05 1.72363e-20 -0.00249215)
(-0.00718876 0.000711909 -1.65493e-23 -0.000406058 4.49025e-24 -0.00303793)
(-0.00742882 0.000759068 0 -0.000310898 0 -0.00309589)
(-0.00729984 0.000309381 -1.16062e-23 -5.53498e-05 1.73811e-20 -0.00294208)
(-0.0064876 0.000322144 -8.20824e-24 4.46968e-05 -1.48834e-20 -0.00257716)
(-0.007213 0.000748418 1.76481e-23 -0.000240486 -5.24544e-24 -0.00298139)
(-0.00735761 0.000709628 -4.67649e-24 -0.000168578 3.00566e-24 -0.00301048)
(-0.00711766 0.000265032 5.46879e-23 1.43431e-05 -1.64591e-20 -0.00284133)
(-0.00673269 0.000332342 -7.24394e-24 2.81523e-05 1.42189e-20 -0.00268181)
(-0.00723096 0.000762725 0 -0.000128933 0 -0.00294396)
(-0.00727135 0.000678566 0 -8.45266e-05 0 -0.00294235)
(-0.00693686 0.000243305 -4.57141e-23 5.57123e-05 -1.43178e-22 -0.00275246)
(-0.00699361 0.000329659 -7.39006e-24 -2.5088e-06 1.26507e-20 -0.00279845)
(-0.00724622 0.00076089 -2.32127e-23 -5.47882e-05 8.16258e-24 -0.0029204)
(-0.00717376 0.000660884 2.42791e-23 -4.0394e-05 -1.44989e-23 -0.00288566)
(-0.00674783 0.000235209 2.26339e-23 8.26675e-05 1.19354e-20 -0.00266607)
(-0.00726585 0.000319567 5.06514e-24 -4.07844e-05 9.22375e-23 -0.00292265)
(-0.00726548 0.000748265 7.20433e-23 -7.14606e-06 -2.60971e-23 -0.00290905)
(-0.00707217 0.000651716 -2.26378e-23 -2.4755e-05 1.35188e-23 -0.00283877)
(-0.0065451 0.000234588 1.57808e-23 0.000103303 -2.3818e-20 -0.00257672)
(-0.00754612 0.000305916 -4.30609e-23 -8.24803e-05 -2.0079e-20 -0.00305144)
(-0.00729139 0.000729324 -9.47285e-23 2.3855e-05 3.45628e-23 -0.00290701)
(-0.00696929 0.000646818 4.90517e-23 -2.74096e-05 -2.8244e-23 -0.00279868)
(-0.00632446 0.000237219 -8.08822e-24 0.00012271 1.0853e-20 -0.0024807)
(-0.00783294 0.000291161 8.85443e-23 -0.000125269 2.00537e-20 -0.00318328)
(-0.00732587 0.000707291 6.41373e-23 4.51723e-05 -2.53847e-23 -0.00291228)
(-0.00686716 0.000642988 -6.53651e-23 -4.13419e-05 3.55647e-23 -0.0027634)
(-0.00608365 0.000240427 6.01826e-23 0.000143726 -9.17623e-23 -0.00237597)
(-0.00812591 0.000276713 -3.71227e-23 -0.000167973 -1.36098e-21 -0.00331755)
(-0.00736915 0.000684244 1.61996e-25 6.19176e-05 -2.45059e-24 -0.00292289)
(-0.00676603 0.000638054 4.66546e-23 -6.14379e-05 -2.57049e-23 -0.00273099)
(-0.00582165 0.000242642 -5.60568e-23 0.000167832 1.90122e-23 -0.00226153)
(-0.00842542 0.000263193 -1.7162e-23 -0.000210218 2.45549e-21 -0.00345425)
(-0.00742073 0.000661238 0 7.7339e-05 0 -0.00293736)
(-0.00666546 0.000630736 -1.05237e-22 -8.44717e-05 5.36e-23 -0.00269997)
(-0.00553843 0.000243088 3.25706e-23 0.000195616 1.52416e-20 -0.00213713)
(-0.00873216 0.000250681 3.42381e-23 -0.000252087 2.07432e-21 -0.0035937)
(-0.00747944 0.000638553 3.19648e-23 9.33539e-05 -9.10182e-24 -0.00295443)
(-0.00656439 0.000620403 -6.35791e-24 -0.000108551 1.49424e-24 -0.00266918)
(-0.00523459 0.000241503 -8.40991e-23 0.000227109 -6.85836e-21 -0.00200299)
(-0.0090468 0.00023892 -5.94424e-23 -0.000293901 -3.61471e-21 -0.00373628)
(-0.00754383 0.000615936 0 0.000110862 0 -0.00297319)
(-0.00646157 0.000606828 6.10464e-23 -0.000132756 -2.93874e-23 -0.00263773)
(-0.00491112 0.000237917 7.05048e-23 0.000262045 -8.66453e-21 -0.00185963)
(-0.00936961 0.000227483 -1.53233e-22 -0.000336026 9.90757e-24 -0.00388225)
(-0.00761235 0.000592809 -1.12234e-22 0.000130134 2.97206e-23 -0.00299288)
(-0.00635579 0.000589964 -1.57409e-24 -0.000156777 -3.04046e-24 -0.00260503)
(-0.00456927 0.000232484 -2.00297e-22 0.000299988 4.92196e-21 -0.00170771)
(-0.0097002 0.000215891 1.55572e-22 -0.000378754 -8.73619e-21 -0.00403158)
(-0.00768343 0.000568457 6.65824e-23 0.000151054 -1.67284e-23 -0.00301295)
(-0.00624603 0.000569804 6.95432e-23 -0.000180625 -2.25637e-23 -0.00257066)
(-0.00421055 0.000225374 1.96463e-22 0.00034044 -9.02062e-21 -0.00154804)
(-0.0100375 0.000203696 -1.16737e-23 -0.000422258 7.41439e-21 -0.00418389)
(-0.00775557 0.000542122 1.56539e-22 0.000173332 -2.92194e-23 -0.00303289)
(-0.00613155 0.000546266 -6.56045e-23 -0.000204411 2.42951e-23 -0.00253438)
(-0.00383661 0.000216702 6.56836e-23 0.000382925 -7.12482e-23 -0.00138147)
(-0.010379 0.000190506 1.05733e-23 -0.000466478 -2.5606e-21 -0.00433817)
(-0.00782708 0.000513151 -1.38692e-22 0.000196606 3.37923e-23 -0.00305219)
(-0.00601202 0.00051926 -5.5068e-24 -0.000228259 -4.10397e-24 -0.00249611)
(-0.00345001 0.000206547 1.16759e-22 0.000426819 2.84188e-21 -0.00120928)
(-0.0107225 0.000175922 1.8595e-22 -0.000511503 1.07406e-22 -0.0044936)
(-0.00789656 0.00048073 -1.69498e-23 0.000220409 -1.23436e-23 -0.00307046)
(-0.00588708 0.000488348 2.62715e-22 -0.000252039 -5.1901e-23 -0.00245565)
(-0.0030523 0.000194746 -2.52528e-22 0.000472041 9.60697e-22 -0.00103211)
(-0.0110728 0.000158136 -3.4421e-22 -0.000557167 -3.15507e-23 -0.00465197)
(-0.00796378 0.00044129 2.86716e-22 0.000245741 -6.56402e-24 -0.00308722)
(-0.00575261 0.000450292 -2.68938e-22 -0.000277096 1.55321e-23 -0.00241188)
(-0.0026354 0.000179969 2.191e-22 0.000517884 -1.58038e-22 -0.000847005)
(-0.0114123 0.000140999 1.82492e-22 -0.000601776 6.20963e-23 -0.00480562)
(-0.0080244 0.000403072 0 0.000270902 0 -0.0031014)
(-0.00561361 0.000413437 0 -0.000301746 0 -0.00236614)
(-0.0022177 0.000166115 -1.84514e-23 0.000563055 4.625e-21 -0.000661858)
(-0.011717 0.000123576 -2.27205e-22 -0.000643035 -9.94711e-22 -0.004944)
(-0.00807307 0.000364049 1.92486e-22 0.000293841 6.33522e-23 -0.00311169)
(-0.00547969 0.000375703 -1.37875e-22 -0.000324126 -3.65575e-23 -0.00232153)
(-0.00182797 0.000151888 1.38278e-22 0.000604863 -1.40259e-22 -0.000489244)
(-0.0119855 0.000105837 4.89726e-22 -0.000680284 3.43953e-21 -0.0050663)
(-0.00810975 0.00032427 -1.92486e-22 0.00031466 -6.33523e-23 -0.00311804)
(-0.00535103 0.000337183 0 -0.000344387 0 -0.00227817)
(-0.0014677 0.000137303 1.05936e-23 0.000642709 -4.49878e-21 -0.000329995)
(-0.0122174 8.8014e-05 -5.19043e-22 -0.000713291 8.54974e-21 -0.00517227)
(-0.00813437 0.000284178 0 0.000333416 0 -0.00312038)
(-0.00522774 0.000298316 0 -0.000362581 0 -0.00223613)
(-0.00113737 0.000122554 5.02696e-22 0.000676356 -8.82421e-21 -0.000184406)
(-0.0124126 7.03345e-05 1.09906e-23 -0.000742055 -4.24353e-21 -0.00526185)
(-0.00814695 0.000244248 8.98286e-22 0.000350092 6.92674e-22 -0.00311874)
(-0.00510988 0.000259571 -3.56292e-22 -0.000378702 -2.60233e-22 -0.00219543)
(-0.000837192 0.000107846 -2.04269e-22 0.000705784 -4.09495e-21 -5.25629e-05)
(-0.0125714 5.29937e-05 6.49108e-22 -0.000766578 -4.15457e-21 -0.00533518)
(-0.0081476 0.000204943 -4.82498e-22 0.00036472 -3.76823e-22 -0.00311315)
(-0.00499742 0.000221404 -3.74627e-22 -0.000392764 -3.59391e-22 -0.00215608)
(-0.000566914 9.33534e-05 3.01754e-22 0.000731019 -1.25369e-20 6.56422e-05)
(-0.0126945 3.61799e-05 -1.33344e-21 -0.000786959 3.51505e-21 -0.0053926)
(-0.00813655 0.000166696 -5.47569e-22 0.00037734 -6.15745e-22 -0.00310369)
(-0.00489025 0.00018424 -7.47795e-22 -0.0004048 -1.12677e-21 -0.00211802)
(-0.000325908 7.92422e-05 3.25681e-22 0.000752158 4.65233e-21 0.0001705)
(-0.0127831 2.00595e-05 -9.806e-23 -0.000803325 1.06677e-21 -0.00543457)
(-0.00811412 0.000129902 5.47569e-22 0.000388023 6.15746e-22 -0.00309044)
(-0.00478814 0.000148468 8.38472e-22 -0.000414863 1.33966e-21 -0.0020812)
(-0.000113196 6.56632e-05 9.29489e-24 0.000769338 -3.2172e-21 0.000262457)
(-0.0128384 4.78308e-06 -8.11461e-22 -0.000815848 9.89796e-21 -0.00546172)
(-0.0080807 9.49172e-05 0 0.000396854 0 -0.00307354)
(-0.00469079 0.000114441 -4.27864e-22 -0.000423028 -7.41142e-22 -0.00204553)
(7.25193e-05 5.27546e-05 1.98507e-22 0.000782742 3.8838e-22 0.000342105)
(-0.0128623 -9.5164e-06 1.69081e-21 -0.00082474 -5.14819e-21 -0.00547481)
(-0.00803677 6.20609e-05 -1.18478e-21 0.000403939 -2.08216e-21 -0.00305313)
(-0.00459784 8.24733e-05 7.95877e-23 -0.000429384 -8.27882e-23 -0.00201089)
(0.000232818 4.0641e-05 2.79289e-22 0.00079259 5.4413e-22 0.000410163)
(-0.0128565 -2.27244e-05 8.87945e-22 -0.000830246 -2.98192e-21 -0.0054747)
(-0.00798286 3.16106e-05 1.20879e-21 0.000409397 2.26464e-21 -0.00302939)
(-0.00450885 5.28412e-05 -1.036e-22 -0.000434036 -9.96899e-23 -0.00197716)
(0.000369535 2.94324e-05 -3.31863e-22 0.000799135 -1.42534e-20 0.000467468)
(-0.0128233 -3.47459e-05 1.84281e-21 -0.000832645 3.25209e-21 -0.00546238)
(-0.00791959 3.79923e-06 -1.38325e-21 0.000413359 -2.76783e-21 -0.00300249)
(-0.00442332 2.57773e-05 5.88274e-22 -0.000437101 1.37247e-21 -0.00194417)
(0.000484726 1.92228e-05 2.79555e-22 0.000802665 6.88441e-22 0.000514956)
(-0.012765 -4.55088e-05 -9.18116e-22 -0.000832239 -2.65356e-21 -0.0054389)
(-0.0078476 -2.11919e-05 -6.11565e-22 0.000415965 -1.58752e-21 -0.00297265)
(-0.00434071 1.46375e-06 1.11916e-21 -0.000438709 3.28253e-21 -0.00191177)
(0.000580628 1.0087e-05 -6.09533e-24 0.00080349 1.85564e-21 0.000553647)
(-0.0126841 -5.49668e-05 -1.01366e-21 -0.000829358 -2.58845e-21 -0.00540537)
(-0.00776756 -4.32417e-05 1.34706e-22 0.000417361 1.32039e-22 -0.00294008)
(-0.00426044 -1.99763e-05 -2.68493e-22 -0.000438994 -1.68479e-21 -0.00187977)
(0.000659614 2.07639e-06 2.89604e-22 0.000801943 -2.27487e-21 0.000584623)
(-0.012583 -6.31024e-05 -2.14268e-21 -0.00082434 9.41956e-22 -0.00536294)
(-0.00768017 -6.22966e-05 1.4253e-22 0.000417694 1.38196e-22 -0.00290499)
(-0.00418191 -3.84866e-05 0 -0.000438096 0 -0.001848)
(0.00072414 -4.78373e-06 4.4963e-22 0.00079837 -4.29202e-21 0.000609004)
(-0.0124645 -6.99288e-05 -3.449e-23 -0.000817533 -3.52139e-21 -0.0053128)
(-0.00758613 -7.83758e-05 8.29379e-22 0.000417113 2.47861e-21 -0.00286761)
(-0.00410451 -5.40825e-05 -1.42543e-22 -0.000436159 -1.41921e-22 -0.00181627)
(0.000776686 -1.0497e-05 -6.93281e-22 0.00079312 -8.46565e-22 0.000627922)
(-0.0123309 -7.54897e-05 2.39472e-21 -0.000809278 1.43081e-21 -0.00525606)
(-0.00748612 -9.15717e-05 -1.68816e-21 0.000415761 -5.24517e-21 -0.00282814)
(-0.00402764 -6.68523e-05 9.64722e-22 -0.000433322 5.06338e-21 -0.00178439)
(0.000819686 -1.50963e-05 -1.4293e-22 0.000786534 -3.34443e-23 0.000642488)
(-0.0121847 -7.98581e-05 1.42683e-22 -0.000799901 -3.94376e-21 -0.00519384)
(-0.00738079 -0.000102047 1.74649e-21 0.000413772 5.83693e-21 -0.00278681)
(-0.00395072 -7.69546e-05 4.19612e-22 -0.000429722 2.89693e-21 -0.00175218)
(0.000855474 -1.86432e-05 -5.47623e-22 0.000778939 -2.49382e-21 0.000653765)
(-0.0120281 -8.31331e-05 2.4401e-21 -0.00078971 6.19511e-21 -0.00512714)
(-0.00727076 -0.000110029 -8.87703e-22 0.000411271 -3.07038e-21 -0.00274379)
(-0.00387321 -8.46116e-05 0 -0.000425486 0 -0.00171948)
(0.000886218 -2.1225e-05 -2.77184e-22 0.000770638 1.99156e-22 0.000662742)
(-0.0118632 -8.54366e-05 1.4939e-21 -0.000778978 -1.72208e-21 -0.00505687)
(-0.00715655 -0.0001158 0 0.00040837 0 -0.00269927)
(-0.00379462 -9.01015e-05 0 -0.000420733 0 -0.00168614)
(0.000913873 -2.29523e-05 -1.10055e-22 0.000761899 9.15298e-22 0.000670309)
(-0.0116917 -8.69092e-05 1.34126e-21 -0.000767946 4.58214e-22 -0.00498385)
(-0.00703864 -0.00011969 -2.88684e-21 0.000405164 -1.1874e-20 -0.00265339)
(-0.00371454 -9.37504e-05 9.64131e-22 -0.000415566 4.06954e-21 -0.00165204)
(0.000940136 -2.39553e-05 4.53456e-22 0.000752955 -7.61318e-22 0.000677236)
(-0.011515 -8.7707e-05 9.72856e-24 -0.000756813 -2.61409e-21 -0.00490871)
(-0.00691743 -0.000122068 1.68292e-22 0.000401727 -1.71455e-22 -0.00260628)
(-0.00363261 -9.5924e-05 1.87829e-22 -0.000410075 1.8665e-22 -0.00161707)
(0.000966408 -2.43809e-05 5.19826e-22 0.000743995 6.84562e-21 0.000684161)
(-0.0113342 -8.79986e-05 -4.3382e-24 -0.000745734 1.15633e-21 -0.00483198)
(-0.00679322 -0.000123336 1.02438e-21 0.000398117 4.82136e-21 -0.00255804)
(-0.00354856 -9.70206e-05 0 -0.000404331 0 -0.00158116)
(0.00099376 -2.43899e-05 -2.58405e-22 0.000735162 -3.58673e-21 0.000691569)
(-0.0111501 -8.79609e-05 4.31241e-24 -0.000734813 -1.14119e-21 -0.00475398)
(-0.0066662 -0.000123919 -2.07441e-21 0.000394368 -1.00379e-20 -0.00250873)
(-0.00346223 -9.74624e-05 -4.47095e-22 -0.000398386 -4.99903e-21 -0.00154425)
(0.00102291 -2.41536e-05 4.67995e-22 0.000726548 -5.35832e-22 0.000699784)
(-0.0109632 -8.77756e-05 -2.23531e-24 -0.000724103 5.87746e-22 -0.0046749)
(-0.0065365 -0.000124253 1.05004e-21 0.000390494 5.21658e-21 -0.0024584)
(-0.00337353 -9.76854e-05 6.60126e-22 -0.000392273 5.61203e-21 -0.00150632)
(0.00105422 -2.38499e-05 4.93846e-26 0.00071819 -1.29981e-23 0.000708962)
(-0.0107733 -8.76236e-05 -1.74149e-21 -0.000713602 -4.17157e-22 -0.00459474)
(-0.00640411 -0.000124777 -8.76423e-22 0.000386486 -5.82775e-21 -0.00240705)
(-0.00328247 -9.81265e-05 4.32744e-22 -0.000386005 4.3305e-22 -0.00146739)
(0.00108764 -2.36578e-05 7.19912e-22 0.000710069 5.16071e-21 0.000719083)
(-0.01058 -8.76775e-05 1.33824e-21 -0.000703253 4.05323e-21 -0.00451332)
(-0.00626896 -0.00012591 -1.3297e-21 0.000382317 -6.27868e-21 -0.00235466)
(-0.00318916 -9.92058e-05 9.82127e-24 -0.000379575 4.38585e-22 -0.0014275)
(0.00112277 -2.37508e-05 -2.51747e-22 0.00070211 -3.08361e-21 0.000729952)
(-0.0103828 -8.80941e-05 -1.57751e-21 -0.000692945 -3.83957e-21 -0.0044303)
(-0.00613087 -0.000128035 4.50131e-22 0.000377938 1.92065e-23 -0.00230117)
(-0.00309383 -0.000101307 -4.5963e-22 -0.000372961 -6.69789e-21 -0.00138671)
(0.00115884 -2.42881e-05 -7.45258e-24 0.000694183 1.93204e-21 0.000741211)
(-0.0101805 -8.90056e-05 -4.89245e-21 -0.000682518 -9.85133e-21 -0.0043452)
(-0.00598958 -0.000131476 1.14691e-21 0.000373289 6.93971e-21 -0.00224652)
(-0.00299674 -0.000104755 -4.73394e-22 -0.000366121 -4.74633e-22 -0.00134514)
(0.00119478 -2.54063e-05 -2.2713e-22 0.000686109 -1.74417e-21 0.000752357)
(-0.00997178 -9.05111e-05 -1.91292e-21 -0.000671771 -3.55551e-21 -0.00425742)
(-0.00584478 -0.000136478 2.36076e-21 0.000368294 1.52947e-20 -0.00219059)
(-0.00289825 -0.000109797 1.16232e-21 -0.000359004 1.50234e-20 -0.0013029)
(0.00122925 -2.72102e-05 -7.23292e-22 0.00067767 -6.64639e-21 0.000762768)
(-0.00975525 -9.26707e-05 1.95589e-21 -0.000660479 3.73466e-21 -0.00416629)
(-0.00569611 -0.000143189 -2.34629e-22 0.000362871 2.36802e-22 -0.0021333)
(-0.00279878 -0.000116585 -9.56752e-22 -0.000351549 -8.1241e-21 -0.00126013)
(0.00126072 -2.97667e-05 -4.40561e-24 0.00066862 1.13089e-21 0.000771736)
(-0.00952935 -9.55019e-05 -1.75197e-21 -0.0006484 -6.76855e-21 -0.0040711)
(-0.00554321 -0.000151657 0 0.000356936 0 -0.00207451)
(-0.00269875 -0.000125167 0 -0.000343687 0 -0.00121698)
(0.0012876 -3.31002e-05 2.38379e-25 0.000658699 -6.1047e-23 0.000778518)
(-0.00929253 -9.89797e-05 3.27216e-21 -0.000635296 1.12506e-20 -0.00397113)
(-0.00538572 -0.000161822 -2.75528e-21 0.000350403 -1.85616e-20 -0.00201413)
(-0.0025986 -0.000135487 -7.3021e-22 -0.000335353 -9.39438e-21 -0.00117358)
(0.00130827 -3.71923e-05 2.27562e-22 0.000647654 3.92752e-21 0.000782371)
(-0.0090434 -0.000103041 1.54693e-21 -0.000620946 4.80579e-21 -0.00386574)
(-0.00522329 -0.000173533 1.99671e-21 0.000343195 1.93287e-20 -0.00195204)
(-0.00249874 -0.000147398 9.3737e-22 -0.00032648 1.93141e-20 -0.00113009)
(0.00132125 -4.19861e-05 -7.11045e-22 0.000635246 -9.78745e-21 0.000782597)
(-0.0087807 -0.000107594 -1.56979e-21 -0.000605158 -5.91454e-21 -0.00375434)
(-0.00505566 -0.000186564 2.80228e-22 0.000335241 2.80004e-22 -0.00188817)
(-0.00239956 -0.000160673 -7.37061e-22 -0.000317011 -9.927e-21 -0.00108663)
(0.00132518 -4.73925e-05 -3.82559e-25 0.000621271 9.75095e-23 0.000778581)
(-0.00850345 -0.000112523 9.92218e-25 -0.000587779 -2.52551e-22 -0.00363649)
(-0.00488261 -0.000200637 -1.02346e-21 0.000326482 -1.07535e-20 -0.00182245)
(-0.00230138 -0.000175037 1.02346e-21 -0.000306895 1.07535e-20 -0.00104331)
(0.00131897 -5.33008e-05 -2.08876e-24 0.000605561 5.31902e-22 0.000769813)
(-0.00821092 -0.000117706 -1.91972e-21 -0.000568698 -5.79829e-21 -0.00351185)
(-0.00470399 -0.000215449 -1.03509e-21 0.000316873 -1.13167e-20 -0.00175485)
(-0.00220448 -0.000190188 1.03509e-21 -0.000296095 1.13167e-20 -0.00100023)
(0.00130177 -5.95883e-05 8.71075e-25 0.000587996 -2.21671e-22 0.000755905)
(-0.00790267 -0.000123018 1.91975e-21 -0.000547844 5.79105e-21 -0.00338021)
(-0.00451975 -0.000230695 0 0.000306382 0 -0.00168535)
(-0.00210905 -0.000205819 0 -0.000284586 0 -0.000957456)
(0.00127298 -6.613e-05 9.31476e-25 0.000568495 -2.36937e-22 0.00073659)
(-0.00757852 -0.000128342 -7.17443e-25 -0.000525186 1.82401e-22 -0.00324148)
(-0.00432989 -0.000246082 1.05657e-21 0.000294993 1.24775e-20 -0.00161396)
(-0.00201526 -0.000221639 -1.05657e-21 -0.000272354 -1.24775e-20 -0.000915047)
(0.00123228 -7.28049e-05 -1.66979e-24 0.000547019 4.24635e-22 0.000711718)
(-0.00723852 -0.000133566 2.29155e-21 -0.000500723 5.73267e-21 -0.0030957)
(-0.00413448 -0.000261334 0 0.000282703 0 -0.00154071)
(-0.00192319 -0.000237367 0 -0.000259399 0 -0.000873035)
(0.00117956 -7.94973e-05 1.84531e-24 0.000523558 -4.69233e-22 0.000681247)
(-0.00688295 -0.000138582 -1.71056e-21 -0.000474478 -6.7014e-21 -0.00294297)
(-0.00393367 -0.000276182 6.07414e-22 0.000269527 1.37173e-23 -0.00146566)
(-0.00183287 -0.000252736 3.01735e-22 -0.000245739 -3.03584e-22 -0.000831442)
(0.00111494 -8.60943e-05 1.20188e-22 0.000498132 -8.02465e-21 0.000645229)
(-0.00651233 -0.000143281 -3.00745e-22 -0.000446498 7.53289e-22 -0.00278353)
(-0.00372766 -0.000290348 -1.39884e-21 0.000255493 -1.46163e-20 -0.00138887)
(-0.00174428 -0.000267464 7.73905e-22 -0.000231399 1.3985e-20 -0.00079027)
(0.00103874 -9.24782e-05 1.26994e-22 0.000470782 -7.79119e-21 0.000603808)
(-0.00612737 -0.000147539 -2.04883e-21 -0.000416851 -7.2933e-21 -0.00261769)
(-0.00351671 -0.000303524 1.39884e-21 0.000240649 1.46163e-20 -0.00131042)
(-0.00165734 -0.00028124 -4.66155e-22 -0.000216428 -1.49187e-20 -0.000749506)
(0.000951502 -9.85175e-05 6.32917e-22 0.000441575 -1.15839e-21 0.000557231)
(-0.0057291 -0.000151212 -6.25601e-21 -0.000385638 -2.29464e-20 -0.00244589)
(-0.00330117 -0.000315348 1.7334e-21 0.000225061 1.55716e-20 -0.00123044)
(-0.00157189 -0.000293698 -4.65338e-22 -0.000200886 -1.55538e-20 -0.000709112)
(0.000854049 -0.000104058 6.42761e-22 0.000410611 -1.55446e-21 0.000505864)
(-0.00531885 -0.00015413 4.20018e-21 -0.000353 1.61347e-20 -0.00226874)
(-0.00308148 -0.00032539 0 0.000208818 0 -0.00114907)
(-0.00148771 -0.000304405 -7.87107e-22 -0.000184856 -1.65236e-20 -0.000669028)
(0.000747526 -0.000108917 -4.4922e-25 0.00037803 1.14354e-22 0.000450222)
(-0.00489836 -0.000156095 1.60986e-23 -0.000319134 5.76826e-22 -0.002087)
(-0.00285819 -0.000333152 -1.44104e-21 0.00019203 -1.71856e-20 -0.00106646)
(-0.00140445 -0.000312854 -2.50754e-24 -0.000168444 -6.53994e-22 -0.000629159)
(0.000633479 -0.000112881 1.74238e-22 0.00034403 7.67144e-21 0.000391004)
(-0.00446986 -0.000156888 -3.18558e-22 -0.000284304 -3.86879e-24 -0.00190167)
(-0.00263195 -0.000338077 -3.31672e-22 0.000174836 -3.34739e-22 -0.000982847)
(-0.00132165 -0.000318485 -4.65062e-22 -0.000151779 -1.81652e-20 -0.000589372)
(0.000513923 -0.000115714 3.26269e-22 0.000308878 2.4678e-22 0.00032912)
(-0.00403607 -0.000156281 -3.24094e-26 -0.000248853 8.26167e-24 -0.00171397)
(-0.00240358 -0.00033958 -1.12296e-21 0.000157399 -1.81735e-20 -0.000898473)
(-0.00123872 -0.000320701 1.91478e-21 -0.000135017 3.60115e-20 -0.000549495)
(0.000391386 -0.000117164 -1.68462e-22 0.000272915 9.79528e-21 0.00026572)
(-0.00360027 -0.000154046 -2.49611e-21 -0.000213201 -9.47595e-21 -0.00152539)
(-0.00217402 -0.000337075 -1.12721e-21 0.000139913 -1.88421e-20 -0.000813642)
(-0.00115494 -0.000318906 1.12721e-21 -0.000118343 1.8842e-20 -0.000509312)
(0.00026893 -0.000116977 1.2789e-26 0.000236573 -3.25982e-24 0.000202201)
(-0.00316624 -0.000149981 -1.54516e-25 -0.000177859 3.94161e-23 -0.00133764)
(-0.00194433 -0.00033002 0 0.0001226 0 -0.000728691)
(-0.00106945 -0.000312538 4.60604e-22 -0.000101959 1.95102e-20 -0.000468562)
(0.000150151 -0.000114912 -4.98991e-22 0.000200359 -9.72324e-21 0.000140204)
(-0.00273827 -0.000143914 1.6829e-27 -0.000143405 -4.29418e-25 -0.00115267)
(-0.00171574 -0.000317955 0 0.000105692 0 -0.000644021)
(-0.000981327 -0.000301114 0 -8.61067e-05 0 -0.000426974)
(3.9085e-05 -0.000110759 -1.59327e-22 0.000164861 -1.08864e-20 8.15784e-05)
(-0.00232091 -0.000135746 4.72776e-21 -0.000110454 2.0614e-20 -0.000972545)
(-0.00148948 -0.000300569 0 8.95094e-05 0 -0.000559987)
(-0.000889458 -0.000284268 0 -7.09749e-05 0 -0.000384173)
(-5.9737e-05 -0.000104339 8.89427e-25 0.000130761 -3.74181e-22 2.84095e-05)
(-0.00191919 -0.00012546 -2.537e-21 -7.97652e-05 -1.07747e-20 -0.000799583)
(-0.00126718 -0.00027775 -1.81666e-21 7.42161e-05 -2.15617e-20 -0.000477186)
(-0.000793083 -0.000261804 0 -5.69232e-05 0 -0.000340003)
(-0.000141829 -9.55374e-05 1.60902e-22 9.87198e-05 1.06288e-20 -1.72437e-05)
(-0.00153736 -0.00011318 4.74574e-21 -5.17369e-05 2.21006e-20 -0.00063564)
(-0.00104966 -0.000249704 0 6.05301e-05 0 -0.000395651)
(-0.000690593 -0.000233734 0 -4.37633e-05 0 -0.000293742)
(-0.000201703 -8.42894e-05 -1.10494e-27 6.98168e-05 2.81864e-25 -5.27544e-05)
(-0.00118124 -9.91651e-05 -2.55042e-21 -2.75435e-05 -1.1177e-20 -0.000483515)
(-0.000840141 -0.000216884 -1.13936e-21 4.78395e-05 -2.29259e-20 -0.00031692)
(-0.000583145 -0.000200286 1.13936e-21 -3.26953e-05 2.29259e-20 -0.000246336)
(-0.000236276 -7.05077e-05 1.59759e-22 4.41069e-05 1.16415e-20 -7.68676e-05)
(-0.000850996 -8.38781e-05 -1.86847e-21 -6.10871e-06 -1.1812e-20 -0.000342842)
(-0.000635866 -0.000180262 2.96142e-21 3.88522e-05 4.72294e-20 -0.000238806)
(-0.000466111 -0.000162035 -1.59466e-21 -2.13842e-05 -4.72211e-20 -0.000194998)
(-0.000236563 -5.43727e-05 3.40846e-22 2.49089e-05 4.55515e-22 -8.46617e-05)
(-0.000558676 -6.72381e-05 2.21159e-21 8.37236e-06 1.19986e-20 -0.000220122)
(-0.000449405 -0.000140155 -1.82201e-21 2.64893e-05 -2.43032e-20 -0.000169166)
(-0.000351321 -0.000120223 4.54024e-22 -1.79614e-05 2.42957e-20 -0.000147713)
(-0.000208821 -3.60763e-05 -5.00833e-22 7.64321e-06 -1.23543e-20 -8.0471e-05)
(-0.000282734 -4.91392e-05 4.76666e-21 2.2126e-05 2.44926e-20 -0.000104243)
(-0.000251396 -9.64746e-05 0 2.19179e-05 0 -9.17912e-05)
(-0.000209233 -7.67824e-05 -4.52262e-22 -1.25752e-05 -2.49828e-20 -8.87235e-05)
(-0.000123927 -1.9626e-05 5.00563e-22 2.31635e-06 1.26542e-20 -4.86442e-05)
(-9.83422e-05 -2.46543e-05 -5.89936e-22 4.20386e-06 1.01776e-22 -3.76553e-05)
(-0.000113855 -3.92539e-05 -3.96679e-22 -3.13954e-05 -1.73555e-24 -5.81003e-05)
(-0.000105585 -3.11327e-05 -4.99983e-22 -7.40817e-05 -2.567e-20 -7.18666e-05)
(-4.68359e-05 -1.39534e-05 2.30151e-23 -4.51423e-05 1.09737e-22 -3.67913e-05)
)
;

boundaryField
{
    plateFix
    {
        type            calculated;
        value           nonuniform List<symmTensor> 4((-0.00619354 -0.00143115 5.22061e-24 -0.00216957 -3.80854e-20 -0.00334524) (-0.00607221 -0.000122664 -3.79127e-27 -0.00340804 1.92695e-27 -0.0037921) (-0.00649261 0.00129001 -1.7857e-26 -0.00354813 3.56382e-26 -0.00401629) (-0.00944964 0.00246487 -4.1142e-24 -0.00339248 1.93665e-20 -0.00513685));
    }
    plate
    {
        type            calculated;
        value           nonuniform List<symmTensor> 
168
(
(-0.00478965 -1.99689e-06 1.9978e-23 -6.23385e-05 -7.6164e-20 -0.00194079)
(-0.00710728 -8.35755e-07 -1.34331e-23 3.81848e-06 3.87339e-20 -0.00284139)
(-0.00504724 -1.85938e-06 -7.00231e-25 -6.06994e-05 6.84119e-22 -0.00204317)
(-0.00725225 -8.16377e-07 3.27327e-24 4.79236e-06 3.92613e-22 -0.00289898)
(-0.00541246 -1.71081e-06 -1.87612e-23 -5.99102e-05 8.48173e-20 -0.00218895)
(-0.00747278 -8.66267e-07 2.17059e-23 5.21637e-06 -8.76873e-20 -0.00298702)
(-0.00565031 -1.67308e-06 3.64403e-25 -5.95112e-05 -4.21514e-22 -0.00228393)
(-0.0074854 -9.01772e-07 -4.50921e-24 5.44598e-06 4.11962e-20 -0.00299198)
(-0.00588862 -1.83144e-06 2.05026e-23 -5.92973e-05 -7.62872e-20 -0.00237917)
(-0.00745802 -1.0025e-06 -1.83984e-23 5.60094e-06 3.98434e-20 -0.00298097)
(-0.00610684 -2.15762e-06 -5.79843e-25 -5.91951e-05 -1.06043e-23 -0.00246642)
(-0.00737087 -1.10857e-06 -6.20775e-24 5.7272e-06 -3.63603e-20 -0.00294606)
(-0.00632975 -2.64576e-06 2.22596e-24 -5.9155e-05 3.44683e-20 -0.00255556)
(-0.00725864 -1.22631e-06 -1.83866e-23 5.8445e-06 3.47611e-20 -0.00290112)
(-0.00655636 -3.2755e-06 -1.67295e-24 -5.91469e-05 -2.97575e-20 -0.0026462)
(-0.00712285 -1.33987e-06 6.21531e-23 5.96572e-06 -3.28825e-20 -0.00284675)
(-0.00679032 -4.03196e-06 -1.44845e-23 -5.9155e-05 2.84312e-20 -0.00273979)
(-0.00696952 -1.44453e-06 -4.56258e-23 6.09665e-06 -3.15779e-22 -0.00278537)
(-0.00703074 -4.90261e-06 -1.47865e-23 -5.91745e-05 2.53125e-20 -0.00283596)
(-0.00679832 -1.53243e-06 1.58988e-23 6.24142e-06 2.38969e-20 -0.00271683)
(-0.00727741 -5.88195e-06 4.67947e-24 -5.92062e-05 1.76636e-22 -0.00293465)
(-0.00660918 -1.59704e-06 3.1569e-23 6.40439e-06 -4.76472e-20 -0.00264111)
(-0.00752985 -6.9693e-06 -2.77659e-23 -5.92539e-05 -4.01715e-20 -0.00303564)
(-0.00640128 -1.63028e-06 -1.61776e-23 6.59196e-06 2.17076e-20 -0.00255787)
(-0.00778814 -8.16865e-06 7.17942e-23 -5.93226e-05 4.01336e-20 -0.00313898)
(-0.00617426 -1.62448e-06 6.02223e-23 6.8129e-06 -1.39466e-22 -0.00246698)
(-0.00805265 -9.4866e-06 -3.58565e-23 -5.94178e-05 -2.72795e-21 -0.00324483)
(-0.00592807 -1.57189e-06 -5.60391e-23 7.07828e-06 -1.07722e-25 -0.0023684)
(-0.00832403 -1.09313e-05 -1.92491e-23 -5.95454e-05 4.90626e-21 -0.00335343)
(-0.00566308 -1.46563e-06 1.69768e-23 7.40072e-06 3.05158e-20 -0.00226227)
(-0.00860293 -1.25116e-05 3.18965e-23 -5.97107e-05 4.15754e-21 -0.00346506)
(-0.00537989 -1.29991e-06 -7.56503e-23 7.79303e-06 -1.37697e-20 -0.00214884)
(-0.00888978 -1.42362e-05 -5.49743e-23 -5.99178e-05 -7.24767e-21 -0.00357988)
(-0.00507933 -1.06997e-06 8.11028e-23 8.26659e-06 -1.72966e-20 -0.00202842)
(-0.00918462 -1.61127e-05 -1.53211e-22 -6.01674e-05 -6.59339e-24 -0.00369791)
(-0.00476233 -7.72936e-07 -2.07329e-22 8.82914e-06 9.74471e-21 -0.0019014)
(-0.00948687 -1.81494e-05 1.6825e-22 -6.04633e-05 -1.74484e-20 -0.00381893)
(-0.00443009 -4.07131e-07 2.10479e-22 9.48148e-06 -1.79478e-20 -0.00176824)
(-0.00979531 -2.03419e-05 -2.33501e-23 -6.07745e-05 1.48305e-20 -0.00394243)
(-0.00408395 2.42692e-08 6.57575e-23 1.02189e-05 -1.18262e-22 -0.00162949)
(-0.0101075 -2.27139e-05 1.40762e-23 -6.11659e-05 -5.12845e-21 -0.00406748)
(-0.00372606 5.23361e-07 1.12699e-22 1.09982e-05 5.72673e-21 -0.00148602)
(-0.0104212 -2.51988e-05 1.85771e-22 -6.14171e-05 2.0563e-22 -0.00419306)
(-0.00335793 1.06162e-06 -2.54166e-22 1.18404e-05 1.8592e-21 -0.00133843)
(-0.0107414 -2.80452e-05 -3.44214e-22 -6.18877e-05 -2.97469e-23 -0.0043213)
(-0.00297116 1.78287e-06 2.20544e-22 1.24908e-05 -3.00764e-22 -0.00118347)
(-0.0110513 -3.11556e-05 1.82418e-22 -6.21294e-05 9.73395e-23 -0.00444538)
(-0.002583 2.73224e-06 -2.70679e-23 1.33868e-05 9.24273e-21 -0.00102785)
(-0.0113285 -3.42087e-05 -2.2411e-22 -6.2135e-05 -1.92158e-21 -0.00455627)
(-0.00222076 3.67565e-06 1.38669e-22 1.40314e-05 -3.15579e-22 -0.00088269)
(-0.0115722 -3.71796e-05 4.82141e-22 -6.19946e-05 6.65622e-21 -0.00465366)
(-0.00188538 4.658e-06 2.11951e-23 1.4624e-05 -9.00092e-21 -0.000748301)
(-0.0117818 -4.0064e-05 -5.40771e-22 -6.15762e-05 1.73215e-20 -0.00473737)
(-0.00157729 5.64158e-06 5.27197e-22 1.50248e-05 -1.81088e-20 -0.000624907)
(-0.0119575 -4.28281e-05 2.19838e-23 -6.09478e-05 -8.48808e-21 -0.00480739)
(-0.00129666 6.63082e-06 -1.94467e-22 1.52731e-05 -7.88445e-21 -0.000512554)
(-0.0120995 -4.54611e-05 6.61703e-22 -6.00556e-05 -8.82486e-21 -0.00486382)
(-0.00104326 7.61438e-06 3.3648e-22 1.53395e-05 -2.54306e-20 -0.000411169)
(-0.0122084 -4.79424e-05 -1.34652e-21 -5.8918e-05 8.19313e-21 -0.00490692)