/*--------------------------------*- C++ -*----------------------------------*\
| =========                 |                                                 |
| \\      /  F ield         | OpenFOAM Extend Project: Open source CFD        |
|  \\    /   O peration     | Version:  1.6-ext                               |
|   \\  /    A nd           | Web:      www.extend-project.de                 |
|    \\/     M anipulation  |                                                 |
\*---------------------------------------------------------------------------*/
FoamFile
{
    version     2.0;
    format      ascii;
    class       volVectorField;
    location    "1.2";
    object      DU;
}
// * * * * * * * * * * * * * * * * * * * * * * * * * * * * * * * * * * * * * //

dimensions      [0 1 0 0 0 0 0];

internalField   nonuniform List<vector> 
328
(
(-1.42429e-10 -2.49972e-10 0)
(-1.14014e-10 -1.31989e-11 0)
(-1.23804e-10 1.34071e-10 0)
(-2.15648e-10 4.54958e-10 0)
(-4.37566e-10 -6.0658e-10 0)
(-3.76004e-10 -9.91253e-12 0)
(-4.10851e-10 4.20253e-10 0)
(-6.53279e-10 1.20219e-09 0)
(-7.88777e-10 -8.18226e-10 0)
(-7.26346e-10 3.09365e-11 0)
(-7.96709e-10 7.28642e-10 0)
(-1.15178e-09 1.81182e-09 0)
(-1.18069e-09 -9.0065e-10 0)
(-1.13883e-09 1.19753e-10 0)
(-1.2472e-09 1.04829e-09 0)
(-1.68655e-09 2.31329e-09 0)
(-1.62129e-09 -8.77144e-10 0)
(-1.62025e-09 2.60073e-10 0)
(-1.76761e-09 1.37499e-09 0)
(-2.2618e-09 2.7418e-09 0)
(-2.11141e-09 -7.65959e-10 0)
(-2.16271e-09 4.53173e-10 0)
(-2.34633e-09 1.70771e-09 0)
(-2.87238e-09 3.1241e-09 0)
(-2.65681e-09 -5.82791e-10 0)
(-2.76615e-09 6.96945e-10 0)
(-2.98107e-09 2.0484e-09 0)
(-3.51868e-09 3.48146e-09 0)
(-3.26284e-09 -3.40174e-10 0)
(-3.42836e-09 9.87669e-10 0)
(-3.66693e-09 2.39988e-09 0)
(-4.1998e-09 3.82897e-09 0)
(-3.93627e-09 -4.91018e-11 0)
(-4.14983e-09 1.31997e-09 0)
(-4.40187e-09 2.76489e-09 0)
(-4.9157e-09 4.17706e-09 0)
(-4.68437e-09 2.80401e-10 0)
(-4.93167e-09 1.68728e-09 0)
(-5.18422e-09 3.14482e-09 0)
(-5.66585e-09 4.53169e-09 0)
(-5.5152e-09 6.38225e-10 0)
(-5.77667e-09 2.08164e-09 0)
(-6.01371e-09 3.53879e-09 0)
(-6.44943e-09 4.89467e-09 0)
(-6.43754e-09 1.01332e-09 0)
(-6.68879e-09 2.49331e-09 0)
(-6.89081e-09 3.94274e-09 0)
(-7.26503e-09 5.26349e-09 0)
(-7.46106e-09 1.39263e-09 0)
(-7.67328e-09 2.91e-09 0)
(-7.81683e-09 4.34856e-09 0)
(-8.11061e-09 5.63092e-09 0)
(-8.59641e-09 1.75981e-09 0)
(-8.73645e-09 3.3159e-09 0)
(-8.79362e-09 4.74312e-09 0)
(-8.98346e-09 5.98431e-09 0)
(-9.8554e-09 2.09383e-09 0)
(-9.88563e-09 3.69021e-09 0)
(-9.82335e-09 5.10714e-09 0)
(-9.88013e-09 6.30468e-09 0)
(-1.12512e-08 2.36715e-09 0)
(-1.11289e-08 4.00551e-09 0)
(-1.09084e-08 5.4138e-09 0)
(-1.07964e-08 6.56534e-09 0)
(-1.27983e-08 2.5436e-09 0)
(-1.24752e-08 4.22565e-09 0)
(-1.2051e-08 5.62695e-09 0)
(-1.17271e-08 6.73025e-09 0)
(-1.45127e-08 2.5759e-09 0)
(-1.3934e-08 4.30326e-09 0)
(-1.32534e-08 5.69889e-09 0)
(-1.26664e-08 6.75179e-09 0)
(-1.64123e-08 2.40266e-09 0)
(-1.55153e-08 4.17676e-09 0)
(-1.45175e-08 5.56761e-09 0)
(-1.36072e-08 6.56804e-09 0)
(-1.85161e-08 1.94485e-09 0)
(-1.72298e-08 3.76686e-09 0)
(-1.58447e-08 5.15339e-09 0)
(-1.45414e-08 6.09943e-09 0)
(-2.08448e-08 1.1017e-09 0)
(-1.90885e-08 2.97238e-09 0)
(-1.72363e-08 4.35466e-09 0)
(-1.546e-08 5.24467e-09 0)
(-2.34205e-08 -2.5419e-10 0)
(-2.11029e-08 1.66548e-09 0)
(-1.8693e-08 3.04329e-09 0)
(-1.63529e-08 3.87596e-09 0)
(-2.6375e-08 -2.35993e-09 0)
(-2.3368e-08 -3.89757e-10 0)
(-2.02734e-08 9.82962e-10 0)
(-1.72412e-08 1.75521e-09 0)
(-2.96335e-08 -5.42093e-09 0)
(-2.58159e-08 -3.40151e-09 0)
(-2.19154e-08 -2.03448e-09 0)
(-1.807e-08 -1.32272e-09 0)
(-3.2978e-08 -9.35944e-09 0)
(-2.82827e-08 -7.29586e-09 0)
(-2.35094e-08 -5.93483e-09 0)
(-1.87837e-08 -5.27915e-09 0)
(-3.63981e-08 -1.42406e-08 0)
(-3.07641e-08 -1.21379e-08 0)
(-2.5057e-08 -1.07832e-08 0)
(-1.93901e-08 -1.01792e-08 0)
(-3.98833e-08 -2.0123e-08 0)
(-3.32557e-08 -1.79862e-08 0)
(-2.656e-08 -1.66382e-08 0)
(-1.98968e-08 -1.60814e-08 0)
(-4.34232e-08 -2.70587e-08 0)
(-3.57531e-08 -2.4893e-08 0)
(-2.80199e-08 -2.35519e-08 0)
(-2.03119e-08 -2.3038e-08 0)
(-4.70072e-08 -3.50932e-08 0)
(-3.8252e-08 -3.29035e-08 0)
(-2.94387e-08 -3.15698e-08 0)
(-2.06431e-08 -3.10944e-08 0)
(-5.06251e-08 -4.42655e-08 0)
(-4.07482e-08 -4.20568e-08 0)
(-3.0818e-08 -4.07307e-08 0)
(-2.08983e-08 -4.02896e-08 0)
(-5.42668e-08 -5.46081e-08 0)
(-4.32375e-08 -5.23853e-08 0)
(-3.21595e-08 -5.10673e-08 0)
(-2.10851e-08 -5.06564e-08 0)
(-5.79227e-08 -6.61477e-08 0)
(-4.57159e-08 -6.39154e-08 0)
(-3.34648e-08 -6.26058e-08 0)
(-2.12107e-08 -6.22212e-08 0)
(-6.15835e-08 -7.89049e-08 0)
(-4.81796e-08 -7.66676e-08 0)
(-3.47355e-08 -7.53668e-08 0)
(-2.12822e-08 -7.50048e-08 0)
(-6.52406e-08 -9.2895e-08 0)
(-5.06251e-08 -9.06568e-08 0)
(-3.59731e-08 -8.93653e-08 0)
(-2.1306e-08 -8.90226e-08 0)
(-6.88859e-08 -1.08128e-07 0)
(-5.30488e-08 -1.05893e-07 0)
(-3.71787e-08 -1.04611e-07 0)
(-2.12881e-08 -1.04285e-07 0)
(-7.25119e-08 -1.24609e-07 0)
(-5.54478e-08 -1.22381e-07 0)
(-3.83536e-08 -1.21109e-07 0)
(-2.12339e-08 -1.20796e-07 0)
(-7.6112e-08 -1.4234e-07 0)
(-5.7819e-08 -1.40122e-07 0)
(-3.94987e-08 -1.38861e-07 0)
(-2.11483e-08 -1.38559e-07 0)
(-7.968e-08 -1.61318e-07 0)
(-6.016e-08 -1.59113e-07 0)
(-4.06148e-08 -1.57863e-07 0)
(-2.10356e-08 -1.5757e-07 0)
(-8.32106e-08 -1.81537e-07 0)
(-6.24683e-08 -1.79347e-07 0)
(-4.17025e-08 -1.78109e-07 0)
(-2.08992e-08 -1.77824e-07 0)
(-8.66993e-08 -2.02989e-07 0)
(-6.47419e-08 -2.00817e-07 0)
(-4.27622e-08 -1.99591e-07 0)
(-2.0742e-08 -1.99312e-07 0)
(-9.01423e-08 -2.25663e-07 0)
(-6.69788e-08 -2.23511e-07 0)
(-4.37941e-08 -2.22297e-07 0)
(-2.05664e-08 -2.22023e-07 0)
(-9.35361e-08 -2.49547e-07 0)
(-6.91776e-08 -2.47416e-07 0)
(-4.47983e-08 -2.46216e-07 0)
(-2.0374e-08 -2.45947e-07 0)
(-9.68783e-08 -2.74627e-07 0)
(-7.13368e-08 -2.7252e-07 0)
(-4.57747e-08 -2.71333e-07 0)
(-2.01658e-08 -2.71068e-07 0)
(-1.00167e-07 -3.00889e-07 0)
(-7.34551e-08 -2.98806e-07 0)
(-4.67231e-08 -2.97634e-07 0)
(-1.99427e-08 -2.97373e-07 0)
(-1.034e-07 -3.28319e-07 0)
(-7.55317e-08 -3.26262e-07 0)
(-4.76429e-08 -3.25104e-07 0)
(-1.97046e-08 -3.24847e-07 0)
(-1.06576e-07 -3.56902e-07 0)
(-7.75654e-08 -3.5487e-07 0)
(-4.85338e-08 -3.53728e-07 0)
(-1.94516e-08 -3.53476e-07 0)
(-1.09694e-07 -3.86622e-07 0)
(-7.95556e-08 -3.84617e-07 0)
(-4.93952e-08 -3.83491e-07 0)
(-1.91834e-08 -3.83244e-07 0)
(-1.12754e-07 -4.17465e-07 0)
(-8.15014e-08 -4.15488e-07 0)
(-5.02264e-08 -4.14378e-07 0)
(-1.88993e-08 -4.14136e-07 0)
(-1.15755e-07 -4.49416e-07 0)
(-8.34022e-08 -4.47468e-07 0)
(-5.1027e-08 -4.46376e-07 0)
(-1.85989e-08 -4.46139e-07 0)
(-1.18695e-07 -4.82463e-07 0)
(-8.52571e-08 -4.80544e-07 0)
(-5.17963e-08 -4.79469e-07 0)
(-1.82817e-08 -4.79239e-07 0)
(-1.21574e-07 -5.1659e-07 0)
(-8.70653e-08 -5.14701e-07 0)
(-5.25338e-08 -5.13644e-07 0)
(-1.79474e-08 -5.13421e-07 0)
(-1.2439e-07 -5.51783e-07 0)
(-8.88261e-08 -5.49926e-07 0)
(-5.32391e-08 -5.48888e-07 0)
(-1.75959e-08 -5.48671e-07 0)
(-1.27143e-07 -5.8803e-07 0)
(-9.05384e-08 -5.86205e-07 0)
(-5.39118e-08 -5.85187e-07 0)
(-1.72275e-08 -5.84976e-07 0)
(-1.29829e-07 -6.25315e-07 0)
(-9.22012e-08 -6.23523e-07 0)
(-5.45518e-08 -6.22525e-07 0)
(-1.6843e-08 -6.22321e-07 0)
(-1.32447e-07 -6.63622e-07 0)
(-9.38132e-08 -6.61866e-07 0)
(-5.51589e-08 -6.60888e-07 0)
(-1.64433e-08 -6.6069e-07 0)
(-1.34993e-07 -7.02935e-07 0)
(-9.53732e-08 -7.01216e-07 0)
(-5.57334e-08 -7.0026e-07 0)
(-1.603e-08 -7.00067e-07 0)
(-1.37466e-07 -7.43234e-07 0)
(-9.68797e-08 -7.41555e-07 0)
(-5.62754e-08 -7.4062e-07 0)
(-1.56051e-08 -7.40432e-07 0)
(-1.39861e-07 -7.845e-07 0)
(-9.83311e-08 -7.82862e-07 0)
(-5.67854e-08 -7.8195e-07 0)
(-1.51709e-08 -7.81766e-07 0)
(-1.42174e-07 -8.2671e-07 0)
(-9.97259e-08 -8.25116e-07 0)
(-5.72638e-08 -8.24227e-07 0)
(-1.47303e-08 -8.24045e-07 0)
(-1.44401e-07 -8.69838e-07 0)
(-1.01062e-07 -8.6829e-07 0)
(-5.77114e-08 -8.67425e-07 0)
(-1.4286e-08 -8.67244e-07 0)
(-1.46539e-07 -9.13856e-07 0)
(-1.02339e-07 -9.12356e-07 0)
(-5.81287e-08 -9.11516e-07 0)
(-1.38413e-08 -9.11335e-07 0)
(-1.48583e-07 -9.58733e-07 0)
(-1.03553e-07 -9.57285e-07 0)
(-5.85166e-08 -9.56469e-07 0)
(-1.33996e-08 -9.56286e-07 0)
(-1.50528e-07 -1.00444e-06 0)
(-1.04705e-07 -1.00304e-06 0)
(-5.88759e-08 -1.00225e-06 0)
(-1.29641e-08 -1.00207e-06 0)
(-1.52371e-07 -1.05093e-06 0)
(-1.05791e-07 -1.04959e-06 0)
(-5.92074e-08 -1.04883e-06 0)
(-1.25383e-08 -1.04864e-06 0)
(-1.54107e-07 -1.09817e-06 0)
(-1.0681e-07 -1.09689e-06 0)
(-5.9512e-08 -1.09615e-06 0)
(-1.21255e-08 -1.09596e-06 0)
(-1.55733e-07 -1.14612e-06 0)
(-1.07761e-07 -1.1449e-06 0)
(-5.97905e-08 -1.14419e-06 0)
(-1.17289e-08 -1.14399e-06 0)
(-1.57244e-07 -1.19474e-06 0)
(-1.08643e-07 -1.19358e-06 0)
(-6.00437e-08 -1.1929e-06 0)
(-1.13516e-08 -1.19269e-06 0)
(-1.58638e-07 -1.24397e-06 0)
(-1.09453e-07 -1.24288e-06 0)
(-6.02722e-08 -1.24222e-06 0)
(-1.09963e-08 -1.242e-06 0)
(-1.59912e-07 -1.29377e-06 0)
(-1.10192e-07 -1.29274e-06 0)
(-6.04768e-08 -1.29212e-06 0)
(-1.06655e-08 -1.29189e-06 0)
(-1.61063e-07 -1.34408e-06 0)
(-1.10857e-07 -1.34313e-06 0)
(-6.06578e-08 -1.34253e-06 0)
(-1.03611e-08 -1.34229e-06 0)
(-1.62089e-07 -1.39486e-06 0)
(-1.11449e-07 -1.39397e-06 0)
(-6.08156e-08 -1.39341e-06 0)
(-1.00843e-08 -1.39316e-06 0)
(-1.6299e-07 -1.44605e-06 0)
(-1.11967e-07 -1.44523e-06 0)
(-6.09503e-08 -1.44469e-06 0)
(-9.83579e-09 -1.44444e-06 0)
(-1.63766e-07 -1.49759e-06 0)
(-1.12411e-07 -1.49684e-06 0)
(-6.10616e-08 -1.49634e-06 0)
(-9.61519e-09 -1.49607e-06 0)
(-1.64418e-07 -1.54943e-06 0)
(-1.12782e-07 -1.54875e-06 0)
(-6.11489e-08 -1.54828e-06 0)
(-9.42108e-09 -1.548e-06 0)
(-1.64948e-07 -1.60152e-06 0)
(-1.1308e-07 -1.60091e-06 0)
(-6.12115e-08 -1.60046e-06 0)
(-9.25093e-09 -1.60018e-06 0)
(-1.65361e-07 -1.6538e-06 0)
(-1.13306e-07 -1.65325e-06 0)
(-6.12479e-08 -1.65284e-06 0)
(-9.10084e-09 -1.65256e-06 0)
(-1.65661e-07 -1.70622e-06 0)
(-1.13463e-07 -1.70574e-06 0)
(-6.12568e-08 -1.70535e-06 0)
(-8.96584e-09 -1.70508e-06 0)
(-1.65855e-07 -1.75874e-06 0)
(-1.13552e-07 -1.75832e-06 0)
(-6.12358e-08 -1.75797e-06 0)
(-8.83915e-09 -1.75769e-06 0)
(-1.6595e-07 -1.81132e-06 0)
(-1.13577e-07 -1.81095e-06 0)
(-6.11837e-08 -1.81063e-06 0)
(-8.7139e-09 -1.81037e-06 0)
(-1.65953e-07 -1.86393e-06 0)
(-1.13539e-07 -1.86361e-06 0)
(-6.10964e-08 -1.86332e-06 0)
(-8.57924e-09 -1.86307e-06 0)
(-1.65878e-07 -1.91652e-06 0)
(-1.13447e-07 -1.91625e-06 0)
(-6.09763e-08 -1.916e-06 0)
(-8.43018e-09 -1.91577e-06 0)
(-1.6572e-07 -1.96909e-06 0)
(-1.13288e-07 -1.96887e-06 0)
(-6.08055e-08 -1.96865e-06 0)
(-8.24244e-09 -1.96846e-06 0)
)
;

boundaryField
{
    plateFix
    {
        type            fixedDisplacement;
        value           uniform (0 0 0);
    }
    plate
    {
        type            solidTraction;
        nonLinear       updatedLagrangian;
        traction        nonuniform List<vector> 
168
(
(1.46238e-05 7.28074e-05 3.91437e-20)
(1.76163e-05 -7.56401e-05 4.00936e-20)
(-0.000117724 -6.48798e-05 4.89994e-23)
(-0.000107863 5.73267e-05 -4.61023e-20)
(-0.000565034 -0.000241258 -8.5866e-20)
(-0.000542522 0.000231213 0)
(-0.00125992 -0.000382974 4.32286e-20)
(-0.0012217 0.000371899 0)
(-0.00214925 -0.000471913 0)
(-0.00209381 0.000460585 4.17822e-20)
(-0.00318427 -0.000510824 3.36581e-20)
(-0.003111 0.000499521 -3.90517e-20)
(-0.00431478 -0.000512022 -3.33584e-20)
(-0.00422376 0.000500636 4.26482e-21)
(-0.0054969 -0.000489533 3.84423e-21)
(-0.00538861 0.000477694 -2.76741e-20)
(-0.00669621 -0.000455185 0)
(-0.00657134 0.000442379 2.90041e-20)
(-0.00788787 -0.000417578 -2.25655e-20)
(-0.00774715 0.000403228 2.96837e-20)
(-0.00905591 -0.000382238 2.34553e-20)
(-0.00889999 0.000365763 -4.49244e-20)
(-0.0101918 -0.000352212 2.6312e-20)
(-0.0100212 0.000333054 2.16375e-20)
(-0.0112927 -0.000328745 -3.76877e-20)
(-0.0111078 0.000306381 0)
(-0.0123593 -0.000311872 5.81165e-23)
(-0.0121604 0.000285817 -4.30863e-21)
(-0.0133943 -0.000300871 1.49278e-20)
(-0.0131818 0.000270671 1.1443e-20)
(-0.0144006 -0.000294578 -1.30923e-20)
(-0.0141749 0.000259806 -1.69755e-20)
(-0.0153796 -0.000291581 1.72774e-20)
(-0.0151414 0.000251841 0)
(-0.0163295 -0.000290281 -4.9303e-21)
(-0.01608 0.000245217 -8.04716e-23)
(-0.017247 -0.000288938 1.73153e-20)
(-0.0169879 0.000238265 0)
(-0.0181175 -0.000285373 -1.8805e-20)
(-0.0178514 0.000228919 -1.20495e-22)
(-0.0189451 -0.000276318 -1.00536e-22)
(-0.0186756 0.000214161 -1.03474e-22)
(-0.0196584 -0.000262545 -1.11065e-20)
(-0.0193924 0.000194731 -1.76968e-22)
(-0.0204996 -0.000214147 9.52002e-21)
(-0.0202364 0.000141761 -1.47771e-22)
(-0.0213757 -0.00015814 0)
(-0.0211139 7.95389e-05 2.92195e-22)
(-0.0221024 -0.000147882 2.79265e-22)
(-0.0218516 6.17158e-05 9.15499e-21)
(-0.0227905 -0.000133427 -2.74928e-22)
(-0.0225543 4.01126e-05 -9.16444e-21)
(-0.0233925 -0.000128867 0)
(-0.0231769 2.84535e-05 1.3995e-22)
(-0.0239502 -0.000121542 8.41047e-21)
(-0.0237599 1.42827e-05 9.13586e-21)
(-0.0244432 -0.000116408 8.84389e-23)
(-0.0242838 2.54989e-06 -1.72968e-20)
(-0.0248851 -0.000110149 -8.25655e-21)
(-0.024762 -1.00181e-05 1.73876e-22)
(-0.0252679 -0.000104084 3.70079e-21)
(-0.0251868 -2.20418e-05 8.1481e-21)
(-0.0255945 -9.72585e-05 -7.81425e-21)
(-0.025561 -3.44404e-05 -2.54773e-22)
(-0.0258606 -8.99249e-05 3.8635e-21)
(-0.0258803 -4.69009e-05 -2.48786e-22)
(-0.026065 -8.17608e-05 3.6668e-21)
(-0.0261437 -5.97025e-05 -3.59248e-21)
(-0.0262045 -7.27656e-05 -7.23698e-21)
(-0.0263477 -7.27949e-05 1.0302e-22)
(-0.0262763 -6.28083e-05 3.56962e-21)
(-0.0264895 -8.62661e-05 3.73973e-21)
(-0.0262773 -5.18544e-05 -3.56936e-21)
(-0.0265656 -0.000100108 0)
(-0.0262043 -3.98522e-05 3.15289e-21)
(-0.0265727 -0.000114336 0)
(-0.0260544 -2.67909e-05 1.99627e-22)
(-0.0265073 -0.000128927 3.31039e-21)
(-0.0258245 -1.26708e-05 0)
(-0.0263661 -0.000143855 -3.10958e-21)
(-0.0255119 2.48139e-06 2.90733e-21)
(-0.0261458 -0.000159071 0)
(-0.0251143 1.86194e-05 -2.91004e-21)
(-0.0258434 -0.000174514 -2.96535e-21)
(-0.0246297 3.56768e-05 1.70819e-22)
(-0.0254561 -0.000190108 2.78585e-21)
(-0.0240564 5.35681e-05 -2.55296e-21)
(-0.0249817 -0.000205764 1.74251e-22)
(-0.0233933 7.21899e-05 2.3993e-21)
(-0.0244181 -0.000221381 2.60525e-21)
(-0.0226398 9.14239e-05 -2.46198e-21)
(-0.0237639 -0.000236847 -4.42963e-22)
(-0.0217959 0.000111138 2.31555e-21)
(-0.0230181 -0.000252044 -2.48599e-21)
(-0.0208621 0.000131192 1.80542e-21)
(-0.0221804 -0.000266846 0)
(-0.0198396 0.000151435 -2.07541e-21)
(-0.0212509 -0.000281124 -2.1188e-21)
(-0.0187301 0.000171715 0)
(-0.0202306 -0.00029475 -6.39318e-24)
(-0.0175359 0.000191878 1.11189e-22)
(-0.0191209 -0.000307598 3.87964e-21)
(-0.0162599 0.000211773 -1.04882e-22)
(-0.0179237 -0.000319547 -3.64309e-21)
(-0.0149054 0.000231253 0)
(-0.0166419 -0.000330484 1.76362e-21)
(-0.0134764 0.000250183 -9.03013e-25)
(-0.0152785 -0.000340308 0)
(-0.0119771 0.000268437 1.28158e-21)
(-0.0138372 -0.00034893 1.42421e-21)
(-0.0104122 0.000285904 -1.20622e-21)
(-0.0123224 -0.000356277 -1.33895e-21)
(-0.00878666 0.00030249 0)
(-0.0107385 -0.000362293 7.91174e-23)
(-0.00710561 0.000318116 -6.46976e-23)
(-0.00909041 -0.000366941 7.28022e-23)
(-0.00537443 0.000332725 5.89972e-23)
(-0.00738341 -0.000370204 5.1068e-22)
(-0.00359853 0.00034628 0)
(-0.00562282 -0.000372085 -4.4926e-22)
(-0.00178331 0.000358763 4.66521e-22)
(-0.00381411 -0.000372605 -4.23199e-22)
(6.58867e-05 0.00037018 -3.69068e-22)
(-0.00196276 -0.000371809 4.23571e-22)
(0.00194389 0.000380556 2.9694e-22)
(-7.41755e-05 -0.00036976 2.54099e-22)
(0.00384578 0.000389941 -2.98216e-22)
(0.00184641 -0.00036654 -3.45416e-22)
(0.00576694 0.000398406 6.39066e-23)
(0.00379401 -0.000362253 -2.43078e-22)
(0.00770317 0.000406045 -2.81603e-23)
(0.005764 -0.000357023 5.31533e-22)
(0.00965078 0.000412979 -2.60571e-23)
(0.0077522 -0.000350991 -2.51543e-22)
(0.0116067 0.000419359 1.70861e-22)
(0.00975502 -0.000344329 2.29862e-22)
(0.0135685 0.000425364 -3.26713e-22)
(0.0117696 -0.000337229 -2.52365e-22)
(0.0155349 0.000431229 2.27143e-22)
(0.0137939 -0.000329931 -4.45728e-23)
(0.0175054 0.000437227 -7.14114e-23)
(0.0158269 -0.000322706 2.00169e-23)
(0.0194811 0.00044376 1.60905e-23)
(0.0178694 -0.000315943 1.85808e-23)
(0.021465 0.000451304 0)
(0.0199233 -0.000310091 8.64458e-23)
(0.0234629 0.000460765 1.60487e-23)
(0.0219943 -0.000306005 -5.20208e-23)
(0.025484 0.000473372 6.26971e-23)
(0.0240906 -0.000304843 0)
(0.0275452 0.000492537 -2.98188e-23)
(0.0262287 -0.000309885 0)
(0.0296738 0.000524222 1.8544e-24)
(0.0284347 -0.000326935 5.49252e-23)
(0.0319192 0.000590897 0)
(0.0307579 -0.000378077 -1.76018e-23)
(0.034401 0.000736278 0)
(0.0333146 -0.00050682 -2.15095e-23)
(0.0372784 0.0011671 -2.41991e-23)
(0.0362707 -0.000916856 0)
(0.0414246 0.00227014 0)
(0.040471 -0.00199611 -1.46379e-23)
(0.0473085 0.00655849 -3.27392e-23)
(0.00968602 0.00504674 0)
(-0.000476386 -0.00287003 -3.42416e-23)
(-0.000520682 0.0025014 3.42024e-23)
(0.0095608 -0.00513144 6.62547e-23)
(0.0464142 -0.00619837 4.72858e-23)
)
;
        pressure        nonuniform List<scalar> 
168
(
-0.477291
-0.488991
-0.477897
-0.489585
-0.478568
-0.490249
-0.479228
-0.490909
-0.47981
-0.491497
-0.480242
-0.49194
-0.480474
-0.492191
-0.480479
-0.492223
-0.480243
-0.492021
-0.479761
-0.49158
-0.479031
-0.490899
-0.478051
-0.489977
-0.476814
-0.488808
-0.475309
-0.487381
-0.473517
-0.48568
-0.471411
-0.483678
-0.468959
-0.481344
-0.466117
-0.478637
-0.462846
-0.475518
-0.459081
-0.471924
-0.454829
-0.467863
-0.449884
-0.463128
-0.444535
-0.458004
-0.437934
-0.45167
-0.43125
-0.445245
-0.424044
-0.438304
-0.416612
-0.431131
-0.408791
-0.423567
-0.400686
-0.415712
-0.392248
-0.407517
-0.383514
-0.399017
-0.374475
-0.3902
-0.365147
-0.381081
-0.355534
-0.371664
-0.345649
-0.36196
-0.335503
-0.351978
-0.325111
-0.341731
-0.314489
-0.331234
-0.303655
-0.320502
-0.29263
-0.309556
-0.281436
-0.298416
-0.270099
-0.287105
-0.258647
-0.275649
-0.247108
-0.264076
-0.235516
-0.252416
-0.223902
-0.240702
-0.212303
-0.228965
-0.200753
-0.217242
-0.189292
-0.20557
-0.177955
-0.193984
-0.166782
-0.182523
-0.15581
-0.171225
-0.145076
-0.160128
-0.134617
-0.149269
-0.124469
-0.138685
-0.114665
-0.128412
-0.105237
-0.118483
-0.0962146
-0.108931
-0.0876264
-0.0997851
-0.0794973
-0.0910748
-0.0718499
-0.0828253
-0.0647043
-0.0750601
-0.0580779
-0.0677999
-0.0519857
-0.061063
-0.0464398
-0.0548653
-0.0414503
-0.0492201
-0.037025
-0.0441389
-0.0331696
-0.0396307
-0.0298883
-0.0357031
-0.0271839
-0.0323623
-0.0250589
-0.0296137
-0.0235145
-0.0274617
-0.0225541
-0.0259126
-0.0221799
-0.0249716
-0.0224017
-0.0246511
-0.0232273
-0.0249618
-0.024685
-0.025935
-0.0268144
-0.0276118
-0.0296785
-0.0300639
-0.033627
-0.0336235
-0.0384806
-0.0381922
-0.0483741
-0.0783499
-0.0556436
-0.0555348
-0.0773642
-0.0476534
)
;
        value           nonuniform List<vector> 
168
(
(-1.19642e-09 -7.19671e-10 3.80813e-26)
(-2.25504e-09 1.16597e-09 1.93697e-26)
(-1.10483e-09 -1.10223e-09 -3.46136e-28)
(-2.24089e-09 1.92795e-09 2.02999e-28)
(-1.11251e-09 -1.35045e-09 -4.2391e-26)
(-2.3639e-09 2.55979e-09 -4.38552e-26)
(-1.24357e-09 -1.45666e-09 2.04247e-28)
(-2.63193e-09 3.0626e-09 2.06071e-26)
(-1.49646e-09 -1.45697e-09 3.81362e-26)
(-3.02975e-09 3.48842e-09 1.99191e-26)
(-1.85385e-09 -1.36757e-09 2.0894e-30)
(-3.52504e-09 3.86202e-09 -1.81911e-26)
(-2.30823e-09 -1.20665e-09 -1.72296e-26)
(-4.09816e-09 4.20817e-09 1.73832e-26)
(-2.8547e-09 -9.86639e-10 1.48772e-26)
(-4.73267e-09 4.5421e-09 -1.64212e-26)
(-3.49316e-09 -7.18913e-10 -1.42152e-26)
(-5.41743e-09 4.87485e-09 -1.82151e-28)
(-4.2262e-09 -4.13406e-10 -1.26475e-26)
(-6.14347e-09 5.21235e-09 1.19637e-26)
(-5.05906e-09 -8.0207e-11 -9.21329e-29)
(-6.90354e-09 5.55642e-09 -2.38253e-26)
(-5.99908e-09 2.69682e-10 2.00833e-26)
(-7.69105e-09 5.90445e-09 1.08563e-26)
(-7.05567e-09 6.23178e-10 -2.00683e-26)
(-8.49962e-09 6.24919e-09 -5.08833e-29)
(-8.24023e-09 9.63919e-10 1.3668e-27)
(-9.32267e-09 6.57801e-09 -1.91229e-29)
(-9.56622e-09 1.27079e-09 -2.45297e-27)
(-1.01531e-08 6.87195e-09 1.52766e-26)
(-1.10491e-08 1.51617e-09 -2.07876e-27)
(-1.09832e-08 7.10441e-09 -6.91471e-27)
(-1.27067e-08 1.66386e-09 3.62697e-27)
(-1.18042e-08 7.23944e-09 -8.63149e-27)
(-1.45586e-08 1.66654e-09 1.48445e-29)
(-1.26062e-08 7.22952e-09 4.82363e-27)
(-1.66267e-08 1.46287e-09 8.71132e-27)
(-1.33779e-08 7.01289e-09 -8.92872e-27)
(-1.89352e-08 9.73916e-10 -7.41292e-27)
(-1.41065e-08 6.51011e-09 -4.69628e-29)
(-2.15098e-08 9.9134e-11 2.56791e-27)
(-1.4778e-08 5.62014e-09 2.8828e-27)
(-2.43782e-08 -1.28871e-09 -9.81326e-29)
(-1.53767e-08 4.21536e-09 9.0051e-28)
(-2.76924e-08 -3.42722e-09 -1.84996e-30)
(-1.59034e-08 2.05685e-09 -1.43248e-28)
(-3.13702e-08 -6.52024e-09 -3.6727e-29)
(-1.63108e-08 -1.05871e-09 4.61768e-27)
(-3.51679e-08 -1.04877e-08 9.26193e-28)
(-1.65692e-08 -5.05003e-09 -1.76855e-28)
(-3.90721e-08 -1.53947e-08 -3.21503e-27)
(-1.66894e-08 -9.98208e-09 -4.49966e-27)
(-4.30691e-08 -2.12997e-08 -8.77255e-27)
(-1.66823e-08 -1.59135e-08 -9.28852e-27)
(-4.71452e-08 -2.82548e-08 4.24298e-27)
(-1.65592e-08 -2.28964e-08 -3.79137e-27)
(-5.12865e-08 -3.63055e-08 4.67137e-27)
(-1.63312e-08 -3.09762e-08 -1.2892e-26)
(-5.54795e-08 -4.54909e-08 -4.6765e-27)
(-1.60093e-08 -4.01921e-08 4.12471e-27)
(-5.97113e-08 -5.58436e-08 -1.15018e-27)
(-1.56042e-08 -5.05768e-08 -3.21768e-27)
(-6.3969e-08 -6.73903e-08 -1.08425e-26)
(-1.51261e-08 -6.2157e-08 -4.22235e-28)
(-6.82407e-08 -8.01519e-08 7.1383e-27)
(-1.45849e-08 -7.49537e-08 -5.25432e-28)
(-7.25151e-08 -9.41436e-08 4.29213e-27)
(-1.39897e-08 -8.89823e-08 -1.30855e-26)
(-7.67816e-08 -1.09376e-07 -2.23801e-28)
(-1.33489e-08 -1.04253e-07 -5.7202e-28)
(-8.10306e-08 -1.25854e-07 1.13611e-27)
(-1.26702e-08 -1.20772e-07 1.85584e-27)
(-8.52533e-08 -1.4358e-07 6.08661e-28)
(-1.19604e-08 -1.3854e-07 -3.95989e-27)
(-8.9442e-08 -1.62551e-07 -5.4058e-27)
(-1.12255e-08 -1.57555e-07 -8.27816e-27)
(-9.35898e-08 -1.82761e-07 3.24951e-27)
(-1.04705e-08 -1.77812e-07 3.93346e-27)
(-9.7691e-08 -2.04203e-07 3.73865e-27)
(-9.69943e-09 -1.99302e-07 1.08489e-28)
(-1.01741e-07 -2.26866e-07 3.80354e-27)
(-8.9156e-09 -2.22015e-07 3.29853e-27)
(-1.05735e-07 -2.50738e-07 3.20571e-28)
(-8.12137e-09 -2.45939e-07 3.57037e-27)
(-1.09671e-07 -2.75805e-07 5.65293e-27)
(-7.31838e-09 -2.71061e-07 4.78557e-27)
(-1.13546e-07 -3.02054e-07 3.63792e-27)
(-6.50757e-09 -2.97367e-07 -4.29039e-27)
(-1.17358e-07 -3.2947e-07 2.61399e-27)
(-5.68933e-09 -3.24842e-07 -1.63401e-27)
(-1.21106e-07 -3.58038e-07 -1.15629e-27)
(-4.86356e-09 -3.53471e-07 8.35968e-28)
(-1.24788e-07 -3.87743e-07 1.14116e-27)
(-4.02985e-09 -3.8324e-07 -5.53517e-27)
(-1.28405e-07 -4.1857e-07 -5.87731e-28)
(-3.1876e-09 -4.14133e-07 -1.29986e-29)
(-1.31956e-07 -4.50506e-07 -5.45715e-27)
(-2.33612e-09 -4.46138e-07 -6.69211e-27)
(-1.35439e-07 -4.83537e-07 2.22535e-27)
(-1.47483e-09 -4.79239e-07 2.9499e-27)
(-1.38854e-07 -5.17647e-07 -2.66855e-27)
(-6.0339e-10 -5.13422e-07 1.9321e-27)
(-1.422e-07 -5.52824e-07 -1.15057e-26)
(2.78207e-10 -5.48675e-07 -1.9795e-27)
(-1.45474e-07 -5.89053e-07 -4.12549e-27)
(1.16948e-09 -5.84981e-07 8.37445e-27)
(-1.48675e-07 -6.26319e-07 4.43229e-27)
(2.06938e-09 -6.22328e-07 1.13091e-27)
(-1.51799e-07 -6.64606e-07 -2.14119e-27)
(2.97627e-09 -6.60698e-07 -6.10478e-29)
(-1.54843e-07 -7.03898e-07 6.81402e-27)
(3.88785e-09 -7.00075e-07 -5.46446e-27)
(-1.57803e-07 -7.44176e-07 4.87481e-27)
(4.80125e-09 -7.4044e-07 9.26087e-27)
(-1.60675e-07 -7.85419e-07 -4.30444e-27)
(5.71302e-09 -7.81773e-07 9.751e-29)
(-1.63453e-07 -8.27604e-07 2.52549e-28)
(6.61925e-09 -8.24051e-07 5.31904e-28)
(-1.66132e-07 -8.70706e-07 -5.83117e-27)
(7.51568e-09 -8.67247e-07 -2.21671e-28)
(-1.68707e-07 -9.14697e-07 5.83842e-27)
(8.39778e-09 -9.11335e-07 -2.36937e-28)
(-1.71171e-07 -9.59545e-07 -1.824e-28)
(9.26084e-09 -9.56282e-07 4.24634e-28)
(-1.7352e-07 -1.00522e-06 7.37515e-27)
(1.01001e-08 -1.00206e-06 -4.69232e-28)
(-1.75747e-07 -1.05168e-06 -6.99376e-27)
(1.09108e-08 -1.04862e-06 5.64911e-27)
(-1.77848e-07 -1.09889e-06 -4.49981e-28)
(1.16883e-08 -1.09594e-06 6.49954e-27)
(-1.79816e-07 -1.1468e-06 -7.33927e-27)
(1.2428e-08 -1.14396e-06 -1.16011e-27)
(-1.81648e-07 -1.19538e-06 -2.41128e-26)
(1.31256e-08 -1.19265e-06 -1.55634e-27)
(-1.83338e-07 -1.24457e-06 1.63112e-26)
(1.37772e-08 -1.24195e-06 1.14353e-28)
(-1.84882e-07 -1.29433e-06 7.59145e-29)
(1.43792e-08 -1.29183e-06 -9.5031e-27)
(-1.86278e-07 -1.34461e-06 3.2568e-28)
(1.49288e-08 -1.34222e-06 -8.33904e-29)
(-1.87522e-07 -1.39535e-06 -8.26167e-30)
(1.54239e-08 -1.39308e-06 -8.37017e-27)
(-1.88614e-07 -1.4465e-06 -9.38615e-27)
(1.58634e-08 -1.44435e-06 -3.25981e-30)
(-1.89554e-07 -1.498e-06 -3.94161e-29)
(1.62476e-08 -1.49597e-06 9.78694e-27)
(-1.90342e-07 -1.5498e-06 4.29418e-31)
(1.65781e-08 -1.5479e-06 9.63946e-27)
(-1.90982e-07 -1.60185e-06 2.14983e-26)
(1.68581e-08 -1.60007e-06 3.07495e-28)
(-1.9148e-07 -1.65409e-06 -1.07951e-26)
(1.70927e-08 -1.65243e-06 -1.05788e-26)
(-1.91841e-07 -1.70648e-06 2.20587e-26)
(1.72885e-08 -1.70495e-06 2.81864e-31)
(-1.92074e-07 -1.75896e-06 -1.17597e-26)
(1.74548e-08 -1.75756e-06 -1.1622e-26)
(-1.9219e-07 -1.81151e-06 -1.1805e-26)
(1.76009e-08 -1.81024e-06 1.10345e-28)
(-1.92198e-07 -1.86409e-06 1.19638e-26)
(1.77427e-08 -1.86294e-06 1.19415e-26)
(-1.92114e-07 -1.91666e-06 2.51486e-26)
(1.78901e-08 -1.91565e-06 -1.23286e-26)
(-1.91932e-07 -1.96921e-06 -1.0437e-28)
(-1.65624e-07 -1.99534e-06 9.42787e-29)
(-1.1319e-07 -1.99514e-06 2.87818e-28)
(-6.07021e-08 -1.99496e-06 6.35838e-28)
(-8.1355e-09 -1.99482e-06 2.34811e-29)
(1.80861e-08 -1.96836e-06 1.09646e-28)
)
;
    }
    frontAndBackPlanes
    {
        type            empty;
    }
}


// ************************************************************************* //
