/*--------------------------------*- C++ -*----------------------------------*\
| =========                 |                                                 |
| \\      /  F ield         | OpenFOAM Extend Project: Open source CFD        |
|  \\    /   O peration     | Version:  1.6-ext                               |
|   \\  /    A nd           | Web:      www.extend-project.de                 |
|    \\/     M anipulation  |                                                 |
\*---------------------------------------------------------------------------*/
FoamFile
{
    version     2.0;
    format      ascii;
    class       volVectorField;
    location    "1.2";
    object      DU_0;
}
// * * * * * * * * * * * * * * * * * * * * * * * * * * * * * * * * * * * * * //

dimensions      [0 1 0 0 0 0 0];

internalField   nonuniform List<vector> 
328
(
(6.19361e-11 1.46851e-10 0)
(9.32177e-12 7.18145e-11 0)
(-9.97984e-12 7.28781e-11 0)
(-6.34106e-11 1.51794e-10 0)
(1.84694e-10 4.22991e-10 0)
(3.28746e-11 2.5512e-10 0)
(-3.53053e-11 2.58242e-10 0)
(-1.89216e-10 4.358e-10 0)
(3.15684e-10 7.03091e-10 0)
(6.61534e-11 4.86466e-10 0)
(-7.15656e-11 4.91542e-10 0)
(-3.23944e-10 7.21823e-10 0)
(4.47233e-10 9.99395e-10 0)
(1.0243e-10 7.65983e-10 0)
(-1.11611e-10 7.72753e-10 0)
(-4.59631e-10 1.02237e-09 0)
(5.77162e-10 1.32295e-09 0)
(1.40778e-10 1.09386e-09 0)
(-1.54607e-10 1.10201e-09 0)
(-5.94182e-10 1.34888e-09 0)
(7.01284e-10 1.68226e-09 0)
(1.78345e-10 1.47155e-09 0)
(-1.97565e-10 1.48073e-09 0)
(-7.23377e-10 1.71013e-09 0)
(8.16177e-10 2.08385e-09 0)
(2.13645e-10 1.90063e-09 0)
(-2.38983e-10 1.91052e-09 0)
(-8.43834e-10 2.11292e-09 0)
(9.17842e-10 2.5323e-09 0)
(2.44859e-10 2.38271e-09 0)
(-2.76987e-10 2.39303e-09 0)
(-9.5158e-10 2.56201e-09 0)
(1.00201e-09 3.03037e-09 0)
(2.70402e-10 2.91874e-09 0)
(-3.0997e-10 2.92928e-09 0)
(-1.04238e-09 3.0603e-09 0)
(1.06379e-09 3.57882e-09 0)
(2.88505e-10 3.50853e-09 0)
(-3.36145e-10 3.51911e-09 0)
(-1.11139e-09 3.60869e-09 0)
(1.09764e-09 4.17609e-09 0)
(2.97269e-10 4.15002e-09 0)
(-3.5361e-10 4.16054e-09 0)
(-1.15308e-09 4.20569e-09 0)
(1.09719e-09 4.81763e-09 0)
(2.94535e-10 4.83847e-09 0)
(-3.60203e-10 4.84886e-09 0)
(-1.1611e-09 4.84687e-09 0)
(1.0551e-09 5.49512e-09 0)
(2.77859e-10 5.56549e-09 0)
(-3.53478e-10 5.57572e-09 0)
(-1.12813e-09 5.52394e-09 0)
(9.63027e-10 6.19523e-09 0)
(2.4446e-10 6.3177e-09 0)
(-3.3064e-10 6.32777e-09 0)
(-1.04579e-09 6.22365e-09 0)
(8.11447e-10 6.89817e-09 0)
(1.91187e-10 7.07529e-09 0)
(-2.88502e-10 7.08524e-09 0)
(-9.04526e-10 6.92626e-09 0)
(5.89618e-10 7.57578e-09 0)
(1.14495e-10 7.81004e-09 0)
(-2.23445e-10 7.81991e-09 0)
(-6.935e-10 7.60367e-09 0)
(2.85504e-10 8.18927e-09 0)
(1.04338e-11 8.48302e-09 0)
(-1.31386e-10 8.49289e-09 0)
(-4.00528e-10 8.21717e-09 0)
(-1.14245e-10 8.68639e-09 0)
(-1.25357e-10 9.04178e-09 0)
(-7.75106e-12 9.05175e-09 0)
(-1.20359e-11 8.71458e-09 0)
(-6.24261e-10 8.99809e-09 0)
(-2.97626e-10 9.41696e-09 0)
(1.52536e-10 9.42716e-09 0)
(4.86951e-10 9.02695e-09 0)
(-1.26034e-09 9.03455e-09 0)
(-5.11461e-10 9.51833e-09 0)
(3.55037e-10 9.52892e-09 0)
(1.11271e-09 9.06459e-09 0)
(-2.03933e-09 8.6806e-09 0)
(-7.72223e-10 9.23009e-09 0)
(6.05804e-10 9.24129e-09 0)
(1.88278e-09 8.71243e-09 0)
(-2.97847e-09 7.79032e-09 0)
(-1.08534e-09 8.40565e-09 0)
(9.1119e-10 8.41772e-09 0)
(2.81534e-09 7.82476e-09 0)
(-4.13868e-09 6.11945e-09 0)
(-1.47055e-09 6.80229e-09 0)
(1.29205e-09 6.81559e-09 0)
(3.97251e-09 6.15757e-09 0)
(-5.50604e-09 3.40682e-09 0)
(-1.92283e-09 4.15503e-09 0)
(1.74587e-09 4.17001e-09 0)
(5.34284e-09 3.45001e-09 0)
(-6.9844e-09 -3.11579e-10 0)
(-2.40973e-09 4.9479e-10 0)
(2.24137e-09 5.11814e-10 0)
(6.83121e-09 -2.62199e-10 0)
(-8.55892e-09 -5.10818e-09 0)
(-2.92602e-09 -4.25075e-09 0)
(2.77424e-09 -4.23131e-09 0)
(8.42367e-09 -5.05149e-09 0)
(-1.02148e-08 -1.10451e-08 0)
(-3.46653e-09 -1.01437e-08 0)
(3.3401e-09 -1.01215e-08 0)
(1.01062e-08 -1.098e-08 0)
(-1.19375e-08 -1.81743e-08 0)
(-4.02616e-09 -1.72357e-08 0)
(3.9346e-09 -1.72104e-08 0)
(1.1865e-08 -1.80997e-08 0)
(-1.37125e-08 -2.65373e-08 0)
(-4.59995e-09 -2.55683e-08 0)
(4.55342e-09 -2.55396e-08 0)
(1.36862e-08 -2.64523e-08 0)
(-1.55261e-08 -3.61659e-08 0)
(-5.18315e-09 -3.51732e-08 0)
(5.19237e-09 -3.51407e-08 0)
(1.55567e-08 -3.60695e-08 0)
(-1.73651e-08 -4.70825e-08 0)
(-5.77125e-09 -4.60722e-08 0)
(5.84737e-09 -4.60356e-08 0)
(1.74635e-08 -4.69739e-08 0)
(-1.92171e-08 -5.93005e-08 0)
(-6.36005e-09 -5.82783e-08 0)
(6.51456e-09 -5.82375e-08 0)
(1.93949e-08 -5.91789e-08 0)
(-2.10707e-08 -7.28247e-08 0)
(-6.94572e-09 -7.1796e-08 0)
(7.19034e-09 -7.17506e-08 0)
(2.13394e-08 -7.26894e-08 0)
(-2.29158e-08 -8.76525e-08 0)
(-7.52485e-09 -8.66219e-08 0)
(7.8714e-09 -8.65719e-08 0)
(2.32872e-08 -8.75029e-08 0)
(-2.47433e-08 -1.03774e-07 0)
(-8.09444e-09 -1.02746e-07 0)
(8.55475e-09 -1.02691e-07 0)
(2.52291e-08 -1.0361e-07 0)
(-2.65455e-08 -1.21175e-07 0)
(-8.652e-09 -1.20152e-07 0)
(9.23781e-09 -1.20092e-07 0)
(2.71574e-08 -1.20995e-07 0)
(-2.83162e-08 -1.39834e-07 0)
(-9.19551e-09 -1.3882e-07 0)
(9.91838e-09 -1.38755e-07 0)
(2.90658e-08 -1.39638e-07 0)
(-3.00507e-08 -1.59727e-07 0)
(-9.72345e-09 -1.58724e-07 0)
(1.05947e-08 -1.58653e-07 0)
(3.0949e-08 -1.59516e-07 0)
(-3.17454e-08 -1.80827e-07 0)
(-1.02348e-08 -1.79836e-07 0)
(1.12654e-08 -1.7976e-07 0)
(3.28035e-08 -1.806e-07 0)
(-3.33984e-08 -2.03106e-07 0)
(-1.0729e-08 -2.02128e-07 0)
(1.19295e-08 -2.02047e-07 0)
(3.46269e-08 -2.02862e-07 0)
(-3.50091e-08 -2.26534e-07 0)
(-1.12059e-08 -2.25569e-07 0)
(1.25867e-08 -2.25483e-07 0)
(3.64181e-08 -2.26274e-07 0)
(-3.6578e-08 -2.51082e-07 0)
(-1.16659e-08 -2.5013e-07 0)
(1.32366e-08 -2.50038e-07 0)
(3.81773e-08 -2.50806e-07 0)
(-3.81068e-08 -2.76722e-07 0)
(-1.21096e-08 -2.75782e-07 0)
(1.38797e-08 -2.75685e-07 0)
(3.99058e-08 -2.7643e-07 0)
(-3.95981e-08 -3.03428e-07 0)
(-1.2538e-08 -3.02499e-07 0)
(1.45163e-08 -3.02396e-07 0)
(4.16056e-08 -3.03119e-07 0)
(-4.10553e-08 -3.31177e-07 0)
(-1.29523e-08 -3.30256e-07 0)
(1.51474e-08 -3.30148e-07 0)
(4.32798e-08 -3.30851e-07 0)
(-4.24824e-08 -3.59947e-07 0)
(-1.3354e-08 -3.59033e-07 0)
(1.5774e-08 -3.58919e-07 0)
(4.4932e-08 -3.59605e-07 0)
(-4.38838e-08 -3.89722e-07 0)
(-1.37446e-08 -3.88813e-07 0)
(1.63972e-08 -3.88693e-07 0)
(4.65663e-08 -3.89364e-07 0)
(-4.52639e-08 -4.20488e-07 0)
(-1.41256e-08 -4.19581e-07 0)
(1.70183e-08 -4.19456e-07 0)
(4.81868e-08 -4.20114e-07 0)
(-4.66274e-08 -4.52235e-07 0)
(-1.44986e-08 -4.51329e-07 0)
(1.76386e-08 -4.51199e-07 0)
(4.97978e-08 -4.51845e-07 0)
(-4.79784e-08 -4.84957e-07 0)
(-1.4865e-08 -4.8405e-07 0)
(1.82593e-08 -4.83915e-07 0)
(5.14035e-08 -4.84551e-07 0)
(-4.93208e-08 -5.18652e-07 0)
(-1.52261e-08 -5.17742e-07 0)
(1.88816e-08 -5.17602e-07 0)
(5.30073e-08 -5.18231e-07 0)
(-5.06576e-08 -5.5332e-07 0)
(-1.55829e-08 -5.52406e-07 0)
(1.95064e-08 -5.5226e-07 0)
(5.46125e-08 -5.52883e-07 0)
(-5.19913e-08 -5.88963e-07 0)
(-1.59362e-08 -5.88044e-07 0)
(2.01345e-08 -5.87893e-07 0)
(5.62212e-08 -5.8851e-07 0)
(-5.3323e-08 -6.25586e-07 0)
(-1.62864e-08 -6.24662e-07 0)
(2.07662e-08 -6.24505e-07 0)
(5.78348e-08 -6.25118e-07 0)
(-5.46532e-08 -6.63194e-07 0)
(-1.66335e-08 -6.62264e-07 0)
(2.14017e-08 -6.62103e-07 0)
(5.94536e-08 -6.62711e-07 0)
(-5.59808e-08 -7.01792e-07 0)
(-1.69772e-08 -7.00858e-07 0)
(2.20407e-08 -7.00692e-07 0)
(6.10769e-08 -7.01294e-07 0)
(-5.7304e-08 -7.41384e-07 0)
(-1.73168e-08 -7.40447e-07 0)
(2.26827e-08 -7.40276e-07 0)
(6.27027e-08 -7.40871e-07 0)
(-5.86195e-08 -7.81972e-07 0)
(-1.76512e-08 -7.81034e-07 0)
(2.33268e-08 -7.80858e-07 0)
(6.43281e-08 -7.81446e-07 0)
(-5.99232e-08 -8.23556e-07 0)
(-1.7979e-08 -8.2262e-07 0)
(2.39716e-08 -8.2244e-07 0)
(6.59491e-08 -8.23017e-07 0)
(-6.12099e-08 -8.66133e-07 0)
(-1.82985e-08 -8.65201e-07 0)
(2.46156e-08 -8.65017e-07 0)
(6.75607e-08 -8.6558e-07 0)
(-6.24737e-08 -9.09694e-07 0)
(-1.86075e-08 -9.0877e-07 0)
(2.52571e-08 -9.08581e-07 0)
(6.91571e-08 -9.09129e-07 0)
(-6.3708e-08 -9.54226e-07 0)
(-1.8904e-08 -9.53314e-07 0)
(2.58938e-08 -9.53121e-07 0)
(7.07318e-08 -9.5365e-07 0)
(-6.49057e-08 -9.99712e-07 0)
(-1.91856e-08 -9.98815e-07 0)
(2.65236e-08 -9.98619e-07 0)
(7.22779e-08 -9.99125e-07 0)
(-6.60594e-08 -1.04613e-06 0)
(-1.94497e-08 -1.04525e-06 0)
(2.7144e-08 -1.04505e-06 0)
(7.37881e-08 -1.04553e-06 0)
(-6.71614e-08 -1.09345e-06 0)
(-1.96938e-08 -1.09259e-06 0)
(2.77527e-08 -1.09239e-06 0)
(7.52547e-08 -1.09284e-06 0)
(-6.82043e-08 -1.14163e-06 0)
(-1.99155e-08 -1.14081e-06 0)
(2.83472e-08 -1.1406e-06 0)
(7.66702e-08 -1.14102e-06 0)
(-6.91804e-08 -1.19064e-06 0)
(-2.01124e-08 -1.18985e-06 0)
(2.89249e-08 -1.18964e-06 0)
(7.80272e-08 -1.19002e-06 0)
(-7.00829e-08 -1.24044e-06 0)
(-2.02821e-08 -1.23968e-06 0)
(2.94836e-08 -1.23947e-06 0)
(7.93186e-08 -1.23981e-06 0)
(-7.09052e-08 -1.29096e-06 0)
(-2.04226e-08 -1.29024e-06 0)
(3.0021e-08 -1.29003e-06 0)
(8.05376e-08 -1.29032e-06 0)
(-7.16414e-08 -1.34215e-06 0)
(-2.05321e-08 -1.34148e-06 0)
(3.0535e-08 -1.34126e-06 0)
(8.16783e-08 -1.34151e-06 0)
(-7.22867e-08 -1.39396e-06 0)
(-2.0609e-08 -1.39333e-06 0)
(3.10241e-08 -1.39311e-06 0)
(8.27356e-08 -1.39332e-06 0)
(-7.28373e-08 -1.44632e-06 0)
(-2.06522e-08 -1.44573e-06 0)
(3.14867e-08 -1.44552e-06 0)
(8.37054e-08 -1.44567e-06 0)
(-7.32909e-08 -1.49916e-06 0)
(-2.06611e-08 -1.49862e-06 0)
(3.19219e-08 -1.49841e-06 0)
(8.45851e-08 -1.49851e-06 0)
(-7.36468e-08 -1.55242e-06 0)
(-2.06357e-08 -1.55192e-06 0)
(3.23293e-08 -1.55171e-06 0)
(8.53735e-08 -1.55177e-06 0)
(-7.39059e-08 -1.60602e-06 0)
(-2.05764e-08 -1.60557e-06 0)
(3.2709e-08 -1.60535e-06 0)
(8.60714e-08 -1.60536e-06 0)
(-7.40713e-08 -1.65989e-06 0)
(-2.04845e-08 -1.65949e-06 0)
(3.30616e-08 -1.65927e-06 0)
(8.66814e-08 -1.65923e-06 0)
(-7.41479e-08 -1.71396e-06 0)
(-2.0362e-08 -1.71361e-06 0)
(3.33885e-08 -1.71339e-06 0)
(8.7208e-08 -1.71331e-06 0)
(-7.4143e-08 -1.76819e-06 0)
(-2.02113e-08 -1.76787e-06 0)
(3.36917e-08 -1.76765e-06 0)
(8.76583e-08 -1.76754e-06 0)
(-7.4066e-08 -1.82249e-06 0)
(-2.00367e-08 -1.82221e-06 0)
(3.39731e-08 -1.82199e-06 0)
(8.80409e-08 -1.82184e-06 0)
(-7.3927e-08 -1.87684e-06 0)
(-1.98414e-08 -1.87658e-06 0)
(3.42364e-08 -1.87636e-06 0)
(8.83686e-08 -1.87619e-06 0)
(-7.37417e-08 -1.93117e-06 0)
(-1.9633e-08 -1.93093e-06 0)
(3.44824e-08 -1.93071e-06 0)
(8.86522e-08 -1.93053e-06 0)
(-7.35153e-08 -1.98545e-06 0)
(-1.94054e-08 -1.98523e-06 0)
(3.47254e-08 -1.98503e-06 0)
(8.8915e-08 -1.98485e-06 0)
)
;

boundaryField
{
    plateFix
    {
        type            fixedDisplacement;
        value           uniform (0 0 0);
    }
    plate
    {
        type            solidTraction;
        nonLinear       updatedLagrangian;
        traction        uniform (0 0 0);
        pressure        uniform 0;
        value           nonuniform List<vector> 
168
(
(7.62819e-10 3.51344e-10 -1.86839e-26)
(-7.85785e-10 3.63739e-10 -6.241e-28)
(8.33241e-10 6.22314e-10 -4.46376e-26)
(-8.53694e-10 6.43222e-10 -2.29125e-26)
(9.41621e-10 8.95596e-10 2.12423e-26)
(-9.60981e-10 9.23005e-10 4.3581e-26)
(1.07435e-09 1.17838e-09 -4.81354e-29)
(-1.0942e-09 1.21025e-09 -2.04439e-26)
(1.22102e-09 1.48545e-09 -1.93868e-26)
(-1.24285e-09 1.52039e-09 -1.95813e-26)
(1.3701e-09 1.82525e-09 1.75975e-26)
(-1.39508e-09 1.86214e-09 1.83078e-26)
(1.51287e-09 2.20522e-09 1.69322e-26)
(-1.542e-09 2.24325e-09 -1.72298e-26)
(1.6413e-09 2.63014e-09 -1.48637e-26)
(-1.67544e-09 2.66872e-09 -1.55774e-26)
(1.74804e-09 3.10301e-09 -1.34461e-26)
(-1.78798e-09 3.14168e-09 1.44748e-26)
(1.8256e-09 3.62463e-09 1.28744e-26)
(-1.87207e-09 3.6631e-09 1.18189e-26)
(1.86602e-09 4.19348e-09 1.2498e-26)
(-1.91974e-09 4.23151e-09 1.76108e-29)
(1.86045e-09 4.80499e-09 -1.05824e-26)
(-1.92209e-09 4.84247e-09 -9.70426e-27)
(1.79891e-09 5.45083e-09 2.93207e-27)
(-1.86912e-09 5.4877e-09 7.65973e-27)
(1.67005e-09 6.11765e-09 5.72386e-27)
(-1.74943e-09 6.15393e-09 7.04461e-29)
(1.46099e-09 6.78568e-09 7.34037e-27)
(-1.55009e-09 6.82145e-09 -7.69112e-27)
(1.15721e-09 7.42679e-09 -1.09745e-26)
(-1.25646e-09 7.46224e-09 8.25227e-28)
(7.42423e-10 8.00229e-09 9.78221e-27)
(-8.52114e-10 8.03768e-09 2.76313e-27)
(1.98595e-10 8.46005e-09 -4.96545e-27)
(-3.18783e-10 8.49576e-09 -2.38186e-27)
(-4.9404e-10 8.73122e-09 -1.57028e-28)
(3.63639e-10 8.76778e-09 -6.54532e-29)
(-1.35681e-09 8.72628e-09 -7.64567e-29)
(1.21695e-09 8.76435e-09 -1.16416e-26)
(-2.41241e-09 8.33045e-09 6.35649e-27)
(2.26457e-09 8.37088e-09 2.83726e-27)
(-3.68432e-09 7.39815e-09 -1.08663e-26)
(3.53082e-09 7.44205e-09 -6.59598e-27)
(-5.25587e-09 5.68457e-09 4.56658e-27)
(5.10045e-09 5.73335e-09 -5.36958e-27)
(-7.10392e-09 2.93068e-09 1.66458e-29)
(6.95275e-09 2.98625e-09 -9.77169e-27)
(-9.10144e-09 -8.24481e-10 -9.39138e-28)
(8.9615e-09 -7.60596e-10 1.4267e-26)
(-1.12287e-08 -5.65328e-09 3.36212e-27)
(1.11079e-08 -5.57956e-09 -4.59118e-27)
(-1.34659e-08 -1.16179e-08 2.27144e-27)
(1.33729e-08 -1.15328e-08 -1.55029e-28)
(-1.57932e-08 -1.87702e-08 3.97396e-27)
(1.57374e-08 -1.86724e-08 8.58601e-27)
(-1.81912e-08 -2.71519e-08 -1.42965e-26)
(1.81827e-08 -2.704e-08 8.75212e-27)
(-2.06414e-08 -3.67951e-08 -4.96035e-27)
(2.06906e-08 -3.66679e-08 -1.2035e-26)
(-2.31259e-08 -4.77223e-08 -6.88278e-27)
(2.3244e-08 -4.75786e-08 3.7159e-27)
(-2.5628e-08 -5.9947e-08 9.86323e-27)
(2.58263e-08 -5.97858e-08 -7.4086e-27)
(-2.81325e-08 -7.34745e-08 3.86508e-27)
(2.84224e-08 -7.32949e-08 -1.55932e-27)
(-3.06253e-08 -8.83026e-08 -4.227e-27)
(3.10187e-08 -8.81038e-08 1.57053e-26)
(-3.30945e-08 -1.04422e-07 5.79972e-27)
(3.3603e-08 -1.04203e-07 -2.59915e-27)
(-3.55295e-08 -1.21818e-07 -2.5035e-27)
(3.61647e-08 -1.21579e-07 4.09031e-31)
(-3.7922e-08 -1.4047e-07 7.87091e-29)
(3.86954e-08 -1.4021e-07 -1.71418e-27)
(-4.02655e-08 -1.60355e-07 -1.8515e-27)
(4.11882e-08 -1.60074e-07 3.86347e-27)
(-4.25555e-08 -1.81447e-07 -5.99385e-27)
(4.36385e-08 -1.81144e-07 -1.12793e-27)
(-4.47894e-08 -2.03716e-07 -1.29454e-27)
(4.60431e-08 -2.03392e-07 -1.56968e-27)
(-4.69663e-08 -2.27135e-07 3.0343e-27)
(4.8401e-08 -2.26789e-07 4.72806e-27)
(-4.90873e-08 -2.51674e-07 4.20908e-27)
(5.07126e-08 -2.51306e-07 -6.52963e-27)
(-5.11546e-08 -2.77306e-07 -8.97081e-28)
(5.298e-08 -2.76916e-07 2.45872e-28)
(-5.31721e-08 -3.04004e-07 -1.50808e-27)
(5.52063e-08 -3.03592e-07 -2.67108e-29)
(-5.51444e-08 -3.31746e-07 -6.05416e-27)
(5.7396e-08 -3.31312e-07 4.67324e-27)
(-5.70772e-08 -3.60511e-07 2.50416e-27)
(5.95543e-08 -3.60056e-07 2.18863e-29)
(-5.89767e-08 -3.90282e-07 1.48375e-27)
(6.16869e-08 -3.89805e-07 5.43294e-27)
(-6.08491e-08 -4.21046e-07 4.98943e-27)
(6.38001e-08 -4.20547e-07 1.46246e-27)
(-6.27009e-08 -4.52792e-07 4.59318e-27)
(6.58998e-08 -4.52272e-07 -5.05228e-27)
(-6.45381e-08 -4.85515e-07 2.80043e-27)
(6.79919e-08 -4.84974e-07 2.17447e-27)
(-6.6366e-08 -5.19211e-07 7.41538e-28)
(7.00816e-08 -5.18649e-07 -1.35431e-29)
(-6.8189e-08 -5.53881e-07 3.4519e-27)
(7.21732e-08 -5.53298e-07 -3.53057e-27)
(-7.00106e-08 -5.89527e-07 -8.40785e-27)
(7.42702e-08 -5.88923e-07 3.82619e-27)
(-7.18327e-08 -6.26153e-07 7.43155e-28)
(7.63744e-08 -6.25529e-07 -1.00655e-27)
(-7.36557e-08 -6.63764e-07 -5.98585e-27)
(7.84864e-08 -6.6312e-07 -3.43197e-27)
(-7.54785e-08 -7.02364e-07 5.8253e-27)
(8.06051e-08 -7.017e-07 6.78577e-29)
(-7.72984e-08 -7.41957e-07 4.2456e-27)
(8.2728e-08 -7.41274e-07 5.09384e-27)
(-7.91112e-08 -7.82545e-07 -1.191e-26)
(8.4851e-08 -7.81844e-07 -4.76174e-28)
(-8.09111e-08 -8.24129e-07 -2.21581e-28)
(8.69684e-08 -8.23409e-07 1.06273e-26)
(-8.26912e-08 -8.66702e-07 5.63686e-27)
(8.90735e-08 -8.65965e-07 3.4809e-28)
(-8.44431e-08 -9.10257e-07 -5.91896e-27)
(9.11583e-08 -9.09504e-07 2.80141e-28)
(-8.6158e-08 -9.54782e-07 -1.43636e-28)
(9.32137e-08 -9.54013e-07 6.21115e-27)
(-8.7826e-08 -1.00026e-06 1.03163e-30)
(9.52303e-08 -9.99474e-07 -5.31286e-27)
(-8.94369e-08 -1.04666e-06 1.66237e-29)
(9.71978e-08 -1.04586e-06 9.62906e-28)
(-9.09804e-08 -1.09396e-06 2.74366e-31)
(9.9106e-08 -1.09315e-06 1.46885e-30)
(-9.2446e-08 -1.14213e-06 7.55844e-27)
(1.00944e-07 -1.14131e-06 -1.44481e-26)
(-9.38235e-08 -1.19112e-06 7.05922e-27)
(1.02703e-07 -1.19029e-06 5.67761e-28)
(-9.51032e-08 -1.24089e-06 -3.80505e-32)
(1.04371e-07 -1.24005e-06 7.37488e-27)
(-9.6276e-08 -1.29139e-06 -9.39915e-30)
(1.05941e-07 -1.29054e-06 -1.6196e-26)
(-9.73337e-08 -1.34256e-06 1.77254e-26)
(1.07403e-07 -1.3417e-06 1.72251e-26)
(-9.82694e-08 -1.39434e-06 -9.51411e-27)
(1.0875e-07 -1.39348e-06 6.38467e-28)
(-9.90777e-08 -1.44667e-06 -1.9386e-26)
(1.09978e-07 -1.4458e-06 -9.58794e-27)
(-9.97549e-08 -1.49948e-06 4.97309e-28)
(1.11081e-07 -1.49861e-06 9.01832e-27)
(-1.003e-07 -1.5527e-06 2.0874e-26)
(1.12058e-07 -1.55183e-06 -1.98177e-26)
(-1.00713e-07 -1.60627e-06 2.3493e-28)
(1.1291e-07 -1.6054e-06 1.03027e-26)
(-1.00999e-07 -1.66011e-06 -1.0657e-26)
(1.1364e-07 -1.65924e-06 -1.1261e-26)
(-1.01163e-07 -1.71416e-06 2.27249e-26)
(1.14254e-07 -1.71329e-06 2.67178e-29)
(-1.01216e-07 -1.76836e-06 -5.23963e-29)
(1.14762e-07 -1.76749e-06 -9.06881e-30)
(-1.0117e-07 -1.82264e-06 1.19023e-26)
(1.15175e-07 -1.82178e-06 2.3489e-26)
(-1.01037e-07 -1.87697e-06 3.76116e-28)
(1.15511e-07 -1.8761e-06 -3.6688e-26)
(-1.00836e-07 -1.93129e-06 1.52159e-29)
(1.15791e-07 -1.93043e-06 2.48369e-26)
(-1.00572e-07 -1.98556e-06 -2.58767e-26)
(-7.33995e-08 -2.01254e-06 1.0421e-27)
(-1.92873e-08 -2.01234e-06 1.98368e-28)
(3.485e-08 -2.01216e-06 -1.79429e-28)
(8.90429e-08 -2.01203e-06 -6.86952e-28)
(1.16059e-07 -1.98476e-06 1.2746e-26)
)
;
    }
    frontAndBackPlanes
    {
        type            empty;
    }
}


// ************************************************************************* //
