/*--------------------------------*- C++ -*----------------------------------*\
| =========                 |                                                 |
| \\      /  F ield         | OpenFOAM Extend Project: Open source CFD        |
|  \\    /   O peration     | Version:  1.6-ext                               |
|   \\  /    A nd           | Web:      www.extend-project.de                 |
|    \\/     M anipulation  |                                                 |
\*---------------------------------------------------------------------------*/
FoamFile
{
    version     2.0;
    format      ascii;
    class       volVectorField;
    location    "1.2";
    object      DV;
}
// * * * * * * * * * * * * * * * * * * * * * * * * * * * * * * * * * * * * * //

dimensions      [0 1 -1 0 0 0 0];

internalField   nonuniform List<vector> 
328
(
(-2.04423e-07 -3.96884e-07 0)
(-1.2316e-07 -8.53891e-08 0)
(-1.13473e-07 6.01368e-08 0)
(-1.5109e-07 2.99836e-07 0)
(-6.22406e-07 -1.03011e-06 0)
(-4.08265e-07 -2.66493e-07 0)
(-3.74276e-07 1.58556e-07 0)
(-4.60611e-07 7.57446e-07 0)
(-1.10459e-06 -1.52274e-06 0)
(-7.91198e-07 -4.58425e-07 0)
(-7.22421e-07 2.3096e-07 0)
(-8.21726e-07 1.07633e-06 0)
(-1.62795e-06 -1.90275e-06 0)
(-1.23907e-06 -6.50894e-07 0)
(-1.13111e-06 2.66547e-07 0)
(-1.21798e-06 1.27324e-06 0)
(-2.19825e-06 -2.20443e-06 0)
(-1.75773e-06 -8.40525e-07 0)
(-1.60645e-06 2.61039e-07 0)
(-1.65565e-06 1.3717e-06 0)
(-2.81212e-06 -2.45452e-06 0)
(-2.33643e-06 -1.02747e-06 0)
(-2.13989e-06 2.12023e-07 0)
(-2.13385e-06 1.38951e-06 0)
(-3.47192e-06 -2.67525e-06 0)
(-2.97365e-06 -1.21542e-06 0)
(-2.73066e-06 1.19822e-07 0)
(-2.65635e-06 1.34096e-06 0)
(-4.17897e-06 -2.88376e-06 0)
(-3.66536e-06 -1.40974e-06 0)
(-3.37577e-06 -1.44616e-08 0)
(-3.22619e-06 1.23622e-06 0)
(-4.93579e-06 -3.09387e-06 0)
(-4.41047e-06 -1.61683e-06 0)
(-4.0748e-06 -1.89199e-07 0)
(-3.84758e-06 1.08266e-06 0)
(-5.74475e-06 -3.31647e-06 0)
(-5.20834e-06 -1.84316e-06 0)
(-4.82788e-06 -4.03021e-07 0)
(-4.52479e-06 8.85155e-07 0)
(-6.60836e-06 -3.56026e-06 0)
(-6.05985e-06 -2.09481e-06 0)
(-5.63662e-06 -6.54979e-07 0)
(-5.26253e-06 6.4681e-07 0)
(-7.52901e-06 -3.83192e-06 0)
(-6.96681e-06 -2.37697e-06 0)
(-6.50368e-06 -9.44671e-07 0)
(-6.06572e-06 3.69329e-07 0)
(-8.50902e-06 -4.1364e-06 0)
(-7.932e-06 -2.69373e-06 0)
(-7.4328e-06 -1.27206e-06 0)
(-6.93969e-06 5.35302e-08 0)
(-9.55063e-06 -4.47689e-06 0)
(-8.95896e-06 -3.04777e-06 0)
(-8.42863e-06 -1.63719e-06 0)
(-7.89011e-06 -3.00172e-07 0)
(-1.06561e-05 -4.85481e-06 0)
(-1.00518e-05 -3.44023e-06 0)
(-9.49656e-06 -2.03972e-06 0)
(-8.92317e-06 -6.91207e-07 0)
(-1.18276e-05 -5.26964e-06 0)
(-1.12151e-05 -3.87044e-06 0)
(-1.06426e-05 -2.4784e-06 0)
(-1.00456e-05 -1.11827e-06 0)
(-1.30677e-05 -5.71875e-06 0)
(-1.24538e-05 -4.33562e-06 0)
(-1.18731e-05 -2.95047e-06 0)
(-1.12645e-05 -1.57867e-06 0)
(-1.43788e-05 -6.19703e-06 0)
(-1.37728e-05 -4.83056e-06 0)
(-1.31949e-05 -3.45106e-06 0)
(-1.25877e-05 -2.06772e-06 0)
(-1.57639e-05 -6.69655e-06 0)
(-1.51775e-05 -5.34717e-06 0)
(-1.4615e-05 -3.97256e-06 0)
(-1.40234e-05 -2.5781e-06 0)
(-1.72262e-05 -7.20606e-06 0)
(-1.66734e-05 -5.87404e-06 0)
(-1.61405e-05 -4.50403e-06 0)
(-1.55798e-05 -3.09922e-06 0)
(-1.87696e-05 -7.71054e-06 0)
(-1.82661e-05 -6.39591e-06 0)
(-1.77787e-05 -5.03062e-06 0)
(-1.72656e-05 -3.61672e-06 0)
(-2.03986e-05 -8.19073e-06 0)
(-1.99617e-05 -6.89325e-06 0)
(-1.95369e-05 -5.53316e-06 0)
(-1.9089e-05 -4.11189e-06 0)
(-2.2184e-05 -8.63909e-06 0)
(-2.18352e-05 -7.35885e-06 0)
(-2.14941e-05 -6.00491e-06 0)
(-2.1133e-05 -4.57846e-06 0)
(-2.40651e-05 -8.99801e-06 0)
(-2.3824e-05 -7.73401e-06 0)
(-2.35862e-05 -6.38725e-06 0)
(-2.33316e-05 -4.95883e-06 0)
(-2.59211e-05 -9.22449e-06 0)
(-2.57973e-05 -7.97448e-06 0)
(-2.56724e-05 -6.63557e-06 0)
(-2.55339e-05 -5.20883e-06 0)
(-2.77567e-05 -9.31109e-06 0)
(-2.7756e-05 -8.07291e-06 0)
(-2.775e-05 -6.74253e-06 0)
(-2.77335e-05 -5.32104e-06 0)
(-2.95763e-05 -9.25434e-06 0)
(-2.9701e-05 -8.02593e-06 0)
(-2.98163e-05 -6.70477e-06 0)
(-2.9924e-05 -5.29196e-06 0)
(-3.13842e-05 -9.0546e-06 0)
(-3.16331e-05 -7.83402e-06 0)
(-3.18685e-05 -6.52275e-06 0)
(-3.20991e-05 -5.12193e-06 0)
(-3.31844e-05 -8.71584e-06 0)
(-3.35529e-05 -7.5013e-06 0)
(-3.3904e-05 -6.2006e-06 0)
(-3.42529e-05 -4.81492e-06 0)
(-3.49807e-05 -8.24551e-06 0)
(-3.54609e-05 -7.03539e-06 0)
(-3.59204e-05 -5.74592e-06 0)
(-3.63799e-05 -4.37832e-06 0)
(-3.67761e-05 -7.65421e-06 0)
(-3.73577e-05 -6.4471e-06 0)
(-3.79153e-05 -5.16953e-06 0)
(-3.84747e-05 -3.82274e-06 0)
(-3.85736e-05 -6.9555e-06 0)
(-3.92433e-05 -5.75026e-06 0)
(-3.98863e-05 -4.48523e-06 0)
(-4.05326e-05 -3.16169e-06 0)
(-4.03752e-05 -6.16555e-06 0)
(-4.11179e-05 -4.96129e-06 0)
(-4.18313e-05 -3.70944e-06 0)
(-4.25492e-05 -2.41131e-06 0)
(-4.21828e-05 -5.30273e-06 0)
(-4.29813e-05 -4.09888e-06 0)
(-4.37485e-05 -2.86085e-06 0)
(-4.45209e-05 -1.58995e-06 0)
(-4.39971e-05 -4.3872e-06 0)
(-4.48331e-05 -3.18354e-06 0)
(-4.56361e-05 -1.95994e-06 0)
(-4.64445e-05 -7.17761e-07 0)
(-4.58185e-05 -3.4404e-06 0)
(-4.66726e-05 -2.23705e-06 0)
(-4.74926e-05 -1.02851e-06 0)
(-4.83177e-05 1.83866e-07 0)
(-4.76465e-05 -2.48448e-06 0)
(-4.84989e-05 -1.28194e-06 0)
(-4.93166e-05 -8.90599e-08 0)
(-5.01387e-05 1.0928e-06 0)
(-4.94798e-05 -1.54174e-06 0)
(-5.03109e-05 -3.40875e-07 0)
(-5.11073e-05 8.3574e-07 0)
(-5.19067e-05 1.98675e-06 0)
(-5.13165e-05 -6.34049e-07 0)
(-5.21073e-05 5.63905e-07 0)
(-5.28638e-05 1.72366e-06 0)
(-5.36216e-05 2.84388e-06 0)
(-5.31538e-05 2.17698e-07 0)
(-5.38864e-05 1.41117e-06 0)
(-5.45855e-05 2.55348e-06 0)
(-5.52838e-05 3.6433e-06 0)
(-5.49885e-05 9.94122e-07 0)
(-5.56465e-05 2.18121e-06 0)
(-5.62723e-05 3.30549e-06 0)
(-5.68946e-05 4.36566e-06 0)
(-5.68166e-05 1.67782e-06 0)
(-5.73856e-05 2.85634e-06 0)
(-5.79239e-05 3.962e-06 0)
(-5.84559e-05 4.99355e-06 0)
(-5.86336e-05 2.25376e-06 0)
(-5.91014e-05 3.42128e-06 0)
(-5.95405e-05 4.50776e-06 0)
(-5.99701e-05 5.51196e-06 0)
(-6.04348e-05 2.7097e-06 0)
(-6.07919e-05 3.86358e-06 0)
(-6.11224e-05 4.93028e-06 0)
(-6.144e-05 5.90865e-06 0)
(-6.22148e-05 3.03642e-06 0)
(-6.24545e-05 4.17385e-06 0)
(-6.26701e-05 5.22021e-06 0)
(-6.28691e-05 6.1744e-06 0)
(-6.39684e-05 3.22801e-06 0)
(-6.4087e-05 4.34607e-06 0)
(-6.4184e-05 5.37152e-06 0)
(-6.42608e-05 6.3033e-06 0)
(-6.56898e-05 3.28201e-06 0)
(-6.56868e-05 4.37774e-06 0)
(-6.56648e-05 5.38171e-06 0)
(-6.5619e-05 6.29291e-06 0)
(-6.73734e-05 3.19955e-06 0)
(-6.72516e-05 4.26997e-06 0)
(-6.71133e-05 5.25189e-06 0)
(-6.69475e-05 6.14435e-06 0)
(-6.90139e-05 2.98531e-06 0)
(-6.8779e-05 4.02752e-06 0)
(-6.85302e-05 4.98682e-06 0)
(-6.82503e-05 5.86232e-06 0)
(-7.06057e-05 2.64752e-06 0)
(-7.02667e-05 3.65873e-06 0)
(-6.99161e-05 4.59485e-06 0)
(-6.95311e-05 5.45506e-06 0)
(-7.21441e-05 2.19773e-06 0)
(-7.17127e-05 3.17533e-06 0)
(-7.12717e-05 4.08773e-06 0)
(-7.07935e-05 4.93413e-06 0)
(-7.36245e-05 1.65059e-06 0)
(-7.31149e-05 2.59224e-06 0)
(-7.25976e-05 3.48036e-06 0)
(-7.20405e-05 4.31423e-06 0)
(-7.50428e-05 1.02353e-06 0)
(-7.44717e-05 1.92714e-06 0)
(-7.38942e-05 2.79045e-06 0)
(-7.32748e-05 3.6128e-06 0)
(-7.63957e-05 3.36286e-07 0)
(-7.57814e-05 1.20012e-06 0)
(-7.51619e-05 2.0381e-06 0)
(-7.44985e-05 2.84961e-06 0)
(-7.76806e-05 -3.8957e-07 0)
(-7.7043e-05 4.33123e-07 0)
(-7.64006e-05 1.24526e-06 0)
(-7.57132e-05 2.04629e-06 0)
(-7.88957e-05 -1.13118e-06 0)
(-7.82554e-05 -3.50595e-07 0)
(-7.76104e-05 4.35219e-07 0)
(-7.69196e-05 1.22576e-06 0)
(-8.00398e-05 -1.86498e-06 0)
(-7.94179e-05 -1.12708e-06 0)
(-7.87908e-05 -3.68054e-07 0)
(-7.81178e-05 4.1162e-07 0)
(-8.11128e-05 -2.56735e-06 0)
(-8.05301e-05 -1.87227e-06 0)
(-7.99414e-05 -1.14049e-06 0)
(-7.93071e-05 -3.72414e-07 0)
(-8.21152e-05 -3.21514e-06 0)
(-8.1592e-05 -2.56268e-06 0)
(-8.10614e-05 -1.85855e-06 0)
(-8.04862e-05 -1.10315e-06 0)
(-8.30481e-05 -3.78634e-06 0)
(-8.26035e-05 -3.17588e-06 0)
(-8.21499e-05 -2.4998e-06 0)
(-8.16528e-05 -1.75846e-06 0)
(-8.39136e-05 -4.2605e-06 0)
(-8.35652e-05 -3.69114e-06 0)
(-8.32057e-05 -3.04347e-06 0)
(-8.28044e-05 -2.31786e-06 0)
(-8.47141e-05 -4.61928e-06 0)
(-8.44776e-05 -4.0898e-06 0)
(-8.42277e-05 -3.47089e-06 0)
(-8.39378e-05 -2.76288e-06 0)
(-8.54525e-05 -4.8467e-06 0)
(-8.53414e-05 -4.35568e-06 0)
(-8.52142e-05 -3.76584e-06 0)
(-8.50494e-05 -3.0775e-06 0)
(-8.61321e-05 -4.9295e-06 0)
(-8.61574e-05 -4.47533e-06 0)
(-8.61639e-05 -3.91485e-06 0)
(-8.61351e-05 -3.24837e-06 0)
(-8.67565e-05 -4.85725e-06 0)
(-8.69267e-05 -4.4382e-06 0)
(-8.70752e-05 -3.90733e-06 0)
(-8.71909e-05 -3.26497e-06 0)
(-8.73294e-05 -4.62247e-06 0)
(-8.76502e-05 -4.2367e-06 0)
(-8.79465e-05 -3.7357e-06 0)
(-8.82123e-05 -3.11977e-06 0)
(-8.78546e-05 -4.22064e-06 0)
(-8.83289e-05 -3.86629e-06 0)
(-8.8776e-05 -3.39536e-06 0)
(-8.91951e-05 -2.80816e-06 0)
(-8.83358e-05 -3.65021e-06 0)
(-8.8964e-05 -3.32541e-06 0)
(-8.95622e-05 -2.88475e-06 0)
(-9.01348e-05 -2.32854e-06 0)
(-8.87768e-05 -2.91258e-06 0)
(-8.95565e-05 -2.6155e-06 0)
(-9.03034e-05 -2.20528e-06 0)
(-9.10272e-05 -1.68226e-06 0)
(-8.91812e-05 -2.01206e-06 0)
(-9.01074e-05 -1.74093e-06 0)
(-9.09982e-05 -1.36132e-06 0)
(-9.18681e-05 -8.73546e-07 0)
(-8.95524e-05 -9.5576e-07 0)
(-9.06175e-05 -7.08936e-07 0)
(-9.16449e-05 -3.60065e-07 0)
(-9.26535e-05 9.05356e-08 0)
(-8.98934e-05 2.46518e-07 0)
(-9.10878e-05 4.70511e-07 0)
(-9.22423e-05 7.8852e-07 0)
(-9.33798e-05 1.20024e-06 0)
(-9.0207e-05 1.58248e-06 0)
(-9.15189e-05 1.7849e-06 0)
(-9.27891e-05 2.07195e-06 0)
(-9.40437e-05 2.44332e-06 0)
(-9.04955e-05 3.03762e-06 0)
(-9.19114e-05 3.21947e-06 0)
(-9.32843e-05 3.47546e-06 0)
(-9.46426e-05 3.80533e-06 0)
(-9.07604e-05 4.59555e-06 0)
(-9.22656e-05 4.75748e-06 0)
(-9.3727e-05 4.98234e-06 0)
(-9.51743e-05 5.2699e-06 0)
(-9.10027e-05 6.23839e-06 0)
(-9.25817e-05 6.38069e-06 0)
(-9.41165e-05 6.57433e-06 0)
(-9.56374e-05 6.8192e-06 0)
(-9.12226e-05 7.9473e-06 0)
(-9.28596e-05 8.06975e-06 0)
(-9.44526e-05 8.23206e-06 0)
(-9.60313e-05 8.43431e-06 0)
(-9.14192e-05 9.70293e-06 0)
(-9.30985e-05 9.80483e-06 0)
(-9.47352e-05 9.93565e-06 0)
(-9.63564e-05 1.00959e-05 0)
(-9.15908e-05 1.14865e-05 0)
(-9.3298e-05 1.15664e-05 0)
(-9.49648e-05 1.16655e-05 0)
(-9.66146e-05 1.17848e-05 0)
(-9.17336e-05 1.32798e-05 0)
(-9.34559e-05 1.33361e-05 0)
(-9.51412e-05 1.34035e-05 0)
(-9.68079e-05 1.34837e-05 0)
(-9.18453e-05 1.50674e-05 0)
(-9.35727e-05 1.5098e-05 0)
(-9.52675e-05 1.51342e-05 0)
(-9.69425e-05 1.51776e-05 0)
(-9.19162e-05 1.68296e-05 0)
(-9.36425e-05 1.68376e-05 0)
(-9.53406e-05 1.68478e-05 0)
(-9.7018e-05 1.68635e-05 0)
)
;

boundaryField
{
    plateFix
    {
        type            calculated;
        value           uniform (0 0 0);
    }
    plate
    {
        type            calculated;
        value           nonuniform List<vector> 
168
(
(-1.96017e-06 -1.07066e-06 9.42348e-23)
(-1.45284e-06 7.93916e-07 2.09202e-23)
(-1.93989e-06 -1.72455e-06 1.11172e-22)
(-1.37155e-06 1.27071e-06 5.74248e-23)
(-2.05667e-06 -2.2468e-06 -1.16549e-22)
(-1.38721e-06 1.61791e-06 -1.52947e-22)
(-2.32092e-06 -2.63693e-06 2.04875e-23)
(-1.52108e-06 1.82949e-06 7.17167e-23)
(-2.72069e-06 -2.9458e-06 7.68466e-23)
(-1.76849e-06 1.94168e-06 7.88655e-23)
(-3.22717e-06 -3.19803e-06 -4.39412e-23)
(-2.10917e-06 1.97037e-06 -7.32005e-23)
(-3.82416e-06 -3.41926e-06 -5.15889e-23)
(-2.53248e-06 1.93236e-06 6.07646e-23)
(-4.49875e-06 -3.62675e-06 4.45639e-23)
(-3.0302e-06 1.83773e-06 2.20159e-23)
(-5.24357e-06 -3.83491e-06 1.92663e-23)
(-3.59863e-06 1.69421e-06 -3.6053e-23)
(-6.05374e-06 -4.05461e-06 -4.47619e-23)
(-4.23635e-06 1.50661e-06 -1.08987e-23)
(-6.92655e-06 -4.29453e-06 -2.55874e-23)
(-4.94412e-06 1.278e-06 -4.17586e-23)
(-7.86048e-06 -4.56131e-06 4.62176e-23)
(-5.72425e-06 1.01002e-06 4.59329e-23)
(-8.85492e-06 -4.85986e-06 -4.06881e-23)
(-6.58043e-06 7.03485e-07 -1.92114e-23)
(-9.90981e-06 -5.1934e-06 -4.67934e-24)
(-7.51757e-06 3.58818e-07 -1.43033e-25)
(-1.10256e-05 -5.56341e-06 -2.19741e-23)
(-8.5417e-06 -2.33794e-08 3.45155e-23)
(-1.22031e-05 -5.9695e-06 2.42758e-23)
(-9.65985e-06 -4.4178e-07 -1.24387e-23)
(-1.34434e-05 -6.40916e-06 -2.08555e-23)
(-1.08799e-05 -8.93714e-07 -1.262e-23)
(-1.47481e-05 -6.87745e-06 1.23932e-23)
(-1.22104e-05 -1.37456e-06 1.20303e-23)
(-1.61192e-05 -7.36661e-06 1.34484e-23)
(-1.36605e-05 -1.8771e-06 -1.10372e-23)
(-1.7559e-05 -7.86558e-06 -1.09957e-23)
(-1.52394e-05 -2.39094e-06 2.90207e-23)
(-1.90708e-05 -8.35956e-06 -1.51821e-23)
(-1.69565e-05 -2.90195e-06 -6.05541e-24)
(-2.06585e-05 -8.82946e-06 2.97669e-23)
(-1.88205e-05 -3.39168e-06 2.06392e-23)
(-2.23905e-05 -9.26771e-06 -1.3361e-23)
(-2.09173e-05 -3.85414e-06 1.28456e-23)
(-2.42083e-05 -9.61729e-06 -4.15188e-26)
(-2.31784e-05 -4.23232e-06 2.41532e-23)
(-2.59963e-05 -9.83595e-06 -6.79278e-25)
(-2.5448e-05 -4.48238e-06 -3.13145e-23)
(-2.7761e-05 -9.91621e-06 -1.14764e-23)
(-2.77175e-05 -4.59682e-06 2.4347e-24)
(-2.9509e-05 -9.85454e-06 -1.02263e-23)
(-2.99786e-05 -4.57209e-06 -1.3639e-23)
(-3.12465e-05 -9.65121e-06 -7.23463e-25)
(-3.22233e-05 -4.40844e-06 -2.70825e-23)
(-3.29791e-05 -9.31013e-06 3.85472e-23)
(-3.44439e-05 -4.10974e-06 -3.90397e-23)
(-3.47122e-05 -8.83859e-06 8.08312e-24)
(-3.6633e-05 -3.68324e-06 3.82427e-23)
(-3.64505e-05 -8.24709e-06 1.72833e-23)
(-3.8784e-05 -3.13942e-06 -1.02842e-23)
(-3.81983e-05 -7.54903e-06 -3.76719e-23)
(-4.08906e-05 -2.49162e-06 1.31068e-23)
(-3.99589e-05 -6.76038e-06 1.20984e-24)
(-4.29473e-05 -1.75579e-06 2.08152e-24)
(-4.1735e-05 -5.89933e-06 1.64056e-23)
(-4.49494e-05 -9.50067e-07 -5.8182e-23)
(-4.35283e-05 -4.98583e-06 -1.61552e-23)
(-4.68931e-05 -9.43682e-08 4.48014e-24)
(-4.53395e-05 -4.04106e-06 8.91184e-24)
(-4.87754e-05 7.90148e-07 2.97719e-24)
(-4.71684e-05 -3.08695e-06 -1.34314e-24)
(-5.05945e-05 1.6816e-06 -1.07001e-24)
(-4.90137e-05 -2.14555e-06 -6.52308e-24)
(-5.23496e-05 2.55796e-06 -1.7787e-23)
(-5.0873e-05 -1.23849e-06 1.98711e-23)
(-5.40407e-05 3.39762e-06 8.15822e-24)
(-5.2743e-05 -3.86448e-07 8.08459e-24)
(-5.56693e-05 4.17993e-06 3.22405e-24)
(-5.46196e-05 3.91412e-07 2.3643e-24)
(-5.72372e-05 4.88575e-06 -5.23277e-24)
(-5.64977e-05 1.07787e-06 -9.63561e-24)
(-5.87475e-05 5.49785e-06 1.84807e-23)
(-5.83716e-05 1.65806e-06 1.52099e-23)
(-6.02039e-05 6.0014e-06 7.31588e-24)
(-6.0235e-05 2.11988e-06 5.23306e-24)
(-6.16108e-05 6.38428e-06 -2.09071e-24)
(-6.2081e-05 2.4542e-06 1.88654e-23)
(-6.29729e-05 6.63738e-06 -1.41514e-23)
(-6.39027e-05 2.65519e-06 -5.52648e-24)
(-6.42957e-05 6.75487e-06 6.32058e-25)
(-6.56926e-05 2.72043e-06 -5.69123e-24)
(-6.55845e-05 6.73434e-06 -1.91455e-23)
(-6.74433e-05 2.65105e-06 -8.31636e-24)
(-6.68453e-05 6.57692e-06 -1.80767e-24)
(-6.91476e-05 2.4517e-06 -1.90571e-23)
(-6.80835e-05 6.28727e-06 -1.97698e-24)
(-7.07984e-05 2.13051e-06 -6.99424e-24)
(-6.93047e-05 5.87354e-06 8.51256e-26)
(-7.23892e-05 1.69894e-06 -7.38812e-24)
(-7.0514e-05 5.34721e-06 2.92805e-24)
(-7.39139e-05 1.17148e-06 -2.31818e-23)
(-7.17159e-05 4.72281e-06 2.33036e-24)
(-7.53674e-05 5.6537e-07 1.06072e-23)
(-7.29145e-05 4.0176e-06 8.79972e-24)
(-7.67452e-05 -9.98755e-08 3.0972e-24)
(-7.41128e-05 3.25116e-06 9.32101e-25)
(-7.80439e-05 -8.02916e-07 8.66476e-24)
(-7.53132e-05 2.44489e-06 6.79997e-24)
(-7.92612e-05 -1.52115e-06 -1.18015e-24)
(-7.6517e-05 1.62146e-06 -7.70347e-24)
(-8.03958e-05 -2.23128e-06 -1.06572e-24)
(-7.77243e-05 8.04245e-07 5.81296e-24)
(-8.14475e-05 -2.90993e-06 2.05347e-23)
(-7.89344e-05 1.67175e-08 1.25656e-24)
(-8.24174e-05 -3.53423e-06 -1.90886e-24)
(-8.01456e-05 -7.18154e-07 -2.60354e-23)
(-8.33072e-05 -4.08237e-06 -1.72824e-23)
(-8.1355e-05 -1.37846e-06 1.03134e-23)
(-8.41198e-05 -4.53414e-06 2.63131e-23)
(-8.25591e-05 -1.94388e-06 -4.14429e-24)
(-8.48589e-05 -4.87134e-06 -3.35807e-24)
(-8.37536e-05 -2.3961e-06 -1.17737e-23)
(-8.55287e-05 -5.07816e-06 1.15641e-23)
(-8.49335e-05 -2.71922e-06 9.45886e-24)
(-8.61337e-05 -5.14145e-06 -1.74073e-23)
(-8.60936e-05 -2.89996e-06 1.31426e-23)
(-8.6679e-05 -5.05085e-06 6.42652e-24)
(-8.72281e-05 -2.92786e-06 5.71223e-24)
(-8.71699e-05 -4.79892e-06 -2.23113e-23)
(-8.83314e-05 -2.7954e-06 3.12659e-23)
(-8.76115e-05 -4.38117e-06 -5.4108e-23)
(-8.93974e-05 -2.49799e-06 4.29405e-24)
(-8.80091e-05 -3.79605e-06 3.25354e-23)
(-9.04205e-05 -2.034e-06 -1.80489e-23)
(-8.8368e-05 -3.04494e-06 -3.9455e-24)
(-9.13948e-05 -1.40471e-06 1.40225e-23)
(-8.86931e-05 -2.13209e-06 -3.50181e-23)
(-9.23146e-05 -6.1431e-07 -4.34064e-23)
(-8.89892e-05 -1.06455e-06 1.93014e-23)
(-9.31748e-05 3.30247e-07 -9.77222e-24)
(-8.92607e-05 1.4799e-07 2.97549e-23)
(-9.39704e-05 1.41933e-06 2.37796e-23)
(-8.95116e-05 1.49337e-06 -1.09799e-23)
(-9.46969e-05 2.64087e-06 -7.97822e-24)
(-8.97449e-05 2.95725e-06 -4.70454e-23)
(-9.53507e-05 3.98057e-06 5.91832e-23)
(-8.99633e-05 4.52345e-06 3.69969e-23)
(-9.59287e-05 5.42232e-06 -2.57295e-23)
(-9.01682e-05 6.17433e-06 -6.76645e-25)
(-9.6429e-05 6.94852e-06 6.54546e-24)
(-9.03601e-05 7.89135e-06 -2.37788e-23)
(-9.68507e-05 8.54057e-06 -5.66989e-24)
(-9.05382e-05 9.65547e-06 -1.74531e-23)
(-9.7194e-05 1.01795e-05 -2.32093e-23)
(-9.07004e-05 1.14483e-05 -5.34651e-23)
(-9.74613e-05 1.18464e-05 -4.08462e-23)
(-9.08424e-05 1.3252e-05 2.95342e-23)
(-9.76557e-05 1.35247e-05 8.50441e-23)
(-9.09621e-05 1.50518e-05 2.49162e-23)
(-9.77867e-05 1.51988e-05 -6.83474e-23)
(-9.10486e-05 1.68261e-05 5.14109e-23)
(-9.1936e-05 1.76934e-05 -1.79876e-24)
(-9.36629e-05 1.76929e-05 1.68824e-25)
(-9.53622e-05 1.76914e-05 9.55258e-25)
(-9.70395e-05 1.77042e-05 1.86188e-24)
(-9.7859e-05 1.68693e-05 -3.18922e-23)
)
;
    }
    frontAndBackPlanes
    {
        type            empty;
    }
}


// ************************************************************************* //
