/*--------------------------------*- C++ -*----------------------------------*\
| =========                 |                                                 |
| \\      /  F ield         | OpenFOAM Extend Project: Open source CFD        |
|  \\    /   O peration     | Version:  1.6-ext                               |
|   \\  /    A nd           | Web:      www.extend-project.de                 |
|    \\/     M anipulation  |                                                 |
\*---------------------------------------------------------------------------*/
FoamFile
{
    version     2.0;
    format      ascii;
    class       volVectorField;
    location    "1.2";
    object      DV_0;
}
// * * * * * * * * * * * * * * * * * * * * * * * * * * * * * * * * * * * * * //

dimensions      [0 1 -1 0 0 0 0];

internalField   nonuniform List<vector> 
328
(
(-2.07316e-07 -4.02246e-07 0)
(-1.25383e-07 -8.505e-08 0)
(-1.15922e-07 6.42626e-08 0)
(-1.55987e-07 3.12648e-07 0)
(-6.31331e-07 -1.04266e-06 0)
(-4.15729e-07 -2.64761e-07 0)
(-3.82617e-07 1.71377e-07 0)
(-4.75381e-07 7.91593e-07 0)
(-1.12087e-06 -1.53917e-06 0)
(-8.05993e-07 -4.5457e-07 0)
(-7.39183e-07 2.52832e-07 0)
(-8.47857e-07 1.12786e-06 0)
(-1.65251e-06 -1.92043e-06 0)
(-1.26265e-06 -6.44181e-07 0)
(-1.15789e-06 2.97268e-07 0)
(-1.25628e-06 1.33867e-06 0)
(-2.23222e-06 -2.22153e-06 0)
(-1.79171e-06 -8.30386e-07 0)
(-1.64498e-06 3.00031e-07 0)
(-1.70706e-06 1.44824e-06 0)
(-2.8566e-06 -2.46982e-06 0)
(-2.38222e-06 -1.01354e-06 0)
(-2.19158e-06 2.58441e-07 0)
(-2.19921e-06 1.47488e-06 0)
(-3.52804e-06 -2.68804e-06 0)
(-3.03263e-06 -1.19755e-06 0)
(-2.79687e-06 1.72702e-07 0)
(-2.73655e-06 1.43336e-06 0)
(-4.2479e-06 -2.89367e-06 0)
(-3.73883e-06 -1.38796e-06 0)
(-3.45772e-06 4.39151e-08 0)
(-3.32223e-06 1.33421e-06 0)
(-5.01871e-06 -3.1007e-06 0)
(-4.49968e-06 -1.59122e-06 0)
(-4.1737e-06 -1.26148e-07 0)
(-3.96056e-06 1.18519e-06 0)
(-5.84283e-06 -3.32e-06 0)
(-5.31452e-06 -1.81374e-06 0)
(-4.94491e-06 -3.35843e-07 0)
(-4.65598e-06 9.91602e-07 0)
(-6.72277e-06 -3.56007e-06 0)
(-6.18422e-06 -2.06137e-06 0)
(-5.77302e-06 -5.83802e-07 0)
(-5.41334e-06 7.57053e-07 0)
(-7.66092e-06 -3.82723e-06 0)
(-7.1106e-06 -2.33889e-06 0)
(-6.66072e-06 -8.69073e-07 0)
(-6.23774e-06 4.83818e-07 0)
(-8.65962e-06 -4.12594e-06 0)
(-8.09651e-06 -2.64982e-06 0)
(-7.61185e-06 -1.19097e-06 0)
(-7.1346e-06 1.73354e-07 0)
(-9.7212e-06 -4.45879e-06 0)
(-9.14553e-06 -2.99623e-06 0)
(-8.63113e-06 -1.54883e-06 0)
(-8.10968e-06 -1.73259e-07 0)
(-1.0848e-05 -4.82662e-06 0)
(-1.02619e-05 -3.37861e-06 0)
(-9.72403e-06 -1.94162e-06 0)
(-9.16916e-06 -5.54824e-07 0)
(-1.20426e-05 -5.22843e-06 0)
(-1.14503e-05 -3.79573e-06 0)
(-1.08966e-05 -2.36755e-06 0)
(-1.03197e-05 -9.69522e-07 0)
(-1.33077e-05 -5.66128e-06 0)
(-1.27158e-05 -4.24448e-06 0)
(-1.21553e-05 -2.82351e-06 0)
(-1.15683e-05 -1.41438e-06 0)
(-1.46462e-05 -6.12008e-06 0)
(-1.40636e-05 -4.71962e-06 0)
(-1.35069e-05 -3.30463e-06 0)
(-1.29224e-05 -1.88472e-06 0)
(-1.60614e-05 -6.59724e-06 0)
(-1.54992e-05 -5.21344e-06 0)
(-1.49584e-05 -3.80366e-06 0)
(-1.43901e-05 -2.37358e-06 0)
(-1.75571e-05 -7.08228e-06 0)
(-1.70282e-05 -5.71532e-06 0)
(-1.65169e-05 -4.31048e-06 0)
(-1.59793e-05 -2.87117e-06 0)
(-1.91373e-05 -7.56131e-06 0)
(-1.86566e-05 -6.21121e-06 0)
(-1.81897e-05 -4.81144e-06 0)
(-1.76984e-05 -3.36423e-06 0)
(-2.08069e-05 -8.01649e-06 0)
(-2.03905e-05 -6.68307e-06 0)
(-1.9984e-05 -5.28888e-06 0)
(-1.95555e-05 -3.83553e-06 0)
(-2.26385e-05 -8.44109e-06 0)
(-2.23066e-05 -7.12454e-06 0)
(-2.19805e-05 -5.73693e-06 0)
(-2.16352e-05 -4.2796e-06 0)
(-2.45698e-05 -8.78073e-06 0)
(-2.43408e-05 -7.48029e-06 0)
(-2.41134e-05 -6.10033e-06 0)
(-2.38697e-05 -4.6421e-06 0)
(-2.64761e-05 -8.99473e-06 0)
(-2.6359e-05 -7.7084e-06 0)
(-2.62395e-05 -6.33677e-06 0)
(-2.61064e-05 -4.88108e-06 0)
(-2.83616e-05 -9.07585e-06 0)
(-2.8362e-05 -7.80168e-06 0)
(-2.83559e-05 -6.43908e-06 0)
(-2.83392e-05 -4.98929e-06 0)
(-3.02304e-05 -9.02048e-06 0)
(-3.03505e-05 -7.75659e-06 0)
(-3.04603e-05 -6.40373e-06 0)
(-3.0562e-05 -4.96315e-06 0)
(-3.20864e-05 -8.82866e-06 0)
(-3.23252e-05 -7.57326e-06 0)
(-3.25498e-05 -6.23082e-06 0)
(-3.27688e-05 -4.80265e-06 0)
(-3.39335e-05 -8.50393e-06 0)
(-3.42867e-05 -7.25534e-06 0)
(-3.4622e-05 -5.92403e-06 0)
(-3.49541e-05 -4.51131e-06 0)
(-3.57752e-05 -8.05321e-06 0)
(-3.62354e-05 -6.80992e-06 0)
(-3.66743e-05 -5.49041e-06 0)
(-3.71121e-05 -4.09602e-06 0)
(-3.76145e-05 -7.48661e-06 0)
(-3.81717e-05 -6.2473e-06 0)
(-3.87045e-05 -4.94025e-06 0)
(-3.92379e-05 -3.56685e-06 0)
(-3.94541e-05 -6.81715e-06 0)
(-4.00957e-05 -5.58071e-06 0)
(-4.07102e-05 -4.28678e-06 0)
(-4.13268e-05 -2.93676e-06 0)
(-4.1296e-05 -6.06037e-06 0)
(-4.20075e-05 -4.82599e-06 0)
(-4.26894e-05 -3.54581e-06 0)
(-4.33744e-05 -2.22126e-06 0)
(-4.3142e-05 -5.234e-06 0)
(-4.39068e-05 -4.00115e-06 0)
(-4.46402e-05 -2.73535e-06 0)
(-4.53774e-05 -1.43803e-06 0)
(-4.49927e-05 -4.35741e-06 0)
(-4.57933e-05 -3.12589e-06 0)
(-4.6561e-05 -1.87508e-06 0)
(-4.73326e-05 -6.06383e-07 0)
(-4.68485e-05 -3.45115e-06 0)
(-4.76664e-05 -2.22111e-06 0)
(-4.84503e-05 -9.8586e-07 0)
(-4.92378e-05 2.53177e-07 0)
(-4.87088e-05 -2.53637e-06 0)
(-4.95251e-05 -1.30829e-06 0)
(-5.0307e-05 -8.9184e-08 0)
(-5.10916e-05 1.11954e-06 0)
(-5.05723e-05 -1.63432e-06 0)
(-5.13684e-05 -4.09029e-07 0)
(-5.21299e-05 7.93367e-07 0)
(-5.2893e-05 1.97149e-06 0)
(-5.24373e-05 -7.65806e-07 0)
(-5.3195e-05 4.55515e-07 0)
(-5.39186e-05 1.64066e-06 0)
(-5.46419e-05 2.78825e-06 0)
(-5.43012e-05 4.92902e-08 0)
(-5.50034e-05 1.26515e-06 0)
(-5.56724e-05 2.43249e-06 0)
(-5.6339e-05 3.54997e-06 0)
(-5.61607e-05 7.92517e-07 0)
(-5.67919e-05 2.00112e-06 0)
(-5.7391e-05 3.15012e-06 0)
(-5.79853e-05 4.23822e-06 0)
(-5.80123e-05 1.44729e-06 0)
(-5.85586e-05 2.64655e-06 0)
(-5.90746e-05 3.77669e-06 0)
(-5.95828e-05 4.83641e-06 0)
(-5.98516e-05 1.99929e-06 0)
(-6.03016e-05 3.1869e-06 0)
(-6.07231e-05 4.29764e-06 0)
(-6.11338e-05 5.33025e-06 0)
(-6.16741e-05 2.43685e-06 0)
(-6.20186e-05 3.6103e-06 0)
(-6.23369e-05 4.70111e-06 0)
(-6.2641e-05 5.70806e-06 0)
(-6.34747e-05 2.75128e-06 0)
(-6.37075e-05 3.90789e-06 0)
(-6.39164e-05 4.97823e-06 0)
(-6.41077e-05 5.96113e-06 0)
(-6.52483e-05 2.93705e-06 0)
(-6.5366e-05 4.07405e-06 0)
(-6.54622e-05 5.12338e-06 0)
(-6.55373e-05 6.08393e-06 0)
(-6.69896e-05 2.99199e-06 0)
(-6.69918e-05 4.10654e-06 0)
(-6.69749e-05 5.13434e-06 0)
(-6.69334e-05 6.07428e-06 0)
(-6.86932e-05 2.91733e-06 0)
(-6.85825e-05 4.00662e-06 0)
(-6.84551e-05 5.01232e-06 0)
(-6.82997e-05 5.93338e-06 0)
(-7.0354e-05 2.71767e-06 0)
(-7.0136e-05 3.77895e-06 0)
(-6.99036e-05 4.76201e-06 0)
(-6.96398e-05 5.66583e-06 0)
(-7.1967e-05 2.4009e-06 0)
(-7.165e-05 3.43152e-06 0)
(-7.13208e-05 4.39138e-06 0)
(-7.09571e-05 5.27949e-06 0)
(-7.35274e-05 1.97794e-06 0)
(-7.31225e-05 2.97543e-06 0)
(-7.27075e-05 3.91153e-06 0)
(-7.2255e-05 4.78529e-06 0)
(-7.5031e-05 1.46257e-06 0)
(-7.45518e-05 2.42466e-06 0)
(-7.40639e-05 3.33643e-06 0)
(-7.35362e-05 4.197e-06 0)
(-7.6474e-05 8.71045e-07 0)
(-7.59359e-05 1.7957e-06 0)
(-7.53906e-05 2.68259e-06 0)
(-7.48031e-05 3.53086e-06 0)
(-7.78531e-05 2.21771e-07 0)
(-7.72735e-05 1.10727e-06 0)
(-7.66875e-05 1.96873e-06 0)
(-7.60577e-05 2.80531e-06 0)
(-7.91657e-05 -4.65097e-07 0)
(-7.85632e-05 3.79837e-07 0)
(-7.79549e-05 1.2153e-06 0)
(-7.73014e-05 2.04052e-06 0)
(-8.04097e-05 -1.1681e-06 0)
(-7.9804e-05 -3.64802e-07 0)
(-7.91925e-05 4.44134e-07 0)
(-7.85349e-05 1.25797e-06 0)
(-8.15839e-05 -1.86496e-06 0)
(-8.0995e-05 -1.10399e-06 0)
(-8.03999e-05 -3.22107e-07 0)
(-7.97584e-05 4.7999e-07 0)
(-8.26878e-05 -2.53307e-06 0)
(-8.21356e-05 -1.81475e-06 0)
(-8.15766e-05 -1.06043e-06 0)
(-8.09713e-05 -2.70772e-07 0)
(-8.37214e-05 -3.15008e-06 0)
(-8.32257e-05 -2.47434e-06 0)
(-8.27218e-05 -1.74807e-06 0)
(-8.21723e-05 -9.71894e-07 0)
(-8.46858e-05 -3.69443e-06 0)
(-8.42652e-05 -3.06082e-06 0)
(-8.38346e-05 -2.36306e-06 0)
(-8.33595e-05 -1.60174e-06 0)
(-8.55826e-05 -4.1459e-06 0)
(-8.52542e-05 -3.55363e-06 0)
(-8.49137e-05 -2.88481e-06 0)
(-8.45303e-05 -2.14003e-06 0)
(-8.6414e-05 -4.48622e-06 0)
(-8.61932e-05 -3.93415e-06 0)
(-8.59579e-05 -3.29468e-06 0)
(-8.56815e-05 -2.56838e-06 0)
(-8.7183e-05 -4.69945e-06 0)
(-8.70829e-05 -4.18619e-06 0)
(-8.69656e-05 -3.57645e-06 0)
(-8.68094e-05 -2.87076e-06 0)
(-8.78927e-05 -4.77246e-06 0)
(-8.7924e-05 -4.2964e-06 0)
(-8.79352e-05 -3.71672e-06 0)
(-8.79098e-05 -3.03395e-06 0)
(-8.85469e-05 -4.69517e-06 0)
(-8.87175e-05 -4.25453e-06 0)
(-8.8865e-05 -3.70523e-06 0)
(-8.89785e-05 -3.04776e-06 0)
(-8.91492e-05 -4.46068e-06 0)
(-8.94643e-05 -4.05363e-06 0)
(-8.97533e-05 -3.53498e-06 0)
(-9.00109e-05 -2.90521e-06 0)
(-8.97035e-05 -4.06534e-06 0)
(-9.01655e-05 -3.69001e-06 0)
(-9.05984e-05 -3.20226e-06 0)
(-9.10024e-05 -2.60254e-06 0)
(-9.02135e-05 -3.50864e-06 0)
(-9.0822e-05 -3.1632e-06 0)
(-9.13986e-05 -2.70656e-06 0)
(-9.19488e-05 -2.13917e-06 0)
(-9.06828e-05 -2.79303e-06 0)
(-9.14349e-05 -2.47573e-06 0)
(-9.21524e-05 -2.05039e-06 0)
(-9.28457e-05 -1.51746e-06 0)
(-9.11146e-05 -1.9237e-06 0)
(-9.20049e-05 -1.63293e-06 0)
(-9.28581e-05 -1.23906e-06 0)
(-9.36892e-05 -7.42545e-07 0)
(-9.15121e-05 -9.08397e-07 0)
(-9.25329e-05 -6.42715e-07 0)
(-9.35145e-05 -2.8047e-07 0)
(-9.44758e-05 1.77887e-07 0)
(-9.18776e-05 2.42856e-07 0)
(-9.30195e-05 4.84691e-07 0)
(-9.41203e-05 8.15178e-07 0)
(-9.52023e-05 1.23386e-06 0)
(-9.22136e-05 1.518e-06 0)
(-9.34653e-05 1.73699e-06 0)
(-9.46744e-05 2.03559e-06 0)
(-9.58658e-05 2.41336e-06 0)
(-9.25216e-05 2.90324e-06 0)
(-9.38705e-05 3.10011e-06 0)
(-9.51759e-05 3.36672e-06 0)
(-9.64642e-05 3.70263e-06 0)
(-9.28027e-05 4.38345e-06 0)
(-9.42355e-05 4.55863e-06 0)
(-9.5624e-05 4.79313e-06 0)
(-9.69958e-05 5.08656e-06 0)
(-9.30576e-05 5.94252e-06 0)
(-9.45601e-05 6.09611e-06 0)
(-9.60183e-05 6.2984e-06 0)
(-9.74595e-05 6.54907e-06 0)
(-9.32862e-05 7.56387e-06 0)
(-9.48442e-05 7.6956e-06 0)
(-9.63584e-05 7.86554e-06 0)
(-9.7855e-05 8.07356e-06 0)
(-9.34876e-05 9.23069e-06 0)
(-9.50873e-05 9.33993e-06 0)
(-9.66443e-05 9.47737e-06 0)
(-9.81827e-05 9.64326e-06 0)
(-9.36606e-05 1.09266e-05 0)
(-9.52889e-05 1.10122e-05 0)
(-9.68764e-05 1.11169e-05 0)
(-9.84438e-05 1.12415e-05 0)
(-9.38023e-05 1.26353e-05 0)
(-9.54473e-05 1.2696e-05 0)
(-9.70544e-05 1.27681e-05 0)
(-9.864e-05 1.28531e-05 0)
(-9.39114e-05 1.43425e-05 0)
(-9.55634e-05 1.43765e-05 0)
(-9.71815e-05 1.44166e-05 0)
(-9.87768e-05 1.44637e-05 0)
(-9.39786e-05 1.60299e-05 0)
(-9.56316e-05 1.60399e-05 0)
(-9.72539e-05 1.60528e-05 0)
(-9.88527e-05 1.60712e-05 0)
)
;

boundaryField
{
    plateFix
    {
        type            calculated;
        value           uniform (0 0 0);
    }
    plate
    {
        type            calculated;
        value           nonuniform List<vector> 
168
(
(-1.98502e-06 -1.08799e-06 -8.43426e-24)
(-1.51573e-06 8.24992e-07 5.60503e-23)
(-1.96178e-06 -1.74976e-06 -1.67654e-22)
(-1.43174e-06 1.32349e-06 -9.11179e-23)
(-2.07859e-06 -2.27683e-06 6.30585e-23)
(-1.44752e-06 1.68866e-06 5.46503e-23)
(-2.34622e-06 -2.66884e-06 -8.05758e-23)
(-1.58481e-06 1.91416e-06 -1.98017e-23)
(-2.75245e-06 -2.97771e-06 5.70447e-23)
(-1.83879e-06 2.03741e-06 -6.8437e-23)
(-3.26787e-06 -3.22862e-06 7.02453e-23)
(-2.18853e-06 2.07479e-06 5.574e-23)
(-3.87584e-06 -3.44775e-06 -2.3545e-23)
(-2.62307e-06 2.04368e-06 -1.00845e-23)
(-4.56308e-06 -3.65268e-06 7.56827e-24)
(-3.13401e-06 1.95455e-06 -1.00786e-22)
(-5.32189e-06 -3.85798e-06 -6.09733e-23)
(-3.71766e-06 1.81555e-06 6.32989e-23)
(-6.14711e-06 -4.0745e-06 6.74684e-24)
(-4.37268e-06 1.6319e-06 3.1343e-23)
(-7.03582e-06 -4.31075e-06 2.67603e-23)
(-5.09992e-06 1.40715e-06 2.39844e-23)
(-7.98642e-06 -4.57303e-06 4.2874e-24)
(-5.90179e-06 1.14351e-06 -5.55301e-23)
(-8.99826e-06 -4.86577e-06 2.33345e-23)
(-6.78202e-06 8.42364e-07 2.67301e-23)
(-1.00714e-05 -5.19166e-06 -1.4327e-23)
(-7.74543e-06 5.04785e-07 8.26121e-25)
(-1.12067e-05 -5.55163e-06 2.61343e-23)
(-8.79789e-06 1.31954e-07 4.53739e-24)
(-1.24053e-05 -5.94482e-06 -3.92867e-23)
(-9.9461e-06 -2.74322e-07 4.66576e-24)
(-1.36688e-05 -6.36846e-06 4.81844e-23)
(-1.11976e-05 -7.11102e-07 -2.51414e-23)
(-1.49996e-05 -6.8176e-06 -1.22427e-23)
(-1.25604e-05 -1.17376e-06 -1.25943e-24)
(-1.64e-05 -7.28482e-06 -4.80617e-24)
(-1.40431e-05 -1.65546e-06 -8.854e-24)
(-1.78732e-05 -7.75979e-06 -2.38599e-28)
(-1.56547e-05 -2.14651e-06 -3.6985e-23)
(-1.94227e-05 -8.22879e-06 3.92292e-23)
(-1.74041e-05 -2.63388e-06 2.1681e-23)
(-2.10528e-05 -8.6741e-06 -5.70901e-23)
(-1.93002e-05 -3.10052e-06 -3.42745e-23)
(-2.28337e-05 -9.08889e-06 2.80317e-23)
(-2.14298e-05 -3.54122e-06 -1.96068e-23)
(-2.47048e-05 -9.41937e-06 3.89375e-24)
(-2.37237e-05 -3.90216e-06 -4.50904e-25)
(-2.65465e-05 -9.62556e-06 1.61497e-23)
(-2.60241e-05 -4.14169e-06 3.17548e-23)
(-2.83646e-05 -9.7002e-06 7.38371e-24)
(-2.83233e-05 -4.2525e-06 -2.43214e-24)
(-3.01652e-05 -9.63965e-06 -2.96861e-23)
(-3.06134e-05 -4.23097e-06 -2.3313e-24)
(-3.19539e-05 -9.44391e-06 -3.35289e-24)
(-3.28867e-05 -4.07703e-06 2.98523e-23)
(-3.37363e-05 -9.11643e-06 -3.11284e-23)
(-3.51357e-05 -3.79413e-06 1.99095e-23)
(-3.55174e-05 -8.66405e-06 -3.0883e-23)
(-3.73533e-05 -3.38904e-06 -5.40811e-23)
(-3.7302e-05 -8.09674e-06 -3.29007e-23)
(-3.95328e-05 -2.87169e-06 -5.18467e-24)
(-3.9094e-05 -7.42737e-06 2.30949e-23)
(-4.16682e-05 -2.25485e-06 -4.66159e-24)
(-4.08967e-05 -6.67131e-06 1.1909e-23)
(-4.37542e-05 -1.55387e-06 4.49952e-24)
(-4.27126e-05 -5.84609e-06 -1.52375e-23)
(-4.57861e-05 -7.86196e-07 4.94643e-23)
(-4.45433e-05 -4.97087e-06 3.01312e-23)
(-4.77604e-05 2.90795e-08 -1.37128e-24)
(-4.63894e-05 -4.06598e-06 -1.38143e-23)
(-4.96743e-05 8.71698e-07 -1.78732e-24)
(-4.82507e-05 -3.15233e-06 8.5807e-24)
(-5.15261e-05 1.72078e-06 -9.62917e-24)
(-5.01257e-05 -2.25096e-06 8.64425e-24)
(-5.33151e-05 2.55537e-06 -5.84751e-24)
(-5.20123e-05 -1.38245e-06 -2.51506e-23)
(-5.50415e-05 3.3549e-06 -2.05006e-25)
(-5.39074e-05 -5.6647e-07 1.45129e-24)
(-5.67064e-05 4.09975e-06 -1.89389e-24)
(-5.58069e-05 1.78729e-07 -1.2608e-23)
(-5.83119e-05 4.77169e-06 8.42911e-24)
(-5.77061e-05 8.36735e-07 1.25187e-23)
(-5.98608e-05 5.35432e-06 -6.14405e-24)
(-5.95997e-05 1.3934e-06 -2.35545e-23)
(-6.13567e-05 5.83348e-06 -4.19006e-24)
(-6.14814e-05 1.83718e-06 1.13488e-23)
(-6.28037e-05 6.19766e-06 -1.77993e-23)
(-6.33449e-05 2.15948e-06 -2.30268e-23)
(-6.42067e-05 6.43822e-06 1.5082e-23)
(-6.51834e-05 2.35485e-06 -1.71682e-24)
(-6.55706e-05 6.5497e-06 4.82e-24)
(-6.69897e-05 2.42114e-06 1.80828e-23)
(-6.69009e-05 6.52994e-06 7.40191e-24)
(-6.8757e-05 2.35958e-06 -7.99248e-25)
(-6.82027e-05 6.38014e-06 -3.4684e-24)
(-7.04784e-05 2.17474e-06 1.11902e-23)
(-6.94815e-05 6.10484e-06 5.51395e-25)
(-7.21472e-05 1.87441e-06 2.84115e-23)
(-7.07423e-05 5.71184e-06 2.57329e-24)
(-7.37574e-05 1.46944e-06 1.11229e-23)
(-7.19897e-05 5.21194e-06 -2.32553e-24)
(-7.53032e-05 9.73435e-07 -1.56e-24)
(-7.3228e-05 4.61876e-06 5.36918e-24)
(-7.67798e-05 4.02508e-07 -1.03479e-23)
(-7.44607e-05 3.94841e-06 -7.78837e-24)
(-7.8183e-05 -2.2512e-07 1.12853e-23)
(-7.56906e-05 3.21913e-06 8.40869e-24)
(-7.95092e-05 -8.89501e-07 -1.27648e-23)
(-7.69201e-05 2.4509e-06 -7.03575e-24)
(-8.07559e-05 -1.5694e-06 1.00912e-23)
(-7.81503e-05 1.66497e-06 -1.21406e-24)
(-8.19217e-05 -2.24277e-06 4.16213e-24)
(-7.93817e-05 8.83468e-07 4.30513e-24)
(-8.30058e-05 -2.88726e-06 -3.62479e-23)
(-8.06138e-05 1.28797e-07 -1.42738e-24)
(-8.40088e-05 -3.48077e-06 1.30344e-23)
(-8.18449e-05 -5.76845e-07 4.09356e-23)
(-8.49321e-05 -4.00197e-06 -2.93848e-24)
(-8.30728e-05 -1.21204e-06 -4.49377e-23)
(-8.57782e-05 -4.43089e-06 -2.86488e-23)
(-8.42938e-05 -1.75672e-06 1.05256e-23)
(-8.65504e-05 -4.74946e-06 1.01719e-23)
(-8.55038e-05 -2.19267e-06 1.49427e-23)
(-8.72528e-05 -4.94192e-06 -2.25177e-24)
(-8.66978e-05 -2.50402e-06 -2.42728e-24)
(-8.78903e-05 -4.99527e-06 2.43217e-23)
(-8.78702e-05 -2.67763e-06 -2.84992e-23)
(-8.84679e-05 -4.89952e-06 -2.84074e-23)
(-8.90151e-05 -2.70338e-06 1.32181e-23)
(-8.8991e-05 -4.64784e-06 -7.38292e-24)
(-9.01264e-05 -2.57431e-06 -3.4816e-23)
(-8.9465e-05 -4.23657e-06 3.38146e-23)
(-9.11978e-05 -2.28664e-06 -2.23328e-23)
(-8.98953e-05 -3.66518e-06 -2.82076e-23)
(-9.22237e-05 -1.83971e-06 2.54478e-23)
(-9.02867e-05 -2.93603e-06 1.66821e-23)
(-9.31981e-05 -1.23581e-06 -2.01635e-23)
(-9.06439e-05 -2.05426e-06 3.15825e-23)
(-9.41161e-05 -4.7996e-07 7.42874e-23)
(-9.09711e-05 -1.02749e-06 -2.41187e-23)
(-9.49726e-05 4.2029e-07 -1.51439e-23)
(-9.12719e-05 1.344e-07 -5.43241e-23)
(-9.57635e-05 1.45511e-06 -4.24161e-23)
(-9.15496e-05 1.4195e-06 4.04544e-23)
(-9.6485e-05 2.61267e-06 3.20195e-23)
(-9.18065e-05 2.8142e-06 4.73377e-23)
(-9.71342e-05 3.8794e-06 -5.52963e-23)
(-9.20444e-05 4.30357e-06 -2.06164e-23)
(-9.77088e-05 5.2404e-06 3.23682e-23)
(-9.22641e-05 5.87172e-06 1.2633e-23)
(-9.82074e-05 6.67984e-06 -1.06532e-23)
(-9.24659e-05 7.5023e-06 6.8577e-23)
(-9.86295e-05 8.18135e-06 1.69706e-23)
(-9.26488e-05 9.17872e-06 5.27107e-24)
(-9.89753e-05 9.72845e-06 2.88911e-23)
(-9.28115e-05 1.0885e-05 5.36006e-23)
(-9.92468e-05 1.13047e-05 1.73684e-23)
(-9.29505e-05 1.26048e-05 -6.13893e-23)
(-9.94459e-05 1.28955e-05 -2.37594e-23)
(-9.30649e-05 1.43248e-05 6.38982e-23)
(-9.95815e-05 1.44861e-05 3.16842e-23)
(-9.31432e-05 1.60247e-05 -4.45447e-23)
(-9.39972e-05 1.68614e-05 7.77987e-25)
(-9.5651e-05 1.68599e-05 -3.62711e-25)
(-9.72749e-05 1.68597e-05 1.74071e-24)
(-9.88736e-05 1.68755e-05 -2.60149e-24)
(-9.96571e-05 1.60777e-05 4.55737e-23)
)
;
    }
    frontAndBackPlanes
    {
        type            empty;
    }
}


// ************************************************************************* //
