/*--------------------------------*- C++ -*----------------------------------*\
| =========                 |                                                 |
| \\      /  F ield         | OpenFOAM Extend Project: Open source CFD        |
|  \\    /   O peration     | Version:  1.6-ext                               |
|   \\  /    A nd           | Web:      www.extend-project.de                 |
|    \\/     M anipulation  |                                                 |
\*---------------------------------------------------------------------------*/
FoamFile
{
    version     2.0;
    format      ascii;
    class       surfaceScalarField;
    location    "1.2";
    object      meshPhi;
}
// * * * * * * * * * * * * * * * * * * * * * * * * * * * * * * * * * * * * * //

dimensions      [0 3 -1 0 0 0 0];

internalField   nonuniform List<scalar> 
570
(
-5.49175e-12
-1.78643e-10
3.30023e-12
-6.51025e-11
1.37819e-11
-7.54937e-11
-3.27766e-10
-1.53858e-11
-2.12873e-10
1.14041e-11
-1.4529e-10
4.28353e-11
-1.66761e-10
-3.85238e-10
-2.1607e-11
-2.69085e-10
2.23775e-11
-2.43359e-10
7.28786e-11
-2.76349e-10
-4.68926e-10
-2.32128e-11
-3.47776e-10
3.67361e-11
-3.56787e-10
1.04114e-10
-4.01011e-10
-5.76699e-10
-1.96213e-11
-4.48041e-10
5.50343e-11
-4.85639e-10
1.37231e-10
-5.40344e-10
-7.05368e-10
-1.03271e-11
-5.68232e-10
7.79092e-11
-6.29145e-10
1.73127e-10
-6.93026e-10
-8.51015e-10
5.18172e-12
-7.07842e-10
1.06074e-10
-7.87291e-10
2.12796e-10
-8.58522e-10
-1.01111e-09
2.74143e-11
-8.66869e-10
1.40293e-10
-9.60118e-10
2.57296e-10
-1.0363e-09
-1.18365e-09
5.68593e-11
-1.04596e-09
1.81348e-10
-1.14805e-09
3.07696e-10
-1.22614e-09
-1.36723e-09
9.39356e-11
-1.24622e-09
2.2997e-10
-1.35175e-09
3.65007e-10
-1.42801e-09
-1.5607e-09
1.38916e-10
-1.46917e-09
2.86751e-10
-1.57219e-09
4.30077e-10
-1.64205e-09
-1.76312e-09
1.91801e-10
-1.71676e-09
3.51998e-10
-1.81057e-09
5.03441e-10
-1.86856e-09
-1.97362e-09
2.52126e-10
-1.9913e-09
4.25531e-10
-2.06837e-09
5.85104e-10
-2.10796e-09
-2.19133e-09
3.18674e-10
-2.29551e-09
5.06385e-10
-2.34729e-09
6.74239e-10
-2.36072e-09
-2.41532e-09
3.89058e-10
-2.6325e-09
5.92391e-10
-2.64925e-09
7.68766e-10
-2.6274e-09
-2.64457e-09
4.59131e-10
-3.00581e-09
6.79586e-10
-2.97636e-09
8.64764e-10
-2.90854e-09
-2.87788e-09
5.22163e-10
-3.41935e-09
7.61394e-10
-3.3309e-09
9.55663e-10
-3.20468e-09
-3.11389e-09
5.67708e-10
-3.87748e-09
8.27506e-10
-3.71534e-09
1.03112e-09
-3.5163e-09
-3.35102e-09
5.80068e-10
-4.38497e-09
8.62343e-10
-4.13229e-09
1.07552e-09
-3.84384e-09
-3.58741e-09
5.36226e-10
-4.94698e-09
8.42999e-10
-4.58454e-09
1.06589e-09
-4.18769e-09
-3.82097e-09
4.03092e-10
-5.56903e-09
7.36483e-10
-5.07501e-09
9.69177e-10
-4.54815e-09
-4.04935e-09
1.33852e-10
-6.25765e-09
4.96068e-10
-5.60676e-09
7.38606e-10
-4.92548e-09
-4.26932e-09
-3.87842e-10
-7.0732e-09
3.46371e-11
-6.22557e-09
3.05297e-10
-5.34855e-09
-4.49511e-09
-1.16046e-09
-7.9134e-09
-7.32906e-10
-6.85036e-09
-4.71071e-10
-5.7599e-09
-4.69051e-09
-2.15587e-09
-8.77487e-09
-1.72398e-09
-7.48015e-09
-1.47052e-09
-6.16004e-09
-4.85845e-09
-3.39054e-09
-9.65506e-09
-2.95506e-09
-8.11393e-09
-2.70953e-09
-6.5495e-09
-5.00099e-09
-4.87936e-09
-1.05514e-08
-4.44104e-09
-8.7507e-09
-4.203e-09
-6.92881e-09
-5.12026e-09
-6.63554e-09
-1.14613e-08
-6.19514e-09
-9.38945e-09
-5.96413e-09
-7.2985e-09
-5.21835e-09
-8.67063e-09
-1.23821e-08
-8.2289e-09
-1.00292e-08
-8.00448e-09
-7.65912e-09
-5.29737e-09
-1.09945e-08
-1.33114e-08
-1.05522e-08
-1.06689e-08
-1.0334e-08
-8.01117e-09
-5.35937e-09
-1.36156e-08
-1.42468e-08
-1.31734e-08
-1.13076e-08
-1.29609e-08
-8.35516e-09
-5.40632e-09
-1.65404e-08
-1.51858e-08
-1.60991e-08
-1.19444e-08
-1.58919e-08
-8.69154e-09
-5.44009e-09
-1.97744e-08
-1.61262e-08
-1.93345e-08
-1.25783e-08
-1.91324e-08
-9.02074e-09
-5.46246e-09
-2.33214e-08
-1.7066e-08
-2.28836e-08
-1.32087e-08
-2.26862e-08
-9.34315e-09
-5.47507e-09
-2.71839e-08
-1.80031e-08
-2.67489e-08
-1.38345e-08
-2.65558e-08
-9.65911e-09
-5.47939e-09
-3.13633e-08
-1.89359e-08
-3.09316e-08
-1.44552e-08
-3.07427e-08
-9.96889e-09
-5.47675e-09
-3.586e-08
-1.98626e-08
-3.5432e-08
-1.50699e-08
-3.52471e-08
-1.02727e-08
-5.46831e-09
-4.06732e-08
-2.07819e-08
-4.02495e-08
-1.56782e-08
-4.00684e-08
-1.05708e-08
-5.45505e-09
-4.58016e-08
-2.16924e-08
-4.53825e-08
-1.62793e-08
-4.52051e-08
-1.08633e-08
-5.43779e-09
-5.12429e-08
-2.25932e-08
-5.08289e-08
-1.68728e-08
-5.06551e-08
-1.11501e-08
-5.41714e-09
-5.69945e-08
-2.34832e-08
-5.6586e-08
-1.74583e-08
-5.64157e-08
-1.14314e-08
-5.39359e-09
-6.30533e-08
-2.43618e-08
-6.26505e-08
-1.80353e-08
-6.24838e-08
-1.17071e-08
-5.36744e-09
-6.94159e-08
-2.52283e-08
-6.9019e-08
-1.86034e-08
-6.88559e-08
-1.19771e-08
-5.33886e-09
-7.60786e-08
-2.60822e-08
-7.56879e-08
-1.91624e-08
-7.55285e-08
-1.22413e-08
-5.30792e-09
-8.30377e-08
-2.69231e-08
-8.26535e-08
-1.9712e-08
-8.24978e-08
-1.24995e-08
-5.27457e-09
-9.02894e-08
-2.77507e-08
-8.99118e-08
-2.02519e-08
-8.976e-08
-1.27516e-08
-5.23869e-09
-9.783e-08
-2.85648e-08
-9.74591e-08
-2.07819e-08
-9.73113e-08
-1.29974e-08
-5.20011e-09
-1.05656e-07
-2.93651e-08
-1.05292e-07
-2.13017e-08
-1.05148e-07
-1.32367e-08
-5.15864e-09
-1.13763e-07
-3.01514e-08
-1.13406e-07
-2.18111e-08
-1.13267e-07
-1.34692e-08
-5.11409e-09
-1.22148e-07
-3.09235e-08
-1.21799e-07
-2.231e-08
-1.21663e-07
-1.36949e-08
-5.0663e-09
-1.30808e-07
-3.16809e-08
-1.30466e-07
-2.2798e-08
-1.30335e-07
-1.39135e-08
-5.01517e-09
-1.39738e-07
-3.24235e-08
-1.39404e-07
-2.32749e-08
-1.39278e-07
-1.41249e-08
-4.96068e-09
-1.48936e-07
-3.31506e-08
-1.48609e-07
-2.37404e-08
-1.48488e-07
-1.43289e-08
-4.90288e-09
-1.58397e-07
-3.38617e-08
-1.58079e-07
-2.41941e-08
-1.57962e-07
-1.45257e-08
-4.84197e-09
-1.68118e-07
-3.45562e-08
-1.67808e-07
-2.46358e-08
-1.67696e-07
-1.4715e-08
-4.77825e-09
-1.78095e-07
-3.52332e-08
-1.77794e-07
-2.5065e-08
-1.77686e-07
-1.4897e-08
-4.71213e-09
-1.88322e-07
-3.58918e-08
-1.8803e-07
-2.54813e-08
-1.87926e-07
-1.50716e-08
-4.64414e-09
-1.98794e-07
-3.65312e-08
-1.98511e-07
-2.58843e-08
-1.98413e-07
-1.5239e-08
-4.57489e-09
-2.09507e-07
-3.71502e-08
-2.09233e-07
-2.62736e-08
-2.09139e-07
-1.53992e-08
-4.5051e-09
-2.20452e-07
-3.77477e-08
-2.20189e-07
-2.66486e-08
-2.20099e-07
-1.55525e-08
-4.43553e-09
-2.31624e-07
-3.83227e-08
-2.3137e-07
-2.70089e-08
-2.31284e-07
-1.56989e-08
-4.36698e-09
-2.43013e-07
-3.88741e-08
-2.42771e-07
-2.73541e-08
-2.42689e-07
-1.58387e-08
-4.30028e-09
-2.54613e-07
-3.94006e-08
-2.54381e-07
-2.76836e-08
-2.54303e-07
-1.5972e-08
-4.23628e-09
-2.66413e-07
-3.99013e-08
-2.66193e-07
-2.79971e-08
-2.66118e-07
-1.60991e-08
-4.1758e-09
-2.78404e-07
-4.03751e-08
-2.78195e-07
-2.8294e-08
-2.78124e-07
-1.622e-08
-4.11968e-09
-2.90574e-07
-4.08209e-08
-2.90377e-07
-2.85741e-08
-2.9031e-07
-1.6335e-08
-4.06868e-09
-3.02913e-07
-4.12379e-08
-3.02729e-07
-2.8837e-08
-3.02664e-07
-1.64443e-08
-4.02354e-09
-3.15409e-07
-4.16251e-08
-3.15237e-07
-2.90822e-08
-3.15176e-07
-1.65479e-08
-3.9849e-09
-3.28049e-07
-4.19819e-08
-3.2789e-07
-2.93095e-08
-3.27832e-07
-1.66461e-08
-3.95331e-09
-3.40821e-07
-4.23078e-08
-3.40674e-07
-2.95187e-08
-3.40619e-07
-1.67388e-08
-3.92919e-09
-3.5371e-07
-4.26022e-08
-3.53576e-07
-2.97096e-08
-3.53523e-07
-1.68261e-08
-3.91276e-09
-3.66703e-07
-4.28651e-08
-3.66582e-07
-2.98821e-08
-3.66532e-07
-1.69079e-08
-3.90404e-09
-3.79785e-07
-4.30965e-08
-3.79677e-07
-3.00362e-08
-3.79631e-07
-1.69842e-08
-3.9028e-09
-3.92944e-07
-4.3297e-08
-3.92849e-07
-3.01721e-08
-3.92806e-07
-1.70546e-08
-3.90851e-09
-4.06165e-07
-4.34671e-08
-4.06083e-07
-3.02899e-08
-4.06043e-07
-1.71188e-08
-3.92034e-09
-4.19435e-07
-4.3608e-08
-4.19365e-07
-3.039e-08
-4.19329e-07
-1.71765e-08
-3.93712e-09
-4.32741e-07
-4.37211e-08
-4.32683e-07
-3.04728e-08
-4.32651e-07
-1.72271e-08
-3.9573e-09
-4.46072e-07
-4.38082e-08
-4.46025e-07
-3.0539e-08
-4.45998e-07
-1.72701e-08
-3.9791e-09
-4.59418e-07
-4.38712e-08
-4.59382e-07
-3.05892e-08
-4.5936e-07
-1.73046e-08
-4.00003e-09
-4.72769e-07
-4.39131e-08
-4.72744e-07
-3.06247e-08
-4.72728e-07
-1.73302e-08
-4.01756e-09
-4.8612e-07
-4.39352e-08
-4.86105e-07
-3.06449e-08
-4.86096e-07
-1.73448e-08
-4.02616e-09
-4.99462e-07
-4.99459e-07
-4.99463e-07
)
;

boundaryField
{
    plateFix
    {
        type            calculated;
        value           nonuniform List<scalar> 4(1.33503e-10 -4.98305e-15 1.00692e-14 2.58344e-10);
    }
    plate
    {
        type            calculated;
        value           nonuniform List<scalar> 
168
(
3.48093e-11
5.6898e-11
5.77915e-11
1.02368e-10
7.64864e-11
1.46735e-10
8.93699e-11
1.897e-10
9.62509e-11
2.3248e-10
9.72147e-11
2.76692e-10
9.21564e-11
3.23781e-10
8.0916e-11
3.7514e-10
6.32666e-11
4.32028e-10
3.90084e-11
4.95557e-10
8.05805e-12
5.66602e-10
-2.9404e-11
6.4568e-10
-7.27309e-11
7.32747e-10
-1.20514e-10
8.26902e-10
-1.70161e-10
9.25978e-10
-2.17307e-10
1.02595e-09
-2.5499e-10
1.12012e-09
-2.72525e-10
1.19803e-09
-2.53969e-10
1.2439e-09
-1.76068e-10
1.23464e-09
-5.50858e-12
1.13704e-09
3.04756e-10
9.04143e-10
9.07176e-10
4.78458e-10
1.69363e-09
-3.15441e-10
2.70148e-09
-1.33135e-09
3.94708e-09
-2.58561e-09
5.44531e-09
-4.09311e-09
7.20937e-09
-5.86707e-09
9.25084e-09
-7.91904e-09
1.15796e-08
-1.0259e-08
1.42041e-08
-1.28952e-08
1.7131e-08
-1.58345e-08
2.03658e-08
-1.90822e-08
2.39122e-08
-2.26422e-08
2.77731e-08
-2.65173e-08
3.19497e-08
-3.07088e-08
3.64427e-08
-3.52172e-08
4.12513e-08
-4.00419e-08
4.63743e-08
-4.51816e-08
5.18096e-08
-5.06342e-08
5.75546e-08
-5.63972e-08
6.36063e-08
-6.24674e-08
6.99613e-08
-6.88416e-08
7.66161e-08
-7.55162e-08
8.35671e-08
-8.24876e-08
9.08104e-08
-8.97519e-08
9.83424e-08
-9.73054e-08
1.06159e-07
-1.05144e-07
1.14258e-07
-1.13265e-07
1.22634e-07
-1.21665e-07
1.31284e-07
-1.30339e-07
1.40205e-07
-1.39284e-07
1.49393e-07
-1.48497e-07
1.58844e-07
-1.57974e-07
1.68554e-07
-1.6771e-07
1.78519e-07
-1.77702e-07
1.88735e-07
-1.87944e-07
1.99195e-07
-1.98432e-07
2.09894e-07
-2.09159e-07
2.20826e-07
-2.20119e-07
2.31983e-07
-2.31305e-07
2.43358e-07
-2.42709e-07
2.54942e-07
-2.54323e-07
2.66726e-07
-2.66137e-07
2.787e-07
-2.78141e-07
2.90853e-07
-2.90325e-07
3.03174e-07
-3.02677e-07
3.15652e-07
-3.15185e-07
3.28273e-07
-3.27838e-07
3.41026e-07
-3.40622e-07
3.53895e-07
-3.53523e-07
3.66869e-07
-3.66528e-07
3.79933e-07
-3.79624e-07
3.93072e-07
-3.92796e-07
4.06275e-07
-4.0603e-07
4.19526e-07
-4.19315e-07
4.32815e-07
-4.32636e-07
4.4613e-07
-4.45984e-07
4.59461e-07
-4.59347e-07
4.728e-07
-4.72718e-07
4.86139e-07
-4.86093e-07
4.9947e-07
-4.39427e-08
-3.06518e-08
-1.73485e-08
-4.02614e-09
-4.99467e-07
)
;
    }
    frontAndBackPlanes
    {
        type            empty;
    }
}


// ************************************************************************* //
