/*--------------------------------*- C++ -*----------------------------------*\
| =========                 |                                                 |
| \\      /  F ield         | OpenFOAM Extend Project: Open source CFD        |
|  \\    /   O peration     | Version:  1.6-ext                               |
|   \\  /    A nd           | Web:      www.extend-project.de                 |
|    \\/     M anipulation  |                                                 |
\*---------------------------------------------------------------------------*/
FoamFile
{
    version     2.0;
    format      ascii;
    class       volSymmTensorField;
    location    "1.2";
    object      sigma;
}
// * * * * * * * * * * * * * * * * * * * * * * * * * * * * * * * * * * * * * //

dimensions      [1 -1 -2 0 0 0 0];

internalField   nonuniform List<symmTensor> 
328
(
(6.22233 0.553537 -6.75857e-22 2.45109 5.95907e-20 3.46731)
(1.62395 -0.344032 6.2975e-24 0.805744 5.48417e-23 0.970745)
(-1.54213 -0.206861 8.1455e-23 -0.610553 -7.11195e-23 -0.862202)
(-6.3558 0.857776 1.2668e-22 -2.04076 -8.37293e-20 -3.3608)
(6.02199 0.366223 2.22362e-21 1.85776 -1.46414e-19 3.14983)
(1.60925 -0.11394 4.52798e-23 0.449471 -8.12183e-23 0.822274)
(-1.53226 -0.00024003 -1.60722e-23 -0.0230591 1.20501e-22 -0.623353)
(-6.04887 0.576329 1.31798e-21 -1.22424 -5.58929e-20 -2.91142)
(6.02098 0.243908 -2.73594e-21 1.54491 5.43521e-21 3.0242)
(1.69015 0.0508522 -1.4575e-22 0.305731 1.88668e-22 0.797015)
(-1.68495 0.138116 9.34398e-22 0.257345 7.42705e-23 -0.572413)
(-6.01868 0.374912 -5.22531e-21 -0.77817 1.22909e-19 -2.72102)
(5.95074 0.17251 1.11539e-21 1.34129 2.16557e-21 2.91459)
(1.67142 0.15809 1.35975e-22 0.197414 -2.23628e-22 0.746061)
(-1.68503 0.21761 -9.98729e-22 0.491896 -6.80367e-22 -0.478775)
(-5.91302 0.245934 4.46679e-21 -0.48161 5.21983e-20 -2.56021)
(5.90529 0.135183 -1.11598e-21 1.23526 5.97089e-20 2.85394)
(1.65947 0.219742 2.01612e-21 0.15373 7.9545e-22 0.72369)
(-1.69456 0.254823 1.05862e-22 0.622431 -4.38832e-22 -0.430501)
(-5.8531 0.169382 -3.41308e-22 -0.320622 -8.725e-20 -2.4719)
(5.84579 0.117848 -5.625e-22 1.17731 -7.62389e-20 2.80693)
(1.62611 0.255035 -9.12583e-22 0.129961 -2.55444e-22 0.700745)
(-1.6659 0.270403 -2.50589e-21 0.713566 7.97769e-22 -0.382678)
(-5.78517 0.125984 1.01367e-22 -0.229458 7.27162e-21 -2.4083)
(5.78431 0.111517 -1.06902e-21 1.14924 1.16079e-19 2.7711)
(1.59379 0.272671 6.527e-22 0.123526 5.22384e-23 0.685179)
(-1.6339 0.273761 -4.43193e-23 0.766266 -2.53202e-22 -0.348866)
(-5.72291 0.103105 5.05964e-22 -0.183658 1.13088e-20 -2.36509)
(5.7154 0.110427 5.50221e-21 1.13487 -2.35878e-20 2.73779)
(1.55921 0.280289 -9.84678e-21 0.122549 -2.26331e-21 0.670914)
(-1.59349 0.271997 1.75686e-21 0.799203 -6.06078e-22 -0.319568)
(-5.65667 0.091923 -1.06797e-21 -0.160824 -6.51566e-20 -2.32946)
(5.64072 0.111456 -5.87277e-21 1.12654 5.5784e-20 2.70459)
(1.52671 0.281955 6.21686e-21 0.124743 8.37666e-22 0.65877)
(-1.55269 0.26833 4.38048e-21 0.817102 -3.75645e-22 -0.296111)
(-5.5868 0.0871558 -4.83052e-21 -0.149874 1.05109e-19 -2.29712)
(5.55976 0.112978 6.65905e-21 1.11962 -7.93271e-20 2.66945)
(1.49553 0.280512 3.69528e-21 0.127505 -1.5349e-22 0.647397)
(-1.51146 0.264498 -1.07557e-21 0.826063 3.10569e-22 -0.276043)
(-5.51095 0.0855334 1.09542e-20 -0.143704 -6.35798e-20 -2.2643)
(5.47291 0.114322 -5.10966e-21 1.11208 5.1079e-20 2.63171)
(1.46594 0.277506 -9.32137e-21 0.130481 1.88707e-21 0.636752)
(-1.47142 0.261026 2.55426e-21 0.828708 -2.41484e-21 -0.258962)
(-5.4285 0.0852406 -6.94567e-21 -0.138822 -5.50931e-21 -2.22935)
(5.3802 0.115281 -6.09467e-21 1.10305 -9.17473e-20 2.59104)
(1.43726 0.27387 8.62395e-21 0.13349 2.63428e-21 0.626491)
(-1.43237 0.257978 -4.69598e-21 0.827239 2.55832e-21 -0.243922)
(-5.33869 0.0852726 -3.26135e-21 -0.133443 3.54197e-20 -2.19126)
(5.28167 0.11587 1.83278e-20 1.09233 7.7337e-20 2.54736)
(1.40904 0.270073 2.55534e-21 0.136737 -1.79997e-21 0.616513)
(-1.39422 0.255181 -2.0944e-21 0.822857 7.09958e-22 -0.230405)
(-5.2412 0.0851357 2.32371e-21 -0.12685 1.4674e-20 -2.14959)
(5.17723 0.116164 -1.42992e-20 1.07994 -3.99376e-21 2.50065)
(1.38077 0.26633 -1.93087e-20 0.140373 -1.57648e-21 0.606669)
(-1.35648 0.252428 9.09046e-23 0.816425 3.27037e-21 -0.217867)
(-5.13574 0.0846103 -2.20156e-22 -0.118826 -4.16416e-20 -2.10417)
(5.06672 0.116239 -1.08698e-20 1.06597 -1.8159e-20 2.45089)
(1.35207 0.262694 -1.0912e-20 0.144517 -2.49942e-22 0.596855)
(-1.31862 0.249539 3.1778e-22 0.808449 -1.62476e-21 -0.2059)
(-5.02218 0.083633 4.251e-21 -0.109411 1.77779e-20 -2.05496)
(4.94993 0.116141 1.40978e-20 1.05051 1.0599e-21 2.39801)
(1.32262 0.259125 -2.93239e-21 0.149194 -4.61362e-21 0.586958)
(-1.28009 0.246389 3.97141e-21 0.799248 4.51087e-22 -0.194156)
(-4.90042 0.0822177 1.68267e-20 -0.098742 -3.69745e-20 -2.00195)
(4.82663 0.115885 -1.44256e-20 1.03362 -3.80317e-20 2.34196)
(1.29222 0.255535 1.09642e-20 0.154366 5.75722e-21 0.576879)
(-1.24037 0.242897 -2.02719e-20 0.788987 -1.51002e-21 -0.182362)
(-4.77036 0.0804142 -1.73529e-21 -0.0869918 2.80433e-20 -1.94519)
(4.6966 0.115465 5.81239e-20 1.0153 2.66602e-20 2.28266)
(1.26072 0.251817 -1.54423e-20 0.159946 -4.28208e-21 0.566521)
(-1.19904 0.239013 3.14638e-20 0.777737 7.33785e-21 -0.170313)
(-4.63193 0.078283 -2.23396e-20 -0.0743291 -5.53626e-20 -1.88472)
(4.5597 0.114859 -4.85273e-20 0.995566 -1.91142e-21 2.22003)
(1.22804 0.247864 -4.65442e-20 0.165837 -1.19686e-20 0.555814)
(-1.1557 0.234709 -3.48061e-21 0.765512 -1.0571e-20 -0.157854)
(-4.48506 0.0758816 4.8981e-21 -0.0609049 3.93672e-20 -1.82056)
(4.41573 0.114036 -7.22408e-20 0.974343 -6.31609e-21 2.15399)
(1.19408 0.243569 6.38519e-20 0.171909 5.75109e-21 0.544672)
(-1.11008 0.229952 3.56357e-20 0.752278 6.44607e-21 -0.144889)
(-4.32966 0.0732631 4.57214e-20 -0.0468516 -1.14991e-20 -1.75274)
(4.26487 0.112981 7.03143e-20 0.951675 1.57358e-20 2.08461)
(1.15893 0.238862 3.78361e-21 0.178091 1.92671e-20 0.533095)
(-1.06199 0.224726 -2.02031e-20 0.738028 -1.62155e-20 -0.131335)
(-4.16579 0.0704569 -3.87269e-20 -0.0322592 3.55666e-20 -1.68132)
(4.10654 0.111553 1.4722e-20 0.927207 -5.64057e-21 2.01153)
(1.12241 0.233555 -3.86553e-20 0.184145 -2.80369e-21 0.520922)
(-1.01127 0.21891 1.18975e-20 0.722677 -3.71892e-21 -0.117172)
(-3.99322 0.0674659 -3.4558e-20 -0.0171969 3.22307e-21 -1.60622)
(3.93637 0.109388 -1.79003e-20 0.900977 2.0553e-22 1.933)
(1.08354 0.226524 8.35405e-20 0.190606 1.90778e-20 0.507974)
(-0.95589 0.211335 6.59763e-21 0.70556 -1.06749e-20 -0.10185)
(-3.80635 0.0636053 6.22517e-20 -0.00149737 -2.32099e-20 -1.52515)
(3.7599 0.108086 -6.81671e-20 0.872956 -2.88898e-20 1.85125)
(1.04355 0.22134 -8.67565e-21 0.196664 1.44084e-20 0.494415)
(-0.897822 0.205629 3.90387e-20 0.686971 7.579e-21 -0.0860389)
(-3.6117 0.060654 -1.86846e-19 0.0138143 3.7442e-20 -1.44112)
(3.58803 0.106664 -3.00054e-20 0.844989 1.89559e-20 1.77135)
(1.00516 0.216237 -6.50364e-21 0.202077 6.56197e-21 0.481243)
(-0.840623 0.200102 -2.53567e-20 0.668583 -5.72053e-22 -0.0704954)
(-3.42077 0.0579092 1.22001e-19 0.0288232 -5.20425e-20 -1.3587)
(3.42093 0.105109 1.80087e-19 0.817031 -3.69974e-21 1.69336)
(0.968207 0.211037 -1.52633e-20 0.206728 -1.10493e-20 0.468338)
(-0.784494 0.194534 3.36838e-21 0.650081 -8.6067e-21 -0.0554254)
(-3.23436 0.0551918 -4.83844e-20 0.0428417 2.98105e-20 -1.27848)
(3.25871 0.103412 3.92694e-20 0.78935 -1.57745e-20 1.61744)
(0.932737 0.205739 -9.78691e-20 0.210787 -4.03083e-20 0.45579)
(-0.729324 0.188944 6.05397e-20 0.631597 -1.32185e-20 -0.0407316)
(-3.05226 0.0525564 -1.03099e-19 0.056074 -2.67087e-20 -1.20031)
(3.10133 0.101619 1.10823e-20 0.761841 1.00739e-20 1.54352)
(0.898667 0.200358 -4.60625e-20 0.214172 5.21855e-20 0.443532)
(-0.675228 0.183327 2.38606e-20 0.61305 2.25667e-20 -0.026493)
(-2.87473 0.0499767 -4.5901e-20 0.0683598 2.16654e-20 -1.12434)
(2.94887 0.0997262 1.37822e-19 0.734598 3.99677e-20 1.47166)
(0.866026 0.194907 1.55451e-19 0.216939 3.56077e-21 0.431599)
(-0.622195 0.177699 -5.42683e-21 0.594503 7.20572e-20 -0.0126799)
(-2.70174 0.0474694 9.18874e-20 0.0797828 -8.45725e-20 -1.05054)
(2.80129 0.0977534 -2.21916e-19 0.707586 -3.04794e-20 1.40186)
(0.83477 0.189403 3.91047e-20 0.219062 -1.56452e-20 0.419962)
(-0.570287 0.172068 -2.46442e-20 0.575935 7.64231e-20 0.000674184)
(-2.53341 0.0450248 2.26535e-20 0.090297 -2.9437e-20 -0.978966)
(2.65864 0.0957031 -5.17045e-20 0.68084 -6.40352e-24 1.33413)
(0.804896 0.183857 -1.4198e-19 0.220564 3.24075e-20 0.408629)
(-0.51952 0.166446 -2.92567e-20 0.55737 -4.44414e-20 0.0135735)
(-2.36976 0.0426483 -1.59963e-20 0.0999316 5.10849e-20 -0.909616)
(2.52087 0.0935851 -1.16101e-19 0.654355 -2.75247e-21 1.26845)
(0.776373 0.17828 -1.06582e-20 0.221441 -3.8452e-20 0.397587)
(-0.469932 0.160839 -8.61697e-20 0.538807 -9.30009e-20 0.0260019)
(-2.21083 0.0403379 7.60243e-20 0.108677 6.39884e-20 -0.842515)
(2.38798 0.0914031 -1.9674e-19 0.628146 -5.61365e-21 1.20484)
(0.749183 0.172683 3.66623e-19 0.221706 6.22847e-20 0.386833)
(-0.421544 0.155257 -1.33043e-19 0.520259 -1.46375e-19 0.0379556)
(-2.05666 0.0380962 8.41446e-21 0.116548 2.22281e-20 -0.777666)
(2.25994 0.0891626 1.40251e-19 0.602219 -6.2468e-20 1.14328)
(0.723294 0.167074 -1.426e-19 0.221366 2.57898e-20 0.376357)
(-0.374388 0.149706 2.94963e-19 0.501733 3.2738e-20 0.0494253)
(-1.90727 0.0359236 -2.75225e-19 0.123549 9.92172e-21 -0.715078)
(2.1367 0.0868666 -4.74639e-20 0.576584 7.66143e-21 1.08375)
(0.698676 0.16146 1.26913e-19 0.220434 1.31476e-19 0.366153)
(-0.328487 0.144193 1.20325e-19 0.483238 -6.41591e-20 0.0604056)
(-1.76267 0.0338223 7.12202e-20 0.129693 3.90208e-20 -0.654753)
(2.01822 0.0845181 3.00642e-19 0.55125 4.22253e-20 1.02625)
(0.675294 0.155849 -1.3085e-19 0.218921 4.4023e-20 0.356212)
(-0.283868 0.138723 -6.16094e-20 0.464786 -4.37239e-20 0.0708896)
(-1.62288 0.0317937 -1.53557e-19 0.134992 -1.33066e-19 -0.59669)
(1.90445 0.0821191 -9.55221e-20 0.52623 1.57092e-19 0.970759)
(0.653113 0.150246 -1.12159e-19 0.216843 9.14616e-20 0.346524)
(-0.240556 0.133302 -4.54024e-20 0.446388 -1.02132e-19 0.0808725)
(-1.48791 0.0298397 6.4142e-20 0.139465 -2.97502e-20 -0.540887)
(1.79532 0.0796711 -1.63533e-19 0.501535 -3.64206e-20 0.917254)
(0.632091 0.144655 1.64919e-19 0.214218 -1.57415e-19 0.337082)
(-0.198579 0.127934 -2.00466e-19 0.428058 1.80034e-19 0.0903489)
(-1.35776 0.0279618 1.51591e-19 0.143127 -1.06068e-19 -0.487338)
(1.69078 0.077175 -1.4082e-21 0.477179 -9.56185e-20 0.865716)
(0.612187 0.139081 4.32167e-20 0.211066 -1.69288e-19 0.327875)
(-0.157962 0.122622 -1.61844e-19 0.409811 -3.77261e-20 0.0993146)
(-1.23245 0.0261619 2.69837e-20 0.146001 1.29589e-19 -0.436038)
(1.59075 0.0746315 2.7893e-19 0.45318 1.485e-19 0.816125)
(0.593354 0.133526 -4.42178e-20 0.207408 3.87256e-19 0.318895)
(-0.118733 0.11737 2.44445e-19 0.391666 1.69413e-19 0.107765)
(-1.11196 0.0244413 -2.0685e-19 0.14811 -9.19022e-20 -0.386976)
(1.49516 0.0720409 -5.66637e-20 0.429555 7.77239e-20 0.768459)
(0.575547 0.127993 6.47418e-20 0.203269 -1.87576e-19 0.310134)
(-0.0809206 0.112179 4.9664e-20 0.373641 1.81111e-19 0.115698)
(-0.996309 0.0228015 -2.15639e-19 0.14948 5.36943e-20 -0.340144)
(1.40392 0.0694032 -6.5444e-20 0.406324 -2.14161e-19 0.722695)
(0.558715 0.122483 5.18254e-20 0.198676 2.46946e-19 0.301581)
(-0.044554 0.107052 8.30994e-20 0.355759 -2.19693e-19 0.12311)
(-0.885491 0.0212435 2.83783e-19 0.15014 1.9964e-20 -0.29553)
(1.31697 0.0667186 1.06151e-19 0.383511 7.59913e-20 0.678811)
(0.54281 0.116998 -3.49304e-19 0.193658 2.83568e-20 0.293229)
(-0.00966332 0.101989 4.88968e-19 0.338042 -2.32594e-19 0.129997)
(-0.779508 0.0197681 -3.28879e-19 0.150119 6.81711e-20 -0.253123)
(1.23422 0.063987 9.42574e-20 0.36114 -1.03504e-19 0.636783)
(0.527778 0.111539 -1.63792e-19 0.188247 1.02922e-19 0.28507)
(0.0237207 0.0969923 -6.68344e-20 0.320518 4.08589e-19 0.136359)
(-0.678362 0.018376 1.41482e-20 0.149452 6.9992e-20 -0.212911)
(1.15559 0.0612088 2.76179e-19 0.339237 -3.17442e-20 0.596589)
(0.513569 0.106106 -1.33805e-19 0.182476 -1.85566e-19 0.277095)
(0.0555665 0.0920618 4.39609e-20 0.303213 -3.45462e-19 0.142193)
(-0.582056 0.0170674 6.89938e-20 0.148172 -2.50984e-19 -0.174879)
(1.08099 0.0583844 -1.67643e-19 0.317831 7.53357e-20 0.558209)
(0.500127 0.100702 -1.22993e-19 0.17638 2.52528e-19 0.269298)
(0.0858423 0.0871982 -2.28482e-19 0.286156 3.56972e-19 0.147499)
(-0.49059 0.0158425 -2.27641e-19 0.146317 3.62957e-20 -0.139014)
(1.01035 0.0555147 1.0312e-18 0.296952 -5.47371e-20 0.521619)
(0.487399 0.0953255 -2.05217e-19 0.169997 6.88874e-19 0.261671)
(0.114516 0.0824021 8.55441e-20 0.269379 -2.35603e-19 0.152275)
(-0.403966 0.0147009 2.94109e-19 0.143926 1.04258e-19 -0.105301)
(0.943566 0.052601 -2.39103e-19 0.276631 -5.75023e-20 0.486798)
(0.475332 0.0899798 -4.49733e-19 0.163363 -6.74404e-19 0.254209)
(0.141556 0.0776744 1.5905e-19 0.252913 -9.70445e-20 0.156523)
(-0.322186 0.0136424 -3.0812e-19 0.141038 1.72938e-19 -0.0737248)
(0.880566 0.0496451 1.09681e-19 0.2569 -5.08287e-20 0.453725)
(0.463872 0.0846663 1.1512e-19 0.156519 -3.18645e-20 0.246905)
(0.166931 0.073016 -2.23752e-20 0.236792 -5.16188e-19 0.160242)
(-0.245249 0.0126662 -6.07197e-19 0.137694 7.22334e-20 -0.0442683)
(0.821259 0.0466496 2.14143e-19 0.237793 3.74568e-20 0.422379)
(0.452964 0.0793879 -7.65129e-20 0.149505 5.57849e-19 0.239754)
(0.190611 0.0684287 2.06969e-19 0.22105 7.4832e-20 0.163435)
(-0.173153 0.0117716 1.74039e-19 0.133937 1.7915e-19 -0.0169139)
(0.765559 0.0436174 -3.03859e-19 0.219341 -1.12981e-19 0.392737)
(0.442556 0.0741479 5.54548e-19 0.14236 -4.06389e-20 0.232751)
(0.212567 0.0639146 -2.15466e-19 0.20572 2.12045e-19 0.166103)
(-0.105893 0.0109578 1.80992e-19 0.129809 -2.94959e-19 0.0083577)
(0.713378 0.0405526 -5.15966e-19 0.201578 -1.36276e-19 0.364778)
(0.432594 0.068951 -3.98863e-19 0.135126 -9.15932e-19 0.22589)
(0.232772 0.0594766 -9.78338e-20 0.190836 -1.6524e-19 0.16825)
(-0.0434583 0.0102239 2.33888e-19 0.125354 3.61649e-20 0.0315676)
(0.664625 0.0374595 3.19085e-19 0.184534 2.0869e-19 0.338478)
(0.423027 0.0638024 -3.94651e-20 0.127843 3.58503e-19 0.219168)
(0.251203 0.0551184 1.01798e-19 0.176433 3.08848e-19 0.169878)
(0.0141641 0.00956887 2.67229e-19 0.120615 -2.72128e-19 0.0527388)
(0.619206 0.0343434 7.5724e-20 0.16824 -2.31338e-19 0.313811)
(0.413803 0.058709 1.00003e-19 0.120552 7.80969e-20 0.212579)
(0.267838 0.0508447 -4.38799e-19 0.162543 2.16562e-19 0.170993)
(0.0669952 0.00899193 -4.54975e-19 0.115637 2.15798e-19 0.0718972)
(0.577026 0.0312103 -8.60517e-20 0.152725 2.46842e-20 0.290751)
(0.404872 0.0536783 1.4817e-19 0.113291 1.00482e-19 0.206119)
(0.282659 0.0466612 4.13285e-19 0.149197 9.82834e-22 0.171599)
(0.115063 0.00849232 8.68099e-20 0.110462 -9.6291e-20 0.0890712)
(0.537985 0.0280669 -1.03757e-19 0.138014 1.24923e-19 0.269268)
(0.396182 0.0487193 -1.723e-19 0.106101 -1.6894e-19 0.199784)
(0.295652 0.0425746 -9.03311e-19 0.136425 2.88194e-19 0.171704)
(0.158404 0.00806948 3.34545e-20 0.105133 2.97417e-19 0.104293)
(0.501976 0.0249205 -3.63335e-19 0.124133 -7.37459e-19 0.249329)
(0.387683 0.0438424 -6.86608e-20 0.0990172 2.35868e-19 0.193568)
(0.30681 0.0385928 7.07788e-19 0.124255 -5.79747e-19 0.171316)
(0.197066 0.00772308 4.74408e-19 0.0996937 -7.48383e-20 0.117598)
(0.468889 0.0217791 -7.49176e-20 0.111101 2.23188e-19 0.230898)
(0.379328 0.039059 -2.57577e-20 0.092077 2.44766e-19 0.187466)
(0.316127 0.0347249 -3.50916e-19 0.112712 3.5842e-19 0.170441)
(0.231107 0.00745315 -7.07926e-19 0.0941846 1.5812e-19 0.129026)
(0.438606 0.0186513 2.63901e-19 0.0989351 -3.08865e-19 0.213934)
(0.371066 0.0343821 3.85764e-19 0.085315 -2.61036e-19 0.181472)
(0.323605 0.0309814 -1.53938e-19 0.101821 -3.19075e-20 0.169092)
(0.260598 0.00726011 5.82729e-19 0.0886469 -5.82105e-19 0.138623)
(0.411 0.0155462 -1.87971e-19 0.0876499 3.49699e-19 0.198394)
(0.362849 0.0298261 -5.40547e-19 0.0787644 1.64167e-19 0.175581)
(0.329252 0.0273741 2.29388e-19 0.0915996 -5.85996e-19 0.167277)
(0.285625 0.00714491 -5.30604e-19 0.0831204 2.89233e-19 0.146438)
(0.385936 0.0124736 -6.14183e-19 0.0772549 1.50199e-20 0.184226)
(0.354628 0.0254068 1.96454e-20 0.0724569 1.59119e-19 0.169785)
(0.333081 0.0239167 5.84271e-19 0.0820663 -2.10916e-19 0.165011)
(0.306287 0.00710912 -1.2355e-19 0.0776442 2.98107e-19 0.152528)
(0.363268 0.00944383 3.82023e-19 0.0677555 1.57383e-19 0.171375)
(0.346353 0.0211419 3.75501e-19 0.0664227 -7.8693e-19 0.164076)
(0.335114 0.0206242 -3.82432e-19 0.0732344 -3.4808e-19 0.162306)
(0.322703 0.00715506 -1.6219e-19 0.0722564 -5.42225e-20 0.156954)
(0.34284 0.0064677 -7.04671e-19 0.0591531 1.63423e-19 0.159778)
(0.337973 0.0170506 -4.14477e-19 0.0606905 -2.0318e-19 0.158446)
(0.335378 0.0175138 1.78193e-19 0.0651142 3.78003e-19 0.159178)
(0.335008 0.00728594 2.0669e-20 0.0669944 1.89087e-19 0.159785)
(0.324481 0.00355662 2.12015e-19 0.0514445 -1.39717e-19 0.149365)
(0.329439 0.0131541 6.49158e-19 0.0552876 -1.43342e-19 0.152886)
(0.333909 0.0146044 1.08078e-18 0.0577124 2.76503e-19 0.155644)
(0.343357 0.00750593 -1.87331e-19 0.061895 4.16936e-19 0.161099)
(0.308007 0.000722409 -3.33083e-19 0.0446222 -3.26741e-19 0.140062)
(0.320697 0.00947505 -5.32199e-19 0.05024 1.12663e-18 0.147384)
(0.330748 0.0119169 -1.59719e-19 0.0510323 -4.90061e-19 0.151722)
(0.347924 0.00782027 2.86204e-19 0.0569945 -6.30324e-19 0.16098)
(0.29322 -0.00202281 -2.44071e-19 0.0386738 -9.82722e-20 0.131781)
(0.311693 0.0060377 3.96288e-19 0.0455731 -2.47348e-19 0.14193)
(0.325947 0.00947381 1.05179e-20 0.0450737 3.96779e-19 0.147432)
(0.348906 0.00823523 -2.1653e-19 0.0523292 -6.2243e-20 0.159521)
(0.279903 -0.00466691 -5.18075e-19 0.0335828 1.55376e-19 0.124433)
(0.302372 0.00286707 -1.22529e-19 0.041311 -4.19558e-20 0.136511)
(0.319563 0.00729897 5.93343e-19 0.0398329 -7.49641e-19 0.142796)
(0.346522 0.00875803 4.98653e-19 0.0479353 -2.81446e-19 0.156823)
(0.267828 -0.00719817 1.03544e-19 0.0293282 -2.24584e-19 0.117915)
(0.292677 -1.19e-05 -1.38322e-20 0.0374775 -9.86328e-19 0.131113)
(0.311663 0.00541627 -2.94186e-19 0.0353033 2.53716e-18 0.137838)
(0.34101 0.00939655 -5.88022e-19 0.0438496 -3.92062e-19 0.152997)
(0.25675 -0.00960602 -1.45837e-19 0.0258854 5.83293e-19 0.11212)
(0.282547 -0.002576 3.69996e-19 0.0340963 -6.43107e-19 0.125722)
(0.302318 0.00384852 8.28171e-19 0.0314758 -2.66433e-19 0.132583)
(0.332629 0.0101589 -6.32013e-19 0.04011 -2.84088e-19 0.148162)
(0.24641 -0.011882 -3.68012e-19 0.0232257 -7.22914e-19 0.106933)
(0.271924 -0.00480581 -5.17034e-21 0.0311902 6.21507e-19 0.120324)
(0.291606 0.00261542 -8.80541e-20 0.0283392 -7.29341e-19 0.127056)
(0.321656 0.0110528 1.86451e-19 0.0367548 -2.1659e-19 0.142444)
(0.236545 -0.0140212 -2.05552e-20 0.0213188 1.97233e-19 0.102237)
(0.260745 -0.00668868 1.37447e-19 0.0287836 1.37156e-18 0.114902)
(0.27961 0.00173135 -8.7379e-19 0.0258821 -9.76191e-20 0.121288)
(0.308383 0.0120847 1.89964e-19 0.0338248 2.51321e-19 0.135976)
(0.226883 -0.0160242 -5.8242e-19 0.0201323 2.03008e-19 0.0979103)
(0.248948 -0.00822221 -7.82532e-20 0.0269 -4.7702e-19 0.109443)
(0.266411 0.00120285 8.40391e-19 0.0240928 2.84273e-19 0.115305)
(0.293107 0.0132595 -9.49027e-19 0.0313612 7.5173e-19 0.128892)
(0.217166 -0.0178996 -2.50799e-19 0.0196378 2.6343e-19 0.0938377)
(0.236474 -0.0094192 -1.79886e-20 0.0255695 8.78342e-20 0.103932)
(0.252093 0.00102754 1.96422e-19 0.0229668 4.59186e-19 0.109139)
(0.276133 0.0145806 2.53478e-19 0.0294108 -4.64122e-19 0.121334)
(0.207143 -0.0196686 7.0114e-20 0.0198089 -4.11104e-19 0.0899083)
(0.223241 -0.010313 -5.55947e-19 0.0248213 -8.52426e-20 0.0983514)
(0.236715 0.00119455 3.63007e-19 0.0225015 -8.00396e-19 0.102813)
(0.257756 0.0160514 4.21633e-19 0.0280216 2.0484e-19 0.113439)
(0.196625 -0.0213736 2.3454e-19 0.0206459 -9.67596e-20 0.0860469)
(0.209187 -0.0109685 1.0667e-19 0.0247204 8.75593e-19 0.0927003)
(0.220342 0.00169385 -4.43609e-19 0.0227334 4.23079e-19 0.0963675)
(0.238296 0.0176841 9.38849e-20 0.0272653 -1.95014e-19 0.105363)
(0.185434 -0.0230885 -6.3957e-19 0.0221621 6.52717e-19 0.082187)
(0.194103 -0.0114909 8.86496e-19 0.0253151 -8.02214e-20 0.0869147)
(0.202884 0.00252878 2.42901e-19 0.0236854 -1.33802e-18 0.0897752)
(0.218035 0.0195103 1.10533e-19 0.0272194 -4.13405e-19 0.0972502)
(0.173699 -0.024962 5.54251e-19 0.0245088 -3.11743e-19 0.078441)
(0.177912 -0.0120632 -1.68911e-19 0.0268456 1.38529e-18 0.0810598)
(0.184374 0.00376527 -7.95514e-19 0.0255777 -1.55542e-18 0.0831374)
(0.197512 0.0216306 2.57791e-19 0.0280937 7.08497e-19 0.0894001)
(0.161345 -0.0271994 -6.22269e-20 0.0278517 4.76782e-19 0.0748451)
(0.159593 -0.0129086 -2.32024e-19 0.0292555 6.63775e-19 0.0747045)
(0.163885 0.00551793 8.22989e-19 0.0283335 9.6207e-20 0.0760524)
(0.177006 0.0242039 -5.15374e-19 0.0301001 -6.52595e-20 0.0820087)
(0.149967 -0.0301635 -7.69824e-21 0.032975 -1.87012e-19 0.0723508)
(0.139587 -0.0143116 6.36092e-19 0.033294 -1.73365e-18 0.0683253)
(0.141973 0.0079973 3.41788e-19 0.0326892 1.01134e-18 0.0690376)
(0.158489 0.027571 -3.11393e-21 0.0340728 1.63681e-19 0.0761989)
(0.138041 -0.0333469 8.51954e-20 0.0394453 8.09982e-20 0.0701751)
(0.112948 -0.015761 2.58846e-19 0.0356249 -5.37266e-19 0.0586083)
(0.113779 0.0106949 4.77934e-20 0.035299 4.664e-19 0.0588102)
(0.140727 0.0312285 2.11532e-19 0.0396001 2.32533e-19 0.0713117)
(0.132767 -0.034479 5.35528e-19 0.0452024 1.54074e-19 0.0703745)
(0.0907038 -0.0156423 7.88718e-20 0.0332833 6.49659e-19 0.0487791)
(0.090528 0.0121495 -5.89672e-19 0.033242 6.59669e-19 0.0486923)
(0.131639 0.0330043 -7.0991e-19 0.0447679 -8.52737e-19 0.0697497)
(0.105757 -0.0239951 9.12167e-20 0.0189627 2.40843e-19 0.0490775)
(0.0532025 -0.0101783 -7.5659e-20 -0.0179313 9.52758e-19 0.0132945)
(0.0527628 0.00898327 -3.07875e-19 -0.0176474 1.43912e-19 0.0132322)
(0.103432 0.023397 2.64384e-19 0.0183284 3.12315e-19 0.0478935)
)
;

boundaryField
{
    plateFix
    {
        type            calculated;
        value           nonuniform List<symmTensor> 4((6.17894 0.67393 -1.44086e-21 2.42269 5.93361e-20 3.43842) (1.48237 -0.553237 6.29676e-24 0.711398 5.48295e-23 0.876343) (-1.32332 -0.410419 8.14612e-23 -0.464641 -7.11145e-23 -0.716339) (-6.32752 1.06575 -1.05747e-21 -2.02128 -8.32211e-20 -3.34189));
    }
    plate
    {
        type            calculated;
        value           nonuniform List<symmTensor> 
168
(
(4.8998 0.00111155 -3.24707e-22 0.477219 -3.94115e-20 2.14872)
(-4.6785 -0.00192449 -9.89061e-23 0.488914 3.9532e-20 -1.67803)
(5.09814 0.00118566 1.59774e-21 0.477962 2.78986e-22 2.22828)
(-4.91189 -0.00184931 1.53618e-21 0.489641 -4.57663e-20 -1.77117)
(5.30787 0.00163345 -3.11418e-21 0.478809 8.49326e-20 2.31243)
(-5.17631 -0.002152 -5.59015e-21 0.490479 -6.42322e-24 -1.87671)
(5.37503 0.00240507 1.10971e-21 0.479611 -4.30297e-20 2.33958)
(-5.26624 -0.00280368 4.43444e-21 0.49128 1.14224e-24 -1.91241)
(5.40137 0.00347262 -1.13386e-21 0.480283 -3.22511e-25 2.35036)
(-5.31227 -0.00380658 -3.7351e-22 0.491956 4.24345e-20 -1.93058)
(5.38121 0.00473792 -5.7622e-22 0.480754 -3.27279e-20 2.34248)
(-5.30426 -0.00504172 1.1756e-22 0.492438 -3.87843e-20 -1.92719)
(5.33883 0.00613627 -1.04301e-21 0.480988 3.39691e-20 2.32562)
(-5.27206 -0.00643897 5.10137e-22 0.492689 5.0719e-21 -1.91421)
(5.27959 0.00760662 5.48826e-21 0.480972 -4.0625e-21 2.30193)
(-5.22089 -0.00792842 -1.08514e-21 0.492697 -2.89401e-20 -1.89373)
(5.21035 0.00910711 -5.84622e-21 0.480703 2.02741e-22 2.27413)
(-5.1584 -0.00946329 -4.80065e-21 0.492458 2.85829e-20 -1.86882)
(5.13368 0.0106076 6.60422e-21 0.480185 2.20095e-20 2.24327)
(-5.08696 -0.0110091 1.09047e-20 0.491977 2.7155e-20 -1.84042)
(5.05135 0.0120893 -5.05908e-21 0.479421 -2.48716e-20 2.21005)
(-5.00823 -0.0125443 -6.92222e-21 0.491257 -4.45803e-20 -1.8092)
(4.96398 0.0135416 -6.14921e-21 0.478413 -2.44126e-20 2.17472)
(-4.92265 -0.0140557 -3.24659e-21 0.4903 2.16321e-20 -1.77533)
(4.87177 0.0149596 1.8362e-20 0.477155 3.72954e-20 2.13735)
(-4.83034 -0.015537 2.3324e-21 0.489101 -1.37552e-22 -1.73887)
(4.77459 0.0163422 -1.43182e-20 0.475636 -7.09476e-23 2.09789)
(-4.73119 -0.0169853 -2.49761e-22 0.487651 -4.30887e-21 -1.69976)
(4.6722 0.0176895 -1.0869e-20 0.473836 -1.24083e-20 2.05624)
(-4.62504 -0.0184001 4.26822e-21 0.485931 1.1444e-20 -1.65796)
(4.56433 0.0190016 1.40674e-20 0.471727 1.29212e-20 2.01227)
(-4.5117 -0.0197803 1.68127e-20 0.483915 -2.30435e-20 -1.6134)
(4.45068 0.0202766 -1.44406e-20 0.469275 -1.70477e-20 1.96586)
(-4.39101 -0.0211236 -1.70181e-21 0.481569 8.33978e-23 -1.56603)
(4.33099 0.0215092 5.8172e-20 0.466436 5.08109e-21 1.91688)
(-4.26279 -0.0224242 -2.24162e-20 0.478852 4.8455e-21 -1.51579)
(4.2051 0.0226922 -4.85339e-20 0.463168 -1.7385e-20 1.86524)
(-4.12691 -0.0236742 4.96362e-21 0.475722 -8.97179e-21 -1.46265)
(4.0728 0.0238065 -7.22989e-20 0.459404 1.85817e-20 1.81085)
(-3.98325 -0.0248545 4.57169e-20 0.472114 -4.60891e-23 -1.40659)
(3.93423 0.024852 7.03255e-20 0.455148 -5.0089e-21 1.75376)
(-3.83178 -0.0259643 -3.86989e-20 0.468033 -7.57588e-21 -1.3476)
(3.78894 0.0257521 1.47399e-20 0.450193 1.11298e-20 1.69369)
(-3.67239 -0.0269287 -3.45589e-20 0.463274 -1.57058e-22 -1.2857)
(3.63268 0.0267509 -1.78773e-20 0.444802 -9.55306e-21 1.62907)
(-3.49941 -0.0279852 6.22281e-20 0.45809 -1.0958e-20 -1.21854)
(3.47048 0.0277425 -6.82009e-20 0.43815 -7.77749e-23 1.56157)
(-3.31919 -0.0290198 -1.8675e-19 0.451689 -1.05394e-20 -1.14896)
(3.31282 0.0285326 -3.0008e-20 0.431462 6.59223e-21 1.49586)
(-3.14253 -0.0298468 1.21886e-19 0.44524 9.36e-21 -1.08083)
(3.15957 0.0292378 1.80083e-19 0.424246 6.35855e-22 1.43171)
(-2.97007 -0.0305766 -4.8302e-20 0.438272 -9.14685e-21 -1.01459)
(3.01086 0.0298155 3.92455e-20 0.416814 1.57533e-22 1.36929)
(-2.80157 -0.0311699 -1.03133e-19 0.431082 -1.81944e-20 -0.950026)
(2.86661 0.0303123 1.10634e-20 0.408991 -8.32367e-21 1.30849)
(-2.63725 -0.0316724 -4.58769e-20 0.423499 8.95191e-21 -0.887295)
(2.72691 0.0307126 1.37896e-19 0.400885 2.24479e-22 1.2494)
(-2.47711 -0.0320701 9.17692e-20 0.415628 -1.69212e-20 -0.82635)
(2.59172 0.0310343 -2.22028e-19 0.392445 7.57652e-21 1.19198)
(-2.32125 -0.0323811 2.25934e-20 0.407417 2.94837e-22 -0.767253)
(2.46107 0.0312735 -5.17154e-20 0.383709 5.98965e-21 1.13626)
(-2.16969 -0.0326026 -1.59248e-20 0.398901 7.98262e-21 -0.71)
(2.33493 0.0314367 -1.16084e-19 0.374666 7.41138e-21 1.08221)
(-2.02247 -0.0327416 7.62451e-20 0.390068 -1.36854e-20 -0.654614)
(2.21329 0.0315233 -1.96747e-19 0.365333 -1.31312e-20 1.02984)
(-1.87963 -0.0327985 8.46524e-21 0.380934 -1.92004e-22 -0.6011)
(2.09611 0.0315353 1.40011e-19 0.355714 -3.1713e-21 0.97915)
(-1.74119 -0.0327757 -2.75194e-19 0.371502 -1.64437e-20 -0.549467)
(1.98336 0.0314723 -4.74088e-20 0.345823 -5.62594e-22 0.930117)
(-1.60717 -0.0326736 7.13094e-20 0.361782 3.31089e-22 -0.499718)
(1.87499 0.0313343 3.00768e-19 0.335669 -2.57966e-21 0.882731)
(-1.47758 -0.032493 -1.54033e-19 0.351785 3.20712e-21 -0.451854)
(1.77095 0.0311205 -9.49775e-20 0.325267 3.22511e-21 0.836978)
(-1.35244 -0.0322336 6.40959e-20 0.341523 -9.53583e-21 -0.405876)
(1.67119 0.03083 -1.6364e-19 0.314634 2.54872e-21 0.792842)
(-1.23176 -0.0318951 1.51225e-19 0.331011 -8.52358e-21 -0.361781)
(1.57563 0.0304616 -1.71023e-21 0.303787 -2.03036e-22 0.750304)
(-1.11553 -0.031477 2.74083e-20 0.320265 3.40706e-21 -0.319565)
(1.48422 0.0300143 2.79448e-19 0.292748 -4.45014e-21 0.709346)
(-1.00377 -0.0309784 -2.07119e-19 0.309303 -3.83806e-21 -0.279222)
(1.39689 0.0294868 -5.64524e-20 0.281539 -8.15276e-21 0.66995)
(-0.896484 -0.0303987 -2.15465e-19 0.298148 6.28716e-21 -0.240746)
(1.31356 0.028878 -6.62302e-20 0.270185 2.66851e-21 0.632097)
(-0.793672 -0.0297371 2.83805e-19 0.286823 -1.92458e-21 -0.204129)
(1.23415 0.0281871 1.06458e-19 0.258714 -4.19649e-21 0.595766)
(-0.695341 -0.0289931 -3.28683e-19 0.275353 7.35214e-21 -0.169363)
(1.15859 0.0274135 9.38432e-20 0.247156 -1.23009e-21 0.56094)
(-0.601495 -0.0281661 1.43956e-20 0.263767 2.24389e-22 -0.136437)
(1.0868 0.0265568 2.76083e-19 0.235542 -1.33673e-21 0.527599)
(-0.512139 -0.0272562 6.8078e-20 0.252094 2.85703e-21 -0.105343)
(1.0187 0.0256172 -1.674e-19 0.223907 1.81837e-21 0.495724)
(-0.427278 -0.0262635 -2.27529e-19 0.240366 -1.31068e-21 -0.0760694)
(0.954206 0.0245951 1.03099e-18 0.212284 1.60674e-21 0.465297)
(-0.346917 -0.0251887 2.94495e-19 0.228618 -1.34136e-21 -0.0486041)
(0.893238 0.0234915 -2.39326e-19 0.200711 -2.71671e-21 0.436301)
(-0.27106 -0.0240327 -3.07479e-19 0.216884 -1.18426e-21 -0.022935)
(0.835715 0.022308 1.09491e-19 0.189225 5.3384e-21 0.408717)
(-0.199709 -0.0227971 -6.06895e-19 0.205201 -4.41876e-21 0.00095147)
(0.781554 0.0210464 2.14278e-19 0.177864 8.21834e-22 0.382527)
(-0.132866 -0.0214838 1.74747e-19 0.193607 6.62654e-22 0.0230699)
(0.730672 0.0197091 -3.04349e-19 0.166666 1.20671e-21 0.357714)
(-0.0705272 -0.0200954 1.79886e-19 0.182138 4.54407e-21 0.0434364)
(0.682984 0.0182992 -5.16422e-19 0.155669 4.33974e-22 0.334259)
(-0.0126881 -0.0186347 2.34027e-19 0.170834 -2.69947e-21 0.0620684)
(0.638403 0.0168199 3.19838e-19 0.14491 3.40884e-21 0.312142)
(0.0406625 -0.0171053 2.66295e-19 0.159731 2.77022e-21 0.0789854)
(0.596841 0.015275 7.47736e-20 0.134427 -1.7294e-21 0.291342)
(0.089541 -0.0155109 -4.54104e-19 0.148869 -1.76617e-21 0.0942091)
(0.558206 0.0136686 -8.58792e-20 0.124254 -1.62658e-21 0.271836)
(0.133971 -0.0138558 8.65168e-20 0.138283 1.75085e-21 0.107764)
(0.522403 0.0120052 -1.03338e-19 0.114426 8.03919e-22 0.253601)
(0.173985 -0.0121447 3.47263e-20 0.128008 -1.19303e-21 0.119676)
(0.489332 0.0102894 -3.66173e-19 0.104974 -1.4326e-21 0.236609)
(0.209625 -0.0103823 4.74126e-19 0.11808 1.93308e-21 0.129977)
(0.458889 0.00852608 -7.39742e-20 0.0959299 -2.25775e-22 0.220831)
(0.240941 -0.00857387 -7.07376e-19 0.10853 -2.69662e-21 0.138699)
(0.430962 0.00672019 2.62786e-19 0.08732 9.71616e-22 0.206233)
(0.268 -0.00672458 5.80557e-19 0.0993886 2.7819e-21 0.145882)
(0.405432 0.00487673 -1.86636e-19 0.0791701 -7.32338e-22 0.192777)
(0.290878 -0.00483976 -5.29442e-19 0.0906838 -2.52142e-21 0.151566)
(0.382174 0.00300061 -6.14145e-19 0.0715028 -2.87295e-21 0.180422)