/*--------------------------------*- C++ -*----------------------------------*\
| =========                 |                                                 |
| \\      /  F ield         | OpenFOAM Extend Project: Open source CFD        |
|  \\    /   O peration     | Version:  1.6-ext                               |
|   \\  /    A nd           | Web:      www.extend-project.de                 |
|    \\/     M anipulation  |                                                 |
\*---------------------------------------------------------------------------*/
FoamFile
{
    version     2.0;
    format      ascii;
    class       volScalarField;
    location    "1.2";
    object      sigmaEq;
}
// * * * * * * * * * * * * * * * * * * * * * * * * * * * * * * * * * * * * * //

dimensions      [1 -1 -2 0 0 0 0];

internalField   nonuniform List<scalar> 
328
(
3.51308
0.957471
0.908356
4.10773
3.74595
1.04434
1.31608
4.35662
3.97248
1.21885
1.70487
4.63441
4.06934
1.31908
1.92619
4.76576
4.11398
1.37068
2.05725
4.83947
4.10903
1.38036
2.1153
4.85344
4.07851
1.36909
2.13369
4.83636
4.0305
1.34631
2.12642
4.79731
3.97262
1.31928
2.10549
4.74544
3.90815
1.29098
2.07662
4.68449
3.83908
1.26281
2.04358
4.61677
3.76611
1.23496
2.0081
4.54308
3.68949
1.20721
1.97104
4.46372
3.60911
1.17916
1.93262
4.37861
3.52475
1.15047
1.89276
4.28759
3.43617
1.12086
1.85121
4.19046
3.34312
1.09012
1.80765
4.08701
3.2454
1.05816
1.76174
3.97701
3.14289
1.0249
1.71316
3.86028
3.03548
0.990323
1.66165
3.73666
2.92326
0.954479
1.60701
3.6061
2.80604
0.917288
1.54901
3.46834
2.67992
0.876701
1.48487
3.31863
2.54995
0.837065
1.41806
3.16186
2.42394
0.799349
1.35227
3.00809
2.30207
0.763341
1.28731
2.85742
2.1842
0.728934
1.22321
2.70985
2.07038
0.696114
1.16
2.56546
1.96062
0.664851
1.09772
2.42431
1.85491
0.635123
1.03643
2.28644
1.75325
0.606902
0.976171
2.15192
1.65561
0.580155
0.916975
2.02076
1.56198
0.554848
0.858889
1.89301
1.47231
0.530942
0.801954
1.7687
1.38657
0.508398
0.746215
1.64784
1.3047
0.487172
0.69172
1.53046
1.22665
0.46722
0.638524
1.41658
1.15235
0.448495
0.586686
1.30623
1.08172
0.43095
0.536275
1.19943
1.0147
0.41454
0.487371
1.0962
0.951206
0.399217
0.440071
0.996553
0.891141
0.384934
0.394492
0.900531
0.834419
0.371647
0.350783
0.808157
0.780946
0.359311
0.30914
0.719463
0.730625
0.347884
0.269826
0.634482
0.683358
0.337322
0.23321
0.553252
0.639044
0.327585
0.199828
0.475814
0.597583
0.318631
0.170463
0.402212
0.558873
0.310419
0.146242
0.332499
0.522813
0.302907
0.128607
0.266742
0.489301
0.296052
0.118924
0.205035
0.458238
0.289808
0.117594
0.147563
0.429521
0.284128
0.123441
0.0948061
0.403054
0.27896
0.134254
0.0489301
0.378736
0.27425
0.147837
0.0281693
0.356468
0.269942
0.162537
0.0554855
0.336152
0.265972
0.177251
0.090761
0.317687
0.262276
0.191271
0.123927
0.30097
0.258785
0.204141
0.153719
0.285894
0.255426
0.215566
0.179856
0.272348
0.252124
0.225353
0.202275
0.260214
0.248801
0.233377
0.220995
0.249366
0.245374
0.23956
0.236075
0.239665
0.241758
0.243857
0.247607
0.230965
0.237865
0.246253
0.255703
0.223102
0.233605
0.246752
0.260501
0.215904
0.228883
0.245374
0.262161
0.209183
0.223603
0.242156
0.26086
0.202739
0.217666
0.237147
0.256797
0.196366
0.210972
0.230405
0.250189
0.189852
0.203422
0.221996
0.241265
0.182989
0.194918
0.21199
0.230266
0.175578
0.185366
0.200458
0.21744
0.167441
0.174661
0.187451
0.203036
0.158453
0.162696
0.173
0.187325
0.148525
0.149274
0.157022
0.170569
0.137803
0.13419
0.139397
0.153226
0.126392
0.116746
0.119475
0.135675
0.115588
0.0970376
0.0973842
0.119555
0.104745
0.0739946
0.0721792
0.104647
0.0983024
0.0581506
0.0554811
0.0962724
0.086912
0.0642235
0.0630793
0.0851048
)
;

boundaryField
{
    plateFix
    {
        type            calculated;
        value           nonuniform List<scalar> 4(3.56207 1.18855 1.04398 4.24362);
    }
    plate
    {
        type            calculated;
        value           nonuniform List<scalar> 
168
(
3.86792
4.49447
4.04015
4.69851
4.22224
4.92968
4.28011
5.00874
4.3025
5.04944
4.28454
5.04287
4.24741
5.01502
4.1958
4.97043
4.13568
4.91578
4.06931
4.85311
3.99822
4.78389
3.92294
4.7085
3.84365
4.62704
3.76025
4.5394
3.67256
4.44544
3.58035
4.34496
3.4834
4.2378
3.38152
4.12376
3.27459
4.0027
3.1625
3.87445
3.04537
3.739
2.92298
3.59606
2.7914
3.44093
2.65572
3.27845
2.52402
3.11905
2.39662
2.96287
2.27337
2.80994
2.15433
2.66034
2.0395
2.51413
1.92888
2.37136
1.82247
2.23208
1.72025
2.09633
1.62219
1.96413
1.52827
1.83553
1.43843
1.71053
1.35264
1.58916
1.27082
1.47145
1.19292
1.35742
1.11886
1.24708
1.04857
1.14045
0.981972
1.03757
0.918968
0.938448
0.859473
0.843124
0.803392
0.751625
0.750627
0.663986
0.701079
0.580245
0.654647
0.500445
0.611228
0.424638
0.570718
0.352884
0.533014
0.285265
0.498011
0.22191
0.465604
0.163068
0.435687
0.109365
0.408154
0.0631378
0.382899
0.0373412
0.359816
0.0548532
0.338794
0.0880695
0.319724
0.121115
0.302493
0.151287
0.286983
0.177951
0.273073
0.200923
0.260636
0.220173
0.249538
0.235742
0.239634
0.24771
0.230773
0.25619
0.222792
0.261321
0.215518
0.263269
0.208765
0.262219
0.202339
0.258379
0.196041
0.251976
0.189668
0.243253
0.183018
0.232466
0.175905
0.21988
0.168161
0.205766
0.159673
0.190419
0.150358
0.174133
0.140358
0.157393
0.129718
0.140556
0.119625
0.12517
0.109687
0.111117
0.107315
0.106297
0.108096
0.0711361
0.0624121
0.0620441
0.0705684
0.106261
)
;
    }
    frontAndBackPlanes
    {
        type            empty;
    }
}


// ************************************************************************* //
