/*--------------------------------*- C++ -*----------------------------------*\
| =========                 |                                                 |
| \\      /  F ield         | OpenFOAM Extend Project: Open source CFD        |
|  \\    /   O peration     | Version:  1.6-ext                               |
|   \\  /    A nd           | Web:      www.extend-project.de                 |
|    \\/     M anipulation  |                                                 |
\*---------------------------------------------------------------------------*/
FoamFile
{
    version     2.0;
    format      ascii;
    class       volVectorField;
    location    "1.2";
    object      Usolid;
}
// * * * * * * * * * * * * * * * * * * * * * * * * * * * * * * * * * * * * * //

dimensions      [0 1 0 0 0 0 0];

internalField   nonuniform List<vector> 
328
(
(1.36966e-07 1.34502e-07 0)
(3.02377e-08 -4.6616e-08 0)
(-3.03923e-08 -3.23858e-08 0)
(-1.49263e-07 2.02811e-07 0)
(4.23884e-07 3.62675e-07 0)
(1.02694e-07 -5.66469e-08 0)
(-1.0849e-07 -1.51235e-08 0)
(-4.60429e-07 5.37808e-07 0)
(7.54762e-07 5.89184e-07 0)
(2.00238e-07 2.28916e-08 0)
(-2.26243e-07 9.01893e-08 0)
(-8.23288e-07 8.43752e-07 0)
(1.11483e-06 8.44663e-07 0)
(3.09363e-07 1.96527e-07 0)
(-3.64077e-07 2.86042e-07 0)
(-1.21891e-06 1.15583e-06 0)
(1.50577e-06 1.15895e-06 0)
(4.30184e-07 4.69783e-07 0)
(-5.23053e-07 5.77216e-07 0)
(-1.64999e-06 1.50943e-06 0)
(1.92429e-06 1.55855e-06 0)
(5.58839e-07 8.53767e-07 0)
(-6.97146e-07 9.74585e-07 0)
(-2.11258e-06 1.93527e-06 0)
(2.37041e-06 2.06877e-06 0)
(6.94944e-07 1.36283e-06 0)
(-8.85437e-07 1.49287e-06 0)
(-2.60701e-06 2.46214e-06 0)
(2.84379e-06 2.71465e-06 0)
(8.3776e-07 2.01551e-06 0)
(-1.08615e-06 2.1512e-06 0)
(-3.13304e-06 3.11764e-06 0)
(3.3449e-06 3.52242e-06 0)
(9.87486e-07 2.83408e-06 0)
(-1.29893e-06 2.97263e-06 0)
(-3.69141e-06 3.93001e-06 0)
(3.87432e-06 4.52052e-06 0)
(1.14435e-06 3.84494e-06 0)
(-1.52355e-06 3.98428e-06 0)
(-4.28293e-06 4.92922e-06 0)
(4.43281e-06 5.74065e-06 0)
(1.30878e-06 5.07874e-06 0)
(-1.76019e-06 5.21748e-06 0)
(-4.90858e-06 6.14806e-06 0)
(5.02114e-06 7.21855e-06 0)
(1.48115e-06 6.57078e-06 0)
(-2.00915e-06 6.70805e-06 0)
(-5.56935e-06 7.62306e-06 0)
(5.64006e-06 8.99472e-06 0)
(1.66181e-06 8.36147e-06 0)
(-2.27085e-06 8.49679e-06 0)
(-6.26614e-06 9.39524e-06 0)
(6.2902e-06 1.11151e-05 0)
(1.85101e-06 1.04968e-05 0)
(-2.54573e-06 1.06299e-05 0)
(-6.99973e-06 1.15109e-05 0)
(6.97204e-06 1.36319e-05 0)
(2.04893e-06 1.30289e-05 0)
(-2.83421e-06 1.31598e-05 0)
(-7.77074e-06 1.40223e-05 0)
(7.68587e-06 1.66039e-05 0)
(2.25562e-06 1.60169e-05 0)
(-3.13664e-06 1.61453e-05 0)
(-8.57959e-06 1.69883e-05 0)
(8.43172e-06 2.00976e-05 0)
(2.47106e-06 1.95271e-05 0)
(-3.45328e-06 1.96531e-05 0)
(-9.42642e-06 2.04754e-05 0)
(9.20935e-06 2.41876e-05 0)
(2.69511e-06 2.36343e-05 0)
(-3.78424e-06 2.37577e-05 0)
(-1.03111e-05 2.4558e-05 0)
(1.00182e-05 2.89575e-05 0)
(2.92755e-06 2.84221e-05 0)
(-4.12952e-06 2.85426e-05 0)
(-1.12331e-05 2.93196e-05 0)
(1.08573e-05 3.45006e-05 0)
(3.16803e-06 3.39838e-05 0)
(-4.48889e-06 3.41013e-05 0)
(-1.21916e-05 3.48535e-05 0)
(1.17252e-05 4.09208e-05 0)
(3.41608e-06 4.04233e-05 0)
(-4.86196e-06 4.05374e-05 0)
(-1.3185e-05 4.12634e-05 0)
(1.26203e-05 4.83333e-05 0)
(3.67115e-06 4.78558e-05 0)
(-5.2481e-06 4.79659e-05 0)
(-1.42117e-05 4.86643e-05 0)
(1.35749e-05 5.71902e-05 0)
(3.94242e-06 5.67342e-05 0)
(-5.66161e-06 5.68399e-05 0)
(-1.5309e-05 5.75079e-05 0)
(1.45472e-05 6.73825e-05 0)
(4.21781e-06 6.69484e-05 0)
(-6.08442e-06 6.70491e-05 0)
(-1.64294e-05 6.76852e-05 0)
(1.54714e-05 7.82521e-05 0)
(4.47881e-06 7.7839e-05 0)
(-6.48772e-06 7.79347e-05 0)
(-1.74963e-05 7.85393e-05 0)
(1.63488e-05 8.97655e-05 0)
(4.726e-06 8.93726e-05 0)
(-6.87184e-06 8.94629e-05 0)
(-1.85111e-05 9.00367e-05 0)
(1.71809e-05 0.00010189 0)
(4.95994e-06 0.000101516 0)
(-7.23706e-06 0.000101601 0)
(-1.94747e-05 0.000102145 0)
(1.7969e-05 0.000114593 0)
(5.18119e-06 0.000114238 0)
(-7.5837e-06 0.000114318 0)
(-2.03885e-05 0.000114831 0)
(1.87146e-05 0.000127845 0)
(5.39033e-06 0.000127508 0)
(-7.91204e-06 0.000127582 0)
(-2.12535e-05 0.000128066 0)
(1.94191e-05 0.000141615 0)
(5.58792e-06 0.000141295 0)
(-8.2224e-06 0.000141363 0)
(-2.2071e-05 0.000141819 0)
(2.00841e-05 0.000155874 0)
(5.77453e-06 0.00015557 0)
(-8.51507e-06 0.000155632 0)
(-2.28421e-05 0.00015606 0)
(2.07108e-05 0.000170594 0)
(5.95073e-06 0.000170305 0)
(-8.79038e-06 0.000170361 0)
(-2.35681e-05 0.000170761 0)
(2.13009e-05 0.000185746 0)
(6.11709e-06 0.000185472 0)
(-9.04865e-06 0.000185522 0)
(-2.42501e-05 0.000185896 0)
(2.18557e-05 0.000201306 0)
(6.27417e-06 0.000201046 0)
(-9.2902e-06 0.00020109 0)
(-2.48893e-05 0.000201437 0)
(2.23766e-05 0.000217246 0)
(6.42252e-06 0.000217 0)
(-9.51536e-06 0.000217038 0)
(-2.54871e-05 0.00021736 0)
(2.28652e-05 0.000233544 0)
(6.56268e-06 0.000233309 0)
(-9.72446e-06 0.000233341 0)
(-2.60445e-05 0.000233638 0)
(2.33228e-05 0.000250173 0)
(6.69519e-06 0.000249951 0)
(-9.91786e-06 0.000249976 0)
(-2.65628e-05 0.000250249 0)
(2.37508e-05 0.000267113 0)
(6.82057e-06 0.000266901 0)
(-1.00959e-05 0.000266921 0)
(-2.70433e-05 0.00026717 0)
(2.41506e-05 0.000284339 0)
(6.93932e-06 0.000284139 0)
(-1.0259e-05 0.000284152 0)
(-2.74871e-05 0.000284379 0)
(2.45236e-05 0.000301833 0)
(7.05193e-06 0.000301642 0)
(-1.04074e-05 0.000301649 0)
(-2.78955e-05 0.000301854 0)
(2.48709e-05 0.000319572 0)
(7.15887e-06 0.00031939 0)
(-1.05416e-05 0.000319391 0)
(-2.82698e-05 0.000319575 0)
(2.51941e-05 0.000337538 0)
(7.26059e-06 0.000337365 0)
(-1.0662e-05 0.00033736 0)
(-2.86112e-05 0.000337523 0)
(2.54943e-05 0.000355712 0)
(7.35752e-06 0.000355546 0)
(-1.07689e-05 0.000355536 0)
(-2.8921e-05 0.000355679 0)
(2.57728e-05 0.000374075 0)
(7.45008e-06 0.000373918 0)
(-1.08629e-05 0.000373901 0)
(-2.92003e-05 0.000374025 0)
(2.60307e-05 0.000392612 0)
(7.53864e-06 0.000392462 0)
(-1.09443e-05 0.000392439 0)
(-2.94506e-05 0.000392545 0)
(2.62694e-05 0.000411306 0)
(7.62356e-06 0.000411162 0)
(-1.10136e-05 0.000411134 0)
(-2.9673e-05 0.000411222 0)
(2.64898e-05 0.000430142 0)
(7.70518e-06 0.000430004 0)
(-1.10713e-05 0.00042997 0)
(-2.98688e-05 0.000430041 0)
(2.66932e-05 0.000449105 0)
(7.78381e-06 0.000448972 0)
(-1.11179e-05 0.000448933 0)
(-3.00394e-05 0.000448988 0)
(2.68806e-05 0.000468181 0)
(7.85974e-06 0.000468053 0)
(-1.11539e-05 0.000468009 0)
(-3.0186e-05 0.000468049 0)
(2.7053e-05 0.000487358 0)
(7.93322e-06 0.000487234 0)
(-1.11797e-05 0.000487185 0)
(-3.03101e-05 0.000487211 0)
(2.72115e-05 0.000506623 0)
(8.00448e-06 0.000506504 0)
(-1.11961e-05 0.00050645 0)
(-3.04128e-05 0.000506461 0)
(2.7357e-05 0.000525965 0)
(8.07373e-06 0.000525849 0)
(-1.12035e-05 0.000525791 0)
(-3.04955e-05 0.00052579 0)
(2.74906e-05 0.000545374 0)
(8.14115e-06 0.000545262 0)
(-1.12025e-05 0.000545199 0)
(-3.05597e-05 0.000545186 0)
(2.7613e-05 0.000564839 0)
(8.20689e-06 0.00056473 0)
(-1.11937e-05 0.000564664 0)
(-3.06066e-05 0.000564639 0)
(2.77252e-05 0.000584352 0)
(8.27108e-06 0.000584246 0)
(-1.11777e-05 0.000584176 0)
(-3.06376e-05 0.000584141 0)
(2.78279e-05 0.000603904 0)
(8.33382e-06 0.0006038 0)
(-1.11552e-05 0.000603727 0)
(-3.0654e-05 0.000603682 0)
(2.7922e-05 0.000623488 0)
(8.39519e-06 0.000623387 0)
(-1.11268e-05 0.00062331 0)
(-3.06572e-05 0.000623257 0)
(2.80083e-05 0.000643096 0)
(8.45523e-06 0.000642997 0)
(-1.10931e-05 0.000642918 0)
(-3.06486e-05 0.000642857 0)
(2.80874e-05 0.000662724 0)
(8.51398e-06 0.000662627 0)
(-1.10548e-05 0.000662544 0)
(-3.06295e-05 0.000662477 0)
(2.816e-05 0.000682364 0)
(8.57144e-06 0.000682269 0)
(-1.10125e-05 0.000682184 0)
(-3.06013e-05 0.000682111 0)
(2.82267e-05 0.000702013 0)
(8.62758e-06 0.000701919 0)
(-1.0967e-05 0.000701833 0)
(-3.05651e-05 0.000701754 0)
(2.82881e-05 0.000721667 0)
(8.68237e-06 0.000721574 0)
(-1.09189e-05 0.000721486 0)
(-3.05224e-05 0.000721403 0)
(2.83448e-05 0.000741321 0)
(8.73574e-06 0.000741229 0)
(-1.08688e-05 0.00074114 0)
(-3.04744e-05 0.000741053 0)
(2.83972e-05 0.000760972 0)
(8.7876e-06 0.000760882 0)
(-1.08174e-05 0.000760793 0)
(-3.04223e-05 0.000760703 0)
(2.84457e-05 0.00078062 0)
(8.83783e-06 0.000780531 0)
(-1.07654e-05 0.000780441 0)
(-3.03674e-05 0.000780349 0)
(2.84908e-05 0.000800261 0)
(8.8863e-06 0.000800173 0)
(-1.07134e-05 0.000800083 0)
(-3.03107e-05 0.000799989 0)
(2.85327e-05 0.000819894 0)
(8.93286e-06 0.000819808 0)
(-1.06619e-05 0.000819718 0)
(-3.02533e-05 0.000819624 0)
(2.85716e-05 0.000839519 0)
(8.97731e-06 0.000839434 0)
(-1.06117e-05 0.000839345 0)
(-3.01963e-05 0.000839251 0)
(2.86078e-05 0.000859136 0)
(9.01946e-06 0.000859052 0)
(-1.05633e-05 0.000858963 0)
(-3.01407e-05 0.00085887 0)
(2.86414e-05 0.000878743 0)
(9.05907e-06 0.000878661 0)
(-1.05173e-05 0.000878574 0)
(-3.00873e-05 0.000878482 0)
(2.86723e-05 0.000898342 0)
(9.09588e-06 0.000898261 0)
(-1.04741e-05 0.000898176 0)
(-3.00369e-05 0.000898086 0)
(2.87005e-05 0.000917934 0)
(9.12963e-06 0.000917854 0)
(-1.04343e-05 0.000917771 0)
(-2.99903e-05 0.000917683 0)
(2.8726e-05 0.000937518 0)
(9.16e-06 0.00093744 0)
(-1.03985e-05 0.00093736 0)
(-2.99482e-05 0.000937275 0)
(2.87484e-05 0.000957096 0)
(9.18667e-06 0.00095702 0)
(-1.0367e-05 0.000956943 0)
(-2.99111e-05 0.000956861 0)
(2.87676e-05 0.000976668 0)
(9.20926e-06 0.000976596 0)
(-1.03402e-05 0.000976521 0)
(-2.98796e-05 0.000976443 0)
(2.87832e-05 0.000996237 0)
(9.22739e-06 0.000996167 0)
(-1.03188e-05 0.000996096 0)
(-2.98539e-05 0.000996022 0)
(2.8795e-05 0.0010158 0)
(9.24054e-06 0.00101574 0)
(-1.0303e-05 0.00101567 0)
(-2.98346e-05 0.0010156 0)
(2.88024e-05 0.00103536 0)
(9.24816e-06 0.0010353 0)
(-1.02936e-05 0.00103524 0)
(-2.98218e-05 0.00103518 0)
(2.88052e-05 0.00105492 0)
(9.24913e-06 0.00105487 0)
(-1.02914e-05 0.00105481 0)
(-2.98157e-05 0.00105475 0)
(2.88036e-05 0.00107448 0)
(9.24287e-06 0.00107443 0)
(-1.02971e-05 0.00107438 0)
(-2.98157e-05 0.00107433 0)
(2.87963e-05 0.00109405 0)
(9.22661e-06 0.001094 0)
(-1.03132e-05 0.00109395 0)
(-2.98226e-05 0.0010939 0)
(2.8789e-05 0.00111363 0)
(9.20767e-06 0.00111357 0)
(-1.03321e-05 0.00111352 0)
(-2.98302e-05 0.00111346 0)
)
;

boundaryField
{
    plateFix
    {
        type            fixedDisplacement;
        value           uniform (0 0 0);
    }
    plate
    {
        type            solidTraction;
        nonLinear       updatedLagrangian;
        traction        uniform (0 0 0);
        pressure        uniform 0;
        value           nonuniform List<vector> 
168
(
(7.47354e-07 5.5525e-07 -6.35334e-26)
(-1.06193e-06 7.40486e-07 -8.70033e-26)
(9.52936e-07 8.0303e-07 1.51958e-25)
(-1.20981e-06 1.09902e-06 -5.68086e-26)
(1.27647e-06 1.05043e-06 -9.03824e-27)
(-1.49572e-06 1.43146e-06 1.22192e-25)
(1.68889e-06 1.31255e-06 1.71033e-27)
(-1.89312e-06 1.75261e-06 4.63711e-26)
(2.17582e-06 1.62944e-06 -6.61616e-26)
(-2.38552e-06 2.11085e-06 -7.43133e-26)
(2.72025e-06 2.02703e-06 7.81627e-26)
(-2.95073e-06 2.53589e-06 2.59815e-27)
(3.31339e-06 2.53308e-06 -1.19552e-25)
(-3.57706e-06 3.05949e-06 1.04427e-26)
(3.94936e-06 3.17315e-06 2.79993e-26)
(-4.25621e-06 3.70979e-06 -6.5331e-26)
(4.62565e-06 3.97415e-06 -5.89394e-26)
(-4.98421e-06 4.51578e-06 1.04799e-25)
(5.34137e-06 4.96481e-06 8.17436e-26)
(-5.75911e-06 5.50766e-06 -5.82829e-26)
(6.0968e-06 6.17698e-06 -5.07992e-26)
(-6.58049e-06 6.71839e-06 -9.45179e-27)
(6.89267e-06 7.64647e-06 8.75907e-26)
(-7.44866e-06 8.18454e-06 3.51027e-26)
(7.72994e-06 9.41381e-06 -7.19565e-26)
(-8.36429e-06 9.94715e-06 1.50814e-26)
(8.60951e-06 1.1525e-05 -2.10061e-27)
(-9.32812e-06 1.20525e-05 -3.98522e-26)
(9.53209e-06 1.4032e-05 1.58246e-26)
(-1.03408e-05 1.45528e-05 1.62119e-26)
(1.04981e-05 1.69938e-05 1.38117e-27)
(-1.14028e-05 1.75069e-05 -2.64153e-26)
(1.15077e-05 2.04769e-05 4.11516e-26)
(-1.25143e-05 2.09813e-05 2.03767e-26)
(1.25605e-05 2.45556e-05 -1.61433e-26)
(-1.36749e-05 2.50504e-05 -6.13547e-26)
(1.36557e-05 2.93138e-05 -7.16675e-27)
(-1.48842e-05 2.97976e-05 4.53106e-26)
(1.47922e-05 3.48447e-05 -2.86107e-27)
(-1.61407e-05 3.53162e-05 1.11645e-26)
(1.5968e-05 4.12522e-05 -5.56717e-28)
(-1.74427e-05 4.17099e-05 1.39435e-27)
(1.71807e-05 4.86515e-05 8.50335e-27)
(-1.87875e-05 4.90937e-05 2.42259e-27)
(1.84738e-05 5.74942e-05 -4.29834e-27)
(-2.0224e-05 5.79186e-05 -2.01513e-26)
(1.97924e-05 6.7672e-05 1.64348e-26)
(-2.16912e-05 6.80763e-05 2.58284e-26)
(2.1046e-05 7.85275e-05 -5.35389e-26)
(-2.3088e-05 7.89112e-05 -4.36138e-26)
(2.22363e-05 9.00273e-05 5.09411e-26)
(-2.44161e-05 9.03896e-05 3.78151e-27)
(2.33651e-05 0.000102139 3.60706e-26)
(-2.5677e-05 0.000102479 -7.26784e-26)
(2.44344e-05 0.00011483 -4.88524e-26)
(-2.68722e-05 0.000115148 1.13221e-25)
(2.54459e-05 0.000128069 4.51983e-26)
(-2.80035e-05 0.000128364 -2.39201e-26)
(2.64016e-05 0.000141828 -4.65003e-26)
(-2.90724e-05 0.000142099 2.50083e-26)
(2.73034e-05 0.000156076 -2.76073e-27)
(-3.00806e-05 0.000156324 1.55245e-26)
(2.81532e-05 0.000170784 -7.29202e-27)
(-3.10297e-05 0.000171009 -6.65932e-26)
(2.89528e-05 0.000185927 -2.26742e-26)
(-3.19214e-05 0.000186127 -2.79724e-26)
(2.97042e-05 0.000201477 -1.98478e-26)
(-3.27573e-05 0.000201652 -6.94821e-26)
(3.04093e-05 0.000217408 -2.94504e-26)
(-3.35391e-05 0.000217559 4.80886e-27)
(3.10699e-05 0.000233697 4.89345e-26)
(-3.42684e-05 0.000233823 1.00088e-25)
(3.16878e-05 0.000250318 1.589e-25)
(-3.4947e-05 0.00025042 2.1086e-26)
(3.2265e-05 0.000267249 -4.5521e-26)
(-3.55765e-05 0.000267327 1.18205e-25)
(3.28032e-05 0.000284469 -6.34704e-26)
(-3.61585e-05 0.000284521 -1.48092e-25)
(3.33042e-05 0.000301955 1.2538e-25)
(-3.66947e-05 0.000301983 9.4976e-26)
(3.37698e-05 0.000319688 7.74215e-26)
(-3.71869e-05 0.000319692 -4.85223e-26)
(3.42016e-05 0.000337647 -1.96803e-25)
(-3.76365e-05 0.000337627 -4.37709e-26)
(3.46014e-05 0.000355815 7.83789e-26)
(-3.80455e-05 0.000355771 -4.66245e-26)
(3.49709e-05 0.000374173 -1.08883e-25)
(-3.84153e-05 0.000374106 -5.06855e-26)
(3.53116e-05 0.000392705 -4.75119e-26)
(-3.87477e-05 0.000392615 2.39838e-25)
(3.56252e-05 0.000411394 9.61767e-26)
(-3.90445e-05 0.000411281 -2.9007e-26)
(3.59133e-05 0.000430225 -9.41918e-26)
(-3.93072e-05 0.000430091 -1.12269e-25)
(3.61772e-05 0.000449184 -3.9981e-26)
(-3.95376e-05 0.000449028 -1.73284e-25)
(3.64185e-05 0.000468256 -2.22794e-26)
(-3.97373e-05 0.00046808 -8.04793e-26)
(3.66387e-05 0.000487429 1.03774e-26)
(-3.99082e-05 0.000487233 -1.77695e-25)
(3.68391e-05 0.000506691 -1.20647e-25)
(-4.00519e-05 0.000506476 2.68059e-25)
(3.70212e-05 0.00052603 -1.38596e-25)
(-4.01702e-05 0.000525797 7.51163e-28)
(3.71862e-05 0.000545436 2.1444e-25)
(-4.02648e-05 0.000545186 2.87415e-25)
(3.73353e-05 0.000564899 -2.1691e-25)
(-4.03373e-05 0.000564632 -2.44614e-25)
(3.747e-05 0.00058441 1.23277e-26)
(-4.03897e-05 0.000584128 1.47216e-25)
(3.75912e-05 0.00060396 1.16251e-25)
(-4.04234e-05 0.000603664 -3.43151e-25)
(3.77003e-05 0.000623542 -7.2455e-25)
(-4.04404e-05 0.000623233 8.29062e-26)
(3.77983e-05 0.000643149 2.20203e-25)
(-4.04423e-05 0.000642829 -1.59368e-25)
(3.78862e-05 0.000662774 -3.01104e-25)
(-4.04307e-05 0.000662444 5.82469e-25)
(3.79651e-05 0.000682414 3.68501e-25)
(-4.04074e-05 0.000682075 -2.86802e-25)
(3.80359e-05 0.000702061 6.6146e-28)
(-4.03741e-05 0.000701715 -3.14615e-25)
(3.80995e-05 0.000721714 1.44569e-25)
(-4.03322e-05 0.000721361 6.87141e-26)
(3.81568e-05 0.000741367 1.77542e-25)
(-4.02834e-05 0.00074101 -1.76863e-25)
(3.82085e-05 0.000761018 -1.41943e-25)
(-4.02292e-05 0.000760657 -4.30513e-25)
(3.82553e-05 0.000780664 -3.23309e-25)
(-4.01711e-05 0.000780302 6.31159e-25)
(3.82979e-05 0.000800304 -8.77033e-26)
(-4.01105e-05 0.000799942 5.18763e-26)
(3.83368e-05 0.000819937 1.45459e-25)
(-4.00487e-05 0.000819576 2.84889e-25)
(3.83725e-05 0.000839562 -2.30849e-25)
(-3.9987e-05 0.000839203 3.88383e-25)
(3.84053e-05 0.000859177 5.90682e-25)
(-3.99265e-05 0.000858822 2.90101e-25)
(3.84355e-05 0.000878784 -7.27962e-25)
(-3.98683e-05 0.000878435 2.17666e-25)
(3.84633e-05 0.000898383 2.02653e-25)
(-3.98134e-05 0.00089804 -2.50745e-25)
(3.84888e-05 0.000917973 2.04498e-25)
(-3.97626e-05 0.000917639 -7.60553e-25)
(3.85119e-05 0.000937556 2.60938e-25)
(-3.97167e-05 0.000937231 4.63585e-25)
(3.85325e-05 0.000957133 -4.14836e-25)
(-3.96763e-05 0.000956819 -2.03925e-25)
(3.85504e-05 0.000976704 -8.48043e-26)
(-3.96419e-05 0.000976403 1.96903e-25)
(3.85652e-05 0.000996271 6.3859e-25)
(-3.9614e-05 0.000995985 4.1761e-25)
(3.85765e-05 0.00101583 -3.06902e-25)
(-3.95929e-05 0.00101556 -7.06411e-25)
(3.85839e-05 0.0010354 4.7558e-25)
(-3.95787e-05 0.00103514 6.12015e-26)
(3.85871e-05 0.00105495 -1.81607e-25)
(-3.95715e-05 0.00105472 -1.65358e-25)
(3.85876e-05 0.00107451 7.87181e-26)
(-3.95695e-05 0.0010743 -2.32904e-25)
(3.85879e-05 0.00109407 1.51709e-25)
(-3.95694e-05 0.00109388 8.49836e-25)
(3.86031e-05 0.00111365 2.40705e-25)
(2.87825e-05 0.00112345 -9.21966e-26)
(9.19856e-06 0.00112336 7.17553e-26)
(-1.03413e-05 0.00112329 3.07829e-25)
(-2.98367e-05 0.00112321 -2.65797e-25)
(-3.95555e-05 0.00111344 -3.10465e-25)
)
;
    }
    frontAndBackPlanes
    {
        type            empty;
    }
}


// ************************************************************************* //
