/*--------------------------------*- C++ -*----------------------------------*\
| =========                 |                                                 |
| \\      /  F ield         | OpenFOAM Extend Project: Open source CFD        |
|  \\    /   O peration     | Version:  1.6-ext                               |
|   \\  /    A nd           | Web:      www.extend-project.de                 |
|    \\/     M anipulation  |                                                 |
\*---------------------------------------------------------------------------*/
FoamFile
{
    version     2.0;
    format      ascii;
    class       volScalarField::DimensionedInternalField;
    location    "1.2";
    object      V0;
}
// * * * * * * * * * * * * * * * * * * * * * * * * * * * * * * * * * * * * * //

dimensions      [0 3 0 0 0 0 0];

value           nonuniform List<scalar> 
328
(
2.53365e-07
2.53357e-07
2.53321e-07
2.5332e-07
2.71731e-07
2.71721e-07
2.71694e-07
2.71697e-07
2.91439e-07
2.9142e-07
2.91397e-07
2.91387e-07
3.12574e-07
3.12547e-07
3.12527e-07
3.12507e-07
3.3524e-07
3.35207e-07
3.35189e-07
3.35161e-07
3.59547e-07
3.5951e-07
3.59492e-07
3.59459e-07
3.85617e-07
3.85576e-07
3.85558e-07
3.8552e-07
4.13575e-07
4.13532e-07
4.13513e-07
4.13471e-07
4.43561e-07
4.43515e-07
4.43495e-07
4.4345e-07
4.7572e-07
4.75672e-07
4.75651e-07
4.75603e-07
5.10211e-07
5.1016e-07
5.10138e-07
5.10087e-07
5.47203e-07
5.47149e-07
5.47126e-07
5.47072e-07
5.86876e-07
5.86819e-07
5.86795e-07
5.86738e-07
6.29425e-07
6.29366e-07
6.2934e-07
6.29281e-07
6.7506e-07
6.74997e-07
6.74971e-07
6.74908e-07
7.24003e-07
7.23937e-07
7.23909e-07
7.23844e-07
7.76494e-07
7.76426e-07
7.76396e-07
7.76328e-07
8.32791e-07
8.3272e-07
8.32689e-07
8.32618e-07
8.93169e-07
8.93095e-07
8.93063e-07
8.92989e-07
9.57925e-07
9.57848e-07
9.57815e-07
9.57738e-07
1.02738e-06
1.0273e-06
1.02726e-06
1.02718e-06
1.10186e-06
1.10178e-06
1.10174e-06
1.10166e-06
1.26881e-06
1.26872e-06
1.26869e-06
1.2686e-06
1.26881e-06
1.26872e-06
1.26869e-06
1.2686e-06
1.2688e-06
1.26872e-06
1.26869e-06
1.26861e-06
1.2688e-06
1.26872e-06
1.26869e-06
1.26861e-06
1.2688e-06
1.26872e-06
1.26869e-06
1.26862e-06
1.26879e-06
1.26872e-06
1.26869e-06
1.26862e-06
1.26879e-06
1.26872e-06
1.26869e-06
1.26863e-06
1.26878e-06
1.26872e-06
1.26869e-06
1.26863e-06
1.26878e-06
1.26872e-06
1.26869e-06
1.26864e-06
1.26877e-06
1.26872e-06
1.26869e-06
1.26864e-06
1.26877e-06
1.26872e-06
1.2687e-06
1.26864e-06
1.26877e-06
1.26872e-06
1.2687e-06
1.26865e-06
1.26876e-06
1.26872e-06
1.2687e-06
1.26865e-06
1.26876e-06
1.26872e-06
1.2687e-06
1.26866e-06
1.26875e-06
1.26871e-06
1.2687e-06
1.26866e-06
1.26875e-06
1.26871e-06
1.2687e-06
1.26866e-06
1.26875e-06
1.26871e-06
1.2687e-06
1.26867e-06
1.26874e-06
1.26871e-06
1.2687e-06
1.26867e-06
1.26874e-06
1.26871e-06
1.2687e-06
1.26867e-06
1.26874e-06
1.26871e-06
1.2687e-06
1.26867e-06
1.26874e-06
1.26871e-06
1.2687e-06
1.26868e-06
1.26873e-06
1.26871e-06
1.2687e-06
1.26868e-06
1.26873e-06
1.26871e-06
1.2687e-06
1.26868e-06
1.26873e-06
1.26871e-06
1.2687e-06
1.26868e-06
1.26873e-06
1.26871e-06
1.2687e-06
1.26869e-06
1.26872e-06
1.26871e-06
1.2687e-06
1.26869e-06
1.26872e-06
1.26871e-06
1.2687e-06
1.26869e-06
1.26872e-06
1.26871e-06
1.2687e-06
1.26869e-06
1.26872e-06
1.26871e-06
1.2687e-06
1.26869e-06
1.26872e-06
1.26871e-06
1.2687e-06
1.26869e-06
1.26871e-06
1.26871e-06
1.2687e-06
1.2687e-06
1.26871e-06
1.26871e-06
1.2687e-06
1.2687e-06
1.26871e-06
1.26871e-06
1.2687e-06
1.2687e-06
1.26871e-06
1.26871e-06
1.2687e-06
1.2687e-06
1.26871e-06
1.26871e-06
1.2687e-06
1.2687e-06
1.26871e-06
1.2687e-06
1.2687e-06
1.2687e-06
1.26871e-06
1.2687e-06
1.2687e-06
1.2687e-06
1.26871e-06
1.2687e-06
1.2687e-06
1.2687e-06
1.2687e-06
1.2687e-06
1.2687e-06
1.2687e-06
1.2687e-06
1.2687e-06
1.2687e-06
1.2687e-06
1.2687e-06
1.2687e-06
1.2687e-06
1.2687e-06
1.2687e-06
1.2687e-06
1.2687e-06
1.2687e-06
1.2687e-06
1.2687e-06
1.2687e-06
1.2687e-06
1.2687e-06
1.2687e-06
1.2687e-06
1.2687e-06
1.2687e-06
1.2687e-06
1.2687e-06
1.2687e-06
1.2687e-06
1.2687e-06
1.2687e-06
1.2687e-06
1.2687e-06
1.2687e-06
1.2687e-06
1.2687e-06
1.2687e-06
1.2687e-06
1.2687e-06
1.2687e-06
1.2687e-06
1.2687e-06
1.2687e-06
1.2687e-06
1.2687e-06
1.2687e-06
1.2687e-06
1.2687e-06
1.2687e-06
1.2687e-06
1.2687e-06
1.2687e-06
1.2687e-06
1.2687e-06
1.2687e-06
1.2687e-06
1.2687e-06
1.2687e-06
1.2687e-06
1.2687e-06
1.2687e-06
1.2687e-06
1.2687e-06
1.2687e-06
1.2687e-06
1.2687e-06
1.2687e-06
1.2687e-06
1.2687e-06
1.2687e-06
1.2687e-06
1.2687e-06
1.2687e-06
1.2687e-06
1.2687e-06
1.2687e-06
1.2687e-06
1.2687e-06
1.2687e-06
1.2687e-06
1.2687e-06
1.2687e-06
1.2687e-06
1.2687e-06
1.2687e-06
1.26869e-06
1.26869e-06
1.2687e-06
)
;


// ************************************************************************* //
