/*--------------------------------*- C++ -*----------------------------------*\
| =========                 |                                                 |
| \\      /  F ield         | OpenFOAM Extend Project: Open source CFD        |
|  \\    /   O peration     | Version:  1.6-ext                               |
|   \\  /    A nd           | Web:      www.extend-project.de                 |
|    \\/     M anipulation  |                                                 |
\*---------------------------------------------------------------------------*/
FoamFile
{
    version     2.0;
    format      ascii;
    class       volVectorField;
    location    "1.2";
    object      Vs;
}
// * * * * * * * * * * * * * * * * * * * * * * * * * * * * * * * * * * * * * //

dimensions      [0 1 -1 0 0 0 0];

internalField   nonuniform List<vector> 
328
(
(1.44138e-07 -6.23623e-06 0)
(1.1804e-06 -1.26422e-06 0)
(1.17425e-06 1.39773e-06 0)
(8.59672e-08 6.4358e-06 0)
(5.22634e-07 -1.59265e-05 0)
(3.12454e-06 -3.64984e-06 0)
(3.10194e-06 4.08786e-06 0)
(3.54009e-07 1.65077e-05 0)
(3.55259e-07 -2.30375e-05 0)
(3.8969e-06 -5.85582e-06 0)
(3.85037e-06 6.64661e-06 0)
(7.67964e-08 2.40048e-05 0)
(3.51663e-08 -2.79857e-05 0)
(4.07842e-06 -7.69576e-06 0)
(4.00706e-06 8.8857e-06 0)
(-3.4483e-07 2.93535e-05 0)
(-5.08094e-07 -3.13053e-05 0)
(3.60345e-06 -9.10614e-06 0)
(3.50794e-06 1.07393e-05 0)
(-9.77402e-07 3.30963e-05 0)
(-1.19511e-06 -3.34073e-05 0)
(2.69081e-06 -1.00721e-05 0)
(2.57508e-06 1.21907e-05 0)
(-1.73606e-06 3.56493e-05 0)
(-2.03726e-06 -3.46283e-05 0)
(1.40748e-06 -1.06352e-05 0)
(1.27756e-06 1.32788e-05 0)
(-2.62709e-06 3.73512e-05 0)
(-3.02736e-06 -3.52197e-05 0)
(-1.34537e-07 -1.08588e-05 0)
(-2.70158e-07 1.4063e-05 0)
(-3.63754e-06 3.84526e-05 0)
(-4.17581e-06 -3.53766e-05 0)
(-1.87053e-06 -1.08203e-05 0)
(-2.00105e-06 1.46151e-05 0)
(-4.77156e-06 3.91448e-05 0)
(-5.48935e-06 -3.52459e-05 0)
(-3.74154e-06 -1.05954e-05 0)
(-3.8536e-06 1.50023e-05 0)
(-6.02888e-06 3.9567e-05 0)
(-6.97605e-06 -3.49389e-05 0)
(-5.71246e-06 -1.02537e-05 0)
(-5.78995e-06 1.52818e-05 0)
(-7.40966e-06 3.98189e-05 0)
(-8.64148e-06 -3.45388e-05 0)
(-7.7616e-06 -9.85356e-06 0)
(-7.78533e-06 1.54951e-05 0)
(-8.91056e-06 3.99669e-05 0)
(-1.04902e-05 -3.41078e-05 0)
(-9.88199e-06 -9.44284e-06 0)
(-9.82929e-06 1.56667e-05 0)
(-1.0526e-05 4.005e-05 0)
(-1.25258e-05 -3.36931e-05 0)
(-1.20765e-05 -9.06033e-06 0)
(-1.19208e-05 1.5804e-05 0)
(-1.22481e-05 4.00841e-05 0)
(-1.47525e-05 -3.33328e-05 0)
(-1.43556e-05 -8.73935e-06 0)
(-1.40659e-05 1.58991e-05 0)
(-1.40679e-05 4.00661e-05 0)
(-1.71754e-05 -3.30613e-05 0)
(-1.67338e-05 -8.51186e-06 0)
(-1.62742e-05 1.59297e-05 0)
(-1.59759e-05 3.9976e-05 0)
(-1.98018e-05 -3.29151e-05 0)
(-1.92277e-05 -8.41298e-06 0)
(-1.85566e-05 1.58605e-05 0)
(-1.79624e-05 3.97798e-05 0)
(-2.26414e-05 -3.2937e-05 0)
(-2.18543e-05 -8.48541e-06 0)
(-2.09238e-05 1.56433e-05 0)
(-2.00181e-05 3.94297e-05 0)
(-2.57063e-05 -3.31817e-05 0)
(-2.46297e-05 -8.78376e-06 0)
(-2.33846e-05 1.52163e-05 0)
(-2.21336e-05 3.88636e-05 0)
(-2.90116e-05 -3.37196e-05 0)
(-2.75689e-05 -9.37876e-06 0)
(-2.59461e-05 1.45017e-05 0)
(-2.42999e-05 3.80035e-05 0)
(-3.25746e-05 -3.46415e-05 0)
(-3.06859e-05 -1.03617e-05 0)
(-2.86134e-05 1.34026e-05 0)
(-2.65071e-05 3.67525e-05 0)
(-3.64148e-05 -3.60631e-05 0)
(-3.39939e-05 -1.18489e-05 0)
(-3.13897e-05 1.17987e-05 0)
(-2.87454e-05 3.49897e-05 0)
(-4.07118e-05 -3.82097e-05 0)
(-3.76394e-05 -1.40689e-05 0)
(-3.4387e-05 9.45373e-06 0)
(-3.10894e-05 3.24726e-05 0)
(-4.5334e-05 -4.12633e-05 0)
(-4.1498e-05 -1.72026e-05 0)
(-3.74864e-05 6.18946e-06 0)
(-3.34258e-05 2.90287e-05 0)
(-4.99763e-05 -4.51368e-05 0)
(-4.53148e-05 -2.11575e-05 0)
(-4.04827e-05 2.10677e-06 0)
(-3.55981e-05 2.47716e-05 0)
(-5.46357e-05 -4.98909e-05 0)
(-4.90912e-05 -2.59938e-05 0)
(-4.33812e-05 -2.85498e-06 0)
(-3.76154e-05 1.9641e-05 0)
(-5.93085e-05 -5.55814e-05 0)
(-5.28278e-05 -3.17678e-05 0)
(-4.61868e-05 -8.7522e-06 0)
(-3.94865e-05 1.35803e-05 0)
(-6.39906e-05 -6.22599e-05 0)
(-5.65248e-05 -3.85312e-05 0)
(-4.8904e-05 -1.56368e-05 0)
(-4.12202e-05 6.53756e-06 0)
(-6.86773e-05 -6.99733e-05 0)
(-6.0182e-05 -4.63311e-05 0)
(-5.15369e-05 -2.35559e-05 0)
(-4.28248e-05 -1.53456e-06 0)
(-7.33635e-05 -7.87636e-05 0)
(-6.37986e-05 -5.52097e-05 0)
(-5.40891e-05 -3.25523e-05 0)
(-4.43086e-05 -1.06788e-05 0)
(-7.80437e-05 -8.86684e-05 0)
(-6.73738e-05 -6.52047e-05 0)
(-5.65641e-05 -4.26636e-05 0)
(-4.56794e-05 -2.09331e-05 0)
(-8.27123e-05 -9.97207e-05 0)
(-7.09061e-05 -7.63493e-05 0)
(-5.89648e-05 -5.39231e-05 0)
(-4.69444e-05 -3.2331e-05 0)
(-8.73633e-05 -0.000111949 0)
(-7.4394e-05 -8.86718e-05 0)
(-6.12941e-05 -6.63595e-05 0)
(-4.81108e-05 -4.49013e-05 0)
(-9.19909e-05 -0.000125377 0)
(-7.78357e-05 -0.000102196 0)
(-6.35542e-05 -7.99968e-05 0)
(-4.91852e-05 -5.86684e-05 0)
(-9.65892e-05 -0.000140024 0)
(-8.12294e-05 -0.000116943 0)
(-6.57472e-05 -9.48552e-05 0)
(-5.01736e-05 -7.36527e-05 0)
(-0.000101152 -0.000155907 0)
(-8.45729e-05 -0.000132926 0)
(-6.7875e-05 -0.00011095 0)
(-5.10816e-05 -8.98702e-05 0)
(-0.000105674 -0.000173036 0)
(-8.78641e-05 -0.000150159 0)
(-6.9939e-05 -0.000128294 0)
(-5.19146e-05 -0.000107333 0)
(-0.000110149 -0.000191421 0)
(-9.11007e-05 -0.00016865 0)
(-7.19404e-05 -0.000146895 0)
(-5.26771e-05 -0.00012605 0)
(-0.000114571 -0.000211065 0)
(-9.42804e-05 -0.000188402 0)
(-7.38801e-05 -0.000166758 0)
(-5.33733e-05 -0.000146026 0)
(-0.000118935 -0.000231971 0)
(-9.74007e-05 -0.000209418 0)
(-7.57587e-05 -0.000187884 0)
(-5.40068e-05 -0.000167263 0)
(-0.000123237 -0.000254137 0)
(-0.000100459 -0.000231696 0)
(-7.75765e-05 -0.000210272 0)
(-5.45808e-05 -0.000189759 0)
(-0.000127469 -0.000277559 0)
(-0.000103453 -0.000255232 0)
(-7.93337e-05 -0.000233918 0)
(-5.50979e-05 -0.000213513 0)
(-0.000131629 -0.00030223 0)
(-0.00010638 -0.00028002 0)
(-8.10298e-05 -0.000258816 0)
(-5.55601e-05 -0.000238516 0)
(-0.00013571 -0.000328143 0)
(-0.000109238 -0.00030605 0)
(-8.26645e-05 -0.000284958 0)
(-5.5969e-05 -0.000264763 0)
(-0.000139708 -0.000355286 0)
(-0.000112023 -0.000333314 0)
(-8.42369e-05 -0.000312333 0)
(-5.6326e-05 -0.000292241 0)
(-0.000143619 -0.000383647 0)
(-0.000114732 -0.000361798 0)
(-8.57458e-05 -0.00034093 0)
(-5.66316e-05 -0.00032094 0)
(-0.000147437 -0.000413212 0)
(-0.000117363 -0.000391488 0)
(-8.719e-05 -0.000370734 0)
(-5.68863e-05 -0.000350846 0)
(-0.000151156 -0.000443967 0)
(-0.000119911 -0.00042237 0)
(-8.85678e-05 -0.00040173 0)
(-5.70901e-05 -0.000381944 0)
(-0.000154773 -0.000475893 0)
(-0.000122374 -0.000454426 0)
(-8.98771e-05 -0.000433902 0)
(-5.72424e-05 -0.000414218 0)
(-0.000158282 -0.000508972 0)
(-0.000124748 -0.000487639 0)
(-9.11158e-05 -0.000467231 0)
(-5.73427e-05 -0.00044765 0)
(-0.000161677 -0.000543186 0)
(-0.000127028 -0.000521988 0)
(-9.22813e-05 -0.0005017 0)
(-5.73899e-05 -0.000482221 0)
(-0.000164951 -0.000578512 0)
(-0.00012921 -0.000557454 0)
(-9.33706e-05 -0.000537286 0)
(-5.73826e-05 -0.00051791 0)
(-0.000168098 -0.000614927 0)
(-0.000131289 -0.000594012 0)
(-9.43804e-05 -0.000573967 0)
(-5.73192e-05 -0.000554696 0)
(-0.00017111 -0.000652407 0)
(-0.000133259 -0.000631639 0)
(-9.53071e-05 -0.00061172 0)
(-5.71977e-05 -0.000592555 0)
(-0.000173981 -0.000690926 0)
(-0.000135115 -0.000670309 0)
(-9.61463e-05 -0.000650519 0)
(-5.70157e-05 -0.000631461 0)
(-0.000176701 -0.000730455 0)
(-0.000136849 -0.000709994 0)
(-9.68935e-05 -0.000690336 0)
(-5.67703e-05 -0.000671387 0)
(-0.000179261 -0.000770962 0)
(-0.000138455 -0.000750663 0)
(-9.75431e-05 -0.000731141 0)
(-5.6458e-05 -0.000712303 0)
(-0.000181651 -0.000812416 0)
(-0.000139924 -0.000792284 0)
(-9.80893e-05 -0.000772902 0)
(-5.60746e-05 -0.00075418 0)
(-0.000183861 -0.000854782 0)
(-0.000141248 -0.000834824 0)
(-9.85251e-05 -0.000815587 0)
(-5.5615e-05 -0.000796982 0)
(-0.000185878 -0.000898022 0)
(-0.000142418 -0.000878244 0)
(-9.88427e-05 -0.000859158 0)
(-5.50734e-05 -0.000840675 0)
(-0.000187691 -0.000942097 0)
(-0.000143422 -0.000922507 0)
(-9.90333e-05 -0.000903578 0)
(-5.44423e-05 -0.000885222 0)
(-0.000189287 -0.000986966 0)
(-0.000144249 -0.000967573 0)
(-9.90868e-05 -0.000948807 0)
(-5.37133e-05 -0.000930584 0)
(-0.00019065 -0.00103259 0)
(-0.000144887 -0.0010134 0)
(-9.89917e-05 -0.000994804 0)
(-5.28762e-05 -0.000976722 0)
(-0.000191765 -0.00107891 0)
(-0.00014532 -0.00105994 0)
(-9.8735e-05 -0.00104153 0)
(-5.19192e-05 -0.00102359 0)
(-0.000192615 -0.0011259 0)
(-0.000145533 -0.00110716 0)
(-9.8302e-05 -0.00108893 0)
(-5.08288e-05 -0.00107116 0)
(-0.000193181 -0.0011735 0)
(-0.000145508 -0.00115499 0)
(-9.76759e-05 -0.00113697 0)
(-4.95889e-05 -0.00111937 0)
(-0.000193441 -0.00122167 0)
(-0.000145225 -0.00120341 0)
(-9.68378e-05 -0.00118561 0)
(-4.81813e-05 -0.00116818 0)
(-0.000193373 -0.00127035 0)
(-0.000144663 -0.00125236 0)
(-9.57662e-05 -0.00123478 0)
(-4.6585e-05 -0.00121755 0)
(-0.000192952 -0.00131949 0)
(-0.000143796 -0.00130179 0)
(-9.44367e-05 -0.00128446 0)
(-4.4776e-05 -0.00126744 0)
(-0.000192148 -0.00136904 0)
(-0.000142597 -0.00135164 0)
(-9.28217e-05 -0.00133458 0)
(-4.27265e-05 -0.00131779 0)
(-0.000190932 -0.00141895 0)
(-0.000141034 -0.00140188 0)
(-9.08898e-05 -0.0013851 0)
(-4.04047e-05 -0.00136856 0)
(-0.000189267 -0.00146917 0)
(-0.000139072 -0.00145244 0)
(-8.86056e-05 -0.00143597 0)
(-3.77741e-05 -0.00141971 0)
(-0.000187116 -0.00151964 0)
(-0.000136673 -0.00150328 0)
(-8.59286e-05 -0.00148715 0)
(-3.47931e-05 -0.0014712 0)
(-0.000184435 -0.0015703 0)
(-0.000133792 -0.00155435 0)
(-8.28131e-05 -0.00153859 0)
(-3.14137e-05 -0.00152297 0)
(-0.000181177 -0.00162111 0)
(-0.000130379 -0.0016056 0)
(-7.92071e-05 -0.00159023 0)
(-2.75818e-05 -0.001575 0)
(-0.000177288 -0.00167201 0)
(-0.000126378 -0.00165697 0)
(-7.50512e-05 -0.00164205 0)
(-2.32347e-05 -0.00162723 0)
(-0.000172708 -0.00172295 0)
(-0.000121726 -0.00170844 0)
(-7.02789e-05 -0.00169401 0)
(-1.83032e-05 -0.00167966 0)
(-0.000167368 -0.00177389 0)
(-0.000116346 -0.00175994 0)
(-6.481e-05 -0.00174606 0)
(-1.27053e-05 -0.00173223 0)
(-0.000161199 -0.00182478 0)
(-0.00011016 -0.00181146 0)
(-5.85621e-05 -0.00179819 0)
(-6.35915e-06 -0.00178495 0)
(-0.000154098 -0.00187559 0)
(-0.000103048 -0.00186295 0)
(-5.14104e-05 -0.00185037 0)
(8.5242e-07 -0.00183779 0)
(-0.000146028 -0.0019263 0)
(-9.49508e-05 -0.00191441 0)
(-4.3291e-05 -0.00190258 0)
(8.98277e-06 -0.00189072 0)
(-0.00013675 -0.00197709 0)
(-8.56278e-05 -0.00196588 0)
(-3.39583e-05 -0.00195474 0)
(1.82865e-05 -0.00194355 0)
)
;

boundaryField
{
    plateFix
    {
        type            calculated;
        value           uniform (0 0 0);
    }
    plate
    {
        type            calculated;
        value           nonuniform List<vector> 
168
(
(-2.7127e-05 -1.68219e-05 6.1045e-23)
(-2.81464e-05 1.72231e-05 3.3855e-23)
(-1.91628e-05 -2.68775e-05 2.18445e-23)
(-2.02279e-05 2.76464e-05 1.29114e-23)
(-1.2837e-05 -3.45142e-05 -7.91221e-23)
(-1.39714e-05 3.56518e-05 -9.01833e-23)
(-8.4102e-06 -3.96869e-05 5.86996e-24)
(-9.62543e-06 4.12012e-05 4.16937e-23)
(-5.68433e-06 -4.31952e-05 6.68978e-23)
(-6.97988e-06 4.51054e-05 3.97083e-23)
(-4.16577e-06 -4.54141e-05 -5.07548e-24)
(-5.52797e-06 4.77448e-05 -3.62983e-23)
(-3.56184e-06 -4.67334e-05 -3.73003e-23)
(-4.96615e-06 4.95123e-05 3.38277e-23)
(-3.63104e-06 -4.74049e-05 2.89759e-23)
(-5.04263e-06 5.06591e-05 -1.68757e-23)
(-4.22134e-06 -4.76326e-05 -1.1235e-23)
(-5.59548e-06 5.13854e-05 -3.75686e-24)
(-5.22196e-06 -4.7562e-05 -2.76527e-23)
(-6.50375e-06 5.18294e-05 1.19767e-23)
(-6.55913e-06 -4.73046e-05 -6.68761e-24)
(-7.68274e-06 5.20909e-05 -3.57506e-23)
(-8.1809e-06 -4.69425e-05 3.48178e-23)
(-9.06847e-06 5.22353e-05 1.48144e-23)
(-1.0053e-05 -4.6538e-05 -3.36252e-23)
(-1.06132e-05 5.23016e-05 9.89172e-26)
(-1.21539e-05 -4.61389e-05 -1.0314e-24)
(-1.22801e-05 5.23064e-05 -8.34641e-25)
(-1.44729e-05 -4.57846e-05 -3.19685e-24)
(-1.40412e-05 5.22476e-05 2.6961e-23)
(-1.70083e-05 -4.5511e-05 8.9555e-25)
(-1.58748e-05 5.21069e-05 -1.11761e-23)
(-1.97653e-05 -4.5356e-05 1.98686e-24)
(-1.77639e-05 5.18516e-05 -1.56437e-23)
(-2.27552e-05 -4.53641e-05 -8.71167e-25)
(-1.9694e-05 5.14353e-05 9.75612e-24)
(-2.59943e-05 -4.55909e-05 1.57243e-23)
(-2.16525e-05 5.0797e-05 -1.3585e-23)
(-2.95025e-05 -4.61076e-05 -1.03979e-23)
(-2.36266e-05 4.98596e-05 5.92896e-24)
(-3.33029e-05 -4.70055e-05 7.76718e-26)
(-2.5603e-05 4.85267e-05 3.51625e-24)
(-3.74209e-05 -4.84006e-05 7.14193e-24)
(-2.75671e-05 4.66778e-05 5.2472e-24)
(-4.20556e-05 -5.05166e-05 -4.16992e-24)
(-2.95751e-05 4.40674e-05 1.03426e-24)
(-4.70702e-05 -5.35359e-05 1.11752e-25)
(-3.15212e-05 4.05261e-05 1.46879e-23)
(-5.21358e-05 -5.73744e-05 3.24396e-24)
(-3.32722e-05 3.61747e-05 -8.83509e-24)
(-5.72475e-05 -6.20924e-05 -7.77215e-24)
(-3.48388e-05 3.09528e-05 -4.46124e-24)
(-6.23995e-05 -6.77458e-05 -1.54186e-23)
(-3.62323e-05 2.4804e-05 -1.41403e-23)
(-6.75854e-05 -7.43861e-05 5.79077e-24)
(-3.74635e-05 1.76764e-05 -8.57298e-24)
(-7.27981e-05 -8.206e-05 1.55657e-23)
(-3.85431e-05 9.52243e-06 -2.65448e-23)
(-7.80302e-05 -9.08095e-05 -6.10823e-24)
(-3.94818e-05 2.99444e-07 1.42007e-23)
(-8.3274e-05 -0.000100672 1.43544e-24)
(-4.02895e-05 -1.00307e-05 -6.27072e-24)
(-8.85214e-05 -0.000111681 -2.09807e-23)
(-4.0976e-05 -2.15016e-05 3.06237e-24)
(-9.37645e-05 -0.000123863 8.92578e-24)
(-4.15505e-05 -3.41423e-05 -4.97079e-25)
(-9.89951e-05 -0.000137244 8.1874e-24)
(-4.20218e-05 -4.79772e-05 -2.84625e-23)
(-0.000104205 -0.000151843 -3.23497e-24)
(-4.2398e-05 -6.30269e-05 1.40968e-24)
(-0.000109387 -0.000167676 3.16648e-24)
(-4.26869e-05 -7.93076e-05 3.19135e-24)
(-0.000114533 -0.000184754 7.41984e-25)
(-4.28955e-05 -9.68316e-05 -5.75525e-24)
(-0.000119635 -0.000203086 -7.18264e-24)
(-4.30303e-05 -0.000115608 -1.5114e-23)
(-0.000124686 -0.000222677 7.32436e-24)
(-4.30969e-05 -0.000135641 6.53952e-24)
(-0.000129679 -0.000243527 6.8102e-24)
(-4.31007e-05 -0.000156934 1.22899e-24)
(-0.000134608 -0.000265636 5.14637e-24)
(-4.3046e-05 -0.000179486 3.73977e-24)
(-0.000139466 -0.000288999 -3.19631e-24)
(-4.29368e-05 -0.000203292 8.81314e-24)
(-0.000144247 -0.000313611 9.47307e-24)
(-4.27763e-05 -0.000228349 6.23876e-24)
(-0.000148945 -0.000339462 7.02701e-24)
(-4.25671e-05 -0.000254647 -5.81693e-24)
(-0.000153554 -0.000366543 7.14451e-24)
(-4.23113e-05 -0.000282176 -5.31781e-24)
(-0.000158069 -0.000394841 -4.52482e-24)
(-4.20106e-05 -0.000310926 1.70996e-24)
(-0.000162484 -0.000424342 1.64294e-24)
(-4.1666e-05 -0.000340882 -1.1569e-23)
(-0.000166793 -0.00045503 -2.86054e-24)
(-4.12782e-05 -0.00037203 3.39348e-27)
(-0.00017099 -0.000486889 -1.03401e-23)
(-4.08476e-05 -0.000404353 -8.32546e-24)
(-0.00017507 -0.000519899 1.34722e-24)
(-4.03742e-05 -0.000437835 3.40601e-24)
(-0.000179025 -0.000554042 -4.29887e-24)
(-3.98575e-05 -0.000472456 2.82958e-24)
(-0.000182849 -0.000589295 -1.86004e-23)
(-3.92971e-05 -0.000508196 -1.07151e-24)
(-0.000186534 -0.000625636 -2.44976e-24)
(-3.86921e-05 -0.000545032 1.0321e-23)
(-0.000190072 -0.000663039 5.55742e-24)
(-3.80412e-05 -0.000582941 2.46922e-24)
(-0.000193454 -0.000701478 -1.54042e-25)
(-3.7343e-05 -0.000621898 1.54993e-24)
(-0.00019667 -0.000740925 8.68567e-24)
(-3.65955e-05 -0.000661876 -8.23062e-24)
(-0.000199711 -0.000781347 4.37067e-24)
(-3.57963e-05 -0.000702846 1.10209e-23)
(-0.000202565 -0.000822714 -4.65279e-25)
(-3.49422e-05 -0.000744777 7.35667e-25)
(-0.000205221 -0.000864988 8.44729e-25)
(-3.40291e-05 -0.000787635 -4.15516e-24)
(-0.000207665 -0.000908132 -1.19233e-23)
(-3.30519e-05 -0.000831386 -8.68322e-25)
(-0.000209885 -0.000952108 1.17871e-23)
(-3.20043e-05 -0.000875994 -4.89818e-25)
(-0.000211867 -0.000996874 -5.57249e-25)
(-3.08784e-05 -0.000921419 -2.48374e-24)
(-0.000213594 -0.00104239 1.13546e-23)
(-2.96648e-05 -0.000967623 1.92181e-24)
(-0.000215051 -0.0010886 -1.05295e-23)
(-2.83524e-05 -0.00101456 7.99221e-24)
(-0.000216219 -0.00113547 -7.11208e-25)
(-2.69279e-05 -0.0010622 9.74599e-24)
(-0.000217079 -0.00118294 -1.50404e-23)
(-2.53759e-05 -0.00111049 5.80584e-24)
(-0.000217609 -0.00123098 -3.93795e-23)
(-2.36784e-05 -0.00115939 -2.93152e-24)
(-0.000217786 -0.00127951 2.44643e-23)
(-2.18149e-05 -0.00120886 -3.44958e-24)
(-0.000217583 -0.00132851 -4.30841e-27)
(-1.97613e-05 -0.00125885 -6.20379e-24)
(-0.000216972 -0.0013779 -8.21558e-24)
(-1.74901e-05 -0.00130931 -8.78007e-24)
(-0.000215922 -0.00142765 4.87809e-24)
(-1.49692e-05 -0.00136021 -1.28236e-23)
(-0.000214397 -0.00147768 -4.55806e-24)
(-1.21619e-05 -0.0014115 4.7548e-24)
(-0.000212358 -0.00152795 -1.58239e-25)
(-9.02566e-06 -0.00146313 1.01713e-23)
(-0.000209764 -0.0015784 -1.05951e-23)
(-5.51173e-06 -0.00151507 2.41972e-23)
(-0.000206566 -0.00162898 3.19483e-23)
(-1.56421e-06 -0.00156728 -4.67463e-24)
(-0.000202712 -0.00167964 -1.06022e-23)
(2.88139e-06 -0.00161973 -1.00814e-23)
(-0.000198144 -0.00173032 2.1568e-23)
(7.89695e-06 -0.00167239 -3.04983e-26)
(-0.000192792 -0.00178097 -1.76125e-23)
(1.35683e-05 -0.00172522 -1.74888e-23)
(-0.000186592 -0.00183154 -2.35806e-23)
(1.99779e-05 -0.00177824 -1.1532e-23)
(-0.000179448 -0.00188201 1.77577e-23)
(2.72433e-05 -0.00183139 3.62868e-23)
(-0.000171376 -0.00193232 3.77113e-23)
(3.53685e-05 -0.00188471 -3.09114e-23)
(-0.000162201 -0.00198275 1.27859e-23)
(-0.000131694 -0.00200264 -3.7103e-25)
(-8.05607e-05 -0.00199162 3.23934e-25)
(-2.88869e-05 -0.00198076 1.0529e-24)
(2.33519e-05 -0.00196979 3.69283e-25)
(4.45582e-05 -0.00193789 -6.21446e-24)
)
;
    }
    frontAndBackPlanes
    {
        type            empty;
    }
}


// ************************************************************************* //
