/*--------------------------------*- C++ -*----------------------------------*\
| =========                 |                                                 |
| \\      /  F ield         | OpenFOAM Extend Project: Open source CFD        |
|  \\    /   O peration     | Version:  1.6-ext                               |
|   \\  /    A nd           | Web:      www.extend-project.de                 |
|    \\/     M anipulation  |                                                 |
\*---------------------------------------------------------------------------*/
FoamFile
{
    version     2.0;
    format      ascii;
    class       vectorField;
    location    "0.25";
    object      accumulatedFluidInterfaceDisplacement;
}
// * * * * * * * * * * * * * * * * * * * * * * * * * * * * * * * * * * * * * //


338
(
(5.11251e-06 -1.07559e-06 8.26155e-28)
(4.71388e-06 1.74996e-07 6.47776e-28)
(2.23308e-05 -5.00158e-06 -8.03467e-28)
(2.23309e-05 -4.99974e-06 -1.06319e-27)
(2.2319e-05 -4.99547e-06 5.22234e-28)
(2.22956e-05 -4.98864e-06 8.11282e-28)
(2.22604e-05 -4.98151e-06 -2.15653e-27)
(2.22131e-05 -4.97447e-06 -2.87331e-27)
(2.21534e-05 -4.96759e-06 -1.44478e-27)
(2.20815e-05 -4.96065e-06 1.88721e-27)
(2.19973e-05 -4.9533e-06 9.39849e-28)
(2.19008e-05 -4.94513e-06 -1.99019e-27)
(2.17922e-05 -4.93569e-06 -4.18032e-28)
(2.16715e-05 -4.92451e-06 1.43185e-27)
(2.15388e-05 -4.91111e-06 -2.0996e-27)
(2.13944e-05 -4.89506e-06 2.01939e-28)
(2.12382e-05 -4.87591e-06 2.9342e-28)
(2.10705e-05 -4.85328e-06 1.25734e-27)
(2.08915e-05 -4.8268e-06 3.89258e-27)
(2.07012e-05 -4.79615e-06 -3.4046e-27)
(2.04998e-05 -4.76104e-06 -3.9591e-27)
(2.02874e-05 -4.72121e-06 -2.38094e-27)
(2.00643e-05 -4.67646e-06 -4.72236e-27)
(1.98306e-05 -4.62661e-06 -5.7928e-27)
(1.95863e-05 -4.57151e-06 1.82709e-27)
(1.93318e-05 -4.51105e-06 3.79199e-27)
(1.9067e-05 -4.44515e-06 -5.89166e-28)
(1.87922e-05 -4.37377e-06 -3.7787e-27)
(1.85076e-05 -4.29688e-06 -3.67534e-27)
(1.82132e-05 -4.21448e-06 4.40329e-27)
(1.79092e-05 -4.12659e-06 4.08132e-27)
(1.75959e-05 -4.03327e-06 -9.23648e-29)
(1.72733e-05 -3.93458e-06 1.08792e-27)
(1.69416e-05 -3.8306e-06 1.89844e-27)
(1.66011e-05 -3.72147e-06 3.81526e-28)
(1.62519e-05 -3.60729e-06 -2.1287e-27)
(1.58942e-05 -3.48824e-06 1.91005e-27)
(1.55283e-05 -3.36449e-06 -1.38714e-27)
(1.51543e-05 -3.23623e-06 -8.15376e-27)
(1.47726e-05 -3.10372e-06 2.04918e-28)
(1.43835e-05 -2.96719e-06 2.54922e-27)
(1.39871e-05 -2.82694e-06 1.31529e-27)
(1.35838e-05 -2.68329e-06 1.2108e-27)
(1.31741e-05 -2.53659e-06 -1.442e-27)
(1.27581e-05 -2.38722e-06 -2.75701e-27)
(1.23364e-05 -2.23562e-06 -4.2505e-27)
(1.19094e-05 -2.08223e-06 3.07397e-28)
(1.14774e-05 -1.92757e-06 4.51395e-27)
(1.10411e-05 -1.77214e-06 5.90103e-28)
(1.06008e-05 -1.6165e-06 -2.85692e-27)
(1.01571e-05 -1.46123e-06 -1.11583e-27)
(9.71054e-06 -1.30692e-06 3.66873e-28)
(9.26154e-06 -1.15415e-06 2.44049e-28)
(8.81057e-06 -1.00348e-06 -6.43057e-27)
(8.35805e-06 -8.55466e-07 -5.51309e-27)
(7.90428e-06 -7.10606e-07 1.07536e-26)
(7.4495e-06 -5.69363e-07 2.96634e-27)
(6.99383e-06 -4.32159e-07 -2.55527e-27)
(6.53726e-06 -2.99391e-07 1.83252e-27)
(6.07969e-06 -1.7146e-07 -9.49179e-28)
(5.62091e-06 -4.88042e-08 7.52078e-28)
(5.16069e-06 6.80624e-08 1.47679e-28)
(2.23099e-05 -5.01265e-06 -2.09826e-27)
(2.23227e-05 -5.00635e-06 8.30099e-28)
(2.22802e-05 -5.02563e-06 -2.01727e-27)
(2.22927e-05 -5.01741e-06 -5.64617e-27)
(5.58846e-06 -1.17237e-06 -3.9771e-29)
(6.07634e-06 -1.28032e-06 1.48007e-27)
(6.56031e-06 -1.39584e-06 1.07779e-28)
(7.04066e-06 -1.51826e-06 -4.93916e-27)
(7.51754e-06 -1.64683e-06 -3.39655e-27)
(7.99101e-06 -1.7807e-06 1.17257e-27)
(8.46102e-06 -1.91898e-06 5.76258e-27)
(8.92742e-06 -2.06073e-06 5.54231e-27)
(9.38997e-06 -2.20504e-06 -8.91052e-28)
(9.84835e-06 -2.35106e-06 -1.03826e-27)
(1.03022e-05 -2.49796e-06 -2.74753e-27)
(1.07512e-05 -2.64502e-06 5.33332e-28)
(1.11949e-05 -2.79155e-06 1.09131e-28)
(1.16329e-05 -2.93695e-06 2.21204e-27)
(1.20648e-05 -3.08067e-06 2.71006e-29)
(1.24904e-05 -3.22223e-06 -6.9592e-27)
(1.29091e-05 -3.36118e-06 1.30509e-27)
(1.33208e-05 -3.49712e-06 -9.9582e-29)
(1.37252e-05 -3.6297e-06 1.64928e-27)
(1.41219e-05 -3.7586e-06 4.39155e-27)
(1.45108e-05 -3.88351e-06 7.40178e-28)
(1.48916e-05 -4.00417e-06 2.04647e-27)
(1.52642e-05 -4.12033e-06 -1.23732e-27)
(1.56282e-05 -4.23179e-06 -1.82094e-28)
(1.59836e-05 -4.33834e-06 -5.51472e-28)
(1.63303e-05 -4.43981e-06 -1.16813e-27)
(1.6668e-05 -4.53604e-06 1.37475e-27)
(1.69966e-05 -4.6269e-06 -3.8867e-27)
(1.73161e-05 -4.71228e-06 -4.00814e-27)
(1.76262e-05 -4.79207e-06 -1.9349e-28)
(1.79269e-05 -4.86621e-06 4.43457e-27)
(1.82182e-05 -4.93462e-06 4.39519e-27)
(1.84999e-05 -4.99727e-06 -2.99791e-27)
(1.87719e-05 -5.05413e-06 -6.80198e-27)
(1.90342e-05 -5.1052e-06 -1.71879e-27)
(1.92867e-05 -5.1505e-06 2.18337e-27)
(1.95294e-05 -5.19006e-06 -1.28201e-27)
(1.97622e-05 -5.22396e-06 -3.43376e-27)
(1.9985e-05 -5.25228e-06 -2.05898e-27)
(2.0198e-05 -5.27514e-06 -1.99254e-27)
(2.04009e-05 -5.2927e-06 -1.88474e-27)
(2.05939e-05 -5.30513e-06 7.09027e-28)
(2.07768e-05 -5.31266e-06 1.57386e-27)
(2.09497e-05 -5.31553e-06 2.82052e-27)
(2.11125e-05 -5.31404e-06 2.46175e-27)
(2.12653e-05 -5.3085e-06 -2.39334e-27)
(2.14079e-05 -5.29927e-06 -2.30653e-27)
(2.15403e-05 -5.28673e-06 3.55542e-27)
(2.16624e-05 -5.27129e-06 1.53837e-27)
(2.17741e-05 -5.25338e-06 -1.77852e-27)
(2.18754e-05 -5.23346e-06 1.69512e-27)
(2.1966e-05 -5.21194e-06 2.11124e-28)
(2.20456e-05 -5.18926e-06 -2.81114e-27)
(2.21141e-05 -5.16579e-06 -2.67285e-27)
(2.2171e-05 -5.14181e-06 1.58807e-28)
(2.2216e-05 -5.11749e-06 1.70122e-27)
(2.22485e-05 -5.09289e-06 1.99712e-27)
(2.22687e-05 -5.0679e-06 3.94554e-27)
(2.22764e-05 -5.04337e-06 1.34433e-27)
(3.92409e-07 -2.19829e-07 -1.73715e-26)
(3.87777e-07 -2.84525e-07 -4.1563e-27)
(3.9305e-07 -3.98496e-07 2.20774e-26)
(4.29145e-07 -4.81267e-07 -1.49593e-26)
(4.96818e-07 -5.37806e-07 -7.79868e-27)
(5.92153e-07 -5.7596e-07 2.07109e-26)
(7.1062e-07 -6.00921e-07 -1.21843e-26)
(8.49353e-07 -6.17144e-07 -1.06043e-26)
(1.00641e-06 -6.27907e-07 3.06167e-27)
(1.18072e-06 -6.35827e-07 7.42734e-27)
(1.37173e-06 -6.42939e-07 6.49427e-27)
(1.57927e-06 -6.50875e-07 -1.76417e-28)
(1.80348e-06 -6.60942e-07 -4.71564e-27)
(2.04467e-06 -6.74215e-07 3.97815e-27)
(2.30335e-06 -6.91593e-07 6.13914e-27)
(2.58016e-06 -7.13866e-07 -4.15548e-28)
(2.87588e-06 -7.41768e-07 -5.76162e-27)
(3.19138e-06 -7.7603e-07 1.87768e-27)
(3.52767e-06 -8.17432e-07 2.56312e-27)
(3.88582e-06 -8.66848e-07 -4.95192e-27)
(4.26704e-06 -9.25277e-07 -2.62316e-27)
(4.67265e-06 -9.93875e-07 1.28007e-27)
(4.29206e-07 2.29633e-07 -1.6495e-26)
(4.30291e-06 2.67105e-07 -8.28412e-28)
(3.92575e-06 3.45877e-07 -4.08223e-27)
(3.5729e-06 4.14115e-07 3.25189e-27)
(3.24293e-06 4.72762e-07 5.39343e-27)
(2.93448e-06 5.22727e-07 -4.11628e-27)
(2.64632e-06 5.64888e-07 -6.48811e-28)
(2.37727e-06 6.00069e-07 -3.31172e-27)
(2.1263e-06 6.29018e-07 -1.63551e-27)
(1.89244e-06 6.52371e-07 2.12322e-27)
(1.6749e-06 6.70605e-07 3.54699e-27)
(1.47303e-06 6.83989e-07 -2.52202e-27)
(1.28638e-06 6.92528e-07 -7.86607e-27)
(1.11473e-06 6.95896e-07 4.67685e-27)
(9.58182e-07 6.93359e-07 3.39851e-27)
(8.17258e-07 6.83689e-07 9.08514e-27)
(6.93044e-07 6.64983e-07 -2.12673e-27)
(5.8753e-07 6.34587e-07 -7.80552e-27)
(5.03677e-07 5.8858e-07 3.24401e-27)
(4.46146e-07 5.22195e-07 -6.63973e-27)
(4.18992e-07 4.27937e-07 -2.96371e-27)
(4.2124e-07 3.01092e-07 -5.78641e-27)
(5.11251e-06 -1.07559e-06 8.26155e-28)
(4.71388e-06 1.74996e-07 6.47776e-28)
(2.23308e-05 -5.00158e-06 -8.03467e-28)
(2.23309e-05 -4.99974e-06 -1.06319e-27)
(2.2319e-05 -4.99547e-06 5.22234e-28)
(2.22956e-05 -4.98864e-06 8.11282e-28)
(2.22604e-05 -4.98151e-06 -2.15653e-27)
(2.22131e-05 -4.97447e-06 -2.87331e-27)
(2.21534e-05 -4.96759e-06 -1.44478e-27)
(2.20815e-05 -4.96065e-06 1.88721e-27)
(2.19973e-05 -4.9533e-06 9.39849e-28)
(2.19008e-05 -4.94513e-06 -1.99019e-27)
(2.17922e-05 -4.93569e-06 -4.18032e-28)
(2.16715e-05 -4.92451e-06 1.43185e-27)
(2.15388e-05 -4.91111e-06 -2.0996e-27)
(2.13944e-05 -4.89506e-06 2.01939e-28)
(2.12382e-05 -4.87591e-06 2.9342e-28)
(2.10705e-05 -4.85328e-06 1.25734e-27)
(2.08915e-05 -4.8268e-06 3.89258e-27)
(2.07012e-05 -4.79615e-06 -3.4046e-27)
(2.04998e-05 -4.76104e-06 -3.9591e-27)
(2.02874e-05 -4.72121e-06 -2.38094e-27)
(2.00643e-05 -4.67646e-06 -4.72236e-27)
(1.98306e-05 -4.62661e-06 -5.7928e-27)
(1.95863e-05 -4.57151e-06 1.82709e-27)
(1.93318e-05 -4.51105e-06 3.79199e-27)
(1.9067e-05 -4.44515e-06 -5.89166e-28)
(1.87922e-05 -4.37377e-06 -3.7787e-27)
(1.85076e-05 -4.29688e-06 -3.67534e-27)
(1.82132e-05 -4.21448e-06 4.40329e-27)
(1.79092e-05 -4.12659e-06 4.08132e-27)
(1.75959e-05 -4.03327e-06 -9.23648e-29)
(1.72733e-05 -3.93458e-06 1.08792e-27)
(1.69416e-05 -3.8306e-06 1.89844e-27)
(1.66011e-05 -3.72147e-06 3.81526e-28)
(1.62519e-05 -3.60729e-06 -2.1287e-27)
(1.58942e-05 -3.48824e-06 1.91005e-27)
(1.55283e-05 -3.36449e-06 -1.38714e-27)
(1.51543e-05 -3.23623e-06 -8.15376e-27)
(1.47726e-05 -3.10372e-06 2.04918e-28)
(1.43835e-05 -2.96719e-06 2.54922e-27)
(1.39871e-05 -2.82694e-06 1.31529e-27)
(1.35838e-05 -2.68329e-06 1.2108e-27)
(1.31741e-05 -2.53659e-06 -1.442e-27)
(1.27581e-05 -2.38722e-06 -2.75701e-27)
(1.23364e-05 -2.23562e-06 -4.2505e-27)
(1.19094e-05 -2.08223e-06 3.07397e-28)
(1.14774e-05 -1.92757e-06 4.51395e-27)
(1.10411e-05 -1.77214e-06 5.90103e-28)
(1.06008e-05 -1.6165e-06 -2.85692e-27)
(1.01571e-05 -1.46123e-06 -1.11583e-27)
(9.71054e-06 -1.30692e-06 3.66873e-28)
(9.26154e-06 -1.15415e-06 2.44049e-28)
(8.81057e-06 -1.00348e-06 -6.43057e-27)
(8.35805e-06 -8.55466e-07 -5.51309e-27)
(7.90428e-06 -7.10606e-07 1.07536e-26)
(7.4495e-06 -5.69363e-07 2.96634e-27)
(6.99383e-06 -4.32159e-07 -2.55527e-27)
(6.53726e-06 -2.99391e-07 1.83252e-27)
(6.07969e-06 -1.7146e-07 -9.49179e-28)
(5.62091e-06 -4.88042e-08 7.52078e-28)
(5.16069e-06 6.80624e-08 1.47679e-28)
(2.23099e-05 -5.01265e-06 -2.09826e-27)
(2.23227e-05 -5.00635e-06 8.30099e-28)
(2.22802e-05 -5.02563e-06 -2.01727e-27)
(2.22927e-05 -5.01741e-06 -5.64617e-27)
(5.58846e-06 -1.17237e-06 -3.9771e-29)
(6.07634e-06 -1.28032e-06 1.48007e-27)
(6.56031e-06 -1.39584e-06 1.07779e-28)
(7.04066e-06 -1.51826e-06 -4.93916e-27)
(7.51754e-06 -1.64683e-06 -3.39655e-27)
(7.99101e-06 -1.7807e-06 1.17257e-27)
(8.46102e-06 -1.91898e-06 5.76258e-27)
(8.92742e-06 -2.06073e-06 5.54231e-27)
(9.38997e-06 -2.20504e-06 -8.91052e-28)
(9.84835e-06 -2.35106e-06 -1.03826e-27)
(1.03022e-05 -2.49796e-06 -2.74753e-27)
(1.07512e-05 -2.64502e-06 5.33332e-28)
(1.11949e-05 -2.79155e-06 1.09131e-28)
(1.16329e-05 -2.93695e-06 2.21204e-27)
(1.20648e-05 -3.08067e-06 2.71006e-29)
(1.24904e-05 -3.22223e-06 -6.9592e-27)
(1.29091e-05 -3.36118e-06 1.30509e-27)
(1.33208e-05 -3.49712e-06 -9.9582e-29)
(1.37252e-05 -3.6297e-06 1.64928e-27)
(1.41219e-05 -3.7586e-06 4.39155e-27)
(1.45108e-05 -3.88351e-06 7.40178e-28)
(1.48916e-05 -4.00417e-06 2.04647e-27)
(1.52642e-05 -4.12033e-06 -1.23732e-27)
(1.56282e-05 -4.23179e-06 -1.82094e-28)
(1.59836e-05 -4.33834e-06 -5.51472e-28)
(1.63303e-05 -4.43981e-06 -1.16813e-27)
(1.6668e-05 -4.53604e-06 1.37475e-27)
(1.69966e-05 -4.6269e-06 -3.8867e-27)
(1.73161e-05 -4.71228e-06 -4.00814e-27)
(1.76262e-05 -4.79207e-06 -1.9349e-28)
(1.79269e-05 -4.86621e-06 4.43457e-27)
(1.82182e-05 -4.93462e-06 4.39519e-27)
(1.84999e-05 -4.99727e-06 -2.99791e-27)
(1.87719e-05 -5.05413e-06 -6.80198e-27)
(1.90342e-05 -5.1052e-06 -1.71879e-27)
(1.92867e-05 -5.1505e-06 2.18337e-27)
(1.95294e-05 -5.19006e-06 -1.28201e-27)
(1.97622e-05 -5.22396e-06 -3.43376e-27)
(1.9985e-05 -5.25228e-06 -2.05898e-27)
(2.0198e-05 -5.27514e-06 -1.99254e-27)
(2.04009e-05 -5.2927e-06 -1.88474e-27)
(2.05939e-05 -5.30513e-06 7.09027e-28)
(2.07768e-05 -5.31266e-06 1.57386e-27)
(2.09497e-05 -5.31553e-06 2.82052e-27)
(2.11125e-05 -5.31404e-06 2.46175e-27)
(2.12653e-05 -5.3085e-06 -2.39334e-27)
(2.14079e-05 -5.29927e-06 -2.30653e-27)
(2.15403e-05 -5.28673e-06 3.55542e-27)
(2.16624e-05 -5.27129e-06 1.53837e-27)
(2.17741e-05 -5.25338e-06 -1.77852e-27)
(2.18754e-05 -5.23346e-06 1.69512e-27)
(2.1966e-05 -5.21194e-06 2.11124e-28)
(2.20456e-05 -5.18926e-06 -2.81114e-27)
(2.21141e-05 -5.16579e-06 -2.67285e-27)
(2.2171e-05 -5.14181e-06 1.58807e-28)
(2.2216e-05 -5.11749e-06 1.70122e-27)
(2.22485e-05 -5.09289e-06 1.99712e-27)
(2.22687e-05 -5.0679e-06 3.94554e-27)
(2.22764e-05 -5.04337e-06 1.34433e-27)
(3.92409e-07 -2.19829e-07 -1.73715e-26)
(3.87777e-07 -2.84525e-07 -4.1563e-27)
(3.9305e-07 -3.98496e-07 2.20774e-26)
(4.29145e-07 -4.81267e-07 -1.49593e-26)
(4.96818e-07 -5.37806e-07 -7.79868e-27)
(5.92153e-07 -5.7596e-07 2.07109e-26)
(7.1062e-07 -6.00921e-07 -1.21843e-26)
(8.49353e-07 -6.17144e-07 -1.06043e-26)
(1.00641e-06 -6.27907e-07 3.06167e-27)
(1.18072e-06 -6.35827e-07 7.42734e-27)
(1.37173e-06 -6.42939e-07 6.49427e-27)
(1.57927e-06 -6.50875e-07 -1.76417e-28)
(1.80348e-06 -6.60942e-07 -4.71564e-27)
(2.04467e-06 -6.74215e-07 3.97815e-27)
(2.30335e-06 -6.91593e-07 6.13914e-27)
(2.58016e-06 -7.13866e-07 -4.15548e-28)
(2.87588e-06 -7.41768e-07 -5.76162e-27)
(3.19138e-06 -7.7603e-07 1.87768e-27)
(3.52767e-06 -8.17432e-07 2.56312e-27)
(3.88582e-06 -8.66848e-07 -4.95192e-27)
(4.26704e-06 -9.25277e-07 -2.62316e-27)
(4.67265e-06 -9.93875e-07 1.28007e-27)
(4.29206e-07 2.29633e-07 -1.6495e-26)
(4.30291e-06 2.67105e-07 -8.28412e-28)
(3.92575e-06 3.45877e-07 -4.08223e-27)
(3.5729e-06 4.14115e-07 3.25189e-27)
(3.24293e-06 4.72762e-07 5.39343e-27)
(2.93448e-06 5.22727e-07 -4.11628e-27)
(2.64632e-06 5.64888e-07 -6.48811e-28)
(2.37727e-06 6.00069e-07 -3.31172e-27)
(2.1263e-06 6.29018e-07 -1.63551e-27)
(1.89244e-06 6.52371e-07 2.12322e-27)
(1.6749e-06 6.70605e-07 3.54699e-27)
(1.47303e-06 6.83989e-07 -2.52202e-27)
(1.28638e-06 6.92528e-07 -7.86607e-27)
(1.11473e-06 6.95896e-07 4.67685e-27)
(9.58182e-07 6.93359e-07 3.39851e-27)
(8.17258e-07 6.83689e-07 9.08514e-27)
(6.93044e-07 6.64983e-07 -2.12673e-27)
(5.8753e-07 6.34587e-07 -7.80552e-27)
(5.03677e-07 5.8858e-07 3.24401e-27)
(4.46146e-07 5.22195e-07 -6.63973e-27)
(4.18992e-07 4.27937e-07 -2.96371e-27)
(4.2124e-07 3.01092e-07 -5.78641e-27)
)


// ************************************************************************* //
