/*--------------------------------*- C++ -*----------------------------------*\
| =========                 |                                                 |
| \\      /  F ield         | OpenFOAM Extend Project: Open source CFD        |
|  \\    /   O peration     | Version:  1.6-ext                               |
|   \\  /    A nd           | Web:      www.extend-project.de                 |
|    \\/     M anipulation  |                                                 |
\*---------------------------------------------------------------------------*/
FoamFile
{
    version     2.0;
    format      ascii;
    class       tetPointVectorField;
    location    "0.25";
    object      motionU;
}
// * * * * * * * * * * * * * * * * * * * * * * * * * * * * * * * * * * * * * //

dimensions      [0 1 -1 0 0 0 0];

internalField   nonuniform List<vector> 
147960
(
(0 0 0)
(-0.000945713 -1.92555e-05 0)
(0.00562429 -0.00154777 8.30533e-26)
(0.00495918 -0.000283931 2.93667e-24)
(0.0251721 -0.00960016 -1.1408e-23)
(0.0251351 -0.00957874 -3.61846e-24)
(0.0250884 -0.00954808 -1.36286e-24)
(0.0250312 -0.00951734 2.08714e-24)
(0.0249641 -0.00948671 -4.79044e-25)
(0.0248867 -0.00945591 3.94607e-24)
(0.0247988 -0.00942506 1.71802e-24)
(0.0246998 -0.00939413 -6.94875e-24)
(0.0245894 -0.00936306 -3.59671e-24)
(0.0244674 -0.0093317 1.84719e-25)
(0.0243334 -0.00929984 -1.98316e-25)
(0.0241873 -0.00926723 -2.5687e-24)
(0.0240287 -0.00923353 -6.76185e-25)
(0.0238576 -0.00919836 5.05184e-24)
(0.0236739 -0.0091613 1.32525e-24)
(0.0234773 -0.00912185 -4.15766e-24)
(0.0232679 -0.00907947 -5.39646e-25)
(0.0230457 -0.00903359 5.61892e-24)
(0.0228104 -0.00898356 2.18155e-24)
(0.0225622 -0.00892873 -5.39642e-25)
(0.0223012 -0.00886839 -1.35007e-24)
(0.0220272 -0.00880183 -2.70129e-24)
(0.0217405 -0.0087283 4.19584e-24)
(0.0214411 -0.00864709 3.80948e-24)
(0.0211292 -0.00855746 2.46139e-24)
(0.0208049 -0.00845873 4.69535e-24)
(0.0204685 -0.00835021 4.41449e-25)
(0.0201202 -0.00823131 -2.47651e-24)
(0.0197603 -0.00810147 -1.53198e-24)
(0.0193891 -0.0079602 5.42284e-25)
(0.0190068 -0.0078071 -4.02224e-24)
(0.0186139 -0.00764188 -8.81749e-25)
(0.0182108 -0.00746432 2.62502e-24)
(0.0177979 -0.00727433 -1.62627e-24)
(0.0173755 -0.00707194 -8.60078e-25)
(0.0169442 -0.0068573 5.33812e-24)
(0.0165045 -0.00663066 -1.75413e-25)
(0.0160568 -0.00639245 -4.50714e-24)
(0.0156017 -0.00614319 -2.90627e-24)
(0.0151398 -0.00588357 -5.6838e-24)
(0.0146716 -0.0056144 8.73125e-25)
(0.0141978 -0.00533663 5.01559e-24)
(0.013719 -0.00505133 -5.65413e-24)
(0.0132358 -0.00475972 1.93544e-24)
(0.012749 -0.00446314 2.08001e-24)
(0.0122592 -0.00416302 -4.06533e-24)
(0.0117672 -0.00386091 7.48551e-24)
(0.0112737 -0.00355842 3.88691e-25)
(0.0107794 -0.00325722 -3.27497e-24)
(0.0102851 -0.00295901 2.00911e-25)
(0.00979132 -0.00266545 -1.70219e-25)
(0.00929877 -0.00237817 -2.81623e-24)
(0.00880792 -0.00209872 3.47018e-25)
(0.00831913 -0.00182849 5.15797e-24)
(0.00783259 -0.00156873 -5.56772e-25)
(0.00734829 -0.0013205 1.91699e-24)
(0.00686596 -0.0010847 4.21865e-24)
(0.00638511 -0.000862021 -3.42422e-24)
(0.00590503 -0.000653066 -4.33723e-24)
(0.00542482 -0.000458328 1.18029e-24)
(0.0252255 -0.00959161 7.97358e-24)
(0.0252038 -0.00960168 -1.63077e-23)
(0.0252211 -0.00957457 -8.76448e-24)
(0.0252314 -0.00958118 -6.90081e-25)
(0.0061513 -0.00171344 1.20359e-24)
(0.00669325 -0.00190243 -3.14707e-24)
(0.00723258 -0.00210894 1.17707e-24)
(0.00776941 -0.00233196 -2.30212e-26)
(0.00830375 -0.00257019 -1.44969e-23)
(0.00883542 -0.00282201 9.43087e-24)
(0.0093641 -0.00308565 1.42624e-23)
(0.00988933 -0.00335923 -6.49419e-24)
(0.0104105 -0.00364082 -6.4302e-24)
(0.0109271 -0.00392852 -3.25929e-24)
(0.0114385 -0.00422046 3.59256e-24)
(0.0119439 -0.00451481 3.45635e-24)
(0.0124427 -0.00480985 -8.71375e-25)
(0.0129345 -0.00510392 6.35853e-24)
(0.0134186 -0.00539542 4.66686e-25)
(0.0138947 -0.00568289 -9.60682e-24)
(0.0143623 -0.00596494 -1.99083e-25)
(0.0148212 -0.00624028 2.35281e-24)
(0.015271 -0.00650774 -2.31925e-25)
(0.0157116 -0.00676625 -9.80541e-25)
(0.0161428 -0.00701487 1.52434e-24)
(0.0165644 -0.00725277 1.24971e-24)
(0.0169765 -0.00747925 -4.37837e-25)
(0.0173789 -0.00769372 -2.5578e-25)
(0.0177717 -0.00789573 -7.23421e-24)
(0.0181547 -0.00808496 -5.13505e-24)
(0.018528 -0.00826119 4.40775e-24)
(0.0188916 -0.00842434 6.03455e-24)
(0.0192456 -0.00857444 -1.34433e-24)
(0.0195899 -0.00871163 -3.13443e-24)
(0.0199245 -0.00883617 1.81839e-24)
(0.0202495 -0.00894838 6.03519e-24)
(0.0205649 -0.00904872 3.05821e-24)
(0.0208706 -0.00913769 -1.62418e-24)
(0.0211666 -0.00921588 2.19277e-25)
(0.021453 -0.00928392 4.47694e-25)
(0.0217296 -0.00934252 -1.99567e-24)
(0.0219965 -0.0093924 -6.83724e-24)
(0.0222534 -0.00943429 -5.31412e-27)
(0.0225005 -0.00946897 -1.49805e-24)
(0.0227374 -0.00949718 -2.73222e-24)
(0.0229642 -0.00951967 -1.2741e-24)
(0.0231808 -0.00953717 -3.10588e-24)
(0.0233869 -0.00955037 3.81524e-24)
(0.0235826 -0.00955993 4.86047e-24)
(0.0237676 -0.00956649 4.81887e-24)
(0.023942 -0.00957061 4.34395e-24)
(0.0241055 -0.00957283 9.01865e-25)
(0.0242582 -0.00957364 -3.66242e-25)
(0.0244001 -0.00957349 -2.46315e-24)
(0.024531 -0.00957275 -4.58853e-24)
(0.024651 -0.00957178 -1.59452e-24)
(0.0247602 -0.00957086 2.24422e-24)
(0.0248586 -0.00957024 2.52412e-24)
(0.0249463 -0.00957009 9.92026e-25)
(0.0250235 -0.00957049 -5.97512e-25)
(0.0250903 -0.00957144 -4.1757e-24)
(0.0251468 -0.00957237 -1.83377e-24)
(0.0251922 -0.00957288 6.16866e-24)
(0.0120566 -0.00820065 0)
(0.0251563 -0.00957373 0)
(0.0250667 -0.00956218 0)
(0.0248264 -0.00954529 0)
(0.0245096 -0.00951583 0)
(0.0240619 -0.00947479 0)
(0.0234952 -0.00941957 0)
(0.0227894 -0.00935136 0)
(0.0219832 -0.00926444 0)
(0.0209876 -0.00916768 0)
(0.0199221 -0.0090488 0)
(0.0186845 -0.00891036 0)
(0.0172157 -0.0087651 0)
(0.0157564 -0.00858786 0)
(0.0140217 -0.00839418 0)
(0.00213262 -0.000913615 0)
(0.00250698 -0.00105912 0)
(0.00289187 -0.00120918 0)
(0.00328554 -0.00136442 0)
(0.00368899 -0.00152727 0)
(0.00410354 -0.00169843 0)
(0.00452444 -0.00187702 0)
(0.00494825 -0.00206322 0)
(0.00537258 -0.00225712 0)
(0.0057976 -0.00245842 0)
(0.00622437 -0.00266632 0)
(0.0066523 -0.0028798 0)
(0.00707792 -0.00309793 0)
(0.00749679 -0.00331992 0)
(0.00790669 -0.00354501 0)
(0.00830841 -0.00377222 0)
(0.00870445 -0.00400041 0)
(0.00909599 -0.00422844 0)
(0.00948 -0.00445516 0)
(0.0098531 -0.00467958 0)
(0.0102146 -0.00490117 0)
(0.010566 -0.00511921 0)
(0.0109105 -0.00533287 0)
(0.0112485 -0.00554133 0)
(0.0115804 -0.00574399 0)
(0.011906 -0.00594027 0)
(0.0122248 -0.00612959 0)
(0.0125358 -0.00631135 0)
(0.0128368 -0.00648499 0)
(0.0131259 -0.00665002 0)
(0.0134023 -0.00680605 0)
(0.0136684 -0.0069528 0)
(0.0139278 -0.00709045 0)
(0.0141817 -0.00721953 0)
(0.0144274 -0.00734017 0)
(0.0146636 -0.00745228 0)
(0.0148897 -0.00755588 0)
(0.0151079 -0.00765166 0)
(0.0153224 -0.00774053 0)
(0.0155311 -0.00782258 0)
(0.0157334 -0.00789809 0)
(0.0159257 -0.00796742 0)
(0.0161003 -0.00803099 0)
(0.0162457 -0.00808905 0)
(0.0163487 -0.00814124 0)
(0.0163996 -0.00818667 0)
(0.0164022 -0.00822444 0)
(0.0163762 -0.00825452 0)
(0.0163403 -0.00827836 0)
(0.0162866 -0.0082982 0)
(0.016183 -0.00831551 0)
(0.0160066 -0.00832959 0)
(0.0157652 -0.00833824 0)
(0.0154802 -0.00834009 0)
(0.0151675 -0.00833506 0)
(0.0148252 -0.00832425 0)
(0.0144328 -0.00830881 0)
(0.0139702 -0.00828929 0)
(0.01342 -0.00826542 0)
(0.0127664 -0.00823716 0)
(0.0121716 -0.00810418 0)
(0.01409 -0.00830353 0)
(0.0158595 -0.00849908 0)
(0.0172704 -0.00868672 0)
(0.0186575 -0.0088399 0)
(0.0199644 -0.00897809 0)
(0.0209855 -0.00910801 0)
(0.0219373 -0.00921272 0)
(0.0227941 -0.00930316 0)
(0.0234441 -0.00938397 0)
(0.0240231 -0.00944587 0)
(0.0244711 -0.00949639 0)
(0.0247778 -0.00953597 0)
(0.0250103 -0.00956298 0)
(0.025106 -0.00958446 0)
(0.00177765 -0.000506713 0)
(0.00489994 -0.000274851 0)
(0.00483532 -0.000273135 0)
(0.0047438 -0.000276995 0)
(0.00463614 -0.000286022 0)
(0.00450362 -0.000298677 0)
(0.00435178 -0.000314381 0)
(0.00417949 -0.0003321 0)
(0.00397667 -0.000350131 0)
(0.00376129 -0.000369213 0)
(0.00351625 -0.000389405 0)
(0.00322857 -0.000410066 0)
(0.0029155 -0.000432587 0)
(0.00256241 -0.000456362 0)
(0.00218323 -0.000480675 0)
(0.0128955 -0.00813331 0)
(0.0135243 -0.00815422 0)
(0.0140598 -0.00816858 0)
(0.0145154 -0.0081767 0)
(0.0149023 -0.00817903 0)
(0.0152363 -0.00817553 0)
(0.0155382 -0.0081653 0)
(0.0158114 -0.00814733 0)
(0.0160423 -0.00812164 0)
(0.0162099 -0.00808964 0)
(0.016304 -0.00805364 0)
(0.0163448 -0.00801457 0)
(0.016364 -0.00797123 0)
(0.016371 -0.00792162 0)
(0.0163494 -0.00786443 0)
(0.01628 -0.00779973 0)
(0.0161584 -0.00772841 0)
(0.0159929 -0.00765133 0)
(0.0157959 -0.00756891 0)
(0.0155786 -0.00748098 0)
(0.0153492 -0.00738716 0)
(0.0151114 -0.00728708 0)
(0.0148663 -0.00718043 0)
(0.0146161 -0.00706706 0)
(0.0143571 -0.00694634 0)
(0.0140872 -0.00681769 0)
(0.0138072 -0.00668091 0)
(0.0135183 -0.00653605 0)
(0.0132237 -0.00638302 0)
(0.0129225 -0.00622146 0)
(0.0126113 -0.0060513 0)
(0.0122884 -0.0058728 0)
(0.0119544 -0.00568635 0)
(0.0116118 -0.0054924 0)
(0.0112631 -0.00529145 0)
(0.0109098 -0.00508405 0)
(0.0105526 -0.00487076 0)
(0.010192 -0.00465218 0)
(0.00982797 -0.00442897 0)
(0.00946047 -0.00420192 0)
(0.00908635 -0.00397244 0)
(0.00870442 -0.00374169 0)
(0.00831543 -0.00351036 0)
(0.00792284 -0.00327965 0)
(0.00752982 -0.00305064 0)
(0.00713522 -0.0028243 0)
(0.00673636 -0.00260165 0)
(0.00633217 -0.00238387 0)
(0.00592478 -0.00217217 0)
(0.00551865 -0.00196771 0)
(0.00511737 -0.00177147 0)
(0.00472151 -0.00158431 0)
(0.00432953 -0.00140702 0)
(0.00394033 -0.00124039 0)
(0.00355532 -0.00108518 0)
(0.00317758 -0.000942091 0)
(0.00281183 -0.000812158 0)
(0.00245643 -0.000695984 0)
(0.00211071 -0.000593916 0)
(0.0025303 -0.000576697 0)
(0.00294903 -0.000561632 0)
(0.00332322 -0.000545603 0)
(0.00363873 -0.000530483 0)
(0.00395273 -0.000517638 0)
(0.00421257 -0.000504459 0)
(0.00443329 -0.000492166 0)
(0.00465534 -0.000481293 0)
(0.00482705 -0.000470289 0)
(0.00498501 -0.000461462 0)
(0.0051219 -0.000454606 0)
(0.00522824 -0.000450183 0)
(0.00531813 -0.00044963 0)
(0.00537999 -0.000452894 0)
(0.00290285 -0.000688583 0)
(0.00335363 -0.000681903 0)
(0.00373223 -0.000673741 0)
(0.00406709 -0.000667207 0)
(0.00439997 -0.000661959 0)
(0.00466422 -0.000655967 0)
(0.00490397 -0.000651247 0)
(0.005131 -0.000647117 0)
(0.00530532 -0.000642851 0)
(0.00547066 -0.000640246 0)
(0.00560589 -0.000638458 0)
(0.00571248 -0.000638246 0)
(0.00580084 -0.000640588 0)
(0.00585863 -0.000645549 0)
(0.00329132 -0.000814296 0)
(0.00376659 -0.000816234 0)
(0.0041504 -0.000816684 0)
(0.00450586 -0.000818941 0)
(0.00485327 -0.000821248 0)
(0.00512168 -0.000822855 0)
(0.00537617 -0.000825831 0)
(0.00560979 -0.000828349 0)
(0.0057846 -0.000830621 0)
(0.00595564 -0.000833688 0)
(0.00609013 -0.000836723 0)
(0.00619572 -0.000840543 0)
(0.0062833 -0.000845882 0)
(0.0063393 -0.000853072 0)
(0.00369297 -0.00095389 0)
(0.00418867 -0.000964366 0)
(0.00457709 -0.000973842 0)
(0.00495252 -0.00098496 0)
(0.00531272 -0.000995412 0)
(0.0055838 -0.00100465 0)
(0.00585075 -0.00101482 0)
(0.00608983 -0.00102397 0)
(0.00626472 -0.00103245 0)
(0.00644046 -0.00104105 0)
(0.00657564 -0.00104887 0)
(0.0066796 -0.00105664 0)
(0.00676647 -0.00106505 0)
(0.00682096 -0.00107447 0)
(0.0041046 -0.00110634 0)
(0.00461933 -0.00112567 0)
(0.00500988 -0.00114437 0)
(0.00540303 -0.00116425 0)
(0.00577775 -0.0011827 0)
(0.00604895 -0.00119974 0)
(0.00632552 -0.00121705 0)
(0.00657329 -0.0012329 0)
(0.00674692 -0.00124759 0)
(0.00692499 -0.0012615 0)
(0.00706168 -0.00127415 0)
(0.0071651 -0.00128594 0)
(0.00725084 -0.0012974 0)
(0.0073037 -0.00130903 0)
(0.00452296 -0.00127095 0)
(0.00505662 -0.00129937 0)
(0.00544721 -0.00132734 0)
(0.00585541 -0.00135579 0)
(0.00624623 -0.00138232 0)
(0.00651937 -0.00140725 0)
(0.00680206 -0.00143163 0)
(0.00705749 -0.00145418 0)
(0.00723229 -0.0014751 0)
(0.00741084 -0.00149426 0)
(0.0075479 -0.0015117 0)
(0.00765156 -0.00152761 0)
(0.00773709 -0.00154219 0)
(0.00778847 -0.00155603 0)
(0.00494402 -0.00144692 0)
(0.00549888 -0.00148463 0)
(0.00588884 -0.00152189 0)
(0.00630885 -0.00155866 0)
(0.00671752 -0.00159335 0)
(0.00699411 -0.00162636 0)
(0.00728109 -0.00165769 0)
(0.0075424 -0.00168693 0)
(0.00771846 -0.00171411 0)
(0.00789819 -0.00173826 0)
(0.00803527 -0.00176058 0)
(0.00813909 -0.00178078 0)
(0.00822482 -0.00179849 0)
(0.00827532 -0.00181456 0)
(0.00536531 -0.00163338 0)
(0.00594462 -0.00168056 0)
(0.00633611 -0.00172718 0)
(0.00676343 -0.00177186 0)
(0.00718962 -0.00181474 0)
(0.00747258 -0.0018562 0)
(0.00776264 -0.0018944 0)
(0.0080277 -0.00193017 0)
(0.00820502 -0.00196374 0)
(0.00838807 -0.00199362 0)
(0.00852577 -0.00202054 0)
(0.00862858 -0.00204447 0)
(0.00871434 -0.00206525 0)
(0.00876419 -0.00208357 0)
(0.00578674 -0.00182947 0)
(0.00639227 -0.00188625 0)
(0.00678962 -0.00194247 0)
(0.0072237 -0.00199547 0)
(0.00766282 -0.0020463 0)
(0.00795148 -0.00209568 0)
(0.00824695 -0.0021407 0)
(0.00851461 -0.0021829 0)
(0.00869192 -0.00222271 0)
(0.00887788 -0.00225793 0)
(0.009017 -0.00228959 0)
(0.00912004 -0.00231744 0)
(0.00920592 -0.00234129 0)
(0.00925506 -0.00236184 0)
(0.00620979 -0.00203434 0)
(0.00684036 -0.00210071 0)
(0.0072473 -0.00216668 0)
(0.00768937 -0.00222762 0)
(0.00813734 -0.00228618 0)
(0.00842967 -0.00234353 0)
(0.0087316 -0.00239533 0)
(0.00900341 -0.00244388 0)
(0.00918011 -0.00248977 0)
(0.00936832 -0.00253015 0)
(0.00950882 -0.00256655 0)
(0.00961255 -0.00259834 0)
(0.00969898 -0.00262525 0)
(0.00974757 -0.00264798 0)
(0.00663563 -0.00224716 0)
(0.00728738 -0.00232289 0)
(0.00770502 -0.00239854 0)
(0.00815791 -0.00246731 0)
(0.00861445 -0.00253348 0)
(0.00890841 -0.00259862 0)
(0.00921541 -0.00265702 0)
(0.00949207 -0.0027118 0)
(0.00966955 -0.00276366 0)
(0.00986017 -0.00280905 0)
(0.0100017 -0.00285009 0)
(0.0101059 -0.00288576 0)
(0.010193 -0.00291564 0)
(0.0102412 -0.00294049 0)
(0.00706356 -0.002467 0)
(0.007733 -0.00255175 0)
(0.00815953 -0.00263667 0)
(0.0086268 -0.00271334 0)
(0.00909343 -0.00278717 0)
(0.00938839 -0.00285984 0)
(0.00969921 -0.00292453 0)
(0.00998028 -0.00298532 0)
(0.0101593 -0.00304297 0)
(0.010353 -0.00309324 0)
(0.0104955 -0.00313879 0)
(0.0106 -0.00317819 0)
(0.0106877 -0.00321092 0)
(0.0107356 -0.00323775 0)
(0.00749137 -0.00269282 0)
(0.00817872 -0.00278643 0)
(0.00861358 -0.00288097 0)
(0.00909486 -0.00296529 0)
(0.00957201 -0.00304602 0)
(0.00986895 -0.0031259 0)
(0.0101838 -0.00319659 0)
(0.010469 -0.00326312 0)
(0.0106492 -0.00332633 0)
(0.0108457 -0.00338128 0)
(0.0109893 -0.00343113 0)
(0.0110941 -0.00347406 0)
(0.0111824 -0.00350945 0)
(0.0112298 -0.00353812 0)
(0.00791625 -0.00292338 0)
(0.00862388 -0.00302568 0)
(0.00906673 -0.00312935 0)
(0.00955991 -0.00322095 0)
(0.0100485 -0.00330856 0)
(0.0103484 -0.00339545 0)
(0.0106679 -0.00347187 0)
(0.0109576 -0.00354383 0)
(0.0111387 -0.00361232 0)
(0.0113379 -0.00367166 0)
(0.0114824 -0.00372556 0)
(0.0115875 -0.00377179 0)
(0.0116764 -0.0038096 0)
(0.0117234 -0.00383992 0)
(0.00833656 -0.00315738 0)
(0.00906496 -0.00326791 0)
(0.00951787 -0.00338068 0)
(0.010023 -0.00347941 0)
(0.0105227 -0.00357355 0)
(0.0108253 -0.00366712 0)
(0.0111499 -0.00374895 0)
(0.0114445 -0.00382601 0)
(0.0116267 -0.00389943 0)
(0.0118284 -0.00396286 0)
(0.0119739 -0.00402051 0)
(0.0120794 -0.00406974 0)
(0.0121689 -0.00410973 0)
(0.0122155 -0.00414148 0)
(0.00875415 -0.00339383 0)
(0.00950379 -0.00351294 0)
(0.00996701 -0.00363451 0)
(0.0104835 -0.00373945 0)
(0.0109941 -0.00383973 0)
(0.0112995 -0.00393959 0)
(0.0116296 -0.00402643 0)
(0.0119289 -0.00410818 0)
(0.012112 -0.00418612 0)
(0.0123166 -0.00425332 0)
(0.0124634 -0.00431442 0)
(0.0125693 -0.00436634 0)
(0.0126593 -0.00440824 0)
(0.0127054 -0.00444121 0)
(0.00917099 -0.00363158 0)
(0.00994086 -0.00375873 0)
(0.0104123 -0.00388857 0)
(0.0109402 -0.00399967 0)
(0.011462 -0.00410577 0)
(0.0117713 -0.00421153 0)
(0.0121071 -0.00430295 0)
(0.0124108 -0.00438899 0)
(0.0125943 -0.00447075 0)
(0.0128023 -0.00454153 0)
(0.0129506 -0.00460587 0)
(0.0130568 -0.0046601 0)
(0.0131471 -0.0047036 0)
(0.0131924 -0.00473756 0)
(0.00958367 -0.00386928 0)
(0.0103754 -0.00400435 0)
(0.0108544 -0.00414206 0)
(0.0113935 -0.00425888 0)
(0.0119268 -0.00437039 0)
(0.0122404 -0.00448164 0)
(0.0125818 -0.00457731 0)
(0.0128902 -0.00466738 0)
(0.0130754 -0.00475335 0)
(0.0132864 -0.00482701 0)
(0.013435 -0.00489351 0)
(0.0135412 -0.0049496 0)
(0.0136314 -0.00499437 0)
(0.0136758 -0.00502908 0)
(0.00999079 -0.00410687 0)
(0.0108054 -0.00424939 0)
(0.0112922 -0.00439394 0)
(0.0118431 -0.00451594 0)
(0.0123883 -0.0046324 0)
(0.0127058 -0.00474873 0)
(0.0130526 -0.00484824 0)
(0.0133658 -0.00494192 0)
(0.0135527 -0.0050313 0)
(0.0137663 -0.00510736 0)
(0.0139155 -0.00517588 0)
(0.0140214 -0.00523349 0)
(0.0141115 -0.00527923 0)
(0.014155 -0.00531444 0)
(0.0103935 -0.00434243 0)
(0.0112288 -0.00449174 0)
(0.0117245 -0.00464296 0)
(0.0122882 -0.0047697 0)
(0.0128451 -0.00489065 0)
(0.0131661 -0.00501158 0)
(0.0135186 -0.00511447 0)
(0.013837 -0.00521125 0)
(0.0140254 -0.00530348 0)
(0.0142415 -0.00538153 0)
(0.0143912 -0.00545173 0)
(0.0144966 -0.00551052 0)
(0.0145865 -0.00555693 0)
(0.0146291 -0.00559242 0)
(0.0107905 -0.00457537 0)
(0.0116455 -0.00473057 0)
(0.0121503 -0.00488799 0)
(0.0127271 -0.00501902 0)
(0.0132958 -0.005144 0)
(0.0136209 -0.00526906 0)
(0.0139794 -0.00537485 0)
(0.0143031 -0.00547422 0)
(0.0144929 -0.00556882 0)
(0.0147114 -0.00564842 0)
(0.0148613 -0.00571993 0)
(0.0149663 -0.00577958 0)
(0.0150559 -0.00582637 0)
(0.0150976 -0.00586192 0)
(0.0111803 -0.00480381 0)
(0.0120554 -0.00496479 0)
(0.0125696 -0.00512797 0)
(0.0131595 -0.00526285 0)
(0.0137403 -0.00539142 0)
(0.0140698 -0.00552015 0)
(0.0144347 -0.00562836 0)
(0.0147635 -0.00572982 0)
(0.0149545 -0.00582632 0)
(0.0151751 -0.00590708 0)
(0.0153252 -0.00597951 0)
(0.0154298 -0.00603966 0)
(0.0155192 -0.00608656 0)
(0.0155598 -0.00612198 0)
(0.0115654 -0.00502718 0)
(0.0124598 -0.00519351 0)
(0.0129829 -0.00536198 0)
(0.0135855 -0.00550029 0)
(0.0141784 -0.00563205 0)
(0.0145126 -0.00576394 0)
(0.0148837 -0.00587407 0)
(0.0152171 -0.00597713 0)
(0.0154091 -0.00607511 0)
(0.0156318 -0.00615665 0)
(0.0157823 -0.00622964 0)
(0.0158866 -0.00628996 0)
(0.0159758 -0.00633669 0)
(0.0160152 -0.00637178 0)
(0.0119463 -0.00524479 0)
(0.0128593 -0.00541601 0)
(0.0133905 -0.00558929 0)
(0.0140055 -0.0057306 0)
(0.0146102 -0.00586507 0)
(0.0149488 -0.00599963 0)
(0.0153256 -0.00611118 0)
(0.0156626 -0.00621511 0)
(0.0158558 -0.00631442 0)
(0.0160807 -0.00639644 0)
(0.0162318 -0.00646959 0)
(0.0163359 -0.00652976 0)
(0.0164251 -0.00657605 0)
(0.0164634 -0.00661064 0)
(0.0123232 -0.00545607 0)
(0.0132541 -0.00563169 0)
(0.0137928 -0.00580924 0)
(0.0144196 -0.00595307 0)
(0.0150356 -0.00608976 0)
(0.0153784 -0.00622651 0)
(0.0157607 -0.00633916 0)
(0.0161021 -0.00644419 0)
(0.016296 -0.00654423 0)
(0.0165221 -0.00662585 0)
(0.0166733 -0.00669874 0)
(0.0167772 -0.00675845 0)
(0.0168664 -0.00680409 0)
(0.0169036 -0.00683799 0)
(0.0126958 -0.00566046 0)
(0.0136441 -0.00583997 0)
(0.0141899 -0.00602124 0)
(0.0148278 -0.00616708 0)
(0.0154544 -0.00630553 0)
(0.0158008 -0.00644403 0)
(0.0161881 -0.00655741 0)
(0.0165335 -0.00666295 0)
(0.0167276 -0.00676317 0)
(0.0169552 -0.00684429 0)
(0.0171066 -0.00691661 0)
(0.0172102 -0.00697559 0)
(0.0172993 -0.00702036 0)
(0.0173354 -0.00705344 0)
(0.0130627 -0.00585745 0)
(0.0140286 -0.00604037 0)
(0.0145811 -0.00622482 0)
(0.0152294 -0.0063722 0)
(0.0158656 -0.00651195 0)
(0.0162147 -0.00665174 0)
(0.0166068 -0.00676537 0)
(0.016956 -0.006871 0)
(0.0171505 -0.00697109 0)
(0.0173796 -0.00705144 0)
(0.0175313 -0.00712288 0)
(0.0176344 -0.00718084 0)
(0.0177231 -0.00722456 0)
(0.0177582 -0.00725668 0)
(0.0134211 -0.00604658 0)
(0.0144048 -0.00623248 0)
(0.0149642 -0.00641962 0)
(0.0156226 -0.0065681 0)
(0.0162679 -0.00670871 0)
(0.0166197 -0.00684926 0)
(0.017016 -0.00696249 0)
(0.01737 -0.00706812 0)
(0.0175646 -0.00716778 0)
(0.0177949 -0.00724706 0)
(0.0179468 -0.00731734 0)
(0.0180494 -0.00737405 0)
(0.0181377 -0.00741652 0)
(0.0181717 -0.00744757 0)
(0.0137677 -0.00622745 0)
(0.0147694 -0.00641594 0)
(0.0153366 -0.00660534 0)
(0.0160058 -0.0067545 0)
(0.0166607 -0.00689556 0)
(0.0170157 -0.00703655 0)
(0.0174173 -0.00714954 0)
(0.0177759 -0.00725468 0)
(0.0179699 -0.00735314 0)
(0.0182009 -0.00743101 0)
(0.0183526 -0.00749988 0)
(0.0184547 -0.00755513 0)
(0.0185426 -0.0075962 0)
(0.0185754 -0.00762607 0)
(0.0141011 -0.00639967 0)
(0.0151207 -0.00659041 0)
(0.0156965 -0.00678166 0)
(0.0163775 -0.00693117 0)
(0.0170426 -0.00707235 0)
(0.0174011 -0.00721342 0)
(0.0178081 -0.00732573 0)
(0.0181707 -0.00742988 0)
(0.0183651 -0.00752707 0)
(0.018597 -0.00760328 0)
(0.0187483 -0.00767053 0)
(0.0188498 -0.00772413 0)
(0.0189373 -0.00776365 0)
(0.0189689 -0.00779227 0)
(0.0144234 -0.00656295 0)
(0.0154603 -0.00675562 0)
(0.0160445 -0.0069484 0)
(0.0167374 -0.00709798 0)
(0.0174129 -0.00723894 0)
(0.0177747 -0.00737949 0)
(0.0181885 -0.00749109 0)
(0.0185548 -0.007594 0)
(0.0187497 -0.00768967 0)
(0.0189828 -0.00776398 0)
(0.0191335 -0.00782941 0)
(0.0192342 -0.0078812 0)
(0.0193212 -0.00791906 0)
(0.0193517 -0.00794635 0)
(0.0147388 -0.00671733 0)
(0.0157912 -0.00691157 0)
(0.0163824 -0.00710553 0)
(0.0170864 -0.00725493 0)
(0.0177722 -0.00739545 0)
(0.0181387 -0.00753565 0)
(0.0185591 -0.00764617 0)
(0.0189283 -0.00774721 0)
(0.0191236 -0.00784109 0)
(0.0193577 -0.00791333 0)
(0.0195078 -0.00797677 0)
(0.0196076 -0.00802662 0)
(0.0196942 -0.00806271 0)
(0.0197235 -0.00808863 0)
(0.015048 -0.0068631 0)
(0.0161142 -0.00705847 0)
(0.0167109 -0.00725321 0)
(0.017425 -0.00740212 0)
(0.0181202 -0.00754181 0)
(0.0184919 -0.00768172 0)
(0.0189178 -0.00779059 0)
(0.0192906 -0.0078897 0)
(0.0194863 -0.0079816 0)
(0.0197215 -0.00805162 0)
(0.0198712 -0.00811294 0)
(0.01997 -0.00816073 0)
(0.0200558 -0.00819499 0)
(0.0200839 -0.00821948 0)
(0.0153477 -0.00700047 0)
(0.0164277 -0.00719657 0)
(0.0170298 -0.00739167 0)
(0.0177527 -0.0075397 0)
(0.0184594 -0.00767907 0)
(0.0188354 -0.0078182 0)
(0.0192653 -0.00792483 0)
(0.0196414 -0.00802177 0)
(0.0198375 -0.00811153 0)
(0.020074 -0.00817921 0)
(0.0202233 -0.00823829 0)
(0.0203209 -0.00828397 0)
(0.0204058 -0.00831635 0)
(0.0204327 -0.00833938 0)
(0.0156364 -0.0071295 0)
(0.0167309 -0.00732607 0)
(0.0173385 -0.0075211 0)
(0.018073 -0.00766878 0)
(0.0187895 -0.0078074 0)
(0.0191672 -0.0079448 0)
(0.019601 -0.00804918 0)
(0.0199801 -0.00814383 0)
(0.0201767 -0.0082313 0)
(0.0204145 -0.00829652 0)
(0.0205634 -0.0083533 0)
(0.02066 -0.00839683 0)
(0.0207441 -0.00842732 0)
(0.0207697 -0.00844888 0)
(0.0159158 -0.00725036 0)
(0.0170253 -0.00744742 0)
(0.0176396 -0.0076428 0)
(0.0183849 -0.00778963 0)
(0.0191077 -0.00792648 0)
(0.0194869 -0.00806206 0)
(0.0199244 -0.00816408 0)
(0.0203063 -0.00825634 0)
(0.0205034 -0.0083414 0)
(0.0207425 -0.0084041 0)
(0.0208912 -0.00845853 0)
(0.020987 -0.00849989 0)
(0.0210703 -0.00852847 0)
(0.0210946 -0.00854859 0)
(0.0161878 -0.00736424 0)
(0.017312 -0.00756159 0)
(0.0179323 -0.00775681 0)
(0.0186849 -0.00790184 0)
(0.0194142 -0.00803683 0)
(0.0197946 -0.00817047 0)
(0.0202352 -0.00827004 0)
(0.0206197 -0.00835981 0)
(0.0208171 -0.00844239 0)
(0.0210574 -0.00850254 0)
(0.0212061 -0.00855459 0)
(0.0213014 -0.00859376 0)
(0.0213841 -0.00862045 0)
(0.0214071 -0.00863915 0)
(0.0164515 -0.00747076 0)
(0.0175886 -0.00766796 0)
(0.0182136 -0.00786252 0)
(0.0189737 -0.00800582 0)
(0.0197087 -0.0081389 0)
(0.0200895 -0.00827051 0)
(0.0205328 -0.00836759 0)
(0.0209194 -0.00845483 0)
(0.0211171 -0.00853488 0)
(0.0213589 -0.00859244 0)
(0.0215079 -0.0086421 0)
(0.0216029 -0.00867909 0)
(0.0216852 -0.00870394 0)
(0.0217071 -0.00872125 0)
(0.0167058 -0.00757039 0)
(0.017854 -0.00776711 0)
(0.0184826 -0.0079607 0)
(0.019249 -0.00810217 0)
(0.0199885 -0.00823326 0)
(0.0203695 -0.00836276 0)
(0.0208154 -0.00845728 0)
(0.0212044 -0.00854194 0)
(0.0214028 -0.00861943 0)
(0.0216464 -0.00867441 0)
(0.021796 -0.00872172 0)
(0.0218911 -0.00875659 0)
(0.0219734 -0.00877964 0)
(0.0219943 -0.00879563 0)
(0.0169495 -0.00766354 0)
(0.0181063 -0.00785953 0)
(0.0187362 -0.00805193 0)
(0.0195072 -0.0081914 0)
(0.0202506 -0.00832038 0)
(0.020632 -0.00844764 0)
(0.0210812 -0.00853955 0)
(0.0214735 -0.00862161 0)
(0.0216735 -0.0086966 0)
(0.0219195 -0.00874909 0)
(0.0220704 -0.00879414 0)
(0.0221661 -0.00882696 0)
(0.0222485 -0.00884829 0)
(0.0222688 -0.00886301 0)
(0.0171781 -0.00775054 0)
(0.0183403 -0.00794553 0)
(0.0189691 -0.00813648 0)
(0.0197435 -0.00827376 0)
(0.020491 -0.00840048 0)
(0.0208744 -0.00852542 0)
(0.021329 -0.00861476 0)
(0.0217264 -0.00869436 0)
(0.0219296 -0.00876699 0)
(0.0221791 -0.00881716 0)
(0.0223317 -0.00886006 0)
(0.0224282 -0.00889093 0)
(0.0225109 -0.00891061 0)
(0.0225304 -0.00892411 0)
(0.017382 -0.00783167 0)
(0.0185461 -0.00802529 0)
(0.0191729 -0.00821445 0)
(0.0199522 -0.00834934 0)
(0.0207074 -0.00847373 0)
(0.0210971 -0.00859646 0)
(0.0215606 -0.00868343 0)
(0.0219656 -0.00876082 0)
(0.0221731 -0.00883132 0)
(0.0224264 -0.00887931 0)
(0.0225807 -0.00892019 0)
(0.0226777 -0.0089492 0)
(0.0227604 -0.00896731 0)
(0.022779 -0.00897965 0)
(0.0175498 -0.00790698 0)
(0.0187149 -0.00809877 0)
(0.0193435 -0.00828582 0)
(0.0201345 -0.00841826 0)
(0.0209044 -0.0085405 0)
(0.0213055 -0.00866132 0)
(0.0217804 -0.00874629 0)
(0.0221931 -0.00882176 0)
(0.0224046 -0.0088903 0)
(0.0226612 -0.00893625 0)
(0.0228169 -0.00897519 0)
(0.0229143 -0.00900244 0)
(0.022997 -0.00901906 0)
(0.0230147 -0.00903033 0)
(0.0176738 -0.00797602 0)
(0.0188464 -0.0081656 0)
(0.0194876 -0.0083505 0)
(0.0203003 -0.00848081 0)
(0.0210902 -0.00860145 0)
(0.0215032 -0.00872087 0)
(0.0219873 -0.00880418 0)
(0.0224062 -0.00887787 0)
(0.0226215 -0.00894453 0)
(0.022882 -0.00898852 0)
(0.0230396 -0.00902565 0)
(0.0231378 -0.00905127 0)
(0.0232205 -0.00906653 0)
(0.0232375 -0.00907681 0)
(0.0177556 -0.00803801 0)
(0.0189512 -0.00822546 0)
(0.019618 -0.00840882 0)
(0.0204565 -0.00853786 0)
(0.0212628 -0.00865758 0)
(0.0216828 -0.0087759 0)
(0.0221748 -0.00885756 0)
(0.0226018 -0.00892946 0)
(0.0228233 -0.00899433 0)
(0.0230892 -0.00903657 0)
(0.0232493 -0.00907211 0)
(0.0233483 -0.00909629 0)
(0.0234312 -0.00911033 0)
(0.0234474 -0.00911973 0)
(0.017809 -0.00809269 0)
(0.0190429 -0.00827895 0)
(0.0197368 -0.00846196 0)
(0.0205923 -0.00859056 0)
(0.021408 -0.00870951 0)
(0.021837 -0.00882647 0)
(0.0223435 -0.00890637 0)
(0.0227833 -0.00897669 0)
(0.0230125 -0.00904017 0)
(0.0232833 -0.00908101 0)
(0.0234456 -0.00911521 0)
(0.0235456 -0.00913812 0)
(0.0236287 -0.00915107 0)
(0.0236443 -0.00915967 0)
(0.0178494 -0.008141 0)
(0.0191191 -0.00832762 0)
(0.0198253 -0.00851118 0)
(0.0206901 -0.00863919 0)
(0.0215235 -0.00875671 0)
(0.0219743 -0.00887219 0)
(0.0225005 -0.0089509 0)
(0.0229515 -0.00902038 0)
(0.0231857 -0.0090829 0)
(0.0234611 -0.00912254 0)
(0.023627 -0.00915552 0)
(0.0237291 -0.00917729 0)
(0.0238132 -0.00918928 0)
(0.0238284 -0.00919717 0)
(0.017872 -0.00818477 0)
(0.0191559 -0.00837275 0)
(0.0198659 -0.0085563 0)
(0.0207564 -0.00868259 0)
(0.0216261 -0.00879874 0)
(0.0221006 -0.00891392 0)
(0.0226387 -0.00899251 0)
(0.0230962 -0.00906143 0)
(0.0233381 -0.00912291 0)
(0.0236236 -0.00916136 0)
(0.0237954 -0.00919334 0)
(0.0239001 -0.00921422 0)
(0.0239851 -0.00922541 0)
(0.0239999 -0.00923271 0)
(0.0178494 -0.00822532 0)
(0.0191367 -0.00841375 0)
(0.0198736 -0.00859566 0)
(0.0208128 -0.00872049 0)
(0.0217143 -0.00883715 0)
(0.0221984 -0.00895329 0)
(0.022745 -0.00903154 0)
(0.0232183 -0.00909938 0)
(0.0234797 -0.00915988 0)
(0.0237762 -0.00919771 0)
(0.0239513 -0.00922919 0)
(0.0240579 -0.00924942 0)
(0.0241441 -0.00925996 0)
(0.0241588 -0.00926675 0)
(0.0177628 -0.00826186 0)
(0.0190789 -0.0084486 0)
(0.0198713 -0.00862907 0)
(0.020851 -0.00875491 0)
(0.0217652 -0.00887349 0)
(0.0222577 -0.00898971 0)
(0.0228292 -0.00906673 0)
(0.0233368 -0.00913389 0)
(0.0236123 -0.00919459 0)
(0.0239099 -0.00923264 0)
(0.0240894 -0.00926368 0)
(0.0242014 -0.00928325 0)
(0.0242906 -0.00929326 0)
(0.0243052 -0.00929965 0)
(0.0176249 -0.00829219 0)
(0.0190053 -0.00847692 0)
(0.0198496 -0.00865864 0)
(0.0208476 -0.00878722 0)
(0.0217707 -0.00890643 0)
(0.0222916 -0.00902159 0)
(0.0229151 -0.00909814 0)
(0.0234421 -0.00916643 0)
(0.0237111 -0.00922846 0)
(0.0240208 -0.0092661 0)
(0.0242155 -0.00929641 0)
(0.0243351 -0.00931578 0)
(0.024425 -0.00932563 0)
(0.0244394 -0.00933174 0)
(0.0174574 -0.00831534 0)
(0.0189136 -0.00850036 0)
(0.0197875 -0.00868577 0)
(0.0207887 -0.00881608 0)
(0.0217399 -0.00893434 0)
(0.0223303 -0.00904904 0)
(0.0229836 -0.0091274 0)
(0.0234952 -0.00919842 0)
(0.0237873 -0.00926012 0)
(0.0241284 -0.00929671 0)
(0.0243356 -0.00932772 0)
(0.0244549 -0.00934768 0)
(0.0245454 -0.00935743 0)
(0.0245617 -0.00936327 0)
(0.0172692 -0.00833201 0)
(0.0187861 -0.00852049 0)
(0.0196585 -0.0087098 0)
(0.0206773 -0.00883971 0)
(0.0217145 -0.00895661 0)
(0.0223503 -0.00907345 0)
(0.0229815 -0.00915627 0)
(0.0235273 -0.00922731 0)
(0.0238684 -0.00928744 0)
(0.0242253 -0.00932618 0)
(0.0244316 -0.00935898 0)
(0.024554 -0.0093791 0)
(0.0246543 -0.0093886 0)
(0.0246728 -0.00939444 0)
(0.017052 -0.00834364 0)
(0.0185887 -0.00853764 0)
(0.0194596 -0.0087289 0)
(0.0205617 -0.00885636 0)
(0.0216684 -0.00897444 0)
(0.0222889 -0.00909745 0)
(0.0229555 -0.00918132 0)
(0.0235622 -0.0092502 0)
(0.0239258 -0.00931388 0)
(0.0242875 -0.00935567 0)
(0.0245022 -0.00938885 0)
(0.0246472 -0.00940908 0)
(0.0247557 -0.00941916 0)
(0.0247717 -0.00942547 0)
(0.0167761 -0.00835124 0)
(0.0183102 -0.00855048 0)
(0.019229 -0.00874059 0)
(0.0204182 -0.00886687 0)
(0.0215485 -0.00899082 0)
(0.0221937 -0.00911711 0)
(0.0229127 -0.00919919 0)
(0.0235643 -0.00927164 0)
(0.0239474 -0.0093393 0)
(0.0243205 -0.00938213 0)
(0.0245708 -0.0094163 0)
(0.0247341 -0.00943801 0)
(0.02484 -0.00944981 0)
(0.0248583 -0.00945639 0)
(0.016424 -0.00835448 0)
(0.017965 -0.00855681 0)
(0.0189537 -0.00874471 0)
(0.0202236 -0.00887332 0)
(0.0213802 -0.00900254 0)