/*--------------------------------*- C++ -*----------------------------------*\
| =========                 |                                                 |
| \\      /  F ield         | OpenFOAM Extend Project: Open source CFD        |
|  \\    /   O peration     | Version:  1.6-ext                               |
|   \\  /    A nd           | Web:      www.extend-project.de                 |
|    \\/     M anipulation  |                                                 |
\*---------------------------------------------------------------------------*/
FoamFile
{
    version     2.0;
    format      ascii;
    class       volScalarField;
    location    "0.25";
    object      p;
}
// * * * * * * * * * * * * * * * * * * * * * * * * * * * * * * * * * * * * * //

dimensions      [0 2 -2 0 0 0 0];

internalField   nonuniform List<scalar> 
20940
(
0.0909508
0.0454675
-0.00217247
-0.0522246
-0.104122
-0.157931
-0.213153
-0.269323
-0.325591
-0.380843
-0.433702
-0.482718
-0.526626
-0.564606
-0.596436
-0.62248
-0.643542
-0.660651
-0.67478
-0.686764
-0.698197
-0.710309
0.0638526
0.0189891
-0.0281057
-0.0769279
-0.127233
-0.178865
-0.231306
-0.283967
-0.335923
-0.386045
-0.433074
-0.475844
-0.513504
-0.545687
-0.572551
-0.594679
-0.612908
-0.628142
-0.641144
-0.652508
-0.663565
-0.675341
0.0405605
-0.00356407
-0.0498988
-0.0972926
-0.145768
-0.194946
-0.244288
-0.293098
-0.340426
-0.385209
-0.426402
-0.463181
-0.495112
-0.52221
-0.544895
-0.563844
-0.579831
-0.593591
-0.605675
-0.616464
-0.627045
-0.638262
0.0185119
-0.0247782
-0.0701661
-0.115907
-0.162255
-0.208615
-0.25444
-0.298965
-0.341292
-0.380522
-0.415904
-0.446994
-0.473733
-0.496422
-0.515617
-0.531982
-0.546163
-0.558711
-0.569984
-0.580192
-0.590224
-0.600785
-0.0020967
-0.044562
-0.0889282
-0.132889
-0.176903
-0.220157
-0.262127
-0.302041
-0.339148
-0.372806
-0.402616
-0.428503
-0.450708
-0.469699
-0.486056
-0.50035
-0.51307
-0.524589
-0.535107
-0.544704
-0.55411
-0.563937
-0.0218508
-0.0635824
-0.106907
-0.14896
-0.190389
-0.230197
-0.267943
-0.302949
-0.334717
-0.362937
-0.387579
-0.408875
-0.427255
-0.443239
-0.457339
-0.469988
-0.481507
-0.492117
-0.501899
-0.510844
-0.519553
-0.528573
-0.0410992
-0.0821702
-0.124446
-0.164466
-0.203075
-0.239125
-0.272346
-0.302258
-0.32872
-0.351797
-0.371792
-0.389158
-0.4044
-0.41799
-0.430312
-0.441639
-0.452145
-0.461923
-0.47097
-0.47922
-0.487175
-0.495331
-0.0605305
-0.101254
-0.142603
-0.180465
-0.21594
-0.247821
-0.276155
-0.300793
-0.322031
-0.340309
-0.356193
-0.370245
-0.382941
-0.394632
-0.405543
-0.41579
-0.425414
-0.434412
-0.442724
-0.450253
-0.457414
-0.464668
-0.0802028
-0.12071
-0.161172
-0.196756
-0.228869
-0.256318
-0.279591
-0.298973
-0.315233
-0.32915
-0.341468
-0.352759
-0.363399
-0.373579
-0.383357
-0.392702
-0.401546
-0.409812
-0.417401
-0.424201
-0.430553
-0.436889
-0.100917
-0.141879
-0.181739
-0.214899
-0.243248
-0.265815
-0.283718
-0.297776
-0.309235
-0.319136
-0.328304
-0.33724
-0.346167
-0.3551
-0.363933
-0.372504
-0.38065
-0.388233
-0.395128
-0.401217
-0.406772
-0.412196
-0.121735
-0.163225
-0.202516
-0.233323
-0.25794
-0.275709
-0.288416
-0.297445
-0.304479
-0.310765
-0.31715
-0.324033
-0.331477
-0.339331
-0.34734
-0.355226
-0.362743
-0.3697
-0.37595
-0.38137
-0.386169
-0.390715
-0.143825
-0.187167
-0.226408
-0.25474
-0.275202
-0.287808
-0.295133
-0.299162
-0.301927
-0.304797
-0.308576
-0.313536
-0.319584
-0.326416
-0.333644
-0.340887
-0.347821
-0.354206
-0.35987
-0.364685
-0.368799
-0.372542
-0.163198
-0.208295
-0.247606
-0.27447
-0.291783
-0.300288
-0.303133
-0.302884
-0.301886
-0.301647
-0.302964
-0.306033
-0.310656
-0.316417
-0.322825
-0.329409
-0.335774
-0.341628
-0.346771
-0.351065
-0.354602
-0.357666
-0.184454
-0.233493
-0.273237
-0.298234
-0.311754
-0.315788
-0.314032
-0.309589
-0.304977
-0.301755
-0.300671
-0.30184
-0.304975
-0.309576
-0.315072
-0.320922
-0.326672
-0.331985
-0.336632
-0.340463
-0.343531
-0.346083
-0.193517
-0.247444
-0.288847
-0.315438
-0.32838
-0.330848
-0.32664
-0.31938
-0.311825
-0.30576
-0.302069
-0.300961
-0.302194
-0.305269
-0.309586
-0.314548
-0.319638
-0.324453
-0.328716
-0.33224
-0.335039
-0.337325
-0.21913
-0.276883
-0.314966
-0.339122
-0.348131
-0.346802
-0.339125
-0.328971
-0.319026
-0.310953
-0.305511
-0.302832
-0.302635
-0.304414
-0.307572
-0.311524
-0.315753
-0.319859
-0.32356
-0.326667
-0.329188
-0.331325
-0.27686
-0.32745
-0.352946
-0.365677
-0.364837
-0.357053
-0.345522
-0.333509
-0.322796
-0.314425
-0.308732
-0.305637
-0.304795
-0.305721
-0.307894
-0.310813
-0.314047
-0.317265
-0.320237
-0.322811
-0.325032
-0.327101
-0.314235
-0.356919
-0.374456
-0.381214
-0.375981
-0.365802
-0.352931
-0.340238
-0.329012
-0.320066
-0.313622
-0.309589
-0.307664
-0.307436
-0.30846
-0.310306
-0.312599
-0.315048
-0.317442
-0.319637
-0.321706
-0.323849
-0.34416
-0.379115
-0.390335
-0.392562
-0.384468
-0.372847
-0.359265
-0.346219
-0.334669
-0.325268
-0.318172
-0.313295
-0.310381
-0.309088
-0.309045
-0.309888
-0.311297
-0.313017
-0.314859
-0.316688
-0.318601
-0.320798
-0.363069
-0.391481
-0.399146
-0.398805
-0.38965
-0.37763
-0.364005
-0.350925
-0.339205
-0.329419
-0.32172
-0.316057
-0.312233
-0.309972
-0.308964
-0.308903
-0.309508
-0.310554
-0.311864
-0.313308
-0.314994
-0.317116
-0.37126
-0.394945
-0.401362
-0.399882
-0.390825
-0.379019
-0.365767
-0.352915
-0.341246
-0.33129
-0.323218
-0.317012
-0.312519
-0.309517
-0.307745
-0.306938
-0.306852
-0.307278
-0.308051
-0.30905
-0.310368
-0.312178
-0.368466
-0.389349
-0.39623
-0.394789
-0.386724
-0.375751
-0.363361
-0.351153
-0.339921
-0.330171
-0.322093
-0.315697
-0.310869
-0.307422
-0.305137
-0.303782
-0.303133
-0.303002
-0.30323
-0.303704
-0.304479
-0.305687
-0.354623
-0.374545
-0.383112
-0.382815
-0.376544
-0.367112
-0.356189
-0.345189
-0.334919
-0.32587
-0.318251
-0.312094
-0.307313
-0.303756
-0.301232
-0.299537
-0.298469
-0.29785
-0.297533
-0.29741
-0.297471
-0.297787
-0.330013
-0.35074
-0.361961
-0.363957
-0.360324
-0.353267
-0.344537
-0.335418
-0.326719
-0.318921
-0.312249
-0.30676
-0.302398
-0.299043
-0.296534
-0.294693
-0.293341
-0.292312
-0.291469
-0.290712
-0.289936
-0.28914
-0.296888
-0.319822
-0.334363
-0.339659
-0.339439
-0.33556
-0.32973
-0.323142
-0.316584
-0.310532
-0.30523
-0.300765
-0.297118
-0.294207
-0.291908
-0.290076
-0.288555
-0.287196
-0.285876
-0.284503
-0.282863
-0.28087
-0.258043
-0.284431
-0.302869
-0.312351
-0.316262
-0.316262
-0.313937
-0.310398
-0.306406
-0.302444
-0.298784
-0.295555
-0.29279
-0.290455
-0.288473
-0.286739
-0.285132
-0.283523
-0.281812
-0.279915
-0.277516
-0.274442
-0.219467
-0.249732
-0.272089
-0.286006
-0.294263
-0.298368
-0.299736
-0.299395
-0.298075
-0.296268
-0.294287
-0.292313
-0.290438
-0.288686
-0.287034
-0.285426
-0.283783
-0.282012
-0.28004
-0.277804
-0.27492
-0.271132
-0.183923
-0.218774
-0.245456
-0.264151
-0.276938
-0.285186
-0.290158
-0.292833
-0.293951
-0.294046
-0.293496
-0.292554
-0.291377
-0.290056
-0.288623
-0.287077
-0.285389
-0.283511
-0.281413
-0.279068
-0.2761
-0.272222
-0.160076
-0.198217
-0.227925
-0.25006
-0.266137
-0.277402
-0.284997
-0.289856
-0.292725
-0.294175
-0.294632
-0.294403
-0.293698
-0.29265
-0.291341
-0.289814
-0.288093
-0.286192
-0.284142
-0.281985
-0.279485
-0.27637
-0.143352
-0.186498
-0.220704
-0.247024
-0.266577
-0.280576
-0.290202
-0.296492
-0.300315
-0.302363
-0.303165
-0.303105
-0.302444
-0.301344
-0.299892
-0.29813
-0.296089
-0.293812
-0.291397
-0.289017
-0.286843
-0.285054
1.46673
1.51766
1.56854
1.61928
1.66946
1.71866
1.76648
1.81252
1.8564
1.89771
1.93611
1.97124
2.00282
2.03061
2.05447
2.07447
2.09095
2.1046
2.1164
2.12758
2.14103
2.15865
1.45848
1.5091
1.55935
1.60946
1.65895
1.70743
1.75451
1.79977
1.84285
1.88334
1.9209
1.95519
1.98592
2.01285
2.03588
2.05508
2.07081
2.08382
2.09511
2.10596
2.11923
2.13679
1.43821
1.48813
1.53708
1.58593
1.63413
1.68126
1.72694
1.77077
1.81236
1.85135
1.88736
1.92008
1.94921
1.97453
1.99595
2.01358
2.02785
2.03959
2.04987
2.06003
2.07293
2.09036
1.40911
1.45797
1.50496
1.55187
1.59805
1.64307
1.68656
1.72813
1.76741
1.80401
1.83759
1.86783
1.89445
1.91724
1.93615
1.95135
1.96335
1.97309
1.98179
1.99087
2.00318
2.02036
1.37052
1.41796
1.46238
1.50677
1.55032
1.5926
1.63325
1.67189
1.70815
1.74165
1.77206
1.79906
1.82239
1.84185
1.85745
1.86942
1.8784
1.88548
1.89206
1.89968
1.91118
1.928
1.32417
1.36982
1.41108
1.45238
1.49271
1.53162
1.56878
1.60381
1.63634
1.66602
1.69252
1.71552
1.73477
1.75012
1.76161
1.76956
1.77478
1.77854
1.78245
1.78821
1.79864
1.81495
1.271
1.31452
1.3521
1.38984
1.42644
1.46145
1.49457
1.52541
1.55363
1.57887
1.6008
1.61913
1.63361
1.64413
1.65076
1.65396
1.65469
1.65447
1.65516
1.65864
1.66773
1.68335
1.21275
1.2538
1.28728
1.32104
1.35344
1.38406
1.41263
1.43876
1.4621
1.48231
1.49907
1.51209
1.52114
1.52613
1.52721
1.52494
1.52048
1.51563
1.51254
1.51332
1.52076
1.53547
1.15094
1.18918
1.21823
1.24769
1.27556
1.30146
1.3251
1.34612
1.36416
1.37889
1.38999
1.39718
1.40025
1.39911
1.39399
1.38558
1.37526
1.36512
1.35767
1.35527
1.36069
1.37421
1.08755
1.12267
1.14706
1.17196
1.19499
1.21582
1.23419
1.24971
1.26203
1.27084
1.27581
1.27668
1.27323
1.2654
1.25349
1.23831
1.22148
1.20543
1.19306
1.18702
1.19006
1.20206
1.02395
1.05562
1.07529
1.09555
1.11366
1.12934
1.14232
1.15221
1.15866
1.16134
1.15995
1.15418
1.14385
1.12892
1.10971
1.08719
1.06322
1.04061
1.02268
1.01245
1.01265
1.02274
0.962355
0.990283
1.00516
1.02061
1.03361
1.04391
1.05125
1.05523
1.05551
1.05174
1.04362
1.03087
1.01329
0.990847
0.963932
0.933638
0.902071
0.872426
0.848492
0.83368
0.830668
0.83843
0.903129
0.92697
0.93749
0.948406
0.956578
0.961804
0.963787
0.962119
0.95644
0.946401
0.931671
0.911952
0.887026
0.856865
0.821883
0.783295
0.743479
0.706067
0.675401
0.65537
0.648628
0.65359
0.849544
0.8683
0.874369
0.880505
0.883631
0.883524
0.879859
0.872226
0.860257
0.843601
0.821927
0.794943
0.762437
0.724403
0.681302
0.634474
0.586546
0.541544
0.504294
0.479098
0.468484
0.470158
0.799423
0.813037
0.816081
0.818099
0.817012
0.812456
0.804037
0.791323
0.77391
0.751404
0.723433
0.689653
0.649798
0.603812
0.552141
0.496209
0.438933
0.384907
0.339748
0.308491
0.29371
0.292153
0.761247
0.763013
0.763041
0.760719
0.754615
0.74472
0.730571
0.711761
0.687891
0.658572
0.623436
0.582157
0.534512
0.480542
0.420877
0.357235
0.292924
0.232921
0.183083
0.148439
0.131026
0.126797
0.720703
0.712698
0.707741
0.698152
0.684658
0.667028
0.644793
0.617635
0.585211
0.547204
0.503333
0.453393
0.397356
0.335577
0.269155
0.200349
0.13286
0.0716136
0.0218103
-0.0125865
-0.0308246
-0.0376884
0.672512
0.657537
0.647763
0.631621
0.61184
0.587521
0.558354
0.524059
0.484336
0.438936
0.38766
0.330418
0.267363
0.199131
0.127203
0.0542557
-0.0157273
-0.0778901
-0.127554
-0.161622
-0.180505
-0.189639
0.621394
0.600581
0.58555
0.563081
0.53723
0.506507
0.470852
0.429983
0.383655
0.331675
0.273918
0.210412
0.141498
0.0681062
-0.00790364
-0.0834856
-0.154479
-0.216231
-0.264695
-0.297685
-0.316641
-0.327358
0.568189
0.542251
0.521908
0.4936
0.462062
0.425411
0.383824
0.337001
0.284766
0.226987
0.16363
0.0948654
0.0212644
-0.0559189
-0.134452
-0.210998
-0.281375
-0.341321
-0.387564
-0.418841
-0.43745
-0.449265
0.514005
0.483596
0.458132
0.424583
0.387875
0.345944
0.299145
0.247168
0.189905
0.127291
0.0593969
-0.0134412
-0.0903997
-0.169897
-0.249376
-0.325325
-0.393704
-0.450797
-0.494157
-0.523381
-0.541411
-0.55399
0.460076
0.425806
0.395575
0.357426
0.316142
0.269647
0.21841
0.16213
0.10077
0.0343363
-0.0369789
-0.11265
-0.191587
-0.271901
-0.350784
-0.424688
-0.489882
-0.543302
-0.583336
-0.61032
-0.627638
-0.640732
0.407255
0.369726
0.335211
0.293153
0.247968
0.197691
0.142852
0.083175
0.0186941
-0.0504985
-0.124072
-0.201294
-0.280805
-0.36045
-0.437274
-0.507842
-0.56887
-0.618028
-0.654484
-0.679176
-0.695725
-0.709159
0.356616
0.316411
0.278178
0.232913
0.184536
0.131275
0.0736784
0.0115157
-0.055105
-0.125992
-0.200657
-0.278148
-0.356856
-0.434422
-0.507868
-0.574018
-0.630157
-0.674699
-0.707513
-0.729969
-0.745755
-0.7594
0.308526
0.26621
0.224879
0.177117
0.126291
0.0708618
0.0113736
-0.052345
-0.120107
-0.191605
-0.266178
-0.342655
-0.419212
-0.49338
-0.562291
-0.623164
-0.673924
-0.713706
-0.742951
-0.763303
-0.778363
-0.792114
0.263859
0.219964
0.176169
0.126588
0.0740268
0.0171995
-0.0433658
-0.107767
-0.175728
-0.246809
-0.320165
-0.394421
-0.467598
-0.537226
-0.600679
-0.655684
-0.700835
-0.735911
-0.761789
-0.780225
-0.794612
-0.808375
0.222277
0.177284
0.131647
0.0809019
0.0273105
-0.0301547
-0.0909871
-0.155198
-0.22241
-0.292038
-0.363055
-0.433915
-0.502568
-0.566666
-0.623953
-0.672734
-0.712255
-0.742831
-0.765616
-0.782341
-0.7961
-0.809769
0.184637
0.138992
0.0920989
0.0407756
-0.0132183
-0.0706556
-0.131047
-0.1943
-0.259927
-0.327184
-0.394877
-0.461345
-0.524565
-0.582433
-0.633165
-0.675672
-0.709784
-0.736216
-0.756249
-0.771482
-0.784647
-0.798108
0.149706
0.103768
0.0561479
0.00478517
-0.0490141
-0.105778
-0.165025
-0.226547
-0.289731
-0.353679
-0.417064
-0.478194
-0.535191
-0.586315
-0.630321
-0.666705
-0.695771
-0.718483
-0.736114
-0.750042
-0.76261
-0.775717
0.118927
0.0730314
0.0251607
-0.025781
-0.078885
-0.13444
-0.191963
-0.251116
-0.311158
-0.371059
-0.429418
-0.484609
-0.53501
-0.579326
-0.616855
-0.647595
-0.672182
-0.69168
-0.707247
-0.719996
-0.731867
-0.74435
0.138988
0.0928923
0.0447481
-0.00649083
-0.0599366
-0.115843
-0.173714
-0.233174
-0.293447
-0.353455
-0.411766
-0.466737
-0.516765
-0.560603
-0.59761
-0.627844
-0.651985
-0.671112
-0.686383
-0.698894
-0.710542
-0.722779
0.169659
0.12352
0.0756179
0.0239626
-0.0301765
-0.0872895
-0.146888
-0.208734
-0.272177
-0.336276
-0.399659
-0.460607
-0.517242
-0.567862
-0.611284
-0.647079
-0.675611
-0.697879
-0.715162
-0.728826
-0.741162
-0.754023
0.204271
0.158421
0.111224
0.0596024
0.00526007
-0.0525331
-0.113288
-0.176885
-0.242805
-0.310262
-0.378012
-0.444354
-0.50725
-0.564616
-0.614725
-0.656573
-0.690065
-0.715973
-0.735601
-0.750539
-0.763465
-0.776684
0.241349
0.19614
0.150162
0.099101
0.0451424
-0.0126944
-0.0739082
-0.138487
-0.206029
-0.275908
-0.347048
-0.417856
-0.486247
-0.549876
-0.606534
-0.654607
-0.693435
-0.723409
-0.745727
-0.762122
-0.775634
-0.789071
0.282125
0.237996
0.193811
0.143886
0.0909265
0.0337006
-0.0272736
-0.0920751
-0.160408
-0.231799
-0.305354
-0.379645
-0.452647
-0.521874
-0.584727
-0.639008
-0.683413
-0.71782
-0.743169
-0.761237
-0.77537
-0.788914
0.325738
0.283162
0.241379
0.193233
0.141968
0.0861023
0.0261678
-0.0379925
-0.106176
-0.178047
-0.252902
-0.329514
-0.406006
-0.479872
-0.548251
-0.608423
-0.658417
-0.697477
-0.72614
-0.746086
-0.760885
-0.774437
0.372537
0.33204
0.293283
0.247583
0.198717
0.144971
0.0868805
0.0242252
-0.0428748
-0.114206
-0.189244
-0.266982
-0.345753
-0.423146
-0.496168
-0.561684
-0.617072
-0.660869
-0.693059
-0.715078
-0.730599
-0.744066
0.42167
0.383812
0.348694
0.306141
0.260408
0.209589
0.154198
0.093968
0.0289409
-0.0407748
-0.114818
-0.192409
-0.272127
-0.351754
-0.4283
-0.498344
-0.558681
-0.607105
-0.642918
-0.667149
-0.683433
-0.696719
0.472809
0.438165
0.407251
0.368538
0.326641
0.279537
0.227683
0.17078
0.108798
0.041755
-0.030134
-0.106302
-0.185602
-0.266074
-0.344858
-0.418393
-0.483002
-0.53574
-0.57514
-0.601656
-0.618717
-0.631699
0.524934
0.494096
0.467871
0.433681
0.396292
0.353678
0.306188
0.25351
0.195542
0.132225
0.063647
-0.00982227
-0.0873063
-0.167154
-0.246739
-0.322513
-0.390462
-0.446972
-0.489741
-0.51851
-0.536302
-0.548815
0.57725
0.550816
0.529639
0.500608
0.468317
0.430906
0.388548
0.340942
0.287912
0.22933
0.165175
0.0956432
0.0213496
-0.0563839
-0.135249
-0.211848
-0.281995
-0.341503
-0.387239
-0.418102
-0.436506
-0.448313
0.628597
0.607204
0.591276
0.567997
0.541322
0.509759
0.473253
0.431513
0.384297
0.331411
0.27274
0.208328
0.138554
0.064408
-0.0121704
-0.0880593
-0.159062
-0.220569
-0.268655
-0.301303
-0.320106
-0.330886
0.677919
0.662254
0.65154
0.634501
0.613825
0.588588
0.558486
0.523231
0.482523
0.436112
0.383802
0.325517
0.261438
0.192253
0.119519
0.0460001
-0.0242587
-0.0864076
-0.135864
-0.169696
-0.188496
-0.197779
0.724436
0.715558
0.709627
0.69906
0.684602
0.665988
0.642746
0.61455
0.581055
0.541942
0.496931
0.445824
0.388612
0.325694
0.258235
0.188589
0.120538
0.0590386
0.00923034
-0.0250709
-0.0433204
-0.0504311
0.763758
0.76446
0.763499
0.760145
0.753004
0.742057
0.726824
0.706894
0.681863
0.651338
0.614949
0.572372
0.523397
0.468091
0.407144
0.342364
0.277164
0.216593
0.16649
0.131762
0.11422
0.109635
0.800145
0.812472
0.814501
0.815487
0.813323
0.807667
0.798109
0.784212
0.765567
0.741776
0.712464
0.67729
0.635996
0.588552
0.535456
0.478218
0.419863
0.365065
0.319448
0.287951
0.27293
0.270927
0.848042
0.865414
0.870455
0.875528
0.877536
0.876289
0.87144
0.862574
0.84932
0.831322
0.808251
0.779815
0.745812
0.706259
0.661667
0.613455
0.564347
0.518445
0.48059
0.455015
0.444058
0.445226
0.899642
0.922116
0.93159
0.941432
0.948466
0.952525
0.953292
0.950354
0.943349
0.931924
0.915748
0.894526
0.868047
0.836309
0.79977
0.759719
0.718624
0.680194
0.648796
0.62827
0.621102
0.625512
0.956956
0.983556
0.997372
1.01175
1.0236
1.03272
1.03883
1.04152
1.04045
1.03528
1.0257
1.01143
0.992274
0.968238
0.939744
0.907952
0.875054
0.844317
0.819565
0.804177
0.800682
0.807873
1.01694
1.04739
1.066
1.0852
1.10218
1.11668
1.12843
1.13704
1.14215
1.14344
1.14058
1.1333
1.1214
1.10488
1.08409
1.06006
1.03473
1.01097
0.992163
0.981303
0.980983
0.990506
1.07926
1.11325
1.1366
1.16046
1.18239
1.20207
1.21924
1.2335
1.24452
1.25195
1.2555
1.25488
1.2499
1.24053
1.22706
1.2104
1.19221
1.17502
1.16174
1.15504
1.15755
1.169
1.14178
1.179
1.20706
1.23553
1.26234
1.28714
1.30964
1.32945
1.34624
1.35965
1.36939
1.37516
1.37676
1.37413
1.36753
1.35768
1.34604
1.33477
1.32642
1.32336
1.32826
1.34126
1.20316
1.24331
1.27587
1.30869
1.3401
1.3697
1.39719
1.42219
1.44435
1.46332
1.4788
1.49049
1.49818
1.50177
1.50146
1.49784
1.49213
1.4862
1.48225
1.48239
1.48933
1.50357
1.26146
1.3042
1.34094
1.37783
1.41352
1.44759
1.47972
1.50954
1.53668
1.56079
1.58156
1.59867
1.61191
1.62115
1.62651
1.62848
1.62806
1.62684
1.62672
1.62961
1.63824
1.65344
1.31515
1.36014
1.40064
1.44119
1.48073
1.5188
1.55509
1.58921
1.62079
1.64948
1.67494
1.69687
1.71502
1.72925
1.73961
1.74647
1.75066
1.75353
1.75672
1.76193
1.77196
1.78791
1.36246
1.40936
1.45314
1.49689
1.53977
1.58134
1.62126
1.65912
1.69457
1.72723
1.75676
1.78285
1.80524
1.82376
1.8384
1.84943
1.85754
1.86386
1.86982
1.87697
1.88813
1.90464
1.40239
1.45083
1.49732
1.54372
1.58936
1.63381
1.67671
1.71766
1.75629
1.79222
1.8251
1.85461
1.88048
1.90251
1.92065
1.9351
1.9464
1.95552
1.96372
1.97242
1.98447
2.00141
1.43317
1.48279
1.53137
1.57985
1.62765
1.67437
1.71962
1.763
1.80412
1.84261
1.87811
1.9103
1.93888
1.96364
1.9845
2.00159
2.01535
2.02663
2.03654
2.04643
2.05913
2.07638
1.45536
1.5058
1.55582
1.6057
1.65496
1.70319
1.75
1.79499
1.83777
1.87797
1.91522
1.94919
1.97958
2.00618
2.02886
2.04772
2.06314
2.07587
2.08694
2.09762
2.11077
2.12823
1.46567
1.51654
1.56734
1.61801
1.66811
1.71722
1.76495
1.81091
1.85468
1.8959
1.93419
1.96922
2.00069
2.02836
2.05211
2.072
2.08836
2.10192
2.11365
2.12477
2.13818
2.15576
0.110905
0.0835184
0.059794
0.0371759
0.0159056
-0.0045721
-0.0245721
-0.0447299
-0.0650625
-0.0862819
-0.107397
-0.129431
-0.148409
-0.168753
-0.176737
-0.200839
-0.257042
-0.292981
-0.321695
-0.33973
-0.347457
-0.344677
-0.331326
-0.3076
-0.275584
-0.2379
-0.200382
-0.165694
-0.142422
-0.125856
0.0652196
0.0384456
0.0154521
-0.00634308
-0.0268098
-0.0465856
-0.0659743
-0.0858527
-0.106058
-0.127835
-0.149582
-0.173568
-0.19433
-0.218633
-0.231236
-0.259014
-0.308595
-0.33694
-0.358208
-0.369874
-0.372933
-0.367296
-0.352825
-0.329663
-0.299571
-0.265047
-0.231132
-0.200779
-0.180621
-0.168896
0.0173039
-0.00893809
-0.0311925
-0.0520708
-0.0715572
-0.0903457
-0.108755
-0.127794
-0.147214
-0.168509
-0.189796
-0.213852
-0.234746
-0.259594
-0.273813
-0.298533
-0.33602
-0.356638
-0.371687
-0.379742
-0.381403
-0.376022
-0.362991
-0.342214
-0.315168
-0.284281
-0.254055
-0.227825
-0.210549
-0.203202
-0.033057
-0.0580871
-0.0789354
-0.0981867
-0.115927
-0.13285
-0.149279
-0.166233
-0.183464
-0.202454
-0.221521
-0.243283
-0.262866
-0.286069
-0.30198
-0.324434
-0.350658
-0.365332
-0.375834
-0.38127
-0.381723
-0.376273
-0.364229
-0.345541
-0.321565
-0.29463
-0.268626
-0.246989
-0.233023
-0.229772
-0.085305
-0.108755
-0.12779
-0.144933
-0.160359
-0.174723
-0.188364
-0.202228
-0.216152
-0.231464
-0.246901
-0.264662
-0.281273
-0.300921
-0.316473
-0.335211
-0.351609
-0.361893
-0.369503
-0.373819
-0.37429
-0.369724
-0.359331
-0.343109
-0.322357
-0.299363
-0.27753
-0.260275
-0.249495
-0.249664
-0.139472
-0.160751
-0.177338
-0.191664
-0.203984
-0.2149
-0.22478
-0.23448
-0.243988
-0.254459
-0.265173
-0.277895
-0.290581
-0.305976
-0.320219
-0.335339
-0.345193
-0.35306
-0.359207
-0.36311
-0.363776
-0.359994
-0.351055
-0.337087
-0.319369
-0.300105
-0.28224
-0.269012
-0.261172
-0.26405
-0.195039
-0.213529
-0.227006
-0.237797
-0.246237
-0.2529
-0.258222
-0.263005
-0.267432
-0.272534
-0.278089
-0.285512
-0.293865
-0.30484
-0.316895
-0.328706
-0.334619
-0.341165
-0.346619
-0.350503
-0.351548
-0.348606
-0.341077
-0.329214
-0.314291
-0.29842
-0.284146
-0.27444
-0.269168
-0.274074
-0.2515
-0.266458
-0.276056
-0.282527
-0.286314
-0.288021
-0.288197
-0.287653
-0.286778
-0.286528
-0.287062
-0.289532
-0.29372
-0.300642
-0.310118
-0.319176
-0.323175
-0.329094
-0.334245
-0.338151
-0.33946
-0.337166
-0.330817
-0.32078
-0.308315
-0.295415
-0.284266
-0.277524
-0.274401
-0.280752
-0.307968
-0.318576
-0.323507
-0.324933
-0.323452
-0.319767
-0.314579
-0.308751
-0.302841
-0.297745
-0.29384
-0.292057
-0.29256
-0.29597
-0.302705
-0.309502
-0.312729
-0.318219
-0.323121
-0.326931
-0.328342
-0.326506
-0.321112
-0.312613
-0.302241
-0.291857
-0.283332
-0.278996
-0.277607
-0.284936
-0.363289
-0.368724
-0.368279
-0.364113
-0.357019
-0.347853
-0.337471
-0.326788
-0.31646
-0.307296
-0.299747
-0.294543
-0.291981
-0.292479
-0.296529
-0.301435
-0.304401
-0.309416
-0.313955
-0.317462
-0.318763
-0.317165
-0.312478
-0.305216
-0.296563
-0.288238
-0.281841
-0.279394
-0.279355
-0.28731
-0.416062
-0.415635
-0.409329
-0.399333
-0.386647
-0.372286
-0.357225
-0.342385
-0.328439
-0.316073
-0.305702
-0.29787
-0.292864
-0.291001
-0.29256
-0.295822
-0.298603
-0.302973
-0.306956
-0.309946
-0.310936
-0.30937
-0.305156
-0.29884
-0.291545
-0.284845
-0.280115
-0.279098
-0.280069
-0.288401
-0.46484
-0.458158
-0.445863
-0.430183
-0.412298
-0.39334
-0.37433
-0.356144
-0.339395
-0.324624
-0.312159
-0.302371
-0.295472
-0.291727
-0.291086
-0.292866
-0.295314
-0.298848
-0.302081
-0.304368
-0.304875
-0.303159
-0.299205
-0.293562
-0.287289
-0.281822
-0.278345
-0.278365
-0.280058
-0.288591
-0.508387
-0.495478
-0.477484
-0.456642
-0.434246
-0.411474
-0.389321
-0.368568
-0.34973
-0.333205
-0.319215
-0.307994
-0.299653
-0.294422
-0.291923
-0.292346
-0.294235
-0.29678
-0.299112
-0.300563
-0.300459
-0.298446
-0.294562
-0.289349
-0.283796
-0.279213
-0.27663
-0.277361
-0.279535
-0.288144
-0.545933
-0.527277
-0.504251
-0.479046
-0.452985
-0.427227
-0.402683
-0.38002
-0.359649
-0.341845
-0.326739
-0.314459
-0.305022
-0.298622
-0.294617
-0.293801
-0.294918
-0.296391
-0.297734
-0.298282
-0.297487
-0.295066
-0.291093
-0.286095
-0.280995
-0.276995
-0.275003
-0.276177
-0.278638
-0.287223
-0.577311
-0.553757
-0.526614
-0.497969
-0.469107
-0.441113
-0.4148
-0.390724
-0.369207
-0.350437
-0.334479
-0.321386
-0.311103
-0.303775
-0.298595
-0.296663
-0.296865
-0.297256
-0.297595
-0.297234
-0.295718
-0.292815
-0.288625
-0.283655
-0.278775
-0.275101
-0.273447
-0.274854
-0.27745
-0.28592
-0.60293
-0.575531
-0.545267
-0.514083
-0.483183
-0.453564
-0.425942
-0.40079
-0.378369
-0.358814
-0.342153
-0.328393
-0.317427
-0.30935
-0.303277
-0.300363
-0.29959
-0.29896
-0.298347
-0.297125
-0.294899
-0.291473
-0.286962
-0.281861
-0.276999
-0.273432
-0.271914
-0.273394
-0.276019
-0.284279
-0.62362
-0.593448
-0.560989
-0.528033
-0.495697
-0.464895
-0.436272
-0.410249
-0.387054
-0.366801
-0.349504
-0.335148
-0.323597
-0.314892
-0.30815
-0.304395
-0.302671
-0.301138
-0.299678
-0.297685
-0.294795
-0.290829
-0.285914
-0.280541
-0.27552
-0.271874
-0.270327
-0.27177
-0.27437
-0.28233
-0.640416
-0.608412
-0.574511
-0.540365
-0.507016
-0.47532
-0.44588
-0.419091
-0.395177
-0.37425
-0.356331
-0.3414
-0.329311
-0.320057
-0.312811
-0.308358
-0.305778
-0.3035
-0.301337
-0.298692
-0.295202
-0.290695
-0.285306
-0.279534
-0.27419
-0.270302
-0.268599
-0.269941
-0.272521
-0.280122
-0.654284
-0.621178
-0.586377
-0.551433
-0.517339
-0.484919
-0.454759
-0.427252
-0.402634
-0.38103
-0.362479
-0.346969
-0.33436
-0.324609
-0.316974
-0.311967
-0.308678
-0.305836
-0.303135
-0.299972
-0.295959
-0.290919
-0.284996
-0.278707
-0.272893
-0.268618
-0.266657
-0.267875
-0.270504
-0.277751
-0.666046
-0.63233
-0.596961
-0.561444
-0.526747
-0.493685
-0.462845
-0.434635
-0.409309
-0.387016
-0.367815
-0.351715
-0.338597
-0.328389
-0.320448
-0.315027
-0.311215
-0.308
-0.304938
-0.301397
-0.296945
-0.291388
-0.284877
-0.277961
-0.271537
-0.266742
-0.264441
-0.265548
-0.268362
-0.275392
-0.677259
-0.64317
-0.60733
-0.571267
-0.535954
-0.502207
-0.470629
-0.441645
-0.415535
-0.392472
-0.372542
-0.355784
-0.342109
-0.331447
-0.323242
-0.317546
-0.313434
-0.310063
-0.306841
-0.303071
-0.298253
-0.292157
-0.284939
-0.277193
-0.269911
-0.264359
-0.26157
-0.262587
-0.26586
-0.273215
-0.689125
-0.654701
-0.618306
-0.581598
-0.545561
-0.511021
-0.478597
-0.448734
-0.421734
-0.397791
-0.37702
-0.359495
-0.345176
-0.334029
-0.325573
-0.319728
-0.315539
-0.312226
-0.309046
-0.305189
-0.300055
-0.293359
-0.285255
-0.276405
-0.267931
-0.2613
-0.257791
-0.258706
-0.262728
-0.271403
0.323384
0.323374
0.32338
0.323385
0.323399
0.323416
0.323441
0.323472
0.323511
0.323557
0.32361
0.32367
0.323735
0.323805
0.32388
0.323959
0.324041
0.324126
0.324213
0.324302
0.324392
0.324483
0.324573
0.324663
0.324333
0.324323
0.324329
0.324335
0.32435
0.324369
0.324396
0.32443
0.324473
0.324523
0.324582
0.324647
0.324718
0.324794
0.324876
0.324962
0.325051
0.325144
0.325238
0.325335
0.325433
0.325532
0.32563
0.325728
0.325275
0.325263
0.32527
0.325277
0.325293
0.325314
0.325344
0.325382
0.325428
0.325483
0.325547
0.325618
0.325695
0.325779
0.325868
0.325961
0.326058
0.326159
0.326262
0.326367
0.326473
0.32658
0.326687
0.326794
0.326207
0.326195
0.326202
0.32621
0.326228
0.326251
0.326284
0.326325
0.326376
0.326436
0.326506
0.326583
0.326667
0.326758
0.326855
0.326956
0.327062
0.327171
0.327283
0.327397
0.327513
0.327629
0.327746
0.327861
0.32713
0.327117
0.327125
0.327134
0.327153
0.327179
0.327215
0.32726
0.327316
0.327382
0.327457
0.327541
0.327633
0.327732
0.327837
0.327947
0.328061
0.32818
0.328302
0.328426
0.328551
0.328678
0.328805
0.32893
0.328043
0.32803
0.328038
0.328048
0.328069
0.328097
0.328136
0.328186
0.328247
0.328319
0.328401
0.328492
0.328592
0.3287
0.328813
0.328933
0.329057
0.329186
0.329318
0.329453
0.329589
0.329726
0.329864
0.330001
0.328945
0.328931
0.32894
0.328951
0.328974
0.329005
0.329048
0.329102
0.329169
0.329247
0.329337
0.329436
0.329544
0.329661
0.329784
0.329914
0.330049
0.330188
0.330331
0.330477
0.330625
0.330775
0.330924
0.331073
0.329835
0.329821
0.329831
0.329843
0.329868
0.329902
0.329949
0.330008
0.330081
0.330166
0.330263
0.330371
0.330489
0.330615
0.330749
0.330889
0.331035
0.331187
0.331342
0.3315
0.33166
0.331822
0.331984
0.332146
0.330713
0.330698
0.330709
0.330722
0.33075
0.330787
0.330838
0.330903
0.330982
0.331075
0.33118
0.331298
0.331425
0.331562
0.331707
0.331859
0.332017
0.332181
0.332349
0.33252
0.332694
0.332869
0.333045
0.333221
0.331578
0.331562
0.331574
0.331589
0.331619
0.331659
0.331715
0.331785
0.331872
0.331973
0.332087
0.332215
0.332353
0.332501
0.332657
0.332822
0.332993
0.33317
0.333352
0.333537
0.333726
0.333916
0.334106
0.334297
0.332429
0.332412
0.332424
0.332441
0.332474
0.332518
0.332579
0.332656
0.332749
0.332859
0.332983
0.333121
0.333271
0.333431
0.3336
0.333778
0.333963
0.334154
0.33435
0.334551
0.334755
0.334961
0.335168
0.335374
0.333264
0.333246
0.33326
0.333278
0.333314
0.333362
0.333429
0.333512
0.333614
0.333733
0.333868
0.334017
0.334178
0.334351
0.334534
0.334726
0.334926
0.335132
0.335344
0.335561
0.335782
0.336005
0.336229
0.336452
0.334084
0.334065
0.33408
0.3341
0.334139
0.334191
0.334264
0.334354
0.334465
0.334594
0.33474
0.334901
0.335075
0.335262
0.335459
0.335666
0.335881
0.336104
0.336333
0.336567
0.336806
0.337047
0.337289
0.337532
0.334886
0.334866
0.334883
0.334904
0.334947
0.335004
0.335083
0.335181
0.335301
0.335441
0.335598
0.335772
0.33596
0.336161
0.336374
0.336597
0.336829
0.337069
0.337316
0.337569
0.337826
0.338087
0.338349
0.338612
0.33567
0.33565
0.335667
0.335691
0.335737
0.3358
0.335885
0.335992
0.336122
0.336272
0.336442
0.33663
0.336833
0.337049
0.337278
0.337518
0.337768
0.338026
0.338292
0.338565
0.338842
0.339124
0.339407
0.339692
0.336435
0.336414
0.336433
0.336459
0.336509
0.336577
0.336669
0.336785
0.336925
0.337088
0.337272
0.337473
0.337691
0.337924
0.33817
0.338428
0.338697
0.338975
0.339261
0.339555
0.339854
0.340157
0.340464
0.340771
0.337179
0.337157
0.337178
0.337206
0.33726
0.337334
0.337434
0.33756
0.337711
0.337887
0.338084
0.338301
0.338536
0.338786
0.33905
0.339327
0.339615
0.339914
0.340222
0.340538
0.34086
0.341187
0.341518
0.34185
0.337902
0.33788
0.337902
0.337933
0.337991
0.338071
0.33818
0.338315
0.338479
0.338668
0.33888
0.339113
0.339365
0.339633
0.339916
0.340213
0.340522
0.340843
0.341173
0.341513
0.341859
0.342211
0.342568
0.342927
0.338602
0.338579
0.338603
0.338637
0.3387
0.338787
0.338904
0.33905
0.339226
0.339429
0.339657
0.339907
0.340177
0.340464
0.340767
0.341085
0.341417
0.34176
0.342114
0.342479
0.342851
0.34323
0.343614
0.344002
0.339278
0.339255
0.339281
0.339317
0.339385
0.339479
0.339606
0.339763
0.339953
0.340171
0.340415
0.340683
0.340971
0.341278
0.341603
0.341943
0.342297
0.342665
0.343044
0.343434
0.343834
0.344241
0.344655
0.345073
0.339929
0.339906
0.339933
0.339973
0.340046
0.340148
0.340284
0.340454
0.340657
0.340891
0.341152