/*--------------------------------*- C++ -*----------------------------------*\
| =========                 |                                                 |
| \\      /  F ield         | OpenFOAM Extend Project: Open source CFD        |
|  \\    /   O peration     | Version:  1.6-ext                               |
|   \\  /    A nd           | Web:      www.extend-project.de                 |
|    \\/     M anipulation  |                                                 |
\*---------------------------------------------------------------------------*/
FoamFile
{
    version     2.0;
    format      ascii;
    class       surfaceScalarField;
    location    "0.25";
    object      phi;
}
// * * * * * * * * * * * * * * * * * * * * * * * * * * * * * * * * * * * * * //

dimensions      [0 3 -1 0 0 0 0];

internalField   nonuniform List<scalar> 
41420
(
-0.000124555
0.000398942
-0.000399855
0.000125468
-0.000123322
0.00038026
-0.000381493
-0.000121756
0.000361851
-0.000363417
-0.000119829
0.000343638
-0.000345565
-0.000117464
0.000325642
-0.000328008
-0.000114502
0.000307673
-0.000310634
-0.000110702
0.0002894
-0.000293199
-0.000105766
0.000270361
-0.000275298
-9.94079e-05
0.000250068
-0.000256426
-9.14524e-05
0.00022815
-0.000236106
-8.19284e-05
0.000204515
-0.000214039
-7.11188e-05
0.000179449
-0.000190259
-5.95351e-05
0.000153609
-0.000165193
-4.78296e-05
0.00012791
-0.000139615
-3.66669e-05
0.000103331
-0.000114494
-2.6612e-05
8.07368e-05
-9.07917e-05
-1.80564e-05
6.07392e-05
-6.92948e-05
-1.12024e-05
4.36569e-05
-5.05109e-05
-6.08604e-06
2.95368e-05
-3.46532e-05
-2.62288e-06
1.82178e-05
-2.1681e-05
-6.56752e-07
9.40624e-06
-1.13724e-05
2.74528e-06
-3.40203e-06
-0.0001322
0.000397834
0.000133308
-0.000130776
0.000378836
-0.000129
0.000360075
-0.000126803
0.000341441
-0.000124049
0.000322889
-0.000120518
0.000304142
-0.000115916
0.000284797
-0.000109929
0.000264374
-0.000102316
0.000242456
-9.30133e-05
0.000218847
-8.22029e-05
0.000193705
-7.03231e-05
0.000167569
-5.79994e-05
0.000141285
-4.59241e-05
0.000115834
-3.47295e-05
9.21368e-05
-2.48938e-05
7.09011e-05
-1.67024e-05
5.25478e-05
-1.02573e-05
3.72119e-05
-5.51798e-06
2.47974e-05
-2.35091e-06
1.50507e-05
-5.75696e-07
7.63103e-06
2.16958e-06
-0.000146823
0.000396075
0.000148582
-0.000144747
0.00037676
-0.00014228
0.000357607
-0.000139292
0.000338453
-0.000135577
0.000319174
-0.000130843
0.000299407
-0.000124754
0.000278708
-0.000117016
0.000256636
-0.000107483
0.000232923
-9.62518e-05
0.000207616
-8.36923e-05
0.000181145
-7.04067e-05
0.000154284
-5.71146e-05
0.000127993
-4.45166e-05
0.000103236
-3.31785e-05
8.07987e-05
-2.34713e-05
6.11938e-05
-1.55637e-05
4.46403e-05
-9.45787e-06
3.1106e-05
-5.03876e-06
2.03783e-05
-2.1262e-06
1.21382e-05
-5.14443e-07
6.01927e-06
1.65514e-06
-0.000160689
0.000393756
0.000163009
-0.000158014
0.000374084
-0.000154854
0.000354448
-0.000151002
0.000334601
-0.000146172
0.000314343
-0.000140008
0.000293244
-0.000132174
0.000270874
-0.000122452
0.000246914
-0.000110855
0.000221326
-9.7686e-05
0.000194446
-8.35132e-05
0.000166973
-6.90723e-05
0.000139843
-5.51227e-05
0.000114044
-4.23144e-05
9.04278e-05
-3.11049e-05
6.95893e-05
-2.17356e-05
5.18245e-05
-1.42577e-05
3.71624e-05
-8.58186e-06
2.54301e-05
-4.53317e-06
1.63296e-05
-1.89757e-06
9.50258e-06
-4.55109e-07
4.57681e-06
1.20003e-06
-0.000173029
0.000390993
0.000175793
-0.000169824
0.000370878
-0.00016597
0.000350594
-0.000161163
0.000329795
-0.000155039
0.000308219
-0.000147216
0.000285421
-0.000137414
0.000261072
-0.000125567
0.000235067
-0.000111906
0.000207666
-9.69634e-05
0.000179503
-8.14805e-05
0.00015149
-6.62686e-05
0.000124631
-5.20573e-05
9.98325e-05
-3.93913e-05
7.77619e-05
-2.85882e-05
5.87862e-05
-1.97544e-05
4.29907e-05
-1.28321e-05
3.02402e-05
-7.65809e-06
2.02561e-05
-4.01451e-06
1.26861e-05
-1.66853e-06
7.15661e-06
-3.9699e-07
3.30527e-06
8.03043e-07
-0.000183748
0.000387914
0.000186826
-0.000180052
0.000367183
-0.000175439
0.000345981
-0.000169508
0.000323863
-0.000161845
0.000300556
-0.000152104
0.00027568
-0.000140146
0.000249114
-0.000126131
0.000221052
-0.000110548
0.000192082
-9.41388e-05
0.000163095
-7.77613e-05
0.000135112
-6.22222e-05
0.000109092
-4.81542e-05
8.57645e-05
-3.59549e-05
6.55625e-05
-2.57907e-05
4.8622e-05
-1.76412e-05
3.48411e-05
-1.1359e-05
2.3958e-05
-6.72696e-06
1.5624e-05
-3.50219e-06
9.46129e-06
-1.4461e-06
5.10051e-06
-3.41475e-07
2.20064e-06
4.61568e-07
-0.000192552
0.000384583
0.000195883
-0.000188338
0.000362969
-0.000182836
0.000340479
-0.000175559
0.000316586
-0.000166103
0.0002911
-0.000154244
0.000263821
-0.000140069
0.000234939
-0.000124019
0.000205002
-0.000106833
0.000174897
-8.94117e-05
0.000145673
-7.26382e-05
0.000118339
-5.72357e-05
9.36892e-05
-4.3687e-05
7.22157e-05
-3.22247e-05
5.41002e-05
-2.28715e-05
3.92688e-05
-1.55015e-05
2.74711e-05
-9.90185e-06
1.83584e-05
-5.8228e-06
1.1545e-05
-3.01206e-06
6.65055e-06
-1.23597e-06
3.32443e-06
-2.89653e-07
1.25432e-06
1.71914e-07
-0.000199197
0.000381082
0.000202699
-0.000194405
0.000358177
-0.000187829
0.000333902
-0.000178957
0.000307715
-0.00016749
0.000279633
-0.000153423
0.000249754
-0.000137143
0.000218659
-0.000119378
0.000187238
-0.00010107
0.000156588
-8.31789e-05
0.000127782
-6.65246e-05
0.000101684
-5.16814e-05
7.88459e-05
-3.89561e-05
5.94904e-05
-2.84218e-05
4.3566e-05
-1.99805e-05
3.08275e-05
-1.34291e-05
2.09197e-05
-8.51438e-06
1.34437e-05
-4.97301e-06
8.00361e-06
-2.55604e-06
4.23358e-06
-1.04204e-06
1.81043e-06
-2.42176e-07
4.54457e-07
-7.02612e-08
-0.000203171
0.000377332
0.000206921
-0.000197654
0.00035266
-0.000189815
0.000326064
-0.00017919
0.000297089
-0.00016567
0.000266113
-0.000149547
0.000233632
-0.000131527
0.000200638
-0.000112579
0.00016829
-9.37494e-05
0.000137759
-7.59628e-05
0.000109996
-5.98989e-05
8.56205e-05
-4.59514e-05
6.48985e-05
-3.42555e-05
4.77945e-05
-2.47503e-05
3.40608e-05
-1.72498e-05
2.3327e-05
-1.15032e-05
1.51731e-05
-7.24004e-06
9.18057e-06
-4.19882e-06
4.9624e-06
-2.14272e-06
2.17747e-06
-8.66764e-07
5.34474e-07
-1.99288e-07
-2.1302e-07
-2.69549e-07
-0.000204138
0.00037341
0.00020806
-0.000197829
0.000346352
-0.00018862
0.000316854
-0.000176209
0.000284678
-0.000160783
0.000250687
-0.000142973
0.000215823
-0.000123765
0.00018143
-0.000104278
0.000148803
-8.55499e-05
0.000119031
-6.83821e-05
9.2828e-05
-5.32732e-05
7.05116e-05
-4.0437e-05
5.20623e-05
-2.98645e-05
3.72219e-05
-2.13979e-05
2.55942e-05
-1.47981e-05
1.67271e-05
-9.79439e-06
1.01694e-05
-6.11778e-06
5.50396e-06
-3.51946e-06
2.36407e-06
-1.78006e-06
4.38072e-07
-7.12458e-07
-5.33124e-07
-1.61238e-07
-7.6424e-07
-4.30787e-07
-0.000201344
0.000369115
0.000205639
-0.000194184
0.000339192
-0.0001837
0.00030637
-0.000169802
0.00027078
-0.000152979
0.000233864
-0.00013416
0.000197004
-0.000114517
0.000161787
-9.52074e-05
0.000129492
-7.71703e-05
0.000100994
-6.10359e-05
7.66936e-05
-4.71215e-05
5.65972e-05
-3.54909e-05
4.04317e-05
-2.60328e-05
2.77638e-05
-1.85341e-05
1.80956e-05
-1.27362e-05
1.09292e-05
-8.37199e-06
5.80522e-06
-5.18829e-06
2.32026e-06
-2.95673e-06
1.32516e-07
-1.47807e-06
-1.04059e-06
-5.82554e-07
-1.42864e-06
-1.28555e-07
-1.21824e-06
-5.59342e-07
-0.000194979
0.000364856
0.000199238
-0.000187249
0.000331462
-0.000175791
0.000294912
-0.000160861
0.00025585
-0.00014326
0.000216264
-0.000124158
0.000177901
-0.000104801
0.00014243
-8.62784e-05
0.00011097
-6.93701e-05
8.40858e-05
-5.45221e-05
6.18455e-05
-4.18943e-05
4.39695e-05
-3.14424e-05
2.99797e-05
-2.29968e-05
1.93182e-05
-1.63265e-05
1.14253e-05
-1.1181e-05
5.78373e-06
-7.31538e-06
1.93961e-06
-4.50324e-06
-4.91889e-07
-2.54185e-06
-1.82887e-06
-1.25338e-06
-2.32906e-06
-4.84059e-07
-2.19796e-06
-1.02953e-07
-1.59935e-06
-6.62295e-07
-0.000184148
0.000360419
0.000188585
-0.000176199
0.000323513
-0.000164474
0.000283186
-0.000149432
0.000240808
-0.000132049
0.000198881
-0.000113606
0.000159458
-9.53182e-05
0.000124142
-7.81468e-05
9.37983e-05
-6.27037e-05
6.86426e-05
-4.92809e-05
4.84227e-05
-3.79292e-05
3.26179e-05
-2.85466e-05
2.05971e-05
-2.09494e-05
1.17209e-05
-1.49214e-05
5.39726e-06
-1.02432e-05
1.10559e-06
-6.70683e-06
-1.59678e-06
-4.12111e-06
-3.0776e-06
-2.31329e-06
-3.6367e-06
-1.12812e-06
-3.51423e-06
-4.26898e-07
-2.89918e-06
-8.68255e-08
-1.93942e-06
-7.49121e-07
-0.000170615
0.000357009
0.000174024
-0.000163136
0.000316035
-0.000151722
0.000271772
-0.000137248
0.000226334
-0.000120785
0.000182418
-0.000103646
0.00014232
-8.69371e-05
0.000107433
-7.14495e-05
7.83107e-05
-5.76264e-05
5.48196e-05
-4.56353e-05
3.64316e-05
-3.54589e-05
2.24415e-05
-2.69779e-05
1.2116e-05
-2.00272e-05
4.77027e-06
-1.44304e-05
-1.99567e-07
-1.00158e-05
-3.30897e-06
-6.62296e-06
-4.98966e-06
-4.10269e-06
-5.59787e-06
-2.31594e-06
-5.42344e-06
-1.13192e-06
-4.69825e-06
-4.27162e-07
-3.60394e-06
-8.58368e-08
-2.28074e-06
-8.34958e-07
-0.000152174
0.000354183
0.000155
-0.00014638
0.00031024
-0.000136565
0.000261957
-0.000123914
0.000213683
-0.000109491
0.000167995
-9.45394e-05
0.000127368
-8.00052e-05
9.28987e-05
-6.65162e-05
6.48217e-05
-5.43981e-05
4.27016e-05
-4.37622e-05
2.57957e-05
-3.45884e-05
1.32678e-05
-2.679e-05
4.31759e-06
-2.02538e-05
-1.76587e-06
-1.48625e-05
-5.59089e-06
-1.05028e-05
-7.66871e-06
-7.06701e-06
-8.42543e-06
-4.45112e-06
-8.21375e-06
-2.55179e-06
-7.32278e-06
-1.26431e-06
-5.98573e-06
-4.81904e-07
-4.38635e-06
-9.66055e-08
-2.66604e-06
-9.31563e-07
-0.000360876
0.000312985
0.000402075
-0.000314793
0.000264157
-0.000266914
0.000214078
-0.000220433
0.000167202
-0.000177779
0.000125341
-0.000140489
9.00786e-05
-0.000109058
6.14673e-05
-8.32943e-05
3.90579e-05
-6.26147e-05
2.20221e-05
-4.62883e-05
9.46922e-06
-3.35802e-05
5.59681e-07
-2.38236e-05
-5.43904e-06
-1.64448e-05
-9.14465e-06
-1.09646e-05
-1.10711e-05
-6.98812e-06
-1.16452e-05
-4.19138e-06
-1.12222e-05
-2.30826e-06
-1.00969e-05
-1.11852e-06
-8.51252e-06
-4.38054e-07
-6.6662e-06
-1.10949e-07
-4.71345e-06
-3.64671e-09
-2.77334e-06
-9.3521e-07
-0.000320037
0.000266527
0.000366495
-0.000271528
0.000215648
-0.00022456
0.00016711
-0.000181566
0.000124208
-0.000144087
8.78622e-05
-0.000112572
5.85637e-05
-8.6772e-05
3.56674e-05
-6.60506e-05
1.83365e-05
-4.96427e-05
5.61415e-06
-3.67964e-05
-3.3771e-06
-2.68408e-05
-9.39582e-06
-1.92067e-05
-1.30732e-05
-1.34231e-05
-1.49282e-05
-9.1064e-06
-1.53878e-05
-5.94566e-06
-1.4806e-05
-3.68965e-06
-1.34782e-05
-2.13493e-06
-1.16516e-05
-1.11594e-06
-9.53151e-06
-4.96841e-07
-7.2853e-06
-1.65041e-07
-5.04525e-06
-2.61243e-08
-2.91226e-06
-9.61334e-07
-0.000273502
0.000218173
0.000321856
-0.000226473
0.000168619
-0.000183634
0.000124272
-0.000146265
8.68392e-05
-0.00011492
5.65164e-05
-8.92517e-05
3.28959e-05
-6.86177e-05
1.50334e-05
-5.22324e-05
1.95118e-06
-3.93466e-05
-7.27172e-06
-2.92974e-05
-1.34262e-05
-2.15256e-05
-1.71677e-05
-1.55681e-05
-1.90307e-05
-1.10464e-05
-1.94498e-05
-7.65389e-06
-1.87804e-05
-5.14375e-06
-1.73161e-05
-3.31934e-06
-1.53026e-05
-2.02496e-06
-1.2946e-05
-1.13781e-06
-1.04187e-05
-5.61121e-07
-7.86199e-06
-2.18173e-07
-5.3882e-06
-4.7627e-08
-3.08281e-06
-1.00896e-06
-0.000226161
0.000171699
0.000272634
-0.000183534
0.000125992
-0.000146533
8.7271e-05
-0.000115395
5.57015e-05
-8.99368e-05
3.10579e-05
-6.94364e-05
1.23954e-05
-5.31383e-05
-1.26467e-06
-4.03001e-05
-1.0887e-05
-3.02762e-05
-1.72956e-05
-2.25186e-05
-2.11838e-05
-1.65694e-05
-2.31169e-05
-1.20483e-05
-2.35518e-05
-8.64193e-06
-2.28562e-05
-6.09558e-06
-2.13267e-05
-4.20608e-06
-1.92056e-05
-2.81489e-06
-1.66938e-05
-1.80123e-06
-1.39596e-05
-1.07533e-06
-1.11446e-05
-5.72022e-07
-8.36529e-06
-2.44974e-07
-5.71525e-06
-6.16273e-08
-3.26615e-06
-1.07059e-06
-0.000180594
0.0001297
0.000222593
-0.000143861
8.9259e-05
-0.000113067
5.64768e-05
-8.78058e-05
3.044e-05
-6.74913e-05
1.07434e-05
-5.13429e-05
-3.75294e-06
-3.86513e-05
-1.39563e-05
-2.8787e-05
-2.07514e-05
-2.1215e-05
-2.48675e-05
-1.54814e-05
-2.69175e-05
-1.12001e-05
-2.73982e-05
-8.04489e-06
-2.6707e-05
-5.74373e-06
-2.51574e-05
-4.07518e-06
-2.29953e-05
-2.86469e-06
-2.04161e-05
-1.98023e-06
-1.75782e-05
-1.32648e-06
-1.46134e-05
-8.38953e-07
-1.16321e-05
-4.77581e-07
-8.72667e-06
-2.21003e-07
-5.97182e-06
-6.11582e-08
-3.426e-06
-1.13175e-06
-0.000137438
9.34133e-05
0.000173725
-0.000106862
5.86828e-05
-8.18451e-05
3.146e-05
-6.17452e-05
1.03401e-05
-4.58345e-05
-5.16731e-06
-3.34159e-05
-1.61716e-05
-2.38744e-05
-2.34977e-05
-1.66846e-05
-2.79411e-05
-1.13932e-05
-3.01589e-05
-7.60732e-06
-3.07034e-05
-4.98556e-06
-3.00199e-05
-3.23487e-06
-2.84577e-05
-2.10952e-06
-2.62827e-05
-1.41021e-06
-2.36946e-05
-9.82682e-07
-2.08436e-05
-7.13999e-07
-1.78469e-05
-5.28221e-07
-1.47992e-05
-3.79893e-07
-1.17804e-05
-2.48617e-07
-8.85794e-06
-1.32297e-07
-6.08814e-06
-4.23598e-08
-3.51593e-06
-1.17411e-06
-9.60553e-05
6.30173e-05
0.000126451
-7.12428e-05
3.38703e-05
-5.13815e-05
1.15987e-05
-3.58216e-05
-5.21979e-06
-2.38358e-05
-1.71531e-05
-1.48229e-05
-2.51845e-05
-8.24663e-06
-3.0074e-05
-3.6476e-06
-3.25402e-05
-6.20704e-07
-3.31858e-05
1.19087e-06
-3.2515e-05
2.09992e-06
-3.0929e-05
2.37532e-06
-2.87331e-05
2.24171e-06
-2.61491e-05
1.87894e-06
-2.33318e-05
1.42413e-06
-2.03888e-05
9.73728e-07
-1.73965e-05
5.89188e-07
-1.44146e-05
3.00975e-07
-1.14922e-05
1.16103e-07
-8.67307e-06
2.24659e-08
-5.99451e-06
-4.59694e-09
-3.48887e-06
-1.1787e-06
-5.54886e-05
3.82394e-05
8.02665e-05
-3.59703e-05
1.4352e-05
-2.08429e-05
-3.52869e-06
-9.49576e-06
-1.65669e-05
-1.24975e-06
-2.53991e-05
4.4388e-06
-3.0873e-05
8.06091e-06
-3.36961e-05
1.00433e-05
-3.45226e-05
1.07651e-05
-3.39076e-05
1.05593e-05
-3.23092e-05
9.71477e-06
-3.00844e-05
8.47594e-06
-2.74943e-05
7.04308e-06
-2.47163e-05
5.57407e-06
-2.18628e-05
4.18573e-06
-1.90005e-05
2.95873e-06
-1.61695e-05
1.94016e-06
-1.33961e-05
1.15066e-06
-1.07027e-05
5.87237e-07
-8.10964e-06
2.30889e-07
-5.63816e-06
4.9027e-08
-3.30701e-06
-1.12968e-06
-1.57101e-05
1.87423e-05
3.52073e-05
-1.13986e-06
-2.18262e-07
9.46083e-06
-1.41294e-05
1.67087e-05
-2.38147e-05
2.12436e-05
-2.99341e-05
2.35926e-05
-3.3222e-05
2.42309e-05
-3.43344e-05
2.3574e-05
-3.38657e-05
2.19858e-05
-3.23193e-05
1.97782e-05
-3.01017e-05
1.7213e-05
-2.75192e-05
1.45036e-05
-2.47848e-05
1.18186e-05
-2.20313e-05
9.28585e-06
-1.933e-05
6.99735e-06
-1.6712e-05
5.0128e-06
-1.4185e-05
3.366e-06
-1.17493e-05
2.06682e-06
-9.40352e-06
1.1082e-06
-7.15103e-06
4.67508e-07
-4.99746e-06
1.12099e-07
-2.9516e-06
-1.01758e-06
2.21336e-05
4.28363e-06
-7.67495e-06
3.19826e-05
-1.00673e-05
3.81725e-05
-2.03192e-05
4.13696e-05
-2.70119e-05
4.22097e-05
-3.07743e-05
4.12356e-05
-3.22478e-05
3.89288e-05
-3.20277e-05
3.57047e-05
-3.06416e-05
3.19135e-05
-2.85281e-05
2.78411e-05
-2.60293e-05
2.37131e-05
-2.33912e-05
1.97014e-05
-2.07731e-05
1.59322e-05
-1.8262e-05
1.24944e-05
-1.58923e-05
9.44682e-06
-1.36644e-05
6.82483e-06
-1.1563e-05
4.64368e-06
-9.5681e-06
2.90449e-06
-7.66433e-06
1.59499e-06
-5.84153e-06
6.94716e-07
-4.09719e-06
1.74574e-07
-2.43146e-06
-8.43003e-07
5.59518e-05
-5.24649e-06
-4.64217e-05
6.12056e-05
-1.53211e-05
6.30816e-05
-2.21952e-05
6.23112e-05
-2.62414e-05
5.95622e-05
-2.80253e-05
5.54146e-05
-2.81001e-05
5.03671e-05
-2.69802e-05
4.48321e-05
-2.51066e-05
3.91359e-05
-2.28319e-05
3.35235e-05
-2.04169e-05
2.81688e-05
-1.80365e-05
2.31876e-05
-1.5792e-05
1.86525e-05
-1.37269e-05
1.46042e-05
-1.1844e-05
1.10629e-05
-1.01231e-05
8.03375e-06
-8.53379e-06
5.51277e-06
-7.04713e-06
3.48832e-06
-5.63988e-06
1.94511e-06
-4.29832e-06
8.63761e-07
-3.01584e-06
2.23105e-07
-1.7908e-06
-6.19898e-07
8.24905e-05
-9.85399e-06
-7.7883e-05
8.32153e-05
-1.60458e-05
8.09307e-05
-1.99107e-05
7.64337e-05
-2.17445e-05
7.04395e-05
-2.2031e-05
6.35601e-05
-2.12208e-05
5.6295e-05
-1.9715e-05
4.90268e-05
-1.78385e-05
4.20283e-05
-1.58334e-05
3.54763e-05
-1.38649e-05
2.94715e-05
-1.20317e-05
2.40595e-05
-1.038e-05
1.925e-05
-8.91736e-06
1.50326e-05
-7.62668e-06
1.1387e-05
-6.4775e-06
8.28975e-06
-5.43651e-06
5.71656e-06
-4.47393e-06
3.64506e-06
-3.56838e-06
2.05411e-06
-2.70737e-06
9.25796e-07
-1.88753e-06
2.44533e-07
-1.10954e-06
-3.75366e-07
9.68343e-05
-9.50513e-06
-9.71831e-05
9.3197e-05
-1.24086e-05
8.7165e-05
-1.38787e-05
7.95868e-05
-1.41663e-05
7.11923e-05
-1.36365e-05
6.25678e-05
-1.25962e-05
5.41465e-05
-1.12937e-05
4.62181e-05
-9.91012e-06
3.89505e-05
-8.56581e-06
3.24173e-05
-7.3317e-06
2.66268e-05
-6.24123e-06
2.15478e-05
-5.30098e-06
1.71301e-05
-4.49964e-06
1.33187e-05
-3.81526e-06
1.00626e-05
-3.22138e-06
7.31802e-06
-2.69193e-06
5.04918e-06
-2.2051e-06
3.22651e-06
-1.74571e-06
1.82604e-06
-1.3069e-06
8.28479e-07
-8.89962e-07
2.20792e-07
-5.01851e-07
-1.54574e-07
8.95033e-05
-4.93589e-06
-9.40725e-05
8.27234e-05
-5.62864e-06
7.46001e-05
-5.75542e-06
6.59047e-05
-5.47094e-06
5.72282e-05
-4.95999e-06
4.89823e-05
-4.35033e-06
4.14168e-05
-3.72817e-06
3.46514e-05
-3.14477e-06
2.87119e-05
-2.62629e-06
2.35625e-05
-2.18235e-06
1.91336e-05
-1.81235e-06
1.53422e-05
-1.50953e-06
1.21062e-05
-1.26367e-06
9.35368e-06
-1.06271e-06
7.02642e-06
-8.94119e-07
5.08056e-06
-7.46081e-07
3.48404e-06
-6.0857e-07
2.21281e-06
-4.74484e-07
1.24685e-06
-3.40945e-07
5.67216e-07
-2.10326e-07
1.55158e-07
-8.97923e-08
5.83954e-10
4.69415e-05
-5.18964e-05
4.12975e-05
3.55296e-05
3.00485e-05
2.50803e-05
2.07233e-05
1.69897e-05
1.38405e-05
1.12106e-05
9.02528e-06
7.21047e-06
5.69888e-06
4.4335e-06
3.36934e-06
2.47399e-06
1.72686e-06
1.1174e-06
6.4217e-07
3.00608e-07
8.97964e-08
-3.43928e-10
0.000298585
2.53652e-05
1.37294e-06
-0.000325323
0.000273329
2.3847e-05
1.40853e-06
0.000249465
2.24277e-05
1.4362e-06
0.000226913
2.10963e-05
1.45616e-06
0.000205596
1.98479e-05
1.46899e-06
0.000185442
1.86785e-05
1.47534e-06
0.000166383
1.75833e-05
1.47582e-06
0.000148354
1.65575e-05
1.471e-06
0.000131296
1.55966e-05
1.46143e-06
0.000115153
1.46958e-05
1.4476e-06
9.98733e-05
1.38498e-05
1.42976e-06
8.54151e-05
1.30506e-05
1.40762e-06
7.17513e-05
1.22842e-05
1.37964e-06
5.88827e-05
1.15261e-05
1.34253e-06
4.68533e-05
1.07385e-05
1.29099e-06
3.57628e-05
9.87209e-06
1.21839e-06
2.57711e-05
8.87355e-06
1.11814e-06
1.70887e-05
7.69714e-06
9.85296e-07
9.95427e-06
6.31642e-06
8.17966e-07
4.60419e-06
4.73208e-06
6.18001e-07
1.23953e-06
2.9738e-06
3.90861e-07
1.09487e-06
1.44652e-07
0.000298177
5.20263e-05
-0.000324838
0.000272991
4.9033e-05
0.000249187
4.62316e-05
0.000226686
4.35972e-05
0.000205413
4.11209e-05
0.000185297
3.87953e-05
0.000166269
3.66113e-05
0.000148266
3.45602e-05
0.000131229
3.26334e-05
0.000115103
3.0822e-05
9.9837e-05
2.91157e-05
8.53892e-05
2.74984e-05
7.1733e-05
2.59404e-05
5.88697e-05
2.43894e-05
4.68436e-05
2.27645e-05
3.57553e-05
2.09604e-05
2.57652e-05
1.88637e-05
1.70842e-05
1.63781e-05
9.95141e-06
1.34492e-05
4.60286e-06
1.00806e-05
1.23924e-06
6.33742e-06
2.33411e-06
0.000296954
7.84851e-05
-0.000323412
0.000271942
7.40445e-05
0.000248288
6.9886e-05
0.000225916
6.59684e-05
0.000204757
6.22808e-05
0.000184739
5.88131e-05
0.000165797
5.55527e-05
0.00014787
5.24871e-05
0.0001309
4.96042e-05
0.000114831
4.6891e-05
9.96139e-05
4.43325e-05
8.52079e-05
4.19043e-05
7.15869e-05
3.95614e-05
5.87527e-05
3.72236e-05
4.67507e-05
3.47665e-05
3.56826e-05
3.20286e-05
2.57097e-05
2.88365e-05
1.70442e-05
2.50436e-05
9.92535e-06
2.05681e-05
4.58899e-06
1.5417e-05
1.23468e-06
9.69173e-06
3.56879e-06
0.000295249
0.000104634
-0.000321398
0.000270507
9.87868e-05
0.000247081
9.33119e-05
0.000224905
8.81443e-05
0.000203912
8.32738e-05
0.000184037
7.86881e-05
0.000165218
7.43719e-05
0.000147395
7.03098e-05
0.000130513
6.64862e-05
0.000114519
6.28849e-05
9.93653e-05
5.94863e-05
8.50114e-05
5.62582e-05
7.14327e-05
5.31401e-05
5.86323e-05
5.0024e-05
4.66568e-05
4.67419e-05
3.56095e-05
4.30759e-05
2.56538e-05
3.87922e-05
1.70033e-05
3.36942e-05
9.89841e-06
2.76729e-05
4.57466e-06
2.07407e-05
1.23005e-06
1.30363e-05
4.79884e-06
0.000293244
0.000130381
-0.000318991
0.000268848
0.000123183
0.000245714
0.000116446
0.000223786
0.000110072
0.000203004
0.000104056
0.000183308
9.83845e-05
0.000164639
9.304e-05
0.000146944
8.80051e-05
0.000130169
8.32617e-05
0.000114263
7.87908e-05
9.91805e-05
7.45685e-05
8.48834e-05
7.05553e-05
7.13478e-05
6.66757e-05
5.85783e-05
6.27935e-05
4.66229e-05
5.86974e-05
3.55871e-05
5.41117e-05
2.56371e-05
4.87422e-05
1.69897e-05
4.23416e-05
9.88758e-06
3.4775e-05
4.56761e-06
2.60607e-05
1.22712e-06
1.63768e-05
6.02597e-06
0.000291337
0.000155669
-0.000316625
0.000267333
0.000147187
0.000244526
0.000139253
0.000222872
0.000131726
0.000202318
0.00012461
0.000182811
0.000117891
0.000164299
0.000111552
0.000146731
0.000105573
0.000130058
9.99352e-05
0.000114232
9.46168e-05
9.92096e-05
8.95906e-05
8.49548e-05
8.48101e-05
7.1445e-05
8.01855e-05
5.8686e-05
7.55526e-05
4.67274e-05
7.06559e-05
3.56775e-05
6.51617e-05
2.57062e-05
5.87135e-05
1.70353e-05
5.10125e-05
9.91218e-06
4.18981e-05
4.57695e-06
3.13959e-05
1.22849e-06
1.97253e-05
7.25445e-06
0.000289744
0.000180456
-0.000314531
0.000266161
0.00017077
0.000243697
0.000161716
0.000222326
0.000153098
0.000202002
0.000144933
0.000182682
0.000137212
0.000164319
0.000129915
0.000146867
0.000123025
0.000130281
0.000116521
0.000114518
0.00011038
9.95374e-05
0.000104572
8.53029e-05
9.90446e-05
7.17943e-05
9.3694e-05
5.90176e-05
8.83292e-05
4.70246e-05
8.2649e-05
3.59254e-05
7.62608e-05
2.58963e-05
6.87425e-05
1.71652e-05
5.97436e-05
9.9881e-06
4.90752e-05
4.61091e-06
3.67731e-05
1.23661e-06
2.30996e-05
8.49107e-06
0.000288645
0.000204715
-0.000312904
0.000265498
0.000193917
0.000243387
0.000183827
0.000222299
0.000174186
0.000202201
0.000165032
0.000183055
0.000156357
0.000164824
0.000148146
0.000147467
0.000140382
0.000130945
0.000133043
0.000115217
0.000126108
0.000100245
0.000119543
8.59977e-05
0.000113292
7.24537e-05
0.000107238
5.96209e-05
0.000101162
4.75507e-05
9.47192e-05
3.63586e-05
8.74529e-05
2.62254e-05
7.88757e-05
1.73909e-05
6.85781e-05
1.01201e-05
5.6346e-05
4.67053e-06
4.22227e-05
1.251e-06
2.65191e-05
9.74207e-06
0.000288171
0.000228432
-0.000311887
0.000265461
0.000216627
0.000243691
0.000205596
0.000222869
0.000195008
0.000202972
0.000184928
0.000183976
0.000175353
0.000165851
0.000166272
0.000148562
0.000157671
0.000132074
0.000149531
0.000116352
0.00014183
0.00010136
0.000134535
8.7067e-05
0.000127585
7.34537e-05
0.000120851
6.05259e-05
0.00011409
4.83373e-05
0.000106908
3.70043e-05
9.87859e-05
2.67187e-05
8.91613e-05
1.77303e-05
7.75666e-05
1.03222e-05
6.37541e-05
4.76376e-06
4.77811e-05
1.27533e-06
3.00075e-05
1.10174e-05
0.000288361
0.000251593
-0.000311522
0.000266093
0.000238894
0.000244666
0.000227024
0.000224103
0.000215572
0.000204393
0.000204638
0.000185523
0.000194223
0.000167472
0.000184323
0.000150214
0.000174929
0.00013372
0.000166025
0.000117959
0.00015759
0.000102901
0.000149594
8.85154e-05
0.000141971
7.47837e-05
0.000134583
6.17121e-05
0.000127161
4.93532e-05
0.000119267
3.78299e-05
0.000110309
2.7341e-05
9.96502e-05
1.81545e-05
8.6753e-05
1.05696e-05
7.1339e-05
4.87514e-06
5.34756e-05
1.30209e-06
3.35806e-05
1.23195e-05
0.000289207
0.000274191
-0.000311805
0.000267357
0.000260744
0.000246239
0.000248142
0.0002259
0.000235911
0.000206346
0.000224191
0.000187576
0.000212994
0.000169575
0.000202324
0.000152326
0.000192178
0.000135803
0.000182547
0.000119982
0.000173412
0.000104834
0.000164742
9.03306e-05
0.000156474
7.64533e-05
0.00014846
6.32054e-05
0.000140409
5.06392e-05
0.000131833
3.88791e-05
0.000122069
2.81372e-05
0.000110392
1.86996e-05
9.61906e-05
1.08917e-05
7.91469e-05
5.02321e-06
5.93441e-05
1.34097e-06
3.72628e-05
1.36605e-05
0.000290729
0.000296197
-0.000312735
0.000269323
0.00028215
0.000248527
0.000268938
0.0002284
0.000256038
0.000208971
0.00024362
0.000190254
0.000231711
0.000172251
0.000220327
0.000154952
0.000209477
0.000138342
0.000199157
0.0001224
0.000189354
0.000107102
0.00018004
9.24218e-05
0.000171154
7.83402e-05
0.000162542
6.48602e-05
0.000153889
5.20336e-05
0.00014466
3.99915e-05
0.000134111
2.89591e-05
0.000121425
1.92452e-05
0.000105905
1.11995e-05
8.71926e-05
5.15453e-06
6.5389e-05
1.36938e-06
4.1048e-05
1.50298e-05
0.000292739
0.000317622
-0.000314164
0.0002717
0.000303189
0.00025118
0.000289458
0.000231245
0.000275973
0.000211933
0.000262932
0.00019327
0.000250374
0.000175264
0.000238332
0.000157916
0.000226825
0.000141217
0.000215857
0.00012515
0.00020542
0.000109697
0.000195494
9.4832e-05
0.000186018
8.05361e-05
0.000176838
6.68081e-05
0.000167617
5.36968e-05
0.000157771
4.13353e-05
0.000146473
2.99634e-05
0.000132796
1.9917e-05
0.000115951
1.15816e-05
9.5528e-05
5.32104e-06
7.16496e-05
1.40985e-06
4.49592e-05
1.64397e-05
0.000295132
0.000338254
-0.000315764
0.00027456
0.000323761
0.000254332
0.000309686
0.000234554
0.000295751
0.000215303
0.000282183
0.000196626
0.000269051
0.000178549
0.00025641
0.000161083
0.000244291
0.000144228
0.000232712
0.000127974
0.000221674
0.000112306
0.000211162
9.72026e-05
0.000201122
8.26422e-05
0.000191398
6.86224e-05
0.000181637
5.51909e-05
0.000171202
4.2487e-05
0.000159177
3.07697e-05
0.000144514
2.04071e-05
0.000126314
1.18199e-05
0.000104115
5.39623e-06
7.80732e-05
1.41369e-06
4.89417e-05
1.78534e-05
0.000297843
0.000358157
-0.000317746
0.000277595
0.000344009
0.000257658
0.000329624
0.000238072
0.000315337
0.000218926
0.000301329
0.000200278
0.000287699
0.000182165
0.000274523
0.000164607
0.00026185
0.000147611
0.000249707
0.000131176
0.000238109
0.00011529
0.000227049
9.9932e-05
0.00021648
8.508e-05
0.00020625
7.07276e-05
0.00019599
5.69226e-05
0.000185007
4.38141e-05
0.000172285
3.16843e-05
0.000156644
2.09377e-05
0.00013706
1.20382e-05
0.000113015
5.41272e-06
8.46987e-05
1.3622e-06
5.29922e-05
1.92156e-05
1.44748e-05
0.000360798
-1.71158e-05
1.17787e-05
0.000346705
9.20013e-06
0.000332202
6.64923e-06
0.000317887
4.1354e-06
0.000303842
1.65343e-06
0.000290181
-7.96078e-07
0.000276972
-3.20854e-06
0.000264262
-5.57724e-06
0.000252076
-7.89107e-06
0.000240422
-1.01254e-05
0.000229283
-1.22189e-05
0.000218574
-1.40409e-05
0.000208072
-1.5368e-05
0.000197317
-1.59066e-05
0.000185546
-1.53777e-05
0.000171756
-1.36444e-05
0.00015491
-1.08241e-05
0.00013424
-7.33248e-06
0.000109523
-3.83469e-06
8.12009e-05
-1.13011e-06
5.02876e-05
1.80855e-05
9.4348e-06
0.000363775
-1.24125e-05
6.60677e-06
0.000349533
3.83068e-06
0.000334978
1.12277e-06
0.000320595
-1.50207e-06
0.000306467
-4.04482e-06
0.000292723
-6.50123e-06
0.000279429
-8.86695e-06
0.000266628
-1.11355e-05
0.000254344
-1.32934e-05
0.00024258
-1.53065e-05
0.000231296
-1.70937e-05
0.000220361
-1.84982e-05
0.000209477
-1.92795e-05
0.000198098
-1.91537e-05
0.00018542
-1.78892e-05
0.000170492
-1.54232e-05
0.000152444
-1.19534e-05
0.00013077
-7.95526e-06
0.000105525
-4.1196e-06
7.73653e-05
-1.22552e-06
4.73936e-05
1.68599e-05
4.3235e-06
0.000366999
-7.54699e-06
1.36283e-06
0.000352494
-1.53274e-06
0.000337874
-4.30646e-06
0.000323369
-6.95834e-06
0.000309119
-9.4868e-06
0.000295252
-1.18884e-05
0.00028183
-1.41601e-05
0.000268899
-1.62951e-05
0.000256479
-1.82747e-05
0.00024456
-2.00508e-05
0.000233072
-2.15177e-05
0.000221828
-2.2492e-05
0.000210451
-2.27186e-05
0.000198325
-2.19313e-05
0.000184633
-1.99499e-05
0.000168511
-1.67917e-05
0.000149286
-1.27338e-05
0.000126712
-8.31136e-06
0.000101103
-4.22998e-06
7.32839e-05
-1.23823e-06
4.44018e-05
1.56217e-05
-8.16146e-07
0.00037036
-2.54542e-06
-3.8934e-06
0.000355571
-6.85655e-06
0.000340837
-9.6532e-06
0.000326166
-1.22927e-05
0.000311759
-1.47717e-05
0.000297731
-1.70887e-05
0.000284147
-1.92417e-05
0.000271052
-2.12216e-05
0.000258459
-2.30017e-05
0.00024634
-2.45144e-05
0.000234585
-2.56279e-05
0.000222941
-2.61324e-05
0.000210955
-2.57696e-05
0.000197962
-2.42997e-05
0.000183163
-2.16099e-05
0.000165821
-1.77989e-05
0.000145475
-1.32264e-05
0.00012214
-8.47063e-06
9.63467e-05
-4.23622e-06
6.90495e-05
-1.21834e-06
4.13839e-05
1.44034e-05
-6.09577e-06
0.000373793
2.66337e-06
-9.24218e-06
0.000358718
-1.22175e-05
0.000343812
-1.49916e-05
0.00032894
-1.75773e-05
0.000314344
-1.99718e-05
0.000300125
-2.2176e-05
0.000286352
-2.41872e-05
0.000273063
-2.59921e-05
0.000260264
-2.755e-05
0.000247898
-2.87715e-05
0.000235806
-2.94945e-05
0.000223664
-2.9492e-05
0.000210953
-2.85072e-05
0.000196977
-2.63463e-05
0.000181002
-2.29638e-05
0.000162438
-1.85506e-05
0.000141062
-1.35306e-05
0.00011712
-8.51827e-06
9.13344e-05
-4.19239e-06
6.47236e-05
-1.18772e-06
3.83793e-05
1.32157e-05
-1.16567e-05
0.000377246
8.20315e-06
-1.48205e-05
0.000361881
-1.7761e-05
0.000346753
-2.04721e-05
0.000331651
-2.29665e-05
0.000316839
-2.52444e-05
0.000302403
-2.73079e-05
0.000288415
-2.91527e-05
0.000274908
-3.07566e-05
0.000261868
-3.20625e-05
0.000249204
-3.29519e-05
0.000236695
-3.32383e-05
0.000223951
-3.26771e-05
0.000210392
-3.10343e-05
0.000195334
-2.81614e-05
0.000178129
-2.41024e-05
0.000158379
-1.91215e-05
0.000136081
-1.3713e-05
0.000111711
-8.49583e-06
8.61172e-05
-4.1222e-06
6.035e-05
-1.15145e-06
3.54085e-05
1.20642e-05
-1.76512e-05
0.000380667
1.42307e-05
-2.07738e-05
0.000365004
-2.36318e-05
0.000349611
-2.62375e-05
0.000334257
-2.8603e-05
0.000319204
-3.07316e-05
0.000304532
-3.26257e-05
0.000290309
-3.42758e-05
0.000276558
-3.5648e-05
0.00026324
-3.66604e-05
0.000250216
-3.71677e-05
0.000237203
-3.69542e-05
0.000223737
-3.5777e-05
0.000209214
-3.34237e-05
0.000192981
-2.98209e-05
0.000174526
-2.50846e-05
0.000153643
-1.95728e-05
0.000130569
-1.38122e-05
0.000105951
-8.43476e-06
8.07397e-05
-4.03724e-06
5.59524e-05
-1.11398e-06
3.24852e-05
1.09502e-05
-2.42904e-05
0.000384003
2.09544e-05
-2.73157e-05
0.000368029
-3.00442e-05
0.000352339
-3.25007e-05
0.000336713
-3.46973e-05
0.000321401
-3.66402e-05
0.000306475
-3.83294e-05
0.000291999
-3.97479e-05
0.000277977
-4.08425e-05
0.000264335
-4.15054e-05
0.000250879
-4.15572e-05
0.000237255
-4.07667e-05
0.000222947
-3.88911e-05
0.000207339
-3.57705e-05
0.00018986
-3.13951e-05
0.000170151
-2.59831e-05
0.000148231
-1.99495e-05
0.000124535
-1.38711e-05
9.98722e-05
-8.35284e-06
7.52215e-05
-3.94962e-06
5.15492e-05
-1.07675e-06
2.96124e-05
9.87348e-06
-3.17677e-05
0.000387194
2.85766e-05
-3.46347e-05
0.000370896
-3.71823e-05
0.000354887
-3.9442e-05
0.000338973
-4.14265e-05
0.000323385
-4.31427e-05
0.000308191
-4.4586e-05