/*--------------------------------*- C++ -*----------------------------------*\
| =========                 |                                                 |
| \\      /  F ield         | OpenFOAM Extend Project: Open source CFD        |
|  \\    /   O peration     | Version:  1.6-ext                               |
|   \\  /    A nd           | Web:      www.extend-project.de                 |
|    \\/     M anipulation  |                                                 |
\*---------------------------------------------------------------------------*/
FoamFile
{
    version     2.0;
    format      ascii;
    class       volVectorField;
    location    "0.25";
    object      U;
}
// * * * * * * * * * * * * * * * * * * * * * * * * * * * * * * * * * * * * * //

dimensions      [0 1 -1 0 0 0 0];

internalField   nonuniform List<vector> 
20940
(
(1.85939 0.388105 -2.0801e-21)
(1.90056 0.407329 2.7006e-26)
(1.93956 0.426243 0)
(1.97556 0.443721 8.77401e-26)
(2.00835 0.459922 0)
(2.0364 0.473711 3.75652e-21)
(2.05686 0.483992 6.05656e-25)
(2.06505 0.488838 0)
(2.05463 0.486011 0)
(2.01838 0.473217 6.45667e-21)
(1.94976 0.448796 -6.97874e-21)
(1.84476 0.412344 -4.83076e-22)
(1.70332 0.365121 9.96433e-21)
(1.52992 0.309986 1.22171e-20)
(1.33285 0.250895 -6.44751e-21)
(1.12259 0.192139 0)
(0.909894 0.137612 9.92714e-25)
(0.704195 0.0903297 -4.16702e-21)
(0.512645 0.0522163 -9.15463e-21)
(0.33983 0.0241338 1.9094e-20)
(0.187977 0.00663406 -9.90157e-21)
(0.057417 0.000463725 -4.06963e-21)
(1.88484 0.363971 -1.39892e-21)
(1.92537 0.381891 -1.37479e-21)
(1.96328 0.398952 -1.59032e-21)
(1.99755 0.414673 -1.22956e-21)
(2.02747 0.428658 0)
(2.05068 0.439681 5.42609e-21)
(2.06335 0.446327 -1.00535e-20)
(2.05983 0.446556 -7.68467e-21)
(2.03331 0.438258 -1.04968e-20)
(1.97708 0.419653 1.13843e-20)
(1.88624 0.389952 1.54689e-20)
(1.75938 0.349801 -2.44544e-20)
(1.59946 0.301385 1.36288e-21)
(1.41352 0.248082 -2.21439e-20)
(1.21137 0.193808 5.90657e-21)
(1.00373 0.1423 -1.47275e-20)
(0.800498 0.096576 1.44556e-20)
(0.609607 0.0586967 2.01156e-20)
(0.436533 0.029731 -8.33963e-21)
(0.284374 0.00989489 -1.82174e-20)
(0.154263 -0.000696844 1.87435e-20)
(0.0459 -0.00155062 4.05835e-21)
(1.90789 0.339361 0)
(1.94758 0.356102 -8.0889e-22)
(1.98397 0.371493 1.83311e-21)
(2.01574 0.385548 1.09815e-20)
(2.04146 0.397301 -1.24263e-20)
(2.05782 0.405412 0)
(2.05993 0.408202 1.3121e-20)
(2.04144 0.403666 -2.24027e-20)
(1.99566 0.390029 -2.10501e-20)
(1.91711 0.366227 -2.69352e-21)
(1.80328 0.332436 2.75824e-20)
(1.65574 0.29026 1.71348e-20)
(1.48032 0.242541 -1.89434e-20)
(1.28603 0.192804 -4.45491e-20)
(1.08336 0.144589 1.14422e-20)
(0.88248 0.100876 -5.3136e-20)
(0.691901 0.0637772 -1.45727e-20)
(0.517831 0.03449 3.01834e-20)
(0.364102 0.0133949 -7.38464e-21)
(0.232483 0.000232589 0)
(0.123202 -0.00519363 3.60346e-20)
(0.0354789 -0.00259442 -2.96697e-20)
(1.92969 0.31452 0)
(1.96822 0.330267 6.1513e-21)
(2.00241 0.344146 -2.23713e-21)
(2.0305 0.356555 -2.36852e-20)
(2.05009 0.365946 1.23825e-20)
(2.05679 0.370891 -1.89595e-20)
(2.04483 0.369563 0)
(2.00766 0.360187 -1.83326e-20)
(1.93948 0.341551 1.74135e-20)
(1.83692 0.313466 -2.49738e-20)
(1.70044 0.277063 -6.98535e-22)
(1.53469 0.234698 3.18789e-20)
(1.34787 0.189518 1.89044e-20)
(1.15011 0.144835 -4.21684e-20)
(0.951658 0.103549 6.82225e-20)
(0.761445 0.0677923 1.27991e-20)
(0.58624 0.0388217 -6.64787e-20)
(0.430467 0.0171184 1.00872e-19)
(0.296444 0.00254572 -4.46355e-20)
(0.184819 -0.00547454 1.55531e-20)
(0.0951178 -0.00733382 -3.39074e-20)
(0.0262271 -0.00286909 4.16072e-20)
(1.95021 0.289267 2.0606e-21)
(1.98708 0.304165 -1.21013e-20)
(2.01806 0.316639 1.4096e-20)
(2.04071 0.327366 9.02595e-21)
(2.05149 0.334228 0)
(2.04502 0.335784 1.88805e-20)
(2.01505 0.330223 1.72839e-21)
(1.95561 0.316237 4.0585e-21)
(1.86274 0.293365 -1.73908e-20)
(1.73594 0.262344 0)
(1.57888 0.225111 -2.85217e-20)
(1.39896 0.184457 -3.52666e-20)
(1.20587 0.143459 6.8508e-20)
(1.00987 0.104914 -1.89605e-20)
(0.820139 0.0709488 0)
(0.643889 0.0428667 -4.72768e-20)
(0.486007 0.0212029 1.00072e-19)
(0.349246 0.00589673 1.38932e-20)
(0.234634 -0.00353616 0)
(0.141947 -0.00785681 -9.08604e-20)
(0.0702186 -0.00755689 6.25347e-20)
(0.0181541 -0.00254097 -1.36741e-20)
(1.96891 0.26352 4.6138e-21)
(2.00338 0.277758 -5.12808e-21)
(2.02966 0.2889 0)
(2.04444 0.297844 2.26156e-20)
(2.04301 0.301975 -3.36255e-20)
(2.01932 0.299991 3.69935e-20)
(1.96742 0.29032 2.54644e-20)
(1.88289 0.272334 0)
(1.76451 0.246422 0)
(1.61512 0.214154 -4.66763e-20)
(1.44139 0.17799 5.0473e-20)
(1.25261 0.140778 3.16679e-20)
(1.05894 0.105201 -6.49085e-20)
(0.869767 0.0733667 1.88981e-20)
(0.692623 0.0466158 0)
(0.532768 0.0255409 0)
(0.393293 0.0101289 -1.48994e-21)
(0.27551 -4.5248e-05 0)
(0.179439 -0.0056668 0)
(0.104233 -0.00757396 -1.27593e-20)
(0.0486269 -0.00629367 -1.43104e-20)
(0.0112661 -0.00176504 4.97056e-20)
(1.98583 0.236631 0)
(2.01657 0.250291 -1.21697e-20)
(2.03587 0.260106 1.35019e-20)
(2.03946 0.267205 -2.24639e-20)
(2.02168 0.268572 -3.51007e-20)
(1.97655 0.26323 3.86225e-20)
(1.89938 0.250051 0)
(1.78837 0.229215 -6.4477e-20)
(1.64566 0.201913 3.59571e-20)
(1.47733 0.170304 0)
(1.29233 0.137011 -4.86412e-20)
(1.10072 0.104604 -2.84398e-20)
(0.912034 0.0751657 -2.2205e-21)
(0.734085 0.0500758 6.78474e-20)
(0.572429 0.0299924 3.66258e-20)
(0.430421 0.0149685 0)
(0.309582 0.00462573 4.27131e-22)
(0.210091 -0.00166969 -2.38087e-20)
(0.131239 -0.00468961 0)
(0.0717874 -0.00527659 2.72848e-20)
(0.0303244 -0.00395459 4.1128e-20)
(0.0055273 -0.000683866 0)
(1.9992 0.208346 0)
(2.02443 0.221627 -1.4227e-20)
(2.03384 0.23017 -3.732e-21)
(2.02235 0.235437 2.8296e-20)
(1.98396 0.2342 3.67652e-21)
(1.91377 0.226032 -4.53583e-20)
(1.80949 0.210399 1.04541e-19)
(1.67271 0.188281 -2.86541e-20)
(1.50905 0.161456 0)
(1.32719 0.132331 -8.38545e-20)
(1.13718 0.103343 9.4617e-20)
(0.948728 0.0765535 -5.17306e-20)
(0.769891 0.0533842 0)
(0.606497 0.0345723 0)
(0.462119 0.0202593 -2.04724e-21)
(0.338436 0.0101453 0)
(0.23572 0.00365069 1.04906e-19)
(0.153324 5.59762e-05 -2.10558e-20)
(0.0900684 -0.00141763 -9.31052e-20)
(0.0445027 -0.00157318 0)
(0.015182 -0.000914661 -2.67995e-20)
(0.0008721 0.000575283 5.44961e-20)
(2.00869 0.177252 0)
(2.02558 0.190196 -3.01318e-20)
(2.02126 0.197623 4.22229e-20)
(1.99029 0.201484 -2.53258e-20)
(1.92735 0.198439 -3.45864e-20)
(1.82975 0.188718 4.4686e-20)
(1.69856 0.17236 5.29086e-20)
(1.53902 0.150959 6.31835e-20)
(1.35967 0.126562 -1.03878e-19)
(1.17066 0.101484 -9.90036e-23)
(0.981938 0.0777412 4.42144e-20)
(0.80187 0.0568082 1.00365e-19)
(0.63656 0.0395201 2.70525e-20)
(0.489792 0.0261354 0)
(0.363374 0.0164696 -1.80363e-21)
(0.257638 0.0100424 0)
(0.171947 0.00620569 0)
(0.105106 0.00424355 0)
(0.0556656 0.00342198 2.14872e-20)
(0.0220945 0.00300074 2.26512e-20)
(0.00298437 0.00249935 0)
(-0.00278612 0.00190246 -1.06632e-20)
(2.01002 0.143366 0)
(2.01578 0.15648 2.98257e-20)
(1.99406 0.16329 4.84195e-20)
(1.94008 0.166481 0)
(1.85024 0.162772 0)
(1.7252 0.153111 -4.42292e-20)
(1.56981 0.137955 -5.23735e-20)
(1.39259 0.119215 -1.24802e-21)
(1.20396 0.0988611 3.22812e-20)
(1.01429 0.0788555 7.58175e-20)
(0.832346 0.0606888 0)
(0.664607 0.0453013 -4.85817e-20)
(0.5151 0.0330903 2.62229e-20)
(0.385773 0.0240217 -2.8653e-20)
(0.277011 0.0177597 -3.21639e-20)
(0.188165 0.0137831 -3.31871e-20)
(0.117991 0.0114739 7.3966e-20)
(0.0649735 0.0101823 -1.15853e-19)
(0.027534 0.0092522 -2.14011e-20)
(0.0041405 0.00801892 -1.17174e-21)
(-0.00654921 0.00602432 0)
(-0.00554874 0.00320775 -1.90423e-20)
(2.00371 0.104211 2.90122e-20)
(1.99436 0.117794 -3.22194e-20)
(1.95144 0.125027 -4.7879e-20)
(1.87165 0.129241 3.3645e-20)
(1.75431 0.127081 1.01181e-22)
(1.604 0.119931 2.53446e-21)
(1.4291 0.108365 1.98379e-21)
(1.24048 0.0942649 -1.78867e-19)
(1.0491 0.0792864 0)
(0.864408 0.0649388 3.67104e-20)
(0.693369 0.0522383 0)
(0.540363 0.0417368 0)
(0.40753 0.0335785 0)
(0.295335 0.0276123 -2.78194e-20)
(0.20313 0.0234949 0)
(0.12962 0.0207704 -3.2067e-20)
(0.073202 0.018924 1.38575e-19)
(0.0322023 0.017418 -3.54781e-20)
(0.00500551 0.0157013 0)
(-0.00988608 0.0131976 6.23554e-20)
(-0.0137516 0.00947558 -8.65767e-20)
(-0.00752906 0.00442366 1.90937e-20)
(1.98207 0.0619892 0)
(1.95629 0.0774815 0)
(1.89073 0.0864722 0)
(1.78536 0.0933002 3.88257e-20)
(1.64291 0.0945684 -2.54298e-21)
(1.472 0.0919005 -4.8232e-20)
(1.28381 0.0857141 5.29387e-20)
(1.09035 0.0775678 5.92573e-20)
(0.901998 0.0686593 0)
(0.726539 0.0600317 -3.62554e-20)
(0.568886 0.052326 -3.90185e-20)
(0.431487 0.045853 8.72222e-20)
(0.31495 0.0406548 -4.711e-20)
(0.218666 0.0365927 0)
(0.141317 0.0334162 0)
(0.0812417 0.0308083 0)
(0.0366733 0.0284107 0)
(0.00588741 0.0258373 0)
(-0.012719 0.0226717 3.68217e-20)
(-0.0206052 0.0184481 0)
(-0.0190144 0.0127802 0)
(-0.0088607 0.00551786 -7.10499e-20)
(1.95219 0.0120002 0)
(1.90628 0.0300526 -4.83883e-20)
(1.81683 0.0433897 6.32435e-20)
(1.6869 0.055834 4.39209e-20)
(1.52294 0.0637972 -4.98082e-24)
(1.337 0.0684285 0)
(1.14183 0.0697913 0)
(0.949333 0.0689513 0)
(0.768415 0.0667068 -3.5525e-22)
(0.604838 0.0637615 -1.05168e-19)
(0.461527 0.0605519 3.84934e-20)
(0.339331 0.0573057 0)
(0.237744 0.0540904 -2.18028e-22)
(0.155478 0.0508737 -9.81177e-20)
(0.0908646 0.047565 -2.7854e-20)
(0.042102 0.0440361 5.78836e-20)
(0.00739891 0.0401265 3.10757e-20)
(-0.0149439 0.0356394 0)
(-0.026495 0.0303293 -3.65583e-20)
(-0.0286883 0.0238767 1.86493e-20)
(-0.0227699 0.0159803 -7.97114e-20)
(-0.00969232 0.00649334 6.80938e-20)
(1.90088 -0.0363039 0)
(1.8393 -0.0139489 -7.20849e-21)
(1.72937 0.00451877 6.70714e-20)
(1.58005 0.0234221 -1.92002e-19)
(1.40087 0.039049 9.0403e-20)
(1.20657 0.0518197 -5.1774e-20)
(1.01049 0.0614108 -1.11976e-19)
(0.823574 0.0682558 0)
(0.652891 0.0727538 6.38504e-20)
(0.502205 0.0752965 1.04027e-19)
(0.372777 0.0761731 -7.47192e-20)
(0.264292 0.0755823 4.03307e-20)
(0.175548 0.0736616 4.37468e-20)
(0.104928 0.0705176 9.58301e-20)
(0.050665 0.0662452 -7.78003e-20)
(0.0109817 0.0609305 0)
(-0.0158398 0.0546403 -3.07357e-20)
(-0.0314294 0.0474051 3.33009e-20)
(-0.0373148 0.0391954 -3.44763e-20)
(-0.0349261 0.0298884 -1.85174e-20)
(-0.0255494 0.0193281 0)
(-0.010225 0.00744242 0)
(1.85104 -0.0991473 3.1198e-20)
(1.76958 -0.0693366 0)
(1.6402 -0.0408437 0)
(1.47454 -0.0117421 -4.20307e-20)
(1.28468 0.0152866 9.37278e-20)
(1.08709 0.0389847 -1.00838e-21)
(0.894648 0.0587251 1.1151e-19)
(0.71647 0.0742987 -6.12213e-20)
(0.557489 0.0858931 6.38324e-20)
(0.41961 0.0938041 -1.37705e-19)
(0.302803 0.0983688 0)
(0.206006 0.0998996 1.19082e-19)
(0.127691 0.0986858 -1.28502e-19)
(0.066185 0.0950066 -4.67275e-20)
(0.0198162 0.0891457 2.93212e-23)
(-0.0130401 0.0813954 5.39473e-20)
(-0.033953 0.0720454 2.90911e-20)
(-0.0444409 0.0613625 3.1717e-20)
(-0.0459749 0.0495609 -3.37706e-20)
(-0.0399871 0.0367593 3.49671e-20)
(-0.0278233 0.0230176 7.42757e-20)
(-0.01064 0.00843936 -1.13084e-19)
(1.75847 -0.13207 -5.05234e-20)
(1.64401 -0.10448 0)
(1.48962 -0.0670422 0)
(1.30804 -0.0302812 -9.67109e-20)
(1.11431 0.00596474 0)
(0.923129 0.0382078 0)
(0.744314 0.0657761 6.06842e-20)
(0.583614 0.0880081 -1.96375e-19)
(0.443334 0.10499 6.22703e-22)
(0.323638 0.116959 -7.23702e-20)
(0.223543 0.124262 1.16596e-19)
(0.141571 0.127252 -3.80593e-22)
(0.0761161 0.126289 2.44515e-22)
(0.0256052 0.121745 -4.76208e-20)
(-0.0114554 0.114025 5.20326e-20)
(-0.0364914 0.103575 7.30393e-22)
(-0.0508883 0.0908746 -8.90291e-20)
(-0.0560137 0.0764128 0)
(-0.0532299 0.0606559 0)
(-0.043907 0.0439976 -3.55052e-20)
(-0.0293694 0.0267797 -1.82401e-20)
(-0.0107961 0.00938636 -1.60693e-20)
(1.59728 -0.162826 1.9951e-20)
(1.44355 -0.122225 -4.35741e-20)
(1.26801 -0.071119 4.54749e-20)
(1.07931 -0.0240786 1.52502e-19)
(0.89421 0.0209062 0)
(0.721576 0.0591061 5.9302e-20)
(0.566997 0.0908501 -3.35249e-22)
(0.432239 0.115713 6.69615e-20)
(0.31718 0.134202 1.40745e-19)
(0.220593 0.146783 -7.60896e-20)
(0.140907 0.153963 -3.96914e-20)
(0.0765135 0.15619 1.28415e-19)
(0.0259219 0.153878 -9.13232e-20)
(-0.0122192 0.147438 9.7952e-20)
(-0.039147 0.137317 -5.22734e-20)
(-0.0560294 0.124016 0)
(-0.0640082 0.108098 0)
(-0.0642269 0.090168 0)
(-0.0578467 0.0708448 0)
(-0.0460582 0.0507103 0)
(-0.0300173 0.0303294 1.83624e-20)
(-0.0107548 0.0103274 6.28621e-20)
(1.39213 -0.17351 1.30519e-19)
(1.21776 -0.120138 2.08024e-19)
(1.04036 -0.0591836 -4.7166e-20)
(0.861905 -0.00528254 -2.16331e-19)
(0.697393 0.0442423 5.95669e-20)
(0.549414 0.0852635 0)
(0.420559 0.118735 -6.58101e-20)
(0.310125 0.144578 -6.88055e-20)
(0.216999 0.16349 5.70269e-22)
(0.139585 0.17602 -3.92003e-20)
(0.0763687 0.182713 4.14882e-20)
(0.0259456 0.184031 -4.35132e-20)
(-0.0129299 0.180393 -4.66727e-20)
(-0.0413738 0.172213 9.98058e-20)
(-0.0604076 0.159943 -5.31269e-20)
(-0.0709991 0.144106 2.83267e-20)
(-0.0740973 0.125305 6.04417e-20)
(-0.070655 0.10422 -9.5561e-20)
(-0.0616435 0.0815713 6.66535e-20)
(-0.0480658 0.0580779 5.27457e-20)
(-0.030881 0.034475 -5.43277e-20)
(-0.0109176 0.0115808 -1.54629e-20)
(1.16927 -0.171487 -3.58837e-20)
(0.992893 -0.106915 -8.7229e-20)
(0.827143 -0.039666 0)
(0.668196 0.0187206 1.13088e-19)
(0.527576 0.0702171 1.29235e-21)
(0.403822 0.112278 -6.56797e-20)
(0.297883 0.14595 -6.75457e-20)
(0.208082 0.171561 2.17798e-19)
(0.133153 0.189921 -1.90198e-21)
(0.0715981 0.201684 8.47817e-22)
(0.0220986 0.20745 8.62631e-20)
(-0.0165642 0.20771 0)
(-0.0454844 0.202882 4.76268e-20)
(-0.06565 0.193349 -1.05509e-22)
(-0.0779598 0.179517 7.28405e-23)
(-0.0832486 0.161861 -8.57387e-20)
(-0.0823123 0.140949 0)
(-0.075928 0.117451 2.17294e-22)
(-0.0648724 0.0921107 -4.99861e-20)
(-0.0499403 0.0657038 -5.23636e-20)
(-0.0318623 0.0390611 5.38654e-20)
(-0.0112203 0.0131189 1.54297e-20)
(0.944854 -0.158666 -7.98217e-20)
(0.78025 -0.0862802 -4.70999e-20)
(0.632848 -0.0169619 -1.06081e-19)
(0.496407 0.0429787 5.37414e-22)
(0.378516 0.0940442 6.21065e-20)
(0.276249 0.135422 -1.4481e-21)
(0.189786 0.168013 0)
(0.117396 0.192464 -1.09884e-19)
(0.0579485 0.20964 7.9631e-20)
(0.0101351 0.22028 -4.09599e-20)
(-0.0272316 0.225034 -1.29354e-19)
(-0.055293 0.224416 4.66417e-20)
(-0.075103 0.218827 0)
(-0.0876171 0.208595 0)
(-0.0936856 0.19404 0)
(-0.0940633 0.175532 2.86743e-20)
(-0.089428 0.153538 0)
(-0.0804012 0.12864 1.61212e-20)
(-0.0675711 0.101523 -1.6711e-20)
(-0.0515176 0.0729353 -6.93847e-20)
(-0.0327328 0.0437143 -4.34745e-22)
(-0.0115392 0.0148163 6.03672e-20)
(0.728277 -0.140276 1.23372e-19)
(0.582414 -0.0643001 -4.66737e-20)
(0.454597 0.00395158 1.0818e-19)
(0.33965 0.0630421 -5.96686e-20)
(0.24165 0.112185 6.39335e-20)
(0.157934 0.151724 -6.71592e-20)
(0.0883052 0.182399 7.34808e-20)
(0.0313087 0.205048 -3.78953e-20)
(-0.0140867 0.220583 0)
(-0.0490987 0.229838 0)
(-0.0749135 0.233532 0)
(-0.0927074 0.232221 4.65288e-20)
(-0.103581 0.226296 2.45181e-20)
(-0.10852 0.216024 -5.17343e-20)
(-0.108372 0.201615 2.25785e-22)
(-0.103846 0.183294 8.64107e-20)
(-0.0955271 0.161369 -7.55672e-20)
(-0.0839044 0.136264 -4.75054e-20)
(-0.0693937 0.108524 4.95661e-20)
(-0.0523715 0.0787861 0)
(-0.0331079 0.0477993 0)
(-0.0116929 0.0164323 5.20917e-20)
(0.520934 -0.120597 8.15806e-20)
(0.395446 -0.0448563 9.76303e-20)
(0.286079 0.0204634 -5.47427e-20)
(0.190518 0.0768928 -5.91636e-20)
(0.110167 0.123108 3.02956e-22)
(0.0432153 0.159916 0)
(-0.0108227 0.187993 7.14108e-20)
(-0.0531784 0.208283 -3.98896e-20)
(-0.0849255 0.221767 -3.99699e-20)
(-0.107318 0.229383 -4.20612e-20)
(-0.121635 0.231938 0)
(-0.129145 0.230047 -2.33072e-20)
(-0.131024 0.224108 -2.47514e-20)
(-0.128304 0.214334 2.58376e-20)
(-0.121841 0.200821 8.17286e-20)
(-0.112311 0.183633 -5.7548e-20)
(-0.10023 0.162887 1.5127e-20)
(-0.0859804 0.138802 6.27909e-20)
(-0.0698382 0.111723 -4.87761e-20)
(-0.0520097 0.0821013 -6.75871e-20)
(-0.03259 0.0505159 -2.28262e-22)
(-0.011503 0.0176474 5.80915e-20)
(0.321072 -0.101599 0)
(0.215084 -0.0292808 -2.42716e-21)
(0.123055 0.0319161 0)
(0.0454047 0.0843042 -5.8216e-20)
(-0.0182393 0.126712 1.33599e-21)
(-0.0689866 0.159982 3.54528e-20)
(-0.107626 0.184807 0)
(-0.135348 0.202198 -1.13345e-19)
(-0.153382 0.213221 8.21833e-20)
(-0.163106 0.21892 7.28895e-22)
(-0.165924 0.220197 4.39889e-20)
(-0.163196 0.217733 -7.00905e-20)
(-0.156158 0.211945 4.95849e-20)
(-0.14586 0.203007 -2.60346e-20)
(-0.133149 0.190917 -2.73526e-20)
(-0.118665 0.17559 1.4124e-20)
(-0.102864 0.156951 7.41952e-20)
(-0.0860519 0.135004 -9.60804e-23)
(-0.0684071 0.109861 -1.44331e-19)
(-0.0500176 0.081754 6.62532e-20)
(-0.0308761 0.0510309 0)
(-0.0108373 0.0181121 7.13817e-21)
(0.128773 -0.0832999 -3.53017e-21)
(0.0409911 -0.0170515 -5.48382e-21)
(-0.0340083 0.0388553 1.18862e-21)
(-0.0942506 0.0860096 0)
(-0.141146 0.123663 0)
(-0.175527 0.152555 6.67144e-20)
(-0.198509 0.173447 -1.82646e-21)
(-0.211423 0.187409 -7.56909e-20)
(-0.215718 0.195592 1.10831e-21)
(-0.212931 0.199128 4.21481e-20)
(-0.204575 0.198995 0)
(-0.192059 0.195922 4.59919e-20)
(-0.176618 0.190341 -9.76189e-20)
(-0.159266 0.182401 5.15632e-20)
(-0.140795 0.172027 0)
(-0.121782 0.159018 -1.41943e-20)
(-0.102625 0.143141 -1.48107e-20)
(-0.0835722 0.12421 0)
(-0.0647484 0.102129 1.59277e-20)
(-0.0461823 0.0769116 -6.47599e-20)
(-0.0278495 0.0486632 7.46013e-20)
(-0.00964837 0.0175193 -6.12825e-20)
(-0.0515982 -0.0642106 0)
(-0.121964 -0.00638172 -8.18584e-20)
(-0.179643 0.0426085 1.56426e-21)
(-0.222364 0.0831728 5.28077e-20)
(-0.252089 0.114925 2.8235e-20)
(-0.269793 0.13851 6.3287e-20)
(-0.276961 0.154776 0)
(-0.275199 0.164845 3.59194e-20)
(-0.266199 0.169927 2.33835e-22)
(-0.25164 0.171188 0)
(-0.233086 0.169627 2.14181e-20)
(-0.211915 0.165978 0)
(-0.189269 0.16066 0)
(-0.166047 0.153792 1.26027e-20)
(-0.14292 0.145251 1.32292e-20)
(-0.120364 0.134764 0)
(-0.0986972 0.122 -5.78253e-20)
(-0.0781187 0.106647 5.27615e-20)
(-0.058731 0.0884657 -7.69027e-21)
(-0.0405546 0.0673083 6.33472e-20)
(-0.0236262 0.0430835 -6.50929e-20)
(-0.00799303 0.0156833 -4.61499e-20)
(-0.211548 -0.0441776 2.76593e-20)
(-0.264511 0.00349913 3.9142e-20)
(-0.304193 0.0438329 2.05913e-20)
(-0.328985 0.0764019 2.36289e-20)
(-0.341172 0.101099 -1.00503e-21)
(-0.342194 0.118549 -6.11111e-20)
(-0.333969 0.12968 3.24432e-20)
(-0.318434 0.135643 -5.25675e-20)
(-0.297486 0.137641 0)
(-0.272866 0.136796 0)
(-0.246072 0.134039 -6.39408e-20)
(-0.218325 0.130034 4.54268e-20)
(-0.190566 0.125141 0)
(-0.163482 0.119436 -1.1953e-22)
(-0.137557 0.112763 -1.32807e-20)
(-0.113113 0.104821 0)
(-0.0903651 0.0952471 5.72649e-20)
(-0.0694561 0.083689 -1.11381e-19)
(-0.0504746 0.0698546 6.14264e-20)
(-0.0334622 0.0535362 6.22843e-20)
(-0.0185618 0.0345477 -7.18033e-20)
(-0.00603765 0.0126479 3.2004e-21)
(-0.338015 -0.0227684 0)
(-0.372512 0.0130953 0)
(-0.393164 0.0428922 -1.92541e-20)
(-0.399609 0.0659726 -4.60095e-20)
(-0.394452 0.0825272 -1.24827e-20)
(-0.379762 0.093243 -1.39728e-20)
(-0.357866 0.0990882 -1.54247e-20)
(-0.330945 0.101158 1.73517e-20)
(-0.300941 0.100528 -3.66687e-20)
(-0.269464 0.0981465 8.87895e-20)
(-0.237761 0.0947642 -2.83481e-22)
(-0.206742 0.0908852 -2.9519e-22)
(-0.177024 0.0867581 -1.07029e-19)
(-0.149004 0.0823952 5.03162e-20)
(-0.122923 0.0776225 0)
(-0.0989261 0.072148 6.9059e-21)
(-0.0771058 0.0656364 0)
(-0.0575381 0.0577706 -7.42152e-21)
(-0.0402905 0.0483012 7.62976e-21)
(-0.0254215 0.0370678 -3.89143e-21)
(-0.0131716 0.0239296 -3.94141e-21)
(-0.00401908 0.00869131 -1.3027e-23)
(-0.410119 -0.00471699 -1.19853e-20)
(-0.424487 0.0186467 1.32644e-20)
(-0.425416 0.0371887 4.58718e-20)
(-0.414147 0.0504728 -2.04054e-20)
(-0.393647 0.0589967 1.25469e-20)
(-0.366495 0.0635219 -2.71933e-20)
(-0.335176 0.0649554 5.32904e-20)
(-0.301778 0.0642007 0)
(-0.267939 0.0620616 -2.73439e-20)
(-0.234839 0.0591901 -1.96783e-20)
(-0.20325 0.0560615 4.22655e-20)
(-0.173621 0.052968 3.93251e-20)
(-0.14617 0.0500244 -3.6002e-20)
(-0.120973 0.0471882 3.78095e-20)
(-0.0980321 0.0442929 -5.32388e-20)
(-0.0773296 0.0410953 5.30056e-23)
(-0.0588549 0.0373288 -2.8744e-20)
(-0.0426252 0.0327568 6.70016e-20)
(-0.0286785 0.027221 -3.07014e-20)
(-0.0170656 0.0206726 3.8924e-21)
(-0.00805124 0.0131166 -3.26173e-23)
(-0.00221577 0.00456535 -4.77707e-21)
(-0.387442 0.00875957 0)
(-0.382093 0.018681 0)
(-0.36638 0.0254781 -4.53425e-21)
(-0.342864 0.0292709 0)
(-0.314429 0.0307571 5.87077e-21)
(-0.283454 0.0305889 1.35807e-20)
(-0.251865 0.0293565 2.27278e-20)
(-0.221042 0.027535 -3.29649e-20)
(-0.191873 0.0254782 -1.37172e-20)
(-0.164849 0.0234326 1.48635e-20)
(-0.140156 0.0215528 0)
(-0.117786 0.019915 -1.9917e-20)
(-0.0976204 0.0185243 2.72567e-20)
(-0.0795027 0.0173216 0)
(-0.0632894 0.0161935 -2.67719e-20)
(-0.0488799 0.0149887 2.11432e-20)
(-0.0362267 0.0135434 0)
(-0.0253331 0.0117138 1.90608e-21)
(-0.0162299 0.00942226 -3.07776e-20)
(-0.00894614 0.00670607 2.6118e-22)
(-0.0036566 0.00372739 3.60842e-20)
(-0.000826123 0.000845482 1.60008e-21)
(-0.207399 0.0048332 0)
(-0.194095 0.00620306 0)
(-0.176693 0.00673208 -3.93963e-21)
(-0.157567 0.00659358 -2.00198e-20)
(-0.138254 0.00609972 1.62854e-20)
(-0.119778 0.00544508 2.55433e-23)
(-0.102742 0.00475619 -1.43869e-23)
(-0.0874203 0.00410486 1.59534e-23)
(-0.073865 0.00352768 -1.35411e-20)
(-0.0619892 0.00304129 3.40083e-20)
(-0.0516267 0.00265168 -2.08701e-20)
(-0.0425765 0.0023581 2.74971e-21)
(-0.0346363 0.00215311 -2.65751e-20)
(-0.0276286 0.00202026 2.50641e-20)
(-0.0214197 0.00193135 0)
(-0.0159316 0.00184498 -2.73103e-20)
(-0.0111459 0.00170815 2.85317e-20)
(-0.00709981 0.00146376 2.73971e-20)
(-0.00386765 0.00106921 -3.02103e-20)
(-0.0015245 0.000528481 0)
(-0.000154018 -6.43009e-05 0)
(0.000126718 -0.000402248 -6.23922e-24)
(1.13741 0.0225781 -3.88102e-20)
(1.09141 0.0240842 0)
(1.04337 0.0256418 2.58521e-20)
(0.993169 0.0272527 8.98926e-25)
(0.940913 0.028922 -3.38596e-20)
(0.886688 0.0306561 3.70498e-20)
(0.830587 0.0324572 2.16985e-20)
(0.772716 0.034326 -4.63907e-20)
(0.713192 0.0362614 2.63426e-20)
(0.652148 0.0382603 -2.8414e-20)
(0.589726 0.0403149 4.20607e-22)
(0.526094 0.042404 -3.39793e-20)
(0.461471 0.0444719 -1.13101e-24)
(0.396189 0.0463946 1.98375e-20)
(0.330802 0.0479391 0)
(0.266211 0.0487358 6.76948e-20)
(0.203788 0.0482842 -9.48796e-20)
(0.145421 0.046001 6.18082e-20)
(0.0933818 0.0413061 -1.28287e-20)
(0.0500828 0.0337211 1.32591e-20)
(0.0187776 0.0229278 -2.75508e-20)
(0.00352171 0.00881777 2.24154e-20)
(1.14179 0.0784583 1.1712e-19)
(1.09624 0.0840941 1.5096e-21)
(1.0488 0.0900112 -7.65894e-20)
(0.99918 0.0961797 5.95006e-20)
(0.947502 0.102592 1.9556e-21)
(0.893857 0.109252 -7.36074e-20)
(0.838337 0.116155 -2.05081e-20)
(0.781047 0.123294 1.40644e-19)
(0.722107 0.130661 -4.89213e-20)
(0.661648 0.13824 -2.26849e-19)
(0.599811 0.145997 9.31839e-20)
(0.53676 0.153849 0)
(0.472698 0.161574 -3.64209e-20)
(0.407928 0.168695 -1.98338e-20)
(0.342944 0.174333 8.46885e-20)
(0.278562 0.177126 -1.55523e-19)
(0.216028 0.175266 2.32498e-20)
(0.15709 0.166686 -8.6569e-20)
(0.103875 0.149365 2.17047e-19)
(0.0586692 0.121668 -1.44619e-19)
(0.0246391 0.0825515 2.6858e-20)
(0.00579875 0.0317173 -8.9113e-20)
(1.15049 0.134342 -7.5988e-20)
(1.1059 0.144126 8.80196e-20)
(1.05969 0.154327 -2.03408e-19)
(1.01124 0.164937 1.13476e-19)
(0.960739 0.175944 -1.32228e-19)
(0.908277 0.187358 2.93441e-19)
(0.853947 0.199177 -3.75824e-20)
(0.797858 0.211393 -4.39524e-20)
(0.74013 0.223992 -4.92003e-20)
(0.68089 0.23695 -1.11769e-19)
(0.620278 0.250214 1.81803e-19)
(0.558446 0.263637 0)
(0.495567 0.276842 3.63718e-20)
(0.431877 0.289003 0)
(0.367753 0.298608 0)
(0.30382 0.303319 4.41571e-20)
(0.241073 0.300038 -2.07693e-19)
(0.180969 0.285239 1.674e-19)
(0.12534 0.255486 0)
(0.0762246 0.208011 5.14564e-20)
(0.0366151 0.141066 -5.29705e-20)
(0.0104486 0.0541788 1.08681e-19)
(1.16257 0.187475 0)
(1.11952 0.201287 -8.77088e-20)
(1.07527 0.215633 2.00523e-19)
(1.02868 0.230566 3.36734e-21)
(0.980015 0.246061 3.6207e-21)
(0.929396 0.262128 -2.81674e-19)
(0.876908 0.278765 0)
(0.822666 0.29596 8.76431e-20)
(0.766791 0.313693 1.99494e-19)
(0.709413 0.331933 -1.60183e-19)
(0.650666 0.350604 1.79652e-19)
(0.590686 0.3695 -2.56723e-19)
(0.529604 0.388088 0)
(0.467559 0.405205 1.50756e-19)
(0.404746 0.418718 -1.59091e-19)
(0.341508 0.425334 1.69707e-19)
(0.278463 0.420703 -3.55608e-19)
(0.21663 0.399881 -8.66201e-22)
(0.157405 0.358071 1.92544e-19)
(0.102454 0.29143 -7.40675e-20)
(0.0545096 0.197557 2.32338e-19)
(0.0173936 0.0758392 -3.58402e-19)
(1.17801 0.237987 -1.48525e-19)
(1.13702 0.2557 1.59814e-19)
(1.09537 0.273993 -5.81123e-21)
(1.05124 0.293047 -6.33412e-21)
(1.00502 0.312815 2.41991e-19)
(0.956846 0.333311 4.8233e-21)
(0.906802 0.354535 0)
(0.855013 0.376474 8.63403e-20)
(0.8016 0.399106 -9.50701e-20)
(0.746696 0.42239 -1.08701e-19)
(0.690428 0.446234 2.26744e-19)
(0.632914 0.470374 1.21327e-19)
(0.574226 0.494132 -4.00448e-19)
(0.514374 0.516015 2.85954e-19)
(0.453314 0.533296 7.45216e-20)
(0.391017 0.541759 -2.45565e-19)
(0.3276 0.535845 2.51332e-19)
(0.263505 0.509253 1.76971e-19)
(0.199554 0.455891 0)
(0.136928 0.370914 2.53482e-21)
(0.0780246 0.251333 -4.75257e-20)
(0.026514 0.0964331 -3.9154e-20)
(1.19637 0.284581 -5.32301e-21)
(1.15799 0.306024 1.52757e-19)
(1.11956 0.328029 0)
(1.07846 0.350973 0)
(1.03528 0.374776 0)
(0.990129 0.399457 2.63363e-19)
(0.943111 0.425017 0)
(0.894353 0.451443 5.72355e-21)
(0.843982 0.478711 -6.3128e-19)
(0.79213 0.506777 -1.05122e-19)
(0.738922 0.535531 1.09985e-19)
(0.68445 0.564661 -1.20806e-19)
(0.628719 0.593349 1.30324e-19)
(0.571581 0.619799 1.31949e-19)
(0.512698 0.640713 -7.42842e-20)
(0.45158 0.650996 -7.84956e-20)
(0.387728 0.643935 -8.24007e-20)
(0.320874 0.611939 8.05628e-20)
(0.251138 0.547703 0)
(0.179111 0.445461 4.04933e-19)
(0.106789 0.301715 5.02781e-20)
(0.0376603 0.115697 -1.11628e-19)
(1.21723 0.326673 -1.36275e-19)
(1.18195 0.351619 -1.57009e-19)
(1.14729 0.377042 0)
(1.10976 0.403584 -1.92806e-19)
(1.07013 0.431126 0)
(1.02853 0.459688 -1.27953e-19)
(0.985068 0.489279 2.81877e-19)
(0.939872 0.519884 -4.60345e-19)
(0.89308 0.551479 1.69541e-19)
(0.844826 0.584014 5.60832e-19)
(0.795229 0.617368 1.07687e-19)
(0.744353 0.651184 -2.20188e-19)
(0.692124 0.684523 -1.15005e-19)
(0.638211 0.715305 -2.54025e-19)
(0.58193 0.739703 -2.70217e-19)
(0.522247 0.751792 6.36913e-19)
(0.457936 0.743769 -2.97619e-19)
(0.387892 0.706829 -8.0373e-20)
(0.311409 0.632538 3.21385e-19)
(0.228399 0.5143 -3.31133e-19)
(0.140391 0.348188 0)
(0.0506705 0.13344 0)
(1.23989 0.36356 -1.17581e-19)
(1.20822 0.391766 4.3017e-21)
(1.17785 0.420293 -2.3524e-21)
(1.14439 0.450115 2.48538e-21)
(1.10881 0.481052 4.10693e-19)
(1.07126 0.513136 0)
(1.03183 0.546382 -1.26657e-19)
(0.990675 0.580781 1.40156e-19)
(0.947943 0.616313 -3.21325e-19)
(0.903767 0.652928 1.78447e-19)
(0.858264 0.690498 0)
(0.811474 0.728636 0)
(0.763235 0.766297 1.14288e-19)
(0.713016 0.801151 1.21983e-19)
(0.659744 0.828887 0)
(0.601765 0.842807 5.65479e-20)
(0.537021 0.834086 0)
(0.463447 0.792778 0)
(0.379398 0.70941 0)
(0.284015 0.576647 -7.15699e-20)
(0.178311 0.390227 0)
(0.0653397 0.14946 2.58849e-19)
(1.26361 0.394667 7.20031e-19)
(1.23601 0.425806 -5.33937e-19)
(1.21035 0.457072 -1.52289e-19)
(1.18135 0.48982 3.99456e-21)
(1.15023 0.523803 -3.9488e-19)
(1.11712 0.559062 -2.20465e-19)
(1.08215 0.595617 1.21318e-19)
(1.04549 0.633459 3.97728e-19)
(1.00727 0.672567 -2.92995e-19)
(0.967648 0.712893 1.67065e-19)
(0.926727 0.754304 0)
(0.884519 0.796389 -3.76873e-19)
(0.840777 0.838023 4.02295e-19)
(0.794745 0.876665 0)
(0.744925 0.90757 3.31719e-19)
(0.688972 0.923338 -7.07166e-19)
(0.623895 0.914194 2.46229e-19)
(0.546551 0.869139 -3.12994e-19)
(0.454247 0.777745 2.62687e-19)
(0.34528 0.632038 8.12112e-21)
(0.220095 0.427519 0)
(0.0814936 0.163645 0)
(1.28749 0.419836 -5.37677e-21)
(1.26445 0.453627 -2.42281e-19)
(1.24392 0.487281 5.7141e-19)
(1.2198 0.522557 1.56325e-19)
(1.19353 0.559137 0)
(1.16525 0.597085 -1.94494e-19)
(1.13509 0.636439 2.15205e-19)
(1.10323 0.677203 2.47566e-19)
(1.06985 0.719366 -1.39139e-19)
(1.0351 0.762888 0)
(0.999092 0.807641 0)
(0.961817 0.853206 -3.40214e-19)
(0.922945 0.898407 3.63395e-19)
(0.881501 0.94053 -4.72487e-19)
(0.835533 0.974462 2.97931e-19)
(0.781953 0.992161 1.26137e-20)
(0.71674 0.982972 -1.01353e-19)
(0.635559 0.934912 5.95062e-20)
(0.534553 0.836688 5.3273e-20)
(0.411091 0.679784 8.51116e-21)
(0.265016 0.459583 5.6255e-20)
(0.0988486 0.175801 0)
(1.31065 0.438573 -4.11518e-19)
(1.29252 0.474572 2.43679e-19)
(1.27731 0.510233 -1.37249e-19)
(1.25829 0.547714 -2.98171e-19)
(1.23715 0.586598 -1.67607e-19)
(1.214 0.626951 3.75501e-19)
(1.18901 0.668811 -2.1239e-19)
(1.16236 0.712181 0)
(1.13424 0.757055 -3.72675e-19)
(1.1048 0.803398 1.38483e-19)
(1.07415 0.85109 -1.35507e-19)
(1.04228 0.899714 1.5899e-19)
(1.00876 0.948061 -3.24078e-19)
(0.972401 0.993293 8.98854e-20)
(0.930763 1.02999 0)
(0.879953 1.04955 1.93145e-19)
(0.814833 1.04054 -2.7397e-19)
(0.72977 0.990089 1.93583e-19)
(0.619659 0.886139 -8.24239e-21)
(0.48089 0.719746 5.44632e-20)
(0.312679 0.486295 -5.61411e-20)
(0.117248 0.185883 3.96462e-20)
(1.33215 0.451625 3.86873e-19)
(1.31954 0.489606 0)
(1.31002 0.526851 0)
(1.29642 0.565975 1.41761e-19)
(1.28061 0.60652 6.43373e-21)
(1.26273 0.648599 -3.29146e-19)
(1.24298 0.692274 0)
(1.2216 0.737562 0)
(1.19879 0.78447 0)
(1.17472 0.832978 1.24572e-19)
(1.14952 0.882982 1.33702e-19)
(1.12317 0.934089 1.57797e-20)
(1.0952 0.985098 0)
(1.06419 1.03311 -1.37203e-19)
(1.02725 1.07246 2.28297e-19)
(0.979673 1.09406 -2.31305e-19)
(0.915106 1.08573 0)
(0.826496 1.03375 -7.21943e-20)
(0.707348 0.925364 -4.45429e-20)
(0.55299 0.75132 -3.67257e-20)
(0.361993 0.507194 -1.69647e-19)
(0.13627 0.193686 -4.04226e-20)
(1.35104 0.457834 -1.70622e-19)
(1.34401 0.497347 1.9463e-19)
(1.3401 0.53607 0)
(1.33213 0.576809 0)
(1.32197 0.618997 1.44041e-19)
(1.30975 0.66275 4.57988e-19)
(1.29569 0.708137 -3.26442e-19)
(1.28004 0.755187 0)
(1.26302 0.803918 1.86089e-19)
(1.24481 0.854319 0)
(1.22556 0.9063 -2.2027e-19)
(1.20523 0.959483 1.30565e-19)
(1.1833 1.01268 2.47214e-19)
(1.15813 1.06294 1.35481e-19)
(1.12634 1.10444 1.0997e-20)
(1.08232 1.12766 -5.83515e-20)
(1.01846 1.11983 -5.76107e-20)
(0.926208 1.06656 7.16124e-20)