/*--------------------------------*- C++ -*----------------------------------*\
| =========                 |                                                 |
| \\      /  F ield         | OpenFOAM Extend Project: Open source CFD        |
|  \\    /   O peration     | Version:  1.6-ext                               |
|   \\  /    A nd           | Web:      www.extend-project.de                 |
|    \\/     M anipulation  |                                                 |
\*---------------------------------------------------------------------------*/
FoamFile
{
    version     2.0;
    format      ascii;
    class       volVectorField;
    location    "0.25";
    object      U_0;
}
// * * * * * * * * * * * * * * * * * * * * * * * * * * * * * * * * * * * * * //

dimensions      [0 1 -1 0 0 0 0];

internalField   nonuniform List<vector> 
20940
(
(1.85909 0.388563 -2.17473e-21)
(1.90035 0.407712 2.85546e-26)
(1.93942 0.426573 0)
(1.97548 0.444016 8.02911e-26)
(2.00832 0.460196 0)
(2.03639 0.47397 3.68364e-21)
(2.05686 0.48424 5.95987e-25)
(2.06505 0.489073 0)
(2.0546 0.486229 0)
(2.01831 0.473411 6.40633e-21)
(1.94964 0.448957 -6.92433e-21)
(1.84458 0.412469 -4.82792e-22)
(1.7031 0.365209 9.90157e-21)
(1.52967 0.31004 1.215e-20)
(1.33258 0.250923 -6.41176e-21)
(1.12233 0.192148 0)
(0.909667 0.13761 9.8786e-25)
(0.704012 0.0903238 -4.14639e-21)
(0.512511 0.0522102 -9.11154e-21)
(0.339743 0.0241299 1.90049e-20)
(0.187932 0.00663261 -9.85574e-21)
(0.057405 0.000463481 -4.05085e-21)
(1.88443 0.364464 -1.40292e-21)
(1.92508 0.382296 -1.37681e-21)
(1.96309 0.399296 -1.5924e-21)
(1.99743 0.414977 -1.23013e-21)
(2.02741 0.428938 0)
(2.05066 0.439943 5.35435e-21)
(2.06333 0.446574 -9.89525e-21)
(2.0598 0.446786 -7.59996e-21)
(2.03324 0.438465 -1.04049e-20)
(1.97696 0.41983 1.12848e-20)
(1.88606 0.390092 1.53617e-20)
(1.75914 0.349903 -2.4282e-20)
(1.59917 0.301451 1.36271e-21)
(1.41321 0.248119 -2.20119e-20)
(1.21106 0.193823 5.87197e-21)
(1.00345 0.1423 -1.46528e-20)
(0.800263 0.0965701 1.43776e-20)
(0.609426 0.0586894 2.00134e-20)
(0.436407 0.0297252 -8.2973e-21)
(0.284297 0.00989187 -1.81293e-20)
(0.154226 -0.000697497 1.86529e-20)
(0.0458913 -0.00155065 4.03962e-21)
(1.90735 0.339868 0)
(1.9472 0.356507 -8.13821e-22)
(1.98371 0.371831 1.60007e-21)
(2.01558 0.385842 1.06086e-20)
(2.04138 0.397567 -1.21584e-20)
(2.05777 0.405658 0)
(2.05988 0.408431 1.29661e-20)
(2.04137 0.403873 -2.2151e-20)
(1.99554 0.390208 -2.0869e-20)
(1.91692 0.366373 -2.69416e-21)
(1.80302 0.332545 2.73708e-20)
(1.65543 0.290333 1.70204e-20)
(1.47997 0.242583 -1.88221e-20)
(1.28568 0.192822 -4.42877e-20)
(1.08303 0.144591 1.13726e-20)
(0.882193 0.10087 -5.28421e-20)
(0.691671 0.0637677 -1.44956e-20)
(0.517662 0.0344814 3.00217e-20)
(0.363991 0.0133889 -7.34313e-21)
(0.232421 0.00022958 0)
(0.123175 -0.0051943 3.58547e-20)
(0.0354741 -0.0025946 -2.95216e-20)
(1.92902 0.315009 0)
(1.96774 0.330643 5.71595e-21)
(2.0021 0.344449 -1.9962e-21)
(2.0303 0.356811 -2.29353e-20)
(2.04997 0.366171 1.21155e-20)
(2.0567 0.371096 -1.86758e-20)
(2.04474 0.369747 0)
(2.00753 0.360348 -1.81703e-20)
(1.93929 0.341685 1.72317e-20)
(1.83666 0.313568 -2.47816e-20)
(1.70011 0.277133 -7.00587e-22)
(1.53431 0.234739 3.16568e-20)
(1.34748 0.189536 1.87833e-20)
(1.14973 0.144837 -4.19105e-20)
(0.951319 0.103542 6.78108e-20)
(0.761165 0.067781 1.27261e-20)
(0.586027 0.0388101 -6.60977e-20)
(0.430319 0.0171086 1.00312e-19)
(0.296354 0.00253871 -4.43861e-20)
(0.184774 -0.00547857 1.54672e-20)
(0.0951027 -0.00733542 -3.37293e-20)
(0.0262266 -0.00286981 4.13872e-20)
(1.94939 0.289695 2.48158e-21)
(1.98651 0.304467 -1.12367e-20)
(2.01768 0.316864 1.33871e-20)
(2.04047 0.327542 8.77817e-21)
(2.05133 0.334374 0)
(2.04489 0.335911 1.8598e-20)
(2.0149 0.330333 1.72679e-21)
(1.95541 0.316328 4.06299e-21)
(1.86247 0.293435 -1.72176e-20)
(1.73559 0.262392 0)
(1.57848 0.22514 -2.83198e-20)
(1.39853 0.184469 -3.50431e-20)
(1.20545 0.143459 6.80361e-20)
(1.00948 0.104907 -1.88345e-20)
(0.81981 0.0709386 0)
(0.64363 0.0428554 -4.699e-20)
(0.48582 0.0211919 9.94685e-20)
(0.349125 0.0058869 1.38137e-20)
(0.234568 -0.00354424 0)
(0.141921 -0.00786264 -9.03478e-20)
(0.0702156 -0.00756031 6.21827e-20)
(0.0181579 -0.00254263 -1.36009e-20)
(1.96793 0.263828 4.20342e-21)
(2.00269 0.277928 -4.67196e-21)
(2.02919 0.288992 0)
(2.04413 0.297887 2.21287e-20)
(2.04279 0.301994 -3.31208e-20)
(2.01913 0.299998 3.64384e-20)
(1.96721 0.290321 2.51705e-20)
(1.88262 0.272331 0)
(1.76417 0.246417 0)
(1.61472 0.214148 -4.63118e-20)
(1.44095 0.177983 5.0079e-20)
(1.25216 0.140772 3.14493e-20)
(1.05852 0.105198 -6.44464e-20)
(0.869399 0.0733644 1.87725e-20)
(0.692323 0.0466139 0)
(0.532543 0.0255381 0)
(0.393138 0.0101244 -1.48843e-21)
(0.275419 -5.17536e-05 0)
(0.179396 -0.00567452 0)
(0.104225 -0.00758146 -1.26762e-20)
(0.0486351 -0.00629933 -1.42238e-20)
(0.0112739 -0.00176793 4.94171e-20)
(1.98466 0.236743 0)
(2.01574 0.250254 -1.17371e-20)
(2.0353 0.25999 1.3022e-20)
(2.03906 0.267044 -2.19803e-20)
(2.02138 0.268401 -3.46142e-20)
(1.97628 0.263067 3.80872e-20)
(1.8991 0.249908 0)
(1.78804 0.229101 -6.38941e-20)
(1.64528 0.20183 3.56358e-20)
(1.47692 0.170252 0)
(1.29189 0.136987 -4.82644e-20)
(1.1003 0.104602 -2.82302e-20)
(0.911655 0.07518 -2.21514e-21)
(0.733764 0.0500985 6.73595e-20)
(0.572175 0.0300165 3.63647e-20)
(0.430235 0.0149885 0)
(0.309461 0.0046383 4.26932e-22)
(0.210025 -0.00166555 -2.36538e-20)
(0.131216 -0.00469262 0)
(0.0717923 -0.00528372 2.71172e-20)
(0.0303409 -0.00396201 4.08706e-20)
(0.0055383 -0.000688066 0)
(1.99779 0.208166 0)
(2.02341 0.221288 -1.37955e-20)
(2.03312 0.229758 -3.75151e-21)
(2.02184 0.234994 2.78468e-20)
(1.98358 0.233775 3.70464e-21)
(1.91345 0.225654 -4.48752e-20)
(1.80918 0.210089 1.03497e-19)
(1.67239 0.18805 -2.8378e-20)
(1.50871 0.161306 0)
(1.32683 0.132255 -8.3191e-20)
(1.13682 0.10333 9.38777e-20)
(0.948389 0.0765872 -5.13301e-20)
(0.76959 0.0534476 0)
(0.606244 0.0346489 0)
(0.461919 0.0203351 -2.04412e-21)
(0.33829 0.0102098 0)
(0.235625 0.00369786 1.04179e-19)
(0.153275 8.38685e-05 -2.09031e-20)
(0.0900545 -0.00140704 -9.24705e-20)
(0.0445128 -0.00157483 0)
(0.0152016 -0.000921662 -2.66288e-20)
(0.000884622 0.000570175 5.41435e-20)
(2.00698 0.176667 0)
(2.02433 0.189441 -2.92153e-20)
(2.02036 0.196807 4.13374e-20)
(1.98967 0.200667 -2.48494e-20)
(1.92692 0.19769 -3.4123e-20)
(1.82944 0.188081 4.42397e-20)
(1.69832 0.171863 5.2444e-20)
(1.5388 0.150614 6.26637e-20)
(1.35946 0.126363 -1.03035e-19)
(1.17045 0.101414 -1.01307e-22)
(0.981725 0.077774 4.38665e-20)
(0.801665 0.056914 9.9581e-20)
(0.63637 0.0396691 2.68389e-20)
(0.489623 0.0263008 0)
(0.363231 0.0166292 -1.80016e-21)
(0.257525 0.0101801 0)
(0.171865 0.00631178 0)
(0.105057 0.00431466 0)
(0.0556457 0.00346049 2.13319e-20)
(0.0220974 0.00301376 2.24903e-20)
(0.00299903 0.00249735 0)
(-0.00277481 0.00189763 -1.0593e-20)
(2.00792 0.142252 0)
(2.01422 0.155196 2.89187e-20)
(1.99297 0.161976 4.75136e-20)
(1.93937 0.165219 0)
(1.84984 0.161655 0)
(1.72501 0.152194 -4.37876e-20)
(1.56975 0.137274 -5.19136e-20)
(1.39261 0.118773 -1.22695e-21)
(1.204 0.0986419 3.20226e-20)
(1.01432 0.0788245 7.5233e-20)
(0.832352 0.0608034 0)
(0.664582 0.0455159 -4.81987e-20)
(0.515045 0.0333617 2.60107e-20)
(0.385694 0.0243119 -2.84266e-20)
(0.276917 0.0180379 -3.19139e-20)
(0.188068 0.0140264 -3.29237e-20)
(0.117902 0.0116682 7.34043e-20)
(0.0649025 0.0103216 -1.14971e-19)
(0.0274875 0.00933827 -2.12464e-20)
(0.00411932 0.00806028 -1.16951e-21)
(-0.00655065 0.00603494 0)
(-0.00554263 0.0032055 -1.8906e-20)
(2.00116 0.102459 2.81082e-20)
(1.9925 0.115867 -3.12157e-20)
(1.95021 0.123115 -4.69834e-20)
(1.87098 0.127451 3.32198e-20)
(1.75409 0.125539 1.18694e-22)
(1.60411 0.118704 2.57221e-21)
(1.42941 0.107488 2.00118e-21)
(1.24088 0.0937286 -1.77552e-19)
(1.04951 0.0790566 0)
(0.864766 0.064962 3.64393e-20)
(0.693643 0.0524533 0)
(0.540541 0.0420821 0)
(0.407613 0.0339969 0)
(0.295336 0.0280546 -2.75944e-20)
(0.203067 0.0239207 0)
(0.129515 0.0211494 -3.1808e-20)
(0.0730793 0.0192359 1.37475e-19)
(0.0320838 0.0176525 -3.51909e-20)
(0.00490874 0.0158578 0)
(-0.00995083 0.0132847 6.18883e-20)
(-0.0137825 0.0095094 -8.59304e-20)
(-0.00753321 0.0044276 1.8957e-20)
(1.97902 0.0595366 0)
(1.95413 0.0748657 0)
(1.88945 0.0839386 0)
(1.78488 0.0909746 3.83849e-20)
(1.64307 0.0926041 -2.54458e-21)
(1.4726 0.0903674 -4.78785e-20)
(1.28466 0.0846434 5.25505e-20)
(1.09126 0.0769373 5.88413e-20)
(0.902854 0.0684171 0)
(0.727264 0.0601064 -3.59876e-20)
(0.56944 0.0526402 -3.87225e-20)
(0.431861 0.0463307 8.65148e-20)
(0.315153 0.0412268 -4.6734e-20)
(0.218721 0.0371989 0)
(0.141256 0.0340068 0)
(0.0811001 0.0313443 0)
(0.0364887 0.0288643 0)
(0.00569487 0.0261919 0)
(-0.0128899 0.022922 3.65267e-20)
(-0.0207333 0.0185998 0)
(-0.0190887 0.0128499 0)
(-0.00888066 0.00553277 -7.05155e-20)
(1.94873 0.00884414 0)
(1.90403 0.0266991 -4.72992e-20)
(1.81576 0.0401694 6.22326e-20)
(1.68687 0.0529 4.34789e-20)
(1.52372 0.0613374 4.20739e-23)
(1.33827 0.0665206 0)
(1.14332 0.0684627 0)
(0.950812 0.0681662 0)
(0.769736 0.0663965 -3.75128e-22)
(0.605917 0.0638382 -1.04446e-19)
(0.462331 0.0609237 3.82014e-20)
(0.339863 0.0578837 0)
(0.238027 0.0547941 -2.21532e-22)
(0.15555 0.0516326 -9.72915e-20)
(0.0907721 0.048319 -2.76196e-20)
(0.0418943 0.0447365 5.73922e-20)
(0.00712637 0.0407359 3.08123e-20)
(-0.0152336 0.0361324 0)
(-0.0267602 0.0306931 -3.62654e-20)
(-0.0288965 0.0241114 1.84983e-20)
(-0.0228995 0.0160994 -7.90899e-20)
(-0.00973314 0.00652472 6.75629e-20)
(1.89714 -0.0400577 0)
(1.83707 -0.0179141 -7.25769e-21)
(1.72866 0.000718823 6.60063e-20)
(1.58062 0.0199583 -1.89686e-19)
(1.40237 0.0361349 8.95907e-20)
(1.20857 0.0495431 -5.13305e-20)
(1.01263 0.059799 -1.1124e-19)
(0.825585 0.0672682 0)
(0.654616 0.0723145 6.34364e-20)
(0.503569 0.0753102 1.03313e-19)
(0.373764 0.0765401 -7.41463e-20)
(0.264922 0.0762062 4.00305e-20)
(0.175863 0.0744535 4.33837e-20)
(0.10498 0.0713978 9.50132e-20)
(0.0505118 0.0671436 -7.71271e-20)
(0.0106851 0.0617875 0)
(-0.0162183 0.0554074 -3.04752e-20)
(-0.0318311 0.0480458 3.30268e-20)
(-0.037687 0.0396866 -3.41886e-20)
(-0.0352251 0.0302209 -1.83674e-20)
(-0.0257425 0.0195087 0)
(-0.0102903 0.0074957 0)
(1.84729 -0.103416 2.98622e-20)
(1.76769 -0.0739661 0)
(1.64015 -0.0453392 0)
(1.47594 -0.0158812 -4.15715e-20)
(1.28703 0.0117517 9.28183e-20)
(1.08984 0.036171 -9.40706e-22)
(0.897379 0.0566694 1.10795e-19)
(0.718911 0.0729635 -6.08296e-20)
(0.559503 0.0851979 6.34117e-20)
(0.421151 0.0936469 -1.36781e-19)
(0.303883 0.0986416 0)
(0.206666 0.100497 1.18126e-19)
(0.127987 0.0995092 -1.27452e-19)
(0.0661824 0.0959657 -4.63272e-20)
(0.0195816 0.0901595 3.35992e-23)
(-0.0134376 0.082392 5.34733e-20)
(-0.0344441 0.0729635 2.8833e-20)
(-0.0449585 0.0621524 3.14452e-20)
(-0.046457 0.0501866 -3.34855e-20)
(-0.0403797 0.0371998 3.46683e-20)
(-0.0280825 0.0232692 7.36651e-20)
(-0.0107315 0.00851922 -1.1216e-19)
(1.75553 -0.136644 -4.90054e-20)
(1.64328 -0.109373 0)
(1.49081 -0.0718563 0)
(1.31054 -0.0347155 -9.55605e-20)
(1.11747 0.00214926 0)
(0.92641 0.0351432 0)
(0.747342 0.0634978 6.02808e-20)
(0.586186 0.0864805 -1.95076e-19)
(0.445372 0.104136 6.38549e-22)
(0.325139 0.11668 -7.18442e-20)
(0.224546 0.124453 1.15727e-19)
(0.142133 0.127811 -4.16657e-22)
(0.0763033 0.127116 2.10153e-22)
(0.025487 0.122747 -4.72239e-20)
(-0.0118081 0.115115 5.15662e-20)
(-0.0370066 0.104673 7.22939e-22)
(-0.051494 0.0919099 -8.82331e-20)
(-0.0566394 0.0773249 0)
(-0.053809 0.0613973 0)
(-0.0443797 0.0445356 -3.52018e-20)
(-0.0296845 0.0270988 -1.80821e-20)
(-0.01091 0.00949282 -1.59365e-20)
(1.59661 -0.167992 1.91257e-20)
(1.44508 -0.127629 -4.28923e-20)
(1.27099 -0.0763442 4.48929e-20)
(1.08301 -0.0287698 1.50815e-19)
(0.898024 0.0169465 0)
(0.725079 0.0559842 5.88708e-20)
(0.569972 0.0885614 -3.29201e-22)
(0.434608 0.114198 6.65156e-20)
(0.31895 0.13337 1.39753e-19)
(0.221812 0.146531 -7.55366e-20)
(0.141642 0.154188 -3.93484e-20)
(0.0768349 0.15679 1.27346e-19)
(0.0258996 0.154757 -9.05093e-20)
(-0.0125165 0.148505 9.70687e-20)
(-0.0396507 0.138484 -5.17972e-20)
(-0.0566711 0.125202 0)
(-0.0647193 0.109227 0)
(-0.0649397 0.0911757 0)
(-0.0584963 0.071677 0)
(-0.0465853 0.0513262 0)
(-0.030369 0.0307045 1.82034e-20)
(-0.0108835 0.0104569 6.23188e-20)
(1.39377 -0.179149 1.27149e-19)
(1.2211 -0.125886 2.04323e-19)
(1.04442 -0.0646128 -4.64146e-20)
(0.866101 -0.0100524 -2.13934e-19)
(0.701244 0.0402743 5.90145e-20)
(0.552698 0.0821639 0)
(0.423198 0.11647 -6.53353e-20)
(0.312132 0.143079 -6.82913e-20)
(0.218427 0.162666 5.93761e-22)
(0.140505 0.175775 -3.88795e-20)
(0.0768504 0.18295 4.11323e-20)
(0.0260565 0.184653 -4.31398e-20)
(-0.0131252 0.181308 -4.6243e-20)
(-0.0418122 0.17333 9.88777e-20)
(-0.0610259 0.161175 -5.26279e-20)
(-0.0717337 0.145369 2.80521e-20)
(-0.0748835 0.126521 5.98695e-20)
(-0.0714283 0.105316 -9.46662e-20)
(-0.0623414 0.0824886 6.60274e-20)
(-0.0486298 0.0587673 5.22661e-20)
(-0.0312574 0.0349029 -5.38316e-20)
(-0.0110564 0.0117318 -1.53212e-20)
(1.17274 -0.177503 -3.51258e-20)
(0.997324 -0.112908 -8.56804e-20)
(0.831627 -0.0451909 0)
(0.672368 0.0139357 1.11778e-19)
(0.531145 0.066278 1.22107e-21)
(0.406725 0.109214 -6.51021e-20)
(0.30013 0.143714 -6.70064e-20)
(0.209732 0.170081 2.16035e-19)
(0.134276 0.18911 -1.87261e-21)
(0.0722629 0.201451 8.54448e-22)
(0.0223707 0.207702 8.54996e-20)
(-0.0166234 0.208356 0)
(-0.045816 0.203831 4.7171e-20)
(-0.0661958 0.194513 -1.13527e-22)
(-0.0786616 0.180809 6.68624e-23)
(-0.084047 0.163194 -8.4899e-20)
(-0.0831468 0.142243 0)
(-0.0767379 0.118629 2.19279e-22)
(-0.0655981 0.0931064 -4.95007e-20)
(-0.0505251 0.0664614 -5.18594e-20)
(-0.0322528 0.0395383 5.33445e-20)
(-0.0113651 0.0132901 1.52882e-20)
(0.949423 -0.164883 -7.80818e-20)
(0.785064 -0.0923363 -4.62032e-20)
(0.637272 -0.0224272 -1.04531e-19)
(0.500267 0.0382897 5.0231e-22)
(0.381685 0.0902105 6.15147e-20)
(0.278757 0.132445 -1.38523e-21)
(0.191682 0.165843 0)
(0.118749 0.19103 -1.08973e-19)
(0.0588241 0.208862 7.89425e-20)
(0.0105962 0.220072 -4.06034e-20)
(-0.027126 0.225309 -1.28148e-19)
(-0.0554863 0.225086 4.62206e-20)
(-0.07554 0.219806 0)
(-0.088243 0.209797 0)
(-0.0944456 0.195379 0)
(-0.0949017 0.176922 2.83701e-20)
(-0.0902887 0.154897 0)
(-0.0812277 0.129888 1.59675e-20)
(-0.0683073 0.102588 -1.6544e-20)
(-0.0521094 0.0737541 -6.86848e-20)
(-0.0331282 0.0442366 -4.40213e-22)
(-0.0116864 0.0150064 5.97665e-20)
(0.733287 -0.146468 1.20787e-19)
(0.587163 -0.0702187 -4.57271e-20)
(0.458743 -0.00131803 1.06638e-19)
(0.343139 0.0585452 -5.89663e-20)
(0.244457 0.10852 6.32224e-20)
(0.160119 0.148879 -6.65133e-20)
(0.089925 0.180329 7.27742e-20)
(0.0324267 0.203689 -3.75568e-20)
(-0.0134117 0.21986 0)
(-0.048809 0.229671 0)
(-0.0749525 0.233837 0)
(-0.0930193 0.232915 4.60681e-20)
(-0.104111 0.227297 2.42535e-20)
(-0.109214 0.21725 -5.11788e-20)
(-0.109178 0.202983 2.29613e-22)
(-0.104711 0.184721 8.54627e-20)
(-0.0963996 0.162773 -7.47375e-20)
(-0.0847326 0.137564 -4.69844e-20)
(-0.0701265 0.109644 4.90327e-20)
(-0.0529587 0.0796557 0)
(-0.0334999 0.0483605 0)
(-0.0118394 0.0166391 5.15466e-20)
(0.525989 -0.12655 7.97486e-20)
(0.399965 -0.0504666 9.59761e-20)
(0.289923 0.0154961 -5.39449e-20)
(0.193689 0.0726663 -5.84399e-20)
(0.112685 0.119667 2.27433e-22)
(0.0451417 0.15725 0)
(-0.00943502 0.186062 7.0683e-20)
(-0.0522723 0.20703 -3.94994e-20)
(-0.0844442 0.221122 -3.95442e-20)
(-0.107203 0.229269 -4.16062e-20)
(-0.121827 0.232277 0)
(-0.129585 0.23076 -2.30436e-20)
(-0.131654 0.225117 -2.44843e-20)
(-0.129071 0.215562 2.5534e-20)
(-0.122692 0.202191 8.07757e-20)
(-0.113198 0.185068 -5.68839e-20)
(-0.101107 0.164307 1.49565e-20)
(-0.0868004 0.140127 6.20621e-20)
(-0.0705563 0.112874 -4.82035e-20)
(-0.0525814 0.0830053 -6.68104e-20)
(-0.0329706 0.0511063 -2.32807e-22)
(-0.0116455 0.0178678 5.74364e-20)
(0.326009 -0.107142 0)
(0.219365 -0.0344562 -2.45184e-21)
(0.126639 0.0273376 0)
(0.0483136 0.080415 -5.74374e-20)
(-0.0159699 0.123551 1.2474e-21)
(-0.0673041 0.157543 3.5027e-20)
(-0.106478 0.183057 0)
(-0.134677 0.201084 -1.12103e-19)
(-0.153127 0.212677 8.13111e-20)
(-0.163201 0.218871 7.63514e-22)
(-0.166302 0.220569 4.34775e-20)
(-0.163793 0.218452 -6.92575e-20)
(-0.156911 0.212939 4.89969e-20)
(-0.146715 0.204207 -2.57287e-20)
(-0.134056 0.192253 -2.70272e-20)
(-0.119578 0.176993 1.39425e-20)
(-0.103743 0.158347 7.32641e-20)
(-0.0868567 0.136316 -9.49904e-23)
(-0.0691008 0.111012 -1.42526e-19)
(-0.0505634 0.0826676 6.54288e-20)
(-0.0312365 0.0516348 0)
(-0.010972 0.0183407 7.05383e-21)
(0.133553 -0.0883151 -3.65447e-21)
(0.0450599 -0.0217049 -5.63506e-21)
(-0.0306591 0.0347405 1.14412e-21)
(-0.0915953 0.082523 0)
(-0.139146 0.120842 0)
(-0.17413 0.150398 6.59031e-20)
(-0.197657 0.171923 -1.77468e-21)
(-0.21105 0.186467 -7.47453e-20)
(-0.215751 0.195169 1.14435e-21)
(-0.213291 0.199152 4.16494e-20)
(-0.205186 0.199393 0)
(-0.19285 0.196627 4.54015e-20)
(-0.177523 0.19129 -9.63572e-20)
(-0.16023 0.183533 5.08923e-20)
(-0.141769 0.173284 0)
(-0.122726 0.160338 -1.40119e-20)
(-0.103504 0.144461 -1.46195e-20)
(-0.0843556 0.12546 0)
(-0.0654081 0.103235 1.57217e-20)
(-0.0466912 0.0778001 -6.389e-20)
(-0.0281802 0.0492581 7.35948e-20)
(-0.00977096 0.0177474 -6.04548e-20)
(-0.0469896 -0.0686013 0)
(-0.11812 -0.0104357 -7.99116e-20)
(-0.176564 0.0390362 1.5292e-21)
(-0.220022 0.0801645 5.18151e-20)
(-0.250438 0.112515 2.7754e-20)
(-0.268772 0.136697 6.23443e-20)
(-0.276498 0.153527 0)
(-0.275209 0.164111 3.54259e-20)
(-0.266592 0.169642 2.6049e-22)
(-0.252325 0.171286 0)
(-0.233977 0.170041 2.11118e-20)
(-0.212934 0.166646 0)
(-0.190348 0.161528 0)
(-0.167132 0.154811 1.24199e-20)
(-0.143968 0.146376 1.30364e-20)
(-0.121339 0.135945 0)
(-0.0995725 0.123185 -5.69979e-20)
(-0.0788728 0.107777 5.20097e-20)
(-0.0593461 0.089475 -7.57638e-21)
(-0.0410152 0.0681275 6.24295e-20)
(-0.0239173 0.0436391 -6.41583e-20)
(-0.00809919 0.0158994 -4.54702e-20)
(-0.207165 -0.0478552 2.65966e-20)
(-0.260974 0.000123722 3.81476e-20)
(-0.301494 0.0408844 2.00835e-20)
(-0.327083 0.0739512 2.31205e-20)
(-0.340004 0.0991726 -1.00026e-21)
(-0.341677 0.117138 -6.0094e-20)
(-0.334005 0.128749 3.19343e-20)
(-0.318915 0.135139 -5.17342e-20)
(-0.298304 0.137502 0)
(-0.273917 0.136959 0)
(-0.247265 0.134445 -6.30017e-20)
(-0.21958 0.130631 4.47506e-20)
(-0.191818 0.125887 0)
(-0.164682 0.120295 -1.27709e-22)
(-0.138667 0.113701 -1.30872e-20)
(-0.114107 0.105803 0)
(-0.0912239 0.0962344 5.63987e-20)
(-0.0701682 0.0846358 -1.09689e-19)
(-0.051033 0.0707081 6.04983e-20)
(-0.0338631 0.0542364 6.13229e-20)
(-0.0188046 0.0350286 -7.06982e-20)
(-0.00612352 0.0128375 3.14868e-21)
(-0.334033 -0.0256133 0)
(-0.369481 0.0105155 0)
(-0.391052 0.040678 -1.87098e-20)
(-0.398344 0.0641763 -4.49506e-20)
(-0.393938 0.0811611 -1.2211e-20)
(-0.37988 0.0922883 -1.36949e-20)
(-0.358488 0.0985044 -1.51384e-20)
(-0.331943 0.100892 1.70707e-20)
(-0.302193 0.100524 -3.60716e-20)
(-0.270863 0.0983505 8.73525e-20)
(-0.239218 0.0951291 -2.71465e-22)
(-0.208184 0.0913732 -2.85681e-22)
(-0.178397 0.0873397 -1.05348e-19)
(-0.150268 0.0830472 4.95222e-20)
(-0.124052 0.0783247 0)
(-0.099902 0.0728795 6.79714e-21)
(-0.0779193 0.0663721 0)
(-0.0581865 0.0584794 -7.30388e-21)
(-0.0407765 0.0489448 7.51116e-21)
(-0.0257523 0.037601 -3.82867e-21)
(-0.0133596 0.0243001 -3.87686e-21)
(-0.00408218 0.00883883 -1.46575e-23)
(-0.406922 -0.00665364 -1.14835e-20)
(-0.422312 0.0169336 1.27092e-20)
(-0.424185 0.035766 4.45465e-20)
(-0.413742 0.0493674 -1.98332e-20)
(-0.393927 0.0582033 1.22739e-20)
(-0.367308 0.0630123 -2.66242e-20)
(-0.336373 0.0646882 5.22451e-20)
(-0.303222 0.0641297 0)
(-0.269515 0.0621424 -2.68788e-20)
(-0.236452 0.0593841 -1.93654e-20)
(-0.204828 0.0563381 4.15582e-20)
(-0.175112 0.0533043 3.86905e-20)
(-0.147538 0.0504048 -3.54164e-20)
(-0.122192 0.0476017 3.72062e-20)
(-0.0990891 0.0447309 -5.23914e-20)
(-0.0782168 0.0415483 5.14128e-23)
(-0.0595715 0.0377842 -2.82864e-20)
(-0.0431757 0.0331973 6.59325e-20)
(-0.0290726 0.0276235 -3.02096e-20)
(-0.0173175 0.0210089 3.82962e-21)
(-0.0081822 0.0133525 -3.16945e-23)
(-0.00225618 0.00465982 -4.69695e-21)
(-0.385621 0.00785051 0)
(-0.381187 0.0179313 0)
(-0.366258 0.0249074 -4.40152e-21)
(-0.343369 0.0288747 0)
(-0.3154 0.0305149 5.72234e-21)
(-0.28474 0.0304722 1.32879e-20)
(-0.253335 0.0293354 2.22805e-20)
(-0.222589 0.0275825 -3.23144e-20)
(-0.193418 0.0255725 -1.34718e-20)
(-0.166333 0.0235568 1.46078e-20)
(-0.141541 0.0216955 0)
(-0.119047 0.0200691 -1.95923e-20)
(-0.098742 0.018686 2.68128e-20)
(-0.0804776 0.0174893 0)
(-0.0641149 0.0163665 -2.63468e-20)
(-0.0495569 0.0151657 2.08074e-20)
(-0.0367595 0.0137211 0)
(-0.0257294 0.011886 1.87634e-21)
(-0.0165015 0.00957967 -3.02814e-20)
(-0.00910842 0.00683648 2.63193e-22)
(-0.00373154 0.00381646 3.54946e-20)
(-0.000846215 0.000877893 1.57314e-21)
(-0.2072 0.00465467 1.52416e-23)
(-0.194344 0.00607422 0)
(-0.177272 0.00664848 -3.86137e-21)
(-0.158361 0.00654621 0)
(-0.139166 0.00607831 -1.69375e-20)
(-0.120735 0.00544035 1.24566e-20)
(-0.10369 0.00476089 0)
(-0.0883223 0.00411385 -1.56481e-23)
(-0.0747004 0.00353766 4.33738e-21)
(-0.0627469 0.00305033 -4.70438e-21)
(-0.0523024 0.00265886 1.00302e-23)
(-0.04317 0.00236327 2.70505e-21)
(-0.0351497 0.00215672 -2.87311e-21)
(-0.0280649 0.00202318 -2.4577e-20)
(-0.0217819 0.00193467 2.5922e-20)
(-0.0162226 0.00184967 0)
(-0.011369 0.00171473 -3.41856e-24)
(-0.00725945 0.00147192 -1.78144e-21)
(-0.00397013 0.0010776 0)
(-0.00157881 0.000534918 0)
(-0.000173206 -6.22375e-05 0)
(0.000123805 -0.000404896 -2.51494e-20)
(1.13743 0.0225368 -3.88978e-20)
(1.09144 0.0240412 0)
(1.0434 0.0255972 2.59061e-20)
(0.993198 0.0272064 9.00741e-25)
(0.940943 0.0288741 -3.39252e-20)
(0.886719 0.0306064 3.71215e-20)
(0.830618 0.0324058 2.17377e-20)
(0.772747 0.0342727 -4.64761e-20)
(0.713223 0.0362062 2.6389e-20)
(0.652177 0.0382031 -2.84641e-20)
(0.589753 0.0402556 4.20599e-22)
(0.52612 0.0423424 -3.4037e-20)
(0.461495 0.0444082 -1.13289e-24)
(0.39621 0.0463289 1.98702e-20)
(0.33082 0.0478721 0)
(0.266226 0.0486687 6.78037e-20)
(0.203799 0.048219 -9.50313e-20)
(0.145429 0.0459404 6.19068e-20)
(0.0933868 0.0412532 -1.28491e-20)
(0.0500852 0.0336792 1.32801e-20)
(0.0187782 0.0229001 -2.75937e-20)
(0.00352167 0.0088074 2.24503e-20)
(1.14181 0.078414 1.17383e-19)
(1.09627 0.0840483 1.50976e-21)
(1.04883 0.0899641 -7.67514e-20)
(0.999207 0.0961314 5.96199e-20)
(0.94753 0.102543 1.95585e-21)
(0.893886 0.109201 -7.3751e-20)
(0.838365 0.116103 -2.05475e-20)
(0.781075 0.123241 1.409e-19)
(0.722135 0.130607 -4.90138e-20)
(0.661674 0.138184 -2.27251e-19)
(0.599836 0.145941 9.33457e-20)
(0.536783 0.153791 0)
(0.472719 0.161515 -3.64827e-20)
(0.407946 0.168635 -1.98665e-20)
(0.342959 0.174272 8.48269e-20)
(0.278574 0.177066 -1.55778e-19)
(0.216037 0.175208 2.32879e-20)
(0.157095 0.166633 -8.67073e-20)
(0.103878 0.14932 2.17394e-19)
(0.0586699 0.121633 -1.44851e-19)
(0.0246386 0.0825282 2.6901e-20)
(0.0057983 0.0317086 -8.9253e-20)
(1.15051 0.134295 -7.61631e-20)
(1.10592 0.144077 8.82151e-20)
(1.05972 0.154278 -2.03841e-19)
(1.01127 0.164887 1.13714e-19)
(0.960765 0.175893 -1.3249e-19)
(0.908304 0.187307 2.94015e-19)
(0.853974 0.199126 -3.76605e-20)
(0.797885 0.211341 -4.40375e-20)
(0.740155 0.22394 -4.9293e-20)
(0.680915 0.236897 -1.1197e-19)
(0.620301 0.250161 1.82127e-19)
(0.558467 0.263583 0)
(0.495585 0.276787 3.64335e-20)
(0.431893 0.288948 0)
(0.367767 0.298553 0)
(0.30383 0.303265 4.42298e-20)
(0.24108 0.299988 -2.08035e-19)
(0.180973 0.285194 1.67677e-19)
(0.125342 0.255448 0)
(0.0762243 0.207982 5.15406e-20)
(0.036614 0.141047 -5.30567e-20)
(0.0104479 0.0541718 1.08857e-19)
(1.16259 0.187425 0)
(1.11954 0.201236 -8.79037e-20)
(1.0753 0.215582 2.00954e-19)
(1.0287 0.230514 3.3678e-21)
(0.980041 0.246009 3.62122e-21)
(0.929422 0.262077 -2.82248e-19)
(0.876934 0.278714 0)
(0.822692 0.295909 8.7814e-20)
(0.766816 0.313643 1.99865e-19)
(0.709437 0.331883 -1.60483e-19)
(0.650688 0.350554 1.79976e-19)
(0.590706 0.36945 -2.57185e-19)
(0.529622 0.388038 0)
(0.467574 0.405155 1.51019e-19)
(0.404758 0.418669 -1.59368e-19)
(0.341517 0.425288 1.69998e-19)
(0.278469 0.420661 -3.56217e-19)
(0.216634 0.399844 -8.66416e-22)
(0.157406 0.358041 1.92872e-19)
(0.102453 0.291407 -7.4194e-20)
(0.0545083 0.197542 2.32727e-19)
(0.0173928 0.075834 -3.59001e-19)
(1.17803 0.237934 -1.48874e-19)
(1.13705 0.255647 1.60202e-19)
(1.0954 0.27394 -5.81202e-21)
(1.05126 0.292994 -6.33504e-21)
(1.00505 0.312762 2.42512e-19)
(0.956873 0.33326 4.82303e-21)
(0.906829 0.354485 0)
(0.855039 0.376425 8.6511e-20)
(0.801626 0.399057 -9.52545e-20)
(0.74672 0.422343 -1.08901e-19)
(0.690451 0.446187 2.27174e-19)
(0.632934 0.470328 1.21558e-19)
(0.574244 0.494086 -4.01188e-19)
(0.514389 0.515971 2.86477e-19)
(0.453327 0.533254 7.46599e-20)
(0.391026 0.54172 -2.46002e-19)
(0.327607 0.53581 2.51788e-19)
(0.263509 0.509223 1.77287e-19)
(0.199556 0.455868 0)
(0.136928 0.370897 2.53476e-21)
(0.0780237 0.251323 -4.76121e-20)
(0.0265135 0.0964296 -3.92246e-20)
(1.1964 0.284525 -5.32325e-21)
(1.15801 0.305968 1.53143e-19)
(1.11958 0.327974 0)
(1.07849 0.350919 0)
(1.03531 0.374723 0)
(0.990158 0.399405 2.63932e-19)
(0.94314 0.424967 0)
(0.89438 0.451394 5.72385e-21)
(0.844008 0.478664 -6.32568e-19)
(0.792155 0.506732 -1.05322e-19)
(0.738946 0.535487 1.10199e-19)
(0.684472 0.564619 -1.21036e-19)
(0.628738 0.593309 1.3057e-19)
(0.571597 0.619761 1.3221e-19)
(0.512712 0.640677 -7.44221e-20)
(0.45159 0.650964 -7.86407e-20)
(0.387736 0.643908 -8.25526e-20)
(0.32088 0.611917 8.07209e-20)
(0.251141 0.547688 0)
(0.179113 0.445451 4.05693e-19)
(0.106789 0.30171 5.03648e-20)
(0.0376601 0.115696 -1.11841e-19)
(1.21725 0.326614 -1.36619e-19)
(1.18198 0.351561 -1.57392e-19)
(1.14732 0.376984 0)
(1.10979 0.403529 -1.93274e-19)
(1.07016 0.431072 0)
(1.02857 0.459637 -1.28235e-19)
(0.985098 0.48923 2.82496e-19)
(0.939902 0.519837 -4.61356e-19)
(0.893109 0.551434 1.69905e-19)
(0.844853 0.583972 5.62019e-19)
(0.795254 0.617328 1.07901e-19)
(0.744376 0.651146 -2.20645e-19)
(0.692145 0.684488 -1.15249e-19)
(0.638229 0.715273 -2.54545e-19)
(0.581946 0.739674 -2.70767e-19)
(0.52226 0.751768 6.38215e-19)
(0.457946 0.74375 -2.98225e-19)
(0.3879 0.706816 -8.05308e-20)
(0.311415 0.632531 3.22039e-19)
(0.228403 0.514297 -3.31807e-19)
(0.140393 0.348188 0)
(0.0506709 0.13344 0)
(1.23992 0.363498 -1.17922e-19)
(1.20825 0.391705 4.30239e-21)
(1.17789 0.420234 -2.3521e-21)
(1.14442 0.450058 2.48487e-21)
(1.10885 0.480998 4.11715e-19)
(1.07129 0.513084 0)
(1.03186 0.546334 -1.26964e-19)
(0.990708 0.580736 1.4049e-19)
(0.947974 0.616271 -3.22052e-19)
(0.903797 0.652889 1.78839e-19)
(0.858292 0.690462 0)
(0.811499 0.728602 0)
(0.763258 0.766266 1.14531e-19)
(0.713037 0.801124 1.22241e-19)
(0.659762 0.828864 0)
(0.601781 0.84279 5.66916e-20)
(0.537035 0.834074 0)
(0.463459 0.792773 0)
(0.379407 0.70941 0)
(0.284022 0.576651 -7.17379e-20)
(0.178314 0.390231 0)
(0.065341 0.149462 2.59417e-19)
(1.26365 0.394601 7.22055e-19)
(1.23605 0.425743 -5.35442e-19)
(1.21039 0.457011 -1.52705e-19)
(1.18139 0.489762 3.99546e-21)
(1.15027 0.523748 -3.95891e-19)
(1.11716 0.559011 -2.2102e-19)
(1.08219 0.59557 1.2162e-19)
(1.04552 0.633416 3.98721e-19)
(1.00731 0.672527 -2.93713e-19)
(0.967681 0.712857 1.67454e-19)
(0.926758 0.754271 0)
(0.884548 0.796359 -3.77775e-19)
(0.840803 0.837998 4.03258e-19)
(0.79477 0.876644 0)
(0.744947 0.907554 3.32533e-19)
(0.688993 0.923328 -7.08882e-19)
(0.623913 0.914191 2.46829e-19)
(0.546567 0.869142 -3.13776e-19)
(0.454261 0.777753 2.63336e-19)
(0.34529 0.632049 8.12143e-21)
(0.220101 0.427528 0)
(0.081496 0.163649 0)
(1.28754 0.419767 -5.37689e-21)
(1.2645 0.453561 -2.43025e-19)
(1.24397 0.487219 5.73054e-19)
(1.21985 0.522499 1.56778e-19)
(1.19358 0.559083 0)
(1.16529 0.597035 -1.95041e-19)
(1.13513 0.636394 2.15804e-19)
(1.10327 0.677162 2.48221e-19)
(1.06989 0.719329 -1.39494e-19)
(1.03514 0.762855 0)
(0.999127 0.807612 0)
(0.96185 0.853181 -3.41106e-19)
(0.922976 0.898386 3.64347e-19)
(0.881529 0.940515 -4.73756e-19)
(0.83556 0.974452 2.98737e-19)
(0.781978 0.992158 1.26143e-20)
(0.716764 0.982976 -1.01651e-19)
(0.63558 0.934923 5.96617e-20)
(0.534571 0.836703 5.34341e-20)
(0.411105 0.679801 8.51158e-21)
(0.265025 0.459597 5.64262e-20)
(0.0988523 0.175807 0)
(1.31071 0.4385 -4.1283e-19)
(1.29257 0.474503 2.44412e-19)
(1.27736 0.510169 -1.37654e-19)
(1.25834 0.547655 -2.99065e-19)
(1.2372 0.586543 -1.68099e-19)
(1.21405 0.626902 3.7658e-19)
(1.18906 0.668767 -2.12981e-19)
(1.16241 0.712142 0)
(1.13428 0.75702 -3.73727e-19)
(1.10484 0.803369 1.38862e-19)
(1.07419 0.851065 -1.35916e-19)
(1.04232 0.899694 1.59431e-19)
(1.0088 0.948045 -3.2502e-19)
(0.972435 0.993283 9.01365e-20)
(0.930794 1.02998 0)
(0.879983 1.04956 1.93708e-19)
(0.814862 1.04055 -2.74854e-19)
(0.729798 0.990107 1.942e-19)
(0.619684 0.886162 -8.24286e-21)
(0.48091 0.719769 5.46292e-20)
(0.312692 0.486313 -5.6312e-20)
(0.117253 0.185891 3.97886e-20)
(1.33222 0.451548 3.88164e-19)
(1.3196 0.489535 0)
(1.31008 0.526786 0)
(1.29648 0.565916 1.42201e-19)
(1.28067 0.606467 6.43482e-21)
(1.26279 0.648551 -3.30207e-19)
(1.24304 0.692232 0)
(1.22165 0.737526 0)
(1.19884 0.78444 0)
(1.17476 0.832953 1.24946e-19)
(1.14957 0.882962 1.34106e-19)
(1.12322 0.934073 1.57807e-20)
(1.09524 0.985087 0)
(1.06423 1.0331 -1.37697e-19)
(1.02729 1.07246 2.29086e-19)
(0.979708 1.09407 -2.32137e-19)
(0.915141 1.08575 0)
(0.826529 1.03377 -7.2499e-20)
(0.707379 0.925393 -4.4702e-20)
(0.553016 0.751349 -3.68899e-20)
(0.362011 0.507216 -1.70326e-19)
(0.136277 0.193695 -4.05656e-20)
(1.35112 0.457754 -1.71254e-19)
(1.34408 0.497274 1.95336e-19)
(1.34017 0.536004 0)
(1.33219 0.576749 0)
(1.32204 0.618944 1.44516e-19)
(1.30982 0.662704 4.59552e-19)
(1.29575 0.708097 -3.27582e-19)
(1.2801 0.755153 0)
(1.26307 0.80389 1.86765e-19)
(1.24486 0.854297 0)
(1.22561 0.906283 -2.21063e-19)
(1.20528 0.959472 1.30991e-19)
(1.18334 1.01267 2.48127e-19)
(1.15817 1.06294 1.35969e-19)
(1.12639 1.10444 1.09978e-20)
(1.08237 1.12768 -5.86249e-20)
(1.0185 1.11986 -5.78984e-20)