/*--------------------------------*- C++ -*----------------------------------*\
| =========                 |                                                 |
| \\      /  F ield         | OpenFOAM Extend Project: Open source CFD        |
|  \\    /   O peration     | Version:  1.6-ext                               |
|   \\  /    A nd           | Web:      www.extend-project.de                 |
|    \\/     M anipulation  |                                                 |
\*---------------------------------------------------------------------------*/
FoamFile
{
    version     2.0;
    format      ascii;
    class       volScalarField::DimensionedInternalField;
    location    "0.25";
    object      V0;
}
// * * * * * * * * * * * * * * * * * * * * * * * * * * * * * * * * * * * * * //

dimensions      [0 3 0 0 0 0 0];

value           nonuniform List<scalar> 
20940
(
1.171e-06
1.03797e-06
9.20938e-07
8.17905e-07
7.27135e-07
6.47112e-07
5.7651e-07
5.14172e-07
4.59084e-07
4.10364e-07
3.67237e-07
3.29027e-07
2.95143e-07
2.65065e-07
2.3834e-07
2.14569e-07
1.93403e-07
1.74535e-07
1.57698e-07
1.42655e-07
1.29201e-07
1.17154e-07
1.17116e-06
1.03811e-06
9.21056e-07
8.18009e-07
7.27228e-07
6.47197e-07
5.76589e-07
5.14246e-07
4.59156e-07
4.10432e-07
3.67303e-07
3.29089e-07
2.952e-07
2.65117e-07
2.38387e-07
2.14612e-07
1.93443e-07
1.74573e-07
1.57735e-07
1.42692e-07
1.29237e-07
1.17188e-07
1.17372e-06
1.04038e-06
9.23077e-07
8.19805e-07
7.28827e-07
6.48622e-07
5.77862e-07
5.15384e-07
4.60176e-07
4.11349e-07
3.68128e-07
3.29834e-07
2.95872e-07
2.65724e-07
2.38935e-07
2.15106e-07
1.93889e-07
1.74977e-07
1.58102e-07
1.43026e-07
1.29543e-07
1.17469e-07
1.17798e-06
1.04416e-06
9.26427e-07
8.22784e-07
7.3148e-07
6.50988e-07
5.79972e-07
5.1727e-07
4.61862e-07
4.12859e-07
3.69482e-07
3.31051e-07
2.96969e-07
2.66714e-07
2.39829e-07
2.15914e-07
1.94619e-07
1.75637e-07
1.58699e-07
1.43568e-07
1.30036e-07
1.17919e-07
1.18322e-06
1.04883e-06
9.30607e-07
8.2653e-07
7.34844e-07
6.54013e-07
5.82698e-07
5.19728e-07
4.6408e-07
4.14863e-07
3.71295e-07
3.32692e-07
2.98456e-07
2.68065e-07
2.41059e-07
2.17036e-07
1.95643e-07
1.76572e-07
1.59553e-07
1.44347e-07
1.30747e-07
1.1857e-07
1.19003e-06
1.05493e-06
9.36072e-07
8.31435e-07
7.39256e-07
6.5799e-07
5.8629e-07
5.22978e-07
4.67026e-07
4.17536e-07
3.73722e-07
3.34898e-07
3.00463e-07
2.69892e-07
2.42724e-07
2.18556e-07
1.97034e-07
1.77845e-07
1.60719e-07
1.45415e-07
1.31725e-07
1.19464e-07
1.19839e-06
1.06245e-06
9.42846e-07
8.37536e-07
7.44754e-07
6.62953e-07
5.90779e-07
5.27049e-07
4.70727e-07
4.20906e-07
3.76797e-07
3.37706e-07
3.03029e-07
2.72239e-07
2.44871e-07
2.20521e-07
1.98834e-07
1.79496e-07
1.62235e-07
1.46809e-07
1.33006e-07
1.20642e-07
1.20833e-06
1.07145e-06
9.50996e-07
8.44921e-07
7.51446e-07
6.69017e-07
5.96277e-07
5.32039e-07
4.75263e-07
4.25041e-07
3.80573e-07
3.41164e-07
3.062e-07
2.75149e-07
2.47544e-07
2.22978e-07
2.01091e-07
1.81572e-07
1.64145e-07
1.48568e-07
1.34629e-07
1.22141e-07
1.21976e-06
1.08185e-06
9.60472e-07
8.53564e-07
7.59335e-07
6.76219e-07
6.0285e-07
5.38036e-07
4.80735e-07
4.30034e-07
3.85136e-07
3.45341e-07
3.10034e-07
2.78675e-07
2.50792e-07
2.25972e-07
2.03854e-07
1.84122e-07
1.665e-07
1.50744e-07
1.3664e-07
1.24002e-07
1.23256e-06
1.09355e-06
9.71177e-07
8.63379e-07
7.68347e-07
6.84502e-07
6.10468e-07
5.45043e-07
4.87176e-07
4.35952e-07
3.90569e-07
3.50328e-07
3.14614e-07
2.82888e-07
2.54675e-07
2.29558e-07
2.07171e-07
1.87193e-07
1.69344e-07
1.53379e-07
1.39081e-07
1.26263e-07
1.24649e-06
1.10635e-06
9.8295e-07
8.74224e-07
7.78351e-07
6.93743e-07
6.19015e-07
5.52955e-07
4.94504e-07
4.42739e-07
3.96853e-07
3.5614e-07
3.19983e-07
2.87844e-07
2.59251e-07
2.33786e-07
2.11084e-07
1.9082e-07
1.72709e-07
1.56503e-07
1.41983e-07
1.28958e-07
1.26203e-06
1.12067e-06
9.96172e-07
8.86431e-07
7.8963e-07
7.04176e-07
6.28677e-07
5.61914e-07
5.02821e-07
4.50467e-07
4.04038e-07
3.6282e-07
3.26191e-07
2.93608e-07
2.64594e-07
2.38735e-07
2.15665e-07
1.95063e-07
1.76645e-07
1.60157e-07
1.4538e-07
1.32118e-07
1.27843e-06
1.13593e-06
1.01036e-06
8.99622e-07
8.0189e-07
7.1557e-07
6.39266e-07
5.71761e-07
5.11986e-07
4.59005e-07
4.12e-07
3.70251e-07
3.3313e-07
3.00088e-07
2.70642e-07
2.44373e-07
2.20914e-07
1.99944e-07
1.81179e-07
1.64372e-07
1.493e-07
1.35767e-07
1.29576e-06
1.15216e-06
1.02555e-06
9.13844e-07
8.15197e-07
7.28012e-07
6.50893e-07
5.82617e-07
5.22117e-07
4.68459e-07
4.20825e-07
3.78495e-07
3.40838e-07
3.073e-07
2.77394e-07
2.50694e-07
2.26829e-07
2.05472e-07
1.86338e-07
1.6918e-07
1.53777e-07
1.39936e-07
1.31373e-06
1.16912e-06
1.04155e-06
9.28913e-07
8.29387e-07
7.41367e-07
6.63453e-07
5.9442e-07
5.33196e-07
4.78847e-07
4.30554e-07
3.87601e-07
3.49359e-07
3.15277e-07
2.84865e-07
2.57697e-07
2.33395e-07
2.11628e-07
1.92107e-07
1.74579e-07
1.58823e-07
1.44645e-07
1.2421e-06
1.108e-06
9.89511e-07
8.84725e-07
7.91969e-07
7.09787e-07
6.36902e-07
5.72196e-07
5.14692e-07
4.6353e-07
4.17962e-07
3.77331e-07
3.41064e-07
3.08657e-07
2.79668e-07
2.53705e-07
2.30425e-07
2.09523e-07
1.90731e-07
1.73812e-07
1.58559e-07
1.44791e-07
1.21898e-06
1.08686e-06
9.70164e-07
8.66994e-07
7.75702e-07
6.94847e-07
6.23169e-07
5.59562e-07
5.03061e-07
4.52818e-07
4.0809e-07
3.68227e-07
3.32658e-07
3.00886e-07
2.72475e-07
2.4704e-07
2.24245e-07
2.03792e-07
1.85418e-07
1.6889e-07
1.54003e-07
1.40575e-07
1.197e-06
1.06682e-06
9.51864e-07
8.50266e-07
7.60394e-07
6.80822e-07
6.10304e-07
5.47749e-07
4.92203e-07
4.42831e-07
3.98898e-07
3.59763e-07
3.2486e-07
2.93697e-07
2.65839e-07
2.40909e-07
2.18573e-07
1.98539e-07
1.8055e-07
1.64378e-07
1.49822e-07
1.36704e-07
1.17631e-06
1.04799e-06
9.34708e-07
8.34619e-07
7.46109e-07
6.67766e-07
5.98358e-07
5.36806e-07
4.82167e-07
4.33615e-07
3.90428e-07
3.51972e-07
3.17691e-07
2.87097e-07
2.59761e-07
2.35307e-07
2.13406e-07
1.93767e-07
1.76136e-07
1.60291e-07
1.46033e-07
1.33189e-07
1.15701e-06
1.03047e-06
9.18783e-07
8.20127e-07
7.32904e-07
6.55722e-07
5.8736e-07
5.26753e-07
4.72968e-07
4.25187e-07
3.82698e-07
3.44874e-07
3.11168e-07
2.81097e-07
2.5424e-07
2.30224e-07
2.08724e-07
1.89451e-07
1.72155e-07
1.56612e-07
1.42628e-07
1.30033e-07
1.1389e-06
1.01409e-06
9.03941e-07
8.06661e-07
7.20673e-07
6.44597e-07
5.7723e-07
5.17518e-07
4.64539e-07
4.17488e-07
3.75656e-07
3.38427e-07
3.05257e-07
2.75672e-07
2.49254e-07
2.25639e-07
2.04503e-07
1.85565e-07
1.68574e-07
1.53313e-07
1.39586e-07
1.27224e-07
1.12284e-06
9.99554e-07
8.90779e-07
7.94726e-07
7.09836e-07
6.34745e-07
5.68263e-07
5.09347e-07
4.57085e-07
4.1068e-07
3.69432e-07
3.3273e-07
3.00038e-07
2.70884e-07
2.44858e-07
2.21596e-07
2.00782e-07
1.82136e-07
1.65414e-07
1.50398e-07
1.36899e-07
1.24746e-07
1.10819e-06
9.86338e-07
8.78841e-07
7.8393e-07
7.00059e-07
6.2588e-07
5.60214e-07
5.0203e-07
4.50426e-07
4.04612e-07
3.63897e-07
3.27676e-07
2.95418e-07
2.66657e-07
2.40985e-07
2.18045e-07
1.97522e-07
1.7914e-07
1.62656e-07
1.47859e-07
1.34557e-07
1.22588e-07
1.09516e-06
9.74613e-07
8.68271e-07
7.74388e-07
6.91434e-07
6.18075e-07
5.53142e-07
4.95614e-07
4.44597e-07
3.9931e-07
3.59069e-07
3.23274e-07
2.91399e-07
2.62985e-07
2.37627e-07
2.14971e-07
1.94706e-07
1.76557e-07
1.60285e-07
1.45678e-07
1.3255e-07
1.20736e-07
1.08377e-06
9.6437e-07
8.59053e-07
7.66081e-07
6.8394e-07
6.11305e-07
5.47019e-07
4.90068e-07
4.39569e-07
3.94745e-07
3.54919e-07
3.19496e-07
2.87957e-07
2.59844e-07
2.34758e-07
2.12347e-07
1.92304e-07
1.74357e-07
1.58267e-07
1.43825e-07
1.30848e-07
1.19171e-07
1.07398e-06
9.55584e-07
8.5116e-07
7.5898e-07
6.77544e-07
6.05536e-07
5.41809e-07
4.85358e-07
4.35304e-07
3.90879e-07
3.51411e-07
3.16308e-07
2.85057e-07
2.57202e-07
2.32349e-07
2.10147e-07
1.90292e-07
1.72515e-07
1.5658e-07
1.42278e-07
1.29428e-07
1.17868e-07
1.06574e-06
9.48207e-07
8.44541e-07
7.53035e-07
6.72197e-07
6.00721e-07
5.37467e-07
4.81437e-07
4.3176e-07
3.87671e-07
3.48504e-07
3.13671e-07
2.82661e-07
2.55024e-07
2.30365e-07
2.08339e-07
1.88643e-07
1.71008e-07
1.55201e-07
1.41015e-07
1.2827e-07
1.16804e-07
1.059e-06
9.42174e-07
8.39133e-07
7.48183e-07
6.67837e-07
5.968e-07
5.33936e-07
4.78254e-07
4.28886e-07
3.85074e-07
3.46153e-07
3.11541e-07
2.80728e-07
2.53269e-07
2.28769e-07
2.06887e-07
1.87318e-07
1.69801e-07
1.54097e-07
1.40007e-07
1.27346e-07
1.15957e-07
1.05375e-06
9.37473e-07
8.3492e-07
7.44403e-07
6.64442e-07
5.93746e-07
5.31186e-07
4.75774e-07
4.26647e-07
3.83051e-07
3.44322e-07
3.09882e-07
2.79224e-07
2.51902e-07
2.27527e-07
2.05756e-07
1.86289e-07
1.68861e-07
1.53241e-07
1.39223e-07
1.26631e-07
1.15303e-07
1.0498e-06
9.33935e-07
8.31756e-07
7.41569e-07
6.61902e-07
5.91468e-07
5.29141e-07
4.73937e-07
4.24995e-07
3.81563e-07
3.42982e-07
3.08673e-07
2.78132e-07
2.50915e-07
2.26633e-07
2.04944e-07
1.8555e-07
1.68187e-07
1.52623e-07
1.38656e-07
1.26106e-07
1.14832e-07
1.17425e-06
1.04679e-06
9.34183e-07
8.34608e-07
7.46488e-07
6.68436e-07
5.9924e-07
5.37837e-07
4.83297e-07
4.34804e-07
3.91645e-07
3.53192e-07
3.18896e-07
2.88273e-07
2.609e-07
2.36403e-07
2.14456e-07
1.9477e-07
1.77092e-07
1.61197e-07
1.46889e-07
1.33994e-07
1.17455e-06
1.04707e-06
9.34439e-07
8.34848e-07
7.46713e-07
6.68647e-07
5.99437e-07
5.38021e-07
4.83469e-07
4.34965e-07
3.91796e-07
3.53333e-07
3.19028e-07
2.88396e-07
2.61015e-07
2.36511e-07
2.14557e-07
1.94864e-07
1.77179e-07
1.61279e-07
1.46965e-07
1.34065e-07
1.17729e-06
1.04954e-06
9.36666e-07
8.36859e-07
7.4853e-07
6.70291e-07
6.00927e-07
5.39372e-07
4.84696e-07
4.36081e-07
3.92811e-07
3.54258e-07
3.19871e-07
2.89166e-07
2.61719e-07
2.37155e-07
2.15147e-07
1.95405e-07
1.77676e-07
1.61734e-07
1.47384e-07
1.3445e-07
1.18188e-06
1.05366e-06
9.40374e-07
8.40196e-07
7.51537e-07
6.73003e-07
6.03376e-07
5.41587e-07
4.86701e-07
4.37898e-07
3.9446e-07
3.55756e-07
3.21233e-07
2.90407e-07
2.62849e-07
2.38187e-07
2.16089e-07
1.96267e-07
1.78464e-07
1.62457e-07
1.48046e-07
1.35058e-07
1.18772e-06
1.05894e-06
9.45145e-07
8.44516e-07
7.55453e-07
6.76557e-07
6.06606e-07
5.44525e-07
4.89376e-07
4.40337e-07
3.96686e-07
3.5779e-07
3.23093e-07
2.92109e-07
2.64409e-07
2.39617e-07
2.17402e-07
1.97473e-07
1.79573e-07
1.63477e-07
1.48986e-07
1.35924e-07
1.19546e-06
1.06594e-06
9.51481e-07
8.5026e-07
7.60666e-07
6.81295e-07
6.10915e-07
5.48449e-07
4.92954e-07
4.43602e-07
3.99669e-07
3.60518e-07
3.2559e-07
2.94397e-07
2.66508e-07
2.41543e-07
2.19172e-07
1.99099e-07
1.8107e-07
1.64856e-07
1.50257e-07
1.37096e-07
1.20509e-06
1.07467e-06
9.59408e-07
8.57465e-07
7.67221e-07
6.87265e-07
6.16359e-07
5.53419e-07
4.97495e-07
4.47756e-07
4.03471e-07
3.64002e-07
3.28786e-07
2.97331e-07
2.69203e-07
2.44022e-07
2.21452e-07
2.012e-07
1.83006e-07
1.66641e-07
1.51904e-07
1.38617e-07
1.21671e-06
1.08523e-06
9.69024e-07
8.66225e-07
7.75212e-07
6.94562e-07
6.23028e-07
5.5952e-07
5.03083e-07
4.52878e-07
4.08171e-07
3.68317e-07
3.32752e-07
3.00979e-07
2.72561e-07
2.47115e-07
2.24303e-07
2.0383e-07
1.85434e-07
1.68883e-07
1.53976e-07
1.40533e-07
1.23038e-06
1.09769e-06
9.80394e-07
8.76613e-07
7.84712e-07
7.03257e-07
6.30995e-07
5.66827e-07
5.09789e-07
4.59038e-07
4.13835e-07
3.73529e-07
3.37551e-07
3.05401e-07
2.76638e-07
2.50877e-07
2.27778e-07
2.0704e-07
1.88401e-07
1.71628e-07
1.56516e-07
1.42885e-07
1.24612e-06
1.11208e-06
9.93562e-07
8.88675e-07
7.9577e-07
7.13405e-07
6.40316e-07
5.75394e-07
5.1767e-07
4.66294e-07
4.2052e-07
3.79692e-07
3.43237e-07
3.10651e-07
2.81488e-07
2.5536e-07
2.31923e-07
2.10876e-07
1.91952e-07
1.74917e-07
1.59564e-07
1.4571e-07
1.26376e-06
1.12827e-06
1.00843e-06
9.02334e-07
8.08334e-07
7.2497e-07
6.50968e-07
5.85214e-07
5.26728e-07
4.74655e-07
4.28242e-07
3.86829e-07
3.49837e-07
3.16756e-07
2.87139e-07
2.60593e-07
2.36772e-07
2.1537e-07
1.9612e-07
1.78783e-07
1.63151e-07
1.4904e-07
1.28378e-06
1.14667e-06
1.02535e-06
9.17907e-07
8.22678e-07
7.38191e-07
6.63163e-07
5.96469e-07
5.37123e-07
4.84261e-07
4.37124e-07
3.95046e-07
3.57442e-07
3.23799e-07
2.93664e-07
2.66641e-07
2.4238e-07
2.20572e-07
2.00946e-07
1.83263e-07
1.67312e-07
1.52905e-07
1.30544e-06
1.16665e-06
1.0438e-06
9.34955e-07
8.38437e-07
7.52767e-07
6.76652e-07
6.08958e-07
5.48692e-07
4.94982e-07
4.47064e-07
4.04265e-07
3.65996e-07
3.31738e-07
3.01035e-07
2.73487e-07
2.4874e-07
2.26482e-07
2.0644e-07
1.88371e-07
1.72062e-07
1.57323e-07
1.32884e-06
1.18832e-06
1.06387e-06
9.53559e-07
8.55685e-07
7.68765e-07
6.91495e-07
6.22735e-07
5.61484e-07
5.06863e-07
4.58102e-07
4.14522e-07
3.7553e-07
3.40603e-07
3.09279e-07
2.81156e-07
2.55874e-07
2.33122e-07
2.1262e-07
1.94124e-07
1.77418e-07
1.62311e-07
1.3538e-06
1.21151e-06
1.08543e-06
9.73604e-07
8.74328e-07
7.86106e-07
7.0763e-07
6.3775e-07
5.75459e-07
5.19872e-07
4.70213e-07
4.258e-07
3.86033e-07
3.50385e-07
3.18392e-07
2.89646e-07
2.63785e-07
2.40493e-07
2.1949e-07
2.00527e-07
1.83386e-07
1.67875e-07
1.3538e-06
1.21151e-06
1.08543e-06
9.73602e-07
8.74326e-07
7.86104e-07
7.07628e-07
6.37748e-07
5.75457e-07
5.1987e-07
4.70211e-07
4.25798e-07
3.86032e-07
3.50384e-07
3.18392e-07
2.89645e-07
2.63785e-07
2.40493e-07
2.1949e-07
2.00527e-07
1.83387e-07
1.67875e-07
1.32884e-06
1.18831e-06
1.06387e-06
9.53553e-07
8.5568e-07
7.68759e-07
6.9149e-07
6.22731e-07
5.61479e-07
5.06858e-07
4.58097e-07
4.14518e-07
3.75527e-07
3.406e-07
3.09278e-07
2.81155e-07
2.55874e-07
2.33122e-07
2.1262e-07
1.94125e-07
1.77419e-07
1.62312e-07
1.30543e-06
1.16664e-06
1.04379e-06
9.34944e-07
8.38426e-07
7.52757e-07
6.76642e-07
6.08949e-07
5.48684e-07
4.94975e-07
4.47057e-07
4.04259e-07
3.65991e-07
3.31734e-07
3.01033e-07
2.73485e-07
2.48739e-07
2.26482e-07
2.0644e-07
1.88371e-07
1.72062e-07
1.57323e-07
1.28376e-06
1.14665e-06
1.02533e-06
9.17891e-07
8.22662e-07
7.38176e-07
6.63149e-07
5.96457e-07
5.37113e-07
4.84252e-07
4.37116e-07
3.9504e-07
3.57437e-07
3.23794e-07
2.9366e-07
2.66638e-07
2.42377e-07
2.2057e-07
2.00944e-07
1.83262e-07
1.6731e-07
1.52904e-07
1.26374e-06
1.12824e-06
1.0084e-06
9.02314e-07
8.08314e-07
7.24952e-07
6.50952e-07
5.85199e-07
5.26716e-07
4.74645e-07
4.28233e-07
3.86821e-07
3.4983e-07
3.1675e-07
2.87134e-07
2.60589e-07
2.36768e-07
2.15366e-07
1.96116e-07
1.7878e-07
1.63149e-07
1.49038e-07
1.24609e-06
1.11205e-06
9.93537e-07
8.88651e-07
7.95749e-07
7.13385e-07
6.40297e-07
5.75378e-07
5.17656e-07
4.66282e-07
4.20509e-07
3.79683e-07
3.43229e-07
3.10644e-07
2.81482e-07
2.55355e-07
2.31918e-07
2.10872e-07
1.91948e-07
1.74914e-07
1.59561e-07
1.45708e-07
1.23035e-06
1.09766e-06
9.80368e-07
8.76589e-07
7.84689e-07
7.03236e-07
6.30975e-07
5.66808e-07
5.09772e-07
4.59023e-07
4.13822e-07
3.73518e-07
3.37542e-07
3.05393e-07
2.76632e-07
2.50872e-07
2.27774e-07
2.07037e-07
1.88398e-07
1.71625e-07
1.56514e-07
1.42883e-07
1.21668e-06
1.0852e-06
9.68998e-07
8.66201e-07
7.7519e-07
6.94541e-07
6.23008e-07
5.59502e-07
5.03066e-07
4.52862e-07
4.08157e-07
3.68305e-07
3.32741e-07
3.00969e-07
2.72553e-07
2.47108e-07
2.24298e-07
2.03825e-07
1.85429e-07
1.68879e-07
1.53973e-07
1.4053e-07
1.20506e-06
1.07464e-06
9.59384e-07
8.57442e-07
7.672e-07
6.87245e-07
6.1634e-07
5.53401e-07
4.97478e-07
4.4774e-07
4.03456e-07
3.63988e-07
3.28773e-07
2.97319e-07
2.69192e-07
2.44013e-07
2.21444e-07
2.01193e-07
1.82999e-07
1.66636e-07
1.51899e-07
1.38614e-07
1.19543e-06
1.06591e-06
9.51458e-07
8.50238e-07
7.60646e-07
6.81276e-07
6.10897e-07
5.48432e-07
4.92938e-07
4.43586e-07
3.99653e-07
3.60503e-07
3.25576e-07
2.94384e-07
2.66495e-07
2.41532e-07
2.19162e-07
1.99091e-07
1.81063e-07
1.6485e-07
1.50251e-07
1.37092e-07
1.18769e-06
1.05891e-06
9.4512e-07
8.44493e-07
7.55432e-07
6.76539e-07
6.06588e-07
5.44509e-07
4.89362e-07
4.40323e-07
3.96672e-07
3.57776e-07
3.2308e-07
2.92096e-07
2.64397e-07
2.39606e-07
2.17392e-07
1.97464e-07
1.79566e-07
1.63471e-07
1.48982e-07
1.35921e-07
1.18185e-06
1.05363e-06
9.40347e-07
8.4017e-07
7.51513e-07
6.72982e-07
6.03357e-07
5.4157e-07
4.86686e-07
4.37885e-07
3.94448e-07
3.55745e-07
3.21222e-07
2.90396e-07
2.62838e-07
2.38176e-07
2.16079e-07
1.96258e-07
1.78456e-07
1.6245e-07
1.48041e-07
1.35053e-07
1.17726e-06
1.04951e-06
9.3664e-07
8.36834e-07
7.48506e-07
6.70268e-07
6.00905e-07
5.39353e-07
4.84679e-07
4.36066e-07
3.92799e-07
3.54247e-07
3.19862e-07
2.89157e-07
2.6171e-07
2.37146e-07
2.15139e-07
1.95397e-07
1.77668e-07
1.61729e-07
1.47378e-07
1.34446e-07
1.17453e-06
1.04705e-06
9.34422e-07
8.34831e-07
7.46695e-07
6.68629e-07
5.99418e-07
5.38003e-07
4.83452e-07
4.3495e-07
3.91783e-07
3.53323e-07
3.19019e-07
2.88389e-07
2.61009e-07
2.36506e-07
2.14553e-07
1.9486e-07
1.77176e-07
1.61274e-07
1.46962e-07
1.34061e-07
1.17425e-06
1.04679e-06
9.34176e-07
8.34602e-07
7.46481e-07
6.68428e-07
5.99231e-07
5.37826e-07
4.83285e-07
4.34793e-07
3.91634e-07
3.53182e-07
3.18888e-07
2.88267e-07
2.60896e-07
2.36401e-07
2.14455e-07
1.94769e-07
1.7709e-07
1.61194e-07
1.46885e-07
1.33989e-07
1.1743e-06
1.04684e-06
9.34223e-07
8.34646e-07
7.46523e-07
6.68468e-07
5.99268e-07
5.37861e-07
4.83317e-07
4.34822e-07
3.91661e-07
3.53207e-07
3.1891e-07
2.88287e-07
2.60913e-07
2.36416e-07
2.14468e-07
1.94781e-07
1.77101e-07
1.61204e-07
1.46894e-07
1.33997e-07
1.17458e-06
1.0471e-06
9.34469e-07
8.34876e-07
7.46738e-07
6.68669e-07
5.99456e-07
5.38037e-07
4.83483e-07
4.34978e-07
3.91808e-07
3.53345e-07
3.19039e-07
2.88407e-07
2.61025e-07
2.3652e-07
2.14565e-07
1.94871e-07
1.77185e-07
1.61284e-07
1.46969e-07
1.34068e-07
1.17731e-06
1.04956e-06
9.36687e-07
8.36878e-07
7.48547e-07
6.70306e-07
6.0094e-07
5.39385e-07
4.84707e-07
4.36092e-07
3.92821e-07
3.54267e-07
3.19879e-07
2.89173e-07
2.61724e-07
2.37159e-07
2.15151e-07
1.95408e-07
1.77678e-07
1.61737e-07
1.47387e-07
1.34453e-07
1.1819e-06
1.05368e-06
9.40389e-07
8.4021e-07
7.5155e-07
6.73016e-07
6.03387e-07
5.41598e-07
4.86711e-07
4.37907e-07
3.94467e-07
3.55762e-07
3.21238e-07
2.90409e-07
2.62851e-07
2.38187e-07
2.16089e-07
1.96267e-07
1.78464e-07
1.62458e-07
1.48048e-07
1.35061e-07
1.18773e-06
1.05895e-06
9.45157e-07
8.44528e-07
7.55464e-07
6.76568e-07
6.06615e-07
5.44533e-07
4.89383e-07
4.40343e-07
3.9669e-07
3.57793e-07
3.23094e-07
2.9211e-07
2.64408e-07
2.39617e-07
2.17401e-07
1.97472e-07
1.79573e-07
1.63478e-07
1.48988e-07
1.35926e-07
1.19547e-06
1.06594e-06
9.51489e-07
8.50268e-07
7.60674e-07
6.81302e-07
6.10921e-07
5.48454e-07
4.92958e-07
4.43605e-07
3.99671e-07
3.60518e-07
3.25591e-07
2.94396e-07
2.66508e-07
2.41542e-07
2.19172e-07
1.99099e-07
1.81071e-07
1.64856e-07
1.50258e-07
1.37098e-07
1.20509e-06
1.07467e-06
9.59412e-07
8.57469e-07
7.67225e-07
6.87269e-07
6.16362e-07
5.53421e-07
4.97496e-07
4.47756e-07
4.03471e-07
3.64002e-07
3.28786e-07
2.97332e-07
2.69203e-07
2.44023e-07
2.21453e-07
2.01203e-07
1.83007e-07
1.66644e-07
1.51905e-07
1.38619e-07
1.21671e-06
1.08523e-06
9.69023e-07
8.66225e-07
7.75213e-07
6.94562e-07
6.23028e-07
5.5952e-07
5.03083e-07
4.52878e-07
4.08171e-07
3.68318e-07
3.32753e-07
3.0098e-07
2.72562e-07
2.47116e-07
2.24306e-07
2.03832e-07
1.85436e-07
1.68885e-07
1.53979e-07
1.40535e-07
1.23037e-06
1.09769e-06
9.80391e-07
8.7661e-07
7.8471e-07
7.03256e-07
6.30994e-07
5.66826e-07
5.09789e-07
4.59039e-07
4.13836e-07
3.73531e-07
3.37554e-07
3.05404e-07
2.76642e-07
2.5088e-07
2.27781e-07
2.07043e-07
1.88404e-07
1.71631e-07
1.56518e-07
1.42887e-07
1.24611e-06
1.11208e-06
9.93557e-07
8.88671e-07
7.95767e-07
7.13403e-07
6.40314e-07
5.75393e-07
5.17671e-07
4.66296e-07
4.20522e-07
3.79695e-07
3.43241e-07
3.10654e-07
2.81492e-07
2.55364e-07
2.31927e-07
2.1088e-07
1.91955e-07
1.7492e-07
1.59566e-07
1.45712e-07
1.26376e-06
1.12826e-06
1.00842e-06
9.02332e-07
8.08332e-07
7.24968e-07
6.50967e-07
5.85214e-07
5.26729e-07
4.74657e-07
4.28244e-07
3.86832e-07
3.4984e-07
3.16759e-07
2.87143e-07
2.60597e-07
2.36776e-07
2.15374e-07
1.96123e-07
1.78786e-07
1.63155e-07
1.49043e-07
1.28378e-06
1.14666e-06
1.02534e-06
9.17907e-07
8.22678e-07
7.38191e-07
6.63164e-07
5.9647e-07
5.37125e-07
4.84263e-07
4.37126e-07
3.95049e-07
3.57445e-07
3.23802e-07
2.93667e-07
2.66644e-07
2.42383e-07
2.20575e-07
2.00949e-07
1.83267e-07
1.67315e-07
1.52908e-07
1.30544e-06
1.16665e-06
1.0438e-06
9.34958e-07
8.3844e-07
7.5277e-07
6.76655e-07
6.08962e-07
5.48696e-07
4.94986e-07
4.47067e-07
4.04268e-07
3.65999e-07
3.31741e-07
3.01039e-07
2.7349e-07
2.48743e-07
2.26485e-07
2.06444e-07
1.88375e-07
1.72066e-07
1.57327e-07
1.32885e-06
1.18833e-06
1.06388e-06
9.53566e-07
8.55692e-07
7.68771e-07
6.91502e-07
6.22742e-07
5.6149e-07
5.06869e-07
4.58107e-07
4.14528e-07
3.75535e-07
3.40608e-07
3.09285e-07
2.81161e-07
2.55879e-07
2.33126e-07
2.12624e-07
1.94128e-07
1.77422e-07
1.62314e-07
1.35381e-06
1.21152e-06
1.08544e-06
9.73614e-07
8.74337e-07
7.86115e-07
7.07639e-07
6.37758e-07
5.75466e-07
5.19879e-07
4.7022e-07
4.25807e-07
3.8604e-07
3.50392e-07
3.18399e-07
2.89652e-07
2.63792e-07
2.40499e-07
2.19495e-07
2.00532e-07
1.8339e-07
1.67878e-07
1.35381e-06
1.21152e-06
1.08544e-06
9.73615e-07
8.74338e-07
7.86116e-07
7.07639e-07
6.37758e-07
5.75467e-07
5.19879e-07
4.7022e-07
4.25807e-07
3.8604e-07
3.50392e-07
3.18399e-07
2.89652e-07
2.63792e-07
2.40499e-07
2.19495e-07
2.00532e-07
1.8339e-07
1.67878e-07
1.32885e-06
1.18833e-06
1.06388e-06
9.53568e-07
8.55694e-07
7.68773e-07
6.91503e-07
6.22743e-07
5.61491e-07
5.06869e-07
4.58107e-07
4.14528e-07
3.75535e-07
3.40608e-07
3.09284e-07
2.81161e-07
2.55879e-07
2.33126e-07
2.12624e-07
1.94128e-07
1.77422e-07
1.62314e-07
1.30545e-06
1.16666e-06
1.04381e-06
9.34963e-07
8.38444e-07
7.52774e-07
6.76658e-07
6.08964e-07
5.48697e-07
4.94987e-07
4.47068e-07
4.04268e-07
3.65999e-07
3.31741e-07
3.01038e-07
2.7349e-07
2.48743e-07
2.26485e-07
2.06443e-07
1.88374e-07
1.72065e-07
1.57326e-07
1.28379e-06
1.14667e-06
1.02535e-06
9.17915e-07
8.22684e-07
7.38197e-07
6.63168e-07
5.96473e-07
5.37127e-07
4.84265e-07
4.37127e-07
3.95049e-07
3.57444e-07
3.23801e-07
2.93666e-07
2.66643e-07
2.42382e-07
2.20574e-07
2.00948e-07
1.83265e-07
1.67314e-07
1.52907e-07
1.26377e-06
1.12828e-06
1.00843e-06
9.02342e-07
8.08341e-07
7.24976e-07
6.50973e-07
5.85218e-07
5.26732e-07
4.74659e-07
4.28245e-07
3.86832e-07
3.49839e-07
3.16758e-07
2.87141e-07
2.60595e-07
2.36774e-07
2.15372e-07
1.96121e-07
1.78784e-07
1.63153e-07
1.49041e-07
1.24613e-06
1.11209e-06
9.93571e-07
8.88683e-07
7.95778e-07
7.13412e-07
6.40321e-07
5.75399e-07
5.17675e-07
4.66298e-07
4.20523e-07
3.79695e-07
3.4324e-07
3.10653e-07
2.8149e-07
2.55362e-07
2.31925e-07
2.10877e-07
1.91953e-07
1.74918e-07
1.59565e-07
1.45711e-07
1.23039e-06
1.0977e-06
9.80404e-07
8.76622e-07
7.84719e-07
7.03264e-07
6.31001e-07
5.66832e-07
5.09794e-07
4.59042e-07
4.13838e-07
3.73532e-07
3.37554e-07
3.05403e-07
2.76641e-07
2.50879e-07
2.2778e-07
2.07042e-07
1.88402e-07
1.71629e-07
1.56517e-07
1.42886e-07
1.21672e-06
1.08524e-06
9.69032e-07
8.66233e-07
7.7522e-07
6.94568e-07
6.23034e-07
5.59526e-07
5.03087e-07
4.52882e-07
4.08174e-07
3.6832e-07
3.32755e-07
3.00981e-07
2.72563e-07
2.47116e-07
2.24305e-07
2.03832e-07
1.85435e-07
1.68884e-07
1.53977e-07
1.40534e-07
1.2051e-06
1.07468e-06
9.59416e-07
8.57471e-07
7.67228e-07
6.87271e-07
6.16364e-07
5.53423e-07
4.97499e-07
4.47759e-07
4.03475e-07
3.64005e-07
3.28789e-07
2.97333e-07
2.69205e-07
2.44024e-07
2.21454e-07
2.01202e-07
1.83007e-07
1.66642e-07
1.51905e-07
1.38618e-07
1.19546e-06
1.06594e-06
9.51486e-07
8.50265e-07
7.60671e-07
6.81299e-07
6.10919e-07
5.48453e-07
4.92958e-07
4.43606e-07
3.99672e-07
3.6052e-07
3.25593e-07
2.94399e-07
2.66509e-07
2.41545e-07
2.19173e-07
1.99101e-07
1.81071e-07
1.64857e-07
1.50257e-07
1.37096e-07
1.18773e-06
1.05894e-06
9.45149e-07
8.44519e-07
7.55456e-07
6.76561e-07
6.06609e-07
5.44528e-07
4.89379e-07
4.4034e-07
3.96688e-07
3.57792e-07
3.23095e-07
2.92111e-07
2.64411e-07
2.39619e-07
2.17403e-07
1.97474e-07
1.79574e-07
1.63478e-07
1.48987e-07
1.35925e-07
1.18189e-06
1.05367e-06
9.40377e-07
8.40199e-07
7.51539e-07
6.73005e-07
6.03378e-07
5.41589e-07
4.86703e-07
4.379e-07
3.94461e-07
3.55758e-07
3.21235e-07
2.90408e-07
2.6285e-07
2.38188e-07
2.1609e-07
1.96267e-07
1.78465e-07
1.62458e-07
1.48047e-07
1.35059e-07
1.17729e-06
1.04954e-06
9.36668e-07
8.36861e-07
7.48532e-07
6.70293e-07
6.00928e-07
5.39374e-07
4.84697e-07
4.36082e-07
3.92812e-07
3.54259e-07
3.19872e-07
2.89167e-07
2.6172e-07
2.37156e-07
2.15147e-07
1.95406e-07
1.77676e-07
1.61735e-07
1.47385e-07
1.34451e-07
1.17455e-06
1.04707e-06
9.3444e-07
8.34849e-07
7.46714e-07
6.68647e-07
5.99437e-07
5.38022e-07
4.8347e-07
4.34966e-07
3.91796e-07
3.53334e-07
3.19028e-07
2.88397e-07
2.61015e-07
2.36511e-07
2.14557e-07
1.94865e-07
1.7718e-07
1.61279e-07
1.46966e-07
1.34066e-07
1.17425e-06
1.04679e-06
9.34183e-07
8.34609e-07
7.46488e-07
6.68437e-07
5.9924e-07
5.37837e-07
4.83297e-07
4.34804e-07
3.91645e-07
3.53192e-07
3.18896e-07
2.88273e-07
2.609e-07
2.36403e-07
2.14456e-07
1.9477e-07
1.77092e-07
1.61197e-07
1.46889e-07
1.33994e-07
1.17105e-06
1.17121e-06
1.17378e-06
1.17804e-06
1.18327e-06
1.19008e-06
1.19843e-06
1.20837e-06
1.2198e-06
1.23261e-06
1.24656e-06
1.26211e-06
1.27853e-06
1.29585e-06
1.31384e-06
1.24221e-06
1.21912e-06
1.19715e-06
1.17646e-06
1.15716e-06
1.13906e-06
1.12299e-06
1.10833e-06
1.09529e-06
1.08387e-06
1.07405e-06
1.06579e-06
1.059e-06
1.0537e-06
1.04954e-06
1.03802e-06
1.03816e-06
1.04044e-06
1.04421e-06
1.04889e-06
1.05498e-06
1.0625e-06
1.0715e-06
1.0819e-06
1.0936e-06
1.10641e-06
1.12076e-06
1.13603e-06
1.15225e-06
1.16923e-06
1.10812e-06
1.08699e-06
1.06695e-06
1.04812e-06
1.03061e-06
1.01422e-06
9.99682e-07
9.86455e-07
9.74716e-07
9.64455e-07
9.55645e-07
9.48237e-07
9.42167e-07
9.37424e-07
9.3373e-07
9.20984e-07
9.21106e-07
9.23131e-07
9.26482e-07
9.30663e-07
9.36129e-07
9.42898e-07
9.51043e-07
9.60515e-07
9.71224e-07
9.83013e-07
9.96256e-07
1.01045e-06
1.02564e-06
1.04165e-06
9.89623e-07
9.70281e-07
9.51981e-07
9.34827e-07
9.18901e-07
9.04054e-07
8.90887e-07
8.78939e-07
8.68355e-07
8.59121e-07
8.51206e-07
8.44562e-07
8.39123e-07
8.34874e-07
8.31589e-07
8.17948e-07
8.18056e-07
8.19856e-07
8.22837e-07
8.26585e-07
8.31491e-07
8.37589e-07
8.44967e-07
8.53606e-07
8.63423e-07
8.7428e-07
8.86509e-07
8.99707e-07
9.13928e-07
9.29007e-07
8.84827e-07
8.67099e-07
8.50368e-07
8.34723e-07
8.20228e-07
8.06757e-07
7.94816e-07
7.8401e-07
7.74456e-07
7.66135e-07
7.59015e-07
7.53048e-07
7.4817e-07
7.44359e-07
7.41434e-07
7.27175e-07
7.27272e-07
7.28875e-07
7.3153e-07
7.34895e-07
7.39308e-07
7.44805e-07
7.5149e-07
7.59375e-07
7.68387e-07
7.784e-07
7.89699e-07
8.01969e-07
8.15274e-07
8.2947e-07
7.9206e-07
7.75796e-07
7.60483e-07
7.46197e-07
7.32991e-07
7.20753e-07
7.0991e-07
7.00124e-07
6.91489e-07
6.83982e-07
6.7757e-07
6.72203e-07
6.67823e-07
6.64401e-07
6.61794e-07
6.47149e-07
6.47237e-07
6.48666e-07
6.51034e-07
6.5406e-07
6.58038e-07
6.63001e-07
6.6906e-07
6.76257e-07
6.84538e-07
6.93785e-07
7.04235e-07
7.15641e-07
7.28083e-07
7.41441e-07
7.09867e-07
6.9493e-07
6.809e-07
6.67841e-07
6.55794e-07
6.44663e-07
6.34806e-07
6.25932e-07
6.18118e-07
6.11337e-07
6.05554e-07
6.00723e-07
5.96784e-07
5.93707e-07
5.9138e-07
5.76545e-07
5.76625e-07
5.77901e-07
5.80015e-07
5.82741e-07
5.86333e-07
5.90824e-07
5.96318e-07
6.02886e-07
6.10501e-07
6.19051e-07
6.28726e-07
6.3933e-07
6.50958e-07
6.63517e-07
6.3697e-07
6.2324e-07
6.10372e-07
5.98421e-07
5.8742e-07
5.77285e-07
5.68311e-07
5.60255e-07
5.53175e-07
5.47042e-07
5.41821e-07
5.37465e-07
5.33919e-07
5.3115e-07
5.2907e-07
5.14204e-07
5.14278e-07
5.1542e-07
5.17309e-07
5.19767e-07
5.23017e-07
5.27089e-07
5.32077e-07
5.3807e-07
5.45073e-07
5.52986e-07
5.61953e-07
5.71815e-07
5.82676e-07
5.94476e-07
5.72255e-07
5.59623e-07
5.47808e-07
5.36859e-07
5.26802e-07
5.17562e-07
5.09385e-07
5.02062e-07
4.95638e-07
4.90085e-07
4.85365e-07
4.81433e-07
4.78236e-07
4.75741e-07
4.7388e-07
4.59114e-07
4.59185e-07
4.60207e-07
4.61897e-07
4.64117e-07
4.67062e-07
4.70762e-07
4.75299e-07
4.80768e-07
4.87205e-07
4.94532e-07
5.02854e-07
5.12031e-07
5.2217e-07
5.33248e-07
5.14741e-07
5.03113e-07
4.92254e-07
4.82212e-07
4.73008e-07
4.64575e-07
4.57115e-07
4.5045e-07
4.44615e-07
4.3958e-07
4.35307e-07
4.31753e-07
4.28868e-07
4.26617e-07
4.24949e-07
4.10392e-07
4.10459e-07
4.11377e-07
4.1289e-07
4.14896e-07
4.17567e-07
4.20937e-07
4.25074e-07
4.30066e-07
4.3598e-07
4.42765e-07
4.50494e-07
4.59042e-07
4.68506e-07
4.78894e-07
4.63574e-07
4.52862e-07
4.42873e-07
4.33653e-07
4.2522e-07
4.17516e-07
4.10703e-07
4.04631e-07
3.99323e-07
3.94752e-07
3.90879e-07
3.87663e-07
3.85056e-07
3.83023e-07
3.81525e-07
3.67263e-07
3.67327e-07
3.68153e-07
3.69509e-07
3.71323e-07
3.7375e-07
3.76823e-07
3.80603e-07
3.85168e-07
3.90597e-07
3.96877e-07
4.0406e-07
4.12029e-07
4.20865e-07
4.30598e-07
4.18001e-07
4.08127e-07
3.98933e-07
3.90459e-07
3.82725e-07
3.75679e-07
3.6945e-07
3.63911e-07
3.59078e-07
3.54922e-07
3.51408e-07
3.48494e-07
3.46135e-07
3.44296e-07
3.4295e-07
3.29051e-07
3.29112e-07
3.29856e-07
3.31075e-07
3.32717e-07
3.34922e-07
3.37729e-07
3.4119e-07
3.45371e-07
3.50356e-07
3.56162e-07
3.62839e-07
3.70274e-07
3.78529e-07
3.87641e-07
3.77367e-07
3.68258e-07
3.59791e-07
3.51998e-07
3.44896e-07
3.38445e-07
3.32744e-07
3.27686e-07
3.2328e-07
3.19497e-07
3.16304e-07
3.13661e-07
3.11524e-07
3.09859e-07
3.08647e-07
2.95165e-07
2.95221e-07
2.95893e-07
2.9699e-07
2.98478e-07
3.00484e-07
3.03049e-07
3.06223e-07
3.10062e-07
3.14641e-07
3.20005e-07
3.26209e-07
3.33149e-07
3.40865e-07
3.49395e-07
3.41097e-07
3.32686e-07
3.24883e-07
3.17712e-07
3.11186e-07
3.05272e-07
3.00049e-07
2.95425e-07
2.91403e-07
2.87956e-07
2.85051e-07
2.8265e-07
2.80712e-07
2.79202e-07
2.78109e-07
2.65085e-07
2.65136e-07
2.65744e-07
2.66733e-07
2.68084e-07
2.6991e-07
2.72256e-07
2.7517e-07
2.78701e-07
2.82915e-07
2.87866e-07
2.93624e-07
3.00104e-07
3.07322e-07
3.15307e-07
3.08688e-07
3.00911e-07
2.93715e-07
2.87113e-07
2.81112e-07
2.75684e-07
2.70893e-07
2.66662e-07
2.62987e-07
2.59842e-07
2.57196e-07
2.55013e-07
2.53253e-07
2.51882e-07
2.50895e-07
2.38357e-07
2.38405e-07
2.38954e-07
2.39847e-07
2.41075e-07
2.42739e-07
2.44885e-07
2.47563e-07
2.50816e-07
2.54701e-07
2.59272e-07
2.64609e-07
2.70656e-07
2.77413e-07
2.84891e-07
2.79695e-07
2.72496e-07
2.65855e-07
2.59774e-07
2.54252e-07
2.49264e-07
2.44865e-07
2.40988e-07
2.37628e-07
2.34755e-07
2.32342e-07
2.30354e-07
2.28754e-07
2.27508e-07
2.26615e-07
2.14584e-07
2.14628e-07
2.15124e-07
2.15932e-07
2.17051e-07
2.18568e-07
2.20533e-07
2.22994e-07
2.25994e-07
2.29583e-07
2.33807e-07
2.3875e-07
2.44387e-07
2.50711e-07
2.57719e-07
2.53728e-07
2.47059e-07