/*--------------------------------*- C++ -*----------------------------------*\
| =========                 |                                                 |
| \\      /  F ield         | OpenFOAM Extend Project: Open source CFD        |
|  \\    /   O peration     | Version:  1.6-ext                               |
|   \\  /    A nd           | Web:      www.extend-project.de                 |
|    \\/     M anipulation  |                                                 |
\*---------------------------------------------------------------------------*/
FoamFile
{
    version     2.0;
    format      ascii;
    class       volScalarField;
    location    "3.5";
    object      p;
}
// * * * * * * * * * * * * * * * * * * * * * * * * * * * * * * * * * * * * * //

dimensions      [0 2 -2 0 0 0 0];

internalField   nonuniform List<scalar> 
72
(
-0.0313951
-0.0324006
-0.0312485
-0.028402
-0.023877
-0.0178826
-0.0109622
-0.00576707
0.00580251
-0.030395
-0.0315444
-0.0306856
-0.0284431
-0.0246493
-0.0192695
-0.0125955
-0.00768889
0.005012
-0.0318103
-0.0331843
-0.0326302
-0.0307485
-0.0271772
-0.0217427
-0.0146278
-0.009491
0.005085
-0.0352832
-0.0366399
-0.0363972
-0.0348766
-0.0313847
-0.0257023
-0.0178134
-0.0109998
0.00373302
-0.0408367
-0.041663
-0.0416697
-0.0405759
-0.03724
-0.0310957
-0.0222376
-0.0130934
0.00151017
-0.0482857
-0.0475146
-0.0476767
-0.046985
-0.0437628
-0.0370254
-0.0271957
-0.0155875
-0.00117451
-0.0570489
-0.0527369
-0.0528797
-0.0521058
-0.0488545
-0.0416639
-0.0308937
-0.0177275
-0.00357076
-0.0754011
-0.0583263
-0.056479
-0.0549219
-0.0509006
-0.0430618
-0.0318247
-0.0181963
-0.00499371
)
;

boundaryField
{
    inlet
    {
        type            zeroGradient;
    }
    outlet
    {
        type            totalPressure;
        rho             none;
        psi             none;
        gamma           1;
        p0              uniform 0;
        value           uniform 0;
    }
    fixedWalls
    {
        type            zeroGradient;
    }
    frontAndBack
    {
        type            empty;
    }
    procBoundary0to1
    {
        type            processor;
        value           nonuniform List<scalar> 9(-0.0678849 -0.059269 -0.0557622 -0.0529276 -0.0480465 -0.0397853 -0.0289571 -0.0163089 -0.00526005);
    }
}


// ************************************************************************* //
