/*--------------------------------*- C++ -*----------------------------------*\
| =========                 |                                                 |
| \\      /  F ield         | OpenFOAM Extend Project: Open source CFD        |
|  \\    /   O peration     | Version:  1.6-ext                               |
|   \\  /    A nd           | Web:      www.extend-project.de                 |
|    \\/     M anipulation  |                                                 |
\*---------------------------------------------------------------------------*/
FoamFile
{
    version     2.0;
    format      ascii;
    class       surfaceScalarField;
    location    "3.5";
    object      phi;
}
// * * * * * * * * * * * * * * * * * * * * * * * * * * * * * * * * * * * * * //

dimensions      [0 3 -1 0 0 0 0];

internalField   nonuniform List<scalar> 
127
(
-4.26277e-06
4.26277e-06
-1.34408e-05
9.17804e-06
-2.29014e-05
9.46063e-06
-2.98236e-05
6.9222e-06
-3.26721e-05
2.84843e-06
-3.07201e-05
-1.95201e-06
-2.38516e-05
-6.86846e-06
-1.31336e-05
-1.0718e-05
-1.47311e-05
-9.90586e-06
1.41686e-05
-2.65037e-05
2.57759e-05
-4.18309e-05
2.47878e-05
-5.12891e-05
1.63804e-05
-5.26396e-05
4.19897e-06
-4.5469e-05
-9.12266e-06
-3.06904e-05
-2.1647e-05
-1.01607e-05
-3.12477e-05
-3.7206e-05
-1.20609e-05
2.62295e-05
-3.08416e-05
4.45567e-05
-4.70203e-05
4.09665e-05
-5.55566e-05
2.49167e-05
-5.41669e-05
2.80925e-06
-4.28247e-05
-2.04648e-05
-2.29678e-05
-4.15039e-05
3.70601e-06
-5.79215e-05
-6.36012e-05
-1.21978e-05
3.84273e-05
-2.98442e-05
6.2203e-05
-4.39112e-05
5.50335e-05
-4.96986e-05
3.07041e-05
-4.51148e-05
-1.77452e-06
-3.05446e-05
-3.5035e-05
-7.75725e-06
-6.42913e-05
2.16364e-05
-8.73152e-05
-9.34231e-05
-1.06439e-05
4.90712e-05
-2.31164e-05
7.46755e-05
-3.10487e-05
6.29658e-05
-3.08326e-05
3.0488e-05
-2.1325e-05
-1.12821e-05
-2.85942e-06
-5.35006e-05
2.23648e-05
-8.95156e-05
5.19577e-05
-0.000116908
-0.000123815
-6.58454e-06
5.56558e-05
-7.63761e-06
7.57286e-05
-3.00055e-06
5.83288e-05
8.4323e-06
1.90552e-05
2.59232e-05
-2.87731e-05
4.87834e-05
-7.63608e-05
7.56119e-05
-0.000116344
0.000103678
-0.000144975
-0.000151253
4.96735e-06
5.06884e-05
2.34995e-05
5.71964e-05
4.85644e-05
3.32638e-05
7.57908e-05
-8.17124e-06
0.000103442
-5.64238e-05
0.000131004
-0.000103923
0.000157085
-0.000142425
0.000181108
-0.000168998
-0.000171615
3.98278e-05
8.75278e-05
0.000134607
0.00017606
0.000211256
0.000240013
0.00026188
0.000277831
)
;

boundaryField
{
    inlet
    {
        type            calculated;
        value           nonuniform 0();
    }
    outlet
    {
        type            calculated;
        value           nonuniform List<scalar> 8(1.59746e-06 1.23143e-05 3.01012e-05 5.14583e-05 8.23496e-05 0.000131116 0.000201471 0.000286997);
    }
    fixedWalls
    {
        type            calculated;
        value           uniform 0;
    }
    frontAndBack
    {
        type            empty;
    }
    procBoundary0to1
    {
        type            processor;
        value           nonuniform List<scalar> 9(1.08606e-05 9.49643e-06 -1.3815e-05 -4.96246e-05 -9.16202e-05 -0.00013268 -0.000164293 -0.000184948 -0.000180781);
    }
}


// ************************************************************************* //
