/*--------------------------------*- C++ -*----------------------------------*\
| =========                 |                                                 |
| \\      /  F ield         | OpenFOAM Extend Project: Open source CFD        |
|  \\    /   O peration     | Version:  1.6-ext                               |
|   \\  /    A nd           | Web:      www.extend-project.de                 |
|    \\/     M anipulation  |                                                 |
\*---------------------------------------------------------------------------*/
FoamFile
{
    version     2.0;
    format      ascii;
    class       surfaceScalarField;
    location    "1.3";
    object      phi;
}
// * * * * * * * * * * * * * * * * * * * * * * * * * * * * * * * * * * * * * //

dimensions      [0 3 -1 0 0 0 0];

internalField   nonuniform List<scalar> 
123
(
0.000202928
9.51298e-06
0.000211392
3.66495e-05
0.000223588
7.20546e-05
0.000237692
0.00010947
0.000253599
0.000145758
0.000274315
0.000182662
0.000309558
0.000227084
0.000378473
0.000270076
0.000334862
0.00041187
0.000204102
5.41107e-06
0.000215769
2.49827e-05
0.000233241
5.45819e-05
0.000255039
8.76727e-05
0.00028177
0.000119028
0.000316721
0.00014771
0.000365003
0.000178803
0.000443878
0.000191201
0.000248564
0.000530177
0.000205957
-5.45848e-07
0.000220806
1.01336e-05
0.000242056
3.33318e-05
0.000268212
6.1517e-05
0.000299383
8.78566e-05
0.000337444
0.000109649
0.000385044
0.000131203
0.000445781
0.000130464
0.000157847
0.000536498
0.000209088
-9.63355e-06
0.000227072
-7.85069e-06
0.000249923
1.04809e-05
0.000276982
3.44577e-05
0.000308417
5.64223e-05
0.000345191
7.28745e-05
0.000389548
8.68456e-05
0.000436735
8.32767e-05
9.05638e-05
0.000504018
0.000213903
-2.35361e-05
0.000231684
-2.56321e-05
0.000251437
-9.27244e-06
0.000274891
1.10041e-05
0.000303075
2.82382e-05
0.000336128
3.98213e-05
0.000375215
4.77591e-05
0.000413371
4.51203e-05
4.44237e-05
0.000459511
0.000211151
-3.46867e-05
0.000216559
-3.104e-05
0.00022325
-1.59638e-05
0.000236296
-2.04177e-06
0.000256838
7.69628e-06
0.000283227
1.34319e-05
0.000314437
1.6549e-05
0.000344339
1.52182e-05
1.36535e-05
0.000375109
0.000165313
0.000134273
0.000118309
0.000116268
0.000123964
0.000137396
0.000153945
0.000169163
0.000182817
0.00013541
0.000142306
0.000106437
6.49763e-05
3.04127e-05
7.83638e-06
)
;

boundaryField
{
    inlet
    {
        type            calculated;
        value           nonuniform List<scalar> 7(-0.0002 -0.0002 -0.0002 -0.0002 -0.0002 -0.0002 -0.0002);
    }
    outlet
    {
        type            calculated;
        value           nonuniform 0();
    }
    fixedWalls
    {
        type            calculated;
        value           uniform 0;
    }
    frontAndBack
    {
        type            empty;
    }
    procBoundary2to3
    {
        type            processor;
        value           nonuniform List<scalar> 9(-1.24413e-05 -4.51134e-05 -8.42498e-05 -0.000123574 -0.000161665 -0.000203378 -0.000262328 -0.000338991 -0.000368259);
    }
    procBoundary2to1
    {
        type            processor;
        value           nonuniform List<scalar> 7(0.00027646 0.000523281 0.000572367 0.000545479 0.000494075 0.000397686 0.000190653);
    }
}


// ************************************************************************* //
