/*--------------------------------*- C++ -*----------------------------------*\
| =========                 |                                                 |
| \\      /  F ield         | OpenFOAM Extend Project: Open source CFD        |
|  \\    /   O peration     | Version:  1.6-ext                               |
|   \\  /    A nd           | Web:      www.extend-project.de                 |
|    \\/     M anipulation  |                                                 |
\*---------------------------------------------------------------------------*/
FoamFile
{
    version     2.0;
    format      ascii;
    class       volScalarField;
    location    "1";
    object      p;
}
// * * * * * * * * * * * * * * * * * * * * * * * * * * * * * * * * * * * * * //

dimensions      [0 2 -2 0 0 0 0];

internalField   nonuniform List<scalar> 
72
(
-0.0143018
-0.0123334
-0.00887962
-0.00513723
-0.00198112
0.000243167
0.00144518
0.00174198
0.00127575
-0.0162433
-0.0144295
-0.0110645
-0.00713484
-0.00368934
-0.00114717
0.000376056
0.00100626
0.00102859
-0.0198836
-0.0176543
-0.0135133
-0.00875554
-0.00465706
-0.00167097
0.000120417
0.000898753
0.00106467
-0.0259031
-0.0230804
-0.017377
-0.0110939
-0.00583946
-0.00213028
3.18097e-05
0.000945432
0.0011238
-0.0354931
-0.0315751
-0.0232716
-0.014412
-0.00728376
-0.00250519
0.00013011
0.00114973
0.00119742
-0.0519496
-0.0441936
-0.0321045
-0.018951
-0.00894881
-0.00272724
0.000433728
0.00149054
0.00125887
-0.0720065
-0.0595132
-0.0426924
-0.0241563
-0.0105369
-0.00270626
0.000896901
0.00187526
0.00124579
-0.118748
-0.0814108
-0.0528565
-0.0279698
-0.011055
-0.00218864
0.00147829
0.00220339
0.00111039
)
;

boundaryField
{
    inlet
    {
        type            zeroGradient;
    }
    outlet
    {
        type            totalPressure;
        rho             none;
        psi             none;
        gamma           1;
        p0              uniform 0;
        value           uniform 0;
    }
    fixedWalls
    {
        type            zeroGradient;
    }
    frontAndBack
    {
        type            empty;
    }
    procBoundary0to1
    {
        type            processor;
        value           nonuniform List<scalar> 9(-0.106137 -0.0808409 -0.0499104 -0.0243671 -0.00847792 -0.000689536 0.00221182 0.00243606 0.000881138);
    }
}


// ************************************************************************* //
