/*--------------------------------*- C++ -*----------------------------------*\
| =========                 |                                                 |
| \\      /  F ield         | OpenFOAM Extend Project: Open source CFD        |
|  \\    /   O peration     | Version:  1.6-ext                               |
|   \\  /    A nd           | Web:      www.extend-project.de                 |
|    \\/     M anipulation  |                                                 |
\*---------------------------------------------------------------------------*/
FoamFile
{
    version     2.0;
    format      ascii;
    class       surfaceScalarField;
    location    "1";
    object      phi;
}
// * * * * * * * * * * * * * * * * * * * * * * * * * * * * * * * * * * * * * //

dimensions      [0 3 -1 0 0 0 0];

internalField   nonuniform List<scalar> 
127
(
-2.95413e-06
2.95413e-06
-6.78233e-07
-2.27589e-06
6.03132e-06
-6.70955e-06
1.48896e-05
-8.85824e-06
2.40378e-05
-9.1482e-06
3.23461e-05
-8.30833e-06
3.92403e-05
-6.89423e-06
4.45726e-05
-5.33223e-06
-4.27337e-06
-6.69045e-07
3.62317e-06
7.50611e-06
-1.04511e-05
2.3075e-05
-2.22785e-05
4.17985e-05
-2.75817e-05
6.04658e-05
-2.78155e-05
7.71595e-05
-2.50021e-05
9.08926e-05
-2.06273e-05
0.000101243
-1.56822e-05
-1.13857e-05
-1.03402e-06
4.65719e-06
9.41703e-06
-2.09021e-05
2.95982e-05
-4.24596e-05
5.37933e-05
-5.17769e-05
7.75947e-05
-5.16169e-05
9.85459e-05
-4.59533e-05
0.000115561
-3.76425e-05
0.000128272
-2.83929e-05
-1.9863e-05
-4.69295e-06
9.35014e-06
5.95358e-06
-3.15486e-05
2.99522e-05
-6.64582e-05
5.91022e-05
-8.09269e-05
8.7189e-05
-7.97036e-05
0.000111143
-6.99074e-05
0.000130039
-5.65386e-05
0.000143894
-4.22474e-05
-2.89086e-05
-9.20406e-06
1.85542e-05
2.15129e-06
-4.2904e-05
3.10745e-05
-9.53814e-05
6.61706e-05
-0.000116023
9.87869e-05
-0.00011232
0.000125299
-9.642e-05
0.000145285
-7.65242e-05
0.000159502
-5.64646e-05
-3.79214e-05
-1.14373e-05
2.99915e-05
6.6993e-06
-6.10406e-05
4.33256e-05
-0.000132008
8.38678e-05
-0.000156565
0.000119305
-0.000147757
0.000146471
-0.000123586
0.000165854
-9.59075e-05
0.000179153
-6.97637e-05
-4.60623e-05
1.32459e-05
1.67456e-05
4.52922e-05
-9.30869e-05
8.64821e-05
-0.000173198
0.000125506
-0.000195589
0.000156663
-0.000178914
0.000178893
-0.000145817
0.000193826
-0.000110841
0.000203759
-7.96962e-05
-5.19561e-05
7.6543e-05
0.000136225
0.00017621
0.00020174
0.000216472
0.000224687
0.00022941
0.000232583
)
;

boundaryField
{
    inlet
    {
        type            calculated;
        value           nonuniform 0();
    }
    outlet
    {
        type            calculated;
        value           nonuniform List<scalar> 8(4.88459e-05 0.000108355 0.000136749 0.000152939 0.000168515 0.000187294 0.000209653 0.000234511);
    }
    fixedWalls
    {
        type            calculated;
        value           uniform 0;
    }
    frontAndBack
    {
        type            empty;
    }
    procBoundary0to1
    {
        type            processor;
        value           nonuniform List<scalar> 9(-5.97974e-05 -0.000152769 -0.000213183 -0.000221119 -0.000193645 -0.000154032 -0.000115563 -8.287e-05 -5.3884e-05);
    }
}


// ************************************************************************* //
