/*--------------------------------*- C++ -*----------------------------------*\
| =========                 |                                                 |
| \\      /  F ield         | OpenFOAM Extend Project: Open source CFD        |
|  \\    /   O peration     | Version:  1.6-ext                               |
|   \\  /    A nd           | Web:      www.extend-project.de                 |
|    \\/     M anipulation  |                                                 |
\*---------------------------------------------------------------------------*/
FoamFile
{
    version     2.0;
    format      ascii;
    class       volVectorField;
    location    "1";
    object      U;
}
// * * * * * * * * * * * * * * * * * * * * * * * * * * * * * * * * * * * * * //

dimensions      [0 1 -1 0 0 0 0];

internalField   nonuniform List<vector> 
72
(
(-0.00242763 0.00202082 0)
(-0.00326937 7.48749e-05 0)
(0.00205203 -0.00176013 0)
(0.0103691 -0.00271385 0)
(0.0196175 -0.00292929 0)
(0.0284617 -0.00269836 0)
(0.0360906 -0.00225282 0)
(0.042257 -0.00179495 0)
(0.0477369 -0.00164042 0)
(-0.00215623 0.00371098 0)
(0.000883025 -0.00493442 0)
(0.0144574 -0.0123728 0)
(0.0323998 -0.0158734 0)
(0.0515082 -0.0162493 0)
(0.0694114 -0.0147182 0)
(0.0847005 -0.0121966 0)
(0.0967739 -0.00935743 0)
(0.106879 -0.00716036 0)
(-0.00283562 0.00380429 0)
(0.000869048 -0.0153325 0)
(0.0184225 -0.0313564 0)
(0.0416833 -0.0384869 0)
(0.0662363 -0.0386702 0)
(0.0888794 -0.0346859 0)
(0.107941 -0.0285782 0)
(0.122768 -0.0216578 0)
(0.135104 -0.0154071 0)
(-0.00529649 0.00585775 0)
(-0.0038558 -0.0258959 0)
(0.0164631 -0.0531419 0)
(0.0445771 -0.0649497 0)
(0.0739386 -0.064605 0)
(0.100228 -0.0572815 0)
(0.121667 -0.0467431 0)
(0.137903 -0.0351374 0)
(0.151204 -0.024317 0)
(-0.00845138 0.0138401 0)
(-0.00973608 -0.0362135 0)
(0.0147277 -0.0791017 0)
(0.0489069 -0.0967996 0)
(0.0836477 -0.094917 0)
(0.113431 -0.0826247 0)
(0.136564 -0.0663511 0)
(0.153389 -0.0493294 0)
(0.166755 -0.0334715 0)
(-0.0115027 0.0218332 0)
(-0.0100664 -0.0508718 0)
(0.0243955 -0.112655 0)
(0.0645802 -0.135743 0)
(0.103083 -0.129958 0)
(0.134468 -0.110259 0)
(0.157499 -0.0866239 0)
(0.173457 -0.0634962 0)
(0.185609 -0.0423063 0)
(0.00454544 0.043296 0)
(0.0241013 -0.0683971 0)
(0.0685171 -0.152858 0)
(0.108232 -0.178994 0)
(0.142486 -0.166268 0)
(0.168971 -0.13703 0)
(0.18731 -0.105093 0)
(0.199436 -0.0759108 0)
(0.208221 -0.0497631 0)
(0.0595947 -0.0176817 0)
(0.105491 -0.128056 0)
(0.162289 -0.201349 0)
(0.192299 -0.216744 0)
(0.209544 -0.193255 0)
(0.220449 -0.154952 0)
(0.226894 -0.116548 0)
(0.230941 -0.0834062 0)
(0.233584 -0.0541604 0)
)
;

boundaryField
{
    inlet
    {
        type            fixedValue;
        value           nonuniform 0();
    }
    outlet
    {
        type            zeroGradient;
    }
    fixedWalls
    {
        type            fixedValue;
        value           uniform (0 0 0);
    }
    frontAndBack
    {
        type            empty;
    }
    procBoundary0to1
    {
        type            processor;
        value           nonuniform List<vector> 9((0.280762 -0.0926088 0) (0.318215 -0.178308 0) (0.325469 -0.224092 0) (0.31289 -0.223381 0) (0.296203 -0.192731 0) (0.281796 -0.152411 0) (0.271007 -0.114206 0) (0.264258 -0.0821696 0) (0.259118 -0.0536264 0));
    }
}


// ************************************************************************* //
