/*--------------------------------*- C++ -*----------------------------------*\
| =========                 |                                                 |
| \\      /  F ield         | OpenFOAM Extend Project: Open source CFD        |
|  \\    /   O peration     | Version:  1.6-ext                               |
|   \\  /    A nd           | Web:      www.extend-project.de                 |
|    \\/     M anipulation  |                                                 |
\*---------------------------------------------------------------------------*/
FoamFile
{
    version     2.0;
    format      ascii;
    class       surfaceScalarField;
    location    "0.5";
    object      phi;
}
// * * * * * * * * * * * * * * * * * * * * * * * * * * * * * * * * * * * * * //

dimensions      [0 3 -1 0 0 0 0];

internalField   nonuniform List<scalar> 
127
(
0.000163455
3.65452e-05
0.000126647
3.68079e-05
9.89342e-05
2.77128e-05
7.78812e-05
2.1053e-05
5.97577e-05
1.81235e-05
4.23363e-05
1.74214e-05
2.46909e-05
1.76454e-05
8.09042e-06
1.66004e-05
8.09042e-06
0.000203811
3.27343e-05
0.000189454
5.11645e-05
0.000166049
5.11184e-05
0.000139626
4.74759e-05
0.000111737
4.6012e-05
8.21181e-05
4.70405e-05
5.06075e-05
4.91561e-05
1.94393e-05
4.77686e-05
2.75297e-05
0.00020502
2.77145e-05
0.000196802
5.93826e-05
0.000178496
6.94241e-05
0.000154424
7.15475e-05
0.000126552
7.38842e-05
9.51144e-05
7.84784e-05
6.01183e-05
8.41522e-05
2.39727e-05
8.39142e-05
5.15025e-05
0.00020162
2.60947e-05
0.00019463
6.63726e-05
0.000179599
8.44553e-05
0.000158908
9.22381e-05
0.000133511
9.9281e-05
0.000103156
0.000108834
6.73363e-05
0.000119972
2.79803e-05
0.00012327
7.94828e-05
0.00019999
2.61042e-05
0.000193973
7.23904e-05
0.000181971
9.64569e-05
0.000164985
0.000109224
0.000142953
0.000121313
0.000114773
0.000137014
7.87817e-05
0.000155963
3.52088e-05
0.000166843
0.000114692
0.000199934
2.61698e-05
0.000196011
7.63136e-05
0.000187827
0.000104641
0.000175474
0.000121577
0.000158142
0.000138645
0.000133768
0.000161389
9.87502e-05
0.00019098
4.97931e-05
0.0002158
0.000164485
0.000200805
2.53648e-05
0.000200175
7.69434e-05
0.000197026
0.00010779
0.000190856
0.000127747
0.0001806
0.000148902
0.000164001
0.000177988
0.000135047
0.000219934
8.34612e-05
0.000267386
0.000247946
0.000202185
0.000205765
0.000208799
0.00021047
0.00020987
0.000204722
0.000186555
0.000136024
)
;

boundaryField
{
    inlet
    {
        type            calculated;
        value           nonuniform List<scalar> 8(-0.0002 -0.0002 -0.0002 -0.0002 -0.0002 -0.0002 -0.0002 -0.0002);
    }
    outlet
    {
        type            calculated;
        value           nonuniform 0();
    }
    fixedWalls
    {
        type            calculated;
        value           uniform 0;
    }
    frontAndBack
    {
        type            empty;
    }
    procBoundary3to2
    {
        type            processor;
        value           nonuniform List<scalar> 9(2.31795e-05 7.33633e-05 0.000104757 0.000126075 0.000149502 0.000183135 0.000238102 0.000317917 0.000383969);
    }
}


// ************************************************************************* //
