/*--------------------------------*- C++ -*----------------------------------*\
| =========                 |                                                 |
| \\      /  F ield         | OpenFOAM Extend Project: Open source CFD        |
|  \\    /   O peration     | Version:  1.6-ext                               |
|   \\  /    A nd           | Web:      www.extend-project.de                 |
|    \\/     M anipulation  |                                                 |
\*---------------------------------------------------------------------------*/
FoamFile
{
    version     2.0;
    format      ascii;
    class       volScalarField;
    location    "2";
    object      p;
}
// * * * * * * * * * * * * * * * * * * * * * * * * * * * * * * * * * * * * * //

dimensions      [0 2 -2 0 0 0 0];

internalField   nonuniform List<scalar> 
284
(
0.252761
0.2213
0.209831
0.204877
0.203003
0.202971
0.203797
0.205004
0.207181
0.22354
0.214656
0.209267
0.206724
0.205804
0.205922
0.206537
0.207372
0.209724
0.211682
0.208268
0.205663
0.204471
0.204458
0.205212
0.206195
0.207143
0.210177
0.202334
0.201257
0.200176
0.199915
0.200544
0.201743
0.202994
0.204008
0.207589
0.194684
0.194365
0.193919
0.193899
0.194466
0.1954
0.196199
0.196518
0.199955
0.187783
0.187653
0.187273
0.186905
0.18666
0.186359
0.18547
0.183456
0.184646
0.181278
0.181122
0.18047
0.179335
0.177635
0.175032
0.170665
0.162953
0.15676
0.175197
0.174923
0.173797
0.171612
0.167998
0.162279
0.152894
0.137737
0.0933306
0.169781
0.169345
0.167627
0.164232
0.15832
0.148213
0.12826
0.0896247
-0.00357329
0.165384
0.164736
0.162378
0.157928
0.150504
0.138562
0.118026
0.0858887
0.0328175
0.162466
0.161398
0.158258
0.152938
0.144935
0.133301
0.116181
0.0917994
0.0589838
0.161452
0.159533
0.155188
0.148923
0.140635
0.129717
0.115302
0.0957175
0.0723245
0.164013
0.159509
0.153082
0.145614
0.137031
0.126804
0.114354
0.0982223
0.0798242
0.170345
0.160537
0.151465
0.142939
0.134362
0.124876
0.113794
0.0999158
0.0839726
0.198639
0.16674
0.152179
0.142725
0.134494
0.125853
0.115661
0.102691
0.0872939
-0.135999
-0.104638
-0.036705
-0.0592885
0.00984333
-0.0194883
0.0398488
0.0148207
0.0572242
0.0362846
0.065587
0.0471997
0.0695168
0.0508141
-0.0935925
-0.0842882
-0.0740362
-0.0585758
-0.0399128
-0.0228651
-0.0105214
-0.00317487
-0.000779511
-0.0662371
-0.0646907
-0.0577327
-0.04544
-0.030535
-0.0171154
-0.00774761
-0.00234764
-0.00129586
-0.0321478
-0.0355724
-0.0335756
-0.0271738
-0.0185342
-0.0104975
-0.00495203
-0.00173914
-0.00171567
-0.000199263
-0.0087903
-0.0120508
-0.0114021
-0.00860132
-0.00542772
-0.00312435
-0.00160171
-0.00200797
0.0202363
0.00928153
0.00252263
-0.0010119
-0.00240036
-0.002618
-0.00241084
-0.00184949
-0.00213152
0.0312762
0.0188004
0.00975922
0.00367946
-4.37033e-05
-0.00197472
-0.00263949
-0.00235191
-0.00212054
0.033682
0.0195239
0.00883344
0.00156405
-0.00269511
-0.00458225
-0.00481082
-0.00396236
-0.00266199
-0.0286128
-0.0283986
-0.0254031
-0.0207449
-0.0151995
-0.00968606
-0.00497862
-0.00144603
0.00165121
-0.0289735
-0.0290279
-0.026453
-0.0222171
-0.0168551
-0.0112507
-0.00634013
-0.00244336
0.00120379
-0.0317995
-0.0319921
-0.0292796
-0.0246102
-0.0185884
-0.0123301
-0.00684069
-0.0025703
0.00135666
-0.0370071
-0.0372502
-0.0342097
-0.0287057
-0.021423
-0.0139525
-0.00749642
-0.0026512
0.00150479
-0.0453334
-0.0452479
-0.0415917
-0.0350653
-0.0257266
-0.0164161
-0.00851067
-0.00281545
0.00148472
-0.0575885
-0.0562769
-0.0522585
-0.0435423
-0.0317171
-0.0197394
-0.0098835
-0.003098
0.00119914
-0.0725677
-0.0680342
-0.0634434
-0.052788
-0.0379505
-0.0230823
-0.0112257
-0.00343239
0.000639681
-0.100954
-0.0827415
-0.0740666
-0.0599902
-0.0419662
-0.0247814
-0.0117208
-0.00357409
-7.87535e-05
)
;

boundaryField
{
    inlet
    {
        type            zeroGradient;
    }
    outlet
    {
        type            totalPressure;
        rho             none;
        psi             none;
        gamma           1;
        p0              uniform 0;
        value           uniform 0;
    }
    fixedWalls
    {
        type            zeroGradient;
    }
    frontAndBack
    {
        type            empty;
    }
}


// ************************************************************************* //
