/*--------------------------------*- C++ -*----------------------------------*\
| =========                 |                                                 |
| \\      /  F ield         | OpenFOAM Extend Project: Open source CFD        |
|  \\    /   O peration     | Version:  1.6-ext                               |
|   \\  /    A nd           | Web:      www.extend-project.de                 |
|    \\/     M anipulation  |                                                 |
\*---------------------------------------------------------------------------*/
FoamFile
{
    version     2.0;
    format      ascii;
    class       surfaceScalarField;
    location    "2";
    object      phi;
}
// * * * * * * * * * * * * * * * * * * * * * * * * * * * * * * * * * * * * * //

dimensions      [0 3 -1 0 0 0 0];

internalField   nonuniform List<scalar> 
525
(
0.000160923
3.90765e-05
0.00011747
4.34539e-05
8.2378e-05
3.50916e-05
5.59757e-05
2.64023e-05
3.6595e-05
1.93807e-05
2.18064e-05
1.47886e-05
9.96907e-06
1.18374e-05
1.67395e-06
8.29512e-06
1.67395e-06
0.000205123
3.39534e-05
0.000191
5.75769e-05
0.000163815
6.22765e-05
0.000131435
5.87829e-05
9.82784e-05
5.2537e-05
6.63774e-05
4.66895e-05
3.66976e-05
4.15171e-05
1.20099e-05
3.29829e-05
1.36838e-05
0.000208814
2.51395e-05
0.000208592
5.77987e-05
0.00019504
7.58284e-05
0.000169891
8.39318e-05
0.000136662
8.57657e-05
9.864e-05
8.4712e-05
5.85935e-05
8.15637e-05
2.14394e-05
7.0137e-05
3.51232e-05
0.000205182
1.99579e-05
0.000208427
5.45535e-05
0.000202595
8.16606e-05
0.000185283
0.000101244
0.000156914
0.000114135
0.000119249
0.000122376
7.47508e-05
0.000126062
2.92112e-05
0.000115677
6.43344e-05
0.000202505
1.74528e-05
0.000205422
5.16362e-05
0.000203181
8.39019e-05
0.000191798
0.000112627
0.000169308
0.000136625
0.000135232
0.000156452
9.00197e-05
0.000171275
3.8081e-05
0.000167615
0.000102415
0.00020139
1.60624e-05
0.000204041
4.89852e-05
0.00020427
8.36738e-05
0.000198073
0.000118823
0.000182195
0.000152502
0.000154089
0.000184558
0.000111179
0.000214185
5.32132e-05
0.000225581
0.000155629
0.00020132
1.47423e-05
0.000204827
4.54782e-05
0.000208159
8.0342e-05
0.000207926
0.000119056
0.000200567
0.000159862
0.000182488
0.000202637
0.000147141
0.000249532
8.45078e-05
0.000288215
0.000240136
0.000201847
1.28958e-05
0.000207272
4.00524e-05
0.000214809
7.28056e-05
0.00022194
0.000111925
0.000225468
0.000156334
0.000221432
0.000206672
0.00019913
0.000271834
0.000135787
0.000351558
0.000375923
0.000202715
1.01806e-05
0.000210739
3.20284e-05
0.000223175
6.03702e-05
0.000238759
9.63399e-05
0.000256857
0.000138237
0.000279538
0.00018399
0.000315013
0.000236359
0.000379919
0.000286652
0.000350019
0.000405823
0.000203927
6.25379e-06
0.000214869
2.10857e-05
0.000231805
4.34348e-05
0.000254153
7.39915e-05
0.000282558
0.000109832
0.000319911
0.000146638
0.000370308
0.000185962
0.000449094
0.000207866
0.000268286
0.000530827
0.000205922
3.31984e-07
0.000220056
6.95171e-06
0.000240249
2.32414e-05
0.000266002
4.82384e-05
0.000297988
7.78461e-05
0.000338068
0.000106558
0.000388048
0.000135983
0.000451682
0.000144232
0.000176814
0.000543154
0.000209194
-8.86183e-06
0.000226673
-1.05278e-05
0.000248008
1.90647e-06
0.000273567
2.26795e-05
0.000304519
4.68947e-05
0.000342223
6.88532e-05
0.000388631
8.95757e-05
0.000439665
9.31969e-05
0.000104544
0.000511936
0.000214216
-2.30774e-05
0.000231286
-2.75982e-05
0.00024858
-1.53871e-05
0.000268901
2.35794e-06
0.000294709
2.10871e-05
0.000327134
3.64279e-05
0.000367627
4.90823e-05
0.000409796
5.10282e-05
5.26099e-05
0.00046173
0.000211349
-3.44268e-05
0.000215641
-3.18897e-05
0.000218879
-1.86255e-05
0.000227028
-5.79105e-06
0.000243394
4.72164e-06
0.000267799
1.20229e-05
0.00029975
1.71307e-05
0.000333187
1.75913e-05
1.67695e-05
0.000369027
0.000165573
0.000133684
0.000115058
0.000109267
0.000113989
0.000126012
0.000143142
0.000160734
0.000177503
0.000260308
0.000145515
4.36511e-05
0.000216657
0.000515801
0.000160541
6.47891e-05
0.000494663
0.000579378
0.000124317
5.69236e-05
0.000587243
0.000557991
7.82618e-05
3.54584e-05
0.000579456
0.000501854
3.81372e-05
1.33369e-05
0.000523976
0.000396454
1.07104e-05
4.04707e-07
0.000409386
0.000188214
0.000188618
0.000239118
-1.93676e-05
-3.09314e-06
0.000276758
-7.03296e-05
3.2689e-05
0.000306577
-0.000124697
9.48783e-05
0.000323596
-0.00017118
0.000154161
0.000328861
-0.000197121
0.000191856
0.000325794
-0.000198694
0.000201761
0.000318305
-0.000180226
0.000187715
0.00030999
-0.000152048
0.000160364
-0.000114808
0.000121957
0.000481205
-5.90997e-06
0.000476808
-6.59323e-05
0.000469984
-0.000117873
0.000455326
-0.000156522
0.000432996
-0.000174792
0.000406178
-0.000171876
0.000379063
-0.00015311
0.000354888
-0.000127873
-9.66664e-05
0.00058285
-1.51644e-06
0.000571142
-5.42248e-05
0.000550386
-9.7117e-05
0.000520348
-0.000126484
0.00048352
-0.000137964
0.000444142
-0.000132498
0.000406745
-0.000115713
0.000374151
-9.52789e-05
-7.24822e-05
0.000585068
-7.12824e-06
0.000575318
-4.44746e-05
0.000552435
-7.42341e-05
0.000518328
-9.23771e-05
0.000477186
-9.68219e-05
0.000434289
-8.96011e-05
0.000394459
-7.58833e-05
0.000360206
-6.10255e-05
-4.70624e-05
0.000528698
-1.18505e-05
0.000517706
-3.34825e-05
0.000492404
-4.89321e-05
0.000456203
-5.61761e-05
0.000414513
-5.5132e-05
0.000373098
-4.81857e-05
0.000336257
-3.90426e-05
0.000305731
-3.04988e-05
-2.45123e-05
0.000406571
-9.03537e-06
0.000389364
-1.62754e-05
0.00036065
-2.02177e-05
0.000325165
-2.06911e-05
0.000288478
-1.84447e-05
0.000255154
-1.4862e-05
0.000227493
-1.13817e-05
0.000205777
-8.78266e-06
-8.15339e-06
0.000179583
0.000163307
0.00014309
0.000122399
0.000103954
8.90919e-05
7.77102e-05
6.89275e-05
-5.18941e-06
5.18941e-06
-1.16337e-05
6.44432e-06
-1.43633e-05
2.72958e-06
-1.22224e-05
-2.14095e-06
-6.03348e-06
-6.18889e-06
2.39763e-06
-8.43111e-06
1.15052e-05
-9.10757e-06
2.02839e-05
-8.77871e-06
-8.46865e-06
-7.74865e-06
1.29381e-05
-1.55576e-05
1.42533e-05
-1.62636e-05
3.43551e-06
-8.3319e-06
-1.00726e-05
6.32553e-06
-2.08463e-05
2.44418e-05
-2.65474e-05
4.30251e-05
-2.76909e-05
5.98119e-05
-2.55655e-05
-2.25678e-05
-9.25573e-06
2.21938e-05
-1.76135e-05
2.2611e-05
-1.64265e-05
2.24852e-06
-4.01966e-06
-2.24794e-05
1.66669e-05
-4.15329e-05
4.14248e-05
-5.13053e-05
6.62726e-05
-5.25387e-05
8.83381e-05
-4.7631e-05
-4.03069e-05
-1.17939e-05
3.39876e-05
-2.15003e-05
3.23174e-05
-1.89467e-05
-3.05038e-07
-2.88479e-06
-3.85413e-05
2.28377e-05
-6.72554e-05
5.30081e-05
-8.14757e-05
8.2782e-05
-8.23126e-05
0.000108886
-7.37353e-05
-6.06144e-05
-1.40571e-05
4.80447e-05
-2.31025e-05
4.13629e-05
-1.72953e-05
-6.11227e-06
3.25698e-06
-5.90936e-05
3.37659e-05
-9.77643e-05
6.82259e-05
-0.000115936
0.000101367
-0.000115454
0.000129929
-0.000102297
-8.20622e-05
-1.17128e-05
5.97575e-05
-1.23804e-05
4.20305e-05
1.89234e-06
-2.0385e-05
2.84791e-05
-8.56803e-05
6.25538e-05
-0.000131839
9.83213e-05
-0.000151703
0.000131267
-0.0001484
0.000158989
-0.000130019
-0.000102124
4.20061e-06
5.55569e-05
2.5012e-05
2.12191e-05
5.43855e-05
-4.97585e-05
8.75128e-05
-0.000118808
0.000121169
-0.000165495
0.000152421
-0.000182956
0.000179011
-0.000174989
0.000200466
-0.000151474
-0.000116882
5.24638e-05
0.000106372
0.000151492
0.000186845
0.000213207
0.000232011
0.000244737
0.000253627
)
;

boundaryField
{
    inlet
    {
        type            calculated;
        value           uniform -0.0002;
    }
    outlet
    {
        type            calculated;
        value           nonuniform List<scalar> 
15
(
2.87526e-05
7.39111e-05
0.000106077
0.000129194
0.000151376
0.000179052
0.000215223
0.000258703
0.00030284
0.000336746
0.000349967
0.000334786
0.00028318
0.000189418
6.07741e-05
)
;
    }
    fixedWalls
    {
        type            calculated;
        value           uniform 0;
    }
    frontAndBack
    {
        type            empty;
    }
}


// ************************************************************************* //
