/*--------------------------------*- C++ -*----------------------------------*\
| =========                 |                                                 |
| \\      /  F ield         | OpenFOAM Extend Project: Open source CFD        |
|  \\    /   O peration     | Version:  1.6-ext                               |
|   \\  /    A nd           | Web:      www.extend-project.de                 |
|    \\/     M anipulation  |                                                 |
\*---------------------------------------------------------------------------*/
FoamFile
{
    version     2.0;
    format      ascii;
    class       volVectorField;
    location    "2";
    object      U;
}
// * * * * * * * * * * * * * * * * * * * * * * * * * * * * * * * * * * * * * //

dimensions      [0 1 -1 0 0 0 0];

internalField   nonuniform List<vector> 
284
(
(0.163783 0.0265786 0)
(0.141987 0.0267181 0)
(0.0993851 0.0190456 0)
(0.0676045 0.0119437 0)
(0.045278 0.00702496 0)
(0.0286183 0.00426094 0)
(0.0153468 0.00277853 0)
(0.00423379 0.00130753 0)
(-0.000414233 -0.00103022 0)
(0.200617 0.0432228 0)
(0.202386 0.0571763 0)
(0.18035 0.0525699 0)
(0.148562 0.0431273 0)
(0.114957 0.0339295 0)
(0.0821814 0.0272201 0)
(0.0508797 0.0225094 0)
(0.021526 0.0165491 0)
(0.00377679 0.00495908 0)
(0.203119 0.0287894 0)
(0.211285 0.0588022 0)
(0.205218 0.0709778 0)
(0.185158 0.0730475 0)
(0.155093 0.0699112 0)
(0.118813 0.0653595 0)
(0.078764 0.0602364 0)
(0.0368363 0.0496731 0)
(0.00795386 0.022934 0)
(0.201549 0.0219942 0)
(0.207832 0.0560866 0)
(0.208112 0.0796435 0)
(0.197021 0.0939745 0)
(0.17391 0.101165 0)
(0.140467 0.104154 0)
(0.0983444 0.10359 0)
(0.0490898 0.0918168 0)
(0.0117393 0.0484922 0)
(0.200591 0.0184645 0)
(0.204226 0.0529435 0)
(0.205998 0.083252 0)
(0.200208 0.107979 0)
(0.183639 0.126606 0)
(0.155509 0.140366 0)
(0.115316 0.14888 0)
(0.0621232 0.140697 0)
(0.0168085 0.081872 0)
(0.200257 0.0166816 0)
(0.202641 0.0503272 0)
(0.205149 0.0842804 0)
(0.203291 0.116817 0)
(0.193056 0.146072 0)
(0.171902 0.172066 0)
(0.136847 0.193845 0)
(0.0823576 0.196343 0)
(0.0264814 0.126012 0)
(0.200234 0.0154191 0)
(0.202743 0.047467 0)
(0.206923 0.0827375 0)
(0.209518 0.120343 0)
(0.206705 0.158247 0)
(0.195349 0.196107 0)
(0.171205 0.233322 0)
(0.119372 0.252153 0)
(0.0467157 0.195253 0)
(0.20035 0.0138971 0)
(0.203907 0.0431802 0)
(0.210915 0.07753 0)
(0.219152 0.117206 0)
(0.225454 0.160815 0)
(0.227087 0.209014 0)
(0.217791 0.269327 0)
(0.19227 0.335706 0)
(0.0598106 0.283605 0)
(0.20054 0.0116679 0)
(0.205697 0.036571 0)
(0.216275 0.0676272 0)
(0.23103 0.105857 0)
(0.248201 0.150003 0)
(0.270296 0.199728 0)
(0.295571 0.261942 0)
(0.352734 0.339373 0)
(0.396058 0.420064 0)
(0.200822 0.00842791 0)
(0.208019 0.0271843 0)
(0.222207 0.052886 0)
(0.242405 0.086553 0)
(0.2675 0.126038 0)
(0.301386 0.16831 0)
(0.341388 0.21574 0)
(0.406903 0.251216 0)
(0.487069 0.323539 0)
(0.201366 0.00386441 0)
(0.211408 0.0147991 0)
(0.228879 0.0340971 0)
(0.252232 0.061828 0)
(0.280801 0.0946392 0)
(0.317122 0.127378 0)
(0.360893 0.161549 0)
(0.41647 0.172063 0)
(0.494038 0.215341 0)
(0.202405 -0.00335401 0)
(0.21649 -0.00113957 0)
(0.236295 0.0125086 0)
(0.259884 0.034975 0)
(0.287968 0.0616947 0)
(0.322042 0.0867834 0)
(0.364201 0.111506 0)
(0.411473 0.115736 0)
(0.472882 0.133194 0)
(0.204174 -0.0144899 0)
(0.222119 -0.0194478 0)
(0.239479 -0.00850836 0)
(0.257819 0.0104809 0)
(0.280674 0.0318801 0)
(0.309421 0.0506463 0)
(0.346423 0.067215 0)
(0.387183 0.0700827 0)
(0.434396 0.0738638 0)
(0.201724 -0.0356074 0)
(0.214462 -0.0376466 0)
(0.217061 -0.023188 0)
(0.221475 -0.00620018 0)
(0.233616 0.00923288 0)
(0.253973 0.0209224 0)
(0.282912 0.0294984 0)
(0.315646 0.0306025 0)
(0.350984 0.0296716 0)
(0.164617 -0.0249977 0)
(0.150714 -0.0225304 0)
(0.122953 -0.0127417 0)
(0.109844 -0.00469697 0)
(0.110031 0.000952391 0)
(0.11893 0.00440999 0)
(0.134117 0.0063312 0)
(0.151754 0.00605522 0)
(0.169548 0.00495806 0)
(0.35997 0.160294 0)
(0.203515 0.037 0)
(0.542878 0.160841 0)
(0.508509 0.0598751 0)
(0.569986 0.146153 0)
(0.591971 0.0700845 0)
(0.538281 0.0994209 0)
(0.574913 0.0472267 0)
(0.483413 0.0546006 0)
(0.516889 0.0222708 0)
(0.384398 0.0194267 0)
(0.405998 0.0032127 0)
(0.184159 0.00161467 0)
(0.190204 -0.00265613 0)
(0.219634 -0.0233417 0)
(0.255673 -0.0651693 0)
(0.295539 -0.119973 0)
(0.321056 -0.170574 0)
(0.330564 -0.201125 0)
(0.329242 -0.206103 0)
(0.321604 -0.189142 0)
(0.314298 -0.160621 0)
(0.302167 -0.121617 0)
(0.486801 -0.0121232 0)
(0.478873 -0.0702363 0)
(0.476642 -0.123996 0)
(0.46735 -0.16676 0)
(0.447244 -0.189176 0)
(0.420437 -0.1887 0)
(0.391003 -0.169943 0)
(0.366992 -0.142917 0)
(0.338059 -0.107945 0)
(0.589616 0.00189675 0)
(0.579892 -0.0563767 0)
(0.564543 -0.105775 0)
(0.539392 -0.141158 0)
(0.504228 -0.156909 0)
(0.464188 -0.15317 0)
(0.423427 -0.135514 0)
(0.390619 -0.112662 0)
(0.352495 -0.0854266 0)
(0.587447 -0.00405088 0)
(0.584466 -0.0489536 0)
(0.568171 -0.0856291 0)
(0.539019 -0.109678 0)
(0.499578 -0.117746 0)
(0.455845 -0.111304 0)
(0.412413 -0.0958548 0)
(0.377497 -0.0780153 0)
(0.3379 -0.0595843 0)
(0.530925 -0.0109419 0)
(0.527674 -0.0403254 0)
(0.50904 -0.0626938 0)
(0.47714 -0.0749211 0)
(0.436404 -0.0759166 0)
(0.393386 -0.0680944 0)
(0.352852 -0.0561578 0)
(0.320791 -0.0442152 0)
(0.286338 -0.034536 0)
(0.4117 -0.0132602 0)
(0.401564 -0.0264489 0)
(0.377769 -0.0344673 0)
(0.344291 -0.0364989 0)
(0.306759 -0.0333873 0)
(0.270839 -0.0274068 0)
(0.23985 -0.0211591 0)
(0.216106 -0.0161444 0)
(0.192149 -0.0139903 0)
(0.18591 -0.00630938 0)
(0.172805 -0.00833328 0)
(0.153883 -0.0085762 0)
(0.13274 -0.00747444 0)
(0.112693 -0.00574847 0)
(0.0958715 -0.00406381 0)
(0.0828201 -0.00287118 0)
(0.0730685 -0.00231159 0)
(0.0626361 -0.00281625 0)
(-0.00237759 0.00231917 0)
(-0.00867954 0.00318225 0)
(-0.0140241 0.00186969 0)
(-0.014226 -1.34971e-05 0)
(-0.00973345 -0.0016691 0)
(-0.00202716 -0.00262057 0)
(0.00696262 -0.00301931 0)
(0.0156758 -0.00311985 0)
(0.0269029 -0.00335476 0)
(-0.00378161 0.00865987 0)
(-0.0125586 0.0102906 0)
(-0.0179794 0.00380817 0)
(-0.0141551 -0.00449369 0)
(-0.00208413 -0.0112996 0)
(0.0151737 -0.0150117 0)
(0.0339489 -0.0160122 0)
(0.0515103 -0.0151564 0)
(0.0711917 -0.0140882 0)
(-0.00466861 0.0172166 0)
(-0.0148304 0.0182824 0)
(-0.0197896 0.00316725 0)
(-0.0126987 -0.0151715 0)
(0.00496287 -0.0296683 0)
(0.0289066 -0.0373119 0)
(0.0542623 -0.0386331 0)
(0.0775377 -0.0353668 0)
(0.102808 -0.0305661 0)
(-0.00614948 0.0277169 0)
(-0.0186326 0.0273941 0)
(-0.0236632 0.00145002 0)
(-0.0138981 -0.0293156 0)
(0.00843482 -0.0529645 0)
(0.0378961 -0.0650182 0)
(0.0685189 -0.06627 0)
(0.0961941 -0.0597831 0)
(0.125539 -0.0499019 0)
(-0.00781064 0.0409224 0)
(-0.0215776 0.0376004 0)
(-0.0241534 -0.0018771 0)
(-0.0100247 -0.0476438 0)
(0.0172479 -0.0815411 0)
(0.0512546 -0.0979665 0)
(0.0856567 -0.0983625 0)
(0.116193 -0.0876473 0)
(0.147506 -0.0712279 0)
(-0.00758979 0.0542327 0)
(-0.0165606 0.043639 0)
(-0.00901339 -0.0112403 0)
(0.0131997 -0.0716782 0)
(0.0454022 -0.11509 0)
(0.0812668 -0.134604 0)
(0.115844 -0.132838 0)
(0.145829 -0.116948 0)
(0.175214 -0.0928471 0)
(0.000215153 0.0697226 0)
(0.0090565 0.0420262 0)
(0.0386905 -0.0304102 0)
(0.0719029 -0.101889 0)
(0.106086 -0.150668 0)
(0.138422 -0.170218 0)
(0.16676 -0.164611 0)
(0.190407 -0.143238 0)
(0.211806 -0.111464 0)
(0.0378088 0.0309722 0)
(0.074553 -0.00322326 0)
(0.131303 -0.0734442 0)
(0.173835 -0.140211 0)
(0.203888 -0.183528 0)
(0.224856 -0.197428 0)
(0.23898 -0.186089 0)
(0.249582 -0.15998 0)
(0.256271 -0.12246 0)
)
;

boundaryField
{
    inlet
    {
        type            fixedValue;
        value           uniform (0.2 0 0);
    }
    outlet
    {
        type            zeroGradient;
    }
    fixedWalls
    {
        type            fixedValue;
        value           uniform (0 0 0);
    }
    frontAndBack
    {
        type            empty;
    }
}


// ************************************************************************* //
