/*--------------------------------*- C++ -*----------------------------------*\
| =========                 |                                                 |
| \\      /  F ield         | OpenFOAM Extend Project: Open source CFD        |
|  \\    /   O peration     | Version:  1.6-ext                               |
|   \\  /    A nd           | Web:      www.extend-project.de                 |
|    \\/     M anipulation  |                                                 |
\*---------------------------------------------------------------------------*/
FoamFile
{
    version     2.0;
    format      ascii;
    class       volScalarField;
    location    "1.2";
    object      p;
}
// * * * * * * * * * * * * * * * * * * * * * * * * * * * * * * * * * * * * * //

dimensions      [0 2 -2 0 0 0 0];

internalField   nonuniform List<scalar> 
284
(
0.244045
0.2126
0.201147
0.19617
0.194125
0.193812
0.194367
0.195423
0.197817
0.214843
0.205899
0.200448
0.197833
0.196794
0.196774
0.19729
0.198083
0.200652
0.203185
0.199668
0.196984
0.195676
0.195424
0.195893
0.19668
0.197546
0.200611
0.194044
0.192859
0.19169
0.191263
0.191529
0.192255
0.193111
0.19388
0.197287
0.186637
0.186213
0.185658
0.185435
0.185564
0.185905
0.186157
0.186087
0.189175
0.180017
0.179794
0.179281
0.178674
0.17797
0.177072
0.175631
0.173229
0.174024
0.173839
0.173602
0.172796
0.171381
0.169219
0.166109
0.161351
0.153509
0.147064
0.168142
0.167804
0.166513
0.16401
0.159928
0.153829
0.144343
0.130059
0.0861089
0.163179
0.1627
0.160828
0.157106
0.150715
0.140357
0.120438
0.0831567
-0.00929383
0.159302
0.158634
0.156165
0.151432
0.143573
0.131417
0.111096
0.0801532
0.0288113
0.156928
0.155873
0.152704
0.147213
0.138865
0.126938
0.109785
0.085865
0.0543525
0.156456
0.154568
0.150308
0.144053
0.135581
0.124311
0.109537
0.0897542
0.0666878
0.159431
0.155003
0.148779
0.141527
0.132968
0.122398
0.10935
0.0925969
0.0739819
0.165985
0.156216
0.147438
0.139391
0.131007
0.121194
0.109382
0.0946677
0.0782838
0.194454
0.162747
0.148719
0.139824
0.131635
0.122473
0.111323
0.0973522
0.0814677
-0.141237
-0.116173
-0.0397723
-0.0645458
0.00650499
-0.0213207
0.0356031
0.0125038
0.0521726
0.0328494
0.0603759
0.0432703
0.0640873
0.0465081
-0.105173
-0.085725
-0.0589901
-0.0332253
-0.0146256
-0.00416779
0.000477163
0.001722
0.000659608
-0.0707597
-0.0605769
-0.0409955
-0.0220145
-0.00872232
-0.00153325
0.00137584
0.00181608
0.000322683
-0.0311192
-0.0289955
-0.0200848
-0.0102581
-0.00311337
0.000667614
0.00190439
0.00167018
-6.10244e-06
-0.000226417
-0.00485859
-0.00414757
-0.00141681
0.000900771
0.00197233
0.00191908
0.00125658
-0.000321863
0.0188909
0.0103755
0.00597068
0.00398338
0.00298622
0.00221361
0.00139482
0.000617248
-0.0005881
0.0289677
0.0181829
0.0108154
0.00616599
0.00335042
0.00164905
0.00057976
-6.95618e-05
-0.000738404
0.0308782
0.018455
0.00966022
0.00414286
0.00105888
-0.000482368
-0.00114863
-0.00130797
-0.00113186
-0.0179019
-0.0163388
-0.0127922
-0.00844762
-0.00467217
-0.0017186
0.000199956
0.00113574
0.00125394
-0.0194633
-0.0181509
-0.0146073
-0.0103832
-0.0063648
-0.00311577
-0.000889193
0.000371207
0.000988633
-0.0228927
-0.0213039
-0.0171617
-0.0121593
-0.00743252
-0.00367132
-0.00113101
0.000290737
0.00105756
-0.0286512
-0.0266772
-0.021447
-0.0148843
-0.00887419
-0.0042448
-0.00123699
0.000359137
0.00114613
-0.0380935
-0.0351708
-0.0280704
-0.0189113
-0.01083
-0.00487137
-0.00121681
0.000563134
0.00122854
-0.0535814
-0.0481674
-0.0377263
-0.0245445
-0.0133178
-0.00550278
-0.00105625
0.000879478
0.00126941
-0.0732117
-0.0633442
-0.0492542
-0.0310225
-0.0158767
-0.00596168
-0.000767879
0.00121836
0.00120056
-0.115128
-0.0851823
-0.0606196
-0.0360783
-0.0171436
-0.00576341
-0.000302854
0.00149965
0.00098054
)
;

boundaryField
{
    inlet
    {
        type            zeroGradient;
    }
    outlet
    {
        type            totalPressure;
        rho             none;
        psi             none;
        gamma           1;
        p0              uniform 0;
        value           uniform 0;
    }
    fixedWalls
    {
        type            zeroGradient;
    }
    frontAndBack
    {
        type            empty;
    }
}


// ************************************************************************* //
