/*--------------------------------*- C++ -*----------------------------------*\
| =========                 |                                                 |
| \\      /  F ield         | OpenFOAM Extend Project: Open source CFD        |
|  \\    /   O peration     | Version:  1.6-ext                               |
|   \\  /    A nd           | Web:      www.extend-project.de                 |
|    \\/     M anipulation  |                                                 |
\*---------------------------------------------------------------------------*/
FoamFile
{
    version     2.0;
    format      ascii;
    class       surfaceScalarField;
    location    "1.2";
    object      phi;
}
// * * * * * * * * * * * * * * * * * * * * * * * * * * * * * * * * * * * * * //

dimensions      [0 3 -1 0 0 0 0];

internalField   nonuniform List<scalar> 
525
(
0.000161165
3.88354e-05
0.000118581
4.25839e-05
8.49811e-05
3.35997e-05
6.0254e-05
2.4727e-05
4.18544e-05
1.83997e-05
2.68168e-05
1.50376e-05
1.34918e-05
1.3325e-05
3.01452e-06
1.04773e-05
3.01452e-06
0.000205278
3.35577e-05
0.000191501
5.6361e-05
0.000165375
5.97251e-05
0.000134856
5.52465e-05
0.000103567
4.96879e-05
7.23866e-05
4.62184e-05
4.16088e-05
4.41028e-05
1.4271e-05
3.78151e-05
1.72855e-05
0.000208729
2.48289e-05
0.000207307
5.77825e-05
0.000192278
7.47541e-05
0.000166804
8.07205e-05
0.000134742
8.17498e-05
9.84534e-05
8.25074e-05
5.94764e-05
8.30797e-05
2.21464e-05
7.51451e-05
3.94319e-05
0.000205
1.98285e-05
0.000206115
5.66682e-05
0.000196827
8.40419e-05
0.00017693
0.000100618
0.000148336
0.000110343
0.000112644
0.000118199
7.10206e-05
0.000124704
2.79156e-05
0.00011825
6.73474e-05
0.000202372
1.7457e-05
0.000203123
5.59172e-05
0.000196839
9.03251e-05
0.000181688
0.000115769
0.000157769
0.000134262
0.000125181
0.000150788
8.35001e-05
0.000166384
3.55097e-05
0.00016624
0.000102857
0.000201368
1.60891e-05
0.000202388
5.48975e-05
0.00019903
9.36827e-05
0.000188891
0.000125907
0.000170802
0.000152352
0.000143336
0.000178254
0.000103626
0.000206094
5.00708e-05
0.000219796
0.000152928
0.000201427
1.46623e-05
0.000204047
5.2277e-05
0.000204758
9.29722e-05
0.000201018
0.000129647
0.000191027
0.000162343
0.000172683
0.000196598
0.000139735
0.000239041
8.13548e-05
0.000278176
0.000234283
0.000202062
1.26007e-05
0.000207354
4.69846e-05
0.000213399
8.69274e-05
0.000217768
0.000125278
0.000218494
0.000161618
0.000213218
0.000201874
0.000192082
0.000260178
0.000133463
0.000336794
0.000367746
0.000202989
9.61122e-06
0.000211516
3.84579e-05
0.000223577
7.48661e-05
0.000237356
0.000111499
0.000252931
0.000146042
0.000273408
0.000181397
0.000308846
0.00022474
0.000378955
0.000266686
0.000332921
0.00041378
0.000204172
5.43917e-06
0.000216002
2.66276e-05
0.000233496
5.73724e-05
0.000255074
8.99212e-05
0.000281455
0.000119661
0.000316021
0.000146831
0.000364154
0.000176607
0.000443328
0.000187512
0.000245972
0.000530277
0.000206012
-5.73076e-07
0.000221061
1.15787e-05
0.000242456
3.5978e-05
0.000268519
6.38581e-05
0.000299372
8.88081e-05
0.000336998
0.000109205
0.000384252
0.000129352
0.000444369
0.000127395
0.000155541
0.0005348
0.000209111
-9.68373e-06
0.00022728
-6.59065e-06
0.000250416
1.28421e-05
0.000277569
3.67053e-05
0.000308819
5.75576e-05
0.000345215
7.2809e-05
0.000389016
8.55509e-05
0.000435209
8.12028e-05
8.90679e-05
0.000501681
0.000213857
-2.35409e-05
0.000231954
-2.46872e-05
0.000252289
-7.4937e-06
0.000276187
1.28074e-05
0.000304491
2.92542e-05
0.000337337
3.99627e-05
0.000375822
4.70661e-05
0.000413002
4.40232e-05
4.3643e-05
0.000458426
0.000211156
-3.46973e-05
0.000217066
-3.05967e-05
0.000224707
-1.51346e-05
0.000238695
-1.18116e-06
0.000259793
8.1571e-06
0.00028624
1.35148e-05
0.000317013
1.62933e-05
0.000346203
1.48335e-05
1.33925e-05
0.000376453
0.000165303
0.000134706
0.000119571
0.00011839
0.000126547
0.000140062
0.000156356
0.000171189
0.000184582
0.000279805
0.000133976
3.00542e-05
0.000249751
0.000524344
0.000139909
4.18237e-05
0.000512574
0.000570332
0.000104377
3.58183e-05
0.000576338
0.000542472
6.35859e-05
2.00076e-05
0.000558283
0.000492371
2.96417e-05
4.81225e-06
0.000507566
0.00039852
7.57493e-06
-2.35373e-06
0.000405686
0.000192157
0.000189803
0.000278101
-6.5535e-05
3.71843e-05
0.000305935
-0.000148033
0.000120199
0.000315864
-0.000200724
0.000190795
0.000311015
-0.000212237
0.000217086
0.000299403
-0.000192367
0.00020398
0.000287174
-0.000158437
0.000170666
0.000277307
-0.000122749
0.000132616
0.000270723
-9.13086e-05
9.78922e-05
-6.20699e-05
6.58756e-05
0.000495666
-4.86269e-05
0.000472204
-0.00012457
0.000438254
-0.000166774
0.000399369
-0.000173353
0.000363361
-0.000156359
0.000334408
-0.000129484
0.000313117
-0.000101458
0.000298555
-7.67462e-05
-5.3171e-05
0.000561505
-3.37945e-05
0.000527786
-9.08514e-05
0.000482954
-0.000121941
0.000436461
-0.00012686
0.000394971
-0.000114869
0.000361298
-9.58103e-05
0.000335651
-7.5811e-05
0.000317052
-5.81475e-05
-4.11964e-05
0.000550791
-2.63031e-05
0.000523024
-6.30844e-05
0.000483343
-8.22601e-05
0.000440742
-8.42591e-05
0.000401355
-7.54823e-05
0.000368092
-6.25471e-05
0.00034174
-4.94591e-05
0.000321771
-3.81791e-05
-2.78567e-05
0.000502052
-2.07894e-05
0.000478915
-3.9947e-05
0.00044491
-4.82553e-05
0.000407753
-4.7102e-05
0.00037293
-4.06593e-05
0.000343125
-3.27423e-05
0.000319144
-2.54773e-05
0.000300593
-1.96288e-05
-1.50968e-05
0.000396398
-1.15017e-05
0.000373608
-1.71562e-05
0.000343716
-1.83634e-05
0.000312971
-1.63579e-05
0.000285375
-1.30632e-05
0.00026251
-9.87703e-06
0.000244442
-7.40913e-06
0.000230551
-5.73814e-06
-5.14433e-06
0.000178301
0.000161145
0.000142782
0.000126424
0.00011336
0.000103483
9.60743e-05
9.03361e-05
-3.83905e-06
3.83905e-06
-3.98457e-06
1.4552e-07
7.65975e-07
-4.75055e-06
8.5121e-06
-7.74612e-06
1.7344e-05
-8.8319e-06
2.58471e-05
-8.5031e-06
3.32045e-05
-7.35743e-06
3.91308e-05
-5.9263e-06
-4.982e-06
-2.67861e-06
6.51765e-06
1.48753e-06
-4.02061e-06
1.38736e-05
-1.71366e-05
3.11433e-05
-2.50158e-05
4.97188e-05
-2.74075e-05
6.71438e-05
-2.5928e-05
8.19915e-05
-2.22051e-05
9.35646e-05
-1.74994e-05
-1.33162e-05
-3.43877e-06
9.95642e-06
2.37548e-06
-9.83486e-06
1.91077e-05
-3.38688e-05
4.21241e-05
-4.80322e-05
6.65112e-05
-5.17946e-05
8.90039e-05
-4.84208e-05
0.000107892
-4.10928e-05
0.000122449
-3.20567e-05
-2.34462e-05
-7.00771e-06
1.69641e-05
-1.75136e-06
-1.50912e-05
1.80401e-05
-5.36603e-05
4.61379e-05
-7.61299e-05
7.55214e-05
-8.11782e-05
0.000101894
-7.47931e-05
0.000123428
-6.26271e-05
0.000139698
-4.83267e-05
-3.44861e-05
-1.16288e-05
2.8593e-05
-6.38977e-06
-2.03303e-05
1.79076e-05
-7.79577e-05
5.18913e-05
-0.000110114
8.63654e-05
-0.000115652
0.000116068
-0.000104496
0.000139341
-8.58997e-05
0.000156402
-6.53882e-05
-4.56866e-05
-1.25184e-05
4.11114e-05
-3.11765e-07
-3.25369e-05
3.11616e-05
-0.000109431
7.03961e-05
-0.000149348
0.000107812
-0.000153069
0.000138434
-0.000135117
0.0001613
-0.000108766
0.00017751
-8.1598e-05
-5.59399e-05
8.97433e-06
3.2137e-05
3.81173e-05
-6.16798e-05
7.72663e-05
-0.00014858
0.000116213
-0.000188294
0.000149432
-0.000186288
0.000174635
-0.000160319
0.000192393
-0.000126525
0.000204614
-9.38186e-05
-6.34143e-05
6.93213e-05
0.000127841
0.000170055
0.000198847
0.000216538
0.000226885
0.000232977
0.00023705
)
;

boundaryField
{
    inlet
    {
        type            calculated;
        value           uniform -0.0002;
    }
    outlet
    {
        type            calculated;
        value           nonuniform List<scalar> 
15
(
4.41128e-05
0.000101899
0.000132579
0.000150738
0.000167603
0.000187763
0.000212088
0.000239511
0.000266917
0.000289656
0.000305078
0.000308432
0.000287833
0.000220599
8.51918e-05
)
;
    }
    fixedWalls
    {
        type            calculated;
        value           uniform 0;
    }
    frontAndBack
    {
        type            empty;
    }
}


// ************************************************************************* //
