/*--------------------------------*- C++ -*----------------------------------*\
| =========                 |                                                 |
| \\      /  F ield         | OpenFOAM Extend Project: Open source CFD        |
|  \\    /   O peration     | Version:  1.6-ext                               |
|   \\  /    A nd           | Web:      www.extend-project.de                 |
|    \\/     M anipulation  |                                                 |
\*---------------------------------------------------------------------------*/
FoamFile
{
    version     2.0;
    format      ascii;
    class       volVectorField;
    location    "1.2";
    object      U;
}
// * * * * * * * * * * * * * * * * * * * * * * * * * * * * * * * * * * * * * //

dimensions      [0 1 -1 0 0 0 0];

internalField   nonuniform List<vector> 
284
(
(0.163762 0.0264638 0)
(0.142483 0.0262355 0)
(0.101154 0.0182869 0)
(0.0711187 0.0112742 0)
(0.0502858 0.00680787 0)
(0.0340568 0.00460934 0)
(0.0198663 0.0035855 0)
(0.0066063 0.00228381 0)
(0.00010228 -0.000550481 0)
(0.200587 0.0428619 0)
(0.202684 0.0558658 0)
(0.181226 0.050129 0)
(0.150833 0.0402725 0)
(0.119387 0.0320919 0)
(0.0882255 0.0274199 0)
(0.0568408 0.0248728 0)
(0.0252324 0.0202187 0)
(0.00479257 0.00743612 0)
(0.203101 0.0283691 0)
(0.210991 0.0578321 0)
(0.203273 0.0685256 0)
(0.181706 0.0690052 0)
(0.152124 0.0660987 0)
(0.117735 0.0640594 0)
(0.0794514 0.0626788 0)
(0.0379131 0.0551352 0)
(0.0083531 0.0273136 0)
(0.201523 0.0217751 0)
(0.207244 0.0570282 0)
(0.204427 0.0799799 0)
(0.189356 0.0916117 0)
(0.164589 0.0968973 0)
(0.132371 0.100843 0)
(0.093164 0.103853 0)
(0.0468933 0.0960155 0)
(0.0112802 0.0525074 0)
(0.200546 0.018424 0)
(0.203721 0.0562237 0)
(0.202233 0.0876737 0)
(0.191498 0.109106 0)
(0.171866 0.123319 0)
(0.14393 0.135305 0)
(0.106692 0.145774 0)
(0.0578367 0.141417 0)
(0.0158024 0.0837204 0)
(0.200186 0.0167208 0)
(0.202414 0.0555797 0)
(0.202337 0.0926819 0)
(0.195791 0.121974 0)
(0.181943 0.144693 0)
(0.159991 0.165916 0)
(0.127134 0.187303 0)
(0.0771452 0.192881 0)
(0.0252096 0.125019 0)
(0.200137 0.0154145 0)
(0.202851 0.0539954 0)
(0.205456 0.0943023 0)
(0.204257 0.129302 0)
(0.197867 0.159319 0)
(0.184933 0.189707 0)
(0.161872 0.223764 0)
(0.114234 0.243583 0)
(0.0453894 0.190586 0)
(0.200226 0.0137279 0)
(0.204318 0.0502089 0)
(0.210821 0.0911706 0)
(0.216411 0.129356 0)
(0.219478 0.164664 0)
(0.218942 0.203384 0)
(0.208447 0.258179 0)
(0.187892 0.324821 0)
(0.0596573 0.278983 0)
(0.200382 0.0112441 0)
(0.206312 0.0433796 0)
(0.217355 0.0821879 0)
(0.23072 0.120342 0)
(0.245256 0.156614 0)
(0.265418 0.195806 0)
(0.287403 0.249872 0)
(0.349187 0.321173 0)
(0.397288 0.408528 0)
(0.200621 0.0077313 0)
(0.208648 0.0332399 0)
(0.224002 0.0673045 0)
(0.243961 0.102352 0)
(0.267347 0.135014 0)
(0.299212 0.166998 0)
(0.335228 0.204844 0)
(0.401084 0.229123 0)
(0.482778 0.300425 0)
(0.201108 0.00294241 0)
(0.211786 0.0198555 0)
(0.230738 0.0475798 0)
(0.254819 0.0778971 0)
(0.282931 0.10531 0)
(0.317512 0.12894 0)
(0.358196 0.153363 0)
(0.410747 0.152671 0)
(0.485938 0.191052 0)
(0.202096 -0.00428188 0)
(0.216466 0.00304115 0)
(0.237904 0.024566 0)
(0.263271 0.0502807 0)
(0.292421 0.0730897 0)
(0.325917 0.0906069 0)
(0.366163 0.106345 0)
(0.409685 0.10129 0)
(0.465574 0.114516 0)
(0.203775 -0.0151095 0)
(0.221775 -0.0157932 0)
(0.241516 0.00164259 0)
(0.263489 0.023522 0)
(0.289592 0.0422101 0)
(0.319814 0.0551709 0)
(0.356118 0.0646708 0)
(0.393367 0.0609195 0)
(0.434402 0.0619223 0)
(0.20135 -0.0359666 0)
(0.214358 -0.0355038 0)
(0.220341 -0.0174187 0)
(0.230402 0.00109356 0)
(0.248095 0.0150882 0)
(0.271972 0.0235293 0)
(0.301351 0.0282385 0)
(0.331195 0.0260914 0)
(0.36127 0.0240652 0)
(0.164288 -0.0251389 0)
(0.150487 -0.0220658 0)
(0.125375 -0.011434 0)
(0.116795 -0.00308063 0)
(0.121242 0.00221495 0)
(0.132658 0.00482063 0)
(0.148091 0.00578379 0)
(0.16376 0.00483445 0)
(0.178348 0.00363062 0)
(0.375162 0.155507 0)
(0.226871 0.0305919 0)
(0.546805 0.14195 0)
(0.518675 0.0383124 0)
(0.56134 0.12411 0)
(0.581601 0.0456912 0)
(0.525444 0.0813861 0)
(0.557025 0.0278556 0)
(0.476986 0.0431578 0)
(0.504564 0.0106375 0)
(0.389161 0.0142752 0)
(0.405553 -0.00170327 0)
(0.189666 0.000480123 0)
(0.19279 -0.00364411 0)
(0.260352 -0.0682554 0)
(0.300175 -0.149029 0)
(0.319212 -0.206668 0)
(0.316391 -0.223222 0)
(0.304386 -0.205196 0)
(0.291546 -0.16996 0)
(0.280549 -0.131539 0)
(0.273064 -0.0972312 0)
(0.266681 -0.0655846 0)
(0.507266 -0.055777 0)
(0.492648 -0.137239 0)
(0.460853 -0.186317 0)
(0.418834 -0.195728 0)
(0.378578 -0.176849 0)
(0.345955 -0.14594 0)
(0.32122 -0.113717 0)
(0.304525 -0.0853809 0)
(0.290337 -0.0585991 0)
(0.577041 -0.0363652 0)
(0.552289 -0.104822 0)
(0.509294 -0.142415 0)
(0.459359 -0.148805 0)
(0.413278 -0.134969 0)
(0.375557 -0.112622 0)
(0.346054 -0.0890254 0)
(0.325221 -0.068048 0)
(0.306374 -0.047731 0)
(0.561971 -0.0298137 0)
(0.543193 -0.0763095 0)
(0.50657 -0.100944 0)
(0.462356 -0.1044 0)
(0.419572 -0.0943556 0)
(0.382825 -0.0787567 0)
(0.352874 -0.0625239 0)
(0.330897 -0.0482612 0)
(0.310109 -0.0346893 0)
(0.510616 -0.024368 0)
(0.495345 -0.0512706 0)
(0.464551 -0.0642357 0)
(0.426774 -0.0643742 0)
(0.389413 -0.0568101 0)
(0.35664 -0.0465614 0)
(0.329524 -0.0366085 0)
(0.309204 -0.0282582 0)
(0.289652 -0.0210928 0)
(0.405034 -0.0177985 0)
(0.388088 -0.0283927 0)
(0.360134 -0.0315623 0)
(0.328354 -0.028977 0)
(0.29835 -0.0237404 0)
(0.272869 -0.0183077 0)
(0.252355 -0.0138547 0)
(0.236944 -0.0106115 0)
(0.222294 -0.00884159 0)
(0.18569 -0.00686267 0)
(0.17065 -0.00804395 0)
(0.152119 -0.00731852 0)
(0.134248 -0.00562695 0)
(0.119354 -0.00388976 0)
(0.107904 -0.00257836 0)
(0.0993546 -0.00179034 0)
(0.0929156 -0.00145623 0)
(0.0865011 -0.00174719 0)
(-0.00255988 0.00225113 0)
(-0.00511333 0.0010677 0)
(-0.00249228 -0.000958193 0)
(0.0042754 -0.0022196 0)
(0.0129745 -0.00275103 0)
(0.0218115 -0.00272784 0)
(0.0297857 -0.00239681 0)
(0.0364831 -0.00200647 0)
(0.042857 -0.0019222 0)
(-0.00265253 0.00543707 0)
(-0.00293332 -0.00081053 0)
(0.00627476 -0.00902073 0)
(0.0220907 -0.0140348 0)
(0.04062 -0.0157524 0)
(0.0589424 -0.0150797 0)
(0.0751972 -0.0130058 0)
(0.0884518 -0.0103721 0)
(0.100182 -0.00833152 0)
(-0.00345277 0.00786683 0)
(-0.0036685 -0.0067982 0)
(0.00888638 -0.0245563 0)
(0.0301126 -0.0352117 0)
(0.0546314 -0.0383298 0)
(0.0784809 -0.0361398 0)
(0.0993178 -0.030881 0)
(0.116004 -0.0242344 0)
(0.130627 -0.0180537 0)
(-0.00573801 0.0126069 0)
(-0.00873942 -0.0123763 0)
(0.00552584 -0.0425682 0)
(0.0315024 -0.0605794 0)
(0.0613523 -0.0652068 0)
(0.0896948 -0.0607204 0)
(0.113761 -0.0513228 0)
(0.132512 -0.0398791 0)
(0.14865 -0.0288252 0)
(-0.00892285 0.0223812 0)
(-0.0148403 -0.0169119 0)
(0.002763 -0.0641725 0)
(0.0344195 -0.0914796 0)
(0.0699989 -0.0972098 0)
(0.102534 -0.0889453 0)
(0.129039 -0.07395 0)
(0.14892 -0.0567465 0)
(0.165462 -0.0401121 0)
(-0.0108187 0.0336379 0)
(-0.0137857 -0.0250587 0)
(0.0132787 -0.0926232 0)
(0.0511221 -0.129336 0)
(0.0903796 -0.134445 0)
(0.124627 -0.120157 0)
(0.151268 -0.0977972 0)
(0.170431 -0.0739227 0)
(0.185697 -0.0511871 0)
(0.00157514 0.0537577 0)
(0.0178217 -0.0376767 0)
(0.0594749 -0.128184 0)
(0.0989935 -0.171331 0)
(0.134366 -0.172775 0)
(0.163212 -0.150388 0)
(0.184486 -0.119696 0)
(0.19919 -0.0891597 0)
(0.210318 -0.0606379 0)
(0.0515158 0.000483233 0)
(0.0969685 -0.094135 0)
(0.154897 -0.176332 0)
(0.188911 -0.210059 0)
(0.208904 -0.201866 0)
(0.221789 -0.170818 0)
(0.229776 -0.133397 0)
(0.234949 -0.0984314 0)
(0.238355 -0.0662232 0)
)
;

boundaryField
{
    inlet
    {
        type            fixedValue;
        value           uniform (0.2 0 0);
    }
    outlet
    {
        type            zeroGradient;
    }
    fixedWalls
    {
        type            fixedValue;
        value           uniform (0 0 0);
    }
    frontAndBack
    {
        type            empty;
    }
}


// ************************************************************************* //
