/*--------------------------------*- C++ -*----------------------------------*\
| =========                 |                                                 |
| \\      /  F ield         | OpenFOAM Extend Project: Open source CFD        |
|  \\    /   O peration     | Version:  1.6-ext                               |
|   \\  /    A nd           | Web:      www.extend-project.de                 |
|    \\/     M anipulation  |                                                 |
\*---------------------------------------------------------------------------*/
FoamFile
{
    version     2.0;
    format      ascii;
    class       volScalarField;
    location    "0.9";
    object      p;
}
// * * * * * * * * * * * * * * * * * * * * * * * * * * * * * * * * * * * * * //

dimensions      [0 2 -2 0 0 0 0];

internalField   nonuniform List<scalar> 
70
(
-0.1191
-0.0617431
-0.0167042
0.0166681
0.0359075
0.0453163
0.0486936
-0.105388
-0.0769413
-0.0445383
-0.0197497
-0.00557272
0.000896656
0.00300809
0.00277738
0.000989614
-0.0657634
-0.0493658
-0.0270338
-0.0103024
-0.00118394
0.00270158
0.00360084
0.0028316
0.000758906
-0.0246372
-0.0196168
-0.00984003
-0.00179352
0.0026219
0.00417325
0.00395365
0.00272849
0.000528807
0.00500379
0.00165462
0.0027485
0.00458145
0.00538953
0.00504795
0.00392495
0.00240351
0.000279349
0.0223423
0.014563
0.0105691
0.00836646
0.00669184
0.00507493
0.00343312
0.00185678
3.1538e-05
0.0315031
0.0212601
0.0143469
0.00981084
0.00671152
0.00443739
0.00265082
0.00122184
-0.000145757
0.0333898
0.0215128
0.0132219
0.00787453
0.00453857
0.00242395
0.00101873
6.61104e-05
-0.000518431
)
;

boundaryField
{
    inlet
    {
        type            zeroGradient;
    }
    outlet
    {
        type            totalPressure;
        rho             none;
        psi             none;
        gamma           1;
        p0              uniform 0;
        value           uniform 0;
    }
    fixedWalls
    {
        type            zeroGradient;
    }
    frontAndBack
    {
        type            empty;
    }
    procBoundary1to2
    {
        type            processor;
        value           nonuniform List<scalar> 7(-0.141797 -0.0364539 0.0100293 0.0388515 0.0547204 0.0625421 0.0662281);
    }
    procBoundary1to0
    {
        type            processor;
        value           nonuniform List<scalar> 9(-0.120792 -0.0784655 -0.0483852 -0.0238004 -0.00821688 -0.000601302 0.00226076 0.0025197 0.00117194);
    }
}


// ************************************************************************* //
