/*--------------------------------*- C++ -*----------------------------------*\
| =========                 |                                                 |
| \\      /  F ield         | OpenFOAM Extend Project: Open source CFD        |
|  \\    /   O peration     | Version:  1.6-ext                               |
|   \\  /    A nd           | Web:      www.extend-project.de                 |
|    \\/     M anipulation  |                                                 |
\*---------------------------------------------------------------------------*/
FoamFile
{
    version     2.0;
    format      ascii;
    class       volScalarField;
    location    "2.1";
    object      p;
}
// * * * * * * * * * * * * * * * * * * * * * * * * * * * * * * * * * * * * * //

dimensions      [0 2 -2 0 0 0 0];

internalField   nonuniform List<scalar> 
284
(
0.25434
0.222879
0.211413
0.206462
0.204596
0.204581
0.205428
0.206649
0.208815
0.225118
0.216237
0.210855
0.20832
0.207407
0.207532
0.208156
0.208997
0.211336
0.213245
0.209834
0.207238
0.206056
0.206058
0.206832
0.207833
0.208795
0.211832
0.203878
0.202805
0.201732
0.201485
0.20214
0.203376
0.204668
0.205715
0.20932
0.196202
0.195888
0.195451
0.195449
0.196051
0.197041
0.197902
0.198275
0.201758
0.189271
0.189144
0.188775
0.188429
0.188226
0.187991
0.187177
0.185227
0.18647
0.182727
0.182574
0.181934
0.180824
0.179172
0.176638
0.172343
0.164682
0.158527
0.176602
0.17633
0.175214
0.173056
0.169493
0.16384
0.154514
0.139354
0.0948214
0.171136
0.1707
0.168989
0.165617
0.159754
0.149704
0.129783
0.091083
-0.0023298
0.166686
0.166035
0.163679
0.159243
0.151856
0.139955
0.119427
0.08722
0.033971
0.163711
0.162642
0.159496
0.154175
0.146187
0.134577
0.117469
0.0930592
0.06015
0.162653
0.160728
0.156367
0.150084
0.141784
0.130867
0.116466
0.0968838
0.0734741
0.165176
0.160667
0.154221
0.146719
0.138096
0.127846
0.115404
0.0992927
0.0809208
0.171482
0.161673
0.152579
0.144005
0.135372
0.12585
0.114771
0.100925
0.0850272
0.199765
0.167861
0.153265
0.143747
0.135456
0.126787
0.116619
0.103709
0.0883831
-0.135016
-0.103121
-0.0356546
-0.0580765
0.0109043
-0.0184929
0.0408997
0.0156978
0.0582903
0.0372222
0.0666458
0.0481694
0.0706268
0.0518473
-0.0919143
-0.0829286
-0.0738898
-0.059999
-0.0423258
-0.0252846
-0.0123009
-0.00409979
-0.00105482
-0.0649465
-0.063757
-0.0578605
-0.0468323
-0.0326348
-0.019126
-0.00919011
-0.00309341
-0.00156098
-0.031131
-0.0351576
-0.033865
-0.0282091
-0.0199669
-0.0118375
-0.00591937
-0.00225392
-0.00195184
0.00030212
-0.00846709
-0.0121274
-0.0118838
-0.00931083
-0.00612157
-0.00366176
-0.00191838
-0.00221029
0.0209289
0.00973832
0.00272254
-0.00103856
-0.00258024
-0.00285935
-0.00265135
-0.00203019
-0.00229888
0.0320708
0.0193899
0.0101572
0.00391044
4.16127e-05
-0.00200678
-0.00274791
-0.00247548
-0.00226439
0.0345423
0.0201831
0.00928416
0.00180361
-0.00265305
-0.00469214
-0.00500111
-0.00415478
-0.00283893
-0.0295916
-0.029512
-0.0266286
-0.0220105
-0.0163786
-0.0106169
-0.00558333
-0.00180108
0.00178407
-0.029821
-0.0300111
-0.0275598
-0.0234182
-0.0180726
-0.0121358
-0.00699566
-0.00282233
0.00129949
-0.0325434
-0.0328928
-0.0303581
-0.0258483
-0.0198727
-0.0133642
-0.00758349
-0.00298049
0.00144743
-0.0376415
-0.0380594
-0.0352609
-0.0300352
-0.0229064
-0.0152116
-0.0083926
-0.00312887
0.0015797
-0.0457626
-0.0458921
-0.0427316
-0.0364409
-0.0275768
-0.0180167
-0.0096453
-0.00340688
0.00151083
-0.0575818
-0.0564299
-0.0530518
-0.0449893
-0.0337703
-0.0216864
-0.0113058
-0.00383904
0.0011385
-0.0720128
-0.0676498
-0.0638229
-0.0542948
-0.0402523
-0.0253655
-0.0129267
-0.00432166
0.000477066
-0.099153
-0.0813114
-0.0740009
-0.0614061
-0.0443989
-0.0272606
-0.0135769
-0.00454625
-0.000318751
)
;

boundaryField
{
    inlet
    {
        type            zeroGradient;
    }
    outlet
    {
        type            totalPressure;
        rho             none;
        psi             none;
        gamma           1;
        p0              uniform 0;
        value           uniform 0;
    }
    fixedWalls
    {
        type            zeroGradient;
    }
    frontAndBack
    {
        type            empty;
    }
}


// ************************************************************************* //
