/*--------------------------------*- C++ -*----------------------------------*\
| =========                 |                                                 |
| \\      /  F ield         | OpenFOAM Extend Project: Open source CFD        |
|  \\    /   O peration     | Version:  1.6-ext                               |
|   \\  /    A nd           | Web:      www.extend-project.de                 |
|    \\/     M anipulation  |                                                 |
\*---------------------------------------------------------------------------*/
FoamFile
{
    version     2.0;
    format      ascii;
    class       surfaceScalarField;
    location    "2.1";
    object      phi;
}
// * * * * * * * * * * * * * * * * * * * * * * * * * * * * * * * * * * * * * //

dimensions      [0 3 -1 0 0 0 0];

internalField   nonuniform List<scalar> 
525
(
0.000160908
3.90915e-05
0.000117411
4.34979e-05
8.22425e-05
3.51681e-05
5.57383e-05
2.65042e-05
3.6274e-05
1.94643e-05
2.14751e-05
1.47989e-05
9.72593e-06
1.17491e-05
1.57997e-06
8.14596e-06
1.57997e-06
0.000205102
3.39897e-05
0.000190928
5.76719e-05
0.000163658
6.24382e-05
0.000131147
5.90151e-05
9.78501e-05
5.27609e-05
6.58887e-05
4.67604e-05
3.63003e-05
4.13375e-05
1.1829e-05
3.26173e-05
1.34089e-05
0.000208797
2.51926e-05
0.000208578
5.7891e-05
0.000195061
7.59552e-05
0.000169921
8.41555e-05
0.00013663
8.60519e-05
9.85176e-05
8.48725e-05
5.84406e-05
8.14145e-05
2.13511e-05
6.97068e-05
3.476e-05
0.000205169
2.00235e-05
0.000208463
5.45967e-05
0.000202793
8.16252e-05
0.000185674
0.000101275
0.000157393
0.000114333
0.00011966
0.000122606
7.50024e-05
0.000126072
2.93052e-05
0.000115404
6.40652e-05
0.000202492
1.75311e-05
0.000205472
5.16168e-05
0.000203455
8.36423e-05
0.000192389
0.000112341
0.000170124
0.000136598
0.000136043
0.000156686
9.06049e-05
0.000171511
3.83348e-05
0.000167674
0.0001024
0.000201376
1.61553e-05
0.000204072
4.89202e-05
0.000204512
8.32031e-05
0.000198664
0.000118188
0.000183097
0.000152165
0.00015507
0.000184714
0.000111948
0.000214632
5.35732e-05
0.000226049
0.000155973
0.000201303
1.48519e-05
0.000204822
4.54017e-05
0.000208299
7.97256e-05
0.000208372
0.000118115
0.000201352
0.000159186
0.00018344
0.000202625
0.000147963
0.000250109
8.49419e-05
0.00028907
0.000240915
0.000201829
1.30225e-05
0.000207231
4.00002e-05
0.000214827
7.21299e-05
0.000222173
0.000110769
0.000226019
0.000155339
0.000222226
0.000206419
0.000199908
0.000272427
0.000136168
0.000352811
0.000377083
0.000202702
1.03208e-05
0.000210678
3.20238e-05
0.000223091
5.97168e-05
0.000238776
9.5084e-05
0.000257118
0.000136998
0.000280085
0.000183452
0.00031572
0.000236791
0.00038047
0.000288061
0.000351857
0.000405696
0.000203922
6.39886e-06
0.000214817
2.11289e-05
0.000231676
4.28575e-05
0.000254015
7.27454e-05
0.000282552
0.000108461
0.000320171
0.000145833
0.000370888
0.000186074
0.000449914
0.000209034
0.00027047
0.000531301
0.000205927
4.71701e-07
0.000220042
7.0136e-06
0.000240143
2.27566e-05
0.000265795
4.70935e-05
0.000297771
7.64852e-05
0.000337996
0.000105607
0.000388255
0.000135816
0.000452273
0.000145016
0.000178819
0.000543924
0.000209226
-8.7547e-06
0.000226714
-1.0474e-05
0.000247952
1.51883e-06
0.000273325
2.17204e-05
0.000304101
4.57096e-05
0.000341762
6.79464e-05
0.000388297
8.92803e-05
0.000439628
9.36855e-05
0.000106059
0.000512387
0.000214254
-2.30083e-05
0.000231345
-2.75657e-05
0.000248514
-1.56503e-05
0.000268544
1.69119e-06
0.000293985
2.02685e-05
0.000326154
3.57772e-05
0.000366594
4.88398e-05
0.00040895
5.13295e-05
5.3573e-05
0.000461437
0.000211383
-3.43913e-05
0.000215688
-3.18704e-05
0.000218768
-1.87311e-05
0.00022652
-6.06016e-06
0.000242393
4.39531e-06
0.000266409
1.17617e-05
0.000298207
1.70409e-05
0.000331804
1.77329e-05
1.71652e-05
0.000368212
0.000165609
0.000133738
0.000115007
0.000108947
0.000113342
0.000125104
0.000142145
0.000159878
0.000177043
0.00025888
0.000146816
4.49185e-05
0.000213962
0.000515195
0.000162922
6.73028e-05
0.000492811
0.00057999
0.000126855
5.95267e-05
0.000587766
0.000558887
8.03555e-05
3.75948e-05
0.000580819
0.000502324
3.94678e-05
1.46237e-05
0.000525295
0.000396462
1.12178e-05
9.18915e-07
0.000410167
0.000188261
0.00018918
0.000235384
-1.66189e-05
-4.80367e-06
0.000273752
-6.46895e-05
2.63216e-05
0.00030531
-0.000116799
8.52415e-05
0.000324536
-0.000163698
0.000144472
0.000331865
-0.00019294
0.000185611
0.000330316
-0.000199135
0.000200683
0.000323604
-0.000184578
0.00019129
0.000315408
-0.000158708
0.000166903
-0.000121597
0.000129076
0.000478999
-2.80763e-06
0.000475756
-6.14461e-05
0.000471235
-0.000112278
0.000459377
-0.000151841
0.000439529
-0.000173091
0.000414233
-0.000173839
0.000387486
-0.000157831
0.000362723
-0.000133944
-0.000102437
0.000583654
1.30468e-06
0.000573256
-5.10482e-05
0.000554688
-9.37103e-05
0.000527078
-0.000124231
0.000492136
-0.000138149
0.000453542
-0.000135245
0.000415794
-0.000120083
0.000381986
-0.000100135
-7.68114e-05
0.000587345
-5.22155e-06
0.00057883
-4.25332e-05
0.000557668
-7.2548e-05
0.000525223
-9.17852e-05
0.00048504
-9.79662e-05
0.00044206
-9.22656e-05
0.000401248
-7.92708e-05
0.000365458
-6.43454e-05
-4.98651e-05
0.000530857
-1.07833e-05
0.000520892
-3.25681e-05
0.000496723
-4.83791e-05
0.000461342
-5.64041e-05
0.000419684
-5.63081e-05
0.00037743
-5.00119e-05
0.000339189
-4.10293e-05
0.000307101
-3.22571e-05
-2.59691e-05
0.00040808
-8.69706e-06
0.000391556
-1.60437e-05
0.000363358
-2.01813e-05
0.000327904
-2.09499e-05
0.000290577
-1.89816e-05
0.000256099
-1.55335e-05
0.000227106
-1.2036e-05
0.000204179
-9.33062e-06
-8.63986e-06
0.000180483
0.000164439
0.000144258
0.000123308
0.000104326
8.87929e-05
7.67569e-05
6.74262e-05
-5.22894e-06
5.22894e-06
-1.21556e-05
6.92663e-06
-1.56378e-05
3.48225e-06
-1.42568e-05
-1.38101e-06
-8.62234e-06
-5.63446e-06
-3.40592e-07
-8.28175e-06
8.85787e-06
-9.19846e-06
1.79865e-05
-9.12863e-06
-8.94993e-06
-8.13664e-06
1.33656e-05
-1.70422e-05
1.58322e-05
-1.9174e-05
5.61405e-06
-1.26008e-05
-7.95421e-06
1.20118e-06
-1.94364e-05
1.89866e-05
-2.60672e-05
3.78319e-05
-2.80437e-05
5.52163e-05
-2.65131e-05
-2.38378e-05
-9.70294e-06
2.30685e-05
-1.93429e-05
2.54722e-05
-1.98919e-05
6.16304e-06
-9.1711e-06
-1.8675e-05
1.04653e-05
-3.90728e-05
3.49491e-05
-5.0551e-05
6.01937e-05
-5.32883e-05
8.30781e-05
-4.93974e-05
-4.25826e-05
-1.2041e-05
3.51095e-05
-2.29077e-05
3.63388e-05
-2.22259e-05
5.48128e-06
-8.11808e-06
-3.27829e-05
1.64413e-05
-6.36323e-05
4.62929e-05
-8.04025e-05
7.65652e-05
-8.35606e-05
0.000103696
-7.65284e-05
-6.40783e-05
-1.39665e-05
4.9076e-05
-2.39536e-05
4.63259e-05
-1.97483e-05
1.27598e-06
-1.06699e-06
-5.14642e-05
2.78808e-05
-9.25801e-05
6.18994e-05
-0.000114421
9.55622e-05
-0.000117223
0.000125262
-0.000106228
-8.67994e-05
-1.13004e-05
6.03765e-05
-1.24844e-05
4.75098e-05
1.40855e-07
-1.13492e-05
2.50044e-05
-7.63277e-05
5.78714e-05
-0.000125447
9.32823e-05
-0.000149832
0.000126741
-0.000150683
0.000155559
-0.000135046
-0.000108044
4.27444e-06
5.6102e-05
2.44799e-05
2.73044e-05
5.30521e-05
-3.99214e-05
8.53442e-05
-0.00010862
0.000118488
-0.000158591
0.000149771
-0.000181115
0.000176926
-0.000177838
0.000199284
-0.000157404
-0.00012367
5.12984e-05
0.000104924
0.000150244
0.000186097
0.000213117
0.000232686
0.000246137
0.000255637
)
;

boundaryField
{
    inlet
    {
        type            calculated;
        value           uniform -0.0002;
    }
    outlet
    {
        type            calculated;
        value           nonuniform List<scalar> 
15
(
2.69364e-05
7.01041e-05
0.000101823
0.000125192
0.000147983
0.000176803
0.00021491
0.000261043
0.00030793
0.000343563
0.00035636
0.000338512
0.000283205
0.00018685
5.87864e-05
)
;
    }
    fixedWalls
    {
        type            calculated;
        value           uniform 0;
    }
    frontAndBack
    {
        type            empty;
    }
}


// ************************************************************************* //
