/*--------------------------------*- C++ -*----------------------------------*\
| =========                 |                                                 |
| \\      /  F ield         | OpenFOAM Extend Project: Open source CFD        |
|  \\    /   O peration     | Version:  1.6-ext                               |
|   \\  /    A nd           | Web:      www.extend-project.de                 |
|    \\/     M anipulation  |                                                 |
\*---------------------------------------------------------------------------*/
FoamFile
{
    version     2.0;
    format      ascii;
    class       volVectorField;
    location    "2.1";
    object      U;
}
// * * * * * * * * * * * * * * * * * * * * * * * * * * * * * * * * * * * * * //

dimensions      [0 1 -1 0 0 0 0];

internalField   nonuniform List<vector> 
284
(
(0.163782 0.0265834 0)
(0.141959 0.026737 0)
(0.0992952 0.01908 0)
(0.0674189 0.0119835 0)
(0.0449867 0.00705159 0)
(0.0282697 0.00425608 0)
(0.0150385 0.00273744 0)
(0.00406736 0.00124946 0)
(-0.000451233 -0.00105798 0)
(0.200612 0.0432478 0)
(0.202347 0.0572491 0)
(0.180246 0.0527008 0)
(0.14835 0.0433028 0)
(0.114593 0.0340784 0)
(0.0816909 0.0272447 0)
(0.0503955 0.0223615 0)
(0.0212293 0.0162888 0)
(0.00369696 0.00477779 0)
(0.203113 0.028837 0)
(0.211258 0.0589106 0)
(0.205212 0.0711577 0)
(0.1852 0.0733233 0)
(0.155115 0.0702026 0)
(0.118736 0.0654822 0)
(0.0786003 0.0600468 0)
(0.0366987 0.0492307 0)
(0.00790967 0.0225764 0)
(0.201542 0.022054 0)
(0.207817 0.0561631 0)
(0.208194 0.0797164 0)
(0.197324 0.0941458 0)
(0.174396 0.101451 0)
(0.140958 0.104371 0)
(0.098687 0.103508 0)
(0.0492475 0.0914242 0)
(0.0117766 0.0481379 0)
(0.200584 0.0185363 0)
(0.20421 0.0529545 0)
(0.206106 0.0831101 0)
(0.200633 0.107871 0)
(0.1844 0.126719 0)
(0.156401 0.140619 0)
(0.116065 0.149003 0)
(0.0625376 0.140572 0)
(0.0169191 0.0817093 0)
(0.200252 0.0167667 0)
(0.202618 0.0502779 0)
(0.205225 0.0839041 0)
(0.203685 0.116354 0)
(0.19385 0.145903 0)
(0.17293 0.172279 0)
(0.1378 0.194195 0)
(0.0829335 0.196602 0)
(0.0266466 0.126157 0)
(0.20023 0.0155199 0)
(0.20271 0.0473869 0)
(0.206935 0.0821741 0)
(0.209778 0.119539 0)
(0.20735 0.157744 0)
(0.196294 0.196202 0)
(0.172187 0.233861 0)
(0.120019 0.252844 0)
(0.0469419 0.195844 0)
(0.200349 0.014015 0)
(0.203868 0.0431075 0)
(0.21086 0.0768619 0)
(0.219238 0.116133 0)
(0.225853 0.159973 0)
(0.227815 0.208902 0)
(0.218711 0.269945 0)
(0.192938 0.336719 0)
(0.0598429 0.284338 0)
(0.200541 0.011802 0)
(0.205662 0.036538 0)
(0.216175 0.0669437 0)
(0.230959 0.104622 0)
(0.248334 0.148862 0)
(0.270708 0.199335 0)
(0.296303 0.262494 0)
(0.353443 0.340805 0)
(0.396406 0.421564 0)
(0.200826 0.00857334 0)
(0.208 0.0272051 0)
(0.222107 0.0522588 0)
(0.242243 0.0852729 0)
(0.267415 0.124695 0)
(0.301485 0.167615 0)
(0.341856 0.21603 0)
(0.407605 0.252628 0)
(0.487846 0.325824 0)
(0.201371 0.00400028 0)
(0.211417 0.0148571 0)
(0.228826 0.0335608 0)
(0.252064 0.0606053 0)
(0.280574 0.0932282 0)
(0.316937 0.126456 0)
(0.360966 0.1615 0)
(0.416847 0.173045 0)
(0.494804 0.217587 0)
(0.202417 -0.00323831 0)
(0.216543 -0.00107596 0)
(0.236311 0.0120622 0)
(0.259741 0.0338897 0)
(0.287624 0.060362 0)
(0.32156 0.0857849 0)
(0.363783 0.111213 0)
(0.41124 0.116325 0)
(0.473092 0.134963 0)
(0.204185 -0.0143989 0)
(0.22219 -0.0194053 0)
(0.239519 -0.0088556 0)
(0.25763 0.00964311 0)
(0.280119 0.0308214 0)
(0.308527 0.0497991 0)
(0.345379 0.0668826 0)
(0.386183 0.0704361 0)
(0.433778 0.0750878 0)
(0.201732 -0.0355553 0)
(0.214531 -0.0376209 0)
(0.217084 -0.0233667 0)
(0.221195 -0.00663261 0)
(0.232848 0.0086788 0)
(0.252734 0.0204792 0)
(0.281391 0.0293377 0)
(0.314117 0.0308244 0)
(0.349828 0.0303265 0)
(0.164628 -0.0249822 0)
(0.150779 -0.0225199 0)
(0.122995 -0.0127809 0)
(0.109678 -0.0047973 0)
(0.109538 0.00082476 0)
(0.118122 0.00431739 0)
(0.133126 0.00631794 0)
(0.150789 0.00614174 0)
(0.168864 0.00513721 0)
(0.359243 0.161011 0)
(0.201437 0.0375894 0)
(0.542975 0.162861 0)
(0.507345 0.0619076 0)
(0.570742 0.148795 0)
(0.59253 0.0728807 0)
(0.538952 0.101865 0)
(0.576033 0.0497703 0)
(0.483469 0.0563374 0)
(0.517764 0.0240018 0)
(0.383966 0.0202887 0)
(0.40639 0.00398599 0)
(0.183946 0.00181233 0)
(0.190517 -0.002524 0)
(0.216404 -0.0208206 0)
(0.251663 -0.0588614 0)
(0.292651 -0.110983 0)
(0.320637 -0.161793 0)
(0.332809 -0.195735 0)
(0.333529 -0.205677 0)
(0.32683 -0.193112 0)
(0.319984 -0.16735 0)
(0.30717 -0.128748 0)
(0.484689 -0.00938494 0)
(0.476625 -0.0654853 0)
(0.476039 -0.117505 0)
(0.469838 -0.160777 0)
(0.452912 -0.186229 0)
(0.428336 -0.189905 0)
(0.399572 -0.174552 0)
(0.375546 -0.149425 0)
(0.344924 -0.114372 0)
(0.590201 0.00491867 0)
(0.580983 -0.0524846 0)
(0.567304 -0.101266 0)
(0.54486 -0.13772 0)
(0.51226 -0.156228 0)
(0.473719 -0.155643 0)
(0.432901 -0.140188 0)
(0.399459 -0.11823 0)
(0.359023 -0.0905358 0)
(0.58918 -0.00165374 0)
(0.587145 -0.046401 0)
(0.572357 -0.083142 0)
(0.545146 -0.108385 0)
(0.507258 -0.118588 0)
(0.464039 -0.114187 0)
(0.419849 -0.0998613 0)
(0.383799 -0.0821483 0)
(0.341803 -0.0631313 0)
(0.532619 -0.00939222 0)
(0.530259 -0.038906 0)
(0.512761 -0.0616752 0)
(0.48201 -0.0749337 0)
(0.441811 -0.0772956 0)
(0.39837 -0.0705004 0)
(0.356548 -0.0589031 0)
(0.323069 -0.0467088 0)
(0.28654 -0.0365796 0)
(0.412828 -0.0126426 0)
(0.40341 -0.0259956 0)
(0.380292 -0.0343439 0)
(0.347172 -0.0369128 0)
(0.309337 -0.0343286 0)
(0.272451 -0.0286161 0)
(0.240123 -0.0223454 0)
(0.215132 -0.0171291 0)
(0.189726 -0.0148256 0)
(0.186651 -0.00622093 0)
(0.173851 -0.00830841 0)
(0.155089 -0.00864164 0)
(0.133844 -0.00763525 0)
(0.113377 -0.00597132 0)
(0.0959173 -0.00429602 0)
(0.082181 -0.00307766 0)
(0.0718509 -0.00248318 0)
(0.060725 -0.00299116 0)
(-0.00231401 0.00227306 0)
(-0.00885014 0.00331247 0)
(-0.0148989 0.0021242 0)
(-0.01591 0.000270918 0)
(-0.0120983 -0.00143681 0)
(-0.00480111 -0.00256431 0)
(0.00417557 -0.00304459 0)
(0.0130598 -0.00326059 0)
(0.0250181 -0.00355271 0)
(-0.00384072 0.00881668 0)
(-0.0133231 0.0111865 0)
(-0.0201557 0.00514291 0)
(-0.0177964 -0.00318923 0)
(-0.00695951 -0.010387 0)
(0.00969481 -0.014713 0)
(0.0285419 -0.0161913 0)
(0.046451 -0.015738 0)
(0.0672623 -0.014887 0)
(-0.00473361 0.0178769 0)
(-0.0157091 0.0204929 0)
(-0.0223508 0.00623367 0)
(-0.017042 -0.0122771 0)
(-0.000853642 -0.0277742 0)
(0.0223938 -0.0366843 0)
(0.0478823 -0.0391354 0)
(0.0716952 -0.0366553 0)
(0.0983912 -0.0322722 0)
(-0.00609414 0.0287679 0)
(-0.019211 0.0308677 0)
(-0.0259366 0.00628936 0)
(-0.0181628 -0.0246094 0)
(0.0024809 -0.0499711 0)
(0.0311507 -0.0641133 0)
(0.0619326 -0.0672386 0)
(0.0903096 -0.0620098 0)
(0.121344 -0.0527222 0)
(-0.00755635 0.0420535 0)
(-0.0216611 0.0421088 0)
(-0.0257121 0.00494853 0)
(-0.0136775 -0.0409847 0)
(0.0117468 -0.0771798 0)
(0.0449705 -0.0967134 0)
(0.0794733 -0.0998915 0)
(0.11079 -0.0910069 0)
(0.143903 -0.0753254 0)
(-0.00715982 0.0552016 0)
(-0.0160601 0.0490185 0)
(-0.00994141 -0.00261726 0)
(0.0103588 -0.0630657 0)
(0.0411073 -0.109253 0)
(0.0762965 -0.132931 0)
(0.110994 -0.134922 0)
(0.141747 -0.121489 0)
(0.172753 -0.0982417 0)
(0.000452259 0.0698344 0)
(0.00901714 0.0474805 0)
(0.0376196 -0.0206482 0)
(0.0699343 -0.0917525 0)
(0.103563 -0.143777 0)
(0.135812 -0.168277 0)
(0.164445 -0.167214 0)
(0.188788 -0.148817 0)
(0.211294 -0.117944 0)
(0.0369893 0.0321587 0)
(0.0730553 0.00325748 0)
(0.129654 -0.0630764 0)
(0.172544 -0.129757 0)
(0.203526 -0.176617 0)
(0.225443 -0.195806 0)
(0.240219 -0.189291 0)
(0.251447 -0.166325 0)
(0.258444 -0.129575 0)
)
;

boundaryField
{
    inlet
    {
        type            fixedValue;
        value           uniform (0.2 0 0);
    }
    outlet
    {
        type            zeroGradient;
    }
    fixedWalls
    {
        type            fixedValue;
        value           uniform (0 0 0);
    }
    frontAndBack
    {
        type            empty;
    }
}


// ************************************************************************* //
