/*--------------------------------*- C++ -*----------------------------------*\
| =========                 |                                                 |
| \\      /  F ield         | OpenFOAM Extend Project: Open source CFD        |
|  \\    /   O peration     | Version:  1.6-ext                               |
|   \\  /    A nd           | Web:      www.extend-project.de                 |
|    \\/     M anipulation  |                                                 |
\*---------------------------------------------------------------------------*/
FoamFile
{
    version     2.0;
    format      ascii;
    class       volVectorField;
    location    "0.4";
    object      U;
}
// * * * * * * * * * * * * * * * * * * * * * * * * * * * * * * * * * * * * * //

dimensions      [0 1 -1 0 0 0 0];

internalField   nonuniform List<vector> 
72
(
(0.161327 0.0234603 0)
(0.151655 0.0204811 0)
(0.116489 0.0137869 0)
(0.0929272 0.00969877 0)
(0.0744585 0.00802721 0)
(0.0564178 0.00757618 0)
(0.0378097 0.00761507 0)
(0.0178636 0.00720244 0)
(0.00374766 0.00338516 0)
(0.193383 0.0391318 0)
(0.202799 0.0454994 0)
(0.178144 0.0386647 0)
(0.152157 0.0329352 0)
(0.126683 0.0308053 0)
(0.0988117 0.0310724 0)
(0.0684356 0.0323471 0)
(0.0350546 0.031735 0)
(0.00880109 0.0184806 0)
(0.19434 0.0299891 0)
(0.205123 0.054297 0)
(0.185762 0.0583824 0)
(0.162949 0.0579419 0)
(0.138685 0.0590769 0)
(0.110363 0.0624052 0)
(0.0780762 0.0667198 0)
(0.0411475 0.0671029 0)
(0.0107578 0.0426565 0)
(0.192733 0.0289101 0)
(0.201892 0.0636433 0)
(0.185289 0.0755266 0)
(0.165802 0.0799628 0)
(0.144328 0.0850384 0)
(0.117774 0.0925272 0)
(0.0857897 0.101321 0)
(0.0469601 0.104396 0)
(0.0129545 0.0692549 0)
(0.191923 0.0296023 0)
(0.200801 0.0719309 0)
(0.186777 0.0897103 0)
(0.17075 0.0986315 0)
(0.152725 0.108187 0)
(0.128916 0.121012 0)
(0.0981009 0.13623 0)
(0.0572698 0.144836 0)
(0.0173387 0.100736 0)
(0.191694 0.030563 0)
(0.20183 0.0782585 0)
(0.191276 0.100496 0)
(0.179518 0.113416 0)
(0.166101 0.127697 0)
(0.146619 0.146982 0)
(0.118676 0.171396 0)
(0.076479 0.191361 0)
(0.0264439 0.143599 0)
(0.191747 0.0307791 0)
(0.204272 0.0815617 0)
(0.198355 0.106857 0)
(0.192141 0.123034 0)
(0.185204 0.141717 0)
(0.1731 0.167692 0)
(0.153099 0.202543 0)
(0.11616 0.233547 0)
(0.0490867 0.208065 0)
(0.191937 0.0295672 0)
(0.207585 0.0808085 0)
(0.207301 0.107573 0)
(0.207915 0.125796 0)
(0.209443 0.147807 0)
(0.208066 0.180435 0)
(0.195438 0.233229 0)
(0.192687 0.312577 0)
(0.0577136 0.304747 0)
)
;

boundaryField
{
    inlet
    {
        type            fixedValue;
        value           uniform (0.2 0 0);
    }
    outlet
    {
        type            zeroGradient;
    }
    fixedWalls
    {
        type            fixedValue;
        value           uniform (0 0 0);
    }
    frontAndBack
    {
        type            empty;
    }
    procBoundary3to2
    {
        type            processor;
        value           nonuniform List<vector> 9((0.192196 0.0265639 0) (0.211288 0.0753292 0) (0.217107 0.101714 0) (0.225468 0.119934 0) (0.237906 0.141545 0) (0.255787 0.172841 0) (0.277844 0.220364 0) (0.353472 0.286717 0) (0.404852 0.426456 0));
    }
}


// ************************************************************************* //
