/*--------------------------------*- C++ -*----------------------------------*\
| =========                 |                                                 |
| \\      /  F ield         | OpenFOAM Extend Project: Open source CFD        |
|  \\    /   O peration     | Version:  1.6-ext                               |
|   \\  /    A nd           | Web:      www.extend-project.de                 |
|    \\/     M anipulation  |                                                 |
\*---------------------------------------------------------------------------*/
FoamFile
{
    version     2.0;
    format      ascii;
    class       vectorField;
    location    "1.05";
    object      accumulatedFluidInterfaceDisplacement;
}
// * * * * * * * * * * * * * * * * * * * * * * * * * * * * * * * * * * * * * //


338
(
(1.18659e-06 -5.17583e-07 -1.40578e-27)
(8.75239e-07 -2.49616e-07 7.68317e-27)
(4.53883e-06 -7.24662e-06 -5.38961e-26)
(4.51092e-06 -7.17182e-06 -2.47994e-26)
(4.50422e-06 -7.0712e-06 1.61491e-26)
(4.49585e-06 -6.96957e-06 4.91525e-27)
(4.48598e-06 -6.86794e-06 -4.71556e-27)
(4.47439e-06 -6.76679e-06 -1.97444e-26)
(4.46093e-06 -6.66645e-06 -1.0697e-26)
(4.44543e-06 -6.56705e-06 1.85259e-26)
(4.42774e-06 -6.46865e-06 -2.36677e-26)
(4.40777e-06 -6.37121e-06 -4.50163e-28)
(4.38542e-06 -6.27465e-06 1.41845e-26)
(4.36064e-06 -6.17886e-06 -1.36948e-26)
(4.33338e-06 -6.08369e-06 -1.32296e-26)
(4.3036e-06 -5.989e-06 -1.34917e-26)
(4.27128e-06 -5.89461e-06 9.29129e-27)
(4.23639e-06 -5.80032e-06 9.7183e-28)
(4.19892e-06 -5.70594e-06 -7.68917e-27)
(4.15886e-06 -5.61124e-06 1.57395e-26)
(4.1162e-06 -5.51599e-06 2.82494e-26)
(4.07094e-06 -5.41996e-06 8.31482e-27)
(4.02309e-06 -5.32289e-06 3.54975e-27)
(3.97265e-06 -5.22453e-06 -6.82858e-27)
(3.91966e-06 -5.1246e-06 2.36154e-26)
(3.86413e-06 -5.02286e-06 4.07911e-26)
(3.80612e-06 -4.91905e-06 -1.63032e-27)
(3.74566e-06 -4.81291e-06 1.25419e-26)
(3.68283e-06 -4.70422e-06 3.37178e-27)
(3.61769e-06 -4.59276e-06 5.32608e-27)
(3.55033e-06 -4.47836e-06 1.88258e-26)
(3.48084e-06 -4.36086e-06 -6.95089e-27)
(3.40933e-06 -4.24014e-06 -3.37605e-27)
(3.33591e-06 -4.11612e-06 -6.60416e-28)
(3.26069e-06 -3.98877e-06 -3.41013e-27)
(3.18379e-06 -3.8581e-06 -1.16184e-26)
(3.10536e-06 -3.72417e-06 -1.21312e-26)
(3.02551e-06 -3.5871e-06 -1.08444e-26)
(2.94439e-06 -3.44704e-06 -9.96641e-27)
(2.86212e-06 -3.3042e-06 -4.09155e-27)
(2.77884e-06 -3.15885e-06 -1.30514e-27)
(2.69468e-06 -3.0113e-06 7.0954e-27)
(2.60976e-06 -2.8619e-06 1.3512e-27)
(2.5242e-06 -2.71105e-06 -7.5297e-27)
(2.43812e-06 -2.55918e-06 -6.23843e-29)
(2.35162e-06 -2.40677e-06 3.15628e-27)
(2.2648e-06 -2.25431e-06 -6.25972e-27)
(2.17775e-06 -2.10233e-06 -3.86836e-27)
(2.09055e-06 -1.95139e-06 5.09457e-27)
(2.00326e-06 -1.80203e-06 6.66777e-28)
(1.91594e-06 -1.65482e-06 -8.70487e-27)
(1.82863e-06 -1.51033e-06 -5.94396e-27)
(1.74138e-06 -1.36912e-06 5.21149e-27)
(1.6542e-06 -1.23175e-06 3.75827e-27)
(1.56711e-06 -1.09875e-06 -1.53099e-27)
(1.48011e-06 -9.70636e-07 -4.25601e-27)
(1.39319e-06 -8.47895e-07 6.60696e-27)
(1.30635e-06 -7.3098e-07 1.39625e-26)
(1.21957e-06 -6.20311e-07 -2.93446e-27)
(1.13281e-06 -5.16267e-07 -1.17292e-26)
(1.04605e-06 -4.19187e-07 2.58506e-27)
(9.5926e-07 -3.29365e-07 9.22008e-27)
(4.70525e-06 -7.27173e-06 2.6962e-27)
(4.61147e-06 -7.27184e-06 -1.04152e-26)
(4.86556e-06 -7.24574e-06 6.26269e-27)
(4.79716e-06 -7.2704e-06 -3.06586e-26)
(1.29947e-06 -5.95821e-07 -1.64277e-27)
(1.41518e-06 -6.83944e-07 -5.6909e-27)
(1.52976e-06 -7.79189e-07 -9.55662e-27)
(1.64307e-06 -8.8126e-07 5.52506e-27)
(1.75499e-06 -9.89822e-07 1.31297e-26)
(1.86539e-06 -1.1045e-06 -7.90504e-28)
(1.97416e-06 -1.22487e-06 -5.23952e-27)
(2.08118e-06 -1.35049e-06 -5.33179e-27)
(2.18635e-06 -1.48087e-06 -1.19691e-26)
(2.28957e-06 -1.61549e-06 -1.3953e-27)
(2.39077e-06 -1.75384e-06 -4.74085e-27)
(2.48985e-06 -1.89535e-06 -1.03723e-26)
(2.58677e-06 -2.03946e-06 2.47791e-27)
(2.68147e-06 -2.18562e-06 1.74914e-27)
(2.77391e-06 -2.33325e-06 -2.03965e-27)
(2.86406e-06 -2.48179e-06 4.69983e-27)
(2.95191e-06 -2.63072e-06 2.6431e-27)
(3.03746e-06 -2.77949e-06 1.55427e-27)
(3.12071e-06 -2.92762e-06 3.50841e-27)
(3.20168e-06 -3.07463e-06 3.22766e-27)
(3.28039e-06 -3.2201e-06 1.18338e-28)
(3.35687e-06 -3.36361e-06 -7.66335e-27)
(3.43118e-06 -3.50482e-06 9.36775e-27)
(3.50335e-06 -3.64343e-06 1.61854e-26)
(3.57344e-06 -3.77916e-06 -3.81156e-28)
(3.6415e-06 -3.91182e-06 -4.13921e-27)
(3.70759e-06 -4.04124e-06 6.10293e-28)
(3.77177e-06 -4.16731e-06 6.17799e-27)
(3.8341e-06 -4.28997e-06 9.6225e-29)
(3.89462e-06 -4.40921e-06 -8.74725e-27)
(3.9534e-06 -4.52508e-06 -1.95003e-26)
(4.01049e-06 -4.63763e-06 -6.30209e-27)
(4.06591e-06 -4.74701e-06 1.4082e-26)
(4.11971e-06 -4.85335e-06 1.05669e-27)
(4.17191e-06 -4.95686e-06 -9.01465e-27)
(4.22253e-06 -5.05773e-06 -5.49098e-27)
(4.27158e-06 -5.15621e-06 -1.32988e-26)
(4.31906e-06 -5.25254e-06 -3.81353e-27)
(4.36497e-06 -5.34698e-06 2.00751e-26)
(4.40928e-06 -5.4398e-06 3.95078e-27)
(4.45198e-06 -5.53126e-06 -2.85645e-26)
(4.49303e-06 -5.62162e-06 -1.99755e-26)
(4.5324e-06 -5.71113e-06 -8.27375e-27)
(4.57006e-06 -5.80005e-06 -1.70646e-26)
(4.60596e-06 -5.88859e-06 -2.86757e-28)
(4.64007e-06 -5.97699e-06 -2.25106e-28)
(4.67232e-06 -6.06546e-06 -1.31257e-26)
(4.70268e-06 -6.15417e-06 9.25216e-27)
(4.73108e-06 -6.24332e-06 4.23435e-28)
(4.75748e-06 -6.33306e-06 -2.74212e-26)
(4.7818e-06 -6.42354e-06 2.3167e-26)
(4.80396e-06 -6.51487e-06 2.783e-26)
(4.82386e-06 -6.60714e-06 -8.44461e-27)
(4.84137e-06 -6.70038e-06 -2.86341e-26)
(4.85635e-06 -6.79455e-06 -1.37684e-26)
(4.86861e-06 -6.88951e-06 5.60029e-27)
(4.87797e-06 -6.98496e-06 -4.08549e-26)
(4.88429e-06 -7.08036e-06 -3.69228e-26)
(4.88748e-06 -7.17497e-06 2.07728e-26)
(8.71564e-08 -4.92109e-08 2.51147e-27)
(8.65579e-08 -6.35877e-08 -2.18963e-26)
(8.86873e-08 -8.90704e-08 -6.38386e-27)
(9.77864e-08 -1.07978e-07 3.70377e-26)
(1.13932e-07 -1.215e-07 -1.13208e-26)
(1.36222e-07 -1.31457e-07 -1.86887e-26)
(1.63641e-07 -1.39076e-07 -7.26435e-27)
(1.95558e-07 -1.45425e-07 6.02555e-28)
(2.31561e-07 -1.51321e-07 1.02503e-26)
(2.71441e-07 -1.57456e-07 4.64006e-27)
(3.15109e-07 -1.64418e-07 -4.20786e-27)
(3.62574e-07 -1.72737e-07 -1.78209e-26)
(4.13909e-07 -1.82911e-07 6.93043e-27)
(4.6924e-07 -1.9543e-07 -4.52256e-27)
(5.28735e-07 -2.10796e-07 1.29788e-27)
(5.92602e-07 -2.29547e-07 3.27427e-27)
(6.61077e-07 -2.5227e-07 -7.4887e-27)
(7.34424e-07 -2.79627e-07 -1.25497e-26)
(8.12927e-07 -3.12369e-07 -3.49992e-27)
(8.96887e-07 -3.51355e-07 1.30635e-26)
(9.86613e-07 -3.97566e-07 1.21253e-27)
(1.08241e-06 -4.52118e-07 2.84063e-28)
(8.24e-08 4.33493e-08 -3.66197e-26)
(7.98173e-07 -1.82875e-07 -7.7222e-27)
(7.2762e-07 -1.27243e-07 -1.19548e-26)
(6.61759e-07 -8.00914e-08 1.42616e-26)
(6.00276e-07 -4.02687e-08 1.95399e-26)
(5.42882e-07 -6.76082e-09 2.41048e-27)
(4.89313e-07 2.13211e-08 -3.33536e-27)
(4.39331e-07 4.47505e-08 1.38818e-27)
(3.92723e-07 6.41927e-08 -1.21664e-27)
(3.49305e-07 8.02103e-08 1.963e-27)
(3.08929e-07 9.32653e-08 -5.27563e-27)
(2.71481e-07 1.03719e-07 -1.05232e-26)
(2.36887e-07 1.1183e-07 2.36852e-26)
(2.05124e-07 1.1775e-07 1.0054e-29)
(1.76226e-07 1.21512e-07 -1.21187e-26)
(1.5031e-07 1.23025e-07 2.23551e-26)
(1.27595e-07 1.22043e-07 -2.17971e-26)
(1.08469e-07 1.18155e-07 -2.81782e-26)
(9.349e-08 1.10696e-07 2.26717e-26)
(8.35283e-08 9.8835e-08 -3.96309e-27)
(7.93127e-08 8.12221e-08 -1.64875e-27)
(8.05421e-08 5.70459e-08 3.34837e-27)
(1.18659e-06 -5.17583e-07 -1.40578e-27)
(8.75239e-07 -2.49616e-07 7.68317e-27)
(4.53883e-06 -7.24662e-06 -5.38961e-26)
(4.51092e-06 -7.17182e-06 -2.47994e-26)
(4.50422e-06 -7.0712e-06 1.61491e-26)
(4.49585e-06 -6.96957e-06 4.91525e-27)
(4.48598e-06 -6.86794e-06 -4.71556e-27)
(4.47439e-06 -6.76679e-06 -1.97444e-26)
(4.46093e-06 -6.66645e-06 -1.0697e-26)
(4.44543e-06 -6.56705e-06 1.85259e-26)
(4.42774e-06 -6.46865e-06 -2.36677e-26)
(4.40777e-06 -6.37121e-06 -4.50163e-28)
(4.38542e-06 -6.27465e-06 1.41845e-26)
(4.36064e-06 -6.17886e-06 -1.36948e-26)
(4.33338e-06 -6.08369e-06 -1.32296e-26)
(4.3036e-06 -5.989e-06 -1.34917e-26)
(4.27128e-06 -5.89461e-06 9.29129e-27)
(4.23639e-06 -5.80032e-06 9.7183e-28)
(4.19892e-06 -5.70594e-06 -7.68917e-27)
(4.15886e-06 -5.61124e-06 1.57395e-26)
(4.1162e-06 -5.51599e-06 2.82494e-26)
(4.07094e-06 -5.41996e-06 8.31482e-27)
(4.02309e-06 -5.32289e-06 3.54975e-27)
(3.97265e-06 -5.22453e-06 -6.82858e-27)
(3.91966e-06 -5.1246e-06 2.36154e-26)
(3.86413e-06 -5.02286e-06 4.07911e-26)
(3.80612e-06 -4.91905e-06 -1.63032e-27)
(3.74566e-06 -4.81291e-06 1.25419e-26)
(3.68283e-06 -4.70422e-06 3.37178e-27)
(3.61769e-06 -4.59276e-06 5.32608e-27)
(3.55033e-06 -4.47836e-06 1.88258e-26)
(3.48084e-06 -4.36086e-06 -6.95089e-27)
(3.40933e-06 -4.24014e-06 -3.37605e-27)
(3.33591e-06 -4.11612e-06 -6.60416e-28)
(3.26069e-06 -3.98877e-06 -3.41013e-27)
(3.18379e-06 -3.8581e-06 -1.16184e-26)
(3.10536e-06 -3.72417e-06 -1.21312e-26)
(3.02551e-06 -3.5871e-06 -1.08444e-26)
(2.94439e-06 -3.44704e-06 -9.96641e-27)
(2.86212e-06 -3.3042e-06 -4.09155e-27)
(2.77884e-06 -3.15885e-06 -1.30514e-27)
(2.69468e-06 -3.0113e-06 7.0954e-27)
(2.60976e-06 -2.8619e-06 1.3512e-27)
(2.5242e-06 -2.71105e-06 -7.5297e-27)
(2.43812e-06 -2.55918e-06 -6.23843e-29)
(2.35162e-06 -2.40677e-06 3.15628e-27)
(2.2648e-06 -2.25431e-06 -6.25972e-27)
(2.17775e-06 -2.10233e-06 -3.86836e-27)
(2.09055e-06 -1.95139e-06 5.09457e-27)
(2.00326e-06 -1.80203e-06 6.66777e-28)
(1.91594e-06 -1.65482e-06 -8.70487e-27)
(1.82863e-06 -1.51033e-06 -5.94396e-27)
(1.74138e-06 -1.36912e-06 5.21149e-27)
(1.6542e-06 -1.23175e-06 3.75827e-27)
(1.56711e-06 -1.09875e-06 -1.53099e-27)
(1.48011e-06 -9.70636e-07 -4.25601e-27)
(1.39319e-06 -8.47895e-07 6.60696e-27)
(1.30635e-06 -7.3098e-07 1.39625e-26)
(1.21957e-06 -6.20311e-07 -2.93446e-27)
(1.13281e-06 -5.16267e-07 -1.17292e-26)
(1.04605e-06 -4.19187e-07 2.58506e-27)
(9.5926e-07 -3.29365e-07 9.22008e-27)
(4.70525e-06 -7.27173e-06 2.6962e-27)
(4.61147e-06 -7.27184e-06 -1.04152e-26)
(4.86556e-06 -7.24574e-06 6.26269e-27)
(4.79716e-06 -7.2704e-06 -3.06586e-26)
(1.29947e-06 -5.95821e-07 -1.64277e-27)
(1.41518e-06 -6.83944e-07 -5.6909e-27)
(1.52976e-06 -7.79189e-07 -9.55662e-27)
(1.64307e-06 -8.8126e-07 5.52506e-27)
(1.75499e-06 -9.89822e-07 1.31297e-26)
(1.86539e-06 -1.1045e-06 -7.90504e-28)
(1.97416e-06 -1.22487e-06 -5.23952e-27)
(2.08118e-06 -1.35049e-06 -5.33179e-27)
(2.18635e-06 -1.48087e-06 -1.19691e-26)
(2.28957e-06 -1.61549e-06 -1.3953e-27)
(2.39077e-06 -1.75384e-06 -4.74085e-27)
(2.48985e-06 -1.89535e-06 -1.03723e-26)
(2.58677e-06 -2.03946e-06 2.47791e-27)
(2.68147e-06 -2.18562e-06 1.74914e-27)
(2.77391e-06 -2.33325e-06 -2.03965e-27)
(2.86406e-06 -2.48179e-06 4.69983e-27)
(2.95191e-06 -2.63072e-06 2.6431e-27)
(3.03746e-06 -2.77949e-06 1.55427e-27)
(3.12071e-06 -2.92762e-06 3.50841e-27)
(3.20168e-06 -3.07463e-06 3.22766e-27)
(3.28039e-06 -3.2201e-06 1.18338e-28)
(3.35687e-06 -3.36361e-06 -7.66335e-27)
(3.43118e-06 -3.50482e-06 9.36775e-27)
(3.50335e-06 -3.64343e-06 1.61854e-26)
(3.57344e-06 -3.77916e-06 -3.81156e-28)
(3.6415e-06 -3.91182e-06 -4.13921e-27)
(3.70759e-06 -4.04124e-06 6.10293e-28)
(3.77177e-06 -4.16731e-06 6.17799e-27)
(3.8341e-06 -4.28997e-06 9.6225e-29)
(3.89462e-06 -4.40921e-06 -8.74725e-27)
(3.9534e-06 -4.52508e-06 -1.95003e-26)
(4.01049e-06 -4.63763e-06 -6.30209e-27)
(4.06591e-06 -4.74701e-06 1.4082e-26)
(4.11971e-06 -4.85335e-06 1.05669e-27)
(4.17191e-06 -4.95686e-06 -9.01465e-27)
(4.22253e-06 -5.05773e-06 -5.49098e-27)
(4.27158e-06 -5.15621e-06 -1.32988e-26)
(4.31906e-06 -5.25254e-06 -3.81353e-27)
(4.36497e-06 -5.34698e-06 2.00751e-26)
(4.40928e-06 -5.4398e-06 3.95078e-27)
(4.45198e-06 -5.53126e-06 -2.85645e-26)
(4.49303e-06 -5.62162e-06 -1.99755e-26)
(4.5324e-06 -5.71113e-06 -8.27375e-27)
(4.57006e-06 -5.80005e-06 -1.70646e-26)
(4.60596e-06 -5.88859e-06 -2.86757e-28)
(4.64007e-06 -5.97699e-06 -2.25106e-28)
(4.67232e-06 -6.06546e-06 -1.31257e-26)
(4.70268e-06 -6.15417e-06 9.25216e-27)
(4.73108e-06 -6.24332e-06 4.23435e-28)
(4.75748e-06 -6.33306e-06 -2.74212e-26)
(4.7818e-06 -6.42354e-06 2.3167e-26)
(4.80396e-06 -6.51487e-06 2.783e-26)
(4.82386e-06 -6.60714e-06 -8.44461e-27)
(4.84137e-06 -6.70038e-06 -2.86341e-26)
(4.85635e-06 -6.79455e-06 -1.37684e-26)
(4.86861e-06 -6.88951e-06 5.60029e-27)
(4.87797e-06 -6.98496e-06 -4.08549e-26)
(4.88429e-06 -7.08036e-06 -3.69228e-26)
(4.88748e-06 -7.17497e-06 2.07728e-26)
(8.71564e-08 -4.92109e-08 2.51147e-27)
(8.65579e-08 -6.35877e-08 -2.18963e-26)
(8.86873e-08 -8.90704e-08 -6.38386e-27)
(9.77864e-08 -1.07978e-07 3.70377e-26)
(1.13932e-07 -1.215e-07 -1.13208e-26)
(1.36222e-07 -1.31457e-07 -1.86887e-26)
(1.63641e-07 -1.39076e-07 -7.26435e-27)
(1.95558e-07 -1.45425e-07 6.02555e-28)
(2.31561e-07 -1.51321e-07 1.02503e-26)
(2.71441e-07 -1.57456e-07 4.64006e-27)
(3.15109e-07 -1.64418e-07 -4.20786e-27)
(3.62574e-07 -1.72737e-07 -1.78209e-26)
(4.13909e-07 -1.82911e-07 6.93043e-27)
(4.6924e-07 -1.9543e-07 -4.52256e-27)
(5.28735e-07 -2.10796e-07 1.29788e-27)
(5.92602e-07 -2.29547e-07 3.27427e-27)
(6.61077e-07 -2.5227e-07 -7.4887e-27)
(7.34424e-07 -2.79627e-07 -1.25497e-26)
(8.12927e-07 -3.12369e-07 -3.49992e-27)
(8.96887e-07 -3.51355e-07 1.30635e-26)
(9.86613e-07 -3.97566e-07 1.21253e-27)
(1.08241e-06 -4.52118e-07 2.84063e-28)
(8.24e-08 4.33493e-08 -3.66197e-26)
(7.98173e-07 -1.82875e-07 -7.7222e-27)
(7.2762e-07 -1.27243e-07 -1.19548e-26)
(6.61759e-07 -8.00914e-08 1.42616e-26)
(6.00276e-07 -4.02687e-08 1.95399e-26)
(5.42882e-07 -6.76082e-09 2.41048e-27)
(4.89313e-07 2.13211e-08 -3.33536e-27)
(4.39331e-07 4.47505e-08 1.38818e-27)
(3.92723e-07 6.41927e-08 -1.21664e-27)
(3.49305e-07 8.02103e-08 1.963e-27)
(3.08929e-07 9.32653e-08 -5.27563e-27)
(2.71481e-07 1.03719e-07 -1.05232e-26)
(2.36887e-07 1.1183e-07 2.36852e-26)
(2.05124e-07 1.1775e-07 1.0054e-29)
(1.76226e-07 1.21512e-07 -1.21187e-26)
(1.5031e-07 1.23025e-07 2.23551e-26)
(1.27595e-07 1.22043e-07 -2.17971e-26)
(1.08469e-07 1.18155e-07 -2.81782e-26)
(9.349e-08 1.10696e-07 2.26717e-26)
(8.35283e-08 9.8835e-08 -3.96309e-27)
(7.93127e-08 8.12221e-08 -1.64875e-27)
(8.05421e-08 5.70459e-08 3.34837e-27)
)


// ************************************************************************* //
