/*--------------------------------*- C++ -*----------------------------------*\
| =========                 |                                                 |
| \\      /  F ield         | OpenFOAM Extend Project: Open source CFD        |
|  \\    /   O peration     | Version:  1.6-ext                               |
|   \\  /    A nd           | Web:      www.extend-project.de                 |
|    \\/     M anipulation  |                                                 |
\*---------------------------------------------------------------------------*/
FoamFile
{
    version     2.0;
    format      ascii;
    class       tetPointVectorField;
    location    "1.05";
    object      motionU;
}
// * * * * * * * * * * * * * * * * * * * * * * * * * * * * * * * * * * * * * //

dimensions      [0 1 -1 0 0 0 0];

internalField   nonuniform List<vector> 
147960
(
(0 0 0)
(-3.66172e-05 0.000238652 0)
(0.000120693 -0.00046595 2.75908e-23)
(-0.00042202 -0.000502469 1.28004e-25)
(-0.00134149 -0.0239058 -4.26096e-23)
(-0.00144563 -0.0235932 -1.43864e-23)
(-0.00144548 -0.023176 5.56571e-23)
(-0.00144528 -0.0227587 1.38977e-23)
(-0.00144495 -0.0223412 -2.16037e-24)
(-0.00144444 -0.0219235 -1.75578e-23)
(-0.00144375 -0.0215057 -3.64702e-23)
(-0.00144291 -0.0210878 -2.77164e-23)
(-0.00144193 -0.0206697 1.40738e-23)
(-0.00144085 -0.0202514 5.63485e-23)
(-0.00143971 -0.0198327 1.86809e-23)
(-0.00143855 -0.0194135 3.41091e-23)
(-0.00143741 -0.0189937 2.25327e-23)
(-0.00143632 -0.0185731 2.51286e-24)
(-0.00143532 -0.0181514 2.15619e-23)
(-0.00143441 -0.0177285 -6.44025e-24)
(-0.00143361 -0.0173041 2.57855e-24)
(-0.00143291 -0.016878 -1.87779e-23)
(-0.00143231 -0.0164499 -3.34344e-23)
(-0.00143176 -0.0160198 2.14028e-23)
(-0.00143124 -0.0155872 -2.13843e-23)
(-0.00143068 -0.0151522 -5.01894e-23)
(-0.00143002 -0.0147145 -1.32046e-23)
(-0.00142918 -0.014274 -9.45249e-24)
(-0.00142805 -0.0138308 1.01009e-23)
(-0.00142654 -0.0133847 -6.11413e-24)
(-0.00142451 -0.012936 3.33268e-24)
(-0.00142185 -0.0124847 3.16476e-23)
(-0.00141841 -0.012031 -1.18155e-23)
(-0.00141405 -0.0115753 -5.6434e-23)
(-0.00140863 -0.0111178 -4.7829e-23)
(-0.001402 -0.0106591 -2.01965e-23)
(-0.001394 -0.0101996 1.83822e-24)
(-0.0013845 -0.00973995 7.54907e-24)
(-0.00137335 -0.00928087 7.70108e-24)
(-0.00136042 -0.00882307 2.92211e-24)
(-0.0013456 -0.00836739 -4.95385e-24)
(-0.00132877 -0.00791471 3.8032e-25)
(-0.00130985 -0.00746595 3.59851e-24)
(-0.00128875 -0.0070221 -3.72282e-24)
(-0.00126542 -0.00658417 7.63877e-24)
(-0.00123983 -0.00615321 1.15115e-24)
(-0.00121196 -0.00573027 -6.84957e-24)
(-0.00118181 -0.00531641 -9.99444e-25)
(-0.00114941 -0.00491269 -3.71863e-24)
(-0.00111482 -0.00452012 -1.23053e-24)
(-0.0010781 -0.00413973 -3.14708e-24)
(-0.00103935 -0.00377245 2.89902e-24)
(-0.000998673 -0.00341919 6.41955e-24)
(-0.00095621 -0.00308081 1.09737e-24)
(-0.000912103 -0.00275807 3.58593e-24)
(-0.000866516 -0.00245167 4.80835e-24)
(-0.000819623 -0.0021622 1.50753e-25)
(-0.000771608 -0.0018902 -1.23676e-23)
(-0.000722665 -0.00163608 -7.12107e-24)
(-0.000672989 -0.00140015 1.8231e-24)
(-0.000622778 -0.00118266 1.39657e-23)
(-0.000572227 -0.000983715 4.95948e-24)
(-0.000521526 -0.000803355 3.30486e-24)
(-0.000470854 -0.000641525 2.21886e-23)
(-0.000612728 -0.0240074 -3.57979e-23)
(-0.00102909 -0.024009 -7.55188e-24)
(0.000115972 -0.0239 -5.68803e-23)
(-0.000196297 -0.0240056 -4.20015e-23)
(0.000141208 -0.000604948 9.97516e-24)
(0.000162887 -0.000766718 -1.61732e-23)
(0.000184905 -0.000947015 -1.36038e-23)
(0.000207106 -0.0011459 -5.30202e-25)
(0.000229323 -0.00136333 -2.45749e-25)
(0.000251381 -0.0015992 3.79315e-25)
(0.0002731 -0.00185328 1.59661e-23)
(0.000294303 -0.00212525 1.47244e-23)
(0.000314811 -0.00241469 3.67831e-24)
(0.000334453 -0.00272109 -1.36879e-24)
(0.000353068 -0.00304384 3.92213e-24)
(0.000370502 -0.00338225 1.16079e-23)
(0.000386617 -0.00373556 2.81324e-25)
(0.00040129 -0.00410291 -2.10331e-24)
(0.000414414 -0.00448342 3.81461e-24)
(0.0004259 -0.00487612 5.84789e-24)
(0.00043568 -0.00528002 5.59961e-24)
(0.000443706 -0.00569408 4.5226e-24)
(0.000449951 -0.00611726 5.20761e-25)
(0.00045441 -0.00654849 -9.34748e-24)
(0.000457097 -0.00698673 5.40927e-25)
(0.00045805 -0.00743094 1.64548e-23)
(0.000457325 -0.00788008 5.5963e-24)
(0.000454996 -0.0083332 -2.26071e-25)
(0.000451155 -0.00878934 -3.34697e-25)
(0.000445911 -0.00924763 9.82668e-24)
(0.000439384 -0.00970725 -4.85887e-25)
(0.000431706 -0.0101674 -1.94567e-23)
(0.000423019 -0.0106275 -8.04577e-24)
(0.000413469 -0.0110869 -8.82869e-24)
(0.000403208 -0.011545 1.84416e-23)
(0.000392389 -0.0120015 3.81913e-23)
(0.000381164 -0.0124559 1.16378e-23)
(0.000369682 -0.0129079 1.98907e-23)
(0.000358085 -0.0133574 3.33924e-23)
(0.000346511 -0.0138042 2.03591e-23)
(0.000335086 -0.0142483 -7.00491e-23)
(0.000323927 -0.0146896 -6.23359e-23)
(0.000313137 -0.0151281 2.94314e-23)
(0.000302808 -0.015564 1.43957e-23)
(0.000293019 -0.0159975 2.75862e-23)
(0.000283831 -0.0164285 4.23573e-23)
(0.000275295 -0.0168575 -1.29843e-23)
(0.000267445 -0.0172845 -7.21624e-24)
(0.000260302 -0.0177098 2.98228e-23)
(0.000253872 -0.0181336 1.14406e-23)
(0.00024815 -0.0185562 1.07427e-23)
(0.000243116 -0.0189778 -5.79058e-24)
(0.000238743 -0.0193985 -2.82675e-23)
(0.000234989 -0.0198186 -5.08719e-24)
(0.000231809 -0.0202382 1.59287e-23)
(0.000229147 -0.0206574 -2.41871e-23)
(0.000226946 -0.0210764 -3.13256e-23)
(0.000225144 -0.0214952 -1.71975e-23)
(0.000223683 -0.0219138 -2.24562e-23)
(0.00022251 -0.0223323 1.50378e-23)
(0.000221581 -0.0227506 -1.19281e-23)
(0.000220843 -0.0231687 -2.11376e-23)
(0.000220258 -0.0235865 -2.61891e-23)
(-0.00157253 -0.0193799 0)
(0.00013706 -0.0236849 0)
(0.000101893 -0.0235257 0)
(6.26367e-05 -0.0233439 0)
(1.05956e-05 -0.0231355 0)
(-5.23673e-05 -0.0229006 0)
(-0.000138301 -0.0226402 0)
(-0.000229491 -0.0223547 0)
(-0.000346459 -0.0220462 0)
(-0.000481254 -0.0217166 0)
(-0.000612292 -0.0213671 0)
(-0.000784812 -0.0209997 0)
(-0.000962552 -0.0206164 0)
(-0.00112438 -0.0202178 0)
(-0.00134418 -0.0198049 0)
(-0.000406817 -0.00102867 0)
(-0.000415457 -0.00117384 0)
(-0.000423645 -0.0013346 0)
(-0.000431712 -0.0015116 0)
(-0.000440497 -0.00170499 0)
(-0.000450134 -0.00191501 0)
(-0.000460586 -0.00214134 0)
(-0.000471566 -0.00238333 0)
(-0.00048293 -0.00264096 0)
(-0.000494393 -0.00291419 0)
(-0.000505586 -0.00320279 0)
(-0.000516374 -0.00350652 0)
(-0.000527097 -0.00382494 0)
(-0.00053839 -0.00415753 0)
(-0.000550851 -0.00450357 0)
(-0.000564879 -0.00486177 0)
(-0.000580574 -0.00523085 0)
(-0.000597731 -0.0056102 0)
(-0.00061604 -0.00599917 0)
(-0.000634783 -0.00639628 0)
(-0.000653789 -0.00680189 0)
(-0.0006731 -0.00721517 0)
(-0.00069209 -0.00763307 0)
(-0.00071101 -0.00805464 0)
(-0.00072992 -0.00847922 0)
(-0.000748902 -0.0089063 0)
(-0.000767936 -0.00933486 0)
(-0.000786868 -0.00976347 0)
(-0.000805508 -0.0101911 0)
(-0.000823675 -0.010617 0)
(-0.000841242 -0.0110403 0)
(-0.000858294 -0.01146 0)
(-0.000875198 -0.0118757 0)
(-0.000892372 -0.0122869 0)
(-0.000909812 -0.012693 0)
(-0.000926742 -0.0130931 0)
(-0.000943318 -0.0134885 0)
(-0.000959447 -0.0138797 0)
(-0.00097411 -0.0142641 0)
(-0.000987521 -0.0146411 0)
(-0.000999447 -0.0150105 0)
(-0.00100969 -0.0153725 0)
(-0.00101829 -0.0157263 0)
(-0.00102539 -0.0160712 0)
(-0.00103101 -0.0164079 0)
(-0.00103523 -0.0167343 0)
(-0.00103874 -0.0170498 0)
(-0.00104327 -0.0173563 0)
(-0.00105176 -0.0176476 0)
(-0.00106737 -0.0179253 0)
(-0.00109188 -0.0181889 0)
(-0.00112447 -0.0184329 0)
(-0.00116169 -0.0186598 0)
(-0.00120028 -0.0188618 0)
(-0.00123891 -0.0190392 0)
(-0.00127871 -0.0191867 0)
(-0.00132226 -0.0193021 0)
(-0.00137225 -0.0193819 0)
(-0.00143082 -0.0194232 0)
(-0.00150043 -0.0194229 0)
(-0.00265926 -0.0194793 0)
(-0.00246106 -0.0198856 0)
(-0.00226204 -0.0202819 0)
(-0.00213829 -0.0206652 0)
(-0.00201056 -0.021037 0)
(-0.00185997 -0.0213945 0)
(-0.00175321 -0.0217354 0)
(-0.00166216 -0.0220592 0)
(-0.00156459 -0.0223628 0)
(-0.0014963 -0.0226448 0)
(-0.00144299 -0.0229034 0)
(-0.00139739 -0.0231371 0)
(-0.0013726 -0.0233455 0)
(-0.00136116 -0.0235279 0)
(-0.00136647 -0.0236885 0)
(-0.000450218 -0.000982407 0)
(-0.000416414 -0.000499981 0)
(-0.00041104 -0.000507172 0)
(-0.000405472 -0.000524614 0)
(-0.000400535 -0.000550831 0)
(-0.0003972 -0.00058418 0)
(-0.000394747 -0.000623215 0)
(-0.0003944 -0.000668224 0)
(-0.000397002 -0.000715764 0)
(-0.000399864 -0.00076444 0)
(-0.00040671 -0.000813622 0)
(-0.000414175 -0.00085907 0)
(-0.000421058 -0.000900716 0)
(-0.000434198 -0.000936139 0)
(-0.0004461 -0.000963732 0)
(-0.00262749 -0.0195163 0)
(-0.00259988 -0.0195109 0)
(-0.00257768 -0.0194639 0)
(-0.00255922 -0.0193792 0)
(-0.00254269 -0.0192589 0)
(-0.00252573 -0.019107 0)
(-0.0025057 -0.0189253 0)
(-0.00248175 -0.0187194 0)
(-0.00245623 -0.0184888 0)
(-0.00243365 -0.0182417 0)
(-0.00241848 -0.0179745 0)
(-0.00241162 -0.0176936 0)
(-0.00241089 -0.0173988 0)
(-0.00241259 -0.0170892 0)
(-0.00241333 -0.0167711 0)
(-0.00241125 -0.0164415 0)
(-0.0024057 -0.0161019 0)
(-0.00239672 -0.0157542 0)
(-0.00238447 -0.0153974 0)
(-0.00236895 -0.0150326 0)
(-0.00235022 -0.0146604 0)
(-0.00232857 -0.0142805 0)
(-0.00230435 -0.0138932 0)
(-0.00227745 -0.0134992 0)
(-0.00224865 -0.0131009 0)
(-0.00221797 -0.0126979 0)
(-0.00218535 -0.0122889 0)
(-0.00215157 -0.0118749 0)
(-0.00211659 -0.0114564 0)
(-0.00207986 -0.0110339 0)
(-0.00204092 -0.010608 0)
(-0.00199964 -0.0101797 0)
(-0.00195611 -0.00974979 0)
(-0.00191052 -0.00931905 0)
(-0.00186301 -0.00888855 0)
(-0.00181376 -0.00845966 0)
(-0.00176281 -0.0080334 0)
(-0.00171015 -0.00761026 0)
(-0.0016558 -0.00719093 0)
(-0.00159968 -0.00677635 0)
(-0.00154235 -0.00636952 0)
(-0.00148389 -0.0059713 0)
(-0.00142446 -0.00558131 0)
(-0.00136459 -0.005201 0)
(-0.00130451 -0.00483095 0)
(-0.00124437 -0.00447179 0)
(-0.0011842 -0.00412476 0)
(-0.00112395 -0.00379117 0)
(-0.00106356 -0.00347189 0)
(-0.00100299 -0.00316749 0)
(-0.000942353 -0.0028783 0)
(-0.000881977 -0.0026045 0)
(-0.000822299 -0.00234639 0)
(-0.000763701 -0.00210397 0)
(-0.000706469 -0.00187713 0)
(-0.000650901 -0.00166628 0)
(-0.000597496 -0.00147184 0)
(-0.000546457 -0.00129333 0)
(-0.00049736 -0.00113046 0)
(-0.000491656 -0.00110909 0)
(-0.000476629 -0.00107892 0)
(-0.000464221 -0.00103978 0)
(-0.000459843 -0.000996658 0)
(-0.000452432 -0.000948875 0)
(-0.00044563 -0.00089914 0)
(-0.000444645 -0.000849352 0)
(-0.00044228 -0.000801055 0)
(-0.000442829 -0.00075883 0)
(-0.00044665 -0.000719291 0)
(-0.000449834 -0.000687761 0)
(-0.00045555 -0.00066404 0)
(-0.000461157 -0.000648025 0)
(-0.000466605 -0.000641613 0)
(-0.00053805 -0.00127023 0)
(-0.000520682 -0.00123666 0)
(-0.000510922 -0.00119489 0)
(-0.000507387 -0.00115053 0)
(-0.000498756 -0.00110034 0)
(-0.000493549 -0.00104967 0)
(-0.000493161 -0.00100086 0)
(-0.000490593 -0.000952081 0)
(-0.000492322 -0.000910126 0)
(-0.000496241 -0.000873538 0)
(-0.000499792 -0.000843458 0)
(-0.000505842 -0.000820694 0)
(-0.000511563 -0.000806649 0)
(-0.00051694 -0.000801589 0)
(-0.000585916 -0.00144615 0)
(-0.000567267 -0.00140973 0)
(-0.00055975 -0.00136637 0)
(-0.000556067 -0.00132004 0)
(-0.000546269 -0.00126863 0)
(-0.000542385 -0.00121811 0)
(-0.000542379 -0.00116767 0)
(-0.000539424 -0.00112093 0)
(-0.000542184 -0.00108134 0)
(-0.000546204 -0.00104412 0)
(-0.000549783 -0.00101673 0)
(-0.000556246 -0.000996204 0)
(-0.000562026 -0.000983651 0)
(-0.000567523 -0.000980472 0)
(-0.000635923 -0.0016382 0)
(-0.000615864 -0.00159854 0)
(-0.000610044 -0.00155423 0)
(-0.000605822 -0.00150667 0)
(-0.000594753 -0.00145337 0)
(-0.000591879 -0.00140342 0)
(-0.000592183 -0.00135408 0)
(-0.000588637 -0.00130653 0)
(-0.000591973 -0.00126893 0)
(-0.000596351 -0.00123428 0)
(-0.000599802 -0.00120803 0)
(-0.000606508 -0.00118971 0)
(-0.00061243 -0.00117928 0)
(-0.000618026 -0.00117803 0)
(-0.000687696 -0.00184632 0)
(-0.000665816 -0.00180349 0)
(-0.000661338 -0.001758 0)
(-0.000656499 -0.00170923 0)
(-0.00064375 -0.00165516 0)
(-0.00064159 -0.00160568 0)
(-0.000642348 -0.00155636 0)
(-0.000638026 -0.00151107 0)
(-0.000641653 -0.00147483 0)
(-0.000646302 -0.00144113 0)
(-0.000649687 -0.00141797 0)
(-0.000656517 -0.00140177 0)
(-0.000662512 -0.00139345 0)
(-0.000668192 -0.00139412 0)
(-0.000740913 -0.00207047 0)
(-0.000716656 -0.00202408 0)
(-0.00071332 -0.001978 0)
(-0.000708035 -0.00192841 0)
(-0.000693266 -0.00187275 0)
(-0.000691346 -0.00182539 0)
(-0.000692648 -0.00177698 0)
(-0.000687511 -0.00173154 0)
(-0.00069103 -0.00169871 0)
(-0.000695865 -0.00166671 0)
(-0.000699152 -0.00164549 0)
(-0.000706102 -0.00163211 0)
(-0.000712105 -0.001626 0)
(-0.000717836 -0.00162869 0)
(-0.00079541 -0.00231074 0)
(-0.000768208 -0.00226078 0)
(-0.000765696 -0.00221384 0)
(-0.000760188 -0.00216449 0)
(-0.000743262 -0.00210776 0)
(-0.000741002 -0.00206088 0)
(-0.000742675 -0.00201459 0)
(-0.000736869 -0.00197069 0)
(-0.000740094 -0.00193922 0)
(-0.000744753 -0.00190975 0)
(-0.000747908 -0.00189112 0)
(-0.000755022 -0.0018805 0)
(-0.00076103 -0.00187671 0)
(-0.000766768 -0.00188144 0)
(-0.000851074 -0.00256719 0)
(-0.000820377 -0.00251401 0)
(-0.000818174 -0.00246623 0)
(-0.000812483 -0.00241659 0)
(-0.000793398 -0.00235922 0)
(-0.000790498 -0.00231394 0)
(-0.00079214 -0.00226817 0)
(-0.000785635 -0.00222655 0)
(-0.000788669 -0.00219817 0)
(-0.00079313 -0.00217086 0)
(-0.000795904 -0.00215499 0)
(-0.000803041 -0.00214682 0)
(-0.00080905 -0.00214537 0)
(-0.00081479 -0.0021521 0)
(-0.000907653 -0.00283983 0)
(-0.000873099 -0.00278363 0)
(-0.000870579 -0.00273515 0)
(-0.000864698 -0.00268632 0)
(-0.000843568 -0.00262773 0)
(-0.000839733 -0.00258363 0)
(-0.000840922 -0.00253918 0)
(-0.000833479 -0.0024988 0)
(-0.000836343 -0.0024739 0)
(-0.000840566 -0.00244918 0)
(-0.000842897 -0.00243599 0)
(-0.000850008 -0.00243057 0)
(-0.000855983 -0.00243148 0)
(-0.000861709 -0.00244025 0)
(-0.00096471 -0.0031281 0)
(-0.000926251 -0.00306951 0)
(-0.000922899 -0.00302004 0)
(-0.000916282 -0.00297145 0)
(-0.000893191 -0.00291269 0)
(-0.00088847 -0.00286967 0)
(-0.000888965 -0.0028267 0)
(-0.000880317 -0.00278816 0)
(-0.000882878 -0.00276603 0)
(-0.000886836 -0.00274406 0)
(-0.000888738 -0.00273395 0)
(-0.000895789 -0.00273129 0)
(-0.000901672 -0.00273455 0)
(-0.000907341 -0.00274536 0)
(-0.00102176 -0.00343131 0)
(-0.000979566 -0.0033707 0)
(-0.000975153 -0.00332061 0)
(-0.000967282 -0.00327176 0)
(-0.000941961 -0.00321301 0)
(-0.000936381 -0.00317196 0)
(-0.000936169 -0.00313048 0)
(-0.000926146 -0.00309391 0)
(-0.000928213 -0.00307467 0)
(-0.000931785 -0.00305507 0)
(-0.000933222 -0.00304814 0)
(-0.000940194 -0.00304835 0)
(-0.000945942 -0.00305402 0)
(-0.000951512 -0.00306684 0)
(-0.0010784 -0.00374906 0)
(-0.00103257 -0.00368633 0)
(-0.00102706 -0.00363601 0)
(-0.00101757 -0.00358707 0)
(-0.000989743 -0.00352839 0)
(-0.000983176 -0.00348935 0)
(-0.000982256 -0.00344993 0)
(-0.000970776 -0.00341537 0)
(-0.000972228 -0.00339908 0)
(-0.000975311 -0.0033818 0)
(-0.000976213 -0.00337793 0)
(-0.000983054 -0.00338106 0)
(-0.000988616 -0.00338919 0)
(-0.000994054 -0.00340402 0)
(-0.0011344 -0.00408137 0)
(-0.00108478 -0.00401653 0)
(-0.00107834 -0.00396688 0)
(-0.00106715 -0.00391809 0)
(-0.00103648 -0.00385892 0)
(-0.00102872 -0.00382154 0)
(-0.00102697 -0.00378408 0)
(-0.00101394 -0.0037517 0)
(-0.00101473 -0.00373841 0)
(-0.00101729 -0.00372358 0)
(-0.00101759 -0.00372279 0)
(-0.00102424 -0.00372879 0)
(-0.00102955 -0.00373933 0)
(-0.00103482 -0.00375613 0)
(-0.00118974 -0.00442768 0)
(-0.00113597 -0.00436066 0)
(-0.00112848 -0.00431084 0)
(-0.00111561 -0.00426261 0)
(-0.00108199 -0.00420358 0)
(-0.00107297 -0.00416817 0)
(-0.00107025 -0.00413249 0)
(-0.00105553 -0.00410214 0)
(-0.00105558 -0.00409187 0)
(-0.00105757 -0.00407962 0)
(-0.00105723 -0.00408199 0)
(-0.00106361 -0.0040908 0)
(-0.00106861 -0.00410365 0)
(-0.00107368 -0.00412232 0)
(-0.00124456 -0.00478656 0)
(-0.00118625 -0.00471737 0)
(-0.00117746 -0.00466711 0)
(-0.00116282 -0.00462006 0)
(-0.00112616 -0.00456144 0)
(-0.00111582 -0.00452828 0)
(-0.00111201 -0.00449447 0)
(-0.00109543 -0.00446605 0)
(-0.00109466 -0.00445875 0)
(-0.00109601 -0.00444912 0)
(-0.00109496 -0.00445464 0)
(-0.00110104 -0.00446616 0)
(-0.0011057 -0.00448123 0)
(-0.00111052 -0.0045017 0)
(-0.00129895 -0.00515687 0)
(-0.00123585 -0.00508711 0)
(-0.00122545 -0.00503672 0)
(-0.00120875 -0.00499009 0)
(-0.00116892 -0.00493181 0)
(-0.00115712 -0.00490088 0)
(-0.00115206 -0.00486899 0)
(-0.0011335 -0.00484254 0)
(-0.00113184 -0.00483817 0)
(-0.0011325 -0.00483115 0)
(-0.00113066 -0.00483978 0)
(-0.00113638 -0.00485392 0)
(-0.00114068 -0.00487112 0)
(-0.00114525 -0.00489332 0)
(-0.00135277 -0.00553741 0)
(-0.00128436 -0.00546673 0)
(-0.00127221 -0.0054172 0)
(-0.00125337 -0.00537165 0)
(-0.00121018 -0.00531383 0)
(-0.00119671 -0.00528509 0)
(-0.00119026 -0.00525516 0)
(-0.00116966 -0.00523077 0)
(-0.00116705 -0.00522898 0)
(-0.00116695 -0.00522452 0)
(-0.00116428 -0.00523649 0)
(-0.00116958 -0.00525311 0)
(-0.00117348 -0.00527237 0)
(-0.0011778 -0.0052962 0)
(-0.00140595 -0.00592697 0)
(-0.00133177 -0.00585511 0)
(-0.0013178 -0.00580747 0)
(-0.00129663 -0.00576353 0)
(-0.00124982 -0.00570648 0)
(-0.00123453 -0.00568008 0)
(-0.00122663 -0.00565228 0)
(-0.00120398 -0.00563023 0)
(-0.00120046 -0.00563214 0)
(-0.00119948 -0.00562974 0)
(-0.00119582 -0.00564394 0)
(-0.00120063 -0.00566283 0)
(-0.00120409 -0.00568401 0)
(-0.00120811 -0.00570931 0)
(-0.00145835 -0.00632632 0)
(-0.00137824 -0.00625339 0)
(-0.00136218 -0.00620689 0)
(-0.00133842 -0.00616465 0)
(-0.00128777 -0.00610868 0)
(-0.00127059 -0.00608487 0)
(-0.00126123 -0.00605938 0)
(-0.00123646 -0.00603971 0)
(-0.00123189 -0.00604459 0)
(-0.00122995 -0.0060444 0)
(-0.00122525 -0.00606102 0)
(-0.00122953 -0.00608207 0)
(-0.00123249 -0.006105 0)
(-0.00123615 -0.0061316 0)
(-0.00150888 -0.00673263 0)
(-0.00142324 -0.00665961 0)
(-0.00140509 -0.00661449 0)
(-0.00137856 -0.00657399 0)
(-0.00132395 -0.00651933 0)
(-0.00130485 -0.00649829 0)
(-0.00129398 -0.00647519 0)
(-0.00126698 -0.00645786 0)
(-0.00126125 -0.00646553 0)
(-0.00125828 -0.00646757 0)
(-0.00125251 -0.00648662 0)
(-0.00125623 -0.00650974 0)
(-0.00125865 -0.00653425 0)
(-0.00126194 -0.006562 0)
(-0.001558 -0.0071469 0)
(-0.00146669 -0.00707296 0)
(-0.00144635 -0.00702906 0)
(-0.00141692 -0.00699037 0)
(-0.00135827 -0.00693725 0)
(-0.00133724 -0.00691907 0)
(-0.00132479 -0.00689846 0)
(-0.00129546 -0.00688353 0)
(-0.00128849 -0.00689396 0)
(-0.00128443 -0.00689825 0)
(-0.00127755 -0.00691967 0)
(-0.00128067 -0.00694473 0)
(-0.00128255 -0.00697067 0)
(-0.00128547 -0.00699945 0)
(-0.00160558 -0.00756651 0)
(-0.00150842 -0.00749205 0)
(-0.0014858 -0.00744952 0)
(-0.00145343 -0.00741277 0)
(-0.00139073 -0.00736132 0)
(-0.00136775 -0.00734607 0)
(-0.00135368 -0.00732807 0)
(-0.00132194 -0.00731564 0)
(-0.00131364 -0.00732886 0)
(-0.00130843 -0.00733543 0)
(-0.00130039 -0.00735915 0)
(-0.00130289 -0.00738602 0)
(-0.00130422 -0.00741323 0)
(-0.00130677 -0.00744293 0)
(-0.0016514 -0.00799042 0)
(-0.00154833 -0.00791603 0)
(-0.00152342 -0.00787521 0)
(-0.00148813 -0.00784048 0)
(-0.00142141 -0.0077907 0)
(-0.00139649 -0.00777833 0)
(-0.00138072 -0.00776296 0)
(-0.00134647 -0.00775304 0)
(-0.00133676 -0.0077691 0)
(-0.00133034 -0.00777804 0)
(-0.00132111 -0.00780399 0)
(-0.00132297 -0.00783254 0)
(-0.00132371 -0.00786092 0)
(-0.0013259 -0.00789141 0)
(-0.00169547 -0.00841796 0)
(-0.00158647 -0.0083443 0)
(-0.00155931 -0.00830551 0)
(-0.00152113 -0.00827285 0)
(-0.00145037 -0.00822475 0)
(-0.00142346 -0.00821516 0)
(-0.00140591 -0.00820235 0)
(-0.00136908 -0.00819463 0)
(-0.00135789 -0.00821356 0)
(-0.00135023 -0.00822518 0)
(-0.0013398 -0.00825321 0)
(-0.00134098 -0.00828332 0)
(-0.00134111 -0.00831276 0)
(-0.00134292 -0.00834393 0)
(-0.00173784 -0.00884845 0)
(-0.00162294 -0.00877598 0)
(-0.00159355 -0.00873954 0)
(-0.00155243 -0.00870919 0)
(-0.00147755 -0.00866298 0)
(-0.00144855 -0.00865613 0)
(-0.00142916 -0.00864596 0)
(-0.00138978 -0.00864154 0)
(-0.00137705 -0.00866289 0)
(-0.00136811 -0.0086761 0)
(-0.00135648 -0.00870593 0)
(-0.00135699 -0.00873744 0)
(-0.00135651 -0.00876782 0)
(-0.00135794 -0.00879954 0)
(-0.0017785 -0.00928082 0)
(-0.00165775 -0.00920991 0)
(-0.0016261 -0.00917621 0)
(-0.00158195 -0.00914859 0)
(-0.00150288 -0.00910459 0)
(-0.00147176 -0.00910046 0)
(-0.00145053 -0.00909278 0)
(-0.00140854 -0.00909089 0)
(-0.00139432 -0.00911472 0)
(-0.00138407 -0.00912976 0)
(-0.00137122 -0.0091613 0)
(-0.00137109 -0.00919406 0)
(-0.00137002 -0.00922523 0)
(-0.00137107 -0.00925736 0)
(-0.00181733 -0.00971383 0)
(-0.00169077 -0.00964494 0)
(-0.00165688 -0.00961431 0)
(-0.00160967 -0.00958977 0)
(-0.00152643 -0.00954837 0)
(-0.00149326 -0.00954709 0)
(-0.0014702 -0.00954178 0)
(-0.0014256 -0.00954222 0)
(-0.00140991 -0.00956851 0)
(-0.00139832 -0.00958543 0)
(-0.00138417 -0.00961854 0)
(-0.00138339 -0.00965239 0)
(-0.00138175 -0.00968419 0)
(-0.00138241 -0.00971655 0)
(-0.00185415 -0.0101466 0)
(-0.00172189 -0.0100802 0)
(-0.00168581 -0.0100529 0)
(-0.0016356 -0.0100317 0)
(-0.00154824 -0.00999333 0)
(-0.00151302 -0.00999512 0)
(-0.00148814 -0.00999188 0)
(-0.00144083 -0.00999467 0)
(-0.00142383 -0.0100237 0)
(-0.00141095 -0.0100425 0)
(-0.00139548 -0.0100769 0)
(-0.00139402 -0.0101117 0)
(-0.00139182 -0.0101439 0)
(-0.00139209 -0.0101764 0)
(-0.00188881 -0.0105783 0)
(-0.00175098 -0.010515 0)
(-0.0017128 -0.0104913 0)
(-0.00165964 -0.0104737 0)
(-0.0015682 -0.0104387 0)
(-0.00153099 -0.010444 0)
(-0.00150437 -0.0104442 0)
(-0.0014544 -0.0104492 0)
(-0.00143611 -0.0104799 0)
(-0.00142201 -0.0105002 0)
(-0.00140527 -0.0105359 0)
(-0.00140313 -0.0105713 0)
(-0.00140034 -0.0106038 0)
(-0.00140025 -0.0106361 0)
(-0.0019212 -0.0110081 0)
(-0.00177793 -0.0109485 0)
(-0.00173775 -0.0109288 0)
(-0.00168171 -0.0109151 0)
(-0.00158634 -0.0108838 0)
(-0.00154725 -0.0108926 0)
(-0.00151892 -0.010896 0)
(-0.0014665 -0.0109036 0)
(-0.00144687 -0.0109362 0)
(-0.00143158 -0.010958 0)
(-0.00141364 -0.0109946 0)
(-0.00141083 -0.0110305 0)
(-0.00140746 -0.0110631 0)
(-0.00140704 -0.0110952 0)
(-0.00195139 -0.0114351 0)
(-0.00180279 -0.0113798 0)
(-0.00176071 -0.0113647 0)
(-0.00170192 -0.0113552 0)
(-0.00160276 -0.0113279 0)
(-0.00156189 -0.0113401 0)
(-0.00153186 -0.0113466 0)
(-0.00147718 -0.0113575 0)
(-0.00145625 -0.0113921 0)
(-0.00143982 -0.0114152 0)
(-0.00142075 -0.0114526 0)
(-0.00141727 -0.0114888 0)
(-0.00141334 -0.0115213 0)
(-0.00141261 -0.0115532 0)
(-0.00197976 -0.0118589 0)
(-0.00182586 -0.0118086 0)
(-0.00178193 -0.0117983 0)
(-0.00172044 -0.0117935 0)
(-0.00161756 -0.0117709 0)
(-0.00157497 -0.0117877 0)
(-0.00154329 -0.0117975 0)
(-0.00148647 -0.0118106 0)
(-0.00146438 -0.011847 0)
(-0.00144692 -0.0118714 0)
(-0.00142674 -0.0119095 0)
(-0.00142261 -0.0119457 0)
(-0.00141815 -0.011978 0)
(-0.0014171 -0.0120094 0)
(-0.00200682 -0.0122789 0)
(-0.00184757 -0.0122344 0)
(-0.00180169 -0.0122295 0)
(-0.00173748 -0.0122297 0)
(-0.00163095 -0.0122116 0)
(-0.00158655 -0.0122329 0)
(-0.00155342 -0.0122466 0)
(-0.00149453 -0.0122623 0)
(-0.00147145 -0.0123004 0)
(-0.00145299 -0.012326 0)
(-0.00143173 -0.0123646 0)
(-0.001427 -0.0124009 0)
(-0.00142204 -0.0124328 0)
(-0.00142067 -0.0124636 0)
(-0.00203273 -0.0126946 0)
(-0.00186804 -0.0126567 0)
(-0.0018201 -0.0126578 0)
(-0.0017532 -0.0126632 0)
(-0.00164282 -0.0126512 0)
(-0.00159681 -0.0126771 0)
(-0.00156233 -0.0126938 0)
(-0.00150152 -0.0127122 0)
(-0.00147749 -0.0127519 0)
(-0.00145808 -0.0127787 0)
(-0.00143584 -0.0128177 0)
(-0.00143059 -0.0128539 0)
(-0.00142514 -0.0128854 0)
(-0.00142346 -0.0129156 0)
(-0.00205705 -0.0131055 0)
(-0.001887 -0.0130752 0)
(-0.00183704 -0.0130829 0)
(-0.00176733 -0.0130952 0)
(-0.00165328 -0.0130891 0)
(-0.00160587 -0.0131188 0)
(-0.00157014 -0.0131389 0)
(-0.00150749 -0.0131601 0)
(-0.00148256 -0.0132013 0)
(-0.0014623 -0.0132292 0)
(-0.0014392 -0.0132685 0)
(-0.00143349 -0.0133045 0)
(-0.00142758 -0.0133356 0)
(-0.0014256 -0.013365 0)
(-0.00207931 -0.0135114 0)
(-0.00190415 -0.0134897 0)
(-0.0018524 -0.0135057 0)
(-0.00177993 -0.0135246 0)
(-0.00166263 -0.0135237 0)
(-0.00161386 -0.0135576 0)
(-0.00157691 -0.0135815 0)
(-0.00151249 -0.0136056 0)
(-0.00148677 -0.0136484 0)
(-0.00146578 -0.0136774 0)
(-0.00144192 -0.0137169 0)
(-0.0014358 -0.0137526 0)
(-0.00142945 -0.0137831 0)
(-0.00142721 -0.0138117 0)
(-0.0020999 -0.0139152 0)
(-0.00191978 -0.0139026 0)
(-0.00186617 -0.0139255 0)
(-0.00179118 -0.01395 0)
(-0.0016707 -0.0139549 0)
(-0.00162068 -0.0139933 0)
(-0.00158265 -0.014021 0)
(-0.00151663 -0.0140483 0)
(-0.00149025 -0.0140929 0)
(-0.00146864 -0.0141231 0)
(-0.00144407 -0.0141628 0)
(-0.00143757 -0.0141981 0)
(-0.00143087 -0.0142279 0)
(-0.00142841 -0.0142557 0)
(-0.00211832 -0.0143124 0)
(-0.00193359 -0.0143094 0)
(-0.00187828 -0.01434 0)
(-0.00180088 -0.0143712 0)
(-0.00167749 -0.0143826 0)
(-0.00162645 -0.0144257 0)
(-0.0015875 -0.0144575 0)
(-0.00152004 -0.0144881 0)
(-0.00149307 -0.0145346 0)
(-0.00147087 -0.0145661 0)
(-0.00144567 -0.014606 0)
(-0.0014389 -0.014641 0)
(-0.00143193 -0.0146701 0)
(-0.00142932 -0.0146969 0)
(-0.00213462 -0.0147027 0)
(-0.00194565 -0.0147102 0)
(-0.00188882 -0.0147493 0)
(-0.00180925 -0.0147881 0)
(-0.0016832 -0.0148064 0)
(-0.00163127 -0.0148546 0)
(-0.00159148 -0.0148908 0)
(-0.00152266 -0.0149249 0)
(-0.00149519 -0.0149734 0)
(-0.00147252 -0.0150064 0)
(-0.00144683 -0.0150466 0)
(-0.00143989 -0.0150811 0)
(-0.00143274 -0.0151095 0)
(-0.00143002 -0.0151354 0)
(-0.00214844 -0.0150862 0)
(-0.00195567 -0.0151049 0)
(-0.0018976 -0.0151536 0)
(-0.0018161 -0.0152004 0)
(-0.00168761 -0.0152263 0)
(-0.00163492 -0.01528 0)
(-0.00159441 -0.0153208 0)
(-0.00152444 -0.0153587 0)
(-0.00149666 -0.0154093 0)
(-0.00147371 -0.0154439 0)
(-0.0014477 -0.0154845 0)
(-0.0014407 -0.0155187 0)
(-0.00143342 -0.0155463 0)
(-0.00143061 -0.0155712 0)
(-0.00215937 -0.0154626 0)
(-0.00196318 -0.0154936 0)
(-0.00190414 -0.0155523 0)
(-0.00182101 -0.0156077 0)
(-0.00169042 -0.0156422 0)
(-0.00163727 -0.0157016 0)
(-0.00159637 -0.0157476 0)
(-0.00152558 -0.0157896 0)
(-0.00149776 -0.0158425 0)
(-0.00147471 -0.0158788 0)
(-0.00144846 -0.0159198 0)
(-0.00144144 -0.0159537 0)
(-0.00143405 -0.0159807 0)
(-0.00143116 -0.0160045 0)
(-0.00216733 -0.0158316 0)
(-0.00196808 -0.0158758 0)
(-0.0019084 -0.0159446 0)
(-0.00182404 -0.0160099 0)
(-0.00169188 -0.0160534 0)
(-0.00163874 -0.0161195 0)
(-0.00159786 -0.0161712 0)
(-0.0015266 -0.0162175 0)
(-0.00149889 -0.0162729 0)
(-0.00147579 -0.0163111 0)
(-0.00144931 -0.0163526 0)
(-0.00144222 -0.0163864 0)
(-0.00143469 -0.0164126 0)
(-0.00143172 -0.0164355 0)
(-0.00217247 -0.0161933 0)
(-0.00197067 -0.0162502 0)
(-0.00191084 -0.0163309 0)
(-0.00182587 -0.0164065 0)
(-0.00169281 -0.0164595 0)
(-0.00164022 -0.0165334 0)
(-0.00159968 -0.016591 0)
(-0.0015281 -0.0166425 0)
(-0.00150047 -0.0167006 0)
(-0.00147718 -0.016741 0)
(-0.00145034 -0.0167831 0)
(-0.00144309 -0.0168167 0)
(-0.00143539 -0.0168424 0)
(-0.00143233 -0.0168643 0)
(-0.00217492 -0.0165458 0)
(-0.00197142 -0.0166174 0)
(-0.00191228 -0.0167109 0)
(-0.00182759 -0.0167964 0)
(-0.00169443 -0.016861 0)
(-0.00164277 -0.0169422 0)
(-0.00160262 -0.0170072 0)
(-0.0015305 -0.0170641 0)
(-0.0015026 -0.0171255 0)
(-0.00147884 -0.0171684 0)
(-0.0014515 -0.0172114 0)
(-0.00144403 -0.0172451 0)
(-0.00143616 -0.0172702 0)
(-0.00143303 -0.0172912 0)
(-0.00217508 -0.0168893 0)
(-0.00197125 -0.016978 0)
(-0.00191413 -0.0170822 0)
(-0.00183076 -0.0171808 0)
(-0.00169803 -0.0172561 0)
(-0.00164716 -0.0173463 0)
(-0.00160675 -0.0174193 0)
(-0.00153346 -0.0174821 0)
(-0.00150484 -0.0175477 0)
(-0.00148045 -0.0175935 0)
(-0.00145262 -0.0176377 0)
(-0.00144499 -0.0176715 0)
(-0.00143699 -0.0176963 0)
(-0.00143382 -0.0177164 0)
(-0.00217425 -0.0172258 0)
(-0.00197212 -0.0173275 0)
(-0.00191842 -0.0174469 0)
(-0.00183689 -0.0175578 0)
(-0.00170411 -0.0176452 0)
(-0.00165275 -0.0177456 0)
(-0.00161097 -0.0178263 0)
(-0.00153598 -0.0178968 0)
(-0.00150665 -0.0179667 0)
(-0.00148186 -0.0180163 0)
(-0.00145372 -0.0180621 0)
(-0.00144601 -0.0180964 0)
(-0.00143792 -0.0181208 0)
(-0.00143472 -0.01814 0)
(-0.00217511 -0.0175487 0)
(-0.00197665 -0.0176689 0)
(-0.00192681 -0.0178034 0)
(-0.001846 -0.0179266 0)
(-0.00171103 -0.0180286 0)
(-0.00165756 -0.0181381 0)
(-0.00161399 -0.0182291 0)
(-0.00153789 -0.0183073 0)
(-0.00150849 -0.0183827 0)
(-0.00148352 -0.0184364 0)
(-0.00145507 -0.0184844 0)
(-0.00144719 -0.0185196 0)
(-0.00143896 -0.018544 0)
(-0.00143571 -0.0185624 0)
(-0.00218085 -0.0178612 0)
(-0.00198662 -0.0180009 0)
(-0.00193876 -0.018149 0)
(-0.00185531 -0.0182884 0)
(-0.00171607 -0.0184031 0)
(-0.00166066 -0.018525 0)
(-0.00161684 -0.0186262 0)
(-0.00154072 -0.0187133 0)
(-0.00151113 -0.018795 0)
(-0.00148551 -0.0188538 0)
(-0.00145646 -0.0189047 0)
(-0.00144837 -0.0189412 0)
(-0.00144003 -0.0189659 0)
(-0.00143677 -0.0189837 0)
(-0.00219346 -0.0181623 0)
(-0.00200109 -0.0183185 0)
(-0.00195049 -0.0184853 0)
(-0.00186167 -0.0186385 0)
(-0.00171927 -0.0187698 0)
(-0.00166471 -0.0189041 0)
(-0.00162186 -0.019017 0)
(-0.00154454 -0.0191142 0)
(-0.00151348 -0.0192032 0)
(-0.00148688 -0.0192683 0)
(-0.00145752 -0.0193229 0)
(-0.00144947 -0.0193614 0)
(-0.00144112 -0.0193868 0)
(-0.00143788 -0.0194042 0)
(-0.00221194 -0.0184455 0)
(-0.00201559 -0.0186248 0)
(-0.00195858 -0.0188072 0)
(-0.00186616 -0.0189785 0)
(-0.00172478 -0.0191261 0)
(-0.00167217 -0.0192743 0)
(-0.00162727 -0.0194006 0)
(-0.00154663 -0.0195092 0)
(-0.00151444 -0.0196069 0)
(-0.00148804 -0.0196798 0)
(-0.00145893 -0.0197389 0)
(-0.00145077 -0.0197803 0)
(-0.00144227 -0.0198068 0)
(-0.00143902 -0.0198239 0)
(-0.0022316 -0.0187158 0)
(-0.00202632 -0.0189134 0)
(-0.00196448 -0.0191158 0)
(-0.00187383 -0.0193046 0)
(-0.00173482 -0.0194704 0)
(-0.00167925 -0.0196347 0)
(-0.00162949 -0.0197752 0)
(-0.00154734 -0.0198967 0)
(-0.00151633 -0.0200058 0)
(-0.00149061 -0.020087 0)
(-0.00146066 -0.0201523 0)
(-0.00145181 -0.0201976 0)
(-0.00144331 -0.020226 0)
(-0.00144014 -0.0202432 0)
(-0.00224818 -0.0189643 0)
(-0.00203404 -0.0191853 0)
(-0.00197344 -0.0194069 0)
(-0.00188719 -0.019615 0)