/*--------------------------------*- C++ -*----------------------------------*\
| =========                 |                                                 |
| \\      /  F ield         | OpenFOAM Extend Project: Open source CFD        |
|  \\    /   O peration     | Version:  1.6-ext                               |
|   \\  /    A nd           | Web:      www.extend-project.de                 |
|    \\/     M anipulation  |                                                 |
\*---------------------------------------------------------------------------*/
FoamFile
{
    version     2.0;
    format      ascii;
    class       volScalarField;
    location    "1.05";
    object      p;
}
// * * * * * * * * * * * * * * * * * * * * * * * * * * * * * * * * * * * * * //

dimensions      [0 2 -2 0 0 0 0];

internalField   nonuniform List<scalar> 
20940
(
-0.163255
-0.206029
-0.25094
-0.298248
-0.347401
-0.398464
-0.450934
-0.504336
-0.557815
-0.610269
-0.660356
-0.706696
-0.748116
-0.783892
-0.813877
-0.838468
-0.858458
-0.874822
-0.888462
-0.900135
-0.911343
-0.923242
-0.19131
-0.232886
-0.276773
-0.322448
-0.369682
-0.418308
-0.467797
-0.517544
-0.566619
-0.613909
-0.658201
-0.6984
-0.733739
-0.763928
-0.78917
-0.81005
-0.827372
-0.841977
-0.854558
-0.865639
-0.876471
-0.888015
-0.215758
-0.255914
-0.298488
-0.342279
-0.387331
-0.433238
-0.479444
-0.52523
-0.569637
-0.611623
-0.650183
-0.684562
-0.714387
-0.739727
-0.761015
-0.778909
-0.794135
-0.807364
-0.819081
-0.829608
-0.839963
-0.850938
-0.238841
-0.277373
-0.31837
-0.360013
-0.402586
-0.445443
-0.48801
-0.529486
-0.568956
-0.605528
-0.638482
-0.667418
-0.692317
-0.713501
-0.731521
-0.747004
-0.760547
-0.77264
-0.783587
-0.793547
-0.803352
-0.813666
-0.260236
-0.297048
-0.336309
-0.375645
-0.415541
-0.455115
-0.493797
-0.530758
-0.565206
-0.596475
-0.624167
-0.64822
-0.668883
-0.686624
-0.702004
-0.71556
-0.727735
-0.738853
-0.74907
-0.758428
-0.767608
-0.777186
-0.280218
-0.315252
-0.352643
-0.389526
-0.426548
-0.462622
-0.497227
-0.529577
-0.559081
-0.585353
-0.60831
-0.628157
-0.645311
-0.660282
-0.673568
-0.68558
-0.696611
-0.706849
-0.716341
-0.725049
-0.733536
-0.742313
-0.29894
-0.332145
-0.367549
-0.401851
-0.435842
-0.468266
-0.498713
-0.526512
-0.551338
-0.573087
-0.591947
-0.6083
-0.622629
-0.635405
-0.647024
-0.657765
-0.667797
-0.677201
-0.685952
-0.693965
-0.701703
-0.709635
-0.316669
-0.348089
-0.381437
-0.413054
-0.443867
-0.472528
-0.498815
-0.522246
-0.542779
-0.56057
-0.575993
-0.589513
-0.601596
-0.612628
-0.622889
-0.632544
-0.641662
-0.65025
-0.658242
-0.665524
-0.67248
-0.679543
-0.333351
-0.362932
-0.394104
-0.422947
-0.450513
-0.475446
-0.497758
-0.517189
-0.533967
-0.548436
-0.561074
-0.572347
-0.582654
-0.592283
-0.601405
-0.610095
-0.618352
-0.626136
-0.633357
-0.639892
-0.646055
-0.652248
-0.34931
-0.377172
-0.406138
-0.432136
-0.456395
-0.477655
-0.496215
-0.512048
-0.525597
-0.537317
-0.547706
-0.557181
-0.566051
-0.574505
-0.582629
-0.590429
-0.59786
-0.604852
-0.611305
-0.617096
-0.622478
-0.627824
-0.36401
-0.389981
-0.416575
-0.439758
-0.460854
-0.478778
-0.494068
-0.506893
-0.517831
-0.527378
-0.536003
-0.54405
-0.551743
-0.559193
-0.566422
-0.573395
-0.580036
-0.586261
-0.59197
-0.597041
-0.601677
-0.606219
-0.378178
-0.402472
-0.426779
-0.447166
-0.465168
-0.479968
-0.492322
-0.502558
-0.511313
-0.519068
-0.52623
-0.533066
-0.539726
-0.546261
-0.552651
-0.558831
-0.56471
-0.570198
-0.575193
-0.579583
-0.583523
-0.587321
-0.389828
-0.412241
-0.43402
-0.452008
-0.467436
-0.47983
-0.489982
-0.498327
-0.505488
-0.511915
-0.517954
-0.523815
-0.529599
-0.535322
-0.540944
-0.546387
-0.551555
-0.556354
-0.560689
-0.564456
-0.567766
-0.570898
-0.402181
-0.422828
-0.442398
-0.457998
-0.470921
-0.481046
-0.489175
-0.495818
-0.501551
-0.506775
-0.511772
-0.5167
-0.521623
-0.526535
-0.531382
-0.536081
-0.540536
-0.544653
-0.548344
-0.551514
-0.554243
-0.556781
-0.407088
-0.427667
-0.444488
-0.45881
-0.470246
-0.479272
-0.486416
-0.492227
-0.497199
-0.501705
-0.505999
-0.510227
-0.514455
-0.518683
-0.522864
-0.526926
-0.530778
-0.534331
-0.537498
-0.54019
-0.542453
-0.544504
-0.422065
-0.439469
-0.453468
-0.465415
-0.474605
-0.481736
-0.487293
-0.491805
-0.495699
-0.49928
-0.502742
-0.506191
-0.509665
-0.513153
-0.516607
-0.519959
-0.523129
-0.526037
-0.528611
-0.530776
-0.532558
-0.534129
-0.442458
-0.456
-0.46529
-0.473468
-0.479534
-0.484462
-0.488465
-0.491923
-0.49505
-0.498006
-0.500886
-0.503735
-0.506564
-0.509358
-0.512078
-0.514672
-0.517083
-0.519253
-0.521136
-0.522686
-0.523935
-0.525014
-0.451885
-0.463559
-0.470209
-0.476741
-0.481345
-0.485291
-0.488507
-0.491339
-0.4939
-0.496309
-0.498629
-0.500897
-0.503123
-0.505296
-0.50739
-0.509366
-0.511181
-0.512794
-0.514168
-0.515276
-0.51614
-0.516849
-0.458746
-0.468823
-0.473481
-0.478788
-0.482295
-0.485496
-0.488096
-0.490423
-0.492519
-0.494472
-0.496325
-0.498106
-0.499823
-0.501472
-0.503035
-0.504486
-0.505793
-0.506929
-0.507868
-0.508596
-0.509126
-0.509518
-0.462575
-0.471207
-0.474779
-0.479278
-0.482155
-0.484875
-0.487065
-0.489019
-0.490749
-0.492329
-0.493794
-0.49517
-0.496467
-0.497686
-0.498817
-0.499841
-0.500736
-0.501483
-0.502066
-0.502477
-0.502719
-0.502828
-0.464471
-0.471763
-0.474863
-0.478736
-0.481244
-0.483609
-0.485508
-0.487178
-0.488629
-0.489922
-0.491087
-0.492149
-0.493119
-0.494002
-0.494791
-0.495475
-0.496038
-0.496465
-0.496748
-0.496884
-0.496861
-0.496695
-0.464736
-0.470876
-0.473873
-0.477289
-0.479619
-0.481753
-0.483475
-0.48496
-0.486226
-0.487322
-0.488278
-0.489116
-0.489849
-0.490482
-0.491013
-0.491433
-0.491732
-0.491899
-0.491928
-0.491822
-0.491551
-0.491111
-0.46375
-0.469024
-0.472085
-0.475212
-0.477489
-0.479506
-0.481148
-0.48254
-0.483708
-0.484693
-0.485523
-0.486218
-0.486792
-0.48725
-0.487593
-0.487815
-0.487908
-0.487863
-0.487679
-0.487359
-0.486856
-0.486146
-0.461903
-0.466613
-0.4698
-0.472795
-0.47511
-0.477112
-0.478758
-0.480139
-0.481285
-0.482232
-0.483006
-0.483627
-0.484107
-0.484453
-0.484666
-0.484744
-0.484681
-0.484469
-0.484109
-0.483608
-0.482895
-0.481934
-0.459626
-0.464037
-0.467374
-0.470363
-0.472779
-0.474845
-0.476561
-0.477994
-0.479177
-0.480142
-0.480914
-0.481512
-0.481948
-0.482231
-0.482363
-0.482344
-0.482169
-0.481833
-0.481338
-0.480694
-0.47981
-0.478636
-0.457358
-0.461674
-0.465171
-0.468241
-0.470797
-0.472976
-0.474802
-0.476327
-0.477585
-0.478606
-0.479414
-0.480025
-0.480456
-0.480713
-0.480801
-0.480724
-0.480479
-0.480063
-0.479481
-0.478742
-0.477744
-0.476422
-0.455387
-0.459746
-0.463404
-0.466602
-0.469314
-0.471633
-0.47359
-0.475231
-0.476588
-0.477689
-0.478557
-0.47921
-0.479661
-0.479922
-0.479999
-0.479898
-0.479622
-0.479172
-0.478557
-0.477788
-0.476754
-0.475384
-0.454052
-0.458532
-0.462346
-0.465691
-0.468558
-0.47102
-0.473113
-0.474876
-0.476341
-0.477536
-0.478482
-0.479196
-0.479692
-0.47998
-0.480072
-0.479976
-0.479702
-0.479258
-0.478661
-0.477927
-0.476956
-0.475674
-0.453189
-0.457806
-0.46174
-0.465208
-0.4682
-0.470782
-0.472991
-0.474863
-0.47643
-0.477718
-0.478745
-0.479527
-0.480077
-0.480405
-0.480523
-0.480446
-0.480191
-0.47978
-0.479242
-0.47861
-0.477827
-0.476825
-0.45329
-0.458051
-0.46214
-0.465761
-0.468907
-0.471639
-0.473997
-0.47602
-0.477741
-0.479185
-0.48037
-0.481306
-0.481998
-0.482448
-0.482658
-0.482633
-0.482387
-0.481948
-0.481363
-0.480706
-0.480046
-0.479459
1.20048
1.25133
1.30211
1.35273
1.40275
1.45178
1.49942
1.54527
1.58894
1.63005
1.66825
1.70319
1.73458
1.7622
1.78592
1.80579
1.82216
1.83574
1.84748
1.85861
1.87201
1.88957
1.19229
1.24284
1.29298
1.34296
1.3923
1.44061
1.4875
1.53257
1.57544
1.61573
1.65309
1.68718
1.71772
1.74448
1.76736
1.78642
1.80205
1.81497
1.82621
1.83701
1.85022
1.86772
1.1721
1.22195
1.27081
1.31953
1.36758
1.41454
1.46004
1.50368
1.54507
1.58385
1.61966
1.65218
1.68112
1.70627
1.72754
1.74505
1.75921
1.77087
1.78109
1.7912
1.80405
1.82141
1.14312
1.19191
1.23881
1.28561
1.33165
1.37651
1.41982
1.46121
1.50028
1.53669
1.57007
1.60012
1.62656
1.64919
1.66796
1.68303
1.69493
1.7046
1.71325
1.72228
1.73454
1.75165
1.10467
1.15205
1.19639
1.24068
1.28411
1.32624
1.36673
1.40519
1.44126
1.47458
1.5048
1.53163
1.55478
1.5741
1.58957
1.60143
1.61032
1.61735
1.62388
1.63146
1.6429
1.65964
1.05848
1.10409
1.14529
1.18651
1.22673
1.26551
1.30252
1.33739
1.36976
1.39927
1.4256
1.44845
1.46755
1.48278
1.49415
1.50202
1.50717
1.51089
1.51478
1.5205
1.53088
1.5471
1.00549
1.049
1.08655
1.12423
1.16074
1.19565
1.22864
1.25936
1.28743
1.31253
1.33432
1.35252
1.36689
1.3773
1.38385
1.38699
1.38769
1.38746
1.38815
1.39161
1.40065
1.41617
0.947459
0.988518
1.022
1.05573
1.08808
1.11863
1.14711
1.17314
1.19637
1.21647
1.23313
1.24605
1.25502
1.25995
1.26098
1.2587
1.25425
1.24942
1.24636
1.24715
1.25454
1.26913
0.885886
0.924162
0.953252
0.982721
1.01058
1.03644
1.06004
1.081
1.09897
1.11364
1.12468
1.13182
1.13485
1.1337
1.12859
1.12022
1.10995
1.09989
1.09252
1.09015
1.09553
1.10892
0.822743
0.857944
0.882418
0.907371
0.930437
0.95128
0.969645
0.985156
0.997472
1.00627
1.01124
1.01211
1.00868
1.00091
0.989067
0.973995
0.957293
0.941389
0.929138
0.923174
0.926185
0.938051
0.759412
0.791202
0.810998
0.831367
0.849565
0.865312
0.878347
0.888287
0.89479
0.897529
0.896193
0.890509
0.880273
0.86546
0.846405
0.824074
0.80032
0.777931
0.760197
0.750094
0.750288
0.760234
0.698099
0.726189
0.741257
0.756877
0.770019
0.780456
0.787919
0.792019
0.792415
0.788779
0.780802
0.768211
0.750807
0.728578
0.701911
0.671904
0.640656
0.611336
0.587687
0.573064
0.570078
0.577689
0.639163
0.663206
0.673968
0.68511
0.693489
0.698917
0.701097
0.699628
0.694154
0.68433
0.669831
0.650365
0.625719
0.595874
0.561252
0.523071
0.4837
0.446739
0.416472
0.396715
0.390044
0.394855
0.585883
0.604906
0.611283
0.617711
0.621113
0.621282
0.617893
0.610541
0.598867
0.582522
0.561181
0.534558
0.502448
0.46485
0.422237
0.375952
0.328612
0.284201
0.247475
0.22265
0.21216
0.213694
0.53604
0.54996
0.553355
0.555726
0.554986
0.550784
0.542727
0.530387
0.513366
0.491277
0.463751
0.430452
0.391119
0.345708
0.294674
0.239449
0.182939
0.129689
0.0852265
0.0544724
0.0398862
0.0382026
0.498263
0.500439
0.500856
0.498933
0.493238
0.48377
0.470066
0.451722
0.428347
0.399557
0.364988
0.324323
0.277344
0.224104
0.165242
0.102484
0.0391156
-0.0199437
-0.0689446
-0.102986
-0.12015
-0.124487
0.458453
0.450987
0.446458
0.437332
0.424323
0.407202
0.385507
0.358923
0.327111
0.28976
0.246594
0.197415
0.142201
0.0813205
0.0158781
-0.0518695
-0.118255
-0.17843
-0.22731
-0.261057
-0.279021
-0.285966
0.411095
0.396723
0.387413
0.371808
0.352595
0.328881
0.300362
0.266759
0.227779
0.183175
0.132753
0.0764303
0.0143682
-0.0527863
-0.123548
-0.195253
-0.263965
-0.324923
-0.373574
-0.406944
-0.425528
-0.434715
0.360932
0.340785
0.326267
0.304416
0.279221
0.249204
0.21431
0.174259
0.128807
0.0777673
0.0210185
-0.0414045
-0.10915
-0.181278
-0.25593
-0.330085
-0.399646
-0.460071
-0.507448
-0.539707
-0.55835
-0.569095
0.308785
0.283567
0.263799
0.236196
0.20541
0.169576
0.128871
0.0829986
0.0317821
-0.0249054
-0.087093
-0.154602
-0.226851
-0.302579
-0.379563
-0.454503
-0.523302
-0.581824
-0.626929
-0.657461
-0.675751
-0.687573
0.255736
0.226098
0.201281
0.168528
0.132675
0.0916781
0.0458896
-0.00499986
-0.0610961
-0.122461
-0.189019
-0.260424
-0.335843
-0.413693
-0.491435
-0.565614
-0.632292
-0.687888
-0.730086
-0.758566
-0.776278
-0.788845
0.202971
0.169525
0.140023
0.102769
0.0624505
0.0170139
-0.0330777
-0.0881269
-0.148169
-0.213192
-0.283
-0.357057
-0.434266
-0.512742
-0.589713
-0.661704
-0.725101
-0.776981
-0.815852
-0.842109
-0.859116
-0.87218
0.151304
0.114654
0.0809648
0.0399093
-0.00419073
-0.0532781
-0.106832
-0.165131
-0.228137
-0.295756
-0.367649
-0.443074
-0.520672
-0.5983
-0.673055
-0.741594
-0.800765
-0.848372
-0.883688
-0.907682
-0.923931
-0.937317
0.101732
0.062475
0.0251821
-0.0189623
-0.0661228
-0.118055
-0.174219
-0.234849
-0.299835
-0.368981
-0.441791
-0.517306
-0.59392
-0.669305
-0.740551
-0.804593
-0.858851
-0.901864
-0.933582
-0.955382
-0.970881
-0.98446
0.0545776
0.0132995
-0.0269563
-0.0734629
-0.122928
-0.176878
-0.23478
-0.296807
-0.362771
-0.43236
-0.504904
-0.57923
-0.65353
-0.725379
-0.791995
-0.850721
-0.899616
-0.937922
-0.966137
-0.985881
-1.00067
-1.01433
0.0106256
-0.0321093
-0.0746666
-0.122836
-0.173873
-0.229057
-0.287871
-0.350414
-0.416409
-0.48541
-0.556567
-0.628508
-0.699283
-0.766484
-0.827589
-0.880454
-0.923796
-0.957481
-0.982408
-1.00029
-1.01442
-1.02807
-0.030488
-0.0741538
-0.118357
-0.167506
-0.219389
-0.275031
-0.333936
-0.396116
-0.461192
-0.528572
-0.597227
-0.665627
-0.731764
-0.79337
-0.848306
-0.895004
-0.932814
-0.962107
-0.984032
-1.00026
-1.01377
-1.02731
-0.0679959
-0.112089
-0.157306
-0.206813
-0.258887
-0.314301
-0.372575
-0.433616
-0.496933
-0.561776
-0.626956
-0.690841
-0.751467
-0.806829
-0.855259
-0.895786
-0.928318
-0.953594
-0.972866
-0.987653
-1.00058
-1.01388
-0.103099
-0.147187
-0.192839
-0.242126
-0.293763
-0.348283
-0.40521
-0.464334
-0.525035
-0.586415
-0.647162
-0.705625
-0.760004
-0.808666
-0.850478
-0.885032
-0.912678
-0.934374
-0.951342
-0.964877
-0.977211
-0.99014
-0.134431
-0.178093
-0.223645
-0.2722
-0.322865
-0.375932
-0.430919
-0.487482
-0.544876
-0.602073
-0.6577
-0.710186
-0.758
-0.799954
-0.835444
-0.864534
-0.887876
-0.9065
-0.921498
-0.9339
-0.945545
-0.957832
-0.117695
-0.161827
-0.207963
-0.257168
-0.308567
-0.362418
-0.418224
-0.475608
-0.533783
-0.591674
-0.647864
-0.700749
-0.748791
-0.790816
-0.826252
-0.855204
-0.878358
-0.89677
-0.91155
-0.923737
-0.935154
-0.947184
-0.0861965
-0.130772
-0.177021
-0.226947
-0.279302
-0.334579
-0.392298
-0.452217
-0.513682
-0.575747
-0.637051
-0.695905
-0.750489
-0.799182
-0.840884
-0.875235
-0.902632
-0.924067
-0.94078
-0.954077
-0.966166
-0.978816
-0.0511496
-0.095744
-0.141574
-0.191713
-0.244491
-0.300638
-0.359676
-0.421488
-0.485549
-0.551067
-0.616802
-0.681075
-0.741893
-0.797252
-0.845518
-0.885774
-0.917985
-0.942938
-0.961912
-0.976437
-0.989103
-1.00212
-0.0139754
-0.0581549
-0.102996
-0.152773
-0.20535
-0.261705
-0.32135
-0.384274
-0.450074
-0.518117
-0.587326
-0.656117
-0.722444
-0.784027
-0.838754
-0.885114
-0.922528
-0.951429
-0.973005
-0.98894
-1.00218
-1.01543
0.0265283
-0.0167285
-0.0599549
-0.108754
-0.160482
-0.216365
-0.2759
-0.339167
-0.405869
-0.475527
-0.547244
-0.619591
-0.690571
-0.757751
-0.818623
-0.871098
-0.913975
-0.947196
-0.971717
-0.989276
-1.00313
-1.0165
0.0695865
0.0277788
-0.0131846
-0.0603305
-0.110491
-0.165136
-0.223747
-0.286486
-0.353148
-0.423393
-0.496511
-0.571271
-0.645809
-0.717664
-0.784052
-0.842362
-0.890739
-0.928516
-0.956268
-0.975655
-0.990162
-1.00356
0.115581
0.0757871
0.0377425
-0.00705851
-0.0549268
-0.107559
-0.164434
-0.225774
-0.291459
-0.361271
-0.434678
-0.510668
-0.587576
-0.663022
-0.734079
-0.797713
-0.851426
-0.893861
-0.925067
-0.946477
-0.961695
-0.975028
0.163759
0.12656
0.0920697
0.0503302
0.00550079
-0.0443044
-0.0985814
-0.157601
-0.22132
-0.289626
-0.362151
-0.438107
-0.516072
-0.593844
-0.668485
-0.736665
-0.7953
-0.842307
-0.877074
-0.900653
-0.916623
-0.929796
0.213841
0.179827
0.149473
0.111497
0.0704193
0.0242358
-0.0266032
-0.0823985
-0.143179
-0.208924
-0.279412
-0.354068
-0.431736
-0.510466
-0.587434
-0.659156
-0.722072
-0.773364
-0.811672
-0.837497
-0.854234
-0.867126
0.264889
0.234654
0.208932
0.175409
0.138759
0.0969757
0.0504028
-0.00127058
-0.0581467
-0.120281
-0.187579
-0.259663
-0.335648
-0.413883
-0.491765
-0.565809
-0.632106
-0.68717
-0.72882
-0.756871
-0.774331
-0.786776
0.31615
0.290291
0.26957
0.241139
0.209512
0.172843
0.131307
0.0846008
0.0325514
-0.0249646
-0.0879645
-0.156244
-0.229177
-0.305439
-0.382733
-0.457711
-0.526275
-0.584365
-0.628977
-0.659103
-0.677172
-0.688935
0.366516
0.345664
0.330152
0.307409
0.281324
0.250417
0.214635
0.173692
0.127345
0.0754058
0.0177629
-0.045531
-0.114088
-0.18691
-0.262063
-0.336459
-0.405975
-0.466118
-0.513098
-0.545004
-0.563472
-0.574233
0.414957
0.399791
0.389461
0.372895
0.352738
0.328077
0.298608
0.264047
0.224099
0.178517
0.127111
0.0698108
0.0068059
-0.0612062
-0.132668
-0.204837
-0.273728
-0.334594
-0.382986
-0.416089
-0.434562
-0.443853
0.460716
0.452289
0.44672
0.436568
0.422562
0.404442
0.381741
0.354138
0.321292
0.282887
0.238652
0.188393
0.132111
0.0702135
0.00387155
-0.0645747
-0.131387
-0.1917
-0.240501
-0.2741
-0.292039
-0.299187
0.499387
0.500431
0.499804
0.496807
0.490051
0.479522
0.464744
0.445309
0.42082
0.390888
0.355151
0.313292
0.265106
0.210673
0.15069
0.086965
0.0228774
-0.0365998
-0.0857502
-0.119801
-0.137048
-0.1417
0.535434
0.548012
0.550352
0.551665
0.549839
0.544544
0.535374
0.521895
0.503705
0.480412
0.451646
0.417072
0.376441
0.32973
0.277447
0.221103
0.163697
0.109842
0.0650508
0.0341411
0.0193652
0.0172752
0.583101
0.600708
0.606034
0.611393
0.613686
0.61274
0.608211
0.599688
0.586807
0.569218
0.546595
0.518652
0.485195
0.446247
0.402326
0.354848
0.306515
0.261371
0.224172
0.199056
0.188274
0.189337
0.634478
0.657143
0.666851
0.676925
0.684189
0.688488
0.689505
0.686837
0.680124
0.66902
0.653197
0.632367
0.606325
0.575074
0.53908
0.499627
0.459164
0.421351
0.390484
0.37032
0.363272
0.367562
0.691599
0.718364
0.732372
0.746932
0.758959
0.768265
0.77456
0.777453
0.7766
0.771671
0.762357
0.748386
0.729569
0.705914
0.677848
0.64653
0.61413
0.583878
0.559537
0.544422
0.541
0.548064
0.751416
0.78199
0.800745
0.820075
0.837178
0.851807
0.863684
0.872424
0.877683
0.879132
0.876461
0.869398
0.85775
0.841508
0.821044
0.797381
0.772436
0.749057
0.730563
0.719906
0.719625
0.729021
0.813576
0.847663
0.87112
0.895066
0.917068
0.936822
0.954058
0.968397
0.979497
0.987033
0.990697
0.990221
0.985409
0.976234
0.963008
0.946615
0.928718
0.911802
0.898757
0.892206
0.894728
0.90606
0.875967
0.913249
0.941372
0.969882
0.996727
1.02155
1.04406
1.0639
1.08071
1.09417
1.10395
1.1098
1.1115
1.109
1.10256
1.0929
1.08147
1.0704
1.06222
1.05926
1.06415
1.07704
0.937227
0.97741
1.00999
1.04282
1.07422
1.1038
1.13127
1.15624
1.17838
1.19735
1.21282
1.22453
1.23226
1.23592
1.23569
1.2322
1.22663
1.22084
1.217
1.2172
1.22413
1.23826
0.995419
1.03817
1.0749
1.11176
1.14741
1.18143
1.2135
1.24325
1.27033
1.29439
1.3151
1.33219
1.34541
1.35467
1.36007
1.36209
1.36175
1.36062
1.36058
1.3635
1.3721
1.38721
1.04902
1.094
1.13447
1.17497
1.21443
1.25242
1.28861
1.32263
1.35412
1.38271
1.40809
1.42994
1.44804
1.46224
1.47259
1.47946
1.48369
1.4866
1.48982
1.49505
1.50505
1.52091
1.09626
1.14312
1.18685
1.23053
1.27331
1.31477
1.35457
1.39231
1.42763
1.46016
1.48958
1.51556
1.53787
1.55631
1.5709
1.58191
1.59002
1.59634
1.60231
1.60946
1.62058
1.63702
1.13614
1.18453
1.23095
1.27725
1.32278
1.3671
1.40986
1.45066
1.48914
1.52492
1.55765
1.58703
1.61279
1.63472
1.65278
1.66717
1.67844
1.68754
1.69572
1.70441
1.71641
1.73328
1.16688
1.21644
1.26494
1.31331
1.36099
1.40756
1.45265
1.49586
1.53681
1.57514
1.61047
1.6425
1.67094
1.69558
1.71634
1.73334
1.74704
1.75828
1.76816
1.77801
1.79068
1.80786
1.18906
1.23943
1.28936
1.33912
1.38824
1.43631
1.48295
1.52776
1.57036
1.61038
1.64744
1.68124
1.71147
1.73792
1.76049
1.77925
1.79459
1.80726
1.81828
1.82892
1.84203
1.85942
1.19938
1.25018
1.30088
1.35143
1.40138
1.45033
1.49788
1.54364
1.58722
1.62824
1.66634
1.70119
1.73248
1.75999
1.7836
1.80338
1.81965
1.83314
1.84481
1.85589
1.86925
1.88677
-0.146904
-0.175519
-0.200627
-0.224464
-0.246644
-0.267413
-0.286892
-0.305316
-0.322618
-0.339101
-0.354242
-0.368746
-0.380687
-0.393235
-0.398447
-0.413627
-0.434501
-0.444354
-0.451488
-0.455464
-0.457431
-0.457727
-0.456741
-0.454861
-0.452526
-0.450181
-0.448131
-0.446725
-0.445807
-0.445876
-0.190127
-0.217521
-0.241183
-0.263368
-0.283804
-0.302771
-0.320398
-0.337017
-0.352463
-0.367217
-0.380461
-0.393301
-0.403364
-0.414184
-0.419247
-0.431295
-0.448336
-0.456197
-0.461678
-0.464203
-0.464844
-0.464004
-0.46216
-0.459721
-0.457092
-0.454658
-0.452656
-0.451381
-0.450608
-0.450833
-0.235612
-0.261978
-0.284323
-0.304927
-0.323622
-0.340713
-0.356344
-0.370899
-0.384156
-0.396696
-0.407555
-0.418106
-0.425625
-0.434234
-0.436509
-0.445716
-0.458031
-0.463194
-0.466623
-0.468002
-0.468125
-0.467152
-0.465358
-0.463041
-0.460562
-0.458292
-0.456458
-0.455345
-0.454697
-0.455086
-0.28358
-0.308321
-0.328784
-0.347236
-0.363617
-0.378242
-0.391275
-0.403123
-0.413581
-0.423256
-0.431275
-0.439012
-0.444097
-0.450298
-0.451227
-0.458031
-0.466476
-0.469904
-0.472056
-0.472606
-0.472098
-0.470668
-0.468585
-0.466139
-0.463657
-0.461474
-0.459775
-0.458817
-0.458299
-0.458848
-0.333482
-0.356316
-0.374603
-0.390575
-0.404271
-0.416008
-0.425986
-0.43463
-0.44181
-0.448144
-0.452961
-0.457567
-0.460031
-0.463686
-0.463067
-0.467581
-0.472794
-0.474699
-0.475713
-0.475605
-0.474712
-0.473092
-0.47095
-0.468541
-0.466163
-0.464124
-0.462588
-0.461791
-0.461404
-0.462113
-0.38535
-0.405761
-0.421336
-0.434254
-0.444652
-0.452864
-0.45916
-0.464002
-0.467407
-0.470018
-0.471443
-0.472868
-0.472867
-0.474199
-0.472425
-0.474992
-0.477894
-0.478766
-0.479004
-0.478402
-0.477149
-0.475296
-0.473037
-0.470613
-0.468302
-0.466382
-0.46499
-0.464343
-0.464081
-0.464945
-0.43866
-0.456101
-0.468394
-0.47766
-0.484151
-0.488252
-0.490346
-0.490976
-0.490346
-0.489141
-0.487229
-0.48565
-0.483386
-0.482637
-0.479835
-0.480764
-0.482028
-0.482081
-0.481683
-0.48066
-0.47911
-0.477076
-0.474735
-0.472317
-0.470078
-0.468272
-0.467018
-0.466511
-0.466369
-0.467386
-0.492898
-0.506686
-0.515011
-0.519948
-0.521891
-0.521337
-0.518827
-0.515025
-0.510327
-0.50545
-0.500458
-0.496221
-0.492007
-0.489505
-0.485837
-0.485426
-0.485574
-0.484981
-0.484067
-0.482666
-0.480829
-0.478608
-0.476173
-0.473744
-0.47156
-0.469851
-0.468717
-0.468337
-0.468309
-0.46948
-0.547167
-0.556544
-0.560187
-0.560159
-0.557041
-0.551493
-0.544243
-0.53608
-0.527554
-0.519374
-0.511704
-0.505221
-0.499365
-0.495394
-0.490945
-0.489423
-0.488766
-0.487596
-0.486209
-0.484439
-0.482321
-0.479913
-0.477379
-0.474928
-0.472783
-0.471153
-0.470122
-0.469855
-0.469932
-0.47126
-0.600317
-0.604517
-0.602837
-0.597365
-0.588902
-0.578304
-0.566469
-0.554279
-0.542363
-0.531367
-0.521466
-0.513142
-0.505924
-0.50072
-0.495542
-0.493074
-0.491772
-0.490049
-0.488202
-0.486057
-0.483648
-0.481042
-0.478395
-0.475907
-0.473781
-0.47221
-0.471263
-0.471093
-0.471266
-0.472753
-0.650967
-0.64936
-0.641931
-0.630823
-0.617059
-0.601674
-0.585684
-0.569996
-0.555236
-0.541938
-0.530231
-0.52041
-0.512048
-0.505783
-0.499898
-0.496587
-0.494691
-0.492407
-0.49009
-0.487555
-0.484844
-0.482026
-0.479251
-0.476707
-0.474581
-0.473047
-0.472163
-0.472075
-0.472331
-0.473978
-0.697712
-0.689958
-0.676698
-0.660125
-0.641443
-0.62181
-0.602278
-0.583707
-0.566655
-0.551522
-0.538359
-0.527308
-0.51796
-0.510755
-0.504173
-0.500075
-0.497576
-0.49471
-0.491904
-0.48896
-0.485933
-0.482888
-0.479969
-0.477349
-0.475202
-0.473684
-0.472843
-0.472818
-0.473145
-0.474947
-0.739377
-0.725548
-0.706772
-0.685258
-0.662314
-0.639139
-0.616744
-0.595893
-0.577037
-0.560445
-0.546092
-0.534
-0.523776
-0.515709
-0.508437
-0.503584
-0.50044
-0.49697
-0.493653
-0.490287
-0.486929
-0.483643
-0.480563
-0.477848
-0.475657
-0.474134
-0.473317
-0.473337
-0.47372
-0.475667
-0.775256
-0.755856
-0.732238
-0.706561
-0.680157
-0.65419
-0.629577
-0.606962
-0.586689
-0.568914
-0.553556
-0.540551
-0.52952
-0.520646
-0.512697
-0.507104
-0.503268
-0.499177
-0.495334
-0.491535
-0.487836
-0.484298
-0.48104
-0.478212
-0.475957
-0.474408
-0.473595
-0.473644
-0.474067
-0.47614
-0.80523
-0.78111
-0.75355
-0.724605
-0.695554
-0.667481
-0.641192
-0.617213
-0.5958
-0.57703
-0.560784
-0.546947
-0.535158
-0.525516
-0.51691
-0.510592
-0.506023
-0.501305
-0.49693
-0.492694
-0.48865
-0.484849
-0.481401
-0.478441
-0.476103
-0.47451
-0.473685
-0.473749
-0.4742
-0.476366
-0.829728
-0.801924
-0.771392
-0.74004
-0.709063
-0.679444
-0.651887
-0.626828
-0.604459
-0.58481
-0.567749
-0.553131
-0.540616
-0.530239
-0.521004
-0.51398
-0.508654
-0.503317
-0.498413
-0.493747
-0.489358
-0.48529
-0.48164
-0.478534
-0.476096
-0.474444
-0.473594
-0.473663
-0.474133
-0.476353
-0.849571
-0.819123
-0.78651
-0.753485
-0.721147
-0.690394
-0.66185
-0.63589
-0.612676
-0.592218
-0.574383
-0.559017
-0.545802
-0.53472
-0.524891
-0.517187
-0.511103
-0.505169
-0.499754
-0.494672
-0.489947
-0.48561
-0.48175
-0.478484
-0.475932
-0.474207
-0.473325
-0.473395
-0.473884
-0.476113
-0.865756
-0.83357
-0.799596
-0.765449
-0.732149
-0.700532
-0.671172
-0.644418
-0.62042
-0.599189
-0.580604
-0.564515
-0.550623
-0.538867
-0.52848
-0.520134
-0.513313
-0.506818
-0.500923
-0.495449
-0.4904
-0.485798
-0.481723
-0.478286
-0.475606
-0.473798
-0.472879
-0.472953
-0.473473
-0.475675
-0.879201
-0.845973
-0.811152
-0.776252
-0.742241
-0.709921
-0.679844
-0.652353
-0.627607
-0.605628
-0.586316
-0.569527
-0.554985
-0.542592
-0.531687
-0.522749
-0.515235
-0.50823
-0.501896
-0.496062
-0.490708
-0.485849
-0.481556
-0.477939
-0.47512
-0.473221
-0.472265
-0.472354
-0.472932
-0.475086
-0.890675
-0.856871
-0.821513
-0.786067
-0.751477
-0.718533
-0.687785
-0.659589
-0.634118
-0.611415
-0.5914
-0.573941
-0.558785
-0.5458
-0.534421
-0.524955
-0.516824
-0.509374
-0.502658
-0.496503
-0.490871
-0.485765
-0.481254
-0.47745
-0.474483
-0.472485
-0.471494
-0.471615
-0.472294
-0.474423
-0.901672
-0.86751
-0.831698
-0.795727
-0.760541
-0.726932
-0.695465
-0.666513
-0.640273
-0.616808
-0.596061
-0.577916
-0.562137
-0.548574
-0.536731
-0.526782
-0.518114
-0.510276
-0.503223
-0.496777
-0.490876
-0.485518
-0.48077
-0.476751
-0.473606
-0.471486
-0.470455
-0.470634
-0.471501
-0.473753
-0.913335
-0.878844
-0.842493
-0.805893
-0.770007
-0.735631
-0.70335
-0.673556
-0.646472
-0.622179
-0.600643
-0.581764
-0.565325
-0.55117
-0.538839
-0.528407
-0.519241
-0.511029
-0.503654
-0.496922
-0.490744
-0.485108
-0.480084
-0.475806
-0.47244
-0.470163
-0.469075
-0.469337
-0.470483
-0.473152
0.0603669
0.0599593
0.0596941
0.0592797
0.058884
0.0584446
0.0580259
0.0576351
0.0573156
0.0570964
0.0570151
0.0571023
0.0573861
0.0578869
0.0586185
0.059586
0.0607871
0.062212
0.0638445
0.0656626
0.067639
0.0697423
0.0719358
0.0741814
0.057651
0.0572661
0.0570024
0.0565933
0.0561968
0.0557584
0.0553415
0.0549568
0.0546482
0.0544465
0.0543898
0.0545092
0.054833
0.0553814
0.0561677
0.0571965
0.0584647
0.0599619
0.0616708
0.0635687
0.0656277
0.0678156
0.0700951
0.0724274
0.055001
0.05464
0.0543787
0.0539765
0.0535808
0.0531451
0.0527318
0.0523546
0.0520583
0.0518751
0.0518436
0.0519956
0.0523591
0.0529545
0.0537944
0.0548829
0.0562161
0.0577829
0.0595655
0.0615403
0.0636786
0.0659478
0.0683101
0.0707258
0.0524229
0.0520866
0.0518289
0.0514352
0.0510419
0.0506107
0.0502026
0.0498346
0.0495519
0.0493882
0.0493827
0.0495673
0.0499704
0.0506119
0.0515039
0.0526502
0.0540462
0.0556801
0.0575332
0.0595817
0.061796
0.0641432
0.0665847
0.0690806
0.0499221
0.0496114
0.0493584
0.0489747
0.0485855
0.0481607
0.0477596
0.0474023
0.0471347
0.0469915
0.0470125
0.0472299
0.047672
0.0483585
0.0493013
0.0505033
0.0519595
0.0536575
0.0555781
0.0576968
0.0599837
0.0624052
0.0649225
0.0674952
0.0475036
0.047219
0.0469718
0.0465996
0.0462164
0.0457998
0.0454076
0.0450628
0.0448115
0.0446899
0.0447378
0.044988
0.0454685
0.0461989
0.0471905
0.048446
0.0499598
0.0517188
0.0537035
0.0558889
0.0582447
0.0607369
0.0633264
0.0659724
0.0451715
0.0449134
0.0446732
0.0443141
0.0439387
0.0435323
0.0431508
0.0428201
0.0425865
0.0424874
0.0425627
0.0428455
0.0433636
0.0441365
0.0451751
0.0464816
0.04805
0.0498669
0.0519123
0.0541607
0.0565817
0.0591409
0.061799
0.0645149
0.0429293
0.042698
0.0424659
0.0421215
0.0417557
0.0413614
0.0409924
0.0406776
0.0404631
0.0403873
0.0404903
0.0408054
0.0413603
0.0421741
0.0432576
0.0446126
0.0462326
0.0481041
0.0502065
0.0525143
0.0549967
0.0576193
0.0603423
0.0631246
0.0407797
0.0405754
0.0403524
0.0400241
0.0396698
0.0392896
0.0389352
0.0386378
0.0384436
0.038392
0.0385229
0.0388699
0.0394605
0.0403137
0.0414398
0.0428405
0.0445091
0.0464316
0.0485876
0.050951
0.0534911
0.0561732
0.0589576
0.061803
0.0387246
0.0385472
0.0383345
0.0380237
0.0376827
0.0373185
0.0369805
0.0367023
0.0365297
0.0365029
0.0366619
0.0370403
0.0376655
0.0385561
0.0397226
0.0411662
0.0428802
0.0448503
0.0470561
0.0494714
0.0520655
0.0548036
0.0576459
0.060551
0.0367653
0.0366144
0.036413
0.0361211
0.0357952
0.0354489
0.0351291
0.0348716
0.0347218
0.0347206
0.0349077
0.0353169
0.0359752
0.0369016
0.0381059
0.0395896
0.0413457
0.04336
0.045612
0.0480756
0.0507199
0.0535104
0.0564073
0.0593691
0.0349018
0.0347771
0.0345879
0.0343161
0.034007
0.0336805
0.0333808
0.0331455
0.0330196
0.0330444
0.0332596
0.0336988
0.0343891
0.035349
0.0365888
0.0381096
0.0399046
0.0419598
0.0442544
0.0467627
0.0494538
0.0522933
0.0552415
0.0582569
0.0331337
0.0330344
0.0328584
0.0326077
0.0323172
0.0320121
0.0317342
0.0315226
0.0314216
0.0314729
0.0317159
0.0321844
0.0329051
0.0338967
0.0351694
0.0367245
0.0385553
0.0406478
0.0429817
0.0455313
0.0482659
0.0511512
0.0541476
0.0572138
0.0314594
0.0313847
0.0312227
0.0309941
0.0307237
0.0304417
0.0301872
0.0300005
0.0299253
0.0300035
0.0302742
0.0307709
0.0315205
0.0325418
0.0338449
0.0354315
0.037295
0.0394218
0.0417917
0.0443792
0.0471541
0.0500822
0.0531241
0.0562386
0.0298767
0.0298256
0.0296782
0.0294725
0.0292237
0.0289662
0.0287365
0.028576
0.0285274
0.0286327
0.0289306
0.0294546
0.0302317
0.0312806
0.0326117
0.034227
0.0361203
0.0382783
0.0406811
0.0433037
0.046116
0.0490841
0.0521689
0.0553295
0.0283823
0.0283537
0.0282215
0.0280394
0.0278133
0.0275817
0.0273782
0.0272448
0.0272235
0.0273559
0.0276806
0.028231
0.029034
0.0301085
0.0314653
0.0331068
0.0350272
0.0372136
0.0396465
0.0423014
0.0451483
0.0481541
0.0512795
0.0544841
0.0269724
0.0269649
0.0268483
0.0266902
0.0264881
0.0262834
0.0261071
0.0260018
0.0260082
0.0261678
0.0265188
0.0270946
0.0279219
0.0290202
0.0304005
0.0320658
0.0340108
0.036223
0.0386835
0.0413681
0.0442475
0.0472887
0.0504529
0.0536998
0.0256423
0.0256544
0.0255538
0.02542
0.0252425
0.0250658
0.0249177
0.0248411
0.0248755
0.0250622
0.0254389
0.0260389