/*--------------------------------*- C++ -*----------------------------------*\
| =========                 |                                                 |
| \\      /  F ield         | OpenFOAM Extend Project: Open source CFD        |
|  \\    /   O peration     | Version:  1.6-ext                               |
|   \\  /    A nd           | Web:      www.extend-project.de                 |
|    \\/     M anipulation  |                                                 |
\*---------------------------------------------------------------------------*/
FoamFile
{
    version     2.0;
    format      ascii;
    class       surfaceScalarField;
    location    "1.05";
    object      phi;
}
// * * * * * * * * * * * * * * * * * * * * * * * * * * * * * * * * * * * * * //

dimensions      [0 3 -1 0 0 0 0];

internalField   nonuniform List<scalar> 
41420
(
-0.000127153
0.000396707
-0.000397469
0.000127915
-0.000125933
0.000377771
-0.000378991
-0.000124287
0.000359182
-0.000360828
-0.000122215
0.000340842
-0.000342914
-0.000119653
0.000322747
-0.000325308
-0.000116451
0.000304682
-0.000307884
-0.00011237
0.000286297
-0.000290379
-0.000107114
0.00026712
-0.000272375
-0.000100411
0.000246667
-0.00025337
-9.21067e-05
0.000224597
-0.000232901
-8.22591e-05
0.000200856
-0.000210704
-7.11793e-05
0.000175774
-0.000186853
-5.93994e-05
0.000150037
-0.000161817
-4.75786e-05
0.000124569
-0.00013639
-3.63742e-05
0.000100334
-0.000111538
-2.63341e-05
7.81611e-05
-8.82012e-05
-1.78282e-05
5.86253e-05
-6.71312e-05
-1.1039e-05
4.20087e-05
-4.8798e-05
-5.98636e-06
2.83307e-05
-3.33833e-05
-2.57532e-06
1.74134e-05
-2.08244e-05
-6.43419e-07
8.95545e-06
-1.08874e-05
2.59943e-06
-3.24285e-06
-0.000134983
0.00039577
0.00013592
-0.000133564
0.000376352
-0.000131681
0.000357299
-0.000129298
0.000338458
-0.000126298
0.000319747
-0.000122468
0.000300852
-0.000117522
0.000281351
-0.000111157
0.000260755
-0.000103153
0.000238664
-9.34753e-05
0.000214919
-8.23384e-05
0.000189719
-7.02073e-05
0.000163643
-5.77211e-05
0.000137551
-4.55696e-05
0.000112417
-3.43698e-05
8.91338e-05
-2.45776e-05
6.83688e-05
-1.64556e-05
5.05034e-05
-1.00869e-05
3.564e-05
-5.41695e-06
2.36608e-05
-2.30401e-06
1.43004e-05
-5.63097e-07
7.21454e-06
2.03633e-06
-0.000149877
0.000394157
0.00015149
-0.000147757
0.000374232
-0.00014512
0.000354662
-0.000141872
0.000335211
-0.000137831
0.000315705
-0.000132715
0.000295737
-0.000126204
0.00027484
-0.000118023
0.000252574
-0.000108057
0.000228697
-9.64364e-05
0.000203298
-8.35656e-05
0.000176848
-7.00665e-05
0.000150144
-5.66617e-05
0.000124146
-4.40385e-05
9.97941e-05
-3.27394e-05
7.78347e-05
-2.31092e-05
5.87386e-05
-1.52937e-05
4.26879e-05
-9.27745e-06
2.96237e-05
-4.93462e-06
1.93179e-05
-2.07888e-06
1.14447e-05
-5.02022e-07
5.63768e-06
1.53431e-06
-0.000164167
0.000391892
0.000166432
-0.000161343
0.000371408
-0.000157902
0.00035122
-0.000153675
0.000330985
-0.000148403
0.000310433
-0.000141751
0.000289085
-0.000133402
0.000266491
-0.000123173
0.000242344
-0.000111113
0.000216637
-9.75618e-05
0.000189747
-8.31151e-05
0.000162402
-6.85163e-05
0.000135545
-5.45141e-05
0.000110144
-4.17348e-05
8.70148e-05
-3.06067e-05
6.67065e-05
-2.13436e-05
4.94755e-05
-1.39753e-05
3.53196e-05
-8.39819e-06
2.40466e-05
-4.42931e-06
1.53491e-05
-1.85118e-06
8.86657e-06
-4.431e-07
4.2296e-06
1.09121e-06
-0.000177131
0.000389021
0.000180003
-0.000173605
0.000367881
-0.000169293
0.000346909
-0.000163942
0.000325633
-0.000157218
0.000303709
-0.000148769
0.000280636
-0.00013835
0.000256073
-0.000125938
0.000229932
-0.000111805
0.000202505
-9.65135e-05
0.000174456
-8.08177e-05
0.000146706
-6.55193e-05
0.000120246
-5.13227e-05
9.59476e-05
-3.87397e-05
7.44317e-05
-2.80558e-05
5.60226e-05
-1.9351e-05
4.07708e-05
-1.255e-05
2.85186e-05
-7.47887e-06
1.89754e-05
-3.91508e-06
1.17853e-05
-1.62477e-06
6.57625e-06
-3.85811e-07
2.99064e-06
7.054e-07
-0.000188687
0.000385564
0.000192144
-0.000184406
0.0003636
-0.00017908
0.000341583
-0.000172368
0.000318922
-0.000163901
0.000295242
-0.000153377
0.000270111
-0.000140702
0.000243398
-0.000126085
0.000215315
-0.00011005
0.000186469
-9.33551e-05
0.000157761
-7.68479e-05
0.000130199
-6.13065e-05
0.000104705
-4.73244e-05
8.19656e-05
-3.52603e-05
6.23676e-05
-2.52482e-05
4.60105e-05
-1.72451e-05
3.27677e-05
-1.10903e-05
2.23638e-05
-6.56058e-06
1.44457e-05
-3.41182e-06
8.6365e-06
-1.40703e-06
4.57147e-06
-3.31642e-07
1.91525e-06
3.73758e-07
-0.000198613
0.000381472
0.000202704
-0.00019344
0.000358427
-0.000186867
0.00033501
-0.00017849
0.000310544
-0.000167969
0.000284721
-0.000155143
0.000257286
-0.000140157
0.000228412
-0.000123493
0.00019865
-0.000105909
0.000168885
-8.8292e-05
0.000140144
-7.14904e-05
0.000113397
-5.61781e-05
8.93925e-05
-4.2788e-05
6.85755e-05
-3.15109e-05
5.10905e-05
-2.23392e-05
3.68388e-05
-1.51289e-05
2.55574e-05
-9.65885e-06
1.68938e-05
-5.67774e-06
1.04646e-05
-2.93592e-06
5.89467e-06
-1.20406e-06
2.83961e-06
-2.81853e-07
9.93052e-07
9.19049e-08
-0.00020668
0.000376648
0.000211504
-0.000200393
0.000352141
-0.000192259
0.000326875
-0.000181876
0.000300162
-0.000169032
0.000271877
-0.000153805
0.000242059
-0.000136639
0.000211246
-0.000118285
0.000180297
-9.96675e-05
0.000150268
-8.17008e-05
0.000122177
-6.51383e-05
9.68346e-05
-5.04874e-05
7.47417e-05
-3.79976e-05
5.60857e-05
-2.76999e-05
4.07928e-05
-1.94697e-05
2.86086e-05
-1.30907e-05
1.91784e-05
-8.30653e-06
1.21096e-05
-4.85687e-06
7.01491e-06
-2.49932e-06
3.53712e-06
-1.02004e-06
1.36033e-06
-2.37254e-07
2.10261e-07
-1.45349e-07
-0.000212498
0.000370845
0.0002183
-0.000204775
0.000344418
-0.00019472
0.000316821
-0.000182043
0.000287484
-0.000166759
0.000256593
-0.000149259
0.000224558
-0.000130288
0.000192275
-0.000110802
0.000160811
-9.17816e-05
0.000131247
-7.40611e-05
0.000104457
-5.82257e-05
8.09992e-05
-4.4586e-05
6.11019e-05
-3.32136e-05
4.47133e-05
-2.40061e-05
3.15852e-05
-1.67541e-05
2.13567e-05
-1.11986e-05
1.36229e-05
-7.07062e-06
7.9816e-06
-4.11631e-06
4.0606e-06
-2.10973e-06
1.53054e-06
-8.57427e-07
1.08032e-07
-1.98219e-07
-4.48947e-07
-3.43568e-07
-0.000215694
0.000363813
0.000222726
-0.000206186
0.00033491
-0.0001939
0.000304535
-0.00017877
0.000272354
-0.000161143
0.000238966
-0.000141742
0.000205157
-0.00012155
0.000172082
-0.000101611
0.000140872
-8.28426e-05
0.000112479
-6.59092e-05
8.75234e-05
-5.11884e-05
6.62784e-05
-3.87974e-05
4.87109e-05
-2.86588e-05
3.45748e-05
-2.05728e-05
2.34992e-05
-1.42791e-05
1.5063e-05
-9.50162e-06
8.84543e-06
-5.97682e-06
4.45679e-06
-3.46817e-06
1.55196e-06
-1.77201e-06
-1.6563e-07
-7.17669e-07
-9.46306e-07
-1.64968e-07
-1.00165e-06
-5.08536e-07
-0.000215718
0.000355095
0.000224437
-0.000204082
0.000323274
-0.000189395
0.000289848
-0.000171917
0.000254876
-0.000152342
0.000219391
-0.00013167
0.000184485
-0.000111004
0.000151416
-9.13403e-05
0.000121209
-7.34309e-05
9.45696e-05
-5.77236e-05
7.18162e-05
-4.43861e-05
5.29408e-05
-3.33721e-05
3.76969e-05
-2.44955e-05
2.56982e-05
-1.74984e-05
1.65021e-05
-1.21e-05
9.66456e-06
-8.02866e-06
4.77406e-06
-5.03879e-06
1.46692e-06
-2.91804e-06
-5.68791e-07
-1.48787e-06
-1.5958e-06
-6.00962e-07
-1.83321e-06
-1.37372e-07
-1.46524e-06
-6.45909e-07
-0.000212462
0.000344541
0.000223016
-0.000198546
0.000309357
-0.00018152
0.000272822
-0.000162044
0.0002354
-0.000141122
0.000198469
-0.000119916
0.000163279
-9.95113e-05
0.000131011
-8.07492e-05
0.000102447
-6.41538e-05
7.79742e-05
-4.99498e-05
5.76122e-05
-3.81233e-05
4.11143e-05
-2.8505e-05
2.80786e-05
-2.08417e-05
1.80349e-05
-1.48503e-05
1.05107e-05
-1.02532e-05
5.06749e-06
-6.7979e-06
1.31873e-06
-4.26492e-06
-1.06606e-06
-2.46945e-06
-2.36427e-06
-1.25871e-06
-2.80654e-06
-5.07872e-07
-2.58405e-06
-1.15666e-07
-1.85744e-06
-7.61575e-07
-0.0002054
0.000331653
0.000218289
-0.000189241
0.000293198
-0.000170262
0.000253843
-0.000149461
0.000214599
-0.000128023
0.000177031
-0.000107124
0.00014238
-8.76952e-05
0.000111583
-7.03561e-05
8.51077e-05
-5.53958e-05
6.30139e-05
-4.28435e-05
4.50599e-05
-3.25522e-05
3.08231e-05
-2.4276e-05
1.98024e-05
-1.77318e-05
1.14907e-05
-1.2638e-05
5.41691e-06
-8.73681e-06
1.1663e-06
-5.80372e-06
-1.61436e-06
-3.64955e-06
-3.22022e-06
-2.1181e-06
-3.89572e-06
-1.08179e-06
-3.84284e-06
-4.36904e-07
-3.22893e-06
-9.92208e-08
-2.19513e-06
-8.60796e-07
-0.000195148
0.000316969
0.000209832
-0.00017715
0.0002752
-0.00015679
0.000233483
-0.000135425
0.000193234
-0.000114251
0.000155857
-9.43377e-05
0.000122466
-7.63895e-05
9.36347e-05
-6.07746e-05
6.94927e-05
-4.75734e-05
4.98126e-05
-3.66667e-05
3.41533e-05
-2.78227e-05
2.19791e-05
-2.07609e-05
1.27405e-05
-1.51972e-05
5.92698e-06
-1.08693e-05
1.08907e-06
-7.5483e-06
-2.15475e-06
-5.04107e-06
-4.12158e-06
-3.18884e-06
-5.07245e-06
-1.86254e-06
-5.22202e-06
-9.57767e-07
-4.74762e-06
-3.89792e-07
-3.79691e-06
-8.94854e-08
-2.49543e-06
-9.50281e-07
-0.000181464
0.000300059
0.000198375
-0.00016223
0.000255966
-0.000141371
0.000212623
-0.000120349
0.000172212
-0.000100281
0.000135789
-8.19881e-05
0.000104174
-6.59155e-05
7.75621e-05
-5.22035e-05
5.57807e-05
-4.07756e-05
3.83847e-05
-3.14257e-05
2.48034e-05
-2.38879e-05
1.44413e-05
-1.78842e-05
6.73684e-06
-1.31524e-05
1.19518e-06
-9.46075e-06
-2.60259e-06
-6.61287e-06
-5.00262e-06
-4.44708e-06
-6.28738e-06
-2.83259e-06
-6.68695e-06
-1.66468e-06
-6.38993e-06
-8.5948e-07
-5.55281e-06
-3.49189e-07
-4.3072e-06
-7.82547e-08
-2.76637e-06
-1.02854e-06
-0.00034211
0.000243837
0.000398332
-0.000286683
0.000200539
-0.000234617
0.000160558
-0.000187741
0.000125336
-0.000147044
9.50909e-05
-0.000112836
6.99664e-05
-8.48642e-05
4.95901e-05
-6.25319e-05
3.34484e-05
-4.5076e-05
2.09288e-05
-3.16983e-05
1.14257e-05
-2.16447e-05
4.38778e-06
-1.42475e-05
-6.60411e-07
-8.93782e-06
-4.11449e-06
-5.24386e-06
-6.29654e-06
-2.78032e-06
-7.46616e-06
-1.23499e-06
-7.83271e-06
-3.55503e-07
-7.56643e-06
6.23936e-08
-6.80783e-06
1.8448e-07
-5.6749e-06
1.45601e-07
-4.26832e-06
5.49907e-08
-2.67576e-06
-9.73545e-07
-0.000283263
0.000185794
0.000341306
-0.00022989
0.000147166
-0.000182667
0.000113336
-0.000142256
8.49247e-05
-0.000108662
6.14976e-05
-8.14295e-05
4.27335e-05
-5.98315e-05
2.79922e-05
-4.30327e-05
1.66496e-05
-3.02026e-05
8.09866e-06
-2.05811e-05
1.80416e-06
-1.35075e-05
-2.68577e-06
-8.4274e-06
-5.74052e-06
-4.88565e-06
-7.65624e-06
-2.51409e-06
-8.6681e-06
-1.01699e-06
-8.96326e-06
-1.57449e-07
-8.69226e-06
2.5444e-07
-7.97832e-06
3.71212e-07
-6.9246e-06
3.15565e-07
-5.61925e-06
1.86003e-07
-4.13876e-06
6.07148e-08
-2.55047e-06
-9.1283e-07
-0.000221191
0.000131969
0.000275016
-0.000174271
0.000100246
-0.000134745
7.38091e-05
-0.00010224
5.242e-05
-7.61434e-05
3.5401e-05
-5.55951e-05
2.21852e-05
-3.97085e-05
1.21056e-05
-2.76343e-05
4.57539e-06
-1.86176e-05
-9.18037e-07
-1.20144e-05
-4.79904e-06
-7.2911e-06
-7.40908e-06
-4.01382e-06
-9.01781e-06
-1.83395e-06
-9.83611e-06
-4.73094e-07
-1.0029e-05
2.90459e-07
-9.72681e-06
6.3325e-07
-9.03505e-06
6.95932e-07
-8.041e-06
5.90519e-07
-6.81919e-06
4.05926e-07
-5.43466e-06
2.12201e-07
-3.94504e-06
6.34519e-08
-2.40172e-06
-8.49378e-07
-0.00016269
8.63205e-05
0.000208338
-0.00012455
6.21054e-05
-9.36358e-05
4.2895e-05
-6.90075e-05
2.77917e-05
-4.97889e-05
1.61825e-05
-3.50343e-05
7.43053e-06
-2.38997e-05
9.71002e-07
-1.56451e-05
-3.67921e-06
-9.65052e-06
-6.91258e-06
-5.40787e-06
-9.04169e-06
-2.50721e-06
-1.03097e-05
-6.21063e-07
-1.09039e-05
5.10769e-07
-1.09679e-05
1.09471e-06
-1.06129e-05
1.29449e-06
-9.92659e-06
1.23993e-06
-8.98049e-06
1.03391e-06
-7.83498e-06
7.57465e-07
-6.54274e-06
4.73745e-07
-5.15094e-06
2.31011e-07
-3.7023e-06
6.48682e-08
-2.23558e-06
-7.8451e-07
-0.000111637
5.04135e-05
0.000147544
-8.27047e-05
3.31729e-05
-5.99479e-05
2.01381e-05
-4.2317e-05
1.01608e-05
-2.89135e-05
2.77895e-06
-1.88945e-05
-2.58839e-06
-1.15535e-05
-6.37e-06
-6.30156e-06
-8.93118e-06
-2.66072e-06
-1.05534e-05
-2.47681e-07
-1.14547e-05
1.24243e-06
-1.17999e-05
2.05107e-06
-1.17126e-05
2.36914e-06
-1.1286e-05
2.34755e-06
-1.05913e-05
2.10561e-06
-9.68465e-06
1.73749e-06
-8.61237e-06
1.31718e-06
-7.41467e-06
9.02085e-07
-6.12765e-06
5.35862e-07
-4.78471e-06
2.50379e-07
-3.41682e-06
6.74323e-08
-2.05263e-06
-7.17078e-07
-6.9387e-05
2.40328e-05
9.57678e-05
-4.88305e-05
1.26163e-05
-3.30891e-05
4.39666e-06
-2.12513e-05
-1.67691e-06
-1.25308e-05
-5.9416e-06
-6.25766e-06
-8.86151e-06
-1.8835e-06
-1.07442e-05
1.03466e-06
-1.18493e-05
2.85042e-06
-1.23692e-05
3.84414e-06
-1.24485e-05
4.23728e-06
-1.2193e-05
4.20451e-06
-1.16798e-05
3.88354e-06
-1.0965e-05
3.38299e-06
-1.00908e-05
2.78838e-06
-9.09003e-06
2.16681e-06
-7.9908e-06
1.57016e-06
-6.81802e-06
1.03796e-06
-5.59544e-06
5.98933e-07
-4.34569e-06
2.72927e-07
-3.09081e-06
7.16781e-08
-1.85138e-06
-6.454e-07
-3.56029e-05
5.95466e-06
5.3681e-05
-2.2033e-05
-9.5363e-07
-1.19917e-05
-5.64457e-06
-4.76341e-06
-8.90522e-06
2.77558e-07
-1.09826e-05
3.631e-06
-1.22149e-05
5.70181e-06
-1.2815e-05
6.81067e-06
-1.29582e-05
7.2111e-06
-1.27696e-05
7.10246e-06
-1.23398e-05
6.64133e-06
-1.17319e-05
5.95072e-06
-1.09892e-05
5.1274e-06
-1.01417e-05
4.2474e-06
-9.21076e-06
3.37042e-06
-8.21305e-06
2.54265e-06
-7.16304e-06
1.79954e-06
-6.07491e-06
1.16688e-06
-4.96278e-06
6.6274e-07
-3.84155e-06
2.97909e-07
-2.72598e-06
7.72535e-08
-1.63072e-06
-5.68146e-07
-9.18854e-06
-5.31085e-06
2.0454e-05
-1.19228e-06
-8.94989e-06
4.35014e-06
-1.1187e-05
7.97896e-06
-1.2534e-05
1.01621e-05
-1.31657e-05
1.12576e-05
-1.33104e-05
1.1552e-05
-1.31094e-05
1.12686e-05
-1.26748e-05
1.0582e-05
-1.2083e-05
9.62816e-06
-1.13859e-05
8.51295e-06
-1.06167e-05
7.31912e-06
-9.79538e-06
6.1113e-06
-8.93391e-06
4.94017e-06
-8.03962e-06
3.84501e-06
-7.1179e-06
2.85629e-06
-6.17432e-06
1.99646e-06
-5.21508e-06
1.28175e-06
-4.24807e-06
7.22083e-07
-3.28188e-06
3.22577e-07
-2.32648e-06
8.32241e-08
-1.39137e-06
-4.84922e-07
1.08358e-05
-1.11775e-05
-4.96913e-06
1.45022e-05
-1.26162e-05
1.65763e-05
-1.32611e-05
1.74515e-05
-1.34093e-05
1.74603e-05
-1.31745e-05
1.68486e-05
-1.26987e-05
1.5809e-05
-1.20698e-05
1.44884e-05
-1.13542e-05
1.29991e-05
-1.05938e-05
1.14273e-05
-9.81411e-06
9.83909e-06
-9.02842e-06
8.28537e-06
-8.24166e-06
6.80572e-06
-7.45426e-06
5.4307e-06
-6.6646e-06
4.1841e-06
-5.8713e-06
3.08368e-06
-5.07389e-06
2.14267e-06
-4.27407e-06
1.36958e-06
-3.47498e-06
7.69436e-07
-2.68174e-06
3.43173e-07
-1.90021e-06
8.85804e-08
-1.13678e-06
-3.96342e-07
2.50861e-05
-1.28984e-05
-2.33652e-05
2.54879e-05
-1.30181e-05
2.49821e-05
-1.27552e-05
2.38365e-05
-1.22638e-05
2.2271e-05
-1.16089e-05
2.04425e-05
-1.08703e-05
1.84696e-05
-1.0097e-05
1.64389e-05
-9.32342e-06
1.44142e-05
-8.56907e-06
1.24426e-05
-7.84249e-06
1.05589e-05
-7.1448e-06
8.78963e-06
-6.47235e-06
7.15456e-06
-5.8192e-06
5.66914e-06
-5.17918e-06
4.34488e-06
-4.54704e-06
3.19056e-06
-3.91957e-06
2.21193e-06
-3.29544e-06
1.41272e-06
-2.67577e-06
7.9394e-07
-2.06296e-06
3.54806e-07
-1.46108e-06
9.19293e-08
-8.73903e-07
-3.04413e-07
3.3771e-05
-1.16265e-05
-3.50428e-05
3.18755e-05
-1.11226e-05
2.96035e-05
-1.04833e-05
2.71163e-05
-9.77656e-06
2.45412e-05
-9.03384e-06
2.19646e-05
-8.29368e-06
1.94468e-05
-7.57913e-06
1.70279e-05
-6.90458e-06
1.47347e-05
-6.27578e-06
1.25844e-05
-5.69221e-06
1.05886e-05
-5.149e-06
8.75511e-06
-4.63888e-06
7.08966e-06
-4.15375e-06
5.59636e-06
-3.68588e-06
4.27835e-06
-3.22903e-06
3.13751e-06
-2.77873e-06
2.175e-06
-2.33293e-06
1.39059e-06
-1.89136e-06
7.83439e-07
-1.45582e-06
3.51419e-07
-1.02906e-06
9.16127e-08
-6.14097e-07
-2.128e-07
3.68118e-05
-8.50113e-06
-3.99371e-05
3.35696e-05
-7.88045e-06
3.03316e-05
-7.24524e-06
2.7173e-05
-6.61803e-06
2.41499e-05
-6.01067e-06
2.12944e-05
-5.43818e-06
1.86238e-05
-4.90854e-06
1.61446e-05
-4.42536e-06
1.38568e-05
-3.98806e-06
1.17573e-05
-3.59263e-06
9.84128e-06
-3.23302e-06
8.10446e-06
-2.90206e-06
6.54303e-06
-2.59233e-06
5.15419e-06
-2.29704e-06
3.93567e-06
-2.0105e-06
2.88562e-06
-1.72869e-06
2.00202e-06
-1.44933e-06
1.28279e-06
-1.17213e-06
7.25411e-07
-8.98432e-07
3.27426e-07
-6.31074e-07
8.62582e-08
-3.72929e-07
-1.26542e-07
3.40117e-05
-4.7001e-06
-3.78128e-05
3.04011e-05
-4.26987e-06
2.70147e-05
-3.85876e-06
2.38679e-05
-3.47126e-06
2.0968e-05
-3.11081e-06
1.83116e-05
-2.78173e-06
1.58885e-05
-2.48545e-06
1.36847e-05
-2.22161e-06
1.16848e-05
-1.98815e-06
9.87373e-06
-1.78154e-06
8.23818e-06
-1.59747e-06
6.76731e-06
-1.43119e-06
5.45285e-06
-1.27787e-06
4.28881e-06
-1.133e-06
3.27103e-06
-9.92722e-07
2.39638e-06
-8.54035e-07
1.6622e-06
-7.15154e-07
1.0657e-06
-5.7563e-07
6.03887e-07
-4.36616e-07
2.73628e-07
-3.00815e-07
7.24955e-08
-1.71797e-07
-5.40461e-08
2.52098e-05
-1.44951e-06
-2.84604e-05
2.22416e-05
-1.30171e-06
1.9545e-05
-1.16211e-06
1.71061e-05
-1.03242e-06
1.49094e-05
-9.1405e-07
1.29358e-05
-8.08154e-07
1.11651e-05
-7.14751e-07
9.57682e-06
-6.33328e-07
8.15154e-06
-5.62864e-07
6.872e-06
-5.02003e-07
5.72369e-06
-4.49162e-07
4.69513e-06
-4.02628e-07
3.77791e-06
-3.60642e-07
2.96637e-06
-3.21463e-07
2.2571e-06
-2.83452e-07
1.64823e-06
-2.45169e-07
1.13858e-06
-2.05504e-07
7.26831e-07
-1.63878e-07
4.10787e-07
-1.20573e-07
1.87015e-07
-7.70424e-08
5.10181e-08
-3.58003e-08
-3.02802e-09
1.03577e-05
-1.1817e-05
9.04799e-06
7.87933e-06
6.84145e-06
5.92276e-06
5.1106e-06
4.39235e-06
3.7559e-06
3.19023e-06
2.68567e-06
2.23416e-06
1.82937e-06
1.46672e-06
1.1434e-06
8.58236e-07
6.11497e-07
4.04574e-07
2.39441e-07
1.17795e-07
3.98871e-08
3.45976e-09
0.000298216
2.55356e-05
1.20976e-06
-0.000324961
0.000272958
2.40162e-05
1.24208e-06
0.000249095
2.25942e-05
1.26824e-06
0.000226548
2.12588e-05
1.28817e-06
0.000205241
2.00055e-05
1.3022e-06
0.000185099
1.88305e-05
1.31074e-06
0.000166056
1.77292e-05
1.31417e-06
0.000148046
1.66973e-05
1.31289e-06
0.000131008
1.57302e-05
1.30727e-06
0.000114887
1.48233e-05
1.29767e-06
9.96316e-05
1.39714e-05
1.28426e-06
8.51985e-05
1.31664e-05
1.26672e-06
7.15608e-05
1.2394e-05
1.24374e-06
5.87191e-05
1.16293e-05
1.21243e-06
4.67172e-05
1.08337e-05
1.16822e-06
3.56543e-05
9.9577e-06
1.10513e-06
2.56898e-05
8.94747e-06
1.01709e-06
1.70328e-05
7.7578e-06
8.9923e-07
9.92069e-06
6.36273e-06
7.49325e-07
4.58825e-06
4.76397e-06
5.68473e-07
1.23514e-06
2.99198e-06
3.61133e-07
1.10077e-06
1.34375e-07
0.0002978
5.22037e-05
-0.000324468
0.000272611
4.92047e-05
0.000248809
4.63962e-05
0.000226314
4.37537e-05
0.000205051
4.12688e-05
0.000184947
3.89342e-05
0.000165935
3.67412e-05
0.000147951
3.46813e-05
0.000130936
3.2746e-05
0.000114832
3.09267e-05
9.95906e-05
2.9213e-05
8.51683e-05
2.75887e-05
7.15386e-05
2.60237e-05
5.87026e-05
2.44653e-05
4.67045e-05
2.28319e-05
3.56443e-05
2.10179e-05
2.56818e-05
1.891e-05
1.70268e-05
1.64128e-05
9.91681e-06
1.34727e-05
4.58644e-06
1.00943e-05
1.23468e-06
6.34373e-06
2.33545e-06
0.00029655
7.86689e-05
-0.000323015
0.000271537
7.42178e-05
0.000247885
7.00478e-05
0.000225521
6.61179e-05
0.000204372
6.24177e-05
0.000184368
5.89375e-05
0.000165445
5.5665e-05
0.000147538
5.2588e-05
0.000130589
4.96944e-05
0.000114545
4.69715e-05
9.93535e-05
4.44041e-05
8.49745e-05
4.19677e-05
7.13812e-05
3.9617e-05
5.85758e-05
3.72707e-05
4.6603e-05
3.48047e-05
3.55647e-05
3.20562e-05
2.56208e-05
2.88539e-05
1.69829e-05
2.50507e-05
9.88833e-06
2.05673e-05
4.57128e-06
1.54114e-05
1.22985e-06
9.68517e-06
3.5653e-06
0.000294805
0.000104824
-0.00032096
0.000270062
9.89607e-05
0.00024664
9.34694e-05
0.000224473
8.82851e-05
0.000203493
8.33979e-05
0.000183634
7.87962e-05
0.000164835
7.44647e-05
0.000147034
7.03884e-05
0.000130177
6.65518e-05
0.000114209
6.29391e-05
9.90832e-05
5.95301e-05
8.47582e-05
5.62927e-05
7.12096e-05
5.31656e-05
5.84398e-05
5.00405e-05
4.64962e-05
4.67482e-05
3.54804e-05
4.3072e-05
2.55567e-05
3.87776e-05
1.69357e-05
3.36717e-05
9.85769e-06
2.76453e-05
4.5551e-06
2.0714e-05
1.22461e-06
1.30156e-05
4.78992e-06
0.000292745
0.000130576
-0.000318497
0.00026835
0.000123356
0.000245223
0.000116597
0.000223306
0.000110202
0.000202539
0.000104165
0.000182861
9.84736e-05
0.000164215
9.31106e-05
0.000146545
8.80587e-05
0.000129797
8.33001e-05
0.00011392
7.88157e-05
9.88687e-05
7.45816e-05
8.46034e-05
7.0558e-05
7.11006e-05
6.66684e-05
5.83649e-05
6.27762e-05
4.6444e-05
5.86692e-05
3.54435e-05
5.40725e-05
2.55281e-05
4.8693e-05
1.69142e-05
4.22855e-05
9.84139e-06
3.47181e-05
4.54564e-06
2.60097e-05
1.22087e-06
1.63404e-05
6.01079e-06
0.00029077
0.000155867
-0.000316062
0.000266769
0.000147357
0.00024397
0.000139396
0.00022233
0.000131842
0.000201794
0.000124701
0.000182309
0.000117958
0.000163823
0.000111597
0.000146284
0.000105598
0.000129641
9.99428e-05
0.000113848
9.46089e-05
9.88597e-05
8.95696e-05
8.46404e-05
8.47772e-05
7.11668e-05
8.0142e-05
5.84455e-05
7.54975e-05
4.65249e-05
7.05898e-05
3.55146e-05
6.50828e-05
2.5582e-05
5.86256e-05
1.69489e-05
5.09187e-05
9.85939e-06
4.18076e-05
4.55139e-06
3.13177e-05
1.22147e-06
1.96703e-05
7.23226e-06
0.000289094
0.000180656
-0.000313883
0.000265515
0.000170936
0.000243064
0.000161848
0.000221709
0.000153197
0.000201407
0.000145003
0.000182112
0.000137253
0.000163779
0.000129931
0.000146359
0.000123018
0.000129809
0.000116493
0.000114083
0.000110335
9.91408e-05
0.000104512
8.49456e-05
9.89724e-05
7.14784e-05
9.36093e-05
5.87427e-05
8.82331e-05
4.67938e-05
8.25387e-05
3.57375e-05
7.61392e-05
2.5754e-05
6.8609e-05
1.70645e-05
5.96082e-05
9.92708e-06
4.8945e-05
4.58105e-06
3.66638e-05
1.22824e-06
2.30232e-05
8.4605e-06
0.000287896
0.000204915
-0.000312155
0.000264757
0.000194075
0.00024266
0.000183944
0.000221593
0.000174264
0.00020152
0.000165075
0.000182405
0.000156368
0.000164209
0.000148127
0.000146889
0.000140337
0.000130406
0.000132976
0.000114721
0.000126021
9.97922e-05
0.00011944
8.55898e-05
0.000113175
7.20909e-05
0.000107108
5.93063e-05
0.000101018
4.72833e-05
9.45617e-05
3.6143e-05
8.72794e-05
2.60584e-05
7.86936e-05
1.7275e-05
6.83916e-05
1.00476e-05
5.61724e-05
4.63595e-06
4.20754e-05
1.24101e-06
2.64181e-05
9.70151e-06
0.000287307
0.000228629
-0.000311021
0.000264609
0.000216773
0.000242857
0.000205695
0.00022206
0.000195062
0.000202194
0.000184941
0.000183233
0.000175328
0.000165147
0.000166214
0.000147901
0.000157583
0.000131459
0.000149418
0.000115784
0.000141696
0.000100842
0.000134383
8.65983e-05
0.000127418
7.30374e-05
0.000120669
6.01616e-05
0.000113894
4.80294e-05
0.000106694
3.67514e-05
9.85574e-05
2.65257e-05
8.89193e-05
1.75922e-05
7.73251e-05
1.02382e-05
6.35265e-05
4.72191e-06
4.75916e-05
1.26377e-06
2.98762e-05
1.09653e-05
0.000287367
0.000251783
-0.000310522
0.000265114
0.000239026
0.00024371
0.000227099
0.000223177
0.000215596
0.000203504
0.000204614
0.000184675
0.000194157
0.000166669
0.00018422
0.000149459
0.000174793
0.000133017
0.000165861
0.00011731
0.000157402
0.000102307
0.000149386
8.79783e-05
0.000141746
7.43038e-05
0.000134344
6.1293e-05
0.000126904
4.8995e-05
0.000118992
3.75377e-05
0.000110015
2.71136e-05
9.93434e-05
1.79945e-05
8.64443e-05
1.04693e-05
7.10517e-05
4.8266e-06
5.32343e-05
1.28802e-06
3.34148e-05
1.22533e-05
0.000288066
0.00027437
-0.000310653
0.000266238
0.000260854
0.000245148
0.000248188
0.000224844
0.000235899
0.000205333
0.000224126
0.000186609
0.000212881
0.00016866
0.000202169
0.000151465
0.000191987
0.000135001
0.000182325
0.00011924
0.000173164
0.000104154
0.000164473
8.97138e-05
0.000156186
7.5902e-05
0.000148155
6.27205e-05
0.000140086
5.02249e-05
0.000131487
3.85372e-05
0.000121702
2.78723e-05
0.000110008
1.85098e-05
9.58068e-05
1.0774e-05
7.87876e-05
4.96479e-06
5.90435e-05
1.32443e-06
3.70552e-05
1.35777e-05
0.000289426
0.000296359
-0.000311415
0.000268046
0.000282234
0.000247286
0.000268949
0.000227203
0.000255983
0.000207822
0.000243506
0.000189159
0.000231544
0.000171214
0.000220114
0.000153977
0.000209224
0.000137432
0.00019887
0.000121557
0.000189038
0.000106328
0.000179702
9.17183e-05
0.000170796
7.77088e-05
0.000162165
6.43041e-05
0.000153491
5.15556e-05
0.000144236
3.95969e-05
0.000133661
2.86505e-05
0.000120955
1.90246e-05
0.000105433
1.1061e-05
8.67511e-05
5.08636e-06
6.50181e-05
1.34977e-06
4.07918e-05
1.49275e-05
0.000291259
0.000317758
-0.000312659
0.000270255
0.000303238
0.000249777
0.000289427
0.000229891
0.000275868
0.000210636
0.000262762
0.000192033
0.000250146
0.000174093
0.000238054
0.000156814
0.000226503
0.000140187
0.000215498
0.000124194
0.00020503
0.000108817
0.000195079
9.40307e-05
0.000185582
7.9815e-05
0.000176381
6.61698e-05
0.000167136
5.3146e-05
0.00015726
4.08773e-05
0.00014593
2.9604e-05
0.000132228
1.96579e-05
0.000115379
1.14188e-05
9.49902e-05
5.2402e-06
7.11967e-05
1.38663e-06
4.46453e-05
1.63141e-05
0.00029346
0.000338353
-0.000314054
0.000272935
0.000323763
0.000252761
0.000309601
0.000233041
0.000295587
0.000213854
0.000281949
0.000195245
0.000268755
0.00017724
0.000256059
0.00015985
0.000243893
0.000143073
0.000232274
0.000126901
0.000221202
0.000111317
0.000210664
9.62992e-05
0.0002006
8.18266e-05
0.000190853
6.78981e-05
0.000181064
5.4563e-05
0.000170595
4.19631e-05
0.00015853
3.03567e-05
0.000143834
2.01087e-05
0.000125627
1.16316e-05
0.000103467
5.30278e-06
7.75255e-05
1.38681e-06
4.85613e-05
1.77009e-05
0.000295961
0.000358212
-0.000315819
0.00027577
0.000343954
0.000255897
0.000329473
0.000236381
0.000315104
0.000217309
0.000301022
0.000198738
0.000287326
0.000180706
0.000274092
0.000163231
0.000261368
0.000146322
0.000249183
0.000129976
0.000237548
0.000114181
0.000226459
9.89159e-05
0.000215865
8.41597e-05
0.000205609
6.99071e-05
0.000195317
5.62084e-05
0.000184293
4.32152e-05
0.000171523
3.12102e-05
0.000155839
2.0594e-05
0.000136243
1.18213e-05
0.00011224
5.30552e-06
8.40413e-05
1.33203e-06
5.25348e-05
1.9033e-05
1.24024e-05
0.00036069
-1.48806e-05
9.86011e-06
0.000346496
7.42738e-06
0.000331906
5.01438e-06
0.000317517
2.63095e-06
0.000303405
2.7212e-07
0.000289685
-2.06103e-06
0.000276425
-4.36352e-06
0.000263671
-6.62814e-06
0.000251447
-8.8432e-06
0.000239763
-1.09828e-05
0.000228598
-1.29835e-05
0.000217866
-1.47113e-05
0.000207337
-1.594e-05
0.000196546
-1.6375e-05
0.000184728
-1.57396e-05
0.000170888
-1.39027e-05
0.000154002
-1.09898e-05
0.00013333
-7.42352e-06
0.000108674
-3.87358e-06
8.04914e-05
-1.1397e-06
4.98009e-05
1.78933e-05
7.18638e-06
0.000363472
-9.96898e-06
4.53683e-06
0.000349146
1.92657e-06
0.000334516
-6.27009e-07
0.00032007
-3.10785e-06
0.000305886
-5.51597e-06
0.000292093
-7.84623e-06
0.000278755
-1.00935e-05
0.000265918
-1.22505e-05
0.000253604
-1.43027e-05
0.000241816
-1.6214e-05
0.00023051
-1.79005e-05
0.000219552
-1.92016e-05
0.000208638
-1.98741e-05
0.000197218
-1.96343e-05
0.000184489
-1.82539e-05
0.000169507
-1.56777e-05
0.000151426
-1.21118e-05
0.000129764
-8.03904e-06
0.000104601
-4.15343e-06
7.66058e-05
-1.23308e-06
4.68806e-05
1.66602e-05
1.90794e-06
0.000366472
-4.90802e-06
-8.52406e-07
0.000351906
-3.56449e-06
0.000337228
-6.16923e-06
0.000322675
-8.66478e-06
0.000308381
-1.10481e-05
0.000294476
-1.33145e-05
0.000281022
-1.54599e-05
0.000268063
-1.74761e-05
0.000255621
-1.93429e-05
0.000243682
-2.10094e-05
0.000232176
-2.23665e-05
0.000220909
-2.32267e-05
0.000209498
-2.3333e-05
0.000197325
-2.242e-05
0.000183576
-2.03137e-05
0.000167401
-1.70389e-05
0.000148151
-1.28831e-05
0.000125608
-8.38719e-06
0.000100105
-4.25921e-06
7.24778e-05
-1.24423e-06
4.38656e-05
1.5416e-05
-3.38077e-06
0.000369587
2.66037e-07
-6.23916e-06
0.000354765
-9.00418e-06
0.000339993
-1.16199e-05
0.000325291
-1.4093e-05
0.000310855
-1.64183e-05
0.000296801
-1.85926e-05
0.000283196
-2.06124e-05
0.000270083
-2.24671e-05
0.000257475
-2.41273e-05
0.000245343
-2.55223e-05
0.000233571
-2.65157e-05
0.000221903
-2.68945e-05
0.000209877
-2.63985e-05
0.000196829
-2.47919e-05
0.000181969
-2.19679e-05
0.000164577
-1.80364e-05
0.00014422
-1.3365e-05
0.000120937
-8.53862e-06
9.52786e-05
-4.261e-06
6.82002e-05
-1.22313e-06
4.08277e-05
1.41928e-05
-8.78518e-06
0.000372756
5.61593e-06
-1.16997e-05
0.000357679
-1.44668e-05
0.000342761
-1.70515e-05
0.000327875
-1.94637e-05
0.000313267
-2.16981e-05
0.000299036
-2.37538e-05
0.000285252
-2.56261e-05
0.000271955
-2.72996e-05
0.000259149
-2.87307e-05
0.000246774
-2.98251e-05
0.000234665
-3.0417e-05
0.000222494
-3.02753e-05
0.000209736
-2.91447e-05
0.000195698
-2.68349e-05
0.000179659
-2.33115e-05
0.000161053
-1.87739e-05
0.000139682
-1.36569e-05
0.00011582
-8.57707e-06
9.01987e-05
-4.21277e-06
6.38359e-05
-1.19114e-06
3.78061e-05
1.30017e-05
-1.44428e-05
0.000375939
1.12603e-05
-1.73685e-05
0.000360605
-2.00958e-05
0.000345488
-2.26133e-05
0.000330393
-2.49302e-05
0.000315584
-2.7044e-05
0.00030115
-2.89548e-05
0.000287163
-3.06561e-05
0.000273657
-3.2123e-05
0.000260616
-3.3294e-05
0.000247945
-3.40463e-05
0.000235418
-3.41884e-05
0.000222636
-3.34743e-05
0.000209021
-3.16712e-05
0.000193895
-2.86397e-05
0.000176628
-2.44324e-05
0.000156846
-1.93273e-05
0.000134577
-1.38237e-05
0.000110316
-8.54495e-06
8.492e-05
-4.13739e-06
5.94283e-05
-1.15358e-06
3.48223e-05
1.18481e-05
-2.05042e-05
0.00037909
1.73532e-05
-2.339e-05
0.000363491
-2.60356e-05
0.000348133
-2.84478e-05
0.000332805
-3.0635e-05
0.000317771
-3.25979e-05
0.000303112
-3.43367e-05
0.000288901
-3.58393e-05
0.000275159
-3.70683e-05
0.000261845
-3.79373e-05
0.000248814
-3.82953e-05
0.000235776
-3.79236e-05
0.000222265
-3.65774e-05
0.000207675
-3.40511e-05
0.000191369
-3.02786e-05
0.000172855
-2.53913e-05
0.000151959
-1.9755e-05
0.000128941
-1.39056e-05
0.000104467
-8.47214e-06
7.94865e-05
-4.04726e-06
5.50034e-05
-1.11457e-06
3.18896e-05
1.07335e-05
-2.718e-05
0.000382168
2.41018e-05
-2.99772e-05
0.000366288
-3.24998e-05
0.000350656
-3.4767e-05
0.000335072
-3.67876e-05
0.000319792
-3.85653e-05
0.00030489
-4.00979e-05
0.000290434
-4.13652e-05
0.000276427
-4.23102e-05
0.00026279
-4.28191e-05
0.000249323
-4.27083e-05
0.000235665
-4.17427e-05
0.000221299
-3.9683e-05
0.000205616
-3.6375e-05
0.000188061
-3.18235e-05
0.000168304
-2.62571e-05
0.000146392
-2.01045e-05
0.000122788
-1.39431e-05
9.83057e-05
-8.37799e-06
7.39213e-05
-3.95345e-06
5.05789e-05
-1.07588e-06
2.9012e-05
9.65767e-06
-3.46664e-05
0.000385124
3.17108e-05
-3.73218e-05
0.000368943
-3.96752e-05
0.000353009
-4.17537e-05
0.00033715
-4.35669e-05
0.000321605
-4.512e-05
0.000306443
-4.64057e-05
0.00029172
-4.73897e-05
0.000277411
-4.79906e-05
0.00026339
-4.80612e-05
0.000249393