/*--------------------------------*- C++ -*----------------------------------*\
| =========                 |                                                 |
| \\      /  F ield         | OpenFOAM Extend Project: Open source CFD        |
|  \\    /   O peration     | Version:  1.6-ext                               |
|   \\  /    A nd           | Web:      www.extend-project.de                 |
|    \\/     M anipulation  |                                                 |
\*---------------------------------------------------------------------------*/
FoamFile
{
    version     2.0;
    format      ascii;
    class       volVectorField;
    location    "1.05";
    object      U;
}
// * * * * * * * * * * * * * * * * * * * * * * * * * * * * * * * * * * * * * //

dimensions      [0 1 -1 0 0 0 0];

internalField   nonuniform List<vector> 
20940
(
(1.84843 0.398376 -9.74447e-21)
(1.88793 0.418401 1.55365e-20)
(1.92534 0.437705 7.57947e-22)
(1.95979 0.455241 -1.10169e-20)
(1.991 0.471218 1.41429e-20)
(2.01732 0.484511 -1.78366e-20)
(2.03577 0.494008 1.04161e-20)
(2.04153 0.49776 -6.83179e-21)
(2.02821 0.493533 8.18879e-21)
(1.98873 0.47909 0)
(1.91686 0.452897 2.19917e-23)
(1.80906 0.41473 -2.63099e-20)
(1.66579 0.366032 7.06434e-21)
(1.49194 0.309799 2.49334e-20)
(1.29599 0.250044 -1.78147e-20)
(1.08837 0.191027 0)
(0.879602 0.13655 0)
(0.678756 0.0895083 0)
(0.492628 0.0517097 0)
(0.325505 0.023923 0)
(0.1794 0.00662352 -1.29443e-23)
(0.0545209 0.000491143 -5.32001e-21)
(1.87528 0.375189 1.56909e-20)
(1.9135 0.39406 -6.55363e-21)
(1.9493 0.411551 -9.5282e-21)
(1.98157 0.4273 1.21807e-20)
(2.00948 0.440968 0)
(2.03051 0.451349 1.89313e-20)
(2.04065 0.457026 -9.7987e-22)
(2.03416 0.455963 3.30942e-20)
(2.00428 0.446094 -8.14835e-21)
(1.94453 0.42574 0)
(1.85043 0.394271 -4.5286e-20)
(1.7211 0.352514 3.76552e-20)
(1.55996 0.302807 7.25202e-21)
(1.37436 0.248612 -2.37754e-20)
(1.17413 0.193845 0)
(0.969826 0.142169 -1.85992e-20)
(0.771 0.0964982 0)
(0.585207 0.058777 1.0607e-20)
(0.417587 0.0299778 -2.3016e-20)
(0.270974 0.0102457 4.79207e-20)
(0.146326 -0.000362208 -2.48088e-20)
(0.0432524 -0.00140665 -4.8819e-21)
(1.89991 0.351974 -2.14295e-20)
(1.93652 0.369759 6.84516e-22)
(1.97018 0.385543 -8.87663e-21)
(1.99939 0.399514 -1.21511e-20)
(2.02257 0.410766 -3.31746e-20)
(2.03617 0.418006 3.78863e-20)
(2.03517 0.419578 -4.52735e-20)
(2.01317 0.413518 0)
(1.96364 0.398141 0)
(1.88145 0.372526 -3.81936e-20)
(1.76458 0.337021 -2.31234e-20)
(1.61515 0.293392 7.34209e-20)
(1.43932 0.244585 0)
(1.24626 0.194148 7.83056e-20)
(1.04633 0.145569 -6.64905e-20)
(0.849389 0.101734 1.85834e-20)
(0.663581 0.0646451 -1.91125e-20)
(0.494739 0.0354027 -5.24274e-20)
(0.346394 0.0143124 4.35052e-20)
(0.220098 0.00106597 4.6201e-20)
(0.115944 -0.00457324 -9.56925e-20)
(0.0330863 -0.00235815 4.98405e-20)
(1.92338 0.329101 0)
(1.95792 0.345869 1.58267e-20)
(1.98861 0.359982 0)
(2.01345 0.372076 0)
(2.02981 0.38067 -3.41559e-20)
(2.03309 0.384422 3.75694e-20)
(2.01739 0.381561 -4.9404e-20)
(1.97622 0.370407 5.39892e-20)
(1.90406 0.349885 0)
(1.79801 0.319972 3.80889e-20)
(1.65903 0.281965 -4.27059e-20)
(1.49222 0.238336 -2.46102e-20)
(1.30598 0.192273 2.83299e-20)
(1.11038 0.147052 -5.8561e-20)
(0.915414 0.105488 -3.37022e-20)
(0.72964 0.0696066 3.49348e-20)
(0.559439 0.0405677 1.90894e-20)
(0.408902 0.0187754 1.94111e-20)
(0.280095 0.00404197 0)
(0.173502 -0.00423945 -2.14573e-20)
(0.0885516 -0.00648477 0)
(0.0240874 -0.00256253 0)
(1.9454 0.306644 -2.87313e-20)
(1.97721 0.322391 0)
(2.00376 0.334781 0)
(2.02233 0.344792 0)
(2.0291 0.3504 0)
(2.01848 0.35031 0)
(1.98418 0.34282 0)
(1.92042 0.326777 5.79057e-20)
(1.82364 0.301891 -6.30723e-20)
(1.69383 0.269072 0)
(1.53515 0.230383 1.01686e-21)
(1.35523 0.188665 0)
(1.1638 0.146971 7.92651e-20)
(0.970856 0.108014 1.3714e-21)
(0.785251 0.0738135 -9.2902e-20)
(0.613785 0.0455698 1.01413e-19)
(0.460995 0.0237371 1.13986e-21)
(0.329357 0.00820079 -5.53719e-20)
(0.219709 -0.00155306 -7.94482e-20)
(0.131711 -0.00629631 9.46001e-22)
(0.0643349 -0.00653115 -8.79082e-20)
(0.0162582 -0.0021836 7.25644e-20)
(1.96547 0.284672 6.01396e-20)
(1.99355 0.299341 -3.50814e-20)
(2.01424 0.30986 0)
(2.02391 0.317471 0)
(2.01755 0.319711 -6.86468e-20)
(1.98897 0.315494 8.28577e-20)
(1.9323 0.303426 5.10438e-20)
(1.84344 0.283091 -5.39847e-20)
(1.72162 0.255067 0)
(1.57014 0.221069 0)
(1.39596 0.183619 4.13822e-20)
(1.20841 0.145543 4.47124e-20)
(1.01746 0.109436 -4.91686e-20)
(0.83215 0.0772869 -1.10472e-19)
(0.6596 0.0503193 5.75769e-20)
(0.504705 0.0290324 9.44576e-20)
(0.37026 0.0133498 3.33731e-20)
(0.257376 0.00281206 -3.587e-20)
(0.165944 -0.00327715 7.58711e-20)
(0.0950481 -0.00575098 5.96329e-20)
(0.043389 -0.00513301 1.04327e-19)
(0.00959555 -0.00137209 -1.66735e-20)
(1.98314 0.262994 0)
(2.0059 0.276392 -3.96985e-20)
(2.01821 0.284768 0)
(2.01548 0.289606 0)
(1.99181 0.288169 6.81933e-20)
(1.94119 0.279792 -1.24753e-19)
(1.85914 0.263615 1.4287e-19)
(1.74426 0.240079 -1.63445e-19)
(1.59909 0.210551 -8.67666e-22)
(1.43001 0.17728 7.00156e-20)
(1.24599 0.142867 0)
(1.05691 0.109783 -4.44943e-20)
(0.871949 0.0799675 4.89441e-20)
(0.698488 0.0546555 0)
(0.541706 0.034383 -1.14365e-19)
(0.404654 0.0191163 8.9838e-20)
(0.288643 0.00842637 6.42714e-20)
(0.193724 0.00165969 -1.02592e-19)
(0.119124 -0.00195209 0)
(0.0635796 -0.00323181 -3.91038e-20)
(0.0256669 -0.00268445 1.86486e-20)
(0.00405279 -0.000263884 7.39011e-22)
(1.99688 0.241539 0)
(2.01203 0.253408 -4.29453e-20)
(2.01262 0.259316 0)
(1.99337 0.26102 -1.58291e-21)
(1.9481 0.255768 -2.83396e-21)
(1.87206 0.243545 0)
(1.76328 0.224179 0)
(1.62369 0.198936 5.38581e-20)
(1.45912 0.169738 9.80853e-22)
(1.27822 0.138998 -6.95515e-20)
(1.09081 0.109047 -1.92107e-21)
(0.906177 0.0817702 1.66535e-19)
(0.731924 0.0584 4.54558e-20)
(0.573465 0.0395024 -4.9407e-20)
(0.434054 0.0250865 0)
(0.315157 0.0147642 0)
(0.216932 0.00790847 -3.18105e-20)
(0.138687 0.00378673 3.3785e-20)
(0.0792413 0.00163415 1.06221e-19)
(0.0371599 0.000681258 -1.07955e-19)
(0.0110103 0.00046207 -1.5232e-19)
(-0.000447977 0.0010235 8.0537e-20)
(2.0054 0.219747 0)
(2.00962 0.229689 3.80681e-20)
(1.99431 0.232787 4.8268e-20)
(1.954 0.2312 -5.88811e-20)
(1.88339 0.222409 1.40032e-19)
(1.78011 0.207187 -1.80154e-21)
(1.64549 0.186057 9.14814e-20)
(1.48491 0.160903 -5.33969e-20)
(1.30674 0.133853 6.03144e-20)
(1.12075 0.107135 -6.75564e-20)
(0.936338 0.0825597 -1.7846e-21)
(0.761325 0.0613541 -8.25159e-20)
(0.601328 0.0441097 -1.35493e-21)
(0.459776 0.030878 -9.5737e-20)
(0.338254 0.0213174 1.03504e-19)
(0.236992 0.0148415 1.1278e-19)
(0.155337 0.0107438 -1.77647e-19)
(0.0921375 0.00829159 0)
(0.046007 0.00676856 6.70647e-20)
(0.0154771 0.00547998 -1.05338e-19)
(-0.000820898 0.00400595 1.83072e-19)
(-0.00400597 0.00239295 0)
(2.0052 0.197657 4.69357e-21)
(1.99459 0.20535 8.7123e-20)
(1.95894 0.205495 5.28786e-20)
(1.89373 0.20074 -1.19299e-19)
(1.79567 0.189068 -6.97843e-20)
(1.66573 0.172065 -8.073e-20)
(1.5088 0.150801 0)
(1.33305 0.127455 0)
(1.14822 0.104015 0)
(0.963886 0.0822567 6.6686e-20)
(0.78806 0.0633778 -1.41704e-19)
(0.626577 0.0479927 0)
(0.483025 0.0361929 -4.34277e-20)
(0.359088 0.0276853 -4.64098e-20)
(0.255047 0.0219313 9.96169e-20)
(0.170261 0.0182656 1.08387e-19)
(0.103577 0.0159816 8.23497e-22)
(0.0536106 0.0143927 -1.22729e-19)
(0.0189222 0.0128534 2.24773e-19)
(-0.00190183 0.0107501 -1.34431e-19)
(-0.010124 0.00770828 -3.46066e-20)
(-0.00673384 0.00376985 2.9268e-20)
(1.99449 0.174245 -7.21496e-20)
(1.9642 0.179421 2.84143e-21)
(1.90404 0.17673 -5.34047e-20)
(1.81131 0.169455 1.81338e-19)
(1.68587 0.156154 -6.85914e-20)
(1.53241 0.139018 0)
(1.35881 0.119389 -9.20711e-20)
(1.17489 0.0993789 1.00753e-19)
(0.99038 0.0805804 5.8269e-20)
(0.813575 0.0642068 -6.12159e-20)
(0.650531 0.0508778 0)
(0.504998 0.0407279 7.50575e-20)
(0.378754 0.0335137 0)
(0.272111 0.0287494 0)
(0.184429 0.0258189 0)
(0.114531 0.0240576 -1.04394e-19)
(0.0610085 0.0228066 5.39276e-20)
(0.0224128 0.0214482 0)
(-0.00264809 0.0194148 0)
(-0.0154808 0.0161725 0)
(-0.0172248 0.0113894 3.45149e-20)
(-0.00874841 0.00509948 -2.93467e-20)
(1.96723 0.150608 0)
(1.91388 0.15336 -8.78993e-20)
(1.82658 0.148364 0)
(1.70637 0.139486 0)
(1.55658 0.125869 0)
(1.38525 0.110057 -1.07587e-21)
(1.2021 0.0933776 8.83037e-20)
(1.01724 0.0776041 -9.94291e-20)
(0.839239 0.0638133 5.57639e-20)
(0.674458 0.0526681 0)
(0.526846 0.0443242 0)
(0.398285 0.0385859 -1.46962e-19)
(0.289117 0.0350169 -8.04098e-20)
(0.198686 0.0330511 8.60831e-20)
(0.125781 0.0320699 4.61953e-20)
(0.0689549 0.0314539 4.95476e-20)
(0.0267278 0.0306121 5.28666e-20)
(-0.0023036 0.0290024 -1.14082e-19)
(-0.019423 0.0261326 1.19367e-19)
(-0.0258054 0.0215431 0)
(-0.0224668 0.0149411 0)
(-0.0101708 0.00635249 -1.39635e-19)
(1.92514 0.124814 0)
(1.84421 0.125499 9.1421e-20)
(1.7291 0.11921 1.07647e-19)
(1.58349 0.110126 -2.41275e-19)
(1.41434 0.0979112 6.9984e-22)
(1.2319 0.0849608 -1.55564e-19)
(1.04636 0.0723843 0)
(0.866809 0.0614405 -3.14246e-22)
(0.699942 0.0527117 1.07312e-19)
(0.549969 0.0464121 0)
(0.4189 0.0423848 1.31205e-19)
(0.307117 0.0402478 -6.98083e-20)
(0.213943 0.0394873 0)
(0.138118 0.0395339 0)
(0.0781444 0.0398121 -4.56716e-20)
(0.0324956 0.0397676 -4.90269e-20)
(-0.000260703 0.0388836 1.02818e-19)
(-0.0214158 0.0366904 -1.09423e-19)
(-0.0321168 0.0327655 1.16415e-19)
(-0.0334022 0.026717 -1.51464e-19)
(-0.0261736 0.0182907 -1.27419e-19)
(-0.0111106 0.00750906 1.36539e-19)
(1.85818 0.101168 7.57003e-20)
(1.75237 0.100467 3.35001e-21)
(1.61134 0.0937267 -2.1148e-19)
(1.44578 0.0854691 2.39678e-19)
(1.26434 0.0755708 6.84992e-20)
(1.07834 0.0660834 7.71414e-20)
(0.897093 0.057819 0)
(0.727901 0.0514869 0)
(0.575279 0.0472606 -1.05109e-19)
(0.44145 0.0450258 0)
(0.326868 0.0444366 0)
(0.230854 0.0450257 -7.03326e-20)
(0.152101 0.0462693 1.49688e-19)
(0.0890486 0.0476327 0)
(0.0401162 0.0485968 8.80393e-20)
(0.00382905 0.0486725 -1.4019e-19)
(-0.0211276 0.0474078 -5.06728e-20)
(-0.035902 0.0443946 -1.59655e-19)
(-0.0414989 0.0392695 1.12133e-19)
(-0.0388269 0.0316998 2.98815e-20)
(-0.0286869 0.0214671 0)
(-0.01169 0.00859367 0)
(1.78299 0.0740993 1.56692e-19)
(1.64684 0.0728108 -8.9022e-20)
(1.48432 0.0679004 1.06652e-19)
(1.30427 0.0617038 -5.72585e-20)
(1.1172 0.0556433 7.51831e-22)
(0.933736 0.0505844 7.55312e-20)
(0.761478 0.0470994 -8.37508e-20)
(0.605473 0.0453492 0)
(0.468187 0.0452262 2.05998e-19)
(0.350217 0.0464402 -7.79451e-22)
(0.25091 0.0485928 2.46756e-19)
(0.168923 0.0512325 -2.01459e-19)
(0.102625 0.0538881 0)
(0.0503575 0.0560897 0)
(0.0105787 0.0573816 -8.52763e-20)
(-0.0180723 0.0573313 9.14466e-20)
(-0.0367659 0.055537 1.45825e-19)
(-0.0465026 0.0516359 -5.0804e-20)
(-0.0481498 0.0453098 -5.41094e-20)
(-0.0424973 0.0362758 0)
(-0.0302584 0.0243521 0)
(-0.011992 0.00956932 -7.85278e-20)
(1.63194 0.0539936 8.79875e-20)
(1.46583 0.0501741 0)
(1.28414 0.0473005 0)
(1.09784 0.044161 0)
(0.916102 0.0423565 -1.42797e-19)
(0.746451 0.0417779 0)
(0.593352 0.0426232 8.9047e-20)
(0.459027 0.0446976 -9.72822e-20)
(0.343832 0.0477492 -1.07433e-19)
(0.246956 0.0514442 -2.3477e-19)
(0.166928 0.0554121 -6.38042e-20)
(0.102022 0.0592607 1.39314e-19)
(0.0505063 0.0625872 -2.25541e-19)
(0.0107894 0.0649876 1.61306e-19)
(-0.0185167 0.0660663 -8.71201e-20)
(-0.0385868 0.0654459 1.39133e-19)
(-0.0504052 0.0627785 -4.96404e-20)
(-0.0548023 0.057758 1.04454e-19)
(-0.0524985 0.05013 3.27518e-22)
(-0.044158 0.03969 5.67651e-20)
(-0.0303971 0.0263317 0)
(-0.0117193 0.0101352 -2.5923e-20)
(1.37688 0.0315805 -8.9384e-20)
(1.19361 0.0303161 0)
(1.01141 0.0319037 -1.18379e-19)
(0.837302 0.0331855 0)
(0.677387 0.0360439 1.48121e-19)
(0.534927 0.0395218 -8.1499e-20)
(0.411184 0.0437863 0)
(0.305888 0.0485298 -9.94517e-20)
(0.217847 0.0535449 -1.09388e-19)
(0.145393 0.0585641 2.37948e-19)
(0.0867212 0.0633022 -6.50315e-20)
(0.0400969 0.0674494 2.1083e-19)
(0.00396363 0.0706783 -2.2721e-19)
(-0.0230123 0.0726527 0)
(-0.0419426 0.0730394 0)
(-0.0537422 0.071522 -1.39434e-19)
(-0.0591677 0.0678155 1.47333e-19)
(-0.058858 0.0616802 5.1638e-20)
(-0.0533739 0.052933 -7.54791e-22)
(-0.0432397 0.0414491 -8.54106e-20)
(-0.0289474 0.0271957 0)
(-0.0109106 0.0102844 1.009e-19)
(1.09195 0.0188926 0)
(0.914281 0.0207812 -1.08641e-19)
(0.750848 0.0263323 5.95647e-20)
(0.601944 0.0309402 6.74315e-20)
(0.471364 0.0368078 -1.51126e-19)
(0.358898 0.0426761 8.32449e-20)
(0.264005 0.0487682 0)
(0.185131 0.0547978 2.02691e-19)
(0.120533 0.0606243 -1.10424e-19)
(0.068389 0.066044 -6.02244e-20)
(0.0270116 0.0708371 6.53758e-20)
(-0.00509118 0.0747525 2.13206e-19)
(-0.0291839 0.0775163 -7.58936e-20)
(-0.0463112 0.0788409 -1.63449e-19)
(-0.0573235 0.0784388 0)
(-0.0629126 0.0760391 4.65247e-22)
(-0.0636484 0.0714039 -4.95067e-20)
(-0.0600157 0.0643432 -5.21114e-20)
(-0.0524445 0.0547264 -6.9883e-22)
(-0.0413409 0.0424866 1.41167e-19)
(-0.027091 0.0276408 -1.16415e-19)
(-0.0100294 0.0103152 0)
(0.813092 0.012925 -4.96589e-20)
(0.657448 0.0186492 1.65636e-19)
(0.522716 0.0267904 0)
(0.403835 0.0336842 0)
(0.30329 0.0410964 0)
(0.218842 0.0480396 -8.50048e-20)
(0.149269 0.0547414 3.31539e-22)
(0.0926204 0.0610213 -1.02435e-19)
(0.0471742 0.0668128 0)
(0.0112977 0.0719793 6.11611e-20)
(-0.0164172 0.0763558 -6.63501e-20)
(-0.0371627 0.0797358 0)
(-0.0519195 0.0818821 0)
(-0.0614821 0.0825382 8.267e-20)
(-0.0664897 0.0814454 4.37126e-20)
(-0.0674593 0.0783606 4.67934e-20)
(-0.064817 0.0730739 -9.84172e-20)
(-0.0589262 0.0654242 -5.15327e-20)
(-0.050111 0.0553103 -5.43789e-20)
(-0.038677 0.0426967 1.11754e-19)
(-0.024918 0.0276238 0)
(-0.00909573 0.0102169 0)
(0.563058 0.0133556 -1.00827e-19)
(0.437678 0.0219933 1.13729e-19)
(0.33372 0.0309642 0)
(0.244236 0.0387714 0)
(0.170708 0.0463695 0)
(0.11027 0.0532781 8.63652e-20)
(0.061612 0.0596859 9.49872e-20)
(0.0228956 0.0655227 1.55997e-19)
(-0.00734261 0.0707688 -1.13224e-19)
(-0.0304324 0.0753327 0)
(-0.0474802 0.0790815 -2.0026e-19)
(-0.0594036 0.081835 1.43777e-19)
(-0.0669468 0.0833771 -3.88797e-20)
(-0.0707082 0.0834705 1.65284e-19)
(-0.0711671 0.081874 -1.32e-19)
(-0.0687106 0.0783615 0)
(-0.0636579 0.0727392 0)
(-0.0562811 0.0648603 7.72421e-20)
(-0.046821 0.0546362 1.07154e-19)
(-0.0355014 0.0420425 -1.38517e-19)
(-0.0225392 0.0271213 0)
(-0.00813276 0.00997916 2.38612e-20)
(0.353244 0.0172937 2.05121e-19)
(0.259057 0.0271455 -2.88347e-19)
(0.18323 0.0357965 -6.42924e-20)
(0.11949 0.0434127 7.17989e-20)
(0.0684771 0.0503607 6.36254e-23)
(0.0275659 0.0565656 0)
(-0.00441306 0.0621794 9.6118e-20)
(-0.0289819 0.067213 -1.57415e-19)
(-0.0473033 0.071672 -1.71692e-19)
(-0.0604111 0.0754932 6.1661e-20)
(-0.0691531 0.078563 1.34088e-19)
(-0.0742258 0.0807177 1.44596e-19)
(-0.0761921 0.0817557 -3.89348e-20)
(-0.0755035 0.0814529 -8.29112e-20)
(-0.072522 0.0795805 4.41073e-20)
(-0.0675403 0.0759229 -9.30979e-20)
(-0.0607998 0.0702949 -9.7166e-23)
(-0.0525048 0.0625543 -2.57911e-20)
(-0.0428332 0.0526128 1.06448e-19)
(-0.0319445 0.0404425 5.50806e-20)
(-0.0199961 0.0260708 0)
(-0.00713937 0.00957073 8.25486e-20)
(0.184935 0.0221394 0)
(0.118537 0.0315451 5.84001e-20)
(0.0664098 0.0392093 6.51028e-20)
(0.0238603 0.0459217 0)
(-0.00908842 0.0517906 -8.01347e-20)
(-0.0345079 0.0569601 0)
(-0.0533786 0.0615639 0)
(-0.0668803 0.0656598 0)
(-0.0759095 0.0692658 5.77602e-20)
(-0.0812516 0.0723354 -6.26738e-20)
(-0.0835478 0.0747674 -3.84733e-22)
(-0.0833235 0.0764108 3.62181e-20)
(-0.0810035 0.0770768 0)
(-0.0769298 0.0765541 4.13408e-20)
(-0.0713779 0.0746256 1.32226e-19)
(-0.0645722 0.0710853 -9.28705e-20)
(-0.0566978 0.0657537 -1.2188e-19)
(-0.0479109 0.0584891 2.03795e-19)
(-0.0383444 0.0491975 -7.94941e-20)
(-0.028111 0.0378389 -2.74686e-20)
(-0.0173281 0.0244165 0)
(-0.00611848 0.00896153 -1.17204e-20)
(0.054394 0.0258524 0)
(0.0109286 0.0337248 -5.8838e-20)
(-0.0220463 0.0400249 6.57952e-20)
(-0.0477286 0.0454878 0)
(-0.0664631 0.0501361 0)
(-0.0797699 0.0541827 -4.42745e-20)
(-0.0884486 0.0577511 4.85721e-20)
(-0.0933811 0.060919 0)
(-0.0952458 0.0637102 0)
(-0.0946277 0.0660887 0)
(-0.0920047 0.0679645 -1.41521e-22)
(-0.0877682 0.0691999 -7.30165e-20)
(-0.0822363 0.0696209 7.7997e-20)
(-0.0756673 0.0690319 -8.32403e-20)
(-0.068272 0.0672305 -8.79999e-20)
(-0.0602243 0.064023 9.27382e-20)
(-0.0516697 0.0592374 2.44156e-20)
(-0.042732 0.0527335 1.0145e-19)
(-0.0335146 0.0444113 -2.6312e-19)
(-0.0241 0.0342171 1.0858e-19)
(-0.014584 0.0221274 -1.11209e-19)
(-0.00508135 0.00813009 8.06199e-20)
(-0.0431321 0.0272719 0)
(-0.0683863 0.0331989 5.91197e-20)
(-0.0862574 0.0379785 1.32148e-19)
(-0.0988229 0.0420918 -7.31114e-20)
(-0.106581 0.0455358 4.04224e-20)
(-0.110608 0.0485063 -4.4666e-20)
(-0.111538 0.0511139 4.86501e-20)
(-0.110011 0.0534365 -5.33367e-20)
(-0.106526 0.0554996 -5.82212e-20)
(-0.101506 0.0572747 3.15184e-20)
(-0.0952974 0.0586837 0)
(-0.088184 0.0596044 -1.77606e-22)
(-0.0803987 0.0598815 0)
(-0.072134 0.0593392 -8.30905e-20)
(-0.0635506 0.0577946 0)
(-0.0547852 0.0550715 0)
(-0.0459553 0.0510108 2.41946e-20)
(-0.0371641 0.0454793 2.52037e-20)
(-0.0284983 0.0383761 -1.045e-19)
(-0.0200249 0.0296386 1.07933e-19)
(-0.0118344 0.0192206 0)
(-0.00405107 0.00707309 -6.81935e-20)
(-0.111248 0.0259785 0)
(-0.122451 0.0300272 -5.97523e-20)
(-0.128748 0.0333397 0)
(-0.131448 0.0361755 0)
(-0.131046 0.0385283 -4.07904e-20)
(-0.128282 0.0405455 0)
(-0.12363 0.0423183 -4.92016e-20)
(-0.117537 0.0439141 8.04084e-20)
(-0.110352 0.045356 8.74227e-20)
(-0.102363 0.0466221 3.16738e-20)
(-0.09381 0.0476469 3.40286e-20)
(-0.0848874 0.0483268 -7.31959e-20)
(-0.0757596 0.0485289 9.77177e-20)
(-0.066566 0.0481016 -2.06941e-20)
(-0.0574283 0.046887 0)
(-0.0484544 0.0447314 9.2513e-20)
(-0.039742 0.0414961 -1.21137e-19)
(-0.0313816 0.0370624 -1.26921e-20)
(-0.0234519 0.0313386 2.61558e-20)
(-0.0160152 0.0242627 -1.2064e-19)
(-0.00916917 0.0157777 1.09905e-19)
(-0.00306104 0.00581156 -1.01365e-19)
(-0.151884 0.0222108 -5.37201e-20)
(-0.152793 0.0246938 5.9506e-20)
(-0.150745 0.0267502 -6.68077e-20)
(-0.146541 0.0284974 -4.42057e-22)
(-0.140574 0.0299358 8.14501e-20)
(-0.13333 0.0311648 4.50444e-20)
(-0.125132 0.0322534 -4.9204e-20)
(-0.116266 0.0332542 -2.69644e-20)
(-0.106956 0.0341861 2.92899e-20)
(-0.0973807 0.0350328 -3.16639e-20)
(-0.0876887 0.0357433 -1.02612e-19)
(-0.0780042 0.0362347 1.28331e-19)
(-0.0684355 0.0363997 3.91648e-20)
(-0.0590801 0.0361148 -1.04035e-19)
(-0.0500285 0.0352506 8.79699e-20)
(-0.0413664 0.0336812 -9.25233e-20)
(-0.0331762 0.031293 -9.67159e-20)
(-0.025539 0.0279909 8.8072e-20)
(-0.0185296 0.023702 1.03982e-19)
(-0.0122106 0.0183787 -1.07037e-19)
(-0.00669275 0.0119701 -1.09196e-19)
(-0.00215277 0.00440237 8.95468e-20)
(-0.165649 0.0166012 -2.67662e-20)
(-0.159892 0.0179192 2.9926e-20)
(-0.152646 0.0190177 0)
(-0.144392 0.0199339 -3.71654e-20)
(-0.135381 0.0206778 8.19128e-20)
(-0.125899 0.0213111 -4.49944e-20)
(-0.116137 0.0218822 -4.95474e-20)
(-0.106254 0.0224279 -1.69668e-22)
(-0.0963666 0.0229627 1.17462e-19)
(-0.0865683 0.0234763 -1.58007e-20)
(-0.0769356 0.0239328 -6.84787e-20)
(-0.0675363 0.0242723 -1.83964e-20)
(-0.0584353 0.0244155 1.96383e-20)
(-0.0496977 0.0242697 0)
(-0.0413903 0.0237359 8.80839e-20)
(-0.0335814 0.022718 -9.25995e-20)
(-0.0263411 0.0211305 -1.20989e-20)
(-0.0197412 0.0189049 -1.00532e-19)
(-0.013851 0.0159955 1.04035e-19)
(-0.00873166 0.0123813 6.68981e-21)
(-0.00450265 0.00803903 0)
(-0.00136636 0.00292478 0)
(-0.152567 0.0102601 2.69208e-20)
(-0.143799 0.0108198 -4.51027e-20)
(-0.134541 0.0112835 0)
(-0.125076 0.0116493 0)
(-0.11552 0.0119336 4.12128e-20)
(-0.106014 0.0121716 2.28428e-20)
(-0.0966431 0.0123936 -9.92686e-20)
(-0.0874701 0.0126227 5.41157e-20)
(-0.0785347 0.0128695 0)
(-0.0698652 0.0131295 -3.19167e-20)
(-0.0614855 0.0133825 -6.88313e-20)
(-0.0534218 0.0135925 8.29382e-20)
(-0.0457065 0.0137097 7.87543e-20)
(-0.0383804 0.0136733 -8.35763e-20)
(-0.0314927 0.0134164 0)
(-0.0250988 0.0128719 -1.16034e-20)
(-0.0192585 0.0119803 6.05505e-21)
(-0.0140341 0.0106968 0)
(-0.00948512 0.00900028 5.85006e-20)
(-0.00566372 0.00689898 -1.00205e-19)
(-0.00268076 0.00440968 5.46336e-20)
(-0.000740648 0.00154646 0)
(-0.112603 0.00424362 2.8307e-22)
(-0.104532 0.00439474 -2.24385e-20)
(-0.0964731 0.0045026 -3.37076e-20)
(-0.0886235 0.00456434 3.71457e-20)
(-0.0809931 0.00459698 -5.16557e-20)
(-0.0736367 0.00461835 3.39369e-20)
(-0.066568 0.00464281 0)
(-0.0597921 0.00468135 -4.76763e-20)
(-0.0533022 0.00473973 1.10881e-19)
(-0.0470884 0.0048178 -4.79447e-20)
(-0.0411429 0.00490884 3.45298e-20)
(-0.0354648 0.00499903 -4.62172e-20)
(-0.0300635 0.0050674 0)
(-0.0249607 0.00508613 0)
(-0.0201903 0.00502178 5.54586e-21)
(-0.0157961 0.00483771 5.79349e-21)
(-0.0118286 0.00449826 9.11134e-21)
(-0.00834169 0.00397536 0)
(-0.00538447 0.0032593 -3.24636e-21)
(-0.00299354 0.00237138 0)
(-0.00124237 0.00136489 -5.46122e-20)
(-0.000287767 0.000347793 4.45469e-20)
(-0.0461205 0.000404581 0)
(-0.0423755 0.000435462 7.34858e-21)
(-0.0386852 0.000452219 -3.28418e-20)
(-0.0351982 0.00045513 3.61088e-20)
(-0.0318901 0.000452041 9.99218e-21)
(-0.0287753 0.000447702 -1.09811e-20)
(-0.0258438 0.0004454 -2.41159e-20)
(-0.0230834 0.000447715 -6.65225e-21)
(-0.0204773 0.000456533 3.55292e-20)
(-0.0180081 0.00047306 -3.06875e-20)
(-0.0156602 0.000497631 3.3063e-20)
(-0.0134222 0.000529388 -3.54755e-20)
(-0.0112889 0.00056584 7.56287e-20)
(-0.00926312 0.000602309 -4.00514e-20)
(-0.00735667 0.000631375 -4.75533e-20)
(-0.00559117 0.000642534 9.42921e-20)
(-0.00399746 0.000622459 -2.92325e-21)
(-0.0026143 0.00055672 -4.81562e-20)
(-0.00148367 0.000434672 -5.27825e-20)
(-0.000641486 0.000258295 5.11525e-20)
(-0.000124575 5.39701e-05 1.27564e-23)
(1.89055e-05 -9.07216e-05 0)
(1.1361 0.0233738 0)
(1.09003 0.0249401 0)
(1.04192 0.0265538 2.14533e-20)
(0.991668 0.0282167 -2.50904e-20)
(0.939379 0.0299343 2.75409e-20)
(0.885139 0.0317134 -3.22743e-20)
(0.829041 0.0335569 7.15127e-20)
(0.771191 0.0354659 -3.94663e-20)
(0.711707 0.0374399 0)
(0.65072 0.0394765 1.2036e-23)
(0.588373 0.0415681 0)
(0.524833 0.043693 1.47433e-20)
(0.460316 0.0457924 0)
(0.395156 0.0477361 -1.7611e-20)
(0.329903 0.0492804 1.79301e-20)
(0.265461 0.0500442 7.84427e-20)
(0.203195 0.0495151 -4.11708e-20)
(0.144987 0.0471038 -2.17124e-20)
(0.0930996 0.0422289 2.24415e-20)
(0.0499331 0.0344175 -1.15743e-20)
(0.0187256 0.0233624 0)
(0.00351392 0.00896868 0)
(1.14047 0.0793659 -6.28725e-20)
(1.09485 0.0850472 3.79915e-20)
(1.04734 0.0910029 -1.97882e-20)
(0.997673 0.097203 4.45319e-22)
(0.945963 0.103641 0)
(0.892305 0.11032 -6.40266e-20)
(0.836789 0.117238 -3.73134e-20)
(0.779523 0.124389 7.82739e-20)
(0.720625 0.131763 -1.33313e-19)
(0.660225 0.139348 9.65935e-20)
(0.598466 0.14711 5.31822e-20)
(0.535508 0.154964 4.44722e-20)
(0.471555 0.162686 -6.30476e-20)
(0.406907 0.16979 -1.72004e-20)
(0.342061 0.175391 -1.83857e-20)
(0.277826 0.178115 3.83616e-20)
(0.215448 0.17615 0)
(0.156667 0.16743 0)
(0.103601 0.149944 -8.9272e-20)
(0.0585256 0.122069 1.097e-20)
(0.0245904 0.0827769 1.17916e-19)
(0.00579177 0.0317853 -7.78922e-20)
(1.14911 0.135368 -6.21242e-20)
(1.10444 0.145181 -7.45335e-20)
(1.05817 0.155402 8.22827e-20)
(1.00967 0.166021 -4.83384e-20)
(0.959139 0.177029 -5.37944e-20)
(0.906664 0.188437 -1.25463e-19)
(0.85234 0.200242 2.40403e-19)
(0.796275 0.212439 0)
(0.73859 0.225015 -1.29229e-19)
(0.679411 0.237947 1.41674e-19)
(0.618879 0.251182 -1.59306e-19)
(0.557141 0.264573 -5.85774e-20)
(0.494373 0.277739 1.84419e-19)
(0.430808 0.289845 1.34613e-19)
(0.366822 0.299374 -1.77123e-19)
(0.303038 0.303979 1.13821e-19)
(0.240448 0.300564 -1.19767e-19)
(0.180502 0.285613 -4.09434e-20)
(0.125026 0.255708 4.25566e-20)
(0.0760481 0.208103 0)
(0.0365443 0.141073 6.95104e-20)
(0.0104327 0.0541597 -1.82915e-20)
(1.16109 0.188635 6.18979e-20)
(1.11796 0.20246 -6.97812e-20)
(1.07364 0.216805 1.63073e-19)
(1.027 0.231725 -1.8284e-19)
(0.9783 0.247195 -5.40409e-20)
(0.927666 0.263228 1.17818e-19)
(0.875182 0.279822 -6.82873e-20)
(0.820964 0.296966 7.3885e-20)
(0.765132 0.314644 2.54663e-19)
(0.707815 0.332824 -2.30026e-19)
(0.649148 0.351431 0)
(0.589265 0.370259 2.79859e-19)
(0.528295 0.388771 -1.19591e-19)
(0.466376 0.405793 -1.28164e-19)
(0.403701 0.419187 1.73382e-19)
(0.340613 0.425657 -2.91713e-19)
(0.277727 0.420859 -7.7505e-20)
(0.216059 0.39987 2.00957e-19)
(0.156998 0.357919 -4.25275e-20)
(0.102201 0.291196 0)
(0.0543879 0.197331 0)
(0.0173576 0.0757274 -1.09886e-19)
(1.17638 0.239305 1.10507e-19)
(1.13531 0.257011 2.08922e-19)
(1.09359 0.275283 -2.3349e-19)
(1.04939 0.294298 -1.78484e-19)
(1.00313 0.314014 1.99872e-19)
(0.954941 0.334447 2.2886e-19)
(0.904899 0.355597 -1.27263e-19)
(0.85313 0.377452 7.26382e-20)
(0.799759 0.399993 -1.58401e-19)
(0.744915 0.423182 0)
(0.688728 0.446926 -1.01418e-19)
(0.63131 0.47096 -1.06312e-19)
(0.572734 0.4946 5.74288e-20)
(0.513009 0.516347 2.46877e-19)
(0.452088 0.533463 -5.23452e-19)
(0.38994 0.541735 2.76105e-19)
(0.326686 0.535616 1.12824e-19)
(0.262764 0.508834 -2.25298e-19)
(0.198994 0.455341 0)
(0.136552 0.370331 0)
(0.0778191 0.250855 0)
(0.0264449 0.0962195 1.57034e-20)
(1.19456 0.286089 -5.24454e-21)
(1.15607 0.307503 6.06959e-21)
(1.11756 0.329463 6.60544e-21)
(1.0764 0.352343 -2.53213e-19)
(1.03316 0.376065 4.79987e-19)
(0.987992 0.400651 -1.05057e-19)
(0.94097 0.426102 -2.41382e-19)
(0.892228 0.45241 0)
(0.841895 0.479551 -3.00344e-19)
(0.790102 0.507483 8.44672e-20)
(0.736972 0.536099 -9.40844e-20)
(0.682596 0.565082 -9.80666e-20)
(0.626975 0.593611 4.36793e-19)
(0.569962 0.619877 -3.49685e-19)
(0.511216 0.640576 -1.56825e-21)
(0.450247 0.650616 5.80481e-19)
(0.38656 0.643305 -5.38767e-19)
(0.31989 0.611092 4.67748e-21)
(0.250359 0.546728 5.88824e-19)
(0.178555 0.444503 1.62867e-21)
(0.106461 0.300964 -3.12676e-19)
(0.0375432 0.115373 9.61065e-20)
(1.21517 0.328409 -3.18901e-19)
(1.17978 0.353304 2.46194e-19)
(1.14503 0.378655 1.44136e-19)
(1.10742 0.405105 0)
(1.06774 0.432534 -9.32241e-20)
(1.02611 0.460967 0)
(0.98263 0.490414 0)
(0.937444 0.520863 0)
(0.890684 0.552292 2.82676e-19)
(0.842483 0.584654 -6.96442e-20)
(0.79296 0.617827 0)
(0.742177 0.651454 0)
(0.690055 0.684586 -9.6754e-20)
(0.636263 0.715134 1.01714e-19)
(0.580114 0.73926 0)
(0.520576 0.751049 -5.22755e-21)
(0.456431 0.742723 1.24522e-19)
(0.386583 0.705532 6.78551e-20)
(0.310334 0.63111 0)
(0.227599 0.512935 6.59269e-20)
(0.139897 0.347139 0)
(0.0504872 0.132994 0)
(1.23755 0.365569 8.02177e-22)
(1.20576 0.393698 1.43865e-21)
(1.17528 0.422127 -1.33077e-19)
(1.14173 0.451825 4.4147e-19)
(1.10608 0.482617 -1.66056e-19)
(1.06848 0.514536 1.92139e-19)
(1.02903 0.547601 -3.22356e-19)
(0.987882 0.581805 3.47051e-19)
(0.945173 0.617129 -1.02769e-20)
(0.901044 0.653528 -1.39693e-19)
(0.855609 0.690874 3.1058e-19)
(0.808904 0.728775 0)
(0.760767 0.76618 0)
(0.710661 0.800744 0)
(0.657512 0.828147 0)
(0.599671 0.8417 1.58444e-19)
(0.535091 0.832613 -2.31392e-19)
(0.461724 0.791009 5.48423e-20)
(0.377941 0.7075 -2.4128e-19)
(0.282897 0.574844 1.24651e-19)
(0.177597 0.388854 6.01507e-20)
(0.0650687 0.148879 2.13952e-19)
(1.26095 0.397001 5.79598e-21)
(1.23321 0.428037 -9.81135e-20)
(1.20742 0.459173 -1.16288e-19)
(1.17832 0.491764 -1.42217e-19)
(1.14711 0.525566 0)
(1.11395 0.560623 1.75975e-19)
(1.07895 0.596957 -2.82951e-19)
(1.04227 0.634561 -3.25803e-19)
(1.00407 0.673418 -2.37343e-19)
(0.964477 0.713483 2.61392e-19)
(0.923613 0.754622 -5.64926e-19)
(0.881483 0.796423 3.04003e-19)
(0.837831 0.837747 7.70736e-20)
(0.791901 0.876039 0)
(0.742189 0.906542 0)
(0.68636 0.921868 -8.91546e-20)
(0.621438 0.912285 -5.27303e-20)
(0.54431 0.866877 1.4924e-19)
(0.45231 0.775324 -1.62727e-19)
(0.343758 0.629764 5.8205e-20)
(0.2191 0.425792 1.13686e-19)
(0.0811096 0.162917 -1.86461e-19)
(1.28447 0.422552 1.66347e-19)
(1.26127 0.456209 0)
(1.2406 0.489703 1.20978e-19)
(1.21635 0.524789 1.2317e-19)
(1.18998 0.561152 3.31697e-21)
(1.16163 0.598858 -3.06746e-19)
(1.13141 0.63795 1.93481e-19)
(1.09953 0.678433 -1.00361e-19)
(1.06615 0.7203 3.26258e-19)
(1.03142 0.763513 -5.746e-19)
(0.995458 0.807947 2.5099e-19)
(0.958248 0.853176 1.26956e-19)
(0.919452 0.89801 -7.63861e-20)
(0.878091 0.939719 0)
(0.832212 0.973174 -7.36619e-20)
(0.778733 0.990346 8.85692e-20)
(0.71366 0.980632 -1.68346e-19)
(0.632696 0.932149 1.75706e-19)
(0.532031 0.833735 1.2945e-19)
(0.409071 0.677013 -1.83979e-19)
(0.263671 0.457478 5.1631e-20)
(0.0983229 0.174914 0)
(1.30722 0.441736 -2.98332e-19)
(1.28892 0.477566 -9.5496e-21)
(1.27354 0.51303 1.10814e-19)
(1.25437 0.550283 -1.1826e-19)
(1.23312 0.588909 0)
(1.20988 0.62898 2.91357e-19)
(1.18482 0.670534 -1.39608e-19)
(1.15813 0.713579 -2.54617e-19)
(1.12998 0.75811 0)
(1.10054 0.804097 3.1336e-19)
(1.06993 0.851419 -2.20531e-19)
(1.0381 0.899653 -1.25558e-19)
(1.00464 0.947574 1.15063e-19)
(0.968337 0.992323 2.56868e-19)
(0.926755 1.02846 -1.37581e-19)
(0.876014 1.0474 1.36219e-19)
(0.811007 1.03777 -1.43021e-19)
(0.726159 0.986815 0)
(0.616427 0.882633 -1.76777e-19)
(0.47826 0.716448 3.3715e-20)
(0.310901 0.483785 3.06886e-19)
(0.116545 0.184825 -1.28678e-19)
(1.32828 0.455293 2.85182e-19)
(1.31547 0.493073 -3.24235e-19)
(1.30577 0.53009 1.8883e-19)
(1.29201 0.56895 0)
(1.27607 0.6092 -1.07688e-19)
(1.25808 0.650955 -1.26414e-19)
(1.23824 0.694281 4.23856e-19)
(1.2168 0.739198 1.52652e-19)
(1.19394 0.785717 -1.54701e-19)
(1.16985 0.83382 8.29197e-20)
(1.14466 0.883403 8.80194e-20)
(1.11834 0.934065 0)
(1.09039 0.984589 9.23445e-20)
(1.05941 1.03204 -2.1948e-19)
(1.0225 1.07075 1.55161e-19)
(0.974938 1.09163 -2.28236e-19)
(0.910443 1.08256 2.67781e-19)
(0.822027 1.02998 -2.28706e-19)
(0.703289 0.921301 3.20904e-20)
(0.549641 0.74748 -3.26342e-20)
(0.359697 0.504261 0)
(0.135354 0.192446 -9.87425e-20)
(1.34669 0.462079 1.26861e-19)
(1.33945 0.501342 -4.2373e-19)
(1.33534 0.53979 1.60039e-19)
(1.32718 0.580223 -2.6252e-19)
(1.31687 0.622075 2.05692e-19)
(1.30452 0.665464 -1.0467e-19)
(1.29034 0.710459 1.14239e-19)
(1.2746 0.757094 -1.40711e-19)
(1.25751 0.805389 1.1152e-20)
(1.23926 0.855336 7.10668e-20)
(1.21999 0.906843 -8.67158e-20)
(1.19966 0.959527 1.6376e-19)
(1.17772 1.01218 -1.75303e-19)
(1.15254 1.06182 0)