/*--------------------------------*- C++ -*----------------------------------*\
| =========                 |                                                 |
| \\      /  F ield         | OpenFOAM Extend Project: Open source CFD        |
|  \\    /   O peration     | Version:  1.6-ext                               |
|   \\  /    A nd           | Web:      www.extend-project.de                 |
|    \\/     M anipulation  |                                                 |
\*---------------------------------------------------------------------------*/
FoamFile
{
    version     2.0;
    format      ascii;
    class       volVectorField;
    location    "1.05";
    object      U_0;
}
// * * * * * * * * * * * * * * * * * * * * * * * * * * * * * * * * * * * * * //

dimensions      [0 1 -1 0 0 0 0];

internalField   nonuniform List<vector> 
20940
(
(1.84843 0.398372 -9.70981e-21)
(1.88793 0.418397 1.54883e-20)
(1.92533 0.437701 7.57969e-22)
(1.95979 0.455237 -1.09932e-20)
(1.991 0.471214 1.41168e-20)
(2.01732 0.484507 -1.78078e-20)
(2.03577 0.494004 1.04003e-20)
(2.04153 0.497756 -6.82317e-21)
(2.02821 0.493529 8.1794e-21)
(1.98872 0.479087 0)
(1.91686 0.452894 2.19702e-23)
(1.80906 0.414728 -2.62862e-20)
(1.66579 0.36603 7.05798e-21)
(1.49194 0.309797 2.49131e-20)
(1.29599 0.250043 -1.78003e-20)
(1.08838 0.191027 0)
(0.879605 0.136549 0)
(0.678758 0.089508 0)
(0.49263 0.0517096 0)
(0.325507 0.0239229 0)
(0.179401 0.00662348 -1.29353e-23)
(0.0545214 0.000491132 -5.31623e-21)
(1.87528 0.375186 1.56388e-20)
(1.9135 0.394056 -6.53436e-21)
(1.9493 0.411547 -9.50681e-21)
(1.98157 0.427296 1.21571e-20)
(2.00947 0.440964 0)
(2.0305 0.451345 1.89026e-20)
(2.04064 0.457022 -9.79875e-22)
(2.03416 0.45596 3.30513e-20)
(2.00428 0.446091 -8.13901e-21)
(1.94453 0.425737 0)
(1.85043 0.394268 -4.52422e-20)
(1.7211 0.352511 3.76199e-20)
(1.55996 0.302805 7.24572e-21)
(1.37436 0.248611 -2.37553e-20)
(1.17414 0.193844 0)
(0.969829 0.142169 -1.85842e-20)
(0.771003 0.0964977 0)
(0.585211 0.0587766 1.05988e-20)
(0.41759 0.0299776 -2.29988e-20)
(0.270976 0.0102455 4.78851e-20)
(0.146328 -0.000362303 -2.47904e-20)
(0.0432529 -0.00140668 -4.87814e-21)
(1.8999 0.35197 -2.13603e-20)
(1.93652 0.369755 6.84533e-22)
(1.97017 0.385539 -8.85528e-21)
(1.99938 0.39951 -1.21275e-20)
(2.02256 0.410762 -3.31226e-20)
(2.03617 0.418002 3.7829e-20)
(2.03517 0.419574 -4.52108e-20)
(2.01317 0.413514 0)
(1.96363 0.398138 0)
(1.88144 0.372523 -3.81532e-20)
(1.76458 0.337018 -2.31016e-20)
(1.61515 0.29339 7.33504e-20)
(1.43932 0.244583 0)
(1.24626 0.194146 7.82385e-20)
(1.04633 0.145568 -6.64335e-20)
(0.849392 0.101733 1.85684e-20)
(0.663584 0.0646445 -1.90967e-20)
(0.494742 0.0354022 -5.23861e-20)
(0.346397 0.0143121 4.34708e-20)
(0.2201 0.00106572 4.61655e-20)
(0.115945 -0.00457339 -9.56193e-20)
(0.0330868 -0.00235821 4.98028e-20)
(1.92337 0.329097 0)
(1.95791 0.345865 1.57883e-20)
(1.9886 0.359978 0)
(2.01344 0.372072 0)
(2.02981 0.380666 -3.4104e-20)
(2.03309 0.384418 3.75123e-20)
(2.01739 0.381557 -4.93415e-20)
(1.97622 0.370404 5.39209e-20)
(1.90406 0.349882 0)
(1.79801 0.31997 3.80486e-20)
(1.65903 0.281963 -4.26623e-20)
(1.49222 0.238334 -2.45868e-20)
(1.30598 0.192271 2.83048e-20)
(1.11038 0.147051 -5.85074e-20)
(0.915417 0.105487 -3.36738e-20)
(0.729644 0.0696058 3.49047e-20)
(0.559442 0.040567 1.90736e-20)
(0.408905 0.0187748 1.93946e-20)
(0.280098 0.00404152 0)
(0.173504 -0.00423978 -2.14395e-20)
(0.0885529 -0.00648498 0)
(0.0240879 -0.0025626 0)
(1.9454 0.30664 -2.86625e-20)
(1.9772 0.322387 0)
(2.00376 0.334777 0)
(2.02233 0.344788 0)
(2.0291 0.350396 0)
(2.01847 0.350306 0)
(1.98418 0.342817 0)
(1.92042 0.326774 5.78377e-20)
(1.82364 0.301888 -6.29982e-20)
(1.69384 0.269069 0)
(1.53515 0.230381 1.01685e-21)
(1.35523 0.188664 0)
(1.1638 0.14697 7.91899e-20)
(0.97086 0.108013 1.37142e-21)
(0.785255 0.0738125 -9.28168e-20)
(0.613789 0.0455689 1.01323e-19)
(0.460999 0.0237363 1.13987e-21)
(0.32936 0.00820012 -5.53224e-20)
(0.219712 -0.00155362 -7.93795e-20)
(0.131713 -0.00629673 9.45998e-22)
(0.0643363 -0.00653142 -8.7835e-20)
(0.0162587 -0.00218369 7.2504e-20)
(1.96547 0.284668 6.00028e-20)
(1.99354 0.299337 -3.50053e-20)
(2.01423 0.309856 0)
(2.02391 0.317467 0)
(2.01754 0.319707 -6.8544e-20)
(1.98897 0.31549 8.27446e-20)
(1.9323 0.303423 5.09818e-20)
(1.84344 0.283088 -5.3917e-20)
(1.72162 0.255064 0)
(1.57014 0.221067 0)
(1.39596 0.183617 4.1339e-20)
(1.20841 0.145542 4.46659e-20)
(1.01747 0.109435 -4.91187e-20)
(0.832154 0.0772857 -1.10365e-19)
(0.659604 0.0503182 5.75203e-20)
(0.504709 0.0290314 9.43679e-20)
(0.370264 0.0133489 3.33417e-20)
(0.25738 0.00281128 -3.58371e-20)
(0.165946 -0.0032778 7.58026e-20)
(0.0950501 -0.00575148 5.95797e-20)
(0.0433903 -0.00513333 1.04236e-19)
(0.00959599 -0.0013722 -1.66584e-20)
(1.98313 0.262989 0)
(2.00589 0.276388 -3.9623e-20)
(2.0182 0.284764 0)
(2.01548 0.289602 0)
(1.99181 0.288165 6.80912e-20)
(1.94118 0.279789 -1.24584e-19)
(1.85914 0.263612 1.42685e-19)
(1.74426 0.240076 -1.63243e-19)
(1.5991 0.210549 -8.67689e-22)
(1.43002 0.177278 6.99361e-20)
(1.246 0.142866 0)
(1.05692 0.109781 -4.4448e-20)
(0.871953 0.0799662 4.88944e-20)
(0.698492 0.0546544 0)
(0.541711 0.0343819 -1.14252e-19)
(0.404658 0.0191152 8.97486e-20)
(0.288647 0.00842539 6.42087e-20)
(0.193727 0.0016588 -1.02494e-19)
(0.119127 -0.00195285 0)
(0.0635816 -0.00323238 -3.90683e-20)
(0.0256681 -0.00268482 1.86304e-20)
(0.00405321 -0.000264012 7.39009e-22)
(1.99688 0.241535 0)
(2.01203 0.253404 -4.28703e-20)
(2.01262 0.259312 0)
(1.99336 0.261016 -1.58294e-21)
(1.9481 0.255764 -2.834e-21)
(1.87206 0.243542 0)
(1.76328 0.224176 0)
(1.62369 0.198934 5.37913e-20)
(1.45912 0.169736 9.80841e-22)
(1.27823 0.138996 -6.94725e-20)
(1.09082 0.109045 -1.92108e-21)
(0.906181 0.0817688 1.66351e-19)
(0.731929 0.0583987 4.54064e-20)
(0.573469 0.0395011 -4.93543e-20)
(0.434058 0.0250853 0)
(0.315161 0.0147631 0)
(0.216935 0.00790738 -3.17792e-20)
(0.13869 0.00378574 3.37523e-20)
(0.0792438 0.00163331 1.06118e-19)
(0.0371618 0.000680608 -1.07849e-19)
(0.0110115 0.000461656 -1.52174e-19)
(-0.000447568 0.00102336 8.04612e-20)
(2.00539 0.219742 0)
(2.00962 0.229685 3.79938e-20)
(1.99431 0.232784 4.81856e-20)
(1.954 0.231196 -5.87901e-20)
(1.88339 0.222406 1.39832e-19)
(1.78011 0.207185 -1.80157e-21)
(1.64549 0.186055 9.13603e-20)
(1.48491 0.1609 -5.33307e-20)
(1.30674 0.133852 6.02422e-20)
(1.12075 0.107133 -6.7478e-20)
(0.936343 0.0825582 -1.7846e-21)
(0.761329 0.0613527 -8.24245e-20)
(0.601332 0.0441083 -1.35492e-21)
(0.45978 0.0308767 -9.56322e-20)
(0.338258 0.0213161 1.03392e-19)
(0.236996 0.0148402 1.12662e-19)
(0.15534 0.0107426 -1.7746e-19)
(0.0921404 0.0082905 0)
(0.0460094 0.00676762 6.69967e-20)
(0.015479 0.00547926 -1.05233e-19)
(-0.000819761 0.00400549 1.8289e-19)
(-0.00400557 0.00239279 0)
(2.00519 0.197653 4.69364e-21)
(1.99459 0.205346 8.6976e-20)
(1.95894 0.205492 5.27972e-20)
(1.89373 0.200736 -1.19119e-19)
(1.79567 0.189065 -6.9685e-20)
(1.66574 0.172062 -8.06207e-20)
(1.5088 0.150799 0)
(1.33305 0.127453 0)
(1.14823 0.104013 0)
(0.96389 0.0822551 6.66084e-20)
(0.788065 0.0633763 -1.41536e-19)
(0.626582 0.0479913 0)
(0.483029 0.0361915 -4.3379e-20)
(0.359093 0.0276839 -4.63578e-20)
(0.25505 0.02193 9.95062e-20)
(0.170264 0.0182642 1.08269e-19)
(0.10358 0.0159803 8.23506e-22)
(0.0536134 0.0143916 -1.226e-19)
(0.0189245 0.0128524 2.24536e-19)
(-0.00190009 0.0107493 -1.34291e-19)
(-0.0101229 0.00770776 -3.45703e-20)
(-0.00673345 0.00376966 2.92375e-20)
(1.99448 0.174241 -7.20185e-20)
(1.9642 0.179418 2.84144e-21)
(1.90404 0.176726 -5.33242e-20)
(1.81131 0.169452 1.81071e-19)
(1.68587 0.156151 -6.84931e-20)
(1.53242 0.139016 0)
(1.35882 0.119387 -9.19526e-20)
(1.17489 0.099377 1.00623e-19)
(0.990385 0.0805787 5.81983e-20)
(0.81358 0.0642052 -6.11391e-20)
(0.650535 0.0508763 0)
(0.505002 0.0407265 7.49679e-20)
(0.378758 0.0335122 0)
(0.272115 0.0287479 0)
(0.184432 0.0258175 0)
(0.114534 0.0240562 -1.04278e-19)
(0.0610114 0.0228052 5.38663e-20)
(0.0224154 0.0214469 0)
(-0.00264592 0.0194137 0)
(-0.0154791 0.0161717 0)
(-0.0172237 0.0113889 3.44787e-20)
(-0.00874802 0.00509928 -2.93162e-20)
(1.96723 0.150604 0)
(1.91388 0.153356 -8.77557e-20)
(1.82658 0.148361 0)
(1.70638 0.139483 0)
(1.55658 0.125867 0)
(1.38525 0.110055 -1.07589e-21)
(1.20211 0.0933758 8.81866e-20)
(1.01725 0.0776024 -9.93012e-20)
(0.839244 0.0638118 5.56941e-20)
(0.674463 0.0526666 0)
(0.526851 0.0443228 0)
(0.39829 0.0385844 -1.46785e-19)
(0.289121 0.0350154 -8.03147e-20)
(0.19869 0.0330496 8.59813e-20)
(0.125784 0.0320685 4.6141e-20)
(0.0689579 0.0314524 4.949e-20)
(0.0267305 0.0306107 5.28058e-20)
(-0.00230119 0.029001 -1.13954e-19)
(-0.0194209 0.0261314 1.19233e-19)
(-0.0258038 0.0215422 0)
(-0.0224658 0.0149405 0)
(-0.0101704 0.00635225 -1.39482e-19)
(1.92514 0.12481 0)
(1.84421 0.125495 9.12793e-20)
(1.7291 0.119207 1.0749e-19)
(1.5835 0.110124 -2.40928e-19)
(1.41435 0.0979091 6.99853e-22)
(1.23191 0.084959 -1.55354e-19)
(1.04636 0.0723827 0)
(0.866814 0.061439 -3.143e-22)
(0.699947 0.0527102 1.07174e-19)
(0.549974 0.0464107 0)
(0.418904 0.0423833 1.31043e-19)
(0.307121 0.0402464 -6.97209e-20)
(0.213946 0.0394858 0)
(0.138122 0.0395325 0)
(0.0781474 0.0398105 -4.56179e-20)
(0.0324984 0.0397661 -4.89699e-20)
(-0.00025821 0.0388821 1.02697e-19)
(-0.0214135 0.0366889 -1.09296e-19)
(-0.0321148 0.0327642 1.16282e-19)
(-0.0334006 0.026716 -1.51291e-19)
(-0.0261725 0.01829 -1.27275e-19)
(-0.0111102 0.00750879 1.36385e-19)
(1.85818 0.101165 7.55742e-20)
(1.75237 0.100464 3.35013e-21)
(1.61135 0.0937241 -2.11171e-19)
(1.44578 0.085467 2.39337e-19)
(1.26435 0.075569 6.8405e-20)
(1.07834 0.0660819 7.70379e-20)
(0.897098 0.0578176 0)
(0.727906 0.0514856 0)
(0.575284 0.0472593 -1.04973e-19)
(0.441455 0.0450245 0)
(0.326873 0.0444353 0)
(0.230857 0.0450244 -7.02466e-20)
(0.152104 0.0462679 1.49503e-19)
(0.0890515 0.0476312 0)
(0.0401189 0.0485954 8.79334e-20)
(0.00383153 0.048671 -1.40021e-19)
(-0.0211253 0.0474062 -5.06132e-20)
(-0.0358999 0.0443931 -1.59467e-19)
(-0.041497 0.0392682 1.12001e-19)
(-0.0388254 0.0316987 2.98471e-20)
(-0.0286859 0.0214663 0)
(-0.0116896 0.00859336 0)
(1.78299 0.0740954 1.56444e-19)
(1.64684 0.0728078 -8.88841e-20)
(1.48433 0.067898 1.065e-19)
(1.30427 0.0617019 -5.71742e-20)
(1.11721 0.0556418 7.51911e-22)
(0.933742 0.0505831 7.54294e-20)
(0.761484 0.0470982 -8.36392e-20)
(0.605478 0.0453481 0)
(0.468192 0.0452251 2.05732e-19)
(0.350222 0.0464391 -7.79433e-22)
(0.250914 0.0485916 2.46443e-19)
(0.168926 0.0512313 -2.01205e-19)
(0.102628 0.0538868 0)
(0.0503602 0.0560883 0)
(0.0105812 0.0573802 -8.51721e-20)
(-0.01807 0.0573298 9.13357e-20)
(-0.0367638 0.0555355 1.45649e-19)
(-0.0465006 0.0516344 -5.0742e-20)
(-0.048148 0.0453084 -5.40444e-20)
(-0.0424958 0.0362746 0)
(-0.0302574 0.0243512 0)
(-0.0119916 0.00956897 -7.84356e-20)
(1.63195 0.0539903 8.7856e-20)
(1.46584 0.0501716 0)
(1.28415 0.0472986 0)
(1.09784 0.0441595 0)
(0.916109 0.0423553 -1.42602e-19)
(0.746457 0.0417769 0)
(0.593358 0.0426223 8.893e-20)
(0.459032 0.0446968 -9.71544e-20)
(0.343837 0.0477484 -1.07294e-19)
(0.24696 0.0514434 -2.34468e-19)
(0.166932 0.0554112 -6.37226e-20)
(0.102025 0.0592597 1.39138e-19)
(0.050509 0.0625861 -2.25258e-19)
(0.0107918 0.0649865 1.61103e-19)
(-0.0185145 0.066065 -8.70124e-20)
(-0.0385848 0.0654445 1.38962e-19)
(-0.0504033 0.062777 -4.958e-20)
(-0.0548004 0.0577565 1.04328e-19)
(-0.0524968 0.0501286 3.27526e-22)
(-0.0441566 0.0396887 5.66961e-20)
(-0.030396 0.0263308 0)
(-0.0117189 0.0101349 -2.58921e-20)
(1.37689 0.0315779 -8.92503e-20)
(1.19362 0.0303141 0)
(1.01142 0.0319022 -1.18216e-19)
(0.83731 0.0331844 0)
(0.677394 0.0360431 1.47923e-19)
(0.534933 0.0395212 -8.13903e-20)
(0.411189 0.0437857 0)
(0.305893 0.0485293 -9.93219e-20)
(0.217851 0.0535443 -1.09247e-19)
(0.145396 0.0585634 2.37641e-19)
(0.0867242 0.0633015 -6.49487e-20)
(0.0400995 0.0674486 2.10562e-19)
(0.00396598 0.0706774 -2.26923e-19)
(-0.0230102 0.0726516 0)
(-0.0419406 0.0730382 0)
(-0.0537404 0.0715208 -1.3926e-19)
(-0.059166 0.0678142 1.4715e-19)
(-0.0588564 0.0616788 5.15739e-20)
(-0.0533724 0.0529315 -7.54732e-22)
(-0.0432383 0.0414478 -8.53062e-20)
(-0.0289465 0.0271947 0)
(-0.0109102 0.010284 1.00777e-19)
(1.09196 0.0188907 0)
(0.91429 0.0207799 -1.08491e-19)
(0.750856 0.0263315 5.94816e-20)
(0.601951 0.0309396 6.73399e-20)
(0.47137 0.0368074 -1.50924e-19)
(0.358903 0.0426758 8.31342e-20)
(0.26401 0.0487679 0)
(0.185135 0.0547975 2.02427e-19)
(0.120536 0.060624 -1.10281e-19)
(0.0683919 0.0660437 -6.01465e-20)
(0.0270142 0.0708366 6.52916e-20)
(-0.00508891 0.0747519 2.12934e-19)
(-0.0291819 0.0775156 -7.57963e-20)
(-0.0463094 0.07884 -1.63241e-19)
(-0.0573219 0.0784378 0)
(-0.062911 0.076038 4.65188e-22)
(-0.0636469 0.0714026 -4.94451e-20)
(-0.0600142 0.0643418 -5.20468e-20)
(-0.0524431 0.054725 -6.98764e-22)
(-0.0413397 0.0424853 1.40993e-19)
(-0.0270901 0.0276398 -1.16271e-19)
(-0.010029 0.0103148 0)
(0.813101 0.0129238 -4.95901e-20)
(0.657456 0.0186484 1.65407e-19)
(0.522723 0.02679 0)
(0.403841 0.033684 0)
(0.303295 0.0410963 0)
(0.218846 0.0480396 -8.48925e-20)
(0.149273 0.0547414 3.31493e-22)
(0.0926237 0.0610213 -1.02301e-19)
(0.047177 0.0668127 0)
(0.0113002 0.0719792 6.1082e-20)
(-0.016415 0.0763555 -6.62647e-20)
(-0.0371608 0.0797354 0)
(-0.0519178 0.0818815 0)
(-0.0614805 0.0825375 8.2565e-20)
(-0.0664883 0.0814445 4.36568e-20)
(-0.0674579 0.0783595 4.67344e-20)
(-0.0648156 0.0730727 -9.8293e-20)
(-0.0589248 0.0654228 -5.14677e-20)
(-0.0501097 0.0553089 -5.43111e-20)
(-0.0386759 0.0426954 1.11614e-19)
(-0.0249171 0.0276228 0)
(-0.00909537 0.0102165 0)
(0.563066 0.0133549 -1.00687e-19)
(0.437685 0.0219929 1.13574e-19)
(0.333726 0.0309642 0)
(0.244241 0.0387715 0)
(0.170712 0.0463697 0)
(0.110274 0.0532783 8.62511e-20)
(0.0616151 0.0596861 9.48624e-20)
(0.0228983 0.0655229 1.55793e-19)
(-0.0073403 0.0707689 -1.13077e-19)
(-0.0304304 0.0753327 0)
(-0.0474784 0.0790814 -2.00001e-19)
(-0.059402 0.0818347 1.43591e-19)
(-0.0669454 0.0833767 -3.883e-20)
(-0.0707069 0.0834699 1.65072e-19)
(-0.0711658 0.0818733 -1.31831e-19)
(-0.0687094 0.0783606 0)
(-0.0636567 0.0727381 0)
(-0.0562799 0.064859 7.71439e-20)
(-0.0468199 0.0546349 1.07017e-19)
(-0.0355004 0.0420413 -1.38341e-19)
(-0.0225384 0.0271203 0)
(-0.00813242 0.00997873 2.38308e-20)
(0.353251 0.0172934 2.04837e-19)
(0.259063 0.0271455 -2.87954e-19)
(0.183234 0.0357967 -6.42056e-20)
(0.119493 0.043413 7.17032e-20)
(0.0684804 0.0503611 6.37226e-23)
(0.0275687 0.056566 0)
(-0.0044107 0.0621798 9.59917e-20)
(-0.0289799 0.0672133 -1.57208e-19)
(-0.0473015 0.0716722 -1.71468e-19)
(-0.0604095 0.0754933 6.158e-20)
(-0.0691517 0.078563 1.33913e-19)
(-0.0742245 0.0807176 1.44409e-19)
(-0.0761909 0.0817554 -3.88846e-20)
(-0.0755024 0.0814525 -8.28042e-20)
(-0.0725209 0.0795799 4.40506e-20)
(-0.0675393 0.0759222 -9.29782e-20)
(-0.0607987 0.0702939 -9.71746e-23)
(-0.0525037 0.0625531 -2.57582e-20)
(-0.0428322 0.0526116 1.06311e-19)
(-0.0319435 0.0404413 5.501e-20)
(-0.0199954 0.0260698 0)
(-0.00713906 0.00957029 8.24424e-20)
(0.18494 0.0221394 0)
(0.118541 0.0315453 5.83204e-20)
(0.0664131 0.0392096 6.50147e-20)
(0.023863 0.0459221 0)
(-0.00908613 0.0517911 -8.0028e-20)
(-0.0345059 0.0569605 0)
(-0.0533769 0.0615643 0)
(-0.0668788 0.0656601 0)
(-0.0759081 0.069266 5.76846e-20)
(-0.0812504 0.0723355 -6.25919e-20)
(-0.0835467 0.0747675 -3.84607e-22)
(-0.0833225 0.0764108 3.61708e-20)
(-0.0810026 0.0770767 0)
(-0.0769289 0.0765538 4.1287e-20)
(-0.0713771 0.0746251 1.32055e-19)
(-0.0645713 0.0710847 -9.27501e-20)
(-0.0566969 0.0657528 -1.21722e-19)
(-0.04791 0.058488 2.03531e-19)
(-0.0383435 0.0491963 -7.93913e-20)
(-0.0281102 0.0378377 -2.74332e-20)
(-0.0173274 0.0244156 0)
(-0.0061182 0.00896109 -1.17053e-20)
(0.0543971 0.0258524 0)
(0.0109311 0.033725 -5.87576e-20)
(-0.0220443 0.0400253 6.57062e-20)
(-0.0477269 0.0454882 0)
(-0.0664616 0.0501365 0)
(-0.0797686 0.054183 -4.42155e-20)
(-0.0884474 0.0577515 4.85076e-20)
(-0.0933801 0.0609193 0)
(-0.0952448 0.0637104 0)
(-0.0946268 0.0660889 0)
(-0.0920038 0.0679646 -1.4144e-22)
(-0.0877674 0.0691999 -7.2921e-20)
(-0.0822355 0.0696209 7.78952e-20)
(-0.0756666 0.0690317 -8.31318e-20)
(-0.0682712 0.0672302 -8.78852e-20)
(-0.0602235 0.0640224 9.26173e-20)
(-0.0516689 0.0592366 2.43839e-20)
(-0.0427312 0.0527325 1.01317e-19)
(-0.0335138 0.0444101 -2.62777e-19)
(-0.0240993 0.034216 1.08439e-19)
(-0.0145834 0.0221265 -1.11064e-19)
(-0.00508109 0.00812965 8.05147e-20)
(-0.0431305 0.0272719 0)
(-0.0683851 0.033199 5.90384e-20)
(-0.0862564 0.0379787 1.31969e-19)
(-0.0988221 0.042092 -7.30124e-20)
(-0.10658 0.0455361 4.0368e-20)
(-0.110608 0.0485066 -4.46065e-20)
(-0.111537 0.0511141 4.8585e-20)
(-0.11001 0.0534368 -5.32659e-20)
(-0.106525 0.0554998 -5.81443e-20)
(-0.101505 0.0572749 3.14768e-20)
(-0.0952966 0.0586838 0)
(-0.0881833 0.0596045 -1.77529e-22)
(-0.080398 0.0598815 0)
(-0.0721333 0.0593391 -8.29816e-20)
(-0.06355 0.0577944 0)
(-0.0547845 0.0550711 0)
(-0.0459546 0.0510101 2.41628e-20)
(-0.0371634 0.0454784 2.51706e-20)
(-0.0284976 0.038375 -1.04363e-19)
(-0.0200242 0.0296375 1.07791e-19)
(-0.0118339 0.0192197 0)
(-0.00405085 0.00707265 -6.81036e-20)
(-0.111247 0.0259784 0)
(-0.122451 0.0300271 -5.96703e-20)
(-0.128748 0.0333397 0)
(-0.131448 0.0361756 0)
(-0.131046 0.0385284 -4.07355e-20)
(-0.128282 0.0405457 0)
(-0.12363 0.0423184 -4.91361e-20)
(-0.117537 0.0439142 8.03013e-20)
(-0.110351 0.0453561 8.73066e-20)
(-0.102363 0.0466222 3.16319e-20)
(-0.0938093 0.047647 3.39837e-20)
(-0.0848867 0.0483269 -7.30995e-20)
(-0.0757589 0.048529 9.75892e-20)
(-0.0665654 0.0481016 -2.06668e-20)
(-0.0574277 0.0468868 0)
(-0.0484538 0.0447311 9.23914e-20)
(-0.0397414 0.0414955 -1.20978e-19)
(-0.0313809 0.0370617 -1.26755e-20)
(-0.0234513 0.0313377 2.61214e-20)
(-0.0160146 0.0242617 -1.20481e-19)
(-0.00916873 0.0157768 1.0976e-19)
(-0.00306084 0.00581112 -1.01231e-19)
(-0.151884 0.0222105 -5.36455e-20)
(-0.152794 0.0246936 5.94234e-20)
(-0.150745 0.02675 -6.67165e-20)
(-0.146541 0.0284973 -4.42143e-22)
(-0.140574 0.0299357 8.13397e-20)
(-0.13333 0.0311648 4.4984e-20)
(-0.125131 0.0322535 -4.9138e-20)
(-0.116266 0.0332542 -2.69285e-20)
(-0.106955 0.0341861 2.9251e-20)
(-0.0973799 0.0350329 -3.16219e-20)
(-0.0876879 0.0357434 -1.02477e-19)
(-0.0780034 0.0362348 1.28162e-19)
(-0.0684347 0.0363998 3.91132e-20)
(-0.0590793 0.036115 -1.03898e-19)
(-0.0500278 0.0352506 8.78541e-20)
(-0.0413657 0.0336811 -9.24016e-20)
(-0.0331756 0.0312927 -9.65885e-20)
(-0.0255384 0.0279904 8.7956e-20)
(-0.018529 0.0237012 1.03845e-19)
(-0.0122101 0.0183778 -1.06896e-19)
(-0.00669237 0.0119693 -1.09052e-19)
(-0.0021526 0.00440194 8.94281e-20)
(-0.165649 0.0166005 -2.67287e-20)
(-0.159892 0.0179187 2.98845e-20)
(-0.152646 0.0190172 0)
(-0.144392 0.0199335 -3.71149e-20)
(-0.135381 0.0206775 8.18019e-20)
(-0.125899 0.0213109 -4.49337e-20)
(-0.116136 0.021882 -4.94813e-20)
(-0.106253 0.0224278 -1.69729e-22)
(-0.0963656 0.0229627 1.17306e-19)
(-0.0865673 0.0234764 -1.57795e-20)
(-0.0769346 0.0239329 -6.83881e-20)
(-0.0675353 0.0242724 -1.83722e-20)
(-0.0584344 0.0244158 1.96125e-20)
(-0.0496968 0.0242699 0)
(-0.0413895 0.0237361 8.79681e-20)
(-0.0335807 0.0227181 -9.24778e-20)
(-0.0263404 0.0211304 -1.2083e-20)
(-0.0197406 0.0189046 -1.004e-19)
(-0.0138505 0.0159949 1.03898e-19)
(-0.00873123 0.0123805 6.68097e-21)
(-0.00450233 0.00803831 0)
(-0.00136622 0.00292438 0)
(-0.152568 0.0102593 2.6883e-20)
(-0.143799 0.0108191 -4.50401e-20)
(-0.13454 0.0112829 0)
(-0.125076 0.0116487 0)
(-0.115519 0.0119331 4.11572e-20)
(-0.106013 0.0121712 2.28124e-20)
(-0.0966423 0.0123933 -9.91357e-20)
(-0.0874693 0.0126226 5.40434e-20)
(-0.0785338 0.0128695 0)
(-0.0698643 0.0131296 -3.18745e-20)
(-0.0614847 0.0133827 -6.87406e-20)
(-0.053421 0.0135928 8.2829e-20)
(-0.0457058 0.01371 7.86509e-20)
(-0.0383798 0.0136737 -8.34666e-20)
(-0.0314921 0.0134168 0)
(-0.0250982 0.0128723 -1.15882e-20)
(-0.0192579 0.0119805 6.04707e-21)
(-0.0140336 0.0106968 0)
(-0.00948469 0.00900006 5.84236e-20)
(-0.00566337 0.00689854 -1.00073e-19)
(-0.00268051 0.00440917 5.45615e-20)
(-0.000740543 0.00154614 0)
(-0.112605 0.00424212 2.83108e-22)
(-0.104534 0.0043933 -2.2407e-20)
(-0.0964745 0.00450128 -3.36614e-20)
(-0.0886249 0.00456318 3.70947e-20)
(-0.0809943 0.00459598 -5.15859e-20)
(-0.0736378 0.00461752 3.38911e-20)
(-0.0665691 0.00464215 0)
(-0.059793 0.00468083 -4.76131e-20)
(-0.053303 0.00473935 1.10734e-19)
(-0.0470892 0.00481755 -4.78814e-20)
(-0.0411435 0.00490869 3.44844e-20)
(-0.0354653 0.00499898 -4.61565e-20)
(-0.0300639 0.00506743 0)
(-0.024961 0.00508622 0)
(-0.0201904 0.00502192 5.53863e-21)
(-0.015796 0.00483785 5.78586e-21)
(-0.0118285 0.00449836 9.09942e-21)
(-0.00834148 0.00397536 0)
(-0.00538422 0.00325917 -3.24207e-21)
(-0.00299332 0.00237109 0)
(-0.00124221 0.0013645 -5.45403e-20)
(-0.000287699 0.000347521 4.44882e-20)
(-0.0461294 0.000403093 -2.6043e-20)
(-0.0423837 0.000433999 3.65538e-20)
(-0.0386926 0.000450856 -2.55184e-22)
(-0.0352049 0.000453913 -3.66051e-20)
(-0.0318962 0.00045099 4.94833e-20)
(-0.0287807 0.000446824 -3.29767e-20)
(-0.0258486 0.00044469 2.41609e-20)
(-0.0230876 0.000447164 -3.27854e-20)
(-0.020481 0.000456127 3.53715e-20)
(-0.0180112 0.000472783 -3.08876e-20)
(-0.0156629 0.000497466 5.64008e-23)
(-0.0134244 0.000529321 3.53699e-20)
(-0.0112907 0.000565855 0)
(-0.0092645 0.000602392 -4.00657e-20)
(-0.00735769 0.000631513 3.69098e-20)
(-0.00559186 0.000642709 -3.87864e-20)
(-0.00399786 0.000622651 -2.83032e-21)
(-0.00261447 0.000556899 5.14389e-23)
(-0.00148367 0.000434805 9.62374e-20)
(-0.000641396 0.000258344 -5.10861e-20)
(-0.000124481 5.39198e-05 5.21618e-20)
(1.89462e-05 -9.0816e-05 -4.29599e-20)
(1.1361 0.0233671 0)
(1.09003 0.024933 0)
(1.04192 0.0265464 2.14636e-20)
(0.991668 0.028209 -2.51017e-20)
(0.939379 0.0299263 2.75533e-20)
(0.885139 0.0317051 -3.22879e-20)
(0.829041 0.0335483 7.15423e-20)
(0.771191 0.0354571 -3.94824e-20)
(0.711707 0.0374308 0)
(0.65072 0.0394671 1.20406e-23)
(0.588373 0.0415585 0)
(0.524833 0.0436831 1.47487e-20)
(0.460316 0.0457823 0)
(0.395155 0.0477258 -1.76171e-20)
(0.329903 0.0492701 1.79366e-20)
(0.265461 0.0500339 7.84698e-20)
(0.203194 0.0495052 -4.11849e-20)
(0.144987 0.0470945 -2.17198e-20)
(0.0930995 0.0422207 2.24491e-20)
(0.049933 0.0344109 -1.15782e-20)
(0.0187254 0.0233578 0)
(0.00351388 0.00896691 0)
(1.14047 0.0793591 -6.29061e-20)
(1.09485 0.0850402 3.80102e-20)
(1.04734 0.0909955 -1.97985e-20)
(0.997672 0.0971954 4.45346e-22)
(0.945963 0.103633 0)
(0.892305 0.110312 -6.40539e-20)
(0.836789 0.117229 -3.73282e-20)
(0.779523 0.12438 7.83062e-20)
(0.720625 0.131754 -1.33365e-19)
(0.660225 0.139339 9.66312e-20)
(0.598465 0.147101 5.32025e-20)
(0.535507 0.154954 4.44885e-20)
(0.471554 0.162676 -6.30707e-20)
(0.406907 0.16978 -1.72065e-20)
(0.34206 0.17538 -1.83921e-20)
(0.277826 0.178105 3.83752e-20)
(0.215447 0.17614 0)
(0.156667 0.167421 0)
(0.103601 0.149936 -8.93025e-20)
(0.0585251 0.122062 1.09739e-20)
(0.0245901 0.0827724 1.17956e-19)
(0.00579163 0.0317835 -7.79183e-20)
(1.14911 0.135361 -6.21578e-20)
(1.10444 0.145174 -7.45708e-20)
(1.05817 0.155394 8.23239e-20)
(1.00967 0.166013 -4.83611e-20)
(0.959138 0.177021 -5.38193e-20)
(0.906663 0.188428 -1.25517e-19)
(0.852339 0.200234 2.40507e-19)
(0.796274 0.21243 0)
(0.738589 0.225006 -1.29281e-19)
(0.67941 0.237937 1.4173e-19)
(0.618878 0.251173 -1.59367e-19)
(0.55714 0.264563 -5.85992e-20)
(0.494372 0.277729 1.84488e-19)
(0.430807 0.289835 1.34662e-19)
(0.366821 0.299364 -1.77188e-19)
(0.303036 0.303969 1.13861e-19)
(0.240447 0.300555 -1.1981e-19)
(0.180501 0.285604 -4.09582e-20)
(0.125025 0.2557 4.25719e-20)
(0.0760473 0.208097 0)
(0.0365437 0.141068 6.95345e-20)
(0.0104324 0.054158 -1.8298e-20)
(1.16109 0.188629 6.19313e-20)
(1.11796 0.202453 -6.98185e-20)
(1.07364 0.216798 1.63156e-19)
(1.02699 0.231717 -1.8293e-19)
(0.978299 0.247187 -5.40658e-20)
(0.927665 0.26322 1.17872e-19)
(0.875181 0.279813 -6.8317e-20)
(0.820963 0.296957 7.39173e-20)
(0.765131 0.314635 2.54768e-19)
(0.707814 0.332815 -2.3012e-19)
(0.649147 0.351422 0)
(0.589264 0.37025 2.79968e-19)
(0.528294 0.388761 -1.19637e-19)
(0.466375 0.405783 -1.28213e-19)
(0.4037 0.419177 1.73447e-19)
(0.340612 0.425648 -2.91821e-19)
(0.277726 0.42085 -7.75335e-20)
(0.216057 0.399861 2.01031e-19)
(0.156997 0.357911 -4.25428e-20)
(0.1022 0.29119 0)
(0.0543871 0.197326 0)
(0.0173573 0.0757257 -1.09925e-19)
(1.17638 0.239299 1.10574e-19)
(1.13531 0.257005 2.09033e-19)
(1.09358 0.275275 -2.33613e-19)
(1.04939 0.294291 -1.78575e-19)
(1.00313 0.314007 1.99971e-19)
(0.954939 0.334439 2.28969e-19)
(0.904897 0.355588 -1.27322e-19)
(0.853129 0.377443 7.26705e-20)
(0.799758 0.399984 -1.58471e-19)
(0.744914 0.423173 0)
(0.688726 0.446917 -1.01458e-19)
(0.631308 0.470951 -1.06355e-19)
(0.572732 0.494591 5.74519e-20)
(0.513007 0.516337 2.46975e-19)
(0.452086 0.533454 -5.23659e-19)
(0.389938 0.541725 2.76214e-19)
(0.326684 0.535607 1.12866e-19)
(0.262762 0.508826 -2.25387e-19)
(0.198993 0.455333 0)
(0.13655 0.370325 0)
(0.0778181 0.250851 0)
(0.0264446 0.0962179 1.571e-20)
(1.19455 0.286082 -5.24442e-21)
(1.15607 0.307497 6.06945e-21)
(1.11755 0.329456 6.60537e-21)
(1.07639 0.352336 -2.53349e-19)
(1.03316 0.376058 4.80234e-19)
(0.987991 0.400643 -1.05111e-19)
(0.940968 0.426094 -2.415e-19)
(0.892227 0.452401 0)
(0.841893 0.479542 -3.00483e-19)
(0.7901 0.507475 8.45048e-20)
(0.73697 0.53609 -9.41248e-20)
(0.682593 0.565073 -9.811e-20)
(0.626973 0.593601 4.36978e-19)
(0.56996 0.619867 -3.49832e-19)
(0.511213 0.640566 -1.56831e-21)
(0.450244 0.650606 5.80726e-19)
(0.386558 0.643296 -5.38995e-19)
(0.319888 0.611084 4.67735e-21)
(0.250356 0.546721 5.8907e-19)
(0.178553 0.444497 1.62869e-21)
(0.10646 0.30096 -3.12805e-19)
(0.0375428 0.115371 9.61464e-20)
(1.21517 0.328402 -3.19099e-19)
(1.17978 0.353297 2.46341e-19)
(1.14503 0.378648 1.44217e-19)
(1.10742 0.405098 0)
(1.06774 0.432526 -9.32732e-20)
(1.02611 0.46096 0)
(0.982627 0.490406 0)
(0.937441 0.520855 0)
(0.890682 0.552283 2.82815e-19)
(0.842481 0.584645 -6.96818e-20)
(0.792958 0.617818 0)
(0.742174 0.651445 0)
(0.690053 0.684577 -9.68002e-20)
(0.63626 0.715124 1.01763e-19)
(0.580111 0.739251 0)
(0.520573 0.75104 -5.22748e-21)
(0.456428 0.742714 1.24579e-19)
(0.38658 0.705523 6.78847e-20)
(0.310331 0.631103 0)
(0.227597 0.512929 6.59587e-20)
(0.139895 0.347135 0)
(0.0504867 0.132993 0)
(1.23755 0.365562 8.02116e-22)
(1.20576 0.393692 1.43859e-21)
(1.17528 0.42212 -1.33158e-19)
(1.14173 0.451818 4.41737e-19)
(1.10608 0.482609 -1.66154e-19)
(1.06848 0.514528 1.92246e-19)
(1.02903 0.547593 -3.22531e-19)
(0.98788 0.581797 3.47242e-19)
(0.945171 0.617121 -1.02767e-20)
(0.901041 0.65352 -1.39767e-19)
(0.855606 0.690866 3.10741e-19)
(0.808901 0.728767 0)
(0.760764 0.766171 0)
(0.710658 0.800735 0)
(0.657509 0.828138 0)
(0.599668 0.841691 1.58526e-19)
(0.535088 0.832605 -2.31506e-19)
(0.461721 0.791001 5.4872e-20)
(0.377939 0.707494 -2.41403e-19)
(0.282895 0.574839 1.24715e-19)
(0.177596 0.38885 6.01834e-20)
(0.0650681 0.148878 2.14059e-19)
(1.26095 0.396995 5.79602e-21)
(1.23321 0.42803 -9.8186e-20)
(1.20742 0.459166 -1.16368e-19)
(1.17831 0.491757 -1.42305e-19)
(1.14711 0.525559 0)
(1.11395 0.560616 1.76081e-19)
(1.07894 0.596949 -2.83125e-19)
(1.04227 0.634553 -3.25992e-19)
(1.00406 0.67341 -2.3748e-19)
(0.964474 0.713475 2.6154e-19)
(0.92361 0.754614 -5.65245e-19)
(0.88148 0.796414 3.04174e-19)
(0.837828 0.837739 7.71193e-20)
(0.791898 0.87603 0)
(0.742186 0.906533 0)
(0.686357 0.92186 -8.92089e-20)
(0.621435 0.912277 -5.27587e-20)
(0.544307 0.866869 1.49329e-19)
(0.452307 0.775317 -1.6282e-19)
(0.343755 0.629759 5.82368e-20)
(0.219098 0.425789 1.13752e-19)
(0.081109 0.162916 -1.86569e-19)
(1.28447 0.422546 1.66475e-19)
(1.26127 0.456203 0)
(1.24059 0.489697 1.21058e-19)
(1.21635 0.524783 1.23258e-19)
(1.18998 0.561145 3.31702e-21)
(1.16162 0.598851 -3.06956e-19)
(1.13141 0.637943 1.93595e-19)
(1.09953 0.678425 -1.00424e-19)
(1.06615 0.720292 3.26462e-19)
(1.03142 0.763506 -5.74967e-19)
(0.995455 0.807939 2.51148e-19)
(0.958244 0.853168 1.27041e-19)
(0.919449 0.898002 -7.64314e-20)
(0.878088 0.939711 0)
(0.832208 0.973166 -7.37132e-20)
(0.778729 0.990338 8.86231e-20)
(0.713656 0.980624 -1.68459e-19)
(0.632693 0.932142 1.75824e-19)
(0.532028 0.833729 1.29542e-19)
(0.409069 0.677008 -1.84106e-19)
(0.263669 0.457474 5.16636e-20)
(0.0983222 0.174913 0)
(1.30722 0.44173 -2.98586e-19)
(1.28892 0.47756 -9.54954e-21)
(1.27354 0.513024 1.10892e-19)
(1.25437 0.550276 -1.18346e-19)
(1.23311 0.588902 0)
(1.20988 0.628973 2.91565e-19)
(1.18481 0.670527 -1.39721e-19)
(1.15812 0.713571 -2.54803e-19)
(1.12998 0.758102 0)
(1.10054 0.804089 3.13578e-19)
(1.06992 0.851411 -2.20688e-19)
(1.0381 0.899645 -1.25642e-19)
(1.00464 0.947566 1.15153e-19)
(0.968333 0.992315 2.5706e-19)
(0.926751 1.02845 -1.37683e-19)
(0.87601 1.0474 1.36327e-19)
(0.811003 1.03776 -1.43134e-19)
(0.726155 0.986808 0)
(0.616423 0.882627 -1.76931e-19)
(0.478258 0.716443 3.37468e-20)
(0.310899 0.483782 3.07148e-19)
(0.116544 0.184823 -1.28787e-19)
(1.32827 0.455287 2.85433e-19)
(1.31547 0.493067 -3.24515e-19)
(1.30577 0.530083 1.88984e-19)
(1.29201 0.568944 0)
(1.27607 0.609193 -1.07781e-19)
(1.25808 0.650948 -1.26516e-19)
(1.23824 0.694274 4.24191e-19)
(1.21679 0.739191 1.52774e-19)
(1.19394 0.78571 -1.54834e-19)
(1.16985 0.833812 8.29914e-20)
(1.14466 0.883395 8.80968e-20)
(1.11833 0.934058 0)
(1.09039 0.984581 9.24337e-20)
(1.05941 1.03204 -2.1967e-19)
(1.02249 1.07074 1.55312e-19)
(0.974934 1.09162 -2.28449e-19)
(0.910438 1.08256 2.68061e-19)
(0.822024 1.02997 -2.2894e-19)
(0.703286 0.921295 3.2121e-20)
(0.549638 0.747476 -3.26659e-20)
(0.359695 0.504259 0)
(0.135354 0.192445 -9.88524e-20)
(1.34668 0.462074 1.26985e-19)
(1.33945 0.501336 -4.24143e-19)
(1.33533 0.539784 1.60191e-19)
(1.32718 0.580216 -2.62771e-19)
(1.31687 0.622068 2.05876e-19)
(1.30451 0.665457 -1.04771e-19)
(1.29034 0.710452 1.14349e-19)
(1.2746 0.757087 -1.40831e-19)
(1.25751 0.805382 1.11519e-20)
(1.23926 0.855329 7.11375e-20)
(1.21998 0.906836 -8.67921e-20)
(1.19965 0.95952 1.63924e-19)
(1.17771 1.01217 -1.75478e-19)