/*--------------------------------*- C++ -*----------------------------------*\
| =========                 |                                                 |
| \\      /  F ield         | OpenFOAM Extend Project: Open source CFD        |
|  \\    /   O peration     | Version:  1.6-ext                               |
|   \\  /    A nd           | Web:      www.extend-project.de                 |
|    \\/     M anipulation  |                                                 |
\*---------------------------------------------------------------------------*/
FoamFile
{
    version     2.0;
    format      ascii;
    class       volScalarField::DimensionedInternalField;
    location    "1.05";
    object      V0;
}
// * * * * * * * * * * * * * * * * * * * * * * * * * * * * * * * * * * * * * //

dimensions      [0 3 0 0 0 0 0];

value           nonuniform List<scalar> 
20940
(
1.17126e-06
1.03822e-06
9.21177e-07
8.1813e-07
7.27345e-07
6.47306e-07
5.76689e-07
5.14335e-07
4.59234e-07
4.105e-07
3.67361e-07
3.2914e-07
2.95246e-07
2.65159e-07
2.38426e-07
2.14647e-07
1.93474e-07
1.746e-07
1.57757e-07
1.42709e-07
1.29249e-07
1.17197e-07
1.17144e-06
1.03838e-06
9.21308e-07
8.18245e-07
7.27448e-07
6.474e-07
5.76776e-07
5.14417e-07
4.59312e-07
4.10575e-07
3.67432e-07
3.29206e-07
2.95306e-07
2.65213e-07
2.38475e-07
2.14692e-07
1.93515e-07
1.74639e-07
1.57795e-07
1.42746e-07
1.29286e-07
1.17233e-07
1.17402e-06
1.04067e-06
9.2334e-07
8.2005e-07
7.29054e-07
6.48831e-07
5.78053e-07
5.1556e-07
4.60336e-07
4.11495e-07
3.6826e-07
3.29954e-07
2.95981e-07
2.65822e-07
2.39023e-07
2.15186e-07
1.93961e-07
1.75043e-07
1.58161e-07
1.43081e-07
1.29592e-07
1.17514e-07
1.17829e-06
1.04445e-06
9.26703e-07
8.23039e-07
7.31714e-07
6.51201e-07
5.80167e-07
5.17447e-07
4.62023e-07
4.13005e-07
3.69615e-07
3.31172e-07
2.97078e-07
2.66812e-07
2.39918e-07
2.15994e-07
1.94691e-07
1.75702e-07
1.58758e-07
1.43622e-07
1.30085e-07
1.17964e-07
1.18355e-06
1.04914e-06
9.30898e-07
8.26798e-07
7.35088e-07
6.54235e-07
5.82898e-07
5.19908e-07
4.64244e-07
4.1501e-07
3.71428e-07
3.32813e-07
2.98566e-07
2.68165e-07
2.41149e-07
2.17117e-07
1.95716e-07
1.76638e-07
1.59612e-07
1.44401e-07
1.30797e-07
1.18615e-07
1.19037e-06
1.05526e-06
9.36378e-07
8.31718e-07
7.39513e-07
6.58222e-07
5.86499e-07
5.23166e-07
4.67195e-07
4.17687e-07
3.73858e-07
3.3502e-07
3.00574e-07
2.69993e-07
2.42816e-07
2.1864e-07
1.97109e-07
1.77914e-07
1.60781e-07
1.45472e-07
1.31777e-07
1.19512e-07
1.19874e-06
1.06279e-06
9.43165e-07
8.37831e-07
7.45024e-07
6.63198e-07
5.90999e-07
5.27246e-07
4.70903e-07
4.21064e-07
3.76938e-07
3.37832e-07
3.03143e-07
2.72342e-07
2.44965e-07
2.20607e-07
1.98913e-07
1.79569e-07
1.62301e-07
1.46869e-07
1.33062e-07
1.20693e-07
1.20868e-06
1.07179e-06
9.51313e-07
8.45218e-07
7.51721e-07
6.69269e-07
5.96506e-07
5.32245e-07
4.75448e-07
4.25206e-07
3.80722e-07
3.41296e-07
3.06319e-07
2.75256e-07
2.47641e-07
2.23066e-07
2.01172e-07
1.81646e-07
1.64214e-07
1.48632e-07
1.34688e-07
1.22194e-07
1.22007e-06
1.08215e-06
9.60754e-07
8.53834e-07
7.59591e-07
6.76461e-07
6.03076e-07
5.38244e-07
4.80924e-07
4.30205e-07
3.8529e-07
3.45479e-07
3.10157e-07
2.78785e-07
2.50891e-07
2.26061e-07
2.03935e-07
1.84196e-07
1.66567e-07
1.50806e-07
1.36698e-07
1.24055e-07
1.23282e-06
1.09379e-06
9.7141e-07
8.63599e-07
7.68556e-07
6.84703e-07
6.10662e-07
5.45229e-07
4.87353e-07
4.36117e-07
3.90721e-07
3.50466e-07
3.14739e-07
2.83e-07
2.54775e-07
2.29648e-07
2.07252e-07
1.87266e-07
1.6941e-07
1.53439e-07
1.39137e-07
1.26315e-07
1.24676e-06
1.10661e-06
9.83188e-07
8.74433e-07
7.78535e-07
6.93907e-07
6.19166e-07
5.53098e-07
4.94644e-07
4.42876e-07
3.96986e-07
3.56268e-07
3.20103e-07
2.87955e-07
2.59352e-07
2.33878e-07
2.11166e-07
1.90894e-07
1.72776e-07
1.56564e-07
1.42039e-07
1.2901e-07
1.26238e-06
1.12102e-06
9.96494e-07
8.86716e-07
7.89872e-07
7.04376e-07
6.28839e-07
5.62046e-07
5.02934e-07
4.50571e-07
4.04137e-07
3.62919e-07
3.26291e-07
2.93706e-07
2.64689e-07
2.38825e-07
2.15749e-07
1.9514e-07
1.76714e-07
1.6022e-07
1.45437e-07
1.3217e-07
1.27885e-06
1.13634e-06
1.01075e-06
8.99984e-07
8.02217e-07
7.15856e-07
6.39507e-07
5.71955e-07
5.12137e-07
4.59121e-07
4.12091e-07
3.70329e-07
3.33203e-07
3.00161e-07
2.70717e-07
2.44449e-07
2.20989e-07
2.00015e-07
1.81247e-07
1.64435e-07
1.49358e-07
1.3582e-07
1.29616e-06
1.15255e-06
1.02593e-06
9.14196e-07
8.15528e-07
7.28322e-07
6.51177e-07
5.82871e-07
5.22335e-07
4.68636e-07
4.20962e-07
3.78598e-07
3.40915e-07
3.07361e-07
2.77448e-07
2.50748e-07
2.26884e-07
2.05529e-07
1.86397e-07
1.69238e-07
1.53834e-07
1.3999e-07
1.31411e-06
1.16949e-06
1.04189e-06
9.29226e-07
8.29672e-07
7.41631e-07
6.63697e-07
5.94649e-07
5.33414e-07
4.79047e-07
4.30732e-07
3.8775e-07
3.49477e-07
3.15365e-07
2.8493e-07
2.57747e-07
2.33438e-07
2.11671e-07
1.92154e-07
1.74629e-07
1.58876e-07
1.44699e-07
1.24245e-06
1.10835e-06
9.89845e-07
8.85028e-07
7.92237e-07
7.10021e-07
6.37105e-07
5.72376e-07
5.14856e-07
4.63686e-07
4.18112e-07
3.77474e-07
3.41194e-07
3.08769e-07
2.79758e-07
2.53774e-07
2.30478e-07
2.09565e-07
1.90769e-07
1.73851e-07
1.58601e-07
1.44836e-07
1.21938e-06
1.08725e-06
9.70517e-07
8.67311e-07
7.75983e-07
6.95089e-07
6.23372e-07
5.59731e-07
5.03203e-07
4.52941e-07
4.08202e-07
3.68335e-07
3.32765e-07
3.00989e-07
2.72569e-07
2.47122e-07
2.24312e-07
2.03845e-07
1.85459e-07
1.68923e-07
1.54033e-07
1.40605e-07
1.19742e-06
1.0672e-06
9.5221e-07
8.50572e-07
7.60665e-07
6.8106e-07
6.1051e-07
5.47924e-07
4.92347e-07
4.42947e-07
3.98993e-07
3.59844e-07
3.24935e-07
2.93769e-07
2.65911e-07
2.40979e-07
2.18638e-07
1.98595e-07
1.80595e-07
1.64412e-07
1.49847e-07
1.36723e-07
1.17671e-06
1.04835e-06
9.3503e-07
8.34901e-07
7.46352e-07
6.67977e-07
5.98541e-07
5.36965e-07
4.82302e-07
4.33728e-07
3.90519e-07
3.52045e-07
3.1775e-07
2.87146e-07
2.59805e-07
2.3535e-07
2.13448e-07
1.93808e-07
1.76175e-07
1.60323e-07
1.46058e-07
1.33206e-07
1.1574e-06
1.03082e-06
9.19086e-07
8.20387e-07
7.33126e-07
6.55907e-07
5.87513e-07
5.26881e-07
4.73077e-07
4.2528e-07
3.82776e-07
3.44938e-07
3.11218e-07
2.81136e-07
2.54269e-07
2.30246e-07
2.08742e-07
1.89468e-07
1.72172e-07
1.5663e-07
1.42646e-07
1.30049e-07
1.13928e-06
1.01442e-06
9.04221e-07
8.06897e-07
7.20869e-07
6.44758e-07
5.77359e-07
5.17621e-07
4.64622e-07
4.17554e-07
3.75711e-07
3.38471e-07
3.05293e-07
2.75701e-07
2.49276e-07
2.25654e-07
2.04513e-07
1.8557e-07
1.68576e-07
1.53315e-07
1.3959e-07
1.27232e-07
1.12318e-06
9.99851e-07
8.91029e-07
7.94932e-07
7.10003e-07
6.3488e-07
5.68369e-07
5.09428e-07
4.57145e-07
4.10724e-07
3.69464e-07
3.32753e-07
3.00055e-07
2.70897e-07
2.44868e-07
2.21604e-07
2.00788e-07
1.8214e-07
1.65415e-07
1.50396e-07
1.36896e-07
1.24745e-07
1.10849e-06
9.86592e-07
8.7905e-07
7.841e-07
7.00195e-07
6.25986e-07
5.60294e-07
5.02087e-07
4.50465e-07
4.04636e-07
3.6391e-07
3.2768e-07
2.95416e-07
2.66652e-07
2.40979e-07
2.18039e-07
1.97517e-07
1.79137e-07
1.62654e-07
1.47855e-07
1.34552e-07
1.2258e-07
1.09541e-06
9.74816e-07
8.68433e-07
7.74515e-07
6.9153e-07
6.18144e-07
5.53189e-07
4.95642e-07
4.44611e-07
3.99312e-07
3.59061e-07
3.23259e-07
2.9138e-07
2.62963e-07
2.37605e-07
2.14949e-07
1.94685e-07
1.76539e-07
1.60269e-07
1.45663e-07
1.32536e-07
1.20723e-07
1.08395e-06
9.64515e-07
8.59163e-07
7.66161e-07
6.83993e-07
6.11335e-07
5.47031e-07
4.90065e-07
4.39553e-07
3.94721e-07
3.54887e-07
3.19461e-07
2.87919e-07
2.59805e-07
2.3472e-07
2.1231e-07
1.92269e-07
1.74325e-07
1.58239e-07
1.43801e-07
1.30826e-07
1.19152e-07
1.07407e-06
9.55655e-07
8.51204e-07
7.59002e-07
6.77547e-07
6.05524e-07
5.41784e-07
4.85322e-07
4.35259e-07
3.90828e-07
3.51356e-07
3.16251e-07
2.84999e-07
2.57145e-07
2.32294e-07
2.10096e-07
1.90245e-07
1.72473e-07
1.56543e-07
1.42246e-07
1.29399e-07
1.17841e-07
1.06573e-06
9.48182e-07
8.44503e-07
7.52986e-07
6.72138e-07
6.00656e-07
5.37397e-07
4.81364e-07
4.31684e-07
3.87593e-07
3.48425e-07
3.13592e-07
2.82583e-07
2.54948e-07
2.30293e-07
2.08271e-07
1.8858e-07
1.70951e-07
1.5515e-07
1.40971e-07
1.28232e-07
1.16771e-07
1.05887e-06
9.42041e-07
8.39003e-07
7.48055e-07
6.67711e-07
5.96676e-07
5.33814e-07
4.78135e-07
4.28771e-07
3.84963e-07
3.46046e-07
3.11438e-07
2.8063e-07
2.53175e-07
2.2868e-07
2.06803e-07
1.8724e-07
1.69728e-07
1.54031e-07
1.39948e-07
1.27295e-07
1.15915e-07
1.05347e-06
9.37215e-07
8.3468e-07
7.44179e-07
6.64233e-07
5.9355e-07
5.31003e-07
4.75604e-07
4.26489e-07
3.82904e-07
3.44185e-07
3.09754e-07
2.79105e-07
2.51791e-07
2.27423e-07
2.05659e-07
1.86198e-07
1.68776e-07
1.53162e-07
1.39149e-07
1.2656e-07
1.15237e-07
1.04917e-06
9.33382e-07
8.3125e-07
7.41109e-07
6.61484e-07
5.91088e-07
5.28795e-07
4.73621e-07
4.24707e-07
3.813e-07
3.42741e-07
3.08453e-07
2.77931e-07
2.50731e-07
2.26464e-07
2.04791e-07
1.85412e-07
1.68063e-07
1.52514e-07
1.3856e-07
1.26022e-07
1.14693e-07
1.17427e-06
1.04681e-06
9.34195e-07
8.3462e-07
7.465e-07
6.68447e-07
5.9925e-07
5.37846e-07
4.83305e-07
4.34812e-07
3.91653e-07
3.53199e-07
3.18902e-07
2.88278e-07
2.60905e-07
2.36408e-07
2.14461e-07
1.94774e-07
1.77095e-07
1.61201e-07
1.46891e-07
1.33997e-07
1.17456e-06
1.04709e-06
9.34455e-07
8.34864e-07
7.46728e-07
6.68661e-07
5.9945e-07
5.38033e-07
4.8348e-07
4.34976e-07
3.91805e-07
3.53342e-07
3.19035e-07
2.88404e-07
2.61021e-07
2.36517e-07
2.14562e-07
1.94869e-07
1.77184e-07
1.61282e-07
1.4697e-07
1.34068e-07
1.17731e-06
1.04956e-06
9.36687e-07
8.36879e-07
7.48549e-07
6.70308e-07
6.00943e-07
5.39387e-07
4.8471e-07
4.36093e-07
3.92823e-07
3.54268e-07
3.19881e-07
2.89174e-07
2.61727e-07
2.37161e-07
2.15153e-07
1.9541e-07
1.77681e-07
1.61739e-07
1.47388e-07
1.34454e-07
1.18191e-06
1.05369e-06
9.40399e-07
8.4022e-07
7.51559e-07
6.73024e-07
6.03395e-07
5.41604e-07
4.86717e-07
4.37913e-07
3.94473e-07
3.55768e-07
3.21245e-07
2.90416e-07
2.62858e-07
2.38194e-07
2.16096e-07
1.96273e-07
1.78469e-07
1.62463e-07
1.4805e-07
1.35063e-07
1.18775e-06
1.05897e-06
9.45174e-07
8.44543e-07
7.55479e-07
6.76582e-07
6.06628e-07
5.44545e-07
4.89395e-07
4.40355e-07
3.96701e-07
3.57804e-07
3.23106e-07
2.92121e-07
2.64419e-07
2.39627e-07
2.1741e-07
1.97481e-07
1.7958e-07
1.63483e-07
1.48992e-07
1.35929e-07
1.1955e-06
1.06597e-06
9.51515e-07
8.50291e-07
7.60696e-07
6.81322e-07
6.1094e-07
5.48472e-07
4.92976e-07
4.43622e-07
3.99687e-07
3.60533e-07
3.25605e-07
2.9441e-07
2.6652e-07
2.41553e-07
2.19182e-07
1.99107e-07
1.81079e-07
1.64862e-07
1.50263e-07
1.37101e-07
1.20513e-06
1.07471e-06
9.59447e-07
8.575e-07
7.67255e-07
6.87296e-07
6.16388e-07
5.53445e-07
4.97519e-07
4.47778e-07
4.03491e-07
3.64021e-07
3.28802e-07
2.97347e-07
2.69216e-07
2.44035e-07
2.21462e-07
2.01211e-07
1.83014e-07
1.6665e-07
1.5191e-07
1.38624e-07
1.21676e-06
1.08528e-06
9.69066e-07
8.66266e-07
7.7525e-07
6.94597e-07
6.2306e-07
5.5955e-07
5.0311e-07
4.52902e-07
4.08193e-07
3.68338e-07
3.32771e-07
3.00995e-07
2.72576e-07
2.47128e-07
2.24316e-07
2.03841e-07
1.85444e-07
1.68892e-07
1.53985e-07
1.4054e-07
1.23043e-06
1.09774e-06
9.80442e-07
8.76658e-07
7.84754e-07
7.03296e-07
6.31031e-07
5.6686e-07
5.09819e-07
4.59066e-07
4.1386e-07
3.73552e-07
3.37572e-07
3.0542e-07
2.76656e-07
2.50893e-07
2.27792e-07
2.07053e-07
1.88413e-07
1.71638e-07
1.56526e-07
1.42893e-07
1.24617e-06
1.11214e-06
9.93614e-07
8.88724e-07
7.95817e-07
7.13449e-07
6.40356e-07
5.75431e-07
5.17705e-07
4.66326e-07
4.20548e-07
3.79719e-07
3.43261e-07
3.10672e-07
2.81507e-07
2.55378e-07
2.31939e-07
2.10891e-07
1.91964e-07
1.74929e-07
1.59574e-07
1.4572e-07
1.26382e-06
1.12833e-06
1.00848e-06
9.02389e-07
8.08386e-07
7.25018e-07
6.51013e-07
5.85255e-07
5.26767e-07
4.7469e-07
4.28274e-07
3.86858e-07
3.49864e-07
3.1678e-07
2.87162e-07
2.60613e-07
2.36791e-07
2.15386e-07
1.96135e-07
1.78796e-07
1.63164e-07
1.49051e-07
1.28385e-06
1.14673e-06
1.02541e-06
9.17968e-07
8.22735e-07
7.38244e-07
6.63213e-07
5.96515e-07
5.37166e-07
4.843e-07
4.3716e-07
3.95079e-07
3.57472e-07
3.23827e-07
2.93689e-07
2.66664e-07
2.424e-07
2.20591e-07
2.00963e-07
1.83279e-07
1.67325e-07
1.52917e-07
1.30551e-06
1.16672e-06
1.04387e-06
9.35021e-07
8.385e-07
7.52826e-07
6.76707e-07
6.0901e-07
5.4874e-07
4.95026e-07
4.47104e-07
4.04302e-07
3.6603e-07
3.31769e-07
3.01064e-07
2.73513e-07
2.48763e-07
2.26503e-07
2.06459e-07
1.88389e-07
1.72078e-07
1.57337e-07
1.32892e-06
1.1884e-06
1.06395e-06
9.53631e-07
8.55754e-07
7.6883e-07
6.91557e-07
6.22793e-07
5.61538e-07
5.06913e-07
4.58147e-07
4.14564e-07
3.75569e-07
3.40638e-07
3.09311e-07
2.81185e-07
2.55901e-07
2.33146e-07
2.12642e-07
1.94144e-07
1.77436e-07
1.62327e-07
1.35388e-06
1.21159e-06
1.08551e-06
9.73682e-07
8.74402e-07
7.86177e-07
7.07697e-07
6.37813e-07
5.75518e-07
5.19927e-07
4.70264e-07
4.25847e-07
3.86077e-07
3.50425e-07
3.18429e-07
2.89679e-07
2.63815e-07
2.40521e-07
2.19515e-07
2.0055e-07
1.83407e-07
1.67893e-07
1.35388e-06
1.2116e-06
1.08551e-06
9.73686e-07
8.74406e-07
7.86182e-07
7.07702e-07
6.37818e-07
5.75522e-07
5.19931e-07
4.70267e-07
4.2585e-07
3.86079e-07
3.50428e-07
3.18432e-07
2.89682e-07
2.63818e-07
2.40524e-07
2.19517e-07
2.00552e-07
1.83409e-07
1.67895e-07
1.32893e-06
1.18841e-06
1.06396e-06
9.53643e-07
8.55767e-07
7.68843e-07
6.91569e-07
6.22805e-07
5.61549e-07
5.06923e-07
4.58157e-07
4.14573e-07
3.75577e-07
3.40647e-07
3.0932e-07
2.81193e-07
2.55909e-07
2.33154e-07
2.12649e-07
1.94151e-07
1.77442e-07
1.62333e-07
1.30553e-06
1.16674e-06
1.04389e-06
9.35041e-07
8.3852e-07
7.52846e-07
6.76727e-07
6.09028e-07
5.48758e-07
4.95044e-07
4.47121e-07
4.04318e-07
3.66045e-07
3.31784e-07
3.01078e-07
2.73526e-07
2.48776e-07
2.26515e-07
2.0647e-07
1.88399e-07
1.72087e-07
1.57345e-07
1.28387e-06
1.14676e-06
1.02544e-06
9.17995e-07
8.22762e-07
7.38271e-07
6.63239e-07
5.96541e-07
5.37191e-07
4.84325e-07
4.37184e-07
3.95102e-07
3.57494e-07
3.23847e-07
2.93708e-07
2.66682e-07
2.42416e-07
2.20605e-07
2.00976e-07
1.83291e-07
1.67336e-07
1.52927e-07
1.26385e-06
1.12836e-06
1.00852e-06
9.02425e-07
8.08421e-07
7.25053e-07
6.51047e-07
5.85289e-07
5.26799e-07
4.74722e-07
4.28304e-07
3.86887e-07
3.4989e-07
3.16805e-07
2.87184e-07
2.60634e-07
2.36809e-07
2.15404e-07
1.9615e-07
1.7881e-07
1.63176e-07
1.49063e-07
1.24621e-06
1.11218e-06
9.93659e-07
8.88769e-07
7.95861e-07
7.13492e-07
6.40398e-07
5.75471e-07
5.17743e-07
4.66362e-07
4.20583e-07
3.79751e-07
3.43291e-07
3.107e-07
2.81534e-07
2.55402e-07
2.31961e-07
2.10911e-07
1.91984e-07
1.74946e-07
1.5959e-07
1.45734e-07
1.23048e-06
1.0978e-06
9.80498e-07
8.76714e-07
7.84808e-07
7.03349e-07
6.31081e-07
5.66907e-07
5.09863e-07
4.59107e-07
4.13898e-07
3.73588e-07
3.37606e-07
3.05451e-07
2.76685e-07
2.50921e-07
2.27818e-07
2.07077e-07
1.88435e-07
1.71659e-07
1.56545e-07
1.42911e-07
1.21682e-06
1.08535e-06
9.69136e-07
8.66334e-07
7.75316e-07
6.9466e-07
6.23119e-07
5.59605e-07
5.03161e-07
4.5295e-07
4.08237e-07
3.68378e-07
3.32808e-07
3.0103e-07
2.72608e-07
2.47158e-07
2.24344e-07
2.03867e-07
1.85468e-07
1.68915e-07
1.54006e-07
1.4056e-07
1.20521e-06
1.07479e-06
9.59532e-07
8.57584e-07
7.67334e-07
6.87372e-07
6.16458e-07
5.5351e-07
4.97579e-07
4.47833e-07
4.03541e-07
3.64066e-07
3.28845e-07
2.97385e-07
2.69252e-07
2.44067e-07
2.21494e-07
2.01239e-07
1.83041e-07
1.66675e-07
1.51935e-07
1.38647e-07
1.1956e-06
1.06607e-06
9.51615e-07
8.50389e-07
7.60789e-07
6.8141e-07
6.11022e-07
5.48549e-07
4.93045e-07
4.43686e-07
3.99745e-07
3.60587e-07
3.25654e-07
2.94455e-07
2.66561e-07
2.41592e-07
2.19217e-07
1.99142e-07
1.81109e-07
1.64892e-07
1.5029e-07
1.37128e-07
1.18787e-06
1.05909e-06
9.45288e-07
8.44654e-07
7.55584e-07
6.76681e-07
6.06721e-07
5.44632e-07
4.89476e-07
4.40429e-07
3.9677e-07
3.57867e-07
3.23164e-07
2.92173e-07
2.64468e-07
2.39671e-07
2.17452e-07
1.97518e-07
1.79616e-07
1.63516e-07
1.49024e-07
1.35958e-07
1.18204e-06
1.05382e-06
9.40527e-07
8.40342e-07
7.51675e-07
6.73134e-07
6.03498e-07
5.41701e-07
4.86807e-07
4.37997e-07
3.94551e-07
3.55839e-07
3.21309e-07
2.90476e-07
2.62911e-07
2.38244e-07
2.1614e-07
1.96314e-07
1.78507e-07
1.62498e-07
1.48084e-07
1.35093e-07
1.17746e-06
1.04971e-06
9.36834e-07
8.37019e-07
7.48681e-07
6.70431e-07
6.01057e-07
5.39493e-07
4.84808e-07
4.36185e-07
3.92907e-07
3.54346e-07
3.19952e-07
2.8924e-07
2.61786e-07
2.37215e-07
2.15202e-07
1.95455e-07
1.77722e-07
1.61778e-07
1.47424e-07
1.34489e-07
1.17475e-06
1.04727e-06
9.34632e-07
8.35031e-07
7.46883e-07
6.68804e-07
5.99581e-07
5.38153e-07
4.8359e-07
4.35077e-07
3.91899e-07
3.53429e-07
3.19116e-07
2.88478e-07
2.6109e-07
2.3658e-07
2.1462e-07
1.94922e-07
1.77233e-07
1.61327e-07
1.47011e-07
1.34106e-07
1.17449e-06
1.04702e-06
9.34403e-07
8.34817e-07
7.46683e-07
6.68616e-07
5.99405e-07
5.37987e-07
4.83433e-07
4.34928e-07
3.91758e-07
3.53296e-07
3.18992e-07
2.88363e-07
2.60984e-07
2.36482e-07
2.14529e-07
1.94837e-07
1.77152e-07
1.61252e-07
1.46937e-07
1.34036e-07
1.17411e-06
1.04665e-06
9.34035e-07
8.34464e-07
7.46349e-07
6.68302e-07
5.99112e-07
5.37715e-07
4.83182e-07
4.34697e-07
3.91545e-07
3.531e-07
3.18812e-07
2.88197e-07
2.60831e-07
2.36341e-07
2.14399e-07
1.94718e-07
1.77043e-07
1.61151e-07
1.46845e-07
1.33952e-07
1.1744e-06
1.04692e-06
9.34291e-07
8.34704e-07
7.46573e-07
6.68513e-07
5.99309e-07
5.37901e-07
4.83357e-07
4.34862e-07
3.91701e-07
3.53247e-07
3.18949e-07
2.88325e-07
2.6095e-07
2.36452e-07
2.14503e-07
1.94814e-07
1.77133e-07
1.61235e-07
1.46925e-07
1.34027e-07
1.17714e-06
1.04939e-06
9.36522e-07
8.36718e-07
7.48395e-07
6.70162e-07
6.00805e-07
5.39259e-07
4.84591e-07
4.35984e-07
3.92722e-07
3.54176e-07
3.19796e-07
2.89097e-07
2.61655e-07
2.37096e-07
2.15093e-07
1.95355e-07
1.7763e-07
1.61692e-07
1.47345e-07
1.34414e-07
1.18175e-06
1.05352e-06
9.40237e-07
8.40063e-07
7.5141e-07
6.72884e-07
6.03264e-07
5.41482e-07
4.86603e-07
4.37807e-07
3.94375e-07
3.55677e-07
3.2116e-07
2.90338e-07
2.62785e-07
2.38126e-07
2.16033e-07
1.96216e-07
1.78417e-07
1.62415e-07
1.48008e-07
1.35025e-07
1.18759e-06
1.05881e-06
9.45017e-07
8.44393e-07
7.55336e-07
6.76447e-07
6.06501e-07
5.44427e-07
4.89285e-07
4.40251e-07
3.96605e-07
3.57714e-07
3.23022e-07
2.92042e-07
2.64346e-07
2.39559e-07
2.17348e-07
1.97423e-07
1.79528e-07
1.63437e-07
1.48951e-07
1.35892e-07
1.19534e-06
1.06581e-06
9.51361e-07
8.50144e-07
7.60556e-07
6.8119e-07
6.10816e-07
5.48357e-07
4.92867e-07
4.43521e-07
3.99593e-07
3.60446e-07
3.25524e-07
2.94335e-07
2.66451e-07
2.4149e-07
2.19124e-07
1.99055e-07
1.81031e-07
1.64819e-07
1.50224e-07
1.37067e-07
1.20497e-06
1.07455e-06
9.59293e-07
8.57354e-07
7.67116e-07
6.87165e-07
6.16265e-07
5.5333e-07
4.97413e-07
4.47679e-07
4.034e-07
3.63937e-07
3.28726e-07
2.97276e-07
2.69153e-07
2.43977e-07
2.21411e-07
2.01164e-07
1.82971e-07
1.66611e-07
1.51875e-07
1.38591e-07
1.21659e-06
1.08512e-06
9.68912e-07
8.66119e-07
7.75111e-07
6.94466e-07
6.22938e-07
5.59436e-07
5.03005e-07
4.52806e-07
4.08105e-07
3.68258e-07
3.32698e-07
3.0093e-07
2.72516e-07
2.47075e-07
2.24268e-07
2.03797e-07
1.85404e-07
1.68856e-07
1.53952e-07
1.40509e-07
1.23027e-06
1.09758e-06
9.80288e-07
8.76511e-07
7.84614e-07
7.03166e-07
6.30909e-07
5.66747e-07
5.09716e-07
4.58971e-07
4.13774e-07
3.73474e-07
3.37502e-07
3.05357e-07
2.76599e-07
2.50842e-07
2.27746e-07
2.07011e-07
1.88375e-07
1.71604e-07
1.56494e-07
1.42865e-07
1.24601e-06
1.11198e-06
9.93461e-07
8.88578e-07
7.95678e-07
7.13319e-07
6.40235e-07
5.7532e-07
5.17602e-07
4.66232e-07
4.20463e-07
3.79642e-07
3.43192e-07
3.1061e-07
2.81451e-07
2.55328e-07
2.31894e-07
2.1085e-07
1.91928e-07
1.74896e-07
1.59544e-07
1.45692e-07
1.26366e-06
1.12817e-06
1.00833e-06
9.02244e-07
8.08249e-07
7.24889e-07
6.50894e-07
5.85145e-07
5.26665e-07
4.74598e-07
4.2819e-07
3.86782e-07
3.49794e-07
3.16718e-07
2.87106e-07
2.60563e-07
2.36746e-07
2.15346e-07
1.96099e-07
1.78764e-07
1.63135e-07
1.49025e-07
1.28369e-06
1.14658e-06
1.02526e-06
9.17825e-07
8.226e-07
7.38118e-07
6.63095e-07
5.96407e-07
5.37066e-07
4.84209e-07
4.37076e-07
3.95003e-07
3.57403e-07
3.23764e-07
2.93633e-07
2.66613e-07
2.42355e-07
2.20551e-07
2.00927e-07
1.83247e-07
1.67297e-07
1.52892e-07
1.30536e-06
1.16657e-06
1.04372e-06
9.34882e-07
8.38368e-07
7.52703e-07
6.76592e-07
6.08903e-07
5.48641e-07
4.94936e-07
4.47022e-07
4.04226e-07
3.65961e-07
3.31707e-07
3.01007e-07
2.73462e-07
2.48718e-07
2.26463e-07
2.06423e-07
1.88357e-07
1.7205e-07
1.57313e-07
1.32877e-06
1.18825e-06
1.06381e-06
9.53495e-07
8.55625e-07
7.68709e-07
6.91443e-07
6.22687e-07
5.6144e-07
5.06823e-07
4.58065e-07
4.1449e-07
3.75501e-07
3.40577e-07
3.09256e-07
2.81135e-07
2.55857e-07
2.33106e-07
2.12606e-07
1.94112e-07
1.77408e-07
1.62302e-07
1.35374e-06
1.21145e-06
1.08537e-06
9.73549e-07
8.74275e-07
7.86057e-07
7.07584e-07
6.37708e-07
5.7542e-07
5.19837e-07
4.70182e-07
4.25772e-07
3.86009e-07
3.50364e-07
3.18374e-07
2.8963e-07
2.63771e-07
2.40481e-07
2.19479e-07
2.00518e-07
1.83378e-07
1.67867e-07
1.35374e-06
1.21146e-06
1.08538e-06
9.73555e-07
8.74281e-07
7.86063e-07
7.0759e-07
6.37713e-07
5.75425e-07
5.19842e-07
4.70186e-07
4.25776e-07
3.86013e-07
3.50368e-07
3.18377e-07
2.89633e-07
2.63774e-07
2.40484e-07
2.19482e-07
2.0052e-07
1.8338e-07
1.67869e-07
1.32879e-06
1.18827e-06
1.06382e-06
9.53513e-07
8.55643e-07
7.68725e-07
6.91459e-07
6.22702e-07
5.61454e-07
5.06836e-07
4.58078e-07
4.14501e-07
3.75512e-07
3.40587e-07
3.09266e-07
2.81145e-07
2.55865e-07
2.33114e-07
2.12613e-07
1.94118e-07
1.77413e-07
1.62307e-07
1.30539e-06
1.1666e-06
1.04375e-06
9.34913e-07
8.38398e-07
7.52731e-07
6.76619e-07
6.08929e-07
5.48666e-07
4.94959e-07
4.47043e-07
4.04246e-07
3.65979e-07
3.31723e-07
3.01023e-07
2.73477e-07
2.48731e-07
2.26475e-07
2.06434e-07
1.88366e-07
1.72058e-07
1.5732e-07
1.28374e-06
1.14662e-06
1.02531e-06
9.17871e-07
8.22644e-07
7.3816e-07
6.63134e-07
5.96443e-07
5.371e-07
4.84241e-07
4.37106e-07
3.9503e-07
3.57428e-07
3.23787e-07
2.93654e-07
2.66633e-07
2.42372e-07
2.20566e-07
2.00941e-07
1.8326e-07
1.67308e-07
1.52902e-07
1.26372e-06
1.12823e-06
1.00839e-06
9.02304e-07
8.08306e-07
7.24944e-07
6.50945e-07
5.85192e-07
5.2671e-07
4.74639e-07
4.28228e-07
3.86816e-07
3.49826e-07
3.16746e-07
2.87131e-07
2.60586e-07
2.36767e-07
2.15365e-07
1.96116e-07
1.78779e-07
1.63149e-07
1.49038e-07
1.24608e-06
1.11205e-06
9.93535e-07
8.8865e-07
7.95748e-07
7.13385e-07
6.40297e-07
5.75378e-07
5.17656e-07
4.66282e-07
4.20509e-07
3.79683e-07
3.43229e-07
3.10644e-07
2.81482e-07
2.55355e-07
2.31919e-07
2.10873e-07
1.91949e-07
1.74915e-07
1.59562e-07
1.45709e-07
1.23035e-06
1.09767e-06
9.80373e-07
8.76594e-07
7.84695e-07
7.03242e-07
6.30981e-07
5.66815e-07
5.09778e-07
4.59029e-07
4.13827e-07
3.73522e-07
3.37546e-07
3.05396e-07
2.76635e-07
2.50874e-07
2.27776e-07
2.07038e-07
1.884e-07
1.71627e-07
1.56515e-07
1.42884e-07
1.21669e-06
1.08521e-06
9.69007e-07
8.66211e-07
7.752e-07
6.94551e-07
6.23018e-07
5.59512e-07
5.03076e-07
4.52872e-07
4.08166e-07
3.68313e-07
3.32749e-07
3.00976e-07
2.72559e-07
2.47113e-07
2.24302e-07
2.03829e-07
1.85433e-07
1.68883e-07
1.53977e-07
1.40533e-07
1.20507e-06
1.07465e-06
9.59396e-07
8.57454e-07
7.67212e-07
6.87258e-07
6.16352e-07
5.53413e-07
4.9749e-07
4.47752e-07
4.03468e-07
3.64e-07
3.28784e-07
2.9733e-07
2.69202e-07
2.44022e-07
2.21451e-07
2.01201e-07
1.83005e-07
1.66642e-07
1.51904e-07
1.38618e-07
1.19545e-06
1.06592e-06
9.51471e-07
8.50252e-07
7.6066e-07
6.81289e-07
6.10911e-07
5.48446e-07
4.92952e-07
4.43601e-07
3.99668e-07
3.60517e-07
3.25591e-07
2.94396e-07
2.66509e-07
2.41543e-07
2.19173e-07
1.99099e-07
1.81072e-07
1.64856e-07
1.50258e-07
1.37096e-07
1.18771e-06
1.05893e-06
9.45139e-07
8.44511e-07
7.55449e-07
6.76555e-07
6.06604e-07
5.44524e-07
4.89376e-07
4.40337e-07
3.96686e-07
3.57791e-07
3.23094e-07
2.92111e-07
2.6441e-07
2.39619e-07
2.17403e-07
1.97475e-07
1.79575e-07
1.63479e-07
1.48988e-07
1.35925e-07
1.18188e-06
1.05366e-06
9.40372e-07
8.40194e-07
7.51536e-07
6.73003e-07
6.03376e-07
5.41588e-07
4.86702e-07
4.379e-07
3.94462e-07
3.55758e-07
3.21236e-07
2.90409e-07
2.62851e-07
2.38189e-07
2.16091e-07
1.96269e-07
1.78466e-07
1.62459e-07
1.48047e-07
1.35061e-07
1.17729e-06
1.04954e-06
9.36667e-07
8.36861e-07
7.48532e-07
6.70294e-07
6.00929e-07
5.39375e-07
4.84699e-07
4.36084e-07
3.92814e-07
3.54261e-07
3.19875e-07
2.89169e-07
2.61722e-07
2.37157e-07
2.1515e-07
1.95407e-07
1.77678e-07
1.61737e-07
1.47386e-07
1.34452e-07
1.17455e-06
1.04707e-06
9.34444e-07
8.34853e-07
7.46718e-07
6.68652e-07
5.99442e-07
5.38026e-07
4.83474e-07
4.3497e-07
3.918e-07
3.53338e-07
3.19031e-07
2.884e-07
2.61018e-07
2.36515e-07
2.1456e-07
1.94868e-07
1.77182e-07
1.61281e-07
1.46969e-07
1.34067e-07
1.17426e-06
1.0468e-06
9.34191e-07
8.34617e-07
7.46496e-07
6.68444e-07
5.99247e-07
5.37844e-07
4.83303e-07
4.3481e-07
3.91651e-07
3.53198e-07
3.18901e-07
2.88277e-07
2.60904e-07
2.36407e-07
2.1446e-07
1.94774e-07
1.77094e-07
1.612e-07
1.46891e-07
1.33996e-07
1.17085e-06
1.17099e-06
1.17355e-06
1.17779e-06
1.18301e-06
1.18981e-06
1.19815e-06
1.20805e-06
1.21941e-06
1.23215e-06
1.24608e-06
1.26167e-06
1.27809e-06
1.29537e-06
1.31332e-06
1.2417e-06
1.21857e-06
1.19658e-06
1.17588e-06
1.15658e-06
1.13848e-06
1.12243e-06
1.1078e-06
1.0948e-06
1.08345e-06
1.07371e-06
1.06555e-06
1.05889e-06
1.05373e-06
1.04957e-06
1.03782e-06
1.03795e-06
1.04021e-06
1.04397e-06
1.04863e-06
1.05472e-06
1.06223e-06
1.07119e-06
1.08152e-06
1.09315e-06
1.10595e-06
1.12034e-06
1.13561e-06
1.15179e-06
1.16873e-06
1.10763e-06
1.08649e-06
1.06643e-06
1.0476e-06
1.03008e-06
1.01371e-06
9.99195e-07
9.86001e-07
9.74307e-07
9.64099e-07
9.55361e-07
9.48047e-07
9.42084e-07
9.37466e-07
9.33754e-07
9.20792e-07
9.20905e-07
9.22916e-07
9.26252e-07
9.30419e-07
9.35875e-07
9.42635e-07
9.50751e-07
9.60163e-07
9.70802e-07
9.82572e-07
9.95856e-07
1.01007e-06
1.02522e-06
1.04118e-06
9.89165e-07
9.69822e-07
9.51519e-07
9.34366e-07
9.18446e-07
9.03616e-07
8.90471e-07
8.78554e-07
8.68012e-07
8.58826e-07
8.50976e-07
8.44412e-07
8.39065e-07
8.34926e-07
8.31619e-07
8.17763e-07
8.17864e-07
8.19655e-07
8.22622e-07
8.26356e-07
8.31253e-07
8.37343e-07
8.447e-07
8.53288e-07
8.63037e-07
8.73866e-07
8.86132e-07
8.9936e-07
9.13543e-07
9.28577e-07
8.84408e-07
8.66689e-07
8.49963e-07
8.3432e-07
8.19834e-07
8.06382e-07
7.94464e-07
7.83686e-07
7.7417e-07
7.65893e-07
7.5883e-07
7.52933e-07
7.48135e-07
7.4442e-07
7.41466e-07
7.27e-07
7.27091e-07
7.28687e-07
7.31331e-07
7.34684e-07
7.39087e-07
7.44578e-07
7.51249e-07
7.59093e-07
7.68041e-07
7.78016e-07
7.89345e-07
8.01656e-07
8.14936e-07
8.29087e-07
7.91684e-07
7.75432e-07
7.60132e-07
7.45851e-07
7.32652e-07
7.20434e-07
7.09615e-07
6.99853e-07
6.91253e-07
6.83786e-07
6.77423e-07
6.72117e-07
6.67805e-07
6.64467e-07
6.61825e-07
6.46984e-07
6.47068e-07
6.48492e-07
6.50852e-07
6.53867e-07
6.57835e-07
6.62792e-07
6.68842e-07
6.7601e-07
6.84237e-07
6.93437e-07
7.03903e-07
7.15358e-07
7.27792e-07
7.41102e-07
7.09531e-07
6.94609e-07
6.80596e-07
6.67547e-07
6.55506e-07
6.44394e-07
6.34559e-07
6.25709e-07
6.17926e-07
6.1118e-07
6.05439e-07
6.00661e-07
5.96781e-07
5.93776e-07
5.9141e-07
5.76389e-07
5.76467e-07
5.77741e-07
5.79849e-07
5.82566e-07
5.86149e-07
5.90633e-07
5.96121e-07
6.02671e-07
6.10242e-07
6.18742e-07
6.28416e-07
6.39069e-07
6.50709e-07
6.63227e-07
6.36674e-07
6.22959e-07
6.1011e-07
5.98171e-07
5.87178e-07
5.77058e-07
5.68107e-07
5.60073e-07
5.5302e-07
5.46918e-07
5.41732e-07
5.37421e-07
5.33928e-07
5.31221e-07
5.29098e-07
5.14059e-07
5.14131e-07
5.15272e-07
5.17158e-07
5.19609e-07
5.2285e-07
5.26915e-07
5.319e-07
5.37882e-07
5.44852e-07
5.52717e-07
5.61668e-07
5.71571e-07
5.82461e-07
5.94233e-07
5.71997e-07
5.59376e-07
5.47581e-07
5.36649e-07
5.26601e-07
5.17373e-07
5.09216e-07
5.01915e-07
4.95515e-07
4.89988e-07
4.85299e-07
4.81405e-07
4.78255e-07
4.75812e-07
4.73906e-07
4.58979e-07
4.59048e-07
4.60071e-07
4.61759e-07
4.63974e-07
4.66911e-07
4.70604e-07
4.75138e-07
4.80602e-07
4.87017e-07
4.94302e-07
5.02597e-07
5.118e-07
5.2198e-07
5.33045e-07
5.14523e-07
5.02896e-07
4.92056e-07
4.82034e-07
4.72841e-07
4.64418e-07
4.56976e-07
4.50332e-07
4.44518e-07
4.39507e-07
4.35261e-07
4.31739e-07
4.28894e-07
4.26686e-07
4.24973e-07
4.10267e-07
4.10332e-07
4.11251e-07
4.12764e-07
4.14767e-07
4.17432e-07
4.20794e-07
4.24927e-07
4.29918e-07
4.35821e-07
4.42573e-07
4.50268e-07
4.58824e-07
4.68332e-07
4.78729e-07
4.63393e-07
4.52676e-07
4.42701e-07
4.33502e-07
4.25083e-07
4.17388e-07
4.1059e-07
4.04536e-07
3.99248e-07
3.94698e-07
3.90849e-07
3.8766e-07
3.85087e-07
3.8309e-07
3.81548e-07
3.67148e-07
3.67209e-07
3.68036e-07
3.69394e-07
3.71207e-07
3.73628e-07
3.76694e-07
3.80469e-07
3.85034e-07
3.90459e-07
3.96717e-07
4.03868e-07
4.11829e-07
4.207e-07
4.30457e-07
4.17854e-07
4.07972e-07
3.98784e-07
3.90329e-07
3.82611e-07
3.75575e-07
3.69358e-07
3.63836e-07
3.59021e-07
3.54884e-07
3.5139e-07
3.485e-07
3.4617e-07
3.44362e-07
3.42971e-07
3.28945e-07
3.29002e-07
3.29748e-07
3.30969e-07
3.32612e-07
3.34813e-07
3.37613e-07
3.41068e-07
3.45249e-07
3.50234e-07
3.56028e-07
3.62678e-07
3.70095e-07
3.7837e-07
3.87515e-07
3.77249e-07
3.68132e-07
3.59664e-07
3.51884e-07
3.448e-07
3.38361e-07
3.32671e-07
3.27627e-07
3.23237e-07
3.19472e-07
3.16297e-07
3.13674e-07
3.11561e-07
3.09922e-07
3.08667e-07
2.95068e-07
2.9512e-07
2.95792e-07
2.96892e-07
2.98382e-07
3.00386e-07
3.02945e-07
3.06113e-07
3.09951e-07
3.14532e-07
3.19891e-07
3.26075e-07
3.32993e-07
3.40715e-07
3.49277e-07
3.40999e-07
3.32585e-07
3.24777e-07
3.17613e-07
3.11103e-07
3.05203e-07
2.99991e-07
2.95378e-07
2.91371e-07
2.87941e-07
2.85052e-07
2.82669e-07
2.80751e-07
2.79264e-07
2.78128e-07
2.64996e-07
2.65044e-07
2.65651e-07
2.66643e-07
2.67996e-07
2.69821e-07
2.72162e-07
2.7507e-07
2.786e-07
2.82816e-07
2.87767e-07
2.93513e-07
2.99971e-07
3.07183e-07
3.15192e-07
3.086e-07
3.0083e-07
2.9363e-07
2.87028e-07
2.81039e-07
2.75627e-07
2.70848e-07
2.66626e-07
2.62964e-07
2.59834e-07
2.57203e-07
2.55036e-07
2.53294e-07
2.51941e-07
2.50914e-07
2.38276e-07
2.3832e-07
2.38868e-07
2.39764e-07
2.40994e-07
2.42658e-07
2.448e-07
2.47473e-07
2.50724e-07
2.54611e-07
2.59184e-07
2.64516e-07
2.70546e-07
2.77288e-07
2.84778e-07
2.79612e-07
2.7243e-07
2.65787e-07
2.59702e-07
2.54188e-07
2.49216e-07
2.44829e-07
2.40962e-07
2.37612e-07
2.34753e-07
2.32354e-07
2.3038e-07
2.28795e-07
2.27566e-07
2.26633e-07
2.1451e-07
2.1455e-07
2.15045e-07
2.15854e-07
2.16976e-07
2.18493e-07
2.20455e-07
2.22912e-07
2.25911e-07
2.29501e-07
2.33728e-07
2.3867e-07
2.44295e-07
2.50603e-07
2.57611e-07
2.53646e-07
2.47e-07