/*--------------------------------*- C++ -*----------------------------------*\
| =========                 |                                                 |
| \\      /  F ield         | OpenFOAM Extend Project: Open source CFD        |
|  \\    /   O peration     | Version:  1.6-ext                               |
|   \\  /    A nd           | Web:      www.extend-project.de                 |
|    \\/     M anipulation  |                                                 |
\*---------------------------------------------------------------------------*/
FoamFile
{
    version     2.0;
    format      ascii;
    class       volScalarField;
    location    "0.4";
    object      p;
}
// * * * * * * * * * * * * * * * * * * * * * * * * * * * * * * * * * * * * * //

dimensions      [0 2 -2 0 0 0 0];

internalField   nonuniform List<scalar> 
284
(
0.275669
0.244091
0.233174
0.227533
0.224375
0.223094
0.223138
0.224228
0.227862
0.247058
0.236724
0.231597
0.228597
0.226689
0.226115
0.22659
0.227831
0.23165
0.236024
0.230511
0.227828
0.22612
0.224912
0.224783
0.225537
0.226912
0.231047
0.226815
0.223575
0.222306
0.221455
0.220709
0.220768
0.221511
0.22272
0.226949
0.218905
0.21654
0.215894
0.215325
0.214542
0.214281
0.214442
0.214812
0.21845
0.211575
0.209528
0.208956
0.208125
0.20671
0.205412
0.20408
0.202407
0.203421
0.204616
0.202665
0.201815
0.200258
0.197575
0.19427
0.189792
0.183114
0.175918
0.198207
0.196259
0.194905
0.192263
0.187756
0.181634
0.172573
0.163347
0.112379
0.192736
0.190739
0.18876
0.184798
0.177858
0.167336
0.14721
0.112954
0.0118299
0.188672
0.18658
0.183966
0.178892
0.170344
0.157783
0.138085
0.109127
0.0612859
0.186482
0.184153
0.180872
0.174974
0.165687
0.152937
0.13584
0.112372
0.0845072
0.186634
0.18373
0.17949
0.172828
0.163116
0.150535
0.13486
0.114643
0.0926149
0.191198
0.185905
0.179688
0.172043
0.161928
0.149503
0.134673
0.116711
0.0973533
0.197295
0.187135
0.179673
0.171787
0.161644
0.149492
0.135292
0.118712
0.100735
0.226712
0.196714
0.184408
0.174387
0.163802
0.151784
0.137841
0.121683
0.103874
-0.13162
-0.112277
-0.00651104
-0.0292243
0.0358481
0.0106547
0.061725
0.0400883
0.0741738
0.0542319
0.0809083
0.0624807
0.08449
0.0656812
-0.0968626
-0.0451654
-0.0111109
0.0031006
0.00780521
0.00849699
0.00722546
0.00484726
0.00166541
-0.0344002
-0.0150653
0.00170395
0.00870312
0.0104282
0.00985133
0.00791806
0.00512412
0.00164704
0.00327005
0.00680023
0.0119728
0.0139538
0.0132635
0.0112585
0.00851245
0.00529121
0.00160556
0.0278346
0.0223891
0.0201991
0.0181258
0.0153589
0.0121784
0.00878332
0.0052672
0.00151958
0.0403575
0.0314084
0.0254497
0.0207576
0.0164941
0.012477
0.00866105
0.00502148
0.00138148
0.0476098
0.0364135
0.0281395
0.0217791
0.0165612
0.0120812
0.00812132
0.004559
0.00120772
0.0495594
0.0368526
0.0273065
0.020177
0.0146924
0.0102987
0.00664543
0.00352764
0.000850066
-0.003807
0.000693425
0.00338217
0.00534061
0.00630051
0.00624516
0.00531623
0.00370523
0.00156051
-0.00766992
-0.00275088
0.000258829
0.00266211
0.00410321
0.00451757
0.00404791
0.00289947
0.00129529
-0.0118737
-0.00584255
-0.00211507
0.00101084
0.00300447
0.00380102
0.00360079
0.00265445
0.00123191
-0.0183027
-0.01007
-0.00504878
-0.000674647
0.00214025
0.00340203
0.00345068
0.00262105
0.0012292
-0.0287132
-0.0159569
-0.00867364
-0.00229834
0.00162811
0.00339332
0.00362791
0.00280369
0.00128807
-0.0457571
-0.0241366
-0.0128728
-0.00357603
0.00168098
0.00387146
0.00414868
0.00318299
0.0013913
-0.0618266
-0.0348785
-0.0174047
-0.00430297
0.00240399
0.00484884
0.00496504
0.00369809
0.00150574
-0.13926
-0.0545294
-0.0219681
-0.00370007
0.00405247
0.00633189
0.00600711
0.00427514
0.00160041
)
;

boundaryField
{
    inlet
    {
        type            zeroGradient;
    }
    outlet
    {
        type            totalPressure;
        rho             none;
        psi             none;
        gamma           1;
        p0              uniform 0;
        value           uniform 0;
    }
    fixedWalls
    {
        type            zeroGradient;
    }
    frontAndBack
    {
        type            empty;
    }
}


// ************************************************************************* //
