/*--------------------------------*- C++ -*----------------------------------*\
| =========                 |                                                 |
| \\      /  F ield         | OpenFOAM Extend Project: Open source CFD        |
|  \\    /   O peration     | Version:  1.6-ext                               |
|   \\  /    A nd           | Web:      www.extend-project.de                 |
|    \\/     M anipulation  |                                                 |
\*---------------------------------------------------------------------------*/
FoamFile
{
    version     2.0;
    format      ascii;
    class       surfaceScalarField;
    location    "0.4";
    object      phi;
}
// * * * * * * * * * * * * * * * * * * * * * * * * * * * * * * * * * * * * * //

dimensions      [0 3 -1 0 0 0 0];

internalField   nonuniform List<scalar> 
525
(
0.000164752
3.52476e-05
0.000130209
3.45436e-05
0.000104138
2.6071e-05
8.3688e-05
2.04498e-05
6.52954e-05
1.83925e-05
4.70866e-05
1.82088e-05
2.8293e-05
1.87936e-05
1.00211e-05
1.82719e-05
1.00211e-05
0.00020277
3.24772e-05
0.000188031
4.92828e-05
0.000165325
4.87773e-05
0.000139833
4.59414e-05
0.000112723
4.5503e-05
8.36357e-05
4.7296e-05
5.23834e-05
5.00458e-05
2.08186e-05
4.98367e-05
3.08397e-05
0.000203208
2.92696e-05
0.000193255
5.92357e-05
0.00017471
6.73217e-05
0.000151366
6.92859e-05
0.000124568
7.23013e-05
9.4275e-05
7.75885e-05
6.03587e-05
8.39622e-05
2.472e-05
8.54754e-05
5.55597e-05
0.000200184
2.90852e-05
0.00019148
6.79396e-05
0.000175939
8.28634e-05
0.000155672
8.95524e-05
0.000131156
9.68173e-05
0.000101898
0.000106847
6.72576e-05
0.000118603
2.86161e-05
0.000124117
8.41758e-05
0.000199001
3.00846e-05
0.000191654
7.52859e-05
0.000179144
9.5374e-05
0.000162371
0.000106326
0.000140967
0.000118221
0.000113669
0.000134145
7.87415e-05
0.00015353
3.58937e-05
0.000166965
0.000120069
0.000199284
3.08004e-05
0.00019438
8.01901e-05
0.000185733
0.000104021
0.000173439
0.00011862
0.000156511
0.000135148
0.000132801
0.000157855
9.87139e-05
0.000187617
5.05263e-05
0.000215152
0.000170596
0.000200436
3.03648e-05
0.000199099
8.1527e-05
0.000195496
0.000107624
0.000189218
0.000124898
0.000179126
0.00014524
0.000162893
0.000174088
0.000134839
0.000215671
8.4902e-05
0.000265089
0.000255498
0.000202084
2.82804e-05
0.00020518
7.84319e-05
0.000207715
0.000105088
0.000209075
0.000123539
0.000208376
0.000145938
0.000203244
0.00017922
0.000185671
0.000233244
0.000136443
0.000314317
0.000391941
0.000203957
2.43233e-05
0.000211871
7.05182e-05
0.000221073
9.58859e-05
0.000231415
0.000113197
0.000244545
0.000132808
0.000264365
0.0001594
0.000304108
0.0001935
0.000385723
0.000232702
0.000326849
0.000450815
0.000205845
1.8478e-05
0.000218257
5.81062e-05
0.000233308
8.08349e-05
0.000250773
9.57331e-05
0.000272884
0.000110697
0.000303861
0.000128423
0.000349359
0.000148003
0.000420638
0.000161423
0.000222344
0.000525143
0.00020783
1.06478e-05
0.000224026
4.19108e-05
0.000243264
6.15969e-05
0.000264806
7.41908e-05
0.000290209
8.5293e-05
0.000322071
9.65614e-05
0.000362818
0.000107256
0.000414485
0.000109755
0.000129217
0.000507613
0.000210454
1.93542e-07
0.000229757
2.26077e-05
0.000251379
3.99749e-05
0.000274545
5.10248e-05
0.000300416
5.94219e-05
0.000330519
6.64588e-05
0.000366038
7.17374e-05
0.000405379
7.04143e-05
7.16522e-05
0.000462944
0.000214554
-1.43609e-05
0.000235573
1.5894e-06
0.000257239
1.83083e-05
0.00027999
2.8274e-05
0.000304799
3.46125e-05
0.000332384
3.8874e-05
0.000362923
4.11982e-05
0.000393953
3.93844e-05
3.59257e-05
0.00042968
0.000213785
-2.81454e-05
0.000229435
-1.40613e-05
0.000247204
5.39695e-07
0.000267256
8.22202e-06
0.000289453
1.24158e-05
0.000313716
1.46102e-05
0.000339408
1.55066e-05
0.000364271
1.45215e-05
1.22877e-05
0.000387909
0.000171855
0.000157793
0.000158333
0.000166555
0.000178971
0.000193581
0.000209088
0.000223609
0.000235897
0.000359299
9.15164e-05
-2.57698e-05
0.000385069
0.000542027
7.46326e-05
-3.21519e-05
0.000548409
0.000529785
5.24606e-05
-1.64358e-05
0.000514069
0.000482139
3.32649e-05
-8.9602e-06
0.000474664
0.000446085
1.68597e-05
-5.2827e-06
0.000442408
0.000399712
5.0567e-06
-3.28236e-06
0.000397711
0.000240954
0.000237671
0.000386992
-0.000188563
0.00018664
0.000355133
-0.000224621
0.00025648
0.000309593
-0.000197019
0.000242559
0.000277223
-0.000156818
0.000189189
0.000258223
-0.000119254
0.000138253
0.000247494
-8.83791e-05
9.91084e-05
0.000241489
-6.31893e-05
6.91948e-05
0.000238388
-4.20413e-05
4.51414e-05
-2.27091e-05
2.4051e-05
0.000481188
-0.000121343
0.000407189
-0.000150622
0.000350305
-0.000140135
0.000311766
-0.000118279
0.000287603
-9.50911e-05
0.000272446
-7.32221e-05
0.00026292
-5.3663e-05
0.000257292
-3.64132e-05
-1.99526e-05
0.000463743
-7.10172e-05
0.000409167
-9.60453e-05
0.000365324
-9.62924e-05
0.000332481
-8.54361e-05
0.0003086
-7.12099e-05
0.000291747
-5.63688e-05
0.000280248
-4.21647e-05
0.000272956
-2.91204e-05
-1.61963e-05
0.000444736
-4.10893e-05
0.000407298
-5.86071e-05
0.000372941
-6.19359e-05
0.000344564
-5.70588e-05
0.000322137
-4.87831e-05
0.000305127
-3.93584e-05
0.000292839
-2.98771e-05
0.000284637
-2.09179e-05
-1.18241e-05
0.000424071
-2.27524e-05
0.000398183
-3.27193e-05
0.000371453
-3.52061e-05
0.000347285
-3.28911e-05
0.000326874
-2.83718e-05
0.000310557
-2.30412e-05
0.000298273
-1.75934e-05
0.000289766
-1.24107e-05
-7.18246e-06
0.000384637
-9.67795e-06
0.000364987
-1.30695e-05
0.000343427
-1.36462e-05
0.000323028
-1.24922e-05
0.000305263
-1.0606e-05
0.000290735
-8.51325e-06
0.000279597
-6.45623e-06
0.000271748
-4.56146e-06
-2.82201e-06
0.000227993
0.000214924
0.000201278
0.000188785
0.000178179
0.000169666
0.00016321
0.000158648
4.27473e-06
-4.27473e-06
1.62878e-05
-1.20131e-05
2.95299e-05
-1.3242e-05
4.17798e-05
-1.22499e-05
5.2297e-05
-1.05172e-05
6.07811e-05
-8.48402e-06
6.71395e-05
-6.35846e-06
7.14106e-05
-4.27105e-06
-2.54495e-06
1.00772e-05
-1.43519e-05
3.08925e-05
-3.28284e-05
5.29978e-05
-3.53473e-05
7.32817e-05
-3.25339e-05
9.06328e-05
-2.78683e-05
0.000104617
-2.24682e-05
0.00011511
-1.68512e-05
0.000122129
-1.12907e-05
-6.3322e-06
1.09223e-05
-2.52742e-05
3.49051e-05
-5.68112e-05
6.02311e-05
-6.06733e-05
8.31497e-05
-5.54525e-05
0.000102439
-4.71575e-05
0.000117763
-3.77926e-05
0.000129151
-2.82392e-05
0.000136743
-1.8882e-05
-1.03878e-05
1.01542e-05
-3.54284e-05
3.762e-05
-8.4277e-05
6.64447e-05
-8.94981e-05
9.17489e-05
-8.07567e-05
0.000112292
-6.77005e-05
0.000128093
-5.35938e-05
0.000139565
-3.97109e-05
0.000147132
-2.64489e-05
-1.43965e-05
8.32876e-06
-4.37571e-05
4.15885e-05
-0.000117537
7.5922e-05
-0.000123832
0.00010438
-0.000109215
0.000126084
-8.94049e-05
0.00014191
-6.94198e-05
0.00015297
-5.07711e-05
0.000160141
-3.36192e-05
-1.8144e-05
8.47768e-06
-5.22348e-05
5.04093e-05
-0.000159468
9.20121e-05
-0.000165434
0.000123671
-0.000140874
0.000145682
-0.000111415
0.000160499
-8.42367e-05
0.00017028
-6.05526e-05
0.000176463
-3.98021e-05
-2.13195e-05
3.00856e-05
-8.23204e-05
7.75006e-05
-0.000206883
0.0001225
-0.000210433
0.000153751
-0.000172126
0.000172948
-0.000130612
0.000184446
-9.57348e-05
0.000191414
-6.75204e-05
0.000195676
-4.40647e-05
-2.34696e-05
0.00010432
0.000153916
0.000186042
0.000203105
0.000210746
0.00021412
0.000215794
0.000216871
)
;

boundaryField
{
    inlet
    {
        type            calculated;
        value           uniform -0.0002;
    }
    outlet
    {
        type            calculated;
        value           nonuniform List<scalar> 
15
(
7.39555e-05
0.000125917
0.000140798
0.000151141
0.000163888
0.000179639
0.000197826
0.000217452
0.000237047
0.000254535
0.000269199
0.000280264
0.000285124
0.000267388
0.000155826
)
;
    }
    fixedWalls
    {
        type            calculated;
        value           uniform 0;
    }
    frontAndBack
    {
        type            empty;
    }
}


// ************************************************************************* //
