/*--------------------------------*- C++ -*----------------------------------*\
| =========                 |                                                 |
| \\      /  F ield         | OpenFOAM Extend Project: Open source CFD        |
|  \\    /   O peration     | Version:  1.6-ext                               |
|   \\  /    A nd           | Web:      www.extend-project.de                 |
|    \\/     M anipulation  |                                                 |
\*---------------------------------------------------------------------------*/
FoamFile
{
    version     2.0;
    format      ascii;
    class       volVectorField;
    location    "0.4";
    object      U;
}
// * * * * * * * * * * * * * * * * * * * * * * * * * * * * * * * * * * * * * //

dimensions      [0 1 -1 0 0 0 0];

internalField   nonuniform List<vector> 
284
(
(0.161327 0.0234603 0)
(0.151655 0.0204811 0)
(0.116489 0.0137869 0)
(0.0929272 0.00969877 0)
(0.0744585 0.00802721 0)
(0.0564178 0.00757618 0)
(0.0378097 0.00761507 0)
(0.0178636 0.00720244 0)
(0.00374766 0.00338516 0)
(0.193383 0.0391318 0)
(0.202799 0.0454994 0)
(0.178144 0.0386647 0)
(0.152157 0.0329352 0)
(0.126683 0.0308053 0)
(0.0988117 0.0310724 0)
(0.0684356 0.0323471 0)
(0.0350546 0.031735 0)
(0.00880109 0.0184806 0)
(0.19434 0.0299891 0)
(0.205123 0.054297 0)
(0.185762 0.0583824 0)
(0.162949 0.0579419 0)
(0.138685 0.0590769 0)
(0.110363 0.0624052 0)
(0.0780762 0.0667198 0)
(0.0411475 0.0671029 0)
(0.0107578 0.0426565 0)
(0.192733 0.0289101 0)
(0.201892 0.0636433 0)
(0.185289 0.0755266 0)
(0.165802 0.0799628 0)
(0.144328 0.0850384 0)
(0.117774 0.0925272 0)
(0.0857897 0.101321 0)
(0.0469601 0.104396 0)
(0.0129545 0.0692549 0)
(0.191923 0.0296023 0)
(0.200801 0.0719309 0)
(0.186777 0.0897103 0)
(0.17075 0.0986315 0)
(0.152725 0.108187 0)
(0.128916 0.121012 0)
(0.0981009 0.13623 0)
(0.0572698 0.144836 0)
(0.0173387 0.100736 0)
(0.191694 0.030563 0)
(0.20183 0.0782585 0)
(0.191276 0.100496 0)
(0.179518 0.113416 0)
(0.166101 0.127697 0)
(0.146619 0.146982 0)
(0.118676 0.171396 0)
(0.076479 0.191361 0)
(0.0264439 0.143599 0)
(0.191747 0.0307791 0)
(0.204272 0.0815617 0)
(0.198355 0.106857 0)
(0.192141 0.123034 0)
(0.185204 0.141717 0)
(0.1731 0.167692 0)
(0.153099 0.202543 0)
(0.11616 0.233547 0)
(0.0490867 0.208065 0)
(0.191937 0.0295672 0)
(0.207585 0.0808085 0)
(0.207301 0.107573 0)
(0.207915 0.125796 0)
(0.209443 0.147807 0)
(0.208066 0.180435 0)
(0.195438 0.233229 0)
(0.192687 0.312577 0)
(0.0577136 0.304747 0)
(0.192196 0.0265639 0)
(0.211288 0.0753292 0)
(0.217107 0.101714 0)
(0.225468 0.119934 0)
(0.237906 0.141545 0)
(0.255787 0.172841 0)
(0.277844 0.220364 0)
(0.353472 0.286717 0)
(0.404852 0.426456 0)
(0.192501 0.0216728 0)
(0.21494 0.0650981 0)
(0.226261 0.0894081 0)
(0.240933 0.105682 0)
(0.2611 0.123219 0)
(0.28745 0.145838 0)
(0.32338 0.173119 0)
(0.380686 0.196167 0)
(0.467806 0.275056 0)
(0.192942 0.014872 0)
(0.218531 0.0506573 0)
(0.234131 0.0719693 0)
(0.25282 0.0857029 0)
(0.276722 0.098668 0)
(0.304874 0.112867 0)
(0.341765 0.126778 0)
(0.382102 0.131641 0)
(0.459697 0.159855 0)
(0.193792 0.00572275 0)
(0.222728 0.0327465 0)
(0.241233 0.0512045 0)
(0.261817 0.0629169 0)
(0.286822 0.0724927 0)
(0.314609 0.081228 0)
(0.347943 0.088355 0)
(0.382291 0.0876845 0)
(0.434128 0.0926005 0)
(0.195428 -0.00508078 0)
(0.228129 0.0138353 0)
(0.247363 0.0296531 0)
(0.267568 0.0396698 0)
(0.291834 0.046788 0)
(0.318101 0.052146 0)
(0.347342 0.055482 0)
(0.377256 0.0534381 0)
(0.412096 0.0500327 0)
(0.194172 -0.0270568 0)
(0.225031 -0.0116328 0)
(0.239127 0.00525761 0)
(0.256081 0.0157248 0)
(0.277805 0.0215784 0)
(0.3013 0.024889 0)
(0.326385 0.0263401 0)
(0.351575 0.0248038 0)
(0.376666 0.0213331 0)
(0.161491 -0.0215744 0)
(0.166385 -0.0133783 0)
(0.157414 -0.00361545 0)
(0.161184 0.002078 0)
(0.172271 0.00472101 0)
(0.186088 0.00589233 0)
(0.201269 0.00624306 0)
(0.216406 0.00565553 0)
(0.23028 0.00434379 0)
(0.437908 0.141425 0)
(0.32763 0.0149074 0)
(0.549946 0.070237 0)
(0.553465 -0.0539804 0)
(0.53024 0.0648199 0)
(0.53455 -0.0173865 0)
(0.478634 0.0403223 0)
(0.485121 -0.0135288 0)
(0.440954 0.023283 0)
(0.448247 -0.00631883 0)
(0.395743 0.0093218 0)
(0.40126 -0.0045945 0)
(0.23948 0.00107563 0)
(0.240565 -0.00243018 0)
(0.420238 -0.196444 0)
(0.381781 -0.252379 0)
(0.323646 -0.232844 0)
(0.286788 -0.181993 0)
(0.264542 -0.133706 0)
(0.251167 -0.0963572 0)
(0.243527 -0.067641 0)
(0.239421 -0.0444284 0)
(0.236974 -0.0238084 0)
(0.532226 -0.162854 0)
(0.44835 -0.185323 0)
(0.372149 -0.163926 0)
(0.325291 -0.134643 0)
(0.296686 -0.106446 0)
(0.278295 -0.0810711 0)
(0.266552 -0.0589329 0)
(0.25941 -0.0396865 0)
(0.254734 -0.0216167 0)
(0.496653 -0.0878577 0)
(0.438206 -0.11714 0)
(0.384776 -0.115143 0)
(0.345974 -0.100715 0)
(0.318503 -0.0828783 0)
(0.298748 -0.0649148 0)
(0.284912 -0.0481751 0)
(0.275864 -0.0330428 0)
(0.269615 -0.0182614 0)
(0.464256 -0.0549733 0)
(0.428018 -0.0751301 0)
(0.389658 -0.0772321 0)
(0.357363 -0.0701507 0)
(0.332023 -0.0594989 0)
(0.312517 -0.0477317 0)
(0.298021 -0.0360771 0)
(0.288033 -0.0251507 0)
(0.280843 -0.0141158 0)
(0.436476 -0.0301978 0)
(0.412871 -0.04376 0)
(0.385093 -0.0470379 0)
(0.358812 -0.0439846 0)
(0.336264 -0.0380144 0)
(0.317874 -0.0309189 0)
(0.303594 -0.0236275 0)
(0.293378 -0.016658 0)
(0.285818 -0.00952945 0)
(0.393377 -0.0155112 0)
(0.376157 -0.0215263 0)
(0.354636 -0.0228461 0)
(0.33302 -0.0211971 0)
(0.313628 -0.018194 0)
(0.297371 -0.0147244 0)
(0.284504 -0.0112271 0)
(0.275124 -0.00794043 0)
(0.268141 -0.00474579 0)
(0.233867 -0.00488441 0)
(0.222064 -0.0059548 0)
(0.208278 -0.00586468 0)
(0.194909 -0.00513919 0)
(0.183207 -0.00421175 0)
(0.173588 -0.00328394 0)
(0.166091 -0.00243168 0)
(0.160608 -0.00168787 0)
(0.156539 -0.00111098 0)
(0.000777154 -0.00115947 0)
(0.00888674 -0.0046612 0)
(0.0230098 -0.00527299 0)
(0.0359663 -0.004893 0)
(0.0473886 -0.00419713 0)
(0.05691 -0.00337366 0)
(0.0643295 -0.00251298 0)
(0.0696474 -0.00168136 0)
(0.0732668 -0.00105895 0)
(0.00323399 -0.00821163 0)
(0.0186517 -0.0207034 0)
(0.0421683 -0.0225956 0)
(0.0637018 -0.0208995 0)
(0.0825789 -0.0179631 0)
(0.0982749 -0.0145137 0)
(0.110511 -0.0108965 0)
(0.11925 -0.00731501 0)
(0.125095 -0.00422558 0)
(0.00319404 -0.0195976 0)
(0.0206543 -0.0440601 0)
(0.0479472 -0.0472921 0)
(0.0724234 -0.0434871 0)
(0.0935533 -0.0372028 0)
(0.110855 -0.0299591 0)
(0.124182 -0.022456 0)
(0.13363 -0.0150364 0)
(0.139948 -0.00834241 0)
(0.00185767 -0.0300465 0)
(0.020772 -0.0694844 0)
(0.052776 -0.0741384 0)
(0.0801109 -0.0675554 0)
(0.102956 -0.0571916 0)
(0.121042 -0.0456378 0)
(0.134588 -0.0339973 0)
(0.144024 -0.0226945 0)
(0.150279 -0.0124178 0)
(-0.000779537 -0.0397084 0)
(0.0201739 -0.099299 0)
(0.0603519 -0.105202 0)
(0.0916525 -0.094253 0)
(0.116416 -0.0783516 0)
(0.134954 -0.0615646 0)
(0.14821 -0.0453778 0)
(0.157189 -0.0301473 0)
(0.163039 -0.0163455 0)
(-0.00161054 -0.0502866 0)
(0.0222501 -0.135687 0)
(0.0743503 -0.142685 0)
(0.110035 -0.124326 0)
(0.136112 -0.100469 0)
(0.154109 -0.0771856 0)
(0.166108 -0.0560407 0)
(0.173905 -0.0369876 0)
(0.178852 -0.0198959 0)
(0.0214714 -0.0420301 0)
(0.0457365 -0.17886 0)
(0.104563 -0.188871 0)
(0.140775 -0.158065 0)
(0.164708 -0.122421 0)
(0.179532 -0.091128 0)
(0.188437 -0.0648746 0)
(0.193877 -0.0424734 0)
(0.197182 -0.0226874 0)
(0.114094 -0.14881 0)
(0.119498 -0.25139 0)
(0.172751 -0.241469 0)
(0.195419 -0.189898 0)
(0.206925 -0.139513 0)
(0.212375 -0.100186 0)
(0.214897 -0.0699076 0)
(0.216301 -0.0454724 0)
(0.217052 -0.0241944 0)
)
;

boundaryField
{
    inlet
    {
        type            fixedValue;
        value           uniform (0.2 0 0);
    }
    outlet
    {
        type            zeroGradient;
    }
    fixedWalls
    {
        type            fixedValue;
        value           uniform (0 0 0);
    }
    frontAndBack
    {
        type            empty;
    }
}


// ************************************************************************* //
