/*--------------------------------*- C++ -*----------------------------------*\
| =========                 |                                                 |
| \\      /  F ield         | OpenFOAM Extend Project: Open source CFD        |
|  \\    /   O peration     | Version:  1.6-ext                               |
|   \\  /    A nd           | Web:      www.extend-project.de                 |
|    \\/     M anipulation  |                                                 |
\*---------------------------------------------------------------------------*/
FoamFile
{
    version     2.0;
    format      ascii;
    class       volScalarField;
    location    "1.3";
    object      p;
}
// * * * * * * * * * * * * * * * * * * * * * * * * * * * * * * * * * * * * * //

dimensions      [0 2 -2 0 0 0 0];

internalField   nonuniform List<scalar> 
284
(
0.244429
0.212977
0.201513
0.19654
0.194535
0.194276
0.194876
0.195952
0.198297
0.215222
0.206293
0.200848
0.198242
0.197228
0.197234
0.197763
0.198554
0.201077
0.203528
0.200038
0.197367
0.196076
0.19587
0.196388
0.1972
0.198066
0.201111
0.194358
0.193202
0.192047
0.191647
0.191978
0.192778
0.193682
0.194471
0.197887
0.186922
0.186527
0.18599
0.185799
0.185998
0.186423
0.186737
0.186701
0.189821
0.180275
0.180077
0.179587
0.179015
0.178376
0.177551
0.176162
0.173784
0.174621
0.174065
0.173851
0.173074
0.171699
0.169595
0.166533
0.161794
0.153936
0.147528
0.16833
0.168012
0.166755
0.164298
0.160271
0.154191
0.144673
0.130179
0.0863063
0.163317
0.162855
0.161017
0.157348
0.151017
0.140657
0.120716
0.0831841
-0.00913423
0.159375
0.15872
0.156282
0.151603
0.143808
0.131662
0.111297
0.0801695
0.0286255
0.156927
0.155878
0.152729
0.147282
0.139001
0.127124
0.109975
0.0859941
0.054257
0.156364
0.154481
0.150222
0.143989
0.135579
0.124394
0.10969
0.0899473
0.0667754
0.159271
0.154829
0.148577
0.141313
0.132803
0.122341
0.10942
0.0927688
0.0741217
0.165799
0.156016
0.147183
0.139071
0.130714
0.121022
0.109371
0.0947888
0.0784098
0.194231
0.162466
0.148339
0.139385
0.131262
0.122254
0.111293
0.0974608
0.0815828
-0.140781
-0.11475
-0.0400311
-0.064464
0.00622497
-0.0218527
0.0354326
0.012021
0.0521404
0.0326077
0.0603823
0.0431354
0.064106
0.046405
-0.104172
-0.0870923
-0.0627608
-0.0374318
-0.0178786
-0.00610904
-0.000505326
0.00132413
0.000539395
-0.0711211
-0.0627933
-0.0448158
-0.0257984
-0.0114678
-0.00314212
0.000541902
0.00145421
0.000167861
-0.0321962
-0.0310945
-0.0229529
-0.0129781
-0.00511547
-0.000574598
0.00119611
0.00131923
-0.000191056
-0.00107189
-0.00626661
-0.00595583
-0.00319069
-0.000517382
0.000983987
0.00127988
0.000896708
-0.000522774
0.0184147
0.00959105
0.00492149
0.00285158
0.00195559
0.0013853
0.000791875
0.000246482
-0.000786908
0.0286795
0.0177051
0.0101287
0.005338
0.00250148
0.000893621
-7.20192e-06
-0.000446051
-0.000923807
0.0306312
0.0180029
0.00897581
0.00329096
0.000169215
-0.00128224
-0.00177405
-0.00171758
-0.00132764
-0.0193878
-0.0180374
-0.0145541
-0.0102443
-0.00611238
-0.002763
-0.000461444
0.000814449
0.0012521
-0.0207717
-0.019703
-0.0164069
-0.0120874
-0.00777633
-0.00415965
-0.00156244
3.30426e-05
0.000975013
-0.024153
-0.0228903
-0.0190415
-0.0139095
-0.00887664
-0.00472579
-0.00179522
-3.19033e-05
0.00106183
-0.0299239
-0.0283457
-0.0234133
-0.0167455
-0.0104248
-0.00535629
-0.00191083
4.887e-05
0.00116736
-0.0393354
-0.0368466
-0.030299
-0.0210783
-0.0126354
-0.00612646
-0.0019413
0.000249619
0.00125406
-0.0544942
-0.0499516
-0.0402799
-0.027225
-0.0155534
-0.00700227
-0.00187825
0.000543934
0.00128028
-0.0736225
-0.0647478
-0.0520686
-0.0343136
-0.0186336
-0.00775038
-0.00170834
0.00084736
0.0011766
-0.113435
-0.08625
-0.0638518
-0.0399455
-0.0203299
-0.00775012
-0.00131962
0.00109887
0.000908496
)
;

boundaryField
{
    inlet
    {
        type            zeroGradient;
    }
    outlet
    {
        type            totalPressure;
        rho             none;
        psi             none;
        gamma           1;
        p0              uniform 0;
        value           uniform 0;
    }
    fixedWalls
    {
        type            zeroGradient;
    }
    frontAndBack
    {
        type            empty;
    }
}


// ************************************************************************* //
