/*--------------------------------*- C++ -*----------------------------------*\
| =========                 |                                                 |
| \\      /  F ield         | OpenFOAM Extend Project: Open source CFD        |
|  \\    /   O peration     | Version:  1.6-ext                               |
|   \\  /    A nd           | Web:      www.extend-project.de                 |
|    \\/     M anipulation  |                                                 |
\*---------------------------------------------------------------------------*/
FoamFile
{
    version     2.0;
    format      ascii;
    class       surfaceScalarField;
    location    "1.3";
    object      phi;
}
// * * * * * * * * * * * * * * * * * * * * * * * * * * * * * * * * * * * * * //

dimensions      [0 3 -1 0 0 0 0];

internalField   nonuniform List<scalar> 
525
(
0.000161109
3.88915e-05
0.000118309
4.27992e-05
8.43699e-05
3.39394e-05
5.9312e-05
2.50579e-05
4.0769e-05
1.85431e-05
2.58286e-05
1.49404e-05
1.28064e-05
1.30222e-05
2.75074e-06
1.00556e-05
2.75074e-06
0.000205272
3.36196e-05
0.000191468
5.66034e-05
0.000165146
6.02606e-05
0.000134278
5.59265e-05
0.000102665
5.01556e-05
7.13678e-05
4.62379e-05
4.07655e-05
4.36246e-05
1.38696e-05
3.69515e-05
1.66204e-05
0.000208798
2.48213e-05
0.000207735
5.76663e-05
0.00019305
7.49463e-05
0.000167613
8.13629e-05
0.000135287
8.24821e-05
9.86323e-05
8.28925e-05
5.94005e-05
8.28564e-05
2.20482e-05
7.43038e-05
3.86686e-05
0.00020509
1.97313e-05
0.000206751
5.60056e-05
0.000198153
8.35443e-05
0.000178633
0.000100883
0.00014994
0.000111175
0.000113803
0.000119029
7.16298e-05
0.00012503
2.81059e-05
0.000117828
6.67745e-05
0.000202441
1.72906e-05
0.00020371
5.47358e-05
0.000198176
8.9079e-05
0.000183549
0.00011551
0.000159683
0.00013504
0.000126716
0.000151997
8.44165e-05
0.00016733
3.58342e-05
0.00016641
0.000102609
0.000201402
1.58889e-05
0.000202807
5.33304e-05
0.000200092
9.17936e-05
0.00019049
0.000125112
0.000172567
0.000152963
0.000144857
0.000179707
0.000104607
0.000207579
5.04259e-05
0.000220591
0.000153035
0.000201423
1.44662e-05
0.000204272
5.04811e-05
0.000205464
9.0602e-05
0.000202213
0.000128363
0.000192469
0.000162707
0.000174018
0.000198158
0.000140641
0.000240956
8.1624e-05
0.000279608
0.000234659
0.000202025
1.24413e-05
0.000207393
4.51134e-05
0.000213745
8.42498e-05
0.000218533
0.000123574
0.000219575
0.000161665
0.000214355
0.000203378
0.000192984
0.000262328
0.000133601
0.000338991
0.000368259
0.000202928
9.51298e-06
0.000211392
3.66495e-05
0.000223588
7.20546e-05
0.000237692
0.00010947
0.000253599
0.000145758
0.000274315
0.000182662
0.000309558
0.000227084
0.000378473
0.000270076
0.000334862
0.00041187
0.000204102
5.41107e-06
0.000215769
2.49827e-05
0.000233241
5.45819e-05
0.000255039
8.76727e-05
0.00028177
0.000119028
0.000316721
0.00014771
0.000365003
0.000178803
0.000443878
0.000191201
0.000248564
0.000530177
0.000205957
-5.45848e-07
0.000220806
1.01336e-05
0.000242056
3.33318e-05
0.000268212
6.1517e-05
0.000299383
8.78566e-05
0.000337444
0.000109649
0.000385044
0.000131203
0.000445781
0.000130464
0.000157847
0.000536498
0.000209088
-9.63355e-06
0.000227072
-7.85069e-06
0.000249923
1.04809e-05
0.000276982
3.44577e-05
0.000308417
5.64223e-05
0.000345191
7.28745e-05
0.000389548
8.68456e-05
0.000436735
8.32767e-05
9.05638e-05
0.000504018
0.000213903
-2.35361e-05
0.000231684
-2.56321e-05
0.000251437
-9.27244e-06
0.000274891
1.10041e-05
0.000303075
2.82382e-05
0.000336128
3.98213e-05
0.000375215
4.77591e-05
0.000413371
4.51203e-05
4.44237e-05
0.000459511
0.000211151
-3.46867e-05
0.000216559
-3.104e-05
0.00022325
-1.59638e-05
0.000236296
-2.04177e-06
0.000256838
7.69628e-06
0.000283227
1.34319e-05
0.000314437
1.6549e-05
0.000344339
1.52182e-05
1.36535e-05
0.000375109
0.000165313
0.000134273
0.000118309
0.000116268
0.000123964
0.000137396
0.000153945
0.000169163
0.000182817
0.00027646
0.00013541
3.25166e-05
0.000243943
0.000523281
0.000142306
4.57963e-05
0.000510001
0.000572367
0.000106437
3.94198e-05
0.000578743
0.000545479
6.49763e-05
2.25168e-05
0.000562382
0.000494075
3.04127e-05
6.06945e-06
0.000510522
0.000397686
7.83638e-06
-2.00264e-06
0.000405758
0.000190653
0.00018865
0.000271311
-5.57321e-05
2.83647e-05
0.000300956
-0.000134982
0.000105337
0.000314452
-0.000191937
0.000178441
0.000313033
-0.000211241
0.00021266
0.000303546
-0.00019766
0.000207146
0.00029208
-0.000166585
0.000178052
0.00028212
-0.000131117
0.000141077
0.00027512
-9.87599e-05
0.000105759
-6.80495e-05
7.22771e-05
0.000494202
-3.99328e-05
0.000474395
-0.000115175
0.000444691
-0.000162233
0.000408582
-0.000175131
0.000373185
-0.000162262
0.000343368
-0.000136769
0.000320652
-0.0001084
0.00030467
-8.27778e-05
-5.80661e-05
0.000566502
-2.76918e-05
0.000536862
-8.55348e-05
0.000495123
-0.000120494
0.000449508
-0.000129517
0.000407057
-0.000119812
0.000371501
-0.000101213
0.000343809
-8.07084e-05
0.000323366
-6.23342e-05
-4.46961e-05
0.000557637
-2.29468e-05
0.000532944
-6.08417e-05
0.000495037
-8.25871e-05
0.000452353
-8.68328e-05
0.000411561
-7.90189e-05
0.000376329
-6.59807e-05
0.000347991
-5.2371e-05
0.000326248
-4.0591e-05
-2.99718e-05
0.000507042
-1.94672e-05
0.000485713
-3.95119e-05
0.000452283
-4.91577e-05
0.000414365
-4.89147e-05
0.000377998
-4.26518e-05
0.000346456
-3.44383e-05
0.000320874
-2.67892e-05
0.000300949
-2.0666e-05
-1.60995e-05
0.000397516
-1.12255e-05
0.000375262
-1.72574e-05
0.000344979
-1.88754e-05
0.000313122
-1.70577e-05
0.000284174
-1.3703e-05
0.000260079
-1.03433e-05
0.000241017
-7.7277e-06
0.000226336
-5.98491e-06
-5.45133e-06
0.000177425
0.000160167
0.000141292
0.000124234
0.000110531
0.000100188
9.24603e-05
8.64754e-05
-4.11723e-06
4.11723e-06
-5.4063e-06
1.28908e-06
-1.61147e-06
-3.79483e-06
5.53748e-06
-7.14896e-06
1.41734e-05
-8.63591e-06
2.27664e-05
-8.59305e-06
3.0373e-05
-7.60653e-06
3.66252e-05
-6.2522e-06
-5.36336e-06
-3.55752e-06
7.67475e-06
-1.18658e-06
-1.08187e-06
9.51065e-06
-1.44921e-05
2.58802e-05
-2.35185e-05
4.42835e-05
-2.70392e-05
6.2018e-05
-2.63275e-05
7.74212e-05
-2.30097e-05
8.96311e-05
-1.84621e-05
-1.4342e-05
-4.43573e-06
1.21105e-05
-6.89675e-07
-4.82793e-06
1.40329e-05
-2.92147e-05
3.61612e-05
-4.56467e-05
6.06194e-05
-5.14975e-05
8.37753e-05
-4.94834e-05
0.000103579
-4.28137e-05
0.000119085
-3.39679e-05
-2.534e-05
-7.97869e-06
2.00892e-05
-5.27177e-06
-7.53484e-06
1.23692e-05
-4.68556e-05
3.95551e-05
-7.28326e-05
6.92576e-05
-8.11999e-05
9.66824e-05
-7.69083e-05
0.000119515
-6.56459e-05
0.000137038
-5.14914e-05
-3.74396e-05
-1.24639e-05
3.2553e-05
-9.77452e-06
-1.02242e-05
1.19876e-05
-6.86177e-05
4.48756e-05
-0.000105721
7.98053e-05
-0.00011613
0.00011087
-0.000107973
0.000135752
-9.05279e-05
0.0001543
-7.0039e-05
-4.98151e-05
-1.27991e-05
4.53521e-05
-3.34216e-06
-1.96811e-05
2.57754e-05
-9.77353e-05
6.39609e-05
-0.000143906
0.000101875
-0.000154043
0.000133941
-0.000140039
0.000158488
-0.000115075
0.000176213
-8.77642e-05
-6.12055e-05
7.49238e-06
3.78597e-05
3.53471e-05
-4.75359e-05
7.31377e-05
-0.000135526
0.000111744
-0.000182512
0.000145673
-0.000187972
0.000172179
-0.000166546
0.000191317
-0.000134212
0.00020473
-0.000101178
-6.95281e-05
6.62245e-05
0.000124025
0.00016694
0.000197088
0.000216262
0.000227767
0.000234632
0.000239213
)
;

boundaryField
{
    inlet
    {
        type            calculated;
        value           uniform -0.0002;
    }
    outlet
    {
        type            calculated;
        value           nonuniform List<scalar> 
15
(
4.19885e-05
9.86097e-05
0.000130083
0.000149138
0.000166676
0.000187604
0.000213053
0.000241962
0.000270892
0.000294687
0.000309996
0.000311524
0.000287077
0.000215688
8.10241e-05
)
;
    }
    fixedWalls
    {
        type            calculated;
        value           uniform 0;
    }
    frontAndBack
    {
        type            empty;
    }
}


// ************************************************************************* //
