/*--------------------------------*- C++ -*----------------------------------*\
| =========                 |                                                 |
| \\      /  F ield         | OpenFOAM Extend Project: Open source CFD        |
|  \\    /   O peration     | Version:  1.6-ext                               |
|   \\  /    A nd           | Web:      www.extend-project.de                 |
|    \\/     M anipulation  |                                                 |
\*---------------------------------------------------------------------------*/
FoamFile
{
    version     2.0;
    format      ascii;
    class       volVectorField;
    location    "1.3";
    object      U;
}
// * * * * * * * * * * * * * * * * * * * * * * * * * * * * * * * * * * * * * //

dimensions      [0 1 -1 0 0 0 0];

internalField   nonuniform List<vector> 
284
(
(0.163777 0.0264968 0)
(0.142358 0.0263665 0)
(0.100722 0.0184683 0)
(0.0703158 0.0114067 0)
(0.0492211 0.00682151 0)
(0.0329674 0.00450835 0)
(0.0189875 0.0034074 0)
(0.00614308 0.00207783 0)
(-1.75248e-06 -0.000659062 0)
(0.200618 0.0429384 0)
(0.202657 0.0561758 0)
(0.181123 0.0506737 0)
(0.150478 0.040834 0)
(0.118633 0.0323784 0)
(0.0872009 0.0273131 0)
(0.0558282 0.0244072 0)
(0.0245814 0.0195279 0)
(0.00460437 0.0069669 0)
(0.203136 0.0284128 0)
(0.211142 0.0579743 0)
(0.203874 0.0690108 0)
(0.182628 0.0697746 0)
(0.152888 0.0667462 0)
(0.118099 0.0642404 0)
(0.0794449 0.0622567 0)
(0.0377672 0.0541932 0)
(0.00828806 0.0265407 0)
(0.201563 0.02172 0)
(0.207462 0.0566515 0)
(0.205374 0.0798692 0)
(0.191032 0.0921214 0)
(0.166392 0.0977199 0)
(0.133819 0.101458 0)
(0.0940367 0.103876 0)
(0.0472242 0.0953302 0)
(0.0113345 0.0517941 0)
(0.200591 0.0182845 0)
(0.203902 0.0552779 0)
(0.203132 0.086788 0)
(0.19324 0.109121 0)
(0.173912 0.124148 0)
(0.145754 0.136342 0)
(0.107947 0.146408 0)
(0.0583933 0.141282 0)
(0.0159097 0.0833006 0)
(0.200237 0.0165307 0)
(0.202517 0.0541726 0)
(0.202998 0.091082 0)
(0.19723 0.121442 0)
(0.183763 0.145407 0)
(0.161737 0.167272 0)
(0.128442 0.188524 0)
(0.0777638 0.193333 0)
(0.0253275 0.124928 0)
(0.200193 0.0152103 0)
(0.202868 0.0522804 0)
(0.205833 0.0921365 0)
(0.20528 0.128254 0)
(0.199293 0.159827 0)
(0.186414 0.191248 0)
(0.163081 0.225507 0)
(0.114761 0.244839 0)
(0.0454429 0.190901 0)
(0.200286 0.0135447 0)
(0.204256 0.0483434 0)
(0.210919 0.0886093 0)
(0.217006 0.12785 0)
(0.220481 0.164886 0)
(0.220118 0.204945 0)
(0.209793 0.260191 0)
(0.188207 0.326261 0)
(0.0596712 0.2791 0)
(0.200447 0.0111117 0)
(0.206184 0.0415126 0)
(0.2172 0.0794068 0)
(0.2309 0.118459 0)
(0.245824 0.156509 0)
(0.266147 0.197242 0)
(0.288653 0.252166 0)
(0.349156 0.324094 0)
(0.396518 0.409513 0)
(0.200693 0.00766839 0)
(0.208486 0.0314957 0)
(0.223659 0.0644735 0)
(0.2438 0.100193 0)
(0.267506 0.134565 0)
(0.299683 0.168121 0)
(0.336245 0.207193 0)
(0.401693 0.233057 0)
(0.483017 0.303291 0)
(0.20119 0.00295047 0)
(0.211642 0.0183083 0)
(0.230318 0.0448371 0)
(0.254435 0.0755722 0)
(0.282756 0.104509 0)
(0.317752 0.129614 0)
(0.358852 0.155479 0)
(0.411886 0.156234 0)
(0.487421 0.193866 0)
(0.202192 -0.00423522 0)
(0.216386 0.00171237 0)
(0.237472 0.0220232 0)
(0.262687 0.0479158 0)
(0.291882 0.0719805 0)
(0.325705 0.0908164 0)
(0.366339 0.107952 0)
(0.410703 0.10387 0)
(0.467529 0.116393 0)
(0.203898 -0.0150968 0)
(0.221742 -0.0169642 0)
(0.240906 -0.000612353 0)
(0.262353 0.0213197 0)
(0.288177 0.0409784 0)
(0.318453 0.0550253 0)
(0.355121 0.0656074 0)
(0.393225 0.0624314 0)
(0.435191 0.0630066 0)
(0.201465 -0.0359628 0)
(0.214241 -0.0362224 0)
(0.219347 -0.0187755 0)
(0.228399 -0.000230602 0)
(0.24534 0.0143006 0)
(0.268898 0.0233711 0)
(0.298484 0.0286494 0)
(0.328968 0.0267347 0)
(0.359689 0.0245071 0)
(0.164378 -0.0251272 0)
(0.150412 -0.0222363 0)
(0.124546 -0.0117494 0)
(0.115039 -0.00337165 0)
(0.118815 0.0020504 0)
(0.12997 0.00481335 0)
(0.145522 0.00590125 0)
(0.161544 0.00497621 0)
(0.176451 0.00371177 0)
(0.372157 0.155909 0)
(0.223251 0.0316795 0)
(0.546296 0.144409 0)
(0.517614 0.0423174 0)
(0.563302 0.126477 0)
(0.583754 0.0498946 0)
(0.52812 0.0831483 0)
(0.560292 0.0311045 0)
(0.478342 0.0442255 0)
(0.506648 0.0124152 0)
(0.388025 0.0147079 0)
(0.405071 -0.00105828 0)
(0.188015 0.00055636 0)
(0.19146 -0.00354475 0)
(0.252665 -0.0586496 0)
(0.292529 -0.135082 0)
(0.316014 -0.196226 0)
(0.317677 -0.220545 0)
(0.308201 -0.209483 0)
(0.296362 -0.177905 0)
(0.285447 -0.140205 0)
(0.277688 -0.105142 0)
(0.270631 -0.0719679 0)
(0.503923 -0.0465172 0)
(0.491695 -0.12587 0)
(0.465645 -0.179457 0)
(0.427861 -0.196218 0)
(0.388807 -0.182791 0)
(0.355543 -0.154013 0)
(0.329404 -0.121641 0)
(0.311349 -0.0923152 0)
(0.295458 -0.0641668 0)
(0.579773 -0.0286875 0)
(0.558891 -0.0973858 0)
(0.520597 -0.139634 0)
(0.4729 -0.151282 0)
(0.426324 -0.140563 0)
(0.386791 -0.119043 0)
(0.355122 -0.0949795 0)
(0.33247 -0.0731882 0)
(0.311443 -0.0519619 0)
(0.56698 -0.0249931 0)
(0.551572 -0.0726219 0)
(0.517907 -0.100592 0)
(0.474606 -0.107167 0)
(0.430792 -0.0986504 0)
(0.392106 -0.0831611 0)
(0.360018 -0.066384 0)
(0.336295 -0.0515109 0)
(0.313372 -0.0374632 0)
(0.514407 -0.0222807 0)
(0.501391 -0.0503221 0)
(0.472015 -0.0651881 0)
(0.434105 -0.0667479 0)
(0.395405 -0.0596011 0)
(0.360848 -0.049051 0)
(0.331972 -0.0385984 0)
(0.310273 -0.0298483 0)
(0.289052 -0.0225483 0)
(0.405642 -0.0172676 0)
(0.389643 -0.0285197 0)
(0.361803 -0.0324414 0)
(0.329191 -0.0302299 0)
(0.297846 -0.0249181 0)
(0.271016 -0.0191889 0)
(0.249372 -0.0144662 0)
(0.233129 -0.0110739 0)
(0.217502 -0.00936617 0)
(0.184725 -0.00684278 0)
(0.169796 -0.0081729 0)
(0.150938 -0.00755491 0)
(0.132418 -0.00587028 0)
(0.116823 -0.00406733 0)
(0.104816 -0.00267853 0)
(0.0958842 -0.00184584 0)
(0.0891853 -0.00150845 0)
(0.082398 -0.00185317 0)
(-0.00258177 0.00231711 0)
(-0.00586352 0.00147591 0)
(-0.00450087 -0.000603723 0)
(0.00146833 -0.00197011 0)
(0.00984137 -0.00265645 0)
(0.0186546 -0.00274764 0)
(0.0268078 -0.00248221 0)
(0.0337885 -0.00212852 0)
(0.0406583 -0.00207681 0)
(-0.0028526 0.00608316 0)
(-0.00463967 0.00101426 0)
(0.00245872 -0.00736845 0)
(0.0170836 -0.0130243 0)
(0.0351614 -0.0154297 0)
(0.0536058 -0.0152409 0)
(0.0703187 -0.0134347 0)
(0.0841734 -0.0109238 0)
(0.0967708 -0.00896047 0)
(-0.00367555 0.00951042 0)
(-0.00565635 -0.00295462 0)
(0.00440548 -0.0209589 0)
(0.02434 -0.0332406 0)
(0.0485643 -0.0379052 0)
(0.0728578 -0.0367566 0)
(0.0945252 -0.0320364 0)
(0.112143 -0.0255838 0)
(0.127973 -0.0194523 0)
(-0.00591211 0.0153263 0)
(-0.010673 -0.00624405 0)
(0.00065514 -0.0369145 0)
(0.0250221 -0.0577234 0)
(0.0547552 -0.0649842 0)
(0.0838893 -0.0622002 0)
(0.10919 -0.0535946 0)
(0.129215 -0.0423439 0)
(0.146864 -0.0312052 0)
(-0.00900021 0.0258954 0)
(-0.0166016 -0.00811482 0)
(-0.00226202 -0.0561947 0)
(0.0275213 -0.0876857 0)
(0.063019 -0.0974433 0)
(0.0965802 -0.091686 0)
(0.124649 -0.0777144 0)
(0.146082 -0.0606102 0)
(0.164333 -0.0436343 0)
(-0.0104629 0.0381157 0)
(-0.0149918 -0.0134631 0)
(0.0087382 -0.0820304 0)
(0.0448888 -0.124452 0)
(0.0840699 -0.135248 0)
(0.119344 -0.124419 0)
(0.147615 -0.103307 0)
(0.168393 -0.0793616 0)
(0.185333 -0.0559182 0)
(0.000759209 0.057715 0)
(0.0154839 -0.0238879 0)
(0.05553 -0.115253 0)
(0.0946593 -0.165419 0)
(0.130351 -0.174095 0)
(0.160112 -0.15609 0)
(0.182718 -0.126852 0)
(0.198719 -0.0960629 0)
(0.211097 -0.066441 0)
(0.0485628 0.00749746 0)
(0.0929753 -0.0786453 0)
(0.151089 -0.162964 0)
(0.18688 -0.204497 0)
(0.208339 -0.204115 0)
(0.222258 -0.177702 0)
(0.231068 -0.141675 0)
(0.236863 -0.106267 0)
(0.240675 -0.07266 0)
)
;

boundaryField
{
    inlet
    {
        type            fixedValue;
        value           uniform (0.2 0 0);
    }
    outlet
    {
        type            zeroGradient;
    }
    fixedWalls
    {
        type            fixedValue;
        value           uniform (0 0 0);
    }
    frontAndBack
    {
        type            empty;
    }
}


// ************************************************************************* //
