/*--------------------------------*- C++ -*----------------------------------*\
| =========                 |                                                 |
| \\      /  F ield         | OpenFOAM Extend Project: Open source CFD        |
|  \\    /   O peration     | Version:  1.6-ext                               |
|   \\  /    A nd           | Web:      www.extend-project.de                 |
|    \\/     M anipulation  |                                                 |
\*---------------------------------------------------------------------------*/
FoamFile
{
    version     2.0;
    format      ascii;
    class       volSymmTensorField;
    location    "0.95";
    object      DSigma;
}
// * * * * * * * * * * * * * * * * * * * * * * * * * * * * * * * * * * * * * //

dimensions      [1 -1 -2 0 0 0 0];

internalField   nonuniform List<symmTensor> 
328
(
(0.0539533 0.0102404 -4.35595e-24 0.0192275 -2.54366e-21 0.0292723)
(0.0399787 0.00479067 -7.92953e-25 0.0221576 -5.22857e-25 0.0248545)
(0.035395 -0.00278871 2.13516e-26 0.0201667 2.5858e-27 0.0222247)
(0.0333076 -0.00668417 8.04487e-24 0.0117821 2.89341e-22 0.0180359)
(0.0502858 0.00725907 9.7702e-24 0.0118592 -2.10425e-20 0.024858)
(0.0400256 0.00450933 7.19456e-25 0.0150499 4.85109e-25 0.0220302)
(0.0355038 -0.0018066 5.40886e-24 0.0144842 -1.5218e-24 0.0199952)
(0.0309608 -0.00447329 7.36751e-24 0.00675933 -4.05522e-20 0.0150881)
(0.0491546 0.00482719 -2.54423e-23 0.00753834 -1.67007e-20 0.0226772)
(0.0422232 0.00404195 1.0376e-23 0.0110447 6.06188e-24 0.0213072)
(0.0374029 -0.000850553 -5.2871e-24 0.0110977 1.68163e-24 0.0194002)
(0.0304887 -0.00257617 -4.87339e-24 0.00377391 1.73364e-20 0.013705)
(0.047713 0.00309754 2.03573e-23 0.0045468 1.65129e-20 0.0209039)
(0.042695 0.00343893 -3.96625e-23 0.00736767 -2.1568e-23 0.0200251)
(0.0379841 4.8509e-05 2.73902e-23 0.00790303 -3.65288e-24 0.0183549)
(0.0299476 -0.00118438 -7.10718e-25 0.00169561 3.49058e-21 0.0126573)
(0.0469011 0.00195971 1.11265e-25 0.00279855 -4.038e-22 0.0198799)
(0.0432615 0.002854 -9.79026e-24 0.00492434 -4.16821e-24 0.0192743)
(0.0386597 0.000783659 -1.97176e-23 0.00567766 1.53192e-24 0.017735)
(0.0299688 -0.000246199 5.56761e-24 0.000491824 -1.8842e-20 0.0121842)
(0.046229 0.00123916 -5.41679e-25 0.00174109 1.65974e-21 0.019188)
(0.043298 0.00235869 1.22191e-22 0.00305311 6.05232e-23 0.0185404)
(0.038918 0.00134561 0 0.00392844 0 0.0171386)
(0.030199 0.000359309 -7.63883e-23 -0.000211657 1.78177e-20 0.011995)
(0.0457628 0.000813931 -1.42276e-23 0.00116337 1.61715e-20 0.0187705)
(0.0432092 0.00198785 -8.22348e-23 0.00179978 -4.01561e-23 0.0180036)
(0.0390754 0.00172853 0 0.00270862 0 0.0167136)
(0.0306694 0.000719828 7.02968e-23 -0.000555685 -1.57754e-21 0.0120455)
(0.0453752 0.000584137 2.11407e-23 0.000859053 -4.61766e-20 0.0184937)
(0.0429368 0.00173809 0 0.000946728 0 0.0175534)
(0.0390851 0.00195892 0 0.00184814 0 0.0163733)
(0.0312759 0.000911701 -5.77961e-24 -0.000685044 1.25088e-20 0.0122363)
(0.0450308 0.00048115 8.75799e-24 0.000717514 1.38162e-20 0.0182993)
(0.042597 0.0015914 -1.61287e-23 0.000421688 -9.28369e-24 0.0172075)
(0.0390433 0.00206621 0 0.00128613 0 0.0161318)
(0.0319813 0.000989791 5.84847e-24 -0.000679377 -1.09216e-20 0.0125208)
(0.0446774 0.000454058 -3.63898e-22 0.000659738 9.4313e-21 0.0181348)
(0.0422102 0.00152035 6.60387e-23 0.000120369 2.96828e-23 0.0169322)
(0.0389708 0.00208473 2.19307e-22 0.00093185 4.58219e-23 0.015961)
(0.0327383 0.000996717 2.18401e-23 -0.000598307 1.33419e-21 0.012856)
(0.044287 0.000468165 -6.04618e-23 0.000640271 2.49304e-20 0.0179709)
(0.0418175 0.00149783 0 -2.18483e-05 0 0.0167183)
(0.0389045 0.00204438 -2.33233e-22 0.000725307 -5.23022e-23 0.0158519)
(0.0335192 0.000962691 -8.37142e-24 -0.000477801 1.1944e-20 0.0132166)
(0.0438387 0.000499665 3.44002e-22 0.000630892 -2.92403e-20 0.0177878)
(0.0414337 0.00149994 0 -6.27238e-05 0 0.0165484)
(0.0388595 0.00196997 0 0.000612381 0 0.0157888)
(0.0343031 0.000909032 -1.77856e-23 -0.000341396 -1.1639e-20 0.0135847)
(0.0433229 0.000533538 2.86403e-22 0.000616335 -1.19785e-21 0.0175757)
(0.0410703 0.00150854 -7.65216e-23 -4.19786e-05 -3.00347e-23 0.0164113)
(0.0388466 0.00187923 8.38521e-24 0.000554876 1.34082e-23 0.0157606)
(0.035079 0.000849397 1.24776e-22 -0.000202581 1.89173e-21 0.0139506)
(0.0427369 0.000560975 -7.67572e-22 0.000589025 5.97431e-21 0.0173304)
(0.0407286 0.00151124 -4.48944e-22 1.13094e-05 -2.17351e-22 0.016296)
(0.0388672 0.00178353 -7.22873e-23 0.000524856 -2.07738e-23 0.0157568)
(0.0358415 0.000791719 2.42416e-23 -6.85776e-05 -1.45751e-20 0.0143092)
(0.042084 0.000577699 -2.26723e-22 0.000546533 -5.03909e-22 0.0170522)
(0.0404064 0.00150075 5.21518e-22 7.87284e-05 2.56947e-22 0.0161941)
(0.0389183 0.00168862 -3.40906e-22 0.000504661 -1.33842e-22 0.0157692)
(0.0365895 0.000739587 -3.28485e-22 5.77449e-05 2.03799e-20 0.0146589)
(0.0413712 0.000582365 -6.7876e-22 0.00048947 3.06217e-21 0.0167443)
(0.040098 0.00147363 7.77082e-22 0.000149281 3.86982e-22 0.0160989)
(0.0389933 0.00159617 8.69263e-22 0.000484046 3.64572e-22 0.0157909)
(0.0373234 0.000693667 5.92177e-22 0.000176077 -4.24555e-21 0.0149998)
(0.0406077 0.000575368 1.36006e-22 0.000420167 -1.19037e-20 0.0164111)
(0.0397971 0.00142891 -9.23554e-22 0.000217507 -4.6765e-22 0.0160058)
(0.0390837 0.00150509 -1.56979e-21 0.000458327 -6.68515e-22 0.0158168)
(0.0380433 0.000652833 -5.22103e-22 0.000287418 1.1327e-20 0.0153323)
(0.0398039 0.000557892 8.03587e-22 0.00034173 4.08529e-21 0.0160583)
(0.0394972 0.00136694 -8.24909e-22 0.000281326 -4.2982e-22 0.0159114)
(0.0391806 0.00141283 1.03751e-21 0.000426356 4.48987e-22 0.0158428)
(0.0387472 0.0006151 2.99131e-22 0.000393127 -1.29155e-20 0.0156561)
(0.0389714 0.000531305 1.10395e-23 0.000257516 1.25132e-20 0.0156916)
(0.0391934 0.00128858 2.03265e-21 0.000340502 1.08005e-21 0.0158136)
(0.0392749 0.00131629 1.15148e-21 0.000388966 5.35817e-22 0.0158656)
(0.0394303 0.000578273 -6.00252e-23 0.000494219 1.80575e-20 0.0159698)
(0.0381223 0.000496796 -4.35629e-22 0.00017074 -1.1216e-20 0.0153172)
(0.0388821 0.00119459 -1.25187e-21 0.000395479 -6.79544e-22 0.015711)
(0.0393579 0.00121247 -1.13689e-21 0.000348024 -5.5619e-22 0.0158824)
(0.0400838 0.000540354 8.61974e-25 0.000591212 -4.97652e-22 0.01627)
(0.0372707 0.000455281 1.76372e-21 8.46758e-05 1.2141e-20 0.0149421)
(0.0385613 0.00108572 -9.167e-25 0.00044662 -2.8989e-25 0.0156032)
(0.0394204 0.00109906 -1.51256e-23 0.000305408 8.93002e-24 0.0158903)
(0.0406937 0.000499807 -4.76699e-27 0.000683331 2.53879e-24 0.0165508)
(0.0364296 0.000407215 -8.59134e-22 1.77802e-06 -1.0307e-20 0.0145725)
(0.0382301 0.000961888 5.83109e-23 0.000493913 4.95502e-23 0.0154896)
(0.0394544 0.000973772 7.78512e-22 0.000263798 3.89067e-22 0.0158873)
(0.0412458 0.000455241 8.04161e-22 0.000770616 5.48654e-21 0.0168066)
(0.0355937 0.000349432 -1.72073e-21 -7.50565e-05 2.59606e-21 0.0142075)
(0.0378774 0.000815872 1.6286e-21 0.000538871 8.88615e-22 0.0153665)
(0.039447 0.000828057 -1.56206e-21 0.000221638 -7.89136e-22 0.0158674)
(0.041725 0.000402994 -6.57932e-22 0.000849577 -6.44748e-21 0.0170298)
(0.0348132 0.000289983 3.71416e-21 -0.000140343 2.73057e-21 0.0138691)
(0.0375166 0.000665352 0 0.000578284 0 0.015238)
(0.0393877 0.000678798 0 0.000185405 0 0.0158293)
(0.0420868 0.000350358 1.73903e-21 0.000917867 4.02263e-22 0.0172019)
(0.0341494 0.000229847 1.21161e-22 -0.000189176 5.19996e-21 0.0135841)
(0.0371732 0.000513413 -1.99065e-21 0.000608594 -1.04821e-21 0.0151127)
(0.0392733 0.000528389 0 0.000157411 0 0.0157723)
(0.0422925 0.000296973 -1.71795e-21 0.000969374 -8.7641e-21 0.0173047)
(0.033603 0.000169925 -4.1924e-21 -0.000220519 -5.90948e-21 0.013353)
(0.0368468 0.000362414 -1.42624e-22 0.000630522 -4.35136e-23 0.0149909)
(0.0391048 0.000378906 2.0028e-21 0.000137957 9.2269e-22 0.0156971)
(0.0423434 0.00024345 -2.01609e-21 0.00100372 3.96875e-21 0.0173388)
(0.0331721 0.000111382 6.69984e-21 -0.000234371 -2.32694e-21 0.0131751)
(0.0365368 0.000214857 2.10451e-21 0.000644323 9.98876e-22 0.0148724)
(0.0388826 0.000232717 -2.18988e-21 0.00012671 -1.06195e-21 0.0156037)
(0.0422412 0.000190782 1.0624e-22 0.00102084 -3.25637e-21 0.0173048)
(0.0328525 5.53096e-05 3.10102e-23 -0.000231234 8.36307e-21 0.0130485)
(0.0362421 7.33042e-05 -2.35389e-21 0.000650328 -1.17894e-21 0.014757)
(0.0386081 9.23163e-05 2.40202e-21 0.000123481 1.04523e-21 0.0154926)
(0.0419906 0.000139941 -4.47523e-21 0.00102128 -1.87281e-20 0.0172048)
(0.0326378 2.71111e-06 2.50281e-21 -0.000211927 -3.55416e-21 0.0129703)
(0.0359612 -5.98248e-05 -2.56132e-21 0.000648952 -1.23791e-21 0.0146441)
(0.0382829 -3.99077e-05 -7.3562e-21 0.000127893 -3.14439e-21 0.0153643)
(0.0415981 9.18628e-05 8.17358e-23 0.00100587 -2.37207e-20 0.0170416)
(0.0325198 -4.54834e-05 2.11712e-26 -0.000177522 -6.48771e-24 0.0129369)
(0.0356919 -0.000182242 7.87119e-21 0.00064075 3.38614e-21 0.0145331)
(0.0379096 -0.000161687 2.53683e-24 0.000139459 -9.83112e-23 0.0152196)
(0.0410723 4.74346e-05 -2.64173e-21 0.000975715 3.35105e-21 0.0168192)
(0.0324881 -8.84137e-05 -5.56907e-21 -0.000129358 -1.20432e-21 0.0129435)
(0.0354317 -0.000291817 2.82923e-21 0.000626388 1.12444e-21 0.0144232)
(0.0374908 -0.000270897 -2.76737e-21 0.000157575 -1.08745e-21 0.0150594)
(0.0404239 7.50166e-06 -3.08135e-23 0.000932172 9.09232e-21 0.0165424)
(0.0325307 -0.000125306 2.80848e-21 -6.89951e-05 1.92295e-21 0.0129847)
(0.0351775 -0.0003866 -2.90851e-21 0.000606642 -1.06484e-21 0.0143136)
(0.03703 -0.000365585 2.90858e-21 0.000181529 1.06487e-21 0.0148846)
(0.039665 -2.71501e-05 -6.47269e-25 0.000876837 1.84274e-22 0.0162167)
(0.032634 -0.000155482 -5.86998e-23 1.77604e-06 6.83264e-21 0.0130543)
(0.0349258 -0.000464863 3.01833e-21 0.000582382 1.12127e-21 0.0142033)
(0.0365308 -0.000444007 0 0.000210518 0 0.0146965)
(0.0388098 -5.58061e-05 -3.82644e-25 0.000811528 1.05395e-22 0.0158485)
(0.0327829 -0.000178386 -3.17337e-21 8.09723e-05 -6.91303e-21 0.0131456)
(0.0346728 -0.000525149 -3.23587e-21 0.000554557 -1.01336e-21 0.0140909)
(0.0359974 -0.000504685 0 0.000243657 0 0.0144964)
(0.0378736 -7.78466e-05 -3.2642e-21 0.000738259 -2.24803e-22 0.0154447)
(0.0329612 -0.000193599 -4.84721e-23 0.00016644 -9.65747e-21 0.0132511)
(0.0344145 -0.000566328 9.84056e-21 0.000524178 2.99041e-21 0.0139755)
(0.0354342 -0.000546459 -3.32346e-21 0.000279995 -9.44792e-22 0.0142857)
(0.036873 -9.27695e-05 -3.4573e-21 0.000659213 -4.69787e-22 0.0150129)
(0.0331518 -0.000200868 6.78777e-21 0.000255898 8.85892e-21 0.0133631)
(0.0341464 -0.000587656 0 0.0004923 0 0.0138555)
(0.0348458 -0.000568544 0 0.000318531 0 0.0140657)
(0.0358254 -0.000100215 3.43094e-21 0.000576699 7.14524e-21 0.0145609)
(0.0333372 -0.000200116 7.74377e-23 0.000346985 2.9625e-21 0.0134737)
(0.0338643 -0.000588817 9.04621e-23 0.000459999 -7.17783e-23 0.0137297)
(0.0342372 -0.00057058 0 0.000358238 0 0.0138382)
(0.034749 -9.99845e-05 4.65212e-24 0.000493104 -1.14906e-21 0.0140968)
(0.0334996 -0.000191459 7.64555e-24 0.000437315 -1.84493e-21 0.0135748)
(0.0335636 -0.00056996 -7.39839e-21 0.000428348 -1.6443e-21 0.0135968)
(0.0336131 -0.000552666 0 0.000398079 0 0.0136045)
(0.0336616 -9.20602e-05 3.85657e-21 0.000410837 1.73891e-21 0.013629)
(0.0336217 -0.000175209 -1.26573e-24 0.000524532 2.99191e-22 0.0136585)
(0.03324 -0.000531714 3.7645e-21 0.000398396 7.93193e-22 0.0134554)
(0.0329783 -0.00051538 3.94087e-21 0.000437036 6.5241e-22 0.0133661)
(0.0325813 -7.66107e-05 4.187e-23 0.000332271 1.17468e-20 0.0131654)
(0.033687 -0.000151869 -3.93354e-21 0.000606375 -8.51598e-22 0.0137173)
(0.0328894 -0.000475187 7.91543e-21 0.000371139 1.41734e-21 0.0133042)
(0.0323374 -0.000459777 -7.92222e-21 0.000474126 -1.31905e-21 0.0131246)
(0.031525 -5.39952e-05 -4.11969e-21 0.000259684 1.45036e-21 0.0127139)
(0.0336798 -0.000122127 -3.9591e-21 0.000680731 -1.34817e-20 0.0137442)
(0.0325079 -0.000401948 0 0.000347502 0 0.0131422)
(0.0316948 -0.000387371 0 0.000508429 0 0.0128813)
(0.0305087 -2.47579e-05 -5.55787e-23 0.000195195 -6.54539e-21 0.0122816)
(0.0335864 -8.68374e-05 4.13815e-21 0.000745694 2.86539e-21 0.0137329)
(0.0320922 -0.000313988 0 0.00032831 0 0.0129682)
(0.0310544 -0.000300105 -4.31e-21 0.00053911 -5.06982e-22 0.0126374)
(0.0295469 1.03833e-05 4.37357e-21 0.000140715 -5.75925e-21 0.011875)
(0.0333948 -4.69962e-05 -4.36098e-21 0.000799612 -1.37161e-21 0.0136778)
(0.0316394 -0.000213674 4.39706e-21 0.000314273 5.48353e-22 0.0127815)
(0.0304196 -0.000200298 4.31e-21 0.000565438 5.06982e-22 0.012394)
(0.028652 5.05549e-05 -4.35285e-21 9.78925e-05 1.09149e-21 0.0115)
(0.0330951 -3.71772e-06 -8.97433e-23 0.000841132 2.40322e-21 0.0135745)
(0.0311471 -0.000103682 -4.42577e-21 0.000305967 -4.68462e-22 0.0125812)
(0.0297935 -9.05879e-05 4.47223e-21 0.000586803 4.92115e-22 0.0121521)
(0.0278345 9.47503e-05 -3.28643e-25 6.8073e-05 7.16491e-23 0.011161)
(0.0326801 4.17981e-05 4.54694e-21 0.00086923 4.84902e-21 0.0134197)
(0.0306138 1.30739e-05 -9.15647e-21 0.000303819 -1.0099e-21 0.012367)
(0.0291782 2.6145e-05 4.58945e-21 0.000602731 4.65685e-22 0.0119124)
(0.0271023 0.000141856 4.63215e-21 5.2265e-05 1.80378e-22 0.0108618)
(0.0321451 8.82978e-05 -1.86458e-23 0.000883239 5.23137e-22 0.0132113)
(0.0300383 0.000133519 4.68863e-21 0.000308097 5.24496e-22 0.0121386)
(0.0285755 0.00014685 0 0.000612897 0 0.0116753)
(0.0264606 0.000190684 -4.70168e-21 5.11151e-05 -6.80478e-21 0.0106047)
(0.0314882 0.000134508 1.43145e-20 0.000882858 9.03571e-21 0.0129484)
(0.0294206 0.000254499 -1.44847e-20 0.000318908 -1.49873e-21 0.0118958)
(0.0279861 0.000268388 4.87453e-21 0.00061713 4.00573e-22 0.0114413)
(0.025912 0.000239999 4.82712e-21 6.48943e-05 1.0242e-21 0.0103908)
(0.0307102 0.000179169 -5.06947e-21 0.000868166 -6.67997e-21 0.0126314)
(0.0287611 0.000372865 -1.49465e-20 0.000336191 -1.34716e-21 0.0116389)
(0.0274105 0.000387615 -4.98138e-21 0.000615418 -3.36043e-22 0.0112103)
(0.0254564 0.000288553 7.47567e-25 9.34935e-05 -1.55827e-22 0.0102199)
(0.0298149 0.000221067 -2.28409e-22 0.000839605 -1.80461e-22 0.0122618)
(0.0280611 0.000485551 -2.1799e-22 0.000359721 -1.7501e-23 0.0113683)
(0.0268479 0.000501461 9.96064e-21 0.000607905 8.07123e-22 0.0109823)
(0.0250906 0.000335118 1.01856e-20 0.00013643 -6.40629e-21 0.0100908)
(0.0288085 0.000259064 1.02016e-20 0.000797976 -5.4517e-21 0.0118426)
(0.0273224 0.000589649 1.02762e-20 0.000389117 9.1256e-22 0.0110846)
(0.0262974 0.000607006 2.06299e-20 0.000594889 1.63921e-21 0.0107569)
(0.0248092 0.000378515 -1.0072e-20 0.00019286 4.50743e-22 0.0100008)
(0.0276998 0.000292126 2.11457e-20 0.000744406 6.18094e-21 0.0113777)
(0.0265475 0.000682485 -1.0392e-20 0.000423852 -9.96349e-22 0.0107886)
(0.0257572 0.00070155 -1.03707e-20 0.000576811 -8.61906e-22 0.0105336)
(0.0246042 0.000417645 -2.07435e-20 0.000261606 -5.41465e-21 0.00994632)
(0.0264998 0.000319344 5.62198e-23 0.000680324 6.52976e-21 0.010872)
(0.0257398 0.000761673 -1.06009e-20 0.000463264 -1.03606e-21 0.0104812)
(0.0252247 0.000782677 1.06833e-20 0.000554244 9.96215e-22 0.0103116)
(0.0244652 0.000451509 -1.0748e-20 0.000341187 3.73616e-21 0.00992256)
(0.0252215 0.00033996 -2.19822e-20 0.000607423 -1.49925e-21 0.0103316)
(0.0249028 0.000825178 -1.07968e-20 0.000506577 -1.08723e-21 0.0101637)
(0.0246973 0.000848312 0 0.000527876 0 0.0100901)
(0.02438 0.000479241 -4.98514e-23 0.000429856 -3.26277e-21 0.00992395)
(0.0238796 0.000353377 -1.12848e-20 0.000527611 -1.3425e-21 0.00976289)
(0.0240406 0.000871352 2.21673e-20 0.000552917 2.33921e-21 0.0098374)
(0.0241715 0.000896762 -2.22074e-20 0.000498498 -2.18682e-21 0.00986801)
(0.0243347 0.000500118 -1.5435e-23 0.000525642 3.08242e-21 0.00994415)
(0.0224901 0.000359178 1.12747e-20 0.00044297 2.55316e-23 0.00917322)
(0.0231577 0.000898979 1.13527e-20 0.000601337 1.25205e-21 0.00950361)
(0.0236438 0.000926761 1.11412e-20 0.000466974 1.07789e-21 0.0096443)
(0.0243142 0.000513582 -1.12916e-20 0.000626405 -4.13525e-22 0.00997625)
(0.0210698 0.000357127 -1.1307e-20 0.000355703 -4.68424e-21 0.00857019)
(0.0222587 0.000907295 -1.14492e-20 0.000650837 -1.33141e-21 0.00916383)
(0.0231102 0.000937491 7.54288e-23 0.00043423 -3.3037e-23 0.00941778)
(0.0243023 0.000519253 1.12898e-20 0.000729883 7.67775e-22 0.0100129)
(0.0196361 0.000347184 -2.31899e-20 0.000268078 3.08118e-21 0.00796166)
(0.0213485 0.000896011 2.30509e-20 0.000700393 2.6021e-21 0.00881957)
(0.0225668 0.000928606 -3.47787e-20 0.000401222 -3.68562e-21 0.00918723)
(0.0242826 0.000516935 -1.16576e-20 0.000833747 -1.74216e-21 0.0100465)
(0.0182064 0.000329498 -1.17711e-20 0.000182376 -9.4815e-22 0.00735552)
(0.0204319 0.000865317 3.52213e-20 0.000748979 4.04363e-21 0.00847236)
(0.0220096 0.00090024 1.17596e-20 0.000368917 1.1878e-21 0.00895141)
(0.0242382 0.000506625 1.16618e-20 0.000935658 9.06475e-22 0.0100695)
(0.016798 0.000304409 -1.18972e-20 0.000100836 -4.55898e-21 0.00675952)
(0.0195136 0.000815884 -1.23768e-23 0.000795595 9.55948e-23 0.00812368)
(0.0214346 0.000853009 7.80708e-23 0.000338265 6.18436e-23 0.00870914)
(0.024153 0.000488511 5.26505e-24 0.00103332 -1.03057e-21 0.0100745)
(0.015427 0.000272441 -1.2026e-20 2.55973e-05 -9.76148e-22 0.00618105)
(0.0185981 0.000748852 0 0.000839291 0 0.00777496)
(0.020838 0.000788002 -1.21757e-20 0.000310178 -1.26213e-21 0.00845929)
(0.0240113 0.000462977 -1.02986e-27 0.00112455 2.01021e-25 0.0100543)
(0.0141088 0.00023429 -1.21963e-20 -4.13514e-05 2.62733e-21 0.005627)
(0.0176897 0.000665811 2.44437e-20 0.000879192 2.70553e-21 0.00742756)
(0.0202165 0.000706759 2.45087e-20 0.000285505 2.49135e-21 0.00820081)
(0.0237987 0.00043059 1.23944e-20 0.00120731 7.05516e-22 0.0100024)
(0.0128571 0.000190815 -1.20042e-24 -9.82252e-05 2.33197e-22 0.00510353)
(0.0167922 0.000568766 -1.2268e-20 0.000914523 -1.32124e-21 0.00708268)
(0.0195669 0.000611244 -1.23329e-20 0.00026501 -1.22921e-21 0.00793278)
(0.0235024 0.000392092 -1.23944e-20 0.00127979 -7.09274e-22 0.00991288)
(0.0116834 0.000143015 1.2385e-20 -0.000143489 3.43526e-21 0.00461597)
(0.0159088 0.000460101 0 0.000944626 0 0.00674138)
(0.0188868 0.000503803 0 0.000249351 0 0.00765445)
(0.0231114 0.000348387 1.27068e-20 0.00134041 1.33629e-22 0.00978074)
(0.0105975 9.20064e-05 -3.7393e-20 -0.000175898 -1.87044e-21 0.00416863)
(0.0150424 0.000342518 3.77757e-20 0.000968981 3.24891e-21 0.00640456)
(0.018174 0.000387111 -1.26394e-20 0.000239064 -1.06937e-21 0.00736524)
(0.022617 0.000300519 -2.32706e-23 0.00138792 -2.71211e-22 0.00960197)
(0.00960626 3.90014e-05 1.24842e-20 -0.000194538 4.86143e-22 0.00376469)
(0.014195 0.000218982 1.34971e-22 0.000987221 -1.08532e-22 0.0060729)
(0.0174273 0.000264114 -1.2764e-20 0.000234547 -9.31407e-22 0.00706474)
(0.0220128 0.000249648 -1.63907e-22 0.00142139 9.46708e-22 0.00937369)
(0.00871416 -1.47252e-05 -1.24875e-20 -0.000198846 -2.95476e-21 0.00340613)
(0.013368 9.26437e-05 0 0.000999143 0 0.00574687)
(0.016646 0.000137953 1.307e-20 0.000236047 6.7653e-22 0.00675281)
(0.0212953 0.000197026 -1.30747e-20 0.00144026 2.2953e-22 0.00909423)
(0.00792275 -6.78654e-05 1.2775e-20 -0.000188633 3.3555e-22 0.00309365)
(0.0125621 -3.32316e-05 2.21035e-22 0.00100472 -5.65082e-23 0.00542674)
(0.0158301 1.18917e-05 -1.29471e-20 0.000243655 -4.84277e-22 0.00642949)
(0.0204636 0.000143963 -1.3214e-20 0.00144437 -1.27815e-22 0.00876319)
(0.00723069 -0.00011911 5.03832e-26 -0.000164088 -9.71054e-24 0.00282664)
(0.0117772 -0.000155347 1.31007e-20 0.00100409 3.18942e-22 0.00511251)
(0.0149804 -0.000110762 6.38972e-23 0.000257299 8.58056e-23 0.00609508)
(0.0195198 9.17976e-05 4.93011e-24 0.00143393 -9.50008e-22 0.00838148)
(0.00663379 -0.000167182 3.88458e-26 -0.000125782 -7.48139e-24 0.0026032)
(0.0110124 -0.000270453 1.31017e-20 0.000997587 -7.30528e-23 0.00480398)
(0.0140985 -0.000226739 0 0.000276748 0 0.00575009)
(0.0184688 4.1864e-05 -1.368e-20 0.00140957 2.31914e-23 0.00795134)
(0.00612503 -0.000210862 -8.27058e-28 -7.46486e-05 1.59186e-25 0.00242015)
(0.0102661 -0.000375419 -1.31017e-20 0.000985706 7.30501e-23 0.00450072)
(0.0131866 -0.000332879 1.34957e-20 0.000301613 -4.43252e-22 0.00539529)
(0.0173183 -4.5364e-06 1.36801e-20 0.00137228 -3.91276e-23 0.00747625)
(0.00569472 -0.000249021 -1.28407e-20 -1.19721e-05 -1.73632e-21 0.0022731)
(0.00953608 -0.000467305 2.62978e-20 0.000969111 -1.27912e-21 0.00420208)
(0.0122477 -0.000426201 -1.34957e-20 0.000331355 4.4325e-22 0.00503163)
(0.0160789 -4.61626e-05 1.40523e-20 0.00132343 -2.59733e-21 0.00696092)
(0.00533073 -0.000280636 -3.85696e-20 6.06606e-05 -5.19209e-22 0.00215656)
(0.00881945 -0.000543416 2.11079e-22 0.000948639 -2.02532e-22 0.00390724)
(0.0112854 -0.000503958 3.52791e-22 0.000365311 -5.40992e-23 0.00466029)
(0.0147632 -8.18588e-05 -1.38111e-20 0.00126475 4.55147e-22 0.0064112)
(0.00501864 -0.00030482 1.27713e-20 0.000141357 -5.98947e-22 0.002064)
(0.00811265 -0.000601358 2.65339e-20 0.000925259 -2.79201e-21 0.00361516)
(0.0103038 -0.000563679 0 0.000402679 0 0.00428261)
(0.0133866 -0.000110564 -1.41392e-20 0.00119825 7.61647e-22 0.00583393)
(0.00474212 -0.000320827 1.28232e-20 0.000228048 4.64289e-22 0.00198807)
(0.00741168 -0.000639076 -2.68089e-20 0.000900146 3.42154e-21 0.00332473)
(0.00930773 -0.000603202 0 0.000442627 0 0.00390014)
(0.0119661 -0.000131332 -2.54899e-22 0.00112628 1.20134e-21 0.00523694)
(0.00448312 -0.000328097 -2.60319e-20 0.000318392 1.80631e-21 0.00192061)
(0.00671193 -0.000654902 4.01653e-20 0.000874526 -6.38583e-21 0.00303458)
(0.008302 -0.000620679 1.40717e-20 0.000484164 -2.18267e-21 0.00351446)
(0.0105204 -0.000143306 4.19489e-22 0.00105139 -1.05853e-21 0.00462873)
(0.00422259 -0.000326285 -2.11584e-22 0.000410125 1.08189e-21 0.00185309)
(0.00600867 -0.000647641 -2.71996e-20 0.000850068 4.92942e-21 0.0027435)
(0.00729218 -0.000614555 1.37172e-20 0.000526587 -2.58093e-21 0.00312751)
(0.00907023 -0.000145712 1.43683e-20 0.000976623 -4.56751e-22 0.00401874)
(0.0039401 -0.000315275 1.26584e-20 0.00050078 4.70574e-22 0.00177635)
(0.00529568 -0.000616569 1.35268e-20 0.000828126 -2.79164e-21 0.00244952)
(0.00628267 -0.000583593 -2.79611e-20 0.000568699 6.08123e-21 0.00274055)
(0.00763662 -0.000137822 -1.84814e-22 0.000905096 -9.69243e-23 0.00341668)
(0.00361668 -0.000295531 -1.33624e-20 0.000588485 2.58362e-21 0.00168206)
(0.00456882 -0.000561791 2.73719e-20 0.000811643 -6.72687e-21 0.00215218)
(0.00528031 -0.000526722 -2.805e-20 0.000610885 6.98451e-21 0.00235648)
(0.00624398 -0.000118634 1.42355e-20 0.000841064 -1.72104e-21 0.00283402)
(0.0032295 -0.000266849 -2.38152e-22 0.000671219 1.16902e-22 0.00156029)
(0.00381552 -0.000483221 1.33903e-20 0.000799538 -3.92979e-21 0.00184602)
(0.00428248 -0.000443978 0 0.000649163 0 0.00197266)
(0.00491236 -8.81194e-05 -1.47247e-20 0.000788891 2.59475e-21 0.0022805)
(0.00276995 -0.000229611 2.8588e-24 0.000746963 -5.49094e-22 0.00140676)
(0.00304559 -0.000381559 -1.38658e-20 0.000796408 4.40167e-21 0.0015368)
(0.00330987 -0.000337079 2.79666e-20 0.000686021 -9.03626e-21 0.00159835)
(0.00368013 -4.59392e-05 -1.45367e-20 0.000754851 2.27817e-21 0.00177399)
(0.00218528 -0.000169886 -2.28559e-24 0.000795012 4.38814e-22 0.00119212)
(0.0022155 -0.000249693 -1.38858e-20 0.000759685 4.86152e-21 0.00119007)
(0.00232029 -0.000214999 -2.15072e-22 0.000673665 -2.26934e-22 0.00119758)
(0.00252611 -9.7682e-06 1.45367e-20 0.000725232 -2.28415e-21 0.00130054)
(0.00153125 -8.05679e-05 6.72855e-21 0.000754472 -2.65816e-21 0.00091429)
(0.00147761 -8.57746e-05 -1.37129e-20 0.000667618 1.07083e-20 0.000858091)
(0.00149471 -7.80679e-05 1.46038e-20 0.000579451 -1.09333e-20 0.000829666)
(0.0015848 -6.37983e-06 -5.24513e-22 0.000631879 3.24264e-24 0.000886672)
)
;

boundaryField
{
    plateFix
    {
        type            calculated;
        value           nonuniform List<symmTensor> 4((0.0544261 0.012909 -4.71334e-24 0.0195438 -2.54366e-21 0.029588) (0.037439 0.00460994 -7.92953e-25 0.0204645 -5.22857e-25 0.0231614) (0.0334001 -0.00327003 2.13516e-26 0.0188367 2.5858e-27 0.0208947) (0.0335924 -0.00882455 8.08727e-24 0.0119706 2.89341e-22 0.0182252));
    }
    plate
    {
        type            calculated;
        value           nonuniform List<symmTensor> 
168
(
(0.0413714 9.12617e-06 -3.64616e-24 0.000341001 -5.18946e-21 0.016685)
(0.0257402 1.17054e-05 9.64123e-24 0.000443249 5.90314e-22 0.0104734)
(0.042614 9.20178e-06 1.48128e-23 0.00034272 -4.19608e-20 0.0171827)
(0.0267464 1.06413e-05 2.0286e-23 0.00044489 -8.11146e-20 0.0108765)
(0.0443614 9.19832e-06 -2.16172e-23 0.000343115 -3.34888e-20 0.0178818)
(0.0282673 9.51412e-06 -9.74705e-24 0.000445525 3.46739e-20 0.0114851)
(0.0449128 9.6449e-06 1.57601e-23 0.000342852 3.30524e-20 0.0181023)
(0.0291133 9.11283e-06 -1.40448e-24 0.000445762 6.92283e-21 0.0118236)
(0.0452654 1.12214e-05 2.22515e-25 0.000342318 -8.07546e-22 0.0182431)
(0.0299379 1.01009e-05 1.12445e-23 0.000445911 -3.75715e-20 0.0121535)
(0.0452973 1.32254e-05 -1.08329e-24 0.000341632 3.31927e-21 0.0182556)
(0.0306379 1.18632e-05 -8.24183e-23 0.000446074 3.555e-20 0.0124336)
(0.0452155 1.55865e-05 -2.0775e-23 0.000340864 3.23478e-20 0.0182225)
(0.0313383 1.42881e-05 7.06712e-23 0.000446316 -3.11951e-21 0.0127138)
(0.0450301 1.81306e-05 4.22988e-23 0.000340038 -9.23912e-20 0.0181481)
(0.0320317 1.71843e-05 -1.16019e-23 0.000446671 2.51099e-20 0.0129914)
(0.0447794 2.08151e-05 1.36814e-24 0.000339157 2.76623e-20 0.0180474)
(0.0327341 2.04795e-05 1.17423e-23 0.000447162 -2.19278e-20 0.0132725)
(0.0444639 2.35988e-05 -3.69857e-22 0.000338215 1.91202e-20 0.0179209)
(0.0334377 2.41196e-05 1.99583e-23 0.0004478 2.67405e-21 0.0135542)
(0.044086 2.64637e-05 -7.7939e-23 0.000337204 4.98414e-20 0.0177693)
(0.034139 2.80871e-05 -1.67681e-23 0.000448595 2.39239e-20 0.013835)
(0.0436435 2.93917e-05 3.67348e-22 0.000336122 -5.86692e-20 0.0175918)
(0.0348328 3.23771e-05 -7.73661e-24 0.000449556 -2.32803e-20 0.0141129)
(0.0431368 3.23677e-05 2.86777e-22 0.000334972 -2.60943e-21 0.0173887)
(0.0355169 3.6995e-05 1.21706e-22 0.000450691 3.73527e-21 0.0143871)
(0.0425685 3.53773e-05 -7.7483e-22 0.000333764 1.24147e-20 0.0171609)
(0.0361911 4.19504e-05 3.9958e-23 0.000452008 -2.91889e-20 0.0146572)
(0.0419433 3.84076e-05 -2.26324e-22 0.000332516 -8.65838e-22 0.0169103)
(0.0368559 4.72544e-05 -3.51013e-22 0.00045351 4.08732e-20 0.0149238)
(0.0412679 4.14476e-05 -6.84497e-22 0.000331255 6.51181e-21 0.0166397)
(0.0375121 5.29174e-05 5.95689e-22 0.000455192 -8.64856e-21 0.0151869)
(0.04055 4.44893e-05 1.52029e-22 0.000330022 -2.38992e-20 0.016352)
(0.038159 5.8947e-05 -5.3745e-22 0.000457037 2.2835e-20 0.0154464)
(0.0397978 4.7527e-05 7.98244e-22 0.00032887 7.73939e-21 0.0160507)
(0.0387938 6.5346e-05 3.18177e-22 0.000459011 -2.59597e-20 0.0157011)
(0.0390209 5.05596e-05 -6.63624e-24 0.000327873 2.4989e-20 0.0157395)
(0.0394108 7.21106e-05 -9.12357e-23 0.000461054 3.61788e-20 0.0159488)
(0.0382291 5.35975e-05 -4.1856e-22 0.000327139 -2.21601e-20 0.0154225)
(0.0400011 7.92212e-05 1.68574e-24 0.00046309 -9.73246e-22 0.0161857)
(0.0374345 5.66227e-05 1.74601e-21 0.000326686 2.32645e-20 0.0151045)
(0.0405507 8.66674e-05 -9.18766e-27 0.000464929 4.89312e-24 0.0164063)
(0.0366488 5.97536e-05 -8.39167e-22 0.000327019 -2.01328e-20 0.0147903)
(0.0410456 9.43452e-05 7.93812e-22 0.0004666 1.05857e-20 0.0166049)
(0.035864 6.27117e-05 -1.72864e-21 0.000327208 6.19615e-21 0.0144765)
(0.0414723 0.000102818 -6.4242e-22 0.000467239 -1.26255e-20 0.0167758)
(0.0351278 6.5394e-05 3.7143e-21 0.000328921 3.29017e-21 0.0141827)
(0.0417887 0.000111773 1.73994e-21 0.000467989 1.60419e-23 0.0169027)
(0.0344981 6.79406e-05 1.08139e-22 0.00033185 1.03456e-20 0.013932)
(0.0419596 0.000120179 -1.69779e-21 0.000467885 -1.67404e-20 0.016971)
(0.0339749 7.03945e-05 -4.18275e-21 0.000335969 -9.49833e-21 0.0137244)
(0.0419866 0.000128028 -2.02923e-21 0.000467067 8.86118e-21 0.0169815)
(0.0335562 7.28177e-05 6.71652e-21 0.000341315 -8.19902e-21 0.013559)
(0.0418715 0.000135262 1.16364e-22 0.000465484 -6.56601e-21 0.0169348)
(0.0332383 7.52606e-05 5.93119e-24 0.00034784 1.67574e-20 0.0134345)
(0.0416185 0.000141835 -4.4247e-21 0.000463107 -3.56661e-20 0.0168326)
(0.0330153 7.77651e-05 2.51765e-21 0.000355495 -8.29829e-21 0.0133483)
(0.0412336 0.000147726 1.55507e-22 0.000459999 -4.75593e-20 0.0166775)
(0.0328795 8.03535e-05 5.26298e-27 0.000364223 -1.61279e-24 0.0132975)
(0.0407249 0.000152915 -2.65595e-21 0.000456199 7.71528e-21 0.0164724)
(0.0328217 8.30407e-05 -5.57306e-21 0.000373927 -2.91858e-23 0.0132782)
(0.0401019 0.000157404 -6.1611e-23 0.000451797 1.81799e-20 0.0162215)
(0.0328306 8.58222e-05 2.80597e-21 0.000384505 2.63665e-21 0.013286)
(0.0393762 0.000161201 -1.29508e-24 0.000446896 3.68701e-22 0.0159292)
(0.0328938 8.86825e-05 -8.6407e-23 0.000395827 1.35788e-20 0.0133158)
(0.0385605 0.000164331 -7.65834e-25 0.000441621 2.10941e-22 0.0156009)
(0.0329974 9.15904e-05 -3.15159e-21 0.000407748 -1.27268e-20 0.0133621)
(0.0376691 0.000166831 -3.26956e-21 0.000436121 3.55543e-22 0.0152421)
(0.0331266 9.45032e-05 -1.09757e-23 0.000420106 -1.93864e-20 0.0134187)
(0.0367172 0.000168747 -3.45854e-21 0.00043056 -1.46366e-22 0.0148591)
(0.0332658 9.7366e-05 6.75698e-21 0.000432728 1.56587e-20 0.0134794)
(0.0357208 0.000170136 3.40579e-21 0.000425115 1.35083e-20 0.0144584)
(0.0333988 0.000100115 6.51254e-23 0.000445432 6.00062e-21 0.0135377)
(0.0346966 0.000171063 9.34553e-24 0.000419977 -2.30832e-21 0.0140466)
(0.0335094 0.000102679 1.52709e-23 0.000458033 -3.68498e-21 0.013587)
(0.033661 0.000171599 3.85193e-21 0.000415339 2.85958e-21 0.0136305)
(0.0335817 0.000104983 -2.49322e-24 0.00047035 5.89343e-22 0.0136208)
(0.0326305 0.000171818 -4.82982e-24 0.000411396 2.35632e-20 0.0132168)
(0.0336005 0.000106948 -3.93312e-21 0.000482207 -9.48478e-22 0.0136331)
(0.0316208 0.000171795 -4.12818e-21 0.000408333 3.42003e-21 0.0128117)
(0.0335516 0.0001085 -3.90031e-21 0.000493444 -2.61929e-20 0.013618)
(0.0306466 0.000171605 -2.91829e-23 0.000406327 -1.31506e-20 0.0124212)
(0.0334223 0.000109565 4.12609e-21 0.000503918 4.99748e-21 0.0135705)
(0.029721 0.000171317 4.40119e-21 0.000405533 -1.19581e-20 0.0120506)