/*--------------------------------*- C++ -*----------------------------------*\
| =========                 |                                                 |
| \\      /  F ield         | OpenFOAM Extend Project: Open source CFD        |
|  \\    /   O peration     | Version:  1.6-ext                               |
|   \\  /    A nd           | Web:      www.extend-project.de                 |
|    \\/     M anipulation  |                                                 |
\*---------------------------------------------------------------------------*/
FoamFile
{
    version     2.0;
    format      ascii;
    class       volVectorField;
    location    "0.95";
    object      DU;
}
// * * * * * * * * * * * * * * * * * * * * * * * * * * * * * * * * * * * * * //

dimensions      [0 1 0 0 0 0 0];

internalField   nonuniform List<vector> 
328
(
(1.24202e-09 2.36722e-09 0)
(7.13944e-10 4.91883e-10 0)
(6.25211e-10 -3.29694e-10 0)
(7.68355e-10 -1.56616e-09 0)
(3.78296e-09 6.16674e-09 0)
(2.36905e-09 1.58614e-09 0)
(2.05875e-09 -8.13571e-10 0)
(2.34138e-09 -3.92516e-09 0)
(6.71024e-09 9.17091e-09 0)
(4.59424e-09 2.80034e-09 0)
(3.9681e-09 -1.09184e-09 0)
(4.18229e-09 -5.50282e-09 0)
(9.88372e-09 1.15566e-08 0)
(7.19436e-09 4.07843e-09 0)
(6.21149e-09 -1.10144e-09 0)
(6.20829e-09 -6.37456e-09 0)
(1.3336e-08 1.35355e-08 0)
(1.02023e-08 5.40393e-09 0)
(8.82353e-09 -8.15617e-10 0)
(8.45493e-09 -6.65521e-09 0)
(1.70446e-08 1.52736e-08 0)
(1.35542e-08 6.78292e-09 0)
(1.17591e-08 -2.15486e-10 0)
(1.09205e-08 -6.42991e-09 0)
(2.10214e-08 1.69099e-08 0)
(1.72406e-08 8.24272e-09 0)
(1.50149e-08 7.03588e-10 0)
(1.36278e-08 -5.766e-09 0)
(2.52719e-08 1.85533e-08 0)
(2.12374e-08 9.82142e-09 0)
(1.85751e-08 1.94327e-09 0)
(1.6596e-08 -4.70861e-09 0)
(2.98085e-08 2.02933e-08 0)
(2.55376e-08 1.1564e-08 0)
(2.24382e-08 3.50316e-09 0)
(1.98503e-08 -3.28786e-09 0)
(3.46429e-08 2.22026e-08 0)
(3.01368e-08 1.35166e-08 0)
(2.66055e-08 5.38521e-09 0)
(2.34168e-08 -1.52018e-09 0)
(3.97872e-08 2.43415e-08 0)
(3.50394e-08 1.5724e-08 0)
(3.10868e-08 7.59443e-09 0)
(2.73237e-08 5.88215e-10 0)
(4.5253e-08 2.67593e-08 0)
(4.02546e-08 1.82265e-08 0)
(3.58978e-08 1.01396e-08 0)
(3.16009e-08 3.0393e-09 0)
(5.10509e-08 2.9496e-08 0)
(4.57975e-08 2.1059e-08 0)
(4.106e-08 1.30324e-08 0)
(3.62802e-08 5.84063e-09 0)
(5.71913e-08 3.25826e-08 0)
(5.1687e-08 2.42493e-08 0)
(4.66004e-08 1.62856e-08 0)
(4.13961e-08 9.00271e-09 0)
(6.36841e-08 3.60404e-08 0)
(5.79454e-08 2.78171e-08 0)
(5.255e-08 1.99108e-08 0)
(4.69855e-08 1.2536e-08 0)
(7.05392e-08 3.98811e-08 0)
(6.45972e-08 3.17729e-08 0)
(5.89434e-08 2.3915e-08 0)
(5.30889e-08 1.64474e-08 0)
(7.77665e-08 4.41044e-08 0)
(7.16687e-08 3.61158e-08 0)
(6.58174e-08 2.82975e-08 0)
(5.97499e-08 2.07366e-08 0)
(8.53769e-08 4.86961e-08 0)
(7.91868e-08 4.08309e-08 0)
(7.32112e-08 3.30455e-08 0)
(6.70152e-08 2.53917e-08 0)
(9.33817e-08 5.36251e-08 0)
(8.71796e-08 4.58863e-08 0)
(8.11653e-08 3.81296e-08 0)
(7.49346e-08 3.03852e-08 0)
(1.01794e-07 5.88391e-08 0)
(9.56758e-08 5.1229e-08 0)
(8.97212e-08 4.34997e-08 0)
(8.35603e-08 3.56688e-08 0)
(1.10628e-07 6.42608e-08 0)
(1.04705e-07 5.67804e-08 0)
(9.89213e-08 4.90793e-08 0)
(9.29456e-08 4.11686e-08 0)
(1.19903e-07 6.97825e-08 0)
(1.14298e-07 6.24314e-08 0)
(1.08808e-07 5.47615e-08 0)
(1.03143e-07 4.67806e-08 0)
(1.3001e-07 7.5471e-08 0)
(1.24875e-07 6.82513e-08 0)
(1.19828e-07 6.06185e-08 0)
(1.14627e-07 5.25787e-08 0)
(1.40592e-07 8.08676e-08 0)
(1.36078e-07 7.37739e-08 0)
(1.31624e-07 6.61846e-08 0)
(1.27038e-07 5.81049e-08 0)
(1.5097e-07 8.54644e-08 0)
(1.4717e-07 7.84814e-08 0)
(1.434e-07 7.09395e-08 0)
(1.39522e-07 6.28439e-08 0)
(1.61175e-07 8.91805e-08 0)
(1.58156e-07 8.22931e-08 0)
(1.5514e-07 7.48028e-08 0)
(1.52038e-07 6.67149e-08 0)
(1.7124e-07 9.19621e-08 0)
(1.69045e-07 8.51556e-08 0)
(1.66826e-07 7.77211e-08 0)
(1.64543e-07 6.96639e-08 0)
(1.81195e-07 9.37827e-08 0)
(1.79844e-07 8.70429e-08 0)
(1.78441e-07 7.96682e-08 0)
(1.76995e-07 7.16641e-08 0)
(1.91071e-07 9.46419e-08 0)
(1.90557e-07 8.79553e-08 0)
(1.89968e-07 8.06444e-08 0)
(1.89354e-07 7.27148e-08 0)
(2.00895e-07 9.45637e-08 0)
(2.01192e-07 8.79181e-08 0)
(2.0139e-07 8.06749e-08 0)
(2.01581e-07 7.28397e-08 0)
(2.10691e-07 9.35956e-08 0)
(2.11753e-07 8.698e-08 0)
(2.12693e-07 7.98081e-08 0)
(2.13642e-07 7.20859e-08 0)
(2.20482e-07 9.18056e-08 0)
(2.22242e-07 8.52107e-08 0)
(2.23862e-07 7.81138e-08 0)
(2.25503e-07 7.05211e-08 0)
(2.30286e-07 8.92808e-08 0)
(2.32663e-07 8.26989e-08 0)
(2.34884e-07 7.56805e-08 0)
(2.37136e-07 6.82319e-08 0)
(2.40116e-07 8.61237e-08 0)
(2.43015e-07 7.95493e-08 0)
(2.45746e-07 7.26128e-08 0)
(2.48515e-07 6.53205e-08 0)
(2.49981e-07 8.24498e-08 0)
(2.53299e-07 7.58796e-08 0)
(2.56438e-07 6.90282e-08 0)
(2.59619e-07 6.19021e-08 0)
(2.59888e-07 7.83839e-08 0)
(2.63513e-07 7.18169e-08 0)
(2.66951e-07 6.50538e-08 0)
(2.70433e-07 5.81012e-08 0)
(2.69836e-07 7.4057e-08 0)
(2.73652e-07 6.74944e-08 0)
(2.77278e-07 6.08227e-08 0)
(2.80944e-07 5.40484e-08 0)
(2.79819e-07 6.96021e-08 0)
(2.8371e-07 6.30477e-08 0)
(2.87411e-07 5.64704e-08 0)
(2.91147e-07 4.98765e-08 0)
(2.89829e-07 6.5151e-08 0)
(2.93682e-07 5.86109e-08 0)
(2.97348e-07 5.21308e-08 0)
(3.01039e-07 4.57171e-08 0)
(2.99852e-07 6.08302e-08 0)
(3.03559e-07 5.43129e-08 0)
(3.07085e-07 4.79329e-08 0)
(3.10624e-07 4.16967e-08 0)
(3.09868e-07 5.67578e-08 0)
(3.13331e-07 5.02738e-08 0)
(3.16621e-07 4.39968e-08 0)
(3.1991e-07 3.79332e-08 0)
(3.19854e-07 5.30401e-08 0)
(3.22986e-07 4.6602e-08 0)
(3.25957e-07 4.04308e-08 0)
(3.28909e-07 3.45328e-08 0)
(3.29785e-07 4.97685e-08 0)
(3.32513e-07 4.33904e-08 0)
(3.35093e-07 3.73279e-08 0)
(3.37636e-07 3.15869e-08 0)
(3.3963e-07 4.70172e-08 0)
(3.41899e-07 4.07148e-08 0)
(3.44034e-07 3.47637e-08 0)
(3.46111e-07 2.91698e-08 0)
(3.4936e-07 4.48408e-08 0)
(3.5113e-07 3.86308e-08 0)
(3.52782e-07 3.27941e-08 0)
(3.54355e-07 2.73361e-08 0)
(3.5894e-07 4.32731e-08 0)
(3.60191e-07 3.71729e-08 0)
(3.61342e-07 3.14534e-08 0)
(3.62391e-07 2.61197e-08 0)
(3.68338e-07 4.23259e-08 0)
(3.6907e-07 3.63532e-08 0)
(3.69719e-07 3.07538e-08 0)
(3.70244e-07 2.55324e-08 0)
(3.77518e-07 4.19883e-08 0)
(3.77751e-07 3.6161e-08 0)
(3.77918e-07 3.06846e-08 0)
(3.7794e-07 2.55637e-08 0)
(3.86448e-07 4.22274e-08 0)
(3.86222e-07 3.65628e-08 0)
(3.85945e-07 3.12124e-08 0)
(3.85503e-07 2.61804e-08 0)
(3.95097e-07 4.29885e-08 0)
(3.94469e-07 3.75032e-08 0)
(3.93805e-07 3.22817e-08 0)
(3.92957e-07 2.73283e-08 0)
(4.03434e-07 4.41968e-08 0)
(4.0248e-07 3.8906e-08 0)
(4.01503e-07 3.38166e-08 0)
(4.00324e-07 2.89322e-08 0)
(4.11435e-07 4.57586e-08 0)
(4.10244e-07 4.06764e-08 0)
(4.09043e-07 3.5722e-08 0)
(4.07624e-07 3.08988e-08 0)
(4.19074e-07 4.7564e-08 0)
(4.17751e-07 4.27026e-08 0)
(4.16427e-07 3.78862e-08 0)
(4.14873e-07 3.31181e-08 0)
(4.26333e-07 4.94896e-08 0)
(4.24993e-07 4.48591e-08 0)
(4.23659e-07 4.01837e-08 0)
(4.22084e-07 3.54665e-08 0)
(4.33198e-07 5.1401e-08 0)
(4.31964e-07 4.70094e-08 0)
(4.30739e-07 4.2478e-08 0)
(4.29267e-07 3.78097e-08 0)
(4.39657e-07 5.31564e-08 0)
(4.38657e-07 4.90093e-08 0)
(4.37667e-07 4.46248e-08 0)
(4.36426e-07 4.00055e-08 0)
(4.45705e-07 5.46099e-08 0)
(4.4507e-07 5.07106e-08 0)
(4.44442e-07 4.64758e-08 0)
(4.43563e-07 4.1908e-08 0)
(4.51341e-07 5.5615e-08 0)
(4.512e-07 5.19643e-08 0)
(4.5106e-07 4.7882e-08 0)
(4.50672e-07 4.33705e-08 0)
(4.56569e-07 5.60284e-08 0)
(4.57047e-07 5.26246e-08 0)
(4.57518e-07 4.86974e-08 0)
(4.57746e-07 4.42491e-08 0)
(4.61398e-07 5.57131e-08 0)
(4.62613e-07 5.25523e-08 0)
(4.6381e-07 4.87826e-08 0)
(4.64772e-07 4.44066e-08 0)
(4.6584e-07 5.4542e-08 0)
(4.679e-07 5.16179e-08 0)
(4.69928e-07 4.80082e-08 0)
(4.71732e-07 4.37155e-08 0)
(4.69912e-07 5.24007e-08 0)
(4.72913e-07 4.97052e-08 0)
(4.75864e-07 4.62578e-08 0)
(4.78606e-07 4.20609e-08 0)
(4.73635e-07 4.91908e-08 0)
(4.77656e-07 4.67139e-08 0)
(4.8161e-07 4.34308e-08 0)
(4.85369e-07 3.93438e-08 0)
(4.77031e-07 4.48316e-08 0)
(4.82136e-07 4.25621e-08 0)
(4.87154e-07 3.94451e-08 0)
(4.91995e-07 3.54832e-08 0)
(4.80126e-07 3.92626e-08 0)
(4.8636e-07 3.7188e-08 0)
(4.92487e-07 3.42389e-08 0)
(4.98454e-07 3.0418e-08 0)
(4.82947e-07 3.24447e-08 0)
(4.90336e-07 3.05518e-08 0)
(4.97596e-07 2.77721e-08 0)
(5.04715e-07 2.41084e-08 0)
(4.8552e-07 2.43609e-08 0)
(4.9407e-07 2.26363e-08 0)
(5.02471e-07 2.00274e-08 0)
(5.10748e-07 1.65371e-08 0)
(4.87873e-07 1.5017e-08 0)
(4.9757e-07 1.34471e-08 0)
(5.07099e-07 1.10102e-08 0)
(5.1652e-07 7.70907e-09 0)
(4.90033e-07 4.44073e-09 0)
(5.00845e-07 3.01262e-09 0)
(5.11469e-07 7.48658e-10 0)
(5.22002e-07 -2.34824e-09 0)
(4.92024e-07 -7.31865e-09 0)
(5.039e-07 -8.61708e-09 0)
(5.1557e-07 -1.07072e-08 0)
(5.27165e-07 -1.35862e-08 0)
(4.93869e-07 -2.01922e-08 0)
(5.06742e-07 -2.13718e-08 0)
(5.19394e-07 -2.32874e-08 0)
(5.31982e-07 -2.59362e-08 0)
(4.95588e-07 -3.4093e-08 0)
(5.09376e-07 -3.5163e-08 0)
(5.22929e-07 -3.69036e-08 0)
(5.36431e-07 -3.93119e-08 0)
(4.97195e-07 -4.89192e-08 0)
(5.11805e-07 -4.98869e-08 0)
(5.2617e-07 -5.1452e-08 0)
(5.40491e-07 -5.36116e-08 0)
(4.98702e-07 -6.45565e-08 0)
(5.14031e-07 -6.54269e-08 0)
(5.2911e-07 -6.6816e-08 0)
(5.44147e-07 -6.87213e-08 0)
(5.00116e-07 -8.08816e-08 0)
(5.16057e-07 -8.16573e-08 0)
(5.31743e-07 -8.28701e-08 0)
(5.4739e-07 -8.45179e-08 0)
(5.01438e-07 -9.77663e-08 0)
(5.1788e-07 -9.84471e-08 0)
(5.34068e-07 -9.94831e-08 0)
(5.50214e-07 -1.00873e-07 0)
(5.02664e-07 -1.15081e-07 0)
(5.19497e-07 -1.15664e-07 0)
(5.36083e-07 -1.16522e-07 0)
(5.5262e-07 -1.17657e-07 0)
(5.03784e-07 -1.327e-07 0)
(5.20905e-07 -1.33178e-07 0)
(5.37789e-07 -1.33857e-07 0)
(5.54615e-07 -1.34743e-07 0)
(5.04783e-07 -1.50504e-07 0)
(5.22095e-07 -1.50868e-07 0)
(5.39188e-07 -1.51366e-07 0)
(5.56213e-07 -1.52009e-07 0)
(5.05639e-07 -1.68382e-07 0)
(5.23057e-07 -1.68621e-07 0)
(5.4028e-07 -1.68938e-07 0)
(5.5743e-07 -1.69351e-07 0)
(5.06332e-07 -1.86236e-07 0)
(5.23787e-07 -1.86341e-07 0)
(5.41081e-07 -1.86483e-07 0)
(5.58302e-07 -1.86683e-07 0)
(5.06817e-07 -2.03939e-07 0)
(5.24265e-07 -2.03934e-07 0)
(5.41585e-07 -2.03947e-07 0)
(5.58838e-07 -2.04003e-07 0)
)
;

boundaryField
{
    plateFix
    {
        type            fixedDisplacement;
        value           uniform (0 0 0);
    }
    plate
    {
        type            solidTraction;
        nonLinear       updatedLagrangian;
        traction        nonuniform List<vector> 
168
(
(4.78816e-06 7.23259e-05 3.87339e-20)
(9.38175e-06 -7.37839e-05 1.84218e-23)
(-0.000125575 -6.15246e-05 -2.78936e-21)
(-0.000116223 5.73903e-05 0)
(-0.000571843 -0.000237904 4.51844e-20)
(-0.000551852 0.000231079 -2.66455e-21)
(-0.00126753 -0.000380385 -3.77657e-20)
(-0.00123301 0.000371646 0)
(-0.0021596 -0.000470144 -2.36774e-21)
(-0.00210788 0.00046015 0)
(-0.00319901 -0.000509701 -1.73526e-23)
(-0.00312834 0.000498839 0)
(-0.00433523 -0.000511343 -3.30422e-20)
(-0.00424465 0.000499662 -1.62121e-23)
(-0.00552409 -0.000489165 6.10381e-20)
(-0.00541319 0.00047641 3.06652e-20)
(-0.00673096 -0.000455091 -2.80226e-20)
(-0.00659966 0.000440784 -2.81882e-20)
(-0.00793091 -0.000417806 -3.18765e-21)
(-0.00777921 0.00040133 -3.2038e-21)
(-0.00910795 -0.000382901 -2.02967e-20)
(-0.00893576 0.000363564 2.32612e-20)
(-0.0102536 -0.000353463 2.08956e-20)
(-0.0100606 0.00033055 -2.10042e-20)
(-0.0113653 -0.000330757 1.85976e-20)
(-0.0111508 0.000303553 0)
(-0.0124438 -0.000314826 -1.66184e-20)
(-0.012207 0.00028263 -1.67186e-20)
(-0.0134922 -0.000304951 0)
(-0.0132319 0.000267072 1.49814e-20)
(-0.0145135 -0.000299966 -3.24572e-21)
(-0.0142284 0.000255725 1.02137e-22)
(-0.0155094 -0.000298459 1.13545e-20)
(-0.015198 0.000247193 1.13356e-20)
(-0.0164783 -0.000298827 -1.49158e-20)
(-0.0161394 0.000239899 -2.97746e-20)
(-0.0174171 -0.000299319 -1.71423e-20)
(-0.0170497 0.000232154 1.72514e-20)
(-0.0183112 -0.000297745 1.49071e-20)
(-0.0179151 0.000221867 0)
(-0.0191651 -0.000290771 -1.26693e-20)
(-0.0187405 0.000205969 -3.20713e-21)
(-0.0199061 -0.000279124 1.09445e-20)
(-0.0194576 0.000185197 -5.65517e-21)
(-0.0207817 -0.00023216 -8.7245e-21)
(-0.0203019 0.000130355 0)
(-0.0216972 -0.000177356 9.03153e-21)
(-0.0211803 6.65813e-05 1.41354e-22)
(-0.0224634 -0.000168668 -2.76089e-22)
(-0.0219184 4.74981e-05 -8.84988e-21)
(-0.0231922 -0.000155677 -2.71547e-22)
(-0.0226217 2.48191e-05 9.13408e-21)
(-0.023835 -0.000152483 -5.34016e-22)
(-0.023245 1.22738e-05 8.43333e-21)
(-0.0244335 -0.000146329 -8.03621e-21)
(-0.0238293 -2.60555e-06 -8.84358e-21)
(-0.0249665 -0.00014217 8.30682e-21)
(-0.0243555 -1.48713e-05 -8.52035e-21)
(-0.0254471 -0.000136655 -7.45229e-21)
(-0.024837 -2.77922e-05 8.52433e-21)
(-0.0258667 -0.000131096 4.32301e-21)
(-0.0252665 -3.99939e-05 -3.96155e-21)
(-0.0262276 -0.000124523 9.84256e-23)
(-0.0256471 -5.2399e-05 3.96589e-21)
(-0.0265249 -0.000117184 1.02205e-22)
(-0.0259748 -6.47042e-05 2.39643e-22)
(-0.0267567 -0.000108755 1.05547e-22)
(-0.0262486 -7.7201e-05 2.33466e-22)
(-0.0269191 -9.92352e-05 3.59504e-21)
(-0.0264651 -8.98557e-05 3.58601e-21)
(-0.0270088 -8.84996e-05 2.15157e-22)
(-0.0266217 -0.000102775 -3.81149e-21)
(-0.027022 -7.6523e-05 -3.26656e-21)
(-0.0267149 -0.000115975 2.15094e-22)
(-0.0269552 -6.32664e-05 -2.84604e-22)
(-0.0267413 -0.000129494 0)
(-0.0268048 -4.87345e-05 1.19904e-22)
(-0.0266971 -0.000143337 -4.76822e-25)
(-0.0265676 -3.29464e-05 3.22474e-21)
(-0.0265787 -0.000157505 3.24408e-21)
(-0.0262404 -1.59493e-05 2.79533e-21)
(-0.0263826 -0.000171977 -2.86603e-21)
(-0.0258207 2.18759e-06 2.17703e-22)
(-0.0261051 -0.000186719 -2.99868e-21)
(-0.0253065 2.13746e-05 -2.90182e-22)
(-0.025743 -0.00020168 2.82134e-21)
(-0.0246959 4.15019e-05 -2.55066e-21)
(-0.0252934 -0.000216795 1.65086e-22)
(-0.023988 6.24424e-05 -2.29686e-21)
(-0.0247533 -0.000231981 3.15712e-22)
(-0.0231824 8.4055e-05 2.01812e-21)
(-0.0241207 -0.000247143 1.50588e-22)
(-0.0222793 0.000106186 -2.63597e-22)
(-0.0233937 -0.000262172 -1.42231e-22)
(-0.0212796 0.000128676 2.16881e-21)
(-0.022571 -0.000276946 1.68554e-21)
(-0.0201848 0.000151358 -1.92112e-21)
(-0.0216519 -0.000291335 -3.80561e-21)
(-0.0189972 0.000174066 1.80412e-24)
(-0.0206363 -0.000305204 1.96927e-21)
(-0.0177196 0.000196635 1.55112e-21)
(-0.0195249 -0.000318413 -1.72361e-21)
(-0.0163556 0.000218906 -1.36613e-21)
(-0.0183187 -0.00033082 3.29734e-22)
(-0.014909 0.000240731 -1.31689e-21)
(-0.0170197 -0.000342286 1.19722e-22)
(-0.0133846 0.000261972 1.31819e-21)
(-0.0156303 -0.000352681 1.66609e-21)
(-0.0117871 0.000282507 0)
(-0.0141537 -0.000361881 1.64204e-22)
(-0.010122 0.00030223 8.5836e-22)
(-0.0125935 -0.000369775 -7.60352e-23)
(-0.00839499 0.000321056 -1.43671e-21)
(-0.0109538 -0.000376268 1.36739e-22)
(-0.00661179 0.000338916 4.45509e-22)
(-0.00923943 -0.000381282 5.93227e-22)
(-0.00477842 0.000355766 1.8902e-22)
(-0.00745532 -0.000384761 -4.70066e-22)
(-0.0029009 0.000371581 -8.44254e-23)
(-0.00560685 -0.000386667 5.05296e-23)
(-0.000985196 0.000386357 0)
(-0.0036996 -0.00038699 3.29785e-22)
(0.000962829 0.000400114 -2.94067e-22)
(-0.00173927 -0.00038574 -2.53063e-22)
(0.00293754 0.000412891 3.4513e-23)
(0.000268372 -0.000382955 -1.01534e-22)
(0.00493359 0.000424751 1.52204e-22)
(0.00231767 -0.000378696 -5.7738e-23)
(0.00694602 0.000435778 1.75768e-22)
(0.00440311 -0.000373054 2.06764e-22)
(0.00897034 0.00044608 -1.38023e-22)
(0.0065195 -0.000366145 -2.91738e-22)
(0.0110026 0.000455788 2.71603e-23)
(0.00866203 -0.000358114 1.5186e-22)
(0.0130397 0.000465066 2.02906e-23)
(0.0108265 -0.00034914 0)
(0.015079 0.000474109 1.60265e-23)
(0.0130094 -0.000339436 -6.14261e-24)
(0.0171193 0.00048317 0)
(0.0152082 -0.000329271 6.65647e-23)
(0.0191601 0.000492543 -2.95355e-23)
(0.0174214 -0.000318957 -3.33996e-23)
(0.021203 0.000502671 1.78987e-23)
(0.0196493 -0.00030894 0)
(0.0232511 0.000514078 -8.82581e-24)
(0.0218941 -0.000299751 6.08839e-24)
(0.0253111 0.000527777 0)
(0.0241613 -0.00029237 1.89835e-23)
(0.027393 0.000545148 -7.66778e-24)
(0.0264601 -0.000288153 -3.52912e-23)
(0.0295151 0.000569957 -1.09719e-23)
(0.0288081 -0.000290772 2.00657e-23)
(0.0317073 0.00060873 0)
(0.0312359 -0.0003067 0)
(0.0340213 0.000685463 0)
(0.0337937 -0.000360054 -8.86829e-24)
(0.0365862 0.000845755 0)
(0.0366197 -0.000496494 -1.11018e-23)
(0.0395601 0.00130503 2.78237e-23)
(0.0398651 -0.000936427 1.49669e-23)
(0.0438603 0.00245436 -4.55318e-23)
(0.0445184 -0.00206908 8.16366e-24)
(0.0499083 0.00690719 -1.39202e-23)
(0.0101841 0.00551225 1.09104e-24)
(-0.000656807 -0.00260818 0)
(-0.00060084 0.00333469 3.43153e-23)
(0.0103691 -0.00496585 -1.86162e-23)
(0.0508275 -0.00658422 -5.21141e-24)
)
;
        pressure        nonuniform List<scalar> 
168
(
-0.47253
-0.47473
-0.473131
-0.475322
-0.473801
-0.475983
-0.474463
-0.47664
-0.475049
-0.477225
-0.475485
-0.477664
-0.475722
-0.477909
-0.475733
-0.477933
-0.475503
-0.477723
-0.475028
-0.477271
-0.474305
-0.476578
-0.473332
-0.475641
-0.472103
-0.474455
-0.470607
-0.473009
-0.468824
-0.471286
-0.466727
-0.46926
-0.464282
-0.466898
-0.461446
-0.46416
-0.458177
-0.461008
-0.454409
-0.457378
-0.450148
-0.453277
-0.445181
-0.448502
-0.439804
-0.443338
-0.433149
-0.436962
-0.426393
-0.430501
-0.41909
-0.423529
-0.411538
-0.416334
-0.403569
-0.408755
-0.395287
-0.400894
-0.386642
-0.392701
-0.37767
-0.384211
-0.368361
-0.375413
-0.358729
-0.366321
-0.348782
-0.356937
-0.33853
-0.34727
-0.327988
-0.33733
-0.317171
-0.327126
-0.306097
-0.31667
-0.294787
-0.305978
-0.283264
-0.295065
-0.271555
-0.283949
-0.25969
-0.272653
-0.247698
-0.261198
-0.235614
-0.24961
-0.223475
-0.237917
-0.211317
-0.226149
-0.199179
-0.214337
-0.187103
-0.202516
-0.17513
-0.190721
-0.1633
-0.178989
-0.151655
-0.167358
-0.140237
-0.155868
-0.129085
-0.144558
-0.118238
-0.133468
-0.107734
-0.122636
-0.0976081
-0.112101
-0.0878927
-0.101903
-0.078619
-0.0920754
-0.0698149
-0.0826548
-0.0615057
-0.0736737
-0.0537138
-0.0651628
-0.0464589
-0.0571505
-0.0397577
-0.0496626
-0.0336241
-0.0427225
-0.0280696
-0.036351
-0.0231031
-0.0305662
-0.0187314
-0.025384
-0.0149593
-0.0208178
-0.0117903
-0.0168794
-0.00922646
-0.0135785
-0.00726972
-0.0109244
-0.00592125
-0.00892486
-0.00518474
-0.00758952
-0.00506319
-0.00692719
-0.00556789
-0.00695364
-0.00670986
-0.00768606
-0.00852031
-0.00915718
-0.0110504
-0.0114309
-0.0143645
-0.0145611
-0.0188622
-0.0190053
-0.0243326
-0.0244659
-0.0351661
-0.0673364
-0.0436249
-0.0437249
-0.0680168
-0.0357968
)
;
        value           nonuniform List<vector> 
168
(
(1.1737e-08 6.45417e-09 2.53473e-27)
(7.53601e-09 -4.07281e-09 3.01465e-28)
(1.17392e-08 1.03773e-08 2.1047e-26)
(6.96712e-09 -6.53265e-09 -4.05693e-26)
(1.25857e-08 1.35558e-08 1.66604e-26)
(6.87545e-09 -8.26278e-09 1.73406e-26)
(1.43158e-08 1.59965e-08 -1.64778e-26)
(7.40042e-09 -9.21943e-09 3.49272e-27)
(1.68509e-08 1.80107e-08 4.03687e-28)
(8.52702e-09 -9.58284e-09 -1.88456e-26)
(2.00154e-08 1.9752e-08 -1.65926e-27)
(1.01538e-08 -9.42782e-09 1.77884e-26)
(2.37099e-08 2.13803e-08 -1.6174e-26)
(1.22287e-08 -8.83422e-09 -1.54232e-27)
(2.78548e-08 2.30055e-08 4.6163e-26)
(1.47118e-08 -7.84646e-09 1.2513e-26)
(3.2404e-08 2.47208e-08 -1.38029e-26)
(1.7587e-08 -6.49623e-09 -1.09252e-26)
(3.73261e-08 2.6599e-08 -9.64993e-27)
(2.08497e-08 -4.7992e-09 1.33985e-27)
(4.26026e-08 2.87005e-08 -2.49417e-26)
(2.45074e-08 -2.76121e-09 1.19479e-26)
(4.82221e-08 3.10747e-08 2.94249e-26)
(2.85756e-08 -3.79786e-10 -1.16432e-26)
(5.41785e-08 3.37613e-08 1.35635e-27)
(3.30777e-08 2.35284e-09 1.87156e-27)
(6.04688e-08 3.67917e-08 -6.41497e-27)
(3.80439e-08 5.44722e-09 -1.45916e-26)
(6.70925e-08 4.01878e-08 3.83682e-28)
(4.35107e-08 8.91373e-09 2.04747e-26)
(7.40507e-08 4.39617e-08 -3.44928e-27)
(4.95207e-08 1.27593e-08 -4.42343e-27)
(8.13461e-08 4.81139e-08 1.19605e-26)
(5.61219e-08 1.69835e-08 1.15101e-26)
(8.8982e-08 5.26311e-08 -3.6243e-27)
(6.3367e-08 2.1575e-08 -1.30025e-26)
(9.69632e-08 5.7483e-08 -1.24744e-26)
(7.13128e-08 2.65067e-08 1.80987e-26)
(1.05296e-07 6.26183e-08 1.0943e-26)
(8.00183e-08 3.17311e-08 -4.97794e-28)
(1.13988e-07 6.79609e-08 -1.11039e-26)
(8.95442e-08 3.7176e-08 2.53949e-30)
(1.23052e-07 7.34041e-08 9.80855e-27)
(9.99495e-08 4.27387e-08 5.11644e-27)
(1.32864e-07 7.9014e-08 -3.57335e-27)
(1.11726e-07 4.84943e-08 -6.17933e-27)
(1.43074e-07 8.43363e-08 -5.86692e-28)
(1.24506e-07 5.39893e-08 -3.86482e-28)
(1.53032e-07 8.88692e-08 -5.14472e-27)
(1.37406e-07 5.8712e-08 -7.97741e-27)
(1.62784e-07 9.25314e-08 3.58932e-27)
(1.50371e-07 6.25809e-08 4.89267e-27)
(1.72375e-07 9.52693e-08 5.87234e-27)
(1.63345e-07 6.55423e-08 -3.32392e-27)
(1.81851e-07 9.70559e-08 -8.39363e-27)
(1.76273e-07 6.75687e-08 -1.69291e-26)
(1.91253e-07 9.78903e-08 4.74375e-27)
(1.89102e-07 6.86588e-08 -2.38304e-26)
(2.0062e-07 9.77958e-08 6.48664e-30)
(2.01782e-07 6.88356e-08 4.35291e-27)
(2.09989e-07 9.68189e-08 -1.18142e-27)
(2.14266e-07 6.81448e-08 9.09408e-27)
(2.19391e-07 9.50269e-08 -7.14145e-28)
(2.26512e-07 6.66534e-08 1.84308e-28)
(2.28853e-07 9.25053e-08 -6.74672e-27)
(2.38482e-07 6.44463e-08 1.05414e-28)
(2.38396e-07 8.93556e-08 5.81323e-27)
(2.50144e-07 6.16244e-08 5.78916e-28)
(2.48034e-07 8.56917e-08 9.723e-27)
(2.61471e-07 5.83014e-08 3.1272e-28)
(2.57777e-07 8.1637e-08 -6.79979e-27)
(2.72444e-07 5.46002e-08 6.36376e-27)
(2.67627e-07 7.73209e-08 -3.03314e-27)
(2.83048e-07 5.06496e-08 -1.14923e-27)
(2.7758e-07 7.28749e-08 1.84473e-27)
(2.93278e-07 4.6581e-08 1.11577e-27)
(2.87623e-07 6.84291e-08 -2.9916e-28)
(3.03133e-07 4.25241e-08 1.18171e-26)
(2.97739e-07 6.41087e-08 1.00905e-28)
(3.1262e-07 3.86039e-08 1.96981e-27)
(3.07905e-07 6.00302e-08 1.26977e-26)
(3.21752e-07 3.4937e-08 -6.60977e-27)
(3.18091e-07 5.62988e-08 -2.13112e-27)
(3.30546e-07 3.16283e-08 -6.19104e-27)
(3.28263e-07 5.30047e-08 7.40548e-28)
(3.39029e-07 2.87681e-08 1.52275e-27)
(3.38383e-07 5.02212e-08 -2.34401e-27)
(3.47226e-07 2.64296e-08 7.16559e-29)
(3.48408e-07 4.80022e-08 -4.30451e-27)
(3.5517e-07 2.4667e-08 -1.41299e-28)
(3.58296e-07 4.6381e-08 -4.42813e-28)
(3.62896e-07 2.35137e-08 -6.4987e-27)
(3.68001e-07 4.53691e-08 -7.37587e-27)
(3.70438e-07 2.29812e-08 7.24577e-28)
(3.77478e-07 4.49558e-08 6.13121e-27)
(3.77833e-07 2.30591e-08 -1.55838e-28)
(3.86683e-07 4.51084e-08 1.6741e-28)
(3.85118e-07 2.37147e-08 -7.1045e-27)
(3.95575e-07 4.57728e-08 6.41842e-27)
(3.92326e-07 2.48941e-08 1.19225e-27)
(4.04114e-07 4.68747e-08 -3.78537e-27)
(3.99489e-07 2.65231e-08 -3.98951e-27)
(4.12264e-07 4.83215e-08 -6.5754e-27)
(4.06635e-07 2.85092e-08 4.57116e-27)
(4.19996e-07 5.00045e-08 -1.07031e-27)
(4.13789e-07 3.07436e-08 -3.2959e-27)
(4.27284e-07 5.18015e-08 6.22037e-29)
(4.2097e-07 3.3104e-08 3.08254e-27)
(4.34107e-07 5.35794e-08 1.25607e-27)
(4.28191e-07 3.54574e-08 6.01198e-28)
(4.40454e-07 5.51981e-08 3.28647e-27)
(4.3546e-07 3.76632e-08 -2.46933e-28)
(4.46316e-07 5.65132e-08 -5.85959e-27)
(4.4278e-07 3.95769e-08 -6.30157e-28)
(4.51695e-07 5.73798e-08 -4.54632e-28)
(4.50145e-07 4.10532e-08 -2.0555e-28)
(4.56595e-07 5.76561e-08 3.14212e-27)
(4.57544e-07 4.19499e-08 -1.0306e-27)
(4.6103e-07 5.72066e-08 -5.15753e-28)
(4.64962e-07 4.2131e-08 2.01025e-31)
(4.65019e-07 5.59056e-08 -4.01155e-27)
(4.72374e-07 4.14702e-08 -4.13006e-28)
(4.68584e-07 5.36401e-08 -2.33194e-28)
(4.79752e-07 3.9854e-08 4.09249e-28)
(4.71755e-07 5.03126e-08 -2.2092e-27)
(4.87065e-07 3.7184e-08 -8.36139e-28)
(4.74564e-07 4.58435e-08 -1.59175e-27)
(4.94276e-07 3.33801e-08 -2.82415e-28)
(4.77046e-07 4.01729e-08 6.10431e-28)
(5.01345e-07 2.83816e-08 8.27559e-28)
(4.7924e-07 3.32622e-08 2.08726e-27)
(5.08231e-07 2.21491e-08 9.0607e-28)
(4.81184e-07 2.50946e-08 2.77301e-28)
(5.14891e-07 1.46652e-08 3.49004e-28)
(4.82916e-07 1.56758e-08 9.71048e-30)
(5.21282e-07 5.9347e-09 -9.50015e-28)
(4.84474e-07 5.03327e-09 7.48136e-30)
(5.27364e-07 -4.01553e-09 -1.84563e-28)
(4.85893e-07 -6.78436e-09 -1.59186e-31)
(5.33097e-07 -1.51376e-08 1.68623e-28)
(4.87204e-07 -1.97089e-08 2.0844e-27)
(5.38446e-07 -2.73638e-08 -1.88374e-27)
(4.88436e-07 -3.36547e-08 3.18713e-27)
(5.43379e-07 -4.06092e-08 -5.38654e-28)
(4.8961e-07 -4.85209e-08 -6.74767e-28)
(5.47869e-07 -5.47733e-08 -8.33516e-28)
(4.90744e-07 -6.41947e-08 -2.55521e-27)
(5.51897e-07 -6.97438e-08 9.77657e-28)
(4.91847e-07 -8.05547e-08 1.98087e-27)
(5.55449e-07 -8.53992e-08 -1.01407e-27)
(4.92923e-07 -9.74741e-08 -1.29445e-27)
(5.58517e-07 -1.01613e-07 2.39282e-27)
(4.93966e-07 -1.14826e-07 -3.68731e-27)
(5.61104e-07 -1.18257e-07 1.07137e-28)
(4.94965e-07 -1.32484e-07 8.85147e-28)
(5.63218e-07 -1.35207e-07 1.78143e-27)
(4.959e-07 -1.50334e-07 1.20008e-28)
(5.64878e-07 -1.52343e-07 -1.37828e-27)
(4.96744e-07 -1.68265e-07 5.49099e-28)
(5.66111e-07 -1.69564e-07 -2.36443e-27)
(4.97483e-07 -1.86183e-07 -4.38818e-28)
(5.66976e-07 -1.86781e-07 2.35845e-27)
(4.9807e-07 -2.03948e-07 -2.69542e-27)
(5.06974e-07 -2.12668e-07 -6.71327e-27)
(5.24427e-07 -2.12637e-07 1.36527e-26)
(5.41756e-07 -2.1261e-07 -1.34451e-26)
(5.5901e-07 -2.12696e-07 -5.25319e-28)
(5.67528e-07 -2.04012e-07 5.96686e-30)
)
;
    }
    frontAndBackPlanes
    {
        type            empty;
    }
}


// ************************************************************************* //
