/*--------------------------------*- C++ -*----------------------------------*\
| =========                 |                                                 |
| \\      /  F ield         | OpenFOAM Extend Project: Open source CFD        |
|  \\    /   O peration     | Version:  1.6-ext                               |
|   \\  /    A nd           | Web:      www.extend-project.de                 |
|    \\/     M anipulation  |                                                 |
\*---------------------------------------------------------------------------*/
FoamFile
{
    version     2.0;
    format      ascii;
    class       volVectorField;
    location    "0.95";
    object      DU_0;
}
// * * * * * * * * * * * * * * * * * * * * * * * * * * * * * * * * * * * * * //

dimensions      [0 1 0 0 0 0 0];

internalField   nonuniform List<vector> 
328
(
(1.48677e-09 2.85088e-09 0)
(8.78688e-10 5.95939e-10 0)
(7.91645e-10 -4.2874e-10 0)
(1.0207e-09 -2.05484e-09 0)
(4.52836e-09 7.40755e-09 0)
(2.91365e-09 1.88781e-09 0)
(2.60914e-09 -1.10511e-09 0)
(3.11033e-09 -5.17906e-09 0)
(8.03605e-09 1.0974e-08 0)
(5.64721e-09 3.28639e-09 0)
(5.0325e-09 -1.5679e-09 0)
(5.54982e-09 -7.327e-09 0)
(1.18425e-08 1.37573e-08 0)
(8.84297e-09 4.72074e-09 0)
(7.8779e-09 -1.73951e-09 0)
(8.22848e-09 -8.60624e-09 0)
(1.59887e-08 1.60086e-08 0)
(1.25422e-08 6.16878e-09 0)
(1.11883e-08 -1.58808e-09 0)
(1.11903e-08 -9.1729e-09 0)
(2.04494e-08 1.7924e-08 0)
(1.66677e-08 7.63469e-09 0)
(1.49051e-08 -1.0935e-09 0)
(1.44305e-08 -9.14401e-09 0)
(2.52407e-08 1.96674e-08 0)
(2.12084e-08 9.14813e-09 0)
(1.90231e-08 -2.5437e-10 0)
(1.79761e-08 -8.6131e-09 0)
(3.03713e-08 2.13662e-08 0)
(2.61353e-08 1.07512e-08 0)
(2.35219e-08 9.25988e-10 0)
(2.18492e-08 -7.64501e-09 0)
(3.58583e-08 2.31239e-08 0)
(3.14406e-08 1.2494e-08 0)
(2.83987e-08 2.44104e-09 0)
(2.60798e-08 -6.28522e-09 0)
(4.17182e-08 2.50236e-08 0)
(3.71194e-08 1.44276e-08 0)
(3.36545e-08 4.2867e-09 0)
(3.06983e-08 -4.56178e-09 0)
(4.79683e-08 2.71333e-08 0)
(4.31779e-08 1.6601e-08 0)
(3.93008e-08 6.46248e-09 0)
(3.57381e-08 -2.48974e-09 0)
(5.46253e-08 2.95075e-08 0)
(4.96286e-08 1.90578e-08 0)
(4.53563e-08 8.97264e-09 0)
(4.12338e-08 -7.36029e-11 0)
(6.17054e-08 3.21895e-08 0)
(5.6491e-08 2.18351e-08 0)
(5.18472e-08 1.18253e-08 0)
(4.72227e-08 2.68948e-09 0)
(6.92246e-08 3.52121e-08 0)
(6.37899e-08 2.49618e-08 0)
(5.88059e-08 1.50306e-08 0)
(5.37444e-08 5.80681e-09 0)
(7.7199e-08 3.85974e-08 0)
(7.15542e-08 2.8458e-08 0)
(6.62702e-08 1.85985e-08 0)
(6.08416e-08 9.28668e-09 0)
(8.56448e-08 4.23566e-08 0)
(7.9816e-08 3.23337e-08 0)
(7.42818e-08 2.25347e-08 0)
(6.85606e-08 1.31347e-08 0)
(9.45792e-08 4.64889e-08 0)
(8.86094e-08 3.65872e-08 0)
(8.28853e-08 2.68379e-08 0)
(7.69515e-08 1.73497e-08 0)
(1.0402e-07 5.09792e-08 0)
(9.79697e-08 4.12028e-08 0)
(9.2128e-08 3.14946e-08 0)
(8.60678e-08 2.19196e-08 0)
(1.13988e-07 5.57954e-08 0)
(1.07934e-07 4.61479e-08 0)
(1.02059e-07 3.64756e-08 0)
(9.59664e-08 2.68167e-08 0)
(1.24503e-07 6.08848e-08 0)
(1.18539e-07 5.1369e-08 0)
(1.12727e-07 4.17309e-08 0)
(1.06707e-07 3.19931e-08 0)
(1.35591e-07 6.61703e-08 0)
(1.29824e-07 5.67879e-08 0)
(1.24185e-07 4.7185e-08 0)
(1.1835e-07 3.73761e-08 0)
(1.47278e-07 7.15455e-08 0)
(1.4183e-07 6.22968e-08 0)
(1.36483e-07 5.27328e-08 0)
(1.30956e-07 4.28638e-08 0)
(1.60066e-07 7.70736e-08 0)
(1.55084e-07 6.79621e-08 0)
(1.50175e-07 5.84442e-08 0)
(1.45107e-07 4.85281e-08 0)
(1.73509e-07 8.23064e-08 0)
(1.6914e-07 7.33283e-08 0)
(1.64814e-07 6.38642e-08 0)
(1.6035e-07 5.39216e-08 0)
(1.86737e-07 8.6752e-08 0)
(1.83069e-07 7.7893e-08 0)
(1.79416e-07 6.84877e-08 0)
(1.75646e-07 5.85433e-08 0)
(1.9978e-07 9.03333e-08 0)
(1.96878e-07 8.15795e-08 0)
(1.93962e-07 7.22381e-08 0)
(1.9095e-07 6.23161e-08 0)
(2.12668e-07 9.3e-08 0)
(2.10572e-07 8.43379e-08 0)
(2.08433e-07 7.50654e-08 0)
(2.06219e-07 6.51894e-08 0)
(2.25431e-07 9.4728e-08 0)
(2.24155e-07 8.61447e-08 0)
(2.22812e-07 7.6946e-08 0)
(2.21411e-07 6.71391e-08 0)
(2.38095e-07 9.55189e-08 0)
(2.37634e-07 8.70022e-08 0)
(2.37079e-07 7.78822e-08 0)
(2.36485e-07 6.81664e-08 0)
(2.50686e-07 9.53988e-08 0)
(2.51011e-07 8.69374e-08 0)
(2.51218e-07 7.79009e-08 0)
(2.51402e-07 6.82969e-08 0)
(2.63229e-07 9.44164e-08 0)
(2.6429e-07 8.60006e-08 0)
(2.65212e-07 7.70522e-08 0)
(2.66125e-07 6.7579e-08 0)
(2.75742e-07 9.26415e-08 0)
(2.77473e-07 8.42629e-08 0)
(2.79045e-07 7.54071e-08 0)
(2.8062e-07 6.60821e-08 0)
(2.88241e-07 9.01621e-08 0)
(2.9056e-07 8.18143e-08 0)
(2.92703e-07 7.30555e-08 0)
(2.94857e-07 6.38939e-08 0)
(3.0074e-07 8.70821e-08 0)
(3.03551e-07 7.87606e-08 0)
(3.06172e-07 7.01031e-08 0)
(3.08811e-07 6.11178e-08 0)
(3.13245e-07 8.35178e-08 0)
(3.16444e-07 7.52204e-08 0)
(3.19441e-07 6.66683e-08 0)
(3.22459e-07 5.78698e-08 0)
(3.25761e-07 7.95947e-08 0)
(3.29234e-07 7.13215e-08 0)
(3.32499e-07 6.28789e-08 0)
(3.35784e-07 5.42751e-08 0)
(3.38284e-07 7.54439e-08 0)
(3.41918e-07 6.71974e-08 0)
(3.45338e-07 5.88681e-08 0)
(3.48775e-07 5.04644e-08 0)
(3.50809e-07 7.11981e-08 0)
(3.54487e-07 6.29832e-08 0)
(3.57951e-07 5.47712e-08 0)
(3.61424e-07 4.65702e-08 0)
(3.63324e-07 6.69884e-08 0)
(3.66934e-07 5.88123e-08 0)
(3.70332e-07 5.07213e-08 0)
(3.73728e-07 4.27234e-08 0)
(3.75813e-07 6.29401e-08 0)
(3.79248e-07 5.48124e-08 0)
(3.82477e-07 4.6846e-08 0)
(3.85691e-07 3.9049e-08 0)
(3.88254e-07 5.91696e-08 0)
(3.91418e-07 5.11018e-08 0)
(3.94384e-07 4.32638e-08 0)
(3.97319e-07 3.56634e-08 0)
(4.00625e-07 5.57808e-08 0)
(4.03433e-07 4.77867e-08 0)
(4.06053e-07 4.00806e-08 0)
(4.08624e-07 3.26705e-08 0)
(4.12897e-07 5.2863e-08 0)
(4.15278e-07 4.49575e-08 0)
(4.17484e-07 3.73872e-08 0)
(4.19621e-07 3.01593e-08 0)
(4.25039e-07 5.04875e-08 0)
(4.26939e-07 4.26873e-08 0)
(4.28678e-07 3.52562e-08 0)
(4.30327e-07 2.82013e-08 0)
(4.37018e-07 4.87062e-08 0)
(4.38401e-07 4.10288e-08 0)
(4.39638e-07 3.37406e-08 0)
(4.40764e-07 2.68484e-08 0)
(4.48801e-07 4.75501e-08 0)
(4.4965e-07 4.00136e-08 0)
(4.50369e-07 3.28719e-08 0)
(4.50953e-07 2.61315e-08 0)
(4.60353e-07 4.7028e-08 0)
(4.60669e-07 3.96511e-08 0)
(4.60872e-07 3.26595e-08 0)
(4.60918e-07 2.60596e-08 0)
(4.71638e-07 4.71266e-08 0)
(4.71445e-07 3.99276e-08 0)
(4.71154e-07 3.30899e-08 0)
(4.70684e-07 2.66195e-08 0)
(4.82624e-07 4.78104e-08 0)
(4.81961e-07 4.08072e-08 0)
(4.81217e-07 3.41271e-08 0)
(4.80272e-07 2.77756e-08 0)
(4.93276e-07 4.90226e-08 0)
(4.92205e-07 4.22323e-08 0)
(4.91067e-07 3.57134e-08 0)
(4.89707e-07 2.94711e-08 0)
(5.03567e-07 5.06862e-08 0)
(5.02164e-07 4.41248e-08 0)
(5.00706e-07 3.77708e-08 0)
(4.99009e-07 3.16292e-08 0)
(5.13467e-07 5.2706e-08 0)
(5.11825e-07 4.63879e-08 0)
(5.10138e-07 4.02025e-08 0)
(5.08196e-07 3.41545e-08 0)
(5.22955e-07 5.49706e-08 0)
(5.21178e-07 4.89085e-08 0)
(5.19364e-07 4.28954e-08 0)
(5.17284e-07 3.69356e-08 0)
(5.32008e-07 5.73555e-08 0)
(5.30213e-07 5.15599e-08 0)
(5.28387e-07 4.57227e-08 0)
(5.26283e-07 3.98478e-08 0)
(5.40613e-07 5.97252e-08 0)
(5.38923e-07 5.42048e-08 0)
(5.37206e-07 4.8547e-08 0)
(5.35203e-07 4.27557e-08 0)
(5.48757e-07 6.19374e-08 0)
(5.47303e-07 5.66983e-08 0)
(5.4582e-07 5.12234e-08 0)
(5.44048e-07 4.55165e-08 0)
(5.56435e-07 6.38457e-08 0)
(5.55346e-07 5.88914e-08 0)
(5.54226e-07 5.36029e-08 0)
(5.52816e-07 4.79836e-08 0)
(5.63646e-07 6.53032e-08 0)
(5.63052e-07 6.06351e-08 0)
(5.62421e-07 5.55361e-08 0)
(5.61502e-07 5.00098e-08 0)
(5.70391e-07 6.61661e-08 0)
(5.70419e-07 6.1783e-08 0)
(5.704e-07 5.68769e-08 0)
(5.70098e-07 5.1451e-08 0)
(5.7668e-07 6.62973e-08 0)
(5.77448e-07 6.21957e-08 0)
(5.78156e-07 5.74853e-08 0)
(5.7859e-07 5.21695e-08 0)
(5.82525e-07 6.55694e-08 0)
(5.8414e-07 6.17435e-08 0)
(5.85681e-07 5.72317e-08 0)
(5.86959e-07 5.20374e-08 0)
(5.87941e-07 6.38677e-08 0)
(5.90499e-07 6.03098e-08 0)
(5.92967e-07 5.59994e-08 0)
(5.95184e-07 5.09397e-08 0)
(5.92948e-07 6.10933e-08 0)
(5.9653e-07 5.77939e-08 0)
(6.00003e-07 5.36873e-08 0)
(6.03241e-07 4.87768e-08 0)
(5.97568e-07 5.71653e-08 0)
(6.02238e-07 5.41135e-08 0)
(6.06779e-07 5.0213e-08 0)
(6.11101e-07 4.54672e-08 0)
(6.01827e-07 5.20227e-08 0)
(6.0763e-07 4.92064e-08 0)
(6.13283e-07 4.55142e-08 0)
(6.18735e-07 4.09493e-08 0)
(6.0575e-07 4.5626e-08 0)
(6.12712e-07 4.30324e-08 0)
(6.19504e-07 3.95503e-08 0)
(6.26111e-07 3.51831e-08 0)
(6.09364e-07 3.79579e-08 0)
(6.17492e-07 3.55737e-08 0)
(6.25428e-07 3.23034e-08 0)
(6.33197e-07 2.81505e-08 0)
(6.12697e-07 2.90237e-08 0)
(6.21977e-07 2.68357e-08 0)
(6.31045e-07 2.37788e-08 0)
(6.39963e-07 1.98563e-08 0)
(6.15774e-07 1.88513e-08 0)
(6.26174e-07 1.68468e-08 0)
(6.36341e-07 1.40045e-08 0)
(6.46375e-07 1.03278e-08 0)
(6.18621e-07 7.48977e-09 0)
(6.30089e-07 5.65678e-09 0)
(6.41307e-07 3.03024e-09 0)
(6.52406e-07 -3.86436e-10 0)
(6.21259e-07 -4.99167e-09 0)
(6.33728e-07 -6.66378e-09 0)
(6.45932e-07 -9.07361e-09 0)
(6.58029e-07 -1.22178e-08 0)
(6.23707e-07 -1.85059e-08 0)
(6.37096e-07 -2.00262e-08 0)
(6.50205e-07 -2.22185e-08 0)
(6.63218e-07 -2.50795e-08 0)
(6.25981e-07 -3.29504e-08 0)
(6.40196e-07 -3.4326e-08 0)
(6.5412e-07 -3.63001e-08 0)
(6.67955e-07 -3.88695e-08 0)
(6.28093e-07 -4.82103e-08 0)
(6.4303e-07 -4.94461e-08 0)
(6.5767e-07 -5.12014e-08 0)
(6.72225e-07 -5.34733e-08 0)
(6.30047e-07 -6.41618e-08 0)
(6.45598e-07 -6.52601e-08 0)
(6.60849e-07 -6.67961e-08 0)
(6.76015e-07 -6.87672e-08 0)
(6.31846e-07 -8.06762e-08 0)
(6.479e-07 -8.16366e-08 0)
(6.63655e-07 -8.29524e-08 0)
(6.79322e-07 -8.46223e-08 0)
(6.33485e-07 -9.76233e-08 0)
(6.49932e-07 -9.84425e-08 0)
(6.66086e-07 -9.95372e-08 0)
(6.82146e-07 -1.00908e-07 0)
(6.34954e-07 -1.14876e-07 0)
(6.5169e-07 -1.15548e-07 0)
(6.68143e-07 -1.1642e-07 0)
(6.84492e-07 -1.17497e-07 0)
(6.36238e-07 -1.32316e-07 0)
(6.53166e-07 -1.3283e-07 0)
(6.69827e-07 -1.33477e-07 0)
(6.86376e-07 -1.34268e-07 0)
(6.37313e-07 -1.49831e-07 0)
(6.54347e-07 -1.50177e-07 0)
(6.71139e-07 -1.50598e-07 0)
(6.87813e-07 -1.51116e-07 0)
(6.38164e-07 -1.67322e-07 0)
(6.55234e-07 -1.67489e-07 0)
(6.72097e-07 -1.67692e-07 0)
(6.8884e-07 -1.67952e-07 0)
(6.38734e-07 -1.84652e-07 0)
(6.55797e-07 -1.8467e-07 0)
(6.72684e-07 -1.84704e-07 0)
(6.89459e-07 -1.84781e-07 0)
)
;

boundaryField
{
    plateFix
    {
        type            fixedDisplacement;
        value           uniform (0 0 0);
    }
    plate
    {
        type            solidTraction;
        nonLinear       updatedLagrangian;
        traction        uniform (0 0 0);
        pressure        uniform 0;
        value           nonuniform List<vector> 
168
(
(1.40974e-08 7.74294e-09 -5.13423e-27)
(9.93941e-09 -5.38603e-09 -8.82979e-30)
(1.40247e-08 1.24503e-08 2.6724e-26)
(9.30574e-09 -8.63974e-09 6.25108e-26)
(1.49564e-08 1.62308e-08 1.81989e-27)
(9.31592e-09 -1.09813e-08 -1.69729e-26)
(1.69543e-08 1.90862e-08 -2.24412e-26)
(1.01311e-08 -1.2363e-08 -1.67617e-27)
(1.99285e-08 2.13873e-08 -7.67833e-28)
(1.17242e-08 -1.30271e-08 3.58336e-26)
(2.36702e-08 2.33152e-08 1.71445e-27)
(1.39587e-08 -1.30774e-08 -5.22206e-26)
(2.80614e-08 2.50585e-08 1.67884e-26)
(1.67635e-08 -1.26242e-08 1.90019e-26)
(3.30085e-08 2.67456e-08 -3.19129e-26)
(2.00835e-08 -1.17317e-08 7.9751e-28)
(3.84578e-08 2.84847e-08 8.10405e-28)
(2.38945e-08 -1.04475e-08 -2.06088e-27)
(4.43735e-08 3.03587e-08 1.03658e-26)
(2.81876e-08 -8.79896e-09 1.33451e-27)
(5.07362e-08 3.24357e-08 1.24555e-26)
(3.29685e-08 -6.80067e-09 -2.34553e-27)
(5.75352e-08 3.477e-08 -1.79577e-26)
(3.82534e-08 -4.45657e-09 -1.16132e-26)
(6.47665e-08 3.7405e-08 8.54528e-27)
(4.40674e-08 -1.76357e-09 -1.26922e-27)
(7.24309e-08 4.03736e-08 -8.40821e-27)
(5.0444e-08 1.28564e-09 2.15196e-26)
(8.05324e-08 4.36985e-08 7.52094e-29)
(5.7424e-08 4.69921e-09 -1.7252e-26)
(8.90782e-08 4.73918e-08 1.24107e-26)
(6.50551e-08 8.48262e-09 1.03327e-26)
(9.80772e-08 5.14533e-08 -6.97211e-27)
(7.33913e-08 1.26347e-08 -1.12488e-26)
(1.07541e-07 5.58689e-08 -5.13708e-27)
(8.24917e-08 1.71436e-08 9.05673e-27)
(1.17482e-07 6.06074e-08 9.12535e-27)
(9.24199e-08 2.19822e-08 -1.39396e-26)
(1.27915e-07 6.56172e-08 -7.68905e-27)
(1.03242e-07 2.71035e-08 -7.27505e-27)
(1.38859e-07 7.08223e-08 5.74227e-27)
(1.15027e-07 3.24363e-08 1.26574e-26)
(1.50336e-07 7.61172e-08 -5.46236e-27)
(1.2784e-07 3.788e-08 2.50766e-27)
(1.62831e-07 8.15642e-08 4.42278e-27)
(1.42279e-07 4.35083e-08 -9.14297e-27)
(1.75906e-07 8.67196e-08 -9.93548e-29)
(1.57885e-07 4.88778e-08 4.34333e-27)
(1.88721e-07 9.10974e-08 5.14789e-27)
(1.73588e-07 5.34905e-08 1.54031e-26)
(2.0132e-07 9.46205e-08 -3.70083e-27)
(1.89332e-07 5.72691e-08 5.60361e-28)
(2.13745e-07 9.72382e-08 -9.15228e-27)
(2.05059e-07 6.01627e-08 -1.47644e-26)
(2.26038e-07 9.89264e-08 8.45383e-27)
(2.20714e-07 6.21468e-08 -6.25823e-27)
(2.38241e-07 9.96862e-08 -6.67904e-31)
(2.36245e-07 6.3222e-08 2.28608e-26)
(2.50389e-07 9.95428e-08 3.83921e-27)
(2.51599e-07 6.34131e-08 -3.23285e-27)
(2.62518e-07 9.85441e-08 2.61815e-27)
(2.6673e-07 6.27676e-08 -2.02658e-26)
(2.74657e-07 9.67589e-08 -1.62048e-27)
(2.81593e-07 6.13534e-08 4.13919e-27)
(2.8683e-07 9.4274e-08 -1.77348e-27)
(2.96151e-07 5.92571e-08 3.69307e-27)
(2.99057e-07 9.11921e-08 -6.87353e-27)
(3.10371e-07 5.65806e-08 -3.51821e-27)
(3.11351e-07 8.76279e-08 -8.03116e-27)
(3.24224e-07 5.34384e-08 5.36563e-28)
(3.2372e-07 8.37055e-08 7.59786e-27)
(3.37691e-07 4.9954e-08 -7.1692e-27)
(3.36162e-07 7.95544e-08 -6.88831e-27)
(3.50757e-07 4.62563e-08 -3.57747e-29)
(3.48672e-07 7.53058e-08 -1.02138e-27)
(3.63415e-07 4.24765e-08 4.85712e-27)
(3.61236e-07 7.10891e-08 -1.00845e-27)
(3.75665e-07 3.87434e-08 -5.34215e-27)
(3.73833e-07 6.70281e-08 3.50637e-27)
(3.87513e-07 3.51809e-08 -4.14567e-27)
(3.8644e-07 6.3238e-08 -2.94534e-27)
(3.98972e-07 3.19037e-08 -1.26303e-27)
(3.99023e-07 5.98214e-08 1.64788e-27)
(4.10059e-07 2.90145e-08 -6.22589e-29)
(4.11547e-07 5.68665e-08 -8.07036e-29)
(4.20797e-07 2.66013e-08 4.31765e-27)
(4.23973e-07 5.44437e-08 1.42444e-27)
(4.31215e-07 2.47347e-08 -4.89023e-27)
(4.36257e-07 5.26043e-08 3.52687e-27)
(4.41342e-07 2.34659e-08 4.69434e-27)
(4.48355e-07 5.13788e-08 -2.40772e-27)
(4.51211e-07 2.28255e-08 3.18304e-27)
(4.60221e-07 5.07759e-08 1.56048e-27)
(4.60858e-07 2.28223e-08 1.93554e-27)
(4.71808e-07 5.07823e-08 -1.19263e-26)
(4.70317e-07 2.34431e-08 -4.45527e-27)
(4.83073e-07 5.13629e-08 -6.50357e-27)
(4.79622e-07 2.46527e-08 4.43455e-27)
(4.93971e-07 5.24612e-08 3.97651e-27)
(4.88807e-07 2.6395e-08 7.09166e-28)
(5.04465e-07 5.40011e-08 4.58533e-27)
(4.97902e-07 2.85936e-08 2.36455e-28)
(5.14517e-07 5.58884e-08 1.08965e-26)
(5.06934e-07 3.11544e-08 -2.65321e-28)
(5.24097e-07 5.80128e-08 8.22367e-27)
(5.15925e-07 3.39671e-08 4.15654e-27)
(5.33179e-07 6.0251e-08 5.33845e-28)
(5.24893e-07 3.69082e-08 -5.05837e-27)
(5.41742e-07 6.24692e-08 3.19795e-27)
(5.33851e-07 3.98435e-08 1.04372e-27)
(5.49773e-07 6.45263e-08 -2.36458e-28)
(5.42805e-07 4.26319e-08 -7.70972e-28)
(5.57265e-07 6.62775e-08 -5.13287e-28)
(5.51756e-07 4.51281e-08 4.11311e-28)
(5.64217e-07 6.75776e-08 3.63117e-27)
(5.60698e-07 4.71865e-08 9.36708e-28)
(5.70633e-07 6.82843e-08 -3.54566e-27)
(5.6962e-07 4.86643e-08 8.67692e-28)
(5.76527e-07 6.8262e-08 3.04505e-27)
(5.78504e-07 4.94252e-08 4.89137e-29)
(5.81916e-07 6.73846e-08 7.30151e-28)
(5.87326e-07 4.93425e-08 -1.26546e-27)
(5.86823e-07 6.55389e-08 3.76725e-28)
(5.96057e-07 4.83024e-08 6.3163e-28)
(5.91276e-07 6.2627e-08 -8.76322e-28)
(6.04664e-07 4.62061e-08 -4.40934e-28)
(5.95307e-07 5.85689e-08 -1.22779e-27)
(6.13111e-07 4.29729e-08 -1.1438e-27)
(5.98951e-07 5.33044e-08 1.19816e-27)
(6.21356e-07 3.85418e-08 4.51407e-28)
(6.02246e-07 4.67944e-08 -3.02613e-27)
(6.29359e-07 3.28727e-08 -1.10748e-27)
(6.05228e-07 3.90218e-08 -4.37391e-28)
(6.37075e-07 2.59479e-08 -3.30714e-28)
(6.07937e-07 2.9992e-08 -9.3094e-31)
(6.44461e-07 1.77719e-08 1.41389e-27)
(6.1041e-07 1.97325e-08 -1.01771e-33)
(6.51476e-07 8.37123e-09 2.2107e-28)
(6.12681e-07 8.29179e-09 -1.95964e-27)
(6.58079e-07 -2.20614e-09 -1.16886e-29)
(6.14782e-07 -4.26168e-09 -1.78588e-27)
(6.64235e-07 -1.38926e-08 -1.38274e-28)
(6.16742e-07 -1.78419e-08 -2.06625e-27)
(6.69912e-07 -2.66026e-08 6.71262e-28)
(6.18581e-07 -3.23475e-08 -1.17674e-27)
(6.75081e-07 -4.02356e-08 9.88377e-28)
(6.20317e-07 -4.76653e-08 7.82573e-28)
(6.79724e-07 -5.46785e-08 -1.08174e-28)
(6.21959e-07 -6.3673e-08 1.16313e-28)
(6.83824e-07 -6.98095e-08 8.35996e-28)
(6.23511e-07 -8.02434e-08 1.21314e-27)
(6.87376e-07 -8.55015e-08 2.63123e-27)
(6.24966e-07 -9.72487e-08 1.21649e-28)
(6.90381e-07 -1.01626e-07 9.08455e-29)
(6.26313e-07 -1.14563e-07 1.66766e-27)
(6.92846e-07 -1.18058e-07 7.13779e-28)
(6.27534e-07 -1.32071e-07 -9.58438e-28)
(6.94793e-07 -1.34676e-07 -5.99774e-28)
(6.28598e-07 -1.4966e-07 -2.54221e-27)
(6.96244e-07 -1.5138e-07 6.25197e-28)
(6.29496e-07 -1.67237e-07 4.89392e-27)
(6.97265e-07 -1.68078e-07 -1.73758e-27)
(6.30173e-07 -1.8465e-07 2.46361e-27)
(6.38913e-07 -1.93193e-07 8.42534e-27)
(6.5598e-07 -1.93168e-07 -1.70819e-26)
(6.72877e-07 -1.93138e-07 8.74027e-27)
(6.89651e-07 -1.93228e-07 -1.73816e-26)
(6.97901e-07 -1.84799e-07 5.26447e-27)
)
;
    }
    frontAndBackPlanes
    {
        type            empty;
    }
}


// ************************************************************************* //
