/*--------------------------------*- C++ -*----------------------------------*\
| =========                 |                                                 |
| \\      /  F ield         | OpenFOAM Extend Project: Open source CFD        |
|  \\    /   O peration     | Version:  1.6-ext                               |
|   \\  /    A nd           | Web:      www.extend-project.de                 |
|    \\/     M anipulation  |                                                 |
\*---------------------------------------------------------------------------*/
FoamFile
{
    version     2.0;
    format      ascii;
    class       volVectorField;
    location    "0.95";
    object      DV;
}
// * * * * * * * * * * * * * * * * * * * * * * * * * * * * * * * * * * * * * //

dimensions      [0 1 -1 0 0 0 0];

internalField   nonuniform List<vector> 
328
(
(-2.66913e-07 -5.28629e-07 0)
(-1.78152e-07 -1.15193e-07 0)
(-1.79028e-07 1.03799e-07 0)
(-2.6913e-07 5.19711e-07 0)
(-8.12791e-07 -1.35795e-06 0)
(-5.8904e-07 -3.3588e-07 0)
(-5.91888e-07 3.0372e-07 0)
(-8.20237e-07 1.33173e-06 0)
(-1.44525e-06 -1.97693e-06 0)
(-1.13907e-06 -5.44217e-07 0)
(-1.14439e-06 4.93115e-07 0)
(-1.45915e-06 1.9338e-06 0)
(-2.13465e-06 -2.4187e-06 0)
(-1.78347e-06 -7.241e-07 0)
(-1.79153e-06 6.56362e-07 0)
(-2.15613e-06 2.36005e-06 0)
(-2.88998e-06 -2.72619e-06 0)
(-2.5312e-06 -8.69481e-07 0)
(-2.54234e-06 7.8799e-07 0)
(-2.92033e-06 2.6546e-06 0)
(-3.70805e-06 -2.9324e-06 0)
(-3.36777e-06 -9.7832e-07 0)
(-3.38231e-06 8.86647e-07 0)
(-3.74857e-06 2.85139e-06 0)
(-4.59343e-06 -3.06441e-06 0)
(-4.29143e-06 -1.05327e-06 0)
(-4.30975e-06 9.55719e-07 0)
(-4.64549e-06 2.97832e-06 0)
(-5.54943e-06 -3.14241e-06 0)
(-5.29691e-06 -1.09882e-06 0)
(-5.31939e-06 1.00044e-06 0)
(-5.6144e-06 3.05627e-06 0)
(-6.5811e-06 -3.18199e-06 0)
(-6.38306e-06 -1.12062e-06 0)
(-6.41014e-06 1.02724e-06 0)
(-6.66034e-06 3.10151e-06 0)
(-7.6935e-06 -3.19467e-06 0)
(-7.54951e-06 -1.12421e-06 0)
(-7.58161e-06 1.04237e-06 0)
(-7.78832e-06 3.12625e-06 0)
(-8.8921e-06 -3.18898e-06 0)
(-8.79816e-06 -1.11448e-06 0)
(-8.8357e-06 1.0515e-06 0)
(-9.00371e-06 3.1397e-06 0)
(-1.01824e-05 -3.17083e-06 0)
(-1.01324e-05 -1.09525e-06 0)
(-1.01757e-05 1.05924e-06 0)
(-1.0312e-05 3.14856e-06 0)
(-1.15703e-05 -3.1441e-06 0)
(-1.15571e-05 -1.06915e-06 0)
(-1.16067e-05 1.06913e-06 0)
(-1.17189e-05 3.15761e-06 0)
(-1.30617e-05 -3.11097e-06 0)
(-1.30784e-05 -1.03768e-06 0)
(-1.31346e-05 1.08368e-06 0)
(-1.32304e-05 3.17009e-06 0)
(-1.46629e-05 -3.07227e-06 0)
(-1.47036e-05 -1.00126e-06 0)
(-1.47667e-05 1.10467e-06 0)
(-1.48527e-05 3.18817e-06 0)
(-1.63808e-05 -3.02779e-06 0)
(-1.64405e-05 -9.59521e-07 0)
(-1.65108e-05 1.13335e-06 0)
(-1.65925e-05 3.21329e-06 0)
(-1.82226e-05 -2.97653e-06 0)
(-1.82978e-05 -9.11413e-07 0)
(-1.83754e-05 1.17075e-06 0)
(-1.8457e-05 3.24648e-06 0)
(-2.01963e-05 -2.91701e-06 0)
(-2.02842e-05 -8.55468e-07 0)
(-2.03693e-05 1.21781e-06 0)
(-2.04537e-05 3.28866e-06 0)
(-2.23101e-05 -2.84748e-06 0)
(-2.2409e-05 -7.89993e-07 0)
(-2.25016e-05 1.27553e-06 0)
(-2.25906e-05 3.34065e-06 0)
(-2.45733e-05 -2.76619e-06 0)
(-2.46819e-05 -7.13321e-07 0)
(-2.47816e-05 1.34488e-06 0)
(-2.48761e-05 3.40324e-06 0)
(-2.69955e-05 -2.67165e-06 0)
(-2.71125e-05 -6.24087e-07 0)
(-2.72188e-05 1.4266e-06 0)
(-2.73187e-05 3.47696e-06 0)
(-2.95871e-05 -2.56301e-06 0)
(-2.9711e-05 -5.21564e-07 0)
(-2.98226e-05 1.52091e-06 0)
(-2.99271e-05 3.56183e-06 0)
(-3.24643e-05 -2.43562e-06 0)
(-3.25934e-05 -4.01575e-07 0)
(-3.27089e-05 1.63123e-06 0)
(-3.28163e-05 3.66062e-06 0)
(-3.55329e-05 -2.29496e-06 0)
(-3.56644e-05 -2.69662e-07 0)
(-3.5781e-05 1.75196e-06 0)
(-3.58886e-05 3.7679e-06 0)
(-3.85888e-05 -2.15392e-06 0)
(-3.87195e-05 -1.38337e-07 0)
(-3.88342e-05 1.87115e-06 0)
(-3.89389e-05 3.87259e-06 0)
(-4.16305e-05 -2.01623e-06 0)
(-4.17573e-05 -1.14126e-08 0)
(-4.18671e-05 1.98496e-06 0)
(-4.19656e-05 3.97097e-06 0)
(-4.46562e-05 -1.88514e-06 0)
(-4.47761e-05 1.0783e-07 0)
(-4.4878e-05 2.09011e-06 0)
(-4.49676e-05 4.05977e-06 0)
(-4.76642e-05 -1.76339e-06 0)
(-4.77744e-05 2.16649e-07 0)
(-4.78657e-05 2.18384e-06 0)
(-4.79436e-05 4.13626e-06 0)
(-5.06526e-05 -1.65335e-06 0)
(-5.07506e-05 3.12696e-07 0)
(-5.08287e-05 2.26381e-06 0)
(-5.08922e-05 4.19809e-06 0)
(-5.362e-05 -1.55724e-06 0)
(-5.37031e-05 3.93798e-07 0)
(-5.37654e-05 2.32786e-06 0)
(-5.38121e-05 4.24305e-06 0)
(-5.65647e-05 -1.4773e-06 0)
(-5.66306e-05 4.57735e-07 0)
(-5.66745e-05 2.37377e-06 0)
(-5.67018e-05 4.26891e-06 0)
(-5.94855e-05 -1.41597e-06 0)
(-5.95314e-05 5.02098e-07 0)
(-5.95544e-05 2.39913e-06 0)
(-5.95597e-05 4.27327e-06 0)
(-6.23807e-05 -1.37589e-06 0)
(-6.24041e-05 5.24225e-07 0)
(-6.24036e-05 2.4013e-06 0)
(-6.23844e-05 4.2535e-06 0)
(-6.5249e-05 -1.3599e-06 0)
(-6.52473e-05 5.21246e-07 0)
(-6.52208e-05 2.37742e-06 0)
(-6.51744e-05 4.20677e-06 0)
(-6.80887e-05 -1.37093e-06 0)
(-6.80593e-05 4.90189e-07 0)
(-6.80044e-05 2.3245e-06 0)
(-6.79285e-05 4.1302e-06 0)
(-7.08981e-05 -1.41184e-06 0)
(-7.08388e-05 4.2814e-07 0)
(-7.07532e-05 2.23966e-06 0)
(-7.06453e-05 4.02093e-06 0)
(-7.36754e-05 -1.48526e-06 0)
(-7.35841e-05 3.32413e-07 0)
(-7.34658e-05 2.12022e-06 0)
(-7.33239e-05 3.87638e-06 0)
(-7.64186e-05 -1.59344e-06 0)
(-7.62936e-05 2.00703e-07 0)
(-7.6141e-05 1.96387e-06 0)
(-7.59635e-05 3.69431e-06 0)
(-7.91257e-05 -1.73813e-06 0)
(-7.89657e-05 3.1218e-08 0)
(-7.87776e-05 1.76883e-06 0)
(-7.85632e-05 3.47299e-06 0)
(-8.17946e-05 -1.92051e-06 0)
(-8.15988e-05 -1.77233e-07 0)
(-8.13745e-05 1.53393e-06 0)
(-8.11225e-05 3.21128e-06 0)
(-8.4423e-05 -2.14112e-06 0)
(-8.41912e-05 -4.25195e-07 0)
(-8.39306e-05 1.25862e-06 0)
(-8.36407e-05 2.90867e-06 0)
(-8.7009e-05 -2.39985e-06 0)
(-8.67415e-05 -7.12556e-07 0)
(-8.64447e-05 9.43032e-07 0)
(-8.61173e-05 2.5653e-06 0)
(-8.95505e-05 -2.69598e-06 0)
(-8.9248e-05 -1.03857e-06 0)
(-8.89159e-05 5.87921e-07 0)
(-8.85518e-05 2.1819e-06 0)
(-9.20453e-05 -3.02824e-06 0)
(-9.17093e-05 -1.40191e-06 0)
(-9.1343e-05 1.94626e-07 0)
(-9.09435e-05 1.75982e-06 0)
(-9.44917e-05 -3.39481e-06 0)
(-9.41237e-05 -1.80073e-06 0)
(-9.37251e-05 -2.34992e-07 0)
(-9.32919e-05 1.30088e-06 0)
(-9.68879e-05 -3.79348e-06 0)
(-9.649e-05 -2.23273e-06 0)
(-9.6061e-05 -6.98633e-07 0)
(-9.55963e-05 8.07353e-07 0)
(-9.92321e-05 -4.22165e-06 0)
(-9.88068e-05 -2.69529e-06 0)
(-9.83497e-05 -1.19364e-06 0)
(-9.78559e-05 2.81874e-07 0)
(-0.000101523 -4.67645e-06 0)
(-0.000101073 -3.18546e-06 0)
(-0.00010059 -1.71706e-06 0)
(-0.00010007 -2.72649e-07 0)
(-0.000103759 -5.15484e-06 0)
(-0.000103287 -3.70013e-06 0)
(-0.000102781 -2.26577e-06 0)
(-0.000102238 -8.531e-07 0)
(-0.000105938 -5.6536e-06 0)
(-0.000105447 -4.23604e-06 0)
(-0.000104922 -2.83648e-06 0)
(-0.000104358 -1.45623e-06 0)
(-0.00010806 -6.16948e-06 0)
(-0.000107553 -4.78986e-06 0)
(-0.000107012 -3.42585e-06 0)
(-0.00010643 -2.07871e-06 0)
(-0.000110124 -6.69918e-06 0)
(-0.000109604 -5.35826e-06 0)
(-0.000109049 -4.03053e-06 0)
(-0.000108452 -2.71719e-06 0)
(-0.000112128 -7.23943e-06 0)
(-0.000111598 -5.93792e-06 0)
(-0.000111032 -4.64717e-06 0)
(-0.000110425 -3.36835e-06 0)
(-0.000114071 -7.78703e-06 0)
(-0.000113534 -6.52559e-06 0)
(-0.000112961 -5.2725e-06 0)
(-0.000112346 -4.0289e-06 0)
(-0.000115953 -8.33883e-06 0)
(-0.000115413 -7.11807e-06 0)
(-0.000114835 -5.90331e-06 0)
(-0.000114214 -4.69564e-06 0)
(-0.000117773 -8.89179e-06 0)
(-0.000117231 -7.71229e-06 0)
(-0.000116652 -6.5365e-06 0)
(-0.000116029 -5.36546e-06 0)
(-0.000119529 -9.44295e-06 0)
(-0.00011899 -8.30526e-06 0)
(-0.000118412 -7.16905e-06 0)
(-0.00011779 -6.03532e-06 0)
(-0.000121222 -9.98946e-06 0)
(-0.000120688 -8.89408e-06 0)
(-0.000120113 -7.79805e-06 0)
(-0.000119495 -6.7023e-06 0)
(-0.000122851 -1.05286e-05 0)
(-0.000122323 -9.47596e-06 0)
(-0.000121756 -8.42066e-06 0)
(-0.000121143 -7.36357e-06 0)
(-0.000124414 -1.10576e-05 0)
(-0.000123897 -1.00482e-05 0)
(-0.000123338 -9.03417e-06 0)
(-0.000122734 -8.01639e-06 0)
(-0.000125913 -1.1574e-05 0)
(-0.000125407 -1.06082e-05 0)
(-0.000124859 -9.63596e-06 0)
(-0.000124267 -8.65815e-06 0)
(-0.000127345 -1.20755e-05 0)
(-0.000126853 -1.11535e-05 0)
(-0.000126319 -1.02236e-05 0)
(-0.00012574 -9.28638e-06 0)
(-0.000128711 -1.25597e-05 0)
(-0.000128235 -1.16819e-05 0)
(-0.000127717 -1.07947e-05 0)
(-0.000127153 -9.89878e-06 0)
(-0.00013001 -1.30247e-05 0)
(-0.000129552 -1.21912e-05 0)
(-0.000129051 -1.13472e-05 0)
(-0.000128504 -1.04933e-05 0)
(-0.000131243 -1.34687e-05 0)
(-0.000130804 -1.26798e-05 0)
(-0.000130321 -1.18794e-05 0)
(-0.000129792 -1.10681e-05 0)
(-0.000132409 -1.38906e-05 0)
(-0.00013199 -1.31462e-05 0)
(-0.000131526 -1.23898e-05 0)
(-0.000131017 -1.16218e-05 0)
(-0.000133509 -1.42893e-05 0)
(-0.000133111 -1.35896e-05 0)
(-0.000132666 -1.28774e-05 0)
(-0.000132176 -1.21535e-05 0)
(-0.000134542 -1.46645e-05 0)
(-0.000134164 -1.40094e-05 0)
(-0.00013374 -1.3342e-05 0)
(-0.00013327 -1.26626e-05 0)
(-0.000135509 -1.50164e-05 0)
(-0.000135152 -1.44059e-05 0)
(-0.000134747 -1.37834e-05 0)
(-0.000134296 -1.31494e-05 0)
(-0.00013641 -1.53456e-05 0)
(-0.000136072 -1.47797e-05 0)
(-0.000135686 -1.42025e-05 0)
(-0.000135254 -1.36143e-05 0)
(-0.000137246 -1.56533e-05 0)
(-0.000136926 -1.51321e-05 0)
(-0.000136557 -1.46004e-05 0)
(-0.000136143 -1.40586e-05 0)
(-0.000138015 -1.59412e-05 0)
(-0.000137712 -1.54646e-05 0)
(-0.00013736 -1.49787e-05 0)
(-0.000136962 -1.44838e-05 0)
(-0.000138719 -1.62114e-05 0)
(-0.000138431 -1.57795e-05 0)
(-0.000138093 -1.53395e-05 0)
(-0.00013771 -1.48918e-05 0)
(-0.000139357 -1.64659e-05 0)
(-0.000139082 -1.60789e-05 0)
(-0.000138757 -1.56851e-05 0)
(-0.000138386 -1.5285e-05 0)
(-0.000139929 -1.67073e-05 0)
(-0.000139665 -1.63652e-05 0)
(-0.00013935 -1.60178e-05 0)
(-0.00013899 -1.56655e-05 0)
(-0.000140435 -1.69377e-05 0)
(-0.00014018 -1.66408e-05 0)
(-0.000139874 -1.634e-05 0)
(-0.000139522 -1.60356e-05 0)
(-0.000140874 -1.71594e-05 0)
(-0.000140626 -1.69079e-05 0)
(-0.000140327 -1.6654e-05 0)
(-0.000139982 -1.63977e-05 0)
(-0.000141246 -1.73747e-05 0)
(-0.000141003 -1.71689e-05 0)
(-0.000140709 -1.6962e-05 0)
(-0.000140368 -1.67539e-05 0)
(-0.000141551 -1.75854e-05 0)
(-0.000141311 -1.74258e-05 0)
(-0.00014102 -1.72663e-05 0)
(-0.000140683 -1.71065e-05 0)
(-0.000141788 -1.77946e-05 0)
(-0.000141549 -1.76814e-05 0)
(-0.000141259 -1.75691e-05 0)
(-0.000140923 -1.74574e-05 0)
(-0.000141959 -1.80044e-05 0)
(-0.000141719 -1.79383e-05 0)
(-0.00014143 -1.78733e-05 0)
(-0.000141094 -1.78098e-05 0)
(-0.000142053 -1.82265e-05 0)
(-0.000141812 -1.8202e-05 0)
(-0.000141523 -1.81803e-05 0)
(-0.000141185 -1.81588e-05 0)
)
;

boundaryField
{
    plateFix
    {
        type            calculated;
        value           uniform (0 0 0);
    }
    plate
    {
        type            calculated;
        value           nonuniform List<vector> 
168
(
(-2.57705e-06 -1.40833e-06 4.21795e-23)
(-2.55863e-06 1.39727e-06 4.93124e-25)
(-2.49985e-06 -2.26682e-06 -6.64347e-23)
(-2.4856e-06 2.24021e-06 -1.96908e-22)
(-2.59724e-06 -2.92861e-06 3.18086e-23)
(-2.59022e-06 2.88669e-06 5.98148e-23)
(-2.8925e-06 -3.38843e-06 3.03234e-23)
(-2.89684e-06 3.33222e-06 8.46775e-24)
(-3.37342e-06 -3.71112e-06 1.16194e-23)
(-3.39271e-06 3.64299e-06 -1.09209e-22)
(-4.0036e-06 -3.92669e-06 -1.48037e-23)
(-4.0404e-06 3.84998e-06 1.57825e-22)
(-4.76317e-06 -4.06663e-06 -6.64293e-23)
(-4.81941e-06 3.9855e-06 -4.9026e-23)
(-5.63646e-06 -4.15117e-06 1.48313e-22)
(-5.71364e-06 4.07048e-06 1.89105e-24)
(-6.61527e-06 -4.19662e-06 -2.93135e-23)
(-6.71466e-06 4.1219e-06 -5.25493e-24)
(-7.69495e-06 -4.21443e-06 -3.46492e-23)
(-7.81765e-06 4.15189e-06 -1.34088e-24)
(-8.87409e-06 -4.21307e-06 -6.23142e-23)
(-9.02114e-06 4.16963e-06 2.32408e-23)
(-1.01533e-05 -4.19836e-06 7.96894e-23)
(-1.03257e-05 4.18176e-06 6.35207e-24)
(-1.15349e-05 -4.17415e-06 -1.50475e-23)
(-1.17337e-05 4.19304e-06 1.11005e-23)
(-1.30225e-05 -4.14263e-06 1.20222e-23)
(-1.32487e-05 4.20676e-06 -6.91039e-23)
(-1.46209e-05 -4.10471e-06 4.06966e-24)
(-1.48758e-05 4.22516e-06 6.15246e-23)
(-1.63359e-05 -4.06024e-06 -3.52979e-23)
(-1.66209e-05 4.24976e-06 -2.39814e-23)
(-1.81743e-05 -4.00838e-06 3.20068e-23)
(-1.84906e-05 4.28171e-06 4.25511e-23)
(-2.01438e-05 -3.94773e-06 1.18349e-23)
(-2.04926e-05 4.32193e-06 -4.25794e-23)
(-2.2253e-05 -3.87662e-06 -4.13032e-23)
(-2.26345e-05 4.37129e-06 5.93611e-23)
(-2.45112e-05 -3.79336e-06 2.64969e-23)
(-2.49247e-05 4.43053e-06 2.12203e-23)
(-2.69286e-05 -3.69649e-06 -3.10779e-23)
(-2.73714e-05 4.50012e-06 -3.16235e-23)
(-2.95157e-05 -3.58513e-06 2.80164e-23)
(-2.99831e-05 4.58002e-06 -6.6098e-24)
(-3.23896e-05 -3.45441e-06 -1.64688e-23)
(-3.28742e-05 4.67271e-06 1.59093e-23)
(-3.54565e-05 -3.30977e-06 -9.34415e-25)
(-3.59468e-05 4.77288e-06 -1.47855e-23)
(-3.85127e-05 -3.16425e-06 -2.27412e-23)
(-3.89952e-05 4.86995e-06 -4.83244e-23)
(-4.15564e-05 -3.02153e-06 1.08581e-23)
(-4.20184e-05 4.96026e-06 6.28612e-24)
(-4.45856e-05 -2.88484e-06 3.35227e-23)
(-4.50153e-05 5.04058e-06 3.54524e-23)
(-4.75983e-05 -2.75691e-06 -3.34167e-23)
(-4.79849e-05 5.10817e-06 -7.96951e-24)
(-5.05928e-05 -2.64015e-06 9.7392e-24)
(-5.09259e-05 5.16065e-06 -8.81497e-23)
(-5.35673e-05 -2.5368e-06 -1.14165e-23)
(-5.38371e-05 5.1958e-06 1.50576e-23)
(-5.65204e-05 -2.44914e-06 -1.28387e-23)
(-5.67168e-05 5.21137e-06 5.39608e-23)
(-5.94508e-05 -2.3796e-06 2.51275e-24)
(-5.95636e-05 5.20494e-06 -4.60447e-24)
(-6.23571e-05 -2.33084e-06 -3.26986e-24)
(-6.23757e-05 5.17391e-06 -9.81749e-24)
(-6.52379e-05 -2.30567e-06 2.12325e-23)
(-6.51517e-05 5.11547e-06 5.91211e-24)
(-6.80916e-05 -2.30698e-06 3.06738e-23)
(-6.78902e-05 5.02679e-06 4.91347e-25)
(-7.09164e-05 -2.33759e-06 -2.7748e-23)
(-7.05901e-05 4.90506e-06 2.30154e-23)
(-7.37104e-05 -2.40008e-06 1.66626e-23)
(-7.32506e-05 4.74774e-06 -7.82444e-25)
(-7.64713e-05 -2.49668e-06 3.18196e-24)
(-7.5871e-05 4.55265e-06 -1.11113e-23)
(-7.91968e-05 -2.6291e-06 2.37253e-24)
(-7.84509e-05 4.31808e-06 2.84107e-23)
(-8.18845e-05 -2.79851e-06 -7.22494e-24)
(-8.09899e-05 4.04293e-06 1.68071e-23)
(-8.45321e-05 -3.00544e-06 2.48414e-23)
(-8.34876e-05 3.7267e-06 -7.44253e-24)
(-8.71369e-05 -3.2498e-06 -9.8756e-24)
(-8.5944e-05 3.36952e-06 -6.64825e-24)
(-8.96967e-05 -3.53088e-06 1.23823e-24)
(-8.83588e-05 2.97213e-06 -8.6262e-24)
(-9.22092e-05 -3.84742e-06 -7.03589e-24)
(-9.07316e-05 2.53585e-06 1.25024e-23)
(-9.46723e-05 -4.19766e-06 -1.35105e-23)
(-9.3062e-05 2.0625e-06 -1.01583e-23)
(-9.70839e-05 -4.57939e-06 4.68862e-24)
(-9.53497e-05 1.55432e-06 -1.6197e-23)
(-9.94423e-05 -4.99008e-06 -1.79039e-23)
(-9.75939e-05 1.01392e-06 -2.50884e-24)
(-0.000101746 -5.42689e-06 3.61118e-23)
(-9.97941e-05 4.44191e-07 1.16202e-23)
(-0.000103993 -5.8868e-06 1.49442e-23)
(-0.000101949 -1.51771e-07 -1.97049e-23)
(-0.000106182 -6.36664e-06 3.61703e-25)
(-0.000104059 -7.70734e-07 3.70352e-25)
(-0.000108312 -6.86319e-06 -1.96006e-23)
(-0.000106122 -1.40939e-06 -5.79455e-24)
(-0.000110382 -7.37318e-06 -3.40977e-23)
(-0.000108137 -2.06439e-06 5.81702e-24)
(-0.00011239 -7.89337e-06 -1.92291e-23)
(-0.000110104 -2.73243e-06 -1.49322e-23)
(-0.000114337 -8.42059e-06 -1.37156e-24)
(-0.000112021 -3.41022e-06 1.5521e-23)
(-0.00011622 -8.9517e-06 -2.46809e-24)
(-0.000113887 -4.09455e-06 -1.53492e-24)
(-0.00011804 -9.48369e-06 7.90894e-24)
(-0.000115701 -4.78232e-06 1.48064e-24)
(-0.000119795 -1.00136e-05 -5.93612e-24)
(-0.000117462 -5.47048e-06 -1.28664e-24)
(-0.000121485 -1.05387e-05 -1.05742e-23)
(-0.000119169 -6.15611e-06 -2.19604e-24)
(-0.00012311 -1.10561e-05 1.34664e-23)
(-0.00012082 -6.83637e-06 -3.49816e-24)
(-0.000124668 -1.15632e-05 -6.39188e-24)
(-0.000122416 -7.50854e-06 -1.93975e-26)
(-0.000126159 -1.20576e-05 -9.85365e-24)
(-0.000123955 -8.16998e-06 1.54757e-24)
(-0.000127583 -1.25368e-05 -1.22137e-24)
(-0.000125435 -8.81825e-06 7.00599e-26)
(-0.000128941 -1.29987e-05 4.01269e-25)
(-0.000126856 -9.45104e-06 -8.96221e-25)
(-0.00013023 -1.34413e-05 5.12179e-25)
(-0.000128216 -1.00663e-05 1.21238e-24)
(-0.000131453 -1.3863e-05 -1.44014e-24)
(-0.000129514 -1.06622e-05 6.22921e-25)
(-0.000132608 -1.42625e-05 9.68636e-24)
(-0.000130749 -1.12375e-05 3.84523e-24)
(-0.000133696 -1.46388e-05 1.26549e-24)
(-0.00013192 -1.17911e-05 1.14364e-24)
(-0.000134718 -1.49917e-05 1.07858e-24)
(-0.000133024 -1.23225e-05 -4.25859e-24)
(-0.000135674 -1.53213e-05 -1.37931e-25)
(-0.000134061 -1.28319e-05 -7.51682e-25)
(-0.000136564 -1.56282e-05 4.91557e-24)
(-0.00013503 -1.33198e-05 3.2431e-25)
(-0.000137389 -1.59138e-05 7.52898e-24)
(-0.000135928 -1.37874e-05 -1.54869e-24)
(-0.00013815 -1.61795e-05 9.85637e-24)
(-0.000136755 -1.42361e-05 -2.60565e-24)
(-0.000138846 -1.64275e-05 1.92073e-24)
(-0.000137511 -1.4668e-05 -4.20829e-24)
(-0.000139477 -1.66598e-05 -5.6601e-24)
(-0.000138194 -1.50851e-05 2.95017e-24)
(-0.000140043 -1.68788e-05 2.75321e-24)
(-0.000138803 -1.54896e-05 -4.29772e-24)
(-0.000140544 -1.70868e-05 -3.92818e-24)
(-0.000139339 -1.58839e-05 -2.23735e-24)
(-0.00014098 -1.7286e-05 -4.73793e-24)
(-0.000139802 -1.62702e-05 3.0428e-25)
(-0.00014135 -1.74786e-05 -2.00496e-24)
(-0.000140191 -1.66506e-05 1.5727e-24)
(-0.000141654 -1.76664e-05 2.27514e-25)
(-0.000140506 -1.70276e-05 -1.34999e-24)
(-0.000141891 -1.78528e-05 6.16526e-24)
(-0.000140746 -1.74024e-05 -3.27476e-24)
(-0.000142065 -1.80383e-05 -8.43405e-24)
(-0.000140916 -1.77796e-05 7.79903e-24)
(-0.000142166 -1.82391e-05 -9.8773e-24)
(-0.000142076 -1.83443e-05 -3.15487e-23)
(-0.000141836 -1.83362e-05 5.96931e-23)
(-0.000141546 -1.83385e-05 -4.75385e-23)
(-0.000141208 -1.83341e-05 2.89759e-23)
(-0.000141008 -1.81497e-05 -9.42291e-24)
)
;
    }
    frontAndBackPlanes
    {
        type            empty;
    }
}


// ************************************************************************* //
