/*--------------------------------*- C++ -*----------------------------------*\
| =========                 |                                                 |
| \\      /  F ield         | OpenFOAM Extend Project: Open source CFD        |
|  \\    /   O peration     | Version:  1.6-ext                               |
|   \\  /    A nd           | Web:      www.extend-project.de                 |
|    \\/     M anipulation  |                                                 |
\*---------------------------------------------------------------------------*/
FoamFile
{
    version     2.0;
    format      ascii;
    class       volVectorField;
    location    "0.95";
    object      DV_0;
}
// * * * * * * * * * * * * * * * * * * * * * * * * * * * * * * * * * * * * * //

dimensions      [0 1 -1 0 0 0 0];

internalField   nonuniform List<vector> 
328
(
(-2.25451e-07 -4.41495e-07 0)
(-1.5368e-07 -9.14605e-08 0)
(-1.56182e-07 9.84106e-08 0)
(-2.39581e-07 4.67713e-07 0)
(-6.86907e-07 -1.12979e-06 0)
(-5.0782e-07 -2.62897e-07 0)
(-5.16642e-07 2.9173e-07 0)
(-7.29788e-07 1.20303e-06 0)
(-1.22247e-06 -1.63615e-06 0)
(-9.815e-07 -4.19861e-07 0)
(-9.99386e-07 4.79741e-07 0)
(-1.29716e-06 1.75577e-06 0)
(-1.80708e-06 -1.9884e-06 0)
(-1.53651e-06 -5.4857e-07 0)
(-1.56475e-06 6.48685e-07 0)
(-1.91523e-06 2.15645e-06 0)
(-2.44869e-06 -2.22308e-06 0)
(-2.18071e-06 -6.4399e-07 0)
(-2.22051e-06 7.93581e-07 0)
(-2.59181e-06 2.44395e-06 0)
(-3.14476e-06 -2.36821e-06 0)
(-2.90179e-06 -7.04416e-07 0)
(-2.9538e-06 9.13174e-07 0)
(-3.32389e-06 2.64835e-06 0)
(-3.89945e-06 -2.4467e-06 0)
(-3.69837e-06 -7.32138e-07 0)
(-3.76304e-06 1.0104e-06 0)
(-4.11531e-06 2.79441e-06 0)
(-4.71576e-06 -2.47548e-06 0)
(-4.56598e-06 -7.30905e-07 0)
(-4.64354e-06 1.08994e-06 0)
(-4.96881e-06 2.90082e-06 0)
(-5.59822e-06 -2.46755e-06 0)
(-5.50373e-06 -7.05391e-07 0)
(-5.59424e-06 1.1576e-06 0)
(-5.88864e-06 2.98223e-06 0)
(-6.5513e-06 -2.43237e-06 0)
(-6.51137e-06 -6.60031e-07 0)
(-6.61475e-06 1.21918e-06 0)
(-6.87903e-06 3.04978e-06 0)
(-7.57986e-06 -2.37674e-06 0)
(-7.59057e-06 -5.9861e-07 0)
(-7.70667e-06 1.28005e-06 0)
(-7.94455e-06 3.11202e-06 0)
(-8.68884e-06 -2.30521e-06 0)
(-8.74433e-06 -5.23886e-07 0)
(-8.87282e-06 1.34477e-06 0)
(-9.08984e-06 3.17538e-06 0)
(-9.88342e-06 -2.22055e-06 0)
(-9.97697e-06 -4.37532e-07 0)
(-1.01174e-05 1.41702e-06 0)
(-1.03197e-05 3.24459e-06 0)
(-1.1169e-05 -2.12404e-06 0)
(-1.12939e-05 -3.40211e-07 0)
(-1.14457e-05 1.49962e-06 0)
(-1.1639e-05 3.32308e-06 0)
(-1.25515e-05 -2.01592e-06 0)
(-1.27015e-05 -2.31787e-07 0)
(-1.28639e-05 1.59462e-06 0)
(-1.30528e-05 3.41319e-06 0)
(-1.40371e-05 -1.89575e-06 0)
(-1.42067e-05 -1.11621e-07 0)
(-1.43785e-05 1.70341e-06 0)
(-1.45667e-05 3.51643e-06 0)
(-1.56328e-05 -1.76281e-06 0)
(-1.5817e-05 2.1081e-08 0)
(-1.59968e-05 1.82677e-06 0)
(-1.61862e-05 3.63357e-06 0)
(-1.73458e-05 -1.61653e-06 0)
(-1.75404e-05 1.6688e-07 0)
(-1.77262e-05 1.96481e-06 0)
(-1.79173e-05 3.76465e-06 0)
(-1.91843e-05 -1.4569e-06 0)
(-1.93852e-05 3.2572e-07 0)
(-1.95744e-05 2.11687e-06 0)
(-1.97661e-05 3.9089e-06 0)
(-2.11568e-05 -1.28483e-06 0)
(-2.13597e-05 4.96543e-07 0)
(-2.15492e-05 2.28128e-06 0)
(-2.17393e-05 4.06456e-06 0)
(-2.32723e-05 -1.10251e-06 0)
(-2.34726e-05 6.76969e-07 0)
(-2.36586e-05 2.45512e-06 0)
(-2.38435e-05 4.22864e-06 0)
(-2.55401e-05 -9.1363e-07 0)
(-2.57329e-05 8.63045e-07 0)
(-2.59107e-05 2.634e-06 0)
(-2.60858e-05 4.39668e-06 0)
(-2.80622e-05 -7.16288e-07 0)
(-2.82414e-05 1.0562e-06 0)
(-2.84053e-05 2.81869e-06 0)
(-2.85649e-05 4.56898e-06 0)
(-3.0756e-05 -5.27e-07 0)
(-3.09153e-05 1.23962e-06 0)
(-3.1059e-05 2.99233e-06 0)
(-3.11967e-05 4.72905e-06 0)
(-3.34413e-05 -3.64678e-07 0)
(-3.3576e-05 1.39461e-06 0)
(-3.36952e-05 3.1367e-06 0)
(-3.38064e-05 4.85961e-06 0)
(-3.61154e-05 -2.33177e-07 0)
(-3.6222e-05 1.51733e-06 0)
(-3.63128e-05 3.24797e-06 0)
(-3.63939e-05 4.95678e-06 0)
(-3.8776e-05 -1.353e-07 0)
(-3.88515e-05 1.60502e-06 0)
(-3.89109e-05 3.32336e-06 0)
(-3.89591e-05 5.01777e-06 0)
(-4.14206e-05 -7.30751e-08 0)
(-4.14628e-05 1.65573e-06 0)
(-4.14886e-05 3.36092e-06 0)
(-4.15016e-05 5.04055e-06 0)
(-4.40472e-05 -4.80177e-08 0)
(-4.40544e-05 1.668e-06 0)
(-4.40448e-05 3.35918e-06 0)
(-4.4021e-05 5.02362e-06 0)
(-4.66537e-05 -6.12919e-08 0)
(-4.66247e-05 1.6407e-06 0)
(-4.65785e-05 3.31704e-06 0)
(-4.65166e-05 4.96583e-06 0)
(-4.92381e-05 -1.13773e-07 0)
(-4.91722e-05 1.57299e-06 0)
(-4.90886e-05 3.23364e-06 0)
(-4.8988e-05 4.86631e-06 0)
(-5.17986e-05 -2.06019e-07 0)
(-5.16953e-05 1.4643e-06 0)
(-5.15741e-05 3.10844e-06 0)
(-5.14344e-05 4.72454e-06 0)
(-5.4333e-05 -3.3819e-07 0)
(-5.41927e-05 1.31447e-06 0)
(-5.40339e-05 2.94127e-06 0)
(-5.38553e-05 4.54036e-06 0)
(-5.68394e-05 -5.09945e-07 0)
(-5.66626e-05 1.12385e-06 0)
(-5.64671e-05 2.73247e-06 0)
(-5.62503e-05 4.31413e-06 0)
(-5.93158e-05 -7.20352e-07 0)
(-5.91038e-05 8.93353e-07 0)
(-5.88727e-05 2.483e-06 0)
(-5.86189e-05 4.0468e-06 0)
(-6.17601e-05 -9.67827e-07 0)
(-6.15146e-05 6.24587e-07 0)
(-6.12497e-05 2.19444e-06 0)
(-6.09607e-05 3.73998e-06 0)
(-6.41704e-05 -1.25012e-06 0)
(-6.38936e-05 3.19829e-07 0)
(-6.35971e-05 1.86908e-06 0)
(-6.32753e-05 3.39592e-06 0)
(-6.65447e-05 -1.56437e-06 0)
(-6.62395e-05 -1.79929e-08 0)
(-6.59141e-05 1.50987e-06 0)
(-6.55621e-05 3.01752e-06 0)
(-6.88814e-05 -1.90713e-06 0)
(-6.85509e-05 -3.85379e-07 0)
(-6.81996e-05 1.1203e-06 0)
(-6.78207e-05 2.60824e-06 0)
(-7.11788e-05 -2.27452e-06 0)
(-7.08264e-05 -7.78367e-07 0)
(-7.04526e-05 7.04346e-07 0)
(-7.00503e-05 2.17198e-06 0)
(-7.34355e-05 -2.66236e-06 0)
(-7.30649e-05 -1.19267e-06 0)
(-7.26722e-05 2.66304e-07 0)
(-7.225e-05 1.71296e-06 0)
(-7.56502e-05 -3.06628e-06 0)
(-7.52651e-05 -1.62384e-06 0)
(-7.48572e-05 -1.89367e-07 0)
(-7.4419e-05 1.23557e-06 0)
(-7.78221e-05 -3.48193e-06 0)
(-7.74262e-05 -2.06742e-06 0)
(-7.70065e-05 -6.58193e-07 0)
(-7.65559e-05 7.44196e-07 0)
(-7.99501e-05 -3.90508e-06 0)
(-7.95469e-05 -2.51909e-06 0)
(-7.9119e-05 -1.13585e-06 0)
(-7.86597e-05 2.43104e-07 0)
(-8.20337e-05 -4.33179e-06 0)
(-8.16265e-05 -2.97481e-06 0)
(-8.11935e-05 -1.61829e-06 0)
(-8.07287e-05 -2.6373e-07 0)
(-8.40724e-05 -4.75853e-06 0)
(-8.36641e-05 -3.43099e-06 0)
(-8.32288e-05 -2.1019e-06 0)
(-8.27614e-05 -7.72728e-07 0)
(-8.60657e-05 -5.18226e-06 0)
(-8.56588e-05 -3.88452e-06 0)
(-8.52236e-05 -2.58355e-06 0)
(-8.47562e-05 -1.2808e-06 0)
(-8.80135e-05 -5.6005e-06 0)
(-8.76098e-05 -4.33289e-06 0)
(-8.71769e-05 -3.06072e-06 0)
(-8.67114e-05 -1.78545e-06 0)
(-8.99154e-05 -6.01142e-06 0)
(-8.95166e-05 -4.77419e-06 0)
(-8.90872e-05 -3.5315e-06 0)
(-8.86251e-05 -2.28474e-06 0)
(-9.17713e-05 -6.41376e-06 0)
(-9.13782e-05 -5.2072e-06 0)
(-9.09534e-05 -3.99462e-06 0)
(-9.04958e-05 -2.77742e-06 0)
(-9.3581e-05 -6.80694e-06 0)
(-9.31941e-05 -5.63129e-06 0)
(-9.27744e-05 -4.44946e-06 0)
(-9.23216e-05 -3.26282e-06 0)
(-9.53443e-05 -7.19093e-06 0)
(-9.49636e-05 -6.04645e-06 0)
(-9.45489e-05 -4.89598e-06 0)
(-9.41009e-05 -3.74087e-06 0)
(-9.70611e-05 -7.56627e-06 0)
(-9.66859e-05 -6.45323e-06 0)
(-9.62758e-05 -5.33472e-06 0)
(-9.58322e-05 -4.21205e-06 0)
(-9.87309e-05 -7.93397e-06 0)
(-9.83605e-05 -6.85268e-06 0)
(-9.79541e-05 -5.76671e-06 0)
(-9.7514e-05 -4.67733e-06 0)
(-0.000100354 -8.29546e-06 0)
(-9.99865e-05 -7.24625e-06 0)
(-9.95827e-05 -6.19337e-06 0)
(-9.91448e-05 -5.13807e-06 0)
(-0.000101928 -8.65252e-06 0)
(-0.000101563 -7.63575e-06 0)
(-0.000101161 -6.61651e-06 0)
(-0.000100724 -5.596e-06 0)
(-0.000103455 -9.00716e-06 0)
(-0.00010309 -8.02325e-06 0)
(-0.000102687 -7.03816e-06 0)
(-0.000102249 -6.05308e-06 0)
(-0.000104933 -9.36156e-06 0)
(-0.000104566 -8.41095e-06 0)
(-0.000104161 -7.46052e-06 0)
(-0.00010372 -6.51143e-06 0)
(-0.000106361 -9.71797e-06 0)
(-0.000105991 -8.80115e-06 0)
(-0.000105582 -7.88587e-06 0)
(-0.000105137 -6.97325e-06 0)
(-0.000107739 -1.00786e-05 0)
(-0.000107364 -9.19611e-06 0)
(-0.000106949 -8.31645e-06 0)
(-0.000106497 -7.44071e-06 0)
(-0.000109066 -1.04456e-05 0)
(-0.000108683 -9.59796e-06 0)
(-0.000108261 -8.75437e-06 0)
(-0.000107802 -7.91586e-06 0)
(-0.00011034 -1.08208e-05 0)
(-0.000109949 -1.00086e-05 0)
(-0.000109519 -9.20154e-06 0)
(-0.00010905 -8.40053e-06 0)
(-0.000111561 -1.12058e-05 0)
(-0.000111161 -1.04297e-05 0)
(-0.00011072 -9.65957e-06 0)
(-0.000110241 -8.89628e-06 0)
(-0.000112728 -1.1602e-05 0)
(-0.000112317 -1.08626e-05 0)
(-0.000111866 -1.01297e-05 0)
(-0.000111375 -9.40434e-06 0)
(-0.00011384 -1.20101e-05 0)
(-0.000113417 -1.1308e-05 0)
(-0.000112955 -1.06128e-05 0)
(-0.000112452 -9.92553e-06 0)
(-0.000114895 -1.24308e-05 0)
(-0.000114461 -1.17665e-05 0)
(-0.000113987 -1.11094e-05 0)
(-0.000113472 -1.04603e-05 0)
(-0.000115893 -1.28641e-05 0)
(-0.000115448 -1.22382e-05 0)
(-0.000114961 -1.16194e-05 0)
(-0.000114434 -1.10087e-05 0)
(-0.000116833 -1.33097e-05 0)
(-0.000116376 -1.27227e-05 0)
(-0.000115878 -1.21427e-05 0)
(-0.000115339 -1.15704e-05 0)
(-0.000117714 -1.37672e-05 0)
(-0.000117246 -1.32195e-05 0)
(-0.000116737 -1.26785e-05 0)
(-0.000116186 -1.21448e-05 0)
(-0.000118535 -1.42358e-05 0)
(-0.000118057 -1.37278e-05 0)
(-0.000117538 -1.32261e-05 0)
(-0.000116976 -1.27312e-05 0)
(-0.000119297 -1.47145e-05 0)
(-0.000118809 -1.42466e-05 0)
(-0.00011828 -1.37844e-05 0)
(-0.000117707 -1.33284e-05 0)
(-0.000119997 -1.52024e-05 0)
(-0.000119501 -1.47749e-05 0)
(-0.000118963 -1.43524e-05 0)
(-0.000118381 -1.39356e-05 0)
(-0.000120637 -1.56984e-05 0)
(-0.000120132 -1.53115e-05 0)
(-0.000119586 -1.4929e-05 0)
(-0.000118996 -1.45514e-05 0)
(-0.000121215 -1.62014e-05 0)
(-0.000120704 -1.58554e-05 0)
(-0.000120151 -1.55131e-05 0)
(-0.000119553 -1.51749e-05 0)
(-0.000121732 -1.67103e-05 0)
(-0.000121214 -1.64054e-05 0)
(-0.000120655 -1.61035e-05 0)
(-0.000120052 -1.58048e-05 0)
(-0.000122186 -1.72242e-05 0)
(-0.000121664 -1.69605e-05 0)
(-0.0001211 -1.6699e-05 0)
(-0.000120491 -1.64401e-05 0)
(-0.000122578 -1.77418e-05 0)
(-0.000122053 -1.75195e-05 0)
(-0.000121484 -1.72986e-05 0)
(-0.000120872 -1.70796e-05 0)
(-0.000122908 -1.82619e-05 0)
(-0.00012238 -1.80811e-05 0)
(-0.000121809 -1.7901e-05 0)
(-0.000121193 -1.77221e-05 0)
(-0.000123176 -1.87832e-05 0)
(-0.000122646 -1.86439e-05 0)
(-0.000122073 -1.85048e-05 0)
(-0.000121455 -1.83662e-05 0)
(-0.000123381 -1.93047e-05 0)
(-0.00012285 -1.92067e-05 0)
(-0.000122276 -1.91082e-05 0)
(-0.000121657 -1.901e-05 0)
(-0.000123527 -1.98241e-05 0)
(-0.000122995 -1.97677e-05 0)
(-0.00012242 -1.97102e-05 0)
(-0.0001218 -1.96531e-05 0)
(-0.000123604 -2.03465e-05 0)
(-0.000123074 -2.03274e-05 0)
(-0.000122498 -2.03084e-05 0)
(-0.000121877 -2.02882e-05 0)
)
;

boundaryField
{
    plateFix
    {
        type            calculated;
        value           uniform (0 0 0);
    }
    plate
    {
        type            calculated;
        value           nonuniform List<vector> 
168
(
(-2.16428e-06 -1.17851e-06 -1.29525e-22)
(-2.29177e-06 1.25402e-06 -2.7748e-25)
(-2.09032e-06 -1.89246e-06 2.40526e-22)
(-2.23542e-06 2.01585e-06 1.26782e-22)
(-2.16402e-06 -2.43628e-06 -6.01618e-23)
(-2.33691e-06 2.60681e-06 -3.66418e-24)
(-2.40798e-06 -2.80507e-06 -6.42672e-23)
(-2.61491e-06 3.02331e-06 -1.86702e-24)
(-2.81211e-06 -3.05401e-06 -4.81372e-23)
(-3.05795e-06 3.32381e-06 8.13403e-23)
(-3.34511e-06 -3.2085e-06 5.59603e-23)
(-3.63328e-06 3.53577e-06 -1.94249e-22)
(-3.98998e-06 -3.29518e-06 5.15088e-23)
(-4.32293e-06 3.68794e-06 6.35569e-23)
(-4.73338e-06 -3.33098e-06 -1.1641e-22)
(-5.1127e-06 3.79907e-06 6.95666e-23)
(-5.5684e-06 -3.32947e-06 3.61537e-23)
(-5.99506e-06 3.88448e-06 -3.03826e-23)
(-6.49119e-06 -3.30003e-06 1.27497e-23)
(-6.96563e-06 3.95525e-06 1.11043e-23)
(-7.50072e-06 -3.24942e-06 1.28599e-23)
(-8.02296e-06 4.01993e-06 -1.1839e-23)
(-8.5977e-06 -3.18214e-06 -1.51031e-23)
(-9.16734e-06 4.08484e-06 -1.45757e-23)
(-9.7844e-06 -3.10092e-06 7.37884e-24)
(-1.04005e-05 4.1547e-06 -2.85252e-23)
(-1.10643e-05 -3.0071e-06 -3.68573e-23)
(-1.17253e-05 4.23292e-06 3.9674e-23)
(-1.24422e-05 -2.90102e-06 -1.4522e-23)
(-1.31455e-05 4.32189e-06 1.87373e-24)
(-1.39238e-05 -2.78235e-06 4.18543e-23)
(-1.46654e-05 4.42317e-06 -2.70258e-24)
(-1.55158e-05 -2.65048e-06 -1.09474e-23)
(-1.62901e-05 4.53757e-06 -2.93082e-23)
(-1.72259e-05 -2.50493e-06 -4.06635e-23)
(-1.8025e-05 4.66519e-06 2.5635e-23)
(-1.90627e-05 -2.34573e-06 3.09208e-23)
(-1.98758e-05 4.8053e-06 -3.39156e-23)
(-2.10352e-05 -2.1738e-06 1.87224e-23)
(-2.18486e-05 4.95615e-06 -4.79529e-23)
(-2.3153e-05 -1.99123e-06 2.06392e-23)
(-2.39498e-05 5.1148e-06 5.16366e-23)
(-2.54259e-05 -1.80162e-06 -1.77612e-23)
(-2.61861e-05 5.27685e-06 3.97612e-23)
(-2.79565e-05 -1.6028e-06 1.32132e-23)
(-2.86554e-05 5.44237e-06 -4.13552e-23)
(-3.06622e-05 -1.41112e-06 -1.10309e-24)
(-3.12739e-05 5.59515e-06 3.39487e-23)
(-3.33615e-05 -1.24557e-06 3.519e-23)
(-3.38682e-05 5.71837e-06 3.68402e-23)
(-3.60513e-05 -1.11002e-06 8.76252e-24)
(-3.64386e-05 5.80817e-06 -1.66178e-24)
(-3.87288e-05 -1.00731e-06 -4.40503e-23)
(-3.89854e-05 5.8617e-06 -7.25613e-23)
(-4.13913e-05 -9.3953e-07 3.23534e-23)
(-4.15087e-05 5.8769e-06 -3.64023e-23)
(-4.40364e-05 -9.08233e-07 -1.42382e-23)
(-4.40081e-05 5.85224e-06 5.93582e-23)
(-4.66619e-05 -9.14611e-07 2.44649e-23)
(-4.64833e-05 5.78652e-06 -6.30538e-24)
(-4.92658e-05 -9.5955e-07 3.15614e-23)
(-4.89338e-05 5.67889e-06 -2.99192e-23)
(-5.18459e-05 -1.04361e-06 -2.88e-24)
(-5.13592e-05 5.52882e-06 -1.09372e-23)
(-5.43999e-05 -1.16693e-06 -1.80032e-23)
(-5.37592e-05 5.33618e-06 1.06143e-23)
(-5.69256e-05 -1.32917e-06 -3.50543e-24)
(-5.61335e-05 5.10133e-06 2.69336e-24)
(-5.94207e-05 -1.5294e-06 -9.62413e-24)
(-5.84821e-05 4.82523e-06 -2.53133e-24)
(-6.18828e-05 -1.76603e-06 1.80128e-23)
(-6.08048e-05 4.5095e-06 -8.47197e-24)
(-6.43096e-05 -2.03684e-06 -4.33298e-23)
(-6.31016e-05 4.15637e-06 -3.38667e-24)
(-6.66989e-05 -2.33898e-06 6.01129e-24)
(-6.53722e-05 3.76871e-06 1.6245e-23)
(-6.90488e-05 -2.66907e-06 -4.77815e-24)
(-6.76163e-05 3.34995e-06 -7.84833e-24)
(-7.13574e-05 -3.02328e-06 4.25603e-24)
(-6.98334e-05 2.90395e-06 -3.49823e-23)
(-7.36232e-05 -3.39748e-06 -5.97506e-24)
(-7.20229e-05 2.43486e-06 -9.20229e-25)
(-7.58449e-05 -3.78737e-06 1.79256e-23)
(-7.41837e-05 1.94703e-06 -7.50261e-24)
(-7.80216e-05 -4.18866e-06 -2.12058e-24)
(-7.63147e-05 1.4448e-06 1.54094e-23)
(-8.01524e-05 -4.59718e-06 5.03242e-24)
(-7.84145e-05 9.32367e-07 -1.71136e-23)
(-8.2237e-05 -5.00905e-06 7.20899e-24)
(-8.04814e-05 4.13682e-07 8.67169e-24)
(-8.4275e-05 -5.42078e-06 -5.79838e-24)
(-8.25137e-05 -1.07713e-07 5.14324e-24)
(-8.62663e-05 -5.82937e-06 1.97291e-23)
(-8.45095e-05 -6.28758e-07 1.25514e-24)
(-8.82109e-05 -6.23238e-06 -3.02683e-23)
(-8.64667e-05 -1.14695e-06 -1.79094e-23)
(-9.01089e-05 -6.62797e-06 -1.28558e-23)
(-8.83833e-05 -1.66038e-06 7.58838e-24)
(-9.19605e-05 -7.01493e-06 1.1593e-23)
(-9.02572e-05 -2.16777e-06 3.11861e-24)
(-9.37658e-05 -7.39265e-06 3.08694e-23)
(-9.20865e-05 -2.66844e-06 -3.14569e-24)
(-9.55248e-05 -7.7611e-06 2.49468e-23)
(-9.38692e-05 -3.1623e-06 4.39505e-24)
(-9.72376e-05 -8.12082e-06 1.95061e-23)
(-9.56034e-05 -3.6498e-06 1.33321e-23)
(-9.89041e-05 -8.47279e-06 3.69333e-25)
(-9.72875e-05 -4.13185e-06 -9.5723e-24)
(-0.000100524 -8.81842e-06 -4.4416e-24)
(-9.892e-05 -4.60979e-06 4.91501e-24)
(-0.000102098 -9.15945e-06 -1.21691e-23)
(-0.000100499 -5.0853e-06 -2.64803e-24)
(-0.000103624 -9.49788e-06 -9.48474e-24)
(-0.000102025 -5.5603e-06 -2.91732e-24)
(-0.000105102 -9.83586e-06 1.66942e-23)
(-0.000103495 -6.03685e-06 3.2265e-24)
(-0.000106532 -1.01756e-05 -1.36764e-23)
(-0.000104908 -6.51712e-06 2.05453e-24)
(-0.000107913 -1.05193e-05 4.27704e-24)
(-0.000106266 -7.00322e-06 7.37162e-26)
(-0.000109243 -1.0869e-05 1.21028e-23)
(-0.000107566 -7.49715e-06 -8.62856e-25)
(-0.000110522 -1.12267e-05 2.19077e-26)
(-0.000108808 -8.00072e-06 -1.78444e-24)
(-0.000111749 -1.15939e-05 -9.56267e-24)
(-0.000109993 -8.51546e-06 1.85544e-24)
(-0.000112921 -1.19718e-05 -2.80344e-24)
(-0.000111121 -9.04256e-06 3.84121e-25)
(-0.000114039 -1.23614e-05 1.20205e-24)
(-0.000112191 -9.58284e-06 -1.07999e-24)
(-0.000115101 -1.27632e-05 -6.13563e-24)
(-0.000113203 -1.01367e-05 -2.69765e-24)
(-0.000116106 -1.31773e-05 -1.23473e-24)
(-0.000114159 -1.07043e-05 -5.86747e-25)
(-0.000117052 -1.36035e-05 -5.6568e-24)
(-0.000115057 -1.12852e-05 2.43456e-24)
(-0.000117939 -1.40413e-05 8.23756e-25)
(-0.000115897 -1.18789e-05 9.68326e-25)
(-0.000118766 -1.44899e-05 -7.15268e-24)
(-0.000116681 -1.24845e-05 -3.56308e-25)
(-0.000119532 -1.49485e-05 -5.9205e-24)
(-0.000117407 -1.31011e-05 -4.69385e-24)
(-0.000120237 -1.54162e-05 -7.74485e-24)
(-0.000118076 -1.37277e-05 3.21216e-24)
(-0.000120881 -1.58917e-05 -4.80967e-24)
(-0.000118687 -1.43631e-05 5.80615e-24)
(-0.000121463 -1.63742e-05 2.99685e-24)
(-0.00011924 -1.50061e-05 -5.04652e-24)
(-0.000121982 -1.68626e-05 1.41644e-24)
(-0.000119736 -1.56558e-05 5.67267e-24)
(-0.000122439 -1.73557e-05 1.14704e-25)
(-0.000120172 -1.63109e-05 6.55866e-24)
(-0.000122833 -1.78525e-05 -3.96766e-24)
(-0.000120551 -1.69702e-05 -1.07383e-24)
(-0.000123164 -1.83519e-05 2.96744e-24)
(-0.000120871 -1.76325e-05 -2.45227e-25)
(-0.000123432 -1.88522e-05 5.34862e-24)
(-0.000121132 -1.82968e-05 1.03226e-24)
(-0.000123637 -1.93531e-05 -5.40538e-24)
(-0.000121334 -1.89606e-05 -4.36106e-24)
(-0.000123783 -1.98511e-05 1.80795e-25)
(-0.000121479 -1.96247e-05 -6.53936e-24)
(-0.00012386 -2.03553e-05 6.34898e-24)
(-0.000123622 -2.0606e-05 2.54708e-23)
(-0.000123093 -2.06042e-05 -4.57566e-23)
(-0.000122517 -2.0608e-05 5.22711e-23)
(-0.000121895 -2.06045e-05 -1.20971e-23)
(-0.000121558 -2.02783e-05 4.14404e-24)
)
;
    }
    frontAndBackPlanes
    {
        type            empty;
    }
}


// ************************************************************************* //
