/*--------------------------------*- C++ -*----------------------------------*\
| =========                 |                                                 |
| \\      /  F ield         | OpenFOAM Extend Project: Open source CFD        |
|  \\    /   O peration     | Version:  1.6-ext                               |
|   \\  /    A nd           | Web:      www.extend-project.de                 |
|    \\/     M anipulation  |                                                 |
\*---------------------------------------------------------------------------*/
FoamFile
{
    version     2.0;
    format      ascii;
    class       surfaceScalarField;
    location    "0.95";
    object      meshPhi;
}
// * * * * * * * * * * * * * * * * * * * * * * * * * * * * * * * * * * * * * //

dimensions      [0 3 -1 0 0 0 0];

internalField   nonuniform List<scalar> 
570
(
6.61143e-11
1.73517e-09
5.78602e-12
4.31283e-10
-4.14046e-11
3.59386e-10
1.09683e-09
2.03908e-10
2.08274e-09
2.28329e-11
9.53864e-10
-1.20936e-10
8.00138e-10
1.26738e-09
3.42819e-10
2.59029e-09
5.16242e-11
1.58274e-09
-1.84379e-10
1.33709e-09
1.54748e-09
4.83935e-10
3.24618e-09
9.48629e-11
2.29995e-09
-2.26517e-10
1.95606e-09
1.93973e-09
6.31327e-10
4.03397e-09
1.55676e-10
3.1039e-09
-2.43884e-10
2.65682e-09
2.43777e-09
7.90612e-10
4.93339e-09
2.3804e-10
3.98788e-09
-2.33057e-10
3.43445e-09
3.03087e-09
9.68522e-10
5.93262e-09
3.46947e-10
4.94976e-09
-1.89996e-10
4.28808e-09
3.71396e-09
1.17299e-09
7.02324e-09
4.88531e-10
5.98756e-09
-1.09835e-10
5.21701e-09
4.48431e-09
1.41322e-09
8.20076e-09
6.70223e-10
7.10134e-09
1.33891e-11
6.22249e-09
5.34226e-09
1.69981e-09
9.46276e-09
9.00897e-10
8.29218e-09
1.86961e-10
7.30694e-09
6.29005e-09
2.04485e-09
1.08086e-08
1.19102e-09
9.56252e-09
4.19742e-10
8.47425e-09
7.3318e-09
2.46196e-09
1.22386e-08
1.55279e-09
1.09158e-08
7.22392e-10
9.72951e-09
8.47313e-09
2.96641e-09
1.37539e-08
2.00021e-09
1.23564e-08
1.10754e-09
1.1079e-08
9.72108e-09
3.57505e-09
1.53565e-08
2.54916e-09
1.38894e-08
1.58988e-09
1.253e-08
1.1084e-08
4.30629e-09
1.70484e-08
3.21726e-09
1.55206e-08
2.18608e-09
1.40906e-08
1.25715e-08
5.17981e-09
1.88322e-08
4.02369e-09
1.72561e-08
2.91459e-09
1.57696e-08
1.41942e-08
6.21622e-09
2.07106e-08
4.9887e-09
1.91024e-08
3.79511e-09
1.75765e-08
1.59638e-08
7.43625e-09
2.26867e-08
6.13281e-09
2.10662e-08
4.8478e-09
1.95212e-08
1.78929e-08
8.85966e-09
2.47637e-08
7.47562e-09
2.31545e-08
6.09203e-09
2.16138e-08
1.99946e-08
1.05035e-08
2.69454e-08
9.0341e-09
2.53746e-08
7.54461e-09
2.38649e-08
2.22826e-08
1.23799e-08
2.92359e-08
1.08201e-08
2.77341e-08
9.21743e-09
2.62852e-08
2.47705e-08
1.44928e-08
3.16398e-08
1.28375e-08
3.02408e-08
1.11143e-08
2.88853e-08
2.74723e-08
1.81214e-08
3.43498e-08
1.62365e-08
3.30984e-08
1.42494e-08
3.18811e-08
3.06145e-08
1.9488e-08
3.7003e-08
1.76242e-08
3.59266e-08
1.56374e-08
3.48743e-08
3.37815e-08
2.06507e-08
3.96082e-08
1.88067e-08
3.87272e-08
1.68235e-08
3.78603e-08
3.69617e-08
2.15891e-08
4.21735e-08
1.97634e-08
4.15018e-08
1.77873e-08
4.08344e-08
4.01439e-08
2.22898e-08
4.47068e-08
2.0481e-08
4.4252e-08
1.85154e-08
4.37919e-08
4.33172e-08
2.27459e-08
4.72159e-08
2.09527e-08
4.69794e-08
1.90009e-08
4.67285e-08
4.64709e-08
2.29576e-08
4.97081e-08
2.11787e-08
4.96855e-08
1.92439e-08
4.96399e-08
4.95949e-08
2.29308e-08
5.21899e-08
2.11653e-08
5.23713e-08
1.92505e-08
5.25219e-08
5.26797e-08
2.26779e-08
5.46674e-08
2.09247e-08
5.5038e-08
1.90327e-08
5.53707e-08
5.57165e-08
2.2216e-08
5.71457e-08
2.04746e-08
5.76862e-08
1.8608e-08
5.81829e-08
5.86974e-08
2.15675e-08
5.96288e-08
1.98373e-08
6.03164e-08
1.79984e-08
6.09551e-08
6.16154e-08
2.07583e-08
6.212e-08
1.90392e-08
6.29286e-08
1.72301e-08
6.36845e-08
6.44647e-08
1.9818e-08
6.46212e-08
1.811e-08
6.55227e-08
1.63325e-08
6.63688e-08
6.72406e-08
1.87783e-08
6.71332e-08
1.70818e-08
6.8098e-08
1.53372e-08
6.90059e-08
6.99398e-08
1.76726e-08
6.96554e-08
1.59882e-08
7.06534e-08
1.42776e-08
7.15943e-08
7.25601e-08
1.65346e-08
7.21862e-08
1.48634e-08
7.31876e-08
1.31876e-08
7.41327e-08
7.51006e-08
1.53981e-08
7.47227e-08
1.37412e-08
7.56987e-08
1.21006e-08
7.66206e-08
7.75618e-08
1.42951e-08
7.72608e-08
1.26541e-08
7.81845e-08
1.10489e-08
7.90574e-08
7.99453e-08
1.32558e-08
7.97952e-08
1.16325e-08
8.06426e-08
1.00625e-08
8.14434e-08
8.22537e-08
1.23072e-08
8.23198e-08
1.07036e-08
8.30702e-08
9.1685e-09
8.37789e-08
8.4491e-08
1.14727e-08
8.48276e-08
9.89107e-09
8.54641e-08
8.39008e-09
8.60647e-08
8.66617e-08
1.07711e-08
8.73108e-08
9.21384e-09
8.7821e-08
7.74617e-09
8.83016e-08
8.87712e-08
1.02164e-08
8.97613e-08
8.68604e-09
9.01376e-08
7.25072e-09
9.0491e-08
9.08256e-08
9.8173e-09
9.21704e-08
8.31638e-09
9.24103e-08
6.91232e-09
9.2634e-08
9.2831e-08
9.57678e-09
9.45295e-08
8.10793e-09
9.46355e-08
6.73399e-09
9.4732e-08
9.4794e-08
9.49218e-09
9.68299e-08
8.05799e-09
9.68097e-08
6.71302e-09
9.67865e-08
9.67212e-08
9.55516e-09
9.90633e-08
8.15816e-09
9.89294e-08
6.84106e-09
9.87987e-08
9.86187e-08
9.75189e-09
1.01222e-07
8.39446e-09
1.00991e-07
7.10422e-09
1.0077e-07
1.00493e-07
1.00633e-08
1.03298e-07
8.74772e-09
1.02993e-07
7.48345e-09
1.02701e-07
1.02348e-07
1.04658e-08
1.05285e-07
9.194e-09
1.0493e-07
7.95498e-09
1.04593e-07
1.04189e-07
1.09313e-08
1.07178e-07
9.70515e-09
1.06802e-07
8.49086e-09
1.06447e-07
1.06021e-07
1.14285e-08
1.08972e-07
1.02495e-08
1.08606e-07
9.05965e-09
1.08262e-07
1.07845e-07
1.19232e-08
1.10664e-07
1.07926e-08
1.1034e-07
9.62718e-09
1.10039e-07
1.09663e-07
1.23794e-08
1.1225e-07
1.12982e-08
1.12002e-07
1.01573e-08
1.11777e-07
1.11476e-07
1.27601e-08
1.13731e-07
1.17287e-08
1.13593e-07
1.0613e-08
1.13476e-07
1.13284e-07
1.30279e-08
1.15107e-07
1.20467e-08
1.15111e-07
1.09569e-08
1.15134e-07
1.15083e-07
1.31463e-08
1.16378e-07
1.22153e-08
1.16557e-07
1.11525e-08
1.1675e-07
1.16873e-07
1.30806e-08
1.17549e-07
1.21994e-08
1.1793e-07
1.11649e-08
1.18322e-07
1.18647e-07
1.27984e-08
1.18621e-07
1.19663e-08
1.19232e-07
1.09617e-08
1.19848e-07
1.20402e-07
1.22705e-08
1.196e-07
1.14868e-08
1.20464e-07
1.05137e-08
1.21326e-07
1.22132e-07
1.14719e-08
1.20492e-07
1.07354e-08
1.21626e-07
9.79585e-09
1.22752e-07
1.23829e-07
1.03821e-08
1.21302e-07
9.69155e-09
1.22721e-07
8.78752e-09
1.24125e-07
1.25486e-07
8.98553e-09
1.22037e-07
8.33955e-09
1.23751e-07
7.47325e-09
1.25441e-07
1.27096e-07
7.27228e-09
1.22704e-07
6.66936e-09
1.24717e-07
5.84298e-09
1.26698e-07
1.2865e-07
5.238e-09
1.23311e-07
4.67657e-09
1.25621e-07
3.89234e-09
1.27892e-07
1.3014e-07
2.88406e-09
1.23864e-07
2.36261e-09
1.26465e-07
1.62266e-09
1.2902e-07
1.31559e-07
2.1752e-10
1.24369e-07
-2.65435e-10
1.27251e-07
-9.59036e-10
1.3008e-07
1.32899e-07
-2.74917e-09
1.24834e-07
-3.19497e-09
1.27981e-07
-3.84032e-09
1.31069e-07
1.34152e-07
-5.99849e-09
1.25264e-07
-6.40834e-09
1.28656e-07
-7.00372e-09
1.31984e-07
1.35313e-07
-9.50839e-09
1.25663e-07
-9.88328e-09
1.29278e-07
-1.04272e-08
1.32825e-07
1.36375e-07
-1.3253e-08
1.26036e-07
-1.35936e-08
1.29847e-07
-1.40849e-08
1.33588e-07
1.37336e-07
-1.72031e-08
1.26384e-07
-1.751e-08
1.30365e-07
-1.79478e-08
1.34274e-07
1.3819e-07
-2.13276e-08
1.26708e-07
-2.16008e-08
1.30831e-07
-2.19844e-08
1.3488e-07
1.38938e-07
-2.55937e-08
1.2701e-07
-2.5833e-08
1.31244e-07
-2.61623e-08
1.35408e-07
1.39577e-07
-2.99685e-08
1.27286e-07
-3.01732e-08
1.31605e-07
-3.04482e-08
1.35856e-07
1.4011e-07
-3.44198e-08
1.27535e-07
-3.45888e-08
1.31912e-07
-3.48099e-08
1.36226e-07
1.40538e-07
-3.89171e-08
1.27751e-07
-3.9049e-08
1.32163e-07
-3.92169e-08
1.36518e-07
1.40867e-07
-4.34325e-08
1.2793e-07
-4.3526e-08
1.32356e-07
-4.36422e-08
1.36735e-07
1.41103e-07
-4.79398e-08
1.28066e-07
-4.79962e-08
1.32488e-07
-4.8066e-08
1.36877e-07
1.41257e-07
-5.24141e-08
-5.24407e-08
-5.24796e-08
)
;

boundaryField
{
    plateFix
    {
        type            calculated;
        value           nonuniform List<scalar> 4(-1.32934e-09 4.21544e-14 -3.93019e-14 -8.57314e-10);
    }
    plate
    {
        type            calculated;
        value           nonuniform List<scalar> 
168
(
-3.14967e-10
-1.96867e-10
-5.50503e-10
-3.43218e-10
-7.76606e-10
-4.68976e-10
-9.90997e-10
-5.66261e-10
-1.20085e-09
-6.33577e-10
-1.41616e-09
-6.70454e-10
-1.64645e-09
-6.74828e-10
-1.90186e-09
-6.43462e-10
-2.19297e-09
-5.71535e-10
-2.53128e-09
-4.52643e-10
-2.92941e-09
-2.78614e-10
-3.4013e-09
-3.93898e-11
-3.96239e-09
2.77101e-10
-4.62966e-09
6.84988e-10
-5.4216e-09
1.2004e-09
-6.35798e-09
1.84124e-09
-7.4595e-09
2.62668e-09
-8.74701e-09
3.57641e-09
-1.02404e-08
4.7094e-09
-1.19571e-08
6.04223e-09
-1.39094e-08
7.5867e-09
-1.61018e-08
9.34676e-09
-1.99381e-08
1.21961e-08
-2.12704e-08
1.35709e-08
-2.24032e-08
1.47504e-08
-2.33162e-08
1.57142e-08
-2.39959e-08
1.64487e-08
-2.44355e-08
1.6947e-08
-2.46345e-08
1.72088e-08
-2.45989e-08
1.72398e-08
-2.43403e-08
1.70516e-08
-2.38757e-08
1.66613e-08
-2.32266e-08
1.60902e-08
-2.24186e-08
1.53638e-08
-2.14804e-08
1.4511e-08
-2.04432e-08
1.35626e-08
-1.93395e-08
1.25513e-08
-1.82026e-08
1.15101e-08
-1.70652e-08
1.0472e-08
-1.5959e-08
9.46831e-09
-1.49134e-08
8.52852e-09
-1.39549e-08
7.67907e-09
-1.31064e-08
6.94274e-09
-1.23863e-08
6.33798e-09
-1.18084e-08
5.87842e-09
-1.1381e-08
5.57244e-09
-1.11071e-08
5.42296e-09
-1.09842e-08
5.42728e-09
-1.1004e-08
5.57715e-09
-1.11529e-08
5.8589e-09
-1.14123e-08
6.25382e-09
-1.17589e-08
6.73853e-09
-1.21652e-08
7.28557e-09
-1.26005e-08
7.86406e-09
-1.30314e-08
8.44043e-09
-1.34223e-08
8.97923e-09
-1.3737e-08
9.44398e-09
-1.39389e-08
9.79805e-09
-1.39922e-08
1.00056e-08
-1.38627e-08
1.00323e-08
-1.35187e-08
9.8463e-09
-1.29317e-08
9.41904e-09
-1.2077e-08
8.72578e-09
-1.09345e-08
7.74628e-09
-9.48902e-09
6.46531e-09
-7.73076e-09
4.87296e-09
-5.65544e-09
2.96487e-09
-3.26439e-09
7.42298e-10
-5.64493e-10
-1.78795e-09
2.43207e-09
-4.61375e-09
5.70818e-09
-7.71806e-09
9.24228e-09
-1.10794e-08
1.3009e-08
-1.46724e-08
1.698e-08
-1.84689e-08
2.11247e-08
-2.24381e-08
2.54112e-08
-2.65482e-08
2.98074e-08
-3.07671e-08
3.4282e-08
-3.50632e-08
3.88053e-08
-3.94071e-08
4.33502e-08
-4.37726e-08
4.7889e-08
-4.81432e-08
5.23887e-08
1.2815e-07
1.32567e-07
1.3696e-07
1.41345e-07
-5.25238e-08
)
;
    }
    frontAndBackPlanes
    {
        type            empty;
    }
}


// ************************************************************************* //
