/*--------------------------------*- C++ -*----------------------------------*\
| =========                 |                                                 |
| \\      /  F ield         | OpenFOAM Extend Project: Open source CFD        |
|  \\    /   O peration     | Version:  1.6-ext                               |
|   \\  /    A nd           | Web:      www.extend-project.de                 |
|    \\/     M anipulation  |                                                 |
\*---------------------------------------------------------------------------*/
FoamFile
{
    version     2.0;
    format      ascii;
    class       volScalarField;
    location    "0.95";
    object      sigmaEq;
}
// * * * * * * * * * * * * * * * * * * * * * * * * * * * * * * * * * * * * * //

dimensions      [1 -1 -2 0 0 0 0];

internalField   nonuniform List<scalar> 
328
(
3.8246
1.13436
1.00505
4.21328
4.09277
1.22164
1.33661
4.4944
4.35741
1.4066
1.70281
4.80083
4.47989
1.51443
1.91659
4.95191
4.54599
1.57379
2.04567
5.04195
4.55829
1.58871
2.10368
5.06983
4.54339
1.58204
2.12362
5.06585
4.51021
1.56333
2.11911
5.03975
4.46713
1.54044
2.102
5.00119
4.41777
1.51649
2.07783
4.95414
4.36431
1.49303
2.0502
4.90107
4.30753
1.47026
2.0207
4.84284
4.24768
1.44798
1.99007
4.77974
4.18466
1.42577
1.95846
4.71169
4.11822
1.40325
1.92572
4.63848
4.04807
1.38011
1.89157
4.55984
3.97389
1.35612
1.85566
4.47544
3.8954
1.33112
1.81762
4.38498
3.81233
1.30501
1.7771
4.28811
3.72441
1.2777
1.7338
4.1845
3.63151
1.24917
1.68744
4.07388
3.53322
1.21931
1.63776
3.9558
3.42589
1.18651
1.58228
3.82576
3.31341
1.15355
1.52357
3.68752
3.20229
1.12159
1.46499
3.54977
3.09274
1.0905
1.4064
3.41262
2.98463
1.06017
1.34783
3.27609
2.87803
1.03061
1.28931
3.14026
2.77299
1.0018
1.2309
3.00524
2.66954
0.97373
1.17266
2.87112
2.56774
0.946389
1.11465
2.738
2.46766
0.919769
1.05693
2.606
2.36935
0.893863
0.999569
2.47524
2.27288
0.868662
0.942637
2.34584
2.17832
0.844157
0.886217
2.21795
2.08576
0.820339
0.830395
2.09171
1.99526
0.797201
0.775268
1.96728
1.90691
0.774732
0.72094
1.84482
1.82079
0.752924
0.667527
1.72451
1.73697
0.731769
0.615157
1.60652
1.65553
0.711258
0.563973
1.49104
1.57654
0.691382
0.514135
1.37824
1.50006
0.672133
0.465827
1.26832
1.42616
0.6535
0.419264
1.16145
1.35488
0.635476
0.374701
1.05783
1.28627
0.618049
0.332456
0.957628
1.22036
0.601209
0.292928
0.861014
1.15717
0.584942
0.256639
0.768151
1.0967
0.569233
0.224274
0.679192
1.03896
0.554065
0.196716
0.594275
0.983924
0.539415
0.175018
0.51353
0.931561
0.525259
0.16021
0.43707
0.881826
0.511566
0.152868
0.364999
0.834661
0.4983
0.152658
0.297413
0.789995
0.485422
0.15828
0.234412
0.747744
0.472886
0.167946
0.176128
0.707814
0.460638
0.179938
0.122824
0.670098
0.448622
0.192889
0.075308
0.634481
0.436776
0.205812
0.0378047
0.600836
0.425033
0.218025
0.0337934
0.569029
0.413323
0.229064
0.0610526
0.53892
0.401571
0.238619
0.0907766
0.510359
0.389702
0.246481
0.117782
0.483189
0.377638
0.252516
0.141242
0.457251
0.365298
0.256642
0.161013
0.432374
0.352602
0.258818
0.177133
0.408387
0.339468
0.259028
0.189716
0.385114
0.325814
0.257282
0.198912
0.362376
0.31156
0.253607
0.204892
0.339996
0.296626
0.248038
0.207845
0.317805
0.280935
0.240622
0.207964
0.295644
0.264411
0.231404
0.205441
0.27338
0.246982
0.220424
0.200467
0.250906
0.228564
0.207697
0.193215
0.228186
0.209062
0.19321
0.183867
0.205231
0.188276
0.176827
0.172581
0.182305
0.165969
0.158371
0.159701
0.159663
0.141368
0.137123
0.145475
0.138858
0.114476
0.113155
0.131416
0.119705
0.0843267
0.0853253
0.117022
0.107697
0.0634233
0.0650832
0.107597
0.0935812
0.0698589
0.0695675
0.0934021
)
;

boundaryField
{
    plateFix
    {
        type            calculated;
        value           nonuniform List<scalar> 4(3.87953 1.3846 1.20613 4.33903);
    }
    plate
    {
        type            calculated;
        value           nonuniform List<scalar> 
168
(
4.22034
4.64185
4.41925
4.86526
4.63284
5.11729
4.71083
5.21192
4.75173
5.26726
4.74963
5.27414
4.72787
5.25963
4.69142
5.22852
4.64677
5.18783
4.5963
5.13977
4.54167
5.08592
4.48343
5.0267
4.42176
4.96223
4.35656
4.89238
4.28762
4.81696
4.21467
4.73571
4.13742
4.64836
4.05558
4.55462
3.96891
4.45418
3.87713
4.34671
3.78013
4.23195
3.67744
4.10942
3.56537
3.97465
3.4479
3.83136
3.33171
3.68853
3.21714
3.54632
3.10404
3.40478
2.99252
3.26398
2.88258
3.12404
2.77431
2.98505
2.66774
2.84712
2.56294
2.71036
2.45999
2.5749
2.35895
2.44087
2.25991
2.30842
2.16294
2.17769
2.06813
2.04885
1.97556
1.92207
1.88533
1.79753
1.79751
1.6754
1.71218
1.55588
1.62943
1.43915
1.54933
1.32541
1.47194
1.21484
1.39731
1.10762
1.3255
1.00395
1.25654
0.903994
1.19046
0.807913
1.12725
0.715863
1.06693
0.627984
1.00947
0.544399
0.954838
0.465218
0.90299
0.390536
0.853863
0.32043
0.807383
0.254966
0.76346
0.194209
0.721995
0.138245
0.682876
0.0873021
0.645979
0.0425269
0.611173
0.0193104
0.578316
0.0464645
0.547262
0.0784628
0.517853
0.107237
0.489928
0.132156
0.463321
0.153181
0.437859
0.170409
0.413365
0.183982
0.389661
0.194074
0.366568
0.200874
0.34391
0.204583
0.321522
0.205409
0.299251
0.203562
0.276972
0.199247
0.254595
0.192658
0.232101
0.184004
0.209522
0.17347
0.187143
0.161426
0.165182
0.1481
0.145095
0.134961
0.126745
0.121768
0.118295
0.116976
0.115539
0.0771845
0.0680895
0.0671741
0.0760994
0.115835
)
;
    }
    frontAndBackPlanes
    {
        type            empty;
    }
}


// ************************************************************************* //
