/*--------------------------------*- C++ -*----------------------------------*\
| =========                 |                                                 |
| \\      /  F ield         | OpenFOAM Extend Project: Open source CFD        |
|  \\    /   O peration     | Version:  1.6-ext                               |
|   \\  /    A nd           | Web:      www.extend-project.de                 |
|    \\/     M anipulation  |                                                 |
\*---------------------------------------------------------------------------*/
FoamFile
{
    version     2.0;
    format      ascii;
    class       volSymmTensorField;
    location    "0.95";
    object      sigma;
}
// * * * * * * * * * * * * * * * * * * * * * * * * * * * * * * * * * * * * * //

dimensions      [1 -1 -2 0 0 0 0];

internalField   nonuniform List<symmTensor> 
328
(
(6.74577 0.591871 -6.80956e-22 2.63186 6.05121e-20 3.74889)
(1.86024 -0.429537 1.32595e-23 0.925704 5.76375e-23 1.11323)
(-1.5311 -0.320596 7.86467e-23 -0.595118 -7.11099e-23 -0.851617)
(-6.58766 0.833025 1.45118e-22 -2.12835 -1.04501e-19 -3.48862)
(6.53339 0.381194 2.27249e-21 1.97454 -1.54537e-19 3.401)
(1.84575 -0.187941 1.26268e-22 0.514001 -3.56803e-23 0.942676)
(-1.52085 -0.097781 2.24198e-23 0.000153675 1.03237e-22 -0.609504)
(-6.29103 0.547502 1.32587e-21 -1.29391 -3.45333e-20 -3.0362)
(6.54617 0.241495 -3.03864e-21 1.62815 -5.35495e-20 3.26746)
(1.94371 -0.0161149 -1.9962e-22 0.341672 1.70881e-22 0.912803)
(-1.67533 0.0528871 8.76163e-22 0.281585 1.06289e-22 -0.558864)
(-6.28055 0.344768 -5.20459e-21 -0.841503 1.2289e-19 -2.85116)
(6.48454 0.158804 1.93979e-21 1.40282 4.24187e-20 3.1526)
(1.92864 0.0945859 1.46841e-22 0.208024 -2.14661e-22 0.85318)
(-1.67514 0.141403 -1.04156e-21 0.515833 -7.15919e-22 -0.465234)
(-6.19087 0.216057 4.77885e-21 -0.542119 5.27161e-20 -2.69561)
(6.45333 0.114843 -1.21466e-21 1.28629 6.25693e-20 3.09344)
(1.92195 0.157442 1.33933e-21 0.148478 5.25455e-22 0.826571)
(-1.68528 0.184695 5.19775e-23 0.644794 -4.73684e-22 -0.417835)
(-6.14811 0.140521 -4.07121e-22 -0.381671 -1.12737e-19 -2.61439)
(6.40888 0.0939209 1.44258e-21 1.22362 -5.96738e-20 3.05056)
(1.89072 0.193097 -2.33393e-22 0.112582 1.16627e-23 0.799625)
(-1.65762 0.204532 -1.39391e-21 0.734521 7.36832e-22 -0.370975)
(-6.09688 0.0983798 -3.07429e-22 -0.29238 3.08357e-20 -2.55822)
(6.36448 0.0859801 -2.68538e-21 1.19468 1.16034e-19 3.02121)
(1.86063 0.210872 9.13148e-22 0.0979031 -2.7299e-23 0.781655)
(-1.62756 0.210791 2.16149e-22 0.786205 -3.2054e-22 -0.338345)
(-6.05165 0.0767077 8.14403e-22 -0.249196 1.17921e-20 -2.52287)
(6.31375 0.0844764 4.70535e-21 1.18149 -5.51023e-20 2.99564)
(1.82785 0.218808 -8.44821e-21 0.0908592 -1.56616e-21 0.765685)
(-1.5899 0.211084 1.17152e-22 0.818779 -3.63228e-22 -0.310292)
(-6.00276 0.066555 -3.14074e-21 -0.229185 -3.96347e-20 -2.49532)
(6.25837 0.0858058 -3.80515e-21 1.17546 7.0171e-20 2.97108)
(1.79752 0.221103 5.41077e-21 0.0887118 7.04985e-22 0.752674)
(-1.55265 0.208939 4.15773e-21 0.836927 -6.57422e-22 -0.288157)
(-5.9508 0.0626181 -2.45834e-21 -0.221077 7.8913e-20 -2.47129)
(6.19756 0.0880254 6.27088e-21 1.17138 -8.98056e-20 2.94514)
(1.7689 0.220631 2.8654e-21 0.088213 -5.05811e-22 0.741018)
(-1.51565 0.206351 1.12215e-21 0.846667 -2.74804e-22 -0.269467)
(-5.89357 0.0616584 8.49754e-21 -0.217688 -7.6415e-20 -2.44703)
(6.13166 0.0902796 -2.8779e-21 1.16692 7.66168e-20 2.91701)
(1.74244 0.218897 -1.16013e-20 0.0886794 8.0497e-22 0.73062)
(-1.48039 0.20402 2.73976e-21 0.850484 -1.2097e-21 -0.253833)
(-5.83057 0.0619159 -2.90701e-21 -0.21553 2.5196e-20 -2.42095)
(6.06061 0.0922511 -9.40315e-21 1.16105 -9.25499e-20 2.88625)
(1.71746 0.216784 1.23164e-20 0.0896372 3.20432e-21 0.721021)
(-1.44659 0.202138 -3.88566e-21 0.850457 2.61651e-21 -0.240317)
(-5.76112 0.0624421 -4.79719e-21 -0.21285 1.2821e-20 -2.39208)
(5.98441 0.093897 1.72973e-20 1.15348 5.00041e-20 2.85277)
(1.69353 0.214712 -3.55288e-21 0.0911052 -2.03496e-21 0.712045)
(-1.41407 0.200615 -8.02015e-21 0.84768 8.43314e-22 -0.228409)
(-5.68493 0.0627919 3.5437e-21 -0.20897 1.69954e-20 -2.36003)
(5.90296 0.0952693 -1.46386e-20 1.14422 1.68476e-21 2.81651)
(1.67008 0.212866 -1.5914e-20 0.0931007 2.86851e-22 0.703472)
(-1.38227 0.199302 7.33794e-22 0.842939 9.54392e-22 -0.217572)
(-5.60173 0.062782 3.01122e-22 -0.203705 -4.87223e-20 -2.32462)
(5.81605 0.096439 -1.27265e-20 1.13337 -1.22646e-20 2.77742)
(1.64666 0.21128 -8.11163e-21 0.0956567 -7.70187e-22 0.695136)
(-1.35063 0.198052 -1.72025e-21 0.836691 4.56954e-22 -0.207401)
(-5.51134 0.0623735 1.25866e-20 -0.197114 1.95264e-20 -2.2858)
(5.72343 0.0974612 1.58772e-20 1.12101 -3.88409e-21 2.73546)
(1.62288 0.209917 -1.09539e-21 0.0987453 -2.66762e-21 0.686872)
(-1.31854 0.196756 7.75365e-21 0.829226 2.4406e-21 -0.197543)
(-5.41358 0.0615949 1.75268e-21 -0.189343 -2.27056e-20 -2.24356)
(5.62481 0.0983664 -7.35313e-21 1.10722 -3.53909e-20 2.69052)
(1.59846 0.208699 1.22971e-20 0.102305 2.78288e-21 0.678537)
(-1.28548 0.195346 -1.20082e-20 0.820696 8.56992e-22 -0.187719)
(-5.30825 0.0605044 8.78216e-21 -0.180562 3.15184e-20 -2.19788)
(5.51986 0.099165 4.47707e-20 1.092 2.91089e-20 2.64248)
(1.57315 0.207537 -1.12185e-20 0.106241 -4.35923e-21 0.669998)
(-1.25097 0.193777 2.86775e-20 0.811168 4.93212e-21 -0.177712)
(-5.19514 0.0591669 -7.81664e-21 -0.170928 -6.92646e-20 -2.14875)
(5.40829 0.0998527 -5.24352e-20 1.07536 2.02857e-20 2.59123)
(1.54678 0.206344 -5.10428e-20 0.11046 -1.2217e-20 0.661149)
(-1.21459 0.192025 -4.08538e-21 0.800654 -9.80768e-21 -0.167353)
(-5.07399 0.0576428 -1.74033e-20 -0.160571 5.6908e-20 -2.09611)
(5.28969 0.100411 -5.64603e-20 1.05722 -2.61928e-20 2.53656)
(1.51918 0.205033 7.06828e-20 0.114846 3.54525e-21 0.651875)
(-1.17602 0.190066 2.1013e-20 0.789113 3.44474e-21 -0.156528)
(-4.94452 0.0559878 3.56024e-20 -0.149602 -9.92372e-21 -2.0399)
(5.16394 0.100837 6.7581e-20 1.03759 3.22936e-20 2.47845)
(1.49031 0.203549 -1.06616e-20 0.119345 1.22295e-20 0.642137)
(-1.13498 0.187887 -3.51173e-21 0.776531 -1.16915e-20 -0.145129)
(-4.80646 0.0542334 -3.34153e-20 -0.138069 3.39202e-20 -1.98002)
(5.03024 0.101006 2.05497e-20 1.01612 -1.83822e-20 2.41641)
(1.45992 0.201737 -3.07071e-20 0.12375 1.25435e-21 0.631755)
(-1.09128 0.185393 -1.35702e-20 0.762796 3.14836e-21 -0.133127)
(-4.65935 0.0523954 -4.91811e-21 -0.126035 1.11819e-21 -1.91632)
(4.88438 0.100679 -1.59761e-20 0.992782 4.83888e-21 2.34878)
(1.42704 0.198732 5.11436e-20 0.128532 1.84549e-20 0.620533)
(-1.04297 0.18166 3.18833e-20 0.74732 -8.82706e-21 -0.119976)
(-4.49784 0.0498944 6.47933e-20 -0.113271 -2.70704e-20 -1.84657)
(4.73058 0.101181 -5.30687e-20 0.967437 -1.95413e-20 2.27716)
(1.39256 0.197516 -1.85195e-20 0.133008 1.07914e-20 0.608548)
(-0.99167 0.179737 3.50803e-20 0.730253 4.32363e-21 -0.106265)
(-4.32707 0.0482525 -1.49339e-19 -0.100711 4.41424e-20 -1.77319)
(4.57805 0.101548 -5.90666e-20 0.941783 9.20295e-21 2.20593)
(1.35876 0.196371 1.79726e-20 0.137063 1.52884e-20 0.596665)
(-0.940415 0.177991 -1.24466e-20 0.713156 1.31402e-20 -0.0925833)
(-4.1568 0.0468264 7.54575e-20 -0.0880927 -6.31142e-20 -1.69998)
(4.42693 0.101772 1.12514e-19 0.915731 -8.18609e-21 2.1351)
(1.32547 0.195121 -1.20964e-20 0.140566 -1.48623e-20 0.584765)
(-0.889418 0.176206 -2.77585e-20 0.695727 -1.69882e-20 -0.0791373)
(-3.9878 0.0454438 -1.53754e-20 -0.0760735 2.56957e-20 -1.62753)
(4.27735 0.101833 2.23715e-20 0.889544 -3.47662e-20 2.06483)
(1.29274 0.193748 -9.88294e-20 0.143682 -3.17673e-20 0.572937)
(-0.838567 0.174387 6.09826e-20 0.678099 -3.05764e-22 -0.0658286)
(-3.81988 0.044152 -5.85537e-20 -0.0644415 -1.79196e-20 -1.55567)
(4.12928 0.101766 -3.56898e-20 0.863116 1.4773e-20 1.99507)
(1.2605 0.192247 1.18169e-20 0.146324 4.6345e-20 0.561115)
(-0.787985 0.172507 -6.59219e-20 0.660195 -1.40446e-20 -0.0527386)
(-3.65331 0.0429173 -1.29101e-20 -0.0533583 2.23374e-20 -1.48456)
(3.98286 0.101557 1.54749e-19 0.836543 4.08962e-20 1.92591)
(1.22879 0.190609 8.10582e-20 0.148544 -3.13499e-20 0.549336)
(-0.737671 0.170563 4.06793e-20 0.642079 5.82473e-20 -0.0398405)
(-3.48811 0.0417487 8.47467e-20 -0.0427447 -8.44771e-20 -1.41419)
(3.8381 0.101215 -1.30925e-19 0.809794 -4.2353e-20 1.85734)
(1.19758 0.188828 4.70683e-20 0.150312 -2.58986e-20 0.537577)
(-0.687702 0.168541 -1.2494e-19 0.623734 6.51367e-20 -0.0271727)
(-3.32444 0.0406287 -2.80628e-20 -0.0326543 -2.73715e-20 -1.34465)
(3.69513 0.100734 -3.34432e-20 0.782915 1.05429e-21 1.78943)
(1.1669 0.186893 -7.7849e-20 0.151642 5.17224e-20 0.525853)
(-0.638114 0.16643 -6.83618e-20 0.605188 -3.46084e-20 -0.0147373)
(-3.16241 0.039555 -2.07908e-20 -0.0230676 7.28881e-20 -1.27596)
(3.55401 0.100113 -7.28307e-20 0.75591 -3.16489e-21 1.72222)
(1.13674 0.184794 -6.33254e-20 0.152525 -4.67054e-20 0.514157)
(-0.58897 0.164218 -7.59952e-20 0.586445 -7.66075e-20 -0.00255819)
(-3.00218 0.0385171 8.90967e-20 -0.0140067 5.31485e-20 -1.20821)
(3.41484 0.0993467 -1.797e-19 0.72881 -4.05701e-22 1.65574)
(1.1071 0.18252 2.69174e-19 0.152964 6.96789e-20 0.502496)
(-0.540321 0.16189 -3.41977e-20 0.567526 -1.32585e-19 0.0093516)
(-2.84387 0.0375097 -5.15097e-20 -0.00547223 3.61537e-20 -1.14143)
(3.27773 0.0984329 1.27188e-19 0.701633 -5.55517e-20 1.59006)
(1.078 0.180059 -9.43328e-20 0.152958 4.75313e-20 0.49087)
(-0.492233 0.159436 2.68859e-19 0.548443 2.78404e-20 0.0209718)
(-2.68765 0.0365253 -1.72219e-19 0.00252332 5.42108e-21 -1.07571)
(3.14279 0.097367 -5.64351e-21 0.674411 2.42479e-21 1.52523)
(1.04945 0.177401 7.47326e-20 0.152508 1.44032e-19 0.479284)
(-0.444767 0.156843 1.4849e-19 0.529216 -9.23748e-20 0.032285)
(-2.53368 0.0355585 1.06747e-20 0.00997366 4.33518e-20 -1.01111)
(3.01014 0.0961453 2.80696e-19 0.647172 1.5034e-20 1.4613)
(1.02145 0.174537 -9.86594e-20 0.151616 6.10834e-20 0.467744)
(-0.397995 0.1541 -6.56491e-20 0.509864 -3.23281e-20 0.0432713)
(-2.38215 0.0346036 -1.15398e-19 0.0168696 -1.29589e-19 -0.947708)
(2.8799 0.0947644 -9.42456e-20 0.619951 1.43986e-19 1.39835)
(0.994011 0.171458 -4.92325e-20 0.150286 8.0712e-20 0.456254)
(-0.351986 0.151198 -2.20285e-22 0.490411 -1.18398e-19 0.053911)
(-2.23324 0.0336564 1.70726e-20 0.0232042 -2.11292e-20 -0.885577)
(2.7522 0.0932216 -1.50702e-19 0.592784 6.7114e-21 1.33643)
(0.967147 0.168156 1.8136e-19 0.148524 -1.66132e-19 0.44482)
(-0.306817 0.148129 -2.08076e-19 0.47088 2.0737e-19 0.0641839)
(-2.08714 0.032713 8.32976e-20 0.0289709 -1.16804e-19 -0.824799)
(2.62718 0.0915148 1.22609e-19 0.565713 -9.32578e-20 1.27562)
(0.940864 0.164628 5.74809e-20 0.146337 -1.7484e-19 0.433449)
(-0.262567 0.144888 -1.79125e-19 0.451299 -9.77496e-20 0.0740695)
(-1.94405 0.0317707 -7.65977e-21 0.0341648 1.869e-19 -0.765459)
(2.50496 0.0896432 2.49141e-19 0.538779 1.55415e-19 1.21598)
(0.915172 0.16087 -4.72272e-20 0.143736 3.42992e-19 0.422148)
(-0.219315 0.141471 1.34827e-19 0.431698 1.45489e-19 0.0835473)
(-1.80419 0.0308275 -2.16177e-19 0.0387822 -1.06697e-19 -0.707639)
(2.38568 0.0876068 -1.1185e-19 0.51203 1.03213e-19 1.1576)
(0.890076 0.156882 1.58192e-19 0.140732 -1.41272e-19 0.410926)
(-0.177147 0.137877 1.27321e-20 0.412108 1.77978e-19 0.0925969)
(-1.66776 0.0298827 -1.44848e-19 0.0428218 3.72781e-20 -0.651424)
(2.26947 0.0854069 -1.73859e-19 0.485513 -2.24119e-19 1.10054)
(0.865581 0.152667 1.45131e-20 0.137341 1.65607e-19 0.399789)
(-0.136144 0.134108 8.12852e-20 0.392565 -2.99004e-19 0.101198)
(-1.53498 0.0289362 1.30823e-19 0.0462846 7.46435e-20 -0.596897)
(2.15646 0.0830463 1.26964e-19 0.459281 5.67833e-20 1.04486)
(0.841692 0.14823 -1.8429e-19 0.133579 7.43444e-21 0.388746)
(-0.0963939 0.130168 4.39893e-19 0.373104 -8.01681e-20 0.109332)
(-1.40604 0.0279892 -2.60454e-19 0.0491741 6.99371e-20 -0.544142)
(2.04677 0.0805289 1.30578e-19 0.433385 -1.21328e-19 0.990654)
(0.818407 0.143579 -2.57973e-19 0.129468 4.92744e-20 0.377805)
(-0.05798 0.126064 -2.90758e-20 0.353764 4.47007e-19 0.11698)
(-1.28117 0.0270438 5.84532e-20 0.0514967 6.25865e-20 -0.493237)
(1.94051 0.0778602 3.48361e-19 0.40788 -3.73148e-20 0.937972)
(0.795724 0.138724 -1.57458e-19 0.12503 -1.32674e-19 0.366975)
(-0.0209865 0.121806 4.47635e-20 0.334585 -3.96119e-19 0.124123)
(-1.16055 0.026103 -6.75989e-20 0.053262 -2.10447e-19 -0.444258)
(1.83778 0.075047 -1.71234e-21 0.38282 1.1182e-19 0.88688)
(0.773638 0.13368 -7.19314e-20 0.120291 2.2866e-19 0.356263)
(0.0145045 0.117405 -3.01618e-19 0.315608 3.54238e-19 0.130747)
(-1.04437 0.0251707 -3.61915e-19 0.0544829 1.80707e-22 -0.397276)
(1.73867 0.0720976 7.01301e-19 0.35826 2.42672e-20 0.837437)
(0.752139 0.128463 -8.36074e-20 0.115277 4.78961e-19 0.345676)
(0.0484137 0.112878 1.48639e-19 0.296876 -2.11722e-19 0.136836)
(-0.932822 0.0242516 3.77465e-19 0.0551758 1.22091e-19 -0.352356)
(1.64326 0.0690215 -1.14381e-19 0.334255 -5.6583e-20 0.789694)
(0.731213 0.123091 -3.358e-19 0.11002 -6.10131e-19 0.335221)
(0.0806653 0.10824 -3.64569e-21 0.278433 -6.64845e-20 0.142378)
(-0.82606 0.0233509 -1.6434e-19 0.0553604 1.12095e-19 -0.309555)
(1.5516 0.0658294 4.55738e-20 0.310858 -4.40259e-20 0.743695)
(0.710844 0.117585 1.79392e-19 0.104552 -7.06762e-20 0.324904)
(0.111188 0.103512 -3.16676e-20 0.260322 -3.52767e-19 0.14736)
(-0.724234 0.0224747 -5.40105e-19 0.0550604 1.10766e-19 -0.268923)
(1.46375 0.0625331 -2.00751e-20 0.28812 1.50107e-20 0.69948)
(0.691009 0.111969 -2.12096e-20 0.0989057 5.23705e-19 0.31473)
(0.139915 0.0987131 2.15024e-19 0.242586 -3.23092e-20 0.151774)
(-0.627474 0.0216292 5.48353e-20 0.0543024 1.10806e-19 -0.230501)
(1.37971 0.0591453 -3.42135e-19 0.26609 -1.46906e-19 0.657076)
(0.671683 0.106267 5.52601e-19 0.0931181 -1.49633e-20 0.304703)
(0.166785 0.0938668 -2.53719e-19 0.225269 3.11993e-19 0.155613)
(-0.53589 0.0208211 8.61402e-20 0.053117 -2.87534e-19 -0.194322)
(1.29951 0.0556794 -2.07496e-19 0.244817 -5.60666e-20 0.616506)
(0.652837 0.100504 -3.73776e-19 0.0872259 -9.19958e-19 0.294825)
(0.191746 0.0889959 -1.50161e-20 0.208413 -1.26188e-19 0.158873)
(-0.449571 0.0200571 1.57031e-19 0.0515374 5.16792e-21 -0.160406)
(1.22311 0.0521494 3.30582e-19 0.224342 1.17552e-19 0.577779)
(0.634437 0.0947068 -8.75996e-20 0.0812668 3.6267e-19 0.285099)
(0.21475 0.0841245 6.21789e-20 0.192058 2.72156e-19 0.16155)
(-0.368583 0.0193439 3.02309e-19 0.0496001 -3.76748e-19 -0.128767)
(1.1505 0.0485696 5.11093e-20 0.204706 -8.22357e-20 0.5409)
(0.616445 0.0889016 -5.85399e-20 0.0752795 1.58392e-19 0.275525)
(0.235757 0.0792765 -2.21063e-19 0.176245 1.3792e-19 0.163644)
(-0.292968 0.018688 -4.41102e-19 0.0473442 1.80259e-19 -0.0994044)
(1.08161 0.0449544 2.53526e-20 0.185944 -5.85577e-20 0.505859)
(0.598821 0.0831152 3.38048e-19 0.0693027 3.68483e-19 0.266102)
(0.254735 0.0744757 3.45149e-19 0.161011 6.68471e-20 0.165158)
(-0.222744 0.0180956 1.04835e-19 0.0448108 -3.87019e-20 -0.0723106)
(1.01638 0.0413182 -1.56516e-19 0.168087 1.35068e-20 0.472642)
(0.581519 0.0773737 -3.58974e-20 0.0633752 -3.80882e-19 0.256827)
(0.271661 0.0697456 -8.49837e-19 0.146389 2.35498e-19 0.166096)
(-0.157908 0.0175726 7.23681e-20 0.042043 1.96116e-19 -0.0474658)
(0.954707 0.037675 -3.75278e-19 0.151163 -7.26134e-19 0.441222)
(0.564493 0.0717023 -1.94668e-19 0.0575354 3.29548e-19 0.247697)
(0.286519 0.0651088 4.08243e-19 0.132414 -5.89138e-19 0.166465)
(-0.0984296 0.017124 3.22274e-19 0.0390856 -3.59628e-20 -0.0248409)
(0.896491 0.0340388 -4.1888e-19 0.135192 1.2746e-19 0.411565)
(0.547693 0.0661255 2.61537e-19 0.0518208 1.7179e-19 0.238708)
(0.299301 0.0605866 -4.48022e-19 0.119113 1.33846e-19 0.166274)
(-0.0442579 0.0167547 -5.50803e-19 0.0359839 1.84007e-19 -0.00439667)
(0.841605 0.0304228 3.7797e-19 0.120192 -1.526e-19 0.383628)
(0.531067 0.0606667 2.98605e-19 0.0462682 -8.75399e-20 0.229852)
(0.310009 0.0561998 -4.69324e-20 0.106514 8.15426e-21 0.165533)
(0.00468161 0.0164688 7.55364e-19 0.0327841 -4.44762e-19 0.013915)
(0.789909 0.0268398 5.71809e-20 0.106175 1.93627e-19 0.35736)
(0.514562 0.0553479 -5.55799e-19 0.0409131 1.74466e-19 0.221124)
(0.318651 0.0519676 3.57641e-19 0.0946391 -4.00852e-19 0.164255)
(0.0484851 0.01627 -5.57177e-19 0.0295326 9.1701e-20 0.0301511)
(0.741248 0.0233019 -6.24889e-19 0.0931479 3.69651e-20 0.332702)
(0.498123 0.0501902 3.78023e-19 0.0357896 -7.36024e-20 0.212514)
(0.325244 0.0479083 3.72522e-19 0.0835074 -4.37069e-21 0.162454)
(0.0872694 0.0161614 -9.41647e-20 0.0262756 2.0902e-19 0.044377)
(0.695457 0.019821 1.24367e-19 0.0811145 2.2125e-19 0.309588)
(0.481695 0.0452137 4.38045e-19 0.0309306 -5.6261e-19 0.204015)
(0.329813 0.0440395 -6.32781e-19 0.0731352 -4.94804e-19 0.160148)
(0.121172 0.0161461 -2.07646e-19 0.0230585 -2.62417e-20 0.0566656)
(0.652355 0.0164081 -5.44463e-19 0.0700725 1.16305e-19 0.287946)
(0.465221 0.0404378 -5.14407e-19 0.026367 -2.26919e-19 0.195614)
(0.33239 0.0403781 1.66853e-19 0.0635347 2.29053e-19 0.157353)
(0.150347 0.0162269 1.37666e-19 0.0199265 5.96999e-20 0.0670975)
(0.611752 0.0130739 -2.13068e-20 0.0600158 -4.96092e-20 0.267698)
(0.448643 0.0358813 4.99087e-19 0.0221285 -3.53511e-19 0.187303)
(0.333015 0.0369405 9.84519e-19 0.0547147 3.34044e-19 0.154089)
(0.174971 0.0164065 -9.3314e-20 0.0169236 2.36097e-19 0.0757599)
(0.573447 0.00982854 -1.77097e-19 0.0509342 -3.23466e-19 0.248758)
(0.431906 0.0315623 -3.11575e-19 0.0182432 1.02399e-18 0.179068)
(0.331734 0.0337429 7.20476e-20 0.0466804 -4.9378e-19 0.150377)
(0.195235 0.016688 1.99078e-19 0.0140927 -5.22524e-19 0.0827468)
(0.537228 0.00668166 -2.6514e-19 0.0428131 5.51585e-20 0.231037)
(0.414951 0.0274984 2.0594e-19 0.0147378 -3.27159e-19 0.170898)
(0.328601 0.0308011 -3.20144e-19 0.039434 1.28322e-19 0.146239)
(0.211346 0.0170748 3.72721e-20 0.0114761 4.05746e-20 0.0881582)
(0.502876 0.00364202 -5.39063e-19 0.0356349 3.24743e-19 0.214439)
(0.397724 0.0237062 -2.06925e-20 0.0116378 2.65039e-19 0.162781)
(0.323675 0.0281302 4.17905e-19 0.0329741 -6.46321e-19 0.141698)
(0.223527 0.0175701 6.24475e-19 0.009115 -1.74184e-19 0.0920998)
(0.470165 0.000717252 1.4356e-19 0.0293783 -4.04126e-19 0.198867)
(0.380166 0.0202001 2.64906e-19 0.00896725 -9.6541e-19 0.154704)
(0.31702 0.0257436 -6.53842e-19 0.0272972 1.94126e-18 0.136779)
(0.232015 0.0181774 -4.04077e-19 0.00704978 -2.11069e-19 0.0946821)
(0.438866 -0.00208696 1.68757e-20 0.0240197 5.11253e-19 0.184218)
(0.362225 0.0169912 1.12352e-19 0.00674957 -3.7318e-19 0.146654)
(0.308705 0.0236519 9.63764e-19 0.0223974 -4.31356e-19 0.131507)
(0.237055 0.0188997 -5.65518e-19 0.00532036 -1.85048e-19 0.0960194)
(0.408746 -0.00476778 -6.44698e-19 0.019533 -7.53102e-19 0.170389)
(0.343848 0.0140848 -1.66087e-19 0.00500686 3.73127e-19 0.138619)
(0.298802 0.0218606 8.14458e-20 0.0182677 -6.02504e-19 0.125907)
(0.2389 0.0197388 9.34651e-20 0.00396588 -2.4032e-19 0.096228)
(0.379582 -0.00732677 -1.02616e-19 0.0158925 -4.73104e-20 0.15728)
(0.324984 0.0114775 5.37639e-19 0.00376155 1.2355e-18 0.130589)
(0.287384 0.0203681 -9.04272e-19 0.0149015 -6.88424e-20 0.120005)
(0.237801 0.0206946 -1.07179e-19 0.00302581 4.35838e-19 0.0954249)
(0.351157 -0.00977186 -8.86852e-19 0.0130717 1.22068e-19 0.144794)
(0.305587 0.00915347 1.16136e-20 0.00303478 -3.31737e-19 0.122551)
(0.274518 0.0191628 9.38801e-19 0.0122932 3.78741e-19 0.113828)
(0.234004 0.0217648 -7.60068e-19 0.0025387 4.57178e-19 0.0937233)
(0.323286 -0.0121203 6.86579e-20 0.0110512 4.66917e-19 0.13285)
(0.285616 0.00707909 -2.1038e-19 0.00285337 7.4654e-20 0.114502)
(0.260269 0.0182222 2.06019e-19 0.0104459 2.70578e-19 0.107402)
(0.227745 0.0229449 -9.62676e-20 0.00254663 -3.85594e-19 0.0912343)
(0.295808 -0.0144031 -8.77672e-20 0.00981602 -5.32021e-19 0.121376)
(0.265015 0.00519761 -3.84392e-19 0.00324294 1.0677e-19 0.106429)
(0.244674 0.0175137 4.68465e-19 0.00936633 -1.03017e-18 0.100743)
(0.21923 0.0242298 3.70901e-19 0.00309145 3.99708e-19 0.0880573)
(0.268645 -0.0166745 2.90692e-19 0.00938193 -1.58188e-19 0.110349)
(0.243747 0.00341738 1.11197e-19 0.00426545 7.28948e-19 0.0983419)
(0.227767 0.0170043 -3.0692e-19 0.0091035 9.14825e-19 0.0938854)
(0.208676 0.0256241 -1.93141e-19 0.00423713 -2.60561e-19 0.0843046)
(0.241754 -0.0190227 -7.19066e-19 0.00978341 7.16548e-19 0.099763)
(0.22163 0.00160294 7.45249e-19 0.00596778 2.14665e-19 0.0901862)
(0.209415 0.0166752 9.28016e-20 0.00969737 -1.53048e-18 0.0867926)
(0.196243 0.0271522 2.15827e-20 0.00605593 -6.2352e-19 0.0800684)
(0.215426 -0.0216156 3.95094e-19 0.0112011 -4.79786e-19 0.0898083)
(0.198611 -0.000463988 3.51986e-21 0.00859339 1.43435e-18 0.0820384)
(0.189601 0.0165754 -8.59185e-19 0.0113924 -6.62754e-19 0.079554)
(0.182333 0.0289149 3.82426e-19 0.00875085 7.05051e-19 0.0755918)
(0.189785 -0.0246825 8.51007e-20 0.0138489 5.06417e-19 0.0806197)
(0.173667 -0.00304513 -4.07401e-19 0.0120907 3.24236e-19 0.0734684)
(0.167308 0.0168069 1.05557e-18 0.0141412 -7.45005e-20 0.0717448)
(0.167094 0.0310729 -4.79444e-19 0.01255 -4.58991e-19 0.0710242)
(0.166674 -0.0286179 -1.2192e-19 0.0185745 2.20532e-19 0.0732733)
(0.147245 -0.00646286 9.75352e-19 0.0172139 -1.74837e-18 0.0649563)
(0.143014 0.0175793 2.28799e-19 0.0187134 1.18775e-18 0.0638638)
(0.152374 0.0339927 3.76659e-21 0.0182917 2.23976e-19 0.0674404)
(0.144844 -0.0328864 2.54931e-19 0.0250238 -4.40274e-21 0.0671277)
(0.114262 -0.0101811 2.05225e-19 0.0204843 -4.40648e-19 0.0530775)
(0.111618 0.0183369 -2.75911e-20 0.0216434 2.85637e-20 0.0524836)
(0.136795 0.0371083 -4.11614e-20 0.0256072 4.30983e-19 0.0641416)
(0.131784 -0.0350101 4.88781e-20 0.0309231 1.82766e-19 0.0642697)
(0.0860848 -0.0124421 4.90419e-20 0.0184475 2.09567e-19 0.0409972)
(0.0847358 0.01753 -6.69111e-19 0.0195437 7.81401e-19 0.0408961)
(0.128266 0.0381373 -6.92082e-19 0.0321428 -7.74265e-19 0.0633503)
(0.0986413 -0.024548 -4.39005e-20 0.0032216 3.61512e-19 0.0399347)
(0.0429376 -0.00902562 1.17479e-19 -0.0356626 9.38435e-19 0.00209601)
(0.0424086 0.0116958 -3.41702e-19 -0.0344173 -1.72432e-19 0.00238254)
(0.0975161 0.0268242 3.34455e-19 0.00482772 2.70969e-19 0.0401271)
)
;

boundaryField
{
    plateFix
    {
        type            calculated;
        value           nonuniform List<symmTensor> 4((6.69238 0.731049 -1.44688e-21 2.59681 6.02435e-20 3.71334) (1.69813 -0.651111 1.32588e-23 0.817682 5.76253e-23 1.00515) (-1.30865 -0.53765 7.86531e-23 -0.446766 -7.11043e-23 -0.703326) (-6.54657 1.04193 -1.04129e-21 -2.10034 -1.04011e-19 -3.46117));
    }
    plate
    {
        type            calculated;
        value           nonuniform List<symmTensor> 
168
(
(5.29955 0.00131493 -3.5902e-22 0.472458 -3.38577e-20 2.30663)
(-4.86155 -0.00195289 -5.9193e-23 0.474655 5.86601e-22 -1.75699)
(5.52847 0.00136423 1.64248e-21 0.473193 -2.99415e-21 2.39842)
(-5.11717 -0.00188354 1.53156e-21 0.475378 5.07364e-25 -1.85904)
(5.77433 0.00179553 -3.39979e-21 0.47404 -3.96686e-20 2.497)
(-5.40552 -0.00219552 -5.54888e-21 0.476214 -2.66608e-21 -1.97416)
(5.86459 0.0025704 1.92452e-21 0.474845 3.47277e-20 2.53338)
(-5.51331 -0.00286859 4.75241e-21 0.477011 3.14676e-21 -2.017)
(5.91216 0.00366816 -1.23213e-21 0.475521 2.36738e-21 2.55265)
(-5.57615 -0.00390775 -4.33498e-22 0.477684 -3.97915e-21 -2.0419)
(5.9102 0.00498154 1.42299e-21 0.475997 1.66928e-23 2.55205)
(-5.58357 -0.00518895 -2.99922e-22 0.478161 2.31566e-21 -2.04469)
(5.88546 0.00644325 -2.6563e-21 0.476236 3.23489e-20 2.54225)
(-5.56667 -0.00664089 8.19423e-22 0.478406 8.27859e-22 -2.03784)
(5.84363 0.00798896 4.70364e-21 0.476226 -5.9056e-20 2.52551)
(-5.53097 -0.00819231 -3.17163e-21 0.478406 2.66824e-20 -2.02356)
(5.79213 0.00957556 -3.78341e-21 0.475964 2.62023e-20 2.50482)
(-5.48452 -0.0097963 -2.4129e-21 0.478158 -2.4535e-20 -2.00507)
(5.73373 0.0111722 6.21795e-21 0.475453 1.53442e-21 2.48126)
(-5.42985 -0.0114186 8.45501e-21 0.477666 -5.26154e-22 -1.98339)
(5.6703 0.0127603 -2.83997e-21 0.474697 2.17961e-20 2.4556)
(-5.36877 -0.0130382 -2.90384e-21 0.476933 2.17528e-20 -1.95923)
(5.60249 0.0143296 -9.46609e-21 0.473697 -2.0903e-20 2.42809)
(-5.30176 -0.0146428 -4.76163e-21 0.47596 -2.32817e-20 -1.9328)
(5.53051 0.015876 1.73612e-20 0.472448 -1.95573e-20 2.39882)
(-5.22896 -0.0162265 3.54044e-21 0.474744 5.42239e-21 -1.90415)
(5.45423 0.0173991 -1.46525e-20 0.470939 1.24018e-20 2.36772)
(-5.15024 -0.0177876 2.66688e-22 0.473275 -1.94899e-20 -1.87323)
(5.37338 0.0189001 -1.27356e-20 0.46915 -9.73352e-22 2.33469)
(-5.06539 -0.0193259 1.25944e-20 0.471532 1.40232e-20 -1.83996)
(5.28762 0.0203798 1.58691e-20 0.467052 -1.96879e-21 2.29957)
(-4.97414 -0.0208412 1.71437e-21 0.46949 5.74205e-21 -1.80425)
(5.19659 0.0218373 -7.37555e-21 0.464609 -9.89076e-21 2.2622)
(-4.87622 -0.0223317 8.82444e-21 0.467115 1.13573e-20 -1.766)
(5.09992 0.0232677 4.48065e-20 0.461779 1.36894e-20 2.22243)
(-4.77133 -0.0237916 -7.88032e-21 0.464366 -2.78542e-20 -1.72511)
(4.99729 0.0246642 -5.24647e-20 0.458515 2.503e-20 2.18011)
(-4.65915 -0.0252133 -1.73444e-20 0.4612 2.60215e-20 -1.68147)
(4.88831 0.0260077 -5.64866e-20 0.454752 -2.22597e-20 2.13504)
(-4.53937 -0.0265773 3.56074e-20 0.457553 -9.1157e-22 -1.63498)
(4.77284 0.0272981 6.7606e-20 0.45049 2.5152e-20 2.08718)
(-4.4117 -0.0278823 -3.33639e-20 0.453431 -3.26169e-21 -1.58552)
(4.65017 0.0284564 2.05611e-20 0.445518 -1.01927e-20 2.03616)
(-4.27577 -0.0290523 -4.92307e-21 0.448629 -4.93849e-21 -1.53302)
(4.51629 0.0297398 -1.59737e-20 0.440101 7.52915e-21 1.98048)
(-4.12621 -0.0303317 6.47478e-20 0.443402 -1.23713e-20 -1.47524)
(4.37496 0.031029 -5.31182e-20 0.4334 1.71518e-21 1.92131)
(-3.96806 -0.0315967 -1.49244e-19 0.436954 -2.20918e-22 -1.41452)
(4.23506 0.0321045 -5.90744e-20 0.426643 1.08645e-22 1.86269)
(-3.81047 -0.0326418 7.53268e-20 0.430466 -8.65923e-21 -1.35403)
(4.09647 0.0330821 1.1249e-19 0.419335 5.38041e-22 1.80437)
(-3.6541 -0.033576 -1.53238e-20 0.423464 9.07534e-21 -1.29424)
(3.95935 0.0339163 2.22776e-20 0.411786 5.63865e-22 1.74653)
(-3.4987 -0.0343577 -5.85717e-20 0.416248 -1.38276e-20 -1.23492)
(3.82361 0.0346521 -3.57277e-20 0.403818 7.9295e-21 1.68909)
(-3.34454 -0.0350316 -1.27652e-20 0.408648 -2.90163e-20 -1.17625)
(3.68941 0.0352717 1.54878e-19 0.39554 -7.82199e-21 1.63213)
(-3.19163 -0.0355824 8.45864e-20 0.400767 -2.75345e-20 -1.1182)
(3.55675 0.0357917 -1.31093e-19 0.386896 6.52462e-21 1.57565)
(-3.04013 -0.0360272 -2.81566e-20 0.392556 7.91287e-21 -1.06084)
(3.42573 0.0362067 -3.33956e-20 0.377924 -4.15649e-21 1.51969)
(-2.89013 -0.0363626 -2.05971e-20 0.384048 -3.79055e-21 -1.00421)
(3.29643 0.0365222 -7.28174e-20 0.368613 -3.32104e-22 1.46427)
(-2.74178 -0.0365953 8.92498e-20 0.375232 4.2733e-21 -0.948355)
(3.16892 0.0367365 -1.79796e-19 0.35898 1.29493e-20 1.40945)
(-2.59521 -0.0367255 -5.14229e-20 0.366123 4.67105e-23 -0.893332)
(3.04331 0.0368512 1.26919e-19 0.349028 3.76472e-22 1.35526)
(-2.45056 -0.0367558 -1.72173e-19 0.356722 -1.60485e-20 -0.839199)
(2.91969 0.0368654 -5.63565e-21 0.338772 -3.38348e-21 1.30174)
(-2.308 -0.0366869 1.07951e-20 0.347039 3.15563e-21 -0.786013)
(2.79817 0.036779 2.80729e-19 0.328222 1.29024e-20 1.24894)
(-2.16769 -0.03652 -1.15899e-19 0.337083 -4.2627e-21 -0.733837)
(2.67887 0.0365912 -9.36723e-20 0.317396 2.67506e-21 1.19691)
(-2.0298 -0.0362555 1.69845e-20 0.326863 7.2951e-22 -0.682738)
(2.56189 0.0363016 -1.50641e-19 0.30631 -5.49519e-22 1.14572)
(-1.89452 -0.0358941 8.28134e-20 0.316392 1.23178e-22 -0.632782)
(2.44736 0.0359096 1.22243e-19 0.294987 7.94154e-22 1.09541)
(-1.76203 -0.0354359 -6.94546e-21 0.305685 1.15779e-20 -0.58404)
(2.33541 0.0354148 2.4979e-19 0.28345 -2.32529e-21 1.04604)
(-1.63253 -0.0348813 -2.16611e-19 0.294757 2.31115e-21 -0.536583)
(2.22614 0.034817 -1.11389e-19 0.271724 -1.2199e-20 0.997664)
(-1.50622 -0.0342306 -1.44633e-19 0.283627 -1.38027e-20 -0.490482)
(2.11968 0.0341162 -1.749e-19 0.25984 7.99101e-21 0.950352)
(-1.38329 -0.033484 1.31116e-19 0.272317 -2.05258e-21 -0.445807)
(2.01614 0.033313 1.27234e-19 0.247827 6.73615e-22 0.904156)
(-1.26393 -0.032642 -2.60159e-19 0.260848 1.46148e-21 -0.402628)
(1.91563 0.032408 1.2997e-19 0.235722 3.13902e-21 0.859135)
(-1.14835 -0.0317053 5.87236e-20 0.249248 4.1299e-22 -0.361011)
(1.81824 0.0314025 3.48172e-19 0.223558 3.46017e-21 0.815342)
(-1.03673 -0.0306746 -6.86016e-20 0.237542 7.28636e-21 -0.32102)
(1.72408 0.0302983 -1.24806e-21 0.211375 5.60474e-21 0.772828)
(-0.929246 -0.0295512 -3.61888e-19 0.225762 -8.19619e-21 -0.282714)
(1.63322 0.0290975 7.01346e-19 0.199211 1.74664e-20 0.731642)
(-0.826064 -0.0283365 3.77984e-19 0.21394 7.65867e-21 -0.246146)
(1.54573 0.0278027 -1.14641e-19 0.187108 -2.59481e-21 0.691825)
(-0.727339 -0.0270322 -1.63809e-19 0.202109 7.98983e-22 -0.211367)
(1.46165 0.0264172 4.53815e-20 0.175106 2.00123e-21 0.653416)
(-0.633212 -0.0256406 -5.39536e-19 0.190305 -6.04268e-21 -0.178416)
(1.38102 0.0249446 -1.99594e-20 0.163247 -1.20386e-20 0.616444)
(-0.543806 -0.0241642 5.54193e-20 0.178566 1.96861e-21 -0.147328)
(1.30387 0.0233888 -3.42945e-19 0.151574 8.15288e-21 0.580935)
(-0.459225 -0.022606 8.48191e-20 0.166929 -8.52901e-21 -0.11813)
(1.23019 0.0217545 -2.07668e-19 0.140126 2.60961e-22 0.546906)
(-0.379553 -0.0209694 1.5706e-19 0.155434 8.69657e-22 -0.0908396)
(1.15997 0.0200464 3.31178e-19 0.128944 -7.16601e-21 0.514365)
(-0.304854 -0.0192582 3.00548e-19 0.14412 -3.75213e-21 -0.0654663)
(1.09317 0.0182696 5.06848e-20 0.118068 -9.68685e-22 0.483316)
(-0.23517 -0.0174767 -4.40178e-19 0.133027 -7.35307e-22 -0.0420111)
(1.02975 0.0164297 2.51058e-20 0.107535 -8.96803e-21 0.453752)
(-0.170519 -0.0156293 1.04675e-19 0.122195 7.69274e-22 -0.0204661)
(0.969624 0.0145322 -1.5645e-19 0.0973794 -1.00694e-20 0.425659)
(-0.110901 -0.013721 7.34656e-20 0.111662 2.95441e-22 -0.000814636)
(0.912717 0.0125828 -3.78937e-19 0.0876356 -5.8085e-22 0.399017)
(-0.0562903 -0.0117569 3.22073e-19 0.101467 1.76232e-21 0.0169681)
(0.858924 0.0105873 -4.18172e-19 0.078334 -2.52152e-21 0.373797)
(-0.00664088 -0.00974236 -5.49862e-19 0.0916445 -2.22317e-21 0.0329153)
(0.808128 0.00855155 3.77266e-19 0.0695028 1.69621e-21 0.349963)
(0.0381142 -0.00768302 7.53115e-19 0.0822308 3.37756e-21 0.0470676)
(0.760198 0.00648119 5.8193e-20 0.0611673 -6.5108e-21 0.327474)
(0.0780623 -0.00558449 -5.56668e-19 0.0732585 -2.80132e-21 0.0594732)