/*--------------------------------*- C++ -*----------------------------------*\
| =========                 |                                                 |
| \\      /  F ield         | OpenFOAM Extend Project: Open source CFD        |
|  \\    /   O peration     | Version:  1.6-ext                               |
|   \\  /    A nd           | Web:      www.extend-project.de                 |
|    \\/     M anipulation  |                                                 |
\*---------------------------------------------------------------------------*/
FoamFile
{
    version     2.0;
    format      ascii;
    class       volVectorField;
    location    "0.95";
    object      Usolid;
}
// * * * * * * * * * * * * * * * * * * * * * * * * * * * * * * * * * * * * * //

dimensions      [0 1 0 0 0 0 0];

internalField   nonuniform List<vector> 
328
(
(1.48882e-07 1.44778e-07 0)
(3.45855e-08 -5.58093e-08 0)
(-3.03088e-08 -4.46447e-08 0)
(-1.54255e-07 1.98462e-07 0)
(4.61185e-07 3.86466e-07 0)
(1.17471e-07 -7.97667e-08 0)
(-1.08485e-07 -4.71949e-08 0)
(-4.7665e-07 5.24065e-07 0)
(8.22634e-07 6.21709e-07 0)
(2.29634e-07 -9.89342e-09 0)
(-2.26695e-07 4.28866e-08 0)
(-8.53572e-07 8.21679e-07 0)
(1.21707e-06 8.83773e-07 0)
(3.5592e-07 1.58468e-07 0)
(-3.64973e-07 2.28661e-07 0)
(-1.26554e-06 1.12819e-06 0)
(1.64672e-06 1.20535e-06 0)
(4.96708e-07 4.31272e-07 0)
(-5.24403e-07 5.15498e-07 0)
(-1.71553e-06 1.48063e-06 0)
(2.10827e-06 1.6155e-06 0)
(6.47704e-07 8.20581e-07 0)
(-6.98939e-07 9.15275e-07 0)
(-2.19969e-06 1.91134e-06 0)
(2.60212e-06 2.14202e-06 0)
(8.08572e-07 1.34211e-06 0)
(-8.87768e-07 1.44399e-06 0)
(-2.7186e-06 2.45082e-06 0)
(3.12831e-06 2.81243e-06 0)
(9.78541e-07 2.01622e-06 0)
(-1.08923e-06 2.12247e-06 0)
(-3.27234e-06 3.12859e-06 0)
(3.68785e-06 3.65567e-06 0)
(1.15793e-06 2.86746e-06 0)
(-1.30316e-06 2.97585e-06 0)
(-3.86203e-06 3.97516e-06 0)
(4.28187e-06 4.70321e-06 0)
(1.34711e-06 3.92502e-06 0)
(-1.52948e-06 4.03391e-06 0)
(-4.48892e-06 5.02317e-06 0)
(4.91181e-06 5.99026e-06 0)
(1.54673e-06 5.22294e-06 0)
(-1.76856e-06 5.33118e-06 0)
(-5.15454e-06 6.30867e-06 0)
(5.57915e-06 7.55667e-06 0)
(1.75744e-06 6.80059e-06 0)
(-2.0209e-06 6.90745e-06 0)
(-5.86045e-06 7.87213e-06 0)
(6.28546e-06 9.44787e-06 0)
(1.9799e-06 8.70325e-06 0)
(-2.28713e-06 8.80831e-06 0)
(-6.60823e-06 9.75937e-06 0)
(7.03224e-06 1.17157e-05 0)
(2.21472e-06 1.09828e-05 0)
(-2.56789e-06 1.10858e-05 0)
(-7.39943e-06 1.20225e-05 0)
(7.82097e-06 1.44194e-05 0)
(2.46246e-06 1.36985e-05 0)
(-2.86384e-06 1.37993e-05 0)
(-8.23549e-06 1.47207e-05 0)
(8.65299e-06 1.76262e-05 0)
(2.72361e-06 1.69177e-05 0)
(-3.17559e-06 1.70162e-05 0)
(-9.11776e-06 1.79214e-05 0)
(9.52951e-06 2.14127e-05 0)
(2.99861e-06 2.07171e-05 0)
(-3.50366e-06 2.08131e-05 0)
(-1.00474e-05 2.17011e-05 0)
(1.04515e-05 2.58656e-05 0)
(3.28782e-06 2.51835e-05 0)
(-3.8485e-06 2.52769e-05 0)
(-1.10254e-05 2.61463e-05 0)
(1.14198e-05 3.10832e-05 0)
(3.5915e-06 3.04152e-05 0)
(-4.21043e-06 3.05056e-05 0)
(-1.20524e-05 3.13552e-05 0)
(1.24349e-05 3.71761e-05 0)
(3.90987e-06 3.65228e-05 0)
(-4.58963e-06 3.66099e-05 0)
(-1.31289e-05 3.74383e-05 0)
(1.34968e-05 4.42688e-05 0)
(4.24299e-06 4.36309e-05 0)
(-4.9861e-06 4.37144e-05 0)
(-1.42548e-05 4.452e-05 0)
(1.46054e-05 5.25011e-05 0)
(4.59087e-06 5.18793e-05 0)
(-5.39966e-06 5.19586e-05 0)
(-1.54297e-05 5.27399e-05 0)
(1.58037e-05 6.23924e-05 0)
(4.96712e-06 6.17879e-05 0)
(-5.84633e-06 6.18625e-05 0)
(-1.6699e-05 6.26167e-05 0)
(1.70431e-05 7.38461e-05 0)
(5.3565e-06 7.32598e-05 0)
(-6.30763e-06 7.3329e-05 0)
(-1.8011e-05 7.40542e-05 0)
(1.82396e-05 8.61358e-05 0)
(5.73277e-06 8.55672e-05 0)
(-6.75215e-06 8.56308e-05 0)
(-1.92763e-05 8.6327e-05 0)
(1.93936e-05 9.92316e-05 0)
(6.09611e-06 9.86803e-05 0)
(-7.17999e-06 9.87381e-05 0)
(-2.04954e-05 9.94054e-05 0)
(2.05056e-05 0.000113104 0)
(6.44675e-06 0.000112569 0)
(-7.59118e-06 0.000112621 0)
(-2.16683e-05 0.00011326 0)
(2.1576e-05 0.000127723 0)
(6.78487e-06 0.000127205 0)
(-7.98579e-06 0.000127251 0)
(-2.27956e-05 0.00012786 0)
(2.26053e-05 0.00014306 0)
(7.11071e-06 0.000142559 0)
(-8.36385e-06 0.000142598 0)
(-2.38774e-05 0.000143179 0)
(2.3594e-05 0.000159087 0)
(7.42448e-06 0.000158601 0)
(-8.72545e-06 0.000158634 0)
(-2.49142e-05 0.000159186 0)
(2.45426e-05 0.000175774 0)
(7.72645e-06 0.000175303 0)
(-9.07063e-06 0.00017533 0)
(-2.59063e-05 0.000175853 0)
(2.54519e-05 0.000193093 0)
(8.01685e-06 0.000192637 0)
(-9.39947e-06 0.000192657 0)
(-2.68541e-05 0.000193152 0)
(2.63222e-05 0.000211016 0)
(8.29595e-06 0.000210575 0)
(-9.71206e-06 0.000210588 0)
(-2.7758e-05 0.000211056 0)
(2.71544e-05 0.000229516 0)
(8.56403e-06 0.00022909 0)
(-1.00085e-05 0.000229096 0)
(-2.86186e-05 0.000229535 0)
(2.7949e-05 0.000248565 0)
(8.82137e-06 0.000248153 0)
(-1.02889e-05 0.000248153 0)
(-2.94362e-05 0.000248564 0)
(2.87069e-05 0.000268138 0)
(9.06828e-06 0.000267739 0)
(-1.05533e-05 0.000267732 0)
(-3.02116e-05 0.000268116 0)
(2.94287e-05 0.000288206 0)
(9.30504e-06 0.000287821 0)
(-1.0802e-05 0.000287807 0)
(-3.09451e-05 0.000288164 0)
(3.01152e-05 0.000308745 0)
(9.53199e-06 0.000308372 0)
(-1.10351e-05 0.000308352 0)
(-3.16376e-05 0.000308683 0)
(3.07673e-05 0.000329729 0)
(9.74942e-06 0.000329369 0)
(-1.12527e-05 0.000329341 0)
(-3.22897e-05 0.000329646 0)
(3.13858e-05 0.000351132 0)
(9.95768e-06 0.000350785 0)
(-1.14552e-05 0.00035075 0)
(-3.29021e-05 0.00035103 0)
(3.19717e-05 0.000372932 0)
(1.01571e-05 0.000372596 0)
(-1.16427e-05 0.000372555 0)
(-3.34757e-05 0.000372809 0)
(3.25258e-05 0.000395103 0)
(1.0348e-05 0.000394778 0)
(-1.18155e-05 0.000394731 0)
(-3.40113e-05 0.00039496 0)
(3.30492e-05 0.000417623 0)
(1.05307e-05 0.000417309 0)
(-1.19739e-05 0.000417255 0)
(-3.45098e-05 0.000417461 0)
(3.35427e-05 0.000440469 0)
(1.07055e-05 0.000440165 0)
(-1.21182e-05 0.000440105 0)
(-3.49723e-05 0.000440288 0)
(3.40075e-05 0.000463619 0)
(1.08728e-05 0.000463326 0)
(-1.22489e-05 0.000463259 0)
(-3.53999e-05 0.000463419 0)
(3.44446e-05 0.000487052 0)
(1.10329e-05 0.000486769 0)
(-1.23662e-05 0.000486697 0)
(-3.57935e-05 0.000486834 0)
(3.4855e-05 0.000510749 0)
(1.11861e-05 0.000510475 0)
(-1.24707e-05 0.000510396 0)
(-3.61545e-05 0.000510513 0)
(3.52398e-05 0.000534689 0)
(1.13327e-05 0.000534423 0)
(-1.25627e-05 0.000534339 0)
(-3.6484e-05 0.000534436 0)
(3.56001e-05 0.000558853 0)
(1.14729e-05 0.000558596 0)
(-1.26429e-05 0.000558506 0)
(-3.67833e-05 0.000558583 0)
(3.5937e-05 0.000583223 0)
(1.16072e-05 0.000582974 0)
(-1.27116e-05 0.00058288 0)
(-3.70538e-05 0.000582938 0)
(3.62515e-05 0.000607783 0)
(1.17357e-05 0.000607542 0)
(-1.27695e-05 0.000607442 0)
(-3.72967e-05 0.000607483 0)
(3.65447e-05 0.000632516 0)
(1.18587e-05 0.000632282 0)
(-1.28172e-05 0.000632178 0)
(-3.75137e-05 0.000632202 0)
(3.68177e-05 0.000657407 0)
(1.19764e-05 0.00065718 0)
(-1.28552e-05 0.000657071 0)
(-3.77059e-05 0.000657079 0)
(3.70715e-05 0.000682441 0)
(1.2089e-05 0.00068222 0)
(-1.28841e-05 0.000682107 0)
(-3.78751e-05 0.000682101 0)
(3.73072e-05 0.000707604 0)
(1.21967e-05 0.00070739 0)
(-1.29047e-05 0.000707273 0)
(-3.80225e-05 0.000707252 0)
(3.75257e-05 0.000732883 0)
(1.22996e-05 0.000732675 0)
(-1.29176e-05 0.000732555 0)
(-3.81499e-05 0.000732521 0)
(3.7728e-05 0.000758267 0)
(1.2398e-05 0.000758065 0)
(-1.29235e-05 0.000757941 0)
(-3.82586e-05 0.000757895 0)
(3.79151e-05 0.000783744 0)
(1.24918e-05 0.000783547 0)
(-1.29231e-05 0.000783421 0)
(-3.83501e-05 0.000783364 0)
(3.80877e-05 0.000809305 0)
(1.25812e-05 0.000809113 0)
(-1.29171e-05 0.000808984 0)
(-3.84261e-05 0.000808917 0)
(3.82467e-05 0.000834938 0)
(1.26663e-05 0.000834751 0)
(-1.29062e-05 0.000834621 0)
(-3.84879e-05 0.000834545 0)
(3.83929e-05 0.000860637 0)
(1.2747e-05 0.000860455 0)
(-1.28911e-05 0.000860322 0)
(-3.8537e-05 0.000860238 0)
(3.85271e-05 0.000886392 0)
(1.28233e-05 0.000886214 0)
(-1.28726e-05 0.00088608 0)
(-3.8575e-05 0.00088599 0)
(3.86498e-05 0.000912196 0)
(1.28954e-05 0.000912023 0)
(-1.28513e-05 0.000911889 0)
(-3.86032e-05 0.000911792 0)
(3.87618e-05 0.000938044 0)
(1.2963e-05 0.000937875 0)
(-1.28281e-05 0.00093774 0)
(-3.8623e-05 0.000937638 0)
(3.88636e-05 0.000963928 0)
(1.30261e-05 0.000963764 0)
(-1.28035e-05 0.000963629 0)
(-3.86357e-05 0.000963522 0)
(3.89556e-05 0.000989845 0)
(1.30846e-05 0.000989685 0)
(-1.27784e-05 0.00098955 0)
(-3.86427e-05 0.000989439 0)
(3.90383e-05 0.00101579 0)
(1.31385e-05 0.00101563 0)
(-1.27533e-05 0.0010155 0)
(-3.86451e-05 0.00101539 0)
(3.91121e-05 0.00104175 0)
(1.31874e-05 0.0010416 0)
(-1.27289e-05 0.00104147 0)
(-3.86442e-05 0.00104136 0)
(3.91772e-05 0.00106774 0)
(1.32314e-05 0.00106759 0)
(-1.27059e-05 0.00106746 0)
(-3.8641e-05 0.00106735 0)
(3.9234e-05 0.00109374 0)
(1.32701e-05 0.0010936 0)
(-1.26849e-05 0.00109347 0)
(-3.86366e-05 0.00109335 0)
(3.92824e-05 0.00111976 0)
(1.33033e-05 0.00111962 0)
(-1.26665e-05 0.00111949 0)
(-3.86321e-05 0.00111938 0)
(3.93227e-05 0.00114579 0)
(1.33309e-05 0.00114565 0)
(-1.26513e-05 0.00114553 0)
(-3.86282e-05 0.00114541 0)
(3.93549e-05 0.00117182 0)
(1.33525e-05 0.00117169 0)
(-1.26398e-05 0.00117157 0)
(-3.8626e-05 0.00117146 0)
(3.9379e-05 0.00119787 0)
(1.33678e-05 0.00119774 0)
(-1.26327e-05 0.00119762 0)
(-3.86261e-05 0.00119751 0)
(3.93949e-05 0.00122391 0)
(1.33766e-05 0.0012238 0)
(-1.26304e-05 0.00122368 0)
(-3.86293e-05 0.00122357 0)
(3.94026e-05 0.00124997 0)
(1.33785e-05 0.00124985 0)
(-1.26335e-05 0.00124975 0)
(-3.86364e-05 0.00124964 0)
(3.94019e-05 0.00127602 0)
(1.33732e-05 0.00127592 0)
(-1.26427e-05 0.00127581 0)
(-3.8648e-05 0.00127571 0)
(3.9393e-05 0.00130208 0)
(1.336e-05 0.00130198 0)
(-1.26585e-05 0.00130188 0)
(-3.86647e-05 0.00130178 0)
(3.93756e-05 0.00132814 0)
(1.33379e-05 0.00132804 0)
(-1.26824e-05 0.00132795 0)
(-3.86871e-05 0.00132786 0)
(3.93507e-05 0.00135419 0)
(1.33066e-05 0.0013541 0)
(-1.27149e-05 0.00135402 0)
(-3.87151e-05 0.00135394 0)
(3.93174e-05 0.00138025 0)
(1.32631e-05 0.00138017 0)
(-1.27591e-05 0.00138009 0)
(-3.87499e-05 0.00138001 0)
(3.9282e-05 0.00140633 0)
(1.32153e-05 0.00140624 0)
(-1.28071e-05 0.00140615 0)
(-3.87856e-05 0.00140606 0)
)
;

boundaryField
{
    plateFix
    {
        type            fixedDisplacement;
        value           uniform (0 0 0);
    }
    plate
    {
        type            solidTraction;
        nonLinear       updatedLagrangian;
        traction        uniform (0 0 0);
        pressure        uniform 0;
        value           nonuniform List<vector> 
168
(
(8.01222e-07 6.06192e-07 -6.44248e-26)
(-1.04475e-06 7.52318e-07 -1.07783e-25)
(1.01632e-06 8.70541e-07 1.60144e-25)
(-1.20537e-06 1.10368e-06 -3.54057e-26)
(1.36104e-06 1.13028e-06 4.95106e-26)
(-1.51083e-06 1.43019e-06 1.22211e-25)
(1.80512e-06 1.40129e-06 -3.76099e-26)
(-1.93281e-06 1.74755e-06 4.71799e-26)
(2.33347e-06 1.7276e-06 -6.91676e-26)
(-2.4544e-06 2.10631e-06 -9.98945e-26)
(2.92763e-06 2.13755e-06 6.30927e-26)
(-3.05304e-06 2.53776e-06 2.58526e-26)
(3.57831e-06 2.66166e-06 -1.20754e-25)
(-3.71709e-06 3.0755e-06 1.106e-26)
(4.27945e-06 3.32801e-06 5.8952e-26)
(-4.43852e-06 3.74961e-06 -4.07202e-26)
(5.02876e-06 4.16628e-06 -7.24102e-26)
(-5.21382e-06 4.59139e-06 7.97448e-26)
(5.82583e-06 5.20821e-06 9.24242e-26)
(-6.04167e-06 5.63373e-06 -7.25337e-26)
(6.67162e-06 6.4892e-06 -7.5465e-26)
(-6.92241e-06 6.91286e-06 2.28007e-26)
(7.56774e-06 8.04919e-06 8.68795e-26)
(-7.85719e-06 8.46931e-06 1.22107e-26)
(8.51612e-06 9.93361e-06 -4.45504e-26)
(-8.84764e-06 1.03489e-05 1.82188e-26)
(9.51879e-06 1.21943e-05 -7.63259e-27)
(-9.89555e-06 1.26037e-05 -4.78933e-26)
(1.05777e-05 1.48905e-05 1.01623e-26)
(-1.10028e-05 1.52929e-05 1.92319e-26)
(1.16948e-05 1.80893e-05 8.44576e-27)
(-1.2171e-05 1.84839e-05 -1.2629e-26)
(1.28715e-05 2.18675e-05 3.80214e-26)
(-1.34018e-05 2.2253e-05 2.8435e-26)
(1.41093e-05 2.63117e-05 -2.10655e-26)
(-1.46965e-05 2.6687e-05 -8.07692e-26)
(1.54093e-05 3.152e-05 -2.96269e-26)
(-1.60559e-05 3.18838e-05 6.41107e-26)
(1.67719e-05 3.76031e-05 2.02861e-26)
(-1.74808e-05 3.79538e-05 7.66776e-27)
(1.81974e-05 4.46856e-05 -1.17774e-26)
(-1.89709e-05 4.50215e-05 6.53154e-27)
(1.96853e-05 5.29071e-05 1.42949e-26)
(-2.05258e-05 5.32264e-05 5.39666e-28)
(2.1293e-05 6.27866e-05 -1.69166e-26)
(-2.22052e-05 6.30867e-05 -1.81303e-26)
(2.29567e-05 7.42282e-05 2.37194e-26)
(-2.39422e-05 7.45065e-05 2.98669e-26)
(2.45626e-05 8.65059e-05 -5.67891e-26)
(-2.56175e-05 8.67617e-05 -5.07801e-26)
(2.61112e-05 9.959e-05 4.6329e-26)
(-2.72317e-05 9.98224e-05 2.56403e-26)
(2.76031e-05 0.000113451 1.71137e-26)
(-2.8785e-05 0.000113659 -7.6531e-26)
(2.90388e-05 0.000128059 -6.0204e-26)
(-3.0278e-05 0.000128242 7.35211e-26)
(3.0419e-05 0.000143385 5.44305e-26)
(-3.17111e-05 0.000143543 -3.26656e-26)
(3.17443e-05 0.0001594 -5.78357e-26)
(-3.30848e-05 0.000159533 2.9e-26)
(3.30155e-05 0.000176076 8.74173e-27)
(-3.43996e-05 0.000176183 -1.66757e-26)
(3.42332e-05 0.000193385 2.90197e-28)
(-3.56561e-05 0.000193465 -3.8179e-26)
(3.53982e-05 0.000211298 -4.38577e-26)
(-3.68548e-05 0.000211351 -4.15103e-26)
(3.65114e-05 0.000229788 -1.59699e-26)
(-3.79965e-05 0.000229814 -6.53656e-26)
(3.75736e-05 0.000248828 -3.25173e-26)
(-3.90818e-05 0.000248827 3.39016e-27)
(3.85858e-05 0.00026839 6.92572e-27)
(-4.01114e-05 0.000268362 8.8805e-26)
(3.95489e-05 0.000288449 1.46361e-25)
(-4.10862e-05 0.000288394 2.35651e-26)
(4.0464e-05 0.000308979 2.13606e-28)
(-4.20071e-05 0.000308896 1.37655e-25)
(4.13321e-05 0.000329954 -6.23189e-26)
(-4.2875e-05 0.000329844 -1.97394e-25)
(4.21544e-05 0.000351349 1.30649e-25)
(-4.36909e-05 0.000351212 1.15665e-25)
(4.29321e-05 0.00037314 1.07135e-25)
(-4.44559e-05 0.000372976 -5.17946e-26)
(4.36663e-05 0.000395303 -2.12518e-25)
(-4.51712e-05 0.000395113 -9.85584e-26)
(4.43584e-05 0.000417815 5.42795e-26)
(-4.58381e-05 0.000417599 -5.45921e-26)
(4.50098e-05 0.000440653 -1.31083e-25)
(-4.64578e-05 0.000440412 -4.27096e-26)
(4.56216e-05 0.000463796 -5.78786e-26)
(-4.70318e-05 0.00046353 2.02991e-25)
(4.61955e-05 0.000487223 1.29095e-25)
(-4.75616e-05 0.000486932 6.0761e-28)
(4.67328e-05 0.000510913 -3.10951e-26)
(-4.80487e-05 0.000510598 -1.20852e-25)
(4.72349e-05 0.000534846 -3.90356e-26)
(-4.84947e-05 0.000534508 -1.11014e-25)
(4.77034e-05 0.000559004 -1.21527e-26)
(-4.89014e-05 0.000558644 -1.20569e-25)
(4.81397e-05 0.000583369 8.26739e-28)
(-4.92704e-05 0.000582988 -1.08055e-25)
(4.85454e-05 0.000607923 -1.61703e-25)
(-4.96035e-05 0.000607523 2.47761e-25)
(4.89219e-05 0.000632651 -5.81385e-26)
(-4.99027e-05 0.000632231 3.53293e-26)
(4.92707e-05 0.000657536 1.3367e-25)
(-5.01697e-05 0.000657099 3.85611e-25)
(4.95934e-05 0.000682565 -6.83611e-26)
(-5.04065e-05 0.000682111 -2.07952e-25)
(4.98913e-05 0.000707724 -6.35455e-26)
(-5.0615e-05 0.000707255 8.8533e-26)
(5.01658e-05 0.000732999 1.58033e-26)
(-5.07971e-05 0.000732516 -2.40471e-25)
(5.04184e-05 0.000758379 -7.14174e-25)
(-5.09547e-05 0.000757883 4.40273e-26)
(5.06504e-05 0.000783852 1.26691e-25)
(-5.10899e-05 0.000783345 -1.84651e-25)
(5.0863e-05 0.000809409 -1.45532e-25)
(-5.12045e-05 0.000808892 4.45589e-25)
(5.10575e-05 0.000835039 2.18251e-25)
(-5.13004e-05 0.000834514 -8.9519e-26)
(5.1235e-05 0.000860734 2.2956e-26)
(-5.13794e-05 0.000860203 -2.24826e-25)
(5.13967e-05 0.000886486 2.09367e-25)
(-5.14435e-05 0.00088595 3.96667e-26)
(5.15436e-05 0.000912288 1.28864e-25)
(-5.14943e-05 0.000911748 -4.81569e-26)
(5.16766e-05 0.000938133 -5.04804e-26)
(-5.15336e-05 0.000937591 -2.49182e-25)
(5.17966e-05 0.000964015 -3.19085e-25)
(-5.1563e-05 0.000963472 5.26678e-25)
(5.19043e-05 0.000989928 7.11262e-26)
(-5.15842e-05 0.000989387 -4.92867e-26)
(5.20006e-05 0.00101587 3.16789e-25)
(-5.15987e-05 0.00101533 1.80771e-25)
(5.20861e-05 0.00104183 -4.10873e-25)
(-5.16079e-05 0.0010413 2.07351e-25)
(5.21612e-05 0.00106782 5.18316e-25)
(-5.16131e-05 0.00106729 1.90848e-25)
(5.22264e-05 0.00109382 -7.56455e-25)
(-5.16157e-05 0.0010933 2.41252e-25)
(5.22821e-05 0.00111983 -3.76355e-26)
(-5.16168e-05 0.00111932 -4.40322e-25)
(5.23285e-05 0.00114585 1.30373e-25)
(-5.16175e-05 0.00114536 -4.66241e-25)
(5.23658e-05 0.00117189 4.63069e-25)
(-5.16188e-05 0.0011714 3.83493e-25)
(5.23942e-05 0.00119793 -5.37971e-25)
(-5.16217e-05 0.00119746 -3.96262e-25)
(5.24136e-05 0.00122397 -1.45079e-25)
(-5.16268e-05 0.00122352 2.58978e-25)
(5.24241e-05 0.00125002 7.0132e-25)
(-5.16352e-05 0.00124959 6.27401e-25)
(5.24256e-05 0.00127608 -4.77593e-25)
(-5.16474e-05 0.00127566 -7.02039e-25)
(5.24181e-05 0.00130213 5.03389e-25)
(-5.16642e-05 0.00130173 4.54451e-25)
(5.24019e-05 0.00132819 2.26534e-25)
(-5.16862e-05 0.00132781 -2.24298e-25)
(5.23789e-05 0.00135424 -8.04039e-27)
(-5.17118e-05 0.00135389 -4.32378e-25)
(5.2353e-05 0.0013803 1.81861e-25)
(-5.17384e-05 0.00137997 7.70561e-25)
(5.23407e-05 0.00140637 3.62183e-25)
(3.92608e-05 0.0014194 4.21625e-26)
(1.31915e-05 0.00141928 -1.22794e-25)
(-1.2831e-05 0.00141918 3.44247e-25)
(-3.88067e-05 0.00141906 -3.36235e-25)
(-5.175e-05 0.00140602 -2.68461e-25)
)
;
    }
    frontAndBackPlanes
    {
        type            empty;
    }
}


// ************************************************************************* //
