/*--------------------------------*- C++ -*----------------------------------*\
| =========                 |                                                 |
| \\      /  F ield         | OpenFOAM Extend Project: Open source CFD        |
|  \\    /   O peration     | Version:  1.6-ext                               |
|   \\  /    A nd           | Web:      www.extend-project.de                 |
|    \\/     M anipulation  |                                                 |
\*---------------------------------------------------------------------------*/
FoamFile
{
    version     2.0;
    format      ascii;
    class       volScalarField::DimensionedInternalField;
    location    "0.95";
    object      V0;
}
// * * * * * * * * * * * * * * * * * * * * * * * * * * * * * * * * * * * * * //

dimensions      [0 3 0 0 0 0 0];

value           nonuniform List<scalar> 
328
(
2.53366e-07
2.53359e-07
2.5332e-07
2.53319e-07
2.71731e-07
2.71723e-07
2.71694e-07
2.71696e-07
2.91441e-07
2.91421e-07
2.91396e-07
2.91385e-07
3.12576e-07
3.12548e-07
3.12527e-07
3.12505e-07
3.35243e-07
3.35208e-07
3.35188e-07
3.35158e-07
3.59551e-07
3.59512e-07
3.59492e-07
3.59456e-07
3.85621e-07
3.85578e-07
3.85558e-07
3.85517e-07
4.1358e-07
4.13533e-07
4.13513e-07
4.13468e-07
4.43566e-07
4.43516e-07
4.43495e-07
4.43446e-07
4.75726e-07
4.75673e-07
4.75651e-07
4.75598e-07
5.10218e-07
5.10162e-07
5.10138e-07
5.10081e-07
5.4721e-07
5.47151e-07
5.47125e-07
5.47066e-07
5.86884e-07
5.86821e-07
5.86794e-07
5.86731e-07
6.29435e-07
6.29368e-07
6.2934e-07
6.29273e-07
6.7507e-07
6.75e-07
6.7497e-07
6.74899e-07
7.24015e-07
7.2394e-07
7.23909e-07
7.23834e-07
7.76507e-07
7.76429e-07
7.76396e-07
7.76317e-07
8.32805e-07
8.32723e-07
8.32688e-07
8.32606e-07
8.93185e-07
8.93099e-07
8.93062e-07
8.92976e-07
9.57943e-07
9.57852e-07
9.57814e-07
9.57723e-07
1.02739e-06
1.0273e-06
1.02726e-06
1.02717e-06
1.10188e-06
1.10178e-06
1.10174e-06
1.10164e-06
1.26884e-06
1.26873e-06
1.26868e-06
1.26858e-06
1.26884e-06
1.26873e-06
1.26868e-06
1.26858e-06
1.26883e-06
1.26873e-06
1.26869e-06
1.26858e-06
1.26883e-06
1.26873e-06
1.26869e-06
1.26859e-06
1.26882e-06
1.26873e-06
1.26869e-06
1.26859e-06
1.26882e-06
1.26873e-06
1.26869e-06
1.2686e-06
1.26881e-06
1.26873e-06
1.26869e-06
1.2686e-06
1.26881e-06
1.26873e-06
1.26869e-06
1.26861e-06
1.26881e-06
1.26873e-06
1.26869e-06
1.26861e-06
1.2688e-06
1.26872e-06
1.26869e-06
1.26862e-06
1.2688e-06
1.26872e-06
1.26869e-06
1.26862e-06
1.26879e-06
1.26872e-06
1.26869e-06
1.26862e-06
1.26879e-06
1.26872e-06
1.26869e-06
1.26863e-06
1.26878e-06
1.26872e-06
1.26869e-06
1.26863e-06
1.26878e-06
1.26872e-06
1.2687e-06
1.26864e-06
1.26878e-06
1.26872e-06
1.2687e-06
1.26864e-06
1.26877e-06
1.26872e-06
1.2687e-06
1.26864e-06
1.26877e-06
1.26872e-06
1.2687e-06
1.26865e-06
1.26876e-06
1.26872e-06
1.2687e-06
1.26865e-06
1.26876e-06
1.26872e-06
1.2687e-06
1.26865e-06
1.26876e-06
1.26872e-06
1.2687e-06
1.26866e-06
1.26875e-06
1.26872e-06
1.2687e-06
1.26866e-06
1.26875e-06
1.26872e-06
1.2687e-06
1.26866e-06
1.26875e-06
1.26871e-06
1.2687e-06
1.26867e-06
1.26874e-06
1.26871e-06
1.2687e-06
1.26867e-06
1.26874e-06
1.26871e-06
1.2687e-06
1.26867e-06
1.26874e-06
1.26871e-06
1.2687e-06
1.26868e-06
1.26874e-06
1.26871e-06
1.2687e-06
1.26868e-06
1.26873e-06
1.26871e-06
1.2687e-06
1.26868e-06
1.26873e-06
1.26871e-06
1.2687e-06
1.26868e-06
1.26873e-06
1.26871e-06
1.2687e-06
1.26868e-06
1.26873e-06
1.26871e-06
1.2687e-06
1.26869e-06
1.26872e-06
1.26871e-06
1.2687e-06
1.26869e-06
1.26872e-06
1.26871e-06
1.2687e-06
1.26869e-06
1.26872e-06
1.26871e-06
1.2687e-06
1.26869e-06
1.26872e-06
1.26871e-06
1.2687e-06
1.26869e-06
1.26872e-06
1.26871e-06
1.2687e-06
1.26869e-06
1.26871e-06
1.26871e-06
1.2687e-06
1.26869e-06
1.26871e-06
1.26871e-06
1.2687e-06
1.2687e-06
1.26871e-06
1.26871e-06
1.2687e-06
1.2687e-06
1.26871e-06
1.2687e-06
1.2687e-06
1.2687e-06
1.26871e-06
1.2687e-06
1.2687e-06
1.2687e-06
1.26871e-06
1.2687e-06
1.2687e-06
1.2687e-06
1.26871e-06
1.2687e-06
1.2687e-06
1.2687e-06
1.26871e-06
1.2687e-06
1.2687e-06
1.2687e-06
1.26871e-06
1.2687e-06
1.2687e-06
1.2687e-06
1.2687e-06
1.2687e-06
1.2687e-06
1.2687e-06
1.2687e-06
1.2687e-06
1.2687e-06
1.2687e-06
1.2687e-06
1.2687e-06
1.2687e-06
1.2687e-06
1.2687e-06
1.2687e-06
1.2687e-06
1.2687e-06
1.2687e-06
1.2687e-06
1.2687e-06
1.2687e-06
1.2687e-06
1.2687e-06
1.2687e-06
1.2687e-06
1.2687e-06
1.2687e-06
1.2687e-06
1.2687e-06
1.2687e-06
1.2687e-06
1.2687e-06
1.2687e-06
1.2687e-06
1.2687e-06
1.2687e-06
1.2687e-06
1.2687e-06
1.2687e-06
1.2687e-06
1.2687e-06
1.2687e-06
1.2687e-06
1.2687e-06
1.2687e-06
1.2687e-06
1.2687e-06
1.2687e-06
1.2687e-06
1.2687e-06
1.2687e-06
1.2687e-06
1.2687e-06
1.26869e-06
1.26869e-06
1.26869e-06
1.26869e-06
)
;


// ************************************************************************* //
