/*--------------------------------*- C++ -*----------------------------------*\
| =========                 |                                                 |
| \\      /  F ield         | OpenFOAM Extend Project: Open source CFD        |
|  \\    /   O peration     | Version:  1.6-ext                               |
|   \\  /    A nd           | Web:      www.extend-project.de                 |
|    \\/     M anipulation  |                                                 |
\*---------------------------------------------------------------------------*/
FoamFile
{
    version     2.0;
    format      ascii;
    class       volVectorField;
    location    "0.95";
    object      Vs;
}
// * * * * * * * * * * * * * * * * * * * * * * * * * * * * * * * * * * * * * //

dimensions      [0 1 -1 0 0 0 0];

internalField   nonuniform List<vector> 
328
(
(1.5084e-06 -3.66246e-06 0)
(1.98766e-06 -7.68654e-07 0)
(1.89696e-06 9.52893e-07 0)
(1.01992e-06 4.50743e-06 0)
(4.68159e-06 -9.25875e-06 0)
(5.80174e-06 -2.07211e-06 0)
(5.48412e-06 2.9188e-06 0)
(3.19623e-06 1.16241e-05 0)
(7.7436e-06 -1.31893e-05 0)
(9.08725e-06 -3.10168e-06 0)
(8.44555e-06 4.94561e-06 0)
(5.14102e-06 1.70573e-05 0)
(1.09341e-05 -1.56787e-05 0)
(1.22079e-05 -3.73512e-06 0)
(1.12003e-05 6.91723e-06 0)
(7.15338e-06 2.1136e-05 0)
(1.4222e-05 -1.70291e-05 0)
(1.51366e-05 -3.92782e-06 0)
(1.37232e-05 8.79845e-06 0)
(9.20546e-06 2.42617e-05 0)
(1.76649e-05 -1.74688e-05 0)
(1.80216e-05 -3.659e-06 0)
(1.6182e-05 1.0593e-05 0)
(1.13764e-05 2.67453e-05 0)
(2.12678e-05 -1.71811e-05 0)
(2.09203e-05 -2.94029e-06 0)
(1.86404e-05 1.2344e-05 0)
(1.36827e-05 2.8843e-05 0)
(2.5048e-05 -1.62964e-05 0)
(2.39189e-05 -1.79245e-06 0)
(2.11934e-05 1.41117e-05 0)
(1.61558e-05 3.07498e-05 0)
(2.90132e-05 -1.49098e-05 0)
(2.70755e-05 -2.41878e-07 0)
(2.39047e-05 1.59666e-05 0)
(1.88164e-05 3.26202e-05 0)
(3.31743e-05 -1.3085e-05 0)
(3.04457e-05 1.68906e-06 0)
(2.68357e-05 1.79791e-05 0)
(2.16903e-05 3.45744e-05 0)
(3.75423e-05 -1.08626e-05 0)
(3.40713e-05 3.98438e-06 0)
(3.00337e-05 2.02143e-05 0)
(2.48045e-05 3.67069e-05 0)
(4.21302e-05 -8.26479e-06 0)
(3.79865e-05 6.63662e-06 0)
(3.35393e-05 2.27286e-05 0)
(2.81908e-05 3.90908e-05 0)
(4.69526e-05 -5.29991e-06 0)
(4.22176e-05 9.64588e-06 0)
(3.73856e-05 2.55677e-05 0)
(3.18849e-05 4.17818e-05 0)
(5.2025e-05 -1.96743e-06 0)
(4.67859e-05 1.30177e-05 0)
(4.16019e-05 2.87664e-05 0)
(3.59261e-05 4.48201e-05 0)
(5.7363e-05 1.73751e-06 0)
(5.17094e-05 1.67597e-05 0)
(4.62148e-05 3.2348e-05 0)
(4.03575e-05 4.82328e-05 0)
(6.29825e-05 5.81919e-06 0)
(5.70047e-05 2.08774e-05 0)
(5.12508e-05 3.63242e-05 0)
(4.5225e-05 5.20336e-05 0)
(6.88985e-05 1.02763e-05 0)
(6.26887e-05 2.53701e-05 0)
(5.67377e-05 4.06939e-05 0)
(5.0577e-05 5.6223e-05 0)
(7.51258e-05 1.50969e-05 0)
(6.87794e-05 3.02255e-05 0)
(6.27054e-05 4.54417e-05 0)
(5.64643e-05 6.07871e-05 0)
(8.16785e-05 2.02533e-05 0)
(7.52971e-05 3.54151e-05 0)
(6.91866e-05 5.0535e-05 0)
(6.29393e-05 6.56945e-05 0)
(8.85714e-05 2.56967e-05 0)
(8.22643e-05 4.08892e-05 0)
(7.62166e-05 5.59201e-05 0)
(7.00557e-05 7.08933e-05 0)
(9.58198e-05 3.13523e-05 0)
(8.97059e-05 4.65714e-05 0)
(8.38333e-05 6.15177e-05 0)
(7.78677e-05 7.63065e-05 0)
(0.000103442 3.71143e-05 0)
(9.76495e-05 5.23544e-05 0)
(9.20756e-05 6.72184e-05 0)
(8.64281e-05 8.18272e-05 0)
(0.000111764 4.30597e-05 0)
(0.000106448 5.83128e-05 0)
(0.000101323 7.30928e-05 0)
(9.61463e-05 8.75226e-05 0)
(0.000120497 4.87197e-05 0)
(0.000115812 6.39739e-05 0)
(0.000111288 7.86709e-05 0)
(0.000106732 9.29342e-05 0)
(0.000129085 5.35672e-05 0)
(0.000125124 6.88094e-05 0)
(0.000121294 8.34303e-05 0)
(0.000117453 9.75535e-05 0)
(0.000137554 5.752e-05 0)
(0.000134387 7.27375e-05 0)
(0.000131321 8.72892e-05 0)
(0.000128264 0.000101298 0)
(0.000145934 6.05237e-05 0)
(0.000143605 7.57041e-05 0)
(0.000141346 9.01932e-05 0)
(0.000139117 0.000104113 0)
(0.000154253 6.25511e-05 0)
(0.000152779 7.76824e-05 0)
(0.000151349 9.21152e-05 0)
(0.000149967 0.000105971 0)
(0.000162536 6.36013e-05 0)
(0.000161915 7.86719e-05 0)
(0.00016131 9.30544e-05 0)
(0.000160771 0.00010687 0)
(0.00017081 6.36978e-05 0)
(0.000171015 7.86974e-05 0)
(0.000171211 9.30353e-05 0)
(0.000171488 0.000106832 0)
(0.000179097 6.28876e-05 0)
(0.000180081 7.78068e-05 0)
(0.000181033 9.21055e-05 0)
(0.000182081 0.000105904 0)
(0.000187416 6.12383e-05 0)
(0.000189114 7.60692e-05 0)
(0.000190761 9.0334e-05 0)
(0.000192514 0.000104152 0)
(0.000195785 5.88364e-05 0)
(0.000198116 7.35728e-05 0)
(0.000200379 8.78085e-05 0)
(0.000202758 0.000101662 0)
(0.000204216 5.57841e-05 0)
(0.000207087 7.04217e-05 0)
(0.000209874 8.46329e-05 0)
(0.000212785 9.85359e-05 0)
(0.000212717 5.21965e-05 0)
(0.000216024 6.67329e-05 0)
(0.000219235 8.09241e-05 0)
(0.000222573 9.48874e-05 0)
(0.000221295 4.81985e-05 0)
(0.000224925 6.26335e-05 0)
(0.000228452 7.68086e-05 0)
(0.000232105 9.08409e-05 0)
(0.000229947 4.39208e-05 0)
(0.000233785 5.82564e-05 0)
(0.000237516 7.24196e-05 0)
(0.00024137 8.65264e-05 0)
(0.00023867 3.94968e-05 0)
(0.0002426 5.37374e-05 0)
(0.000246421 6.78923e-05 0)
(0.000250359 8.20768e-05 0)
(0.000247454 3.50588e-05 0)
(0.000251362 4.9211e-05 0)
(0.000255163 6.33611e-05 0)
(0.000259072 7.76238e-05 0)
(0.000256286 3.07342e-05 0)
(0.000260063 4.48067e-05 0)
(0.000263739 5.89554e-05 0)
(0.000267511 7.32942e-05 0)
(0.000265146 2.6642e-05 0)
(0.000268693 4.06457e-05 0)
(0.000272148 5.47962e-05 0)
(0.000275684 6.92067e-05 0)
(0.000274014 2.28898e-05 0)
(0.000277243 3.68373e-05 0)
(0.000280391 5.09927e-05 0)
(0.000283603 6.54683e-05 0)
(0.000282864 1.95703e-05 0)
(0.000285701 3.34759e-05 0)
(0.00028847 4.76391e-05 0)
(0.000291286 6.21715e-05 0)
(0.000291667 1.67593e-05 0)
(0.000294055 3.06386e-05 0)
(0.00029639 4.48124e-05 0)
(0.000298751 5.93915e-05 0)
(0.000300394 1.4513e-05 0)
(0.000302293 2.83824e-05 0)
(0.000304155 4.25697e-05 0)
(0.000306021 5.71844e-05 0)
(0.000309014 1.28668e-05 0)
(0.000310401 2.67436e-05 0)
(0.00031177 4.09468e-05 0)
(0.000313122 5.55851e-05 0)
(0.000317493 1.18341e-05 0)
(0.000318369 2.57355e-05 0)
(0.000319243 3.99572e-05 0)
(0.000320079 5.46066e-05 0)
(0.000325801 1.14057e-05 0)
(0.000326183 2.5349e-05 0)
(0.000326581 3.95914e-05 0)
(0.000326921 5.42394e-05 0)
(0.000333905 1.15501e-05 0)
(0.000333832 2.55519e-05 0)
(0.000333792 3.98172e-05 0)
(0.000333673 5.44515e-05 0)
(0.000341778 1.22142e-05 0)
(0.000341305 2.629e-05 0)
(0.000340883 4.05803e-05 0)
(0.000340364 5.51893e-05 0)
(0.000349392 1.33243e-05 0)
(0.000348594 2.74884e-05 0)
(0.000347862 4.18053e-05 0)
(0.000347017 5.63784e-05 0)
(0.000356724 1.47881e-05 0)
(0.000355691 2.9053e-05 0)
(0.000354736 4.33982e-05 0)
(0.000353655 5.79259e-05 0)
(0.000363754 1.64969e-05 0)
(0.000362588 3.08731e-05 0)
(0.000361513 4.52479e-05 0)
(0.0003603 5.97221e-05 0)
(0.000370467 1.83282e-05 0)
(0.000369283 3.28238e-05 0)
(0.000368198 4.72291e-05 0)
(0.000366968 6.16435e-05 0)
(0.000376852 2.01486e-05 0)
(0.000375773 3.47693e-05 0)
(0.000374798 4.92056e-05 0)
(0.000373674 6.35558e-05 0)
(0.000382905 2.18173e-05 0)
(0.000382057 3.6566e-05 0)
(0.000381317 5.10335e-05 0)
(0.000380428 6.53166e-05 0)
(0.000388625 2.31894e-05 0)
(0.000388138 3.8066e-05 0)
(0.000387761 5.25642e-05 0)
(0.000387237 6.67794e-05 0)
(0.000394018 2.41193e-05 0)
(0.000394021 3.91209e-05 0)
(0.000394132 5.36489e-05 0)
(0.000394103 6.77972e-05 0)
(0.000399096 2.44647e-05 0)
(0.000399712 3.95853e-05 0)
(0.000400433 5.41414e-05 0)
(0.000401025 6.82253e-05 0)
(0.000403875 2.40897e-05 0)
(0.000405222 3.93204e-05 0)
(0.000406668 5.39022e-05 0)
(0.000407999 6.79257e-05 0)
(0.000408377 2.28684e-05 0)
(0.000410563 3.81972e-05 0)
(0.000412839 5.28015e-05 0)
(0.000415017 6.67698e-05 0)
(0.000412631 2.0688e-05 0)
(0.000415749 3.61002e-05 0)
(0.000418948 5.07227e-05 0)
(0.000422069 6.46419e-05 0)
(0.000416668 1.74513e-05 0)
(0.000420797 3.29296e-05 0)
(0.000424997 4.7565e-05 0)
(0.000429143 6.14417e-05 0)
(0.000420524 1.30797e-05 0)
(0.000425727 2.86042e-05 0)
(0.00043099 4.32459e-05 0)
(0.000436224 5.70867e-05 0)
(0.000424241 7.51448e-06 0)
(0.000430561 2.3063e-05 0)
(0.000436931 3.77033e-05 0)
(0.0004433 5.15143e-05 0)
(0.000427861 7.18789e-07 0)
(0.000435323 1.62672e-05 0)
(0.000442826 3.08966e-05 0)
(0.000450357 4.46829e-05 0)
(0.000431433 -7.32186e-06 0)
(0.000440041 8.20025e-06 0)
(0.000448682 2.28077e-05 0)
(0.000457383 3.6573e-05 0)
(0.000435004 -1.65991e-05 0)
(0.000444743 -1.13104e-06 0)
(0.000454509 1.34416e-05 0)
(0.000464368 2.71871e-05 0)
(0.000438626 -2.70822e-05 0)
(0.00044946 -1.16974e-05 0)
(0.000460321 2.82534e-06 0)
(0.000471307 1.65499e-05 0)
(0.000442351 -3.87186e-05 0)
(0.000454229 -2.34476e-05 0)
(0.000466134 -8.99223e-06 0)
(0.000478199 4.70645e-06 0)
(0.000446233 -5.14357e-05 0)
(0.000459085 -3.63104e-05 0)
(0.00047197 -2.19424e-05 0)
(0.000485049 -8.27845e-06 0)
(0.000450327 -6.51428e-05 0)
(0.000464068 -5.01963e-05 0)
(0.000477855 -3.59386e-05 0)
(0.000491869 -2.2323e-05 0)
(0.000454689 -7.97331e-05 0)
(0.000469223 -6.49998e-05 0)
(0.00048382 -5.08789e-05 0)
(0.00049868 -3.73306e-05 0)
(0.000459375 -9.50872e-05 0)
(0.000474596 -8.0603e-05 0)
(0.000489905 -6.6649e-05 0)
(0.000505513 -5.31931e-05 0)
(0.000464443 -0.000111076 0)
(0.000480239 -9.68783e-05 0)
(0.000496155 -8.31257e-05 0)
(0.000512407 -6.97944e-05 0)
(0.000469952 -0.000127563 0)
(0.000486208 -0.000113692 0)
(0.000502627 -0.000100181 0)
(0.000519417 -8.70135e-05 0)
(0.000475963 -0.000144411 0)
(0.000492568 -0.000130909 0)
(0.000509383 -0.000117685 0)
(0.000526607 -0.00010473 0)
(0.000482541 -0.000161483 0)
(0.000499389 -0.000148395 0)
(0.000516502 -0.000135514 0)
(0.000534059 -0.000122828 0)
(0.000489748 -0.000178643 0)
(0.000506747 -0.000166022 0)
(0.000524068 -0.000153549 0)
(0.000541864 -0.000141202 0)
(0.000497669 -0.000195779 0)
(0.000514752 -0.000183676 0)
(0.000532203 -0.000171683 0)
(0.000550145 -0.00015975 0)
(0.000506333 -0.000212789 0)
(0.000523467 -0.000201264 0)
(0.000540988 -0.000189821 0)
(0.000558987 -0.000178387 0)
(0.000515931 -0.000229757 0)
(0.000533101 -0.000218761 0)
(0.000550648 -0.00020784 0)
(0.000568635 -0.000196902 0)
)
;

boundaryField
{
    plateFix
    {
        type            calculated;
        value           uniform (0 0 0);
    }
    plate
    {
        type            calculated;
        value           nonuniform List<vector> 
168
(
(-1.43941e-05 -9.75689e-06 9.50399e-25)
(-1.88224e-05 1.22398e-05 4.94506e-24)
(-6.49254e-06 -1.55722e-05 1.82533e-23)
(-1.14956e-05 1.9597e-05 -9.09586e-23)
(7.02881e-07 -1.98224e-05 1.91661e-23)
(-5.25083e-06 2.53701e-05 3.18873e-23)
(6.98895e-06 -2.24611e-05 -7.95658e-24)
(-1.89561e-07 2.95648e-05 6.63829e-24)
(1.2483e-05 -2.39446e-05 9.89552e-25)
(3.87177e-06 3.27722e-05 -4.61462e-23)
(1.74881e-05 -2.44796e-05 3.74004e-25)
(7.31338e-06 3.52798e-05 5.29351e-23)
(2.2191e-05 -2.42796e-05 -3.5645e-23)
(1.03714e-05 3.73824e-05 -1.26765e-23)
(2.67497e-05 -2.34745e-05 8.44293e-23)
(1.32447e-05 3.92764e-05 1.83381e-23)
(3.12696e-05 -2.21639e-05 -1.77448e-23)
(1.60699e-05 4.11233e-05 -1.16036e-23)
(3.58325e-05 -2.04104e-05 -2.19021e-23)
(1.89562e-05 4.30431e-05 1.28319e-24)
(4.04982e-05 -1.82546e-05 -4.39408e-23)
(2.19895e-05 4.51305e-05 1.90909e-23)
(4.53136e-05 -1.57176e-05 5.25178e-23)
(2.52438e-05 4.74584e-05 -1.79803e-23)
(5.03145e-05 -1.28079e-05 -4.29479e-24)
(2.87846e-05 5.00827e-05 7.44705e-24)
(5.55293e-05 -9.52522e-06 -5.63803e-24)
(3.26731e-05 5.30444e-05 -3.34179e-23)
(6.09794e-05 -5.86551e-06 4.69072e-24)
(3.69675e-05 5.63714e-05 3.95387e-23)
(6.66811e-05 -1.82524e-06 -1.28528e-23)
(4.17253e-05 6.0079e-05 -1.21929e-23)
(7.26464e-05 2.59353e-06 2.28644e-23)
(4.70036e-05 6.41692e-05 2.15746e-23)
(7.88845e-05 7.37833e-06 -6.24407e-24)
(5.28606e-05 6.86296e-05 -2.27024e-23)
(8.54027e-05 1.25012e-05 -2.06954e-23)
(5.93554e-05 7.34304e-05 3.38931e-23)
(9.22079e-05 1.79136e-05 2.09422e-23)
(6.65481e-05 7.85215e-05 3.06942e-24)
(9.93082e-05 2.35413e-05 -2.0123e-23)
(7.44993e-05 8.38277e-05 -5.71423e-24)
(0.000106715 2.92792e-05 1.93e-23)
(8.32677e-05 8.92438e-05 7.01927e-24)
(0.000114736 3.52055e-05 -9.45528e-24)
(9.32802e-05 9.48362e-05 -6.13318e-24)
(0.000123091 4.08545e-05 -6.55195e-25)
(0.000104237 0.000100152 1.24108e-25)
(0.000131252 4.57e-05 -8.90592e-24)
(0.000115377 0.000104692 -2.1104e-23)
(0.000139262 4.96599e-05 5.96585e-24)
(0.00012664 0.000108373 7.05149e-24)
(0.000147162 5.26796e-05 1.22606e-23)
(0.000137966 0.00011114 2.11127e-24)
(0.000154993 5.47317e-05 -1.54041e-23)
(0.000149297 0.000112964 -2.08575e-23)
(0.000162794 5.58147e-05 8.52638e-24)
(0.000160576 0.000113844 -5.00067e-23)
(0.000170604 5.59516e-05 -3.48354e-24)
(0.000171751 0.0001138 1.01419e-23)
(0.000178455 5.51886e-05 -3.36189e-24)
(0.000182773 0.000112879 2.41878e-23)
(0.000186377 5.35923e-05 -4.62843e-26)
(0.000193598 0.000111144 -1.80171e-24)
(0.000194395 5.12482e-05 -9.08247e-24)
(0.000204186 0.000108682 -2.177e-24)
(0.00020253 4.82571e-05 1.17923e-23)
(0.000214503 0.000105591 1.64583e-24)
(0.000210795 4.4733e-05 1.86007e-23)
(0.000224522 0.000101984 1.16894e-24)
(0.0002192 4.07991e-05 -1.3788e-23)
(0.000234221 9.7984e-05 1.3538e-23)
(0.000227746 3.65848e-05 -1.23721e-24)
(0.000243587 9.37193e-05 -2.37847e-24)
(0.000236429 3.2222e-05 3.27808e-24)
(0.000252612 8.93208e-05 -1.51992e-24)
(0.000245238 2.78414e-05 -4.9134e-25)
(0.000261295 8.49186e-05 2.04721e-23)
(0.000254155 2.35691e-05 -1.04688e-24)
(0.000269643 8.0638e-05 5.30896e-24)
(0.000263159 1.95227e-05 2.14775e-23)
(0.000277669 7.65961e-05 -8.12715e-24)
(0.000272219 1.58085e-05 -5.59323e-24)
(0.000285392 7.28986e-05 -9.06265e-24)
(0.000281304 1.25183e-05 1.6963e-24)
(0.000292835 6.96367e-05 -6.91344e-25)
(0.000290376 9.72688e-06 -3.41216e-24)
(0.000300029 6.68847e-05 3.1579e-24)
(0.000299394 7.48986e-06 -8.02376e-24)
(0.000307005 6.4698e-05 -3.08929e-24)
(0.000308317 5.84221e-06 -9.98674e-25)
(0.0003138 6.31108e-05 -1.08726e-23)
(0.000317101 4.79712e-06 -1.1171e-23)
(0.00032045 6.2136e-05 -4.30666e-25)
(0.000325703 4.34558e-06 1.56757e-23)
(0.000326995 6.17641e-05 2.748e-24)
(0.000334082 4.45642e-06 3.6451e-24)
(0.000333472 6.19631e-05 -1.36875e-23)
(0.000342196 5.07708e-06 7.04879e-24)
(0.000339919 6.268e-05 1.50218e-24)
(0.000350011 6.13477e-06 -7.89599e-24)
(0.000346371 6.3841e-05 -6.17783e-24)
(0.000357494 7.53826e-06 -1.49273e-23)
(0.000352858 6.5354e-05 7.12187e-24)
(0.000364618 9.1801e-06 -6.18275e-24)
(0.00035941 6.71104e-05 -7.34968e-24)
(0.00037136 1.09392e-05 -8.93057e-25)
(0.00036605 6.89878e-05 7.42258e-24)
(0.000377707 1.26839e-05 3.49947e-25)
(0.000372797 7.0853e-05 3.05453e-25)
(0.000383649 1.4275e-05 6.42523e-24)
(0.000379663 7.2565e-05 1.50864e-26)
(0.000389187 1.55693e-05 -9.35149e-24)
(0.000386657 7.39786e-05 -1.47436e-24)
(0.000394326 1.64233e-05 -2.46115e-24)
(0.000393782 7.49477e-05 -4.25364e-25)
(0.000399079 1.66964e-05 6.84112e-24)
(0.000401033 7.53292e-05 -1.61911e-24)
(0.000403469 1.62546e-05 -2.65429e-24)
(0.000408402 7.4986e-05 -3.85925e-25)
(0.000407523 1.49737e-05 -6.31247e-24)
(0.000415876 7.37904e-05 1.88825e-26)
(0.000411275 1.27426e-05 -8.9362e-25)
(0.000423437 7.16273e-05 2.82939e-25)
(0.000414766 9.46579e-06 -2.58327e-24)
(0.000431066 6.83969e-05 -1.06451e-24)
(0.000418043 5.06596e-06 -1.80429e-24)
(0.000438739 6.4017e-05 1.48266e-25)
(0.000421156 -5.14163e-07 2.8047e-25)
(0.000446432 5.84247e-05 1.01305e-24)
(0.00042416 -7.3104e-06 4.39167e-24)
(0.000454121 5.15781e-05 2.23479e-24)
(0.000427112 -1.53362e-05 9.54027e-25)
(0.000461783 4.34569e-05 3.75739e-25)
(0.000430074 -2.45825e-05 1.24531e-26)
(0.000469397 3.40625e-05 -2.06563e-24)
(0.000433108 -3.50176e-05 -1.11657e-25)
(0.000476948 2.3418e-05 -4.34531e-25)
(0.000436276 -4.65887e-05 1.13817e-24)
(0.000484424 1.15667e-05 2.16363e-25)
(0.000439642 -5.92227e-05 4.15297e-24)
(0.000491821 -1.42903e-06 -2.70557e-24)
(0.000443269 -7.28282e-05 5.64197e-24)
(0.000499144 -1.54899e-05 -1.17789e-24)
(0.00044722 -8.72984e-05 -2.7424e-25)
(0.000506407 -3.05224e-05 -1.74446e-24)
(0.000451557 -0.000102513 -4.38282e-24)
(0.000513635 -4.64219e-05 1.34976e-24)
(0.000456341 -0.000118343 2.73149e-24)
(0.000520865 -6.3076e-05 -1.92365e-24)
(0.000461636 -0.000134651 -2.28624e-24)
(0.000528151 -8.03679e-05 2.42994e-24)
(0.000467501 -0.000151299 -5.74941e-24)
(0.000535557 -9.81823e-05 9.77202e-26)
(0.000474 -0.000168149 4.94749e-25)
(0.000543171 -0.000116406 2.25486e-24)
(0.00048119 -0.000185063 7.37233e-25)
(0.000551085 -0.000134943 -1.72059e-24)
(0.000489148 -0.000201931 2.09475e-24)
(0.00055943 -0.000153689 -3.82874e-24)
(0.000497853 -0.000218638 -3.10923e-24)
(0.00056826 -0.000172579 4.4063e-24)
(0.00050743 -0.000235315 -5.27086e-24)
(0.000521048 -0.000238305 -1.4274e-23)
(0.000538231 -0.000227455 2.90114e-23)
(0.000555787 -0.000216741 -2.45283e-23)
(0.000573766 -0.000206007 7.89341e-24)
(0.000577801 -0.00019136 -2.6292e-24)
)
;
    }
    frontAndBackPlanes
    {
        type            empty;
    }
}


// ************************************************************************* //
