/*--------------------------------*- C++ -*----------------------------------*\
| =========                 |                                                 |
| \\      /  F ield         | OpenFOAM Extend Project: Open source CFD        |
|  \\    /   O peration     | Version:  1.6-ext                               |
|   \\  /    A nd           | Web:      www.extend-project.de                 |
|    \\/     M anipulation  |                                                 |
\*---------------------------------------------------------------------------*/
FoamFile
{
    version     2.0;
    format      ascii;
    class       volScalarField;
    location    "0.2";
    object      p;
}
// * * * * * * * * * * * * * * * * * * * * * * * * * * * * * * * * * * * * * //

dimensions      [0 2 -2 0 0 0 0];

internalField   nonuniform List<scalar> 
284
(
0.312898
0.278156
0.269206
0.263112
0.259087
0.257266
0.257133
0.258512
0.262754
0.285598
0.270381
0.267178
0.263767
0.261069
0.260097
0.260542
0.262251
0.26673
0.274421
0.263698
0.262896
0.260955
0.259123
0.258696
0.259467
0.261331
0.266016
0.264793
0.256285
0.256914
0.255939
0.254654
0.254472
0.255259
0.256973
0.261608
0.25609
0.248551
0.249893
0.249337
0.248118
0.247682
0.247933
0.248819
0.252632
0.247761
0.240663
0.242183
0.241521
0.239783
0.23838
0.237178
0.235933
0.237129
0.239722
0.232834
0.234151
0.232901
0.229997
0.226657
0.222347
0.215849
0.205872
0.232249
0.225446
0.226285
0.224024
0.219369
0.21335
0.204863
0.197838
0.138761
0.225823
0.21902
0.219198
0.215571
0.208337
0.19747
0.178102
0.143906
0.0389419
0.221024
0.214151
0.213633
0.208824
0.19986
0.186937
0.167839
0.139423
0.0990461
0.21842
0.211322
0.210074
0.204367
0.194491
0.181207
0.163872
0.140036
0.113065
0.218669
0.210897
0.208662
0.202074
0.19154
0.178119
0.161492
0.140416
0.117099
0.223143
0.213259
0.209275
0.201589
0.190421
0.176846
0.160655
0.141337
0.120032
0.229498
0.216163
0.210765
0.202326
0.190748
0.177086
0.161186
0.142823
0.122629
0.260197
0.227659
0.216648
0.205904
0.193646
0.179812
0.163933
0.14573
0.125569
-0.111589
-0.100318
0.0311256
0.00595136
0.061045
0.0338727
0.0845364
0.0613037
0.0949395
0.0731759
0.100633
0.0802118
0.103947
0.0831926
-0.0864256
-0.0201229
0.00859326
0.0144543
0.0145581
0.0128259
0.00995336
0.00635136
0.00215917
-0.00953846
0.00485605
0.0156686
0.0183565
0.0173099
0.0146755
0.0110998
0.00693333
0.00227922
0.0234972
0.0232823
0.0247108
0.0234147
0.0202763
0.0163541
0.0119854
0.0073181
0.00234123
0.0457646
0.037052
0.0319524
0.0273322
0.0224688
0.0175022
0.0125032
0.00748308
0.00234289
0.0569087
0.0453134
0.0368877
0.0299898
0.0237894
0.018036
0.0126064
0.00740712
0.00227653
0.0632476
0.0498741
0.0394629
0.0310847
0.0240069
0.0178021
0.0122074
0.00704627
0.00213056
0.0651265
0.050421
0.0388618
0.0297615
0.0224008
0.0162379
0.0109013
0.00614591
0.00180972
0.000141072
0.00511062
0.00774005
0.00910981
0.00931082
0.00847065
0.00678851
0.00447771
0.00173063
-0.00467445
0.000890148
0.00405325
0.00600375
0.00679316
0.00652375
0.0053928
0.0036222
0.00144647
-0.00958907
-0.00261985
0.001448
0.00412814
0.00547705
0.00562787
0.00481895
0.0033051
0.00134825
-0.0164216
-0.00667549
-0.00113483
0.00261
0.00465239
0.00522255
0.00465464
0.00326372
0.00133921
-0.0267493
-0.0114499
-0.00369503
0.00152494
0.00438211
0.00533414
0.00489564
0.00347942
0.0014098
-0.0422572
-0.0165105
-0.00599582
0.00113536
0.00485332
0.00605178
0.00556282
0.00394036
0.00154806
-0.0614188
-0.0223818
-0.00828629
0.00157951
0.00623305
0.00744451
0.00665106
0.00461448
0.00173502
-0.155711
-0.0371512
-0.00989667
0.00391725
0.00895078
0.00962493
0.00814027
0.0054506
0.00194837
)
;

boundaryField
{
    inlet
    {
        type            zeroGradient;
    }
    outlet
    {
        type            totalPressure;
        rho             none;
        psi             none;
        gamma           1;
        p0              uniform 0;
        value           uniform 0;
    }
    fixedWalls
    {
        type            zeroGradient;
    }
    frontAndBack
    {
        type            empty;
    }
}


// ************************************************************************* //
