/*--------------------------------*- C++ -*----------------------------------*\
| =========                 |                                                 |
| \\      /  F ield         | OpenFOAM Extend Project: Open source CFD        |
|  \\    /   O peration     | Version:  1.6-ext                               |
|   \\  /    A nd           | Web:      www.extend-project.de                 |
|    \\/     M anipulation  |                                                 |
\*---------------------------------------------------------------------------*/
FoamFile
{
    version     2.0;
    format      ascii;
    class       surfaceScalarField;
    location    "0.2";
    object      phi;
}
// * * * * * * * * * * * * * * * * * * * * * * * * * * * * * * * * * * * * * //

dimensions      [0 3 -1 0 0 0 0];

internalField   nonuniform List<scalar> 
525
(
0.000170024
2.99757e-05
0.000142279
2.77452e-05
0.000120167
2.21123e-05
0.000100618
1.95483e-05
8.117e-05
1.94485e-05
6.07506e-05
2.04194e-05
3.895e-05
2.18006e-05
1.64001e-05
2.25499e-05
1.64001e-05
0.000198152
3.18236e-05
0.000182242
4.36553e-05
0.000161393
4.29611e-05
0.000138315
4.26261e-05
0.000113307
4.44566e-05
8.59458e-05
4.77809e-05
5.60484e-05
5.1698e-05
2.45405e-05
5.40578e-05
4.09406e-05
0.000196984
3.48399e-05
0.000183604
5.70353e-05
0.000165398
6.11671e-05
0.000144121
6.39022e-05
0.000119911
6.86671e-05
9.23726e-05
7.53193e-05
6.12205e-05
8.28501e-05
2.72618e-05
8.80165e-05
6.82024e-05
0.000195567
3.92724e-05
0.000183695
6.89082e-05
0.000167937
7.69251e-05
0.000149042
8.27969e-05
0.000126606
9.1103e-05
9.98341e-05
0.000102091
6.79381e-05
0.000114746
3.1162e-05
0.000124793
9.93644e-05
0.00019577
4.35026e-05
0.000185987
7.86906e-05
0.000173113
8.97991e-05
0.000157201
9.87093e-05
0.000137332
0.000110972
0.000112069
0.000127355
7.96193e-05
0.000147196
3.86731e-05
0.000165739
0.000138037
0.00019707
4.64327e-05
0.000190327
8.54338e-05
0.000181222
9.89042e-05
0.00016937
0.000110561
0.000153482
0.000126861
0.000131381
0.000149455
9.96744e-05
0.000178902
5.37267e-05
0.000211687
0.000191764
0.0001991
4.73331e-05
0.000196333
8.82007e-05
0.000192071
0.000103166
0.000185763
0.000116868
0.0001761
0.000136524
0.000160643
0.000164911
0.000134811
0.000204735
8.81644e-05
0.000258333
0.000279929
0.00020159
4.57428e-05
0.000203513
8.62777e-05
0.00020505
0.00010163
0.000205846
0.000116072
0.000205005
0.000137365
0.000199853
0.000170063
0.000182604
0.000221984
0.000135021
0.000305916
0.00041495
0.000204253
4.14896e-05
0.000211115
7.94159e-05
0.000218854
9.38911e-05
0.000228023
0.000106903
0.000240466
0.000124922
0.000260533
0.000149996
0.000300467
0.00018205
0.000385512
0.000220871
0.000305553
0.000494909
0.000206784
3.47052e-05
0.000218103
6.8097e-05
0.000231113
8.0881e-05
0.000246609
9.14071e-05
0.00026699
0.00010454
0.000296482
0.000120505
0.000340534
0.000137997
0.000409206
0.0001522
0.000187217
0.000527542
0.000209124
2.5581e-05
0.000224012
5.32093e-05
0.000240707
6.41863e-05
0.000259715
7.23989e-05
0.00028283
8.14258e-05
0.000312316
9.10189e-05
0.000350698
9.96146e-05
0.000400863
0.000102035
0.000103761
0.000484319
0.000211649
1.39318e-05
0.000229133
3.57256e-05
0.000247965
4.53545e-05
0.000268458
5.19058e-05
0.000291843
5.80406e-05
0.000319325
6.35371e-05
0.000351888
6.70509e-05
0.000388678
6.52445e-05
5.82754e-05
0.000434164
0.00021515
-1.21861e-06
0.000233919
1.69572e-05
0.000253377
2.58968e-05
0.000273943
3.1339e-05
0.000296497
3.54874e-05
0.000321522
3.85113e-05
0.000348878
3.96955e-05
0.000376733
3.73894e-05
3.08607e-05
0.000404148
0.00021525
-1.64691e-05
0.000233159
-9.50936e-07
0.000251846
7.20988e-06
0.000271282
1.19023e-05
0.000292278
1.44913e-05
0.000314829
1.59605e-05
0.000338183
1.63416e-05
0.000360465
1.51071e-05
1.19134e-05
0.000379412
0.000183531
0.00018258
0.00018979
0.000201692
0.000216184
0.000232144
0.000248486
0.000263593
0.000275506
0.000438127
5.67816e-05
-3.94082e-05
0.000477535
0.000540954
4.33703e-05
-3.78803e-05
0.000539426
0.000492962
3.47276e-05
-1.9351e-05
0.000474433
0.00044489
2.40011e-05
-9.97462e-06
0.000435514
0.000414485
1.36639e-05
-4.97245e-06
0.000409483
0.000387935
5.14153e-06
-2.27996e-06
0.000385242
0.000280648
0.000278368
0.000418425
-0.000211142
0.000270252
0.000345884
-0.000212375
0.000284916
0.000290895
-0.000170418
0.000225407
0.000260512
-0.00013133
0.000161713
0.000244794
-9.93944e-05
0.000115112
0.000236314
-7.31628e-05
8.16427e-05
0.000231625
-5.12163e-05
5.59051e-05
0.000229218
-3.22468e-05
3.46546e-05
-1.47919e-05
1.57343e-05
0.000445439
-0.000117155
0.000368685
-0.000135622
0.000319654
-0.000121387
0.00028933
-0.000101006
0.000270368
-8.0432e-05
0.000258361
-6.11557e-05
0.000250875
-4.37307e-05
0.000246611
-2.79828e-05
-1.2984e-05
0.000423725
-6.64472e-05
0.000373807
-8.57033e-05
0.000336135
-8.3715e-05
0.000308746
-7.36171e-05
0.000289229
-6.09148e-05
0.000275702
-4.76285e-05
0.000266707
-3.47353e-05
0.000261294
-2.25702e-05
-1.05942e-05
0.000406709
-3.76426e-05
0.000373191
-5.21855e-05
0.00034389
-5.44141e-05
0.000320263
-4.99899e-05
0.000301945
-4.25963e-05
0.000288335
-3.4019e-05
0.000278797
-2.5197e-05
0.000272805
-1.65787e-05
-7.86915e-06
0.000392129
-2.02892e-05
0.000369132
-2.91885e-05
0.000346308
-3.15892e-05
0.000326127
-2.98091e-05
0.000309391
-2.5861e-05
0.000296292
-2.09192e-05
0.000286735
-1.56399e-05
0.00028053
-1.03739e-05
-4.98746e-06
0.000373352
-8.39853e-06
0.000356158
-1.19949e-05
0.000337607
-1.30383e-05
0.000320157
-1.23588e-05
0.000305048
-1.07522e-05
0.000292842
-8.7133e-06
0.000283726
-6.52357e-06
0.000277691
-4.33933e-06
-2.14888e-06
0.000269969
0.000257974
0.000244936
0.000232577
0.000221825
0.000213112
0.000206588
0.000202249
1.12509e-05
-1.12509e-05
2.80085e-05
-1.67577e-05
4.41224e-05
-1.61139e-05
5.83002e-05
-1.41777e-05
7.01219e-05
-1.18218e-05
7.94303e-05
-9.30834e-06
8.62057e-05
-6.77541e-06
9.04995e-05
-4.29383e-06
-2.05215e-06
1.6955e-05
-2.82058e-05
4.05241e-05
-4.03268e-05
6.29483e-05
-3.85381e-05
8.25566e-05
-3.3786e-05
9.88194e-05
-2.80846e-05
0.000111577
-2.2066e-05
0.000120847
-1.60456e-05
0.000126716
-1.0163e-05
-4.7281e-06
1.85372e-05
-4.67431e-05
4.46579e-05
-6.64474e-05
6.91428e-05
-6.3023e-05
9.01243e-05
-5.47675e-05
0.000107192
-4.51519e-05
0.000120367
-3.52419e-05
0.000129837
-2.5515e-05
0.000135805
-1.61311e-05
-7.43986e-06
2.03665e-05
-6.71096e-05
5.01505e-05
-9.62314e-05
7.72436e-05
-9.01161e-05
9.95801e-05
-7.7104e-05
0.000117098
-6.26694e-05
0.000130219
-4.83627e-05
0.000139449
-3.47456e-05
0.00014521
-2.18921e-05
-1.00433e-05
2.30139e-05
-9.01235e-05
5.89654e-05
-0.000132183
8.98011e-05
-0.000120952
0.000113614
-0.000100917
0.000131227
-8.02816e-05
0.000143813
-6.09494e-05
0.000152382
-4.33149e-05
0.000157652
-2.71615e-05
-1.24041e-05
2.78103e-05
-0.000117934
7.35887e-05
-0.000177961
0.000109014
-0.000156377
0.000133721
-0.000125624
0.000150409
-9.69697e-05
0.000161503
-7.20427e-05
0.00016869
-5.05026e-05
0.000173016
-3.14876e-05
-1.43209e-05
4.40266e-05
-0.00016196
9.95345e-05
-0.000233469
0.000138543
-0.000195386
0.000161908
-0.000148989
0.00017541
-0.000110471
0.000183306
-7.9939e-05
0.000188008
-5.52041e-05
0.000190754
-3.42334e-05
-1.55256e-05
0.000108292
0.000159738
0.000189759
0.000202483
0.000207123
0.000208827
0.000209528
0.000209949
)
;

boundaryField
{
    inlet
    {
        type            calculated;
        value           uniform -0.0002;
    }
    outlet
    {
        type            calculated;
        value           nonuniform List<scalar> 
15
(
9.25517e-05
0.000129392
0.000138517
0.000147814
0.000160013
0.000174933
0.000191958
0.000210158
0.000228275
0.000244803
0.000258904
0.00027008
0.000277648
0.000274853
0.0002001
)
;
    }
    fixedWalls
    {
        type            calculated;
        value           uniform 0;
    }
    frontAndBack
    {
        type            empty;
    }
}


// ************************************************************************* //
