/*--------------------------------*- C++ -*----------------------------------*\
| =========                 |                                                 |
| \\      /  F ield         | OpenFOAM Extend Project: Open source CFD        |
|  \\    /   O peration     | Version:  1.6-ext                               |
|   \\  /    A nd           | Web:      www.extend-project.de                 |
|    \\/     M anipulation  |                                                 |
\*---------------------------------------------------------------------------*/
FoamFile
{
    version     2.0;
    format      ascii;
    class       volVectorField;
    location    "0.2";
    object      U;
}
// * * * * * * * * * * * * * * * * * * * * * * * * * * * * * * * * * * * * * //

dimensions      [0 1 -1 0 0 0 0];

internalField   nonuniform List<vector> 
284
(
(0.154884 0.018599 0)
(0.165876 0.0153638 0)
(0.130164 0.0113467 0)
(0.109598 0.00959924 0)
(0.091021 0.00929391 0)
(0.0712047 0.00961154 0)
(0.0500211 0.0101617 0)
(0.0271721 0.0104239 0)
(0.00765952 0.00740518 0)
(0.177861 0.0343379 0)
(0.20341 0.0373212 0)
(0.171834 0.0329868 0)
(0.149208 0.0309929 0)
(0.126172 0.0315189 0)
(0.100096 0.0334294 0)
(0.0713661 0.0358755 0)
(0.0398203 0.0372626 0)
(0.0116778 0.0276941 0)
(0.177367 0.0330605 0)
(0.203053 0.0504477 0)
(0.174627 0.0523007 0)
(0.154244 0.0534745 0)
(0.132522 0.0566793 0)
(0.106779 0.0615495 0)
(0.0773673 0.0671326 0)
(0.0439401 0.0707127 0)
(0.0131145 0.0542073 0)
(0.176347 0.0370124 0)
(0.201904 0.0631529 0)
(0.175915 0.0693802 0)
(0.158027 0.0736992 0)
(0.138449 0.0801747 0)
(0.114063 0.0888785 0)
(0.0847795 0.0987934 0)
(0.0496224 0.106077 0)
(0.015289 0.0832677 0)
(0.176078 0.0414918 0)
(0.202827 0.0741391 0)
(0.17966 0.0838171 0)
(0.164715 0.0912371 0)
(0.147997 0.101488 0)
(0.125807 0.11506 0)
(0.0972729 0.131077 0)
(0.0599991 0.144787 0)
(0.0195744 0.117557 0)
(0.176252 0.0451559 0)
(0.205363 0.0825428 0)
(0.18592 0.0949642 0)
(0.174831 0.105322 0)
(0.162214 0.119645 0)
(0.143813 0.139093 0)
(0.117771 0.163569 0)
(0.0791015 0.188793 0)
(0.0282276 0.164371 0)
(0.176679 0.0471347 0)
(0.209064 0.087424 0)
(0.194373 0.101816 0)
(0.188356 0.114657 0)
(0.181651 0.13284 0)
(0.169842 0.158493 0)
(0.150825 0.19272 0)
(0.118762 0.229968 0)
(0.0506531 0.2272 0)
(0.177257 0.0468274 0)
(0.213529 0.0879254 0)
(0.204436 0.103295 0)
(0.204694 0.117633 0)
(0.205892 0.138659 0)
(0.203889 0.170636 0)
(0.193392 0.221276 0)
(0.189972 0.305112 0)
(0.055421 0.341464 0)
(0.177902 0.0439096 0)
(0.21827 0.083529 0)
(0.215097 0.0986355 0)
(0.222463 0.1126 0)
(0.234206 0.132752 0)
(0.250658 0.162868 0)
(0.277769 0.208401 0)
(0.345974 0.275061 0)
(0.427772 0.43265 0)
(0.178545 0.0383694 0)
(0.222729 0.0743545 0)
(0.224726 0.088101 0)
(0.237651 0.099964 0)
(0.25624 0.115699 0)
(0.280557 0.136515 0)
(0.316831 0.161692 0)
(0.366092 0.185603 0)
(0.469296 0.229098 0)
(0.179215 0.030378 0)
(0.226703 0.0611248 0)
(0.232584 0.073033 0)
(0.248944 0.0823735 0)
(0.270673 0.093392 0)
(0.296617 0.10595 0)
(0.330797 0.117985 0)
(0.370546 0.123319 0)
(0.44482 0.129638 0)
(0.18013 0.0200506 0)
(0.230572 0.0448413 0)
(0.238953 0.0550748 0)
(0.256992 0.0623726 0)
(0.279667 0.0698248 0)
(0.30502 0.0770488 0)
(0.335075 0.0823718 0)
(0.368428 0.0814601 0)
(0.412514 0.0755425 0)
(0.181698 0.00908537 0)
(0.235033 0.0272216 0)
(0.24426 0.0358366 0)
(0.262506 0.0416404 0)
(0.284847 0.0466486 0)
(0.308705 0.0506812 0)
(0.334889 0.05262 0)
(0.36231 0.0500237 0)
(0.391061 0.0420895 0)
(0.181319 -0.0124334 0)
(0.234898 0.00390982 0)
(0.243164 0.0146129 0)
(0.260429 0.0205488 0)
(0.281468 0.0241342 0)
(0.303394 0.0263347 0)
(0.32638 0.0269415 0)
(0.349308 0.0249808 0)
(0.370493 0.0198824 0)
(0.157576 -0.0142785 0)
(0.191063 -0.00507589 0)
(0.186035 0.00173418 0)
(0.194714 0.00502297 0)
(0.208666 0.00655348 0)
(0.224069 0.00729344 0)
(0.240275 0.00740929 0)
(0.256125 0.00671971 0)
(0.26993 0.00508151 0)
(0.49909 0.110742 0)
(0.427461 0.00669583 0)
(0.549875 0.0281731 0)
(0.552897 -0.0671613 0)
(0.497307 0.0442714 0)
(0.491623 -0.0201617 0)
(0.443423 0.027771 0)
(0.444125 -0.0151075 0)
(0.411319 0.0177391 0)
(0.41434 -0.00688508 0)
(0.384943 0.00866633 0)
(0.388148 -0.00348782 0)
(0.278789 0.00198305 0)
(0.280366 -0.00135777 0)
(0.497842 -0.248901 0)
(0.377461 -0.266869 0)
(0.304373 -0.210583 0)
(0.270469 -0.15275 0)
(0.250695 -0.110101 0)
(0.23955 -0.07883 0)
(0.233429 -0.0543571 0)
(0.230117 -0.033906 0)
(0.228324 -0.015478 0)
(0.505011 -0.161368 0)
(0.406314 -0.163596 0)
(0.33808 -0.139852 0)
(0.300911 -0.114445 0)
(0.278101 -0.0898449 0)
(0.26333 -0.0675068 0)
(0.25395 -0.0478437 0)
(0.248305 -0.0303987 0)
(0.245052 -0.0140409 0)
(0.45371 -0.084939 0)
(0.399553 -0.106382 0)
(0.353065 -0.100753 0)
(0.320585 -0.0866714 0)
(0.297722 -0.0705334 0)
(0.281568 -0.054479 0)
(0.270539 -0.0393946 0)
(0.263515 -0.025434 0)
(0.259301 -0.0118838 0)
(0.423906 -0.0501466 0)
(0.391025 -0.0665792 0)
(0.358106 -0.0675074 0)
(0.331198 -0.0610232 0)
(0.310279 -0.0514373 0)
(0.294437 -0.0407444 0)
(0.28297 -0.0299968 0)
(0.275322 -0.0196433 0)
(0.270577 -0.00928121 0)
(0.402702 -0.0276227 0)
(0.3816 -0.0392376 0)
(0.357821 -0.041932 0)
(0.33586 -0.0392566 0)
(0.317251 -0.0338889 0)
(0.30231 -0.0273151 0)
(0.291 -0.0203686 0)
(0.283184 -0.0134806 0)
(0.278211 -0.00644357 0)
(0.380638 -0.0135994 0)
(0.365561 -0.019574 0)
(0.34714 -0.0213465 0)
(0.328763 -0.0202943 0)
(0.312284 -0.017705 0)
(0.298542 -0.0143801 0)
(0.287853 -0.0107851 0)
(0.280306 -0.00717915 0)
(0.275456 -0.00349686 0)
(0.274916 -0.00404153 0)
(0.264448 -0.00558048 0)
(0.251642 -0.00599605 0)
(0.238724 -0.0056528 0)
(0.227035 -0.00490025 0)
(0.217235 -0.00395739 0)
(0.209589 -0.00294892 0)
(0.204163 -0.00194477 0)
(0.200673 -0.000969179 0)
(0.00511798 -0.00502149 0)
(0.0191595 -0.00766646 0)
(0.036237 -0.00739693 0)
(0.051508 -0.00652176 0)
(0.0645311 -0.00544677 0)
(0.075102 -0.00429085 0)
(0.0831389 -0.00311895 0)
(0.0886634 -0.00196841 0)
(0.0919502 -0.000949025 0)
(0.00788488 -0.018925 0)
(0.0282385 -0.0275781 0)
(0.0520436 -0.0264748 0)
(0.0732265 -0.0232951 0)
(0.0911868 -0.0194262 0)
(0.105696 -0.0153003 0)
(0.116698 -0.0111426 0)
(0.124245 -0.0070627 0)
(0.128709 -0.00332355 0)
(0.00858612 -0.0370304 0)
(0.0310741 -0.0528098 0)
(0.0573361 -0.0503579 0)
(0.0802255 -0.0440277 0)
(0.0992389 -0.0364915 0)
(0.114328 -0.0286014 0)
(0.125614 -0.0207646 0)
(0.133296 -0.0131416 0)
(0.137831 -0.00608553 0)
(0.00931842 -0.0563376 0)
(0.0346998 -0.0804939 0)
(0.0643814 -0.0760254 0)
(0.0891928 -0.0656892 0)
(0.109026 -0.053844 0)
(0.12425 -0.041827 0)
(0.135348 -0.0301834 0)
(0.142785 -0.0190523 0)
(0.147136 -0.00876551 0)
(0.0103281 -0.0779074 0)
(0.0403291 -0.112878 0)
(0.0755623 -0.10476 0)
(0.102787 -0.0887617 0)
(0.123242 -0.071501 0)
(0.138146 -0.0547898 0)
(0.148592 -0.0391741 0)
(0.155427 -0.024628 0)
(0.159368 -0.0112782 0)
(0.0131221 -0.100947 0)
(0.0495722 -0.152165 0)
(0.0934595 -0.137499 0)
(0.122868 -0.113129 0)
(0.143005 -0.0888983 0)
(0.156569 -0.0668556 0)
(0.165522 -0.0472148 0)
(0.171177 -0.0295267 0)
(0.174365 -0.0134653 0)
(0.031184 -0.116823 0)
(0.0681365 -0.202218 0)
(0.122787 -0.176392 0)
(0.15214 -0.138363 0)
(0.169542 -0.104719 0)
(0.179819 -0.076789 0)
(0.185922 -0.0534114 0)
(0.189561 -0.0332014 0)
(0.191531 -0.0150879 0)
(0.128349 -0.24876 0)
(0.119971 -0.283436 0)
(0.176905 -0.223666 0)
(0.196997 -0.161774 0)
(0.204881 -0.115862 0)
(0.207927 -0.0823799 0)
(0.209122 -0.0564305 0)
(0.209702 -0.0349248 0)
(0.209945 -0.0158504 0)
)
;

boundaryField
{
    inlet
    {
        type            fixedValue;
        value           uniform (0.2 0 0);
    }
    outlet
    {
        type            zeroGradient;
    }
    fixedWalls
    {
        type            fixedValue;
        value           uniform (0 0 0);
    }
    frontAndBack
    {
        type            empty;
    }
}


// ************************************************************************* //
