/*--------------------------------*- C++ -*----------------------------------*\
| =========                 |                                                 |
| \\      /  F ield         | OpenFOAM Extend Project: Open source CFD        |
|  \\    /   O peration     | Version:  1.6-ext                               |
|   \\  /    A nd           | Web:      www.extend-project.de                 |
|    \\/     M anipulation  |                                                 |
\*---------------------------------------------------------------------------*/
FoamFile
{
    version     2.0;
    format      ascii;
    class       vectorField;
    location    "0.7";
    object      accumulatedFluidInterfaceDisplacement;
}
// * * * * * * * * * * * * * * * * * * * * * * * * * * * * * * * * * * * * * //


338
(
(5.75167e-07 -7.90321e-07 -1.3131e-27)
(6.83615e-07 -6.12947e-07 4.86554e-27)
(3.23633e-06 9.24014e-06 1.31416e-26)
(3.31454e-06 9.03148e-06 6.74432e-26)
(3.33177e-06 8.74778e-06 5.49858e-26)
(3.34149e-06 8.45586e-06 7.63099e-28)
(3.3432e-06 8.16244e-06 -5.298e-26)
(3.33823e-06 7.87164e-06 -2.72266e-26)
(3.32795e-06 7.58594e-06 2.4656e-26)
(3.31361e-06 7.30663e-06 -1.63024e-26)
(3.29623e-06 7.03423e-06 -3.91829e-26)
(3.27658e-06 6.76877e-06 2.84844e-26)
(3.25517e-06 6.50998e-06 1.38434e-26)
(3.23235e-06 6.25748e-06 4.67592e-27)
(3.20829e-06 6.01082e-06 1.54687e-27)
(3.18309e-06 5.76959e-06 -9.76924e-27)
(3.15678e-06 5.5334e-06 2.23043e-26)
(3.12933e-06 5.30193e-06 -2.63822e-26)
(3.10071e-06 5.07491e-06 -2.61261e-26)
(3.07088e-06 4.85214e-06 -6.22988e-27)
(3.0398e-06 4.63347e-06 -1.41468e-26)
(3.00741e-06 4.41879e-06 2.31609e-27)
(2.97369e-06 4.20803e-06 2.09473e-26)
(2.93861e-06 4.00117e-06 1.99446e-26)
(2.90214e-06 3.79819e-06 7.62757e-27)
(2.86428e-06 3.59911e-06 2.21797e-26)
(2.82502e-06 3.40396e-06 3.13004e-26)
(2.78437e-06 3.21278e-06 -1.34985e-26)
(2.74231e-06 3.02563e-06 -1.99462e-26)
(2.69888e-06 2.84257e-06 8.48217e-27)
(2.65408e-06 2.66368e-06 1.17227e-27)
(2.60793e-06 2.48901e-06 5.48353e-28)
(2.56046e-06 2.31865e-06 1.29219e-26)
(2.51169e-06 2.15266e-06 2.88816e-28)
(2.46165e-06 1.99113e-06 -9.95214e-27)
(2.41036e-06 1.83411e-06 -1.31009e-28)
(2.35788e-06 1.68167e-06 4.04148e-27)
(2.30422e-06 1.53387e-06 1.88748e-28)
(2.24943e-06 1.39076e-06 -6.77428e-29)
(2.19354e-06 1.2524e-06 1.79412e-27)
(2.13659e-06 1.11881e-06 3.416e-27)
(2.07861e-06 9.9004e-07 4.23096e-28)
(2.01966e-06 8.66108e-07 -2.51424e-28)
(1.95976e-06 7.47036e-07 -7.78893e-29)
(1.89896e-06 6.32835e-07 -2.87233e-27)
(1.83729e-06 5.2351e-07 -2.13581e-28)
(1.7748e-06 4.1906e-07 2.07782e-27)
(1.71153e-06 3.19473e-07 -2.0492e-27)
(1.64751e-06 2.24733e-07 -2.48866e-27)
(1.58279e-06 1.34815e-07 -4.86333e-27)
(1.51741e-06 4.96828e-08 -2.30743e-27)
(1.45141e-06 -3.0705e-08 1.71334e-27)
(1.38482e-06 -1.06401e-07 1.59759e-27)
(1.31767e-06 -1.77465e-07 -1.66913e-28)
(1.24999e-06 -2.43965e-07 -3.79637e-27)
(1.18178e-06 -3.05972e-07 -2.02795e-27)
(1.11301e-06 -3.6355e-07 4.55955e-27)
(1.04363e-06 -4.16748e-07 2.59247e-27)
(9.73535e-07 -4.65576e-07 -3.58656e-27)
(9.02546e-07 -5.09975e-07 2.02947e-27)
(8.30404e-07 -5.49766e-07 1.73368e-27)
(7.56745e-07 -5.84586e-07 -2.64302e-27)
(2.79939e-06 9.31621e-06 1.31546e-26)
(3.04416e-06 9.31376e-06 5.84974e-28)
(2.36267e-06 9.22989e-06 -7.57783e-26)
(2.55395e-06 9.30862e-06 -1.23884e-26)
(6.22049e-07 -7.61132e-07 6.12123e-27)
(6.71739e-07 -7.25385e-07 7.42489e-27)
(7.22164e-07 -6.8459e-07 2.06989e-27)
(7.72903e-07 -6.39112e-07 5.92661e-27)
(8.23633e-07 -5.89129e-07 4.72026e-27)
(8.74121e-07 -5.34702e-07 -1.72945e-27)
(9.24199e-07 -4.75822e-07 -3.74254e-27)
(9.7375e-07 -4.12442e-07 -4.68461e-28)
(1.0227e-06 -3.44496e-07 2.58518e-27)
(1.07098e-06 -2.71916e-07 1.36509e-27)
(1.11857e-06 -1.94635e-07 2.51011e-27)
(1.16544e-06 -1.12594e-07 -4.13952e-27)
(1.21157e-06 -2.57413e-08 -2.17784e-27)
(1.25694e-06 6.5964e-08 1.59414e-27)
(1.30154e-06 1.62555e-07 -3.17443e-27)
(1.34535e-06 2.64057e-07 -1.23297e-28)
(1.38838e-06 3.70485e-07 -1.32544e-27)
(1.4306e-06 4.81849e-07 -6.23315e-28)
(1.47201e-06 5.9815e-07 -3.21507e-29)
(1.5126e-06 7.19382e-07 -7.08432e-28)
(1.55236e-06 8.45534e-07 -3.68935e-27)
(1.59127e-06 9.76585e-07 8.21008e-28)
(1.62934e-06 1.11251e-06 3.43201e-27)
(1.66655e-06 1.25327e-06 -7.21207e-27)
(1.70289e-06 1.39883e-06 -2.01679e-27)
(1.73835e-06 1.54915e-06 -4.30722e-27)
(1.77292e-06 1.70416e-06 -1.28135e-26)
(1.80659e-06 1.86382e-06 7.04523e-28)
(1.83935e-06 2.02805e-06 -1.51322e-26)
(1.87118e-06 2.19679e-06 -1.5019e-26)
(1.90207e-06 2.36997e-06 6.55599e-27)
(1.93199e-06 2.54751e-06 -8.72926e-27)
(1.96092e-06 2.72935e-06 -1.85955e-26)
(1.98884e-06 2.9154e-06 -1.36298e-27)
(2.01571e-06 3.10561e-06 1.26993e-28)
(2.04151e-06 3.29991e-06 -7.58244e-27)
(2.0662e-06 3.49824e-06 -9.3224e-27)
(2.08973e-06 3.70055e-06 3.12633e-27)
(2.11206e-06 3.90682e-06 4.05873e-27)
(2.13313e-06 4.11702e-06 2.87434e-26)
(2.15288e-06 4.33118e-06 2.24053e-26)
(2.17124e-06 4.54931e-06 -1.64389e-26)
(2.18814e-06 4.77148e-06 6.71237e-27)
(2.20348e-06 4.99781e-06 1.26334e-26)
(2.21719e-06 5.22844e-06 2.28811e-26)
(2.22916e-06 5.46357e-06 1.79068e-26)
(2.23932e-06 5.70347e-06 1.06641e-26)
(2.24759e-06 5.94847e-06 -7.92702e-27)
(2.25394e-06 6.19896e-06 1.02752e-26)
(2.2584e-06 6.45536e-06 3.79215e-26)
(2.26108e-06 6.71812e-06 1.53705e-26)
(2.26225e-06 6.98765e-06 2.29877e-26)
(2.26233e-06 7.26421e-06 -1.69008e-26)
(2.26198e-06 7.5478e-06 -2.46401e-26)
(2.26211e-06 7.83792e-06 3.39168e-26)
(2.26387e-06 8.13329e-06 -1.0009e-26)
(2.2685e-06 8.43143e-06 -4.42193e-26)
(2.2773e-06 8.72822e-06 2.86512e-26)
(2.28958e-06 9.01656e-06 -2.2769e-26)
(2.27565e-07 -1.03308e-07 -3.12585e-26)
(2.22237e-07 -1.43414e-07 -7.38532e-27)
(2.15083e-07 -2.19174e-07 5.02357e-27)
(2.15083e-07 -2.86222e-07 9.60196e-27)
(2.21528e-07 -3.46391e-07 1.60808e-27)
(2.32287e-07 -4.01995e-07 -8.72478e-27)
(2.45331e-07 -4.54295e-07 -8.55578e-27)
(2.59369e-07 -5.04088e-07 -1.56619e-27)
(2.73597e-07 -5.51656e-07 -7.80406e-27)
(2.87628e-07 -5.9697e-07 -5.6163e-27)
(3.01357e-07 -6.39763e-07 8.06201e-27)
(3.14893e-07 -6.79626e-07 4.41369e-27)
(3.28504e-07 -7.16055e-07 1.16826e-26)
(3.42575e-07 -7.4851e-07 -1.17257e-27)
(3.57581e-07 -7.76451e-07 -8.84634e-27)
(3.74055e-07 -7.99371e-07 -1.03255e-27)
(3.92562e-07 -8.16821e-07 2.8043e-27)
(4.13668e-07 -8.2843e-07 1.55761e-28)
(4.37907e-07 -8.33908e-07 1.91972e-27)
(4.65755e-07 -8.3304e-07 6.18545e-27)
(4.97602e-07 -8.25665e-07 1.62887e-27)
(5.33739e-07 -8.11638e-07 -3.91676e-27)
(-1.16224e-07 -4.21214e-08 -3.03764e-26)
(6.14526e-07 -6.33568e-07 2.25184e-27)
(5.49171e-07 -6.47004e-07 -5.25417e-28)
(4.86055e-07 -6.5386e-07 1.15041e-27)
(4.25093e-07 -6.54259e-07 1.68593e-28)
(3.6632e-07 -6.48343e-07 5.2212e-27)
(3.09873e-07 -6.36308e-07 2.27672e-27)
(2.55975e-07 -6.1843e-07 -3.7588e-27)
(2.04907e-07 -5.95079e-07 -3.62837e-27)
(1.56985e-07 -5.66721e-07 6.93238e-27)
(1.12534e-07 -5.33913e-07 -3.86801e-27)
(7.18679e-08 -4.97289e-07 -6.0277e-27)
(3.52631e-08 -4.57543e-07 -2.1175e-27)
(2.94362e-09 -4.15405e-07 -1.96737e-27)
(-2.49423e-08 -3.71615e-07 2.76017e-26)
(-4.8346e-08 -3.26889e-07 -1.53901e-27)
(-6.7351e-08 -2.81876e-07 -1.57077e-26)
(-8.22134e-08 -2.37108e-07 -4.90609e-27)
(-9.34154e-08 -1.92942e-07 -4.75236e-27)
(-1.01713e-07 -1.49491e-07 1.01753e-26)
(-1.08131e-07 -1.06553e-07 1.1391e-27)
(-1.1362e-07 -6.36431e-08 -1.62944e-26)
(5.75167e-07 -7.90321e-07 -1.3131e-27)
(6.83615e-07 -6.12947e-07 4.86554e-27)
(3.23633e-06 9.24014e-06 1.31416e-26)
(3.31454e-06 9.03148e-06 6.74432e-26)
(3.33177e-06 8.74778e-06 5.49858e-26)
(3.34149e-06 8.45586e-06 7.63099e-28)
(3.3432e-06 8.16244e-06 -5.298e-26)
(3.33823e-06 7.87164e-06 -2.72266e-26)
(3.32795e-06 7.58594e-06 2.4656e-26)
(3.31361e-06 7.30663e-06 -1.63024e-26)
(3.29623e-06 7.03423e-06 -3.91829e-26)
(3.27658e-06 6.76877e-06 2.84844e-26)
(3.25517e-06 6.50998e-06 1.38434e-26)
(3.23235e-06 6.25748e-06 4.67592e-27)
(3.20829e-06 6.01082e-06 1.54687e-27)
(3.18309e-06 5.76959e-06 -9.76924e-27)
(3.15678e-06 5.5334e-06 2.23043e-26)
(3.12933e-06 5.30193e-06 -2.63822e-26)
(3.10071e-06 5.07491e-06 -2.61261e-26)
(3.07088e-06 4.85214e-06 -6.22988e-27)
(3.0398e-06 4.63347e-06 -1.41468e-26)
(3.00741e-06 4.41879e-06 2.31609e-27)
(2.97369e-06 4.20803e-06 2.09473e-26)
(2.93861e-06 4.00117e-06 1.99446e-26)
(2.90214e-06 3.79819e-06 7.62757e-27)
(2.86428e-06 3.59911e-06 2.21797e-26)
(2.82502e-06 3.40396e-06 3.13004e-26)
(2.78437e-06 3.21278e-06 -1.34985e-26)
(2.74231e-06 3.02563e-06 -1.99462e-26)
(2.69888e-06 2.84257e-06 8.48217e-27)
(2.65408e-06 2.66368e-06 1.17227e-27)
(2.60793e-06 2.48901e-06 5.48353e-28)
(2.56046e-06 2.31865e-06 1.29219e-26)
(2.51169e-06 2.15266e-06 2.88816e-28)
(2.46165e-06 1.99113e-06 -9.95214e-27)
(2.41036e-06 1.83411e-06 -1.31009e-28)
(2.35788e-06 1.68167e-06 4.04148e-27)
(2.30422e-06 1.53387e-06 1.88748e-28)
(2.24943e-06 1.39076e-06 -6.77428e-29)
(2.19354e-06 1.2524e-06 1.79412e-27)
(2.13659e-06 1.11881e-06 3.416e-27)
(2.07861e-06 9.9004e-07 4.23096e-28)
(2.01966e-06 8.66108e-07 -2.51424e-28)
(1.95976e-06 7.47036e-07 -7.78893e-29)
(1.89896e-06 6.32835e-07 -2.87233e-27)
(1.83729e-06 5.2351e-07 -2.13581e-28)
(1.7748e-06 4.1906e-07 2.07782e-27)
(1.71153e-06 3.19473e-07 -2.0492e-27)
(1.64751e-06 2.24733e-07 -2.48866e-27)
(1.58279e-06 1.34815e-07 -4.86333e-27)
(1.51741e-06 4.96828e-08 -2.30743e-27)
(1.45141e-06 -3.0705e-08 1.71334e-27)
(1.38482e-06 -1.06401e-07 1.59759e-27)
(1.31767e-06 -1.77465e-07 -1.66913e-28)
(1.24999e-06 -2.43965e-07 -3.79637e-27)
(1.18178e-06 -3.05972e-07 -2.02795e-27)
(1.11301e-06 -3.6355e-07 4.55955e-27)
(1.04363e-06 -4.16748e-07 2.59247e-27)
(9.73535e-07 -4.65576e-07 -3.58656e-27)
(9.02546e-07 -5.09975e-07 2.02947e-27)
(8.30404e-07 -5.49766e-07 1.73368e-27)
(7.56745e-07 -5.84586e-07 -2.64302e-27)
(2.79939e-06 9.31621e-06 1.31546e-26)
(3.04416e-06 9.31376e-06 5.84974e-28)
(2.36267e-06 9.22989e-06 -7.57783e-26)
(2.55395e-06 9.30862e-06 -1.23884e-26)
(6.22049e-07 -7.61132e-07 6.12123e-27)
(6.71739e-07 -7.25385e-07 7.42489e-27)
(7.22164e-07 -6.8459e-07 2.06989e-27)
(7.72903e-07 -6.39112e-07 5.92661e-27)
(8.23633e-07 -5.89129e-07 4.72026e-27)
(8.74121e-07 -5.34702e-07 -1.72945e-27)
(9.24199e-07 -4.75822e-07 -3.74254e-27)
(9.7375e-07 -4.12442e-07 -4.68461e-28)
(1.0227e-06 -3.44496e-07 2.58518e-27)
(1.07098e-06 -2.71916e-07 1.36509e-27)
(1.11857e-06 -1.94635e-07 2.51011e-27)
(1.16544e-06 -1.12594e-07 -4.13952e-27)
(1.21157e-06 -2.57413e-08 -2.17784e-27)
(1.25694e-06 6.5964e-08 1.59414e-27)
(1.30154e-06 1.62555e-07 -3.17443e-27)
(1.34535e-06 2.64057e-07 -1.23297e-28)
(1.38838e-06 3.70485e-07 -1.32544e-27)
(1.4306e-06 4.81849e-07 -6.23315e-28)
(1.47201e-06 5.9815e-07 -3.21507e-29)
(1.5126e-06 7.19382e-07 -7.08432e-28)
(1.55236e-06 8.45534e-07 -3.68935e-27)
(1.59127e-06 9.76585e-07 8.21008e-28)
(1.62934e-06 1.11251e-06 3.43201e-27)
(1.66655e-06 1.25327e-06 -7.21207e-27)
(1.70289e-06 1.39883e-06 -2.01679e-27)
(1.73835e-06 1.54915e-06 -4.30722e-27)
(1.77292e-06 1.70416e-06 -1.28135e-26)
(1.80659e-06 1.86382e-06 7.04523e-28)
(1.83935e-06 2.02805e-06 -1.51322e-26)
(1.87118e-06 2.19679e-06 -1.5019e-26)
(1.90207e-06 2.36997e-06 6.55599e-27)
(1.93199e-06 2.54751e-06 -8.72926e-27)
(1.96092e-06 2.72935e-06 -1.85955e-26)
(1.98884e-06 2.9154e-06 -1.36298e-27)
(2.01571e-06 3.10561e-06 1.26993e-28)
(2.04151e-06 3.29991e-06 -7.58244e-27)
(2.0662e-06 3.49824e-06 -9.3224e-27)
(2.08973e-06 3.70055e-06 3.12633e-27)
(2.11206e-06 3.90682e-06 4.05873e-27)
(2.13313e-06 4.11702e-06 2.87434e-26)
(2.15288e-06 4.33118e-06 2.24053e-26)
(2.17124e-06 4.54931e-06 -1.64389e-26)
(2.18814e-06 4.77148e-06 6.71237e-27)
(2.20348e-06 4.99781e-06 1.26334e-26)
(2.21719e-06 5.22844e-06 2.28811e-26)
(2.22916e-06 5.46357e-06 1.79068e-26)
(2.23932e-06 5.70347e-06 1.06641e-26)
(2.24759e-06 5.94847e-06 -7.92702e-27)
(2.25394e-06 6.19896e-06 1.02752e-26)
(2.2584e-06 6.45536e-06 3.79215e-26)
(2.26108e-06 6.71812e-06 1.53705e-26)
(2.26225e-06 6.98765e-06 2.29877e-26)
(2.26233e-06 7.26421e-06 -1.69008e-26)
(2.26198e-06 7.5478e-06 -2.46401e-26)
(2.26211e-06 7.83792e-06 3.39168e-26)
(2.26387e-06 8.13329e-06 -1.0009e-26)
(2.2685e-06 8.43143e-06 -4.42193e-26)
(2.2773e-06 8.72822e-06 2.86512e-26)
(2.28958e-06 9.01656e-06 -2.2769e-26)
(2.27565e-07 -1.03308e-07 -3.12585e-26)
(2.22237e-07 -1.43414e-07 -7.38532e-27)
(2.15083e-07 -2.19174e-07 5.02357e-27)
(2.15083e-07 -2.86222e-07 9.60196e-27)
(2.21528e-07 -3.46391e-07 1.60808e-27)
(2.32287e-07 -4.01995e-07 -8.72478e-27)
(2.45331e-07 -4.54295e-07 -8.55578e-27)
(2.59369e-07 -5.04088e-07 -1.56619e-27)
(2.73597e-07 -5.51656e-07 -7.80406e-27)
(2.87628e-07 -5.9697e-07 -5.6163e-27)
(3.01357e-07 -6.39763e-07 8.06201e-27)
(3.14893e-07 -6.79626e-07 4.41369e-27)
(3.28504e-07 -7.16055e-07 1.16826e-26)
(3.42575e-07 -7.4851e-07 -1.17257e-27)
(3.57581e-07 -7.76451e-07 -8.84634e-27)
(3.74055e-07 -7.99371e-07 -1.03255e-27)
(3.92562e-07 -8.16821e-07 2.8043e-27)
(4.13668e-07 -8.2843e-07 1.55761e-28)
(4.37907e-07 -8.33908e-07 1.91972e-27)
(4.65755e-07 -8.3304e-07 6.18545e-27)
(4.97602e-07 -8.25665e-07 1.62887e-27)
(5.33739e-07 -8.11638e-07 -3.91676e-27)
(-1.16224e-07 -4.21214e-08 -3.03764e-26)
(6.14526e-07 -6.33568e-07 2.25184e-27)
(5.49171e-07 -6.47004e-07 -5.25417e-28)
(4.86055e-07 -6.5386e-07 1.15041e-27)
(4.25093e-07 -6.54259e-07 1.68593e-28)
(3.6632e-07 -6.48343e-07 5.2212e-27)
(3.09873e-07 -6.36308e-07 2.27672e-27)
(2.55975e-07 -6.1843e-07 -3.7588e-27)
(2.04907e-07 -5.95079e-07 -3.62837e-27)
(1.56985e-07 -5.66721e-07 6.93238e-27)
(1.12534e-07 -5.33913e-07 -3.86801e-27)
(7.18679e-08 -4.97289e-07 -6.0277e-27)
(3.52631e-08 -4.57543e-07 -2.1175e-27)
(2.94362e-09 -4.15405e-07 -1.96737e-27)
(-2.49423e-08 -3.71615e-07 2.76017e-26)
(-4.8346e-08 -3.26889e-07 -1.53901e-27)
(-6.7351e-08 -2.81876e-07 -1.57077e-26)
(-8.22134e-08 -2.37108e-07 -4.90609e-27)
(-9.34154e-08 -1.92942e-07 -4.75236e-27)
(-1.01713e-07 -1.49491e-07 1.01753e-26)
(-1.08131e-07 -1.06553e-07 1.1391e-27)
(-1.1362e-07 -6.36431e-08 -1.62944e-26)
)


// ************************************************************************* //
