/*--------------------------------*- C++ -*----------------------------------*\
| =========                 |                                                 |
| \\      /  F ield         | OpenFOAM Extend Project: Open source CFD        |
|  \\    /   O peration     | Version:  1.6-ext                               |
|   \\  /    A nd           | Web:      www.extend-project.de                 |
|    \\/     M anipulation  |                                                 |
\*---------------------------------------------------------------------------*/
FoamFile
{
    version     2.0;
    format      ascii;
    class       tetPointVectorField;
    location    "0.7";
    object      motionU;
}
// * * * * * * * * * * * * * * * * * * * * * * * * * * * * * * * * * * * * * //

dimensions      [0 1 -1 0 0 0 0];

internalField   nonuniform List<vector> 
147960
(
(0 0 0)
(1.80911e-05 0.000136485 0)
(0.00114557 0.000293638 9.55035e-25)
(0.00154519 0.000641993 -9.61773e-24)
(0.0070073 0.0238224 1.55884e-23)
(0.00713849 0.0234202 -6.68298e-24)
(0.00713265 0.0228839 -1.01892e-23)
(0.0071237 0.0223475 2.0857e-23)
(0.00711168 0.0218112 -4.29042e-24)
(0.00709641 0.0212751 -3.43481e-23)
(0.00707783 0.0207396 -7.55774e-23)
(0.00705586 0.0202048 -1.697e-23)
(0.00703043 0.0196711 3.15037e-23)
(0.00700149 0.0191387 1.41234e-24)
(0.00696901 0.0186081 2.95204e-23)
(0.00693296 0.0180794 1.54312e-23)
(0.00689332 0.0175532 -2.77008e-23)
(0.00685008 0.0170296 7.99357e-24)
(0.00680325 0.0165091 1.37742e-23)
(0.00675284 0.015992 -2.33709e-23)
(0.00669885 0.0154786 -1.62109e-23)
(0.00664132 0.0149692 -2.66304e-23)
(0.00658028 0.0144642 -2.21861e-23)
(0.00651576 0.013964 2.34864e-23)
(0.0064478 0.0134688 -2.95964e-25)
(0.00637645 0.0129789 -1.52611e-23)
(0.00630175 0.0124946 1.36767e-23)
(0.00622377 0.0120162 2.34756e-23)
(0.00614255 0.011544 8.22255e-25)
(0.00605815 0.0110783 -4.1858e-23)
(0.00597063 0.0106193 -3.45464e-23)
(0.00588003 0.0101672 -1.53992e-23)
(0.00578643 0.00972234 -1.93333e-27)
(0.00568986 0.0092849 1.7661e-23)
(0.00559039 0.00885514 1.64676e-24)
(0.00548806 0.00843329 -3.93626e-24)
(0.00538293 0.00801956 -1.35009e-23)
(0.00527504 0.0076142 -1.05276e-23)
(0.00516444 0.00721744 1.82092e-23)
(0.00505117 0.00682951 1.08619e-23)
(0.00493529 0.00645064 3.92669e-24)
(0.00481684 0.00608108 -3.30504e-24)
(0.00469586 0.00572106 -1.04163e-24)
(0.00457241 0.00537084 2.84604e-25)
(0.00444653 0.00503064 -5.50694e-24)
(0.00431828 0.00470072 -1.55264e-24)
(0.00418771 0.00438132 5.6727e-24)
(0.0040549 0.00407268 2.47174e-24)
(0.00391989 0.00377503 -2.70015e-25)
(0.00378278 0.00348861 5.87379e-25)
(0.00364363 0.00321362 -2.44736e-24)
(0.00350252 0.00295027 3.23913e-24)
(0.00335956 0.00269876 8.21914e-24)
(0.00321483 0.00245924 4.69045e-24)
(0.00306844 0.00223188 -6.51556e-24)
(0.00292051 0.00201679 -1.04829e-23)
(0.00277114 0.00181407 4.69396e-24)
(0.00262045 0.0016238 7.24956e-24)
(0.00246859 0.001446 -4.97792e-24)
(0.00231567 0.00128068 -5.02529e-24)
(0.00216184 0.0011278 3.56678e-24)
(0.00200722 0.000987299 5.19507e-24)
(0.00185197 0.000859067 -1.42626e-24)
(0.00169621 0.000742957 4.94806e-25)
(0.00606838 0.0239558 2.74235e-24)
(0.00660591 0.023956 -4.6632e-24)
(0.00512113 0.0238197 -7.51674e-24)
(0.00552815 0.0239557 1.84057e-24)
(0.00125104 0.000396336 -3.29375e-24)
(0.00135894 0.000514403 -1.66699e-24)
(0.00146568 0.000644764 4.95907e-24)
(0.00157127 0.000787565 -1.39368e-24)
(0.00167571 0.000942913 -6.35662e-24)
(0.00177902 0.00111088 -3.84632e-24)
(0.0018812 0.00129149 6.63939e-24)
(0.00198224 0.00148474 -2.27636e-25)
(0.00208216 0.0016906 -1.03002e-23)
(0.00218095 0.001909 6.30218e-25)
(0.0022786 0.00213983 -3.11579e-24)
(0.0023751 0.00238298 4.22231e-24)
(0.00247044 0.00263828 2.76322e-24)
(0.00256461 0.00290556 1.01938e-24)
(0.00265758 0.00318464 6.53407e-24)
(0.00274932 0.0034753 1.08411e-24)
(0.0028398 0.00377733 4.43131e-25)
(0.00292899 0.0040905 -9.8951e-24)
(0.00301685 0.00441457 -4.12727e-24)
(0.00310334 0.0047493 5.56353e-24)
(0.00318841 0.00509445 3.61903e-24)
(0.00327201 0.00544977 2.14985e-24)
(0.0033541 0.00581501 -5.34993e-24)
(0.00343461 0.00618994 8.45199e-24)
(0.00351351 0.0065743 2.06093e-24)
(0.00359074 0.00696788 3.18082e-24)
(0.00366624 0.00737042 2.17825e-23)
(0.00373996 0.00778169 9.0507e-24)
(0.00381186 0.00820147 -8.96334e-24)
(0.00388189 0.00862953 -2.25994e-23)
(0.00394999 0.00906562 -1.43009e-23)
(0.00401614 0.00950953 -1.70679e-23)
(0.00408028 0.00996101 -9.90507e-24)
(0.00414239 0.0104198 -2.6868e-24)
(0.00420242 0.0108857 3.42034e-24)
(0.00426037 0.0113585 9.58172e-24)
(0.00431619 0.0118378 -1.47985e-23)
(0.00436988 0.0123234 -6.95753e-24)
(0.0044214 0.012815 1.76846e-23)
(0.00447076 0.0133124 8.40563e-24)
(0.00451793 0.0138151 -1.52569e-23)
(0.00456291 0.014323 5.01927e-24)
(0.00460569 0.0148357 1.56572e-23)
(0.00464626 0.0153528 6.49469e-24)
(0.00468462 0.0158741 2.55643e-23)
(0.00472076 0.0163991 3.88508e-23)
(0.00475467 0.0169275 3.59436e-23)
(0.00478635 0.017459 -5.9456e-24)
(0.00481579 0.0179932 -2.35014e-23)
(0.00484299 0.0185298 7.34568e-24)
(0.00486792 0.0190684 3.12057e-24)
(0.00489057 0.0196087 -3.04414e-24)
(0.00491093 0.0201503 2.07525e-23)
(0.00492898 0.020693 -4.76132e-23)
(0.00494466 0.0212364 -3.83203e-23)
(0.00495797 0.0217802 2.13851e-23)
(0.00496881 0.0223242 3.7676e-24)
(0.00497719 0.0228683 -3.56774e-25)
(0.00498285 0.023412 -1.51222e-23)
(0.00451398 0.0199606 0)
(0.00508881 0.0235445 0)
(0.00510448 0.0233608 0)
(0.00511015 0.0231683 0)
(0.00510467 0.0229631 0)
(0.00509295 0.0227469 0)
(0.00507314 0.0225204 0)
(0.00504706 0.0222837 0)
(0.0050116 0.0220365 0)
(0.00497006 0.0217783 0)
(0.00491822 0.0215086 0)
(0.00485818 0.0212266 0)
(0.00478957 0.0209315 0)
(0.00470624 0.0206229 0)
(0.00461776 0.0202994 0)
(0.00082984 0.000539564 0)
(0.000918511 0.000622398 0)
(0.00101057 0.000715086 0)
(0.00110541 0.00081813 0)
(0.00120257 0.000932258 0)
(0.00130152 0.00105777 0)
(0.0014016 0.00119459 0)
(0.00150248 0.00134293 0)
(0.00160371 0.001503 0)
(0.00170504 0.00167491 0)
(0.00180637 0.00185877 0)
(0.00190758 0.00205461 0)
(0.00200853 0.00226244 0)
(0.0021091 0.00248226 0)
(0.00220909 0.00271402 0)
(0.00230823 0.00295766 0)
(0.00240636 0.00321306 0)
(0.00250344 0.00348009 0)
(0.00259941 0.00375863 0)
(0.00269414 0.00404838 0)
(0.00278763 0.00435 0)
(0.00287968 0.00466325 0)
(0.00297004 0.00498676 0)
(0.00305862 0.0053205 0)
(0.0031453 0.00566431 0)
(0.00322999 0.00601797 0)
(0.00331263 0.00638122 0)
(0.00339328 0.00675379 0)
(0.00347197 0.00713537 0)
(0.00354865 0.00752561 0)
(0.00362325 0.0079242 0)
(0.00369576 0.00833076 0)
(0.00376619 0.00874489 0)
(0.00383445 0.00916622 0)
(0.00390047 0.00959447 0)
(0.00396417 0.0100288 0)
(0.0040254 0.0104701 0)
(0.00408385 0.0109184 0)
(0.00413905 0.0113712 0)
(0.00419047 0.0118277 0)
(0.00423801 0.0122874 0)
(0.00428222 0.0127496 0)
(0.00432394 0.0132133 0)
(0.00436333 0.0136777 0)
(0.00439952 0.0141416 0)
(0.00443166 0.0146041 0)
(0.00446052 0.0150637 0)
(0.0044876 0.0155188 0)
(0.00451253 0.0159675 0)
(0.00453343 0.0164081 0)
(0.00454967 0.0168386 0)
(0.00456222 0.0172564 0)
(0.00457291 0.0176585 0)
(0.00458234 0.0180422 0)
(0.00458875 0.0184043 0)
(0.00459071 0.018742 0)
(0.00458706 0.019052 0)
(0.00457763 0.0193314 0)
(0.00456321 0.0195773 0)
(0.0045433 0.0197874 0)
(0.00611553 0.0198292 0)
(0.00624429 0.0201929 0)
(0.00635152 0.0205388 0)
(0.00645433 0.020866 0)
(0.0065484 0.0211773 0)
(0.00662442 0.0214734 0)
(0.00669672 0.021754 0)
(0.00676067 0.0220215 0)
(0.00681256 0.022276 0)
(0.00686216 0.0225178 0)
(0.00690294 0.0227483 0)
(0.00693805 0.0229668 0)
(0.00697089 0.0231732 0)
(0.00699985 0.023366 0)
(0.00703479 0.0235491 0)
(0.00114797 0.000765277 0)
(0.00152746 0.000638842 0)
(0.00150673 0.00064113 0)
(0.00148347 0.000647644 0)
(0.00145746 0.000657076 0)
(0.00143068 0.000668175 0)
(0.00140308 0.000680264 0)
(0.00137515 0.000692607 0)
(0.00134706 0.000704701 0)
(0.00131931 0.0007164 0)
(0.00129225 0.000727468 0)
(0.00126455 0.000737462 0)
(0.00123624 0.0007463 0)
(0.00120779 0.000754153 0)
(0.00117848 0.000760591 0)
(0.006188 0.0196639 0)
(0.00625006 0.0194614 0)
(0.0063015 0.0192232 0)
(0.00634306 0.0189518 0)
(0.00637495 0.0186497 0)
(0.00639734 0.0183201 0)
(0.00641093 0.0179662 0)
(0.00641688 0.017591 0)
(0.00641693 0.0171975 0)
(0.00641095 0.0167886 0)
(0.00639799 0.0163672 0)
(0.00637763 0.0159357 0)
(0.00635044 0.0154963 0)
(0.00631812 0.0150507 0)
(0.00628123 0.0146006 0)
(0.0062387 0.0141477 0)
(0.0061901 0.0136934 0)
(0.00613629 0.0132387 0)
(0.00607816 0.0127847 0)
(0.00601568 0.0123322 0)
(0.00594823 0.0118822 0)
(0.00587538 0.0114354 0)
(0.00579733 0.0109923 0)
(0.00571465 0.0105537 0)
(0.00562789 0.0101219 0)
(0.00553731 0.0096969 0)
(0.00544312 0.00927792 0)
(0.00534546 0.00886572 0)
(0.00524445 0.00846061 0)
(0.00514019 0.00806291 0)
(0.00503275 0.00767302 0)
(0.00492216 0.00729129 0)
(0.00480854 0.00691803 0)
(0.00469197 0.00655358 0)
(0.00457246 0.00619823 0)
(0.00444998 0.00585227 0)
(0.00432461 0.00551594 0)
(0.00419651 0.00518944 0)
(0.00406583 0.00487294 0)
(0.00393269 0.00456644 0)
(0.00379752 0.00427125 0)
(0.00366062 0.00398758 0)
(0.00352198 0.00371482 0)
(0.00338183 0.00345323 0)
(0.00324029 0.00320285 0)
(0.00309745 0.00296376 0)
(0.00295359 0.00273606 0)
(0.00280912 0.0025198 0)
(0.00266439 0.00231494 0)
(0.00251963 0.00212137 0)
(0.00237506 0.00193896 0)
(0.00223091 0.00176757 0)
(0.00208742 0.00160702 0)
(0.00194496 0.0014571 0)
(0.00180412 0.00131755 0)
(0.00166544 0.00118806 0)
(0.00152989 0.0010686 0)
(0.00139806 0.000958787 0)
(0.00127049 0.000857861 0)
(0.00130514 0.000854294 0)
(0.0013384 0.000849097 0)
(0.00137012 0.000842488 0)
(0.00140258 0.000834598 0)
(0.00143333 0.000825242 0)
(0.00146379 0.000815089 0)
(0.00149523 0.000803871 0)
(0.00152507 0.000792066 0)
(0.00155555 0.000780333 0)
(0.00158489 0.000768792 0)
(0.0016129 0.000758427 0)
(0.00163958 0.000749648 0)
(0.00166302 0.000743894 0)
(0.00168291 0.00074193 0)
(0.00143689 0.000957011 0)
(0.0014733 0.000953138 0)
(0.00150836 0.000947814 0)
(0.0015441 0.000941041 0)
(0.00157745 0.000932702 0)
(0.00161111 0.000923515 0)
(0.00164491 0.000913098 0)
(0.00167682 0.000902211 0)
(0.0017092 0.000891356 0)
(0.00173965 0.000880725 0)
(0.00176858 0.000871201 0)
(0.00179545 0.000863237 0)
(0.00181868 0.00085822 0)
(0.00183815 0.000856851 0)
(0.00157223 0.00106854 0)
(0.00161145 0.00106643 0)
(0.00164988 0.00106271 0)
(0.0016883 0.0010573 0)
(0.00172371 0.00105016 0)
(0.00176018 0.00104213 0)
(0.00179584 0.001033 0)
(0.0018293 0.00102331 0)
(0.00186322 0.00101359 0)
(0.00189435 0.00100404 0)
(0.00192386 0.000995586 0)
(0.00195093 0.000988637 0)
(0.00197401 0.000984597 0)
(0.00199343 0.000984197 0)
(0.00171093 0.00118999 0)
(0.00175246 0.00118963 0)
(0.00179401 0.00118772 0)
(0.00183478 0.00118393 0)
(0.00187215 0.00117856 0)
(0.00191075 0.0011719 0)
(0.00194766 0.00116402 0)
(0.00198213 0.00115573 0)
(0.00201717 0.00114736 0)
(0.00204881 0.00113908 0)
(0.00207863 0.00113188 0)
(0.00210589 0.00112615 0)
(0.00212888 0.00112324 0)
(0.0021482 0.00112387 0)
(0.00185205 0.00132145 0)
(0.00189571 0.00132308 0)
(0.00194008 0.0013232 0)
(0.00198282 0.00132125 0)
(0.00202151 0.00131767 0)
(0.0020619 0.00131274 0)
(0.00209988 0.00130646 0)
(0.00213502 0.00129975 0)
(0.00217088 0.00129293 0)
(0.00220287 0.00128609 0)
(0.00223283 0.0012803 0)
(0.00226015 0.00127593 0)
(0.00228306 0.00127425 0)
(0.00230225 0.00127593 0)
(0.00199519 0.00146328 0)
(0.00204054 0.00146712 0)
(0.00208732 0.00146946 0)
(0.00213187 0.00146953 0)
(0.00217145 0.00146792 0)
(0.00221322 0.00146498 0)
(0.00225227 0.00146057 0)
(0.00228778 0.00145562 0)
(0.00232408 0.0014505 0)
(0.00235628 0.00144525 0)
(0.00238631 0.00144097 0)
(0.0024136 0.00143809 0)
(0.00243636 0.00143771 0)
(0.0024554 0.00144046 0)
(0.00213976 0.00161575 0)
(0.00218639 0.00162201 0)
(0.00223514 0.00162676 0)
(0.00228134 0.00162907 0)
(0.00232169 0.00162957 0)
(0.00236446 0.00162886 0)
(0.00240433 0.00162655 0)
(0.00244022 0.00162355 0)
(0.00247669 0.00162025 0)
(0.0025087 0.00161655 0)
(0.00253881 0.00161391 0)
(0.00256614 0.00161273 0)
(0.00258867 0.00161366 0)
(0.0026075 0.00161747 0)
(0.00228529 0.00177913 0)
(0.00233291 0.00178803 0)
(0.00238315 0.00179536 0)
(0.00243071 0.00179999 0)
(0.00247182 0.00180277 0)
(0.00251543 0.00180462 0)
(0.00255584 0.00180458 0)
(0.00259197 0.00180371 0)
(0.00262868 0.00180243 0)
(0.00266078 0.00180089 0)
(0.00269064 0.00179975 0)
(0.00271761 0.00179991 0)
(0.00273986 0.00180211 0)
(0.00275844 0.00180697 0)
(0.00243142 0.00195363 0)
(0.00247995 0.00196541 0)
(0.00253125 0.00197558 0)
(0.00258022 0.0019832 0)
(0.00262202 0.0019884 0)
(0.00266598 0.0019925 0)
(0.00270663 0.00199476 0)
(0.00274282 0.00199613 0)
(0.00277967 0.00199698 0)
(0.00281164 0.00199738 0)
(0.00284119 0.0019979 0)
(0.00286783 0.00199954 0)
(0.00288974 0.00200303 0)
(0.00290808 0.00200893 0)
(0.00257778 0.0021394 0)
(0.00262722 0.0021543 0)
(0.00267925 0.00216744 0)
(0.00272897 0.00217793 0)
(0.00277129 0.00218583 0)
(0.00281577 0.00219247 0)
(0.00285653 0.00219715 0)
(0.00289258 0.00220081 0)
(0.0029294 0.0022038 0)
(0.00296113 0.00220614 0)
(0.00299039 0.00220842 0)
(0.00301668 0.00221158 0)
(0.00303823 0.00221636 0)
(0.00305629 0.00222329 0)
(0.00272394 0.00233649 0)
(0.00277422 0.00235471 0)
(0.00282685 0.0023709 0)
(0.00287696 0.00238431 0)
(0.00291949 0.00239514 0)
(0.00296441 0.00240451 0)
(0.0030053 0.00241173 0)
(0.00304112 0.00241772 0)
(0.00307775 0.00242286 0)
(0.00310914 0.00242718 0)
(0.00313807 0.00243125 0)
(0.00316403 0.00243595 0)
(0.0031852 0.00244202 0)
(0.00320296 0.00244994 0)
(0.00286961 0.002545 0)
(0.00292051 0.00256668 0)
(0.00297363 0.0025859 0)
(0.00302416 0.00260235 0)
(0.00306669 0.00261644 0)
(0.00311173 0.00262863 0)
(0.00315264 0.00263844 0)
(0.00318821 0.00264682 0)
(0.00322462 0.00265413 0)
(0.00325561 0.00266042 0)
(0.00328416 0.00266629 0)
(0.00330976 0.00267254 0)
(0.00333053 0.00267988 0)
(0.00334799 0.00268878 0)
(0.00301469 0.00276504 0)
(0.00306593 0.00279039 0)
(0.00311985 0.00281338 0)
(0.00317076 0.00283294 0)
(0.00321288 0.00284983 0)
(0.00325776 0.00286478 0)
(0.00329843 0.00287721 0)
(0.00333366 0.002888 0)
(0.00336986 0.00289751 0)
(0.00340044 0.00290579 0)
(0.00342856 0.00291344 0)
(0.00345376 0.00292122 0)
(0.00347412 0.0029298 0)
(0.00349126 0.00293965 0)
(0.003159 0.00299664 0)
(0.00321024 0.0030257 0)
(0.0032646 0.00305223 0)
(0.00331582 0.00307516 0)
(0.0033577 0.00309513 0)
(0.00340238 0.00311291 0)
(0.00344267 0.00312796 0)
(0.00347742 0.00314117 0)
(0.00351332 0.00315287 0)
(0.00354347 0.00316313 0)
(0.00357115 0.00317255 0)
(0.00359593 0.00318184 0)
(0.00361587 0.00319163 0)
(0.00363267 0.00320239 0)
(0.00330227 0.00323974 0)
(0.0033532 0.00327233 0)
(0.00340785 0.00330244 0)
(0.00345929 0.0033291 0)
(0.00350087 0.00335225 0)
(0.00354536 0.00337291 0)
(0.00358522 0.00339059 0)
(0.0036194 0.00340618 0)
(0.00365493 0.00342003 0)
(0.00368458 0.00343226 0)
(0.00371181 0.00344345 0)
(0.00373616 0.00345422 0)
(0.00375567 0.00346519 0)
(0.00377214 0.00347681 0)
(0.00344434 0.0034944 0)
(0.00349537 0.00353134 0)
(0.00355012 0.00356502 0)
(0.00360122 0.00359482 0)
(0.0036423 0.0036211 0)
(0.00368651 0.00364462 0)
(0.00372592 0.00366494 0)
(0.00375949 0.00368288 0)
(0.00379456 0.00369881 0)
(0.00382369 0.00371296 0)
(0.00385045 0.00372595 0)
(0.00387438 0.00373817 0)
(0.00389345 0.00375027 0)
(0.00390957 0.00376271 0)
(0.0035849 0.00376034 0)
(0.00363585 0.00380139 0)
(0.00369062 0.00383886 0)
(0.00374148 0.00387209 0)
(0.00378195 0.00390153 0)
(0.00382577 0.00392794 0)
(0.00386468 0.00395088 0)
(0.00389759 0.00397115 0)
(0.00393201 0.00398883 0)
(0.00396066 0.00400493 0)
(0.00398704 0.00401991 0)
(0.00401051 0.00403351 0)
(0.00402914 0.00404667 0)
(0.0040449 0.00405987 0)
(0.00372359 0.00403716 0)
(0.00377441 0.00408241 0)
(0.00382926 0.00412403 0)
(0.0038799 0.00416078 0)
(0.00391972 0.00419341 0)
(0.0039631 0.00422269 0)
(0.00400146 0.00424829 0)
(0.00403373 0.00427101 0)
(0.00406785 0.0042913 0)
(0.00409585 0.00430901 0)
(0.00412152 0.0043252 0)
(0.00414448 0.00434003 0)
(0.00416264 0.00435416 0)
(0.00417804 0.00436807 0)
(0.00386094 0.004326 0)
(0.00391149 0.00437543 0)
(0.00396602 0.00442055 0)
(0.00401632 0.00446074 0)
(0.00405545 0.00449653 0)
(0.00409836 0.0045287 0)
(0.00413613 0.00455695 0)
(0.00416772 0.00458207 0)
(0.00420135 0.00460447 0)
(0.00422869 0.00462389 0)
(0.00425375 0.00464147 0)
(0.00427621 0.00465747 0)
(0.00429389 0.00467252 0)
(0.00430893 0.00468708 0)
(0.00399629 0.00462546 0)
(0.00404652 0.0046793 0)
(0.00410079 0.00472813 0)
(0.00415064 0.00477173 0)
(0.00418901 0.00481068 0)
(0.0042314 0.0048457 0)
(0.00426853 0.00487654 0)
(0.0042994 0.00490398 0)
(0.00433249 0.00492836 0)
(0.00435917 0.00494949 0)
(0.00438364 0.00496846 0)
(0.0044056 0.00498559 0)
(0.00442282 0.0050015 0)
(0.0044375 0.00501665 0)
(0.00412972 0.0049364 0)
(0.0041794 0.004994 0)
(0.00423335 0.00504651 0)
(0.00428273 0.00509353 0)
(0.00432032 0.00513562 0)
(0.00436215 0.00517345 0)
(0.00439862 0.00520682 0)
(0.00442874 0.00523648 0)
(0.00446126 0.00526279 0)
(0.00448728 0.00528559 0)
(0.00451116 0.00530593 0)
(0.00453262 0.00532414 0)
(0.00454937 0.00534086 0)
(0.00456371 0.00535654 0)
(0.00426055 0.00525745 0)
(0.00430981 0.00531916 0)
(0.0043635 0.00537542 0)
(0.00441248 0.00542589 0)
(0.00444931 0.00547109 0)
(0.00449056 0.0055117 0)
(0.00452634 0.00554754 0)
(0.00455567 0.00557935 0)
(0.00458759 0.00560753 0)
(0.00461295 0.00563199 0)
(0.00463626 0.00565366 0)
(0.00465723 0.0056729 0)
(0.0046735 0.00569035 0)
(0.00468748 0.00570652 0)
(0.00438875 0.00558859 0)
(0.0044376 0.00565453 0)
(0.0044911 0.00571461 0)
(0.00453972 0.00576855 0)
(0.00457581 0.00581687 0)
(0.00461651 0.00586021 0)
(0.00465158 0.00589844 0)
(0.0046801 0.00593229 0)
(0.00471141 0.0059623 0)
(0.00473612 0.00598843 0)
(0.00475889 0.00601141 0)
(0.00477936 0.00603161 0)
(0.00479517 0.00604974 0)
(0.00480878 0.00606632 0)
(0.00451417 0.00592966 0)
(0.00456263 0.0059999 0)
(0.00461596 0.00606385 0)
(0.00466424 0.00612127 0)
(0.00469966 0.00617271 0)
(0.00473987 0.00621878 0)
(0.00477428 0.00625935 0)
(0.00480187 0.00629484 0)
(0.00483267 0.00632673 0)
(0.0048568 0.00635477 0)
(0.004879 0.00637896 0)
(0.00489898 0.00640004 0)
(0.0049143 0.00641877 0)
(0.00492756 0.00643572 0)
(0.00463671 0.00628043 0)
(0.00468476 0.00635504 0)
(0.00473791 0.00642289 0)
(0.0047859 0.00648382 0)
(0.00482073 0.00653838 0)
(0.00486054 0.00658721 0)
(0.00489439 0.00663027 0)
(0.00492143 0.00666839 0)
(0.00495164 0.00670183 0)
(0.00497496 0.00673086 0)
(0.00499655 0.00675607 0)
(0.00501602 0.00677795 0)
(0.00503085 0.00679721 0)
(0.00504375 0.00681446 0)
(0.00475631 0.00664065 0)
(0.00480397 0.00671968 0)
(0.00485694 0.00679148 0)
(0.00490464 0.00685594 0)
(0.00493891 0.00691363 0)
(0.00497836 0.0069652 0)
(0.00501173 0.00701071 0)
(0.00503816 0.00705094 0)
(0.00506783 0.00708601 0)
(0.00509045 0.0071163 0)
(0.00511147 0.00714249 0)
(0.00513043 0.00716508 0)
(0.00514477 0.00718482 0)
(0.00515732 0.00720232 0)
(0.00487302 0.00701005 0)
(0.00492032 0.00709354 0)
(0.00497311 0.00716933 0)
(0.00502048 0.00723734 0)
(0.00505416 0.00729814 0)
(0.00509326 0.00735239 0)
(0.00512616 0.00740017 0)
(0.00515204 0.00744241 0)
(0.00518123 0.00747922 0)
(0.00520323 0.00751081 0)
(0.00522367 0.00753796 0)
(0.00524214 0.00756121 0)
(0.00525603 0.00758135 0)
(0.00526822 0.00759904 0)
(0.00498684 0.00738832 0)
(0.00503384 0.00747634 0)
(0.00508648 0.00755615 0)
(0.0051335 0.00762773 0)
(0.00516656 0.00769166 0)
(0.00520527 0.00774854 0)
(0.00523759 0.00779817 0)
(0.00526299 0.00784248 0)
(0.00529183 0.00788134 0)
(0.00531323 0.0079142 0)
(0.00533311 0.00794223 0)
(0.00535111 0.00796608 0)
(0.00536455 0.00798658 0)
(0.00537641 0.0080044 0)
(0.00509764 0.00777515 0)
(0.00514441 0.00786776 0)
(0.00519696 0.00795166 0)
(0.00524368 0.00802685 0)
(0.00527613 0.00809395 0)
(0.00531447 0.00815365 0)
(0.00534649 0.00820622 0)
(0.00537135 0.00825236 0)
(0.0053996 0.00829229 0)
(0.0054204 0.00832624 0)
(0.00543975 0.00835509 0)
(0.00545729 0.00837947 0)
(0.0054703 0.00840025 0)
(0.00548183 0.00841817 0)
(0.00520526 0.00817023 0)
(0.00525186 0.0082675 0)
(0.00530441 0.00835553 0)
(0.0053509 0.00843437 0)
(0.00538276 0.00850465 0)
(0.00542073 0.00856712 0)
(0.00545232 0.00862216 0)
(0.00547664 0.00867028 0)
(0.00550443 0.00871165 0)
(0.00552468 0.00874667 0)
(0.00554352 0.00877627 0)
(0.00556062 0.00880112 0)
(0.00557322 0.00882214 0)
(0.00558444 0.00884011 0)
(0.00530971 0.0085732 0)
(0.00535615 0.00867521 0)
(0.00540873 0.00876745 0)
(0.00545502 0.00884998 0)
(0.00548635 0.00892343 0)
(0.00552384 0.00898822 0)
(0.00555507 0.00904583 0)
(0.00557893 0.00909633 0)
(0.00560629 0.00913917 0)
(0.005626 0.00917523 0)
(0.00564438 0.00920553 0)
(0.00566106 0.00923081 0)
(0.00567326 0.00925202 0)
(0.00568418 0.00926998 0)
(0.00541097 0.00898372 0)
(0.00545727 0.00909058 0)
(0.00550985 0.0091871 0)
(0.00555596 0.00927339 0)
(0.00558682 0.0093502 0)
(0.00562414 0.00941852 0)
(0.00565499 0.00947856 0)
(0.00567821 0.00953047 0)
(0.00570512 0.00957463 0)
(0.00572434 0.00961167 0)
(0.00574227 0.00964263 0)
(0.00575855 0.00966829 0)
(0.00577038 0.00968964 0)
(0.00578101 0.00970756 0)
(0.00550892 0.00940147 0)
(0.00555508 0.00951327 0)
(0.00560766 0.00961415 0)
(0.00565359 0.00970421 0)
(0.00568394 0.00978405 0)
(0.00572117 0.00985573 0)
(0.00575167 0.00991862 0)
(0.00577435 0.00997228 0)
(0.00580088 0.0100177 0)
(0.00581962 0.0100557 0)
(0.00583714 0.0100873 0)
(0.00585305 0.0101133 0)
(0.00586452 0.0101348 0)
(0.00587488 0.0101526 0)
(0.00560335 0.00982607 0)
(0.00564939 0.00994294 0)
(0.005702 0.0100483 0)
(0.00574775 0.010142 0)
(0.00577798 0.0102264 0)
(0.00581511 0.0103015 0)
(0.00584509 0.0103662 0)
(0.00586727 0.0104215 0)
(0.00589345 0.0104682 0)
(0.00591177 0.0105072 0)
(0.00592892 0.0105393 0)
(0.0059445 0.0105656 0)
(0.00595562 0.0105872 0)
(0.00596571 0.0106049 0)
(0.00569413 0.0102571 0)
(0.00574 0.0103792 0)
(0.00579264 0.010489 0)
(0.00583867 0.0105881 0)
(0.00586874 0.0106767 0)
(0.00590552 0.0107541 0)
(0.00593509 0.0108208 0)
(0.00595685 0.0108778 0)
(0.00598274 0.0109258 0)
(0.00600072 0.0109656 0)
(0.00601756 0.0109984 0)
(0.00603284 0.011025 0)
(0.00604364 0.0110466 0)
(0.00605348 0.0110641 0)
(0.0057809 0.010694 0)
(0.00582669 0.0108217 0)
(0.00587979 0.0109378 0)
(0.005926 0.0110417 0)
(0.00595568 0.0111332 0)
(0.00599228 0.0112132 0)
(0.00602159 0.011282 0)
(0.00604304 0.0113408 0)
(0.00606872 0.0113901 0)
(0.00608641 0.0114309 0)
(0.006103 0.0114643 0)
(0.00611801 0.0114911 0)
(0.00612852 0.0115127 0)
(0.00613811 0.0115301 0)
(0.00586398 0.0111396 0)
(0.00590978 0.0112731 0)
(0.00596305 0.0113936 0)
(0.00600917 0.0115009 0)
(0.00603869 0.0115956 0)
(0.00607534 0.0116784 0)
(0.00610457 0.0117496 0)
(0.00612584 0.0118102 0)
(0.00615139 0.0118609 0)
(0.00616883 0.0119027 0)
(0.00618518 0.0119367 0)
(0.00619996 0.0119638 0)
(0.00621019 0.0119854 0)
(0.00621956 0.0120026 0)
(0.0059423 0.0115894 0)
(0.00598815 0.0117287 0)
(0.00604173 0.0118539 0)
(0.00608814 0.0119654 0)
(0.00611783 0.0120636 0)
(0.00615476 0.0121494 0)
(0.00618408 0.0122231 0)
(0.00620528 0.0122856 0)
(0.00623075 0.0123379 0)
(0.00624795 0.0123807 0)
(0.00626408 0.0124153 0)
(0.00627863 0.0124427 0)
(0.00628861 0.0124643 0)
(0.00629776 0.0124813 0)
(0.00601555 0.012043 0)
(0.00606175 0.0121882 0)
(0.00611605 0.0123187 0)
(0.00616312 0.0124346 0)
(0.00619323 0.0125367 0)
(0.0062306 0.0126257 0)
(0.00626009 0.012702 0)
(0.00628126 0.0127667 0)
(0.00630669 0.0128206 0)
(0.0063237 0.0128645 0)
(0.00633962 0.0128998 0)
(0.00635398 0.0129275 0)
(0.00636372 0.0129491 0)
(0.00637266 0.0129659 0)
(0.00608384 0.0125 0)
(0.0061309 0.0126514 0)
(0.00618631 0.0127874 0)
(0.00623426 0.0129081 0)
(0.00626486 0.0130143 0)
(0.00630267 0.0131068 0)
(0.00633238 0.0131861 0)
(0.00635362 0.0132531 0)
(0.00637909 0.0133087 0)
(0.00639599 0.0133539 0)
(0.00641177 0.01339 0)
(0.00642594 0.013418 0)
(0.00643546 0.0134396 0)
(0.00644421 0.0134561 0)
(0.00614773 0.0129596 0)
(0.00619603 0.0131176 0)
(0.00625263 0.0132594 0)
(0.00630138 0.0133852 0)
(0.00633243 0.013496 0)
(0.00637074 0.0135923 0)
(0.0064008 0.0136748 0)
(0.00642227 0.0137444 0)
(0.00644791 0.013802 0)
(0.00646478 0.0138485 0)
(0.00648047 0.0138854 0)
(0.00649449 0.0139138 0)
(0.00650381 0.0139354 0)
(0.00651236 0.0139517 0)
(0.00620757 0.0134212 0)
(0.00625702 0.0135861 0)
(0.00631458 0.0137341 0)
(0.00636405 0.0138655 0)
(0.0063957 0.0139812 0)
(0.00643476 0.0140817 0)
(0.00646539 0.0141677 0)
(0.00648722 0.0142401 0)
(0.00651313 0.0142998 0)
(0.00653004 0.0143479 0)
(0.00654568 0.0143858 0)
(0.00655958 0.0144147 0)
(0.0065687 0.0144363 0)
(0.00657707 0.0144523 0)
(0.00626285 0.0138839 0)
(0.00631314 0.0140561 0)
(0.00637169 0.0142107 0)
(0.00642226 0.0143482 0)
(0.0064549 0.0144691 0)
(0.00649493 0.0145742 0)
(0.00652619 0.0146641 0)
(0.00654841 0.0147397 0)
(0.00657462 0.0148019 0)
(0.00659165 0.0148518 0)
(0.00660731 0.0148907 0)
(0.00662114 0.0149202 0)
(0.00663009 0.0149419 0)
(0.0066383 0.0149577 0)
(0.00631267 0.0143466 0)
(0.00636407 0.0145267 0)
(0.0064243 0.0146884 0)
(0.00647644 0.0148323 0)
(0.00651017 0.0149591 0)
(0.00655104 0.0150692 0)
(0.0065829 0.0151635 0)
(0.00660563 0.0152427 0)
(0.0066323 0.0153077 0)
(0.00664957 0.0153597 0)
(0.00666533 0.0153999 0)
(0.00667914 0.0154301 0)
(0.00668795 0.0154519 0)
(0.006696 0.0154675 0)
(0.00635695 0.0148084 0)
(0.00641049 0.0149968 0)
(0.00647286 0.0151661 0)
(0.00652637 0.0153171 0)
(0.00656092 0.0154503 0)
(0.0066027 0.0155661 0)
(0.00663548 0.0156652 0)
(0.00665899 0.0157485 0)
(0.00668625 0.0158167 0)
(0.00670379 0.0158711 0)
(0.00671969 0.0159129 0)
(0.00673351 0.0159439 0)
(0.00674223 0.015966 0)
(0.00675015 0.0159813 0)
(0.00639664 0.0152678 0)
(0.00645262 0.0154651 0)
(0.00651659 0.0156426 0)
(0.00657117 0.0158014 0)
(0.00660689 0.0159417 0)
(0.00665022 0.0160637 0)
(0.00668424 0.0161684 0)
(0.0067085 0.0162563 0)
(0.00673627 0.0163283 0)
(0.00675415 0.0163855 0)
(0.00677031 0.0164293 0)
(0.00678423 0.0164613 0)
(0.00679291 0.0164837 0)
(0.00680072 0.0164989 0)
(0.00643174 0.0157233 0)
(0.00648928 0.0159301 0)
(0.00655458 0.0161167 0)
(0.00661098 0.0162839 0)
(0.00664882 0.0164319 0)
(0.00669388 0.0165609 0)
(0.00672875 0.016672 0)
(0.00675362 0.0167654 0)
(0.00678219 0.0168418 0)
(0.00680072 0.0169024 0)
(0.00681727 0.0169485 0)
(0.00683135 0.0169819 0)
(0.00684 0.0170048 0)
(0.0068477 0.0170198 0)
(0.00646088 0.0161733 0)
(0.0065197 0.0163904 0)
(0.00658735 0.0165866 0)
(0.00664669 0.0167629 0)
(0.00668662 0.0169196 0)
(0.00673263 0.0170567 0)
(0.00676829 0.017175 0)
(0.00679458 0.0172746 0)
(0.00682445 0.0173562 0)
(0.00684364 0.017421 0)
(0.00686052 0.0174701 0)
(0.00687478 0.0175053 0)
(0.00688345 0.0175289 0)
(0.00689108 0.0175438 0)
(0.00648323 0.016616 0)
(0.00654445 0.0168439 0)
(0.00661578 0.0170504 0)
(0.00667791 0.0172367 0)
(0.00671875 0.0174032 0)
(0.00676576 0.0175493 0)
(0.0068038 0.0176758 0)
(0.00683202 0.0177828 0)
(0.00686273 0.0178707 0)
(0.00688239 0.0179407 0)
(0.0068998 0.0179934 0)
(0.00691449 0.0180309 0)
(0.00692328 0.0180556 0)
(0.00693085 0.0180705 0)
(0.00649901 0.0170491 0)
(0.00656443 0.0172882 0)
(0.00663948 0.0175058 0)
(0.00670271 0.0177034 0)
(0.00674442 0.0178805 0)
(0.00679494 0.0180366 0)
(0.00683568 0.0181727 0)
(0.00686454 0.0182884 0)
(0.00689602 0.018384 0)
(0.00691683 0.0184602 0)
(0.0069354 0.0185176 0)
(0.0069506 0.0185582 0)
(0.00695947 0.0185844 0)
(0.00696702 0.0185996 0)
(0.0065093 0.0174698 0)
(0.00657954 0.017721 0)
(0.00665616 0.0179507 0)
(0.00672001 0.0181601 0)
(0.00676593 0.0183489 0)
(0.00682016 0.0185163 0)
(0.00686131 0.0186635 0)
(0.00689133 0.0187896 0)
(0.00692493 0.0188943 0)
(0.00694774 0.0189783 0)
(0.00696725 0.0190418 0)
(0.00698275 0.0190866 0)
(0.00699195 0.019115 0)
(0.00699962 0.0191307 0)
(0.00651445 0.0178756 0)
(0.00658719 0.0181393 0)
(0.00666434 0.0183817 0)
(0.00673264 0.0186039 0)
(0.00678308 0.0188054 0)
(0.00683787 0.0189855 0)
(0.00688068 0.0191454 0)
(0.00691364 0.0192834 0)
(0.00694991 0.0193992 0)
(0.00697414 0.0194931 0)
(0.00699422 0.0195647 0)
(0.00701086 0.0196152 0)
(0.00702086 0.0196467 0)
(0.00702866 0.0196634 0)
(0.00651228 0.0182633 0)
(0.00658577 0.0185401 0)
(0.00666667 0.0187956 0)
(0.0067401 0.019031 0)
(0.00679207 0.0192462 0)
(0.00684889 0.0194406 0)
(0.00689484 0.0196145 0)
(0.00693089 0.0197663 0)
(0.00696935 0.0198957 0)
(0.00699447 0.0200022 0)
(0.00701681 0.0200842 0)
(0.00703547 0.0201426 0)
(0.00704617 0.020179 0)
(0.00705412 0.0201974 0)
(0.00650125 0.0186297 0)
(0.00657675 0.0189197 0)
(0.00666244 0.0191881 0)
(0.00673969 0.0194373 0)
(0.00679394 0.0196674 0)
(0.006853 0.0198766 0)
(0.00690264 0.020066 0)
(0.006942 0.020234 0)
(0.00698155 0.0203795 0)
(0.00700969 0.0205013 0)
(0.00703541 0.0205973 0)
(0.00705561 0.020667 0)
(0.00706733 0.0207108 0)
(0.00707608 0.0207323 0)
(0.0064812 0.0189716 0)
(0.00655963 0.019274 0)
(0.00665115 0.0195553 0)
(0.00673176 0.0198187 0)
(0.00678655 0.0200634 0)
(0.0068499 0.0202881 0)
(0.00690426 0.0204944 0)
(0.00694432 0.0206802 0)
(0.00698697 0.0208441 0)
(0.00701952 0.0209849 0)
(0.00704748 0.0210992 0)
(0.00707001 0.021185 0)
(0.00708449 0.0212404 0)
(0.00709459 0.0212674 0)
(0.00645169 0.019285 0)
(0.00653548 0.0195992 0)
(0.00663205 0.019893 0)
(0.00671302 0.0201697 0)
(0.00677157 0.0204288 0)
(0.00684048 0.020669 0)
(0.00689536 0.0208924 0)
(0.00693798 0.0210969 0)
(0.00698551 0.0212813 0)
(0.00702054 0.0214443 0)
(0.00705143 0.0215817 0)
(0.00707881 0.0216899 0)
(0.00709709 0.021764 0)
(0.00710929 0.0218018 0)
(0.00641374 0.0195667 0)
(0.00650317 0.0198915 0)
(0.00660265 0.0201965 0)
(0.00668601 0.0204856 0)
(0.00674903 0.0207576 0)
(0.00682006 0.0210123 0)
(0.00687686 0.021252 0)
(0.00692338 0.0214746 0)
(0.00697355 0.0216799 0)
(0.00701073 0.0218669 0)
(0.00704643 0.0220316 0)
(0.00707877 0.0221697 0)
(0.00710192 0.0222731 0)
(0.00711936 0.0223322 0)
(0.00636646 0.0198136 0)
(0.0064618 0.0201473 0)
(0.00656412 0.020462 0)
(0.00664938 0.0207612 0)
(0.00671669 0.0210443 0)
(0.00679021 0.0213113 0)
(0.0068483 0.0215647 0)