/*--------------------------------*- C++ -*----------------------------------*\
| =========                 |                                                 |
| \\      /  F ield         | OpenFOAM Extend Project: Open source CFD        |
|  \\    /   O peration     | Version:  1.6-ext                               |
|   \\  /    A nd           | Web:      www.extend-project.de                 |
|    \\/     M anipulation  |                                                 |
\*---------------------------------------------------------------------------*/
FoamFile
{
    version     2.0;
    format      ascii;
    class       volScalarField;
    location    "0.7";
    object      p;
}
// * * * * * * * * * * * * * * * * * * * * * * * * * * * * * * * * * * * * * //

dimensions      [0 2 -2 0 0 0 0];

internalField   nonuniform List<scalar> 
20940
(
-0.135854
-0.178999
-0.22429
-0.27199
-0.321542
-0.373012
-0.425895
-0.479714
-0.533609
-0.586473
-0.636952
-0.683655
-0.725396
-0.761443
-0.791642
-0.816395
-0.836499
-0.852941
-0.866634
-0.878343
-0.889581
-0.90151
-0.16393
-0.205893
-0.250174
-0.296252
-0.343895
-0.392935
-0.442841
-0.493005
-0.54249
-0.590178
-0.634842
-0.675375
-0.711002
-0.741425
-0.766848
-0.787862
-0.805279
-0.819951
-0.832579
-0.843695
-0.854559
-0.866138
-0.188395
-0.228953
-0.271936
-0.31614
-0.36161
-0.407937
-0.454562
-0.500761
-0.54557
-0.587934
-0.62684
-0.66152
-0.691596
-0.717135
-0.738573
-0.756577
-0.771882
-0.785169
-0.796931
-0.807493
-0.817883
-0.828895
-0.211511
-0.250459
-0.291877
-0.333944
-0.376941
-0.42022
-0.463204
-0.505086
-0.54494
-0.581866
-0.615132
-0.644332
-0.669443
-0.690792
-0.708934
-0.724507
-0.738117
-0.750262
-0.761252
-0.771248
-0.781089
-0.791443
-0.232952
-0.270194
-0.309888
-0.349657
-0.389981
-0.429977
-0.469071
-0.506423
-0.541232
-0.572822
-0.600789
-0.625066
-0.645903
-0.663776
-0.679255
-0.692885
-0.705118
-0.716284
-0.726542
-0.735938
-0.745156
-0.754776
-0.252998
-0.288474
-0.326311
-0.363632
-0.401086
-0.437578
-0.472582
-0.505301
-0.535136
-0.561691
-0.584881
-0.604912
-0.622205
-0.637281
-0.650646
-0.66272
-0.673803
-0.684086
-0.69362
-0.702367
-0.710893
-0.719713
-0.271802
-0.305458
-0.341319
-0.376064
-0.410486
-0.443319
-0.474146
-0.502287
-0.527405
-0.549397
-0.568447
-0.584946
-0.599384
-0.612243
-0.623926
-0.634721
-0.644801
-0.654249
-0.663042
-0.671094
-0.678873
-0.686846
-0.289633
-0.321515
-0.35533
-0.387391
-0.418629
-0.447684
-0.474325
-0.49806
-0.518845
-0.536834
-0.552408
-0.566041
-0.578207
-0.589306
-0.599622
-0.609324
-0.618488
-0.627119
-0.635152
-0.642473
-0.649469
-0.656573
-0.306439
-0.336487
-0.368134
-0.397417
-0.425397
-0.4507
-0.473332
-0.493026
-0.510012
-0.524638
-0.537391
-0.54875
-0.559124
-0.568806
-0.577976
-0.586711
-0.595011
-0.602838
-0.6101
-0.616673
-0.622874
-0.629106
-0.32255
-0.350884
-0.380332
-0.40676
-0.431412
-0.453009
-0.471847
-0.487897
-0.50161
-0.513448
-0.523924
-0.533464
-0.542385
-0.550885
-0.559052
-0.566895
-0.574368
-0.581401
-0.587894
-0.593721
-0.59914
-0.604522
-0.337422
-0.363864
-0.390936
-0.414531
-0.435993
-0.454214
-0.469738
-0.482736
-0.493799
-0.503433
-0.512121
-0.520218
-0.527953
-0.535444
-0.542714
-0.549727
-0.556409
-0.562674
-0.56842
-0.573527
-0.578196
-0.582771
-0.351796
-0.376558
-0.401336
-0.422106
-0.440436
-0.455486
-0.468025
-0.478391
-0.487234
-0.49505
-0.502258
-0.509132
-0.515828
-0.522399
-0.528827
-0.535046
-0.540965
-0.546491
-0.551522
-0.555944
-0.559914
-0.563741
-0.363659
-0.386523
-0.408749
-0.427084
-0.442797
-0.455397
-0.465693
-0.474132
-0.481355
-0.487824
-0.493897
-0.499789
-0.505605
-0.511363
-0.517022
-0.522503
-0.527708
-0.532543
-0.536912
-0.540708
-0.544045
-0.547203
-0.376276
-0.397355
-0.417338
-0.433236
-0.446392
-0.456673
-0.464903
-0.471608
-0.477379
-0.482629
-0.48765
-0.492603
-0.497555
-0.502499
-0.507381
-0.512116
-0.516606
-0.520757
-0.524478
-0.527675
-0.530427
-0.532987
-0.381423
-0.402381
-0.419565
-0.434138
-0.445763
-0.454909
-0.462128
-0.467981
-0.47298
-0.477505
-0.481817
-0.486068
-0.490322
-0.49458
-0.498795
-0.502891
-0.506777
-0.51036
-0.513556
-0.516272
-0.518556
-0.520625
-0.396809
-0.414539
-0.428787
-0.440918
-0.450233
-0.457436
-0.463032
-0.467562
-0.471467
-0.475056
-0.478531
-0.481998
-0.485495
-0.48901
-0.492493
-0.495876
-0.499076
-0.502013
-0.504611
-0.506797
-0.508597
-0.510182
-0.417758
-0.431497
-0.440911
-0.44916
-0.455263
-0.460203
-0.46421
-0.467669
-0.470799
-0.473764
-0.476656
-0.479523
-0.482375
-0.485193
-0.487939
-0.49056
-0.492995
-0.495189
-0.497092
-0.498658
-0.499921
-0.501013
-0.427522
-0.439259
-0.445955
-0.452499
-0.457104
-0.461044
-0.464255
-0.467084
-0.469647
-0.472063
-0.474394
-0.476678
-0.478922
-0.481116
-0.483231
-0.485228
-0.487063
-0.488694
-0.490085
-0.491207
-0.492082
-0.492801
-0.434574
-0.444639
-0.449294
-0.454583
-0.458073
-0.46126
-0.463852
-0.466175
-0.468272
-0.47023
-0.472093
-0.473885
-0.475617
-0.477281
-0.478861
-0.480327
-0.48165
-0.4828
-0.483752
-0.48449
-0.48503
-0.48543
-0.438492
-0.447082
-0.450626
-0.455097
-0.457952
-0.460656
-0.462836
-0.464784
-0.466514
-0.468097
-0.469567
-0.47095
-0.472257
-0.473487
-0.474629
-0.475664
-0.476571
-0.477328
-0.47792
-0.478339
-0.478588
-0.478703
-0.440429
-0.447672
-0.450734
-0.454577
-0.457061
-0.459409
-0.461296
-0.462959
-0.464406
-0.465698
-0.466865
-0.46793
-0.468905
-0.469794
-0.47059
-0.471281
-0.471851
-0.472285
-0.472574
-0.472715
-0.472696
-0.472535
-0.440714
-0.446808
-0.449764
-0.45315
-0.455454
-0.45757
-0.459277
-0.460752
-0.462011
-0.463103
-0.464057
-0.464895
-0.465629
-0.466264
-0.466798
-0.467222
-0.467525
-0.467695
-0.467727
-0.467623
-0.467353
-0.466914
-0.439731
-0.444965
-0.447986
-0.451083
-0.453335
-0.455332
-0.456957
-0.458337
-0.459496
-0.460474
-0.461299
-0.461991
-0.462564
-0.463023
-0.463366
-0.463589
-0.463683
-0.463639
-0.463454
-0.463134
-0.462628
-0.461916
-0.437868
-0.442545
-0.445699
-0.448666
-0.450956
-0.452938
-0.454568
-0.455936
-0.457071
-0.45801
-0.458778
-0.459395
-0.459872
-0.460216
-0.460429
-0.460507
-0.460442
-0.460229
-0.459866
-0.459361
-0.458642
-0.457674
-0.435558
-0.439946
-0.443257
-0.446223
-0.448619
-0.450666
-0.452367
-0.453787
-0.45496
-0.455917
-0.456683
-0.457277
-0.45771
-0.457991
-0.458122
-0.4581
-0.457923
-0.457584
-0.457085
-0.456434
-0.455541
-0.454355
-0.433255
-0.437559
-0.441038
-0.444091
-0.44663
-0.448795
-0.450608
-0.452122
-0.453371
-0.454385
-0.455186
-0.455794
-0.456221
-0.456476
-0.456563
-0.456483
-0.456235
-0.455815
-0.455228
-0.454481
-0.453472
-0.452135
-0.431247
-0.435606
-0.439256
-0.442444
-0.445145
-0.447453
-0.4494
-0.451032
-0.452381
-0.453475
-0.454338
-0.454988
-0.455437
-0.455695
-0.455771
-0.455668
-0.45539
-0.454937
-0.454316
-0.453539
-0.452494
-0.451107
-0.429906
-0.434396
-0.438208
-0.441549
-0.444407
-0.44686
-0.448943
-0.450697
-0.452155
-0.453343
-0.454284
-0.454993
-0.455486
-0.455773
-0.455863
-0.455766
-0.455491
-0.455046
-0.454446
-0.453707
-0.452727
-0.45143
-0.42903
-0.433665
-0.437604
-0.441072
-0.444059
-0.446634
-0.448834
-0.450698
-0.452258
-0.453539
-0.454561
-0.455339
-0.455886
-0.456213
-0.456331
-0.456254
-0.456001
-0.455593
-0.455057
-0.454429
-0.453647
-0.45264
-0.429188
-0.433969
-0.438062
-0.44168
-0.444818
-0.44754
-0.449887
-0.451899
-0.45361
-0.455045
-0.456223
-0.457153
-0.457841
-0.458288
-0.458496
-0.458471
-0.458227
-0.457791
-0.457214
-0.456572
-0.455938
-0.455383
1.22862
1.27947
1.33025
1.38086
1.43089
1.47992
1.52757
1.57342
1.6171
1.65822
1.69643
1.73138
1.76278
1.7904
1.81412
1.834
1.85037
1.86394
1.87568
1.88682
1.90022
1.91778
1.22035
1.27088
1.32102
1.37098
1.42032
1.46862
1.51551
1.56057
1.60343
1.64371
1.68106
1.71514
1.74567
1.77242
1.79528
1.81433
1.82994
1.84286
1.85408
1.86487
1.87808
1.89559
1.20007
1.2499
1.29874
1.34744
1.39548
1.44242
1.4879
1.53151
1.57288
1.61164
1.64743
1.67992
1.70883
1.73395
1.75519
1.77266
1.78679
1.79841
1.80861
1.81871
1.83156
1.84892
1.171
1.21977
1.26664
1.31341
1.35942
1.40425
1.44753
1.48888
1.52792
1.56428
1.59763
1.62764
1.65403
1.67661
1.69532
1.71034
1.72219
1.73181
1.74042
1.74943
1.76168
1.77879
1.13247
1.17982
1.22412
1.26837
1.31176
1.35384
1.39429
1.4327
1.46872
1.50198
1.53215
1.55891
1.582
1.60125
1.61664
1.62843
1.63726
1.64422
1.65071
1.65826
1.66968
1.68642
1.08621
1.13178
1.17293
1.2141
1.25427
1.29299
1.32994
1.36475
1.39705
1.42649
1.45275
1.47551
1.49453
1.50967
1.52095
1.52873
1.53379
1.53743
1.54126
1.54694
1.5573
1.57352
1.03316
1.07661
1.11411
1.15173
1.18817
1.223
1.25593
1.28657
1.31456
1.33957
1.36127
1.37937
1.39363
1.40393
1.41037
1.41341
1.414
1.41367
1.41428
1.4177
1.42671
1.44223
0.97507
1.01607
1.04948
1.08314
1.1154
1.14588
1.17427
1.2002
1.22334
1.24333
1.25988
1.27269
1.28154
1.28634
1.28724
1.28482
1.28025
1.27531
1.27216
1.27289
1.28024
1.29484
0.913454
0.951658
0.980669
1.01005
1.03782
1.06359
1.08708
1.10793
1.1258
1.14034
1.15126
1.15826
1.16115
1.15986
1.15459
1.14607
1.13566
1.12547
1.11798
1.11555
1.12089
1.13428
0.85028
0.885399
0.909784
0.934641
0.957605
0.97834
0.996591
1.01198
1.02416
1.03282
1.03765
1.03837
1.03478
1.02683
1.01482
0.999575
0.982706
0.966652
0.954282
0.948235
0.951207
0.963063
0.786934
0.818633
0.838331
0.858593
0.876679
0.892305
0.905212
0.915015
0.921373
0.923957
0.922458
0.916601
0.906185
0.891182
0.871931
0.849405
0.825461
0.802902
0.785031
0.774835
0.77498
0.784915
0.725619
0.753606
0.768566
0.784068
0.797085
0.807389
0.81471
0.818658
0.818894
0.815087
0.806929
0.794146
0.776541
0.754101
0.727217
0.69699
0.665531
0.63602
0.612216
0.597487
0.594447
0.602043
0.666699
0.690632
0.70128
0.712295
0.72054
0.725823
0.727848
0.726214
0.720563
0.710552
0.695854
0.676178
0.65131
0.621232
0.586368
0.547943
0.508335
0.471159
0.440717
0.420838
0.414105
0.418899
0.613443
0.632344
0.638595
0.644887
0.648143
0.648154
0.644598
0.637067
0.625201
0.608652
0.587095
0.560243
0.52789
0.490039
0.447162
0.400609
0.353008
0.308361
0.271442
0.246482
0.235922
0.237435
0.56365
0.57745
0.580715
0.582943
0.582048
0.577678
0.569441
0.556908
0.539681
0.517372
0.489611
0.456062
0.416466
0.370776
0.319452
0.263931
0.20713
0.153615
0.108934
0.078027
0.0633616
0.0616539
0.525889
0.52794
0.528219
0.526143
0.520284
0.510637
0.49674
0.47819
0.454594
0.425567
0.390747
0.349813
0.302551
0.249011
0.189838
0.126761
0.0630829
0.00374133
-0.0454904
-0.0796913
-0.096938
-0.1013
0.486029
0.478412
0.473725
0.46443
0.451238
0.433921
0.412017
0.385208
0.353157
0.315551
0.272115
0.22265
0.167136
0.105941
0.0401747
-0.0278974
-0.0945934
-0.155045
-0.204146
-0.238043
-0.256084
-0.263053
0.438635
0.424102
0.414622
0.398832
0.37942
0.355493
0.326746
0.292901
0.253662
0.208785
0.158073
0.101446
0.0390652
-0.0284201
-0.0995193
-0.171557
-0.240584
-0.301815
-0.35068
-0.384194
-0.40285
-0.412062
0.388439
0.368115
0.353413
0.331361
0.305952
0.275705
0.240567
0.200255
0.154528
0.103197
0.0461417
-0.0166027
-0.0846832
-0.157157
-0.232158
-0.306654
-0.37653
-0.437225
-0.48481
-0.517204
-0.535914
-0.546683
0.33626
0.310852
0.290884
0.263064
0.232046
0.195965
0.154998
0.108848
0.0573381
0.000341951
-0.0621695
-0.130016
-0.202616
-0.278703
-0.356045
-0.431331
-0.500444
-0.559228
-0.604531
-0.635188
-0.65354
-0.665384
0.283185
0.253341
0.228308
0.195321
0.159219
0.117958
0.0718903
0.0207055
-0.0357014
-0.0973922
-0.164291
-0.23605
-0.311834
-0.390054
-0.468162
-0.542687
-0.609674
-0.665524
-0.707907
-0.736503
-0.754271
-0.766858
0.230398
0.196731
0.166996
0.129492
0.0889075
0.0431893
-0.00719934
-0.0625611
-0.12293
-0.188296
-0.258461
-0.332887
-0.410474
-0.48933
-0.566671
-0.639006
-0.702704
-0.754825
-0.793868
-0.820231
-0.837288
-0.850371
0.178713
0.141827
0.107888
0.0665652
0.0221823
-0.0272037
-0.081072
-0.139699
-0.20305
-0.271027
-0.343292
-0.4191
-0.497086
-0.5751
-0.650226
-0.719104
-0.778564
-0.826398
-0.861872
-0.885962
-0.902256
-0.91566
0.12913
0.0896214
0.0520614
0.00763266
-0.0398277
-0.0920751
-0.14857
-0.209545
-0.27489
-0.34441
-0.417605
-0.493514
-0.570525
-0.6463
-0.717914
-0.782285
-0.836818
-0.880041
-0.911903
-0.933787
-0.949327
-0.962923
0.081969
0.0404223
-0.000117756
-0.0469254
-0.0967071
-0.150989
-0.209236
-0.271624
-0.337961
-0.407937
-0.480878
-0.555607
-0.630308
-0.702546
-0.769522
-0.828564
-0.877717
-0.916216
-0.944559
-0.964377
-0.9792
-0.992883
0.0380165
-0.00500385
-0.0478625
-0.0963489
-0.147719
-0.20325
-0.262424
-0.325342
-0.391723
-0.461123
-0.532686
-0.605036
-0.676213
-0.743798
-0.805251
-0.858413
-0.901993
-0.935851
-0.960892
-0.978838
-0.992998
-1.00667
-0.00309717
-0.0470654
-0.0915863
-0.141069
-0.1933
-0.249303
-0.308583
-0.371149
-0.436623
-0.50441
-0.573478
-0.642288
-0.708823
-0.770802
-0.826068
-0.873042
-0.911066
-0.940512
-0.962536
-0.978819
-0.99236
-1.00592
-0.0405996
-0.0850121
-0.130563
-0.18042
-0.232856
-0.288645
-0.347305
-0.408745
-0.472468
-0.537725
-0.60332
-0.667613
-0.728628
-0.784345
-0.833083
-0.87386
-0.906582
-0.93199
-0.951346
-0.966183
-0.979137
-0.992465
-0.0757027
-0.120127
-0.16613
-0.215781
-0.267794
-0.322701
-0.380025
-0.439555
-0.500669
-0.562465
-0.623625
-0.682488
-0.737239
-0.786233
-0.828325
-0.863099
-0.890908
-0.912716
-0.929756
-0.943334
-0.955697
-0.968649
-0.10703
-0.151045
-0.196964
-0.245897
-0.29695
-0.350415
-0.405808
-0.462784
-0.520595
-0.578208
-0.634241
-0.687111
-0.735275
-0.777532
-0.813269
-0.842549
-0.866029
-0.884746
-0.899804
-0.912245
-0.923918
-0.936232
-0.0898906
-0.134213
-0.180554
-0.229982
-0.28162
-0.335728
-0.391812
-0.449496
-0.507998
-0.566241
-0.622807
-0.67608
-0.724506
-0.76689
-0.80264
-0.831845
-0.855186
-0.873723
-0.888577
-0.900801
-0.912235
-0.924278
-0.0583359
-0.10308
-0.149509
-0.199632
-0.252198
-0.307704
-0.36567
-0.425856
-0.487612
-0.549993
-0.611639
-0.670854
-0.725807
-0.774857
-0.816882
-0.851505
-0.879111
-0.900688
-0.917488
-0.930826
-0.942929
-0.955585
-0.0232228
-0.0679636
-0.113949
-0.164259
-0.217221
-0.273567
-0.33282
-0.394865
-0.459179
-0.524975
-0.591014
-0.655613
-0.716773
-0.772474
-0.821061
-0.861597
-0.894032
-0.919144
-0.938215
-0.952787
-0.965466
-0.978479
0.0140181
-0.0302868
-0.0752593
-0.125181
-0.177916
-0.23444
-0.294268
-0.35739
-0.423407
-0.491687
-0.561157
-0.630233
-0.696865
-0.758763
-0.813796
-0.860434
-0.898077
-0.927147
-0.94883
-0.964817
-0.978071
-0.991308
0.0545935
0.0112311
-0.0321042
-0.0810227
-0.132881
-0.188904
-0.24859
-0.312021
-0.378903
-0.448758
-0.520692
-0.59328
-0.664522
-0.731981
-0.793134
-0.845873
-0.888976
-0.922371
-0.947005
-0.964621
-0.978484
-0.99184
0.0977232
0.0558282
0.0147776
-0.0324642
-0.0827288
-0.137485
-0.196218
-0.259087
-0.325892
-0.396294
-0.469585
-0.54454
-0.619295
-0.691386
-0.758019
-0.81657
-0.86516
-0.903109
-0.930977
-0.950424
-0.964942
-0.978319
0.14379
0.103925
0.0658136
0.0209389
-0.027009
-0.0797262
-0.136693
-0.198132
-0.263924
-0.333855
-0.407394
-0.483533
-0.56061
-0.636246
-0.707508
-0.771351
-0.825257
-0.867853
-0.899173
-0.920644
-0.935873
-0.949184
0.192036
0.154782
0.120243
0.0784501
0.0335638
-0.0163012
-0.0706423
-0.129731
-0.193524
-0.261913
-0.334531
-0.410592
-0.48868
-0.566595
-0.641396
-0.709746
-0.768548
-0.815699
-0.850572
-0.874211
-0.890191
-0.903339
0.242184
0.208128
0.17774
0.13973
0.0986156
0.0523952
0.00151713
-0.0543193
-0.115145
-0.180939
-0.251483
-0.326203
-0.40395
-0.482776
-0.559859
-0.63171
-0.694759
-0.746173
-0.784576
-0.810456
-0.827201
-0.840065
0.293291
0.263026
0.237285
0.203742
0.167074
0.125274
0.0786844
0.0269948
-0.0298983
-0.092051
-0.159372
-0.231484
-0.307507
-0.385794
-0.463745
-0.537875
-0.604269
-0.659428
-0.701156
-0.729254
-0.746719
-0.759134
0.344606
0.318726
0.297997
0.26956
0.23793
0.201261
0.159728
0.113028
0.0609856
0.00347774
-0.0595146
-0.127789
-0.200723
-0.276996
-0.354317
-0.429338
-0.49796
-0.556115
-0.600785
-0.630947
-0.649016
-0.660746
0.395017
0.374152
0.358641
0.335902
0.309826
0.278934
0.243173
0.202254
0.155935
0.104028
0.0464182
-0.0168419
-0.085367
-0.158164
-0.233304
-0.307701
-0.377237
-0.437412
-0.484427
-0.516356
-0.534819
-0.545543
0.443497
0.428324
0.418001
0.401447
0.38131
0.356675
0.32724
0.29272
0.252818
0.207287
0.155936
0.0986948
0.0357496
-0.0322056
-0.103619
-0.175752
-0.244625
-0.305491
-0.353892
-0.387002
-0.405465
-0.414715
0.489286
0.480857
0.4753
0.465166
0.451187
0.433103
0.410445
0.382894
0.350107
0.31177
0.267608
0.217428
0.161229
0.0994149
0.0331525
-0.0352246
-0.101984
-0.162264
-0.211048
-0.244636
-0.262555
-0.269661
0.527981
0.529024
0.528409
0.525431
0.518706
0.508216
0.493487
0.474112
0.449692
0.419839
0.384189
0.342425
0.294341
0.240015
0.180139
0.116515
0.052514
-0.00689661
-0.0560021
-0.0900245
-0.107243
-0.111848
0.564046
0.576628
0.578986
0.580324
0.578535
0.573288
0.564176
0.550767
0.532656
0.509453
0.480787
0.446321
0.405806
0.359217
0.307058
0.250834
0.193536
0.139767
0.095039
0.0641716
0.0494314
0.0473889
0.61173
0.629352
0.634703
0.640096
0.642435
0.641547
0.637085
0.628641
0.615849
0.59836
0.575846
0.548021
0.51469
0.475873
0.432085
0.384737
0.336521
0.291476
0.254352
0.229288
0.218547
0.219655
0.663124
0.68581
0.695548
0.705663
0.712979
0.717341
0.718433
0.71585
0.709233
0.698234
0.682527
0.661822
0.635912
0.604799
0.568944
0.529629
0.489291
0.451585
0.4208
0.400695
0.39369
0.398023
0.720258
0.747049
0.761094
0.775699
0.787784
0.797159
0.803534
0.806518
0.805766
0.800947
0.791752
0.777908
0.759226
0.735712
0.707788
0.676608
0.644337
0.614194
0.589939
0.574885
0.571507
0.578611
0.780084
0.810686
0.829481
0.848861
0.866025
0.880725
0.892685
0.901517
0.906879
0.908439
0.905888
0.898953
0.88744
0.871337
0.851015
0.827489
0.802671
0.779403
0.760996
0.750401
0.750162
0.759595
0.842243
0.876362
0.899862
0.923859
0.945924
0.965751
0.983071
0.997502
1.0087
1.01635
1.02013
1.01978
1.0151
1.00606
0.992974
0.976714
0.958941
0.942132
0.929173
0.922681
0.925245
0.936608
0.904626
0.94194
0.970106
0.998668
1.02558
1.05047
1.07307
1.09299
1.1099
1.12346
1.13337
1.13933
1.14116
1.13879
1.13247
1.12295
1.11163
1.10067
1.09257
1.08966
1.0946
1.10751
0.965867
1.00608
1.0387
1.07158
1.10305
1.1327
1.16024
1.1853
1.20754
1.2266
1.24219
1.25401
1.26185
1.26564
1.26553
1.26215
1.2567
1.251
1.24724
1.24749
1.25445
1.26861
1.02403
1.06681
1.10358
1.14049
1.1762
1.21028
1.24243
1.27226
1.29942
1.32357
1.34439
1.36158
1.37491
1.38428
1.38979
1.39192
1.39168
1.39064
1.39066
1.39363
1.40226
1.41739
1.07758
1.12259
1.1631
1.20364
1.24316
1.28121
1.31747
1.35157
1.38313
1.4118
1.43727
1.45922
1.47742
1.49171
1.50216
1.50913
1.51345
1.51643
1.51972
1.52499
1.53501
1.5509
1.12477
1.17166
1.21542
1.25914
1.30197
1.34349
1.38334
1.42115
1.45653
1.48914
1.51864
1.5447
1.56709
1.58562
1.6003
1.61139
1.61957
1.62596
1.63198
1.63917
1.65031
1.66676
1.16459
1.21301
1.25945
1.30579
1.35135
1.39572
1.43853
1.47939
1.51792
1.55376
1.58657
1.61601
1.64184
1.66384
1.68197
1.69643
1.70776
1.71691
1.72514
1.73386
1.74588
1.76276
1.19527
1.24484
1.29337
1.34176
1.38947
1.43607
1.4812
1.52446
1.56546
1.60383
1.63922
1.67131
1.6998
1.72449
1.74531
1.76236
1.77611
1.78739
1.7973
1.80718
1.81986
1.83706
1.21737
1.26775
1.3177
1.36747
1.41661
1.46471
1.51138
1.55623
1.59886
1.63891
1.67601
1.70985
1.74012
1.76661
1.78921
1.80801
1.82338
1.83608
1.84713
1.85778
1.8709
1.88831
1.22761
1.27841
1.32912
1.37968
1.42964
1.4786
1.52618
1.57196
1.61556
1.6566
1.69472
1.72959
1.76091
1.78844
1.81207
1.83187
1.84816
1.86166
1.87334
1.88443
1.8978
1.91533
-0.119152
-0.14782
-0.172969
-0.196843
-0.219053
-0.239847
-0.259347
-0.277788
-0.29511
-0.311618
-0.326794
-0.341354
-0.353372
-0.366042
-0.371431
-0.386917
-0.408443
-0.418778
-0.426251
-0.430444
-0.432551
-0.432942
-0.432005
-0.430133
-0.427765
-0.425365
-0.423248
-0.421797
-0.420842
-0.420947
-0.162588
-0.190058
-0.213784
-0.236028
-0.256517
-0.275531
-0.2932
-0.309861
-0.325347
-0.340153
-0.353456
-0.366381
-0.376535
-0.387497
-0.392684
-0.405027
-0.422652
-0.430852
-0.436588
-0.439288
-0.440051
-0.439293
-0.437491
-0.435056
-0.432396
-0.429914
-0.427857
-0.426548
-0.425747
-0.426009
-0.208302
-0.23477
-0.257201
-0.277887
-0.296657
-0.31382
-0.329516
-0.344139
-0.357464
-0.370087
-0.38103
-0.391695
-0.399316
-0.408074
-0.410449
-0.419892
-0.432695
-0.438108
-0.441714
-0.443206
-0.443409
-0.442493
-0.440731
-0.438417
-0.435912
-0.433603
-0.431724
-0.430586
-0.429919
-0.430344
-0.256517
-0.281383
-0.301956
-0.320514
-0.336994
-0.351713
-0.364835
-0.376775
-0.387325
-0.397104
-0.405223
-0.413082
-0.418263
-0.424595
-0.425583
-0.432581
-0.441389
-0.444979
-0.447253
-0.447887
-0.447444
-0.44606
-0.444001
-0.441554
-0.43905
-0.436833
-0.435097
-0.434121
-0.433588
-0.434172
-0.306684
-0.329668
-0.348089
-0.364191
-0.378008
-0.389863
-0.399953
-0.40871
-0.416
-0.422451
-0.427373
-0.432094
-0.434636
-0.438393
-0.437796
-0.442452
-0.447914
-0.44992
-0.451012
-0.45096
-0.450112
-0.448526
-0.446402
-0.443988
-0.44159
-0.439522
-0.437955
-0.437146
-0.436748
-0.43749
-0.358837
-0.379424
-0.395158
-0.408229
-0.418773
-0.427124
-0.43355
-0.438519
-0.44204
-0.444764
-0.446281
-0.447795
-0.447841
-0.449236
-0.447447
-0.450107
-0.453161
-0.454089
-0.454377
-0.453814
-0.452596
-0.450769
-0.44852
-0.44609
-0.443758
-0.441813
-0.440397
-0.439741
-0.439471
-0.440365
-0.412454
-0.430097
-0.442575
-0.452019
-0.458675
-0.462931
-0.465165
-0.465923
-0.465402
-0.464289
-0.46244
-0.460913
-0.45866
-0.457933
-0.455087
-0.456064
-0.457409
-0.457488
-0.45712
-0.456124
-0.454599
-0.452583
-0.450247
-0.447819
-0.445561
-0.443733
-0.442458
-0.441944
-0.441798
-0.442843
-0.467023
-0.481041
-0.489576
-0.49471
-0.496834
-0.496442
-0.494069
-0.49038
-0.485765
-0.480946
-0.475978
-0.47175
-0.46751
-0.464993
-0.461259
-0.460861
-0.461041
-0.460455
-0.459557
-0.458173
-0.456354
-0.454145
-0.45171
-0.44927
-0.447067
-0.445338
-0.444186
-0.443802
-0.44377
-0.444967
-0.52165
-0.531282
-0.535156
-0.535339
-0.532405
-0.527012
-0.519881
-0.511802
-0.503322
-0.495156
-0.487469
-0.480954
-0.47504
-0.471022
-0.466492
-0.464957
-0.464301
-0.463127
-0.461746
-0.459987
-0.457879
-0.455476
-0.452939
-0.450475
-0.448311
-0.446663
-0.445616
-0.445346
-0.445422
-0.446773
-0.575181
-0.579659
-0.578222
-0.572962
-0.564675
-0.554209
-0.542461
-0.530314
-0.518401
-0.507375
-0.497418
-0.489027
-0.481725
-0.476452
-0.471183
-0.468683
-0.467364
-0.465629
-0.463781
-0.46164
-0.459236
-0.456629
-0.453975
-0.451472
-0.449329
-0.44774
-0.44678
-0.446608
-0.44678
-0.448289
-0.626229
-0.624911
-0.617726
-0.60682
-0.593207
-0.577921
-0.561976
-0.546287
-0.531485
-0.518119
-0.506323
-0.496409
-0.487944
-0.481595
-0.475614
-0.472257
-0.470334
-0.468032
-0.465708
-0.463171
-0.460458
-0.457635
-0.45485
-0.452289
-0.450145
-0.448596
-0.4477
-0.447611
-0.447868
-0.449535
-0.673375
-0.66591
-0.652881
-0.636484
-0.617919
-0.598342
-0.578811
-0.560196
-0.543065
-0.527832
-0.514557
-0.503394
-0.493933
-0.486632
-0.479951
-0.475799
-0.473266
-0.470377
-0.467558
-0.464607
-0.461572
-0.458517
-0.455584
-0.452947
-0.450781
-0.449248
-0.448398
-0.448373
-0.448701
-0.450523
-0.715425
-0.70187
-0.683301
-0.661928
-0.63906
-0.615898
-0.593464
-0.572532
-0.553568
-0.536853
-0.522372
-0.510156
-0.499811
-0.491643
-0.484271
-0.479356
-0.476175
-0.472677
-0.469342
-0.465961
-0.462591
-0.459291
-0.456194
-0.45346
-0.45125
-0.449713
-0.448887
-0.448909
-0.449294
-0.45126
-0.75165
-0.732499
-0.709054
-0.683481
-0.657113
-0.631121
-0.606436
-0.583714
-0.563312
-0.5454
-0.529903
-0.516766
-0.505612
-0.496633
-0.488583
-0.482924
-0.479046
-0.474922
-0.471055
-0.467236
-0.463519
-0.459962
-0.456685
-0.453835
-0.451562
-0.45
-0.449179
-0.449231
-0.449658
-0.451749
-0.781915
-0.758013
-0.730592
-0.701714
-0.672665
-0.644539
-0.618154
-0.59405
-0.572496
-0.55358
-0.53719
-0.523218
-0.511303
-0.501553
-0.492846
-0.486458
-0.481843
-0.477086
-0.47268
-0.468419
-0.464353
-0.460529
-0.457058
-0.454076
-0.451719
-0.450113
-0.449282
-0.44935
-0.449806
-0.451991
-0.806641
-0.779023
-0.7486
-0.717287
-0.686286
-0.656595
-0.628927
-0.603733
-0.581216
-0.561417
-0.544209
-0.529454
-0.516812
-0.506325
-0.496988
-0.489889
-0.484513
-0.479132
-0.474192
-0.469495
-0.46508
-0.460984
-0.457309
-0.454178
-0.451721
-0.450055
-0.449201
-0.449275
-0.449753
-0.451993
-0.826646
-0.796359
-0.763832
-0.730826
-0.69845
-0.667613
-0.638951
-0.612852
-0.589488
-0.568878
-0.550895
-0.53539
-0.522047
-0.510853
-0.500921
-0.493139
-0.486999
-0.481015
-0.475559
-0.470442
-0.465685
-0.461318
-0.45743
-0.454137
-0.451564
-0.449826
-0.44894
-0.449017
-0.449517
-0.451768
-0.842938
-0.810896
-0.776994
-0.742855
-0.70951
-0.677805
-0.648326
-0.621432
-0.597284
-0.575901
-0.557168
-0.540938
-0.526916
-0.515046
-0.504555
-0.496126
-0.489243
-0.482693
-0.476752
-0.471238
-0.466153
-0.461518
-0.457411
-0.453946
-0.451244
-0.449422
-0.448499
-0.448583
-0.449119
-0.451346
-0.856446
-0.823354
-0.788599
-0.753703
-0.719647
-0.687239
-0.657044
-0.629416
-0.604522
-0.582391
-0.56293
-0.545999
-0.531325
-0.518815
-0.507803
-0.498778
-0.491196
-0.484131
-0.477748
-0.471869
-0.466476
-0.46158
-0.457252
-0.453605
-0.450762
-0.448847
-0.447888
-0.447989
-0.448589
-0.450775
-0.867954
-0.834285
-0.798993
-0.763554
-0.728922
-0.695893
-0.665032
-0.6367
-0.611083
-0.588228
-0.568063
-0.55046
-0.535169
-0.522063
-0.510574
-0.501017
-0.492812
-0.485298
-0.478528
-0.472326
-0.466651
-0.461506
-0.456958
-0.45312
-0.450126
-0.44811
-0.447115
-0.447251
-0.447961
-0.450135
-0.878971
-0.844949
-0.809208
-0.77325
-0.738026
-0.704339
-0.672761
-0.643676
-0.61729
-0.593673
-0.572774
-0.554482
-0.538565
-0.524876
-0.512919
-0.502874
-0.494127
-0.486221
-0.479109
-0.472614
-0.466668
-0.461268
-0.45648
-0.452424
-0.449248
-0.447108
-0.446071
-0.446266
-0.447172
-0.449499
-0.890655
-0.856312
-0.820039
-0.78346
-0.747542
-0.713092
-0.680704
-0.65078
-0.623549
-0.599104
-0.577413
-0.558383
-0.541799
-0.527512
-0.515063
-0.504527
-0.495277
-0.486992
-0.479557
-0.472773
-0.466548
-0.460867
-0.4558
-0.451481
-0.44808
-0.445779
-0.444682
-0.444958
-0.44615
-0.448938
0.197471
0.197496
0.19753
0.197572
0.197613
0.197648
0.197668
0.197668
0.197637
0.197568
0.197451
0.197281
0.197051
0.196761
0.196411
0.196005
0.195549
0.19505
0.194519
0.193962
0.193391
0.192814
0.192241
0.191684
0.198104
0.198126
0.198171
0.198227
0.198286
0.198338
0.198374
0.198384
0.198359
0.198287
0.19816
0.19797
0.197711
0.197383
0.196987
0.196529
0.196014
0.195453
0.194855
0.194229
0.193585
0.192935
0.192287
0.191655
0.198708
0.198726
0.198783
0.198853
0.198931
0.199002
0.199055
0.199079
0.19906
0.198987
0.198849
0.198639
0.198351
0.197985
0.197543
0.197032
0.19646
0.195836
0.195171
0.194475
0.193759
0.193034
0.192311
0.191603
0.199273
0.199285
0.199354
0.199438
0.199537
0.199628
0.1997
0.199738
0.199727
0.199653
0.199505
0.199276
0.198959
0.198556
0.198069
0.197506
0.196876
0.196191
0.19546
0.194695
0.193908
0.193109
0.19231
0.191526
0.199787
0.199791
0.199872
0.199971
0.200091
0.200203
0.200296
0.200348
0.200346
0.200272
0.200115
0.199867
0.199522
0.199082
0.198551
0.197937
0.197252
0.196507
0.195713
0.194883
0.194026
0.193156
0.192283
0.191424
0.200238
0.200231
0.200324
0.200438
0.200579
0.200714
0.200827
0.200895
0.200902
0.200829
0.200663
0.200396
0.200024
0.199548
0.198974
0.198313
0.197576
0.196774
0.195921
0.195029
0.194107
0.19317
0.192227
0.191296
0.200612
0.200592
0.200698
0.200825
0.200988
0.201144
0.201278
0.201362
0.201378
0.201305
0.201131
0.200846
0.200447
0.199937
0.199324
0.198618
0.197832
0.196979
0.196072
0.195123
0.194143
0.193144
0.192137
0.191139
0.200896
0.200861
0.200977
0.201117
0.201302
0.201479
0.201633
0.201732
0.201756
0.201684
0.201501
0.201198
0.200774
0.200232
0.199582
0.198835
0.198006
0.197108
0.196153
0.195155
0.194124
0.193071
0.192007
0.19095
0.201075
0.201022
0.201149
0.2013
0.201504
0.201701
0.201874
0.201988
0.202019
0.201946
0.201754
0.201434
0.200985
0.200414
0.19973
0.198947
0.19808
0.197143
0.19615
0.195111
0.194038
0.192941
0.191831
0.190724
0.201136
0.201062
0.201198
0.201357
0.20158
0.201795
0.201985
0.20211
0.202148
0.202072
0.20187
0.201533
0.201062
0.200463
0.199749
0.198936
0.198038
0.19707
0.196047
0.194978
0.193874
0.192746
0.1916
0.190456
0.201064
0.200966
0.201109
0.201275
0.201514
0.201744
0.201949
0.202084
0.202124
0.202045
0.201831
0.201477
0.200984
0.20036
0.199621
0.198782
0.197861
0.196872
0.195828
0.194742
0.19362
0.192473
0.191308
0.19014
0.200845
0.200721
0.20087
0.201039
0.201291
0.201533
0.201749
0.20189
0.201931
0.201845
0.201619
0.201247
0.200733
0.200088
0.199328
0.19847
0.197532
0.196531
0.19548
0.194388
0.193263
0.192113
0.190943
0.189769
0.200466
0.200313
0.200466
0.200635
0.200896
0.201146
0.20137
0.201513
0.201551
0.201456
0.201216
0.200826
0.200293
0.199629
0.198853
0.197983
0.197038
0.196035
0.194987
0.193904
0.192791
0.191655
0.190499
0.189337
0.199915
0.199731
0.199885
0.20005
0.200318
0.200572
0.200798
0.20094
0.200971
0.200864
0.200608
0.2002
0.199649
0.19897
0.198182
0.197307
0.196364
0.195371
0.19434
0.19328
0.192196
0.191091
0.189968
0.188836
0.19918
0.198964
0.199116
0.199274
0.199544
0.199797
0.200022
0.200157
0.200178
0.200057
0.199783
0.199357
0.19879
0.198099
0.197306
0.196433
0.195502
0.19453
0.193529
0.192508
0.191469
0.190414
0.189343
0.188263
0.198252
0.198001
0.198149
0.198297
0.198564
0.198812
0.199031
0.199156
0.199162
0.199023
0.198731
0.198287
0.197706
0.197008
0.196216
0.195354
0.194445
0.193507
0.192551
0.191583
0.190607
0.189621
0.188621
0.187613
0.197122
0.196835
0.196977
0.197111
0.197371
0.197609
0.197817
0.197926
0.197915
0.197756
0.197445
0.196985
0.196393
0.195692
0.194909
0.194067
0.193192
0.192299
0.191402
0.190505
0.189608
0.188708
0.187799
0.186883
0.195783
0.19546
0.195592
0.195708
0.195958
0.196181
0.196374
0.196465
0.196433
0.196252
0.195922
0.195447
0.194849
0.194152
0.193385
0.192574
0.191743
0.190909
0.190085
0.189273
0.188472
0.187677
0.186878
0.186074
0.194229
0.193869
0.19399
0.194085
0.194321
0.194525
0.194698
0.194767
0.194713
0.19451
0.194161
0.193675
0.193076
0.192389
0.191647
0.190876
0.190102
0.189341
0.188604
0.187893
0.187203
0.186529
0.185858
0.185185
0.192457
0.192059
0.192167
0.192239
0.192456
0.192639
0.192789
0.192833
0.192754
0.19253
0.192165
0.191672
0.191076