/*--------------------------------*- C++ -*----------------------------------*\
| =========                 |                                                 |
| \\      /  F ield         | OpenFOAM Extend Project: Open source CFD        |
|  \\    /   O peration     | Version:  1.6-ext                               |
|   \\  /    A nd           | Web:      www.extend-project.de                 |
|    \\/     M anipulation  |                                                 |
\*---------------------------------------------------------------------------*/
FoamFile
{
    version     2.0;
    format      ascii;
    class       surfaceScalarField;
    location    "0.7";
    object      phi;
}
// * * * * * * * * * * * * * * * * * * * * * * * * * * * * * * * * * * * * * //

dimensions      [0 3 -1 0 0 0 0];

internalField   nonuniform List<scalar> 
41420
(
-0.000126849
0.000397192
-0.00039792
0.000127576
-0.000125662
0.000378272
-0.000379459
-0.000124047
0.000359694
-0.000361308
-0.000122007
0.00034136
-0.000343401
-0.000119477
0.000323268
-0.000325799
-0.000116307
0.000305206
-0.000308376
-0.000112259
0.000286825
-0.000290873
-0.000107039
0.000267651
-0.000272871
-0.000100371
0.000247201
-0.000253869
-9.21006e-05
0.000225129
-0.000233399
-8.22817e-05
0.000201377
-0.000211195
-7.12234e-05
0.00017627
-0.000187328
-5.94557e-05
0.000150495
-0.000162263
-4.76383e-05
0.000124976
-0.000136793
-3.64298e-05
0.00010068
-0.000111889
-2.63806e-05
7.84433e-05
-8.84925e-05
-1.78633e-05
5.88444e-05
-6.73617e-05
-1.10626e-05
4.21698e-05
-4.89705e-05
-6.00009e-06
2.84413e-05
-3.35038e-05
-2.58156e-06
1.74823e-05
-2.09008e-05
-6.45079e-07
8.99122e-06
-1.09277e-05
2.60992e-06
-3.255e-06
-0.000134638
0.000396294
0.000135536
-0.000133257
0.000376892
-0.000131412
0.000357849
-0.000129065
0.000339014
-0.000126103
0.000320306
-0.000122313
0.000301416
-0.000117409
0.00028192
-0.000111087
0.000261329
-0.000103126
0.00023924
-9.34858e-05
0.000215489
-8.23794e-05
0.00019027
-7.02686e-05
0.000164159
-5.77918e-05
0.000138018
-4.564e-05
0.000112824
-3.44325e-05
8.94726e-05
-2.46284e-05
6.86392e-05
-1.6493e-05
5.0709e-05
-1.01115e-05
3.57883e-05
-5.43095e-06
2.37608e-05
-2.31027e-06
1.43616e-05
-5.64701e-07
7.24565e-06
2.04522e-06
-0.000149501
0.000394727
0.000151068
-0.000147426
0.000374816
-0.000144832
0.000355255
-0.000141628
0.00033581
-0.000137633
0.000316311
-0.000132566
0.00029635
-0.000126106
0.00027546
-0.000117976
0.000253199
-0.000108058
0.000229321
-9.64776e-05
0.000203909
-8.36361e-05
0.000177429
-7.01535e-05
0.000150677
-5.67527e-05
0.000124618
-4.41233e-05
0.000100194
-3.28117e-05
7.81609e-05
-2.31656e-05
5.89931e-05
-1.5334e-05
4.28775e-05
-9.30339e-06
2.97577e-05
-4.94912e-06
1.94065e-05
-2.08524e-06
1.14977e-05
-5.03629e-07
5.66404e-06
1.54159e-06
-0.000163764
0.000392517
0.000165975
-0.000160993
0.000372044
-0.000157602
0.000351865
-0.000153429
0.000331637
-0.000148212
0.000311094
-0.000141619
0.000289756
-0.000133331
0.000267172
-0.00012316
0.000243028
-0.000111151
0.000217313
-9.76403e-05
0.000190397
-8.32187e-05
0.000163007
-6.86298e-05
0.000136088
-5.46245e-05
0.000110612
-4.18327e-05
8.74026e-05
-3.06867e-05
6.70149e-05
-2.14042e-05
4.97106e-05
-1.40176e-05
3.54909e-05
-8.42492e-06
2.4165e-05
-4.44399e-06
1.54256e-05
-1.85755e-06
8.91125e-06
-4.44682e-07
4.25118e-06
1.09691e-06
-0.000176704
0.000389709
0.000179512
-0.000173239
0.000368579
-0.000168991
0.000347616
-0.000163704
0.000326351
-0.000157049
0.000304439
-0.000148671
0.000281378
-0.000138322
0.000256824
-0.000125973
0.000230679
-0.000111892
0.000203231
-9.66348e-05
0.00017514
-8.09559e-05
0.000147328
-6.56582e-05
0.00012079
-5.14502e-05
9.64043e-05
-3.88479e-05
7.48003e-05
-2.81413e-05
5.63083e-05
-1.94142e-05
4.09835e-05
-1.25933e-05
2.86699e-05
-7.50571e-06
1.90775e-05
-3.92963e-06
1.18495e-05
-1.631e-06
6.61262e-06
-3.87345e-07
3.00753e-06
7.09563e-07
-0.000188236
0.000386326
0.000191619
-0.00018403
0.000364373
-0.000178782
0.000342368
-0.000172153
0.000319721
-0.000163771
0.000296057
-0.000153331
0.000270938
-0.000140735
0.000244227
-0.000126183
0.000216127
-0.000110193
0.000187242
-9.35231e-05
0.00015847
-7.70208e-05
0.000130826
-6.14688e-05
0.000105238
-4.74659e-05
8.24013e-05
-3.53758e-05
6.27102e-05
-2.5337e-05
4.62695e-05
-1.73092e-05
3.29557e-05
-1.11334e-05
2.24941e-05
-6.58696e-06
1.45311e-05
-3.42596e-06
8.68848e-06
-1.41303e-06
4.59969e-06
-3.33106e-07
1.9276e-06
3.76457e-07
-0.000198142
0.000382324
0.000202144
-0.000193061
0.000359292
-0.000186585
0.000335892
-0.00017831
0.000311446
-0.000167893
0.00028564
-0.000155165
0.00025821
-0.000140262
0.000229324
-0.000123659
0.000199524
-0.000106111
0.000169694
-8.85058e-05
0.000140865
-7.16952e-05
0.000114015
-5.63602e-05
8.99029e-05
-4.29401e-05
6.89812e-05
-3.1631e-05
5.14011e-05
-2.24291e-05
3.70676e-05
-1.51924e-05
2.5719e-05
-9.70088e-06
1.70026e-05
-5.7032e-06
1.05334e-05
-2.94944e-06
5.93472e-06
-1.20975e-06
2.86e-06
-2.83232e-07
1.00108e-06
9.32247e-08
-0.0002062
0.000377609
0.000210915
-0.000200028
0.000353121
-0.000192014
0.000327878
-0.000181754
0.000301186
-0.000169029
0.000272914
-0.000153907
0.000243088
-0.000136821
0.000212239
-0.00011852
0.000181222
-9.99238e-05
0.000151098
-8.1953e-05
0.000122894
-6.53678e-05
9.74301e-05
-5.06833e-05
7.52185e-05
-3.81559e-05
5.64538e-05
-2.78216e-05
4.10668e-05
-1.95589e-05
2.88049e-05
-1.31527e-05
1.93128e-05
-8.34693e-06
1.21968e-05
-4.88109e-06
7.06757e-06
-2.51208e-06
3.56571e-06
-1.02539e-06
1.3733e-06
-2.38538e-07
2.14233e-07
-1.45314e-07
-0.00021203
0.000371944
0.000217696
-0.00020445
0.000345541
-0.000194543
0.00031797
-0.000182007
0.000288651
-0.000166852
0.000257758
-0.000149454
0.00022569
-0.000130551
0.000193337
-0.000111099
0.00016177
-9.20813e-05
0.000132081
-7.43401e-05
0.000105153
-5.84693e-05
8.15594e-05
-4.47876e-05
6.15367e-05
-3.33727e-05
4.5039e-05
-2.41261e-05
3.18202e-05
-1.68407e-05
2.15194e-05
-1.1258e-05
1.37301e-05
-7.10892e-06
8.04777e-06
-4.13906e-06
4.09771e-06
-2.12163e-06
1.54828e-06
-8.62381e-07
1.14049e-07
-1.99403e-07
-4.48744e-07
-3.44717e-07
-0.000215269
0.000365082
0.00022213
-0.000205937
0.000336208
-0.000193824
0.000305858
-0.000178851
0.000273678
-0.000161352
0.000240259
-0.000142039
0.000206377
-0.000121894
0.000173191
-0.000101964
0.000141841
-8.31759e-05
0.000113292
-6.62044e-05
8.81816e-05
-5.14368e-05
6.67917e-05
-3.89974e-05
4.90973e-05
-2.88135e-05
3.48551e-05
-2.06878e-05
2.36946e-05
-1.43611e-05
1.51927e-05
-9.55738e-06
8.92641e-06
-6.01253e-06
4.50292e-06
-3.48925e-06
1.57443e-06
-1.78296e-06
-1.58005e-07
-7.22201e-07
-9.46713e-07
-1.66044e-07
-1.0049e-06
-5.10761e-07
-0.000215365
0.000356575
0.000223873
-0.000203938
0.000324781
-0.000189445
0.000291365
-0.00017213
0.000256363
-0.000152672
0.000220801
-0.000132066
0.000185771
-0.000111419
0.000152544
-9.17378e-05
0.00012216
-7.37871e-05
9.53416e-05
-5.80264e-05
7.24209e-05
-4.46328e-05
5.33981e-05
-3.35657e-05
3.80302e-05
-2.46424e-05
2.59318e-05
-1.76061e-05
1.66583e-05
-1.21761e-05
9.76269e-06
-8.08001e-06
4.83034e-06
-5.0715e-06
1.49441e-06
-2.93724e-06
-5.59831e-07
-1.49779e-06
-1.59745e-06
-6.05037e-07
-1.83947e-06
-1.3833e-07
-1.47161e-06
-6.4909e-07
-0.000212213
0.000346275
0.000222513
-0.000198534
0.000311101
-0.000181712
0.000274544
-0.000162389
0.000237039
-0.00014156
0.000199972
-0.000120391
0.000164603
-9.9977e-05
0.00013213
-8.11738e-05
0.000103357
-6.45202e-05
7.86879e-05
-5.0252e-05
5.81527e-05
-3.83635e-05
4.15096e-05
-2.86898e-05
2.83565e-05
-2.09796e-05
1.82216e-05
-1.49501e-05
1.06287e-05
-1.0323e-05
5.13562e-06
-6.8447e-06
1.35203e-06
-4.2946e-06
-1.05569e-06
-2.48681e-06
-2.36763e-06
-1.26765e-06
-2.81661e-06
-5.11523e-07
-2.59559e-06
-1.16516e-07
-1.86662e-06
-7.65606e-07
-0.000205288
0.000333676
0.000217887
-0.00018938
0.000295194
-0.000170597
0.00025576
-0.000149923
0.000216366
-0.000128546
0.000178595
-0.00010765
0.000143707
-8.81855e-05
0.000112666
-7.07869e-05
8.59581e-05
-5.57574e-05
6.36585e-05
-4.3136e-05
4.55313e-05
-3.27812e-05
3.11548e-05
-2.44502e-05
2.00254e-05
-1.78605e-05
1.1632e-05
-1.27303e-05
5.49859e-06
-8.80088e-06
1.20615e-06
-5.8464e-06
-1.60245e-06
-3.67648e-06
-3.22561e-06
-2.13381e-06
-3.9103e-06
-1.08987e-06
-3.86055e-06
-4.40197e-07
-3.24527e-06
-9.99798e-08
-2.20683e-06
-8.65586e-07
-0.000195214
0.000319314
0.000209576
-0.000177465
0.000277445
-0.000157275
0.00023557
-0.000135999
0.00019509
-0.000114844
0.00015744
-9.48994e-05
0.000123762
-7.68894e-05
9.46556e-05
-6.11998e-05
7.02685e-05
-4.79223e-05
5.0381e-05
-3.69449e-05
3.45539e-05
-2.80387e-05
2.22486e-05
-2.09245e-05
1.29112e-05
-1.53179e-05
6.0254e-06
-1.09559e-05
1.13655e-06
-7.60823e-06
-2.14151e-06
-5.08083e-06
-4.12985e-06
-3.21378e-06
-5.09265e-06
-1.877e-06
-5.24709e-06
-9.65163e-07
-4.77238e-06
-3.92796e-07
-3.81764e-06
-9.01754e-08
-2.50945e-06
-9.55761e-07
-0.000181698
0.00030274
0.000198272
-0.000162704
0.000258451
-0.000141979
0.000214845
-0.000121005
0.000174115
-0.000100919
0.000137353
-8.25675e-05
0.000105411
-6.6416e-05
7.85042e-05
-5.26201e-05
5.64725e-05
-4.11122e-05
3.88731e-05
-3.16913e-05
2.5133e-05
-2.40933e-05
1.46506e-05
-1.80398e-05
6.85768e-06
-1.32676e-05
1.25324e-06
-9.54377e-06
-2.58728e-06
-6.67066e-06
-5.01462e-06
-4.4855e-06
-6.31501e-06
-2.85659e-06
-6.72156e-06
-1.67841e-06
-6.42526e-06
-8.66349e-07
-5.58445e-06
-3.51881e-07
-4.3321e-06
-7.88314e-08
-2.7825e-06
-1.03459e-06
-0.000344548
0.000246546
0.000400742
-0.000289002
0.000202905
-0.0002367
0.000162543
-0.000189523
0.000126938
-0.000148506
9.63365e-05
-0.000113996
7.09003e-05
-8.57563e-05
5.02649e-05
-6.32005e-05
3.39167e-05
-4.5565e-05
2.12376e-05
-3.20474e-05
1.16155e-05
-2.1888e-05
4.49114e-06
-1.44124e-05
-6.17878e-07
-9.04615e-06
-4.11305e-06
-5.31223e-06
-6.3212e-06
-2.82121e-06
-7.50563e-06
-1.25763e-06
-7.87859e-06
-3.66634e-07
-7.61256e-06
5.79606e-08
-6.84986e-06
1.83402e-07
-5.70989e-06
1.45734e-07
-4.29443e-06
5.51991e-08
-2.69197e-06
-9.79394e-07
-0.000285911
0.000188278
0.000344179
-0.000232216
0.00014921
-0.000184623
0.00011495
-0.000143841
8.61567e-05
-0.000109909
6.24042e-05
-8.23846e-05
4.33759e-05
-6.05468e-05
2.84271e-05
-4.35573e-05
1.69272e-05
-3.05798e-05
8.26006e-06
-2.08467e-05
1.88236e-06
-1.36903e-05
-2.66526e-06
-8.54985e-06
-5.75833e-06
-4.96506e-06
-7.69784e-06
-2.56352e-06
-8.72274e-06
-1.04614e-06
-9.02302e-06
-1.73372e-07
-8.75136e-06
2.46704e-07
-8.03264e-06
3.68154e-07
-6.97131e-06
3.14829e-07
-5.65656e-06
1.86106e-07
-4.16571e-06
6.0868e-08
-2.56673e-06
-9.18525e-07
-0.000223767
0.000134026
0.000278019
-0.000176401
0.000101844
-0.00013645
7.49991e-05
-0.00010357
5.32763e-05
-7.71568e-05
3.59912e-05
-5.63521e-05
2.25712e-05
-4.0264e-05
1.23391e-05
-2.8035e-05
4.6982e-06
-1.89017e-05
-8.73238e-07
-1.22121e-05
-4.8073e-06
-7.42562e-06
-7.45172e-06
-4.10295e-06
-9.081e-06
-1.89106e-06
-9.90973e-06
-5.08167e-07
-1.01056e-05
2.70072e-07
-9.80126e-06
6.22242e-07
-9.10353e-06
6.90579e-07
-8.10097e-06
5.88315e-07
-6.86904e-06
4.0527e-07
-5.47352e-06
2.12147e-07
-3.97259e-06
6.35083e-08
-2.41809e-06
-8.55017e-07
-0.000164991
8.78498e-05
0.000211167
-0.000126369
6.32219e-05
-9.5041e-05
4.36715e-05
-7.00719e-05
2.83072e-05
-5.05811e-05
1.65004e-05
-3.56142e-05
7.60437e-06
-2.43177e-05
1.04247e-06
-1.59415e-05
-3.67799e-06
-9.85708e-06
-6.95764e-06
-5.54897e-06
-9.11541e-06
-2.60134e-06
-1.03993e-05
-6.8207e-07
-1.10003e-05
4.72666e-07
-1.10645e-05
1.07203e-06
-1.0705e-05
1.28183e-06
-1.00111e-05
1.23347e-06
-9.05517e-06
1.03101e-06
-7.89852e-06
7.56422e-07
-6.59445e-06
4.73514e-07
-5.19061e-06
2.31033e-07
-3.73011e-06
6.49054e-08
-2.25197e-06
-7.90112e-07
-0.000113557
5.14058e-05
0.000150001
-8.41714e-05
3.38364e-05
-6.10493e-05
2.05494e-05
-4.31301e-05
1.0388e-05
-2.95043e-05
2.87461e-06
-1.93169e-05
-2.58304e-06
-1.18502e-05
-6.4242e-06
-6.5059e-06
-9.02232e-06
-2.79825e-06
-1.06653e-05
-3.37725e-07
-1.15759e-05
1.18548e-06
-1.19226e-05
2.01662e-06
-1.18314e-05
2.34955e-06
-1.13974e-05
2.3374e-06
-1.06928e-05
2.10113e-06
-9.77478e-06
1.73614e-06
-8.69018e-06
1.31732e-06
-7.4797e-06
9.02726e-07
-6.17985e-06
5.36457e-07
-4.82434e-06
2.50725e-07
-3.44438e-06
6.75347e-08
-2.06878e-06
-7.22577e-07
-7.08892e-05
2.45379e-05
9.7757e-05
-4.99423e-05
1.28895e-05
-3.3898e-05
4.5051e-06
-2.18289e-05
-1.68113e-06
-1.29349e-05
-6.01942e-06
-6.53368e-06
-8.98421e-06
-2.06664e-06
-1.08912e-05
9.17635e-07
-1.20066e-05
2.77942e-06
-1.25271e-05
3.80431e-06
-1.26008e-05
4.21777e-06
-1.2336e-05
4.19758e-06
-1.18112e-05
3.88379e-06
-1.10836e-05
3.38677e-06
-1.01958e-05
2.79337e-06
-9.18138e-06
2.17162e-06
-8.06843e-06
1.57408e-06
-6.88216e-06
1.04071e-06
-5.64648e-06
6.00574e-07
-4.3842e-06
2.73676e-07
-3.11748e-06
7.18695e-08
-1.86697e-06
-6.50708e-07
-3.66738e-05
6.05307e-06
5.51587e-05
-2.2791e-05
-9.93381e-07
-1.25144e-05
-5.77151e-06
-5.11208e-06
-9.08341e-06
5.4928e-08
-1.11864e-05
3.49773e-06
-1.2427e-05
5.63022e-06
-1.30237e-05
6.78023e-06
-1.31566e-05
7.20683e-06
-1.29537e-05
7.11362e-06
-1.25076e-05
6.66044e-06
-1.18828e-05
5.97271e-06
-1.11235e-05
5.14899e-06
-1.02599e-05
4.2666e-06
-9.31344e-06
3.38622e-06
-8.30099e-06
2.55474e-06
-7.23694e-06
1.80806e-06
-6.13548e-06
1.17232e-06
-5.01073e-06
6.65737e-07
-3.87763e-06
2.99204e-07
-2.75094e-06
7.75689e-08
-1.64533e-06
-5.73139e-07
-9.81533e-06
-5.52107e-06
2.13895e-05
-1.59205e-06
-9.21665e-06
4.11398e-06
-1.14775e-05
7.85763e-06
-1.28271e-05
1.01187e-05
-1.34475e-05
1.12649e-05
-1.35731e-05
1.159e-05
-1.33489e-05
1.13232e-05
-1.28898e-05
1.06434e-05
-1.22738e-05
9.68963e-06
-1.15539e-05
8.57036e-06
-1.07636e-05
7.37001e-06
-9.92314e-06
6.15443e-06
-9.0443e-06
4.97519e-06
-8.1342e-06
3.87219e-06
-7.19799e-06
2.87629e-06
-6.24105e-06
2.01023e-06
-5.26943e-06
1.29041e-06
-4.29092e-06
7.26842e-07
-3.31405e-06
3.24636e-07
-2.34874e-06
8.37359e-08
-1.40443e-06
-4.89403e-07
1.06548e-05
-1.15861e-05
-4.58978e-06
1.44563e-05
-1.30181e-05
1.66189e-05
-1.36401e-05
1.75483e-05
-1.37565e-05
1.75866e-05
-1.34859e-05
1.69872e-05
-1.29737e-05
1.59483e-05
-1.231e-05
1.46207e-05
-1.15622e-05
1.31199e-05
-1.0773e-05
1.15341e-05
-9.96808e-06
9.93091e-06
-9.16034e-06
8.36221e-06
-8.35444e-06
6.86826e-06
-7.55035e-06
5.48006e-06
-6.746e-06
4.22168e-06
-5.93961e-06
3.11102e-06
-5.13039e-06
2.16143e-06
-4.31983e-06
1.38141e-06
-3.5109e-06
7.75997e-07
-2.70864e-06
3.46059e-07
-1.9188e-06
8.93148e-08
-1.14769e-06
-4.00088e-07
2.53192e-05
-1.33902e-05
-2.35152e-05
2.57636e-05
-1.34625e-05
2.52723e-05
-1.31489e-05
2.41228e-05
-1.26069e-05
2.25414e-05
-1.19044e-05
2.06902e-05
-1.11225e-05
1.86911e-05
-1.03109e-05
1.6633e-05
-9.5041e-06
1.45813e-05
-8.72135e-06
1.2584e-05
-7.97082e-06
1.06767e-05
-7.25297e-06
8.88578e-06
-6.56354e-06
7.23143e-06
-5.896e-06
5.72904e-06
-5.24361e-06
4.3901e-06
-4.60066e-06
3.22332e-06
-3.96362e-06
2.23438e-06
-3.33089e-06
1.42692e-06
-2.70344e-06
8.01861e-07
-2.08357e-06
3.58329e-07
-1.47527e-06
9.28411e-08
-8.82201e-07
-3.07247e-07
3.43357e-05
-1.20947e-05
-3.56311e-05
3.23995e-05
-1.15264e-05
3.0078e-05
-1.08273e-05
2.75378e-05
-1.00668e-05
2.49101e-05
-9.27667e-06
2.22833e-05
-8.49576e-06
1.9719e-05
-7.74663e-06
1.72582e-05
-7.04322e-06
1.49274e-05
-6.39056e-06
1.27439e-05
-5.78736e-06
1.0719e-05
-5.22809e-06
8.86023e-06
-4.70475e-06
7.17287e-06
-4.20864e-06
5.66075e-06
-3.73149e-06
4.32675e-06
-3.26667e-06
3.17252e-06
-2.80938e-06
2.19901e-06
-2.35738e-06
1.40581e-06
-1.91025e-06
7.91981e-07
-1.46974e-06
3.55246e-07
-1.03853e-06
9.26175e-08
-6.19572e-07
-2.14629e-07
3.75712e-05
-8.86378e-06
-4.08021e-05
3.42277e-05
-8.18286e-06
3.08956e-05
-7.49534e-06
2.76523e-05
-6.82346e-06
2.45542e-05
-6.1785e-06
2.16332e-05
-5.57477e-06
1.8906e-05
-5.0195e-06
1.63783e-05
-4.51549e-06
1.40491e-05
-4.06138e-06
1.19142e-05
-3.65247e-06
9.9682e-06
-3.28204e-06
8.20581e-06
-2.94235e-06
6.62269e-06
-2.62552e-06
5.21552e-06
-2.32432e-06
3.9816e-06
-2.03275e-06
2.91881e-06
-1.74658e-06
2.02479e-06
-1.46336e-06
1.29729e-06
-1.18275e-06
7.33591e-07
-9.06044e-07
3.31136e-07
-6.36077e-07
8.72487e-08
-3.75685e-07
-1.27381e-07
3.47851e-05
-4.91687e-06
-3.87321e-05
3.10474e-05
-4.4451e-06
2.75517e-05
-3.99968e-06
2.43122e-05
-3.58395e-06
2.13343e-05
-3.2006e-06
1.86126e-05
-2.85304e-06
1.61351e-05
-2.542e-06
1.38861e-05
-2.26648e-06
1.18485e-05
-2.02379e-06
1.00059e-05
-1.80995e-06
8.34415e-06
-1.62023e-06
6.85129e-06
-1.4495e-06
5.51841e-06
-1.29264e-06
4.33898e-06
-1.14489e-06
3.30842e-06
-1.00219e-06
2.42326e-06
-8.61422e-07
1.68061e-06
-7.20708e-07
1.07743e-06
-5.79566e-07
6.10542e-07
-4.39158e-07
2.76676e-07
-3.02211e-07
7.33246e-08
-1.72333e-07
-5.40559e-08
2.58006e-05
-1.53448e-06
-2.9183e-05
2.27231e-05
-1.36759e-06
1.99363e-05
-1.21289e-06
1.74237e-05
-1.07127e-06
1.51666e-05
-9.43566e-07
1.3144e-05
-8.30412e-07
1.13334e-05
-7.31401e-07
9.71261e-06
-6.45682e-07
8.26078e-06
-5.71953e-07
6.95946e-06
-5.08632e-07
5.79318e-06
-4.53955e-07
4.74974e-06
-4.06058e-07
3.82016e-06
-3.63057e-07
2.99838e-06
-3.23111e-07
2.28069e-06
-2.84502e-07
1.665e-06
-2.45729e-07
1.14994e-06
-2.05647e-07
7.34032e-07
-1.6366e-07
4.1493e-07
-1.20055e-07
1.89028e-07
-7.63089e-08
5.16686e-08
-3.49736e-08
-2.38728e-09
1.05785e-05
-1.2096e-05
9.22247e-06
8.01704e-06
6.95009e-06
6.00848e-06
5.17826e-06
4.44575e-06
3.79804e-06
3.22341e-06
2.71168e-06
2.25438e-06
1.84485e-06
1.4783e-06
1.15177e-06
8.63979e-07
6.15156e-07
4.06665e-07
2.40465e-07
1.18233e-07
4.01735e-08
3.94291e-09
0.00029825
2.58296e-05
9.15396e-07
-0.000324995
0.000272992
2.43132e-05
9.45163e-07
0.000249129
2.28923e-05
9.70665e-07
0.000226581
2.15562e-05
9.91609e-07
0.000205273
2.03007e-05
1.0081e-06
0.00018513
1.91223e-05
1.02034e-06
0.000166085
1.80166e-05
1.02853e-06
0.000148073
1.69792e-05
1.03288e-06
0.000131033
1.60059e-05
1.03365e-06
0.00011491
1.50922e-05
1.03104e-06
9.96521e-05
1.42328e-05
1.02515e-06
8.52167e-05
1.34197e-05
1.01569e-06
7.15766e-05
1.26385e-05
1.00159e-06
5.87326e-05
1.18635e-05
9.80523e-07
4.67283e-05
1.10556e-05
9.4869e-07
3.56632e-05
1.01639e-05
9.01206e-07
2.56964e-05
9.13392e-06
8.32889e-07
1.70373e-05
7.91953e-06
7.39535e-07
9.92341e-06
6.49493e-06
6.18946e-07
4.58956e-06
4.86218e-06
4.7167e-07
1.23551e-06
3.05298e-06
3.0107e-07
1.12284e-06
1.1267e-07
0.000297841
5.24972e-05
-0.000324509
0.000272653
4.95018e-05
0.00024885
4.66948e-05
0.000226354
4.40521e-05
0.000205089
4.15655e-05
0.000184984
3.92278e-05
0.00016597
3.70306e-05
0.000147984
3.49655e-05
0.000130965
3.30242e-05
0.000114859
3.11981e-05
9.96151e-05
2.94771e-05
8.51901e-05
2.78447e-05
7.15575e-05
2.6271e-05
5.87187e-05
2.47024e-05
4.67177e-05
2.30566e-05
3.56547e-05
2.12268e-05
2.56895e-05
1.90991e-05
1.70321e-05
1.6577e-05
9.92e-06
1.3607e-05
4.58788e-06
1.01943e-05
1.23512e-06
6.40573e-06
2.35796e-06
0.000296594
7.8962e-05
-0.000323059
0.000271581
7.4515e-05
0.000247928
7.03471e-05
0.000225563
6.64174e-05
0.000204413
6.2716e-05
0.000184407
5.92331e-05
0.000165481
5.59566e-05
0.000147572
5.28746e-05
0.000130621
4.99752e-05
0.000114574
4.72457e-05
9.93796e-05
4.4671e-05
8.49975e-05
4.22268e-05
7.14013e-05
3.98672e-05
5.85926e-05
3.7511e-05
4.66171e-05
3.50322e-05
3.55754e-05
3.22685e-05
2.5629e-05
2.90455e-05
1.69883e-05
2.52177e-05
9.89154e-06
2.07037e-05
4.57286e-06
1.5513e-05
1.23016e-06
9.74843e-06
3.58812e-06
0.000294854
0.000105116
-0.000321008
0.00027011
9.92581e-05
0.000246688
9.37695e-05
0.000224519
8.85859e-05
0.000203538
8.36979e-05
0.000183677
7.90938e-05
0.000164875
7.47587e-05
0.000147072
7.06777e-05
0.000130211
6.68355e-05
0.000114241
6.32163e-05
9.91115e-05
5.98002e-05
8.47834e-05
5.65549e-05
7.12312e-05
5.34193e-05
5.84584e-05
5.02838e-05
4.6511e-05
4.69796e-05
3.54925e-05
4.3287e-05
2.5565e-05
3.8973e-05
1.69418e-05
3.3841e-05
9.86094e-06
2.77846e-05
4.55673e-06
2.08172e-05
1.22505e-06
1.30801e-05
4.81317e-06
0.0002928
0.000130868
-0.000318552
0.000268405
0.000123654
0.000245276
0.000116898
0.000223358
0.000110504
0.000202589
0.000104467
0.000182909
9.87736e-05
0.00016426
9.34073e-05
0.000146587
8.8351e-05
0.000129836
8.3587e-05
0.000113956
7.90964e-05
9.89005e-05
7.48554e-05
8.46316e-05
7.08239e-05
7.11251e-05
6.69258e-05
5.83856e-05
6.30234e-05
4.6461e-05
5.89041e-05
3.54566e-05
5.42914e-05
2.55379e-05
4.88916e-05
1.69204e-05
4.24585e-05
9.84544e-06
3.48596e-05
4.54715e-06
2.61155e-05
1.22148e-06
1.64058e-05
6.03465e-06
0.000290833
0.000156159
-0.000316124
0.000266831
0.000147655
0.000244031
0.000139698
0.000222389
0.000132146
0.000201851
0.000125005
0.000182364
0.000118261
0.000163874
0.000111897
0.000146331
0.000105894
0.000129685
0.000100233
0.000113888
9.48936e-05
9.88962e-05
8.98472e-05
8.46725e-05
8.50476e-05
7.1195e-05
8.04032e-05
5.84689e-05
7.57495e-05
4.65448e-05
7.08283e-05
3.55294e-05
6.53068e-05
2.55935e-05
5.88275e-05
1.69561e-05
5.10959e-05
9.86375e-06
4.19519e-05
4.55351e-06
3.14257e-05
1.22182e-06
1.97375e-05
7.25647e-06
0.000289166
0.000180947
-0.000313954
0.000265587
0.000171234
0.000243134
0.000162151
0.000221777
0.000153503
0.000201473
0.000145309
0.000182175
0.000137559
0.000163838
0.000130234
0.000146415
0.000123317
0.00012986
0.000116788
0.00011413
0.000110624
9.91827e-05
0.000104795
8.49834e-05
9.92469e-05
7.15104e-05
9.38762e-05
5.87711e-05
8.84888e-05
4.68155e-05
8.27839e-05
3.57563e-05
7.63661e-05
2.5766e-05
6.88178e-05
1.70742e-05
5.97878e-05
9.9316e-06
4.90945e-05
4.58363e-06
3.67737e-05
1.22885e-06
2.30923e-05
8.48532e-06
0.000287978
0.000205206
-0.000312237
0.000264839
0.000194374
0.000242741
0.000184249
0.000221672
0.000174573
0.000201596
0.000165385
0.000182478
0.000156677
0.000164277
0.000148435
0.000146953
0.000140641
0.000130466
0.000133275
0.000114775
0.000126315
9.98413e-05
0.000119728
8.56327e-05
0.000113455
7.21295e-05
0.00010738
5.93375e-05
0.000101281
4.7311e-05
9.48104e-05
3.61623e-05
8.75147e-05
2.60752e-05
7.89049e-05
1.72839e-05
6.8579e-05
1.00546e-05
5.63238e-05
4.63812e-06
4.21902e-05
1.24193e-06
2.64884e-05
9.72725e-06
0.000287402
0.000228919
-0.000311114
0.000264703
0.000217073
0.00024295
0.000206001
0.00022215
0.000195373
0.000202281
0.000185254
0.000183317
0.000175641
0.000165226
0.000166525
0.000147975
0.000157892
0.000131527
0.000149723
0.000115847
0.000141995
0.000100898
0.000134677
8.66494e-05
0.000127704
7.3081e-05
0.000120948
6.02003e-05
0.000114161
4.80593e-05
0.000106951
3.67773e-05
9.87967e-05
2.65424e-05
8.91399e-05
1.76058e-05
7.75156e-05
1.02442e-05
6.36854e-05
4.72585e-06
4.77085e-05
1.26434e-06
2.99499e-05
1.09916e-05
0.000287474
0.000252073
-0.000310628
0.000265221
0.000239325
0.000243816
0.000227406
0.00022328
0.000215909
0.000203603
0.00020493
0.00018477
0.000194475
0.000166759
0.000184536
0.000149544
0.000175107
0.000133095
0.000166172
0.000117382
0.000157709
0.000102372
0.000149687
8.80362e-05
0.00014204
7.43555e-05
0.000134629
6.13359e-05
0.000127181
4.9032e-05
0.000119255
3.75651e-05
0.000110264
2.71358e-05
9.95692e-05
1.80076e-05
8.66438e-05
1.04784e-05
7.12146e-05
4.82988e-06
5.3357e-05
1.28925e-06
3.34906e-05
1.22808e-05
0.000288186
0.000274658
-0.000310772
0.000266358
0.000261154
0.000245267
0.000248497
0.000224961
0.000236215
0.000205446
0.000224446
0.000186718
0.000213203
0.000168763
0.000202491
0.000151562
0.000192308
0.000135091
0.000182643
0.000119323
0.000173477
0.000104229
0.000164781
8.97817e-05
0.000156488
7.5961e-05
0.000148449
6.27719e-05
0.00014037
5.02666e-05
0.000131761
3.85713e-05
0.000121959
2.78965e-05
0.000110244
1.85272e-05
9.60131e-05
1.07834e-05
7.89585e-05
4.96968e-06
5.91707e-05
1.32549e-06
3.71348e-05
1.36063e-05
0.000289559
0.000296644
-0.000311546
0.00026818
0.000282533
0.000247419
0.000269259
0.000227333
0.000256301
0.000207949
0.00024383
0.000189281
0.000231871
0.00017133
0.000220442
0.000154086
0.000209552
0.000137534
0.000199195
0.000121651
0.00018936
0.000106413
0.000180018
9.17948e-05
0.000171106
7.77765e-05
0.000162468
6.43618e-05
0.000153785
5.16041e-05
0.000144518
3.96348e-05
0.000133928
2.86793e-05
0.000121199
1.90435e-05
0.000105649
1.10725e-05
8.69295e-05
5.09139e-06
6.51519e-05
1.35119e-06
4.0875e-05
1.49575e-05
0.000291405
0.000318041
-0.000312802
0.000270402
0.000303536
0.000249924
0.000289737
0.000230037
0.000276188
0.000210777
0.000263089
0.00019217
0.000250478
0.000174224
0.000238388
0.000156938
0.000226838
0.000140302
0.000215831
0.000124301
0.000205361
0.000108915
0.000195405
9.41186e-05
0.000185902
7.98926e-05
0.000176694
6.62369e-05
0.00016744
5.32018e-05
0.000157553
4.09221e-05
0.000146208
2.96372e-05
0.000132484
1.96807e-05
0.000115605
1.14321e-05
9.51781e-05
5.24644e-06
7.13375e-05
1.38822e-06
4.47332e-05
1.63457e-05
0.000293618
0.000338633
-0.00031421
0.000273095
0.00032406
0.00025292
0.000309912
0.000233199
0.000295909
0.000214008
0.00028228
0.000195394
0.000269092
0.000177383
0.000256399
0.000159985
0.000244235
0.000143201
0.000232615
0.00012702
0.000221542
0.000111426
0.000210999
9.6397e-05
0.000200931
8.19134e-05
0.000191177
6.79733e-05
0.000181381
5.46262e-05
0.0001709
4.20135e-05
0.000158821
3.03945e-05
0.000144103
2.01344e-05
0.000125866
1.16468e-05
0.000103666
5.3097e-06
7.76746e-05
1.38862e-06
4.86543e-05
1.77344e-05
0.000296132
0.000358485
-0.000315984
0.000275944
0.000344247
0.000256073
0.000329783
0.000236555
0.000315427
0.00021748
0.000301355
0.000198904
0.000287667
0.000180865
0.000274439
0.000163382
0.000261718
0.000146464
0.000249533
0.000130108
0.000237898
0.000114302
0.000226805
9.90264e-05
0.000216207
8.42579e-05
0.000205946
6.99924e-05
0.000195646
5.62801e-05
0.000184613
4.32727e-05
0.000171828
3.12533e-05
0.000156123
2.06233e-05
0.000136496
1.18384e-05
0.000112451
5.31327e-06
8.41998e-05
1.33393e-06
5.26336e-05
1.90683e-05
1.23531e-05
0.000360968
-1.48364e-05
9.8064e-06
0.000346794
7.36997e-06
0.00033222
4.95397e-06
0.000317843
2.56831e-06
0.000303741
2.08087e-07
0.000290027
-2.12565e-06
0.000276772
-4.42795e-06
0.00026402
-6.69168e-06
0.000251797
-8.90522e-06
0.000240111
-1.10427e-05
0.000228943
-1.30409e-05
0.000218205
-1.47658e-05
0.00020767
-1.59909e-05
0.000196871
-1.64213e-05
0.000185043
-1.57801e-05
0.000171187
-1.3936e-05
0.000154279
-1.10146e-05
0.000133574
-7.43948e-06
0.000108875
-3.88156e-06
8.06419e-05
-1.14195e-06
4.9894e-05
1.79263e-05
7.15137e-06
0.000363757
-9.93979e-06
4.49673e-06
0.000349449
1.88225e-06
0.000334834
-6.7475e-07
0.0003204
-3.15822e-06
0.000306224
-5.56817e-06
0.000292437
-7.8995e-06
0.000279104
-1.01471e-05
0.000266268
-1.23039e-05
0.000253954
-1.43552e-05
0.000242162
-1.62652e-05
0.000230852
-1.79499e-05
0.00021989
-1.92489e-05
0.000208969
-1.99187e-05
0.000197541
-1.96752e-05
0.0001848
-1.82899e-05
0.000169801
-1.57074e-05
0.000151696
-1.21341e-05
0.000130001
-8.05344e-06
0.000104795
-4.16071e-06
7.67491e-05
-1.23517e-06
4.69685e-05
1.66912e-05
1.88942e-06
0.000366763
-4.89536e-06
-8.76151e-07
0.000352214
-3.59274e-06
0.000337551
-6.20132e-06
0.000323008
-8.70005e-06
0.000308723
-1.10859e-05
0.000294823
-1.33541e-05
0.000281372
-1.55007e-05
0.000268414
-1.75175e-05
0.00025597
-1.93844e-05
0.000244029
-2.10506e-05
0.000232519
-2.2407e-05
0.000221246
-2.32661e-05
0.000209829
-2.33709e-05
0.000197646
-2.24554e-05
0.000183884
-2.03452e-05
0.000167691
-1.70653e-05
0.000148416
-1.29031e-05
0.000125839
-8.40019e-06
0.000100292
-4.26579e-06
7.26147e-05
-1.24614e-06
4.39488e-05
1.5445e-05
-3.38112e-06
0.000369883
2.60314e-07
-6.24511e-06
0.000355078
-9.01516e-06
0.000340321
-1.16353e-05
0.000325629
-1.41124e-05
0.0003112
-1.64409e-05
0.000297152
-1.86179e-05
0.000283549
-2.06398e-05
0.000270436
-2.2496e-05
0.000257827
-2.41574e-05
0.000245691
-2.55532e-05
0.000233914
-2.65472e-05
0.00022224
-2.69262e-05
0.000210208
-2.64298e-05
0.000197149
-2.48219e-05
0.000182276
-2.19952e-05
0.000164865
-1.80596e-05
0.000144481
-1.33827e-05
0.000121162
-8.55019e-06
9.54594e-05
-4.26687e-06
6.83314e-05
-1.22481e-06
4.09067e-05
1.42202e-05
-8.7656e-06
0.000373059
5.58988e-06
-1.16863e-05
0.000357999
-1.44591e-05
0.000343094
-1.70491e-05
0.000328219
-1.9466e-05
0.000313617
-2.17047e-05
0.00029939
-2.3764e-05
0.000285608
-2.56396e-05
0.000272312
-2.73158e-05
0.000259503
-2.87492e-05
0.000247124
-2.98457e-05
0.000235011
-3.04396e-05
0.000222834
-3.02995e-05
0.000210067
-2.917e-05
0.00019602
-2.68602e-05
0.000179966
-2.33352e-05
0.00016134
-1.87944e-05
0.00013994
-1.36728e-05
0.00011604
-8.58747e-06
9.03741e-05
-4.21805e-06
6.3962e-05
-1.19266e-06
3.78814e-05
1.30276e-05
-1.44017e-05
0.000376249
1.12122e-05
-1.73343e-05
0.000360931
-2.00683e-05
0.000345828
-2.2592e-05
0.000330742
-2.49147e-05
0.00031594
-2.70339e-05
0.00030151
-2.89496e-05
0.000287524
-3.06553e-05
0.000274017
-3.21262e-05
0.000260974
-3.33009e-05
0.000248299
-3.4057e-05
0.000235767
-3.42025e-05
0.000222979
-3.34918e-05
0.000209357
-3.16913e-05
0.000194219
-2.86611e-05
0.000176936
-2.44533e-05
0.000157132
-1.93458e-05
0.000134832
-1.38381e-05
0.000110532
-8.55451e-06
8.50905e-05
-4.14222e-06
5.95497e-05
-1.15498e-06
3.48941e-05
1.18726e-05
-2.04401e-05
0.000379408
1.72811e-05
-2.33337e-05
0.000363825
-2.59871e-05
0.000348481
-2.84067e-05
0.000333162
-3.0601e-05
0.000318134
-3.25705e-05
0.000303479
-3.43155e-05
0.000289269
-3.5824e-05
0.000275526
-3.70585e-05
0.000262208
-3.79329e-05
0.000249173
-3.82964e-05
0.00023613
-3.793e-05
0.000222613
-3.65889e-05
0.000208016
-3.40668e-05
0.000191697
-3.02969e-05
0.000173166
-2.54101e-05
0.000152245
-1.9772e-05
0.000129194
-1.39192e-05
0.000104679
-8.48109e-06
7.96524e-05
-4.05181e-06
5.51204e-05
-1.11588e-06
3.19582e-05
1.07567e-05
-2.70914e-05
0.000382495
2.40042e-05
-2.98978e-05
0.000366631
-3.24294e-05
0.000351013
-3.47054e-05
0.000335438
-3.67345e-05
0.000320163
-3.85203e-05
0.000305265
-4.00606e-05
0.000290809
-4.13352e-05
0.0002768
-4.22874e-05
0.00026316
-4.28036e-05
0.00024969
-4.27001e-05
0.000236027
-4.1742e-05
0.000221655
-3.96891e-05
0.000205963
-3.6387e-05
0.000188395
-3.18393e-05
0.000168619
-2.62744e-05
0.00014668
-2.01205e-05
0.00012304
-1.3956e-05
9.8515e-05
-8.38648e-06
7.40829e-05
-3.95786e-06
5.06918e-05
-1.07709e-06
2.90774e-05
9.67963e-06
-3.45521e-05
0.000385461
3.1586e-05
-3.72182e-05
0.000369298
-3.95822e-05
0.000353377
-4.1671e-05
0.000337527
-4.34943e-05
0.000321987
-4.5057e-05
0.000306828
-4.6352e-05
0.000292104
-4.7345e-05
0.000277793
-4.7955e-05
0.00026377
-4.80347e-05
0.000249769