/*--------------------------------*- C++ -*----------------------------------*\
| =========                 |                                                 |
| \\      /  F ield         | OpenFOAM Extend Project: Open source CFD        |
|  \\    /   O peration     | Version:  1.6-ext                               |
|   \\  /    A nd           | Web:      www.extend-project.de                 |
|    \\/     M anipulation  |                                                 |
\*---------------------------------------------------------------------------*/
FoamFile
{
    version     2.0;
    format      ascii;
    class       volVectorField;
    location    "0.7";
    object      U;
}
// * * * * * * * * * * * * * * * * * * * * * * * * * * * * * * * * * * * * * //

dimensions      [0 1 -1 0 0 0 0];

internalField   nonuniform List<vector> 
20940
(
(1.85076 0.396914 0)
(1.89052 0.417009 -3.02863e-21)
(1.92817 0.43639 3.36123e-21)
(1.96286 0.454012 0)
(1.99431 0.470083 6.74322e-21)
(2.02088 0.483484 1.74751e-20)
(2.0396 0.493109 -2.04161e-20)
(2.04565 0.497012 6.49139e-21)
(2.03263 0.49296 -7.83748e-21)
(1.99344 0.478707 -9.68618e-21)
(1.92181 0.452706 -8.18188e-22)
(1.81414 0.414712 1.21605e-20)
(1.67084 0.36615 0)
(1.49678 0.310004 1.5786e-23)
(1.30044 0.250286 0)
(1.09229 0.191262 9.45711e-21)
(0.882882 0.136747 -1.02773e-23)
(0.681356 0.0896525 0)
(0.494552 0.0517987 0)
(0.326794 0.0239645 -1.21376e-23)
(0.180118 0.0066331 6.24514e-21)
(0.054741 0.000490852 0)
(1.87771 0.373481 4.47099e-21)
(1.9162 0.392427 -7.43679e-21)
(1.95226 0.410003 0)
(1.98478 0.425846 -1.1769e-20)
(2.01295 0.439622 2.11948e-20)
(2.03426 0.450128 -7.13773e-21)
(2.0447 0.455956 3.24599e-20)
(2.03855 0.455072 2.05703e-20)
(2.009 0.445403 -7.24028e-21)
(1.94955 0.425259 0)
(1.85566 0.393993 2.22806e-20)
(1.7264 0.35241 -4.93329e-20)
(1.56515 0.302833 -1.28873e-21)
(1.37923 0.248717 1.51242e-20)
(1.17853 0.19398 -3.44759e-20)
(0.973614 0.142298 2.70281e-20)
(0.774111 0.096597 0)
(0.587627 0.058837 -2.12618e-20)
(0.419344 0.0300008 2.21121e-20)
(0.272129 0.0102412 0)
(0.146957 -0.000378845 -6.20795e-21)
(0.0434407 -0.00141471 0)
(1.90243 0.350005 -9.43941e-21)
(1.93933 0.367874 1.29543e-20)
(1.97326 0.383753 0)
(2.00275 0.397832 1.0835e-21)
(2.02622 0.409211 -2.74165e-20)
(2.04015 0.416603 -1.77645e-20)
(2.0395 0.418356 -6.74205e-20)
(2.01788 0.412505 4.00849e-20)
(1.9687 0.397355 -3.03245e-20)
(1.8868 0.371969 0)
(1.7701 0.336673 -6.47929e-20)
(1.62064 0.293216 2.32392e-20)
(1.44459 0.244528 -2.66094e-20)
(1.25111 0.19416 -4.55433e-20)
(1.0506 0.145608 6.44995e-20)
(0.852994 0.10177 -3.57669e-20)
(0.666481 0.0646611 1.90316e-20)
(0.496948 0.0353945 -4.06874e-20)
(0.347966 0.0142845 4.23202e-20)
(0.221109 0.00102775 4.49789e-20)
(0.116483 -0.00460788 -4.62843e-20)
(0.0332422 -0.00237091 0)
(1.92602 0.32686 0)
(1.96085 0.343726 -3.09062e-20)
(1.99184 0.357948 0)
(2.01699 0.370171 -1.22103e-21)
(2.0337 0.378919 3.21152e-20)
(2.03735 0.382857 2.26274e-21)
(2.02207 0.380213 1.1446e-19)
(1.98131 0.369304 4.325e-21)
(1.90952 0.349035 -6.06705e-20)
(1.80372 0.319365 -1.3668e-21)
(1.66481 0.281567 6.15383e-20)
(1.49786 0.2381 7.16409e-20)
(1.31126 0.192145 -5.21971e-20)
(1.11512 0.146985 1.14971e-19)
(0.919501 0.105446 -6.19137e-20)
(0.733009 0.0695668 0)
(0.562088 0.0405192 1.85413e-20)
(0.410876 0.018717 0)
(0.281469 0.00397887 0)
(0.174364 -0.00429894 -4.29338e-20)
(0.0889977 -0.00652937 4.419e-20)
(0.0242113 -0.00257716 0)
(1.94816 0.304121 0)
(1.98029 0.319983 3.07698e-20)
(2.00718 0.332505 0)
(2.02611 0.342674 5.06691e-20)
(2.03329 0.348475 3.2885e-20)
(2.02311 0.348612 -1.11801e-19)
(1.98929 0.341383 -4.50099e-20)
(1.92597 0.325618 0)
(1.82952 0.301007 0)
(1.69989 0.268436 -3.60142e-20)
(1.54115 0.229951 -3.9979e-20)
(1.36094 0.188382 0)
(1.16901 0.146786 2.54019e-20)
(0.975421 0.107884 -8.32104e-20)
(0.789085 0.073709 5.92739e-20)
(0.61687 0.0454745 -6.5206e-20)
(0.463364 0.0236446 1.02379e-19)
(0.33108 0.00811136 0)
(0.220877 -0.00163502 0)
(0.132422 -0.00636471 -1.98702e-20)
(0.0646895 -0.00657799 -2.07108e-20)
(0.0163511 -0.00219747 0)
(1.96838 0.281858 9.65265e-22)
(1.99682 0.296669 -6.68146e-20)
(2.0179 0.307353 0)
(2.02801 0.315164 -2.76526e-20)
(2.02213 0.317643 6.1006e-20)
(1.99408 0.313703 3.7992e-20)
(1.93793 0.301939 -4.70357e-20)
(1.8495 0.281912 1.04329e-19)
(1.72795 0.254176 -6.28112e-20)
(1.5765 0.220425 -3.08025e-21)
(1.4021 0.183167 1.16876e-19)
(1.2141 0.145227 4.30298e-20)
(1.02251 0.109208 0)
(0.836453 0.0771106 -2.69307e-20)
(0.663121 0.0501729 0)
(0.507467 0.0289038 0)
(0.372328 0.0132347 -6.59826e-20)
(0.25884 0.00271071 3.42602e-20)
(0.166905 -0.00336221 7.44207e-20)
(0.0956114 -0.00581667 -5.72207e-20)
(0.0436554 -0.00517499 2.06965e-20)
(0.00965909 -0.00138285 5.11478e-20)
(1.98624 0.259885 -2.83462e-21)
(2.00942 0.273463 6.84443e-20)
(2.0222 0.282048 -4.65537e-20)
(2.02001 0.287139 -1.48998e-21)
(1.99692 0.285998 -6.55671e-20)
(1.94689 0.277952 -7.99519e-20)
(1.86537 0.262118 8.77085e-20)
(1.75085 0.238911 -1.04803e-19)
(1.60581 0.209675 0)
(1.43659 0.17664 0)
(1.25216 0.142405 0)
(1.06246 0.109445 -1.69521e-19)
(0.876734 0.0797121 4.33571e-20)
(0.702457 0.0544536 -2.01916e-21)
(0.544869 0.034217 1.0836e-19)
(0.40707 0.0189769 0)
(0.2904 0.00830966 -4.09044e-22)
(0.194928 0.00156451 -3.51027e-20)
(0.119885 -0.00202585 -8.94327e-22)
(0.064002 -0.00328442 7.35428e-20)
(0.0258506 -0.00271538 -7.75929e-20)
(0.00408937 -0.00026958 8.09031e-20)
(2.00023 0.238143 0)
(2.01589 0.250244 0)
(2.01707 0.256418 0)
(1.99847 0.258441 -5.57912e-20)
(1.95388 0.253547 -3.01745e-21)
(1.87847 0.241703 -2.66196e-21)
(1.77015 0.22271 8.97893e-20)
(1.63079 0.197805 -5.364e-20)
(1.46614 0.168891 1.73093e-19)
(1.28488 0.138374 1.74046e-21)
(1.09687 0.108587 -7.23509e-20)
(0.911458 0.0814262 4.11723e-20)
(0.736354 0.0581367 -4.52021e-20)
(0.577039 0.0392964 9.75351e-20)
(0.436825 0.0249235 -2.09167e-19)
(0.317213 0.0146357 -1.73874e-21)
(0.21838 0.00780947 2.09716e-19)
(0.139641 0.00371381 -1.26838e-19)
(0.0798121 0.00158415 1.35592e-19)
(0.0374517 0.000650449 -1.05955e-19)
(0.0111187 0.000447287 -3.60971e-20)
(-0.000435594 0.00102444 6.19742e-20)
(2.00911 0.216075 0)
(2.01398 0.226318 0)
(1.99939 0.229752 9.64505e-20)
(1.95986 0.228557 1.26586e-21)
(1.88998 0.220184 0)
(1.78728 0.205383 -4.55833e-22)
(1.65299 0.184643 -8.90014e-20)
(1.49242 0.159825 -1.03132e-19)
(1.31393 0.133047 5.48182e-20)
(1.12734 0.106537 1.92459e-19)
(0.942143 0.0821149 -6.99976e-20)
(0.766236 0.061021 7.68617e-20)
(0.60533 0.0438588 0)
(0.462915 0.0306898 1.39091e-19)
(0.340618 0.0211786 -9.94409e-20)
(0.23869 0.0147432 -5.29459e-20)
(0.156487 0.0106791 -5.65508e-20)
(0.0928559 0.00825423 0)
(0.046403 0.00675229 0)
(0.0156506 0.00547777 1.01517e-19)
(-0.000779656 0.00401117 -1.39041e-19)
(-0.00401475 0.00240164 0)
(2.00942 0.193744 0)
(1.99962 0.201824 0)
(1.96485 0.202384 5.00271e-20)
(1.9005 0.198094 5.72601e-20)
(1.80315 0.186891 0)
(1.67367 0.170335 7.65538e-20)
(1.51684 0.149464 -8.75465e-20)
(1.34083 0.126444 0)
(1.15541 0.10326 -5.52225e-20)
(0.970262 0.0816974 -1.87725e-19)
(0.793493 0.0629651 1.35489e-19)
(0.631036 0.0476906 -7.61913e-20)
(0.486552 0.0359761 1.75463e-21)
(0.361773 0.0275358 -1.33686e-19)
(0.257003 0.0218361 4.74157e-20)
(0.171613 0.018214 1.68647e-21)
(0.104446 0.0159645 1.10597e-19)
(0.0541123 0.0144012 0)
(0.0191607 0.0128782 1.24493e-19)
(-0.00183288 0.0107813 -1.29313e-19)
(-0.0101409 0.00773611 3.45463e-20)
(-0.00676059 0.00378699 -2.81586e-20)
(1.99945 0.170122 -6.52128e-20)
(1.97016 0.175783 8.31634e-20)
(1.91099 0.173587 -9.60922e-20)
(1.81912 0.166845 1.05789e-21)
(1.69427 0.154051 0)
(1.54103 0.137376 7.74458e-20)
(1.36723 0.118135 8.91823e-20)
(1.18274 0.0984391 8.17756e-22)
(0.997386 0.0798851 5.46192e-20)
(0.819583 0.0636991 0)
(0.655493 0.050514 0)
(0.50895 0.0404761 7.17327e-20)
(0.381787 0.0333503 8.01451e-20)
(0.274346 0.0286568 0)
(0.185996 0.0257827 -4.70133e-20)
(0.11556 0.0240655 9.96063e-20)
(0.0616227 0.0228468 -5.39976e-20)
(0.0227213 0.0215094 0)
(-0.00254725 0.0194853 0)
(-0.0155014 0.0162398 0)
(-0.0172904 0.0114411 0)
(-0.00878981 0.00512532 2.82344e-20)
(1.97316 0.146346 -7.28953e-20)
(1.92097 0.149686 -1.21567e-21)
(1.83471 0.145261 0)
(1.71527 0.136967 5.86562e-20)
(1.56581 0.123876 0)
(1.39436 0.108524 7.53284e-20)
(1.21067 0.0922215 0)
(1.02494 0.0767491 -9.54839e-20)
(0.845881 0.0631934 0)
(0.679976 0.0522311 0)
(0.531269 0.0440304 -1.29117e-19)
(0.401705 0.0384052 6.84497e-20)
(0.29166 0.0349262 0)
(0.200493 0.0330318 0)
(0.12699 0.0321061 0)
(0.0696955 0.0315311 -1.22075e-21)
(0.0271173 0.0307167 0)
(-0.00216185 0.0291208 1.09364e-19)
(-0.0194387 0.0262512 -1.7114e-19)
(-0.0259002 0.0216475 -1.21069e-19)
(-0.0225718 0.0150169 1.25419e-19)
(-0.0102236 0.0063869 -1.07519e-19)
(1.93237 0.120439 0)
(1.85267 0.121813 0)
(1.73851 0.116161 0)
(1.59341 0.107701 -1.72497e-19)
(1.42424 0.0960241 6.45068e-20)
(1.24129 0.0835326 -7.42892e-20)
(1.05485 0.0713254 0)
(0.874174 0.0606764 0)
(0.706091 0.0521792 1.14286e-21)
(0.554923 0.0460623 -1.1266e-19)
(0.422753 0.0421792 -1.86955e-19)
(0.310006 0.0401564 6.76584e-20)
(0.216019 0.0394857 7.43547e-20)
(0.139531 0.0396018 -1.60185e-19)
(0.0790321 0.0399314 1.28698e-19)
(0.0329834 0.0399219 -4.69144e-20)
(-6.32484e-05 0.0390574 0)
(-0.0214136 0.0368686 -5.20106e-20)
(-0.032228 0.0329331 1.39933e-21)
(-0.0335561 0.0268583 0)
(-0.0263088 0.0183899 -9.20548e-20)
(-0.0111717 0.00755155 1.04323e-19)
(1.86688 0.0967846 -7.06029e-20)
(1.76227 0.0968614 -8.80693e-20)
(1.62196 0.0908015 1.99496e-19)
(1.45653 0.0831891 6.03831e-20)
(1.27465 0.0738259 -6.42599e-20)
(1.08774 0.0647887 7.32336e-20)
(0.905296 0.0568847 0)
(0.734785 0.0508417 0)
(0.580854 0.0468447 2.01964e-19)
(0.445812 0.044792 -1.09898e-19)
(0.330163 0.0443466 7.4934e-22)
(0.233245 0.0450484 6.64731e-20)
(0.153752 0.0463784 -7.11986e-20)
(0.0901111 0.0478055 7.70243e-20)
(0.0407246 0.0488132 -1.25217e-19)
(0.00410091 0.0489143 9.01999e-20)
(-0.0210912 0.0476578 -1.44272e-19)
(-0.0360147 0.0446367 2.03388e-19)
(-0.0416868 0.0394879 5.44441e-20)
(-0.0390271 0.0318783 0)
(-0.0288449 0.0215892 8.84457e-20)
(-0.0117569 0.00864381 -7.66221e-20)
(1.79337 0.0696086 7.14275e-20)
(1.65821 0.0692507 8.76526e-20)
(1.49603 0.0650624 -9.70791e-20)
(1.31563 0.0595302 -1.13108e-19)
(1.12766 0.05401 0)
(0.942933 0.0494034 -1.44579e-19)
(0.769247 0.0462838 -6.79756e-22)
(0.611804 0.0448287 0)
(0.473177 0.0449407 9.83368e-20)
(0.35402 0.0463403 -2.14843e-19)
(0.253702 0.0486374 5.80507e-20)
(0.170882 0.0513871 1.27483e-19)
(0.103916 0.0541234 7.00237e-20)
(0.0511281 0.0563804 -2.72517e-22)
(0.0109571 0.0577053 -7.94784e-20)
(-0.0179764 0.057668 0)
(-0.0368593 0.0558682 -4.68687e-20)
(-0.0467064 0.0519445 -4.98268e-20)
(-0.0483973 0.0455795 0)
(-0.0427321 0.0364905 0)
(-0.0304324 0.0244957 1.14793e-19)
(-0.0120625 0.00962625 -2.24647e-19)
(1.64446 0.0499935 0)
(1.47859 0.0470135 -4.74246e-20)
(1.29643 0.0448428 -1.575e-21)
(1.10909 0.0423222 -5.97142e-20)
(0.925954 0.0410301 -1.36853e-19)
(0.754757 0.0408782 -7.64252e-20)
(0.600116 0.04207 1.67864e-19)
(0.464361 0.0444226 -9.29148e-20)
(0.347906 0.0476932 2.04409e-19)
(0.24996 0.0515575 -1.11233e-19)
(0.169051 0.0556531 1.22159e-19)
(0.103437 0.0595943 -3.30364e-19)
(0.0513664 0.0629839 1.42575e-19)
(0.0112273 0.0654218 -7.6814e-20)
(-0.0183882 0.0665152 1.65701e-19)
(-0.0386725 0.065889 4.3987e-20)
(-0.0506246 0.0631972 -4.67301e-20)
(-0.055088 0.0581352 -1.49079e-19)
(-0.052794 0.0504499 -4.93877e-22)
(-0.0444163 0.0399377 2.18451e-19)
(-0.0305785 0.0264929 3.76606e-22)
(-0.0117898 0.0101967 -9.79408e-20)
(1.39059 0.0283187 8.74038e-20)
(1.20652 0.027806 -1.49482e-19)
(1.02299 0.0300505 1.65296e-19)
(0.847301 0.0318926 0)
(0.685714 0.0352119 1.3936e-19)
(0.541647 0.0390633 0)
(0.416447 0.0436246 0)
(0.309889 0.0485991 9.46025e-20)
(0.220789 0.0537897 -2.07378e-19)
(0.14747 0.0589389 0)
(0.0881063 0.0637695 6.14928e-20)
(0.0409404 0.067978 1.33637e-19)
(0.00439292 0.0712419 0)
(-0.0228902 0.0732284 7.79433e-20)
(-0.0420377 0.0736068 -8.35288e-20)
(-0.0539792 0.0720623 -4.80851e-22)
(-0.0594831 0.0683113 4.72736e-20)
(-0.0591986 0.0621158 4.98954e-20)
(-0.0536953 0.0532939 5.16007e-20)
(-0.043505 0.0417225 -1.08487e-19)
(-0.0291266 0.0273696 1.1212e-19)
(-0.0109779 0.0103486 9.62863e-20)
(1.10536 0.016448 -1.78037e-19)
(0.926123 0.0190068 -1.53041e-21)
(0.760894 0.0251515 0)
(0.610215 0.0302408 0)
(0.477976 0.0364977 -7.17556e-20)
(0.364041 0.0426708 -7.9422e-20)
(0.267893 0.0489981 0)
(0.187978 0.055204 9.64677e-20)
(0.122534 0.0611587 4.04248e-22)
(0.069718 0.0666675 0)
(0.0278152 0.0715176 -6.24952e-20)
(-0.00468984 0.0754637 -1.35667e-19)
(-0.0290826 0.0782357 7.22189e-20)
(-0.0464252 0.0795484 -3.49175e-22)
(-0.0575824 0.0791162 1.6678e-19)
(-0.0632571 0.0766695 -1.33072e-19)
(-0.0640293 0.0719715 9.39697e-20)
(-0.0603913 0.0648335 3.04207e-22)
(-0.0527802 0.0551266 -1.5515e-19)
(-0.0416083 0.0427851 -1.34204e-19)
(-0.0272669 0.0278278 1.94577e-19)
(-0.0100939 0.0103827 -9.45016e-20)
(0.825061 0.0113512 -9.34523e-20)
(0.66747 0.0176475 1.04858e-19)
(0.530855 0.0262962 0)
(0.410278 0.0335798 0)
(0.308257 0.0412988 1.46386e-19)
(0.222567 0.0484716 8.10168e-20)
(0.151973 0.055342 0)
(0.0945035 0.0617403 0)
(0.0484074 0.0676104 1.06889e-19)
(0.0120256 0.072824 -1.15887e-19)
(-0.0160751 0.0772221 0)
(-0.037108 0.080603 -6.8224e-20)
(-0.0520718 0.0827322 0)
(-0.0617754 0.083355 -3.90375e-20)
(-0.0668696 0.0822135 0)
(-0.0678804 0.0790652 0)
(-0.0652414 0.073701 9.37305e-20)
(-0.0593224 0.0659607 -9.81799e-20)
(-0.0504527 0.0557444 0)
(-0.0389426 0.043018 5.3282e-20)
(-0.0250895 0.0278235 2.76842e-20)
(-0.00915773 0.010288 0)
(0.572941 0.0126727 9.4969e-20)
(0.445597 0.0217758 -5.415e-20)
(0.33991 0.0311389 5.99212e-20)
(0.248949 0.0392337 1.34276e-19)
(0.174196 0.0470456 -7.40479e-20)
(0.112762 0.054103 -8.20604e-20)
(0.063309 0.0606097 0)
(0.0239694 0.0665061 -4.92991e-20)
(-0.00674907 0.0717817 0)
(-0.0302017 0.0763523 -5.84645e-20)
(-0.0475173 0.0800901 1.27152e-19)
(-0.0596315 0.082818 -6.84945e-20)
(-0.0673036 0.0843218 0)
(-0.0711438 0.0843646 3.94705e-20)
(-0.0716404 0.0827054 1.25435e-19)
(-0.0691881 0.0791178 -8.85257e-20)
(-0.0641118 0.073408 9.34436e-20)
(-0.0566883 0.0654297 1.37602e-22)
(-0.0471626 0.0550954 -1.01898e-19)
(-0.0357617 0.0423815 7.90914e-20)
(-0.0227049 0.0273315 -1.08796e-19)
(-0.00819207 0.0100537 -2.27084e-20)
(0.360809 0.0174623 -4.83702e-20)
(0.264863 0.0276611 0)
(0.187571 0.0365735 -6.13674e-20)
(0.122626 0.0443688 6.78766e-20)
(0.0706473 0.0514347 -7.50461e-20)
(0.0289734 0.0577079 8.31696e-20)
(-0.00359515 0.0633531 -4.55057e-20)
(-0.0286112 0.0683908 4.99881e-20)
(-0.0472637 0.0728345 0)
(-0.0606097 0.0766267 5.922e-20)
(-0.0695159 0.0796576 6.36961e-20)
(-0.0746947 0.0817652 -6.90361e-20)
(-0.0767211 0.0827487 0)
(-0.0760563 0.0823835 7.88548e-20)
(-0.0730697 0.0804397 -4.19025e-20)
(-0.0680597 0.076701 -8.84391e-20)
(-0.0612721 0.070981 -2.31637e-20)
(-0.0529148 0.0631378 0)
(-0.0431686 0.0530834 1.0131e-19)
(-0.0321951 0.0407903 1.28944e-23)
(-0.0201535 0.026287 -1.07746e-19)
(-0.00719526 0.00964749 1.01444e-19)
(0.190146 0.0230444 -9.86033e-20)
(0.122303 0.0326696 0)
(0.0690141 0.0404699 0)
(0.025542 0.0472566 0)
(-0.00811994 0.0531541 -7.57984e-20)
(-0.0340806 0.0583185 -8.35313e-20)
(-0.0533506 0.0628938 9.18579e-20)
(-0.0671376 0.0669461 -1.00371e-19)
(-0.0763617 0.0704994 -1.09638e-19)
(-0.0818285 0.0735114 1.18673e-19)
(-0.0841951 0.0758832 -1.28373e-19)
(-0.084 0.0774644 0)
(-0.0816781 0.0780658 -3.68616e-20)
(-0.0775787 0.0774746 0)
(-0.0719833 0.0754718 0)
(-0.0651203 0.0718499 0)
(-0.0571781 0.0664278 4.63938e-20)
(-0.0483155 0.0590631 9.6894e-20)
(-0.0386672 0.0496616 -7.55891e-20)
(-0.0283474 0.0381834 0)
(-0.017474 0.0246319 -1.06659e-19)
(-0.00616979 0.00903842 8.88054e-20)
(0.0572791 0.0273107 9.97116e-20)
(0.0127266 0.0352778 0)
(-0.0210853 0.0416065 0)
(-0.0474015 0.047054 -6.94058e-20)
(-0.0665991 0.0516569 7.67262e-20)
(-0.0802323 0.0556388 4.99904e-23)
(-0.0891285 0.0591318 9.21002e-20)
(-0.0941938 0.0622198 -5.04151e-20)
(-0.0961267 0.0649311 5.48816e-20)
(-0.0955289 0.0672324 0)
(-0.0928911 0.0690346 1.29059e-19)
(-0.0886149 0.0701997 -1.38459e-19)
(-0.0830259 0.0705522 7.42666e-20)
(-0.0763877 0.0698942 0)
(-0.0689153 0.068021 4.16717e-20)
(-0.0607853 0.0647365 0)
(-0.0521456 0.0598669 -2.32088e-20)
(-0.0431213 0.0532709 0)
(-0.0338171 0.0448476 -1.25105e-19)
(-0.0243162 0.0345429 1.28869e-19)
(-0.0147146 0.0223326 -1.05671e-19)
(-0.00512662 0.00820382 1.0935e-19)
(-0.0424809 0.0290555 5.03435e-20)
(-0.0684364 0.0349708 -5.64955e-20)
(-0.0868082 0.0396954 1.2538e-19)
(-0.0997169 0.0437263 -1.38783e-19)
(-0.107692 0.047072 7.71314e-20)
(-0.111839 0.049937 1.2713e-19)
(-0.112815 0.0524385 -1.39352e-19)
(-0.111281 0.0546592 5.08972e-20)
(-0.10775 0.0566272 -5.53836e-20)
(-0.102658 0.0583156 0)
(-0.0963617 0.0596461 0)
(-0.0891505 0.0604953 0)
(-0.0812625 0.0607058 1.11382e-19)
(-0.0728934 0.0600991 -3.95225e-20)
(-0.0642063 0.0584895 4.16459e-20)
(-0.0553394 0.0556982 -8.79832e-20)
(-0.0464114 0.0515642 0)
(-0.0375264 0.0459528 0)
(-0.0287717 0.0387619 -9.94267e-20)
(-0.0202145 0.0299282 -2.55854e-20)
(-0.0119455 0.0194042 1.1807e-19)
(-0.00408877 0.00713946 -8.64507e-20)
(-0.112589 0.0278448 -5.06115e-20)
(-0.124104 0.0318054 1.12948e-19)
(-0.130572 0.0350071 -9.41021e-20)
(-0.133339 0.0377194 3.52057e-20)
(-0.132926 0.0399444 0)
(-0.130097 0.0418361 -4.26257e-20)
(-0.125343 0.0434901 4.65416e-20)
(-0.119124 0.0449769 0)
(-0.1118 0.0463211 -5.54724e-20)
(-0.103667 0.0475012 5.99612e-20)
(-0.0949701 0.0484509 0)
(-0.085907 0.0490646 -6.95236e-20)
(-0.0766443 0.0492071 9.27453e-20)
(-0.0673227 0.048724 3.93875e-20)
(-0.0580644 0.0474544 -1.8785e-19)
(-0.0489778 0.0452424 8.7881e-20)
(-0.040161 0.041947 -9.19398e-20)
(-0.0317046 0.0374484 9.57606e-20)
(-0.0236877 0.0316537 9.89923e-20)
(-0.0161727 0.0244998 -1.14716e-19)
(-0.00925759 0.0159287 9.10365e-20)
(-0.00309005 0.00586621 -1.7117e-19)
(-0.15476 0.023939 -5.07776e-20)
(-0.155626 0.0262909 0)
(-0.153459 0.0282094 6.34986e-20)
(-0.149089 0.0298177 -3.47238e-20)
(-0.142928 0.0311217 1.62265e-22)
(-0.135474 0.0322249 -4.25582e-20)
(-0.127062 0.0331989 -4.68749e-20)
(-0.117988 0.0340976 0)
(-0.108476 0.0349405 0)
(-0.0987121 0.035711 0)
(-0.0888439 0.0363564 0)
(-0.0789965 0.0367921 1.73924e-20)
(-0.069278 0.0369084 5.57635e-20)
(-0.0597854 0.036579 -7.90005e-20)
(-0.0506085 0.0356718 2.09208e-20)
(-0.0418326 0.034059 -8.78248e-20)
(-0.0335398 0.0316253 1.72258e-19)
(-0.025811 0.0282743 -1.07523e-19)
(-0.0187211 0.0239325 0)
(-0.0123328 0.0185518 1.27242e-20)
(-0.00675732 0.0120802 0)
(-0.00217282 0.00444184 -1.06348e-20)
(-0.169372 0.0180061 -2.53461e-20)
(-0.163304 0.0191834 0)
(-0.155734 0.0201454 3.18673e-20)
(-0.147157 0.0209321 3.53326e-20)
(-0.137835 0.0215563 1.77638e-22)
(-0.128061 0.0220814 0)
(-0.118029 0.0225566 0)
(-0.107899 0.023019 -5.13413e-20)
(-0.0977887 0.0234829 1.11493e-19)
(-0.0877894 0.0239368 -1.20725e-19)
(-0.0779762 0.0243435 6.50088e-20)
(-0.0684149 0.0246414 -1.74667e-20)
(-0.0591686 0.0247491 0)
(-0.0503009 0.0245714 0)
(-0.041877 0.0240076 8.36349e-20)
(-0.0339645 0.0229595 -1.10277e-20)
(-0.0266325 0.0213407 -8.04212e-20)
(-0.0199526 0.0190819 1.19502e-20)
(-0.013994 0.0161373 1.23396e-20)
(-0.00881781 0.012486 0)
(-0.00454438 0.00810426 5.1704e-20)
(-0.00137815 0.00294711 -4.7591e-20)
(-0.156282 0.0112416 2.54914e-20)
(-0.147072 0.0116787 1.42219e-20)
(-0.137402 0.0120302 3.17755e-20)
(-0.127564 0.0122942 -5.30315e-20)
(-0.117671 0.0124879 1.93779e-20)
(-0.107867 0.0126464 0)
(-0.098232 0.0127998 1.17738e-20)
(-0.0888275 0.0129706 -5.15362e-20)
(-0.0796893 0.0131685 6.98603e-20)
(-0.0708419 0.0133883 -6.06513e-20)
(-0.0623061 0.0136083 6.52315e-20)
(-0.054105 0.0137914 0)
(-0.0462684 0.0138861 0)
(-0.0388352 0.0138302 7.93888e-20)
(-0.0318531 0.0135551 -8.38445e-20)
(-0.0253765 0.0129927 5.50467e-20)
(-0.0194643 0.0120824 -3.67051e-23)
(-0.0141786 0.0107795 -4.78414e-20)
(-0.00957854 0.00906307 -5.55278e-20)
(-0.00571608 0.00694196 5.07811e-20)
(-0.0027029 0.00443358 0)
(-0.000745784 0.00155245 7.91367e-21)
(-0.115402 0.00475654 0)
(-0.106931 0.0048269 1.43905e-20)
(-0.0985182 0.00486468 -6.36323e-20)
(-0.0903622 0.00486553 1.75285e-20)
(-0.082467 0.00484596 1.95552e-20)
(-0.0748832 0.00482294 4.31805e-20)
(-0.0676199 0.00481002 -1.06308e-19)
(-0.0606774 0.00481742 1.03227e-19)
(-0.0540447 0.0048502 -1.33336e-19)
(-0.0477082 0.00490753 1.21563e-19)
(-0.0416567 0.00498196 -3.26555e-20)
(-0.0358864 0.00505897 4.45084e-21)
(-0.0304048 0.00511679 3.5549e-23)
(-0.0252318 0.00512681 1.90266e-23)
(-0.0204002 0.00505477 -3.67653e-20)
(-0.0159532 0.00486333 0)
(-0.011941 0.00451637 -4.6103e-20)
(-0.00841708 0.0039857 4.49307e-20)
(-0.00543033 0.00326196 -6.18187e-21)
(-0.00301684 0.00236728 0)
(-0.00125013 0.00135633 -3.25216e-21)
(-0.000288749 0.000339764 -2.63681e-21)
(-0.0471649 0.000597636 -2.50859e-20)
(-0.0432425 0.000589839 2.77041e-20)
(-0.0394002 0.000574239 3.1131e-20)
(-0.0357874 0.000549922 2.62005e-22)
(-0.0323746 0.000524099 -1.8779e-20)
(-0.0291732 0.000500831 1.17713e-22)
(-0.0261701 0.000482836 -2.2776e-20)
(-0.0233505 0.00047222 0)
(-0.0206953 0.000470473 6.74644e-21)
(-0.0181851 0.000478471 2.93077e-20)
(-0.0158027 0.000496274 -3.13923e-20)
(-0.0135353 0.000522781 -4.16663e-21)
(-0.0113767 0.000555273 0)
(-0.00932895 0.000588844 0)
(-0.00740353 0.000615841 -4.51643e-20)
(-0.00562192 0.000625522 4.21563e-20)
(-0.00401505 0.00060436 -1.07465e-23)
(-0.00262196 0.000537803 4.85375e-20)
(-0.001485 0.000415275 -4.72461e-20)
(-0.000639935 0.000239253 1.18496e-23)
(-0.000122702 3.73672e-05 3.09358e-21)
(1.92441e-05 -0.000100593 4.08302e-20)
(1.13628 0.0247353 -6.61665e-20)
(1.09021 0.0264133 1.80325e-20)
(1.04211 0.0281376 2.15866e-20)
(0.991869 0.0299094 -2.50415e-20)
(0.939584 0.0317344 -2.84763e-20)
(0.885347 0.0336192 0)
(0.82925 0.0355666 -1.81313e-20)
(0.771399 0.0375778 -4.13494e-20)
(0.711913 0.0396521 6.73679e-20)
(0.650921 0.0417869 4.10463e-22)
(0.588569 0.0439745 -2.72686e-20)
(0.525021 0.0461913 -7.34518e-24)
(0.460496 0.0483749 -3.29058e-20)
(0.395325 0.0503863 8.77258e-20)
(0.33006 0.0519683 -9.37643e-20)
(0.265604 0.0527189 3.96428e-20)
(0.20332 0.0521028 0)
(0.145092 0.0495055 0)
(0.0931828 0.0443265 0)
(0.0499923 0.0360807 -2.37245e-20)
(0.0187602 0.0244592 1.21594e-20)
(0.00352584 0.0093779 -2.4389e-24)
(1.14072 0.0807136 6.50896e-20)
(1.09511 0.0865085 -3.88312e-20)
(1.04762 0.0925765 -1.65399e-21)
(0.997956 0.0988876 2.45889e-20)
(0.946256 0.105435 2.84689e-20)
(0.892607 0.112222 6.36121e-20)
(0.837097 0.119246 1.8131e-20)
(0.779835 0.126501 0)
(0.72094 0.133979 2.19624e-20)
(0.660541 0.141664 7.42173e-20)
(0.598781 0.149525 0)
(0.53582 0.157473 -6.01772e-20)
(0.471863 0.165281 6.40828e-20)
(0.407209 0.172456 1.69223e-20)
(0.342353 0.178097 -5.60482e-20)
(0.278104 0.180811 3.94722e-20)
(0.215705 0.178761 0)
(0.156896 0.169856 0)
(0.103793 0.152065 -9.06301e-20)
(0.0586714 0.123752 9.31864e-20)
(0.0246831 0.0838882 1.08827e-19)
(0.00582569 0.0322004 -1.57757e-19)
(1.14942 0.136695 -1.28155e-19)
(1.10477 0.146623 -7.62035e-20)
(1.05852 0.156957 2.56082e-19)
(1.01004 0.167689 5.28655e-20)
(0.959523 0.178809 -5.45045e-20)
(0.907062 0.190326 -6.34865e-20)
(0.852749 0.20224 0)
(0.796695 0.214544 0)
(0.739018 0.227225 4.23526e-20)
(0.679845 0.24026 -4.91605e-20)
(0.619317 0.253596 -5.26495e-20)
(0.557583 0.267084 -5.74083e-20)
(0.494815 0.280338 -6.21641e-20)
(0.431248 0.292518 1.02425e-19)
(0.367254 0.30209 -1.4431e-19)
(0.303455 0.306687 7.67296e-20)
(0.24084 0.30319 0)
(0.180857 0.288055 1.69988e-19)
(0.125329 0.257845 -1.75732e-19)
(0.0762832 0.209801 0)
(0.0366965 0.142195 0)
(0.0104891 0.0545789 7.7161e-20)
(1.16147 0.189936 -1.61105e-22)
(1.11836 0.203877 0)
(1.07407 0.218337 -2.45155e-21)
(1.02745 0.233371 0)
(0.978777 0.248954 -5.47204e-20)
(0.928162 0.265099 -1.24059e-19)
(0.875696 0.281803 6.79395e-20)
(0.821493 0.299056 0)
(0.765675 0.316841 -2.90687e-21)
(0.70837 0.335126 0)
(0.649713 0.353836 -4.87833e-20)
(0.589838 0.372763 5.72698e-20)
(0.528873 0.391366 1.84921e-19)
(0.466956 0.408464 -6.62027e-20)
(0.404276 0.421904 -6.83563e-20)
(0.341173 0.428369 -1.86547e-19)
(0.278259 0.423491 1.55474e-19)
(0.216544 0.40232 1.63474e-19)
(0.157415 0.360065 -1.69047e-19)
(0.102528 0.292902 0)
(0.0546009 0.198458 4.3963e-20)
(0.0174369 0.0761483 -1.48629e-19)
(1.17683 0.240574 1.22605e-19)
(1.13579 0.258397 5.57759e-21)
(1.0941 0.276784 -4.02176e-19)
(1.04993 0.295915 1.79731e-19)
(1.0037 0.315745 -1.05504e-19)
(0.955537 0.336291 -3.5695e-21)
(0.905519 0.357553 1.96979e-19)
(0.853772 0.379519 -1.49053e-19)
(0.80042 0.402169 1.57822e-19)
(0.745594 0.425465 8.78876e-20)
(0.689421 0.449313 -2.23626e-21)
(0.632017 0.473449 1.08722e-19)
(0.573451 0.497182 2.34216e-19)
(0.513731 0.519007 -3.12356e-19)
(0.452808 0.536172 6.81951e-20)
(0.390646 0.544442 0)
(0.327359 0.538246 0)
(0.263381 0.511285 7.47964e-20)
(0.199528 0.457489 -3.88133e-20)
(0.136971 0.372039 0)
(0.078094 0.251985 -4.39576e-20)
(0.0265479 0.0966419 3.41019e-20)
(1.19507 0.287317 -1.13186e-19)
(1.15663 0.30885 1.36206e-19)
(1.11815 0.330926 1.55402e-19)
(1.07703 0.353922 -1.71119e-19)
(1.03383 0.37776 -2.00478e-19)
(0.988689 0.40246 -1.14826e-19)
(0.941696 0.428025 3.68008e-19)
(0.892982 0.454445 0)
(0.842675 0.481696 7.07675e-20)
(0.790904 0.509738 -8.74597e-20)
(0.737795 0.538459 1.89561e-21)
(0.683438 0.567546 -9.7052e-20)
(0.627833 0.59617 0)
(0.570829 0.622517 0)
(0.512084 0.643267 6.01685e-20)
(0.4511 0.65331 0)
(0.387377 0.645925 -2.77089e-19)
(0.320642 0.613537 5.02588e-19)
(0.25101 0.548873 1.11481e-19)
(0.179069 0.446209 -3.08921e-19)
(0.106799 0.302092 0)
(0.0376697 0.115795 9.77638e-20)
(1.21575 0.32959 1.07044e-19)
(1.18041 0.354603 -1.28217e-19)
(1.1457 0.380071 1.41575e-19)
(1.10814 0.406639 -3.25455e-19)
(1.0685 0.434184 3.71242e-19)
(1.0269 0.462734 -9.87019e-20)
(0.983462 0.492295 1.16685e-19)
(0.93831 0.522858 -3.84278e-19)
(0.891582 0.554399 -1.49096e-19)
(0.843411 0.586871 0)
(0.793914 0.620153 3.4849e-19)
(0.743155 0.653884 -9.67478e-20)
(0.691054 0.687115 3.01488e-19)
(0.637276 0.717746 -2.16517e-19)
(0.581131 0.741928 1.70962e-19)
(0.521579 0.753722 5.8303e-20)
(0.457394 0.745327 -5.69263e-19)
(0.387471 0.707964 2.64774e-19)
(0.311106 0.633246 -6.5215e-21)
(0.228209 0.514635 0)
(0.140298 0.348264 0)
(0.0506376 0.133413 -2.87605e-20)
(1.2382 0.366696 0)
(1.20646 0.394943 0)
(1.17603 0.423489 -1.36592e-19)
(1.14253 0.453305 3.00472e-19)
(1.10693 0.484214 5.12146e-19)
(1.06938 0.51625 1.92277e-19)
(1.02997 0.54943 -3.19365e-19)
(0.98886 0.583749 1.25145e-19)
(0.946189 0.619187 1.28157e-19)
(0.902095 0.655698 1.40446e-19)
(0.856693 0.693154 -8.30704e-20)
(0.810018 0.731162 8.34133e-20)
(0.761907 0.768667 -4.68014e-19)
(0.71182 0.803318 2.91719e-19)
(0.658678 0.83078 -9.9333e-20)
(0.600824 0.844344 -5.77421e-20)
(0.536201 0.835193 -2.22758e-19)
(0.46275 0.793422 7.48039e-22)
(0.378835 0.709622 1.8149e-19)
(0.283605 0.576535 2.54775e-19)
(0.178064 0.389972 -2.61362e-19)
(0.0652438 0.149297 2.47128e-19)
(1.26165 0.398066 -1.92248e-19)
(1.23397 0.429219 1.03247e-19)
(1.20825 0.460473 2.42234e-19)
(1.1792 0.493182 -1.46038e-19)
(1.14805 0.527102 -3.17899e-19)
(1.11494 0.562277 -1.7622e-19)
(1.07999 0.598728 -9.34998e-20)
(1.04336 0.636448 -2.22693e-19)
(1.0052 0.67542 3.59489e-19)
(0.965652 0.715598 -6.71456e-19)
(0.924828 0.75685 2.8803e-19)
(0.882734 0.798758 0)
(0.839114 0.840186 -2.4583e-19)
(0.793208 0.878567 8.38732e-20)
(0.743508 0.909134 9.87165e-20)
(0.687667 0.924477 9.13442e-20)
(0.6227 0.914836 -1.47766e-19)
(0.545479 0.869267 1.63385e-21)
(0.45333 0.777428 2.16433e-19)
(0.344565 0.631442 0)
(0.219633 0.426902 0)
(0.0813095 0.163332 0)
(1.28523 0.423548 -5.33805e-21)
(1.2621 0.457321 0)
(1.24149 0.490932 -1.18329e-19)
(1.21731 0.526135 -1.30496e-19)
(1.19101 0.562615 4.41059e-19)
(1.16271 0.60044 -1.55076e-19)
(1.13255 0.639649 6.65681e-21)
(1.10073 0.680249 2.00686e-19)
(1.0674 0.722232 -2.17685e-19)
(1.03272 0.765561 -2.39213e-19)
(0.996797 0.810107 1.35639e-19)
(0.959629 0.855447 1.30451e-19)
(0.920872 0.900387 1.47426e-19)
(0.879542 0.94219 -3.0938e-19)
(0.833678 0.975714 3.27567e-19)
(0.780191 0.992909 -9.07448e-20)
(0.71507 0.983145 0)
(0.634007 0.93451 -2.18749e-19)
(0.533177 0.835817 1.74696e-21)
(0.409981 0.678674 4.20473e-19)
(0.264272 0.458578 -2.3807e-19)
(0.0985481 0.175324 0)
(1.30802 0.442655 -1.64414e-19)
(1.2898 0.4786 1.75881e-19)
(1.2745 0.514182 -9.36448e-20)
(1.2554 0.551552 -1.09128e-19)
(1.23422 0.590297 -4.62626e-21)
(1.21105 0.630486 0)
(1.18605 0.672159 1.6996e-19)
(1.15943 0.715322 1.68679e-19)
(1.13134 0.75997 -9.18628e-20)
(1.10196 0.806073 0)
(1.07139 0.85351 -1.0556e-19)
(1.03962 0.901857 -2.39747e-19)
(1.0062 0.949886 1.88571e-19)
(0.969936 0.994733 2.64565e-19)
(0.928377 1.03095 -2.80361e-19)
(0.877629 1.04992 6.49065e-20)
(0.812574 1.04024 1.43377e-19)
(0.727618 0.989142 -1.75335e-19)
(0.617705 0.88469 -1.15801e-19)
(0.479276 0.718092 7.77463e-20)
(0.311572 0.484874 2.03011e-19)
(0.116797 0.185231 -1.32883e-19)
(1.32912 0.45613 0)
(1.3164 0.494022 -1.73242e-19)
(1.30678 0.531152 1.6671e-20)
(1.29311 0.570128 1.10038e-19)
(1.27724 0.610494 -1.2316e-19)
(1.25933 0.652368 1.30746e-19)
(1.23956 0.695812 -2.7862e-19)
(1.21819 0.740848 -1.66212e-19)
(1.1954 0.787486 9.05503e-20)
(1.17137 0.835706 -1.82513e-19)
(1.14624 0.885406 1.05549e-19)
(1.11998 0.936183 1.11471e-19)
(1.09208 0.986818 -2.13177e-19)
(1.06115 1.03438 3.29224e-19)
(1.02426 1.07316 5.17369e-20)
(0.976702 1.09408 -1.16094e-19)
(0.91216 1.08498 0)
(0.823632 1.03226 6.58097e-20)
(0.704698 0.923327 3.16661e-20)
(0.550763 0.749103 -2.27993e-19)
(0.36044 0.505337 1.21114e-19)
(0.135633 0.192847 -1.02905e-19)
(1.34756 0.462828 0)
(1.34042 0.502202 1.50921e-19)
(1.3364 0.540766 -1.59882e-19)
(1.32833 0.581314 1.86304e-19)
(1.31811 0.623284 1.04672e-19)
(1.30585 0.666791 -2.23601e-19)
(1.29176 0.711905 2.52472e-19)
(1.2761 0.758659 -2.65033e-19)
(1.25908 0.807073 1.48127e-19)
(1.2409 0.857138 -7.31225e-20)
(1.2217 0.908764 2.53723e-19)