/*--------------------------------*- C++ -*----------------------------------*\
| =========                 |                                                 |
| \\      /  F ield         | OpenFOAM Extend Project: Open source CFD        |
|  \\    /   O peration     | Version:  1.6-ext                               |
|   \\  /    A nd           | Web:      www.extend-project.de                 |
|    \\/     M anipulation  |                                                 |
\*---------------------------------------------------------------------------*/
FoamFile
{
    version     2.0;
    format      ascii;
    class       volVectorField;
    location    "0.7";
    object      U_0;
}
// * * * * * * * * * * * * * * * * * * * * * * * * * * * * * * * * * * * * * //

dimensions      [0 1 -1 0 0 0 0];

internalField   nonuniform List<vector> 
20940
(
(1.85079 0.396904 0)
(1.89055 0.416999 -3.00641e-21)
(1.9282 0.436381 3.33657e-21)
(1.96289 0.454002 0)
(1.99435 0.470075 6.71328e-21)
(2.02092 0.483477 1.74094e-20)
(2.03963 0.493102 -2.03442e-20)
(2.04568 0.497006 6.47182e-21)
(2.03267 0.492955 -7.81618e-21)
(1.99348 0.478704 -9.66315e-21)
(1.92186 0.452704 -8.18275e-22)
(1.81419 0.414712 1.21337e-20)
(1.67089 0.366151 0)
(1.49683 0.310006 1.57563e-23)
(1.30048 0.250289 0)
(1.09233 0.191265 9.44009e-21)
(0.882916 0.136749 -1.02599e-23)
(0.681383 0.0896539 0)
(0.494573 0.0517995 0)
(0.326808 0.0239648 -1.21181e-23)
(0.180126 0.00663316 6.23482e-21)
(0.0547437 0.000490835 0)
(1.87773 0.373469 4.43095e-21)
(1.91622 0.392415 -7.39247e-21)
(1.95229 0.409991 0)
(1.98481 0.425835 -1.17148e-20)
(2.01298 0.439611 2.11053e-20)
(2.03429 0.450119 -7.10487e-21)
(2.04474 0.455948 3.23525e-20)
(2.03859 0.455064 2.05118e-20)
(2.00905 0.445397 -7.21905e-21)
(1.9496 0.425255 0)
(1.85571 0.39399 2.22312e-20)
(1.72645 0.352409 -4.92268e-20)
(1.5652 0.302833 -1.28883e-21)
(1.37928 0.248718 1.5094e-20)
(1.17857 0.193981 -3.44119e-20)
(0.973652 0.142299 2.69773e-20)
(0.774143 0.0965978 0)
(0.587653 0.0588374 -2.12247e-20)
(0.419364 0.0300009 2.20735e-20)
(0.272142 0.010241 0)
(0.146964 -0.000379112 -6.19769e-21)
(0.0434431 -0.00141483 0)
(1.90246 0.34999 -9.3596e-21)
(1.93936 0.36786 1.28658e-20)
(1.97329 0.383739 0)
(2.00278 0.397819 1.08359e-21)
(2.02625 0.409198 -2.72973e-20)
(2.04018 0.416591 -1.76992e-20)
(2.03954 0.418345 -6.72065e-20)
(2.01792 0.412496 3.99682e-20)
(1.96875 0.397349 -3.02399e-20)
(1.88685 0.371964 0)
(1.77015 0.33667 -6.46451e-20)
(1.62069 0.293214 2.31862e-20)
(1.44464 0.244527 -2.65527e-20)
(1.25116 0.19416 -4.54528e-20)
(1.05064 0.145608 6.43713e-20)
(0.853031 0.10177 -3.56993e-20)
(0.666511 0.0646609 1.89961e-20)
(0.496972 0.0353941 -4.06132e-20)
(0.347984 0.0142839 4.2243e-20)
(0.221121 0.0010271 4.4899e-20)
(0.116489 -0.0046084 -4.62021e-20)
(0.0332443 -0.00237111 0)
(1.92604 0.326843 0)
(1.96088 0.343709 -3.07302e-20)
(1.99187 0.357932 0)
(2.01702 0.370155 -1.22113e-21)
(2.03373 0.378904 3.1997e-20)
(2.03739 0.382844 2.26295e-21)
(2.02211 0.380202 1.14105e-19)
(1.98136 0.369294 4.32538e-21)
(1.90957 0.349028 -6.0502e-20)
(1.80377 0.31936 -1.36689e-21)
(1.66487 0.281563 6.13907e-20)
(1.49792 0.238097 7.14825e-20)
(1.31131 0.192144 -5.2084e-20)
(1.11517 0.146984 1.1473e-19)
(0.919542 0.105445 -6.17857e-20)
(0.733044 0.069566 0)
(0.562117 0.0405182 1.85058e-20)
(0.410898 0.0187159 0)
(0.281484 0.00397777 0)
(0.174375 -0.00429992 -4.28539e-20)
(0.0890036 -0.00653008 4.41078e-20)
(0.0242131 -0.00257741 0)
(1.94819 0.304101 0)
(1.98032 0.319963 3.05946e-20)
(2.00721 0.332486 0)
(2.02614 0.342657 5.04552e-20)
(2.03332 0.348458 3.27674e-20)
(2.02315 0.348598 -1.11413e-19)
(1.98933 0.34137 -4.48685e-20)
(1.92602 0.325607 0)
(1.82958 0.300999 0)
(1.69995 0.26843 -3.59233e-20)
(1.54121 0.229946 -3.9881e-20)
(1.361 0.188379 0)
(1.16906 0.146783 2.53455e-20)
(0.975467 0.107882 -8.30298e-20)
(0.789124 0.0737074 5.9146e-20)
(0.616902 0.0454729 -6.5071e-20)
(0.46339 0.023643 1.02166e-19)
(0.331099 0.00810976 0)
(0.220891 -0.00163649 0)
(0.132431 -0.00636593 -1.98302e-20)
(0.0646945 -0.00657881 -2.06696e-20)
(0.0163526 -0.00219775 0)
(1.96841 0.281836 9.65361e-22)
(1.99685 0.296647 -6.64668e-20)
(2.01793 0.307332 0)
(2.02804 0.315145 -2.75465e-20)
(2.02217 0.317626 6.07719e-20)
(1.99413 0.313688 3.78636e-20)
(1.93798 0.301925 -4.68954e-20)
(1.84955 0.281901 1.04023e-19)
(1.728 0.254168 -6.26447e-20)
(1.57656 0.220418 -3.08055e-21)
(1.40215 0.183162 1.16583e-19)
(1.21415 0.145223 4.29248e-20)
(1.02256 0.109205 0)
(0.836497 0.0771082 -2.68707e-20)
(0.663158 0.0501706 0)
(0.507496 0.0289016 0)
(0.372351 0.0132326 -6.58408e-20)
(0.258857 0.00270879 3.4186e-20)
(0.166917 -0.00336389 7.42663e-20)
(0.0956193 -0.00581801 -5.71007e-20)
(0.0436597 -0.00517587 2.06554e-20)
(0.00966037 -0.00138314 5.10457e-20)
(1.98626 0.25986 -2.8349e-21)
(2.00945 0.273439 6.8099e-20)
(2.02223 0.282025 -4.63631e-20)
(2.02005 0.287119 -1.4901e-21)
(1.99697 0.285979 -6.53351e-20)
(1.94694 0.277936 -7.96974e-20)
(1.86542 0.262104 8.74293e-20)
(1.75091 0.2389 -1.04499e-19)
(1.60588 0.209666 0)
(1.43665 0.176633 0)
(1.25222 0.1424 0)
(1.06251 0.109441 -1.69103e-19)
(0.876781 0.0797087 4.32448e-20)
(0.702498 0.0544506 -2.01927e-21)
(0.544903 0.0342142 1.08106e-19)
(0.407096 0.0189743 0)
(0.290421 0.00830735 -4.09063e-22)
(0.194943 0.00156244 -3.50287e-20)
(0.119895 -0.00202762 -8.94362e-22)
(0.0640087 -0.0032858 7.33829e-20)
(0.0258542 -0.00271626 -7.74281e-20)
(0.00409042 -0.000269858 8.07323e-20)
(2.00026 0.238115 0)
(2.01593 0.250218 0)
(2.01711 0.256394 0)
(1.99851 0.258419 -5.55824e-20)
(1.95393 0.253527 -3.01782e-21)
(1.87852 0.241687 -2.6623e-21)
(1.77022 0.222696 8.95127e-20)
(1.63085 0.197795 -5.34892e-20)
(1.46621 0.168883 1.726e-19)
(1.28495 0.138367 1.7406e-21)
(1.09692 0.108581 -7.21579e-20)
(0.911511 0.0814217 4.10685e-20)
(0.736399 0.0581329 -4.50907e-20)
(0.577076 0.039293 9.7297e-20)
(0.436855 0.0249205 -2.0866e-19)
(0.317236 0.014633 -1.7388e-21)
(0.218398 0.00780709 2.09222e-19)
(0.139654 0.00371173 -1.26542e-19)
(0.0798207 0.00158241 1.35283e-19)
(0.0374572 0.000649109 -1.05715e-19)
(0.0111216 0.000446435 -3.60146e-20)
(-0.000434751 0.00102418 6.18371e-20)
(2.00914 0.216045 0)
(2.01401 0.22629 0)
(1.99943 0.229727 9.60765e-20)
(1.95991 0.228534 1.26597e-21)
(1.89004 0.220165 0)
(1.78735 0.205367 -4.55981e-22)
(1.65306 0.18463 -8.87272e-20)
(1.49249 0.159814 -1.02833e-19)
(1.314 0.133039 5.46548e-20)
(1.12741 0.10653 1.91927e-19)
(0.9422 0.0821093 -6.9806e-20)
(0.766286 0.0610163 7.66551e-20)
(0.605371 0.0438548 0)
(0.462948 0.0306863 1.38736e-19)
(0.340644 0.0211756 -9.91889e-20)
(0.23871 0.0147406 -5.28124e-20)
(0.156502 0.0106768 -5.64101e-20)
(0.0928662 0.00825227 0)
(0.04641 0.00675066 0)
(0.015655 0.00547653 1.01278e-19)
(-0.000777294 0.00401038 -1.38711e-19)
(-0.00401409 0.0024014 0)
(2.00945 0.193713 0)
(1.99966 0.201795 0)
(1.9649 0.202358 4.98426e-20)
(1.90056 0.198072 5.70559e-20)
(1.80322 0.186872 0)
(1.67375 0.170319 7.63063e-20)
(1.51691 0.149451 -8.72752e-20)
(1.3409 0.126433 0)
(1.15548 0.103252 -5.50608e-20)
(0.970323 0.0816905 -1.87198e-19)
(0.793547 0.0629593 1.35109e-19)
(0.631082 0.0476857 -7.59865e-20)
(0.486589 0.035972 1.75477e-21)
(0.361802 0.0275323 -1.33333e-19)
(0.257025 0.0218331 4.72904e-20)
(0.171629 0.0182115 1.68665e-21)
(0.104458 0.0159624 1.10317e-19)
(0.0541206 0.0143994 0)
(0.0191663 0.0128768 1.24187e-19)
(-0.00182939 0.0107801 -1.28995e-19)
(-0.010139 0.0077354 3.4464e-20)
(-0.00676008 0.00378678 -2.80895e-20)
(1.99949 0.17009 -6.49146e-20)
(1.97021 0.175753 8.28339e-20)
(1.91105 0.173561 -9.57268e-20)
(1.81919 0.166823 1.05813e-21)
(1.69435 0.154032 0)
(1.54111 0.137361 7.72015e-20)
(1.36731 0.118122 8.89144e-20)
(1.18281 0.0984289 8.17862e-22)
(0.997453 0.0798766 5.44594e-20)
(0.819642 0.0636921 0)
(0.655543 0.0505082 0)
(0.508991 0.0404713 7.15295e-20)
(0.38182 0.0333463 7.9927e-20)
(0.274371 0.0286535 0)
(0.186015 0.0257801 -4.6889e-20)
(0.115574 0.0240633 9.93426e-20)
(0.0616322 0.022845 -5.38585e-20)
(0.0227278 0.0215079 0)
(-0.00254297 0.019484 0)
(-0.0154987 0.0162388 0)
(-0.017289 0.0114405 0)
(-0.00878941 0.00512514 2.81651e-20)
(1.97321 0.146312 -7.2602e-20)
(1.92103 0.149657 -1.21567e-21)
(1.83478 0.145235 0)
(1.71534 0.136945 5.84577e-20)
(1.56589 0.123858 0)
(1.39444 0.10851 7.50873e-20)
(1.21075 0.0922095 0)
(1.02501 0.0767392 -9.51944e-20)
(0.845946 0.0631851 0)
(0.680031 0.0522243 0)
(0.531314 0.0440247 -1.28745e-19)
(0.401741 0.0384005 6.82488e-20)
(0.291688 0.0349225 0)
(0.200514 0.0330288 0)
(0.127005 0.0321038 0)
(0.0697063 0.0315293 -1.22093e-21)
(0.0271247 0.0307152 0)
(-0.00215697 0.0291196 1.09073e-19)
(-0.0194355 0.0262502 -1.70684e-19)
(-0.0258981 0.0216467 -1.20753e-19)
(-0.0225707 0.0150164 1.25091e-19)
(-0.0102233 0.00638673 -1.0724e-19)
(1.93242 0.120405 0)
(1.85274 0.121783 0)
(1.73859 0.116136 0)
(1.5935 0.107681 -1.71909e-19)
(1.42433 0.0960069 6.42907e-20)
(1.24137 0.0835185 -7.40515e-20)
(1.05493 0.0713138 0)
(0.874245 0.0606668 0)
(0.706151 0.0521713 1.14287e-21)
(0.554973 0.0460558 -1.12322e-19)
(0.422794 0.0421738 -1.86404e-19)
(0.310038 0.0401521 6.74601e-20)
(0.216043 0.0394824 7.41412e-20)
(0.139548 0.0395993 -1.59728e-19)
(0.0790444 0.0399295 1.28331e-19)
(0.0329918 0.0399205 -4.67848e-20)
(-5.77636e-05 0.0390564 0)
(-0.0214101 0.0368677 -5.18661e-20)
(-0.0322257 0.0329323 1.39955e-21)
(-0.0335546 0.0268576 0)
(-0.0263079 0.0183894 -9.18096e-20)
(-0.0111715 0.00755139 1.04043e-19)
(1.86695 0.0967505 -7.03179e-20)
(1.76235 0.0968326 -8.77547e-20)
(1.62205 0.0907773 1.98799e-19)
(1.45662 0.0831693 6.01909e-20)
(1.27474 0.0738097 -6.40474e-20)
(1.08782 0.0647755 7.29998e-20)
(0.905373 0.0568738 0)
(0.734852 0.0508328 0)
(0.580909 0.0468375 2.0135e-19)
(0.445857 0.0447861 -1.09564e-19)
(0.330199 0.044342 7.4946e-22)
(0.233272 0.0450448 6.62776e-20)
(0.153772 0.0463757 -7.09879e-20)
(0.0901253 0.0478036 7.67983e-20)
(0.0407343 0.048812 -1.24855e-19)
(0.00410723 0.0489134 8.99434e-20)
(-0.0210873 0.0476572 -1.43864e-19)
(-0.0360123 0.0446362 2.02815e-19)
(-0.0416853 0.0394873 5.42941e-20)
(-0.039026 0.0318776 0)
(-0.0288441 0.0215887 8.82012e-20)
(-0.0117567 0.00864364 -7.64118e-20)
(1.79346 0.0695734 7.11469e-20)
(1.65831 0.069222 8.73426e-20)
(1.49613 0.0650386 -9.67357e-20)
(1.31573 0.0595109 -1.12729e-19)
(1.12775 0.0539943 0)
(0.943019 0.0493907 -1.44119e-19)
(0.769321 0.0462736 -6.79823e-22)
(0.611866 0.0448205 0)
(0.473228 0.0449343 9.80352e-20)
(0.35406 0.0463354 -2.14187e-19)
(0.253733 0.0486336 5.78729e-20)
(0.170905 0.0513844 1.27099e-19)
(0.103933 0.0541216 6.98165e-20)
(0.0511397 0.0563794 -2.72678e-22)
(0.0109647 0.0577048 -7.92403e-20)
(-0.0179717 0.0576679 0)
(-0.0368567 0.0558682 -4.67346e-20)
(-0.0467049 0.0519444 -4.96853e-20)
(-0.0483964 0.0455792 0)
(-0.0427314 0.03649 0)
(-0.0304318 0.0244952 1.14469e-19)
(-0.0120623 0.00962607 -2.24015e-19)
(1.64457 0.0499621 0)
(1.4787 0.0469876 -4.72616e-20)
(1.29653 0.0448217 -1.57559e-21)
(1.10919 0.0423052 -5.95152e-20)
(0.926045 0.0410165 -1.36414e-19)
(0.754836 0.0408676 -7.61841e-20)
(0.600181 0.0420618 1.67335e-19)
(0.464414 0.0444164 -9.26258e-20)
(0.347949 0.0476887 2.03779e-19)
(0.249993 0.0515544 -1.10891e-19)
(0.169076 0.0556511 1.21787e-19)
(0.103455 0.0595933 -3.29362e-19)
(0.0513792 0.0629836 1.42144e-19)
(0.0112358 0.0654221 -7.65829e-20)
(-0.0183829 0.0665158 1.65208e-19)
(-0.0386695 0.0658898 4.38561e-20)
(-0.0506232 0.063198 -4.65918e-20)
(-0.0550874 0.0581357 -1.48643e-19)
(-0.0527936 0.0504499 -4.93877e-22)
(-0.0444157 0.0399373 2.17818e-19)
(-0.030578 0.0264924 3.76633e-22)
(-0.0117895 0.0101965 -9.76584e-20)
(1.39071 0.0282918 8.71052e-20)
(1.20663 0.027784 -1.48987e-19)
(1.0231 0.030033 1.64747e-19)
(0.847394 0.031879 0)
(0.685793 0.0352016 1.38914e-19)
(0.541713 0.0390558 0)
(0.4165 0.0436194 0)
(0.309932 0.0485957 9.43083e-20)
(0.220822 0.0537878 -2.06737e-19)
(0.147495 0.0589382 0)
(0.0881247 0.0637697 6.13038e-20)
(0.0409535 0.0679789 1.33229e-19)
(0.0044018 0.0712434 0)
(-0.0228846 0.0732303 7.77088e-20)
(-0.0420346 0.0736087 -8.32789e-20)
(-0.0539778 0.0720642 -4.81057e-22)
(-0.0594827 0.0683129 4.71337e-20)
(-0.0591986 0.0621168 4.97484e-20)
(-0.0536952 0.0532943 5.14468e-20)
(-0.0435047 0.0417223 -1.08168e-19)
(-0.0291261 0.0273691 1.11789e-19)
(-0.0109777 0.0103484 9.60035e-20)
(1.10548 0.0164263 -1.7743e-19)
(0.926231 0.0189896 -1.53127e-21)
(0.760988 0.0251388 0)
(0.610294 0.0302316 0)
(0.478042 0.0364915 -7.1529e-20)
(0.364095 0.042667 -7.91727e-20)
(0.267935 0.0489964 0)
(0.188011 0.0552038 9.61681e-20)
(0.122559 0.0611597 4.04076e-22)
(0.0697365 0.0666694 0)
(0.0278285 0.0715202 -6.23032e-20)
(-0.00468071 0.0754667 -1.35253e-19)
(-0.0290768 0.078239 7.19966e-20)
(-0.0464219 0.0795518 -3.48987e-22)
(-0.0575809 0.0791195 1.66273e-19)
(-0.0632569 0.0766725 -1.32669e-19)
(-0.0640296 0.0719739 9.36861e-20)
(-0.0603917 0.0648351 3.04143e-22)
(-0.0527804 0.0551273 -1.54684e-19)
(-0.0416081 0.0427851 -1.33801e-19)
(-0.0272665 0.0278274 1.93995e-19)
(-0.0100937 0.0103825 -9.42186e-20)
(0.825171 0.0113353 -9.31453e-20)
(0.667565 0.0176357 1.04517e-19)
(0.530934 0.0262885 0)
(0.410343 0.0335752 0)
(0.308309 0.0412968 1.45925e-19)
(0.222608 0.0484716 8.07631e-20)
(0.152006 0.0553436 0)
(0.0945282 0.0617432 0)
(0.0484257 0.0676141 1.06557e-19)
(0.0120388 0.0728283 -1.15527e-19)
(-0.0160659 0.0772268 0)
(-0.0371021 0.080608 -6.80138e-20)
(-0.0520684 0.0827372 0)
(-0.0617739 0.0833598 -3.89167e-20)
(-0.0668694 0.082218 0)
(-0.067881 0.0790692 0)
(-0.0652424 0.0737042 9.34439e-20)
(-0.0593232 0.0659629 -9.78795e-20)
(-0.0504531 0.0557456 0)
(-0.0389425 0.0430183 5.31196e-20)
(-0.0250892 0.0278232 2.76006e-20)
(-0.00915758 0.0102879 0)
(0.573036 0.0126628 9.46572e-20)
(0.445675 0.0217697 -5.39772e-20)
(0.339974 0.0311362 5.97298e-20)
(0.249 0.0392336 1.33852e-19)
(0.174237 0.0470475 -7.38143e-20)
(0.112793 0.0541065 -8.1803e-20)
(0.0633326 0.0606144 0)
(0.0239869 0.0665116 -4.91447e-20)
(-0.00673639 0.0717878 0)
(-0.030193 0.0763587 -5.82816e-20)
(-0.0475116 0.0800967 1.26756e-19)
(-0.0596282 0.0828245 -6.82817e-20)
(-0.0673022 0.0843282 0)
(-0.0711437 0.0843708 3.93484e-20)
(-0.0716413 0.0827111 1.25044e-19)
(-0.0691894 0.0791228 -8.82508e-20)
(-0.0641132 0.0734119 9.31539e-20)
(-0.0566894 0.0654325 1.37483e-22)
(-0.0471632 0.0550969 -1.01583e-19)
(-0.0357617 0.042382 7.8846e-20)
(-0.0227047 0.0273314 -1.08459e-19)
(-0.00819198 0.0100536 -2.26376e-20)
(0.360885 0.0174581 -4.82128e-20)
(0.264924 0.0276602 0)
(0.187619 0.0365753 -6.11731e-20)
(0.122663 0.0443726 6.7662e-20)
(0.0706761 0.05144 -7.48093e-20)
(0.0289951 0.0577143 8.29084e-20)
(-0.00357933 0.0633602 -4.53629e-20)
(-0.0286 0.0683984 4.98315e-20)
(-0.0472561 0.0728423 0)
(-0.060605 0.0766346 5.90347e-20)
(-0.0695134 0.0796654 6.34955e-20)
(-0.0746939 0.081773 -6.88203e-20)
(-0.0767215 0.0827562 0)
(-0.0760576 0.0823906 7.86072e-20)
(-0.0730715 0.0804462 -4.17715e-20)
(-0.0680617 0.0767066 -8.81613e-20)
(-0.0612739 0.0709856 -2.30905e-20)
(-0.0529162 0.0631411 0)
(-0.0431694 0.0530853 1.00992e-19)
(-0.0321954 0.0407911 1.28696e-23)
(-0.0201535 0.0262871 -1.07408e-19)
(-0.00719523 0.00964754 1.01125e-19)
(0.190202 0.0230446 -9.82852e-20)
(0.122346 0.0326726 0)
(0.0690471 0.040475 0)
(0.0255666 0.0472632 0)
(-0.00810198 0.0531617 -7.55587e-20)
(-0.034068 0.0583267 -8.32675e-20)
(-0.0533422 0.0629024 9.15678e-20)
(-0.0671323 0.0669549 -1.00054e-19)
(-0.076359 0.0705082 -1.09292e-19)
(-0.0818275 0.0735201 1.18298e-19)
(-0.0841955 0.0758917 -1.27968e-19)
(-0.0840015 0.0774728 0)
(-0.0816801 0.0780739 -3.67443e-20)
(-0.0775812 0.0774822 0)
(-0.0719859 0.0754788 0)
(-0.0651228 0.071856 0)
(-0.0571803 0.0664328 4.62463e-20)
(-0.0483171 0.0590668 9.65855e-20)
(-0.0386682 0.0496638 -7.53489e-20)
(-0.0283478 0.0381844 0)
(-0.017474 0.0246322 -1.06319e-19)
(-0.00616983 0.00903859 8.85224e-20)
(0.0573141 0.0273137 9.93895e-20)
(0.0127522 0.0352831 0)
(-0.021067 0.0416135 0)
(-0.0473892 0.047062 -6.91859e-20)
(-0.0665913 0.0516656 7.64839e-20)
(-0.0802281 0.0556478 5.03387e-23)
(-0.0891269 0.059141 9.1808e-20)
(-0.0941941 0.062229 -5.02549e-20)
(-0.0961284 0.0649402 5.4707e-20)
(-0.0955314 0.0672412 0)
(-0.0928942 0.0690433 1.28648e-19)
(-0.0886183 0.0702081 -1.38017e-19)
(-0.0830294 0.0705603 7.40305e-20)
(-0.0763912 0.0699019 0)
(-0.0689186 0.0680281 4.15373e-20)
(-0.0607883 0.0647427 0)
(-0.052148 0.0598721 -2.31345e-20)
(-0.0431231 0.0532748 0)
(-0.0338181 0.0448501 -1.24701e-19)
(-0.0243166 0.0345441 1.28452e-19)
(-0.0147147 0.0223331 -1.05329e-19)
(-0.00512671 0.00820413 1.08995e-19)
(-0.0424651 0.0290596 5.01811e-20)
(-0.068427 0.0349769 -5.63149e-20)
(-0.0868034 0.0397029 1.2498e-19)
(-0.0997157 0.0437346 -1.38341e-19)
(-0.107693 0.0470806 7.68867e-20)
(-0.111842 0.0499459 1.26726e-19)
(-0.11282 0.0524473 -1.38909e-19)
(-0.111286 0.0546679 5.07356e-20)
(-0.107755 0.0566357 -5.52075e-20)
(-0.102664 0.0583239 0)
(-0.0963669 0.0596542 0)
(-0.0891553 0.0605032 0)
(-0.081267 0.0607134 1.11023e-19)
(-0.0728975 0.0601064 -3.93956e-20)
(-0.0642099 0.0584963 4.151e-20)
(-0.0553425 0.0557043 -8.76977e-20)
(-0.0464139 0.0515693 0)
(-0.0375281 0.0459566 0)
(-0.0287727 0.0387644 -9.91012e-20)
(-0.020215 0.0299295 -2.55015e-20)
(-0.0119456 0.0194049 1.17683e-19)
(-0.00408891 0.00713993 -8.61667e-20)
(-0.11259 0.0278488 -5.04479e-20)
(-0.124108 0.0318111 1.12585e-19)
(-0.130578 0.0350139 -9.38003e-20)
(-0.133347 0.0377269 3.50938e-20)
(-0.132935 0.0399522 0)
(-0.130106 0.0418439 -4.249e-20)
(-0.125352 0.0434978 4.63929e-20)
(-0.119133 0.0449844 0)
(-0.111808 0.0463285 -5.52945e-20)
(-0.103675 0.0475084 5.97688e-20)
(-0.0949765 0.0484579 0)
(-0.0859127 0.0490715 -6.92984e-20)
(-0.0766492 0.0492139 9.24445e-20)
(-0.0673269 0.0487306 3.92582e-20)
(-0.0580679 0.0474607 -1.87236e-19)
(-0.0489806 0.0452481 8.7593e-20)
(-0.0401631 0.0419518 -9.16366e-20)
(-0.031706 0.0374522 9.54447e-20)
(-0.0236886 0.0316562 9.8664e-20)
(-0.0161731 0.0245013 -1.14336e-19)
(-0.00925776 0.0159296 9.07327e-20)
(-0.00309021 0.00586689 -1.706e-19)
(-0.154772 0.0239425 -5.06131e-20)
(-0.15564 0.0262956 0)
(-0.153474 0.0282149 6.32953e-20)
(-0.149104 0.0298237 -3.46122e-20)
(-0.142941 0.0311279 1.61813e-22)
(-0.135486 0.0322311 -4.24222e-20)
(-0.127074 0.0332049 -4.67252e-20)
(-0.117998 0.0341035 0)
(-0.108486 0.0349463 0)
(-0.0987201 0.0357166 0)
(-0.0888506 0.036362 0)
(-0.0790021 0.0367977 1.73359e-20)
(-0.0692826 0.0369139 5.55808e-20)
(-0.0597891 0.0365845 -7.8742e-20)
(-0.0506114 0.0356773 2.08522e-20)
(-0.0418348 0.0340641 -8.75334e-20)
(-0.0335413 0.0316297 1.71685e-19)
(-0.0258119 0.0282779 -1.07164e-19)
(-0.0187215 0.0239351 0)
(-0.0123329 0.0185535 1.26817e-20)
(-0.00675744 0.0120814 0)
(-0.00217301 0.00444286 -1.0599e-20)
(-0.169392 0.0180084 -2.52638e-20)
(-0.163324 0.0191865 0)
(-0.155753 0.0201491 3.17651e-20)
(-0.147175 0.0209361 3.52198e-20)
(-0.137851 0.0215604 1.77212e-22)
(-0.128075 0.0220854 0)
(-0.118041 0.0225605 0)
(-0.10791 0.0230229 -5.11765e-20)
(-0.0977978 0.0234867 1.11135e-19)
(-0.087797 0.0239406 -1.20335e-19)
(-0.0779823 0.0243474 6.47985e-20)
(-0.0684198 0.0246454 -1.74099e-20)
(-0.0591724 0.0247532 0)
(-0.0503036 0.0245757 0)
(-0.0418788 0.0240119 8.33567e-20)
(-0.0339654 0.0229638 -1.09926e-20)
(-0.0266328 0.0213446 -8.01518e-20)
(-0.0199525 0.0190853 1.19101e-20)
(-0.0139936 0.0161401 1.22975e-20)
(-0.00881748 0.0124883 0)
(-0.00454436 0.00810629 5.15268e-20)
(-0.00137837 0.00294878 -4.74276e-20)
(-0.156306 0.0112426 2.54088e-20)
(-0.147094 0.0116802 1.41761e-20)
(-0.137422 0.012032 3.16735e-20)
(-0.127582 0.012296 -5.28619e-20)
(-0.117687 0.0124898 1.93159e-20)
(-0.10788 0.0126484 0)
(-0.0982439 0.0128017 1.17363e-20)
(-0.0888376 0.0129725 -5.13711e-20)
(-0.0796977 0.0131705 6.96365e-20)
(-0.0708488 0.0133903 -6.04554e-20)
(-0.0623116 0.0136104 6.50208e-20)
(-0.0541091 0.0137937 0)
(-0.0462713 0.0138887 0)
(-0.0388369 0.013833 7.91257e-20)
(-0.0318537 0.0135582 -8.35666e-20)
(-0.0253761 0.0129959 5.48615e-20)
(-0.0194631 0.0120858 -3.7864e-23)
(-0.0141769 0.0107829 -4.76788e-20)
(-0.0095767 0.00906645 -5.53366e-20)
(-0.00571468 0.00694553 5.06058e-20)
(-0.00270241 0.00443754 0)
(-0.000745989 0.00155588 7.88603e-21)
(-0.115427 0.00475424 0)
(-0.106954 0.0048248 1.43445e-20)
(-0.0985391 0.00486279 -6.34287e-20)
(-0.0903808 0.00486385 1.74725e-20)
(-0.0824834 0.00484448 1.94929e-20)
(-0.0748976 0.00482164 4.30432e-20)
(-0.0676323 0.00480889 -1.0597e-19)
(-0.060688 0.00481645 1.02898e-19)
(-0.0540536 0.00484938 -1.32909e-19)
(-0.0477155 0.00490686 1.21173e-19)
(-0.0416624 0.00498146 -3.25509e-20)
(-0.0358907 0.00505867 4.43573e-21)
(-0.0304075 0.00511673 3.45232e-23)
(-0.0252331 0.00512703 1.7846e-23)
(-0.0204001 0.00505533 -3.66434e-20)
(-0.0159517 0.00486426 0)
(-0.0119382 0.00451774 -4.59451e-20)
(-0.00841319 0.00398763 4.47768e-20)
(-0.00542573 0.00326474 -6.16045e-21)
(-0.00301224 0.00237157 0)
(-0.00124679 0.00136311 -3.24033e-21)
(-0.00028793 0.000347626 -2.62745e-21)
(-0.0471928 0.000595015 -2.50059e-20)
(-0.0432674 0.000587369 2.76155e-20)
(-0.039422 0.000571978 0)
(-0.0358064 0.000547889 0)
(-0.032391 0.000522292 1.8968e-20)
(-0.0291872 0.000499235 -2.089e-20)
(-0.026182 0.000481433 0)
(-0.0233604 0.000470991 0)
(-0.0207033 0.000469398 3.37091e-20)
(-0.0181914 0.000477536 -2.90741e-20)
(-0.0158074 0.00049547 0)
(-0.0135385 0.000522109 -3.77331e-20)
(-0.0113784 0.000554745 -8.14607e-24)
(-0.00932921 0.000588485 3.79134e-20)
(-0.00740236 0.000615692 -4.99116e-21)
(-0.00561927 0.000625646 -2.05146e-23)
(-0.00401086 0.000604849 -1.071e-23)
(-0.00261609 0.000538813 2.8406e-21)
(-0.00147702 0.000417138 0)
(-0.000628873 0.000242803 0)
(-0.000108743 4.43453e-05 3.09439e-21)
(2.48586e-05 -9.09778e-05 4.06716e-20)
(1.13628 0.0247567 -6.62496e-20)
(1.09022 0.0264359 1.80557e-20)
(1.04212 0.0281611 2.16121e-20)
(0.99187 0.029934 -2.50696e-20)
(0.939586 0.03176 -2.85071e-20)
(0.885349 0.0336457 0)
(0.829251 0.0355941 -1.81497e-20)
(0.7714 0.0376062 -4.13894e-20)
(0.711914 0.0396814 6.74328e-20)
(0.650923 0.0418172 4.10496e-22)
(0.58857 0.0440057 -2.72937e-20)
(0.525022 0.0462233 -7.35174e-24)
(0.460497 0.0484078 -3.29344e-20)
(0.395326 0.0504198 8.78015e-20)
(0.330062 0.0520023 -9.38442e-20)
(0.265605 0.0527528 3.96764e-20)
(0.203321 0.0521358 0)
(0.145093 0.0495365 0)
(0.0931836 0.044354 0)
(0.0499929 0.0361029 -2.37439e-20)
(0.0187607 0.0244741 1.21693e-20)
(0.00352599 0.0093836 -2.44087e-24)
(1.14072 0.080735 6.51724e-20)
(1.09511 0.0865309 -3.88773e-20)
(1.04762 0.0925999 -1.65398e-21)
(0.997958 0.0989121 2.4617e-20)
(0.946259 0.10546 2.84997e-20)
(0.892609 0.112249 6.36793e-20)
(0.8371 0.119274 1.81494e-20)
(0.779838 0.12653 0)
(0.720943 0.134008 2.1984e-20)
(0.660544 0.141694 7.42871e-20)
(0.598784 0.149556 0)
(0.535823 0.157505 -6.02307e-20)
(0.471866 0.165314 6.41398e-20)
(0.407212 0.17249 1.69373e-20)
(0.342356 0.178131 -5.6096e-20)
(0.278107 0.180845 3.95056e-20)
(0.215708 0.178794 0)
(0.156898 0.169887 0)
(0.103795 0.152093 -9.0705e-20)
(0.0586732 0.123774 9.32634e-20)
(0.0246843 0.0839031 1.08916e-19)
(0.00582615 0.0322061 -1.57886e-19)
(1.14943 0.136716 -1.28321e-19)
(1.10477 0.146645 -7.62954e-20)
(1.05853 0.156981 2.56386e-19)
(1.01005 0.167713 5.29214e-20)
(0.959527 0.178834 -5.45658e-20)
(0.907066 0.190353 -6.35536e-20)
(0.852753 0.202268 0)
(0.796699 0.214572 0)
(0.739022 0.227254 4.23954e-20)
(0.67985 0.24029 -4.9207e-20)
(0.619322 0.253627 -5.26992e-20)
(0.557587 0.267116 -5.74615e-20)
(0.494819 0.280371 -6.22207e-20)
(0.431252 0.292552 1.02515e-19)
(0.367259 0.302124 -1.44437e-19)
(0.30346 0.306721 7.67962e-20)
(0.240845 0.303223 0)
(0.180861 0.288086 1.70132e-19)
(0.125333 0.257873 -1.75882e-19)
(0.0762862 0.209823 0)
(0.0366985 0.142209 0)
(0.0104898 0.0545846 7.72249e-20)
(1.16147 0.189957 -1.60919e-22)
(1.11837 0.203899 0)
(1.07408 0.21836 -2.45176e-21)
(1.02746 0.233395 0)
(0.978782 0.248979 -5.47814e-20)
(0.928167 0.265125 -1.24193e-19)
(0.875701 0.28183 6.80123e-20)
(0.821499 0.299084 0)
(0.765681 0.31687 -2.9071e-21)
(0.708376 0.335156 0)
(0.649719 0.353867 -4.88326e-20)
(0.589844 0.372795 5.73229e-20)
(0.52888 0.391398 1.85091e-19)
(0.466962 0.408497 -6.62627e-20)
(0.404283 0.421938 -6.84193e-20)
(0.34118 0.428403 -1.86713e-19)
(0.278265 0.423524 1.55612e-19)
(0.21655 0.40235 1.63618e-19)
(0.15742 0.360092 -1.69196e-19)
(0.102532 0.292924 0)
(0.0546036 0.198473 4.4002e-20)
(0.017438 0.0761539 -1.48756e-19)
(1.17684 0.240594 1.22768e-19)
(1.1358 0.258418 5.57773e-21)
(1.0941 0.276806 -4.02678e-19)
(1.04994 0.295938 1.79952e-19)
(1.00371 0.31577 -1.05625e-19)
(0.955543 0.336317 -3.56945e-21)
(0.905525 0.357579 1.97196e-19)
(0.853778 0.379546 -1.4921e-19)
(0.800427 0.402197 1.57992e-19)
(0.745601 0.425494 8.79791e-20)
(0.689429 0.449344 -2.2362e-21)
(0.632025 0.47348 1.08827e-19)
(0.573459 0.497214 2.3444e-19)
(0.513739 0.51904 -3.12654e-19)
(0.452816 0.536205 6.82579e-20)
(0.390654 0.544475 0)
(0.327367 0.538278 0)
(0.263389 0.511316 7.48677e-20)
(0.199534 0.457516 -3.88502e-20)
(0.136976 0.372061 0)
(0.0780976 0.251999 -4.39965e-20)
(0.0265493 0.0966475 3.41336e-20)
(1.19508 0.287337 -1.13348e-19)
(1.15663 0.308871 1.36387e-19)
(1.11816 0.330948 1.55601e-19)
(1.07703 0.353945 -1.71338e-19)
(1.03384 0.377784 -2.00718e-19)
(0.988696 0.402485 -1.14957e-19)
(0.941704 0.428051 3.68438e-19)
(0.892991 0.454472 0)
(0.842683 0.481724 7.08515e-20)
(0.790913 0.509767 -8.75508e-20)
(0.737804 0.538489 1.89553e-21)
(0.683447 0.567577 -9.71565e-20)
(0.627842 0.596202 0)
(0.570839 0.622549 0)
(0.512093 0.6433 6.02307e-20)
(0.45111 0.653343 0)
(0.387386 0.645957 -2.77362e-19)
(0.320651 0.613567 5.03085e-19)
(0.251018 0.5489 1.11591e-19)
(0.179075 0.446231 -3.09224e-19)
(0.106803 0.302107 0)
(0.0376714 0.1158 9.78589e-20)
(1.21576 0.32961 1.07205e-19)
(1.18042 0.354624 -1.28395e-19)
(1.14571 0.380093 1.41772e-19)
(1.10815 0.406661 -3.25888e-19)
(1.0685 0.434208 3.71718e-19)
(1.02691 0.462758 -9.88321e-20)
(0.983471 0.492321 1.16827e-19)
(0.93832 0.522885 -3.84741e-19)
(0.891592 0.554426 -1.49264e-19)
(0.843421 0.586899 0)
(0.793925 0.620182 3.48877e-19)
(0.743166 0.653914 -9.68518e-20)
(0.691066 0.687146 3.01819e-19)
(0.637287 0.717777 -2.16751e-19)
(0.581142 0.74196 1.71148e-19)
(0.521591 0.753754 5.83677e-20)
(0.457406 0.745359 -5.69875e-19)
(0.387482 0.707994 2.65057e-19)
(0.311115 0.633272 -6.52177e-21)
(0.228216 0.514656 0)
(0.140303 0.348278 0)
(0.0506395 0.133419 -2.87921e-20)
(1.2382 0.366714 0)
(1.20646 0.394963 0)
(1.17604 0.42351 -1.36787e-19)
(1.14254 0.453327 3.00902e-19)
(1.10694 0.484236 5.12853e-19)
(1.06939 0.516273 1.92534e-19)
(1.02998 0.549455 -3.19787e-19)
(0.988871 0.583775 1.25298e-19)
(0.946201 0.619213 1.28322e-19)
(0.902107 0.655725 1.40625e-19)
(0.856705 0.693182 -8.31665e-20)
(0.81003 0.731192 8.35158e-20)
(0.76192 0.768697 -4.68562e-19)
(0.711833 0.803349 2.92068e-19)
(0.658692 0.830812 -9.94555e-20)
(0.600838 0.844376 -5.78067e-20)
(0.536214 0.835224 -2.23027e-19)
(0.462763 0.793452 7.48262e-22)
(0.378846 0.709648 1.81708e-19)
(0.283613 0.576556 2.55074e-19)
(0.178069 0.389986 -2.61669e-19)
(0.0652461 0.149302 2.47413e-19)
(1.26166 0.398084 -1.92561e-19)
(1.23398 0.429238 1.03422e-19)
(1.20826 0.460493 2.42619e-19)
(1.17921 0.493203 -1.46251e-19)
(1.14806 0.527124 -3.18365e-19)
(1.11495 0.5623 -1.76475e-19)
(1.08 0.598752 -9.36387e-20)
(1.04337 0.636473 -2.22995e-19)
(1.00521 0.675446 3.5998e-19)
(0.965665 0.715625 -6.72339e-19)
(0.924841 0.756878 2.8841e-19)
(0.882747 0.798787 0)
(0.839128 0.840216 -2.46155e-19)
(0.793223 0.878598 8.39882e-20)
(0.743523 0.909165 9.88383e-20)
(0.687682 0.924508 9.14718e-20)
(0.622714 0.914866 -1.47966e-19)
(0.545492 0.869296 1.63411e-21)
(0.453342 0.777454 2.16722e-19)
(0.344575 0.631463 0)
(0.21964 0.426916 0)
(0.081312 0.163337 0)
(1.28523 0.423565 -5.33837e-21)
(1.26211 0.457339 0)
(1.2415 0.490951 -1.1852e-19)
(1.21732 0.526155 -1.30705e-19)
(1.19102 0.562636 4.41748e-19)
(1.16272 0.600462 -1.55327e-19)
(1.13256 0.639672 6.65716e-21)
(1.10074 0.680273 2.00984e-19)
(1.06741 0.722257 -2.18008e-19)
(1.03273 0.765587 -2.39562e-19)
(0.996812 0.810134 1.35827e-19)
(0.959645 0.855475 1.30651e-19)
(0.920888 0.900416 1.4764e-19)
(0.879558 0.94222 -3.09835e-19)
(0.833695 0.975744 3.28049e-19)
(0.780207 0.99294 -9.08716e-20)
(0.715086 0.983175 0)
(0.634022 0.934538 -2.19095e-19)
(0.53319 0.835842 1.74718e-21)
(0.409992 0.678694 4.2114e-19)
(0.264279 0.458591 -2.3845e-19)
(0.0985509 0.17533 0)
(1.30803 0.442671 -1.6472e-19)
(1.28981 0.478618 1.7622e-19)
(1.27451 0.5142 -9.3832e-20)
(1.25542 0.551571 -1.09335e-19)
(1.23423 0.590317 -4.62651e-21)
(1.21106 0.630508 0)
(1.18607 0.672182 1.7023e-19)
(1.15944 0.715345 1.68972e-19)
(1.13136 0.759994 -9.20218e-20)
(1.10197 0.806099 0)
(1.07141 0.853536 -1.05744e-19)
(1.03963 0.901884 -2.40143e-19)
(1.00622 0.949914 1.88889e-19)
(0.969954 0.994762 2.65014e-19)
(0.928395 1.03097 -2.80837e-19)
(0.877647 1.04995 6.50316e-20)
(0.812592 1.04027 1.43639e-19)
(0.727635 0.98917 -1.75677e-19)
(0.61772 0.884714 -1.16015e-19)
(0.479288 0.718111 7.78935e-20)
(0.31158 0.484887 2.03389e-19)
(0.1168 0.185236 -1.33136e-19)
(1.32913 0.456145 0)
(1.31641 0.494038 -1.73576e-19)
(1.3068 0.531169 1.66714e-20)
(1.29312 0.570146 1.10241e-19)
(1.27726 0.610513 -1.23382e-19)
(1.25934 0.652388 1.30989e-19)
(1.23958 0.695833 -2.79152e-19)
(1.2182 0.74087 -1.66501e-19)
(1.19541 0.787509 9.07071e-20)
(1.17139 0.83573 -1.82851e-19)
(1.14626 0.885431 1.05731e-19)
(1.11999 0.936209 1.11666e-19)
(1.0921 0.986845 -2.13594e-19)
(1.06117 1.0344 3.29889e-19)
(1.02428 1.07319 5.18541e-20)
(0.976722 1.09411 -1.16341e-19)
(0.912179 1.08501 0)
(0.82365 1.03229 6.59456e-20)
(0.704715 0.923351 3.17367e-20)
(0.550776 0.749122 -2.28577e-19)
(0.360449 0.50535 1.21415e-19)
(0.135636 0.192852 -1.03158e-19)
(1.34757 0.462842 0)
(1.34043 0.502218 1.51249e-19)
(1.33641 0.540782 -1.60244e-19)
(1.32835 0.581332 1.86702e-19)
(1.31813 0.623302 1.04891e-19)
(1.30586 0.66681 -2.24079e-19)
(1.29177 0.711925 2.52995e-19)
(1.27611 0.75868 -2.65601e-19)
(1.2591 0.807095 1.48435e-19)
(1.24092 0.857161 -7.32887e-20)
(1.22171 0.908788 2.5426e-19)
(1.20145 0.961589 -1.76496e-19)
(1.17957 1.01435 0)