/*--------------------------------*- C++ -*----------------------------------*\
| =========                 |                                                 |
| \\      /  F ield         | OpenFOAM Extend Project: Open source CFD        |
|  \\    /   O peration     | Version:  1.6-ext                               |
|   \\  /    A nd           | Web:      www.extend-project.de                 |
|    \\/     M anipulation  |                                                 |
\*---------------------------------------------------------------------------*/
FoamFile
{
    version     2.0;
    format      ascii;
    class       volScalarField::DimensionedInternalField;
    location    "0.7";
    object      V0;
}
// * * * * * * * * * * * * * * * * * * * * * * * * * * * * * * * * * * * * * //

dimensions      [0 3 0 0 0 0 0];

value           nonuniform List<scalar> 
20940
(
1.17116e-06
1.03813e-06
9.21085e-07
8.18044e-07
7.27266e-07
6.47233e-07
5.76622e-07
5.14273e-07
4.59177e-07
4.10448e-07
3.67313e-07
3.29096e-07
2.95205e-07
2.65122e-07
2.38392e-07
2.14616e-07
1.93446e-07
1.74574e-07
1.57733e-07
1.42687e-07
1.2923e-07
1.1718e-07
1.17132e-06
1.03827e-06
9.21211e-07
8.18155e-07
7.27366e-07
6.47324e-07
5.76707e-07
5.14354e-07
4.59254e-07
4.10521e-07
3.67383e-07
3.29161e-07
2.95265e-07
2.65176e-07
2.3844e-07
2.1466e-07
1.93486e-07
1.74613e-07
1.57771e-07
1.42724e-07
1.29266e-07
1.17215e-07
1.1739e-06
1.04055e-06
9.23237e-07
8.19956e-07
7.28968e-07
6.48752e-07
5.77982e-07
5.15495e-07
4.60277e-07
4.11441e-07
3.68212e-07
3.29909e-07
2.9594e-07
2.65785e-07
2.38989e-07
2.15155e-07
1.93932e-07
1.75016e-07
1.58137e-07
1.43058e-07
1.29572e-07
1.17495e-07
1.17817e-06
1.04434e-06
9.26597e-07
8.22942e-07
7.31625e-07
6.5112e-07
5.80093e-07
5.1738e-07
4.61963e-07
4.12951e-07
3.69566e-07
3.31127e-07
2.97038e-07
2.66776e-07
2.39884e-07
2.15963e-07
1.94663e-07
1.75676e-07
1.58734e-07
1.43599e-07
1.30064e-07
1.17945e-07
1.18343e-06
1.04903e-06
9.30794e-07
8.26702e-07
7.34999e-07
6.54152e-07
5.82823e-07
5.1984e-07
4.64181e-07
4.14954e-07
3.71377e-07
3.32767e-07
2.98525e-07
2.68127e-07
2.41115e-07
2.17086e-07
1.95687e-07
1.76611e-07
1.59588e-07
1.44378e-07
1.30776e-07
1.18596e-07
1.19025e-06
1.05515e-06
9.36278e-07
8.31626e-07
7.39428e-07
6.58143e-07
5.86425e-07
5.23098e-07
4.67132e-07
4.1763e-07
3.73806e-07
3.34973e-07
3.00531e-07
2.69954e-07
2.42781e-07
2.18608e-07
1.9708e-07
1.77887e-07
1.60756e-07
1.45449e-07
1.31756e-07
1.19492e-07
1.19862e-06
1.06268e-06
9.4306e-07
8.37738e-07
7.44941e-07
6.63123e-07
5.90931e-07
5.27183e-07
4.70845e-07
4.21009e-07
3.76887e-07
3.37785e-07
3.03099e-07
2.72302e-07
2.44929e-07
2.20574e-07
1.98882e-07
1.79541e-07
1.62276e-07
1.46846e-07
1.3304e-07
1.20673e-07
1.20853e-06
1.07165e-06
9.51188e-07
8.45108e-07
7.51626e-07
6.69188e-07
5.96436e-07
5.32184e-07
4.75394e-07
4.25157e-07
3.80675e-07
3.41252e-07
3.06277e-07
2.75217e-07
2.47604e-07
2.23032e-07
2.01141e-07
1.81618e-07
1.64188e-07
1.48608e-07
1.34666e-07
1.22175e-07
1.2199e-06
1.08199e-06
9.60611e-07
8.53704e-07
7.59476e-07
6.7636e-07
6.02991e-07
5.38173e-07
4.80865e-07
4.30155e-07
3.85247e-07
3.4544e-07
3.1012e-07
2.7875e-07
2.50858e-07
2.26029e-07
2.03905e-07
1.84168e-07
1.66542e-07
1.50783e-07
1.36677e-07
1.24036e-07
1.23266e-06
1.09365e-06
9.71272e-07
8.6347e-07
7.68436e-07
6.84594e-07
6.10564e-07
5.45143e-07
4.8728e-07
4.36056e-07
3.90672e-07
3.50426e-07
3.14705e-07
2.82971e-07
2.54749e-07
2.29622e-07
2.07227e-07
1.87242e-07
1.69387e-07
1.53418e-07
1.39117e-07
1.26297e-07
1.24661e-06
1.10647e-06
9.83062e-07
8.7432e-07
7.78431e-07
6.93811e-07
6.19076e-07
5.53015e-07
4.94567e-07
4.42807e-07
3.96927e-07
3.56218e-07
3.20063e-07
2.87923e-07
2.59326e-07
2.33856e-07
2.11146e-07
1.90875e-07
1.72758e-07
1.56546e-07
1.42021e-07
1.28993e-07
1.26221e-06
1.12086e-06
9.96352e-07
8.86592e-07
7.89766e-07
7.04285e-07
6.28761e-07
5.61977e-07
5.02871e-07
4.5051e-07
4.0408e-07
3.62866e-07
3.26244e-07
2.93666e-07
2.64656e-07
2.38798e-07
2.15727e-07
1.95122e-07
1.76698e-07
1.60204e-07
1.45421e-07
1.32153e-07
1.27865e-06
1.13616e-06
1.01058e-06
8.99832e-07
8.02084e-07
7.15742e-07
6.39412e-07
5.71878e-07
5.12074e-07
4.59069e-07
4.12045e-07
3.70285e-07
3.33161e-07
3.0012e-07
2.70679e-07
2.44416e-07
2.20961e-07
1.99992e-07
1.81228e-07
1.64418e-07
1.49342e-07
1.35804e-07
1.29596e-06
1.15237e-06
1.02576e-06
9.14041e-07
8.15387e-07
7.28194e-07
6.51064e-07
5.82773e-07
5.22253e-07
4.68571e-07
4.20911e-07
3.78557e-07
3.4088e-07
3.07329e-07
2.77416e-07
2.50716e-07
2.26854e-07
2.05502e-07
1.86373e-07
1.69218e-07
1.53817e-07
1.39976e-07
1.31392e-06
1.16931e-06
1.04173e-06
9.29082e-07
8.29544e-07
7.41516e-07
6.63594e-07
5.94555e-07
5.33328e-07
4.78971e-07
4.30667e-07
3.87697e-07
3.49436e-07
3.15332e-07
2.84903e-07
2.57722e-07
2.33414e-07
2.11647e-07
1.92131e-07
1.74609e-07
1.58858e-07
1.44685e-07
1.24227e-06
1.10818e-06
9.89686e-07
8.84887e-07
7.92115e-07
7.09916e-07
6.37015e-07
5.72298e-07
5.14787e-07
4.63623e-07
4.18055e-07
3.77421e-07
3.41149e-07
3.08732e-07
2.79729e-07
2.53752e-07
2.3046e-07
2.09549e-07
1.90753e-07
1.73835e-07
1.58585e-07
1.44821e-07
1.21918e-06
1.08706e-06
9.70353e-07
8.67167e-07
7.75857e-07
6.94982e-07
6.23282e-07
5.59657e-07
5.03141e-07
4.52888e-07
4.08156e-07
3.68293e-07
3.32726e-07
3.00954e-07
2.7254e-07
2.47099e-07
2.24294e-07
2.03831e-07
1.85447e-07
1.68912e-07
1.5402e-07
1.4059e-07
1.19722e-06
1.06703e-06
9.52053e-07
8.50436e-07
7.60546e-07
6.80957e-07
6.10422e-07
5.47848e-07
4.92285e-07
4.42896e-07
3.98952e-07
3.5981e-07
3.24905e-07
2.93742e-07
2.65886e-07
2.40956e-07
2.18618e-07
1.98578e-07
1.80581e-07
1.644e-07
1.49837e-07
1.36712e-07
1.17651e-06
1.04818e-06
9.34881e-07
8.34773e-07
7.46243e-07
6.67883e-07
5.98461e-07
5.36897e-07
4.82244e-07
4.33679e-07
3.9048e-07
3.52013e-07
3.17724e-07
2.87124e-07
2.59785e-07
2.35331e-07
2.1343e-07
1.93791e-07
1.76159e-07
1.6031e-07
1.46048e-07
1.33199e-07
1.15721e-06
1.03065e-06
9.18943e-07
8.20265e-07
7.33022e-07
6.55821e-07
5.87443e-07
5.26823e-07
4.73028e-07
4.25239e-07
3.82742e-07
3.4491e-07
3.11195e-07
2.81117e-07
2.54254e-07
2.30234e-07
2.08731e-07
1.89458e-07
1.72163e-07
1.56622e-07
1.4264e-07
1.30045e-07
1.1391e-06
1.01426e-06
9.04089e-07
8.06785e-07
7.20776e-07
6.44681e-07
5.77297e-07
5.17571e-07
4.64582e-07
4.17522e-07
3.75684e-07
3.38449e-07
3.05275e-07
2.75687e-07
2.49266e-07
2.25647e-07
2.04508e-07
1.85567e-07
1.68575e-07
1.53314e-07
1.39589e-07
1.2723e-07
1.12301e-06
9.99707e-07
8.90908e-07
7.94832e-07
7.09921e-07
6.34813e-07
5.68315e-07
5.09386e-07
4.57112e-07
4.10698e-07
3.69444e-07
3.32738e-07
3.00043e-07
2.70888e-07
2.44862e-07
2.216e-07
2.00785e-07
1.82138e-07
1.65414e-07
1.50397e-07
1.36897e-07
1.24744e-07
1.10833e-06
9.86464e-07
8.78945e-07
7.84013e-07
7.00124e-07
6.25929e-07
5.60249e-07
5.02053e-07
4.50439e-07
4.04617e-07
3.63896e-07
3.27671e-07
2.9541e-07
2.66648e-07
2.40976e-07
2.18038e-07
1.97516e-07
1.79136e-07
1.62653e-07
1.47855e-07
1.34552e-07
1.22582e-07
1.09528e-06
9.74709e-07
8.68346e-07
7.74445e-07
6.91475e-07
6.18102e-07
5.53157e-07
4.95618e-07
4.44594e-07
3.99301e-07
3.59054e-07
3.23256e-07
2.9138e-07
2.62965e-07
2.37607e-07
2.14952e-07
1.94689e-07
1.76542e-07
1.60272e-07
1.45667e-07
1.3254e-07
1.20728e-07
1.08385e-06
9.64431e-07
8.59096e-07
7.66109e-07
6.83954e-07
6.11307e-07
5.47011e-07
4.90053e-07
4.39547e-07
3.94719e-07
3.54889e-07
3.19465e-07
2.87925e-07
2.59813e-07
2.34728e-07
2.12319e-07
1.92277e-07
1.74333e-07
1.58246e-07
1.43808e-07
1.30832e-07
1.19158e-07
1.074e-06
9.556e-07
8.51163e-07
7.58973e-07
6.77527e-07
6.05511e-07
5.41778e-07
4.85321e-07
4.35263e-07
3.90836e-07
3.51366e-07
3.16263e-07
2.85011e-07
2.57158e-07
2.32307e-07
2.10108e-07
1.90257e-07
1.72484e-07
1.56553e-07
1.42255e-07
1.29407e-07
1.17849e-07
1.06571e-06
9.48163e-07
8.44493e-07
7.52984e-07
6.72142e-07
6.00664e-07
5.37408e-07
4.81378e-07
4.317e-07
3.87611e-07
3.48443e-07
3.13612e-07
2.82603e-07
2.54967e-07
2.30312e-07
2.08289e-07
1.88596e-07
1.70965e-07
1.55164e-07
1.40983e-07
1.28242e-07
1.16781e-07
1.05889e-06
9.42063e-07
8.39028e-07
7.48082e-07
6.6774e-07
5.96706e-07
5.33845e-07
4.78166e-07
4.28802e-07
3.84993e-07
3.46075e-07
3.11467e-07
2.80657e-07
2.53201e-07
2.28704e-07
2.06826e-07
1.87261e-07
1.69748e-07
1.54049e-07
1.39964e-07
1.27308e-07
1.15927e-07
1.05355e-06
9.37285e-07
8.34747e-07
7.44243e-07
6.64293e-07
5.93608e-07
5.31057e-07
4.75655e-07
4.26537e-07
3.82948e-07
3.44226e-07
3.09793e-07
2.7914e-07
2.51824e-07
2.27454e-07
2.05687e-07
1.86224e-07
1.688e-07
1.53183e-07
1.39169e-07
1.26578e-07
1.15252e-07
1.0494e-06
9.33594e-07
8.31455e-07
7.41304e-07
6.61668e-07
5.91259e-07
5.28952e-07
4.73766e-07
4.24839e-07
3.81419e-07
3.42848e-07
3.08548e-07
2.78015e-07
2.50805e-07
2.26529e-07
2.04848e-07
1.8546e-07
1.68104e-07
1.52548e-07
1.38589e-07
1.26045e-07
1.1472e-07
1.17426e-06
1.04681e-06
9.34193e-07
8.34619e-07
7.46498e-07
6.68446e-07
5.99249e-07
5.37845e-07
4.83305e-07
4.34812e-07
3.91652e-07
3.53199e-07
3.18902e-07
2.88279e-07
2.60904e-07
2.36408e-07
2.1446e-07
1.94774e-07
1.77095e-07
1.612e-07
1.46892e-07
1.33996e-07
1.17456e-06
1.04708e-06
9.34452e-07
8.34861e-07
7.46725e-07
6.68658e-07
5.99447e-07
5.38031e-07
4.83478e-07
4.34974e-07
3.91804e-07
3.5334e-07
3.19035e-07
2.88402e-07
2.61021e-07
2.36516e-07
2.14562e-07
1.94868e-07
1.77183e-07
1.61283e-07
1.46968e-07
1.34068e-07
1.1773e-06
1.04955e-06
9.36682e-07
8.36874e-07
7.48545e-07
6.70305e-07
6.00939e-07
5.39384e-07
4.84707e-07
4.36091e-07
3.9282e-07
3.54267e-07
3.19879e-07
2.89174e-07
2.61725e-07
2.37161e-07
2.15152e-07
1.9541e-07
1.7768e-07
1.61739e-07
1.47387e-07
1.34454e-07
1.1819e-06
1.05368e-06
9.40392e-07
8.40213e-07
7.51553e-07
6.73019e-07
6.0339e-07
5.416e-07
4.86713e-07
4.3791e-07
3.9447e-07
3.55766e-07
3.21242e-07
2.90415e-07
2.62856e-07
2.38193e-07
2.16095e-07
1.96272e-07
1.78469e-07
1.62461e-07
1.48051e-07
1.35062e-07
1.18774e-06
1.05896e-06
9.45165e-07
8.44535e-07
7.55471e-07
6.76575e-07
6.06622e-07
5.4454e-07
4.8939e-07
4.4035e-07
3.96698e-07
3.578e-07
3.23103e-07
2.92118e-07
2.64418e-07
2.39624e-07
2.17409e-07
1.97479e-07
1.79579e-07
1.63482e-07
1.48991e-07
1.35928e-07
1.19548e-06
1.06596e-06
9.51504e-07
8.50282e-07
7.60687e-07
6.81314e-07
6.10933e-07
5.48466e-07
4.9297e-07
4.43617e-07
3.99682e-07
3.6053e-07
3.25601e-07
2.94407e-07
2.66516e-07
2.41552e-07
2.19178e-07
1.99107e-07
1.81076e-07
1.64862e-07
1.50261e-07
1.371e-07
1.20512e-06
1.07469e-06
9.59434e-07
8.57489e-07
7.67244e-07
6.87287e-07
6.16379e-07
5.53437e-07
4.97512e-07
4.47771e-07
4.03486e-07
3.64015e-07
3.28798e-07
2.97342e-07
2.69213e-07
2.44031e-07
2.21461e-07
2.01208e-07
1.83013e-07
1.66647e-07
1.5191e-07
1.38622e-07
1.21674e-06
1.08526e-06
9.69052e-07
8.66252e-07
7.75237e-07
6.94585e-07
6.2305e-07
5.59541e-07
5.03102e-07
4.52895e-07
4.08187e-07
3.68332e-07
3.32765e-07
3.00991e-07
2.72572e-07
2.47125e-07
2.24313e-07
2.03838e-07
1.85441e-07
1.6889e-07
1.53982e-07
1.40539e-07
1.23041e-06
1.09772e-06
9.80425e-07
8.76642e-07
7.84739e-07
7.03283e-07
6.31019e-07
5.66849e-07
5.0981e-07
4.59057e-07
4.13852e-07
3.73545e-07
3.37566e-07
3.05414e-07
2.76651e-07
2.50889e-07
2.27788e-07
2.0705e-07
1.88409e-07
1.71636e-07
1.56523e-07
1.42892e-07
1.24615e-06
1.11211e-06
9.93595e-07
8.88706e-07
7.958e-07
7.13434e-07
6.40342e-07
5.75419e-07
5.17693e-07
4.66316e-07
4.20539e-07
3.7971e-07
3.43254e-07
3.10666e-07
2.81502e-07
2.55372e-07
2.31935e-07
2.10886e-07
1.91962e-07
1.74925e-07
1.59572e-07
1.45717e-07
1.2638e-06
1.1283e-06
1.00846e-06
9.02369e-07
8.08367e-07
7.25001e-07
6.50997e-07
5.85241e-07
5.26754e-07
4.74679e-07
4.28264e-07
3.86849e-07
3.49855e-07
3.16773e-07
2.87155e-07
2.60608e-07
2.36785e-07
2.15382e-07
1.9613e-07
1.78793e-07
1.6316e-07
1.49048e-07
1.28382e-06
1.1467e-06
1.02538e-06
9.17945e-07
8.22713e-07
7.38225e-07
6.63195e-07
5.96499e-07
5.37151e-07
4.84287e-07
4.37148e-07
3.95068e-07
3.57463e-07
3.23818e-07
2.93682e-07
2.66657e-07
2.42394e-07
2.20585e-07
2.00958e-07
1.83274e-07
1.67322e-07
1.52914e-07
1.30548e-06
1.16669e-06
1.04384e-06
9.34995e-07
8.38476e-07
7.52804e-07
6.76687e-07
6.08991e-07
5.48723e-07
4.95011e-07
4.4709e-07
4.04289e-07
3.66018e-07
3.31759e-07
3.01054e-07
2.73504e-07
2.48756e-07
2.26497e-07
2.06453e-07
1.88383e-07
1.72073e-07
1.57333e-07
1.32889e-06
1.18836e-06
1.06392e-06
9.53602e-07
8.55727e-07
7.68805e-07
6.91534e-07
6.22772e-07
5.61518e-07
5.06895e-07
4.58131e-07
4.1455e-07
3.75556e-07
3.40626e-07
3.09301e-07
2.81175e-07
2.55892e-07
2.33138e-07
2.12635e-07
1.94138e-07
1.7743e-07
1.62322e-07
1.35384e-06
1.21156e-06
1.08548e-06
9.7365e-07
8.74372e-07
7.86149e-07
7.07671e-07
6.37789e-07
5.75496e-07
5.19907e-07
4.70246e-07
4.2583e-07
3.86061e-07
3.50411e-07
3.18416e-07
2.89668e-07
2.63805e-07
2.40512e-07
2.19506e-07
2.00542e-07
1.834e-07
1.67887e-07
1.35384e-06
1.21156e-06
1.08548e-06
9.73651e-07
8.74374e-07
7.86151e-07
7.07673e-07
6.37791e-07
5.75497e-07
5.19908e-07
4.70247e-07
4.25831e-07
3.86062e-07
3.50412e-07
3.18417e-07
2.89669e-07
2.63807e-07
2.40513e-07
2.19508e-07
2.00544e-07
1.83402e-07
1.67889e-07
1.32889e-06
1.18837e-06
1.06392e-06
9.53606e-07
8.55731e-07
7.6881e-07
6.91538e-07
6.22776e-07
5.61522e-07
5.06898e-07
4.58134e-07
4.14553e-07
3.75559e-07
3.40629e-07
3.09305e-07
2.8118e-07
2.55897e-07
2.33143e-07
2.12639e-07
1.94142e-07
1.77434e-07
1.62326e-07
1.30548e-06
1.16669e-06
1.04384e-06
9.35001e-07
8.38482e-07
7.5281e-07
6.76693e-07
6.08997e-07
5.48729e-07
4.95017e-07
4.47096e-07
4.04295e-07
3.66024e-07
3.31765e-07
3.01061e-07
2.73511e-07
2.48762e-07
2.26503e-07
2.0646e-07
1.88389e-07
1.72078e-07
1.57338e-07
1.28382e-06
1.14671e-06
1.02539e-06
9.17952e-07
8.22722e-07
7.38233e-07
6.63203e-07
5.96508e-07
5.3716e-07
4.84297e-07
4.37158e-07
3.95078e-07
3.57472e-07
3.23827e-07
2.9369e-07
2.66665e-07
2.42402e-07
2.20592e-07
2.00965e-07
1.83281e-07
1.67327e-07
1.52919e-07
1.2638e-06
1.12831e-06
1.00847e-06
9.02379e-07
8.08378e-07
7.25012e-07
6.51009e-07
5.85253e-07
5.26767e-07
4.74692e-07
4.28277e-07
3.86861e-07
3.49867e-07
3.16784e-07
2.87165e-07
2.60617e-07
2.36794e-07
2.1539e-07
1.96138e-07
1.78799e-07
1.63167e-07
1.49055e-07
1.24616e-06
1.11213e-06
9.93608e-07
8.88721e-07
7.95816e-07
7.13449e-07
6.40358e-07
5.75434e-07
5.17709e-07
4.66331e-07
4.20554e-07
3.79725e-07
3.43268e-07
3.10679e-07
2.81514e-07
2.55384e-07
2.31946e-07
2.10897e-07
1.91971e-07
1.74935e-07
1.5958e-07
1.45725e-07
1.23042e-06
1.09774e-06
9.80444e-07
8.76663e-07
7.8476e-07
7.03304e-07
6.31039e-07
5.66868e-07
5.09828e-07
4.59075e-07
4.13869e-07
3.73561e-07
3.37582e-07
3.0543e-07
2.76666e-07
2.50903e-07
2.27802e-07
2.07063e-07
1.88422e-07
1.71647e-07
1.56534e-07
1.42901e-07
1.21676e-06
1.08529e-06
9.69079e-07
8.6628e-07
7.75265e-07
6.94612e-07
6.23076e-07
5.59565e-07
5.03124e-07
4.52917e-07
4.08207e-07
3.68351e-07
3.32784e-07
3.01008e-07
2.72588e-07
2.4714e-07
2.24328e-07
2.03853e-07
1.85455e-07
1.68902e-07
1.53994e-07
1.40549e-07
1.20515e-06
1.07473e-06
9.59471e-07
8.57526e-07
7.6728e-07
6.87321e-07
6.16412e-07
5.53468e-07
4.9754e-07
4.47797e-07
4.03509e-07
3.64037e-07
3.28819e-07
2.97361e-07
2.69231e-07
2.44047e-07
2.21476e-07
2.01223e-07
1.83026e-07
1.66661e-07
1.51922e-07
1.38634e-07
1.19553e-06
1.06601e-06
9.51551e-07
8.50328e-07
7.60732e-07
6.81357e-07
6.10973e-07
5.48503e-07
4.93004e-07
4.43648e-07
3.9971e-07
3.60555e-07
3.25624e-07
2.94428e-07
2.66536e-07
2.4157e-07
2.19196e-07
1.99123e-07
1.81092e-07
1.64876e-07
1.50276e-07
1.37114e-07
1.1878e-06
1.05901e-06
9.4522e-07
8.44589e-07
7.55523e-07
6.76625e-07
6.06669e-07
5.44584e-07
4.89431e-07
4.40388e-07
3.96732e-07
3.57832e-07
3.23131e-07
2.92144e-07
2.64441e-07
2.39646e-07
2.17429e-07
1.97497e-07
1.79597e-07
1.63499e-07
1.49008e-07
1.35944e-07
1.18196e-06
1.05374e-06
9.40454e-07
8.40273e-07
7.5161e-07
6.73073e-07
6.03442e-07
5.4165e-07
4.8676e-07
4.37953e-07
3.9451e-07
3.55802e-07
3.21275e-07
2.90445e-07
2.62883e-07
2.38218e-07
2.16117e-07
1.96293e-07
1.78488e-07
1.6248e-07
1.48068e-07
1.35078e-07
1.17738e-06
1.04963e-06
9.36756e-07
8.36944e-07
7.4861e-07
6.70366e-07
6.00996e-07
5.39437e-07
4.84757e-07
4.36138e-07
3.92864e-07
3.54307e-07
3.19917e-07
2.89208e-07
2.61757e-07
2.37189e-07
2.15178e-07
1.95433e-07
1.77702e-07
1.61759e-07
1.47407e-07
1.34473e-07
1.17466e-06
1.04718e-06
9.34548e-07
8.34951e-07
7.46808e-07
6.68734e-07
5.99516e-07
5.38093e-07
4.83535e-07
4.35026e-07
3.91852e-07
3.53386e-07
3.19077e-07
2.88443e-07
2.61058e-07
2.36551e-07
2.14594e-07
1.94898e-07
1.77211e-07
1.61306e-07
1.46992e-07
1.34089e-07
1.17439e-06
1.04693e-06
9.34315e-07
8.34734e-07
7.46605e-07
6.68544e-07
5.99337e-07
5.37924e-07
4.83375e-07
4.34875e-07
3.91709e-07
3.53251e-07
3.1895e-07
2.88324e-07
2.60948e-07
2.36449e-07
2.14499e-07
1.9481e-07
1.77127e-07
1.61229e-07
1.46916e-07
1.34018e-07
1.17418e-06
1.04672e-06
9.34111e-07
8.34538e-07
7.46419e-07
6.68369e-07
5.99175e-07
5.37774e-07
4.83237e-07
4.34748e-07
3.91593e-07
3.53145e-07
3.18853e-07
2.88235e-07
2.60866e-07
2.36373e-07
2.14429e-07
1.94745e-07
1.77067e-07
1.61173e-07
1.46865e-07
1.3397e-07
1.17447e-06
1.04699e-06
9.34365e-07
8.34775e-07
7.46641e-07
6.68577e-07
5.9937e-07
5.37958e-07
4.8341e-07
4.34911e-07
3.91747e-07
3.53289e-07
3.18988e-07
2.8836e-07
2.60982e-07
2.36481e-07
2.14529e-07
1.94838e-07
1.77155e-07
1.61255e-07
1.46943e-07
1.34044e-07
1.17721e-06
1.04946e-06
9.36591e-07
8.36785e-07
7.48459e-07
6.70223e-07
6.00863e-07
5.39313e-07
4.84641e-07
4.36031e-07
3.92765e-07
3.54216e-07
3.19832e-07
2.8913e-07
2.61685e-07
2.37123e-07
2.15117e-07
1.95377e-07
1.7765e-07
1.6171e-07
1.47362e-07
1.3443e-07
1.18181e-06
1.05359e-06
9.40302e-07
8.40126e-07
7.5147e-07
6.7294e-07
6.03317e-07
5.41532e-07
4.8665e-07
4.3785e-07
3.94415e-07
3.55713e-07
3.21193e-07
2.90368e-07
2.62813e-07
2.38152e-07
2.16057e-07
1.96237e-07
1.78437e-07
1.62433e-07
1.48025e-07
1.3504e-07
1.18765e-06
1.05887e-06
9.45077e-07
8.44451e-07
7.55391e-07
6.76499e-07
6.0655e-07
5.44473e-07
4.89327e-07
4.40291e-07
3.96642e-07
3.57748e-07
3.23053e-07
2.92071e-07
2.64373e-07
2.39584e-07
2.17371e-07
1.97445e-07
1.79548e-07
1.63455e-07
1.48967e-07
1.35906e-07
1.19539e-06
1.06587e-06
9.51416e-07
8.50197e-07
7.60607e-07
6.81238e-07
6.10861e-07
5.48398e-07
4.92906e-07
4.43557e-07
3.99626e-07
3.60477e-07
3.25553e-07
2.94361e-07
2.66475e-07
2.41512e-07
2.19144e-07
1.99074e-07
1.81048e-07
1.64835e-07
1.50239e-07
1.3708e-07
1.20502e-06
1.0746e-06
9.59344e-07
8.57403e-07
7.67163e-07
6.8721e-07
6.16306e-07
5.53369e-07
4.97448e-07
4.47712e-07
4.0343e-07
3.63964e-07
3.28751e-07
2.97299e-07
2.69174e-07
2.43996e-07
2.21428e-07
2.0118e-07
1.82986e-07
1.66625e-07
1.51888e-07
1.38603e-07
1.21664e-06
1.08516e-06
9.68959e-07
8.66164e-07
7.75154e-07
6.94507e-07
6.22976e-07
5.59472e-07
5.03038e-07
4.52837e-07
4.08133e-07
3.68283e-07
3.32721e-07
3.00951e-07
2.72535e-07
2.47092e-07
2.24283e-07
2.03812e-07
1.85418e-07
1.68868e-07
1.53964e-07
1.40521e-07
1.23031e-06
1.09763e-06
9.80331e-07
8.76553e-07
7.84655e-07
7.03204e-07
6.30945e-07
5.66781e-07
5.09747e-07
4.59e-07
4.13801e-07
3.73498e-07
3.37524e-07
3.05377e-07
2.76618e-07
2.50858e-07
2.27761e-07
2.07025e-07
1.88387e-07
1.71616e-07
1.56505e-07
1.42875e-07
1.24605e-06
1.11202e-06
9.93501e-07
8.88617e-07
7.95716e-07
7.13355e-07
6.40269e-07
5.75352e-07
5.17632e-07
4.6626e-07
4.20489e-07
3.79666e-07
3.43214e-07
3.1063e-07
2.8147e-07
2.55344e-07
2.31909e-07
2.10864e-07
1.9194e-07
1.74907e-07
1.59554e-07
1.45701e-07
1.2637e-06
1.12821e-06
1.00837e-06
9.02281e-07
8.08284e-07
7.24924e-07
6.50926e-07
5.85175e-07
5.26694e-07
4.74624e-07
4.28215e-07
3.86805e-07
3.49816e-07
3.16737e-07
2.87123e-07
2.60579e-07
2.3676e-07
2.1536e-07
1.96111e-07
1.78775e-07
1.63144e-07
1.49034e-07
1.28373e-06
1.14661e-06
1.0253e-06
9.1786e-07
8.22634e-07
7.3815e-07
6.63125e-07
5.96435e-07
5.37093e-07
4.84234e-07
4.371e-07
3.95024e-07
3.57423e-07
3.23782e-07
2.93649e-07
2.66629e-07
2.42369e-07
2.20563e-07
2.00938e-07
1.83257e-07
1.67306e-07
1.529e-07
1.30539e-06
1.1666e-06
1.04375e-06
9.34914e-07
8.38399e-07
7.52732e-07
6.7662e-07
6.08929e-07
5.48666e-07
4.94959e-07
4.47043e-07
4.04246e-07
3.6598e-07
3.31723e-07
3.01023e-07
2.73476e-07
2.48731e-07
2.26474e-07
2.06434e-07
1.88366e-07
1.72058e-07
1.5732e-07
1.3288e-06
1.18828e-06
1.06384e-06
9.53525e-07
8.55654e-07
7.68736e-07
6.9147e-07
6.22712e-07
5.61463e-07
5.06845e-07
4.58085e-07
4.14508e-07
3.75518e-07
3.40592e-07
3.09271e-07
2.81148e-07
2.55868e-07
2.33117e-07
2.12616e-07
1.94121e-07
1.77415e-07
1.62309e-07
1.35377e-06
1.21148e-06
1.0854e-06
9.73577e-07
8.74302e-07
7.86083e-07
7.07609e-07
6.37731e-07
5.75442e-07
5.19857e-07
4.702e-07
4.25789e-07
3.86025e-07
3.50378e-07
3.18387e-07
2.89642e-07
2.63782e-07
2.40491e-07
2.19488e-07
2.00526e-07
1.83385e-07
1.67873e-07
1.35377e-06
1.21149e-06
1.08541e-06
9.73581e-07
8.74306e-07
7.86087e-07
7.07612e-07
6.37734e-07
5.75445e-07
5.1986e-07
4.70203e-07
4.25792e-07
3.86027e-07
3.5038e-07
3.18389e-07
2.89644e-07
2.63784e-07
2.40493e-07
2.19489e-07
2.00527e-07
1.83386e-07
1.67874e-07
1.32881e-06
1.18829e-06
1.06385e-06
9.53537e-07
8.55665e-07
7.68747e-07
6.91479e-07
6.22722e-07
5.61472e-07
5.06853e-07
4.58093e-07
4.14515e-07
3.75524e-07
3.40598e-07
3.09276e-07
2.81154e-07
2.55873e-07
2.33121e-07
2.1262e-07
1.94124e-07
1.77419e-07
1.62312e-07
1.30541e-06
1.16663e-06
1.04378e-06
9.34935e-07
8.38419e-07
7.52751e-07
6.76637e-07
6.08946e-07
5.48681e-07
4.94973e-07
4.47056e-07
4.04258e-07
3.6599e-07
3.31733e-07
3.01032e-07
2.73485e-07
2.48738e-07
2.26481e-07
2.0644e-07
1.88372e-07
1.72063e-07
1.57324e-07
1.28376e-06
1.14665e-06
1.02533e-06
9.1789e-07
8.22662e-07
7.38177e-07
6.63151e-07
5.96458e-07
5.37114e-07
4.84253e-07
4.37117e-07
3.9504e-07
3.57437e-07
3.23795e-07
2.93661e-07
2.66639e-07
2.42378e-07
2.20571e-07
2.00946e-07
1.83264e-07
1.67312e-07
1.52906e-07
1.26374e-06
1.12825e-06
1.00841e-06
9.02321e-07
8.08322e-07
7.24959e-07
6.50959e-07
5.85206e-07
5.26722e-07
4.74649e-07
4.28237e-07
3.86825e-07
3.49834e-07
3.16754e-07
2.87137e-07
2.60592e-07
2.36771e-07
2.1537e-07
1.9612e-07
1.78783e-07
1.63152e-07
1.49041e-07
1.2461e-06
1.11207e-06
9.93551e-07
8.88666e-07
7.95762e-07
7.13398e-07
6.4031e-07
5.75389e-07
5.17666e-07
4.66291e-07
4.20517e-07
3.79691e-07
3.43236e-07
3.1065e-07
2.81488e-07
2.5536e-07
2.31924e-07
2.10876e-07
1.91953e-07
1.74918e-07
1.59565e-07
1.45711e-07
1.23037e-06
1.09768e-06
9.80388e-07
8.76608e-07
7.84707e-07
7.03254e-07
6.30992e-07
5.66824e-07
5.09787e-07
4.59037e-07
4.13834e-07
3.73529e-07
3.37551e-07
3.05402e-07
2.76639e-07
2.50879e-07
2.27779e-07
2.07042e-07
1.88402e-07
1.7163e-07
1.56518e-07
1.42886e-07
1.2167e-06
1.08523e-06
9.6902e-07
8.66223e-07
7.7521e-07
6.94561e-07
6.23028e-07
5.5952e-07
5.03083e-07
4.52878e-07
4.08172e-07
3.68319e-07
3.32754e-07
3.0098e-07
2.72562e-07
2.47116e-07
2.24305e-07
2.03832e-07
1.85435e-07
1.68885e-07
1.53978e-07
1.40535e-07
1.20509e-06
1.07466e-06
9.59406e-07
8.57464e-07
7.67221e-07
6.87266e-07
6.1636e-07
5.5342e-07
4.97497e-07
4.47758e-07
4.03474e-07
3.64004e-07
3.28789e-07
2.97333e-07
2.69206e-07
2.44024e-07
2.21455e-07
2.01202e-07
1.83008e-07
1.66643e-07
1.51906e-07
1.38619e-07
1.19546e-06
1.06593e-06
9.5148e-07
8.5026e-07
7.60667e-07
6.81296e-07
6.10917e-07
5.48452e-07
4.92957e-07
4.43605e-07
3.99672e-07
3.60521e-07
3.25593e-07
2.944e-07
2.6651e-07
2.41546e-07
2.19174e-07
1.99103e-07
1.81072e-07
1.64858e-07
1.50258e-07
1.37098e-07
1.18772e-06
1.05894e-06
9.45146e-07
8.44518e-07
7.55455e-07
6.7656e-07
6.06609e-07
5.44528e-07
4.8938e-07
4.40341e-07
3.9669e-07
3.57793e-07
3.23097e-07
2.92112e-07
2.64413e-07
2.3962e-07
2.17406e-07
1.97476e-07
1.79576e-07
1.6348e-07
1.48989e-07
1.35927e-07
1.18188e-06
1.05367e-06
9.40377e-07
8.40199e-07
7.5154e-07
6.73007e-07
6.0338e-07
5.41591e-07
4.86705e-07
4.37902e-07
3.94464e-07
3.5576e-07
3.21237e-07
2.90411e-07
2.62853e-07
2.3819e-07
2.16092e-07
1.9627e-07
1.78467e-07
1.62459e-07
1.4805e-07
1.3506e-07
1.17729e-06
1.04954e-06
9.36671e-07
8.36864e-07
7.48536e-07
6.70297e-07
6.00932e-07
5.39377e-07
4.84701e-07
4.36086e-07
3.92816e-07
3.54263e-07
3.19875e-07
2.89171e-07
2.61723e-07
2.37159e-07
2.1515e-07
1.95409e-07
1.77678e-07
1.61738e-07
1.47387e-07
1.34453e-07
1.17455e-06
1.04707e-06
9.34445e-07
8.34855e-07
7.4672e-07
6.68653e-07
5.99443e-07
5.38027e-07
4.83475e-07
4.34971e-07
3.91801e-07
3.53338e-07
3.19033e-07
2.884e-07
2.61019e-07
2.36514e-07
2.14561e-07
1.94867e-07
1.77183e-07
1.61282e-07
1.46968e-07
1.34068e-07
1.17426e-06
1.0468e-06
9.34191e-07
8.34617e-07
7.46496e-07
6.68444e-07
5.99247e-07
5.37844e-07
4.83303e-07
4.34811e-07
3.91651e-07
3.53198e-07
3.18901e-07
2.88278e-07
2.60904e-07
2.36408e-07
2.1446e-07
1.94774e-07
1.77095e-07
1.61199e-07
1.46892e-07
1.33996e-07
1.17093e-06
1.17108e-06
1.17364e-06
1.17789e-06
1.18313e-06
1.18995e-06
1.1983e-06
1.20819e-06
1.21955e-06
1.2323e-06
1.24626e-06
1.26186e-06
1.27829e-06
1.29558e-06
1.31353e-06
1.24191e-06
1.21879e-06
1.1968e-06
1.1761e-06
1.15679e-06
1.13869e-06
1.12263e-06
1.10798e-06
1.09497e-06
1.08359e-06
1.07382e-06
1.06561e-06
1.0589e-06
1.05369e-06
1.04933e-06
1.0379e-06
1.03804e-06
1.0403e-06
1.04407e-06
1.04875e-06
1.05485e-06
1.06237e-06
1.07132e-06
1.08165e-06
1.0933e-06
1.10612e-06
1.12052e-06
1.13579e-06
1.15198e-06
1.16892e-06
1.10782e-06
1.08669e-06
1.06663e-06
1.0478e-06
1.03028e-06
1.01389e-06
9.99366e-07
9.86157e-07
9.74443e-07
9.64213e-07
9.55447e-07
9.48096e-07
9.42092e-07
9.37426e-07
9.33526e-07
9.2087e-07
9.20986e-07
9.23002e-07
9.26347e-07
9.30528e-07
9.36001e-07
9.42769e-07
9.50878e-07
9.60282e-07
9.70933e-07
9.82727e-07
9.96021e-07
1.01024e-06
1.02539e-06
1.04136e-06
9.89341e-07
9.70002e-07
9.51697e-07
9.34536e-07
9.18611e-07
9.03773e-07
8.90615e-07
8.78685e-07
8.68125e-07
8.5892e-07
8.51044e-07
8.44449e-07
8.39067e-07
8.34886e-07
8.31399e-07
8.17838e-07
8.17942e-07
8.19735e-07
8.22709e-07
8.26456e-07
8.31369e-07
8.37468e-07
8.4482e-07
8.53397e-07
8.63152e-07
8.74005e-07
8.86283e-07
8.99513e-07
9.13701e-07
9.2874e-07
8.84567e-07
8.66848e-07
8.50119e-07
8.34467e-07
8.19976e-07
8.06516e-07
7.94586e-07
7.83795e-07
7.74263e-07
7.65969e-07
7.58884e-07
7.5296e-07
7.48131e-07
7.4438e-07
7.41256e-07
7.2707e-07
7.27164e-07
7.28762e-07
7.31411e-07
7.34774e-07
7.39192e-07
7.44693e-07
7.51361e-07
7.59193e-07
7.68142e-07
7.78138e-07
7.89481e-07
8.01794e-07
8.15077e-07
8.29231e-07
7.91824e-07
7.75572e-07
7.60267e-07
7.45977e-07
7.32772e-07
7.20546e-07
7.09716e-07
6.99944e-07
6.91329e-07
6.83847e-07
6.77465e-07
6.72135e-07
6.67798e-07
6.64428e-07
6.61628e-07
6.4705e-07
6.47135e-07
6.48561e-07
6.50924e-07
6.53948e-07
6.57929e-07
6.62897e-07
6.68947e-07
6.76104e-07
6.84325e-07
6.93541e-07
7.04024e-07
7.15481e-07
7.27916e-07
7.4123e-07
7.09654e-07
6.9473e-07
6.80713e-07
6.67654e-07
6.55607e-07
6.44488e-07
6.34644e-07
6.25784e-07
6.17988e-07
6.11227e-07
6.05471e-07
6.00672e-07
5.9677e-07
5.93738e-07
5.91226e-07
5.76451e-07
5.7653e-07
5.77804e-07
5.79914e-07
5.82637e-07
5.86231e-07
5.90727e-07
5.96219e-07
6.02759e-07
6.1032e-07
6.18829e-07
6.28522e-07
6.39179e-07
6.50818e-07
6.63339e-07
6.36781e-07
6.23063e-07
6.1021e-07
5.98263e-07
5.87263e-07
5.77136e-07
5.68176e-07
5.60134e-07
5.53069e-07
5.46955e-07
5.41755e-07
5.37428e-07
5.33915e-07
5.31184e-07
5.28928e-07
5.14116e-07
5.1419e-07
5.1533e-07
5.17217e-07
5.19672e-07
5.22922e-07
5.26998e-07
5.31989e-07
5.37965e-07
5.44923e-07
5.5279e-07
5.61759e-07
5.71669e-07
5.82558e-07
5.9433e-07
5.7209e-07
5.59465e-07
5.47667e-07
5.36727e-07
5.26671e-07
5.17437e-07
5.09273e-07
5.01964e-07
4.95554e-07
4.90016e-07
4.85315e-07
4.81407e-07
4.78239e-07
4.75776e-07
4.73749e-07
4.59033e-07
4.59102e-07
4.60125e-07
4.61813e-07
4.6403e-07
4.66974e-07
4.70677e-07
4.75219e-07
4.8068e-07
4.87084e-07
4.94364e-07
5.02672e-07
5.11887e-07
5.22066e-07
5.3313e-07
5.14602e-07
5.02972e-07
4.92129e-07
4.821e-07
4.729e-07
4.64471e-07
4.57022e-07
4.50371e-07
4.44548e-07
4.39527e-07
4.35271e-07
4.31738e-07
4.28877e-07
4.26653e-07
4.2483e-07
4.10316e-07
4.10382e-07
4.113e-07
4.12813e-07
4.14817e-07
4.17487e-07
4.20858e-07
4.24999e-07
4.29991e-07
4.35883e-07
4.42627e-07
4.5033e-07
4.58899e-07
4.68409e-07
4.78802e-07
4.6346e-07
4.5274e-07
4.42762e-07
4.33557e-07
4.25131e-07
4.17431e-07
4.10627e-07
4.04566e-07
3.99271e-07
3.94713e-07
3.90854e-07
3.87655e-07
3.85069e-07
3.83059e-07
3.81418e-07
3.67193e-07
3.67255e-07
3.68081e-07
3.69439e-07
3.71253e-07
3.73677e-07
3.7675e-07
3.80533e-07
3.851e-07
3.90519e-07
3.96766e-07
4.03918e-07
4.11891e-07
4.20768e-07
4.30521e-07
4.17912e-07
4.08026e-07
3.98835e-07
3.90376e-07
3.82652e-07
3.7561e-07
3.69388e-07
3.63859e-07
3.59037e-07
3.54894e-07
3.51392e-07
3.48493e-07
3.46152e-07
3.44332e-07
3.42854e-07
3.28988e-07
3.29045e-07
3.2979e-07
3.3101e-07
3.32653e-07
3.34856e-07
3.37661e-07
3.41124e-07
3.45309e-07
3.5029e-07
3.56074e-07
3.6272e-07
3.70145e-07
3.78429e-07
3.87572e-07
3.77299e-07
3.68177e-07
3.59706e-07
3.51923e-07
3.44834e-07
3.38389e-07
3.32694e-07
3.27645e-07
3.23249e-07
3.19477e-07
3.16295e-07
3.13665e-07
3.11543e-07
3.09894e-07
3.08562e-07
2.95107e-07
2.95159e-07
2.95831e-07
2.9693e-07
2.9842e-07
3.00425e-07
3.02987e-07
3.06161e-07
3.10004e-07
3.14585e-07
3.19935e-07
3.26112e-07
3.33033e-07
3.40764e-07
3.49327e-07
3.41043e-07
3.32624e-07
3.24813e-07
3.17646e-07
3.11132e-07
3.05226e-07
3.00009e-07
2.95392e-07
2.91379e-07
2.87943e-07
2.85048e-07
2.82659e-07
2.80733e-07
2.79237e-07
2.78035e-07
2.65032e-07
2.6508e-07
2.65686e-07
2.66677e-07
2.68031e-07
2.69856e-07
2.72199e-07
2.75112e-07
2.78647e-07
2.82864e-07
2.8781e-07
2.93547e-07
3.00004e-07
3.07223e-07
3.15236e-07
3.08641e-07
3.00865e-07
2.9366e-07
2.87055e-07
2.81063e-07
2.75646e-07
2.70862e-07
2.66636e-07
2.62969e-07
2.59834e-07
2.57198e-07
2.55025e-07
2.53276e-07
2.51917e-07
2.50831e-07
2.38309e-07
2.38353e-07
2.38901e-07
2.39795e-07
2.41026e-07
2.4269e-07
2.44834e-07
2.4751e-07
2.50765e-07
2.54654e-07
2.59225e-07
2.6455e-07
2.70574e-07
2.77319e-07
2.84816e-07
2.79649e-07
2.72462e-07
2.65813e-07
2.59724e-07
2.54207e-07
2.49232e-07
2.4484e-07
2.40969e-07
2.37615e-07
2.34751e-07
2.32347e-07
2.30369e-07
2.28778e-07
2.27543e-07
2.26561e-07
2.1454e-07
2.14581e-07
2.15075e-07
2.15883e-07
2.17005e-07
2.18523e-07
2.20486e-07
2.22945e-07
2.25947e-07
2.29538e-07
2.33766e-07
2.38703e-07
2.4432e-07
2.50627e-07
2.57642e-07
2.5368e-07
2.4703e-07
2.40891e-07
2.35277e-07