/*--------------------------------*- C++ -*----------------------------------*\
| =========                 |                                                 |
| \\      /  F ield         | OpenFOAM Extend Project: Open source CFD        |
|  \\    /   O peration     | Version:  1.6-ext                               |
|   \\  /    A nd           | Web:      www.extend-project.de                 |
|    \\/     M anipulation  |                                                 |
\*---------------------------------------------------------------------------*/
FoamFile
{
    version     2.0;
    format      ascii;
    class       volScalarField;
    location    "1.6";
    object      p;
}
// * * * * * * * * * * * * * * * * * * * * * * * * * * * * * * * * * * * * * //

dimensions      [0 2 -2 0 0 0 0];

internalField   nonuniform List<scalar> 
72
(
-0.0239146
-0.0230794
-0.0197254
-0.0150269
-0.0100981
-0.00571967
-0.00235917
-0.000103507
0.00133592
-0.0248449
-0.024284
-0.0213392
-0.0166761
-0.0117364
-0.00717807
-0.00354503
-0.000965621
0.00100434
-0.0280249
-0.0274879
-0.0243445
-0.0184897
-0.0130329
-0.00789023
-0.00383183
-0.00102543
0.00113348
-0.0335522
-0.0328618
-0.0287571
-0.0221958
-0.0151793
-0.0088825
-0.00409793
-0.000965753
0.00127627
-0.0425374
-0.0413037
-0.0360926
-0.0276003
-0.0183582
-0.0103025
-0.0044358
-0.000850327
0.00135147
-0.0564175
-0.0536487
-0.0466795
-0.0350458
-0.0226202
-0.0121268
-0.00484181
-0.000710922
0.00129519
-0.0737909
-0.0671184
-0.0587252
-0.0435524
-0.0272094
-0.0139165
-0.00518445
-0.000594103
0.00104596
-0.108452
-0.0870385
-0.0708802
-0.0504623
-0.0301426
-0.0146097
-0.00510204
-0.000467743
0.000608166
)
;

boundaryField
{
    inlet
    {
        type            zeroGradient;
    }
    outlet
    {
        type            totalPressure;
        rho             none;
        psi             none;
        gamma           1;
        p0              uniform 0;
        value           uniform 0;
    }
    fixedWalls
    {
        type            zeroGradient;
    }
    frontAndBack
    {
        type            empty;
    }
    procBoundary0to1
    {
        type            processor;
        value           nonuniform List<scalar> 9(-0.100005 -0.0878857 -0.0707215 -0.0486701 -0.0279461 -0.0128386 -0.00414345 -0.000197727 9.06612e-05);
    }
}


// ************************************************************************* //
