/*--------------------------------*- C++ -*----------------------------------*\
| =========                 |                                                 |
| \\      /  F ield         | OpenFOAM Extend Project: Open source CFD        |
|  \\    /   O peration     | Version:  1.6-ext                               |
|   \\  /    A nd           | Web:      www.extend-project.de                 |
|    \\/     M anipulation  |                                                 |
\*---------------------------------------------------------------------------*/
FoamFile
{
    version     2.0;
    format      ascii;
    class       volScalarField;
    location    "2";
    object      p;
}
// * * * * * * * * * * * * * * * * * * * * * * * * * * * * * * * * * * * * * //

dimensions      [0 2 -2 0 0 0 0];

internalField   nonuniform List<scalar> 
72
(
-0.0286128
-0.0283986
-0.0254031
-0.0207449
-0.0151995
-0.00968606
-0.00497862
-0.00144603
0.00165121
-0.0289735
-0.0290279
-0.026453
-0.0222171
-0.0168551
-0.0112507
-0.00634013
-0.00244336
0.00120379
-0.0317995
-0.0319921
-0.0292796
-0.0246102
-0.0185884
-0.0123301
-0.00684069
-0.0025703
0.00135666
-0.0370071
-0.0372502
-0.0342097
-0.0287057
-0.021423
-0.0139525
-0.00749642
-0.0026512
0.00150479
-0.0453334
-0.0452479
-0.0415917
-0.0350653
-0.0257266
-0.0164161
-0.00851067
-0.00281545
0.00148472
-0.0575885
-0.0562769
-0.0522585
-0.0435423
-0.0317171
-0.0197394
-0.0098835
-0.003098
0.00119914
-0.0725677
-0.0680342
-0.0634434
-0.052788
-0.0379505
-0.0230823
-0.0112257
-0.00343239
0.000639681
-0.100954
-0.0827415
-0.0740666
-0.0599902
-0.0419662
-0.0247814
-0.0117208
-0.00357409
-7.87535e-05
)
;

boundaryField
{
    inlet
    {
        type            zeroGradient;
    }
    outlet
    {
        type            totalPressure;
        rho             none;
        psi             none;
        gamma           1;
        p0              uniform 0;
        value           uniform 0;
    }
    fixedWalls
    {
        type            zeroGradient;
    }
    frontAndBack
    {
        type            empty;
    }
    procBoundary0to1
    {
        type            processor;
        value           nonuniform List<scalar> 9(-0.0935925 -0.0842882 -0.0740362 -0.0585758 -0.0399128 -0.0228651 -0.0105214 -0.00317487 -0.000779511);
    }
}


// ************************************************************************* //
