/*--------------------------------*- C++ -*----------------------------------*\
| =========                 |                                                 |
| \\      /  F ield         | OpenFOAM Extend Project: Open source CFD        |
|  \\    /   O peration     | Version:  1.6-ext                               |
|   \\  /    A nd           | Web:      www.extend-project.de                 |
|    \\/     M anipulation  |                                                 |
\*---------------------------------------------------------------------------*/
FoamFile
{
    version     2.0;
    format      ascii;
    class       surfaceScalarField;
    location    "2";
    object      phi;
}
// * * * * * * * * * * * * * * * * * * * * * * * * * * * * * * * * * * * * * //

dimensions      [0 3 -1 0 0 0 0];

internalField   nonuniform List<scalar> 
127
(
-5.18941e-06
5.18941e-06
-1.16337e-05
6.44432e-06
-1.43633e-05
2.72958e-06
-1.22224e-05
-2.14095e-06
-6.03348e-06
-6.18889e-06
2.39763e-06
-8.43111e-06
1.15052e-05
-9.10757e-06
2.02839e-05
-8.77871e-06
-8.46865e-06
-7.74865e-06
1.29381e-05
-1.55576e-05
1.42533e-05
-1.62636e-05
3.43551e-06
-8.3319e-06
-1.00726e-05
6.32553e-06
-2.08463e-05
2.44418e-05
-2.65474e-05
4.30251e-05
-2.76909e-05
5.98119e-05
-2.55655e-05
-2.25678e-05
-9.25573e-06
2.21938e-05
-1.76135e-05
2.2611e-05
-1.64265e-05
2.24852e-06
-4.01966e-06
-2.24794e-05
1.66669e-05
-4.15329e-05
4.14248e-05
-5.13053e-05
6.62726e-05
-5.25387e-05
8.83381e-05
-4.7631e-05
-4.03069e-05
-1.17939e-05
3.39876e-05
-2.15003e-05
3.23174e-05
-1.89467e-05
-3.05038e-07
-2.88479e-06
-3.85413e-05
2.28377e-05
-6.72554e-05
5.30081e-05
-8.14757e-05
8.2782e-05
-8.23126e-05
0.000108886
-7.37353e-05
-6.06144e-05
-1.40571e-05
4.80447e-05
-2.31025e-05
4.13629e-05
-1.72953e-05
-6.11227e-06
3.25698e-06
-5.90936e-05
3.37659e-05
-9.77643e-05
6.82259e-05
-0.000115936
0.000101367
-0.000115454
0.000129929
-0.000102297
-8.20622e-05
-1.17128e-05
5.97575e-05
-1.23804e-05
4.20305e-05
1.89234e-06
-2.0385e-05
2.84791e-05
-8.56803e-05
6.25538e-05
-0.000131839
9.83213e-05
-0.000151703
0.000131267
-0.0001484
0.000158989
-0.000130019
-0.000102124
4.20061e-06
5.55569e-05
2.5012e-05
2.12191e-05
5.43855e-05
-4.97585e-05
8.75128e-05
-0.000118808
0.000121169
-0.000165495
0.000152421
-0.000182956
0.000179011
-0.000174989
0.000200466
-0.000151474
-0.000116882
5.24638e-05
0.000106372
0.000151492
0.000186845
0.000213207
0.000232011
0.000244737
0.000253627
)
;

boundaryField
{
    inlet
    {
        type            calculated;
        value           nonuniform 0();
    }
    outlet
    {
        type            calculated;
        value           nonuniform List<scalar> 8(2.87526e-05 7.39111e-05 0.000106077 0.000129194 0.000151376 0.000179052 0.000215223 0.000258703);
    }
    fixedWalls
    {
        type            calculated;
        value           uniform 0;
    }
    frontAndBack
    {
        type            empty;
    }
    procBoundary0to1
    {
        type            processor;
        value           nonuniform List<scalar> 9(3.09314e-06 -3.2689e-05 -9.48783e-05 -0.000154161 -0.000191856 -0.000201761 -0.000187715 -0.000160364 -0.000121957);
    }
}


// ************************************************************************* //
