/*--------------------------------*- C++ -*----------------------------------*\
| =========                 |                                                 |
| \\      /  F ield         | OpenFOAM Extend Project: Open source CFD        |
|  \\    /   O peration     | Version:  1.6-ext                               |
|   \\  /    A nd           | Web:      www.extend-project.de                 |
|    \\/     M anipulation  |                                                 |
\*---------------------------------------------------------------------------*/
FoamFile
{
    version     2.0;
    format      ascii;
    class       volVectorField;
    location    "2";
    object      U;
}
// * * * * * * * * * * * * * * * * * * * * * * * * * * * * * * * * * * * * * //

dimensions      [0 1 -1 0 0 0 0];

internalField   nonuniform List<vector> 
72
(
(-0.00237759 0.00231917 0)
(-0.00867954 0.00318225 0)
(-0.0140241 0.00186969 0)
(-0.014226 -1.34971e-05 0)
(-0.00973345 -0.0016691 0)
(-0.00202716 -0.00262057 0)
(0.00696262 -0.00301931 0)
(0.0156758 -0.00311985 0)
(0.0269029 -0.00335476 0)
(-0.00378161 0.00865987 0)
(-0.0125586 0.0102906 0)
(-0.0179794 0.00380817 0)
(-0.0141551 -0.00449369 0)
(-0.00208413 -0.0112996 0)
(0.0151737 -0.0150117 0)
(0.0339489 -0.0160122 0)
(0.0515103 -0.0151564 0)
(0.0711917 -0.0140882 0)
(-0.00466861 0.0172166 0)
(-0.0148304 0.0182824 0)
(-0.0197896 0.00316725 0)
(-0.0126987 -0.0151715 0)
(0.00496287 -0.0296683 0)
(0.0289066 -0.0373119 0)
(0.0542623 -0.0386331 0)
(0.0775377 -0.0353668 0)
(0.102808 -0.0305661 0)
(-0.00614948 0.0277169 0)
(-0.0186326 0.0273941 0)
(-0.0236632 0.00145002 0)
(-0.0138981 -0.0293156 0)
(0.00843482 -0.0529645 0)
(0.0378961 -0.0650182 0)
(0.0685189 -0.06627 0)
(0.0961941 -0.0597831 0)
(0.125539 -0.0499019 0)
(-0.00781064 0.0409224 0)
(-0.0215776 0.0376004 0)
(-0.0241534 -0.0018771 0)
(-0.0100247 -0.0476438 0)
(0.0172479 -0.0815411 0)
(0.0512546 -0.0979665 0)
(0.0856567 -0.0983625 0)
(0.116193 -0.0876473 0)
(0.147506 -0.0712279 0)
(-0.00758979 0.0542327 0)
(-0.0165606 0.043639 0)
(-0.00901339 -0.0112403 0)
(0.0131997 -0.0716782 0)
(0.0454022 -0.11509 0)
(0.0812668 -0.134604 0)
(0.115844 -0.132838 0)
(0.145829 -0.116948 0)
(0.175214 -0.0928471 0)
(0.000215153 0.0697226 0)
(0.0090565 0.0420262 0)
(0.0386905 -0.0304102 0)
(0.0719029 -0.101889 0)
(0.106086 -0.150668 0)
(0.138422 -0.170218 0)
(0.16676 -0.164611 0)
(0.190407 -0.143238 0)
(0.211806 -0.111464 0)
(0.0378088 0.0309722 0)
(0.074553 -0.00322326 0)
(0.131303 -0.0734442 0)
(0.173835 -0.140211 0)
(0.203888 -0.183528 0)
(0.224856 -0.197428 0)
(0.23898 -0.186089 0)
(0.249582 -0.15998 0)
(0.256271 -0.12246 0)
)
;

boundaryField
{
    inlet
    {
        type            fixedValue;
        value           nonuniform 0();
    }
    outlet
    {
        type            zeroGradient;
    }
    fixedWalls
    {
        type            fixedValue;
        value           uniform (0 0 0);
    }
    frontAndBack
    {
        type            empty;
    }
    procBoundary0to1
    {
        type            processor;
        value           nonuniform List<vector> 9((0.219634 -0.0233417 0) (0.255673 -0.0651693 0) (0.295539 -0.119973 0) (0.321056 -0.170574 0) (0.330564 -0.201125 0) (0.329242 -0.206103 0) (0.321604 -0.189142 0) (0.314298 -0.160621 0) (0.302167 -0.121617 0));
    }
}


// ************************************************************************* //
