/*--------------------------------*- C++ -*----------------------------------*\
| =========                 |                                                 |
| \\      /  F ield         | OpenFOAM Extend Project: Open source CFD        |
|  \\    /   O peration     | Version:  1.6-ext                               |
|   \\  /    A nd           | Web:      www.extend-project.de                 |
|    \\/     M anipulation  |                                                 |
\*---------------------------------------------------------------------------*/
FoamFile
{
    version     2.0;
    format      ascii;
    class       surfaceScalarField;
    location    "3.8";
    object      phi;
}
// * * * * * * * * * * * * * * * * * * * * * * * * * * * * * * * * * * * * * //

dimensions      [0 3 -1 0 0 0 0];

internalField   nonuniform List<scalar> 
123
(
5.69153e-05
0.000192427
9.03507e-05
0.000478948
8.35985e-05
0.000591939
5.75466e-05
0.000591207
2.78459e-05
0.000533752
6.48376e-06
0.000416719
0.000195009
0.000199371
3.76116e-06
0.000233149
-2.26156e-05
0.000272439
-4.74864e-05
0.000309535
-7.60588e-05
0.00034015
-0.000107582
0.000362545
-0.000138891
0.000375891
-0.000163061
0.000381132
-0.000180118
-0.000174434
0.000456055
2.66549e-05
0.000451087
-1.76481e-05
0.000457366
-5.3765e-05
0.000467397
-8.609e-05
0.000475465
-0.000115649
0.000477771
-0.000141198
0.000472829
-0.000158118
0.000460398
-0.000167687
-0.000155915
0.000587089
3.15048e-05
0.000580978
-1.15378e-05
0.000575733
-4.852e-05
0.000569103
-7.94598e-05
0.000558682
-0.000105228
0.000542227
-0.000124743
0.000519554
-0.000135445
0.00049033
-0.000138464
-0.00012474
0.000602733
1.99785e-05
0.000604689
-1.34937e-05
0.000598383
-4.22139e-05
0.000584714
-6.5791e-05
0.000563397
-8.39108e-05
0.000534202
-9.55477e-05
0.000498759
-0.000100003
0.000458106
-9.7811e-05
-8.61814e-05
0.000548744
4.9856e-06
0.000550763
-1.55122e-05
0.000541155
-3.26064e-05
0.000520897
-4.55324e-05
0.00049104
-5.40538e-05
0.000453282
-5.77899e-05
0.000410668
-5.73886e-05
0.00036621
-5.3353e-05
-4.72799e-05
0.000424541
-2.83634e-06
0.000419372
-1.0343e-05
0.000402576
-1.5811e-05
0.000376102
-1.90578e-05
0.00034233
-2.02823e-05
0.000304323
-1.97823e-05
0.000265335
-1.84014e-05
0.000228588
-1.66059e-05
-1.62413e-05
0.000192173
0.00018183
0.000166019
0.000146961
0.000126679
0.000106896
8.8495e-05
7.18891e-05
)
;

boundaryField
{
    inlet
    {
        type            calculated;
        value           nonuniform 0();
    }
    outlet
    {
        type            calculated;
        value           nonuniform List<scalar> 7(0.000377714 0.000441878 0.000459156 0.000419548 0.000327308 0.00019755 5.56478e-05);
    }
    fixedWalls
    {
        type            calculated;
        value           uniform 0;
    }
    frontAndBack
    {
        type            empty;
    }
    procBoundary1to2
    {
        type            processor;
        value           nonuniform List<scalar> 7(-0.000249342 -0.000512384 -0.000585186 -0.000565155 -0.000504051 -0.000395357 -0.000188525);
    }
    procBoundary1to0
    {
        type            processor;
        value           nonuniform List<scalar> 9(-1.0706e-05 -1.11616e-05 8.19633e-06 3.89628e-05 7.6966e-05 0.000116496 0.000149716 0.000174877 0.000177852);
    }
}


// ************************************************************************* //
