/*--------------------------------*- C++ -*----------------------------------*\
| =========                 |                                                 |
| \\      /  F ield         | OpenFOAM Extend Project: Open source CFD        |
|  \\    /   O peration     | Version:  1.6-ext                               |
|   \\  /    A nd           | Web:      www.extend-project.de                 |
|    \\/     M anipulation  |                                                 |
\*---------------------------------------------------------------------------*/
FoamFile
{
    version     2.0;
    format      ascii;
    class       volScalarField;
    location    "3.7";
    object      p;
}
// * * * * * * * * * * * * * * * * * * * * * * * * * * * * * * * * * * * * * //

dimensions      [0 2 -2 0 0 0 0];

internalField   nonuniform List<scalar> 
284
(
0.278593
0.247118
0.235658
0.230689
0.228805
0.228802
0.229703
0.23097
0.233013
0.249378
0.2405
0.235152
0.232636
0.231693
0.231756
0.23233
0.233149
0.235342
0.237419
0.234018
0.231459
0.230312
0.230327
0.231099
0.232104
0.233096
0.236079
0.227944
0.226878
0.225844
0.225653
0.226386
0.227742
0.229195
0.230421
0.234148
0.22013
0.219824
0.219432
0.219513
0.220266
0.221516
0.222742
0.223514
0.227344
0.21303
0.212912
0.212591
0.212354
0.212368
0.212519
0.212261
0.210932
0.212694
0.206283
0.206135
0.205542
0.204558
0.203175
0.201121
0.197512
0.190585
0.185054
0.199916
0.199645
0.198568
0.196533
0.193264
0.188144
0.179557
0.165146
0.120334
0.194177
0.193738
0.192045
0.188767
0.183175
0.173637
0.154321
0.1161
0.0219667
0.189435
0.188778
0.186407
0.181999
0.174785
0.163247
0.143083
0.111072
0.0572171
0.186158
0.185087
0.181889
0.176499
0.16851
0.157006
0.140037
0.115657
0.0824124
0.184855
0.182905
0.178455
0.171995
0.163491
0.152378
0.137834
0.118059
0.0943978
0.187148
0.182626
0.176054
0.168304
0.1593
0.148582
0.135709
0.119198
0.100528
0.193252
0.183448
0.174236
0.165382
0.156249
0.146085
0.134394
0.12005
0.103833
0.221486
0.189594
0.174828
0.164915
0.156004
0.146629
0.135879
0.122619
0.10719
-0.111923
-0.0766927
-0.0126656
-0.0340191
0.0324742
0.00230306
0.0610011
0.03461
0.0773746
0.0554297
0.085091
0.065843
0.0893386
0.070211
-0.0644327
-0.0557174
-0.052262
-0.0499009
-0.0459699
-0.0389048
-0.0290992
-0.0169356
-0.00554419
-0.0400766
-0.0406924
-0.0406957
-0.0397145
-0.0364825
-0.0302909
-0.0222218
-0.0125523
-0.00484485
-0.0120354
-0.018618
-0.0219809
-0.0231131
-0.0218462
-0.0180986
-0.013195
-0.00723933
-0.00388916
0.0175953
0.00655646
-0.000982491
-0.00537835
-0.00706143
-0.0065302
-0.00511225
-0.00284149
-0.00313598
0.0376943
0.0241812
0.0142902
0.00754963
0.00339159
0.00122429
6.34336e-06
-0.000336496
-0.00271039
0.0484746
0.0339742
0.0225749
0.0141369
0.00822839
0.00431952
0.00169124
0.000114718
-0.00261793
0.0518005
0.0357658
0.022717
0.0127677
0.00569902
0.00110304
-0.00156824
-0.00272266
-0.00394893
-0.0301189
-0.0311887
-0.0302367
-0.0276779
-0.0234707
-0.0177331
-0.0109864
-0.0058332
0.00544779
-0.0290281
-0.0302213
-0.029516
-0.0275318
-0.0240597
-0.0189675
-0.0125304
-0.0075697
0.00501698
-0.0302858
-0.0316956
-0.0312967
-0.0297107
-0.0265348
-0.0214623
-0.014607
-0.00913852
0.00467747
-0.0335428
-0.034911
-0.0348265
-0.0336574
-0.0306997
-0.0255016
-0.0180114
-0.0114375
0.00376911
-0.0388027
-0.039599
-0.0397352
-0.0390057
-0.0362243
-0.0308889
-0.0226085
-0.0138722
0.00141296
-0.0458536
-0.0450029
-0.0452309
-0.0449121
-0.0425473
-0.0367194
-0.0277133
-0.0164824
-0.00150459
-0.0541244
-0.0497345
-0.0498517
-0.0493744
-0.0470851
-0.041043
-0.0313092
-0.0186348
-0.0040095
-0.0720224
-0.0548942
-0.0529802
-0.0519283
-0.0487933
-0.0421878
-0.0320673
-0.0189938
-0.00539516
)
;

boundaryField
{
    inlet
    {
        type            zeroGradient;
    }
    outlet
    {
        type            totalPressure;
        rho             none;
        psi             none;
        gamma           1;
        p0              uniform 0;
        value           nonuniform List<scalar> 
15
(
-2.27564e-05
0
0
0
0
0
0
0
0
0
0
0
0
0
0
)
;
    }
    fixedWalls
    {
        type            zeroGradient;
    }
    frontAndBack
    {
        type            empty;
    }
}


// ************************************************************************* //
