/*--------------------------------*- C++ -*----------------------------------*\
| =========                 |                                                 |
| \\      /  F ield         | OpenFOAM Extend Project: Open source CFD        |
|  \\    /   O peration     | Version:  1.6-ext                               |
|   \\  /    A nd           | Web:      www.extend-project.de                 |
|    \\/     M anipulation  |                                                 |
\*---------------------------------------------------------------------------*/
FoamFile
{
    version     2.0;
    format      ascii;
    class       surfaceScalarField;
    location    "3.7";
    object      phi;
}
// * * * * * * * * * * * * * * * * * * * * * * * * * * * * * * * * * * * * * //

dimensions      [0 3 -1 0 0 0 0];

internalField   nonuniform List<scalar> 
525
(
0.00016082
3.918e-05
0.000117031
4.37886e-05
8.13875e-05
3.56438e-05
5.42638e-05
2.71237e-05
3.42305e-05
2.00333e-05
1.92647e-05
1.49658e-05
8.03745e-06
1.12273e-05
9.25965e-07
7.11148e-06
9.25965e-07
0.000204947
3.42333e-05
0.000190272
5.84637e-05
0.000162205
6.37109e-05
0.000128652
6.0676e-05
9.43092e-05
5.43764e-05
6.18906e-05
4.73844e-05
3.30323e-05
4.00856e-05
1.03322e-05
2.98116e-05
1.12582e-05
0.000208657
2.55763e-05
0.000208101
5.90198e-05
0.000194191
7.7621e-05
0.000168552
8.63149e-05
0.000134585
8.83435e-05
9.59452e-05
8.60239e-05
5.60901e-05
7.99407e-05
2.01551e-05
6.57466e-05
3.14133e-05
0.000205055
2.05212e-05
0.000208204
5.58712e-05
0.000202725
8.30996e-05
0.000186102
0.000102938
0.000158136
0.00011631
0.000120207
0.000123952
7.51384e-05
0.00012501
2.92477e-05
0.000111637
6.06609e-05
0.000202378
1.81434e-05
0.000205284
5.29648e-05
0.000203812
8.45719e-05
0.000194052
0.000112698
0.000173158
0.000137204
0.000139537
0.000157574
9.33355e-05
0.000171211
3.95624e-05
0.00016541
0.000100223
0.000201252
1.68917e-05
0.00020382
5.03968e-05
0.000204792
8.35996e-05
0.000200543
0.000116947
0.00018706
0.000150687
0.000160252
0.000184381
0.000116491
0.000214972
5.58597e-05
0.000226041
0.000156083
0.000201177
1.57152e-05
0.00020445
4.7123e-05
0.000208157
7.98927e-05
0.00020956
0.000115545
0.000204795
0.000155452
0.000188788
0.000200388
0.000153295
0.000250465
8.79866e-05
0.00029135
0.00024407
0.000201718
1.39968e-05
0.00020678
4.20611e-05
0.000214196
7.24765e-05
0.000222227
0.000107514
0.000227953
0.000149726
0.00022643
0.000201911
0.000205033
0.000271862
0.000139241
0.000357143
0.00038331
0.000202633
1.13641e-05
0.000210278
3.44159e-05
0.000222211
6.05433e-05
0.000237845
9.18804e-05
0.000257221
0.00013035
0.000282226
0.000176906
0.000319821
0.000234267
0.000385053
0.00029191
0.000362126
0.000406238
0.000203919
7.44479e-06
0.000214642
2.36928e-05
0.000231004
4.41817e-05
0.000252806
7.00785e-05
0.000281452
0.000101704
0.000320363
0.000137995
0.000373279
0.00018135
0.000455081
0.000210109
0.000281656
0.000535551
0.00020599
1.45463e-06
0.000220239
9.44436e-06
0.000240143
2.42773e-05
0.000265184
4.50375e-05
0.000296573
7.03147e-05
0.000336959
9.76083e-05
0.000388469
0.000129841
0.00045501
0.000143568
0.000187427
0.000549239
0.000209425
-7.97021e-06
0.00022733
-8.46046e-06
0.000248795
2.81239e-06
0.000273694
2.01385e-05
0.000303389
4.06196e-05
0.000340018
6.09789e-05
0.000386403
8.34555e-05
0.000438739
9.12318e-05
0.000111294
0.000514872
0.000214495
-2.24657e-05
0.000232264
-2.62291e-05
0.000249867
-1.47906e-05
0.000269419
5.87126e-07
0.000293206
1.68324e-05
0.000323184
3.10006e-05
0.000361969
4.46708e-05
0.000403767
4.94341e-05
5.65612e-05
0.0004585
0.000211659
-3.41245e-05
0.000216696
-3.1266e-05
0.000220242
-1.83367e-05
0.000227299
-6.46973e-06
0.000241075
3.05639e-06
0.000262203
9.87233e-06
0.000291477
1.53968e-05
0.00032383
1.70808e-05
1.85203e-05
0.000361871
0.000165876
0.00013461
0.000116273
0.000109803
0.000112859
0.000122732
0.000138129
0.000155209
0.00017373
0.00024964
0.000156598
5.66398e-05
0.000193001
0.000512633
0.000179516
8.98759e-05
0.000479396
0.000585258
0.000143496
8.31231e-05
0.000592011
0.000565066
9.33023e-05
5.71706e-05
0.000591018
0.000503879
4.79233e-05
2.75987e-05
0.000533451
0.000395156
1.46383e-05
6.37379e-06
0.000416381
0.000188368
0.000194742
0.000200443
3.32509e-06
-1.07679e-05
0.000234753
-2.35983e-05
-1.07111e-05
0.000274332
-4.94329e-05
9.85396e-06
0.000311279
-7.91986e-05
4.22511e-05
0.000341392
-0.000111699
8.15858e-05
0.000362991
-0.000143354
0.000121754
0.000375419
-0.000167067
0.000154639
0.000379765
-0.000182882
0.000178536
-0.000175216
0.000179281
0.000456874
2.58472e-05
0.000452259
-1.89829e-05
0.000458649
-5.58234e-05
0.000468387
-8.89365e-05
0.00047576
-0.000119071
0.000477051
-0.000144644
0.000470955
-0.000160971
0.00045739
-0.000169317
-0.000155958
0.000587188
3.06704e-05
0.00058111
-1.29046e-05
0.000575678
-5.03921e-05
0.000568565
-8.18233e-05
0.000557338
-0.000107843
0.000539838
-0.000127145
0.000516042
-0.000137174
0.00048581
-0.000139085
-0.000124241
0.000602416
1.9273e-05
0.000604091
-1.45797e-05
0.000597359
-4.36598e-05
0.00058303
-6.74942e-05
0.000560819
-8.56324e-05
0.000530617
-9.6944e-05
0.000494217
-0.000100774
0.000452889
-9.77571e-05
-8.54821e-05
0.000548208
4.51551e-06
0.000549832
-1.62031e-05
0.000539653
-3.34813e-05
0.000518637
-4.64782e-05
0.000487899
-5.48944e-05
0.000449299
-5.83437e-05
0.000406057
-5.7532e-05
0.000361371
-5.30717e-05
-4.67287e-05
0.00042392
-3.02324e-06
0.00041832
-1.06036e-05
0.000400946
-1.61073e-05
0.000373803
-1.93353e-05
0.000339391
-2.0482e-05
0.000300915
-1.98676e-05
0.000261742
-1.83593e-05
0.000225129
-1.64588e-05
-1.60145e-05
0.000191719
0.000181115
0.000165008
0.000145672
0.00012519
0.000105323
8.69636e-05
7.05047e-05
-4.01722e-06
4.01722e-06
-1.30663e-05
9.04911e-06
-2.27577e-05
9.69135e-06
-3.03243e-05
7.56664e-06
-3.41237e-05
3.79943e-06
-3.31746e-05
-9.49109e-07
-2.70633e-05
-6.1113e-06
-1.65347e-05
-1.05286e-05
-1.52473e-05
-9.79696e-06
1.38142e-05
-2.66354e-05
2.58876e-05
-4.28166e-05
2.58725e-05
-5.37557e-05
1.85057e-05
-5.69774e-05
7.02111e-06
-5.16853e-05
-6.24119e-06
-3.82878e-05
-1.95089e-05
-1.85347e-05
-3.02816e-05
-3.79195e-05
-1.20261e-05
2.58403e-05
-3.11805e-05
4.50419e-05
-4.84134e-05
4.31055e-05
-5.86836e-05
2.87759e-05
-5.94903e-05
7.82778e-06
-5.04134e-05
-1.53181e-05
-3.24545e-05
-3.74677e-05
-6.80264e-06
-5.59335e-05
-6.40647e-05
-1.20124e-05
3.78527e-05
-2.97994e-05
6.28289e-05
-4.46882e-05
5.79943e-05
-5.20577e-05
3.61454e-05
-4.96119e-05
5.38199e-06
-3.74118e-05
-2.75182e-05
-1.66518e-05
-5.82278e-05
1.15954e-05
-8.41807e-05
-9.28285e-05
-1.02437e-05
4.80965e-05
-2.24876e-05
7.50727e-05
-3.08144e-05
6.63211e-05
-3.1811e-05
3.7142e-05
-2.40759e-05
-2.35309e-06
-7.9433e-06
-4.36508e-05
1.49868e-05
-8.11578e-05
4.29851e-05
-0.000112179
-0.000122424
-6.21342e-06
5.43099e-05
-6.92766e-06
7.5787e-05
-2.38103e-06
6.17745e-05
8.39184e-06
2.63691e-05
2.46201e-05
-1.85814e-05
4.59947e-05
-6.50253e-05
7.11568e-05
-0.00010632
9.75031e-05
-0.000138525
-0.000149273
4.83327e-06
4.94766e-05
2.3213e-05
5.74073e-05
4.80727e-05
3.69149e-05
7.52123e-05
-7.70504e-07
0.000102454
-4.5823e-05
0.000129586
-9.21575e-05
0.000155134
-0.000131868
0.000178465
-0.000161857
-0.000169496
3.87087e-05
8.54049e-05
0.000132174
0.000173654
0.000209417
0.000239014
0.000261785
0.000278465
)
;

boundaryField
{
    inlet
    {
        type            calculated;
        value           uniform -0.0002;
    }
    outlet
    {
        type            calculated;
        value           nonuniform List<scalar> 
15
(
-1.28744e-06
4.1375e-06
1.93426e-05
4.03592e-05
7.25804e-05
0.000124352
0.000198688
0.00028825
0.0003757
0.000438132
0.000454093
0.00041413
0.000322618
0.000194415
5.44902e-05
)
;
    }
    fixedWalls
    {
        type            calculated;
        value           uniform 0;
    }
    frontAndBack
    {
        type            empty;
    }
}


// ************************************************************************* //
