/*--------------------------------*- C++ -*----------------------------------*\
| =========                 |                                                 |
| \\      /  F ield         | OpenFOAM Extend Project: Open source CFD        |
|  \\    /   O peration     | Version:  1.6-ext                               |
|   \\  /    A nd           | Web:      www.extend-project.de                 |
|    \\/     M anipulation  |                                                 |
\*---------------------------------------------------------------------------*/
FoamFile
{
    version     2.0;
    format      ascii;
    class       volVectorField;
    location    "3.7";
    object      U;
}
// * * * * * * * * * * * * * * * * * * * * * * * * * * * * * * * * * * * * * //

dimensions      [0 1 -1 0 0 0 0];

internalField   nonuniform List<vector> 
284
(
(0.163778 0.0266056 0)
(0.141783 0.0268375 0)
(0.0987178 0.0192602 0)
(0.0662661 0.0122 0)
(0.0431656 0.0072364 0)
(0.0259912 0.00429273 0)
(0.0129234 0.00253677 0)
(0.00289799 0.000898793 0)
(-0.000709341 -0.00121477 0)
(0.200596 0.0434045 0)
(0.202044 0.0577593 0)
(0.179285 0.0535563 0)
(0.146431 0.0444049 0)
(0.111506 0.0350918 0)
(0.0776585 0.0275441 0)
(0.0464247 0.0214377 0)
(0.01878 0.0144272 0)
(0.00303011 0.0034682 0)
(0.203092 0.0291675 0)
(0.21099 0.0599206 0)
(0.20455 0.0727643 0)
(0.184127 0.0754522 0)
(0.153452 0.0723532 0)
(0.116312 0.0664255 0)
(0.0758717 0.0585447 0)
(0.0348045 0.0455692 0)
(0.00733761 0.0195952 0)
(0.201521 0.0224981 0)
(0.207594 0.0574056 0)
(0.207897 0.0814272 0)
(0.197451 0.0963239 0)
(0.175113 0.103896 0)
(0.141761 0.105821 0)
(0.0990358 0.102187 0)
(0.0492051 0.0872616 0)
(0.0117212 0.0444675 0)
(0.200561 0.0190917 0)
(0.203982 0.0542705 0)
(0.205936 0.0843636 0)
(0.201446 0.10904 0)
(0.186873 0.128266 0)
(0.160049 0.141961 0)
(0.119523 0.148373 0)
(0.0645537 0.137387 0)
(0.0174779 0.0787021 0)
(0.20023 0.0174404 0)
(0.202359 0.0516658 0)
(0.204938 0.0845224 0)
(0.204443 0.115918 0)
(0.196791 0.145593 0)
(0.177965 0.172749 0)
(0.143285 0.19433 0)
(0.0865754 0.195437 0)
(0.0277756 0.124902 0)
(0.200215 0.0163199 0)
(0.20243 0.0489525 0)
(0.206407 0.0823548 0)
(0.209919 0.117513 0)
(0.209538 0.15513 0)
(0.201047 0.195098 0)
(0.178315 0.234439 0)
(0.124589 0.254042 0)
(0.0486544 0.197621 0)
(0.200343 0.0149364 0)
(0.203609 0.0449775 0)
(0.210138 0.0770139 0)
(0.218592 0.113031 0)
(0.226587 0.15516 0)
(0.231033 0.205619 0)
(0.224174 0.270209 0)
(0.19819 0.340263 0)
(0.0603288 0.287717 0)
(0.200546 0.0128177 0)
(0.205486 0.0387728 0)
(0.215465 0.0674716 0)
(0.229797 0.101214 0)
(0.247629 0.142488 0)
(0.271749 0.193675 0)
(0.299741 0.26109 0)
(0.358664 0.345678 0)
(0.399887 0.430203 0)
(0.200841 0.0096335 0)
(0.207971 0.0297318 0)
(0.221702 0.0533513 0)
(0.241189 0.0822376 0)
(0.266065 0.117734 0)
(0.300819 0.160095 0)
(0.34313 0.212247 0)
(0.411527 0.255469 0)
(0.493079 0.338331 0)
(0.201387 0.00498994 0)
(0.211571 0.0174152 0)
(0.228986 0.0350549 0)
(0.251785 0.0582223 0)
(0.279634 0.0865574 0)
(0.315589 0.11815 0)
(0.360436 0.155765 0)
(0.418134 0.172453 0)
(0.49894 0.228079 0)
(0.202456 -0.00238315 0)
(0.216936 0.00119198 0)
(0.237141 0.0135551 0)
(0.260494 0.0320578 0)
(0.287556 0.0545315 0)
(0.320176 0.0778805 0)
(0.361827 0.104754 0)
(0.409447 0.11372 0)
(0.473581 0.14142 0)
(0.204213 -0.013696 0)
(0.222725 -0.017675 0)
(0.240817 -0.00773018 0)
(0.259009 0.00828114 0)
(0.280361 0.0263857 0)
(0.306581 0.0435948 0)
(0.341435 0.0614176 0)
(0.380846 0.0677892 0)
(0.429201 0.0787311 0)
(0.201752 -0.0351474 0)
(0.215125 -0.0366696 0)
(0.218549 -0.0227549 0)
(0.222653 -0.00731528 0)
(0.2328 0.00638668 0)
(0.249935 0.0172713 0)
(0.275731 0.0265263 0)
(0.30633 0.0296317 0)
(0.342105 0.0324535 0)
(0.164659 -0.0248758 0)
(0.151312 -0.0222735 0)
(0.124233 -0.0126209 0)
(0.110956 -0.00495267 0)
(0.10985 0.000286827 0)
(0.116667 0.0036007 0)
(0.12978 0.00577128 0)
(0.146161 0.00609698 0)
(0.164508 0.00599197 0)
(0.355994 0.167034 0)
(0.186417 0.04356 0)
(0.54579 0.17746 0)
(0.500163 0.0802821 0)
(0.57702 0.166471 0)
(0.597645 0.0976087 0)
(0.543283 0.117066 0)
(0.58419 0.0727945 0)
(0.482315 0.0669594 0)
(0.522197 0.0405884 0)
(0.379435 0.0261931 0)
(0.408303 0.0126521 0)
(0.181922 0.00355489 0)
(0.19311 -0.000514741 0)
(0.189575 -0.00731832 0)
(0.212917 -0.0188287 0)
(0.252727 -0.0383538 0)
(0.29324 -0.0672493 0)
(0.327921 -0.101646 0)
(0.355866 -0.136672 0)
(0.371015 -0.164498 0)
(0.383212 -0.184366 0)
(0.375208 -0.180842 0)
(0.467163 0.0153676 0)
(0.451212 -0.0255611 0)
(0.45269 -0.0582723 0)
(0.463207 -0.0895026 0)
(0.473116 -0.120113 0)
(0.480056 -0.148164 0)
(0.474703 -0.16778 0)
(0.470986 -0.179915 0)
(0.439789 -0.169051 0)
(0.593993 0.0375555 0)
(0.585071 -0.010759 0)
(0.578212 -0.0505451 0)
(0.573009 -0.0848761 0)
(0.564317 -0.114358 0)
(0.552124 -0.137736 0)
(0.527874 -0.151447 0)
(0.508013 -0.156968 0)
(0.45743 -0.142485 0)
(0.601516 0.0273322 0)
(0.605992 -0.0126456 0)
(0.602682 -0.0466174 0)
(0.592634 -0.0751936 0)
(0.57418 -0.0981212 0)
(0.549082 -0.113969 0)
(0.512279 -0.121103 0)
(0.479645 -0.120275 0)
(0.418685 -0.105903 0)
(0.54467 0.0109987 0)
(0.552447 -0.0162428 0)
(0.547831 -0.0396962 0)
(0.532211 -0.0585184 0)
(0.505843 -0.0719983 0)
(0.471172 -0.0791237 0)
(0.427534 -0.0799959 0)
(0.387493 -0.0750906 0)
(0.327652 -0.065039 0)
(0.423282 -0.00252215 0)
(0.424291 -0.015978 0)
(0.412547 -0.0263813 0)
(0.389891 -0.0332129 0)
(0.358369 -0.0364405 0)
(0.321228 -0.0362552 0)
(0.280873 -0.0338525 0)
(0.244769 -0.0300265 0)
(0.198975 -0.0275381 0)
(0.194927 -0.00425728 0)
(0.187929 -0.00683422 0)
(0.17419 -0.00805031 0)
(0.156045 -0.00807039 0)
(0.135698 -0.00728827 0)
(0.115193 -0.0061444 0)
(0.0958419 -0.00522425 0)
(0.0792887 -0.00478722 0)
(0.0574659 -0.00567052 0)
(-0.00110429 0.00103662 0)
(-0.00761909 0.00324173 0)
(-0.0182118 0.00381314 0)
(-0.0272896 0.00330451 0)
(-0.0331884 0.00210405 0)
(-0.0346276 0.000363815 0)
(-0.0302934 -0.00176349 0)
(-0.0264972 -0.00372173 0)
(-0.00210651 -0.00640119 0)
(-0.00358168 0.00772843 0)
(-0.0170459 0.0159122 0)
(-0.0357029 0.0166146 0)
(-0.0501055 0.0126284 0)
(-0.0574339 0.00589685 0)
(-0.0561908 -0.00230372 0)
(-0.0452759 -0.0109095 0)
(-0.0347664 -0.0181308 0)
(0.00258814 -0.0247433 0)
(-0.00463967 0.0196416 0)
(-0.0205633 0.0353051 0)
(-0.0412656 0.0345618 0)
(-0.0559365 0.0239968 0)
(-0.0616152 0.00805848 0)
(-0.0571647 -0.00993657 0)
(-0.0415924 -0.0274964 0)
(-0.0266624 -0.0419879 0)
(0.0160821 -0.049963 0)
(-0.00484545 0.0320652 0)
(-0.0202462 0.0545162 0)
(-0.0390239 0.0513201 0)
(-0.0509811 0.033281 0)
(-0.0534256 0.00746627 0)
(-0.0457578 -0.0207741 0)
(-0.027259 -0.0474112 0)
(-0.00846282 -0.0697273 0)
(0.0358221 -0.0780786 0)
(-0.00458661 0.0434729 0)
(-0.0165806 0.0704263 0)
(-0.0286513 0.0639454 0)
(-0.033835 0.0383203 0)
(-0.0302488 0.00303947 0)
(-0.0179572 -0.0349893 0)
(0.00287546 -0.0697298 0)
(0.025194 -0.0986248 0)
(0.0673786 -0.108238 0)
(-0.00364155 0.0522372 0)
(-0.00814284 0.0784584 0)
(-0.00634971 0.0674343 0)
(0.00119896 0.0346829 0)
(0.0150056 -0.00832677 0)
(0.0345797 -0.0536807 0)
(0.0583838 -0.094192 0)
(0.0828636 -0.126513 0)
(0.119234 -0.13751 0)
(0.00105323 0.0599916 0)
(0.00997627 0.0740804 0)
(0.0344236 0.0553953 0)
(0.060595 0.0174724 0)
(0.0884741 -0.0296853 0)
(0.116858 -0.0778782 0)
(0.143447 -0.119831 0)
(0.168157 -0.151864 0)
(0.194535 -0.161812 0)
(0.0286359 0.0307809 0)
(0.0558804 0.0379828 0)
(0.108569 0.0169377 0)
(0.153372 -0.0193873 0)
(0.192598 -0.0632974 0)
(0.226776 -0.107745 0)
(0.252354 -0.144962 0)
(0.273899 -0.172609 0)
(0.285772 -0.177386 0)
)
;

boundaryField
{
    inlet
    {
        type            fixedValue;
        value           uniform (0.2 0 0);
    }
    outlet
    {
        type            zeroGradient;
    }
    fixedWalls
    {
        type            fixedValue;
        value           uniform (0 0 0);
    }
    frontAndBack
    {
        type            empty;
    }
}


// ************************************************************************* //
