/*--------------------------------*- C++ -*----------------------------------*\
| =========                 |                                                 |
| \\      /  F ield         | OpenFOAM Extend Project: Open source CFD        |
|  \\    /   O peration     | Version:  1.6-ext                               |
|   \\  /    A nd           | Web:      www.extend-project.de                 |
|    \\/     M anipulation  |                                                 |
\*---------------------------------------------------------------------------*/
FoamFile
{
    version     2.0;
    format      ascii;
    class       volScalarField;
    location    "3.6";
    object      p;
}
// * * * * * * * * * * * * * * * * * * * * * * * * * * * * * * * * * * * * * //

dimensions      [0 2 -2 0 0 0 0];

internalField   nonuniform List<scalar> 
70
(
-0.078243
-0.0354531
0.00103161
0.033491
0.0544066
0.0648676
0.0692267
-0.0660145
-0.0573466
-0.0538749
-0.0513002
-0.0469327
-0.0393057
-0.0290128
-0.0166148
-0.00539931
-0.0415408
-0.0421852
-0.0421153
-0.040895
-0.0372593
-0.0306011
-0.0221609
-0.0123365
-0.00476961
-0.0132851
-0.0198088
-0.0230608
-0.0239829
-0.022414
-0.0183512
-0.0132111
-0.00716947
-0.00388599
0.0165274
0.00555798
-0.00185017
-0.00606788
-0.00754186
-0.00681678
-0.00525392
-0.00292071
-0.00318531
0.0367395
0.0233151
0.0135422
0.00693817
0.00292053
0.000874035
-0.000243744
-0.000516093
-0.00277844
0.04757
0.0331585
0.0218615
0.0135316
0.00772896
0.00391516
0.00138077
-0.000101199
-0.00267834
0.0508732
0.0349084
0.0219459
0.0120989
0.00514601
0.000672747
-0.00187175
-0.0029015
-0.00397481
)
;

boundaryField
{
    inlet
    {
        type            zeroGradient;
    }
    outlet
    {
        type            totalPressure;
        rho             none;
        psi             none;
        gamma           1;
        p0              uniform 0;
        value           uniform 0;
    }
    fixedWalls
    {
        type            zeroGradient;
    }
    frontAndBack
    {
        type            empty;
    }
    procBoundary1to2
    {
        type            processor;
        value           nonuniform List<scalar> 7(-0.113453 -0.0140594 0.0312057 0.0598454 0.0762977 0.0840561 0.0883081);
    }
    procBoundary1to0
    {
        type            processor;
        value           nonuniform List<scalar> 9(-0.0735553 -0.0564503 -0.0545727 -0.0532736 -0.0497519 -0.0425714 -0.0319204 -0.0185809 -0.00518817);
    }
}


// ************************************************************************* //
