/*--------------------------------*- C++ -*----------------------------------*\
| =========                 |                                                 |
| \\      /  F ield         | OpenFOAM Extend Project: Open source CFD        |
|  \\    /   O peration     | Version:  1.6-ext                               |
|   \\  /    A nd           | Web:      www.extend-project.de                 |
|    \\/     M anipulation  |                                                 |
\*---------------------------------------------------------------------------*/
FoamFile
{
    version     2.0;
    format      ascii;
    class       surfaceScalarField;
    location    "3.6";
    object      phi;
}
// * * * * * * * * * * * * * * * * * * * * * * * * * * * * * * * * * * * * * //

dimensions      [0 3 -1 0 0 0 0];

internalField   nonuniform List<scalar> 
123
(
5.63249e-05
0.000193616
8.93381e-05
0.000479835
8.2586e-05
0.000592043
5.6746e-05
0.000590799
2.73196e-05
0.000533153
6.24926e-06
0.000416068
0.000194486
0.000201586
2.84195e-06
0.000236428
-2.46885e-05
0.000276256
-5.15554e-05
0.000313008
-8.25436e-05
0.000342524
-0.000115993
0.000363232
-0.000147872
0.000374664
-0.000170951
0.00037807
-0.000185319
-0.000175573
0.000457718
2.49591e-05
0.000453462
-2.04327e-05
0.000459934
-5.80272e-05
0.000469317
-9.19271e-05
0.000475906
-0.000122581
0.000476093
-0.000148059
0.000468778
-0.000163636
0.00045406
-0.000170601
-0.000155617
0.000587249
2.97525e-05
0.000581195
-1.43787e-05
0.000575549
-5.23806e-05
0.000567903
-8.42811e-05
0.000555806
-0.000110484
0.000537209
-0.000129463
0.000512266
-0.000138693
0.000481058
-0.000139394
-0.000123431
0.000602055
1.84966e-05
0.000603427
-1.57509e-05
0.000596235
-4.51887e-05
0.000581203
-6.9249e-05
0.000558059
-8.73402e-05
0.000526838
-9.82413e-05
0.000489509
-0.000101364
0.000447588
-9.74729e-05
-8.45705e-05
0.000547653
3.99678e-06
0.00054885
-1.69478e-05
0.000538062
-3.44013e-05
0.000516254
-4.74404e-05
0.000484621
-5.57072e-05
0.000445203
-5.88231e-05
0.000401404
-5.75653e-05
0.000356597
-5.26666e-05
-4.60657e-05
0.000423294
-3.22907e-06
0.000417229
-1.08834e-05
0.000399244
-1.64158e-05
0.000371416
-1.96123e-05
0.000336375
-2.06665e-05
0.000297478
-1.99263e-05
0.000258197
-1.82836e-05
0.000221805
-1.62752e-05
-1.57514e-05
0.000191257
0.000180373
0.000163958
0.000144345
0.000123679
0.000103752
8.54687e-05
6.91936e-05
)
;

boundaryField
{
    inlet
    {
        type            calculated;
        value           nonuniform 0();
    }
    outlet
    {
        type            calculated;
        value           nonuniform List<scalar> 7(0.000373371 0.000434104 0.000448872 0.000408728 0.000318093 0.000191491 5.34421e-05);
    }
    fixedWalls
    {
        type            calculated;
        value           uniform 0;
    }
    frontAndBack
    {
        type            empty;
    }
    procBoundary1to2
    {
        type            processor;
        value           nonuniform List<scalar> 7(-0.000249941 -0.000512848 -0.000585291 -0.000564959 -0.000503727 -0.000394998 -0.000188237);
    }
    procBoundary1to0
    {
        type            processor;
        value           nonuniform List<scalar> 9(-1.08122e-05 -1.0153e-05 1.17266e-05 4.57921e-05 8.64773e-05 0.000127164 0.000159518 0.000181914 0.000180272);
    }
}


// ************************************************************************* //
