/*--------------------------------*- C++ -*----------------------------------*\
| =========                 |                                                 |
| \\      /  F ield         | OpenFOAM Extend Project: Open source CFD        |
|  \\    /   O peration     | Version:  1.6-ext                               |
|   \\  /    A nd           | Web:      www.extend-project.de                 |
|    \\/     M anipulation  |                                                 |
\*---------------------------------------------------------------------------*/
FoamFile
{
    version     2.0;
    format      ascii;
    class       surfaceScalarField;
    location    "2.6";
    object      phi;
}
// * * * * * * * * * * * * * * * * * * * * * * * * * * * * * * * * * * * * * //

dimensions      [0 3 -1 0 0 0 0];

internalField   nonuniform List<scalar> 
123
(
5.03559e-05
0.00020362
7.82297e-05
0.000485872
7.12129e-05
0.00058984
4.73618e-05
0.000586058
2.09482e-05
0.000529617
3.48395e-06
0.000413236
0.000191757
0.000219867
-6.63726e-06
0.000258978
-4.42515e-05
0.000296961
-8.58761e-05
0.0003256
-0.000129452
0.000342821
-0.00016677
0.000349584
-0.000189868
0.00034826
-0.000193982
0.000342199
-0.000183179
-0.000151527
0.00046932
9.91449e-06
0.0004682
-4.31315e-05
0.000471458
-8.91336e-05
0.000471049
-0.000129043
0.000463106
-0.000158828
0.000447174
-0.000173936
0.000425422
-0.00017223
0.000400791
-0.000158547
-0.000129001
0.000585904
1.38502e-05
0.000579041
-3.62686e-05
0.000568088
-7.81801e-05
0.000550483
-0.000111438
0.000525153
-0.000133498
0.000492973
-0.000141756
0.000457033
-0.000136291
0.000420281
-0.000121795
-9.78794e-05
0.000595013
4.89538e-06
0.000591429
-3.26845e-05
0.000576951
-6.37024e-05
0.000551966
-8.64534e-05
0.000517684
-9.92154e-05
0.000476915
-0.000100987
0.000434058
-9.34345e-05
0.000392637
-8.03743e-05
-6.4278e-05
0.000539304
-4.79129e-06
0.000533972
-2.73532e-05
0.000514927
-4.46566e-05
0.000484014
-5.55412e-05
0.000444279
-5.94803e-05
0.0004002
-5.69076e-05
0.000356785
-5.0019e-05
0.000317683
-4.12727e-05
-3.38051e-05
0.000415083
-6.63811e-06
0.000402245
-1.45157e-05
0.000377071
-1.94821e-05
0.000342961
-2.14315e-05
0.000304247
-2.07659e-05
0.000265605
-1.82661e-05
0.000230723
-1.51364e-05
0.000201701
-1.2251e-05
-1.13208e-05
0.000185119
0.000170603
0.000151121
0.00012969
0.000108924
9.06577e-05
7.55213e-05
6.32703e-05
)
;

boundaryField
{
    inlet
    {
        type            calculated;
        value           nonuniform 0();
    }
    outlet
    {
        type            calculated;
        value           nonuniform List<scalar> 7(0.000333884 0.000378266 0.000389159 0.000359036 0.00028721 0.000179217 5.19495e-05);
    }
    fixedWalls
    {
        type            calculated;
        value           uniform 0;
    }
    frontAndBack
    {
        type            empty;
    }
    procBoundary1to2
    {
        type            processor;
        value           nonuniform List<scalar> 7(-0.000253976 -0.000513746 -0.000582823 -0.000562207 -0.000503204 -0.000395772 -0.000188273);
    }
    procBoundary1to0
    {
        type            processor;
        value           nonuniform List<scalar> 9(-9.60921e-06 5.13988e-06 4.78941e-05 0.000100813 0.000149549 0.000183105 0.000195306 0.00018924 0.000159841);
    }
}


// ************************************************************************* //
