/*--------------------------------*- C++ -*----------------------------------*\
| =========                 |                                                 |
| \\      /  F ield         | OpenFOAM Extend Project: Open source CFD        |
|  \\    /   O peration     | Version:  1.6-ext                               |
|   \\  /    A nd           | Web:      www.extend-project.de                 |
|    \\/     M anipulation  |                                                 |
\*---------------------------------------------------------------------------*/
FoamFile
{
    version     2.0;
    format      ascii;
    class       surfaceScalarField;
    location    "4.5";
    object      phi;
}
// * * * * * * * * * * * * * * * * * * * * * * * * * * * * * * * * * * * * * //

dimensions      [0 3 -1 0 0 0 0];

internalField   nonuniform List<scalar> 
123
(
5.81351e-05
0.000189047
9.26135e-05
0.000475509
8.59931e-05
0.000590597
5.95242e-05
0.000591957
2.91658e-05
0.000535995
7.05593e-06
0.00041969
0.000197205
0.000193333
5.93152e-06
0.000223675
-1.78885e-05
0.000260383
-3.77728e-05
0.000297122
-5.92905e-05
0.000329415
-8.38257e-05
0.000355295
-0.00011057
0.000373197
-0.000134224
0.000383353
-0.000154981
-0.000159745
0.000450698
3.07424e-05
0.000443563
-1.07531e-05
0.000448558
-4.2768e-05
0.000459307
-7.00395e-05
0.000470367
-9.48855e-05
0.000477769
-0.000117972
0.000479206
-0.000135662
0.000473855
-0.00014963
-0.000146923
0.00058557
3.57689e-05
0.000579065
-4.24782e-06
0.000574521
-3.82234e-05
0.000570157
-6.56764e-05
0.000563913
-8.86411e-05
0.000553386
-0.000107445
0.000537694
-0.00011997
0.000515789
-0.000127724
-0.000120958
0.000604092
2.36336e-05
0.000607531
-7.68695e-06
0.000603443
-3.41355e-05
0.000593374
-5.56066e-05
0.000577227
-7.24945e-05
0.000554384
-8.46017e-05
0.000525768
-9.13536e-05
0.000491286
-9.32424e-05
-8.59578e-05
0.000552217
7.41205e-06
0.00055635
-1.18203e-05
0.000549875
-2.76601e-05
0.000533975
-3.97069e-05
0.000509606
-4.81259e-05
0.000477792
-5.27875e-05
0.000440674
-5.42358e-05
0.000399985
-5.25533e-05
-4.83758e-05
0.000428979
-1.87724e-06
0.000426103
-8.94394e-06
0.000412545
-1.41022e-05
0.000390106
-1.72677e-05
0.000360706
-1.87259e-05
0.000326644
-1.87249e-05
0.000290415
-1.80075e-05
0.000254671
-1.68089e-05
-1.69249e-05
0.000195327
0.000186383
0.000172281
0.000155014
0.000136288
0.000117563
9.95552e-05
8.27463e-05
)
;

boundaryField
{
    inlet
    {
        type            calculated;
        value           nonuniform 0();
    }
    outlet
    {
        type            calculated;
        value           nonuniform List<scalar> 7(0.000384399 0.000461033 0.000489823 0.000456286 0.000362403 0.00022322 6.58214e-05);
    }
    fixedWalls
    {
        type            calculated;
        value           uniform 0;
    }
    frontAndBack
    {
        type            empty;
    }
    procBoundary1to2
    {
        type            processor;
        value           nonuniform List<scalar> 7(-0.000247182 -0.000509987 -0.000583977 -0.000565488 -0.000505637 -0.00039758 -0.000190149);
    }
    procBoundary1to0
    {
        type            processor;
        value           nonuniform List<scalar> 9(-1.02169e-05 -1.24543e-05 1.06483e-06 2.2552e-05 5.15326e-05 8.46899e-05 0.000116322 0.000144825 0.000158699);
    }
}


// ************************************************************************* //
