/*--------------------------------*- C++ -*----------------------------------*\
| =========                 |                                                 |
| \\      /  F ield         | OpenFOAM Extend Project: Open source CFD        |
|  \\    /   O peration     | Version:  1.6-ext                               |
|   \\  /    A nd           | Web:      www.extend-project.de                 |
|    \\/     M anipulation  |                                                 |
\*---------------------------------------------------------------------------*/
FoamFile
{
    version     2.0;
    format      ascii;
    class       surfaceScalarField;
    location    "2.8";
    object      phi;
}
// * * * * * * * * * * * * * * * * * * * * * * * * * * * * * * * * * * * * * //

dimensions      [0 3 -1 0 0 0 0];

internalField   nonuniform List<scalar> 
123
(
5.20198e-05
0.000200804
8.15169e-05
0.000484099
7.46614e-05
0.000590597
5.0277e-05
0.000587478
2.29443e-05
0.00053057
4.33004e-06
0.000413974
0.000192478
0.000215089
-3.8037e-06
0.000253379
-3.86661e-05
0.000292872
-7.66432e-05
0.000324282
-0.000117856
0.000344949
-0.000155745
0.000355092
-0.000182748
0.000356432
-0.000192768
0.000351926
-0.000188294
-0.000160548
0.000466288
1.40071e-05
0.000464847
-3.72249e-05
0.000469719
-8.15152e-05
0.000472528
-0.000120666
0.000468615
-0.000151832
0.000456559
-0.000170693
0.000437717
-0.000173926
0.000414417
-0.000164994
-0.000137636
0.000586407
1.81972e-05
0.000580043
-3.08601e-05
0.00057089
-7.23621e-05
0.000556207
-0.000105983
0.00053428
-0.000129905
0.000505088
-0.0001415
0.000470994
-0.000139832
0.000434416
-0.000128416
-0.000105288
0.000597063
8.61228e-06
0.000594872
-2.86686e-05
0.000582362
-5.98524e-05
0.000559858
-8.3479e-05
0.000528012
-9.80586e-05
0.000488875
-0.000102363
0.000446331
-9.72887e-05
0.000403715
-8.57998e-05
-6.96953e-05
0.000541663
-2.48126e-06
0.000537986
-2.49916e-05
0.000520853
-4.27196e-05
0.00049181
-5.44352e-05
0.000453388
-5.96373e-05
0.000409516
-5.849e-05
0.000364995
-5.27683e-05
0.000323733
-4.45375e-05
-3.68962e-05
0.000417263
-5.76995e-06
0.000406019
-1.37479e-05
0.000382279
-1.89794e-05
0.00034915
-2.13069e-05
0.000310599
-2.10865e-05
0.000271101
-1.89917e-05
0.000234475
-1.61416e-05
0.000203284
-1.33469e-05
-1.24042e-05
0.000186708
0.00017296
0.00015398
0.000132673
0.000111587
9.25952e-05
7.64536e-05
6.31067e-05
)
;

boundaryField
{
    inlet
    {
        type            calculated;
        value           nonuniform 0();
    }
    outlet
    {
        type            calculated;
        value           nonuniform List<scalar> 7(0.000343776 0.000391505 0.000402068 0.000368122 0.000290934 0.000178792 5.07025e-05);
    }
    fixedWalls
    {
        type            calculated;
        value           uniform 0;
    }
    frontAndBack
    {
        type            empty;
    }
    procBoundary1to2
    {
        type            processor;
        value           nonuniform List<scalar> 7(-0.000252824 -0.000513596 -0.000583742 -0.000563094 -0.000503237 -0.00039536 -0.000188148);
    }
    procBoundary1to0
    {
        type            processor;
        value           nonuniform List<scalar> 9(-1.04808e-05 3.75455e-07 3.7151e-05 8.64459e-05 0.000135078 0.000172606 0.000191428 0.0001928 0.000168698);
    }
}


// ************************************************************************* //
