/*--------------------------------*- C++ -*----------------------------------*\
| =========                 |                                                 |
| \\      /  F ield         | OpenFOAM Extend Project: Open source CFD        |
|  \\    /   O peration     | Version:  1.6-ext                               |
|   \\  /    A nd           | Web:      www.extend-project.de                 |
|    \\/     M anipulation  |                                                 |
\*---------------------------------------------------------------------------*/
FoamFile
{
    version     2.0;
    format      ascii;
    class       vectorField;
    location    "0.35";
    object      accumulatedFluidInterfaceDisplacement;
}
// * * * * * * * * * * * * * * * * * * * * * * * * * * * * * * * * * * * * * //


338
(
(2.22035e-06 2.83328e-06 4.15426e-27)
(4.12732e-06 3.55583e-06 -1.52301e-26)
(1.24986e-05 -2.12934e-05 -2.49037e-26)
(1.22021e-05 -2.0498e-05 -2.3655e-26)
(1.21579e-05 -1.94326e-05 1.417e-26)
(1.21121e-05 -1.83661e-05 1.59009e-26)
(1.20653e-05 -1.73007e-05 -1.09321e-26)
(1.20168e-05 -1.62381e-05 -5.11683e-27)
(1.1966e-05 -1.51796e-05 -5.67769e-29)
(1.19122e-05 -1.41264e-05 -1.35011e-27)
(1.18549e-05 -1.30796e-05 8.22496e-27)
(1.17938e-05 -1.20401e-05 3.69341e-29)
(1.17285e-05 -1.1009e-05 4.75067e-29)
(1.1659e-05 -9.98713e-06 -6.12709e-27)
(1.1585e-05 -8.9756e-06 -4.05822e-27)
(1.15066e-05 -7.97552e-06 6.3315e-28)
(1.14238e-05 -6.98805e-06 -3.6966e-27)
(1.13364e-05 -6.01443e-06 -3.44833e-27)
(1.12447e-05 -5.05592e-06 -2.51608e-27)
(1.11486e-05 -4.11385e-06 2.56226e-27)
(1.10481e-05 -3.18957e-06 1.22716e-27)
(1.09434e-05 -2.2845e-06 -3.4849e-28)
(1.08346e-05 -1.40004e-06 1.65137e-27)
(1.07216e-05 -5.37653e-07 -1.56868e-28)
(1.06047e-05 3.01176e-07 2.40251e-28)
(1.0484e-05 1.11493e-06 5.0483e-28)
(1.03597e-05 1.90206e-06 3.39385e-27)
(1.02319e-05 2.66097e-06 2.94027e-27)
(1.01009e-05 3.39004e-06 2.33871e-27)
(9.96699e-06 4.08757e-06 -6.77295e-27)
(9.83038e-06 4.75186e-06 -2.49071e-27)
(9.69143e-06 5.38113e-06 8.42192e-27)
(9.55048e-06 5.97357e-06 2.46716e-27)
(9.40792e-06 6.52734e-06 -4.17128e-27)
(9.26416e-06 7.04058e-06 1.16846e-27)
(9.11963e-06 7.51143e-06 2.51141e-27)
(8.97477e-06 7.93807e-06 -7.44918e-27)
(8.83e-06 8.31874e-06 -1.53468e-27)
(8.68573e-06 8.65183e-06 1.59247e-27)
(8.54231e-06 8.93585e-06 2.94058e-27)
(8.40002e-06 9.16959e-06 -2.65556e-27)
(8.25904e-06 9.35209e-06 -8.16097e-27)
(8.11939e-06 9.48276e-06 -1.2806e-27)
(7.98089e-06 9.56141e-06 -9.97002e-28)
(7.84319e-06 9.58825e-06 4.54954e-27)
(7.70565e-06 9.56398e-06 6.65941e-27)
(7.5674e-06 9.48972e-06 -7.70222e-27)
(7.42731e-06 9.367e-06 -4.39621e-27)
(7.28403e-06 9.19771e-06 2.63697e-27)
(7.13599e-06 8.98407e-06 -4.25059e-28)
(6.98152e-06 8.72853e-06 -2.47083e-27)
(6.81886e-06 8.43374e-06 -3.44651e-28)
(6.64628e-06 8.1025e-06 4.23377e-28)
(6.46214e-06 7.73777e-06 3.55391e-27)
(6.26495e-06 7.34267e-06 -1.43614e-27)
(6.05344e-06 6.92046e-06 -1.53581e-27)
(5.82658e-06 6.47466e-06 5.02834e-27)
(5.58361e-06 6.00905e-06 -5.20058e-27)
(5.32401e-06 5.5277e-06 5.16989e-27)
(5.04751e-06 5.03505e-06 4.12249e-27)
(4.75401e-06 4.53593e-06 4.42986e-27)
(4.44355e-06 4.03562e-06 -1.9252e-27)
(1.4353e-05 -2.15339e-05 4.03786e-26)
(1.33024e-05 -2.15494e-05 -1.102e-26)
(1.61609e-05 -2.12413e-05 1.60809e-27)
(1.53925e-05 -2.15161e-05 3.79696e-26)
(2.49769e-06 3.32709e-06 -6.11753e-27)
(2.79108e-06 3.84522e-06 8.90604e-27)
(3.08999e-06 4.36543e-06 4.77468e-27)
(3.39319e-06 4.88212e-06 8.05594e-27)
(3.69962e-06 5.38985e-06 -9.8982e-27)
(4.00844e-06 5.88337e-06 -7.69835e-27)
(4.31908e-06 6.35755e-06 3.81887e-27)
(4.63123e-06 6.80749e-06 -2.31374e-27)
(4.94482e-06 7.22846e-06 -4.34419e-27)
(5.26002e-06 7.61608e-06 -5.9214e-28)
(5.57713e-06 7.96625e-06 5.63727e-27)
(5.89655e-06 8.27535e-06 1.51388e-27)
(6.21869e-06 8.5402e-06 1.01543e-27)
(6.54392e-06 8.75816e-06 -2.5557e-27)
(6.87242e-06 8.92718e-06 -2.99053e-28)
(7.20423e-06 9.04571e-06 2.30989e-27)
(7.53915e-06 9.11279e-06 -1.11482e-27)
(7.87674e-06 9.12791e-06 -8.43373e-28)
(8.21635e-06 9.09102e-06 6.2278e-27)
(8.55716e-06 9.00243e-06 -9.10991e-27)
(8.89817e-06 8.86277e-06 -6.85334e-27)
(9.23833e-06 8.67292e-06 3.6817e-27)
(9.57653e-06 8.43397e-06 -4.96238e-28)
(9.91168e-06 8.14716e-06 -3.28731e-28)
(1.02427e-05 7.81386e-06 6.09814e-27)
(1.05687e-05 7.43555e-06 1.00481e-26)
(1.08887e-05 7.01375e-06 -5.46203e-27)
(1.12019e-05 6.55006e-06 -1.49622e-26)
(1.15078e-05 6.04607e-06 1.33182e-27)
(1.18058e-05 5.50341e-06 3.7594e-27)
(1.20953e-05 4.92372e-06 -2.22715e-27)
(1.23761e-05 4.30861e-06 2.83673e-27)
(1.26478e-05 3.65968e-06 -6.21168e-28)
(1.29102e-05 2.97852e-06 5.31851e-28)
(1.31631e-05 2.26669e-06 -3.01279e-27)
(1.34063e-05 1.52573e-06 3.83161e-27)
(1.36398e-05 7.57137e-07 4.69163e-27)
(1.38635e-05 -3.75977e-08 -2.49399e-27)
(1.40773e-05 -8.57014e-07 -3.88563e-27)
(1.42812e-05 -1.69968e-06 8.49733e-28)
(1.44752e-05 -2.56417e-06 1.17195e-27)
(1.46592e-05 -3.4491e-06 -1.4906e-27)
(1.48334e-05 -4.35311e-06 -1.41738e-27)
(1.49977e-05 -5.27485e-06 1.83664e-27)
(1.51523e-05 -6.21302e-06 1.9148e-27)
(1.52972e-05 -7.16637e-06 1.94959e-27)
(1.54327e-05 -8.13366e-06 -1.24862e-27)
(1.55588e-05 -9.11375e-06 -8.6671e-27)
(1.56758e-05 -1.01055e-05 -3.38059e-27)
(1.57839e-05 -1.1108e-05 -3.84413e-28)
(1.58833e-05 -1.21201e-05 3.30561e-27)
(1.59744e-05 -1.31411e-05 -8.87166e-27)
(1.60574e-05 -1.417e-05 -1.05554e-26)
(1.61325e-05 -1.52061e-05 -4.95978e-27)
(1.62e-05 -1.62484e-05 9.378e-27)
(1.62599e-05 -1.72959e-05 1.60054e-26)
(1.63125e-05 -1.83472e-05 -7.99354e-27)
(1.63576e-05 -1.94001e-05 -2.19777e-27)
(1.63952e-05 -2.04512e-05 1.87442e-26)
(1.98597e-07 -9.37393e-08 -7.5302e-26)
(1.91643e-07 -1.26236e-07 -9.09096e-27)
(1.81817e-07 -1.82258e-07 3.90075e-26)
(1.82284e-07 -2.1959e-07 -1.86741e-27)
(1.95104e-07 -2.39066e-07 1.63896e-26)
(2.19158e-07 -2.42738e-07 3.13514e-27)
(2.52839e-07 -2.31537e-07 -2.80734e-26)
(2.95185e-07 -2.05961e-07 4.91633e-29)
(3.45628e-07 -1.65869e-07 7.95173e-28)
(4.04003e-07 -1.10668e-07 9.79375e-27)
(4.70428e-07 -3.93278e-08 2.81883e-27)
(5.45272e-07 4.95573e-08 -1.21098e-26)
(6.29115e-07 1.57735e-07 3.23676e-27)
(7.2274e-07 2.87251e-07 1.70109e-26)
(8.27118e-07 4.40407e-07 -8.40615e-28)
(9.43397e-07 6.19704e-07 -2.45171e-27)
(1.07289e-06 8.27785e-07 3.1314e-28)
(1.21705e-06 1.06736e-06 -1.19688e-27)
(1.37746e-06 1.34111e-06 1.04898e-26)
(1.55578e-06 1.65161e-06 6.39019e-27)
(1.75375e-06 2.0012e-06 -2.0282e-26)
(1.97307e-06 2.39179e-06 -4.9756e-27)
(2.68587e-07 1.57019e-07 -5.2938e-26)
(3.82387e-06 3.12448e-06 4.30681e-27)
(3.53481e-06 2.74112e-06 -8.19225e-27)
(3.25538e-06 2.3967e-06 3.32386e-27)
(2.98628e-06 2.08984e-06 1.68287e-26)
(2.72796e-06 1.81867e-06 -2.72873e-27)
(2.48073e-06 1.58099e-06 -4.2559e-28)
(2.24477e-06 1.37438e-06 -6.77787e-27)
(2.02019e-06 1.19629e-06 -3.02756e-28)
(1.80705e-06 1.0441e-06 1.21876e-26)
(1.60541e-06 9.15169e-07 -1.12308e-26)
(1.4153e-06 8.06859e-07 -1.34863e-26)
(1.23681e-06 7.16512e-07 2.32521e-26)
(1.0701e-06 6.4145e-07 -3.71046e-27)
(9.15464e-07 5.78923e-07 -8.28009e-27)
(7.73414e-07 5.2606e-07 8.77309e-27)
(6.44806e-07 4.79727e-07 -3.62367e-26)
(5.31092e-07 4.36468e-07 1.88113e-26)
(4.34385e-07 3.92103e-07 7.27446e-26)
(3.58031e-07 3.42023e-07 -2.32459e-26)
(3.05163e-07 2.79746e-07 -1.96922e-27)
(2.76715e-07 2.00757e-07 1.91611e-26)
(2.22035e-06 2.83328e-06 4.15426e-27)
(4.12732e-06 3.55583e-06 -1.52301e-26)
(1.24986e-05 -2.12934e-05 -2.49037e-26)
(1.22021e-05 -2.0498e-05 -2.3655e-26)
(1.21579e-05 -1.94326e-05 1.417e-26)
(1.21121e-05 -1.83661e-05 1.59009e-26)
(1.20653e-05 -1.73007e-05 -1.09321e-26)
(1.20168e-05 -1.62381e-05 -5.11683e-27)
(1.1966e-05 -1.51796e-05 -5.67769e-29)
(1.19122e-05 -1.41264e-05 -1.35011e-27)
(1.18549e-05 -1.30796e-05 8.22496e-27)
(1.17938e-05 -1.20401e-05 3.69341e-29)
(1.17285e-05 -1.1009e-05 4.75067e-29)
(1.1659e-05 -9.98713e-06 -6.12709e-27)
(1.1585e-05 -8.9756e-06 -4.05822e-27)
(1.15066e-05 -7.97552e-06 6.3315e-28)
(1.14238e-05 -6.98805e-06 -3.6966e-27)
(1.13364e-05 -6.01443e-06 -3.44833e-27)
(1.12447e-05 -5.05592e-06 -2.51608e-27)
(1.11486e-05 -4.11385e-06 2.56226e-27)
(1.10481e-05 -3.18957e-06 1.22716e-27)
(1.09434e-05 -2.2845e-06 -3.4849e-28)
(1.08346e-05 -1.40004e-06 1.65137e-27)
(1.07216e-05 -5.37653e-07 -1.56868e-28)
(1.06047e-05 3.01176e-07 2.40251e-28)
(1.0484e-05 1.11493e-06 5.0483e-28)
(1.03597e-05 1.90206e-06 3.39385e-27)
(1.02319e-05 2.66097e-06 2.94027e-27)
(1.01009e-05 3.39004e-06 2.33871e-27)
(9.96699e-06 4.08757e-06 -6.77295e-27)
(9.83038e-06 4.75186e-06 -2.49071e-27)
(9.69143e-06 5.38113e-06 8.42192e-27)
(9.55048e-06 5.97357e-06 2.46716e-27)
(9.40792e-06 6.52734e-06 -4.17128e-27)
(9.26416e-06 7.04058e-06 1.16846e-27)
(9.11963e-06 7.51143e-06 2.51141e-27)
(8.97477e-06 7.93807e-06 -7.44918e-27)
(8.83e-06 8.31874e-06 -1.53468e-27)
(8.68573e-06 8.65183e-06 1.59247e-27)
(8.54231e-06 8.93585e-06 2.94058e-27)
(8.40002e-06 9.16959e-06 -2.65556e-27)
(8.25904e-06 9.35209e-06 -8.16097e-27)
(8.11939e-06 9.48276e-06 -1.2806e-27)
(7.98089e-06 9.56141e-06 -9.97002e-28)
(7.84319e-06 9.58825e-06 4.54954e-27)
(7.70565e-06 9.56398e-06 6.65941e-27)
(7.5674e-06 9.48972e-06 -7.70222e-27)
(7.42731e-06 9.367e-06 -4.39621e-27)
(7.28403e-06 9.19771e-06 2.63697e-27)
(7.13599e-06 8.98407e-06 -4.25059e-28)
(6.98152e-06 8.72853e-06 -2.47083e-27)
(6.81886e-06 8.43374e-06 -3.44651e-28)
(6.64628e-06 8.1025e-06 4.23377e-28)
(6.46214e-06 7.73777e-06 3.55391e-27)
(6.26495e-06 7.34267e-06 -1.43614e-27)
(6.05344e-06 6.92046e-06 -1.53581e-27)
(5.82658e-06 6.47466e-06 5.02834e-27)
(5.58361e-06 6.00905e-06 -5.20058e-27)
(5.32401e-06 5.5277e-06 5.16989e-27)
(5.04751e-06 5.03505e-06 4.12249e-27)
(4.75401e-06 4.53593e-06 4.42986e-27)
(4.44355e-06 4.03562e-06 -1.9252e-27)
(1.4353e-05 -2.15339e-05 4.03786e-26)
(1.33024e-05 -2.15494e-05 -1.102e-26)
(1.61609e-05 -2.12413e-05 1.60809e-27)
(1.53925e-05 -2.15161e-05 3.79696e-26)
(2.49769e-06 3.32709e-06 -6.11753e-27)
(2.79108e-06 3.84522e-06 8.90604e-27)
(3.08999e-06 4.36543e-06 4.77468e-27)
(3.39319e-06 4.88212e-06 8.05594e-27)
(3.69962e-06 5.38985e-06 -9.8982e-27)
(4.00844e-06 5.88337e-06 -7.69835e-27)
(4.31908e-06 6.35755e-06 3.81887e-27)
(4.63123e-06 6.80749e-06 -2.31374e-27)
(4.94482e-06 7.22846e-06 -4.34419e-27)
(5.26002e-06 7.61608e-06 -5.9214e-28)
(5.57713e-06 7.96625e-06 5.63727e-27)
(5.89655e-06 8.27535e-06 1.51388e-27)
(6.21869e-06 8.5402e-06 1.01543e-27)
(6.54392e-06 8.75816e-06 -2.5557e-27)
(6.87242e-06 8.92718e-06 -2.99053e-28)
(7.20423e-06 9.04571e-06 2.30989e-27)
(7.53915e-06 9.11279e-06 -1.11482e-27)
(7.87674e-06 9.12791e-06 -8.43373e-28)
(8.21635e-06 9.09102e-06 6.2278e-27)
(8.55716e-06 9.00243e-06 -9.10991e-27)
(8.89817e-06 8.86277e-06 -6.85334e-27)
(9.23833e-06 8.67292e-06 3.6817e-27)
(9.57653e-06 8.43397e-06 -4.96238e-28)
(9.91168e-06 8.14716e-06 -3.28731e-28)
(1.02427e-05 7.81386e-06 6.09814e-27)
(1.05687e-05 7.43555e-06 1.00481e-26)
(1.08887e-05 7.01375e-06 -5.46203e-27)
(1.12019e-05 6.55006e-06 -1.49622e-26)
(1.15078e-05 6.04607e-06 1.33182e-27)
(1.18058e-05 5.50341e-06 3.7594e-27)
(1.20953e-05 4.92372e-06 -2.22715e-27)
(1.23761e-05 4.30861e-06 2.83673e-27)
(1.26478e-05 3.65968e-06 -6.21168e-28)
(1.29102e-05 2.97852e-06 5.31851e-28)
(1.31631e-05 2.26669e-06 -3.01279e-27)
(1.34063e-05 1.52573e-06 3.83161e-27)
(1.36398e-05 7.57137e-07 4.69163e-27)
(1.38635e-05 -3.75977e-08 -2.49399e-27)
(1.40773e-05 -8.57014e-07 -3.88563e-27)
(1.42812e-05 -1.69968e-06 8.49733e-28)
(1.44752e-05 -2.56417e-06 1.17195e-27)
(1.46592e-05 -3.4491e-06 -1.4906e-27)
(1.48334e-05 -4.35311e-06 -1.41738e-27)
(1.49977e-05 -5.27485e-06 1.83664e-27)
(1.51523e-05 -6.21302e-06 1.9148e-27)
(1.52972e-05 -7.16637e-06 1.94959e-27)
(1.54327e-05 -8.13366e-06 -1.24862e-27)
(1.55588e-05 -9.11375e-06 -8.6671e-27)
(1.56758e-05 -1.01055e-05 -3.38059e-27)
(1.57839e-05 -1.1108e-05 -3.84413e-28)
(1.58833e-05 -1.21201e-05 3.30561e-27)
(1.59744e-05 -1.31411e-05 -8.87166e-27)
(1.60574e-05 -1.417e-05 -1.05554e-26)
(1.61325e-05 -1.52061e-05 -4.95978e-27)
(1.62e-05 -1.62484e-05 9.378e-27)
(1.62599e-05 -1.72959e-05 1.60054e-26)
(1.63125e-05 -1.83472e-05 -7.99354e-27)
(1.63576e-05 -1.94001e-05 -2.19777e-27)
(1.63952e-05 -2.04512e-05 1.87442e-26)
(1.98597e-07 -9.37393e-08 -7.5302e-26)
(1.91643e-07 -1.26236e-07 -9.09096e-27)
(1.81817e-07 -1.82258e-07 3.90075e-26)
(1.82284e-07 -2.1959e-07 -1.86741e-27)
(1.95104e-07 -2.39066e-07 1.63896e-26)
(2.19158e-07 -2.42738e-07 3.13514e-27)
(2.52839e-07 -2.31537e-07 -2.80734e-26)
(2.95185e-07 -2.05961e-07 4.91633e-29)
(3.45628e-07 -1.65869e-07 7.95173e-28)
(4.04003e-07 -1.10668e-07 9.79375e-27)
(4.70428e-07 -3.93278e-08 2.81883e-27)
(5.45272e-07 4.95573e-08 -1.21098e-26)
(6.29115e-07 1.57735e-07 3.23676e-27)
(7.2274e-07 2.87251e-07 1.70109e-26)
(8.27118e-07 4.40407e-07 -8.40615e-28)
(9.43397e-07 6.19704e-07 -2.45171e-27)
(1.07289e-06 8.27785e-07 3.1314e-28)
(1.21705e-06 1.06736e-06 -1.19688e-27)
(1.37746e-06 1.34111e-06 1.04898e-26)
(1.55578e-06 1.65161e-06 6.39019e-27)
(1.75375e-06 2.0012e-06 -2.0282e-26)
(1.97307e-06 2.39179e-06 -4.9756e-27)
(2.68587e-07 1.57019e-07 -5.2938e-26)
(3.82387e-06 3.12448e-06 4.30681e-27)
(3.53481e-06 2.74112e-06 -8.19225e-27)
(3.25538e-06 2.3967e-06 3.32386e-27)
(2.98628e-06 2.08984e-06 1.68287e-26)
(2.72796e-06 1.81867e-06 -2.72873e-27)
(2.48073e-06 1.58099e-06 -4.2559e-28)
(2.24477e-06 1.37438e-06 -6.77787e-27)
(2.02019e-06 1.19629e-06 -3.02756e-28)
(1.80705e-06 1.0441e-06 1.21876e-26)
(1.60541e-06 9.15169e-07 -1.12308e-26)
(1.4153e-06 8.06859e-07 -1.34863e-26)
(1.23681e-06 7.16512e-07 2.32521e-26)
(1.0701e-06 6.4145e-07 -3.71046e-27)
(9.15464e-07 5.78923e-07 -8.28009e-27)
(7.73414e-07 5.2606e-07 8.77309e-27)
(6.44806e-07 4.79727e-07 -3.62367e-26)
(5.31092e-07 4.36468e-07 1.88113e-26)
(4.34385e-07 3.92103e-07 7.27446e-26)
(3.58031e-07 3.42023e-07 -2.32459e-26)
(3.05163e-07 2.79746e-07 -1.96922e-27)
(2.76715e-07 2.00757e-07 1.91611e-26)
)


// ************************************************************************* //
