/*--------------------------------*- C++ -*----------------------------------*\
| =========                 |                                                 |
| \\      /  F ield         | OpenFOAM Extend Project: Open source CFD        |
|  \\    /   O peration     | Version:  1.6-ext                               |
|   \\  /    A nd           | Web:      www.extend-project.de                 |
|    \\/     M anipulation  |                                                 |
\*---------------------------------------------------------------------------*/
FoamFile
{
    version     2.0;
    format      ascii;
    class       tetPointVectorField;
    location    "0.35";
    object      motionU;
}
// * * * * * * * * * * * * * * * * * * * * * * * * * * * * * * * * * * * * * //

dimensions      [0 1 -1 0 0 0 0];

internalField   nonuniform List<vector> 
147960
(
(0 0 0)
(-3.164e-05 1.84595e-05 0)
(-0.0043112 0.00272881 -1.76499e-24)
(-0.00307138 0.00193606 -9.4794e-25)
(-0.0192828 -0.0209275 8.69313e-24)
(-0.0194457 -0.0202544 -3.16175e-24)
(-0.0193691 -0.0193673 9.4371e-24)
(-0.0192914 -0.0184784 3.65622e-24)
(-0.0192119 -0.0175896 6.57195e-24)
(-0.0191297 -0.0167019 1.83195e-24)
(-0.019044 -0.015816 -3.6995e-24)
(-0.018954 -0.0149324 -2.37083e-24)
(-0.0188588 -0.0140517 -9.28488e-24)
(-0.0187579 -0.0131742 -3.12196e-24)
(-0.0186507 -0.0123006 2.76929e-25)
(-0.0185364 -0.0114314 1.40477e-24)
(-0.0184147 -0.0105675 6.37409e-24)
(-0.0182852 -0.0097096 -2.09182e-24)
(-0.0181473 -0.00885872 -1.40286e-25)
(-0.0180009 -0.00801589 7.02546e-25)
(-0.0178455 -0.00718229 -7.16834e-24)
(-0.017681 -0.00635917 -3.56295e-24)
(-0.0175071 -0.00554789 3.41979e-25)
(-0.0173237 -0.0047499 5.95629e-25)
(-0.0171307 -0.00396674 -1.78741e-24)
(-0.0169278 -0.00320001 2.87089e-24)
(-0.0167151 -0.00245138 2.96963e-24)
(-0.0164925 -0.00172256 -1.22303e-24)
(-0.01626 -0.00101534 -1.78251e-24)
(-0.0160177 -0.000331498 -2.27615e-24)
(-0.0157654 0.000327133 -5.43638e-24)
(-0.0155033 0.000958725 3.88311e-24)
(-0.0152314 0.00156145 6.30294e-24)
(-0.0149498 0.00213348 -1.28191e-24)
(-0.0146586 0.00267303 1.35648e-24)
(-0.0143578 0.00317836 7.36493e-25)
(-0.0140476 0.00364776 1.5066e-24)
(-0.013728 0.00407961 -3.43978e-24)
(-0.0133991 0.00447238 -7.81726e-25)
(-0.0130609 0.00482466 1.39489e-24)
(-0.0127136 0.00513516 -1.42844e-24)
(-0.0123571 0.0054028 1.13966e-24)
(-0.0119916 0.00562667 -2.5108e-24)
(-0.0116172 0.00580616 3.57561e-24)
(-0.011234 0.00594092 6.81384e-24)
(-0.0108423 0.00603099 -1.50765e-24)
(-0.0104424 0.00607678 -1.14673e-24)
(-0.0100347 0.00607915 -2.58682e-24)
(-0.00961996 0.00603943 -4.81808e-24)
(-0.00919889 0.0059594 2.37483e-24)
(-0.00877256 0.0058413 4.56809e-24)
(-0.00834222 0.00568778 -3.47733e-25)
(-0.00790932 0.0055018 5.8163e-25)
(-0.00747545 0.00528657 2.54487e-24)
(-0.00704233 0.00504543 2.21928e-24)
(-0.00661169 0.00478177 -1.82872e-24)
(-0.00618523 0.00449895 -1.29255e-24)
(-0.00576453 0.00420026 6.01933e-24)
(-0.00535095 0.00388888 2.39504e-24)
(-0.0049456 0.00356792 -7.33776e-24)
(-0.00454929 0.00324041 -5.28089e-24)
(-0.00416251 0.00290937 -1.59329e-24)
(-0.00378546 0.00257784 -2.25291e-24)
(-0.00341804 0.00224889 1.14065e-23)
(-0.0177689 -0.0212085 -2.55313e-23)
(-0.0186461 -0.0211746 7.45797e-24)
(-0.0161898 -0.021042 -3.52482e-23)
(-0.01688 -0.0212412 -5.04208e-23)
(-0.00468961 0.0030516 2.23953e-24)
(-0.00507661 0.00339304 -7.40274e-24)
(-0.00545944 0.00373868 6.3675e-24)
(-0.00583797 0.00408462 5.54632e-24)
(-0.00621188 0.00442675 1.27945e-24)
(-0.00658055 0.0047608 4.86254e-24)
(-0.00694319 0.00508246 6.63385e-25)
(-0.00729878 0.00538741 -6.73655e-24)
(-0.00764621 0.00567146 -4.63704e-24)
(-0.00798432 0.00593065 -2.81145e-24)
(-0.00831201 0.00616131 4.42076e-25)
(-0.00862831 0.00636016 3.12398e-24)
(-0.00893249 0.00652436 2.13363e-24)
(-0.00922405 0.00665152 -4.33495e-25)
(-0.00950283 0.00673968 -1.96612e-24)
(-0.00976891 0.00678732 7.64359e-25)
(-0.0100227 0.00679327 8.84052e-25)
(-0.0102647 0.00675672 -1.10881e-23)
(-0.0104957 0.00667715 6.78351e-25)
(-0.0107167 0.00655431 6.51026e-24)
(-0.0109284 0.00638818 -1.46818e-24)
(-0.0111319 0.00617896 7.47012e-24)
(-0.011328 0.00592707 -1.082e-23)
(-0.0115176 0.00563308 -1.02362e-23)
(-0.0117014 0.00529777 5.21331e-24)
(-0.01188 0.00492205 2.57284e-24)
(-0.0120541 0.00450702 -4.16175e-24)
(-0.0122242 0.00405387 -3.18553e-24)
(-0.0123905 0.00356394 2.42022e-24)
(-0.0125534 0.00303868 -1.06985e-24)
(-0.0127132 0.00247963 -1.75814e-24)
(-0.01287 0.00188838 -1.29571e-24)
(-0.013024 0.00126663 -4.88035e-24)
(-0.0131751 0.00061609 -3.61949e-24)
(-0.0133234 -6.14802e-05 5.01682e-25)
(-0.0134689 -0.000764303 -2.36397e-24)
(-0.0136115 -0.0014906 2.039e-25)
(-0.0137512 -0.00223858 3.17647e-24)
(-0.0138879 -0.00300651 -7.92882e-26)
(-0.0140213 -0.00379265 -2.6669e-24)
(-0.0141515 -0.00459533 2.97152e-24)
(-0.0142782 -0.00541291 5.07269e-24)
(-0.0144013 -0.00624383 -1.63803e-24)
(-0.0145208 -0.00708659 2.25088e-24)
(-0.0146364 -0.00793978 2.98667e-24)
(-0.014748 -0.00880206 -5.6802e-25)
(-0.0148557 -0.00967218 2.3831e-24)
(-0.0149594 -0.010549 -2.55559e-24)
(-0.0150591 -0.0114314 -9.69792e-24)
(-0.0151549 -0.0123185 -8.08794e-24)
(-0.015247 -0.0132093 2.73608e-24)
(-0.0153356 -0.014103 8.5675e-25)
(-0.0154212 -0.0149989 2.07975e-24)
(-0.0155042 -0.0158962 -1.13425e-23)
(-0.0155854 -0.0167942 -3.41947e-24)
(-0.0156655 -0.0176922 1.15485e-23)
(-0.0157453 -0.0185895 -1.94842e-23)
(-0.0158257 -0.0194857 -1.77065e-23)
(-0.0159068 -0.0203803 -1.9533e-24)
(-0.00754137 -0.0158277 0)
(-0.0160791 -0.0205901 0)
(-0.0160254 -0.0202895 0)
(-0.0158859 -0.0199801 0)
(-0.0156689 -0.0196568 0)
(-0.0153578 -0.0193242 0)
(-0.0149864 -0.0189854 0)
(-0.0144843 -0.0186417 0)
(-0.0139339 -0.0182949 0)
(-0.0132844 -0.0179456 0)
(-0.0124896 -0.0175938 0)
(-0.0117222 -0.0172423 0)
(-0.0107961 -0.0168891 0)
(-0.00971214 -0.0165348 0)
(-0.00872732 -0.0161828 0)
(-0.0014851 0.00154863 0)
(-0.00174777 0.00174397 0)
(-0.0020218 0.00194406 0)
(-0.00230109 0.00214724 0)
(-0.00258385 0.00235343 0)
(-0.00286655 0.00256126 0)
(-0.00314468 0.00276739 0)
(-0.00341812 0.00296961 0)
(-0.00368633 0.00316567 0)
(-0.00394825 0.00335332 0)
(-0.00420292 0.00353016 0)
(-0.00445047 0.00369349 0)
(-0.00469213 0.00384035 0)
(-0.00492872 0.00396787 0)
(-0.0051591 0.00407358 0)
(-0.00538063 0.00415547 0)
(-0.00559082 0.00421179 0)
(-0.00578876 0.00424087 0)
(-0.00597545 0.00424062 0)
(-0.00615406 0.00420933 0)
(-0.00632435 0.0041452 0)
(-0.00648582 0.00404729 0)
(-0.00664162 0.00391628 0)
(-0.00679162 0.00375128 0)
(-0.00693664 0.0035519 0)
(-0.0070774 0.00331801 0)
(-0.00721417 0.00304963 0)
(-0.00734712 0.00274688 0)
(-0.00747652 0.00240997 0)
(-0.00760253 0.00203935 0)
(-0.00772468 0.00163574 0)
(-0.00784181 0.00120024 0)
(-0.00795313 0.000734494 0)
(-0.00805999 0.000240114 0)
(-0.00816494 -0.000281939 0)
(-0.00827055 -0.000829817 0)
(-0.00837339 -0.00140415 0)
(-0.00847328 -0.00200368 0)
(-0.00857535 -0.00262303 0)
(-0.00867843 -0.00326058 0)
(-0.00878226 -0.0039145 0)
(-0.00888783 -0.00458288 0)
(-0.00899645 -0.00526367 0)
(-0.00910744 -0.00595447 0)
(-0.0092168 -0.00665269 0)
(-0.0093168 -0.0073557 0)
(-0.00939637 -0.00806056 0)
(-0.00944375 -0.00876394 0)
(-0.00945319 -0.00946227 0)
(-0.00943143 -0.0101515 0)
(-0.00939514 -0.0108279 0)
(-0.00935863 -0.0114874 0)
(-0.00932025 -0.0121249 0)
(-0.00926335 -0.0127357 0)
(-0.00916954 -0.0133138 0)
(-0.00902648 -0.0138543 0)
(-0.00883084 -0.0143517 0)
(-0.00858473 -0.0148015 0)
(-0.00829143 -0.0151996 0)
(-0.00795357 -0.0155425 0)
(-0.0097395 -0.0156865 0)
(-0.0110281 -0.0160557 0)
(-0.0120899 -0.0164184 0)
(-0.013224 -0.0167812 0)
(-0.0142864 -0.0171428 0)
(-0.0151274 -0.017499 0)
(-0.015948 -0.0178535 0)
(-0.0167147 -0.0182055 0)
(-0.0173135 -0.0185518 0)
(-0.0178533 -0.0188941 0)
(-0.0183129 -0.0192309 0)
(-0.0186537 -0.0195596 0)
(-0.0189335 -0.0198787 0)
(-0.0191323 -0.0201829 0)
(-0.0192724 -0.0204771 0)
(-0.00101703 0.00114623 0)
(-0.00303625 0.00190604 0)
(-0.00299845 0.00187526 0)
(-0.00294798 0.00184065 0)
(-0.00288421 0.00180145 0)
(-0.00280774 0.00175829 0)
(-0.00271122 0.00171115 0)
(-0.00259933 0.00165951 0)
(-0.00247048 0.00160298 0)
(-0.00231419 0.00154296 0)
(-0.0021527 0.00148022 0)
(-0.00196862 0.00141474 0)
(-0.00176212 0.00134727 0)
(-0.00155013 0.00127975 0)
(-0.00129518 0.00121281 0)
(-0.0102218 -0.0154056 0)
(-0.010643 -0.015068 0)
(-0.0110059 -0.0146761 0)
(-0.0113118 -0.0142334 0)
(-0.0115611 -0.0137439 0)
(-0.0117515 -0.0132124 0)
(-0.0118838 -0.012644 0)
(-0.0119685 -0.012044 0)
(-0.0120238 -0.0114181 0)
(-0.0120677 -0.0107712 0)
(-0.0121037 -0.0101082 0)
(-0.0121192 -0.00943302 0)
(-0.0120979 -0.00874929 0)
(-0.0120327 -0.00806103 0)
(-0.0119288 -0.00737178 0)
(-0.0117973 -0.0066849 0)
(-0.0116493 -0.00600326 0)
(-0.0114929 -0.00532939 0)
(-0.0113324 -0.00466577 0)
(-0.011169 -0.00401473 0)
(-0.0110015 -0.00337834 0)
(-0.010829 -0.00275849 0)
(-0.0106517 -0.00215705 0)
(-0.0104711 -0.0015757 0)
(-0.0102823 -0.00101965 0)
(-0.0100854 -0.000490105 0)
(-0.009884 1.34355e-05 0)
(-0.00967609 0.000489045 0)
(-0.00945937 0.000935709 0)
(-0.00923276 0.0013519 0)
(-0.00899753 0.00173605 0)
(-0.00875545 0.00208711 0)
(-0.00850763 0.00240436 0)
(-0.00825457 0.00268738 0)
(-0.00799663 0.00293593 0)
(-0.00773435 0.00314996 0)
(-0.00746817 0.00332952 0)
(-0.00719818 0.0034749 0)
(-0.0069243 0.00358665 0)
(-0.00664746 0.0036659 0)
(-0.00636591 0.00371255 0)
(-0.00608092 0.00372803 0)
(-0.00579318 0.00371434 0)
(-0.00550044 0.00367321 0)
(-0.00520229 0.00360673 0)
(-0.00490019 0.00351673 0)
(-0.00459718 0.00340528 0)
(-0.0042964 0.00327471 0)
(-0.00399937 0.00312757 0)
(-0.00370562 0.0029665 0)
(-0.0034141 0.00279415 0)
(-0.00312471 0.00261306 0)
(-0.00283841 0.00242574 0)
(-0.00255631 0.00223467 0)
(-0.00227891 0.00204226 0)
(-0.00200601 0.00185077 0)
(-0.00174095 0.00166343 0)
(-0.00148636 0.00148246 0)
(-0.00124256 0.0013092 0)
(-0.00154995 0.00138932 0)
(-0.00180966 0.00147027 0)
(-0.0020298 0.00155164 0)
(-0.00225939 0.00163178 0)
(-0.00245722 0.00170983 0)
(-0.00262471 0.00178559 0)
(-0.00279713 0.0018583 0)
(-0.00293373 0.00192682 0)
(-0.00305036 0.00199071 0)
(-0.00315839 0.0020494 0)
(-0.00323643 0.00210309 0)
(-0.00330517 0.00215074 0)
(-0.00335562 0.00219172 0)
(-0.00339302 0.00222545 0)
(-0.00181185 0.00157664 0)
(-0.00207402 0.00167163 0)
(-0.00231496 0.00176636 0)
(-0.00256528 0.00185931 0)
(-0.00276792 0.00195017 0)
(-0.00295076 0.00203861 0)
(-0.00313505 0.00212356 0)
(-0.0032755 0.00220424 0)
(-0.00340374 0.00227967 0)
(-0.00351674 0.0023492 0)
(-0.00359894 0.00241228 0)
(-0.00367082 0.00246749 0)
(-0.003722 0.00251401 0)
(-0.0037585 0.00255088 0)
(-0.00208121 0.00177169 0)
(-0.00234867 0.00188078 0)
(-0.00261315 0.00198878 0)
(-0.00288049 0.00209439 0)
(-0.00308855 0.00219776 0)
(-0.00328771 0.00229869 0)
(-0.00348264 0.00239568 0)
(-0.00362769 0.00248803 0)
(-0.00376634 0.00257424 0)
(-0.00388432 0.00265359 0)
(-0.00396973 0.00272544 0)
(-0.00404536 0.00278775 0)
(-0.00409754 0.00283969 0)
(-0.00413483 0.00288028 0)
(-0.00235869 0.00197304 0)
(-0.0026328 0.00209559 0)
(-0.00292133 0.0022165 0)
(-0.00320536 0.00233449 0)
(-0.00341983 0.00245071 0)
(-0.00363429 0.00256359 0)
(-0.00384058 0.00267149 0)
(-0.00398941 0.00277485 0)
(-0.00413666 0.00287105 0)
(-0.0042614 0.00295962 0)
(-0.00434944 0.00303961 0)
(-0.00442852 0.00310862 0)
(-0.00448273 0.00316576 0)
(-0.00452112 0.00320972 0)
(-0.00264264 0.00217753 0)
(-0.00292474 0.00231349 0)
(-0.00323775 0.00244676 0)
(-0.00353964 0.00257668 0)
(-0.00376007 0.00270514 0)
(-0.00398787 0.00282923 0)
(-0.00420683 0.00294769 0)
(-0.00436044 0.00306151 0)
(-0.00451473 0.003167 0)
(-0.00464635 0.00326411 0)
(-0.00473827 0.00335181 0)
(-0.00482058 0.00342706 0)
(-0.00487697 0.003489 0)
(-0.00491676 0.00353595 0)
(-0.00293341 0.00238272 0)
(-0.00322378 0.00253175 0)
(-0.00356092 0.00267678 0)
(-0.00388251 0.00281795 0)
(-0.00410877 0.00295807 0)
(-0.00434778 0.00309279 0)
(-0.00458031 0.00322119 0)
(-0.00473972 0.00334485 0)
(-0.00490055 0.00345896 0)
(-0.00503883 0.00356395 0)
(-0.0051352 0.00365883 0)
(-0.00522146 0.00373993 0)
(-0.00528005 0.00380628 0)
(-0.00532132 0.00385587 0)
(-0.00323159 0.00258606 0)
(-0.00352991 0.00274772 0)
(-0.00388947 0.00290371 0)
(-0.00423232 0.00305536 0)
(-0.00446588 0.00320658 0)
(-0.00471407 0.00335128 0)
(-0.00495954 0.00348892 0)
(-0.00512677 0.00362177 0)
(-0.00529424 0.00374378 0)
(-0.00543816 0.00385571 0)
(-0.00553933 0.00395752 0)
(-0.00563021 0.00404411 0)
(-0.00569135 0.00411446 0)
(-0.00573408 0.0041664 0)
(-0.00353704 0.00278494 0)
(-0.00384332 0.00295864 0)
(-0.00422253 0.00312477 0)
(-0.00458643 0.00328575 0)
(-0.00483031 0.00344781 0)
(-0.00508772 0.00360178 0)
(-0.00534435 0.00374782 0)
(-0.00551984 0.00388916 0)
(-0.00569559 0.00401854 0)
(-0.00584612 0.0041376 0)
(-0.00595116 0.00424548 0)
(-0.00604568 0.00433646 0)
(-0.00610951 0.0044104 0)
(-0.00615392 0.00446441 0)
(-0.00384842 0.00297677 0)
(-0.00416388 0.00316183 0)
(-0.00456027 0.00333736 0)
(-0.00494488 0.00350738 0)
(-0.00520109 0.00367938 0)
(-0.00546836 0.00384129 0)
(-0.00573525 0.00399484 0)
(-0.00591792 0.0041439 0)
(-0.00610231 0.00427995 0)
(-0.00625967 0.00440518 0)
(-0.00636852 0.00451851 0)
(-0.00646682 0.00461371 0)
(-0.00653333 0.00469087 0)
(-0.0065795 0.00474671 0)
(-0.00416363 0.00315896 0)
(-0.00449067 0.00335464 0)
(-0.00490323 0.00353875 0)
(-0.00530626 0.00371673 0)
(-0.00557466 0.00389745 0)
(-0.00585389 0.00406668 0)
(-0.00613156 0.00422691 0)
(-0.00632079 0.00438284 0)
(-0.00651294 0.00452473 0)
(-0.00667705 0.00465537 0)
(-0.00679016 0.00477359 0)
(-0.00689242 0.00487257 0)
(-0.0069615 0.00495261 0)
(-0.00700931 0.00501001 0)
(-0.00448097 0.0033289 0)
(-0.00482204 0.00353425 0)
(-0.00525163 0.00372595 0)
(-0.00567132 0.00391089 0)
(-0.00595054 0.00409937 0)
(-0.00624229 0.004275 0)
(-0.00653179 0.00444096 0)
(-0.00672767 0.00460286 0)
(-0.00692688 0.00474975 0)
(-0.00709714 0.00488509 0)
(-0.00721452 0.00500756 0)
(-0.00732087 0.00510979 0)
(-0.00739246 0.0051923 0)
(-0.00744172 0.00525097 0)
(-0.00480012 0.00348387 0)
(-0.00515613 0.00369781 0)
(-0.00560369 0.00389578 0)
(-0.0060409 0.00408719 0)
(-0.00632928 0.00428235 0)
(-0.00663258 0.00446328 0)
(-0.00693399 0.00463397 0)
(-0.00713661 0.00480096 0)
(-0.00734271 0.00495201 0)
(-0.00751888 0.00509125 0)
(-0.00764032 0.00521727 0)
(-0.00775061 0.00532215 0)
(-0.00782452 0.00540664 0)
(-0.00787503 0.00546624 0)
(-0.00512138 0.00362122 0)
(-0.00549145 0.00384277 0)
(-0.00595838 0.00404635 0)
(-0.00641384 0.00424316 0)
(-0.0067105 0.00444358 0)
(-0.00702439 0.00462869 0)
(-0.00733679 0.00480311 0)
(-0.00754569 0.00497424 0)
(-0.0077587 0.00512855 0)
(-0.00794086 0.00527086 0)
(-0.00806624 0.00539962 0)
(-0.00818015 0.00550648 0)
(-0.00825605 0.0055924 0)
(-0.00830755 0.00565251 0)
(-0.00544418 0.0037384 0)
(-0.00582698 0.00396657 0)
(-0.00631319 0.00417478 0)
(-0.00678631 0.00437546 0)
(-0.00709228 0.00458032 0)
(-0.00741688 0.00476855 0)
(-0.00773963 0.00494564 0)
(-0.00795422 0.00511991 0)
(-0.00817391 0.0052765 0)
(-0.00836193 0.00542097 0)
(-0.00849095 0.00555163 0)
(-0.00860807 0.0056597 0)
(-0.00868554 0.00574643 0)
(-0.0087377 0.0058066 0)
(-0.00576669 0.00383292 0)
(-0.0061615 0.00406636 0)
(-0.00666788 0.00427861 0)
(-0.00715782 0.00448183 0)
(-0.00747319 0.00469002 0)
(-0.00780872 0.00488024 0)
(-0.00814165 0.00505893 0)
(-0.00836158 0.00523528 0)
(-0.00858757 0.00539315 0)
(-0.00878099 0.00553884 0)
(-0.00891313 0.00567049 0)
(-0.00903297 0.00577897 0)
(-0.00911158 0.00586585 0)
(-0.00916405 0.00592558 0)
(-0.00608657 0.00390271 0)
(-0.00649519 0.00414032 0)
(-0.00702205 0.00435536 0)
(-0.00752805 0.0045598 0)
(-0.00785249 0.00477018 0)
(-0.00819856 0.00496133 0)
(-0.00854139 0.00514054 0)
(-0.00876646 0.00531786 0)
(-0.00899839 0.00547597 0)
(-0.00919673 0.00562196 0)
(-0.00933141 0.00575368 0)
(-0.00945343 0.00586173 0)
(-0.00953282 0.00594803 0)
(-0.00958533 0.00600681 0)
(-0.00640164 0.00394599 0)
(-0.00682531 0.00418674 0)
(-0.00737236 0.00440261 0)
(-0.00789572 0.00460722 0)
(-0.00822904 0.00481865 0)
(-0.00858508 0.00500964 0)
(-0.00893751 0.00518828 0)
(-0.00916755 0.00536547 0)
(-0.00940454 0.00552264 0)
(-0.00960782 0.00566832 0)
(-0.0097446 0.00579899 0)
(-0.00986827 0.00590574 0)
(-0.00994814 0.00599076 0)
(-0.0100005 0.00604805 0)
(-0.0067111 0.00396052 0)
(-0.00715114 0.00420378 0)
(-0.00771838 0.0044188 0)
(-0.00825919 0.00462228 0)
(-0.00860115 0.0048336 0)
(-0.00896708 0.00502332 0)
(-0.00932923 0.00520031 0)
(-0.00956431 0.00537628 0)
(-0.00980704 0.00553155 0)
(-0.0100143 0.00567587 0)
(-0.0101518 0.00580454 0)
(-0.0102766 0.00590916 0)
(-0.0103567 0.0059922 0)
(-0.0104087 0.00604748 0)
(-0.007018 0.00394447 0)
(-0.00747364 0.00418897 0)
(-0.00805962 0.00440205 0)
(-0.0086171 0.00460335 0)
(-0.00896762 0.00481342 0)
(-0.00934388 0.00500075 0)
(-0.00971596 0.00517503 0)
(-0.00995583 0.00534879 0)
(-0.0102034 0.0055013 0)
(-0.0104137 0.00564287 0)
(-0.010552 0.00576878 0)
(-0.0106778 0.00587052 0)
(-0.0107578 0.00595094 0)
(-0.0108092 0.00600375 0)
(-0.00732203 0.0038972 0)
(-0.00779103 0.00414064 0)
(-0.00839546 0.00435085 0)
(-0.00896903 0.004549 0)
(-0.00932825 0.00475667 0)
(-0.00971509 0.00494053 0)
(-0.0100969 0.00511114 0)
(-0.0103409 0.0052817 0)
(-0.0105928 0.00543048 0)
(-0.0108058 0.00556831 0)
(-0.0109448 0.00569063 0)
(-0.0110714 0.00578878 0)
(-0.0111511 0.00586599 0)
(-0.0112017 0.00591594 0)
(-0.00762162 0.00381635 0)
(-0.00810325 0.00405769 0)
(-0.00872568 0.00426403 0)
(-0.00931516 0.00445801 0)
(-0.00968307 0.0046622 0)
(-0.0100801 0.00484164 0)
(-0.0104709 0.00500766 0)
(-0.0107187 0.00517408 0)
(-0.0109744 0.0053182 0)
(-0.0111898 0.00545142 0)
(-0.0113294 0.00556938 0)
(-0.0114568 0.0056633 0)
(-0.011536 0.00573681 0)
(-0.0115858 0.00578358 0)
(-0.00791563 0.00370104 0)
(-0.00840993 0.00393924 0)
(-0.00905025 0.0041407 0)
(-0.00965548 0.00432951 0)
(-0.0100316 0.00452924 0)
(-0.0104382 0.00470339 0)
(-0.0108374 0.00486398 0)
(-0.0110884 0.00502535 0)
(-0.0113478 0.00516399 0)
(-0.0115655 0.00529181 0)
(-0.0117056 0.00540472 0)
(-0.0118335 0.00549388 0)
(-0.0119123 0.00556326 0)
(-0.0119611 0.00560659 0)
(-0.00820467 0.00355085 0)
(-0.00871118 0.00378468 0)
(-0.0093691 0.00398024 0)
(-0.00998952 0.00416299 0)
(-0.0103732 0.00435734 0)
(-0.0107887 0.00452536 0)
(-0.0111959 0.00467969 0)
(-0.0114499 0.00483521 0)
(-0.0117128 0.0049677 0)
(-0.0119328 0.00508942 0)
(-0.0120732 0.00519668 0)
(-0.0122014 0.00528064 0)
(-0.0122797 0.00534557 0)
(-0.0123275 0.00538526 0)
(-0.00848893 0.00336535 0)
(-0.00900701 0.00359364 0)
(-0.00968186 0.00378237 0)
(-0.0103167 0.00395822 0)
(-0.0107073 0.00414625 0)
(-0.0111313 0.00430729 0)
(-0.0115461 0.00445461 0)
(-0.0118026 0.00460365 0)
(-0.0120698 0.00472969 0)
(-0.0122918 0.00484441 0)
(-0.0124322 0.00494554 0)
(-0.0125604 0.00502398 0)
(-0.0126379 0.00508425 0)
(-0.0126848 0.00512019 0)
(-0.00876827 0.00314437 0)
(-0.00929708 0.00336604 0)
(-0.00998805 0.00354704 0)
(-0.0106366 0.00371515 0)
(-0.0110335 0.00389597 0)
(-0.0114655 0.00404929 0)
(-0.0118878 0.00418881 0)
(-0.0121476 0.00433003 0)
(-0.0124187 0.00444926 0)
(-0.0126421 0.00455717 0)
(-0.0127824 0.00465191 0)
(-0.0129105 0.00472461 0)
(-0.0129871 0.00478007 0)
(-0.0130331 0.00481221 0)
(-0.00904219 0.00288797 0)
(-0.00958088 0.003102 0)
(-0.0102871 0.00327443 0)
(-0.0109485 0.00343403 0)
(-0.0113512 0.00360684 0)
(-0.011791 0.00375182 0)
(-0.0122207 0.00388309 0)
(-0.0124836 0.00401648 0)
(-0.012758 0.00412796 0)
(-0.0129831 0.00422861 0)
(-0.0131234 0.00431669 0)
(-0.0132515 0.00438348 0)
(-0.0133272 0.00443404 0)
(-0.0133721 0.00446241 0)
(-0.00931035 0.00259631 0)
(-0.00985813 0.00280179 0)
(-0.0105789 0.00296493 0)
(-0.0112524 0.00311535 0)
(-0.0116606 0.00327943 0)
(-0.0121079 0.00341555 0)
(-0.0125448 0.00353826 0)
(-0.0128108 0.00366348 0)
(-0.0130884 0.00376669 0)
(-0.0133151 0.00385975 0)
(-0.0134551 0.00394097 0)
(-0.0135832 0.00400174 0)
(-0.013658 0.00404736 0)
(-0.0137018 0.00407201 0)
(-0.00957277 0.0022697 0)
(-0.0101291 0.00246582 0)
(-0.0108637 0.00261906 0)
(-0.0115488 0.00275972 0)
(-0.011962 0.00291444 0)
(-0.0124164 0.00304125 0)
(-0.0128594 0.00315532 0)
(-0.0131289 0.00327232 0)
(-0.0134098 0.00336647 0)
(-0.0136378 0.00345171 0)
(-0.0137774 0.00352599 0)
(-0.0139055 0.00358072 0)
(-0.0139795 0.00362142 0)
(-0.0140222 0.00364243 0)
(-0.00982948 0.00190856 0)
(-0.0103941 0.00209462 0)
(-0.011142 0.00223747 0)
(-0.011838 0.00236793 0)
(-0.0122556 0.00251276 0)
(-0.0127165 0.00262972 0)
(-0.013166 0.00273374 0)
(-0.0134385 0.00284241 0)
(-0.0137218 0.00292835 0)
(-0.0139513 0.0030058 0)
(-0.0140904 0.0030731 0)
(-0.0142183 0.00312183 0)
(-0.0142914 0.0031577 0)
(-0.0143332 0.00317518 0)
(-0.0100797 0.00151359 0)
(-0.0106527 0.00168895 0)
(-0.0114134 0.00182103 0)
(-0.0121196 0.00194099 0)
(-0.0125412 0.00207555 0)
(-0.0130084 0.00218252 0)
(-0.0134642 0.00227699 0)
(-0.0137386 0.00237645 0)
(-0.0140243 0.00245384 0)
(-0.0142552 0.00252347 0)
(-0.0143941 0.0025838 0)
(-0.0145217 0.00262664 0)
(-0.0145938 0.00265778 0)
(-0.0146347 0.00267187 0)
(-0.0103213 0.00108595 0)
(-0.0109031 0.00124996 0)
(-0.0116769 0.0013709 0)
(-0.0123932 0.00148007 0)
(-0.0128185 0.00160407 0)
(-0.0132912 0.00170127 0)
(-0.0137541 0.00178629 0)
(-0.0140298 0.00187568 0)
(-0.0143174 0.00194444 0)
(-0.0145495 0.00200628 0)
(-0.0146882 0.00205971 0)
(-0.0148155 0.00209677 0)
(-0.0148867 0.00212333 0)
(-0.0149267 0.00213419 0)
(-0.0105528 0.00062718 0)
(-0.0111439 0.000779131 0)
(-0.0119312 0.00088848 0)
(-0.012658 0.000986546 0)
(-0.0130873 0.00109953 0)
(-0.013566 0.00118546 0)
(-0.0140354 0.001261 0)
(-0.0143118 0.00134138 0)
(-0.0146011 0.00140168 0)
(-0.0148344 0.00145585 0)
(-0.0149727 0.00150251 0)
(-0.0150998 0.00153394 0)
(-0.0151701 0.00155608 0)
(-0.015209 0.00156388 0)
(-0.0107746 0.000138811 0)
(-0.0113752 0.000278003 0)
(-0.0121763 0.000375322 0)
(-0.0129136 0.000462031 0)
(-0.0133467 0.000564143 0)
(-0.013833 0.000639446 0)
(-0.014307 0.000704275 0)
(-0.0145842 0.000775281 0)
(-0.0148753 0.000827212 0)
(-0.0151095 0.000873881 0)
(-0.0152474 0.000913948 0)
(-0.0153743 0.000939933 0)
(-0.0154437 0.000957809 0)
(-0.0154816 0.000962731 0)
(-0.0109892 -0.000377908 0)
(-0.0115986 -0.000252032 0)
(-0.0124127 -0.0001671 0)
(-0.0131599 -9.18786e-05 0)
(-0.0135986 -2.2056e-06 0)
(-0.0140916 6.19321e-05 0)
(-0.0145691 0.000117282 0)
(-0.014847 0.000179063 0)
(-0.0151397 0.000222781 0)
(-0.0153745 0.000262128 0)
(-0.015512 0.000295781 0)
(-0.0156389 0.000316521 0)
(-0.0157075 0.000330342 0)
(-0.0157444 0.000332567 0)
(-0.0111981 -0.000921602 0)
(-0.0118148 -0.000809477 0)
(-0.0126405 -0.000737164 0)
(-0.0133998 -0.000675155 0)
(-0.0138433 -0.000597848 0)
(-0.0143405 -0.000543921 0)
(-0.0148218 -0.000498171 0)
(-0.0151002 -0.000445524 0)
(-0.0153941 -0.000409855 0)
(-0.0156296 -0.000377662 0)
(-0.0157668 -0.000350224 0)
(-0.0158935 -0.000334489 0)
(-0.0159614 -0.000324501 0)
(-0.0159974 -0.000324785 0)
(-0.0113995 -0.00149026 0)
(-0.012024 -0.00139236 0)
(-0.0128631 -0.00133491 0)
(-0.0136332 -0.00128577 0)
(-0.0140789 -0.00121983 0)
(-0.0145804 -0.00117636 0)
(-0.0150652 -0.00114022 0)
(-0.0153438 -0.00109665 0)
(-0.0156388 -0.00106891 0)
(-0.0158749 -0.00104371 0)
(-0.0160116 -0.00102226 0)
(-0.0161381 -0.00101128 0)
(-0.0162052 -0.0010049 0)
(-0.0162404 -0.0010075 0)
(-0.0115944 -0.00208687 0)
(-0.0122275 -0.00200357 0)
(-0.0130799 -0.0019583 0)
(-0.0138572 -0.00192058 0)
(-0.0143054 -0.00186632 0)
(-0.0148112 -0.00183345 0)
(-0.0152994 -0.00180697 0)
(-0.0155782 -0.00177248 0)
(-0.0158742 -0.00175256 0)
(-0.0161105 -0.00173417 0)
(-0.0162465 -0.0017185 0)
(-0.0163727 -0.00171203 0)
(-0.016439 -0.00170904 0)
(-0.0164735 -0.00171374 0)
(-0.0117835 -0.00270378 0)
(-0.0124242 -0.00263546 0)
(-0.0132876 -0.00260328 0)
(-0.0140726 -0.00257769 0)
(-0.0145234 -0.00253545 0)
(-0.0150333 -0.00251334 0)
(-0.0155248 -0.00249657 0)
(-0.0158034 -0.00247114 0)
(-0.0161 -0.00245894 0)
(-0.0163363 -0.00244722 0)
(-0.0164715 -0.00243714 0)
(-0.0165973 -0.00243497 0)
(-0.0166629 -0.00243513 0)
(-0.0166967 -0.00244173 0)
(-0.0119671 -0.00333952 0)
(-0.0126146 -0.00328674 0)
(-0.0134882 -0.00326823 0)
(-0.0142805 -0.00325524 0)
(-0.0147335 -0.00322535 0)
(-0.015247 -0.00321414 0)
(-0.015741 -0.00320713 0)
(-0.0160191 -0.00319078 0)
(-0.0163161 -0.00318622 0)
(-0.0165523 -0.00318106 0)
(-0.0166867 -0.00317641 0)
(-0.0168121 -0.00317831 0)
(-0.016877 -0.0031814 0)
(-0.01691 -0.00318969 0)
(-0.0121447 -0.00399229 0)
(-0.0127985 -0.0039556 0)
(-0.0136817 -0.00395125 0)
(-0.0144806 -0.00395128 0)
(-0.0149349 -0.00393403 0)
(-0.0154513 -0.00393392 0)
(-0.0159473 -0.0039368 0)
(-0.0162249 -0.00392957 0)
(-0.0165224 -0.00393264 0)
(-0.0167586 -0.00393392 0)
(-0.0168923 -0.00393454 0)
(-0.0170173 -0.00394031 0)
(-0.0170813 -0.0039461 0)
(-0.0171134 -0.00395589 0)
(-0.0123169 -0.00466023 0)
(-0.012976 -0.00464016 0)
(-0.0138676 -0.00465042 0)
(-0.0146717 -0.00466385 0)
(-0.0151265 -0.00465959 0)
(-0.0156451 -0.00467082 0)
(-0.016143 -0.00468375 0)
(-0.0164202 -0.00468573 0)
(-0.0167184 -0.00469639 0)
(-0.0169549 -0.00470403 0)
(-0.017088 -0.00470976 0)
(-0.0172127 -0.00471923 0)
(-0.0172758 -0.00472755 0)
(-0.0173071 -0.00473865 0)
(-0.0124847 -0.00534136 0)
(-0.0131473 -0.00533845 0)
(-0.0140453 -0.00536379 0)
(-0.0148527 -0.00539102 0)
(-0.0153068 -0.0054001 0)
(-0.015827 -0.00542293 0)
(-0.0163267 -0.00544607 0)
(-0.016604 -0.00545736 0)
(-0.0169035 -0.00547564 0)
(-0.0171408 -0.00548962 0)
(-0.0172737 -0.00550039 0)
(-0.0173981 -0.00551343 0)
(-0.0174606 -0.00552412 0)
(-0.0174911 -0.00553637 0)
(-0.0126463 -0.00603336 0)
(-0.0133097 -0.00604821 0)
(-0.0142111 -0.0060891 0)
(-0.0150196 -0.00613056 0)
(-0.0154719 -0.00615336 0)
(-0.015994 -0.00618809 0)
(-0.0164966 -0.00622173 0)
(-0.0167755 -0.00624256 0)
(-0.0170775 -0.00626862 0)
(-0.0173164 -0.00628902 0)
(-0.0174495 -0.00630484 0)
(-0.017574 -0.00632136 0)
(-0.0176358 -0.00633427 0)
(-0.0176655 -0.00634752 0)
(-0.0127955 -0.00673375 0)
(-0.0134559 -0.00676688 0)
(-0.0143576 -0.00682383 0)
(-0.0151663 -0.00688001 0)
(-0.0156182 -0.006917 0)
(-0.0161451 -0.00696415 0)
(-0.0166536 -0.00700874 0)
(-0.0169362 -0.00703952 0)
(-0.0172417 -0.00707368 0)
(-0.0174824 -0.00710067 0)
(-0.0176159 -0.00712158 0)
(-0.0177404 -0.00714154 0)
(-0.0178016 -0.00715655 0)
(-0.0178306 -0.00717064 0)
(-0.0129227 -0.00743987 0)
(-0.0135762 -0.00749179 0)
(-0.0144779 -0.00756538 0)
(-0.0152899 -0.00763686 0)
(-0.0157471 -0.00768879 0)
(-0.0162836 -0.00774906 0)
(-0.0168007 -0.00780527 0)
(-0.0170876 -0.00784654 0)
(-0.0173963 -0.00788917 0)
(-0.0176386 -0.00792302 0)
(-0.0177725 -0.00794916 0)
(-0.0178972 -0.00797255 0)
(-0.0179581 -0.00798957 0)
(-0.0179865 -0.00800436 0)
(-0.0130174 -0.0081488 0)
(-0.0136645 -0.00822014 0)
(-0.0145721 -0.00831098 0)
(-0.015396 -0.0083987 0)
(-0.0158653 -0.0084665 0)
(-0.0164138 -0.00854074 0)
(-0.016938 -0.00860934 0)
(-0.0172275 -0.00866171 0)
(-0.017539 -0.00871337 0)
(-0.0177837 -0.00875449 0)
(-0.0179191 -0.00878611 0)
(-0.0180448 -0.00881303 0)
(-0.0181056 -0.00883203 0)
(-0.0181334 -0.00884741 0)
(-0.0130742 -0.0088574 0)
(-0.0137238 -0.00894876 0)
(-0.0146495 -0.00905794 0)
(-0.0154939 -0.00916303 0)
(-0.0159756 -0.00924762 0)
(-0.0165311 -0.00933678 0)
(-0.0170594 -0.00941859 0)
(-0.0173526 -0.00948296 0)
(-0.01767 -0.00954445 0)
(-0.0179193 -0.00959349 0)
(-0.018057 -0.00963103 0)
(-0.0181838 -0.00966171 0)
(-0.0182445 -0.00968273 0)
(-0.0182718 -0.00969863 0)
(-0.0130983 -0.00956201 0)
(-0.0137666 -0.00967452 0)
(-0.0147205 -0.00980332 0)
(-0.0155825 -0.00992667 0)
(-0.0160676 -0.0100291 0)
(-0.0166268 -0.0101342 0)
(-0.0171642 -0.0102305 0)
(-0.0174676 -0.0103081 0)
(-0.0177934 -0.0103805 0)
(-0.018047 -0.0104384 0)
(-0.0181864 -0.0104825 0)
(-0.0183143 -0.0105173 0)
(-0.018375 -0.0105405 0)
(-0.0184019 -0.0105569 0)
(-0.0131041 -0.0102591 0)
(-0.0138037 -0.0103941 0)
(-0.0147803 -0.0105432 0)
(-0.0156459 -0.0106859 0)
(-0.0161318 -0.0108074 0)
(-0.0167059 -0.0109299 0)
(-0.0172622 -0.0110423 0)
(-0.0175764 -0.0111347 0)
(-0.017907 -0.0112194 0)
(-0.0181632 -0.0112872 0)
(-0.0183054 -0.0113389 0)
(-0.0184359 -0.0113787 0)
(-0.0184974 -0.0114044 0)
(-0.018524 -0.0114214 0)
(-0.0131036 -0.0109452 0)
(-0.0138282 -0.0111031 0)
(-0.0148087 -0.0112735 0)
(-0.0156753 -0.0114366 0)
(-0.0161794 -0.0115786 0)
(-0.0167811 -0.0117205 0)
(-0.0173521 -0.0118507 0)
(-0.0176689 -0.0119596 0)
(-0.0180035 -0.0120583 0)
(-0.0182674 -0.012138 0)
(-0.0184168 -0.0121989 0)
(-0.0185503 -0.0122445 0)
(-0.0186124 -0.0122734 0)
(-0.0186388 -0.0122911 0)
(-0.0130913 -0.0116153 0)
(-0.0138185 -0.0117969 0)
(-0.0147965 -0.0119893 0)
(-0.0156849 -0.0121742 0)
(-0.0162232 -0.0123387 0)
(-0.0168437 -0.0125015 0)
(-0.0174175 -0.0126514 0)
(-0.0177389 -0.0127789 0)
(-0.0180887 -0.0128944 0)
(-0.0183681 -0.0129884 0)
(-0.0185223 -0.0130604 0)
(-0.0186566 -0.0131136 0)
(-0.0187198 -0.0131465 0)
(-0.0187466 -0.0131653 0)
(-0.0130468 -0.0122648 0)
(-0.0137621 -0.0124701 0)
(-0.0147561 -0.0126854 0)
(-0.0156874 -0.0128937 0)
(-0.0162515 -0.013082 0)
(-0.0168759 -0.0132675 0)
(-0.0174553 -0.0134392 0)
(-0.0177981 -0.0135884 0)
(-0.0181745 -0.0137239 0)
(-0.0184599 -0.0138349 0)
(-0.0186128 -0.0139209 0)
(-0.0187529 -0.0139841 0)
(-0.0188207 -0.0140228 0)
(-0.018848 -0.0140433 0)
(-0.0129534 -0.0128879 0)
(-0.0136647 -0.0131172 0)
(-0.0147009 -0.0133565 0)
(-0.0156752 -0.013589 0)
(-0.0162469 -0.0138022 0)
(-0.0168721 -0.0140117 0)
(-0.017477 -0.0142082 0)
(-0.0178594 -0.0143826 0)
(-0.0182441 -0.0145407 0)
(-0.0185243 -0.0146729 0)
(-0.0186918 -0.0147773 0)
(-0.0188457 -0.0148541 0)
(-0.0189167 -0.014901 0)
(-0.0189433 -0.0149245 0)
(-0.0128066 -0.0134789 0)
(-0.0135384 -0.0137326 0)
(-0.0146322 -0.013996 0)
(-0.0156318 -0.014253 0)
(-0.0161951 -0.0144913 0)
(-0.0168409 -0.0147272 0)
(-0.0175011 -0.0149512 0)
(-0.0178984 -0.0151525 0)
(-0.0182727 -0.0153376 0)
(-0.0185789 -0.0154965 0)
(-0.0187723 -0.0156243 0)
(-0.0189327 -0.0157201 0)
(-0.0190041 -0.0157795 0)
(-0.0190331 -0.0158081 0)
(-0.0126121 -0.0140324 0)
(-0.0133915 -0.01431 0)
(-0.0145378 -0.0145971 0)