/*--------------------------------*- C++ -*----------------------------------*\
| =========                 |                                                 |
| \\      /  F ield         | OpenFOAM Extend Project: Open source CFD        |
|  \\    /   O peration     | Version:  1.6-ext                               |
|   \\  /    A nd           | Web:      www.extend-project.de                 |
|    \\/     M anipulation  |                                                 |
\*---------------------------------------------------------------------------*/
FoamFile
{
    version     2.0;
    format      ascii;
    class       volScalarField;
    location    "0.35";
    object      p;
}
// * * * * * * * * * * * * * * * * * * * * * * * * * * * * * * * * * * * * * //

dimensions      [0 2 -2 0 0 0 0];

internalField   nonuniform List<scalar> 
20940
(
-0.0148812
-0.0593586
-0.106061
-0.15526
-0.206391
-0.259525
-0.314159
-0.369816
-0.425631
-0.480474
-0.532951
-0.581601
-0.625156
-0.662802
-0.694324
-0.7201
-0.740942
-0.75788
-0.771885
-0.783785
-0.795159
-0.807225
-0.0433601
-0.0867052
-0.132456
-0.180088
-0.229369
-0.280137
-0.331858
-0.383923
-0.43538
-0.485072
-0.531717
-0.57413
-0.611454
-0.643324
-0.669906
-0.691794
-0.709831
-0.724921
-0.737824
-0.749125
-0.760142
-0.771889
-0.0681586
-0.11014
-0.154639
-0.200445
-0.247606
-0.295718
-0.344218
-0.392372
-0.439186
-0.483553
-0.524388
-0.560842
-0.592467
-0.61928
-0.641711
-0.660447
-0.676269
-0.689913
-0.701924
-0.712671
-0.723234
-0.734442
-0.0915693
-0.131968
-0.174938
-0.218646
-0.263382
-0.308502
-0.353418
-0.397297
-0.439169
-0.478063
-0.513167
-0.543999
-0.570482
-0.592924
-0.611894
-0.628071
-0.642112
-0.654568
-0.665793
-0.675982
-0.686016
-0.69659
-0.113292
-0.151992
-0.193255
-0.234691
-0.276794
-0.318681
-0.359754
-0.399132
-0.435945
-0.469436
-0.499116
-0.524855
-0.546876
-0.565662
-0.581819
-0.595943
-0.608539
-0.619984
-0.630472
-0.640071
-0.649501
-0.659364
-0.133559
-0.170471
-0.209875
-0.248877
-0.288147
-0.326578
-0.363605
-0.398367
-0.430174
-0.458537
-0.483294
-0.50461
-0.522905
-0.53873
-0.552645
-0.565124
-0.576519
-0.58706
-0.596823
-0.605785
-0.614539
-0.623619
-0.152616
-0.187636
-0.225024
-0.261432
-0.297685
-0.33249
-0.36537
-0.395552
-0.42259
-0.446283
-0.466752
-0.484369
-0.499647
-0.513119
-0.525248
-0.53638
-0.546733
-0.556423
-0.565445
-0.573721
-0.581739
-0.589987
-0.170669
-0.203768
-0.239028
-0.272698
-0.305767
-0.336817
-0.365534
-0.391303
-0.413957
-0.433552
-0.45042
-0.465038
-0.47792
-0.489527
-0.500211
-0.510196
-0.519601
-0.528459
-0.536716
-0.544264
-0.551507
-0.558892
-0.187864
-0.218873
-0.251798
-0.282554
-0.312305
-0.339578
-0.36428
-0.385991
-0.404803
-0.42097
-0.434937
-0.447198
-0.458209
-0.468334
-0.477817
-0.486792
-0.495302
-0.503334
-0.510808
-0.517601
-0.524048
-0.530566
-0.204451
-0.233328
-0.263787
-0.291454
-0.317761
-0.341267
-0.36216
-0.380223
-0.395761
-0.409132
-0.420811
-0.431236
-0.440776
-0.449693
-0.458143
-0.466194
-0.473844
-0.481053
-0.487734
-0.493763
-0.499415
-0.505079
-0.220329
-0.246679
-0.274329
-0.298737
-0.32159
-0.341538
-0.359035
-0.374023
-0.386934
-0.398149
-0.408099
-0.417137
-0.425534
-0.433465
-0.441022
-0.448229
-0.455061
-0.461469
-0.467369
-0.472645
-0.47752
-0.482356
-0.236116
-0.259848
-0.284564
-0.305527
-0.324863
-0.341387
-0.355796
-0.368145
-0.378905
-0.388416
-0.397017
-0.404962
-0.412427
-0.419518
-0.426278
-0.432705
-0.438764
-0.444403
-0.449548
-0.454097
-0.458226
-0.462267
-0.250719
-0.271284
-0.292529
-0.310084
-0.326104
-0.339669
-0.351555
-0.361875
-0.371054
-0.379351
-0.387001
-0.39416
-0.400928
-0.407355
-0.413455
-0.41921
-0.424582
-0.429525
-0.433978
-0.437854
-0.441287
-0.444576
-0.266882
-0.284087
-0.301736
-0.315688
-0.328309
-0.339001
-0.348525
-0.357017
-0.364802
-0.372038
-0.378851
-0.385306
-0.391436
-0.397245
-0.402719
-0.407833
-0.412548
-0.416823
-0.42061
-0.42384
-0.42661
-0.429185
-0.278361
-0.293551
-0.306686
-0.317578
-0.327185
-0.33565
-0.343437
-0.3507
-0.357608
-0.364218
-0.370555
-0.376609
-0.382359
-0.387779
-0.392839
-0.397508
-0.40175
-0.40553
-0.408811
-0.411537
-0.413766
-0.415718
-0.299854
-0.310581
-0.318237
-0.3253
-0.331446
-0.337246
-0.342961
-0.348667
-0.3544
-0.360103
-0.365701
-0.371114
-0.376271
-0.381112
-0.385591
-0.389671
-0.393318
-0.396504
-0.399204
-0.401382
-0.403069
-0.404419
-0.323301
-0.328312
-0.32974
-0.332659
-0.335502
-0.33922
-0.343521
-0.3483
-0.353344
-0.358457
-0.363475
-0.368276
-0.372774
-0.376914
-0.380661
-0.383991
-0.386888
-0.389342
-0.391343
-0.392885
-0.393995
-0.394777
-0.33659
-0.338069
-0.335743
-0.336687
-0.337831
-0.340555
-0.344023
-0.348137
-0.352544
-0.357025
-0.361397
-0.36554
-0.369374
-0.372852
-0.37595
-0.378652
-0.380952
-0.382848
-0.384341
-0.385438
-0.386152
-0.386546
-0.347376
-0.346117
-0.341245
-0.340888
-0.340873
-0.342847
-0.345598
-0.349054
-0.352787
-0.356581
-0.360257
-0.363701
-0.366848
-0.36966
-0.372122
-0.374226
-0.375973
-0.377367
-0.378417
-0.379135
-0.379529
-0.379636
-0.356896
-0.353394
-0.347144
-0.345792
-0.34495
-0.346175
-0.348165
-0.350848
-0.353795
-0.356806
-0.359716
-0.362426
-0.36488
-0.367046
-0.368912
-0.370474
-0.371734
-0.372695
-0.373371
-0.373776
-0.37391
-0.373793
-0.366655
-0.361135
-0.354091
-0.351657
-0.350006
-0.350325
-0.35144
-0.353237
-0.355322
-0.357506
-0.359636
-0.361624
-0.363415
-0.364979
-0.366302
-0.367377
-0.368205
-0.368788
-0.369136
-0.369265
-0.369161
-0.368831
-0.376309
-0.369037
-0.361418
-0.357841
-0.355361
-0.354704
-0.354911
-0.355805
-0.357038
-0.358426
-0.359827
-0.361153
-0.362348
-0.36338
-0.364229
-0.364884
-0.365338
-0.365591
-0.365649
-0.365525
-0.365189
-0.364632
-0.384615
-0.376073
-0.368077
-0.363522
-0.360318
-0.358784
-0.358177
-0.358265
-0.358747
-0.359441
-0.360211
-0.360971
-0.361662
-0.362246
-0.362696
-0.362997
-0.363135
-0.363104
-0.362906
-0.36255
-0.361984
-0.361181
-0.3904
-0.381314
-0.373306
-0.368168
-0.364495
-0.362326
-0.361095
-0.360549
-0.360428
-0.360559
-0.360818
-0.361117
-0.361397
-0.361615
-0.36174
-0.36175
-0.361627
-0.361358
-0.360941
-0.360383
-0.359605
-0.358561
-0.393088
-0.384337
-0.376825
-0.37163
-0.367837
-0.36534
-0.363718
-0.362733
-0.362168
-0.36187
-0.361729
-0.361663
-0.361613
-0.361536
-0.361398
-0.361174
-0.360843
-0.360387
-0.3598
-0.359086
-0.358142
-0.356906
-0.39373
-0.386031
-0.379423
-0.37457
-0.370902
-0.368286
-0.366423
-0.36512
-0.364208
-0.363562
-0.363088
-0.362714
-0.362385
-0.362059
-0.361703
-0.361289
-0.360797
-0.360207
-0.359509
-0.358703
-0.357675
-0.356344
-0.392973
-0.386807
-0.381359
-0.377115
-0.373748
-0.371164
-0.369179
-0.367658
-0.366481
-0.365556
-0.364807
-0.364175
-0.36361
-0.363076
-0.36254
-0.361979
-0.361373
-0.360704
-0.359964
-0.359149
-0.358146
-0.356865
-0.394393
-0.389541
-0.384932
-0.381041
-0.377731
-0.374997
-0.372747
-0.370907
-0.369397
-0.368148
-0.367098
-0.366193
-0.365388
-0.364645
-0.363936
-0.363239
-0.362539
-0.361824
-0.361089
-0.360335
-0.359469
-0.358405
-0.395171
-0.391455
-0.387502
-0.383924
-0.380694
-0.377887
-0.37548
-0.373439
-0.371715
-0.370254
-0.369004
-0.367915
-0.366944
-0.366055
-0.365224
-0.364433
-0.363675
-0.362951
-0.362268
-0.361638
-0.361014
-0.360329
-0.403453
-0.39957
-0.395111
-0.390859
-0.38692
-0.383428
-0.380399
-0.377816
-0.375633
-0.373792
-0.372229
-0.370882
-0.369693
-0.368611
-0.367598
-0.366629
-0.365695
-0.364807
-0.363995
-0.363308
-0.362809
-0.362535
1.35939
1.41024
1.46104
1.51169
1.56176
1.61085
1.65855
1.70447
1.74822
1.78941
1.82769
1.86271
1.89417
1.92186
1.94563
1.96555
1.98196
1.99556
2.00732
2.01848
2.0319
2.04949
1.35087
1.40141
1.45156
1.50156
1.55094
1.59929
1.64622
1.69135
1.73428
1.77463
1.81204
1.84619
1.87678
1.90359
1.9265
1.94559
1.96123
1.97417
1.98541
1.99622
2.00945
2.02699
1.33034
1.38018
1.42902
1.47775
1.52581
1.5728
1.61832
1.66199
1.70343
1.74224
1.77809
1.81064
1.83961
1.86478
1.88606
1.90357
1.91773
1.92937
1.93958
1.94969
1.96256
1.97995
1.30101
1.34978
1.39665
1.44343
1.48946
1.53432
1.57764
1.61904
1.65813
1.69455
1.72794
1.758
1.78444
1.80706
1.82581
1.84085
1.85272
1.86236
1.87097
1.87999
1.89226
1.9094
1.26222
1.30956
1.35385
1.39809
1.44149
1.48359
1.52406
1.56251
1.59857
1.63187
1.66208
1.68888
1.712
1.73128
1.7467
1.7585
1.76733
1.77429
1.78078
1.78833
1.79977
1.81655
1.21569
1.26124
1.30236
1.34351
1.38367
1.42239
1.45936
1.49418
1.5265
1.55597
1.58225
1.60503
1.62408
1.63922
1.65051
1.65829
1.66334
1.66697
1.67078
1.67646
1.68684
1.7031
1.16238
1.20579
1.24323
1.28081
1.31723
1.35205
1.38496
1.4156
1.44359
1.46861
1.49031
1.50841
1.52267
1.53297
1.5394
1.54241
1.54297
1.54261
1.54319
1.54659
1.55562
1.57118
1.10402
1.14496
1.1783
1.21189
1.24411
1.27454
1.3029
1.32881
1.35192
1.3719
1.38842
1.40121
1.41003
1.4148
1.41566
1.4132
1.40856
1.40357
1.40038
1.40107
1.40844
1.42308
1.04216
1.08028
1.10918
1.13848
1.16617
1.19187
1.2153
1.2361
1.25391
1.2684
1.27927
1.28622
1.28905
1.28769
1.28236
1.27375
1.26325
1.25298
1.24542
1.24294
1.24829
1.26173
0.978746
1.01375
1.038
1.06274
1.08559
1.10622
1.12438
1.13967
1.15177
1.16035
1.16509
1.16572
1.16203
1.15399
1.14186
1.1265
1.1095
1.09333
1.08085
1.07474
1.0777
1.08962
0.915184
0.946736
0.966267
0.986374
1.00431
1.0198
1.03257
1.04224
1.04848
1.05093
1.04931
1.04332
1.03276
1.01761
0.998203
0.975507
0.951388
0.928659
0.910644
0.900352
0.90048
0.910478
0.85368
0.881478
0.896231
0.911536
0.924364
0.934485
0.941627
0.9454
0.94546
0.941478
0.933142
0.920176
0.90238
0.87974
0.852642
0.822189
0.790497
0.76076
0.736763
0.721904
0.71883
0.726492
0.794606
0.818317
0.828723
0.839501
0.847514
0.852567
0.854364
0.852502
0.846623
0.836381
0.821446
0.801527
0.776406
0.746063
0.710917
0.672195
0.632281
0.594808
0.56411
0.544055
0.537264
0.542123
0.74122
0.759843
0.765807
0.771814
0.774789
0.77452
0.770683
0.762869
0.750717
0.733875
0.712017
0.684854
0.652177
0.613986
0.570751
0.523822
0.475833
0.43081
0.393566
0.368377
0.357731
0.359305
0.691376
0.704869
0.707812
0.70971
0.708483
0.703776
0.695198
0.682319
0.664738
0.642064
0.613928
0.57999
0.539987
0.49387
0.442095
0.386096
0.328801
0.274802
0.229698
0.198489
0.183699
0.182049
0.653473
0.655167
0.655087
0.652641
0.646402
0.636366
0.622071
0.603111
0.579093
0.549629
0.514355
0.472948
0.425189
0.371126
0.311399
0.24774
0.183462
0.12354
0.0738057
0.0392478
0.0218504
0.0175417
0.613259
0.605192
0.600098
0.590378
0.576751
0.558987
0.536621
0.509336
0.47679
0.43867
0.394698
0.344672
0.288569
0.226752
0.160331
0.0915767
0.0241919
-0.0369106
-0.0865609
-0.120839
-0.139041
-0.145965
0.565514
0.55048
0.54055
0.524277
0.504367
0.479925
0.450642
0.41624
0.376422
0.33094
0.279596
0.222308
0.159231
0.0910138
0.0191463
-0.0536849
-0.123499
-0.185461
-0.234928
-0.26885
-0.287677
-0.296852
0.514932
0.494051
0.478843
0.456243
0.430268
0.399433
0.36368
0.322727
0.276331
0.224299
0.166511
0.102997
0.034108
-0.0392167
-0.115107
-0.190511
-0.261276
-0.322777
-0.371009
-0.403831
-0.422717
-0.433455
0.462339
0.436314
0.415779
0.38734
0.355681
0.31893
0.277262
0.230378
0.1781
0.1203
0.0569455
-0.0117867
-0.0853175
-0.162382
-0.240739
-0.317049
-0.387145
-0.446801
-0.492786
-0.523882
-0.542409
-0.554226
0.408823
0.378302
0.352632
0.318951
0.282128
0.240109
0.193246
0.141229
0.0839494
0.0213436
-0.0465154
-0.119283
-0.196128
-0.275458
-0.354708
-0.43037
-0.498428
-0.555203
-0.598291
-0.627327
-0.645267
-0.657829
0.355575
0.321167
0.290721
0.252443
0.211051
0.164482
0.113201
0.056902
-0.00445044
-0.0708479
-0.142096
-0.21766
-0.296443
-0.376543
-0.455152
-0.528731
-0.593573
-0.646659
-0.686417
-0.713211
-0.730433
-0.743493
0.30341
0.265716
0.230987
0.188807
0.143526
0.0931935
0.0383299
-0.0213425
-0.0857899
-0.154919
-0.228395
-0.305475
-0.384794
-0.464186
-0.540698
-0.610911
-0.671573
-0.720392
-0.756575
-0.781081
-0.79753
-0.810915
0.253339
0.212953
0.174522
0.12915
0.0806987
0.0274062
-0.0301887
-0.0923193
-0.158878
-0.229673
-0.304209
-0.381526
-0.460005
-0.537285
-0.610391
-0.67617
-0.731939
-0.776148
-0.808699
-0.830976
-0.846659
-0.860243
0.205677
0.163184
0.121691
0.0738521
0.0229858
-0.0324401
-0.0918926
-0.155546
-0.223214
-0.294588
-0.369
-0.44527
-0.521567
-0.595423
-0.663976
-0.724473
-0.774869
-0.814332
-0.84333
-0.863513
-0.878467
-0.892148
0.161234
0.117198
0.0733023
0.023698
-0.0288499
-0.0856233
-0.146106
-0.210399
-0.278227
-0.349147
-0.422308
-0.496325
-0.569215
-0.63851
-0.701598
-0.75623
-0.801033
-0.835811
-0.86146
-0.879737
-0.89402
-0.907705
0.119624
0.0745716
0.0289317
-0.0217539
-0.075253
-0.132594
-0.193283
-0.257331
-0.324362
-0.393787
-0.46457
-0.535159
-0.603502
-0.667254
-0.724175
-0.772598
-0.811792
-0.842094
-0.864669
-0.881248
-0.894905
-0.908493
0.081655
0.0360914
-0.0106589
-0.061801
-0.115592
-0.17281
-0.232975
-0.295997
-0.361385
-0.428389
-0.495807
-0.561973
-0.624863
-0.682379
-0.732753
-0.774921
-0.808731
-0.834914
-0.854759
-0.869857
-0.882926
-0.896307
0.046081
0.000440368
-0.0468387
-0.0978521
-0.151302
-0.207724
-0.266642
-0.327849
-0.390725
-0.454365
-0.517434
-0.578233
-0.634885
-0.685657
-0.729318
-0.765385
-0.794176
-0.816666
-0.834128
-0.847937
-0.860417
-0.873451
0.0143391
-0.0309545
-0.0782211
-0.12859
-0.181155
-0.236215
-0.293286
-0.352027
-0.411687
-0.471225
-0.529231
-0.584067
-0.634114
-0.678083
-0.715285
-0.745731
-0.770071
-0.789373
-0.804793
-0.817439
-0.829236
-0.841657
0.0432194
-0.00199045
-0.0492788
-0.0997182
-0.152429
-0.207671
-0.264952
-0.323897
-0.383723
-0.443345
-0.501321
-0.555995
-0.605757
-0.649349
-0.686124
-0.716142
-0.74008
-0.759021
-0.774126
-0.786495
-0.798017
-0.81014
0.0748143
0.029239
-0.0180779
-0.0691511
-0.122727
-0.179301
-0.238396
-0.299773
-0.362783
-0.426479
-0.489486
-0.55008
-0.606381
-0.656686
-0.699814
-0.735338
-0.763625
-0.785673
-0.802765
-0.816265
-0.828453
-0.84117
0.109998
0.0644834
0.0176708
-0.0335256
-0.0874312
-0.144777
-0.205088
-0.268249
-0.333743
-0.40078
-0.468114
-0.534046
-0.596536
-0.653509
-0.703247
-0.744756
-0.777947
-0.803594
-0.823002
-0.837755
-0.850516
-0.863573
0.147295
0.102274
0.0565367
0.00579415
-0.0478159
-0.105268
-0.166079
-0.23024
-0.297353
-0.366792
-0.437479
-0.507819
-0.575734
-0.638887
-0.695087
-0.742739
-0.781197
-0.810859
-0.832921
-0.849112
-0.862448
-0.875713
0.18794
0.143919
0.0998812
0.0502091
-0.00245534
-0.0593327
-0.119925
-0.184314
-0.252209
-0.323135
-0.396198
-0.469969
-0.542427
-0.611098
-0.673405
-0.727176
-0.771131
-0.805164
-0.830216
-0.848059
-0.862008
-0.875377
0.231127
0.188631
0.146939
0.0990114
0.0480119
-0.00752398
-0.0670846
-0.13083
-0.198561
-0.269943
-0.34427
-0.420315
-0.496203
-0.56944
-0.637189
-0.696763
-0.746223
-0.784839
-0.813158
-0.832853
-0.847462
-0.860841
0.277252
0.236842
0.198151
0.152656
0.104044
0.0506219
-0.00709377
-0.0693256
-0.135958
-0.206777
-0.281257
-0.358389
-0.436506
-0.513209
-0.585527
-0.650362
-0.705133
-0.748414
-0.780207
-0.801946
-0.817271
-0.830576
0.325543
0.287799
0.252739
0.210391
0.164909
0.114413
0.0594012
-0.000398054
-0.0649444
-0.13413
-0.207593
-0.284548
-0.363577
-0.442468
-0.518251
-0.587543
-0.647188
-0.695023
-0.730384
-0.754304
-0.770387
-0.783522
0.375729
0.341235
0.310382
0.271879
0.230236
0.183456
0.131983
0.0755159
0.014022
-0.0524802
-0.123775
-0.199291
-0.277879
-0.357585
-0.435565
-0.508294
-0.572147
-0.624232
-0.663125
-0.689298
-0.70615
-0.718996
0.42686
0.396205
0.370052
0.336075
0.298942
0.25665
0.209538
0.157295
0.0998151
0.0370403
-0.0309403
-0.103753
-0.180518
-0.259587
-0.338346
-0.413279
-0.480424
-0.536227
-0.57844
-0.606833
-0.62441
-0.636802
0.478187
0.451963
0.43087
0.402053
0.370017
0.33292
0.290933
0.243752
0.1912
0.133152
0.0695862
0.000702795
-0.0728789
-0.149837
-0.227873
-0.303616
-0.372929
-0.43169
-0.476829
-0.507285
-0.525466
-0.537169
0.528597
0.50743
0.491599
0.468528
0.4421
0.410839
0.374687
0.333355
0.286598
0.234227
0.176125
0.112342
0.0432594
-0.0301299
-0.105893
-0.18093
-0.251089
-0.311824
-0.359282
-0.391498
-0.410072
-0.420764
0.577064
0.561624
0.551021
0.534178
0.513738
0.488785
0.459016
0.424144
0.38387
0.337945
0.286177
0.228491
0.165073
0.096612
0.0246635
-0.0480255
-0.11745
-0.178822
-0.227634
-0.261017
-0.279585
-0.288798
0.622826
0.614155
0.60835
0.597964
0.583725
0.56537
0.542432
0.514586
0.481489
0.442824
0.398314
0.347764
0.291169
0.228932
0.162217
0.0933654
0.0261267
-0.0346033
-0.0837615
-0.117603
-0.135621
-0.142682
0.661519
0.662352
0.661525
0.658327
0.651378
0.640659
0.625693
0.606071
0.581394
0.55127
0.515333
0.473264
0.424854
0.370177
0.309924
0.245897
0.181481
0.121671
0.0722243
0.0379662
0.0206571
0.0161019
0.697463
0.709832
0.712008
0.713153
0.711172
0.70573
0.696419
0.682805
0.664483
0.641059
0.612161
0.577449
0.536671
0.4898
0.437337
0.380786
0.323148
0.269049
0.224036
0.192972
0.17816
0.17617
0.744947
0.762369
0.767562
0.77279
0.774969
0.773921
0.7693
0.760693
0.747735
0.730072
0.707376
0.67936
0.645822
0.606785
0.562759
0.515155
0.466676
0.421377
0.384039
0.358828
0.348041
0.349205
0.796182
0.818696
0.828305
0.838284
0.845471
0.849707
0.850674
0.847966
0.841222
0.830092
0.814248
0.793397
0.767331
0.73605
0.700012
0.660499
0.619957
0.582054
0.551104
0.530889
0.523857
0.528247
0.853151
0.879793
0.893731
0.908227
0.920212
0.92949
0.935773
0.938666
0.937824
0.932912
0.92362
0.909673
0.890878
0.867241
0.839183
0.807857
0.775434
0.745146
0.72077
0.705639
0.702249
0.709409
0.912827
0.943308
0.962021
0.981318
0.998409
1.01304
1.02494
1.03371
1.03901
1.04051
1.0379
1.0309
1.01931
1.00312
0.982706
0.959077
0.934149
0.910776
0.892282
0.881635
0.881395
0.890881
0.974838
1.00886
1.03229
1.05623
1.07825
1.09803
1.11532
1.12971
1.14089
1.1485
1.15225
1.15186
1.14714
1.13805
1.1249
1.10857
1.09072
1.07384
1.06083
1.0543
1.05687
1.06829
1.03708
1.07431
1.10244
1.13096
1.15784
1.18271
1.2053
1.22521
1.24212
1.25567
1.26557
1.27152
1.27333
1.27094
1.26459
1.25502
1.24366
1.23265
1.22452
1.22159
1.22654
1.2395
1.09817
1.13832
1.17092
1.20378
1.23523
1.26488
1.29243
1.3175
1.33975
1.35883
1.37443
1.38626
1.39411
1.39789
1.39778
1.39438
1.3889
1.38318
1.3794
1.37965
1.38662
1.40082
1.15617
1.19891
1.23567
1.27258
1.30829
1.34239
1.37456
1.40442
1.43161
1.45579
1.47664
1.49386
1.50721
1.51659
1.52211
1.52425
1.52401
1.52295
1.52297
1.52594
1.5346
1.54976
1.20957
1.25455
1.29505
1.33561
1.37514
1.41322
1.44952
1.48365
1.51525
1.54398
1.56949
1.59148
1.60971
1.62404
1.63451
1.6415
1.64582
1.64882
1.65211
1.65739
1.66743
1.68335
1.25658
1.30346
1.34723
1.39096
1.43382
1.47537
1.51527
1.55313
1.58857
1.62123
1.65078
1.6769
1.69934
1.71791
1.73263
1.74375
1.75195
1.75836
1.76439
1.77158
1.78275
1.79923
1.29622
1.34462
1.39108
1.43745
1.48305
1.52746
1.57032
1.61124
1.64984
1.68574
1.71861
1.74812
1.77399
1.79605
1.81423
1.82872
1.84008
1.84926
1.8575
1.86623
1.87827
1.89519
1.32669
1.37627
1.42482
1.47324
1.52099
1.56765
1.61283
1.65615
1.69722
1.73566
1.77112
1.80327
1.83183
1.85658
1.87744
1.89454
1.90832
1.91963
1.92956
1.93946
1.95216
1.96939
1.34859
1.39898
1.44894
1.49875
1.54794
1.59609
1.64282
1.68773
1.73044
1.77056
1.80773
1.84164
1.87198
1.89853
1.92118
1.94003
1.95544
1.96817
1.97923
1.98991
2.00305
2.02048
1.35861
1.40942
1.46015
1.51074
1.56075
1.60976
1.6574
1.70325
1.74692
1.78803
1.82623
1.86117
1.89255
1.92015
1.94383
1.96367
1.98
1.99354
2.00524
2.01635
2.02974
2.0473
0.0139174
-0.0148046
-0.0399772
-0.0638552
-0.0860826
-0.106859
-0.126396
-0.144864
-0.162395
-0.179212
-0.195224
-0.211022
-0.225579
-0.24157
-0.252988
-0.274243
-0.297768
-0.311267
-0.322239
-0.331891
-0.341758
-0.35153
-0.359966
-0.365864
-0.368607
-0.369207
-0.368323
-0.369523
-0.370119
-0.378175
-0.0304579
-0.0580339
-0.0818257
-0.104107
-0.124625
-0.143605
-0.161246
-0.177794
-0.193242
-0.207942
-0.221455
-0.234682
-0.246123
-0.258844
-0.268244
-0.28514
-0.303096
-0.313039
-0.321264
-0.328674
-0.336522
-0.344531
-0.351675
-0.357
-0.360053
-0.361695
-0.36235
-0.364894
-0.366653
-0.374597
-0.0771741
-0.103799
-0.12634
-0.147097
-0.165917
-0.183046
-0.198677
-0.213104
-0.226224
-0.238472
-0.249191
-0.259517
-0.267518
-0.276704
-0.281627
-0.293167
-0.30496
-0.311124
-0.316744
-0.322711
-0.329715
-0.337114
-0.343854
-0.349146
-0.352681
-0.355226
-0.357053
-0.360468
-0.362909
-0.370392
-0.126456
-0.151532
-0.172261
-0.190931
-0.207488
-0.22219
-0.235231
-0.246926
-0.257138
-0.266312
-0.27379
-0.280704
-0.28532
-0.290945
-0.292802
-0.300549
-0.30817
-0.312302
-0.316579
-0.321529
-0.327442
-0.333687
-0.339433
-0.344125
-0.347592
-0.350479
-0.352929
-0.356726
-0.359504
-0.366346
-0.177753
-0.201001
-0.219627
-0.235889
-0.249824
-0.2617
-0.271729
-0.280243
-0.287143
-0.292883
-0.296918
-0.300333
-0.301646
-0.303892
-0.302731
-0.307033
-0.3113
-0.313684
-0.316758
-0.320847
-0.325928
-0.331325
-0.336331
-0.340541
-0.34388
-0.346898
-0.349661
-0.35354
-0.356419
-0.362575
-0.2311
-0.252007
-0.268001
-0.281286
-0.291999
-0.300424
-0.306829
-0.311589
-0.314712
-0.31669
-0.317172
-0.317169
-0.315522
-0.314896
-0.311493
-0.313115
-0.315228
-0.31657
-0.318862
-0.322186
-0.326351
-0.330763
-0.334881
-0.338446
-0.341453
-0.344355
-0.347164
-0.350911
-0.353734
-0.35922
-0.285976
-0.303998
-0.316791
-0.326504
-0.333381
-0.337763
-0.34002
-0.340615
-0.33972
-0.337887
-0.334968
-0.331871
-0.327693
-0.324694
-0.319542
-0.319068
-0.3197
-0.320177
-0.321727
-0.324276
-0.327556
-0.33105
-0.334344
-0.337277
-0.33989
-0.342557
-0.345254
-0.348752
-0.351429
-0.356305
-0.341869
-0.356322
-0.365222
-0.370671
-0.373053
-0.37282
-0.370495
-0.366673
-0.361713
-0.356222
-0.350218
-0.344468
-0.338247
-0.333406
-0.327013
-0.324957
-0.324607
-0.324396
-0.325273
-0.327042
-0.32943
-0.332014
-0.334494
-0.336787
-0.33896
-0.341312
-0.343798
-0.346989
-0.349475
-0.353817
-0.397877
-0.407992
-0.412266
-0.412785
-0.410115
-0.404879
-0.397783
-0.389571
-0.38076
-0.37198
-0.363333
-0.355418
-0.347604
-0.341353
-0.334079
-0.330827
-0.329749
-0.328887
-0.329082
-0.330061
-0.331583
-0.333309
-0.335032
-0.336717
-0.338444
-0.340452
-0.342681
-0.345547
-0.347826
-0.351713
-0.452833
-0.457817
-0.456788
-0.45185
-0.443789
-0.433432
-0.421666
-0.40935
-0.397099
-0.385509
-0.374691
-0.365056
-0.356019
-0.348698
-0.3408
-0.336627
-0.334933
-0.333435
-0.332941
-0.333135
-0.333826
-0.334752
-0.335775
-0.336894
-0.338191
-0.339854
-0.341807
-0.344356
-0.346428
-0.349938
-0.505313
-0.504496
-0.497687
-0.487045
-0.473578
-0.458309
-0.442258
-0.426336
-0.411173
-0.39728
-0.384721
-0.373728
-0.363736
-0.355575
-0.347207
-0.342291
-0.340004
-0.33786
-0.33667
-0.336099
-0.336009
-0.336202
-0.33659
-0.337194
-0.33809
-0.339421
-0.341104
-0.343357
-0.345233
-0.348432
-0.553849
-0.54684
-0.534116
-0.517887
-0.499353
-0.479676
-0.459931
-0.441005
-0.423477
-0.40774
-0.393787
-0.381697
-0.370921
-0.362059
-0.3533
-0.347745
-0.344842
-0.342044
-0.340159
-0.338856
-0.338043
-0.337571
-0.337389
-0.33753
-0.33806
-0.339084
-0.340511
-0.342495
-0.34419
-0.347134
-0.597187
-0.584006
-0.565638
-0.544312
-0.521346
-0.497959
-0.475203
-0.453881
-0.434478
-0.417266
-0.40217
-0.38915
-0.377683
-0.368189
-0.359066
-0.352923
-0.349365
-0.345909
-0.343342
-0.341349
-0.339873
-0.338804
-0.338115
-0.337843
-0.338042
-0.338788
-0.339982
-0.341727
-0.343259
-0.345986
-0.63454
-0.615657
-0.592294
-0.56664
-0.540049
-0.513719
-0.488617
-0.465434
-0.444551
-0.426133
-0.410056
-0.396203
-0.384083
-0.37398
-0.364484
-0.357771
-0.35352
-0.349411
-0.346184
-0.343549
-0.341471
-0.339868
-0.33873
-0.33809
-0.337993
-0.338491
-0.339477
-0.341016
-0.342404
-0.34494
-0.665732
-0.641984
-0.614529
-0.585456
-0.55608
-0.527524
-0.500648
-0.476027
-0.453952
-0.43451
-0.41755
-0.40291
-0.390142
-0.379426
-0.369531
-0.362248
-0.357274
-0.352526
-0.34867
-0.345443
-0.342823
-0.340746
-0.339208
-0.338241
-0.337881
-0.33816
-0.338968
-0.340335
-0.341602
-0.343958
-0.69117
-0.663603
-0.633048
-0.601452
-0.570047
-0.539863
-0.511653
-0.485899
-0.462826
-0.442474
-0.424683
-0.409277
-0.395851
-0.384506
-0.37418
-0.366321
-0.360608
-0.355241
-0.350793
-0.347028
-0.343924
-0.341426
-0.339533
-0.338274
-0.337679
-0.337769
-0.33843
-0.339662
-0.340836
-0.343016
-0.711688
-0.68137
-0.648641
-0.615293
-0.582464
-0.551098
-0.521863
-0.495178
-0.471228
-0.450033
-0.431442
-0.415276
-0.401177
-0.389187
-0.378402
-0.369959
-0.363508
-0.357551
-0.352557
-0.348307
-0.344773
-0.341903
-0.339694
-0.338173
-0.337369
-0.337297
-0.337844
-0.338982
-0.340099
-0.342106
-0.728323
-0.696199
-0.662052
-0.62754
-0.59372
-0.56147
-0.531404
-0.503907
-0.479152
-0.457154
-0.43778
-0.420861
-0.40608
-0.393434
-0.382165
-0.373138
-0.365963
-0.359456
-0.353965
-0.349287
-0.345376
-0.342177
-0.339684
-0.337925
-0.336933
-0.336726
-0.337193
-0.338284
-0.339392
-0.341238
-0.742049
-0.708849
-0.673833
-0.638554
-0.604018
-0.571064
-0.54028
-0.512042
-0.486526
-0.463756
-0.443619
-0.425962
-0.410501
-0.3972
-0.385434
-0.375834
-0.367969
-0.36096
-0.355028
-0.349979
-0.345743
-0.342255
-0.339506
-0.337529
-0.336367
-0.336047
-0.336469
-0.337563
-0.338721
-0.340441
-0.753693
-0.719911
-0.68436
-0.648542
-0.613436
-0.579867
-0.548422
-0.51948
-0.493233
-0.46972
-0.448849
-0.43048
-0.414358
-0.400419
-0.388156
-0.378013
-0.369518
-0.362066
-0.35576
-0.3504
-0.34589
-0.342151
-0.339171
-0.336991
-0.335672
-0.335258
-0.335669
-0.336821
-0.3381
-0.339766
-0.764808
-0.730685
-0.694697
-0.658373
-0.622689
-0.588471
-0.556317
-0.526626
-0.499608
-0.475322
-0.453693
-0.434591
-0.417785
-0.40319
-0.390391
-0.379709
-0.370638
-0.362793
-0.356168
-0.35055
-0.345805
-0.341836
-0.338628
-0.336237
-0.33475
-0.334249
-0.33468
-0.335964
-0.337481
-0.339273
-0.776591
-0.742169
-0.705666
-0.668737
-0.632372
-0.597403
-0.564447
-0.533924
-0.506066
-0.48095
-0.458512
-0.438631
-0.421083
-0.405781
-0.392361
-0.381077
-0.371437
-0.363202
-0.356291
-0.350451
-0.345496
-0.341303
-0.337852
-0.335221
-0.333541
-0.332941
-0.333416
-0.334909
-0.336798
-0.339001
0.279251
0.279221
0.279228
0.279232
0.279251
0.279274
0.279308
0.279353
0.279411
0.279484
0.279573
0.279678
0.279797
0.279929
0.280073
0.280228
0.280392
0.280565
0.280745
0.280931
0.281123
0.281319
0.281518
0.281719
0.279946
0.279915
0.279922
0.279927
0.279948
0.279974
0.280011
0.280061
0.280125
0.280205
0.280302
0.280416
0.280545
0.280688
0.280844
0.281012
0.281189
0.281375
0.28157
0.281771
0.281977
0.282189
0.282404
0.282622
0.280625
0.280592
0.2806
0.280606
0.280628
0.280657
0.280699
0.280753
0.280824
0.280912
0.281018
0.281141
0.281281
0.281436
0.281604
0.281785
0.281976
0.282177
0.282386
0.282603
0.282826
0.283054
0.283286
0.283522
0.281287
0.281252
0.28126
0.281267
0.281292
0.281323
0.281369
0.281429
0.281507
0.281603
0.281718
0.281852
0.282003
0.28217
0.282352
0.282547
0.282753
0.282969
0.283194
0.283427
0.283667
0.283912
0.284163
0.284417
0.28193
0.281893
0.281902
0.28191
0.281936
0.281971
0.282022
0.282088
0.282173
0.282277
0.282403
0.282548
0.282711
0.282892
0.283087
0.283297
0.283518
0.28375
0.283992
0.284242
0.2845
0.284764
0.285033
0.285307
0.282553
0.282514
0.282524
0.282533
0.282562
0.2826
0.282656
0.282728
0.282821
0.282935
0.283071
0.283228
0.283404
0.283598
0.283809
0.284033
0.284271
0.28452
0.284779
0.285047
0.285324
0.285607
0.285896
0.28619
0.283156
0.283115
0.283126
0.283135
0.283167
0.283209
0.28327
0.283349
0.28345
0.283574
0.283721
0.283891
0.284081
0.28429
0.284515
0.284756
0.285011
0.285277
0.285555
0.285842
0.286138
0.286442
0.286752
0.287067
0.283737
0.283694
0.283705
0.283716
0.28375
0.283796
0.283863
0.283949
0.28406
0.284194
0.284353
0.284536
0.28474
0.284965
0.285207
0.285464
0.285737
0.286022
0.286318
0.286625
0.286942
0.287266
0.287598
0.287936
0.284295
0.28425
0.284262
0.284274
0.284311
0.284362
0.284434
0.284528
0.284648
0.284794
0.284966
0.285162
0.285382
0.285622
0.285881
0.286157
0.286448
0.286752
0.287068
0.287396
0.287734
0.28808
0.288435
0.288797
0.284828
0.284782
0.284795
0.284808
0.284848
0.284903
0.284982
0.285085
0.285215
0.285373
0.285558
0.285769
0.286005
0.286262
0.286538
0.286833
0.287142
0.287467
0.287804
0.288153
0.288513
0.288882
0.289261
0.289647
0.285337
0.285289
0.285303
0.285317
0.285361
0.285421
0.285507
0.285618
0.285759
0.285929
0.286128
0.286355
0.286607
0.286882
0.287177
0.28749
0.28782
0.288165
0.288524
0.288895
0.289278
0.289671
0.290074
0.290485
0.28582
0.28577
0.285784
0.2858
0.285848
0.285913
0.286006
0.286127
0.286279
0.286462
0.286677
0.28692
0.287189
0.287482
0.287796
0.288129
0.28848
0.288846
0.289227
0.289622
0.290028
0.290446
0.290874
0.291311
0.286276
0.286224
0.286239
0.286257
0.286308
0.286378
0.286479
0.28661
0.286774
0.286972
0.287201
0.287461
0.287748
0.28806
0.288395
0.288749
0.289121
0.289509
0.289913
0.290331
0.290762
0.291205
0.29166
0.292124
0.286703
0.286649
0.286666
0.286685
0.28674
0.286817
0.286926
0.287067
0.287244
0.287456
0.287702
0.287979
0.288285
0.288617
0.288972
0.289347
0.289741
0.290153
0.29058
0.291022
0.291479
0.291948
0.292429
0.292921
0.287101
0.287047
0.287064
0.287085
0.287144
0.287227
0.287344
0.287497
0.287687
0.287914
0.288177
0.288472
0.288798
0.28915
0.289526
0.289923
0.29034
0.290775
0.291227
0.291694
0.292176
0.292672
0.293181
0.293703
0.28747
0.287414
0.287433
0.287456
0.287519
0.287608
0.287735
0.287898
0.288102
0.288345
0.288626
0.28894
0.289286
0.289659
0.290057
0.290477
0.290917
0.291376
0.291852
0.292345
0.292854
0.293378
0.293915
0.294466
0.287808
0.287751
0.287771
0.287796
0.287863
0.287959
0.288095
0.288271
0.288489
0.288749
0.289048
0.289382
0.289748
0.290142
0.290563
0.291006
0.29147
0.291953
0.292455
0.292975
0.293511
0.294062
0.294629
0.29521
0.288114
0.288056
0.288077
0.288105
0.288177
0.28828
0.288426
0.288614
0.288848
0.289124
0.289442
0.289796
0.290183
0.2906
0.291043
0.29151
0.291998
0.292507
0.293035
0.293581
0.294145
0.294725
0.295321
0.295933
0.288388
0.28833
0.288352
0.288382
0.288459
0.288569
0.288726
0.288927
0.289176
0.28947
0.289807
0.290182
0.290591
0.29103
0.291496
0.291987
0.2925
0.293035
0.293589
0.294162
0.294754
0.295364
0.29599
0.296633
0.28863
0.288572
0.288595
0.288628
0.28871
0.288827
0.288995
0.289209
0.289474
0.289786
0.290143
0.290539
0.29097
0.291432
0.291922
0.292437
0.292976
0.293536
0.294117
0.294718
0.295338
0.295977
0.296635
0.297309
0.288839
0.288781
0.288805