/*--------------------------------*- C++ -*----------------------------------*\
| =========                 |                                                 |
| \\      /  F ield         | OpenFOAM Extend Project: Open source CFD        |
|  \\    /   O peration     | Version:  1.6-ext                               |
|   \\  /    A nd           | Web:      www.extend-project.de                 |
|    \\/     M anipulation  |                                                 |
\*---------------------------------------------------------------------------*/
FoamFile
{
    version     2.0;
    format      ascii;
    class       surfaceScalarField;
    location    "0.35";
    object      phi;
}
// * * * * * * * * * * * * * * * * * * * * * * * * * * * * * * * * * * * * * //

dimensions      [0 3 -1 0 0 0 0];

internalField   nonuniform List<scalar> 
41420
(
-0.000123682
0.000398305
-0.00039885
0.000124227
-0.000122676
0.000379491
-0.000380497
-0.000121241
0.000361006
-0.00036244
-0.000119383
0.000342758
-0.000344616
-0.000117046
0.000324755
-0.000327093
-0.000114088
0.000306798
-0.000309756
-0.000110281
0.00028855
-0.000292357
-0.000105338
0.000269545
-0.000274489
-9.89786e-05
0.00024929
-0.000255649
-9.10353e-05
0.000227416
-0.000235359
-8.15392e-05
0.000203831
-0.000213327
-7.07725e-05
0.000178822
-0.000189588
-5.92429e-05
0.000153045
-0.000164575
-4.75968e-05
0.000127413
-0.000139059
-3.64924e-05
0.000102902
-0.000114007
-2.64897e-05
8.03746e-05
-9.03773e-05
-1.79769e-05
6.04405e-05
-6.89533e-05
-1.11554e-05
4.34182e-05
-5.02397e-05
-6.06165e-06
2.93547e-05
-3.44484e-05
-2.61277e-06
1.80896e-05
-2.15385e-05
-6.54279e-07
9.32965e-06
-1.12881e-05
2.71845e-06
-3.37273e-06
-0.000131217
0.000397612
0.00013191
-0.000130038
0.000378312
-0.000128396
0.000359364
-0.000126261
0.000340623
-0.000123528
0.000322023
-0.000119998
0.000303268
-0.000115393
0.000283945
-0.000109409
0.000263562
-0.000101815
0.000241696
-9.25488e-05
0.000218149
-8.17916e-05
0.000193074
-6.99772e-05
0.000167007
-5.77242e-05
0.000140792
-4.57174e-05
0.000115406
-3.45836e-05
9.17686e-05
-2.47973e-05
7.05883e-05
-1.66432e-05
5.22864e-05
-1.02242e-05
3.69992e-05
-5.50165e-06
2.46322e-05
-2.34447e-06
1.49324e-05
-5.74217e-07
7.55939e-06
2.14423e-06
-0.00014585
0.000396276
0.000147186
-0.000144003
0.000376465
-0.000141642
0.000357004
-0.00013869
0.00033767
-0.000134975
0.000318308
-0.000130232
0.000298525
-0.000124143
0.000277856
-0.000116424
0.000255843
-0.000106934
0.000232206
-9.57665e-05
0.000206982
-8.32866e-05
0.000180594
-7.00866e-05
0.000153807
-5.6877e-05
0.000127582
-4.43511e-05
0.00010288
-3.30708e-05
8.04883e-05
-2.3406e-05
6.09236e-05
-1.55274e-05
4.44077e-05
-9.43951e-06
3.09113e-05
-5.03066e-06
2.02233e-05
-2.12333e-06
1.20251e-05
-5.13849e-07
5.9499e-06
1.63039e-06
-0.000159883
0.000394326
0.000161833
-0.000157373
0.000373955
-0.000154259
0.000353889
-0.000150391
0.000333803
-0.000145526
0.000313443
-0.000139339
0.000292338
-0.000131509
0.000270025
-0.000121825
0.000246159
-0.000110299
0.000220679
-9.72222e-05
0.000193905
-8.31519e-05
0.000166524
-6.88104e-05
0.000139466
-5.49472e-05
0.000113719
-4.22069e-05
9.01396e-05
-3.1046e-05
6.93274e-05
-2.17079e-05
5.15855e-05
-1.42476e-05
3.69475e-05
-8.57998e-06
2.52437e-05
-4.534e-06
1.61773e-05
-1.89849e-06
9.38958e-06
-4.55421e-07
4.50684e-06
1.17496e-06
-0.000172612
0.000391814
0.000175124
-0.000169452
0.000370795
-0.000165536
0.000349973
-0.000160629
0.000328896
-0.000154416
0.00030723
-0.000146545
0.000284467
-0.000136747
0.000260228
-0.000124956
0.000234368
-0.000111391
0.000207114
-9.65637e-05
0.000179078
-8.11983e-05
0.000151158
-6.60905e-05
0.000124358
-5.19614e-05
9.95901e-05
-3.9353e-05
7.75312e-05
-2.8585e-05
5.85594e-05
-1.97683e-05
4.27688e-05
-1.28509e-05
3.003e-05
-7.67433e-06
2.00672e-05
-4.02522e-06
1.25282e-05
-1.67367e-06
7.03803e-06
-3.98318e-07
3.23149e-06
7.76646e-07
-0.000183958
0.000388777
0.000186995
-0.000180117
0.000366954
-0.000175281
0.000345137
-0.00016913
0.000322745
-0.000161302
0.000299403
-0.000151478
0.000274642
-0.00013952
0.00024827
-0.000125575
0.000220423
-0.000110105
0.000191645
-9.3827e-05
0.0001628
-7.75735e-05
0.000134905
-6.21367e-05
0.000108921
-4.81423e-05
8.55957e-05
-3.59882e-05
6.53771e-05
-2.58453e-05
4.84165e-05
-1.76992e-05
3.46227e-05
-1.14091e-05
2.37399e-05
-6.76362e-06
1.54217e-05
-3.52448e-06
9.28908e-06
-1.45638e-06
4.96994e-06
-3.44099e-07
2.1192e-06
4.32547e-07
-0.000193742
0.000385187
0.000197331
-0.000189109
0.000362321
-0.00018315
0.000339178
-0.000175476
0.000315071
-0.000165736
0.000289663
-0.000153725
0.000262631
-0.000139521
0.000234066
-0.000123534
0.000204435
-0.000106465
0.000174576
-8.91784e-05
0.000145513
-7.25296e-05
0.000118256
-5.72265e-05
9.36179e-05
-4.37457e-05
7.21149e-05
-3.23212e-05
5.39526e-05
-2.29805e-05
3.90757e-05
-1.56041e-05
2.72464e-05
-9.98629e-06
1.81221e-05
-5.88347e-06
1.13189e-05
-3.04889e-06
6.4545e-06
-1.25314e-06
3.17419e-06
-2.94137e-07
1.1602e-06
1.3841e-07
-0.000201755
0.000380979
0.000205963
-0.000196147
0.000356713
-0.000188784
0.000331815
-0.000179265
0.000305552
-0.000167338
0.000277736
-0.000153009
0.000248302
-0.000136638
0.000217695
-0.000118908
0.000186706
-0.000100707
0.000156375
-8.29513e-05
0.000127757
-6.64279e-05
0.000101733
-5.16927e-05
7.88827e-05
-3.90445e-05
5.94667e-05
-2.85553e-05
4.34634e-05
-2.01304e-05
3.06508e-05
-1.35722e-05
2.06882e-05
-8.63464e-06
1.31845e-05
-5.06161e-06
7.74583e-06
-2.61135e-06
4.00424e-06
-1.06865e-06
1.63149e-06
-2.49411e-07
3.40959e-07
-1.11001e-07
-0.000207702
0.000375949
0.000212732
-0.000200828
0.000349839
-0.000191722
0.000322708
-0.000180054
0.000293884
-0.000165778
0.000263459
-0.00014919
0.000231714
-0.000130953
0.000199458
-0.000111974
0.000167726
-9.32281e-05
0.000137629
-7.55826e-05
0.000110112
-5.96742e-05
8.58242e-05
-4.58695e-05
6.5078e-05
-3.42881e-05
4.78853e-05
-2.48622e-05
3.40375e-05
-1.74047e-05
2.31933e-05
-1.16684e-05
1.49519e-05
-7.38967e-06
8.90571e-06
-4.31562e-06
4.67179e-06
-2.2193e-06
1.90792e-06
-9.05335e-07
3.1752e-07
-2.10339e-07
-3.54037e-07
-3.2134e-07
-0.000211262
0.000369893
0.000217318
-0.000202799
0.000341376
-0.000191626
0.000311536
-0.000177608
0.000279866
-0.000161
0.000246851
-0.000142432
0.000213146
-0.000122829
0.000179855
-0.000103222
0.00014812
-8.45602e-05
0.000118967
-6.75637e-05
9.31154e-05
-5.26722e-05
7.09326e-05
-4.00571e-05
5.2463e-05
-2.96815e-05
3.75096e-05
-2.13707e-05
2.57267e-05
-1.48778e-05
1.67005e-05
-9.93192e-06
1.00061e-05
-6.26967e-06
5.24346e-06
-3.65268e-06
2.05479e-06
-1.87486e-06
1.30102e-07
-7.63512e-07
-7.93828e-07
-1.76888e-07
-9.40662e-07
-4.98227e-07
-0.000212002
0.000362403
0.000219492
-0.0002016
0.000330974
-0.000188137
0.000298074
-0.00017177
0.000263498
-0.000153108
0.000228189
-0.00013308
0.000193117
-0.000112774
0.00015955
-9.32215e-05
0.000128568
-7.52351e-05
0.000100981
-5.93337e-05
7.7214e-05
-4.57476e-05
5.73465e-05
-3.44753e-05
4.11907e-05
-2.53591e-05
2.83933e-05
-1.81543e-05
1.8522e-05
-1.25839e-05
1.11301e-05
-8.3742e-06
5.79634e-06
-5.27499e-06
2.14425e-06
-3.06908e-06
-1.51124e-07
-1.57417e-06
-1.36481e-06
-6.40754e-07
-1.72724e-06
-1.4822e-07
-1.4332e-06
-6.46447e-07
-0.000209796
0.000353335
0.000218864
-0.000197252
0.00031843
-0.000181464
0.000282285
-0.000162973
0.000245008
-0.000142734
0.00020795
-0.000121891
0.000172275
-0.000101567
0.000139225
-8.2675e-05
0.000109676
-6.58248e-05
8.41305e-05
-5.13142e-05
6.27033e-05
-3.91845e-05
4.52168e-05
-2.92989e-05
3.13051e-05
-2.14178e-05
2.05122e-05
-1.52594e-05
1.23635e-05
-1.05397e-05
6.41039e-06
-6.99635e-06
2.25302e-06
-4.40022e-06
-4.51883e-07
-2.55826e-06
-1.99308e-06
-1.31216e-06
-2.61091e-06
-5.34392e-07
-2.50501e-06
-1.23639e-07
-1.84395e-06
-7.70086e-07
-0.000204217
0.000342207
0.000215345
-0.000189482
0.000303694
-0.000171602
0.000264405
-0.000151502
0.000224908
-0.000130384
0.000186832
-0.000109476
0.000151367
-8.98066e-05
0.000119556
-7.20935e-05
9.19628e-05
-5.67162e-05
6.87532e-05
-4.37699e-05
4.9757e-05
-3.31463e-05
3.45932e-05
-2.46166e-05
2.27754e-05
-1.78973e-05
1.3793e-05
-1.26964e-05
7.16261e-06
-8.74013e-06
2.45411e-06
-5.78716e-06
-6.99945e-07
-3.63307e-06
-2.60597e-06
-2.10961e-06
-3.51654e-06
-1.08114e-06
-3.63938e-06
-4.39899e-07
-3.14624e-06
-1.01407e-07
-2.18244e-06
-8.71493e-07
-0.000195739
0.000329449
0.000208497
-0.000179066
0.000287021
-0.00015952
0.000244859
-0.00013846
0.000203848
-0.000117178
0.00016555
-9.68695e-05
0.000131059
-7.8372e-05
0.000101058
-6.21689e-05
7.57597e-05
-4.84215e-05
5.50058e-05
-3.70607e-05
3.83962e-05
-2.78753e-05
2.54078e-05
-2.0586e-05
1.54861e-05
-1.48968e-05
8.10384e-06
-1.05257e-05
2.79149e-06
-7.22089e-06
-8.50731e-07
-4.76688e-06
-3.15395e-06
-2.98482e-06
-4.38804e-06
-1.72947e-06
-4.77189e-06
-8.84941e-07
-4.48392e-06
-3.59845e-07
-3.67134e-06
-8.30379e-08
-2.45925e-06
-9.54531e-07
-0.000184053
0.000314672
0.000198829
-0.000166085
0.000269054
-0.000145634
0.000224408
-0.000124442
0.000182656
-0.000103793
0.0001449
-8.47179e-05
0.000111984
-6.78092e-05
8.41495e-05
-5.3317e-05
6.12675e-05
-4.12287e-05
4.29175e-05
-3.13679e-05
2.85354e-05
-2.34732e-05
1.75131e-05
-1.7255e-05
9.2679e-06
-1.24302e-05
3.27906e-06
-8.74163e-06
-8.97095e-07
-5.96574e-06
-3.62662e-06
-3.91439e-06
-5.2053e-06
-2.43281e-06
-5.86962e-06
-1.39596e-06
-5.80874e-06
-7.04324e-07
-5.17555e-06
-2.79496e-07
-4.09617e-06
-6.04699e-08
-2.67827e-06
-1.015e-06
-0.000357657
0.000258405
0.000413924
-0.000301269
0.000212666
-0.000247595
0.000170734
-0.000198759
0.00013382
-0.000155969
0.00010211
-0.000119749
7.57643e-05
-8.99667e-05
5.4367e-05
-6.60974e-05
3.73982e-05
-4.73995e-05
2.42196e-05
-3.30641e-05
1.41999e-05
-2.23079e-05
6.7569e-06
-1.44245e-05
1.38452e-06
-8.80477e-06
-2.34066e-06
-4.93847e-06
-4.7634e-06
-2.40575e-06
-6.15933e-06
-8.64502e-07
-6.74655e-06
-3.6792e-08
-6.69733e-06
3.03372e-07
-6.1489e-06
3.40253e-07
-5.21243e-06
2.24402e-07
-3.98032e-06
7.82222e-08
-2.53209e-06
-9.36779e-07
-0.000301173
0.00019848
0.000361098
-0.000245448
0.000156941
-0.000195686
0.000120972
-0.000152767
9.09013e-05
-0.000116854
6.6197e-05
-8.7585e-05
4.64952e-05
-6.42682e-05
3.10502e-05
-4.60712e-05
1.92012e-05
-3.21425e-05
1.0291e-05
-2.16886e-05
3.74602e-06
-1.40103e-05
-9.2146e-07
-8.51393e-06
-4.11182e-06
-4.70787e-06
-6.14671e-06
-2.19084e-06
-7.28043e-06
-6.38127e-07
-7.71205e-06
2.12249e-07
-7.59692e-06
5.71877e-07
-7.05696e-06
6.12191e-07
-6.18922e-06
4.72563e-07
-5.0728e-06
2.66324e-07
-3.77408e-06
8.4788e-08
-2.35056e-06
-8.51991e-07
-0.000240761
0.000141502
0.000297739
-0.000190661
0.000106841
-0.00014814
7.84508e-05
-0.000112912
5.56736e-05
-8.44394e-05
3.77244e-05
-6.18659e-05
2.39217e-05
-4.43005e-05
1.34848e-05
-3.08679e-05
5.76861e-06
-2.07808e-05
2.03886e-07
-1.33581e-05
-3.67675e-06
-8.02814e-06
-6.25138e-06
-4.32077e-06
-7.81919e-06
-1.85377e-06
-8.61371e-06
-3.18878e-07
-8.81532e-06
5.31669e-07
-8.5626e-06
8.96956e-07
-7.96221e-06
9.37187e-07
-7.09719e-06
7.81562e-07
-6.03359e-06
5.3437e-07
-4.82561e-06
2.79622e-07
-3.51933e-06
8.41367e-08
-2.15507e-06
-7.67854e-07
-0.000184516
9.19134e-05
0.000234105
-0.000142699
6.50242e-05
-0.000108473
4.42239e-05
-8.08988e-05
2.80998e-05
-5.9136e-05
1.59616e-05
-4.2216e-05
7.00172e-06
-2.92835e-05
5.52197e-07
-1.95676e-05
-3.9472e-06
-1.24136e-05
-6.95017e-06
-7.27316e-06
-8.81718e-06
-3.69585e-06
-9.82868e-06
-1.31537e-06
-1.01997e-05
1.63726e-07
-1.00928e-05
9.7858e-07
-9.63017e-06
1.31904e-06
-8.90306e-06
1.33704e-06
-7.98021e-06
1.15411e-06
-6.91426e-06
8.6742e-07
-5.7469e-06
5.54316e-07
-4.51251e-06
2.75838e-07
-3.24085e-06
7.92416e-08
-1.95848e-06
-6.88612e-07
-0.000136799
5.12757e-05
0.000177437
-0.000103552
3.17767e-05
-7.6934e-05
1.7606e-05
-5.59048e-05
7.07063e-06
-3.95845e-05
-3.58642e-07
-2.7112e-05
-5.47081e-06
-1.7757e-05
-8.80277e-06
-1.08877e-05
-1.08165e-05
-5.97547e-06
-1.18624e-05
-2.58286e-06
-1.22098e-05
-3.52702e-07
-1.20588e-05
1.00369e-06
-1.15561e-05
1.71775e-06
-1.08069e-05
1.97387e-06
-9.8863e-06
1.9185e-06
-8.84769e-06
1.6676e-06
-7.72931e-06
1.31289e-06
-6.55955e-06
9.2649e-07
-5.3605e-06
5.64609e-07
-4.15063e-06
2.70125e-07
-2.94637e-06
7.46298e-08
-1.76298e-06
-6.13983e-07
-9.74251e-05
1.90843e-05
0.000129616
-7.16629e-05
6.01448e-06
-5.13499e-05
-2.70701e-06
-3.56053e-05
-8.674e-06
-2.3625e-05
-1.23389e-05
-1.46966e-05
-1.43993e-05
-8.20815e-06
-1.52912e-05
-3.6397e-06
-1.5385e-05
-5.57355e-07
-1.49447e-05
1.39512e-06
-1.41623e-05
2.50587e-06
-1.31696e-05
3.00501e-06
-1.20552e-05
3.0743e-06
-1.08762e-05
2.85638e-06
-9.66837e-06
2.46244e-06
-8.45375e-06
1.97901e-06
-7.24588e-06
1.47294e-06
-6.05349e-06
9.95688e-07
-4.88324e-06
5.85896e-07
-3.74084e-06
2.71869e-07
-2.63234e-06
7.27846e-08
-1.5639e-06
-5.41198e-07
-6.32602e-05
-5.74268e-06
8.80872e-05
-4.38554e-05
-1.33904e-05
-2.88921e-05
-1.76703e-05
-1.76483e-05
-1.99177e-05
-9.40867e-06
-2.05785e-05
-3.5694e-06
-2.02386e-05
3.94113e-07
-1.92547e-05
2.92024e-06
-1.79111e-05
4.36981e-06
-1.63943e-05
5.03325e-06
-1.48257e-05
5.14017e-06
-1.32765e-05
4.86923e-06
-1.17843e-05
4.35791e-06
-1.03648e-05
3.7109e-06
-9.02136e-06
3.00769e-06
-7.75054e-06
2.30813e-06
-6.54632e-06
1.65732e-06
-5.40267e-06
1.08833e-06
-4.31426e-06
6.25243e-07
-3.27775e-06
2.84091e-07
-2.29119e-06
7.45015e-08
-1.35431e-06
-4.66696e-07
-3.11072e-05
-2.37322e-05
4.90968e-05
-1.76183e-05
-2.68793e-05
-7.71174e-06
-2.75768e-05
-7.4529e-07
-2.68842e-05
3.92043e-06
-2.52442e-05
6.8103e-06
-2.31284e-05
8.3727e-06
-2.08171e-05
8.97052e-06
-1.85089e-05
8.8925e-06
-1.63163e-05
8.36209e-06
-1.42953e-05
7.5487e-06
-1.24631e-05
6.57839e-06
-1.0814e-05
5.54357e-06
-9.33002e-06
4.51147e-06
-7.98925e-06
3.53038e-06
-6.76945e-06
2.63521e-06
-5.65115e-06
1.85049e-06
-4.61795e-06
1.19363e-06
-3.65741e-06
6.75732e-07
-2.75984e-06
3.03432e-07
-1.91889e-06
7.87566e-08
-1.12963e-06
-3.8794e-07
-4.72987e-08
-3.48072e-05
1.11222e-05
7.46455e-06
-3.43911e-05
1.22633e-05
-3.23756e-05
1.49508e-05
-2.95716e-05
1.60874e-05
-2.63809e-05
1.6116e-05
-2.3157e-05
1.53953e-05
-2.00964e-05
1.41992e-05
-1.73129e-05
1.27322e-05
-1.48492e-05
1.1141e-05
-1.27041e-05
9.52855e-06
-1.08507e-05
7.96455e-06
-9.24996e-06
6.49513e-06
-7.8606e-06
5.14974e-06
-6.64387e-06
3.94698e-06
-5.56669e-06
2.8978e-06
-4.60196e-06
2.00875e-06
-3.7289e-06
1.28278e-06
-2.93144e-06
7.20992e-07
-2.19805e-06
3.22148e-07
-1.52004e-06
8.34532e-08
-8.90939e-07
-3.04487e-07
2.83978e-05
-3.87829e-05
-2.44221e-05
2.98767e-05
-3.58701e-05
2.96232e-05
-3.21221e-05
2.81812e-05
-2.81296e-05
2.60076e-05
-2.42073e-05
2.34364e-05
-2.05858e-05
2.07114e-05
-1.73714e-05
1.79973e-05
-1.45988e-05
1.53994e-05
-1.22513e-05
1.29794e-05
-1.02842e-05
1.07696e-05
-8.64083e-06
8.78276e-06
-7.26312e-06
7.02011e-06
-6.09794e-06
5.47646e-06
-5.10022e-06
4.1434e-06
-4.23362e-06
3.01176e-06
-3.47033e-06
2.07229e-06
-2.78944e-06
1.31693e-06
-2.17607e-06
7.382e-07
-1.61933e-06
3.29834e-07
-1.11168e-06
8.56937e-08
-6.468e-07
-2.18793e-07
5.10023e-05
-3.58989e-05
-5.38862e-05
4.68504e-05
-3.17182e-05
4.20658e-05
-2.73375e-05
3.70783e-05
-2.31421e-05
3.21982e-05
-1.93272e-05
2.7614e-05
-1.60016e-05
2.34284e-05
-1.31858e-05
1.96813e-05
-1.08517e-05
1.63725e-05
-8.94248e-06
1.34789e-05
-7.3906e-06
1.09665e-05
-6.12843e-06
8.798e-06
-5.09465e-06
6.93743e-06
-4.23737e-06
5.35205e-06
-3.51484e-06
4.0135e-06
-2.89507e-06
2.89758e-06
-2.3544e-06
1.98443e-06
-1.87629e-06
1.25771e-06
-1.44935e-06
7.04713e-07
-1.06633e-06
3.1542e-07
-7.22385e-07
8.23475e-08
-4.13728e-07
-1.36445e-07
6.37207e-05
-2.72952e-05
-7.23245e-05
5.5172e-05
-2.31696e-05
4.71123e-05
-1.92778e-05
3.97828e-05
-1.58125e-05
3.32983e-05
-1.28427e-05
2.76716e-05
-1.03749e-05
2.28542e-05
-8.36846e-06
1.87647e-05
-6.76211e-06
1.53096e-05
-5.48747e-06
1.23976e-05
-4.47858e-06
9.94592e-06
-3.67674e-06
7.8838e-06
-3.03252e-06
6.15255e-06
-2.50613e-06
4.70459e-06
-2.06688e-06
3.50149e-06
-1.69198e-06
2.5125e-06
-1.36541e-06
1.71277e-06
-1.07656e-06
1.08257e-06
-8.19152e-07
6.06243e-07
-5.9e-07
2.72025e-07
-3.88168e-07
7.15077e-08
-2.1321e-07
-6.49378e-08
6.256e-05
-1.54758e-05
-7.43794e-05
5.19936e-05
-1.26032e-05
4.28271e-05
-1.01113e-05
3.50477e-05
-8.03306e-06
2.85521e-05
-6.34713e-06
2.31854e-05
-5.00819e-06
1.87774e-05
-3.96048e-06
1.5164e-05
-3.14872e-06
1.21993e-05
-2.52275e-06
9.76031e-06
-2.03957e-06
7.74729e-06
-1.66371e-06
6.0816e-06
-1.36683e-06
4.7024e-06
-1.12693e-06
3.56295e-06
-9.27435e-07
2.62737e-06
-7.5639e-07
1.86761e-06
-6.05652e-07
1.26133e-06
-4.70289e-07
7.90217e-07
-3.48039e-07
4.39161e-07
-2.38945e-07
1.95852e-07
-1.44859e-07
5.11574e-08
-6.85158e-08
-1.37804e-08
4.56805e-05
-4.69982e-06
-5.64564e-05
3.6697e-05
-3.61972e-06
2.93529e-05
-2.76726e-06
2.34297e-05
-2.10983e-06
1.86929e-05
-1.6103e-06
1.49193e-05
-1.23458e-06
1.19125e-05
-9.53755e-07
9.50853e-06
-7.44704e-07
7.57497e-06
-5.89189e-07
6.00843e-06
-4.7302e-07
4.72995e-06
-3.85234e-07
3.68054e-06
-3.17429e-07
2.81686e-06
-2.63249e-07
2.10738e-06
-2.17956e-07
1.52912e-06
-1.78128e-07
1.06491e-06
-1.41441e-07
7.01172e-07
-1.06553e-07
4.2624e-07
-7.31074e-08
2.29148e-07
-4.18522e-08
9.90509e-08
-1.47627e-08
2.54459e-08
5.08889e-09
1.16655e-08
1.58919e-05
-2.0574e-05
1.22838e-05
9.52323e-06
7.41629e-06
5.80592e-06
4.56902e-06
3.61126e-06
2.86134e-06
2.26608e-06
1.78644e-06
1.39428e-06
1.0698e-06
7.99542e-07
5.74744e-07
3.90058e-07
2.42448e-07
1.30217e-07
5.20297e-08
5.80976e-09
-1.24772e-08
-9.93066e-09
0.000298438
2.5944e-05
7.99016e-07
-0.000325181
0.000273179
2.44187e-05
8.40048e-07
0.000249313
2.29897e-05
8.75829e-07
0.000226761
2.16463e-05
9.06129e-07
0.000205446
2.03841e-05
9.31107e-07
0.000185295
1.91995e-05
9.51009e-07
0.000166241
1.80881e-05
9.66105e-07
0.000148219
1.70455e-05
9.76688e-07
0.000131168
1.60674e-05
9.83062e-07
0.000115034
1.51492e-05
9.85501e-07
9.97639e-05
1.42857e-05
9.84129e-07
8.53162e-05
1.3469e-05
9.78645e-07
7.16637e-05
1.26846e-05
9.67879e-07
5.88071e-05
1.19073e-05
9.49367e-07
4.67901e-05
1.10977e-05
9.1924e-07
3.57124e-05
1.0205e-05
8.72683e-07
2.57333e-05
9.17417e-06
8.049e-07
1.70628e-05
7.95823e-06
7.12317e-07
9.93879e-06
6.53041e-06
5.93563e-07
4.5969e-06
4.89189e-06
4.49998e-07
1.23755e-06
3.07376e-06
2.85596e-07
1.13141e-06
1.06138e-07
0.000298036
5.26097e-05
-0.000324701
0.000272847
4.96078e-05
0.000249041
4.67951e-05
0.00022654
4.4147e-05
0.000205269
4.16554e-05
0.000185156
3.9313e-05
0.000166132
3.71115e-05
0.000148135
3.50422e-05
0.000131106
3.30969e-05
0.000114988
3.12671e-05
9.97314e-05
2.95424e-05
8.52937e-05
2.79067e-05
7.16483e-05
2.633e-05
5.87965e-05
2.47591e-05
4.67823e-05
2.31118e-05
3.57063e-05
2.12811e-05
2.57284e-05
1.91521e-05
1.70589e-05
1.66277e-05
9.93622e-06
1.36531e-05
4.59567e-06
1.02324e-05
1.23728e-06
6.43215e-06
2.36869e-06
0.000296798
7.90723e-05
-0.000323261
0.000271785
7.46215e-05
0.000248129
7.04501e-05
0.000225759
6.65173e-05
0.000204602
6.28127e-05
0.000184588
5.93268e-05
0.000165652
5.60473e-05
0.000147732
5.29623e-05
0.000130769
5.00597e-05
0.000114709
4.73271e-05
9.95026e-05
4.47493e-05
8.51073e-05
4.2302e-05
7.14975e-05
3.99397e-05
5.86753e-05
3.75814e-05
4.66859e-05
3.51013e-05
3.56305e-05
3.23365e-05
2.56705e-05
2.91122e-05
1.7017e-05
2.52811e-05
9.90897e-06
2.07611e-05
4.58121e-06
1.55602e-05
1.23252e-06
9.78083e-06
3.60121e-06
0.000295072
0.000105224
-0.000321224
0.000270329
9.9365e-05
0.000246903
9.38755e-05
0.00022473
8.8691e-05
0.000203741
8.38018e-05
0.000183871
7.91964e-05
0.000165058
7.48598e-05
0.000147244
7.07769e-05
0.000130371
6.69326e-05
0.000114387
6.33109e-05
9.92442e-05
5.98921e-05
8.4902e-05
5.66442e-05
7.13356e-05
5.35062e-05
5.8548e-05
5.03689e-05
4.6586e-05
4.70633e-05
3.55525e-05
4.337e-05
2.56105e-05
3.90541e-05
1.69733e-05
3.39184e-05
9.88017e-06
2.78542e-05
4.56594e-06
2.08744e-05
1.22763e-06
1.31191e-05
4.82885e-06
0.000293038
0.000130973
-0.000318787
0.000268642
0.000123761
0.000245511
0.000117007
0.000223587
0.000110615
0.00020281
0.000104578
0.000183121
9.88857e-05
0.000164461
9.35195e-05
0.000146775
8.84626e-05
0.00013001
8.36974e-05
0.000114116
7.92052e-05
9.90462e-05
7.4962e-05
8.47621e-05
7.09284e-05
7.12401e-05
6.70282e-05
5.84847e-05
6.31243e-05
4.6544e-05
5.9004e-05
3.55234e-05
5.43906e-05
2.55886e-05
4.89889e-05
1.69558e-05
4.25512e-05
9.86694e-06
3.49431e-05
4.55762e-06
2.61838e-05
1.22436e-06
1.64524e-05
6.05321e-06
0.000291095
0.000156261
-0.000316382
0.000267093
0.000147763
0.00024429
0.00013981
0.000222642
0.000132263
0.000202095
0.000125125
0.000182598
0.000118383
0.000164096
0.000112021
0.00014654
0.000106019
0.000129879
0.000100358
0.000114067
9.50178e-05
9.90585e-05
8.99701e-05
8.48183e-05
8.51686e-05
7.13237e-05
8.05227e-05
5.85804e-05
7.58676e-05
4.66382e-05
7.09462e-05
3.5605e-05
6.54238e-05
2.56509e-05
5.8943e-05
1.69964e-05
5.12057e-05
9.88838e-06
4.20511e-05
4.56544e-06
3.15067e-05
1.22522e-06
1.97926e-05
7.27843e-06
0.000289456
0.000181046
-0.00031424
0.000265877
0.000171342
0.000243421
0.000162266
0.000222058
0.000153626
0.000201745
0.000145438
0.000182436
0.000137692
0.000164086
0.000130371
0.000146648
0.000123457
0.000130078
0.000116929
0.000114331
0.000110765
9.93657e-05
0.000104935
8.5148e-05
9.93863e-05
7.16564e-05
9.40143e-05
5.88976e-05
8.86265e-05
4.69226e-05
8.29211e-05
3.58426e-05
7.65038e-05
2.58325e-05
6.89531e-05
1.71205e-05
5.99177e-05
9.9604e-06
4.92112e-05
4.59749e-06
3.68696e-05
1.23281e-06
2.31573e-05
8.51124e-06
0.0002883
0.0002053
-0.000312555
0.000265162
0.00019448
0.000243061
0.000184367
0.000221986
0.000174701
0.000201901
0.000165522
0.000182771
0.000156822
0.000164556
0.000148586
0.000147216
0.000140796
0.000130712
0.000133434
0.000115002
0.000126475
0.000100049
0.000119888
8.58205e-05
0.000113615
7.22961e-05
0.000107539
5.9483e-05
0.00010144
4.74338e-05
9.49703e-05
3.62628e-05
8.76748e-05
2.61519e-05
7.9064e-05
1.73385e-05
6.87311e-05
1.00879e-05
5.64619e-05
4.65465e-06
4.23029e-05
1.24653e-06
2.65654e-05
9.75777e-06
0.00028776
0.000229007
-0.000311467
0.000265063
0.000217177
0.000243308
0.000206122
0.000222502
0.000195507
0.000202623
0.000185401
0.000183647
0.000175799
0.000165541
0.000166691
0.000148273
0.000158064
0.000131807
0.0001499
0.000116106
0.000142175
0.000101136
0.000134858
8.68646e-05
0.000127886
7.32732e-05
0.00012113
6.03682e-05
0.000114345
4.82026e-05
0.000107136
3.68942e-05
9.89832e-05
2.66331e-05
8.93251e-05
1.76697e-05
7.76944e-05
1.02843e-05
6.38473e-05
4.74529e-06
4.78419e-05
1.26999e-06
3.00407e-05
1.10278e-05
0.000287871
0.000252152
-0.000311017
0.000265622
0.000239427
0.000244216
0.000227528
0.000223674
0.000216049
0.000203988
0.000205087
0.000185142
0.000194645
0.000167115
0.000184718
0.000149882
0.000175298
0.000133413
0.000166369
0.000117677
0.000157911
0.000102644
0.000149892
8.82835e-05
0.000142247
7.45769e-05
0.000134837
6.15307e-05
0.000127391
4.91983e-05
0.000119468
3.77022e-05
0.000110479
2.72419e-05
9.97853e-05
1.80836e-05
8.68528e-05
1.05255e-05
7.14054e-05
4.85325e-06
5.35141e-05
1.29587e-06
3.35981e-05
1.23236e-05
0.000288624
0.000274727
-0.000311198
0.000266801
0.00026125
0.000245711
0.000248618
0.000225401
0.000236359
0.000205877
0.00022461
0.000187136
0.000213385
0.000169166
0.000202689
0.000151946
0.000192518
0.000135453
0.000182862
0.000119661
0.000173703
0.000104542
0.000165011
9.00668e-05
0.000156721
7.62177e-05
0.000148686
6.29985e-05
0.00014061
5.04617e-05
0.000132005
3.87326e-05
0.000122208
2.80227e-05
0.000110495
1.86176e-05
9.62579e-05
1.08401e-05
7.91828e-05
4.99774e-06
5.93565e-05
1.33361e-06
3.72622e-05
1.36572e-05
0.000290039
0.000296698
-0.000312011
0.000268669
0.00028262
0.00024791
0.000269377
0.000227821
0.000256448
0.000208429
0.000244002
0.000189749
0.000232065
0.000171782
0.000220656
0.000154519
0.000209781
0.000137943
0.000199437
0.000122035
0.000189611
0.00010677
0.000180277
9.21218e-05
0.000171369
7.80722e-05
0.000162735
6.46243e-05
0.000154058
5.18309e-05
0.000144799
3.98235e-05
0.000134216
2.88274e-05
0.000121491
1.91503e-05
0.000105935
1.11398e-05
8.71933e-05
5.12485e-06
6.53715e-05
1.36083e-06
4.10263e-05
1.50181e-05
0.000291924
0.000318075
-0.000313301
0.000270935
0.000303609
0.000250464
0.000289848
0.000230578
0.000276334
0.000211313
0.000263267
0.000192695
0.000250684
0.000174733
0.000238618
0.000157427
0.000227087
0.000140767
0.000216096
0.000124739
0.000205639
0.000109323
0.000195693
9.44949e-05
0.000186197
8.02346e-05
0.000176996
6.65422e-05
0.00016775
5.34675e-05
0.000157873
4.11445e-05
0.000146539
2.98132e-05
0.000132823
1.98084e-05
0.00011594
1.1513e-05
9.54887e-05
5.28684e-06
7.15976e-05
1.39995e-06
4.49131e-05
1.6418e-05
0.000294175
0.000338642
-0.000314742
0.000273668
0.000324117
0.000253503
0.000310013
0.000233786
0.000296051
0.000214593
0.00028246
0.000195971
0.000269306
0.000177946
0.000256643
0.00016053
0.000244504
0.000143722
0.000232905
0.000127513
0.000221848
0.000111888
0.000211318
9.68252e-05
0.00020126
8.23047e-05
0.000191516
6.83245e-05
0.00018173
5.49335e-05
0.000171264
4.22723e-05
0.0001592
3.06003e-05
0.000144495
2.02843e-05
0.000126256
1.17421e-05
0.000104031
5.35742e-06
7.79823e-05
1.40246e-06
4.88681e-05
1.78205e-05
0.000296727
0.000358457
-0.000316542
0.000276565
0.000344279
0.000256709
0.000329869
0.000237199
0.000315561
0.000218125
0.000301535
0.000199543
0.000287887
0.000181492
0.000274694
0.000163991
0.000262004
0.00014705
0.000249846
0.000130665
0.000238232
0.000114827
0.000227157
9.95146e-05
0.000216572
8.47064e-05
0.000206324
7.03973e-05
0.00019604
5.66365e-05
0.000185025
4.35746e-05
0.000172262
3.14947e-05
0.000156575
2.08e-05
0.00013695
1.1951e-05
0.00011288
5.36942e-06
8.45639e-05
1.34988e-06
5.28877e-05
1.91703e-05
1.29925e-05
0.000360949
-1.54844e-05
1.0432e-05
0.000346839
7.97671e-06
0.000332324
5.53784e-06
0.000318
3.12645e-06
0.000303946
7.38472e-07
0.000290275
-1.62445e-06
0.000277057
-3.95694e-06
0.000264337
-6.25156e-06
0.000252141
-8.49649e-06
0.000240477
-1.06661e-05
0.000229326
-1.26977e-05
0.000218604
-1.44586e-05
0.000208085
-1.57237e-05
0.000197305
-1.61985e-05
0.0001855
-1.56048e-05
0.000171668
-1.38086e-05
0.000154778
-1.09315e-05
0.000134073
-7.39303e-06
0.000109341
-3.86141e-06
8.10323e-05
-1.1369e-06
5.01631e-05
1.80334e-05
7.88198e-06
0.000363752
-1.06857e-05
5.20784e-06
0.000349513
2.56934e-06
0.000334963
-1.51446e-08
0.000320585
-2.52869e-06
0.000306459
-4.97059e-06
0.000292717
-7.3352e-06
0.000279422
-9.61704e-06
0.000266619
-1.18086e-05
0.000254332
-1.38954e-05
0.000242564
-1.58417e-05
0.000231272
-1.75649e-05
0.000220327
-1.89058e-05
0.000209426
-1.96224e-05
0.000198021
-1.94305e-05
0.000185308
-1.80999e-05
0.000170338
-1.55716e-05
0.00015225
-1.20474e-05
0.000130549
-8.0063e-06
0.0001053
-4.14106e-06
7.7167e-05
-1.23062e-06
4.72527e-05
1.68028e-05
2.72299e-06
0.000366779
-5.74963e-06
-6.71722e-08
0.000352303
-2.81273e-06
0.000337708
-5.45371e-06
0.000323225
-7.98744e-06
0.000308993
-1.04101e-05
0.000295139
-1.27164e-05
0.000281728
-1.49019e-05
0.000268804
-1.69582e-05
0.000256389
-1.88654e-05
0.000244471
-2.05735e-05
0.00023298
-2.19746e-05
0.000221728
-2.28831e-05
0.000210335
-2.30429e-05
0.000198181
-2.21877e-05
0.000184453
-2.01404e-05
0.00016829
-1.69215e-05
0.000149031
-1.2813e-05
0.000126441
-8.35229e-06
0.00010084
-4.2463e-06
7.3061e-05
-1.24179e-06
4.42482e-05
1.5561e-05
-2.43374e-06
0.000369926
-7.13423e-07
-5.32814e-06
0.000355198
-8.13273e-06
0.000340513
-1.07907e-05
0.000325883
-1.33081e-05
0.000311511
-1.56786e-05
0.00029751
-1.78988e-05
0.000283948
-1.99647e-05
0.00027087
-2.18656e-05
0.000258289
-2.35728e-05
0.000246178
-2.50167e-05
0.000234424
-2.60629e-05
0.000222775
-2.65e-05
0.000210772
-2.60684e-05
0.000197749
-2.45305e-05
0.000182915
-2.17757e-05
0.000165536
-1.79078e-05
0.000145163
-1.32893e-05
0.000121822
-8.50136e-06
9.60518e-05
-4.24735e-06
6.8807e-05
-1.22051e-06
4.12214e-05
1.43405e-05
-7.69264e-06
0.000373134
4.4844e-06
-1.06501e-05
0.000358155
-1.34635e-05
0.000343326
-1.60974e-05
0.000328517
-1.85604e-05
0.000313974
-2.08468e-05
0.000299796
-2.29549e-05
0.000286057
-2.48799e-05
0.000272795
-2.66066e-05
0.000260016
-2.80922e-05
0.000247664
-2.92444e-05
0.000235577
-2.98994e-05
0.00022343
-2.98279e-05
0.0002107
-2.87742e-05
0.000196696
-2.65455e-05
0.000180686
-2.31015e-05
0.000162092
-1.86357e-05
0.000140698
-1.35768e-05
0.000116763
-8.53821e-06
9.10132e-05
-4.19868e-06
6.44675e-05
-1.18848e-06
3.82112e-05
1.3152e-05
-1.31906e-05
0.000376363
9.96168e-06
-1.6167e-05
0.000361132
-1.89483e-05
0.000346107
-2.15224e-05
0.000331091
-2.38975e-05
0.000316349
-2.60706e-05
0.000301969
-2.80411e-05
0.000288027
-2.98025e-05
0.000274556
-3.13304e-05
0.000261544
-3.2565e-05
0.000248898
-3.33857e-05
0.000236397
-3.36033e-05
0.000223647
-3.29733e-05
0.00021007
-3.12616e-05
0.000194984
-2.83243e-05
0.000177749
-2.42076e-05
0.000157975
-1.91819e-05
0.000135672
-1.37409e-05
0.000111322
-8.50555e-06
8.57779e-05
-4.12341e-06
6.00854e-05
-1.15103e-06
3.52388e-05
1.2001e-05
-1.9078e-05
0.000379569
1.5872e-05
-2.2023e-05
0.000364077
-2.4731e-05
0.000348816
-2.7208e-05
0.000333568
-2.94616e-05
0.000318602
-3.14918e-05
0.000304
-3.32983e-05
0.000289834
-3.48693e-05
0.000276128
-3.61686e-05
0.000262843
-3.71118e-05
0.000249841
-3.75511e-05
0.000236837
-3.72698e-05
0.000223366
-3.6024e-05
0.000208824
-3.3605e-05
0.000192565
-2.99412e-05
0.000174085
-2.51553e-05
0.000153189
-1.96057e-05
0.000130122
-1.38225e-05
0.000105539
-8.43368e-06
8.03891e-05
-4.03404e-06
5.56857e-05
-1.11232e-06
3.23171e-05
1.08887e-05
-2.55658e-05
0.000382712
2.2423e-05
-2.84319e-05
0.000366943
-3.10261e-05
0.00035141
-3.33673e-05
0.000335909
-3.54631e-05
0.000320698
-3.73167e-05
0.000305853
-3.89259e-05
0.000291443
-4.02711e-05
0.000277473
-4.1297e-05
0.000263869
-4.18933e-05
0.000250438
-4.1879e-05
0.000236822
-4.10217e-05
0.000222509
-3.90806e-05
0.000206883
-3.5898e-05
0.000189383
-3.14696e-05
0.000169657
-2.60157e-05
0.000147735
-1.99553e-05
0.000124062
-1.38631e-05
9.94466e-05
-8.34208e-06
7.48681e-05
-3.94203e-06
5.12857e-05
-1.07408e-06
2.94491e-05
9.81461e-06
-3.28496e-05
0.000385743
2.98185e-05
-3.55844e-05
0.000369678
-3.80198e-05
0.000353845
-4.01821e-05
0.000338072
-4.20803e-05
0.000322596
-4.37189e-05
0.000307492
-4.50912e-05
0.000292815
-4.6164e-05
0.000278545
-4.6859e-05
0.000264564
-4.70324e-05