/*--------------------------------*- C++ -*----------------------------------*\
| =========                 |                                                 |
| \\      /  F ield         | OpenFOAM Extend Project: Open source CFD        |
|  \\    /   O peration     | Version:  1.6-ext                               |
|   \\  /    A nd           | Web:      www.extend-project.de                 |
|    \\/     M anipulation  |                                                 |
\*---------------------------------------------------------------------------*/
FoamFile
{
    version     2.0;
    format      ascii;
    class       volVectorField;
    location    "0.35";
    object      U;
}
// * * * * * * * * * * * * * * * * * * * * * * * * * * * * * * * * * * * * * //

dimensions      [0 1 -1 0 0 0 0];

internalField   nonuniform List<vector> 
20940
(
(1.85542 0.384482 0)
(1.89607 0.40463 -1.25156e-21)
(1.93465 0.424114 1.38902e-21)
(1.97032 0.44189 -3.18489e-25)
(2.00283 0.458198 4.74533e-21)
(2.03064 0.471962 -1.76658e-20)
(2.05089 0.482138 -9.25328e-21)
(2.05889 0.486845 9.17974e-21)
(2.04829 0.483891 0)
(2.0119 0.471021 0)
(1.94321 0.446609 0)
(1.83823 0.41027 1.11146e-20)
(1.69696 0.36326 -1.19096e-20)
(1.52387 0.308415 1.42736e-20)
(1.32723 0.249656 -7.25444e-21)
(1.11751 0.191231 -2.10158e-23)
(0.905425 0.137001 -9.27854e-21)
(0.700398 0.0899621 9.694e-21)
(0.50957 0.052028 -5.07394e-21)
(0.337534 0.0240638 0)
(0.186526 0.00662739 0)
(0.0568904 0.00047006 0)
(1.88243 0.359878 2.99467e-21)
(1.92187 0.378882 0)
(1.95893 0.396567 -5.21231e-21)
(1.99254 0.412589 5.76654e-21)
(2.02195 0.426656 -1.03466e-20)
(2.04479 0.437624 4.57353e-21)
(2.05718 0.444155 7.87467e-21)
(2.05347 0.444268 1.0338e-20)
(2.02686 0.435909 0)
(1.97062 0.417334 0)
(1.87989 0.387774 0)
(1.75325 0.347872 2.16955e-20)
(1.59365 0.299784 1.35022e-21)
(1.40812 0.246849 -1.19664e-20)
(1.20643 0.192938 -1.45953e-20)
(0.999282 0.14175 -8.26407e-21)
(0.796577 0.0962835 0)
(0.606243 0.0585883 -9.09958e-21)
(0.433775 0.029737 1.4679e-20)
(0.282287 0.00995549 -1.01142e-20)
(0.152929 -0.0006306 -1.05599e-20)
(0.0454108 -0.00151988 0)
(1.90716 0.335213 -2.98781e-21)
(1.94507 0.353149 7.21345e-21)
(1.98011 0.369154 1.18028e-20)
(2.01086 0.383455 -2.83842e-20)
(2.03585 0.395211 -2.20034e-20)
(2.05171 0.403205 5.03816e-20)
(2.05353 0.405853 0)
(2.03495 0.401227 -1.14812e-20)
(1.98924 0.387605 2.41183e-20)
(1.91091 0.36395 0)
(1.7974 0.330431 0)
(1.65027 0.288623 0)
(1.47528 0.241318 0)
(1.28141 0.191989 1.31667e-20)
(1.07915 0.144134 1.4328e-20)
(0.878657 0.100705 -3.04782e-20)
(0.688469 0.0638052 0)
(0.514822 0.0346351 -2.67029e-20)
(0.361581 0.0135868 8.05562e-21)
(0.230541 0.000416026 9.52155e-21)
(0.121943 -0.00505985 4.14181e-20)
(0.0350125 -0.00254118 0)
(1.93075 0.310844 1.09388e-20)
(1.9667 0.327801 9.67182e-21)
(1.99895 0.342188 -1.21259e-20)
(2.02561 0.354712 -2.36406e-21)
(2.04425 0.36397 1.9456e-20)
(2.0504 0.368703 -1.33592e-20)
(2.03824 0.367194 3.64887e-20)
(2.00118 0.357756 -1.05207e-19)
(1.93333 0.339219 7.36106e-20)
(1.83127 0.311395 2.96575e-20)
(1.69533 0.275382 0)
(1.53012 0.233476 0)
(1.34375 0.188761 0)
(1.14634 0.144494 0)
(0.948161 0.10354 0)
(0.75817 0.0680147 0)
(0.583193 0.0391772 0)
(0.427706 0.0175207 -1.6369e-20)
(0.294067 0.00292636 5.34545e-20)
(0.18295 -0.00516599 -5.60285e-20)
(0.0938892 -0.00713108 -8.97813e-21)
(0.0257685 -0.00279287 0)
(1.95291 0.286911 -1.08924e-20)
(1.9863 0.302906 -1.67847e-20)
(2.0147 0.315661 1.20729e-20)
(2.03555 0.326251 -3.61679e-20)
(2.04523 0.332744 -2.59765e-20)
(2.03827 0.333915 -3.65143e-21)
(2.00834 0.328083 3.28457e-20)
(1.94934 0.314026 -4.41567e-20)
(1.85715 0.291305 2.29408e-20)
(1.73113 0.260628 -9.00567e-20)
(1.5748 0.223864 3.22748e-20)
(1.39545 0.183723 -3.73766e-20)
(1.20275 0.143211 4.16379e-20)
(1.00693 0.105071 7.06236e-20)
(0.817272 0.0714007 -7.56757e-20)
(0.641043 0.0434974 -5.61852e-20)
(0.483216 0.0219038 1.19345e-19)
(0.34661 0.00657658 -1.34918e-20)
(0.232297 -0.00294726 -6.67737e-20)
(0.140073 -0.00740753 -1.81812e-20)
(0.0689742 -0.00727566 1.89961e-20)
(0.0176881 -0.00243871 0)
(1.97325 0.263468 0)
(2.00316 0.278492 2.24583e-20)
(2.02614 0.289523 3.44472e-21)
(2.03875 0.297932 -5.82529e-20)
(2.03616 0.301342 -3.03394e-20)
(2.01219 0.29871 2.51282e-20)
(1.9607 0.288606 -1.65577e-21)
(1.87704 0.270481 4.00948e-20)
(1.75975 0.244718 0)
(1.61141 0.212825 0)
(1.43851 0.177168 3.29907e-20)
(1.25025 0.1405 -3.71411e-20)
(1.05679 0.105424 8.09968e-20)
(0.867583 0.073994 -1.10812e-19)
(0.690265 0.0475226 2.49504e-20)
(0.530216 0.0265955 0)
(0.390624 0.0112082 -5.69415e-20)
(0.272878 0.000954007 6.12182e-20)
(0.177039 -0.00482813 0)
(0.102277 -0.00695076 0)
(0.0473168 -0.00591378 0)
(0.0107755 -0.00163022 5.86433e-20)
(1.99137 0.240457 -1.98593e-20)
(2.01639 0.254374 -2.28493e-20)
(2.03165 0.26347 -2.81688e-20)
(2.03278 0.269383 7.48619e-20)
(2.01394 0.269437 4.63393e-20)
(1.9689 0.262964 2.86823e-20)
(1.89267 0.248998 9.2278e-23)
(1.78307 0.227796 -4.27685e-20)
(1.64186 0.200516 9.41963e-20)
(1.47482 0.169228 0)
(1.29068 0.136439 0)
(1.09947 0.104603 0)
(0.910782 0.0757108 3.94756e-20)
(0.732544 0.0510739 0)
(0.570468 0.0313097 9.30661e-20)
(0.42805 0.0164533 -9.84365e-20)
(0.306927 0.00612714 0)
(0.207358 -0.000286749 2.91985e-20)
(0.12868 -0.00353371 2.93146e-20)
(0.0696669 -0.00442349 6.36965e-20)
(0.0288906 -0.00344092 -6.56502e-20)
(0.00499004 -0.000504513 0)
(2.00605 0.217797 1.81642e-21)
(2.02409 0.230441 2.26661e-20)
(2.02856 0.237351 0)
(2.01428 0.240467 -3.79791e-20)
(1.97497 0.237035 0)
(1.90532 0.22698 0)
(1.80259 0.209965 -3.46325e-20)
(1.6678 0.187053 0)
(1.50606 0.159981 -9.35144e-20)
(1.3257 0.131047 5.24343e-20)
(1.13659 0.102548 0)
(0.948433 0.0764011 0)
(0.769405 0.0539042 0)
(0.605504 0.0356954 0)
(0.460485 0.0218453 8.81453e-20)
(0.336188 0.0120114 -9.32771e-20)
(0.233015 0.00559746 5.25601e-20)
(0.150415 0.00189168 -1.06731e-19)
(0.0872624 0.000142907 -1.4397e-19)
(0.042128 -0.000409545 1.18958e-19)
(0.0135522 -0.000212112 3.0515e-20)
(0.0002567 0.000819971 5.2751e-20)
(2.01618 0.195178 0)
(2.02422 0.206245 0)
(2.01397 0.210673 0)
(1.97988 0.210829 -4.20009e-20)
(1.91618 0.204103 9.71402e-20)
(1.81968 0.191172 2.37934e-21)
(1.69072 0.172363 -7.05585e-20)
(1.53382 0.149386 7.71909e-20)
(1.35689 0.124245 4.58706e-20)
(1.16968 0.0991207 -5.20153e-20)
(0.982006 0.0758459 0)
(0.802255 0.0557006 6.23937e-20)
(0.636689 0.039338 0)
(0.489292 0.0268617 7.71277e-20)
(0.362069 0.0179656 -8.20531e-20)
(0.255533 0.0120843 0)
(0.169198 0.00852211 9.59517e-20)
(0.101991 0.00655264 2.49558e-20)
(0.0525457 0.00546494 -2.64055e-20)
(0.0193743 0.00456956 0)
(0.00107111 0.00346676 -3.04683e-20)
(-0.00352287 0.00224547 0)
(2.01885 0.172591 0)
(2.01322 0.181884 8.28395e-20)
(1.98391 0.183707 -6.64707e-20)
(1.92597 0.180991 3.88006e-20)
(1.8353 0.1715 0)
(1.71182 0.156739 1.98831e-21)
(1.5594 0.13759 -2.01648e-19)
(1.38561 0.116136 7.78816e-20)
(1.20012 0.0943157 -1.29596e-19)
(1.01281 0.0739273 1.00136e-19)
(0.832332 0.0562189 -1.64071e-19)
(0.665196 0.0418629 -1.8325e-21)
(0.515599 0.030996 6.73581e-20)
(0.385691 0.0233512 -7.20282e-20)
(0.276069 0.0183987 -3.86995e-20)
(0.186282 0.0154691 0)
(0.115271 0.0138461 -4.66017e-20)
(0.061683 0.012833 7.29423e-20)
(0.0240734 0.0117783 -5.06246e-20)
(0.000999678 0.0100672 0)
(-0.00883728 0.00734363 0)
(-0.00645971 0.00369568 0)
(2.01254 0.149407 0)
(1.98854 0.156753 -5.39239e-20)
(1.93584 0.156031 -3.57729e-20)
(1.85092 0.15094 3.95838e-20)
(1.73258 0.139694 5.05279e-20)
(1.58438 0.124506 -1.12825e-19)
(1.41344 0.106574 -1.14726e-21)
(1.22937 0.0880284 1.49703e-19)
(1.0422 0.0704816 -8.52792e-20)
(0.860855 0.0552182 1.40616e-19)
(0.692107 0.0429211 0)
(0.540376 0.0337741 0)
(0.407953 0.0275577 -6.43431e-20)
(0.295495 0.0237874 1.03015e-19)
(0.202562 0.02183 1.14286e-19)
(0.128075 0.0209921 1.26901e-21)
(0.070659 0.0205816 -1.2898e-19)
(0.0288596 0.0199499 4.54365e-20)
(0.00126577 0.0185052 -1.23593e-19)
(-0.0134565 0.0156987 1.02487e-19)
(-0.0164718 0.0112075 -2.63845e-20)
(-0.00866253 0.00510875 0)
(1.99203 0.12645 0)
(1.946 0.132049 6.05295e-20)
(1.86666 0.129212 -3.07638e-20)
(1.75384 0.122536 -1.24056e-19)
(1.60977 0.110655 0)
(1.44159 0.0963247 5.78668e-20)
(1.25869 0.0807852 -1.27565e-19)
(1.0714 0.0659508 -7.25281e-20)
(0.88891 0.0529768 1.24698e-19)
(0.718363 0.042632 -2.29364e-19)
(0.564421 0.0351394 1.5032e-19)
(0.429529 0.0303429 0)
(0.314403 0.0278139 0)
(0.218595 0.0269682 -3.38041e-20)
(0.14098 0.0271489 -7.2593e-20)
(0.0801234 0.0276848 7.70416e-20)
(0.0345228 0.0279267 -4.13389e-20)
(0.00274308 0.0272748 -6.58206e-22)
(-0.0165255 0.0251862 0)
(-0.0244759 0.0211618 0)
(-0.0221293 0.014896 -7.71725e-20)
(-0.0102349 0.00643953 -3.70309e-22)
(1.95861 0.102294 0)
(1.88558 0.106649 6.08202e-20)
(1.77796 0.102566 -7.21576e-20)
(1.63825 0.0954819 8.26891e-20)
(1.47246 0.0843959 -4.93846e-20)
(1.2904 0.0722141 1.09909e-19)
(1.10243 0.0600287 6.33317e-20)
(0.918294 0.0493594 1.0909e-21)
(0.745469 0.0409066 0)
(0.588958 0.0350081 0)
(0.451385 0.0315701 -1.4777e-19)
(0.333538 0.0302403 1.06232e-19)
(0.234954 0.0305002 1.17027e-19)
(0.154445 0.03175 -3.04051e-22)
(0.0904876 0.0333617 0)
(0.0414956 0.0347117 0)
(0.00596586 0.0352013 0)
(-0.0174473 0.0342745 1.28449e-19)
(-0.0299208 0.0314251 -8.93555e-20)
(-0.0324989 0.0261868 0)
(-0.026066 0.0182551 -9.91367e-20)
(-0.0112574 0.00763827 8.4688e-20)
(1.90357 0.0805063 0)
(1.80469 0.0842665 3.37488e-21)
(1.66924 0.0797382 9.16748e-22)
(1.50663 0.0732628 0)
(1.32518 0.063925 -9.57256e-20)
(1.13637 0.0545342 -5.42076e-20)
(0.950091 0.0459632 1.22659e-21)
(0.774519 0.0392608 1.25616e-21)
(0.61498 0.0347525 7.75939e-20)
(0.474362 0.0324577 -9.63602e-23)
(0.353555 0.0320966 -9.48332e-20)
(0.252104 0.0332327 2.06512e-19)
(0.168759 0.0353406 -3.38614e-19)
(0.101906 0.0378592 1.21541e-19)
(0.0498521 0.0402181 -6.72352e-20)
(0.0109986 0.0418539 3.57727e-20)
(-0.016078 0.0422193 0)
(-0.032601 0.0407955 -8.19088e-20)
(-0.039609 0.0371015 1.28468e-19)
(-0.0380077 0.030689 9.10947e-20)
(-0.0285645 0.0212387 -7.12633e-20)
(-0.011824 0.00869594 0)
(1.83989 0.0557513 3.9037e-21)
(1.70983 0.0608853 0)
(1.54971 0.0581011 0)
(1.36918 0.0533375 0)
(1.17858 0.0470903 1.4193e-19)
(0.989431 0.0412819 -5.28087e-20)
(0.810111 0.0366827 1.18928e-19)
(0.646568 0.0338249 0)
(0.501951 0.0327736 -1.48366e-19)
(0.377335 0.0333631 7.98799e-20)
(0.272321 0.0352566 -4.48834e-20)
(0.185636 0.0380336 -4.92403e-20)
(0.115592 0.0412308 5.48611e-20)
(0.0603894 0.0443657 5.84558e-20)
(0.0183139 0.0469463 -6.46279e-20)
(-0.0121661 0.048476 3.48077e-20)
(-0.0323631 0.0484589 -3.7545e-20)
(-0.0433756 0.0464099 -6.80378e-22)
(-0.046119 0.0418678 -4.27103e-20)
(-0.0413828 0.034397 8.70844e-20)
(-0.0298452 0.023661 -2.32091e-20)
(-0.011999 0.00953761 -6.00333e-20)
(1.70735 0.0407067 4.52398e-21)
(1.54121 0.0426106 -7.18175e-20)
(1.35611 0.042135 4.00276e-20)
(1.16416 0.0399621 9.03811e-22)
(0.974758 0.0376979 -4.96515e-20)
(0.796725 0.0359681 5.61579e-20)
(0.635102 0.0353064 0)
(0.4928 0.0358214 0)
(0.370546 0.037439 1.5441e-19)
(0.267739 0.0399509 -1.6911e-19)
(0.182949 0.0430674 4.68163e-20)
(0.114373 0.0464562 -5.12669e-20)
(0.0601242 0.0497572 1.10179e-19)
(0.0184165 0.0525895 -6.06354e-20)
(-0.0123442 0.0545541 1.2959e-19)
(-0.0335228 0.0552361 -1.39024e-19)
(-0.0462585 0.054211 -3.80963e-20)
(-0.0514916 0.0510567 7.82395e-20)
(-0.050002 0.0453695 -1.23886e-19)
(-0.0424642 0.0367754 8.62939e-20)
(-0.0294735 0.0249816 0)
(-0.0114956 0.00985994 -1.97102e-20)
(1.4632 0.0280396 -1.327e-19)
(1.27261 0.0310429 1.10694e-19)
(1.08207 0.034379 -4.16433e-20)
(0.898503 0.0355637 9.35328e-20)
(0.728962 0.0373253 5.18168e-20)
(0.577385 0.0389428 -1.14923e-19)
(0.445331 0.0411133 6.32485e-20)
(0.332832 0.0437009 0)
(0.238784 0.0466776 0)
(0.16153 0.0498867 -4.27741e-20)
(0.099181 0.0531319 -9.46651e-20)
(0.0498626 0.0561787 5.08839e-20)
(0.0118381 0.0587632 1.12225e-19)
(-0.0164238 0.0605956 -1.19374e-19)
(-0.0362314 0.0613625 -1.29862e-19)
(-0.0486779 0.0607324 0)
(-0.0546667 0.0583633 -3.65945e-20)
(-0.0549447 0.0539173 -7.81431e-20)
(-0.0501391 0.0470759 1.63506e-19)
(-0.0407987 0.0375545 -8.5493e-20)
(-0.0274191 0.0251346 2.16865e-20)
(-0.0104145 0.00970884 1.32896e-19)
(1.18384 0.026878 1.40755e-19)
(0.993965 0.0321699 3.92518e-20)
(0.81973 0.0390832 4.38673e-20)
(0.659603 0.0429026 -9.53109e-20)
(0.518965 0.047143 -1.5921e-19)
(0.397391 0.0504717 1.17283e-19)
(0.294611 0.0537479 -6.52963e-20)
(0.2091 0.056803 1.43472e-19)
(0.139119 0.0597056 -7.85582e-20)
(0.082782 0.0623828 1.13823e-22)
(0.0382852 0.0647363 -4.74262e-20)
(0.00397966 0.0666213 5.19371e-20)
(-0.0215845 0.0678562 -5.58995e-20)
(-0.0396492 0.0682246 6.08201e-20)
(-0.0512578 0.0674808 0)
(-0.0572763 0.0653575 3.4399e-20)
(-0.0584201 0.0615776 3.6975e-20)
(-0.0552851 0.0558692 0)
(-0.0483765 0.0479824 -1.21995e-19)
(-0.0381399 0.0377051 1.68573e-19)
(-0.0249859 0.0248808 -4.34946e-20)
(-0.00928028 0.00942836 -5.53991e-20)
(0.910497 0.0366892 0)
(0.740073 0.0452174 4.22212e-20)
(0.593316 0.0540044 -4.37697e-20)
(0.462227 0.0592898 0)
(0.351197 0.0640727 5.41512e-20)
(0.257297 0.0673893 -5.98711e-20)
(0.179695 0.0700793 1.33183e-19)
(0.116362 0.0721351 7.40242e-20)
(0.0655848 0.0737359 -1.60758e-19)
(0.0256296 0.0749126 2.20202e-19)
(-0.00505241 0.0756516 -4.75098e-20)
(-0.027837 0.0758747 0)
(-0.0439105 0.0754525 1.13318e-19)
(-0.054278 0.0742112 -3.0244e-20)
(-0.0597787 0.0719432 0)
(-0.0611069 0.0684188 -3.47522e-20)
(-0.0588361 0.0634009 0)
(-0.0534441 0.0566604 0)
(-0.0453367 0.0479934 0)
(-0.0348695 0.0372365 0)
(-0.0223737 0.0242756 1.07736e-19)
(-0.00815677 0.00905372 -7.26838e-20)
(0.669453 0.0570953 -3.86194e-20)
(0.527109 0.0676876 -4.15396e-20)
(0.409093 0.0759595 0)
(0.305713 0.0809046 0)
(0.220316 0.0843217 5.63466e-20)
(0.14937 0.0860474 0)
(0.091997 0.0868199 -1.35727e-19)
(0.0462253 0.0868415 5.16239e-22)
(0.0105403 0.0863726 -1.22417e-19)
(-0.0165708 0.0855229 0)
(-0.0364305 0.0843272 -9.76418e-20)
(-0.0502016 0.0827388 1.57885e-19)
(-0.0588764 0.0806478 -2.82829e-20)
(-0.063288 0.0778953 3.053e-20)
(-0.0641259 0.0742877 -6.48854e-20)
(-0.0619559 0.0696126 0)
(-0.0572414 0.0636537 0)
(-0.0503649 0.0562061 0)
(-0.0416467 0.0470922 0)
(-0.0313608 0.0361761 -8.25674e-20)
(-0.0197623 0.0233652 8.50079e-20)
(-0.00709272 0.00861095 0)
(0.466892 0.0832374 0)
(0.35255 0.093608 -4.37791e-20)
(0.259517 0.0996409 4.84394e-20)
(0.179721 0.102572 0)
(0.115296 0.10335 -5.76068e-20)
(0.0630876 0.102462 -6.32489e-20)
(0.0221739 0.100585 -3.54042e-20)
(-0.00924061 0.0980913 7.59403e-20)
(-0.0325395 0.0952867 1.25018e-19)
(-0.0490793 0.0923228 -9.04224e-20)
(-0.0600306 0.0892463 0)
(-0.0664046 0.0860102 0)
(-0.0690481 0.0824981 -2.86561e-20)
(-0.0686586 0.0785448 -3.07872e-20)
(-0.0658029 0.0739542 9.75363e-20)
(-0.0609375 0.0685169 6.90723e-20)
(-0.0544301 0.0620243 -9.06478e-20)
(-0.0465785 0.0542826 0)
(-0.0376253 0.0451257 1.96872e-20)
(-0.0277694 0.0344277 0)
(-0.0171962 0.0220992 8.41052e-20)
(-0.00608455 0.00808023 8.69898e-21)
(0.29241 0.10854 0)
(0.202936 0.11669 0)
(0.131416 0.119634 0)
(0.0720654 0.119555 0)
(0.0258033 0.117172 1.18033e-19)
(-0.0100092 0.113329 -6.49603e-20)
(-0.036472 0.108701 1.06459e-19)
(-0.0552536 0.103756 -7.75288e-20)
(-0.0676814 0.0988139 -4.24109e-20)
(-0.0749959 0.0940289 0)
(-0.0782419 0.0894304 0)
(-0.0782911 0.0849482 2.6816e-20)
(-0.0758506 0.0804432 0)
(-0.0714845 0.0757327 -3.07975e-20)
(-0.0656381 0.0706111 -3.27369e-20)
(-0.0586608 0.0648662 0)
(-0.0508276 0.0582926 1.81935e-20)
(-0.0423562 0.0507019 9.46158e-20)
(-0.033418 0.0419325 -9.843e-20)
(-0.0241457 0.0318594 0)
(-0.0146669 0.0203834 0)
(-0.0051133 0.00741908 -8.70244e-21)
(0.132967 0.127026 0)
(0.0666575 0.131936 0)
(0.0156265 0.131643 0)
(-0.0242929 0.128396 0)
(-0.053247 0.123016 -6.06853e-20)
(-0.0735259 0.116503 1.94593e-22)
(-0.086434 0.10955 3.61602e-20)
(-0.0935334 0.102656 0)
(-0.096079 0.0961237 8.5921e-20)
(-0.0951674 0.0900811 4.6641e-20)
(-0.0916837 0.0845204 0)
(-0.0863297 0.079336 -2.70532e-20)
(-0.0796482 0.07436 -5.79684e-20)
(-0.0720525 0.0693905 6.16743e-20)
(-0.0638556 0.0642132 3.26785e-20)
(-0.0552948 0.0586161 -1.72264e-20)
(-0.0465522 0.0523999 0)
(-0.0377694 0.0453842 7.53908e-20)
(-0.0290551 0.0374136 -1.7615e-19)
(-0.0204873 0.028364 1.03534e-22)
(-0.0121536 0.0181245 1.65464e-19)
(-0.00416154 0.00658045 -5.99153e-20)
(-0.0160678 0.135238 0)
(-0.0588743 0.136662 0)
(-0.0888225 0.133392 0)
(-0.109225 0.127406 -5.68144e-20)
(-0.121036 0.119669 6.24825e-20)
(-0.126325 0.111208 0)
(-0.126491 0.102714 3.6762e-20)
(-0.122932 0.0946616 -1.20544e-19)
(-0.116735 0.087305 4.3675e-20)
(-0.108776 0.0807214 -4.70476e-20)
(-0.0997162 0.0748553 0)
(-0.0900401 0.0695628 0)
(-0.0800948 0.0646497 -2.91494e-20)
(-0.0701246 0.059901 0)
(-0.0603015 0.0551013 3.27751e-20)
(-0.0507487 0.0500477 -6.90746e-20)
(-0.0415581 0.0445563 7.23661e-20)
(-0.0328028 0.0384644 -9.43229e-20)
(-0.0245388 0.0316325 1.95737e-20)
(-0.016804 0.0239466 0)
(-0.00966503 0.0152934 8.21401e-20)
(-0.00322956 0.00553927 -1.35464e-19)
(-0.148624 0.131901 -4.6228e-20)
(-0.167209 0.130036 0)
(-0.17569 0.124304 2.62818e-20)
(-0.176981 0.11636 -1.45689e-19)
(-0.172514 0.107214 6.3646e-20)
(-0.164139 0.0978214 0)
(-0.153157 0.0888041 -3.74467e-20)
(-0.140678 0.0805555 8.13744e-20)
(-0.1275 0.073251 0)
(-0.11419 0.0669007 -4.76328e-20)
(-0.101124 0.0613989 5.12815e-20)
(-0.0885344 0.0565694 0)
(-0.0765569 0.0522029 4.40003e-20)
(-0.0652635 0.0480836 0)
(-0.0546897 0.0440081 1.64761e-20)
(-0.0448533 0.0397942 -5.19152e-20)
(-0.0357665 0.0352857 7.25058e-20)
(-0.0274442 0.0303507 -7.5327e-20)
(-0.0199024 0.0248804 8.77835e-20)
(-0.0131528 0.0187872 -8.00815e-20)
(-0.00725669 0.0119745 1.7412e-19)
(-0.00234038 0.00431338 -1.4285e-19)
(-0.251239 0.11756 0)
(-0.246269 0.112918 0)
(-0.234642 0.105472 -1.62248e-22)
(-0.218976 0.0965732 2.94493e-20)
(-0.200804 0.0871521 -3.20612e-20)
(-0.181615 0.0779819 2.11418e-22)
(-0.162379 0.0695396 7.61245e-20)
(-0.143781 0.062082 -4.13429e-20)
(-0.126215 0.05568 -4.46108e-20)
(-0.109882 0.0502725 4.82007e-20)
(-0.0948469 0.0457134 0)
(-0.0810924 0.0418111 -4.15037e-20)
(-0.0685588 0.0383596 4.43405e-20)
(-0.05717 0.0351597 0)
(-0.0468508 0.032033 4.96022e-20)
(-0.037537 0.02883 -6.95637e-20)
(-0.0291805 0.0254318 7.25911e-20)
(-0.0217537 0.0217482 -7.55629e-20)
(-0.0152442 0.0177142 2.21455e-24)
(-0.00964848 0.013286 0)
(-0.00502946 0.00840642 -1.02403e-20)
(-0.00153731 0.00298346 0)
(-0.306538 0.0926572 -6.99472e-20)
(-0.281772 0.0863061 5.0087e-20)
(-0.254435 0.0783997 -5.55546e-20)
(-0.226698 0.0699464 -3.01172e-20)
(-0.19975 0.0616451 1.61113e-20)
(-0.174493 0.0539921 -3.5621e-20)
(-0.151356 0.0472494 1.93738e-20)
(-0.130499 0.0415108 0)
(-0.111878 0.0367453 0)
(-0.0953412 0.0328416 6.08205e-20)
(-0.0806858 0.0296422 -1.32005e-20)
(-0.0677004 0.0269704 -6.98542e-20)
(-0.056189 0.0246497 -1.49093e-20)
(-0.0459824 0.0225174 -6.30146e-20)
(-0.0369426 0.0204342 7.49074e-20)
(-0.0289621 0.0182901 -8.74405e-21)
(-0.0219623 0.0160068 0)
(-0.0158921 0.0135375 0)
(-0.0107224 0.0108657 -9.76884e-21)
(-0.00643849 0.00799998 0)
(-0.00310015 0.00494385 -5.13293e-21)
(-0.000868719 0.00167647 0)
(-0.297669 0.0611744 1.07889e-22)
(-0.26148 0.0547232 1.28929e-20)
(-0.226871 0.0479231 4.17563e-20)
(-0.195166 0.0413632 1.4999e-20)
(-0.16679 0.0354061 4.9499e-20)
(-0.141883 0.030236 -9.01789e-20)
(-0.120268 0.025901 1.97616e-20)
(-0.101629 0.0223644 -1.06215e-20)
(-0.0855861 0.0195376 -4.56322e-20)
(-0.0717581 0.017304 2.31495e-22)
(-0.0597993 0.0155349 5.2756e-20)
(-0.0494153 0.0141002 -6.33586e-20)
(-0.0403682 0.0128767 1.50799e-20)
(-0.0324728 0.0117536 6.35623e-20)
(-0.0255899 0.0106378 -8.3507e-21)
(-0.0196173 0.00945812 8.76032e-21)
(-0.0144817 0.00816932 0)
(-0.0101327 0.00675586 0)
(-0.0065363 0.00523526 -4.91408e-21)
(-0.00366873 0.00365866 0)
(-0.00156907 0.00208965 5.13225e-21)
(-0.00037511 0.000595172 0)
(-0.215899 0.0253934 0)
(-0.182595 0.0212765 1.28516e-20)
(-0.153218 0.0176184 1.40022e-20)
(-0.128097 0.0144975 -1.55784e-20)
(-0.106846 0.0119244 2.49411e-20)
(-0.0890494 0.00985438 -5.47376e-20)
(-0.0741897 0.00822432 3.46739e-20)
(-0.0617724 0.00696657 -2.66297e-20)
(-0.0513482 0.00601425 4.62388e-20)
(-0.0425342 0.00530318 3.09284e-20)
(-0.0350186 0.00477246 -4.66738e-20)
(-0.0285589 0.00436468 -2.12629e-20)
(-0.0229739 0.00402643 3.02094e-20)
(-0.0181348 0.00370901 0)
(-0.0139541 0.00336972 -3.36013e-20)
(-0.0103749 0.00297417 3.53007e-20)
(-0.00736028 0.0025 -2.30516e-21)
(-0.00488527 0.0019425 0)
(-0.00292788 0.00132324 4.91607e-21)
(-0.00146139 0.000699268 -2.53371e-21)
(-0.000485691 0.000163633 0)
(-6.77093e-05 -0.000136252 1.05418e-21)
(-0.0754486 0.00312215 2.35385e-20)
(-0.061174 0.00219318 2.50534e-23)
(-0.0495 0.00153856 1.36562e-23)
(-0.0402197 0.00108002 3.02565e-20)
(-0.0327959 0.000765692 -2.49801e-20)
(-0.0268627 0.00055167 -8.72503e-24)
(-0.0220879 0.000408209 4.7957e-21)
(-0.0182081 0.000315367 -5.1708e-21)
(-0.0150123 0.000259703 -2.23228e-20)
(-0.0123364 0.000231591 6.07906e-21)
(-0.0100566 0.000223365 3.20771e-20)
(-0.00808317 0.000228084 8.33377e-25)
(-0.0063553 0.000238714 0)
(-0.00483612 0.000247587 0)
(-0.00350814 0.000246121 0)
(-0.00236879 0.000224986 3.36626e-20)
(-0.00142582 0.000175091 -3.29806e-20)
(-0.000692328 9.0123e-05 0)
(-0.000180521 -2.81717e-05 0)
(0.000107695 -0.000161389 2.40834e-21)
(0.000188869 -0.000261105 3.94677e-20)
(9.4735e-05 -0.000215935 -6.60352e-20)
(1.13698 0.0252569 7.23711e-20)
(1.09095 0.0269238 -4.62385e-22)
(1.04287 0.0286372 4.83342e-20)
(0.992647 0.0303985 -2.65011e-20)
(0.94037 0.0322133 -3.07171e-20)
(0.886133 0.0340883 -3.57545e-20)
(0.830026 0.0360265 5.86911e-20)
(0.772158 0.0380287 0)
(0.712646 0.0400944 2.48255e-20)
(0.651621 0.0422211 -5.37391e-20)
(0.589228 0.044401 -2.95799e-20)
(0.525634 0.0466114 0)
(0.461057 0.0487918 3.53354e-20)
(0.395827 0.0508059 -3.74538e-20)
(0.3305 0.0523987 0)
(0.265975 0.0531687 0)
(0.203619 0.0525759 -4.51361e-20)
(0.145318 0.0499958 3.51962e-20)
(0.0933369 0.0448115 1.21637e-20)
(0.0500818 0.0365185 0)
(0.0187987 0.024788 1.32066e-20)
(0.00353525 0.00952009 -2.6589e-20)
(1.14146 0.081184 -3.71422e-20)
(1.09588 0.0869769 -2.1045e-20)
(1.04842 0.0930441 0)
(0.998781 0.0993558 2.74102e-20)
(0.947091 0.105905 0)
(0.893441 0.112695 0)
(0.837923 0.119723 -9.92788e-20)
(0.780644 0.126982 1.2993e-19)
(0.721724 0.134465 -4.82111e-20)
(0.661292 0.142155 -2.73218e-20)
(0.599491 0.150022 8.78817e-20)
(0.536484 0.157978 0)
(0.472474 0.165797 0)
(0.407762 0.17299 -7.51657e-20)
(0.342842 0.178657 7.92915e-20)
(0.278524 0.181405 0)
(0.216053 0.179389 6.73017e-20)
(0.157168 0.170507 -8.10905e-20)
(0.103991 0.152705 -1.09193e-19)
(0.0587978 0.124324 9.9768e-20)
(0.0247477 0.0843127 1.16403e-19)
(0.00584599 0.0323811 -1.63403e-19)
(1.15022 0.137106 2.14935e-19)
(1.10561 0.147042 -8.10425e-20)
(1.05939 0.157386 0)
(1.01093 0.168131 1.06073e-19)
(0.960424 0.179264 6.00944e-20)
(0.907966 0.190798 0)
(0.853647 0.202729 -7.80725e-20)
(0.797577 0.215051 4.15079e-20)
(0.739875 0.227751 -4.59948e-20)
(0.680671 0.240806 0)
(0.620102 0.254162 -5.68846e-20)
(0.558321 0.267672 -1.26753e-19)
(0.4955 0.280952 2.01989e-19)
(0.431875 0.293165 0)
(0.367818 0.302779 0)
(0.30395 0.307426 1.65912e-19)
(0.241262 0.303976 -1.51316e-19)
(0.181201 0.28887 4.46694e-20)
(0.125592 0.258644 4.64081e-20)
(0.0764639 0.210511 2.39826e-20)
(0.036799 0.142718 -2.46959e-20)
(0.0105248 0.0547995 8.26292e-20)
(1.16234 0.19028 4.9327e-21)
(1.11927 0.204238 -7.87818e-20)
(1.07502 0.218719 0)
(1.02842 0.233777 -2.08541e-19)
(0.979763 0.249387 -1.8009e-19)
(0.929155 0.265561 1.31543e-19)
(0.876685 0.282296 7.35506e-20)
(0.822469 0.299582 -8.20106e-20)
(0.766629 0.3174 2.92631e-21)
(0.709294 0.33572 0)
(0.650598 0.354465 5.67371e-20)
(0.590677 0.373429 -3.05104e-19)
(0.52966 0.392074 1.94587e-19)
(0.467684 0.409221 -6.92033e-20)
(0.404942 0.422721 0)
(0.34177 0.429253 -1.60121e-19)
(0.278782 0.424438 1.67298e-19)
(0.216984 0.403302 -4.46259e-20)
(0.157766 0.361027 -2.28993e-19)
(0.102782 0.293756 1.63885e-19)
(0.054754 0.199085 2.46937e-20)
(0.0174932 0.076411 -1.79e-19)
(1.17778 0.240836 1.3237e-19)
(1.13678 0.258687 -2.36798e-19)
(1.09513 0.277105 3.4826e-19)
(1.051 0.296273 -3.58351e-21)
(1.00479 0.316143 2.24781e-19)
(0.956637 0.336732 0)
(0.90662 0.35804 -7.32487e-20)
(0.854864 0.380053 8.71133e-20)
(0.801494 0.402753 -8.53325e-20)
(0.74664 0.426099 0)
(0.690431 0.449998 0)
(0.632983 0.474187 5.94932e-20)
(0.574366 0.497979 0)
(0.51459 0.519872 6.90193e-20)
(0.453604 0.537116 2.88728e-19)
(0.391375 0.545472 -3.03294e-19)
(0.328011 0.539356 -7.75593e-20)
(0.263947 0.512441 0)
(0.199993 0.458622 -4.19699e-20)
(0.137319 0.373045 1.36254e-19)
(0.0783125 0.252722 -1.83877e-19)
(0.0266305 0.0969491 5.6306e-20)
(1.19611 0.287485 0)
(1.15771 0.309055 0)
(1.11929 0.331174 -3.38431e-19)
(1.07821 0.354218 -9.82048e-20)
(1.03504 0.378109 1.06228e-19)
(0.989916 0.402866 0)
(0.942931 0.428492 0)
(0.894214 0.454975 1.61851e-19)
(0.843893 0.482292 -3.31603e-19)
(0.792099 0.5104 0)
(0.738957 0.53919 -9.86538e-20)
(0.684557 0.568347 -2.22026e-19)
(0.628904 0.597048 -1.17784e-19)
(0.571846 0.623483 1.30426e-19)
(0.513041 0.644335 -2.71672e-19)
(0.451991 0.654485 6.41143e-19)
(0.388191 0.6472 -5.22774e-19)
(0.321364 0.614871 6.25888e-19)
(0.251618 0.550185 4.28447e-20)
(0.179536 0.447374 -2.9151e-19)
(0.107099 0.302947 -4.15306e-20)
(0.0377853 0.11615 1.05906e-19)
(1.21688 0.329645 -3.8216e-21)
(1.1816 0.354706 1.11538e-21)
(1.14695 0.380227 1.29946e-21)
(1.10945 0.406855 -5.25874e-21)
(1.06984 0.434467 9.75394e-20)
(1.02828 0.463089 0)
(0.98485 0.492727 -2.61401e-19)
(0.939703 0.52337 4.31934e-19)
(0.892968 0.554993 1.63313e-19)
(0.844779 0.587549 1.75698e-19)
(0.795255 0.620917 -2.82342e-19)
(0.744458 0.654738 3.04532e-19)
(0.692313 0.688066 1.14709e-19)
(0.638485 0.718807 2.36821e-19)
(0.582283 0.743114 0)
(0.522668 0.755042 -3.34055e-19)
(0.458407 0.746771 3.43914e-19)
(0.388385 0.709483 0)
(0.31189 0.634747 -7.13764e-20)
(0.228823 0.515971 0)
(0.140701 0.349244 3.56271e-21)
(0.0507944 0.133821 3.14625e-20)
(1.23943 0.366619 3.40511e-19)
(1.20776 0.394923 1.34813e-19)
(1.17741 0.423531 0)
(1.14397 0.453419 -1.657e-19)
(1.10843 0.484408 0)
(1.07091 0.51653 -2.18569e-19)
(1.03153 0.549804 1.22062e-19)
(0.990435 0.584219 -1.29085e-19)
(0.947766 0.619757 4.39416e-19)
(0.903662 0.656371 -4.76605e-19)
(0.858238 0.693933 0)
(0.811533 0.732051 -9.88014e-20)
(0.763383 0.769675 0)
(0.713252 0.804461 -1.13421e-19)
(0.66006 0.832075 0)
(0.602148 0.845803 0)
(0.53745 0.836804 -6.26422e-21)
(0.463895 0.795131 0)
(0.379832 0.71132 7.12173e-20)
(0.284398 0.578052 2.80358e-19)
(0.178591 0.391089 4.02109e-20)
(0.065451 0.149761 -5.86596e-20)
(1.26298 0.397835 -8.05509e-21)
(1.23539 0.429053 -1.27662e-19)
(1.20976 0.46038 -2.7848e-19)
(1.18079 0.493173 3.20875e-19)
(1.14971 0.527187 -1.72552e-19)
(1.11665 0.562463 0)
(1.08174 0.599023 1.15343e-19)
(1.04514 0.636858 -1.2041e-19)
(1.00699 0.675949 1.28354e-19)
(0.967446 0.71625 -1.43361e-19)
(0.92661 0.757627 1.66603e-19)
(0.884493 0.799667 3.46938e-19)
(0.840843 0.841238 -5.55606e-19)
(0.794901 0.87978 1.96896e-19)
(0.745159 0.91053 9.80111e-20)
(0.689268 0.92607 0)
(0.62423 0.916615 1.64817e-19)
(0.546901 0.871172 -2.88556e-19)
(0.454586 0.779334 -2.40085e-19)
(0.345577 0.633155 2.47803e-19)
(0.220314 0.428168 5.94829e-20)
(0.0815789 0.163859 2.83856e-20)
(1.28665 0.42314 0)
(1.26363 0.456984 -2.22272e-19)
(1.24314 0.490674 1.34402e-19)
(1.21905 0.525971 0)
(1.19283 0.562556 1.70508e-19)
(1.1646 0.600496 0)
(1.1345 0.63983 2.05044e-19)
(1.10272 0.680563 -3.30691e-19)
(1.06942 0.722684 0)
(1.03475 0.766156 -2.68679e-19)
(0.998835 0.810851 2.89185e-19)
(0.961657 0.856346 1.6359e-19)
(0.92288 0.901455 0)
(0.881525 0.943448 0)
(0.835633 0.977189 -9.7284e-20)
(0.782108 0.994622 0)
(0.716926 0.985085 1.95327e-19)
(0.635753 0.93661 -1.4955e-19)
(0.534738 0.837937 0)
(0.411253 0.680593 0)
(0.265137 0.460003 -5.93996e-20)
(0.0988928 0.17592 0)
(1.30954 0.442046 0)
(1.29144 0.478068 5.24711e-21)
(1.27627 0.513738 3.56984e-19)
(1.2573 0.551213 1.31675e-19)
(1.23622 0.590076 -1.48762e-19)
(1.21315 0.630395 1.67972e-19)
(1.18823 0.672209 -3.6887e-19)
(1.16166 0.71552 3.08016e-19)
(1.13362 0.760326 1.05255e-19)
(1.10427 0.806593 0)
(1.07372 0.8542 -1.36168e-19)
(1.04195 0.902725 1.61974e-20)
(1.00853 0.95095 1.36514e-19)
(0.972257 0.996019 0)
(0.930685 1.03249 7.36388e-20)
(0.879917 1.05174 1.61607e-19)
(0.814814 1.04234 -1.69676e-19)
(0.72975 0.991441 0)
(0.619632 0.887034 0)
(0.480863 0.72023 0)
(0.312662 0.486472 0)
(0.117234 0.185901 0)
(1.33072 0.455296 -1.68873e-19)
(1.31815 0.493263 1.87302e-19)
(1.30868 0.530481 0)
(1.29515 0.569565 -3.61743e-19)
(1.27941 0.610058 1.3679e-19)
(1.26161 0.652074 -1.57016e-19)
(1.24195 0.695674 1.65175e-19)
(1.22066 0.740877 -1.8125e-19)
(1.19794 0.787692 9.2982e-20)
(1.17396 0.836098 0)
(1.14887 0.885991 0)
(1.12263 0.936973 2.53108e-19)
(1.09475 0.987832 -1.40543e-19)
(1.06382 1.03565 -2.64436e-19)
(1.02695 1.07473 1.90658e-19)
(0.979394 1.09598 -2.783e-19)
(0.914825 1.08721 0)
(0.8262 1.03475 -1.98827e-19)
(0.707047 0.925897 1.42441e-19)
(0.552718 0.751469 3.12267e-20)
(0.361795 0.507118 3.19358e-20)
(0.13618 0.193597 -1.51302e-19)
(1.34921 0.461746 0)
(1.34225 0.501203 -1.8428e-19)
(1.33842 0.539865 0)
(1.33053 0.580529 2.30756e-19)
(1.32047 0.622632 -1.23037e-19)
(1.30834 0.66629 -6.90472e-21)
(1.29438 0.711571 -1.40752e-19)
(1.27883 0.758507 1.52393e-19)
(1.26191 0.807115 -1.63622e-19)
(1.24381 0.857386 1.83665e-19)
(1.22466 0.909228 -1.06406e-19)
(1.20445 0.962258 1.10602e-19)
(1.1826 1.01527 0)
(1.15752 1.06531 2.13383e-19)
(1.12577 1.1065 -2.26559e-19)
(1.08176 1.12932 -2.6361e-19)
(1.01787 1.12101 1.33822e-20)
(0.925577 1.06721 2.37257e-19)
(0.797029 0.954739 -1.50001e-19)
(0.626568 0.774272 -6.08382e-21)
(0.412204 0.521821 7.76236e-20)
(0.155553 0.198942 4.6553e-20)
(1.36453 0.464392 0)
(1.3643 0.504961 0)
(1.36615 0.544139 0)
(1.36381 0.585403 -1.91776e-19)
(1.35916 0.628141 1.10113e-19)
(1.35238 0.672477 -2.40918e-19)
(1.34375 0.718491 1.44961e-19)