/*--------------------------------*- C++ -*----------------------------------*\
| =========                 |                                                 |
| \\      /  F ield         | OpenFOAM Extend Project: Open source CFD        |
|  \\    /   O peration     | Version:  1.6-ext                               |
|   \\  /    A nd           | Web:      www.extend-project.de                 |
|    \\/     M anipulation  |                                                 |
\*---------------------------------------------------------------------------*/
FoamFile
{
    version     2.0;
    format      ascii;
    class       volVectorField;
    location    "0.35";
    object      U_0;
}
// * * * * * * * * * * * * * * * * * * * * * * * * * * * * * * * * * * * * * //

dimensions      [0 1 -1 0 0 0 0];

internalField   nonuniform List<vector> 
20940
(
(1.85545 0.384422 0)
(1.8961 0.404571 -1.19644e-21)
(1.93468 0.424057 1.32785e-21)
(1.97034 0.441833 -3.10238e-25)
(2.00286 0.458143 4.67094e-21)
(2.03067 0.471908 -1.74204e-20)
(2.05093 0.482086 -9.16391e-21)
(2.05894 0.486797 9.0819e-21)
(2.04834 0.483847 0)
(2.01196 0.470984 0)
(1.94329 0.446579 0)
(1.83832 0.410247 1.1048e-20)
(1.69706 0.363244 -1.18382e-20)
(1.52397 0.308406 1.41978e-20)
(1.32734 0.249652 -7.21416e-21)
(1.11761 0.19123 -2.09679e-23)
(0.905519 0.137001 -9.23404e-21)
(0.700478 0.0899628 9.6475e-21)
(0.509634 0.0520286 -5.0498e-21)
(0.33758 0.0240641 0)
(0.186554 0.00662728 0)
(0.0569001 0.000469943 0)
(1.88246 0.359815 2.79647e-21)
(1.9219 0.378821 0)
(1.95896 0.396507 -5.09044e-21)
(1.99257 0.41253 5.63171e-21)
(2.02198 0.426598 -1.01983e-20)
(2.04482 0.437568 4.49181e-21)
(2.05722 0.444101 7.78547e-21)
(2.05352 0.444219 1.02409e-20)
(2.02692 0.435865 0)
(1.9707 0.417297 0)
(1.87998 0.387745 0)
(1.75336 0.34785 2.15634e-20)
(1.59377 0.299769 1.35048e-21)
(1.40823 0.24684 -1.18909e-20)
(1.20654 0.192932 -1.45153e-20)
(0.999388 0.141747 -8.22195e-21)
(0.796671 0.0962814 0)
(0.606322 0.0585867 -9.05339e-21)
(0.433836 0.0297355 1.46069e-20)
(0.282331 0.00995404 -1.00645e-20)
(0.152955 -0.00063181 -1.05088e-20)
(0.0454198 -0.00152039 0)
(1.90719 0.335147 -2.79006e-21)
(1.9451 0.353085 6.9941e-21)
(1.98014 0.369091 1.15599e-20)
(2.01089 0.383393 -2.7847e-20)
(2.03588 0.395151 -2.17079e-20)
(2.05175 0.403147 4.97317e-20)
(2.05358 0.405799 0)
(2.03501 0.401177 -1.13844e-20)
(1.98932 0.387562 2.39075e-20)
(1.911 0.363913 0)
(1.79751 0.330402 0)
(1.65039 0.288602 0)
(1.4754 0.241302 0)
(1.28154 0.191979 1.30915e-20)
(1.07927 0.144127 1.42485e-20)
(0.878764 0.1007 -3.031e-20)
(0.688561 0.0638008 0)
(0.514898 0.0346313 -2.65645e-20)
(0.36164 0.0135834 8.00762e-21)
(0.230582 0.000413105 9.47187e-21)
(0.121968 -0.00506199 4.12138e-20)
(0.0350207 -0.00254201 0)
(1.93078 0.310776 1.05455e-20)
(1.96673 0.327734 9.45375e-21)
(1.99898 0.342124 -1.1884e-20)
(2.02565 0.354649 -2.36437e-21)
(2.04429 0.363909 1.91613e-20)
(2.05044 0.368645 -1.31975e-20)
(2.0383 0.367139 3.61351e-20)
(2.00125 0.357707 -1.04242e-19)
(1.93342 0.339176 7.2981e-20)
(1.83137 0.31136 2.94305e-20)
(1.69545 0.275354 0)
(1.53025 0.233455 0)
(1.34388 0.188746 0)
(1.14647 0.144482 0)
(0.94828 0.103531 0)
(0.758276 0.0680071 0)
(0.583283 0.0391706 0)
(0.427778 0.017515 -1.62768e-20)
(0.294121 0.00292132 5.31669e-20)
(0.182988 -0.00517012 -5.57309e-20)
(0.0939115 -0.00713395 -8.92713e-21)
(0.0257759 -0.00279394 0)
(1.95295 0.286841 -1.05008e-20)
(1.98633 0.302839 -1.635e-20)
(2.01473 0.315596 1.18321e-20)
(2.03558 0.326188 -3.56362e-20)
(2.04527 0.332683 -2.56839e-20)
(2.03832 0.333857 -3.65197e-21)
(2.00841 0.32803 3.2493e-20)
(1.94942 0.313979 -4.37729e-20)
(1.85725 0.291265 2.27316e-20)
(1.73125 0.260594 -8.9379e-20)
(1.57493 0.223837 3.20304e-20)
(1.39559 0.183702 -3.71147e-20)
(1.20288 0.143193 4.13576e-20)
(1.00706 0.105057 7.01757e-20)
(0.81739 0.0713892 -7.52001e-20)
(0.641145 0.0434876 -5.58504e-20)
(0.483301 0.0218953 1.18641e-19)
(0.346677 0.00656912 -1.33997e-20)
(0.232347 -0.00295359 -6.63908e-20)
(0.140108 -0.00741256 -1.80821e-20)
(0.0689941 -0.00727906 1.88941e-20)
(0.0176946 -0.00243995 0)
(1.97329 0.263397 0)
(2.00319 0.278424 2.20271e-20)
(2.02617 0.289459 3.44531e-21)
(2.03879 0.297871 -5.74604e-20)
(2.03621 0.301283 -3.00487e-20)
(2.01225 0.298655 2.48076e-20)
(1.96078 0.288555 -1.65625e-21)
(1.87714 0.270436 3.9712e-20)
(1.75987 0.244679 0)
(1.61155 0.212792 0)
(1.43866 0.177141 3.27479e-20)
(1.2504 0.140477 -3.68808e-20)
(1.05693 0.105405 8.04383e-20)
(0.867713 0.0739777 -1.10068e-19)
(0.690381 0.0475086 2.47924e-20)
(0.530314 0.0265835 0)
(0.390704 0.0111978 -5.65905e-20)
(0.27294 0.00094522 6.08509e-20)
(0.177084 -0.00483537 0)
(0.102308 -0.00695635 0)
(0.0473343 -0.00591748 0)
(0.0107812 -0.00163155 5.83063e-20)
(1.99141 0.240386 -1.94764e-20)
(2.01643 0.25431 -2.24224e-20)
(2.0317 0.263409 -2.76942e-20)
(2.03283 0.269326 7.38124e-20)
(2.014 0.269383 4.57604e-20)
(1.96898 0.262913 2.83641e-20)
(1.89277 0.248952 9.19592e-23)
(1.78319 0.227753 -4.23887e-20)
(1.642 0.200478 9.33688e-20)
(1.47497 0.169194 0)
(1.29083 0.136409 0)
(1.09962 0.104577 0)
(0.910923 0.075688 3.91977e-20)
(0.732671 0.0510541 0)
(0.570577 0.0312926 9.2437e-20)
(0.428141 0.0164388 -9.77711e-20)
(0.307 0.00611499 0)
(0.207413 -0.000296682 2.90153e-20)
(0.12872 -0.00354157 2.91239e-20)
(0.0696936 -0.00442934 6.33014e-20)
(0.0289057 -0.00344469 -6.52429e-20)
(0.00499486 -0.000505836 0)
(2.0061 0.217727 1.81571e-21)
(2.02414 0.230381 2.22427e-20)
(2.02862 0.237296 0)
(2.01435 0.240417 -3.74587e-20)
(1.97504 0.236988 0)
(1.90542 0.226935 0)
(1.8027 0.209923 -3.42863e-20)
(1.66793 0.187013 0)
(1.50621 0.159943 -9.26922e-20)
(1.32585 0.131011 5.19889e-20)
(1.13675 0.102514 0)
(0.948582 0.0763694 0)
(0.769542 0.0538754 0)
(0.605625 0.0356699 0)
(0.460588 0.0218233 8.75193e-20)
(0.336272 0.011993 -9.26148e-20)
(0.233082 0.00558265 5.22116e-20)
(0.150465 0.00188017 -1.06e-19)
(0.0872978 0.000134328 -1.43019e-19)
(0.042151 -0.000415552 1.18169e-19)
(0.0135648 -0.00021578 3.03116e-20)
(0.000260632 0.000818742 5.24128e-20)
(2.01625 0.195112 0)
(2.02428 0.206194 0)
(2.01404 0.21063 0)
(1.97996 0.210793 -4.14857e-20)
(1.91627 0.204069 9.60019e-20)
(1.81979 0.191138 2.37829e-21)
(1.69084 0.172328 -6.9871e-20)
(1.53396 0.149348 7.64388e-20)
(1.35704 0.124205 4.54626e-20)
(1.16984 0.0990792 -5.15735e-20)
(0.982156 0.0758038 0)
(0.802396 0.0556593 6.18805e-20)
(0.636817 0.0392991 0)
(0.489403 0.0268265 7.65424e-20)
(0.362163 0.017935 -8.14304e-20)
(0.255609 0.012059 0)
(0.169258 0.00850218 9.52579e-20)
(0.102036 0.00653781 2.4774e-20)
(0.0525769 0.0054546 -2.62158e-20)
(0.0193942 0.00456293 0)
(0.00108166 0.00346312 -3.02652e-20)
(-0.00351977 0.00224439 0)
(2.01895 0.17253 0)
(2.01332 0.181847 8.16139e-20)
(1.98401 0.18368 -6.55569e-20)
(1.92607 0.180972 3.82937e-20)
(1.83541 0.171482 0)
(1.71194 0.156717 1.98739e-21)
(1.55953 0.137562 -1.99597e-19)
(1.38575 0.1161 7.71372e-20)
(1.20026 0.0942717 -1.28376e-19)
(1.01295 0.0738768 9.92588e-20)
(0.832468 0.056164 -1.62648e-19)
(0.665322 0.0418063 -1.83391e-21)
(0.515711 0.0309406 6.68137e-20)
(0.38579 0.0232996 -7.1446e-20)
(0.276152 0.0183531 -3.83903e-20)
(0.186351 0.0154309 0)
(0.115325 0.013816 -4.62568e-20)
(0.0617237 0.012811 7.23993e-20)
(0.0241021 0.0117635 -5.02467e-20)
(0.00101778 0.0100584 0)
(-0.00882792 0.00733938 0)
(-0.00645718 0.00369465 0)
(2.01268 0.149354 0)
(1.98867 0.156736 -5.31181e-20)
(1.93597 0.156029 -3.53229e-20)
(1.85104 0.150949 3.90859e-20)
(1.73271 0.139701 4.99697e-20)
(1.58451 0.124504 -1.11594e-19)
(1.41357 0.106559 -1.14621e-21)
(1.2295 0.0879966 1.48221e-19)
(1.04233 0.0704338 -8.44718e-20)
(0.860973 0.0551567 1.39303e-19)
(0.692216 0.0428494 0)
(0.540477 0.0336965 0)
(0.408043 0.0274789 -6.38029e-20)
(0.295575 0.0237118 1.02148e-19)
(0.202632 0.0217612 1.13366e-19)
(0.128135 0.0209331 1.26954e-21)
(0.0707086 0.0205341 -1.27951e-19)
(0.0288987 0.0199144 4.50764e-20)
(0.00129456 0.0184812 -1.22652e-19)
(-0.0134376 0.0156845 1.01704e-19)
(-0.0164618 0.011201 -2.61819e-20)
(-0.00865989 0.00510736 0)
(1.99223 0.126402 0)
(1.94619 0.132055 5.97466e-20)
(1.86684 0.129237 -3.03357e-20)
(1.754 0.122576 -1.22595e-19)
(1.60991 0.11069 0)
(1.44171 0.0963467 5.72553e-20)
(1.2588 0.0807853 -1.26221e-19)
(1.07149 0.065926 -7.17898e-20)
(0.888999 0.0529271 1.23498e-19)
(0.718443 0.0425602 -2.27196e-19)
(0.564494 0.0350501 1.48913e-19)
(0.429596 0.0302419 0)
(0.314466 0.0277076 0)
(0.218654 0.0268627 -3.35183e-20)
(0.141036 0.0270499 -7.1985e-20)
(0.0801762 0.027597 7.63964e-20)
(0.0345706 0.0278536 -4.09986e-20)
(0.00278445 0.0272181 -6.58327e-22)
(-0.0164922 0.0251464 0)
(-0.0244521 0.0211375 0)
(-0.0221155 0.0148844 -7.65661e-20)
(-0.0102309 0.00643683 -3.70079e-22)
(1.95888 0.10225 0)
(1.88583 0.106684 6.00854e-20)
(1.77818 0.102633 -7.1326e-20)
(1.63843 0.0955711 8.1728e-20)
(1.4726 0.0844791 -4.88439e-20)
(1.2905 0.0722788 1.08714e-19)
(1.10251 0.060063 6.26681e-20)
(0.918355 0.0493588 1.09382e-21)
(0.745516 0.0408706 0)
(0.588996 0.0349398 0)
(0.451418 0.0314748 -1.46382e-19)
(0.333571 0.0301249 1.05232e-19)
(0.23499 0.0303723 1.15962e-19)
(0.154485 0.0316175 -3.03624e-22)
(0.0905335 0.0332323 0)
(0.0415453 0.0345921 0)
(0.00601694 0.0350974 0)
(-0.0173982 0.0341903 1.27385e-19)
(-0.0298775 0.0313628 -8.86122e-20)
(-0.0324648 0.0261464 0)
(-0.0260443 0.0182345 -9.83313e-20)
(-0.0112504 0.00763269 8.39999e-20)
(1.90396 0.0804558 0)
(1.80505 0.0843261 3.37868e-21)
(1.66953 0.0798415 8.9593e-22)
(1.50686 0.0733997 0)
(1.32535 0.0640602 -9.46937e-20)
(1.13647 0.0546515 -5.36248e-20)
(0.950156 0.0460476 1.22076e-21)
(0.774554 0.0393055 1.25502e-21)
(0.614997 0.0347549 7.6807e-20)
(0.474371 0.0324195 -9.62004e-23)
(0.353563 0.032022 -9.39156e-20)
(0.252116 0.0331278 2.04537e-19)
(0.16878 0.035213 -3.35448e-19)
(0.101938 0.0377172 1.20414e-19)
(0.0498964 0.0400709 -6.66386e-20)
(0.0110529 0.0417104 3.54556e-20)
(-0.0160171 0.0420878 0)
(-0.0325381 0.0406831 -8.12066e-20)
(-0.0395499 0.0370134 1.27364e-19)
(-0.0379584 0.0306281 9.03252e-20)
(-0.0285309 0.021205 -7.06635e-20)
(-0.011812 0.00868557 0)
(1.84039 0.0556719 3.92926e-21)
(1.71029 0.06098 0)
(1.55007 0.0582687 0)
(1.36945 0.0535612 0)
(1.17877 0.0473252 1.40405e-19)
(0.989553 0.0415038 -5.22473e-20)
(0.810187 0.0368715 1.17657e-19)
(0.646615 0.0339694 0)
(0.501981 0.032868 -1.46819e-19)
(0.377358 0.0334063 7.90385e-20)
(0.272342 0.0352504 -4.44297e-20)
(0.185663 0.0379827 -4.87534e-20)
(0.115627 0.0411418 5.43412e-20)
(0.0604359 0.0442469 5.79019e-20)
(0.0183728 0.0468074 -6.40395e-20)
(-0.0120958 0.048328 3.44961e-20)
(-0.0322844 0.0483127 -3.72161e-20)
(-0.0432933 0.0462763 -6.81469e-22)
(-0.0460399 0.0417559 -4.23466e-20)
(-0.0413148 0.0343141 8.63241e-20)
(-0.0297971 0.0236113 -2.30109e-20)
(-0.0119806 0.00952061 -5.95163e-20)
(1.70804 0.0406664 4.55934e-21)
(1.54179 0.0427346 -7.11731e-20)
(1.35658 0.0423727 3.96338e-20)
(1.16452 0.0402695 8.81563e-22)
(0.97503 0.038037 -4.91484e-20)
(0.796933 0.0363067 5.55727e-20)
(0.635262 0.0356214 0)
(0.492928 0.0360963 0)
(0.370652 0.0376631 1.52796e-19)
(0.267829 0.0401179 -1.67357e-19)
(0.18303 0.0431751 4.6343e-20)
(0.114449 0.0465055 -5.07647e-20)
(0.0602014 0.0497518 1.09095e-19)
(0.018498 0.0525361 -6.00608e-20)
(-0.0122558 0.0544619 1.28379e-19)
(-0.0334269 0.0551167 -1.37741e-19)
(-0.0461568 0.0540772 -3.77607e-20)
(-0.0513882 0.0509222 7.75315e-20)
(-0.0499034 0.0452476 -1.2278e-19)
(-0.0423791 0.0366781 8.55256e-20)
(-0.0294124 0.0249185 0)
(-0.0114713 0.0098364 -1.9538e-20)
(1.46405 0.0281517 -1.31595e-19)
(1.27329 0.031333 1.09704e-19)
(1.08265 0.0348031 -4.12735e-20)
(0.898977 0.0360573 9.26491e-20)
(0.729362 0.0378555 5.13028e-20)
(0.577729 0.0394684 -1.13725e-19)
(0.44563 0.0416109 6.25889e-20)
(0.333093 0.0441506 0)
(0.239011 0.0470665 0)
(0.161727 0.0502065 -4.23367e-20)
(0.0993534 0.0533782 -9.37165e-20)
(0.0500152 0.0563506 5.03677e-20)
(0.0119769 0.0588632 1.11142e-19)
(-0.0162934 0.0606295 -1.18217e-19)
(-0.036105 0.0613394 -1.28636e-19)
(-0.0485528 0.0606638 0)
(-0.0545428 0.0582634 -3.62575e-20)
(-0.0548243 0.0538014 -7.74342e-20)
(-0.0500275 0.0469601 1.62026e-19)
(-0.0407038 0.0374546 -8.47243e-20)
(-0.0273512 0.0250649 2.14897e-20)
(-0.0103871 0.0096809 1.31703e-19)
(1.1849 0.0271878 1.39707e-19)
(0.994855 0.032675 3.89256e-20)
(0.820549 0.0397323 4.34918e-20)
(0.660319 0.0436266 -9.44102e-20)
(0.519609 0.0479059 -1.57649e-19)
(0.397961 0.0512277 1.1612e-19)
(0.295113 0.0544706 -6.46247e-20)
(0.209534 0.0574689 1.41997e-19)
(0.139489 0.0602985 -7.77502e-20)
(0.0830933 0.0628917 1.04931e-22)
(0.0385461 0.0651545 -4.69553e-20)
(0.00419948 0.0669465 5.1423e-20)
(-0.0213961 0.0680897 -5.53595e-20)
(-0.0394831 0.0683718 6.02381e-20)
(-0.0511067 0.0675505 0)
(-0.0571351 0.0653619 3.40784e-20)
(-0.0582865 0.0615315 3.66345e-20)
(-0.0551597 0.0557895 0)
(-0.0482629 0.0478875 -1.20885e-19)
(-0.0380447 0.0376139 1.67041e-19)
(-0.0249184 0.0248118 -4.30998e-20)
(-0.0092527 0.00939884 -5.4896e-20)
(0.911876 0.0372429 0)
(0.741289 0.0459831 4.19566e-20)
(0.594449 0.0549152 -4.33698e-20)
(0.46323 0.0602811 0)
(0.352093 0.0650976 5.36332e-20)
(0.258075 0.0684006 -5.92786e-20)
(0.18036 0.0710457 1.31872e-19)
(0.11692 0.0730305 7.3294e-20)
(0.0660438 0.0745422 -1.59152e-19)
(0.0260028 0.0756172 2.1801e-19)
(-0.00475068 0.0762473 -4.70419e-20)
(-0.0275921 0.0763588 0)
(-0.0437085 0.0758264 1.1223e-19)
(-0.0541068 0.0744802 -2.99521e-20)
(-0.0596287 0.0721163 0)
(-0.0609714 0.0685083 -3.44283e-20)
(-0.0587114 0.063422 0)
(-0.0533296 0.0566309 0)
(-0.0452346 0.0479328 0)
(-0.0347848 0.0371655 0)
(-0.022314 0.0242157 1.06755e-19)
(-0.00813219 0.00902608 -7.20218e-20)
(0.671143 0.0578804 -3.83749e-20)
(0.528619 0.0686944 -4.12201e-20)
(0.410462 0.0771092 0)
(0.306899 0.0821377 0)
(0.221337 0.085581 5.5861e-20)
(0.150222 0.0872849 0)
(0.0926944 0.088 -1.34437e-19)
(0.0467835 0.0879366 5.22995e-22)
(0.0109796 0.0873635 -1.21239e-19)
(-0.0162294 0.086397 0)
(-0.0361664 0.0850775 -9.67053e-20)
(-0.0499959 0.0833631 1.56374e-19)
(-0.0587128 0.081148 -2.80106e-20)
(-0.0631533 0.0782768 3.02465e-20)
(-0.0640102 0.0745597 -6.42776e-20)
(-0.0618523 0.0697872 0)
(-0.0571463 0.063746 0)
(-0.0502774 0.0562336 0)
(-0.0415685 0.0470745 0)
(-0.0312959 0.0361342 -8.18135e-20)
(-0.0197166 0.0233215 8.42318e-20)
(-0.00707356 0.00858843 0)
(0.468687 0.0841734 0)
(0.354119 0.0947775 -4.34896e-20)
(0.260872 0.100957 4.81191e-20)
(0.180843 0.103974 0)
(0.116207 0.104774 -5.71364e-20)
(0.0638009 0.103858 -6.27058e-20)
(0.0227176 0.101914 -3.50974e-20)
(-0.00883863 0.0993245 7.52433e-20)
(-0.03225 0.0964049 1.23839e-19)
(-0.0488754 0.0933141 -8.95744e-20)
(-0.0598887 0.0901048 0)
(-0.0663049 0.0867348 0)
(-0.068975 0.0830915 -2.83866e-20)
(-0.0686007 0.0790127 -3.05006e-20)
(-0.065752 0.0743057 9.66345e-20)
(-0.0608889 0.0687636 6.8437e-20)
(-0.0543817 0.0621805 -8.98149e-20)
(-0.0465303 0.0543646 0)
(-0.0375794 0.0451521 1.95076e-20)
(-0.0277297 0.0344185 0)
(-0.0171674 0.0220757 8.33384e-20)
(-0.00607195 0.00806498 8.6199e-21)
(0.293963 0.109511 0)
(0.204221 0.117918 0)
(0.132441 0.12102 0)
(0.0728387 0.121033 0)
(0.0263576 0.118671 1.17072e-19)
(-0.00964177 0.114797 -6.44308e-20)
(-0.0362521 0.110097 1.05518e-19)
(-0.0551448 0.10505 -7.68459e-20)
(-0.0676502 0.0999871 -4.20327e-20)
(-0.0750143 0.0950712 0)
(-0.0782876 0.0903375 0)
(-0.0783473 0.0857204 2.65721e-20)
(-0.0759057 0.0810842 0)
(-0.0715311 0.0762489 -3.05133e-20)
(-0.0656721 0.0710112 -3.24357e-20)
(-0.058681 0.065161 0)
(-0.0508347 0.0584951 1.8027e-20)
(-0.0423524 0.0508269 9.37541e-20)
(-0.033407 0.0419964 -9.75328e-20)
(-0.0241317 0.0318801 0)
(-0.0146546 0.02038 0)
(-0.00510694 0.00741155 -8.62315e-21)
(0.133947 0.127943 0)
(0.0673556 0.133136 0)
(0.0160597 0.133017 0)
(-0.0240905 0.129867 0)
(-0.0532295 0.124509 -6.02113e-20)
(-0.0736468 0.117962 2.19674e-22)
(-0.0866476 0.110931 3.58649e-20)
(-0.0938002 0.103932 0)
(-0.0963666 0.0972782 8.51655e-20)
(-0.0954516 0.0911056 4.62311e-20)
(-0.0919476 0.0854129 0)
(-0.0865629 0.0800988 -2.68073e-20)
(-0.0798452 0.0749981 -5.74447e-20)
(-0.072212 0.0699109 6.11171e-20)
(-0.0639787 0.0646243 3.23847e-20)
(-0.0553848 0.0589279 -1.70713e-20)
(-0.0466135 0.0526238 0)
(-0.0378072 0.0455329 7.47087e-20)
(-0.0290749 0.0375013 -1.74554e-19)
(-0.0204947 0.0284058 1.03402e-22)
(-0.0121542 0.0181364 1.63961e-19)
(-0.00415994 0.00657924 -5.93705e-20)
(-0.0158764 0.136071 0)
(-0.0589528 0.137788 0)
(-0.0891341 0.134699 0)
(-0.109711 0.128807 -5.64127e-20)
(-0.121638 0.121086 6.20407e-20)
(-0.126988 0.112585 0)
(-0.12717 0.104009 3.64588e-20)
(-0.123588 0.0958499 -1.1953e-19)
(-0.117343 0.088373 4.33137e-20)
(-0.10932 0.0816644 -4.66342e-20)
(-0.100187 0.0756745 0)
(-0.090437 0.0702626 0)
(-0.0804199 0.0652365 -2.88927e-20)
(-0.0703832 0.0603823 0)
(-0.0605007 0.0554854 3.24834e-20)
(-0.0508963 0.0503435 -6.84585e-20)
(-0.0416624 0.0447736 7.17161e-20)
(-0.0328717 0.0386138 -9.34749e-20)
(-0.0245802 0.0317257 1.93968e-20)
(-0.0168254 0.0239962 0)
(-0.00967315 0.0153126 8.13952e-20)
(-0.0032306 0.00554152 -1.34234e-19)
(-0.149322 0.132666 -4.60228e-20)
(-0.168139 0.131078 0)
(-0.176789 0.125511 2.61062e-20)
(-0.178167 0.117642 -1.44712e-19)
(-0.173721 0.108499 6.32021e-20)
(-0.165309 0.0990537 0)
(-0.15425 0.0899492 -3.71449e-20)
(-0.141666 0.0815936 8.07099e-20)
(-0.128369 0.0741739 0)
(-0.114936 0.0677081 -4.72258e-20)
(-0.10175 0.0620951 5.08433e-20)
(-0.0890484 0.0571612 0)
(-0.0769694 0.0526977 4.36151e-20)
(-0.0655866 0.0484893 0)
(-0.0549359 0.0443323 1.6332e-20)
(-0.0450346 0.0400447 -5.14558e-20)
(-0.0358942 0.0354705 7.18632e-20)
(-0.0275288 0.0304786 -7.46551e-20)
(-0.0199534 0.0249609 8.70007e-20)
(-0.0131792 0.0188307 -7.93621e-20)
(-0.00726674 0.0119918 1.72553e-19)
(-0.00234196 0.00431552 -1.4156e-19)
(-0.252846 0.118285 0)
(-0.248028 0.113871 0)
(-0.236462 0.106549 -1.57501e-22)
(-0.220766 0.0976913 2.92514e-20)
(-0.202497 0.0882476 -3.18265e-20)
(-0.183163 0.0790118 2.20712e-22)
(-0.163756 0.0704784 7.55341e-20)
(-0.144977 0.0629182 -4.10171e-20)
(-0.127231 0.0564116 -4.42435e-20)
(-0.110729 0.0509037 4.78037e-20)
(-0.0955401 0.0462513 0)
(-0.0816492 0.042264 -4.11476e-20)
(-0.0689971 0.0387353 4.39635e-20)
(-0.0575075 0.0354654 0)
(-0.0471039 0.0322755 4.91712e-20)
(-0.0377203 0.0290155 -6.89582e-20)
(-0.0293074 0.0255665 7.19535e-20)
(-0.021836 0.0218388 -7.48992e-20)
(-0.0152923 0.0177683 3.21252e-24)
(-0.00967177 0.0133121 0)
(-0.0050369 0.00841409 -1.01485e-20)
(-0.00153791 0.00298241 0)
(-0.308948 0.0933401 -6.95571e-20)
(-0.284195 0.087137 4.97765e-20)
(-0.256768 0.0792941 -5.52078e-20)
(-0.228859 0.0708385 -2.9915e-20)
(-0.201691 0.0624898 1.59913e-20)
(-0.17619 0.0547626 -3.53636e-20)
(-0.152808 0.0479332 1.92286e-20)
(-0.131717 0.0421055 0)
(-0.112882 0.0372549 0)
(-0.096156 0.0332731 6.03253e-20)
(-0.0813361 0.030004 -1.30987e-20)
(-0.0682106 0.0272706 -6.92738e-20)
(-0.0565817 0.0248952 -1.47852e-20)
(-0.0462778 0.0227142 -6.24783e-20)
(-0.0371587 0.0205873 7.42701e-20)
(-0.0291144 0.0184037 -8.66953e-21)
(-0.0220643 0.0160851 0)
(-0.0159553 0.0135851 0)
(-0.0107567 0.0108881 -9.68304e-21)
(-0.00645274 0.00800427 0)
(-0.00310248 0.00493833 -5.08805e-21)
(-0.000867701 0.00167064 0)
(-0.300543 0.0617593 1.13828e-22)
(-0.264174 0.055366 1.28166e-20)
(-0.22931 0.0485679 4.1489e-20)
(-0.197306 0.0419706 1.48972e-20)
(-0.168621 0.0359547 4.91507e-20)
(-0.143418 0.0307166 -8.95338e-20)
(-0.121533 0.0263129 1.96218e-20)
(-0.102654 0.0227119 -1.05419e-20)
(-0.086405 0.0198274 -4.5275e-20)
(-0.0724027 0.0175436 2.38763e-22)
(-0.0602988 0.0157314 5.23333e-20)
(-0.0497956 0.0142598 -6.28407e-20)
(-0.0406513 0.0130044 1.49597e-20)
(-0.0326779 0.0118533 6.30362e-20)
(-0.0257333 0.0107123 -8.28001e-21)
(-0.0197128 0.00950972 8.68566e-21)
(-0.0145408 0.00820007 0)
(-0.0101652 0.00676819 0)
(-0.0065504 0.00523261 -4.87209e-21)
(-0.00367123 0.00364606 0)
(-0.00156605 0.00207409 5.08738e-21)
(-0.000372769 0.000585757 0)
(-0.218463 0.0257433 0)
(-0.184843 0.0216112 1.27716e-20)
(-0.155134 0.0179207 1.39097e-20)
(-0.129692 0.014759 -1.54789e-20)
(-0.108149 0.0121445 2.47659e-20)
(-0.0900954 0.0100359 -5.43548e-20)
(-0.0750177 0.0083717 3.44265e-20)
(-0.0624189 0.00708479 -2.64287e-20)
(-0.0518457 0.00610813 4.58921e-20)
(-0.0429108 0.00537704 3.06859e-20)
(-0.0352982 0.00482995 -4.63119e-20)
(-0.0287611 0.00440872 -2.1092e-20)
(-0.023115 0.00405919 2.99663e-20)
(-0.0182284 0.00373199 0)
(-0.0140117 0.00338385 -3.33222e-20)
(-0.0104058 0.00297998 3.50074e-20)
(-0.00737273 0.00249786 -2.28596e-21)
(-0.00488593 0.00193298 0)
(-0.00292226 0.0013076 4.87405e-21)
(-0.00145379 0.000680042 -2.51224e-21)
(-0.000479271 0.00014532 0)
(-6.49807e-05 -0.000146306 1.04521e-21)
(-0.0766157 0.00320433 -2.34423e-20)
(-0.0621193 0.00225884 -2.53529e-20)
(-0.0502476 0.00158952 2.79373e-20)
(-0.0408008 0.00111831 -1.47597e-23)
(-0.0332404 0.000793917 8.13051e-21)
(-0.0271973 0.000572066 -8.66723e-24)
(-0.0223356 0.000422583 -1.43483e-20)
(-0.0183877 0.00032512 1.5601e-20)
(-0.0151391 0.000265913 0)
(-0.0124225 0.000235088 5.925e-21)
(-0.0101114 0.000224782 3.17322e-20)
(-0.00811416 0.000227888 -2.71453e-20)
(-0.00636836 0.000237226 0)
(-0.00483597 0.000244993 -3.03182e-20)
(-0.00349868 0.000242476 3.19772e-20)
(-0.00235337 0.00022023 0)
(-0.00140743 0.000169075 2.17005e-21)
(-0.000673691 8.2686e-05 -3.60827e-20)
(-0.000164065 -3.7041e-05 3.7323e-20)
(0.000119968 -0.00017126 4.06533e-20)
(0.000195899 -0.000270542 -7.83127e-20)
(9.71327e-05 -0.000221394 6.34696e-20)
(1.13698 0.0252379 7.25703e-20)
(1.09095 0.0269038 -4.62365e-22)
(1.04288 0.0286161 4.84566e-20)
(0.992651 0.0303763 -2.65685e-20)
(0.940374 0.03219 -3.07911e-20)
(0.886137 0.0340639 -3.58355e-20)
(0.83003 0.0360009 5.88235e-20)
(0.772162 0.038002 0)
(0.712649 0.0400665 2.48775e-20)
(0.651625 0.0421918 -5.38512e-20)
(0.589231 0.0443704 -2.96402e-20)
(0.525637 0.0465795 0)
(0.461059 0.0487586 3.5404e-20)
(0.395829 0.0507714 -3.75266e-20)
(0.330501 0.0523633 0)
(0.265976 0.0531329 0)
(0.20362 0.0525406 -4.52202e-20)
(0.145318 0.0499622 3.52617e-20)
(0.093337 0.0447815 1.21863e-20)
(0.0500816 0.0364941 0)
(0.0187984 0.0247714 1.32303e-20)
(0.00353512 0.00951376 -2.66373e-20)
(1.14146 0.0811648 -3.72419e-20)
(1.09589 0.0869567 -2.11004e-20)
(1.04843 0.093023 0)
(0.998784 0.0993336 2.74776e-20)
(0.947094 0.105882 0)
(0.893444 0.112671 0)
(0.837926 0.119697 -9.94996e-20)
(0.780647 0.126956 1.30218e-19)
(0.721726 0.134437 -4.83152e-20)
(0.661294 0.142127 -2.7378e-20)
(0.599493 0.149992 8.80624e-20)
(0.536485 0.157946 0)
(0.472475 0.165765 0)
(0.407762 0.172956 -7.53114e-20)
(0.342841 0.178622 7.94451e-20)
(0.278524 0.18137 0)
(0.216052 0.179355 6.7428e-20)
(0.157167 0.170475 -8.12437e-20)
(0.103989 0.152676 -1.09396e-19)
(0.0587965 0.124301 9.9954e-20)
(0.0247467 0.0842968 1.16618e-19)
(0.00584554 0.032375 -1.63704e-19)
(1.15023 0.137087 2.15532e-19)
(1.10561 0.147022 -8.12641e-20)
(1.05939 0.157365 0)
(1.01093 0.168109 1.06343e-19)
(0.960426 0.179241 6.02422e-20)
(0.907968 0.190774 0)
(0.853649 0.202704 -7.82491e-20)
(0.797578 0.215025 4.16038e-20)
(0.739876 0.227724 -4.60989e-20)
(0.680671 0.240777 0)
(0.620103 0.254132 -5.70051e-20)
(0.558321 0.267641 -1.27011e-19)
(0.4955 0.28092 2.02401e-19)
(0.431874 0.293132 0)
(0.367816 0.302746 0)
(0.303948 0.307392 1.66234e-19)
(0.24126 0.303943 -1.51611e-19)
(0.181198 0.288839 4.4757e-20)
(0.12559 0.258616 4.64987e-20)
(0.0764615 0.210489 2.40292e-20)
(0.0367972 0.142703 -2.47436e-20)
(0.0105241 0.0547937 8.27844e-20)
(1.16234 0.19026 4.93271e-21)
(1.11927 0.204217 -7.90026e-20)
(1.07502 0.218698 0)
(1.02842 0.233755 -2.09078e-19)
(0.979764 0.249364 -1.80533e-19)
(0.929156 0.265537 1.31866e-19)
(0.876686 0.282271 7.37267e-20)
(0.82247 0.299556 -8.22021e-20)
(0.766629 0.317374 2.92614e-21)
(0.709293 0.335692 0)
(0.650597 0.354436 5.68573e-20)
(0.590675 0.373399 -3.05748e-19)
(0.529658 0.392043 1.94999e-19)
(0.467682 0.409189 -6.93488e-20)
(0.404939 0.422689 0)
(0.341767 0.429221 -1.60443e-19)
(0.278778 0.424406 1.67635e-19)
(0.21698 0.403272 -4.47135e-20)
(0.157762 0.361 -2.29447e-19)
(0.102778 0.293734 1.64211e-19)
(0.0547516 0.199071 2.47414e-20)
(0.0174923 0.0764055 -1.7935e-19)
(1.17778 0.240817 1.32765e-19)
(1.13678 0.258667 -2.37458e-19)
(1.09513 0.277084 3.49232e-19)
(1.051 0.296251 -3.58355e-21)
(1.00479 0.316121 2.25369e-19)
(0.956638 0.336709 0)
(0.90662 0.358015 -7.34241e-20)
(0.854864 0.380028 8.7304e-20)
(0.801494 0.402727 -8.55393e-20)
(0.746639 0.426072 0)
(0.69043 0.44997 0)
(0.63298 0.474158 5.96216e-20)
(0.574363 0.497949 0)
(0.514586 0.519841 6.91644e-20)
(0.4536 0.537085 2.89341e-19)
(0.39137 0.545441 -3.03939e-19)
(0.328006 0.539325 -7.77278e-20)
(0.263942 0.512412 0)
(0.199988 0.458597 -4.20606e-20)
(0.137315 0.373024 1.36534e-19)
(0.0783095 0.252708 -1.84259e-19)
(0.0266293 0.096944 5.6423e-20)
(1.19611 0.287465 0)
(1.15772 0.309035 0)
(1.11929 0.331153 -3.39398e-19)
(1.07821 0.354196 -9.84709e-20)
(1.03504 0.378087 1.0652e-19)
(0.989916 0.402843 0)
(0.942931 0.428468 0)
(0.894213 0.45495 1.62231e-19)
(0.843892 0.482267 -3.32427e-19)
(0.792097 0.510374 0)
(0.738954 0.539163 -9.88929e-20)
(0.684554 0.568319 -2.22538e-19)
(0.628901 0.59702 -1.18057e-19)
(0.571842 0.623454 1.30715e-19)
(0.513036 0.644305 -2.72284e-19)
(0.451986 0.654455 6.42591e-19)
(0.388185 0.647171 -5.23951e-19)
(0.321358 0.614844 6.27289e-19)
(0.251612 0.550161 4.29354e-20)
(0.179531 0.447355 -2.92163e-19)
(0.107096 0.302934 -4.16263e-20)
(0.037784 0.116145 1.0614e-19)
(1.21688 0.329626 -3.8216e-21)
(1.1816 0.354686 1.11528e-21)
(1.14695 0.380206 1.29931e-21)
(1.10945 0.406833 -5.2588e-21)
(1.06984 0.434445 9.78298e-20)
(1.02828 0.463066 0)
(0.98485 0.492704 -2.62095e-19)
(0.939702 0.523346 4.33067e-19)
(0.892967 0.554968 1.63722e-19)
(0.844777 0.587524 1.7614e-19)
(0.795252 0.620891 -2.83055e-19)
(0.744455 0.654711 3.05296e-19)
(0.692309 0.688038 1.1498e-19)
(0.63848 0.718778 2.37398e-19)
(0.582278 0.743085 0)
(0.522662 0.755014 -3.34857e-19)
(0.4584 0.746743 3.44753e-19)
(0.388379 0.709458 0)
(0.311884 0.634724 -7.15575e-20)
(0.228817 0.515954 0)
(0.140697 0.349233 3.56264e-21)
(0.0507929 0.133817 3.1541e-20)
(1.23943 0.366599 3.41672e-19)
(1.20776 0.394903 1.35244e-19)
(1.17741 0.42351 0)
(1.14397 0.453398 -1.66224e-19)
(1.10843 0.484386 0)
(1.07091 0.516508 -2.192e-19)
(1.03153 0.549781 1.22406e-19)
(0.990433 0.584196 -1.29459e-19)
(0.947764 0.619733 4.40635e-19)
(0.903659 0.656347 -4.77922e-19)
(0.858235 0.693908 0)
(0.811529 0.732025 -9.90544e-20)
(0.763379 0.769649 0)
(0.713247 0.804434 -1.13708e-19)
(0.660054 0.832048 0)
(0.602141 0.845776 0)
(0.537443 0.836778 -6.26414e-21)
(0.463888 0.795108 0)
(0.379826 0.711299 7.1398e-20)
(0.284392 0.578036 2.81103e-19)
(0.178587 0.391079 4.03066e-20)
(0.0654495 0.149758 -5.88171e-20)
(1.26298 0.397815 -8.05493e-21)
(1.23539 0.429033 -1.28089e-19)
(1.20976 0.460359 -2.79422e-19)
(1.18079 0.493152 3.21913e-19)
(1.14971 0.527165 -1.73122e-19)
(1.11665 0.562441 0)
(1.08174 0.599001 1.15683e-19)
(1.04513 0.636835 -1.20781e-19)
(1.00699 0.675926 1.28757e-19)
(0.967443 0.716226 -1.43796e-19)
(0.926607 0.757603 1.67071e-19)
(0.884489 0.799642 3.47943e-19)
(0.840838 0.841212 -5.57215e-19)
(0.794895 0.879754 1.97466e-19)
(0.745153 0.910504 9.83128e-20)
(0.689262 0.926045 0)
(0.624223 0.916591 1.65317e-19)
(0.546894 0.87115 -2.89425e-19)
(0.454579 0.779316 -2.40807e-19)
(0.345571 0.633141 2.48547e-19)
(0.22031 0.428159 5.96741e-20)
(0.0815775 0.163856 2.84646e-20)
(1.28665 0.42312 0)
(1.26363 0.456964 -2.23116e-19)
(1.24314 0.490654 1.34868e-19)
(1.21905 0.52595 0)
(1.19283 0.562534 1.71071e-19)
(1.1646 0.600474 0)
(1.1345 0.639808 2.05718e-19)
(1.10272 0.68054 -3.31792e-19)
(1.06942 0.722661 0)
(1.03475 0.766133 -2.6954e-19)
(0.998832 0.810827 2.90112e-19)
(0.961653 0.856322 1.64088e-19)
(0.922876 0.90143 0)
(0.88152 0.943423 0)
(0.835627 0.977165 -9.75835e-20)
(0.782101 0.994598 0)
(0.716919 0.985062 1.9599e-19)
(0.635746 0.93659 -1.50069e-19)
(0.534731 0.837921 0)
(0.411247 0.680581 0)
(0.265133 0.459995 -5.95905e-20)
(0.0988914 0.175917 0)
(1.30954 0.442025 0)
(1.29144 0.478047 5.24699e-21)
(1.27627 0.513717 3.58364e-19)
(1.2573 0.551192 1.32182e-19)
(1.23622 0.590055 -1.49319e-19)
(1.21315 0.630374 1.68582e-19)
(1.18823 0.672187 -3.70201e-19)
(1.16166 0.715498 3.09103e-19)
(1.13362 0.760304 1.05648e-19)
(1.10427 0.80657 0)
(1.07372 0.854177 -1.36626e-19)
(1.04195 0.902702 1.61974e-20)
(1.00853 0.950927 1.3704e-19)
(0.972252 0.995995 0)
(0.93068 1.03246 7.39358e-20)
(0.879911 1.05172 1.62234e-19)
(0.814807 1.04232 -1.70334e-19)
(0.729744 0.991423 0)
(0.619627 0.88702 0)
(0.480858 0.72022 0)
(0.312659 0.486465 0)
(0.117233 0.185899 0)
(1.33072 0.455276 -1.6961e-19)
(1.31815 0.493242 1.88122e-19)
(1.30868 0.53046 0)
(1.29515 0.569543 -3.6324e-19)
(1.27941 0.610036 1.37338e-19)
(1.26161 0.652052 -1.57617e-19)
(1.24195 0.695652 1.65831e-19)
(1.22065 0.740855 -1.81964e-19)
(1.19793 0.78767 9.33696e-20)
(1.17396 0.836075 0)
(1.14887 0.885968 0)
(1.12262 0.936951 2.5408e-19)
(1.09474 0.98781 -1.41063e-19)
(1.06382 1.03562 -2.65543e-19)
(1.02694 1.07471 1.9154e-19)
(0.979388 1.09596 -2.79542e-19)
(0.91482 1.0872 0)
(0.826195 1.03474 -1.99852e-19)
(0.707042 0.925884 1.43152e-19)
(0.552714 0.751461 3.14109e-20)
(0.361793 0.507113 3.21257e-20)
(0.136179 0.193596 -1.52101e-19)
(1.34921 0.461725 0)
(1.34225 0.501182 -1.85087e-19)
(1.33842 0.539843 0)
(1.33053 0.580507 2.31737e-19)
(1.32047 0.622611 -1.23576e-19)
(1.30834 0.666268 -6.90471e-21)
(1.29438 0.711549 -1.41397e-19)
(1.27883 0.758485 1.53095e-19)
(1.26191 0.807093 -1.64385e-19)
(1.24381 0.857364 1.84491e-19)
(1.22466 0.909206 -1.06852e-19)
(1.20444 0.962236 1.11081e-19)
(1.1826 1.01525 0)
(1.15751 1.06529 2.14477e-19)
(1.12577 1.10647 -2.27721e-19)
(1.08175 1.1293 -2.65146e-19)
(1.01786 1.12099 1.33818e-20)
(0.925573 1.0672 2.38611e-19)
(0.797026 0.954729 -1.5106e-19)
(0.626566 0.774265 -6.08407e-21)
(0.412203 0.521818 7.81908e-20)
(0.155553 0.198942 4.68733e-20)
(1.36453 0.464371 0)
(1.3643 0.504939 0)
(1.36616 0.544117 0)
(1.36381 0.58538 -1.9274e-19)
(1.35916 0.628119 1.10643e-19)
(1.35238 0.672454 -2.42078e-19)