/*--------------------------------*- C++ -*----------------------------------*\
| =========                 |                                                 |
| \\      /  F ield         | OpenFOAM Extend Project: Open source CFD        |
|  \\    /   O peration     | Version:  1.6-ext                               |
|   \\  /    A nd           | Web:      www.extend-project.de                 |
|    \\/     M anipulation  |                                                 |
\*---------------------------------------------------------------------------*/
FoamFile
{
    version     2.0;
    format      ascii;
    class       volScalarField::DimensionedInternalField;
    location    "0.35";
    object      V0;
}
// * * * * * * * * * * * * * * * * * * * * * * * * * * * * * * * * * * * * * //

dimensions      [0 3 0 0 0 0 0];

value           nonuniform List<scalar> 
20940
(
1.171e-06
1.03798e-06
9.2094e-07
8.17906e-07
7.27136e-07
6.47113e-07
5.76511e-07
5.14172e-07
4.59084e-07
4.10363e-07
3.67236e-07
3.29026e-07
2.95142e-07
2.65064e-07
2.38339e-07
2.14568e-07
1.93402e-07
1.74534e-07
1.57697e-07
1.42654e-07
1.292e-07
1.17152e-07
1.17116e-06
1.03811e-06
9.2106e-07
8.18012e-07
7.2723e-07
6.47198e-07
5.7659e-07
5.14247e-07
4.59156e-07
4.10432e-07
3.67302e-07
3.29088e-07
2.95199e-07
2.65116e-07
2.38385e-07
2.1461e-07
1.93441e-07
1.74572e-07
1.57733e-07
1.4269e-07
1.29235e-07
1.17186e-07
1.17373e-06
1.04039e-06
9.23082e-07
8.19809e-07
7.28831e-07
6.48625e-07
5.77863e-07
5.15385e-07
4.60176e-07
4.11349e-07
3.68128e-07
3.29833e-07
2.95871e-07
2.65723e-07
2.38934e-07
2.15105e-07
1.93887e-07
1.74976e-07
1.581e-07
1.43025e-07
1.29541e-07
1.17468e-07
1.17799e-06
1.04417e-06
9.26433e-07
8.2279e-07
7.31485e-07
6.50991e-07
5.79975e-07
5.17271e-07
4.61863e-07
4.12859e-07
3.69482e-07
3.3105e-07
2.96968e-07
2.66713e-07
2.39828e-07
2.15913e-07
1.94618e-07
1.75636e-07
1.58697e-07
1.43566e-07
1.30034e-07
1.17917e-07
1.18323e-06
1.04884e-06
9.30614e-07
8.26537e-07
7.3485e-07
6.54018e-07
5.82701e-07
5.1973e-07
4.64082e-07
4.14864e-07
3.71295e-07
3.32691e-07
2.98456e-07
2.68064e-07
2.41058e-07
2.17035e-07
1.95642e-07
1.76571e-07
1.59551e-07
1.44345e-07
1.30745e-07
1.18568e-07
1.19003e-06
1.05494e-06
9.36079e-07
8.31442e-07
7.39262e-07
6.57995e-07
5.86294e-07
5.22981e-07
4.67029e-07
4.17538e-07
3.73723e-07
3.34898e-07
3.00463e-07
2.69892e-07
2.42723e-07
2.18555e-07
1.97032e-07
1.77844e-07
1.60717e-07
1.45414e-07
1.31723e-07
1.19462e-07
1.19839e-06
1.06246e-06
9.4285e-07
8.37541e-07
7.4476e-07
6.62958e-07
5.90784e-07
5.27053e-07
4.7073e-07
4.20909e-07
3.76798e-07
3.37707e-07
3.0303e-07
2.72238e-07
2.44871e-07
2.2052e-07
1.98832e-07
1.79495e-07
1.62233e-07
1.46807e-07
1.33004e-07
1.2064e-07
1.20832e-06
1.07144e-06
9.50991e-07
8.44919e-07
7.51446e-07
6.69019e-07
5.9628e-07
5.32042e-07
4.75267e-07
4.25044e-07
3.80576e-07
3.41165e-07
3.06201e-07
2.7515e-07
2.47544e-07
2.22977e-07
2.0109e-07
1.81571e-07
1.64143e-07
1.48567e-07
1.34628e-07
1.22139e-07
1.21972e-06
1.08182e-06
9.60444e-07
8.53544e-07
7.59321e-07
6.76211e-07
6.02847e-07
5.38036e-07
4.80736e-07
4.30036e-07
3.85138e-07
3.45343e-07
3.10035e-07
2.78676e-07
2.50793e-07
2.25972e-07
2.03854e-07
1.84122e-07
1.66499e-07
1.50742e-07
1.36639e-07
1.24e-07
1.23248e-06
1.09348e-06
9.71115e-07
8.63329e-07
7.68308e-07
6.84474e-07
6.10449e-07
5.4503e-07
4.87169e-07
4.35949e-07
3.90569e-07
3.50328e-07
3.14615e-07
2.82889e-07
2.54676e-07
2.29559e-07
2.07172e-07
1.87193e-07
1.69344e-07
1.53378e-07
1.3908e-07
1.26262e-07
1.24638e-06
1.10624e-06
9.82856e-07
8.74142e-07
7.78282e-07
6.93687e-07
6.18971e-07
5.52922e-07
4.94481e-07
4.42724e-07
3.96844e-07
3.56135e-07
3.19981e-07
2.87844e-07
2.59251e-07
2.33787e-07
2.11085e-07
1.9082e-07
1.72709e-07
1.56503e-07
1.41983e-07
1.28958e-07
1.2619e-06
1.12056e-06
9.96069e-07
8.86338e-07
7.89547e-07
7.04102e-07
6.28613e-07
5.6186e-07
5.02778e-07
4.50434e-07
4.04014e-07
3.62804e-07
3.26181e-07
2.93602e-07
2.64592e-07
2.38734e-07
2.15666e-07
1.95064e-07
1.76645e-07
1.60158e-07
1.4538e-07
1.32118e-07
1.27831e-06
1.13583e-06
1.01027e-06
8.99539e-07
8.01815e-07
7.15501e-07
6.39203e-07
5.71702e-07
5.11933e-07
4.5896e-07
4.11962e-07
3.70222e-07
3.33109e-07
3.00073e-07
2.70633e-07
2.44368e-07
2.20912e-07
1.99943e-07
1.8118e-07
1.64374e-07
1.49302e-07
1.35769e-07
1.29564e-06
1.15206e-06
1.02547e-06
9.13773e-07
8.15136e-07
7.2796e-07
6.50846e-07
5.82572e-07
5.22074e-07
4.68418e-07
4.20787e-07
3.78461e-07
3.40809e-07
3.07276e-07
2.77376e-07
2.50682e-07
2.26822e-07
2.05469e-07
1.86338e-07
1.69182e-07
1.5378e-07
1.39939e-07
1.3136e-06
1.16901e-06
1.04145e-06
9.28836e-07
8.29325e-07
7.41317e-07
6.63414e-07
5.94388e-07
5.33168e-07
4.78821e-07
4.30528e-07
3.87575e-07
3.49335e-07
3.15254e-07
2.84845e-07
2.57681e-07
2.33383e-07
2.11621e-07
1.92105e-07
1.7458e-07
1.58827e-07
1.4465e-07
1.24196e-06
1.10789e-06
9.89415e-07
8.84644e-07
7.91903e-07
7.09733e-07
6.36859e-07
5.72163e-07
5.14667e-07
4.63512e-07
4.17947e-07
3.77318e-07
3.4105e-07
3.08643e-07
2.79654e-07
2.53692e-07
2.30414e-07
2.09515e-07
1.90726e-07
1.73811e-07
1.58561e-07
1.44796e-07
1.21885e-06
1.08675e-06
9.7007e-07
8.66915e-07
7.75636e-07
6.94792e-07
6.23122e-07
5.59524e-07
5.03032e-07
4.52797e-07
4.08076e-07
3.68217e-07
3.32651e-07
3.00881e-07
2.72469e-07
2.47035e-07
2.2424e-07
2.03787e-07
1.85415e-07
1.68889e-07
1.54003e-07
1.40577e-07
1.19688e-06
1.06672e-06
9.51777e-07
8.50193e-07
7.60333e-07
6.80771e-07
6.1026e-07
5.47712e-07
4.92172e-07
4.42806e-07
3.98879e-07
3.5975e-07
3.24852e-07
2.93692e-07
2.65837e-07
2.40908e-07
2.18572e-07
1.98538e-07
1.80548e-07
1.64376e-07
1.4982e-07
1.36702e-07
1.17618e-06
1.04789e-06
9.34622e-07
8.34549e-07
7.4605e-07
6.67718e-07
5.98317e-07
5.36772e-07
4.82137e-07
4.3359e-07
3.90407e-07
3.51955e-07
3.17679e-07
2.87088e-07
2.59755e-07
2.35304e-07
2.13404e-07
1.93766e-07
1.76134e-07
1.60288e-07
1.46029e-07
1.33184e-07
1.15688e-06
1.03036e-06
9.18696e-07
8.20054e-07
7.32844e-07
6.55671e-07
5.87318e-07
5.26718e-07
4.72939e-07
4.25163e-07
3.82678e-07
3.44857e-07
3.11153e-07
2.81085e-07
2.54229e-07
2.30215e-07
2.08716e-07
1.89445e-07
1.7215e-07
1.56607e-07
1.42624e-07
1.30029e-07
1.13878e-06
1.01398e-06
9.03854e-07
8.06588e-07
7.2061e-07
6.44544e-07
5.77185e-07
5.17481e-07
4.64509e-07
4.17463e-07
3.75636e-07
3.38409e-07
3.05242e-07
2.75659e-07
2.49243e-07
2.25629e-07
2.04494e-07
1.85557e-07
1.68568e-07
1.53308e-07
1.39582e-07
1.27222e-07
1.12272e-06
9.99453e-07
8.90693e-07
7.94653e-07
7.09774e-07
6.34693e-07
5.68218e-07
5.09308e-07
4.57052e-07
4.10652e-07
3.69409e-07
3.32711e-07
3.00022e-07
2.70871e-07
2.44847e-07
2.21587e-07
2.00775e-07
1.8213e-07
1.65409e-07
1.50394e-07
1.36896e-07
1.24745e-07
1.10807e-06
9.86237e-07
8.78756e-07
7.83857e-07
6.99997e-07
6.25827e-07
5.60169e-07
5.01991e-07
4.50392e-07
4.04583e-07
3.63872e-07
3.27655e-07
2.95399e-07
2.66642e-07
2.40973e-07
2.18035e-07
1.97514e-07
1.79134e-07
1.62652e-07
1.47854e-07
1.34554e-07
1.22584e-07
1.09505e-06
9.74514e-07
8.68187e-07
7.74316e-07
6.91374e-07
6.18023e-07
5.53097e-07
4.95574e-07
4.44563e-07
3.9928e-07
3.59042e-07
3.23251e-07
2.91379e-07
2.62968e-07
2.37613e-07
2.14959e-07
1.94695e-07
1.76549e-07
1.60278e-07
1.45672e-07
1.32544e-07
1.20732e-07
1.08366e-06
9.64274e-07
8.58971e-07
7.66011e-07
6.8388e-07
6.11253e-07
5.46973e-07
4.90028e-07
4.39533e-07
3.94714e-07
3.54891e-07
3.19471e-07
2.87935e-07
2.59825e-07
2.34741e-07
2.12333e-07
1.92292e-07
1.74346e-07
1.58259e-07
1.43818e-07
1.30842e-07
1.19167e-07
1.07387e-06
9.55492e-07
8.51081e-07
7.58912e-07
6.77485e-07
6.05485e-07
5.41763e-07
4.85317e-07
4.35268e-07
3.90847e-07
3.51382e-07
3.16283e-07
2.85034e-07
2.57182e-07
2.32331e-07
2.10131e-07
1.90279e-07
1.72504e-07
1.56571e-07
1.42271e-07
1.29422e-07
1.17863e-07
1.06564e-06
9.48118e-07
8.44465e-07
7.52969e-07
6.72139e-07
6.00671e-07
5.37422e-07
4.81398e-07
4.31725e-07
3.87639e-07
3.48475e-07
3.13645e-07
2.82637e-07
2.55002e-07
2.30346e-07
2.08322e-07
1.88627e-07
1.70994e-07
1.55189e-07
1.41005e-07
1.28262e-07
1.16798e-07
1.0589e-06
9.42088e-07
8.39059e-07
7.48119e-07
6.67782e-07
5.96751e-07
5.33892e-07
4.78215e-07
4.28851e-07
3.85042e-07
3.46124e-07
3.11515e-07
2.80704e-07
2.53247e-07
2.28749e-07
2.06868e-07
1.87301e-07
1.69785e-07
1.54083e-07
1.39994e-07
1.27335e-07
1.15949e-07
1.05366e-06
9.37392e-07
8.3485e-07
7.44342e-07
6.64388e-07
5.93698e-07
5.31143e-07
4.75736e-07
4.26613e-07
3.83019e-07
3.44293e-07
3.09856e-07
2.792e-07
2.5188e-07
2.27507e-07
2.05737e-07
1.86271e-07
1.68844e-07
1.53225e-07
1.39208e-07
1.26615e-07
1.15288e-07
1.0489e-06
9.33201e-07
8.31153e-07
7.41076e-07
6.61498e-07
5.91137e-07
5.28869e-07
4.73712e-07
4.24809e-07
3.81409e-07
3.42852e-07
3.08564e-07
2.78039e-07
2.50835e-07
2.26563e-07
2.04884e-07
1.85498e-07
1.68142e-07
1.52585e-07
1.38624e-07
1.26081e-07
1.14789e-07
1.17426e-06
1.0468e-06
9.34187e-07
8.34613e-07
7.46492e-07
6.6844e-07
5.99244e-07
5.3784e-07
4.833e-07
4.34808e-07
3.91648e-07
3.53195e-07
3.18899e-07
2.88276e-07
2.60902e-07
2.36406e-07
2.14458e-07
1.94772e-07
1.77093e-07
1.61198e-07
1.4689e-07
1.33995e-07
1.17455e-06
1.04707e-06
9.34443e-07
8.34852e-07
7.46717e-07
6.68651e-07
5.9944e-07
5.38024e-07
4.83472e-07
4.34969e-07
3.91799e-07
3.53336e-07
3.1903e-07
2.88399e-07
2.61017e-07
2.36513e-07
2.14559e-07
1.94866e-07
1.77181e-07
1.6128e-07
1.46967e-07
1.34067e-07
1.17729e-06
1.04954e-06
9.3667e-07
8.36863e-07
7.48534e-07
6.70295e-07
6.0093e-07
5.39376e-07
4.84699e-07
4.36084e-07
3.92814e-07
3.54261e-07
3.19874e-07
2.89169e-07
2.61721e-07
2.37157e-07
2.15149e-07
1.95407e-07
1.77677e-07
1.61736e-07
1.47386e-07
1.34452e-07
1.18189e-06
1.05367e-06
9.40378e-07
8.402e-07
7.5154e-07
6.73007e-07
6.03379e-07
5.4159e-07
4.86704e-07
4.37901e-07
3.94463e-07
3.55759e-07
3.21236e-07
2.90409e-07
2.62852e-07
2.38189e-07
2.16091e-07
1.96268e-07
1.78466e-07
1.62458e-07
1.48048e-07
1.3506e-07
1.18772e-06
1.05894e-06
9.45148e-07
8.44519e-07
7.55456e-07
6.76561e-07
6.06609e-07
5.44528e-07
4.8938e-07
4.4034e-07
3.96689e-07
3.57793e-07
3.23096e-07
2.92112e-07
2.64412e-07
2.39619e-07
2.17404e-07
1.97475e-07
1.79575e-07
1.63479e-07
1.48988e-07
1.35926e-07
1.19546e-06
1.06594e-06
9.51484e-07
8.50263e-07
7.60669e-07
6.81298e-07
6.10918e-07
5.48452e-07
4.92957e-07
4.43605e-07
3.99672e-07
3.6052e-07
3.25593e-07
2.944e-07
2.6651e-07
2.41545e-07
2.19173e-07
1.99102e-07
1.81072e-07
1.64857e-07
1.50258e-07
1.37097e-07
1.20509e-06
1.07467e-06
9.59411e-07
8.57468e-07
7.67224e-07
6.87268e-07
6.16362e-07
5.53422e-07
4.97498e-07
4.47758e-07
4.03474e-07
3.64005e-07
3.28789e-07
2.97334e-07
2.69205e-07
2.44024e-07
2.21454e-07
2.01202e-07
1.83008e-07
1.66643e-07
1.51906e-07
1.38619e-07
1.21671e-06
1.08523e-06
9.69026e-07
8.66228e-07
7.75215e-07
6.94565e-07
6.23031e-07
5.59523e-07
5.03086e-07
4.5288e-07
4.08173e-07
3.6832e-07
3.32755e-07
3.00981e-07
2.72563e-07
2.47117e-07
2.24306e-07
2.03832e-07
1.85436e-07
1.68885e-07
1.53978e-07
1.40535e-07
1.23038e-06
1.09769e-06
9.80396e-07
8.76616e-07
7.84714e-07
7.0326e-07
6.30998e-07
5.66829e-07
5.09792e-07
4.59041e-07
4.13837e-07
3.73531e-07
3.37554e-07
3.05403e-07
2.76641e-07
2.5088e-07
2.2778e-07
2.07042e-07
1.88403e-07
1.7163e-07
1.56518e-07
1.42887e-07
1.24612e-06
1.11208e-06
9.93563e-07
8.88676e-07
7.95772e-07
7.13408e-07
6.40318e-07
5.75397e-07
5.17673e-07
4.66297e-07
4.20522e-07
3.79695e-07
3.4324e-07
3.10653e-07
2.8149e-07
2.55362e-07
2.31925e-07
2.10878e-07
1.91954e-07
1.74919e-07
1.59566e-07
1.45712e-07
1.26376e-06
1.12827e-06
1.00843e-06
9.02336e-07
8.08336e-07
7.24972e-07
6.5097e-07
5.85216e-07
5.26731e-07
4.74658e-07
4.28245e-07
3.86832e-07
3.49839e-07
3.16758e-07
2.87142e-07
2.60596e-07
2.36774e-07
2.15372e-07
1.96122e-07
1.78785e-07
1.63153e-07
1.49042e-07
1.28378e-06
1.14666e-06
1.02535e-06
9.17908e-07
8.22679e-07
7.38192e-07
6.63164e-07
5.96471e-07
5.37125e-07
4.84263e-07
4.37126e-07
3.95048e-07
3.57444e-07
3.23801e-07
2.93667e-07
2.66643e-07
2.42382e-07
2.20574e-07
2.00948e-07
1.83265e-07
1.67313e-07
1.52906e-07
1.30543e-06
1.16665e-06
1.0438e-06
9.34955e-07
8.38438e-07
7.52768e-07
6.76653e-07
6.0896e-07
5.48694e-07
4.94984e-07
4.47066e-07
4.04267e-07
3.65998e-07
3.3174e-07
3.01037e-07
2.73489e-07
2.48742e-07
2.26484e-07
2.06442e-07
1.88373e-07
1.72064e-07
1.57325e-07
1.32884e-06
1.18832e-06
1.06387e-06
9.53559e-07
8.55685e-07
7.68765e-07
6.91496e-07
6.22737e-07
5.61486e-07
5.06865e-07
4.58104e-07
4.14524e-07
3.75532e-07
3.40605e-07
3.09281e-07
2.81158e-07
2.55876e-07
2.33124e-07
2.12622e-07
1.94126e-07
1.7742e-07
1.62312e-07
1.3538e-06
1.21151e-06
1.08543e-06
9.73603e-07
8.74327e-07
7.86106e-07
7.0763e-07
6.37751e-07
5.7546e-07
5.19873e-07
4.70215e-07
4.25802e-07
3.86035e-07
3.50387e-07
3.18394e-07
2.89648e-07
2.63787e-07
2.40495e-07
2.19492e-07
2.00529e-07
1.83388e-07
1.67876e-07
1.35379e-06
1.21151e-06
1.08543e-06
9.73601e-07
8.74325e-07
7.86104e-07
7.07628e-07
6.37749e-07
5.75458e-07
5.19871e-07
4.70213e-07
4.258e-07
3.86033e-07
3.50386e-07
3.18393e-07
2.89647e-07
2.63787e-07
2.40495e-07
2.19492e-07
2.00529e-07
1.83389e-07
1.67877e-07
1.32883e-06
1.18831e-06
1.06386e-06
9.53551e-07
8.55678e-07
7.68759e-07
6.9149e-07
6.22731e-07
5.6148e-07
5.06859e-07
4.58098e-07
4.14519e-07
3.75528e-07
3.40602e-07
3.09279e-07
2.81156e-07
2.55876e-07
2.33124e-07
2.12622e-07
1.94126e-07
1.7742e-07
1.62313e-07
1.30542e-06
1.16663e-06
1.04378e-06
9.34941e-07
8.38425e-07
7.52756e-07
6.76642e-07
6.08949e-07
5.48684e-07
4.94975e-07
4.47058e-07
4.0426e-07
3.65992e-07
3.31735e-07
3.01034e-07
2.73486e-07
2.4874e-07
2.26483e-07
2.06441e-07
1.88373e-07
1.72063e-07
1.57324e-07
1.28376e-06
1.14664e-06
1.02532e-06
9.17888e-07
8.2266e-07
7.38175e-07
6.63149e-07
5.96456e-07
5.37113e-07
4.84252e-07
4.37117e-07
3.9504e-07
3.57438e-07
3.23795e-07
2.93662e-07
2.66639e-07
2.42378e-07
2.20571e-07
2.00946e-07
1.83263e-07
1.67311e-07
1.52905e-07
1.26373e-06
1.12824e-06
1.0084e-06
9.02311e-07
8.08312e-07
7.2495e-07
6.50951e-07
5.85199e-07
5.26716e-07
4.74645e-07
4.28233e-07
3.86822e-07
3.49831e-07
3.16751e-07
2.87135e-07
2.6059e-07
2.36769e-07
2.15367e-07
1.96117e-07
1.78781e-07
1.6315e-07
1.49039e-07
1.24608e-06
1.11205e-06
9.93533e-07
8.88648e-07
7.95746e-07
7.13383e-07
6.40296e-07
5.75377e-07
5.17655e-07
4.66281e-07
4.20509e-07
3.79683e-07
3.43229e-07
3.10644e-07
2.81482e-07
2.55355e-07
2.31919e-07
2.10873e-07
1.91949e-07
1.74915e-07
1.59562e-07
1.45709e-07
1.23034e-06
1.09766e-06
9.80364e-07
8.76586e-07
7.84687e-07
7.03234e-07
6.30974e-07
5.66807e-07
5.09771e-07
4.59023e-07
4.13821e-07
3.73517e-07
3.37541e-07
3.05393e-07
2.76632e-07
2.50872e-07
2.27774e-07
2.07037e-07
1.88399e-07
1.71626e-07
1.56515e-07
1.42883e-07
1.21667e-06
1.0852e-06
9.68994e-07
8.66198e-07
7.75187e-07
6.94538e-07
6.23006e-07
5.595e-07
5.03064e-07
4.52861e-07
4.08156e-07
3.68304e-07
3.32741e-07
3.00969e-07
2.72553e-07
2.47108e-07
2.24298e-07
2.03825e-07
1.8543e-07
1.6888e-07
1.53973e-07
1.4053e-07
1.20506e-06
1.07464e-06
9.5938e-07
8.57439e-07
7.67197e-07
6.87243e-07
6.16338e-07
5.53399e-07
4.97477e-07
4.47738e-07
4.03455e-07
3.63987e-07
3.28773e-07
2.97319e-07
2.69192e-07
2.44012e-07
2.21444e-07
2.01193e-07
1.83e-07
1.66636e-07
1.519e-07
1.38614e-07
1.19543e-06
1.06591e-06
9.51454e-07
8.50235e-07
7.60644e-07
6.81274e-07
6.10895e-07
5.48431e-07
4.92936e-07
4.43585e-07
3.99652e-07
3.60502e-07
3.25575e-07
2.94383e-07
2.66495e-07
2.41532e-07
2.19161e-07
1.99091e-07
1.81063e-07
1.6485e-07
1.50251e-07
1.37091e-07
1.18769e-06
1.05891e-06
9.45117e-07
8.44491e-07
7.5543e-07
6.76537e-07
6.06587e-07
5.44507e-07
4.8936e-07
4.40322e-07
3.96671e-07
3.57775e-07
3.23079e-07
2.92096e-07
2.64397e-07
2.39605e-07
2.17392e-07
1.97463e-07
1.79566e-07
1.63471e-07
1.48981e-07
1.3592e-07
1.18185e-06
1.05363e-06
9.40344e-07
8.40168e-07
7.51511e-07
6.7298e-07
6.03355e-07
5.41569e-07
4.86685e-07
4.37884e-07
3.94446e-07
3.55744e-07
3.21221e-07
2.90395e-07
2.62837e-07
2.38175e-07
2.16078e-07
1.96257e-07
1.78455e-07
1.62449e-07
1.4804e-07
1.35053e-07
1.17726e-06
1.04951e-06
9.36639e-07
8.36833e-07
7.48505e-07
6.70267e-07
6.00904e-07
5.39352e-07
4.84678e-07
4.36065e-07
3.92798e-07
3.54246e-07
3.19861e-07
2.89156e-07
2.61709e-07
2.37145e-07
2.15138e-07
1.95396e-07
1.77667e-07
1.61728e-07
1.47377e-07
1.34446e-07
1.17453e-06
1.04705e-06
9.34422e-07
8.34831e-07
7.46695e-07
6.68628e-07
5.99418e-07
5.38002e-07
4.83451e-07
4.34949e-07
3.91782e-07
3.53321e-07
3.19018e-07
2.88388e-07
2.61008e-07
2.36505e-07
2.14552e-07
1.94859e-07
1.77175e-07
1.61273e-07
1.46961e-07
1.3406e-07
1.17425e-06
1.04679e-06
9.34177e-07
8.34602e-07
7.46481e-07
6.68428e-07
5.9923e-07
5.37826e-07
4.83285e-07
4.34792e-07
3.91633e-07
3.53181e-07
3.18887e-07
2.88266e-07
2.60894e-07
2.364e-07
2.14453e-07
1.94768e-07
1.77088e-07
1.61193e-07
1.46884e-07
1.33987e-07
1.17432e-06
1.04686e-06
9.3424e-07
8.34662e-07
7.46538e-07
6.68481e-07
5.9928e-07
5.37872e-07
4.83327e-07
4.34831e-07
3.91669e-07
3.53214e-07
3.18916e-07
2.88292e-07
2.60918e-07
2.36421e-07
2.14472e-07
1.94785e-07
1.77104e-07
1.61206e-07
1.46897e-07
1.33999e-07
1.1746e-06
1.04712e-06
9.34485e-07
8.34891e-07
7.46751e-07
6.68681e-07
5.99467e-07
5.38047e-07
4.83492e-07
4.34986e-07
3.91815e-07
3.53351e-07
3.19045e-07
2.88412e-07
2.6103e-07
2.36524e-07
2.14569e-07
1.94875e-07
1.77188e-07
1.61287e-07
1.46972e-07
1.3407e-07
1.17732e-06
1.04957e-06
9.367e-07
8.36891e-07
7.48559e-07
6.70317e-07
6.0095e-07
5.39394e-07
4.84716e-07
4.36099e-07
3.92828e-07
3.54273e-07
3.19885e-07
2.89178e-07
2.61729e-07
2.37163e-07
2.15154e-07
1.95411e-07
1.77682e-07
1.6174e-07
1.47389e-07
1.34455e-07
1.18191e-06
1.05369e-06
9.404e-07
8.40221e-07
7.5156e-07
6.73025e-07
6.03396e-07
5.41606e-07
4.86718e-07
4.37913e-07
3.94473e-07
3.55767e-07
3.21243e-07
2.90414e-07
2.62855e-07
2.38191e-07
2.16093e-07
1.9627e-07
1.78468e-07
1.62461e-07
1.48051e-07
1.35064e-07
1.18774e-06
1.05896e-06
9.45167e-07
8.44537e-07
7.55473e-07
6.76577e-07
6.06623e-07
5.44541e-07
4.8939e-07
4.40349e-07
3.96696e-07
3.57798e-07
3.231e-07
2.92114e-07
2.64413e-07
2.39621e-07
2.17405e-07
1.97476e-07
1.79576e-07
1.63481e-07
1.48991e-07
1.35928e-07
1.19547e-06
1.06595e-06
9.51498e-07
8.50277e-07
7.60683e-07
6.8131e-07
6.10929e-07
5.48461e-07
4.92965e-07
4.43611e-07
3.99676e-07
3.60523e-07
3.25596e-07
2.94401e-07
2.66512e-07
2.41546e-07
2.19176e-07
1.99103e-07
1.81074e-07
1.64859e-07
1.50261e-07
1.37101e-07
1.2051e-06
1.07468e-06
9.5942e-07
8.57476e-07
7.67233e-07
6.87276e-07
6.16369e-07
5.53427e-07
4.97502e-07
4.47762e-07
4.03477e-07
3.64007e-07
3.28791e-07
2.97336e-07
2.69207e-07
2.44027e-07
2.21457e-07
2.01206e-07
1.8301e-07
1.66647e-07
1.51908e-07
1.38622e-07
1.21671e-06
1.08524e-06
9.69029e-07
8.66232e-07
7.75219e-07
6.94569e-07
6.23035e-07
5.59526e-07
5.03089e-07
4.52883e-07
4.08176e-07
3.68323e-07
3.32758e-07
3.00984e-07
2.72566e-07
2.4712e-07
2.24309e-07
2.03835e-07
1.85439e-07
1.68888e-07
1.53982e-07
1.40538e-07
1.23038e-06
1.09769e-06
9.80396e-07
8.76616e-07
7.84716e-07
7.03262e-07
6.31e-07
5.66832e-07
5.09794e-07
4.59044e-07
4.13841e-07
3.73536e-07
3.37558e-07
3.05408e-07
2.76646e-07
2.50884e-07
2.27785e-07
2.07046e-07
1.88407e-07
1.71633e-07
1.56521e-07
1.4289e-07
1.24611e-06
1.11208e-06
9.93563e-07
8.88677e-07
7.95773e-07
7.13409e-07
6.4032e-07
5.75399e-07
5.17676e-07
4.66301e-07
4.20527e-07
3.797e-07
3.43245e-07
3.10659e-07
2.81496e-07
2.55368e-07
2.31931e-07
2.10883e-07
1.91958e-07
1.74923e-07
1.59569e-07
1.45715e-07
1.26376e-06
1.12827e-06
1.00843e-06
9.02337e-07
8.08337e-07
7.24974e-07
6.50973e-07
5.85219e-07
5.26735e-07
4.74662e-07
4.28249e-07
3.86836e-07
3.49844e-07
3.16763e-07
2.87147e-07
2.60601e-07
2.3678e-07
2.15377e-07
1.96127e-07
1.78789e-07
1.63157e-07
1.49046e-07
1.28378e-06
1.14667e-06
1.02535e-06
9.17912e-07
8.22683e-07
7.38197e-07
6.63169e-07
5.96476e-07
5.3713e-07
4.84269e-07
4.37131e-07
3.95053e-07
3.57449e-07
3.23806e-07
2.93671e-07
2.66648e-07
2.42386e-07
2.20579e-07
2.00953e-07
1.8327e-07
1.67318e-07
1.52911e-07
1.30544e-06
1.16666e-06
1.0438e-06
9.34963e-07
8.38445e-07
7.52776e-07
6.76661e-07
6.08967e-07
5.48701e-07
4.94991e-07
4.47072e-07
4.04273e-07
3.66004e-07
3.31746e-07
3.01043e-07
2.73494e-07
2.48747e-07
2.26489e-07
2.06447e-07
1.88378e-07
1.72068e-07
1.57329e-07
1.32885e-06
1.18833e-06
1.06388e-06
9.5357e-07
8.55697e-07
7.68777e-07
6.91507e-07
6.22747e-07
5.61495e-07
5.06874e-07
4.58112e-07
4.14532e-07
3.7554e-07
3.40612e-07
3.09289e-07
2.81165e-07
2.55883e-07
2.3313e-07
2.12627e-07
1.94131e-07
1.77425e-07
1.62317e-07
1.35381e-06
1.21153e-06
1.08544e-06
9.73619e-07
8.74342e-07
7.8612e-07
7.07644e-07
6.37763e-07
5.75472e-07
5.19884e-07
4.70225e-07
4.25812e-07
3.86045e-07
3.50397e-07
3.18403e-07
2.89656e-07
2.63795e-07
2.40503e-07
2.19498e-07
2.00535e-07
1.83393e-07
1.67881e-07
1.35381e-06
1.21153e-06
1.08545e-06
9.7362e-07
8.74343e-07
7.86121e-07
7.07644e-07
6.37764e-07
5.75472e-07
5.19885e-07
4.70225e-07
4.25812e-07
3.86045e-07
3.50397e-07
3.18403e-07
2.89656e-07
2.63795e-07
2.40503e-07
2.19498e-07
2.00535e-07
1.83393e-07
1.6788e-07
1.32886e-06
1.18833e-06
1.06389e-06
9.53573e-07
8.55699e-07
7.68778e-07
6.91508e-07
6.22748e-07
5.61496e-07
5.06874e-07
4.58112e-07
4.14532e-07
3.7554e-07
3.40612e-07
3.09288e-07
2.81164e-07
2.55883e-07
2.3313e-07
2.12627e-07
1.94131e-07
1.77424e-07
1.62317e-07
1.30545e-06
1.16666e-06
1.04381e-06
9.34968e-07
8.38449e-07
7.52779e-07
6.76663e-07
6.08969e-07
5.48702e-07
4.94992e-07
4.47072e-07
4.04273e-07
3.66003e-07
3.31745e-07
3.01042e-07
2.73493e-07
2.48746e-07
2.26488e-07
2.06446e-07
1.88377e-07
1.72067e-07
1.57328e-07
1.28379e-06
1.14668e-06
1.02536e-06
9.1792e-07
8.2269e-07
7.38202e-07
6.63173e-07
5.96479e-07
5.37132e-07
4.84269e-07
4.37132e-07
3.95053e-07
3.57449e-07
3.23805e-07
2.9367e-07
2.66646e-07
2.42385e-07
2.20577e-07
2.00951e-07
1.83268e-07
1.67316e-07
1.52909e-07
1.26377e-06
1.12828e-06
1.00844e-06
9.02347e-07
8.08346e-07
7.24981e-07
6.50978e-07
5.85223e-07
5.26737e-07
4.74663e-07
4.28249e-07
3.86836e-07
3.49843e-07
3.16762e-07
2.87145e-07
2.60598e-07
2.36777e-07
2.15374e-07
1.96123e-07
1.78786e-07
1.63155e-07
1.49043e-07
1.24613e-06
1.1121e-06
9.93576e-07
8.88688e-07
7.95783e-07
7.13417e-07
6.40326e-07
5.75404e-07
5.17679e-07
4.66303e-07
4.20527e-07
3.79699e-07
3.43244e-07
3.10656e-07
2.81493e-07
2.55365e-07
2.31928e-07
2.1088e-07
1.91956e-07
1.7492e-07
1.59567e-07
1.45713e-07
1.23039e-06
1.09771e-06
9.80409e-07
8.76627e-07
7.84725e-07
7.03269e-07
6.31006e-07
5.66837e-07
5.09798e-07
4.59047e-07
4.13842e-07
3.73536e-07
3.37558e-07
3.05407e-07
2.76644e-07
2.50882e-07
2.27782e-07
2.07044e-07
1.88405e-07
1.71631e-07
1.56519e-07
1.42888e-07
1.21672e-06
1.08525e-06
9.69037e-07
8.66239e-07
7.75225e-07
6.94573e-07
6.23039e-07
5.5953e-07
5.03092e-07
4.52886e-07
4.08178e-07
3.68324e-07
3.32758e-07
3.00984e-07
2.72566e-07
2.47119e-07
2.24308e-07
2.03834e-07
1.85437e-07
1.68886e-07
1.53979e-07
1.40536e-07
1.2051e-06
1.07468e-06
9.59421e-07
8.57476e-07
7.67233e-07
6.87276e-07
6.16369e-07
5.53428e-07
4.97503e-07
4.47763e-07
4.03478e-07
3.64009e-07
3.28792e-07
2.97336e-07
2.69208e-07
2.44026e-07
2.21456e-07
2.01204e-07
1.83009e-07
1.66644e-07
1.51907e-07
1.3862e-07
1.19547e-06
1.06595e-06
9.51491e-07
8.5027e-07
7.60676e-07
6.81304e-07
6.10924e-07
5.48457e-07
4.92962e-07
4.43609e-07
3.99675e-07
3.60524e-07
3.25596e-07
2.94402e-07
2.66512e-07
2.41547e-07
2.19175e-07
1.99103e-07
1.81073e-07
1.64859e-07
1.50259e-07
1.37098e-07
1.18773e-06
1.05895e-06
9.45154e-07
8.44524e-07
7.55461e-07
6.76566e-07
6.06613e-07
5.44532e-07
4.89383e-07
4.40344e-07
3.96692e-07
3.57795e-07
3.23098e-07
2.92114e-07
2.64413e-07
2.39621e-07
2.17406e-07
1.97476e-07
1.79576e-07
1.6348e-07
1.48989e-07
1.35927e-07
1.18189e-06
1.05367e-06
9.40382e-07
8.40203e-07
7.51544e-07
6.7301e-07
6.03382e-07
5.41593e-07
4.86707e-07
4.37903e-07
3.94465e-07
3.55761e-07
3.21238e-07
2.90411e-07
2.62853e-07
2.3819e-07
2.16092e-07
1.96269e-07
1.78467e-07
1.62459e-07
1.48049e-07
1.3506e-07
1.1773e-06
1.04954e-06
9.36673e-07
8.36866e-07
7.48537e-07
6.70297e-07
6.00932e-07
5.39378e-07
4.84701e-07
4.36086e-07
3.92815e-07
3.54262e-07
3.19875e-07
2.8917e-07
2.61722e-07
2.37158e-07
2.15149e-07
1.95408e-07
1.77678e-07
1.61737e-07
1.47386e-07
1.34452e-07
1.17455e-06
1.04707e-06
9.34444e-07
8.34854e-07
7.46718e-07
6.68652e-07
5.99442e-07
5.38026e-07
4.83473e-07
4.3497e-07
3.918e-07
3.53337e-07
3.19031e-07
2.88399e-07
2.61018e-07
2.36514e-07
2.14559e-07
1.94867e-07
1.77182e-07
1.61281e-07
1.46967e-07
1.34067e-07
1.17426e-06
1.0468e-06
9.34187e-07
8.34613e-07
7.46493e-07
6.68441e-07
5.99244e-07
5.37841e-07
4.833e-07
4.34808e-07
3.91648e-07
3.53195e-07
3.18899e-07
2.88276e-07
2.60902e-07
2.36406e-07
2.14458e-07
1.94772e-07
1.77093e-07
1.61198e-07
1.4689e-07
1.33995e-07
1.17107e-06
1.17124e-06
1.17381e-06
1.17807e-06
1.18331e-06
1.19012e-06
1.19848e-06
1.20841e-06
1.21983e-06
1.23262e-06
1.24655e-06
1.26211e-06
1.27853e-06
1.29586e-06
1.31385e-06
1.24222e-06
1.21911e-06
1.19714e-06
1.17644e-06
1.15713e-06
1.13902e-06
1.12294e-06
1.10827e-06
1.09522e-06
1.0838e-06
1.07397e-06
1.0657e-06
1.05891e-06
1.0536e-06
1.05002e-06
1.03804e-06
1.03819e-06
1.04047e-06
1.04425e-06
1.04892e-06
1.05502e-06
1.06254e-06
1.07153e-06
1.08192e-06
1.0936e-06
1.1064e-06
1.12075e-06
1.13603e-06
1.15226e-06
1.16923e-06
1.10811e-06
1.08698e-06
1.06694e-06
1.0481e-06
1.03058e-06
1.01418e-06
9.99639e-07
9.86404e-07
9.74658e-07
9.64391e-07
9.55576e-07
9.48163e-07
9.42087e-07
9.3734e-07
9.34094e-07
9.21004e-07
9.21129e-07
9.23156e-07
9.26511e-07
9.30695e-07
9.36163e-07
9.42934e-07
9.51076e-07
9.60537e-07
9.71227e-07
9.82998e-07
9.96238e-07
1.01044e-06
1.02565e-06
1.04165e-06
9.89613e-07
9.70268e-07
9.51967e-07
9.34807e-07
9.18873e-07
9.0402e-07
8.90847e-07
8.78892e-07
8.68303e-07
8.59064e-07
8.51145e-07
8.44497e-07
8.39055e-07
8.34803e-07
8.31861e-07
8.17966e-07
8.18076e-07
8.19879e-07
8.22863e-07
8.26613e-07
8.31522e-07
8.3762e-07
8.44997e-07
8.53627e-07
8.63426e-07
8.74265e-07
8.86486e-07
8.99695e-07
9.13927e-07
9.29003e-07
8.84815e-07
8.67085e-07
8.50353e-07
8.34703e-07
8.20202e-07
8.06725e-07
7.94779e-07
7.83968e-07
7.7441e-07
7.66085e-07
7.58962e-07
7.52992e-07
7.48111e-07
7.44298e-07
7.41632e-07
7.27192e-07
7.2729e-07
7.28895e-07
7.31553e-07
7.3492e-07
7.39335e-07
7.44833e-07
7.51517e-07
7.59395e-07
7.68392e-07
7.78386e-07
7.89675e-07
8.01953e-07
8.15271e-07
8.29467e-07
7.92049e-07
7.75781e-07
7.60469e-07
7.46179e-07
7.32966e-07
7.20724e-07
7.09876e-07
7.00086e-07
6.91448e-07
6.83938e-07
6.77523e-07
6.72154e-07
6.67772e-07
6.64349e-07
6.61932e-07
6.47164e-07
6.47253e-07
6.48684e-07
6.51054e-07
6.54082e-07
6.58061e-07
6.63026e-07
6.69084e-07
6.76276e-07
6.84545e-07
6.93774e-07
7.04211e-07
7.15622e-07
7.28077e-07
7.41438e-07
7.09857e-07
6.94915e-07
6.80886e-07
6.67825e-07
6.55772e-07
6.44637e-07
6.34775e-07
6.25899e-07
6.18082e-07
6.11297e-07
6.05513e-07
6.0068e-07
5.9674e-07
5.93663e-07
5.91471e-07
5.76558e-07
5.76639e-07
5.77917e-07
5.80032e-07
5.8276e-07
5.86354e-07
5.90845e-07
5.96339e-07
6.02904e-07
6.1051e-07
6.19044e-07
6.28704e-07
6.39308e-07
6.50949e-07
6.63515e-07
6.36963e-07
6.23227e-07
6.10358e-07
5.98406e-07
5.87401e-07
5.77261e-07
5.68285e-07
5.60226e-07
5.53143e-07
5.47008e-07
5.41784e-07
5.37428e-07
5.33881e-07
5.31111e-07
5.29124e-07
5.14215e-07
5.14291e-07
5.15433e-07
5.17324e-07
5.19783e-07
5.23035e-07
5.27108e-07
5.32096e-07
5.38088e-07
5.45084e-07
5.52983e-07
5.61935e-07
5.71793e-07
5.82664e-07
5.94474e-07
5.7225e-07
5.59612e-07
5.47795e-07
5.36846e-07
5.26785e-07
5.17541e-07
5.09362e-07
5.02036e-07
4.9561e-07
4.90054e-07
4.85333e-07
4.814e-07
4.78203e-07
4.75708e-07
4.73906e-07
4.59124e-07
4.59196e-07
4.60219e-07
4.6191e-07
4.6413e-07
4.67077e-07
4.70778e-07
4.75316e-07
4.80784e-07
4.87216e-07
4.94533e-07
5.0284e-07
5.1201e-07
5.22156e-07
5.33245e-07
5.1474e-07
5.03105e-07
4.92242e-07
4.82199e-07
4.72993e-07
4.64557e-07
4.57094e-07
4.50427e-07
4.4459e-07
4.39553e-07
4.35279e-07
4.31725e-07
4.28839e-07
4.26588e-07
4.24954e-07
4.10401e-07
4.10468e-07
4.11387e-07
4.12901e-07
4.14907e-07
4.1758e-07
4.20951e-07
4.25088e-07
4.30081e-07
4.35991e-07
4.42768e-07
4.50485e-07
4.59024e-07
4.6849e-07
4.78889e-07
4.63573e-07
4.52857e-07
4.42863e-07
4.33641e-07
4.25207e-07
4.17501e-07
4.10685e-07
4.0461e-07
3.99301e-07
3.94728e-07
3.90854e-07
3.87638e-07
3.85031e-07
3.82998e-07
3.81515e-07
3.67271e-07
3.67335e-07
3.68162e-07
3.69519e-07
3.71333e-07
3.73761e-07
3.76835e-07
3.80615e-07
3.8518e-07
3.90608e-07
3.96882e-07
4.04056e-07
4.12014e-07
4.20849e-07
4.3059e-07
4.18001e-07
4.08125e-07
3.98926e-07
3.90449e-07
3.82713e-07
3.75666e-07
3.69435e-07
3.63894e-07
3.59059e-07
3.54901e-07
3.51386e-07
3.48472e-07
3.46113e-07
3.44274e-07
3.4293e-07
3.29058e-07
3.29119e-07
3.29864e-07
3.31083e-07
3.32725e-07
3.34931e-07
3.37739e-07
3.412e-07
3.45382e-07
3.50366e-07
3.56169e-07
3.62839e-07
3.70264e-07
3.78514e-07
3.87631e-07
3.77366e-07
3.68258e-07
3.59787e-07
3.51989e-07
3.44886e-07
3.38433e-07
3.32731e-07
3.27671e-07
3.23263e-07
3.19479e-07
3.16285e-07
3.13641e-07
3.11505e-07
3.09839e-07
3.08619e-07
2.95171e-07
2.95227e-07
2.959e-07
2.96997e-07
2.98485e-07
3.00492e-07
3.03058e-07
3.06232e-07
3.10071e-07
3.14651e-07
3.20012e-07
3.26211e-07
3.33143e-07
3.40853e-07
3.49385e-07
3.41094e-07
3.32687e-07
3.24881e-07
3.17705e-07
3.11176e-07
3.05261e-07
3.00037e-07
2.95411e-07
2.91388e-07
2.8794e-07
2.85035e-07
2.82633e-07
2.80695e-07
2.79186e-07
2.78078e-07
2.6509e-07
2.65142e-07
2.6575e-07
2.66739e-07
2.6809e-07
2.69916e-07
2.72263e-07
2.75177e-07
2.78709e-07
2.82923e-07
2.87873e-07
2.93628e-07
3.00101e-07
3.07313e-07
3.15297e-07
3.08683e-07
3.00911e-07
2.93715e-07
2.87108e-07
2.81103e-07
2.75674e-07
2.70883e-07
2.6665e-07
2.62974e-07
2.59828e-07
2.57182e-07
2.54998e-07
2.53238e-07
2.51868e-07
2.50862e-07
2.38362e-07
2.38409e-07
2.38958e-07
2.39852e-07
2.4108e-07
2.42744e-07
2.44891e-07
2.47569e-07
2.50823e-07
2.54708e-07
2.59279e-07
2.64614e-07
2.70657e-07
2.77407e-07
2.84883e-07
2.7969e-07
2.72496e-07
2.65855e-07
2.5977e-07
2.54244e-07
2.49255e-07
2.44856e-07
2.40979e-07
2.37617e-07
2.34743e-07
2.3233e-07
2.30342e-07
2.28741e-07
2.27496e-07
2.26582e-07
2.14588e-07
2.14632e-07
2.15128e-07
2.15936e-07
2.17055e-07
2.18572e-07
2.20538e-07
2.22999e-07
2.26e-07
2.29589e-07
2.33813e-07
2.38756e-07
2.44389e-07
2.50709e-07
2.57713e-07
2.53723e-07