/*--------------------------------*- C++ -*----------------------------------*\
| =========                 |                                                 |
| \\      /  F ield         | OpenFOAM Extend Project: Open source CFD        |
|  \\    /   O peration     | Version:  1.6-ext                               |
|   \\  /    A nd           | Web:      www.extend-project.de                 |
|    \\/     M anipulation  |                                                 |
\*---------------------------------------------------------------------------*/
FoamFile
{
    version     2.0;
    format      ascii;
    class       volSymmTensorField;
    location    "0.6";
    object      DSigma;
}
// * * * * * * * * * * * * * * * * * * * * * * * * * * * * * * * * * * * * * //

dimensions      [1 -1 -2 0 0 0 0];

internalField   nonuniform List<symmTensor> 
328
(
(0.0836637 0.0148988 -2.93567e-24 0.0298778 1.59761e-20 0.0454166)
(0.0651776 0.00496808 4.39223e-27 0.0362885 -5.8675e-28 0.0405864)
(0.0589154 -0.00745442 7.29965e-26 0.0334538 -1.20207e-25 0.0369477)
(0.0600245 -0.0128415 1.04266e-23 0.0214481 -5.2033e-20 0.0325891)
(0.0783856 0.0102124 -1.21934e-23 0.0184006 -1.93939e-20 0.0387145)
(0.0652897 0.00435418 1.08297e-25 0.0248873 -8.60635e-27 0.0360708)
(0.0590616 -0.00600504 -5.62362e-25 0.023885 5.95641e-25 0.0331787)
(0.0554412 -0.0090294 -1.40765e-23 0.0125965 1.99917e-20 0.0272151)
(0.0771981 0.00636566 1.36799e-23 0.0117079 -2.20637e-21 0.0355624)
(0.0688916 0.0034796 -7.43465e-24 0.0184041 -2.23432e-24 0.0349183)
(0.0621805 -0.00455028 0 0.0182377 0 0.0321673)
(0.0539925 -0.00578541 -6.02658e-24 0.00728286 6.81705e-23 0.0245101)
(0.0755602 0.00362198 -7.47769e-24 0.00708887 2.03153e-20 0.0330596)
(0.0697605 0.00242924 7.85808e-24 0.0124195 2.90872e-24 0.032872)
(0.0630432 -0.00313885 1.10375e-24 0.01294 -9.11436e-25 0.0303933)
(0.0523707 -0.00341089 2.00715e-23 0.00356097 -3.73537e-20 0.0223727)
(0.0749771 0.00181572 -7.44926e-23 0.00442961 -1.25827e-21 0.0317627)
(0.0708058 0.00144379 -3.32757e-23 0.00840158 -1.14802e-23 0.0316829)
(0.0640376 -0.00195851 -2.62884e-23 0.00928653 7.50522e-24 0.0293297)
(0.0516469 -0.00180924 -9.34257e-24 0.00135498 3.50971e-20 0.0212008)
(0.074667 0.000674049 7.08799e-23 0.0028605 1.5906e-20 0.031011)
(0.0710208 0.000628334 9.94822e-23 0.00529957 2.91981e-23 0.0305281)
(0.0643064 -0.00103792 2.45112e-23 0.00643727 -6.99784e-24 0.0282975)
(0.0512217 -0.000771591 2.92784e-24 1.63988e-05 -1.5013e-20 0.0204953)
(0.074737 5.40639e-06 -4.15194e-24 0.0020534 -2.78852e-20 0.0307162)
(0.0710522 3.39308e-05 -1.40525e-22 0.00319267 -3.6955e-23 0.0296979)
(0.0643848 -0.00039366 8.13458e-24 0.00447653 -3.31981e-24 0.0275445)
(0.0511477 -0.000147251 -1.7519e-23 -0.000704035 4.22811e-20 0.0201775)
(0.0749832 -0.000348188 -1.04323e-22 0.00168349 2.42386e-20 0.0306667)
(0.0708051 -0.000349392 -2.87762e-23 0.00173378 -8.71088e-24 0.0290155)
(0.0641951 1.26596e-05 -9.26544e-24 0.00311603 2.87709e-24 0.0269245)
(0.0512496 0.000194137 -6.17481e-23 -0.00105788 -2.61866e-20 0.0200767)
(0.0753485 -0.000495745 1.09228e-22 0.00157687 -2.34771e-20 0.0307701)
(0.0704661 -0.000553275 -1.71235e-23 0.000807102 -3.92286e-24 0.0285093)
(0.0639002 0.000226867 0 0.00225314 0 0.0264613)
(0.0514649 0.000345933 7.79591e-23 -0.00118393 1.28871e-20 0.0201124)
(0.0757491 -0.00051855 2.29175e-22 0.00160842 1.19448e-20 0.030943)
(0.070068 -0.000623847 1.52735e-22 0.000244019 3.91484e-23 0.0281248)
(0.0635347 0.000304032 -2.53489e-23 0.00173616 -3.18929e-24 0.0261083)
(0.0517144 0.000380303 -1.22915e-23 -0.00118515 -2.41225e-20 0.0202117)
(0.0761395 -0.000472186 -5.20959e-22 0.00170587 -1.03169e-20 0.0311381)
(0.0696771 -0.000605916 0 -6.08369e-05 0 0.0278465)
(0.0631615 0.000292977 0 0.00146567 0 0.0258509)
(0.0519522 0.000348284 -3.98072e-24 -0.00112335 1.10647e-20 0.0203315)
(0.076485 -0.000394915 2.58014e-22 0.00182409 9.31005e-21 0.0313236)
(0.0693172 -0.000538693 -2.67332e-22 -0.000201892 -7.22746e-23 0.0276461)
(0.0628063 0.000234507 -2.37945e-22 0.0013521 -2.23243e-23 0.0256634)
(0.0521443 0.000285781 2.33717e-22 -0.0010387 -9.16453e-22 0.0204422)
(0.0767688 -0.000310872 8.11666e-23 0.0019385 -7.74117e-21 0.0314829)
(0.0690062 -0.000451735 2.4926e-22 -0.000244315 6.73886e-23 0.0275048)
(0.0624881 0.000158069 2.21859e-22 0.00133252 2.08151e-23 0.0255283)
(0.0522738 0.000215828 -2.44971e-22 -0.000954009 4.10664e-22 0.0205279)
(0.0769849 -0.000234166 7.80551e-23 0.00203684 7.96593e-21 0.0316087)
(0.0687458 -0.000365137 -6.63645e-23 -0.000235775 -1.5146e-23 0.027404)
(0.0622107 8.26302e-05 3.31366e-22 0.00136092 6.23516e-23 0.0254287)
(0.0523341 0.000151826 -1.61278e-25 -0.000881355 3.35805e-22 0.0205811)
(0.0771359 -0.000171525 -1.55444e-22 0.0021151 1.05798e-23 0.0317004)
(0.068531 -0.000290505 -1.55812e-22 -0.00020636 -4.36699e-23 0.0273298)
(0.0619706 1.8047e-05 -1.24031e-22 0.00140819 -2.63874e-23 0.0253515)
(0.0523264 9.99563e-05 -3.59287e-22 -0.000825378 -1.32025e-20 0.0206004)
(0.077229 -0.000124847 2.6869e-27 0.00217412 -4.73803e-24 0.0317612)
(0.0683512 -0.000233052 2.90187e-22 -0.000173838 9.39299e-23 0.0272709)
(0.0617585 -3.24965e-05 0 0.00145738 0 0.0252863)
(0.0522559 6.15499e-05 -3.25538e-23 -0.000786293 1.18615e-20 0.0205878)
(0.077274 -9.30863e-05 -7.45118e-22 0.00221743 5.30605e-22 0.0317966)
(0.0681941 -0.000193614 1.50486e-22 -0.00014671 4.91098e-23 0.027219)
(0.0615626 -7.00698e-05 -1.50488e-22 0.00150052 -4.91105e-23 0.0252253)
(0.0521285 3.50717e-05 1.17866e-22 -0.000762027 3.53369e-21 0.0205466)
(0.0772809 -7.3725e-05 8.73532e-22 0.00224958 -8.0792e-21 0.0318122)
(0.0680474 -0.000170414 -1.82204e-23 -0.000127786 -1.69569e-23 0.0271678)
(0.0613707 -9.77487e-05 -1.55529e-22 0.00153536 -5.66404e-23 0.0251624)
(0.051949 1.77207e-05 1.21316e-22 -0.000749625 -3.30266e-21 0.0204798)
(0.0772584 -6.37334e-05 3.5248e-22 0.00227515 8.08924e-21 0.0318134)
(0.0678999 -0.000160311 -6.78382e-22 -0.000116655 -2.91015e-22 0.0271133)
(0.061171 -0.000118897 3.20369e-22 0.00156267 1.29735e-22 0.0250935)
(0.0517197 6.57635e-06 -5.47555e-22 -0.000746387 -8.2281e-21 0.0203893)
(0.0772132 -6.01092e-05 3.67705e-22 0.00229811 2.61301e-22 0.0318045)
(0.0677422 -0.000159535 -3.67778e-22 -0.000111583 -1.77027e-22 0.0270522)
(0.060953 -0.000135992 2.90057e-22 0.00158464 1.2236e-22 0.0250151)
(0.05144 -6.88681e-07 4.72362e-22 -0.000750056 6.41762e-21 0.020276)
(0.0771489 -6.01898e-05 8.34488e-22 0.00232117 -4.68597e-21 0.031788)
(0.0675658 -0.000164129 3.36862e-22 -0.000110855 1.67226e-22 0.026982)
(0.0607072 -0.000150095 -3.36865e-22 0.00160331 -1.67228e-22 0.0249242)
(0.0511071 -5.46729e-06 -5.84103e-22 -0.00075935 6.55811e-21 0.0201391)
(0.0770671 -6.14869e-05 -8.52679e-22 0.00234686 5.53706e-23 0.0317656)
(0.0673641 -0.00017008 -1.4586e-21 -0.000112449 -8.04782e-22 0.0269007)
(0.0604263 -0.000160833 8.22991e-23 0.00162098 4.36057e-23 0.0248189)
(0.0507179 -8.35658e-06 2.26237e-21 -0.000772705 -2.51193e-21 0.0199781)
(0.0769572 -6.21901e-05 7.33415e-22 0.00237468 4.17007e-21 0.0317328)
(0.0671193 -0.00017303 0 -0.000117003 0 0.0268009)
(0.060089 -0.000166032 1.22142e-21 0.00163842 7.76835e-22 0.0246909)
(0.0502505 -8.30675e-06 -1.08939e-21 -0.000790868 8.7646e-23 0.0197839)
(0.0768159 -6.28222e-05 3.0673e-25 0.00240574 -3.43828e-22 0.0316887)
(0.0668322 -0.000173763 -1.51032e-21 -0.000122007 -1.02381e-21 0.0266841)
(0.0597003 -0.00016762 7.02317e-22 0.00165742 5.03303e-22 0.0245431)
(0.0497178 -6.59604e-06 -6.3044e-22 -0.00081028 -2.33518e-23 0.019563)
(0.0766448 -6.14789e-05 -9.67858e-22 0.00243621 -6.53546e-22 0.0316324)
(0.0665157 -0.000169216 -6.51509e-23 -0.000128071 -9.45339e-23 0.0265551)
(0.0592822 -0.000163396 7.59809e-23 0.00167502 6.63913e-23 0.0243829)
(0.0491549 -2.88135e-06 -5.64517e-22 -0.000830941 -5.39092e-22 0.0193296)
(0.076439 -5.85952e-05 -1.03095e-21 0.00246476 -3.89293e-22 0.0315615)
(0.0661693 -0.000160343 8.58391e-22 -0.000134855 6.39179e-22 0.0264138)
(0.0588369 -0.000154629 7.91977e-22 0.00169144 7.34828e-22 0.0242113)
(0.0485694 2.38773e-06 6.28059e-22 -0.000851448 4.39816e-21 0.0190872)
(0.0761949 -5.50848e-05 3.78331e-23 0.00249017 5.01378e-22 0.031474)
(0.0657916 -0.000149165 1.01131e-21 -0.000142871 8.18844e-22 0.0262595)
(0.0583647 -0.00014342 -8.15464e-22 0.00170582 -7.02114e-22 0.0240282)
(0.0479644 8.41483e-06 -7.04368e-22 -0.000871942 -4.05651e-21 0.018837)
(0.0759111 -5.18758e-05 1.10399e-21 0.00251186 3.74316e-22 0.0313692)
(0.0653823 -0.000137699 1.05166e-21 -0.000152435 9.73375e-22 0.0260919)
(0.0578661 -0.00013176 -1.7658e-21 0.00171757 -1.78932e-21 0.0238335)
(0.0473416 1.44925e-05 9.22804e-22 -0.000892885 4.48784e-22 0.0185795)
(0.075588 -4.96964e-05 -2.26299e-25 0.0025296 2.32655e-22 0.0312471)
(0.0649413 -0.000127447 -1.05166e-21 -0.000163978 -9.73375e-22 0.0259109)
(0.0573411 -0.00012107 1.90863e-21 0.00172607 1.99693e-21 0.0236269)
(0.0467003 2.01973e-05 -1.56302e-21 -0.000915127 -1.37159e-21 0.0183141)
(0.075227 -4.89308e-05 -2.81878e-24 0.00254347 2.89951e-21 0.0311082)
(0.0644688 -0.000119054 0 -0.000177872 0 0.0257164)
(0.0567893 -0.000111907 -9.8177e-22 0.00173085 -1.06293e-21 0.0234081)
(0.0460391 2.54698e-05 -8.94481e-22 -0.000939635 -3.36507e-22 0.0180398)
(0.0748295 -4.95981e-05 -1.28375e-21 0.00255363 -5.26369e-22 0.0309532)
(0.0639651 -0.000112258 1.46462e-22 -0.000194418 4.20305e-23 0.0255083)
(0.0562101 -0.000103905 4.65816e-23 0.00173153 -5.62305e-23 0.0231766)
(0.0453558 3.06385e-05 8.95877e-22 -0.000967279 -1.11891e-21 0.0177554)
(0.0743961 -5.1403e-05 3.09001e-24 0.00256025 -3.231e-21 0.0307826)
(0.0634298 -0.000106016 1.08705e-22 -0.000213758 9.89272e-23 0.0252864)
(0.055603 -9.59188e-05 3.32314e-21 0.00172789 4.19618e-21 0.0229324)
(0.0446492 3.63502e-05 -1.04114e-21 -0.000998624 1.07323e-21 0.0174602)
(0.0739263 -5.38289e-05 -1.53429e-21 0.00256339 -7.95828e-22 0.0305959)
(0.0628627 -9.87526e-05 -1.30315e-21 -0.000235836 -1.54077e-21 0.0250507)
(0.054968 -8.62783e-05 1.08717e-21 0.00171981 1.56736e-21 0.0226751)
(0.0439192 4.34557e-05 -1.08782e-21 -0.0010338 -8.57203e-22 0.0171542)
(0.0734174 -5.62573e-05 3.06851e-21 0.00256298 1.66629e-21 0.0303921)
(0.0622627 -8.86645e-05 -4.21629e-21 -0.000260343 -5.46032e-21 0.0248009)
(0.054305 -7.30949e-05 1.30859e-21 0.00170732 1.77055e-21 0.0224049)
(0.0431673 5.28767e-05 -2.46627e-24 -0.00107242 2.68218e-21 0.016838)
(0.0728652 -5.80749e-05 3.33496e-21 0.00255885 1.58166e-21 0.0301696)
(0.0616283 -7.40111e-05 1.42573e-21 -0.000286696 1.8782e-21 0.0245366)
(0.0536145 -5.45602e-05 -1.18191e-21 0.00169061 -1.91513e-21 0.0221221)
(0.0423968 6.54749e-05 3.29944e-21 -0.00111356 -2.25567e-21 0.0165133)
(0.0722637 -5.87623e-05 -1.67275e-21 0.0025508 -2.56564e-21 0.0299258)
(0.0609576 -5.33512e-05 -1.35421e-21 -0.000314021 -2.21214e-21 0.0242574)
(0.0528975 -2.91878e-05 7.08215e-23 0.00167002 -8.00908e-23 0.021827)
(0.0416123 8.19459e-05 -1.11485e-21 -0.00115577 2.10728e-21 0.0161826)
(0.0716058 -5.79479e-05 -1.7445e-21 0.00253866 6.86022e-22 0.0296578)
(0.0602486 -2.57003e-05 1.54587e-21 -0.000341168 2.25235e-21 0.023963)
(0.0521549 4.02327e-06 1.34941e-21 0.00164607 2.21594e-21 0.0215204)
(0.0408197 0.000102745 1.19432e-21 -0.00119721 1.08947e-21 0.015849)
(0.070884 -5.54287e-05 -1.87907e-21 0.00252239 -1.28456e-21 0.0293626)
(0.0594988 9.39804e-06 -1.6633e-21 -0.000366732 -2.6638e-21 0.0236528)
(0.0513879 4.55135e-05 0 0.0016195 0 0.021203)
(0.0400253 0.00012805 -1.19532e-21 -0.00123568 2.0678e-22 0.0155159)
(0.0700905 -5.11614e-05 1.87809e-21 0.00250215 2.49391e-21 0.029037)
(0.058706 5.1878e-05 1.6633e-21 -0.000389094 2.6638e-21 0.0233268)
(0.050598 9.51643e-05 0 0.00159119 0 0.0208757)
(0.0392359 0.000157757 3.79417e-24 -0.00126877 -4.92794e-21 0.0151869)
(0.0692178 -4.52321e-05 2.01255e-21 0.00247835 7.59408e-22 0.0286785)
(0.0578679 0.000101215 0 -0.000406469 0 0.0229846)
(0.0497865 0.00015236 -1.40613e-21 0.00156227 -2.94743e-21 0.0205395)
(0.0384579 0.000191504 2.71881e-21 -0.00129394 3.01685e-21 0.0148656)
(0.0682596 -3.78155e-05 -3.93824e-21 0.00245163 -2.50796e-21 0.0282845)
(0.0569828 0.00015652 3.7583e-21 -0.000416971 6.602e-21 0.0226263)
(0.0489547 0.000216081 -1.59109e-21 0.001534 -3.31762e-21 0.0201955)
(0.0376971 0.000228706 -1.31169e-21 -0.00130864 -1.35391e-21 0.0145554)
(0.0672106 -2.91337e-05 -2.14079e-21 0.00242292 -2.41714e-21 0.0278534)
(0.0560491 0.000216646 -9.57793e-23 -0.000418681 1.04873e-22 0.0222522)
(0.0481037 0.000285013 -1.46712e-22 0.00150777 -1.38735e-22 0.0198446)
(0.0369585 0.000268602 -2.10627e-24 -0.00131041 3.25886e-21 0.0142592)
(0.0660671 -1.9423e-05 4.1867e-21 0.00239331 2.68349e-21 0.0273842)
(0.055066 0.00028028 -1.07248e-21 -0.000409724 -1.81741e-21 0.0218625)
(0.0472346 0.000357638 0 0.00148509 0 0.0194879)
(0.0362459 0.000310297 5.64802e-22 -0.00129691 5.21449e-22 0.0139796)
(0.0648267 -8.91172e-06 1.13245e-21 0.00236405 1.99949e-21 0.0268763)
(0.0540331 0.000346014 2.65175e-23 -0.000388344 1.33139e-22 0.0214579)
(0.0463484 0.000432319 -1.64921e-21 0.00146745 -4.01666e-21 0.0191264)
(0.0355624 0.000352802 1.42314e-21 -0.00126607 2.51181e-22 0.0137185)
(0.063489 2.1889e-06 -2.21244e-21 0.00233647 -2.89108e-21 0.0263302)
(0.0529507 0.000412396 8.14731e-23 -0.000352992 7.72775e-23 0.0210391)
(0.045446 0.00050735 -2.17146e-23 0.00145631 -1.37927e-22 0.0187609)
(0.0349096 0.000395065 7.29459e-22 -0.00121615 -9.3958e-23 0.0134774)
(0.062055 1.36846e-05 -1.1797e-24 0.00231186 2.55947e-21 0.0257468)
(0.0518196 0.000477964 9.66212e-22 -0.000302396 2.26121e-21 0.0206069)
(0.0445282 0.000581001 -8.12247e-23 0.00145302 -7.78105e-23 0.0183925)
(0.0342884 0.000436005 -2.2159e-25 -0.00114577 4.83928e-22 0.0132571)
(0.0605276 2.53926e-05 -1.13338e-21 0.00229145 -4.76786e-21 0.0251276)
(0.0506414 0.000541262 6.02442e-23 -0.000235644 -6.49681e-23 0.0201623)
(0.0435955 0.00065155 8.29768e-23 0.00145872 8.02755e-23 0.0180217)
(0.0336983 0.000474534 7.63203e-22 -0.00105407 1.08435e-21 0.0130577)
(0.0589113 3.71352e-05 -6.54485e-25 0.00227629 1.80834e-21 0.024475)
(0.0494183 0.000600876 -1.03605e-21 -0.00015224 -2.70398e-21 0.0197064)
(0.0426488 0.000717319 8.47745e-23 0.00147427 8.16493e-23 0.0176492)
(0.0331378 0.000509595 1.57795e-21 -0.000940721 -6.44748e-22 0.0128788)
(0.0572121 4.87377e-05 1.97822e-21 0.00226725 3.36626e-21 0.0237917)
(0.048153 0.000655459 2.13214e-21 -5.21597e-05 5.34341e-21 0.0192403)
(0.0416885 0.000776723 -1.03385e-21 0.00150024 -2.70613e-21 0.0172755)
(0.0326043 0.000540194 -7.97039e-22 -0.000805992 1.20472e-22 0.0127193)
(0.0554378 6.00304e-05 1.37145e-23 0.00226492 -1.93287e-21 0.0230811)
(0.0468491 0.000703783 0 6.41199e-05 0 0.0187653)
(0.0407152 0.000828322 4.49388e-22 0.00153678 1.42484e-21 0.0169008)
(0.0320945 0.000565439 -7.87307e-23 -0.000650799 5.19693e-22 0.0125775)
(0.0535973 7.08576e-05 1.32893e-21 0.00226961 2.08509e-21 0.0223468)
(0.0455102 0.000744793 -1.73945e-21 0.000195609 -4.58441e-21 0.0182823)
(0.0397292 0.000870893 7.99521e-23 0.00158368 6.10496e-24 0.0165251)
(0.0316037 0.000584587 8.04273e-23 -0.000476696 -5.27358e-22 0.0124508)
(0.0517005 8.10881e-05 -1.714e-21 0.00228131 -1.9432e-21 0.0215927)
(0.0441409 0.000777667 5.83458e-22 0.000340818 1.55506e-21 0.0177927)
(0.0387309 0.000903491 0 0.0016403 0 0.0161485)
(0.0311269 0.000597079 -2.14765e-22 -0.000285849 -1.02125e-21 0.0123364)
(0.0497584 9.06262e-05 3.1463e-22 0.00229967 3.39813e-22 0.0208232)
(0.0427455 0.000801862 -3.20468e-22 0.000497792 -8.41225e-22 0.0172973)
(0.0377205 0.00092551 0 0.00170558 0 0.0157705)
(0.0306582 0.000602573 -3.77206e-24 -8.09707e-05 9.46937e-23 0.0122309)
(0.0477822 9.9418e-05 3.4415e-22 0.00232401 1.02129e-22 0.0200425)
(0.0413288 0.000817145 0 0.000664173 0 0.0167972)
(0.0366985 0.00093671 0 0.00177813 0 0.0153906)
(0.0301916 0.000600965 2.18521e-22 0.000134771 1.36722e-21 0.0121305)
(0.045783 0.00010745 -1.54105e-22 0.00235335 -1.03954e-22 0.0192545)
(0.0398956 0.000823597 8.27826e-23 0.000837274 2.31537e-22 0.0162932)
(0.0356649 0.000937224 0 0.00185621 0 0.0150085)
(0.0297209 0.00059239 -7.88241e-23 0.000357877 -1.2822e-21 0.0120315)
(0.0437719 0.000114738 -1.12274e-22 0.00238637 1.0879e-22 0.0184633)
(0.0384506 0.000821575 0 0.00101418 0 0.0157859)
(0.0346202 0.000927521 -3.11726e-23 0.00193784 -1.20493e-22 0.0146232)
(0.0292402 0.000577207 8.51296e-23 0.000584652 8.03157e-22 0.0119299)
(0.0417591 0.000121305 2.60526e-22 0.00242156 3.72558e-22 0.0176723)
(0.0369981 0.000811649 -3.18996e-22 0.00119183 -1.01204e-21 0.015276)
(0.0335644 0.000908337 1.48534e-22 0.00202089 5.05301e-22 0.0142341)
(0.0287438 0.000555961 -1.0446e-22 0.000811343 4.29882e-23 0.0118221)
(0.0397542 0.000127153 1.99991e-23 0.00245721 -2.82627e-23 0.0168846)
(0.0355423 0.000794512 0 0.00136715 0 0.0147638)
(0.032498 0.000880575 -2.80889e-22 0.00210314 -1.0764e-21 0.0138405)
(0.0282266 0.000529335 4.48269e-22 0.00103428 8.86491e-22 0.0117043)
(0.0377657 0.000132235 -2.47357e-23 0.00249153 1.75473e-23 0.0161029)
(0.0340867 0.000770876 3.29472e-22 0.00153715 1.124e-21 0.0142496)
(0.0314211 0.0008452 5.41215e-22 0.00218239 2.17424e-21 0.0134414)
(0.0276839 0.000498095 -7.35811e-22 0.00124997 -1.46896e-21 0.0115735)
(0.0358009 0.000136426 -7.0777e-22 0.00252277 -1.16313e-21 0.0153295)
(0.0326348 0.00074138 3.78474e-22 0.001699 1.17186e-21 0.0137335)
(0.030334 0.000803129 0 0.00225657 0 0.0130362)
(0.0271116 0.000463029 2.39419e-22 0.00145522 5.51682e-22 0.0114267)
(0.0338666 0.000139514 -8.06432e-22 0.00254929 -1.18241e-21 0.0145663)
(0.0311892 0.000706521 0 0.00185012 0 0.0132157)
(0.0292366 0.00075516 -5.83008e-22 0.0023238 -2.42603e-21 0.0126241)
(0.0265059 0.0004249 -4.42541e-22 0.00164718 -1.04907e-21 0.0112612)
(0.0319685 0.000141204 8.14275e-22 0.00256969 1.2405e-21 0.0138153)
(0.0297525 0.000666637 0 0.00198827 0 0.0126963)
(0.0281288 0.000701937 5.83008e-22 0.00238248 2.42603e-21 0.0122045)
(0.0258631 0.000384421 4.48384e-22 0.00182336 1.02862e-21 0.0110746)
(0.0301119 0.000141146 7.29877e-22 0.00258292 1.2794e-21 0.0130779)
(0.0283267 0.000621937 -7.30199e-22 0.00211158 -2.57042e-21 0.0121753)
(0.0270104 0.000643971 0 0.00243136 0 0.0117767)
(0.0251796 0.000342243 -9.57357e-22 0.00198171 -2.26826e-21 0.0108645)
(0.0283015 0.000138987 -1.56494e-21 0.00258834 -2.87236e-21 0.0123559)
(0.0269133 0.000572592 7.36793e-22 0.00221862 2.66272e-21 0.0116528)
(0.0258806 0.000581726 6.01736e-22 0.00246955 2.7035e-21 0.0113401)
(0.0244514 0.000298978 4.37552e-23 0.00212053 8.00064e-22 0.0106288)
(0.0265415 0.000134433 9.81456e-23 0.00258571 4.96144e-22 0.0116509)
(0.0255137 0.000518858 1.48598e-21 0.00230837 5.51056e-21 0.0111288)
(0.0247387 0.00051573 6.13097e-22 0.00249654 2.8895e-21 0.0108941)
(0.0236747 0.000255229 1.0286e-21 0.00223858 2.62519e-21 0.0103653)
(0.0248355 0.000127318 -1.58317e-21 0.00257523 -3.00777e-21 0.0109643)
(0.0241287 0.000461222 1.31284e-21 0.00238028 5.68937e-21 0.0106036)
(0.0235837 0.000446709 -2.52767e-21 0.00251221 -1.12823e-20 0.0104384)
(0.0228457 0.000211639 -1.0286e-21 0.00233502 -2.78873e-21 0.0100723)
(0.0231864 0.000117662 -3.20002e-21 0.00255746 -6.23806e-21 0.0102975)
(0.0227588 0.000400514 1.50847e-21 0.00243423 5.88167e-21 0.0100772)
(0.0224144 0.000375702 -2.37386e-21 0.00251676 -1.18351e-20 0.00997246)
(0.0219606 0.000168927 1.13712e-21 0.00240945 3.28932e-21 0.00974802)
(0.0215957 0.000105701 -1.85025e-22 0.00253318 -1.76013e-23 0.00965154)
(0.0214039 0.000337969 -1.51861e-21 0.00247055 -6.06742e-21 0.00954979)
(0.0212296 0.000304113 1.23585e-21 0.0025107 5.96565e-21 0.00949613)
(0.0210167 0.000127904 9.7927e-23 0.00246197 3.75153e-23 0.00939146)
(0.0200633 9.18827e-05 -1.71188e-21 0.00250333 -3.14134e-21 0.00902667)
(0.0200634 0.0002752 -1.34287e-21 0.00248993 -6.2479e-21 0.00902134)
(0.0200284 0.000233685 2.50009e-21 0.00249478 1.24905e-20 0.00900929)
(0.0200121 8.94629e-05 -3.1841e-21 0.00249315 -8.67916e-21 0.00900211)
(0.0185876 7.68197e-05 4.64721e-26 0.0024689 1.20755e-22 0.00842259)
(0.0187361 0.000214077 -1.35164e-21 0.00249345 -6.43398e-21 0.0084918)
(0.01881 0.000166375 2.61468e-21 0.00246995 1.29586e-20 0.00851197)
(0.0189467 5.4522e-05 -1.076e-21 0.00250412 -3.39428e-21 0.00858031)
(0.0171646 6.11978e-05 1.72844e-21 0.00243075 3.6046e-21 0.00783813)
(0.01742 0.000156517 0 0.00248247 0 0.00796097)
(0.0175737 0.00010415 -8.88121e-23 0.00243727 9.08129e-23 0.00800439)
(0.0178216 2.39513e-05 -9.70826e-23 0.00249647 -2.09316e-22 0.00812722)
(0.0157887 4.56843e-05 1.64658e-21 0.00238969 3.45668e-21 0.00727137)
(0.0161127 0.000104245 -2.83065e-21 0.00245861 -1.37059e-20 0.00742854)
(0.0163194 4.8743e-05 2.64554e-21 0.0023979 1.37021e-20 0.00748692)
(0.0166398 -1.53753e-06 -1.40716e-25 0.00247224 -3.53144e-22 0.00764482)
(0.0144529 3.08053e-05 -1.7357e-21 0.00234636 -3.4087e-21 0.0067197)
(0.0148115 5.85541e-05 1.3677e-21 0.00242363 6.80595e-21 0.00689406)
(0.015047 1.44024e-06 -2.65246e-21 0.002353 -1.38876e-20 0.00696)
(0.0154056 -2.14537e-05 -2.0995e-21 0.00243375 -6.25658e-21 0.00713573)
(0.013149 1.69149e-05 -3.12726e-21 0.00230144 -7.18208e-21 0.00618017)
(0.0135131 2.01861e-05 3.03507e-21 0.00237955 1.42651e-20 0.00635707)
(0.0137567 -3.70335e-05 1.29097e-21 0.00230387 7.26747e-21 0.00642424)
(0.014124 -3.55992e-05 2.20209e-21 0.00238358 7.01198e-21 0.00660302)
(0.0118686 4.15646e-06 3.32227e-21 0.00225556 7.23e-21 0.00564965)
(0.0122141 -1.06362e-05 1.4811e-21 0.0023283 7.45529e-21 0.00581696)
(0.0124486 -6.64534e-05 5.441e-24 0.00225167 1.8519e-22 0.00588012)
(0.0128004 -4.3993e-05 1.01996e-21 0.00232422 3.91708e-21 0.00604984)
(0.0106036 -7.48722e-06 9.42623e-23 0.00220961 1.72708e-24 0.00512528)
(0.0109113 -3.40613e-05 -1.4811e-21 0.0022723 -7.45529e-21 0.00527344)
(0.0111232 -8.67613e-05 -1.29641e-21 0.00219794 -7.45267e-21 0.00532845)
(0.0114405 -4.67127e-05 4.8006e-24 0.00225828 -1.63294e-22 0.00547952)
(0.00934612 -1.78796e-05 1.57837e-21 0.00216478 3.96581e-21 0.00460436)
(0.00960011 -5.00873e-05 -1.57996e-21 0.0022135 -7.73314e-21 0.00472545)
(0.00977943 -9.7812e-05 -1.21098e-21 0.00214375 -7.7291e-21 0.00476927)
(0.0100499 -4.3885e-05 9.4772e-23 0.0021885 4.31036e-23 0.00489537)
(0.00809019 -2.76434e-05 -2.29033e-28 0.00212191 -5.38383e-25 0.00408484)
(0.00827965 -5.88662e-05 1.39951e-21 0.0021557 7.91578e-21 0.00417414)
(0.00842043 -9.8518e-05 -2.6144e-21 0.00209202 -1.58299e-20 0.00420498)
(0.00863696 -3.4585e-05 1.21324e-21 0.00211764 3.96869e-21 0.00430184)
(0.00682542 -3.44203e-05 1.67816e-21 0.00208499 4.16917e-21 0.00356416)
(0.00693617 -5.83595e-05 0 0.0020977 0 0.00361355)
(0.00703633 -8.84575e-05 1.31177e-21 0.00204037 8.19204e-21 0.00363068)
(0.00720575 -1.97174e-05 -1.08525e-26 0.00205063 -2.60468e-23 0.00370255)
(0.0055617 -3.90139e-05 1.58953e-21 0.00205302 4.23655e-21 0.00304589)
(0.00559522 -4.76777e-05 -9.09826e-23 0.00204783 9.17569e-23 0.00305722)
(0.00565785 -6.69029e-05 2.19861e-24 0.00199773 1.84667e-22 0.00306223)
(0.00578668 3.49291e-06 2.21279e-27 0.0019909 5.30411e-24 0.00311103)
(0.00423539 -1.70033e-05 -1.68025e-21 0.00200001 -4.20379e-21 0.00249416)
(0.00418212 -1.73273e-05 -2.90524e-21 0.00194362 -1.68465e-20 0.0024503)
(0.00420944 -4.55694e-05 9.30489e-23 0.00190511 9.25007e-23 0.00244582)
(0.00432552 1.16021e-05 -1.12907e-21 0.00192762 -4.2779e-21 0.00250126)
(0.00300312 2.09669e-05 -5.41799e-24 0.00184187 6.59261e-23 0.001938)
(0.00296749 1.45172e-05 6.92662e-24 0.00179934 -2.86833e-27 0.00190673)
(0.00297845 -2.60304e-05 2.07123e-23 0.00178237 -8.87937e-27 0.00190433)
(0.00301584 -5.19921e-06 -4.40752e-23 0.00180225 -8.70078e-23 0.00192724)
)
;

boundaryField
{
    plateFix
    {
        type            calculated;
        value           nonuniform List<symmTensor> 4((0.0841282 0.019139 -1.79623e-24 0.0301887 1.59761e-20 0.0457268) (0.0611111 0.00481895 4.39223e-27 0.0335775 -5.8675e-28 0.0378754) (0.055549 -0.00809122 7.29965e-26 0.0312096 -1.20207e-25 0.0347034) (0.0608004 -0.0164679 6.74542e-24 0.0219642 -5.2033e-20 0.0331058));
    }
    plate
    {
        type            calculated;
        value           nonuniform List<symmTensor> 
168
(
(0.0643996 2.32762e-05 -5.89071e-24 0.000967972 3.20576e-20 0.026147)
(0.046328 3.01643e-05 2.09373e-23 0.000916336 -1.041e-19 0.0188977)
(0.06676 2.021e-05 -9.0069e-24 0.000953834 -3.88132e-20 0.0270855)
(0.0476409 2.57304e-05 -1.7626e-23 0.00090423 3.99665e-20 0.0194181)
(0.0700182 1.75946e-05 1.40206e-23 0.000933178 -4.43564e-21 0.0283805)
(0.0497249 2.13927e-05 -6.03682e-24 0.000886191 1.31257e-22 0.0202444)
(0.0714456 1.5942e-05 -1.13691e-23 0.000914246 4.06383e-20 0.0289439)
(0.0505749 1.90732e-05 2.60969e-23 0.000869956 -7.47297e-20 0.0205779)
(0.0726243 1.57106e-05 -7.46365e-23 0.000898974 -2.45424e-21 0.0294093)
(0.051314 1.91498e-05 -1.58093e-23 0.000857106 7.02298e-20 0.0208684)
(0.0733514 1.59733e-05 6.79428e-23 0.000886416 3.17838e-20 0.0296951)
(0.0517748 2.05268e-05 5.8619e-24 0.000846818 -3.00579e-20 0.0210487)
(0.0739518 1.65479e-05 2.01061e-24 0.000875613 -5.58254e-20 0.029931)
(0.0521757 2.26975e-05 -2.69245e-23 0.000838199 8.46551e-20 0.0212056)
(0.0744379 1.71982e-05 -1.10465e-22 0.000866123 4.85853e-20 0.0301216)
(0.0525089 2.52923e-05 -5.50969e-23 0.000830867 -5.2497e-20 0.0213359)
(0.0748686 1.78738e-05 1.15977e-22 0.00085775 -4.70296e-20 0.0302905)
(0.0528043 2.81531e-05 7.41478e-23 0.000824656 2.58684e-20 0.0214516)
(0.0752431 1.856e-05 2.25357e-22 0.000850335 2.37744e-20 0.0304374)
(0.0530512 3.11756e-05 -4.3166e-24 0.000819439 -4.8281e-20 0.0215482)
(0.0755641 1.92807e-05 -5.17317e-22 0.00084375 -2.04163e-20 0.0305632)
(0.0532449 3.43181e-05 -7.96169e-24 0.000815122 2.21301e-20 0.021624)
(0.075827 2.0051e-05 2.5433e-22 0.000837911 1.85233e-20 0.030666)
(0.0533782 3.75543e-05 2.33948e-22 0.000811644 -1.78957e-21 0.0216759)
(0.0760312 2.08898e-05 8.43069e-23 0.000832773 -1.5537e-20 0.0307456)
(0.0534494 4.08734e-05 -2.44979e-22 0.000808981 7.79117e-22 0.0217033)
(0.0761789 2.18119e-05 7.40186e-23 0.000828333 1.59086e-20 0.0308029)
(0.0534599 4.42579e-05 -3.23442e-25 0.000807125 6.73453e-22 0.0217068)
(0.0762752 2.28362e-05 -1.55479e-22 0.000824621 7.66784e-23 0.0308399)
(0.0534141 4.76863e-05 -3.52404e-22 0.000806081 -2.63766e-20 0.0216881)
(0.0763271 2.39847e-05 5.31887e-27 0.000821706 -9.37921e-24 0.0308595)
(0.0533173 5.11241e-05 -3.92724e-23 0.000805847 2.37457e-20 0.0216493)
(0.0763419 2.52827e-05 -7.45638e-22 0.00081968 1.38347e-21 0.0308646)
(0.0531741 5.45223e-05 1.15698e-22 0.000806412 7.05308e-21 0.0215922)
(0.0763267 2.67597e-05 8.79059e-22 0.000818658 -1.65315e-20 0.0308581)
(0.0529872 5.78165e-05 1.23536e-22 0.00080774 -6.63175e-21 0.021518)
(0.0762872 2.84442e-05 3.46954e-22 0.000818747 1.60168e-20 0.0308424)
(0.052757 6.09223e-05 -5.41967e-22 0.000809763 -1.62675e-20 0.0214267)
(0.0762276 3.03747e-05 3.67643e-22 0.000820043 3.45474e-22 0.0308191)
(0.0524815 6.37301e-05 4.67884e-22 0.000812401 1.26814e-20 0.0213176)
(0.0761495 3.25263e-05 8.385e-22 0.000822385 -9.82498e-21 0.0307888)
(0.0521567 6.61727e-05 -5.89448e-22 0.000815332 1.34258e-20 0.0211888)
(0.076053 3.50561e-05 -8.53116e-22 0.000826173 5.87423e-22 0.0307517)
(0.0517788 6.79599e-05 2.26574e-21 0.000818912 -6.28234e-21 0.0210391)
(0.0759268 3.72309e-05 7.30198e-22 0.000829507 7.92128e-21 0.0307025)
(0.051325 6.98439e-05 -1.09004e-21 0.00082123 8.40962e-22 0.0208585)
(0.0757683 3.87556e-05 6.2083e-25 0.000834854 -6.95918e-22 0.0306413)
(0.0508076 7.17732e-05 -6.30805e-22 0.000824818 3.86296e-22 0.020653)
(0.0755803 4.00942e-05 -9.67549e-22 0.00083991 -6.31686e-22 0.0305681)
(0.0502604 7.29657e-05 -5.64752e-22 0.000827619 -5.54239e-22 0.0204352)
(0.0753584 4.10378e-05 -1.03132e-21 0.00084422 9.92681e-24 0.030481)
(0.0496897 7.36499e-05 6.24494e-22 0.000829292 8.19412e-21 0.0202076)
(0.0750993 4.14725e-05 3.69788e-23 0.000847124 1.06644e-21 0.0303786)
(0.0490983 7.39968e-05 -7.0114e-22 0.000829209 -7.43685e-21 0.019971)
(0.0748017 4.12491e-05 1.10451e-21 0.000848082 -1.57137e-22 0.0302599)
(0.0484878 7.42057e-05 9.23076e-22 0.000826696 -3.66232e-23 0.0197258)
(0.0744658 4.02031e-05 -4.52592e-25 0.000846646 4.65302e-22 0.030125)
(0.0478577 7.45134e-05 -1.56367e-21 0.000821138 -8.94113e-22 0.0194715)
(0.0740927 3.81578e-05 -5.64381e-24 0.000842473 5.80546e-21 0.0299741)
(0.0472066 7.51646e-05 -8.95288e-22 0.000811958 4.95813e-22 0.0192074)
(0.0736836 3.49331e-05 -1.28453e-21 0.00083531 2.80946e-22 0.0298076)
(0.0465329 7.64139e-05 8.98081e-22 0.000798704 -3.40672e-21 0.0189327)
(0.0732391 3.03472e-05 6.18669e-24 0.00082504 -6.46896e-21 0.0296256)
(0.0458355 7.85142e-05 -1.0435e-21 0.000781112 3.55033e-21 0.0186467)
(0.0727582 2.42322e-05 -1.53519e-21 0.000811667 1.55106e-22 0.029428)
(0.0451144 8.17022e-05 -1.08849e-21 0.00075913 -1.43823e-22 0.0183494)
(0.0722388 1.64412e-05 3.06996e-21 0.000795359 -1.56521e-22 0.0292136)
(0.0443708 8.61891e-05 -4.93881e-24 0.000732969 5.37118e-21 0.0180415)
(0.0716767 6.8621e-06 3.33688e-21 0.000776459 -7.92815e-22 0.0289813)
(0.0436079 9.21455e-05 3.30675e-21 0.000703109 -1.03126e-20 0.0177244)
(0.0710666 -4.57148e-06 -1.67217e-21 0.000755506 -3.03691e-21 0.0287289)
(0.0428297 9.969e-05 -1.11842e-21 0.000670317 6.20531e-21 0.0174)
(0.0704021 -1.78691e-05 -1.74701e-21 0.000733248 3.67107e-21 0.0284542)
(0.0420415 0.000108877 1.19541e-21 0.000635625 -2.06161e-22 0.0170709)
(0.0696761 -3.29739e-05 -1.88022e-21 0.000710647 1.37697e-22 0.0281547)
(0.0412493 0.000119688 -1.19742e-21 0.000600326 2.80488e-21 0.0167399)
(0.0688816 -4.97559e-05 1.87825e-21 0.000688867 2.28099e-21 0.0278282)
(0.0404591 0.000132024 7.59261e-24 0.000565932 -9.86142e-21 0.01641)
(0.0680118 -6.80076e-05 2.01431e-21 0.000669252 -1.6358e-21 0.0274724)
(0.0396768 0.000145699 2.72098e-21 0.000534137 4.04381e-23 0.0160844)
(0.0670608 -8.7443e-05 -3.94095e-21 0.000653288 1.39361e-21 0.0270856)
(0.0389076 0.000160444 -1.31286e-21 0.000506765 3.3768e-22 0.0157657)
(0.0660239 -0.000107701 -2.14158e-21 0.000642555 -1.19847e-21 0.0266666)
(0.0381561 0.000175908 -4.21746e-24 0.000485707 6.52533e-21 0.0154567)
(0.0648976 -0.000128354 4.18954e-21 0.00063866 -2.01909e-21 0.0262145)
(0.037426 0.000191665 5.65158e-22 0.000472852 -7.11351e-22 0.0151595)