/*--------------------------------*- C++ -*----------------------------------*\
| =========                 |                                                 |
| \\      /  F ield         | OpenFOAM Extend Project: Open source CFD        |
|  \\    /   O peration     | Version:  1.6-ext                               |
|   \\  /    A nd           | Web:      www.extend-project.de                 |
|    \\/     M anipulation  |                                                 |
\*---------------------------------------------------------------------------*/
FoamFile
{
    version     2.0;
    format      ascii;
    class       volVectorField;
    location    "0.6";
    object      DU;
}
// * * * * * * * * * * * * * * * * * * * * * * * * * * * * * * * * * * * * * //

dimensions      [0 1 0 0 0 0 0];

internalField   nonuniform List<vector> 
328
(
(1.92011e-09 3.4776e-09 0)
(1.16185e-09 5.25815e-10 0)
(1.04224e-09 -8.20247e-10 0)
(1.38476e-09 -2.96802e-09 0)
(5.86714e-09 8.92702e-09 0)
(3.85072e-09 1.67731e-09 0)
(3.43484e-09 -2.25633e-09 0)
(4.20137e-09 -7.61634e-09 0)
(1.04522e-08 1.30501e-08 0)
(7.46194e-09 2.91843e-09 0)
(6.62173e-09 -3.46387e-09 0)
(7.45464e-09 -1.10113e-08 0)
(1.54611e-08 1.61152e-08 0)
(1.16883e-08 4.15888e-09 0)
(1.03584e-08 -4.33718e-09 0)
(1.09935e-08 -1.32947e-08 0)
(2.09566e-08 1.84523e-08 0)
(1.65875e-08 5.37416e-09 0)
(1.46983e-08 -4.82917e-09 0)
(1.48672e-08 -1.46695e-08 0)
(2.69142e-08 2.03231e-08 0)
(2.20616e-08 6.5768e-09 0)
(1.95607e-08 -4.90577e-09 0)
(1.90604e-08 -1.52844e-08 0)
(3.33653e-08 2.19516e-08 0)
(2.80997e-08 7.81638e-09 0)
(2.49352e-08 -4.55422e-09 0)
(2.35984e-08 -1.52531e-08 0)
(4.03331e-08 2.35192e-08 0)
(3.4668e-08 9.16356e-09 0)
(3.07903e-08 -3.76349e-09 0)
(2.84984e-08 -1.4647e-08 0)
(4.78535e-08 2.51829e-08 0)
(4.17605e-08 1.07056e-08 0)
(3.71179e-08 -2.52071e-09 0)
(3.37866e-08 -1.35055e-08 0)
(5.59631e-08 2.7081e-08 0)
(4.93762e-08 1.25391e-08 0)
(4.39136e-08 -8.01955e-10 0)
(3.94879e-08 -1.18368e-08 0)
(6.47019e-08 2.93421e-08 0)
(5.75289e-08 1.47682e-08 0)
(5.11867e-08 1.43162e-09 0)
(4.56288e-08 -9.62172e-09 0)
(7.41111e-08 3.20903e-08 0)
(6.62415e-08 1.75028e-08 0)
(5.89549e-08 4.23798e-09 0)
(5.22355e-08 -6.81432e-09 0)
(8.4234e-08 3.54511e-08 0)
(7.55472e-08 2.08604e-08 0)
(6.72453e-08 7.69631e-09 0)
(5.93351e-08 -3.34265e-09 0)
(9.51161e-08 3.9556e-08 0)
(8.54869e-08 2.49679e-08 0)
(7.60922e-08 1.19089e-08 0)
(6.6955e-08 8.91237e-10 0)
(1.06806e-07 4.45478e-08 0)
(9.61078e-08 2.99656e-08 0)
(8.5536e-08 1.70023e-08 0)
(7.51242e-08 6.01147e-09 0)
(1.19354e-07 5.05853e-08 0)
(1.07462e-07 3.60114e-08 0)
(9.56212e-08 2.31289e-08 0)
(8.38732e-08 1.21694e-08 0)
(1.32818e-07 5.78492e-08 0)
(1.19606e-07 4.32854e-08 0)
(1.06396e-07 3.04693e-08 0)
(9.32344e-08 1.95452e-08 0)
(1.47257e-07 6.65476e-08 0)
(1.32598e-07 5.19961e-08 0)
(1.17909e-07 3.92347e-08 0)
(1.03242e-07 2.83506e-08 0)
(1.62735e-07 7.69226e-08 0)
(1.465e-07 6.23857e-08 0)
(1.30212e-07 4.96719e-08 0)
(1.13931e-07 3.88331e-08 0)
(1.79323e-07 8.92571e-08 0)
(1.61374e-07 7.47377e-08 0)
(1.43358e-07 6.20687e-08 0)
(1.25338e-07 5.12818e-08 0)
(1.97096e-07 1.03884e-07 0)
(1.77285e-07 8.93853e-08 0)
(1.57398e-07 7.67619e-08 0)
(1.375e-07 6.60345e-08 0)
(2.16133e-07 1.21194e-07 0)
(1.94301e-07 1.06721e-07 0)
(1.72385e-07 9.41468e-08 0)
(1.50454e-07 8.3488e-08 0)
(2.37295e-07 1.42429e-07 0)
(2.13184e-07 1.27987e-07 0)
(1.88981e-07 1.15472e-07 0)
(1.64759e-07 1.04895e-07 0)
(2.599e-07 1.67615e-07 0)
(2.33312e-07 1.53212e-07 0)
(2.06627e-07 1.40764e-07 0)
(1.79918e-07 1.30281e-07 0)
(2.82449e-07 1.95298e-07 0)
(2.53348e-07 1.8094e-07 0)
(2.24146e-07 1.68563e-07 0)
(1.94913e-07 1.5818e-07 0)
(3.04932e-07 2.25518e-07 0)
(2.73283e-07 2.11211e-07 0)
(2.41528e-07 1.98912e-07 0)
(2.09736e-07 1.88633e-07 0)
(3.27339e-07 2.58314e-07 0)
(2.93107e-07 2.44064e-07 0)
(2.58766e-07 2.31849e-07 0)
(2.24381e-07 2.21678e-07 0)
(3.49659e-07 2.93721e-07 0)
(3.12812e-07 2.79534e-07 0)
(2.75852e-07 2.67407e-07 0)
(2.38843e-07 2.57349e-07 0)
(3.71881e-07 3.31768e-07 0)
(3.32388e-07 3.17652e-07 0)
(2.9278e-07 3.05618e-07 0)
(2.53117e-07 2.95676e-07 0)
(3.93994e-07 3.72484e-07 0)
(3.51827e-07 3.58445e-07 0)
(3.09542e-07 3.4651e-07 0)
(2.67197e-07 3.36687e-07 0)
(4.15988e-07 4.15895e-07 0)
(3.7112e-07 4.01939e-07 0)
(3.26132e-07 3.90108e-07 0)
(2.81078e-07 3.80409e-07 0)
(4.37852e-07 4.62026e-07 0)
(3.90257e-07 4.48159e-07 0)
(3.42541e-07 4.36437e-07 0)
(2.94754e-07 4.26865e-07 0)
(4.59578e-07 5.10902e-07 0)
(4.09232e-07 4.9713e-07 0)
(3.58763e-07 4.85522e-07 0)
(3.08219e-07 4.76082e-07 0)
(4.81156e-07 5.62548e-07 0)
(4.28033e-07 5.4888e-07 0)
(3.7479e-07 5.37391e-07 0)
(3.21467e-07 5.28086e-07 0)
(5.02572e-07 6.1699e-07 0)
(4.46654e-07 6.03432e-07 0)
(3.90615e-07 5.92068e-07 0)
(3.34492e-07 5.82902e-07 0)
(5.23816e-07 6.74252e-07 0)
(4.65082e-07 6.60813e-07 0)
(4.06231e-07 6.4958e-07 0)
(3.47291e-07 6.40555e-07 0)
(5.44873e-07 7.34356e-07 0)
(4.83308e-07 7.21046e-07 0)
(4.21631e-07 7.09949e-07 0)
(3.5986e-07 7.01069e-07 0)
(5.65725e-07 7.97319e-07 0)
(5.0132e-07 7.84149e-07 0)
(4.3681e-07 7.73197e-07 0)
(3.72198e-07 7.64463e-07 0)
(5.86354e-07 8.63154e-07 0)
(5.19106e-07 8.50137e-07 0)
(4.5176e-07 8.39336e-07 0)
(3.84305e-07 8.3075e-07 0)
(6.06737e-07 9.31866e-07 0)
(5.3665e-07 9.19016e-07 0)
(4.66475e-07 9.08373e-07 0)
(3.96182e-07 8.99937e-07 0)
(6.26851e-07 1.00345e-06 0)
(5.5394e-07 9.90783e-07 0)
(4.8095e-07 9.80306e-07 0)
(4.07832e-07 9.72021e-07 0)
(6.46671e-07 1.07789e-06 0)
(5.70959e-07 1.06542e-06 0)
(4.95178e-07 1.05512e-06 0)
(4.1926e-07 1.04699e-06 0)
(6.66169e-07 1.15516e-06 0)
(5.87691e-07 1.14291e-06 0)
(5.09155e-07 1.1328e-06 0)
(4.3047e-07 1.12482e-06 0)
(6.85317e-07 1.23523e-06 0)
(6.04119e-07 1.22322e-06 0)
(5.22874e-07 1.21329e-06 0)
(4.41467e-07 1.20547e-06 0)
(7.04086e-07 1.31804e-06 0)
(6.20225e-07 1.30628e-06 0)
(5.36329e-07 1.29656e-06 0)
(4.52258e-07 1.28889e-06 0)
(7.22446e-07 1.40353e-06 0)
(6.35994e-07 1.39204e-06 0)
(5.49515e-07 1.38254e-06 0)
(4.62848e-07 1.37502e-06 0)
(7.40368e-07 1.49161e-06 0)
(6.51406e-07 1.48042e-06 0)
(5.62426e-07 1.47114e-06 0)
(4.73243e-07 1.46378e-06 0)
(7.57825e-07 1.58221e-06 0)
(6.66446e-07 1.57133e-06 0)
(5.75056e-07 1.56228e-06 0)
(4.83449e-07 1.55509e-06 0)
(7.74789e-07 1.67522e-06 0)
(6.81097e-07 1.66466e-06 0)
(5.87399e-07 1.65587e-06 0)
(4.93469e-07 1.64883e-06 0)
(7.91236e-07 1.77052e-06 0)
(6.95345e-07 1.76032e-06 0)
(5.99449e-07 1.75177e-06 0)
(5.03307e-07 1.7449e-06 0)
(8.07144e-07 1.868e-06 0)
(7.09174e-07 1.85816e-06 0)
(6.112e-07 1.84987e-06 0)
(5.12966e-07 1.84317e-06 0)
(8.22491e-07 1.96753e-06 0)
(7.22572e-07 1.95805e-06 0)
(6.22647e-07 1.95004e-06 0)
(5.22448e-07 1.94351e-06 0)
(8.37263e-07 2.06896e-06 0)
(7.35529e-07 2.05987e-06 0)
(6.33785e-07 2.05214e-06 0)
(5.31754e-07 2.04578e-06 0)
(8.51445e-07 2.17216e-06 0)
(7.48035e-07 2.16346e-06 0)
(6.44608e-07 2.15601e-06 0)
(5.40881e-07 2.14983e-06 0)
(8.65028e-07 2.27698e-06 0)
(7.60083e-07 2.26867e-06 0)
(6.55111e-07 2.26151e-06 0)
(5.49828e-07 2.25551e-06 0)
(8.78006e-07 2.38326e-06 0)
(7.71667e-07 2.37536e-06 0)
(6.65291e-07 2.36849e-06 0)
(5.58592e-07 2.36268e-06 0)
(8.90377e-07 2.49088e-06 0)
(7.82785e-07 2.48338e-06 0)
(6.75142e-07 2.4768e-06 0)
(5.67169e-07 2.47117e-06 0)
(9.02141e-07 2.59967e-06 0)
(7.93434e-07 2.59257e-06 0)
(6.84663e-07 2.58629e-06 0)
(5.75553e-07 2.58085e-06 0)
(9.13301e-07 2.7095e-06 0)
(8.03616e-07 2.7028e-06 0)
(6.93849e-07 2.69681e-06 0)
(5.83738e-07 2.69157e-06 0)
(9.23864e-07 2.82023e-06 0)
(8.1333e-07 2.81392e-06 0)
(7.02699e-07 2.80823e-06 0)
(5.91717e-07 2.80318e-06 0)
(9.33839e-07 2.93174e-06 0)
(8.22582e-07 2.92581e-06 0)
(7.11211e-07 2.92041e-06 0)
(5.99484e-07 2.91555e-06 0)
(9.43237e-07 3.04388e-06 0)
(8.31375e-07 3.03833e-06 0)
(7.19382e-07 3.03322e-06 0)
(6.0703e-07 3.02856e-06 0)
(9.5207e-07 3.15655e-06 0)
(8.39715e-07 3.15137e-06 0)
(7.2721e-07 3.14654e-06 0)
(6.14347e-07 3.14208e-06 0)
(9.60353e-07 3.26964e-06 0)
(8.47608e-07 3.26481e-06 0)
(7.34696e-07 3.26026e-06 0)
(6.21425e-07 3.256e-06 0)
(9.68102e-07 3.38303e-06 0)
(8.55062e-07 3.37855e-06 0)
(7.41837e-07 3.37427e-06 0)
(6.28254e-07 3.37022e-06 0)
(9.75334e-07 3.49664e-06 0)
(8.62083e-07 3.49249e-06 0)
(7.4863e-07 3.48849e-06 0)
(6.34823e-07 3.48463e-06 0)
(9.82067e-07 3.61038e-06 0)
(8.6868e-07 3.60655e-06 0)
(7.55075e-07 3.60281e-06 0)
(6.4112e-07 3.59917e-06 0)
(9.88319e-07 3.72418e-06 0)
(8.74861e-07 3.72066e-06 0)
(7.61168e-07 3.71718e-06 0)
(6.47132e-07 3.71375e-06 0)
(9.94109e-07 3.83798e-06 0)
(8.80633e-07 3.83476e-06 0)
(7.66907e-07 3.83153e-06 0)
(6.52844e-07 3.82832e-06 0)
(9.99456e-07 3.95174e-06 0)
(8.86003e-07 3.94879e-06 0)
(7.72288e-07 3.94582e-06 0)
(6.58242e-07 3.94283e-06 0)
(1.00438e-06 4.0654e-06 0)
(8.90979e-07 4.06273e-06 0)
(7.77307e-07 4.06001e-06 0)
(6.63312e-07 4.05725e-06 0)
(1.00888e-06 4.17896e-06 0)
(8.95565e-07 4.17655e-06 0)
(7.8196e-07 4.17408e-06 0)
(6.68039e-07 4.17155e-06 0)
(1.013e-06 4.29239e-06 0)
(8.99766e-07 4.29024e-06 0)
(7.86242e-07 4.28801e-06 0)
(6.7241e-07 4.28572e-06 0)
(1.01672e-06 4.4057e-06 0)
(9.03585e-07 4.40379e-06 0)
(7.9015e-07 4.40181e-06 0)
(6.76412e-07 4.39976e-06 0)
(1.02007e-06 4.51888e-06 0)
(9.07025e-07 4.51722e-06 0)
(7.93678e-07 4.51548e-06 0)
(6.80034e-07 4.51368e-06 0)
(1.02304e-06 4.63195e-06 0)
(9.10085e-07 4.63053e-06 0)
(7.96821e-07 4.62904e-06 0)
(6.83265e-07 4.62749e-06 0)
(1.02565e-06 4.74492e-06 0)
(9.12764e-07 4.74374e-06 0)
(7.99574e-07 4.7425e-06 0)
(6.86097e-07 4.7412e-06 0)
(1.02788e-06 4.85781e-06 0)
(9.1506e-07 4.85686e-06 0)
(8.01932e-07 4.85588e-06 0)
(6.8852e-07 4.85484e-06 0)
(1.02975e-06 4.97063e-06 0)
(9.16969e-07 4.96993e-06 0)
(8.03889e-07 4.96921e-06 0)
(6.90531e-07 4.96844e-06 0)
(1.03124e-06 5.08342e-06 0)
(9.18481e-07 5.08297e-06 0)
(8.05436e-07 5.08251e-06 0)
(6.92122e-07 5.082e-06 0)
(1.03236e-06 5.19621e-06 0)
(9.19604e-07 5.19601e-06 0)
(8.06582e-07 5.1958e-06 0)
(6.93303e-07 5.19556e-06 0)
(1.03308e-06 5.30909e-06 0)
(9.20309e-07 5.30908e-06 0)
(8.07295e-07 5.30908e-06 0)
(6.94042e-07 5.30905e-06 0)
)
;

boundaryField
{
    plateFix
    {
        type            fixedDisplacement;
        value           uniform (0 0 0);
    }
    plate
    {
        type            solidTraction;
        nonLinear       updatedLagrangian;
        traction        nonuniform List<vector> 
168
(
(-3.88146e-07 7.21273e-05 -6.77729e-20)
(4.25179e-06 -7.58696e-05 -3.58929e-20)
(-0.000134999 -6.29644e-05 4.08024e-20)
(-0.00012405 5.62278e-05 0)
(-0.000591835 -0.000241483 3.89962e-20)
(-0.000570214 0.000233376 0)
(-0.00130298 -0.00038535 -3.69162e-20)
(-0.00126869 0.000377091 -3.85631e-20)
(-0.00221395 -0.000475652 0)
(-0.00216645 0.000467819 3.62798e-20)
(-0.00327472 -0.000515057 -3.25965e-20)
(-0.00321425 0.000507769 0)
(-0.00443395 -0.000516071 3.02712e-20)
(-0.00436123 0.000509131 2.76553e-20)
(-0.00564688 -0.000493011 -3.48943e-21)
(-0.00556288 0.000486036 -3.28249e-20)
(-0.0068785 -0.000457983 3.20301e-21)
(-0.00678422 0.000450517 2.67897e-20)
(-0.00810373 -0.000419795 2.28777e-23)
(-0.00800006 0.000411383 -2.44476e-20)
(-0.00930658 -0.000384109 2.12078e-20)
(-0.00919426 0.000374336 2.76327e-21)
(-0.0104787 -0.000354038 -1.91873e-20)
(-0.0103583 0.000342548 0)
(-0.0116175 -0.000330832 2.13412e-20)
(-0.0114895 0.000317329 0)
(-0.012724 -0.000314496 -1.52501e-20)
(-0.012589 0.000298732 3.9751e-21)
(-0.0138012 -0.000304246 -3.37114e-21)
(-0.0136597 0.000286015 -1.40717e-20)
(-0.0148518 -0.00029883 2.92204e-21)
(-0.0147045 0.000277965 1.24036e-20)
(-0.0158768 -0.000296717 5.15837e-21)
(-0.0157247 0.000273097 -5.43567e-21)
(-0.0168737 -0.000296131 -4.52798e-21)
(-0.0167183 0.000269704 0)
(-0.0178376 -0.000295043 -3.86087e-21)
(-0.0176809 0.000265866 -1.63653e-20)
(-0.0187514 -0.00029086 3.43174e-21)
(-0.0185965 0.000259161 1.42318e-20)
(-0.0196162 -0.000279421 1.15107e-20)
(-0.019467 0.000245697 9.04308e-21)
(-0.0203545 -0.000261127 4.72851e-21)
(-0.0202179 0.000225876 -1.04358e-20)
(-0.021214 -0.000201806 -8.28368e-21)
(-0.0210914 0.000166589 0)
(-0.0220957 -0.000134077 8.14331e-21)
(-0.0219866 9.79277e-05 0)
(-0.0228036 -0.000113958 -7.90065e-21)
(-0.0227166 7.6008e-05 0)
(-0.0234546 -8.87253e-05 6.09942e-23)
(-0.0233934 4.95387e-05 -6.43736e-23)
(-0.023998 -7.34716e-05 -1.19397e-22)
(-0.0239694 3.35074e-05 -3.16116e-23)
(-0.0244801 -5.52348e-05 -1.16761e-22)
(-0.0244904 1.50404e-05 0)
(-0.0248827 -3.96723e-05 -1.14029e-22)
(-0.0249398 -1.36312e-07 0)
(-0.0252249 -2.38103e-05 -7.00759e-21)
(-0.0253377 -1.50003e-05 5.92446e-23)
(-0.025505 -9.56496e-06 1.43112e-22)
(-0.0256834 -2.75773e-05 -5.78462e-23)
(-0.0257335 3.52694e-06 6.82422e-21)
(-0.025989 -3.83361e-05 2.82409e-23)
(-0.0259151 1.4692e-05 1.02192e-22)
(-0.0262602 -4.64848e-05 -2.75084e-23)
(-0.0260583 2.38166e-05 0)
(-0.026507 -5.19269e-05 3.37035e-21)
(-0.0261697 3.05384e-05 0)
(-0.0267371 -5.43199e-05 -3.37412e-21)
(-0.0262569 3.47463e-05 2.86004e-21)
(-0.0269591 -5.35959e-05 0)
(-0.026326 3.63691e-05 -2.90913e-21)
(-0.02718 -4.97403e-05 0)
(-0.0263824 3.55131e-05 4.29986e-23)
(-0.0274056 -4.29359e-05 3.03342e-21)
(-0.0264296 3.24165e-05 0)
(-0.0276397 -3.35156e-05 -5.89599e-21)
(-0.0264692 2.74859e-05 0)
(-0.0278834 -2.19985e-05 2.87589e-21)
(-0.0265002 2.12781e-05 -2.3784e-21)
(-0.028135 -9.07447e-06 -2.6651e-21)
(-0.0265189 1.44973e-05 2.38068e-21)
(-0.0283895 4.40265e-06 5.22415e-21)
(-0.0265185 7.96942e-06 0)
(-0.0286382 1.74389e-05 -1.51131e-22)
(-0.026489 2.61395e-06 2.04741e-21)
(-0.0288685 2.8935e-05 -1.14864e-22)
(-0.0264176 -5.97465e-07 -2.06491e-21)
(-0.0290645 3.77273e-05 -2.34022e-21)
(-0.0262882 -6.86813e-07 -1.81548e-21)
(-0.0292066 4.2645e-05 -2.10633e-21)
(-0.0260827 3.27649e-06 3.51205e-21)
(-0.0292726 4.25654e-05 2.10455e-21)
(-0.0257807 1.21223e-05 -1.67075e-21)
(-0.0292377 3.64806e-05 -1.84779e-21)
(-0.0253607 2.65252e-05 -1.41877e-21)
(-0.0290756 2.35572e-05 1.84297e-21)
(-0.0248004 4.69573e-05 1.4656e-21)
(-0.0287593 3.19404e-06 0)
(-0.024078 7.36488e-05 0)
(-0.0282622 -2.49323e-05 1.76823e-23)
(-0.0231728 0.000106563 -1.31969e-23)
(-0.0275591 -6.08348e-05 -1.27044e-21)
(-0.0220663 0.000145382 0)
(-0.026627 -0.000104202 1.60439e-22)
(-0.0207424 0.000189514 0)
(-0.025446 -0.000154399 1.11083e-21)
(-0.0191888 0.000238116 6.51731e-25)
(-0.0240005 -0.000210495 -7.79002e-22)
(-0.0173973 0.000290125 0)
(-0.0222795 -0.000271299 7.79939e-22)
(-0.015364 0.00034431 -3.00766e-24)
(-0.0202771 -0.000335415 2.16439e-22)
(-0.0130898 0.00039933 0)
(-0.0179929 -0.00040131 -2.22495e-22)
(-0.0105804 0.000453795 -1.00632e-23)
(-0.015432 -0.000467385 -4.17888e-23)
(-0.00784604 0.000506333 9.52365e-24)
(-0.0126048 -0.000532044 4.11378e-23)
(-0.00490148 0.000555651 9.53611e-25)
(-0.00952675 -0.000593772 -1.27177e-22)
(-0.00176522 0.000600591 0)
(-0.00621777 -0.000651194 -8.17677e-23)
(0.00154087 0.000640175 -1.06712e-25)
(-0.00270159 -0.000703136 2.11656e-22)
(0.00499231 0.000673649 2.45686e-24)
(0.000995021 -0.000748663 0)
(0.00856276 0.000700502 -2.93521e-24)
(0.00484311 -0.000787115 -1.5161e-23)
(0.0122249 0.000720487 0)
(0.00881251 -0.000818128 0)
(0.015951 0.000733624 5.21424e-22)
(0.0128728 -0.00084164 -1.60231e-23)
(0.0197144 0.000740205 -5.20001e-22)
(0.0169942 -0.000857903 0)
(0.0234896 0.000740776 2.22462e-24)
(0.0211487 -0.000867462 6.39133e-22)
(0.0272539 0.000736169 3.14236e-22)
(0.025311 -0.000871193 -6.49761e-22)
(0.0309877 0.000727455 -3.16978e-22)
(0.0294596 -0.00087026 0)
(0.034676 0.000716082 0)
(0.0335778 -0.000866262 -4.00164e-22)
(0.0383093 0.000703833 0)
(0.0376554 -0.0008612 3.67043e-22)
(0.0418852 0.000693337 0)
(0.0416901 -0.00085804 -2.30006e-23)
(0.0454128 0.000688236 0)
(0.0456921 -0.00086091 3.71391e-22)
(0.0489111 0.000695864 1.05011e-23)
(0.0496834 -0.000878037 -5.31271e-22)
(0.0524357 0.000728214 1.26097e-24)
(0.0537259 -0.000922769 1.60236e-22)
(0.0560445 0.000823887 -1.10876e-23)
(0.0578855 -0.00103746 -1.67515e-22)
(0.0599962 0.00103926 0)
(0.0624481 -0.00128245 1.57949e-22)
(0.0643576 0.00169021 0)
(0.0674841 -0.00199997 0)
(0.0708756 0.0030722 0)
(0.074923 -0.00347603 0)
(0.0782425 0.00905613 -7.72544e-24)
(0.0152437 0.00631152 2.59595e-23)
(-0.00175765 -0.00491916 -2.69701e-23)
(-0.00144475 0.00620057 3.09594e-23)
(0.0165737 -0.00659963 -2.51782e-23)
(0.0831939 -0.00989399 6.12448e-24)
)
;
        pressure        nonuniform List<scalar> 
168
(
-0.432881
-0.451691
-0.433492
-0.452294
-0.434171
-0.45297
-0.434839
-0.453642
-0.435428
-0.454241
-0.435864
-0.454692
-0.436097
-0.454946
-0.436099
-0.454976
-0.435855
-0.454766
-0.43536
-0.454312
-0.43461
-0.45361
-0.433603
-0.452659
-0.432331
-0.451451
-0.430779
-0.449974
-0.428925
-0.448207
-0.426739
-0.44612
-0.42418
-0.443676
-0.421201
-0.440828
-0.417752
-0.437528
-0.41376
-0.433706
-0.409223
-0.42936
-0.40392
-0.424274
-0.398136
-0.418728
-0.39097
-0.411851
-0.383676
-0.40485
-0.375798
-0.397283
-0.367665
-0.389471
-0.359125
-0.381266
-0.35031
-0.372797
-0.341195
-0.364038
-0.331845
-0.355055
-0.322278
-0.345863
-0.312537
-0.336503
-0.30265
-0.327001
-0.292649
-0.317386
-0.282559
-0.307677
-0.272401
-0.297888
-0.262186
-0.288026
-0.25192
-0.278086
-0.241601
-0.268055
-0.231216
-0.257911
-0.220746
-0.24762
-0.210163
-0.237143
-0.199433
-0.22643
-0.188519
-0.21543
-0.17738
-0.204088
-0.165975
-0.19235
-0.154268
-0.180167
-0.142226
-0.167497
-0.129827
-0.15431
-0.11706
-0.140589
-0.103925
-0.126336
-0.0904407
-0.111569
-0.0766395
-0.0963279
-0.0625717
-0.0806727
-0.0483037
-0.0646838
-0.0339174
-0.0484605
-0.0195082
-0.0321186
-0.00518297
-0.0157881
0.0089429
0.000390239
0.0227486
0.016269
0.0361109
0.0316975
0.048908
0.046526
0.0610218
0.0606095
0.0723412
0.0738107
0.0827647
0.0860029
0.0922012
0.0970726
0.100572
0.10692
0.107813
0.115462
0.113869
0.122627
0.1187
0.128361
0.122275
0.132621
0.124572
0.135371
0.125571
0.136583
0.125257
0.13623
0.123594
0.134263
0.12056
0.130647
0.115992
0.125192
0.109918
0.117906
0.101265
0.107586
0.0913387
0.0956212
0.0701602
0.0248241
0.062748
0.062148
0.0196662
0.0708842
)
;
        value           nonuniform List<vector> 
168
(
(1.71753e-08 9.77345e-09 -1.59749e-26)
(1.44273e-08 -7.46237e-09 -5.20371e-26)
(1.70676e-08 1.54606e-08 1.93715e-26)
(1.36398e-08 -1.22442e-08 1.99764e-26)
(1.82953e-08 1.99122e-08 2.2246e-27)
(1.3678e-08 -1.58506e-08 6.31063e-29)
(2.09536e-08 2.31226e-08 -2.03174e-26)
(1.47411e-08 -1.82218e-08 -3.73397e-26)
(2.49412e-08 2.55797e-08 1.19577e-27)
(1.678e-08 -1.96727e-08 3.50985e-26)
(2.99986e-08 2.7525e-08 -1.58431e-26)
(1.96024e-08 -2.03353e-08 -1.50152e-26)
(3.5987e-08 2.92152e-08 2.78762e-26)
(2.30998e-08 -2.03456e-08 4.22842e-26)
(4.28003e-08 3.08329e-08 -2.42908e-26)
(2.71835e-08 -1.97742e-08 -2.62229e-26)
(5.03865e-08 3.25411e-08 2.35305e-26)
(3.18031e-08 -1.86633e-08 1.29273e-26)
(5.87195e-08 3.44779e-08 -1.18315e-26)
(3.69258e-08 -1.70203e-08 -2.41352e-26)
(6.77969e-08 3.67723e-08 1.0077e-26)
(4.25357e-08 -1.48256e-08 1.10663e-26)
(7.76309e-08 3.95479e-08 -9.193e-27)
(4.86275e-08 -1.20323e-08 -8.91462e-28)
(8.82456e-08 4.29303e-08 7.77806e-27)
(5.52049e-08 -8.56852e-09 3.85052e-28)
(9.96747e-08 4.70511e-08 -7.92637e-27)
(6.22788e-08 -4.33637e-09 3.35846e-28)
(1.1196e-07 5.20536e-08 -6.76404e-29)
(6.9866e-08 7.87803e-10 -1.31589e-26)
(1.25152e-07 5.80974e-08 4.73754e-30)
(7.79888e-08 6.95482e-09 1.18821e-26)
(1.39306e-07 6.53638e-08 -8.61019e-28)
(8.66732e-08 1.43444e-08 3.51126e-27)
(1.54485e-07 7.40616e-08 8.46019e-27)
(9.59483e-08 2.31679e-08 -3.33175e-27)
(1.70761e-07 8.44335e-08 -7.9273e-27)
(1.05845e-07 3.3673e-08 -8.02116e-27)
(1.88208e-07 9.67628e-08 -8.42718e-29)
(1.16393e-07 4.61486e-08 6.24723e-27)
(2.06909e-07 1.11382e-07 5.13746e-27)
(1.27624e-07 6.09333e-08 6.85837e-27)
(2.26952e-07 1.28683e-07 -5.40853e-28)
(1.39565e-07 7.84239e-08 -3.77025e-27)
(2.49251e-07 1.49907e-07 -3.74263e-27)
(1.52726e-07 9.98751e-08 7.51481e-28)
(2.73092e-07 1.75078e-07 3.43813e-28)
(1.66642e-07 1.25312e-07 4.18461e-28)
(2.96897e-07 2.02743e-07 -7.35938e-30)
(1.80372e-07 1.53265e-07 -6.74701e-30)
(3.20657e-07 2.32942e-07 -3.99303e-28)
(1.93911e-07 1.83774e-07 3.79587e-27)
(3.44359e-07 2.65713e-07 -5.65185e-28)
(2.07254e-07 2.16876e-07 -3.38779e-27)
(3.6799e-07 3.01091e-07 5.25453e-28)
(2.20398e-07 2.52606e-07 -4.84477e-28)
(3.91538e-07 3.39106e-07 -2.32653e-28)
(2.3334e-07 2.90994e-07 4.78421e-28)
(4.1499e-07 3.79787e-07 -2.89951e-27)
(2.46074e-07 3.32068e-07 8.32309e-28)
(4.38337e-07 4.23159e-07 -8.06657e-28)
(2.58598e-07 3.75854e-07 -2.28769e-27)
(4.61569e-07 4.69248e-07 3.23103e-27)
(2.70904e-07 4.22376e-07 2.4803e-27)
(4.84674e-07 5.18079e-07 -9.5386e-28)
(2.82986e-07 4.71661e-07 7.1012e-28)
(5.07644e-07 5.69677e-07 1.8295e-27)
(2.9484e-07 5.23734e-07 2.68209e-27)
(5.30467e-07 6.24066e-07 2.37541e-27)
(3.06459e-07 5.78621e-07 -8.05079e-27)
(5.5313e-07 6.81271e-07 4.64631e-28)
(3.1784e-07 6.36347e-07 4.10122e-27)
(5.75616e-07 7.41312e-07 -2.9821e-27)
(3.28982e-07 6.96934e-07 -1.29915e-27)
(5.97906e-07 8.04206e-07 -1.42201e-27)
(3.39885e-07 7.60402e-07 2.59531e-27)
(6.19977e-07 8.69965e-07 2.12624e-28)
(3.50553e-07 8.26763e-07 -4.92764e-27)
(6.41804e-07 9.38593e-07 2.39521e-27)
(3.60991e-07 8.96023e-07 -2.98143e-27)
(6.63357e-07 1.01008e-06 -3.8973e-27)
(3.71206e-07 9.68181e-07 1.69708e-27)
(6.84607e-07 1.08442e-06 -1.22276e-27)
(3.81209e-07 1.04322e-06 3.25863e-27)
(7.05519e-07 1.16158e-06 4.70241e-27)
(3.91009e-07 1.12112e-06 -1.23402e-27)
(7.26058e-07 1.24153e-06 8.14151e-29)
(4.00619e-07 1.20184e-06 -3.54488e-27)
(7.46188e-07 1.3242e-06 -1.32869e-27)
(4.1005e-07 1.28533e-06 -2.12656e-27)
(7.65874e-07 1.40954e-06 -2.5596e-27)
(4.19315e-07 1.37154e-06 4.83888e-28)
(7.85081e-07 1.49747e-06 2.34579e-27)
(4.28426e-07 1.46037e-06 -1.22739e-27)
(8.03772e-07 1.5879e-06 -1.80843e-27)
(4.37393e-07 1.55174e-06 -5.71551e-27)
(8.21917e-07 1.68073e-06 7.77485e-28)
(4.46227e-07 1.64555e-06 2.73126e-27)
(8.39484e-07 1.77585e-06 2.01153e-27)
(4.54938e-07 1.74169e-06 5.25058e-28)
(8.56446e-07 1.87314e-06 1.04024e-27)
(4.63532e-07 1.84004e-06 -5.32596e-28)
(8.7278e-07 1.97247e-06 -2.04983e-27)
(4.72015e-07 1.94045e-06 -2.08464e-28)
(8.88466e-07 2.07369e-06 4.59758e-28)
(4.80391e-07 2.04279e-06 1.36717e-28)
(9.03489e-07 2.17668e-06 7.62024e-28)
(4.8866e-07 2.14691e-06 5.12371e-28)
(9.17838e-07 2.28128e-06 -3.00658e-28)
(4.96823e-07 2.25267e-06 -9.35035e-28)
(9.31507e-07 2.38735e-06 -4.16423e-28)
(5.04876e-07 2.35991e-06 4.44816e-28)
(9.44494e-07 2.49475e-06 3.82476e-28)
(5.12814e-07 2.46849e-06 5.45872e-28)
(9.56801e-07 2.60332e-06 7.37367e-30)
(5.20632e-07 2.57824e-06 -1.23819e-27)
(9.68434e-07 2.71294e-06 -4.13283e-29)
(5.28321e-07 2.68904e-06 1.82243e-27)
(9.79402e-07 2.82347e-06 -1.13279e-27)
(5.35873e-07 2.80074e-06 -5.67777e-28)
(9.89716e-07 2.93476e-06 -1.20941e-27)
(5.43277e-07 2.91319e-06 1.32498e-27)
(9.99392e-07 3.04671e-06 1.24255e-27)
(5.50522e-07 3.02629e-06 -1.4376e-27)
(1.00845e-06 3.15918e-06 1.29106e-27)
(5.57597e-07 3.1399e-06 2.89757e-27)
(1.0169e-06 3.27208e-06 -2.45712e-27)
(5.64488e-07 3.25391e-06 8.44727e-28)
(1.02477e-06 3.38529e-06 -3.99904e-28)
(5.7118e-07 3.36821e-06 -2.96113e-27)
(1.03207e-06 3.49873e-06 -2.59908e-27)
(5.77657e-07 3.48273e-06 2.79763e-27)
(1.03884e-06 3.6123e-06 -5.5316e-27)
(5.83903e-07 3.59736e-06 -2.57997e-27)
(1.0451e-06 3.72594e-06 1.1867e-29)
(5.89897e-07 3.71204e-06 -5.86404e-29)
(1.05087e-06 3.83959e-06 -3.11707e-27)
(5.9562e-07 3.82671e-06 9.94698e-27)
(1.05618e-06 3.9532e-06 -1.20753e-28)
(6.0105e-07 3.94133e-06 3.12548e-27)
(1.06104e-06 4.06673e-06 3.02402e-27)
(6.06168e-07 4.05586e-06 -1.13817e-28)
(1.06549e-06 4.18015e-06 3.44732e-27)
(6.10954e-07 4.17027e-06 -3.53131e-28)
(1.06953e-06 4.29346e-06 -3.40468e-27)
(6.15388e-07 4.28456e-06 7.80537e-27)
(1.0732e-06 4.40664e-06 -7.17698e-27)
(6.19453e-07 4.39872e-06 -7.33065e-27)
(1.07648e-06 4.5197e-06 7.50112e-27)
(6.23135e-07 4.51276e-06 -3.6241e-27)
(1.07941e-06 4.63265e-06 9.15621e-29)
(6.26421e-07 4.6267e-06 -3.48715e-28)
(1.08197e-06 4.7455e-06 3.76728e-27)
(6.29299e-07 4.74054e-06 -5.0626e-29)
(1.08417e-06 4.85827e-06 5.38376e-31)
(6.31759e-07 4.85432e-06 -3.94538e-27)
(1.08602e-06 4.97098e-06 4.02473e-27)
(6.33795e-07 4.96804e-06 -2.60464e-29)
(1.08751e-06 5.08365e-06 4.23275e-27)
(6.35403e-07 5.08174e-06 5.30404e-30)
(1.08866e-06 5.19631e-06 -4.17394e-27)
(6.3661e-07 5.19544e-06 4.2832e-27)
(1.08944e-06 5.30909e-06 -1.57998e-28)
(1.0333e-06 5.3656e-06 -9.71432e-29)
(9.20534e-07 5.36563e-06 6.93758e-30)
(8.07524e-07 5.36572e-06 2.07451e-29)
(6.94265e-07 5.36574e-06 -4.32155e-29)
(6.37414e-07 5.30905e-06 9.78611e-29)
)
;
    }
    frontAndBackPlanes
    {
        type            empty;
    }
}


// ************************************************************************* //
