/*--------------------------------*- C++ -*----------------------------------*\
| =========                 |                                                 |
| \\      /  F ield         | OpenFOAM Extend Project: Open source CFD        |
|  \\    /   O peration     | Version:  1.6-ext                               |
|   \\  /    A nd           | Web:      www.extend-project.de                 |
|    \\/     M anipulation  |                                                 |
\*---------------------------------------------------------------------------*/
FoamFile
{
    version     2.0;
    format      ascii;
    class       volVectorField;
    location    "0.6";
    object      DU_0;
}
// * * * * * * * * * * * * * * * * * * * * * * * * * * * * * * * * * * * * * //

dimensions      [0 1 0 0 0 0 0];

internalField   nonuniform List<vector> 
328
(
(2.53416e-09 4.70502e-09 0)
(1.57246e-09 7.80836e-10 0)
(1.45563e-09 -1.08447e-09 0)
(2.0157e-09 -4.22465e-09 0)
(7.73735e-09 1.20605e-08 0)
(5.21042e-09 2.4133e-09 0)
(4.80422e-09 -3.03003e-09 0)
(6.12228e-09 -1.08336e-08 0)
(1.37791e-08 1.75824e-08 0)
(1.00957e-08 4.09987e-09 0)
(9.27492e-09 -4.723e-09 0)
(1.08687e-08 -1.56832e-08 0)
(2.03764e-08 2.16229e-08 0)
(1.58147e-08 5.71392e-09 0)
(1.45152e-08 -6.02089e-09 0)
(1.60331e-08 -1.90017e-08 0)
(2.76131e-08 2.46183e-08 0)
(2.24456e-08 7.21871e-09 0)
(2.0599e-08 -6.86373e-09 0)
(2.16858e-08 -2.10994e-08 0)
(3.54577e-08 2.69114e-08 0)
(2.98561e-08 8.62386e-09 0)
(2.74106e-08 -7.21418e-09 0)
(2.78038e-08 -2.22069e-08 0)
(4.39528e-08 2.87914e-08 0)
(3.80316e-08 9.98682e-09 0)
(3.49353e-08 -7.06722e-09 0)
(3.44228e-08 -2.25048e-08 0)
(5.31293e-08 3.04878e-08 0)
(4.69259e-08 1.139e-08 0)
(4.31293e-08 -6.4238e-09 0)
(4.15679e-08 -2.21137e-08 0)
(6.30354e-08 3.21944e-08 0)
(5.65309e-08 1.29346e-08 0)
(5.19817e-08 -5.28579e-09 0)
(4.92767e-08 -2.11113e-08 0)
(7.37193e-08 3.40761e-08 0)
(6.68449e-08 1.47306e-08 0)
(6.14877e-08 -3.64377e-09 0)
(5.75861e-08 -1.95343e-08 0)
(8.52341e-08 3.62807e-08 0)
(7.78866e-08 1.68932e-08 0)
(7.16611e-08 -1.47211e-09 0)
(6.65352e-08 -1.73848e-08 0)
(9.76341e-08 3.89456e-08 0)
(8.96872e-08 1.95409e-08 0)
(8.25276e-08 1.27614e-09 0)
(7.61631e-08 -1.46327e-08 0)
(1.10976e-07 4.22043e-08 0)
(1.02292e-07 2.27965e-08 0)
(9.41261e-08 4.67151e-09 0)
(8.65098e-08 -1.12172e-08 0)
(1.25321e-07 4.61926e-08 0)
(1.15755e-07 2.67896e-08 0)
(1.06505e-07 8.80994e-09 0)
(9.76165e-08 -7.04824e-09 0)
(1.40731e-07 5.1055e-08 0)
(1.30143e-07 3.16613e-08 0)
(1.19721e-07 1.38139e-08 0)
(1.09526e-07 -2.00637e-09 0)
(1.57276e-07 5.69507e-08 0)
(1.45525e-07 3.75693e-08 0)
(1.33838e-07 1.98338e-08 0)
(1.22284e-07 4.05755e-09 0)
(1.7503e-07 6.40605e-08 0)
(1.61978e-07 4.46938e-08 0)
(1.48922e-07 2.70502e-08 0)
(1.35937e-07 1.1324e-08 0)
(1.94072e-07 7.2594e-08 0)
(1.79582e-07 5.32449e-08 0)
(1.65043e-07 3.56776e-08 0)
(1.50536e-07 2.00078e-08 0)
(2.14489e-07 8.2797e-08 0)
(1.98419e-07 6.3469e-08 0)
(1.82272e-07 4.59683e-08 0)
(1.66133e-07 3.03625e-08 0)
(2.36373e-07 9.49597e-08 0)
(2.18575e-07 7.56573e-08 0)
(2.00683e-07 5.82196e-08 0)
(1.82783e-07 4.26866e-08 0)
(2.5982e-07 1.09425e-07 0)
(2.40138e-07 9.01542e-08 0)
(2.2035e-07 7.27811e-08 0)
(2.00542e-07 5.73307e-08 0)
(2.84932e-07 1.26597e-07 0)
(2.63197e-07 1.07366e-07 0)
(2.41347e-07 9.00636e-08 0)
(2.19467e-07 7.47069e-08 0)
(3.1284e-07 1.4773e-07 0)
(2.88783e-07 1.28551e-07 0)
(2.64605e-07 1.1133e-07 0)
(2.40385e-07 9.60833e-08 0)
(3.42634e-07 1.72873e-07 0)
(3.16051e-07 1.53759e-07 0)
(2.89342e-07 1.36634e-07 0)
(2.6258e-07 1.2151e-07 0)
(3.7233e-07 2.00578e-07 0)
(3.43185e-07 1.8154e-07 0)
(3.13909e-07 1.64517e-07 0)
(2.84569e-07 1.49523e-07 0)
(4.0191e-07 2.3088e-07 0)
(3.70171e-07 2.11926e-07 0)
(3.38296e-07 1.95014e-07 0)
(3.06346e-07 1.80155e-07 0)
(4.31359e-07 2.63806e-07 0)
(3.96996e-07 2.44948e-07 0)
(3.62491e-07 2.28154e-07 0)
(3.27903e-07 2.13435e-07 0)
(4.6066e-07 2.99383e-07 0)
(4.23645e-07 2.80629e-07 0)
(3.86485e-07 2.63961e-07 0)
(3.49232e-07 2.49388e-07 0)
(4.89798e-07 3.37632e-07 0)
(4.50108e-07 3.18992e-07 0)
(4.10267e-07 3.02457e-07 0)
(3.70325e-07 2.88036e-07 0)
(5.18761e-07 3.78576e-07 0)
(4.76371e-07 3.60058e-07 0)
(4.33826e-07 3.43663e-07 0)
(3.91171e-07 3.294e-07 0)
(5.47535e-07 4.22236e-07 0)
(5.02423e-07 4.03848e-07 0)
(4.57151e-07 3.87601e-07 0)
(4.11763e-07 3.73502e-07 0)
(5.76106e-07 4.68634e-07 0)
(5.2825e-07 4.50385e-07 0)
(4.80232e-07 4.34293e-07 0)
(4.3209e-07 4.20364e-07 0)
(6.04462e-07 5.17793e-07 0)
(5.53843e-07 4.99692e-07 0)
(5.03058e-07 4.83762e-07 0)
(4.52144e-07 4.70009e-07 0)
(6.32589e-07 5.69735e-07 0)
(5.79187e-07 5.51791e-07 0)
(5.2562e-07 5.36031e-07 0)
(4.71916e-07 5.22458e-07 0)
(6.60469e-07 6.2448e-07 0)
(6.04271e-07 6.06704e-07 0)
(5.47907e-07 5.9112e-07 0)
(4.91398e-07 5.77734e-07 0)
(6.88087e-07 6.82046e-07 0)
(6.2908e-07 6.64449e-07 0)
(5.6991e-07 6.49051e-07 0)
(5.10587e-07 6.35854e-07 0)
(7.15423e-07 7.42447e-07 0)
(6.53601e-07 7.25041e-07 0)
(5.91619e-07 7.09836e-07 0)
(5.29476e-07 6.96834e-07 0)
(7.42455e-07 8.05689e-07 0)
(6.77817e-07 7.88489e-07 0)
(6.13025e-07 7.73486e-07 0)
(5.48063e-07 7.60682e-07 0)
(7.6916e-07 8.71774e-07 0)
(7.01714e-07 8.54795e-07 0)
(6.3412e-07 8.40003e-07 0)
(5.66345e-07 8.274e-07 0)
(7.95514e-07 9.40695e-07 0)
(7.25275e-07 9.23952e-07 0)
(6.54894e-07 9.0938e-07 0)
(5.84322e-07 8.96982e-07 0)
(8.2149e-07 1.01243e-06 0)
(7.48481e-07 9.95945e-07 0)
(6.75338e-07 9.81604e-07 0)
(6.01993e-07 9.69414e-07 0)
(8.4706e-07 1.08696e-06 0)
(7.71315e-07 1.07075e-06 0)
(6.95444e-07 1.05665e-06 0)
(6.19359e-07 1.04467e-06 0)
(8.72196e-07 1.16425e-06 0)
(7.93758e-07 1.14833e-06 0)
(7.15203e-07 1.13448e-06 0)
(6.3642e-07 1.12272e-06 0)
(8.96867e-07 1.24425e-06 0)
(8.1579e-07 1.22863e-06 0)
(7.34604e-07 1.21505e-06 0)
(6.53178e-07 1.2035e-06 0)
(9.21045e-07 1.32689e-06 0)
(8.37393e-07 1.3116e-06 0)
(7.5364e-07 1.2983e-06 0)
(6.69633e-07 1.28698e-06 0)
(9.44698e-07 1.41211e-06 0)
(8.58548e-07 1.39717e-06 0)
(7.72301e-07 1.38416e-06 0)
(6.85786e-07 1.37306e-06 0)
(9.67799e-07 1.49983e-06 0)
(8.79234e-07 1.48526e-06 0)
(7.90577e-07 1.47254e-06 0)
(7.01638e-07 1.46168e-06 0)
(9.90319e-07 1.58995e-06 0)
(8.99433e-07 1.57577e-06 0)
(8.08459e-07 1.56337e-06 0)
(7.17188e-07 1.55274e-06 0)
(1.01223e-06 1.68237e-06 0)
(9.19128e-07 1.6686e-06 0)
(8.25938e-07 1.65652e-06 0)
(7.32436e-07 1.64614e-06 0)
(1.03351e-06 1.77699e-06 0)
(9.38301e-07 1.76364e-06 0)
(8.43005e-07 1.7519e-06 0)
(7.47382e-07 1.74176e-06 0)
(1.05413e-06 1.87368e-06 0)
(9.56936e-07 1.86077e-06 0)
(8.5965e-07 1.84937e-06 0)
(7.62021e-07 1.83949e-06 0)
(1.07408e-06 1.97232e-06 0)
(9.7502e-07 1.95987e-06 0)
(8.75864e-07 1.94882e-06 0)
(7.76352e-07 1.9392e-06 0)
(1.09334e-06 2.07278e-06 0)
(9.92539e-07 2.06079e-06 0)
(8.9164e-07 2.0501e-06 0)
(7.90371e-07 2.04075e-06 0)
(1.11188e-06 2.17492e-06 0)
(1.00948e-06 2.1634e-06 0)
(9.0697e-07 2.15309e-06 0)
(8.04073e-07 2.144e-06 0)
(1.12971e-06 2.27861e-06 0)
(1.02584e-06 2.26757e-06 0)
(9.21845e-07 2.25763e-06 0)
(8.17452e-07 2.24882e-06 0)
(1.14682e-06 2.38371e-06 0)
(1.04161e-06 2.37316e-06 0)
(9.3626e-07 2.3636e-06 0)
(8.30503e-07 2.35507e-06 0)
(1.1632e-06 2.49009e-06 0)
(1.05678e-06 2.48001e-06 0)
(9.50207e-07 2.47085e-06 0)
(8.43218e-07 2.4626e-06 0)
(1.17884e-06 2.5976e-06 0)
(1.07135e-06 2.58801e-06 0)
(9.63682e-07 2.57923e-06 0)
(8.5559e-07 2.57127e-06 0)
(1.19375e-06 2.70611e-06 0)
(1.08531e-06 2.69701e-06 0)
(9.76679e-07 2.68862e-06 0)
(8.67612e-07 2.68096e-06 0)
(1.20794e-06 2.81551e-06 0)
(1.09867e-06 2.80689e-06 0)
(9.89193e-07 2.79888e-06 0)
(8.79273e-07 2.79151e-06 0)
(1.22141e-06 2.92565e-06 0)
(1.11143e-06 2.91751e-06 0)
(1.00122e-06 2.90989e-06 0)
(8.90567e-07 2.90282e-06 0)
(1.23417e-06 3.03643e-06 0)
(1.12358e-06 3.02876e-06 0)
(1.01276e-06 3.02153e-06 0)
(9.01483e-07 3.01476e-06 0)
(1.24622e-06 3.14774e-06 0)
(1.13514e-06 3.14053e-06 0)
(1.02381e-06 3.13368e-06 0)
(9.12011e-07 3.12721e-06 0)
(1.25759e-06 3.25947e-06 0)
(1.14611e-06 3.2527e-06 0)
(1.03435e-06 3.24623e-06 0)
(9.2214e-07 3.24008e-06 0)
(1.26828e-06 3.37152e-06 0)
(1.15649e-06 3.3652e-06 0)
(1.0444e-06 3.3591e-06 0)
(9.3186e-07 3.35326e-06 0)
(1.27831e-06 3.48381e-06 0)
(1.16629e-06 3.47792e-06 0)
(1.05395e-06 3.4722e-06 0)
(9.41159e-07 3.46666e-06 0)
(1.28769e-06 3.59626e-06 0)
(1.17551e-06 3.59079e-06 0)
(1.06299e-06 3.58544e-06 0)
(9.50023e-07 3.58022e-06 0)
(1.29645e-06 3.70881e-06 0)
(1.18416e-06 3.70374e-06 0)
(1.07152e-06 3.69876e-06 0)
(9.5844e-07 3.69386e-06 0)
(1.30459e-06 3.82139e-06 0)
(1.19225e-06 3.81672e-06 0)
(1.07954e-06 3.81209e-06 0)
(9.66396e-07 3.80752e-06 0)
(1.31213e-06 3.93396e-06 0)
(1.19977e-06 3.92968e-06 0)
(1.08705e-06 3.92541e-06 0)
(9.73877e-07 3.92116e-06 0)
(1.31909e-06 4.04648e-06 0)
(1.20675e-06 4.04258e-06 0)
(1.09403e-06 4.03867e-06 0)
(9.8087e-07 4.03476e-06 0)
(1.32548e-06 4.15894e-06 0)
(1.21318e-06 4.15541e-06 0)
(1.10048e-06 4.15185e-06 0)
(9.8736e-07 4.14828e-06 0)
(1.33131e-06 4.27132e-06 0)
(1.21906e-06 4.26815e-06 0)
(1.10641e-06 4.26494e-06 0)
(9.93335e-07 4.26171e-06 0)
(1.3366e-06 4.38362e-06 0)
(1.2244e-06 4.3808e-06 0)
(1.1118e-06 4.37795e-06 0)
(9.98783e-07 4.37506e-06 0)
(1.34135e-06 4.49583e-06 0)
(1.22921e-06 4.49336e-06 0)
(1.11666e-06 4.49086e-06 0)
(1.0037e-06 4.48833e-06 0)
(1.34557e-06 4.60797e-06 0)
(1.23347e-06 4.60586e-06 0)
(1.12097e-06 4.60371e-06 0)
(1.00807e-06 4.60153e-06 0)
(1.34925e-06 4.72006e-06 0)
(1.2372e-06 4.71829e-06 0)
(1.12474e-06 4.71649e-06 0)
(1.01188e-06 4.71467e-06 0)
(1.35241e-06 4.83209e-06 0)
(1.24039e-06 4.83067e-06 0)
(1.12796e-06 4.82923e-06 0)
(1.01515e-06 4.82777e-06 0)
(1.35503e-06 4.94409e-06 0)
(1.24303e-06 4.94302e-06 0)
(1.13063e-06 4.94194e-06 0)
(1.01786e-06 4.94084e-06 0)
(1.35711e-06 5.05607e-06 0)
(1.24512e-06 5.05535e-06 0)
(1.13274e-06 5.05463e-06 0)
(1.01999e-06 5.0539e-06 0)
(1.35867e-06 5.16805e-06 0)
(1.24666e-06 5.16768e-06 0)
(1.1343e-06 5.16732e-06 0)
(1.02158e-06 5.16695e-06 0)
(1.35964e-06 5.28012e-06 0)
(1.24762e-06 5.28004e-06 0)
(1.13526e-06 5.27998e-06 0)
(1.02256e-06 5.27991e-06 0)
)
;

boundaryField
{
    plateFix
    {
        type            fixedDisplacement;
        value           uniform (0 0 0);
    }
    plate
    {
        type            solidTraction;
        nonLinear       updatedLagrangian;
        traction        uniform (0 0 0);
        pressure        uniform 0;
        value           nonuniform List<vector> 
168
(
(2.31458e-08 1.3082e-08 -9.0217e-28)
(2.05786e-08 -1.08512e-08 3.47942e-26)
(2.27979e-08 2.07339e-08 -3.61477e-26)
(1.95768e-08 -1.76533e-08 -1.98886e-26)
(2.42047e-08 2.66761e-08 3.63594e-26)
(1.98301e-08 -2.28068e-08 -8.00156e-29)
(2.75214e-08 3.08983e-08 -1.61625e-26)
(2.15891e-08 -2.62479e-08 1.89999e-26)
(3.2613e-08 3.40453e-08 1.24189e-26)
(2.47694e-08 -2.84509e-08 -1.7931e-26)
(3.91287e-08 3.64321e-08 1.63559e-26)
(2.90879e-08 -2.96224e-08 2.8854e-26)
(4.68796e-08 3.83904e-08 -1.53831e-26)
(3.43862e-08 -2.99752e-08 -4.08652e-26)
(5.57207e-08 4.01509e-08 1.5728e-26)
(4.05367e-08 -2.96294e-08 2.63678e-26)
(6.55799e-08 4.19147e-08 -2.5203e-26)
(4.74687e-08 -2.8667e-08 -2.45326e-26)
(7.64201e-08 4.38464e-08 1.16434e-26)
(5.5138e-08 -2.71237e-08 1.06746e-26)
(8.82355e-08 4.60939e-08 1.1778e-27)
(6.35254e-08 -2.50009e-08 -1.38256e-27)
(1.0104e-07 4.87939e-08 8.43805e-27)
(7.2627e-08 -2.22674e-08 1.87681e-27)
(1.14863e-07 5.20799e-08 -8.73771e-27)
(8.24518e-08 -1.88621e-08 -9.49716e-28)
(1.29749e-07 5.60881e-08 -6.48888e-27)
(9.30186e-08 -1.46949e-08 -3.36384e-28)
(1.45752e-07 6.09637e-08 5.70081e-27)
(1.04355e-07 -9.64692e-09 1.17216e-26)
(1.62938e-07 6.68668e-08 -4.29951e-29)
(1.16494e-07 -3.56955e-09 -1.06091e-26)
(1.81382e-07 7.39793e-08 -4.62423e-28)
(1.29475e-07 3.7171e-09 -4.22914e-27)
(2.01168e-07 8.25117e-08 -7.73958e-27)
(1.43342e-07 1.24274e-08 2.70707e-27)
(2.22388e-07 9.27101e-08 8.63044e-27)
(1.58141e-07 2.28148e-08 1.96398e-27)
(2.45141e-07 1.04865e-07 3.12633e-30)
(1.7392e-07 3.51775e-08 2.26454e-28)
(2.69535e-07 1.19319e-07 -4.33639e-27)
(1.90727e-07 4.98662e-08 -7.51021e-28)
(2.95677e-07 1.36476e-07 6.22949e-29)
(2.08613e-07 6.72931e-08 4.1203e-27)
(3.24753e-07 1.57587e-07 3.60539e-27)
(2.28354e-07 8.87285e-08 -4.0551e-27)
(3.55815e-07 1.82702e-07 2.53722e-28)
(2.49269e-07 1.14222e-07 3.12275e-27)
(3.86798e-07 2.10373e-07 7.15596e-28)
(2.6996e-07 1.42303e-07 -3.23621e-27)
(4.17682e-07 2.40635e-07 -4.44616e-27)
(2.90423e-07 1.73005e-07 -4.61221e-27)
(4.48447e-07 2.73517e-07 4.13245e-27)
(3.10652e-07 2.06359e-07 4.19991e-27)
(4.79077e-07 3.09043e-07 -3.34071e-27)
(3.30642e-07 2.42387e-07 7.3062e-28)
(5.09556e-07 3.47238e-07 6.1086e-27)
(3.50384e-07 2.81113e-07 -8.06779e-28)
(5.3987e-07 3.88124e-07 -4.90515e-27)
(3.6987e-07 3.22559e-07 -2.2932e-28)
(5.70007e-07 4.31721e-07 2.91521e-28)
(3.89091e-07 3.66745e-07 1.3491e-27)
(5.99953e-07 4.78052e-07 1.26283e-27)
(4.08036e-07 4.13694e-07 1.47023e-27)
(6.29696e-07 5.2714e-07 -6.80173e-28)
(4.26698e-07 4.63429e-07 -2.90476e-27)
(6.5922e-07 5.79006e-07 2.12764e-27)
(4.45067e-07 5.1597e-07 4.99071e-28)
(6.8851e-07 6.33669e-07 -2.19152e-27)
(4.63138e-07 5.7134e-07 2.75781e-27)
(7.17545e-07 6.91147e-07 2.0763e-27)
(4.80907e-07 6.29557e-07 -1.89022e-27)
(7.46304e-07 7.51452e-07 -8.54641e-28)
(4.98372e-07 6.90634e-07 -2.32022e-27)
(7.74762e-07 8.14592e-07 3.77603e-27)
(5.15532e-07 7.5458e-07 1.89195e-27)
(8.02893e-07 8.80566e-07 -2.83542e-27)
(5.3239e-07 8.21398e-07 4.40815e-27)
(8.30667e-07 9.49366e-07 -6.47356e-28)
(5.48948e-07 8.91081e-07 -6.01508e-28)
(8.58053e-07 1.02098e-06 -5.51399e-27)
(5.65212e-07 9.63614e-07 -1.82576e-27)
(8.85018e-07 1.09537e-06 3.45877e-27)
(5.81185e-07 1.03897e-06 -2.03092e-28)
(9.11527e-07 1.1725e-06 -1.29192e-27)
(5.96874e-07 1.11712e-06 8.42624e-29)
(9.37545e-07 1.25233e-06 2.36176e-27)
(6.12285e-07 1.19801e-06 1.04899e-27)
(9.63037e-07 1.3348e-06 -1.9199e-27)
(6.27425e-07 1.28159e-06 1.49529e-28)
(9.87966e-07 1.41984e-06 1.30319e-27)
(6.42301e-07 1.36778e-06 -1.9388e-27)
(1.0123e-06 1.50736e-06 5.0706e-28)
(6.56917e-07 1.45651e-06 5.76779e-28)
(1.036e-06 1.59728e-06 -3.8216e-29)
(6.7128e-07 1.54767e-06 2.95878e-27)
(1.05904e-06 1.68949e-06 7.77192e-28)
(6.85393e-07 1.64118e-06 6.15488e-28)
(1.08139e-06 1.78389e-06 -2.02184e-27)
(6.99259e-07 1.73692e-06 -4.16249e-28)
(1.10302e-06 1.88034e-06 -1.76375e-28)
(7.12879e-07 1.83476e-06 1.56963e-27)
(1.1239e-06 1.97875e-06 4.18615e-28)
(7.26255e-07 1.93458e-06 -1.02923e-27)
(1.14403e-06 2.07896e-06 -3.71859e-28)
(7.39384e-07 2.03625e-06 1.01375e-27)
(1.16338e-06 2.18085e-06 -4.7082e-28)
(7.52263e-07 2.13963e-06 -9.81935e-30)
(1.18195e-06 2.28428e-06 -2.02686e-28)
(7.64888e-07 2.24457e-06 -4.94431e-29)
(1.19971e-06 2.38913e-06 2.73186e-28)
(7.77253e-07 2.35095e-06 -1.94021e-28)
(1.21668e-06 2.49524e-06 -4.01103e-28)
(7.89351e-07 2.4586e-06 -3.27135e-28)
(1.23285e-06 2.6025e-06 5.49429e-28)
(8.01174e-07 2.56741e-06 4.00482e-28)
(1.24822e-06 2.71076e-06 7.44975e-30)
(8.12712e-07 2.67722e-06 -2.92172e-27)
(1.2628e-06 2.8199e-06 2.18831e-29)
(8.23954e-07 2.78792e-06 3.09279e-29)
(1.27661e-06 2.92979e-06 1.44572e-30)
(8.34889e-07 2.89936e-06 -1.73654e-28)
(1.28964e-06 3.04033e-06 9.40254e-30)
(8.45504e-07 3.01144e-06 -1.25992e-27)
(1.30192e-06 3.15139e-06 -1.99956e-29)
(8.55786e-07 3.12403e-06 -1.45767e-27)
(1.31346e-06 3.26289e-06 -1.88088e-28)
(8.65721e-07 3.23704e-06 8.97944e-28)
(1.32428e-06 3.37471e-06 2.85981e-28)
(8.75293e-07 3.35037e-06 -2.53422e-27)
(1.33439e-06 3.48678e-06 -2.7986e-27)
(8.84486e-07 3.46392e-06 -2.23905e-28)
(1.34383e-06 3.59901e-06 2.9408e-27)
(8.93281e-07 3.57763e-06 -3.74986e-28)
(1.35261e-06 3.71135e-06 -4.54777e-28)
(9.01662e-07 3.69142e-06 3.61141e-27)
(1.36075e-06 3.82373e-06 -2.76801e-27)
(9.09609e-07 3.80524e-06 -3.38666e-31)
(1.36827e-06 3.9361e-06 3.38313e-27)
(9.17101e-07 3.91904e-06 -1.6386e-28)
(1.3752e-06 4.04843e-06 -1.83298e-30)
(9.24119e-07 4.0328e-06 6.6292e-27)
(1.38155e-06 4.16071e-06 -1.48867e-28)
(9.30645e-07 4.14649e-06 -3.01147e-27)
(1.38734e-06 4.2729e-06 -6.68009e-27)
(9.36661e-07 4.26009e-06 -3.85378e-27)
(1.39259e-06 4.38502e-06 3.31004e-27)
(9.4215e-07 4.37361e-06 3.47054e-27)
(1.3973e-06 4.49706e-06 7.09831e-27)
(9.47102e-07 4.48705e-06 -3.60533e-27)
(1.40149e-06 4.60903e-06 -7.3689e-27)
(9.51505e-07 4.60043e-06 -2.31437e-28)
(1.40515e-06 4.72094e-06 4.10956e-27)
(9.55353e-07 4.71375e-06 8.40107e-29)
(1.40828e-06 4.8328e-06 -3.94564e-27)
(9.58641e-07 4.82703e-06 3.73102e-27)
(1.4109e-06 4.94463e-06 9.49264e-29)
(9.61366e-07 4.94029e-06 1.06224e-28)
(1.41298e-06 5.05643e-06 -3.46728e-29)
(9.63522e-07 5.05352e-06 4.18299e-27)
(1.41456e-06 5.16823e-06 4.22989e-27)
(9.65145e-07 5.16677e-06 -4.27234e-27)
(1.4156e-06 5.28015e-06 6.29404e-29)
(1.35993e-06 5.33624e-06 1.09238e-28)
(1.24791e-06 5.33625e-06 9.41421e-28)
(1.13555e-06 5.33633e-06 8.14632e-28)
(1.02285e-06 5.33631e-06 -2.70946e-29)
(9.66207e-07 5.27989e-06 -3.48921e-29)
)
;
    }
    frontAndBackPlanes
    {
        type            empty;
    }
}


// ************************************************************************* //
