/*--------------------------------*- C++ -*----------------------------------*\
| =========                 |                                                 |
| \\      /  F ield         | OpenFOAM Extend Project: Open source CFD        |
|  \\    /   O peration     | Version:  1.6-ext                               |
|   \\  /    A nd           | Web:      www.extend-project.de                 |
|    \\/     M anipulation  |                                                 |
\*---------------------------------------------------------------------------*/
FoamFile
{
    version     2.0;
    format      ascii;
    class       volVectorField;
    location    "0.6";
    object      DV;
}
// * * * * * * * * * * * * * * * * * * * * * * * * * * * * * * * * * * * * * //

dimensions      [0 1 -1 0 0 0 0];

internalField   nonuniform List<vector> 
328
(
(-6.52699e-07 -1.34574e-06 0)
(-4.31224e-07 -2.79552e-07 0)
(-4.33931e-07 2.88362e-07 0)
(-6.6997e-07 1.3716e-06 0)
(-1.98597e-06 -3.4188e-06 0)
(-1.432e-06 -8.02151e-07 0)
(-1.4413e-06 8.4048e-07 0)
(-2.03773e-06 3.49627e-06 0)
(-3.53123e-06 -4.92253e-06 0)
(-2.78282e-06 -1.28209e-06 0)
(-2.80118e-06 1.3636e-06 0)
(-3.61974e-06 5.05823e-06 0)
(-5.21459e-06 -5.95781e-06 0)
(-4.3657e-06 -1.6808e-06 0)
(-4.39448e-06 1.81852e-06 0)
(-5.34036e-06 6.15932e-06 0)
(-7.05865e-06 -6.64641e-06 0)
(-6.20211e-06 -1.98647e-06 0)
(-6.24251e-06 2.1922e-06 0)
(-7.22166e-06 6.9203e-06 0)
(-9.05583e-06 -7.08009e-06 0)
(-8.25403e-06 -2.19745e-06 0)
(-8.30662e-06 2.48161e-06 0)
(-9.25519e-06 7.43214e-06 0)
(-1.12179e-05 -7.33216e-06 0)
(-1.05169e-05 -2.32376e-06 0)
(-1.05818e-05 2.69537e-06 0)
(-1.14522e-05 7.76801e-06 0)
(-1.35536e-05 -7.45606e-06 0)
(-1.29775e-05 -2.37944e-06 0)
(-1.30544e-05 2.84632e-06 0)
(-1.38207e-05 7.98154e-06 0)
(-1.60755e-05 -7.4923e-06 0)
(-1.56333e-05 -2.3808e-06 0)
(-1.57216e-05 2.94995e-06 0)
(-1.63733e-05 8.11355e-06 0)
(-1.87964e-05 -7.47019e-06 0)
(-1.84839e-05 -2.343e-06 0)
(-1.85829e-05 3.02127e-06 0)
(-1.91228e-05 8.19395e-06 0)
(-2.17297e-05 -7.41082e-06 0)
(-2.15346e-05 -2.27886e-06 0)
(-2.16435e-05 3.07379e-06 0)
(-2.20827e-05 8.24494e-06 0)
(-2.48892e-05 -7.32822e-06 0)
(-2.47942e-05 -2.19772e-06 0)
(-2.49122e-05 3.11882e-06 0)
(-2.52671e-05 8.28267e-06 0)
(-2.8289e-05 -7.23081e-06 0)
(-2.82755e-05 -2.10525e-06 0)
(-2.84018e-05 3.16544e-06 0)
(-2.86904e-05 8.31888e-06 0)
(-3.19442e-05 -7.12242e-06 0)
(-3.19942e-05 -2.00372e-06 0)
(-3.21278e-05 3.22075e-06 0)
(-3.23675e-05 8.36198e-06 0)
(-3.5871e-05 -7.0035e-06 0)
(-3.59683e-05 -1.89264e-06 0)
(-3.61081e-05 3.2902e-06 0)
(-3.63138e-05 8.41792e-06 0)
(-4.0087e-05 -6.87242e-06 0)
(-4.02179e-05 -1.76988e-06 0)
(-4.03623e-05 3.37766e-06 0)
(-4.05454e-05 8.49056e-06 0)
(-4.46115e-05 -6.727e-06 0)
(-4.47644e-05 -1.63305e-06 0)
(-4.4911e-05 3.48521e-06 0)
(-4.50786e-05 8.58161e-06 0)
(-4.94656e-05 -6.56619e-06 0)
(-4.96303e-05 -1.48112e-06 0)
(-4.97755e-05 3.61241e-06 0)
(-4.99305e-05 8.69022e-06 0)
(-5.46724e-05 -6.39171e-06 0)
(-5.48388e-05 -1.31612e-06 0)
(-5.49775e-05 3.75544e-06 0)
(-5.51187e-05 8.81209e-06 0)
(-6.02558e-05 -6.20944e-06 0)
(-6.04138e-05 -1.14451e-06 0)
(-6.05394e-05 3.90597e-06 0)
(-6.06616e-05 8.93868e-06 0)
(-6.62409e-05 -6.03019e-06 0)
(-6.63794e-05 -9.78076e-07 0)
(-6.64835e-05 4.05067e-06 0)
(-6.65786e-05 9.05665e-06 0)
(-7.26521e-05 -5.86951e-06 0)
(-7.27599e-05 -8.3359e-07 0)
(-7.28332e-05 4.1715e-06 0)
(-7.28914e-05 9.14822e-06 0)
(-7.97745e-05 -5.74146e-06 0)
(-7.98393e-05 -7.27404e-07 0)
(-7.98707e-05 4.25011e-06 0)
(-7.98802e-05 9.1943e-06 0)
(-8.73683e-05 -5.67757e-06 0)
(-8.73812e-05 -6.92024e-07 0)
(-8.73621e-05 4.254e-06 0)
(-8.7314e-05 9.16389e-06 0)
(-9.49204e-05 -5.6882e-06 0)
(-9.48804e-05 -7.3645e-07 0)
(-9.48096e-05 4.1758e-06 0)
(-9.47034e-05 9.05188e-06 0)
(-0.000102421 -5.76706e-06 0)
(-0.000102331 -8.53779e-07 0)
(-0.000102211 4.02236e-06 0)
(-0.00010205 8.86455e-06 0)
(-0.000109861 -5.90293e-06 0)
(-0.000109728 -1.03197e-06 0)
(-0.000109563 3.80572e-06 0)
(-0.000109353 8.61321e-06 0)
(-0.000117236 -6.08284e-06 0)
(-0.000117067 -1.25723e-06 0)
(-0.000116863 3.53971e-06 0)
(-0.000116612 8.31093e-06 0)
(-0.000124542 -6.2947e-06 0)
(-0.000124343 -1.51678e-06 0)
(-0.000124108 3.23716e-06 0)
(-0.000123822 7.96995e-06 0)
(-0.000131775 -6.52877e-06 0)
(-0.000131553 -1.80046e-06 0)
(-0.000131292 2.90826e-06 0)
(-0.00013098 7.6001e-06 0)
(-0.000138933 -6.77824e-06 0)
(-0.000138694 -2.10125e-06 0)
(-0.000138414 2.56006e-06 0)
(-0.00013808 7.20834e-06 0)
(-0.000146013 -7.03873e-06 0)
(-0.000145762 -2.41488e-06 0)
(-0.000145468 2.19689e-06 0)
(-0.000145118 6.79911e-06 0)
(-0.000153014 -7.30747e-06 0)
(-0.000152755 -2.73876e-06 0)
(-0.000152452 1.82136e-06 0)
(-0.00015209 6.37529e-06 0)
(-0.000159931 -7.5821e-06 0)
(-0.000159669 -3.07078e-06 0)
(-0.000159361 1.43559e-06 0)
(-0.000158992 5.93933e-06 0)
(-0.00016676 -7.85956e-06 0)
(-0.000166501 -3.40813e-06 0)
(-0.000166193 1.04243e-06 0)
(-0.000165823 5.49432e-06 0)
(-0.000173497 -8.13532e-06 0)
(-0.000173246 -3.74642e-06 0)
(-0.000172946 6.46267e-07 0)
(-0.000172579 5.04484e-06 0)
(-0.000180137 -8.40295e-06 0)
(-0.000179902 -4.07927e-06 0)
(-0.000179616 2.53514e-07 0)
(-0.00017926 4.59736e-06 0)
(-0.000186676 -8.65406e-06 0)
(-0.000186464 -4.39819e-06 0)
(-0.0001862 -1.27356e-07 0)
(-0.000185864 4.16029e-06 0)
(-0.000193109 -8.87863e-06 0)
(-0.000192929 -4.69301e-06 0)
(-0.000192696 -4.86146e-07 0)
(-0.000192388 3.74368e-06 0)
(-0.000199432 -9.06556e-06 0)
(-0.000199294 -4.95237e-06 0)
(-0.000199101 -8.11508e-07 0)
(-0.000198831 3.35864e-06 0)
(-0.000205643 -9.20332e-06 0)
(-0.000205556 -5.16448e-06 0)
(-0.000205412 -1.09163e-06 0)
(-0.00020519 3.01673e-06 0)
(-0.000211739 -9.28058e-06 0)
(-0.000211712 -5.31773e-06 0)
(-0.000211626 -1.3149e-06 0)
(-0.00021146 2.72931e-06 0)
(-0.000217717 -9.28675e-06 0)
(-0.000217759 -5.40129e-06 0)
(-0.000217739 -1.47048e-06 0)
(-0.000217638 2.50699e-06 0)
(-0.000223576 -9.21239e-06 0)
(-0.000223695 -5.4055e-06 0)
(-0.000223747 -1.54867e-06 0)
(-0.000223719 2.35928e-06 0)
(-0.000229315 -9.04947e-06 0)
(-0.000229516 -5.32215e-06 0)
(-0.000229649 -1.54128e-06 0)
(-0.000229699 2.29426e-06 0)
(-0.000234933 -8.79153e-06 0)
(-0.000235222 -5.14465e-06 0)
(-0.000235439 -1.44167e-06 0)
(-0.000235573 2.31843e-06 0)
(-0.000240429 -8.43383e-06 0)
(-0.00024081 -4.86815e-06 0)
(-0.000241114 -1.24497e-06 0)
(-0.000241335 2.43665e-06 0)
(-0.000245803 -7.97338e-06 0)
(-0.000246277 -4.48957e-06 0)
(-0.00024667 -9.48077e-07 0)
(-0.00024698 2.65197e-06 0)
(-0.000251055 -7.40905e-06 0)
(-0.000251622 -4.00776e-06 0)
(-0.000252104 -5.49803e-07 0)
(-0.000252504 2.96563e-06 0)
(-0.000256183 -6.7416e-06 0)
(-0.000256842 -3.42347e-06 0)
(-0.000257413 -5.08792e-08 0)
(-0.0002579 3.37694e-06 0)
(-0.000261188 -5.97373e-06 0)
(-0.000261936 -2.73944e-06 0)
(-0.000262592 5.46008e-07 0)
(-0.000263164 3.88332e-06 0)
(-0.000266069 -5.10996e-06 0)
(-0.000266901 -1.96026e-06 0)
(-0.000267639 1.23629e-06 0)
(-0.000268291 4.48036e-06 0)
(-0.000270825 -4.15648e-06 0)
(-0.000271736 -1.09223e-06 0)
(-0.000272549 2.0137e-06 0)
(-0.000273276 5.16195e-06 0)
(-0.000275456 -3.12089e-06 0)
(-0.000276439 -1.43095e-07 0)
(-0.000277321 2.87053e-06 0)
(-0.000278116 5.92061e-06 0)
(-0.000279959 -2.01182e-06 0)
(-0.000281006 8.78363e-07 0)
(-0.00028195 3.79803e-06 0)
(-0.000282805 6.74777e-06 0)
(-0.000284333 -8.38579e-07 0)
(-0.000285437 1.96269e-06 0)
(-0.000286434 4.78676e-06 0)
(-0.000287342 7.63423e-06 0)
(-0.000288577 3.89217e-07 0)
(-0.000289728 3.10013e-06 0)
(-0.00029077 5.82701e-06 0)
(-0.000291722 8.57045e-06 0)
(-0.000292687 1.66192e-06 0)
(-0.000293877 4.28092e-06 0)
(-0.000294957 6.90904e-06 0)
(-0.000295944 9.54688e-06 0)
(-0.000296661 2.97006e-06 0)
(-0.000297882 5.49551e-06 0)
(-0.00029899 8.02333e-06 0)
(-0.000300005 1.05541e-05 0)
(-0.000300497 4.3044e-06 0)
(-0.00030174 6.73458e-06 0)
(-0.000302869 9.1606e-06 0)
(-0.000303902 1.15831e-05 0)
(-0.000304192 5.65599e-06 0)
(-0.000305449 7.98916e-06 0)
(-0.000306591 1.03119e-05 0)
(-0.000307635 1.2625e-05 0)
(-0.000307743 7.01619e-06 0)
(-0.000309006 9.25056e-06 0)
(-0.000310154 1.14686e-05 0)
(-0.000311201 1.36712e-05 0)
(-0.000311147 8.37675e-06 0)
(-0.00031241 1.05105e-05 0)
(-0.000313555 1.26226e-05 0)
(-0.000314599 1.47139e-05 0)
(-0.000314402 9.72991e-06 0)
(-0.000315657 1.17612e-05 0)
(-0.000316794 1.3766e-05 0)
(-0.000317828 1.57454e-05 0)
(-0.000317505 1.10687e-05 0)
(-0.000318746 1.29958e-05 0)
(-0.000319869 1.48922e-05 0)
(-0.000320887 1.67592e-05 0)
(-0.000320452 1.23872e-05 0)
(-0.000321675 1.42083e-05 0)
(-0.000322779 1.59952e-05 0)
(-0.000323776 1.77496e-05 0)
(-0.000323242 1.36806e-05 0)
(-0.000324441 1.53942e-05 0)
(-0.000325522 1.70708e-05 0)
(-0.000326494 1.87124e-05 0)
(-0.000325871 1.49457e-05 0)
(-0.000327044 1.65503e-05 0)
(-0.000328098 1.8116e-05 0)
(-0.000329043 1.96447e-05 0)
(-0.000328338 1.61801e-05 0)
(-0.000329481 1.76748e-05 0)
(-0.000330507 1.91289e-05 0)
(-0.000331422 2.05449e-05 0)
(-0.000330641 1.73824e-05 0)
(-0.000331753 1.87664e-05 0)
(-0.000332748 2.01087e-05 0)
(-0.000333631 2.14123e-05 0)
(-0.00033278 1.85516e-05 0)
(-0.000333858 1.98244e-05 0)
(-0.000334821 2.10549e-05 0)
(-0.000335671 2.22464e-05 0)
(-0.000334754 1.96861e-05 0)
(-0.000335797 2.08476e-05 0)
(-0.000336727 2.19664e-05 0)
(-0.000337543 2.30465e-05 0)
(-0.000336563 2.07837e-05 0)
(-0.00033757 2.18338e-05 0)
(-0.000338466 2.28414e-05 0)
(-0.000339248 2.3811e-05 0)
(-0.000338208 2.18416e-05 0)
(-0.000339178 2.27803e-05 0)
(-0.000340039 2.36774e-05 0)
(-0.000340786 2.45378e-05 0)
(-0.000339688 2.2857e-05 0)
(-0.000340621 2.36844e-05 0)
(-0.000341449 2.44718e-05 0)
(-0.000342163 2.52248e-05 0)
(-0.000341003 2.38288e-05 0)
(-0.0003419 2.45449e-05 0)
(-0.000342697 2.52236e-05 0)
(-0.00034338 2.58712e-05 0)
(-0.00034215 2.47593e-05 0)
(-0.000343017 2.53643e-05 0)
(-0.000343786 2.59352e-05 0)
(-0.000344442 2.6479e-05 0)
(-0.000343129 2.56558e-05 0)
(-0.00034397 2.61498e-05 0)
(-0.000344717 2.66135e-05 0)
(-0.000345353 2.70548e-05 0)
(-0.000343939 2.65299e-05 0)
(-0.000344761 2.69133e-05 0)
(-0.000345491 2.727e-05 0)
(-0.000346115 2.76084e-05 0)
(-0.000344577 2.73922e-05 0)
(-0.000345387 2.76673e-05 0)
(-0.000346105 2.79183e-05 0)
(-0.000346723 2.81525e-05 0)
(-0.000345053 2.82543e-05 0)
(-0.000345853 2.8422e-05 0)
(-0.000346561 2.85688e-05 0)
(-0.000347178 2.86974e-05 0)
(-0.000345338 2.91113e-05 0)
(-0.000346135 2.91787e-05 0)
(-0.000346839 2.92335e-05 0)
(-0.000347453 2.92765e-05 0)
)
;

boundaryField
{
    plateFix
    {
        type            calculated;
        value           uniform (0 0 0);
    }
    plate
    {
        type            calculated;
        value           nonuniform List<vector> 
168
(
(-6.51757e-06 -3.65724e-06 -1.37931e-23)
(-6.71143e-06 3.7266e-06 -1.46738e-22)
(-6.15819e-06 -5.7715e-06 1.09411e-22)
(-6.39224e-06 5.89524e-06 7.89786e-23)
(-6.28486e-06 -7.36051e-06 -6.94219e-23)
(-6.56771e-06 7.5436e-06 -9.64042e-24)
(-6.94848e-06 -8.42473e-06 9.97598e-24)
(-7.27372e-06 8.67235e-06 -9.30495e-23)
(-8.10299e-06 -9.13909e-06 -3.64353e-23)
(-8.46347e-06 9.4566e-06 8.77011e-23)
(-9.64327e-06 -9.58665e-06 -6.44993e-23)
(-1.00348e-05 9.97892e-06 -8.60007e-23)
(-1.15106e-05 -9.85094e-06 6.64973e-23)
(-1.1931e-05 1.03232e-05 1.44321e-22)
(-1.3661e-05 -9.985e-06 -5.14834e-23)
(-1.41087e-05 1.0543e-05 -9.2707e-23)
(-1.60714e-05 -1.00307e-05 8.70334e-23)
(-1.65452e-05 1.06808e-05 8.03445e-23)
(-1.87289e-05 -1.00168e-05 -5.13096e-23)
(-1.92278e-05 1.07662e-05 -6.22957e-23)
(-2.16292e-05 -9.96413e-06 1.62079e-23)
(-2.21532e-05 1.08212e-05 1.45405e-23)
(-2.47735e-05 -9.88635e-06 -3.80603e-23)
(-2.53236e-05 1.08615e-05 -5.64471e-24)
(-2.81674e-05 -9.79181e-06 3.64609e-23)
(-2.87453e-05 1.08985e-05 7.36596e-24)
(-3.18203e-05 -9.68447e-06 4.82317e-24)
(-3.24282e-05 1.09406e-05 7.0147e-25)
(-3.57451e-05 -9.56507e-06 -1.73531e-23)
(-3.63839e-05 1.09936e-05 -4.55633e-23)
(-3.99582e-05 -9.43239e-06 -1.74894e-25)
(-4.06257e-05 1.10611e-05 4.11745e-23)
(-4.44794e-05 -9.28463e-06 2.73458e-24)
(-4.51679e-05 1.11449e-05 1.63714e-23)
(-4.93316e-05 -9.12098e-06 2.78068e-23)
(-5.00253e-05 1.1244e-05 -1.22182e-23)
(-5.45397e-05 -8.94321e-06 -2.9649e-23)
(-5.52133e-05 1.13543e-05 -1.72253e-23)
(-6.01305e-05 -8.75698e-06 -2.94909e-24)
(-6.07484e-05 1.14674e-05 8.9365e-24)
(-6.61304e-05 -8.57255e-06 2.44945e-23)
(-6.66489e-05 1.15702e-05 1.47166e-23)
(-7.25647e-05 -8.40473e-06 -3.42206e-24)
(-7.29359e-05 1.16455e-05 -1.8773e-23)
(-7.9719e-05 -8.26615e-06 -1.48264e-23)
(-7.98897e-05 1.16739e-05 1.0936e-23)
(-8.73496e-05 -8.18779e-06 7.08288e-25)
(-8.72832e-05 1.16257e-05 -7.37348e-24)
(-9.49371e-05 -8.18073e-06 1.75559e-25)
(-9.46335e-05 1.14966e-05 8.34363e-24)
(-0.000102468 -8.23921e-06 6.30256e-24)
(-0.000101945 1.12927e-05 1.51722e-23)
(-0.000109934 -8.35261e-06 -9.18571e-24)
(-0.00010922 1.10245e-05 -1.19704e-23)
(-0.000117328 -8.5086e-06 9.00906e-24)
(-0.000116457 1.07046e-05 -3.58313e-24)
(-0.000124646 -8.69555e-06 -1.53017e-23)
(-0.000123651 1.03449e-05 2.78045e-24)
(-0.000131888 -8.90399e-06 7.16509e-24)
(-0.000130796 9.95473e-06 3.09881e-24)
(-0.000139053 -9.12717e-06 -2.29909e-25)
(-0.000137886 9.54122e-06 -8.04175e-24)
(-0.000146138 -9.36063e-06 3.58357e-25)
(-0.000144916 9.10887e-06 4.87584e-25)
(-0.000153142 -9.60142e-06 4.41363e-25)
(-0.000151882 8.66078e-06 8.13329e-24)
(-0.000160062 -9.84694e-06 -1.59868e-24)
(-0.000158779 8.19963e-06 6.75109e-25)
(-0.000166891 -1.0094e-05 8.78762e-24)
(-0.000165606 7.72871e-06 -1.57205e-23)
(-0.000173626 -1.03379e-05 -5.33009e-24)
(-0.000172361 7.25274e-06 8.55177e-24)
(-0.000180261 -1.05722e-05 -6.86383e-25)
(-0.000179045 6.77822e-06 3.33897e-24)
(-0.000186789 -1.07885e-05 -1.00748e-23)
(-0.000185657 6.31351e-06 -1.68301e-24)
(-0.000193207 -1.09771e-05 4.51241e-24)
(-0.000192194 5.86854e-06 -1.58e-23)
(-0.000199509 -1.11268e-05 5.96365e-24)
(-0.000198655 5.45425e-06 -2.13577e-24)
(-0.000205693 -1.12265e-05 5.24259e-24)
(-0.000205037 5.08204e-06 5.62489e-24)
(-0.000211756 -1.12649e-05 -8.44334e-24)
(-0.000211337 4.76307e-06 6.83462e-24)
(-0.000217697 -1.12317e-05 1.02015e-23)
(-0.000217549 4.50783e-06 -3.04507e-24)
(-0.000223514 -1.11175e-05 -5.17509e-24)
(-0.00022367 4.32568e-06 -6.99224e-24)
(-0.000229208 -1.09144e-05 1.86065e-24)
(-0.000229692 4.22463e-06 -3.7257e-24)
(-0.000234777 -1.0616e-05 -8.06067e-24)
(-0.000235611 4.21112e-06 3.97607e-24)
(-0.000240224 -1.02176e-05 2.86469e-24)
(-0.00024142 4.28996e-06 -2.77552e-24)
(-0.000245546 -9.71632e-06 -1.20761e-24)
(-0.000247114 4.46421e-06 -1.50999e-23)
(-0.000250746 -9.11101e-06 -1.38451e-24)
(-0.000252686 4.73509e-06 3.32127e-24)
(-0.000255824 -8.40245e-06 7.59095e-24)
(-0.00025813 5.10196e-06 1.08855e-24)
(-0.00026078 -7.59329e-06 2.19276e-24)
(-0.00026344 5.5623e-06 -5.01093e-24)
(-0.000265615 -6.68799e-06 -4.35052e-24)
(-0.00026861 6.11176e-06 2.51016e-24)
(-0.000270328 -5.69267e-06 1.68383e-24)
(-0.000273635 6.74438e-06 -1.95746e-24)
(-0.00027492 -4.61482e-06 2.07978e-24)
(-0.00027851 7.45278e-06 2.32368e-25)
(-0.000279389 -3.46297e-06 1.5711e-25)
(-0.000283231 8.22855e-06 -7.38194e-25)
(-0.000283733 -2.24631e-06 -1.2694e-24)
(-0.000287795 9.06262e-06 8.35226e-25)
(-0.000287951 -9.74371e-07 1.31009e-24)
(-0.000292197 9.94557e-06 1.25601e-24)
(-0.000292041 3.43288e-07 -5.40874e-25)
(-0.000296437 1.0868e-05 -2.75814e-24)
(-0.000296 1.69724e-06 -9.43101e-26)
(-0.00030051 1.18205e-05 8.71796e-24)
(-0.000299824 3.07829e-06 -2.93107e-24)
(-0.000304417 1.27942e-05 -1.02943e-24)
(-0.000303512 4.47753e-06 -1.86709e-24)
(-0.000308153 1.37802e-05 2.43899e-24)
(-0.000307061 5.88635e-06 1.89646e-24)
(-0.00031172 1.47702e-05 3.34807e-25)
(-0.000310467 7.29651e-06 1.90119e-24)
(-0.000315114 1.57563e-05 8.03466e-24)
(-0.000313727 8.70029e-06 -4.57899e-24)
(-0.000318336 1.6731e-05 -1.99041e-24)
(-0.000316838 1.00907e-05 3.89769e-25)
(-0.000321384 1.76879e-05 7.33822e-25)
(-0.000319797 1.14618e-05 6.96062e-26)
(-0.00032426 1.86214e-05 3.54829e-24)
(-0.0003226 1.28089e-05 -1.56617e-23)
(-0.000326964 1.95274e-05 -3.22428e-24)
(-0.000325245 1.41282e-05 5.60174e-24)
(-0.000329497 2.04031e-05 -8.93571e-24)
(-0.000327729 1.54177e-05 7.53549e-25)
(-0.000331858 2.12469e-05 1.19432e-23)
(-0.00033005 1.66755e-05 -6.96155e-24)
(-0.00033405 2.20581e-05 8.20594e-24)
(-0.000332207 1.79004e-05 4.58601e-24)
(-0.000336072 2.28362e-05 -1.66848e-23)
(-0.000334202 1.90907e-05 2.24962e-24)
(-0.000337924 2.35805e-05 5.5986e-24)
(-0.000336033 2.02442e-05 1.16189e-23)
(-0.000339608 2.42899e-05 1.93007e-23)
(-0.000337701 2.13581e-05 -1.918e-23)
(-0.000341125 2.49624e-05 -1.79335e-23)
(-0.000339205 2.24298e-05 -2.79385e-24)
(-0.000342479 2.5596e-05 5.38529e-24)
(-0.000340543 2.34581e-05 1.47475e-23)
(-0.000343675 2.61902e-05 1.94383e-24)
(-0.00034171 2.44457e-05 1.26214e-24)
(-0.000344719 2.67468e-05 -2.17496e-24)
(-0.000342703 2.53996e-05 7.87168e-24)
(-0.000345617 2.72721e-05 -9.42972e-24)
(-0.00034352 2.6332e-05 3.78868e-24)
(-0.000346373 2.77744e-05 -2.31349e-25)
(-0.000344157 2.72509e-05 8.49892e-24)
(-0.000346983 2.82657e-05 -8.40834e-24)
(-0.000344628 2.81694e-05 -1.26173e-23)
(-0.000347453 2.87524e-05 1.49379e-23)
(-0.000344915 2.90811e-05 -6.77737e-24)
(-0.000345408 2.95226e-05 1.63906e-24)
(-0.000346212 2.955e-05 -1.91308e-24)
(-0.000346919 2.95591e-05 -2.79395e-24)
(-0.000347526 2.95821e-05 5.16999e-25)
(-0.000347754 2.92821e-05 2.37377e-24)
)
;
    }
    frontAndBackPlanes
    {
        type            empty;
    }
}


// ************************************************************************* //
