/*--------------------------------*- C++ -*----------------------------------*\
| =========                 |                                                 |
| \\      /  F ield         | OpenFOAM Extend Project: Open source CFD        |
|  \\    /   O peration     | Version:  1.6-ext                               |
|   \\  /    A nd           | Web:      www.extend-project.de                 |
|    \\/     M anipulation  |                                                 |
\*---------------------------------------------------------------------------*/
FoamFile
{
    version     2.0;
    format      ascii;
    class       volVectorField;
    location    "0.6";
    object      DV_0;
}
// * * * * * * * * * * * * * * * * * * * * * * * * * * * * * * * * * * * * * //

dimensions      [0 1 -1 0 0 0 0];

internalField   nonuniform List<vector> 
328
(
(-5.75576e-07 -9.956e-07 0)
(-4.04847e-07 -2.04985e-07 0)
(-4.0723e-07 2.21609e-07 0)
(-5.90107e-07 1.03842e-06 0)
(-1.76128e-06 -2.59861e-06 0)
(-1.32522e-06 -6.07296e-07 0)
(-1.33408e-06 6.60932e-07 0)
(-1.80417e-06 2.71211e-06 0)
(-3.13938e-06 -3.83411e-06 0)
(-2.53211e-06 -9.93804e-07 0)
(-2.55081e-06 1.08774e-06 0)
(-3.21245e-06 4.00442e-06 0)
(-4.64644e-06 -4.73932e-06 0)
(-3.94273e-06 -1.33171e-06 0)
(-3.97224e-06 1.46808e-06 0)
(-4.75051e-06 4.95706e-06 0)
(-6.30312e-06 -5.38547e-06 0)
(-5.57754e-06 -1.60679e-06 0)
(-5.61871e-06 1.78738e-06 0)
(-6.43916e-06 5.64681e-06 0)
(-8.10286e-06 -5.83007e-06 0)
(-7.41014e-06 -1.81262e-06 0)
(-7.46325e-06 2.0403e-06 0)
(-8.27196e-06 6.13578e-06 0)
(-1.00556e-05 -6.12247e-06 0)
(-9.43826e-06 -1.95209e-06 0)
(-9.50367e-06 2.23169e-06 0)
(-1.02594e-05 6.47698e-06 0)
(-1.21685e-05 -6.30027e-06 0)
(-1.16522e-05 -2.0318e-06 0)
(-1.17302e-05 2.37141e-06 0)
(-1.24089e-05 6.71167e-06 0)
(-1.44523e-05 -6.39286e-06 0)
(-1.405e-05 -2.06083e-06 0)
(-1.4141e-05 2.47286e-06 0)
(-1.47317e-05 6.87357e-06 0)
(-1.69179e-05 -6.42186e-06 0)
(-1.66313e-05 -2.04791e-06 0)
(-1.67356e-05 2.55037e-06 0)
(-1.72387e-05 6.98958e-06 0)
(-1.95775e-05 -6.40283e-06 0)
(-1.94e-05 -2.00053e-06 0)
(-1.95179e-05 2.61789e-06 0)
(-1.99417e-05 7.08142e-06 0)
(-2.24438e-05 -6.34624e-06 0)
(-2.23633e-05 -1.92406e-06 0)
(-2.24947e-05 2.68777e-06 0)
(-2.28522e-05 7.16612e-06 0)
(-2.55301e-05 -6.25877e-06 0)
(-2.55318e-05 -1.82191e-06 0)
(-2.56761e-05 2.77e-06 0)
(-2.59818e-05 7.25647e-06 0)
(-2.88511e-05 -6.1445e-06 0)
(-2.89187e-05 -1.6961e-06 0)
(-2.90745e-05 2.87162e-06 0)
(-2.93422e-05 7.36116e-06 0)
(-3.24224e-05 -6.00639e-06 0)
(-3.25398e-05 -1.54829e-06 0)
(-3.27048e-05 2.99629e-06 0)
(-3.29452e-05 7.48479e-06 0)
(-3.6261e-05 -5.84761e-06 0)
(-3.64127e-05 -1.38104e-06 0)
(-3.65831e-05 3.14385e-06 0)
(-3.6803e-05 7.62779e-06 0)
(-4.03851e-05 -5.67286e-06 0)
(-4.05563e-05 -1.1989e-06 0)
(-4.07269e-05 3.31012e-06 0)
(-4.09289e-05 7.78639e-06 0)
(-4.48139e-05 -5.4893e-06 0)
(-4.49905e-05 -1.00936e-06 0)
(-4.51547e-05 3.48685e-06 0)
(-4.53371e-05 7.95275e-06 0)
(-4.95671e-05 -5.30686e-06 0)
(-4.97357e-05 -8.23057e-07 0)
(-4.98857e-05 3.66208e-06 0)
(-5.00435e-05 8.1154e-06 0)
(-5.46645e-05 -5.13786e-06 0)
(-5.48129e-05 -6.53254e-07 0)
(-5.49398e-05 3.82114e-06 0)
(-5.5066e-05 8.26017e-06 0)
(-6.01252e-05 -4.99582e-06 0)
(-6.02426e-05 -5.14529e-07 0)
(-6.03381e-05 3.94819e-06 0)
(-6.04249e-05 8.37172e-06 0)
(-6.59677e-05 -4.8937e-06 0)
(-6.60458e-05 -4.20735e-07 0)
(-6.61022e-05 4.02839e-06 0)
(-6.61429e-05 8.43554e-06 0)
(-7.24477e-05 -4.83981e-06 0)
(-7.24792e-05 -3.81394e-07 0)
(-7.24893e-05 4.05084e-06 0)
(-7.24773e-05 8.4402e-06 0)
(-7.93438e-05 -4.8485e-06 0)
(-7.93268e-05 -4.11008e-07 0)
(-7.92876e-05 4.00073e-06 0)
(-7.92212e-05 8.37089e-06 0)
(-8.61921e-05 -4.91134e-06 0)
(-8.61307e-05 -4.99173e-07 0)
(-8.60456e-05 3.88942e-06 0)
(-8.59293e-05 8.23916e-06 0)
(-9.29878e-05 -5.01605e-06 0)
(-9.28873e-05 -6.32536e-07 0)
(-9.27604e-05 3.73024e-06 0)
(-9.25997e-05 8.05742e-06 0)
(-9.97282e-05 -5.15293e-06 0)
(-9.95932e-05 -8.00649e-07 0)
(-9.94289e-05 3.53369e-06 0)
(-9.92287e-05 7.83559e-06 0)
(-0.000106411 -5.31605e-06 0)
(-0.000106246 -9.97146e-07 0)
(-0.000106047 3.30623e-06 0)
(-0.000105812 7.57989e-06 0)
(-0.000113035 -5.50307e-06 0)
(-0.000112842 -1.21964e-06 0)
(-0.000112613 3.05031e-06 0)
(-0.000112344 7.29288e-06 0)
(-0.000119598 -5.71428e-06 0)
(-0.000119378 -1.46861e-06 0)
(-0.000119121 2.76551e-06 0)
(-0.000118821 6.97445e-06 0)
(-0.000126097 -5.95111e-06 0)
(-0.000125853 -1.74584e-06 0)
(-0.000125569 2.45009e-06 0)
(-0.00012524 6.6233e-06 0)
(-0.000132527 -6.21465e-06 0)
(-0.000132261 -2.05278e-06 0)
(-0.000131955 2.10264e-06 0)
(-0.000131599 6.23846e-06 0)
(-0.000138885 -6.50429e-06 0)
(-0.0001386 -2.38911e-06 0)
(-0.000138275 1.72351e-06 0)
(-0.000137897 5.82066e-06 0)
(-0.000145163 -6.81679e-06 0)
(-0.000144866 -2.75177e-06 0)
(-0.000144527 1.31579e-06 0)
(-0.000144132 5.37319e-06 0)
(-0.000151357 -7.14593e-06 0)
(-0.000151054 -3.13453e-06 0)
(-0.00015071 8.85739e-07 0)
(-0.000150305 4.90236e-06 0)
(-0.000157461 -7.4825e-06 0)
(-0.000157162 -3.52805e-06 0)
(-0.000156821 4.42713e-07 0)
(-0.000156416 4.41744e-06 0)
(-0.000163469 -7.81483e-06 0)
(-0.000163185 -3.92037e-06 0)
(-0.000162857 -1.30892e-09 0)
(-0.000162462 3.93019e-06 0)
(-0.000169379 -8.12949e-06 0)
(-0.00016912 -4.29773e-06 0)
(-0.000168816 -4.32528e-07 0)
(-0.000168443 3.45411e-06 0)
(-0.000175185 -8.4122e-06 0)
(-0.000174964 -4.64543e-06 0)
(-0.000174696 -8.36227e-07 0)
(-0.000174356 3.00359e-06 0)
(-0.000180886 -8.64859e-06 0)
(-0.000180713 -4.94876e-06 0)
(-0.000180493 -1.19764e-06 0)
(-0.000180199 2.59307e-06 0)
(-0.000186478 -8.82499e-06 0)
(-0.000186367 -5.19365e-06 0)
(-0.000186205 -1.50267e-06 0)
(-0.000185968 2.23638e-06 0)
(-0.000191962 -8.92884e-06 0)
(-0.000191922 -5.36725e-06 0)
(-0.000191828 -1.73843e-06 0)
(-0.000191659 1.94619e-06 0)
(-0.000197335 -8.94908e-06 0)
(-0.000197375 -5.45823e-06 0)
(-0.00019736 -1.89353e-06 0)
(-0.000197267 1.73372e-06 0)
(-0.000202597 -8.87629e-06 0)
(-0.000202726 -5.45694e-06 0)
(-0.000202796 -1.95826e-06 0)
(-0.000202787 1.60856e-06 0)
(-0.000207748 -8.70279e-06 0)
(-0.000207972 -5.35552e-06 0)
(-0.000208133 -1.92471e-06 0)
(-0.000208216 1.57857e-06 0)
(-0.000212789 -8.42274e-06 0)
(-0.000213111 -5.14795e-06 0)
(-0.000213369 -1.78678e-06 0)
(-0.000213547 1.6498e-06 0)
(-0.000217718 -8.03222e-06 0)
(-0.000218143 -4.83017e-06 0)
(-0.000218499 -1.54035e-06 0)
(-0.000218775 1.82637e-06 0)
(-0.000222538 -7.52936e-06 0)
(-0.000223065 -4.40021e-06 0)
(-0.00022352 -1.18338e-06 0)
(-0.000223896 2.11036e-06 0)
(-0.000227247 -6.91452e-06 0)
(-0.000227876 -3.85836e-06 0)
(-0.00022843 -7.16075e-07 0)
(-0.000228903 2.50164e-06 0)
(-0.000231848 -6.19031e-06 0)
(-0.000232575 -3.20721e-06 0)
(-0.000233224 -1.40974e-07 0)
(-0.000233793 2.99781e-06 0)
(-0.00023634 -5.36164e-06 0)
(-0.00023716 -2.45173e-06 0)
(-0.000237901 5.37038e-07 0)
(-0.000238559 3.59417e-06 0)
(-0.000240724 -4.43551e-06 0)
(-0.000241631 -1.59905e-06 0)
(-0.000242457 1.3109e-06 0)
(-0.000243199 4.28391e-06 0)
(-0.000244999 -3.42073e-06 0)
(-0.000245985 -6.58123e-07 0)
(-0.000246888 2.1717e-06 0)
(-0.000247707 5.05842e-06 0)
(-0.000249164 -2.32736e-06 0)
(-0.000250222 3.60744e-07 0)
(-0.000251194 3.10919e-06 0)
(-0.00025208 5.90777e-06 0)
(-0.00025322 -1.1662e-06 0)
(-0.000254339 1.44655e-06 0)
(-0.000255372 4.11242e-06 0)
(-0.000256316 6.8213e-06 0)
(-0.000257163 5.19154e-08 0)
(-0.000258335 2.58825e-06 0)
(-0.000259419 5.17036e-06 0)
(-0.000260413 7.78826e-06 0)
(-0.000260992 1.31661e-06 0)
(-0.000262207 3.77528e-06 0)
(-0.000263334 6.27248e-06 0)
(-0.000264368 8.79833e-06 0)
(-0.000264704 2.61838e-06 0)
(-0.000265954 4.99806e-06 0)
(-0.000267114 7.4092e-06 0)
(-0.00026818 9.84204e-06 0)
(-0.000268297 3.94877e-06 0)
(-0.000269573 6.24808e-06 0)
(-0.000270759 8.572e-06 0)
(-0.000271849 1.09109e-05 0)
(-0.000271769 5.30029e-06 0)
(-0.000273063 7.51784e-06 0)
(-0.000274267 9.75339e-06 0)
(-0.000275372 1.19974e-05 0)
(-0.000275116 6.66609e-06 0)
(-0.000276422 8.80055e-06 0)
(-0.000277635 1.09465e-05 0)
(-0.000278748 1.30946e-05 0)
(-0.000278337 8.03956e-06 0)
(-0.000279646 1.00896e-05 0)
(-0.000280862 1.21448e-05 0)
(-0.000281975 1.41958e-05 0)
(-0.00028143 9.41381e-06 0)
(-0.000282735 1.13781e-05 0)
(-0.000283945 1.33412e-05 0)
(-0.000285052 1.5294e-05 0)
(-0.000284392 1.07814e-05 0)
(-0.000285687 1.26586e-05 0)
(-0.000286884 1.45283e-05 0)
(-0.000287977 1.63817e-05 0)
(-0.000287222 1.21341e-05 0)
(-0.000288498 1.39226e-05 0)
(-0.000289675 1.56977e-05 0)
(-0.000290746 1.74505e-05 0)
(-0.000289918 1.34633e-05 0)
(-0.000291168 1.51613e-05 0)
(-0.000292317 1.68403e-05 0)
(-0.00029336 1.84917e-05 0)
(-0.000292475 1.47602e-05 0)
(-0.000293693 1.63658e-05 0)
(-0.000294808 1.79474e-05 0)
(-0.000295816 1.94965e-05 0)
(-0.000294892 1.60169e-05 0)
(-0.000296071 1.75279e-05 0)
(-0.000297147 1.90107e-05 0)
(-0.000298115 2.04571e-05 0)
(-0.000297163 1.72269e-05 0)
(-0.000298301 1.86409e-05 0)
(-0.000299333 2.00235e-05 0)
(-0.000300255 2.13669e-05 0)
(-0.000299286 1.83858e-05 0)
(-0.000300378 1.97006e-05 0)
(-0.000301364 2.09818e-05 0)
(-0.000302239 2.22219e-05 0)
(-0.000301255 1.9492e-05 0)
(-0.000302301 2.07053e-05 0)
(-0.000303239 2.18838e-05 0)
(-0.000304066 2.30206e-05 0)
(-0.000303068 2.05459e-05 0)
(-0.000304067 2.16559e-05 0)
(-0.000304957 2.27308e-05 0)
(-0.000305736 2.37639e-05 0)
(-0.000304721 2.15499e-05 0)
(-0.000305675 2.25553e-05 0)
(-0.000306519 2.35256e-05 0)
(-0.000307251 2.4455e-05 0)
(-0.000306214 2.25073e-05 0)
(-0.000307124 2.34071e-05 0)
(-0.000307922 2.42723e-05 0)
(-0.00030861 2.50977e-05 0)
(-0.000307546 2.34208e-05 0)
(-0.000308413 2.42147e-05 0)
(-0.000309167 2.49746e-05 0)
(-0.000309813 2.56962e-05 0)
(-0.000308716 2.4292e-05 0)
(-0.000309543 2.49804e-05 0)
(-0.000310254 2.56354e-05 0)
(-0.00031086 2.6254e-05 0)
(-0.000309726 2.51212e-05 0)
(-0.000310514 2.57051e-05 0)
(-0.000311185 2.62567e-05 0)
(-0.000311755 2.67741e-05 0)
(-0.000310579 2.59078e-05 0)
(-0.000311328 2.639e-05 0)
(-0.000311963 2.6841e-05 0)
(-0.000312499 2.72609e-05 0)
(-0.000311278 2.66544e-05 0)
(-0.000311992 2.70396e-05 0)
(-0.000312593 2.73945e-05 0)
(-0.0003131 2.77225e-05 0)
(-0.000311831 2.73701e-05 0)
(-0.000312511 2.76644e-05 0)
(-0.000313081 2.79288e-05 0)
(-0.000313565 2.81744e-05 0)
(-0.000312259 2.80869e-05 0)
(-0.000312902 2.82849e-05 0)
(-0.000313446 2.84588e-05 0)
(-0.000313913 2.86323e-05 0)
(-0.000312545 2.87949e-05 0)
(-0.000313145 2.89001e-05 0)
(-0.000313675 2.89854e-05 0)
(-0.000314137 2.90973e-05 0)
)
;

boundaryField
{
    plateFix
    {
        type            calculated;
        value           uniform (0 0 0);
    }
    plate
    {
        type            calculated;
        value           nonuniform List<vector> 
168
(
(-4.90302e-06 -2.59543e-06 -5.15651e-23)
(-5.07563e-06 2.70779e-06 5.42718e-23)
(-5.07887e-06 -4.33284e-06 -7.65072e-23)
(-5.23004e-06 4.50879e-06 -8.4208e-23)
(-5.47999e-06 -5.69439e-06 4.477e-23)
(-5.62287e-06 5.92393e-06 4.83146e-23)
(-6.23524e-06 -6.66419e-06 -5.41268e-23)
(-6.38813e-06 6.93789e-06 2.3559e-23)
(-7.34995e-06 -7.36495e-06 7.87673e-23)
(-7.52887e-06 7.67947e-06 -2.23935e-23)
(-8.76643e-06 -7.84847e-06 5.68137e-23)
(-8.9818e-06 8.20509e-06 6.56433e-23)
(-1.0454e-05 -8.17399e-06 1.3853e-23)
(-1.07134e-05 8.57773e-06 -6.08457e-23)
(-1.23857e-05 -8.37956e-06 -6.12828e-23)
(-1.26959e-05 8.83894e-06 3.62193e-23)
(-1.45475e-05 -8.49667e-06 -4.81085e-23)
(-1.49156e-05 9.0242e-06 -7.91422e-23)
(-1.69314e-05 -8.54718e-06 7.92557e-23)
(-1.73645e-05 9.16034e-06 3.49779e-23)
(-1.95361e-05 -8.54705e-06 -2.48899e-23)
(-2.00406e-05 9.26905e-06 2.37917e-23)
(-2.23646e-05 -8.50691e-06 4.96048e-23)
(-2.29446e-05 9.36709e-06 -5.07799e-25)
(-2.54243e-05 -8.43372e-06 -4.06836e-23)
(-2.60798e-05 9.46714e-06 -1.6888e-23)
(-2.87259e-05 -8.33185e-06 -2.81136e-23)
(-2.94515e-05 9.57787e-06 -8.56811e-25)
(-3.22837e-05 -8.20457e-06 3.09252e-23)
(-3.30663e-05 9.70402e-06 2.69073e-23)
(-3.61145e-05 -8.05529e-06 4.54905e-24)
(-3.69325e-05 9.84636e-06 -2.38529e-23)
(-4.02372e-05 -7.88876e-06 -1.06248e-23)
(-4.10604e-05 1.00016e-05 -2.27826e-23)
(-4.46718e-05 -7.71199e-06 -1.27362e-23)
(-4.54625e-05 1.01624e-05 2.011e-23)
(-4.94385e-05 -7.53456e-06 1.60893e-23)
(-5.01539e-05 1.0318e-05 3.78257e-24)
(-5.45567e-05 -7.36831e-06 1.22902e-23)
(-5.51531e-05 1.0455e-05 2.42233e-25)
(-6.00442e-05 -7.22619e-06 -4.48304e-23)
(-6.04822e-05 1.05584e-05 -1.72155e-23)
(-6.5917e-05 -7.12077e-06 1.43096e-23)
(-6.61663e-05 1.0614e-05 2.79554e-23)
(-7.24291e-05 -7.05984e-06 1.37787e-23)
(-7.24647e-05 1.06104e-05 -1.27944e-23)
(-7.93551e-05 -7.05792e-06 -3.39698e-24)
(-7.91746e-05 1.05325e-05 1.16236e-23)
(-8.62273e-05 -7.10771e-06 -6.93973e-24)
(-8.58546e-05 1.03917e-05 -1.25473e-23)
(-9.30416e-05 -7.19772e-06 7.00788e-24)
(-9.25023e-05 1.01997e-05 -9.51921e-24)
(-9.97967e-05 -7.3188e-06 4.29519e-24)
(-9.91125e-05 9.966e-06 6.31473e-25)
(-0.000106493 -7.46523e-06 -1.48472e-23)
(-0.000105679 9.69675e-06 9.74993e-24)
(-0.000113129 -7.63466e-06 2.13461e-23)
(-0.000112195 9.39458e-06 -6.00115e-24)
(-0.000119705 -7.82719e-06 -1.22836e-23)
(-0.000118656 9.05965e-06 -7.51863e-24)
(-0.000126217 -8.04398e-06 -8.85097e-24)
(-0.000125058 8.69097e-06 1.45055e-23)
(-0.000132661 -8.28581e-06 1.07968e-23)
(-0.0001314 8.28793e-06 2.0559e-24)
(-0.000139031 -8.55185e-06 -3.86199e-24)
(-0.000137682 7.85147e-06 -9.97561e-24)
(-0.000145319 -8.83876e-06 3.56297e-24)
(-0.000143904 7.38506e-06 1.3023e-23)
(-0.000151519 -9.14031e-06 -7.95991e-24)
(-0.000150067 6.89504e-06 -6.24341e-24)
(-0.000157625 -9.44739e-06 1.168e-23)
(-0.000156173 6.39058e-06 5.50309e-24)
(-0.000163628 -9.74853e-06 -1.04388e-23)
(-0.000162221 5.88327e-06 -6.21845e-24)
(-0.000169526 -1.00305e-05 6.07572e-24)
(-0.000168211 5.38639e-06 8.2757e-24)
(-0.000175313 -1.02794e-05 3.13928e-24)
(-0.00017414 4.9141e-06 5.61447e-24)
(-0.000180988 -1.04811e-05 -5.37314e-24)
(-0.000180006 4.48062e-06 -5.36126e-24)
(-0.000186548 -1.0622e-05 -9.49789e-24)
(-0.000185804 4.09957e-06 -5.28246e-25)
(-0.000191993 -1.06899e-05 3.8669e-24)
(-0.000191531 3.78349e-06 -7.36539e-24)
(-0.000197322 -1.06738e-05 -2.69379e-24)
(-0.000197179 3.54349e-06 6.38446e-24)
(-0.000202537 -1.05645e-05 4.97774e-24)
(-0.000202745 3.38909e-06 -5.38565e-25)
(-0.000207637 -1.03544e-05 -2.50475e-24)
(-0.000208221 3.32808e-06 2.0905e-24)
(-0.000212624 -1.00377e-05 7.96871e-24)
(-0.000213603 3.36649e-06 -4.03348e-25)
(-0.000217498 -9.61064e-06 -1.99656e-24)
(-0.000218884 3.50844e-06 -1.75644e-26)
(-0.000222262 -9.07141e-06 -3.98324e-24)
(-0.000224057 3.75599e-06 7.43959e-24)
(-0.000226917 -8.42038e-06 4.48936e-24)
(-0.000229116 4.10907e-06 -1.05865e-24)
(-0.000231465 -7.66019e-06 -4.72159e-24)
(-0.000234056 4.56535e-06 1.13573e-24)
(-0.000235907 -6.7957e-06 -2.41679e-24)
(-0.00023887 5.12025e-06 7.70193e-24)
(-0.000240244 -5.83382e-06 2.41596e-24)
(-0.000243552 5.76711e-06 -5.52694e-24)
(-0.000244478 -4.78323e-06 -1.63448e-24)
(-0.000248099 6.49752e-06 2.10164e-24)
(-0.000248608 -3.65383e-06 -7.57227e-25)
(-0.000252506 7.30175e-06 2.67578e-24)
(-0.000252632 -2.45625e-06 -1.24122e-24)
(-0.00025677 8.16936e-06 -2.18292e-24)
(-0.00025655 -1.20119e-06 1.0495e-24)
(-0.00026089 9.08979e-06 4.28222e-25)
(-0.000260358 1.01102e-07 -1.05405e-24)
(-0.000264863 1.00528e-05 1.74813e-25)
(-0.000264054 1.4412e-06 -1.43867e-24)
(-0.00026869 1.10491e-05 1.77306e-24)
(-0.000267634 2.81067e-06 9.82223e-26)
(-0.000272368 1.20702e-05 -5.62667e-24)
(-0.000271097 4.20199e-06 6.5239e-24)
(-0.000275898 1.31085e-05 1.74277e-24)
(-0.000274438 5.60828e-06 -3.34026e-25)
(-0.000279277 1.41571e-05 -6.32827e-25)
(-0.000277657 7.02288e-06 -2.47254e-25)
(-0.000282505 1.52091e-05 -2.15264e-24)
(-0.00028075 8.43889e-06 3.37103e-25)
(-0.000285579 1.62575e-05 -6.67548e-24)
(-0.000283718 9.84889e-06 6.01603e-24)
(-0.000288496 1.72947e-05 7.31342e-24)
(-0.000286556 1.12448e-05 -3.19011e-24)
(-0.000291255 1.83125e-05 -2.96892e-24)
(-0.000289265 1.26181e-05 3.83005e-24)
(-0.000293854 1.93023e-05 3.87782e-24)
(-0.000291839 1.39602e-05 1.32714e-23)
(-0.000296291 2.02556e-05 -1.59384e-24)
(-0.000294275 1.52633e-05 -2.08945e-23)
(-0.000298568 2.11644e-05 1.19324e-23)
(-0.000296569 1.6521e-05 -5.26255e-24)
(-0.000300685 2.20226e-05 1.33353e-23)
(-0.000298715 1.77291e-05 8.48077e-24)
(-0.000302643 2.2826e-05 -1.6153e-23)
(-0.000300708 1.88856e-05 -1.71634e-24)
(-0.000304445 2.35733e-05 2.29667e-23)
(-0.000302543 1.9991e-05 1.07961e-23)
(-0.000306092 2.42653e-05 -6.71364e-24)
(-0.000304217 2.10472e-05 -2.51692e-23)
(-0.000307586 2.4905e-05 -8.87324e-24)
(-0.000305729 2.20572e-05 1.21187e-23)
(-0.000308925 2.54964e-05 5.30976e-24)
(-0.000307079 2.30233e-05 9.96373e-24)
(-0.000310111 2.60437e-05 -1.63574e-23)
(-0.000308267 2.39468e-05 -1.04924e-23)
(-0.000311143 2.65506e-05 -8.42788e-24)
(-0.000309296 2.48275e-05 -7.22554e-24)
(-0.000312023 2.7021e-05 7.85526e-24)
(-0.000310167 2.56642e-05 -7.74045e-24)
(-0.000312754 2.74604e-05 -1.0153e-23)
(-0.000310883 2.64586e-05 8.3849e-24)
(-0.000313349 2.78783e-05 4.15496e-26)
(-0.000311443 2.7217e-05 -1.0409e-23)
(-0.000313813 2.8293e-05 6.52968e-24)
(-0.000311869 2.7982e-05 2.04718e-24)
(-0.000314169 2.87219e-05 -4.12289e-24)
(-0.000312162 2.87384e-05 2.78708e-23)
(-0.000312672 2.91264e-05 -8.59933e-24)
(-0.000313231 2.91934e-05 2.32647e-24)
(-0.000313756 2.92347e-05 6.03627e-24)
(-0.000314216 2.93309e-05 -2.17083e-24)
(-0.000314399 2.91614e-05 -8.68432e-24)
)
;
    }
    frontAndBackPlanes
    {
        type            empty;
    }
}


// ************************************************************************* //
