/*--------------------------------*- C++ -*----------------------------------*\
| =========                 |                                                 |
| \\      /  F ield         | OpenFOAM Extend Project: Open source CFD        |
|  \\    /   O peration     | Version:  1.6-ext                               |
|   \\  /    A nd           | Web:      www.extend-project.de                 |
|    \\/     M anipulation  |                                                 |
\*---------------------------------------------------------------------------*/
FoamFile
{
    version     2.0;
    format      ascii;
    class       surfaceScalarField;
    location    "0.6";
    object      meshPhi;
}
// * * * * * * * * * * * * * * * * * * * * * * * * * * * * * * * * * * * * * //

dimensions      [0 3 -1 0 0 0 0];

internalField   nonuniform List<scalar> 
570
(
9.1039e-11
2.56099e-09
-5.47029e-12
6.92829e-10
-8.51921e-11
6.07825e-10
2.08697e-09
2.76878e-10
3.098e-09
-1.35209e-11
1.53509e-09
-2.55653e-10
1.34967e-09
2.40575e-09
4.55149e-10
3.89334e-09
-1.3601e-11
2.55211e-09
-4.09323e-10
2.24925e-09
2.9077e-09
6.25564e-10
4.93295e-09
-3.17005e-12
3.7158e-09
-5.39652e-10
3.28205e-09
3.59238e-09
7.9259e-10
6.19444e-09
2.09401e-11
5.02455e-09
-6.43091e-10
4.4467e-09
4.44512e-09
9.63115e-10
7.64905e-09
6.31194e-11
6.46849e-09
-7.16281e-10
5.73401e-09
5.44408e-09
1.14586e-09
9.28159e-09
1.29339e-10
8.04526e-09
-7.54873e-10
7.14133e-09
6.57683e-09
1.35166e-09
1.10826e-08
2.27519e-10
9.75286e-09
-7.53028e-10
8.66619e-09
7.8346e-09
1.59383e-09
1.30491e-08
3.68033e-10
1.15928e-08
-7.02733e-10
1.03092e-08
9.21334e-09
1.88873e-09
1.51822e-08
5.64323e-10
1.35683e-08
-5.93061e-10
1.20727e-08
1.07117e-08
2.25643e-09
1.74861e-08
8.33685e-10
1.56853e-08
-4.09216e-10
1.39611e-08
1.2331e-08
2.72163e-09
1.99678e-08
1.19826e-09
1.79512e-08
-1.31411e-10
1.59809e-08
1.40741e-08
3.31478e-09
2.26359e-08
1.68628e-09
2.03757e-08
2.66501e-10
1.81398e-08
1.59457e-08
4.07359e-09
2.55011e-08
2.33361e-09
2.29696e-08
8.18666e-10
2.04474e-08
1.79517e-08
5.04501e-09
2.85755e-08
3.18573e-09
2.57451e-08
1.5692e-09
2.2914e-08
2.00991e-08
6.28761e-09
3.18728e-08
4.30011e-09
2.87154e-08
2.57463e-09
2.55509e-08
2.23961e-08
7.87477e-09
3.54078e-08
5.74934e-09
3.18946e-08
3.90687e-09
2.83701e-08
2.48513e-08
9.89858e-09
3.91967e-08
7.62493e-09
3.52975e-08
5.65707e-09
3.1384e-08
2.74739e-08
1.24748e-08
4.32572e-08
1.00422e-08
3.89396e-08
7.94037e-09
3.46055e-08
3.02736e-08
1.57493e-08
4.76079e-08
1.31467e-08
4.2837e-08
1.09021e-08
3.80477e-08
3.32598e-08
1.99055e-08
5.22688e-08
1.71216e-08
4.70064e-08
1.47255e-08
4.17238e-08
3.64421e-08
2.51752e-08
5.7263e-08
2.21983e-08
5.1465e-08
1.9642e-08
4.56471e-08
3.98279e-08
3.4416e-08
6.29986e-08
3.10001e-08
5.65809e-08
2.80751e-08
5.01385e-08
4.36973e-08
4.08076e-08
6.87255e-08
3.74059e-08
6.16752e-08
3.45021e-08
5.45993e-08
4.75236e-08
4.78334e-08
7.44379e-08
4.44474e-08
6.67458e-08
4.15662e-08
5.90272e-08
5.13077e-08
5.55038e-08
8.01332e-08
5.2135e-08
7.17902e-08
4.92777e-08
6.34203e-08
5.50479e-08
6.38285e-08
8.58085e-08
6.04786e-08
7.68062e-08
5.76465e-08
6.77765e-08
5.87429e-08
7.28165e-08
9.14608e-08
6.94868e-08
8.17912e-08
6.66812e-08
7.20939e-08
6.23914e-08
8.24756e-08
9.70872e-08
7.91678e-08
8.67428e-08
7.63898e-08
7.63706e-08
6.59919e-08
9.28129e-08
1.02685e-07
8.95285e-08
9.16588e-08
8.67793e-08
8.06047e-08
6.9543e-08
1.03835e-07
1.08251e-07
1.00576e-07
9.65368e-08
9.78565e-08
8.47942e-08
7.30431e-08
1.15549e-07
1.13784e-07
1.12316e-07
1.01374e-07
1.09628e-07
8.89371e-08
7.64904e-08
1.27961e-07
1.1928e-07
1.24756e-07
1.06169e-07
1.221e-07
9.30314e-08
7.98832e-08
1.41077e-07
1.24736e-07
1.37901e-07
1.10919e-07
1.35279e-07
9.70751e-08
8.32199e-08
1.54905e-07
1.3015e-07
1.5176e-07
1.15621e-07
1.49172e-07
1.01066e-07
8.64988e-08
1.69449e-07
1.35519e-07
1.66337e-07
1.20273e-07
1.63785e-07
1.05003e-07
8.9719e-08
1.84716e-07
1.40837e-07
1.81639e-07
1.24871e-07
1.79124e-07
1.08883e-07
9.28796e-08
2.00711e-07
1.461e-07
1.97671e-07
1.29413e-07
1.95194e-07
1.12705e-07
9.59802e-08
2.17436e-07
1.51304e-07
2.14436e-07
1.33894e-07
2.11998e-07
1.16468e-07
9.9021e-08
2.34893e-07
1.56441e-07
2.31936e-07
1.38311e-07
2.29538e-07
1.20168e-07
1.02002e-07
2.53082e-07
1.61505e-07
2.50169e-07
1.4266e-07
2.47812e-07
1.23806e-07
1.04925e-07
2.71997e-07
1.6649e-07
2.69133e-07
1.46937e-07
2.66819e-07
1.27379e-07
1.0779e-07
2.91633e-07
1.71388e-07
2.88821e-07
1.51137e-07
2.8655e-07
1.30885e-07
1.10599e-07
3.1198e-07
1.76192e-07
3.09223e-07
1.55256e-07
3.06998e-07
1.34324e-07
1.13352e-07
3.33025e-07
1.80895e-07
3.30327e-07
1.5929e-07
3.28148e-07
1.37693e-07
1.16053e-07
3.54752e-07
1.85487e-07
3.52117e-07
1.63233e-07
3.49985e-07
1.40992e-07
1.18701e-07
3.77141e-07
1.89963e-07
3.74572e-07
1.67083e-07
3.72489e-07
1.44217e-07
1.21298e-07
4.00169e-07
1.94316e-07
3.9767e-07
1.70833e-07
3.95637e-07
1.47369e-07
1.23846e-07
4.23811e-07
1.98537e-07
4.21384e-07
1.74481e-07
4.19403e-07
1.50445e-07
1.26346e-07
4.48038e-07
2.02623e-07
4.45687e-07
1.78023e-07
4.43759e-07
1.53445e-07
1.28798e-07
4.72818e-07
2.06566e-07
4.70546e-07
1.81455e-07
4.68673e-07
1.56366e-07
1.31203e-07
4.98119e-07
2.10363e-07
4.95929e-07
1.84775e-07
4.94111e-07
1.59207e-07
1.33563e-07
5.23906e-07
2.14011e-07
5.21798e-07
1.87979e-07
5.20037e-07
1.61968e-07
1.35875e-07
5.50141e-07
2.17505e-07
5.48118e-07
1.91067e-07
5.46415e-07
1.64647e-07
1.38142e-07
5.76788e-07
2.20845e-07
5.74851e-07
1.94037e-07
5.73207e-07
1.67243e-07
1.40361e-07
6.03808e-07
2.24029e-07
6.01959e-07
1.96887e-07
6.00374e-07
1.69755e-07
1.42532e-07
6.31166e-07
2.27059e-07
6.29403e-07
1.99617e-07
6.27878e-07
1.72183e-07
1.44655e-07
6.58822e-07
2.29933e-07
6.57147e-07
2.02228e-07
6.55682e-07
1.74525e-07
1.46727e-07
6.86743e-07
2.32655e-07
6.85153e-07
2.0472e-07
6.83749e-07
1.76782e-07
1.48748e-07
7.14891e-07
2.35225e-07
7.13387e-07
2.07094e-07
7.12042e-07
1.78953e-07
1.50716e-07
7.43233e-07
2.37648e-07
7.41814e-07
2.0935e-07
7.40529e-07
1.81039e-07
1.52629e-07
7.71738e-07
2.39926e-07
7.70401e-07
2.11491e-07
7.69176e-07
1.83037e-07
1.54485e-07
8.00375e-07
2.42062e-07
7.99119e-07
2.13519e-07
7.97953e-07
1.8495e-07
1.56282e-07
8.29116e-07
2.44062e-07
8.27938e-07
2.15434e-07
8.26831e-07
1.86775e-07
1.58019e-07
8.57933e-07
2.45929e-07
8.56832e-07
2.1724e-07
8.55784e-07
1.88514e-07
1.59692e-07
8.86804e-07
2.47668e-07
8.85777e-07
2.18938e-07
8.84788e-07
1.90165e-07
1.61298e-07
9.15707e-07
2.49285e-07
9.14753e-07
2.20531e-07
9.13822e-07
1.91729e-07
1.62835e-07
9.44624e-07
2.50782e-07
9.43739e-07
2.2202e-07
9.42867e-07
1.93204e-07
1.64299e-07
9.73539e-07
2.52167e-07
9.72722e-07
2.23408e-07
9.71908e-07
1.9459e-07
1.65687e-07
1.00244e-06
2.53443e-07
1.00169e-06
2.24696e-07
1.00093e-06
1.95886e-07
1.66994e-07
1.03132e-06
2.54614e-07
1.03063e-06
2.25886e-07
1.02994e-06
1.97092e-07
1.68217e-07
1.06017e-06
2.55685e-07
1.05954e-06
2.26979e-07
1.05891e-06
1.98205e-07
1.69353e-07
1.08898e-06
2.56658e-07
1.08842e-06
2.27977e-07
1.08784e-06
1.99225e-07
1.70398e-07
1.11777e-06
2.57536e-07
1.11727e-06
2.28879e-07
1.11675e-06
2.0015e-07
1.71349e-07
1.14652e-06
2.5832e-07
1.14608e-06
2.29687e-07
1.14562e-06
2.00979e-07
1.72203e-07
1.17524e-06
2.59012e-07
1.17486e-06
2.30399e-07
1.17447e-06
2.01712e-07
1.72957e-07
1.20393e-06
2.59612e-07
1.20362e-06
2.31016e-07
1.20329e-06
2.02345e-07
1.73609e-07
1.23261e-06
2.6012e-07
1.23235e-06
2.31536e-07
1.23209e-06
2.02878e-07
1.74157e-07
1.26127e-06
2.60536e-07
1.26107e-06
2.31959e-07
1.26087e-06
2.03309e-07
1.74599e-07
1.28992e-06
2.60861e-07
1.28979e-06
2.32283e-07
1.28965e-06
2.03637e-07
1.74935e-07
1.31857e-06
2.61096e-07
1.3185e-06
2.32506e-07
1.31843e-06
2.03859e-07
1.75161e-07
1.34723e-06
1.34721e-06
1.3472e-06
)
;

boundaryField
{
    plateFix
    {
        type            calculated;
        value           nonuniform List<scalar> 4(-1.93232e-09 4.52881e-14 -3.79893e-14 -1.65215e-09);
    }
    plate
    {
        type            calculated;
        value           nonuniform List<scalar> 
168
(
-4.76601e-10
-3.615e-10
-8.18681e-10
-6.4559e-10
-1.13872e-09
-9.02855e-10
-1.43064e-09
-1.12254e-09
-1.70385e-09
-1.30439e-09
-1.97226e-09
-1.44999e-09
-2.24919e-09
-1.5582e-09
-2.54919e-09
-1.62575e-09
-2.88804e-09
-1.6463e-09
-3.28386e-09
-1.6101e-09
-3.75791e-09
-1.50314e-09
-4.3358e-09
-1.30621e-09
-5.04872e-09
-9.9365e-10
-5.93508e-09
-5.3173e-10
-7.04245e-09
1.23276e-10
-8.43009e-09
1.02752e-09
-1.0172e-08
2.2526e-09
-1.23611e-08
3.88938e-09
-1.51138e-08
6.05282e-09
-1.85766e-08
8.88811e-09
-2.29338e-08
1.25786e-08
-2.84178e-08
1.73557e-08
-3.8142e-08
2.54646e-08
-4.4524e-08
3.19169e-08
-5.15387e-08
3.9008e-08
-5.91963e-08
4.67478e-08
-6.75065e-08
5.51458e-08
-7.64781e-08
6.42108e-08
-8.6119e-08
7.39505e-08
-9.64366e-08
8.43721e-08
-1.07437e-07
9.54824e-08
-1.19128e-07
1.07288e-07
-1.31515e-07
1.19795e-07
-1.44605e-07
1.3301e-07
-1.58404e-07
1.4694e-07
-1.72917e-07
1.6159e-07
-1.88151e-07
1.76967e-07
-2.04109e-07
1.93075e-07
-2.20794e-07
2.09918e-07
-2.38207e-07
2.27497e-07
-2.56347e-07
2.4581e-07
-2.7521e-07
2.64855e-07
-2.94789e-07
2.84625e-07
-3.15074e-07
3.05111e-07
-3.36052e-07
3.26299e-07
-3.57706e-07
3.48174e-07
-3.80018e-07
3.70716e-07
-4.02964e-07
3.93903e-07
-4.2652e-07
4.17708e-07
-4.50656e-07
4.42102e-07
-4.75342e-07
4.67055e-07
-5.00545e-07
4.92533e-07
-5.26231e-07
5.18499e-07
-5.52363e-07
5.44918e-07
-5.78906e-07
5.7175e-07
-6.05823e-07
5.98959e-07
-6.33075e-07
6.26506e-07
-6.60628e-07
6.54353e-07
-6.88445e-07
6.82463e-07
-7.16492e-07
7.10801e-07
-7.44735e-07
7.39332e-07
-7.73144e-07
7.68024e-07
-8.01686e-07
7.96847e-07
-8.30336e-07
8.25772e-07
-8.59066e-07
8.54772e-07
-8.87853e-07
8.83824e-07
-9.16675e-07
9.12907e-07
-9.45514e-07
9.42002e-07
-9.74356e-07
9.71095e-07
-1.00319e-06
1.00017e-06
-1.032e-06
1.02923e-06
-1.06078e-06
1.05826e-06
-1.08953e-06
1.08726e-06
-1.11825e-06
1.11622e-06
-1.14695e-06
1.14516e-06
-1.17561e-06
1.17406e-06
-1.20424e-06
1.20295e-06
-1.23286e-06
1.23181e-06
-1.26146e-06
1.26067e-06
-1.29005e-06
1.28952e-06
-1.31864e-06
1.31836e-06
-1.34726e-06
2.61241e-07
2.32641e-07
2.03991e-07
1.75295e-07
1.34718e-06
)
;
    }
    frontAndBackPlanes
    {
        type            empty;
    }
}


// ************************************************************************* //
