/*--------------------------------*- C++ -*----------------------------------*\
| =========                 |                                                 |
| \\      /  F ield         | OpenFOAM Extend Project: Open source CFD        |
|  \\    /   O peration     | Version:  1.6-ext                               |
|   \\  /    A nd           | Web:      www.extend-project.de                 |
|    \\/     M anipulation  |                                                 |
\*---------------------------------------------------------------------------*/
FoamFile
{
    version     2.0;
    format      ascii;
    class       volSymmTensorField;
    location    "0.6";
    object      sigma;
}
// * * * * * * * * * * * * * * * * * * * * * * * * * * * * * * * * * * * * * //

dimensions      [1 -1 -2 0 0 0 0];

internalField   nonuniform List<symmTensor> 
328
(
(3.99716 0.427632 -5.82602e-22 1.63577 1.08794e-19 2.25153)
(1.42036 -0.019557 -1.15685e-23 0.767158 4.47183e-23 0.873928)
(-0.24307 -0.00648925 5.52766e-23 0.0284949 -5.95774e-23 -0.0868884)
(-2.84067 0.455596 -1.55906e-22 -0.810228 -1.20935e-19 -1.46192)
(3.83947 0.304423 2.39833e-21 1.26071 -1.73457e-19 2.03841)
(1.41145 0.0993914 1.80491e-22 0.527276 -1.34876e-23 0.774326)
(-0.236443 0.109794 4.17072e-23 0.289857 1.06645e-22 0.0202221)
(-2.67534 0.323522 1.67699e-21 -0.415553 -3.52964e-20 -1.23793)
(3.80296 0.220117 -3.03242e-21 1.05663 -5.00821e-20 1.94212)
(1.46845 0.1826 -2.83576e-22 0.423298 1.12357e-22 0.755419)
(-0.29808 0.190049 7.30405e-22 0.409362 1.57766e-22 0.0432559)
(-2.63617 0.231293 -5.06402e-21 -0.198127 1.24168e-19 -1.13536)
(3.72741 0.16818 1.1284e-21 0.921161 4.0694e-20 1.85765)
(1.45886 0.234147 6.59973e-22 0.340687 1.27788e-23 0.718411)
(-0.290064 0.238642 -1.07255e-21 0.505614 -6.7242e-22 0.0848347)
(-2.55776 0.173154 4.53104e-21 -0.0527651 3.24684e-20 -1.04591)
(3.66811 0.138904 -3.59023e-22 0.846856 6.19268e-20 1.80416)
(1.45258 0.261658 -9.23283e-23 0.301688 4.39327e-23 0.700188)
(-0.28493 0.263514 1.64743e-22 0.555023 -6.47009e-22 0.10654)
(-2.49696 0.138944 2.625e-22 0.0282349 -9.29581e-20 -0.989238)
(3.60125 0.123529 2.77697e-21 0.803456 -4.26846e-20 1.76003)
(1.43006 0.275786 3.52358e-22 0.277659 7.42368e-23 0.681482)
(-0.26229 0.27541 -1.39168e-21 0.587161 9.09913e-22 0.128361)
(-2.42886 0.119534 -1.27567e-21 0.0761296 3.09747e-20 -0.942872)
(3.53335 0.116352 -4.15698e-21 0.779525 8.46212e-20 1.72328)
(1.40625 0.281425 1.272e-21 0.267508 1.95717e-22 0.667834)
(-0.237657 0.279268 -3.19e-22 0.603113 -4.25494e-22 0.144532)
(-2.36002 0.109018 1.12662e-21 0.102786 2.39231e-20 -0.904691)
(3.46051 0.113535 2.96463e-21 0.764885 -2.59734e-20 1.68829)
(1.37903 0.282581 -5.32742e-21 0.263283 -7.11382e-22 0.655214)
(-0.208866 0.279053 1.57303e-21 0.611258 -7.7219e-22 0.159266)
(-2.28619 0.103384 -9.87993e-22 0.118848 -6.97121e-20 -0.868739)
(3.38321 0.112867 -2.52998e-21 0.75454 5.74675e-20 1.65323)
(1.35161 0.281267 5.39475e-21 0.263191 6.53218e-22 0.644188)
(-0.179323 0.276713 1.6801e-21 0.613636 3.92327e-22 0.172012)
(-2.20767 0.100284 1.47052e-21 0.129594 1.04675e-19 -0.833033)
(3.30069 0.113071 -1.45104e-21 0.745385 -9.30367e-20 1.61656)
(1.3238 0.278774 4.17618e-22 0.265056 -5.51835e-22 0.633803)
(-0.148876 0.273452 -1.96322e-21 0.612723 -3.281e-22 0.183816)
(-2.12351 0.0983277 4.32355e-21 0.138348 -8.82113e-20 -0.795865)
(3.21281 0.113499 3.25743e-21 0.735943 5.72832e-20 1.57765)
(1.2961 0.2757 -9.53564e-21 0.268192 1.08219e-22 0.623978)
(-0.118077 0.269786 5.39713e-21 0.609425 1.94684e-22 0.194817)
(-2.03349 0.0967821 -4.38481e-21 0.146715 1.46882e-20 -0.756501)
(3.11934 0.11384 -4.06756e-21 0.7255 -7.10654e-20 1.53609)
(1.2683 0.272353 8.90847e-21 0.272069 1.30709e-21 0.614414)
(-0.0867261 0.265948 5.86661e-23 0.604463 -3.52393e-22 0.205378)
(-1.93726 0.095274 -5.19255e-21 0.15549 2.59587e-20 -0.714489)
(3.02015 0.113969 9.32818e-23 0.713786 4.61114e-20 1.49174)
(1.24028 0.26883 -5.04318e-23 0.276499 6.90797e-23 0.604985)
(-0.0546898 0.261982 -5.06208e-21 0.598153 7.32043e-22 0.215677)
(-1.83463 0.093635 1.06659e-20 0.164973 1.3422e-20 -0.669631)
(2.91508 0.113847 3.46092e-21 0.700719 7.36631e-21 1.44451)
(1.2118 0.265145 -5.71351e-21 0.281346 1.53949e-22 0.595542)
(-0.0216938 0.257865 4.04576e-21 0.590711 1.79692e-22 0.225907)
(-1.7254 0.0917997 -3.89821e-21 0.175244 -3.67788e-20 -0.621817)
(2.80401 0.113472 -5.1204e-21 0.686301 -1.09162e-20 1.39432)
(1.18266 0.261257 -7.52385e-21 0.286537 -2.48444e-21 0.585973)
(0.0125092 0.253539 -3.4043e-21 0.582241 1.51096e-21 0.23621)
(-1.60941 0.0897491 2.95281e-21 0.186273 5.85694e-21 -0.570999)
(2.68682 0.112848 2.71941e-21 0.670547 -5.47598e-21 1.34116)
(1.15268 0.257114 1.47262e-23 0.291997 -3.9853e-22 0.576176)
(0.0481625 0.248944 -4.92303e-21 0.572805 8.03208e-22 0.246706)
(-1.48654 0.087486 8.2703e-21 0.197986 -1.77917e-20 -0.517149)
(2.56343 0.111981 -1.90621e-21 0.653471 -3.37856e-20 1.28499)
(1.12172 0.252653 1.91962e-22 0.297657 2.14952e-22 0.566065)
(0.0854738 0.244019 5.42058e-21 0.562427 -7.07706e-22 0.257489)
(-1.35667 0.0850182 -5.3672e-21 0.2103 2.31249e-20 -0.46026)
(2.43378 0.110869 3.34467e-20 0.635068 2.18382e-20 1.22579)
(1.08966 0.247813 1.66401e-21 0.303441 1.80017e-21 0.555564)
(0.124606 0.238713 -8.05781e-25 0.551102 -8.33894e-22 0.268621)
(-1.21973 0.0823563 -4.43367e-21 0.223121 -6.01991e-20 -0.400341)
(2.29789 0.109504 -1.42191e-20 0.615332 1.34029e-20 1.16356)
(1.05644 0.242537 -1.11079e-20 0.309273 -1.69138e-21 0.54462)
(0.165687 0.23298 1.10947e-20 0.538819 -5.76403e-22 0.28015)
(-1.07571 0.0795095 -2.83275e-21 0.236362 4.01314e-20 -0.337421)
(2.15575 0.107871 -3.34647e-20 0.594205 -1.50042e-20 1.09827)
(1.022 0.236765 7.93419e-21 0.315054 3.76174e-21 0.533168)
(0.208778 0.226772 2.60511e-20 0.525535 -3.80333e-21 0.292083)
(-0.924642 0.0764911 2.81628e-21 0.249924 5.40919e-21 -0.271553)
(2.00769 0.105969 4.84532e-20 0.571738 3.45318e-21 1.03008)
(0.986422 0.230465 -1.388e-20 0.320725 -1.6185e-22 0.521214)
(0.253911 0.220056 -1.48071e-20 0.511249 4.48635e-21 0.304432)
(-0.766731 0.0733006 1.31422e-20 0.263738 2.42506e-20 -0.202846)
(1.85335 0.103666 2.84659e-20 0.547584 -1.08424e-20 0.958706)
(0.94955 0.223474 -6.66754e-22 0.326059 -3.99757e-21 0.508611)
(0.301056 0.212703 -3.06665e-20 0.495886 -1.77447e-21 0.317156)
(-0.601963 0.0699248 1.30439e-20 0.277726 4.51225e-22 -0.131326)
(1.68871 0.100604 -2.69483e-21 0.521805 8.80705e-21 0.88256)
(0.9104 0.214675 1.75635e-20 0.331535 7.43461e-21 0.495155)
(0.351914 0.203528 3.39719e-20 0.478785 -2.18157e-21 0.330671)
(-0.425399 0.065664 8.32648e-21 0.292009 -1.80572e-20 -0.0549691)
(1.51939 0.0983395 -6.38906e-20 0.494355 -2.64693e-20 0.803875)
(0.870217 0.20754 -1.04986e-20 0.336342 -1.17071e-20 0.48102)
(0.404497 0.196036 1.35032e-20 0.460269 5.3854e-21 0.344312)
(-0.243582 0.0622194 -1.10962e-19 0.305571 4.1974e-20 0.0232004)
(1.35604 0.0959806 -2.30212e-20 0.467117 3.44268e-20 0.727659)
(0.831781 0.200499 -3.82852e-21 0.340346 2.73341e-23 0.467262)
(0.455498 0.188714 3.87956e-20 0.442007 7.01709e-22 0.357421)
(-0.0674339 0.0589555 7.48457e-20 0.318576 -5.97725e-20 0.0988783)
(1.19873 0.0935148 2.72458e-20 0.440014 -2.67524e-20 0.653917)
(0.794889 0.19337 4.2995e-20 0.343429 1.32261e-20 0.453753)
(0.504711 0.181339 7.00457e-21 0.423696 -1.02434e-20 0.369795)
(0.102292 0.0556852 -2.40543e-20 0.330357 2.49216e-20 0.171497)
(1.04761 0.0909205 2.28862e-20 0.413347 -2.57405e-20 0.582821)
(0.7596 0.186131 -7.48127e-20 0.345785 -1.27424e-20 0.440595)
(0.552236 0.173907 3.67764e-21 0.40549 1.06575e-20 0.381537)
(0.265783 0.052457 -7.53188e-20 0.34115 -3.76582e-20 0.241225)
(0.902629 0.0882355 -8.16084e-20 0.387023 3.12359e-20 0.514316)
(0.725822 0.178778 -1.92043e-20 0.347346 2.76685e-21 0.427723)
(0.597939 0.166392 1.54638e-20 0.387325 -3.18396e-21 0.392566)
(0.422761 0.0492342 1.54505e-20 0.350805 5.04801e-20 0.307891)
(0.76391 0.0854477 7.87253e-20 0.361167 -3.33821e-21 0.448504)
(0.693595 0.171303 -1.76943e-20 0.348191 -2.40241e-20 0.415186)
(0.641819 0.158791 -2.31333e-20 0.369294 -3.58045e-21 0.402919)
(0.573197 0.0460254 9.21304e-20 0.359431 -3.11265e-20 0.371529)
(0.631475 0.0825709 -7.51727e-20 0.335775 1.28003e-20 0.38539)
(0.662885 0.163704 9.72599e-21 0.348315 4.58943e-22 0.402966)
(0.683794 0.151093 -7.64145e-20 0.3514 1.05529e-20 0.412565)
(0.716925 0.0428107 3.84401e-20 0.366996 1.49792e-21 0.432058)
(0.505423 0.0796033 5.55854e-20 0.31092 -1.2472e-20 0.325043)
(0.63371 0.155976 -6.80393e-20 0.347763 3.46165e-20 0.39109)
(0.723833 0.143289 1.54355e-20 0.333703 -3.87048e-21 0.421514)
(0.853854 0.0395858 -7.47386e-21 0.373552 2.24102e-20 0.489462)
(0.385817 0.0765522 -4.21998e-20 0.286633 -5.17683e-21 0.267501)
(0.606064 0.148117 4.3864e-20 0.346553 -2.20574e-20 0.379562)
(0.761877 0.135371 -1.63423e-19 0.31623 -1.7984e-20 0.429756)
(0.983848 0.0363374 9.51128e-21 0.379103 3.86344e-21 0.54369)
(0.272752 0.0734205 -1.25884e-19 0.262969 3.02136e-20 0.212824)
(0.579963 0.140121 2.02778e-19 0.344717 2.15117e-22 0.368402)
(0.797889 0.127332 4.72717e-20 0.299028 -1.24705e-20 0.437293)
(1.1068 0.0330574 9.12264e-20 0.383679 1.21583e-20 0.59471)
(0.166317 0.0702143 6.21324e-20 0.239971 -3.63636e-20 0.161066)
(0.555417 0.131989 3.26651e-20 0.342278 1.47406e-21 0.357623)
(0.831823 0.119164 8.43521e-20 0.282132 1.69063e-20 0.444121)
(1.22258 0.0297352 -9.74281e-20 0.387295 -1.19764e-20 0.642478)
(0.0666145 0.0669385 -1.18064e-19 0.217684 2.20742e-20 0.112284)
(0.532446 0.123718 2.53313e-20 0.33926 -2.64082e-20 0.347242)
(0.863642 0.110863 8.84724e-20 0.265578 5.16142e-20 0.450241)
(1.33108 0.0263624 -7.37215e-21 0.389966 -6.80131e-21 0.686956)
(-0.0262506 0.0635994 1.49776e-19 0.196146 1.39047e-20 0.0665367)
(0.511072 0.115311 1.7272e-20 0.335679 2.7907e-20 0.337275)
(0.893312 0.102426 -1.00275e-19 0.249395 -5.91615e-20 0.455648)
(1.43219 0.022931 4.16168e-21 0.3917 -1.0832e-20 0.728102)
(-0.112169 0.0602029 -8.27457e-20 0.175391 4.52705e-21 0.0238813)
(0.491322 0.106768 -5.59071e-20 0.331548 3.73837e-20 0.327737)
(0.920801 0.0938514 -3.10293e-20 0.233607 -1.42698e-20 0.460342)
(1.52579 0.0194352 -3.91358e-20 0.392501 -3.73597e-21 0.765873)
(-0.19103 0.0567553 -7.71274e-20 0.155447 -4.43803e-20 -0.0156275)
(0.473223 0.0980964 1.42858e-19 0.326872 6.84418e-21 0.318642)
(0.946083 0.0851417 -5.69178e-20 0.218231 1.81519e-20 0.464318)
(1.61179 0.0158711 1.14519e-19 0.392362 8.3026e-21 0.800227)
(-0.262727 0.0532626 4.0435e-20 0.13633 -3.49997e-21 -0.0519387)
(0.456804 0.0893032 1.42523e-19 0.321647 -5.02769e-20 0.31)
(0.969133 0.0763034 -2.47556e-19 0.203274 5.52113e-20 0.467569)
(1.69009 0.0122382 3.6415e-20 0.391271 -5.53632e-21 0.83112)
(-0.327156 0.0497308 1.11555e-19 0.118052 2.01148e-20 -0.0850076)
(0.442096 0.0803999 -9.21301e-20 0.315865 2.77153e-20 0.301819)
(0.989932 0.0673472 1.19979e-19 0.188734 3.68336e-20 0.470086)
(1.7606 0.00853952 -2.27625e-19 0.389205 -7.66099e-21 0.858508)
(-0.384227 0.0461653 -6.74067e-20 0.100612 -2.03588e-21 -0.114798)
(0.429123 0.0714016 1.30835e-19 0.309505 5.74817e-21 0.294101)
(1.00846 0.0582893 8.48586e-20 0.174599 -5.37578e-20 0.471858)
(1.82325 0.00478226 -1.1587e-19 0.386132 1.44965e-20 0.882348)
(-0.433864 0.0425715 -1.79124e-19 0.0839983 1.3234e-20 -0.141284)
(0.417906 0.0623274 -3.91714e-21 0.302542 -1.51736e-20 0.286845)
(1.02471 0.0491514 8.3873e-20 0.160847 5.88593e-21 0.472871)
(1.87797 0.000978371 1.38524e-19 0.382014 5.36205e-22 0.902601)
(-0.476015 0.0389538 2.49959e-19 0.0681915 -5.5857e-21 -0.164452)
(0.408459 0.053201 -2.21225e-19 0.294944 -1.37624e-20 0.280043)
(1.03866 0.0399611 3.29736e-20 0.147447 -5.29461e-20 0.473107)
(1.92472 -0.00285516 -1.07035e-19 0.376806 3.10184e-20 0.91923)
(-0.510655 0.0353163 2.08265e-19 0.0531617 -3.85052e-21 -0.184305)
(0.400785 0.0440503 -2.85263e-19 0.286674 5.96408e-20 0.273681)
(1.05031 0.0307526 1.77893e-19 0.134359 -4.85029e-20 0.472547)
(1.96347 -0.00669613 1.06511e-19 0.370459 7.26229e-20 0.932204)
(-0.537793 0.0316627 1.44092e-19 0.0388713 2.4556e-21 -0.20086)
(0.394873 0.0349081 7.58624e-20 0.27769 -4.66717e-20 0.267739)
(1.05965 0.021566 -7.99144e-20 0.121538 -5.29897e-20 0.471169)
(1.99422 -0.0105171 -1.15848e-19 0.362921 -2.58976e-20 0.9415)
(-0.557479 0.0279961 -7.90205e-20 0.0252763 -1.33675e-20 -0.214157)
(0.390697 0.0258115 1.96521e-20 0.267953 -1.67321e-20 0.26219)
(1.06666 0.0124478 -2.1346e-19 0.108934 1.36199e-19 0.468948)
(2.01697 -0.0142858 -1.20439e-19 0.354145 -2.118e-20 0.947104)
(-0.569808 0.0243196 3.55511e-19 0.0123281 -2.97941e-20 -0.224252)
(0.388213 0.016802 -1.15304e-19 0.257425 1.16411e-19 0.257002)
(1.07135 0.00345016 7.25699e-20 0.0964923 1.62901e-21 0.465863)
(2.03178 -0.0179651 4.39812e-19 0.344085 8.35609e-21 0.949018)
(-0.574928 0.020636 -1.65337e-20 -2.40363e-05 -1.38991e-20 -0.231224)
(0.387354 0.00792523 -6.21839e-20 0.246072 -1.44131e-20 0.252133)
(1.07371 -0.00536978 -8.26677e-20 0.0841629 -5.27237e-20 0.461889)
(2.03871 -0.0215144 -3.05854e-19 0.332704 -4.45504e-20 0.947254)
(-0.573042 0.0169489 5.71997e-20 -0.0118305 -3.21455e-20 -0.235176)
(0.388034 -0.000769794 -1.2045e-19 0.233871 5.0737e-20 0.247541)
(1.07372 -0.0139505 9.19641e-20 0.0718972 1.16527e-19 0.457004)
(2.03788 -0.0248897 -5.92802e-20 0.319981 -2.50519e-20 0.941847)
(-0.564412 0.013262 -9.53572e-21 -0.023139 1.5605e-20 -0.23623)
(0.390139 -0.00923109 -9.10061e-20 0.220811 6.27827e-20 0.243176)
(1.07139 -0.0222272 1.09412e-19 0.059654 -8.83198e-20 0.45119)
(2.02941 -0.0280452 -1.73964e-19 0.305908 1.71846e-20 0.932848)
(-0.549362 0.00958014 -1.76432e-20 -0.0339921 3.38297e-20 -0.234535)
(0.393535 -0.0174046 2.87013e-19 0.206892 5.66383e-21 0.238983)
(1.06671 -0.0301331 -3.37554e-19 0.0474013 -3.37461e-20 0.444433)
(2.01349 -0.0309343 8.22587e-20 0.290496 -2.81475e-20 0.920333)
(-0.528278 0.00590931 -3.66287e-20 -0.0444251 4.21218e-20 -0.230258)
(0.398061 -0.0252351 -1.63556e-19 0.192137 -1.83506e-19 0.234907)
(1.05968 -0.037601 2.23114e-19 0.0351189 -1.35886e-20 0.436723)
(1.99034 -0.033511 6.42508e-20 0.273781 1.60505e-20 0.904402)
(-0.501609 0.0022568 3.34403e-19 -0.0544641 8.96232e-21 -0.223589)
(0.403531 -0.0326673 -1.12094e-19 0.176583 2.33382e-19 0.230889)
(1.05029 -0.0445644 -9.36136e-20 0.0228004 -5.12676e-20 0.428058)
(1.9602 -0.0357311 1.20771e-19 0.255821 1.15996e-20 0.88518)
(-0.46986 -0.0013685 -2.07496e-20 -0.0641253 -4.41714e-20 -0.214737)
(0.40974 -0.0396469 1.08016e-19 0.160289 -9.94561e-20 0.226871)
(1.03856 -0.0509594 -6.81359e-20 0.0104546 -8.47316e-20 0.418443)
(1.92337 -0.0375533 -4.24531e-19 0.236702 8.3315e-20 0.862819)
(-0.433595 -0.00495614 1.536e-20 -0.0734134 -2.91532e-20 -0.20393)
(0.416461 -0.0461217 2.23417e-19 0.143336 1.27361e-19 0.222794)
(1.02449 -0.0567263 3.18637e-19 -0.00189397 6.92711e-20 0.407892)
(1.88019 -0.0389411 1.17573e-19 0.216534 1.33135e-20 0.837498)
(-0.393427 -0.00849406 -3.61357e-19 -0.0823222 -2.44633e-21 -0.19141)
(0.423449 -0.0520431 -5.5344e-20 0.125824 -2.07603e-19 0.218599)
(1.0081 -0.0618108 -6.02402e-19 -0.0142051 9.62803e-20 0.396426)
(1.83103 -0.0398633 4.20017e-19 0.195454 -2.83251e-20 0.809421)
(-0.350013 -0.0119687 -3.84527e-20 -0.0908347 2.01389e-21 -0.177434)
(0.430446 -0.057367 -1.13484e-19 0.10787 1.98847e-19 0.214231)
(0.989401 -0.0661656 2.08977e-19 -0.0264236 8.06939e-20 0.384076)
(1.77631 -0.0402953 -2.74147e-19 0.17362 2.35314e-20 0.778818)
(-0.304047 -0.0153653 1.66794e-19 -0.0989244 7.99752e-20 -0.162268)
(0.437183 -0.0620548 1.93568e-19 0.0896105 -1.20676e-19 0.209637)
(0.968435 -0.0697519 -3.71763e-19 -0.0384812 -5.63846e-20 0.370882)
(1.71647 -0.0402197 -7.13207e-20 0.151214 -2.40815e-20 0.745939)
(-0.256249 -0.0186681 -1.17295e-19 -0.106556 3.96548e-20 -0.146186)
(0.443386 -0.0660745 4.25971e-20 0.0711954 1.07555e-19 0.204766)
(0.945238 -0.0725398 1.78009e-19 -0.050298 -5.34589e-20 0.356891)
(1.652 -0.0396267 3.69507e-19 0.128434 -8.5766e-21 0.711056)
(-0.207358 -0.0218608 9.90495e-20 -0.11369 6.34497e-21 -0.129468)
(0.448778 -0.0694016 -2.81497e-19 0.0527851 2.9693e-21 0.199573)
(0.919859 -0.0745093 1.42274e-19 -0.0617857 -1.65544e-19 0.34216)
(1.5834 -0.0385145 -3.69745e-19 0.105491 -4.2147e-20 0.674456)
(-0.158119 -0.0249269 -2.13807e-19 -0.12028 3.11818e-20 -0.112395)
(0.453086 -0.0720193 1.00567e-19 0.0345473 -1.47992e-19 0.194014)
(0.892359 -0.075651 3.95325e-19 -0.0728502 1.49602e-19 0.326749)
(1.5112 -0.0368892 -1.97147e-19 0.0826054 8.14595e-20 0.636441)
(-0.109279 -0.0278502 -1.78704e-19 -0.12628 3.69268e-20 -0.0952444)
(0.456042 -0.0739194 8.1612e-20 0.016653 1.26807e-19 0.188053)
(0.862809 -0.0759661 -2.40605e-19 -0.0833947 -4.71369e-20 0.310726)
(1.43595 -0.0347646 8.62928e-21 0.0600029 -8.08248e-20 0.597317)
(-0.0615676 -0.0306155 -3.18643e-19 -0.131644 -1.4307e-20 -0.0782918)
(0.457391 -0.0751024 -1.06571e-19 -0.000727316 1.69023e-19 0.181654)
(0.83129 -0.0754662 -2.05841e-19 -0.0933227 -6.55881e-20 0.294162)
(1.3582 -0.0321616 2.66331e-19 0.0379067 2.28657e-20 0.557399)
(-0.0156965 -0.033209 -1.87071e-19 -0.136329 2.72547e-20 -0.0618039)
(0.456892 -0.0755771 2.1315e-19 -0.0174273 5.24747e-20 0.174787)
(0.797896 -0.074173 7.0794e-19 -0.102541 -9.39668e-20 0.277132)
(1.27853 -0.0291077 -2.84028e-20 0.0165357 3.28178e-20 0.516998)
(0.0276551 -0.0356185 3.70636e-20 -0.140296 1.0827e-19 -0.0460368)
(0.454321 -0.0753611 -2.37567e-19 -0.0332883 -3.2329e-19 0.167428)
(0.762728 -0.072118 -1.22611e-19 -0.110963 -1.51886e-20 0.25971)
(1.19748 -0.0256357 -1.84239e-19 -0.00390098 -4.93837e-20 0.476422)
(0.0678474 -0.0378344 -1.46577e-19 -0.143512 1.22173e-19 -0.0312335)
(0.449478 -0.0744801 1.15097e-19 -0.0481623 -1.09715e-19 0.159554)
(0.725895 -0.0693413 -1.01282e-19 -0.118509 -1.14662e-19 0.241973)
(1.11562 -0.0217832 6.67014e-20 -0.0232075 1.04917e-19 0.43597)
(0.104287 -0.0398498 -3.61053e-19 -0.145953 -2.84153e-20 -0.0176212)
(0.442184 -0.0729673 1.29749e-20 -0.0619142 2.65599e-19 0.151148)
(0.687516 -0.0658909 1.56731e-19 -0.125109 -3.62807e-19 0.223996)
(1.03347 -0.0175912 5.93514e-19 -0.041204 -9.59681e-20 0.395929)
(0.136434 -0.0416612 7.98493e-20 -0.1476 3.92524e-20 -0.00540876)
(0.432286 -0.0708634 -3.28409e-19 -0.0744233 -2.14457e-19 0.142198)
(0.647714 -0.0618217 -1.61727e-19 -0.130705 3.13982e-20 0.20585)
(0.951548 -0.0131031 -2.82496e-19 -0.0577292 -8.03711e-20 0.356567)
(0.163806 -0.0432689 -3.1411e-19 -0.148442 6.19045e-20 0.00521566)
(0.419656 -0.0682161 3.96192e-19 -0.0855847 -1.38112e-19 0.132695)
(0.606613 -0.0571947 4.90144e-19 -0.135247 1.17933e-19 0.187607)
(0.870346 -0.00836356 -2.86285e-19 -0.0726411 -2.72173e-20 0.318137)
(0.185987 -0.0446776 -3.8611e-20 -0.148477 -9.53946e-20 0.0140863)
(0.404195 -0.0650799 -5.83675e-20 -0.0953089 4.56192e-20 0.122633)
(0.564341 -0.052076 -3.09531e-19 -0.138698 2.43881e-19 0.169332)
(0.790311 -0.00341725 8.18561e-20 -0.0858183 -1.04418e-19 0.280867)
(0.202626 -0.0458979 2.29509e-20 -0.147703 6.53872e-20 0.0210632)
(0.385828 -0.061517 4.42694e-19 -0.103521 -1.71191e-19 0.112014)
(0.521023 -0.0465362 -4.01455e-19 -0.141027 7.97017e-20 0.151086)
(0.711854 0.0016923 3.93561e-20 -0.0971581 -6.81151e-20 0.244963)
(0.213446 -0.046947 -5.68241e-19 -0.146126 7.81073e-20 0.0260335)
(0.364504 -0.057598 -2.733e-19 -0.110159 4.4968e-20 0.100841)
(0.476773 -0.0406489 6.63558e-19 -0.142208 2.46183e-19 0.132926)
(0.635337 0.00692433 -5.67625e-19 -0.106576 -1.64318e-20 0.210603)
(0.218249 -0.0478532 -8.66055e-20 -0.143744 -1.30402e-19 0.028919)
(0.340196 -0.0534059 1.7586e-19 -0.115165 2.56832e-19 0.0891269)
(0.431698 -0.0344881 -3.34452e-19 -0.142214 -3.20391e-20 0.114906)
(0.561076 0.0122442 -7.3356e-20 -0.113999 -1.46846e-19 0.177942)
(0.216923 -0.0486598 7.90151e-19 -0.140548 -1.40083e-19 0.0296779)
(0.31287 -0.0490419 -3.94532e-19 -0.118486 2.39602e-19 0.0768796)
(0.385858 -0.0281237 8.56938e-19 -0.141012 -5.21921e-20 0.0970629)
(0.489327 0.0176278 1.36736e-19 -0.119362 -4.36851e-20 0.14711)
(0.209486 -0.0494432 3.69738e-20 -0.136492 -2.1718e-19 0.028336)
(0.282519 -0.0446436 -3.76255e-19 -0.120028 -1.31935e-20 0.0641327)
(0.339299 -0.021604 2.14524e-21 -0.138516 2.03482e-19 0.0794488)
(0.42033 0.0230793 -4.27717e-19 -0.122582 4.2846e-20 0.118235)
(0.196065 -0.0503261 -1.86416e-19 -0.131481 1.69427e-19 0.0249817)
(0.248947 -0.0404036 1.43938e-19 -0.119696 9.16315e-20 0.0508468)
(0.291836 -0.0149391 1.56673e-20 -0.134631 -3.30428e-19 0.0620279)
(0.354267 0.0286435 3.23748e-19 -0.12354 -6.01364e-20 0.0914374)
(0.177234 -0.0515686 4.18971e-19 -0.125244 1.24491e-19 0.0199535)
(0.212079 -0.0366457 -3.02218e-19 -0.117141 3.84214e-19 0.0371313)
(0.243349 -0.00802467 -3.84884e-19 -0.128994 2.3457e-20 0.0448978)
(0.291588 0.0345001 -2.03872e-19 -0.121961 1.14488e-19 0.0670071)
(0.15355 -0.0535182 -2.59955e-19 -0.117326 -1.3169e-19 0.0136556)
(0.170542 -0.0337826 6.66241e-20 -0.112325 6.58306e-20 0.0224511)
(0.192361 -0.000690834 8.19146e-19 -0.121542 -2.34871e-19 0.0274922)
(0.232565 0.0409107 -2.75715e-19 -0.117383 -3.10305e-20 0.0452381)
(0.127828 -0.0568595 1.35729e-20 -0.106554 2.40258e-20 0.00768341)
(0.124772 -0.0323843 5.30108e-19 -0.104267 -4.96846e-19 0.00737462)
(0.139115 0.00737325 -8.39564e-20 -0.111258 4.46368e-19 0.0103152)
(0.179458 0.048486 3.54146e-19 -0.108653 -3.67331e-20 0.0274955)
(0.0993482 -0.0607237 -2.34916e-20 -0.0929219 1.3122e-19 0.0017509)
(0.0677923 -0.0317629 1.9404e-19 -0.0977767 4.98879e-19 -0.0128148)
(0.0763564 0.0151491 -7.03582e-20 -0.102904 -5.39876e-19 -0.01144)
(0.130987 0.0562116 -4.23044e-19 -0.0956626 2.02063e-19 0.01331)
(0.0786121 -0.0616744 5.33054e-19 -0.08092 6.88212e-20 -0.00173666)
(0.0155713 -0.0294367 -6.5526e-19 -0.0995384 2.5056e-20 -0.0344026)
(0.0196297 0.0199953 -8.13035e-20 -0.103369 1.64276e-19 -0.0343113)
(0.0963398 0.0604372 -6.54272e-19 -0.0833711 -4.38911e-20 0.00437391)
(0.026036 -0.0425353 -1.79594e-19 -0.117857 3.57082e-20 -0.0375392)
(-0.0580432 -0.0183782 1.19972e-19 -0.179211 3.21295e-19 -0.0957161)
(-0.0568412 0.0163115 -2.00942e-19 -0.18374 -2.11928e-19 -0.0970468)
(0.0358004 0.0429867 3.00017e-19 -0.121009 1.55897e-20 -0.0348942)
)
;

boundaryField
{
    plateFix
    {
        type            calculated;
        value           nonuniform List<symmTensor> 4((3.99182 0.512239 -1.34307e-21 1.63267 1.08526e-19 2.24798) (1.32619 -0.131243 -1.15719e-23 0.704372 4.47079e-23 0.81112) (-0.146077 -0.11747 5.52824e-23 0.093154 -5.95701e-23 -0.0222558) (-2.83777 0.548758 -1.34525e-21 -0.807853 -1.20439e-19 -1.45998));
    }
    plate
    {
        type            calculated;
        value           nonuniform List<symmTensor> 
168
(
(3.18864 0.00050005 -2.71142e-22 0.432808 6.31201e-20 1.44684)
(-2.00874 -0.000501352 -3.61728e-22 0.451616 -3.44567e-20 -0.624527)
(3.28414 0.000598222 1.7861e-21 0.433554 -3.87578e-20 1.4853)
(-2.10233 -0.000584657 1.92053e-21 0.452352 -1.01963e-25 -0.661699)
(3.38585 0.00104074 -3.40609e-21 0.434411 -3.87991e-20 1.52628)
(-2.20526 -0.00100654 -5.41653e-21 0.453205 -2.34516e-25 -0.702577)
(3.40227 0.00176075 1.11727e-21 0.435223 3.65026e-20 1.53316)
(-2.22161 -0.00170425 4.50408e-21 0.45402 -3.68252e-20 -0.708812)
(3.39361 0.00271436 -3.81132e-22 0.435903 -2.11003e-22 1.52995)
(-2.21343 -0.00263562 2.53718e-22 0.454709 3.44213e-20 -0.705277)
(3.35639 0.00383418 2.75989e-21 0.436379 3.1322e-20 1.51525)
(-2.17639 -0.00373318 -1.27508e-21 0.4552 1.35968e-21 -0.690269)
(3.3048 0.00506376 -4.13513e-21 0.436614 -2.75434e-20 1.49471)
(-2.12486 -0.0049404 1.12612e-21 0.455455 2.35443e-20 -0.669556)
(3.24181 0.00635179 2.95745e-21 0.436593 1.11041e-21 1.46951)
(-2.06158 -0.00620604 -9.95849e-22 0.455461 -2.88801e-20 -0.644242)
(3.17127 0.00765994 -2.51082e-21 0.436315 -2.30555e-21 1.44118)
(-1.99033 -0.00749176 1.48677e-21 0.455215 2.46871e-20 -0.615838)
(3.09449 0.00896042 -1.47816e-21 0.435783 9.50076e-23 1.41026)
(-1.91233 -0.00876973 4.29747e-21 0.45472 -2.39093e-20 -0.58483)
(3.01238 0.0102355 3.29062e-21 0.434998 -2.02517e-20 1.37711)
(-1.82839 -0.010022 -4.37788e-21 0.453981 2.76149e-21 -0.551543)
(2.92517 0.0114752 -4.10974e-21 0.433962 1.83196e-20 1.34182)
(-1.73868 -0.0112385 -5.18264e-21 0.452997 -3.42028e-22 -0.516046)
(2.83291 0.0126757 1.20275e-22 0.432668 -1.98052e-20 1.30441)
(-1.64321 -0.0124151 1.06701e-20 0.451763 -9.68024e-23 -0.478342)
(2.7355 0.0138366 3.45211e-21 0.431101 1.52495e-20 1.26484)
(-1.54183 -0.0135513 -3.92166e-21 0.450266 3.89293e-21 -0.438379)
(2.6328 0.0149595 -5.12332e-21 0.429238 3.43644e-21 1.22302)
(-1.43439 -0.0146486 2.96439e-21 0.448485 -1.33648e-20 -0.396103)
(2.52465 0.0160455 2.71583e-21 0.427047 -2.92474e-21 1.1789)
(-1.32072 -0.0157083 8.25583e-21 0.446389 1.22828e-20 -0.35146)
(2.41094 0.0170944 -1.92227e-21 0.424488 -4.79909e-21 1.13241)
(-1.20069 -0.0167302 -5.34886e-21 0.443938 -6.81699e-21 -0.304412)
(2.29157 0.0181021 3.34583e-20 0.421509 4.18601e-21 1.08349)
(-1.07419 -0.0177104 -4.46939e-21 0.441086 7.65882e-22 -0.254939)
(2.16655 0.0190624 -1.42142e-20 0.418061 3.85604e-21 1.03212)
(-0.94119 -0.0186434 -2.79323e-21 0.437781 -1.55463e-20 -0.203045)
(2.03584 0.019957 -3.34726e-20 0.414066 -3.45212e-21 0.978256)
(-0.801707 -0.0195114 2.81534e-21 0.433951 1.47767e-20 -0.148767)
(1.89974 0.020786 4.84611e-20 0.409519 -1.14129e-20 0.922016)
(-0.6559 -0.0203155 1.31466e-20 0.42959 8.63158e-21 -0.0921715)
(1.75795 0.0214708 2.84606e-20 0.404199 -4.31714e-21 0.863195)
(-0.503854 -0.0209801 1.3049e-20 0.424483 -8.6508e-21 -0.0333785)
(1.6066 0.0222568 -2.69172e-21 0.398358 7.90799e-21 0.80034)
(-0.340543 -0.0217439 8.30287e-21 0.418876 -7.454e-23 0.0297209)
(1.45076 0.0230472 -6.39075e-20 0.391125 -7.83685e-21 0.735132)
(-0.172392 -0.0225089 -1.10923e-19 0.411929 2.88144e-22 0.0942206)
(1.30068 0.0236531 -2.30079e-20 0.383812 6.26265e-21 0.672198)
(-0.0095922 -0.0230987 7.47893e-20 0.404905 -4.10471e-22 0.156548)
(1.15618 0.0241949 2.72299e-20 0.37591 -3.12601e-23 0.611254)
(0.147219 -0.0236293 -2.40343e-20 0.39731 -9.32623e-23 0.21625)
(1.01739 0.0246252 2.28638e-20 0.367762 7.89021e-22 0.552501)
(0.298294 -0.0240566 -7.5348e-20 0.389482 -4.30788e-22 0.273564)
(0.884245 0.0249927 -8.15819e-20 0.359204 3.01015e-22 0.495836)
(0.443349 -0.0244296 1.55034e-20 0.381257 -1.57655e-22 0.328309)
(0.756864 0.0252818 7.87148e-20 0.350374 1.91498e-22 0.44137)
(0.582374 -0.0247344 9.20852e-20 0.372772 1.15462e-22 0.380538)
(0.635258 0.0255138 -7.51669e-20 0.341244 6.65126e-21 0.389091)
(0.715203 -0.0249939 3.84432e-20 0.363999 9.65172e-23 0.430172)
(0.519519 0.0256886 5.55615e-20 0.331879 -1.17793e-22 0.339066)
(0.841757 -0.0252095 -7.47042e-21 0.355003 -6.0461e-23 0.477205)
(0.409702 0.0258185 -4.22035e-20 0.322299 -6.55956e-21 0.291322)
(0.961906 -0.0253952 9.51601e-21 0.3458 1.79925e-22 0.521594)
(0.305895 0.0259094 -1.25842e-19 0.312547 -9.33727e-23 0.245913)
(1.07555 -0.0255585 9.12203e-20 0.336432 -8.39359e-23 0.563314)
(0.208178 0.0259707 6.2084e-20 0.30265 -5.18844e-22 0.202882)
(1.18257 -0.0257105 -9.74437e-20 0.326926 2.97807e-21 0.60233)
(0.116645 0.02601 -1.1804e-19 0.292642 -5.30212e-22 0.16228)
(1.28287 -0.02586 -7.36825e-21 0.317308 -4.12154e-21 0.638611)
(0.031392 0.0260353 1.4979e-19 0.282548 -1.96165e-21 0.124155)
(1.37634 -0.0260163 4.16984e-21 0.3076 1.48673e-22 0.672124)
(-0.0474806 0.0260531 -8.27376e-20 0.272387 2.70745e-21 0.0885553)
(1.46287 -0.0261868 -3.91313e-20 0.297816 -1.89768e-22 0.702834)
(-0.119872 0.0260689 -7.71755e-20 0.262172 -1.18165e-22 0.0555267)
(1.54238 -0.0263774 1.1452e-19 0.287961 3.00836e-21 0.730705)
(-0.185682 0.0260861 4.04378e-20 0.251908 4.50342e-23 0.0251111)
(1.61478 -0.0265918 3.64042e-20 0.278031 -5.61835e-21 0.7557)
(-0.244818 0.0261059 1.11571e-19 0.241593 8.48213e-23 -0.00265527)
(1.67997 -0.0268307 -2.2761e-19 0.268013 2.48088e-21 0.777782)
(-0.297195 0.026127 -6.74129e-20 0.231213 2.14068e-21 -0.0277438)
(1.73791 -0.027092 -1.15858e-19 0.257883 -2.50244e-21 0.796912)
(-0.342746 0.026145 -1.7912e-19 0.220749 -2.32041e-21 -0.0501354)
(1.78851 -0.0273695 1.38514e-19 0.247607 4.97709e-21 0.813055)
(-0.381422 0.0261523 2.49965e-19 0.210171 1.65877e-22 -0.0698221)
(1.83175 -0.0276537 -1.0702e-19 0.237143 -2.151e-21 0.826176)
(-0.413202 0.0261381 2.0824e-19 0.199446 -1.90736e-21 -0.0868089)
(1.86758 -0.027931 1.06536e-19 0.226443 -9.3168e-22 0.836243)
(-0.438096 0.0260882 1.44095e-19 0.188534 2.11963e-21 -0.101116)
(1.89602 -0.0281839 -1.15855e-19 0.215453 -2.28399e-21 0.843233)
(-0.456151 0.0259858 -7.90578e-20 0.177393 1.69584e-21 -0.112778)
(1.91705 -0.0283918 -1.20448e-19 0.204117 -2.08016e-21 0.847128)
(-0.467459 0.0258113 3.55508e-19 0.165983 -3.2004e-21 -0.121849)
(1.93073 -0.0285306 4.3981e-19 0.19238 1.11916e-21 0.84792)
(-0.472159 0.0255431 -1.65375e-20 0.154266 1.52519e-21 -0.1284)
(1.93712 -0.0285742 -3.05849e-19 0.180192 -1.85996e-21 0.845615)
(-0.470442 0.0251584 5.7216e-20 0.142208 9.22539e-22 -0.132519)
(1.93631 -0.0284946 -5.92748e-20 0.167511 1.72991e-21 0.840233)
(-0.462553 0.0246339 -9.53253e-21 0.129787 -1.33815e-21 -0.134315)
(1.92841 -0.0282636 -1.73928e-19 0.154305 -5.37694e-22 0.83181)
(-0.448797 0.0239465 -1.76397e-20 0.116992 -1.62124e-22 -0.133914)
(1.9136 -0.0278528 8.22654e-20 0.140558 5.27152e-22 0.820403)
(-0.429534 0.0230745 -3.66005e-20 0.103823 1.10501e-22 -0.131459)
(1.89206 -0.0272357 6.42541e-20 0.12627 -1.20796e-21 0.806088)
(-0.405183 0.0219983 3.3436e-19 0.0902985 8.77827e-23 -0.127112)
(1.86402 -0.0263878 1.20777e-19 0.111461 2.26045e-22 0.788965)
(-0.376219 0.0207011 -2.07645e-20 0.0764521 -3.16356e-23 -0.121048)
(1.82974 -0.0252883 -4.24521e-19 0.0961711 9.72284e-22 0.769156)
(-0.343167 0.01917 1.53578e-20 0.0623347 4.77688e-23 -0.113458)
(1.78953 -0.0239202 1.17577e-19 0.080461 -6.7458e-22 0.746806)
(-0.3066 0.0173963 -3.61365e-19 0.0480139 -2.36134e-24 -0.104544)
(1.74372 -0.0222716 4.20007e-19 0.0644123 7.16884e-22 0.722083)
(-0.267132 0.0153759 -3.84244e-20 0.0335727 4.30242e-24 -0.0945168)
(1.6927 -0.0203359 -2.74164e-19 0.0481256 3.39795e-22 0.695178)
(-0.225408 0.0131095 1.66817e-19 0.0191081 -5.68379e-23 -0.0835977)
(1.63686 -0.0181119 -7.13174e-20 0.0317184 -4.56802e-22 0.666298)
(-0.182102 0.0106031 -1.17267e-19 0.0047282 5.65839e-23 -0.0720119)