/*--------------------------------*- C++ -*----------------------------------*\
| =========                 |                                                 |
| \\      /  F ield         | OpenFOAM Extend Project: Open source CFD        |
|  \\    /   O peration     | Version:  1.6-ext                               |
|   \\  /    A nd           | Web:      www.extend-project.de                 |
|    \\/     M anipulation  |                                                 |
\*---------------------------------------------------------------------------*/
FoamFile
{
    version     2.0;
    format      ascii;
    class       volScalarField;
    location    "0.6";
    object      sigmaEq;
}
// * * * * * * * * * * * * * * * * * * * * * * * * * * * * * * * * * * * * * //

dimensions      [1 -1 -2 0 0 0 0];

internalField   nonuniform List<scalar> 
328
(
2.24719
0.607849
0.236332
1.96134
2.35103
0.8087
0.493913
2.05877
2.45763
0.977524
0.695604
2.16748
2.49176
1.06541
0.803868
2.20532
2.4966
1.1091
0.859228
2.21369
2.47228
1.11978
0.877432
2.19171
2.43226
1.11298
0.874986
2.15287
2.38088
1.09579
0.860129
2.10152
2.32238
1.07353
0.838651
2.04199
2.25848
1.04864
0.813429
1.97604
2.19025
1.0225
0.786056
1.90473
2.11802
0.995566
0.757201
1.8284
2.04187
0.967984
0.727117
1.74711
1.96176
0.93969
0.695842
1.66075
1.87756
0.910567
0.66335
1.56917
1.78917
0.880494
0.629622
1.47219
1.69652
0.849374
0.594699
1.36966
1.59958
0.817138
0.558721
1.26147
1.49836
0.78376
0.521976
1.14755
1.39294
0.74922
0.484937
1.0279
1.28358
0.7136
0.448384
0.90271
1.17024
0.676808
0.413291
0.772015
1.04939
0.636709
0.378831
0.631726
0.926415
0.598275
0.354091
0.4877
0.808762
0.562
0.339584
0.35056
0.696673
0.527595
0.335391
0.224326
0.590188
0.494906
0.341107
0.128021
0.48967
0.463862
0.355444
0.13183
0.395675
0.43438
0.376671
0.222736
0.309327
0.406383
0.402968
0.330779
0.233011
0.379789
0.432724
0.439494
0.172284
0.354521
0.464621
0.545191
0.138825
0.330502
0.497639
0.646616
0.14363
0.307662
0.530996
0.743183
0.177343
0.285939
0.564104
0.834556
0.222641
0.265283
0.596517
0.92051
0.270095
0.245661
0.627899
1.00088
0.315758
0.227067
0.657996
1.07553
0.357872
0.209529
0.686619
1.14436
0.395549
0.193124
0.713628
1.20731
0.428281
0.177997
0.738925
1.26431
0.455747
0.164378
0.762443
1.31534
0.477734
0.152612
0.784142
1.36039
0.494099
0.143158
0.803999
1.39947
0.504753
0.136575
0.822007
1.43261
0.509659
0.133437
0.838169
1.45987
0.508827
0.134194
0.85249
1.48131
0.502322
0.13903
0.864977
1.49703
0.490264
0.147808
0.875633
1.50713
0.472833
0.160128
0.884455
1.51174
0.450272
0.175455
0.891431
1.51099
0.422891
0.193228
0.896537
1.50503
0.391067
0.212912
0.89974
1.49404
0.355249
0.234021
0.900994
1.47819
0.315958
0.256106
0.900247
1.45768
0.273797
0.27875
0.897436
1.4327
0.229473
0.301548
0.892495
1.4035
0.183855
0.324111
0.885359
1.37029
0.138172
0.34605
0.875962
1.33332
0.0947541
0.366988
0.864246
1.29286
0.0604683
0.386551
0.850165
1.24919
0.0552404
0.404378
0.833682
1.2026
0.0826459
0.420124
0.81478
1.15337
0.120102
0.433462
0.793456
1.10184
0.158327
0.444091
0.769729
1.04831
0.194532
0.451737
0.743638
0.993108
0.227463
0.456157
0.71524
0.936566
0.256346
0.457143
0.684609
0.879009
0.280619
0.454523
0.651838
0.820758
0.299849
0.448159
0.61703
0.762124
0.313702
0.437949
0.580296
0.703403
0.32193
0.423821
0.541748
0.644874
0.324374
0.405732
0.501487
0.58679
0.320959
0.383639
0.459576
0.52938
0.311731
0.357498
0.416016
0.472865
0.296844
0.327124
0.370607
0.417443
0.276829
0.292276
0.322991
0.363531
0.252275
0.251949
0.271966
0.311483
0.22563
0.206152
0.217235
0.263384
0.196952
0.153594
0.157456
0.219148
0.174641
0.112226
0.112263
0.187575
0.145006
0.112024
0.115827
0.155064
)
;

boundaryField
{
    plateFix
    {
        type            calculated;
        value           nonuniform List<scalar> 4(2.29777 0.619155 0.290411 2.03112);
    }
    plate
    {
        type            calculated;
        value           nonuniform List<scalar> 
168
(
2.4142
2.13629
2.49678
2.21843
2.58468
2.30882
2.59831
2.32376
2.5902
2.31723
2.55737
2.28539
2.51223
2.24073
2.45739
2.18563
2.39617
2.12337
2.32975
2.05503
2.25889
1.98132
2.18382
1.90238
2.10457
1.81822
2.02106
1.72871
1.9332
1.63369
1.84089
1.533
1.74406
1.4265
1.64268
1.31407
1.53678
1.19565
1.42641
1.07122
1.31186
0.940954
1.19304
0.804808
1.06641
0.658822
0.937143
0.508179
0.813072
0.36352
0.694499
0.227424
0.58134
0.113658
0.473785
0.108337
0.37208
0.21024
0.276801
0.326125
0.18945
0.44078
0.115352
0.551468
0.0778131
0.657295
0.10713
0.757834
0.164485
0.852827
0.224543
0.942087
0.28168
1.02547
0.334291
1.10286
0.381732
1.17416
0.423665
1.23931
0.459877
1.29825
0.490218
1.35095
0.514576
1.3974
0.532874
1.43763
0.545069
1.47165
0.551151
1.49953
0.551154
1.52134
0.545157
1.53718
0.533294
1.54717
0.515751
1.55142
0.492779
1.5501
0.464688
1.54336
0.431854
1.5314
0.394716
1.5144
0.35377
1.49259
0.30957
1.46618
0.262721
1.43541
0.213867
1.40056
0.16369
1.36188
0.112905
1.31967
0.0622991
1.27422
0.0138457
1.22585
0.0373597
1.17487
0.0833871
1.12163
0.126908
1.06646
0.167103
1.0097
0.203386
0.951697
0.235252
0.892798
0.262262
0.833336
0.284048
0.773634
0.300313
0.714004
0.310837
0.654736
0.31548
0.596101
0.314192
0.538344
0.30705
0.481718
0.294236
0.426454
0.276314
0.373023
0.253842
0.321764
0.229233
0.274728
0.202837
0.231824
0.187788
0.206044
0.176869
0.115851
0.106172
0.111153
0.125904
0.190261
)
;
    }
    frontAndBackPlanes
    {
        type            empty;
    }
}


// ************************************************************************* //
