/*--------------------------------*- C++ -*----------------------------------*\
| =========                 |                                                 |
| \\      /  F ield         | OpenFOAM Extend Project: Open source CFD        |
|  \\    /   O peration     | Version:  1.6-ext                               |
|   \\  /    A nd           | Web:      www.extend-project.de                 |
|    \\/     M anipulation  |                                                 |
\*---------------------------------------------------------------------------*/
FoamFile
{
    version     2.0;
    format      ascii;
    class       volVectorField;
    location    "0.6";
    object      Usolid;
}
// * * * * * * * * * * * * * * * * * * * * * * * * * * * * * * * * * * * * * //

dimensions      [0 1 0 0 0 0 0];

internalField   nonuniform List<vector> 
328
(
(8.71781e-08 1.01318e-07 0)
(2.56956e-08 -8.11641e-09 0)
(-6.22772e-09 -7.33755e-09 0)
(-6.88075e-08 1.05033e-07 0)
(2.68285e-07 2.75536e-07 0)
(8.54661e-08 2.12297e-08 0)
(-2.58258e-08 2.34573e-08 0)
(-2.11465e-07 2.85008e-07 0)
(4.74778e-07 4.43835e-07 0)
(1.63348e-07 1.00424e-07 0)
(-6.12944e-08 1.03992e-07 0)
(-3.76877e-07 4.57663e-07 0)
(6.97695e-07 6.23568e-07 0)
(2.50684e-07 2.31203e-07 0)
(-1.03459e-07 2.35926e-07 0)
(-5.55593e-07 6.40731e-07 0)
(9.37779e-07 8.31852e-07 0)
(3.47677e-07 4.16074e-07 0)
(-1.52388e-07 4.21736e-07 0)
(-7.48274e-07 8.51503e-07 0)
(1.1928e-06 1.08358e-06 0)
(4.51709e-07 6.60511e-07 0)
(-2.05104e-07 6.66873e-07 0)
(-9.52434e-07 1.10494e-06 0)
(1.46241e-06 1.39263e-06 0)
(5.62381e-07 9.71691e-07 0)
(-2.60904e-07 9.78508e-07 0)
(-1.1675e-06 1.41498e-06 0)
(1.74602e-06 1.77223e-06 0)
(6.78995e-07 1.35884e-06 0)
(-3.18713e-07 1.36587e-06 0)
(-1.39256e-06 1.79493e-06 0)
(2.04341e-06 2.23576e-06 0)
(8.0146e-07 1.8329e-06 0)
(-3.78046e-07 1.83993e-06 0)
(-1.62708e-06 2.25823e-06 0)
(2.35435e-06 2.79728e-06 0)
(9.29705e-07 2.40661e-06 0)
(-4.38403e-07 2.41341e-06 0)
(-1.87042e-06 2.81897e-06 0)
(2.6786e-06 3.4719e-06 0)
(1.06381e-06 3.0944e-06 0)
(-4.99399e-07 3.1008e-06 0)
(-2.12191e-06 3.49231e-06 0)
(3.01583e-06 4.27614e-06 0)
(1.20385e-06 3.9125e-06 0)
(-5.606e-07 3.91833e-06 0)
(-2.38072e-06 4.29479e-06 0)
(3.36556e-06 5.22816e-06 0)
(1.34989e-06 4.87899e-06 0)
(-6.21523e-07 4.88408e-06 0)
(-2.64581e-06 5.24459e-06 0)
(3.7271e-06 6.34792e-06 0)
(1.50198e-06 6.0138e-06 0)
(-6.81582e-07 6.01799e-06 0)
(-2.91587e-06 6.36164e-06 0)
(4.09955e-06 7.65726e-06 0)
(1.66007e-06 7.3388e-06 0)
(-7.40064e-07 7.34194e-06 0)
(-3.18931e-06 7.66777e-06 0)
(4.48172e-06 9.17995e-06 0)
(1.82408e-06 8.87781e-06 0)
(-7.96103e-07 8.87973e-06 0)
(-3.46414e-06 9.18674e-06 0)
(4.87212e-06 1.09417e-05 0)
(1.99382e-06 1.06565e-05 0)
(-8.48658e-07 1.0657e-05 0)
(-3.73799e-06 1.09442e-05 0)
(5.26888e-06 1.29699e-05 0)
(2.16905e-06 1.27025e-05 0)
(-8.96487e-07 1.27014e-05 0)
(-4.00801e-06 1.29675e-05 0)
(5.66978e-06 1.52938e-05 0)
(2.3494e-06 1.50448e-05 0)
(-9.38123e-07 1.50418e-05 0)
(-4.27083e-06 1.52859e-05 0)
(6.07216e-06 1.79437e-05 0)
(2.53443e-06 1.77137e-05 0)
(-9.71848e-07 1.77088e-05 0)
(-4.52252e-06 1.79295e-05 0)
(6.47285e-06 2.09509e-05 0)
(2.72359e-06 2.07407e-05 0)
(-9.95671e-07 2.07334e-05 0)
(-4.75847e-06 2.09297e-05 0)
(6.86831e-06 2.43467e-05 0)
(2.91624e-06 2.41569e-05 0)
(-1.0073e-06 2.4147e-05 0)
(-4.97345e-06 2.43177e-05 0)
(7.26886e-06 2.83074e-05 0)
(3.11902e-06 2.81392e-05 0)
(-1.00399e-06 2.81264e-05 0)
(-5.16847e-06 2.82694e-05 0)
(7.6512e-06 3.2737e-05 0)
(3.32246e-06 3.2591e-05 0)
(-9.80968e-07 3.25748e-05 0)
(-5.32491e-06 3.26889e-05 0)
(7.98885e-06 3.73243e-05 0)
(3.51302e-06 3.71994e-05 0)
(-9.38935e-07 3.71799e-05 0)
(-5.43044e-06 3.7266e-05 0)
(8.28362e-06 4.2038e-05 0)
(3.69136e-06 4.19332e-05 0)
(-8.78424e-07 4.19101e-05 0)
(-5.48679e-06 4.19691e-05 0)
(8.53733e-06 4.68477e-05 0)
(3.85816e-06 4.6762e-05 0)
(-7.99913e-07 4.67354e-05 0)
(-5.49555e-06 4.67681e-05 0)
(8.75175e-06 5.17244e-05 0)
(4.01405e-06 5.16568e-05 0)
(-7.03929e-07 5.16266e-05 0)
(-5.45842e-06 5.16339e-05 0)
(8.9287e-06 5.664e-05 0)
(4.15968e-06 5.65896e-05 0)
(-5.91002e-07 5.65557e-05 0)
(-5.37711e-06 5.65385e-05 0)
(9.07e-06 6.15677e-05 0)
(4.29567e-06 6.15336e-05 0)
(-4.61698e-07 6.1496e-05 0)
(-5.25337e-06 6.14552e-05 0)
(9.17746e-06 6.64821e-05 0)
(4.42264e-06 6.64632e-05 0)
(-3.16599e-07 6.64219e-05 0)
(-5.08901e-06 6.63584e-05 0)
(9.25294e-06 7.13587e-05 0)
(4.54121e-06 7.1354e-05 0)
(-1.56316e-07 7.13091e-05 0)
(-4.88584e-06 7.12239e-05 0)
(9.29827e-06 7.61743e-05 0)
(4.652e-06 7.6183e-05 0)
(1.85195e-08 7.61343e-05 0)
(-4.64576e-06 7.60285e-05 0)
(9.31532e-06 8.09071e-05 0)
(4.75561e-06 8.09282e-05 0)
(2.07253e-07 8.08759e-05 0)
(-4.37067e-06 8.07504e-05 0)
(9.30599e-06 8.55365e-05 0)
(4.85263e-06 8.5569e-05 0)
(4.09207e-07 8.5513e-05 0)
(-4.06255e-06 8.5369e-05 0)
(9.27217e-06 9.00432e-05 0)
(4.94369e-06 9.0086e-05 0)
(6.23686e-07 9.00265e-05 0)
(-3.72338e-06 8.98649e-05 0)
(9.21579e-06 9.44091e-05 0)
(5.02939e-06 9.44613e-05 0)
(8.49975e-07 9.43983e-05 0)
(-3.35521e-06 9.42202e-05 0)
(9.1388e-06 9.86176e-05 0)
(5.11033e-06 9.86781e-05 0)
(1.08734e-06 9.86116e-05 0)
(-2.96011e-06 9.84182e-05 0)
(9.04318e-06 0.000102653 0)
(5.18714e-06 0.000102721 0)
(1.33505e-06 0.000102651 0)
(-2.54017e-06 0.000102444 0)
(8.93094e-06 0.000106502 0)
(5.26043e-06 0.000106577 0)
(1.59235e-06 0.000106503 0)
(-2.09752e-06 0.000106283 0)
(8.8041e-06 0.000110152 0)
(5.33084e-06 0.000110232 0)
(1.85847e-06 0.000110155 0)
(-1.63432e-06 0.000109922 0)
(8.66472e-06 0.000113592 0)
(5.39901e-06 0.000113676 0)
(2.13266e-06 0.000113596 0)
(-1.15273e-06 0.000113352 0)
(8.51488e-06 0.000116812 0)
(5.4656e-06 0.000116899 0)
(2.41415e-06 0.000116815 0)
(-6.54921e-07 0.000116562 0)
(8.35665e-06 0.000119804 0)
(5.53126e-06 0.000119892 0)
(2.70218e-06 0.000119805 0)
(-1.43075e-07 0.000119543 0)
(8.19215e-06 0.00012256 0)
(5.59666e-06 0.00012265 0)
(2.996e-06 0.00012256 0)
(3.80629e-07 0.00012229 0)
(8.02346e-06 0.000125077 0)
(5.66246e-06 0.000125166 0)
(3.29486e-06 0.000125072 0)
(9.14025e-07 0.000124796 0)
(7.85267e-06 0.000127349 0)
(5.72933e-06 0.000127437 0)
(3.598e-06 0.00012734 0)
(1.45496e-06 0.000127058 0)
(7.68184e-06 0.000129376 0)
(5.79791e-06 0.000129461 0)
(3.90469e-06 0.00012936 0)
(2.00132e-06 0.000129074 0)
(7.51297e-06 0.000131154 0)
(5.86883e-06 0.000131236 0)
(4.21421e-06 0.000131132 0)
(2.55099e-06 0.000130842 0)
(7.34802e-06 0.000132686 0)
(5.94272e-06 0.000132763 0)
(4.52582e-06 0.000132655 0)
(3.10194e-06 0.000132363 0)
(7.18886e-06 0.000133973 0)
(6.02012e-06 0.000134044 0)
(4.83882e-06 0.000133932 0)
(3.65214e-06 0.000133639 0)
(7.03727e-06 0.000135017 0)
(6.10158e-06 0.000135081 0)
(5.15249e-06 0.000134966 0)
(4.19964e-06 0.000134672 0)
(6.89489e-06 0.000135824 0)
(6.18755e-06 0.00013588 0)
(5.46611e-06 0.000135762 0)
(4.74256e-06 0.000135468 0)
(6.76325e-06 0.000136399 0)
(6.27843e-06 0.000136447 0)
(5.77899e-06 0.000136325 0)
(5.27906e-06 0.000136032 0)
(6.6437e-06 0.000136748 0)
(6.37454e-06 0.000136787 0)
(6.0904e-06 0.000136661 0)
(5.8074e-06 0.00013637 0)
(6.53743e-06 0.000136879 0)
(6.47612e-06 0.000136908 0)
(6.39965e-06 0.000136779 0)
(6.32592e-06 0.000136491 0)
(6.44543e-06 0.000136801 0)
(6.58328e-06 0.00013682 0)
(6.706e-06 0.000136688 0)
(6.83303e-06 0.000136404 0)
(6.36847e-06 0.000136524 0)
(6.69608e-06 0.000136532 0)
(7.00874e-06 0.000136397 0)
(7.32725e-06 0.000136117 0)
(6.30713e-06 0.000136057 0)
(6.81442e-06 0.000136055 0)
(7.30715e-06 0.000135917 0)
(7.80722e-06 0.000135642 0)
(6.26173e-06 0.000135411 0)
(6.93812e-06 0.000135398 0)
(7.6005e-06 0.000135258 0)
(8.27167e-06 0.000134989 0)
(6.23239e-06 0.000134598 0)
(7.06687e-06 0.000134575 0)
(7.88807e-06 0.000134432 0)
(8.71943e-06 0.00013417 0)
(6.21899e-06 0.000133629 0)
(7.20024e-06 0.000133596 0)
(8.16914e-06 0.000133452 0)
(9.14947e-06 0.000133196 0)
(6.22116e-06 0.000132517 0)
(7.33771e-06 0.000132473 0)
(8.44298e-06 0.000132329 0)
(9.56089e-06 0.000132081 0)
(6.23832e-06 0.000131272 0)
(7.47863e-06 0.00013122 0)
(8.70888e-06 0.000131075 0)
(9.95289e-06 0.000130835 0)
(6.26968e-06 0.000129909 0)
(7.62226e-06 0.000129848 0)
(8.96614e-06 0.000129703 0)
(1.03248e-05 0.000129472 0)
(6.31424e-06 0.000128437 0)
(7.76776e-06 0.000128368 0)
(9.21408e-06 0.000128224 0)
(1.06761e-05 0.000128003 0)
(6.37079e-06 0.00012687 0)
(7.91421e-06 0.000126794 0)
(9.45204e-06 0.000126651 0)
(1.10064e-05 0.00012644 0)
(6.43798e-06 0.000125217 0)
(8.06062e-06 0.000125136 0)
(9.67937e-06 0.000124996 0)
(1.13154e-05 0.000124795 0)
(6.51427e-06 0.000123492 0)
(8.20592e-06 0.000123406 0)
(9.89546e-06 0.000123269 0)
(1.16029e-05 0.000123078 0)
(6.59801e-06 0.000121702 0)
(8.349e-06 0.000121613 0)
(1.00997e-05 0.00012148 0)
(1.18689e-05 0.000121301 0)
(6.68742e-06 0.000119859 0)
(8.48871e-06 0.000119768 0)
(1.02916e-05 0.00011964 0)
(1.21135e-05 0.000119472 0)
(6.78063e-06 0.000117972 0)
(8.62385e-06 0.00011788 0)
(1.04706e-05 0.000117757 0)
(1.23367e-05 0.000117601 0)
(6.8757e-06 0.000116048 0)
(8.7532e-06 0.000115957 0)
(1.06363e-05 0.00011584 0)
(1.25389e-05 0.000115696 0)
(6.97063e-06 0.000114096 0)
(8.87555e-06 0.000114007 0)
(1.0788e-05 0.000113897 0)
(1.27204e-05 0.000113765 0)
(7.06342e-06 0.000112121 0)
(8.98964e-06 0.000112035 0)
(1.09255e-05 0.000111934 0)
(1.28815e-05 0.000111814 0)
(7.15207e-06 0.00011013 0)
(9.09419e-06 0.000110049 0)
(1.10481e-05 0.000109956 0)
(1.30227e-05 0.000109849 0)
(7.23459e-06 0.000108127 0)
(9.18778e-06 0.000108052 0)
(1.11553e-05 0.00010797 0)
(1.31443e-05 0.000107875 0)
(7.30923e-06 0.000106116 0)
(9.26896e-06 0.000106049 0)
(1.12463e-05 0.000105978 0)
(1.32471e-05 0.000105897 0)
(7.37415e-06 0.000104099 0)
(9.33545e-06 0.000104041 0)
(1.13197e-05 0.000103984 0)
(1.33313e-05 0.000103917 0)
(7.42883e-06 0.000102079 0)
(9.38566e-06 0.000102032 0)
(1.13744e-05 0.000101991 0)
(1.33984e-05 0.000101938 0)
(7.471e-06 0.000100064 0)
(9.41502e-06 0.000100025 0)
(1.14064e-05 9.99964e-05 0)
(1.34481e-05 9.99539e-05 0)
(7.5083e-06 9.80784e-05 0)
(9.43435e-06 9.80306e-05 0)
(1.1427e-05 9.79926e-05 0)
(1.34894e-05 9.79415e-05 0)
)
;

boundaryField
{
    plateFix
    {
        type            fixedDisplacement;
        value           uniform (0 0 0);
    }
    plate
    {
        type            solidTraction;
        nonLinear       updatedLagrangian;
        traction        uniform (0 0 0);
        pressure        uniform 0;
        value           nonuniform List<vector> 
168
(
(5.49652e-07 3.57681e-07 -1.12509e-25)
(-5.49631e-07 3.70108e-07 -1.24742e-25)
(6.66922e-07 5.41239e-07 1.792e-25)
(-6.23575e-07 5.59606e-07 -3.56211e-26)
(8.51725e-07 7.19636e-07 4.59811e-26)
(-7.63791e-07 7.42583e-07 1.23674e-25)
(1.08881e-06 9.0093e-07 -3.67479e-26)
(-9.54562e-07 9.27358e-07 2.66644e-26)
(1.36955e-06 1.1083e-06 -6.76093e-26)
(-1.18667e-06 1.13735e-06 -7.95648e-26)
(1.68313e-06 1.3563e-06 4.69823e-26)
(-1.44877e-06 1.38711e-06 2.51594e-26)
(2.02356e-06 1.66021e-06 -9.02699e-26)
(-1.73448e-06 1.69199e-06 2.34966e-26)
(2.38643e-06 2.03357e-06 2.86176e-26)
(-2.03897e-06 2.06557e-06 -6.98821e-26)
(2.76927e-06 2.49016e-06 -5.88773e-26)
(-2.35933e-06 2.52167e-06 1.07081e-25)
(3.17046e-06 3.04415e-06 9.26367e-26)
(-2.69349e-06 3.0745e-06 -8.64552e-26)
(3.58898e-06 3.71074e-06 -5.3356e-26)
(-3.03992e-06 3.73929e-06 1.26675e-26)
(4.02395e-06 4.50649e-06 6.89312e-26)
(-3.3972e-06 4.53262e-06 2.39348e-26)
(4.4745e-06 5.44955e-06 -4.88444e-26)
(-3.76387e-06 5.47265e-06 1.6699e-26)
(4.93954e-06 6.55987e-06 -4.1949e-27)
(-4.13821e-06 6.57931e-06 -3.78599e-26)
(5.41771e-06 7.85929e-06 7.89529e-27)
(-4.51814e-06 7.87441e-06 5.62979e-27)
(5.90728e-06 9.37156e-06 7.84229e-27)
(-4.90114e-06 9.38167e-06 -1.09746e-26)
(6.40611e-06 1.11224e-05 3.41292e-26)
(-5.28418e-06 1.11267e-05 1.86939e-26)
(6.91155e-06 1.31392e-05 -1.88246e-26)
(-5.6636e-06 1.3137e-05 -6.0403e-26)
(7.42041e-06 1.54512e-05 -1.64542e-26)
(-6.0351e-06 1.54415e-05 3.97734e-26)
(7.92895e-06 1.80887e-05 1.43664e-26)
(-6.39361e-06 1.80706e-05 7.41498e-27)
(8.43269e-06 2.1083e-05 -6.27287e-27)
(-6.73324e-06 2.10555e-05 2.70799e-26)
(8.92657e-06 2.44655e-05 1.76163e-26)
(-7.04718e-06 2.44276e-05 -2.33137e-27)
(9.42216e-06 2.8412e-05 -1.39534e-26)
(-7.33787e-06 2.83621e-05 -1.53199e-26)
(9.8909e-06 3.28271e-05 2.56865e-26)
(-7.58135e-06 3.27638e-05 3.31105e-26)
(1.02991e-05 3.74006e-05 -3.71244e-26)
(-7.75799e-06 3.73235e-05 -4.59747e-26)
(1.06491e-05 4.21011e-05 2.8995e-26)
(-7.87003e-06 4.20099e-05 1.66544e-26)
(1.09433e-05 4.68981e-05 2.53249e-26)
(-7.91962e-06 4.67926e-05 -4.30514e-26)
(1.11839e-05 5.17628e-05 -3.58879e-26)
(-7.90908e-06 5.16427e-05 7.49409e-26)
(1.13734e-05 5.66669e-05 2.19185e-27)
(-7.84067e-06 5.65322e-05 -5.79525e-26)
(1.15143e-05 6.15839e-05 -2.71025e-27)
(-7.71677e-06 6.14343e-05 -8.74818e-27)
(1.16089e-05 6.6488e-05 -9.00428e-27)
(-7.53976e-06 6.63237e-05 3.86022e-26)
(1.16596e-05 7.1355e-05 4.68087e-27)
(-7.31209e-06 7.11759e-05 6.36363e-27)
(1.1669e-05 7.61617e-05 -2.08806e-28)
(-7.03627e-06 7.59678e-05 -1.74088e-26)
(1.16395e-05 8.08862e-05 3.91553e-27)
(-6.71484e-06 8.06777e-05 -2.89814e-26)
(1.15737e-05 8.55078e-05 -1.5924e-26)
(-6.35041e-06 8.52849e-05 4.64146e-26)
(1.14741e-05 9.00074e-05 2.11682e-26)
(-5.94563e-06 8.97702e-05 -2.59582e-26)
(1.13432e-05 9.43668e-05 7.07897e-27)
(-5.5032e-06 9.41155e-05 5.87292e-27)
(1.11838e-05 9.85695e-05 -5.17792e-26)
(-5.02586e-06 9.83042e-05 1.49643e-26)
(1.09985e-05 0.0001026 2.86025e-26)
(-4.51639e-06 0.000102321 -2.16938e-26)
(1.07899e-05 0.000106445 -7.34276e-27)
(-3.97761e-06 0.000106152 1.62922e-26)
(1.05609e-05 0.000110091 -1.26687e-26)
(-3.41238e-06 0.000109785 -1.75873e-26)
(1.03141e-05 0.000113528 3.54112e-26)
(-2.82356e-06 0.000113208 -1.71783e-26)
(1.00524e-05 0.000116745 -7.45093e-27)
(-2.21405e-06 0.000116412 -1.9372e-26)
(9.77867e-06 0.000119735 -8.926e-27)
(-1.58674e-06 0.000119388 -5.41276e-26)
(9.49561e-06 0.000122491 -1.64888e-26)
(-9.44529e-07 0.000122131 9.22306e-27)
(9.20612e-06 0.000125007 7.5733e-27)
(-2.90304e-07 0.000124633 2.75666e-26)
(8.91301e-06 0.00012728 -6.41953e-26)
(3.73068e-07 0.000126892 -1.35943e-26)
(8.61906e-06 0.000129307 -4.52568e-28)
(1.04275e-06 0.000128906 4.31106e-26)
(8.32699e-06 0.000131088 7.32122e-28)
(1.71596e-06 0.000130672 2.29849e-26)
(8.03947e-06 0.000132622 -9.33497e-27)
(2.38995e-06 0.000132192 -1.69232e-26)
(7.75903e-06 0.000133912 2.72162e-26)
(3.06204e-06 0.000133467 -2.55604e-27)
(7.48812e-06 0.000134961 4.03601e-26)
(3.72966e-06 0.000134501 2.22601e-26)
(7.229e-06 0.000135772 1.7818e-26)
(4.39028e-06 0.000135297 1.33428e-27)
(6.98377e-06 0.000136351 -3.12131e-26)
(5.04151e-06 0.000135862 -1.09407e-25)
(6.75434e-06 0.000136706 -4.32133e-26)
(5.68107e-06 0.000136202 3.50268e-26)
(6.54239e-06 0.000136843 -1.01686e-26)
(6.30678e-06 0.000136325 -1.54462e-26)
(6.34934e-06 0.000136771 1.34745e-26)
(6.91664e-06 0.00013624 -1.69447e-26)
(6.17638e-06 0.0001365 7.66741e-26)
(7.50875e-06 0.000135957 2.52371e-26)
(6.02439e-06 0.000136039 4.8388e-26)
(8.08141e-06 0.000135485 5.94438e-27)
(5.894e-06 0.0001354 2.44904e-26)
(8.63306e-06 0.000134836 4.72128e-26)
(5.7855e-06 0.000134593 1.38596e-26)
(9.16233e-06 0.000134021 -9.67267e-26)
(5.69893e-06 0.000133631 2.59332e-26)
(9.66801e-06 0.000133053 9.50008e-26)
(5.634e-06 0.000132525 -4.62017e-27)
(1.01491e-05 0.000131942 -1.03845e-26)
(5.59016e-06 0.000131286 2.61213e-26)
(1.06048e-05 0.000130702 -4.36427e-26)
(5.56656e-06 0.000129928 1.1157e-25)
(1.10344e-05 0.000129345 5.07705e-26)
(5.56211e-06 0.000128462 1.31783e-25)
(1.14375e-05 0.000127882 -1.13598e-25)
(5.57544e-06 0.000126899 -3.86367e-26)
(1.18138e-05 0.000126325 9.89767e-26)
(5.60498e-06 0.00012525 3.29651e-26)
(1.21633e-05 0.000124686 7.95525e-26)
(5.64895e-06 0.000123528 6.91516e-26)
(1.24859e-05 0.000122976 3.7316e-26)
(5.70538e-06 0.000121741 -1.01821e-25)
(1.2782e-05 0.000121205 1.04206e-25)
(5.77217e-06 0.0001199 7.02358e-26)
(1.3052e-05 0.000119383 6.65482e-26)
(5.84706e-06 0.000118014 7.80821e-26)
(1.32963e-05 0.000117518 1.11565e-26)
(5.92772e-06 0.000116091 -1.33653e-25)
(1.35155e-05 0.00011562 1.46094e-25)
(6.01172e-06 0.000114138 -1.43523e-25)
(1.37105e-05 0.000113696 4.29447e-26)
(6.0966e-06 0.000112163 -2.05214e-25)
(1.3882e-05 0.000111752 -4.12382e-26)
(6.17991e-06 0.00011017 1.52546e-25)
(1.40309e-05 0.000109793 6.32713e-26)
(6.25916e-06 0.000108164 1.30959e-25)
(1.4158e-05 0.000107826 -1.1326e-25)
(6.33217e-06 0.000106149 -1.32631e-25)
(1.42643e-05 0.000105854 2.89622e-26)
(6.39688e-06 0.000104129 2.94001e-26)
(1.4351e-05 0.000103881 3.51041e-26)
(6.45425e-06 0.000102104 1.2887e-25)
(1.44217e-05 0.000101909 -2.03093e-25)
(6.5084e-06 0.000100085 6.84321e-26)
(1.44835e-05 9.993e-05 4.4044e-26)
(6.58144e-06 9.80959e-05 3.59989e-26)
(7.52098e-06 9.71352e-05 1.79947e-25)
(9.44293e-06 9.70469e-05 -1.2032e-25)
(1.14362e-05 9.69804e-05 2.01262e-25)
(1.35036e-05 9.6885e-05 -3.00397e-25)
(1.45611e-05 9.79227e-05 -1.49341e-26)
)
;
    }
    frontAndBackPlanes
    {
        type            empty;
    }
}


// ************************************************************************* //
