/*--------------------------------*- C++ -*----------------------------------*\
| =========                 |                                                 |
| \\      /  F ield         | OpenFOAM Extend Project: Open source CFD        |
|  \\    /   O peration     | Version:  1.6-ext                               |
|   \\  /    A nd           | Web:      www.extend-project.de                 |
|    \\/     M anipulation  |                                                 |
\*---------------------------------------------------------------------------*/
FoamFile
{
    version     2.0;
    format      ascii;
    class       volScalarField::DimensionedInternalField;
    location    "0.6";
    object      V0;
}
// * * * * * * * * * * * * * * * * * * * * * * * * * * * * * * * * * * * * * //

dimensions      [0 3 0 0 0 0 0];

value           nonuniform List<scalar> 
328
(
2.53356e-07
2.53353e-07
2.53333e-07
2.53332e-07
2.71722e-07
2.71719e-07
2.71704e-07
2.71704e-07
2.91427e-07
2.91418e-07
2.91406e-07
2.91399e-07
3.12559e-07
3.12546e-07
3.12536e-07
3.12524e-07
3.35222e-07
3.35206e-07
3.35197e-07
3.35182e-07
3.59528e-07
3.5951e-07
3.59501e-07
3.59483e-07
3.85596e-07
3.85576e-07
3.85566e-07
3.85547e-07
4.13553e-07
4.13531e-07
4.13522e-07
4.13501e-07
4.43537e-07
4.43514e-07
4.43504e-07
4.43482e-07
4.75694e-07
4.75671e-07
4.75661e-07
4.75637e-07
5.10183e-07
5.10159e-07
5.10148e-07
5.10124e-07
5.47173e-07
5.47147e-07
5.47137e-07
5.47112e-07
5.86844e-07
5.86818e-07
5.86807e-07
5.86781e-07
6.29391e-07
6.29365e-07
6.29353e-07
6.29327e-07
6.75023e-07
6.74996e-07
6.74985e-07
6.74957e-07
7.23963e-07
7.23936e-07
7.23924e-07
7.23897e-07
7.76452e-07
7.76424e-07
7.76412e-07
7.76385e-07
8.32746e-07
8.32718e-07
8.32706e-07
8.32679e-07
8.9312e-07
8.93093e-07
8.93082e-07
8.93055e-07
9.57873e-07
9.57846e-07
9.57835e-07
9.57808e-07
1.02732e-06
1.02729e-06
1.02728e-06
1.02726e-06
1.1018e-06
1.10178e-06
1.10177e-06
1.10174e-06
1.26875e-06
1.26872e-06
1.26871e-06
1.26869e-06
1.26874e-06
1.26872e-06
1.26871e-06
1.26869e-06
1.26874e-06
1.26872e-06
1.26871e-06
1.2687e-06
1.26873e-06
1.26872e-06
1.26871e-06
1.2687e-06
1.26873e-06
1.26872e-06
1.26872e-06
1.26871e-06
1.26872e-06
1.26872e-06
1.26872e-06
1.26871e-06
1.26872e-06
1.26872e-06
1.26872e-06
1.26872e-06
1.26871e-06
1.26872e-06
1.26872e-06
1.26872e-06
1.26871e-06
1.26872e-06
1.26872e-06
1.26872e-06
1.26871e-06
1.26871e-06
1.26872e-06
1.26873e-06
1.2687e-06
1.26871e-06
1.26872e-06
1.26873e-06
1.2687e-06
1.26871e-06
1.26872e-06
1.26873e-06
1.2687e-06
1.26871e-06
1.26872e-06
1.26874e-06
1.26869e-06
1.26871e-06
1.26872e-06
1.26874e-06
1.26869e-06
1.26871e-06
1.26872e-06
1.26874e-06
1.26869e-06
1.26871e-06
1.26872e-06
1.26874e-06
1.26869e-06
1.26871e-06
1.26872e-06
1.26874e-06
1.26868e-06
1.26871e-06
1.26872e-06
1.26875e-06
1.26868e-06
1.26871e-06
1.26872e-06
1.26875e-06
1.26868e-06
1.26871e-06
1.26872e-06
1.26875e-06
1.26868e-06
1.26871e-06
1.26872e-06
1.26875e-06
1.26868e-06
1.26871e-06
1.26872e-06
1.26875e-06
1.26868e-06
1.26871e-06
1.26872e-06
1.26875e-06
1.26868e-06
1.26871e-06
1.26872e-06
1.26875e-06
1.26868e-06
1.26871e-06
1.26872e-06
1.26875e-06
1.26868e-06
1.26871e-06
1.26872e-06
1.26875e-06
1.26868e-06
1.26871e-06
1.26872e-06
1.26875e-06
1.26868e-06
1.26871e-06
1.26872e-06
1.26875e-06
1.26868e-06
1.26871e-06
1.26872e-06
1.26875e-06
1.26868e-06
1.26871e-06
1.26872e-06
1.26875e-06
1.26868e-06
1.26871e-06
1.26872e-06
1.26875e-06
1.26868e-06
1.26871e-06
1.26872e-06
1.26875e-06
1.26868e-06
1.26871e-06
1.26872e-06
1.26875e-06
1.26868e-06
1.26871e-06
1.26872e-06
1.26874e-06
1.26868e-06
1.26871e-06
1.26872e-06
1.26874e-06
1.26868e-06
1.26871e-06
1.26872e-06
1.26874e-06
1.26868e-06
1.2687e-06
1.26871e-06
1.26874e-06
1.26868e-06
1.2687e-06
1.26871e-06
1.26874e-06
1.26868e-06
1.2687e-06
1.26871e-06
1.26873e-06
1.26869e-06
1.2687e-06
1.26871e-06
1.26873e-06
1.26869e-06
1.2687e-06
1.26871e-06
1.26873e-06
1.26869e-06
1.2687e-06
1.26871e-06
1.26872e-06
1.26869e-06
1.2687e-06
1.26871e-06
1.26872e-06
1.26869e-06
1.2687e-06
1.26871e-06
1.26872e-06
1.26869e-06
1.2687e-06
1.26871e-06
1.26872e-06
1.26869e-06
1.2687e-06
1.26871e-06
1.26871e-06
1.26869e-06
1.2687e-06
1.2687e-06
1.26871e-06
1.26869e-06
1.2687e-06
1.2687e-06
1.26871e-06
1.26869e-06
1.2687e-06
1.2687e-06
1.26871e-06
1.26869e-06
1.2687e-06
1.2687e-06
1.26871e-06
1.26869e-06
1.2687e-06
1.2687e-06
1.2687e-06
1.26869e-06
1.2687e-06
1.2687e-06
1.2687e-06
1.26869e-06
1.2687e-06
1.2687e-06
1.2687e-06
1.26869e-06
1.2687e-06
1.2687e-06
1.2687e-06
1.26869e-06
1.2687e-06
1.2687e-06
1.2687e-06
1.26869e-06
1.26869e-06
1.26869e-06
1.2687e-06
1.26869e-06
1.26869e-06
1.26869e-06
1.26869e-06
1.26869e-06
1.26869e-06
1.26869e-06
1.26869e-06
1.26869e-06
1.26869e-06
1.26869e-06
1.26869e-06
1.26869e-06
1.26868e-06
1.26868e-06
1.26869e-06
)
;


// ************************************************************************* //
