/*--------------------------------*- C++ -*----------------------------------*\
| =========                 |                                                 |
| \\      /  F ield         | OpenFOAM Extend Project: Open source CFD        |
|  \\    /   O peration     | Version:  1.6-ext                               |
|   \\  /    A nd           | Web:      www.extend-project.de                 |
|    \\/     M anipulation  |                                                 |
\*---------------------------------------------------------------------------*/
FoamFile
{
    version     2.0;
    format      ascii;
    class       volVectorField;
    location    "0.6";
    object      Vs;
}
// * * * * * * * * * * * * * * * * * * * * * * * * * * * * * * * * * * * * * //

dimensions      [0 1 -1 0 0 0 0];

internalField   nonuniform List<vector> 
328
(
(2.00183e-06 -2.92396e-06 0)
(2.31263e-06 -8.10204e-07 0)
(2.19052e-06 5.44926e-07 0)
(1.44703e-06 3.48956e-06 0)
(6.20337e-06 -7.44482e-06 0)
(6.87586e-06 -2.19809e-06 0)
(6.45072e-06 1.71713e-06 0)
(4.48024e-06 8.91456e-06 0)
(1.0485e-05 -1.06747e-05 0)
(1.11645e-05 -3.33128e-06 0)
(1.03048e-05 2.96512e-06 0)
(7.39013e-06 1.29728e-05 0)
(1.50333e-05 -1.27736e-05 0)
(1.5463e-05 -4.11103e-06 0)
(1.41021e-05 4.2043e-06 0)
(1.04289e-05 1.59536e-05 0)
(1.98408e-05 -1.39589e-05 0)
(1.97627e-05 -4.49743e-06 0)
(1.783e-05 5.41595e-06 0)
(1.3576e-05 1.82035e-05 0)
(2.4965e-05 -1.43883e-05 0)
(2.41884e-05 -4.46278e-06 0)
(2.16315e-05 6.6179e-06 0)
(1.68996e-05 1.99951e-05 0)
(3.04276e-05 -1.41805e-05 0)
(2.87974e-05 -3.99914e-06 0)
(2.55648e-05 7.86368e-06 0)
(2.04152e-05 2.15583e-05 0)
(3.62608e-05 -1.34083e-05 0)
(3.36695e-05 -3.09861e-06 0)
(2.97126e-05 9.22641e-06 0)
(2.41501e-05 2.30766e-05 0)
(4.24922e-05 -1.21106e-05 0)
(3.88648e-05 -1.74976e-06 0)
(3.41327e-05 1.07942e-05 0)
(2.81223e-05 2.47069e-05 0)
(4.91541e-05 -1.02936e-05 0)
(4.44421e-05 7.13326e-08 0)
(3.88812e-05 1.26636e-05 0)
(3.2353e-05 2.65858e-05 0)
(5.62813e-05 -7.93549e-06 0)
(5.04512e-05 2.40455e-06 0)
(4.40033e-05 1.49374e-05 0)
(3.68635e-05 2.88396e-05 0)
(6.3913e-05 -4.9874e-06 0)
(5.69375e-05 5.30951e-06 0)
(4.95393e-05 1.77243e-05 0)
(4.16782e-05 3.15899e-05 0)
(7.20918e-05 -1.37475e-06 0)
(6.39419e-05 8.86724e-06 0)
(5.55242e-05 2.11404e-05 0)
(4.68236e-05 3.49602e-05 0)
(8.08641e-05 3.00249e-06 0)
(7.1503e-05 1.31817e-05 0)
(6.19901e-05 2.53116e-05 0)
(5.23285e-05 3.90805e-05 0)
(9.02792e-05 8.26971e-06 0)
(7.96588e-05 1.83807e-05 0)
(6.89681e-05 3.03775e-05 0)
(5.82233e-05 4.40926e-05 0)
(0.00010039 1.45784e-05 0)
(8.84478e-05 2.46173e-05 0)
(7.64894e-05 3.64955e-05 0)
(6.45399e-05 5.01552e-05 0)
(0.00011125 2.21077e-05 0)
(9.79106e-05 3.20713e-05 0)
(8.45867e-05 4.38454e-05 0)
(7.13111e-05 5.74488e-05 0)
(0.000122919 3.10668e-05 0)
(0.000108091 4.09523e-05 0)
(9.32947e-05 5.26342e-05 0)
(7.85702e-05 6.61812e-05 0)
(0.000135458 4.16986e-05 0)
(0.000119035 5.15037e-05 0)
(0.000102651 6.31022e-05 0)
(8.63504e-05 7.65934e-05 0)
(0.000148931 5.42861e-05 0)
(0.000130793 6.40081e-05 0)
(0.000112694 7.55293e-05 0)
(9.46846e-05 8.8966e-05 0)
(0.000163407 6.91593e-05 0)
(0.000143419 7.87956e-05 0)
(0.000123466 9.02436e-05 0)
(0.000103604 0.000103628 0)
(0.00017896 8.6705e-05 0)
(0.000156971 9.62533e-05 0)
(0.000135009 0.000107631 0)
(0.000113139 0.000120967 0)
(0.000196304 0.000108168 0)
(0.000172061 0.000117623 0)
(0.000147838 0.000128929 0)
(0.000123705 0.000142219 0)
(0.000214896 0.000133557 0)
(0.000188207 0.000142916 0)
(0.00016153 0.000154155 0)
(0.000134938 0.000167404 0)
(0.000233506 0.000161404 0)
(0.000204334 0.000170673 0)
(0.000175166 0.000181851 0)
(0.000146077 0.000195068 0)
(0.000252125 0.000191753 0)
(0.000220431 0.000200941 0)
(0.000188735 0.000212065 0)
(0.000157112 0.000225256 0)
(0.000270738 0.000224649 0)
(0.000236486 0.000233762 0)
(0.000202226 0.00024484 0)
(0.000168032 0.000258012 0)
(0.000289334 0.00026013 0)
(0.000252487 0.000269177 0)
(0.000215629 0.000280216 0)
(0.000178829 0.000293374 0)
(0.000307899 0.000298234 0)
(0.000268424 0.000307222 0)
(0.000228935 0.000318228 0)
(0.000189496 0.000331377 0)
(0.000326421 0.00033899 0)
(0.000284287 0.000347927 0)
(0.000242135 0.000358907 0)
(0.000200027 0.000372052 0)
(0.000344888 0.000382427 0)
(0.000300065 0.000391321 0)
(0.000255221 0.00040228 0)
(0.000210416 0.000415426 0)
(0.000363289 0.000428572 0)
(0.000315748 0.00043743 0)
(0.000268185 0.000448375 0)
(0.000220655 0.000461527 0)
(0.000381613 0.000477452 0)
(0.000331329 0.000486281 0)
(0.000281019 0.000497218 0)
(0.000230739 0.00051038 0)
(0.000399851 0.000529094 0)
(0.000346796 0.000537902 0)
(0.000293715 0.000548836 0)
(0.00024066 0.000562014 0)
(0.000417992 0.000583526 0)
(0.000362142 0.00059232 0)
(0.000306267 0.000603258 0)
(0.000250413 0.000616455 0)
(0.000436024 0.000640775 0)
(0.000377356 0.000649564 0)
(0.000318666 0.000660512 0)
(0.000259991 0.000673732 0)
(0.000453934 0.000700867 0)
(0.000392429 0.000709661 0)
(0.000330906 0.000720626 0)
(0.000269393 0.000733873 0)
(0.000471706 0.000763827 0)
(0.000407349 0.000772636 0)
(0.000342981 0.000783624 0)
(0.000278617 0.0007969 0)
(0.000489322 0.000829671 0)
(0.000422106 0.000838509 0)
(0.000354886 0.000849527 0)
(0.000287662 0.000862835 0)
(0.000506763 0.000898411 0)
(0.000436686 0.000907292 0)
(0.000366615 0.000918348 0)
(0.000296532 0.000931688 0)
(0.000524004 0.000970048 0)
(0.000451076 0.000978988 0)
(0.000378163 0.00099009 0)
(0.00030523 0.00100346 0)
(0.000541023 0.00104458 0)
(0.000465261 0.00105359 0)
(0.000389527 0.00106475 0)
(0.000313762 0.00107815 0)
(0.000557791 0.00112197 0)
(0.000479227 0.00113108 0)
(0.000400703 0.0011423 0)
(0.000322136 0.00115574 0)
(0.000574283 0.0012022 0)
(0.000492959 0.00121142 0)
(0.000411687 0.00122271 0)
(0.000330359 0.00123619 0)
(0.00059047 0.00128522 0)
(0.00050644 0.00129457 0)
(0.000422475 0.00130594 0)
(0.000338441 0.00131945 0)
(0.000606324 0.00137097 0)
(0.000519656 0.00138046 0)
(0.000433065 0.00139193 0)
(0.000346391 0.00140547 0)
(0.000621816 0.00145936 0)
(0.000532591 0.00146903 0)
(0.000443452 0.00148059 0)
(0.000354218 0.00149417 0)
(0.000636921 0.00155033 0)
(0.000545231 0.00156018 0)
(0.000453636 0.00157185 0)
(0.000361931 0.00158546 0)
(0.000651614 0.00164375 0)
(0.000557562 0.00165381 0)
(0.000463612 0.0016656 0)
(0.000369539 0.00167924 0)
(0.000665871 0.00173953 0)
(0.000569571 0.0017498 0)
(0.00047338 0.00176172 0)
(0.000377051 0.0017754 0)
(0.000679673 0.00183754 0)
(0.000581249 0.00184804 0)
(0.000482936 0.00186009 0)
(0.000384474 0.0018738 0)
(0.000693002 0.00193764 0)
(0.000592586 0.00194838 0)
(0.00049228 0.00196057 0)
(0.000391814 0.00197432 0)
(0.000705847 0.00203969 0)
(0.000603574 0.00205068 0)
(0.000501412 0.00206302 0)
(0.000399077 0.00207681 0)
(0.000718196 0.00214355 0)
(0.00061421 0.0021548 0)
(0.000510331 0.00216728 0)
(0.000406269 0.00218111 0)
(0.000730047 0.00224907 0)
(0.000624492 0.00226058 0)
(0.000519037 0.00227321 0)
(0.000413392 0.00228707 0)
(0.000741398 0.00235609 0)
(0.000634419 0.00236787 0)
(0.000527533 0.00238065 0)
(0.00042045 0.00239454 0)
(0.000752253 0.00246447 0)
(0.000643995 0.0024765 0)
(0.000535821 0.00248943 0)
(0.000427446 0.00250337 0)
(0.000762621 0.00257405 0)
(0.000653226 0.00258634 0)
(0.000543906 0.00259941 0)
(0.00043438 0.00261338 0)
(0.000772512 0.0026847 0)
(0.00066212 0.00269723 0)
(0.000551791 0.00271044 0)
(0.000441256 0.00272445 0)
(0.000781943 0.00279627 0)
(0.000670687 0.00280903 0)
(0.000559485 0.00282238 0)
(0.000448075 0.00283641 0)
(0.000790933 0.00290862 0)
(0.000678942 0.00292161 0)
(0.000566993 0.00293508 0)
(0.000454841 0.00294913 0)
(0.000799504 0.00302163 0)
(0.0006869 0.00303482 0)
(0.000574327 0.0030484 0)
(0.000461556 0.00306248 0)
(0.000807682 0.00313517 0)
(0.000694578 0.00314855 0)
(0.000581497 0.00316224 0)
(0.000468224 0.00317633 0)
(0.000815496 0.00324914 0)
(0.000701998 0.00326268 0)
(0.000588515 0.00327646 0)
(0.000474849 0.00329056 0)
(0.000822978 0.00336342 0)
(0.000709183 0.00337711 0)
(0.000595395 0.00339096 0)
(0.000481438 0.00340506 0)
(0.000830162 0.00347792 0)
(0.000716157 0.00349173 0)
(0.000602153 0.00350564 0)
(0.000487995 0.00351973 0)
(0.000837088 0.00359256 0)
(0.000722948 0.00360647 0)
(0.000608806 0.00362042 0)
(0.000494528 0.00363449 0)
(0.000843797 0.00370726 0)
(0.000729587 0.00372124 0)
(0.000615374 0.00373521 0)
(0.000501046 0.00374925 0)
(0.000850333 0.00382197 0)
(0.000736106 0.00383598 0)
(0.000621878 0.00384996 0)
(0.000507558 0.00386396 0)
(0.000856743 0.00393663 0)
(0.000742541 0.00395065 0)
(0.000628342 0.00396461 0)
(0.000514078 0.00397856 0)
(0.000863077 0.00405122 0)
(0.000748929 0.00406522 0)
(0.000634793 0.00407913 0)
(0.000520622 0.00409301 0)
(0.000869386 0.00416571 0)
(0.000755311 0.00417965 0)
(0.000641262 0.00419349 0)
(0.000527211 0.00420728 0)
(0.000875723 0.0042801 0)
(0.000761731 0.00429395 0)
(0.000647784 0.00430769 0)
(0.00053387 0.00432137 0)
(0.000882147 0.00439438 0)
(0.000768239 0.0044081 0)
(0.0006544 0.00442172 0)
(0.000540631 0.00443526 0)
(0.000888716 0.00450857 0)
(0.000774885 0.00452212 0)
(0.000661153 0.00453557 0)
(0.000547533 0.00454895 0)
(0.000895495 0.00462269 0)
(0.000781729 0.00463602 0)
(0.000668097 0.00464927 0)
(0.000554623 0.00466245 0)
(0.000902552 0.00473675 0)
(0.000788833 0.00474983 0)
(0.000675291 0.00476283 0)
(0.000561952 0.00477577 0)
(0.000909964 0.00485079 0)
(0.000796273 0.00486356 0)
(0.000682806 0.00487627 0)
(0.000569589 0.00488892 0)
(0.000917804 0.00496486 0)
(0.000804127 0.00497726 0)
(0.000690717 0.0049896 0)
(0.000577601 0.00500191 0)
(0.000926176 0.00507898 0)
(0.000812504 0.00509095 0)
(0.000699137 0.00510287 0)
(0.000586091 0.00511477 0)
(0.000935129 0.0051932 0)
(0.000821478 0.00520467 0)
(0.000708139 0.00521609 0)
(0.000595118 0.00522753 0)
(0.000944871 0.0053074 0)
(0.000831256 0.0053184 0)
(0.000717928 0.00532935 0)
(0.000604889 0.00534034 0)
)
;

boundaryField
{
    plateFix
    {
        type            calculated;
        value           uniform (0 0 0);
    }
    plate
    {
        type            calculated;
        value           nonuniform List<vector> 
168
(
(-1.0761e-05 -7.44748e-06 -2.89301e-23)
(-1.38051e-05 9.88801e-06 -9.09643e-23)
(-2.88651e-06 -1.20891e-05 4.7176e-23)
(-6.62215e-06 1.55364e-05 4.10595e-23)
(4.64321e-06 -1.55105e-05 -1.97573e-23)
(-3.04169e-07 1.99011e-05 -2.47534e-24)
(1.1662e-05 -1.7678e-05 -1.68553e-23)
(5.09243e-06 2.30037e-05 -6.49484e-23)
(1.82761e-05 -1.89202e-05 -4.4157e-24)
(9.72859e-06 2.53494e-05 6.16523e-23)
(2.47336e-05 -1.93786e-05 -2.82225e-23)
(1.39217e-05 2.71911e-05 -3.68076e-23)
(3.11977e-05 -1.91933e-05 4.6516e-23)
(1.78667e-05 2.87908e-05 8.29968e-23)
(3.78118e-05 -1.8436e-05 -4.5072e-23)
(2.17256e-05 3.03337e-05 -5.25509e-23)
(4.46822e-05 -1.71485e-05 5.1262e-23)
(2.5607e-05 3.19825e-05 3.54111e-23)
(5.18993e-05 -1.53359e-05 -2.58132e-23)
(2.95951e-05 3.38737e-05 -4.15994e-23)
(5.95401e-05 -1.29761e-05 1.42263e-23)
(3.37535e-05 3.61341e-05 1.72869e-23)
(6.76744e-05 -1.00196e-05 -1.86069e-23)
(3.81348e-05 3.8885e-05 -8.59777e-24)
(7.63667e-05 -6.39187e-06 1.39793e-23)
(4.27832e-05 4.22499e-05 5.05754e-24)
(8.56788e-05 -1.99334e-06 -8.8648e-24)
(4.7738e-05 4.63592e-05 -9.87729e-26)
(9.56708e-05 3.30067e-06 1.20093e-24)
(5.30352e-05 5.13556e-05 -2.53986e-23)
(0.000106402 9.64082e-06 -1.44495e-24)
(5.87081e-05 5.73984e-05 2.27363e-23)
(0.000117933 1.72053e-05 3.77194e-25)
(6.47886e-05 6.46693e-05 6.06653e-24)
(0.000130326 2.62027e-05 1.31839e-23)
(7.13071e-05 7.33771e-05 -5.02141e-24)
(0.000143646 3.68755e-05 -1.36274e-23)
(7.82924e-05 8.37636e-05 -1.32384e-23)
(0.000157963 4.95064e-05 5.55237e-25)
(8.57713e-05 9.61108e-05 9.4362e-24)
(0.000173352 6.44251e-05 9.27844e-24)
(9.37682e-05 0.000110749 1.12738e-23)
(0.000189894 8.20186e-05 1.01355e-24)
(0.000102304 0.000128065 -7.11708e-24)
(0.000208355 0.000103533 -9.30049e-24)
(0.000111743 0.000149297 1.71911e-24)
(0.000228163 0.000128976 5.64024e-25)
(0.000121749 0.000174464 1.94181e-24)
(0.000248012 0.000156872 1.01627e-24)
(0.000131641 0.000202115 1.7166e-25)
(0.000267891 0.000187268 3.5558e-25)
(0.000141405 0.000232294 7.99257e-24)
(0.000287785 0.000220206 -4.03802e-24)
(0.000151033 0.000265043 -7.4667e-24)
(0.000307682 0.000255726 3.87182e-24)
(0.000160521 0.000300401 3.15053e-25)
(0.000327564 0.000293862 -1.99285e-24)
(0.000169862 0.000338402 -1.70968e-24)
(0.000347419 0.000334648 -3.47035e-24)
(0.000179054 0.000379076 3.35928e-24)
(0.000367233 0.000378111 -1.63643e-24)
(0.00018809 0.000422453 -3.69233e-24)
(0.000386994 0.000424278 4.42983e-24)
(0.000196963 0.000468558 2.97676e-24)
(0.000406694 0.000473176 -9.39835e-25)
(0.000205669 0.000517418 2.02897e-24)
(0.000426321 0.000524832 1.31614e-24)
(0.000214198 0.000569061 2.79195e-24)
(0.000445866 0.000579275 4.65946e-24)
(0.000222546 0.000623513 -1.24869e-23)
(0.000465317 0.000636529 -1.30638e-25)
(0.000230707 0.000680803 7.50472e-24)
(0.000484658 0.000696622 -4.17749e-24)
(0.000238679 0.000740957 -1.46113e-24)
(0.000503873 0.000759576 -4.02073e-24)
(0.000246463 0.000804 2.18198e-24)
(0.00052294 0.000825407 1.18982e-24)
(0.000254062 0.000869949 -9.52016e-24)
(0.000541835 0.000894126 4.47145e-24)
(0.000261482 0.000938817 -3.88998e-24)
(0.00056053 0.000965734 -2.13074e-24)
(0.000268731 0.00101061 4.6145e-24)
(0.000578995 0.00104022 -5.13615e-24)
(0.000275823 0.00108531 5.18226e-24)
(0.000597197 0.00111757 8.2447e-24)
(0.000282768 0.00116291 -2.70982e-24)
(0.000615102 0.00119774 -2.42669e-25)
(0.000289584 0.00124337 -5.23651e-24)
(0.000632674 0.00128069 -8.36645e-25)
(0.000296284 0.00132664 -3.79477e-24)
(0.000649879 0.00136635 -6.02931e-24)
(0.000302884 0.00141267 2.16218e-24)
(0.000666682 0.00145466 3.93822e-24)
(0.000309402 0.00150137 -2.67923e-24)
(0.000683049 0.00154552 -2.17776e-24)
(0.000315853 0.00159267 -9.29853e-24)
(0.000698949 0.00163883 9.19829e-25)
(0.000322251 0.00168646 2.97572e-24)
(0.000714352 0.00173449 3.43763e-24)
(0.000328612 0.00178262 1.0641e-24)
(0.000729235 0.00183236 1.72327e-24)
(0.000334947 0.00188103 -1.65905e-24)
(0.000743575 0.00193233 -2.89996e-24)
(0.000341267 0.00198155 3.34381e-25)
(0.000757356 0.00203424 4.10115e-25)
(0.000347583 0.00208403 -6.29358e-25)
(0.000770567 0.00213795 6.59005e-25)
(0.000353901 0.00218834 1.04305e-24)
(0.000783202 0.00224333 -2.84831e-25)
(0.000360226 0.00229431 -1.45232e-24)
(0.00079526 0.0023502 6.16063e-25)
(0.000366562 0.00240178 7.64235e-25)
(0.000806745 0.00245844 -4.4477e-26)
(0.000372911 0.0025106 6.58904e-25)
(0.000817668 0.00256788 -2.2727e-25)
(0.000379275 0.00262062 -1.70622e-24)
(0.000828043 0.00267839 2.89398e-25)
(0.000385652 0.00273169 4.55514e-24)
(0.000837888 0.00278983 -2.06826e-24)
(0.000392044 0.00284365 -1.2289e-24)
(0.000847225 0.00290205 -1.7449e-24)
(0.000398449 0.00295637 2.07996e-24)
(0.00085608 0.00301495 1.50366e-24)
(0.000404869 0.00306971 -1.54157e-24)
(0.000864484 0.00312839 2.23895e-24)
(0.000411303 0.00318355 5.04442e-24)
(0.000872469 0.00324226 -3.62219e-24)
(0.000417752 0.00329777 8.18109e-25)
(0.000880072 0.00335646 -7.78946e-25)
(0.000424216 0.00341226 -3.17718e-24)
(0.000887334 0.00347089 -2.75162e-24)
(0.000430698 0.00352692 4.63034e-24)
(0.000894299 0.00358548 -9.44842e-24)
(0.000437198 0.00364166 -3.99558e-24)
(0.000901015 0.00370014 2.42611e-25)
(0.000443719 0.0037564 -1.82733e-24)
(0.000907533 0.00381482 -3.41448e-24)
(0.000450265 0.00387108 1.48735e-23)
(0.000913907 0.00392948 -1.7141e-24)
(0.000456843 0.00398564 4.72774e-24)
(0.000920192 0.00404408 4.67037e-24)
(0.000463463 0.00410005 -3.43442e-24)
(0.000926445 0.00415861 5.07356e-24)
(0.00047014 0.00421428 9.41759e-25)
(0.000932728 0.00427304 -1.61744e-24)
(0.000476895 0.00432831 1.36349e-23)
(0.0009391 0.00438739 -1.25792e-23)
(0.000483755 0.00444213 -1.2902e-23)
(0.000945626 0.00450167 7.52087e-24)
(0.000490756 0.00455574 -3.61803e-24)
(0.000952373 0.0046159 4.08379e-24)
(0.000497941 0.00466914 -2.51026e-25)
(0.000959414 0.0047301 3.43853e-24)
(0.000505362 0.00478233 -1.35507e-25)
(0.000966828 0.0048443 1.97448e-24)
(0.000513085 0.00489534 -7.84397e-24)
(0.000974692 0.00495856 6.06763e-24)
(0.000521173 0.00500816 -4.5239e-26)
(0.000983107 0.00507289 6.36646e-24)
(0.000529728 0.00512082 -2.05303e-24)
(0.000992082 0.00518737 -8.3799e-24)
(0.000538772 0.00523333 8.56081e-24)
(0.00100177 0.00530184 -2.64405e-25)
(0.000950027 0.00536438 -1.91733e-25)
(0.000836425 0.00537524 -4.68914e-25)
(0.000723099 0.00538602 -3.66767e-25)
(0.000610049 0.00539687 -6.06901e-26)
(0.000548477 0.00534589 1.58325e-25)
)
;
    }
    frontAndBackPlanes
    {
        type            empty;
    }
}


// ************************************************************************* //
