/*--------------------------------*- C++ -*----------------------------------*\
| =========                 |                                                 |
| \\      /  F ield         | OpenFOAM Extend Project: Open source CFD        |
|  \\    /   O peration     | Version:  1.6-ext                               |
|   \\  /    A nd           | Web:      www.extend-project.de                 |
|    \\/     M anipulation  |                                                 |
\*---------------------------------------------------------------------------*/
FoamFile
{
    version     2.0;
    format      ascii;
    class       volSymmTensorField;
    location    "0.9";
    object      DSigma;
}
// * * * * * * * * * * * * * * * * * * * * * * * * * * * * * * * * * * * * * //

dimensions      [1 -1 -2 0 0 0 0];

internalField   nonuniform List<symmTensor> 
328
(
(-0.0173826 -0.00342037 -3.15752e-24 -0.00614052 1.81454e-20 -0.00940923)
(-0.0109042 -0.00193191 -5.44246e-27 -0.00592206 -2.64708e-27 -0.00673052)
(-0.00828119 4.52214e-05 5.44328e-27 -0.00480052 2.64747e-27 -0.00523269)
(-0.00490464 0.0009936 1.08479e-24 -0.00162855 -2.50898e-21 -0.00261327)
(-0.0161391 -0.00250861 6.13461e-25 -0.00381075 -1.99287e-20 -0.00797995)
(-0.010903 -0.00197575 -1.68065e-26 -0.00383691 -1.00202e-26 -0.00589598)
(-0.00832286 -0.000328427 1.68083e-26 -0.00354899 1.00212e-26 -0.00474874)
(-0.00457845 0.000550468 -1.08755e-23 -0.000726858 2.47099e-20 -0.00212212)
(-0.0156565 -0.00178089 7.15544e-24 -0.0024439 -2.07556e-20 -0.00724015)
(-0.0115174 -0.00193564 -3.11779e-25 -0.00269541 -3.19486e-25 -0.00568512)
(-0.00877706 -0.000659783 1.21506e-25 -0.0027627 7.68668e-26 -0.0046159)
(-0.00464251 0.000148856 2.0675e-23 -0.000188541 -6.06625e-20 -0.00193242)
(-0.0150523 -0.00127015 -9.02388e-24 -0.00149732 3.70224e-20 -0.00661986)
(-0.0116117 -0.00182729 0 -0.00166395 0 -0.00531028)
(-0.00895707 -0.000943383 2.49452e-25 -0.00200229 -7.85916e-27 -0.00438375)
(-0.00472934 -0.000154565 1.50531e-24 0.000186614 -1.91033e-20 -0.00181709)
(-0.0146183 -0.000937446 9.51094e-25 -0.000937071 -1.03707e-21 -0.00622215)
(-0.0117275 -0.00169914 -6.81941e-25 -0.000998554 -7.25955e-25 -0.00509044)
(-0.0091649 -0.00115966 0 -0.00145068 0 -0.00424623)
(-0.00495716 -0.000363294 -1.28448e-23 0.000395612 5.31538e-20 -0.00182462)
(-0.0142049 -0.000728149 3.87966e-23 -0.000589339 -1.4145e-20 -0.00591771)
(-0.0116839 -0.00158029 -1.16834e-24 -0.000498762 -8.62022e-25 -0.00487307)
(-0.009285 -0.00131667 -1.75654e-23 -0.00100694 -1.00054e-23 -0.00411678)
(-0.00525535 -0.000499888 6.70164e-24 0.0005065 -1.61417e-20 -0.00189954)
(-0.0138341 -0.000604544 -4.27013e-23 -0.000386674 2.81084e-20 -0.00568833)
(-0.0116008 -0.00148478 -2.84035e-23 -0.000174898 -2.49394e-23 -0.00471028)
(-0.00938558 -0.00141786 -4.37119e-24 -0.000686516 -4.3136e-24 -0.00402884)
(-0.00562736 -0.000581386 2.93776e-24 0.000543656 2.86184e-20 -0.00203348)
(-0.0134684 -0.000536551 1.87298e-23 -0.000264815 -4.14952e-20 -0.00549329)
(-0.0114613 -0.0014156 5.85912e-23 3.76881e-05 5.16659e-23 -0.00456943)
(-0.00945612 -0.00147402 1.73773e-23 -0.00045291 1.17253e-23 -0.00396361)
(-0.00605026 -0.000623708 2.00246e-24 0.000534399 -2.76095e-20 -0.00220634)
(-0.0130981 -0.000503873 -7.93991e-24 -0.000189498 1.50345e-20 -0.00531504)
(-0.0112988 -0.00136988 -2.99373e-23 0.000159773 -2.64917e-23 -0.00445561)
(-0.00951852 -0.00149471 -2.58954e-24 -0.000292173 -1.96922e-24 -0.00392428)
(-0.00651469 -0.000638775 1.84935e-24 0.000494071 1.39186e-21 -0.00240825)
(-0.0127083 -0.000491765 -6.47415e-24 -0.00013675 1.06184e-20 -0.00513803)
(-0.0111187 -0.00134154 7.92913e-24 0.000220747 6.97453e-24 -0.0043592)
(-0.00957814 -0.00148993 5.18002e-23 -0.000182848 4.53946e-23 -0.00390439)
(-0.00700961 -0.000636235 4.63478e-24 0.000434822 -2.74745e-21 -0.00262992)
(-0.0122911 -0.000490328 6.27928e-24 -9.30069e-05 -9.02069e-21 -0.00495366)
(-0.0109324 -0.0013238 8.29075e-23 0.00023817 7.78419e-23 -0.00427769)
(-0.00964402 -0.00146781 -4.92744e-23 -0.000110011 -4.28508e-23 -0.00390161)
(-0.00752841 -0.000623119 6.22787e-25 0.000364303 -1.01274e-20 -0.00286564)
(-0.0118405 -0.000492837 -2.52471e-26 -5.00293e-05 3.20638e-23 -0.00475621)
(-0.0107436 -0.0013104 -8.65562e-23 0.000227628 -8.14093e-23 -0.00420638)
(-0.00972009 -0.00143479 7.23646e-23 -6.0089e-05 7.07852e-23 -0.00391207)
(-0.00806618 -0.000604471 5.36641e-23 0.00028775 5.57751e-22 -0.00311137)
(-0.0113537 -0.000495026 -1.43668e-22 -3.457e-06 2.02755e-21 -0.00454287)
(-0.0105554 -0.00129632 7.28019e-23 0.000199658 7.22456e-23 -0.00414228)
(-0.00980909 -0.00139521 -1.20691e-22 -2.32996e-05 -1.21848e-22 -0.00393296)
(-0.00862022 -0.000583514 -4.50888e-23 0.000208296 7.9371e-21 -0.00336477)
(-0.0108302 -0.000494335 7.35632e-23 4.88065e-05 2.94692e-22 -0.00431256)
(-0.0103681 -0.00127793 -6.54648e-23 0.000161961 -6.4261e-23 -0.00408247)
(-0.00991137 -0.00135163 4.91421e-23 7.52384e-06 5.05567e-23 -0.00396154)
(-0.00918904 -0.000562065 -1.16256e-24 0.000127699 1.18216e-21 -0.00362454)
(-0.0102713 -0.000489407 6.18396e-24 0.000107361 -5.65671e-21 -0.00406559)
(-0.0101814 -0.00125283 0 0.000119413 0 -0.00402478)
(-0.010026 -0.00130506 8.4066e-23 3.69203e-05 9.20926e-23 -0.00399564)
(-0.00977179 -0.000540835 3.24327e-23 4.6743e-05 -6.61993e-21 -0.00389002)
(-0.00967998 -0.000479665 1.65572e-22 0.000171915 8.31098e-21 -0.00380323)
(-0.00999389 -0.00121958 4.53856e-23 7.49703e-05 4.91107e-23 -0.00396757)
(-0.0101511 -0.0012554 -8.60895e-23 6.749e-05 -9.17384e-23 -0.00403343)
(-0.0103675 -0.000519788 1.29419e-22 -3.43491e-05 5.45151e-21 -0.00416076)
(-0.00906024 -0.000464978 -2.14478e-22 0.000241635 -5.77121e-21 -0.00352744)
(-0.00980442 -0.00117734 2.11432e-22 3.01844e-05 2.30839e-22 -0.00390969)
(-0.010284 -0.0012018 0 0.000100343 0 -0.00407344)
(-0.0109746 -0.000498409 -1.71349e-22 -0.00011561 3.1581e-21 -0.0044361)
(-0.00841734 -0.00044541 -1.12043e-22 0.000315402 -2.65137e-21 -0.00324078)
(-0.00961198 -0.0011256 -1.97139e-22 -1.42325e-05 -2.15233e-22 -0.00385049)
(-0.0104217 -0.00114298 -8.49305e-23 0.000135629 -9.81061e-23 -0.00411443)
(-0.0115901 -0.000475945 2.52755e-22 -0.000197067 7.6791e-22 -0.00471486)
(-0.00775783 -0.000421054 2.12192e-22 0.000391903 7.86671e-21 -0.00294637)
(-0.00941618 -0.00106391 1.0025e-22 -5.79686e-05 1.12396e-22 -0.00378966)
(-0.010561 -0.00107748 -1.89997e-22 0.000172919 -2.14754e-22 -0.00415525)
(-0.0122091 -0.000451568 1.01536e-22 -0.000278526 7.54819e-21 -0.00499504)
(-0.00708947 -0.000391939 1.08827e-23 0.000469761 -6.32148e-21 -0.00264789)
(-0.00921731 -0.000991729 3.25668e-22 -0.000100818 3.61759e-22 -0.00372725)
(-0.0106986 -0.00100375 -1.97516e-22 0.000211406 -2.19999e-22 -0.00419489)
(-0.0128249 -0.000424458 -6.28597e-23 -0.000359594 -6.47115e-21 -0.0052738)
(-0.00642269 -0.000357988 -2.58832e-22 0.000547309 1.0809e-20 -0.00235015)
(-0.00901664 -0.000908498 -2.07675e-22 -0.000142443 -2.30298e-22 -0.00366363)
(-0.0108302 -0.00092047 1.98847e-22 0.000250283 2.12922e-22 -0.00423198)
(-0.0134271 -0.000393929 -3.93784e-22 -0.000439101 -6.20619e-21 -0.00554647)
(-0.00576754 -0.000318897 2.42783e-22 0.000623287 -5.17312e-21 -0.0020577)
(-0.00881575 -0.000813059 0 -0.000182213 0 -0.00359919)
(-0.0109523 -0.000825864 2.08548e-22 0.000288077 2.11467e-22 -0.00426568)
(-0.0140057 -0.000359069 -2.6495e-22 -0.000516746 1.45003e-20 -0.00580896)
(-0.0051226 -0.000271296 8.55228e-24 0.000695821 -3.92439e-21 -0.00177071)
(-0.00861149 -0.000698204 0 -0.000221337 0 -0.00353313)
(-0.0110614 -0.000712478 2.0409e-22 0.000326453 1.91631e-22 -0.004294)
(-0.0145565 -0.000316795 -4.88984e-24 -0.00058971 -4.35325e-21 -0.00605847)
(-0.00452931 -0.000221863 5.92637e-25 0.000760531 -2.52453e-22 -0.00150751)
(-0.00841469 -0.000578407 6.84056e-22 -0.000256533 6.35417e-22 -0.00346849)
(-0.011148 -0.000594533 -2.24432e-22 0.000360674 -2.091e-22 -0.00431492)
(-0.0150397 -0.00027349 -2.65062e-22 -0.000655489 1.37352e-20 -0.00627809)
(-0.00403741 -0.000170857 -4.63325e-22 0.000812572 1.7662e-22 -0.00128994)
(-0.00824146 -0.000454694 3.16057e-23 -0.000284628 -1.70343e-23 -0.00341043)
(-0.0112014 -0.000472682 0 0.000388253 0 -0.00432526)
(-0.0154115 -0.000228393 5.39626e-23 -0.000708343 -2.15328e-20 -0.00644793)
(-0.00365011 -0.000118947 4.43569e-22 0.000850693 3.43221e-21 -0.00111977)
(-0.00809219 -0.000328871 -2.57057e-24 -0.00030589 -5.14811e-24 -0.00335923)
(-0.0112218 -0.000348642 0 0.000409072 0 -0.00432508)
(-0.0156693 -0.000182069 -2.15478e-23 -0.000747341 8.09425e-21 -0.00656664)
(-0.00336848 -6.72179e-05 -4.69624e-22 0.0008744 -3.5207e-21 -0.000997633)
(-0.00796707 -0.000203298 0 -0.000320446 0 -0.00331501)
(-0.0112088 -0.000224704 0 0.00042327 0 -0.00431422)
(-0.015812 -0.000135468 2.26373e-23 -0.000771983 -8.04979e-21 -0.0066336)
(-0.00319129 -1.67874e-05 -5.06807e-22 0.000883832 1.24782e-20 -0.000922982)
(-0.00786578 -8.0581e-05 0 -0.000328402 0 -0.00327767)
(-0.011163 -0.000103428 0 0.000430922 0 -0.00429283)
(-0.0158412 -8.96093e-05 7.18355e-22 -0.000782368 4.34291e-21 -0.00664942)
(-0.00311502 3.12852e-05 -5.42398e-22 0.000879406 5.79763e-21 -0.000894246)
(-0.00778745 3.67173e-05 0 -0.00033001 0 -0.00324698)
(-0.0110853 1.26463e-05 0 0.000432244 0 -0.00426124)
(-0.0157604 -4.54916e-05 -7.4168e-22 -0.000778947 3.38068e-21 -0.00661576)
(-0.00313393 7.60003e-05 1.09579e-21 0.00086189 2.65162e-21 -0.000908818)
(-0.00773065 0.000146164 9.63268e-23 -0.000325633 -1.85725e-23 -0.00322251)
(-0.0109774 0.000121104 -6.49702e-22 0.000427572 -8.74841e-23 -0.00421994)
(-0.0155757 -4.06536e-06 -2.50366e-21 -0.000762474 3.56003e-21 -0.00653529)
(-0.00324025 0.000116464 -3.77989e-23 0.000832325 1.12567e-20 -0.00096317)
(-0.0076934 0.000245552 0 -0.000315757 0 -0.00320366)
(-0.0108414 0.000219746 -8.67652e-22 0.000417359 1.27431e-22 -0.00416961)
(-0.0152951 3.37941e-05 2.56966e-21 -0.000733998 3.57721e-21 -0.00641163)
(-0.00342436 0.000151902 -5.56444e-22 0.000791996 1.36675e-21 -0.00105295)
(-0.00767329 0.000332953 6.24425e-22 -0.000300974 -8.74792e-23 -0.00318971)
(-0.0106798 0.000306643 1.6644e-21 0.00040217 -1.91559e-22 -0.00411106)
(-0.0149282 6.73109e-05 -1.7099e-21 -0.000694802 -1.02428e-20 -0.00624922)
(-0.00367512 0.000181678 -1.08811e-21 0.000742401 3.63756e-21 -0.00117309)
(-0.00766749 0.000406754 -7.85808e-22 -0.000281964 2.42851e-22 -0.00317978)
(-0.0104957 0.000380172 7.85827e-22 0.000382662 -2.42857e-22 -0.00404523)
(-0.0144866 9.58216e-05 -1.28893e-22 -0.000646381 8.1844e-21 -0.0060532)
(-0.00398011 0.000205302 6.76935e-22 0.000685204 -1.96608e-21 -0.00131796)
(-0.00767284 0.000465681 -1.49294e-21 -0.000259482 7.68874e-22 -0.00317293)
(-0.0102925 0.000439043 8.21879e-22 0.000359571 -3.93656e-22 -0.00397316)
(-0.0139828 0.000118785 -5.69471e-24 -0.00059039 1.53972e-21 -0.00582929)
(-0.00432596 0.000222434 -6.34042e-24 0.000622202 1.66518e-21 -0.0014815)
(-0.00768592 0.000508819 7.91866e-22 -0.000234335 -6.33223e-22 -0.0031681)
(-0.0100736 0.000482314 0 0.000333698 0 -0.00389597)
(-0.0134305 0.000135793 3.98531e-23 -0.00052861 -1.04808e-20 -0.00558363)
(-0.00469862 0.000232888 6.91486e-24 0.000555276 -1.77018e-21 -0.00165734)
(-0.00770316 0.000535622 -7.91866e-22 -0.000207365 6.33223e-22 -0.00316421)
(-0.00984293 0.000509408 -1.06545e-21 0.000305882 7.58094e-22 -0.00381482)
(-0.0128438 0.000146571 1.05791e-21 -0.000462904 1.18897e-21 -0.00532267)
(-0.00508376 0.000236638 5.3725e-24 0.000486357 -1.34325e-21 -0.00183896)
(-0.0077209 0.000545917 0 -0.000179427 0 -0.00316013)
(-0.00960422 0.000520115 0 0.000276988 0 -0.00373089)
(-0.0122373 0.000150989 1.22778e-21 -0.000395178 -1.98433e-21 -0.00505297)
(-0.00546701 0.000233809 -5.82931e-22 0.000417375 1.87237e-21 -0.00201986)
(-0.00773546 0.000539909 8.83384e-22 -0.000151372 -1.19975e-21 -0.00315473)
(-0.00936133 0.000514599 1.15218e-21 0.000247883 -1.13479e-21 -0.00364538)
(-0.0116255 0.000149057 -3.721e-21 -0.000327332 3.18811e-21 -0.00478111)
(-0.00583435 0.000224679 -6.25523e-22 0.000350221 7.3065e-21 -0.00219365)
(-0.00774324 0.000518166 -8.83384e-22 -0.000124026 1.19975e-21 -0.00314691)
(-0.00911798 0.000493384 -1.19318e-21 0.00021942 1.33466e-21 -0.00355942)
(-0.0110225 0.000140929 -1.53977e-21 -0.000261225 7.97872e-21 -0.00451351)
(-0.00617238 0.000209667 -1.56213e-21 0.000286702 1.62628e-21 -0.00235427)
(-0.00774083 0.000481611 -2.0218e-22 -9.81723e-05 1.89235e-23 -0.0031356)
(-0.00887775 0.000457346 -1.18649e-22 0.000192415 1.15959e-22 -0.00347413)
(-0.0104421 0.000126897 1.33825e-21 -0.000198629 -7.4353e-21 -0.00425627)
(-0.00646863 0.000189324 6.22484e-22 0.000228503 -1.94694e-21 -0.00249605)
(-0.00772501 0.000431494 8.76753e-23 -7.45362e-05 9.70464e-23 -0.00311982)
(-0.00864392 0.000407691 1.35592e-21 0.000167629 -1.65565e-21 -0.00339052)
(-0.00989657 0.000107384 1.22185e-22 -0.000141195 2.26706e-23 -0.0040151)
(-0.00671184 0.000164321 2.42444e-21 0.000177145 -4.5919e-22 -0.00261388)
(-0.00769291 0.000369366 1.796e-22 -5.37671e-05 1.96992e-22 -0.00309867)
(-0.0084195 0.000345925 -2.31531e-21 0.000145753 4.00459e-21 -0.0033095)
(-0.00939741 8.29373e-05 -1.41014e-21 -9.04122e-05 5.68293e-21 -0.00379513)
(-0.0068922 0.000135431 -1.6032e-21 0.000133959 1.02932e-21 -0.0027033)
(-0.00764202 0.000297047 2.04491e-21 -3.64259e-05 -4.30074e-21 -0.00307138)
(-0.00820707 0.000273827 -1.37583e-21 0.00012739 2.39839e-21 -0.00323187)
(-0.00895447 5.42144e-05 1.3062e-21 -4.75802e-05 5.96393e-21 -0.00360082)
(-0.0070016 0.000103514 7.19356e-22 0.000100046 -1.17283e-22 -0.00276062)
(-0.00757025 0.000216582 -9.26111e-23 -2.29734e-05 -1.00394e-22 -0.00303729)
(-0.00800878 0.000193405 2.5368e-21 0.000113041 -4.77673e-21 -0.0031583)
(-0.0085759 2.19714e-05 1.61198e-21 -1.37793e-05 -6.49298e-21 -0.00343587)
(-0.00703375 6.95006e-05 8.83171e-22 7.62592e-05 -3.43884e-21 -0.002783)
(-0.00747599 0.000130203 -9.74858e-22 -1.37611e-05 2.5792e-21 -0.0029959)
(-0.0078263 0.000106859 -1.37766e-21 0.000103095 2.39822e-21 -0.00308928)
(-0.008268 -1.29528e-05 2.91027e-21 1.01538e-05 2.12945e-21 -0.00330314)
(-0.00698439 3.43645e-05 1.00281e-21 6.31778e-05 -2.49295e-21 -0.00276849)
(-0.00735815 4.02755e-05 -2.22732e-21 -9.02393e-06 5.61645e-21 -0.00294687)
(-0.00766074 1.65294e-05 1.34826e-21 9.78168e-05 -2.93704e-21 -0.00302517)
(-0.00803504 -4.96552e-05 -2.95418e-21 2.36448e-05 7.00882e-22 -0.00320456)
(-0.00685135 -8.94611e-07 9.25232e-22 6.10943e-05 -6.02648e-22 -0.0027161)
(-0.00721619 -5.07559e-05 0 -8.87656e-06 0 -0.00289003)
(-0.00751267 -7.51575e-05 0 9.73418e-05 0 -0.00296613)
(-0.00787918 -8.71889e-05 1.58663e-21 2.6395e-05 -4.53815e-22 -0.00314111)
(-0.00663461 -3.52777e-05 -9.21755e-22 7.00057e-05 -1.11866e-22 -0.00262584)
(-0.00705009 -0.000140425 0 -1.3312e-05 0 -0.00282536)
(-0.00738211 -0.000165746 -1.50452e-21 0.000101674 3.27562e-21 -0.00291218)
(-0.00780041 -0.000124585 -2.16599e-22 1.83887e-05 5.65145e-21 -0.00311281)
(-0.0063363 -6.78113e-05 1.7297e-21 8.96126e-05 -5.87889e-21 -0.00249868)
(-0.00686042 -0.000226305 0 -2.22031e-05 0 -0.00275305)
(-0.0072685 -0.000252812 -1.5353e-21 0.000110682 3.49552e-21 -0.00286313)
(-0.00779656 -0.000160879 1.56272e-21 -1.07243e-07 -2.82785e-21 -0.00311866)
(-0.00596064 -9.75728e-05 6.00581e-21 0.000119327 -1.39645e-20 -0.00233652)
(-0.00664827 -0.000306074 -2.23114e-21 -3.53073e-05 7.3638e-21 -0.00267343)
(-0.00717073 -0.000334026 0 0.000124108 0 -0.00281865)
(-0.00786336 -0.000195133 -5.28234e-21 -2.85511e-05 1.96712e-20 -0.00315676)
(-0.00551381 -0.000123714 -2.2399e-21 0.000158286 3.212e-22 -0.00214221)
(-0.00641524 -0.000377571 0 -5.22736e-05 0 -0.002587)
(-0.00708718 -0.000407215 -6.18811e-21 0.000141567 1.5958e-20 -0.00277825)
(-0.00799456 -0.00022646 -4.73413e-22 -6.61422e-05 4.64037e-21 -0.00322428)
(-0.00500383 -0.00014548 2.05081e-21 0.000205378 -2.75809e-21 -0.00191938)
(-0.00616339 -0.00043885 2.58505e-21 -7.26518e-05 -8.5008e-21 -0.00249442)
(-0.00701577 -0.000470409 6.04787e-21 0.000162562 -1.66144e-20 -0.00274128)
(-0.00818212 -0.000254046 -3.74537e-21 -0.000111843 1.51914e-20 -0.00331758)
(-0.00444032 -0.000162232 2.34451e-21 0.000259269 -2.60547e-21 -0.00167242)
(-0.00589522 -0.000488223 -4.74675e-21 -9.59049e-05 1.74336e-20 -0.00239645)
(-0.00695396 -0.000521894 -1.23265e-20 0.00018649 3.5049e-20 -0.00270699)
(-0.00841635 -0.000277172 -4.93409e-22 -0.000164406 5.77502e-21 -0.0034323)
(-0.00383427 -0.000173455 1.91267e-21 0.000318436 -3.50616e-21 -0.00140633)
(-0.00561358 -0.000524304 2.63305e-21 -0.000121422 -8.96053e-21 -0.002294)
(-0.00689892 -0.000560245 6.27902e-21 0.000212663 -1.8452e-20 -0.0026745)
(-0.00868623 -0.000295226 -2.40744e-23 -0.000222407 4.90713e-21 -0.00356345)
(-0.00319775 -0.000178772 -4.61297e-21 0.000381206 6.98838e-21 -0.00112662)
(-0.00532159 -0.000546028 2.45417e-21 -0.000148535 -9.65807e-21 -0.00218805)
(-0.00684749 -0.000584359 -3.16828e-21 0.000240322 9.46023e-21 -0.00264287)
(-0.00897964 -0.000307717 2.64919e-24 -0.000284281 -5.37387e-22 -0.00370557)
(-0.00254368 -0.000177949 2.19965e-21 0.000445796 -5.62245e-21 -0.000839155)
(-0.0050226 -0.000552682 -2.76312e-21 -0.000176532 1.04083e-20 -0.00207965)
(-0.00679634 -0.000593475 3.28283e-21 0.000268654 -1.04366e-20 -0.00261107)
(-0.0092837 -0.000314285 2.49832e-25 -0.000348357 -5.04577e-23 -0.00385282)
(-0.00188546 -0.000170903 4.47541e-21 0.00051035 -1.24712e-20 -0.000550042)
(-0.0047201 -0.000543915 -2.80396e-21 -0.000204679 1.09203e-20 -0.00196991)
(-0.006742 -0.000587198 -3.57547e-21 0.000296816 1.07117e-20 -0.00257807)
(-0.009585 -0.000314714 9.95842e-25 -0.000412898 -2.00337e-22 -0.00399916)
(-0.00123666 -0.000157705 -2.25163e-21 0.000572988 5.56328e-21 -0.000265468)
(-0.00441763 -0.00051976 -3.0943e-21 -0.000232238 1.11977e-20 -0.00185995)
(-0.00668098 -0.000565508 6.43414e-21 0.000323951 -2.21474e-20 -0.00254281)
(-0.00987002 -0.000308933 4.16716e-21 -0.000476138 -8.34751e-21 -0.00413846)
(-0.000610725 -0.000138584 4.78448e-21 0.000631841 -9.61128e-21 8.44642e-06)
(-0.0041187 -0.000480642 3.00157e-22 -0.000258484 -2.88557e-22 -0.00175087)
(-0.00660985 -0.000528781 0 0.000349217 0 -0.00250425)
(-0.0101254 -0.000297031 -4.00234e-21 -0.000536328 6.01695e-21 -0.00426469)
(-2.05958e-05 -0.00011393 -2.26649e-21 0.000685108 6.19855e-21 0.000265805)
(-0.00382668 -0.00042739 -3.15306e-21 -0.000282725 1.17286e-20 -0.00164376)
(-0.00652534 -0.000477796 2.91669e-21 0.000371804 -1.25866e-20 -0.00246141)
(-0.0103383 -0.000279257 7.73737e-21 -0.000591777 -1.00145e-20 -0.00437203)
(0.000521646 -8.42916e-05 2.93634e-22 0.000731096 2.02952e-21 0.000501096)
(-0.00354476 -0.00036124 2.93037e-23 -0.000304328 -6.09798e-22 -0.00153964)
(-0.00642439 -0.000413743 -3.50913e-21 0.000390958 1.26206e-20 -0.00241337)
(-0.0104968 -0.000256027 4.15334e-21 -0.000640896 -4.88416e-21 -0.00445508)
(0.00100513 -5.03755e-05 4.22302e-21 0.000768276 -1.53528e-20 0.000709362)
(-0.00327579 -0.00028383 -2.93236e-21 -0.000322729 1.32065e-20 -0.00143941)
(-0.00630432 -0.000338215 0 0.000406003 0 -0.00235933)
(-0.0105902 -0.000227926 8.15384e-23 -0.000682253 -4.14203e-22 -0.00450899)
(0.00142055 -1.30325e-05 -4.8657e-21 0.000795335 1.39184e-20 0.000886354)
(-0.00302224 -0.000197171 -3.48721e-22 -0.000337458 3.41881e-22 -0.00134388)
(-0.00616285 -0.000253188 -3.67328e-21 0.000416363 1.45353e-20 -0.0022986)
(-0.0106095 -0.000195696 -4.24339e-21 -0.000714618 7.02098e-21 -0.00452964)
(0.00176049 2.6761e-05 -5.70488e-25 0.000811221 1.1263e-22 0.00102869)
(-0.0027861 -0.000103606 2.98493e-21 -0.000348152 -1.4515e-20 -0.0012537)
(-0.00599821 -0.000160971 3.67328e-21 0.000421576 -1.45353e-20 -0.00223065)
(-0.0105474 -0.000160223 -3.15617e-22 -0.00073701 9.16258e-22 -0.00451376)
(0.00201971 6.79324e-05 3.54072e-22 0.000815187 1.07577e-21 0.00113396)
(-0.00256881 -5.73847e-06 -3.55497e-22 -0.000354567 -3.6558e-22 -0.00116935)
(-0.00580922 -6.41472e-05 3.386e-21 0.000421312 -1.5584e-20 -0.00215516)
(-0.010399 -0.000122512 -8.88828e-21 -0.000748741 1.55646e-20 -0.0044591)
(0.00219532 0.000109349 -4.11176e-21 0.000806826 1.87165e-20 0.00120086)
(-0.0023712 9.36535e-05 -6.45247e-21 -0.00035659 3.22825e-20 -0.00109112)
(-0.00559529 3.45225e-05 3.42198e-21 0.000415382 -1.63329e-20 -0.00207196)
(-0.0101617 -8.36502e-05 4.83377e-21 -0.000749446 -8.99548e-21 -0.00436448)
(0.00228692 0.000149861 -7.42232e-26 0.000786081 1.45929e-23 0.0012292)
(-0.00219347 0.000191722 3.07045e-21 -0.000354242 -1.75129e-20 -0.00101908)
(-0.00535652 0.000132196 0 0.000403744 0 -0.00198111)
(-0.00983552 -4.47696e-05 9.56153e-21 -0.000739099 -1.73987e-20 -0.00422985)
(0.00229663 0.000188343 -2.20785e-21 0.000753251 9.16814e-21 0.00121995)
(-0.00203517 0.000285654 -3.07045e-21 -0.000347678 1.75129e-20 -0.000953137)
(-0.00509364 0.000226055 0 0.000386508 0 -0.00188285)
(-0.00942275 -7.00312e-06 -5.51169e-27 -0.000718014 1.08278e-24 -0.00405631)
(0.00222899 0.000223733 2.20784e-21 0.000708974 -9.17456e-21 0.00117518)
(-0.00189522 0.000372757 0 -0.00033719 0 -0.000892962)
(-0.00480799 0.000313395 0 0.000363927 0 -0.00177762)
(-0.0089283 2.85513e-05 6.2885e-27 -0.000686833 -1.23417e-24 -0.00384605)
(0.00209082 0.000255057 -3.21284e-26 0.00065419 6.29905e-24 0.00109801)
(-0.00177194 0.000450537 3.12282e-21 -0.0003232 -2.00863e-20 -0.000838057)
(-0.00450151 0.0003917 -4.00697e-21 0.000336395 2.00975e-20 -0.00166605)
(-0.00835929 6.08594e-05 -1.53659e-26 -0.000646498 3.01308e-24 -0.00360231)
(0.00189106 0.000281449 -2.81058e-26 0.000590122 5.50656e-24 0.000992472)
(-0.00166311 0.000516733 -6.26164e-21 -0.000306252 4.10847e-20 -0.000787746)
(-0.00417669 0.000458671 4.00697e-21 0.000304435 -2.00975e-20 -0.0015489)
(-0.0077249 8.89637e-05 -6.0123e-26 -0.000598217 1.17805e-23 -0.00332925)
(0.00164048 0.00030215 4.34759e-21 0.00051821 -2.34224e-20 0.000863474)
(-0.00156598 0.000569331 3.60658e-21 -0.000287018 -2.14683e-20 -0.000741201)
(-0.00383644 0.000512249 4.08203e-21 0.000268677 -2.19426e-20 -0.00142711)
(-0.00703619 0.000111993 5.39546e-21 -0.00054345 -1.06171e-20 -0.00303186)
(0.00135152 0.000316521 -6.33618e-26 0.00044012 1.24006e-23 0.000716658)
(-0.00147736 0.000606573 -6.32357e-21 -0.000266276 4.48242e-20 -0.000697455)
(-0.00348412 0.000550605 3.33048e-23 0.000229848 -9.54841e-22 -0.00130171)
(-0.00630581 0.000129148 -5.45721e-21 -0.000483852 1.0992e-20 -0.00271587)
(0.00103809 0.000324029 2.63839e-21 0.000357648 -1.1701e-20 0.000558296)
(-0.00139361 0.000626966 4.12517e-21 -0.000244927 -2.28906e-20 -0.000655415)
(-0.00312336 0.000572134 -3.15948e-21 0.00018873 2.28846e-20 -0.00117385)
(-0.00554788 0.00013971 -4.54999e-21 -0.000421331 1.16869e-20 -0.00238768)
(0.000715182 0.000324306 -4.02268e-24 0.000272742 7.86722e-22 0.00039517)
(-0.0013108 0.000629325 0 -0.000224029 0 -0.000613932)
(-0.00275813 0.000575446 4.17303e-21 0.000146096 -2.48571e-20 -0.00104481)
(-0.00477781 0.000142998 -5.5601e-21 -0.000357983 1.18449e-20 -0.00205432)
(0.000398943 0.000317164 9.85977e-22 0.000187447 7.18507e-22 0.000234556)
(-0.00122429 0.000612854 9.82408e-22 -0.000204688 3.18401e-25 -0.000571592)
(-0.0023922 0.000559368 -1.25461e-20 0.000102788 7.55694e-20 -0.000915764)
(-0.00401197 0.000138382 4.61284e-21 -0.000296139 -1.26762e-20 -0.00172324)
(0.000105106 0.000302671 1.6587e-21 0.000103361 -1.3799e-20 8.33866e-05)
(-0.00112977 0.000577228 0 -0.00018868 0 -0.000527382)
(-0.00202984 0.000522871 4.7052e-21 5.91114e-05 -2.63623e-20 -0.000788291)
(-0.0032684 0.000125147 -4.63967e-21 -0.000238727 1.35545e-20 -0.00140285)
(-0.000148618 0.000281414 2.66069e-21 2.30418e-05 -1.3678e-20 -5.02304e-05)
(-0.00102017 0.000522802 -5.96728e-21 -0.000176727 5.52443e-20 -0.000478758)
(-0.00167274 0.000465176 8.96543e-21 1.63368e-05 -5.52472e-20 -0.000662561)
(-0.00256459 0.000102444 5.11479e-22 -0.000188576 -6.34788e-22 -0.00110127)
(-0.000350842 0.000253775 1.66109e-21 -5.46752e-05 -1.46563e-20 -0.000162207)
(-0.000892573 0.000450192 3.23656e-21 -0.000172343 -2.78753e-20 -0.000425966)
(-0.00132588 0.000386029 -3.74149e-21 -2.66285e-05 2.83823e-20 -0.000541004)
(-0.0019237 6.97204e-05 -9.843e-21 -0.000151918 2.81096e-20 -0.000830247)
(-0.000478926 0.000219304 -1.66584e-21 -0.000122632 1.50826e-20 -0.000240623)
(-0.000732119 0.000359109 0 -0.000166727 0 -0.000359539)
(-0.00098235 0.00028758 -1.25485e-23 -5.88347e-05 1.01628e-21 -0.000416474)
(-0.00135976 2.74704e-05 -5.69786e-21 -0.000127474 1.43595e-20 -0.000594892)
(-0.000536719 0.000168527 -2.68055e-21 -0.000176179 1.5194e-20 -0.000285159)
(-0.000560928 0.000244013 -5.08106e-22 -0.000149909 5.05381e-22 -0.000284335)
(-0.000665766 0.000176856 4.26488e-21 -6.578e-05 -2.99077e-20 -0.000292618)
(-0.000904437 -1.03172e-05 1.63839e-24 -0.000118338 -3.20299e-22 -0.00040911)
(-0.000435824 8.43218e-05 -4.34452e-25 -0.000122961 -3.94868e-24 -0.000223514)
(-0.000350467 9.00017e-05 -2.52037e-22 -8.05361e-06 5.07037e-22 -0.000143408)
(-0.000371776 5.82535e-05 -5.17888e-22 8.47073e-05 -4.93647e-26 -0.000114827)
(-0.000530378 -8.68733e-06 2.39876e-21 -7.82705e-06 -1.57169e-20 -0.000215282)
)
;

boundaryField
{
    plateFix
    {
        type            calculated;
        value           nonuniform List<symmTensor> 4((-0.0175786 -0.00420815 -6.05306e-25 -0.00627148 1.81454e-20 -0.00954004) (-0.0101532 -0.00177338 -5.41751e-27 -0.00542137 -2.61548e-27 -0.00622982) (-0.00784916 0.000282253 5.44328e-27 -0.0045125 2.64747e-27 -0.00494466) (-0.00490645 0.00146105 7.35422e-25 -0.00162943 -2.50898e-21 -0.00261435));
    }
    plate
    {
        type            calculated;
        value           nonuniform List<symmTensor> 
168
(
(-0.0132233 7.92409e-06 -6.38006e-24 0.000101838 3.62938e-20 -0.00524858)
(-0.00380566 3.94709e-06 2.17018e-24 1.77715e-05 -5.01936e-21 -0.00151516)
(-0.0135342 6.29321e-06 4.40901e-24 9.9096e-05 -3.98528e-20 -0.00537403)
(-0.00408291 3.24374e-06 -1.98579e-23 1.54599e-05 4.93667e-20 -0.00162698)
(-0.013963 4.84561e-06 1.11537e-23 9.79899e-05 -4.15156e-20 -0.00554602)
(-0.00450704 2.9479e-06 3.95884e-23 1.44442e-05 -1.21279e-19 -0.00179704)
(-0.01399 3.55749e-06 -1.72839e-23 9.76074e-05 7.40895e-20 -0.00555694)
(-0.00484458 2.50576e-06 7.13767e-24 1.3992e-05 -3.83051e-20 -0.00193224)
(-0.0139293 2.23633e-06 1.20882e-24 9.75728e-05 -2.0305e-21 -0.00553271)
(-0.00521214 1.61641e-06 -2.93095e-23 1.37151e-05 1.06409e-19 -0.00207937)
(-0.0137477 1.05729e-06 4.32785e-23 9.77559e-05 -2.83654e-20 -0.00545996)
(-0.00558461 4.58398e-07 1.21191e-23 1.34876e-05 -3.23284e-20 -0.00222845)
(-0.0135117 -1.67984e-08 -5.34243e-23 9.80927e-05 5.63244e-20 -0.00536545)
(-0.00598175 -9.49664e-07 -8.66373e-24 1.32247e-05 5.72714e-20 -0.00238741)
(-0.013227 -9.71416e-07 3.75215e-23 9.85523e-05 -8.31274e-20 -0.00525137)
(-0.0063989 -2.55229e-06 1.47357e-23 1.28719e-05 -5.52172e-20 -0.00255441)
(-0.0129066 -1.82227e-06 -1.59309e-23 9.9128e-05 3.01657e-20 -0.00512298)
(-0.00683693 -4.32771e-06 1.14361e-24 1.23916e-05 2.71659e-21 -0.00272982)
(-0.0125516 -2.57407e-06 -1.29473e-23 9.98255e-05 2.12351e-20 -0.00498071)
(-0.00729294 -6.26061e-06 5.59581e-24 1.17587e-05 -5.44076e-21 -0.00291247)
(-0.0121632 -3.22696e-06 1.25776e-23 0.000100654 -1.80688e-20 -0.004825)
(-0.0077654 -8.34684e-06 7.70229e-24 1.09572e-05 -2.03043e-20 -0.00310178)
(-0.0117407 -3.77378e-06 -5.10905e-26 0.000101622 6.48849e-23 -0.00465562)
(-0.00825292 -1.05895e-05 5.38319e-23 9.9728e-06 1.05856e-21 -0.00329718)
(-0.0112844 -4.20177e-06 -1.46443e-22 0.000102731 4.18935e-21 -0.00447266)
(-0.00875489 -1.29943e-05 -5.31486e-23 8.79533e-06 1.59366e-20 -0.00349844)
(-0.010795 -4.4957e-06 7.252e-23 0.00010398 5.36868e-22 -0.00427642)
(-0.00927102 -1.55697e-05 -2.32519e-24 7.41463e-06 2.36439e-21 -0.00370544)
(-0.0102744 -4.63889e-06 1.23857e-23 0.000105362 -1.13297e-20 -0.00406763)
(-0.00980097 -1.83223e-05 3.80901e-23 5.82555e-06 -1.32746e-20 -0.00391806)
(-0.00972526 -4.61546e-06 1.54391e-22 0.000106866 1.64538e-20 -0.00384736)
(-0.010344 -2.12584e-05 1.21631e-22 4.02594e-06 1.0736e-20 -0.00413598)
(-0.00915105 -4.41106e-06 -2.07109e-22 0.000108477 -1.13287e-20 -0.00361703)
(-0.0108983 -2.43808e-05 -1.74517e-22 2.02202e-06 6.50583e-21 -0.00435851)
(-0.0085563 -4.0145e-06 -1.06191e-22 0.000110173 -5.17304e-21 -0.00337845)
(-0.011461 -2.76886e-05 2.52085e-22 -1.72026e-07 1.23008e-21 -0.00458447)
(-0.00794669 -3.41725e-06 2.00116e-22 0.000111931 1.54933e-20 -0.0031339)
(-0.0120273 -3.11773e-05 8.97341e-23 -2.52145e-06 1.50148e-20 -0.00481193)
(-0.00732909 -2.6288e-06 2.17936e-23 0.000113685 -1.26594e-20 -0.00288616)
(-0.0125907 -3.48258e-05 -5.18524e-23 -4.99331e-06 -1.28757e-20 -0.00503829)
(-0.00671278 -1.62008e-06 -2.82374e-22 0.000115505 2.18893e-20 -0.00263891)
(-0.0131415 -3.8632e-05 -3.82979e-22 -7.42928e-06 -1.20062e-20 -0.00525957)
(-0.00610724 -5.14991e-07 2.56111e-22 0.000116946 -1.05981e-20 -0.00239612)
(-0.0136699 -4.24911e-05 -2.94648e-22 -9.90334e-06 2.92504e-20 -0.00547191)
(-0.00550919 1.06587e-06 1.71043e-23 0.000118892 -7.84865e-21 -0.00215612)
(-0.0141731 -4.68335e-05 4.5802e-24 -1.16878e-05 -8.70542e-21 -0.00567391)
(-0.00495803 3.06757e-06 1.18328e-24 0.000120096 -5.04058e-22 -0.00193517)
(-0.0146137 -5.15665e-05 -2.96223e-22 -1.3851e-05 2.76483e-20 -0.00585102)
(-0.0045003 5.06966e-06 -4.64856e-22 0.000120446 7.86691e-22 -0.00175194)
(-0.0149508 -5.5943e-05 1.07932e-22 -1.52374e-05 -4.30683e-20 -0.00598643)
(-0.00413832 7.0059e-06 4.35515e-22 0.000120056 6.45337e-21 -0.00160731)
(-0.0151828 -6.00026e-05 -4.31254e-23 -1.60632e-05 1.61997e-20 -0.00607956)
(-0.00387297 8.83062e-06 -4.60783e-22 0.000118737 -6.66012e-21 -0.00150169)
(-0.0153088 -6.36796e-05 4.53358e-23 -1.61619e-05 -1.61213e-20 -0.00612999)
(-0.00370306 1.04757e-05 -5.45035e-22 0.000116566 2.52743e-20 -0.0014346)
(-0.0153302 -6.69441e-05 7.0608e-22 -1.54981e-05 8.4951e-21 -0.00613827)
(-0.00362541 1.19045e-05 -5.60988e-22 0.000113508 1.17969e-20 -0.00140476)
(-0.0152503 -6.97738e-05 -7.52796e-22 -1.40712e-05 6.97289e-21 -0.00610574)
(-0.00363477 1.30821e-05 1.08837e-21 0.000109616 4.9491e-21 -0.00141006)
(-0.0150746 -7.21528e-05 -2.51655e-21 -1.18837e-05 7.28262e-21 -0.0060346)
(-0.00372402 1.39891e-05 -7.56281e-23 0.000104944 2.25225e-20 -0.00144763)
(-0.0148105 -7.40807e-05 2.55739e-21 -8.97768e-06 7.23692e-21 -0.0059278)