/*--------------------------------*- C++ -*----------------------------------*\
| =========                 |                                                 |
| \\      /  F ield         | OpenFOAM Extend Project: Open source CFD        |
|  \\    /   O peration     | Version:  1.6-ext                               |
|   \\  /    A nd           | Web:      www.extend-project.de                 |
|    \\/     M anipulation  |                                                 |
\*---------------------------------------------------------------------------*/
FoamFile
{
    version     2.0;
    format      ascii;
    class       volVectorField;
    location    "0.9";
    object      DU;
}
// * * * * * * * * * * * * * * * * * * * * * * * * * * * * * * * * * * * * * //

dimensions      [0 1 0 0 0 0 0];

internalField   nonuniform List<vector> 
328
(
(-4.01981e-10 -7.84334e-10 0)
(-1.96182e-10 -1.90191e-10 0)
(-1.45208e-10 2.41449e-11 0)
(-1.14607e-10 2.42005e-10 0)
(-1.22137e-09 -2.08321e-09 0)
(-6.54649e-10 -6.50049e-10 0)
(-4.75987e-10 -2.40357e-11 0)
(-3.52033e-10 5.49866e-10 0)
(-2.15631e-09 -3.17553e-09 0)
(-1.27595e-09 -1.20084e-09 0)
(-9.15549e-10 -1.85514e-10 0)
(-6.43313e-10 6.52752e-10 0)
(-3.16023e-09 -4.12437e-09 0)
(-2.00003e-09 -1.82866e-09 0)
(-1.43593e-09 -4.77455e-10 0)
(-9.76778e-10 5.53501e-10 0)
(-4.23983e-09 -5.00074e-09 0)
(-2.83462e-09 -2.53027e-09 0)
(-2.04687e-09 -9.07905e-10 0)
(-1.36339e-09 2.6639e-10 0)
(-5.38462e-09 -5.86064e-09 0)
(-3.75947e-09 -3.31045e-09 0)
(-2.74007e-09 -1.48495e-09 0)
(-1.80725e-09 -1.99005e-10 0)
(-6.59434e-09 -6.7509e-09 0)
(-4.77048e-09 -4.18016e-09 0)
(-3.51612e-09 -2.21364e-09 0)
(-2.31748e-09 -8.35646e-10 0)
(-7.86642e-09 -7.70847e-09 0)
(-5.85933e-09 -5.15385e-09 0)
(-4.37284e-09 -3.0989e-09 0)
(-2.90295e-09 -1.64029e-09 0)
(-9.19999e-09 -8.76355e-09 0)
(-7.02256e-09 -6.24766e-09 0)
(-5.31129e-09 -4.14505e-09 0)
(-3.57423e-09 -2.61196e-09 0)
(-1.05933e-08 -9.94029e-09 0)
(-8.2572e-09 -7.47752e-09 0)
(-6.33347e-09 -5.35649e-09 0)
(-4.34267e-09 -3.75159e-09 0)
(-1.20442e-08 -1.12577e-08 0)
(-9.56245e-09 -8.85772e-09 0)
(-7.44365e-09 -6.73716e-09 0)
(-5.22085e-09 -5.06088e-09 0)
(-1.35494e-08 -1.27295e-08 0)
(-1.09386e-08 -1.03994e-08 0)
(-8.64782e-09 -8.28999e-09 0)
(-6.22254e-09 -6.54129e-09 0)
(-1.51046e-08 -1.43641e-08 0)
(-1.23871e-08 -1.21094e-08 0)
(-9.95387e-09 -1.00157e-08 0)
(-7.36299e-09 -8.19264e-09 0)
(-1.67043e-08 -1.61631e-08 0)
(-1.39101e-08 -1.39884e-08 0)
(-1.13713e-08 -1.19112e-08 0)
(-8.65909e-09 -1.00113e-08 0)
(-1.83418e-08 -1.81201e-08 0)
(-1.55103e-08 -1.60298e-08 0)
(-1.29112e-08 -1.39676e-08 0)
(-1.01296e-08 -1.19883e-08 0)
(-2.00092e-08 -2.02192e-08 0)
(-1.71905e-08 -1.82168e-08 0)
(-1.45858e-08 -1.61675e-08 0)
(-1.17951e-08 -1.41062e-08 0)
(-2.16974e-08 -2.24317e-08 0)
(-1.89537e-08 -2.05207e-08 0)
(-1.64083e-08 -1.8482e-08 0)
(-1.36785e-08 -1.63365e-08 0)
(-2.33964e-08 -2.47136e-08 0)
(-2.08025e-08 -2.28969e-08 0)
(-1.83932e-08 -2.08671e-08 0)
(-1.58047e-08 -1.8636e-08 0)
(-2.50954e-08 -2.70013e-08 0)
(-2.27396e-08 -2.52811e-08 0)
(-2.05554e-08 -2.32593e-08 0)
(-1.82002e-08 -2.09421e-08 0)
(-2.67829e-08 -2.92074e-08 0)
(-2.47676e-08 -2.7585e-08 0)
(-2.29105e-08 -2.55711e-08 0)
(-2.08934e-08 -2.31683e-08 0)
(-2.84476e-08 -3.12148e-08 0)
(-2.68893e-08 -2.96905e-08 0)
(-2.54748e-08 -2.76849e-08 0)
(-2.39133e-08 -2.5199e-08 0)
(-3.00794e-08 -3.28716e-08 0)
(-2.91079e-08 -3.14441e-08 0)
(-2.82642e-08 -2.94478e-08 0)
(-2.7289e-08 -2.6883e-08 0)
(-3.17296e-08 -3.40262e-08 0)
(-3.15155e-08 -3.26957e-08 0)
(-3.14107e-08 -3.07108e-08 0)
(-3.11927e-08 -2.8071e-08 0)
(-3.33189e-08 -3.42956e-08 0)
(-3.40242e-08 -3.30559e-08 0)
(-3.48191e-08 -3.10845e-08 0)
(-3.55207e-08 -2.83806e-08 0)
(-3.47591e-08 -3.34955e-08 0)
(-3.64733e-08 -3.23327e-08 0)
(-3.82571e-08 -3.03761e-08 0)
(-3.99679e-08 -2.76251e-08 0)
(-3.6079e-08 -3.15431e-08 0)
(-3.88718e-08 -3.04432e-08 0)
(-4.1714e-08 -2.85029e-08 0)
(-4.45036e-08 -2.57217e-08 0)
(-3.73081e-08 -2.83779e-08 0)
(-4.12289e-08 -2.73268e-08 0)
(-4.51789e-08 -2.54042e-08 0)
(-4.90966e-08 -2.26096e-08 0)
(-3.84757e-08 -2.39619e-08 0)
(-4.35536e-08 -2.29456e-08 0)
(-4.86409e-08 -2.1042e-08 0)
(-5.37157e-08 -1.82507e-08 0)
(-3.96104e-08 -1.82795e-08 0)
(-4.58546e-08 -1.72845e-08 0)
(-5.20893e-08 -1.54011e-08 0)
(-5.83304e-08 -1.26291e-08 0)
(-4.07393e-08 -1.13367e-08 0)
(-4.81401e-08 -1.03502e-08 0)
(-5.55138e-08 -8.48804e-09 0)
(-6.29115e-08 -5.75041e-09 0)
(-4.18877e-08 -3.15963e-09 0)
(-5.04178e-08 -2.16978e-09 0)
(-5.89046e-08 -3.30017e-10 0)
(-6.74313e-08 2.35938e-09 0)
(-4.30784e-08 6.20668e-09 0)
(-5.26944e-08 7.21046e-09 0)
(-6.22527e-08 9.02696e-09 0)
(-7.1865e-08 1.16557e-08 0)
(-4.43313e-08 1.67008e-08 0)
(-5.49755e-08 1.77276e-08 0)
(-6.555e-08 1.952e-08 0)
(-7.61901e-08 2.20774e-08 0)
(-4.56627e-08 2.82469e-08 0)
(-5.72658e-08 2.93042e-08 0)
(-6.87893e-08 3.10719e-08 0)
(-8.03878e-08 3.3549e-08 0)
(-4.70855e-08 4.07576e-08 0)
(-5.95685e-08 4.18512e-08 0)
(-7.19646e-08 4.35934e-08 0)
(-8.44424e-08 4.59834e-08 0)
(-4.86089e-08 5.41367e-08 0)
(-6.18858e-08 5.52703e-08 0)
(-7.50711e-08 5.69867e-08 0)
(-8.83423e-08 5.92846e-08 0)
(-5.02377e-08 6.8282e-08 0)
(-6.42184e-08 6.94576e-08 0)
(-7.81053e-08 7.11476e-08 0)
(-9.20796e-08 7.33508e-08 0)
(-5.1973e-08 8.30883e-08 0)
(-6.65656e-08 8.43058e-08 0)
(-8.1065e-08 8.59691e-08 0)
(-9.56505e-08 8.80769e-08 0)
(-5.3812e-08 9.84507e-08 0)
(-6.89257e-08 9.97081e-08 0)
(-8.39491e-08 1.01344e-07 0)
(-9.90549e-08 1.03358e-07 0)
(-5.5748e-08 1.14267e-07 0)
(-7.12953e-08 1.1556e-07 0)
(-8.67579e-08 1.17169e-07 0)
(-1.02297e-07 1.19092e-07 0)
(-5.77706e-08 1.3044e-07 0)
(-7.36704e-08 1.31764e-07 0)
(-8.94929e-08 1.33345e-07 0)
(-1.05384e-07 1.35183e-07 0)
(-5.98665e-08 1.46883e-07 0)
(-7.60454e-08 1.4823e-07 0)
(-9.21567e-08 1.49783e-07 0)
(-1.08326e-07 1.51541e-07 0)
(-6.20191e-08 1.63517e-07 0)
(-7.84141e-08 1.64879e-07 0)
(-9.47527e-08 1.66404e-07 0)
(-1.11138e-07 1.68091e-07 0)
(-6.42098e-08 1.80277e-07 0)
(-8.07695e-08 1.81644e-07 0)
(-9.72856e-08 1.83141e-07 0)
(-1.13835e-07 1.84765e-07 0)
(-6.64178e-08 1.97113e-07 0)
(-8.31039e-08 1.98475e-07 0)
(-9.97603e-08 1.99942e-07 0)
(-1.16436e-07 2.01515e-07 0)
(-6.86209e-08 2.13989e-07 0)
(-8.54094e-08 2.15334e-07 0)
(-1.02183e-07 2.16772e-07 0)
(-1.1896e-07 2.18303e-07 0)
(-7.07963e-08 2.30887e-07 0)
(-8.76777e-08 2.32204e-07 0)
(-1.04558e-07 2.33612e-07 0)
(-1.21429e-07 2.35111e-07 0)
(-7.29208e-08 2.47805e-07 0)
(-8.99005e-08 2.49082e-07 0)
(-1.06894e-07 2.50459e-07 0)
(-1.23863e-07 2.51937e-07 0)
(-7.49716e-08 2.64758e-07 0)
(-9.20697e-08 2.65983e-07 0)
(-1.09196e-07 2.67329e-07 0)
(-1.26283e-07 2.68797e-07 0)
(-7.69268e-08 2.81777e-07 0)
(-9.41775e-08 2.82939e-07 0)
(-1.11469e-07 2.84253e-07 0)
(-1.2871e-07 2.8572e-07 0)
(-7.87661e-08 2.98909e-07 0)
(-9.62167e-08 2.99998e-07 0)
(-1.1372e-07 3.01279e-07 0)
(-1.31161e-07 3.02754e-07 0)
(-8.04712e-08 3.16216e-07 0)
(-9.81808e-08 3.17222e-07 0)
(-1.15954e-07 3.1847e-07 0)
(-1.33654e-07 3.19959e-07 0)
(-8.20262e-08 3.33771e-07 0)
(-1.00064e-07 3.34687e-07 0)
(-1.18174e-07 3.359e-07 0)
(-1.36204e-07 3.37409e-07 0)
(-8.34183e-08 3.51658e-07 0)
(-1.01862e-07 3.52478e-07 0)
(-1.20384e-07 3.53654e-07 0)
(-1.38821e-07 3.55189e-07 0)
(-8.46376e-08 3.6997e-07 0)
(-1.03571e-07 3.70688e-07 0)
(-1.22587e-07 3.71828e-07 0)
(-1.41514e-07 3.7339e-07 0)
(-8.56778e-08 3.88805e-07 0)
(-1.05188e-07 3.89419e-07 0)
(-1.24783e-07 3.9052e-07 0)
(-1.44288e-07 3.92111e-07 0)
(-8.65364e-08 4.08265e-07 0)
(-1.06713e-07 4.08772e-07 0)
(-1.26973e-07 4.09834e-07 0)
(-1.47145e-07 4.11452e-07 0)
(-8.72144e-08 4.2845e-07 0)
(-1.08144e-07 4.28852e-07 0)
(-1.29155e-07 4.29874e-07 0)
(-1.50081e-07 4.31515e-07 0)
(-8.77165e-08 4.4946e-07 0)
(-1.09484e-07 4.49759e-07 0)
(-1.31327e-07 4.50739e-07 0)
(-1.53092e-07 4.524e-07 0)
(-8.8051e-08 4.71388e-07 0)
(-1.10735e-07 4.71588e-07 0)
(-1.33486e-07 4.72525e-07 0)
(-1.56168e-07 4.74198e-07 0)
(-8.82299e-08 4.94319e-07 0)
(-1.11899e-07 4.94427e-07 0)
(-1.35626e-07 4.9532e-07 0)
(-1.59294e-07 4.96998e-07 0)
(-8.82678e-08 5.1833e-07 0)
(-1.12982e-07 5.18353e-07 0)
(-1.37742e-07 5.192e-07 0)
(-1.62456e-07 5.20872e-07 0)
(-8.81823e-08 5.4348e-07 0)
(-1.13989e-07 5.43427e-07 0)
(-1.39828e-07 5.44228e-07 0)
(-1.65634e-07 5.45883e-07 0)
(-8.79933e-08 5.69818e-07 0)
(-1.14925e-07 5.69698e-07 0)
(-1.41874e-07 5.70452e-07 0)
(-1.68806e-07 5.72079e-07 0)
(-8.77222e-08 5.97374e-07 0)
(-1.15797e-07 5.97198e-07 0)
(-1.43875e-07 5.97904e-07 0)
(-1.7195e-07 5.99491e-07 0)
(-8.73915e-08 6.2616e-07 0)
(-1.16612e-07 6.2594e-07 0)
(-1.4582e-07 6.26596e-07 0)
(-1.75041e-07 6.2813e-07 0)
(-8.7024e-08 6.5617e-07 0)
(-1.17377e-07 6.55917e-07 0)
(-1.47701e-07 6.56524e-07 0)
(-1.78054e-07 6.57992e-07 0)
(-8.66422e-08 6.87381e-07 0)
(-1.18098e-07 6.87106e-07 0)
(-1.4951e-07 6.87664e-07 0)
(-1.80966e-07 6.89053e-07 0)
(-8.62676e-08 7.19752e-07 0)
(-1.18782e-07 7.19465e-07 0)
(-1.51238e-07 7.19972e-07 0)
(-1.83752e-07 7.21273e-07 0)
(-8.59202e-08 7.53222e-07 0)
(-1.19434e-07 7.52934e-07 0)
(-1.52877e-07 7.53391e-07 0)
(-1.8639e-07 7.54591e-07 0)
(-8.56176e-08 7.87719e-07 0)
(-1.20059e-07 7.87438e-07 0)
(-1.5442e-07 7.87844e-07 0)
(-1.88861e-07 7.88936e-07 0)
(-8.53746e-08 8.23155e-07 0)
(-1.20662e-07 8.22888e-07 0)
(-1.55861e-07 8.23243e-07 0)
(-1.91147e-07 8.24218e-07 0)
(-8.52028e-08 8.5943e-07 0)
(-1.21246e-07 8.59183e-07 0)
(-1.57194e-07 8.59487e-07 0)
(-1.93235e-07 8.60341e-07 0)
(-8.51102e-08 8.96438e-07 0)
(-1.21812e-07 8.96215e-07 0)
(-1.58415e-07 8.96468e-07 0)
(-1.95114e-07 8.97197e-07 0)
(-8.51007e-08 9.34066e-07 0)
(-1.22361e-07 9.33866e-07 0)
(-1.59522e-07 9.34068e-07 0)
(-1.96779e-07 9.34671e-07 0)
(-8.5174e-08 9.72196e-07 0)
(-1.22892e-07 9.7202e-07 0)
(-1.60513e-07 9.72171e-07 0)
(-1.98227e-07 9.72648e-07 0)
(-8.53251e-08 1.01071e-06 0)
(-1.23401e-07 1.01056e-06 0)
(-1.61387e-07 1.01066e-06 0)
(-1.99461e-07 1.01101e-06 0)
(-8.55449e-08 1.0495e-06 0)
(-1.23885e-07 1.04936e-06 0)
(-1.62146e-07 1.04941e-06 0)
(-2.00488e-07 1.04965e-06 0)
(-8.58189e-08 1.08847e-06 0)
(-1.24336e-07 1.08833e-06 0)
(-1.62792e-07 1.08832e-06 0)
(-2.01322e-07 1.08845e-06 0)
(-8.61306e-08 1.1275e-06 0)
(-1.24747e-07 1.12736e-06 0)
(-1.63327e-07 1.1273e-06 0)
(-2.0198e-07 1.12732e-06 0)
(-8.64549e-08 1.16652e-06 0)
(-1.25105e-07 1.16637e-06 0)
(-1.63755e-07 1.16626e-06 0)
(-2.02486e-07 1.1662e-06 0)
(-8.67799e-08 1.20542e-06 0)
(-1.25421e-07 1.20528e-06 0)
(-1.64098e-07 1.20516e-06 0)
(-2.02875e-07 1.20508e-06 0)
)
;

boundaryField
{
    plateFix
    {
        type            fixedDisplacement;
        value           uniform (0 0 0);
    }
    plate
    {
        type            solidTraction;
        nonLinear       updatedLagrangian;
        traction        nonuniform List<vector> 
168
(
(1.80559e-05 7.44273e-05 -3.78549e-20)
(1.67227e-05 -7.46357e-05 -3.67905e-20)
(-0.00011392 -6.58885e-05 -2.71545e-21)
(-0.000109277 5.97546e-05 4.371e-20)
(-0.000564414 -0.000246002 4.15869e-20)
(-0.000545805 0.000235526 -3.90422e-20)
(-0.00126577 -0.000390849 -3.69172e-20)
(-0.00122794 0.000377578 -3.70572e-20)
(-0.00216432 -0.000481899 0)
(-0.00210374 0.000467059 7.44405e-20)
(-0.00321065 -0.000522012 0)
(-0.00312499 0.000506361 -3.26408e-20)
(-0.0043539 -0.000523804 -3.22905e-20)
(-0.00424188 0.000507577 3.64404e-20)
(-0.00554967 -0.0005016 5.96797e-20)
(-0.00541074 0.0004846 -3.73663e-21)
(-0.00676322 -0.000467456 -5.8195e-20)
(-0.00659723 0.000449188 -2.7441e-20)
(-0.00796964 -0.000430109 3.16449e-23)
(-0.00777651 0.000409908 0)
(-0.00915299 -0.00039515 2.54927e-20)
(-0.00893252 0.000372282 0)
(-0.0103049 -0.000365649 0)
(-0.0100566 0.000339365 -2.03982e-20)
(-0.0114227 -0.000342846 7.141e-23)
(-0.0111457 0.00031242 1.82856e-20)
(-0.0125073 -0.000326764 0)
(-0.0122005 0.0002915 -6.37883e-23)
(-0.0135618 -0.000316661 3.48813e-21)
(-0.0132236 0.000275903 0)
(-0.0145891 -0.000311355 -1.26711e-20)
(-0.014218 0.000264483 -9.95607e-23)
(-0.0155908 -0.000309416 1.1248e-20)
(-0.0151852 0.000255856 8.72419e-23)
(-0.0165653 -0.000309226 -1.51534e-22)
(-0.0161239 0.000248465 0)
(-0.0175093 -0.000309021 0)
(-0.0170315 0.000240659 2.10325e-20)
(-0.0184079 -0.000306619 -1.1326e-22)
(-0.0178942 0.000230409 -1.09842e-20)
(-0.0192656 -0.000298704 1.94319e-22)
(-0.0187173 0.000214802 -1.57507e-20)
(-0.020009 -0.000286259 -2.65508e-21)
(-0.0194329 0.000194689 2.1361e-20)
(-0.0208886 -0.00023839 0)
(-0.0202781 0.000141066 -8.96782e-21)
(-0.0218089 -0.000182937 -1.36565e-22)
(-0.0211601 7.84542e-05 0)
(-0.022578 -0.000173804 2.68985e-22)
(-0.0219041 6.0137e-05 -4.06787e-22)
(-0.0233087 -0.00016019 0)
(-0.022615 3.8143e-05 8.46878e-21)
(-0.0239517 -0.000156466 0)
(-0.0232482 2.61701e-05 -1.70654e-20)
(-0.0245489 -0.000149773 2.54796e-22)
(-0.0238443 1.18168e-05 8.59205e-21)
(-0.0250792 -0.000145151 0)
(-0.0243843 1.23186e-08 8.01675e-21)
(-0.0255559 -0.000139229 7.47369e-21)
(-0.0248818 -1.25054e-05 -8.02531e-21)
(-0.0259704 -0.000133342 -1.17311e-20)
(-0.0253293 -2.43722e-05 -2.43121e-22)
(-0.026325 -0.00012652 4.00267e-21)
(-0.0257295 -3.65147e-05 -2.37424e-22)
(-0.0266152 -0.000119017 2.26393e-22)
(-0.0260786 -4.86377e-05 2.32054e-22)
(-0.0268392 -0.000110505 -2.20459e-22)
(-0.0263751 -6.10383e-05 -3.56357e-21)
(-0.0269933 -0.000100983 -3.3594e-21)
(-0.0266155 -7.36891e-05 3.56775e-21)
(-0.0270744 -9.03189e-05 3.3623e-21)
(-0.0267968 -8.67029e-05 -3.36315e-21)
(-0.0270789 -7.84785e-05 -1.99694e-22)
(-0.026915 -0.000100099 3.57428e-21)
(-0.0270033 -6.54104e-05 0)
(-0.0269663 -0.000113922 0)
(-0.0268442 -5.11046e-05 1.85216e-22)
(-0.0269465 -0.000128178 1.94013e-22)
(-0.0265984 -3.55627e-05 -1.77742e-22)
(-0.0268515 -0.00014287 1.87023e-22)
(-0.0262629 -1.8813e-05 0)
(-0.0266771 -0.000157976 1.79331e-22)
(-0.0258351 -9.04605e-07 0)
(-0.0264193 -0.000173462 -2.34654e-21)
(-0.0253126 1.80933e-05 1.56064e-22)
(-0.0260743 -0.000189271 2.85858e-21)
(-0.0246939 3.80908e-05 -2.42905e-21)
(-0.0256384 -0.000205332 0)
(-0.0239777 5.89793e-05 1.2956e-22)
(-0.0251085 -0.000221554 -2.62379e-21)
(-0.0231632 8.06338e-05 2.15725e-21)
(-0.0244818 -0.000237829 1.27446e-22)
(-0.0222507 0.000102914 -2.27047e-21)
(-0.0237562 -0.000254036 -6.23307e-24)
(-0.0212405 0.000125671 1.67077e-21)
(-0.0229299 -0.000270038 3.89868e-21)
(-0.0201342 0.000148742 2.15736e-22)
(-0.0220021 -0.000285687 -1.95017e-21)
(-0.0189336 0.000171962 2.00151e-22)
(-0.0209724 -0.000300829 0)
(-0.0176413 0.000195162 3.67692e-22)
(-0.0198413 -0.000315303 1.01289e-22)
(-0.0162607 0.000218177 -1.89e-24)
(-0.01861 -0.000328948 -9.52124e-23)
(-0.0147955 0.000240844 1.54876e-22)
(-0.0172804 -0.000341606 0)
(-0.0132503 0.000263009 -1.0514e-21)
(-0.0158552 -0.000353124 0)
(-0.0116299 0.00028453 1.17892e-21)
(-0.0143377 -0.000363362 -1.09033e-21)
(-0.00993971 0.00030528 -1.9599e-24)
(-0.012732 -0.000372193 9.62448e-22)
(-0.0081854 0.000325146 0)
(-0.0110427 -0.000379507 -4.3352e-22)
(-0.006373 0.000344036 3.18111e-22)
(-0.00927495 -0.000385217 4.34006e-22)
(-0.0045087 0.000361879 2.92742e-23)
(-0.00743436 -0.000389256 -8.86667e-23)
(-0.00259882 0.000378625 -2.72324e-22)
(-0.00552688 -0.000391584 -3.91184e-23)
(-0.00064968 0.000394247 -2.39945e-22)
(-0.00355872 -0.000392189 -3.32553e-23)
(0.00133246 0.000408743 1.88163e-22)
(-0.00153623 -0.000391084 -2.773e-23)
(0.00334153 0.000422135 6.80562e-23)
(0.000534178 -0.000388312 2.2563e-23)
(0.00537169 0.00043447 -8.54959e-23)
(0.00264621 -0.000383946 1.17031e-22)
(0.00741751 0.000445821 1.38627e-22)
(0.00479377 -0.000378085 -9.23668e-23)
(0.00947399 0.000456288 -2.55446e-23)
(0.00697108 -0.000370861 0)
(0.0115367 0.000466001 -2.8579e-23)
(0.00917287 -0.000362437 5.82018e-24)
(0.013602 0.000475124 -1.83305e-23)
(0.0113945 -0.00035301 0)
(0.015667 0.000483856 1.18851e-23)
(0.0136321 -0.000342814 0)
(0.0177298 0.000492458 6.85063e-24)
(0.0158828 -0.00033214 4.1725e-24)
(0.0197899 0.000501238 -1.13086e-23)
(0.0181451 -0.000321329 0)
(0.0218484 0.000510651 0)
(0.0204193 -0.000310854 0)
(0.0239082 0.000521245 -2.89084e-23)
(0.0227075 -0.000301284 0)
(0.025976 0.000534054 2.89355e-23)
(0.0250157 -0.000293653 2.96882e-23)
(0.0280614 0.000550482 0)
(0.0273536 -0.000289374 -2.20542e-23)
(0.0301834 0.000574386 0)
(0.0297396 -0.000292306 -7.57988e-24)
(0.0323711 0.000612266 -8.12849e-24)
(0.032205 -0.000309046 -7.73848e-24)
(0.0346779 0.000688508 0)
(0.0348038 -0.000364574 -5.74611e-24)
(0.0372322 0.000848274 2.48228e-24)
(0.0376747 -0.000504843 5.73037e-24)
(0.0401912 0.0013092 -4.30882e-24)
(0.0409759 -0.00095581 -5.4748e-24)
(0.0444904 0.00245851 2.4339e-23)
(0.0457234 -0.00210936 1.06014e-23)
(0.0504732 0.00695736 4.12909e-24)
(0.0101343 0.00539447 0)
(-0.00085345 -0.00269092 -1.04671e-23)
(-0.000752978 0.00345802 3.06081e-23)
(0.0105233 -0.00501373 2.42331e-23)
(0.0520926 -0.00675107 -1.77208e-23)
)
;
        pressure        nonuniform List<scalar> 
168
(
-0.461779
-0.462943
-0.462393
-0.463538
-0.463076
-0.464205
-0.46375
-0.464866
-0.464348
-0.465455
-0.464794
-0.465897
-0.465041
-0.466145
-0.46506
-0.466171
-0.464838
-0.465962
-0.464369
-0.465511
-0.463651
-0.464817
-0.462683
-0.463879
-0.461457
-0.462692
-0.459963
-0.461244
-0.458179
-0.459519
-0.456079
-0.457491
-0.453627
-0.455128
-0.45078
-0.452391
-0.447494
-0.44924
-0.443703
-0.445614
-0.439411
-0.441521
-0.434402
-0.436758
-0.428977
-0.431613
-0.422251
-0.425262
-0.415414
-0.418829
-0.408016
-0.411891
-0.400359
-0.404731
-0.392274
-0.39719
-0.383868
-0.389368
-0.375092
-0.381214
-0.365982
-0.372761
-0.35653
-0.363995
-0.346754
-0.354929
-0.336659
-0.345562
-0.326261
-0.335903
-0.315574
-0.325956
-0.304614
-0.31573
-0.2934
-0.305236
-0.281956
-0.294485
-0.270303
-0.283493
-0.258469
-0.272276
-0.246484
-0.260854
-0.234378
-0.249248
-0.222184
-0.237485
-0.209939
-0.225592
-0.197679
-0.2136
-0.185443
-0.201541
-0.17327
-0.189451
-0.161202
-0.177368
-0.149278
-0.16533
-0.137539
-0.15338
-0.126027
-0.141559
-0.114781
-0.12991
-0.103839
-0.118476
-0.09324
-0.107301
-0.0830183
-0.0964276
-0.0732078
-0.0858969
-0.0638396
-0.0757495
-0.0549424
-0.066024
-0.046542
-0.0567566
-0.0386618
-0.0479815
-0.0313218
-0.0397299
-0.0245396
-0.0320302
-0.0183297
-0.024908
-0.0127041
-0.0183857
-0.00767188
-0.0124827
-0.00324016
-0.00721559
0.000586241
-0.00259811
0.00380407
0.00135832
0.00641167
0.0046446
0.00840771
0.00725282
0.00979193
0.00917679
0.0105618
0.010409
0.0107162
0.0109435
0.0102449
0.0107668
0.00914122
0.00986729
0.0073735
0.0082123
0.0049
0.00575058
0.00165723
0.00242373
-0.00275606
-0.00221831
-0.00804648
-0.00780698
-0.0188644
-0.0483177
-0.0239853
-0.0241675
-0.0496939
-0.0195176
)
;
        value           nonuniform List<vector> 
168
(
(-3.93288e-09 -2.12215e-09 -1.81427e-26)
(-1.08922e-09 6.25095e-10 -2.50937e-27)
(-4.01928e-09 -3.45164e-09 1.99204e-26)
(-8.37547e-10 9.60458e-10 2.47119e-26)
(-4.3819e-09 -4.58662e-09 2.0756e-26)
(-6.53297e-10 1.10573e-09 -6.06754e-26)
(-5.01375e-09 -5.5381e-09 -3.70146e-26)
(-5.90249e-10 1.04028e-09 -1.91104e-26)
(-5.88186e-09 -6.40844e-09 1.03752e-27)
(-6.568e-10 7.90007e-10 5.31727e-26)
(-6.92616e-09 -7.25026e-09 1.41774e-26)
(-8.40497e-10 3.61959e-10 -1.61475e-26)
(-8.11056e-09 -8.11708e-09 -2.81347e-26)
(-1.13769e-09 -2.34857e-10 2.86219e-26)
(-9.40532e-09 -9.04636e-09 4.14843e-26)
(-1.54679e-09 -9.9767e-10 -2.76148e-26)
(-1.07905e-08 -1.00696e-08 -1.50306e-26)
(-2.07117e-09 -1.92543e-09 1.39039e-27)
(-1.22504e-08 -1.12112e-08 -1.06157e-26)
(-2.71719e-09 -3.01935e-09 -2.75172e-27)
(-1.3772e-08 -1.249e-08 9.0184e-27)
(-3.49455e-09 -4.28129e-09 -1.0125e-26)
(-1.53437e-08 -1.392e-08 -3.20558e-29)
(-4.41588e-09 -5.71287e-09 5.0084e-28)
(-1.6954e-08 -1.55094e-08 -2.16169e-27)
(-5.49687e-09 -7.31396e-09 7.97871e-27)
(-1.85911e-08 -1.72598e-08 -2.22902e-28)
(-6.75629e-09 -9.08102e-09 1.18256e-27)
(-2.02421e-08 -1.91653e-08 5.65537e-27)
(-8.21602e-09 -1.1005e-08 -6.65591e-27)
(-2.18934e-08 -2.12098e-08 -8.12647e-27)
(-9.90104e-09 -1.30686e-08 5.28568e-27)
(-2.35296e-08 -2.33653e-08 5.54319e-27)
(-1.18394e-08 -1.52437e-08 3.36159e-27)
(-2.51346e-08 -2.55881e-08 2.52145e-27)
(-1.40619e-08 -1.74871e-08 4.73744e-28)
(-2.66907e-08 -2.78151e-08 -7.62596e-27)
(-1.6602e-08 -1.97369e-08 7.42718e-27)
(-2.81796e-08 -2.99596e-08 6.32016e-27)
(-1.94949e-08 -2.19073e-08 -6.38821e-27)
(-2.95829e-08 -3.19054e-08 -1.10637e-26)
(-2.27771e-08 -2.38835e-08 -5.78553e-27)
(-3.08833e-08 -3.35014e-08 5.42355e-27)
(-2.64845e-08 -2.55155e-08 1.47268e-26)
(-3.21088e-08 -3.45957e-08 3.92365e-27)
(-3.08135e-08 -2.66543e-08 -4.34174e-27)
(-3.3191e-08 -3.4809e-08 2.52407e-28)
(-3.56493e-08 -2.69213e-08 1.39146e-26)
(-3.40777e-08 -3.39618e-08 -6.00524e-28)
(-4.06505e-08 -2.61337e-08 -2.15386e-26)
(-3.48084e-08 -3.19715e-08 -3.02116e-27)
(-4.5776e-08 -2.42088e-08 8.09636e-27)
(-3.54236e-08 -2.87777e-08 3.12956e-27)
(-5.09834e-08 -2.10861e-08 -8.05182e-27)
(-3.59639e-08 -2.43422e-08 -1.27937e-26)
(-5.62302e-08 -1.67271e-08 4.14257e-27)
(-3.64687e-08 -1.86493e-08 -5.98985e-27)
(-6.14751e-08 -1.11155e-08 3.58287e-27)
(-3.69758e-08 -1.17044e-08 -2.31684e-27)
(-6.66782e-08 -4.2565e-09 3.73133e-27)
(-3.752e-08 -3.53311e-09 -1.12553e-26)
(-7.18024e-08 3.82481e-09 3.66051e-27)
(-3.8133e-08 5.8205e-09 -1.35257e-27)
(-7.68138e-08 1.30848e-08 -1.05205e-26)
(-3.88423e-08 1.62959e-08 -3.27536e-27)
(-8.16826e-08 2.34633e-08 8.09998e-27)
(-3.96708e-08 2.78183e-08 1.5907e-27)
(-8.63831e-08 3.48861e-08 1.54001e-27)
(-4.06365e-08 4.03016e-08 -1.66501e-27)
(-9.08948e-08 4.72674e-08 -1.04827e-26)
(-4.17521e-08 5.36507e-08 1.77001e-27)
(-9.52022e-08 6.05126e-08 1.94744e-27)
(-4.30249e-08 6.77647e-08 1.34313e-27)
(-9.92954e-08 7.4521e-08 -9.31925e-28)
(-4.44566e-08 8.25399e-08 -7.96045e-28)
(-1.0317e-07 8.91891e-08 -1.62385e-28)
(-4.60437e-08 9.78722e-08 -6.02986e-27)
(-1.06826e-07 1.04413e-07 6.50236e-27)
(-4.77774e-08 1.13661e-07 1.46742e-27)
(-1.1027e-07 1.20092e-07 -5.98572e-27)
(-4.96438e-08 1.2981e-07 4.66912e-28)
(-1.13513e-07 1.36131e-07 1.41332e-28)
(-5.16249e-08 1.46233e-07 -5.29631e-27)
(-1.1657e-07 1.52443e-07 3.81391e-27)
(-5.36985e-08 1.62853e-07 3.23565e-27)
(-1.1946e-07 1.6895e-07 8.14588e-27)
(-5.5839e-08 1.79606e-07 -2.2249e-27)
(-1.22208e-07 1.85589e-07 -4.07328e-27)
(-5.80184e-08 1.96441e-07 7.58677e-28)
(-1.24837e-07 2.02309e-07 7.48508e-27)
(-6.02065e-08 2.13324e-07 -3.06126e-28)
(-1.27377e-07 2.19074e-07 -4.87363e-27)
(-6.23721e-08 2.30236e-07 -2.51822e-27)
(-1.29856e-07 2.35867e-07 2.72206e-27)
(-6.44837e-08 2.47175e-07 3.23273e-27)
(-1.32303e-07 2.52685e-07 5.8522e-27)
(-6.651e-08 2.64157e-07 -1.01006e-27)
(-1.34748e-07 2.69542e-07 8.88076e-28)
(-6.84214e-08 2.81211e-07 -8.30464e-27)
(-1.3722e-07 2.86469e-07 8.58508e-27)
(-7.01899e-08 2.98386e-07 7.48987e-27)
(-1.39743e-07 3.03513e-07 4.60165e-27)
(-7.17907e-08 3.15741e-07 -5.26281e-27)
(-1.42341e-07 3.20733e-07 6.82703e-27)
(-7.32022e-08 3.33349e-07 -6.11088e-27)
(-1.45035e-07 3.38203e-07 5.73499e-27)
(-7.44066e-08 3.51294e-07 -5.65527e-27)
(-1.4784e-07 3.56004e-07 4.9074e-27)
(-7.53907e-08 3.69667e-07 1.25636e-26)
(-1.5077e-07 3.74229e-07 -5.37414e-28)
(-7.61461e-08 3.88564e-07 -4.27171e-27)
(-1.5383e-07 3.92974e-07 -5.04601e-29)
(-7.66693e-08 4.08087e-07 -8.82533e-27)
(-1.57023e-07 4.12339e-07 -2.00346e-28)
(-7.69618e-08 4.28334e-07 5.88438e-27)
(-1.60346e-07 4.32424e-07 2.93024e-27)
(-7.70305e-08 4.49405e-07 -1.35619e-26)
(-1.63792e-07 4.53327e-07 -6.06612e-27)
(-7.68869e-08 4.71391e-07 6.39401e-27)
(-1.67346e-07 4.7514e-07 1.44141e-26)
(-7.65475e-08 4.94376e-07 -1.729e-27)
(-1.70992e-07 4.97949e-07 8.3891e-27)
(-7.6033e-08 5.18436e-07 -1.20135e-26)
(-1.74707e-07 5.21826e-07 2.23273e-28)
(-7.5368e-08 5.43629e-07 1.41004e-26)
(-1.78466e-07 5.46834e-07 -6.88964e-27)
(-7.458e-08 5.70003e-07 -1.1263e-28)
(-1.82238e-07 5.73019e-07 1.24923e-27)
(-7.3699e-08 5.97588e-07 -1.44554e-27)
(-1.85992e-07 6.00411e-07 -1.5721e-26)
(-7.27565e-08 6.26396e-07 1.35743e-26)
(-1.89695e-07 6.29022e-07 6.64663e-27)
(-7.17844e-08 6.56421e-07 -1.45929e-29)
(-1.93313e-07 6.58849e-07 1.65553e-26)
(-7.08144e-08 6.87639e-07 9.18065e-27)
(-1.96813e-07 6.89867e-07 1.0828e-30)
(-6.98765e-08 7.20009e-07 -9.17424e-27)
(-2.00163e-07 7.22035e-07 -1.23418e-30)
(-6.89988e-08 7.53473e-07 -6.29907e-30)
(-2.03331e-07 7.55297e-07 3.01312e-30)
(-6.8206e-08 7.87958e-07 -5.50658e-30)
(-2.06292e-07 7.89578e-07 1.17807e-29)
(-6.75192e-08 8.23377e-07 -1.95152e-26)
(-2.09022e-07 8.24793e-07 1.08935e-26)
(-6.6955e-08 8.59632e-07 -1.24007e-29)
(-2.11502e-07 8.60844e-07 -1.14588e-26)
(-6.65251e-08 8.96618e-07 -1.1675e-26)
(-2.13718e-07 8.97626e-07 -1.17025e-26)
(-6.62356e-08 9.34221e-07 -7.86727e-28)
(-2.15662e-07 9.35025e-07 -1.25405e-26)
(-6.60868e-08 9.72328e-07 -7.12794e-28)
(-2.17331e-07 9.72928e-07 1.26842e-26)
(-6.60728e-08 1.01082e-06 -1.25631e-26)
(-2.18729e-07 1.01122e-06 -1.28079e-26)
(-6.61817e-08 1.0496e-06 -1.36911e-26)
(-2.19867e-07 1.04979e-06 -1.25712e-28)
(-6.63949e-08 1.08854e-06 -1.37328e-26)
(-2.2076e-07 1.08853e-06 -2.8156e-26)
(-6.66933e-08 1.12757e-06 1.43243e-26)
(-2.21439e-07 1.12734e-06 -1.50415e-26)
(-6.70535e-08 1.16659e-06 1.52268e-26)
(-2.21945e-07 1.16618e-06 -3.20301e-28)
(-6.74745e-08 1.2055e-06 3.94638e-30)
(-8.69221e-08 1.22474e-06 -4.55404e-31)
(-1.25565e-07 1.22464e-06 2.56829e-28)
(-1.64254e-07 1.22455e-06 4.9289e-28)
(-2.03037e-07 1.22458e-06 -2.30965e-27)
(-2.22368e-07 1.20502e-06 1.57242e-26)
)
;
    }
    frontAndBackPlanes
    {
        type            empty;
    }
}


// ************************************************************************* //
