/*--------------------------------*- C++ -*----------------------------------*\
| =========                 |                                                 |
| \\      /  F ield         | OpenFOAM Extend Project: Open source CFD        |
|  \\    /   O peration     | Version:  1.6-ext                               |
|   \\  /    A nd           | Web:      www.extend-project.de                 |
|    \\/     M anipulation  |                                                 |
\*---------------------------------------------------------------------------*/
FoamFile
{
    version     2.0;
    format      ascii;
    class       volVectorField;
    location    "0.9";
    object      DU_0;
}
// * * * * * * * * * * * * * * * * * * * * * * * * * * * * * * * * * * * * * //

dimensions      [0 1 0 0 0 0 0];

internalField   nonuniform List<vector> 
328
(
(-7.61007e-10 -1.48666e-09 0)
(-4.30465e-10 -3.39089e-10 0)
(-3.76039e-10 1.61047e-10 0)
(-4.54249e-10 9.08107e-10 0)
(-2.31478e-09 -3.89026e-09 0)
(-1.42968e-09 -1.09135e-09 0)
(-1.239e-09 3.69458e-10 0)
(-1.387e-09 2.25381e-09 0)
(-4.0999e-09 -5.81346e-09 0)
(-2.77537e-09 -1.92661e-09 0)
(-2.39087e-09 4.42715e-10 0)
(-2.48527e-09 3.11977e-09 0)
(-6.02984e-09 -7.36517e-09 0)
(-4.34782e-09 -2.81039e-09 0)
(-3.74609e-09 3.42761e-10 0)
(-3.69978e-09 3.55078e-09 0)
(-8.123e-09 -8.67497e-09 0)
(-6.16647e-09 -3.73216e-09 0)
(-5.32621e-09 5.38167e-11 0)
(-5.05351e-09 3.61611e-09 0)
(-1.03642e-08 -9.84404e-09 0)
(-8.19174e-09 -4.69488e-09 0)
(-7.1044e-09 -4.34874e-10 0)
(-6.54688e-09 3.36758e-09 0)
(-1.27589e-08 -1.09564e-08 0)
(-1.04171e-08 -5.714e-09 0)
(-9.07914e-09 -1.12494e-09 0)
(-8.19538e-09 2.84682e-09 0)
(-1.53084e-08 -1.20768e-08 0)
(-1.28271e-08 -6.81091e-09 0)
(-1.12416e-08 -2.0156e-09 0)
(-1.00126e-08 2.08282e-09 0)
(-1.8018e-08 -1.32573e-08 0)
(-1.54167e-08 -8.01027e-09 0)
(-1.35914e-08 -3.10388e-09 0)
(-1.2016e-08 1.09643e-09 0)
(-2.08921e-08 -1.45382e-08 0)
(-1.81823e-08 -9.3363e-09 0)
(-1.61304e-08 -4.38706e-09 0)
(-1.42241e-08 -9.85115e-11 0)
(-2.39351e-08 -1.59508e-08 0)
(-2.11252e-08 -1.08107e-08 0)
(-1.88654e-08 -5.86267e-09 0)
(-1.66569e-08 -1.49272e-09 0)
(-2.71505e-08 -1.75175e-08 0)
(-2.42501e-08 -1.24504e-08 0)
(-2.1807e-08 -7.52848e-09 0)
(-1.93361e-08 -3.07982e-09 0)
(-3.05408e-08 -1.92525e-08 0)
(-2.75647e-08 -1.42665e-08 0)
(-2.49698e-08 -9.38134e-09 0)
(-2.22849e-08 -4.85415e-09 0)
(-3.41076e-08 -2.11607e-08 0)
(-3.10788e-08 -1.62622e-08 0)
(-2.83715e-08 -1.14154e-08 0)
(-2.55288e-08 -6.80846e-09 0)
(-3.78518e-08 -2.32375e-08 0)
(-3.48044e-08 -1.84317e-08 0)
(-3.20327e-08 -1.36198e-08 0)
(-2.90955e-08 -8.93121e-09 0)
(-4.17735e-08 -2.54665e-08 0)
(-3.87543e-08 -2.07578e-08 0)
(-3.59765e-08 -1.59755e-08 0)
(-3.30154e-08 -1.12033e-08 0)
(-4.58722e-08 -2.78175e-08 0)
(-4.29422e-08 -2.321e-08 0)
(-4.02276e-08 -1.84519e-08 0)
(-3.73216e-08 -1.35946e-08 0)
(-5.0147e-08 -3.02433e-08 0)
(-4.73824e-08 -2.57406e-08 0)
(-4.48121e-08 -2.10026e-08 0)
(-4.20501e-08 -1.60593e-08 0)
(-5.45968e-08 -3.26759e-08 0)
(-5.20891e-08 -2.82811e-08 0)
(-4.97576e-08 -2.35607e-08 0)
(-4.72396e-08 -1.85317e-08 0)
(-5.92208e-08 -3.50217e-08 0)
(-5.70771e-08 -3.0737e-08 0)
(-5.50924e-08 -2.60334e-08 0)
(-5.29305e-08 -2.09206e-08 0)
(-6.40187e-08 -3.71561e-08 0)
(-6.23614e-08 -3.29825e-08 0)
(-6.08456e-08 -2.82965e-08 0)
(-5.91651e-08 -2.31037e-08 0)
(-6.89922e-08 -3.8917e-08 0)
(-6.7958e-08 -3.48543e-08 0)
(-6.70465e-08 -3.01879e-08 0)
(-6.59855e-08 -2.49213e-08 0)
(-7.43412e-08 -4.0144e-08 0)
(-7.41097e-08 -3.6194e-08 0)
(-7.39792e-08 -3.1551e-08 0)
(-7.3718e-08 -2.62174e-08 0)
(-7.98633e-08 -4.04318e-08 0)
(-8.06041e-08 -3.65896e-08 0)
(-8.14233e-08 -3.19741e-08 0)
(-8.21319e-08 -2.65874e-08 0)
(-8.52103e-08 -3.95874e-08 0)
(-8.70158e-08 -3.58392e-08 0)
(-8.88768e-08 -3.1254e-08 0)
(-9.06476e-08 -2.58336e-08 0)
(-9.04115e-08 -3.75267e-08 0)
(-9.33527e-08 -3.38587e-08 0)
(-9.63264e-08 -2.93064e-08 0)
(-9.92304e-08 -2.38718e-08 0)
(-9.54965e-08 -3.41892e-08 0)
(-9.96226e-08 -3.05875e-08 0)
(-1.03758e-07 -2.60709e-08 0)
(-1.07845e-07 -2.06416e-08 0)
(-1.00494e-07 -2.95386e-08 0)
(-1.05833e-07 -2.59898e-08 0)
(-1.11159e-07 -2.15115e-08 0)
(-1.16456e-07 -1.61061e-08 0)
(-1.05434e-07 -2.3562e-08 0)
(-1.11992e-07 -2.0053e-08 0)
(-1.18516e-07 -1.56156e-08 0)
(-1.2503e-07 -1.02523e-08 0)
(-1.10341e-07 -1.62688e-08 0)
(-1.18105e-07 -1.27874e-08 0)
(-1.25816e-07 -8.39332e-09 0)
(-1.33533e-07 -3.08928e-09 0)
(-1.1524e-07 -7.68952e-09 0)
(-1.24179e-07 -4.22458e-09 0)
(-1.33047e-07 1.23791e-10 0)
(-1.41936e-07 5.35279e-09 0)
(-1.20154e-07 2.12585e-09 0)
(-1.30219e-07 5.58412e-09 0)
(-1.40197e-07 9.8846e-09 0)
(-1.50209e-07 1.50243e-08 0)
(-1.251e-07 1.31101e-08 0)
(-1.36229e-07 1.657e-08 0)
(-1.47256e-07 2.08204e-08 0)
(-1.58328e-07 2.58583e-08 0)
(-1.30095e-07 2.5181e-08 0)
(-1.42212e-07 2.8649e-08 0)
(-1.54215e-07 3.28475e-08 0)
(-1.66272e-07 3.7773e-08 0)
(-1.3515e-07 3.82441e-08 0)
(-1.48169e-07 4.17251e-08 0)
(-1.61065e-07 4.58697e-08 0)
(-1.74021e-07 5.06744e-08 0)
(-1.40273e-07 5.21958e-08 0)
(-1.54101e-07 5.56924e-08 0)
(-1.67799e-07 5.97813e-08 0)
(-1.81561e-07 6.44589e-08 0)
(-1.45466e-07 6.6926e-08 0)
(-1.60006e-07 7.04389e-08 0)
(-1.74413e-07 7.44703e-08 0)
(-1.88883e-07 7.90167e-08 0)
(-1.5073e-07 8.23215e-08 0)
(-1.65882e-07 8.58492e-08 0)
(-1.80901e-07 8.98216e-08 0)
(-1.95981e-07 9.4235e-08 0)
(-1.56057e-07 9.82692e-08 0)
(-1.71725e-07 1.01808e-07 0)
(-1.87261e-07 1.0572e-07 0)
(-2.02853e-07 1.10001e-07 0)
(-1.61441e-07 1.14659e-07 0)
(-1.77529e-07 1.18204e-07 0)
(-1.93492e-07 1.22054e-07 0)
(-2.09502e-07 1.26204e-07 0)
(-1.66866e-07 1.31388e-07 0)
(-1.83289e-07 1.34932e-07 0)
(-1.99593e-07 1.38718e-07 0)
(-2.15934e-07 1.42742e-07 0)
(-1.72318e-07 1.48361e-07 0)
(-1.88996e-07 1.51894e-07 0)
(-2.05565e-07 1.55615e-07 0)
(-2.22159e-07 1.5952e-07 0)
(-1.77775e-07 1.65495e-07 0)
(-1.94642e-07 1.69007e-07 0)
(-2.11411e-07 1.72661e-07 0)
(-2.2819e-07 1.76454e-07 0)
(-1.83217e-07 1.8272e-07 0)
(-2.00218e-07 1.862e-07 0)
(-2.17134e-07 1.89786e-07 0)
(-2.34044e-07 1.93475e-07 0)
(-1.88618e-07 1.99984e-07 0)
(-2.05713e-07 2.03419e-07 0)
(-2.22737e-07 2.06935e-07 0)
(-2.39739e-07 2.1053e-07 0)
(-1.93953e-07 2.1725e-07 0)
(-2.11117e-07 2.20626e-07 0)
(-2.28225e-07 2.24071e-07 0)
(-2.45295e-07 2.27583e-07 0)
(-1.99195e-07 2.34499e-07 0)
(-2.1642e-07 2.37802e-07 0)
(-2.33604e-07 2.41174e-07 0)
(-2.50733e-07 2.44613e-07 0)
(-2.04317e-07 2.51731e-07 0)
(-2.21611e-07 2.54948e-07 0)
(-2.38879e-07 2.58245e-07 0)
(-2.56074e-07 2.61622e-07 0)
(-2.09294e-07 2.68965e-07 0)
(-2.2668e-07 2.72082e-07 0)
(-2.44054e-07 2.75303e-07 0)
(-2.6134e-07 2.78627e-07 0)
(-2.141e-07 2.86236e-07 0)
(-2.31617e-07 2.8924e-07 0)
(-2.49135e-07 2.92384e-07 0)
(-2.66551e-07 2.95665e-07 0)
(-2.18712e-07 3.03598e-07 0)
(-2.36413e-07 3.06478e-07 0)
(-2.54127e-07 3.09541e-07 0)
(-2.71725e-07 3.12787e-07 0)
(-2.23109e-07 3.21118e-07 0)
(-2.4106e-07 3.23863e-07 0)
(-2.59034e-07 3.26844e-07 0)
(-2.76881e-07 3.30063e-07 0)
(-2.27273e-07 3.38879e-07 0)
(-2.4555e-07 3.41479e-07 0)
(-2.63858e-07 3.44377e-07 0)
(-2.8203e-07 3.47573e-07 0)
(-2.31189e-07 3.56973e-07 0)
(-2.49877e-07 3.5942e-07 0)
(-2.68603e-07 3.62233e-07 0)
(-2.87185e-07 3.6541e-07 0)
(-2.34845e-07 3.75501e-07 0)
(-2.54037e-07 3.7779e-07 0)
(-2.73269e-07 3.80515e-07 0)
(-2.92354e-07 3.83676e-07 0)
(-2.38235e-07 3.9457e-07 0)
(-2.58025e-07 3.96697e-07 0)
(-2.77857e-07 3.99333e-07 0)
(-2.9754e-07 4.02477e-07 0)
(-2.41354e-07 4.14291e-07 0)
(-2.6184e-07 4.16255e-07 0)
(-2.82365e-07 4.18799e-07 0)
(-3.02744e-07 4.21923e-07 0)
(-2.44203e-07 4.34775e-07 0)
(-2.65479e-07 4.36574e-07 0)
(-2.86792e-07 4.39024e-07 0)
(-3.07961e-07 4.42126e-07 0)
(-2.46785e-07 4.56127e-07 0)
(-2.68945e-07 4.57764e-07 0)
(-2.91134e-07 4.6012e-07 0)
(-3.13185e-07 4.63193e-07 0)
(-2.49111e-07 4.7845e-07 0)
(-2.72238e-07 4.7993e-07 0)
(-2.95385e-07 4.82188e-07 0)
(-3.18403e-07 4.85224e-07 0)
(-2.5119e-07 5.01837e-07 0)
(-2.75361e-07 5.03164e-07 0)
(-2.9954e-07 5.05323e-07 0)
(-3.23601e-07 5.08313e-07 0)
(-2.53038e-07 5.26368e-07 0)
(-2.78317e-07 5.27551e-07 0)
(-3.03591e-07 5.29609e-07 0)
(-3.2876e-07 5.32541e-07 0)
(-2.54674e-07 5.5211e-07 0)
(-2.81113e-07 5.53158e-07 0)
(-3.07532e-07 5.55114e-07 0)
(-3.3386e-07 5.57977e-07 0)
(-2.56118e-07 5.79117e-07 0)
(-2.83753e-07 5.80039e-07 0)
(-3.11352e-07 5.81891e-07 0)
(-3.38876e-07 5.84671e-07 0)
(-2.57392e-07 6.0742e-07 0)
(-2.86244e-07 6.08228e-07 0)
(-3.15042e-07 6.09975e-07 0)
(-3.43782e-07 6.12658e-07 0)
(-2.5852e-07 6.37035e-07 0)
(-2.88592e-07 6.37741e-07 0)
(-3.18593e-07 6.39381e-07 0)
(-3.48552e-07 6.41953e-07 0)
(-2.59525e-07 6.67958e-07 0)
(-2.90803e-07 6.68572e-07 0)
(-3.21994e-07 6.70104e-07 0)
(-3.53159e-07 6.72552e-07 0)
(-2.60432e-07 7.00162e-07 0)
(-2.92885e-07 7.00697e-07 0)
(-3.25235e-07 7.02121e-07 0)
(-3.57574e-07 7.0443e-07 0)
(-2.61262e-07 7.33604e-07 0)
(-2.94845e-07 7.34071e-07 0)
(-3.28307e-07 7.35385e-07 0)
(-3.61773e-07 7.37543e-07 0)
(-2.62038e-07 7.68221e-07 0)
(-2.96686e-07 7.6863e-07 0)
(-3.312e-07 7.69834e-07 0)
(-3.65731e-07 7.7183e-07 0)
(-2.62778e-07 8.03933e-07 0)
(-2.98415e-07 8.04294e-07 0)
(-3.33907e-07 8.05387e-07 0)
(-3.69425e-07 8.0721e-07 0)
(-2.63497e-07 8.40647e-07 0)
(-3.00036e-07 8.40967e-07 0)
(-3.36419e-07 8.41948e-07 0)
(-3.72838e-07 8.43591e-07 0)
(-2.64207e-07 8.78256e-07 0)
(-3.0155e-07 8.7854e-07 0)
(-3.38732e-07 8.7941e-07 0)
(-3.75954e-07 8.80866e-07 0)
(-2.64917e-07 9.16646e-07 0)
(-3.02961e-07 9.16897e-07 0)
(-3.4084e-07 9.17655e-07 0)
(-3.78761e-07 9.1892e-07 0)
(-2.6563e-07 9.55693e-07 0)
(-3.04267e-07 9.55913e-07 0)
(-3.42739e-07 9.5656e-07 0)
(-3.81253e-07 9.57633e-07 0)
(-2.66345e-07 9.95276e-07 0)
(-3.05468e-07 9.95463e-07 0)
(-3.44429e-07 9.95998e-07 0)
(-3.83429e-07 9.96879e-07 0)
(-2.67057e-07 1.03527e-06 0)
(-3.06561e-07 1.03542e-06 0)
(-3.4591e-07 1.03584e-06 0)
(-3.85291e-07 1.03654e-06 0)
(-2.67755e-07 1.07555e-06 0)
(-3.0754e-07 1.07566e-06 0)
(-3.47181e-07 1.07597e-06 0)
(-3.86847e-07 1.07648e-06 0)
(-2.68425e-07 1.11602e-06 0)
(-3.08398e-07 1.11608e-06 0)
(-3.48245e-07 1.11627e-06 0)
(-3.88111e-07 1.1166e-06 0)
(-2.69047e-07 1.15657e-06 0)
(-3.09125e-07 1.15656e-06 0)
(-3.49104e-07 1.15663e-06 0)
(-3.89101e-07 1.15681e-06 0)
(-2.69599e-07 1.1971e-06 0)
(-3.09712e-07 1.19702e-06 0)
(-3.49764e-07 1.19698e-06 0)
(-3.89844e-07 1.19701e-06 0)
(-2.70057e-07 1.23749e-06 0)
(-3.10158e-07 1.23737e-06 0)
(-3.5024e-07 1.23727e-06 0)
(-3.90368e-07 1.23722e-06 0)
)
;

boundaryField
{
    plateFix
    {
        type            fixedDisplacement;
        value           uniform (0 0 0);
    }
    plate
    {
        type            solidTraction;
        nonLinear       updatedLagrangian;
        traction        uniform (0 0 0);
        pressure        uniform 0;
        value           nonuniform List<vector> 
168
(
(-7.37839e-09 -4.00408e-09 1.81753e-26)
(-4.34862e-09 2.40448e-09 3.85941e-27)
(-7.37793e-09 -6.47716e-09 -4.14908e-26)
(-3.98506e-09 3.81729e-09 -3.61563e-27)
(-7.89051e-09 -8.49964e-09 1.61043e-27)
(-3.91166e-09 4.78293e-09 1.83117e-26)
(-8.93785e-09 -1.00771e-08 1.67967e-26)
(-4.21573e-09 5.27339e-09 3.96539e-26)
(-1.04692e-08 -1.13998e-08 -1.08329e-28)
(-4.89088e-09 5.39769e-09 -3.52901e-26)
(-1.23749e-08 -1.25615e-08 -1.5345e-26)
(-5.87794e-09 5.20128e-09 -1.68938e-26)
(-1.45913e-08 -1.3659e-08 2.76714e-26)
(-7.14797e-09 4.7334e-09 -1.48355e-26)
(-1.70672e-08 -1.47575e-08 -4.07709e-26)
(-8.67955e-09 4.02258e-09 2.94801e-26)
(-1.9771e-08 -1.59115e-08 1.47346e-26)
(-1.0466e-08 3.09065e-09 -1.4609e-26)
(-2.26799e-08 -1.71612e-08 1.14968e-26)
(-1.25082e-08 1.95102e-09 1.24753e-26)
(-2.57784e-08 -1.85381e-08 -2.0078e-26)
(-1.48147e-08 6.12773e-10 1.04756e-26)
(-2.90549e-08 -2.00643e-08 1.96358e-26)
(-1.73997e-08 -9.17988e-10 -9.91222e-27)
(-3.25001e-08 -2.1754e-08 -8.41552e-27)
(-2.02827e-08 -2.6357e-09 -1.70538e-27)
(-3.6106e-08 -2.36125e-08 -7.50223e-27)
(-2.34881e-08 -4.53315e-09 -3.3971e-27)
(-3.98654e-08 -2.56352e-08 6.15255e-28)
(-2.70452e-08 -6.59872e-09 -3.97756e-27)
(-4.37708e-08 -2.78061e-08 6.04491e-27)
(-3.09879e-08 -8.81333e-09 -9.51108e-27)
(-4.7815e-08 -3.00956e-08 -5.6071e-27)
(-3.53542e-08 -1.11468e-08 2.21282e-27)
(-5.19901e-08 -3.2457e-08 6.57769e-28)
(-4.01865e-08 -1.35538e-08 1.45947e-28)
(-5.62878e-08 -3.48229e-08 1.11556e-26)
(-4.55302e-08 -1.5969e-08 -9.3874e-29)
(-6.07001e-08 -3.71006e-08 -3.39825e-27)
(-5.14337e-08 -1.83019e-08 5.13056e-27)
(-6.52193e-08 -3.91661e-08 -8.96709e-29)
(-5.7947e-08 -2.04313e-08 1.43351e-26)
(-6.98399e-08 -4.08586e-08 4.85786e-27)
(-6.51194e-08 -2.21987e-08 -3.16918e-28)
(-7.47372e-08 -4.20169e-08 -4.26868e-27)
(-7.33025e-08 -2.34489e-08 -1.54627e-28)
(-7.97213e-08 -4.22398e-08 2.96576e-27)
(-8.22531e-08 -2.37814e-08 -7.26933e-27)
(-8.44828e-08 -4.13396e-08 5.40446e-27)
(-9.1353e-08 -2.30021e-08 2.21502e-26)
(-8.90623e-08 -3.92323e-08 -7.50061e-28)
(-1.00556e-07 -2.10269e-08 -4.56449e-27)
(-9.35016e-08 -3.58575e-08 -3.20775e-27)
(-1.09815e-07 -1.77953e-08 9.20891e-27)
(-9.78414e-08 -3.11788e-08 1.25391e-26)
(-1.19083e-07 -1.32704e-08 3.29731e-27)
(-1.02121e-07 -2.51827e-08 6.60976e-27)
(-1.28314e-07 -7.43843e-09 -3.70898e-27)
(-1.06379e-07 -1.78783e-08 3.50788e-27)
(-1.37464e-07 -3.07916e-10 1.52824e-26)
(-1.1065e-07 -9.29533e-09 5.3212e-28)
(-1.46494e-07 8.09175e-09 -1.328e-28)
(-1.14963e-07 5.17046e-10 -1.80011e-27)
(-1.55366e-07 1.7712e-08 1.22023e-26)
(-1.19347e-07 1.14926e-08 -4.75768e-27)
(-1.64046e-07 2.8487e-08 -7.66999e-29)
(-1.23824e-07 2.35503e-08 -1.66114e-27)
(-1.72506e-07 4.03361e-08 -1.25812e-26)
(-1.28409e-07 3.6597e-08 -4.2873e-28)
(-1.80722e-07 5.31668e-08 1.16838e-26)
(-1.33116e-07 5.05301e-08 -3.60201e-27)
(-1.88677e-07 6.68768e-08 -8.08207e-28)
(-1.37949e-07 6.52411e-08 -1.10595e-27)
(-1.96357e-07 8.13579e-08 1.14409e-27)
(-1.42908e-07 8.0618e-08 2.0408e-27)
(-2.03756e-07 9.64986e-08 -2.97865e-27)
(-1.47988e-07 9.65492e-08 1.2579e-27)
(-2.10875e-07 1.12187e-07 7.01496e-28)
(-1.53176e-07 1.12926e-07 2.16476e-27)
(-2.17716e-07 1.28316e-07 6.76462e-27)
(-1.58457e-07 1.29646e-07 9.16351e-28)
(-2.24291e-07 1.44781e-07 1.36316e-27)
(-1.63807e-07 1.46616e-07 6.26598e-27)
(-2.30615e-07 1.61491e-07 -7.16385e-27)
(-1.69202e-07 1.63753e-07 1.6109e-27)
(-2.36707e-07 1.78362e-07 -8.95393e-27)
(-1.74611e-07 1.8099e-07 -1.41811e-27)
(-2.42592e-07 1.95327e-07 -5.23006e-27)
(-1.80003e-07 1.98273e-07 3.83728e-27)
(-2.48295e-07 2.12331e-07 -4.06146e-27)
(-1.85342e-07 2.15566e-07 -1.53546e-27)
(-2.53845e-07 2.2934e-07 2.56813e-27)
(-1.90593e-07 2.32851e-07 -8.69538e-28)
(-2.59272e-07 2.46335e-07 -3.58948e-28)
(-1.9572e-07 2.50128e-07 -7.55607e-28)
(-2.64608e-07 2.63314e-07 -2.74003e-27)
(-2.00688e-07 2.67415e-07 -9.01188e-28)
(-2.69882e-07 2.80297e-07 3.58491e-27)
(-2.05463e-07 2.84747e-07 -3.77561e-27)
(-2.75122e-07 2.97319e-07 -5.11489e-27)
(-2.10015e-07 3.02178e-07 2.85735e-28)
(-2.80357e-07 3.14431e-07 3.81523e-27)
(-2.14314e-07 3.19774e-07 6.92768e-28)
(-2.8561e-07 3.31701e-07 -1.40706e-27)
(-2.18336e-07 3.37616e-07 -6.03578e-27)
(-2.90901e-07 3.49209e-07 -1.16147e-27)
(-2.22062e-07 3.55796e-07 6.76746e-27)
(-2.96246e-07 3.67047e-07 4.64164e-27)
(-2.25477e-07 3.74414e-07 8.15694e-27)
(-3.01657e-07 3.85315e-07 4.60619e-27)
(-2.2857e-07 3.93575e-07 -3.01159e-27)
(-3.07139e-07 4.04118e-07 -4.86657e-27)
(-2.31338e-07 4.13389e-07 5.80375e-27)
(-3.12693e-07 4.23567e-07 6.07366e-27)
(-2.33782e-07 4.33965e-07 -1.86984e-27)
(-3.18316e-07 4.43769e-07 -5.72722e-27)
(-2.35907e-07 4.55409e-07 -1.01038e-26)
(-3.23997e-07 4.64831e-07 -6.73126e-29)
(-2.37727e-07 4.7782e-07 1.24813e-26)
(-3.29721e-07 4.86853e-07 -2.31271e-27)
(-2.39257e-07 5.0129e-07 -6.04689e-27)
(-3.35469e-07 5.09927e-07 1.81422e-26)
(-2.40519e-07 5.259e-07 -6.73242e-27)
(-3.41214e-07 5.34133e-07 -7.1505e-27)
(-2.41539e-07 5.51716e-07 -8.74929e-27)
(-3.4693e-07 5.59538e-07 -4.04206e-28)
(-2.42345e-07 5.78789e-07 -7.49123e-27)
(-3.52583e-07 5.86194e-07 1.53001e-26)
(-2.4297e-07 6.07151e-07 9.29103e-27)
(-3.58139e-07 6.14135e-07 -7.1047e-27)
(-2.43445e-07 6.36817e-07 -3.13393e-29)
(-3.63561e-07 6.43374e-07 -7.87985e-27)
(-2.43805e-07 6.67782e-07 1.05759e-27)
(-3.68812e-07 6.73907e-07 8.76552e-27)
(-2.44084e-07 7.00022e-07 1.01365e-26)
(-3.73855e-07 7.05711e-07 9.43716e-27)
(-2.44313e-07 7.33492e-07 9.58809e-27)
(-3.78655e-07 7.38743e-07 -9.42335e-27)
(-2.44523e-07 7.6813e-07 1.02731e-26)
(-3.83178e-07 7.7294e-07 -6.58577e-32)
(-2.4474e-07 8.03858e-07 4.78781e-28)
(-3.87395e-07 8.08224e-07 -1.03883e-29)
(-2.44987e-07 8.40582e-07 -7.26524e-28)
(-3.9128e-07 8.44504e-07 -2.22528e-26)
(-2.45279e-07 8.78198e-07 2.31669e-26)
(-3.94812e-07 8.81674e-07 1.12559e-26)
(-2.4563e-07 9.16591e-07 -1.17253e-26)
(-3.97977e-07 9.19621e-07 -1.22519e-26)
(-2.46045e-07 9.55642e-07 -1.16729e-26)
(-4.00767e-07 9.58226e-07 1.22524e-26)
(-2.46525e-07 9.95229e-07 7.18296e-28)
(-4.03177e-07 9.97364e-07 6.04522e-30)
(-2.47062e-07 1.03523e-06 -3.62733e-30)
(-4.05213e-07 1.03691e-06 -1.39392e-26)
(-2.47642e-07 1.07552e-06 2.26307e-30)
(-4.06885e-07 1.07676e-06 1.44515e-26)
(-2.48247e-07 1.11601e-06 -2.38136e-30)
(-4.08212e-07 1.11679e-06 -2.64688e-28)
(-2.48856e-07 1.15657e-06 -2.63683e-31)
(-4.09223e-07 1.1569e-06 1.48485e-26)
(-2.49448e-07 1.19713e-06 1.38e-30)
(-4.09969e-07 1.19702e-06 1.5957e-26)
(-2.50012e-07 1.23756e-06 -1.04476e-29)
(-2.70235e-07 1.25755e-06 1.62927e-29)
(-3.10339e-07 1.25745e-06 3.77412e-27)
(-3.50433e-07 1.25736e-06 -4.19913e-27)
(-3.90567e-07 1.2574e-06 -4.52551e-30)
(-4.10533e-07 1.23718e-06 -1.20005e-30)
)
;
    }
    frontAndBackPlanes
    {
        type            empty;
    }
}


// ************************************************************************* //
