/*--------------------------------*- C++ -*----------------------------------*\
| =========                 |                                                 |
| \\      /  F ield         | OpenFOAM Extend Project: Open source CFD        |
|  \\    /   O peration     | Version:  1.6-ext                               |
|   \\  /    A nd           | Web:      www.extend-project.de                 |
|    \\/     M anipulation  |                                                 |
\*---------------------------------------------------------------------------*/
FoamFile
{
    version     2.0;
    format      ascii;
    class       volVectorField;
    location    "0.9";
    object      DV;
}
// * * * * * * * * * * * * * * * * * * * * * * * * * * * * * * * * * * * * * //

dimensions      [0 1 -1 0 0 0 0];

internalField   nonuniform List<vector> 
328
(
(3.70064e-07 7.23934e-07 0)
(2.40598e-07 1.53679e-07 0)
(2.36402e-07 -1.39386e-07 0)
(3.46427e-07 -6.79206e-07 0)
(1.12701e-06 1.86335e-06 0)
(7.96002e-07 4.56549e-07 0)
(7.81329e-07 -3.99476e-07 0)
(1.05567e-06 -1.73675e-06 0)
(2.00319e-06 2.72168e-06 0)
(1.5401e-06 7.52486e-07 0)
(1.51056e-06 -6.35972e-07 0)
(1.87894e-06 -2.51297e-06 0)
(2.95736e-06 3.34641e-06 0)
(2.41153e-06 1.02046e-06 0)
(2.3653e-06 -8.27418e-07 0)
(2.77795e-06 -3.05039e-06 0)
(4.00153e-06 3.79805e-06 0)
(3.42226e-06 1.25301e-06 0)
(3.35768e-06 -9.65807e-07 0)
(3.76502e-06 -3.4049e-06 0)
(5.1308e-06 4.12329e-06 0)
(4.5524e-06 1.44846e-06 0)
(4.46876e-06 -1.04824e-06 0)
(4.83648e-06 -3.61935e-06 0)
(6.35094e-06 4.36056e-06 0)
(5.79943e-06 1.61154e-06 0)
(5.69642e-06 -1.07804e-06 0)
(5.99889e-06 -3.72884e-06 0)
(7.66589e-06 4.53875e-06 0)
(7.15603e-06 1.74958e-06 0)
(7.03385e-06 -1.06087e-06 0)
(7.25713e-06 -3.75943e-06 0)
(9.08195e-06 4.6804e-06 0)
(8.6205e-06 1.87149e-06 0)
(8.47969e-06 -1.00399e-06 0)
(8.61843e-06 -3.73127e-06 0)
(1.06053e-05 4.80239e-06 0)
(1.01921e-05 1.98595e-06 0)
(1.00336e-05 -9.14541e-07 0)
(1.009e-05 -3.6593e-06 0)
(1.22426e-05 4.91738e-06 0)
(1.18732e-05 2.10069e-06 0)
(1.16984e-05 -7.98947e-07 0)
(1.16798e-05 -3.55465e-06 0)
(1.40006e-05 5.03438e-06 0)
(1.36679e-05 2.22181e-06 0)
(1.34786e-05 -6.62417e-07 0)
(1.33958e-05 -3.42531e-06 0)
(1.58862e-05 5.15947e-06 0)
(1.55828e-05 2.35369e-06 0)
(1.53813e-05 -5.08891e-07 0)
(1.52464e-05 -3.27683e-06 0)
(1.79067e-05 5.29623e-06 0)
(1.76257e-05 2.49889e-06 0)
(1.74148e-05 -3.41175e-07 0)
(1.72404e-05 -3.11295e-06 0)
(2.00697e-05 5.44619e-06 0)
(1.9806e-05 2.65837e-06 0)
(1.95892e-05 -1.61284e-07 0)
(1.93873e-05 -2.93617e-06 0)
(2.23833e-05 5.60912e-06 0)
(2.21341e-05 2.83164e-06 0)
(2.19154e-05 2.91246e-08 0)
(2.1697e-05 -2.74834e-06 0)
(2.48561e-05 5.78328e-06 0)
(2.46209e-05 3.01685e-06 0)
(2.44052e-05 2.28233e-07 0)
(2.41804e-05 -2.5513e-06 0)
(2.74973e-05 5.96542e-06 0)
(2.72781e-05 3.21075e-06 0)
(2.7071e-05 4.33503e-07 0)
(2.6849e-05 -2.34745e-06 0)
(3.03168e-05 6.15067e-06 0)
(3.01177e-05 3.40856e-06 0)
(2.99255e-05 6.41103e-07 0)
(2.97153e-05 -2.14042e-06 0)
(3.33251e-05 6.33225e-06 0)
(3.3152e-05 3.60361e-06 0)
(3.29819e-05 8.45333e-07 0)
(3.27923e-05 -1.93561e-06 0)
(3.65333e-05 6.50117e-06 0)
(3.63936e-05 3.78698e-06 0)
(3.62537e-05 1.03813e-06 0)
(3.60937e-05 -1.74071e-06 0)
(3.99533e-05 6.6459e-06 0)
(3.98555e-05 3.94721e-06 0)
(3.97544e-05 1.20871e-06 0)
(3.96332e-05 -1.56604e-06 0)
(4.37366e-05 6.75625e-06 0)
(4.3692e-05 4.07474e-06 0)
(4.36405e-05 1.34855e-06 0)
(4.35696e-05 -1.41931e-06 0)
(4.77571e-05 6.8042e-06 0)
(4.77754e-05 4.141e-06 0)
(4.77834e-05 1.42922e-06 0)
(4.77725e-05 -1.32836e-06 0)
(5.17496e-05 6.77673e-06 0)
(5.18347e-05 4.13173e-06 0)
(5.19062e-05 1.43572e-06 0)
(5.19594e-05 -1.30858e-06 0)
(5.57148e-05 6.67128e-06 0)
(5.58688e-05 4.04442e-06 0)
(5.60059e-05 1.3656e-06 0)
(5.61253e-05 -1.36253e-06 0)
(5.96535e-05 6.48766e-06 0)
(5.98766e-05 3.87901e-06 0)
(6.00796e-05 1.21878e-06 0)
(6.02653e-05 -1.49042e-06 0)
(6.35663e-05 6.22761e-06 0)
(6.38567e-05 3.63735e-06 0)
(6.41243e-05 9.97098e-07 0)
(6.43748e-05 -1.69055e-06 0)
(6.74531e-05 5.89442e-06 0)
(6.7808e-05 3.32285e-06 0)
(6.81374e-05 7.03956e-07 0)
(6.84496e-05 -1.95968e-06 0)
(7.13139e-05 5.49259e-06 0)
(7.17289e-05 2.94013e-06 0)
(7.2116e-05 3.43955e-07 0)
(7.24858e-05 -2.29336e-06 0)
(7.51482e-05 5.02767e-06 0)
(7.56181e-05 2.49485e-06 0)
(7.60577e-05 -7.72598e-08 0)
(7.64796e-05 -2.68608e-06 0)
(7.89556e-05 4.50616e-06 0)
(7.9474e-05 1.9936e-06 0)
(7.99598e-05 -5.53099e-07 0)
(8.04275e-05 -3.13138e-06 0)
(8.27353e-05 3.93547e-06 0)
(8.32949e-05 1.4439e-06 0)
(8.382e-05 -1.07607e-06 0)
(8.43263e-05 -3.62187e-06 0)
(8.64863e-05 3.32387e-06 0)
(8.70792e-05 8.54113e-07 0)
(8.76358e-05 -1.63781e-06 0)
(8.81728e-05 -4.14934e-06 0)
(9.02074e-05 2.68037e-06 0)
(9.08252e-05 2.33366e-07 0)
(9.14049e-05 -2.22921e-06 0)
(9.19642e-05 -4.7048e-06 0)
(9.38972e-05 2.0146e-06 0)
(9.4531e-05 -4.08562e-07 0)
(9.51253e-05 -2.84049e-06 0)
(9.56979e-05 -5.27863e-06 0)
(9.7554e-05 1.33664e-06 0)
(9.81947e-05 -1.06146e-06 0)
(9.87946e-05 -3.46145e-06 0)
(9.93715e-05 -5.86082e-06 0)
(0.000101176 6.56748e-07 0)
(0.000101814 -1.71489e-06 0)
(0.000102411 -4.08169e-06 0)
(0.000102983 -6.44113e-06 0)
(0.00010476 -1.49071e-08 0)
(0.000105388 -2.35853e-06 0)
(0.000105973 -4.69086e-06 0)
(0.000106531 -7.00942e-06 0)
(0.000108304 -6.68514e-07 0)
(0.000108912 -2.98239e-06 0)
(0.000109478 -5.279e-06 0)
(0.000110014 -7.55593e-06 0)
(0.000111805 -1.29494e-06 0)
(0.000112386 -3.57716e-06 0)
(0.000112924 -5.83683e-06 0)
(0.000113432 -8.07158e-06 0)
(0.000115259 -1.88599e-06 0)
(0.000115807 -4.13452e-06 0)
(0.000116312 -6.35604e-06 0)
(0.000116783 -8.54823e-06 0)
(0.000118663 -2.43474e-06 0)
(0.000119172 -4.64741e-06 0)
(0.000119638 -6.82958e-06 0)
(0.000120069 -8.979e-06 0)
(0.000122013 -2.93574e-06 0)
(0.000122479 -5.11027e-06 0)
(0.000122903 -7.25191e-06 0)
(0.000123288 -9.35851e-06 0)
(0.000125304 -3.38521e-06 0)
(0.000125726 -5.51927e-06 0)
(0.000126104 -7.61924e-06 0)
(0.000126442 -9.68304e-06 0)
(0.000128533 -3.78125e-06 0)
(0.000128909 -5.87247e-06 0)
(0.000129242 -7.92964e-06 0)
(0.000129532 -9.95077e-06 0)
(0.000131696 -4.12386e-06 0)
(0.000132026 -6.1699e-06 0)
(0.000132315 -8.18317e-06 0)
(0.000132557 -1.01618e-05 0)
(0.000134787 -4.41501e-06 0)
(0.000135075 -6.41358e-06 0)
(0.000135322 -8.38188e-06 0)
(0.00013552 -1.03181e-05 0)
(0.000137804 -4.65856e-06 0)
(0.000138054 -6.60746e-06 0)
(0.000138262 -8.52974e-06 0)
(0.00013842 -1.04237e-05 0)
(0.000140743 -4.86012e-06 0)
(0.000140959 -6.7573e-06 0)
(0.000141136 -8.63255e-06 0)
(0.000141259 -1.04842e-05 0)
(0.0001436 -5.02692e-06 0)
(0.000143791 -6.87046e-06 0)
(0.000143941 -8.69769e-06 0)
(0.000144036 -1.05071e-05 0)
(0.000146373 -5.16748e-06 0)
(0.000146545 -6.95568e-06 0)
(0.000146678 -8.73394e-06 0)
(0.000146753 -1.05008e-05 0)
(0.000149058 -5.29144e-06 0)
(0.000149221 -7.02279e-06 0)
(0.000149345 -8.75114e-06 0)
(0.000149409 -1.04751e-05 0)
(0.000151654 -5.40923e-06 0)
(0.000151818 -7.0824e-06 0)
(0.000151941 -8.75995e-06 0)
(0.000152004 -1.04406e-05 0)
(0.000154159 -5.5318e-06 0)
(0.000154332 -7.14568e-06 0)
(0.000154466 -8.77156e-06 0)
(0.000154538 -1.04082e-05 0)
(0.00015657 -5.67035e-06 0)
(0.000156765 -7.22402e-06 0)
(0.000156917 -8.79739e-06 0)
(0.000157008 -1.03893e-05 0)
(0.000158888 -5.83612e-06 0)
(0.000159113 -7.32885e-06 0)
(0.000159296 -8.84889e-06 0)
(0.000159416 -1.03951e-05 0)
(0.000161112 -6.04014e-06 0)
(0.000161377 -7.47137e-06 0)
(0.000161599 -8.9373e-06 0)
(0.000161758 -1.04368e-05 0)
(0.00016324 -6.29307e-06 0)
(0.000163555 -7.66242e-06 0)
(0.000163825 -9.07346e-06 0)
(0.000164033 -1.05251e-05 0)
(0.000165273 -6.60504e-06 0)
(0.000165647 -7.91229e-06 0)
(0.000165975 -9.26771e-06 0)
(0.00016624 -1.06702e-05 0)
(0.000167211 -6.98548e-06 0)
(0.000167652 -8.23059e-06 0)
(0.000168045 -9.52965e-06 0)
(0.000168376 -1.08817e-05 0)
(0.000169055 -7.44299e-06 0)
(0.00016957 -8.62604e-06 0)
(0.000170035 -9.86806e-06 0)
(0.000170439 -1.11681e-05 0)
(0.000170805 -7.98508e-06 0)
(0.0001714 -9.10634e-06 0)
(0.000171943 -1.02906e-05 0)
(0.000172426 -1.1537e-05 0)
(0.000172462 -8.61805e-06 0)
(0.000173142 -9.67793e-06 0)
(0.000173768 -1.08039e-05 0)
(0.000174334 -1.1995e-05 0)
(0.000174028 -9.34668e-06 0)
(0.000174796 -1.03457e-05 0)
(0.000175508 -1.14127e-05 0)
(0.000176161 -1.25467e-05 0)
(0.000175504 -1.0174e-05 0)
(0.000176361 -1.11129e-05 0)
(0.000177162 -1.21203e-05 0)
(0.000177904 -1.31954e-05 0)
(0.000176891 -1.11011e-05 0)
(0.000177839 -1.19805e-05 0)
(0.000178727 -1.29278e-05 0)
(0.000179558 -1.39423e-05 0)
(0.000178193 -1.21269e-05 0)
(0.000179228 -1.29476e-05 0)
(0.000180202 -1.38344e-05 0)
(0.00018112 -1.47865e-05 0)
(0.000179409 -1.32482e-05 0)
(0.00018053 -1.4011e-05 0)
(0.000181587 -1.48367e-05 0)
(0.000182589 -1.57249e-05 0)
(0.000180543 -1.44599e-05 0)
(0.000181743 -1.51653e-05 0)
(0.000182878 -1.59297e-05 0)
(0.00018396 -1.67527e-05 0)
(0.000181595 -1.5755e-05 0)
(0.000182869 -1.64037e-05 0)
(0.000184077 -1.71064e-05 0)
(0.000185231 -1.7863e-05 0)
(0.000182566 -1.71255e-05 0)
(0.000183907 -1.77177e-05 0)
(0.00018518 -1.83586e-05 0)
(0.000186401 -1.9048e-05 0)
(0.000183457 -1.85623e-05 0)
(0.000184857 -1.90983e-05 0)
(0.000186189 -1.96772e-05 0)
(0.000187468 -2.02988e-05 0)
(0.000184268 -2.00562e-05 0)
(0.000185718 -2.05361e-05 0)
(0.000187101 -2.10528e-05 0)
(0.000188431 -2.16063e-05 0)
(0.000184998 -2.15978e-05 0)
(0.000186492 -2.20214e-05 0)
(0.000187918 -2.24759e-05 0)
(0.000189291 -2.29613e-05 0)
(0.000185648 -2.31781e-05 0)
(0.000187177 -2.35452e-05 0)
(0.000188638 -2.39374e-05 0)
(0.000190046 -2.43547e-05 0)
(0.000186217 -2.47882e-05 0)
(0.000187773 -2.50985e-05 0)
(0.000189263 -2.54281e-05 0)
(0.000190698 -2.57776e-05 0)
(0.000186703 -2.64201e-05 0)
(0.00018828 -2.66729e-05 0)
(0.00018979 -2.69398e-05 0)
(0.000191246 -2.72218e-05 0)
(0.000187106 -2.80668e-05 0)
(0.000188697 -2.82611e-05 0)
(0.000190222 -2.84647e-05 0)
(0.000191692 -2.86793e-05 0)
(0.000187423 -2.97206e-05 0)
(0.000189021 -2.98558e-05 0)
(0.000190556 -2.99961e-05 0)
(0.000192036 -3.01441e-05 0)
(0.000187657 -3.13752e-05 0)
(0.000189257 -3.14502e-05 0)
(0.000190797 -3.15278e-05 0)
(0.000192283 -3.16099e-05 0)
(0.000187794 -3.30108e-05 0)
(0.000189393 -3.30344e-05 0)
(0.000190935 -3.30578e-05 0)
(0.000192424 -3.30861e-05 0)
)
;

boundaryField
{
    plateFix
    {
        type            calculated;
        value           uniform (0 0 0);
    }
    plate
    {
        type            calculated;
        value           nonuniform List<vector> 
168
(
(3.55151e-06 1.94065e-06 -6.35054e-23)
(3.32291e-06 -1.81373e-06 -2.16361e-23)
(3.46437e-06 3.12002e-06 1.2304e-22)
(3.2069e-06 -2.91181e-06 3.476e-23)
(3.62161e-06 4.03651e-06 1.78092e-23)
(3.31775e-06 -3.7467e-06 -1.16898e-22)
(4.05232e-06 4.6848e-06 -9.77184e-23)
(3.69005e-06 -4.31059e-06 -1.17158e-22)
(4.738e-06 5.15565e-06 1.06497e-23)
(4.30888e-06 -4.68803e-06 1.40822e-22)
(5.62739e-06 5.49164e-06 5.1514e-23)
(5.12673e-06 -4.91794e-06 1.78481e-23)
(6.69219e-06 5.73735e-06 -1.12138e-22)
(6.11793e-06 -5.04115e-06 8.08554e-23)
(7.90999e-06 5.92173e-06 1.57054e-22)
(7.26243e-06 -5.08376e-06 -1.00941e-22)
(9.26868e-06 6.06834e-06 -6.43522e-23)
(8.55009e-06 -5.06683e-06 2.56944e-23)
(1.0761e-05 6.19399e-06 -3.34248e-23)
(9.97552e-06 -5.00515e-06 -3.01597e-23)
(1.23841e-05 6.31131e-06 5.96042e-23)
(1.15377e-05 -4.90982e-06 -3.56933e-23)
(1.41378e-05 6.42923e-06 -4.42475e-23)
(1.32383e-05 -4.78868e-06 2.07943e-23)
(1.60243e-05 6.55381e-06 1.81293e-23)
(1.50813e-05 -4.64724e-06 1.53908e-23)
(1.80474e-05 6.68868e-06 1.80989e-23)
(1.70728e-05 -4.48926e-06 1.07335e-23)
(2.02126e-05 6.83551e-06 3.60966e-25)
(1.92203e-05 -4.31734e-06 3.07381e-24)
(2.25265e-05 6.99421e-06 -2.39052e-23)
(2.15331e-05 -4.13344e-06 2.27283e-23)
(2.49968e-05 7.16318e-06 2.19566e-23)
(2.40217e-05 -3.9395e-06 2.2693e-24)
(2.76321e-05 7.33929e-06 3.07964e-25)
(2.6698e-05 -3.73802e-06 4.56065e-25)
(3.04417e-05 7.51777e-06 -3.52447e-23)
(2.95749e-05 -3.53265e-06 1.11273e-23)
(3.34355e-05 7.69193e-06 1.45874e-23)
(3.26662e-05 -3.32873e-06 -2.52083e-23)
(3.66241e-05 7.85284e-06 -1.35838e-23)
(3.59862e-05 -3.13381e-06 -4.13266e-23)
(4.00192e-05 7.98904e-06 -4.03319e-24)
(3.95493e-05 -2.95801e-06 1.76725e-23)
(4.37709e-05 8.09009e-06 1.26765e-23)
(4.35155e-05 -2.80857e-06 -5.79932e-24)
(4.77547e-05 8.12838e-06 -9.45845e-24)
(4.77533e-05 -2.71304e-06 3.54111e-23)
(5.17084e-05 8.09153e-06 -1.39805e-23)
(5.1977e-05 -2.68692e-06 -8.13738e-23)
(5.56342e-05 7.97693e-06 -1.09117e-24)
(5.61803e-05 -2.73287e-06 1.7519e-23)
(5.95339e-05 7.78433e-06 9.05302e-24)
(6.03572e-05 -2.85116e-06 -3.93502e-23)
(6.34089e-05 7.51539e-06 -4.88666e-23)
(6.45024e-05 -3.04022e-06 -2.13448e-24)
(6.726e-05 7.17329e-06 -2.22183e-23)
(6.8611e-05 -3.29692e-06 1.68065e-23)
(7.10876e-05 6.76245e-06 -6.12595e-24)
(7.26784e-05 -3.6169e-06 -3.27317e-23)
(7.48917e-05 6.28836e-06 -1.54467e-23)
(7.67004e-05 -3.99472e-06 4.18325e-24)
(7.86725e-05 5.75747e-06 1.59188e-24)
(8.0673e-05 -4.42399e-06 -5.21311e-23)
(8.24294e-05 5.17713e-06 6.28306e-24)
(8.45926e-05 -4.89742e-06 9.31171e-24)
(8.61619e-05 4.55554e-06 5.59464e-24)
(8.84556e-05 -5.40684e-06 2.66914e-23)
(8.98693e-05 3.90163e-06 -1.47296e-24)
(9.22587e-05 -5.94336e-06 -3.75243e-23)
(9.35503e-05 3.22496e-06 1.242e-23)
(9.59992e-05 -6.49748e-06 2.6867e-24)
(9.72034e-05 2.5355e-06 3.24241e-24)
(9.96745e-05 -7.05926e-06 -3.53356e-24)
(0.000100827 1.8434e-06 -6.90425e-24)
(0.000103283 -7.61861e-06 1.00517e-23)
(0.000104417 1.15872e-06 -9.04667e-24)
(0.000106822 -8.16552e-06 9.13085e-24)
(0.000107973 4.91153e-07 -3.34216e-24)
(0.000110292 -8.69034e-06 -2.28424e-23)
(0.000111489 -1.50265e-07 1.04468e-24)
(0.000113692 -9.18412e-06 -7.34608e-24)
(0.000114963 -7.57462e-07 -2.31283e-23)
(0.000117023 -9.63885e-06 2.13799e-23)
(0.000118389 -1.32359e-06 -5.23436e-25)
(0.000120284 -1.00478e-05 3.22918e-23)
(0.000121764 -1.84325e-06 -1.81379e-24)
(0.000123477 -1.04055e-05 9.51724e-24)
(0.000125082 -2.31274e-06 -6.52798e-24)
(0.000126603 -1.07085e-05 2.03575e-23)
(0.000128337 -2.73017e-06 -9.61698e-26)
(0.000129664 -1.0955e-05 -1.10036e-23)
(0.000131526 -3.09553e-06 -3.2834e-25)
(0.000132661 -1.1145e-05 4.50878e-24)
(0.000134643 -3.41076e-06 5.87936e-24)
(0.000135597 -1.12805e-05 1.47806e-23)
(0.000137682 -3.67967e-06 1.62083e-24)
(0.000138473 -1.13656e-05 -7.61868e-24)
(0.000140641 -3.90778e-06 -1.32185e-24)
(0.000141291 -1.14058e-05 1.97754e-23)
(0.000143513 -4.1022e-06 6.66748e-24)
(0.000144052 -1.14083e-05 -1.45644e-24)
(0.000146297 -4.27137e-06 -9.29863e-24)
(0.000146757 -1.13818e-05 1.01861e-23)
(0.000148988 -4.42478e-06 -3.14523e-24)
(0.000149406 -1.13358e-05 9.00184e-24)
(0.000151585 -4.57274e-06 -2.04633e-23)
(0.000151999 -1.12807e-05 5.278e-25)
(0.000154084 -4.72607e-06 2.29646e-24)
(0.000154536 -1.12275e-05 -9.70564e-24)
(0.000156486 -4.89586e-06 -2.84904e-24)
(0.000157016 -1.11874e-05 1.08007e-23)
(0.000158788 -5.09321e-06 -2.21815e-23)
(0.000159438 -1.11715e-05 -1.25518e-23)
(0.00016099 -5.32905e-06 7.90049e-24)
(0.000161801 -1.1191e-05 1.29127e-23)
(0.000163091 -5.61395e-06 -2.47137e-25)
(0.000164102 -1.12564e-05 -1.31262e-23)
(0.000165093 -5.95793e-06 -9.81726e-24)
(0.000166339 -1.13779e-05 2.62563e-23)
(0.000166995 -6.37032e-06 9.54044e-24)
(0.00016851 -1.1565e-05 -2.64836e-23)
(0.000168799 -6.85961e-06 -8.00881e-24)
(0.000170612 -1.18261e-05 1.44819e-23)
(0.000170506 -7.43323e-06 3.20625e-23)
(0.000172642 -1.21689e-05 -5.83122e-24)
(0.000172116 -8.09737e-06 1.48076e-23)
(0.000174595 -1.25997e-05 -2.87247e-23)
(0.000173634 -8.85672e-06 -2.14277e-23)
(0.00017647 -1.31232e-05 2.66051e-24)
(0.000175061 -9.71423e-06 1.69194e-23)
(0.00017826 -1.37426e-05 1.71625e-23)
(0.000176399 -1.06709e-05 1.79461e-24)
(0.000179963 -1.4459e-05 7.10463e-24)
(0.000177653 -1.17258e-05 -3.05853e-24)
(0.000181573 -1.52718e-05 -2.36669e-23)
(0.000178823 -1.28756e-05 -3.79495e-23)
(0.000183087 -1.61778e-05 2.36541e-23)
(0.000179914 -1.41153e-05 -1.49735e-23)
(0.0001845 -1.71723e-05 3.46432e-27)
(0.000180927 -1.54381e-05 4.5235e-24)
(0.00018581 -1.82487e-05 -8.03883e-26)
(0.000181863 -1.68359e-05 -3.33252e-23)
(0.000187015 -1.93992e-05 6.06911e-23)
(0.000182723 -1.82999e-05 -5.23301e-23)
(0.000188112 -2.06153e-05 -3.36717e-23)
(0.000183508 -1.98209e-05 1.19341e-23)
(0.000189101 -2.1888e-05 9.2537e-25)
(0.000184217 -2.13898e-05 2.82722e-23)
(0.000189981 -2.3208e-05 -4.35295e-23)
(0.00018485 -2.29974e-05 -2.73065e-24)
(0.000190753 -2.45666e-05 2.5681e-23)
(0.000185407 -2.46352e-05 -1.88336e-23)
(0.000191417 -2.59547e-05 1.37339e-24)
(0.000185884 -2.6295e-05 -2.05423e-23)
(0.000191973 -2.73644e-05 -1.48157e-23)
(0.000186282 -2.79702e-05 -2.81933e-23)
(0.000192425 -2.87876e-05 -4.15034e-23)
(0.000186598 -2.96527e-05 2.92859e-23)
(0.00019277 -3.0219e-05 -6.01381e-23)
(0.000186836 -3.13378e-05 2.28341e-23)
(0.000193019 -3.16504e-05 -2.45134e-23)
(0.000186986 -3.30003e-05 2.72844e-26)
(0.000187831 -3.38139e-05 -4.07377e-26)
(0.000189431 -3.382e-05 -3.58081e-24)
(0.000190973 -3.38168e-05 1.24444e-23)
(0.000192462 -3.38318e-05 -6.98265e-24)
(0.000193166 -3.30978e-05 3.18646e-23)
)
;
    }
    frontAndBackPlanes
    {
        type            empty;
    }
}


// ************************************************************************* //
