/*--------------------------------*- C++ -*----------------------------------*\
| =========                 |                                                 |
| \\      /  F ield         | OpenFOAM Extend Project: Open source CFD        |
|  \\    /   O peration     | Version:  1.6-ext                               |
|   \\  /    A nd           | Web:      www.extend-project.de                 |
|    \\/     M anipulation  |                                                 |
\*---------------------------------------------------------------------------*/
FoamFile
{
    version     2.0;
    format      ascii;
    class       volVectorField;
    location    "0.9";
    object      DV_0;
}
// * * * * * * * * * * * * * * * * * * * * * * * * * * * * * * * * * * * * * //

dimensions      [0 1 -1 0 0 0 0];

internalField   nonuniform List<vector> 
328
(
(3.53091e-07 6.89927e-07 0)
(2.31271e-07 1.45614e-07 0)
(2.28407e-07 -1.37222e-07 0)
(3.37733e-07 -6.64565e-07 0)
(1.07536e-06 1.77464e-06 0)
(7.65012e-07 4.30783e-07 0)
(7.55231e-07 -3.95436e-07 0)
(1.02908e-06 -1.70078e-06 0)
(1.91166e-06 2.58919e-06 0)
(1.47998e-06 7.07202e-07 0)
(1.46079e-06 -6.32856e-07 0)
(1.83139e-06 -2.46376e-06 0)
(2.8227e-06 3.17836e-06 0)
(2.31742e-06 9.54483e-07 0)
(2.28774e-06 -8.28767e-07 0)
(2.70713e-06 -2.99543e-06 0)
(3.82005e-06 3.59957e-06 0)
(3.28887e-06 1.16528e-06 0)
(3.24771e-06 -9.75594e-07 0)
(3.66817e-06 -3.35094e-06 0)
(4.89916e-06 3.89704e-06 0)
(4.37525e-06 1.33764e-06 0)
(4.32219e-06 -1.07094e-06 0)
(4.71079e-06 -3.57279e-06 0)
(6.06567e-06 4.10711e-06 0)
(5.57419e-06 1.47569e-06 0)
(5.50907e-06 -1.11854e-06 0)
(5.84121e-06 -3.69595e-06 0)
(7.32351e-06 4.25698e-06 0)
(6.87869e-06 1.58601e-06 0)
(6.80169e-06 -1.12445e-06 0)
(7.06406e-06 -3.7465e-06 0)
(8.67891e-06 4.3678e-06 0)
(8.28718e-06 1.6767e-06 0)
(8.19876e-06 -1.09628e-06 0)
(8.38621e-06 -3.74461e-06 0)
(1.0138e-05 4.45537e-06 0)
(9.79904e-06 1.75567e-06 0)
(9.69997e-06 -1.04139e-06 0)
(9.81452e-06 -3.70522e-06 0)
(1.17075e-05 4.53153e-06 0)
(1.14167e-05 1.83005e-06 0)
(1.1308e-05 -9.66313e-07 0)
(1.13564e-05 -3.63938e-06 0)
(1.33941e-05 4.60476e-06 0)
(1.31443e-05 1.90555e-06 0)
(1.30273e-05 -8.76215e-07 0)
(1.30195e-05 -3.55485e-06 0)
(1.52048e-05 4.68089e-06 0)
(1.49881e-05 1.98637e-06 0)
(1.48646e-05 -7.74849e-07 0)
(1.48116e-05 -3.45693e-06 0)
(1.71469e-05 4.76345e-06 0)
(1.69561e-05 2.0751e-06 0)
(1.68281e-05 -6.64732e-07 0)
(1.67411e-05 -3.349e-06 0)
(1.92279e-05 4.85406e-06 0)
(1.90572e-05 2.17288e-06 0)
(1.89271e-05 -5.47549e-07 0)
(1.88169e-05 -3.23319e-06 0)
(2.14559e-05 4.95266e-06 0)
(2.13016e-05 2.27943e-06 0)
(2.11724e-05 -4.24659e-07 0)
(2.10485e-05 -3.11106e-06 0)
(2.38395e-05 5.05768e-06 0)
(2.37e-05 2.39312e-06 0)
(2.35751e-05 -2.97656e-07 0)
(2.3446e-05 -2.98424e-06 0)
(2.63877e-05 5.16608e-06 0)
(2.62636e-05 2.51092e-06 0)
(2.6147e-05 -1.68885e-07 0)
(2.60204e-05 -2.85495e-06 0)
(2.91105e-05 5.27337e-06 0)
(2.90042e-05 2.62841e-06 0)
(2.89003e-05 -4.18628e-08 0)
(2.87833e-05 -2.72647e-06 0)
(3.20184e-05 5.37365e-06 0)
(3.19337e-05 2.73975e-06 0)
(3.18475e-05 7.84722e-08 0)
(3.17467e-05 -2.60346e-06 0)
(3.51228e-05 5.4597e-06 0)
(3.50644e-05 2.83772e-06 0)
(3.50014e-05 1.857e-07 0)
(3.4923e-05 -2.49196e-06 0)
(3.84359e-05 5.52308e-06 0)
(3.8409e-05 2.91394e-06 0)
(3.83747e-05 2.72068e-07 0)
(3.8325e-05 -2.39933e-06 0)
(4.21054e-05 5.55559e-06 0)
(4.21168e-05 2.96081e-06 0)
(4.21181e-05 3.30902e-07 0)
(4.21039e-05 -2.33149e-06 0)
(4.60099e-05 5.54092e-06 0)
(4.60649e-05 2.96166e-06 0)
(4.61072e-05 3.45629e-07 0)
(4.61341e-05 -2.30479e-06 0)
(4.98912e-05 5.4759e-06 0)
(4.99911e-05 2.91247e-06 0)
(5.00759e-05 3.11492e-07 0)
(5.01451e-05 -2.32472e-06 0)
(5.3749e-05 5.36093e-06 0)
(5.3894e-05 2.81379e-06 0)
(5.40218e-05 2.29098e-07 0)
(5.41337e-05 -2.39085e-06 0)
(5.75827e-05 5.19716e-06 0)
(5.77722e-05 2.66693e-06 0)
(5.79425e-05 9.97587e-08 0)
(5.80965e-05 -2.50203e-06 0)
(6.13915e-05 4.98617e-06 0)
(6.16242e-05 2.47357e-06 0)
(6.18359e-05 -7.48159e-08 0)
(6.20306e-05 -2.65663e-06 0)
(6.51744e-05 4.7299e-06 0)
(6.54485e-05 2.23572e-06 0)
(6.56997e-05 -2.92615e-07 0)
(6.59332e-05 -2.85271e-06 0)
(6.89302e-05 4.43061e-06 0)
(6.92433e-05 1.95571e-06 0)
(6.95317e-05 -5.51298e-07 0)
(6.98016e-05 -3.08797e-06 0)
(7.26579e-05 4.09102e-06 0)
(7.30071e-05 1.63628e-06 0)
(7.33298e-05 -8.48105e-07 0)
(7.36332e-05 -3.35965e-06 0)
(7.63562e-05 3.71435e-06 0)
(7.67381e-05 1.2807e-06 0)
(7.70917e-05 -1.17976e-06 0)
(7.74251e-05 -3.6645e-06 0)
(8.00239e-05 3.3044e-06 0)
(8.04346e-05 8.9281e-07 0)
(8.08151e-05 -1.54241e-06 0)
(8.11746e-05 -3.99869e-06 0)
(8.36596e-05 2.86555e-06 0)
(8.40947e-05 4.77037e-07 0)
(8.4498e-05 -1.93162e-06 0)
(8.48792e-05 -4.35782e-06 0)
(8.72619e-05 2.40271e-06 0)
(8.77167e-05 3.8361e-08 0)
(8.8138e-05 -2.3424e-06 0)
(8.85362e-05 -4.73697e-06 0)
(9.08292e-05 1.92126e-06 0)
(9.12986e-05 -4.17764e-07 0)
(9.17332e-05 -2.76931e-06 0)
(9.21433e-05 -5.13075e-06 0)
(9.43597e-05 1.42691e-06 0)
(9.48386e-05 -8.85529e-07 0)
(9.52812e-05 -3.20653e-06 0)
(9.56981e-05 -5.53348e-06 0)
(9.78514e-05 9.2558e-07 0)
(9.83345e-05 -1.35892e-06 0)
(9.87802e-05 -3.64806e-06 0)
(9.91986e-05 -5.93924e-06 0)
(0.000101302 4.23213e-07 0)
(0.000101784 -1.83187e-06 0)
(0.000102228 -4.08785e-06 0)
(0.000102643 -6.34214e-06 0)
(0.000104709 -7.4416e-08 0)
(0.000105186 -2.29852e-06 0)
(0.000105623 -4.52004e-06 0)
(0.00010603 -6.73644e-06 0)
(0.000108071 -5.61908e-07 0)
(0.000108537 -2.75335e-06 0)
(0.000108964 -4.93915e-06 0)
(0.000109357 -7.1168e-06 0)
(0.000111383 -1.03446e-06 0)
(0.000111836 -3.19146e-06 0)
(0.000112248 -5.34028e-06 0)
(0.000112625 -7.47846e-06 0)
(0.000114643 -1.48805e-06 0)
(0.000115079 -3.60878e-06 0)
(0.000115474 -5.71939e-06 0)
(0.000115832 -7.8175e-06 0)
(0.000117849 -1.91965e-06 0)
(0.000118266 -4.0022e-06 0)
(0.000118641 -6.0734e-06 0)
(0.000118978 -8.13093e-06 0)
(0.000120996 -2.32731e-06 0)
(0.000121393 -4.36976e-06 0)
(0.000121748 -6.40038e-06 0)
(0.000122062 -8.41691e-06 0)
(0.000124081 -2.7103e-06 0)
(0.000124458 -4.71073e-06 0)
(0.000124793 -6.69962e-06 0)
(0.000125085 -8.67477e-06 0)
(0.000127102 -3.06907e-06 0)
(0.000127459 -5.02561e-06 0)
(0.000127775 -6.97165e-06 0)
(0.000128045 -8.90509e-06 0)
(0.000130054 -3.40532e-06 0)
(0.000130394 -5.31614e-06 0)
(0.000130692 -7.21825e-06 0)
(0.000130943 -9.10964e-06 0)
(0.000132936 -3.72184e-06 0)
(0.000133261 -5.58522e-06 0)
(0.000133545 -7.44235e-06 0)
(0.000133779 -9.29134e-06 0)
(0.000135743 -4.0225e-06 0)
(0.000136058 -5.8368e-06 0)
(0.000136331 -7.64797e-06 0)
(0.000136553 -9.45416e-06 0)
(0.000138475 -4.31206e-06 0)
(0.000138784 -6.07581e-06 0)
(0.00013905 -7.84004e-06 0)
(0.000139264 -9.60301e-06 0)
(0.000141128 -4.5961e-06 0)
(0.000141435 -6.30794e-06 0)
(0.0001417 -8.02431e-06 0)
(0.000141912 -9.74356e-06 0)
(0.0001437 -4.88081e-06 0)
(0.000144012 -6.53955e-06 0)
(0.000144281 -8.20718e-06 0)
(0.000144496 -9.88215e-06 0)
(0.00014619 -5.17283e-06 0)
(0.000146513 -6.77744e-06 0)
(0.000146792 -8.3955e-06 0)
(0.000147016 -1.00255e-05 0)
(0.000148596 -5.47911e-06 0)
(0.000148936 -7.02871e-06 0)
(0.000149231 -8.59641e-06 0)
(0.00014947 -1.01808e-05 0)
(0.000150917 -5.80665e-06 0)
(0.00015128 -7.30055e-06 0)
(0.000151598 -8.81714e-06 0)
(0.000151858 -1.03551e-05 0)
(0.000153153 -6.16235e-06 0)
(0.000153545 -7.60001e-06 0)
(0.00015389 -9.06479e-06 0)
(0.000154179 -1.05554e-05 0)
(0.000155302 -6.55282e-06 0)
(0.000155729 -7.93384e-06 0)
(0.000156109 -9.34614e-06 0)
(0.000156431 -1.07885e-05 0)
(0.000157366 -6.98418e-06 0)
(0.000157832 -8.30826e-06 0)
(0.000158251 -9.66746e-06 0)
(0.000158612 -1.10606e-05 0)
(0.000159342 -7.46194e-06 0)
(0.000159854 -8.72891e-06 0)
(0.000160316 -1.00344e-05 0)
(0.000160721 -1.13774e-05 0)
(0.000161233 -7.99092e-06 0)
(0.000161793 -9.2007e-06 0)
(0.000162303 -1.04519e-05 0)
(0.000162756 -1.17436e-05 0)
(0.000163037 -8.57522e-06 0)
(0.00016365 -9.72776e-06 0)
(0.000164211 -1.09242e-05 0)
(0.000164716 -1.21635e-05 0)
(0.000164755 -9.21819e-06 0)
(0.000165423 -1.03135e-05 0)
(0.000166039 -1.14546e-05 0)
(0.000166598 -1.26405e-05 0)
(0.000166387 -9.92248e-06 0)
(0.000167114 -1.09607e-05 0)
(0.000167786 -1.2046e-05 0)
(0.000168401 -1.31774e-05 0)
(0.000167934 -1.06901e-05 0)
(0.00016872 -1.16712e-05 0)
(0.00016945 -1.27002e-05 0)
(0.000170123 -1.3776e-05 0)
(0.000169397 -1.15222e-05 0)
(0.000170242 -1.24465e-05 0)
(0.00017103 -1.34186e-05 0)
(0.000171762 -1.44376e-05 0)
(0.000170775 -1.24194e-05 0)
(0.000171679 -1.32869e-05 0)
(0.000172526 -1.42018e-05 0)
(0.000173317 -1.51629e-05 0)
(0.000172069 -1.33812e-05 0)
(0.000173032 -1.41922e-05 0)
(0.000173935 -1.50492e-05 0)
(0.000174784 -1.59512e-05 0)
(0.000173281 -1.4406e-05 0)
(0.0001743 -1.51607e-05 0)
(0.000175258 -1.59595e-05 0)
(0.000176161 -1.68012e-05 0)
(0.00017441 -1.54912e-05 0)
(0.000175482 -1.61898e-05 0)
(0.000176492 -1.69299e-05 0)
(0.000177448 -1.77101e-05 0)
(0.000175458 -1.66326e-05 0)
(0.000176579 -1.72754e-05 0)
(0.000177637 -1.79562e-05 0)
(0.000178641 -1.8674e-05 0)
(0.000176424 -1.78252e-05 0)
(0.00017759 -1.8412e-05 0)
(0.000178692 -1.90332e-05 0)
(0.00017974 -1.96877e-05 0)
(0.00017731 -1.90625e-05 0)
(0.000178515 -1.95935e-05 0)
(0.000179655 -2.01546e-05 0)
(0.000180741 -2.07451e-05 0)
(0.000178114 -2.0338e-05 0)
(0.000179353 -2.08129e-05 0)
(0.000180527 -2.13137e-05 0)
(0.000181646 -2.18397e-05 0)
(0.000178838 -2.16446e-05 0)
(0.000180105 -2.20632e-05 0)
(0.000181306 -2.25034e-05 0)
(0.000182452 -2.29649e-05 0)
(0.000179479 -2.29756e-05 0)
(0.000180768 -2.33376e-05 0)
(0.000181993 -2.37171e-05 0)
(0.000183161 -2.4114e-05 0)
(0.000180039 -2.43248e-05 0)
(0.000181345 -2.46299e-05 0)
(0.000182587 -2.49485e-05 0)
(0.000183772 -2.52811e-05 0)
(0.000180515 -2.56863e-05 0)
(0.000181833 -2.5934e-05 0)
(0.000183088 -2.61919e-05 0)
(0.000184286 -2.64606e-05 0)
(0.000180907 -2.70551e-05 0)
(0.000182233 -2.72449e-05 0)
(0.000183498 -2.74419e-05 0)
(0.000184705 -2.76473e-05 0)
(0.000181213 -2.84258e-05 0)
(0.000182544 -2.85576e-05 0)
(0.000183815 -2.86942e-05 0)
(0.000185029 -2.88371e-05 0)
(0.000181437 -2.97963e-05 0)
(0.000182769 -2.98697e-05 0)
(0.000184044 -2.99464e-05 0)
(0.000185262 -3.00269e-05 0)
(0.000181566 -3.11536e-05 0)
(0.000182898 -3.11771e-05 0)
(0.000184174 -3.1201e-05 0)
(0.000185394 -3.12289e-05 0)
)
;

boundaryField
{
    plateFix
    {
        type            calculated;
        value           uniform (0 0 0);
    }
    plate
    {
        type            calculated;
        value           nonuniform List<vector> 
168
(
(3.388e-06 1.84728e-06 2.58234e-23)
(3.25102e-06 -1.7747e-06 3.83317e-23)
(3.3005e-06 2.97034e-06 -1.12342e-22)
(3.13914e-06 -2.85018e-06 5.31778e-23)
(3.44551e-06 3.84078e-06 5.25395e-23)
(3.2489e-06 -3.66992e-06 -3.61091e-23)
(3.85184e-06 4.45289e-06 6.86133e-23)
(3.61388e-06 -4.2268e-06 1.05837e-22)
(4.50219e-06 4.89297e-06 -5.33833e-23)
(4.2195e-06 -4.60395e-06 -6.3662e-24)
(5.34771e-06 5.2013e-06 -1.25172e-23)
(5.01918e-06 -4.8401e-06 -5.93492e-23)
(6.36154e-06 5.4201e-06 1.06985e-22)
(5.98748e-06 -4.97582e-06 -6.27886e-23)
(7.52243e-06 5.57664e-06 -1.14956e-22)
(7.10441e-06 -5.03721e-06 5.35502e-23)
(8.81909e-06 5.69306e-06 7.17275e-23)
(8.3596e-06 -5.04535e-06 -6.83235e-24)
(1.02449e-05 5.78508e-06 -1.05781e-23)
(9.74731e-06 -5.01503e-06 1.71262e-23)
(1.17976e-05 5.86453e-06 -4.895e-23)
(1.12661e-05 -4.95725e-06 1.37022e-23)
(1.34774e-05 5.93979e-06 3.88668e-23)
(1.29171e-05 -4.87967e-06 -1.03947e-23)
(1.52869e-05 6.01663e-06 -2.61986e-23)
(1.47041e-05 -4.78752e-06 -3.01513e-24)
(1.72301e-05 6.09863e-06 -2.44022e-23)
(1.66325e-05 -4.68424e-06 -1.35613e-23)
(1.93123e-05 6.18747e-06 2.87488e-23)
(1.87097e-05 -4.57207e-06 -2.8127e-23)
(2.15403e-05 6.28323e-06 1.02637e-23)
(2.09444e-05 -4.45269e-06 7.25213e-24)
(2.39214e-05 6.38445e-06 -1.81107e-23)
(2.33467e-05 -4.32781e-06 -5.85214e-24)
(2.64643e-05 6.48823e-06 1.13779e-23)
(2.5928e-05 -4.19971e-06 -3.17421e-25)
(2.91784e-05 6.59021e-06 2.40569e-23)
(2.87e-05 -4.07168e-06 -1.87037e-24)
(3.2074e-05 6.68462e-06 1.91439e-24)
(3.16754e-05 -3.94825e-06 3.16956e-23)
(3.51625e-05 6.76431e-06 -5.59938e-24)
(3.48667e-05 -3.83533e-06 3.57614e-23)
(3.84564e-05 6.82093e-06 1.44288e-23)
(3.82865e-05 -3.74011e-06 2.93688e-23)
(4.21029e-05 6.84602e-06 2.39868e-24)
(4.20868e-05 -3.66811e-06 -5.77824e-27)
(4.59822e-05 6.82346e-06 2.20509e-23)
(4.61405e-05 -3.63562e-06 -1.83578e-23)
(4.9838e-05 6.75051e-06 1.73016e-23)
(5.01752e-05 -3.64848e-06 6.54289e-23)
(5.36708e-05 6.62747e-06 -8.71118e-24)
(5.41869e-05 -3.70642e-06 1.2231e-23)
(5.74801e-05 6.45539e-06 1.04749e-23)
(5.81721e-05 -3.80837e-06 5.33723e-23)
(6.12655e-05 6.23578e-06 3.68029e-23)
(6.21278e-05 -3.95278e-06 1.21032e-23)
(6.5026e-05 5.97053e-06 6.71961e-24)
(6.60509e-05 -4.13775e-06 -2.37958e-23)
(6.87607e-05 5.66188e-06 -1.50844e-23)
(6.99386e-05 -4.36099e-06 5.60997e-23)
(7.24688e-05 5.31254e-06 -6.44304e-24)
(7.37878e-05 -4.61975e-06 6.8221e-24)
(7.61493e-05 4.92572e-06 -1.24712e-25)
(7.75955e-05 -4.91078e-06 7.5947e-23)
(7.98012e-05 4.50519e-06 -1.12471e-23)
(8.13589e-05 -5.23027e-06 1.56538e-23)
(8.34234e-05 4.05531e-06 -2.03748e-24)
(8.50749e-05 -5.57383e-06 -9.79834e-24)
(8.70149e-05 3.58094e-06 -5.62047e-25)
(8.87407e-05 -5.9366e-06 8.90187e-24)
(9.05741e-05 3.0874e-06 -1.7959e-23)
(9.23538e-05 -6.31323e-06 6.43899e-24)
(9.40995e-05 2.58036e-06 4.89758e-24)
(9.59117e-05 -6.6981e-06 3.04728e-24)
(9.7589e-05 2.06566e-06 9.56318e-24)
(9.94123e-05 -7.08538e-06 -2.69305e-23)
(0.000101041 1.54918e-06 -9.99346e-24)
(0.000102854 -7.46926e-06 -2.48448e-24)
(0.000104452 1.03661e-06 6.11288e-24)
(0.000106235 -7.84408e-06 1.26858e-23)
(0.000107819 5.33281e-07 -9.49269e-24)
(0.000109555 -8.2046e-06 2.36419e-23)
(0.00011114 4.39345e-08 2.00428e-23)
(0.000112812 -8.54614e-06 -1.55928e-23)
(0.000114411 -4.27472e-07 1.24337e-23)
(0.000116007 -8.86486e-06 -2.06725e-23)
(0.000117627 -8.77936e-07 3.13672e-24)
(0.000119139 -9.15783e-06 -3.28197e-23)
(0.000120787 -1.30554e-06 4.72816e-24)
(0.00012221 -9.42325e-06 -1.07146e-23)
(0.000123884 -1.70954e-06 8.70814e-24)
(0.000125218 -9.66049e-06 -4.41846e-24)
(0.000126917 -2.0904e-06 -8.61655e-24)
(0.000128165 -9.87014e-06 2.03009e-25)
(0.00012988 -2.44974e-06 2.92595e-24)
(0.000131051 -1.0054e-05 -7.56587e-24)
(0.00013277 -2.79032e-06 -7.52098e-24)
(0.000133876 -1.02149e-05 1.24428e-23)
(0.000135585 -3.11595e-06 -1.56765e-23)
(0.000136642 -1.03568e-05 9.36872e-24)
(0.000138321 -3.43131e-06 1.6441e-23)
(0.000139347 -1.04846e-05 1.1064e-23)
(0.000140975 -3.74188e-06 -2.15501e-24)
(0.000141992 -1.06039e-05 1.00934e-23)
(0.000143546 -4.05377e-06 1.3853e-23)
(0.000144577 -1.0721e-05 7.75836e-24)
(0.000146031 -4.37352e-06 7.47208e-24)
(0.0001471 -1.08427e-05 2.30216e-24)
(0.000148428 -4.70796e-06 1.5728e-23)
(0.000149562 -1.09758e-05 1.2286e-24)
(0.000150738 -5.06401e-06 3.79688e-24)
(0.000151961 -1.11276e-05 -1.30108e-23)
(0.000152958 -5.44848e-06 -1.965e-24)
(0.000154296 -1.13049e-05 1.23958e-23)
(0.000155089 -5.86787e-06 1.8832e-23)
(0.000156566 -1.15145e-05 2.87499e-25)
(0.000157131 -6.32823e-06 -1.15164e-23)
(0.000158768 -1.17626e-05 1.11352e-23)
(0.000159083 -6.83502e-06 -5.79905e-24)
(0.0001609 -1.20547e-05 -3.56884e-24)
(0.000160947 -7.39301e-06 -9.1741e-24)
(0.000162961 -1.23957e-05 4.81172e-23)
(0.000162723 -8.00626e-06 2.89912e-24)
(0.000164948 -1.27897e-05 -1.35883e-23)
(0.000164412 -8.67809e-06 1.31492e-23)
(0.000166859 -1.32403e-05 -1.14996e-23)
(0.000166013 -9.41116e-06 -1.12301e-23)
(0.000168692 -1.375e-05 1.49232e-23)
(0.000167529 -1.02074e-05 1.66507e-23)
(0.000170445 -1.43209e-05 -5.03677e-23)
(0.000168959 -1.1068e-05 1.3981e-23)
(0.000172115 -1.49542e-05 2.25095e-23)
(0.000170305 -1.19935e-05 -1.88039e-23)
(0.000173701 -1.56504e-05 9.40662e-24)
(0.000171568 -1.29833e-05 -2.94792e-24)
(0.000175198 -1.6409e-05 4.79314e-23)
(0.000172749 -1.4036e-05 3.43061e-23)
(0.000176606 -1.72285e-05 -2.29908e-23)
(0.00017385 -1.51487e-05 -2.24678e-24)
(0.000177921 -1.81062e-05 -1.05911e-23)
(0.000174871 -1.63176e-05 -2.18058e-23)
(0.00017914 -1.90384e-05 1.17943e-23)
(0.000175814 -1.75374e-05 2.14774e-23)
(0.000180261 -2.00198e-05 -3.24707e-23)
(0.000176679 -1.88021e-05 6.52696e-23)
(0.000181283 -2.10446e-05 -7.21745e-24)
(0.000177467 -2.01048e-05 -5.40997e-23)
(0.000182203 -2.21064e-05 5.71455e-24)
(0.000178177 -2.14388e-05 -4.16623e-23)
(0.000183023 -2.31985e-05 2.60252e-23)
(0.000178808 -2.27975e-05 8.92005e-24)
(0.000183742 -2.43148e-05 -2.64075e-23)
(0.00017936 -2.41745e-05 2.55012e-25)
(0.00018436 -2.54492e-05 1.53509e-23)
(0.000179831 -2.55639e-05 -7.21059e-24)
(0.000184879 -2.65963e-05 -3.54263e-23)
(0.000180222 -2.69612e-05 3.80291e-23)
(0.0001853 -2.77509e-05 -9.05721e-24)
(0.000180528 -2.83603e-05 -1.54274e-23)
(0.000185624 -2.89094e-05 5.3789e-23)
(0.000180755 -2.97607e-05 -8.03838e-24)
(0.000185859 -3.00667e-05 -1.57858e-23)
(0.000180893 -3.11439e-05 -1.73313e-26)
(0.000181601 -3.18235e-05 -1.76536e-25)
(0.000182934 -3.18299e-05 -8.89668e-24)
(0.000184211 -3.18264e-05 -1.96571e-23)
(0.00018543 -3.18372e-05 1.86928e-23)
(0.000185998 -3.12411e-05 -4.15741e-23)
)
;
    }
    frontAndBackPlanes
    {
        type            empty;
    }
}


// ************************************************************************* //
