/*--------------------------------*- C++ -*----------------------------------*\
| =========                 |                                                 |
| \\      /  F ield         | OpenFOAM Extend Project: Open source CFD        |
|  \\    /   O peration     | Version:  1.6-ext                               |
|   \\  /    A nd           | Web:      www.extend-project.de                 |
|    \\/     M anipulation  |                                                 |
\*---------------------------------------------------------------------------*/
FoamFile
{
    version     2.0;
    format      ascii;
    class       surfaceScalarField;
    location    "0.9";
    object      meshPhi;
}
// * * * * * * * * * * * * * * * * * * * * * * * * * * * * * * * * * * * * * //

dimensions      [0 3 -1 0 0 0 0];

internalField   nonuniform List<scalar> 
570
(
-2.3091e-11
-5.79293e-10
-5.20853e-12
-1.22672e-10
4.96099e-12
-7.95725e-11
-1.55694e-10
-7.26753e-11
-6.96814e-10
-1.94116e-11
-2.70413e-10
1.20791e-11
-1.78832e-10
-1.68913e-10
-1.26233e-10
-8.63346e-10
-4.14876e-11
-4.47054e-10
1.13123e-11
-3.01707e-10
-2.03156e-10
-1.85203e-10
-1.07325e-09
-7.31514e-11
-6.47197e-10
1.45603e-13
-4.45186e-10
-2.61699e-10
-2.51999e-10
-1.32021e-09
-1.16359e-10
-8.70081e-10
-2.36733e-11
-6.09526e-10
-3.44868e-10
-3.29664e-10
-1.59698e-09
-1.73553e-10
-1.11353e-09
-6.2613e-11
-7.9385e-10
-4.51797e-10
-4.21776e-10
-1.89892e-09
-2.47734e-10
-1.37664e-09
-1.19548e-10
-9.98254e-10
-5.82686e-10
-5.3249e-10
-2.22239e-09
-3.42517e-10
-1.65851e-09
-1.97831e-10
-1.22291e-09
-7.38227e-10
-6.6657e-10
-2.56486e-09
-4.62167e-10
-1.95877e-09
-3.01382e-10
-1.4685e-09
-9.19836e-10
-8.29416e-10
-2.92427e-09
-6.11637e-10
-2.27725e-09
-4.34735e-10
-1.73607e-09
-1.12949e-09
-1.02705e-09
-3.2989e-09
-7.96558e-10
-2.61409e-09
-6.0308e-10
-2.02711e-09
-1.36978e-09
-1.26609e-09
-3.68712e-09
-1.0232e-09
-2.96962e-09
-8.12241e-10
-2.34347e-09
-1.64386e-09
-1.55357e-09
-4.08728e-09
-1.29834e-09
-3.34432e-09
-1.06859e-09
-2.6874e-09
-1.9555e-09
-1.89678e-09
-4.4976e-09
-1.62908e-09
-3.73877e-09
-1.37884e-09
-3.0615e-09
-2.30905e-09
-2.30285e-09
-4.91614e-09
-2.02242e-09
-4.15363e-09
-1.74968e-09
-3.46868e-09
-2.70949e-09
-2.7782e-09
-5.34072e-09
-2.48471e-09
-4.58954e-09
-2.18719e-09
-3.91213e-09
-3.16236e-09
-3.32765e-09
-5.76895e-09
-3.02078e-09
-5.04714e-09
-2.69598e-09
-4.39529e-09
-3.67378e-09
-3.95321e-09
-6.19819e-09
-3.63264e-09
-5.52705e-09
-3.27791e-09
-4.92181e-09
-4.25036e-09
-4.65227e-09
-6.62561e-09
-4.31771e-09
-6.02983e-09
-3.93026e-09
-5.49554e-09
-4.89914e-09
-5.41519e-09
-7.0483e-09
-5.06638e-09
-6.55609e-09
-4.64333e-09
-6.12041e-09
-5.62745e-09
-6.222e-09
-7.46342e-09
-5.85864e-09
-7.10646e-09
-5.39712e-09
-6.80044e-09
-6.44267e-09
-7.03808e-09
-7.86766e-09
-6.65979e-09
-7.68168e-09
-6.15698e-09
-7.53961e-09
-7.35285e-09
-8.38674e-09
-8.2897e-09
-7.96441e-09
-8.3265e-09
-7.3771e-09
-8.40107e-09
-8.4371e-09
-8.45744e-09
-8.66858e-09
-8.04782e-09
-8.95447e-09
-7.45363e-09
-9.2708e-09
-9.55601e-09
-8.25623e-09
-9.01238e-09
-7.85767e-09
-9.56768e-09
-7.25879e-09
-1.01459e-08
-1.07006e-08
-7.76221e-09
-9.32843e-09
-7.37301e-09
-1.01683e-08
-6.77169e-09
-1.10234e-08
-1.18627e-08
-6.96002e-09
-9.62413e-09
-6.57852e-09
-1.07584e-08
-5.97699e-09
-1.19005e-08
-1.30342e-08
-5.84006e-09
-9.9068e-09
-5.46459e-09
-1.13402e-08
-4.86505e-09
-1.27741e-08
-1.42069e-08
-4.39837e-09
-1.01835e-08
-4.02732e-09
-1.19157e-08
-3.4319e-09
-1.36415e-08
-1.53731e-08
-2.63647e-09
-1.04609e-08
-2.26833e-09
-1.24868e-08
-1.67903e-09
-1.45e-08
-1.65253e-08
-5.61037e-10
-1.07452e-08
-1.94426e-10
-1.30554e-08
3.86889e-10
-1.53472e-08
-1.76568e-08
1.8165e-09
-1.10418e-08
2.18282e-09
-1.36229e-08
2.75447e-09
-1.61808e-08
-1.87614e-08
4.48051e-09
-1.13553e-08
4.84757e-09
-1.41908e-08
5.4081e-09
-1.69989e-08
-1.98338e-08
7.41173e-09
-1.16896e-08
7.78037e-09
-1.47601e-08
8.32855e-09
-1.77999e-08
-2.08696e-08
1.05879e-08
-1.20475e-08
1.09588e-08
-1.53314e-08
1.14936e-08
-1.85825e-08
-2.18654e-08
1.39846e-08
-1.2431e-08
1.4358e-08
-1.59053e-08
1.48788e-08
-1.93455e-08
-2.28188e-08
1.75759e-08
-1.28409e-08
1.7952e-08
-1.64818e-08
1.84582e-08
-2.00885e-08
-2.37284e-08
2.13349e-08
-1.3277e-08
2.17136e-08
-1.70608e-08
2.22051e-08
-2.08112e-08
-2.45938e-08
2.5235e-08
-1.37382e-08
2.56159e-08
-1.76417e-08
2.60928e-08
-2.15135e-08
-2.54157e-08
2.92502e-08
-1.42225e-08
2.96327e-08
-1.82238e-08
3.00953e-08
-2.21959e-08
-2.61957e-08
3.33559e-08
-1.47269e-08
3.37392e-08
-1.88059e-08
3.4188e-08
-2.28589e-08
-2.69363e-08
3.75296e-08
-1.52476e-08
3.79128e-08
-1.93866e-08
3.83485e-08
-2.35036e-08
-2.76409e-08
4.17517e-08
-1.57803e-08
4.21336e-08
-1.99644e-08
4.25571e-08
-2.41311e-08
-2.83134e-08
4.60055e-08
-1.63199e-08
4.63847e-08
-2.05375e-08
4.67971e-08
-2.47427e-08
-2.89584e-08
5.02781e-08
-1.6861e-08
5.06533e-08
-2.1104e-08
5.10557e-08
-2.53399e-08
-2.95809e-08
5.45605e-08
-1.73978e-08
5.49301e-08
-2.16619e-08
5.53239e-08
-2.59243e-08
-3.01863e-08
5.8848e-08
-1.79245e-08
5.92105e-08
-2.2209e-08
5.95968e-08
-2.64975e-08
-3.07801e-08
6.314e-08
-1.8435e-08
6.34939e-08
-2.27434e-08
6.3874e-08
-2.70612e-08
-3.13676e-08
6.74403e-08
-1.89236e-08
6.77841e-08
-2.3263e-08
6.81592e-08
-2.76168e-08
-3.19543e-08
7.17569e-08
-1.93849e-08
7.20891e-08
-2.37659e-08
7.24604e-08
-2.8166e-08
-3.2545e-08
7.61017e-08
-1.98138e-08
7.64209e-08
-2.42502e-08
7.67895e-08
-2.87099e-08
-3.31444e-08
8.04902e-08
-2.02058e-08
8.07953e-08
-2.47144e-08
8.1162e-08
-2.92497e-08
-3.37565e-08
8.49412e-08
-2.05571e-08
8.52311e-08
-2.5157e-08
8.55966e-08
-2.97863e-08
-3.43844e-08
8.94761e-08
-2.08647e-08
8.97499e-08
-2.55769e-08
9.01147e-08
-3.03203e-08
-3.50308e-08
9.41183e-08
-2.11264e-08
9.43754e-08
-2.59731e-08
9.47397e-08
-3.08521e-08
-3.56973e-08
9.88928e-08
-2.1341e-08
9.91328e-08
-2.63451e-08
9.94967e-08
-3.13817e-08
-3.63845e-08
1.03825e-07
-2.1508e-08
1.04048e-07
-2.66926e-08
1.04411e-07
-3.19088e-08
-3.70923e-08
1.08942e-07
-2.16281e-08
1.09147e-07
-2.70156e-08
1.09509e-07
-3.24329e-08
-3.78194e-08
1.14267e-07
-2.17029e-08
1.14456e-07
-2.73144e-08
1.14816e-07
-3.29531e-08
-3.85638e-08
1.19825e-07
-2.17348e-08
1.19997e-07
-2.75897e-08
1.20355e-07
-3.34682e-08
-3.93223e-08
1.25638e-07
-2.17272e-08
1.25794e-07
-2.78422e-08
1.26149e-07
-3.39767e-08
-4.0091e-08
1.31725e-07
-2.16843e-08
1.31866e-07
-2.80733e-08
1.32215e-07
-3.44769e-08
-4.08654e-08
1.38101e-07
-2.16107e-08
1.38227e-07
-2.82842e-08
1.3857e-07
-3.4967e-08
-4.16401e-08
1.44778e-07
-2.15118e-08
1.44892e-07
-2.84765e-08
1.45227e-07
-3.54448e-08
-4.24092e-08
1.51764e-07
-2.13933e-08
1.51866e-07
-2.86518e-08
1.52192e-07
-3.59082e-08
-4.31667e-08
1.59062e-07
-2.12609e-08
1.59155e-07
-2.8812e-08
1.59469e-07
-3.6355e-08
-4.39061e-08
1.66672e-07
-2.11207e-08
1.66755e-07
-2.89587e-08
1.67056e-07
-3.6783e-08
-4.46211e-08
1.74586e-07
-2.09784e-08
1.74662e-07
-2.90938e-08
1.74948e-07
-3.719e-08
-4.53055e-08
1.82795e-07
-2.08394e-08
1.82864e-07
-2.92187e-08
1.83134e-07
-3.7574e-08
-4.59535e-08
1.91283e-07
-2.07087e-08
1.91347e-07
-2.93351e-08
1.91599e-07
-3.79331e-08
-4.65598e-08
2.00032e-07
-2.05906e-08
2.00091e-07
-2.94442e-08
2.00325e-07
-3.82658e-08
-4.71197e-08
2.09019e-07
-2.04887e-08
2.09075e-07
-2.9547e-08
2.09289e-07
-3.85706e-08
-4.76292e-08
2.18219e-07
-2.04057e-08
2.18272e-07
-2.96443e-08
2.18465e-07
-3.88465e-08
-4.80855e-08
2.27605e-07
-2.03434e-08
2.27656e-07
-2.97365e-08
2.27828e-07
-3.90928e-08
-4.84864e-08
2.37149e-07
-2.03023e-08
2.37197e-07
-2.98238e-08
2.37347e-07
-3.9309e-08
-4.8831e-08
2.46819e-07
-2.02819e-08
2.46865e-07
-2.99058e-08
2.46993e-07
-3.9495e-08
-4.91195e-08
2.56588e-07
-2.02807e-08
2.5663e-07
-2.99818e-08
2.56737e-07
-3.96513e-08
-4.93534e-08
2.66426e-07
-2.02956e-08
2.66464e-07
-3.00505e-08
2.66549e-07
-3.97784e-08
-4.95353e-08
2.76307e-07
-2.0323e-08
2.76338e-07
-3.01103e-08
2.76403e-07
-3.98774e-08
-4.96693e-08
2.86206e-07
-2.0358e-08
2.8623e-07
-3.01587e-08
2.86276e-07
-3.99492e-08
-4.97619e-08
2.961e-07
-2.03975e-08
2.96118e-07
-3.01954e-08
2.9615e-07
-3.99975e-08
-4.98244e-08
3.05964e-07
3.05986e-07
3.0602e-07
)
;

boundaryField
{
    plateFix
    {
        type            calculated;
        value           nonuniform List<scalar> 4(4.47239e-10 -1.01958e-14 8.18946e-15 1.23465e-10);
    }
    plate
    {
        type            calculated;
        value           nonuniform List<scalar> 
168
(
1.03901e-10
2.96626e-11
1.83781e-10
4.94104e-11
2.63628e-10
6.13511e-11
3.43963e-10
6.23213e-11
4.28189e-10
5.03997e-11
5.207e-10
2.36776e-11
6.25914e-10
-2.0312e-11
7.48619e-10
-8.45564e-11
8.93936e-10
-1.72672e-10
1.06745e-09
-2.88918e-10
1.27525e-09
-4.38218e-10
1.52389e-09
-6.26125e-10
1.82034e-09
-8.58728e-10
2.17176e-09
-1.14244e-09
2.58512e-09
-1.48364e-09
3.0667e-09
-1.88809e-09
3.62116e-09
-2.3601e-09
4.25037e-09
-2.90121e-09
4.95163e-09
-3.5085e-09
5.71525e-09
-4.17208e-09
6.52132e-09
-4.87191e-09
7.33536e-09
-5.57339e-09
8.7021e-09
-6.68305e-09
8.74782e-09
-6.7403e-09
8.52551e-09
-6.53073e-09
8.01459e-09
-6.03367e-09
7.19971e-09
-5.23377e-09
6.0712e-09
-4.12132e-09
4.62499e-09
-2.6922e-09
2.86234e-09
-9.47653e-10
7.89656e-10
1.106e-09
-1.58204e-09
3.45776e-09
-4.23754e-09
6.09249e-09
-7.15808e-09
8.99146e-09
-1.0322e-08
1.2133e-08
-1.37053e-08
1.54934e-08
-1.72826e-08
1.90471e-08
-2.10279e-08
2.2768e-08
-2.49148e-08
2.66301e-08
-2.89179e-08
3.06078e-08
-3.30132e-08
3.46772e-08
-3.71788e-08
3.88162e-08
-4.13951e-08
4.30056e-08
-4.5646e-08
4.72291e-08
-4.99189e-08
5.14739e-08
-5.42048e-08
5.57313e-08
-5.84992e-08
5.99966e-08
-6.28014e-08
6.42693e-08
-6.71152e-08
6.85529e-08
-7.14485e-08
7.28554e-08
-7.58128e-08
7.71883e-08
-8.02234e-08
8.15669e-08
-8.46987e-08
8.60094e-08
-8.92596e-08
9.05367e-08
-9.39291e-08
9.5172e-08
-9.87316e-08
9.99395e-08
-1.03692e-07
1.04864e-07
-1.08837e-07
1.09972e-07
-1.14189e-07
1.15287e-07
-1.19773e-07
1.20833e-07
-1.2561e-07
1.2663e-07
-1.31718e-07
1.32698e-07
-1.38113e-07
1.39052e-07
-1.44806e-07
1.45704e-07
-1.51805e-07
1.5266e-07
-1.59113e-07
1.59925e-07
-1.66729e-07
1.67497e-07
-1.74646e-07
1.7537e-07
-1.82854e-07
1.83533e-07
-1.9134e-07
1.91973e-07
-2.00083e-07
2.0067e-07
-2.09063e-07
2.09603e-07
-2.18255e-07
2.18747e-07
-2.27632e-07
2.28076e-07
-2.37165e-07
2.37561e-07
-2.46826e-07
2.47174e-07
-2.56587e-07
2.56884e-07
-2.66418e-07
2.66665e-07
-2.76295e-07
2.7649e-07
-2.86193e-07
2.86337e-07
-2.96088e-07
2.96192e-07
-3.0595e-07
-2.04292e-08
-3.02228e-08
-4.00303e-08
-4.98656e-08
3.06057e-07
)
;
    }
    frontAndBackPlanes
    {
        type            empty;
    }
}


// ************************************************************************* //
