/*--------------------------------*- C++ -*----------------------------------*\
| =========                 |                                                 |
| \\      /  F ield         | OpenFOAM Extend Project: Open source CFD        |
|  \\    /   O peration     | Version:  1.6-ext                               |
|   \\  /    A nd           | Web:      www.extend-project.de                 |
|    \\/     M anipulation  |                                                 |
\*---------------------------------------------------------------------------*/
FoamFile
{
    version     2.0;
    format      ascii;
    class       volSymmTensorField;
    location    "0.9";
    object      sigma;
}
// * * * * * * * * * * * * * * * * * * * * * * * * * * * * * * * * * * * * * //

dimensions      [1 -1 -2 0 0 0 0];

internalField   nonuniform List<symmTensor> 
328
(
(5.82248 0.417456 -6.64334e-22 2.30224 9.61995e-20 3.24792)
(1.10427 -0.503696 1.00428e-23 0.502699 5.55588e-23 0.641673)
(-2.25418 -0.247103 8.31304e-23 -1.00375 -7.35799e-23 -1.30434)
(-7.37501 0.988312 1.75546e-22 -2.4099 -1.22313e-19 -3.91637)
(5.67182 0.259996 2.20718e-21 1.77333 -1.52428e-19 2.97607)
(1.08838 -0.252144 1.49662e-22 0.220564 -2.56669e-23 0.52239)
(-2.24557 -0.0389431 3.1392e-23 -0.28888 1.00577e-22 -1.01505)
(-7.02294 0.654855 1.32003e-21 -1.46247 -1.1407e-20 -3.39657)
(5.70086 0.164316 -2.90782e-21 1.50231 -5.25386e-20 2.87919)
(1.14521 -0.0680678 -2.68893e-22 0.122448 1.37114e-22 0.50576)
(-2.43871 0.0962465 7.93405e-22 0.0623427 1.39792e-22 -0.951976)
(-6.9975 0.411807 -5.21977e-21 -0.943111 1.03716e-19 -3.17877)
(5.66006 0.113201 1.69073e-21 1.32918 4.17458e-20 2.79355)
(1.12004 0.0562979 3.0224e-22 0.057515 -1.41416e-22 0.46959)
(-2.44893 0.169168 -9.85249e-22 0.361751 -7.2028e-22 -0.836457)
(-6.89001 0.253869 4.55995e-21 -0.597165 3.36431e-20 -2.99748)
(5.63771 0.0901433 -1.31964e-21 1.24297 6.03697e-20 2.75007)
(1.10135 0.131542 1.12968e-21 0.0443246 4.40173e-22 0.456723)
(-2.47126 0.199136 1.58779e-22 0.535317 -5.10805e-22 -0.776098)
(-6.84072 0.158804 -3.17301e-22 -0.409526 -7.51867e-20 -2.90278)
(5.59891 0.082523 1.73391e-21 1.19838 -5.8685e-20 2.71668)
(1.06767 0.177307 -9.61506e-22 0.0442628 -1.9777e-22 0.443138)
(-2.4469 0.208491 -8.91551e-22 0.659752 6.59845e-22 -0.71668)
(-6.78651 0.104144 1.86011e-22 -0.304008 1.37525e-20 -2.83893)
(5.55581 0.0824422 -1.46117e-21 1.17894 1.14672e-19 2.69165)
(1.03738 0.20242 1.2238e-21 0.0539447 7.22089e-23 0.434828)
(-2.41797 0.207408 -5.76375e-22 0.735268 -2.03017e-22 -0.67497)
(-6.74265 0.0750386 5.67266e-22 -0.252361 2.835e-20 -2.80074)
(5.50436 0.085156 4.06251e-21 1.17029 -5.32391e-20 2.66761)
(1.00769 0.215132 -7.33024e-21 0.0637305 -1.26113e-21 0.426827)
(-2.37827 0.203131 6.82108e-22 0.784411 -3.93814e-22 -0.639479)
(-6.69729 0.0609052 -3.691e-21 -0.228437 -5.46959e-20 -2.77303)
(5.44692 0.0883108 -4.07752e-21 1.16581 8.45556e-20 2.64284)
(0.981614 0.220067 4.16399e-21 0.0722144 4.38481e-22 0.419766)
(-2.33784 0.198683 4.77955e-21 0.813122 -6.24249e-22 -0.611843)
(-6.65029 0.0552849 -2.56399e-21 -0.219214 7.89592e-20 -2.75054)
(5.3837 0.0909037 5.69058e-21 1.16168 -9.05329e-20 2.61591)
(0.957999 0.220672 2.7638e-21 0.0780956 -2.84938e-22 0.412664)
(-2.29689 0.195436 -3.57839e-22 0.829272 -3.48713e-22 -0.589009)
(-6.59849 0.0540573 8.92377e-21 -0.216218 -7.92829e-20 -2.72861)
(5.31555 0.0927254 -6.23721e-21 1.1564 5.28418e-20 2.58655)
(0.936523 0.218999 -1.00933e-20 0.0819206 9.63929e-22 0.405604)
(-2.25767 0.193522 -1.30904e-21 0.836544 -7.91672e-22 -0.570407)
(-6.54082 0.0548449 -1.73018e-21 -0.215198 1.52222e-20 -2.70512)
(5.24281 0.0939059 -6.57906e-21 1.14946 -8.13017e-20 2.55469)
(0.916229 0.216401 1.07012e-20 0.0843194 2.56054e-21 0.398451)
(-2.22019 0.192654 -3.4591e-21 0.838092 2.57071e-21 -0.554785)
(-6.4762 0.0562682 -4.04272e-21 -0.21391 1.56857e-20 -2.67873)
(5.16568 0.0946845 1.4951e-20 1.14085 6.04098e-20 2.52041)
(0.896448 0.213642 -3.74418e-21 0.0860763 -1.95155e-21 0.39125)
(-2.18447 0.192391 -6.08948e-21 0.835763 6.09924e-22 -0.541418)
(-6.40409 0.0576062 3.09084e-21 -0.211398 2.08507e-20 -2.64886)
(5.08407 0.0952777 -1.08268e-20 1.13072 -2.82658e-21 2.48374)
(0.876584 0.211139 -1.32727e-20 0.0877696 7.82147e-22 0.383991)
(-2.14999 0.192352 3.72027e-21 0.830892 4.65551e-22 -0.529559)
(-6.32415 0.0585145 -2.248e-21 -0.207332 -3.87819e-20 -2.61523)
(4.99776 0.0958329 -8.78511e-21 1.11922 -1.27483e-20 2.44463)
(0.856242 0.209056 -7.64348e-21 0.0897875 -9.32448e-22 0.376671)
(-2.11612 0.192265 -3.07287e-21 0.824283 5.1484e-22 -0.518641)
(-6.23617 0.0588781 1.50057e-20 -0.201715 8.34132e-21 -2.57777)
(4.90639 0.0964247 1.48283e-20 1.10643 5.34565e-21 2.40299)
(0.835153 0.207405 -1.02566e-21 0.0923129 -2.42746e-21 0.369255)
(-2.08215 0.191972 -1.30248e-21 0.816429 1.26989e-21 -0.508179)
(-6.14002 0.0587064 -5.27648e-21 -0.194692 -2.84675e-20 -2.53647)
(4.80953 0.0970684 -8.85504e-21 1.09238 -3.61606e-20 2.35865)
(0.81316 0.206108 6.20509e-21 0.0953863 2.48355e-21 0.361696)
(-2.04738 0.191405 2.98166e-21 0.807579 3.04516e-21 -0.497798)
(-6.03555 0.0580722 1.58085e-20 -0.186459 2.89507e-20 -2.49135)
(4.70673 0.0977432 3.82426e-20 1.07703 1.77431e-20 2.31142)
(0.790164 0.205047 -5.51108e-21 0.0989474 -3.20736e-21 0.353931)
(-2.01117 0.190552 2.64582e-20 0.797825 3.73246e-21 -0.487205)
(-5.92259 0.0570716 -4.595e-21 -0.177208 -5.4782e-20 -2.44243)
(4.59758 0.0984096 -5.38523e-20 1.06033 8.26984e-21 2.2611)
(0.766119 0.204097 -4.92098e-20 0.102901 -1.31796e-20 0.345904)
(-1.97298 0.189424 -8.89745e-21 0.787171 -9.60896e-21 -0.476173)
(-5.80089 0.0557993 -2.67238e-20 -0.167108 5.35018e-20 -2.38967)
(4.48159 0.0990173 -4.94577e-20 1.04215 -1.37435e-20 2.20746)
(0.740961 0.203135 6.29709e-20 0.107112 3.89462e-21 0.337535)
(-1.93233 0.188035 2.14938e-20 0.775549 2.46616e-21 -0.464547)
(-5.67013 0.0543415 3.55419e-20 -0.156293 -1.49588e-20 -2.333)
(4.35858 0.0995387 6.83828e-20 1.02249 2.27432e-20 2.15042)
(0.714739 0.202073 -1.58225e-20 0.111506 1.19126e-20 0.328815)
(-1.88881 0.186398 -1.09979e-20 0.762917 -1.21614e-20 -0.452177)
(-5.52999 0.0527525 -2.9902e-20 -0.144831 2.82739e-20 -2.27231)
(4.22767 0.0998299 2.977e-20 1.00093 -1.53475e-20 2.08947)
(0.68728 0.200731 -3.49448e-20 0.115857 1.96127e-21 0.319583)
(-1.84214 0.184436 5.3995e-21 0.749134 3.11786e-21 -0.439005)
(-5.37993 0.051063 -7.05195e-21 -0.132796 1.30198e-20 -2.20743)
(4.08475 0.0996436 -2.18058e-20 0.977461 4.60788e-22 2.02295)
(0.65783 0.198234 5.77053e-20 0.120635 1.84235e-20 0.309728)
(-1.7901 0.181245 2.67144e-20 0.733605 -7.62201e-21 -0.42438)
(-5.21428 0.0487032 6.22474e-20 -0.119945 -2.57287e-20 -2.13597)
(3.93392 0.100295 -5.13293e-20 0.951898 -2.03617e-20 1.95242)
(0.627219 0.197545 -1.27402e-20 0.125142 1.06066e-20 0.299301)
(-1.73432 0.179868 2.75322e-20 0.716442 3.76888e-21 -0.408911)
(-5.03814 0.0471999 -1.52554e-19 -0.107224 5.04633e-20 -2.06037)
(3.78417 0.100802 -7.90499e-20 0.925949 7.90801e-21 1.88218)
(0.597511 0.196893 2.67999e-20 0.129264 1.87818e-20 0.289081)
(-1.67805 0.178625 1.91107e-20 0.699222 1.53026e-20 -0.393271)
(-4.86156 0.0458977 8.32755e-20 -0.0943672 -5.95675e-20 -1.98454)
(3.6357 0.101149 8.4559e-20 0.899528 -1.06818e-20 1.81226)
(0.568549 0.196083 2.45514e-20 0.13286 -9.94657e-21 0.27895)
(-1.62155 0.177291 -5.53832e-20 0.681636 -1.92663e-20 -0.377681)
(-4.68537 0.0446222 -6.37139e-21 -0.082044 2.73139e-20 -1.90909)
(3.48869 0.101309 5.91679e-20 0.872908 -3.36815e-20 1.74284)
(0.540406 0.195088 -8.13282e-20 0.136091 -3.18009e-20 0.269001)
(-1.56469 0.175859 3.95731e-20 0.663823 -4.53822e-21 -0.362043)
(-4.50944 0.0434162 -8.5902e-20 -0.0700497 -1.86577e-20 -1.83386)
(3.34317 0.101314 -4.55524e-20 0.845987 1.46699e-20 1.67389)
(0.513018 0.193891 -9.34462e-21 0.138866 4.90868e-20 0.259171)
(-1.50764 0.174293 -5.54088e-20 0.645707 -1.6636e-20 -0.346448)
(-4.33409 0.0422424 1.92418e-20 -0.0585542 4.06686e-20 -1.75908)
(3.19933 0.101145 1.45834e-19 0.818873 4.29388e-20 1.60555)
(0.486444 0.192473 1.76659e-20 0.141234 -3.41414e-20 0.249504)
(-1.45041 0.172581 6.84621e-20 0.627357 6.32431e-20 -0.330874)
(-4.15943 0.0411058 9.84673e-20 -0.0474888 -6.65899e-20 -1.68474)
(3.0573 0.10081 -1.13963e-19 0.791548 -4.9813e-20 1.53783)
(0.460676 0.190821 3.76154e-20 0.143157 -3.26302e-20 0.239981)
(-1.3931 0.170699 -1.17409e-19 0.608758 6.80802e-20 -0.315367)
(-3.9857 0.0399855 -4.88242e-20 -0.0369178 -2.30846e-20 -1.61097)
(2.91726 0.100298 -1.11493e-20 0.764066 9.77878e-21 1.47085)
(0.435752 0.188916 -7.56672e-20 0.144647 4.8591e-20 0.230622)
(-1.33577 0.16863 -1.60195e-20 0.589946 -3.02585e-20 -0.299939)
(-3.81311 0.0388762 4.99866e-20 -0.0268344 7.10299e-20 -1.53785)
(2.77936 0.0996077 -1.0212e-19 0.736445 -8.4948e-22 1.40467)
(0.411689 0.186744 -3.26445e-20 0.145686 -3.95129e-20 0.221428)
(-1.27851 0.166356 -9.68686e-20 0.570929 -7.03432e-20 -0.284622)
(-3.64189 0.0377652 1.17738e-19 -0.0172735 4.30199e-20 -1.4655)
(2.64382 0.0987338 -1.93524e-19 0.708729 -3.25238e-21 1.3394)
(0.388521 0.18429 2.44916e-19 0.146275 6.76859e-20 0.212412)
(-1.22141 0.163862 -5.08525e-21 0.551732 -1.33167e-19 -0.269438)
(-3.47228 0.0366457 -8.10284e-20 -0.00824935 4.43519e-20 -1.394)
(2.51082 0.0976733 1.39583e-19 0.68095 -5.38298e-20 1.27511)
(0.366276 0.181543 -6.85644e-20 0.146403 4.4081e-20 0.20358)
(-1.16455 0.161133 2.90728e-19 0.532372 2.35044e-20 -0.254416)
(-3.30455 0.0355095 -1.43414e-19 0.000211524 1.41112e-20 -1.32348)
(2.38057 0.0964227 -2.88103e-20 0.653152 8.7424e-21 1.21192)
(0.344984 0.178494 4.18973e-20 0.146067 1.45622e-19 0.194945)
(-1.10802 0.158159 9.24649e-20 0.512876 -8.82359e-20 -0.239585)
(-3.13896 0.0343515 1.80189e-20 0.00808877 4.45833e-20 -1.25406)
(2.25329 0.0949807 2.30169e-19 0.625377 4.33967e-21 1.14992)
(0.324675 0.175137 -3.0955e-20 0.145264 6.17228e-20 0.186515)
(-1.05193 0.154934 -8.48458e-20 0.493267 -3.09424e-20 -0.224973)
(-2.9758 0.0331674 -4.7527e-20 0.0153594 -1.31902e-19 -1.18584)
(2.12917 0.0933467 -1.00445e-19 0.597671 1.4119e-19 1.08922)
(0.30538 0.171471 -6.1302e-20 0.143991 7.25447e-20 0.178304)
(-0.996381 0.151453 1.89866e-20 0.473573 -1.09932e-19 -0.21061)
(-2.81533 0.0319549 1.20295e-20 0.0220032 -1.94176e-20 -1.11896)
(2.00844 0.091522 -1.00834e-19 0.570083 1.09369e-20 1.02992)
(0.287125 0.167496 1.70518e-19 0.142248 -1.53442e-19 0.17032)
(-0.941465 0.147719 -2.4314e-19 0.453822 2.02618e-19 -0.196524)
(-2.65785 0.0307135 1.15012e-19 0.0280012 -1.10193e-19 -1.05354)
(1.8913 0.0895092 5.44745e-20 0.542663 -8.74716e-20 0.972115)
(0.269935 0.16322 5.37577e-20 0.140038 -1.78818e-19 0.162576)
(-0.887289 0.143735 -1.56408e-19 0.434046 -9.41429e-20 -0.182744)
(-2.50364 0.0294444 -1.57065e-20 0.0333372 1.86454e-19 -0.989682)
(1.77794 0.0873127 2.9336e-19 0.515463 1.58007e-19 0.915913)
(0.253829 0.158651 -7.5092e-20 0.137368 3.40999e-19 0.155082)
(-0.833957 0.139511 1.05254e-19 0.414277 1.48917e-19 -0.169298)
(-2.35298 0.0281507 -1.7584e-19 0.0379977 -1.10615e-19 -0.927519)
(1.66854 0.0849387 -7.52056e-20 0.488537 1.12487e-19 0.861407)
(0.238824 0.153806 7.89253e-20 0.134246 -1.61926e-19 0.147847)
(-0.781571 0.135061 9.83824e-21 0.394552 1.99278e-19 -0.156214)
(-2.20613 0.0268372 -1.19496e-19 0.0419733 4.33855e-20 -0.867158)
(1.56328 0.0823949 -2.24446e-19 0.461938 -2.4195e-19 0.808684)
(0.22493 0.148701 1.02843e-19 0.130683 1.71643e-19 0.140881)
(-0.730231 0.130401 4.2671e-20 0.374905 -3.15632e-19 -0.143517)
(-2.06336 0.0255103 1.92295e-19 0.0452587 7.10321e-20 -0.808705)
(1.4623 0.0796908 9.79636e-20 0.435721 5.61013e-20 0.757826)
(0.212151 0.14336 -1.99921e-19 0.126696 3.25435e-21 0.134192)
(-0.680036 0.125553 4.04004e-19 0.355374 -6.5462e-20 -0.131232)
(-1.92491 0.0241779 -2.26125e-19 0.0478533 6.9638e-20 -0.752257)
(1.36572 0.0768372 1.79724e-19 0.40994 -1.22911e-19 0.708906)
(0.200484 0.137807 -2.66512e-19 0.122304 3.7293e-20 0.127785)
(-0.63108 0.120542 -4.54578e-20 0.336 4.44191e-19 -0.119379)
(-1.791 0.0228492 -2.88133e-20 0.0497617 5.90199e-20 -0.697901)
(1.27366 0.0738467 3.51351e-19 0.384648 -4.13315e-20 0.661985)
(0.189919 0.132071 -1.27729e-19 0.11753 -1.3189e-19 0.121667)
(-0.583453 0.115395 3.82278e-20 0.316821 -3.83813e-19 -0.10798)
(-1.66184 0.0215346 -1.53948e-19 0.0509938 -2.24282e-19 -0.645714)
(1.18618 0.0707326 7.61177e-20 0.359897 1.09132e-19 0.617115)
(0.18044 0.126184 -6.3618e-20 0.1124 2.34582e-19 0.115841)
(-0.537239 0.110142 -3.56045e-19 0.297878 3.57776e-19 -0.0970521)
(-1.53759 0.0202453 -3.05388e-19 0.0515654 4.37789e-21 -0.595761)
(1.10334 0.0675096 6.49441e-19 0.335737 5.38345e-21 0.574336)
(0.172019 0.120179 -1.2343e-19 0.106945 4.85483e-19 0.110308)
(-0.492515 0.104815 1.61713e-19 0.279213 -2.19677e-19 -0.0866091)
(-1.41842 0.0189931 4.77228e-19 0.0514978 1.28546e-19 -0.548095)
(1.02516 0.0641932 -1.03708e-19 0.312217 -6.495e-20 0.533674)
(0.164624 0.114091 -2.25908e-19 0.101198 -5.92959e-19 0.105069)
(-0.449353 0.0994483 1.07566e-20 0.260867 -7.02795e-20 -0.0766633)
(-1.30445 0.0177904 -1.87468e-19 0.0508184 1.06369e-19 -0.502752)
(0.951618 0.0607995 1.34929e-19 0.289382 -1.50257e-20 0.495143)
(0.158214 0.107955 4.8137e-20 0.0951953 -9.47414e-20 0.100121)
(-0.407815 0.0940758 8.75694e-20 0.24288 -3.27448e-19 -0.0672234)
(-1.19577 0.0166493 -5.31926e-19 0.0495601 1.14717e-19 -0.459759)
(0.88268 0.0573447 -1.60728e-20 0.267273 1.03548e-20 0.458744)
(0.152738 0.101808 -2.16223e-20 0.0889766 5.15235e-19 0.0954612)
(-0.367955 0.088732 6.79267e-20 0.225293 -4.96975e-20 -0.0582954)
(-1.09244 0.0155821 3.973e-20 0.0477613 1.17551e-19 -0.419123)
(0.818274 0.0538456 -2.58959e-19 0.24593 -1.88414e-19 0.424463)
(0.148142 0.0956859 5.46377e-19 0.0825836 -5.09011e-21 0.091083)
(-0.329821 0.0834508 -3.83026e-19 0.208146 3.29528e-19 -0.0498821)
(-0.994498 0.0146002 2.55972e-19 0.0454654 -2.88073e-19 -0.380841)
(0.758303 0.0503184 -1.73005e-19 0.225387 -5.93471e-20 0.392276)
(0.144362 0.0896223 -3.27275e-19 0.0760602 -8.7032e-19 0.0869789)
(-0.29345 0.078265 9.40838e-20 0.191476 -1.89444e-19 -0.0419831)
(-0.90194 0.0137147 1.96194e-19 0.0427205 4.10448e-20 -0.344894)
(0.70264 0.0467791 3.87084e-19 0.205674 1.05219e-19 0.362145)
(0.141329 0.0836509 -1.75417e-19 0.0694519 4.33716e-19 0.0831395)
(-0.25887 0.0732057 9.49238e-20 0.17532 2.8352e-19 -0.0345953)
(-0.81474 0.0129353 4.48601e-19 0.039579 -3.38163e-19 -0.311249)
(0.651135 0.043243 7.82969e-20 0.186819 -1.00152e-19 0.334018)
(0.138968 0.0778027 4.58748e-20 0.0628053 2.06569e-19 0.0795536)
(-0.226103 0.0683018 -6.12831e-20 0.159714 1.15852e-19 -0.0277129)
(-0.73284 0.0122708 -6.28023e-19 0.0360965 1.62436e-19 -0.279862)
(0.603613 0.0397247 3.87273e-20 0.168843 -3.67536e-20 0.307837)
(0.137202 0.072106 2.52382e-19 0.0561675 3.19687e-19 0.0762084)
(-0.195158 0.0635795 3.1228e-19 0.14469 8.33589e-20 -0.0213274)
(-0.656156 0.0117286 2.22012e-19 0.0323315 -3.53487e-20 -0.250675)
(0.55988 0.0362377 -3.08089e-19 0.151765 1.77596e-20 0.28353)
(0.135946 0.0665864 -8.34535e-21 0.0495859 -3.74462e-19 0.0730901)
(-0.16604 0.0590617 -8.18786e-19 0.130278 2.58122e-19 -0.0154277)
(-0.584581 0.0113144 1.92952e-19 0.0283447 1.88704e-19 -0.223621)
(0.519727 0.0327944 -1.21922e-19 0.135597 -7.22954e-19 0.261018)
(0.135118 0.0612661 -2.68882e-19 0.0431073 4.18418e-19 0.0701833)
(-0.138743 0.0547683 4.1816e-19 0.116507 -6.8086e-19 -0.010001)
(-0.517981 0.0110325 -8.03727e-21 0.024198 -4.62302e-20 -0.198622)
(0.482926 0.0294058 -3.62595e-19 0.12035 1.35577e-19 0.240215)
(0.134629 0.056164 1.23781e-19 0.0367778 1.17875e-19 0.0674719)
(-0.113256 0.0507155 -5.17319e-19 0.103401 2.0441e-19 -0.00503231)
(-0.456207 0.0108856 -3.89282e-19 0.0199537 2.35338e-19 -0.175592)
(0.449243 0.0260817 4.61104e-19 0.106027 -9.54693e-20 0.221029)
(0.134394 0.0512956 2.20001e-19 0.0306421 -1.05573e-19 0.0649389)
(-0.0895599 0.0469163 9.17245e-20 0.0909833 7.95871e-21 -0.000505119)
(-0.399088 0.0108747 6.70364e-19 0.0156741 -4.73246e-19 -0.15444)
(0.418434 0.0228305 -8.40308e-20 0.0926313 1.65104e-19 0.203363)
(0.134324 0.0466729 -2.34212e-19 0.0247433 1.99604e-19 0.062567)
(-0.0676288 0.04338 1.42879e-19 0.0792724 -3.47061e-19 0.00359846)
(-0.346443 0.0109994 -4.46015e-19 0.0114206 1.19672e-19 -0.135067)
(0.39025 0.0196596 -3.46819e-19 0.0801593 2.57171e-20 0.187116)
(0.134336 0.042305 1.42695e-19 0.0191223 -1.02439e-19 0.0603383)
(-0.0474319 0.0401131 4.8276e-19 0.0682846 6.72234e-21 0.0072973)
(-0.298077 0.0112582 -1.93037e-19 0.00725293 1.33769e-19 -0.117372)
(0.364441 0.0165747 -3.46891e-20 0.0686056 2.26415e-19 0.172186)
(0.134345 0.038198 3.58974e-19 0.0138178 -5.68497e-19 0.0582351)
(-0.0289331 0.037119 -5.51086e-19 0.0580334 -3.93908e-19 0.0106112)
(-0.253785 0.0116481 -1.40796e-19 0.00322871 -5.07631e-20 -0.10125)
(0.340757 0.0135809 -3.40162e-19 0.0579616 1.18411e-19 0.15847)
(0.134272 0.0343555 -4.06753e-19 0.00886605 -2.3857e-19 0.0562395)
(-0.0120918 0.0343991 -2.79431e-21 0.0485286 2.76616e-19 0.0135604)
(-0.213358 0.0121654 1.15534e-19 -0.000597029 8.22794e-20 -0.0865941)
(0.318951 0.0106821 -4.70703e-20 0.0482154 -3.35799e-20 0.145864)
(0.134038 0.0307794 5.80867e-19 0.00430056 -3.49843e-19 0.0543342)
(0.0031364 0.0319526 9.5743e-19 0.0397777 2.75152e-19 0.0161657)
(-0.176581 0.012806 -1.14474e-19 -0.00417223 2.87272e-19 -0.0732986)
(0.298782 0.00788124 -8.7345e-20 0.0393532 -3.34988e-19 0.134265)
(0.133572 0.0274697 -3.75388e-19 0.0001522 9.13822e-19 0.0525023)
(0.0167992 0.0297774 2.65449e-20 0.0317847 -4.64833e-19 0.0184477)
(-0.143236 0.013565 4.03923e-20 -0.00744814 -5.41453e-19 -0.0612566)
(0.280013 0.00518059 -2.75979e-19 0.0313589 1.74666e-20 0.123574)
(0.132803 0.0244248 3.82677e-20 -0.00355087 -3.30515e-19 0.0507276)
(0.028947 0.0278701 -3.25386e-19 0.0245516 2.6625e-19 0.0204274)
(-0.113105 0.0144377 -2.38779e-20 -0.0103794 3.9828e-20 -0.050363)
(0.262419 0.00258141 -3.85084e-19 0.0242148 3.93756e-19 0.113693)
(0.131669 0.0216417 -3.55842e-21 -0.00678304 1.36605e-19 0.0489949)
(0.0396319 0.0262258 4.52982e-19 0.0180774 -6.79322e-19 0.0221253)
(-0.0859737 0.0154193 6.1421e-19 -0.0129239 -1.90806e-19 -0.0405146)
(0.245783 8.37788e-05 1.64666e-19 0.0179014 -4.09878e-19 0.104527)
(0.130112 0.0191152 4.52019e-21 -0.00952137 -1.03129e-18 0.04729)
(0.048907 0.024838 -4.49263e-19 0.0123598 2.02956e-18 0.0235617)
(-0.0616294 0.0165046 -4.04887e-19 -0.0150433 -2.65237e-19 -0.0316113)
(0.229903 -0.00231401 -3.13682e-20 0.0123994 4.96436e-19 0.0959877)
(0.128078 0.0168367 1.72521e-20 -0.0117451 -3.85779e-19 0.0456003)
(0.0568255 0.0236973 1.01569e-18 0.00739459 -4.7506e-19 0.0247561)
(-0.0398676 0.0176882 -5.51605e-19 -0.016702 -1.07741e-19 -0.0235571)
(0.214593 -0.00461632 -4.48856e-19 0.00768827 -6.90146e-19 0.0879923)
(0.125523 0.0147923 -2.92363e-20 -0.013436 3.69631e-19 0.0439146)
(0.0634385 0.0227898 -2.09268e-19 0.00317735 -6.73824e-19 0.0257272)
(-0.0204945 0.0189637 2.2515e-19 -0.0178678 -1.8714e-19 -0.0162615)
(0.199688 -0.00683154 -1.36591e-19 0.00374979 -8.91123e-20 0.0804678)
(0.122407 0.0129603 6.53905e-19 -0.014577 1.22655e-18 0.0422245)
(0.0687945 0.0220951 -6.79298e-19 -0.000295275 -5.46172e-20 0.026493)
(-0.00333173 0.0203233 2.69551e-20 -0.0185109 4.34361e-19 -0.00964135)
(0.185052 -0.00897401 -9.22655e-19 0.000566776 1.2902e-19 0.0733524)
(0.118699 0.0113075 1.67074e-20 -0.0151537 -2.28399e-19 0.0405227)
(0.0729328 0.021584 7.93774e-19 -0.00302517 3.39136e-19 0.0270684)
(0.0117754 0.021757 -8.49788e-19 -0.0186044 4.69698e-19 -0.00362405)
(0.170588 -0.011067 1.26432e-20 -0.00186944 3.90569e-19 0.0666045)
(0.114377 0.00978394 -9.168e-20 -0.0151469 9.13937e-20 0.0388084)
(0.0758871 0.0212174 1.14929e-19 -0.00500457 2.03601e-19 0.02747)
(0.024958 0.0232533 -1.28405e-19 -0.0181202 -3.33817e-19 0.00185411)
(0.156242 -0.0131469 6.51393e-20 -0.00356237 -5.04474e-19 0.0602002)
(0.109407 0.00831787 -4.64428e-19 -0.0145411 8.66991e-20 0.0370738)
(0.0776542 0.0209471 5.58116e-19 -0.00622277 -1.15259e-18 0.0277006)
(0.0363031 0.0248008 2.79235e-19 -0.0170331 4.77706e-19 0.00683788)
(0.142058 -0.0152731 1.07669e-19 -0.00448153 -1.56484e-19 0.0541697)
(0.103781 0.00680357 9.07216e-20 -0.0132822 6.70595e-19 0.0353379)
(0.0782352 0.0207263 -2.83884e-19 -0.00662278 9.98722e-19 0.0277835)
(0.0458995 0.0263982 -2.55694e-19 -0.0152954 -3.09342e-19 0.0113818)
(0.128114 -0.0175382 -5.81378e-19 -0.00458228 6.24144e-19 0.0485615)
(0.097336 0.00509319 5.21066e-19 -0.0113416 2.51622e-19 0.0335459)
(0.0774427 0.0205229 -4.97387e-20 -0.00616575 -1.45717e-18 0.0276591)
(0.0537533 0.0280647 5.75678e-20 -0.0128592 -6.44448e-19 0.0155075)
(0.114863 -0.0201155 2.98367e-19 -0.00365993 -4.95898e-19 0.0436396)
(0.0900798 0.00295529 -1.78312e-19 -0.00847162 1.36774e-18 0.0318006)
(0.0752429 0.0203756 -4.52482e-19 -0.00458366 -5.94824e-19 0.0274212)
(0.0601399 0.0298974 1.51358e-19 -0.00953283 7.22238e-19 0.0194017)
(0.102521 -0.0232356 1.17496e-19 -0.00150764 4.56991e-19 0.039572)
(0.0809385 0.000120032 -3.32914e-19 -0.00478224 2.73596e-19 0.0296281)
(0.070486 0.0203736 7.3965e-19 -0.00196282 -2.66077e-19 0.026575)
(0.0649752 0.0320507 -2.5639e-19 -0.00513658 -3.46142e-19 0.0231025)
(0.0932549 -0.0273095 -2.50657e-19 0.00279125 2.92641e-19 0.0375928)
(0.0706118 -0.00375709 1.14394e-18 0.000582316 -1.69834e-18 0.0276508)
(0.0638229 0.0207271 7.12716e-20 0.00259333 1.2356e-18 0.0257396)
(0.0701111 0.0349002 -7.34231e-20 0.00120222 2.75798e-19 0.0276999)
(0.0855402 -0.0317869 2.7208e-19 0.00877234 -6.60835e-20 0.036906)
(0.0534452 -0.00813031 7.06908e-20 0.00383205 -4.22459e-19 0.0220902)
(0.0494747 0.0208615 -1.24878e-19 0.00531912 -1.86348e-19 0.0210969)
(0.0735109 0.0378543 -2.16886e-19 0.00893923 4.62967e-19 0.0321611)
(0.0883248 -0.0343318 2.72971e-19 0.0146066 2.40234e-19 0.0403596)
(0.0423981 -0.0113068 -8.89249e-20 0.0023665 -1.2049e-20 0.0170903)
(0.0406336 0.0192906 -5.66827e-19 0.00370215 9.85015e-19 0.0169187)
(0.0842667 0.0387692 -4.81297e-19 0.0160951 -8.31706e-19 0.0393317)
(0.0694112 -0.0243132 1.59712e-20 -0.0132917 3.66655e-19 0.0216374)
(0.0132218 -0.00878081 1.61049e-19 -0.0525449 1.1159e-18 -0.0165432)
(0.0126735 0.0124656 -2.85022e-19 -0.0511929 -3.46495e-19 -0.0162217)
(0.0690973 0.0272765 1.71409e-19 -0.0112253 2.27146e-19 0.0223384)
)
;

boundaryField
{
    plateFix
    {
        type            calculated;
        value           nonuniform List<symmTensor> 4((5.76192 0.507956 -1.42461e-21 2.26235 9.59302e-20 3.20758) (0.988259 -0.725978 1.00418e-23 0.425402 5.55465e-23 0.564304) (-1.98948 -0.459007 8.3136e-23 -0.827233 -7.35747e-23 -1.12787) (-7.34153 1.24222 -1.0148e-21 -2.38688 -1.21829e-19 -3.89398));
    }
    plate
    {
        type            calculated;
        value           nonuniform List<symmTensor> 
168
(
(4.58873 0.0007971 -3.73257e-22 0.461704 3.74729e-20 2.01816)
(-5.46884 -0.0025619 -2.38831e-23 0.462868 -3.67307e-20 -2.00477)
(4.79386 0.000924656 1.5743e-21 0.462458 2.79173e-21 2.10045)
(-5.74449 -0.00238187 1.52132e-21 0.463598 4.59246e-20 -2.11484)
(5.00578 0.00142698 -3.27066e-21 0.463321 -4.15137e-20 2.18548)
(-6.06258 -0.00259075 -5.54843e-21 0.46444 -4.10888e-20 -2.24188)
(5.08209 0.00225144 1.6723e-21 0.46414 3.51518e-20 2.2163)
(-6.18363 -0.00318442 4.5432e-21 0.465244 -3.28518e-20 -2.29003)
(5.11835 0.00336223 -1.3387e-21 0.46483 -1.94548e-21 2.23105)
(-6.25808 -0.00418695 -3.55944e-22 0.465921 7.02923e-20 -2.31958)
(5.11 0.00466618 1.71354e-21 0.465317 1.8185e-21 2.22789)
(-6.27335 -0.00545849 2.00527e-22 0.466402 -3.17633e-20 -2.32551)
(5.08023 0.00610002 -1.43168e-21 0.465567 2.88519e-20 2.21609)
(-6.26347 -0.00692276 5.65355e-22 0.46665 3.38609e-20 -2.32146)
(5.03466 0.00760505 4.06021e-21 0.465565 -5.33757e-20 2.19786)
(-6.23391 -0.00850171 -3.71328e-21 0.466652 -3.78721e-21 -2.30964)
(4.9801 0.00914107 -4.06339e-21 0.46531 5.38394e-20 2.17594)
(-6.19317 -0.0101447 -2.51649e-21 0.466405 -2.45663e-20 -2.29343)
(4.91932 0.0106796 5.63614e-21 0.464805 -2.39316e-23 2.15144)
(-6.14366 -0.0118146 8.88333e-21 0.465913 -5.5141e-21 -2.27382)
(4.85419 0.0122034 -6.18429e-21 0.464055 -2.42342e-20 2.1251)
(-6.08716 -0.0134886 -1.71668e-21 0.46518 2.37829e-21 -2.25149)
(4.78541 0.0137032 -6.64905e-21 0.463059 -3.87553e-23 2.0972)
(-6.02405 -0.015153 -4.0115e-21 0.464207 -1.78631e-20 -2.22662)
(4.71318 0.0151756 1.5006e-20 0.461814 2.77494e-21 2.06782)
(-5.95443 -0.0168014 3.08741e-21 0.462989 1.26108e-20 -2.19924)
(4.63732 0.0166205 -1.08353e-20 0.460306 1.73149e-21 2.03689)
(-5.87816 -0.0184313 -2.29289e-21 0.461518 -6.21836e-23 -2.1693)
(4.5575 0.0180392 -8.7962e-21 0.458516 -2.74692e-21 2.00427)
(-5.79507 -0.0200423 1.50208e-20 0.459773 -7.93596e-21 -2.13673)
(4.47327 0.0194326 1.48099e-20 0.456414 1.63265e-20 1.96975)
(-5.70494 -0.021634 -5.30354e-21 0.457729 -7.41404e-21 -2.10146)
(4.38417 0.0207995 -8.87778e-21 0.453964 -1.06522e-20 1.93315)
(-5.60751 -0.0232044 1.58544e-20 0.455353 7.40266e-21 -2.06341)
(4.28973 0.0221351 3.82942e-20 0.451121 -6.96821e-21 1.89427)
(-5.5025 -0.0247479 -4.68545e-21 0.452603 4.98315e-22 -2.02247)
(4.18955 0.0234323 -5.3861e-20 0.44784 -8.49835e-23 1.85291)
(-5.38959 -0.0262567 -2.66625e-20 0.449439 1.91939e-20 -1.97853)
(4.08319 0.0246718 -4.94929e-20 0.444052 7.83518e-22 1.80887)
(-5.26843 -0.0277111 3.5554e-20 0.445797 -1.01505e-20 -1.93148)
(3.97045 0.0258534 6.83996e-20 0.439758 9.91576e-21 1.76209)
(-5.13863 -0.02911 -2.98467e-20 0.441682 -1.51234e-20 -1.88116)
(3.8506 0.0268976 2.9784e-20 0.434742 -6.85759e-21 1.71217)
(-4.99973 -0.0303767 -7.08268e-21 0.436891 2.02096e-20 -1.82747)
(3.71972 0.02806 -2.17958e-20 0.429276 -3.33e-23 1.65767)
(-4.84606 -0.0317608 6.21995e-20 0.431685 -8.34029e-21 -1.76803)
(3.58144 0.0292258 -5.13755e-20 0.422502 -2.01303e-23 1.59969)
(-4.68263 -0.0331328 -1.52475e-19 0.425263 1.35306e-20 -1.70518)
(3.44447 0.0301815 -7.90541e-20 0.415663 -8.85793e-22 1.54219)
(-4.51887 -0.0342793 8.31248e-20 0.418803 -1.83423e-22 -1.6422)
(3.30872 0.0310438 8.45305e-20 0.408259 2.3391e-22 1.48497)
(-4.35549 -0.0353084 -6.31484e-21 0.411835 7.99405e-21 -1.57958)
(3.17438 0.0317663 5.90726e-20 0.400604 5.92146e-22 1.4282)
(-4.19229 -0.036179 -8.59217e-20 0.404655 -1.63848e-20 -1.51712)
(3.04144 0.0323946 -4.55962e-20 0.39252 1.23806e-20 1.37182)
(-4.0296 -0.0369353 1.93304e-20 0.397093 8.19877e-21 -1.45502)
(2.91011 0.0329109 1.45946e-19 0.384116 5.24707e-23 1.31596)
(-3.8675 -0.0375623 9.82524e-20 0.389252 7.88747e-21 -1.39327)
(2.78046 0.0333321 -1.14101e-19 0.375339 -6.98506e-21 1.26062)
(-3.70623 -0.0380771 -4.89322e-20 0.381079 1.4597e-20 -1.33198)
(2.65269 0.033653 -1.11397e-20 0.366228 1.12566e-20 1.2059)
(-3.54597 -0.0384766 5.01753e-20 0.372607 -6.13226e-23 -1.27122)
(2.52692 0.0338798 -1.02088e-19 0.356774 6.02954e-21 1.15184)
(-3.38695 -0.0387678 1.17972e-19 0.363824 -2.0366e-20 -1.21108)
(2.40335 0.0340113 -1.93607e-19 0.346995 8.87856e-21 1.09852)
(-3.22939 -0.038951 -8.09759e-20 0.35474 1.9598e-20 -1.15165)
(2.28215 0.0340493 1.39309e-19 0.336896 7.36915e-22 1.04603)
(-3.07353 -0.0390291 -1.43373e-19 0.345357 -3.70207e-21 -1.09302)
(2.1635 0.0339938 -2.87714e-20 0.326492 3.2329e-21 0.994436)
(-2.91962 -0.0390033 1.81401e-20 0.335681 3.4384e-21 -1.03528)
(2.04761 0.0338452 2.30216e-19 0.315796 -2.44551e-21 0.943825)
(-2.76793 -0.0388749 -4.80141e-20 0.325717 -3.55006e-21 -0.978553)
(1.93465 0.0336034 -9.98612e-20 0.304827 -1.95114e-22 0.894279)
(-2.61871 -0.0386446 1.19502e-20 0.315476 3.44602e-21 -0.922925)
(1.82483 0.0332683 -1.0079e-19 0.293602 6.78033e-21 0.845883)
(-2.47223 -0.0383133 1.145e-19 0.304965 1.57641e-20 -0.8685)
(1.71832 0.0328397 5.41127e-20 0.282144 6.79775e-21 0.798719)
(-2.32875 -0.0378813 -1.50068e-20 0.294199 1.46112e-20 -0.815381)
(1.6153 0.0323177 2.93987e-19 0.270476 1.41294e-21 0.752869)
(-2.18853 -0.037349 -1.76267e-19 0.283192 -5.60862e-22 -0.763665)
(1.51595 0.0317022 -7.47109e-20 0.258625 -6.18956e-21 0.708408)
(-2.05183 -0.0367168 -1.19309e-19 0.271959 -2.02881e-22 -0.713445)
(1.4204 0.0309935 -2.25517e-19 0.246621 -9.86476e-22 0.665409)
(-1.91889 -0.0359849 1.92572e-19 0.260522 -1.50406e-21 -0.664812)
(1.32879 0.030192 9.82328e-20 0.234494 2.69402e-22 0.623938)
(-1.78993 -0.0351536 -2.25835e-19 0.248903 1.69458e-21 -0.617845)
(1.24124 0.0292982 1.79106e-19 0.222279 3.10695e-21 0.584053)
(-1.66516 -0.0342235 -2.85193e-20 0.237126 -1.06932e-20 -0.57262)
(1.15784 0.0283131 3.51175e-19 0.21001 -2.88846e-21 0.545806)
(-1.54478 -0.033195 -1.54944e-19 0.225219 -3.2003e-21 -0.529202)
(1.07866 0.027238 7.65905e-20 0.197725 -1.68638e-21 0.509237)
(-1.42895 -0.0320692 -3.05375e-19 0.213214 -1.40267e-21 -0.487644)
(1.00372 0.0260745 6.49451e-19 0.185462 5.19592e-21 0.47438)
(-1.31781 -0.0308469 4.77796e-19 0.201143 2.33265e-21 -0.447991)
(0.933059 0.0248245 -1.04008e-19 0.173262 -1.96273e-21 0.441254)
(-1.21149 -0.0295298 -1.87028e-19 0.189042 1.06279e-20 -0.410276)
(0.866651 0.0234905 1.34921e-19 0.161165 -6.22935e-21 0.409872)
(-1.11006 -0.0281195 -5.31343e-19 0.176948 -4.47048e-21 -0.374519)
(0.804457 0.0220752 -1.59948e-20 0.149211 -6.14365e-21 0.380232)
(-1.0136 -0.0266183 4.0271e-20 0.164902 1.35887e-20 -0.34073)
(0.746409 0.0205817 -2.59887e-19 0.137443 -7.35786e-21 0.352325)
(-0.922136 -0.0250289 2.54528e-19 0.152944 1.32118e-20 -0.308904)
(0.692413 0.0190137 -1.73221e-19 0.125901 -7.55131e-22 0.326128)
(-0.835671 -0.0233542 1.96323e-19 0.141117 1.19088e-20 -0.279028)
(0.642349 0.0173749 3.87554e-19 0.114625 1.73764e-21 0.30161)
(-0.754185 -0.0215978 4.46932e-19 0.129463 1.21099e-20 -0.251074)
(0.596074 0.0156698 7.78012e-20 0.103653 -3.13064e-21 0.27873)
(-0.677628 -0.0197637 -6.27211e-19 0.118026 -3.15116e-21 -0.225005)
(0.553426 0.0139028 3.85798e-20 0.0930241 -9.89787e-22 0.257436)
(-0.605926 -0.0178563 2.21848e-19 0.10685 1.33935e-22 -0.200775)
(0.514222 0.0120787 -3.08051e-19 0.082773 -1.52201e-21 0.237671)
(-0.538981 -0.0158805 1.93932e-19 0.0959767 1.87139e-21 -0.178328)
(0.478265 0.0102026 -1.25478e-19 0.0729335 -4.43504e-21 0.21937)
(-0.476675 -0.0138413 -8.24659e-21 0.0854485 -4.51111e-22 -0.157598)
(0.445345 0.00827958 -3.6186e-19 0.063537 -2.10931e-21 0.20246)
(-0.418871 -0.0117443 -3.88103e-19 0.0753057 -7.11979e-21 -0.138517)