/*--------------------------------*- C++ -*----------------------------------*\
| =========                 |                                                 |
| \\      /  F ield         | OpenFOAM Extend Project: Open source CFD        |
|  \\    /   O peration     | Version:  1.6-ext                               |
|   \\  /    A nd           | Web:      www.extend-project.de                 |
|    \\/     M anipulation  |                                                 |
\*---------------------------------------------------------------------------*/
FoamFile
{
    version     2.0;
    format      ascii;
    class       volScalarField;
    location    "0.9";
    object      sigmaEq;
}
// * * * * * * * * * * * * * * * * * * * * * * * * * * * * * * * * * * * * * //

dimensions      [1 -1 -2 0 0 0 0];

internalField   nonuniform List<scalar> 
328
(
3.23731
1.02895
1.20882
4.72993
3.48694
0.879207
1.71453
5.01912
3.71802
0.902679
2.18519
5.35042
3.82064
0.932969
2.46043
5.51815
3.8712
0.950455
2.63352
5.62296
3.87415
0.944759
2.72032
5.66115
3.85288
0.927665
2.75933
5.66527
3.81554
0.904987
2.76596
5.64549
3.76956
0.88149
2.75454
5.61216
3.71823
0.858992
2.73226
5.56951
3.66353
0.83808
2.70419
5.52014
3.60619
0.818481
2.67296
5.46495
3.54638
0.799661
2.64009
5.40428
3.48395
0.781058
2.60617
5.33807
3.41858
0.762224
2.5713
5.26617
3.34989
0.742856
2.53523
5.18831
3.2775
0.72278
2.49758
5.10422
3.20104
0.701912
2.45786
5.01357
3.1202
0.68023
2.41559
4.91601
3.03465
0.657721
2.37033
4.81117
2.94424
0.634449
2.32169
4.69869
2.84855
0.610322
2.26928
4.57804
2.74399
0.583648
2.21046
4.44448
2.6344
0.558608
2.14749
4.3017
2.5261
0.535036
2.08412
4.15865
2.4193
0.512701
2.02022
4.0155
2.31394
0.491504
1.95584
3.87229
2.21014
0.471415
1.89102
3.72916
2.10796
0.452388
1.82584
3.58628
2.00753
0.434381
1.76037
3.4438
1.90896
0.417341
1.69467
3.30189
1.81237
0.401206
1.62884
3.16073
1.7179
0.385907
1.56296
3.02053
1.62568
0.371369
1.49711
2.88148
1.53586
0.357511
1.43139
2.7438
1.44858
0.34425
1.36591
2.60772
1.36399
0.331501
1.30076
2.47346
1.28221
0.319179
1.23605
2.34126
1.20338
0.307206
1.1719
2.21134
1.12762
0.295507
1.10842
2.08395
1.05504
0.284021
1.04574
1.95929
0.985731
0.272693
0.983958
1.83761
0.919781
0.261484
0.923208
1.7191
0.857245
0.250371
0.863607
1.60396
0.798163
0.239345
0.80527
1.49239
0.742554
0.228417
0.748312
1.38455
0.690415
0.217615
0.692845
1.28059
0.641721
0.206984
0.638974
1.18064
0.596424
0.196591
0.586801
1.08481
0.554454
0.186518
0.536421
0.993192
0.515721
0.176862
0.487922
0.905846
0.480115
0.167735
0.441386
0.822817
0.447507
0.159255
0.396888
0.744126
0.417756
0.151544
0.354494
0.66977
0.390702
0.144714
0.314269
0.599729
0.366175
0.13886
0.276268
0.533959
0.343997
0.134046
0.24055
0.472402
0.32398
0.130295
0.207175
0.414983
0.30593
0.127577
0.176215
0.361614
0.289648
0.125813
0.147768
0.312195
0.274935
0.124874
0.121982
0.26662
0.261589
0.124594
0.0991028
0.224781
0.24941
0.124783
0.079547
0.186574
0.238199
0.125244
0.0640144
0.151912
0.227761
0.12578
0.0535039
0.120744
0.217907
0.126203
0.0488332
0.0931089
0.208455
0.126344
0.0495692
0.069248
0.199233
0.126049
0.0538754
0.0499012
0.19008
0.125185
0.0597606
0.036925
0.180851
0.123635
0.0658722
0.033054
0.171422
0.121301
0.0714479
0.0375972
0.161698
0.118099
0.0760723
0.0459602
0.151621
0.113957
0.0795089
0.0549217
0.141181
0.108799
0.081591
0.0631397
0.130457
0.102543
0.0821813
0.0701041
0.119596
0.0950014
0.0810557
0.0755989
0.109054
0.0859741
0.0780209
0.0797315
0.0992761
0.074716
0.0723944
0.0825528
0.0921085
0.0615109
0.0644703
0.0853154
0.0869268
0.0456868
0.0529866
0.0866494
0.0879497
0.0401676
0.0465499
0.0900687
0.0833334
0.0590337
0.0594525
0.0843466
)
;

boundaryField
{
    plateFix
    {
        type            calculated;
        value           nonuniform List<scalar> 4(3.25678 1.35612 1.31296 4.89715);
    }
    plate
    {
        type            calculated;
        value           nonuniform List<scalar> 
168
(
3.6099
5.16112
3.78804
5.40199
3.97202
5.67996
4.03784
5.78616
4.06886
5.85163
4.06118
5.86535
4.03504
5.85695
3.99533
5.8312
3.948
5.79548
3.89546
5.75192
3.83935
5.70206
3.78026
5.64623
3.71838
5.58452
3.65356
5.51681
3.58552
5.44292
3.51391
5.36264
3.43835
5.27571
3.35848
5.18187
3.27398
5.08079
3.18451
4.9721
3.08992
4.85549
2.98974
4.73038
2.88034
4.59204
2.76561
4.44416
2.65206
4.29596
2.54006
4.14767
2.4295
3.99934
2.32053
3.85114
2.21323
3.70321
2.10772
3.55573
2.00411
3.40887
1.90255
3.26282
1.80318
3.11779
1.70614
2.97399
1.61159
2.83164
1.51967
2.69097
1.43055
2.55222
1.34437
2.41563
1.26127
2.28144
1.18138
2.14988
1.10483
2.02119
1.03172
1.8956
0.962146
1.77332
0.896165
1.65455
0.83383
1.53949
0.775167
1.42831
0.720176
1.32115
0.668835
1.21816
0.621097
1.11944
0.576892
1.02507
0.536124
0.935123
0.498678
0.849635
0.464419
0.768623
0.433192
0.692079
0.404827
0.619977
0.379142
0.552267
0.355942
0.488883
0.335024
0.429743
0.316181
0.374747
0.299201
0.323787
0.283871
0.276745
0.26998
0.233498
0.257318
0.193923
0.245682
0.157907
0.234874
0.125364
0.224703
0.0962657
0.214989
0.0707404
0.205563
0.0493327
0.196273
0.0338032
0.186983
0.0280971
0.177582
0.0330847
0.167992
0.0427981
0.158176
0.0530913
0.148146
0.0625288
0.138005
0.0706508
0.127909
0.0772881
0.118277
0.082538
0.1094
0.0863858
0.102728
0.0899071
0.0977585
0.0924393
0.101813
0.101366
0.10893
0.0689448
0.0598647
0.0589028
0.0682047
0.110632
)
;
    }
    frontAndBackPlanes
    {
        type            empty;
    }
}


// ************************************************************************* //
