/*--------------------------------*- C++ -*----------------------------------*\
| =========                 |                                                 |
| \\      /  F ield         | OpenFOAM Extend Project: Open source CFD        |
|  \\    /   O peration     | Version:  1.6-ext                               |
|   \\  /    A nd           | Web:      www.extend-project.de                 |
|    \\/     M anipulation  |                                                 |
\*---------------------------------------------------------------------------*/
FoamFile
{
    version     2.0;
    format      ascii;
    class       volVectorField;
    location    "0.9";
    object      Usolid;
}
// * * * * * * * * * * * * * * * * * * * * * * * * * * * * * * * * * * * * * //

dimensions      [0 1 0 0 0 0 0];

internalField   nonuniform List<vector> 
328
(
(1.27667e-07 1.0434e-07 0)
(2.11362e-08 -6.37144e-08 0)
(-4.3125e-08 -3.6545e-08 0)
(-1.72381e-07 2.3465e-07 0)
(3.96504e-07 2.8238e-07 0)
(7.29642e-08 -1.03759e-07 0)
(-1.50782e-07 -2.44401e-08 0)
(-5.31822e-07 6.16577e-07 0)
(7.07608e-07 4.69468e-07 0)
(1.43526e-07 -5.01355e-08 0)
(-3.0833e-07 7.84652e-08 0)
(-9.51682e-07 9.5529e-07 0)
(1.04719e-06 6.96063e-07 0)
(2.21129e-07 1.02946e-07 0)
(-4.92705e-07 2.74042e-07 0)
(-1.4105e-06 1.28978e-06 0)
(1.41678e-06 9.91341e-07 0)
(3.05489e-07 3.61816e-07 0)
(-7.05643e-07 5.67197e-07 0)
(-1.91191e-06 1.65993e-06 0)
(1.81336e-06 1.38161e-06 0)
(3.93429e-07 7.3856e-07 0)
(-9.40098e-07 9.69579e-07 0)
(-2.45186e-06 2.10023e-06 0)
(2.23699e-06 1.89241e-06 0)
(4.84747e-07 1.24854e-06 0)
(-1.19514e-06 1.49727e-06 0)
(-3.03129e-06 2.64291e-06 0)
(2.6875e-06 2.5495e-06 0)
(5.79072e-07 1.91158e-06 0)
(-1.46875e-06 2.17128e-06 0)
(-3.65053e-06 3.31875e-06 0)
(3.16551e-06 3.38037e-06 0)
(6.76808e-07 2.75159e-06 0)
(-1.76067e-06 3.01699e-06 0)
(-4.31108e-06 4.15916e-06 0)
(3.67181e-06 4.41537e-06 0)
(7.78365e-07 3.79708e-06 0)
(-2.0708e-06 4.06434e-06 0)
(-5.01455e-06 5.19737e-06 0)
(4.20742e-06 5.68877e-06 0)
(8.84247e-07 5.08141e-06 0)
(-2.39966e-06 5.34799e-06 0)
(-5.76288e-06 6.4698e-06 0)
(4.77343e-06 7.23963e-06 0)
(9.94857e-07 6.64336e-06 0)
(-2.748e-06 6.90772e-06 0)
(-6.55802e-06 8.01704e-06 0)
(5.37097e-06 9.11271e-06 0)
(1.11049e-06 8.52761e-06 0)
(-3.11679e-06 8.78899e-06 0)
(-7.40197e-06 9.88487e-06 0)
(6.00113e-06 1.13593e-05 0)
(1.23132e-06 1.07855e-05 0)
(-3.50712e-06 1.10436e-05 0)
(-8.29671e-06 1.21252e-05 0)
(6.6649e-06 1.40379e-05 0)
(1.35736e-06 1.34757e-05 0)
(-3.92018e-06 1.37305e-05 0)
(-9.24414e-06 1.47969e-05 0)
(7.36312e-06 1.72153e-05 0)
(1.48854e-06 1.66652e-05 0)
(-4.35713e-06 1.69167e-05 0)
(-1.02461e-05 1.79668e-05 0)
(8.09645e-06 2.09677e-05 0)
(1.62466e-06 2.04299e-05 0)
(-4.81913e-06 2.06782e-05 0)
(-1.13042e-05 2.1711e-05 0)
(8.86531e-06 2.53809e-05 0)
(1.76542e-06 2.48562e-05 0)
(-5.30725e-06 2.51011e-05 0)
(-1.242e-05 2.61153e-05 0)
(9.66984e-06 3.05526e-05 0)
(1.91042e-06 3.00415e-05 0)
(-5.82246e-06 3.02829e-05 0)
(-1.35948e-05 3.12771e-05 0)
(1.05098e-05 3.65926e-05 0)
(2.05916e-06 3.60956e-05 0)
(-6.3656e-06 3.63333e-05 0)
(-1.48295e-05 3.73059e-05 0)
(1.13846e-05 4.36244e-05 0)
(2.21098e-06 4.31423e-05 0)
(-6.93734e-06 4.33757e-05 0)
(-1.61246e-05 4.43251e-05 0)
(1.22933e-05 5.17867e-05 0)
(2.36515e-06 5.13201e-05 0)
(-7.53819e-06 5.15488e-05 0)
(-1.74803e-05 5.24732e-05 0)
(1.32697e-05 6.15943e-05 0)
(2.52662e-06 6.11445e-05 0)
(-8.19243e-06 6.13677e-05 0)
(-1.89501e-05 6.22643e-05 0)
(1.42727e-05 7.29514e-05 0)
(2.68726e-06 7.25191e-05 0)
(-8.8746e-06 7.27361e-05 0)
(-2.04751e-05 7.36028e-05 0)
(1.52338e-05 8.51371e-05 0)
(2.836e-06 8.47219e-05 0)
(-9.5385e-06 8.49325e-05 0)
(-2.19517e-05 8.5769e-05 0)
(1.61532e-05 9.81213e-05 0)
(2.9731e-06 9.77227e-05 0)
(-1.01841e-05 9.79265e-05 0)
(-2.338e-05 9.87329e-05 0)
(1.70315e-05 0.000111874 0)
(3.09885e-06 0.000111491 0)
(-1.08112e-05 0.000111688 0)
(-2.47599e-05 0.000112464 0)
(1.78691e-05 0.000126365 0)
(3.21353e-06 0.000125998 0)
(-1.14198e-05 0.000126188 0)
(-2.60917e-05 0.000126933 0)
(1.86665e-05 0.000141564 0)
(3.31744e-06 0.000141213 0)
(-1.20097e-05 0.000141395 0)
(-2.73753e-05 0.00014211 0)
(1.94243e-05 0.000157442 0)
(3.4109e-06 0.000157106 0)
(-1.25809e-05 0.000157281 0)
(-2.8611e-05 0.000157966 0)
(2.01431e-05 0.00017397 0)
(3.49424e-06 0.000173649 0)
(-1.31334e-05 0.000173816 0)
(-2.97989e-05 0.00017447 0)
(2.08235e-05 0.000191119 0)
(3.56784e-06 0.000190812 0)
(-1.3667e-05 0.00019097 0)
(-3.09393e-05 0.000191595 0)
(2.14663e-05 0.000208859 0)
(3.63205e-06 0.000208566 0)
(-1.41817e-05 0.000208717 0)
(-3.20325e-05 0.000209311 0)
(2.20722e-05 0.000227163 0)
(3.68728e-06 0.000226883 0)
(-1.46775e-05 0.000227026 0)
(-3.3079e-05 0.00022759 0)
(2.26421e-05 0.000246003 0)
(3.73394e-06 0.000245736 0)
(-1.51545e-05 0.00024587 0)
(-3.4079e-05 0.000246404 0)
(2.31769e-05 0.00026535 0)
(3.77246e-06 0.000265096 0)
(-1.56127e-05 0.000265221 0)
(-3.50333e-05 0.000265726 0)
(2.36776e-05 0.000285179 0)
(3.80329e-06 0.000284936 0)
(-1.60521e-05 0.000285053 0)
(-3.59422e-05 0.000285529 0)
(2.41451e-05 0.000305461 0)
(3.82689e-06 0.00030523 0)
(-1.64729e-05 0.000305339 0)
(-3.68066e-05 0.000305786 0)
(2.45806e-05 0.000326173 0)
(3.84373e-06 0.000325952 0)
(-1.68752e-05 0.000326052 0)
(-3.76272e-05 0.000326472 0)
(2.49852e-05 0.000347287 0)
(3.8543e-06 0.000347077 0)
(-1.72592e-05 0.000347168 0)
(-3.84047e-05 0.00034756 0)
(2.536e-05 0.00036878 0)
(3.85908e-06 0.00036858 0)
(-1.7625e-05 0.000368663 0)
(-3.91401e-05 0.000369027 0)
(2.57064e-05 0.000390628 0)
(3.85857e-06 0.000390437 0)
(-1.79729e-05 0.000390511 0)
(-3.98343e-05 0.000390849 0)
(2.60255e-05 0.000412807 0)
(3.85326e-06 0.000412625 0)
(-1.83031e-05 0.00041269 0)
(-4.04884e-05 0.000413003 0)
(2.63187e-05 0.000435296 0)
(3.84365e-06 0.000435122 0)
(-1.86161e-05 0.000435179 0)
(-4.11035e-05 0.000435466 0)
(2.65874e-05 0.000458073 0)
(3.83023e-06 0.000457906 0)
(-1.89121e-05 0.000457954 0)
(-4.16808e-05 0.000458217 0)
(2.68327e-05 0.000481117 0)
(3.81348e-06 0.000480957 0)
(-1.91915e-05 0.000480997 0)
(-4.22215e-05 0.000481236 0)
(2.70561e-05 0.000504408 0)
(3.79386e-06 0.000504255 0)
(-1.94547e-05 0.000504287 0)
(-4.2727e-05 0.000504503 0)
(2.7259e-05 0.000527929 0)
(3.77181e-06 0.000527781 0)
(-1.97021e-05 0.000527805 0)
(-4.31984e-05 0.000527999 0)
(2.74427e-05 0.00055166 0)
(3.74778e-06 0.000551518 0)
(-1.99343e-05 0.000551534 0)
(-4.36374e-05 0.000551707 0)
(2.76084e-05 0.000575586 0)
(3.72217e-06 0.000575448 0)
(-2.01517e-05 0.000575456 0)
(-4.40451e-05 0.000575609 0)
(2.77575e-05 0.00059969 0)
(3.69535e-06 0.000599557 0)
(-2.03549e-05 0.000599557 0)
(-4.44232e-05 0.00059969 0)
(2.78913e-05 0.000623958 0)
(3.66768e-06 0.000623828 0)
(-2.05444e-05 0.000623821 0)
(-4.47731e-05 0.000623936 0)
(2.80109e-05 0.000648374 0)
(3.63947e-06 0.000648248 0)
(-2.07208e-05 0.000648233 0)
(-4.50961e-05 0.000648331 0)
(2.81175e-05 0.000672927 0)
(3.61101e-06 0.000672803 0)
(-2.08846e-05 0.000672782 0)
(-4.53938e-05 0.000672863 0)
(2.82123e-05 0.000697604 0)
(3.58256e-06 0.000697482 0)
(-2.10365e-05 0.000697454 0)
(-4.56677e-05 0.00069752 0)
(2.82961e-05 0.000722393 0)
(3.55432e-06 0.000722273 0)
(-2.11771e-05 0.000722239 0)
(-4.59192e-05 0.00072229 0)
(2.83702e-05 0.000747284 0)
(3.52647e-06 0.000747166 0)
(-2.1307e-05 0.000747126 0)
(-4.61497e-05 0.000747163 0)
(2.84352e-05 0.000772267 0)
(3.49914e-06 0.000772151 0)
(-2.14268e-05 0.000772105 0)
(-4.63606e-05 0.000772129 0)
(2.84922e-05 0.000797334 0)
(3.47244e-06 0.000797219 0)
(-2.15372e-05 0.000797167 0)
(-4.65533e-05 0.000797179 0)
(2.85417e-05 0.000822475 0)
(3.44642e-06 0.000822361 0)
(-2.16388e-05 0.000822305 0)
(-4.67291e-05 0.000822305 0)
(2.85846e-05 0.000847684 0)
(3.4211e-06 0.000847571 0)
(-2.17323e-05 0.00084751 0)
(-4.68893e-05 0.0008475 0)
(2.86213e-05 0.000872954 0)
(3.39649e-06 0.000872841 0)
(-2.18181e-05 0.000872776 0)
(-4.70352e-05 0.000872756 0)
(2.86525e-05 0.000898277 0)
(3.37251e-06 0.000898166 0)
(-2.18971e-05 0.000898096 0)
(-4.71679e-05 0.000898068 0)
(2.86785e-05 0.000923649 0)
(3.34911e-06 0.000923539 0)
(-2.19698e-05 0.000923466 0)
(-4.72886e-05 0.000923429 0)
(2.86998e-05 0.000949065 0)
(3.32616e-06 0.000948955 0)
(-2.20367e-05 0.000948879 0)
(-4.73983e-05 0.000948835 0)
(2.87167e-05 0.000974519 0)
(3.30352e-06 0.000974409 0)
(-2.20985e-05 0.00097433 0)
(-4.74982e-05 0.00097428 0)
(2.87293e-05 0.00100001 0)
(3.28103e-06 0.000999898 0)
(-2.21558e-05 0.000999817 0)
(-4.75892e-05 0.00099976 0)
(2.87379e-05 0.00102552 0)
(3.25848e-06 0.00102542 0)
(-2.22091e-05 0.00102533 0)
(-4.76721e-05 0.00102527 0)
(2.87425e-05 0.00105107 0)
(3.23567e-06 0.00105096 0)
(-2.22589e-05 0.00105088 0)
(-4.7748e-05 0.00105081 0)
(2.87433e-05 0.00107664 0)
(3.21236e-06 0.00107653 0)
(-2.23059e-05 0.00107645 0)
(-4.78176e-05 0.00107638 0)
(2.87402e-05 0.00110222 0)
(3.18828e-06 0.00110212 0)
(-2.23504e-05 0.00110203 0)
(-4.78817e-05 0.00110196 0)
(2.87332e-05 0.00112783 0)
(3.16318e-06 0.00112773 0)
(-2.23931e-05 0.00112764 0)
(-4.7941e-05 0.00112756 0)
(2.87223e-05 0.00115345 0)
(3.13677e-06 0.00115335 0)
(-2.24343e-05 0.00115326 0)
(-4.79962e-05 0.00115318 0)
(2.87072e-05 0.00117908 0)
(3.10876e-06 0.00117898 0)
(-2.24747e-05 0.0011789 0)
(-4.80481e-05 0.00117882 0)
(2.8688e-05 0.00120472 0)
(3.07883e-06 0.00120463 0)
(-2.25147e-05 0.00120454 0)
(-4.80971e-05 0.00120446 0)
(2.86645e-05 0.00123037 0)
(3.04667e-06 0.00123028 0)
(-2.25548e-05 0.00123019 0)
(-4.81441e-05 0.00123011 0)
(2.86366e-05 0.00125603 0)
(3.01183e-06 0.00125594 0)
(-2.25956e-05 0.00125585 0)
(-4.81896e-05 0.00125577 0)
(2.86046e-05 0.00128169 0)
(2.97391e-06 0.0012816 0)
(-2.26379e-05 0.00128152 0)
(-4.82342e-05 0.00128144 0)
(2.85682e-05 0.00130734 0)
(2.93185e-06 0.00130726 0)
(-2.26829e-05 0.00130718 0)
(-4.82788e-05 0.0013071 0)
(2.85286e-05 0.001333 0)
(2.88529e-06 0.00133292 0)
(-2.27312e-05 0.00133285 0)
(-4.8323e-05 0.00133277 0)
(2.8485e-05 0.00135866 0)
(2.83128e-06 0.00135858 0)
(-2.27862e-05 0.00135851 0)
(-4.83687e-05 0.00135844 0)
(2.84445e-05 0.00138434 0)
(2.7784e-06 0.00138425 0)
(-2.28394e-05 0.00138417 0)
(-4.84093e-05 0.00138408 0)
)
;

boundaryField
{
    plateFix
    {
        type            fixedDisplacement;
        value           uniform (0 0 0);
    }
    plate
    {
        type            solidTraction;
        nonLinear       updatedLagrangian;
        traction        uniform (0 0 0);
        pressure        uniform 0;
        value           nonuniform List<vector> 
168
(
(6.02254e-07 4.9631e-07 -1.00033e-25)
(-1.22143e-06 8.47471e-07 -1.25558e-25)
(8.20813e-07 6.94638e-07 1.57937e-25)
(-1.37482e-06 1.25718e-06 -1.22836e-26)
(1.15475e-06 9.02837e-07 4.86631e-26)
(-1.6846e-06 1.62777e-06 1.02998e-25)
(1.57241e-06 1.13699e-06 -3.72239e-26)
(-2.1245e-06 1.97445e-06 2.78939e-26)
(2.05977e-06 1.43586e-06 -6.7029e-26)
(-2.6769e-06 2.35208e-06 -6.22126e-26)
(2.60131e-06 1.82531e-06 6.23307e-26)
(-3.31674e-06 2.79391e-06 9.06104e-27)
(3.18934e-06 2.33319e-06 -1.18666e-25)
(-4.03105e-06 3.33556e-06 2.74832e-26)
(3.81902e-06 2.98583e-06 5.66171e-26)
(-4.81071e-06 4.00836e-06 -5.60587e-26)
(4.48875e-06 3.81142e-06 -8.69445e-26)
(-5.65165e-06 4.84455e-06 7.98165e-26)
(5.19848e-06 4.84058e-06 9.28482e-26)
(-6.55225e-06 5.87761e-06 -7.52617e-26)
(5.94928e-06 6.10775e-06 -5.27812e-26)
(-7.51274e-06 7.14413e-06 1.33292e-26)
(6.74272e-06 7.65208e-06 7.70099e-26)
(-8.53432e-06 8.68475e-06 1.52428e-26)
(7.58058e-06 9.51835e-06 -5.61588e-26)
(-9.6188e-06 1.05453e-05 2.15458e-26)
(8.46461e-06 1.17578e-05 -1.48985e-27)
(-1.07682e-05 1.27775e-05 -3.84078e-26)
(9.39642e-06 1.4429e-05 1.12427e-26)
(-1.19848e-05 1.54404e-05 8.42047e-27)
(1.03774e-05 1.75987e-05 -3.51547e-28)
(-1.32706e-05 1.86007e-05 -2.00806e-26)
(1.14086e-05 2.13428e-05 3.80032e-26)
(-1.46277e-05 2.23344e-05 2.66795e-26)
(1.24909e-05 2.57476e-05 -1.17158e-26)
(-1.60579e-05 2.67274e-05 -6.68156e-26)
(1.36246e-05 3.09102e-05 -1.6588e-26)
(-1.75627e-05 3.1877e-05 6.09073e-26)
(1.48096e-05 3.69407e-05 9.46911e-27)
(-1.91431e-05 3.78926e-05 3.7178e-27)
(1.60453e-05 4.39625e-05 -6.17445e-27)
(-2.07997e-05 4.48977e-05 1.78603e-28)
(1.73304e-05 5.21142e-05 1.43977e-26)
(-2.25325e-05 5.30305e-05 1.39152e-26)
(1.8713e-05 6.19104e-05 -1.40483e-26)
(-2.4409e-05 6.28047e-05 -1.60144e-26)
(2.01367e-05 7.32556e-05 2.48324e-26)
(-2.63553e-05 7.4125e-05 3.79372e-26)
(2.15034e-05 8.54297e-05 -5.71043e-26)
(-2.82381e-05 8.6273e-05 -4.59669e-26)
(2.28135e-05 9.84024e-05 4.40025e-26)
(-3.00575e-05 9.92185e-05 2.28721e-26)
(2.40675e-05 0.000112144 1.8396e-26)
(-3.18135e-05 0.000112932 -7.86692e-26)
(2.5266e-05 0.000126623 -6.47976e-26)
(-3.35064e-05 0.000127382 9.2651e-26)
(2.64095e-05 0.000141812 4.83778e-26)
(-3.51364e-05 0.000142541 -1.52223e-26)
(2.74987e-05 0.00015768 -5.17811e-26)
(-3.67036e-05 0.000158378 3.14806e-26)
(2.85344e-05 0.000174197 2.13584e-27)
(-3.82086e-05 0.000174864 -1.10474e-26)
(2.95173e-05 0.000191336 -3.72548e-27)
(-3.96516e-05 0.00019197 -5.28371e-26)
(3.04484e-05 0.000209066 -4.24575e-26)
(-4.10331e-05 0.000209668 -3.01584e-26)
(3.13285e-05 0.000227361 -1.47361e-26)
(-4.23538e-05 0.00022793 -6.14909e-26)
(3.21589e-05 0.000246191 -3.28333e-26)
(-4.36142e-05 0.000246726 2.39237e-27)
(3.29405e-05 0.000265529 1.15685e-26)
(-4.48152e-05 0.000266031 9.18078e-26)
(3.36747e-05 0.000285349 1.46473e-25)
(-4.59575e-05 0.000285816 2.46599e-26)
(3.43627e-05 0.000305623 -2.93158e-27)
(-4.70421e-05 0.000306056 1.46663e-25)
(3.50059e-05 0.000326326 -6.25218e-26)
(-4.80701e-05 0.000326725 -1.9393e-25)
(3.56058e-05 0.000347433 1.29586e-25)
(-4.90426e-05 0.000347797 1.1667e-25)
(3.6164e-05 0.000368919 1.10174e-25)
(-4.99608e-05 0.000369248 -4.43839e-26)
(3.6682e-05 0.000390759 -2.21163e-25)
(-5.08262e-05 0.000391054 -9.42596e-26)
(3.71614e-05 0.000412932 5.38678e-26)
(-5.164e-05 0.000413193 -5.41049e-26)
(3.76041e-05 0.000435414 -1.3258e-25)
(-5.2404e-05 0.000435641 -5.01011e-26)
(3.80117e-05 0.000458185 -5.54555e-26)
(-5.31196e-05 0.000458378 2.0628e-25)
(3.83861e-05 0.000481224 1.33586e-25)
(-5.37886e-05 0.000481383 3.02282e-27)
(3.8729e-05 0.00050451 -3.75775e-26)
(-5.44126e-05 0.000504636 -1.32556e-25)
(3.90423e-05 0.000528026 -4.80656e-26)
(-5.49936e-05 0.000528119 -9.54554e-26)
(3.93277e-05 0.000551753 2.50704e-26)
(-5.55334e-05 0.000551815 -1.22943e-25)
(3.95871e-05 0.000575675 -9.6928e-27)
(-5.60338e-05 0.000575705 -1.0315e-25)
(3.98222e-05 0.000599775 -1.87791e-25)
(-5.64967e-05 0.000599775 2.69987e-25)
(4.00347e-05 0.000624039 -6.03568e-26)
(-5.69242e-05 0.00062401 1.04085e-26)
(4.02263e-05 0.000648453 1.12438e-25)
(-5.73181e-05 0.000648395 3.62942e-25)
(4.03986e-05 0.000673003 -8.41305e-26)
(-5.76803e-05 0.000672917 -1.92555e-25)
(4.05532e-05 0.000697677 -4.97311e-26)
(-5.80127e-05 0.000697565 8.45494e-26)
(4.06915e-05 0.000722464 1.15285e-26)
(-5.83172e-05 0.000722326 -2.31488e-25)
(4.08149e-05 0.000747353 -7.07103e-25)
(-5.85957e-05 0.000747191 5.20953e-26)
(4.09247e-05 0.000772335 1.34379e-25)
(-5.88499e-05 0.000772149 -2.40877e-25)
(4.1022e-05 0.0007974 -8.8975e-26)
(-5.90816e-05 0.000797193 4.73952e-25)
(4.11081e-05 0.00082254 1.83382e-25)
(-5.92925e-05 0.000822313 -1.16955e-25)
(4.11839e-05 0.000847748 6.84207e-27)
(-5.94841e-05 0.000847501 -1.50413e-25)
(4.12503e-05 0.000873016 2.18804e-25)
(-5.96581e-05 0.000872752 6.47468e-26)
(4.13081e-05 0.000898339 1.29946e-25)
(-5.98159e-05 0.000898059 -6.97675e-26)
(4.13581e-05 0.00092371 -3.45547e-26)
(-5.99589e-05 0.000923415 -2.96939e-25)
(4.14008e-05 0.000949124 -3.33799e-25)
(-6.00885e-05 0.000948817 5.42891e-25)
(4.14368e-05 0.000974577 2.58818e-26)
(-6.02059e-05 0.000974258 -4.98373e-26)
(4.14665e-05 0.00100006 3.84896e-25)
(-6.03124e-05 0.000999735 1.96249e-25)
(4.14903e-05 0.00102558 -4.16737e-25)
(-6.04089e-05 0.00102524 2.61564e-25)
(4.15084e-05 0.00105113 5.03738e-25)
(-6.04966e-05 0.00105078 1.13649e-25)
(4.1521e-05 0.00107669 -6.94555e-25)
(-6.05765e-05 0.00107634 1.88685e-25)
(4.15283e-05 0.00110228 -8.30198e-26)
(-6.06493e-05 0.00110193 -4.35765e-25)
(4.15304e-05 0.00112788 1.35894e-25)
(-6.07161e-05 0.00112753 -4.78852e-25)
(4.15271e-05 0.0011535 3.86985e-25)
(-6.07774e-05 0.00115315 3.31093e-25)
(4.15186e-05 0.00117913 -5.08242e-25)
(-6.08342e-05 0.00117878 -4.76929e-25)
(4.15048e-05 0.00120477 -1.45066e-25)
(-6.0887e-05 0.00120442 3.0887e-25)
(4.14856e-05 0.00123042 6.09115e-25)
(-6.09367e-05 0.00123007 6.48479e-25)
(4.14609e-05 0.00125607 -4.8987e-25)
(-6.09839e-05 0.00125573 -7.20445e-25)
(4.1431e-05 0.00128173 4.55556e-25)
(-6.10292e-05 0.0012814 3.42786e-25)
(4.1396e-05 0.00130739 3.00221e-25)
(-6.10735e-05 0.00130706 -2.77807e-25)
(4.13584e-05 0.00133304 -7.05805e-26)
(-6.11154e-05 0.00133273 -4.65925e-25)
(4.13218e-05 0.0013587 2.38253e-25)
(-6.11526e-05 0.0013584 8.29135e-25)
(4.13037e-05 0.00138438 3.6703e-25)
(2.84225e-05 0.00139721 -1.77802e-26)
(2.75364e-06 0.00139709 -1.67283e-25)
(-2.28642e-05 0.00139699 2.87303e-25)
(-4.84311e-05 0.00139687 -1.72651e-25)
(-6.11687e-05 0.00138404 -2.2551e-25)
)
;
    }
    frontAndBackPlanes
    {
        type            empty;
    }
}


// ************************************************************************* //
