/*--------------------------------*- C++ -*----------------------------------*\
| =========                 |                                                 |
| \\      /  F ield         | OpenFOAM Extend Project: Open source CFD        |
|  \\    /   O peration     | Version:  1.6-ext                               |
|   \\  /    A nd           | Web:      www.extend-project.de                 |
|    \\/     M anipulation  |                                                 |
\*---------------------------------------------------------------------------*/
FoamFile
{
    version     2.0;
    format      ascii;
    class       volScalarField::DimensionedInternalField;
    location    "0.9";
    object      V0;
}
// * * * * * * * * * * * * * * * * * * * * * * * * * * * * * * * * * * * * * //

dimensions      [0 3 0 0 0 0 0];

value           nonuniform List<scalar> 
328
(
2.53364e-07
2.53352e-07
2.53314e-07
2.53317e-07
2.71732e-07
2.71717e-07
2.71688e-07
2.71696e-07
2.9144e-07
2.91415e-07
2.91391e-07
2.91385e-07
3.12574e-07
3.12542e-07
3.12521e-07
3.12504e-07
3.3524e-07
3.35202e-07
3.35183e-07
3.35156e-07
3.59547e-07
3.59506e-07
3.59487e-07
3.59452e-07
3.85616e-07
3.85571e-07
3.85552e-07
3.85512e-07
4.13574e-07
4.13527e-07
4.13507e-07
4.13463e-07
4.4356e-07
4.4351e-07
4.43489e-07
4.4344e-07
4.75719e-07
4.75666e-07
4.75644e-07
4.75592e-07
5.1021e-07
5.10154e-07
5.1013e-07
5.10075e-07
5.47202e-07
5.47142e-07
5.47117e-07
5.47058e-07
5.86875e-07
5.86813e-07
5.86786e-07
5.86723e-07
6.29425e-07
6.29359e-07
6.29331e-07
6.29264e-07
6.7506e-07
6.7499e-07
6.7496e-07
6.7489e-07
7.24003e-07
7.2393e-07
7.23898e-07
7.23824e-07
7.76495e-07
7.76417e-07
7.76384e-07
7.76307e-07
8.32792e-07
8.32711e-07
8.32676e-07
8.32594e-07
8.93171e-07
8.93086e-07
8.93049e-07
8.92964e-07
9.57928e-07
9.57838e-07
9.578e-07
9.5771e-07
1.02738e-06
1.02729e-06
1.02725e-06
1.02715e-06
1.10187e-06
1.10177e-06
1.10173e-06
1.10163e-06
1.26882e-06
1.26871e-06
1.26867e-06
1.26856e-06
1.26882e-06
1.26871e-06
1.26867e-06
1.26856e-06
1.26881e-06
1.26871e-06
1.26867e-06
1.26857e-06
1.26881e-06
1.26871e-06
1.26867e-06
1.26857e-06
1.2688e-06
1.26871e-06
1.26867e-06
1.26858e-06
1.2688e-06
1.26871e-06
1.26867e-06
1.26858e-06
1.26879e-06
1.26871e-06
1.26867e-06
1.26859e-06
1.26879e-06
1.26871e-06
1.26867e-06
1.26859e-06
1.26879e-06
1.26871e-06
1.26867e-06
1.2686e-06
1.26878e-06
1.26871e-06
1.26867e-06
1.2686e-06
1.26878e-06
1.26871e-06
1.26868e-06
1.2686e-06
1.26877e-06
1.26871e-06
1.26868e-06
1.26861e-06
1.26877e-06
1.26871e-06
1.26868e-06
1.26861e-06
1.26877e-06
1.2687e-06
1.26868e-06
1.26862e-06
1.26876e-06
1.2687e-06
1.26868e-06
1.26862e-06
1.26876e-06
1.2687e-06
1.26868e-06
1.26863e-06
1.26875e-06
1.2687e-06
1.26868e-06
1.26863e-06
1.26875e-06
1.2687e-06
1.26868e-06
1.26863e-06
1.26875e-06
1.2687e-06
1.26868e-06
1.26864e-06
1.26874e-06
1.2687e-06
1.26868e-06
1.26864e-06
1.26874e-06
1.2687e-06
1.26868e-06
1.26865e-06
1.26874e-06
1.2687e-06
1.26869e-06
1.26865e-06
1.26873e-06
1.2687e-06
1.26869e-06
1.26865e-06
1.26873e-06
1.2687e-06
1.26869e-06
1.26866e-06
1.26873e-06
1.2687e-06
1.26869e-06
1.26866e-06
1.26873e-06
1.2687e-06
1.26869e-06
1.26866e-06
1.26872e-06
1.2687e-06
1.26869e-06
1.26866e-06
1.26872e-06
1.2687e-06
1.26869e-06
1.26867e-06
1.26872e-06
1.2687e-06
1.26869e-06
1.26867e-06
1.26872e-06
1.2687e-06
1.26869e-06
1.26867e-06
1.26872e-06
1.2687e-06
1.26869e-06
1.26867e-06
1.26871e-06
1.2687e-06
1.26869e-06
1.26868e-06
1.26871e-06
1.2687e-06
1.26869e-06
1.26868e-06
1.26871e-06
1.2687e-06
1.26869e-06
1.26868e-06
1.26871e-06
1.2687e-06
1.26869e-06
1.26868e-06
1.26871e-06
1.2687e-06
1.26869e-06
1.26868e-06
1.26871e-06
1.2687e-06
1.26869e-06
1.26868e-06
1.26871e-06
1.2687e-06
1.26869e-06
1.26868e-06
1.2687e-06
1.2687e-06
1.26869e-06
1.26869e-06
1.2687e-06
1.2687e-06
1.26869e-06
1.26869e-06
1.2687e-06
1.2687e-06
1.26869e-06
1.26869e-06
1.2687e-06
1.2687e-06
1.26869e-06
1.26869e-06
1.2687e-06
1.2687e-06
1.26869e-06
1.26869e-06
1.2687e-06
1.2687e-06
1.26869e-06
1.26869e-06
1.2687e-06
1.2687e-06
1.26869e-06
1.26869e-06
1.2687e-06
1.2687e-06
1.26869e-06
1.26869e-06
1.2687e-06
1.2687e-06
1.26869e-06
1.26869e-06
1.2687e-06
1.2687e-06
1.26869e-06
1.26869e-06
1.2687e-06
1.2687e-06
1.26869e-06
1.26869e-06
1.2687e-06
1.2687e-06
1.26869e-06
1.26869e-06
1.2687e-06
1.2687e-06
1.26869e-06
1.26869e-06
1.2687e-06
1.2687e-06
1.26869e-06
1.26869e-06
1.2687e-06
1.2687e-06
1.26869e-06
1.26869e-06
1.2687e-06
1.2687e-06
1.26869e-06
1.26869e-06
1.2687e-06
1.26869e-06
1.26869e-06
1.26869e-06
1.2687e-06
1.26869e-06
1.26869e-06
1.26869e-06
1.2687e-06
1.26869e-06
1.26869e-06
1.26869e-06
1.2687e-06
1.26869e-06
1.26869e-06
1.2687e-06
1.2687e-06
1.26869e-06
1.26869e-06
1.2687e-06
1.26869e-06
1.26869e-06
1.26869e-06
1.26869e-06
)
;


// ************************************************************************* //
