/*--------------------------------*- C++ -*----------------------------------*\
| =========                 |                                                 |
| \\      /  F ield         | OpenFOAM Extend Project: Open source CFD        |
|  \\    /   O peration     | Version:  1.6-ext                               |
|   \\  /    A nd           | Web:      www.extend-project.de                 |
|    \\/     M anipulation  |                                                 |
\*---------------------------------------------------------------------------*/
FoamFile
{
    version     2.0;
    format      ascii;
    class       volVectorField;
    location    "0.9";
    object      Vs;
}
// * * * * * * * * * * * * * * * * * * * * * * * * * * * * * * * * * * * * * //

dimensions      [0 1 -1 0 0 0 0];

internalField   nonuniform List<vector> 
328
(
(1.66281e-07 -6.22102e-06 0)
(1.27705e-06 -1.32425e-06 0)
(1.32517e-06 1.18876e-06 0)
(4.32948e-07 5.73821e-06 0)
(5.96665e-07 -1.59848e-05 0)
(3.43785e-06 -3.93681e-06 0)
(3.60609e-06 3.36582e-06 0)
(1.40477e-06 1.46202e-05 0)
(5.11749e-07 -2.33152e-05 0)
(4.49325e-06 -6.49694e-06 0)
(4.83176e-06 5.29979e-06 0)
(1.92016e-06 2.10673e-05 0)
(3.04387e-07 -2.8639e-05 0)
(5.01174e-06 -8.83019e-06 0)
(5.5412e-06 6.81207e-06 0)
(2.33991e-06 2.54496e-05 0)
(-8.58217e-08 -3.24917e-05 0)
(4.93552e-06 -1.08786e-05 0)
(5.67486e-06 7.83907e-06 0)
(2.59987e-06 2.82496e-05 0)
(-5.72187e-07 -3.52862e-05 0)
(4.48071e-06 -1.26343e-05 0)
(5.43789e-06 8.35948e-06 0)
(2.77338e-06 2.98359e-05 0)
(-1.15602e-06 -3.73604e-05 0)
(3.71635e-06 -1.41435e-05 0)
(4.89507e-06 8.40343e-06 0)
(2.85048e-06 3.05086e-05 0)
(-1.81964e-06 -3.89675e-05 0)
(2.755e-06 -1.54743e-05 0)
(4.15327e-06 8.0192e-06 0)
(2.83823e-06 3.04883e-05 0)
(-2.56141e-06 -4.03045e-05 0)
(1.66393e-06 -1.67072e-05 0)
(3.27556e-06 7.26677e-06 0)
(2.72746e-06 2.99432e-05 0)
(-3.37484e-06 -4.15184e-05 0)
(5.05551e-07 -1.79202e-05 0)
(2.31967e-06 6.20344e-06 0)
(2.51225e-06 2.89957e-05 0)
(-4.25318e-06 -4.27193e-05 0)
(-6.79877e-07 -1.91824e-05 0)
(1.32105e-06 4.87952e-06 0)
(2.18515e-06 2.77348e-05 0)
(-5.18545e-06 -4.39856e-05 0)
(-1.86399e-06 -2.05482e-05 0)
(3.02576e-07 3.3347e-06 0)
(1.74068e-06 2.6223e-05 0)
(-6.15758e-06 -4.53692e-05 0)
(-3.03147e-06 -2.20559e-05 0)
(-7.26697e-07 1.5988e-06 0)
(1.17386e-06 2.45037e-05 0)
(-7.15238e-06 -4.68995e-05 0)
(-4.17538e-06 -2.37269e-05 0)
(-1.76699e-06 -3.05902e-07 0)
(4.79981e-07 2.26067e-05 0)
(-8.15046e-06 -4.85859e-05 0)
(-5.29481e-06 -2.55658e-05 0)
(-2.82558e-06 -2.3605e-06 0)
(-3.46574e-07 2.05554e-05 0)
(-9.13086e-06 -5.04197e-05 0)
(-6.39177e-06 -2.75614e-05 0)
(-3.91372e-06 -4.54453e-06 0)
(-1.31306e-06 1.83723e-05 0)
(-1.00717e-05 -5.23746e-05 0)
(-7.46901e-06 -2.9686e-05 0)
(-5.04452e-06 -6.83053e-06 0)
(-2.42899e-06 1.60855e-05 0)
(-1.09505e-05 -5.44064e-05 0)
(-8.52845e-06 -3.18944e-05 0)
(-6.23125e-06 -9.17849e-06 0)
(-3.70645e-06 1.37349e-05 0)
(-1.17447e-05 -5.64507e-05 0)
(-9.5703e-06 -3.41215e-05 0)
(-7.48639e-06 -1.15303e-05 0)
(-5.15998e-06 1.13777e-05 0)
(-1.24316e-05 -5.84198e-05 0)
(-1.05928e-05 -3.62789e-05 0)
(-8.82115e-06 -1.38039e-05 0)
(-6.80617e-06 9.09448e-06 0)
(-1.29891e-05 -6.0198e-05 0)
(-1.15925e-05 -3.82498e-05 0)
(-1.02454e-05 -1.58879e-05 0)
(-8.66317e-06 6.99507e-06 0)
(-1.33963e-05 -6.16356e-05 0)
(-1.25651e-05 -3.98832e-05 0)
(-1.17677e-05 -1.76352e-05 0)
(-1.07491e-05 5.22435e-06 0)
(-1.36425e-05 -6.25773e-05 0)
(-1.35412e-05 -4.10296e-05 0)
(-1.34573e-05 -1.89035e-05 0)
(-1.31714e-05 3.92071e-06 0)
(-1.36836e-05 -6.26559e-05 0)
(-1.44698e-05 -4.13119e-05 0)
(-1.52574e-05 -1.93134e-05 0)
(-1.58646e-05 3.4605e-06 0)
(-1.35351e-05 -6.17029e-05 0)
(-1.52976e-05 -4.05457e-05 0)
(-1.70452e-05 -1.86723e-05 0)
(-1.86349e-05 4.03837e-06 0)
(-1.32308e-05 -5.96354e-05 0)
(-1.60394e-05 -3.86478e-05 0)
(-1.88164e-05 -1.68971e-05 0)
(-2.14585e-05 5.73737e-06 0)
(-1.28049e-05 -5.63917e-05 0)
(-1.67095e-05 -3.55567e-05 0)
(-2.0566e-05 -1.39265e-05 0)
(-2.43105e-05 8.61879e-06 0)
(-1.2291e-05 -5.19325e-05 0)
(-1.7322e-05 -3.12332e-05 0)
(-2.22885e-05 -9.72133e-06 0)
(-2.71654e-05 1.27218e-05 0)
(-1.17216e-05 -4.62403e-05 0)
(-1.78898e-05 -2.56603e-05 0)
(-2.3978e-05 -4.26492e-06 0)
(-2.99979e-05 1.80635e-05 0)
(-1.11276e-05 -3.9319e-05 0)
(-1.84255e-05 -1.88427e-05 0)
(-2.56287e-05 2.43805e-06 0)
(-3.27835e-05 2.464e-05 0)
(-1.05377e-05 -3.11922e-05 0)
(-1.89403e-05 -1.08053e-05 0)
(-2.72348e-05 1.03626e-05 0)
(-3.54991e-05 3.24272e-05 0)
(-9.97771e-06 -2.19023e-05 0)
(-1.94442e-05 -1.59173e-06 0)
(-2.87911e-05 1.9465e-05 0)
(-3.81238e-05 4.13828e-05 0)
(-9.47023e-06 -1.15076e-05 0)
(-1.99461e-05 8.73801e-06 0)
(-3.02926e-05 2.96853e-05 0)
(-4.06388e-05 5.14482e-05 0)
(-9.03429e-06 -8.05803e-08 0)
(-2.04533e-05 2.01098e-05 0)
(-3.17355e-05 4.09493e-05 0)
(-4.30285e-05 6.25509e-05 0)
(-8.68507e-06 1.22951e-05 0)
(-2.09717e-05 3.24379e-05 0)
(-3.31162e-05 5.31712e-05 0)
(-4.52802e-05 7.46071e-05 0)
(-8.43375e-06 2.5527e-05 0)
(-2.15057e-05 4.56282e-05 0)
(-3.44326e-05 6.62568e-05 0)
(-4.73849e-05 8.75242e-05 0)
(-8.28736e-06 3.95171e-05 0)
(-2.2058e-05 5.95804e-05 0)
(-3.56832e-05 8.01058e-05 0)
(-4.93369e-05 0.000101204 0)
(-8.24886e-06 5.41644e-05 0)
(-2.263e-05 7.41916e-05 0)
(-3.68677e-05 9.46152e-05 0)
(-5.11343e-05 0.000115545 0)
(-8.31713e-06 6.9368e-05 0)
(-2.32215e-05 8.93588e-05 0)
(-3.79865e-05 0.000109682 0)
(-5.27785e-05 0.000130447 0)
(-8.48722e-06 8.50296e-05 0)
(-2.38308e-05 0.000104982 0)
(-3.90415e-05 0.000125206 0)
(-5.42746e-05 0.00014581 0)
(-8.7505e-06 0.000101056 0)
(-2.44549e-05 0.000120966 0)
(-4.00349e-05 0.000141092 0)
(-5.56306e-05 0.000161541 0)
(-9.09502e-06 0.000117364 0)
(-2.50898e-05 0.000137226 0)
(-4.09703e-05 0.000157254 0)
(-5.68578e-05 0.000177557 0)
(-9.50585e-06 0.000133877 0)
(-2.573e-05 0.000153684 0)
(-4.18515e-05 0.000173616 0)
(-5.79697e-05 0.00019378 0)
(-9.96549e-06 0.000150532 0)
(-2.63693e-05 0.000170276 0)
(-4.26834e-05 0.000190113 0)
(-5.89823e-05 0.000210148 0)
(-1.04544e-05 0.000167282 0)
(-2.70007e-05 0.000186953 0)
(-4.34708e-05 0.000206695 0)
(-5.99131e-05 0.000226611 0)
(-1.09513e-05 0.000184091 0)
(-2.76163e-05 0.00020368 0)
(-4.42193e-05 0.000223326 0)
(-6.07809e-05 0.000243134 0)
(-1.14339e-05 0.000200941 0)
(-2.82079e-05 0.000220436 0)
(-4.49341e-05 0.000239987 0)
(-6.16051e-05 0.000259698 0)
(-1.18796e-05 0.000217829 0)
(-2.8767e-05 0.00023722 0)
(-4.56205e-05 0.000256675 0)
(-6.24052e-05 0.000276299 0)
(-1.22654e-05 0.000234769 0)
(-2.92848e-05 0.000254044 0)
(-4.62836e-05 0.000273404 0)
(-6.32001e-05 0.00029295 0)
(-1.25691e-05 0.00025179 0)
(-2.97525e-05 0.000270939 0)
(-4.69277e-05 0.000290202 0)
(-6.40077e-05 0.00030968 0)
(-1.27693e-05 0.000268937 0)
(-3.01616e-05 0.00028795 0)
(-4.75563e-05 0.000307114 0)
(-6.48443e-05 0.000326531 0)
(-1.28465e-05 0.000286268 0)
(-3.05037e-05 0.000305135 0)
(-4.81724e-05 0.000324199 0)
(-6.5724e-05 0.000343562 0)
(-1.27825e-05 0.000303853 0)
(-3.07706e-05 0.000322565 0)
(-4.87772e-05 0.000341527 0)
(-6.66579e-05 0.000360841 0)
(-1.25619e-05 0.000321772 0)
(-3.09549e-05 0.000340322 0)
(-4.93711e-05 0.00035918 0)
(-6.76543e-05 0.000378446 0)
(-1.21713e-05 0.000340114 0)
(-3.10494e-05 0.000358495 0)
(-4.99527e-05 0.000377247 0)
(-6.87176e-05 0.000396467 0)
(-1.16005e-05 0.000358974 0)
(-3.10475e-05 0.00037718 0)
(-5.0519e-05 0.000395822 0)
(-6.98487e-05 0.000414994 0)
(-1.08417e-05 0.000378449 0)
(-3.09429e-05 0.000396477 0)
(-5.10651e-05 0.000415004 0)
(-7.1044e-05 0.000434125 0)
(-9.89016e-06 0.000398636 0)
(-3.07299e-05 0.000416483 0)
(-5.15843e-05 0.000434892 0)
(-7.22956e-05 0.000453956 0)
(-8.74369e-06 0.000419631 0)
(-3.04031e-05 0.000437296 0)
(-5.20676e-05 0.000455582 0)
(-7.35913e-05 0.00047458 0)
(-7.40272e-06 0.000441525 0)
(-2.9957e-05 0.000459008 0)
(-5.25043e-05 0.000477165 0)
(-7.49142e-05 0.000496086 0)
(-5.86987e-06 0.000464401 0)
(-2.93866e-05 0.000481701 0)
(-5.28811e-05 0.000499723 0)
(-7.6243e-05 0.000518555 0)
(-4.14956e-06 0.000488332 0)
(-2.86861e-05 0.000505451 0)
(-5.31827e-05 0.000523331 0)
(-7.75522e-05 0.000542057 0)
(-2.24746e-06 0.000513377 0)
(-2.78495e-05 0.000530317 0)
(-5.33914e-05 0.000548047 0)
(-7.88122e-05 0.000566651 0)
(-1.698e-07 0.000539584 0)
(-2.68698e-05 0.000556346 0)
(-5.34874e-05 0.000573918 0)
(-7.99895e-05 0.000592379 0)
(2.07732e-06 0.000566983 0)
(-2.57389e-05 0.000583568 0)
(-5.34482e-05 0.000600971 0)
(-8.10474e-05 0.000619269 0)
(4.48881e-06 0.000595587 0)
(-2.44468e-05 0.000611995 0)
(-5.32495e-05 0.000629218 0)
(-8.1946e-05 0.00064733 0)
(7.0615e-06 0.000625392 0)
(-2.29816e-05 0.000641622 0)
(-5.28642e-05 0.000658653 0)
(-8.26427e-05 0.000676554 0)
(9.79508e-06 0.000656379 0)
(-2.13286e-05 0.000672427 0)
(-5.2263e-05 0.000689251 0)
(-8.30929e-05 0.000706917 0)
(1.26931e-05 0.000688508 0)
(-1.947e-05 0.000704369 0)
(-5.14139e-05 0.000720971 0)
(-8.32498e-05 0.000738373 0)
(1.57637e-05 0.000721727 0)
(-1.73843e-05 0.000737393 0)
(-5.02824e-05 0.000753753 0)
(-8.30651e-05 0.000770864 0)
(1.90211e-05 0.000755969 0)
(-1.50457e-05 0.000771425 0)
(-4.88308e-05 0.000787524 0)
(-8.24888e-05 0.000804315 0)
(2.24861e-05 0.000791152 0)
(-1.24232e-05 0.000806384 0)
(-4.70182e-05 0.000822198 0)
(-8.14693e-05 0.000838637 0)
(2.61871e-05 0.000827188 0)
(-9.48055e-06 0.000842172 0)
(-4.48002e-05 0.000857675 0)
(-7.99535e-05 0.000873731 0)
(3.01615e-05 0.000863977 0)
(-6.1747e-06 0.000878688 0)
(-4.21283e-05 0.000893848 0)
(-7.78864e-05 0.000909487 0)
(3.44563e-05 0.000901418 0)
(-2.45558e-06 0.000915821 0)
(-3.89489e-05 0.000930604 0)
(-7.52113e-05 0.000945789 0)
(3.91296e-05 0.000939404 0)
(1.73566e-06 0.000953459 0)
(-3.5203e-05 0.000967825 0)
(-7.18683e-05 0.000982517 0)
(4.42504e-05 0.000977834 0)
(6.46655e-06 0.000991492 0)
(-3.08255e-05 0.00100539 0)
(-6.77958e-05 0.00101955 0)
(4.99028e-05 0.00101661 0)
(1.18191e-05 0.00102981 0)
(-2.57397e-05 0.00104319 0)
(-6.29262e-05 0.00105677 0)
(5.61769e-05 0.00105564 0)
(1.78819e-05 0.00106832 0)
(-1.98654e-05 0.00108111 0)
(-5.7195e-05 0.00109405 0)
(6.31951e-05 0.00109485 0)
(2.47817e-05 0.00110693 0)
(-1.30868e-05 0.00111905 0)
(-5.05147e-05 0.0011313 0)
(7.10349e-05 0.00113414 0)
(3.26009e-05 0.00114555 0)
(-5.33537e-06 0.00115695 0)
(-4.28523e-05 0.00116846 0)
(7.99313e-05 0.00117321 0)
(4.15497e-05 0.00118403 0)
(3.58589e-06 0.00119482 0)
(-3.40204e-05 0.00120572 0)
)
;

boundaryField
{
    plateFix
    {
        type            calculated;
        value           uniform (0 0 0);
    }
    plate
    {
        type            calculated;
        value           nonuniform List<vector> 
168
(
(-2.71611e-05 -1.67479e-05 -4.17205e-23)
(-2.46163e-05 1.53914e-05 -1.20532e-24)
(-1.94289e-05 -2.68519e-05 5.06709e-23)
(-1.65572e-05 2.46081e-05 4.00264e-23)
(-1.3325e-05 -3.46708e-05 2.54143e-23)
(-9.93016e-06 3.15408e-05 -1.02779e-22)
(-9.05937e-06 -4.01814e-05 -5.83807e-23)
(-5.00215e-06 3.61362e-05 -4.79314e-23)
(-6.41731e-06 -4.41798e-05 1.61056e-24)
(-1.59644e-06 3.91191e-05 9.74431e-23)
(-4.90175e-06 -4.70447e-05 3.26587e-23)
(7.40275e-07 4.08251e-05 -1.56321e-23)
(-4.21322e-06 -4.91669e-05 -5.90275e-23)
(2.27753e-06 4.16027e-05 4.94886e-23)
(-4.1027e-06 -5.08007e-05 8.18401e-23)
(3.23825e-06 4.16725e-05 -5.61949e-23)
(-4.40788e-06 -5.21514e-05 -2.65484e-23)
(3.76291e-06 4.12105e-05 1.31439e-23)
(-5.00547e-06 -5.33657e-05 -2.39162e-23)
(3.95372e-06 4.03379e-05 -1.04246e-23)
(-5.80632e-06 -5.45536e-05 2.32662e-23)
(3.87823e-06 3.91437e-05 -2.0429e-23)
(-6.74016e-06 -5.57924e-05 -1.04643e-23)
(3.58309e-06 3.76895e-05 -6.14795e-25)
(-7.751e-06 -5.71344e-05 -1.09146e-24)
(3.09775e-06 3.60186e-05 1.68259e-23)
(-8.7921e-06 -5.86094e-05 3.19708e-24)
(2.43884e-06 3.41614e-05 2.70166e-24)
(-9.82364e-06 -6.02282e-05 1.23282e-23)
(1.61207e-06 3.21423e-05 -7.79453e-24)
(-1.08106e-05 -6.19835e-05 -1.66857e-23)
(6.14193e-07 2.99851e-05 1.22927e-23)
(-1.1721e-05 -6.38508e-05 1.25558e-23)
(-5.6554e-07 2.77192e-05 2.62104e-24)
(-1.25249e-05 -6.57875e-05 7.71396e-26)
(-1.94381e-06 2.53851e-05 1.96739e-24)
(-1.31933e-05 -6.77308e-05 -1.44379e-23)
(-3.54181e-06 2.30407e-05 1.09631e-23)
(-1.36975e-05 -6.95944e-05 1.18626e-23)
(-5.38379e-06 2.07666e-05 -1.1969e-23)
(-1.4009e-05 -7.1264e-05 -1.71466e-23)
(-7.49582e-06 1.86723e-05 -1.52352e-23)
(-1.41008e-05 -7.25912e-05 7.56237e-24)
(-9.90374e-06 1.69019e-05 2.28472e-23)
(-1.39396e-05 -7.34185e-05 6.13596e-24)
(-1.27388e-05 1.55918e-05 -7.87096e-24)
(-1.34926e-05 -7.33838e-05 -9.29101e-25)
(-1.59262e-05 1.51161e-05 2.7382e-23)
(-1.28098e-05 -7.23279e-05 -2.21791e-24)
(-1.92369e-05 1.567e-05 -4.48194e-23)
(-1.1935e-05 -7.01681e-05 -5.42526e-24)
(-2.26368e-05 1.73364e-05 1.44195e-23)
(-1.09134e-05 -6.6843e-05 5.17419e-24)
(-2.609e-05 2.01764e-05 -1.69672e-23)
(-9.78937e-06 -6.23129e-05 -2.40468e-23)
(-2.956e-05 2.42294e-05 5.97227e-24)
(-8.6064e-06 -5.65603e-05 -1.08792e-23)
(-3.30107e-05 2.95127e-05 4.39809e-24)
(-7.40564e-06 -4.95882e-05 -6.80287e-24)
(-3.64075e-05 3.60229e-05 -4.8038e-26)
(-6.22531e-06 -4.14198e-05 -1.74297e-23)
(-3.97177e-05 4.37365e-05 5.97092e-24)
(-5.09988e-06 -3.20963e-05 -9.14098e-25)
(-4.29114e-05 5.26122e-05 -2.18905e-23)
(-4.0595e-06 -2.16753e-05 -2.38333e-24)
(-4.59628e-05 6.25923e-05 1.16997e-23)
(-3.12953e-06 -1.02279e-05 2.85234e-24)
(-4.88496e-05 7.36054e-05 7.61899e-24)
(-2.33013e-06 2.16331e-06 -2.28256e-24)
(-5.15543e-05 8.55688e-05 -2.05978e-23)
(-1.67607e-06 1.54073e-05 4.66659e-24)
(-5.40643e-05 9.83912e-05 3.73305e-24)
(-1.17656e-06 2.94072e-05 2.43601e-24)
(-5.63718e-05 0.000111976 -2.64245e-24)
(-8.35264e-07 4.40633e-05 -2.21416e-24)
(-5.84741e-05 0.000126222 4.80734e-25)
(-6.50419e-07 5.9276e-05 -1.02206e-23)
(-6.03733e-05 0.00014103 9.47817e-24)
(-6.15015e-07 7.49483e-05 1.6737e-24)
(-6.20766e-05 0.000156303 -1.20795e-23)
(-7.17135e-07 9.09885e-05 1.2004e-24)
(-6.35953e-05 0.000171949 6.86416e-25)
(-9.40355e-07 0.000107313 -1.26501e-23)
(-6.49452e-05 0.000187882 9.49556e-24)
(-1.26425e-06 0.000123848 4.59315e-24)
(-6.61453e-05 0.00020403 1.58791e-23)
(-1.66494e-06 0.000140531 -1.8122e-24)
(-6.72179e-05 0.000220328 -2.88959e-24)
(-2.11576e-06 0.000157314 -5.84187e-25)
(-6.81877e-05 0.000236728 1.27282e-23)
(-2.58793e-06 0.000174163 -1.22977e-24)
(-6.9081e-05 0.000253194 -8.12756e-24)
(-3.05123e-06 0.000191059 -2.66949e-24)
(-6.99251e-05 0.000269709 3.7128e-24)
(-3.47481e-06 0.000208001 5.74267e-24)
(-7.07476e-05 0.000286267 1.09024e-23)
(-3.82792e-06 0.000225003 -9.22301e-25)
(-7.15754e-05 0.000302882 -1.27377e-24)
(-4.0806e-06 0.000242092 -1.11597e-23)
(-7.2434e-05 0.000319581 1.55035e-23)
(-4.20444e-06 0.000259313 1.11667e-23)
(-7.33467e-05 0.000336408 4.91952e-24)
(-4.17319e-06 0.000276725 -7.8565e-24)
(-7.4334e-05 0.000353417 1.10765e-23)
(-3.96337e-06 0.000294396 -6.61388e-24)
(-7.54127e-05 0.000370678 8.85566e-24)
(-3.55472e-06 0.000312405 -1.25861e-23)
(-7.65955e-05 0.000388269 5.30986e-24)
(-2.93066e-06 0.000330842 1.48318e-23)
(-7.78904e-05 0.000406275 -3.1837e-24)
(-2.0785e-06 0.0003498 -3.52449e-24)
(-7.93001e-05 0.000424787 2.35759e-24)
(-9.89698e-07 0.000369373 -1.69586e-23)
(-8.0822e-05 0.000443902 -3.66082e-24)
(3.40152e-07 0.000389661 9.79788e-24)
(-8.24476e-05 0.000463712 7.61028e-24)
(1.91137e-06 0.000410757 -1.49359e-23)
(-8.41629e-05 0.000484311 -8.70489e-24)
(3.72042e-06 0.000432752 2.99226e-24)
(-8.59475e-05 0.000505786 2.24157e-23)
(5.76026e-06 0.000455727 4.99887e-25)
(-8.77759e-05 0.000528216 3.5182e-24)
(8.02089e-06 0.000479755 -1.50095e-23)
(-8.96166e-05 0.00055167 3.89504e-24)
(1.049e-05 0.000504896 2.58175e-23)
(-9.14332e-05 0.000576206 -1.01631e-23)
(1.31539e-05 0.000531196 3.54611e-24)
(-9.31846e-05 0.000601864 -5.77621e-24)
(1.59984e-05 0.000558685 -6.84993e-24)
(-9.48257e-05 0.000628672 -2.00318e-23)
(1.90097e-05 0.000587379 2.01248e-23)
(-9.63078e-05 0.000656638 1.42318e-23)
(2.21763e-05 0.000617273 -2.31306e-25)
(-9.75795e-05 0.000685753 2.0137e-23)
(2.54892e-05 0.000648347 8.70013e-24)
(-9.85873e-05 0.000715991 -4.65063e-24)
(2.89439e-05 0.000680567 -1.86783e-23)
(-9.92761e-05 0.000747309 4.66267e-24)
(3.25412e-05 0.000713879 -4.98741e-24)
(-9.95895e-05 0.000779645 -3.78633e-26)
(3.62885e-05 0.000748218 -1.14226e-25)
(-9.94704e-05 0.000812925 7.37704e-26)
(4.02009e-05 0.000783507 -2.90814e-23)
(-9.88612e-05 0.00084706 2.74324e-23)
(4.43024e-05 0.000819658 -1.14525e-23)
(-9.77035e-05 0.000881949 -2.28162e-23)
(4.8627e-05 0.000856577 -1.18086e-23)
(-9.59384e-05 0.000917482 -1.15986e-23)
(5.32201e-05 0.000894163 4.4747e-24)
(-9.35063e-05 0.000953543 -2.49216e-23)
(5.81397e-05 0.000932315 -1.16634e-24)
(-9.03462e-05 0.000990011 1.91796e-23)
(6.34565e-05 0.000970936 -1.90004e-23)
(-8.63964e-05 0.00102676 -1.22598e-23)
(6.92586e-05 0.00100993 -2.05369e-23)
(-8.15905e-05 0.00106368 -7.4747e-24)
(7.5639e-05 0.00104922 -2.052e-23)
(-7.58703e-05 0.00110063 -4.20547e-23)
(8.27182e-05 0.00108871 2.14866e-23)
(-6.91619e-05 0.00113753 -2.9956e-23)
(9.0521e-05 0.00112834 2.28354e-23)
(-6.15044e-05 0.00117431 -8.45912e-24)
(9.92056e-05 0.00116775 1.52062e-26)
(8.47763e-05 0.00119244 -2.28699e-28)
(4.64022e-05 0.00120315 -1.51043e-24)
(8.42732e-06 0.00121375 2.84833e-24)
(-2.91957e-05 0.00122459 -3.47163e-24)
(-5.28264e-05 0.0012112 2.3581e-23)
)
;
    }
    frontAndBackPlanes
    {
        type            empty;
    }
}


// ************************************************************************* //
