/*--------------------------------*- C++ -*----------------------------------*\
| =========                 |                                                 |
| \\      /  F ield         | OpenFOAM Extend Project: Open source CFD        |
|  \\    /   O peration     | Version:  1.6-ext                               |
|   \\  /    A nd           | Web:      www.extend-project.de                 |
|    \\/     M anipulation  |                                                 |
\*---------------------------------------------------------------------------*/
FoamFile
{
    version     2.0;
    format      ascii;
    class       volScalarField;
    location    "0.1";
    object      p;
}
// * * * * * * * * * * * * * * * * * * * * * * * * * * * * * * * * * * * * * //

dimensions      [0 2 -2 0 0 0 0];

internalField   nonuniform List<scalar> 
284
(
0.355982
0.309971
0.305085
0.299066
0.294647
0.292554
0.292356
0.293938
0.297924
0.330791
0.302158
0.302785
0.299269
0.296089
0.29481
0.295185
0.297134
0.301359
0.318647
0.294762
0.297992
0.296184
0.294016
0.293342
0.294048
0.296143
0.300505
0.308644
0.286792
0.291515
0.290831
0.289338
0.288982
0.289714
0.291609
0.295842
0.2993
0.278423
0.283872
0.283763
0.282479
0.281973
0.282179
0.283083
0.286434
0.290139
0.269768
0.275385
0.275326
0.273698
0.272402
0.27122
0.269679
0.269748
0.281178
0.261061
0.266418
0.265886
0.263273
0.260378
0.256587
0.249455
0.234548
0.272759
0.252725
0.257473
0.255914
0.251582
0.246379
0.240088
0.232626
0.172114
0.265456
0.24537
0.249247
0.246125
0.238777
0.227607
0.208432
0.170091
0.0649059
0.259965
0.23973
0.24267
0.238203
0.228868
0.215414
0.195893
0.166741
0.133525
0.256976
0.236398
0.23836
0.232873
0.222472
0.208505
0.190419
0.166403
0.139699
0.257227
0.235745
0.236492
0.23004
0.218853
0.204576
0.186893
0.164881
0.139605
0.2617
0.23787
0.236933
0.229391
0.217466
0.202859
0.185373
0.164648
0.141247
0.268241
0.241716
0.239182
0.230558
0.217956
0.203025
0.185601
0.165511
0.14316
0.296556
0.253745
0.245318
0.234226
0.220791
0.205561
0.188052
0.167988
0.145658
-0.098108
-0.0902106
0.0615618
0.0328194
0.0836976
0.054807
0.104356
0.0780635
0.11394
0.0897638
0.118959
0.0961261
0.121836
0.0988333
-0.077268
-0.00019696
0.0214072
0.0214735
0.0190344
0.0157953
0.0118798
0.00744232
0.00251795
0.0063417
0.0156191
0.0248148
0.0254813
0.0225669
0.0183898
0.0135615
0.00833904
0.00275648
0.0397962
0.0348846
0.0336782
0.0304257
0.025697
0.0203702
0.0147427
0.00892976
0.00290267
0.0595168
0.0480323
0.0407643
0.0343866
0.0280333
0.0217141
0.0154551
0.00923753
0.00296467
0.070596
0.0563951
0.0458418
0.0371934
0.0295042
0.0224045
0.0157053
0.00927142
0.00294441
0.0766384
0.0609519
0.0485515
0.0384581
0.0298787
0.0223086
0.015423
0.00899674
0.00282982
0.0784993
0.0616834
0.0482437
0.0374682
0.0285996
0.02104
0.0143632
0.00827661
0.0025717
0.00379347
0.00786011
0.0101343
0.0110155
0.0107197
0.00943513
0.0073759
0.00475443
0.00177362
-0.00114692
0.00342629
0.00630116
0.00783614
0.00819279
0.00752685
0.00604374
0.00396185
0.0015107
-0.00600159
-0.000478296
0.00330299
0.00561148
0.00659824
0.00643308
0.00534679
0.00358245
0.0013904
-0.0121993
-0.00489331
0.000401837
0.00381634
0.00556083
0.00588652
0.00510145
0.00350298
0.00137027
-0.0209994
-0.0101582
-0.00239584
0.00255236
0.00517589
0.00594673
0.0053298
0.00372104
0.00144505
-0.0342836
-0.0161936
-0.004779
0.00216346
0.00570891
0.00677009
0.00610044
0.00425311
0.00161322
-0.0622565
-0.0236591
-0.00653887
0.00317563
0.00756749
0.00856147
0.00747961
0.00510149
0.00186759
-0.169781
-0.0366559
-0.00514162
0.0073276
0.0115282
0.0115625
0.00948016
0.00622094
0.00218685
)
;

boundaryField
{
    inlet
    {
        type            zeroGradient;
    }
    outlet
    {
        type            totalPressure;
        rho             none;
        psi             none;
        gamma           1;
        p0              uniform 0;
        value           uniform 0;
    }
    fixedWalls
    {
        type            zeroGradient;
    }
    frontAndBack
    {
        type            empty;
    }
}


// ************************************************************************* //
