/*--------------------------------*- C++ -*----------------------------------*\
| =========                 |                                                 |
| \\      /  F ield         | OpenFOAM Extend Project: Open source CFD        |
|  \\    /   O peration     | Version:  1.6-ext                               |
|   \\  /    A nd           | Web:      www.extend-project.de                 |
|    \\/     M anipulation  |                                                 |
\*---------------------------------------------------------------------------*/
FoamFile
{
    version     2.0;
    format      ascii;
    class       surfaceScalarField;
    location    "0.1";
    object      phi;
}
// * * * * * * * * * * * * * * * * * * * * * * * * * * * * * * * * * * * * * //

dimensions      [0 3 -1 0 0 0 0];

internalField   nonuniform List<scalar> 
525
(
0.000175151
2.4849e-05
0.000152256
2.28945e-05
0.000132318
1.99381e-05
0.000112918
1.94007e-05
9.25546e-05
2.0363e-05
7.05794e-05
2.19752e-05
4.67954e-05
2.3784e-05
2.16211e-05
2.51743e-05
2.16211e-05
0.000193107
3.17425e-05
0.000176679
3.93223e-05
0.000157184
3.94333e-05
0.000135761
4.08236e-05
0.000112261
4.38629e-05
8.6289e-05
4.79471e-05
5.77101e-05
5.23629e-05
2.70459e-05
5.58385e-05
4.8667e-05
0.000191999
3.97434e-05
0.00017739
5.39311e-05
0.000159885
5.69389e-05
0.000139948
6.076e-05
0.00011727
6.65416e-05
9.13701e-05
7.38466e-05
6.19494e-05
8.17836e-05
2.9387e-05
8.84009e-05
7.8054e-05
0.000191982
4.77612e-05
0.000179034
6.68794e-05
0.000163653
7.23198e-05
0.000145693
7.87199e-05
0.000124464
8.77703e-05
9.91039e-05
9.92071e-05
6.8821e-05
0.000112066
3.34703e-05
0.000123752
0.000111524
0.000193185
5.45765e-05
0.000182592
7.74719e-05
0.000169934
8.49774e-05
0.00015467
9.39847e-05
0.000135718
0.000106722
0.000111616
0.000123309
8.06152e-05
0.000143067
4.12521e-05
0.000163115
0.000152776
0.00019526
5.93163e-05
0.000187878
8.48541e-05
0.000178839
9.40161e-05
0.00016739
0.000105434
0.000152148
0.000121964
0.000130938
0.000144519
0.00010047
0.000173535
5.62732e-05
0.000207311
0.00020905
0.000197985
6.1331e-05
0.000194627
8.82119e-05
0.000190216
9.84273e-05
0.000184048
0.000111603
0.000174732
0.000131279
0.000159659
0.000159592
0.000134196
0.000198999
8.86082e-05
0.000252899
0.000297658
0.000201123
6.02078e-05
0.000202378
8.69569e-05
0.000203453
9.73527e-05
0.000204109
0.000110947
0.000203535
0.000131853
0.00019903
0.000164097
0.000182382
0.000215647
0.000133393
0.000301888
0.000431051
0.000204352
5.58554e-05
0.000210347
8.09627e-05
0.000217187
9.05124e-05
0.000225692
0.000102441
0.00023776
0.000119785
0.000257985
0.000143872
0.000298833
0.000174799
0.000390085
0.000210636
0.000279474
0.000541662
0.000207309
4.85466e-05
0.000217502
7.07694e-05
0.000229153
7.88619e-05
0.000243435
8.81592e-05
0.000262708
0.000100512
0.000291164
0.000115416
0.000334881
0.000131082
0.000402727
0.000142791
0.000157796
0.000524405
0.000209828
3.87186e-05
0.000223328
5.72693e-05
0.000238323
6.38671e-05
0.000255802
7.06796e-05
0.000277519
7.87955e-05
0.000305654
8.72808e-05
0.00034258
9.41559e-05
0.000390293
9.50776e-05
8.73312e-05
0.000460758
0.000212044
2.66747e-05
0.000227932
4.13817e-05
0.000244931
4.68673e-05
0.000263792
5.18187e-05
0.000285641
5.69466e-05
0.000311476
6.1446e-05
0.000341921
6.37107e-05
0.000376095
6.09041e-05
5.03459e-05
0.00041308
0.000214379
1.22958e-05
0.000231748
2.40127e-05
0.000249629
2.89859e-05
0.000268719
3.27291e-05
0.00028976
3.5906e-05
0.00031305
3.81558e-05
0.000338213
3.85479e-05
0.000363523
3.5594e-05
2.78104e-05
0.000386058
0.000215952
-3.65674e-06
0.000233689
6.27627e-06
0.000251301
1.1374e-05
0.000269762
1.42681e-05
0.000289653
1.60146e-05
0.000310814
1.6995e-05
0.000332396
1.69658e-05
0.00035261
1.53802e-05
1.16867e-05
0.000368734
0.000196343
0.00020262
0.000213993
0.000228262
0.000244276
0.000261271
0.000278237
0.000293617
0.000305304
0.000502114
3.9548e-05
-3.78138e-05
0.000539928
0.00052715
3.68025e-05
-3.2341e-05
0.000521677
0.000467357
3.0203e-05
-1.76282e-05
0.000452644
0.000422375
2.09076e-05
-9.05065e-06
0.000413798
0.000394518
1.2448e-05
-4.36466e-06
0.000389832
0.000375878
5.30405e-06
-1.76932e-06
0.000373282
0.000310608
0.000308839
0.000420977
-0.000214241
0.000333192
0.00032821
-0.000197786
0.000290552
0.000275721
-0.000154314
0.000206803
0.00025005
-0.000119219
0.00014489
0.000237078
-9.01234e-05
0.000103095
0.000229994
-6.59143e-05
7.29988e-05
0.000225999
-4.54579e-05
4.94526e-05
0.000223917
-2.75571e-05
2.96392e-05
-1.10622e-05
1.18133e-05
0.00041926
-0.000111824
0.0003474
-0.000125926
0.000304613
-0.000111527
0.000277975
-9.25802e-05
0.000261211
-7.33595e-05
0.000250631
-5.53342e-05
0.000244101
-3.89285e-05
0.000240469
-2.39243e-05
-9.69e-06
0.000403
-6.21796e-05
0.00035597
-7.88959e-05
0.000321352
-7.69087e-05
0.000296486
-6.77142e-05
0.000278991
-5.58646e-05
0.000267006
-4.33491e-05
0.000259165
-3.10873e-05
0.000254605
-1.93644e-05
-7.91414e-06
0.000386554
-3.49358e-05
0.000355717
-4.80592e-05
0.000329023
-5.02144e-05
0.000307616
-4.63067e-05
0.000291189
-3.9438e-05
0.000279142
-3.13025e-05
0.000270863
-2.28081e-05
0.00026587
-1.43712e-05
-5.92209e-06
0.000373623
-1.87273e-05
0.000352658
-2.70942e-05
0.000332026
-2.95817e-05
0.000313872
-2.81529e-05
0.000298945
-2.45111e-05
0.000287405
-1.97623e-05
0.000279157
-1.45599e-05
0.000274035
-9.2492e-06
-3.84101e-06
0.00036239
-7.83485e-06
0.000346853
-1.15577e-05
0.000330132
-1.28607e-05
0.000314399
-1.24197e-05
0.000300815
-1.09269e-05
0.000289928
-8.8759e-06
0.000281942
-6.5737e-06
0.000276887
-4.19375e-06
-1.76382e-06
0.000301004
0.000289446
0.000276585
0.000264166
0.000253239
0.000244363
0.000237789
0.000233595
1.67386e-05
-1.67386e-05
3.63666e-05
-1.9628e-05
5.44049e-05
-1.80383e-05
7.0032e-05
-1.56271e-05
8.29212e-05
-1.28892e-05
9.29606e-05
-1.00394e-05
0.00010016
-7.19887e-06
0.000104578
-4.41887e-06
-1.80214e-06
2.11088e-05
-3.78474e-05
4.52911e-05
-4.38103e-05
6.73297e-05
-4.00769e-05
8.62602e-05
-3.45576e-05
0.00010175
-2.83795e-05
0.000113738
-2.20269e-05
0.000122296
-1.57564e-05
0.000127538
-9.66096e-06
-3.90126e-06
2.32605e-05
-6.11079e-05
4.96451e-05
-7.01949e-05
7.31977e-05
-6.36294e-05
9.29724e-05
-5.43323e-05
0.000108816
-4.42235e-05
0.000120866
-3.40763e-05
0.000129361
-2.4252e-05
0.000134533
-1.48325e-05
-5.96717e-06
2.67788e-05
-8.78868e-05
5.65932e-05
-0.000100009
8.22403e-05
-8.92765e-05
0.000102928
-7.50202e-05
0.000118906
-6.02012e-05
0.000130698
-4.58686e-05
0.000138837
-3.23904e-05
0.000143736
-1.97319e-05
-7.91453e-06
3.25832e-05
-0.00012047
6.76889e-05
-0.000135115
9.60596e-05
-0.000117647
0.000117512
-9.64727e-05
0.000133151
-7.584e-05
0.000144179
-5.68967e-05
0.000151551
-3.97621e-05
0.000155917
-2.40984e-05
-9.63718e-06
4.23082e-05
-0.000162778
8.52647e-05
-0.000178071
0.000116564
-0.000148946
0.000137871
-0.000117779
0.000152055
-9.00238e-05
0.000161381
-6.62227e-05
0.000167326
-4.57074e-05
0.000170769
-2.75413e-05
-1.0983e-05
5.87257e-05
-0.000221504
0.000113376
-0.000232721
0.000146725
-0.000182296
0.000165464
-0.000136519
0.000175999
-0.000100558
0.000182104
-7.23276e-05
0.000185695
-4.92982e-05
0.000187711
-2.95573e-05
-1.1766e-05
0.000111688
0.000169519
0.000194027
0.000202398
0.000204934
0.000205605
0.00020576
0.000205842
)
;

boundaryField
{
    inlet
    {
        type            calculated;
        value           uniform -0.0002;
    }
    outlet
    {
        type            calculated;
        value           nonuniform List<scalar> 
15
(
0.000106381
0.000129637
0.000136599
0.000145683
0.00015764
0.000172115
0.000188494
0.000205889
0.000223166
0.000239096
0.000252829
0.000263878
0.000271953
0.00027481
0.000231832
)
;
    }
    fixedWalls
    {
        type            calculated;
        value           uniform 0;
    }
    frontAndBack
    {
        type            empty;
    }
}


// ************************************************************************* //
