/*--------------------------------*- C++ -*----------------------------------*\
| =========                 |                                                 |
| \\      /  F ield         | OpenFOAM Extend Project: Open source CFD        |
|  \\    /   O peration     | Version:  1.6-ext                               |
|   \\  /    A nd           | Web:      www.extend-project.de                 |
|    \\/     M anipulation  |                                                 |
\*---------------------------------------------------------------------------*/
FoamFile
{
    version     2.0;
    format      ascii;
    class       volVectorField;
    location    "0.1";
    object      U;
}
// * * * * * * * * * * * * * * * * * * * * * * * * * * * * * * * * * * * * * //

dimensions      [0 1 -1 0 0 0 0];

internalField   nonuniform List<vector> 
284
(
(0.144109 0.0139608 0)
(0.179547 0.011941 0)
(0.141831 0.0100711 0)
(0.122152 0.00968507 0)
(0.10285 0.010097 0)
(0.0817443 0.0108479 0)
(0.0588352 0.011696 0)
(0.0341751 0.0123381 0)
(0.0107224 0.0105642 0)
(0.15794 0.0299098 0)
(0.203331 0.03166 0)
(0.166888 0.0298546 0)
(0.146046 0.0301355 0)
(0.124234 0.0320363 0)
(0.0995643 0.0348006 0)
(0.0722551 0.0378255 0)
(0.0424006 0.0401664 0)
(0.0134422 0.0347999 0)
(0.1572 0.0358183 0)
(0.202816 0.0467339 0)
(0.168644 0.0483353 0)
(0.149543 0.0509163 0)
(0.128901 0.0552775 0)
(0.104702 0.060911 0)
(0.0770337 0.0670089 0)
(0.0458029 0.0719367 0)
(0.0146647 0.0631343 0)
(0.156898 0.0437977 0)
(0.203383 0.0605709 0)
(0.171393 0.0648425 0)
(0.154331 0.0699459 0)
(0.135442 0.0773208 0)
(0.112298 0.0866192 0)
(0.0845485 0.0969096 0)
(0.0515104 0.105853 0)
(0.0168231 0.0944274 0)
(0.157159 0.0512852 0)
(0.205584 0.0724293 0)
(0.176389 0.0789442 0)
(0.161979 0.0866555 0)
(0.145629 0.0975244 0)
(0.124362 0.111459 0)
(0.0970752 0.127624 0)
(0.0617777 0.143142 0)
(0.0209742 0.131423 0)
(0.157774 0.0571182 0)
(0.209075 0.0815034 0)
(0.183575 0.0898959 0)
(0.172785 0.100153 0)
(0.160247 0.114816 0)
(0.142436 0.134357 0)
(0.11725 0.158593 0)
(0.0805436 0.185156 0)
(0.0293923 0.18054 0)
(0.158628 0.0605386 0)
(0.213574 0.0869492 0)
(0.192713 0.096726 0)
(0.186746 0.109134 0)
(0.179822 0.127397 0)
(0.16817 0.15299 0)
(0.149092 0.187067 0)
(0.117794 0.227889 0)
(0.0495156 0.243164 0)
(0.159632 0.0610079 0)
(0.218727 0.0880427 0)
(0.203246 0.098459 0)
(0.203278 0.112023 0)
(0.204069 0.132704 0)
(0.202144 0.164013 0)
(0.193555 0.21317 0)
(0.182895 0.297312 0)
(0.0591067 0.376026 0)
(0.160678 0.0582662 0)
(0.224021 0.0844044 0)
(0.214107 0.0944745 0)
(0.220793 0.10739 0)
(0.23166 0.126848 0)
(0.247735 0.155877 0)
(0.277493 0.200061 0)
(0.340663 0.267674 0)
(0.460266 0.419393 0)
(0.161656 0.0524081 0)
(0.228845 0.0762458 0)
(0.223706 0.0851185 0)
(0.235504 0.0957867 0)
(0.252682 0.110726 0)
(0.276091 0.130385 0)
(0.311752 0.153981 0)
(0.361342 0.175626 0)
(0.467906 0.19287 0)
(0.162526 0.0438041 0)
(0.232895 0.0643127 0)
(0.2313 0.0716608 0)
(0.246245 0.0796943 0)
(0.266267 0.0898859 0)
(0.290975 0.101449 0)
(0.323401 0.112044 0)
(0.36378 0.115906 0)
(0.42761 0.110721 0)
(0.163369 0.0328761 0)
(0.236295 0.0495458 0)
(0.237037 0.0555471 0)
(0.25358 0.061378 0)
(0.274414 0.0679232 0)
(0.298206 0.0742095 0)
(0.32629 0.0782423 0)
(0.358236 0.0763076 0)
(0.395344 0.0652872 0)
(0.164403 0.0201681 0)
(0.239494 0.0328953 0)
(0.241435 0.038003 0)
(0.258439 0.0422939 0)
(0.279022 0.0463744 0)
(0.301218 0.0495872 0)
(0.325441 0.0506018 0)
(0.350712 0.0472746 0)
(0.375237 0.0375058 0)
(0.165074 0.000943171 0)
(0.241447 0.0136009 0)
(0.243343 0.0196534 0)
(0.259822 0.0232248 0)
(0.279539 0.0256998 0)
(0.300139 0.0272248 0)
(0.321544 0.0272449 0)
(0.342556 0.0247962 0)
(0.361042 0.0189478 0)
(0.151074 -0.00576269 0)
(0.21405 0.00153478 0)
(0.208813 0.0051785 0)
(0.220486 0.00689495 0)
(0.23613 0.00780536 0)
(0.252722 0.00825973 0)
(0.269736 0.00817945 0)
(0.285996 0.00732535 0)
(0.2997 0.00546525 0)
(0.549677 0.0794577 0)
(0.510199 -0.000533251 0)
(0.537572 0.0227277 0)
(0.535343 -0.0554681 0)
(0.468692 0.0357889 0)
(0.464545 -0.0212016 0)
(0.4198 0.0244565 0)
(0.420335 -0.0131134 0)
(0.391406 0.0159629 0)
(0.393494 -0.00637196 0)
(0.373035 0.00849135 0)
(0.375456 -0.00288686 0)
(0.308384 0.0024293 0)
(0.310243 -0.000900962 0)
(0.526018 -0.288328 0)
(0.361202 -0.26267 0)
(0.291496 -0.189423 0)
(0.25985 -0.135505 0)
(0.242432 -0.0980873 0)
(0.232997 -0.0702196 0)
(0.227712 -0.0478907 0)
(0.224789 -0.0288458 0)
(0.223313 -0.0115483 0)
(0.478235 -0.151433 0)
(0.381849 -0.151386 0)
(0.322195 -0.129793 0)
(0.289292 -0.10543 0)
(0.268573 -0.0819054 0)
(0.255322 -0.0608985 0)
(0.24699 -0.042429 0)
(0.242031 -0.0259057 0)
(0.239431 -0.0104574 0)
(0.430821 -0.0826662 0)
(0.379895 -0.0995085 0)
(0.337511 -0.0930339 0)
(0.307858 -0.0797442 0)
(0.286994 -0.0645386 0)
(0.272473 -0.0494024 0)
(0.262703 -0.0351056 0)
(0.256597 -0.0217333 0)
(0.253291 -0.00885138 0)
(0.401832 -0.0463495 0)
(0.371696 -0.0615266 0)
(0.342115 -0.062474 0)
(0.31783 -0.0565159 0)
(0.298927 -0.0474642 0)
(0.284757 -0.037282 0)
(0.274659 -0.0269652 0)
(0.268079 -0.0169042 0)
(0.264416 -0.0069424 0)
(0.382786 -0.0257515 0)
(0.363658 -0.036492 0)
(0.342393 -0.0391624 0)
(0.322753 -0.0368175 0)
(0.306121 -0.0317722 0)
(0.292869 -0.0254483 0)
(0.282985 -0.0186601 0)
(0.276324 -0.0118139 0)
(0.272532 -0.00488883 0)
(0.368587 -0.0127095 0)
(0.355069 -0.0186594 0)
(0.33864 -0.020671 0)
(0.322206 -0.0198981 0)
(0.307429 -0.0174669 0)
(0.295139 -0.0141645 0)
(0.285683 -0.0104779 0)
(0.279165 -0.00667724 0)
(0.275407 -0.00278631 0)
(0.305386 -0.00375103 0)
(0.295531 -0.005524 0)
(0.283149 -0.00617411 0)
(0.270374 -0.00599201 0)
(0.258611 -0.00529289 0)
(0.24866 -0.00431073 0)
(0.240912 -0.00319549 0)
(0.235524 -0.00203455 0)
(0.232398 -0.00085337 0)
(0.00831141 -0.00812766 0)
(0.0265502 -0.00955433 0)
(0.045542 -0.00879895 0)
(0.0624339 -0.0076404 0)
(0.0767052 -0.00631432 0)
(0.0881703 -0.00492472 0)
(0.0967843 -0.00353235 0)
(0.102584 -0.00216497 0)
(0.105756 -0.000881604 0)
(0.0104975 -0.026908 0)
(0.0332426 -0.0313119 0)
(0.0565618 -0.0287386 0)
(0.0771159 -0.024865 0)
(0.0943348 -0.0204804 0)
(0.108067 -0.015933 0)
(0.118326 -0.0114154 0)
(0.12521 -0.00700375 0)
(0.128963 -0.00283771 0)
(0.0115968 -0.049105 0)
(0.0365742 -0.0566346 0)
(0.0617689 -0.0516212 0)
(0.0834814 -0.0443269 0)
(0.101271 -0.0362528 0)
(0.115187 -0.0280411 0)
(0.125431 -0.02001 0)
(0.132239 -0.012253 0)
(0.135935 -0.00493884 0)
(0.0134227 -0.0738905 0)
(0.0419905 -0.084542 0)
(0.0699476 -0.0761542 0)
(0.0931026 -0.0645637 0)
(0.111356 -0.0521994 0)
(0.125169 -0.0400071 0)
(0.13508 -0.0283666 0)
(0.141561 -0.0173147 0)
(0.145046 -0.00695765 0)
(0.016537 -0.103129 0)
(0.050865 -0.116684 0)
(0.0827407 -0.103091 0)
(0.107486 -0.085673 0)
(0.125842 -0.0680872 0)
(0.139041 -0.0514968 0)
(0.148156 -0.0361831 0)
(0.153974 -0.0219866 0)
(0.157058 -0.00881066 0)
(0.0223292 -0.137059 0)
(0.0654324 -0.154784 0)
(0.102374 -0.132853 0)
(0.128147 -0.107217 0)
(0.145519 -0.0831948 0)
(0.157066 -0.0618271 0)
(0.164591 -0.0429433 0)
(0.169229 -0.0259512 0)
(0.171635 -0.0103712 0)
(0.0375269 -0.176214 0)
(0.0885519 -0.203669 0)
(0.132392 -0.166203 0)
(0.157192 -0.127941 0)
(0.171214 -0.0960023 0)
(0.179287 -0.0698001 0)
(0.184032 -0.0478517 0)
(0.186794 -0.0287545 0)
(0.188176 -0.0114663 0)
(0.120399 -0.319448 0)
(0.135791 -0.283457 0)
(0.18244 -0.203597 0)
(0.198593 -0.144379 0)
(0.203687 -0.10351 0)
(0.205226 -0.0735346 0)
(0.20564 -0.0498595 0)
(0.205772 -0.0298629 0)
(0.205793 -0.0119044 0)
)
;

boundaryField
{
    inlet
    {
        type            fixedValue;
        value           uniform (0.2 0 0);
    }
    outlet
    {
        type            zeroGradient;
    }
    fixedWalls
    {
        type            fixedValue;
        value           uniform (0 0 0);
    }
    frontAndBack
    {
        type            empty;
    }
}


// ************************************************************************* //
