/*--------------------------------*- C++ -*----------------------------------*\
| =========                 |                                                 |
| \\      /  F ield         | OpenFOAM Extend Project: Open source CFD        |
|  \\    /   O peration     | Version:  1.6-ext                               |
|   \\  /    A nd           | Web:      www.extend-project.de                 |
|    \\/     M anipulation  |                                                 |
\*---------------------------------------------------------------------------*/
FoamFile
{
    version     2.0;
    format      ascii;
    class       vectorField;
    location    "0.9";
    object      accumulatedFluidInterfaceDisplacement;
}
// * * * * * * * * * * * * * * * * * * * * * * * * * * * * * * * * * * * * * //


338
(
(-1.09704e-06 -2.53047e-07 8.33164e-27)
(-1.12568e-06 -5.55128e-07 7.49608e-27)
(-4.52448e-06 9.87683e-06 -2.62726e-26)
(-4.43841e-06 9.62436e-06 2.57146e-27)
(-4.43137e-06 9.28556e-06 4.36237e-26)
(-4.42369e-06 8.94432e-06 4.59115e-27)
(-4.4157e-06 8.60326e-06 -3.97743e-26)
(-4.40723e-06 8.26406e-06 -2.3812e-26)
(-4.39817e-06 7.92808e-06 6.08074e-28)
(-4.38839e-06 7.59643e-06 6.5543e-27)
(-4.37779e-06 7.27008e-06 2.34491e-27)
(-4.36625e-06 6.9499e-06 1.66383e-26)
(-4.35367e-06 6.63669e-06 1.04989e-26)
(-4.33995e-06 6.33119e-06 7.83149e-27)
(-4.32497e-06 6.03405e-06 1.8962e-26)
(-4.3086e-06 5.74588e-06 -2.34347e-27)
(-4.29069e-06 5.46717e-06 -9.08803e-27)
(-4.27107e-06 5.19835e-06 1.49724e-27)
(-4.24955e-06 4.9397e-06 7.59372e-27)
(-4.22593e-06 4.69142e-06 1.99681e-26)
(-4.20002e-06 4.45357e-06 7.52334e-27)
(-4.17161e-06 4.22608e-06 -6.25909e-27)
(-4.1405e-06 4.00876e-06 -1.929e-26)
(-4.10649e-06 3.80131e-06 -8.0347e-27)
(-4.06943e-06 3.60328e-06 1.53481e-26)
(-4.02916e-06 3.41417e-06 -7.89287e-27)
(-3.98557e-06 3.23335e-06 -1.15623e-26)
(-3.93857e-06 3.06013e-06 -7.88392e-28)
(-3.88811e-06 2.89378e-06 4.48078e-28)
(-3.83418e-06 2.73351e-06 1.66582e-26)
(-3.7768e-06 2.57855e-06 2.2962e-26)
(-3.71604e-06 2.42812e-06 -7.63914e-28)
(-3.65201e-06 2.28146e-06 -1.62843e-26)
(-3.58484e-06 2.13787e-06 -8.504e-27)
(-3.51471e-06 1.99673e-06 7.73063e-27)
(-3.44182e-06 1.85748e-06 9.40222e-27)
(-3.36641e-06 1.71968e-06 -1.81576e-28)
(-3.28872e-06 1.58299e-06 3.44291e-27)
(-3.20901e-06 1.44719e-06 -5.39919e-28)
(-3.12757e-06 1.31219e-06 -1.11664e-27)
(-3.04467e-06 1.17804e-06 7.58275e-28)
(-2.96057e-06 1.04489e-06 -2.35915e-27)
(-2.87554e-06 9.13031e-07 -5.89979e-28)
(-2.78983e-06 7.82867e-07 -2.41897e-28)
(-2.70364e-06 6.54903e-07 1.91979e-27)
(-2.61719e-06 5.29732e-07 -4.45853e-27)
(-2.53063e-06 4.08021e-07 -7.48101e-27)
(-2.44409e-06 2.90491e-07 -1.92902e-27)
(-2.35766e-06 1.77899e-07 7.70403e-28)
(-2.27138e-06 7.10122e-08 4.26519e-28)
(-2.18528e-06 -2.94105e-08 8.6972e-28)
(-2.09932e-06 -1.22642e-07 -1.49357e-27)
(-2.01343e-06 -2.08008e-07 -7.32152e-27)
(-1.9275e-06 -2.8491e-07 -4.81886e-27)
(-1.84139e-06 -3.52843e-07 2.01623e-27)
(-1.75493e-06 -4.11414e-07 5.15382e-27)
(-1.66792e-06 -4.60358e-07 -2.74272e-27)
(-1.58017e-06 -4.99544e-07 -5.57824e-27)
(-1.49144e-06 -5.28992e-07 -2.3088e-27)
(-1.40151e-06 -5.48865e-07 -9.78362e-27)
(-1.31018e-06 -5.59473e-07 3.35407e-27)
(-1.21725e-06 -5.61261e-07 1.1885e-26)
(-5.09512e-06 9.96457e-06 4.15878e-27)
(-4.77036e-06 9.96253e-06 -2.79614e-26)
(-5.66419e-06 9.88139e-06 1.09013e-26)
(-5.41926e-06 9.96475e-06 1.49229e-26)
(-1.21766e-06 -2.60717e-07 -1.14945e-27)
(-1.34292e-06 -2.60666e-07 -5.14068e-27)
(-1.46851e-06 -2.51948e-07 -3.36603e-27)
(-1.59414e-06 -2.34118e-07 2.85171e-27)
(-1.7195e-06 -2.06863e-07 1.12478e-26)
(-1.84427e-06 -1.70017e-07 1.72562e-27)
(-1.96814e-06 -1.2356e-07 -4.66736e-28)
(-2.09078e-06 -6.76148e-08 7.71869e-27)
(-2.21192e-06 -2.44575e-09 5.51195e-27)
(-2.33127e-06 7.15586e-08 6.73843e-28)
(-2.4486e-06 1.53897e-07 3.20597e-27)
(-2.5637e-06 2.43975e-07 -7.42689e-28)
(-2.67639e-06 3.41123e-07 6.27894e-28)
(-2.78655e-06 4.44615e-07 2.63311e-27)
(-2.89409e-06 5.53698e-07 8.04388e-27)
(-2.99895e-06 6.67604e-07 9.46718e-27)
(-3.10113e-06 7.85582e-07 3.02153e-27)
(-3.20065e-06 9.06911e-07 -1.20764e-27)
(-3.29759e-06 1.03093e-06 -8.44026e-28)
(-3.39204e-06 1.15704e-06 -1.27391e-27)
(-3.48413e-06 1.28473e-06 -2.80707e-27)
(-3.57402e-06 1.41362e-06 -4.49261e-28)
(-3.66188e-06 1.5434e-06 4.04079e-28)
(-3.74789e-06 1.67392e-06 4.03448e-28)
(-3.83224e-06 1.80514e-06 2.73406e-27)
(-3.91513e-06 1.93715e-06 5.60785e-28)
(-3.99674e-06 2.07015e-06 1.23509e-27)
(-4.07724e-06 2.2045e-06 5.69675e-27)
(-4.1568e-06 2.34063e-06 3.98067e-27)
(-4.23554e-06 2.47909e-06 3.0976e-27)
(-4.31357e-06 2.62052e-06 1.50363e-26)
(-4.39096e-06 2.76562e-06 5.95687e-27)
(-4.46776e-06 2.91514e-06 -6.56803e-27)
(-4.54395e-06 3.06985e-06 8.5116e-27)
(-4.61952e-06 3.23055e-06 3.47764e-27)
(-4.69438e-06 3.39801e-06 -1.72807e-26)
(-4.76841e-06 3.57296e-06 -2.98332e-27)
(-4.84149e-06 3.75612e-06 2.89048e-26)
(-4.91342e-06 3.94808e-06 1.68174e-26)
(-4.98401e-06 4.14938e-06 -1.55997e-26)
(-5.05302e-06 4.36046e-06 -3.38668e-27)
(-5.12021e-06 4.58161e-06 5.79275e-27)
(-5.18532e-06 4.81305e-06 8.1751e-27)
(-5.24808e-06 5.05483e-06 1.9894e-26)
(-5.30822e-06 5.3069e-06 2.00767e-26)
(-5.36548e-06 5.56908e-06 1.72246e-26)
(-5.41961e-06 5.84106e-06 -7.69957e-28)
(-5.47038e-06 6.12243e-06 8.12729e-27)
(-5.51755e-06 6.41268e-06 3.02837e-27)
(-5.56091e-06 6.71123e-06 7.03413e-27)
(-5.60028e-06 7.01739e-06 -8.94199e-27)
(-5.63545e-06 7.33044e-06 6.02467e-27)
(-5.66622e-06 7.64957e-06 4.70129e-26)
(-5.69239e-06 7.97389e-06 3.70947e-26)
(-5.71372e-06 8.30242e-06 5.26912e-26)
(-5.72998e-06 8.63402e-06 1.96398e-26)
(-5.74096e-06 8.96738e-06 -3.03379e-26)
(-5.74661e-06 9.30089e-06 -8.25384e-27)
(-5.74742e-06 9.63287e-06 2.88365e-26)
(-5.08397e-08 3.2135e-08 5.2799e-26)
(-4.89878e-08 4.0093e-08 1.85795e-26)
(-4.77638e-08 5.27961e-08 -4.56965e-26)
(-5.20934e-08 5.8871e-08 1.96549e-26)
(-6.25577e-08 5.89993e-08 3.08463e-26)
(-7.87157e-08 5.4468e-08 -5.41992e-26)
(-9.99264e-08 4.61352e-08 -5.30659e-27)
(-1.25802e-07 3.47619e-08 7.11243e-27)
(-1.5609e-07 2.09174e-08 -2.91721e-26)
(-1.90673e-07 5.06503e-09 6.7205e-27)
(-2.2952e-07 -1.24318e-08 1.87044e-26)
(-2.72674e-07 -3.12795e-08 1.09643e-26)
(-3.20232e-07 -5.12389e-08 7.27301e-27)
(-3.72345e-07 -7.21053e-08 -1.48798e-26)
(-4.29211e-07 -9.36893e-08 -1.7989e-26)
(-4.91077e-07 -1.15793e-07 -1.00238e-27)
(-5.5824e-07 -1.38186e-07 1.05194e-26)
(-6.31045e-07 -1.60571e-07 -3.56846e-27)
(-7.09885e-07 -1.82554e-07 -2.34928e-27)
(-7.95198e-07 -2.03605e-07 -4.66255e-27)
(-8.87465e-07 -2.23011e-07 8.91146e-27)
(-9.87195e-07 -2.39831e-07 1.74891e-26)
(-1.38883e-07 -7.20317e-08 1.51802e-25)
(-1.04021e-06 -5.43199e-07 5.51434e-27)
(-9.60632e-07 -5.27464e-07 -6.14852e-27)
(-8.85175e-07 -5.09002e-07 -2.83596e-27)
(-8.13676e-07 -4.88792e-07 -7.54837e-27)
(-7.45974e-07 -4.67581e-07 -5.67999e-27)
(-6.81901e-07 -4.45936e-07 -8.70652e-28)
(-6.21291e-07 -4.24273e-07 2.08218e-28)
(-5.63982e-07 -4.02893e-07 6.08949e-27)
(-5.09822e-07 -3.81997e-07 -7.15425e-27)
(-4.58682e-07 -3.61699e-07 9.26072e-27)
(-4.10466e-07 -3.4203e-07 8.25951e-27)
(-3.65121e-07 -3.22934e-07 -9.53077e-27)
(-3.22656e-07 -3.04261e-07 4.68254e-27)
(-2.8316e-07 -2.85746e-07 1.15852e-26)
(-2.46852e-07 -2.66988e-07 5.62072e-28)
(-2.14116e-07 -2.47395e-07 1.42326e-26)
(-1.85614e-07 -2.26154e-07 2.44594e-26)
(-1.62313e-07 -2.02076e-07 -2.79345e-26)
(-1.45709e-07 -1.73699e-07 -4.28637e-26)
(-1.37212e-07 -1.38742e-07 -3.25194e-26)
(-1.36994e-07 -9.56313e-08 5.42278e-26)
(-1.09704e-06 -2.53047e-07 8.33164e-27)
(-1.12568e-06 -5.55128e-07 7.49608e-27)
(-4.52448e-06 9.87683e-06 -2.62726e-26)
(-4.43841e-06 9.62436e-06 2.57146e-27)
(-4.43137e-06 9.28556e-06 4.36237e-26)
(-4.42369e-06 8.94432e-06 4.59115e-27)
(-4.4157e-06 8.60326e-06 -3.97743e-26)
(-4.40723e-06 8.26406e-06 -2.3812e-26)
(-4.39817e-06 7.92808e-06 6.08074e-28)
(-4.38839e-06 7.59643e-06 6.5543e-27)
(-4.37779e-06 7.27008e-06 2.34491e-27)
(-4.36625e-06 6.9499e-06 1.66383e-26)
(-4.35367e-06 6.63669e-06 1.04989e-26)
(-4.33995e-06 6.33119e-06 7.83149e-27)
(-4.32497e-06 6.03405e-06 1.8962e-26)
(-4.3086e-06 5.74588e-06 -2.34347e-27)
(-4.29069e-06 5.46717e-06 -9.08803e-27)
(-4.27107e-06 5.19835e-06 1.49724e-27)
(-4.24955e-06 4.9397e-06 7.59372e-27)
(-4.22593e-06 4.69142e-06 1.99681e-26)
(-4.20002e-06 4.45357e-06 7.52334e-27)
(-4.17161e-06 4.22608e-06 -6.25909e-27)
(-4.1405e-06 4.00876e-06 -1.929e-26)
(-4.10649e-06 3.80131e-06 -8.0347e-27)
(-4.06943e-06 3.60328e-06 1.53481e-26)
(-4.02916e-06 3.41417e-06 -7.89287e-27)
(-3.98557e-06 3.23335e-06 -1.15623e-26)
(-3.93857e-06 3.06013e-06 -7.88392e-28)
(-3.88811e-06 2.89378e-06 4.48078e-28)
(-3.83418e-06 2.73351e-06 1.66582e-26)
(-3.7768e-06 2.57855e-06 2.2962e-26)
(-3.71604e-06 2.42812e-06 -7.63914e-28)
(-3.65201e-06 2.28146e-06 -1.62843e-26)
(-3.58484e-06 2.13787e-06 -8.504e-27)
(-3.51471e-06 1.99673e-06 7.73063e-27)
(-3.44182e-06 1.85748e-06 9.40222e-27)
(-3.36641e-06 1.71968e-06 -1.81576e-28)
(-3.28872e-06 1.58299e-06 3.44291e-27)
(-3.20901e-06 1.44719e-06 -5.39919e-28)
(-3.12757e-06 1.31219e-06 -1.11664e-27)
(-3.04467e-06 1.17804e-06 7.58275e-28)
(-2.96057e-06 1.04489e-06 -2.35915e-27)
(-2.87554e-06 9.13031e-07 -5.89979e-28)
(-2.78983e-06 7.82867e-07 -2.41897e-28)
(-2.70364e-06 6.54903e-07 1.91979e-27)
(-2.61719e-06 5.29732e-07 -4.45853e-27)
(-2.53063e-06 4.08021e-07 -7.48101e-27)
(-2.44409e-06 2.90491e-07 -1.92902e-27)
(-2.35766e-06 1.77899e-07 7.70403e-28)
(-2.27138e-06 7.10122e-08 4.26519e-28)
(-2.18528e-06 -2.94105e-08 8.6972e-28)
(-2.09932e-06 -1.22642e-07 -1.49357e-27)
(-2.01343e-06 -2.08008e-07 -7.32152e-27)
(-1.9275e-06 -2.8491e-07 -4.81886e-27)
(-1.84139e-06 -3.52843e-07 2.01623e-27)
(-1.75493e-06 -4.11414e-07 5.15382e-27)
(-1.66792e-06 -4.60358e-07 -2.74272e-27)
(-1.58017e-06 -4.99544e-07 -5.57824e-27)
(-1.49144e-06 -5.28992e-07 -2.3088e-27)
(-1.40151e-06 -5.48865e-07 -9.78362e-27)
(-1.31018e-06 -5.59473e-07 3.35407e-27)
(-1.21725e-06 -5.61261e-07 1.1885e-26)
(-5.09512e-06 9.96457e-06 4.15878e-27)
(-4.77036e-06 9.96253e-06 -2.79614e-26)
(-5.66419e-06 9.88139e-06 1.09013e-26)
(-5.41926e-06 9.96475e-06 1.49229e-26)
(-1.21766e-06 -2.60717e-07 -1.14945e-27)
(-1.34292e-06 -2.60666e-07 -5.14068e-27)
(-1.46851e-06 -2.51948e-07 -3.36603e-27)
(-1.59414e-06 -2.34118e-07 2.85171e-27)
(-1.7195e-06 -2.06863e-07 1.12478e-26)
(-1.84427e-06 -1.70017e-07 1.72562e-27)
(-1.96814e-06 -1.2356e-07 -4.66736e-28)
(-2.09078e-06 -6.76148e-08 7.71869e-27)
(-2.21192e-06 -2.44575e-09 5.51195e-27)
(-2.33127e-06 7.15586e-08 6.73843e-28)
(-2.4486e-06 1.53897e-07 3.20597e-27)
(-2.5637e-06 2.43975e-07 -7.42689e-28)
(-2.67639e-06 3.41123e-07 6.27894e-28)
(-2.78655e-06 4.44615e-07 2.63311e-27)
(-2.89409e-06 5.53698e-07 8.04388e-27)
(-2.99895e-06 6.67604e-07 9.46718e-27)
(-3.10113e-06 7.85582e-07 3.02153e-27)
(-3.20065e-06 9.06911e-07 -1.20764e-27)
(-3.29759e-06 1.03093e-06 -8.44026e-28)
(-3.39204e-06 1.15704e-06 -1.27391e-27)
(-3.48413e-06 1.28473e-06 -2.80707e-27)
(-3.57402e-06 1.41362e-06 -4.49261e-28)
(-3.66188e-06 1.5434e-06 4.04079e-28)
(-3.74789e-06 1.67392e-06 4.03448e-28)
(-3.83224e-06 1.80514e-06 2.73406e-27)
(-3.91513e-06 1.93715e-06 5.60785e-28)
(-3.99674e-06 2.07015e-06 1.23509e-27)
(-4.07724e-06 2.2045e-06 5.69675e-27)
(-4.1568e-06 2.34063e-06 3.98067e-27)
(-4.23554e-06 2.47909e-06 3.0976e-27)
(-4.31357e-06 2.62052e-06 1.50363e-26)
(-4.39096e-06 2.76562e-06 5.95687e-27)
(-4.46776e-06 2.91514e-06 -6.56803e-27)
(-4.54395e-06 3.06985e-06 8.5116e-27)
(-4.61952e-06 3.23055e-06 3.47764e-27)
(-4.69438e-06 3.39801e-06 -1.72807e-26)
(-4.76841e-06 3.57296e-06 -2.98332e-27)
(-4.84149e-06 3.75612e-06 2.89048e-26)
(-4.91342e-06 3.94808e-06 1.68174e-26)
(-4.98401e-06 4.14938e-06 -1.55997e-26)
(-5.05302e-06 4.36046e-06 -3.38668e-27)
(-5.12021e-06 4.58161e-06 5.79275e-27)
(-5.18532e-06 4.81305e-06 8.1751e-27)
(-5.24808e-06 5.05483e-06 1.9894e-26)
(-5.30822e-06 5.3069e-06 2.00767e-26)
(-5.36548e-06 5.56908e-06 1.72246e-26)
(-5.41961e-06 5.84106e-06 -7.69957e-28)
(-5.47038e-06 6.12243e-06 8.12729e-27)
(-5.51755e-06 6.41268e-06 3.02837e-27)
(-5.56091e-06 6.71123e-06 7.03413e-27)
(-5.60028e-06 7.01739e-06 -8.94199e-27)
(-5.63545e-06 7.33044e-06 6.02467e-27)
(-5.66622e-06 7.64957e-06 4.70129e-26)
(-5.69239e-06 7.97389e-06 3.70947e-26)
(-5.71372e-06 8.30242e-06 5.26912e-26)
(-5.72998e-06 8.63402e-06 1.96398e-26)
(-5.74096e-06 8.96738e-06 -3.03379e-26)
(-5.74661e-06 9.30089e-06 -8.25384e-27)
(-5.74742e-06 9.63287e-06 2.88365e-26)
(-5.08397e-08 3.2135e-08 5.2799e-26)
(-4.89878e-08 4.0093e-08 1.85795e-26)
(-4.77638e-08 5.27961e-08 -4.56965e-26)
(-5.20934e-08 5.8871e-08 1.96549e-26)
(-6.25577e-08 5.89993e-08 3.08463e-26)
(-7.87157e-08 5.4468e-08 -5.41992e-26)
(-9.99264e-08 4.61352e-08 -5.30659e-27)
(-1.25802e-07 3.47619e-08 7.11243e-27)
(-1.5609e-07 2.09174e-08 -2.91721e-26)
(-1.90673e-07 5.06503e-09 6.7205e-27)
(-2.2952e-07 -1.24318e-08 1.87044e-26)
(-2.72674e-07 -3.12795e-08 1.09643e-26)
(-3.20232e-07 -5.12389e-08 7.27301e-27)
(-3.72345e-07 -7.21053e-08 -1.48798e-26)
(-4.29211e-07 -9.36893e-08 -1.7989e-26)
(-4.91077e-07 -1.15793e-07 -1.00238e-27)
(-5.5824e-07 -1.38186e-07 1.05194e-26)
(-6.31045e-07 -1.60571e-07 -3.56846e-27)
(-7.09885e-07 -1.82554e-07 -2.34928e-27)
(-7.95198e-07 -2.03605e-07 -4.66255e-27)
(-8.87465e-07 -2.23011e-07 8.91146e-27)
(-9.87195e-07 -2.39831e-07 1.74891e-26)
(-1.38883e-07 -7.20317e-08 1.51802e-25)
(-1.04021e-06 -5.43199e-07 5.51434e-27)
(-9.60632e-07 -5.27464e-07 -6.14852e-27)
(-8.85175e-07 -5.09002e-07 -2.83596e-27)
(-8.13676e-07 -4.88792e-07 -7.54837e-27)
(-7.45974e-07 -4.67581e-07 -5.67999e-27)
(-6.81901e-07 -4.45936e-07 -8.70652e-28)
(-6.21291e-07 -4.24273e-07 2.08218e-28)
(-5.63982e-07 -4.02893e-07 6.08949e-27)
(-5.09822e-07 -3.81997e-07 -7.15425e-27)
(-4.58682e-07 -3.61699e-07 9.26072e-27)
(-4.10466e-07 -3.4203e-07 8.25951e-27)
(-3.65121e-07 -3.22934e-07 -9.53077e-27)
(-3.22656e-07 -3.04261e-07 4.68254e-27)
(-2.8316e-07 -2.85746e-07 1.15852e-26)
(-2.46852e-07 -2.66988e-07 5.62072e-28)
(-2.14116e-07 -2.47395e-07 1.42326e-26)
(-1.85614e-07 -2.26154e-07 2.44594e-26)
(-1.62313e-07 -2.02076e-07 -2.79345e-26)
(-1.45709e-07 -1.73699e-07 -4.28637e-26)
(-1.37212e-07 -1.38742e-07 -3.25194e-26)
(-1.36994e-07 -9.56313e-08 5.42278e-26)
)


// ************************************************************************* //
