/*--------------------------------*- C++ -*----------------------------------*\
| =========                 |                                                 |
| \\      /  F ield         | OpenFOAM Extend Project: Open source CFD        |
|  \\    /   O peration     | Version:  1.6-ext                               |
|   \\  /    A nd           | Web:      www.extend-project.de                 |
|    \\/     M anipulation  |                                                 |
\*---------------------------------------------------------------------------*/
FoamFile
{
    version     2.0;
    format      ascii;
    class       tetPointVectorField;
    location    "0.9";
    object      motionU;
}
// * * * * * * * * * * * * * * * * * * * * * * * * * * * * * * * * * * * * * //

dimensions      [0 1 -1 0 0 0 0];

internalField   nonuniform List<vector> 
147960
(
(0 0 0)
(-0.000100985 0.000102894 0)
(-0.000942724 0.00049854 -3.49136e-24)
(-0.000788826 0.000282705 -1.44257e-24)
(-0.00307369 0.0240202 2.57579e-23)
(-0.00291854 0.0235808 6.72645e-24)
(-0.00290661 0.0229939 -5.56134e-23)
(-0.00289301 0.0224078 5.22188e-23)
(-0.00287762 0.0218221 9.15009e-23)
(-0.00286021 0.0212362 5.41129e-23)
(-0.00284067 0.0206497 4.53571e-23)
(-0.00281891 0.0200619 -2.1897e-23)
(-0.00279493 0.0194725 1.88776e-23)
(-0.0027688 0.0188811 1.01698e-22)
(-0.00274061 0.0182873 6.06006e-23)
(-0.00271053 0.0176909 -4.00639e-23)
(-0.00267876 0.0170918 -7.38852e-23)
(-0.00264553 0.0164901 1.76347e-23)
(-0.00261111 0.0158859 2.82496e-23)
(-0.00257578 0.0152797 1.28995e-23)
(-0.00253984 0.0146718 -3.49343e-24)
(-0.00250357 0.014063 -4.01635e-23)
(-0.00246728 0.0134541 -2.98297e-23)
(-0.00243125 0.012846 -6.47475e-24)
(-0.00239575 0.01224 6.75214e-23)
(-0.00236103 0.0116371 4.77499e-23)
(-0.00232729 0.0110387 -5.69807e-24)
(-0.00229473 0.0104464 -1.26043e-23)
(-0.00226348 0.00986166 -4.47538e-24)
(-0.00223364 0.009286 -6.7946e-24)
(-0.00220527 0.00872105 -1.18926e-23)
(-0.00217837 0.00816841 -6.79999e-24)
(-0.00215291 0.00762966 -1.10313e-23)
(-0.0021288 0.00710632 -1.80752e-24)
(-0.00210591 0.00659985 1.15025e-23)
(-0.00208405 0.0061116 1.24833e-23)
(-0.00206302 0.00564279 -5.11596e-24)
(-0.00204255 0.00519451 -3.49197e-24)
(-0.00202237 0.00476768 4.5078e-24)
(-0.00200217 0.00436305 -4.10446e-24)
(-0.00198161 0.00398117 -1.30318e-24)
(-0.00196036 0.00362241 1.90291e-24)
(-0.00193808 0.00328693 -2.84392e-24)
(-0.00191441 0.00297471 6.00577e-24)
(-0.00188904 0.00268549 7.42066e-24)
(-0.00186163 0.00241888 -2.08895e-24)
(-0.0018319 0.00217426 -1.48824e-24)
(-0.00179958 0.00195087 9.52835e-26)
(-0.00176443 0.0017478 2.59428e-24)
(-0.00172626 0.001564 1.01762e-23)
(-0.00168492 0.00139833 5.26865e-24)
(-0.0016403 0.00124955 -7.31747e-24)
(-0.00159232 0.00111638 2.41825e-24)
(-0.00154098 0.000997476 7.27265e-25)
(-0.0014863 0.000891506 -4.16357e-24)
(-0.00142835 0.000797144 4.21361e-24)
(-0.00136724 0.000713096 -7.18743e-24)
(-0.00130311 0.000638128 1.9642e-24)
(-0.00123614 0.000571074 1.10019e-23)
(-0.00116652 0.000510859 -3.20025e-24)
(-0.00109447 0.000456502 5.17873e-25)
(-0.0010202 0.000407122 1.70593e-23)
(-0.000943934 0.000361939 1.10792e-23)
(-0.000865869 0.000320264 -1.24397e-23)
(-0.00410417 0.024158 2.23672e-23)
(-0.00351732 0.0241633 2.12009e-23)
(-0.00512269 0.0240031 2.48157e-23)
(-0.00468841 0.0241527 1.15176e-23)
(-0.00103096 0.000534867 -7.50019e-24)
(-0.00112287 0.000575144 6.37745e-24)
(-0.00121559 0.000618799 4.3274e-25)
(-0.00130925 0.00066652 -2.06949e-23)
(-0.00140399 0.000719086 -1.07014e-23)
(-0.00149995 0.000777378 -6.21084e-24)
(-0.00159726 0.000842374 2.69575e-24)
(-0.00169606 0.000915152 1.02955e-23)
(-0.00179644 0.000996874 2.45381e-24)
(-0.0018985 0.00108878 -9.68441e-24)
(-0.00200226 0.00119215 -1.25679e-23)
(-0.00210773 0.00130833 1.27466e-24)
(-0.00221489 0.00143864 -1.50394e-24)
(-0.00232365 0.00158443 -5.93941e-25)
(-0.00243388 0.00174697 3.90369e-25)
(-0.00254543 0.00192752 -3.60951e-24)
(-0.00265807 0.00212722 3.03789e-24)
(-0.00277156 0.00234712 4.41384e-24)
(-0.0028856 0.00258814 4.07613e-24)
(-0.00299987 0.00285104 4.32401e-24)
(-0.00311402 0.00313642 5.01355e-24)
(-0.00322767 0.00344473 8.52766e-24)
(-0.00334042 0.00377618 4.5723e-24)
(-0.00345187 0.00413083 -6.71095e-25)
(-0.00356162 0.00450852 3.30382e-24)
(-0.00366926 0.00490887 1.25845e-24)
(-0.00377439 0.00533135 -1.60016e-24)
(-0.00387665 0.00577521 1.85099e-23)
(-0.00397567 0.00623953 1.79716e-23)
(-0.00407114 0.00672324 1.17494e-23)
(-0.00416278 0.0072251 -1.45179e-23)
(-0.00425032 0.00774377 -1.05257e-23)
(-0.00433358 0.00827781 -1.29573e-23)
(-0.00441239 0.00882569 -4.09985e-23)
(-0.00448665 0.00938583 -3.01537e-23)
(-0.0045563 0.00995665 1.34658e-23)
(-0.00462133 0.0105365 1.62264e-23)
(-0.00468178 0.0111239 -3.54224e-23)
(-0.00473774 0.0117173 -4.56874e-23)
(-0.00478933 0.0123152 -2.43172e-23)
(-0.00483672 0.0129162 -1.76568e-23)
(-0.00488013 0.0135193 7.34904e-24)
(-0.00491978 0.0141231 1.74078e-23)
(-0.00495592 0.0147268 6.31852e-24)
(-0.00498885 0.0153296 6.35602e-23)
(-0.00501885 0.0159307 1.58222e-23)
(-0.00504621 0.0165298 4.75583e-23)
(-0.00507124 0.0171265 7.70944e-23)
(-0.00509423 0.0177205 -1.21211e-25)
(-0.00511545 0.0183119 -1.27467e-23)
(-0.00513516 0.0189008 -1.31979e-23)
(-0.00515362 0.0194874 -3.79968e-23)
(-0.00517103 0.020072 -5.48327e-23)
(-0.00518756 0.0206551 -4.20974e-23)
(-0.00520336 0.0212371 6.26322e-23)
(-0.00521851 0.0218187 6.79462e-23)
(-0.005233 0.0224002 -2.33459e-23)
(-0.0052468 0.0229821 -2.69991e-23)
(-0.00525956 0.0235646 -2.52197e-23)
(-0.00198352 0.019953 0)
(-0.00513808 0.0237089 0)
(-0.00508776 0.0235135 0)
(-0.00501139 0.023309 0)
(-0.00491867 0.0230913 0)
(-0.00479889 0.0228622 0)
(-0.00464965 0.0226227 0)
(-0.004469 0.0223728 0)
(-0.00426976 0.0221125 0)
(-0.00401606 0.0218414 0)
(-0.0037583 0.0215588 0)
(-0.00347728 0.0212645 0)
(-0.00312397 0.0209574 0)
(-0.00279432 0.0206368 0)
(-0.00244156 0.0203025 0)
(-0.000193405 0.000424885 0)
(-0.000244621 0.000488116 0)
(-0.000301256 0.000553628 0)
(-0.000361274 0.000622253 0)
(-0.000422881 0.000695395 0)
(-0.000484886 0.000773868 0)
(-0.00054642 0.000858058 0)
(-0.000607717 0.00094869 0)
(-0.000668829 0.00104657 0)
(-0.000729932 0.0011525 0)
(-0.000791531 0.00126712 0)
(-0.000854299 0.00139106 0)
(-0.000918709 0.00152499 0)
(-0.000984647 0.00166977 0)
(-0.00105132 0.0018264 0)
(-0.00111767 0.0019958 0)
(-0.00118288 0.00217878 0)
(-0.00124679 0.00237599 0)
(-0.00130988 0.00258816 0)
(-0.00137349 0.0028158 0)
(-0.00143767 0.00306031 0)
(-0.00150182 0.00332237 0)
(-0.00156662 0.00360135 0)
(-0.00163166 0.00389777 0)
(-0.00169683 0.00421188 0)
(-0.00176191 0.00454378 0)
(-0.00182664 0.00489339 0)
(-0.00189088 0.00526052 0)
(-0.00195459 0.00564483 0)
(-0.00201766 0.00604586 0)
(-0.00207984 0.00646303 0)
(-0.00214043 0.00689564 0)
(-0.0021984 0.0073428 0)
(-0.00225314 0.00780362 0)
(-0.00230522 0.00827719 0)
(-0.00235612 0.00876192 0)
(-0.00240472 0.00925826 0)
(-0.0024506 0.00976559 0)
(-0.00249556 0.0102804 0)
(-0.00253897 0.0108011 0)
(-0.00258099 0.0113265 0)
(-0.00262217 0.0118551 0)
(-0.00266286 0.0123854 0)
(-0.00270285 0.0129159 0)
(-0.00274156 0.0134451 0)
(-0.00277773 0.0139712 0)
(-0.00280874 0.0144925 0)
(-0.0028301 0.0150073 0)
(-0.00283687 0.0155134 0)
(-0.0028264 0.0160086 0)
(-0.00280069 0.0164906 0)
(-0.00276616 0.0169568 0)
(-0.00272857 0.0174043 0)
(-0.00268877 0.0178304 0)
(-0.00264263 0.0182319 0)
(-0.00258378 0.0186055 0)
(-0.00250698 0.0189479 0)
(-0.00240876 0.0192563 0)
(-0.00228843 0.019528 0)
(-0.00214403 0.0197607 0)
(-0.000246849 0.0197868 0)
(-0.000681215 0.020161 0)
(-0.00101979 0.0205173 0)
(-0.00130536 0.0208573 0)
(-0.00162911 0.021182 0)
(-0.00191028 0.0214919 0)
(-0.00213207 0.0217881 0)
(-0.002359 0.0220715 0)
(-0.00255304 0.0223425 0)
(-0.00269874 0.0226017 0)
(-0.00282961 0.0228495 0)
(-0.00292656 0.0230858 0)
(-0.00298856 0.02331 0)
(-0.00302781 0.02352 0)
(-0.00302422 0.0237204 0)
(-2.05134e-05 0.000381765 0)
(-0.000777768 0.000280168 0)
(-0.000764418 0.00027896 0)
(-0.000744027 0.00027965 0)
(-0.000718576 0.000282048 0)
(-0.00068591 0.000286332 0)
(-0.00064675 0.000292413 0)
(-0.000602878 0.000299831 0)
(-0.000548234 0.000308723 0)
(-0.000489442 0.000318708 0)
(-0.000426097 0.00032928 0)
(-0.000353451 0.000340657 0)
(-0.000282115 0.000351535 0)
(-0.000201097 0.000362182 0)
(-0.000104103 0.000373152 0)
(-0.000353626 0.0195964 0)
(-0.000444742 0.0193649 0)
(-0.000517276 0.019094 0)
(-0.000573273 0.0187857 0)
(-0.000613918 0.018443 0)
(-0.000641836 0.018069 0)
(-0.000661505 0.0176668 0)
(-0.000678949 0.0172398 0)
(-0.000697796 0.0167913 0)
(-0.000716697 0.0163242 0)
(-0.00072977 0.0158413 0)
(-0.000730997 0.0153452 0)
(-0.000718883 0.0148383 0)
(-0.000696222 0.0143229 0)
(-0.00066786 0.0138011 0)
(-0.000638102 0.0132747 0)
(-0.000609516 0.0127455 0)
(-0.000583398 0.0122151 0)
(-0.00056046 0.0116851 0)
(-0.000540995 0.011157 0)
(-0.000524751 0.0106324 0)
(-0.000511199 0.0101126 0)
(-0.000500166 0.00959904 0)
(-0.000492202 0.00909308 0)
(-0.000485352 0.00859828 0)
(-0.000479872 0.00811523 0)
(-0.000476809 0.00764352 0)
(-0.000474508 0.00718468 0)
(-0.000472085 0.0067396 0)
(-0.000469803 0.00630918 0)
(-0.000468353 0.0058943 0)
(-0.000468046 0.00549565 0)
(-0.000468749 0.00511376 0)
(-0.000470128 0.00474907 0)
(-0.000471802 0.00440188 0)
(-0.000473472 0.00407234 0)
(-0.000474973 0.00376051 0)
(-0.000476123 0.00346626 0)
(-0.00047664 0.00318934 0)
(-0.000476643 0.00292922 0)
(-0.000474844 0.00268657 0)
(-0.000471505 0.00246082 0)
(-0.000466551 0.00225063 0)
(-0.000458379 0.00205548 0)
(-0.000446289 0.00187465 0)
(-0.000430352 0.00170746 0)
(-0.000411339 0.00155316 0)
(-0.000390341 0.0014109 0)
(-0.000368156 0.00127983 0)
(-0.000344899 0.00115916 0)
(-0.000320125 0.00104816 0)
(-0.000293241 0.000946166 0)
(-0.000263874 0.000852524 0)
(-0.000232044 0.000766568 0)
(-0.000197959 0.00068766 0)
(-0.000161629 0.000615235 0)
(-0.000123955 0.000548991 0)
(-8.61647e-05 0.000488458 0)
(-5.01806e-05 0.000432948 0)
(-0.000149864 0.000422984 0)
(-0.00025526 0.000411509 0)
(-0.000336074 0.00040088 0)
(-0.000410826 0.000389224 0)
(-0.000490933 0.000376733 0)
(-0.000556072 0.000365606 0)
(-0.000616887 0.00035453 0)
(-0.00067641 0.00034436 0)
(-0.000720914 0.000336071 0)
(-0.000762852 0.000328768 0)
(-0.000797426 0.000323554 0)
(-0.000823159 0.000320053 0)
(-0.000843957 0.000318566 0)
(-0.000856997 0.000319012 0)
(-0.000199237 0.000477645 0)
(-0.000307543 0.000465939 0)
(-0.000388149 0.000454854 0)
(-0.000471202 0.000441959 0)
(-0.000555174 0.000428615 0)
(-0.000621106 0.000416509 0)
(-0.000687211 0.000403997 0)
(-0.000748345 0.000392686 0)
(-0.000794589 0.000383132 0)
(-0.000839194 0.000374516 0)
(-0.000874394 0.000368045 0)
(-0.000901055 0.000363412 0)
(-0.00092204 0.000360937 0)
(-0.000934643 0.00036075 0)
(-0.000248596 0.000537281 0)
(-0.000357687 0.000525494 0)
(-0.000440262 0.000513658 0)
(-0.000531574 0.000499403 0)
(-0.00061835 0.00048511 0)
(-0.00068582 0.000471692 0)
(-0.000756902 0.000457712 0)
(-0.000819474 0.000445164 0)
(-0.000866888 0.000434063 0)
(-0.000914112 0.000423987 0)
(-0.000949741 0.000416212 0)
(-0.00097697 0.00041028 0)
(-0.000998329 0.000406875 0)
(-0.00101091 0.000406106 0)
(-0.000296531 0.000602753 0)
(-0.00040628 0.000590581 0)
(-0.000491856 0.000577733 0)
(-0.000591406 0.000562087 0)
(-0.000681124 0.000546821 0)
(-0.000749798 0.000531967 0)
(-0.000825193 0.000516273 0)
(-0.000889777 0.000502218 0)
(-0.000937641 0.000489614 0)
(-0.000986879 0.00047787 0)
(-0.0010235 0.000468645 0)
(-0.00105094 0.000461466 0)
(-0.00107266 0.000457056 0)
(-0.00108521 0.00045569 0)
(-0.000342635 0.000674259 0)
(-0.000453753 0.000661553 0)
(-0.000542486 0.000647588 0)
(-0.000650164 0.000630459 0)
(-0.000743108 0.000614003 0)
(-0.000812248 0.000597709 0)
(-0.000891502 0.000580305 0)
(-0.000958459 0.000564608 0)
(-0.00100678 0.000550341 0)
(-0.00105745 0.00053699 0)
(-0.00109501 0.000526177 0)
(-0.0011229 0.00051768 0)
(-0.00114482 0.000512271 0)
(-0.00115728 0.000510269 0)
(-0.000387223 0.000752238 0)
(-0.000500346 0.000738877 0)
(-0.000591575 0.000723784 0)
(-0.000706987 0.000705159 0)
(-0.00080375 0.000687339 0)
(-0.000872935 0.000669627 0)
(-0.000955235 0.000650522 0)
(-0.00102504 0.00063309 0)
(-0.00107402 0.000617116 0)
(-0.00112582 0.000602068 0)
(-0.00116415 0.000589673 0)
(-0.00119252 0.000579805 0)
(-0.00121471 0.00057336 0)
(-0.00122699 0.000570703 0)
(-0.000430168 0.000837256 0)
(-0.000546006 0.000823145 0)
(-0.00063885 0.000806971 0)
(-0.000761178 0.000786893 0)
(-0.000862539 0.000767586 0)
(-0.000932103 0.000748419 0)
(-0.00101649 0.000727761 0)
(-0.00108892 0.000708546 0)
(-0.00113919 0.0006908 0)
(-0.00119198 0.000674027 0)
(-0.00123092 0.000659976 0)
(-0.00125962 0.000648817 0)
(-0.00128201 0.000641299 0)
(-0.00129409 0.000637968 0)
(-0.000470981 0.000930011 0)
(-0.000590514 0.000915034 0)
(-0.000684473 0.000897839 0)
(-0.000812494 0.00087642 0)
(-0.000919033 0.000855497 0)
(-0.000989734 0.000834954 0)
(-0.0010759 0.000812839 0)
(-0.00115023 0.000791955 0)
(-0.00120178 0.000772441 0)
(-0.00125605 0.000754162 0)
(-0.00129542 0.000738372 0)
(-0.00132408 0.000725755 0)
(-0.0013465 0.000717149 0)
(-0.00135836 0.000713134 0)
(-0.000509123 0.00103125 0)
(-0.000633457 0.00101533 0)
(-0.000728672 0.000997179 0)
(-0.00086139 0.000974917 0)
(-0.000972804 0.000952418 0)
(-0.00104526 0.000930223 0)
(-0.00113355 0.000906683 0)
(-0.00120938 0.000884228 0)
(-0.00126167 0.000863033 0)
(-0.00131729 0.000843128 0)
(-0.00135712 0.000825709 0)
(-0.00138573 0.000811701 0)
(-0.00140807 0.00080203 0)
(-0.00141963 0.000797351 0)
(-0.00054431 0.00114173 0)
(-0.000674087 0.00112484 0)
(-0.000771294 0.00110574 0)
(-0.000908247 0.00108266 0)
(-0.00102344 0.00105891 0)
(-0.00109795 0.0010352 0)
(-0.00118894 0.0010103 0)
(-0.00126632 0.000986361 0)
(-0.00131896 0.000963572 0)
(-0.00137554 0.000942138 0)
(-0.00141573 0.000923167 0)
(-0.00144432 0.000907832 0)
(-0.00146655 0.000897147 0)
(-0.00147776 0.000891845 0)
(-0.000576742 0.0012622 0)
(-0.000711803 0.00124444 0)
(-0.000811795 0.00122435 0)
(-0.000953198 0.0012006 0)
(-0.00107143 0.00117589 0)
(-0.00114755 0.00115088 0)
(-0.00124145 0.00112478 0)
(-0.0013206 0.00109945 0)
(-0.00137357 0.00107518 0)
(-0.00143091 0.00105235 0)
(-0.00147127 0.00103195 0)
(-0.00149977 0.00101538 0)
(-0.00152184 0.00100376 0)
(-0.00153265 0.000997895 0)
(-0.000607116 0.00139341 0)
(-0.000746735 0.00137499 0)
(-0.000849722 0.00135395 0)
(-0.000996488 0.00132958 0)
(-0.00111743 0.00130433 0)
(-0.00119456 0.00127826 0)
(-0.00129098 0.00125118 0)
(-0.00137181 0.00122464 0)
(-0.00142518 0.00119903 0)
(-0.00148326 0.00117495 0)
(-0.0015237 0.00115328 0)
(-0.00155201 0.00113562 0)
(-0.00157388 0.00112316 0)
(-0.00158424 0.00111682 0)
(-0.000636041 0.00153615 0)
(-0.000779447 0.00151743 0)
(-0.000885124 0.00149606 0)
(-0.0010374 0.00147126 0)
(-0.00116126 0.00144533 0)
(-0.0012393 0.00141838 0)
(-0.00133778 0.00139058 0)
(-0.00141997 0.00136305 0)
(-0.00147363 0.00133629 0)
(-0.00153243 0.00131117 0)
(-0.00157291 0.0012884 0)
(-0.00160099 0.00126981 0)
(-0.00162261 0.00125667 0)
(-0.00163248 0.00124994 0)
(-0.0006633 0.00169123 0)
(-0.000810125 0.00167246 0)
(-0.000918093 0.00165081 0)
(-0.00107527 0.0016261 0)
(-0.00120239 0.00159986 0)
(-0.00128149 0.00157228 0)
(-0.00138191 0.00154404 0)
(-0.00146529 0.00151577 0)
(-0.00151915 0.00148811 0)
(-0.00157856 0.00146219 0)
(-0.00161897 0.00143856 0)
(-0.00164674 0.00141924 0)
(-0.00166804 0.00140556 0)
(-0.0016774 0.00139858 0)
(-0.000688014 0.00185951 0)
(-0.00083839 0.0018408 0)
(-0.000948855 0.00181906 0)
(-0.00111051 0.00179512 0)
(-0.00124074 0.00176893 0)
(-0.00132088 0.00174102 0)
(-0.00142327 0.00171263 0)
(-0.0015079 0.0016839 0)
(-0.00156192 0.00165563 0)
(-0.00162179 0.00162918 0)
(-0.001662 0.00160495 0)
(-0.00168935 0.00158515 0)
(-0.00171025 0.00157113 0)
(-0.00171905 0.00156403 0)
(-0.000709419 0.0020419 0)
(-0.000864073 0.00202409 0)
(-0.000977425 0.00200256 0)
(-0.00114345 0.00197932 0)
(-0.00127651 0.0019535 0)
(-0.00135753 0.0019256 0)
(-0.00146194 0.0018974 0)
(-0.00154784 0.00186854 0)
(-0.00160192 0.00183992 0)
(-0.00166215 0.00181323 0)
(-0.00170206 0.00178874 0)
(-0.00172892 0.00176873 0)
(-0.00174934 0.00175458 0)
(-0.00175753 0.00174751 0)
(-0.000727151 0.00223902 0)
(-0.000886775 0.00222219 0)
(-0.00100323 0.00220149 0)
(-0.00117393 0.00217953 0)
(-0.00130972 0.00215447 0)
(-0.00139163 0.00212697 0)
(-0.00149805 0.00209936 0)
(-0.00158512 0.00207072 0)
(-0.00163909 0.00204194 0)
(-0.00169973 0.00201527 0)
(-0.00173922 0.00199107 0)
(-0.00176553 0.00197111 0)
(-0.00178544 0.00195705 0)
(-0.001793 0.00195017 0)
(-0.00074129 0.0024514 0)
(-0.000906407 0.00243588 0)
(-0.00102611 0.0024168 0)
(-0.0012016 0.00239657 0)
(-0.00134023 0.0023727 0)
(-0.00142317 0.00234602 0)
(-0.00153163 0.00231941 0)
(-0.00161977 0.00229152 0)
(-0.00167363 0.00226359 0)
(-0.00173456 0.00223711 0)
(-0.00177353 0.00221299 0)
(-0.00179927 0.00219331 0)
(-0.00181868 0.00217956 0)
(-0.00182564 0.00217305 0)
(-0.000753175 0.00268063 0)
(-0.000923477 0.00266687 0)
(-0.00104623 0.00264935 0)
(-0.00122645 0.00263121 0)
(-0.00136807 0.00260893 0)
(-0.00145223 0.00258351 0)
(-0.00156273 0.00255834 0)
(-0.00165191 0.00253158 0)
(-0.00170563 0.00250455 0)
(-0.00176668 0.00247886 0)
(-0.00180522 0.00245532 0)
(-0.00183039 0.00243622 0)
(-0.0018493 0.00242303 0)
(-0.00185568 0.00241707 0)
(-0.000764311 0.00292623 0)
(-0.000938591 0.00291506 0)
(-0.00106403 0.00289968 0)
(-0.00124891 0.00288406 0)
(-0.00139366 0.00286382 0)
(-0.00147913 0.0028401 0)
(-0.00159162 0.00281678 0)
(-0.00168175 0.00279153 0)
(-0.00173531 0.00276577 0)
(-0.00179645 0.00274133 0)
(-0.00183458 0.00271878 0)
(-0.00185917 0.00270059 0)
(-0.0018776 0.00268822 0)
(-0.0018834 0.00268298 0)
(-0.000773746 0.00318981 0)
(-0.000951877 0.00318113 0)
(-0.00107998 0.00316832 0)
(-0.00126959 0.00315565 0)
(-0.00141749 0.00313791 0)
(-0.00150415 0.00311635 0)
(-0.00161847 0.00309529 0)
(-0.00170949 0.00307195 0)
(-0.0017629 0.00304789 0)
(-0.00182416 0.00302513 0)
(-0.00186189 0.00300397 0)
(-0.00188594 0.00298703 0)
(-0.00190388 0.00297574 0)
(-0.00190908 0.00297141 0)
(-0.00078152 0.00347083 0)
(-0.000963615 0.00346537 0)
(-0.00109457 0.00345566 0)
(-0.00128892 0.0034464 0)
(-0.00143975 0.00343161 0)
(-0.00152739 0.00341266 0)
(-0.0016434 0.00339428 0)
(-0.00173532 0.00337328 0)
(-0.00178866 0.00335135 0)
(-0.00185008 0.0033307 0)
(-0.00188743 0.00331134 0)
(-0.00191097 0.00329598 0)
(-0.00192845 0.00328602 0)
(-0.00193305 0.00328277 0)
(-0.000788292 0.00376971 0)
(-0.000974319 0.00376806 0)
(-0.00110812 0.003762 0)
(-0.00130696 0.00375661 0)
(-0.00146042 0.00374523 0)
(-0.0015489 0.00372937 0)
(-0.00166662 0.00371405 0)
(-0.00175951 0.00369577 0)
(-0.0018129 0.00367639 0)
(-0.00187453 0.00365832 0)
(-0.00191151 0.00364116 0)
(-0.00193452 0.00362769 0)
(-0.00195158 0.00361931 0)
(-0.00195561 0.00361731 0)
(-0.000794444 0.00408668 0)
(-0.000984235 0.00408941 0)
(-0.00112068 0.00408753 0)
(-0.00132373 0.00408645 0)
(-0.00147966 0.00407895 0)
(-0.00156902 0.00406666 0)
(-0.00168852 0.00405483 0)
(-0.00178238 0.0040394 0)
(-0.00183602 0.00402296 0)
(-0.00189787 0.00400819 0)
(-0.00193448 0.00399356 0)
(-0.00195694 0.00398226 0)
(-0.00197358 0.00397568 0)
(-0.00197712 0.00397507 0)
(-0.000800093 0.0044218 0)
(-0.000993397 0.00442946 0)
(-0.00113233 0.00443229 0)
(-0.00133946 0.00443596 0)
(-0.00149785 0.00443281 0)
(-0.00158816 0.0044246 0)
(-0.00170947 0.00441685 0)
(-0.00180441 0.00440566 0)
(-0.00185836 0.0043923 0)
(-0.00192046 0.00438034 0)
(-0.00195672 0.00436845 0)
(-0.00197862 0.00435956 0)
(-0.00199484 0.00435498 0)
(-0.0019979 0.0043559 0)
(-0.000805362 0.00477503 0)
(-0.00100195 0.00478813 0)
(-0.00114329 0.00479619 0)
(-0.00135448 0.00480502 0)
(-0.00151531 0.00480667 0)
(-0.00160655 0.00480297 0)
(-0.00172968 0.00479964 0)
(-0.00182578 0.00479255 0)
(-0.00187995 0.00478292 0)
(-0.00194245 0.00477436 0)
(-0.0019785 0.00476553 0)
(-0.00199991 0.00475929 0)
(-0.00201571 0.00475689 0)
(-0.0020183 0.00475945 0)
(-0.00081059 0.00514616 0)
(-0.00101026 0.00516522 0)
(-0.00115392 0.00517898 0)
(-0.00136906 0.00519335 0)
(-0.00153227 0.00520018 0)
(-0.00162444 0.00520136 0)
(-0.00174944 0.00520264 0)
(-0.00184675 0.00519993 0)
(-0.00190115 0.00519455 0)
(-0.00196405 0.0051898 0)
(-0.002 0.0051843 0)
(-0.00202107 0.00518095 0)
(-0.00203648 0.00518088 0)
(-0.00203864 0.00518518 0)
(-0.000816268 0.00553487 0)
(-0.00101883 0.00556036 0)
(-0.00116467 0.00558028 0)
(-0.00138365 0.00560055 0)
(-0.00154918 0.00561294 0)
(-0.00164231 0.00561935 0)
(-0.00176904 0.00562514 0)
(-0.00186781 0.00562714 0)
(-0.00192236 0.00562675 0)
(-0.0019856 0.00562607 0)
(-0.00202152 0.00562415 0)
(-0.00204234 0.00562385 0)
(-0.00205744 0.00562624 0)
(-0.00205924 0.00563235 0)
(-0.000822874 0.00594071 0)
(-0.00102818 0.00597308 0)
(-0.00117608 0.00599958 0)
(-0.00139876 0.00602607 0)
(-0.0015665 0.00604441 0)
(-0.00166051 0.00605659 0)
(-0.00178893 0.0060684 0)
(-0.00188913 0.00607515 0)
(-0.00194386 0.00607899 0)
(-0.0020075 0.00608244 0)
(-0.0020434 0.00608425 0)
(-0.00206401 0.00608714 0)
(-0.00207889 0.00609209 0)
(-0.00208038 0.00610006 0)
(-0.000830657 0.00636311 0)
(-0.00103865 0.00640276 0)
(-0.0011885 0.00643622 0)
(-0.00141471 0.00646921 0)
(-0.00158449 0.00649379 0)
(-0.00167928 0.00651196 0)
(-0.00180947 0.00652944 0)
(-0.00191073 0.00654153 0)
(-0.00196579 0.00655019 0)
(-0.00202997 0.00655797 0)
(-0.0020659 0.00656364 0)
(-0.00208635 0.00656981 0)
(-0.00210109 0.00657739 0)
(-0.00210231 0.00658723 0)
(-0.000839363 0.00680134 0)
(-0.0010501 0.00684866 0)
(-0.00120191 0.00688943 0)
(-0.00143156 0.00692916 0)
(-0.00160329 0.00696018 0)
(-0.00169879 0.00698411 0)
(-0.00183106 0.00700746 0)
(-0.00193307 0.00702561 0)
(-0.00198839 0.00703934 0)
(-0.00205321 0.00705158 0)
(-0.00208923 0.00706121 0)
(-0.00210961 0.00707073 0)
(-0.00212428 0.00708095 0)
(-0.00212526 0.00709267 0)
(-0.000848321 0.00725457 0)
(-0.00106203 0.00730992 0)
(-0.00121602 0.00735829 0)
(-0.00144923 0.00740498 0)
(-0.00162301 0.00744284 0)
(-0.00171933 0.00747408 0)
(-0.00185363 0.00750334 0)
(-0.00195637 0.0075266 0)
(-0.00201193 0.00754536 0)
(-0.00207732 0.00756209 0)
(-0.0021135 0.00757572 0)
(-0.00213392 0.0075886 0)
(-0.0021486 0.00760147 0)
(-0.0021494 0.00761502 0)
(-0.00085723 0.00772184 0)
(-0.00107423 0.00778555 0)
(-0.00123069 0.0078418 0)
(-0.00146763 0.00789557 0)
(-0.00164352 0.00794003 0)
(-0.00174108 0.00797838 0)
(-0.00187698 0.00801432 0)
(-0.00198065 0.00804315 0)
(-0.00203644 0.008067 0)
(-0.00210238 0.00808821 0)
(-0.00213883 0.00810584 0)
(-0.00215941 0.00812205 0)
(-0.00217416 0.00813752 0)
(-0.00217484 0.00815286 0)
(-0.000866848 0.00820214 0)
(-0.00108719 0.00827451 0)
(-0.00124621 0.00833889 0)
(-0.00148681 0.00839971 0)
(-0.00166538 0.00845247 0)
(-0.00176405 0.00849821 0)
(-0.00190139 0.00853966 0)
(-0.00200595 0.00857397 0)
(-0.00206197 0.00860289 0)
(-0.00212854 0.00862856 0)
(-0.00216535 0.00865015 0)
(-0.00218614 0.00866964 0)
(-0.00220104 0.00868763 0)
(-0.00220168 0.00870467 0)
(-0.000878238 0.00869437 0)
(-0.00110154 0.00877572 0)
(-0.00126288 0.00884835 0)
(-0.00150782 0.00891803 0)
(-0.00168881 0.00897881 0)
(-0.00178813 0.00903075 0)
(-0.00192697 0.00907793 0)
(-0.00203237 0.0091177 0)
(-0.00208869 0.00915166 0)
(-0.00215597 0.00918172 0)
(-0.00219313 0.00920718 0)
(-0.00221414 0.00922985 0)
(-0.00222927 0.00925024 0)
(-0.00222996 0.00926889 0)
(-0.000891446 0.00919715 0)
(-0.00111755 0.0092879 0)
(-0.00128135 0.00937085 0)
(-0.00153054 0.00944891 0)
(-0.00171331 0.0095163 0)
(-0.00181336 0.00957472 0)
(-0.00195372 0.00962767 0)
(-0.00206004 0.00967289 0)
(-0.00211672 0.00971184 0)
(-0.00218469 0.0097462 0)
(-0.00222219 0.00977543 0)
(-0.00224345 0.00980113 0)
(-0.00225888 0.0098238 0)
(-0.00225968 0.00984392 0)
(-0.000906125 0.0097133 0)
(-0.00113531 0.00981361 0)
(-0.00130171 0.00990463 0)
(-0.00155423 0.00998942 0)
(-0.00173897 0.0100637 0)
(-0.00183988 0.0101287 0)
(-0.0019818 0.0101874 0)
(-0.00208904 0.0102381 0)
(-0.00214605 0.010282 0)
(-0.00221466 0.0103205 0)
(-0.0022525 0.0103534 0)
(-0.00227409 0.0103819 0)
(-0.00228986 0.0104067 0)
(-0.0022908 0.0104282 0)
(-0.000923062 0.0102367 0)
(-0.00115501 0.0103466 0)
(-0.00132359 0.0104461 0)
(-0.00157952 0.0105382 0)
(-0.00176617 0.0106196 0)
(-0.00186783 0.0106913 0)
(-0.00201119 0.0107558 0)
(-0.00211925 0.0108119 0)
(-0.00217657 0.0108606 0)
(-0.00224584 0.0109032 0)
(-0.00228409 0.0109395 0)
(-0.00230603 0.0109707 0)
(-0.00232215 0.0109975 0)
(-0.00232322 0.0110201 0)
(-0.0009421 0.0107663 0)
(-0.00117659 0.0108858 0)
(-0.00134726 0.0109942 0)
(-0.00160645 0.0110939 0)
(-0.00179478 0.0111825 0)
(-0.00189701 0.011261 0)
(-0.00204172 0.0113314 0)
(-0.00215058 0.0113928 0)
(-0.00220826 0.0114462 0)
(-0.00227825 0.0114927 0)
(-0.00231691 0.0115323 0)
(-0.00233918 0.0115661 0)
(-0.00235561 0.0115945 0)
(-0.0023568 0.0116181 0)
(-0.000963359 0.0113009 0)
(-0.00120007 0.0114303 0)
(-0.0013726 0.0115477 0)
(-0.00163481 0.0116552 0)
(-0.00182462 0.0117512 0)
(-0.00192735 0.0118365 0)
(-0.0020734 0.0119128 0)
(-0.00218306 0.0119795 0)
(-0.00224108 0.0120375 0)
(-0.00231173 0.0120877 0)
(-0.00235076 0.0121304 0)
(-0.00237331 0.0121665 0)
(-0.00239004 0.0121965 0)
(-0.00239136 0.0122209 0)
(-0.000987435 0.0118391 0)
(-0.00122598 0.0119785 0)
(-0.00140002 0.0121051 0)
(-0.00166488 0.0122207 0)
(-0.00185589 0.0123242 0)
(-0.00195894 0.0124165 0)
(-0.00210611 0.0124986 0)
(-0.00221639 0.0125706 0)
(-0.00227462 0.0126331 0)
(-0.00234585 0.0126869 0)
(-0.00238523 0.0127325 0)
(-0.00240812 0.0127706 0)
(-0.00242519 0.0128019 0)
(-0.00242669 0.0128269 0)
(-0.00101466 0.0123795 0)
(-0.00125461 0.0125292 0)
(-0.00142965 0.0126652 0)
(-0.00169658 0.012789 0)
(-0.00188822 0.0129003 0)
(-0.00199108 0.0129995 0)
(-0.00213899 0.0130876 0)
(-0.00224969 0.0131648 0)
(-0.00230811 0.0132317 0)
(-0.00238004 0.013289 0)
(-0.00241993 0.0133373 0)
(-0.00244329 0.0133773 0)
(-0.00246081 0.0134096 0)
(-0.00246253 0.0134351 0)
(-0.00104451 0.0129206 0)
(-0.00128518 0.0130808 0)
(-0.00146038 0.0132264 0)
(-0.00172845 0.0133587 0)
(-0.00191992 0.0134779 0)
(-0.00202212 0.0135843 0)
(-0.00217065 0.0136784 0)
(-0.00228194 0.0137609 0)
(-0.00234092 0.0138322 0)
(-0.0024139 0.0138929 0)
(-0.00245459 0.0139436 0)
(-0.00247861 0.0139853 0)
(-0.00249666 0.0140186 0)
(-0.00249864 0.0140443 0)
(-0.00107573 0.0134609 0)
(-0.00131585 0.0136318 0)
(-0.00148989 0.0137874 0)
(-0.00175799 0.0139284 0)
(-0.00194875 0.0140557 0)
(-0.00205043 0.0141694 0)
(-0.00220021 0.0142698 0)
(-0.00231288 0.0143576 0)
(-0.00237309 0.0144333 0)
(-0.00244751 0.0144973 0)
(-0.00248917 0.0145506 0)
(-0.0025139 0.0145937 0)
(-0.00253249 0.0146277 0)
(-0.00253472 0.0146534 0)
(-0.00110618 0.0139987 0)
(-0.00134376 0.0141806 0)
(-0.00151516 0.0143465 0)
(-0.00178272 0.0144966 0)
(-0.00197336 0.0146324 0)
(-0.00207592 0.0147537 0)
(-0.00222835 0.0148606 0)
(-0.00234334 0.0149539 0)
(-0.00240512 0.0150341 0)
(-0.00248097 0.0151015 0)
(-0.00252351 0.0151571 0)
(-0.0025489 0.0152016 0)
(-0.00256801 0.0152361 0)
(-0.00257049 0.0152617 0)
(-0.00113246 0.0145323 0)
(-0.00136548 0.0147256 0)
(-0.00153376 0.014902 0)
(-0.00180205 0.0150618 0)
(-0.00199497 0.0152064 0)
(-0.00210057 0.0153357 0)
(-0.00225663 0.0154494 0)
(-0.0023738 0.0155486 0)
(-0.00243668 0.0156336 0)
(-0.00251369 0.0157045 0)
(-0.00255708 0.0157625 0)
(-0.0025832 0.0158083 0)
(-0.0026029 0.0158432 0)
(-0.00260566 0.0158686 0)
(-0.00115045 0.0150598 0)
(-0.00137852 0.0152649 0)
(-0.00154591 0.0154523 0)
(-0.00181868 0.0156222 0)
(-0.00201676 0.0157762 0)
(-0.00212598 0.015914 0)
(-0.0022845 0.0160351 0)
(-0.00240268 0.0161406 0)
(-0.00246648 0.0162307 0)
(-0.00254497 0.0163054 0)
(-0.00258958 0.016366 0)
(-0.00261659 0.0164132 0)
(-0.00263691 0.0164484 0)
(-0.00263992 0.0164734 0)
(-0.00115747 0.0155792 0)
(-0.00138374 0.0157964 0)
(-0.00155568 0.0159954 0)
(-0.00183655 0.016176 0)
(-0.00203944 0.0163401 0)
(-0.00214961 0.0164871 0)
(-0.00230885 0.0166162 0)
(-0.0024287 0.0167287 0)
(-0.00249476 0.0168245 0)
(-0.00257545 0.0169035 0)
(-0.00262129 0.016967 0)
(-0.00264902 0.0170157 0)
(-0.00266981 0.0170514 0)
(-0.00267302 0.0170759 0)
(-0.00115474 0.0160883 0)
(-0.00138627 0.0163181 0)
(-0.00156742 0.0165292 0)
(-0.001855 0.0167213 0)
(-0.00205823 0.0168961 0)
(-0.0021675 0.017053 0)
(-0.00233002 0.0171912 0)
(-0.00245429 0.0173116 0)
(-0.00252312 0.0174139 0)
(-0.00260518 0.017498 0)
(-0.0026516 0.0175649 0)
(-0.00267994 0.0176156 0)
(-0.00270125 0.0176518 0)
(-0.00270467 0.0176759 0)
(-0.00114798 0.0165846 0)
(-0.00139088 0.0168275 0)
(-0.00157943 0.0170514 0)
(-0.00186747 0.0172556 0)
(-0.00206914 0.017442 0)
(-0.00218258 0.01761 0)
(-0.00235249 0.0177583 0)
(-0.00248035 0.0178877 0)
(-0.00254957 0.0179977 0)
(-0.00263202 0.0180879 0)
(-0.00267961 0.0181592 0)
(-0.00270916 0.0182124 0)
(-0.00273105 0.0182494 0)
(-0.00273465 0.0182732 0)
(-0.00114261 0.0170655 0)
(-0.00139593 0.0173219 0)
(-0.00158426 0.017559 0)
(-0.00186994 0.0177762 0)
(-0.00207713 0.0179753 0)
(-0.0022002 0.0181553 0)
(-0.00237476 0.0183151 0)
(-0.0025022 0.018455 0)
(-0.00257128 0.0185742 0)
(-0.00265648 0.0186721 0)
(-0.0027069 0.0187491 0)
(-0.00273719 0.0188059 0)
(-0.0027591 0.0188444 0)
(-0.00276278 0.0188679 0)
(-0.00113845 0.017528 0)
(-0.00139426 0.0177982 0)
(-0.00157707 0.018049 0)
(-0.00186765 0.01828 0)
(-0.00208761 0.0184927 0)
(-0.00221688 0.0186861 0)
(-0.00239092 0.0188589 0)
(-0.00251806 0.0190111 0)
(-0.00259159 0.0191415 0)
(-0.00268259 0.019249 0)
(-0.00273348 0.0193337 0)
(-0.00276267 0.0193955 0)
(-0.00278493 0.0194365 0)
(-0.00278894 0.0194603 0)
(-0.00112995 0.017969 0)
(-0.00137957 0.018253 0)
(-0.00156123 0.0185178 0)
(-0.00186608 0.0187633 0)
(-0.00209759 0.0189906 0)
(-0.00222699 0.0191986 0)
(-0.00239954 0.0193859 0)
(-0.00253253 0.0195524 0)
(-0.00261586 0.0196964 0)
(-0.00270722 0.0198163 0)
(-0.00275475 0.0199112 0)
(-0.00278535 0.0199806 0)
(-0.00280916 0.0200257 0)
(-0.00281302 0.0200505 0)
(-0.0011101 0.0183849 0)
(-0.00135182 0.0186826 0)
(-0.00154191 0.0189616 0)
(-0.00186512 0.019222 0)