/*--------------------------------*- C++ -*----------------------------------*\
| =========                 |                                                 |
| \\      /  F ield         | OpenFOAM Extend Project: Open source CFD        |
|  \\    /   O peration     | Version:  1.6-ext                               |
|   \\  /    A nd           | Web:      www.extend-project.de                 |
|    \\/     M anipulation  |                                                 |
\*---------------------------------------------------------------------------*/
FoamFile
{
    version     2.0;
    format      ascii;
    class       volScalarField;
    location    "0.9";
    object      p;
}
// * * * * * * * * * * * * * * * * * * * * * * * * * * * * * * * * * * * * * //

dimensions      [0 2 -2 0 0 0 0];

internalField   nonuniform List<scalar> 
20940
(
-0.146265
-0.189071
-0.234013
-0.281354
-0.330541
-0.381639
-0.434145
-0.487584
-0.541103
-0.593599
-0.643729
-0.690111
-0.731571
-0.767384
-0.797399
-0.822013
-0.842019
-0.858394
-0.87204
-0.883717
-0.894927
-0.906829
-0.174296
-0.215909
-0.259833
-0.305546
-0.352819
-0.401486
-0.451016
-0.500806
-0.549924
-0.59726
-0.641597
-0.681839
-0.717217
-0.74744
-0.772708
-0.793609
-0.810944
-0.825559
-0.838146
-0.849231
-0.860065
-0.871614
-0.198719
-0.238919
-0.281536
-0.32537
-0.370466
-0.416419
-0.462671
-0.508503
-0.552959
-0.594992
-0.633598
-0.668018
-0.697881
-0.723251
-0.744562
-0.762473
-0.777711
-0.790948
-0.802671
-0.813201
-0.823561
-0.834541
-0.221782
-0.260363
-0.301408
-0.3431
-0.385722
-0.428629
-0.471246
-0.512773
-0.552293
-0.588913
-0.621911
-0.650886
-0.675818
-0.697029
-0.715068
-0.730566
-0.744119
-0.75622
-0.767172
-0.777137
-0.786946
-0.797266
-0.243158
-0.280026
-0.319341
-0.358732
-0.398681
-0.438309
-0.477045
-0.514059
-0.548557
-0.579873
-0.607608
-0.631696
-0.652386
-0.670149
-0.685546
-0.699114
-0.711298
-0.722423
-0.732645
-0.742008
-0.751194
-0.760779
-0.263127
-0.298223
-0.335674
-0.372616
-0.409696
-0.445827
-0.480489
-0.512892
-0.542446
-0.568762
-0.591756
-0.611634
-0.628811
-0.6438
-0.657099
-0.669121
-0.68016
-0.690404
-0.699903
-0.708617
-0.717109
-0.725894
-0.28184
-0.315112
-0.350581
-0.384948
-0.419001
-0.451486
-0.48199
-0.509843
-0.534714
-0.556503
-0.575395
-0.591774
-0.606121
-0.618911
-0.630541
-0.64129
-0.65133
-0.66074
-0.669498
-0.677517
-0.685262
-0.693201
-0.299563
-0.331056
-0.364475
-0.396162
-0.427041
-0.455765
-0.482109
-0.50559
-0.526166
-0.543991
-0.55944
-0.57298
-0.585077
-0.596121
-0.606391
-0.616053
-0.625179
-0.633774
-0.641772
-0.64906
-0.656024
-0.663093
-0.316243
-0.345902
-0.377152
-0.406068
-0.433704
-0.4587
-0.481068
-0.500546
-0.517361
-0.531859
-0.544517
-0.555806
-0.566124
-0.575761
-0.584891
-0.593588
-0.601852
-0.609643
-0.616871
-0.623412
-0.629583
-0.635783
-0.332204
-0.36015
-0.3892
-0.415276
-0.439605
-0.460929
-0.479541
-0.495416
-0.508997
-0.520739
-0.531145
-0.540631
-0.54951
-0.557971
-0.566101
-0.573908
-0.581345
-0.588344
-0.594804
-0.600601
-0.60599
-0.611343
-0.34691
-0.37297
-0.399653
-0.422916
-0.444085
-0.462069
-0.477407
-0.490269
-0.501234
-0.510799
-0.519436
-0.527492
-0.535192
-0.542647
-0.549883
-0.556861
-0.563509
-0.569741
-0.575456
-0.580534
-0.585176
-0.589724
-0.361088
-0.385478
-0.409878
-0.430347
-0.448421
-0.463278
-0.475675
-0.485943
-0.494719
-0.502488
-0.509659
-0.516502
-0.523167
-0.529706
-0.536102
-0.542287
-0.548173
-0.553666
-0.558668
-0.563064
-0.567009
-0.570813
-0.372749
-0.395261
-0.417136
-0.435206
-0.450703
-0.463151
-0.473343
-0.481715
-0.488894
-0.495333
-0.501379
-0.507245
-0.513033
-0.518761
-0.524388
-0.529836
-0.535009
-0.539814
-0.544154
-0.547927
-0.551243
-0.55438
-0.385122
-0.405871
-0.425539
-0.441218
-0.454207
-0.464381
-0.472545
-0.479212
-0.48496
-0.490193
-0.495195
-0.500128
-0.505054
-0.50997
-0.514821
-0.519525
-0.523984
-0.528106
-0.531802
-0.534978
-0.537711
-0.540254
-0.390041
-0.410717
-0.427632
-0.442032
-0.453531
-0.462604
-0.469783
-0.475617
-0.480605
-0.48512
-0.48942
-0.493653
-0.497884
-0.502115
-0.5063
-0.510366
-0.514222
-0.517779
-0.52095
-0.523646
-0.525914
-0.527968
-0.405071
-0.422563
-0.436646
-0.448663
-0.457909
-0.465083
-0.470668
-0.4752
-0.479108
-0.482696
-0.486164
-0.489617
-0.493094
-0.496584
-0.500042
-0.503397
-0.506571
-0.509482
-0.512059
-0.514228
-0.516013
-0.517587
-0.425563
-0.43918
-0.448539
-0.456767
-0.462873
-0.467829
-0.471852
-0.475324
-0.478461
-0.481424
-0.484308
-0.487161
-0.489994
-0.49279
-0.495513
-0.49811
-0.500523
-0.502697
-0.504582
-0.506135
-0.507386
-0.508467
-0.435052
-0.446781
-0.453488
-0.460058
-0.464695
-0.468664
-0.471898
-0.474742
-0.477312
-0.479728
-0.482053
-0.484325
-0.486554
-0.48873
-0.490826
-0.492804
-0.494622
-0.496236
-0.497613
-0.498723
-0.499588
-0.500299
-0.441952
-0.452074
-0.456779
-0.462118
-0.465652
-0.468873
-0.471489
-0.473828
-0.475932
-0.477892
-0.47975
-0.481534
-0.483255
-0.484907
-0.486472
-0.487924
-0.489234
-0.490371
-0.491312
-0.492041
-0.492572
-0.492964
-0.445801
-0.454475
-0.458086
-0.462615
-0.465517
-0.468255
-0.47046
-0.472425
-0.474164
-0.47575
-0.47722
-0.4786
-0.4799
-0.481122
-0.482255
-0.48328
-0.484178
-0.484926
-0.48551
-0.485921
-0.486164
-0.486272
-0.447711
-0.455044
-0.458178
-0.462078
-0.464609
-0.466992
-0.468905
-0.470586
-0.472046
-0.473345
-0.474516
-0.475581
-0.476555
-0.47744
-0.478231
-0.478916
-0.47948
-0.479909
-0.480192
-0.480328
-0.480305
-0.480139
-0.44799
-0.45417
-0.457196
-0.460638
-0.462989
-0.46514
-0.466875
-0.468371
-0.469645
-0.470749
-0.47171
-0.472551
-0.473287
-0.473923
-0.474455
-0.474877
-0.475177
-0.475344
-0.475374
-0.475268
-0.474996
-0.474555
-0.447021
-0.452332
-0.455419
-0.45857
-0.460866
-0.462899
-0.464553
-0.465956
-0.467132
-0.468123
-0.468958
-0.469657
-0.470234
-0.470695
-0.471039
-0.471262
-0.471356
-0.471312
-0.471127
-0.470808
-0.470303
-0.469593
-0.445196
-0.449937
-0.453148
-0.456164
-0.458496
-0.460513
-0.462171
-0.463561
-0.464715
-0.465668
-0.466447
-0.467071
-0.467554
-0.467902
-0.468117
-0.468196
-0.468134
-0.467922
-0.467562
-0.46706
-0.466347
-0.465385
-0.442944
-0.447381
-0.450738
-0.453746
-0.456177
-0.458255
-0.459982
-0.461424
-0.462614
-0.463584
-0.464361
-0.464963
-0.465402
-0.465687
-0.46582
-0.465802
-0.465627
-0.465292
-0.464797
-0.464152
-0.463267
-0.462092
-0.440705
-0.445041
-0.448554
-0.451639
-0.454208
-0.456398
-0.458233
-0.459767
-0.461032
-0.462058
-0.462869
-0.463484
-0.463917
-0.464176
-0.464266
-0.464189
-0.463944
-0.463529
-0.462947
-0.462207
-0.461208
-0.459885
-0.438762
-0.443136
-0.446807
-0.450017
-0.45274
-0.455068
-0.457034
-0.458682
-0.460045
-0.461151
-0.462022
-0.462678
-0.463132
-0.463395
-0.463473
-0.463372
-0.463096
-0.462646
-0.462031
-0.46126
-0.460226
-0.458855
-0.437459
-0.44195
-0.445772
-0.449127
-0.452002
-0.454472
-0.456571
-0.45834
-0.459811
-0.461011
-0.46196
-0.462676
-0.463174
-0.463463
-0.463555
-0.46346
-0.463185
-0.462741
-0.462143
-0.461407
-0.460436
-0.459154
-0.436617
-0.44124
-0.445182
-0.448658
-0.451657
-0.454247
-0.456462
-0.45834
-0.459912
-0.461204
-0.462234
-0.463019
-0.46357
-0.463899
-0.464017
-0.46394
-0.463684
-0.463271
-0.462731
-0.462097
-0.461313
-0.460311
-0.436758
-0.441521
-0.445614
-0.44924
-0.452391
-0.455128
-0.457491
-0.459519
-0.461244
-0.462692
-0.463879
-0.464817
-0.465511
-0.465962
-0.466171
-0.466145
-0.465897
-0.465455
-0.464866
-0.464205
-0.463538
-0.462943
1.2158
1.26666
1.31744
1.36806
1.41809
1.46712
1.51476
1.56062
1.6043
1.64541
1.68362
1.71857
1.74997
1.77759
1.80131
1.82119
1.83757
1.85114
1.86288
1.87402
1.88742
1.90498
1.20772
1.25826
1.30842
1.3584
1.40775
1.45607
1.50296
1.54804
1.59092
1.63122
1.66859
1.70269
1.73324
1.76002
1.7829
1.80198
1.81761
1.83055
1.84178
1.85259
1.86581
1.88331
1.18763
1.23748
1.28634
1.33508
1.38314
1.43011
1.47562
1.51927
1.56067
1.59947
1.63529
1.66783
1.69678
1.72195
1.74323
1.76075
1.77493
1.78659
1.79683
1.80694
1.8198
1.83716
1.15874
1.20753
1.25445
1.30126
1.34731
1.39218
1.43551
1.47691
1.51601
1.55243
1.58583
1.6159
1.64236
1.66501
1.68379
1.69888
1.7108
1.72048
1.72914
1.73818
1.75045
1.76756
1.12038
1.16777
1.21212
1.25643
1.29987
1.34201
1.38252
1.421
1.45709
1.49043
1.52068
1.54753
1.57071
1.59005
1.60553
1.61742
1.62633
1.63338
1.63993
1.64751
1.65896
1.67571
1.07428
1.1199
1.16111
1.20235
1.24259
1.28138
1.31842
1.35331
1.3857
1.41524
1.44159
1.46446
1.4836
1.49885
1.51025
1.51814
1.52332
1.52706
1.53096
1.5367
1.54709
1.56331
1.02138
1.06489
1.10246
1.14016
1.17669
1.21161
1.24463
1.27537
1.30348
1.3286
1.35042
1.36865
1.38304
1.39348
1.40007
1.40324
1.40396
1.40376
1.40447
1.40795
1.41699
1.43251
0.963427
1.00449
1.03799
1.07174
1.10411
1.13468
1.16319
1.18924
1.2125
1.23264
1.24932
1.26228
1.27128
1.27624
1.27731
1.27506
1.27064
1.26584
1.26281
1.26361
1.271
1.2856
0.901927
0.940209
0.969318
0.998806
1.02668
1.05257
1.07619
1.09718
1.11519
1.12989
1.14096
1.14814
1.15121
1.15009
1.14502
1.13668
1.12645
1.11642
1.10907
1.10672
1.11211
1.12551
0.838851
0.874059
0.898552
0.923526
0.946615
0.967484
0.985878
1.00142
1.01377
1.0226
1.0276
1.02851
1.02512
1.01739
1.00559
0.990552
0.973885
0.958014
0.945788
0.939843
0.942865
0.954738
0.775582
0.807379
0.827195
0.847585
0.865807
0.88158
0.894644
0.904615
0.911152
0.913926
0.912628
0.906982
0.896787
0.882015
0.863001
0.840711
0.816995
0.794639
0.776934
0.76685
0.767056
0.77701
0.714325
0.742422
0.75751
0.773152
0.786318
0.796782
0.804275
0.808407
0.808837
0.805237
0.797299
0.784748
0.767385
0.745198
0.718574
0.688609
0.657401
0.628116
0.604496
0.589894
0.586921
0.594541
0.65544
0.67949
0.690272
0.701434
0.709838
0.715292
0.717502
0.716065
0.710625
0.700838
0.686378
0.666954
0.64235
0.612548
0.57797
0.539832
0.500502
0.463577
0.43334
0.413604
0.406947
0.411768
0.602206
0.621237
0.627633
0.634082
0.637508
0.637703
0.634344
0.627024
0.615384
0.599076
0.577774
0.551192
0.519123
0.48157
0.439001
0.392759
0.34546
0.301085
0.264389
0.239585
0.229109
0.230654
0.552403
0.566331
0.569744
0.572135
0.571418
0.567241
0.559213
0.546905
0.529918
0.507865
0.480377
0.447118
0.407828
0.362459
0.31147
0.256288
0.199819
0.146606
0.102172
0.0714393
0.0568672
0.0551951
0.514666
0.516855
0.517288
0.515384
0.509712
0.500269
0.486592
0.468279
0.444937
0.416182
0.38165
0.341023
0.294086
0.240887
0.182068
0.119351
0.0560213
-0.00300428
-0.0519783
-0.0860005
-0.103152
-0.107477
0.474901
0.467455
0.462943
0.453838
0.440852
0.423756
0.402089
0.375534
0.343754
0.306436
0.263305
0.214163
0.158987
0.098144
0.0327393
-0.0349723
-0.101325
-0.161473
-0.210332
-0.244063
-0.262016
-0.26895
0.42759
0.41324
0.403946
0.388361
0.36917
0.345481
0.316988
0.283414
0.244464
0.199891
0.149501
0.0932118
0.0311837
-0.0359369
-0.106666
-0.17834
-0.247027
-0.307963
-0.356597
-0.389956
-0.408531
-0.417708
0.377475
0.357349
0.342846
0.321015
0.295841
0.265846
0.230977
0.190951
0.145527
0.0945144
0.0377944
-0.0245992
-0.0923151
-0.164415
-0.23904
-0.31317
-0.382712
-0.443121
-0.490487
-0.522738
-0.541373
-0.552109
0.325374
0.300176
0.280422
0.252837
0.222069
0.186256
0.145573
0.0997229
0.0485297
-0.00813379
-0.070297
-0.137781
-0.210006
-0.285712
-0.362675
-0.437599
-0.506385
-0.564897
-0.609996
-0.640523
-0.658806
-0.67062
0.27237
0.24275
0.217945
0.185208
0.14937
0.108391
0.0626209
0.01175
-0.0443271
-0.105673
-0.172211
-0.243597
-0.318999
-0.396833
-0.474561
-0.548731
-0.615403
-0.670996
-0.713191
-0.741669
-0.759376
-0.771935
0.219648
0.186217
0.156725
0.119484
0.0791781
0.0337552
-0.0163225
-0.0713576
-0.131385
-0.196394
-0.266189
-0.340233
-0.417431
-0.495899
-0.572864
-0.644853
-0.70825
-0.760133
-0.799005
-0.825262
-0.842265
-0.855321
0.168022
0.131385
0.0977015
0.0566559
0.0125644
-0.0365135
-0.0900586
-0.148348
-0.211345
-0.278956
-0.350842
-0.426261
-0.503855
-0.581482
-0.656239
-0.724783
-0.783961
-0.831574
-0.866895
-0.890891
-0.907137
-0.920517
0.11849
0.079241
0.0419511
-0.00218774
-0.0493441
-0.101272
-0.157432
-0.218058
-0.283041
-0.352185
-0.424994
-0.50051
-0.577129
-0.652521
-0.723777
-0.78783
-0.8421
-0.885123
-0.916848
-0.93865
-0.954148
-0.967721
0.0713739
0.0300989
-0.0101579
-0.0566637
-0.10613
-0.16008
-0.217984
-0.280013
-0.34598
-0.415573
-0.488124
-0.562459
-0.63677
-0.708634
-0.775266
-0.83401
-0.882921
-0.921241
-0.949463
-0.969211
-0.983996
-0.997657
0.0274582
-0.0152786
-0.0578415
-0.106015
-0.157058
-0.212248
-0.271069
-0.33362
-0.399625
-0.468638
-0.539808
-0.611766
-0.68256
-0.749782
-0.81091
-0.863797
-0.907158
-0.940858
-0.965794
-0.983679
-0.997806
-1.01146
-0.013621
-0.057294
-0.101507
-0.150666
-0.20256
-0.258214
-0.317133
-0.379327
-0.444419
-0.511817
-0.580493
-0.648916
-0.715079
-0.776713
-0.831677
-0.878399
-0.91623
-0.945539
-0.967473
-0.983704
-0.997214
-1.01075
-0.0510957
-0.0952015
-0.140434
-0.189957
-0.242047
-0.297479
-0.355772
-0.416834
-0.480173
-0.545041
-0.610249
-0.674163
-0.734822
-0.790215
-0.838677
-0.879231
-0.911784
-0.937075
-0.956355
-0.971147
-0.984072
-0.997377
-0.0861676
-0.130274
-0.175948
-0.225255
-0.276915
-0.331459
-0.38841
-0.447561
-0.50829
-0.569702
-0.630482
-0.688981
-0.743396
-0.792094
-0.833938
-0.868519
-0.896186
-0.917896
-0.934872
-0.94841
-0.960745
-0.973674
-0.117469
-0.161156
-0.206735
-0.255317
-0.306009
-0.359106
-0.414124
-0.470719
-0.528148
-0.585382
-0.641048
-0.693574
-0.741427
-0.783418
-0.81894
-0.848055
-0.871416
-0.890052
-0.905058
-0.917463
-0.929109
-0.941398
-0.104433
-0.148701
-0.19498
-0.244336
-0.295891
-0.349905
-0.405881
-0.463441
-0.521798
-0.579876
-0.636254
-0.689324
-0.737539
-0.779719
-0.815285
-0.844339
-0.867568
-0.886031
-0.900843
-0.913049
-0.924477
-0.936518
-0.0728861
-0.117593
-0.163977
-0.214048
-0.266553
-0.321988
-0.37987
-0.43996
-0.501601
-0.563849
-0.625339
-0.684378
-0.739141
-0.787997
-0.829841
-0.864308
-0.891791
-0.913286
-0.930037
-0.943355
-0.955456
-0.968115
-0.0377858
-0.0825054
-0.128464
-0.178742
-0.231663
-0.287961
-0.347157
-0.409133
-0.473364
-0.539059
-0.604976
-0.669432
-0.73043
-0.785958
-0.834376
-0.874758
-0.907067
-0.932089
-0.951106
-0.965655
-0.978334
-0.991357
-0.000558034
-0.0448571
-0.0898203
-0.139729
-0.192444
-0.248943
-0.308738
-0.371819
-0.437782
-0.505996
-0.57538
-0.64435
-0.710854
-0.772609
-0.827493
-0.873987
-0.911508
-0.940486
-0.962113
-0.978075
-0.99133
-1.00458
0.0400032
-0.00336755
-0.0467097
-0.0956333
-0.147492
-0.203512
-0.26319
-0.326606
-0.393465
-0.463285
-0.53517
-0.60769
-0.678844
-0.746194
-0.807225
-0.859841
-0.902832
-0.936138
-0.960716
-0.978306
-0.992171
-1.00555
0.0831205
0.0412043
0.000132023
-0.0471318
-0.0974155
-0.15219
-0.210938
-0.273818
-0.340628
-0.411028
-0.484305
-0.559231
-0.633937
-0.705958
-0.772504
-0.830958
-0.879454
-0.917323
-0.945138
-0.96456
-0.979082
-0.992482
0.129177
0.0892802
0.0511338
0.00622145
-0.0417629
-0.0945177
-0.151521
-0.212995
-0.278819
-0.348778
-0.422336
-0.498483
-0.575552
-0.651159
-0.722373
-0.78615
-0.839986
-0.882518
-0.913791
-0.93524
-0.950475
-0.963812
0.177419
0.140122
0.105537
0.0636931
0.0187548
-0.0311654
-0.0855628
-0.144709
-0.208559
-0.277003
-0.349671
-0.425775
-0.503893
-0.58182
-0.656612
-0.724934
-0.783694
-0.830801
-0.865639
-0.889261
-0.90525
-0.918427
0.227567
0.193461
0.163018
0.124945
0.0837653
0.0374742
-0.0134777
-0.0693911
-0.130296
-0.19617
-0.266792
-0.341587
-0.419399
-0.498276
-0.57539
-0.647251
-0.710292
-0.761687
-0.80007
-0.825941
-0.842698
-0.855594
0.278682
0.24836
0.222557
0.188943
0.152198
0.110314
0.0636359
0.0118521
-0.0451395
-0.107394
-0.174818
-0.247033
-0.323154
-0.401527
-0.479549
-0.553728
-0.620148
-0.675315
-0.717044
-0.745143
-0.762625
-0.775075
0.330012
0.30407
0.283275
0.254759
0.223044
0.186281
0.144647
0.0978388
0.0456819
-0.0119465
-0.0750638
-0.143465
-0.216525
-0.292918
-0.370345
-0.445451
-0.514136
-0.572329
-0.617022
-0.647199
-0.665291
-0.677059
0.380446
0.359517
0.343937
0.321115
0.294948
0.263955
0.228083
0.187045
0.140598
0.0885543
0.0308023
-0.0326055
-0.101281
-0.174225
-0.249503
-0.324022
-0.393655
-0.453901
-0.500961
-0.532921
-0.551414
-0.56218
0.428955
0.413718
0.403324
0.386686
0.366455
0.341713
0.312161
0.277512
0.237472
0.191793
0.140285
0.0828794
0.0197644
-0.0483619
-0.119941
-0.192227
-0.26123
-0.322197
-0.370669
-0.403826
-0.422326
-0.431622
0.47478
0.466287
0.460659
0.450441
0.436366
0.418174
0.395396
0.367712
0.334781
0.296288
0.251959
0.201604
0.14522
0.083216
0.0167647
-0.0517922
-0.118711
-0.179123
-0.228004
-0.261658
-0.279624
-0.286777
0.513517
0.51451
0.513829
0.510774
0.503957
0.493362
0.478513
0.459004
0.434438
0.404424
0.368601
0.326652
0.278371
0.22384
0.163754
0.0999241
0.0357326
-0.0238408
-0.0730716
-0.107179
-0.124454
-0.129111
0.549601
0.562138
0.564427
0.565685
0.563802
0.558446
0.549211
0.535665
0.517403
0.494035
0.465191
0.430535
0.389817
0.343017
0.290641
0.234201
0.176701
0.122757
0.0778918
0.0469295
0.0321272
0.0300328
0.597297
0.614865
0.620142
0.62545
0.62769
0.626688
0.6221
0.613515
0.60057
0.582913
0.560219
0.532203
0.498669
0.45964
0.415636
0.368074
0.319657
0.274437
0.237175
0.212013
0.201209
0.202269
0.648715
0.671348
0.681011
0.69104
0.698256
0.702504
0.703468
0.700744
0.693973
0.682807
0.666921
0.646024
0.619913
0.58859
0.552521
0.512993
0.472456
0.434575
0.403651
0.383447
0.376381
0.380668
0.705884
0.73262
0.746587
0.761105
0.773089
0.782348
0.788596
0.791439
0.790534
0.78555
0.776179
0.762148
0.743269
0.719551
0.691419
0.660034
0.62757
0.597259
0.572868
0.557719
0.554281
0.561344
0.765758
0.796307
0.815026
0.834319
0.851383
0.865971
0.877806
0.886501
0.891714
0.893114
0.890393
0.883277
0.871574
0.855276
0.834754
0.811032
0.78603
0.762599
0.744063
0.733376
0.733082
0.742477
0.827982
0.862048
0.885473
0.909385
0.931353
0.951071
0.96827
0.982569
0.993629
1.00112
1.00474
1.00422
0.999359
0.990135
0.976858
0.960414
0.942467
0.925507
0.912425
0.905849
0.908359
0.919691
0.890445
0.927709
0.955803
0.984285
1.0111
1.03589
1.05837
1.07818
1.09495
1.10837
1.11812
1.12393
1.12559
1.12304
1.11655
1.10685
1.09538
1.08427
1.07606
1.07307
1.07796
1.09085
0.951782
0.991951
1.0245
1.05731
1.08869
1.11824
1.14568
1.17063
1.19273
1.21167
1.22711
1.23879
1.24648
1.2501
1.24984
1.2463
1.2407
1.23488
1.23101
1.2312
1.23811
1.25224
1.01006
1.0528
1.08951
1.12635
1.16198
1.19597
1.22802
1.25775
1.2848
1.30883
1.32952
1.34658
1.35977
1.369
1.37436
1.37636
1.37599
1.37483
1.37476
1.37767
1.38626
1.40137
1.06374
1.10872
1.14917
1.18965
1.2291
1.26707
1.30325
1.33725
1.36871
1.39728
1.42264
1.44447
1.46255
1.47672
1.48704
1.49389
1.49809
1.50098
1.50418
1.5094
1.51939
1.53526
1.11108
1.15794
1.20165
1.24532
1.28809
1.32954
1.36932
1.40704
1.44235
1.47486
1.50426
1.53023
1.55251
1.57094
1.58551
1.5965
1.60459
1.61089
1.61685
1.62398
1.6351
1.65154
1.15106
1.19945
1.24585
1.29215
1.33766
1.38198
1.42473
1.46552
1.50398
1.53975
1.57248
1.60184
1.62758
1.6495
1.66755
1.68192
1.69317
1.70226
1.71043
1.71911
1.73111
1.74798
1.1819
1.23146
1.27995
1.32831
1.37598
1.42255
1.46763
1.51084
1.55179
1.5901
1.62543
1.65746
1.68589
1.71052
1.73126
1.74826
1.76195
1.77317
1.78305
1.7929
1.80556
1.82275
1.20418
1.25455
1.30448
1.35423
1.40335
1.45142
1.49806
1.54287
1.58547
1.62548
1.66254
1.69633
1.72656
1.75301
1.77557
1.79432
1.80966
1.82233
1.83335
1.84398
1.85709
1.87449
1.21461
1.2654
1.31611
1.36665
1.4166
1.46555
1.51311
1.55887
1.60246
1.64348
1.68158
1.71642
1.74772
1.77523
1.79884
1.81862
1.83489
1.84838
1.86004
1.87113
1.88449
1.90201
-0.133689
-0.162354
-0.187508
-0.21139
-0.233616
-0.254429
-0.273954
-0.292425
-0.309778
-0.326317
-0.341518
-0.356092
-0.368109
-0.38075
-0.38606
-0.401398
-0.422551
-0.432603
-0.439876
-0.443939
-0.445957
-0.446282
-0.445304
-0.443416
-0.441061
-0.438691
-0.436623
-0.435205
-0.434296
-0.434402
-0.177054
-0.204504
-0.228217
-0.250453
-0.270939
-0.289956
-0.307633
-0.324305
-0.339805
-0.354621
-0.36793
-0.380845
-0.390984
-0.401901
-0.407045
-0.419246
-0.436526
-0.444527
-0.450109
-0.452701
-0.453387
-0.452573
-0.450739
-0.448295
-0.445652
-0.4432
-0.441188
-0.439907
-0.439147
-0.439411
-0.222687
-0.249116
-0.271518
-0.292177
-0.310927
-0.328074
-0.343761
-0.358374
-0.371692
-0.3843
-0.395227
-0.405859
-0.413452
-0.422154
-0.424496
-0.433822
-0.446327
-0.451593
-0.455095
-0.456522
-0.456679
-0.455728
-0.453944
-0.451627
-0.449139
-0.446858
-0.445018
-0.443906
-0.443274
-0.443703
-0.270811
-0.295619
-0.316143
-0.334657
-0.351098
-0.365782
-0.378874
-0.390784
-0.401306
-0.411049
-0.419135
-0.426948
-0.432098
-0.438377
-0.439357
-0.446259
-0.454842
-0.45834
-0.460545
-0.461134
-0.460656
-0.459247
-0.457175
-0.454731
-0.452245
-0.450056
-0.448357
-0.447404
-0.446904
-0.447494
-0.320875
-0.343781
-0.362134
-0.378171
-0.39193
-0.40373
-0.413771
-0.422477
-0.42972
-0.43612
-0.440998
-0.445669
-0.448185
-0.451901
-0.451317
-0.455903
-0.46121
-0.463163
-0.464216
-0.464139
-0.463272
-0.461672
-0.459542
-0.457137
-0.454759
-0.452718
-0.451185
-0.450397
-0.45003
-0.45078
-0.372912
-0.3934
-0.409044
-0.42203
-0.432494
-0.440771
-0.447129
-0.452031
-0.455494
-0.458161
-0.459634
-0.461108
-0.461141
-0.462515
-0.460759
-0.463378
-0.466339
-0.467246
-0.467514
-0.466939
-0.46571
-0.463877
-0.461629
-0.45921
-0.456901
-0.454983
-0.453598
-0.452964
-0.452722
-0.453627
-0.426397
-0.443918
-0.456283
-0.465621
-0.472178
-0.476343
-0.478494
-0.479178
-0.478595
-0.477431
-0.47555
-0.474001
-0.471753
-0.471028
-0.468231
-0.469193
-0.470493
-0.470571
-0.470198
-0.4692
-0.467672
-0.465656
-0.463327
-0.460915
-0.45868
-0.456879
-0.455633
-0.455141
-0.455021
-0.456079
-0.480816
-0.494687
-0.503087
-0.508094
-0.510103
-0.509607
-0.507146
-0.503385
-0.498718
-0.493864
-0.488885
-0.484657
-0.480443
-0.477947
-0.474275
-0.473884
-0.474054
-0.47348
-0.472587
-0.471208
-0.469392
-0.467188
-0.464765
-0.462343
-0.460164
-0.458461
-0.457337
-0.456974
-0.456968
-0.458179
-0.535271
-0.544732
-0.54845
-0.548489
-0.54543
-0.53993
-0.532716
-0.524578
-0.516065
-0.507887
-0.500211
-0.49372
-0.487851
-0.483873
-0.479412
-0.477901
-0.477257
-0.476102
-0.474735
-0.472985
-0.470886
-0.468493
-0.46597
-0.463527
-0.461388
-0.459765
-0.458746
-0.458496
-0.458595
-0.459963
-0.588609
-0.592893
-0.591284
-0.585872
-0.577456
-0.566892
-0.555076
-0.542892
-0.530969
-0.519958
-0.510036
-0.501689
-0.494447
-0.489227
-0.484032
-0.481567
-0.480273
-0.478563
-0.476733
-0.474607
-0.472215
-0.469622
-0.466986
-0.464505
-0.462386
-0.460823
-0.459888
-0.459737
-0.459932
-0.461457
-0.639446
-0.637918
-0.630551
-0.619492
-0.60576
-0.590392
-0.574402
-0.558701
-0.543917
-0.530589
-0.518847
-0.508993
-0.500599
-0.494313
-0.488408
-0.485094
-0.483204
-0.480931
-0.478629
-0.476109
-0.473413
-0.470607
-0.467842
-0.465304
-0.463185
-0.46166
-0.460789
-0.460719
-0.460998
-0.462683
-0.68637
-0.678686
-0.665476
-0.648936
-0.63027
-0.610634
-0.591083
-0.572482
-0.555392
-0.540217
-0.527012
-0.515921
-0.506537
-0.499306
-0.4927
-0.488597
-0.486101
-0.483244
-0.480451
-0.477521
-0.474505
-0.471471
-0.46856
-0.465946
-0.463805
-0.462296
-0.461469
-0.461462
-0.46181
-0.463651
-0.7282
-0.714428
-0.695687
-0.674188
-0.651241
-0.628046
-0.605617
-0.584722
-0.565818
-0.549176
-0.534775
-0.522639
-0.512375
-0.50428
-0.496983
-0.492122
-0.48898
-0.485516
-0.482209
-0.478853
-0.475505
-0.472228
-0.469154
-0.466445
-0.46426
-0.462746
-0.461941
-0.46198
-0.462383
-0.464369
-0.764221
-0.744863
-0.721263
-0.695585
-0.669162
-0.643159
-0.6185
-0.595832
-0.575503
-0.557674
-0.542264
-0.529212
-0.518141
-0.509237
-0.501262
-0.495659
-0.491823
-0.487736
-0.4839
-0.480108
-0.476417
-0.472884
-0.469632
-0.466808
-0.464559
-0.463018
-0.462217
-0.462284
-0.462728
-0.464838
-0.794311
-0.770218
-0.742661
-0.713699
-0.684616
-0.656497
-0.630153
-0.606115
-0.584642
-0.565815
-0.549516
-0.535631
-0.523801
-0.514127
-0.505495
-0.499164
-0.494593
-0.489877
-0.485505
-0.481274
-0.477235
-0.473438
-0.469994
-0.467037
-0.464704
-0.463119
-0.462306
-0.462387
-0.462857
-0.46506
-0.818898
-0.791106
-0.760565
-0.729186
-0.698167
-0.668495
-0.640878
-0.615756
-0.593325
-0.573617
-0.556502
-0.541837
-0.52928
-0.51887
-0.509609
-0.502569
-0.497239
-0.491901
-0.486998
-0.482334
-0.477949
-0.473882
-0.470234
-0.46713
-0.464696
-0.46305
-0.462212
-0.462297
-0.462785
-0.465041
-0.838805
-0.808359
-0.775728
-0.742668
-0.710282
-0.679472
-0.650865
-0.624842
-0.601564
-0.581046
-0.563156
-0.547743
-0.534486
-0.523371
-0.513514
-0.505794
-0.499702
-0.493764
-0.488348
-0.483266
-0.478541
-0.474205
-0.470346
-0.46708
-0.464531
-0.462812
-0.46194
-0.462025
-0.46253
-0.464794
-0.855032
-0.822842
-0.788845
-0.754659
-0.721308
-0.689633
-0.660209
-0.633391
-0.609329
-0.588038
-0.569398
-0.55326
-0.539326
-0.527536
-0.517121
-0.508757
-0.501925
-0.495424
-0.489526
-0.48405
-0.478999
-0.474396
-0.470319
-0.466882
-0.464203
-0.4624
-0.46149
-0.461578
-0.462114
-0.464348
-0.868505
-0.835269
-0.800422
-0.765481
-0.73142
-0.699041
-0.6689
-0.641345
-0.616536
-0.594497
-0.575129
-0.558291
-0.543706
-0.531278
-0.520343
-0.511385
-0.503859
-0.496846
-0.490507
-0.484669
-0.479312
-0.47445
-0.470154
-0.466534
-0.463716
-0.461819
-0.460872
-0.460974
-0.461566
-0.46375
-0.879996
-0.846183
-0.810799
-0.775313
-0.740673
-0.70767
-0.67686
-0.648599
-0.623066
-0.600302
-0.58023
-0.562722
-0.547521
-0.5345
-0.52309
-0.513604
-0.505458
-0.497999
-0.491275
-0.485115
-0.479478
-0.474368
-0.469853
-0.466045
-0.463076
-0.46108
-0.460095
-0.460229
-0.460922
-0.463076
-0.891005
-0.856836
-0.820999
-0.784989
-0.749754
-0.716088
-0.684559
-0.655543
-0.629239
-0.605713
-0.584909
-0.566712
-0.550888
-0.537287
-0.525413
-0.515441
-0.506757
-0.498908
-0.491846
-0.485394
-0.479488
-0.474124
-0.469369
-0.465345
-0.462196
-0.460077
-0.459051
-0.459242
-0.460122
-0.462393
-0.902681
-0.868185
-0.83181
-0.795174
-0.759239
-0.724808
-0.692465
-0.662608
-0.635459
-0.611104
-0.589509
-0.570577
-0.55409
-0.539895
-0.527532
-0.517075
-0.507892
-0.499667
-0.492284
-0.485545
-0.47936
-0.473717
-0.468685
-0.464399
-0.461026
-0.458748
-0.457663
-0.457938
-0.459097
-0.461779
0.1425
0.141865
0.14174
0.141467
0.141321
0.141112
0.140893
0.140612
0.140288
0.139919
0.139525
0.139125
0.138741
0.138393
0.1381
0.137877
0.137738
0.13769
0.137741
0.137891
0.138138
0.138477
0.138899
0.139391
0.139515
0.138866
0.138729
0.13844
0.138279
0.138055
0.137825
0.137536
0.137211
0.13685
0.136474
0.136102
0.135757
0.135462
0.135235
0.135092
0.135046
0.135106
0.135277
0.135558
0.135947
0.136437
0.137016
0.137669
0.136409
0.135747
0.135599
0.135294
0.135118
0.134878
0.134636
0.13434
0.134015
0.133662
0.133304
0.132961
0.132659
0.132419
0.13226
0.132201
0.132252
0.132423
0.132717
0.133134
0.13367
0.134314
0.135053
0.135871
0.133187
0.132514
0.132355
0.132033
0.131841
0.131586
0.131331
0.131029
0.130704
0.130359
0.13002
0.129709
0.12945
0.129267
0.129181
0.129208
0.12936
0.129645
0.130067
0.130623
0.131308
0.132111
0.133015
0.134
0.129853
0.12917
0.129
0.128662
0.128454
0.128183
0.127916
0.127607
0.127282
0.126946
0.126628
0.126349
0.126136
0.126013
0.126002
0.126118
0.126373
0.126777
0.12733
0.128029
0.128868
0.129832
0.130903
0.13206
0.126413
0.125722
0.125541
0.125188
0.124963
0.124676
0.124396
0.12408
0.123755
0.12343
0.123133
0.122888
0.122723
0.122663
0.122728
0.122937
0.1233
0.123824
0.124512
0.125358
0.126352
0.127482
0.128724
0.130055
0.122873
0.122177
0.121983
0.121615
0.121373
0.12107
0.120778
0.120454
0.120131
0.119817
0.119542
0.119333
0.119218
0.119222
0.119367
0.119671
0.120144
0.120794
0.121619
0.122614
0.123768
0.125065
0.12648
0.127988
0.11924
0.118539
0.118335
0.117951
0.117692
0.117373
0.117068
0.116738
0.116416
0.116114
0.115863
0.115691
0.115627
0.115698
0.115926
0.116328
0.116915
0.117691
0.118657
0.119804
0.121121
0.122587
0.124179
0.125865
0.115521
0.114819
0.114603
0.114204
0.113928
0.113593
0.113275
0.112938
0.112618
0.112328
0.112103
0.111969
0.111959
0.1121
0.112413
0.112915
0.113618
0.114525
0.115634
0.116936
0.118417
0.120055
0.121824
0.123691
0.111725
0.111022
0.110795
0.110382
0.110089
0.109738
0.109407
0.109064
0.108747
0.10847
0.10827
0.108177
0.108223
0.108435
0.108835
0.109442
0.110263
0.111302
0.112557
0.114016
0.115663
0.117475
0.119423
0.121472
0.107859
0.107159
0.106921
0.106495
0.106184
0.105817
0.105474
0.105124
0.10481
0.104547
0.104375
0.104324
0.104427
0.104713
0.105203
0.105915
0.106858
0.108032
0.109434
0.111052
0.112866
0.114854
0.116982
0.119214
0.103934
0.103239
0.10299
0.102551
0.102223
0.101839
0.101484
0.101129
0.100818
0.100571
0.100428
0.10042
0.100583
0.100944
0.101527
0.102346
0.103412
0.104723
0.106274
0.108051
0.110035
0.112198
0.114507
0.116922
0.0999597
0.0992718
0.0990123
0.0985607
0.098216
0.097817
0.0974496
0.0970895
0.096783
0.0965521
0.0964384
0.0964757
0.0966995
0.0971383
0.0978151
0.0987448
0.0999347
0.101384
0.103086
0.105024
0.107177
0.109516
0.112006
0.114604
0.0959463
0.0952681
0.0949984
0.0945356
0.094174
0.09376
0.0933808
0.0930163
0.0927149
0.0925013
0.0924187
0.0925026
0.0927892
0.0933074
0.0940799
0.095121
0.0964371
0.0980262
0.0998788
0.101978
0.1043
0.106816
0.109485
0.112267
0.0919051
0.091239
0.0909597
0.0904866
0.0901087
0.0896802
0.0892898
0.0889214
0.0886261
0.0884308
0.0883806
0.0885125
0.0888634
0.0894625
0.0903322
0.0914861
0.0929293
0.0946585
0.0966625
0.098923
0.101414
0.104104
0.106953
0.109916
0.0878475
0.0871962
0.0869078
0.0864256
0.0860319
0.0855896
0.0851886
0.0848173
0.0845289
0.084353
0.0843365
0.0845177
0.0849343
0.0856156
0.0865838
0.0878514
0.0894223
0.0912918
0.0934469
0.0958677
0.0985267
0.10139
0.104417
0.107559
0.0837855
0.0831516
0.0828548
0.0823648
0.0819561
0.0815009
0.0810901
0.0807168
0.0804362
0.0802808
0.0802993
0.0805311
0.0810146
0.0817792
0.0828466
0.0842283
0.0859271
0.0879365
0.090242
0.0928218
0.0956468
0.0986818
0.101883
0.105203
0.0797314
0.0791175
0.0788131
0.0783167
0.0778938
0.0774268
0.0770072
0.0766328
0.0763612
0.0762276
0.0762821
0.0765656
0.077117
0.0779658
0.0791328
0.0806288
0.0824549
0.0846033
0.0870577
0.0897946
0.0927833
0.095987
0.0993604
0.102854
0.0756977
0.0751062
0.0747953
0.074294
0.0738581
0.0733806
0.0729532
0.072579
0.0723175
0.0722068
0.0722985
0.0726346
0.0732547
0.074188
0.0754547
0.0770645
0.0790171
0.081303
0.0839041
0.0867955