/*--------------------------------*- C++ -*----------------------------------*\
| =========                 |                                                 |
| \\      /  F ield         | OpenFOAM Extend Project: Open source CFD        |
|  \\    /   O peration     | Version:  1.6-ext                               |
|   \\  /    A nd           | Web:      www.extend-project.de                 |
|    \\/     M anipulation  |                                                 |
\*---------------------------------------------------------------------------*/
FoamFile
{
    version     2.0;
    format      ascii;
    class       surfaceScalarField;
    location    "0.9";
    object      phi;
}
// * * * * * * * * * * * * * * * * * * * * * * * * * * * * * * * * * * * * * //

dimensions      [0 3 -1 0 0 0 0];

internalField   nonuniform List<scalar> 
41420
(
-0.000126991
0.000396659
-0.00039741
0.000127742
-0.00012578
0.000377733
-0.000378943
-0.000124144
0.000359154
-0.00036079
-0.000122083
0.000340822
-0.000342884
-0.000119532
0.000322735
-0.000325286
-0.000116341
0.000304678
-0.000307869
-0.000112271
0.000286301
-0.000290371
-0.000107029
0.000267133
-0.000272376
-0.000100339
0.000246691
-0.00025338
-9.20497e-05
0.000224631
-0.00023292
-8.22161e-05
0.0002009
-0.000210733
-7.11493e-05
0.000175825
-0.000186892
-5.93802e-05
0.000150093
-0.000161862
-4.75679e-05
0.000124625
-0.000136437
-3.63693e-05
0.000100387
-0.000111586
-2.63328e-05
7.82095e-05
-8.8246e-05
-1.78287e-05
5.86666e-05
-6.71707e-05
-1.10401e-05
4.20418e-05
-4.88305e-05
-5.98737e-06
2.83555e-05
-3.34082e-05
-2.5759e-06
1.74302e-05
-2.08417e-05
-6.4362e-07
8.96505e-06
-1.08973e-05
2.60259e-06
-3.24621e-06
-0.000134809
0.000395732
0.000135735
-0.000133401
0.000376326
-0.00013153
0.000357282
-0.000129158
0.00033845
-0.00012617
0.000319747
-0.000122353
0.000300861
-0.000117422
0.000281369
-0.000111072
0.000260784
-0.000103085
0.000238704
-9.34234e-05
0.000214969
-8.23018e-05
0.000189778
-7.01839e-05
0.000163707
-5.7708e-05
0.000137617
-4.55639e-05
0.000112481
-3.43688e-05
8.91922e-05
-2.4579e-05
6.84197e-05
-1.64578e-05
5.05454e-05
-1.0089e-05
3.56729e-05
-5.41841e-06
2.36849e-05
-2.30478e-06
1.43166e-05
-5.6332e-07
7.22359e-06
2.03927e-06
-0.000149692
0.000394133
0.000151292
-0.000147585
0.000374219
-0.00014496
0.000354658
-0.000141725
0.000335216
-0.000137698
0.00031572
-0.000132599
0.000295762
-0.000126105
0.000274875
-0.000117942
0.000252621
-0.000107995
0.000228756
-9.63922e-05
0.000203367
-8.35374e-05
0.000176923
-7.00512e-05
0.000150221
-5.66558e-05
0.000124222
-4.40386e-05
9.98638e-05
-3.27427e-05
7.78963e-05
-2.31135e-05
5.87905e-05
-1.52977e-05
4.27297e-05
-9.28052e-06
2.96557e-05
-4.93658e-06
1.9341e-05
-2.07982e-06
1.14598e-05
-5.02286e-07
5.64606e-06
1.53698e-06
-0.000163974
0.000391883
0.000166223
-0.000161165
0.000371409
-0.000157738
0.000351231
-0.000153527
0.000331005
-0.000148271
0.000310464
-0.000141637
0.000289128
-0.000133308
0.000266547
-0.000123099
0.000242412
-0.00011106
0.000216717
-9.75279e-05
0.000189835
-8.30969e-05
0.000162492
-6.85098e-05
0.000135634
-5.45155e-05
0.000110227
-4.17404e-05
8.70887e-05
-3.06137e-05
6.67696e-05
-2.13504e-05
4.95272e-05
-1.39808e-05
3.53601e-05
-8.4021e-06
2.4077e-05
-4.43164e-06
1.53705e-05
-1.85227e-06
8.88047e-06
-4.43389e-07
4.23718e-06
1.09359e-06
-0.000176933
0.00038903
0.000179787
-0.000173424
0.0003679
-0.00016913
0.000346937
-0.000163797
0.000325672
-0.000157093
0.00030376
-0.000148665
0.0002807
-0.000138269
0.000256151
-0.000125879
0.000230022
-0.000111767
0.000202605
-9.64932e-05
0.000174561
-8.08111e-05
0.00014681
-6.55221e-05
0.000120345
-5.1331e-05
9.60361e-05
-3.87502e-05
7.45079e-05
-2.8066e-05
5.60855e-05
-1.93598e-05
4.08209e-05
-1.25567e-05
2.8557e-05
-7.48334e-06
1.90036e-05
-3.91767e-06
1.18048e-05
-1.62593e-06
6.58873e-06
-3.86116e-07
2.99736e-06
7.07476e-07
-0.000188484
0.000385593
0.000191921
-0.000184224
0.00036364
-0.00017892
0.000341633
-0.000172231
0.000318984
-0.00016379
0.000295318
-0.000153291
0.000270201
-0.000140641
0.000243501
-0.000126047
0.000215429
-0.000110032
0.000186589
-9.33519e-05
0.000157881
-7.68549e-05
0.000130313
-6.13193e-05
0.000104809
-4.73394e-05
8.20563e-05
-3.5275e-05
6.24434e-05
-2.52611e-05
4.60716e-05
-1.72553e-05
3.28152e-05
-1.10977e-05
2.23994e-05
-6.5654e-06
1.44713e-05
-3.41453e-06
8.65398e-06
-1.40824e-06
4.58244e-06
-3.3195e-07
1.92107e-06
3.75525e-07
-0.000198405
0.000381526
0.000202472
-0.000193257
0.000358492
-0.000186712
0.000335087
-0.000178363
0.000310636
-0.000167873
0.000284828
-0.000155078
0.000257406
-0.00014012
0.000228543
-0.000123479
0.000198788
-0.000105913
0.000169023
-8.83075e-05
0.000140276
-7.15118e-05
0.000113517
-5.62011e-05
8.94983e-05
-4.28097e-05
6.86649e-05
-3.15296e-05
5.11633e-05
-2.23542e-05
3.68962e-05
-1.51402e-05
2.56012e-05
-9.66671e-06
1.6926e-05
-5.68273e-06
1.04873e-05
-2.93868e-06
5.90993e-06
-1.20526e-06
2.84902e-06
-2.82158e-07
9.97965e-07
9.33679e-08
-0.000206468
0.00037673
0.000211264
-0.000200213
0.000352237
-0.000192112
0.000326986
-0.000181764
0.000300288
-0.000168955
0.000272019
-0.000153762
0.000242213
-0.000136625
0.000211406
-0.000118294
0.000180457
-9.96917e-05
0.00015042
-8.17328e-05
0.000122317
-6.51722e-05
9.69569e-05
-5.05192e-05
7.48453e-05
-3.8025e-05
5.61707e-05
-2.7722e-05
4.08603e-05
-1.94866e-05
2.86608e-05
-1.31029e-05
1.92174e-05
-8.31473e-06
1.21378e-05
-4.86195e-06
7.03454e-06
-2.50208e-06
3.55006e-06
-1.02124e-06
1.36818e-06
-2.37551e-07
2.14279e-07
-1.44183e-07
-0.000212287
0.000370963
0.000218054
-0.000204602
0.000344551
-0.000194588
0.000316972
-0.000181951
0.000287652
-0.000166707
0.000256774
-0.000149241
0.000224747
-0.000130298
0.000192463
-0.000110831
0.00016099
-9.18211e-05
0.000131411
-7.41045e-05
0.0001046
-5.82678e-05
8.11202e-05
-4.46233e-05
6.12009e-05
-3.32447e-05
4.4792e-05
-2.40304e-05
3.16461e-05
-1.67722e-05
2.14026e-05
-1.12114e-05
1.36566e-05
-7.07904e-06
8.00551e-06
-4.12143e-06
4.07693e-06
-2.11247e-06
1.5411e-06
-8.58596e-07
1.14305e-07
-1.98506e-07
-4.45811e-07
-3.42689e-07
-0.000215492
0.000363974
0.00022248
-0.00020603
0.00033509
-0.000193791
0.000304733
-0.000178706
0.000272567
-0.00016112
0.000239188
-0.000141751
0.000205378
-0.000121582
0.000172293
-0.000101657
0.000141065
-8.28937e-05
0.000112648
-6.59597e-05
8.7666e-05
-5.12344e-05
6.63949e-05
-3.88368e-05
4.88033e-05
-2.86909e-05
3.46461e-05
-2.05977e-05
2.35529e-05
-1.42974e-05
1.51023e-05
-9.51441e-06
8.87355e-06
-5.98518e-06
4.47628e-06
-3.4732e-06
1.56495e-06
-1.77467e-06
-1.57435e-07
-7.18787e-07
-9.41575e-07
-1.65238e-07
-9.9936e-07
-5.07927e-07
-0.000215535
0.000355309
0.0002242
-0.000203953
0.000323508
-0.000189319
0.000290099
-0.000171888
0.000255137
-0.000152351
0.000219651
-0.000131707
0.000184733
-0.000111056
0.000151643
-9.13997e-05
0.000121408
-7.34902e-05
9.47382e-05
-5.77782e-05
7.19541e-05
-4.44335e-05
5.30501e-05
-3.34113e-05
3.77812e-05
-2.45268e-05
2.57616e-05
-1.75223e-05
1.65484e-05
-1.21176e-05
9.69753e-06
-8.04085e-06
4.79686e-06
-5.04674e-06
1.48217e-06
-2.92279e-06
-5.59005e-07
-1.49035e-06
-1.58987e-06
-6.01988e-07
-1.82994e-06
-1.37613e-07
-1.46373e-06
-6.4554e-07
-0.000212308
0.000344818
0.000222798
-0.000198453
0.000309653
-0.000181484
0.000273129
-0.000162054
0.000235707
-0.000141164
0.000198762
-0.000119978
0.000163547
-9.95817e-05
0.000131247
-8.08195e-05
0.000102646
-6.42186e-05
7.81373e-05
-5.00064e-05
5.77418e-05
-3.81706e-05
4.12144e-05
-2.85431e-05
2.81537e-05
-2.08715e-05
1.80899e-05
-1.48728e-05
1.05497e-05
-1.02696e-05
5.09434e-06
-6.80925e-06
1.33654e-06
-4.27232e-06
-1.05476e-06
-2.47386e-06
-2.35747e-06
-1.261e-06
-2.80273e-06
-5.08807e-07
-2.58213e-06
-1.15881e-07
-1.85666e-06
-7.61421e-07
-0.00020528
0.000332002
0.000218097
-0.000189187
0.00029356
-0.000170263
0.000254205
-0.000149503
0.000214946
-0.000128091
0.00017735
-0.000107204
0.00014266
-8.77771e-05
0.00011182
-7.04327e-05
8.53017e-05
-5.54631e-05
6.31677e-05
-4.29e-05
4.51787e-05
-3.25981e-05
3.09125e-05
-2.43123e-05
1.98678e-05
-1.77597e-05
1.15373e-05
-1.26589e-05
5.44895e-06
-8.75199e-06
1.18742e-06
-5.81429e-06
-1.60117e-06
-3.65649e-06
-3.21255e-06
-2.12228e-06
-3.89168e-06
-1.08399e-06
-3.84102e-06
-4.37809e-07
-3.22831e-06
-9.94303e-08
-2.19504e-06
-8.60852e-07
-0.000195071
0.000317397
0.000209676
-0.000177139
0.000275627
-0.000156828
0.000233895
-0.000135495
0.000193614
-0.000114338
0.000156192
-9.44283e-05
0.000122751
-7.64756e-05
9.38675e-05
-6.08515e-05
6.96775e-05
-4.76389e-05
4.99552e-05
-3.67207e-05
3.42605e-05
-2.78659e-05
2.20577e-05
-2.07946e-05
1.27966e-05
-1.5223e-05
5.96563e-06
-1.08886e-05
1.11461e-06
-7.56234e-06
-2.13886e-06
-5.05094e-06
-4.11256e-06
-3.19543e-06
-5.06807e-06
-1.8666e-06
-5.22051e-06
-9.5996e-07
-4.74765e-06
-3.90727e-07
-3.79754e-06
-8.9711e-08
-2.49605e-06
-9.50563e-07
-0.00018143
0.000300567
0.000198259
-0.000162258
0.000256455
-0.00014144
0.000213076
-0.00012044
0.000172614
-0.000100378
0.000136131
-8.20824e-05
0.000104455
-6.60004e-05
7.77855e-05
-5.22764e-05
5.59535e-05
-4.0836e-05
3.85148e-05
-3.14745e-05
2.4899e-05
-2.39266e-05
1.45097e-05
-1.79142e-05
6.78423e-06
-1.31753e-05
1.22671e-06
-9.47792e-06
-2.5828e-06
-6.62546e-06
-4.99133e-06
-4.45602e-06
-6.282e-06
-2.83865e-06
-6.68544e-06
-1.66848e-06
-6.39067e-06
-8.61591e-07
-5.55455e-06
-3.50113e-07
-4.30902e-06
-7.8484e-08
-2.76768e-06
-1.02905e-06
-0.000342527
0.000244377
0.000398717
-0.0002871
0.000201028
-0.000235006
0.000160983
-0.000188084
0.000125692
-0.000147333
9.53788e-05
-0.000113071
7.01926e-05
-8.50485e-05
4.97634e-05
-6.26731e-05
3.3578e-05
-4.51816e-05
2.10234e-05
-3.17757e-05
1.14931e-05
-2.17003e-05
4.43438e-06
-1.42866e-05
-6.29458e-07
-8.96479e-06
-4.09512e-06
-5.26199e-06
-6.2856e-06
-2.79216e-06
-7.46116e-06
-1.24244e-06
-7.83172e-06
-3.59982e-07
-7.5679e-06
5.98766e-08
-6.81053e-06
1.83213e-07
-5.67788e-06
1.45088e-07
-4.27089e-06
5.48722e-08
-2.67747e-06
-9.74174e-07
-0.000283746
0.000186312
0.000341811
-0.000230326
0.000147609
-0.000183043
0.000113699
-0.000142566
8.5215e-05
-0.00010891
6.17231e-05
-8.16223e-05
4.29045e-05
-5.99779e-05
2.8119e-05
-4.31414e-05
1.67415e-05
-3.02819e-05
8.16381e-06
-2.06378e-05
1.849e-06
-1.35473e-05
-2.65608e-06
-8.45478e-06
-5.72202e-06
-4.90401e-06
-7.64589e-06
-2.52604e-06
-8.66357e-06
-1.02448e-06
-8.96273e-06
-1.61909e-07
-8.69429e-06
2.51949e-07
-7.98176e-06
3.69936e-07
-6.92852e-06
3.1499e-07
-5.62294e-06
1.85798e-07
-4.1417e-06
6.0674e-08
-2.55234e-06
-9.135e-07
-0.000221673
0.000132418
0.000275566
-0.000174676
0.000100612
-0.000135072
7.40958e-05
-0.000102498
5.26404e-05
-7.63409e-05
3.55664e-05
-5.57432e-05
2.23068e-05
-3.98175e-05
1.21932e-05
-2.7713e-05
4.63711e-06
-1.86735e-05
-8.75726e-07
-1.20534e-05
-4.77112e-06
-7.31773e-06
-7.39174e-06
-4.03157e-06
-9.00818e-06
-1.84542e-06
-9.83204e-06
-4.80201e-07
-1.00288e-05
2.86312e-07
-9.72924e-06
6.31038e-07
-9.03901e-06
6.94912e-07
-8.04563e-06
5.90161e-07
-6.82377e-06
4.0587e-07
-5.43865e-06
2.12232e-07
-3.94806e-06
6.3474e-08
-2.40359e-06
-8.50026e-07
-0.000163119
8.66759e-05
0.000208861
-0.00012489
6.23832e-05
-9.3899e-05
4.31047e-05
-6.92065e-05
2.79479e-05
-4.99364e-05
1.62962e-05
-3.51414e-05
7.51186e-06
-2.39761e-05
1.02791e-06
-1.56986e-05
-3.6404e-06
-9.68726e-06
-6.88706e-06
-5.43252e-06
-9.02586e-06
-2.52328e-06
-1.0301e-05
-6.31183e-07
-1.09003e-05
5.04703e-07
-1.09679e-05
1.09133e-06
-1.06154e-05
1.29281e-06
-9.93073e-06
1.23929e-06
-8.98548e-06
1.03382e-06
-7.84016e-06
7.57621e-07
-6.54757e-06
4.73946e-07
-5.15497e-06
2.31148e-07
-3.70527e-06
6.49165e-08
-2.23735e-06
-7.8511e-07
-0.000111986
5.06712e-05
0.00014799
-8.29696e-05
3.33671e-05
-6.01453e-05
2.02805e-05
-4.24613e-05
1.02639e-05
-2.9017e-05
2.85191e-06
-1.89674e-05
-2.53772e-06
-1.16038e-05
-6.33572e-06
-6.33537e-06
-8.9088e-06
-2.68279e-06
-1.05396e-05
-2.61516e-07
-1.14471e-05
1.23425e-06
-1.17967e-05
2.04665e-06
-1.17127e-05
2.36712e-06
-1.12884e-05
2.34696e-06
-1.05953e-05
2.10579e-06
-9.68955e-06
1.73799e-06
-8.61768e-06
1.31773e-06
-7.41991e-06
9.02545e-07
-6.13238e-06
5.36172e-07
-4.7886e-06
2.50541e-07
-3.41964e-06
6.7481e-08
-2.05429e-06
-7.17629e-07
-6.96506e-05
2.42029e-05
9.61188e-05
-4.90238e-05
1.27404e-05
-3.32284e-05
4.48514e-06
-2.13498e-05
-1.61475e-06
-1.2599e-05
-5.89892e-06
-6.30377e-06
-8.83291e-06
-1.91378e-06
-1.07257e-05
1.01555e-06
-1.18381e-05
2.83905e-06
-1.23631e-05
3.83803e-06
-1.24461e-05
4.23463e-06
-1.21933e-05
4.20401e-06
-1.16821e-05
3.88429e-06
-1.09687e-05
3.38433e-06
-1.00953e-05
2.78987e-06
-9.09509e-06
2.16818e-06
-7.99599e-06
1.57125e-06
-6.82298e-06
1.03871e-06
-5.59984e-06
5.99379e-07
-4.34926e-06
2.73133e-07
-3.09339e-06
7.17331e-08
-1.85289e-06
-6.45896e-07
-3.57897e-05
6.05369e-06
5.3939e-05
-2.21654e-05
-8.83964e-07
-1.20838e-05
-5.59646e-06
-4.82593e-06
-8.87262e-06
2.36272e-07
-1.09611e-05
3.60474e-06
-1.22014e-05
5.686e-06
-1.2807e-05
6.80199e-06
-1.29541e-05
7.20716e-06
-1.27683e-05
7.10156e-06
-1.23405e-05
6.64229e-06
-1.1734e-05
5.95269e-06
-1.09925e-05
5.12981e-06
-1.01458e-05
4.24986e-06
-9.21534e-06
3.37266e-06
-8.2179e-06
2.54453e-06
-7.16786e-06
1.80099e-06
-6.07943e-06
1.16787e-06
-4.96673e-06
6.63332e-07
-3.84472e-06
2.98184e-07
-2.72824e-06
7.73271e-08
-1.63204e-06
-5.68569e-07
-9.31072e-06
-5.26518e-06
2.06296e-05
-1.27539e-06
-8.91929e-06
4.29503e-06
-1.11669e-05
7.94366e-06
-1.25213e-05
1.01406e-05
-1.3158e-05
1.12454e-05
-1.33062e-05
1.15461e-05
-1.31077e-05
1.12668e-05
-1.26748e-05
1.05828e-05
-1.20843e-05
9.63041e-06
-1.13882e-05
8.51597e-06
-1.06196e-05
7.32241e-06
-9.79891e-06
6.11452e-06
-8.9379e-06
4.94309e-06
-8.04391e-06
3.84751e-06
-7.12232e-06
2.8583e-06
-6.17866e-06
1.99797e-06
-5.2191e-06
1.28279e-06
-4.25155e-06
7.22704e-07
-3.28464e-06
3.22872e-07
-2.32841e-06
8.33053e-08
-1.39247e-06
-4.85263e-07
1.07663e-05
-1.11678e-05
-4.86371e-06
1.44577e-05
-1.26107e-05
1.6549e-05
-1.32582e-05
1.74359e-05
-1.34081e-05
1.74523e-05
-1.31745e-05
1.68456e-05
-1.26995e-05
1.58093e-05
-1.20713e-05
1.44905e-05
-1.13561e-05
1.30023e-05
-1.05961e-05
1.1431e-05
-9.81684e-06
9.8429e-06
-9.03149e-06
8.28904e-06
-8.24505e-06
6.80906e-06
-7.45792e-06
5.4336e-06
-6.66845e-06
4.18649e-06
-5.87522e-06
3.08554e-06
-5.07771e-06
2.14404e-06
-4.27759e-06
1.37049e-06
-3.478e-06
7.69978e-07
-2.68412e-06
3.43428e-07
-1.90186e-06
8.8651e-08
-1.13769e-06
-3.96612e-07
2.50571e-05
-1.29081e-05
-2.33167e-05
2.54717e-05
-1.30253e-05
2.4974e-05
-1.27605e-05
2.38336e-05
-1.22677e-05
2.22711e-05
-1.1612e-05
2.04446e-05
-1.0873e-05
1.84727e-05
-1.00994e-05
1.64425e-05
-9.32587e-06
1.4418e-05
-8.57159e-06
1.24463e-05
-7.84518e-06
1.05625e-05
-7.14768e-06
8.79292e-06
-6.47543e-06
7.15748e-06
-5.82248e-06
5.67162e-06
-5.18259e-06
4.34689e-06
-4.55049e-06
3.19211e-06
-3.92293e-06
2.21305e-06
-3.29853e-06
1.41346e-06
-2.67842e-06
7.94374e-07
-2.06503e-06
3.55008e-07
-1.46249e-06
9.19847e-08
-8.74671e-07
-3.04628e-07
3.37684e-05
-1.16421e-05
-3.50345e-05
3.18761e-05
-1.11329e-05
2.96057e-05
-1.04901e-05
2.71192e-05
-9.78127e-06
2.45445e-05
-9.03725e-06
2.19679e-05
-8.29643e-06
1.94501e-05
-7.58155e-06
1.70311e-05
-6.90692e-06
1.47377e-05
-6.27818e-06
1.25872e-05
-5.69472e-06
1.05912e-05
-5.15168e-06
8.75751e-06
-4.64172e-06
7.09177e-06
-4.15674e-06
5.59815e-06
-3.68897e-06
4.27979e-06
-3.23214e-06
3.13861e-06
-2.78174e-06
2.17578e-06
-2.3357e-06
1.3911e-06
-1.89373e-06
7.83733e-07
-1.45767e-06
3.51556e-07
-1.03032e-06
9.1651e-08
-6.14766e-07
-2.12977e-07
3.68197e-05
-8.51384e-06
-3.9948e-05
3.35753e-05
-7.88852e-06
3.03356e-05
-7.25041e-06
2.71759e-05
-6.62159e-06
2.41521e-05
-6.01337e-06
2.12961e-05
-5.4405e-06
1.86254e-05
-4.91077e-06
1.6146e-05
-4.42762e-06
1.38583e-05
-3.99043e-06
1.17587e-05
-3.59514e-06
9.8427e-06
-3.23566e-06
8.1058e-06
-2.90481e-06
6.54424e-06
-2.59518e-06
5.15522e-06
-2.29994e-06
3.93648e-06
-2.01339e-06
2.88621e-06
-1.73148e-06
2.0024e-06
-1.45189e-06
1.28301e-06
-1.17434e-06
7.2551e-07
-9.00171e-07
3.27464e-07
-6.32269e-07
8.62678e-08
-3.7357e-07
-1.26709e-07
3.40166e-05
-4.70805e-06
-3.78224e-05
3.04031e-05
-4.27501e-06
2.7015e-05
-3.86233e-06
2.38675e-05
-3.47406e-06
2.09674e-05
-3.11331e-06
1.83111e-05
-2.78415e-06
1.58882e-05
-2.48792e-06
1.36848e-05
-2.22418e-06
1.16851e-05
-1.99081e-06
9.87429e-06
-1.78428e-06
8.2389e-06
-1.60027e-06
6.76809e-06
-1.43401e-06
5.45361e-06
-1.28069e-06
4.28946e-06
-1.1358e-06
3.27151e-06
-9.95443e-07
2.39666e-06
-8.56623e-07
1.6623e-06
-7.17532e-07
1.06566e-06
-5.77705e-07
6.03788e-07
-4.38295e-07
2.73539e-07
-3.0202e-07
7.24583e-08
-1.72489e-07
-5.42505e-08
2.52105e-05
-1.45562e-06
-2.84629e-05
2.22417e-05
-1.30622e-06
1.95451e-05
-1.16574e-06
1.71066e-05
-1.03561e-06
1.49104e-05
-9.17039e-07
1.29373e-05
-8.11056e-07
1.1167e-05
-7.17615e-07
9.57895e-06
-6.36171e-07
8.15383e-06
-5.65683e-07
6.87433e-06
-5.04783e-07
5.72595e-06
-4.51888e-07
4.69722e-06
-4.05282e-07
3.77974e-06
-3.63208e-07
2.96787e-06
-3.23926e-07
2.25821e-06
-2.85792e-07
1.64895e-06
-2.47362e-07
1.13894e-06
-2.07515e-07
7.26894e-07
-1.65662e-07
4.10674e-07
-1.22074e-07
1.86856e-07
-7.82011e-08
5.09251e-08
-3.65581e-08
-3.32538e-09
1.03802e-05
-1.18418e-05
9.06873e-06
7.89847e-06
6.859e-06
5.93873e-06
5.125e-06
4.40518e-06
3.76723e-06
3.20012e-06
2.6942e-06
2.24142e-06
1.83545e-06
1.47172e-06
1.1474e-06
8.61313e-07
6.1374e-07
4.06076e-07
2.40312e-07
1.1817e-07
3.99252e-08
3.34124e-09
0.00029823
2.54163e-05
1.3292e-06
-0.000324976
0.000272972
2.3901e-05
1.35749e-06
0.000249109
2.24832e-05
1.37959e-06
0.000226561
2.1152e-05
1.39543e-06
0.000205253
1.99028e-05
1.40537e-06
0.000185111
1.8732e-05
1.40983e-06
0.000166067
1.76349e-05
1.40922e-06
0.000148056
1.6607e-05
1.40395e-06
0.000131018
1.56438e-05
1.39443e-06
0.000114896
1.47408e-05
1.38101e-06
9.96396e-05
1.38926e-05
1.36389e-06
8.52056e-05
1.30913e-05
1.34271e-06
7.1567e-05
1.23224e-05
1.31616e-06
5.87244e-05
1.15613e-05
1.28124e-06
4.67216e-05
1.07696e-05
1.2332e-06
3.56579e-05
9.89798e-06
1.16573e-06
2.56924e-05
8.89295e-06
1.07246e-06
1.70346e-05
7.70976e-06
9.48092e-07
9.92182e-06
6.32261e-06
7.90165e-07
4.58879e-06
4.73336e-06
5.99664e-07
1.23529e-06
2.97237e-06
3.81125e-07
1.09338e-06
1.41908e-07
0.000297812
5.20844e-05
-0.00032448
0.000272623
4.90897e-05
0.000248821
4.62854e-05
0.000226325
4.36473e-05
0.000205062
4.11666e-05
0.000184957
3.88362e-05
0.000165945
3.66474e-05
0.00014796
3.45916e-05
0.000130944
3.26603e-05
0.00011484
3.08449e-05
9.95974e-05
2.91349e-05
8.51744e-05
2.75143e-05
7.1544e-05
2.59529e-05
5.87071e-05
2.43982e-05
4.67083e-05
2.27685e-05
3.56473e-05
2.0959e-05
2.56841e-05
1.88562e-05
1.70284e-05
1.63654e-05
9.91777e-06
1.34332e-05
4.58693e-06
1.00642e-05
1.2348e-06
6.3245e-06
2.32818e-06
0.000296562
7.85498e-05
-0.000323027
0.000271548
7.41031e-05
0.000247897
6.99374e-05
0.000225532
6.60118e-05
0.000204382
6.23161e-05
0.000184379
5.88402e-05
0.000165454
5.55719e-05
0.000147547
5.2499e-05
0.000130598
4.96094e-05
0.000114552
4.68904e-05
9.93603e-05
4.43268e-05
8.49806e-05
4.1894e-05
7.13864e-05
3.9547e-05
5.85805e-05
3.72041e-05
4.66067e-05
3.47422e-05
3.55678e-05
3.19979e-05
2.56231e-05
2.8801e-05
1.69846e-05
2.50039e-05
9.88933e-06
2.05285e-05
4.57174e-06
1.53818e-05
1.23003e-06
9.66621e-06
3.55822e-06
0.000294817
0.000104705
-0.000320972
0.000270074
9.88463e-05
0.000246652
9.33594e-05
0.000224484
8.81795e-05
0.000203504
8.32967e-05
0.000183644
7.86994e-05
0.000164844
7.43722e-05
0.000147043
7.03e-05
0.000130185
6.64675e-05
0.000114217
6.28587e-05
9.909e-05
5.94534e-05
8.47642e-05
5.62198e-05
7.12151e-05
5.30962e-05
5.84443e-05
4.99749e-05
4.65002e-05
4.66863e-05
3.54834e-05
4.30147e-05
2.55592e-05
3.87251e-05
1.69373e-05
3.36259e-05
9.85881e-06
2.7607e-05
4.55558e-06
2.0685e-05
1.22475e-06
1.2997e-05
4.78297e-06
0.000292758
0.000130457
-0.00031851
0.000268362
0.000123242
0.000245234
0.000116487
0.000223317
0.000110097
0.000202549
0.000104064
0.000182871
9.83773e-05
0.000164225
9.30186e-05
0.000146554
8.7971e-05
0.000129805
8.32164e-05
0.000113928
7.8736e-05
9.88754e-05
7.45057e-05
8.46095e-05
7.04857e-05
7.1106e-05
6.65997e-05
5.83696e-05
6.27113e-05
4.64478e-05
5.8608e-05
3.54467e-05
5.40158e-05
2.55304e-05
4.86414e-05
1.6916e-05
4.22403e-05
9.84235e-06
3.46806e-05
4.54627e-06
2.59811e-05
1.22095e-06
1.63224e-05
6.00392e-06
0.000290782
0.000155748
-0.000316074
0.000266781
0.000147244
0.000243982
0.000139287
0.000222341
0.000131738
0.000201804
0.000124601
0.000182319
0.000117862
0.000163832
0.000111506
0.000146292
0.000105511
0.000129649
9.98598e-05
0.000113855
9.45298e-05
9.88664e-05
8.94944e-05
8.46465e-05
8.47056e-05
7.1172e-05
8.00743e-05
5.84503e-05
7.5433e-05
4.65287e-05
7.05296e-05
3.5518e-05
6.50265e-05
2.55843e-05
5.85751e-05
1.69507e-05
5.08739e-05
9.8605e-06
4.17708e-05
4.55189e-06
3.12897e-05
1.22172e-06
1.96525e-05
7.22564e-06
0.000289105
0.000180537
-0.000313894
0.000265526
0.000170822
0.000243074
0.000161739
0.000221719
0.000153093
0.000201417
0.000144903
0.000182122
0.000137158
0.000163788
0.00012984
0.000146368
0.000122931
0.000129817
0.000116411
0.00011409
0.000110257
9.91476e-05
0.000104437
8.49514e-05
9.89017e-05
7.1484e-05
9.35417e-05
5.8747e-05
8.81699e-05
4.67982e-05
8.24785e-05
3.57403e-05
7.60844e-05
2.57571e-05
6.85583e-05
1.7066e-05
5.9565e-05
9.9285e-06
4.89083e-05
4.58153e-06
3.66367e-05
1.22841e-06
2.30056e-05
8.45404e-06
0.000287906
0.000204797
-0.000312165
0.000264767
0.000193961
0.00024267
0.000183835
0.000221603
0.00017416
0.00020153
0.000164976
0.000182415
0.000156273
0.000164217
0.000148037
0.000146898
0.000140251
0.000130414
0.000132894
0.000114728
0.000125943
9.97986e-05
0.000119367
8.55961e-05
0.000113104
7.20959e-05
0.000107042
5.93115e-05
0.000100954
4.72868e-05
9.45032e-05
3.6147e-05
8.72242e-05
2.60604e-05
7.86449e-05
1.72776e-05
6.83478e-05
1.00484e-05
5.61375e-05
4.63684e-06
4.20482e-05
1.24111e-06
2.64014e-05
9.69515e-06
0.000287316
0.00022851
-0.00031103
0.000264618
0.00021666
0.000242867
0.000205586
0.000222069
0.000194958
0.000202203
0.000184842
0.000183242
0.000175234
0.000165156
0.000166123
0.000147909
0.000157497
0.000131467
0.000149336
0.000115791
0.000141619
0.000100848
0.000134309
8.66041e-05
0.000127348
7.30432e-05
0.000120603
6.0166e-05
0.000113832
4.80341e-05
0.000106635
3.67543e-05
9.8504e-05
2.65292e-05
8.887e-05
1.75937e-05
7.72834e-05
1.024e-05
6.34912e-05
4.72229e-06
4.75659e-05
1.2641e-06
2.98596e-05
1.09593e-05
0.000287375
0.000251665
-0.000310529
0.000265123
0.000238912
0.000243719
0.00022699
0.000223185
0.000215491
0.000203512
0.000204515
0.000184683
0.000194063
0.000166677
0.00018413
0.000149467
0.000174707
0.000133024
0.000165779
0.000117317
0.000157325
0.000102313
0.000149313
8.79847e-05
0.000141677
7.43093e-05
0.000134278
6.12985e-05
0.000126842
4.89991e-05
0.000118934
3.75421e-05
0.000109961
2.71162e-05
9.92958e-05
1.79972e-05
8.64024e-05
1.04704e-05
7.10181e-05
4.82761e-06
5.32087e-05
1.28814e-06
3.3399e-05
1.22474e-05
0.000288073
0.000274251
-0.000310659
0.000266245
0.00026074
0.000245156
0.000248079
0.000224852
0.000235795
0.000205341
0.000224026
0.000186617
0.000212786
0.000168668
0.000202079
0.000151473
0.000191902
0.000135009
0.000182244
0.000119247
0.000173087
0.000104161
0.0001644
8.97202e-05
0.000156118
7.59081e-05
0.00014809
6.27257e-05
0.000140025
5.02301e-05
0.00013143
3.8541e-05
0.00012165
2.78761e-05
0.000109961
1.85121e-05
9.57664e-05
1.07758e-05
7.87543e-05
4.96552e-06
5.9019e-05
1.32476e-06
3.70398e-05
1.35722e-05
0.00028943
0.000296239
-0.000311418
0.000268052
0.000282119
0.000247292
0.000268839
0.00022721
0.000255878
0.00020783
0.000243406
0.000189167
0.000231449
0.000171222
0.000220024
0.000153985
0.000209139
0.00013744
0.000198789
0.000121565
0.000188962
0.000106335
0.00017963
9.17254e-05
0.000170727
7.77153e-05
0.0001621
6.43103e-05
0.00015343
5.15609e-05
0.000144179
3.96018e-05
0.000133609
2.86543e-05
0.000120908
1.90277e-05
0.000105393
1.10629e-05
8.67191e-05
5.08747e-06
6.49944e-05
1.35006e-06
4.07772e-05
1.49222e-05
0.000291262
0.000317637
-0.00031266
0.000270259
0.000303122
0.000249782
0.000289316
0.000229897
0.000275762
0.000210642
0.000262661
0.00019204
0.000250051
0.000174101
0.000237964
0.000156822
0.000226418
0.000140195
0.000215417
0.000124202
0.000204954
0.000108825
0.000195007
9.40381e-05
0.000185514
7.98222e-05
0.000176316
6.61764e-05
0.000167076
5.31521e-05
0.000157204
4.08826e-05
0.000145879
2.96086e-05
0.000132182
1.96613e-05
0.00011534
1.14211e-05
9.49592e-05
5.24139e-06
7.11742e-05
1.38702e-06
4.46316e-05
1.63092e-05
0.00029346
0.00033823
-0.000314053
0.000272937
0.000323645
0.000252764
0.000309489
0.000233047
0.00029548
0.00021386
0.000281848
0.000195252
0.000268659
0.000177248
0.000255968
0.000159858
0.000243807
0.000143082
0.000232193
0.00012691
0.000221126
0.000111326
0.000210591
9.63076e-05
0.000200532
8.18347e-05
0.000190789
6.79058e-05
0.000181005
5.45701e-05
0.000170539
4.19695e-05
0.000158479
3.0362e-05
0.00014379
2.01128e-05
0.000125589
1.16344e-05
0.000103438
5.30427e-06
7.75043e-05
1.38726e-06
4.85486e-05
1.76965e-05
0.000295959
0.000358087
-0.000315816
0.00027577
0.000343834
0.000255899
0.000329359
0.000236385
0.000314995
0.000217314
0.000300918
0.000198745
0.000287228
0.000180713
0.000274
0.000163239
0.000261281
0.000146331
0.000249101
0.000129985
0.000237471
0.00011419
0.000226386
9.89252e-05
0.000215797
8.41688e-05
0.000205545
6.99158e-05
0.000195258
5.62166e-05
0.000184239
4.32226e-05
0.000171473
3.12165e-05
0.000155796
2.05989e-05
0.000136207
1.18247e-05
0.000112212
5.30731e-06
8.40216e-05
1.33259e-06
5.25233e-05
1.90291e-05
1.24972e-05
0.000360569
-1.4979e-05
9.95098e-06
0.000346381
7.51389e-06
0.000331796
5.09635e-06
0.000317412
2.70824e-06
0.000303307
3.4464e-07
0.000289592
-1.99332e-06
0.000276338
-4.3006e-06
0.000263589
-6.56999e-06
0.00025137
-8.78977e-06
0.000239691
-1.0934e-05
0.000228531
-1.29394e-05
0.000217802
-1.46719e-05
0.000207278
-1.59055e-05
0.000196491
-1.63455e-05
0.000184679
-1.57155e-05
0.000170843
-1.38842e-05
0.000153965
-1.09769e-05
0.0001333
-7.41556e-06
0.000108651
-3.86975e-06
8.04758e-05
-1.13864e-06
4.97922e-05
1.78904e-05
7.28067e-06
0.000363355
-1.00667e-05
4.62714e-06
0.000349034
2.01257e-06
0.000334411
-5.4552e-07
0.00031997
-3.03102e-06
0.000305792
-5.44387e-06
0.000292005
-7.7789e-06
0.000278673
-1.00309e-05
0.000265841
-1.21927e-05
0.000253532
-1.42496e-05
0.000241748
-1.61655e-05
0.000230446
-1.78566e-05
0.000219493
-1.91625e-05
0.000208584
-1.984e-05
0.000197169
-1.96054e-05
0.000184444
-1.82305e-05
0.000169468
-1.566e-05
0.000151394
-1.20995e-05
0.000129739
-8.03161e-06
0.000104583
-4.14989e-06
7.65941e-05
-1.23211e-06
4.68744e-05
1.66583e-05
2.0019e-06
0.000366359
-5.00547e-06
-7.62489e-07
0.000351799
-3.47887e-06
0.000337127
-6.0881e-06
0.00032258
-8.58827e-06
0.000308292
-1.09763e-05
0.000294393
-1.32474e-05
0.000280944
-1.53975e-05
0.000267991
-1.74183e-05
0.000255553
-1.92898e-05
0.00024362
-2.09609e-05
0.000232118
-2.23228e-05
0.000220855
-2.31877e-05
0.000209449
-2.32992e-05
0.00019728
-2.23915e-05
0.000183536
-2.02909e-05
0.000167368
-1.70218e-05
0.000148125
-1.28715e-05
0.000125589
-8.3802e-06
0.000100092
-4.25597e-06
7.24698e-05
-1.24335e-06
4.38618e-05
1.5415e-05
-3.28679e-06
0.000369477
1.68524e-07
-6.1492e-06
0.000354661
-8.91848e-06
0.000339896
-1.15386e-05
0.0003252
-1.40164e-05
0.00031077
-1.63463e-05
0.000296723
-1.85253e-05
0.000283123
-2.05498e-05
0.000270015
-2.24091e-05
0.000257412
-2.4074e-05
0.000245284
-2.54737e-05
0.000233517
-2.64718e-05
0.000221853
-2.68557e-05
0.000209833
-2.63648e-05
0.000196789
-2.4764e-05
0.000181936
-2.19456e-05
0.00016455
-1.80201e-05
0.000144199
-1.33539e-05
0.000120923
-8.5322e-06
9.52699e-05
-4.25798e-06
6.81956e-05
-1.22235e-06
4.08261e-05
1.41926e-05
-8.69064e-06
0.00037265
5.51784e-06
-1.16092e-05
0.000357579
-1.43805e-05
0.000342668
-1.69697e-05
0.000327789
-1.93864e-05
0.000313187
-2.16255e-05
0.000298962
-2.36858e-05
0.000285183
-2.55628e-05
0.000271892
-2.7241e-05
0.00025909
-2.86767e-05
0.00024672
-2.97758e-05
0.000234616
-3.03728e-05
0.00022245
-3.02361e-05
0.000209696
-2.91113e-05
0.000195664
-2.68071e-05
0.000179631
-2.329e-05
0.000161032
-1.8758e-05
0.000139667
-1.36466e-05
0.000115811
-8.57095e-06
9.01942e-05
-4.21009e-06
6.38348e-05
-1.19041e-06
3.78065e-05
1.30022e-05
-1.43469e-05
0.000375836
1.11609e-05
-1.72766e-05
0.000360509
-2.00082e-05
0.000345399
-2.25301e-05
0.000330311
-2.48516e-05
0.000315508
-2.69701e-05
0.00030108
-2.88856e-05
0.000287099
-3.05916e-05
0.000273598
-3.20632e-05
0.000260562
-3.32389e-05
0.000247896
-3.39962e-05
0.000235374
-3.41433e-05
0.000222597
-3.3435e-05
0.000208988
-3.16375e-05
0.000193867
-2.86126e-05
0.000176606
-2.44111e-05
0.000156831
-1.93123e-05
0.000134569
-1.38136e-05
0.000110312
-8.53946e-06
8.49201e-05
-4.13484e-06
5.94301e-05
-1.15296e-06
3.48246e-05
1.18493e-05
-2.04063e-05
0.00037899
1.72516e-05
-2.32961e-05
0.000363399
-2.5946e-05
0.000348049
-2.83627e-05
0.000332727
-3.05545e-05
0.0003177
-3.25222e-05
0.000303048
-3.42657e-05
0.000288842
-3.57731e-05
0.000275105
-3.70068e-05
0.000261796
-3.78808e-05
0.00024877
-3.82439e-05
0.000235737
-3.78778e-05
0.000222231
-3.65374e-05
0.000207647
-3.40176e-05
0.000191347
-3.02514e-05
0.00017284
-2.53709e-05
0.00015195
-1.97403e-05
0.000128938
-1.38965e-05
0.000104469
-8.46688e-06
7.94905e-05
-4.04503e-06
5.50083e-05
-1.114e-06
3.18936e-05
1.07353e-05
-2.7079e-05
0.000382072
2.39971e-05
-2.98804e-05
0.0003662
-3.24074e-05
0.000350576
-3.46792e-05
0.000334999
-3.67045e-05
0.000319725
-3.8487e-05
0.00030483
-4.00245e-05
0.00029038
-4.12967e-05
0.000276378
-4.22466e-05
0.000262746
-4.27607e-05
0.000249284
-4.26555e-05
0.000235632
-4.16958e-05
0.000221271
-3.96425e-05
0.000205594
-3.63413e-05
0.000188046
-3.17969e-05
0.000168296
-2.62372e-05
0.000146391
-2.00907e-05
0.000122792
-1.39345e-05
9.83124e-05
-8.3732e-06
7.39292e-05
-3.95147e-06
5.05866e-05
-1.07534e-06
2.90174e-05
9.65994e-06
-3.45614e-05
0.000385032
3.16018e-05
-3.72211e-05
0.00036886
-3.95792e-05
0.000352934
-4.16624e-05
0.000337083
-4.34805e-05
0.000321544
-4.50386e-05
0.000306388
-4.63293e-05
0.000291671
-4.73184e-05
0.000277367
-4.79246e-05
0.000263352
-4.80006e-05
0.00024936
-4.73346e-05
0.000234966