/*--------------------------------*- C++ -*----------------------------------*\
| =========                 |                                                 |
| \\      /  F ield         | OpenFOAM Extend Project: Open source CFD        |
|  \\    /   O peration     | Version:  1.6-ext                               |
|   \\  /    A nd           | Web:      www.extend-project.de                 |
|    \\/     M anipulation  |                                                 |
\*---------------------------------------------------------------------------*/
FoamFile
{
    version     2.0;
    format      ascii;
    class       volVectorField;
    location    "0.9";
    object      U;
}
// * * * * * * * * * * * * * * * * * * * * * * * * * * * * * * * * * * * * * //

dimensions      [0 1 -1 0 0 0 0];

internalField   nonuniform List<vector> 
20940
(
(1.84818 0.397777 -3.40415e-21)
(1.88772 0.417808 2.88182e-21)
(1.92515 0.43712 -5.63706e-22)
(1.95964 0.454668 5.63661e-21)
(1.99089 0.47066 7.09155e-22)
(2.01725 0.483972 9.12103e-21)
(2.03575 0.493496 1.21226e-20)
(2.04158 0.497284 -1.9247e-20)
(2.02834 0.493104 7.50791e-21)
(1.98896 0.478719 -9.77698e-21)
(1.91721 0.452591 1.06087e-20)
(1.80951 0.414492 2.57007e-20)
(1.66633 0.365859 7.8956e-21)
(1.49255 0.309683 -3.22208e-20)
(1.29662 0.249974 1.74648e-20)
(1.08899 0.19099 1.91937e-23)
(0.880177 0.136533 0)
(0.679255 0.0895025 0)
(0.493032 0.0517083 0)
(0.325801 0.0239222 -6.02129e-21)
(0.17958 0.00662222 -6.27124e-21)
(0.0545831 0.000490363 5.22362e-21)
(1.87503 0.374561 0)
(1.91329 0.393439 -6.04696e-21)
(1.94914 0.41094 4.08999e-21)
(1.98144 0.426704 0)
(2.00939 0.44039 -6.23789e-21)
(2.03047 0.450795 1.36769e-21)
(2.04068 0.456506 -1.07864e-20)
(2.03428 0.455487 0)
(2.00451 0.445673 1.59844e-20)
(1.94487 0.425383 1.95029e-20)
(1.85089 0.393983 -4.35734e-20)
(1.72166 0.352295 1.16781e-20)
(1.56061 0.30265 -7.09022e-21)
(1.37505 0.248507 0)
(1.17483 0.193777 0)
(0.970485 0.142128 1.82144e-20)
(0.771592 0.0964729 2.01392e-20)
(0.585709 0.0587601 -3.1452e-20)
(0.417984 0.0299649 2.2577e-20)
(0.271259 0.010235 -1.73599e-20)
(0.146498 -0.000370296 3.09072e-20)
(0.0433105 -0.0014099 -2.55033e-20)
(1.89967 0.351313 9.6103e-21)
(1.93633 0.369108 0)
(1.97002 0.384904 0)
(1.99929 0.398893 2.44388e-20)
(2.02252 0.410168 1.45859e-20)
(2.03619 0.41744 -1.81407e-20)
(2.03528 0.419054 -2.27091e-20)
(2.01339 0.413047 2.71339e-20)
(1.96397 0.397734 -1.59518e-20)
(1.88191 0.372188 -3.71505e-20)
(1.76517 0.336755 2.12855e-20)
(1.61583 0.293193 -4.98845e-20)
(1.44007 0.244441 2.65972e-20)
(1.24702 0.194048 0)
(1.04707 0.145501 0)
(0.850069 0.101687 -1.8199e-20)
(0.664175 0.0646102 1.98719e-20)
(0.495231 0.0353747 -2.99525e-20)
(0.346776 0.014289 2.09903e-20)
(0.220367 0.00104661 0)
(0.116103 -0.00458706 4.72164e-20)
(0.0331393 -0.00236338 -4.84437e-20)
(1.92315 0.328406 -5.06547e-20)
(1.95774 0.345186 6.07936e-20)
(1.98848 0.359315 0)
(2.01338 0.371432 -5.09675e-20)
(2.02982 0.380056 -3.43766e-21)
(2.03318 0.383849 7.4405e-20)
(2.0176 0.38104 2.08168e-20)
(1.97656 0.36995 -2.02776e-21)
(1.90454 0.349498 -6.59173e-20)
(1.79862 0.31966 1.08568e-19)
(1.65975 0.281722 -6.28174e-20)
(1.49302 0.238155 0)
(1.30681 0.192141 8.87321e-22)
(1.1112 0.146957 -5.88169e-20)
(0.91618 0.105418 1.26394e-19)
(0.730324 0.0695526 -6.75612e-20)
(0.560021 0.0405234 -5.50241e-20)
(0.409372 0.0187375 7.70928e-20)
(0.280453 0.00400951 -2.0974e-20)
(0.17375 -0.00426584 4.32581e-20)
(0.0886961 -0.00650302 5.73382e-22)
(0.0241347 -0.0025692 -2.76021e-20)
(1.94519 0.305913 7.55101e-20)
(1.97705 0.321675 -6.61041e-20)
(2.00367 0.334087 0)
(2.02231 0.344128 0)
(2.02918 0.349776 3.3563e-20)
(2.01867 0.349737 -1.15454e-19)
(1.98451 0.342311 -1.51049e-21)
(1.92091 0.32634 2.70908e-20)
(1.82427 0.301531 0)
(1.6946 0.268787 0)
(1.53601 0.230165 -1.74134e-21)
(1.35614 0.188502 4.49112e-20)
(1.1647 0.14685 2.58447e-20)
(0.97171 0.107922 0)
(0.786023 0.0737407 0)
(0.614455 0.0455093 6.57824e-20)
(0.461551 0.0236849 -1.05382e-19)
(0.329797 0.00815509 -3.73304e-20)
(0.220037 -0.00159222 1.80752e-20)
(0.131935 -0.00632766 1.64033e-19)
(0.0644629 -0.00655236 -1.05857e-19)
(0.0162994 -0.00219115 0)
(1.96529 0.283903 -2.67674e-20)
(1.99343 0.298593 3.39781e-20)
(2.0142 0.309142 9.10193e-20)
(2.02397 0.316793 -5.12108e-20)
(2.01773 0.319084 6.59648e-20)
(1.9893 0.314931 4.06271e-20)
(1.93279 0.302937 -4.45596e-20)
(1.8441 0.282682 0)
(1.72243 0.254738 -6.36288e-20)
(1.57106 0.220813 1.3895e-19)
(1.39694 0.183424 -4.02703e-20)
(1.2094 0.145395 8.84776e-20)
(1.01841 0.109323 -1.4663e-19)
(0.833015 0.0771962 1.5768e-19)
(0.660358 0.0502437 -5.66344e-20)
(0.505344 0.028967 -6.27621e-20)
(0.370778 0.0132921 3.19891e-20)
(0.257777 0.00276129 1.0736e-19)
(0.166237 -0.0033203 -1.29702e-19)
(0.0952445 -0.00578503 0)
(0.0434995 -0.00515564 2.08707e-20)
(0.00963041 -0.00137996 6.82674e-20)
(1.98299 0.262187 5.91956e-20)
(2.00583 0.275615 -3.49243e-20)
(2.01824 0.284031 -4.44347e-20)
(2.01565 0.28892 1.1368e-19)
(1.99213 0.287548 -1.29217e-19)
(1.94168 0.279248 0)
(1.85982 0.263155 0)
(1.7451 0.239703 -5.29968e-20)
(1.60007 0.210255 0)
(1.43107 0.177051 -6.94967e-20)
(1.24707 0.142692 -7.80156e-20)
(1.05796 0.109647 1.26992e-19)
(0.872911 0.0798594 -4.48508e-20)
(0.699339 0.054566 -5.20506e-20)
(0.542431 0.0343061 1.10609e-19)
(0.40525 0.0190484 0)
(0.289114 0.00836616 6.40053e-20)
(0.194081 0.00160701 -1.68013e-19)
(0.119381 -0.00199639 1.0719e-19)
(0.0637478 -0.00326628 -7.51197e-20)
(0.0257596 -0.00270703 1.15522e-19)
(0.00408148 -0.000271568 -1.59722e-20)
(1.99678 0.240697 0)
(2.01204 0.252606 -1.18732e-19)
(2.01277 0.258567 4.4769e-20)
(1.99368 0.260337 -5.55221e-20)
(1.9486 0.255164 -6.93554e-20)
(1.87277 0.243029 7.63296e-20)
(1.76417 0.223753 0)
(1.62473 0.198595 1.59621e-19)
(1.46025 0.169471 -1.16648e-19)
(1.27939 0.138792 0)
(1.09195 0.108887 0)
(0.907234 0.0816435 0)
(0.732868 0.0582964 4.41871e-20)
(0.574276 0.0394148 0)
(0.434727 0.0250104 -5.39319e-20)
(0.315697 0.014697 0)
(0.21735 0.00784919 5.96164e-20)
(0.138998 0.00373542 1.30029e-21)
(0.0794594 0.00159155 -1.36989e-19)
(0.0373002 0.00064852 1.42039e-19)
(0.011086 0.000440894 3.30793e-22)
(-0.000425174 0.00101646 1.63252e-20)
(2.00538 0.218873 -6.6974e-20)
(2.00975 0.228869 7.76657e-20)
(1.99461 0.232036 0)
(1.95452 0.23053 0)
(1.88412 0.221831 0)
(1.78105 0.206706 0)
(1.6466 0.185668 -9.02094e-20)
(1.48613 0.160595 0)
(1.308 0.133614 -5.74913e-20)
(1.12198 0.106948 0)
(0.937492 0.0824122 -7.25132e-20)
(0.762359 0.0612352 3.04265e-22)
(0.602223 0.0440111 -4.38841e-20)
(0.460525 0.0307943 -4.61904e-20)
(0.338861 0.021245 -1.52072e-19)
(0.237469 0.0147783 2.17944e-19)
(0.155698 0.010689 -1.74977e-19)
(0.0924 0.00824484 3.15204e-20)
(0.0461872 0.00673029 -3.20396e-20)
(0.0155902 0.00545094 -1.37542e-19)
(-0.000761588 0.00398737 3.50158e-20)
(-0.00398866 0.00238693 1.19746e-19)
(2.0053 0.196759 6.63071e-20)
(1.99488 0.204523 8.32566e-20)
(1.95946 0.204753 -5.07488e-20)
(1.8945 0.200095 1.7426e-19)
(1.79666 0.188525 7.14995e-20)
(1.66692 0.171621 8.15514e-20)
(1.51011 0.150447 1.79986e-21)
(1.33441 0.127177 0)
(1.14957 0.103798 5.69343e-20)
(0.965145 0.082086 6.46882e-20)
(0.789193 0.0632416 -1.37376e-19)
(0.627559 0.047882 7.71894e-20)
(0.483849 0.0361013 -8.20149e-20)
(0.35976 0.0276084 4.58334e-20)
(0.255578 0.0218662 1.47674e-19)
(0.170668 0.0182101 -2.60918e-19)
(0.103879 0.0159346 1.11112e-19)
(0.0538247 0.0143535 5.8427e-20)
(0.0190653 0.0128219 3.19113e-20)
(-0.00181468 0.0107264 -1.32043e-19)
(-0.0100799 0.00769329 1.3645e-19)
(-0.00672154 0.00376514 2.84861e-20)
(1.99476 0.173331 0)
(1.96472 0.178597 -8.23344e-20)
(1.90483 0.176006 -5.13009e-20)
(1.81236 0.16884 -6.08314e-20)
(1.68714 0.155647 -6.91038e-20)
(1.53384 0.13861 -7.73035e-20)
(1.3603 0.119066 8.76188e-20)
(1.17636 0.0991258 -9.97911e-20)
(0.991763 0.0803816 1.08846e-19)
(0.814821 0.0640496 6.15194e-20)
(0.651612 0.0507522 0)
(0.505907 0.0406266 0)
(0.379495 0.0334315 8.12162e-20)
(0.272699 0.0286824 8.75428e-20)
(0.184882 0.0257643 -2.34059e-19)
(0.114869 0.0240131 1.51333e-19)
(0.0612523 0.0227704 -1.08245e-19)
(0.0225805 0.0214191 5.56056e-20)
(-0.00253984 0.019392 0)
(-0.0154176 0.0161557 0)
(-0.0171944 0.0113788 0)
(-0.00874051 0.0050963 -9.63842e-22)
(1.96774 0.149692 7.47051e-20)
(1.91468 0.152552 -8.11892e-20)
(1.82768 0.14767 -9.79765e-20)
(1.70773 0.138907 -5.79563e-20)
(1.55811 0.125399 -6.75609e-20)
(1.38687 0.109682 1.53129e-19)
(1.20372 0.0930815 -8.5645e-20)
(1.01876 0.0773711 9.61264e-20)
(0.840613 0.0636298 0)
(0.675654 0.0525232 -1.19274e-19)
(0.527853 0.0442096 6.46897e-20)
(0.399108 0.0384956 -1.43225e-19)
(0.289771 0.0349463 2.30667e-19)
(0.199191 0.0329965 0)
(0.126159 0.0320285 1.36993e-19)
(0.0692291 0.0314228 1.08105e-21)
(0.0269183 0.030589 -1.03302e-19)
(-0.00217811 0.0289852 0)
(-0.0193461 0.02612 0)
(-0.0257635 0.021534 0)
(-0.0224485 0.0149354 0)
(-0.0101667 0.00635094 -1.6337e-19)
(1.92596 0.123902 0)
(1.84536 0.124708 8.54728e-20)
(1.73054 0.118543 0)
(1.58515 0.109578 -1.45928e-21)
(1.41611 0.0974683 6.70454e-20)
(1.23367 0.0846081 7.56402e-20)
(1.04803 0.0721052 -8.49491e-20)
(0.868326 0.0612204 3.1645e-22)
(0.701265 0.0525386 1.45189e-21)
(0.551086 0.0462768 -2.87519e-19)
(0.419815 0.04228 6.21555e-20)
(0.307847 0.0401684 1.37137e-19)
(0.214509 0.0394288 -7.67584e-20)
(0.138545 0.0394927 8.08012e-20)
(0.078455 0.0397847 0)
(0.0327126 0.039751 -4.65481e-20)
(-0.000116908 0.0388746 0)
(-0.0213269 0.0366862 0)
(-0.0320671 0.0327639 -1.12994e-19)
(-0.0333786 0.0267163 -7.62494e-22)
(-0.0261656 0.0182902 1.23e-19)
(-0.0111097 0.00750927 2.68922e-20)
(1.85935 0.100276 0)
(1.75388 0.099709 0)
(1.61311 0.0930944 0)
(1.44769 0.0849536 1.15985e-19)
(1.26627 0.0751547 -6.60574e-20)
(1.08018 0.0657509 -1.48971e-19)
(0.898764 0.0575545 8.54581e-22)
(0.729362 0.0512779 -9.18373e-20)
(0.576515 0.0470969 0)
(0.442466 0.0448995 1.6919e-19)
(0.327681 0.0443416 -1.22248e-19)
(0.231487 0.0449572 0)
(0.152581 0.0462229 1.45236e-19)
(0.0894015 0.0476047 -1.56839e-19)
(0.0403652 0.0485836 0)
(0.00399562 0.0486704 4.59975e-20)
(-0.0210241 0.047413 0)
(-0.0358445 0.0444037 -5.11405e-20)
(-0.0414725 0.0392794 -5.39988e-20)
(-0.0388192 0.031708 0)
(-0.028688 0.0214722 1.19955e-19)
(-0.0116919 0.0085958 -1.03245e-19)
(1.78457 0.0732076 -7.7018e-20)
(1.64872 0.0720704 1.74203e-19)
(1.48639 0.0672849 1.02683e-19)
(1.30638 0.0612013 2.68291e-21)
(1.11923 0.0552347 6.58745e-20)
(0.935585 0.0502556 8.2819e-22)
(0.763098 0.0468369 8.17003e-20)
(0.606845 0.0451422 0)
(0.469316 0.0450656 0)
(0.351123 0.0463188 1.08842e-19)
(0.251618 0.0485045 0)
(0.169463 0.0511723 6.58547e-20)
(0.103025 0.0538517 -3.53448e-19)
(0.0506433 0.056073 1.52062e-19)
(0.0107729 0.0573806 8.25856e-20)
(-0.0179496 0.0573421 -4.40753e-20)
(-0.0366969 0.0555553 -1.41275e-19)
(-0.0464715 0.0516575 1.50281e-19)
(-0.0481429 0.0453307 5.34362e-20)
(-0.042503 0.0362928 0)
(-0.0302672 0.024363 0)
(-0.0119964 0.00957347 -1.01204e-19)
(1.63404 0.0531994 4.21503e-20)
(1.4681 0.0495116 -4.33738e-20)
(1.28642 0.0467466 1.10046e-19)
(1.1 0.0437062 2.00428e-21)
(0.918065 0.0419847 2.08905e-19)
(0.748162 0.0414784 -1.54061e-19)
(0.594794 0.0423849 0)
(0.460209 0.0445115 0)
(0.344777 0.0476073 0)
(0.247693 0.0513397 -1.13703e-19)
(0.167491 0.0553394 -6.16965e-20)
(0.102439 0.059215 2.02181e-19)
(0.0508057 0.0625645 1.02652e-21)
(0.0109945 0.0649842 -1.56082e-19)
(-0.0183855 0.0660783 8.36622e-20)
(-0.0385123 0.0654692 -4.52025e-20)
(-0.0503722 0.0628088 4.80806e-20)
(-0.0547973 0.0577907 0)
(-0.0525096 0.0501606 5.26513e-20)
(-0.0441752 0.0397147 0)
(-0.0304121 0.0263476 0)
(-0.0117256 0.0101412 0)
(1.37935 0.0308975 -8.89749e-20)
(1.19603 0.0297409 -1.99839e-19)
(1.01364 0.0314242 -2.26154e-19)
(0.83929 0.0327942 1.58996e-21)
(0.679091 0.0357266 -1.41695e-19)
(0.536344 0.0392694 7.88536e-20)
(0.412333 0.0435886 0)
(0.306799 0.0483785 0)
(0.218553 0.0534326 -1.05733e-19)
(0.145928 0.0584847 2.30222e-19)
(0.0871173 0.0632508 -6.21463e-20)
(0.0403808 0.0674219 -6.76927e-20)
(0.0041583 0.0706713 7.30578e-20)
(-0.0228877 0.0726629 0)
(-0.0418719 0.0730634 -4.21684e-20)
(-0.0537119 0.071556 -4.42951e-20)
(-0.0591658 0.0678552 -1.42598e-19)
(-0.0588739 0.061721 0)
(-0.0533982 0.0529703 -5.314e-20)
(-0.0432642 0.041479 -1.1011e-19)
(-0.0289658 0.027215 1.13796e-19)
(-0.0109178 0.0102915 9.77204e-20)
(1.09446 0.0183181 4.41386e-20)
(0.91656 0.0202968 1.54633e-19)
(0.752823 0.0259338 1.1632e-19)
(0.603611 0.0306172 -1.30534e-19)
(0.472731 0.0365487 0)
(0.359994 0.0424724 0)
(0.264864 0.048611 8.92759e-20)
(0.185792 0.0546798 -1.95144e-19)
(0.12103 0.0605392 0)
(0.0687547 0.065987 -5.82079e-20)
(0.0272725 0.070804 0)
(-0.00491305 0.0747402 6.87465e-20)
(-0.0290705 0.077522 -1.48179e-19)
(-0.0462477 0.0788618 7.91075e-20)
(-0.0572978 0.0784719 4.25486e-20)
(-0.0629142 0.0760809 4.52663e-20)
(-0.0636682 0.0714502 -1.38128e-22)
(-0.0600453 0.0643894 -3.01127e-22)
(-0.0524766 0.0547681 1.04726e-19)
(-0.0413693 0.0425197 1.09171e-19)
(-0.0271107 0.0276621 -1.40673e-19)
(-0.0100367 0.0103229 2.38257e-20)
(0.815359 0.0124568 0)
(0.659388 0.0182539 0)
(0.524319 0.0264709 0)
(0.405134 0.0334272 -6.72346e-20)
(0.304316 0.0408933 7.40294e-20)
(0.219638 0.0478821 -8.23845e-20)
(0.149875 0.0546221 -4.74032e-22)
(0.0930719 0.060934 1.98248e-19)
(0.0475027 0.0667523 -1.08624e-19)
(0.0115296 0.0719418 5.86428e-20)
(-0.0162607 0.0763382 1.9155e-19)
(-0.0370646 0.0797357 -1.38492e-19)
(-0.0518662 0.0818973 1.4845e-19)
(-0.0614627 0.0825667 -7.97691e-20)
(-0.0664954 0.0814845 8.47715e-20)
(-0.0674823 0.0784071 0)
(-0.0648503 0.0731239 4.73957e-20)
(-0.0589636 0.0654733 2.10735e-22)
(-0.0501467 0.0553541 1.76263e-22)
(-0.0387064 0.0427311 -2.16366e-19)
(-0.0249373 0.0276458 1.39699e-19)
(-0.00910267 0.0102248 -2.37742e-20)
(0.564924 0.0129948 0)
(0.4392 0.0216912 -5.46534e-20)
(0.334931 0.0307241 5.45691e-22)
(0.245182 0.0385804 -6.78273e-20)
(0.171432 0.046221 -7.54137e-20)
(0.110814 0.0531649 8.35548e-20)
(0.0620123 0.059602 4.05153e-22)
(0.0231828 0.0654632 3.92536e-22)
(-0.0071433 0.0707299 -5.47211e-20)
(-0.0303006 0.0753117 -5.9418e-20)
(-0.0474001 0.0790763 -2.58218e-19)
(-0.0593626 0.081844 2.77987e-19)
(-0.0669354 0.0833989 -3.73938e-20)
(-0.0707187 0.0835036 7.99885e-20)
(-0.071193 0.0819163 -8.49238e-20)
(-0.0687464 0.0784101 0)
(-0.0636985 0.0727904 -4.71965e-20)
(-0.0563217 0.0649101 0)
(-0.0468574 0.0546802 0)
(-0.0355299 0.0420769 0)
(-0.0225573 0.0271432 -8.30879e-20)
(-0.00813907 0.00998682 1.1593e-19)
(0.354665 0.0170409 0)
(0.26017 0.0269378 2.22788e-19)
(0.184086 0.0356336 0)
(0.120137 0.0432849 0)
(0.0689557 0.050263 7.65504e-20)
(0.0279122 0.0564925 0)
(-0.00416939 0.0621268 0)
(-0.0288168 0.0671775 0)
(-0.0471977 0.0716512 -1.66129e-19)
(-0.0603504 0.0754855 5.98738e-20)
(-0.0691258 0.0785673 3.24842e-19)
(-0.0742234 0.0807332 -2.44736e-19)
(-0.0762079 0.0817816 -3.7631e-20)
(-0.0755322 0.0814882 0)
(-0.0725593 0.0796236 4.23652e-20)
(-0.0675824 0.0759714 0)
(-0.0608429 0.0703453 2.39839e-20)
(-0.0525453 0.0626029 7.43557e-20)
(-0.042868 0.0526556 -2.31444e-19)
(-0.0319709 0.0404758 1.06448e-19)
(-0.0200125 0.0260918 -2.75366e-20)
(-0.00714492 0.009578 7.97899e-20)
(0.18594 0.0219905 0)
(0.119296 0.0314258 -5.66308e-20)
(0.0669741 0.0391169 0)
(0.02427 0.0458503 -7.00153e-20)
(-0.00879825 0.051737 1.54084e-19)
(-0.0343089 0.0569211 -8.49084e-20)
(-0.0532484 0.0615371 0)
(-0.0668012 0.0656436 0)
(-0.0758682 0.0692591 -1.11441e-19)
(-0.081238 0.0723376 1.20626e-19)
(-0.0835543 0.0747783 6.505e-20)
(-0.0833445 0.0764303 1.05455e-19)
(-0.0810347 0.0771047 -3.73605e-20)
(-0.0769678 0.0765897 -1.60303e-19)
(-0.0714199 0.0746677 1.2739e-19)
(-0.0646155 0.0711319 -4.50219e-20)
(-0.0567397 0.0658017 2.36768e-20)
(-0.0479489 0.058535 1.23214e-19)
(-0.0383761 0.0492376 -7.65785e-20)
(-0.0281345 0.0378699 1.31885e-19)
(-0.0173421 0.024436 -2.43872e-19)
(-0.00612315 0.00896815 6.76009e-20)
(0.0550462 0.025796 0)
(0.0113998 0.0336804 -5.70048e-20)
(-0.0217114 0.039991 6.31934e-20)
(-0.0474984 0.0454618 0)
(-0.0663108 0.0501172 -1.55564e-19)
(-0.0796752 0.0541698 8.59024e-20)
(-0.0883959 0.0577438 4.68925e-20)
(-0.0933587 0.060917 1.02904e-19)
(-0.095245 0.0637136 2.58629e-22)
(-0.0946423 0.0660978 -2.42361e-19)
(-0.09203 0.0679797 6.52779e-20)
(-0.087801 0.0692215 -3.4997e-20)
(-0.082274 0.0696492 -3.74869e-20)
(-0.0757079 0.0690666 0)
(-0.0683136 0.0672706 -4.23639e-20)
(-0.0602652 0.0640667 -6.73066e-20)
(-0.051708 0.059282 0)
(-0.0427657 0.0527758 9.80069e-20)
(-0.033542 0.0444479 -2.03334e-19)
(-0.0241199 0.0342451 7.85549e-20)
(-0.0145956 0.0221448 4.03936e-20)
(-0.00508507 0.0081358 1.11679e-20)
(-0.042767 0.0272875 5.48697e-22)
(-0.0681391 0.0332097 5.01456e-22)
(-0.0860941 0.0379862 -1.27401e-19)
(-0.0987214 0.0420971 -7.05653e-20)
(-0.106523 0.0455401 1.56798e-19)
(-0.110582 0.0485106 -8.59482e-20)
(-0.111533 0.051119 -9.4484e-20)
(-0.110021 0.0534436 -1.54844e-19)
(-0.106547 0.0555093 1.12183e-19)
(-0.101534 0.057288 9.15613e-20)
(-0.09533 0.0587013 -6.56042e-20)
(-0.0882197 0.0596269 3.53592e-20)
(-0.0804363 0.0599093 0)
(-0.0721722 0.0593723 -4.00187e-20)
(-0.0635884 0.0578322 4.26012e-20)
(-0.0548213 0.055112 1.30386e-22)
(-0.0459884 0.0510518 0)
(-0.0371927 0.0455178 0)
(-0.0285212 0.0384091 0)
(-0.0200411 0.0296634 0)
(-0.0118436 0.0192356 -1.33919e-20)
(-0.00405393 0.00707783 -9.87545e-20)
(-0.111101 0.026038 0)
(-0.122365 0.0300698 0)
(-0.128701 0.0333702 0)
(-0.131429 0.0361975 3.5789e-20)
(-0.131045 0.0385446 -7.8708e-20)
(-0.128293 0.0405586 8.62767e-20)
(-0.123649 0.04233 3.52569e-23)
(-0.117561 0.0439259 1.03629e-19)
(-0.110379 0.0453692 0)
(-0.102393 0.0466377 6.10478e-20)
(-0.0938414 0.0476657 0)
(-0.0849198 0.0483496 0)
(-0.0757923 0.0485561 -1.88435e-20)
(-0.0665986 0.0481332 -4.00513e-20)
(-0.05746 0.0469223 1.06095e-19)
(-0.0484843 0.0447691 -6.69426e-20)
(-0.0397692 0.0415338 1.87027e-19)
(-0.0314049 0.0370976 -9.7373e-20)
(-0.0234704 0.0313684 0)
(-0.0160281 0.0242848 -1.29299e-20)
(-0.00917635 0.0157907 0)
(-0.00306317 0.00581542 -7.60464e-20)
(-0.151878 0.0222841 -1.53933e-22)
(-0.152803 0.0247453 -8.66039e-20)
(-0.15076 0.0267864 -3.25079e-20)
(-0.14656 0.0285232 1.06746e-19)
(-0.140595 0.0299551 -3.94909e-20)
(-0.133352 0.0311804 4.3278e-20)
(-0.125154 0.0322674 -2.37558e-20)
(-0.116289 0.0332681 -2.59505e-20)
(-0.106979 0.0342011 0)
(-0.0974047 0.03505 -9.19124e-20)
(-0.0877133 0.0357631 6.59277e-20)
(-0.0780292 0.0362579 0)
(-0.0684607 0.0364265 1.89347e-20)
(-0.0591051 0.0361454 -8.03633e-20)
(-0.0500529 0.0352842 8.48893e-20)
(-0.0413894 0.0337167 0)
(-0.0331972 0.0313284 -1.1668e-20)
(-0.0255571 0.0280236 0)
(-0.0185439 0.0237294 0)
(-0.0122205 0.0183987 1.16126e-19)
(-0.00669822 0.0119815 -1.34492e-20)
(-0.00215435 0.00440553 -8.64429e-20)
(-0.165699 0.0166642 2.61733e-20)
(-0.15993 0.0179627 2.89445e-20)
(-0.152675 0.019048 6.45606e-20)
(-0.144413 0.019956 2.34731e-22)
(-0.135397 0.0206953 -7.90186e-20)
(-0.125913 0.0213264 -2.0456e-22)
(-0.11615 0.021897 7.15258e-20)
(-0.106266 0.0224433 2.60963e-20)
(-0.0963798 0.0229796 0)
(-0.0865826 0.0234953 0)
(-0.076951 0.0239543 -1.65413e-20)
(-0.0675527 0.0242966 -7.10223e-20)
(-0.0584525 0.0244429 7.57472e-20)
(-0.0497152 0.0243 0)
(-0.0414076 0.0237688 -2.12831e-20)
(-0.0335979 0.0227523 0)
(-0.0263562 0.0211645 2.33737e-20)
(-0.0197542 0.0189363 0)
(-0.0138614 0.0160218 1.2549e-20)
(-0.00873899 0.0124003 6.44745e-21)
(-0.00450674 0.00804975 1.31819e-20)
(-0.00136755 0.00292759 5.37311e-21)
(-0.152602 0.0103051 -5.18108e-20)
(-0.143818 0.0108515 1.44697e-20)
(-0.134549 0.0113068 -4.85443e-20)
(-0.125079 0.011668 3.5722e-20)
(-0.115519 0.0119502 0)
(-0.106014 0.0121878 4.37752e-20)
(-0.0966441 0.0124103 -1.1772e-20)
(-0.0874732 0.0126408 -5.2227e-20)
(-0.0785401 0.0128893 7.12109e-20)
(-0.069873 0.0131512 -1.07808e-19)
(-0.0614954 0.0134063 1.49394e-19)
(-0.0534334 0.0136186 -6.22639e-20)
(-0.0457192 0.0137381 9.50629e-21)
(-0.0383936 0.013704 0)
(-0.0315057 0.0134489 0)
(-0.0251111 0.0129055 0)
(-0.0192694 0.0120135 -1.16998e-20)
(-0.0140433 0.0107277 0)
(-0.00949235 0.00902667 -1.2558e-20)
(-0.00566887 0.00691863 -6.44938e-21)
(-0.00268379 0.00442112 -6.59246e-21)
(-0.000741598 0.00154964 -5.3631e-21)
(-0.112611 0.00426855 2.59845e-20)
(-0.104535 0.00441317 -7.26801e-21)
(-0.0964748 0.00451779 8.09971e-21)
(-0.0886266 0.00457862 -8.99382e-21)
(-0.0809989 0.00461163 -3.98852e-20)
(-0.0736456 0.00463414 4.36872e-20)
(-0.0665801 0.00466015 1.20158e-20)
(-0.0598069 0.00470043 0)
(-0.0533193 0.0047606 -1.42723e-20)
(-0.0471071 0.00484043 -1.54513e-20)
(-0.0411626 0.00493314 3.33396e-20)
(-0.0354847 0.00502492 -4.46242e-20)
(-0.0300829 0.00509475 -9.52716e-21)
(-0.024979 0.00511479 0)
(-0.0202067 0.00505148 5.35583e-21)
(-0.0158101 0.00486793 -5.05142e-20)
(-0.01184 0.00452819 4.39771e-20)
(-0.00835025 0.00400374 0)
(-0.00539044 0.00328448 -3.15249e-21)
(-0.00299739 0.0023914 -3.23786e-21)
(-0.00124459 0.00137785 5.93138e-20)
(-0.000288543 0.000352301 -4.30057e-20)
(-0.0462233 0.000435765 5.07803e-20)
(-0.0424739 0.000461649 -3.57227e-20)
(-0.03878 0.00047543 -2.37927e-20)
(-0.0352894 0.000476818 4.35589e-20)
(-0.0319773 0.000473099 0)
(-0.0288579 0.000468732 1.65731e-22)
(-0.0259213 0.000466796 -1.81449e-22)
(-0.0231555 0.000469727 0)
(-0.0205436 0.000479301 -1.07377e-22)
(-0.0180685 0.000496641 2.96341e-20)
(-0.0157147 0.000522016 -3.18657e-20)
(-0.0134707 0.000554521 0)
(-0.0113315 0.000591622 0)
(-0.00929979 0.0006286 -3.86735e-20)
(-0.00738755 0.000657979 -5.10072e-21)
(-0.00561637 0.000669168 4.82382e-20)
(-0.00401714 0.000648704 -4.19503e-20)
(-0.00262878 0.000581941 9.29947e-20)
(-0.00149341 0.000457923 -4.50498e-20)
(-0.000647113 0.000278201 -4.62401e-20)
(-0.000127082 6.85439e-05 5.04904e-20)
(1.78449e-05 -8.45274e-05 -4.15115e-20)
(1.13613 0.0228211 3.98983e-24)
(1.09006 0.0243681 0)
(1.04195 0.0259628 0)
(0.991702 0.027607 2.53694e-20)
(0.939412 0.0293063 -2.78472e-20)
(0.885172 0.0310674 -3.26097e-20)
(0.829073 0.0328933 -1.90893e-20)
(0.771221 0.0347849 1.97385e-20)
(0.711735 0.0367418 2.28042e-20)
(0.650746 0.0387615 -4.93859e-20)
(0.588396 0.0408365 -1.33537e-23)
(0.524852 0.042945 0)
(0.460332 0.0450288 1.6122e-20)
(0.395167 0.046959 0)
(0.32991 0.0484945 9.09733e-24)
(0.265464 0.0492594 1.96817e-20)
(0.203193 0.0487478 0)
(0.144981 0.0463795 -3.27445e-20)
(0.0930919 0.0415818 2.26293e-20)
(0.0499244 0.0338902 -5.72725e-24)
(0.0187181 0.0230033 1.20169e-20)
(0.0035106 0.00882889 4.84456e-24)
(1.14048 0.0788121 3.24727e-20)
(1.09486 0.0844747 -7.43068e-20)
(1.04735 0.0904121 0)
(0.99768 0.0965942 -5.03613e-20)
(0.945969 0.103015 5.52799e-20)
(0.892309 0.109677 0)
(0.836791 0.116578 9.07371e-20)
(0.779522 0.123712 -5.89451e-20)
(0.720621 0.13107 0)
(0.660217 0.138639 7.47207e-20)
(0.598454 0.146386 -5.36462e-20)
(0.535491 0.154224 0)
(0.471533 0.161931 -1.61187e-20)
(0.406881 0.169023 0)
(0.34203 0.174616 -3.64908e-20)
(0.277791 0.177342 5.89716e-20)
(0.215409 0.175395 -8.21413e-20)
(0.156627 0.166719 -7.57351e-20)
(0.103562 0.149309 -5.36597e-22)
(0.0584907 0.121552 2.08668e-19)
(0.0245649 0.0824254 -1.12313e-20)
(0.00578129 0.0316485 -1.56733e-19)
(1.1491 0.134815 1.31365e-21)
(1.10443 0.14461 3.7281e-20)
(1.05816 0.154813 0)
(1.00966 0.165415 9.57281e-20)
(0.959118 0.176407 1.66626e-19)
(0.90664 0.187798 4.03072e-21)
(0.852312 0.199588 -1.38325e-19)
(0.796244 0.211769 7.96729e-20)
(0.738554 0.224329 -8.62797e-20)
(0.679371 0.237246 9.77418e-20)
(0.618834 0.250467 -1.05009e-19)
(0.557091 0.263843 -1.16835e-19)
(0.494317 0.276995 1.24433e-19)
(0.430746 0.28909 0)
(0.366755 0.298613 3.64513e-20)
(0.302966 0.30322 3.75472e-20)
(0.240373 0.299825 3.95156e-20)
(0.180427 0.284917 0)
(0.124956 0.255088 4.29418e-20)
(0.0759882 0.207599 -4.51175e-20)
(0.0365017 0.14073 -2.28728e-20)
(0.0104154 0.0540266 5.78656e-20)
(1.16106 0.188086 6.27306e-20)
(1.11792 0.201893 -7.33515e-20)
(1.0736 0.216221 7.79905e-20)
(1.02695 0.231124 -9.87594e-20)
(0.978254 0.246579 5.1056e-20)
(0.927616 0.262596 0)
(0.875128 0.279175 0)
(0.820905 0.296305 -7.46974e-20)
(0.765068 0.313968 -8.30013e-20)
(0.707745 0.332134 -9.16512e-20)
(0.649072 0.350728 2.0732e-19)
(0.589183 0.369542 -2.21829e-19)
(0.528206 0.388041 0)
(0.466281 0.405053 0)
(0.4036 0.418442 0)
(0.340507 0.424916 -3.74903e-20)
(0.277619 0.420137 -3.94663e-20)
(0.215953 0.399191 -1.62409e-19)
(0.156899 0.357315 1.25034e-19)
(0.102118 0.290707 2.21919e-20)
(0.0543291 0.196999 6.65529e-20)
(0.017334 0.0755988 -1.28865e-19)
(1.17633 0.238761 -5.07701e-21)
(1.13525 0.25645 1.35742e-19)
(1.09352 0.274705 -8.07098e-20)
(1.04933 0.293705 -1.84324e-19)
(1.00307 0.313406 2.02364e-19)
(0.954867 0.333824 -1.18021e-19)
(0.90482 0.35496 2.56321e-19)
(0.853045 0.376802 7.44005e-20)
(0.799668 0.399329 -2.27004e-21)
(0.744818 0.422505 2.68307e-19)
(0.688623 0.446236 9.55474e-20)
(0.631198 0.470258 0)
(0.572615 0.493887 0)
(0.512882 0.515624 0)
(0.451955 0.532736 -2.65478e-19)
(0.389802 0.541012 2.7887e-19)
(0.326546 0.534914 0)
(0.262628 0.508176 -2.282e-19)
(0.198869 0.454756 3.19111e-19)
(0.136447 0.369858 -3.30069e-19)
(0.0777454 0.250535 1.2577e-19)
(0.0264154 0.0960955 0)
(1.19448 0.28555 -1.16107e-19)
(1.156 0.306948 0)
(1.11748 0.328893 -1.47267e-19)
(1.07631 0.351758 0)
(1.03307 0.375467 1.98645e-19)
(0.987896 0.400038 -1.10116e-19)
(0.940868 0.425477 -1.26868e-19)
(0.892119 0.451772 0)
(0.841779 0.478901 -2.27478e-19)
(0.789979 0.506822 8.1947e-20)
(0.736841 0.535425 -5.46403e-21)
(0.682457 0.564397 0)
(0.626828 0.592915 0)
(0.569807 0.619173 0)
(0.511054 0.639869 2.48644e-19)
(0.45008 0.649915 -3.24322e-19)
(0.386392 0.642626 0)
(0.319727 0.610456 7.41636e-20)
(0.250209 0.546166 -7.12976e-20)
(0.17843 0.444048 0)
(0.106374 0.300657 -3.18744e-19)
(0.0375085 0.115254 3.91922e-19)
(1.21508 0.327878 2.15441e-19)
(1.17969 0.352757 4.72675e-21)
(1.14493 0.378093 6.12136e-21)
(1.10732 0.40453 -1.57311e-19)
(1.06763 0.431946 0)
(1.02599 0.460367 -1.0657e-19)
(0.982506 0.489802 0)
(0.937313 0.520239 -1.25048e-19)
(0.890546 0.551657 1.47861e-19)
(0.842337 0.584008 -3.92568e-19)
(0.792805 0.617171 8.19497e-20)
(0.742013 0.650787 8.99405e-20)
(0.689883 0.683911 0)
(0.636082 0.714452 -1.03309e-19)
(0.579925 0.738576 3.38678e-19)
(0.520383 0.750372 -1.78216e-19)
(0.456237 0.742068 6.01532e-20)
(0.386396 0.704921 0)
(0.310163 0.630571 3.43933e-19)
(0.227456 0.512501 1.27247e-21)
(0.139797 0.346847 -5.81268e-19)
(0.0504479 0.132882 2.39548e-19)
(1.23745 0.365046 1.94153e-19)
(1.20565 0.39316 1.18474e-19)
(1.17516 0.421575 -2.32705e-21)
(1.14161 0.451261 1.55928e-19)
(1.10596 0.48204 8.43855e-21)
(1.06835 0.513948 -1.89863e-19)
(1.02889 0.547002 1.03597e-19)
(0.987732 0.581196 1.24029e-19)
(0.945015 0.616511 1.26985e-19)
(0.900877 0.6529 1.50901e-19)
(0.855433 0.690237 3.1842e-19)
(0.808719 0.72813 -4.30498e-19)
(0.760573 0.765527 0)
(0.710457 0.800085 1.96081e-19)
(0.657301 0.827488 -1.08909e-19)
(0.599455 0.841049 -3.21093e-19)
(0.534875 0.831986 1.6818e-19)
(0.461515 0.790424 -2.36052e-19)
(0.377752 0.706987 2.44665e-19)
(0.28274 0.574432 0)
(0.177488 0.388578 0)
(0.0650253 0.148773 2.16729e-19)
(1.26083 0.396488 3.61132e-19)
(1.23309 0.427509 -2.11522e-19)
(1.20729 0.458632 -1.3357e-19)
(1.17818 0.491211 -3.99684e-21)
(1.14697 0.525002 3.18545e-19)
(1.1138 0.560049 1.78684e-19)
(1.07879 0.596373 -9.84914e-20)
(1.0421 0.633968 -2.16687e-19)
(1.00389 0.672817 2.31949e-19)
(0.964293 0.712873 -2.62199e-19)
(0.92342 0.754005 -1.36281e-19)
(0.881279 0.795798 0)
(0.837618 0.837116 0)
(0.791678 0.875404 -9.27156e-20)
(0.741958 0.905908 0)
(0.686124 0.921245 -8.99414e-20)
(0.621203 0.911685 2.01827e-19)
(0.544084 0.866321 -2.06952e-19)
(0.452105 0.774838 2.14699e-19)
(0.343588 0.629376 -5.09694e-20)
(0.218982 0.425534 0)
(0.0810632 0.162818 0)
(1.28433 0.422049 -7.53659e-21)
(1.26113 0.455691 2.01052e-19)
(1.24045 0.489173 -3.38915e-19)
(1.2162 0.524248 -1.2897e-19)
(1.18983 0.5606 2.86634e-19)
(1.16146 0.598298 -5.43667e-21)
(1.13124 0.637382 0)
(1.09935 0.677857 9.3925e-20)
(1.06596 0.719716 -3.31483e-19)
(1.03122 0.762923 -1.58053e-21)
(0.99525 0.80735 1.34189e-19)
(0.958029 0.852574 2.74331e-19)
(0.919223 0.897403 0)
(0.877852 0.93911 -3.06545e-19)
(0.831965 0.972568 3.24567e-19)
(0.778481 0.989751 7.74545e-20)
(0.71341 0.980063 1.71292e-19)
(0.632456 0.931624 -2.58765e-21)
(0.531814 0.833278 -1.82982e-19)
(0.408893 0.67665 5.08407e-20)
(0.263548 0.457237 0)
(0.0982743 0.174823 0)
(1.30707 0.441243 -1.49622e-19)
(1.28877 0.477059 -1.73367e-19)
(1.27338 0.512512 -2.99197e-19)
(1.25421 0.549753 1.13949e-19)
(1.23295 0.58837 0)
(1.2097 0.628433 -1.39645e-20)
(1.18463 0.66998 0)
(1.15793 0.713018 -9.27188e-20)
(1.12978 0.757544 9.07908e-20)
(1.10033 0.803525 2.08448e-19)
(1.06971 0.850842 -2.24569e-19)
(1.03787 0.899072 2.37954e-19)
(1.0044 0.94699 -2.54343e-19)
(0.968084 0.991739 -3.22937e-19)
(0.926495 1.02788 5.48369e-19)
(0.875749 1.04684 -4.26802e-19)
(0.810745 1.03723 1.41902e-19)
(0.725908 0.98632 -1.4827e-19)
(0.616201 0.882206 0)
(0.478075 0.716111 1.51875e-19)
(0.310773 0.483564 -1.90843e-19)
(0.116495 0.184742 2.92216e-20)
(1.32812 0.454809 1.47392e-19)
(1.31531 0.492576 1.70766e-19)
(1.3056 0.529582 1.92777e-19)
(1.29184 0.568433 1.0448e-19)
(1.27589 0.608674 -1.21169e-19)
(1.2579 0.650423 -5.02056e-22)
(1.23805 0.693742 1.34991e-19)
(1.2166 0.738654 -1.54588e-19)
(1.19373 0.785169 -2.47617e-19)
(1.16963 0.833268 -1.80318e-19)
(1.14443 0.882848 -8.75161e-20)
(1.1181 0.933508 4.08148e-19)
(1.09014 0.98403 -1.03802e-19)
(1.05915 1.03149 5.31409e-20)
(1.02223 1.0702 -2.30321e-19)
(0.974666 1.09109 1.25062e-20)
(0.910174 1.08206 2.24479e-19)
(0.821772 1.02952 -2.34836e-19)
(0.70306 0.920905 1.13622e-19)
(0.549454 0.747172 -1.42459e-19)
(0.359569 0.504061 5.96937e-20)
(0.135305 0.192372 -1.30946e-19)
(1.34652 0.461606 0)
(1.33928 0.500855 1.48517e-19)
(1.33516 0.539292 -1.63938e-19)
(1.327 0.579715 -9.29904e-20)
(1.31668 0.62156 -6.13936e-21)
(1.30432 0.664943 1.1988e-19)
(1.29014 0.709933 -7.67458e-21)
(1.27439 0.756564 -1.35191e-19)
(1.25729 0.804856 1.55633e-19)
(1.23903 0.854801 0)
(1.21975 0.906306 1.74769e-19)
(1.19941 0.95899 -1.73707e-19)