/*--------------------------------*- C++ -*----------------------------------*\
| =========                 |                                                 |
| \\      /  F ield         | OpenFOAM Extend Project: Open source CFD        |
|  \\    /   O peration     | Version:  1.6-ext                               |
|   \\  /    A nd           | Web:      www.extend-project.de                 |
|    \\/     M anipulation  |                                                 |
\*---------------------------------------------------------------------------*/
FoamFile
{
    version     2.0;
    format      ascii;
    class       volVectorField;
    location    "0.9";
    object      U_0;
}
// * * * * * * * * * * * * * * * * * * * * * * * * * * * * * * * * * * * * * //

dimensions      [0 1 -1 0 0 0 0];

internalField   nonuniform List<vector> 
20940
(
(1.84818 0.397774 -3.40345e-21)
(1.88772 0.417805 2.88145e-21)
(1.92516 0.437117 -5.63716e-22)
(1.95965 0.454665 5.63616e-21)
(1.99089 0.470657 7.09166e-22)
(2.01726 0.48397 9.12051e-21)
(2.03576 0.493494 1.21221e-20)
(2.04158 0.497283 -1.92461e-20)
(2.02835 0.493103 7.50758e-21)
(1.98897 0.478718 -9.77664e-21)
(1.91721 0.45259 1.06084e-20)
(1.80952 0.414492 2.57e-20)
(1.66634 0.365859 7.89542e-21)
(1.49255 0.309684 -3.22199e-20)
(1.29663 0.249975 1.74644e-20)
(1.089 0.190991 1.91933e-23)
(0.880183 0.136534 0)
(0.67926 0.0895028 0)
(0.493036 0.0517085 0)
(0.325804 0.0239223 -6.02116e-21)
(0.179582 0.00662224 -6.27111e-21)
(0.0545837 0.000490359 5.22351e-21)
(1.87504 0.374558 0)
(1.9133 0.393436 -6.04621e-21)
(1.94914 0.410937 4.08959e-21)
(1.98145 0.426701 0)
(2.0094 0.440387 -6.23741e-21)
(2.03048 0.450793 1.36772e-21)
(2.04069 0.456504 -1.07858e-20)
(2.03429 0.455486 0)
(2.00452 0.445672 1.59838e-20)
(1.94488 0.425383 1.95022e-20)
(1.8509 0.393983 -4.3572e-20)
(1.72167 0.352294 1.16778e-20)
(1.56062 0.30265 -7.09003e-21)
(1.37506 0.248507 0)
(1.17484 0.193778 0)
(0.970492 0.142128 1.8214e-20)
(0.771598 0.0964732 2.01388e-20)
(0.585715 0.0587603 -3.14513e-20)
(0.417988 0.029965 2.25765e-20)
(0.271262 0.010235 -1.73595e-20)
(0.1465 -0.000370349 3.09066e-20)
(0.0433111 -0.00140993 -2.55027e-20)
(1.89967 0.35131 9.60897e-21)
(1.93633 0.369104 0)
(1.97003 0.384901 0)
(1.99929 0.39889 2.44372e-20)
(2.02252 0.410166 1.45849e-20)
(2.0362 0.417438 -1.81397e-20)
(2.03529 0.419052 -2.2708e-20)
(2.0134 0.413045 2.71328e-20)
(1.96398 0.397732 -1.59512e-20)
(1.88192 0.372187 -3.71492e-20)
(1.76518 0.336754 2.12848e-20)
(1.61584 0.293193 -4.98831e-20)
(1.44008 0.244442 2.65965e-20)
(1.24703 0.194049 0)
(1.04707 0.145502 0)
(0.850076 0.101687 -1.81985e-20)
(0.664181 0.0646103 1.98714e-20)
(0.495236 0.0353748 -2.99518e-20)
(0.346779 0.0142889 2.09898e-20)
(0.22037 0.00104651 0)
(0.116105 -0.00458717 4.72154e-20)
(0.0331398 -0.00236343 -4.84426e-20)
(1.92316 0.328402 -5.06497e-20)
(1.95774 0.345182 6.0788e-20)
(1.98849 0.359312 0)
(2.01338 0.371428 -5.09642e-20)
(2.02982 0.380053 -3.4377e-21)
(2.03319 0.383846 7.44012e-20)
(2.0176 0.381037 2.08157e-20)
(1.97657 0.369948 -2.02779e-21)
(1.90455 0.349497 -6.5915e-20)
(1.79863 0.319659 1.08565e-19)
(1.65976 0.281722 -6.28155e-20)
(1.49303 0.238155 0)
(1.30682 0.192142 8.87305e-22)
(1.11121 0.146957 -5.88154e-20)
(0.916188 0.105418 1.26391e-19)
(0.73033 0.0695528 -6.75595e-20)
(0.560026 0.0405234 -5.50228e-20)
(0.409377 0.0187375 7.7091e-20)
(0.280456 0.00400941 -2.09735e-20)
(0.173753 -0.00426599 4.32571e-20)
(0.0886973 -0.00650316 5.73386e-22)
(0.0241351 -0.00256926 -2.76015e-20)
(1.9452 0.305909 7.55027e-20)
(1.97706 0.321672 -6.60987e-20)
(2.00368 0.334083 0)
(2.02232 0.344124 0)
(2.02918 0.349773 3.35614e-20)
(2.01868 0.349734 -1.15449e-19)
(1.98452 0.342309 -1.51048e-21)
(1.92092 0.326338 2.70898e-20)
(1.82428 0.30153 0)
(1.69461 0.268786 0)
(1.53602 0.230164 -1.74136e-21)
(1.35615 0.188502 4.49098e-20)
(1.16471 0.14685 2.5844e-20)
(0.971719 0.107922 0)
(0.786031 0.0737408 0)
(0.614461 0.0455093 6.57807e-20)
(0.461556 0.0236849 -1.05379e-19)
(0.3298 0.00815501 -3.73296e-20)
(0.22004 -0.00159236 1.80747e-20)
(0.131936 -0.00632783 1.64029e-19)
(0.0644639 -0.00655251 -1.05855e-19)
(0.0162997 -0.00219122 0)
(1.96529 0.283899 -2.6765e-20)
(1.99343 0.298589 3.39755e-20)
(2.01421 0.309138 9.10138e-20)
(2.02397 0.316789 -5.12077e-20)
(2.01773 0.319081 6.59616e-20)
(1.98931 0.314928 4.06253e-20)
(1.9328 0.302935 -4.45577e-20)
(1.84411 0.28268 0)
(1.72244 0.254737 -6.36267e-20)
(1.57107 0.220812 1.38945e-19)
(1.39695 0.183424 -4.02691e-20)
(1.20941 0.145395 8.8475e-20)
(1.01842 0.109323 -1.46626e-19)
(0.833023 0.0771963 1.57675e-19)
(0.660365 0.0502438 -5.66329e-20)
(0.505349 0.028967 -6.27605e-20)
(0.370782 0.0132921 3.19883e-20)
(0.25778 0.00276121 1.07357e-19)
(0.166239 -0.00332043 -1.29699e-19)
(0.0952459 -0.00578519 0)
(0.0435003 -0.00515579 2.08702e-20)
(0.00963071 -0.00138003 6.82658e-20)
(1.98299 0.262182 5.9191e-20)
(2.00584 0.27561 -3.49218e-20)
(2.01825 0.284027 -4.44319e-20)
(2.01565 0.288917 1.13675e-19)
(1.99214 0.287545 -1.29211e-19)
(1.94169 0.279245 0)
(1.85983 0.263153 0)
(1.74512 0.239702 -5.29949e-20)
(1.60009 0.210254 0)
(1.43109 0.17705 -6.94945e-20)
(1.24708 0.142692 -7.80133e-20)
(1.05797 0.109647 1.26989e-19)
(0.87292 0.0798594 -4.48495e-20)
(0.699347 0.0545661 -5.20492e-20)
(0.542437 0.0343061 1.10606e-19)
(0.405254 0.0190485 0)
(0.289118 0.00836618 6.40036e-20)
(0.194084 0.00160698 -1.68008e-19)
(0.119382 -0.00199647 1.07188e-19)
(0.0637489 -0.0032664 -7.51179e-20)
(0.0257603 -0.00270715 1.15519e-19)
(0.00408171 -0.000271629 -1.59718e-20)
(1.99679 0.240692 0)
(2.01205 0.252602 -1.18725e-19)
(2.01278 0.258563 4.47664e-20)
(1.99369 0.260334 -5.55193e-20)
(1.94861 0.255161 -6.93525e-20)
(1.87278 0.243027 7.63263e-20)
(1.76418 0.223751 0)
(1.62474 0.198594 1.59615e-19)
(1.46027 0.16947 -1.16644e-19)
(1.2794 0.138791 0)
(1.09196 0.108887 0)
(0.907244 0.0816434 0)
(0.732876 0.0582964 4.41858e-20)
(0.574283 0.0394148 0)
(0.434733 0.0250105 -5.39304e-20)
(0.315701 0.0146971 0)
(0.217353 0.00784928 5.96148e-20)
(0.139 0.00373548 1.30027e-21)
(0.0794606 0.00159155 -1.36986e-19)
(0.0373009 0.000648466 1.42036e-19)
(0.0110864 0.000440812 3.30796e-22)
(-0.000425014 0.00101641 1.63248e-20)
(2.00538 0.218868 -6.69699e-20)
(2.00976 0.228864 7.76611e-20)
(1.99462 0.232032 0)
(1.95453 0.230527 0)
(1.88414 0.221829 0)
(1.78106 0.206704 0)
(1.64661 0.185666 -9.02062e-20)
(1.48614 0.160594 0)
(1.30801 0.133613 -5.74894e-20)
(1.12199 0.106947 0)
(0.937503 0.0824119 -7.2511e-20)
(0.762369 0.061235 3.04233e-22)
(0.60223 0.044011 -4.38828e-20)
(0.460531 0.0307944 -4.61891e-20)
(0.338866 0.0212451 -1.52068e-19)
(0.237472 0.0147785 2.17938e-19)
(0.1557 0.0106892 -1.74972e-19)
(0.0924013 0.00824503 3.15195e-20)
(0.046188 0.00673041 -3.20388e-20)
(0.0155906 0.00545098 -1.37539e-19)
(-0.000761361 0.00398734 3.50149e-20)
(-0.00398857 0.0023869 1.19743e-19)
(2.0053 0.196754 6.6303e-20)
(1.99489 0.204518 8.32523e-20)
(1.95947 0.20475 -5.07464e-20)
(1.89451 0.200092 1.74253e-19)
(1.79667 0.188523 7.14969e-20)
(1.66694 0.17162 8.15486e-20)
(1.51013 0.150446 1.79984e-21)
(1.33443 0.127176 0)
(1.14958 0.103797 5.69324e-20)
(0.965157 0.0820855 6.46862e-20)
(0.789203 0.0632412 -1.37371e-19)
(0.627568 0.0478818 7.7187e-20)
(0.483856 0.0361013 -8.20125e-20)
(0.359765 0.0276085 4.58321e-20)
(0.255581 0.0218664 1.4767e-19)
(0.170671 0.0182104 -2.60911e-19)
(0.10388 0.015935 1.11109e-19)
(0.0538255 0.0143539 5.84254e-20)
(0.0190657 0.0128222 3.19104e-20)
(-0.00181456 0.0107266 -1.32039e-19)
(-0.0100798 0.00769334 1.36447e-19)
(-0.0067215 0.00376513 2.84853e-20)
(1.99477 0.173326 0)
(1.96473 0.178593 -8.23302e-20)
(1.90485 0.176002 -5.12987e-20)
(1.81237 0.168837 -6.0829e-20)
(1.68716 0.155645 -6.91012e-20)
(1.53385 0.138609 -7.73006e-20)
(1.36032 0.119065 8.76157e-20)
(1.17637 0.0991249 -9.97878e-20)
(0.991776 0.0803809 1.08842e-19)
(0.814832 0.0640491 6.15174e-20)
(0.651621 0.0507518 0)
(0.505914 0.0406265 0)
(0.379501 0.0334314 8.12138e-20)
(0.272704 0.0286826 8.75402e-20)
(0.184885 0.0257646 -2.34053e-19)
(0.114871 0.0240136 1.51329e-19)
(0.0612532 0.0227709 -1.08242e-19)
(0.0225808 0.0214196 5.56041e-20)
(-0.00253987 0.0193924 0)
(-0.0154177 0.0161559 0)
(-0.0171945 0.0113789 0)
(-0.00874053 0.00509631 -9.63829e-22)
(1.96775 0.149687 7.47016e-20)
(1.9147 0.152548 -8.11853e-20)
(1.8277 0.147667 -9.79723e-20)
(1.70775 0.138905 -5.79541e-20)
(1.55813 0.125397 -6.75585e-20)
(1.38688 0.109681 1.53124e-19)
(1.20373 0.0930804 -8.5642e-20)
(1.01878 0.0773703 9.61233e-20)
(0.840625 0.0636292 0)
(0.675664 0.0525227 -1.19271e-19)
(0.527862 0.0442093 6.46876e-20)
(0.399115 0.0384954 -1.4322e-19)
(0.289776 0.0349463 2.3066e-19)
(0.199195 0.0329967 0)
(0.126162 0.0320289 1.36989e-19)
(0.0692304 0.0314233 1.08105e-21)
(0.0269188 0.0305897 -1.03299e-19)
(-0.00217817 0.0289859 0)
(-0.0193465 0.0261206 0)
(-0.0257639 0.0215344 0)
(-0.0224488 0.0149356 0)
(-0.0101668 0.00635099 -1.63366e-19)
(1.92597 0.123897 0)
(1.84537 0.124705 8.54691e-20)
(1.73056 0.11854 0)
(1.58517 0.109575 -1.45947e-21)
(1.41613 0.0974667 6.70431e-20)
(1.23368 0.0846068 7.56377e-20)
(1.04804 0.0721042 -8.49462e-20)
(0.868339 0.0612196 3.16505e-22)
(0.701276 0.0525379 1.45191e-21)
(0.551095 0.0462763 -2.8751e-19)
(0.419822 0.0422797 6.21535e-20)
(0.307852 0.0401682 1.37133e-19)
(0.214513 0.0394287 -7.67561e-20)
(0.138548 0.0394929 8.07989e-20)
(0.0784567 0.0397851 0)
(0.0327134 0.0397516 -4.65468e-20)
(-0.000116809 0.0388753 0)
(-0.0213273 0.036687 0)
(-0.0320677 0.0327647 -1.12991e-19)
(-0.0333792 0.0267169 -7.62498e-22)
(-0.026166 0.0182905 1.22997e-19)
(-0.0111098 0.00750935 2.68915e-20)
(1.85937 0.100272 0)
(1.7539 0.0997057 0)
(1.61313 0.0930918 0)
(1.4477 0.0849517 1.15981e-19)
(1.26629 0.0751532 -6.60552e-20)
(1.08019 0.0657498 -1.48966e-19)
(0.898778 0.0575536 8.54546e-22)
(0.729374 0.0512772 -9.18344e-20)
(0.576525 0.0470963 0)
(0.442474 0.044899 1.69185e-19)
(0.327687 0.0443413 -1.22245e-19)
(0.231492 0.044957 0)
(0.152584 0.0462229 1.45232e-19)
(0.0894037 0.0476049 -1.56834e-19)
(0.0403664 0.0485841 0)
(0.00399603 0.0486711 4.59961e-20)
(-0.0210243 0.0474139 0)
(-0.0358451 0.0444046 -5.11391e-20)
(-0.0414733 0.0392803 -5.39973e-20)
(-0.0388199 0.0317087 0)
(-0.0286885 0.0214727 1.19952e-19)
(-0.0116921 0.00859592 -1.03242e-19)
(1.78458 0.0732036 -7.70151e-20)
(1.64874 0.0720676 1.74197e-19)
(1.48641 0.0672828 1.02679e-19)
(1.30639 0.0611998 2.68301e-21)
(1.11924 0.0552335 6.58724e-20)
(0.9356 0.0502547 8.28149e-22)
(0.763111 0.0468361 8.16977e-20)
(0.606856 0.0451415 0)
(0.469325 0.0450651 0)
(0.351129 0.0463184 1.08839e-19)
(0.251623 0.0485042 0)
(0.169467 0.0511722 6.58528e-20)
(0.103028 0.0538517 -3.53438e-19)
(0.0506449 0.0560732 1.52058e-19)
(0.0107737 0.0573811 8.25833e-20)
(-0.0179494 0.0573428 -4.4074e-20)
(-0.0366973 0.0555562 -1.41271e-19)
(-0.0464723 0.0516585 1.50277e-19)
(-0.0481439 0.0453317 5.34347e-20)
(-0.0425039 0.0362936 0)
(-0.0302678 0.0243635 0)
(-0.0119966 0.00957362 -1.01201e-19)
(1.63406 0.0531963 4.21489e-20)
(1.46812 0.0495094 -4.33721e-20)
(1.28644 0.046745 1.10043e-19)
(1.10002 0.043705 2.00446e-21)
(0.918081 0.0419839 2.08899e-19)
(0.748175 0.0414777 -1.54056e-19)
(0.594805 0.0423844 0)
(0.460217 0.0445111 0)
(0.344784 0.047607 0)
(0.247699 0.0513395 -1.13699e-19)
(0.167494 0.0553393 -6.16947e-20)
(0.102442 0.059215 2.02175e-19)
(0.0508075 0.0625647 1.02652e-21)
(0.0109955 0.0649846 -1.56077e-19)
(-0.0183852 0.0660788 8.36598e-20)
(-0.0385125 0.06547 -4.52012e-20)
(-0.0503728 0.0628098 4.80792e-20)
(-0.0547982 0.0577919 0)
(-0.0525107 0.0501618 5.26499e-20)
(-0.0441762 0.0397156 0)
(-0.0304127 0.0263482 0)
(-0.0117258 0.0101413 0)
(1.37937 0.0308956 -8.89724e-20)
(1.19605 0.0297397 -1.99833e-19)
(1.01366 0.0314234 -2.26148e-19)
(0.839306 0.0327937 1.59013e-21)
(0.679104 0.0357264 -1.41691e-19)
(0.536355 0.0392693 7.88513e-20)
(0.412341 0.0435886 0)
(0.306805 0.0483785 0)
(0.218558 0.0534326 -1.0573e-19)
(0.145932 0.0584848 2.30216e-19)
(0.0871199 0.063251 -6.21446e-20)
(0.0403825 0.0674222 -6.76909e-20)
(0.00415936 0.0706717 7.30558e-20)
(-0.0228872 0.0726634 0)
(-0.0418719 0.0730641 -4.21672e-20)
(-0.0537123 0.071557 -4.42939e-20)
(-0.0591666 0.0678564 -1.42595e-19)
(-0.0588749 0.0617223 0)
(-0.0533993 0.0529716 -5.31386e-20)
(-0.0432652 0.04148 -1.10107e-19)
(-0.0289665 0.0272156 1.13793e-19)
(-0.010918 0.0102916 9.77177e-20)
(1.09448 0.0183174 4.41373e-20)
(0.916578 0.0202966 1.54628e-19)
(0.752838 0.0259338 1.16317e-19)
(0.603624 0.0306175 -1.3053e-19)
(0.472741 0.0365491 0)
(0.360002 0.0424728 0)
(0.264871 0.0486114 8.92734e-20)
(0.185797 0.0546802 -1.95139e-19)
(0.121034 0.0605397 0)
(0.0687572 0.0659875 -5.82063e-20)
(0.0272742 0.0708045 0)
(-0.00491195 0.0747407 6.87446e-20)
(-0.0290699 0.0775226 -1.48174e-19)
(-0.0462475 0.0788625 7.91053e-20)
(-0.057298 0.0784728 4.25474e-20)
(-0.0629147 0.076082 4.5265e-20)
(-0.0636691 0.0714515 -1.38128e-22)
(-0.0600464 0.0643908 -3.01125e-22)
(-0.0524778 0.0547694 1.04723e-19)
(-0.0413703 0.0425208 1.09169e-19)
(-0.0271113 0.0276628 -1.40669e-19)
(-0.0100369 0.0103231 2.38251e-20)
(0.815377 0.0124574 0)
(0.659404 0.0182548 0)
(0.524331 0.0264719 0)
(0.405144 0.0334283 -6.72329e-20)
(0.304324 0.0408944 7.40275e-20)
(0.219644 0.0478833 -8.23823e-20)
(0.149879 0.0546232 -4.74011e-22)
(0.0930752 0.060935 1.98242e-19)
(0.0475051 0.0667533 -1.08621e-19)
(0.0115313 0.0719427 5.86412e-20)
(-0.0162596 0.076339 1.91545e-19)
(-0.0370639 0.0797365 -1.38488e-19)
(-0.0518659 0.0818982 1.48446e-19)
(-0.0614628 0.0825676 -7.97669e-20)
(-0.0664958 0.0814856 8.47692e-20)
(-0.0674829 0.0784084 0)
(-0.0648512 0.0731254 4.73944e-20)
(-0.0589646 0.0654748 2.10732e-22)
(-0.0501478 0.0553555 1.76261e-22)
(-0.0387073 0.0427323 -2.1636e-19)
(-0.0249379 0.0276466 1.39695e-19)
(-0.00910287 0.010225 -2.37736e-20)
(0.56494 0.0129969 0)
(0.439212 0.0216934 -5.46523e-20)
(0.33494 0.0307263 5.45646e-22)
(0.24519 0.0385825 -6.78256e-20)
(0.171438 0.046223 -7.54119e-20)
(0.110819 0.0531667 8.35527e-20)
(0.0620155 0.0596037 4.05122e-22)
(0.0231852 0.0654648 3.92505e-22)
(-0.00714158 0.0707314 -5.47196e-20)
(-0.0302995 0.075313 -5.94165e-20)
(-0.0473993 0.0790775 -2.58211e-19)
(-0.0593622 0.0818451 2.77979e-19)
(-0.0669353 0.0834001 -3.73928e-20)
(-0.0707188 0.0835048 7.99864e-20)
(-0.0711934 0.0819177 -8.49216e-20)
(-0.0687471 0.0784116 0)
(-0.0636994 0.0727921 -4.71953e-20)
(-0.0563228 0.0649118 0)
(-0.0468585 0.0546818 0)
(-0.0355309 0.0420782 0)
(-0.0225579 0.027144 -8.30857e-20)
(-0.00813927 0.00998708 1.15927e-19)
(0.354677 0.0170445 0)
(0.260179 0.0269413 2.22783e-19)
(0.184094 0.0356368 0)
(0.120142 0.043288 0)
(0.06896 0.0502658 7.65486e-20)
(0.0279154 0.0564951 0)
(-0.00416703 0.0621291 0)
(-0.0288151 0.0671796 0)
(-0.0471965 0.0716531 -1.66125e-19)
(-0.0603495 0.0754872 5.98723e-20)
(-0.0691252 0.0785689 3.24834e-19)
(-0.074223 0.0807347 -2.4473e-19)
(-0.0762078 0.0817831 -3.76301e-20)
(-0.0755324 0.0814897 0)
(-0.0725597 0.0796252 4.23641e-20)
(-0.067583 0.0759731 0)
(-0.0608437 0.0703472 2.39833e-20)
(-0.0525463 0.0626048 7.43538e-20)
(-0.0428691 0.0526573 -2.31438e-19)
(-0.0319718 0.0404772 1.06445e-19)
(-0.0200131 0.0260927 -2.75359e-20)
(-0.00714512 0.00957829 7.97879e-20)
(0.185949 0.0219955 0)
(0.119303 0.0314303 -5.66295e-20)
(0.0669792 0.0391211 0)
(0.0242739 0.0458541 -7.00138e-20)
(-0.00879528 0.0517405 1.54081e-19)
(-0.0343067 0.0569242 -8.49066e-20)
(-0.0532467 0.0615399 0)
(-0.0667999 0.0656461 0)
(-0.0758672 0.0692614 -1.11439e-19)
(-0.0812373 0.0723398 1.20623e-19)
(-0.0835538 0.0747803 6.50485e-20)
(-0.0833442 0.0764321 1.05452e-19)
(-0.0810346 0.0771065 -3.73596e-20)
(-0.0769679 0.0765915 -1.60299e-19)
(-0.0714203 0.0746696 1.27387e-19)
(-0.0646161 0.0711339 -4.50207e-20)
(-0.0567405 0.0658038 2.36762e-20)
(-0.0479499 0.0585371 1.23211e-19)
(-0.0383771 0.0492395 -7.65765e-20)
(-0.0281353 0.0378715 1.31882e-19)
(-0.0173428 0.024437 -2.43865e-19)
(-0.00612336 0.00896848 6.75992e-20)
(0.0550522 0.0258021 0)
(0.0114042 0.0336858 -5.70038e-20)
(-0.0217081 0.0399959 6.31925e-20)
(-0.0474959 0.0454662 0)
(-0.0663089 0.0501212 -1.55561e-19)
(-0.0796737 0.0541733 8.59006e-20)
(-0.0883947 0.057747 4.68916e-20)
(-0.0933577 0.0609199 1.02902e-19)
(-0.0952442 0.0637163 2.58545e-22)
(-0.0946416 0.0661003 -2.42356e-19)
(-0.0920295 0.067982 6.52764e-20)
(-0.0878007 0.0692237 -3.49962e-20)
(-0.0822739 0.0696513 -3.7486e-20)
(-0.0757079 0.0690687 0)
(-0.0683139 0.0672728 -4.23628e-20)
(-0.0602657 0.064069 -6.73048e-20)
(-0.0517087 0.0592844 0)
(-0.0427667 0.0527782 9.80044e-20)
(-0.033543 0.0444501 -2.03329e-19)
(-0.0241207 0.0342469 7.85529e-20)
(-0.0145962 0.0221459 4.03926e-20)
(-0.00508529 0.00813618 1.11676e-20)
(-0.0427639 0.0272942 5.48607e-22)
(-0.0681368 0.0332156 5.01374e-22)
(-0.0860923 0.0379915 -1.27399e-19)
(-0.09872 0.0421019 -7.05643e-20)
(-0.106522 0.0455443 1.56796e-19)
(-0.110581 0.0485144 -8.59467e-20)
(-0.111532 0.0511225 -9.44822e-20)
(-0.11002 0.0534468 -1.54841e-19)
(-0.106546 0.0555123 1.12181e-19)
(-0.101533 0.0572908 9.15592e-20)
(-0.0953294 0.0587039 -6.56027e-20)
(-0.0882193 0.0596294 3.53584e-20)
(-0.080436 0.0599118 0)
(-0.0721721 0.0593747 -4.00177e-20)
(-0.0635886 0.0578348 4.26001e-20)
(-0.0548217 0.0551147 1.30382e-22)
(-0.0459891 0.0510545 0)
(-0.0371936 0.0455205 0)
(-0.0285222 0.0384116 0)
(-0.020042 0.0296655 0)
(-0.0118443 0.0192369 -1.33916e-20)
(-0.00405416 0.00707828 -9.8752e-20)
(-0.1111 0.0260448 0)
(-0.122364 0.0300758 0)
(-0.128701 0.0333756 0)
(-0.131428 0.0362022 3.57884e-20)
(-0.131044 0.0385489 -7.87068e-20)
(-0.128292 0.0405625 8.62753e-20)
(-0.123648 0.0423336 3.52526e-23)
(-0.11756 0.0439293 1.03627e-19)
(-0.110378 0.0453724 0)
(-0.102392 0.0466407 6.10465e-20)
(-0.0938406 0.0476686 0)
(-0.0849191 0.0483524 0)
(-0.0757918 0.0485589 -1.88431e-20)
(-0.0665983 0.048136 -4.00503e-20)
(-0.05746 0.0469252 1.06093e-19)
(-0.0484846 0.0447721 -6.69409e-20)
(-0.0397698 0.041537 1.87023e-19)
(-0.0314057 0.0371008 -9.73705e-20)
(-0.0234713 0.0313713 0)
(-0.0160289 0.0242871 -1.29296e-20)
(-0.00917698 0.0157922 0)
(-0.00306341 0.00581595 -7.60445e-20)
(-0.151879 0.0222904 -1.53992e-22)
(-0.152803 0.0247509 -8.66034e-20)
(-0.15076 0.0267914 -3.25075e-20)
(-0.146559 0.0285278 1.06745e-19)
(-0.140594 0.0299592 -3.94904e-20)
(-0.133351 0.0311842 4.32775e-20)
(-0.125153 0.0322711 -2.37555e-20)
(-0.116288 0.0332716 -2.59501e-20)
(-0.106978 0.0342045 0)
(-0.0974034 0.0350533 -9.19105e-20)
(-0.0877121 0.0357664 6.59263e-20)
(-0.0780282 0.0362611 0)
(-0.0684599 0.0364297 1.89342e-20)
(-0.0591047 0.0361486 -8.03613e-20)
(-0.0500527 0.0352876 8.48872e-20)
(-0.0413896 0.0337202 0)
(-0.0331976 0.031332 -1.16677e-20)
(-0.0255578 0.0280272 0)
(-0.0185447 0.0237327 0)
(-0.0122214 0.0184014 1.16123e-19)
(-0.00669886 0.0119833 -1.34488e-20)
(-0.00215459 0.00440616 -8.64407e-20)
(-0.1657 0.0166698 2.61732e-20)
(-0.15993 0.0179677 2.89444e-20)
(-0.152674 0.0190526 6.45603e-20)
(-0.144412 0.0199603 2.34634e-22)
(-0.135395 0.0206993 -7.90178e-20)
(-0.125911 0.0213303 -2.04454e-22)
(-0.116148 0.0219007 7.15248e-20)
(-0.106264 0.022447 2.60959e-20)
(-0.0963776 0.0229833 0)
(-0.0865806 0.023499 0)
(-0.0769492 0.023958 -1.65409e-20)
(-0.0675512 0.0243003 -7.10207e-20)
(-0.0584512 0.0244467 7.57454e-20)
(-0.0497143 0.0243039 0)
(-0.0414071 0.0237727 -2.12826e-20)
(-0.0335978 0.0227564 0)
(-0.0263564 0.0211687 2.33731e-20)
(-0.0197548 0.0189404 0)
(-0.0138621 0.0160256 1.25487e-20)
(-0.00873976 0.0124035 6.44727e-21)
(-0.00450737 0.00805186 1.31816e-20)
(-0.0013678 0.00292837 5.37297e-21)
(-0.152602 0.0103096 -5.18111e-20)
(-0.143816 0.0108556 1.44698e-20)
(-0.134546 0.0113108 -4.85442e-20)
(-0.125075 0.0116719 3.57219e-20)
(-0.115516 0.011954 0)
(-0.10601 0.0121916 4.37747e-20)
(-0.0966404 0.0124142 -1.1772e-20)
(-0.0874695 0.0126447 -5.22262e-20)
(-0.0785367 0.0128932 7.12095e-20)
(-0.0698699 0.0131553 -1.07806e-19)
(-0.0614928 0.0134105 1.49391e-19)
(-0.0534312 0.0136229 -6.22625e-20)
(-0.0457175 0.0137425 9.50606e-21)
(-0.0383924 0.0137084 0)
(-0.0315049 0.0134534 0)
(-0.0251107 0.0129101 0)
(-0.0192695 0.0120182 -1.16995e-20)
(-0.0140436 0.0107323 0)
(-0.00949292 0.00903102 -1.25576e-20)
(-0.00566953 0.00692229 -6.4492e-21)
(-0.00268437 0.00442364 -6.59227e-21)
(-0.000741848 0.0015506 -5.36295e-21)
(-0.112607 0.00427211 2.59847e-20)
(-0.10453 0.00441666 -7.268e-21)
(-0.0964697 0.00452133 8.09968e-21)
(-0.0886214 0.00458227 -8.99383e-21)
(-0.0809938 0.00461545 -3.98849e-20)
(-0.0736408 0.00463817 4.36869e-20)
(-0.0665756 0.0046644 1.20156e-20)
(-0.0598029 0.0047049 0)
(-0.0533158 0.00476528 -1.42721e-20)
(-0.0471042 0.00484531 -1.5451e-20)
(-0.0411602 0.00493819 3.33389e-20)
(-0.0354828 0.00503011 -4.46232e-20)
(-0.0300816 0.00510007 -9.52693e-21)
(-0.0249782 0.0051202 0)
(-0.0202064 0.00505695 5.35568e-21)
(-0.0158101 0.00487344 -5.05128e-20)
(-0.0118403 0.00453367 4.39759e-20)
(-0.00835073 0.0040091 0)
(-0.00539101 0.00328952 -3.15239e-21)
(-0.00299796 0.00239579 -3.23776e-21)
(-0.00124508 0.0013811 5.9312e-20)
(-0.00028877 0.000353733 -4.30044e-20)
(-0.0462266 0.000439346 -2.52493e-20)
(-0.0424771 0.000465273 -7.08354e-21)
(-0.0387833 0.000479168 8.1277e-21)
(-0.0352928 0.000480718 8.73431e-21)
(-0.0319808 0.00047718 0)
(-0.0288615 0.000473005 1.65731e-22)
(-0.025925 0.000471262 -2.34603e-20)
(-0.0231592 0.000474381 2.52677e-20)
(-0.0205473 0.000484132 0)
(-0.0180722 0.000501635 0)
(-0.0157182 0.000527154 -3.19379e-20)
(-0.0134741 0.000559776 3.42024e-20)
(-0.0113347 0.000596963 0)
(-0.00930288 0.000633989 -3.87102e-20)
(-0.00739045 0.000663374 7.65731e-20)
(-0.00561903 0.000674519 -3.7524e-20)
(-0.00401954 0.000653946 2.76912e-21)
(-0.00263084 0.000586991 -4.64813e-20)
(-0.00149508 0.000462652 3.07119e-21)
(-0.000648301 0.000282397 1.01792e-19)
(-0.000127761 7.18168e-05 -6.86754e-23)
(1.7531e-05 -8.29613e-05 -4.15355e-20)
(1.13613 0.0228217 3.98998e-24)
(1.09006 0.0243688 0)
(1.04195 0.0259635 0)
(0.991702 0.0276077 2.53702e-20)
(0.939413 0.0293071 -2.78481e-20)
(0.885172 0.0310683 -3.26106e-20)
(0.829073 0.0328942 -1.90898e-20)
(0.771221 0.034786 1.97391e-20)
(0.711736 0.036743 2.28048e-20)
(0.650746 0.0387628 -4.93872e-20)
(0.588396 0.0408378 -1.33541e-23)
(0.524852 0.0429465 0)
(0.460332 0.0450303 1.61224e-20)
(0.395167 0.0469606 0)
(0.329911 0.0484963 9.09755e-24)
(0.265464 0.0492612 1.96821e-20)
(0.203193 0.0487496 0)
(0.144982 0.0463812 -3.27452e-20)
(0.093092 0.0415835 2.26298e-20)
(0.0499245 0.0338917 -5.72739e-24)
(0.0187181 0.0230044 1.20172e-20)
(0.00351061 0.00882934 4.84467e-24)
(1.14048 0.0788127 3.24739e-20)
(1.09486 0.0844754 -7.43094e-20)
(1.04735 0.0904127 0)
(0.99768 0.096595 -5.03629e-20)
(0.945969 0.103015 5.52816e-20)
(0.892309 0.109678 0)
(0.836791 0.116579 9.07396e-20)
(0.779522 0.123713 -5.89468e-20)
(0.720621 0.131071 0)
(0.660218 0.13864 7.47227e-20)
(0.598454 0.146387 -5.36476e-20)
(0.535492 0.154225 0)
(0.471534 0.161932 -1.61191e-20)
(0.406881 0.169025 0)
(0.34203 0.174617 -3.64917e-20)
(0.277791 0.177344 5.8973e-20)
(0.215409 0.175397 -8.21433e-20)
(0.156627 0.166721 -7.57369e-20)
(0.103562 0.149311 -5.36597e-22)
(0.0584909 0.121554 2.08673e-19)
(0.024565 0.0824266 -1.12316e-20)
(0.00578133 0.0316489 -1.56737e-19)
(1.1491 0.134816 1.31369e-21)
(1.10443 0.144611 3.72822e-20)
(1.05816 0.154814 0)
(1.00966 0.165416 9.57312e-20)
(0.959119 0.176408 1.66631e-19)
(0.906641 0.187799 4.03072e-21)
(0.852313 0.199589 -1.38329e-19)
(0.796245 0.21177 7.96751e-20)
(0.738555 0.22433 -8.62821e-20)
(0.679372 0.237248 9.77444e-20)
(0.618834 0.250468 -1.05012e-19)
(0.557091 0.263845 -1.16838e-19)
(0.494317 0.276997 1.24436e-19)
(0.430747 0.289092 0)
(0.366755 0.298615 3.64522e-20)
(0.302966 0.303222 3.75481e-20)
(0.240373 0.299827 3.95166e-20)
(0.180428 0.284919 0)
(0.124957 0.25509 4.29429e-20)
(0.0759884 0.207601 -4.51185e-20)
(0.0365018 0.140731 -2.28734e-20)
(0.0104155 0.0540271 5.78669e-20)
(1.16106 0.188086 6.27329e-20)
(1.11792 0.201893 -7.3354e-20)
(1.0736 0.216222 7.79933e-20)
(1.02695 0.231125 -9.87625e-20)
(0.978255 0.24658 5.10576e-20)
(0.927617 0.262597 0)
(0.875128 0.279176 0)
(0.820905 0.296306 -7.46996e-20)
(0.765068 0.313969 -8.30036e-20)
(0.707746 0.332135 -9.16537e-20)
(0.649073 0.350729 2.07326e-19)
(0.589183 0.369544 -2.21834e-19)
(0.528207 0.388042 0)
(0.466281 0.405055 0)
(0.403601 0.418443 0)
(0.340508 0.424918 -3.74912e-20)
(0.27762 0.420139 -3.94673e-20)
(0.215953 0.399193 -1.62413e-19)
(0.1569 0.357317 1.25037e-19)
(0.102118 0.290708 2.21924e-20)
(0.0543294 0.197 6.65545e-20)
(0.0173341 0.0755993 -1.28868e-19)
(1.17633 0.238761 -5.07705e-21)
(1.13525 0.25645 1.35747e-19)
(1.09353 0.274705 -8.07126e-20)
(1.04933 0.293706 -1.84329e-19)
(1.00307 0.313407 2.02371e-19)
(0.954868 0.333825 -1.18025e-19)
(0.90482 0.354961 2.56329e-19)
(0.853046 0.376803 7.44027e-20)
(0.799669 0.399331 -2.27004e-21)
(0.744818 0.422507 2.68315e-19)
(0.688624 0.446238 9.55501e-20)
(0.631199 0.47026 0)
(0.572616 0.493888 0)
(0.512883 0.515626 0)
(0.451955 0.532738 -2.65485e-19)
(0.389803 0.541014 2.78877e-19)
(0.326547 0.534916 0)
(0.262628 0.508178 -2.28205e-19)
(0.19887 0.454758 3.19119e-19)
(0.136447 0.369859 -3.30078e-19)
(0.0777457 0.250536 1.25773e-19)
(0.0264155 0.096096 0)
(1.19448 0.285551 -1.16112e-19)
(1.156 0.306949 0)
(1.11748 0.328894 -1.47272e-19)
(1.07631 0.351759 0)
(1.03307 0.375467 1.98651e-19)
(0.987897 0.400039 -1.1012e-19)
(0.940868 0.425478 -1.26872e-19)
(0.89212 0.451773 0)
(0.84178 0.478902 -2.27485e-19)
(0.789979 0.506823 8.19494e-20)
(0.736842 0.535427 -5.46407e-21)
(0.682457 0.564399 0)
(0.626829 0.592917 0)
(0.569808 0.619175 0)
(0.511055 0.639871 2.48651e-19)
(0.45008 0.649917 -3.24331e-19)
(0.386393 0.642628 0)
(0.319728 0.610459 7.41656e-20)
(0.25021 0.546168 -7.12996e-20)
(0.178431 0.44405 0)
(0.106374 0.300659 -3.18753e-19)
(0.0375086 0.115255 3.91932e-19)
(1.21508 0.327878 2.1545e-19)
(1.17969 0.352757 4.72676e-21)
(1.14493 0.378094 6.1214e-21)
(1.10732 0.40453 -1.57316e-19)
(1.06763 0.431946 0)
(1.02599 0.460368 -1.06574e-19)
(0.982507 0.489803 0)
(0.937314 0.52024 -1.25052e-19)
(0.890547 0.551658 1.47866e-19)
(0.842338 0.584009 -3.9258e-19)
(0.792806 0.617172 8.19522e-20)
(0.742014 0.650789 8.99432e-20)
(0.689884 0.683912 0)
(0.636083 0.714454 -1.03312e-19)
(0.579926 0.738578 3.38687e-19)
(0.520384 0.750374 -1.78221e-19)
(0.456238 0.74207 6.0155e-20)
(0.386396 0.704923 0)
(0.310163 0.630573 3.43942e-19)
(0.227457 0.512503 1.27247e-21)
(0.139798 0.346848 -5.81284e-19)
(0.0504481 0.132882 2.39555e-19)
(1.23745 0.365046 1.94161e-19)
(1.20565 0.393161 1.18479e-19)
(1.17517 0.421576 -2.32709e-21)
(1.14161 0.451261 1.55934e-19)
(1.10596 0.482041 8.4386e-21)
(1.06835 0.513949 -1.8987e-19)
(1.02889 0.547003 1.03601e-19)
(0.987733 0.581197 1.24033e-19)
(0.945017 0.616512 1.26989e-19)
(0.900878 0.652902 1.50906e-19)
(0.855434 0.690239 3.1843e-19)
(0.80872 0.728131 -4.30511e-19)
(0.760574 0.765528 0)
(0.710459 0.800087 1.96087e-19)
(0.657302 0.82749 -1.08912e-19)
(0.599456 0.841051 -3.21103e-19)
(0.534876 0.831988 1.68186e-19)
(0.461516 0.790427 -2.36059e-19)
(0.377753 0.706989 2.44672e-19)
(0.282741 0.574434 0)
(0.177489 0.388579 0)
(0.0650256 0.148774 2.16735e-19)
(1.26083 0.396488 3.61148e-19)
(1.23309 0.427509 -2.11531e-19)
(1.2073 0.458632 -1.33575e-19)
(1.17818 0.491212 -3.99683e-21)
(1.14697 0.525003 3.18557e-19)
(1.1138 0.560049 1.78691e-19)
(1.07879 0.596374 -9.84949e-20)
(1.0421 0.633969 -2.16695e-19)
(1.00389 0.672818 2.31958e-19)
(0.964294 0.712875 -2.62208e-19)
(0.923421 0.754007 -1.36286e-19)
(0.88128 0.7958 0)
(0.837619 0.837118 0)
(0.791679 0.875406 -9.27185e-20)
(0.741959 0.90591 0)
(0.686126 0.921247 -8.99446e-20)
(0.621204 0.911688 2.01834e-19)
(0.544085 0.866323 -2.06959e-19)
(0.452106 0.77484 2.14707e-19)
(0.343589 0.629378 -5.09713e-20)
(0.218983 0.425535 0)
(0.0810635 0.162819 0)
(1.28433 0.422049 -7.53664e-21)
(1.26113 0.455691 2.0106e-19)
(1.24045 0.489173 -3.3893e-19)
(1.2162 0.524248 -1.28975e-19)
(1.18983 0.560601 2.86645e-19)
(1.16146 0.598299 -5.43672e-21)
(1.13124 0.637382 0)
(1.09935 0.677858 9.39287e-20)
(1.06596 0.719717 -3.31495e-19)
(1.03122 0.762925 -1.58051e-21)
(0.995251 0.807352 1.34194e-19)
(0.95803 0.852575 2.74341e-19)
(0.919224 0.897405 0)
(0.877854 0.939112 -3.06556e-19)
(0.831966 0.97257 3.24579e-19)
(0.778482 0.989753 7.74576e-20)
(0.713411 0.980065 1.71299e-19)
(0.632458 0.931626 -2.58767e-21)
(0.531816 0.83328 -1.82989e-19)
(0.408894 0.676652 5.08426e-20)
(0.263548 0.457239 0)
(0.0982746 0.174824 0)
(1.30707 0.441243 -1.49629e-19)
(1.28877 0.477059 -1.73376e-19)
(1.27338 0.512512 -2.9921e-19)
(1.25421 0.549754 1.13954e-19)
(1.23295 0.588371 0)
(1.2097 0.628433 -1.39646e-20)
(1.18463 0.669981 0)
(1.15793 0.713019 -9.27225e-20)
(1.12978 0.757545 9.07947e-20)
(1.10033 0.803526 2.08457e-19)
(1.06971 0.850844 -2.24578e-19)
(1.03787 0.899074 2.37963e-19)
(1.0044 0.946992 -2.54353e-19)
(0.968086 0.991741 -3.22951e-19)
(0.926497 1.02788 5.48392e-19)
(0.875751 1.04684 -4.2682e-19)
(0.810746 1.03723 1.41908e-19)
(0.72591 0.986322 -1.48277e-19)
(0.616203 0.882208 0)
(0.478077 0.716113 1.51883e-19)
(0.310774 0.483566 -1.90852e-19)
(0.116496 0.184742 2.92231e-20)
(1.32812 0.454809 1.474e-19)
(1.31531 0.492576 1.70774e-19)
(1.30561 0.529582 1.92786e-19)
(1.29184 0.568433 1.04485e-19)
(1.2759 0.608674 -1.21175e-19)
(1.2579 0.650423 -5.02059e-22)
(1.23805 0.693743 1.34997e-19)
(1.2166 0.738655 -1.54595e-19)
(1.19373 0.78517 -2.47629e-19)
(1.16963 0.833269 -1.80326e-19)
(1.14444 0.882849 -8.75204e-20)
(1.1181 0.933509 4.08167e-19)
(1.09014 0.984032 -1.03807e-19)
(1.05915 1.03149 5.31435e-20)
(1.02223 1.0702 -2.30333e-19)
(0.974668 1.0911 1.25063e-20)
(0.910176 1.08206 2.24492e-19)
(0.821774 1.02952 -2.34849e-19)
(0.703062 0.920907 1.13628e-19)
(0.549455 0.747174 -1.42467e-19)
(0.35957 0.504063 5.96972e-20)
(0.135305 0.192372 -1.30954e-19)
(1.34652 0.461606 0)
(1.33928 0.500855 1.48525e-19)
(1.33516 0.539292 -1.63947e-19)
(1.327 0.579715 -9.29952e-20)
(1.31668 0.62156 -6.13939e-21)
(1.30432 0.664943 1.19886e-19)
(1.29014 0.709934 -7.67465e-21)
(1.2744 0.756565 -1.35198e-19)
(1.2573 0.804857 1.5564e-19)
(1.23903 0.854802 0)
(1.21975 0.906308 1.74777e-19)