/*--------------------------------*- C++ -*----------------------------------*\
| =========                 |                                                 |
| \\      /  F ield         | OpenFOAM Extend Project: Open source CFD        |
|  \\    /   O peration     | Version:  1.6-ext                               |
|   \\  /    A nd           | Web:      www.extend-project.de                 |
|    \\/     M anipulation  |                                                 |
\*---------------------------------------------------------------------------*/
FoamFile
{
    version     2.0;
    format      ascii;
    class       volScalarField::DimensionedInternalField;
    location    "0.9";
    object      V0;
}
// * * * * * * * * * * * * * * * * * * * * * * * * * * * * * * * * * * * * * //

dimensions      [0 3 0 0 0 0 0];

value           nonuniform List<scalar> 
20940
(
1.17125e-06
1.03822e-06
9.21173e-07
8.18127e-07
7.27342e-07
6.47304e-07
5.76686e-07
5.14333e-07
4.59231e-07
4.10498e-07
3.67359e-07
3.29138e-07
2.95244e-07
2.65157e-07
2.38424e-07
2.14645e-07
1.93473e-07
1.74598e-07
1.57755e-07
1.42707e-07
1.29248e-07
1.17196e-07
1.17143e-06
1.03837e-06
9.21305e-07
8.18243e-07
7.27447e-07
6.47399e-07
5.76775e-07
5.14416e-07
4.59311e-07
4.10573e-07
3.6743e-07
3.29204e-07
2.95304e-07
2.65212e-07
2.38473e-07
2.1469e-07
1.93514e-07
1.74638e-07
1.57793e-07
1.42745e-07
1.29284e-07
1.17231e-07
1.17401e-06
1.04066e-06
9.23337e-07
8.20048e-07
7.29053e-07
6.48831e-07
5.78053e-07
5.1556e-07
4.60336e-07
4.11494e-07
3.68259e-07
3.29952e-07
2.95979e-07
2.65821e-07
2.39022e-07
2.15184e-07
1.9396e-07
1.75041e-07
1.5816e-07
1.43079e-07
1.29591e-07
1.17513e-07
1.17829e-06
1.04445e-06
9.267e-07
8.23037e-07
7.31713e-07
6.51201e-07
5.80167e-07
5.17447e-07
4.62024e-07
4.13006e-07
3.69616e-07
3.31172e-07
2.97078e-07
2.66811e-07
2.39916e-07
2.15992e-07
1.9469e-07
1.75701e-07
1.58757e-07
1.4362e-07
1.30084e-07
1.17963e-07
1.18355e-06
1.04914e-06
9.30897e-07
8.26797e-07
7.35087e-07
6.54234e-07
5.82898e-07
5.19909e-07
4.64244e-07
4.15011e-07
3.71429e-07
3.32813e-07
2.98567e-07
2.68165e-07
2.41149e-07
2.17116e-07
1.95715e-07
1.76637e-07
1.59611e-07
1.444e-07
1.30795e-07
1.18614e-07
1.19038e-06
1.05526e-06
9.36382e-07
8.3172e-07
7.39514e-07
6.58223e-07
5.86499e-07
5.23166e-07
4.67195e-07
4.17688e-07
3.73859e-07
3.35021e-07
3.00575e-07
2.69994e-07
2.42817e-07
2.1864e-07
1.97109e-07
1.77913e-07
1.6078e-07
1.45471e-07
1.31776e-07
1.19511e-07
1.19875e-06
1.0628e-06
9.43173e-07
8.37838e-07
7.45029e-07
6.63201e-07
5.91002e-07
5.27248e-07
4.70904e-07
4.21065e-07
3.76938e-07
3.37833e-07
3.03144e-07
2.72343e-07
2.44966e-07
2.20608e-07
1.98913e-07
1.79569e-07
1.62301e-07
1.46869e-07
1.33061e-07
1.20692e-07
1.20869e-06
1.0718e-06
9.51327e-07
8.45229e-07
7.5173e-07
6.69276e-07
5.96511e-07
5.32249e-07
4.75451e-07
4.25208e-07
3.80723e-07
3.41297e-07
3.0632e-07
2.75257e-07
2.47642e-07
2.23066e-07
2.01173e-07
1.81647e-07
1.64214e-07
1.48632e-07
1.34688e-07
1.22194e-07
1.22009e-06
1.08217e-06
9.60773e-07
8.53851e-07
7.59605e-07
6.76472e-07
6.03085e-07
5.38252e-07
4.8093e-07
4.30209e-07
3.85293e-07
3.45481e-07
3.10158e-07
2.78786e-07
2.50892e-07
2.26062e-07
2.03936e-07
1.84197e-07
1.66568e-07
1.50807e-07
1.36699e-07
1.24056e-07
1.23284e-06
1.09382e-06
9.71431e-07
8.63618e-07
7.68573e-07
6.84718e-07
6.10675e-07
5.4524e-07
4.87362e-07
4.36124e-07
3.90727e-07
3.50471e-07
3.14742e-07
2.83002e-07
2.54777e-07
2.2965e-07
2.07253e-07
1.87267e-07
1.69411e-07
1.5344e-07
1.39139e-07
1.26317e-07
1.24678e-06
1.10662e-06
9.83204e-07
8.7445e-07
7.7855e-07
6.93923e-07
6.1918e-07
5.53111e-07
4.94656e-07
4.42886e-07
3.96995e-07
3.56275e-07
3.20109e-07
2.8796e-07
2.59356e-07
2.33881e-07
2.11169e-07
1.90896e-07
1.72778e-07
1.56566e-07
1.42041e-07
1.29012e-07
1.26239e-06
1.12103e-06
9.96501e-07
8.86723e-07
7.8988e-07
7.04384e-07
6.28848e-07
5.62057e-07
5.02945e-07
4.50581e-07
4.04147e-07
3.62928e-07
3.26299e-07
2.93713e-07
2.64695e-07
2.38829e-07
2.15752e-07
1.95142e-07
1.76716e-07
1.60222e-07
1.45438e-07
1.3217e-07
1.27885e-06
1.13634e-06
1.01075e-06
8.99982e-07
8.02214e-07
7.15853e-07
6.39506e-07
5.71957e-07
5.12141e-07
4.59127e-07
4.12098e-07
3.70336e-07
3.33211e-07
3.00168e-07
2.70723e-07
2.44454e-07
2.20992e-07
2.00018e-07
1.81248e-07
1.64435e-07
1.49357e-07
1.35819e-07
1.29617e-06
1.15256e-06
1.02593e-06
9.14197e-07
8.15526e-07
7.28317e-07
6.51171e-07
5.82865e-07
5.22331e-07
4.68634e-07
4.20962e-07
3.786e-07
3.40919e-07
3.07365e-07
2.77453e-07
2.50752e-07
2.26887e-07
2.05531e-07
1.86398e-07
1.69238e-07
1.53833e-07
1.39989e-07
1.31413e-06
1.1695e-06
1.0419e-06
9.29239e-07
8.29681e-07
7.41637e-07
6.637e-07
5.94648e-07
5.33411e-07
4.79042e-07
4.30727e-07
3.87746e-07
3.49475e-07
3.15364e-07
2.84931e-07
2.57748e-07
2.3344e-07
2.11673e-07
1.92155e-07
1.7463e-07
1.58876e-07
1.44699e-07
1.24248e-06
1.10837e-06
9.89861e-07
8.85041e-07
7.9225e-07
7.10033e-07
6.37115e-07
5.72384e-07
5.14861e-07
4.63687e-07
4.18111e-07
3.7747e-07
3.4119e-07
3.08765e-07
2.79755e-07
2.53773e-07
2.30478e-07
2.09567e-07
1.90772e-07
1.73854e-07
1.58604e-07
1.44839e-07
1.2194e-06
1.08726e-06
9.70529e-07
8.67321e-07
7.75992e-07
6.95098e-07
6.23381e-07
5.5974e-07
5.03211e-07
4.52947e-07
4.08206e-07
3.68336e-07
3.32764e-07
3.00987e-07
2.72566e-07
2.4712e-07
2.24312e-07
2.03845e-07
1.85461e-07
1.68927e-07
1.54036e-07
1.40609e-07
1.19744e-06
1.06722e-06
9.52223e-07
8.50583e-07
7.60673e-07
6.81067e-07
6.10516e-07
5.47929e-07
4.92353e-07
4.42953e-07
3.98999e-07
3.59849e-07
3.24939e-07
2.93771e-07
2.65912e-07
2.40979e-07
2.18638e-07
1.98595e-07
1.80596e-07
1.64414e-07
1.4985e-07
1.36726e-07
1.17673e-06
1.04837e-06
9.35046e-07
8.34915e-07
7.46363e-07
6.67985e-07
5.98548e-07
5.3697e-07
4.82306e-07
4.33731e-07
3.90524e-07
3.5205e-07
3.17755e-07
2.8715e-07
2.59808e-07
2.35352e-07
2.13449e-07
1.93809e-07
1.76175e-07
1.60323e-07
1.46058e-07
1.33207e-07
1.15742e-06
1.03084e-06
9.19102e-07
8.20401e-07
7.33137e-07
6.55917e-07
5.87522e-07
5.26888e-07
4.73082e-07
4.25284e-07
3.8278e-07
3.44942e-07
3.11222e-07
2.8114e-07
2.54273e-07
2.30249e-07
2.08744e-07
1.8947e-07
1.72173e-07
1.5663e-07
1.42646e-07
1.30049e-07
1.13931e-06
1.01444e-06
9.04237e-07
8.06911e-07
7.20881e-07
6.44768e-07
5.77368e-07
5.17629e-07
4.64629e-07
4.1756e-07
3.75715e-07
3.38475e-07
3.05296e-07
2.75704e-07
2.49279e-07
2.25657e-07
2.04515e-07
1.85572e-07
1.68578e-07
1.53316e-07
1.39591e-07
1.27233e-07
1.1232e-06
9.9987e-07
8.91045e-07
7.94946e-07
7.10015e-07
6.3489e-07
5.68378e-07
5.09436e-07
4.57152e-07
4.1073e-07
3.6947e-07
3.32758e-07
3.00059e-07
2.709e-07
2.4487e-07
2.21606e-07
2.0079e-07
1.82141e-07
1.65416e-07
1.50398e-07
1.36898e-07
1.24746e-07
1.10851e-06
9.8661e-07
8.79066e-07
7.84113e-07
7.00206e-07
6.25996e-07
5.60302e-07
5.02095e-07
4.50472e-07
4.04643e-07
3.63916e-07
3.27685e-07
2.9542e-07
2.66655e-07
2.40982e-07
2.18042e-07
1.97519e-07
1.79138e-07
1.62655e-07
1.47856e-07
1.34553e-07
1.22581e-07
1.09543e-06
9.74834e-07
8.68448e-07
7.74529e-07
6.91542e-07
6.18155e-07
5.53198e-07
4.9565e-07
4.44618e-07
3.99318e-07
3.59067e-07
3.23264e-07
2.91384e-07
2.62967e-07
2.37608e-07
2.14952e-07
1.94688e-07
1.76541e-07
1.6027e-07
1.45664e-07
1.32537e-07
1.20724e-07
1.08397e-06
9.64532e-07
8.59178e-07
7.66174e-07
6.84005e-07
6.11345e-07
5.4704e-07
4.90074e-07
4.39561e-07
3.94727e-07
3.54893e-07
3.19466e-07
2.87923e-07
2.59809e-07
2.34723e-07
2.12314e-07
1.92272e-07
1.74327e-07
1.58241e-07
1.43802e-07
1.30827e-07
1.19153e-07
1.07409e-06
9.55672e-07
8.51219e-07
7.59015e-07
6.77559e-07
6.05534e-07
5.41793e-07
4.8533e-07
4.35267e-07
3.90835e-07
3.51362e-07
3.16257e-07
2.85004e-07
2.5715e-07
2.32298e-07
2.10099e-07
1.90248e-07
1.72475e-07
1.56545e-07
1.42247e-07
1.29401e-07
1.17843e-07
1.06575e-06
9.48198e-07
8.44517e-07
7.52999e-07
6.7215e-07
6.00666e-07
5.37406e-07
4.81372e-07
4.31691e-07
3.876e-07
3.48431e-07
3.13598e-07
2.82588e-07
2.54953e-07
2.30298e-07
2.08275e-07
1.88583e-07
1.70953e-07
1.55153e-07
1.40973e-07
1.28234e-07
1.16772e-07
1.05889e-06
9.42056e-07
8.39017e-07
7.48067e-07
6.67722e-07
5.96686e-07
5.33823e-07
4.78143e-07
4.28779e-07
3.8497e-07
3.46052e-07
3.11444e-07
2.80635e-07
2.5318e-07
2.28684e-07
2.06807e-07
1.87243e-07
1.69731e-07
1.54034e-07
1.39951e-07
1.27297e-07
1.15917e-07
1.05349e-06
9.3723e-07
8.34694e-07
7.44191e-07
6.64244e-07
5.93561e-07
5.31012e-07
4.75613e-07
4.26497e-07
3.82911e-07
3.44192e-07
3.09761e-07
2.7911e-07
2.51796e-07
2.27427e-07
2.05663e-07
1.86202e-07
1.68779e-07
1.53165e-07
1.39152e-07
1.26563e-07
1.1524e-07
1.04911e-06
9.3333e-07
8.31209e-07
7.41076e-07
6.61457e-07
5.91064e-07
5.28774e-07
4.73603e-07
4.2469e-07
3.81284e-07
3.42726e-07
3.08438e-07
2.77916e-07
2.50717e-07
2.26451e-07
2.04779e-07
1.854e-07
1.68053e-07
1.52505e-07
1.38554e-07
1.26018e-07
1.14694e-07
1.17427e-06
1.04681e-06
9.34195e-07
8.3462e-07
7.46499e-07
6.68447e-07
5.9925e-07
5.37846e-07
4.83305e-07
4.34812e-07
3.91653e-07
3.53199e-07
3.18903e-07
2.88278e-07
2.60906e-07
2.36408e-07
2.14461e-07
1.94774e-07
1.77095e-07
1.61201e-07
1.46891e-07
1.33997e-07
1.17456e-06
1.04708e-06
9.34455e-07
8.34864e-07
7.46728e-07
6.6866e-07
5.99449e-07
5.38033e-07
4.8348e-07
4.34976e-07
3.91805e-07
3.53342e-07
3.19035e-07
2.88404e-07
2.6102e-07
2.36518e-07
2.14561e-07
1.9487e-07
1.77184e-07
1.61282e-07
1.4697e-07
1.34067e-07
1.17731e-06
1.04956e-06
9.36687e-07
8.36879e-07
7.48549e-07
6.70308e-07
6.00942e-07
5.39387e-07
4.84709e-07
4.36093e-07
3.92822e-07
3.54268e-07
3.19881e-07
2.89174e-07
2.61727e-07
2.37161e-07
2.15154e-07
1.9541e-07
1.77681e-07
1.61738e-07
1.47388e-07
1.34454e-07
1.18191e-06
1.05369e-06
9.40399e-07
8.40219e-07
7.51559e-07
6.73023e-07
6.03395e-07
5.41604e-07
4.86717e-07
4.37912e-07
3.94473e-07
3.55768e-07
3.21244e-07
2.90416e-07
2.62858e-07
2.38194e-07
2.16096e-07
1.96273e-07
1.78469e-07
1.62463e-07
1.4805e-07
1.35063e-07
1.18775e-06
1.05897e-06
9.45174e-07
8.44543e-07
7.55478e-07
6.76581e-07
6.06627e-07
5.44545e-07
4.89395e-07
4.40354e-07
3.96701e-07
3.57804e-07
3.23105e-07
2.92121e-07
2.64418e-07
2.39628e-07
2.17409e-07
1.97481e-07
1.79579e-07
1.63483e-07
1.48992e-07
1.35929e-07
1.1955e-06
1.06597e-06
9.51514e-07
8.50291e-07
7.60695e-07
6.81322e-07
6.1094e-07
5.48472e-07
4.92975e-07
4.43621e-07
3.99687e-07
3.60533e-07
3.25606e-07
2.94409e-07
2.66521e-07
2.41552e-07
2.19183e-07
1.99106e-07
1.81079e-07
1.64861e-07
1.50263e-07
1.371e-07
1.20513e-06
1.07471e-06
9.59446e-07
8.575e-07
7.67254e-07
6.87296e-07
6.16387e-07
5.53445e-07
4.97518e-07
4.47777e-07
4.03491e-07
3.6402e-07
3.28802e-07
2.97347e-07
2.69215e-07
2.44035e-07
2.21462e-07
2.01211e-07
1.83013e-07
1.6665e-07
1.5191e-07
1.38624e-07
1.21676e-06
1.08528e-06
9.69066e-07
8.66265e-07
7.75249e-07
6.94596e-07
6.2306e-07
5.59549e-07
5.0311e-07
4.52902e-07
4.08193e-07
3.68337e-07
3.32771e-07
3.00995e-07
2.72576e-07
2.47128e-07
2.24316e-07
2.03841e-07
1.85444e-07
1.68892e-07
1.53985e-07
1.4054e-07
1.23043e-06
1.09774e-06
9.80441e-07
8.76657e-07
7.84753e-07
7.03296e-07
6.31031e-07
5.66859e-07
5.09819e-07
4.59066e-07
4.1386e-07
3.73551e-07
3.37572e-07
3.05419e-07
2.76656e-07
2.50892e-07
2.27792e-07
2.07052e-07
1.88413e-07
1.71638e-07
1.56526e-07
1.42893e-07
1.24617e-06
1.11213e-06
9.93613e-07
8.88723e-07
7.95816e-07
7.13448e-07
6.40355e-07
5.7543e-07
5.17704e-07
4.66325e-07
4.20548e-07
3.79718e-07
3.43261e-07
3.10672e-07
2.81507e-07
2.55378e-07
2.31938e-07
2.10891e-07
1.91964e-07
1.74929e-07
1.59574e-07
1.4572e-07
1.26382e-06
1.12833e-06
1.00848e-06
9.02388e-07
8.08385e-07
7.25017e-07
6.51012e-07
5.85254e-07
5.26766e-07
4.7469e-07
4.28274e-07
3.86858e-07
3.49863e-07
3.16779e-07
2.87162e-07
2.60613e-07
2.36791e-07
2.15386e-07
1.96135e-07
1.78795e-07
1.63164e-07
1.49051e-07
1.28384e-06
1.14673e-06
1.02541e-06
9.17966e-07
8.22733e-07
7.38243e-07
6.63211e-07
5.96514e-07
5.37165e-07
4.843e-07
4.37159e-07
3.95078e-07
3.57471e-07
3.23826e-07
2.93689e-07
2.66664e-07
2.424e-07
2.20591e-07
2.00963e-07
1.83279e-07
1.67325e-07
1.52917e-07
1.30551e-06
1.16672e-06
1.04386e-06
9.35019e-07
8.38498e-07
7.52825e-07
6.76706e-07
6.09008e-07
5.48739e-07
4.95025e-07
4.47103e-07
4.04301e-07
3.66029e-07
3.31768e-07
3.01063e-07
2.73512e-07
2.48763e-07
2.26503e-07
2.06459e-07
1.88388e-07
1.72078e-07
1.57337e-07
1.32892e-06
1.18839e-06
1.06394e-06
9.53629e-07
8.55752e-07
7.68828e-07
6.91555e-07
6.22792e-07
5.61536e-07
5.06912e-07
4.58146e-07
4.14563e-07
3.75568e-07
3.40637e-07
3.09311e-07
2.81184e-07
2.559e-07
2.33145e-07
2.12641e-07
1.94143e-07
1.77436e-07
1.62327e-07
1.35388e-06
1.21159e-06
1.08551e-06
9.7368e-07
8.744e-07
7.86176e-07
7.07696e-07
6.37812e-07
5.75517e-07
5.19926e-07
4.70263e-07
4.25846e-07
3.86075e-07
3.50424e-07
3.18428e-07
2.89678e-07
2.63815e-07
2.4052e-07
2.19514e-07
2.00549e-07
1.83407e-07
1.67893e-07
1.35388e-06
1.21159e-06
1.08551e-06
9.73684e-07
8.74404e-07
7.8618e-07
7.077e-07
6.37816e-07
5.7552e-07
5.19929e-07
4.70266e-07
4.25849e-07
3.86078e-07
3.50427e-07
3.1843e-07
2.89681e-07
2.63817e-07
2.40523e-07
2.19517e-07
2.00552e-07
1.83409e-07
1.67895e-07
1.32893e-06
1.1884e-06
1.06396e-06
9.53641e-07
8.55764e-07
7.68841e-07
6.91567e-07
6.22803e-07
5.61547e-07
5.06921e-07
4.58155e-07
4.14572e-07
3.75576e-07
3.40645e-07
3.09319e-07
2.81192e-07
2.55909e-07
2.33153e-07
2.12649e-07
1.9415e-07
1.77442e-07
1.62332e-07
1.30552e-06
1.16674e-06
1.04388e-06
9.35038e-07
8.38517e-07
7.52844e-07
6.76725e-07
6.09026e-07
5.48756e-07
4.95042e-07
4.47119e-07
4.04316e-07
3.66043e-07
3.31782e-07
3.01076e-07
2.73525e-07
2.48775e-07
2.26515e-07
2.0647e-07
1.88398e-07
1.72086e-07
1.57345e-07
1.28387e-06
1.14675e-06
1.02543e-06
9.17992e-07
8.22759e-07
7.38269e-07
6.63237e-07
5.96539e-07
5.37189e-07
4.84323e-07
4.37182e-07
3.951e-07
3.57492e-07
3.23845e-07
2.93707e-07
2.6668e-07
2.42415e-07
2.20604e-07
2.00976e-07
1.8329e-07
1.67335e-07
1.52926e-07
1.26385e-06
1.12836e-06
1.00851e-06
9.02421e-07
8.08418e-07
7.2505e-07
6.51044e-07
5.85286e-07
5.26797e-07
4.7472e-07
4.28302e-07
3.86885e-07
3.49888e-07
3.16803e-07
2.87183e-07
2.60633e-07
2.36808e-07
2.15403e-07
1.96149e-07
1.78809e-07
1.63176e-07
1.49062e-07
1.24621e-06
1.11217e-06
9.93655e-07
8.88766e-07
7.95858e-07
7.13489e-07
6.40395e-07
5.75469e-07
5.1774e-07
4.6636e-07
4.20581e-07
3.79749e-07
3.4329e-07
3.10699e-07
2.81532e-07
2.55401e-07
2.3196e-07
2.1091e-07
1.91983e-07
1.74945e-07
1.59589e-07
1.45734e-07
1.23048e-06
1.09779e-06
9.80494e-07
8.7671e-07
7.84805e-07
7.03345e-07
6.31078e-07
5.66904e-07
5.09861e-07
4.59105e-07
4.13896e-07
3.73586e-07
3.37604e-07
3.0545e-07
2.76684e-07
2.50919e-07
2.27816e-07
2.07076e-07
1.88434e-07
1.71658e-07
1.56544e-07
1.4291e-07
1.21682e-06
1.08534e-06
9.69132e-07
8.6633e-07
7.75312e-07
6.94656e-07
6.23116e-07
5.59602e-07
5.03158e-07
4.52947e-07
4.08235e-07
3.68376e-07
3.32806e-07
3.01028e-07
2.72606e-07
2.47157e-07
2.24342e-07
2.03866e-07
1.85467e-07
1.68914e-07
1.54005e-07
1.4056e-07
1.20521e-06
1.07479e-06
9.59527e-07
8.57579e-07
7.6733e-07
6.87368e-07
6.16454e-07
5.53507e-07
4.97576e-07
4.4783e-07
4.03539e-07
3.64064e-07
3.28843e-07
2.97383e-07
2.69251e-07
2.44066e-07
2.21493e-07
2.01238e-07
1.8304e-07
1.66674e-07
1.51934e-07
1.38646e-07
1.19559e-06
1.06607e-06
9.5161e-07
8.50384e-07
7.60784e-07
6.81406e-07
6.11018e-07
5.48545e-07
4.93042e-07
4.43683e-07
3.99742e-07
3.60585e-07
3.25652e-07
2.94453e-07
2.66559e-07
2.4159e-07
2.19215e-07
1.9914e-07
1.81108e-07
1.64891e-07
1.50289e-07
1.37127e-07
1.18786e-06
1.05908e-06
9.45283e-07
8.44649e-07
7.55579e-07
6.76677e-07
6.06717e-07
5.44629e-07
4.89472e-07
4.40426e-07
3.96767e-07
3.57864e-07
3.23161e-07
2.92171e-07
2.64466e-07
2.39669e-07
2.1745e-07
1.97517e-07
1.79615e-07
1.63515e-07
1.49022e-07
1.35958e-07
1.18204e-06
1.05381e-06
9.40521e-07
8.40337e-07
7.51671e-07
6.73129e-07
6.03494e-07
5.41697e-07
4.86804e-07
4.37993e-07
3.94547e-07
3.55836e-07
3.21306e-07
2.90473e-07
2.62909e-07
2.38242e-07
2.16139e-07
1.96313e-07
1.78506e-07
1.62497e-07
1.48083e-07
1.35092e-07
1.17746e-06
1.04971e-06
9.36829e-07
8.37014e-07
7.48676e-07
6.70427e-07
6.01053e-07
5.39489e-07
4.84804e-07
4.36181e-07
3.92904e-07
3.54343e-07
3.1995e-07
2.89237e-07
2.61784e-07
2.37214e-07
2.152e-07
1.95454e-07
1.7772e-07
1.61777e-07
1.47423e-07
1.34488e-07
1.17474e-06
1.04726e-06
9.34626e-07
8.35026e-07
7.46878e-07
6.688e-07
5.99577e-07
5.38149e-07
4.83586e-07
4.35074e-07
3.91896e-07
3.53426e-07
3.19113e-07
2.88476e-07
2.61088e-07
2.36578e-07
2.14619e-07
1.9492e-07
1.77231e-07
1.61326e-07
1.47009e-07
1.34105e-07
1.17448e-06
1.04702e-06
9.34398e-07
8.34813e-07
7.46679e-07
6.68613e-07
5.99402e-07
5.37984e-07
4.8343e-07
4.34925e-07
3.91755e-07
3.53293e-07
3.1899e-07
2.8836e-07
2.60982e-07
2.3648e-07
2.14527e-07
1.94836e-07
1.7715e-07
1.6125e-07
1.46936e-07
1.34035e-07
1.17411e-06
1.04665e-06
9.34039e-07
8.34468e-07
7.46352e-07
6.68305e-07
5.99115e-07
5.37718e-07
4.83185e-07
4.34699e-07
3.91548e-07
3.53103e-07
3.18814e-07
2.88199e-07
2.60833e-07
2.36343e-07
2.14401e-07
1.94719e-07
1.77044e-07
1.61152e-07
1.46846e-07
1.33953e-07
1.1744e-06
1.04692e-06
9.34295e-07
8.34707e-07
7.46576e-07
6.68516e-07
5.99312e-07
5.37903e-07
4.83359e-07
4.34864e-07
3.91703e-07
3.53249e-07
3.18951e-07
2.88327e-07
2.60952e-07
2.36453e-07
2.14504e-07
1.94815e-07
1.77134e-07
1.61236e-07
1.46926e-07
1.34028e-07
1.17715e-06
1.0494e-06
9.36525e-07
8.36721e-07
7.48398e-07
6.70165e-07
6.00808e-07
5.39261e-07
4.84593e-07
4.35986e-07
3.92724e-07
3.54178e-07
3.19798e-07
2.89099e-07
2.61657e-07
2.37097e-07
2.15094e-07
1.95356e-07
1.77631e-07
1.61693e-07
1.47346e-07
1.34415e-07
1.18175e-06
1.05353e-06
9.4024e-07
8.40066e-07
7.51413e-07
6.72886e-07
6.03266e-07
5.41484e-07
4.86606e-07
4.37809e-07
3.94377e-07
3.55679e-07
3.21161e-07
2.90339e-07
2.62786e-07
2.38128e-07
2.16034e-07
1.96216e-07
1.78418e-07
1.62416e-07
1.48009e-07
1.35025e-07
1.18759e-06
1.05881e-06
9.4502e-07
8.44395e-07
7.55338e-07
6.76449e-07
6.06504e-07
5.44429e-07
4.89287e-07
4.40253e-07
3.96607e-07
3.57715e-07
3.23023e-07
2.92044e-07
2.64347e-07
2.3956e-07
2.17349e-07
1.97424e-07
1.79529e-07
1.63438e-07
1.48951e-07
1.35893e-07
1.19534e-06
1.06581e-06
9.51363e-07
8.50146e-07
7.60558e-07
6.81192e-07
6.10818e-07
5.48358e-07
4.92869e-07
4.43523e-07
3.99594e-07
3.60448e-07
3.25526e-07
2.94336e-07
2.66452e-07
2.41491e-07
2.19125e-07
1.99056e-07
1.81031e-07
1.6482e-07
1.50225e-07
1.37067e-07
1.20497e-06
1.07455e-06
9.59295e-07
8.57356e-07
7.67118e-07
6.87167e-07
6.16267e-07
5.53332e-07
4.97414e-07
4.47681e-07
4.03402e-07
3.63938e-07
3.28728e-07
2.97277e-07
2.69154e-07
2.43978e-07
2.21412e-07
2.01164e-07
1.82972e-07
1.66612e-07
1.51876e-07
1.38592e-07
1.2166e-06
1.08512e-06
9.68914e-07
8.66121e-07
7.75113e-07
6.94468e-07
6.2294e-07
5.59438e-07
5.03007e-07
4.52808e-07
4.08107e-07
3.68259e-07
3.32699e-07
3.00931e-07
2.72517e-07
2.47076e-07
2.24268e-07
2.03798e-07
1.85405e-07
1.68856e-07
1.53952e-07
1.4051e-07
1.23027e-06
1.09758e-06
9.8029e-07
8.76513e-07
7.84616e-07
7.03167e-07
6.30911e-07
5.66749e-07
5.09717e-07
4.58973e-07
4.13776e-07
3.73475e-07
3.37503e-07
3.05358e-07
2.766e-07
2.50843e-07
2.27747e-07
2.07012e-07
1.88375e-07
1.71604e-07
1.56495e-07
1.42866e-07
1.24601e-06
1.11198e-06
9.93463e-07
8.8858e-07
7.9568e-07
7.13321e-07
6.40237e-07
5.75321e-07
5.17604e-07
4.66234e-07
4.20465e-07
3.79643e-07
3.43193e-07
3.10611e-07
2.81452e-07
2.55329e-07
2.31895e-07
2.10851e-07
1.91929e-07
1.74897e-07
1.59545e-07
1.45693e-07
1.26366e-06
1.12817e-06
1.00833e-06
9.02246e-07
8.0825e-07
7.24891e-07
6.50895e-07
5.85146e-07
5.26667e-07
4.74599e-07
4.28191e-07
3.86783e-07
3.49795e-07
3.16719e-07
2.87106e-07
2.60564e-07
2.36746e-07
2.15347e-07
1.961e-07
1.78765e-07
1.63135e-07
1.49026e-07
1.28369e-06
1.14658e-06
1.02526e-06
9.17827e-07
8.22602e-07
7.3812e-07
6.63097e-07
5.96408e-07
5.37067e-07
4.8421e-07
4.37077e-07
3.95004e-07
3.57404e-07
3.23765e-07
2.93633e-07
2.66614e-07
2.42355e-07
2.20551e-07
2.00928e-07
1.83248e-07
1.67298e-07
1.52893e-07
1.30536e-06
1.16657e-06
1.04372e-06
9.34884e-07
8.3837e-07
7.52704e-07
6.76593e-07
6.08904e-07
5.48643e-07
4.94937e-07
4.47023e-07
4.04227e-07
3.65962e-07
3.31707e-07
3.01008e-07
2.73463e-07
2.48718e-07
2.26463e-07
2.06424e-07
1.88357e-07
1.7205e-07
1.57313e-07
1.32878e-06
1.18825e-06
1.06381e-06
9.53497e-07
8.55627e-07
7.6871e-07
6.91445e-07
6.22689e-07
5.61441e-07
5.06824e-07
4.58066e-07
4.1449e-07
3.75502e-07
3.40577e-07
3.09257e-07
2.81136e-07
2.55857e-07
2.33107e-07
2.12606e-07
1.94112e-07
1.77408e-07
1.62302e-07
1.35374e-06
1.21146e-06
1.08537e-06
9.73551e-07
8.74277e-07
7.86059e-07
7.07586e-07
6.37709e-07
5.75422e-07
5.19838e-07
4.70183e-07
4.25773e-07
3.8601e-07
3.50365e-07
3.18375e-07
2.8963e-07
2.63772e-07
2.40482e-07
2.19479e-07
2.00518e-07
1.83378e-07
1.67867e-07
1.35375e-06
1.21146e-06
1.08538e-06
9.73556e-07
8.74282e-07
7.86064e-07
7.07591e-07
6.37714e-07
5.75426e-07
5.19843e-07
4.70187e-07
4.25777e-07
3.86013e-07
3.50368e-07
3.18378e-07
2.89633e-07
2.63775e-07
2.40484e-07
2.19482e-07
2.0052e-07
1.8338e-07
1.67869e-07
1.32879e-06
1.18827e-06
1.06382e-06
9.53514e-07
8.55644e-07
7.68726e-07
6.9146e-07
6.22703e-07
5.61455e-07
5.06837e-07
4.58078e-07
4.14502e-07
3.75513e-07
3.40588e-07
3.09267e-07
2.81145e-07
2.55865e-07
2.33114e-07
2.12613e-07
1.94119e-07
1.77413e-07
1.62307e-07
1.30539e-06
1.1666e-06
1.04375e-06
9.34914e-07
8.38399e-07
7.52732e-07
6.7662e-07
6.08929e-07
5.48666e-07
4.94959e-07
4.47043e-07
4.04247e-07
3.6598e-07
3.31724e-07
3.01024e-07
2.73477e-07
2.48732e-07
2.26475e-07
2.06435e-07
1.88367e-07
1.72059e-07
1.5732e-07
1.28374e-06
1.14662e-06
1.02531e-06
9.17872e-07
8.22645e-07
7.38161e-07
6.63135e-07
5.96444e-07
5.37101e-07
4.84241e-07
4.37106e-07
3.95031e-07
3.57428e-07
3.23787e-07
2.93654e-07
2.66633e-07
2.42372e-07
2.20566e-07
2.00941e-07
1.8326e-07
1.67308e-07
1.52903e-07
1.26372e-06
1.12823e-06
1.00839e-06
9.02305e-07
8.08306e-07
7.24945e-07
6.50945e-07
5.85193e-07
5.2671e-07
4.74639e-07
4.28228e-07
3.86816e-07
3.49826e-07
3.16746e-07
2.87132e-07
2.60586e-07
2.36767e-07
2.15365e-07
1.96116e-07
1.78779e-07
1.63149e-07
1.49038e-07
1.24609e-06
1.11205e-06
9.93536e-07
8.88651e-07
7.95748e-07
7.13385e-07
6.40298e-07
5.75378e-07
5.17656e-07
4.66282e-07
4.20509e-07
3.79683e-07
3.43229e-07
3.10644e-07
2.81482e-07
2.55356e-07
2.31918e-07
2.10873e-07
1.91948e-07
1.74915e-07
1.59562e-07
1.45709e-07
1.23035e-06
1.09767e-06
9.80374e-07
8.76595e-07
7.84695e-07
7.03242e-07
6.30982e-07
5.66815e-07
5.09779e-07
4.59029e-07
4.13827e-07
3.73522e-07
3.37546e-07
3.05396e-07
2.76635e-07
2.50874e-07
2.27776e-07
2.07038e-07
1.884e-07
1.71627e-07
1.56516e-07
1.42884e-07
1.21669e-06
1.08521e-06
9.69008e-07
8.66211e-07
7.752e-07
6.94551e-07
6.23019e-07
5.59512e-07
5.03076e-07
4.52872e-07
4.08166e-07
3.68313e-07
3.32749e-07
3.00976e-07
2.72559e-07
2.47113e-07
2.24303e-07
2.03829e-07
1.85434e-07
1.68882e-07
1.53977e-07
1.40533e-07
1.20507e-06
1.07465e-06
9.59396e-07
8.57454e-07
7.67212e-07
6.87258e-07
6.16353e-07
5.53414e-07
4.9749e-07
4.47752e-07
4.03468e-07
3.64e-07
3.28784e-07
2.97331e-07
2.69201e-07
2.44023e-07
2.21451e-07
2.01202e-07
1.83005e-07
1.66643e-07
1.51903e-07
1.38619e-07
1.19545e-06
1.06592e-06
9.51472e-07
8.50252e-07
7.6066e-07
6.8129e-07
6.10911e-07
5.48446e-07
4.92952e-07
4.43601e-07
3.99668e-07
3.60516e-07
3.25591e-07
2.94396e-07
2.66509e-07
2.41542e-07
2.19174e-07
1.99099e-07
1.81072e-07
1.64856e-07
1.50258e-07
1.37096e-07
1.18771e-06
1.05893e-06
9.45139e-07
8.44511e-07
7.55449e-07
6.76555e-07
6.06604e-07
5.44524e-07
4.89376e-07
4.40338e-07
3.96686e-07
3.57791e-07
3.23094e-07
2.92111e-07
2.6441e-07
2.3962e-07
2.17403e-07
1.97475e-07
1.79575e-07
1.63479e-07
1.48989e-07
1.35925e-07
1.18188e-06
1.05366e-06
9.40372e-07
8.40195e-07
7.51536e-07
6.73003e-07
6.03376e-07
5.41588e-07
4.86702e-07
4.379e-07
3.94462e-07
3.55758e-07
3.21236e-07
2.90409e-07
2.62852e-07
2.38189e-07
2.16091e-07
1.96269e-07
1.78465e-07
1.6246e-07
1.48047e-07
1.35061e-07
1.17729e-06
1.04954e-06
9.36668e-07
8.36861e-07
7.48533e-07
6.70294e-07
6.00929e-07
5.39375e-07
4.84699e-07
4.36084e-07
3.92814e-07
3.54261e-07
3.19875e-07
2.89169e-07
2.61723e-07
2.37157e-07
2.1515e-07
1.95407e-07
1.77679e-07
1.61736e-07
1.47386e-07
1.34452e-07
1.17455e-06
1.04707e-06
9.34444e-07
8.34853e-07
7.46718e-07
6.68652e-07
5.99442e-07
5.38026e-07
4.83474e-07
4.3497e-07
3.918e-07
3.53338e-07
3.19031e-07
2.88401e-07
2.61017e-07
2.36515e-07
2.14559e-07
1.94868e-07
1.77182e-07
1.61281e-07
1.46969e-07
1.34067e-07
1.17426e-06
1.0468e-06
9.34191e-07
8.34617e-07
7.46496e-07
6.68444e-07
5.99247e-07
5.37844e-07
4.83303e-07
4.3481e-07
3.91651e-07
3.53197e-07
3.18901e-07
2.88277e-07
2.60905e-07
2.36407e-07
2.1446e-07
1.94774e-07
1.77094e-07
1.61201e-07
1.4689e-07
1.33996e-07
1.17085e-06
1.171e-06
1.17356e-06
1.1778e-06
1.18302e-06
1.18981e-06
1.19816e-06
1.20807e-06
1.21944e-06
1.23218e-06
1.2461e-06
1.26168e-06
1.2781e-06
1.29539e-06
1.31333e-06
1.24171e-06
1.21858e-06
1.19659e-06
1.17589e-06
1.15659e-06
1.13849e-06
1.12244e-06
1.10781e-06
1.09482e-06
1.08346e-06
1.07373e-06
1.06556e-06
1.0589e-06
1.05375e-06
1.0495e-06
1.03783e-06
1.03796e-06
1.04022e-06
1.04398e-06
1.04864e-06
1.05473e-06
1.06224e-06
1.0712e-06
1.08154e-06
1.09318e-06
1.10597e-06
1.12035e-06
1.13562e-06
1.1518e-06
1.16874e-06
1.10764e-06
1.08649e-06
1.06644e-06
1.04761e-06
1.0301e-06
1.01372e-06
9.99206e-07
9.86013e-07
9.74319e-07
9.64112e-07
9.55375e-07
9.48061e-07
9.42098e-07
9.3748e-07
9.33674e-07
9.20796e-07
9.2091e-07
9.22922e-07
9.26258e-07
9.30425e-07
9.35882e-07
9.42644e-07
9.50764e-07
9.60182e-07
9.70824e-07
9.8259e-07
9.95865e-07
1.01007e-06
1.02522e-06
1.04119e-06
9.89175e-07
9.6983e-07
9.51527e-07
9.34375e-07
9.18456e-07
9.03626e-07
8.90481e-07
8.78565e-07
8.68023e-07
8.58838e-07
8.50988e-07
8.44424e-07
8.39078e-07
8.34939e-07
8.31538e-07
8.17767e-07
8.17868e-07
8.19659e-07
8.22627e-07
8.26362e-07
8.31259e-07
8.3735e-07
8.44711e-07
8.53304e-07
8.63056e-07
8.73882e-07
8.8614e-07
8.99363e-07
9.1355e-07
9.28587e-07
8.84417e-07
8.66696e-07
8.49971e-07
8.34329e-07
8.19843e-07
8.06391e-07
7.94474e-07
7.83696e-07
7.7418e-07
7.65904e-07
7.58841e-07
7.52944e-07
7.48146e-07
7.44431e-07
7.41387e-07
7.27003e-07
7.27095e-07
7.28691e-07
7.31336e-07
7.34689e-07
7.39093e-07
7.44584e-07
7.51258e-07
7.59107e-07
7.68058e-07
7.78032e-07
7.89353e-07
8.01658e-07
8.14941e-07
8.29096e-07
7.91693e-07
7.75439e-07
7.60138e-07
7.45859e-07
7.3266e-07
7.20442e-07
7.09623e-07
6.99862e-07
6.91262e-07
6.83796e-07
6.77433e-07
6.72127e-07
6.67815e-07
6.64476e-07
6.61749e-07
6.46987e-07
6.4707e-07
6.48496e-07
6.50855e-07
6.53872e-07
6.5784e-07
6.62798e-07
6.6885e-07
6.76022e-07
6.84252e-07
6.93452e-07
7.03911e-07
7.15359e-07
7.27794e-07
7.41109e-07
7.09539e-07
6.94616e-07
6.80602e-07
6.67553e-07
6.55514e-07
6.44401e-07
6.34567e-07
6.25717e-07
6.17935e-07
6.11189e-07
6.05448e-07
6.00669e-07
5.9679e-07
5.93785e-07
5.91338e-07
5.76392e-07
5.7647e-07
5.77744e-07
5.79852e-07
5.82569e-07
5.86153e-07
5.90638e-07
5.96128e-07
6.0268e-07
6.10255e-07
6.18755e-07
6.28425e-07
6.3907e-07
6.50709e-07
6.63233e-07
6.36681e-07
6.22965e-07
6.10114e-07
5.98177e-07
5.87185e-07
5.77065e-07
5.68114e-07
5.60081e-07
5.53028e-07
5.46926e-07
5.4174e-07
5.37429e-07
5.33936e-07
5.31228e-07
5.2903e-07
5.14061e-07
5.14134e-07
5.15274e-07
5.1716e-07
5.19611e-07
5.22853e-07
5.26919e-07
5.31905e-07
5.3789e-07
5.44863e-07
5.52729e-07
5.61678e-07
5.71574e-07
5.82461e-07
5.94237e-07
5.72004e-07
5.59382e-07
5.47586e-07
5.36653e-07
5.26607e-07
5.17379e-07
5.09223e-07
5.01922e-07
4.95522e-07
4.89995e-07
4.85306e-07
4.81412e-07
4.78262e-07
4.75818e-07
4.73842e-07
4.58982e-07
4.5905e-07
4.60073e-07
4.61761e-07
4.63976e-07
4.66913e-07
4.70607e-07
4.75142e-07
4.80608e-07
4.87026e-07
4.94313e-07
5.02606e-07
5.11804e-07
5.21979e-07
5.33046e-07
5.14528e-07
5.02902e-07
4.92061e-07
4.82038e-07
4.72846e-07
4.64424e-07
4.56982e-07
4.50338e-07
4.44524e-07
4.39513e-07
4.35267e-07
4.31746e-07
4.289e-07
4.26692e-07
4.24914e-07
4.10269e-07
4.10334e-07
4.11253e-07
4.12766e-07
4.14769e-07
4.17434e-07
4.20797e-07
4.2493e-07
4.29923e-07
4.35828e-07
4.42582e-07
4.50278e-07
4.5883e-07
4.68332e-07
4.78728e-07
4.63396e-07
4.52681e-07
4.42705e-07
4.33505e-07
4.25086e-07
4.17393e-07
4.10595e-07
4.04541e-07
3.99253e-07
3.94704e-07
3.90854e-07
3.87666e-07
3.85092e-07
3.83095e-07
3.81494e-07
3.6715e-07
3.67211e-07
3.68038e-07
3.69396e-07
3.71209e-07
3.7363e-07
3.76697e-07
3.80472e-07
3.85038e-07
3.90465e-07
3.96724e-07
4.03876e-07
4.11835e-07
4.207e-07
4.30455e-07
4.17855e-07
4.07975e-07
3.98788e-07
3.90332e-07
3.82614e-07
3.75579e-07
3.69363e-07
3.6384e-07
3.59025e-07
3.54889e-07
3.51396e-07
3.48505e-07
3.46175e-07
3.44366e-07
3.42922e-07
3.28948e-07
3.29004e-07
3.2975e-07
3.30971e-07
3.32613e-07
3.34815e-07
3.37615e-07
3.41071e-07
3.45253e-07
3.50238e-07
3.56034e-07
3.62685e-07
3.70101e-07
3.78372e-07
3.87513e-07
3.77248e-07
3.68134e-07
3.59667e-07
3.51887e-07
3.44802e-07
3.38364e-07
3.32675e-07
3.27631e-07
3.23241e-07
3.19476e-07
3.16301e-07
3.13679e-07
3.11566e-07
3.09926e-07
3.08622e-07
2.9507e-07
2.95122e-07
2.95794e-07
2.96894e-07
2.98384e-07
3.00387e-07
3.02946e-07
3.06115e-07
3.09954e-07
3.14536e-07
3.19895e-07
3.2608e-07
3.32999e-07
3.40718e-07
3.49275e-07
3.40997e-07
3.32585e-07
3.2478e-07
3.17616e-07
3.11106e-07
3.05205e-07
2.99994e-07
2.95382e-07
2.91375e-07
2.87944e-07
2.85056e-07
2.82673e-07
2.80755e-07
2.79267e-07
2.78088e-07
2.64998e-07
2.65046e-07
2.65653e-07
2.66644e-07
2.67998e-07
2.69822e-07
2.72163e-07
2.75072e-07
2.78602e-07
2.82819e-07
2.87771e-07
2.93517e-07
2.99976e-07
3.07186e-07
3.15191e-07
3.08598e-07
3.0083e-07
2.93632e-07
2.87031e-07
2.81042e-07
2.75629e-07
2.7085e-07
2.66629e-07
2.62967e-07
2.59837e-07
2.57207e-07
2.55039e-07
2.53297e-07
2.51945e-07
2.50877e-07
2.38278e-07
2.38322e-07
2.38869e-07
2.39765e-07
2.40996e-07
2.42659e-07
2.44801e-07
2.47474e-07
2.50726e-07
2.54614e-07
2.59187e-07
2.6452e-07
2.7055e-07
2.77291e-07
2.84779e-07
2.79611e-07
2.72429e-07
2.65788e-07
2.59704e-07
2.5419e-07
2.49219e-07
2.44831e-07
2.40964e-07
2.37615e-07
2.34755e-07
2.32357e-07
2.30383e-07
2.28798e-07
2.27569e-07
2.26601e-07
2.14512e-07
2.14552e-07
2.15047e-07
2.15856e-07
2.16977e-07
2.18495e-07
2.20456e-07
2.22913e-07
2.25912e-07
2.29503e-07
2.3373e-07
2.38673e-07
2.44298e-07
2.50605e-07
2.57613e-07
2.53646e-07
2.47e-07
2.40868e-07