/*--------------------------------*- C++ -*----------------------------------*\
| =========                 |                                                 |
| \\      /  F ield         | OpenFOAM Extend Project: Open source CFD        |
|  \\    /   O peration     | Version:  1.6-ext                               |
|   \\  /    A nd           | Web:      www.extend-project.de                 |
|    \\/     M anipulation  |                                                 |
\*---------------------------------------------------------------------------*/
FoamFile
{
    version     2.0;
    format      ascii;
    class       volScalarField;
    location    "4.3";
    object      p;
}
// * * * * * * * * * * * * * * * * * * * * * * * * * * * * * * * * * * * * * //

dimensions      [0 2 -2 0 0 0 0];

internalField   nonuniform List<scalar> 
284
(
0.285767
0.25429
0.242823
0.237842
0.235938
0.235908
0.236785
0.238035
0.240054
0.256555
0.247677
0.242326
0.2398
0.238835
0.238864
0.239401
0.240191
0.242354
0.244598
0.241196
0.238635
0.237479
0.237473
0.238209
0.239173
0.240132
0.243084
0.235125
0.234057
0.23302
0.232822
0.233536
0.234859
0.236274
0.237474
0.241179
0.227316
0.227008
0.226612
0.226685
0.227422
0.228647
0.229848
0.230612
0.234444
0.220224
0.220103
0.219778
0.219532
0.219534
0.219668
0.219406
0.218102
0.219909
0.213486
0.213336
0.212739
0.211747
0.210353
0.208292
0.204702
0.197851
0.192446
0.207131
0.206859
0.205779
0.203736
0.200457
0.195337
0.186788
0.172474
0.128086
0.201406
0.200967
0.199272
0.195988
0.190391
0.180864
0.161632
0.123629
0.0301872
0.196678
0.196022
0.193652
0.189241
0.182023
0.170495
0.150394
0.118526
0.0649569
0.193414
0.192345
0.189151
0.18376
0.175766
0.164258
0.147297
0.122955
0.0897581
0.192119
0.190173
0.185728
0.17927
0.170759
0.159625
0.145037
0.125204
0.101436
0.194415
0.189897
0.183328
0.175578
0.166567
0.155813
0.142857
0.126211
0.107338
0.200515
0.190712
0.181502
0.17265
0.163504
0.153291
0.141493
0.126974
0.110509
0.228753
0.196866
0.182107
0.172201
0.163273
0.153836
0.14296
0.129509
0.113828
-0.102802
-0.0675495
-0.00447661
-0.0255541
0.0399625
0.00986699
0.0679205
0.041351
0.0839272
0.0616662
0.0914574
0.0718386
0.0956845
0.0762356
-0.0551373
-0.0461133
-0.0424555
-0.0406695
-0.0386055
-0.0342835
-0.0272647
-0.0171364
-0.00579994
-0.0313964
-0.0317755
-0.0319144
-0.0318019
-0.0303796
-0.0265792
-0.0207519
-0.0125934
-0.00485272
-0.00452522
-0.0113366
-0.0151145
-0.0171563
-0.0173619
-0.0153509
-0.0119796
-0.00696997
-0.00363183
0.0240828
0.0127063
0.00451479
-0.000784164
-0.00359854
-0.00423292
-0.00380874
-0.00214401
-0.00267354
0.0435352
0.0295159
0.0189546
0.0114244
0.00641124
0.00344679
0.00153691
0.000700074
-0.00218072
0.0540261
0.0389795
0.0269475
0.0178223
0.0112196
0.00667095
0.00343906
0.00131272
-0.00212922
0.0574407
0.040952
0.027363
0.0167909
0.00902972
0.00370332
0.000280906
-0.0016055
-0.00358903
-0.0260831
-0.0272628
-0.0268041
-0.0250214
-0.0217563
-0.0169593
-0.0110844
-0.00558587
0.00415622
-0.0248229
-0.0260793
-0.0257362
-0.0244135
-0.021854
-0.017792
-0.0125202
-0.00744003
0.00306042
-0.0256574
-0.0271044
-0.0270356
-0.0261426
-0.0240179
-0.020175
-0.0147624
-0.00936121
0.0026388
-0.028305
-0.0296538
-0.0298644
-0.0294413
-0.0277569
-0.0240626
-0.0181848
-0.0118095
0.00232202
-0.0327584
-0.0334477
-0.0337827
-0.0337986
-0.0325579
-0.0290434
-0.0226269
-0.0149812
0.000343699
-0.038788
-0.0377391
-0.0379336
-0.0382338
-0.0373452
-0.0339172
-0.0273037
-0.0176485
-0.00253125
-0.0458907
-0.0413394
-0.0411842
-0.0412991
-0.0405226
-0.037073
-0.0301593
-0.0195035
-0.0048434
-0.0627966
-0.0455268
-0.0430916
-0.0424235
-0.0412128
-0.0374297
-0.0303045
-0.0194777
-0.00592773
)
;

boundaryField
{
    inlet
    {
        type            zeroGradient;
    }
    outlet
    {
        type            totalPressure;
        rho             none;
        psi             none;
        gamma           1;
        p0              uniform 0;
        value           nonuniform List<scalar> 
15
(
-7.74262e-05
-0.000477465
-0.00132471
0
0
0
0
0
0
0
0
0
0
0
0
)
;
    }
    fixedWalls
    {
        type            zeroGradient;
    }
    frontAndBack
    {
        type            empty;
    }
}


// ************************************************************************* //
