/*--------------------------------*- C++ -*----------------------------------*\
| =========                 |                                                 |
| \\      /  F ield         | OpenFOAM Extend Project: Open source CFD        |
|  \\    /   O peration     | Version:  1.6-ext                               |
|   \\  /    A nd           | Web:      www.extend-project.de                 |
|    \\/     M anipulation  |                                                 |
\*---------------------------------------------------------------------------*/
FoamFile
{
    version     2.0;
    format      ascii;
    class       surfaceScalarField;
    location    "4.3";
    object      phi;
}
// * * * * * * * * * * * * * * * * * * * * * * * * * * * * * * * * * * * * * //

dimensions      [0 3 -1 0 0 0 0];

internalField   nonuniform List<scalar> 
525
(
0.000160822
3.91775e-05
0.000117026
4.37961e-05
8.13601e-05
3.56663e-05
5.4201e-05
2.71591e-05
3.41284e-05
2.00726e-05
1.91408e-05
1.49875e-05
7.93962e-06
1.12012e-05
8.95567e-07
7.04405e-06
8.95567e-07
0.000204944
3.42337e-05
0.000190236
5.8504e-05
0.000162093
6.38091e-05
0.000128431
6.0821e-05
9.39766e-05
5.45273e-05
6.15028e-05
4.74613e-05
3.27102e-05
3.99938e-05
1.019e-05
2.95643e-05
1.10855e-05
0.000208655
2.55787e-05
0.000208065
5.90944e-05
0.000194066
7.78077e-05
0.000168292
8.65953e-05
0.00013418
8.86385e-05
9.54598e-05
8.6182e-05
5.56695e-05
7.97841e-05
1.99534e-05
6.52803e-05
3.1039e-05
0.000205057
2.05218e-05
0.00020818
5.59712e-05
0.000202627
8.33603e-05
0.00018589
0.000103332
0.000157804
0.000116725
0.0001198
0.000124185
7.47723e-05
0.000124812
2.90622e-05
0.00011099
6.01012e-05
0.000202381
1.81407e-05
0.000205269
5.30836e-05
0.00020374
8.48895e-05
0.000193902
0.00011317
0.000172939
0.000137688
0.000139278
0.000157847
9.30952e-05
0.000170995
3.94306e-05
0.000164655
9.95319e-05
0.000201255
1.68857e-05
0.000203805
5.05335e-05
0.000204726
8.39689e-05
0.000200418
0.000117478
0.000186908
0.000151198
0.000160103
0.000184652
0.000116349
0.000214748
5.57579e-05
0.000225246
0.00015529
0.000201179
1.57069e-05
0.000204433
4.72794e-05
0.000208082
8.03195e-05
0.000209415
0.000116145
0.000204622
0.000155991
0.000188631
0.000200643
0.000153136
0.000250243
8.77992e-05
0.000290583
0.000243089
0.000201719
1.39878e-05
0.000206761
4.2238e-05
0.000214112
7.29675e-05
0.000222044
0.000108214
0.000227693
0.000150343
0.000226161
0.000202175
0.000204782
0.000271621
0.000139021
0.000356344
0.00038211
0.000202632
1.13562e-05
0.000210259
3.46103e-05
0.000222134
6.10932e-05
0.000237649
9.26979e-05
0.000256873
0.000131119
0.000281746
0.000177301
0.000319172
0.000234196
0.00038401
0.000291506
0.000361441
0.000404679
0.000203915
7.44113e-06
0.000214627
2.38979e-05
0.000230957
4.47635e-05
0.000252671
7.09841e-05
0.000281155
0.000102635
0.000319866
0.000138591
0.000372565
0.000181497
0.000454103
0.000209968
0.000281398
0.000534146
0.000205982
1.45884e-06
0.00022023
9.6507e-06
0.00024015
2.48432e-05
0.000265189
4.59446e-05
0.000296514
7.13101e-05
0.000336765
9.83396e-05
0.000388092
0.00013017
0.000454474
0.000143586
0.000187401
0.000548471
0.000209416
-7.95759e-06
0.000227337
-8.27008e-06
0.000248883
3.29729e-06
0.0002739
2.09278e-05
0.000303705
4.15053e-05
0.000340367
6.16775e-05
0.000386703
8.38338e-05
0.000438968
9.13205e-05
0.000111333
0.000515037
0.000214493
-2.24503e-05
0.000232314
-2.60915e-05
0.00025007
-1.44583e-05
0.000269857
1.14087e-06
0.000293929
1.74333e-05
0.000324115
3.14908e-05
0.000362998
4.49511e-05
0.000404806
4.95128e-05
5.66014e-05
0.000459537
0.000211668
-3.41182e-05
0.000216784
-3.12072e-05
0.000220522
-1.81968e-05
0.000227912
-6.24871e-06
0.000242046
3.29897e-06
0.00026346
1.00765e-05
0.000292892
1.55194e-05
0.000325281
1.71239e-05
1.85537e-05
0.000363329
0.000165882
0.000134675
0.000116478
0.000110229
0.000113528
0.000123605
0.000139124
0.000156248
0.000174801
0.000247812
0.000156868
5.78762e-05
0.000189935
0.000510749
0.000180264
9.20897e-05
0.000476536
0.000584399
0.000144335
8.54021e-05
0.000591087
0.000565425
9.39469e-05
5.90118e-05
0.000591816
0.000505142
4.83419e-05
2.88176e-05
0.000535336
0.000396849
1.48211e-05
6.90835e-06
0.000418759
0.000189623
0.000196531
0.000194852
5.43081e-06
-1.03472e-05
0.000226109
-1.8937e-05
-1.23198e-05
0.000263619
-3.99649e-05
2.45468e-06
0.000300646
-6.32446e-05
2.62172e-05
0.000332732
-8.97154e-05
5.76299e-05
0.000357939
-0.000118006
9.27985e-05
0.00037484
-0.00014232
0.000125419
0.000383822
-0.000162803
0.000153821
-0.000165249
0.000165423
0.000452182
2.97847e-05
0.000445613
-1.23677e-05
0.000451031
-4.53831e-05
0.000461761
-7.3975e-05
0.000472247
-0.0001002
0.000478512
-0.000124271
0.000478414
-0.000142222
0.000471221
-0.00015561
-0.000150761
0.000586118
3.4754e-05
0.000579756
-6.00627e-06
0.000575098
-4.07252e-05
0.000570257
-6.91335e-05
0.000563051
-9.29951e-05
0.000551068
-0.000112288
0.000533565
-0.000124719
0.000509594
-0.000131639
-0.000123132
0.000603823
2.27463e-05
0.00060691
-9.09277e-06
0.000602307
-3.61225e-05
0.000591372
-5.81989e-05
0.000573937
-7.55595e-05
0.000549429
-8.77796e-05
0.00051891
-9.42005e-05
0.00048251
-9.52392e-05
-8.6812e-05
0.00055126
6.82248e-06
0.000554881
-1.27134e-05
0.000547643
-2.88844e-05
0.000530655
-4.12114e-05
0.000504859
-4.97631e-05
0.000471398
-5.43194e-05
0.00043261
-5.54126e-05
0.000390557
-5.31858e-05
-4.84985e-05
0.000427689
-2.10792e-06
0.000424258
-9.28209e-06
0.000409902
-1.45286e-05
0.000386431
-1.77402e-05
0.000355842
-1.91747e-05
0.000320603
-1.90794e-05
0.000283405
-1.82145e-05
0.000247093
-1.6874e-05
-1.68737e-05
0.000194423
0.000185141
0.000170612
0.000152872
0.000133697
0.000114618
9.64035e-05
7.95295e-05
-3.27391e-06
3.27391e-06
-1.16355e-05
8.36156e-06
-2.14131e-05
9.77763e-06
-3.01153e-05
8.70216e-06
-3.59899e-05
5.87466e-06
-3.75534e-05
1.56347e-06
-3.3711e-05
-3.84234e-06
-2.42395e-05
-9.47159e-06
-1.55379e-05
-9.19325e-06
1.24672e-05
-2.59898e-05
2.51581e-05
-4.35737e-05
2.73615e-05
-5.75974e-05
2.27259e-05
-6.52386e-05
1.35159e-05
-6.47463e-05
1.0712e-06
-5.53586e-05
-1.32301e-05
-3.7972e-05
-2.68582e-05
-3.84286e-05
-1.16284e-05
2.40955e-05
-3.11001e-05
4.46298e-05
-5.02603e-05
4.65217e-05
-6.42936e-05
3.67593e-05
-7.0391e-05
1.96132e-05
-6.71695e-05
-2.15028e-06
-5.44258e-05
-2.59737e-05
-3.3163e-05
-4.8121e-05
-6.34861e-05
-1.13855e-05
3.54811e-05
-2.90667e-05
6.2311e-05
-4.53552e-05
6.28101e-05
-5.59978e-05
4.74018e-05
-5.8675e-05
2.22904e-05
-5.26172e-05
-8.20801e-06
-3.80403e-05
-4.05506e-05
-1.55887e-05
-7.05726e-05
-8.71399e-05
-9.31507e-06
4.47961e-05
-2.0793e-05
7.37889e-05
-2.95489e-05
7.15661e-05
-3.28081e-05
5.0661e-05
-2.92098e-05
1.86921e-05
-1.87177e-05
-1.87001e-05
-2.49782e-06
-5.67706e-05
2.05641e-05
-9.36345e-05
-0.00011148
-5.58219e-06
5.03783e-05
-5.5659e-06
7.37726e-05
-1.02018e-06
6.70204e-05
8.38984e-06
4.1251e-05
2.22111e-05
4.87085e-06
3.9657e-05
-3.6146e-05
6.01067e-05
-7.72202e-05
8.12713e-05
-0.000114799
-0.000134968
4.18685e-06
4.61915e-05
2.18692e-05
5.60903e-05
4.61849e-05
4.27047e-05
7.24544e-05
1.49815e-05
9.87535e-05
-2.14283e-05
0.00012455
-6.19423e-05
0.000148363
-0.000101034
0.000169284
-0.00013572
-0.000154051
3.58443e-05
7.96148e-05
0.000124774
0.000165973
0.000202174
0.000233031
0.000257416
0.000275517
)
;

boundaryField
{
    inlet
    {
        type            calculated;
        value           uniform -0.0002;
    }
    outlet
    {
        type            calculated;
        value           nonuniform List<scalar> 
15
(
-8.70154e-06
-1.50813e-05
-8.10552e-06
8.06506e-06
4.49042e-05
0.000104759
0.000188368
0.000286889
0.000383648
0.000456733
0.000481964
0.000446191
0.000352244
0.000215468
6.26558e-05
)
;
    }
    fixedWalls
    {
        type            calculated;
        value           uniform 0;
    }
    frontAndBack
    {
        type            empty;
    }
}


// ************************************************************************* //
