/*--------------------------------*- C++ -*----------------------------------*\
| =========                 |                                                 |
| \\      /  F ield         | OpenFOAM Extend Project: Open source CFD        |
|  \\    /   O peration     | Version:  1.6-ext                               |
|   \\  /    A nd           | Web:      www.extend-project.de                 |
|    \\/     M anipulation  |                                                 |
\*---------------------------------------------------------------------------*/
FoamFile
{
    version     2.0;
    format      ascii;
    class       volVectorField;
    location    "4.3";
    object      U;
}
// * * * * * * * * * * * * * * * * * * * * * * * * * * * * * * * * * * * * * //

dimensions      [0 1 -1 0 0 0 0];

internalField   nonuniform List<vector> 
284
(
(0.16378 0.0266031 0)
(0.141786 0.0268365 0)
(0.0987059 0.0192631 0)
(0.0662234 0.0122054 0)
(0.0430805 0.0072449 0)
(0.0258669 0.00430037 0)
(0.012797 0.00253407 0)
(0.00283608 0.000888092 0)
(-0.000715446 -0.00120828 0)
(0.200598 0.0434027 0)
(0.202037 0.0577776 0)
(0.179227 0.053605 0)
(0.146273 0.0444767 0)
(0.111221 0.0351672 0)
(0.0772666 0.0275815 0)
(0.0460286 0.0213833 0)
(0.0185419 0.0142928 0)
(0.00297061 0.0033918 0)
(0.203094 0.0291697 0)
(0.210984 0.0599785 0)
(0.204489 0.0729063 0)
(0.183947 0.0756637 0)
(0.153112 0.0725735 0)
(0.11583 0.0665375 0)
(0.0753659 0.0584115 0)
(0.0344786 0.045204 0)
(0.00724538 0.0193195 0)
(0.201523 0.0225001 0)
(0.207594 0.0574948 0)
(0.207853 0.0816552 0)
(0.197307 0.0966694 0)
(0.174836 0.104262 0)
(0.141362 0.106024 0)
(0.098604 0.102005 0)
(0.0489125 0.0866868 0)
(0.0116325 0.0439856 0)
(0.200563 0.0190908 0)
(0.203985 0.054381 0)
(0.205905 0.084656 0)
(0.201338 0.109482 0)
(0.186679 0.12873 0)
(0.159791 0.14223 0)
(0.119247 0.148169 0)
(0.0643564 0.136672 0)
(0.0174109 0.0780587 0)
(0.200233 0.017436 0)
(0.202362 0.0517934 0)
(0.204906 0.0848657 0)
(0.204342 0.11642 0)
(0.196634 0.146097 0)
(0.1778 0.173032 0)
(0.143135 0.194112 0)
(0.0864534 0.194645 0)
(0.0277169 0.124151 0)
(0.200217 0.0163126 0)
(0.202432 0.0490987 0)
(0.20637 0.0827505 0)
(0.209801 0.118072 0)
(0.209352 0.155648 0)
(0.200862 0.19536 0)
(0.178162 0.234224 0)
(0.124432 0.253286 0)
(0.0485245 0.196734 0)
(0.200345 0.0149276 0)
(0.203609 0.0451445 0)
(0.210099 0.0774719 0)
(0.218456 0.113673 0)
(0.226337 0.155718 0)
(0.230731 0.205856 0)
(0.223918 0.269954 0)
(0.197861 0.33941 0)
(0.060343 0.286694 0)
(0.200547 0.012809 0)
(0.205484 0.0389601 0)
(0.21543 0.0679963 0)
(0.229668 0.101973 0)
(0.247345 0.143167 0)
(0.271299 0.19398 0)
(0.299193 0.260914 0)
(0.357799 0.345065 0)
(0.398796 0.429064 0)
(0.20084 0.00962739 0)
(0.207966 0.0299345 0)
(0.22168 0.0539281 0)
(0.24111 0.0831157 0)
(0.265853 0.118596 0)
(0.30041 0.160587 0)
(0.342522 0.212264 0)
(0.410678 0.255202 0)
(0.49195 0.337886 0)
(0.201384 0.00498947 0)
(0.21156 0.0176243 0)
(0.228984 0.0356455 0)
(0.251799 0.0591603 0)
(0.279619 0.0875598 0)
(0.315477 0.118843 0)
(0.360145 0.156016 0)
(0.417698 0.172394 0)
(0.498259 0.228 0)
(0.202452 -0.00237473 0)
(0.216927 0.00139439 0)
(0.237175 0.0141041 0)
(0.260638 0.0329418 0)
(0.287831 0.0555244 0)
(0.320537 0.0786453 0)
(0.362158 0.105144 0)
(0.40974 0.113781 0)
(0.473733 0.141443 0)
(0.204209 -0.0136779 0)
(0.222729 -0.0174996 0)
(0.240917 -0.00729635 0)
(0.25932 0.0089578 0)
(0.280958 0.0271592 0)
(0.30744 0.0442212 0)
(0.342439 0.0617713 0)
(0.381908 0.0678802 0)
(0.43021 0.0787679 0)
(0.201749 -0.0351355 0)
(0.215147 -0.0365724 0)
(0.218703 -0.0225254 0)
(0.223088 -0.00696518 0)
(0.233609 0.00679161 0)
(0.251084 0.0176067 0)
(0.277099 0.0267231 0)
(0.307783 0.0296947 0)
(0.343538 0.0324971 0)
(0.164655 -0.0248748 0)
(0.151328 -0.0222519 0)
(0.124349 -0.0125647 0)
(0.111265 -0.00486289 0)
(0.110407 0.0003912 0)
(0.117457 0.00368731 0)
(0.130732 0.00582556 0)
(0.147183 0.00612461 0)
(0.165544 0.00603104 0)
(0.354223 0.166836 0)
(0.184268 0.0442072 0)
(0.54424 0.178095 0)
(0.497879 0.0821587 0)
(0.576237 0.167326 0)
(0.596775 0.0999546 0)
(0.543485 0.117832 0)
(0.584724 0.0749599 0)
(0.483388 0.0674821 0)
(0.523678 0.0421333 0)
(0.380928 0.026503 0)
(0.410214 0.0135068 0)
(0.183027 0.00368284 0)
(0.194548 -0.000251183 0)
(0.185645 -0.00610135 0)
(0.205988 -0.0155531 0)
(0.2429 -0.0295404 0)
(0.281987 -0.0510035 0)
(0.317282 -0.0784846 0)
(0.348023 -0.109283 0)
(0.367707 -0.137163 0)
(0.384425 -0.161404 0)
(0.383741 -0.168501 0)
(0.463669 0.0187266 0)
(0.445722 -0.0197747 0)
(0.445319 -0.0483611 0)
(0.455419 -0.0742755 0)
(0.466982 -0.0999688 0)
(0.478239 -0.12551 0)
(0.47868 -0.146094 0)
(0.481373 -0.162932 0)
(0.458384 -0.161471 0)
(0.593059 0.0418445 0)
(0.583911 -0.00390289 0)
(0.576995 -0.0403014 0)
(0.573043 -0.0709138 0)
(0.56714 -0.0974024 0)
(0.560171 -0.12006 0)
(0.541804 -0.135796 0)
(0.528993 -0.146454 0)
(0.484999 -0.139589 0)
(0.602592 0.0313666 0)
(0.607987 -0.00640126 0)
(0.606226 -0.0378173 0)
(0.598895 -0.0639856 0)
(0.58431 -0.0854803 0)
(0.564971 -0.101876 0)
(0.533768 -0.111664 0)
(0.507716 -0.115659 0)
(0.450417 -0.106507 0)
(0.547002 0.0139244 0)
(0.556283 -0.0116406 0)
(0.554021 -0.0334674 0)
(0.541912 -0.0510964 0)
(0.520023 -0.0643779 0)
(0.49089 -0.0727204 0)
(0.451933 -0.0761185 0)
(0.416518 -0.0745654 0)
(0.357118 -0.0671315 0)
(0.426169 -0.000950894 0)
(0.428912 -0.0136401 0)
(0.419753 -0.0234697 0)
(0.40054 -0.03014 0)
(0.372914 -0.033803 0)
(0.339634 -0.0345783 0)
(0.30184 -0.0334335 0)
(0.267403 -0.0307362 0)
(0.220084 -0.0289945 0)
(0.197073 -0.00384608 0)
(0.191209 -0.00633958 0)
(0.178959 -0.00757776 0)
(0.162471 -0.0077232 0)
(0.143641 -0.00712626 0)
(0.124252 -0.006147 0)
(0.105341 -0.00535649 0)
(0.088752 -0.00499505 0)
(0.065819 -0.00601842 0)
(-0.000724402 0.000601919 0)
(-0.00642217 0.00273781 0)
(-0.0166128 0.00357947 0)
(-0.0263298 0.00349718 0)
(-0.0339056 0.00272488 0)
(-0.0376862 0.00124489 0)
(-0.0363817 -0.000876228 0)
(-0.0331789 -0.00334873 0)
(-0.0105959 -0.00654895 0)
(-0.00321324 0.00660552 0)
(-0.0161359 0.0150068 0)
(-0.0353252 0.0170707 0)
(-0.0520885 0.0148552 0)
(-0.0633575 0.00965406 0)
(-0.0667934 0.00207494 0)
(-0.061333 -0.00709764 0)
(-0.0524638 -0.0163408 0)
(-0.0175181 -0.0254772 0)
(-0.00435716 0.018108 0)
(-0.0199814 0.0347508 0)
(-0.0416404 0.0370032 0)
(-0.0593063 0.030035 0)
(-0.0697477 0.017049 0)
(-0.0708703 6.18385e-05 0)
(-0.0619459 -0.0190041 0)
(-0.050274 -0.0368771 0)
(-0.0100156 -0.0504903 0)
(-0.00448703 0.030076 0)
(-0.0192514 0.0542088 0)
(-0.0384499 0.0556078 0)
(-0.0528743 0.0430274 0)
(-0.059789 0.0217886 0)
(-0.0577287 -0.00455666 0)
(-0.0460246 -0.0331144 0)
(-0.0330998 -0.0594049 0)
(0.00611872 -0.0752292 0)
(-0.00414831 0.0406803 0)
(-0.0150118 0.0696824 0)
(-0.0266176 0.0692111 0)
(-0.0332386 0.0509466 0)
(-0.0331436 0.0220855 0)
(-0.0257965 -0.0124501 0)
(-0.0106329 -0.0485636 0)
(0.00483884 -0.0826694 0)
(0.040949 -0.0998982 0)
(-0.00343602 0.048475 0)
(-0.00704491 0.0767788 0)
(-0.00455831 0.0728418 0)
(0.00227576 0.049199 0)
(0.0139098 0.0144364 0)
(0.030069 -0.0259142 0)
(0.049644 -0.0666412 0)
(0.0688001 -0.104894 0)
(0.100387 -0.12454 0)
(0.000653708 0.0558804 0)
(0.0090007 0.0718867 0)
(0.0329871 0.0606642 0)
(0.0583835 0.0327144 0)
(0.0850185 -0.00501568 0)
(0.111957 -0.0473384 0)
(0.137196 -0.088734 0)
(0.159674 -0.125906 0)
(0.184917 -0.146196 0)
(0.0270181 0.0286613 0)
(0.0515019 0.0377883 0)
(0.101893 0.02371 0)
(0.145543 -0.00335105 0)
(0.184486 -0.038485 0)
(0.219298 -0.0773347 0)
(0.24672 -0.113973 0)
(0.269644 -0.146112 0)
(0.285169 -0.161933 0)
)
;

boundaryField
{
    inlet
    {
        type            fixedValue;
        value           uniform (0.2 0 0);
    }
    outlet
    {
        type            zeroGradient;
    }
    fixedWalls
    {
        type            fixedValue;
        value           uniform (0 0 0);
    }
    frontAndBack
    {
        type            empty;
    }
}


// ************************************************************************* //
