/*--------------------------------*- C++ -*----------------------------------*\
| =========                 |                                                 |
| \\      /  F ield         | OpenFOAM Extend Project: Open source CFD        |
|  \\    /   O peration     | Version:  1.6-ext                               |
|   \\  /    A nd           | Web:      www.extend-project.de                 |
|    \\/     M anipulation  |                                                 |
\*---------------------------------------------------------------------------*/
FoamFile
{
    version     2.0;
    format      ascii;
    class       volScalarField;
    location    "1.8";
    object      p;
}
// * * * * * * * * * * * * * * * * * * * * * * * * * * * * * * * * * * * * * //

dimensions      [0 2 -2 0 0 0 0];

internalField   nonuniform List<scalar> 
284
(
0.25002
0.21856
0.207087
0.202127
0.200231
0.200156
0.200933
0.202107
0.204314
0.220802
0.211912
0.206507
0.203947
0.20301
0.203107
0.203702
0.204523
0.206905
0.20898
0.205555
0.202933
0.201717
0.201667
0.202373
0.203314
0.204232
0.207261
0.199674
0.198587
0.197488
0.197194
0.197763
0.198872
0.200033
0.200978
0.204508
0.192079
0.19175
0.191283
0.191222
0.191708
0.192518
0.193183
0.193393
0.196736
0.185248
0.185108
0.184703
0.184286
0.183946
0.183505
0.182464
0.180326
0.181412
0.178824
0.178661
0.177983
0.176791
0.174986
0.172245
0.167743
0.159951
0.153695
0.172838
0.17256
0.17141
0.169163
0.165438
0.159592
0.150117
0.135035
0.0908853
0.167531
0.167094
0.165356
0.161904
0.155884
0.145674
0.125688
0.087261
-0.00549592
0.163253
0.162605
0.16024
0.15575
0.14824
0.136223
0.1157
0.0837736
0.0311298
0.160471
0.159391
0.156258
0.150929
0.142878
0.131191
0.114055
0.0897613
0.0571908
0.159512
0.157623
0.153313
0.147078
0.138799
0.127854
0.11339
0.0937855
0.0704179
0.162167
0.157679
0.151296
0.143895
0.13538
0.125161
0.112649
0.0964243
0.0779295
0.168555
0.158749
0.149727
0.141306
0.13283
0.123374
0.112224
0.0982115
0.0821193
0.196874
0.16499
0.150516
0.141197
0.133062
0.124422
0.114111
0.100945
0.0853547
-0.137387
-0.107157
-0.0381212
-0.0610537
0.00832624
-0.0207035
0.0381433
0.0134173
0.0553793
0.0347113
0.0637163
0.0455768
0.0675259
0.0489794
-0.096325
-0.0861871
-0.0730724
-0.0543403
-0.0342389
-0.0177959
-0.00712299
-0.00152749
-0.000296013
-0.0681937
-0.0656636
-0.0562163
-0.0413937
-0.0255681
-0.0128624
-0.00495022
-0.000985922
-0.000799436
-0.0328291
-0.0354924
-0.0320277
-0.0241915
-0.01508
-0.00757624
-0.00299012
-0.000733283
-0.00124082
-0.00124473
-0.00896799
-0.011276
-0.00982283
-0.00671384
-0.00375287
-0.00190003
-0.000894511
-0.00157667
0.0191289
0.00874875
0.00255809
-0.000516166
-0.00164091
-0.00181229
-0.00170101
-0.00135476
-0.0017608
0.0300144
0.0179691
0.00932244
0.0035902
0.000158156
-0.00157546
-0.00216707
-0.0019526
-0.00179809
0.0322533
0.0185346
0.00829191
0.00146777
-0.00240271
-0.00403743
-0.00419346
-0.0034424
-0.0022853
-0.0266449
-0.0261365
-0.0229435
-0.018207
-0.0128356
-0.00779506
-0.00372943
-0.00079374
0.0014453
-0.0272765
-0.027043
-0.0242788
-0.0199046
-0.0143929
-0.00930077
-0.0049906
-0.00171928
0.00106355
-0.030283
-0.0301154
-0.0270346
-0.0220989
-0.0159733
-0.0101729
-0.00535471
-0.00179604
0.00121305
-0.0356881
-0.0354915
-0.0318553
-0.0258731
-0.0184328
-0.0114429
-0.00577708
-0.0017822
0.00137004
-0.0444098
-0.0438328
-0.0394167
-0.0317515
-0.022229
-0.013366
-0.00640883
-0.00177431
0.00141495
-0.0575253
-0.0556609
-0.0501232
-0.0398082
-0.0273814
-0.01592
-0.00724488
-0.00180611
0.00126695
-0.0736114
-0.068267
-0.0618543
-0.0487903
-0.0328396
-0.0184735
-0.00803638
-0.00187669
0.000883976
-0.105094
-0.0852399
-0.0731513
-0.0559291
-0.0363661
-0.0196612
-0.00820948
-0.00186061
0.00031571
)
;

boundaryField
{
    inlet
    {
        type            zeroGradient;
    }
    outlet
    {
        type            totalPressure;
        rho             none;
        psi             none;
        gamma           1;
        p0              uniform 0;
        value           uniform 0;
    }
    fixedWalls
    {
        type            zeroGradient;
    }
    frontAndBack
    {
        type            empty;
    }
}


// ************************************************************************* //
