/*--------------------------------*- C++ -*----------------------------------*\
| =========                 |                                                 |
| \\      /  F ield         | OpenFOAM Extend Project: Open source CFD        |
|  \\    /   O peration     | Version:  1.6-ext                               |
|   \\  /    A nd           | Web:      www.extend-project.de                 |
|    \\/     M anipulation  |                                                 |
\*---------------------------------------------------------------------------*/
FoamFile
{
    version     2.0;
    format      ascii;
    class       surfaceScalarField;
    location    "1.8";
    object      phi;
}
// * * * * * * * * * * * * * * * * * * * * * * * * * * * * * * * * * * * * * //

dimensions      [0 3 -1 0 0 0 0];

internalField   nonuniform List<scalar> 
525
(
0.000160959
3.90414e-05
0.000117613
4.33455e-05
8.27161e-05
3.4897e-05
5.65678e-05
2.61483e-05
3.7382e-05
1.91857e-05
2.26027e-05
1.47794e-05
1.05446e-05
1.20581e-05
1.8943e-06
8.6503e-06
1.8943e-06
0.000205169
3.38725e-05
0.000191148
5.73664e-05
0.000164153
6.18925e-05
0.00013208
5.82205e-05
9.9255e-05
5.20112e-05
6.74929e-05
4.65414e-05
3.76038e-05
4.19472e-05
1.24206e-05
3.38335e-05
1.43149e-05
0.000208844
2.50283e-05
0.000208565
5.76454e-05
0.000194871
7.55863e-05
0.000169675
8.34167e-05
0.000136599
8.50869e-05
9.88133e-05
8.43275e-05
5.88749e-05
8.18856e-05
2.16134e-05
7.1095e-05
3.59283e-05
0.0002052
1.98282e-05
0.000208261
5.45841e-05
0.000201963
8.18849e-05
0.000184164
0.000101216
0.000155617
0.000113634
0.000118171
0.000121773
7.41004e-05
0.000125956
2.89695e-05
0.000116226
6.48978e-05
0.000202524
1.73039e-05
0.000205227
5.18818e-05
0.000202377
8.47345e-05
0.000190233
0.00011336
0.000167274
0.000136593
0.000133291
0.000155756
8.86616e-05
0.000170586
3.75051e-05
0.000167382
0.000102403
0.000201416
1.58877e-05
0.000203905
4.93926e-05
0.00020357
8.50695e-05
0.000196551
0.000120379
0.000180026
0.000153118
0.000151836
0.000183946
0.000109472
0.00021295
5.2437e-05
0.000224417
0.00015484
0.000201355
1.45331e-05
0.000204796
4.59515e-05
0.000207729
8.2136e-05
0.000206774
0.000121335
0.000198699
0.000161192
0.000180346
0.0002023
0.000145366
0.00024793
8.36126e-05
0.000286171
0.000238452
0.000201887
1.26463e-05
0.000207348
4.04906e-05
0.000214697
7.47863e-05
0.000221303
0.000114729
0.000224137
0.000158358
0.000219648
0.000206789
0.000197465
0.000270113
0.000135041
0.000348594
0.000373494
0.000202752
9.89385e-06
0.000210886
3.23574e-05
0.000223338
6.23339e-05
0.000238644
9.94231e-05
0.000256184
0.000140818
0.000278282
0.000184691
0.000313504
0.000234891
0.000378962
0.000283137
0.000345948
0.000406507
0.000203949
5.9448e-06
0.000215021
2.12855e-05
0.000232123
4.52322e-05
0.000254444
7.71019e-05
0.000282507
0.000112755
0.000319259
0.000147939
0.000368987
0.000185163
0.00044741
0.000204714
0.000263259
0.000530099
0.000205924
2.07524e-08
0.000220134
7.07583e-06
0.000240565
2.48006e-05
0.000266521
5.11461e-05
0.000298462
8.0814e-05
0.000338151
0.00010825
0.000387491
0.000135822
0.000450328
0.000141877
0.000172021
0.000541566
0.00020912
-9.09886e-06
0.000226637
-1.04411e-05
0.000248261
3.17616e-06
0.000274255
2.51517e-05
0.000305533
4.95362e-05
0.000343224
7.05593e-05
0.000389267
8.97793e-05
0.000439582
9.15618e-05
0.000100866
0.000510738
0.000214128
-2.32268e-05
0.000231216
-2.7529e-05
0.000248909
-1.45166e-05
0.000269967
4.09315e-06
0.000296555
2.29479e-05
0.000329423
3.76913e-05
0.000369888
4.93143e-05
0.000411453
4.99967e-05
5.03143e-05
0.000462005
0.000211278
-3.45048e-05
0.000215621
-3.18716e-05
0.000219371
-1.82675e-05
0.000228542
-5.07692e-06
0.000246019
5.4703e-06
0.000271178
1.25325e-05
0.00030329
1.72021e-05
0.000336153
1.7134e-05
1.58449e-05
0.000370622
0.000165495
0.000133624
0.000115356
0.000110279
0.000115749
0.000128282
0.000145484
0.000162618
0.000178463
0.000263805
0.000142702
4.09206e-05
0.000222884
0.000517453
0.000155348
5.9681e-05
0.000498693
0.000578072
0.000118842
5.18634e-05
0.00058589
0.000555704
7.38759e-05
3.14759e-05
0.000576091
0.000500426
3.54544e-05
1.10016e-05
0.000520901
0.000396393
9.68406e-06
-4.28988e-07
0.000407823
0.000188147
0.000187718
0.000247059
-2.59436e-05
1.76898e-06
0.000282645
-8.39265e-05
4.83403e-05
0.000308703
-0.000142397
0.000116338
0.000321118
-0.000185947
0.000173533
0.000322268
-0.000203191
0.000202041
0.000316388
-0.00019474
0.000200619
0.000307665
-0.000169091
0.000177814
0.000299374
-0.00013752
0.000145811
-0.000100996
0.000107385
0.000485517
-1.27677e-05
0.000478055
-7.64643e-05
0.000465869
-0.000130212
0.000445251
-0.000165329
0.000418168
-0.000176108
0.000388988
-0.000165559
0.000361912
-0.000142015
0.000339474
-0.000115081
-8.51055e-05
0.000580499
-7.3775e-06
0.000565336
-6.13005e-05
0.000539466
-0.000104342
0.000504357
-0.00013022
0.000464224
-0.000135975
0.000424155
-0.000125489
0.000388315
-0.000106176
0.000358695
-8.54613e-05
-6.39991e-05
0.000579603
-1.08893e-05
0.000566875
-4.85723e-05
0.000540081
-7.75485e-05
0.000502654
-9.2793e-05
0.000460122
-9.34433e-05
0.000418124
-8.34908e-05
0.000380848
-6.89007e-05
0.000349968
-5.45806e-05
-4.17069e-05
0.000523864
-1.38528e-05
0.000510588
-3.52965e-05
0.000482852
-4.98126e-05
0.000445242
-5.51823e-05
0.000404017
-5.22181e-05
0.000364777
-4.42516e-05
0.000330995
-3.51177e-05
0.000303617
-2.72029e-05
-2.17929e-05
0.000403646
-9.67511e-06
0.000385051
-1.67019e-05
0.000355409
-2.01706e-05
0.000320205
-1.99786e-05
0.000285196
-1.72092e-05
0.000254413
-1.34687e-05
0.000229423
-1.01268e-05
0.000210003
-7.78342e-06
-7.25803e-06
0.000178043
0.000161341
0.00014117
0.000121192
0.000103983
9.05139e-05
8.03871e-05
7.26037e-05
-5.03066e-06
5.03066e-06
-1.03208e-05
5.29017e-06
-1.13901e-05
1.06932e-06
-7.67445e-06
-3.7157e-06
-5.3491e-07
-7.13954e-06
8.09733e-06
-8.63224e-06
1.68654e-05
-8.76806e-06
2.49077e-05
-8.04229e-06
-7.51798e-06
-6.83999e-06
1.18706e-05
-1.21951e-05
1.06452e-05
-9.79507e-06
-1.33066e-06
8.69189e-07
-1.438e-05
1.69642e-05
-2.32346e-05
3.53786e-05
-2.70466e-05
5.32664e-05
-2.66559e-05
6.87808e-05
-2.35567e-05
-2.00636e-05
-8.22257e-06
2.00932e-05
-1.37383e-05
1.61609e-05
-8.77365e-06
-6.29527e-06
6.77642e-06
-2.993e-05
2.92833e-05
-4.57415e-05
5.42227e-05
-5.19859e-05
7.79974e-05
-5.04306e-05
9.82904e-05
-4.38497e-05
-3.57939e-05
-1.11219e-05
3.12151e-05
-1.80838e-05
2.31228e-05
-1.15753e-05
-1.28037e-05
8.1103e-06
-4.96156e-05
3.5992e-05
-7.36232e-05
6.63099e-05
-8.23038e-05
9.46641e-05
-7.87849e-05
0.000118494
-6.76799e-05
-5.36867e-05
-1.41017e-05
4.53168e-05
-2.0782e-05
2.98031e-05
-1.10537e-05
-2.2532e-05
1.34132e-05
-7.40825e-05
4.63313e-05
-0.000106541
8.09885e-05
-0.000116961
0.000112521
-0.000110317
0.000138486
-9.36449e-05
-7.24996e-05
-1.23954e-05
5.77122e-05
-1.13881e-05
2.87958e-05
6.51863e-06
-4.04388e-05
3.671e-05
-0.000104274
7.28591e-05
-0.00014269
0.000108718
-0.00015282
0.000140056
-0.000141655
0.000165234
-0.000118823
-9.00776e-05
4.16177e-06
5.35504e-05
2.69105e-05
6.04714e-06
5.80249e-05
-7.15533e-05
9.29128e-05
-0.000139162
0.000127357
-0.000177135
0.000158091
-0.000183554
0.000183109
-0.000166673
0.000202484
-0.000138197
-0.000102999
5.53194e-05
0.000109707
0.000154492
0.000188864
0.000213769
0.000230834
0.000241975
0.000249589
)
;

boundaryField
{
    inlet
    {
        type            calculated;
        value           uniform -0.0002;
    }
    outlet
    {
        type            calculated;
        value           nonuniform List<scalar> 
15
(
3.24257e-05
8.13265e-05
0.000114021
0.000136387
0.000157299
0.000182812
0.000215405
0.000253975
0.000292985
0.000323583
0.000337589
0.000327676
0.000283703
0.000195468
6.53457e-05
)
;
    }
    fixedWalls
    {
        type            calculated;
        value           uniform 0;
    }
    frontAndBack
    {
        type            empty;
    }
}


// ************************************************************************* //
