/*--------------------------------*- C++ -*----------------------------------*\
| =========                 |                                                 |
| \\      /  F ield         | OpenFOAM Extend Project: Open source CFD        |
|  \\    /   O peration     | Version:  1.6-ext                               |
|   \\  /    A nd           | Web:      www.extend-project.de                 |
|    \\/     M anipulation  |                                                 |
\*---------------------------------------------------------------------------*/
FoamFile
{
    version     2.0;
    format      ascii;
    class       volVectorField;
    location    "1.8";
    object      U;
}
// * * * * * * * * * * * * * * * * * * * * * * * * * * * * * * * * * * * * * //

dimensions      [0 1 -1 0 0 0 0];

internalField   nonuniform List<vector> 
284
(
(0.163787 0.0265664 0)
(0.142053 0.0266681 0)
(0.0996076 0.0189546 0)
(0.0680703 0.0118432 0)
(0.0459995 0.00696597 0)
(0.0294634 0.00428355 0)
(0.0160806 0.00288581 0)
(0.00462461 0.00145076 0)
(-0.000328838 -0.000962752 0)
(0.200626 0.0431648 0)
(0.202468 0.0570008 0)
(0.180566 0.0522414 0)
(0.149024 0.0426914 0)
(0.115781 0.0335798 0)
(0.0833017 0.0271833 0)
(0.0519853 0.0228742 0)
(0.0222015 0.0171635 0)
(0.00395707 0.00538087 0)
(0.203134 0.0286857 0)
(0.211324 0.0585782 0)
(0.205143 0.0705702 0)
(0.184914 0.0723901 0)
(0.154885 0.069225 0)
(0.118864 0.0650825 0)
(0.0790517 0.0606756 0)
(0.0371058 0.05068 0)
(0.0080427 0.0237409 0)
(0.201564 0.0218724 0)
(0.20784 0.0560035 0)
(0.207798 0.0795693 0)
(0.196104 0.0936028 0)
(0.172568 0.100483 0)
(0.139172 0.103619 0)
(0.0974594 0.103731 0)
(0.0486849 0.0926619 0)
(0.0116444 0.0492588 0)
(0.200605 0.018326 0)
(0.204235 0.0530864 0)
(0.205625 0.0837713 0)
(0.199012 0.108292 0)
(0.181684 0.126283 0)
(0.153344 0.139678 0)
(0.113565 0.148485 0)
(0.0611789 0.140893 0)
(0.016563 0.0821864 0)
(0.200269 0.0165214 0)
(0.202673 0.0506738 0)
(0.204871 0.0854242 0)
(0.202204 0.117969 0)
(0.191076 0.146337 0)
(0.169495 0.171374 0)
(0.134709 0.192868 0)
(0.0811061 0.195656 0)
(0.0261356 0.125647 0)
(0.200241 0.0152289 0)
(0.202805 0.0479324 0)
(0.206822 0.08438 0)
(0.208777 0.122295 0)
(0.205105 0.159209 0)
(0.193171 0.195583 0)
(0.169055 0.23185 0)
(0.118016 0.250465 0)
(0.0462673 0.19395 0)
(0.200352 0.0136687 0)
(0.203994 0.0436589 0)
(0.211001 0.0794701 0)
(0.218845 0.1198 0)
(0.224426 0.162501 0)
(0.225402 0.208857 0)
(0.215764 0.267611 0)
(0.190939 0.333353 0)
(0.0597589 0.282079 0)
(0.200536 0.0113987 0)
(0.205788 0.0369695 0)
(0.216501 0.069647 0)
(0.231132 0.108865 0)
(0.247795 0.152348 0)
(0.26932 0.200117 0)
(0.293915 0.260251 0)
(0.351366 0.335925 0)
(0.395564 0.416887 0)
(0.200813 0.00812565 0)
(0.208082 0.0274516 0)
(0.222475 0.054801 0)
(0.242776 0.0897168 0)
(0.267633 0.128862 0)
(0.301097 0.169338 0)
(0.340262 0.214546 0)
(0.405399 0.247577 0)
(0.485523 0.318369 0)
(0.201355 0.00358955 0)
(0.211412 0.0149492 0)
(0.229073 0.0357948 0)
(0.252686 0.0649042 0)
(0.281333 0.0976782 0)
(0.317488 0.128952 0)
(0.360629 0.161096 0)
(0.415538 0.169256 0)
(0.492366 0.210021 0)
(0.202368 -0.00359153 0)
(0.216386 -0.00104911 0)
(0.236361 0.0139544 0)
(0.260357 0.0377532 0)
(0.288868 0.0646367 0)
(0.323137 0.0886289 0)
(0.365058 0.111641 0)
(0.411831 0.113805 0)
(0.472237 0.128883 0)
(0.204141 -0.0146876 0)
(0.221969 -0.0193587 0)
(0.239515 -0.0073666 0)
(0.258492 0.012672 0)
(0.282185 0.0342803 0)
(0.311585 0.0522921 0)
(0.348785 0.0675619 0)
(0.389274 0.0688192 0)
(0.435456 0.0708996 0)
(0.201696 -0.0357206 0)
(0.214326 -0.0376045 0)
(0.217174 -0.022587 0)
(0.222442 -0.00505199 0)
(0.235742 0.0105051 0)
(0.257086 0.0217914 0)
(0.286499 0.0296458 0)
(0.31904 0.0298724 0)
(0.353354 0.028145 0)
(0.164586 -0.0250326 0)
(0.15058 -0.0225311 0)
(0.122978 -0.0126089 0)
(0.110472 -0.00443604 0)
(0.111461 0.0012393 0)
(0.121024 0.00458124 0)
(0.136511 0.00630549 0)
(0.153943 0.00581196 0)
(0.171007 0.00455744 0)
(0.362061 0.158846 0)
(0.208327 0.035694 0)
(0.543136 0.156408 0)
(0.511159 0.0555402 0)
(0.568504 0.140381 0)
(0.590634 0.0644643 0)
(0.536585 0.0942051 0)
(0.572085 0.0423901 0)
(0.482876 0.0510495 0)
(0.514648 0.0191439 0)
(0.385173 0.0177282 0)
(0.405199 0.00180181 0)
(0.184594 0.00121884 0)
(0.189708 -0.00295461 0)
(0.226977 -0.0296775 0)
(0.264302 -0.0803361 0)
(0.301155 -0.139989 0)
(0.321082 -0.188004 0)
(0.325147 -0.209544 0)
(0.320131 -0.203668 0)
(0.311052 -0.178488 0)
(0.30316 -0.145729 0)
(0.292472 -0.107033 0)
(0.491231 -0.0185923 0)
(0.48321 -0.0817356 0)
(0.476601 -0.138629 0)
(0.460193 -0.178484 0)
(0.433663 -0.192921 0)
(0.403162 -0.183495 0)
(0.373286 -0.158588 0)
(0.350044 -0.128905 0)
(0.324772 -0.0949412 0)
(0.588017 -0.00444483 0)
(0.57678 -0.0652793 0)
(0.557019 -0.115585 0)
(0.525693 -0.147361 0)
(0.485571 -0.156381 0)
(0.443475 -0.146241 0)
(0.403818 -0.12495 0)
(0.373044 -0.101176 0)
(0.339823 -0.0753068 0)
(0.583246 -0.00874688 0)
(0.578062 -0.054515 0)
(0.558097 -0.0907391 0)
(0.524651 -0.111442 0)
(0.48243 -0.114686 0)
(0.438479 -0.104422 0)
(0.397296 -0.0874084 0)
(0.36512 -0.0698621 0)
(0.330425 -0.0527389 0)
(0.527107 -0.0138411 0)
(0.521927 -0.0431706 0)
(0.500702 -0.0644744 0)
(0.466474 -0.0741625 0)
(0.425118 -0.0723281 0)
(0.383557 -0.0628124 0)
(0.345995 -0.0506686 0)
(0.316909 -0.0394965 0)
(0.286507 -0.0306995 0)
(0.409512 -0.0144214 0)
(0.397941 -0.0272935 0)
(0.372793 -0.0344989 0)
(0.338839 -0.0353153 0)
(0.302341 -0.0312074 0)
(0.268702 -0.0248953 0)
(0.240492 -0.0188823 0)
(0.219169 -0.0143468 0)
(0.197917 -0.012455 0)
(0.184669 -0.00649553 0)
(0.170984 -0.00836655 0)
(0.151812 -0.00839834 0)
(0.131047 -0.00709223 0)
(0.112038 -0.00526278 0)
(0.0966008 -0.00359683 0)
(0.0849062 -0.0024854 0)
(0.0762343 -0.00200517 0)
(0.0670589 -0.00249496 0)
(-0.0024834 0.00237928 0)
(-0.00817925 0.00283618 0)
(-0.0119133 0.00127219 0)
(-0.0103805 -0.000632752 0)
(-0.00462733 -0.00205007 0)
(0.00363343 -0.00270704 0)
(0.0125733 -0.00289722 0)
(0.0208939 -0.0028249 0)
(0.0307206 -0.00296252 0)
(-0.00362033 0.00820796 0)
(-0.0107829 0.00818586 0)
(-0.0130995 0.000879381 0)
(-0.00612164 -0.00719665 0)
(0.00817388 -0.0128437 0)
(0.0262052 -0.0153702 0)
(0.0446793 -0.0154336 0)
(0.0613663 -0.0139332 0)
(0.0788583 -0.012516 0)
(-0.00450102 0.0156183 0)
(-0.0128106 0.01328 0)
(-0.0140914 -0.00331569 0)
(-0.00307349 -0.0209289 0)
(0.0172466 -0.0329278 0)
(0.0418973 -0.0379628 0)
(0.0666963 -0.0371923 0)
(0.0886415 -0.032628 0)
(0.111084 -0.0271974 0)
(-0.00621906 0.0251678 0)
(-0.0171152 0.019493 0)
(-0.0183853 -0.00885634 0)
(-0.00423202 -0.0384437 0)
(0.0212278 -0.0581926 0)
(0.051459 -0.0658034 0)
(0.0813106 -0.0635524 0)
(0.107218 -0.0549947 0)
(0.133129 -0.04429 0)
(-0.00832376 0.0380597 0)
(-0.021087 0.0272221 0)
(-0.0200276 -0.016379 0)
(-0.00138689 -0.060571 0)
(0.0293087 -0.0890095 0)
(0.0642612 -0.0988319 0)
(0.0978182 -0.0940205 0)
(0.126308 -0.0803255 0)
(0.153866 -0.0630041 0)
(-0.00847368 0.0515784 0)
(-0.0171016 0.0309 0)
(-0.00613856 -0.0298842 0)
(0.0200705 -0.0886639 0)
(0.0551126 -0.124945 0)
(0.0918183 -0.135602 0)
(0.125564 -0.126774 0)
(0.153519 -0.106911 0)
(0.179423 -0.0819229 0)
(-0.000357978 0.0686251 0)
(0.00955009 0.0286763 0)
(0.0418828 -0.0520679 0)
(0.0768648 -0.122113 0)
(0.112002 -0.162347 0)
(0.144207 -0.171176 0)
(0.171576 -0.156956 0)
(0.193465 -0.130774 0)
(0.212409 -0.0982402 0)
(0.0399613 0.0275327 0)
(0.0782261 -0.0187368 0)
(0.135176 -0.0963609 0)
(0.176807 -0.161054 0)
(0.204853 -0.195028 0)
(0.223907 -0.197389 0)
(0.236685 -0.176909 0)
(0.24595 -0.145778 0)
(0.251891 -0.107881 0)
)
;

boundaryField
{
    inlet
    {
        type            fixedValue;
        value           uniform (0.2 0 0);
    }
    outlet
    {
        type            zeroGradient;
    }
    fixedWalls
    {
        type            fixedValue;
        value           uniform (0 0 0);
    }
    frontAndBack
    {
        type            empty;
    }
}


// ************************************************************************* //
