/*--------------------------------*- C++ -*----------------------------------*\
| =========                 |                                                 |
| \\      /  F ield         | OpenFOAM Extend Project: Open source CFD        |
|  \\    /   O peration     | Version:  1.6-ext                               |
|   \\  /    A nd           | Web:      www.extend-project.de                 |
|    \\/     M anipulation  |                                                 |
\*---------------------------------------------------------------------------*/
FoamFile
{
    version     2.0;
    format      ascii;
    class       vectorField;
    location    "0.05";
    object      accumulatedFluidInterfaceDisplacement;
}
// * * * * * * * * * * * * * * * * * * * * * * * * * * * * * * * * * * * * * //


338
(
(8.07014e-06 -5.91474e-06 4.09135e-25)
(6.81996e-06 1.86162e-06 3.69728e-25)
(1.01924e-05 -2.79241e-06 3.07433e-26)
(1.07558e-05 -2.78452e-06 1.04888e-26)
(1.13844e-05 -2.96437e-06 -3.82967e-26)
(1.2026e-05 -3.12076e-06 1.84903e-26)
(1.26602e-05 -3.27286e-06 4.95162e-26)
(1.32799e-05 -3.42535e-06 -7.47345e-27)
(1.38823e-05 -3.57767e-06 -7.314e-26)
(1.4466e-05 -3.72913e-06 7.7879e-26)
(1.50301e-05 -3.87909e-06 6.75996e-26)
(1.55736e-05 -4.0271e-06 -1.2814e-25)
(1.60955e-05 -4.17276e-06 -8.49341e-26)
(1.65949e-05 -4.31571e-06 -4.84315e-26)
(1.7071e-05 -4.4556e-06 -6.93382e-26)
(1.75228e-05 -4.59207e-06 1.9669e-26)
(1.79493e-05 -4.72472e-06 2.35378e-25)
(1.83498e-05 -4.85313e-06 -4.57812e-26)
(1.87233e-05 -4.97683e-06 -1.30457e-25)
(1.90689e-05 -5.09527e-06 9.76259e-27)
(1.93859e-05 -5.20787e-06 2.6976e-26)
(1.96735e-05 -5.31398e-06 2.31907e-25)
(1.99309e-05 -5.41289e-06 -2.02924e-25)
(2.01576e-05 -5.50383e-06 -9.28646e-26)
(2.03529e-05 -5.58603e-06 1.78506e-25)
(2.05164e-05 -5.65866e-06 2.73008e-26)
(2.06477e-05 -5.7209e-06 -2.79297e-26)
(2.07465e-05 -5.77191e-06 9.10727e-26)
(2.08125e-05 -5.81089e-06 2.52309e-25)
(2.08456e-05 -5.83705e-06 -1.5312e-25)
(2.08458e-05 -5.84963e-06 -4.71229e-25)
(2.0813e-05 -5.8479e-06 4.12224e-25)
(2.07474e-05 -5.8312e-06 -1.44161e-25)
(2.06493e-05 -5.79887e-06 -7.80167e-25)
(2.05188e-05 -5.75032e-06 1.28412e-25)
(2.03563e-05 -5.68501e-06 6.02817e-25)
(2.01622e-05 -5.60241e-06 5.56078e-25)
(1.99372e-05 -5.50208e-06 -3.60541e-25)
(1.96816e-05 -5.38362e-06 -2.29511e-25)
(1.93963e-05 -5.24671e-06 4.47252e-26)
(1.90819e-05 -5.09111e-06 -2.21149e-25)
(1.87392e-05 -4.91667e-06 9.175e-26)
(1.83692e-05 -4.72336e-06 1.01274e-26)
(1.79728e-05 -4.51128e-06 -3.41109e-25)
(1.7551e-05 -4.28065e-06 6.31388e-27)
(1.71047e-05 -4.03187e-06 2.6392e-25)
(1.66352e-05 -3.76548e-06 -6.92613e-27)
(1.61434e-05 -3.48217e-06 -1.5875e-26)
(1.56304e-05 -3.18281e-06 1.42096e-25)
(1.50974e-05 -2.86841e-06 5.73016e-26)
(1.45454e-05 -2.54016e-06 1.0662e-25)
(1.39754e-05 -2.19935e-06 -4.24076e-25)
(1.33885e-05 -1.84743e-06 7.5251e-26)
(1.27857e-05 -1.48599e-06 7.25799e-25)
(1.21679e-05 -1.11672e-06 -1.12968e-24)
(1.15362e-05 -7.41437e-07 -4.39148e-25)
(1.08913e-05 -3.62097e-07 -1.3392e-26)
(1.02343e-05 1.92378e-08 1.45381e-25)
(9.56602e-06 4.0036e-07 1.59023e-24)
(8.88728e-06 7.78925e-07 1.5706e-25)
(8.19894e-06 1.1524e-06 -7.10406e-25)
(7.50182e-06 1.51811e-06 -6.03841e-25)
(9.5716e-06 -4.14739e-06 9.70542e-28)
(9.80105e-06 -3.32071e-06 -5.36123e-27)
(9.53332e-06 -5.59495e-06 5.00558e-27)
(9.42408e-06 -4.9736e-06 -1.97119e-28)
(8.79784e-06 -6.20973e-06 1.10344e-25)
(9.53088e-06 -6.52341e-06 -7.06154e-25)
(1.0244e-05 -6.84337e-06 1.80978e-25)
(1.0937e-05 -7.1669e-06 5.79523e-25)
(1.16098e-05 -7.49145e-06 -7.49684e-26)
(1.22619e-05 -7.81462e-06 1.71447e-25)
(1.28931e-05 -8.13413e-06 -4.75422e-25)
(1.35031e-05 -8.44782e-06 -3.18046e-25)
(1.40913e-05 -8.75367e-06 1.43529e-25)
(1.46575e-05 -9.04979e-06 3.45322e-25)
(1.52011e-05 -9.33442e-06 -5.36436e-26)
(1.57217e-05 -9.60593e-06 -4.59769e-25)
(1.62189e-05 -9.86282e-06 4.52214e-25)
(1.66921e-05 -1.01038e-05 2.67904e-25)
(1.71409e-05 -1.03276e-05 -2.36635e-25)
(1.75648e-05 -1.05332e-05 -3.2117e-25)
(1.79634e-05 -1.07198e-05 1.32845e-27)
(1.83362e-05 -1.08868e-05 2.49007e-26)
(1.86829e-05 -1.10336e-05 -1.7306e-25)
(1.90029e-05 -1.11599e-05 -9.3558e-26)
(1.92958e-05 -1.12655e-05 9.96975e-26)
(1.95614e-05 -1.13505e-05 -1.42057e-26)
(1.97991e-05 -1.14149e-05 -6.56189e-25)
(2.00086e-05 -1.14591e-05 -1.75712e-25)
(2.01896e-05 -1.14834e-05 5.65927e-25)
(2.03417e-05 -1.14883e-05 -7.88715e-27)
(2.04646e-05 -1.14744e-05 -1.00031e-25)
(2.05582e-05 -1.14422e-05 4.90564e-26)
(2.06221e-05 -1.13925e-05 3.57355e-26)
(2.06563e-05 -1.1326e-05 3.19758e-25)
(2.06607e-05 -1.12435e-05 2.3801e-25)
(2.06352e-05 -1.11458e-05 2.55759e-25)
(2.058e-05 -1.10338e-05 -2.63417e-27)
(2.0495e-05 -1.09083e-05 -5.27128e-25)
(2.03805e-05 -1.07705e-05 -1.03042e-25)
(2.02367e-05 -1.06211e-05 1.14424e-25)
(2.00638e-05 -1.04613e-05 -2.82435e-26)
(1.98622e-05 -1.02921e-05 3.01275e-26)
(1.96323e-05 -1.01143e-05 2.15826e-25)
(1.93744e-05 -9.92911e-06 1.53627e-25)
(1.9089e-05 -9.73733e-06 -2.52061e-25)
(1.87765e-05 -9.53989e-06 3.23996e-26)
(1.84375e-05 -9.33763e-06 1.60233e-25)
(1.80725e-05 -9.13129e-06 -9.64624e-26)
(1.76821e-05 -8.92157e-06 -1.85461e-26)
(1.72669e-05 -8.70907e-06 1.0088e-25)
(1.68275e-05 -8.49434e-06 -5.08089e-26)
(1.63647e-05 -8.27785e-06 -1.29916e-25)
(1.58791e-05 -8.06e-06 -3.96226e-26)
(1.53716e-05 -7.84116e-06 1.63153e-26)
(1.4843e-05 -7.62164e-06 6.57656e-26)
(1.4294e-05 -7.4017e-06 5.76869e-26)
(1.37255e-05 -7.18153e-06 -1.12057e-25)
(1.31383e-05 -6.96121e-06 3.84632e-27)
(1.25333e-05 -6.74059e-06 6.70095e-26)
(1.19116e-05 -6.51938e-06 -7.81682e-26)
(1.1276e-05 -6.29732e-06 -3.33332e-26)
(1.06331e-05 -6.07921e-06 3.28957e-27)
(1.00033e-05 -5.88405e-06 1.54562e-26)
(2.28775e-06 -1.38237e-06 -3.95852e-24)
(2.02335e-06 -1.79842e-06 -2.8924e-24)
(1.56573e-06 -2.53598e-06 1.474e-24)
(1.26023e-06 -3.08213e-06 3.93752e-24)
(1.10883e-06 -3.46691e-06 2.35047e-25)
(1.08414e-06 -3.7378e-06 -2.64421e-24)
(1.15494e-06 -3.92588e-06 -3.00469e-24)
(1.30018e-06 -4.05752e-06 7.40038e-25)
(1.50439e-06 -4.15171e-06 2.20084e-24)
(1.75735e-06 -4.22325e-06 -2.02365e-24)
(2.05195e-06 -4.28324e-06 -4.32716e-25)
(2.38336e-06 -4.34023e-06 2.74983e-24)
(2.74827e-06 -4.40068e-06 2.80121e-25)
(3.14452e-06 -4.46955e-06 -1.47797e-24)
(3.57078e-06 -4.55059e-06 -6.01064e-25)
(4.0264e-06 -4.64673e-06 -3.06234e-25)
(4.51123e-06 -4.76029e-06 4.55553e-25)
(5.0255e-06 -4.89328e-06 1.80349e-24)
(5.56968e-06 -5.04747e-06 6.84674e-26)
(6.14437e-06 -5.22459e-06 -8.03781e-25)
(6.75019e-06 -5.4263e-06 3.19449e-25)
(7.38762e-06 -5.65415e-06 2.51779e-27)
(2.22972e-06 1.33653e-06 -4.50617e-24)
(6.18966e-06 2.1653e-06 4.93566e-25)
(5.60915e-06 2.43202e-06 1.49614e-25)
(5.06461e-06 2.66964e-06 6.1123e-25)
(4.55448e-06 2.88033e-06 -2.00202e-24)
(4.07714e-06 3.06635e-06 -3.79033e-25)
(3.63112e-06 3.22994e-06 1.06528e-24)
(3.21517e-06 3.37324e-06 -1.7909e-25)
(2.82837e-06 3.49807e-06 6.07762e-25)
(2.47027e-06 3.60573e-06 -5.44467e-25)
(2.14099e-06 3.69676e-06 5.1916e-25)
(1.84145e-06 3.77062e-06 1.14529e-24)
(1.57344e-06 3.82537e-06 -3.83005e-25)
(1.33995e-06 3.85731e-06 -1.29016e-24)
(1.14551e-06 3.86048e-06 7.94166e-25)
(9.96922e-07 3.82617e-06 -8.69303e-25)
(9.04039e-07 3.74185e-06 -1.62093e-24)
(8.81776e-07 3.59074e-06 1.94203e-24)
(9.50464e-07 3.34872e-06 1.73677e-24)
(1.14014e-06 2.98703e-06 -6.81104e-25)
(1.47685e-06 2.46098e-06 -6.68648e-25)
(1.95673e-06 1.74287e-06 -1.57202e-24)
(8.07014e-06 -5.91474e-06 4.09135e-25)
(6.81996e-06 1.86162e-06 3.69728e-25)
(1.01924e-05 -2.79241e-06 3.07433e-26)
(1.07558e-05 -2.78452e-06 1.04888e-26)
(1.13844e-05 -2.96437e-06 -3.82967e-26)
(1.2026e-05 -3.12076e-06 1.84903e-26)
(1.26602e-05 -3.27286e-06 4.95162e-26)
(1.32799e-05 -3.42535e-06 -7.47345e-27)
(1.38823e-05 -3.57767e-06 -7.314e-26)
(1.4466e-05 -3.72913e-06 7.7879e-26)
(1.50301e-05 -3.87909e-06 6.75996e-26)
(1.55736e-05 -4.0271e-06 -1.2814e-25)
(1.60955e-05 -4.17276e-06 -8.49341e-26)
(1.65949e-05 -4.31571e-06 -4.84315e-26)
(1.7071e-05 -4.4556e-06 -6.93382e-26)
(1.75228e-05 -4.59207e-06 1.9669e-26)
(1.79493e-05 -4.72472e-06 2.35378e-25)
(1.83498e-05 -4.85313e-06 -4.57812e-26)
(1.87233e-05 -4.97683e-06 -1.30457e-25)
(1.90689e-05 -5.09527e-06 9.76259e-27)
(1.93859e-05 -5.20787e-06 2.6976e-26)
(1.96735e-05 -5.31398e-06 2.31907e-25)
(1.99309e-05 -5.41289e-06 -2.02924e-25)
(2.01576e-05 -5.50383e-06 -9.28646e-26)
(2.03529e-05 -5.58603e-06 1.78506e-25)
(2.05164e-05 -5.65866e-06 2.73008e-26)
(2.06477e-05 -5.7209e-06 -2.79297e-26)
(2.07465e-05 -5.77191e-06 9.10727e-26)
(2.08125e-05 -5.81089e-06 2.52309e-25)
(2.08456e-05 -5.83705e-06 -1.5312e-25)
(2.08458e-05 -5.84963e-06 -4.71229e-25)
(2.0813e-05 -5.8479e-06 4.12224e-25)
(2.07474e-05 -5.8312e-06 -1.44161e-25)
(2.06493e-05 -5.79887e-06 -7.80167e-25)
(2.05188e-05 -5.75032e-06 1.28412e-25)
(2.03563e-05 -5.68501e-06 6.02817e-25)
(2.01622e-05 -5.60241e-06 5.56078e-25)
(1.99372e-05 -5.50208e-06 -3.60541e-25)
(1.96816e-05 -5.38362e-06 -2.29511e-25)
(1.93963e-05 -5.24671e-06 4.47252e-26)
(1.90819e-05 -5.09111e-06 -2.21149e-25)
(1.87392e-05 -4.91667e-06 9.175e-26)
(1.83692e-05 -4.72336e-06 1.01274e-26)
(1.79728e-05 -4.51128e-06 -3.41109e-25)
(1.7551e-05 -4.28065e-06 6.31388e-27)
(1.71047e-05 -4.03187e-06 2.6392e-25)
(1.66352e-05 -3.76548e-06 -6.92613e-27)
(1.61434e-05 -3.48217e-06 -1.5875e-26)
(1.56304e-05 -3.18281e-06 1.42096e-25)
(1.50974e-05 -2.86841e-06 5.73016e-26)
(1.45454e-05 -2.54016e-06 1.0662e-25)
(1.39754e-05 -2.19935e-06 -4.24076e-25)
(1.33885e-05 -1.84743e-06 7.5251e-26)
(1.27857e-05 -1.48599e-06 7.25799e-25)
(1.21679e-05 -1.11672e-06 -1.12968e-24)
(1.15362e-05 -7.41437e-07 -4.39148e-25)
(1.08913e-05 -3.62097e-07 -1.3392e-26)
(1.02343e-05 1.92378e-08 1.45381e-25)
(9.56602e-06 4.0036e-07 1.59023e-24)
(8.88728e-06 7.78925e-07 1.5706e-25)
(8.19894e-06 1.1524e-06 -7.10406e-25)
(7.50182e-06 1.51811e-06 -6.03841e-25)
(9.5716e-06 -4.14739e-06 9.70542e-28)
(9.80105e-06 -3.32071e-06 -5.36123e-27)
(9.53332e-06 -5.59495e-06 5.00558e-27)
(9.42408e-06 -4.9736e-06 -1.97119e-28)
(8.79784e-06 -6.20973e-06 1.10344e-25)
(9.53088e-06 -6.52341e-06 -7.06154e-25)
(1.0244e-05 -6.84337e-06 1.80978e-25)
(1.0937e-05 -7.1669e-06 5.79523e-25)
(1.16098e-05 -7.49145e-06 -7.49684e-26)
(1.22619e-05 -7.81462e-06 1.71447e-25)
(1.28931e-05 -8.13413e-06 -4.75422e-25)
(1.35031e-05 -8.44782e-06 -3.18046e-25)
(1.40913e-05 -8.75367e-06 1.43529e-25)
(1.46575e-05 -9.04979e-06 3.45322e-25)
(1.52011e-05 -9.33442e-06 -5.36436e-26)
(1.57217e-05 -9.60593e-06 -4.59769e-25)
(1.62189e-05 -9.86282e-06 4.52214e-25)
(1.66921e-05 -1.01038e-05 2.67904e-25)
(1.71409e-05 -1.03276e-05 -2.36635e-25)
(1.75648e-05 -1.05332e-05 -3.2117e-25)
(1.79634e-05 -1.07198e-05 1.32845e-27)
(1.83362e-05 -1.08868e-05 2.49007e-26)
(1.86829e-05 -1.10336e-05 -1.7306e-25)
(1.90029e-05 -1.11599e-05 -9.3558e-26)
(1.92958e-05 -1.12655e-05 9.96975e-26)
(1.95614e-05 -1.13505e-05 -1.42057e-26)
(1.97991e-05 -1.14149e-05 -6.56189e-25)
(2.00086e-05 -1.14591e-05 -1.75712e-25)
(2.01896e-05 -1.14834e-05 5.65927e-25)
(2.03417e-05 -1.14883e-05 -7.88715e-27)
(2.04646e-05 -1.14744e-05 -1.00031e-25)
(2.05582e-05 -1.14422e-05 4.90564e-26)
(2.06221e-05 -1.13925e-05 3.57355e-26)
(2.06563e-05 -1.1326e-05 3.19758e-25)
(2.06607e-05 -1.12435e-05 2.3801e-25)
(2.06352e-05 -1.11458e-05 2.55759e-25)
(2.058e-05 -1.10338e-05 -2.63417e-27)
(2.0495e-05 -1.09083e-05 -5.27128e-25)
(2.03805e-05 -1.07705e-05 -1.03042e-25)
(2.02367e-05 -1.06211e-05 1.14424e-25)
(2.00638e-05 -1.04613e-05 -2.82435e-26)
(1.98622e-05 -1.02921e-05 3.01275e-26)
(1.96323e-05 -1.01143e-05 2.15826e-25)
(1.93744e-05 -9.92911e-06 1.53627e-25)
(1.9089e-05 -9.73733e-06 -2.52061e-25)
(1.87765e-05 -9.53989e-06 3.23996e-26)
(1.84375e-05 -9.33763e-06 1.60233e-25)
(1.80725e-05 -9.13129e-06 -9.64624e-26)
(1.76821e-05 -8.92157e-06 -1.85461e-26)
(1.72669e-05 -8.70907e-06 1.0088e-25)
(1.68275e-05 -8.49434e-06 -5.08089e-26)
(1.63647e-05 -8.27785e-06 -1.29916e-25)
(1.58791e-05 -8.06e-06 -3.96226e-26)
(1.53716e-05 -7.84116e-06 1.63153e-26)
(1.4843e-05 -7.62164e-06 6.57656e-26)
(1.4294e-05 -7.4017e-06 5.76869e-26)
(1.37255e-05 -7.18153e-06 -1.12057e-25)
(1.31383e-05 -6.96121e-06 3.84632e-27)
(1.25333e-05 -6.74059e-06 6.70095e-26)
(1.19116e-05 -6.51938e-06 -7.81682e-26)
(1.1276e-05 -6.29732e-06 -3.33332e-26)
(1.06331e-05 -6.07921e-06 3.28957e-27)
(1.00033e-05 -5.88405e-06 1.54562e-26)
(2.28775e-06 -1.38237e-06 -3.95852e-24)
(2.02335e-06 -1.79842e-06 -2.8924e-24)
(1.56573e-06 -2.53598e-06 1.474e-24)
(1.26023e-06 -3.08213e-06 3.93752e-24)
(1.10883e-06 -3.46691e-06 2.35047e-25)
(1.08414e-06 -3.7378e-06 -2.64421e-24)
(1.15494e-06 -3.92588e-06 -3.00469e-24)
(1.30018e-06 -4.05752e-06 7.40038e-25)
(1.50439e-06 -4.15171e-06 2.20084e-24)
(1.75735e-06 -4.22325e-06 -2.02365e-24)
(2.05195e-06 -4.28324e-06 -4.32716e-25)
(2.38336e-06 -4.34023e-06 2.74983e-24)
(2.74827e-06 -4.40068e-06 2.80121e-25)
(3.14452e-06 -4.46955e-06 -1.47797e-24)
(3.57078e-06 -4.55059e-06 -6.01064e-25)
(4.0264e-06 -4.64673e-06 -3.06234e-25)
(4.51123e-06 -4.76029e-06 4.55553e-25)
(5.0255e-06 -4.89328e-06 1.80349e-24)
(5.56968e-06 -5.04747e-06 6.84674e-26)
(6.14437e-06 -5.22459e-06 -8.03781e-25)
(6.75019e-06 -5.4263e-06 3.19449e-25)
(7.38762e-06 -5.65415e-06 2.51779e-27)
(2.22972e-06 1.33653e-06 -4.50617e-24)
(6.18966e-06 2.1653e-06 4.93566e-25)
(5.60915e-06 2.43202e-06 1.49614e-25)
(5.06461e-06 2.66964e-06 6.1123e-25)
(4.55448e-06 2.88033e-06 -2.00202e-24)
(4.07714e-06 3.06635e-06 -3.79033e-25)
(3.63112e-06 3.22994e-06 1.06528e-24)
(3.21517e-06 3.37324e-06 -1.7909e-25)
(2.82837e-06 3.49807e-06 6.07762e-25)
(2.47027e-06 3.60573e-06 -5.44467e-25)
(2.14099e-06 3.69676e-06 5.1916e-25)
(1.84145e-06 3.77062e-06 1.14529e-24)
(1.57344e-06 3.82537e-06 -3.83005e-25)
(1.33995e-06 3.85731e-06 -1.29016e-24)
(1.14551e-06 3.86048e-06 7.94166e-25)
(9.96922e-07 3.82617e-06 -8.69303e-25)
(9.04039e-07 3.74185e-06 -1.62093e-24)
(8.81776e-07 3.59074e-06 1.94203e-24)
(9.50464e-07 3.34872e-06 1.73677e-24)
(1.14014e-06 2.98703e-06 -6.81104e-25)
(1.47685e-06 2.46098e-06 -6.68648e-25)
(1.95673e-06 1.74287e-06 -1.57202e-24)
)


// ************************************************************************* //
