/*--------------------------------*- C++ -*----------------------------------*\
| =========                 |                                                 |
| \\      /  F ield         | OpenFOAM Extend Project: Open source CFD        |
|  \\    /   O peration     | Version:  1.6-ext                               |
|   \\  /    A nd           | Web:      www.extend-project.de                 |
|    \\/     M anipulation  |                                                 |
\*---------------------------------------------------------------------------*/
FoamFile
{
    version     2.0;
    format      ascii;
    class       tetPointVectorField;
    location    "0.05";
    object      motionU;
}
// * * * * * * * * * * * * * * * * * * * * * * * * * * * * * * * * * * * * * //

dimensions      [0 1 -1 0 0 0 0];

internalField   nonuniform List<vector> 
147960
(
(0 0 0)
(-0.000568182 -0.000226596 0)
(-0.00459194 -0.00124439 1.89638e-23)
(-0.00480082 0.000468833 -3.29805e-22)
(-0.0253057 9.58004e-05 -1.06671e-23)
(-0.0250531 0.000163673 -6.44386e-24)
(-0.0247277 0.000145342 5.52802e-24)
(-0.0243886 0.000133946 -5.75035e-24)
(-0.0240427 0.000125284 -2.43937e-24)
(-0.0236922 0.000117875 1.09582e-23)
(-0.0233393 0.000111372 -4.4447e-24)
(-0.022985 0.000105451 -9.38292e-24)
(-0.0226305 9.98404e-05 1.50773e-23)
(-0.0222767 9.42959e-05 -1.46699e-23)
(-0.0219241 8.86219e-05 -1.31958e-23)
(-0.0215735 8.26759e-05 5.29357e-23)
(-0.0212252 7.63682e-05 -1.0375e-23)
(-0.0208795 6.96568e-05 -1.00719e-23)
(-0.0205369 6.25385e-05 1.76185e-23)
(-0.0201973 5.50389e-05 -4.58863e-23)
(-0.0198609 4.72012e-05 -2.60161e-23)
(-0.0195278 3.90757e-05 2.70864e-23)
(-0.019198 3.071e-05 8.71946e-24)
(-0.0188713 2.21417e-05 -1.12707e-23)
(-0.0185477 1.33931e-05 5.06003e-23)
(-0.0182269 4.47011e-06 -5.69808e-23)
(-0.017909 -4.6374e-06 -3.49585e-23)
(-0.0175935 -1.39508e-05 1.57133e-22)
(-0.0172804 -2.34961e-05 3.36239e-23)
(-0.0169695 -3.3296e-05 -1.31875e-22)
(-0.0166604 -4.33598e-05 -6.59622e-23)
(-0.016353 -5.36751e-05 -1.98243e-22)
(-0.0160469 -6.41994e-05 2.59171e-23)
(-0.0157419 -7.48541e-05 2.66332e-22)
(-0.0154377 -8.55209e-05 7.16023e-23)
(-0.015134 -9.60421e-05 3.20522e-23)
(-0.0148304 -0.000106223 -2.87101e-23)
(-0.0145266 -0.000115837 -1.41107e-22)
(-0.0142222 -0.000124636 8.03407e-24)
(-0.0139166 -0.000132357 6.43651e-23)
(-0.0136096 -0.000138736 -6.35549e-23)
(-0.0133005 -0.000143515 -1.36065e-22)
(-0.012989 -0.000146453 4.55154e-24)
(-0.0126745 -0.00014733 1.9729e-22)
(-0.0123566 -0.000145952 1.63515e-22)
(-0.0120347 -0.000142153 -4.41975e-23)
(-0.0117084 -0.000135792 -1.15349e-22)
(-0.0113774 -0.000126749 -6.13888e-24)
(-0.0110412 -0.00011492 1.54751e-22)
(-0.0106994 -0.000100216 -2.93896e-23)
(-0.0103517 -8.25554e-05 -2.09887e-22)
(-0.00999786 -6.1863e-05 -9.985e-24)
(-0.00963764 -3.80729e-05 6.69342e-23)
(-0.00927083 -1.1131e-05 2.43825e-24)
(-0.00889726 1.89978e-05 -6.99464e-23)
(-0.00851683 5.23205e-05 1.3602e-22)
(-0.00812944 8.88056e-05 -1.87817e-22)
(-0.00773507 0.000128372 -1.04986e-22)
(-0.00733372 0.000170879 -3.93022e-22)
(-0.00692545 0.000216118 -8.16536e-23)
(-0.00651039 0.000263803 7.52653e-22)
(-0.00608869 0.000313576 8.77167e-23)
(-0.00566059 0.000364986 -2.02341e-22)
(-0.00522638 0.000417534 1.29345e-22)
(-0.0254299 -0.000572989 -3.57703e-25)
(-0.0254127 -0.000181238 1.28429e-24)
(-0.0253389 -0.00124677 5.29992e-24)
(-0.0254317 -0.000964873 2.50467e-24)
(-0.00501544 -0.00129957 8.88983e-23)
(-0.00545003 -0.00135715 -3.07319e-22)
(-0.00588086 -0.00141467 -1.87623e-22)
(-0.00630739 -0.00147149 4.87952e-22)
(-0.00672914 -0.00152705 2.23551e-22)
(-0.00714567 -0.00158084 9.02636e-23)
(-0.0075566 -0.00163243 -2.11244e-22)
(-0.00796161 -0.00168146 -2.59429e-22)
(-0.00836047 -0.00172764 2.37674e-22)
(-0.00875299 -0.00177073 -3.26435e-23)
(-0.00913907 -0.00181054 6.5267e-23)
(-0.00951869 -0.00184694 1.08187e-22)
(-0.00989188 -0.00187982 -1.08279e-22)
(-0.0102588 -0.00190911 3.31137e-23)
(-0.0106194 -0.00193474 3.86623e-23)
(-0.0109742 -0.00195668 -2.83616e-23)
(-0.0113232 -0.00197491 -7.87849e-23)
(-0.0116668 -0.00198944 -1.51518e-22)
(-0.0120052 -0.00200027 1.65218e-23)
(-0.0123389 -0.00200748 4.56401e-23)
(-0.0126681 -0.00201115 8.66261e-23)
(-0.0129932 -0.0020114 3.43885e-23)
(-0.0133146 -0.0020084 -1.5612e-23)
(-0.0136327 -0.00200235 -2.63136e-23)
(-0.0139479 -0.00199349 -1.95918e-22)
(-0.0142606 -0.00198209 7.79634e-23)
(-0.0145712 -0.00196841 8.98779e-23)
(-0.0148802 -0.00195275 -6.41241e-23)
(-0.015188 -0.00193539 -2.46858e-23)
(-0.0154951 -0.00191659 1.20618e-22)
(-0.015802 -0.00189659 -1.05642e-24)
(-0.016109 -0.00187559 -1.0944e-22)
(-0.0164166 -0.00185379 4.22911e-24)
(-0.0167251 -0.0018313 -2.40738e-23)
(-0.017035 -0.00180824 6.74869e-24)
(-0.0173466 -0.00178467 -1.42117e-23)
(-0.0176601 -0.00176067 2.71002e-23)
(-0.0179759 -0.00173628 4.58388e-24)
(-0.0182941 -0.00171154 2.04094e-23)
(-0.0186148 -0.0016865 -4.32934e-23)
(-0.0189384 -0.00166123 1.73925e-23)
(-0.0192647 -0.00163583 1.83784e-23)
(-0.0195939 -0.00161039 1.92512e-23)
(-0.0199261 -0.00158505 3.60791e-24)
(-0.0202611 -0.00155996 -4.30423e-23)
(-0.020599 -0.00153528 1.1117e-23)
(-0.0209397 -0.0015112 -1.72203e-23)
(-0.021283 -0.00148789 1.86728e-23)
(-0.0216288 -0.00146552 8.12079e-24)
(-0.0219768 -0.00144425 -2.74769e-24)
(-0.0223267 -0.00142423 1.18493e-23)
(-0.0226779 -0.00140559 4.88716e-24)
(-0.02303 -0.00138845 -4.67246e-24)
(-0.0233821 -0.0013729 7.59016e-25)
(-0.0237332 -0.001359 -4.73241e-24)
(-0.0240823 -0.00134682 -3.23245e-24)
(-0.0244274 -0.00133646 8.95832e-25)
(-0.0247658 -0.0013291 2.32729e-24)
(-0.025091 -0.00132873 1.70784e-24)
(-0.0226681 -0.00102623 0)
(-0.0251704 -0.00126219 0)
(-0.0250577 -0.00124323 0)
(-0.0249353 -0.00123063 0)
(-0.0248042 -0.00122005 0)
(-0.0246638 -0.00120967 0)
(-0.0245155 -0.00119849 0)
(-0.0243573 -0.00118641 0)
(-0.0241918 -0.00117284 0)
(-0.0240129 -0.00115746 0)
(-0.0238249 -0.00114075 0)
(-0.0236261 -0.00112173 0)
(-0.0234074 -0.00110073 0)
(-0.0231804 -0.00107826 0)
(-0.0229382 -0.00105307 0)
(-0.00306936 -0.000833068 0)
(-0.00342188 -0.000892912 0)
(-0.00378359 -0.00095192 0)
(-0.00415243 -0.00100934 0)
(-0.0045293 -0.00106503 0)
(-0.00491292 -0.00111881 0)
(-0.00530004 -0.00117031 0)
(-0.0056897 -0.00121963 0)
(-0.0060811 -0.00126674 0)
(-0.00647335 -0.00131157 0)
(-0.00686536 -0.00135405 0)
(-0.00725598 -0.00139417 0)
(-0.00764441 -0.0014319 0)
(-0.00803027 -0.00146722 0)
(-0.00841346 -0.00150001 0)
(-0.00879378 -0.00153016 0)
(-0.00917088 -0.00155755 0)
(-0.00954439 -0.00158217 0)
(-0.00991403 -0.00160396 0)
(-0.0102797 -0.00162291 0)
(-0.0106424 -0.00163898 0)
(-0.0110023 -0.00165215 0)
(-0.011359 -0.00166252 0)
(-0.0117128 -0.0016701 0)
(-0.0120639 -0.00167498 0)
(-0.0124125 -0.00167725 0)
(-0.012759 -0.00167703 0)
(-0.0131033 -0.00167446 0)
(-0.0134457 -0.00166965 0)
(-0.0137864 -0.00166273 0)
(-0.0141256 -0.00165385 0)
(-0.0144637 -0.00164316 0)
(-0.0148006 -0.00163085 0)
(-0.0151364 -0.0016171 0)
(-0.0154714 -0.00160201 0)
(-0.0158054 -0.00158575 0)
(-0.0161392 -0.00156831 0)
(-0.0164731 -0.00154985 0)
(-0.0168062 -0.00153077 0)
(-0.0171381 -0.00151113 0)
(-0.0174685 -0.00149105 0)
(-0.017797 -0.00147063 0)
(-0.0181234 -0.00144995 0)
(-0.0184471 -0.00142909 0)
(-0.0187681 -0.00140806 0)
(-0.0190863 -0.00138688 0)
(-0.0194015 -0.00136552 0)
(-0.0197132 -0.00134401 0)
(-0.0200199 -0.00132242 0)
(-0.0203192 -0.00130074 0)
(-0.0206092 -0.00127882 0)
(-0.0208886 -0.00125651 0)
(-0.0211571 -0.00123367 0)
(-0.0214133 -0.00121029 0)
(-0.0216552 -0.00118634 0)
(-0.0218801 -0.00116177 0)
(-0.0220853 -0.00113648 0)
(-0.0222682 -0.00111032 0)
(-0.0224272 -0.00108322 0)
(-0.0225604 -0.00105511 0)
(-0.0224756 0.000131979 0)
(-0.0227732 0.000114744 0)
(-0.0230415 9.69085e-05 0)
(-0.0232866 8.41834e-05 0)
(-0.0235228 7.40296e-05 0)
(-0.0237405 6.38919e-05 0)
(-0.0239388 5.72066e-05 0)
(-0.0241285 5.31373e-05 0)
(-0.0243049 5.01154e-05 0)
(-0.0244675 5.0263e-05 0)
(-0.0246224 5.296e-05 0)
(-0.0247663 5.80355e-05 0)
(-0.0248996 6.6837e-05 0)
(-0.025023 8.01742e-05 0)
(-0.0251359 0.000102337 0)
(-0.00313421 0.000374605 0)
(-0.00474748 0.000474559 0)
(-0.00468116 0.000479497 0)
(-0.00460149 0.000482528 0)
(-0.00450747 0.000482378 0)
(-0.00440495 0.000478802 0)
(-0.00429523 0.000471091 0)
(-0.0041778 0.000460005 0)
(-0.00405706 0.000446754 0)
(-0.00393309 0.000430883 0)
(-0.00380667 0.0004155 0)
(-0.00367976 0.000401354 0)
(-0.00354572 0.000389645 0)
(-0.00341148 0.000382625 0)
(-0.00327914 0.000377413 0)
(-0.0223713 0.000135672 0)
(-0.0222404 0.000139039 0)
(-0.0220835 0.000141843 0)
(-0.0219024 0.000143865 0)
(-0.021699 0.000144935 0)
(-0.0214754 0.000144901 0)
(-0.0212347 0.000143692 0)
(-0.0209794 0.000141459 0)
(-0.0207119 0.000138507 0)
(-0.0204334 0.000135146 0)
(-0.0201444 0.000131513 0)
(-0.0198462 0.000127478 0)
(-0.0195408 0.000122925 0)
(-0.0192303 0.000117927 0)
(-0.0189163 0.000112695 0)
(-0.0185996 0.000107405 0)
(-0.0182803 0.000102109 0)
(-0.0179585 9.67716e-05 0)
(-0.0176343 9.13481e-05 0)
(-0.0173082 8.58084e-05 0)
(-0.0169807 8.01364e-05 0)
(-0.0166519 7.43503e-05 0)
(-0.0163223 6.85015e-05 0)
(-0.0159923 6.26305e-05 0)
(-0.0156628 5.69084e-05 0)
(-0.0153334 5.14451e-05 0)
(-0.0150035 4.63025e-05 0)
(-0.0146732 4.15742e-05 0)
(-0.0143423 3.73242e-05 0)
(-0.0140108 3.3679e-05 0)
(-0.0136785 3.0791e-05 0)
(-0.0133452 2.87894e-05 0)
(-0.0130107 2.77779e-05 0)
(-0.0126748 2.78448e-05 0)
(-0.0123371 2.90744e-05 0)
(-0.0119977 3.15559e-05 0)
(-0.0116561 3.53825e-05 0)
(-0.0113122 4.06428e-05 0)
(-0.0109657 4.74269e-05 0)
(-0.0106161 5.5815e-05 0)
(-0.0102639 6.59554e-05 0)
(-0.00990862 7.79298e-05 0)
(-0.00954925 9.17573e-05 0)
(-0.00918573 0.000107329 0)
(-0.00881827 0.000124485 0)
(-0.00844716 0.000143134 0)
(-0.00807268 0.000163207 0)
(-0.00769487 0.000184577 0)
(-0.00731368 0.000206945 0)
(-0.00692933 0.000229817 0)
(-0.00654254 0.00025263 0)
(-0.00615441 0.000274879 0)
(-0.00576604 0.000296119 0)
(-0.00537832 0.000315917 0)
(-0.00499197 0.000333745 0)
(-0.00460786 0.000348953 0)
(-0.00422932 0.000360888 0)
(-0.00385781 0.000369199 0)
(-0.00349246 0.000373707 0)
(-0.00364424 0.000376485 0)
(-0.00378579 0.000379003 0)
(-0.00393486 0.000383013 0)
(-0.00407989 0.000392293 0)
(-0.00421405 0.000401913 0)
(-0.00435164 0.000411423 0)
(-0.00448418 0.000422101 0)
(-0.00460872 0.00042926 0)
(-0.00473223 0.000434439 0)
(-0.00484461 0.000437289 0)
(-0.00494951 0.000436131 0)
(-0.00504379 0.000433174 0)
(-0.00512276 0.000427926 0)
(-0.00518603 0.000422188 0)
(-0.00401702 0.000370255 0)
(-0.00417051 0.000369362 0)
(-0.00433223 0.000371199 0)
(-0.00448375 0.000377267 0)
(-0.00462642 0.0003818 0)
(-0.00477289 0.0003869 0)
(-0.00490956 0.00039231 0)
(-0.00503964 0.000394023 0)
(-0.00516683 0.000394937 0)
(-0.00528084 0.000393316 0)
(-0.00538707 0.000388842 0)
(-0.0054805 0.000383425 0)
(-0.00555793 0.000376638 0)
(-0.00561926 0.000370187 0)
(-0.00439611 0.000359335 0)
(-0.0045619 0.000355083 0)
(-0.00473385 0.000354677 0)
(-0.00489046 0.000357173 0)
(-0.00504025 0.000357199 0)
(-0.00519349 0.000358338 0)
(-0.00533358 0.00035908 0)
(-0.00546784 0.000356381 0)
(-0.00559726 0.000353597 0)
(-0.00571202 0.000348525 0)
(-0.00581874 0.000341423 0)
(-0.00591131 0.000334138 0)
(-0.00598748 0.000326101 0)
(-0.00604789 0.000319014 0)
(-0.00478191 0.000344341 0)
(-0.00495793 0.000336852 0)
(-0.00513804 0.000334212 0)
(-0.00529857 0.000333286 0)
(-0.00545509 0.000329158 0)
(-0.00561379 0.000326896 0)
(-0.00575516 0.000323814 0)
(-0.00589192 0.000317294 0)
(-0.00602325 0.000311609 0)
(-0.00613772 0.000303843 0)
(-0.00624426 0.000294565 0)
(-0.00633611 0.000285851 0)
(-0.00641112 0.000276902 0)
(-0.0064705 0.000269357 0)
(-0.00517099 0.000326044 0)
(-0.00535605 0.000315483 0)
(-0.00554311 0.0003107 0)
(-0.00570664 0.000306717 0)
(-0.00586796 0.000298923 0)
(-0.00603108 0.000293583 0)
(-0.00617361 0.00028748 0)
(-0.00631139 0.000277857 0)
(-0.00644372 0.000269618 0)
(-0.00655799 0.000259901 0)
(-0.00666367 0.000248975 0)
(-0.00675453 0.000239094 0)
(-0.00682843 0.000229499 0)
(-0.00688666 0.000221688 0)
(-0.00556154 0.000305308 0)
(-0.00575438 0.000291784 0)
(-0.00594785 0.000284981 0)
(-0.00611357 0.000278405 0)
(-0.00627805 0.00026737 0)
(-0.00644478 0.000259318 0)
(-0.00658812 0.000250768 0)
(-0.00672602 0.000238735 0)
(-0.00685846 0.000228464 0)
(-0.00697206 0.000217151 0)
(-0.00707685 0.000205078 0)
(-0.00716645 0.000194365 0)
(-0.00723903 0.000184313 0)
(-0.00729602 0.000176378 0)
(-0.00595253 0.000282912 0)
(-0.00615172 0.000266551 0)
(-0.00635108 0.00025776 0)
(-0.0065186 0.000249089 0)
(-0.00668463 0.00023534 0)
(-0.00685398 0.000224817 0)
(-0.00699822 0.000214349 0)
(-0.00713556 0.0002005 0)
(-0.00726725 0.00018865 0)
(-0.00737942 0.000176183 0)
(-0.00748339 0.000163214 0)
(-0.00757183 0.000151976 0)
(-0.00764286 0.000141686 0)
(-0.00769849 0.000133739 0)
(-0.0063434 0.000259493 0)
(-0.00654719 0.000240499 0)
(-0.00675157 0.000229721 0)
(-0.0069205 0.000219358 0)
(-0.00708748 0.000203498 0)
(-0.0072582 0.000190842 0)
(-0.00740304 0.000178714 0)
(-0.00753994 0.000163595 0)
(-0.00767044 0.000150599 0)
(-0.00778182 0.000137183 0)
(-0.00788421 0.000123631 0)
(-0.00797054 0.000112156 0)
(-0.00803987 0.000101828 0)
(-0.00809401 9.39872e-05 0)
(-0.00673367 0.000235525 0)
(-0.00694035 0.000214276 0)
(-0.00714863 0.000201506 0)
(-0.00732011 0.000189589 0)
(-0.00748756 0.000172203 0)
(-0.00765758 0.000157994 0)
(-0.00780208 0.000144456 0)
(-0.00793847 0.000128323 0)
(-0.0080678 0.000114601 0)
(-0.0081775 0.000100615 0)
(-0.00827795 8.67273e-05 0)
(-0.00836234 7.51489e-05 0)
(-0.00842994 6.49096e-05 0)
(-0.00848256 5.72719e-05 0)
(-0.0071227 0.000211364 0)
(-0.00733106 0.000188368 0)
(-0.00754173 0.000173772 0)
(-0.00771507 0.000160407 0)
(-0.00788284 0.000141904 0)
(-0.00805203 0.000126606 0)
(-0.00819545 0.000112027 0)
(-0.00833077 9.51008e-05 0)
(-0.00845875 8.08735e-05 0)
(-0.00856663 6.66178e-05 0)
(-0.00866497 5.26326e-05 0)
(-0.00874731 4.11087e-05 0)
(-0.00881309 3.10585e-05 0)
(-0.00886416 2.3687e-05 0)
(-0.00750963 0.000187352 0)
(-0.00771914 0.000163118 0)
(-0.00793064 0.000147051 0)
(-0.00810493 0.000132362 0)
(-0.00827311 0.000112912 0)
(-0.00844142 9.68789e-05 0)
(-0.00858332 8.16565e-05 0)
(-0.008717 6.4238e-05 0)
(-0.00884316 4.96846e-05 0)
(-0.0089491 3.53253e-05 0)
(-0.00904529 2.14273e-05 0)
(-0.00912552 1.01018e-05 0)
(-0.00918941 3.34094e-07 0)
(-0.00923889 -6.72424e-06 0)
(-0.00789351 0.000163889 0)
(-0.00810409 0.000138777 0)
(-0.00831502 0.000121698 0)
(-0.00848965 0.00010589 0)
(-0.00865799 8.56233e-05 0)
(-0.00882528 6.90517e-05 0)
(-0.00896559 5.34773e-05 0)
(-0.00909732 3.58496e-05 0)
(-0.00922125 2.11861e-05 0)
(-0.00932502 6.87379e-06 0)
(-0.00941896 -6.81329e-06 0)
(-0.00949703 -1.78367e-05 0)
(-0.00955901 -2.72503e-05 0)
(-0.00960685 -3.3959e-05 0)
(-0.00827362 0.000141434 0)
(-0.00848536 0.000115567 0)
(-0.00869642 9.77391e-05 0)
(-0.00887067 8.11606e-05 0)
(-0.00903759 6.03631e-05 0)
(-0.00920332 4.34088e-05 0)
(-0.00934198 2.76383e-05 0)
(-0.00947165 9.99539e-06 0)
(-0.00959315 -4.58245e-06 0)
(-0.0096946 -1.86867e-05 0)
(-0.00978618 -3.20521e-05 0)
(-0.00986202 -4.26988e-05 0)
(-0.00992202 -5.17098e-05 0)
(-0.00996821 -5.80452e-05 0)
(-0.00864971 0.00012038 0)
(-0.00886224 9.38041e-05 0)
(-0.00907303 7.54062e-05 0)
(-0.00924658 5.83675e-05 0)
(-0.00941204 3.72779e-05 0)
(-0.00957571 2.01375e-05 0)
(-0.00971247 4.30904e-06 0)
(-0.00983993 -1.32221e-05 0)
(-0.00995887 -2.75761e-05 0)
(-0.010058 -4.13499e-05 0)
(-0.0101471 -5.43001e-05 0)
(-0.0102207 -6.45081e-05 0)
(-0.0102787 -7.30812e-05 0)
(-0.0103232 -7.9031e-05 0)
(-0.00902181 0.00010097 0)
(-0.00923401 7.38467e-05 0)
(-0.00944458 5.49361e-05 0)
(-0.00961757 3.75845e-05 0)
(-0.00978146 1.64105e-05 0)
(-0.00994276 -7.10331e-07 0)
(-0.0100774 -1.64354e-05 0)
(-0.0102024 -3.37293e-05 0)
(-0.0103186 -4.77565e-05 0)
(-0.0104153 -6.1117e-05 0)
(-0.0105019 -7.35878e-05 0)
(-0.0105732 -8.33104e-05 0)
(-0.0106291 -9.14201e-05 0)
(-0.010672 -9.69792e-05 0)
(-0.00939017 8.32752e-05 0)
(-0.00960239 5.57631e-05 0)
(-0.00981206 3.64839e-05 0)
(-0.00998357 1.89745e-05 0)
(-0.0101458 -2.15941e-06 0)
(-0.0103046 -1.91272e-05 0)
(-0.0104369 -3.46121e-05 0)
(-0.0105593 -5.15429e-05 0)
(-0.0106725 -6.51426e-05 0)
(-0.0107668 -7.80235e-05 0)
(-0.010851 -8.99673e-05 0)
(-0.0109198 -9.91702e-05 0)
(-0.0109737 -0.000106798 0)
(-0.0110149 -0.000111963 0)
(-0.00975455 6.73199e-05 0)
(-0.00996628 3.9598e-05 0)
(-0.0101743 2.01799e-05 0)
(-0.0103446 2.63259e-06 0)
(-0.0105051 -1.83684e-05 0)
(-0.0106612 -3.50998e-05 0)
(-0.0107912 -5.02451e-05 0)
(-0.0109108 -6.67105e-05 0)
(-0.0110207 -7.97782e-05 0)
(-0.0111127 -9.21499e-05 0)
(-0.0111945 -0.000103516 0)
(-0.0112609 -0.000112166 0)
(-0.0113127 -0.000119296 0)
(-0.0113522 -0.000124065 0)
(-0.0101143 5.3238e-05 0)
(-0.0103258 2.53647e-05 0)
(-0.010532 5.98167e-06 0)
(-0.010701 -1.14622e-05 0)
(-0.0108596 -3.22315e-05 0)
(-0.0110129 -4.86372e-05 0)
(-0.0111405 -6.33584e-05 0)
(-0.0112576 -7.92922e-05 0)
(-0.0113651 -9.18044e-05 0)
(-0.0114544 -0.000103597 0)
(-0.0115329 -0.000114319 0)
(-0.0115968 -0.000122388 0)
(-0.0116466 -0.000129006 0)
(-0.0116843 -0.000133377 0)
(-0.0104711 4.107e-05 0)
(-0.0106821 1.31302e-05 0)
(-0.0108854 -6.10603e-06 0)
(-0.011053 -2.33572e-05 0)
(-0.0112096 -4.38014e-05 0)
(-0.0113599 -5.97853e-05 0)
(-0.0114852 -7.40061e-05 0)
(-0.0115998 -8.93568e-05 0)
(-0.0117043 -0.000101259 0)
(-0.0117909 -0.000112402 0)
(-0.0118665 -0.000122468 0)
(-0.0119278 -0.000129935 0)
(-0.0119755 -0.000136033 0)
(-0.0120116 -0.000140002 0)
(-0.0108241 3.07669e-05 0)
(-0.011034 2.94563e-06 0)
(-0.0112346 -1.60943e-05 0)
(-0.0114006 -3.30893e-05 0)
(-0.0115551 -5.31279e-05 0)
(-0.0117024 -6.86117e-05 0)
(-0.0118255 -8.22746e-05 0)
(-0.0119374 -9.69969e-05 0)
(-0.0120389 -0.000108244 0)
(-0.0121228 -0.000118697 0)
(-0.0121956 -0.000128084 0)
(-0.0122544 -0.000134931 0)
(-0.0123001 -0.000140498 0)
(-0.0123345 -0.000144063 0)
(-0.0111744 2.23107e-05 0)
(-0.0113821 -5.27548e-06 0)
(-0.0115798 -2.40462e-05 0)
(-0.0117442 -4.07124e-05 0)
(-0.0118966 -6.02783e-05 0)
(-0.0120409 -7.52112e-05 0)
(-0.0121617 -8.82755e-05 0)
(-0.0122709 -0.000102329 0)
(-0.0123692 -0.000112881 0)
(-0.0124504 -0.000122617 0)
(-0.0125205 -0.000131303 0)
(-0.012577 -0.000137517 0)
(-0.0126206 -0.000142545 0)
(-0.0126534 -0.000145701 0)
(-0.0115211 1.56495e-05 0)
(-0.0117268 -1.16417e-05 0)
(-0.0119214 -3.00642e-05 0)
(-0.0120842 -4.63261e-05 0)
(-0.0122345 -6.53665e-05 0)
(-0.0123756 -7.97108e-05 0)
(-0.012494 -9.21391e-05 0)
(-0.0126005 -0.000105488 0)
(-0.0126958 -0.000115317 0)
(-0.0127744 -0.000124314 0)
(-0.0128418 -0.000132288 0)
(-0.0128959 -0.000137861 0)
(-0.0129377 -0.000142341 0)
(-0.0129688 -0.000145083 0)
(-0.0118649 1.06256e-05 0)
(-0.0120684 -1.62824e-05 0)
(-0.0122598 -3.42765e-05 0)
(-0.0124211 -5.00689e-05 0)
(-0.0125691 -6.85377e-05 0)
(-0.012707 -8.22541e-05 0)
(-0.012823 -9.40094e-05 0)
(-0.0129267 -0.000106626 0)
(-0.0130189 -0.000115715 0)
(-0.0130951 -0.000123962 0)
(-0.01316 -0.000131217 0)
(-0.0132118 -0.000136146 0)
(-0.0132517 -0.000140077 0)
(-0.0132813 -0.000142403 0)
(-0.0122062 7.12649e-06 0)
(-0.0124074 -1.93203e-05 0)
(-0.0125955 -3.68207e-05 0)
(-0.0127551 -5.20882e-05 0)
(-0.0129009 -6.99406e-05 0)
(-0.0130355 -8.29915e-05 0)
(-0.0131491 -9.40426e-05 0)
(-0.0132497 -0.000105901 0)
(-0.0133392 -0.000114261 0)
(-0.0134132 -0.000121747 0)
(-0.0134754 -0.000128285 0)
(-0.013525 -0.000132577 0)
(-0.0135631 -0.000135965 0)
(-0.0135912 -0.000137878 0)
(-0.0125453 5.04421e-06 0)
(-0.0127442 -2.08812e-05 0)
(-0.0129288 -3.78343e-05 0)
(-0.0130867 -5.25286e-05 0)
(-0.0132302 -6.97287e-05 0)
(-0.0133615 -8.20901e-05 0)
(-0.0134729 -9.24209e-05 0)
(-0.0135713 -0.000103511 0)
(-0.0136578 -0.000111141 0)
(-0.013729 -0.00011788 0)
(-0.0137887 -0.000123711 0)
(-0.0138361 -0.000127376 0)
(-0.0138724 -0.000130234 0)
(-0.0138991 -0.000131745 0)
(-0.0128825 4.2658e-06 0)
(-0.0130788 -2.10939e-05 0)
(-0.01326 -3.74557e-05 0)
(-0.0134162 -5.15385e-05 0)
(-0.0135574 -6.80643e-05 0)
(-0.0136854 -7.9724e-05 0)
(-0.0137946 -8.93343e-05 0)
(-0.0138907 -9.96792e-05 0)
(-0.0139742 -0.000106564 0)
(-0.014043 -0.000112577 0)
(-0.0141002 -0.000117722 0)
(-0.0141455 -0.000120778 0)
(-0.0141801 -0.000123126 0)
(-0.0142054 -0.000124255 0)
(-0.013218 4.68379e-06 0)
(-0.0134117 -2.00838e-05 0)
(-0.0135894 -3.58245e-05 0)
(-0.0137439 -4.92693e-05 0)
(-0.0138827 -6.5107e-05 0)
(-0.0140075 -7.60595e-05 0)
(-0.0141146 -8.49582e-05 0)
(-0.0142082 -9.45803e-05 0)
(-0.014289 -0.00010074 0)
(-0.0143556 -0.000106057 0)
(-0.0144104 -0.000110552 0)
(-0.0144537 -0.000113029 0)
(-0.0144867 -0.000114894 0)
(-0.0145107 -0.000115669 0)
(-0.0135519 6.20078e-06 0)
(-0.0137431 -1.79672e-05 0)
(-0.0139173 -3.30728e-05 0)
(-0.0140701 -4.58671e-05 0)
(-0.0142067 -6.10177e-05 0)
(-0.0143283 -7.12714e-05 0)
(-0.0144328 -7.94782e-05 0)
(-0.0145243 -8.84322e-05 0)
(-0.0146027 -9.38809e-05 0)
(-0.0146672 -9.85385e-05 0)
(-0.0147197 -0.000102429 0)
(-0.014761 -0.000104368 0)
(-0.0147925 -0.00010579 0)
(-0.0148152 -0.000106243 0)
(-0.0138846 8.72275e-06 0)
(-0.0140732 -1.48523e-05 0)
(-0.014244 -2.93251e-05 0)
(-0.0143952 -4.14764e-05 0)
(-0.0145296 -5.59624e-05 0)
(-0.0146482 -6.55384e-05 0)
(-0.0147511 -7.30654e-05 0)
(-0.0148405 -8.13888e-05 0)
(-0.0149158 -8.61868e-05 0)
(-0.0149781 -9.02325e-05 0)
(-0.0150285 -9.35693e-05 0)
(-0.015068 -9.50238e-05 0)
(-0.0150979 -9.60524e-05 0)
(-0.0151194 -9.62228e-05 0)
(-0.0142163 1.21415e-05 0)
(-0.0144023 -1.08574e-05 0)
(-0.0145698 -2.47113e-05 0)
(-0.0147195 -3.62418e-05 0)
(-0.0148517 -5.00981e-05 0)
(-0.0149674 -5.90288e-05 0)
(-0.0150687 -6.59305e-05 0)
(-0.0151558 -7.36432e-05 0)
(-0.0152286 -7.78465e-05 0)
(-0.0152889 -8.13374e-05 0)
(-0.0153372 -8.4177e-05 0)
(-0.0153749 -8.52061e-05 0)
(-0.0154034 -8.58974e-05 0)
(-0.0154238 -8.58304e-05 0)
(-0.0145473 1.63151e-05 0)
(-0.0147308 -6.12687e-06 0)
(-0.0148951 -1.93734e-05 0)
(-0.0150433 -3.0306e-05 0)
(-0.0151735 -4.35716e-05 0)
(-0.015286 -5.18957e-05 0)
(-0.0153858 -5.82301e-05 0)
(-0.0154711 -6.53663e-05 0)
(-0.0155414 -6.9033e-05 0)
(-0.0155998 -7.20313e-05 0)
(-0.0156461 -7.44365e-05 0)
(-0.0156821 -7.51023e-05 0)
(-0.0157093 -7.55149e-05 0)
(-0.0157286 -7.52592e-05 0)
(-0.0148777 2.10795e-05 0)
(-0.0150589 -8.18757e-07 0)
(-0.0152202 -1.34589e-05 0)
(-0.0153669 -2.38117e-05 0)
(-0.0154952 -3.65268e-05 0)
(-0.0156056 -4.42685e-05 0)
(-0.0157039 -5.0079e-05 0)
(-0.0157867 -5.67114e-05 0)
(-0.0158546 -5.98976e-05 0)
(-0.0159112 -6.24675e-05 0)
(-0.0159556 -6.45069e-05 0)
(-0.01599 -6.48716e-05 0)
(-0.0160159 -6.50633e-05 0)
(-0.0160341 -6.46681e-05 0)
(-0.0152077 2.63051e-05 0)
(-0.0153867 4.93573e-06 0)
(-0.015545 -7.10032e-06 0)
(-0.0156905 -1.68926e-05 0)
(-0.0158168 -2.91022e-05 0)
(-0.0159252 -3.63319e-05 0)
(-0.0160221 -4.1626e-05 0)
(-0.0161029 -4.78104e-05 0)
(-0.0161686 -5.05707e-05 0)
(-0.0162234 -5.27783e-05 0)
(-0.016266 -5.45193e-05 0)
(-0.0162988 -5.46412e-05 0)
(-0.0163235 -5.46673e-05 0)
(-0.0163408 -5.41779e-05 0)
(-0.0155373 3.19193e-05 0)
(-0.0157143 1.10434e-05 0)
(-0.01587 -4.0707e-07 0)
(-0.0160141 -9.65881e-06 0)
(-0.0161397 -2.14136e-05 0)
(-0.0162463 -2.81473e-05 0)
(-0.0163412 -3.29816e-05 0)
(-0.01642 -3.87722e-05 0)
(-0.0164835 -4.11628e-05 0)
(-0.0165367 -4.307e-05 0)
(-0.0165776 -4.45708e-05 0)
(-0.016609 -4.45041e-05 0)
(-0.0166325 -4.44155e-05 0)
(-0.0166488 -4.38717e-05 0)
(-0.0158666 3.78391e-05 0)
(-0.0160418 1.74067e-05 0)
(-0.016195 6.51899e-06 0)
(-0.0163393 -2.22076e-06 0)
(-0.0164641 -1.35545e-05 0)
(-0.0165681 -1.98204e-05 0)
(-0.0166612 -2.42362e-05 0)
(-0.0167381 -2.96851e-05 0)
(-0.0167996 -3.17582e-05 0)
(-0.0168513 -3.34156e-05 0)
(-0.0168906 -3.47272e-05 0)
(-0.0169206 -3.45222e-05 0)
(-0.016943 -3.43637e-05 0)
(-0.0169584 -3.37975e-05 0)
(-0.0161955 4.39378e-05 0)
(-0.0163695 2.39047e-05 0)
(-0.0165218 1.35817e-05 0)
(-0.016666 5.32591e-06 0)
(-0.016789 -5.60077e-06 0)
(-0.0168906 -1.14321e-05 0)
(-0.0169823 -1.54681e-05 0)
(-0.0170575 -2.06205e-05 0)
(-0.0171172 -2.24162e-05 0)
(-0.0171675 -2.38654e-05 0)
(-0.0172053 -2.50334e-05 0)
(-0.017234 -2.47329e-05 0)
(-0.0172554 -2.45387e-05 0)
(-0.0172699 -2.39737e-05 0)
(-0.0165266 5.01861e-05 0)
(-0.0166996 3.05328e-05 0)
(-0.01685 2.07084e-05 0)
(-0.016993 1.29152e-05 0)
(-0.0171145 2.36258e-06 0)
(-0.0172141 -3.05888e-06 0)
(-0.0173046 -6.74286e-06 0)
(-0.0173783 -1.16302e-05 0)
(-0.0174364 -1.31801e-05 0)
(-0.0174855 -1.44574e-05 0)
(-0.0175219 -1.55182e-05 0)
(-0.0175495 -1.51525e-05 0)
(-0.0175699 -1.49452e-05 0)
(-0.0175835 -1.43964e-05 0)
(-0.0168569 5.64296e-05 0)
(-0.0170291 3.71535e-05 0)
(-0.0171779 2.78315e-05 0)
(-0.0173202 2.04814e-05 0)
(-0.0174407 1.02855e-05 0)
(-0.0175387 5.25516e-06 0)
(-0.0176282 1.89904e-06 0)
(-0.0177008 -2.75117e-06 0)
(-0.0177575 -4.08455e-06 0)
(-0.0178054 -5.21814e-06 0)
(-0.0178407 -6.19467e-06 0)
(-0.0178671 -5.78122e-06 0)
(-0.0178866 -5.57397e-06 0)
(-0.0178994 -5.0492e-06 0)
(-0.0171864 6.26205e-05 0)
(-0.017358 4.37282e-05 0)
(-0.0175057 3.49085e-05 0)
(-0.0176478 2.79962e-05 0)
(-0.0177676 1.81425e-05 0)
(-0.0178645 1.34792e-05 0)
(-0.0179533 1.04242e-05 0)
(-0.018025 5.98609e-06 0)
(-0.0180806 4.847e-06 0)
(-0.0181276 3.83956e-06 0)
(-0.0181618 2.93485e-06 0)
(-0.0181873 3.38672e-06 0)
(-0.0182059 3.58867e-06 0)
(-0.0182179 4.08897e-06 0)
(-0.017515 6.87076e-05 0)
(-0.0176863 5.0213e-05 0)
(-0.0178334 4.19012e-05 0)
(-0.0179758 3.54237e-05 0)
(-0.0180953 2.58989e-05 0)
(-0.0181915 2.15818e-05 0)
(-0.01828 1.88068e-05 0)
(-0.0183511 1.45637e-05 0)
(-0.0184058 1.36022e-05 0)
(-0.0184521 1.2708e-05 0)
(-0.0184854 1.18672e-05 0)
(-0.01851 1.23539e-05 0)
(-0.0185278 1.2553e-05 0)
(-0.0185391 1.30354e-05 0)
(-0.0178423 7.46785e-05 0)
(-0.018014 5.6597e-05 0)
(-0.018161 4.87963e-05 0)
(-0.0183041 4.27476e-05 0)
(-0.0184239 3.35416e-05 0)
(-0.0185198 2.95508e-05 0)
(-0.0186084 2.70334e-05 0)
(-0.0186792 2.29654e-05 0)
(-0.0187334 2.21625e-05 0)
(-0.0187791 2.137e-05 0)
(-0.0188116 2.059e-05 0)
(-0.0188355 2.11153e-05 0)
(-0.0188526 2.13213e-05 0)
(-0.0188632 2.17975e-05 0)
(-0.0181682 8.05618e-05 0)
(-0.0183408 6.29138e-05 0)
(-0.0184885 5.56177e-05 0)
(-0.0186327 4.99784e-05 0)
(-0.0187533 4.10651e-05 0)
(-0.0188495 3.73632e-05 0)
(-0.0189385 3.50687e-05 0)
(-0.0190093 3.11525e-05 0)
(-0.0190632 3.04932e-05 0)
(-0.0191087 2.97989e-05 0)
(-0.0191406 2.90857e-05 0)
(-0.0191639 2.96596e-05 0)
(-0.0191803 2.98862e-05 0)
(-0.0191903 3.03695e-05 0)
(-0.0184924 8.63923e-05 0)
(-0.0186666 6.91872e-05 0)
(-0.0188157 6.2363e-05 0)
(-0.0189618 5.70815e-05 0)
(-0.0190837 4.84087e-05 0)
(-0.0191806 4.49484e-05 0)
(-0.0192702 4.28483e-05 0)
(-0.0193413 3.9078e-05 0)
(-0.0193952 3.8564e-05 0)
(-0.0194407 3.79758e-05 0)
(-0.0194723 3.73393e-05 0)
(-0.0194952 3.79713e-05 0)
(-0.0195112 3.82295e-05 0)
(-0.0195206 3.87303e-05 0)
(-0.0188149 9.21855e-05 0)
(-0.0189916 7.53865e-05 0)
(-0.0191428 6.89546e-05 0)
(-0.0192911 6.39497e-05 0)
(-0.0194145 5.54697e-05 0)
(-0.0195124 5.22332e-05 0)
(-0.0196031 5.03359e-05 0)
(-0.019675 4.67288e-05 0)
(-0.0197294 4.63691e-05 0)
(-0.0197752 4.58909e-05 0)
(-0.0198069 4.53342e-05 0)
(-0.0198295 4.60269e-05 0)
(-0.0198451 4.63217e-05 0)
(-0.0198541 4.68457e-05 0)
(-0.0191355 9.79061e-05 0)
(-0.0193154 8.14108e-05 0)
(-0.0194691 7.5261e-05 0)
(-0.0196199 7.04761e-05 0)
(-0.0197451 6.21996e-05 0)
(-0.0198446 5.92213e-05 0)
(-0.019937 5.75484e-05 0)
(-0.0200103 5.41088e-05 0)
(-0.0200656 5.38926e-05 0)
(-0.0201122 5.35173e-05 0)
(-0.0201442 5.30388e-05 0)
(-0.0201669 5.37923e-05 0)
(-0.0201823 5.41248e-05 0)
(-0.0201909 5.46725e-05 0)
(-0.0194539 0.000103429 0)
(-0.0196372 8.71111e-05 0)
(-0.0197936 8.11886e-05 0)
(-0.019947 7.66581e-05 0)
(-0.0200748 6.86514e-05 0)
(-0.0201768 6.59422e-05 0)
(-0.0202717 6.44636e-05 0)
(-0.0203469 6.11611e-05 0)
(-0.0204037 6.10783e-05 0)
(-0.0204514 6.08131e-05 0)
(-0.0204841 6.04214e-05 0)
(-0.0205071 6.12362e-05 0)
(-0.0205224 6.16016e-05 0)
(-0.0205308 6.21662e-05 0)
(-0.0197689 0.000108571 0)
(-0.0199555 9.23974e-05 0)
(-0.0201149 8.67752e-05 0)
(-0.0202719 8.25806e-05 0)
(-0.0204034 7.4822e-05 0)
(-0.0205088 7.22963e-05 0)
(-0.0206066 7.09579e-05 0)
(-0.0206843 6.78091e-05 0)
(-0.0207431 6.79016e-05 0)
(-0.0207925 6.77735e-05 0)
(-0.0208263 6.74745e-05 0)
(-0.02085 6.83406e-05 0)
(-0.0208656 6.87239e-05 0)
(-0.0208738 6.92894e-05 0)
(-0.0200786 0.000113237 0)
(-0.0202688 9.7331e-05 0)
(-0.0204323 9.21125e-05 0)
(-0.0205942 8.81674e-05 0)
(-0.0207304 8.05043e-05 0)
(-0.0208395 7.81088e-05 0)
(-0.0209407 7.69827e-05 0)
(-0.0210215 7.40867e-05 0)
(-0.0210833 7.43917e-05 0)
(-0.0211351 7.43976e-05 0)
(-0.0211707 7.41788e-05 0)
(-0.0211954 7.50872e-05 0)
(-0.0212115 7.54745e-05 0)
(-0.0212196 7.60219e-05 0)
(-0.0203811 0.000117508 0)
(-0.0205762 0.000102005 0)
(-0.0207456 9.70468e-05 0)
(-0.0209132 9.3115e-05 0)
(-0.0210539 8.55163e-05 0)
(-0.0211671 8.3404e-05 0)
(-0.0212729 8.26288e-05 0)
(-0.0213582 7.99981e-05 0)
(-0.0214239 8.04759e-05 0)
(-0.0214788 8.06077e-05 0)
(-0.0215166 8.05076e-05 0)
(-0.0215429 8.14792e-05 0)
(-0.0215598 8.18637e-05 0)
(-0.0215682 8.23716e-05 0)
(-0.0206756 0.000121494 0)
(-0.0208774 0.000106226 0)
(-0.0210534 0.000101215 0)
(-0.0212264 9.72588e-05 0)
(-0.0213719 8.99487e-05 0)
(-0.0214908 8.82745e-05 0)
(-0.0216027 8.77933e-05 0)
(-0.0216935 8.5335e-05 0)
(-0.0217637 8.60029e-05 0)
(-0.0218223 8.6405e-05 0)
(-0.0218633 8.65154e-05 0)
(-0.021892 8.75655e-05 0)
(-0.0219102 8.79385e-05 0)
(-0.0219189 8.83852e-05 0)
(-0.0209613 0.000125024 0)
(-0.0211709 0.00010962 0)
(-0.021353 0.000104451 0)
(-0.0215312 0.000100704 0)
(-0.0216834 9.3858e-05 0)
(-0.0218098 9.25033e-05 0)
(-0.0219287 9.21497e-05 0)
(-0.0220253 8.99062e-05 0)
(-0.0221007 9.10594e-05 0)
(-0.0221647 9.18888e-05 0)
(-0.0222104 9.22128e-05 0)
(-0.0222421 9.3375e-05 0)
(-0.0222621 9.3772e-05 0)
(-0.0222715 9.41531e-05 0)
(-0.0212372 0.000127757 0)
(-0.0214539 0.00011197 0)
(-0.0216416 0.000106819 0)
(-0.0218265 0.000103503 0)
(-0.0219872 9.69948e-05 0)
(-0.0221219 9.56902e-05 0)
(-0.0222478 9.54501e-05 0)
(-0.0223508 9.38689e-05 0)
(-0.022434 9.56884e-05 0)
(-0.0225054 9.68351e-05 0)