/*--------------------------------*- C++ -*----------------------------------*\
| =========                 |                                                 |
| \\      /  F ield         | OpenFOAM Extend Project: Open source CFD        |
|  \\    /   O peration     | Version:  1.6-ext                               |
|   \\  /    A nd           | Web:      www.extend-project.de                 |
|    \\/     M anipulation  |                                                 |
\*---------------------------------------------------------------------------*/
FoamFile
{
    version     2.0;
    format      ascii;
    class       volScalarField;
    location    "0.05";
    object      p;
}
// * * * * * * * * * * * * * * * * * * * * * * * * * * * * * * * * * * * * * //

dimensions      [0 2 -2 0 0 0 0];

internalField   nonuniform List<scalar> 
20940
(
37.932
37.9278
37.9219
37.9147
37.9063
37.8965
37.8855
37.8731
37.8595
37.8447
37.8287
37.8119
37.7945
37.7771
37.7601
37.7443
37.7303
37.7188
37.7101
37.7044
37.7013
37.6998
37.8066
37.8079
37.8048
37.8012
37.7957
37.7887
37.7801
37.7701
37.7585
37.7456
37.7315
37.7163
37.7005
37.6844
37.6688
37.6541
37.6412
37.6307
37.6228
37.6178
37.6152
37.6141
37.6832
37.6901
37.69
37.6899
37.6874
37.6833
37.6773
37.6697
37.6603
37.6494
37.6371
37.6237
37.6094
37.5948
37.5804
37.5669
37.5551
37.5455
37.5385
37.5341
37.5322
37.5317
37.5619
37.5745
37.5774
37.581
37.5815
37.5803
37.5771
37.5718
37.5648
37.5559
37.5455
37.5338
37.5211
37.508
37.4949
37.4827
37.4719
37.4632
37.4569
37.4533
37.4519
37.4519
37.4431
37.4612
37.4673
37.4747
37.4783
37.4801
37.4796
37.4769
37.4721
37.4654
37.457
37.447
37.436
37.4243
37.4126
37.4015
37.3917
37.3839
37.3784
37.3753
37.3744
37.375
37.3269
37.3507
37.3599
37.3712
37.378
37.3829
37.3851
37.385
37.3826
37.3781
37.3717
37.3636
37.3541
37.3439
37.3335
37.3236
37.3148
37.3078
37.303
37.3004
37.3
37.3009
37.2134
37.2429
37.2554
37.2706
37.2807
37.2887
37.2938
37.2963
37.2964
37.2941
37.2897
37.2835
37.2757
37.267
37.2579
37.249
37.2412
37.235
37.2307
37.2286
37.2285
37.2298
37.1029
37.1382
37.154
37.1731
37.1865
37.1978
37.2058
37.2111
37.2136
37.2137
37.2113
37.2069
37.2009
37.1936
37.1858
37.178
37.1711
37.1655
37.1618
37.1601
37.1602
37.1617
36.9951
37.0361
37.0553
37.0786
37.0954
37.1099
37.121
37.1291
37.1342
37.1366
37.1364
37.134
37.1296
37.1239
37.1173
37.1106
37.1044
37.0995
37.0962
37.0948
37.0951
37.0968
36.8905
36.9373
36.9601
36.9875
37.0078
37.0257
37.0398
37.0507
37.0584
37.0632
37.0652
37.0647
37.0621
37.0578
37.0525
37.0468
37.0414
37.037
37.0341
37.0329
37.0333
37.035
36.7882
36.8406
36.8669
36.8985
36.9224
36.9438
36.9612
36.9751
36.9856
36.993
36.9973
36.9989
36.998
36.9953
36.9913
36.9866
36.982
36.9781
36.9754
36.9743
36.9748
36.9764
36.6896
36.7479
36.7783
36.814
36.8416
36.8665
36.8869
36.9038
36.917
36.9268
36.9333
36.9369
36.9379
36.9367
36.9339
36.9302
36.9262
36.9228
36.9203
36.9193
36.9196
36.921
36.5916
36.6543
36.6889
36.7287
36.7605
36.7892
36.8133
36.8336
36.8499
36.8626
36.8718
36.8777
36.8807
36.8812
36.8798
36.8771
36.8739
36.8709
36.8686
36.8675
36.8677
36.8688
36.5015
36.569
36.6089
36.6522
36.6877
36.7195
36.7466
36.7696
36.7886
36.8037
36.8151
36.8231
36.8279
36.8299
36.8298
36.828
36.8255
36.8228
36.8206
36.8194
36.8193
36.82
36.4037
36.471
36.5182
36.5655
36.6065
36.6431
36.6749
36.7022
36.7251
36.7438
36.7584
36.7692
36.7765
36.7806
36.7821
36.7816
36.7798
36.7776
36.7756
36.7744
36.774
36.7743
36.3452
36.4017
36.4555
36.5046
36.5481
36.5867
36.6205
36.6496
36.6742
36.6944
36.7106
36.7228
36.7314
36.7367
36.7393
36.7396
36.7385
36.7368
36.735
36.7337
36.7332
36.7331
36.3139
36.3696
36.425
36.4724
36.5149
36.5522
36.5848
36.6129
36.6366
36.6562
36.6717
36.6836
36.6919
36.6972
36.6999
36.7005
36.6998
36.6982
36.6966
36.6952
36.6943
36.6936
36.2728
36.3266
36.3827
36.4299
36.4732
36.511
36.5441
36.5727
36.5968
36.6168
36.6329
36.6452
36.654
36.6598
36.663
36.6641
36.6637
36.6625
36.661
36.6596
36.6584
36.6572
36.2358
36.2901
36.3465
36.3935
36.4368
36.4746
36.5078
36.5364
36.5608
36.581
36.5973
36.61
36.6192
36.6255
36.6291
36.6307
36.6307
36.6298
36.6284
36.627
36.6255
36.6239
36.1995
36.2544
36.3107
36.3579
36.4016
36.4397
36.4733
36.5023
36.527
36.5477
36.5645
36.5776
36.5873
36.5941
36.5982
36.6003
36.6007
36.6
36.5988
36.5973
36.5957
36.5936
36.1655
36.2212
36.2775
36.3251
36.3691
36.4075
36.4415
36.471
36.4962
36.5173
36.5346
36.5482
36.5585
36.5658
36.5704
36.5729
36.5737
36.5733
36.5721
36.5706
36.5688
36.5664
36.1335
36.1902
36.2466
36.2947
36.3391
36.378
36.4124
36.4424
36.4682
36.4898
36.5077
36.5219
36.5328
36.5406
36.5457
36.5486
36.5497
36.5495
36.5485
36.5469
36.5448
36.5422
36.104
36.1618
36.2182
36.267
36.3118
36.3512
36.3862
36.4168
36.4431
36.4654
36.4839
36.4987
36.5101
36.5185
36.5241
36.5274
36.5288
36.5288
36.5278
36.5261
36.5239
36.5209
36.077
36.136
36.1925
36.242
36.2873
36.3273
36.3629
36.3941
36.4211
36.444
36.4631
36.4786
36.4906
36.4995
36.5056
36.5093
36.511
36.5111
36.5101
36.5083
36.5058
36.5026
36.0531
36.113
36.1698
36.22
36.2657
36.3064
36.3426
36.3745
36.4021
36.4257
36.4454
36.4615
36.4741
36.4836
36.4902
36.4942
36.4962
36.4965
36.4954
36.4935
36.4908
36.4872
36.0319
36.0929
36.1499
36.2008
36.2471
36.2884
36.3253
36.3577
36.386
36.4103
36.4307
36.4475
36.4607
36.4708
36.4778
36.4823
36.4845
36.4849
36.4839
36.4819
36.4789
36.4748
36.0142
36.0761
36.1334
36.1849
36.2316
36.2735
36.311
36.3441
36.373
36.3979
36.419
36.4364
36.4503
36.4609
36.4684
36.4734
36.4759
36.4765
36.4756
36.4735
36.4702
36.4657
35.9989
36.0616
36.1192
36.1713
36.2186
36.2612
36.2993
36.333
36.3627
36.3884
36.4102
36.4283
36.4429
36.4542
36.4625
36.468
36.471
36.472
36.4713
36.4693
36.4659
36.461
35.9886
36.052
36.1095
36.162
36.2096
36.2525
36.2911
36.3253
36.3555
36.3817
36.4041
36.4229
36.4381
36.4501
36.459
36.465
36.4686
36.47
36.4696
36.4679
36.4648
36.4602
35.9775
36.0411
36.0991
36.1523
36.2008
36.2447
36.2843
36.3197
36.3512
36.3788
36.4027
36.4231
36.44
36.4535
36.4638
36.4712
36.4758
36.4779
36.4779
36.4764
36.4736
36.4702
40.5592
40.5111
40.4689
40.4323
40.4008
40.3738
40.3509
40.3317
40.3158
40.3029
40.2924
40.2843
40.278
40.2734
40.2703
40.2684
40.2678
40.2682
40.2697
40.2722
40.2764
40.2823
40.5495
40.5019
40.4598
40.4234
40.392
40.3652
40.3424
40.3232
40.3074
40.2944
40.284
40.2758
40.2695
40.2649
40.2617
40.2598
40.259
40.2594
40.2609
40.2634
40.2676
40.2735
40.5327
40.4857
40.4436
40.4073
40.3758
40.3489
40.326
40.3068
40.2908
40.2777
40.2672
40.2588
40.2523
40.2475
40.2442
40.2421
40.2412
40.2415
40.2429
40.2454
40.2495
40.2555
40.5061
40.4601
40.4181
40.3821
40.3507
40.3239
40.301
40.2818
40.2657
40.2524
40.2417
40.2331
40.2265
40.2214
40.2178
40.2155
40.2144
40.2146
40.2158
40.2183
40.2224
40.2284
40.4719
40.4272
40.3851
40.3493
40.3181
40.2912
40.2683
40.2489
40.2326
40.2192
40.2081
40.1993
40.1923
40.1869
40.183
40.1804
40.179
40.1789
40.1799
40.1823
40.1864
40.1925
40.4299
40.3866
40.3446
40.3091
40.2779
40.251
40.228
40.2084
40.1919
40.1781
40.1668
40.1575
40.1501
40.1443
40.14
40.1369
40.1352
40.1347
40.1356
40.1378
40.1418
40.1479
40.3813
40.3396
40.2975
40.2622
40.231
40.204
40.1808
40.161
40.1442
40.13
40.1182
40.1085
40.1005
40.0942
40.0893
40.0857
40.0835
40.0826
40.0831
40.0851
40.0891
40.0953
40.3268
40.2867
40.2443
40.2093
40.1779
40.1508
40.1273
40.1071
40.0899
40.0752
40.0629
40.0526
40.044
40.037
40.0314
40.0272
40.0243
40.0229
40.023
40.0247
40.0286
40.0348
40.2672
40.2288
40.1861
40.1512
40.1197
40.0923
40.0685
40.0478
40.03
40.0147
40.0017
39.9906
39.9813
39.9734
39.967
39.962
39.9584
39.9563
39.9559
39.9572
39.9609
39.967
40.2036
40.1666
40.1235
40.0885
40.0567
40.0289
40.0046
39.9833
39.9648
39.9488
39.935
39.9231
39.9128
39.9041
39.8967
39.8907
39.8862
39.8833
39.8822
39.883
39.8864
39.8924
40.1369
40.1014
40.0578
40.0229
39.9906
39.9624
39.9373
39.9153
39.896
39.879
39.8642
39.8512
39.8399
39.8299
39.8214
39.8142
39.8086
39.8047
39.8027
39.8029
39.8058
39.8115
40.0682
40.0332
39.9887
39.9532
39.9204
39.8915
39.8658
39.843
39.8228
39.8049
39.789
39.7749
39.7624
39.7512
39.7414
39.7329
39.726
39.7209
39.7179
39.7173
39.7196
39.725
39.9985
39.9645
39.9202
39.8844
39.8509
39.8211
39.7943
39.7703
39.7488
39.7296
39.7123
39.6967
39.6826
39.6699
39.6584
39.6483
39.6398
39.6332
39.6289
39.6272
39.6287
39.6334
39.928
39.8907
39.8457
39.8088
39.7748
39.7444
39.7169
39.6922
39.6698
39.6495
39.6311
39.6142
39.5988
39.5845
39.5715
39.5598
39.5497
39.5415
39.5357
39.5328
39.5334
39.5373
39.864
39.8254
39.7821
39.7436
39.7082
39.676
39.6467
39.62
39.5956
39.5734
39.5529
39.5339
39.5163
39.4998
39.4845
39.4704
39.4579
39.4475
39.4398
39.4353
39.4346
39.4376
39.7858
39.7349
39.6965
39.6588
39.6242
39.5922
39.5629
39.5359
39.511
39.4879
39.4664
39.4463
39.4273
39.4094
39.3925
39.3769
39.3629
39.351
39.342
39.3364
39.3348
39.3371
39.6745
39.6171
39.5841
39.5478
39.5159
39.4861
39.4586
39.433
39.4092
39.3867
39.3656
39.3454
39.3262
39.3078
39.2903
39.274
39.2594
39.2469
39.2374
39.2312
39.2289
39.2301
39.5642
39.5088
39.4799
39.4446
39.4143
39.3854
39.3585
39.3332
39.3094
39.2868
39.2651
39.2444
39.2244
39.2051
39.1867
39.1696
39.154
39.1408
39.1305
39.1237
39.1207
39.1208
39.4481
39.3948
39.3682
39.3343
39.3058
39.2781
39.2522
39.2276
39.2042
39.1817
39.1599
39.1388
39.1183
39.0985
39.0794
39.0616
39.0455
39.0317
39.021
39.0137
39.0102
39.0095
39.3294
39.2795
39.2549
39.2227
39.1957
39.169
39.1439
39.1198
39.0966
39.0741
39.0522
39.0307
39.0097
38.9893
38.9697
38.9514
38.9348
38.9206
38.9096
38.9021
38.8981
38.8968
39.2079
39.1616
39.1385
39.1081
39.0825
39.0569
39.0326
39.0091
38.9862
38.9639
38.9419
38.9202
38.8989
38.8781
38.8581
38.8393
38.8225
38.8081
38.7969
38.7892
38.785
38.7833
39.0843
39.0417
39.02
38.9916
38.9672
38.9428
38.9194
38.8964
38.8739
38.8518
38.8298
38.808
38.7865
38.7654
38.7452
38.7262
38.7092
38.6947
38.6835
38.6757
38.6714
38.6694
38.9587
38.9199
38.8996
38.8732
38.8502
38.8269
38.8044
38.7822
38.7602
38.7383
38.7164
38.6947
38.6731
38.6519
38.6315
38.6125
38.5954
38.581
38.5698
38.5621
38.5577
38.5555
38.8316
38.7968
38.7779
38.7534
38.7319
38.7099
38.6884
38.6669
38.6455
38.624
38.6024
38.5808
38.5592
38.5381
38.5177
38.4987
38.4817
38.4675
38.4564
38.4488
38.4444
38.4421
38.7034
38.6726
38.6551
38.6328
38.6127
38.5921
38.5717
38.5511
38.5304
38.5094
38.4882
38.4668
38.4455
38.4245
38.4043
38.3854
38.3686
38.3546
38.3437
38.3362
38.3319
38.3296
38.5744
38.5477
38.5318
38.5117
38.4932
38.474
38.4548
38.4353
38.4154
38.395
38.3744
38.3534
38.3324
38.3117
38.2917
38.2731
38.2566
38.2428
38.2321
38.2249
38.2206
38.2183
38.4451
38.4226
38.4084
38.3905
38.3737
38.3562
38.3383
38.3198
38.3009
38.2813
38.2613
38.2409
38.2203
38.2
38.1804
38.1622
38.146
38.1325
38.1221
38.1151
38.111
38.1087
38.3158
38.2976
38.2852
38.2698
38.2548
38.2389
38.2225
38.2053
38.1874
38.1688
38.1495
38.1298
38.1098
38.0899
38.0708
38.053
38.0372
38.0241
38.0141
38.0073
38.0033
38.0011
38.1868
38.173
38.1625
38.1496
38.1366
38.1226
38.1077
38.0919
38.0752
38.0576
38.0392
38.0203
38.001
37.9817
37.9632
37.9459
37.9306
37.9179
37.9083
37.9017
37.8979
37.8958
38.0587
38.0495
38.0411
38.0308
38.0199
38.0078
37.9946
37.9803
37.965
37.9486
37.9312
37.9131
37.8946
37.8761
37.8581
37.8414
37.8266
37.8144
37.8051
37.7989
37.7954
37.7935
38.055
38.0456
38.0371
38.0267
38.0157
38.0035
37.9903
37.9759
37.9605
37.944
37.9267
37.9086
37.89
37.8715
37.8535
37.8368
37.8221
37.8098
37.8005
37.7943
37.7908
37.789
38.1832
38.1693
38.1586
38.1456
38.1325
38.1183
38.1034
38.0875
38.0708
38.0531
38.0347
38.0157
37.9964
37.9772
37.9586
37.9414
37.9261
37.9134
37.9037
37.8972
37.8934
37.8913
38.3123
38.294
38.2814
38.2658
38.2507
38.2347
38.2182
38.201
38.183
38.1644
38.1451
38.1253
38.1052
38.0854
38.0663
38.0485
38.0327
38.0196
38.0096
38.0028
37.9988
37.9966
38.4417
38.419
38.4046
38.3866
38.3697
38.352
38.334
38.3155
38.2965
38.2769
38.2568
38.2364
38.2158
38.1954
38.1758
38.1576
38.1414
38.1279
38.1176
38.1106
38.1065
38.1042
38.5711
38.5442
38.528
38.5078
38.4891
38.4698
38.4505
38.4309
38.4109
38.3906
38.3698
38.3488
38.3278
38.3071
38.2871
38.2685
38.252
38.2382
38.2275
38.2203
38.2161
38.2138
38.7
38.669
38.6513
38.6288
38.6086
38.5878
38.5673
38.5467
38.5259
38.5048
38.4836
38.4622
38.4408
38.4198
38.3996
38.3807
38.364
38.3499
38.339
38.3316
38.3272
38.3249
38.8281
38.7931
38.7739
38.7494
38.7276
38.7055
38.6839
38.6624
38.6409
38.6193
38.5977
38.576
38.5545
38.5333
38.5129
38.4939
38.4769
38.4626
38.4516
38.444
38.4396
38.4373
38.955
38.9161
38.8955
38.8689
38.8458
38.8224
38.7998
38.7775
38.7554
38.7335
38.7116
38.6898
38.6682
38.647
38.6266
38.6075
38.5904
38.576
38.5648
38.5571
38.5527
38.5506
39.0803
39.0376
39.0157
38.9871
38.9627
38.9381
38.9146
38.8916
38.8691
38.8468
38.8248
38.803
38.7814
38.7603
38.74
38.7211
38.704
38.6896
38.6783
38.6706
38.6662
38.6643
39.2036
39.1571
39.1339
39.1034
39.0777
39.052
39.0277
39.0041
38.9812
38.9587
38.9367
38.915
38.8936
38.8728
38.8528
38.834
38.8171
38.8028
38.7916
38.7839
38.7797
38.778
39.3246
39.2747
39.25
39.2177
39.1906
39.1639
39.1387
39.1146
39.0913
39.0687
39.0468
39.0253
39.0043
38.9838
38.9642
38.9458
38.9292
38.9151
38.904
38.8965
38.8925
38.8913
39.4427
39.3895
39.3629
39.329
39.3005
39.2727
39.2468
39.2222
39.1987
39.1761
39.1543
39.1332
39.1127
39.0928
39.0737
39.0558
39.0397
39.0259
39.0151
39.0079
39.0043
39.0036
39.5583
39.503
39.4741
39.4388
39.4086
39.3797
39.3528
39.3275
39.3036
39.281
39.2593
39.2385
39.2185
39.1992
39.1808
39.1636
39.148
39.1348
39.1245
39.1177
39.1146
39.1147
39.6679
39.6107
39.5778
39.5416
39.5098
39.48
39.4526
39.427
39.4032
39.3808
39.3595
39.3394
39.3201
39.3017
39.2842
39.2678
39.2531
39.2407
39.2311
39.2249
39.2226
39.2237
39.7784
39.7279
39.6897
39.6521
39.6176
39.5858
39.5566
39.5296
39.5047
39.4817
39.4602
39.44
39.421
39.4031
39.3862
39.3705
39.3564
39.3445
39.3355
39.3299
39.3283
39.3305
39.856
39.8177
39.7748
39.7365
39.7013
39.6693
39.6401
39.6135
39.5892
39.567
39.5465
39.5275
39.5099
39.4934
39.478
39.4639
39.4513
39.4409
39.4331
39.4286
39.4278
39.4309
39.9196
39.8827
39.8381
39.8015
39.7677
39.7375
39.7102
39.6855
39.6632
39.643
39.6246
39.6077
39.5922
39.578
39.5649
39.5531
39.5429
39.5347
39.5289
39.526
39.5265
39.5304
39.9898
39.9563
39.9123
39.8768
39.8436
39.814
39.7874
39.7635
39.7421
39.7229
39.7057
39.6901
39.676
39.6632
39.6517
39.6416
39.633
39.6263
39.622
39.6203
39.6217
39.6264
40.0592
40.0247
39.9807
39.9456
39.913
39.8844
39.8588
39.8362
39.8161
39.7982
39.7824
39.7683
39.7558
39.7446
39.7347
39.7262
39.7192
39.7141
39.7111
39.7104
39.7127
39.7179
40.1279
40.0929
40.0498
40.0152
39.9833
39.9553
39.9304
39.9085
39.8893
39.8724
39.8576
39.8447
39.8333
39.8234
39.8148
39.8076
39.8019
39.7979
39.7959
39.7961
39.7989
39.8046
40.1947
40.1583
40.1155
40.081
40.0495
40.022
39.9978
39.9767
39.9583
39.9424
39.9286
39.9167
39.9064
39.8977
39.8903
39.8842
39.8796
39.8767
39.8756
39.8764
39.8797
39.8856
40.2585
40.2206
40.1785
40.144
40.1128
40.0856
40.062
40.0414
40.0237
40.0085
39.9955
39.9845
39.9751
39.9673
39.9609
39.9558
39.9521
39.95
39.9496
39.9509
39.9545
39.9605
40.3185
40.279
40.2371
40.2024
40.1714
40.1445
40.1212
40.1011
40.084
40.0694
40.0571
40.0468
40.0382
40.0312
40.0256
40.0214
40.0185
40.017
40.0171
40.0188
40.0226
40.0287
40.3736
40.3325
40.2908
40.2559
40.2249
40.1982
40.1752
40.1555
40.1387
40.1247
40.1129
40.1032
40.0953
40.0889
40.084
40.0804
40.0781
40.0772
40.0777
40.0797
40.0836
40.0897
40.423
40.3803
40.3386
40.3034
40.2725
40.2458
40.2229
40.2035
40.1871
40.1734
40.1621
40.1529
40.1455
40.1397
40.1353
40.1322
40.1304
40.13
40.1308
40.1329
40.137
40.1431
40.466
40.4217
40.38
40.3445
40.3135
40.2868
40.264
40.2447
40.2285
40.2151
40.2041
40.1953
40.1883
40.1829
40.179
40.1764
40.175
40.1748
40.1759
40.1782
40.1822
40.1883
40.5013
40.4557
40.414
40.3782
40.347
40.3203
40.2976
40.2784
40.2624
40.2492
40.2385
40.2299
40.2233
40.2182
40.2146
40.2123
40.2112
40.2113
40.2126
40.215
40.2191
40.2251
40.5291
40.4824
40.4405
40.4044
40.3731
40.3463
40.3235
40.3043
40.2884
40.2754
40.2648
40.2564
40.25
40.2452
40.2418
40.2398
40.2389
40.2391
40.2405
40.243
40.2471
40.253
40.5473
40.4999
40.458
40.4217
40.3904
40.3636
40.3408
40.3217
40.3059
40.293
40.2826
40.2744
40.2681
40.2634
40.2602
40.2583
40.2576
40.258
40.2594
40.262
40.2661
40.272
40.5584
40.5105
40.4683
40.4317
40.4002
40.3732
40.3504
40.3312
40.3153
40.3024
40.292
40.2838
40.2775
40.2729
40.2698
40.268
40.2673
40.2677
40.2692
40.2718
40.2759
40.2818
37.928
37.8025
37.6789
37.5574
37.4383
37.322
37.2083
37.0976
36.9897
36.8849
36.7825
36.6838
36.5857
36.4955
36.3976
36.3391
36.3078
36.2668
36.2299
36.1936
36.1596
36.1277
36.0982
36.0713
36.0474
36.0263
36.0087
35.9934
35.9832
35.9721
37.9238
37.8037
37.6857
37.5699
37.4565
37.3458
37.2379
37.1329
37.0308
36.9318
36.835
36.7422
36.6485
36.5632
36.4651
36.3958
36.3637
36.3207
36.2843
36.2485
36.2154
36.1845
36.1561
36.1303
36.1074
36.0873
36.0706
36.0562
36.0465
36.0357
37.9177
37.8005
37.6855
37.5728
37.4625
37.355
37.2503
37.1488
37.05
36.9546
36.8614
36.7727
36.6832
36.6031
36.5124
36.4497
36.4192
36.3769
36.3407
36.305
36.2718
36.2409
36.2125
36.1869
36.1642
36.1443
36.1279
36.1137
36.1041
36.0937
37.9104
37.7968
37.6854
37.5763
37.4699
37.3662
37.2655
37.168
37.0733
36.9821
36.8931
36.8085
36.7231
36.6465
36.5597
36.4988
36.4666
36.4242
36.3878
36.3522
36.3195
36.2891
36.2614
36.2364
36.2144
36.1953
36.1794
36.1658
36.1566
36.1469
37.902
37.7912
37.6829
37.5769
37.4735
37.3731
37.2756
37.1814
37.0901
37.0024
36.917
36.8361
36.7549
36.6821
36.6008
36.5424
36.5092
36.4675
36.4312
36.396
36.3635
36.3335
36.3062
36.2817
36.2602
36.2416
36.2261
36.2131
36.2042
36.1954
37.8921
37.7842
37.6787
37.5756
37.4753
37.378
37.2837
37.1927
37.1047
37.0204
36.9385
36.861
36.7837
36.7139
36.6375
36.5811
36.5466
36.5054
36.469
36.4341
36.402
36.3724
36.3457
36.3218
36.3009
36.2829
36.2681
36.2557
36.2471
36.2393
37.881
37.7756
37.6727
37.5723
37.4747
37.3802
37.2888
37.2007
37.1158
37.0345
36.9558
36.8815
36.8079
36.7412
36.6694
36.6149
36.5793
36.5386
36.5022
36.4677
36.436
36.4069
36.3807
36.3574
36.3371
36.3198
36.3055
36.2938
36.2856
36.2789
37.8686
37.7655
37.665
37.5671
37.472
37.3801
37.2913
37.206
37.1239
37.0455
36.9698
36.8984
36.8282
36.7642
36.6967
36.6441
36.6074
36.5671
36.5309
36.4968
36.4654
36.4369
36.4113
36.3886
36.369
36.3523
36.3386
36.3276
36.3199
36.3143
37.855
37.7539
37.6557
37.56
37.4673
37.3777
37.2914
37.2086
37.129
37.0532
36.9804
36.9116
36.8446
36.7832
36.7196
36.6687
36.6311
36.5914
36.5553
36.5215
36.4907
36.4627
36.4376
36.4156
36.3966
36.3806
36.3675
36.3573
36.35
36.3458
37.8401
37.741
37.6447
37.5512
37.4606
37.3732
37.2891
37.2086
37.1314
37.058
36.9877
36.9215
36.8573
36.7983
36.7383
36.689
36.6507
36.6114
36.5755
36.5422
36.5118
36.4844
36.46
36.4386
36.4202
36.4049
36.3925
36.3829
36.3763
36.3734
37.8241
37.7268
37.6324
37.5408
37.4521
37.3668
37.2847
37.2063
37.1313
37.06
36.992
36.928
36.8665
36.8097
36.753
36.7052
36.6663
36.6274
36.5919
36.559
36.5291
36.5022
36.4784
36.4577
36.44
36.4253
36.4136
36.4047
36.3987
36.3973
37.8073
37.7117
37.619
37.529
37.4422
37.3586
37.2785
37.2019
37.1288
37.0595
36.9936
36.9317
36.8724
36.8177
36.7638
36.7174
36.6782
36.6397
36.6045
36.5722
36.5428
36.5165
36.4933
36.4731
36.4561
36.442
36.4309
36.4229
36.4174
36.4177
37.7899
37.6958
37.6047
37.5163
37.4311
37.3492
37.2707
37.1958
37.1245
37.0569
36.9928
36.9327
36.8754
36.8225
36.7711
36.726
36.6865
36.6486
36.6138
36.5819
36.5531
36.5273
36.5047
36.4852
36.4687
36.4553
36.4448
36.4375
36.4327
36.4345
37.7725
37.6798
37.59
37.5032
37.4194
37.339
37.262
37.1886
37.1188
37.0527
36.9901
36.9315
36.8759
36.8246
36.7753
36.7314
36.6918
36.6544
36.6201
36.5887
36.5604
36.5352
36.5131
36.4941
36.4782
36.4653
36.4554
36.4488
36.4447
36.4481
37.7555
37.6641
37.5757
37.4901
37.4077
37.3286
37.2529
37.1808
37.1122
37.0474
36.9861
36.9287
36.8745
36.8245
36.7767
36.7339
36.6945
36.6576
36.6237
36.5928
36.565
36.5403
36.5187
36.5002
36.4848
36.4724
36.463
36.4571
36.4535
36.4584
37.7397
37.6495
37.5622
37.4779
37.3967
37.3187
37.2441
37.173
37.1055
37.0417
36.9814
36.9249
36.8718
36.8227
36.7762
36.7343
36.6952
36.6587
36.6253
36.5949
36.5675
36.5432
36.522
36.5039
36.4888
36.4769
36.4679
36.4626
36.4596
36.4658
37.7257
37.6366
37.5504
37.4671
37.3869
37.3099
37.2363
37.1661
37.0994
37.0363
36.9768
36.921
36.8686
36.8202
36.7745
36.7332
36.6944
36.6584
36.6253
36.5953
36.5683
36.5443
36.5234
36.5056
36.4908
36.4791
36.4705
36.4656
36.4631
36.4703
37.7142
37.626
37.5408
37.4584
37.3791
37.3029
37.23
37.1605
37.0944
37.0319
36.9729
36.9175
36.8656
36.8175
36.7723
36.7314
36.6929
36.6572
36.6244
36.5946
36.5679
36.5441
36.5234
36.5057
36.491
36.4795
36.4711
36.4666
36.4646
36.4724
37.7055
37.6182
37.5338
37.4522
37.3736
37.2981
37.2258
37.1568
37.0912
37.029
36.9703
36.9151
36.8634
36.8154
36.7703
36.7296
36.6912
36.6556
36.623
36.5934
36.5667
36.5431
36.5224
36.5047
36.49
36.4785
36.4702
36.4659
36.4642
36.4725
37.6998
37.6131
37.5294
37.4485
37.3705
37.2955
37.2237
37.1551
37.0897
37.0278
36.9692
36.914
36.8623
36.8142
36.769
36.7284
36.6898
36.6542
36.6216
36.5919
36.5652
36.5415
36.5207
36.5029
36.4881
36.4765
36.4681
36.4639
36.4625
36.471
37.6967
37.6106
37.5275
37.4471
37.3696
37.2951
37.2236
37.1552
37.0901
37.0282
36.9696
36.9144
36.8625
36.814
36.7687
36.7279
36.6889
36.653
36.6201
36.5903
36.5634
36.5394
36.5184
36.5004
36.4854
36.4734
36.4648
36.4605
36.4594
36.4682
37.6953
37.6095
37.527
37.4472
37.3702
37.296
37.2248
37.1567
37.0917
37.0299
36.9712
36.9158
36.8636
36.8147
36.7689
36.7277
36.6882
36.6518
36.6185
36.5882
36.561
36.5368
36.5155
36.4972
36.4817
36.4694
36.4603
36.4556
36.4548
36.4648
25.1205
25.1205
25.1205
25.1206
25.1206
25.1206
25.1206
25.1206
25.1206
25.1207
25.1207
25.1207
25.1207
25.1207
25.1207
25.1207
25.1207
25.1207
25.1207
25.1207
25.1207
25.1207
25.1207
25.1207
25.2014
25.2014
25.2014
25.2015
25.2015
25.2015
25.2015
25.2015
25.2016
25.2016
25.2016
25.2016
25.2016
25.2016
25.2016
25.2016
25.2016
25.2016
25.2016
25.2016
25.2016
25.2016
25.2016
25.2016
25.2823
25.2823
25.2824
25.2824
25.2824
25.2824
25.2824
25.2825
25.2825
25.2825
25.2825
25.2825
25.2825
25.2825
25.2825
25.2825
25.2825
25.2825
25.2825
25.2825
25.2825
25.2825
25.2825
25.2825
25.3632
25.3633
25.3633
25.3633
25.3633
25.3633
25.3634
25.3634
25.3634
25.3634
25.3634
25.3634
25.3634
25.3634
25.3634
25.3634
25.3634
25.3634
25.3634
25.3634
25.3634
25.3634
25.3634
25.3634
25.4441
25.4442
25.4442
25.4442
25.4442
25.4443
25.4443
25.4443
25.4443
25.4443
25.4443
25.4443
25.4443
25.4443
25.4443
25.4443
25.4443
25.4443
25.4443
25.4443
25.4443
25.4443
25.4443
25.4443
25.525
25.5251
25.5251
25.5251
25.5252
25.5252
25.5252
25.5252
25.5252
25.5252
25.5253
25.5253
25.5253
25.5253
25.5253
25.5253
25.5252
25.5252
25.5252
25.5252
25.5252
25.5252
25.5252
25.5252
25.606
25.606
25.606
25.6061
25.6061
25.6061
25.6061
25.6062
25.6062
25.6062
25.6062
25.6062
25.6062
25.6062
25.6062
25.6062
25.6062
25.6062
25.6061
25.6061
25.6061
25.6061
25.6061
25.6061
25.6869
25.687
25.687
25.687
25.687
25.687
25.6871
25.6871
25.6871
25.6871
25.6871
25.6871
25.6871
25.6871
25.6871
25.6871
25.6871
25.6871
25.687
25.687
25.687
25.687
25.687
25.687
25.7678
25.7679
25.7679
25.7679
25.768
25.768
25.768
25.768
25.768
25.768
25.768
25.768
25.768
25.768
25.768
25.768
25.768
25.768
25.768
25.7679
25.7679
25.7679
25.7679
25.7679
25.8488
25.8488
25.8488
25.8489
25.8489
25.8489
25.8489
25.8489
25.849
25.849
25.849
25.849
25.8489
25.8489
25.8489
25.8489
25.8489
25.8489
25.8489
25.8488
25.8488
25.8488
25.8488
25.8488
25.9297
25.9298
25.9298
25.9298
25.9298
25.9299
25.9299
25.9299
25.9299
25.9299
25.9299
25.9299
25.9299
25.9299
25.9298
25.9298
25.9298
25.9298
25.9298
25.9297
25.9297
25.9297
25.9297
25.9296
26.0106
26.0107
26.0107
26.0108
26.0108
26.0108
26.0108
26.0108
26.0108
26.0108
26.0108
26.0108
26.0108
26.0108
26.0108
26.0107
26.0107
26.0107
26.0107
26.0106
26.0106
26.0106
26.0106
26.0105
26.0916
26.0916
26.0917
26.0917
26.0917
26.0917
26.0918
26.0918
26.0918
26.0918
26.0918
26.0918
26.0917
26.0917
26.0917
26.0917
26.0916
26.0916
26.0916
26.0915
26.0915
26.0915
26.0914
26.0914
26.1725
26.1726
26.1726
26.1727
26.1727
26.1727
26.1727
26.1727
26.1727
26.1727
26.1727
26.1727
26.1727
26.1726
26.1726
26.1726
26.1726
26.1725
26.1725
26.1725
26.1724
26.1724
26.1723
26.1723
26.2535
26.2536
26.2536
26.2536
26.2536
26.2537
26.2537
26.2537
26.2537
26.2537
26.2537
26.2536
26.2536
26.2536
26.2536
26.2535
26.2535
26.2534
26.2534
26.2534
26.2533
26.2533
26.2532
26.2532
26.3344
26.3345
26.3345
26.3346
26.3346
26.3346
26.3346
26.3346
26.3346
26.3346
26.3346
26.3346
26.3346
26.3345
26.3345
26.3344
26.3344
26.3344
26.3343
26.3343
26.3342
26.3342
26.3341
26.3341
26.4154
26.4155
26.4155
26.4156
26.4156
26.4156
26.4156
26.4156
26.4156
26.4156
26.4156
26.4155
26.4155
26.4155
26.4154
26.4154
26.4153
26.4153
26.4152
26.4152
26.4151
26.415
26.415
26.4149
26.4964
26.4965
26.4965
26.4965
26.4965
26.4966
26.4966
26.4966
26.4966
26.4965
26.4965
26.4965
26.4965
26.4964
26.4964
26.4963
26.4963
26.4962
26.4961
26.4961
26.496
26.4959
26.4959
26.4958
26.5774
26.5775
26.5775
26.5775
26.5775
26.5775
26.5776
26.5775
26.5775
26.5775
26.5775
26.5774
26.5774
26.5774
26.5773
26.5772
26.5772
26.5771
26.577
26.577
26.5769
26.5768
26.5768
26.5767
26.6584
26.6584
26.6585
26.6585
26.6585
26.6585
26.6585
26.6585
26.6585
26.6585
26.6585
26.6584
26.6584
26.6583
26.6583
26.6582
26.6581
26.658
26.658
26.6579
26.6578
26.6577
26.6576
26.6575
26.7394
26.7394
26.7395
26.7395
26.7395
26.7395
26.7395
26.7395
26.7395
26.7395
26.7394
26.7394
26.7393
26.7393
26.7392
26.7391
26.739
26.739
26.7389
26.7388
26.7387
26.7386
26.7385
26.7384
26.8204
26.8205
26.8205
26.8205
26.8205
26.8205
26.8205
26.8205
26.8205
26.8205
26.8204
26.8204
26.8203
26.8202
26.8202
26.8201
26.82
26.8199
26.8198
26.8197
26.8196
26.8195
26.8194
26.8193
26.9014
26.9015
26.9015
26.9015
26.9016
26.9016
26.9016
26.9015
26.9015
26.9015
26.9014
26.9014
26.9013
26.9012
26.9011
26.901
26.9009
26.9008
26.9007
26.9006
26.9005
26.9004
26.9003
26.9001
26.9824
26.9825
26.9825
26.9826
26.9826
26.9826
26.9826
26.9826
26.9825
26.9825
26.9824
26.9824
26.9823
26.9822
26.9821
26.982
26.9819
26.9818
26.9816
26.9815
26.9814
26.9813
26.9811
26.981
27.0635
27.0636
27.0636
27.0636
27.0636
27.0636
27.0636
27.0636
27.0636
27.0635
27.0634
27.0634
27.0633
27.0632
27.0631
27.0629
27.0628
27.0627
27.0626
27.0624
27.0623
27.0621
27.062
27.0619
27.1445
27.1446
27.1447
27.1447
27.1447
27.1447
27.1447
27.1446
27.1446
27.1445
27.1445
27.1444
27.1443
27.1442
27.144
27.1439
27.1438
27.1436
27.1435
27.1433
27.1432
27.143
27.1429
27.1427
27.2256
27.2257
27.2257
27.2258
27.2258
27.2258
27.2257
27.2257
27.2257
27.2256
27.2255
27.2254
27.2253
27.2252
27.225
27.2249
27.2247
27.2246
27.2244
27.2242
27.2241
27.2239
27.2237
27.2236
27.3067
27.3068
27.3068
27.3069
27.3069
27.3069
27.3068
27.3068
27.3067
27.3066
27.3065
27.3064
27.3063
27.3062
27.306
27.3059
27.3057
27.3055
27.3053
27.3052
27.305
27.3048
27.3046
27.3044
27.3878
27.3879
27.3879
27.388
27.388
27.388
27.3879
27.3879
27.3878
27.3877
27.3876
27.3875
27.3874
27.3872
27.387
27.3869
27.3867
27.3865
27.3863
27.3861
27.3859
27.3857
27.3854
27.3852
27.4689
27.469
27.4691
27.4691
27.4691
27.4691
27.469
27.469
27.4689
27.4688
27.4687
27.4686
27.4684
27.4682
27.4681
27.4679
27.4677
27.4674
27.4672
27.467
27.4668
27.4665
27.4663
27.4661
27.5501
27.5502
27.5502
27.5502
27.5502
27.5502
27.5502
27.5501
27.55
27.5499
27.5498
27.5496
27.5495
27.5493
27.5491
27.5489
27.5486
27.5484
27.5482
27.5479
27.5477
27.5474
27.5472
27.5469
27.6312
27.6314
27.6314
27.6314
27.6314
27.6314
27.6313
27.6313
27.6312
27.631
27.6309
27.6307
27.6305
27.6303
27.6301
27.6299
27.6296
27.6294
27.6291
27.6288
27.6286
27.6283
27.628
27.6277
27.7124
27.7126
27.7126
27.7126
27.7126
27.7126
27.7125
27.7124
27.7123
27.7122
27.712
27.7118
27.7116
27.7114
27.7112
27.7109
27.7107
27.7104
27.7101
27.7098
27.7095
27.7092
27.7089
27.7085
27.7936
27.7938
27.7938
27.7938
27.7938
27.7938
27.7937
27.7936
27.7935
27.7933
27.7932
27.793
27.7927
27.7925
27.7922
27.792
27.7917
27.7914
27.791
27.7907
27.7904
27.79
27.7897
27.7894
27.8749
27.875
27.875
27.8751
27.8751
27.875
27.8749
27.8748
27.8747
27.8745
27.8743
27.8741
27.8739
27.8736
27.8733
27.873
27.8727
27.8724
27.872
27.8717
27.8713
27.8709
27.8705
27.8702
27.9562
27.9563
27.9563
27.9564
27.9563
27.9563
27.9562
27.9561
27.9559
27.9557
27.9555
27.9553
27.955
27.9547
27.9544
27.9541
27.9537
27.9534
27.953
27.9526
27.9522
27.9518
27.9514
27.951
28.0375
28.0376
28.0376
28.0377
28.0376
28.0376
28.0375
28.0374
28.0372
28.037
28.0368
28.0365
28.0362
28.0359
28.0356
28.0352
28.0348
28.0344
28.034
28.0335
28.0331
28.0327
28.0322
28.0318
28.1188
28.119
28.119
28.119
28.119
28.1189
28.1188
28.1187
28.1185
28.1183
28.118
28.1177
28.1174
28.1171
28.1167
28.1163
28.1159
28.1154
28.115
28.1145
28.114
28.1135
28.113
28.1126
28.2002
28.2004
28.2004
28.2004
28.2004
28.2003
28.2002
28.2
28.1998
28.1996
28.1993
28.199
28.1986
28.1983
28.1979
28.1974
28.197
28.1965
28.196
28.1955
28.195
28.1944
28.1939
28.1933
28.2816
28.2818
28.2818
28.2818
28.2818
28.2817
28.2816
28.2814
28.2812
28.2809
28.2806
28.2803
28.2799
28.2795
28.279
28.2786
28.2781
28.2776
28.277
28.2765
28.2759
28.2753
28.2747
28.2741
28.3631
28.3633
28.3633
28.3633
28.3632
28.3631
28.363
28.3628
28.3626
28.3623
28.362
28.3616
28.3612
28.3607
28.3603
28.3598
28.3592
28.3586
28.3581
28.3574
28.3568
28.3562
28.3555
28.3549
28.4446
28.4448
28.4448
28.4448
28.4447
28.4446
28.4445
28.4443
28.444
28.4437
28.4433
28.4429
28.4425
28.442
28.4415
28.441
28.4404
28.4398
28.4391
28.4384
28.4378
28.4371
28.4364
28.4357
28.5262
28.5264
28.5264
28.5264
28.5263
28.5262
28.526
28.5258
28.5255
28.5252
28.5248
28.5243
28.5239
28.5233
28.5228
28.5222
28.5216
28.5209
28.5202
28.5195
28.5187
28.518
28.5172
28.5164
28.6078
28.608
28.608
28.608
28.6079
28.6078
28.6076
28.6073
28.607
28.6067
28.6063
28.6058
28.6053
28.6047
28.6041
28.6035
28.6028
28.602
28.6013
28.6005
28.5997
28.5989