/*--------------------------------*- C++ -*----------------------------------*\
| =========                 |                                                 |
| \\      /  F ield         | OpenFOAM Extend Project: Open source CFD        |
|  \\    /   O peration     | Version:  1.6-ext                               |
|   \\  /    A nd           | Web:      www.extend-project.de                 |
|    \\/     M anipulation  |                                                 |
\*---------------------------------------------------------------------------*/
FoamFile
{
    version     2.0;
    format      ascii;
    class       surfaceScalarField;
    location    "0.05";
    object      phi;
}
// * * * * * * * * * * * * * * * * * * * * * * * * * * * * * * * * * * * * * //

dimensions      [0 3 -1 0 0 0 0];

internalField   nonuniform List<scalar> 
41420
(
-1.12385e-05
0.000155518
-0.00015624
1.19597e-05
-1.0515e-05
0.000147694
-0.000148418
-9.82584e-06
0.000140809
-0.000141499
-9.16183e-06
0.000134313
-0.000134977
-8.52721e-06
0.000128248
-0.000128882
-7.92069e-06
0.000122518
-0.000123125
-7.341e-06
0.00011708
-0.00011766
-6.78458e-06
0.000111869
-0.000112426
-6.24573e-06
0.000106805
-0.000107344
-5.71649e-06
0.000101781
-0.00010231
-5.18751e-06
9.66652e-05
-9.71942e-05
-4.64959e-06
9.13049e-05
-9.18428e-05
-4.09582e-06
8.55388e-05
-8.60926e-05
-3.52377e-06
7.9217e-05
-7.97891e-05
-2.93734e-06
7.22206e-05
-7.2807e-05
-2.34758e-06
6.44794e-05
-6.50692e-05
-1.77247e-06
5.59837e-05
-5.65588e-05
-1.23549e-06
4.6787e-05
-4.7324e-05
-7.63434e-07
3.70012e-05
-3.74732e-05
-3.83732e-07
2.6784e-05
-2.71637e-05
-1.21995e-07
1.63217e-05
-1.65835e-05
5.80686e-06
-5.92885e-06
-1.14543e-05
0.00015464
1.23325e-05
-1.05771e-05
0.000146817
-9.74975e-06
0.000139982
-8.95932e-06
0.000133522
-8.21224e-06
0.0001275
-7.50677e-06
0.000121813
-6.84218e-06
0.000116416
-6.21573e-06
0.000111243
-5.62298e-06
0.000106212
-5.05774e-06
0.000101216
-4.51261e-06
9.61201e-05
-3.98011e-06
9.07724e-05
-3.45414e-06
8.50129e-05
-2.93171e-06
7.86946e-05
-2.41416e-06
7.1703e-05
-1.90804e-06
6.39733e-05
-1.42499e-06
5.55006e-05
-9.81053e-07
4.63431e-05
-5.95436e-07
3.66156e-05
-2.89091e-07
2.64777e-05
-8.33481e-08
1.6116e-05
5.72351e-06
-1.43851e-05
0.000153403
1.56221e-05
-1.31663e-05
0.000145598
-1.20256e-05
0.000138841
-1.09411e-05
0.000132438
-9.9212e-06
0.000126481
-8.96259e-06
0.000120854
-8.06436e-06
0.000115518
-7.22348e-06
0.000110402
-6.43564e-06
0.000105424
-5.69509e-06
0.000100475
-4.99512e-06
9.54202e-05
-4.32898e-06
9.01062e-05
-3.69114e-06
8.4375e-05
-3.07863e-06
7.80821e-05
-2.49225e-06
7.11166e-05
-1.93713e-06
6.34182e-05
-1.42286e-06
5.49863e-05
-9.62834e-07
4.5883e-05
-5.73188e-07
3.62259e-05
-2.71406e-07
2.61759e-05
-7.49772e-08
1.59196e-05
5.64853e-06
-1.70269e-05
0.000151828
1.8602e-05
-1.54828e-05
0.000144054
-1.40464e-05
0.000137405
-1.26845e-05
0.000131076
-1.14079e-05
0.000125204
-1.02113e-05
0.000119658
-9.09401e-06
0.0001144
-8.05279e-06
0.000109361
-7.08376e-06
0.000104455
-6.18191e-06
9.95731e-05
-5.34149e-06
9.45797e-05
-4.55673e-06
8.93215e-05
-3.82274e-06
8.3641e-05
-3.13664e-06
7.7396e-05
-2.4984e-06
7.04784e-05
-1.91145e-06
6.28312e-05
-1.38266e-06
5.44576e-05
-9.21887e-07
4.54222e-05
-5.40976e-07
3.5845e-05
-2.52546e-07
2.58875e-05
-6.87346e-08
1.57358e-05
5.5798e-06
-1.91978e-05
0.000149954
2.10716e-05
-1.73618e-05
0.000142218
-1.56618e-05
0.000135705
-1.40521e-05
0.000129466
-1.25467e-05
0.000123699
-1.11385e-05
0.00011825
-9.82704e-06
0.000113089
-8.60926e-06
0.000108143
-7.48216e-06
0.000103328
-6.44191e-06
9.85329e-05
-5.48417e-06
9.3622e-05
-4.60444e-06
8.84418e-05
-3.79867e-06
8.28353e-05
-3.06392e-06
7.66612e-05
-2.39898e-06
6.98135e-05
-1.80484e-06
6.22371e-05
-1.28471e-06
5.39374e-05
-8.43708e-07
4.49812e-05
-4.88224e-07
3.54895e-05
-2.25022e-07
2.56243e-05
-6.05189e-08
1.55713e-05
5.51928e-06
-2.09387e-05
0.000147821
2.3072e-05
-1.88433e-05
0.000140123
-1.69106e-05
0.000133772
-1.50814e-05
0.000127637
-1.33738e-05
0.000121991
-1.17786e-05
0.000116654
-1.0296e-05
0.000111606
-8.9236e-06
0.000106771
-7.65946e-06
0.000102064
-6.50139e-06
9.73748e-05
-5.44686e-06
9.25675e-05
-4.49302e-06
8.74879e-05
-3.63681e-06
8.19791e-05
-2.87518e-06
7.58996e-05
-2.20543e-06
6.91437e-05
-1.62549e-06
6.16571e-05
-1.13407e-06
5.3446e-05
-7.3067e-07
4.45778e-05
-4.15338e-07
3.51742e-05
-1.88329e-07
2.53973e-05
-4.9898e-08
1.54328e-05
5.46938e-06
-2.23045e-05
0.000145468
2.46576e-05
-1.99839e-05
0.000137803
-1.78507e-05
0.000131639
-1.58307e-05
0.000125617
-1.39468e-05
0.000120107
-1.21877e-05
0.000114895
-1.05548e-05
0.000109973
-9.04651e-06
0.000105262
-7.66264e-06
0.00010068
-6.40309e-06
9.61153e-05
-5.2677e-06
9.14321e-05
-4.25571e-06
8.64759e-05
-3.36532e-06
8.10887e-05
-2.59346e-06
7.51277e-05
-1.93575e-06
6.8486e-05
-1.38663e-06
6.1108e-05
-9.39748e-07
5.29991e-05
-5.88258e-07
4.42263e-05
-3.25167e-07
3.49111e-05
-1.43598e-07
2.52157e-05
-3.71412e-08
1.53264e-05
5.43224e-06
-2.33674e-05
0.000142931
2.59042e-05
-2.08522e-05
0.000135287
-1.85457e-05
0.000129333
-1.63595e-05
0.000123431
-1.43219e-05
0.00011807
-1.24194e-05
0.000112993
-1.06547e-05
0.000108209
-9.02704e-06
0.000103635
-7.53824e-06
9.91911e-05
-6.19054e-06
9.47676e-05
-4.98652e-06
9.0228e-05
-3.92793e-06
8.54173e-05
-3.0147e-06
8.01754e-05
-2.244e-06
7.4357e-05
-1.60985e-06
6.78518e-05
-1.10312e-06
6.06013e-05
-7.12001e-07
5.2608e-05
-4.22859e-07
4.39372e-05
-2.21124e-07
3.47094e-05
-9.22202e-08
2.50868e-05
-2.25327e-08
1.52567e-05
5.40971e-06
-2.4206e-05
0.00014025
2.68876e-05
-2.15341e-05
0.000132615
-1.90886e-05
0.000126887
-1.67663e-05
0.000121109
-1.45984e-05
0.000115902
-1.25711e-05
0.000110965
-1.06883e-05
0.000106326
-8.95153e-06
0.000101898
-7.36506e-06
9.76047e-05
-5.93442e-06
9.33369e-05
-4.66555e-06
8.89592e-05
-3.56338e-06
8.43152e-05
-2.63008e-06
7.92421e-05
-1.86357e-06
7.35905e-05
-1.25659e-06
6.72449e-05
-7.96505e-07
6.01412e-05
-4.66003e-07
5.22775e-05
-2.44334e-07
4.37155e-05
-1.08899e-07
3.45739e-05
-3.68798e-08
2.50148e-05
-6.87286e-09
1.52267e-05
5.40283e-06
-2.48976e-05
0.000137446
2.77008e-05
-2.20912e-05
0.000129809
-1.95211e-05
0.000124317
-1.70812e-05
0.000118669
-1.48009e-05
0.000113621
-1.26668e-05
0.000108831
-1.06824e-05
0.000104342
-8.85024e-06
0.000100066
-7.17658e-06
9.5931e-05
-5.67007e-06
9.18304e-05
-4.34034e-06
8.76294e-05
-3.19606e-06
8.31709e-05
-2.24247e-06
7.82885e-05
-1.47903e-06
7.28271e-05
-8.97928e-07
6.66638e-05
-4.83639e-07
5.97269e-05
-2.1366e-07
5.20075e-05
-6.02063e-08
4.35621e-05
7.52537e-09
3.45062e-05
2.09309e-08
2.50014e-05
9.65941e-09
1.52379e-05
5.41249e-06
-2.54958e-05
0.000134566
2.83763e-05
-2.26317e-05
0.000126945
-1.99928e-05
0.000121678
-1.74818e-05
0.000116158
-1.51145e-05
0.000111254
-1.28865e-05
0.000106603
-1.08033e-05
0.000102258
-8.87227e-06
9.81345e-05
-7.10364e-06
9.41624e-05
-5.51044e-06
9.02372e-05
-4.10711e-06
8.62261e-05
-2.90679e-06
8.19706e-05
-1.91856e-06
7.73003e-05
-1.14421e-06
7.20527e-05
-5.76128e-07
6.60957e-05
-1.96481e-07
5.93472e-05
2.20602e-08
5.1789e-05
1.14154e-07
4.347e-05
1.18888e-07
3.45014e-05
7.65333e-08
2.50437e-05
2.54917e-08
1.5289e-05
5.43798e-06
-2.60313e-05
0.000131544
2.90527e-05
-2.30943e-05
0.000124008
-2.03551e-05
0.000118939
-1.77862e-05
0.000113589
-1.53588e-05
0.000108827
-1.30738e-05
0.000104318
-1.09282e-05
0.000100113
-8.92931e-06
9.61356e-05
-7.08877e-06
9.23218e-05
-5.42311e-06
8.85716e-05
-3.95186e-06
8.47549e-05
-2.69403e-06
8.07127e-05
-1.66417e-06
7.62704e-05
-8.68381e-07
7.12569e-05
-3.01076e-07
6.55284e-05
5.63357e-08
5.89898e-05
2.34746e-07
5.16106e-05
2.74912e-07
4.34298e-05
2.23739e-07
3.45526e-05
1.30183e-07
2.51373e-05
4.13831e-08
1.53778e-05
5.47937e-06
-2.65167e-05
0.000128494
2.95667e-05
-2.38126e-05
0.000121304
-2.11102e-05
0.000116236
-1.8551e-05
0.00011103
-1.6069e-05
0.000106345
-1.37041e-05
0.000101953
-1.14615e-05
9.78702e-05
-9.35696e-06
9.40311e-05
-7.407e-06
9.03719e-05
-5.63243e-06
8.6797e-05
-4.05711e-06
8.31795e-05
-2.70562e-06
7.93612e-05
-1.59818e-06
7.5163e-05
-7.45806e-07
7.04046e-05
-1.46101e-07
6.49287e-05
2.19103e-07
5.86246e-05
3.83462e-07
5.14462e-05
3.93355e-07
4.34199e-05
3.03442e-07
3.46425e-05
1.71441e-07
2.52693e-05
5.33312e-08
1.54959e-05
5.5327e-06
-2.65556e-05
0.000124578
3.04722e-05
-2.38885e-05
0.000118637
-2.11689e-05
0.000113517
-1.86964e-05
0.000108557
-1.62927e-05
0.000103941
-1.39856e-05
9.96464e-05
-1.17716e-05
9.56562e-05
-9.66676e-06
9.19262e-05
-7.69057e-06
8.83957e-05
-5.86898e-06
8.49754e-05
-4.23208e-06
8.15426e-05
-2.81169e-06
7.79409e-05
-1.63633e-06
7.39876e-05
-7.24919e-07
6.94932e-05
-8.1522e-08
6.42853e-05
3.08068e-07
5.8235e-05
4.76959e-07
5.12773e-05
4.74608e-07
4.34223e-05
3.61691e-07
3.47555e-05
2.0358e-07
2.54274e-05
6.38483e-08
1.56356e-05
5.59655e-06
-2.73059e-05
0.000121013
3.08704e-05
-2.54957e-05
0.000116827
-2.2988e-05
0.000111009
-2.04859e-05
0.000106055
-1.79724e-05
0.000101427
-1.55181e-05
9.7192e-05
-1.31446e-05
9.32827e-05
-1.08743e-05
8.9656e-05
-8.73023e-06
8.62516e-05
-6.74022e-06
8.29854e-05
-4.93757e-06
7.974e-05
-3.35842e-06
7.63617e-05
-2.03689e-06
7.26661e-05
-9.98426e-07
6.84547e-05
-2.52811e-07
6.35397e-05
2.1077e-07
5.77715e-05
4.25342e-07
5.10628e-05
4.44449e-07
4.34032e-05
3.36924e-07
3.4863e-05
1.78937e-07
2.55854e-05
4.55129e-08
1.5769e-05
5.64206e-06
-0.000112338
0.000114281
0.00011907
-0.000104739
0.000109227
-9.70399e-05
0.00010331
-8.96166e-05
9.86317e-05
-8.24311e-05
9.42419e-05
-7.55264e-05
9.02873e-05
-6.88807e-05
8.6637e-05
-6.24749e-05
8.32501e-05
-5.62802e-05
8.00569e-05
-5.02654e-05
7.69706e-05
-4.43995e-05
7.38741e-05
-3.86584e-05
7.06206e-05
-3.30338e-05
6.70415e-05
-2.75427e-05
6.29637e-05
-2.22346e-05
5.82315e-05
-1.71934e-05
5.27303e-05
-1.25351e-05
4.64045e-05
-8.39922e-06
3.92673e-05
-4.93669e-06
3.14005e-05
-2.29657e-06
2.29453e-05
-6.14083e-07
1.40866e-05
5.02798e-06
-0.000110873
0.000105978
0.000119177
-0.000102354
0.000100708
-9.45712e-05
9.55273e-05
-8.71476e-05
9.12081e-05
-8.00553e-05
8.71497e-05
-7.32503e-05
8.34823e-05
-6.67009e-05
8.00876e-05
-6.03817e-05
7.69309e-05
-5.42657e-05
7.39409e-05
-4.83262e-05
7.10311e-05
-4.25398e-05
6.80876e-05
-3.68916e-05
6.49724e-05
-3.13835e-05
6.15334e-05
-2.60404e-05
5.76206e-05
-2.09155e-05
5.31066e-05
-1.60905e-05
4.79053e-05
-1.16721e-05
4.19861e-05
-7.7841e-06
3.53793e-05
-4.55671e-06
2.81731e-05
-2.11525e-06
2.05038e-05
-5.68651e-07
1.254e-05
4.45933e-06
-0.00010895
9.73501e-05
0.000117578
-0.000100485
9.2243e-05
-9.27277e-05
8.77696e-05
-8.52836e-05
8.3764e-05
-7.81878e-05
8.00538e-05
-7.138e-05
7.66745e-05
-6.48371e-05
7.35447e-05
-5.85317e-05
7.06255e-05
-5.24384e-05
6.78476e-05
-4.65333e-05
6.51261e-05
-4.07978e-05
6.23521e-05
-3.52233e-05
5.93979e-05
-2.9818e-05
5.61282e-05
-2.46122e-05
5.24147e-05
-1.96604e-05
4.81548e-05
-1.5041e-05
4.32858e-05
-1.08509e-05
3.7796e-05
-7.19844e-06
3.17268e-05
-4.1936e-06
2.51682e-05
-1.93866e-06
1.82489e-05
-5.19544e-07
1.11208e-05
3.93978e-06
-0.000106913
8.86209e-05
0.000115642
-9.8571e-05
8.39009e-05
-9.08156e-05
8.00142e-05
-8.33938e-05
7.63422e-05
-7.63243e-05
7.29843e-05
-6.95435e-05
6.98937e-05
-6.30286e-05
6.70298e-05
-5.67521e-05
6.4349e-05
-5.06915e-05
6.1787e-05
-4.48272e-05
5.92619e-05
-3.91466e-05
5.66715e-05
-3.36481e-05
5.38994e-05
-2.8346e-05
5.08261e-05
-2.32746e-05
4.73434e-05
-1.84893e-05
4.33694e-05
-1.40644e-05
3.8861e-05
-1.00879e-05
3.38195e-05
-6.65397e-06
2.82929e-05
-3.85468e-06
2.23689e-05
-1.77218e-06
1.61664e-05
-4.72085e-07
9.82075e-06
3.4677e-06
-0.000105067
7.99904e-05
0.000113698
-9.68862e-05
7.57201e-05
-8.91609e-05
7.22889e-05
-8.17711e-05
6.89524e-05
-7.47148e-05
6.5928e-05
-6.79445e-05
6.31234e-05
-6.14389e-05
6.05243e-05
-5.51735e-05
5.80836e-05
-4.91294e-05
5.57429e-05
-4.32918e-05
5.34243e-05
-3.76539e-05
5.10335e-05
-3.22201e-05
4.84656e-05
-2.70105e-05
4.56164e-05
-2.20623e-05
4.23953e-05
-1.74306e-05
3.87377e-05
-1.31845e-05
3.46149e-05
-9.40287e-06
3.00378e-05
-6.16657e-06
2.50566e-05
-3.55186e-06
1.97542e-05
-1.62347e-06
1.4238e-05
-4.2966e-07
8.62694e-06
3.03804e-06
-0.000103487
7.14708e-05
0.000112006
-9.54169e-05
6.76505e-05
-8.77244e-05
6.45964e-05
-8.0368e-05
6.15959e-05
-7.33271e-05
5.88872e-05
-6.65678e-05
5.63641e-05
-6.00693e-05
5.40257e-05
-5.38107e-05
5.1825e-05
-4.77767e-05
4.97089e-05
-4.19577e-05
4.76052e-05
-3.63525e-05
4.54284e-05
-3.09722e-05
4.30853e-05
-2.58416e-05
4.04858e-05
-2.10009e-05
3.75546e-05
-1.65044e-05
3.42411e-05
-1.24164e-05
3.05269e-05
-8.80668e-06
2.64282e-05
-5.74418e-06
2.19941e-05
-3.29063e-06
1.73007e-05
-1.49579e-06
1.24431e-05
-3.93424e-07
7.52458e-06
2.64461e-06
-0.000102284
6.30405e-05
0.000110714
-9.42873e-05
5.96543e-05
-8.66265e-05
5.69357e-05
-7.9295e-05
5.42643e-05
-7.22625e-05
5.18547e-05
-6.5505e-05
4.96066e-05
-5.90024e-05
4.75232e-05
-5.27381e-05
4.55607e-05
-4.67005e-05
4.36714e-05
-4.08853e-05
4.179e-05
-3.5297e-05
3.98402e-05
-2.99522e-05
3.77405e-05
-2.48803e-05
3.5414e-05
-2.0124e-05
3.27983e-05
-1.57363e-05
2.98535e-05
-1.17778e-05
2.65683e-05
-8.31031e-06
2.29607e-05
-5.39223e-06
1.9076e-05
-3.07305e-06
1.49815e-05
-1.38959e-06
1.07597e-05
-3.6338e-07
6.49837e-06
2.28123e-06
-0.000101417
5.46786e-05
0.000109779
-9.34719e-05
5.17091e-05
-8.58427e-05
4.93064e-05
-7.85328e-05
4.69545e-05
-7.15084e-05
4.48302e-05
-6.47502e-05
4.28484e-05
-5.82394e-05
4.10124e-05
-5.19627e-05
3.9284e-05
-4.59125e-05
3.76212e-05
-4.00893e-05
3.59667e-05
-3.45033e-05
3.42542e-05
-2.91764e-05
3.24135e-05
-2.41422e-05
3.03798e-05
-1.94454e-05
2.81014e-05
-1.51384e-05
2.55466e-05
-1.1278e-05
2.2708e-05
-7.91997e-06
1.96026e-05
-5.11412e-06
1.62701e-05
-2.90028e-06
1.27677e-05
-1.30486e-06
9.16424e-06
-3.39323e-07
5.53284e-06
1.94191e-06
-0.00010091
4.63711e-05
0.000109217
-9.30032e-05
4.38025e-05
-8.54032e-05
4.17064e-05
-7.81109e-05
3.96622e-05
-7.10918e-05
3.78112e-05
-6.43288e-05
3.60853e-05
-5.78043e-05
3.44879e-05
-5.15079e-05
3.29875e-05
-4.54355e-05
3.15488e-05
-3.95922e-05
3.01235e-05
-3.39932e-05
2.86552e-05
-2.86653e-05
2.70856e-05
-2.36459e-05
2.53604e-05
-1.89814e-05
2.3437e-05
-1.47244e-05
2.12895e-05
-1.09285e-05
1.89121e-05
-7.6448e-06
1.63189e-05
-4.91676e-06
1.35421e-05
-2.77683e-06
1.06277e-05
-1.24387e-06
7.63129e-06
-3.2185e-07
4.61082e-06
1.62006e-06
-0.000100716
3.81047e-05
0.000108982
-9.28366e-05
3.59235e-05
-8.52595e-05
3.41293e-05
-7.7979e-05
3.23816e-05
-7.09614e-05
3.07936e-05
-6.419e-05
2.9314e-05
-5.76487e-05
2.79466e-05
-5.1329e-05
2.66678e-05
-4.523e-05
2.54498e-05
-3.93604e-05
2.42539e-05
-3.37397e-05
2.30346e-05
-2.83984e-05
2.17443e-05
-2.33769e-05
2.03388e-05
-1.87232e-05
1.87833e-05
-1.44895e-05
1.70558e-05
-1.07278e-05
1.51504e-05
-7.48555e-06
1.30767e-05
-4.80207e-06
1.08586e-05
-2.70491e-06
8.53058e-06
-1.20829e-06
6.13466e-06
-3.1166e-07
3.7142e-06
1.3084e-06
-0.000100655
2.98509e-05
0.000108909
-9.27797e-05
2.80482e-05
-8.52055e-05
2.65551e-05
-7.79212e-05
2.50973e-05
-7.08955e-05
2.37679e-05
-6.41122e-05
2.25306e-05
-5.75564e-05
2.13909e-05
-5.12212e-05
2.03326e-05
-4.51072e-05
1.93358e-05
-3.9225e-05
1.83716e-05
-3.35959e-05
1.74055e-05
-2.8252e-05
1.64004e-05
-2.32349e-05
1.53217e-05
-1.85926e-05
1.4141e-05
-1.43764e-05
1.28397e-05
-1.06366e-05
1.14105e-05
-7.41796e-06
9.85815e-06
-4.75707e-06
8.19773e-06
-2.67917e-06
6.45269e-06
-1.19673e-06
4.65223e-06
-3.08688e-07
2.82616e-06
9.99713e-07
-9.99903e-05
2.15428e-05
0.000108298
-9.20715e-05
2.01294e-05
-8.44695e-05
1.8953e-05
-7.71695e-05
1.77973e-05
-7.01423e-05
1.67407e-05
-6.3372e-05
1.57604e-05
-5.6844e-05
1.48629e-05
-5.05502e-05
1.40388e-05
-4.44896e-05
1.32752e-05
-3.86706e-05
1.25527e-05
-3.31121e-05
1.1847e-05
-2.78435e-05
1.11318e-05
-2.29032e-05
1.03815e-05
-1.83364e-05
9.57419e-06
-1.4191e-05
8.69423e-06
-1.05139e-05
7.7334e-06
-7.34722e-06
6.69147e-06
-4.72512e-06
5.57563e-06
-2.67175e-06
4.39932e-06
-1.20032e-06
3.1808e-06
-3.12671e-07
1.93851e-06
6.87042e-07
-9.64532e-05
1.31391e-05
0.000104857
-8.85045e-05
1.21807e-05
-8.09203e-05
1.13688e-05
-7.36872e-05
1.05643e-05
-6.67762e-05
9.8297e-06
-6.01697e-05
9.15383e-06
-5.3849e-05
8.5422e-06
-4.77999e-05
7.98966e-06
-4.20135e-05
7.48886e-06
-3.64891e-05
7.02833e-06
-3.12359e-05
6.59374e-06
-2.62732e-05
6.16909e-06
-2.163e-05
5.73825e-06
-1.73425e-05
5.28661e-06
-1.34507e-05
4.80245e-06
-9.99514e-06
4.27787e-06
-7.01286e-06
3.7092e-06
-4.53451e-06
3.09728e-06
-2.58272e-06
2.44754e-06
-1.17179e-06
1.76987e-06
-3.09342e-07
1.07606e-06
3.77701e-07
-8.35037e-05
5.07467e-06
9.15681e-05
-7.60136e-05
4.6906e-06
-6.89769e-05
4.33217e-06
-6.23767e-05
3.96408e-06
-5.61737e-05
3.62668e-06
-5.03396e-05
3.31977e-06
-4.48441e-05
3.04665e-06
-3.96597e-05
2.80527e-06
-3.47634e-05
2.59257e-06
-3.0139e-05
2.40395e-06
-2.57791e-05
2.23382e-06
-2.16859e-05
2.07589e-06
-1.78713e-05
1.92362e-06
-1.43553e-05
1.77068e-06
-1.11642e-05
1.61129e-06
-8.32682e-06
1.44053e-06
-5.87207e-06
1.25445e-06
-3.82518e-06
1.0504e-06
-2.20541e-06
8.27773e-07
-1.02444e-06
5.88902e-07
-2.86251e-07
3.37874e-07
9.14504e-08
-4.61159e-05
5.11892e-05
-4.14236e-05
-3.70876e-05
-3.31179e-05
-2.94845e-05
-2.61571e-05
-2.31023e-05
-2.02886e-05
-1.76876e-05
-1.52751e-05
-1.3033e-05
-1.0949e-05
-9.01762e-06
-7.23954e-06
-5.6213e-06
-4.17432e-06
-2.91399e-06
-1.85838e-06
-1.02615e-06
-4.33665e-07
-9.32125e-08
0.000114516
1.00236e-05
8.4555e-07
-0.000125385
0.000104411
9.35972e-06
7.44647e-07
9.49642e-05
8.78615e-06
6.60877e-07
8.61096e-05
8.26438e-06
5.90294e-07
7.77878e-05
7.79106e-06
5.30667e-07
6.99509e-05
7.35692e-06
4.79986e-07
6.25583e-05
6.95599e-06
4.36672e-07
5.55756e-05
6.58321e-06
3.99433e-07
4.89745e-05
6.23396e-06
3.67191e-07
4.27322e-05
5.90331e-06
3.39002e-07
3.68329e-05
5.58529e-06
3.13997e-07
3.12692e-05
5.27237e-06
2.91321e-07
2.60439e-05
4.9552e-06
2.70105e-07
2.11715e-05
4.62287e-06
2.49459e-07
1.66794e-05
4.26363e-06
2.28491e-07
1.26069e-05
3.86612e-06
2.06355e-07
9.00384e-06
3.42078e-06
1.82315e-07
5.92682e-06
2.92122e-06
1.55807e-07
3.43513e-06
2.3652e-06
1.26493e-07
1.5856e-06
1.75523e-06
9.4293e-08
4.27757e-07
1.09847e-06
5.93796e-08
4.0564e-07
2.21166e-08
0.00011431
2.08649e-05
-0.000125151
0.000104235
1.94352e-05
9.48162e-05
1.82046e-05
8.59893e-05
1.70913e-05
7.76931e-05
1.60873e-05
6.98789e-05
1.51711e-05
6.25059e-05
1.4329e-05
5.554e-05
1.35491e-05
4.89528e-05
1.28211e-05
4.27219e-05
1.21342e-05
3.68317e-05
1.14755e-05
3.12748e-05
1.08292e-05
2.60543e-05
1.01757e-05
2.11848e-05
9.49239e-06
1.66937e-05
8.75474e-06
1.26206e-05
7.93916e-06
9.0157e-06
7.02572e-06
5.93597e-06
6.00095e-06
3.44116e-06
4.86e-06
1.58868e-06
3.60771e-06
4.28626e-07
2.25852e-06
8.34266e-07
0.0001139
3.15915e-05
-0.000124627
0.000103919
2.94166e-05
9.45734e-05
2.75499e-05
8.58054e-05
2.58593e-05
7.7557e-05
2.43356e-05
6.97823e-05
2.29458e-05
6.24422e-05
2.16691e-05
5.55035e-05
2.04877e-05
4.89389e-05
1.93858e-05
4.27263e-05
1.83468e-05
3.68505e-05
1.73514e-05
3.13042e-05
1.63755e-05
2.60906e-05
1.53894e-05
2.12244e-05
1.43586e-05
1.67332e-05
1.32459e-05
1.2657e-05
1.20153e-05
9.04647e-06
1.06363e-05
5.95941e-06
9.08802e-06
3.45661e-06
7.3628e-06
1.59668e-06
5.46764e-06
4.3104e-07
3.42416e-06
1.26531e-06
0.000113307
4.2166e-05
-0.000123882
0.000103456
3.92674e-05
9.42182e-05
3.67881e-05
8.55401e-05
3.45374e-05
7.73668e-05
3.25089e-05
6.96548e-05
3.06579e-05
6.23668e-05
2.89572e-05
5.54712e-05
2.73833e-05
4.89416e-05
2.59154e-05
4.27568e-05
2.45316e-05
3.69021e-05
2.32061e-05
3.13706e-05
2.19069e-05
2.61657e-05
2.05943e-05
2.13024e-05
1.92219e-05
1.68085e-05
1.77398e-05
1.27247e-05
1.60991e-05
9.10265e-06
1.42583e-05
6.00158e-06
1.21891e-05
3.48405e-06
9.88033e-06
1.6107e-06
7.34099e-06
4.35165e-07
4.5997e-06
1.70047e-06
0.000112681
5.25475e-05
-0.000123063
0.000102995
4.89538e-05
9.38891e-05
4.5894e-05
8.53207e-05
4.31059e-05
7.72374e-05
4.05921e-05
6.95996e-05
3.82957e-05
6.23722e-05
3.61845e-05
5.55256e-05
3.42299e-05
4.90348e-05
3.24063e-05
4.28795e-05
3.06869e-05
3.70455e-05
2.904e-05
3.15265e-05
2.74259e-05
2.63257e-05
2.57951e-05
2.14583e-05
2.40893e-05
1.69528e-05
2.22453e-05
1.28507e-05
2.02012e-05
9.20501e-06
1.7904e-05
6.07724e-06
1.53169e-05
3.53272e-06
1.24249e-05
1.63539e-06
9.23832e-06
4.42419e-07
5.79267e-06
2.14289e-06
0.000112163
6.2717e-05
-0.000122332
0.000102657
5.84595e-05
9.3695e-05
5.48559e-05
8.52449e-05
5.1556e-05
7.72578e-05
4.85792e-05
6.96977e-05
4.58558e-05
6.25325e-05
4.33498e-05
5.57345e-05
4.10279e-05
4.92802e-05
3.88606e-05
4.31503e-05
3.68168e-05
3.73312e-05
3.48591e-05
3.18166e-05
3.29406e-05
2.66099e-05
3.10019e-05
2.17262e-05
2.89729e-05
1.71946e-05
2.67769e-05
1.30578e-05
2.43381e-05
9.37079e-06
2.1591e-05
6.19837e-06
1.84893e-05
3.60992e-06
1.50133e-05
1.67423e-06
1.1174e-05
4.53745e-07
7.01315e-06
2.59664e-06
0.000111863
7.26668e-05
-0.000121813
0.000102544
6.77784e-05
9.37283e-05
6.36715e-05
8.53971e-05
5.98872e-05
7.75046e-05
5.64717e-05
7.00193e-05
5.33411e-05
6.29116e-05
5.04574e-05
5.61561e-05
4.77833e-05
4.97308e-05
4.52859e-05
4.36173e-05
4.29303e-05
3.78024e-05
4.0674e-05
3.22798e-05
3.84632e-05
2.70526e-05
3.6229e-05
2.2136e-05
3.38894e-05
1.75594e-05
3.13536e-05
1.33668e-05
2.85307e-05
9.61629e-06
2.53415e-05
6.3767e-06
2.17289e-05
3.72312e-06
1.76669e-05
1.73105e-06
1.31661e-05
4.70318e-07
8.27388e-06
3.06695e-06
0.000111867
8.23972e-05
-0.000121597
0.000102732
7.69138e-05
9.40561e-05
7.2347e-05
8.58355e-05
6.81077e-05
7.80286e-05
6.42786e-05
7.06083e-05
6.07614e-05
6.35482e-05
5.75176e-05
5.68249e-05
5.45067e-05
5.04176e-05
5.16933e-05
4.43087e-05
4.90392e-05
3.8485e-05
4.64977e-05
3.29399e-05
4.40083e-05
2.76758e-05
4.14931e-05
2.27074e-05
3.88578e-05
1.80644e-05
3.59966e-05
1.37925e-05
3.28026e-05
9.95313e-06
2.91809e-05
6.62071e-06
2.50613e-05
3.87769e-06
2.04099e-05
1.8085e-06
1.52353e-05
4.92855e-07
9.58953e-06
3.55981e-06
0.00011222
9.19194e-05
-0.000121743
0.000103257
8.58772e-05
9.47128e-05
8.08912e-05
8.6595e-05
7.62256e-05
7.88656e-05
7.2008e-05
7.15014e-05
6.81256e-05
6.44783e-05
6.45406e-05
5.77752e-05
6.12098e-05
5.13726e-05
5.80958e-05
4.52538e-05
5.5158e-05
3.94057e-05
5.23458e-05
3.38208e-05
4.95931e-05
2.85007e-05
4.68132e-05
2.34593e-05
4.38993e-05
1.87261e-05
4.07298e-05
1.43488e-05
3.718e-05
1.03928e-05
3.31369e-05
6.93914e-06
2.85149e-05
4.07956e-06
2.32695e-05
1.90988e-06
1.74049e-05
5.22515e-07
1.09769e-05
4.08232e-06
0.000112996
0.000101236
-0.000122313
0.000104183
9.46908e-05
9.5743e-05
8.9331e-05
8.7698e-05
8.42705e-05
8.00196e-05
7.96864e-05
7.26892e-05
7.5456e-05
6.56852e-05
7.15446e-05
5.89872e-05
6.79078e-05
5.25762e-05
6.45069e-05
4.64348e-05
6.12993e-05
4.05493e-05
5.82314e-05
3.49106e-05
5.52318e-05
2.95187e-05
5.22052e-05
2.43859e-05
4.90321e-05
1.95415e-05
4.55742e-05
1.50346e-05
4.16868e-05
1.09354e-05
3.72361e-05
7.33257e-06
3.21177e-05
4.32927e-06
2.62728e-05
2.03533e-06
1.96989e-05
5.59152e-07
1.24531e-05
4.64148e-06
0.000114098
0.000110365
-0.000123226
0.000105416
0.000103373
9.70875e-05
9.76591e-05
8.91236e-05
9.22344e-05
8.15013e-05
8.73088e-05
7.42022e-05
8.27551e-05
6.72083e-05
7.85385e-05
6.05018e-05
7.46142e-05
5.40658e-05
7.09429e-05
4.78841e-05
6.7481e-05
4.19426e-05
6.4173e-05
3.62311e-05
6.09432e-05
3.07475e-05
5.76888e-05
2.5502e-05
5.42775e-05
2.05229e-05
5.05533e-05
1.58606e-05
4.63491e-05
1.15899e-05
4.15069e-05
7.80848e-06
3.58991e-05
4.63254e-06
2.94487e-05
2.18866e-06
2.21428e-05
6.04483e-07
1.40373e-05
5.24596e-06
0.000115792
0.000119248
-0.000124675
0.000107151
0.000112013
9.88291e-05
0.000105981
9.08475e-05
0.000100216
8.32132e-05
9.4943e-05
7.59054e-05
9.00629e-05
6.89012e-05
8.55426e-05
6.21778e-05
8.13377e-05
5.5714e-05
7.74067e-05
4.94909e-05
7.37041e-05
4.34919e-05
7.0172e-05
3.77045e-05
6.67307e-05
3.21234e-05
6.32698e-05
2.67565e-05
5.96445e-05
2.16302e-05
5.56796e-05
1.67961e-05
5.11832e-05
1.23338e-05
4.59691e-05
8.35107e-06
3.98818e-05
4.97901e-06
3.28208e-05
2.36381e-06
2.4758e-05
6.55965e-07
1.57451e-05
5.90192e-06
0.000117545
0.000127853
-0.00012615
0.00010902
0.000120538
0.000100851
0.000114151
9.29535e-05
0.000108113
8.53532e-05
0.000102543
7.80389e-05
9.73773e-05
7.10014e-05
9.25801e-05
6.42265e-05
8.81126e-05
5.76978e-05
8.39354e-05
5.13979e-05
8.0004e-05
4.53096e-05
7.62603e-05
3.94179e-05
7.26223e-05
3.37141e-05
6.89736e-05
2.82016e-05
6.5157e-05
2.2904e-05
6.09772e-05
1.78724e-05
5.62149e-05
1.31908e-05
5.06507e-05
8.9775e-06
4.40952e-05
5.38034e-06
3.6418e-05
2.56795e-06
2.75703e-05
7.16948e-07
1.75961e-05
6.61887e-06
0.000120413
0.000135927
-0.000128487
0.000111437
0.000129514
0.000102923
0.000122665
9.48395e-05
0.000116197
8.7176e-05
0.000110207
7.98572e-05
0.000104696
7.28321e-05
9.96052e-05
6.60645e-05
9.48802e-05
5.95279e-05
9.0472e-05
5.32006e-05
8.63312e-05
4.70634e-05
8.23975e-05
4.10992e-05
7.85865e-05
3.52965e-05
7.47764e-05
2.96554e-05
7.0798e-05
2.41969e-05
6.64357e-05
1.89722e-05
6.14396e-05
1.40703e-05
5.55526e-05
9.62084e-06
4.85446e-05
5.79067e-06
4.02481e-05
2.77368e-06
3.05873e-05
7.76068e-07
1.95937e-05
7.39494e-06
0.000122674
0.000142059
-0.000128806
0.000114541
0.000137647
0.000106213
0.000130993
9.8051e-05
0.000124359
9.02225e-05
0.000118035
8.27345e-05
0.000112184
7.55537e-05
0.000106786
6.86443e-05
0.00010179
6.19754e-05
9.71409e-05
5.55201e-05
9.27865e-05
4.9254e-05
8.86636e-05
4.31543e-05
8.46862e-05
3.72027e-05
8.0728e-05
3.13916e-05
7.66091e-05
2.57346e-05
7.20927e-05
2.02781e-05
6.68961e-05
1.51123e-05
6.07184e-05
1.03772e-05
5.32796e-05
6.26181e-06
4.43636e-05
2.99375e-06
3.38554e-05
8.23799e-07
2.17637e-05
8.21874e-06
8.63143e-06
0.000142548
-9.11984e-06
8.78959e-06
0.000137489
8.67402e-06
0.000131109
8.20997e-06
0.000124823
7.50624e-06
0.000118739
6.63316e-06
0.000113057
5.65313e-06
0.000107766
4.60699e-06
0.000102836
3.52565e-06
9.82222e-05
2.43712e-06
9.3875e-05
1.37273e-06
8.9728e-05
3.71713e-07
8.56873e-05
-5.17156e-07
8.16169e-05
-1.23838e-06
7.73303e-05
-1.73781e-06
7.25921e-05
-1.97492e-06
6.71332e-05
-1.93636e-06
6.06799e-05
-1.64732e-06
5.29906e-05
-1.17774e-06
4.3894e-05
-6.41752e-07
3.33194e-05
-1.91465e-07
2.13134e-05
8.02727e-06
8.18462e-06
0.000144091
-9.72762e-06
7.8644e-06
0.000137809
7.38485e-06
0.000131588
6.8101e-06
0.000125398
6.07776e-06
0.000119471
5.22565e-06
0.000113909
4.29016e-06
0.000108702
3.30293e-06
0.000103823
2.29194e-06
9.92332e-05
1.28511e-06
9.48818e-05
3.14738e-07
9.06984e-05
-5.79365e-07
8.65814e-05
-1.34933e-06
8.23868e-05
-1.94293e-06
7.79239e-05
-2.31159e-06
7.29608e-05
-2.4218e-06
6.72434e-05
-2.26713e-06
6.05252e-05
-1.87833e-06
5.26018e-05
-1.3283e-06
4.3344e-05
-7.31022e-07
3.27221e-05
-2.33065e-07
2.08154e-05
7.79421e-06
8.34459e-06
0.000145596
-9.85016e-06
7.74357e-06
0.00013841
7.04849e-06
0.000132283
6.32323e-06
0.000126123
5.47707e-06
0.000120317
4.55014e-06
0.000114836
3.56939e-06
0.000109682
2.56317e-06
0.000104829
1.5568e-06
0.00010024
5.7658e-07
9.5862e-05
-3.46475e-07
9.16215e-05
-1.17415e-06
8.7409e-05
-1.86145e-06
8.30741e-05
-2.36083e-06
7.84233e-05
-2.63046e-06
7.32304e-05
-2.64486e-06
6.72578e-05
-2.40589e-06
6.02862e-05
-1.95094e-06
5.21468e-05
-1.35668e-06
4.27497e-05
-7.36451e-07
3.21019e-05
-2.31723e-07
2.03107e-05
7.56249e-06
8.57135e-06
0.000146971
-9.94621e-06
7.64814e-06
0.000139333
6.7347e-06
0.000133197
5.843e-06
0.000127015
4.89892e-06
0.000121262
3.92426e-06
0.000115811
2.93071e-06
0.000110676
1.93702e-06
0.000105823
9.62464e-07
0.000101214
3.00363e-08
9.67945e-05
-8.31188e-07
9.24827e-05
-1.5849e-06
8.81628e-05
-2.18897e-06
8.36782e-05
-2.60059e-06
7.88349e-05
-2.78433e-06
7.34141e-05
-2.72243e-06
6.71959e-05
-2.42395e-06
5.99877e-05
-1.93167e-06
5.16546e-05
-1.32352e-06
4.21416e-05
-7.09077e-07
3.14875e-05
-2.20217e-07
1.98218e-05
7.34227e-06
8.72119e-06
0.000148238
-9.98783e-06
7.61905e-06
0.000140436
6.58518e-06
0.000134231
5.58066e-06
0.000128019
4.56698e-06
0.000122275
3.55354e-06
0.000116824
2.54708e-06
0.000111682
1.56106e-06
0.000106809
6.11187e-07
0.000102164
-2.81936e-07
9.76876e-05
-1.09135e-06
9.32921e-05
-1.78318e-06
8.88546e-05
-2.31915e-06
8.42142e-05
-2.66169e-06
7.91775e-05
-2.78238e-06
7.35348e-05
-2.67047e-06
6.7084e-05
-2.34147e-06
5.96587e-05
-1.84119e-06
5.11543e-05
-1.24665e-06
4.1547e-05
-6.60518e-07
3.09013e-05
-2.02815e-07
1.93641e-05
7.13945e-06
8.74942e-06
0.000149455
-9.96641e-06
7.55171e-06
0.000141633
6.44706e-06
0.000135335
5.37381e-06
0.000129092
4.32272e-06
0.000123326
3.29415e-06
0.000117853
2.29254e-06
0.000112684
1.32698e-06
0.000107774
4.10341e-07
0.000103081
-4.39122e-07
9.85371e-05
-1.1965e-06
9.40495e-05
-1.83085e-06
8.9489e-05
-2.30773e-06
8.46911e-05
-2.59525e-06
7.9465e-05
-2.67096e-06
7.36105e-05
-2.53071e-06
6.69437e-05
-2.1939e-06
5.93219e-05
-1.70791e-06
5.06683e-05
-1.14573e-06
4.09848e-05
-6.01953e-07
3.03575e-05
-1.8325e-07
1.89454e-05
6.9562e-06
8.61346e-06
0.000150648
-9.80645e-06
7.38722e-06
0.00014286
6.26185e-06
0.000136461
5.16939e-06
0.000130185
4.11675e-06
0.000124379
3.09963e-06
0.00011887
2.12182e-06
0.000113662
1.19e-06
0.000108706
3.15197e-07
0.000103955
-4.86004e-07
9.93383e-05
-1.19091e-06
9.47544e-05
-1.77132e-06
9.00694e-05
-2.19717e-06
8.51169e-05
-2.44135e-06
7.97092e-05
-2.4875e-06
7.36567e-05
-2.33557e-06
6.67918e-05
-2.00832e-06
5.89947e-05
-1.55147e-06
5.02114e-05
-1.03366e-06
4.0467e-05
-5.39472e-07
2.98634e-05
-1.63225e-07
1.85692e-05
6.79298e-06
8.25817e-06
0.000151815
-9.42478e-06
7.05257e-06
0.000144065
5.94736e-06
0.000137566
4.87814e-06
0.000131254
3.85798e-06
0.000125399
2.88064e-06
0.000119847
1.9494e-06
0.000114593
1.06929e-06
0.000109586
2.50034e-07
0.000104775
-4.9345e-07
0.000100082
-1.14039e-06
9.54013e-05
-1.66575e-06
9.05947e-05
-2.04304e-06
8.54942e-05
-2.25023e-06
7.99163e-05
-2.27488e-06
7.36813e-05
-2.12111e-06
6.6638e-05
-1.81181e-06
5.86854e-05
-1.39141e-06
4.9791e-05
-9.21729e-07
3.99973e-05
-4.78684e-07
2.94203e-05
-1.44127e-07
1.82346e-05
6.64885e-06
7.61223e-06
0.000152929
-8.72696e-06
6.47184e-06
0.000145206
5.42702e-06
0.000138611
4.42122e-06
0.00013226
3.46766e-06
0.000126353
2.55965e-06
0.000120755
1.69983e-06
0.000115453
8.92186e-07
0.000110394
1.45305e-07
0.000105522
-5.27255e-07
0.000100754
-1.10686e-06
9.59809e-05
-1.57106e-06
9.10589e-05
-1.89727e-06
8.58204e-05
-2.06699e-06
8.00861e-05
-2.07188e-06
7.36862e-05
-1.91758e-06
6.64837e-05