/*--------------------------------*- C++ -*----------------------------------*\
| =========                 |                                                 |
| \\      /  F ield         | OpenFOAM Extend Project: Open source CFD        |
|  \\    /   O peration     | Version:  1.6-ext                               |
|   \\  /    A nd           | Web:      www.extend-project.de                 |
|    \\/     M anipulation  |                                                 |
\*---------------------------------------------------------------------------*/
FoamFile
{
    version     2.0;
    format      ascii;
    class       volVectorField;
    location    "0.05";
    object      U;
}
// * * * * * * * * * * * * * * * * * * * * * * * * * * * * * * * * * * * * * //

dimensions      [0 1 -1 0 0 0 0];

internalField   nonuniform List<vector> 
20940
(
(0.721544 0.0157402 0)
(0.734417 0.0152334 2.78018e-22)
(0.750322 0.0144102 3.08511e-22)
(0.766963 0.0133974 0)
(0.784764 0.0123606 0)
(0.80338 0.0111928 -8.4749e-19)
(0.822682 0.00996405 1.85776e-18)
(0.842342 0.00865813 0)
(0.861793 0.0072843 0)
(0.880082 0.00583705 0)
(0.895744 0.00430881 -3.16699e-22)
(0.906727 0.00269212 0)
(0.910381 0.000988425 -3.7254e-19)
(0.903559 -0.000780675 1.19161e-18)
(0.882804 -0.00256173 -1.26475e-18)
(0.844607 -0.00425989 0)
(0.785703 -0.00573435 0)
(0.703332 -0.00679924 0)
(0.595459 -0.00723547 -2.53642e-19)
(0.460884 -0.00681688 -2.61917e-19)
(0.299263 -0.00528816 8.08438e-19)
(0.111047 -0.00227174 -4.42975e-19)
(0.719534 -0.00382586 0)
(0.732146 -0.00436749 -2.26214e-18)
(0.747801 -0.00730719 -1.25505e-18)
(0.7642 -0.0097213 0)
(0.78176 -0.0125153 0)
(0.800133 -0.0154053 0)
(0.819186 -0.0184304 -9.26452e-19)
(0.838576 -0.0215522 0)
(0.857721 -0.0247358 0)
(0.875643 -0.0279309 0)
(0.890858 -0.0310653 -1.28739e-18)
(0.901299 -0.0340376 1.96547e-21)
(0.904324 -0.0367098 3.7092e-19)
(0.896818 -0.0389025 -3.95192e-19)
(0.875387 -0.0403936 2.09292e-18)
(0.83662 -0.0409229 -3.53344e-18)
(0.77737 -0.0402014 1.85538e-18)
(0.695011 -0.0379236 1.45286e-18)
(0.587646 -0.033785 -1.25925e-18)
(0.454207 -0.0275071 1.82335e-18)
(0.294479 -0.0188215 -8.0433e-19)
(0.10905 -0.00737643 0)
(0.71499 -0.0227157 -4.04281e-18)
(0.727329 -0.023283 4.51108e-18)
(0.742492 -0.0283182 3.74985e-18)
(0.758482 -0.0321042 0)
(0.775611 -0.0366432 -4.10915e-21)
(0.793562 -0.0412399 3.36001e-18)
(0.81219 -0.0460512 1.83939e-18)
(0.831151 -0.0509793 2.34913e-21)
(0.849851 -0.0559633 -2.19072e-18)
(0.867302 -0.0608953 0)
(0.882012 -0.0656221 -1.28351e-18)
(0.891916 -0.0699328 4.13911e-18)
(0.894391 -0.0735536 0)
(0.886363 -0.0761491 0)
(0.864505 -0.0773326 0)
(0.825496 -0.0766833 -8.81136e-19)
(0.766298 -0.0737689 5.26079e-22)
(0.684408 -0.0681705 3.38098e-18)
(0.578051 -0.0595063 -2.5116e-18)
(0.446278 -0.0474587 -5.17637e-19)
(0.28898 -0.0317833 -1.16211e-21)
(0.106842 -0.0122353 -4.39414e-19)
(0.708222 -0.0406068 1.00517e-17)
(0.720273 -0.0412124 -4.47804e-18)
(0.734748 -0.0483124 -2.48533e-18)
(0.750188 -0.0534312 1.47467e-22)
(0.766717 -0.0596872 -6.07638e-18)
(0.784082 -0.0659581 -3.33582e-18)
(0.80212 -0.0725287 -5.49642e-18)
(0.820492 -0.0792375 4.00792e-18)
(0.838601 -0.0859993 2.18096e-18)
(0.855459 -0.0926475 -7.08896e-18)
(0.869578 -0.098948 3.82663e-18)
(0.87891 -0.104581 -2.7453e-18)
(0.880861 -0.109138 1.47068e-18)
(0.87241 -0.112131 -1.09436e-21)
(0.850305 -0.113013 -3.32376e-18)
(0.811319 -0.111208 -8.78053e-19)
(0.752524 -0.10615 0)
(0.671531 -0.0973134 0)
(0.566676 -0.0842513 -4.00489e-18)
(0.437109 -0.0666191 6.21488e-18)
(0.282789 -0.0442082 5.33478e-19)
(0.104436 -0.0168842 -1.31724e-18)
(0.699324 -0.0571654 3.99676e-18)
(0.711043 -0.0578124 -4.43875e-18)
(0.724639 -0.0669177 -2.45631e-18)
(0.739385 -0.0733126 -2.73142e-18)
(0.755141 -0.0812387 -3.01547e-18)
(0.771754 -0.0891338 3.32274e-18)
(0.789038 -0.0974215 -3.63921e-18)
(0.806665 -0.105873 9.94173e-18)
(0.824042 -0.114381 6.4992e-18)
(0.840194 -0.122722 -7.04503e-18)
(0.85365 -0.13058 -2.54001e-18)
(0.862389 -0.137529 1.09202e-17)
(0.863863 -0.143029 -7.30869e-18)
(0.855113 -0.146443 6.23477e-18)
(0.832965 -0.147069 -1.00684e-21)
(0.794286 -0.144182 -3.49374e-18)
(0.73625 -0.137086 -1.83682e-18)
(0.65657 -0.125159 6.79459e-22)
(0.553677 -0.107895 3.99222e-18)
(0.426793 -0.084928 -1.03382e-18)
(0.275926 -0.0560833 2.16005e-21)
(0.101808 -0.0213237 0)
(0.688531 -0.0720851 4.85421e-21)
(0.699856 -0.0727641 8.82444e-18)
(0.712395 -0.0837939 1.38786e-20)
(0.726307 -0.0913919 5.4206e-18)
(0.74112 -0.100923 -1.19669e-17)
(0.756816 -0.110374 6.58477e-18)
(0.773177 -0.12032 0)
(0.789899 -0.130461 -3.94859e-18)
(0.806403 -0.140672 -4.01471e-22)
(0.821735 -0.150674 -2.33523e-18)
(0.834456 -0.160076 2.51849e-18)
(0.842589 -0.168347 0)
(0.843642 -0.174821 0)
(0.834725 -0.178714 0)
(0.812745 -0.179173 -3.28985e-18)
(0.77466 -0.175329 3.47638e-18)
(0.717733 -0.166361 3.64997e-18)
(0.639764 -0.151553 -3.82233e-18)
(0.539254 -0.13034 3.97724e-18)
(0.415484 -0.102333 2.05679e-18)
(0.268487 -0.0673877 -3.17989e-18)
(0.0989914 -0.02555 -4.38369e-18)
(0.676057 -0.0850768 1.17429e-17)
(0.686899 -0.085754 -4.36631e-18)
(0.698211 -0.0985944 9.70677e-18)
(0.71115 -0.107293 -5.9517e-21)
(0.72486 -0.118338 -5.92992e-18)
(0.739483 -0.129254 6.52589e-18)
(0.754763 -0.140779 0)
(0.77043 -0.152543 3.91933e-18)
(0.785925 -0.164407 -4.26001e-18)
(0.800332 -0.17604 -9.26173e-18)
(0.812255 -0.18698 5.00331e-18)
(0.819775 -0.196597 -2.69489e-18)
(0.820466 -0.204102 5.77248e-18)
(0.811516 -0.208572 0)
(0.789915 -0.209005 0)
(0.752701 -0.204388 0)
(0.697217 -0.193774 -1.81937e-18)
(0.621328 -0.176352 0)
(0.523591 -0.151494 0)
(0.403318 -0.118786 -2.05381e-18)
(0.260558 -0.0781022 0)
(0.0960197 -0.0295605 8.77524e-19)
(0.662326 -0.0959337 -7.76308e-18)
(0.67261 -0.0965649 0)
(0.682554 -0.111099 0)
(0.694394 -0.120791 -1.06291e-17)
(0.706839 -0.133243 -1.17305e-17)
(0.720226 -0.145515 1.29209e-17)
(0.734252 -0.158519 -7.08873e-18)
(0.748697 -0.171812 0)
(0.763032 -0.185256 8.44877e-18)
(0.776388 -0.198471 4.58109e-18)
(0.78743 -0.210933 0)
(0.79431 -0.221923 2.66188e-18)
(0.794682 -0.230534 -2.86482e-18)
(0.785814 -0.235706 1.2223e-17)
(0.764778 -0.236291 -3.25054e-18)
(0.728688 -0.231132 -6.86677e-18)
(0.674947 -0.219151 1.08386e-17)
(0.601475 -0.199434 0)
(0.506857 -0.171283 0)
(0.390425 -0.134251 0)
(0.252221 -0.0882168 0)
(0.0929232 -0.0333563 -4.38346e-18)
(0.647515 -0.10445 0)
(0.657121 -0.104935 -8.5311e-18)
(0.665548 -0.120977 9.4806e-18)
(0.676179 -0.131492 8.29804e-21)
(0.687229 -0.145199 5.80807e-18)
(0.699257 -0.158688 0)
(0.7119 -0.173053 7.01076e-18)
(0.724993 -0.187781 -1.53353e-17)
(0.738041 -0.202732 8.34834e-18)
(0.750239 -0.217491 -4.54258e-18)
(0.760325 -0.231478 0)
(0.766537 -0.243891 -5.53974e-21)
(0.766619 -0.253715 -8.51192e-18)
(0.757928 -0.259758 3.02656e-18)
(0.737619 -0.260724 -3.22366e-18)
(0.702872 -0.255309 0)
(0.651144 -0.242297 -3.59274e-18)
(0.580384 -0.220661 -1.87941e-18)
(0.489194 -0.189621 0)
(0.376903 -0.148681 2.03367e-18)
(0.243534 -0.0977155 -8.40484e-18)
(0.0897224 -0.0369367 7.89681e-18)
(0.632388 -0.110645 7.55185e-18)
(0.641344 -0.110942 1.26488e-17)
(0.648169 -0.128388 -7.43292e-21)
(0.657498 -0.139622 0)
(0.666986 -0.154435 5.7286e-18)
(0.677476 -0.168976 2.71219e-21)
(0.688536 -0.184529 -6.92114e-18)
(0.700079 -0.200525 7.57422e-18)
(0.711653 -0.216841 -1.23886e-17)
(0.722525 -0.233037 0)
(0.731523 -0.248493 0)
(0.736981 -0.262338 5.22542e-18)
(0.736745 -0.273456 -1.12216e-17)
(0.72827 -0.28053 5.99401e-18)
(0.708791 -0.282116 0)
(0.675551 -0.276754 -3.37678e-18)
(0.626046 -0.263082 0)
(0.558242 -0.23994 1.86992e-18)
(0.470737 -0.206449 0)
(0.362843 -0.162052 -2.02733e-18)
(0.234548 -0.106594 2.09168e-18)
(0.0864355 -0.0403053 0)
(0.616547 -0.114352 -1.49267e-17)
(0.624708 -0.114201 -2.13859e-20)
(0.629795 -0.132653 -4.61908e-18)
(0.637828 -0.144347 3.73356e-21)
(0.645739 -0.160019 0)
(0.654684 -0.175458 0)
(0.664127 -0.19207 -6.82871e-18)
(0.674059 -0.209242 7.46927e-18)
(0.684076 -0.226856 8.14739e-18)
(0.69353 -0.244456 -8.85101e-18)
(0.70135 -0.261392 0)
(0.705984 -0.276737 -5.17076e-18)
(0.705398 -0.289288 1.11004e-17)
(0.697152 -0.297607 -8.90175e-18)
(0.678568 -0.300107 0)
(0.646951 -0.295166 3.35017e-18)
(0.59983 -0.281261 7.06276e-18)
(0.535177 -0.257085 -7.41684e-18)
(0.45157 -0.22164 7.74975e-18)
(0.348289 -0.174284 -1.81303e-17)
(0.225278 -0.114814 4.16868e-18)
(0.0830634 -0.0434519 0)
(0.601801 -0.116114 -7.35413e-18)
(0.609742 -0.115842 8.16541e-18)
(0.61299 -0.135327 0)
(0.619588 -0.147518 1.00798e-17)
(0.625631 -0.163781 -5.55951e-18)
(0.632729 -0.179826 0)
(0.640255 -0.197136 -6.71701e-18)
(0.648289 -0.215134 0)
(0.656478 -0.233725 0)
(0.664264 -0.25246 4.35778e-18)
(0.670682 -0.27068 0)
(0.674305 -0.287419 0)
(0.673223 -0.301402 -5.47096e-18)
(0.665115 -0.311078 0)
(0.647393 -0.314713 0)
(0.617423 -0.310518 0)
(0.57276 -0.296789 0)
(0.511372 -0.27205 0)
(0.431809 -0.235158 0)
(0.333306 -0.18536 2.00352e-18)
(0.215753 -0.122374 3.00723e-21)
(0.0796159 -0.0463822 5.28187e-18)
(0.584736 -0.11521 -7.23231e-18)
(0.592553 -0.113896 -8.0733e-18)
(0.594119 -0.133147 0)
(0.599763 -0.145609 -4.95658e-18)
(0.604361 -0.162209 5.4684e-18)
(0.609939 -0.178913 7.74161e-21)
(0.615784 -0.196984 -6.60671e-18)
(0.622059 -0.215903 7.23641e-18)
(0.628484 -0.235552 -7.89779e-18)
(0.634598 -0.255503 4.28732e-18)
(0.639563 -0.275099 -9.30123e-18)
(0.642095 -0.293358 2.00761e-17)
(0.640432 -0.30895 -5.39176e-18)
(0.632384 -0.320235 0)
(0.615473 -0.325341 0)
(0.587134 -0.32231 6.54354e-18)
(0.544954 -0.309249 -6.91826e-18)
(0.486895 -0.284495 0)
(0.411474 -0.246737 -7.62607e-18)
(0.317875 -0.195086 7.95059e-18)
(0.205937 -0.129158 1.03121e-17)
(0.0760696 -0.049055 -5.28433e-18)
(0.572445 -0.11445 -7.10876e-18)
(0.582226 -0.115144 7.93526e-18)
(0.581154 -0.13389 -1.75993e-17)
(0.584918 -0.146668 4.86229e-18)
(0.587288 -0.162701 5.3741e-18)
(0.590601 -0.179202 1.77599e-17)
(0.59417 -0.197099 -1.29961e-17)
(0.598159 -0.21607 -4.04223e-21)
(0.602351 -0.235992 7.75753e-18)
(0.606369 -0.256478 8.19774e-21)
(0.609492 -0.276887 -4.56627e-18)
(0.61058 -0.296239 -9.8733e-18)
(0.608023 -0.313169 -5.31541e-18)
(0.599773 -0.325954 1.13835e-17)
(0.583465 -0.332587 0)
(0.556608 -0.330931 -3.22655e-18)
(0.516817 -0.318883 -3.41479e-18)
(0.462042 -0.294561 -7.20022e-18)
(0.390764 -0.256452 7.55256e-18)
(0.302109 -0.203499 0)
(0.195873 -0.135182 -8.19228e-18)
(0.0724323 -0.0514793 7.05141e-18)
(0.546048 -0.10433 2.67901e-21)
(0.56198 -0.106352 7.7855e-18)
(0.561956 -0.121792 -1.72832e-17)
(0.565301 -0.135681 2.22419e-21)
(0.567015 -0.151909 0)
(0.569059 -0.169217 -3.45265e-21)
(0.571156 -0.187896 -6.37316e-18)
(0.57347 -0.207774 0)
(0.575886 -0.22871 0)
(0.57812 -0.250359 1.65702e-17)
(0.579582 -0.27212 4.49499e-18)
(0.579286 -0.293038 2.3656e-21)
(0.575798 -0.311743 -1.56611e-17)
(0.567239 -0.326455 5.59746e-18)
(0.551393 -0.335062 -3.39002e-21)
(0.525875 -0.335258 -6.35738e-18)
(0.488356 -0.324741 6.74392e-18)
(0.436799 -0.301412 -7.10972e-18)
(0.369648 -0.263555 3.73587e-18)
(0.285974 -0.209953 0)
(0.185522 -0.139962 -8.12369e-18)
(0.0686681 -0.0534398 1.40971e-17)
(0.556373 -0.104996 3.69558e-18)
(0.561046 -0.118838 1.23159e-17)
(0.559037 -0.12769 1.14454e-20)
(0.559003 -0.140636 1.00588e-17)
(0.557915 -0.155301 0)
(0.557221 -0.171634 0)
(0.556571 -0.189494 6.67315e-18)
(0.556105 -0.208735 -1.45727e-17)
(0.555692 -0.229179 0)
(0.55507 -0.250474 8.62079e-18)
(0.553697 -0.272009 -1.4003e-17)
(0.550677 -0.292816 1.00677e-17)
(0.544711 -0.311511 0)
(0.534111 -0.326292 -5.79058e-18)
(0.516888 -0.335018 -7.11924e-21)
(0.490912 -0.335351 9.82666e-18)
(0.454114 -0.32495 3.46152e-18)
(0.404688 -0.301675 0)
(0.341279 -0.26378 1.52178e-17)
(0.263106 -0.21005 -1.89816e-22)
(0.170049 -0.139878 -6.14632e-18)
(0.0626586 -0.0532256 1.76458e-18)
(0.552266 -0.098577 -1.12906e-17)
(0.54499 -0.114347 -4.18133e-18)
(0.542561 -0.124144 9.25162e-18)
(0.540234 -0.138927 -1.02109e-17)
(0.538053 -0.154279 -1.12583e-17)
(0.536044 -0.171379 6.1833e-18)
(0.534019 -0.189792 0)
(0.531984 -0.209494 2.22234e-17)
(0.529783 -0.230257 -1.61354e-17)
(0.527126 -0.251684 -8.7675e-18)
(0.523473 -0.273097 4.73703e-18)
(0.517976 -0.293466 1.53183e-17)
(0.509452 -0.311371 -1.09704e-17)
(0.496417 -0.325028 1.17317e-17)
(0.477186 -0.332379 -1.56211e-17)
(0.450016 -0.331241 6.62434e-18)
(0.413281 -0.319489 0)
(0.365639 -0.295237 -3.67252e-18)
(0.306166 -0.257 3.8336e-18)
(0.234437 -0.203799 7.97203e-18)
(0.150565 -0.135194 -1.23598e-17)
(0.0551809 -0.0511952 -8.81565e-18)
(0.543389 -0.100453 7.63899e-18)
(0.533112 -0.115772 -8.48374e-18)
(0.530959 -0.126364 4.70441e-18)
(0.526285 -0.141108 1.55861e-17)
(0.522438 -0.156066 5.72672e-18)
(0.518275 -0.172836 0)
(0.514091 -0.190828 0)
(0.509739 -0.210103 -1.50611e-17)
(0.505094 -0.23037 8.19324e-18)
(0.499851 -0.251195 0)
(0.493493 -0.271845 0)
(0.485238 -0.291248 -5.18284e-18)
(0.474037 -0.307974 -5.55904e-18)
(0.458619 -0.320275 1.188e-17)
(0.437585 -0.326191 -3.15828e-18)
(0.409543 -0.323695 3.34559e-18)
(0.373247 -0.310858 0)
(0.327731 -0.286024 -3.70267e-18)
(0.272401 -0.247931 -7.72352e-18)
(0.207082 -0.195814 1.6033e-17)
(0.132061 -0.129386 -1.24118e-17)
(0.0480766 -0.0487264 8.79198e-18)
(0.530814 -0.0988459 6.95005e-21)
(0.519349 -0.112631 3.91842e-21)
(0.516357 -0.124105 4.77227e-18)
(0.509807 -0.138724 -1.05578e-17)
(0.504509 -0.15364 0)
(0.498512 -0.170234 -6.3844e-18)
(0.492446 -0.187937 -6.99989e-18)
(0.486013 -0.206833 -5.52125e-21)
(0.479131 -0.226598 8.31366e-18)
(0.471492 -0.246774 0)
(0.462626 -0.266597 -9.75008e-18)
(0.45184 -0.284982 1.04931e-17)
(0.438238 -0.300519 -5.62409e-18)
(0.420769 -0.311527 0)
(0.398317 -0.316166 -9.5779e-18)
(0.36981 -0.312576 1.01338e-17)
(0.334338 -0.299032 -7.11482e-18)
(0.291252 -0.27409 0)
(0.24022 -0.236696 7.7684e-18)
(0.181251 -0.186266 2.01208e-18)
(0.114741 -0.122637 -1.03779e-17)
(0.0414848 -0.0459539 -1.75394e-18)
(0.517868 -0.0964502 -3.94335e-18)
(0.506255 -0.109 4.37155e-18)
(0.502038 -0.120756 0)
(0.493926 -0.134748 0)
(0.487013 -0.149243 0)
(0.479116 -0.165244 -1.8013e-23)
(0.471047 -0.182311 -6.07262e-21)
(0.462438 -0.200494 1.16152e-17)
(0.453249 -0.219456 0)
(0.443187 -0.238718 -4.56671e-18)
(0.431843 -0.257499 0)
(0.418627 -0.274721 5.30971e-18)
(0.402803 -0.289013 -5.68567e-18)
(0.383537 -0.298781 6.06799e-18)
(0.359972 -0.302316 1.28902e-17)
(0.331327 -0.297927 2.23218e-22)
(0.296978 -0.284083 -3.58409e-18)
(0.256529 -0.259534 0)
(0.209852 -0.223406 1.95079e-18)
(0.15708 -0.175263 -2.0213e-18)
(0.0986716 -0.115038 0)
(0.0354262 -0.0429222 0)
(0.505189 -0.0921422 1.19766e-17)
(0.493404 -0.103455 0)
(0.487648 -0.114976 0)
(0.478167 -0.128144 0)
(0.469622 -0.14201 0)
(0.45993 -0.157207 -6.56317e-18)
(0.449912 -0.17343 -3.59886e-18)
(0.439193 -0.190677 7.83884e-18)
(0.427757 -0.208617 4.27014e-18)
(0.415348 -0.226763 -4.61812e-18)
(0.401629 -0.244339 0)
(0.386131 -0.260299 2.68163e-18)
(0.368281 -0.273336 0)
(0.347456 -0.281962 -6.12376e-18)
(0.323047 -0.284611 6.49466e-18)
(0.294524 -0.279759 3.42952e-18)
(0.261507 -0.266055 1.80163e-18)
(0.223808 -0.242425 -7.5367e-18)
(0.181447 -0.208143 -1.95991e-18)
(0.134638 -0.162887 0)
(0.0838614 -0.106653 0)
(0.0298898 -0.0396565 -7.83274e-18)
(0.493269 -0.0861957 -1.21352e-17)
(0.481241 -0.0963053 4.48804e-18)
(0.473906 -0.107172 0)
(0.463179 -0.119284 0)
(0.453012 -0.132211 6.05312e-18)
(0.441598 -0.146313 -6.63448e-18)
(0.429671 -0.161402 7.27177e-18)
(0.416895 -0.177431 -1.18975e-17)
(0.403271 -0.194087 4.31357e-18)
(0.388592 -0.210886 4.66874e-18)
(0.372606 -0.227084 0)
(0.354964 -0.241684 -5.41455e-18)
(0.335262 -0.253469 0)
(0.31308 -0.26107 -6.17123e-18)
(0.288029 -0.263069 3.26964e-18)
(0.259807 -0.258109 -3.45251e-18)
(0.228237 -0.245004 1.81218e-18)
(0.193297 -0.222825 -1.89137e-18)
(0.155117 -0.19097 -7.86084e-18)
(0.113957 -0.149191 8.12146e-18)
(0.0702947 -0.0975217 2.08531e-18)
(0.0248553 -0.0361697 8.67367e-19)
(0.482333 -0.0785603 8.18879e-18)
(0.469992 -0.0873998 -9.07847e-18)
(0.461134 -0.097292 5.03172e-18)
(0.449263 -0.108145 -5.54948e-18)
(0.437553 -0.119855 6.11855e-18)
(0.424528 -0.132597 5.95375e-21)
(0.410787 -0.146272 -3.67452e-18)
(0.396055 -0.160805 0)
(0.380342 -0.175911 0)
(0.363503 -0.191131 4.71135e-18)
(0.345372 -0.205772 -7.6217e-18)
(0.325727 -0.218916 8.18895e-18)
(0.304328 -0.229451 -8.75267e-18)
(0.280944 -0.236144 0)
(0.25539 -0.237732 -3.28985e-18)
(0.227561 -0.233017 0)
(0.197453 -0.220963 -7.27737e-18)
(0.165179 -0.200765 9.49206e-18)
(0.130951 -0.17191 -7.88014e-18)
(0.0950538 -0.134195 4.39828e-22)
(0.0579465 -0.0876548 6.26101e-18)
(0.0203 -0.0324633 8.63689e-19)
(0.472599 -0.0693516 7.39911e-21)
(0.459956 -0.0768472 -9.16521e-18)
(0.449709 -0.0855197 5.0759e-18)
(0.436805 -0.0949179 5.35503e-21)
(0.423673 -0.105145 -1.23462e-17)
(0.409163 -0.116265 -3.39387e-18)
(0.393732 -0.12824 -6.78667e-21)
(0.377168 -0.140991 1.61632e-17)
(0.359495 -0.154271 -4.38508e-18)
(0.340628 -0.167668 -7.12618e-18)
(0.32049 -0.180561 7.68234e-18)
(0.298984 -0.192133 -5.49481e-18)
(0.276023 -0.201402 -6.22864e-22)
(0.251553 -0.207284 6.24695e-18)
(0.225571 -0.208673 3.30802e-18)
(0.198146 -0.204529 -6.9681e-18)
(0.169422 -0.19395 1.46057e-17)
(0.139624 -0.176238 -1.52274e-17)
(0.10903 -0.150939 5.9219e-18)
(0.0779386 -0.117868 -8.14192e-18)
(0.0467897 -0.0770275 1.77442e-17)
(0.0162017 -0.0285249 -6.933e-22)
(0.464169 -0.0589025 -1.24963e-17)
(0.451249 -0.0649591 4.62388e-18)
(0.439754 -0.0722019 -7.68213e-18)
(0.425917 -0.0799537 8.48174e-18)
(0.411497 -0.088451 -3.11114e-18)
(0.395637 -0.0976926 1.02494e-17)
(0.378663 -0.107688 -1.12034e-17)
(0.360424 -0.118369 2.03428e-18)
(0.340955 -0.12954 0)
(0.320234 -0.140854 -1.10588e-21)
(0.298266 -0.151785 -2.57584e-18)
(0.275069 -0.16164 0)
(0.250698 -0.169584 -4.42878e-18)
(0.225253 -0.174697 0)
(0.198893 -0.17604 6.6422e-18)
(0.171835 -0.172727 -1.39845e-17)
(0.144355 -0.163986 -2.15159e-22)
(0.116771 -0.149208 7.62991e-18)
(0.0894211 -0.127982 1.97697e-18)
(0.0626186 -0.100118 0)
(0.0367956 -0.0655598 6.26211e-18)
(0.0125375 -0.0243163 -8.58681e-19)
(0.456546 -0.0473015 8.3991e-18)
(0.443324 -0.0518892 -4.65778e-18)
(0.43065 -0.0575857 7.73396e-18)
(0.415915 -0.0635753 2.85017e-18)
(0.400295 -0.0701764 -3.12903e-18)
(0.383192 -0.0773523 3.43995e-18)
(0.364825 -0.0851488 -5.63719e-18)
(0.345103 -0.0935219 2.04881e-18)
(0.32407 -0.102334 -4.44903e-18)
(0.301759 -0.11132 4.80712e-18)
(0.278245 -0.12007 9.39392e-22)
(0.253642 -0.128035 0)
(0.228121 -0.134547 1.48291e-18)
(0.201912 -0.138864 0)
(0.175302 -0.140224 0)
(0.148634 -0.137898 0)
(0.122288 -0.131244 7.33994e-18)
(0.0966656 -0.119741 -7.64234e-18)
(0.0721576 -0.103016 -9.89182e-19)
(0.0491027 -0.0808651 0)
(0.0279499 -0.053161 2.94278e-22)
(0.00929257 -0.0197902 0)
(0.447157 -0.035604 0)
(0.433336 -0.0386936 -2.34353e-18)
(0.419327 -0.0427295 0)
(0.403563 -0.0468399 2.46611e-21)
(0.386729 -0.0513902 -3.15002e-18)
(0.368467 -0.0563339 5.18796e-18)
(0.348912 -0.0617416 -1.88783e-18)
(0.328022 -0.0675984 2.05874e-18)
(0.305854 -0.0738271 -4.47118e-18)
(0.282471 -0.0802539 -2.41949e-18)
(0.257995 -0.0865957 1.30065e-17)
(0.232601 -0.0924603 -4.18173e-18)
(0.206535 -0.0973618 0)
(0.180111 -0.10075 0)
(0.153706 -0.10205 0)
(0.127744 -0.100702 8.78406e-19)
(0.10268 -0.096197 9.19021e-19)
(0.0789761 -0.0881106 0)
(0.057065 -0.076123 -2.96976e-18)
(0.0373146 -0.0600326 4.07651e-18)
(0.0202208 -0.0396697 5.21784e-19)
(0.00645062 -0.0148249 4.26802e-19)
(0.426531 -0.0233716 0)
(0.411644 -0.0251357 3.53434e-18)
(0.396025 -0.0276226 0)
(0.379111 -0.0299991 1.43988e-18)
(0.361185 -0.0326242 3.16908e-18)
(0.342101 -0.0354584 -5.20897e-18)
(0.321941 -0.0385777 -9.4918e-19)
(0.300699 -0.0419911 -1.03439e-18)
(0.27842 -0.0456735 -4.48953e-18)
(0.255174 -0.0495378 1.09137e-17)
(0.231077 -0.0534266 -6.52472e-18)
(0.206314 -0.0571086 -1.399e-18)
(0.181139 -0.0602854 7.46127e-19)
(0.155883 -0.0626074 0)
(0.130944 -0.0636957 0)
(0.106769 -0.0631675 2.64027e-18)
(0.0838316 -0.0606612 -4.60169e-18)
(0.0626123 -0.0558602 3.35077e-18)
(0.0435552 -0.048517 -3.962e-18)
(0.0270378 -0.0384704 -3.56689e-18)
(0.013605 -0.0255647 8.86473e-18)
(0.00404467 -0.00957777 -3.83407e-18)
(0.367158 -0.0136897 0)
(0.351419 -0.0144023 -5.91778e-19)
(0.334836 -0.01532 -2.62087e-18)
(0.31774 -0.0160062 7.18853e-19)
(0.300103 -0.0167562 3.17795e-18)
(0.281919 -0.0175716 -8.71757e-19)
(0.263216 -0.0185126 9.52996e-19)
(0.243982 -0.0195974 3.11485e-18)
(0.224228 -0.0208306 -9.00662e-18)
(0.203977 -0.0221896 3.64799e-18)
(0.183291 -0.0236209 1.3093e-18)
(0.162289 -0.0250365 2.80601e-18)
(0.141154 -0.0263142 -7.46962e-19)
(0.120141 -0.0273009 -6.35209e-18)
(0.0995728 -0.0278192 3.77382e-18)
(0.0798273 -0.0276752 4.40739e-19)
(0.0613173 -0.0266685 0)
(0.0444704 -0.0246065 4.79076e-19)
(0.0296875 -0.0213324 3.96339e-18)
(0.0173032 -0.0167611 -8.6626e-18)
(0.00781554 -0.0108657 4.45907e-22)
(0.0020516 -0.00374164 3.40268e-18)
(0.202199 -0.00204724 4.16975e-18)
(0.191079 -0.00228242 -5.74271e-19)
(0.179352 -0.002425 3.91996e-21)
(0.167796 -0.0024299 -2.10272e-18)
(0.15636 -0.00242624 0)
(0.145081 -0.00243344 8.42737e-19)
(0.133946 -0.00247566 1.83861e-18)
(0.122918 -0.00256273 -3.99341e-18)
(0.111962 -0.00270179 4.32294e-18)
(0.101042 -0.0028954 -2.32996e-18)
(0.0901384 -0.00314122 0)
(0.0792576 -0.00343054 0)
(0.0684386 -0.00374696 2.8511e-18)
(0.0577611 -0.00406507 -3.02087e-18)
(0.0473484 -0.00434887 2.79057e-18)
(0.0373673 -0.00454996 -7.1156e-18)
(0.0280257 -0.00460566 3.49889e-18)
(0.0195695 -0.00443948 3.55278e-21)
(0.0122656 -0.00397106 -3.675e-21)
(0.00637103 -0.00313861 -3.8686e-18)
(0.00223818 -0.00191652 3.97316e-18)
(0.000391799 -0.000428385 6.37928e-21)
(0.43722 0.00781086 0)
(0.417653 0.00858715 0)
(0.397844 0.00948028 -2.54108e-24)
(0.377464 0.0104164 -7.32382e-19)
(0.356546 0.0113987 8.04129e-19)
(0.335017 0.0124193 8.79119e-19)
(0.312866 0.013474 0)
(0.290092 0.0145584 5.20374e-19)
(0.26671 0.0156654 3.53071e-23)
(0.242759 0.0167825 1.62108e-22)
(0.218303 0.0178873 6.52652e-19)
(0.193446 0.0189421 -1.24456e-22)
(0.168345 0.0198882 -1.85908e-18)
(0.143233 0.0206422 7.88439e-19)
(0.118431 0.0210937 8.31866e-19)
(0.0943659 0.0211079 -8.73504e-19)
(0.0715685 0.0205318 9.12563e-19)
(0.0506722 0.0192043 -1.18558e-18)
(0.032363 0.0169692 -2.45147e-19)
(0.017327 0.013689 0)
(0.00652995 0.00924857 0)
(0.00124512 0.00356397 0)
(0.439024 0.0333086 -1.08622e-18)
(0.419478 0.0349055 2.41514e-18)
(0.399917 0.0368997 -9.30658e-22)
(0.379746 0.039114 0)
(0.359071 0.041562 -8.03348e-19)
(0.337793 0.0442101 0)
(0.3159 0.0470355 0)
(0.293388 0.0500144 -5.20252e-19)
(0.270271 0.0531169 -1.6893e-18)
(0.246583 0.0562968 -6.07052e-19)
(0.222383 0.0594769 1.30475e-18)
(0.197768 0.0625319 -1.39601e-18)
(0.172881 0.0652706 2.60149e-18)
(0.147937 0.0674221 -7.88346e-19)
(0.123233 0.068631 1.66312e-18)
(0.0991661 0.068464 8.72932e-19)
(0.0762337 0.0664307 -1.36851e-18)
(0.0550329 0.0620145 -1.65937e-18)
(0.0362147 0.054714 2.20597e-18)
(0.0204335 0.0440866 5.04104e-19)
(0.00862972 0.0297618 -2.06372e-18)
(0.00205996 0.0114674 -1.19193e-22)
(0.442994 0.0566304 4.34372e-18)
(0.423665 0.0592484 2.40783e-18)
(0.404698 0.0625196 -3.98634e-18)
(0.384981 0.0661823 2.44216e-21)
(0.364792 0.070238 1.60452e-18)
(0.343993 0.0746313 3.50667e-18)
(0.322586 0.0793215 1.91026e-18)
(0.300562 0.0842689 0)
(0.277937 0.0894236 1.12414e-18)
(0.254738 0.094709 1.21249e-18)
(0.231016 0.0999969 0)
(0.206848 0.105079 1.39284e-18)
(0.182355 0.109636 -7.42206e-19)
(0.157712 0.113215 2.36014e-18)
(0.133168 0.115221 -4.1516e-18)
(0.109058 0.114927 -4.79113e-22)
(0.0858118 0.11151 -4.55694e-19)
(0.0639556 0.104099 0)
(0.044071 0.0918513 0)
(0.0267505 0.0740192 -2.82719e-22)
(0.0128868 0.0499762 0)
(0.00370863 0.0192602 1.67994e-18)
(0.44861 0.0797485 -2.16356e-18)
(0.429564 0.0833144 0)
(0.411477 0.0877118 -2.06339e-21)
(0.392449 0.0926843 -2.91191e-18)
(0.37301 0.0982074 1.59485e-18)
(0.352956 0.104213 -2.14544e-21)
(0.332303 0.110644 -5.71288e-18)
(0.311038 0.117446 0)
(0.289173 0.124549 2.23909e-18)
(0.26673 0.131847 -4.83213e-18)
(0.243743 0.139163 5.19346e-18)
(0.220267 0.146208 -2.77808e-18)
(0.196382 0.152539 1.48037e-18)
(0.172208 0.157527 -4.70816e-18)
(0.14792 0.16034 8.2865e-19)
(0.123765 0.159966 4.34968e-18)
(0.10007 0.155252 -3.63794e-18)
(0.077253 0.14498 -9.45298e-19)
(0.0557909 0.127967 -3.91333e-18)
(0.0361832 0.103161 5.02404e-19)
(0.0192493 0.0696786 9.27419e-18)
(0.00617452 0.0268638 -6.30228e-18)
(0.455899 0.100941 8.60606e-18)
(0.437267 0.10553 4.77106e-18)
(0.420348 0.11105 0)
(0.402233 0.11734 0)
(0.383784 0.12432 0)
(0.364709 0.131917 -3.47317e-18)
(0.345047 0.140057 0)
(0.32478 0.148671 -8.23293e-18)
(0.303917 0.157676 -4.45773e-18)
(0.282468 0.166938 4.81237e-18)
(0.260453 0.176236 -2.58419e-18)
(0.237892 0.185207 -1.38158e-18)
(0.214816 0.193292 4.42234e-18)
(0.191272 0.199694 3.12809e-18)
(0.167338 0.203359 -6.60583e-18)
(0.14314 0.202993 5.20552e-18)
(0.11887 0.197124 3.62875e-18)
(0.0948022 0.184192 -2.83062e-18)
(0.0712728 0.162675 0)
(0.0486554 0.131221 3.01566e-18)
(0.0276695 0.0886854 -6.17649e-18)
(0.00944061 0.034212 -4.206e-19)
(0.46471 0.120482 -1.28154e-17)
(0.446597 0.126079 2.33954e-22)
(0.431104 0.132608 5.22076e-18)
(0.414103 0.140122 -1.15053e-17)
(0.396868 0.14845 3.1599e-18)
(0.378995 0.157529 1.38066e-17)
(0.360552 0.167267 -3.97491e-21)
(0.341515 0.177587 -4.09217e-18)
(0.321886 0.188388 -2.21261e-18)
(0.301668 0.199517 -4.78299e-18)
(0.280857 0.210712 2.57382e-18)
(0.259435 0.221543 2.75522e-18)
(0.237373 0.231347 2.93327e-18)
(0.214627 0.239167 1.5542e-18)
(0.191157 0.243736 0)
(0.16694 0.243494 0)
(0.141997 0.236655 9.04055e-18)
(0.116422 0.221324 -1.50559e-17)
(0.0903736 0.195641 9.74122e-18)
(0.0640651 0.157951 0)
(0.0380873 0.106845 1.02869e-18)
(0.0134868 0.0412529 3.36618e-18)
(0.474844 0.137674 -4.95358e-22)
(0.457372 0.144309 4.70349e-18)
(0.443546 0.151775 -5.18794e-18)
(0.427847 0.160454 0)
(0.412037 0.170049 -3.12575e-18)
(0.395573 0.180518 -3.422e-18)
(0.378559 0.191753 1.494e-17)
(0.360964 0.20367 -8.1231e-18)
(0.342788 0.216159 1.31991e-17)
(0.324019 0.229049 -9.49956e-18)
(0.304632 0.242048 5.106e-18)
(0.284566 0.25467 2.73141e-18)
(0.26372 0.266155 -1.03333e-21)
(0.241948 0.275405 -1.54821e-17)
(0.219068 0.280954 9.81363e-18)
(0.19488 0.280985 0)
(0.169201 0.273411 -1.80195e-18)
(0.141904 0.256002 -5.62709e-18)
(0.112934 0.226566 5.82686e-18)
(0.0823033 0.183135 0)
(0.0504425 0.124027 0)
(0.0182947 0.047944 0)
(0.486088 0.152401 4.191e-18)
(0.469368 0.160043 -4.65559e-18)
(0.457404 0.16831 0)
(0.443159 0.178039 0)
(0.428943 0.188767 -6.19541e-18)
(0.414059 0.200495 6.78383e-18)
(0.398657 0.213093 3.69642e-18)
(0.382694 0.226475 0)
(0.366169 0.240523 0)
(0.349057 0.255054 4.70917e-18)
(0.331307 0.269751 -1.01285e-17)
(0.312812 0.284083 -2.71446e-18)
(0.293393 0.297211 5.78766e-18)
(0.272788 0.307911 -6.14903e-18)
(0.250653 0.314533 -6.50128e-18)
(0.226584 0.315019 3.41841e-18)
(0.200158 0.306989 -1.79005e-18)
(0.170989 0.287886 -2.94436e-21)
(0.138759 0.255178 5.80858e-18)
(0.103243 0.206579 -7.98567e-18)
(0.0646686 0.140117 2.04683e-18)
(0.0238458 0.0542491 7.59203e-18)
(0.498064 0.164343 0)
(0.48222 0.173021 0)
(0.472304 0.18201 5.07032e-18)
(0.459677 0.192717 -1.11636e-17)
(0.447236 0.204462 6.12805e-18)
(0.434106 0.217311 0)
(0.420491 0.231117 -1.09728e-17)
(0.406337 0.245799 7.95796e-18)
(0.391641 0.26124 1.29315e-17)
(0.376371 0.277252 -4.65622e-18)
(0.36045 0.293506 0)
(0.343725 0.309439 0)
(0.325938 0.32415 0)
(0.3067 0.336306 0)
(0.285488 0.344095 6.45113e-18)
(0.261667 0.345233 -3.40008e-18)
(0.234539 0.337059 1.7819e-18)
(0.203411 0.316689 -1.85848e-18)
(0.167658 0.281249 1.92858e-18)
(0.126765 0.22812 0)
(0.0807107 0.155024 -2.04499e-18)
(0.0301286 0.0601418 8.42662e-19)
(0.510598 0.173407 1.63534e-17)
(0.495737 0.183008 0)
(0.487928 0.19249 0)
(0.476959 0.203999 0)
(0.466346 0.216589 0)
(0.455052 0.230408 -6.60997e-18)
(0.443336 0.245278 -1.44309e-17)
(0.431131 0.261121 3.88931e-21)
(0.418429 0.277816 4.25682e-18)
(0.405185 0.295175 -4.59764e-18)
(0.391296 0.312864 9.90716e-18)
(0.376562 0.330303 -1.06286e-17)
(0.36064 0.346546 -2.83528e-18)
(0.343009 0.360178 0)
(0.322953 0.369245 -3.19922e-18)
(0.29958 0.371258 0)
(0.271879 0.363285 7.0691e-18)
(0.238804 0.342122 -7.38052e-18)
(0.199368 0.304544 1.9147e-18)
(0.152706 0.247586 0)
(0.0984906 0.168641 0)
(0.037125 0.0655877 -1.69427e-18)
(0.522976 0.179468 -1.61119e-17)
(0.509309 0.190271 -8.93282e-18)
(0.503805 0.20032 0)
(0.494756 0.21262 2.42518e-21)
(0.486178 0.225908 -5.95657e-18)
(0.476892 0.24048 7.57356e-21)
(0.467207 0.256158 1.6536e-20)
(0.457059 0.272891 1.54771e-17)
(0.446452 0.290575 8.39475e-18)
(0.435339 0.30903 9.07309e-18)
(0.423605 0.327931 -9.77904e-18)
(0.411009 0.346693 0)
(0.397131 0.364347 2.80625e-18)
(0.381314 0.379415 -8.95463e-18)
(0.362639 0.389825 1.26529e-17)
(0.339933 0.392905 -3.33366e-18)
(0.311833 0.385468 0)
(0.276892 0.363992 3.65857e-18)
(0.233692 0.324895 5.71117e-18)
(0.180954 0.264848 -1.77324e-17)
(0.117969 0.18089 8.11373e-18)
(0.0448349 0.0705659 0)
(0.535662 0.182388 7.91649e-18)
(0.523204 0.193923 1.26104e-20)
(0.519496 0.204009 9.70077e-18)
(0.51204 0.216851 -5.32027e-18)
(0.505247 0.230727 -5.84937e-18)
(0.497906 0.24601 -6.40659e-18)
(0.490305 0.262468 2.09903e-17)
(0.482355 0.28005 -7.62158e-18)
(0.474032 0.298653 0)
(0.465271 0.318115 4.4616e-18)
(0.455934 0.338127 -1.92594e-17)
(0.445741 0.358121 1.03418e-17)
(0.434197 0.377128 5.5245e-18)
(0.420513 0.393639 -2.94852e-18)
(0.403559 0.405493 -3.12144e-18)
(0.381867 0.409861 6.60003e-18)
(0.353683 0.40332 1.04108e-17)
(0.317104 0.38204 -1.45289e-17)
(0.270216 0.342076 7.55943e-18)
(0.211244 0.279721 -7.82786e-18)
(0.139013 0.191642 -8.07421e-18)
(0.0532246 0.0750276 -4.39664e-22)
(0.546448 0.182426 -1.55817e-17)
(0.536454 0.196606 0)
(0.53532 0.207346 -9.51752e-18)
(0.530322 0.220631 3.14315e-17)
(0.525666 0.234632 5.75366e-18)
(0.520384 0.250032 6.29082e-18)
(0.514807 0.266682 -6.88542e-18)
(0.508923 0.284572 0)
(0.502741 0.303614 0)
(0.496212 0.323657 4.38676e-18)
(0.489194 0.344406 0)
(0.481385 0.365312 0)
(0.472224 0.385422 -1.09e-17)