/*--------------------------------*- C++ -*----------------------------------*\
| =========                 |                                                 |
| \\      /  F ield         | OpenFOAM Extend Project: Open source CFD        |
|  \\    /   O peration     | Version:  1.6-ext                               |
|   \\  /    A nd           | Web:      www.extend-project.de                 |
|    \\/     M anipulation  |                                                 |
\*---------------------------------------------------------------------------*/
FoamFile
{
    version     2.0;
    format      ascii;
    class       volVectorField;
    location    "0.05";
    object      U_0;
}
// * * * * * * * * * * * * * * * * * * * * * * * * * * * * * * * * * * * * * //

dimensions      [0 1 -1 0 0 0 0];

internalField   nonuniform List<vector> 
20940
(
(0.698236 0.0149743 0)
(0.710627 0.0144836 2.77952e-22)
(0.726001 0.0136463 3.08442e-22)
(0.742081 0.0126401 0)
(0.759286 0.0116008 0)
(0.777286 0.0104352 -8.47352e-19)
(0.795965 0.00920746 1.85746e-18)
(0.815021 0.00790427 0)
(0.83393 0.00653582 0)
(0.8518 0.00509942 0)
(0.867247 0.00359107 -3.16673e-22)
(0.878311 0.00200736 0)
(0.88244 0.000353404 -3.72529e-19)
(0.876574 -0.00134693 1.19161e-18)
(0.857319 -0.00304032 -1.26477e-18)
(0.8212 -0.00463516 0)
(0.764939 -0.0059972 0)
(0.685724 -0.00695024 0)
(0.581428 -0.0072869 -2.53671e-19)
(0.450728 -0.00679319 -2.61952e-19)
(0.293145 -0.00522902 8.0856e-19)
(0.10899 -0.002239 -4.4305e-19)
(0.696254 -0.00395635 0)
(0.708391 -0.00443937 -2.26164e-18)
(0.723518 -0.00733731 -1.25479e-18)
(0.739359 -0.00969258 0)
(0.756328 -0.012432 0)
(0.774089 -0.0152626 0)
(0.792524 -0.0182284 -9.2634e-19)
(0.811319 -0.0212903 0)
(0.829936 -0.0244147 0)
(0.847461 -0.0275518 0)
(0.862491 -0.0306301 -1.28739e-18)
(0.873055 -0.033549 1.94626e-21)
(0.876605 -0.0361717 3.70938e-19)
(0.87011 -0.0383208 -3.95222e-19)
(0.850236 -0.0397775 2.09316e-18)
(0.813595 -0.0402859 -3.53388e-18)
(0.75702 -0.0395624 1.85563e-18)
(0.677826 -0.0373081 1.4531e-18)
(0.574015 -0.0332251 -1.25946e-18)
(0.444393 -0.0270408 1.82366e-18)
(0.288602 -0.0184958 -8.04469e-19)
(0.107091 -0.00725516 0)
(0.691829 -0.0222287 -4.04187e-18)
(0.703705 -0.0226942 4.5101e-18)
(0.71835 -0.0276315 3.7491e-18)
(0.733791 -0.0313062 0)
(0.750339 -0.0357332 -4.14286e-21)
(0.767687 -0.0402128 3.35951e-18)
(0.785708 -0.0449063 1.83918e-18)
(0.804086 -0.0497172 2.3783e-21)
(0.822274 -0.0545885 -2.19055e-18)
(0.839349 -0.0594163 0)
(0.853904 -0.0640527 -1.28354e-18)
(0.863968 -0.0682923 4.13916e-18)
(0.86701 -0.0718673 0)
(0.860039 -0.0744486 0)
(0.83978 -0.075655 0)
(0.802931 -0.0750705 -8.81266e-19)
(0.746426 -0.0722668 4.934e-22)
(0.667695 -0.0668276 3.3815e-18)
(0.564855 -0.0583723 -2.51201e-18)
(0.436827 -0.0465824 -5.17721e-19)
(0.283356 -0.0312151 -1.16477e-21)
(0.104983 -0.0120357 -4.39489e-19)
(0.68525 -0.0395286 1.00493e-17)
(0.696856 -0.0399894 -4.47706e-18)
(0.710827 -0.0469361 -2.48482e-18)
(0.725735 -0.0518918 1.97526e-22)
(0.741696 -0.0579785 -6.07539e-18)
(0.758474 -0.0640748 -3.33536e-18)
(0.77592 -0.070469 -5.49584e-18)
(0.793726 -0.0770037 4.00753e-18)
(0.811343 -0.0835997 2.18089e-18)
(0.827849 -0.0900985 -7.08868e-18)
(0.841842 -0.0962756 3.8266e-18)
(0.851366 -0.101822 -2.74532e-18)
(0.853922 -0.106339 1.4708e-18)
(0.846565 -0.10935 -1.00961e-21)
(0.826092 -0.110315 -3.32405e-18)
(0.789288 -0.108664 -8.78161e-19)
(0.73319 -0.103829 0)
(0.655336 -0.0952869 0)
(0.553949 -0.0825834 -4.00554e-18)
(0.428042 -0.0653662 6.21589e-18)
(0.277427 -0.0434208 5.33574e-19)
(0.102679 -0.0166154 -1.31746e-18)
(0.676616 -0.0555351 3.99584e-18)
(0.687911 -0.0559944 -4.43775e-18)
(0.701024 -0.0648925 -2.45574e-18)
(0.715259 -0.0710735 -2.73087e-18)
(0.730467 -0.0787737 -3.01497e-18)
(0.746513 -0.0864374 3.32229e-18)
(0.763225 -0.0944906 -3.63883e-18)
(0.780307 -0.102711 9.94076e-18)
(0.797215 -0.111001 6.49883e-18)
(0.81304 -0.119147 -7.04467e-18)
(0.826396 -0.12685 -2.54006e-18)
(0.835357 -0.133698 1.09204e-17)
(0.837466 -0.139167 -7.30896e-18)
(0.829837 -0.142632 6.2352e-18)
(0.809343 -0.143402 -9.2672e-22)
(0.772854 -0.140756 -3.49409e-18)
(0.717506 -0.133997 -1.8371e-18)
(0.640932 -0.122496 6.29528e-22)
(0.541443 -0.105735 3.99279e-18)
(0.418125 -0.0833325 -1.03398e-18)
(0.270833 -0.0550996 2.17181e-21)
(0.100154 -0.0209948 0)
(0.666153 -0.0699525 4.82958e-21)
(0.677079 -0.0704016 8.82256e-18)
(0.689163 -0.0811721 1.38961e-20)
(0.702588 -0.0885069 5.41968e-18)
(0.716881 -0.097757 -1.1965e-17)
(0.732035 -0.106921 6.58378e-18)
(0.747849 -0.116575 0)
(0.764052 -0.126429 -3.94815e-18)
(0.78011 -0.136369 -2.9345e-22)
(0.795141 -0.146132 -2.33514e-18)
(0.807787 -0.155347 2.51836e-18)
(0.816167 -0.163502 0)
(0.817877 -0.169952 0)
(0.810098 -0.17393 0)
(0.789781 -0.174594 -3.29015e-18)
(0.753882 -0.171078 3.4767e-18)
(0.69962 -0.162557 3.65041e-18)
(0.62471 -0.148302 -3.8228e-18)
(0.527533 -0.12773 3.97781e-18)
(0.407224 -0.100429 2.05709e-18)
(0.263667 -0.06623 -3.18034e-18)
(0.0974405 -0.0251697 -4.38433e-18)
(0.654072 -0.0825031 1.17401e-17)
(0.664545 -0.0829103 -4.36535e-18)
(0.675433 -0.0954425 9.70489e-18)
(0.687917 -0.103831 -5.9329e-21)
(0.701138 -0.114542 -5.92899e-18)
(0.715251 -0.125118 6.52486e-18)
(0.730015 -0.136295 0)
(0.745191 -0.147716 3.91893e-18)
(0.760268 -0.159257 -4.25963e-18)
(0.774397 -0.170606 -9.26128e-18)
(0.786267 -0.181324 5.00309e-18)
(0.794051 -0.19081 -2.69497e-18)
(0.795413 -0.198296 5.77252e-18)
(0.787608 -0.202882 0)
(0.767665 -0.203576 0)
(0.732619 -0.19937 0)
(0.679765 -0.189309 -1.81957e-18)
(0.606878 -0.172562 0)
(0.512391 -0.148476 0)
(0.395471 -0.116605 -2.05409e-18)
(0.256011 -0.0767923 0)
(0.0945716 -0.0291371 8.77646e-19)
(0.640777 -0.0929872 -7.76123e-18)
(0.650727 -0.0933107 0)
(0.660284 -0.107491 0)
(0.671707 -0.116828 -1.0627e-17)
(0.683701 -0.128896 -1.17285e-17)
(0.696615 -0.140776 1.29189e-17)
(0.710162 -0.153378 -7.08768e-18)
(0.72415 -0.166276 0)
(0.738096 -0.179344 8.44796e-18)
(0.751199 -0.192228 4.58073e-18)
(0.762208 -0.204434 0)
(0.769364 -0.215273 2.66175e-18)
(0.77041 -0.223867 -2.86494e-18)
(0.762683 -0.229181 1.22233e-17)
(0.743288 -0.23008 -3.25066e-18)
(0.709335 -0.225409 -6.86732e-18)
(0.658177 -0.21408 1.08394e-17)
(0.58764 -0.195154 0)
(0.496182 -0.167899 0)
(0.382989 -0.131825 0)
(0.247945 -0.0867752 0)
(0.0915765 -0.0328979 -4.38396e-18)
(0.626448 -0.101209 0)
(0.635761 -0.101354 -8.52915e-18)
(0.643843 -0.117002 9.4786e-18)
(0.654099 -0.127125 8.35128e-21)
(0.664741 -0.140402 5.80703e-18)
(0.676338 -0.15345 0)
(0.688541 -0.167362 7.00978e-18)
(0.701213 -0.18164 -1.53333e-17)
(0.713904 -0.196164 8.34727e-18)
(0.725874 -0.210544 -4.54222e-18)
(0.735942 -0.224236 0)
(0.742436 -0.236473 -5.51642e-21)
(0.743187 -0.246275 -8.51176e-18)
(0.735621 -0.252478 3.02656e-18)
(0.716924 -0.253803 -3.22379e-18)
(0.684272 -0.248946 0)
(0.635068 -0.236677 -3.59301e-18)
(0.567168 -0.215939 -1.87954e-18)
(0.479043 -0.185909 0)
(0.369875 -0.146042 2.03383e-18)
(0.239525 -0.0961622 -8.40565e-18)
(0.0884751 -0.0364508 7.89756e-18)
(0.611811 -0.107187 7.54992e-18)
(0.620517 -0.107114 1.26458e-17)
(0.627044 -0.124127 -7.47587e-21)
(0.636046 -0.134934 0)
(0.645177 -0.149274 5.72752e-18)
(0.655285 -0.163333 2.80986e-21)
(0.665954 -0.178385 -6.91995e-18)
(0.677119 -0.193883 7.57319e-18)
(0.688373 -0.209721 -1.2387e-17)
(0.699043 -0.22549 0)
(0.708038 -0.240609 0)
(0.71378 -0.254249 5.22506e-18)
(0.714201 -0.265334 -1.12212e-17)
(0.706824 -0.272578 5.9938e-18)
(0.688917 -0.274558 0)
(0.657718 -0.269814 -3.37684e-18)
(0.61067 -0.256966 0)
(0.545644 -0.23482 1.87004e-18)
(0.461105 -0.202446 0)
(0.356216 -0.159226 -2.02749e-18)
(0.230801 -0.104948 2.0918e-18)
(0.0852849 -0.0397991 0)
(0.596491 -0.110764 -1.49228e-17)
(0.604455 -0.11023 -2.1449e-20)
(0.609292 -0.128221 -4.61804e-18)
(0.617047 -0.139462 3.7378e-21)
(0.62465 -0.154625 0)
(0.633264 -0.169541 0)
(0.642366 -0.185608 -6.82754e-18)
(0.651966 -0.202232 7.46799e-18)
(0.661701 -0.219317 8.1463e-18)
(0.670981 -0.236439 -8.84981e-18)
(0.67881 -0.25299 0)
(0.683726 -0.268092 -5.17039e-18)
(0.683778 -0.280586 1.10999e-17)
(0.676595 -0.289075 -8.9014e-18)
(0.659534 -0.291991 0)
(0.629896 -0.287716 3.35023e-18)
(0.585156 -0.274706 7.06296e-18)
(0.52319 -0.251613 -7.41702e-18)
(0.442447 -0.217382 7.7501e-18)
(0.342052 -0.171298 -1.81311e-17)
(0.221785 -0.113092 4.16886e-18)
(0.0820066 -0.0429321 0)
(0.582213 -0.112461 -7.35219e-18)
(0.590012 -0.111787 8.16329e-18)
(0.593068 -0.130777 0)
(0.599448 -0.142497 1.00775e-17)
(0.605249 -0.158222 -5.55826e-18)
(0.612077 -0.173719 0)
(0.619321 -0.19045 -6.71565e-18)
(0.627078 -0.207862 0)
(0.635031 -0.225878 0)
(0.642675 -0.244087 4.35709e-18)
(0.649119 -0.261875 0)
(0.65302 -0.278329 0)
(0.652554 -0.292224 -5.47044e-18)
(0.645467 -0.302056 0)
(0.629211 -0.306118 0)
(0.601148 -0.302623 0)
(0.558784 -0.289848 0)
(0.49999 -0.26627 0)
(0.423186 -0.230678 0)
(0.32745 -0.182239 2.00358e-18)
(0.212507 -0.120592 3.06188e-21)
(0.0786498 -0.0458552 5.28203e-18)
(0.565668 -0.11159 -7.23032e-18)
(0.573399 -0.109905 -8.07126e-18)
(0.574816 -0.128635 0)
(0.580285 -0.140611 -4.95541e-18)
(0.584696 -0.156644 5.4671e-18)
(0.59006 -0.17277 7.81704e-21)
(0.595682 -0.190225 -6.60527e-18)
(0.601735 -0.208516 7.23492e-18)
(0.607971 -0.227545 -7.8964e-18)
(0.613979 -0.246918 4.28648e-18)
(0.618988 -0.266027 -9.29994e-18)
(0.621796 -0.283947 2.00735e-17)
(0.620724 -0.29941 -5.39099e-18)
(0.613653 -0.310823 0)
(0.598146 -0.31635 0)
(0.571637 -0.314038 6.54327e-18)
(0.531667 -0.301975 -6.91797e-18)
(0.476104 -0.278446 0)
(0.403335 -0.242065 -7.626e-18)
(0.312387 -0.191853 7.95049e-18)
(0.202928 -0.127331 1.03121e-17)
(0.0751904 -0.0485262 -5.28428e-18)
(0.553712 -0.110825 -7.10674e-18)
(0.563519 -0.111185 7.93318e-18)
(0.562398 -0.129394 -1.75948e-17)
(0.56605 -0.141696 4.86101e-18)
(0.568306 -0.157162 5.37276e-18)
(0.571473 -0.173078 1.77557e-17)
(0.574887 -0.190345 -1.29931e-17)
(0.578718 -0.208667 -4.13084e-21)
(0.582778 -0.227937 7.7559e-18)
(0.586732 -0.247803 8.3627e-21)
(0.589922 -0.267677 -4.56527e-18)
(0.591287 -0.286638 -9.8717e-18)
(0.589297 -0.303388 -5.31488e-18)
(0.581976 -0.316262 1.13821e-17)
(0.567004 -0.323296 0)
(0.541894 -0.322362 -3.22625e-18)
(0.504218 -0.311339 -3.41452e-18)
(0.451838 -0.288292 -7.19991e-18)
(0.383101 -0.251625 7.55221e-18)
(0.29698 -0.20018 0)
(0.193095 -0.133327 -8.19204e-18)
(0.071638 -0.0509558 7.05119e-18)
(0.527903 -0.100867 2.69159e-21)
(0.543749 -0.10263 7.78315e-18)
(0.543751 -0.117483 -1.72781e-17)
(0.547018 -0.130863 2.23493e-21)
(0.548672 -0.146507 0)
(0.550631 -0.163211 -3.46842e-21)
(0.552636 -0.181243 -6.37139e-18)
(0.554855 -0.200446 0)
(0.557197 -0.220695 0)
(0.559414 -0.241682 1.65664e-17)
(0.560972 -0.262856 4.49418e-18)
(0.56096 -0.283325 2.53773e-21)
(0.558021 -0.301793 -1.56581e-17)
(0.550349 -0.316546 5.59659e-18)
(0.535775 -0.32552 -3.40645e-21)
(0.511922 -0.32643 -6.35656e-18)
(0.476425 -0.316955 6.74325e-18)
(0.427158 -0.294943 -7.10914e-18)
(0.362441 -0.258587 3.73559e-18)
(0.281186 -0.206556 0)
(0.18296 -0.138083 -8.12321e-18)
(0.0679527 -0.052923 1.40963e-17)
(0.538591 -0.101439 3.69443e-18)
(0.543205 -0.115074 1.23128e-17)
(0.541264 -0.12347 1.14904e-20)
(0.541186 -0.135893 1.00564e-17)
(0.540099 -0.149987 0)
(0.539386 -0.165711 0)
(0.53872 -0.18292 6.67167e-18)
(0.53824 -0.201478 -1.45695e-17)
(0.537837 -0.221227 0)
(0.537282 -0.24185 8.61901e-18)
(0.536084 -0.262787 -1.40004e-17)
(0.533417 -0.283136 1.00658e-17)
(0.528051 -0.301587 0)
(0.518361 -0.316407 -5.78976e-18)
(0.502399 -0.325504 -7.36269e-21)
(0.478039 -0.326559 9.8254e-18)
(0.443171 -0.317213 3.46116e-18)
(0.395907 -0.295269 0)
(0.334769 -0.258887 1.52163e-17)
(0.258828 -0.206731 -1.29616e-22)
(0.167798 -0.138065 -6.14575e-18)
(0.0620468 -0.0527401 1.76441e-18)
(0.534782 -0.0949321 -1.12874e-17)
(0.527552 -0.110411 -4.18038e-18)
(0.525189 -0.119813 9.24952e-18)
(0.52288 -0.134063 -1.02086e-17)
(0.520757 -0.148852 -1.12557e-17)
(0.518793 -0.165335 6.18193e-18)
(0.516824 -0.183089 0)
(0.514855 -0.202105 2.22188e-17)
(0.512753 -0.222178 -1.61322e-17)
(0.510263 -0.24295 -8.76594e-18)
(0.506894 -0.2638 4.73605e-18)
(0.501857 -0.283764 1.53154e-17)
(0.494029 -0.301492 -1.09686e-17)
(0.481974 -0.315262 1.17297e-17)
(0.464032 -0.323055 -1.56188e-17)
(0.43845 -0.322698 6.62332e-18)
(0.403554 -0.312036 0)
(0.357921 -0.289123 -3.67211e-18)
(0.300512 -0.252374 3.83302e-18)
(0.230769 -0.200696 7.97106e-18)
(0.148665 -0.133521 -1.23582e-17)
(0.0546755 -0.0507567 -8.81465e-18)
(0.5262 -0.0968418 7.63687e-18)
(0.516103 -0.111808 -8.4817e-18)
(0.514051 -0.122006 4.7033e-18)
(0.509484 -0.136218 1.55825e-17)
(0.505753 -0.15062 5.72541e-18)
(0.501709 -0.166775 0)
(0.497655 -0.184114 0)
(0.493451 -0.202711 -1.50579e-17)
(0.488996 -0.222305 8.19144e-18)
(0.484018 -0.242505 0)
(0.478043 -0.262634 0)
(0.470342 -0.281686 -5.18186e-18)
(0.459913 -0.298298 -5.55802e-18)
(0.445519 -0.310776 1.18778e-17)
(0.425774 -0.31719 -3.15764e-18)
(0.399266 -0.315511 3.34498e-18)
(0.364698 -0.303779 0)
(0.321023 -0.280266 -3.70212e-18)
(0.267546 -0.243618 -7.72233e-18)
(0.203977 -0.192953 1.60306e-17)
(0.130481 -0.127867 -1.24099e-17)
(0.0476669 -0.0483389 8.79067e-18)
(0.514025 -0.0953212 6.94725e-21)
(0.502794 -0.108704 3.93985e-21)
(0.499944 -0.119759 4.77111e-18)
(0.493579 -0.133856 -1.05553e-17)
(0.488456 -0.148227 0)
(0.482652 -0.164215 -6.38284e-18)
(0.476792 -0.181281 -6.99825e-18)
(0.470593 -0.199519 -5.56256e-21)
(0.463992 -0.218639 8.31172e-18)
(0.456712 -0.238228 0)
(0.448323 -0.25758 -9.74797e-18)
(0.438174 -0.275672 1.04908e-17)
(0.425405 -0.291156 -5.62284e-18)
(0.408987 -0.302397 0)
(0.387805 -0.307577 -9.57598e-18)
(0.360761 -0.304828 1.01317e-17)
(0.326894 -0.292384 -7.11341e-18)
(0.285479 -0.26873 0)
(0.236094 -0.23272 7.76699e-18)
(0.17865 -0.183659 2.01174e-18)
(0.113441 -0.121275 -1.03761e-17)
(0.041157 -0.0456164 -1.75366e-18)
(0.501513 -0.0930614 -3.94227e-18)
(0.490169 -0.105198 4.37046e-18)
(0.486151 -0.116518 0)
(0.478294 -0.130006 0)
(0.471622 -0.143966 0)
(0.463994 -0.159379 7.20012e-24)
(0.456208 -0.175829 -6.09288e-21)
(0.447917 -0.19338 1.16123e-17)
(0.439097 -0.211732 0)
(0.429484 -0.230449 -4.56556e-18)
(0.4187 -0.248809 0)
(0.40619 -0.265793 5.30848e-18)
(0.391243 -0.280085 -5.68429e-18)
(0.373036 -0.29013 6.06657e-18)
(0.350705 -0.294232 1.28873e-17)
(0.323439 -0.290687 2.94056e-22)
(0.290563 -0.277918 -3.58332e-18)
(0.251614 -0.254606 0)
(0.206385 -0.219786 1.95035e-18)
(0.154928 -0.172917 -2.02091e-18)
(0.0976168 -0.113832 0)
(0.0351681 -0.0426333 0)
(0.489275 -0.0889356 1.19734e-17)
(0.477785 -0.0998423 0)
(0.472287 -0.110929 0)
(0.463123 -0.123616 0)
(0.454886 -0.136967 0)
(0.445537 -0.151602 -6.56143e-18)
(0.435882 -0.167238 -3.59795e-18)
(0.425566 -0.183888 7.83674e-18)
(0.414586 -0.201259 4.26908e-18)
(0.40271 -0.218906 -4.61686e-18)
(0.389629 -0.236111 0)
(0.374894 -0.251882 2.68092e-18)
(0.357951 -0.264962 0)
(0.338179 -0.273894 -6.12224e-18)
(0.314954 -0.277118 6.49294e-18)
(0.287717 -0.273093 3.42863e-18)
(0.256038 -0.260422 1.8012e-18)
(0.219671 -0.237958 -7.53486e-18)
(0.178569 -0.204893 -1.95947e-18)
(0.13288 -0.160806 0)
(0.0830186 -0.105601 0)
(0.0296902 -0.0394139 -7.83095e-18)
(0.477777 -0.0832262 -1.21319e-17)
(0.466074 -0.0929545 4.48685e-18)
(0.459055 -0.103406 0)
(0.448703 -0.11507 0)
(0.438911 -0.127511 6.0515e-18)
(0.427914 -0.141087 -6.63262e-18)
(0.416429 -0.155627 7.26976e-18)
(0.404139 -0.171102 -1.18943e-17)
(0.391055 -0.187233 4.31241e-18)
(0.376989 -0.203582 4.66742e-18)
(0.361707 -0.219456 0)
(0.344876 -0.23391 -5.41306e-18)
(0.3261 -0.245768 0)
(0.304952 -0.253687 -6.16957e-18)
(0.281028 -0.25625 3.26869e-18)
(0.253992 -0.25208 -3.45162e-18)
(0.223627 -0.239942 1.81172e-18)
(0.189857 -0.218843 -1.89085e-18)
(0.15276 -0.188099 -7.8588e-18)
(0.112543 -0.147375 8.11932e-18)
(0.0696331 -0.09662 2.08475e-18)
(0.0247043 -0.0359706 8.67158e-19)
(0.46723 -0.0758844 8.18661e-18)
(0.455248 -0.0843787 -9.07607e-18)
(0.446761 -0.0938913 5.03035e-18)
(0.435319 -0.104338 -5.54797e-18)
(0.42405 -0.115603 6.11685e-18)
(0.411512 -0.127866 5.97964e-21)
(0.39829 -0.14104 -3.6735e-18)
(0.384124 -0.155069 0)
(0.369031 -0.169702 0)
(0.352879 -0.184522 4.70992e-18)
(0.335512 -0.198884 -7.61944e-18)
(0.316716 -0.211914 8.18658e-18)
(0.296252 -0.222538 -8.75005e-18)
(0.273877 -0.229544 0)
(0.249386 -0.231665 -3.28885e-18)
(0.222645 -0.227681 0)
(0.193612 -0.21651 -7.27529e-18)
(0.162357 -0.197288 9.48932e-18)
(0.12905 -0.169425 -7.87791e-18)
(0.0939364 -0.132643 4.03249e-22)
(0.0574382 -0.0868986 6.25921e-18)
(0.0201888 -0.0323045 8.6344e-19)
(0.457842 -0.0670261 7.37866e-21)
(0.445594 -0.0742223 -9.16272e-18)
(0.435769 -0.0825622 5.07449e-18)
(0.423343 -0.0916054 5.36147e-21)
(0.410716 -0.101441 -1.23427e-17)
(0.39676 -0.112139 -3.39286e-18)
(0.381921 -0.123671 -6.7747e-21)
(0.366 -0.135978 1.61584e-17)
(0.349022 -0.148842 -4.38376e-18)
(0.33091 -0.161891 -7.12405e-18)
(0.311589 -0.174545 7.68e-18)
(0.290962 -0.186029 -5.49309e-18)
(0.268938 -0.19539 -6.38694e-22)
(0.245447 -0.20156 6.24498e-18)
(0.220464 -0.203432 3.30701e-18)
(0.19403 -0.199939 -6.96595e-18)
(0.16626 -0.190142 1.46011e-17)
(0.137342 -0.173284 -1.52227e-17)
(0.107523 -0.148848 5.92008e-18)
(0.0770741 -0.116578 -8.13945e-18)
(0.0464098 -0.0764122 1.77389e-17)
(0.0161228 -0.0284035 -6.98975e-22)
(0.449716 -0.0569746 -1.2493e-17)
(0.437228 -0.0627859 4.62264e-18)
(0.426202 -0.0697528 -7.67999e-18)
(0.412893 -0.077211 8.47933e-18)
(0.399036 -0.0853817 -3.11023e-18)
(0.383793 -0.0942696 1.02463e-17)
(0.36748 -0.103892 -1.12e-17)
(0.349953 -0.114197 2.03367e-18)
(0.331248 -0.125015 0)
(0.311341 -0.136034 -1.13136e-21)
(0.290234 -0.146764 -2.575e-18)
(0.267941 -0.156547 0)
(0.244502 -0.164573 -4.42735e-18)
(0.220003 -0.169936 0)
(0.194578 -0.171693 6.64003e-18)
(0.168422 -0.168935 -1.39799e-17)
(0.141782 -0.160856 -2.58142e-22)
(0.114954 -0.146797 7.62739e-18)
(0.0882502 -0.126293 1.97634e-18)
(0.0619674 -0.0990914 0)
(0.0365224 -0.0650827 6.26011e-18)
(0.0124846 -0.0242301 -8.58405e-19)
(0.442397 -0.0458069 8.39691e-18)
(0.429645 -0.050209 -4.65647e-18)
(0.417489 -0.055693 7.73179e-18)
(0.403328 -0.0614576 2.84932e-18)
(0.388326 -0.0678054 -3.12811e-18)
(0.371897 -0.0747052 3.4389e-18)
(0.354252 -0.0822071 -5.63545e-18)
(0.335301 -0.090281 2.04817e-18)
(0.315086 -0.09881 -4.4476e-18)
(0.293635 -0.107557 4.80553e-18)
(0.271014 -0.116143 9.63382e-22)
(0.247326 -0.124047 0)
(0.222726 -0.130622 1.48241e-18)
(0.197423 -0.135137 0)
(0.171686 -0.136826 0)
(0.145833 -0.134945 0)
(0.120225 -0.12882 7.33743e-18)
(0.0952455 -0.117889 -7.63969e-18)
(0.0712705 -0.101735 -9.88838e-19)
(0.0486293 -0.0801027 0)
(0.0277641 -0.0528206 3.09838e-22)
(0.00926058 -0.0197379 0)
(0.433473 -0.0345501 0)
(0.420169 -0.0375174 -2.34286e-18)
(0.406729 -0.0414081 0)
(0.391584 -0.0453671 2.46125e-21)
(0.375415 -0.0497435 -3.14908e-18)
(0.357867 -0.0544954 5.18635e-18)
(0.339072 -0.0596948 -1.88723e-18)
(0.318987 -0.0653364 2.05807e-18)
(0.297663 -0.0713581 -4.46971e-18)
(0.275157 -0.0776065 -2.41868e-18)
(0.251577 -0.0838217 1.3002e-17)
(0.227084 -0.0896336 -4.18028e-18)
(0.201905 -0.0945735 0)
(0.176334 -0.0981004 0)
(0.150728 -0.0996376 0)
(0.125493 -0.0986125 8.78089e-19)
(0.101067 -0.0944952 9.18689e-19)
(0.0779006 -0.0868287 0)
(0.0564197 -0.0752567 -2.96871e-18)
(0.03699 -0.0595385 4.07506e-18)
(0.0201069 -0.0394686 5.21611e-19)
(0.00643558 -0.0148079 4.2665e-19)
(0.413931 -0.0227337 0)
(0.399604 -0.0244342 3.53332e-18)
(0.384593 -0.0268391 0)
(0.368318 -0.0291331 1.43945e-18)
(0.351067 -0.0316606 3.16808e-18)
(0.332693 -0.0343849 -5.20732e-18)
(0.313278 -0.0373814 -9.48871e-19)
(0.292814 -0.0406643 -1.03405e-18)
(0.271342 -0.0442175 -4.488e-18)
(0.248924 -0.0479667 1.091e-17)
(0.225665 -0.0517696 -6.52242e-18)
(0.201732 -0.0554098 -1.39851e-18)
(0.177362 -0.0586016 7.45856e-19)
(0.152866 -0.0610026 0)
(0.128623 -0.0622348 0)
(0.105064 -0.0619085 2.6393e-18)
(0.0826516 -0.059648 -4.6e-18)
(0.0618588 -0.0551156 3.34955e-18)
(0.0431285 -0.0480378 -3.96055e-18)
(0.0268423 -0.038224 -3.5656e-18)
(0.0135502 -0.0254911 8.86152e-18)
(0.00404293 -0.00959278 -3.83269e-18)
(0.357223 -0.0134109 0)
(0.342012 -0.0141034 -5.91598e-19)
(0.325989 -0.0149943 -2.62004e-18)
(0.309458 -0.0156549 7.18642e-19)
(0.2924 -0.0163726 3.17693e-18)
(0.274811 -0.0171494 -8.71466e-19)
(0.25672 -0.0180447 9.52672e-19)
(0.238116 -0.0190782 3.11376e-18)
(0.219007 -0.0202581 -9.00343e-18)
(0.199412 -0.0215671 3.64668e-18)
(0.179387 -0.0229585 1.30883e-18)
(0.159034 -0.0243515 2.80498e-18)
(0.138523 -0.0256305 -7.46678e-19)
(0.118092 -0.026647 -6.34971e-18)
(0.098048 -0.0272254 3.7724e-18)
(0.0787551 -0.0271702 4.40571e-19)
(0.0606173 -0.0262753 0)
(0.0440586 -0.0243387 4.78898e-19)
(0.0294819 -0.0211895 3.96192e-18)
(0.0172299 -0.016725 -8.65939e-18)
(0.0078107 -0.0108987 4.38429e-22)
(0.00205956 -0.00378416 3.40142e-18)
(0.197824 -0.00203074 1.01766e-21)
(0.186975 -0.00226076 1.73208e-18)
(0.175529 -0.00240132 4.52348e-21)
(0.164245 -0.00240545 -2.10196e-18)
(0.153083 -0.00239992 -1.54068e-18)
(0.142076 -0.0024037 2.52609e-18)
(0.131215 -0.00244036 -4.48476e-22)
(0.120467 -0.00251973 0)
(0.109797 -0.0026492 0)
(0.0991684 -0.0028321 2.84406e-22)
(0.0885594 -0.00306728 3.05449e-22)
(0.0779701 -0.00334754 -3.26677e-22)
(0.0674325 -0.00365818 0)
(0.0570175 -0.00397539 0)
(0.0468396 -0.00426449 -3.58622e-18)
(0.0370572 -0.00447786 2.93012e-18)
(0.027872 -0.00455286 0)
(0.0195266 -0.00441192 0)
(0.0122878 -0.0039718 3.75792e-18)
(0.00641742 -0.00316538 -3.87106e-18)
(0.00227789 -0.0019582 -7.74162e-21)
(0.000408006 -0.000459085 0)
(0.423201 0.00754271 0)
(0.404285 0.00829348 0)
(0.385136 0.0091604 -2.53919e-24)
(0.365429 0.0100689 -7.31828e-19)
(0.345199 0.0110222 8.03527e-19)
(0.324375 0.0120124 8.78448e-19)
(0.302946 0.0130355 0)
(0.280911 0.0140871 5.19968e-19)
(0.258287 0.0151607 3.86314e-23)
(0.235109 0.0162441 1.63213e-22)
(0.21144 0.0173158 6.52133e-19)
(0.18738 0.0183392 -1.28811e-22)
(0.163082 0.0192578 -1.85761e-18)
(0.13877 0.0199907 7.87817e-19)
(0.114756 0.0204311 8.31208e-19)
(0.0914502 0.0204486 -8.72819e-19)
(0.0693689 0.0198947 9.11848e-19)
(0.0491245 0.0186131 -1.18466e-18)
(0.0313819 0.0164517 -2.44958e-19)
(0.0168066 0.0132762 0)
(0.00633656 0.00897353 0)
(0.00120915 0.00346009 0)
(0.424949 0.0322245 -1.08549e-18)
(0.406048 0.033761 2.41337e-18)
(0.387141 0.0356926 -9.32312e-22)
(0.367636 0.0378384 0)
(0.347642 0.0402116 -8.02739e-19)
(0.327061 0.0427783 0)
(0.305883 0.0455163 0)
(0.284103 0.0484029 -5.19847e-19)
(0.261735 0.0514093 -1.68798e-18)
(0.238812 0.0544912 -6.06581e-19)
(0.215392 0.057574 1.30372e-18)
(0.191567 0.0605367 -1.39492e-18)
(0.167476 0.0631945 2.59944e-18)
(0.143328 0.0652854 -7.87726e-19)
(0.119409 0.0664652 1.66181e-18)
(0.0961027 0.0663147 8.72249e-19)
(0.0738912 0.064358 -1.36744e-18)
(0.0533523 0.0600939 -1.65808e-18)
(0.0351169 0.0530346 2.20427e-18)
(0.0198196 0.0427478 5.0372e-19)
(0.00837369 0.0288698 -2.06213e-18)
(0.00200007 0.01113 -1.15552e-22)
(0.428806 0.0547554 4.34085e-18)
(0.410107 0.0572779 2.40607e-18)
(0.391777 0.0604494 -3.9834e-18)
(0.37271 0.0640018 2.46746e-21)
(0.353187 0.0679361 1.60335e-18)
(0.33307 0.0721966 3.50403e-18)
(0.312362 0.0767439 1.90881e-18)
(0.291055 0.0815397 0)
(0.269164 0.0865365 1.12327e-18)
(0.246715 0.0916602 1.21154e-18)
(0.223758 0.0967876 0)
(0.200368 0.101717 1.39177e-18)
(0.17666 0.106141 -7.41625e-19)
(0.152803 0.10962 2.35831e-18)
(0.129039 0.111579 -4.1484e-18)
(0.105692 0.111315 -4.67996e-22)
(0.0831778 0.108027 -4.55342e-19)
(0.0620047 0.100873 0)
(0.0427364 0.0890306 0)
(0.0259474 0.0717707 -2.75765e-22)
(0.0125043 0.0484781 0)
(0.0036005 0.0186935 1.67867e-18)
(0.434258 0.0771117 -2.16215e-18)
(0.41582 0.0805479 0)
(0.398346 0.0848101 -2.06302e-21)
(0.379945 0.0896324 -2.90979e-18)
(0.361149 0.0949894 1.59366e-18)
(0.341754 0.100813 -2.17357e-21)
(0.321776 0.107047 -5.70859e-18)
(0.301205 0.11364 0)
(0.280051 0.120525 2.2374e-18)
(0.258334 0.1276 -4.82842e-18)
(0.236091 0.134693 5.1895e-18)
(0.213371 0.141527 -2.77596e-18)
(0.190253 0.147673 1.47922e-18)
(0.166853 0.152522 -4.70459e-18)
(0.14334 0.15527 8.28015e-19)
(0.119951 0.154937 4.34642e-18)
(0.0970025 0.150404 -3.63522e-18)
(0.0748996 0.140489 -9.44602e-19)
(0.0541036 0.12404 -3.91042e-18)
(0.0350983 0.100031 5.02057e-19)
(0.0186782 0.0675935 9.26732e-18)
(0.00599452 0.0260752 -6.29759e-18)
(0.441334 0.097593 8.60059e-18)
(0.423283 0.102019 4.76774e-18)
(0.406944 0.107368 0)
(0.389424 0.113469 0)
(0.371587 0.12024 0)
(0.35314 0.127606 -3.47065e-18)
(0.334123 0.135496 0)
(0.314519 0.143846 -8.22684e-18)
(0.294335 0.152574 -4.45438e-18)
(0.273584 0.161552 4.80878e-18)
(0.252282 0.170567 -2.58227e-18)
(0.23045 0.17927 -1.38058e-18)
(0.208118 0.187119 4.41905e-18)
(0.18533 0.193345 3.12576e-18)
(0.162162 0.196926 -6.60094e-18)
(0.138734 0.196611 5.20171e-18)
(0.115232 0.19097 3.6261e-18)
(0.091919 0.178491 -2.82857e-18)
(0.0691214 0.157691 0)
(0.0471996 0.127248 3.01349e-18)
(0.0268504 0.0860387 -6.17206e-18)
(0.00916609 0.0332111 -4.20292e-19)
(0.449889 0.11648 -1.28074e-17)
(0.43232 0.121881 2.31181e-22)
(0.417368 0.128208 5.21713e-18)
(0.400923 0.135495 -1.14972e-17)
(0.384264 0.143573 3.15766e-18)
(0.36698 0.152375 1.37967e-17)
(0.349144 0.161815 -4.02317e-21)
(0.330731 0.171816 -4.08927e-18)
(0.311744 0.182285 -2.21106e-18)
(0.292186 0.193072 -4.77949e-18)
(0.272052 0.203926 2.57194e-18)
(0.251326 0.214433 2.75321e-18)
(0.229978 0.223951 2.93119e-18)
(0.207967 0.231557 1.55313e-18)
(0.185252 0.236024 0)
(0.161809 0.23584 0)
(0.137658 0.229273 9.0342e-18)
(0.112888 0.214483 -1.50454e-17)
(0.0876522 0.18966 9.73448e-18)
(0.0621537 0.153183 0)
(0.0369637 0.103668 1.02796e-18)
(0.0130962 0.0400516 3.36383e-18)
(0.459727 0.133091 -5.32641e-22)
(0.442758 0.139499 4.70029e-18)
(0.429425 0.146731 -5.18438e-18)
(0.414238 0.155149 0)
(0.398958 0.164453 -3.12359e-18)
(0.383039 0.174603 -3.41954e-18)
(0.366587 0.185492 1.49295e-17)
(0.349572 0.197041 -8.1174e-18)
(0.331992 0.209145 1.31897e-17)
(0.313839 0.221639 -9.49287e-18)
(0.295086 0.234242 5.10239e-18)
(0.275676 0.246485 2.72951e-18)
(0.25551 0.257637 -1.04337e-21)
(0.234446 0.266635 -1.54713e-17)
(0.212307 0.27206 9.80692e-18)
(0.188898 0.272153 0)
(0.164039 0.264889 -1.8007e-18)
(0.137607 0.248103 -5.62328e-18)
(0.109543 0.219656 5.82301e-18)
(0.0798565 0.177626 0)
(0.0489609 0.120356 0)
(0.0177678 0.0465558 0)
(0.47064 0.147317 4.1885e-18)
(0.454376 0.154703 -4.65256e-18)
(0.442853 0.162708 0)
(0.429069 0.172145 0)
(0.415335 0.182547 -6.19122e-18)
(0.400944 0.193916 6.77926e-18)
(0.386054 0.206125 3.69395e-18)
(0.37062 0.219093 0)
(0.35464 0.232706 0)
(0.338094 0.246788 4.70589e-18)
(0.320929 0.261037 -1.01217e-17)
(0.303043 0.274939 -2.71258e-18)
(0.284264 0.287686 5.78377e-18)
(0.264336 0.298095 -6.14494e-18)
(0.242925 0.30457 -6.49701e-18)
(0.219638 0.305118 3.41625e-18)
(0.194064 0.297429 -1.78893e-18)
(0.165824 0.279018 -2.87781e-21)
(0.134607 0.247417 5.80488e-18)
(0.100187 0.200389 -7.98066e-18)
(0.0627791 0.135992 2.04558e-18)
(0.0231635 0.0526889 7.58726e-18)
(0.482266 0.158848 0)
(0.466825 0.167242 0)
(0.457293 0.175942 5.06705e-18)
(0.445069 0.186328 -1.11564e-17)
(0.433053 0.197714 6.12407e-18)
(0.420361 0.210168 0)
(0.4072 0.223545 -1.09656e-17)
(0.393518 0.237771 7.95274e-18)
(0.379311 0.252732 1.29231e-17)
(0.364549 0.268248 -4.65324e-18)
(0.349158 0.284005 0)
(0.332991 0.299459 0)
(0.315797 0.313743 0)
(0.297199 0.32557 0)
(0.276691 0.333186 6.44711e-18)
(0.253655 0.334381 -3.39792e-18)
(0.22741 0.326571 1.78078e-18)
(0.197283 0.306953 -1.85733e-18)
(0.162659 0.272722 1.9274e-18)
(0.123031 0.221316 0)
(0.0783668 0.150486 -2.04374e-18)
(0.0292731 0.0584252 8.42214e-19)
(0.494431 0.167589 1.63444e-17)
(0.479914 0.176887 0)
(0.472429 0.186062 0)
(0.461805 0.197227 0)
(0.451559 0.20943 0)
(0.440644 0.222822 -6.60587e-18)
(0.429323 0.237229 -1.44219e-17)
(0.417529 0.252577 3.90011e-21)
(0.405254 0.26875 4.2542e-18)
(0.392455 0.285569 -4.59482e-18)
(0.379035 0.302714 9.90099e-18)
(0.364799 0.319627 -1.0622e-17)
(0.349418 0.335399 -2.8336e-18)
(0.332385 0.348662 0)
(0.313007 0.357527 -3.19728e-18)
(0.290417 0.359584 0)
(0.263631 0.351988 7.06509e-18)
(0.231631 0.331623 -7.37638e-18)
(0.193447 0.295341 1.91368e-18)
(0.148232 0.240236 0)
(0.09565 0.163737 0)
(0.03608 0.063732 -1.6933e-18)
(0.506454 0.173428 -1.61032e-17)
(0.493067 0.183904 -8.92753e-18)
(0.487816 0.19362 0)
(0.479043 0.205551 2.36521e-21)
(0.470765 0.218427 -5.95296e-18)
(0.461791 0.232546 7.50265e-21)
(0.452435 0.247732 1.63676e-20)
(0.442632 0.26394 1.54678e-17)
(0.432386 0.281068 8.38968e-18)
(0.421652 0.298947 9.06766e-18)
(0.410321 0.317264 -9.77323e-18)
(0.39816 0.335459 0)
(0.384764 0.352599 2.80459e-18)
(0.369498 0.367258 -8.94955e-18)
(0.35147 0.377436 1.26459e-17)
(0.329542 0.380543 -3.33193e-18)
(0.302388 0.373487 0)
(0.268596 0.352842 3.65676e-18)
(0.22678 0.31511 5.70831e-18)
(0.175682 0.257026 -1.77235e-17)
(0.114591 0.175667 8.10965e-18)
(0.0435849 0.0685882 0)
(0.518771 0.176205 7.9124e-18)
(0.506523 0.187421 1.2535e-20)
(0.503009 0.19717 9.6951e-18)
(0.495773 0.209631 -5.3173e-18)
(0.489223 0.223073 -5.84599e-18)
(0.482132 0.237878 -6.40284e-18)
(0.474795 0.253816 2.0978e-17)
(0.46712 0.270841 -7.61705e-18)
(0.459088 0.288857 0)
(0.450634 0.307707 4.45913e-18)
(0.441626 0.327098 -1.92485e-17)
(0.431796 0.346484 1.0336e-17)
(0.420667 0.364936 5.52159e-18)
(0.407476 0.380997 -2.94691e-18)
(0.39113 0.392582 -3.11989e-18)
(0.370202 0.396953 6.59672e-18)
(0.342989 0.390786 1.04057e-17)
(0.307632 0.370355 -1.45218e-17)
(0.26226 0.331807 7.55593e-18)
(0.205128 0.271503 -7.82435e-18)
(0.135066 0.186151 -8.07051e-18)
(0.0517566 0.0729469 -4.30451e-22)
(0.529277 0.176206 -1.55738e-17)
(0.519408 0.190037 0)
(0.518363 0.200406 -9.51211e-18)
(0.513496 0.213291 3.14136e-17)
(0.509001 0.226846 5.75034e-18)
(0.503898 0.241758 6.28726e-18)
(0.498517 0.257877 -6.88138e-18)
(0.492841 0.275195 0)
(0.486879 0.29363 0)
(0.480586 0.313038 4.38443e-18)
(0.473825 0.333137 0)
(0.466306 0.353404 0)
(0.45749 0.372921 -1.08944e-17)
(0.446492 0.390222 1.74044e-17)