/*--------------------------------*- C++ -*----------------------------------*\
| =========                 |                                                 |
| \\      /  F ield         | OpenFOAM Extend Project: Open source CFD        |
|  \\    /   O peration     | Version:  1.6-ext                               |
|   \\  /    A nd           | Web:      www.extend-project.de                 |
|    \\/     M anipulation  |                                                 |
\*---------------------------------------------------------------------------*/
FoamFile
{
    version     2.0;
    format      ascii;
    class       volScalarField::DimensionedInternalField;
    location    "0.05";
    object      V0;
}
// * * * * * * * * * * * * * * * * * * * * * * * * * * * * * * * * * * * * * //

dimensions      [0 3 0 0 0 0 0];

value           nonuniform List<scalar> 
20940
(
1.17093e-06
1.03791e-06
9.20885e-07
8.17856e-07
7.27091e-07
6.47072e-07
5.76474e-07
5.14139e-07
4.59057e-07
4.10341e-07
3.67218e-07
3.29012e-07
2.9513e-07
2.65054e-07
2.38329e-07
2.14558e-07
1.93392e-07
1.74525e-07
1.57689e-07
1.42649e-07
1.29197e-07
1.17151e-07
1.17109e-06
1.03805e-06
9.21004e-07
8.17962e-07
7.27185e-07
6.47156e-07
5.76551e-07
5.1421e-07
4.59122e-07
4.10402e-07
3.67276e-07
3.29066e-07
2.95182e-07
2.65103e-07
2.38376e-07
2.14603e-07
1.93435e-07
1.74566e-07
1.57729e-07
1.42686e-07
1.29233e-07
1.17186e-07
1.17367e-06
1.04033e-06
9.23031e-07
8.19763e-07
7.28789e-07
6.48586e-07
5.77828e-07
5.15352e-07
4.60146e-07
4.1132e-07
3.68101e-07
3.29809e-07
2.95852e-07
2.65708e-07
2.38923e-07
2.15099e-07
1.93885e-07
1.74975e-07
1.581e-07
1.43025e-07
1.29541e-07
1.17468e-07
1.17795e-06
1.04413e-06
9.264e-07
8.22757e-07
7.31453e-07
6.5096e-07
5.79945e-07
5.17244e-07
4.61838e-07
4.12836e-07
3.69461e-07
3.31031e-07
2.96951e-07
2.66698e-07
2.39816e-07
2.15905e-07
1.94614e-07
1.75636e-07
1.58699e-07
1.43569e-07
1.30036e-07
1.17918e-07
1.18324e-06
1.04885e-06
9.30624e-07
8.26541e-07
7.34846e-07
6.54008e-07
5.82687e-07
5.19713e-07
4.64064e-07
4.14846e-07
3.71278e-07
3.32676e-07
2.98442e-07
2.68052e-07
2.41046e-07
2.17025e-07
1.95634e-07
1.76565e-07
1.59548e-07
1.44345e-07
1.30746e-07
1.18568e-07
1.1901e-06
1.055e-06
9.36142e-07
8.31499e-07
7.39308e-07
6.58028e-07
5.86313e-07
5.22988e-07
4.67026e-07
4.17529e-07
3.73711e-07
3.34885e-07
3.00449e-07
2.69878e-07
2.4271e-07
2.18542e-07
1.97019e-07
1.77832e-07
1.60707e-07
1.45405e-07
1.31718e-07
1.1946e-07
1.19844e-06
1.06251e-06
9.42912e-07
8.37611e-07
7.44832e-07
6.63027e-07
5.90844e-07
5.27099e-07
4.7076e-07
4.20924e-07
3.76801e-07
3.37701e-07
3.03019e-07
2.72225e-07
2.44856e-07
2.20505e-07
1.98818e-07
1.7948e-07
1.6222e-07
1.46795e-07
1.32995e-07
1.20634e-07
1.20827e-06
1.0714e-06
9.50967e-07
8.44916e-07
7.51466e-07
6.69058e-07
5.96333e-07
5.321e-07
4.75322e-07
4.2509e-07
3.80609e-07
3.41184e-07
3.06208e-07
2.75148e-07
2.47537e-07
2.22967e-07
2.0108e-07
1.81561e-07
1.64134e-07
1.48558e-07
1.3462e-07
1.22133e-07
1.21957e-06
1.08167e-06
9.60313e-07
8.53432e-07
7.59235e-07
6.76155e-07
6.02821e-07
5.38038e-07
4.80761e-07
4.30076e-07
3.85184e-07
3.45386e-07
3.1007e-07
2.78699e-07
2.50806e-07
2.25978e-07
2.03854e-07
1.84119e-07
1.66495e-07
1.50738e-07
1.36633e-07
1.23994e-07
1.23229e-06
1.09329e-06
9.70941e-07
8.63162e-07
7.68152e-07
6.84335e-07
6.10333e-07
5.44943e-07
4.87113e-07
4.35923e-07
3.9057e-07
3.5035e-07
3.14647e-07
2.82924e-07
2.54706e-07
2.2958e-07
2.07184e-07
1.87198e-07
1.69343e-07
1.53374e-07
1.39074e-07
1.26255e-07
1.24622e-06
1.1061e-06
9.8272e-07
8.74005e-07
7.78141e-07
6.93544e-07
6.1883e-07
5.52789e-07
4.94362e-07
4.42626e-07
3.96771e-07
3.56089e-07
3.19961e-07
2.87845e-07
2.59266e-07
2.33806e-07
2.11102e-07
1.90831e-07
1.72713e-07
1.56501e-07
1.41977e-07
1.28949e-07
1.26179e-06
1.12047e-06
9.95987e-07
8.8626e-07
7.89467e-07
7.04015e-07
6.28515e-07
5.61753e-07
5.02664e-07
4.50319e-07
4.03903e-07
3.62705e-07
3.261e-07
2.93543e-07
2.64555e-07
2.38718e-07
2.15663e-07
1.95069e-07
1.7665e-07
1.60159e-07
1.45377e-07
1.3211e-07
1.27819e-06
1.13573e-06
1.01018e-06
8.99467e-07
8.01754e-07
7.15448e-07
6.39151e-07
5.71647e-07
5.11868e-07
4.58883e-07
4.11874e-07
3.70126e-07
3.3301e-07
2.99979e-07
2.70552e-07
2.44304e-07
2.20868e-07
1.99917e-07
1.81168e-07
1.64368e-07
1.49297e-07
1.35762e-07
1.29549e-06
1.15192e-06
1.02534e-06
9.13661e-07
8.15039e-07
7.27878e-07
6.5078e-07
5.8252e-07
5.2203e-07
4.68377e-07
4.2074e-07
3.78404e-07
3.40741e-07
3.07198e-07
2.77292e-07
2.50599e-07
2.26746e-07
2.05406e-07
1.86292e-07
1.69152e-07
1.53763e-07
1.3993e-07
1.31344e-06
1.16886e-06
1.04132e-06
9.28713e-07
8.2921e-07
7.4121e-07
6.63315e-07
5.94302e-07
5.33097e-07
4.78765e-07
4.30485e-07
3.87538e-07
3.49298e-07
3.1521e-07
2.84791e-07
2.57617e-07
2.33313e-07
2.1155e-07
1.9204e-07
1.74529e-07
1.58791e-07
1.44631e-07
1.24182e-06
1.10776e-06
9.89304e-07
8.84543e-07
7.9181e-07
7.09644e-07
6.36772e-07
5.72079e-07
5.14586e-07
4.63439e-07
4.17885e-07
3.77269e-07
3.41013e-07
3.08614e-07
2.79626e-07
2.53661e-07
2.30376e-07
2.09471e-07
1.90678e-07
1.73763e-07
1.5852e-07
1.44767e-07
1.21871e-06
1.08663e-06
9.69966e-07
8.66823e-07
7.75555e-07
6.94719e-07
6.23054e-07
5.59458e-07
5.02965e-07
4.5273e-07
4.08012e-07
3.6816e-07
3.32604e-07
3.00845e-07
2.72445e-07
2.47017e-07
2.24225e-07
2.03771e-07
1.85393e-07
1.68862e-07
1.53972e-07
1.40544e-07
1.19673e-06
1.06659e-06
9.51663e-07
8.50092e-07
7.60244e-07
6.80694e-07
6.10193e-07
5.47653e-07
4.92117e-07
4.42752e-07
3.98826e-07
3.59697e-07
3.24803e-07
2.93649e-07
2.65802e-07
2.40882e-07
2.18554e-07
1.98524e-07
1.80536e-07
1.6436e-07
1.49798e-07
1.36672e-07
1.17603e-06
1.04775e-06
9.34505e-07
8.34443e-07
7.45955e-07
6.67631e-07
5.9824e-07
5.36703e-07
4.82078e-07
4.33537e-07
3.90358e-07
3.51909e-07
3.17633e-07
2.87043e-07
2.59712e-07
2.35263e-07
2.13366e-07
1.93732e-07
1.76105e-07
1.60261e-07
1.46003e-07
1.33156e-07
1.15674e-06
1.03023e-06
9.18579e-07
8.1995e-07
7.32749e-07
6.55584e-07
5.87237e-07
5.26644e-07
4.72871e-07
4.25102e-07
3.82623e-07
3.44807e-07
3.11106e-07
2.81039e-07
2.54183e-07
2.30169e-07
2.08668e-07
1.89397e-07
1.72103e-07
1.56565e-07
1.42587e-07
1.29997e-07
1.13863e-06
1.01385e-06
9.03731e-07
8.06478e-07
7.20512e-07
6.44456e-07
5.77105e-07
5.17406e-07
4.6444e-07
4.17398e-07
3.75576e-07
3.38354e-07
3.05191e-07
2.75611e-07
2.49198e-07
2.25585e-07
2.04451e-07
1.85513e-07
1.68524e-07
1.53264e-07
1.39541e-07
1.27185e-07
1.12255e-06
9.99305e-07
8.90562e-07
7.94537e-07
7.0967e-07
6.346e-07
5.68135e-07
5.09233e-07
4.56984e-07
4.10588e-07
3.6935e-07
3.32655e-07
2.99969e-07
2.70822e-07
2.44801e-07
2.21545e-07
2.00735e-07
1.82093e-07
1.65372e-07
1.50357e-07
1.36858e-07
1.24706e-07
1.10789e-06
9.86077e-07
8.78614e-07
7.83731e-07
6.99886e-07
6.25729e-07
5.60082e-07
5.01914e-07
4.50323e-07
4.0452e-07
3.63814e-07
3.276e-07
2.95347e-07
2.66592e-07
2.40925e-07
2.1799e-07
1.97472e-07
1.79094e-07
1.62614e-07
1.47817e-07
1.34517e-07
1.22546e-07
1.09485e-06
9.74339e-07
8.68032e-07
7.74179e-07
6.91252e-07
6.17916e-07
5.53002e-07
4.95491e-07
4.44489e-07
3.99214e-07
3.58983e-07
3.23196e-07
2.91328e-07
2.6292e-07
2.37566e-07
2.14914e-07
1.94651e-07
1.76505e-07
1.60236e-07
1.4563e-07
1.32504e-07
1.20693e-07
1.08344e-06
9.64081e-07
8.58801e-07
7.65861e-07
6.83747e-07
6.11136e-07
5.4687e-07
4.89938e-07
4.39454e-07
3.94644e-07
3.54829e-07
3.19416e-07
2.87885e-07
2.59779e-07
2.34698e-07
2.12292e-07
1.92251e-07
1.74306e-07
1.58218e-07
1.43778e-07
1.30802e-07
1.19126e-07
1.07362e-06
9.55276e-07
8.50889e-07
7.58744e-07
6.77337e-07
6.05355e-07
5.4165e-07
4.85219e-07
4.35182e-07
3.90773e-07
3.51317e-07
3.16226e-07
2.84983e-07
2.57137e-07
2.3229e-07
2.10094e-07
1.90244e-07
1.7247e-07
1.56536e-07
1.42236e-07
1.29385e-07
1.17823e-07
1.06537e-06
9.47876e-07
8.4425e-07
7.5278e-07
6.71972e-07
6.00524e-07
5.37294e-07
4.81286e-07
4.31628e-07
3.87556e-07
3.48403e-07
3.13583e-07
2.82584e-07
2.54956e-07
2.30306e-07
2.08286e-07
1.88596e-07
1.70966e-07
1.55162e-07
1.40978e-07
1.28231e-07
1.16762e-07
1.0586e-06
9.41816e-07
8.38819e-07
7.47907e-07
6.67595e-07
5.96586e-07
5.33748e-07
4.78088e-07
4.2874e-07
3.84946e-07
3.46041e-07
3.11442e-07
2.80642e-07
2.53193e-07
2.28702e-07
2.06829e-07
1.87269e-07
1.69759e-07
1.54064e-07
1.3998e-07
1.27321e-07
1.15925e-07
1.05331e-06
9.37089e-07
8.34583e-07
7.44106e-07
6.6418e-07
5.93514e-07
5.3098e-07
4.75592e-07
4.26487e-07
3.82908e-07
3.44196e-07
3.0977e-07
2.79124e-07
2.51814e-07
2.27448e-07
2.05686e-07
1.86226e-07
1.68808e-07
1.532e-07
1.39201e-07
1.26633e-07
1.15318e-07
1.05045e-06
9.34534e-07
8.32306e-07
7.42075e-07
6.62369e-07
5.91899e-07
5.29539e-07
4.74306e-07
4.25338e-07
3.81881e-07
3.43276e-07
3.08945e-07
2.78382e-07
2.51143e-07
2.26837e-07
2.05124e-07
1.85702e-07
1.68308e-07
1.52711e-07
1.38708e-07
1.2613e-07
1.15056e-07
1.17426e-06
1.0468e-06
9.34185e-07
8.3461e-07
7.4649e-07
6.68438e-07
5.99242e-07
5.37838e-07
4.83298e-07
4.34806e-07
3.91647e-07
3.53194e-07
3.18897e-07
2.88274e-07
2.60901e-07
2.36404e-07
2.14457e-07
1.94771e-07
1.77092e-07
1.61198e-07
1.46889e-07
1.33994e-07
1.17455e-06
1.04707e-06
9.34441e-07
8.34851e-07
7.46715e-07
6.68649e-07
5.99439e-07
5.38023e-07
4.83471e-07
4.34967e-07
3.91798e-07
3.53335e-07
3.19029e-07
2.88397e-07
2.61016e-07
2.36512e-07
2.14558e-07
1.94865e-07
1.7718e-07
1.6128e-07
1.46966e-07
1.34066e-07
1.17729e-06
1.04954e-06
9.36669e-07
8.36862e-07
7.48533e-07
6.70294e-07
6.00929e-07
5.39375e-07
4.84698e-07
4.36083e-07
3.92813e-07
3.5426e-07
3.19873e-07
2.89168e-07
2.6172e-07
2.37156e-07
2.15148e-07
1.95406e-07
1.77677e-07
1.61735e-07
1.47385e-07
1.34451e-07
1.18189e-06
1.05367e-06
9.40377e-07
8.40199e-07
7.51539e-07
6.73006e-07
6.03378e-07
5.41589e-07
4.86703e-07
4.379e-07
3.94462e-07
3.55758e-07
3.21236e-07
2.90409e-07
2.62851e-07
2.38188e-07
2.1609e-07
1.96268e-07
1.78465e-07
1.62458e-07
1.48047e-07
1.35059e-07
1.18772e-06
1.05894e-06
9.45148e-07
8.44519e-07
7.55456e-07
6.7656e-07
6.06608e-07
5.44528e-07
4.89379e-07
4.4034e-07
3.96689e-07
3.57792e-07
3.23096e-07
2.92111e-07
2.64411e-07
2.39619e-07
2.17404e-07
1.97474e-07
1.79575e-07
1.63479e-07
1.48987e-07
1.35925e-07
1.19546e-06
1.06594e-06
9.51484e-07
8.50263e-07
7.6067e-07
6.81298e-07
6.10918e-07
5.48452e-07
4.92957e-07
4.43605e-07
3.99672e-07
3.6052e-07
3.25593e-07
2.94399e-07
2.66509e-07
2.41545e-07
2.19173e-07
1.99101e-07
1.81071e-07
1.64857e-07
1.50258e-07
1.37097e-07
1.20509e-06
1.07467e-06
9.59412e-07
8.57468e-07
7.67225e-07
6.87269e-07
6.16363e-07
5.53422e-07
4.97498e-07
4.47758e-07
4.03474e-07
3.64004e-07
3.28789e-07
2.97333e-07
2.69205e-07
2.44024e-07
2.21454e-07
2.01202e-07
1.83008e-07
1.66643e-07
1.51906e-07
1.38618e-07
1.21671e-06
1.08524e-06
9.69028e-07
8.66229e-07
7.75216e-07
6.94565e-07
6.23031e-07
5.59523e-07
5.03086e-07
4.5288e-07
4.08173e-07
3.6832e-07
3.32754e-07
3.00981e-07
2.72563e-07
2.47117e-07
2.24305e-07
2.03832e-07
1.85435e-07
1.68885e-07
1.53978e-07
1.40535e-07
1.23038e-06
1.0977e-06
9.80398e-07
8.76617e-07
7.84715e-07
7.0326e-07
6.30998e-07
5.66829e-07
5.09791e-07
4.5904e-07
4.13837e-07
3.73531e-07
3.37553e-07
3.05403e-07
2.76641e-07
2.50879e-07
2.2778e-07
2.07042e-07
1.88403e-07
1.7163e-07
1.56518e-07
1.42887e-07
1.24612e-06
1.11208e-06
9.93564e-07
8.88677e-07
7.95772e-07
7.13407e-07
6.40317e-07
5.75395e-07
5.17672e-07
4.66296e-07
4.20521e-07
3.79694e-07
3.43239e-07
3.10652e-07
2.8149e-07
2.55362e-07
2.31925e-07
2.10878e-07
1.91954e-07
1.74919e-07
1.59565e-07
1.45712e-07
1.26376e-06
1.12827e-06
1.00843e-06
9.02335e-07
8.08334e-07
7.2497e-07
6.50969e-07
5.85214e-07
5.26729e-07
4.74656e-07
4.28243e-07
3.8683e-07
3.49838e-07
3.16757e-07
2.87141e-07
2.60595e-07
2.36774e-07
2.15372e-07
1.96121e-07
1.78785e-07
1.63153e-07
1.49042e-07
1.28378e-06
1.14666e-06
1.02534e-06
9.17907e-07
8.22677e-07
7.38191e-07
6.63163e-07
5.96469e-07
5.37124e-07
4.84262e-07
4.37125e-07
3.95047e-07
3.57443e-07
3.238e-07
2.93666e-07
2.66643e-07
2.42382e-07
2.20574e-07
2.00948e-07
1.83265e-07
1.67314e-07
1.52907e-07
1.30544e-06
1.16665e-06
1.0438e-06
9.34954e-07
8.38437e-07
7.52767e-07
6.76652e-07
6.08959e-07
5.48693e-07
4.94983e-07
4.47065e-07
4.04266e-07
3.65997e-07
3.3174e-07
3.01037e-07
2.73489e-07
2.48742e-07
2.26485e-07
2.06443e-07
1.88374e-07
1.72065e-07
1.57326e-07
1.32884e-06
1.18832e-06
1.06387e-06
9.53559e-07
8.55685e-07
7.68766e-07
6.91497e-07
6.22737e-07
5.61486e-07
5.06865e-07
4.58104e-07
4.14525e-07
3.75533e-07
3.40606e-07
3.09283e-07
2.81159e-07
2.55878e-07
2.33125e-07
2.12623e-07
1.94127e-07
1.77421e-07
1.62314e-07
1.3538e-06
1.21151e-06
1.08543e-06
9.73604e-07
8.74328e-07
7.86107e-07
7.07631e-07
6.37752e-07
5.75461e-07
5.19874e-07
4.70216e-07
4.25803e-07
3.86037e-07
3.50389e-07
3.18397e-07
2.8965e-07
2.63789e-07
2.40497e-07
2.19493e-07
2.0053e-07
1.83389e-07
1.67877e-07
1.3538e-06
1.21151e-06
1.08543e-06
9.73603e-07
8.74327e-07
7.86106e-07
7.0763e-07
6.37751e-07
5.7546e-07
5.19874e-07
4.70215e-07
4.25803e-07
3.86036e-07
3.50389e-07
3.18396e-07
2.8965e-07
2.63789e-07
2.40497e-07
2.19493e-07
2.0053e-07
1.83389e-07
1.67877e-07
1.32884e-06
1.18831e-06
1.06387e-06
9.53554e-07
8.55682e-07
7.68762e-07
6.91493e-07
6.22734e-07
5.61483e-07
5.06863e-07
4.58102e-07
4.14523e-07
3.75531e-07
3.40604e-07
3.09281e-07
2.81158e-07
2.55877e-07
2.33124e-07
2.12622e-07
1.94126e-07
1.7742e-07
1.62313e-07
1.30543e-06
1.16664e-06
1.04379e-06
9.34947e-07
8.3843e-07
7.52761e-07
6.76647e-07
6.08954e-07
5.48689e-07
4.94979e-07
4.47061e-07
4.04263e-07
3.65994e-07
3.31737e-07
3.01035e-07
2.73487e-07
2.4874e-07
2.26483e-07
2.06441e-07
1.88372e-07
1.72063e-07
1.57325e-07
1.28377e-06
1.14665e-06
1.02533e-06
9.17897e-07
8.22668e-07
7.38182e-07
6.63155e-07
5.96462e-07
5.37117e-07
4.84256e-07
4.3712e-07
3.95042e-07
3.57439e-07
3.23796e-07
2.93662e-07
2.6664e-07
2.42379e-07
2.20572e-07
2.00946e-07
1.83264e-07
1.67312e-07
1.52905e-07
1.26374e-06
1.12825e-06
1.00841e-06
9.02322e-07
8.08323e-07
7.24959e-07
6.50959e-07
5.85205e-07
5.26721e-07
4.74649e-07
4.28237e-07
3.86824e-07
3.49833e-07
3.16752e-07
2.87136e-07
2.60591e-07
2.3677e-07
2.15369e-07
1.96119e-07
1.78782e-07
1.63151e-07
1.4904e-07
1.2461e-06
1.11206e-06
9.93547e-07
8.88661e-07
7.95757e-07
7.13393e-07
6.40305e-07
5.75384e-07
5.17662e-07
4.66287e-07
4.20513e-07
3.79687e-07
3.43233e-07
3.10646e-07
2.81484e-07
2.55357e-07
2.31921e-07
2.10874e-07
1.9195e-07
1.74916e-07
1.59563e-07
1.45709e-07
1.23036e-06
1.09767e-06
9.80377e-07
8.76598e-07
7.84697e-07
7.03244e-07
6.30983e-07
5.66816e-07
5.09779e-07
4.5903e-07
4.13827e-07
3.73522e-07
3.37545e-07
3.05396e-07
2.76634e-07
2.50874e-07
2.27775e-07
2.07038e-07
1.88399e-07
1.71626e-07
1.56515e-07
1.42884e-07
1.21669e-06
1.08521e-06
9.69003e-07
8.66207e-07
7.75196e-07
6.94547e-07
6.23014e-07
5.59508e-07
5.03072e-07
4.52868e-07
4.08162e-07
3.68309e-07
3.32745e-07
3.00972e-07
2.72555e-07
2.4711e-07
2.24299e-07
2.03827e-07
1.85431e-07
1.68881e-07
1.53974e-07
1.40531e-07
1.20506e-06
1.07464e-06
9.59384e-07
8.57443e-07
7.67202e-07
6.87248e-07
6.16343e-07
5.53404e-07
4.97482e-07
4.47744e-07
4.03461e-07
3.63993e-07
3.28778e-07
2.97324e-07
2.69197e-07
2.44016e-07
2.21447e-07
2.01196e-07
1.83002e-07
1.66638e-07
1.51901e-07
1.38615e-07
1.19542e-06
1.0659e-06
9.51452e-07
8.50234e-07
7.60643e-07
6.81274e-07
6.10896e-07
5.48432e-07
4.92939e-07
4.43589e-07
3.99657e-07
3.60507e-07
3.25581e-07
2.94389e-07
2.665e-07
2.41536e-07
2.19165e-07
1.99094e-07
1.81065e-07
1.64852e-07
1.50253e-07
1.37092e-07
1.18768e-06
1.0589e-06
9.45111e-07
8.44486e-07
7.55426e-07
6.76533e-07
6.06584e-07
5.44505e-07
4.89359e-07
4.40322e-07
3.96672e-07
3.57777e-07
3.23082e-07
2.92099e-07
2.644e-07
2.39609e-07
2.17395e-07
1.97467e-07
1.79568e-07
1.63473e-07
1.48982e-07
1.35921e-07
1.18184e-06
1.05362e-06
9.40336e-07
8.40162e-07
7.51506e-07
6.72975e-07
6.03351e-07
5.41564e-07
4.86681e-07
4.3788e-07
3.94444e-07
3.55742e-07
3.21221e-07
2.90395e-07
2.62839e-07
2.38177e-07
2.16081e-07
1.96259e-07
1.78458e-07
1.62451e-07
1.48041e-07
1.35054e-07
1.17724e-06
1.04949e-06
9.36624e-07
8.36821e-07
7.48495e-07
6.7026e-07
6.00898e-07
5.39347e-07
4.84673e-07
4.3606e-07
3.92793e-07
3.54242e-07
3.19856e-07
2.89153e-07
2.61707e-07
2.37144e-07
2.15137e-07
1.95397e-07
1.77668e-07
1.61728e-07
1.47378e-07
1.34445e-07
1.17449e-06
1.04702e-06
9.34391e-07
8.34805e-07
7.46674e-07
6.68611e-07
5.99405e-07
5.37992e-07
4.83443e-07
4.34942e-07
3.91775e-07
3.53315e-07
3.19011e-07
2.88381e-07
2.61001e-07
2.36499e-07
2.14546e-07
1.94855e-07
1.77171e-07
1.61271e-07
1.46959e-07
1.34059e-07
1.17419e-06
1.04674e-06
9.3413e-07
8.34561e-07
7.46445e-07
6.68397e-07
5.99205e-07
5.37805e-07
4.83268e-07
4.34778e-07
3.91622e-07
3.53171e-07
3.18877e-07
2.88256e-07
2.60885e-07
2.3639e-07
2.14444e-07
1.94759e-07
1.77082e-07
1.61188e-07
1.46881e-07
1.33987e-07
1.1742e-06
1.04674e-06
9.34134e-07
8.34564e-07
7.46448e-07
6.684e-07
5.99207e-07
5.37807e-07
4.8327e-07
4.3478e-07
3.91624e-07
3.53173e-07
3.18878e-07
2.88257e-07
2.60886e-07
2.36391e-07
2.14445e-07
1.9476e-07
1.77083e-07
1.61189e-07
1.46882e-07
1.33987e-07
1.17449e-06
1.04702e-06
9.34395e-07
8.34809e-07
7.46677e-07
6.68614e-07
5.99407e-07
5.37994e-07
4.83445e-07
4.34944e-07
3.91777e-07
3.53316e-07
3.19012e-07
2.88382e-07
2.61002e-07
2.365e-07
2.14547e-07
1.94856e-07
1.77172e-07
1.61272e-07
1.46959e-07
1.3406e-07
1.17724e-06
1.0495e-06
9.36627e-07
8.36824e-07
7.48498e-07
6.70262e-07
6.009e-07
5.39349e-07
4.84675e-07
4.36062e-07
3.92794e-07
3.54243e-07
3.19858e-07
2.89154e-07
2.61708e-07
2.37145e-07
2.15138e-07
1.95397e-07
1.77669e-07
1.61728e-07
1.47379e-07
1.34446e-07
1.18184e-06
1.05363e-06
9.4034e-07
8.40165e-07
7.51508e-07
6.72978e-07
6.03353e-07
5.41566e-07
4.86682e-07
4.37882e-07
3.94445e-07
3.55743e-07
3.21222e-07
2.90396e-07
2.6284e-07
2.38178e-07
2.16081e-07
1.9626e-07
1.78458e-07
1.62452e-07
1.48042e-07
1.35054e-07
1.18769e-06
1.0589e-06
9.45115e-07
8.44488e-07
7.55428e-07
6.76535e-07
6.06586e-07
5.44507e-07
4.89361e-07
4.40323e-07
3.96673e-07
3.57779e-07
3.23083e-07
2.921e-07
2.64401e-07
2.3961e-07
2.17396e-07
1.97467e-07
1.79568e-07
1.63473e-07
1.48983e-07
1.35921e-07
1.19543e-06
1.06591e-06
9.51455e-07
8.50237e-07
7.60645e-07
6.81276e-07
6.10898e-07
5.48434e-07
4.92941e-07
4.4359e-07
3.99658e-07
3.60508e-07
3.25582e-07
2.94389e-07
2.66501e-07
2.41537e-07
2.19166e-07
1.99095e-07
1.81066e-07
1.64852e-07
1.50253e-07
1.37093e-07
1.20507e-06
1.07464e-06
9.59387e-07
8.57445e-07
7.67204e-07
6.8725e-07
6.16345e-07
5.53406e-07
4.97483e-07
4.47745e-07
4.03462e-07
3.63994e-07
3.28779e-07
2.97325e-07
2.69197e-07
2.44017e-07
2.21448e-07
2.01197e-07
1.83003e-07
1.66638e-07
1.51902e-07
1.38615e-07
1.21669e-06
1.08521e-06
9.69006e-07
8.6621e-07
7.75198e-07
6.94549e-07
6.23016e-07
5.5951e-07
5.03073e-07
4.52869e-07
4.08163e-07
3.6831e-07
3.32746e-07
3.00973e-07
2.72556e-07
2.47111e-07
2.243e-07
2.03827e-07
1.85431e-07
1.68881e-07
1.53975e-07
1.40532e-07
1.23036e-06
1.09768e-06
9.8038e-07
8.766e-07
7.84699e-07
7.03246e-07
6.30985e-07
5.66817e-07
5.0978e-07
4.59031e-07
4.13828e-07
3.73523e-07
3.37546e-07
3.05397e-07
2.76635e-07
2.50874e-07
2.27775e-07
2.07038e-07
1.88399e-07
1.71627e-07
1.56515e-07
1.42884e-07
1.2461e-06
1.11207e-06
9.93549e-07
8.88663e-07
7.95759e-07
7.13395e-07
6.40306e-07
5.75386e-07
5.17663e-07
4.66288e-07
4.20514e-07
3.79688e-07
3.43233e-07
3.10647e-07
2.81485e-07
2.55358e-07
2.31921e-07
2.10874e-07
1.91951e-07
1.74916e-07
1.59563e-07
1.4571e-07
1.26375e-06
1.12826e-06
1.00841e-06
9.02324e-07
8.08324e-07
7.24961e-07
6.5096e-07
5.85206e-07
5.26722e-07
4.7465e-07
4.28237e-07
3.86825e-07
3.49833e-07
3.16753e-07
2.87137e-07
2.60592e-07
2.36771e-07
2.15369e-07
1.96119e-07
1.78783e-07
1.63151e-07
1.4904e-07
1.28377e-06
1.14666e-06
1.02534e-06
9.17899e-07
8.2267e-07
7.38184e-07
6.63157e-07
5.96464e-07
5.37119e-07
4.84257e-07
4.37121e-07
3.95043e-07
3.5744e-07
3.23797e-07
2.93663e-07
2.6664e-07
2.42379e-07
2.20572e-07
2.00947e-07
1.83264e-07
1.67312e-07
1.52906e-07
1.30543e-06
1.16664e-06
1.04379e-06
9.34949e-07
8.38432e-07
7.52763e-07
6.76648e-07
6.08955e-07
5.4869e-07
4.9498e-07
4.47062e-07
4.04264e-07
3.65995e-07
3.31737e-07
3.01035e-07
2.73487e-07
2.48741e-07
2.26483e-07
2.06441e-07
1.88373e-07
1.72064e-07
1.57325e-07
1.32884e-06
1.18832e-06
1.06387e-06
9.53556e-07
8.55683e-07
7.68763e-07
6.91494e-07
6.22735e-07
5.61484e-07
5.06864e-07
4.58102e-07
4.14523e-07
3.75532e-07
3.40605e-07
3.09282e-07
2.81158e-07
2.55877e-07
2.33124e-07
2.12622e-07
1.94127e-07
1.77421e-07
1.62313e-07
1.3538e-06
1.21151e-06
1.08543e-06
9.73604e-07
8.74328e-07
7.86107e-07
7.07631e-07
6.37752e-07
5.75461e-07
5.19874e-07
4.70216e-07
4.25803e-07
3.86037e-07
3.50389e-07
3.18397e-07
2.8965e-07
2.63789e-07
2.40497e-07
2.19493e-07
2.0053e-07
1.83389e-07
1.67877e-07
1.3538e-06
1.21151e-06
1.08543e-06
9.73606e-07
8.7433e-07
7.86108e-07
7.07632e-07
6.37753e-07
5.75462e-07
5.19875e-07
4.70217e-07
4.25804e-07
3.86037e-07
3.5039e-07
3.18397e-07
2.8965e-07
2.6379e-07
2.40498e-07
2.19494e-07
2.00531e-07
1.8339e-07
1.67877e-07
1.32884e-06
1.18832e-06
1.06387e-06
9.5356e-07
8.55687e-07
7.68767e-07
6.91497e-07
6.22738e-07
5.61487e-07
5.06866e-07
4.58104e-07
4.14525e-07
3.75533e-07
3.40606e-07
3.09283e-07
2.81159e-07
2.55878e-07
2.33125e-07
2.12623e-07
1.94127e-07
1.77421e-07
1.62314e-07
1.30544e-06
1.16665e-06
1.0438e-06
9.34955e-07
8.38438e-07
7.52768e-07
6.76653e-07
6.0896e-07
5.48694e-07
4.94984e-07
4.47066e-07
4.04267e-07
3.65998e-07
3.3174e-07
3.01038e-07
2.73489e-07
2.48742e-07
2.26485e-07
2.06443e-07
1.88374e-07
1.72065e-07
1.57326e-07
1.28378e-06
1.14667e-06
1.02535e-06
9.17908e-07
8.22678e-07
7.38191e-07
6.63164e-07
5.9647e-07
5.37124e-07
4.84262e-07
4.37125e-07
3.95047e-07
3.57444e-07
3.238e-07
2.93666e-07
2.66643e-07
2.42382e-07
2.20574e-07
2.00949e-07
1.83266e-07
1.67314e-07
1.52907e-07
1.26376e-06
1.12827e-06
1.00843e-06
9.02336e-07
8.08335e-07
7.24971e-07
6.50969e-07
5.85215e-07
5.2673e-07
4.74657e-07
4.28244e-07
3.86831e-07
3.49838e-07
3.16758e-07
2.87141e-07
2.60595e-07
2.36774e-07
2.15372e-07
1.96121e-07
1.78785e-07
1.63153e-07
1.49042e-07
1.24612e-06
1.11208e-06
9.93565e-07
8.88677e-07
7.95773e-07
7.13407e-07
6.40317e-07
5.75396e-07
5.17672e-07
4.66296e-07
4.20522e-07
3.79694e-07
3.4324e-07
3.10653e-07
2.8149e-07
2.55362e-07
2.31925e-07
2.10878e-07
1.91954e-07
1.74919e-07
1.59566e-07
1.45712e-07
1.23038e-06
1.0977e-06
9.80399e-07
8.76617e-07
7.84715e-07
7.03261e-07
6.30998e-07
5.66829e-07
5.09791e-07
4.59041e-07
4.13837e-07
3.73531e-07
3.37553e-07
3.05403e-07
2.76641e-07
2.5088e-07
2.2778e-07
2.07042e-07
1.88403e-07
1.7163e-07
1.56518e-07
1.42887e-07
1.21672e-06
1.08524e-06
9.69028e-07
8.6623e-07
7.75217e-07
6.94566e-07
6.23032e-07
5.59524e-07
5.03086e-07
4.52881e-07
4.08173e-07
3.6832e-07
3.32754e-07
3.00981e-07
2.72563e-07
2.47117e-07
2.24305e-07
2.03832e-07
1.85435e-07
1.68885e-07
1.53978e-07
1.40535e-07
1.20509e-06
1.07467e-06
9.59413e-07
8.57469e-07
7.67226e-07
6.87269e-07
6.16363e-07
5.53422e-07
4.97498e-07
4.47759e-07
4.03474e-07
3.64005e-07
3.28789e-07
2.97333e-07
2.69205e-07
2.44024e-07
2.21454e-07
2.01202e-07
1.83008e-07
1.66643e-07
1.51906e-07
1.38619e-07
1.19546e-06
1.06594e-06
9.51485e-07
8.50264e-07
7.6067e-07
6.81298e-07
6.10918e-07
5.48453e-07
4.92957e-07
4.43605e-07
3.99672e-07
3.6052e-07
3.25593e-07
2.94399e-07
2.6651e-07
2.41545e-07
2.19173e-07
1.99101e-07
1.81071e-07
1.64857e-07
1.50258e-07
1.37097e-07
1.18773e-06
1.05894e-06
9.45148e-07
8.44519e-07
7.55456e-07
6.76561e-07
6.06609e-07
5.44528e-07
4.89379e-07
4.4034e-07
3.96689e-07
3.57792e-07
3.23096e-07
2.92111e-07
2.64411e-07
2.39619e-07
2.17404e-07
1.97474e-07
1.79575e-07
1.63479e-07
1.48987e-07
1.35925e-07
1.18189e-06
1.05367e-06
9.40377e-07
8.40199e-07
7.51539e-07
6.73006e-07
6.03379e-07
5.4159e-07
4.86703e-07
4.37901e-07
3.94462e-07
3.55758e-07
3.21236e-07
2.90409e-07
2.62851e-07
2.38188e-07
2.1609e-07
1.96268e-07
1.78465e-07
1.62458e-07
1.48047e-07
1.35059e-07
1.17729e-06
1.04954e-06
9.36669e-07
8.36862e-07
7.48533e-07
6.70294e-07
6.00929e-07
5.39375e-07
4.84698e-07
4.36083e-07
3.92813e-07
3.5426e-07
3.19873e-07
2.89168e-07
2.6172e-07
2.37156e-07
2.15148e-07
1.95406e-07
1.77677e-07
1.61735e-07
1.47385e-07
1.34451e-07
1.17455e-06
1.04707e-06
9.34441e-07
8.34851e-07
7.46715e-07
6.68649e-07
5.99439e-07
5.38023e-07
4.83471e-07
4.34967e-07
3.91798e-07
3.53335e-07
3.19029e-07
2.88398e-07
2.61016e-07
2.36512e-07
2.14558e-07
1.94865e-07
1.7718e-07
1.6128e-07
1.46966e-07
1.34066e-07
1.17426e-06
1.0468e-06
9.34185e-07
8.3461e-07
7.4649e-07
6.68438e-07
5.99242e-07
5.37838e-07
4.83298e-07
4.34806e-07
3.91647e-07
3.53194e-07
3.18897e-07
2.88274e-07
2.60901e-07
2.36404e-07
2.14457e-07
1.94771e-07
1.77092e-07
1.61198e-07
1.46889e-07
1.33994e-07
1.17094e-06
1.17109e-06
1.17367e-06
1.17795e-06
1.18324e-06
1.1901e-06
1.19844e-06
1.20827e-06
1.21957e-06
1.23229e-06
1.24622e-06
1.26179e-06
1.27819e-06
1.29548e-06
1.31343e-06
1.24181e-06
1.21871e-06
1.19673e-06
1.17603e-06
1.15673e-06
1.13862e-06
1.12255e-06
1.10788e-06
1.09485e-06
1.08343e-06
1.07362e-06
1.06536e-06
1.05859e-06
1.05331e-06
1.04965e-06
1.03792e-06
1.03805e-06
1.04034e-06
1.04413e-06
1.04886e-06
1.05501e-06
1.06251e-06
1.07141e-06
1.08168e-06
1.0933e-06
1.1061e-06
1.12047e-06
1.13572e-06
1.15192e-06
1.16886e-06
1.10775e-06
1.08663e-06
1.06658e-06
1.04775e-06
1.03023e-06
1.01384e-06
9.99302e-07
9.86075e-07
9.74337e-07
9.6408e-07
9.55274e-07
9.47875e-07
9.41815e-07
9.37088e-07
9.33897e-07
9.20889e-07
9.21008e-07
9.23035e-07
9.26404e-07
9.30629e-07
9.36146e-07
9.42916e-07
9.50971e-07
9.60316e-07
9.70942e-07
9.8272e-07
9.95987e-07
1.01018e-06
1.02534e-06
1.04132e-06
9.89301e-07
9.69963e-07
9.5166e-07
9.34502e-07
9.18577e-07
9.03729e-07
8.9056e-07
8.78613e-07
8.6803e-07
8.58799e-07
8.50888e-07
8.44249e-07
8.38818e-07
8.34582e-07
8.31795e-07
8.1786e-07
8.17965e-07
8.19767e-07
8.22761e-07
8.26545e-07
8.31503e-07
8.37615e-07
8.4492e-07
8.53435e-07
8.63164e-07
8.74006e-07
8.8626e-07
8.99467e-07
9.1366e-07
9.28711e-07
8.84541e-07
8.66821e-07
8.5009e-07
8.34441e-07
8.19948e-07
8.06477e-07
7.94535e-07
7.8373e-07
7.74178e-07
7.6586e-07
7.58743e-07
7.52779e-07
7.47906e-07
7.44104e-07
7.41668e-07
7.27094e-07
7.27188e-07
7.28792e-07
7.31456e-07
7.3485e-07
7.39311e-07
7.44835e-07
7.51469e-07
7.59238e-07
7.68154e-07
7.78142e-07
7.89467e-07
8.01754e-07
8.15039e-07
8.29209e-07
7.91808e-07
7.75554e-07
7.60243e-07
7.45953e-07
7.32747e-07
7.20511e-07
7.09669e-07
6.99885e-07
6.91251e-07
6.83746e-07
6.77336e-07
6.71971e-07
6.67594e-07
6.64178e-07
6.62046e-07
6.47074e-07
6.47159e-07
6.48589e-07
6.50963e-07
6.54011e-07
6.58031e-07
6.63031e-07
6.69061e-07
6.76157e-07
6.84337e-07
6.93545e-07
7.04015e-07
7.15448e-07
7.27878e-07
7.4121e-07
7.09643e-07
6.94719e-07
6.80693e-07
6.67631e-07
6.55583e-07
6.44455e-07
6.34599e-07
6.25729e-07
6.17915e-07
6.11135e-07
6.05354e-07
6.00523e-07
5.96585e-07
5.93512e-07
5.91644e-07
5.76476e-07
5.76553e-07
5.77831e-07
5.79948e-07
5.82689e-07
5.86316e-07
5.90847e-07
5.96336e-07
6.02823e-07
6.10335e-07
6.18831e-07
6.28516e-07
6.39152e-07
6.5078e-07
6.63316e-07
6.36772e-07
6.23054e-07
6.10193e-07
5.9824e-07
5.87237e-07
5.77104e-07
5.68134e-07
5.60081e-07
5.53001e-07
5.46869e-07
5.41649e-07
5.37293e-07
5.33746e-07
5.30978e-07
5.29339e-07
5.14142e-07
5.14212e-07
5.15355e-07
5.17247e-07
5.19715e-07
5.22991e-07
5.27101e-07
5.32103e-07
5.3804e-07
5.44945e-07
5.5279e-07
5.61754e-07
5.71647e-07
5.8252e-07
5.94302e-07
5.72079e-07
5.59458e-07
5.47653e-07
5.36703e-07
5.26644e-07
5.17406e-07
5.09233e-07
5.01913e-07
4.9549e-07
4.89937e-07
4.85217e-07
4.81285e-07
4.78086e-07
4.7559e-07
4.74149e-07
4.59059e-07
4.59124e-07
4.60148e-07
4.6184e-07
4.64066e-07
4.67029e-07
4.70762e-07
4.75325e-07
4.80763e-07
4.87114e-07
4.94364e-07
5.02665e-07
5.11869e-07
5.22031e-07
5.33098e-07
5.14586e-07
5.02965e-07
4.92117e-07
4.82078e-07
4.72871e-07
4.6444e-07
4.56983e-07
4.50322e-07
4.44488e-07
4.39453e-07
4.35181e-07
4.31626e-07
4.28738e-07
4.26484e-07
4.25216e-07
4.10343e-07
4.10404e-07
4.11322e-07
4.12838e-07
4.14848e-07
4.17531e-07
4.20926e-07
4.25092e-07
4.30078e-07
4.35925e-07
4.42628e-07
4.5032e-07
4.58883e-07
4.68377e-07
4.78766e-07
4.63439e-07
4.5273e-07
4.42752e-07
4.33537e-07
4.25102e-07
4.17398e-07
4.10588e-07
4.04519e-07
3.99213e-07
3.94643e-07
3.90771e-07
3.87554e-07
3.84944e-07
3.82906e-07
3.81786e-07
3.6722e-07
3.67277e-07
3.68103e-07
3.69463e-07
3.7128e-07
3.73713e-07
3.76803e-07
3.80611e-07
3.85186e-07
3.90571e-07
3.96772e-07
4.03904e-07
4.11875e-07
4.20741e-07
4.30485e-07
4.17886e-07
4.08012e-07
3.98826e-07
3.90359e-07
3.82624e-07
3.75576e-07
3.69349e-07
3.63813e-07
3.58982e-07
3.54828e-07
3.51315e-07
3.48401e-07
3.46038e-07
3.44193e-07
3.43203e-07
3.29014e-07
3.29068e-07
3.29811e-07
3.31033e-07
3.32678e-07
3.34886e-07
3.37703e-07
3.41186e-07
3.45388e-07
3.50351e-07
3.5609e-07
3.62706e-07
3.70126e-07
3.78405e-07
3.87539e-07
3.7727e-07
3.6816e-07
3.59697e-07
3.51909e-07
3.44807e-07
3.38354e-07
3.32655e-07
3.27599e-07
3.23195e-07
3.19415e-07
3.16224e-07
3.13581e-07
3.1144e-07
3.09768e-07
3.08889e-07
2.95131e-07
2.95183e-07
2.95853e-07
2.96952e-07
2.98444e-07
3.00451e-07
3.0302e-07
3.0621e-07
3.10071e-07
3.14649e-07
3.19962e-07
3.26101e-07
3.33011e-07
3.40741e-07
3.49298e-07
3.41014e-07
3.32605e-07
3.24803e-07
3.17633e-07
3.11107e-07
3.05191e-07
2.99969e-07
2.95347e-07
2.91327e-07
2.87883e-07
2.84982e-07
2.82582e-07
2.8064e-07
2.79122e-07
2.78338e-07
2.65055e-07
2.65104e-07
2.65709e-07
2.66699e-07
2.68053e-07
2.69879e-07
2.72226e-07
2.7515e-07
2.78701e-07
2.82925e-07
2.87846e-07
2.93544e-07
2.9998e-07
3.07198e-07
3.1521e-07
3.08614e-07
3.00846e-07
2.93649e-07
2.87044e-07
2.81039e-07
2.75611e-07
2.70822e-07
2.66592e-07
2.62919e-07
2.59778e-07
2.57136e-07
2.54954e-07
2.5319e-07
2.51811e-07
2.51109e-07
2.3833e-07
2.38377e-07
2.38924e-07
2.39818e-07
2.41048e-07
2.42712e-07
2.44857e-07
2.47539e-07
2.50807e-07
2.54707e-07
2.59267e-07
2.64556e-07
2.70552e-07
2.77292e-07
2.84792e-07
2.79627e-07
2.72445e-07
2.65803e-07
2.59712e-07
2.54184e-07
2.49198e-07
2.44801e-07
2.40925e-07
2.37565e-07
2.34697e-07
2.32289e-07
2.30303e-07
2.287e-07
2.27445e-07
2.26811e-07
2.14559e-07
2.14604e-07
2.151e-07
2.15906e-07
2.17026e-07
2.18543e-07
2.20506e-07
2.22969e-07
2.25979e-07
2.29582e-07
2.33807e-07
2.38719e-07
2.44305e-07
2.50599e-07
2.57617e-07
2.53661e-07
2.47017e-07
2.40882e-07