/*--------------------------------*- C++ -*----------------------------------*\
| =========                 |                                                 |
| \\      /  F ield         | OpenFOAM Extend Project: Open source CFD        |
|  \\    /   O peration     | Version:  1.6-ext                               |
|   \\  /    A nd           | Web:      www.extend-project.de                 |
|    \\/     M anipulation  |                                                 |
\*---------------------------------------------------------------------------*/
FoamFile
{
    version     2.0;
    format      ascii;
    class       volScalarField;
    location    "1.1";
    object      p;
}
// * * * * * * * * * * * * * * * * * * * * * * * * * * * * * * * * * * * * * //

dimensions      [0 2 -2 0 0 0 0];

internalField   nonuniform List<scalar> 
70
(
-0.117535
-0.0643071
-0.0204195
0.0133269
0.0333561
0.0436472
0.0468608
-0.105897
-0.0836855
-0.0547064
-0.028858
-0.0114856
-0.00236421
0.0013785
0.00208992
0.000772792
-0.0699027
-0.0576742
-0.0367497
-0.0181551
-0.00610226
-4.33526e-05
0.00214732
0.00215727
0.00047025
-0.0296052
-0.0264253
-0.0169414
-0.0074891
-0.00117551
0.00185022
0.00258345
0.00201286
0.000172774
0.000975476
-0.00311986
-0.00211713
0.000453088
0.00233865
0.0029599
0.00255843
0.00161899
-0.00012405
0.0196162
0.0114039
0.0072228
0.00525368
0.00409867
0.00308771
0.00202313
0.00100109
-0.000388369
0.0294737
0.0188767
0.0117036
0.00715735
0.00431372
0.00247525
0.00120618
0.000326015
-0.000549966
0.0313569
0.0191342
0.0105531
0.00516047
0.00206166
0.000385095
-0.000487342
-0.000882322
-0.000934848
)
;

boundaryField
{
    inlet
    {
        type            zeroGradient;
    }
    outlet
    {
        type            totalPressure;
        rho             none;
        psi             none;
        gamma           1;
        p0              uniform 0;
        value           uniform 0;
    }
    fixedWalls
    {
        type            zeroGradient;
    }
    frontAndBack
    {
        type            empty;
    }
    procBoundary1to2
    {
        type            processor;
        value           nonuniform List<scalar> 7(-0.141656 -0.0392377 0.0071049 0.036111 0.052511 0.0606589 0.0643579);
    }
    procBoundary1to0
    {
        type            processor;
        value           nonuniform List<scalar> 9(-0.116927 -0.0836267 -0.0569525 -0.0320725 -0.0140343 -0.0039055 0.000628824 0.00186654 0.00104748);
    }
}


// ************************************************************************* //
