/*--------------------------------*- C++ -*----------------------------------*\
| =========                 |                                                 |
| \\      /  F ield         | OpenFOAM Extend Project: Open source CFD        |
|  \\    /   O peration     | Version:  1.6-ext                               |
|   \\  /    A nd           | Web:      www.extend-project.de                 |
|    \\/     M anipulation  |                                                 |
\*---------------------------------------------------------------------------*/
FoamFile
{
    version     2.0;
    format      ascii;
    class       surfaceScalarField;
    location    "1.3";
    object      phi;
}
// * * * * * * * * * * * * * * * * * * * * * * * * * * * * * * * * * * * * * //

dimensions      [0 3 -1 0 0 0 0];

internalField   nonuniform List<scalar> 
127
(
0.000161109
3.88915e-05
0.000118309
4.27992e-05
8.43699e-05
3.39394e-05
5.9312e-05
2.50579e-05
4.0769e-05
1.85431e-05
2.58286e-05
1.49404e-05
1.28064e-05
1.30222e-05
2.75074e-06
1.00556e-05
2.75074e-06
0.000205272
3.36196e-05
0.000191468
5.66034e-05
0.000165146
6.02606e-05
0.000134278
5.59265e-05
0.000102665
5.01556e-05
7.13678e-05
4.62379e-05
4.07655e-05
4.36246e-05
1.38696e-05
3.69515e-05
1.66204e-05
0.000208798
2.48213e-05
0.000207735
5.76663e-05
0.00019305
7.49463e-05
0.000167613
8.13629e-05
0.000135287
8.24821e-05
9.86323e-05
8.28925e-05
5.94005e-05
8.28564e-05
2.20482e-05
7.43038e-05
3.86686e-05
0.00020509
1.97313e-05
0.000206751
5.60056e-05
0.000198153
8.35443e-05
0.000178633
0.000100883
0.00014994
0.000111175
0.000113803
0.000119029
7.16298e-05
0.00012503
2.81059e-05
0.000117828
6.67745e-05
0.000202441
1.72906e-05
0.00020371
5.47358e-05
0.000198176
8.9079e-05
0.000183549
0.00011551
0.000159683
0.00013504
0.000126716
0.000151997
8.44165e-05
0.00016733
3.58342e-05
0.00016641
0.000102609
0.000201402
1.58889e-05
0.000202807
5.33304e-05
0.000200092
9.17936e-05
0.00019049
0.000125112
0.000172567
0.000152963
0.000144857
0.000179707
0.000104607
0.000207579
5.04259e-05
0.000220591
0.000153035
0.000201423
1.44662e-05
0.000204272
5.04811e-05
0.000205464
9.0602e-05
0.000202213
0.000128363
0.000192469
0.000162707
0.000174018
0.000198158
0.000140641
0.000240956
8.1624e-05
0.000279608
0.000234659
0.000202025
0.000207393
0.000213745
0.000218533
0.000219575
0.000214355
0.000192984
0.000133601
)
;

boundaryField
{
    inlet
    {
        type            calculated;
        value           nonuniform List<scalar> 8(-0.0002 -0.0002 -0.0002 -0.0002 -0.0002 -0.0002 -0.0002 -0.0002);
    }
    outlet
    {
        type            calculated;
        value           nonuniform 0();
    }
    fixedWalls
    {
        type            calculated;
        value           uniform 0;
    }
    frontAndBack
    {
        type            empty;
    }
    procBoundary3to2
    {
        type            processor;
        value           nonuniform List<scalar> 9(1.24413e-05 4.51134e-05 8.42498e-05 0.000123574 0.000161665 0.000203378 0.000262328 0.000338991 0.000368259);
    }
}


// ************************************************************************* //
