/*--------------------------------*- C++ -*----------------------------------*\
| =========                 |                                                 |
| \\      /  F ield         | OpenFOAM Extend Project: Open source CFD        |
|  \\    /   O peration     | Version:  1.6-ext                               |
|   \\  /    A nd           | Web:      www.extend-project.de                 |
|    \\/     M anipulation  |                                                 |
\*---------------------------------------------------------------------------*/
FoamFile
{
    version     2.0;
    format      ascii;
    class       vectorField;
    location    "0.85";
    object      accumulatedFluidInterfaceDisplacement;
}
// * * * * * * * * * * * * * * * * * * * * * * * * * * * * * * * * * * * * * //


338
(
(1.12934e-07 2.32432e-07 7.37426e-27)
(3.73748e-07 3.00908e-07 -9.22592e-27)
(1.59478e-06 1.53187e-05 -8.20184e-27)
(1.68426e-06 1.50653e-05 6.38467e-28)
(1.69316e-06 1.47254e-05 3.25152e-27)
(1.69923e-06 1.43826e-05 1.64751e-26)
(1.70231e-06 1.40393e-05 4.74943e-26)
(1.70314e-06 1.36971e-05 -6.64744e-27)
(1.70243e-06 1.33565e-05 8.87838e-27)
(1.70082e-06 1.30176e-05 3.14293e-26)
(1.69879e-06 1.26801e-05 -3.62058e-26)
(1.69667e-06 1.23435e-05 6.47573e-27)
(1.69463e-06 1.20072e-05 5.95544e-26)
(1.69274e-06 1.16705e-05 -6.32089e-27)
(1.69095e-06 1.1333e-05 1.52706e-26)
(1.68915e-06 1.0994e-05 2.03757e-26)
(1.68717e-06 1.06533e-05 -3.11175e-26)
(1.6848e-06 1.03106e-05 -2.22189e-26)
(1.68183e-06 9.96573e-06 -5.24165e-27)
(1.67802e-06 9.61887e-06 1.66248e-26)
(1.67312e-06 9.27015e-06 1.47731e-27)
(1.6669e-06 8.91992e-06 -3.16942e-27)
(1.65913e-06 8.56864e-06 7.61365e-28)
(1.64961e-06 8.2169e-06 2.07237e-26)
(1.63815e-06 7.8654e-06 2.57034e-26)
(1.62459e-06 7.51493e-06 -3.49158e-27)
(1.60881e-06 7.16637e-06 -5.25713e-27)
(1.59071e-06 6.82067e-06 -1.06669e-27)
(1.57022e-06 6.4788e-06 9.02074e-27)
(1.54733e-06 6.14178e-06 1.29949e-26)
(1.52204e-06 5.81062e-06 -6.9576e-28)
(1.49441e-06 5.48631e-06 -1.72394e-27)
(1.46452e-06 5.16982e-06 -1.45189e-26)
(1.43249e-06 4.86205e-06 6.16351e-27)
(1.39847e-06 4.56385e-06 1.29087e-26)
(1.36265e-06 4.27596e-06 2.91996e-27)
(1.32522e-06 3.99903e-06 6.14862e-27)
(1.28642e-06 3.7336e-06 7.14504e-27)
(1.24646e-06 3.48007e-06 1.10161e-26)
(1.20562e-06 3.23874e-06 4.84821e-28)
(1.16412e-06 3.00977e-06 -1.56746e-27)
(1.12223e-06 2.79319e-06 3.51756e-28)
(1.08018e-06 2.5889e-06 3.67451e-27)
(1.03821e-06 2.39667e-06 2.43963e-27)
(9.9652e-07 2.21619e-06 4.10854e-27)
(9.55311e-07 2.04701e-06 -6.79941e-28)
(9.14748e-07 1.88863e-06 -2.9454e-27)
(8.74971e-07 1.74043e-06 2.1086e-27)
(8.36091e-07 1.60177e-06 -3.85378e-27)
(7.98186e-07 1.47196e-06 -2.971e-27)
(7.61301e-07 1.35026e-06 8.51391e-27)
(7.25452e-07 1.23596e-06 9.26489e-27)
(6.90618e-07 1.12832e-06 -2.99803e-27)
(6.56749e-07 1.02667e-06 -1.06292e-27)
(6.23765e-07 9.30344e-07 1.18591e-27)
(5.91556e-07 8.38753e-07 -1.11916e-26)
(5.59983e-07 7.51375e-07 -3.92981e-27)
(5.28879e-07 6.67769e-07 5.01268e-27)
(4.98052e-07 5.87598e-07 -2.15364e-27)
(4.67279e-07 5.10635e-07 5.50803e-27)
(4.36313e-07 4.36782e-07 6.65053e-27)
(4.04879e-07 3.66088e-07 -4.07337e-27)
(1.02408e-06 1.54033e-05 -6.28234e-28)
(1.34759e-06 1.5404e-05 4.7829e-27)
(4.56797e-07 1.53085e-05 3.91208e-26)
(7.01155e-07 1.5398e-05 -6.0418e-27)
(1.28062e-07 2.97864e-07 1.36232e-27)
(1.44149e-07 3.68844e-07 1.78563e-27)
(1.60375e-07 4.43011e-07 4.31949e-29)
(1.76445e-07 5.20315e-07 2.63073e-27)
(1.92082e-07 6.0085e-07 -1.78994e-27)
(2.07042e-07 6.84844e-07 -2.34466e-27)
(2.21105e-07 7.72634e-07 -3.75379e-27)
(2.34078e-07 8.64656e-07 -2.40238e-27)
(2.45794e-07 9.61434e-07 -6.96748e-27)
(2.56116e-07 1.06356e-06 -4.6616e-27)
(2.64934e-07 1.17168e-06 3.12359e-28)
(2.72169e-07 1.28649e-06 -7.15336e-27)
(2.77772e-07 1.40871e-06 2.04314e-27)
(2.81728e-07 1.53907e-06 1.04405e-26)
(2.84054e-07 1.67828e-06 7.28651e-27)
(2.84799e-07 1.82704e-06 -1.70982e-27)
(2.84045e-07 1.98602e-06 -1.68884e-27)
(2.81904e-07 2.1558e-06 2.78835e-27)
(2.78516e-07 2.3369e-06 2.73899e-27)
(2.7405e-07 2.52977e-06 -1.12803e-27)
(2.68694e-07 2.73472e-06 -4.99963e-27)
(2.62655e-07 2.95199e-06 -4.95592e-27)
(2.56156e-07 3.18166e-06 -2.94114e-27)
(2.49426e-07 3.42371e-06 -2.61612e-27)
(2.427e-07 3.67799e-06 -7.61283e-27)
(2.36209e-07 3.9442e-06 -1.44718e-26)
(2.30179e-07 4.22194e-06 -7.96954e-27)
(2.24823e-07 4.51066e-06 -2.55156e-27)
(2.20335e-07 4.80972e-06 -9.52698e-27)
(2.16889e-07 5.11838e-06 -3.65302e-28)
(2.1463e-07 5.43578e-06 -6.55635e-27)
(2.13675e-07 5.76104e-06 -1.90509e-26)
(2.14106e-07 6.09318e-06 6.51583e-27)
(2.15972e-07 6.43121e-06 1.77337e-26)
(2.19283e-07 6.77412e-06 1.5018e-26)
(2.24013e-07 7.12089e-06 8.03822e-27)
(2.30098e-07 7.47054e-06 -1.07147e-26)
(2.37439e-07 7.82214e-06 -3.12505e-27)
(2.45902e-07 8.17479e-06 -8.25934e-27)
(2.55322e-07 8.52772e-06 -3.15015e-27)
(2.65507e-07 8.88021e-06 -9.61674e-27)
(2.76237e-07 9.23167e-06 -1.4788e-26)
(2.87277e-07 9.58164e-06 -1.11426e-26)
(2.98373e-07 9.9298e-06 3.96357e-27)
(3.09265e-07 1.02759e-05 2.67384e-26)
(3.19693e-07 1.062e-05 -1.61851e-26)
(3.29402e-07 1.09621e-05 -1.10366e-26)
(3.38157e-07 1.13025e-05 -6.33009e-27)
(3.45753e-07 1.16415e-05 -2.46555e-26)
(3.52033e-07 1.19796e-05 -3.04948e-28)
(3.56907e-07 1.23175e-05 -1.43277e-26)
(3.60375e-07 1.26556e-05 -2.7766e-26)
(3.62553e-07 1.29948e-05 2.93725e-27)
(3.63699e-07 1.33354e-05 1.36949e-26)
(3.64221e-07 1.36778e-05 -5.878e-27)
(3.6469e-07 1.40219e-05 -1.65739e-26)
(3.65779e-07 1.43672e-05 -6.26383e-26)
(3.68268e-07 1.47121e-05 -6.62711e-26)
(3.72269e-07 1.50535e-05 3.06773e-26)
(4.59295e-08 -2.01457e-08 -4.86644e-26)
(4.38516e-08 -2.81801e-08 1.62659e-26)
(4.02063e-08 -4.29989e-08 3.71983e-26)
(3.77884e-08 -5.52802e-08 -4.14731e-26)
(3.66852e-08 -6.52547e-08 -4.80889e-26)
(3.65457e-08 -7.3273e-08 2.73904e-26)
(3.70002e-08 -7.94765e-08 3.59068e-26)
(3.78154e-08 -8.39063e-08 -1.27243e-26)
(3.88507e-08 -8.64874e-08 -1.97304e-26)
(4.00489e-08 -8.70658e-08 7.96127e-27)
(4.14123e-08 -8.54203e-08 1.07625e-26)
(4.29908e-08 -8.12781e-08 1.26958e-26)
(4.4872e-08 -7.43261e-08 -2.66846e-27)
(4.71745e-08 -6.42204e-08 -2.26996e-26)
(5.00415e-08 -5.05957e-08 1.07647e-26)
(5.36342e-08 -3.30728e-08 1.28765e-26)
(5.81249e-08 -1.12664e-08 3.91992e-27)
(6.36887e-08 1.52102e-08 -7.96384e-27)
(7.04936e-08 4.67424e-08 -5.6235e-27)
(7.86907e-08 8.37153e-08 -5.29017e-27)
(8.8404e-08 1.2652e-07 -1.10554e-26)
(9.97178e-08 1.75569e-07 8.66052e-27)
(-3.16887e-09 3.36682e-09 -3.98163e-26)
(3.44344e-07 2.44253e-07 -3.12149e-27)
(3.165e-07 1.9538e-07 2.64322e-27)
(2.89558e-07 1.52728e-07 3.40877e-27)
(2.6346e-07 1.15893e-07 9.35014e-27)
(2.38197e-07 8.44917e-08 4.81508e-28)
(2.13791e-07 5.8146e-08 1.02188e-27)
(1.90291e-07 3.64754e-08 -9.66763e-28)
(1.67765e-07 1.90938e-08 -8.91722e-27)
(1.46291e-07 5.60852e-09 -3.99508e-28)
(1.2595e-07 -4.37865e-09 -1.61299e-26)
(1.06825e-07 -1.12693e-08 1.26992e-27)
(8.89916e-08 -1.54664e-08 2.58275e-26)
(7.25224e-08 -1.73712e-08 1.39749e-26)
(5.74819e-08 -1.73827e-08 -5.56618e-27)
(4.39314e-08 -1.58951e-08 -2.22471e-26)
(3.19305e-08 -1.33012e-08 2.68472e-27)
(2.15488e-08 -9.98871e-09 -1.45194e-26)
(1.28636e-08 -6.35879e-09 -1.20131e-26)
(5.99345e-09 -2.79708e-09 4.95014e-27)
(1.01061e-09 2.36821e-10 6.08763e-27)
(-2.09011e-09 2.45883e-09 -4.51132e-27)
(1.12934e-07 2.32432e-07 7.37426e-27)
(3.73748e-07 3.00908e-07 -9.22592e-27)
(1.59478e-06 1.53187e-05 -8.20184e-27)
(1.68426e-06 1.50653e-05 6.38467e-28)
(1.69316e-06 1.47254e-05 3.25152e-27)
(1.69923e-06 1.43826e-05 1.64751e-26)
(1.70231e-06 1.40393e-05 4.74943e-26)
(1.70314e-06 1.36971e-05 -6.64744e-27)
(1.70243e-06 1.33565e-05 8.87838e-27)
(1.70082e-06 1.30176e-05 3.14293e-26)
(1.69879e-06 1.26801e-05 -3.62058e-26)
(1.69667e-06 1.23435e-05 6.47573e-27)
(1.69463e-06 1.20072e-05 5.95544e-26)
(1.69274e-06 1.16705e-05 -6.32089e-27)
(1.69095e-06 1.1333e-05 1.52706e-26)
(1.68915e-06 1.0994e-05 2.03757e-26)
(1.68717e-06 1.06533e-05 -3.11175e-26)
(1.6848e-06 1.03106e-05 -2.22189e-26)
(1.68183e-06 9.96573e-06 -5.24165e-27)
(1.67802e-06 9.61887e-06 1.66248e-26)
(1.67312e-06 9.27015e-06 1.47731e-27)
(1.6669e-06 8.91992e-06 -3.16942e-27)
(1.65913e-06 8.56864e-06 7.61365e-28)
(1.64961e-06 8.2169e-06 2.07237e-26)
(1.63815e-06 7.8654e-06 2.57034e-26)
(1.62459e-06 7.51493e-06 -3.49158e-27)
(1.60881e-06 7.16637e-06 -5.25713e-27)
(1.59071e-06 6.82067e-06 -1.06669e-27)
(1.57022e-06 6.4788e-06 9.02074e-27)
(1.54733e-06 6.14178e-06 1.29949e-26)
(1.52204e-06 5.81062e-06 -6.9576e-28)
(1.49441e-06 5.48631e-06 -1.72394e-27)
(1.46452e-06 5.16982e-06 -1.45189e-26)
(1.43249e-06 4.86205e-06 6.16351e-27)
(1.39847e-06 4.56385e-06 1.29087e-26)
(1.36265e-06 4.27596e-06 2.91996e-27)
(1.32522e-06 3.99903e-06 6.14862e-27)
(1.28642e-06 3.7336e-06 7.14504e-27)
(1.24646e-06 3.48007e-06 1.10161e-26)
(1.20562e-06 3.23874e-06 4.84821e-28)
(1.16412e-06 3.00977e-06 -1.56746e-27)
(1.12223e-06 2.79319e-06 3.51756e-28)
(1.08018e-06 2.5889e-06 3.67451e-27)
(1.03821e-06 2.39667e-06 2.43963e-27)
(9.9652e-07 2.21619e-06 4.10854e-27)
(9.55311e-07 2.04701e-06 -6.79941e-28)
(9.14748e-07 1.88863e-06 -2.9454e-27)
(8.74971e-07 1.74043e-06 2.1086e-27)
(8.36091e-07 1.60177e-06 -3.85378e-27)
(7.98186e-07 1.47196e-06 -2.971e-27)
(7.61301e-07 1.35026e-06 8.51391e-27)
(7.25452e-07 1.23596e-06 9.26489e-27)
(6.90618e-07 1.12832e-06 -2.99803e-27)
(6.56749e-07 1.02667e-06 -1.06292e-27)
(6.23765e-07 9.30344e-07 1.18591e-27)
(5.91556e-07 8.38753e-07 -1.11916e-26)
(5.59983e-07 7.51375e-07 -3.92981e-27)
(5.28879e-07 6.67769e-07 5.01268e-27)
(4.98052e-07 5.87598e-07 -2.15364e-27)
(4.67279e-07 5.10635e-07 5.50803e-27)
(4.36313e-07 4.36782e-07 6.65053e-27)
(4.04879e-07 3.66088e-07 -4.07337e-27)
(1.02408e-06 1.54033e-05 -6.28234e-28)
(1.34759e-06 1.5404e-05 4.7829e-27)
(4.56797e-07 1.53085e-05 3.91208e-26)
(7.01155e-07 1.5398e-05 -6.0418e-27)
(1.28062e-07 2.97864e-07 1.36232e-27)
(1.44149e-07 3.68844e-07 1.78563e-27)
(1.60375e-07 4.43011e-07 4.31949e-29)
(1.76445e-07 5.20315e-07 2.63073e-27)
(1.92082e-07 6.0085e-07 -1.78994e-27)
(2.07042e-07 6.84844e-07 -2.34466e-27)
(2.21105e-07 7.72634e-07 -3.75379e-27)
(2.34078e-07 8.64656e-07 -2.40238e-27)
(2.45794e-07 9.61434e-07 -6.96748e-27)
(2.56116e-07 1.06356e-06 -4.6616e-27)
(2.64934e-07 1.17168e-06 3.12359e-28)
(2.72169e-07 1.28649e-06 -7.15336e-27)
(2.77772e-07 1.40871e-06 2.04314e-27)
(2.81728e-07 1.53907e-06 1.04405e-26)
(2.84054e-07 1.67828e-06 7.28651e-27)
(2.84799e-07 1.82704e-06 -1.70982e-27)
(2.84045e-07 1.98602e-06 -1.68884e-27)
(2.81904e-07 2.1558e-06 2.78835e-27)
(2.78516e-07 2.3369e-06 2.73899e-27)
(2.7405e-07 2.52977e-06 -1.12803e-27)
(2.68694e-07 2.73472e-06 -4.99963e-27)
(2.62655e-07 2.95199e-06 -4.95592e-27)
(2.56156e-07 3.18166e-06 -2.94114e-27)
(2.49426e-07 3.42371e-06 -2.61612e-27)
(2.427e-07 3.67799e-06 -7.61283e-27)
(2.36209e-07 3.9442e-06 -1.44718e-26)
(2.30179e-07 4.22194e-06 -7.96954e-27)
(2.24823e-07 4.51066e-06 -2.55156e-27)
(2.20335e-07 4.80972e-06 -9.52698e-27)
(2.16889e-07 5.11838e-06 -3.65302e-28)
(2.1463e-07 5.43578e-06 -6.55635e-27)
(2.13675e-07 5.76104e-06 -1.90509e-26)
(2.14106e-07 6.09318e-06 6.51583e-27)
(2.15972e-07 6.43121e-06 1.77337e-26)
(2.19283e-07 6.77412e-06 1.5018e-26)
(2.24013e-07 7.12089e-06 8.03822e-27)
(2.30098e-07 7.47054e-06 -1.07147e-26)
(2.37439e-07 7.82214e-06 -3.12505e-27)
(2.45902e-07 8.17479e-06 -8.25934e-27)
(2.55322e-07 8.52772e-06 -3.15015e-27)
(2.65507e-07 8.88021e-06 -9.61674e-27)
(2.76237e-07 9.23167e-06 -1.4788e-26)
(2.87277e-07 9.58164e-06 -1.11426e-26)
(2.98373e-07 9.9298e-06 3.96357e-27)
(3.09265e-07 1.02759e-05 2.67384e-26)
(3.19693e-07 1.062e-05 -1.61851e-26)
(3.29402e-07 1.09621e-05 -1.10366e-26)
(3.38157e-07 1.13025e-05 -6.33009e-27)
(3.45753e-07 1.16415e-05 -2.46555e-26)
(3.52033e-07 1.19796e-05 -3.04948e-28)
(3.56907e-07 1.23175e-05 -1.43277e-26)
(3.60375e-07 1.26556e-05 -2.7766e-26)
(3.62553e-07 1.29948e-05 2.93725e-27)
(3.63699e-07 1.33354e-05 1.36949e-26)
(3.64221e-07 1.36778e-05 -5.878e-27)
(3.6469e-07 1.40219e-05 -1.65739e-26)
(3.65779e-07 1.43672e-05 -6.26383e-26)
(3.68268e-07 1.47121e-05 -6.62711e-26)
(3.72269e-07 1.50535e-05 3.06773e-26)
(4.59295e-08 -2.01457e-08 -4.86644e-26)
(4.38516e-08 -2.81801e-08 1.62659e-26)
(4.02063e-08 -4.29989e-08 3.71983e-26)
(3.77884e-08 -5.52802e-08 -4.14731e-26)
(3.66852e-08 -6.52547e-08 -4.80889e-26)
(3.65457e-08 -7.3273e-08 2.73904e-26)
(3.70002e-08 -7.94765e-08 3.59068e-26)
(3.78154e-08 -8.39063e-08 -1.27243e-26)
(3.88507e-08 -8.64874e-08 -1.97304e-26)
(4.00489e-08 -8.70658e-08 7.96127e-27)
(4.14123e-08 -8.54203e-08 1.07625e-26)
(4.29908e-08 -8.12781e-08 1.26958e-26)
(4.4872e-08 -7.43261e-08 -2.66846e-27)
(4.71745e-08 -6.42204e-08 -2.26996e-26)
(5.00415e-08 -5.05957e-08 1.07647e-26)
(5.36342e-08 -3.30728e-08 1.28765e-26)
(5.81249e-08 -1.12664e-08 3.91992e-27)
(6.36887e-08 1.52102e-08 -7.96384e-27)
(7.04936e-08 4.67424e-08 -5.6235e-27)
(7.86907e-08 8.37153e-08 -5.29017e-27)
(8.8404e-08 1.2652e-07 -1.10554e-26)
(9.97178e-08 1.75569e-07 8.66052e-27)
(-3.16887e-09 3.36682e-09 -3.98163e-26)
(3.44344e-07 2.44253e-07 -3.12149e-27)
(3.165e-07 1.9538e-07 2.64322e-27)
(2.89558e-07 1.52728e-07 3.40877e-27)
(2.6346e-07 1.15893e-07 9.35014e-27)
(2.38197e-07 8.44917e-08 4.81508e-28)
(2.13791e-07 5.8146e-08 1.02188e-27)
(1.90291e-07 3.64754e-08 -9.66763e-28)
(1.67765e-07 1.90938e-08 -8.91722e-27)
(1.46291e-07 5.60852e-09 -3.99508e-28)
(1.2595e-07 -4.37865e-09 -1.61299e-26)
(1.06825e-07 -1.12693e-08 1.26992e-27)
(8.89916e-08 -1.54664e-08 2.58275e-26)
(7.25224e-08 -1.73712e-08 1.39749e-26)
(5.74819e-08 -1.73827e-08 -5.56618e-27)
(4.39314e-08 -1.58951e-08 -2.22471e-26)
(3.19305e-08 -1.33012e-08 2.68472e-27)
(2.15488e-08 -9.98871e-09 -1.45194e-26)
(1.28636e-08 -6.35879e-09 -1.20131e-26)
(5.99345e-09 -2.79708e-09 4.95014e-27)
(1.01061e-09 2.36821e-10 6.08763e-27)
(-2.09011e-09 2.45883e-09 -4.51132e-27)
)


// ************************************************************************* //
