/*--------------------------------*- C++ -*----------------------------------*\
| =========                 |                                                 |
| \\      /  F ield         | OpenFOAM Extend Project: Open source CFD        |
|  \\    /   O peration     | Version:  1.6-ext                               |
|   \\  /    A nd           | Web:      www.extend-project.de                 |
|    \\/     M anipulation  |                                                 |
\*---------------------------------------------------------------------------*/
FoamFile
{
    version     2.0;
    format      ascii;
    class       tetPointVectorField;
    location    "0.85";
    object      motionU;
}
// * * * * * * * * * * * * * * * * * * * * * * * * * * * * * * * * * * * * * //

dimensions      [0 1 -1 0 0 0 0];

internalField   nonuniform List<vector> 
147960
(
(0 0 0)
(-0.000155924 0.000239728 0)
(0.00195866 0.000141004 -1.99433e-24)
(0.00241762 0.000716263 -3.29382e-24)
(0.0107153 0.0239712 6.87681e-24)
(0.0108361 0.0236005 -2.15169e-23)
(0.0108283 0.0231063 -2.95776e-23)
(0.0108161 0.0226121 -5.35384e-23)
(0.0107995 0.0221172 -6.23753e-24)
(0.0107784 0.0216214 5.59022e-23)
(0.0107527 0.0211246 1.05643e-23)
(0.0107223 0.0206265 8.40779e-24)
(0.0106874 0.0201271 9.97174e-24)
(0.0106478 0.0196263 -3.31694e-23)
(0.0106035 0.019124 -5.37703e-23)
(0.0105545 0.01862 2.23267e-23)
(0.0105007 0.0181143 2.68608e-23)
(0.010442 0.0176071 6.02069e-24)
(0.0103783 0.0170984 -7.55456e-24)
(0.0103095 0.0165883 -3.12565e-23)
(0.0102356 0.0160771 -4.0726e-23)
(0.0101563 0.0155652 -3.24122e-23)
(0.0100717 0.0150528 -5.2632e-24)
(0.00998158 0.0145405 4.11308e-24)
(0.00988587 0.0140288 3.18367e-23)
(0.0097845 0.0135184 1.22379e-23)
(0.00967739 0.0130098 -1.19834e-23)
(0.00956452 0.0125039 -1.37384e-23)
(0.00944583 0.0120014 -1.20334e-23)
(0.00932134 0.0115031 8.59664e-24)
(0.00919104 0.0110098 1.54473e-23)
(0.00905499 0.0105225 -7.27058e-24)
(0.00891323 0.010042 -6.68236e-24)
(0.00876587 0.00956912 -5.04035e-24)
(0.008613 0.00910468 -2.08557e-23)
(0.00845476 0.00864949 -1.5676e-23)
(0.0082913 0.00820431 -8.2192e-24)
(0.0081228 0.00776982 1.40122e-23)
(0.00794945 0.00734667 -4.52939e-24)
(0.00777144 0.00693542 -2.30526e-23)
(0.00758901 0.00653657 8.28268e-25)
(0.00740237 0.00615054 6.83405e-24)
(0.00721177 0.00577765 2.50992e-24)
(0.00701745 0.00541815 -3.17812e-24)
(0.00681964 0.0050722 -1.21199e-23)
(0.00661858 0.00473988 -6.08576e-24)
(0.00641453 0.00442117 1.88366e-23)
(0.0062077 0.00411601 1.3737e-23)
(0.00599832 0.00382422 1.69372e-24)
(0.0057866 0.00354559 1.82405e-25)
(0.00557272 0.00327983 -8.29905e-25)
(0.00535688 0.00302661 4.93647e-24)
(0.00513921 0.00278557 -4.38702e-24)
(0.00491987 0.0025563 -5.7748e-24)
(0.00469896 0.00233842 -1.89181e-24)
(0.00447656 0.00213149 -7.44334e-25)
(0.00425275 0.00193513 -1.48521e-24)
(0.00402756 0.00174897 -8.06316e-24)
(0.003801 0.00157268 -1.99902e-24)
(0.00357306 0.00140598 3.69105e-24)
(0.00334369 0.00124866 8.07811e-24)
(0.00311282 0.00110061 -8.25099e-24)
(0.00288033 0.000961797 -1.14861e-23)
(0.00264607 0.000832344 1.00456e-23)
(0.00984621 0.0240897 1.94854e-23)
(0.0103437 0.0240929 3.30063e-24)
(0.0089686 0.0239573 6.65871e-23)
(0.00934569 0.0240862 2.9731e-23)
(0.00214736 0.000259898 7.0628e-24)
(0.00234189 0.000392527 6.56994e-24)
(0.00253549 0.000534792 8.53278e-24)
(0.00272781 0.00068658 -1.11222e-23)
(0.00291851 0.000847906 -1.52192e-23)
(0.0031073 0.00101889 3.40854e-25)
(0.00329393 0.00119974 2.14112e-24)
(0.00347817 0.00139072 2.72387e-25)
(0.00365982 0.00159217 -8.97699e-24)
(0.00383871 0.00180445 4.97222e-26)
(0.00401469 0.00202796 3.76655e-24)
(0.00418766 0.0022631 1.03344e-25)
(0.00435751 0.00251028 -9.96797e-25)
(0.00452419 0.00276989 -1.21258e-23)
(0.00468766 0.00304229 -1.05228e-23)
(0.0048479 0.00332782 1.58812e-24)
(0.0050049 0.00362674 3.08389e-24)
(0.0051587 0.00393929 3.82559e-24)
(0.00530933 0.00426562 1.56295e-27)
(0.00545684 0.00460581 -4.96745e-24)
(0.0056013 0.00495986 2.99947e-24)
(0.00574277 0.00532769 2.30789e-23)
(0.00588132 0.00570915 2.02153e-23)
(0.00601705 0.00610397 2.33463e-24)
(0.00615003 0.00651183 -6.38742e-24)
(0.00628033 0.0069323 -5.54363e-24)
(0.00640803 0.00736489 9.4499e-25)
(0.00653318 0.00780903 1.5071e-23)
(0.00665585 0.00826407 3.06534e-23)
(0.00677606 0.00872931 3.50892e-24)
(0.00689386 0.00920399 -2.30632e-23)
(0.00700923 0.00968732 3.32978e-24)
(0.00712219 0.0101785 9.07383e-24)
(0.00723268 0.0106766 -5.24112e-24)
(0.00734068 0.0111807 6.68114e-25)
(0.00744611 0.0116902 -1.79964e-26)
(0.00754887 0.012204 -4.24555e-23)
(0.00764887 0.0127213 -4.38414e-23)
(0.00774597 0.0132415 4.79278e-24)
(0.00784004 0.0137637 2.18333e-23)
(0.00793092 0.0142872 -9.90852e-24)
(0.00801845 0.0148115 -4.36933e-23)
(0.00810244 0.015336 4.06548e-23)
(0.00818273 0.0158603 1.83908e-23)
(0.00825913 0.0163838 -1.38928e-23)
(0.00833146 0.0169064 1.82601e-23)
(0.00839954 0.0174277 -4.43728e-23)
(0.00846321 0.0179476 -4.07368e-23)
(0.00852231 0.018466 9.72388e-24)
(0.0085767 0.0189828 3.57805e-23)
(0.00862625 0.0194981 2.71071e-23)
(0.00867086 0.020012 3.74203e-24)
(0.00871043 0.0205244 1.43045e-23)
(0.00874491 0.0210357 3.60526e-23)
(0.00877421 0.0215458 -3.30751e-23)
(0.00879832 0.0220549 -4.04626e-23)
(0.00881719 0.0225632 1.16303e-23)
(0.00883095 0.0230709 -2.54432e-23)
(0.00883958 0.0235775 2.24895e-23)
(0.00662317 0.0203559 0)
(0.00893823 0.0237017 0)
(0.00893115 0.0235311 0)
(0.00891136 0.0233519 0)
(0.00886135 0.0231607 0)
(0.00879267 0.0229592 0)
(0.008698 0.0227476 0)
(0.00858498 0.022527 0)
(0.00843789 0.022296 0)
(0.00827547 0.0220547 0)
(0.00807396 0.0218034 0)
(0.00784251 0.0215392 0)
(0.00759816 0.0212636 0)
(0.00729058 0.0209761 0)
(0.00696793 0.0206725 0)
(0.00115368 0.000543618 0)
(0.00129998 0.000626605 0)
(0.00145281 0.000720031 0)
(0.00161066 0.000824387 0)
(0.00177319 0.000940379 0)
(0.00193921 0.00106814 0)
(0.0021075 0.00120739 0)
(0.00227799 0.00135815 0)
(0.00244979 0.00152059 0)
(0.00262154 0.00169482 0)
(0.00279208 0.00188088 0)
(0.00296074 0.00207876 0)
(0.00312755 0.00228849 0)
(0.00329298 0.00251013 0)
(0.00345722 0.00274378 0)
(0.00361992 0.00298962 0)
(0.00378038 0.00324772 0)
(0.00393809 0.00351815 0)
(0.00409318 0.00380102 0)
(0.00424621 0.00409612 0)
(0.00439697 0.00440442 0)
(0.0045446 0.00472596 0)
(0.00468885 0.00505931 0)
(0.0048296 0.00540456 0)
(0.00496692 0.00576163 0)
(0.00510081 0.00613036 0)
(0.00523123 0.0065105 0)
(0.00535821 0.00690173 0)
(0.00548182 0.00730362 0)
(0.00560234 0.0077157 0)
(0.00572023 0.0081374 0)
(0.00583561 0.00856808 0)
(0.00594794 0.00900703 0)
(0.00605689 0.00945361 0)
(0.00616297 0.00990712 0)
(0.00626684 0.0103662 0)
(0.00636798 0.0108316 0)
(0.00646611 0.0113029 0)
(0.00656161 0.0117772 0)
(0.00665366 0.0122534 0)
(0.00674079 0.0127307 0)
(0.00682085 0.0132081 0)
(0.00689151 0.0136848 0)
(0.00695145 0.0141599 0)
(0.00700225 0.0146324 0)
(0.00704819 0.0151007 0)
(0.00709194 0.0155634 0)
(0.00713029 0.0160189 0)
(0.00715664 0.0164657 0)
(0.00716931 0.0169025 0)
(0.00717427 0.0173274 0)
(0.00717666 0.0177377 0)
(0.00717502 0.0181307 0)
(0.00716367 0.0185039 0)
(0.00713603 0.0188548 0)
(0.00709023 0.0191811 0)
(0.00702791 0.0194801 0)
(0.00695116 0.0197492 0)
(0.00686094 0.019986 0)
(0.00675636 0.0201886 0)
(0.00808993 0.020216 0)
(0.00846514 0.0205612 0)
(0.00879555 0.0208905 0)
(0.00913261 0.021201 0)
(0.00941225 0.0214944 0)
(0.00964445 0.0217748 0)
(0.00987575 0.0220399 0)
(0.010063 0.0222909 0)
(0.0102165 0.0225305 0)
(0.0103614 0.0227574 0)
(0.0104699 0.0229727 0)
(0.0105607 0.0231772 0)
(0.0106361 0.0233693 0)
(0.0106883 0.0235486 0)
(0.0107404 0.0237184 0)
(0.00146991 0.000839901 0)
(0.00238958 0.000710165 0)
(0.00235418 0.000709163 0)
(0.00231367 0.000712351 0)
(0.00226559 0.00071885 0)
(0.00221417 0.000727597 0)
(0.00215886 0.000738073 0)
(0.00209986 0.000749549 0)
(0.00203813 0.000761522 0)
(0.00197145 0.000774006 0)
(0.00190157 0.000786712 0)
(0.00182863 0.000799161 0)
(0.00174835 0.000810922 0)
(0.00166305 0.000821968 0)
(0.00157023 0.000831862 0)
(0.00826558 0.0200575 0)
(0.00841907 0.0198635 0)
(0.00855253 0.0196355 0)
(0.00866629 0.0193755 0)
(0.00876106 0.0190859 0)
(0.00883634 0.0187692 0)
(0.00889105 0.0184281 0)
(0.00892733 0.018065 0)
(0.00895118 0.0176824 0)
(0.00896726 0.0172829 0)
(0.00897668 0.0168691 0)
(0.00897485 0.0164435 0)
(0.00895684 0.016008 0)
(0.0089249 0.0155641 0)
(0.00888512 0.0151131 0)
(0.0088401 0.0146565 0)
(0.00878718 0.014196 0)
(0.00872249 0.0137329 0)
(0.00864475 0.0132682 0)
(0.00855529 0.0128028 0)
(0.00845623 0.0123376 0)
(0.00834953 0.0118734 0)
(0.0082366 0.0114112 0)
(0.00811828 0.010952 0)
(0.00799423 0.0104986 0)
(0.00786474 0.0100514 0)
(0.00773042 0.00960972 0)
(0.00759079 0.00917488 0)
(0.00744541 0.00874756 0)
(0.00729471 0.00832843 0)
(0.00713944 0.00791816 0)
(0.00697967 0.00751738 0)
(0.00681512 0.00712663 0)
(0.00664572 0.00674639 0)
(0.00647162 0.00637705 0)
(0.00629303 0.00601894 0)
(0.00611022 0.00567227 0)
(0.0059234 0.00533717 0)
(0.0057327 0.00501366 0)
(0.0055384 0.0047016 0)
(0.00534108 0.00440222 0)
(0.00514174 0.0041155 0)
(0.0049406 0.00384055 0)
(0.00473722 0.00357747 0)
(0.00453156 0.00332611 0)
(0.00432421 0.00308632 0)
(0.00411598 0.00285796 0)
(0.00390729 0.00264086 0)
(0.00369796 0.00243488 0)
(0.0034875 0.0022398 0)
(0.00327579 0.00205541 0)
(0.00306342 0.00188147 0)
(0.00285157 0.00171778 0)
(0.00264164 0.00156409 0)
(0.00243469 0.00142018 0)
(0.00223088 0.00128577 0)
(0.00203151 0.00116097 0)
(0.00183783 0.0010455 0)
(0.00165017 0.000938619 0)
(0.00175956 0.0009312 0)
(0.00185671 0.000922532 0)
(0.0019489 0.000912915 0)
(0.00203835 0.000902428 0)
(0.00211499 0.000891371 0)
(0.00219141 0.000880249 0)
(0.002265 0.000869026 0)
(0.00232823 0.000858329 0)
(0.00239271 0.000848432 0)
(0.00244987 0.00083973 0)
(0.00250285 0.000832844 0)
(0.0025514 0.000828134 0)
(0.0025917 0.000826611 0)
(0.00262512 0.000828526 0)
(0.00195413 0.00103954 0)
(0.00205626 0.00103218 0)
(0.00215674 0.00102403 0)
(0.00225113 0.0010151 0)
(0.00233252 0.00100566 0)
(0.00241571 0.000996135 0)
(0.00249176 0.000986506 0)
(0.00255949 0.000977485 0)
(0.00262683 0.000969334 0)
(0.00268494 0.000962413 0)
(0.00273919 0.000957199 0)
(0.00278725 0.000954033 0)
(0.00282657 0.0009538 0)
(0.00285903 0.000956602 0)
(0.00215329 0.00115647 0)
(0.00226062 0.00115095 0)
(0.00236874 0.00114455 0)
(0.00246696 0.00113736 0)
(0.00255258 0.00112961 0)
(0.00264176 0.00112177 0)
(0.0027203 0.00111407 0)
(0.00279077 0.00110684 0)
(0.00286071 0.00110042 0)
(0.00291892 0.00109515 0)
(0.00297372 0.00109148 0)
(0.00302139 0.00108972 0)
(0.00305989 0.0010907 0)
(0.00309188 0.00109456 0)
(0.00235692 0.00128307 0)
(0.00246887 0.00127932 0)
(0.00258403 0.00127482 0)
(0.00268548 0.00126953 0)
(0.00277548 0.00126394 0)
(0.00286964 0.00125782 0)
(0.00294941 0.00125178 0)
(0.00302204 0.00124633 0)
(0.00309368 0.00124156 0)
(0.00315174 0.00123783 0)
(0.00320649 0.00123561 0)
(0.00325394 0.00123512 0)
(0.00329174 0.00123721 0)
(0.00332324 0.00124196 0)
(0.00256356 0.00141924 0)
(0.00268008 0.0014175 0)
(0.00280211 0.00141503 0)
(0.00290634 0.00141172 0)
(0.00299911 0.00140817 0)
(0.00309782 0.00140393 0)
(0.00317884 0.00139963 0)
(0.00325219 0.00139594 0)
(0.00332556 0.00139274 0)
(0.00338343 0.00139046 0)
(0.0034378 0.00138955 0)
(0.00348485 0.0013902 0)
(0.00352215 0.00139324 0)
(0.0035532 0.00139873 0)
(0.00277318 0.00156518 0)
(0.00289361 0.00156567 0)
(0.00302212 0.00156533 0)
(0.00312882 0.00156402 0)
(0.00322314 0.00156255 0)
(0.00332538 0.00156025 0)
(0.00340799 0.0015577 0)
(0.00348167 0.00155575 0)
(0.00355573 0.00155404 0)
(0.00361372 0.00155304 0)
(0.00366782 0.00155333 0)
(0.00371436 0.001555 0)
(0.00375104 0.00155886 0)
(0.00378167 0.00156497 0)
(0.00298554 0.0017211 0)
(0.00310871 0.001724 0)
(0.0032431 0.00172589 0)
(0.00335228 0.00172659 0)
(0.00344727 0.00172725 0)
(0.0035523 0.00172694 0)
(0.00363634 0.00172615 0)
(0.00371032 0.00172592 0)
(0.0037847 0.00172559 0)
(0.00384212 0.00172561 0)
(0.00389634 0.00172698 0)
(0.0039426 0.00172969 0)
(0.00397859 0.00173424 0)
(0.00400873 0.00174086 0)
(0.0032 0.00188719 0)
(0.00332482 0.0018927 0)
(0.00346418 0.0018969 0)
(0.00357598 0.00189951 0)
(0.00367164 0.00190233 0)
(0.00377851 0.00190424 0)
(0.00386378 0.00190518 0)
(0.00393806 0.00190663 0)
(0.00401272 0.0019077 0)
(0.00407001 0.00190915 0)
(0.00412383 0.00191129 0)
(0.00416944 0.00191451 0)
(0.00420477 0.00191961 0)
(0.00423442 0.00192665 0)
(0.00341571 0.00206366 0)
(0.00354171 0.00207197 0)
(0.00368497 0.00207866 0)
(0.0038 0.00208373 0)
(0.00389676 0.00208869 0)
(0.00400435 0.00209238 0)
(0.00408988 0.00209495 0)
(0.00416449 0.00209806 0)
(0.00423955 0.00210044 0)
(0.00429636 0.00210297 0)
(0.00434965 0.00210592 0)
(0.0043947 0.00210969 0)
(0.00442946 0.00211526 0)
(0.00445872 0.00212268 0)
(0.00363152 0.00225073 0)
(0.003759 0.00226201 0)
(0.00390521 0.00227128 0)
(0.00402264 0.00227857 0)
(0.00412069 0.00228584 0)
(0.0042295 0.00229147 0)
(0.00431482 0.00229566 0)
(0.00438927 0.00230038 0)
(0.00446476 0.00230397 0)
(0.00452114 0.00230747 0)
(0.00457401 0.00231122 0)
(0.00461851 0.00231552 0)
(0.00465268 0.00232153 0)
(0.00468157 0.00232929 0)
(0.00384631 0.00244861 0)
(0.003976 0.00246298 0)
(0.0041248 0.00247483 0)
(0.00424377 0.00248432 0)
(0.00434294 0.00249407 0)
(0.00445332 0.00250172 0)
(0.00453864 0.00250752 0)
(0.00461271 0.00251381 0)
(0.00468833 0.00251856 0)
(0.00474423 0.00252299 0)
(0.00479676 0.00252754 0)
(0.00484081 0.00253235 0)
(0.0048744 0.00253879 0)
(0.00490293 0.00254687 0)
(0.00405941 0.00265753 0)
(0.00419189 0.0026751 0)
(0.00434332 0.00268941 0)
(0.00446363 0.00270113 0)
(0.00456356 0.00271368 0)
(0.00467543 0.00272337 0)
(0.00476098 0.00273076 0)
(0.0048348 0.00273862 0)
(0.00491037 0.00274452 0)
(0.00496562 0.00274987 0)
(0.00501777 0.00275523 0)
(0.00506141 0.00276057 0)
(0.0050945 0.00276742 0)
(0.00512271 0.00277582 0)
(0.00427088 0.00287773 0)
(0.00440603 0.00289875 0)
(0.00456107 0.00291621 0)
(0.0046828 0.00293014 0)
(0.00478271 0.00294499 0)
(0.00489575 0.00295667 0)
(0.00498144 0.00296565 0)
(0.00505508 0.0029751 0)
(0.00513069 0.00298215 0)
(0.00518527 0.00298846 0)
(0.00523698 0.00299465 0)
(0.00528024 0.00300053 0)
(0.00531287 0.00300782 0)
(0.00534079 0.00301655 0)
(0.00448113 0.00310936 0)
(0.0046182 0.00313393 0)
(0.00477674 0.00315433 0)
(0.00489994 0.00317072 0)
(0.0050001 0.00318813 0)
(0.0051142 0.00320184 0)
(0.00519991 0.00321246 0)
(0.00527332 0.00322352 0)
(0.00534899 0.00323177 0)
(0.00540295 0.00323907 0)
(0.00545427 0.00324614 0)
(0.00549719 0.00325261 0)
(0.00552941 0.00326037 0)
(0.00555705 0.00326945 0)
(0.00469042 0.00335254 0)
(0.00482858 0.00338055 0)
(0.00499049 0.00340397 0)
(0.00511495 0.00342326 0)
(0.00521537 0.00344334 0)
(0.00533064 0.00345916 0)
(0.00541636 0.00347145 0)
(0.00548947 0.00348416 0)
(0.00556519 0.00349364 0)
(0.00561854 0.003502 0)
(0.00566952 0.00351002 0)
(0.00571214 0.00351714 0)
(0.00574397 0.00352541 0)
(0.00577134 0.00353488 0)
(0.00489841 0.00360755 0)
(0.00503819 0.00363984 0)
(0.00520304 0.00366634 0)
(0.00532794 0.00368804 0)
(0.00542841 0.00371083 0)
(0.00554481 0.00372882 0)
(0.00563055 0.00374284 0)
(0.0057034 0.00375725 0)
(0.00577915 0.00376798 0)
(0.00583192 0.00377747 0)
(0.00588263 0.00378658 0)
(0.00592497 0.00379443 0)
(0.00595639 0.00380327 0)
(0.00598348 0.00381316 0)
(0.00510414 0.00387443 0)
(0.00524569 0.00391078 0)
(0.00541325 0.00394064 0)
(0.00553885 0.0039651 0)
(0.00563926 0.00399074 0)
(0.00575656 0.00401101 0)
(0.00584224 0.00402688 0)
(0.00591484 0.00404306 0)
(0.00599043 0.00405485 0)
(0.00604281 0.00406561 0)
(0.00609343 0.00407613 0)
(0.00613548 0.00408476 0)
(0.00616646 0.00409422 0)
(0.00619326 0.00410457 0)
(0.00530711 0.00415303 0)
(0.00545071 0.0041936 0)
(0.00562105 0.00422725 0)
(0.00574741 0.00425463 0)
(0.00584769 0.00428323 0)
(0.00596579 0.0043059 0)
(0.00605136 0.00432379 0)
(0.00612378 0.004342 0)
(0.00619982 0.00435584 0)
(0.00625167 0.00436765 0)
(0.00630174 0.00437895 0)
(0.00634343 0.00438837 0)
(0.00637397 0.00439849 0)
(0.0064005 0.00440935 0)
(0.00550863 0.00444464 0)
(0.00565385 0.00448952 0)
(0.00582628 0.00452642 0)
(0.00595325 0.00455676 0)
(0.00605339 0.00458839 0)
(0.00617236 0.00461359 0)
(0.00625783 0.00463364 0)
(0.00633002 0.00465399 0)
(0.00640623 0.00466954 0)
(0.00645753 0.00468269 0)
(0.00650727 0.00469509 0)
(0.00654862 0.00470539 0)
(0.0065787 0.00471625 0)
(0.00660495 0.00472765 0)
(0.00570775 0.00474806 0)
(0.00585401 0.00479758 0)
(0.00602866 0.00483806 0)
(0.00615612 0.0048715 0)
(0.00625617 0.00490626 0)
(0.00637608 0.00493409 0)
(0.00646139 0.00495643 0)
(0.00653327 0.00497896 0)
(0.00660961 0.00499626 0)
(0.0066604 0.00501091 0)
(0.00670984 0.0050246 0)
(0.00675083 0.00503589 0)
(0.00678045 0.00504756 0)
(0.00680642 0.00505956 0)
(0.00590411 0.00506443 0)
(0.00605111 0.00511799 0)
(0.00622795 0.00516214 0)
(0.00635591 0.00519883 0)
(0.00645589 0.00523679 0)
(0.00657667 0.00526738 0)
(0.00666175 0.00529212 0)
(0.00673331 0.0053169 0)
(0.00680982 0.00533605 0)
(0.00686011 0.00535237 0)
(0.00690924 0.00536747 0)
(0.00694985 0.00537989 0)
(0.006979 0.00539244 0)
(0.00700467 0.00540508 0)
(0.00609664 0.00539251 0)
(0.00624479 0.00545053 0)
(0.00642392 0.00549853 0)
(0.00655241 0.00553862 0)
(0.00665224 0.00557991 0)
(0.00677378 0.00561338 0)
(0.00685859 0.00564064 0)
(0.00692986 0.00566774 0)
(0.00700657 0.00568888 0)
(0.00705638 0.00570702 0)
(0.00710519 0.00572367 0)
(0.0071454 0.00573731 0)
(0.00717406 0.00575083 0)
(0.00719944 0.00576414 0)
(0.00628541 0.00573242 0)
(0.00643482 0.00579508 0)
(0.00661632 0.0058471 0)
(0.00674532 0.00589078 0)
(0.00684494 0.00593552 0)
(0.00696717 0.00597199 0)
(0.00705172 0.00600185 0)
(0.00712272 0.00603132 0)
(0.00719963 0.00605459 0)
(0.00724897 0.00607475 0)
(0.00729742 0.00609308 0)
(0.00733722 0.00610803 0)
(0.00736538 0.00612256 0)
(0.00739049 0.00613658 0)
(0.00647026 0.00608406 0)
(0.00662108 0.00615147 0)
(0.006805 0.00620768 0)
(0.00693451 0.00625514 0)
(0.00703392 0.00630343 0)
(0.00715686 0.00634302 0)
(0.0072411 0.00637562 0)
(0.00731157 0.00640721 0)
(0.00738884 0.00643281 0)
(0.00743772 0.00645542 0)
(0.00748576 0.00647549 0)
(0.0075251 0.00649183 0)
(0.00755273 0.00650742 0)
(0.00757756 0.00652218 0)
(0.00665099 0.00644729 0)
(0.00680336 0.00651954 0)
(0.00698983 0.00658007 0)
(0.00711993 0.00663145 0)
(0.00721916 0.00668339 0)
(0.00734275 0.00672627 0)
(0.00742667 0.00676195 0)
(0.00749699 0.00679683 0)
(0.00757435 0.0068246 0)
(0.00762235 0.00684887 0)
(0.00766996 0.00687063 0)
(0.00770883 0.00688839 0)
(0.00773591 0.00690508 0)
(0.00776042 0.00692059 0)
(0.00682721 0.00682189 0)
(0.00698128 0.00689901 0)
(0.00717047 0.00696396 0)
(0.00730129 0.00701941 0)
(0.00740039 0.00707509 0)
(0.00752461 0.00712139 0)
(0.00760813 0.00716026 0)
(0.007678 0.00719802 0)
(0.00775525 0.00722824 0)
(0.00780254 0.00725457 0)
(0.00784973 0.00727808 0)
(0.00788816 0.00729731 0)
(0.0079147 0.00731513 0)
(0.00793887 0.00733141 0)
(0.00699853 0.00720752 0)
(0.00715434 0.00728956 0)
(0.00734636 0.00735903 0)
(0.00747807 0.00741867 0)
(0.00757721 0.00747814 0)
(0.0077021 0.0075279 0)
(0.00778512 0.00756992 0)
(0.00785444 0.00761055 0)
(0.00793155 0.00764345 0)
(0.00797814 0.00767204 0)
(0.00802487 0.0076974 0)
(0.00806286 0.00771814 0)
(0.00808888 0.0077371 0)
(0.00811268 0.00775415 0)
(0.00716469 0.00760381 0)
(0.00732208 0.00769082 0)
(0.00751697 0.0077649 0)
(0.00764975 0.00782884 0)
(0.00774912 0.00789213 0)
(0.00787473 0.00794538 0)
(0.00795706 0.0079902 0)
(0.00802603 0.00803387 0)
(0.00810307 0.00806991 0)
(0.00814898 0.00810082 0)
(0.0081952 0.00812804 0)
(0.00823272 0.00815032 0)
(0.00825821 0.00817044 0)
(0.00828164 0.00818826 0)
(0.00732583 0.00801028 0)
(0.00748455 0.00810232 0)
(0.00768212 0.0081811 0)
(0.00781597 0.00824944 0)
(0.0079157 0.00831662 0)
(0.00804224 0.00837362 0)
(0.0081245 0.00842251 0)
(0.00819304 0.00846899 0)
(0.00826965 0.00850721 0)
(0.00831485 0.00854034 0)
(0.00836058 0.00856943 0)
(0.00839759 0.00859325 0)
(0.00842251 0.00861452 0)
(0.00844556 0.00863309 0)
(0.00748234 0.00842637 0)
(0.00764208 0.00852349 0)
(0.00784199 0.00860706 0)
(0.00797672 0.00867991 0)
(0.00807684 0.00875099 0)
(0.00820443 0.00881171 0)
(0.00828663 0.0088642 0)
(0.00835476 0.00891373 0)
(0.00843109 0.00895457 0)
(0.00847556 0.00898995 0)
(0.00852082 0.00902089 0)
(0.0085573 0.00904626 0)
(0.00858163 0.00906866 0)
(0.00860427 0.00908796 0)
(0.00763421 0.00885143 0)
(0.00779479 0.00895368 0)
(0.00799675 0.00904215 0)
(0.00813214 0.00911958 0)
(0.00823251 0.00919455 0)
(0.00836091 0.00925853 0)
(0.00844331 0.00931474 0)
(0.0085112 0.00936777 0)
(0.00858726 0.00941133 0)
(0.00863095 0.00944896 0)
(0.00867573 0.00948174 0)
(0.00871169 0.00950863 0)
(0.0087354 0.00953212 0)
(0.00875762 0.00955211 0)
(0.00778075 0.00928479 0)
(0.00794228 0.00939222 0)
(0.00814628 0.00948566 0)
(0.00828219 0.00956778 0)
(0.00838276 0.00964683 0)
(0.00851231 0.00971537 0)
(0.00859487 0.00977519 0)
(0.00866222 0.00983067 0)
(0.00873798 0.0098768 0)
(0.00878089 0.00991664 0)
(0.00882516 0.00995122 0)
(0.00886057 0.0099796 0)
(0.00888368 0.0100041 0)
(0.00890547 0.0100248 0)
(0.00792155 0.00972578 0)
(0.00808427 0.0098384 0)
(0.00829038 0.00993686 0)
(0.0084268 0.0100237 0)
(0.00852735 0.0101065 0)
(0.00865832 0.0101794 0)
(0.00874078 0.0102433 0)
(0.00880769 0.0103016 0)
(0.00888317 0.0103502 0)
(0.0089253 0.0103922 0)
(0.00896899 0.0104285 0)
(0.00900383 0.0104584 0)
(0.00902635 0.0104839 0)
(0.00904771 0.0105051 0)
(0.00805709 0.0101736 0)
(0.00822094 0.0102915 0)
(0.008429 0.0103951 0)
(0.0085658 0.0104865 0)
(0.00866701 0.0105745 0)
(0.00879911 0.0106519 0)
(0.00888109 0.0107187 0)
(0.00894755 0.0107796 0)
(0.00902276 0.0108308 0)
(0.00906407 0.0108749 0)
(0.00910713 0.0109129 0)
(0.0091414 0.0109441 0)
(0.00916332 0.0109705 0)
(0.00918425 0.0109923 0)
(0.00818768 0.0106275 0)
(0.00835232 0.0107507 0)
(0.00856196 0.0108594 0)
(0.00869987 0.0109571 0)
(0.00880157 0.01105 0)
(0.00893404 0.0111306 0)
(0.00901564 0.0112006 0)
(0.00908169 0.0112641 0)
(0.00915662 0.0113177 0)
(0.00919714 0.0113638 0)
(0.00923958 0.0114034 0)
(0.00927324 0.0114359 0)
(0.00929452 0.0114632 0)
(0.00931501 0.0114854 0)
(0.0083126 0.0110863 0)
(0.0084782 0.0112154 0)
(0.00869016 0.0113309 0)
(0.00882878 0.0114345 0)
(0.00893016 0.0115308 0)
(0.00906301 0.0116148 0)
(0.00914423 0.011688 0)
(0.00920988 0.0117542 0)
(0.00928458 0.0118101 0)
(0.0093244 0.0118583 0)
(0.00936627 0.0118994 0)
(0.0093993 0.0119331 0)
(0.00941992 0.0119611 0)
(0.00943997 0.0119837 0)
(0.00843244 0.011553 0)
(0.00859914 0.0116878 0)
(0.00881299 0.0118084 0)
(0.00895139 0.0119161 0)
(0.0090524 0.0120162 0)
(0.00918557 0.0121037 0)
(0.00926643 0.0121802 0)
(0.00933177 0.012249 0)
(0.00940638 0.0123073 0)
(0.00944567 0.0123573 0)
(0.00948707 0.0123999 0)
(0.00951951 0.0124347 0)
(0.00953951 0.0124634 0)
(0.00955912 0.0124863 0)
(0.00854629 0.0120223 0)
(0.00871373 0.0121629 0)
(0.00892884 0.0122887 0)
(0.00906704 0.0124012 0)
(0.00916769 0.0125052 0)
(0.00930123 0.0125965 0)
(0.00938189 0.0126763 0)
(0.00944713 0.0127477 0)
(0.00952187 0.0128084 0)
(0.00956084 0.0128603 0)
(0.00960192 0.0129042 0)
(0.00963388 0.01294 0)
(0.00965331 0.0129693 0)
(0.00967246 0.0129923 0)
(0.0086535 0.0124936 0)
(0.00882119 0.01264 0)
(0.00903713 0.0127714 0)
(0.00917509 0.012889 0)
(0.00927556 0.0129972 0)
(0.00940968 0.0130924 0)
(0.00949044 0.0131756 0)
(0.00955592 0.0132497 0)
(0.00963106 0.0133127 0)
(0.00966995 0.0133663 0)
(0.00971088 0.0134115 0)
(0.00974247 0.0134482 0)
(0.00976133 0.0134779 0)
(0.00978001 0.013501 0)
(0.00875248 0.012966 0)
(0.00892005 0.0131186 0)
(0.00913678 0.0132558 0)
(0.00927483 0.0133788 0)
(0.00937565 0.0134914 0)
(0.00951095 0.0135906 0)
(0.00959238 0.0136773 0)
(0.00965852 0.0137541 0)
(0.00973429 0.0138193 0)
(0.00977321 0.0138747 0)
(0.00981404 0.0139211 0)
(0.00984526 0.0139586 0)
(0.00986359 0.0139886 0)
(0.00988183 0.0140118 0)
(0.00884138 0.0134389 0)
(0.00900891 0.013598 0)
(0.00922705 0.0137413 0)
(0.00936623 0.0138698 0)
(0.00946851 0.013987 0)
(0.00960583 0.0140903 0)
(0.00968844 0.0141806 0)
(0.00975541 0.0142601 0)
(0.00983176 0.0143276 0)
(0.00987063 0.0143847 0)
(0.00991134 0.0144322 0)
(0.00994224 0.0144704 0)
(0.00996011 0.0145007 0)
(0.00997796 0.0145238 0)
(0.00891891 0.0139114 0)
(0.0090876 0.0140773 0)
(0.00930878 0.0142269 0)
(0.00945066 0.0143612 0)
(0.00955546 0.0144831 0)
(0.00969512 0.0145906 0)
(0.00977882 0.0146846 0)
(0.0098464 0.014767 0)
(0.00992319 0.0148369 0)
(0.00996206 0.0148957 0)
(0.0100028 0.0149443 0)
(0.0100335 0.0149831 0)
(0.010051 0.0150136 0)
(0.0100685 0.0150364 0)
(0.00898528 0.0143827 0)
(0.00915761 0.0145555 0)
(0.00938385 0.0147117 0)
(0.00952941 0.0148519 0)
(0.00963664 0.0149788 0)
(0.00977815 0.0150908 0)
(0.00986264 0.0151887 0)
(0.00993092 0.0152742 0)
(0.0100085 0.0153465 0)
(0.0100476 0.0154071 0)
(0.0100885 0.0154568 0)
(0.0101192 0.0154962 0)
(0.0101363 0.0155267 0)
(0.0101535 0.0155493 0)
(0.00904292 0.0148515 0)
(0.00922125 0.0150317 0)
(0.00945309 0.0151946 0)
(0.00960151 0.015341 0)
(0.00971034 0.0154733 0)
(0.00985365 0.0155901 0)
(0.00993963 0.0156921 0)
(0.0100094 0.0157809 0)
(0.0100882 0.0158558 0)
(0.0101278 0.0159182 0)
(0.0101689 0.0159691 0)
(0.0101995 0.016009 0)
(0.0102163 0.0160395 0)
(0.0102331 0.0160617 0)
(0.00909485 0.0153166 0)
(0.00927896 0.0155043 0)
(0.00951449 0.0156744 0)
(0.00966464 0.0158274 0)
(0.00977579 0.0159657 0)
(0.0099225 0.0160877 0)
(0.0100111 0.0161941 0)
(0.0100827 0.0162864 0)
(0.0101626 0.0163642 0)
(0.0102026 0.0164286 0)
(0.0102439 0.0164807 0)
(0.0102743 0.0165211 0)
(0.0102909 0.0165517 0)
(0.0103074 0.0165735 0)
(0.00914056 0.0157764 0)
(0.00932751 0.0159722 0)
(0.00956547 0.0161501 0)
(0.00971923 0.0163104 0)
(0.00983531 0.0164549 0)
(0.0099864 0.0165825 0)
(0.0100772 0.0166937 0)
(0.01015 0.01679 0)
(0.0102308 0.016871 0)
(0.0102716 0.0169377 0)
(0.0103134 0.0169912 0)
(0.0103439 0.0170323 0)
(0.0103603 0.0170628 0)
(0.0103765 0.0170842 0)
(0.00917525 0.0162296 0)
(0.00936402 0.0164344 0)
(0.00960779 0.0166206 0)
(0.0097686 0.0167884 0)
(0.00988971 0.0169397 0)
(0.0100434 0.0170734 0)
(0.0101355 0.0171901 0)
(0.0102102 0.0172911 0)
(0.0102933 0.0173757 0)
(0.0103354 0.017445 0)
(0.0103778 0.0175002 0)
(0.0104084 0.0175421 0)
(0.0104245 0.0175727 0)
(0.0104405 0.0175936 0)
(0.00919572 0.016675 0)
(0.0093913 0.0168893 0)
(0.00964515 0.0170842 0)
(0.00981182 0.0172599 0)
(0.00993493 0.0174188 0)
(0.0100908 0.0175596 0)
(0.0101865 0.0176825 0)
(0.0102653 0.0177887 0)
(0.0103509 0.0178775 0)
(0.0103937 0.0179501 0)
(0.0104366 0.0180074 0)
(0.0104675 0.0180503 0)
(0.0104837 0.018081 0)
(0.0104995 0.0181015 0)
(0.00920554 0.017111 0)
(0.00941325 0.0173351 0)
(0.00967514 0.0175389 0)
(0.00984368 0.0177235 0)
(0.00996915 0.017891 0)
(0.010131 0.0180397 0)
(0.0102331 0.0181695 0)
(0.0103153 0.0182817 0)
(0.0104014 0.0183756 0)
(0.0104453 0.0184522 0)
(0.0104898 0.0185123 0)
(0.0105215 0.0185567 0)
(0.0105378 0.0185878 0)
(0.0105535 0.0186078 0)
(0.00920912 0.0175353 0)
(0.00942725 0.0177693 0)
(0.00969237 0.017983 0)
(0.00986328 0.0181775 0)
(0.00999595 0.0183546 0)
(0.0101672 0.0185118 0)
(0.0102735 0.0186494 0)
(0.0103552 0.018769 0)
(0.0104438 0.0188693 0)
(0.0104918 0.0189508 0)
(0.0105384 0.0190144 0)
(0.0105707 0.0190609 0)
(0.010587 0.0190927 0)
(0.0106028 0.0191125 0)
(0.00920509 0.0179453 0)
(0.0094281 0.01819 0)
(0.00969533 0.0184146 0)
(0.00987382 0.0186198 0)
(0.0100186 0.0188069 0)
(0.0101963 0.0189736 0)
(0.0103005 0.0191205 0)
(0.0103862 0.0192492 0)
(0.0104833 0.019357 0)
(0.0105341 0.0194447 0)
(0.0105813 0.0195131 0)
(0.010614 0.0195627 0)
(0.0106313 0.0195959 0)
(0.0106473 0.0196156 0)
(0.00918888 0.0183386 0)
(0.00941225 0.0185949 0)
(0.00968623 0.0188312 0)
(0.00988014 0.0190473 0)
(0.0100345 0.0192451 0)
(0.0102086 0.0194228 0)
(0.0103176 0.0195811 0)
(0.0104166 0.0197197 0)
(0.0105167 0.0198366 0)
(0.0105677 0.0199325 0)
(0.0106165 0.0200076 0)
(0.0106523 0.0200616 0)
(0.010671 0.020097 0)
(0.010687 0.0201171 0)
(0.00915488 0.0187129 0)
(0.00938075 0.0189815 0)
(0.00967178 0.0192296 0)
(0.00987996 0.0194566 0)
(0.0100308 0.0196664 0)
(0.0102092 0.019857 0)
(0.0103353 0.0200271 0)
(0.0104376 0.0201773 0)
(0.0105382 0.0203058 0)
(0.010593 0.0204124 0)
(0.0106477 0.0204964 0)
(0.0106871 0.0205568 0)
(0.0107057 0.0205959 0)
(0.0107219 0.020617 0)
(0.00910197 0.0190656 0)
(0.00934036 0.0193466 0)
(0.00965051 0.0196058 0)
(0.00986007 0.0198444 0)
(0.0100133 0.0200677 0)
(0.0102087 0.0202713 0)
(0.0103404 0.0204543 0)
(0.0104451 0.0206187 0)
(0.0105514 0.0207611 0)
(0.0106137 0.0208811 0)
(0.0106747 0.0209768 0)
(0.0107142 0.0210467 0)
(0.0107343 0.021092 0)
(0.0107523 0.0211154 0)
(0.00903377 0.0193936 0)
(0.00929105 0.0196862 0)
(0.00961295 0.0199563 0)
(0.00982467 0.0202071 0)
(0.00998824 0.0204438 0)
(0.0101942 0.0206609 0)
(0.0103336 0.0208582 0)
(0.0104421 0.0210381 0)
(0.0105559 0.021197 0)
(0.0106284 0.0213332 0)
(0.0106904 0.0214448 0)
(0.0107334 0.0215289 0)
(0.0107587 0.0215842 0)
(0.0107781 0.0216122 0)
(0.00895142 0.0196939 0)
(0.009229 0.019997 0)
(0.0095593 0.0202775 0)
(0.00977277 0.0205402 0)
(0.00994928 0.0207901 0)
(0.0101717 0.0210202 0)
(0.0103104 0.0212321 0)
(0.0104248 0.0214292 0)
(0.0105543 0.0216058 0)
(0.0106289 0.0217612 0)
(0.0106953 0.0218937 0)
(0.0107478 0.0219977 0)
(0.0107776 0.0220693 0)
(0.0107984 0.0221067 0)
(0.00885483 0.0199632 0)
(0.00915162 0.0202755 0)
(0.00948392 0.0205658 0)
(0.00970551 0.0208396 0)
(0.00990306 0.0211008 0)
(0.0101271 0.021343 0)
(0.0102694 0.0215697 0)
(0.0104019 0.0217828 0)
(0.0105354 0.0219773 0)
(0.0106134 0.0221544 0)
(0.0106917 0.0223114 0)
(0.0107517 0.0224418 0)
(0.0107855 0.0225399 0)
(0.0108131 0.0225965 0)
(0.00874156 0.020199 0)
(0.00905366 0.0205189 0)
(0.00938961 0.0208176 0)
(0.0096251 0.0211005 0)
(0.00983505 0.0213711 0)
(0.0100646 0.021624 0)
(0.0102181 0.0218627 0)
(0.0103596 0.0220896 0)
(0.0104973 0.0223005 0)
(0.0105846 0.0224977 0)
(0.0106722 0.0226794 0)
(0.0107361 0.022841 0)
(0.0107808 0.022977 0)
(0.010819 0.023072 0)
(0.00860896 0.0203988 0)