/*--------------------------------*- C++ -*----------------------------------*\
| =========                 |                                                 |
| \\      /  F ield         | OpenFOAM Extend Project: Open source CFD        |
|  \\    /   O peration     | Version:  1.6-ext                               |
|   \\  /    A nd           | Web:      www.extend-project.de                 |
|    \\/     M anipulation  |                                                 |
\*---------------------------------------------------------------------------*/
FoamFile
{
    version     2.0;
    format      ascii;
    class       volScalarField;
    location    "0.85";
    object      p;
}
// * * * * * * * * * * * * * * * * * * * * * * * * * * * * * * * * * * * * * //

dimensions      [0 2 -2 0 0 0 0];

internalField   nonuniform List<scalar> 
20940
(
-0.15093
-0.193764
-0.238736
-0.286107
-0.335325
-0.386456
-0.438995
-0.492469
-0.546023
-0.598553
-0.648716
-0.69513
-0.736618
-0.772455
-0.802489
-0.827118
-0.847134
-0.863517
-0.877168
-0.888849
-0.900062
-0.911967
-0.178971
-0.220613
-0.264567
-0.310312
-0.357617
-0.406316
-0.45588
-0.505704
-0.554857
-0.602226
-0.646595
-0.686865
-0.722269
-0.752512
-0.777797
-0.79871
-0.816054
-0.830675
-0.843267
-0.854354
-0.865193
-0.876744
-0.203403
-0.243633
-0.286281
-0.330148
-0.375277
-0.421262
-0.467548
-0.513414
-0.557903
-0.599968
-0.638603
-0.67305
-0.702934
-0.728322
-0.749646
-0.767567
-0.782812
-0.796055
-0.807782
-0.818315
-0.828678
-0.839662
-0.226477
-0.265089
-0.306166
-0.347891
-0.390546
-0.433486
-0.476137
-0.517696
-0.557248
-0.593897
-0.626922
-0.65592
-0.68087
-0.702096
-0.720145
-0.735651
-0.74921
-0.761315
-0.772272
-0.78224
-0.792052
-0.802376
-0.247866
-0.284765
-0.324112
-0.363536
-0.403518
-0.443179
-0.481948
-0.518993
-0.553521
-0.584864
-0.612621
-0.636729
-0.657435
-0.675209
-0.690614
-0.704189
-0.716378
-0.727506
-0.737733
-0.747099
-0.756288
-0.765876
-0.267848
-0.302976
-0.34046
-0.377435
-0.414548
-0.450711
-0.485403
-0.517836
-0.547417
-0.573757
-0.596771
-0.616664
-0.633854
-0.648852
-0.662158
-0.674184
-0.685228
-0.695476
-0.704977
-0.713695
-0.72219
-0.730978
-0.286578
-0.319881
-0.355383
-0.389782
-0.423867
-0.456382
-0.486916
-0.514795
-0.539691
-0.5615
-0.580408
-0.596799
-0.611156
-0.623953
-0.635588
-0.646342
-0.656386
-0.665799
-0.67456
-0.682582
-0.69033
-0.698273
-0.304319
-0.335842
-0.369295
-0.401012
-0.431921
-0.460674
-0.487045
-0.510549
-0.531145
-0.548987
-0.564449
-0.577999
-0.590103
-0.601153
-0.611427
-0.621093
-0.630222
-0.63882
-0.646821
-0.654112
-0.661078
-0.668151
-0.321021
-0.350708
-0.38199
-0.410934
-0.438598
-0.46362
-0.486011
-0.505508
-0.52234
-0.536851
-0.54952
-0.560816
-0.571141
-0.580783
-0.589917
-0.598616
-0.606883
-0.614677
-0.621908
-0.628451
-0.634624
-0.640828
-0.337008
-0.364979
-0.394059
-0.42016
-0.444514
-0.465859
-0.48449
-0.50038
-0.513974
-0.525726
-0.53614
-0.545633
-0.554516
-0.562981
-0.571115
-0.578924
-0.586364
-0.593366
-0.599828
-0.605628
-0.611019
-0.616375
-0.351743
-0.377825
-0.404534
-0.427818
-0.449006
-0.467007
-0.48236
-0.495233
-0.506207
-0.515779
-0.524423
-0.532484
-0.540187
-0.547647
-0.554885
-0.561866
-0.568516
-0.57475
-0.580467
-0.585547
-0.590192
-0.594742
-0.365956
-0.390362
-0.414784
-0.435268
-0.453355
-0.468223
-0.480629
-0.490904
-0.499686
-0.507461
-0.514637
-0.521483
-0.528152
-0.534695
-0.541093
-0.547281
-0.553169
-0.558664
-0.563667
-0.568066
-0.572012
-0.575819
-0.377656
-0.400178
-0.422067
-0.440144
-0.455649
-0.468101
-0.478297
-0.486672
-0.493855
-0.500297
-0.506347
-0.512216
-0.518008
-0.523739
-0.529368
-0.534818
-0.539994
-0.5448
-0.549142
-0.552916
-0.556234
-0.559373
-0.390074
-0.410823
-0.430497
-0.446175
-0.459163
-0.469336
-0.477498
-0.484165
-0.489914
-0.495148
-0.500154
-0.505089
-0.510019
-0.514938
-0.519791
-0.524497
-0.528959
-0.533082
-0.53678
-0.539956
-0.542691
-0.545234
-0.395045
-0.41571
-0.432621
-0.447009
-0.458499
-0.467564
-0.474737
-0.480566
-0.485552
-0.490068
-0.494369
-0.498605
-0.502839
-0.507073
-0.51126
-0.515329
-0.519187
-0.522745
-0.525918
-0.528615
-0.530883
-0.532938
-0.41013
-0.427602
-0.441663
-0.45366
-0.462889
-0.470048
-0.475623
-0.480149
-0.484052
-0.487639
-0.491107
-0.494562
-0.498042
-0.501534
-0.504994
-0.508351
-0.511527
-0.51444
-0.517018
-0.519187
-0.520973
-0.522547
-0.430657
-0.44424
-0.453566
-0.461766
-0.467851
-0.472791
-0.476803
-0.480268
-0.483401
-0.486363
-0.489248
-0.492102
-0.494936
-0.497734
-0.500458
-0.503057
-0.505472
-0.507646
-0.509532
-0.511085
-0.512337
-0.513418
-0.440169
-0.451852
-0.458521
-0.465061
-0.469674
-0.473627
-0.476849
-0.479686
-0.482252
-0.484665
-0.486989
-0.489261
-0.491491
-0.493668
-0.495765
-0.497745
-0.499563
-0.501178
-0.502555
-0.503665
-0.504531
-0.505242
-0.447079
-0.45715
-0.461815
-0.467124
-0.470635
-0.473839
-0.476443
-0.478773
-0.480872
-0.482829
-0.484685
-0.486468
-0.488189
-0.48984
-0.491406
-0.492858
-0.494168
-0.495305
-0.496247
-0.496976
-0.497507
-0.4979
-0.450934
-0.459557
-0.463129
-0.467627
-0.470505
-0.473226
-0.475418
-0.477374
-0.479106
-0.480688
-0.482154
-0.483531
-0.48483
-0.486051
-0.487183
-0.488208
-0.489105
-0.489853
-0.490437
-0.490849
-0.491092
-0.491201
-0.45285
-0.460134
-0.463229
-0.467099
-0.469606
-0.47197
-0.473869
-0.475538
-0.47699
-0.478283
-0.479448
-0.48051
-0.481481
-0.482364
-0.483153
-0.483838
-0.484401
-0.484829
-0.485112
-0.485249
-0.485226
-0.48506
-0.453139
-0.459271
-0.462258
-0.465669
-0.467994
-0.470126
-0.471844
-0.473327
-0.474591
-0.475685
-0.47664
-0.477477
-0.478209
-0.478841
-0.479371
-0.479791
-0.48009
-0.480257
-0.480286
-0.48018
-0.479909
-0.479469
-0.452181
-0.457445
-0.460492
-0.463611
-0.46588
-0.46789
-0.469526
-0.470913
-0.472077
-0.473058
-0.473885
-0.474577
-0.475149
-0.475606
-0.475947
-0.476168
-0.476261
-0.476216
-0.476031
-0.475711
-0.475207
-0.474498
-0.450367
-0.455062
-0.458232
-0.461213
-0.463516
-0.465508
-0.467145
-0.468518
-0.469657
-0.470598
-0.471368
-0.471984
-0.472461
-0.472804
-0.473016
-0.473093
-0.473028
-0.472816
-0.472455
-0.471954
-0.471241
-0.47028
-0.448125
-0.452515
-0.45583
-0.458801
-0.461201
-0.463252
-0.464955
-0.466377
-0.467551
-0.468508
-0.469274
-0.469866
-0.470299
-0.470578
-0.470708
-0.470686
-0.47051
-0.470173
-0.469678
-0.469033
-0.468149
-0.466976
-0.445895
-0.450183
-0.453651
-0.456697
-0.459232
-0.461393
-0.463203
-0.464715
-0.465961
-0.466972
-0.467771
-0.468377
-0.468801
-0.469054
-0.469139
-0.469059
-0.468812
-0.468396
-0.467814
-0.467075
-0.466076
-0.464756
-0.44396
-0.448283
-0.451908
-0.455077
-0.457763
-0.460059
-0.461997
-0.463622
-0.464964
-0.466053
-0.466911
-0.467556
-0.468001
-0.468256
-0.468329
-0.468225
-0.467947
-0.467496
-0.466881
-0.466111
-0.465079
-0.46371
-0.442662
-0.447099
-0.450873
-0.454183
-0.457019
-0.459455
-0.461524
-0.463267
-0.464715
-0.465896
-0.46683
-0.467534
-0.468022
-0.468304
-0.46839
-0.468291
-0.468015
-0.46757
-0.466972
-0.466237
-0.465268
-0.463989
-0.441827
-0.446394
-0.450284
-0.453713
-0.45667
-0.459222
-0.461404
-0.463254
-0.464802
-0.466073
-0.467086
-0.467857
-0.468398
-0.468719
-0.468832
-0.468751
-0.468493
-0.46808
-0.46754
-0.466908
-0.466125
-0.465126
-0.441969
-0.446672
-0.450708
-0.454281
-0.457385
-0.46008
-0.462406
-0.464402
-0.466099
-0.467524
-0.468692
-0.469614
-0.470295
-0.470737
-0.47094
-0.470911
-0.470662
-0.470221
-0.469635
-0.468976
-0.468312
-0.467716
1.21135
1.26221
1.31299
1.36361
1.41364
1.46267
1.51032
1.55618
1.59985
1.64097
1.67918
1.71413
1.74553
1.77316
1.79688
1.81676
1.83314
1.84671
1.85846
1.8696
1.88299
1.90056
1.20326
1.2538
1.30396
1.35394
1.40329
1.45161
1.49851
1.54359
1.58647
1.62677
1.66414
1.69824
1.72879
1.75557
1.77845
1.79753
1.81316
1.8261
1.83733
1.84814
1.86136
1.87886
1.18316
1.23301
1.28188
1.33061
1.37867
1.42564
1.47115
1.5148
1.55621
1.595
1.63083
1.66336
1.69232
1.71748
1.73877
1.75628
1.77046
1.78213
1.79236
1.80247
1.81533
1.83269
1.15426
1.20306
1.24998
1.29678
1.34283
1.38771
1.43104
1.47244
1.51153
1.54795
1.58136
1.61142
1.63788
1.66053
1.67931
1.6944
1.70631
1.71599
1.72465
1.73369
1.74595
1.76306
1.1159
1.16329
1.20764
1.25194
1.29538
1.33753
1.37803
1.41652
1.45261
1.48594
1.51619
1.54303
1.56621
1.58555
1.60103
1.61291
1.62182
1.62886
1.63541
1.643
1.65445
1.67119
1.06979
1.11541
1.15662
1.19786
1.23809
1.27689
1.31392
1.34881
1.3812
1.41074
1.43709
1.45995
1.47908
1.49433
1.50573
1.51362
1.51878
1.52252
1.52642
1.53216
1.54254
1.55877
1.01689
1.06039
1.09796
1.13566
1.17218
1.20711
1.24013
1.27086
1.29896
1.32408
1.3459
1.36412
1.37851
1.38895
1.39552
1.39869
1.39941
1.3992
1.3999
1.40338
1.41242
1.42794
0.958922
0.999985
1.03348
1.06723
1.09959
1.13017
1.15867
1.18472
1.20798
1.2281
1.24478
1.25774
1.26673
1.27169
1.27275
1.27049
1.26606
1.26126
1.25821
1.25901
1.2664
1.28101
0.897416
0.935695
0.964801
0.994286
1.02216
1.04804
1.07166
1.09265
1.11065
1.12534
1.13641
1.14358
1.14664
1.14552
1.14043
1.13209
1.12185
1.11181
1.10445
1.10209
1.10748
1.12088
0.834334
0.869538
0.894028
0.918998
0.942082
0.962947
0.981335
0.99687
1.00921
1.01804
1.02303
1.02394
1.02053
1.01279
1.00098
0.985932
0.969256
0.953373
0.941141
0.935188
0.938209
0.950082
0.771059
0.802852
0.822664
0.843049
0.861266
0.877034
0.890091
0.900056
0.906585
0.909351
0.908043
0.902387
0.892181
0.877397
0.858371
0.836068
0.812339
0.789972
0.772256
0.762167
0.762369
0.772323
0.709797
0.737889
0.752972
0.768608
0.781768
0.792226
0.799711
0.803835
0.804257
0.800648
0.792699
0.780136
0.762761
0.74056
0.713922
0.683942
0.652719
0.62342
0.599789
0.585179
0.582203
0.589822
0.650908
0.674953
0.685729
0.696885
0.705281
0.710729
0.71293
0.711484
0.706034
0.696236
0.681764
0.662326
0.637708
0.607891
0.573296
0.535141
0.495794
0.458853
0.428603
0.408858
0.402197
0.407018
0.59767
0.616695
0.623085
0.629527
0.632945
0.633131
0.629763
0.622433
0.610782
0.594461
0.573145
0.546548
0.514464
0.476893
0.434305
0.388044
0.340725
0.296332
0.259621
0.234807
0.224326
0.22587
0.547866
0.561787
0.565193
0.567576
0.566851
0.562665
0.554626
0.542306
0.525307
0.50324
0.475737
0.442461
0.403153
0.357765
0.306754
0.251551
0.195059
0.141825
0.0973741
0.0666289
0.0520507
0.0503776
0.510125
0.512307
0.512732
0.510819
0.505138
0.495684
0.481996
0.46367
0.440314
0.411543
0.376995
0.33635
0.289392
0.236171
0.177329
0.114588
0.0512337
-0.00781457
-0.0568075
-0.0908428
-0.108001
-0.112328
0.470352
0.462897
0.458376
0.44926
0.436263
0.419156
0.397475
0.370906
0.33911
0.301775
0.258625
0.209462
0.154264
0.0933973
0.0279675
-0.0397699
-0.106148
-0.166319
-0.215196
-0.24894
-0.266899
-0.273835
0.423034
0.408674
0.399369
0.383773
0.364569
0.340867
0.312359
0.278768
0.2398
0.195208
0.144797
0.0884852
0.0264327
-0.0407138
-0.11147
-0.183172
-0.251884
-0.312844
-0.361496
-0.394868
-0.413449
-0.422627
0.37291
0.352772
0.338258
0.316414
0.291226
0.261217
0.22633
0.186286
0.140842
0.0898088
0.0330658
-0.0293525
-0.0970947
-0.169222
-0.243876
-0.318035
-0.387603
-0.448036
-0.495421
-0.527684
-0.546324
-0.557062
0.3208
0.29559
0.275823
0.248224
0.217441
0.18161
0.140909
0.0950386
0.0438237
-0.0128631
-0.0750512
-0.142562
-0.214815
-0.290551
-0.367544
-0.442497
-0.511311
-0.569846
-0.614963
-0.645501
-0.66379
-0.675606
0.267788
0.238154
0.213334
0.180581
0.144727
0.103729
0.0579382
0.00704545
-0.0490552
-0.110426
-0.176992
-0.248406
-0.323838
-0.401703
-0.479463
-0.553662
-0.620362
-0.675978
-0.718191
-0.746679
-0.764392
-0.776952
0.215057
0.18161
0.152102
0.114844
0.0745194
0.029076
-0.0210239
-0.0760827
-0.136136
-0.201172
-0.270995
-0.34507
-0.422299
-0.5008
-0.577797
-0.649817
-0.713241
-0.765146
-0.804034
-0.830301
-0.847309
-0.860367
0.163422
0.126767
0.093067
0.0520024
0.00789032
-0.0412098
-0.0947787
-0.153093
-0.216118
-0.283757
-0.355674
-0.431125
-0.508752
-0.586413
-0.661203
-0.729777
-0.788981
-0.836616
-0.871951
-0.895956
-0.912207
-0.925588
0.11388
0.0746135
0.0373047
-0.00685468
-0.0540333
-0.105985
-0.162171
-0.222824
-0.287836
-0.35701
-0.429852
-0.505401
-0.582053
-0.65748
-0.728768
-0.792852
-0.847147
-0.89019
-0.921928
-0.943739
-0.95924
-0.972815
0.0667555
0.0254612
-0.0148161
-0.061344
-0.110834
-0.16481
-0.22274
-0.284798
-0.350796
-0.420421
-0.493005
-0.567375
-0.641721
-0.713618
-0.780283
-0.839056
-0.887991
-0.926329
-0.954564
-0.974318
-0.989107
-1.00277
0.0228316
-0.019926
-0.0625108
-0.110708
-0.161777
-0.216994
-0.275843
-0.338425
-0.404461
-0.473507
-0.544712
-0.616704
-0.687533
-0.75479
-0.81595
-0.868863
-0.912247
-0.945963
-0.97091
-0.988802
-1.00293
-1.01658
-0.0182558
-0.061951
-0.106188
-0.155372
-0.207293
-0.262975
-0.321924
-0.38415
-0.449275
-0.516707
-0.585418
-0.653876
-0.720074
-0.781741
-0.836735
-0.883483
-0.921334
-0.950657
-0.9726
-0.988837
-1.00235
-1.01589
-0.0557381
-0.0998676
-0.145125
-0.194675
-0.246793
-0.302255
-0.360579
-0.421673
-0.485046
-0.549949
-0.615192
-0.679142
-0.739835
-0.79526
-0.843749
-0.884326
-0.916897
-0.942201
-0.961489
-0.976286
-0.989214
-1.00252
-0.0908179
-0.13495
-0.18065
-0.229985
-0.281674
-0.336249
-0.393233
-0.452416
-0.51318
-0.574627
-0.635442
-0.693976
-0.748424
-0.797152
-0.839021
-0.873622
-0.901304
-0.923025
-0.940008
-0.95355
-0.965889
-0.97882
-0.122127
-0.16584
-0.211447
-0.260058
-0.310782
-0.36391
-0.41896
-0.47559
-0.533053
-0.590322
-0.646023
-0.698582
-0.746467
-0.788485
-0.824029
-0.853161
-0.876535
-0.89518
-0.910191
-0.922601
-0.93425
-0.946542
-0.108789
-0.153093
-0.199409
-0.248807
-0.300406
-0.354468
-0.410496
-0.46811
-0.526527
-0.584668
-0.641111
-0.694248
-0.742527
-0.784766
-0.820383
-0.849477
-0.872736
-0.891218
-0.906041
-0.918253
-0.929684
-0.941728
-0.0772474
-0.121986
-0.168406
-0.218515
-0.271061
-0.32654
-0.38447
-0.444611
-0.506307
-0.568613
-0.630165
-0.689267
-0.744094
-0.79301
-0.834908
-0.869419
-0.896936
-0.918452
-0.935217
-0.948542
-0.960645
-0.973305
-0.0421501
-0.0868992
-0.13289
-0.183203
-0.236162
-0.2925
-0.35174
-0.413762
-0.478043
-0.543792
-0.609766
-0.674281
-0.735341
-0.790928
-0.8394
-0.879829
-0.912174
-0.937222
-0.956254
-0.970811
-0.983492
-0.996515
-0.00492505
-0.0492509
-0.0942433
-0.144184
-0.196933
-0.253468
-0.313303
-0.376426
-0.442434
-0.510696
-0.580132
-0.649156
-0.715718
-0.777529
-0.832466
-0.879008
-0.916567
-0.945573
-0.967216
-0.983187
-0.996444
-1.0097
0.0356347
-0.00776031
-0.0511286
-0.100081
-0.15197
-0.208023
-0.267736
-0.33119
-0.398088
-0.467952
-0.539882
-0.612452
-0.683657
-0.75106
-0.812142
-0.864804
-0.907834
-0.941169
-0.965765
-0.983364
-0.997232
-1.01061
0.0787508
0.0368128
-0.00428269
-0.0515718
-0.101883
-0.156686
-0.215465
-0.278378
-0.345223
-0.41566
-0.488978
-0.563947
-0.638699
-0.710767
-0.777361
-0.835859
-0.884393
-0.922291
-0.950125
-0.969557
-0.984082
-0.99748
0.124807
0.0848906
0.0467237
0.00178922
-0.0462188
-0.098999
-0.156029
-0.217531
-0.283387
-0.353377
-0.426971
-0.503155
-0.580263
-0.655912
-0.727167
-0.790986
-0.844858
-0.887419
-0.918712
-0.940171
-0.955409
-0.968743
0.173048
0.135735
0.101132
0.0592682
0.0143094
-0.0356326
-0.0900531
-0.149223
-0.213099
-0.28157
-0.354268
-0.430404
-0.508555
-0.586517
-0.661346
-0.729705
-0.788498
-0.835633
-0.870491
-0.894124
-0.910115
-0.923289
0.223197
0.189075
0.158617
0.120527
0.0793299
0.0330204
-0.017951
-0.073885
-0.134811
-0.200708
-0.271355
-0.346175
-0.424015
-0.502922
-0.580067
-0.65196
-0.71503
-0.76645
-0.804852
-0.830734
-0.847495
-0.860387
0.274311
0.243976
0.21816
0.184531
0.147771
0.105872
0.0591779
0.00737715
-0.0496321
-0.111905
-0.179349
-0.251585
-0.327727
-0.406125
-0.484172
-0.558378
-0.624823
-0.680013
-0.721759
-0.749869
-0.767354
-0.7798
0.325641
0.299688
0.278881
0.250353
0.218626
0.18185
0.140203
0.0933807
0.0412096
-0.0164335
-0.0795661
-0.147984
-0.221061
-0.297472
-0.374919
-0.450047
-0.518753
-0.576966
-0.621674
-0.651861
-0.669956
-0.681721
0.376075
0.355136
0.339545
0.316713
0.290537
0.259533
0.223651
0.182601
0.136143
0.0840883
0.0263246
-0.0370953
-0.105783
-0.178742
-0.254035
-0.32857
-0.39822
-0.458482
-0.505556
-0.537524
-0.556019
-0.566781
0.424583
0.409337
0.398935
0.382289
0.362049
0.337299
0.307738
0.273081
0.233032
0.187344
0.135828
0.0784141
0.0152901
-0.0528459
-0.124436
-0.196733
-0.265749
-0.326728
-0.375211
-0.408375
-0.426877
-0.436169
0.470407
0.461907
0.456271
0.446046
0.431964
0.413765
0.39098
0.363291
0.330353
0.291854
0.24752
0.197159
0.140769
0.0787593
0.0123014
-0.0562629
-0.123191
-0.183611
-0.2325
-0.266159
-0.284126
-0.291276
0.509144
0.510131
0.509444
0.506383
0.499559
0.488958
0.474105
0.454591
0.43002
0.400003
0.364177
0.322224
0.27394
0.219406
0.159317
0.095483
0.0312868
-0.0282922
-0.0775285
-0.11164
-0.128916
-0.133568
0.545225
0.557755
0.560039
0.561292
0.559404
0.554044
0.544805
0.531256
0.512991
0.489622
0.460776
0.426119
0.385401
0.3386
0.286224
0.229784
0.172282
0.118335
0.0734668
0.0425023
0.0277004
0.0256103
0.592915
0.610478
0.61575
0.621054
0.623291
0.622286
0.617696
0.60911
0.596164
0.578507
0.555813
0.527798
0.494265
0.455239
0.411237
0.363676
0.31526
0.27004
0.232777
0.207615
0.196812
0.197876
0.644329
0.666957
0.676617
0.686644
0.693857
0.698103
0.699067
0.696343
0.689572
0.678407
0.662523
0.641629
0.615521
0.584201
0.548136
0.508611
0.468077
0.430198
0.399275
0.379072
0.372007
0.376298
0.701494
0.728226
0.742191
0.756707
0.768689
0.777948
0.784196
0.78704
0.786137
0.781156
0.771788
0.757761
0.738887
0.715173
0.687046
0.655666
0.623206
0.592897
0.568509
0.553362
0.549926
0.556993
0.761364
0.79191
0.810627
0.82992
0.846984
0.861572
0.873408
0.882106
0.887321
0.888725
0.886008
0.878897
0.867199
0.850906
0.83039
0.806673
0.781676
0.75825
0.739716
0.729032
0.72874
0.738139
0.823584
0.857648
0.881072
0.904984
0.926953
0.946672
0.963873
0.978175
0.989238
0.996735
1.00036
0.999843
0.994989
0.985771
0.972501
0.956062
0.938121
0.921164
0.908087
0.901513
0.904027
0.915361
0.886043
0.923306
0.9514
0.979882
1.0067
1.03149
1.05398
1.07378
1.09056
1.10398
1.11374
1.11955
1.12122
1.11868
1.1122
1.1025
1.09103
1.07993
1.07172
1.06874
1.07363
1.08652
0.947377
0.987545
1.0201
1.05291
1.08429
1.11384
1.14128
1.16623
1.18834
1.20728
1.22273
1.23441
1.24211
1.24574
1.24549
1.24196
1.23636
1.23054
1.22668
1.22686
1.23378
1.24792
1.00565
1.04839
1.0851
1.12194
1.15757
1.19157
1.22362
1.25336
1.28041
1.30445
1.32514
1.3422
1.3554
1.36463
1.37001
1.37201
1.37164
1.37049
1.37043
1.37333
1.38193
1.39704
1.05933
1.1043
1.14476
1.18524
1.22469
1.26266
1.29884
1.33285
1.36431
1.39289
1.41825
1.44009
1.45817
1.47235
1.48268
1.48953
1.49374
1.49663
1.49984
1.50506
1.51505
1.53092
1.10666
1.15352
1.19724
1.2409
1.28368
1.32513
1.36491
1.40264
1.43795
1.47047
1.49987
1.52585
1.54813
1.56657
1.58114
1.59214
1.60023
1.60654
1.61249
1.61963
1.63075
1.64719
1.14663
1.19502
1.24143
1.28773
1.33325
1.37756
1.42031
1.46111
1.49958
1.53535
1.56808
1.59745
1.62319
1.64511
1.66317
1.67755
1.6888
1.69789
1.70607
1.71475
1.72675
1.74362
1.17747
1.22703
1.27553
1.32389
1.37156
1.41813
1.46321
1.50642
1.54737
1.58569
1.62103
1.65305
1.68149
1.70612
1.72687
1.74387
1.75757
1.76879
1.77867
1.78852
1.80118
1.81837
1.19974
1.25012
1.30004
1.3498
1.39892
1.44699
1.49363
1.53845
1.58105
1.62106
1.65813
1.69192
1.72216
1.74861
1.77117
1.78993
1.80526
1.81793
1.82895
1.83959
1.8527
1.87009
1.21016
1.26096
1.31166
1.36221
1.41216
1.46111
1.50867
1.55444
1.59802
1.63905
1.67715
1.712
1.7433
1.77081
1.79443
1.8142
1.83048
1.84396
1.85563
1.86672
1.88008
1.89761
-0.13804
-0.166699
-0.191845
-0.215718
-0.237933
-0.258735
-0.278247
-0.296704
-0.314041
-0.330564
-0.345749
-0.360307
-0.372306
-0.384934
-0.390233
-0.405578
-0.4268
-0.436883
-0.444157
-0.448187
-0.45015
-0.450402
-0.449339
-0.447358
-0.444902
-0.442427
-0.440251
-0.438719
-0.437716
-0.437669
-0.181442
-0.208889
-0.232597
-0.254826
-0.275304
-0.294313
-0.31198
-0.328642
-0.34413
-0.358936
-0.372233
-0.385141
-0.395268
-0.406178
-0.411305
-0.42351
-0.440849
-0.448857
-0.454425
-0.456977
-0.457604
-0.456715
-0.454796
-0.45226
-0.449518
-0.446965
-0.444849
-0.443462
-0.442613
-0.442736
-0.227116
-0.253545
-0.275944
-0.296599
-0.315345
-0.332486
-0.348165
-0.362772
-0.376083
-0.388686
-0.399607
-0.410237
-0.417821
-0.42652
-0.428846
-0.438173
-0.450723
-0.455982
-0.459455
-0.460832
-0.460922
-0.459894
-0.458025
-0.455617
-0.453033
-0.450654
-0.448715
-0.447502
-0.446786
-0.447085
-0.275285
-0.300096
-0.32062
-0.339132
-0.355571
-0.370252
-0.38334
-0.395248
-0.405765
-0.415508
-0.42359
-0.431403
-0.436546
-0.442821
-0.443781
-0.450679
-0.459283
-0.462758
-0.464924
-0.465457
-0.464912
-0.463426
-0.461271
-0.458739
-0.456161
-0.453879
-0.452086
-0.451038
-0.450459
-0.450929
-0.325396
-0.348308
-0.366664
-0.382703
-0.396463
-0.408262
-0.418302
-0.427008
-0.434249
-0.440649
-0.445525
-0.450195
-0.452701
-0.45641
-0.455801
-0.460376
-0.465684
-0.467603
-0.468608
-0.468472
-0.467536
-0.46586
-0.46365
-0.46116
-0.458694
-0.456564
-0.454942
-0.454066
-0.453624
-0.454262
-0.377484
-0.397981
-0.413631
-0.426622
-0.43709
-0.445368
-0.451727
-0.45663
-0.460091
-0.462756
-0.464224
-0.465692
-0.465711
-0.467071
-0.465286
-0.467887
-0.470829
-0.471693
-0.47191
-0.471275
-0.469978
-0.468071
-0.465746
-0.463246
-0.460853
-0.45885
-0.457382
-0.456664
-0.456353
-0.457154
-0.431024
-0.448557
-0.460932
-0.470277
-0.47684
-0.481007
-0.48316
-0.483842
-0.483255
-0.482084
-0.480192
-0.478629
-0.476361
-0.475614
-0.472785
-0.473722
-0.47499
-0.47502
-0.474594
-0.473536
-0.471942
-0.469855
-0.467451
-0.464961
-0.462646
-0.460765
-0.45944
-0.45887
-0.458685
-0.459646
-0.485502
-0.499389
-0.5078
-0.512817
-0.514832
-0.514339
-0.511876
-0.50811
-0.503432
-0.498564
-0.493565
-0.489316
-0.485074
-0.482551
-0.478843
-0.47842
-0.478549
-0.477927
-0.47698
-0.475542
-0.473661
-0.471389
-0.468894
-0.466397
-0.464142
-0.462364
-0.461166
-0.460729
-0.460661
-0.461782
-0.54002
-0.5495
-0.553231
-0.553281
-0.550226
-0.544726
-0.537506
-0.529356
-0.520824
-0.512624
-0.50492
-0.498399
-0.492495
-0.488484
-0.483985
-0.482438
-0.481748
-0.480545
-0.479123
-0.477316
-0.475154
-0.472696
-0.470103
-0.467589
-0.465377
-0.463683
-0.462593
-0.462274
-0.462316
-0.463598
-0.593424
-0.597729
-0.596134
-0.590731
-0.582317
-0.571747
-0.559918
-0.547713
-0.535764
-0.52472
-0.514762
-0.506379
-0.499097
-0.49384
-0.488604
-0.4861
-0.484759
-0.483
-0.481118
-0.478934
-0.476483
-0.473826
-0.471123
-0.468573
-0.466385
-0.464754
-0.463752
-0.463536
-0.463676
-0.465123
-0.644329
-0.642822
-0.635469
-0.624414
-0.610679
-0.595298
-0.579287
-0.563557
-0.548737
-0.53537
-0.523586
-0.51369
-0.505252
-0.498925
-0.492977
-0.489622
-0.487685
-0.485363
-0.48301
-0.480435
-0.47768
-0.474812
-0.471982
-0.469379
-0.467193
-0.465602
-0.464668
-0.464536
-0.464764
-0.466375
-0.69132
-0.683656
-0.670456
-0.653916
-0.635239
-0.615583
-0.596003
-0.577365
-0.560232
-0.545012
-0.531759
-0.520621
-0.511191
-0.503916
-0.497267
-0.493121
-0.490578
-0.487673
-0.484829
-0.481845
-0.478772
-0.475677
-0.472703
-0.470026
-0.467821
-0.466249
-0.465361
-0.465296
-0.465596
-0.467367
-0.733213
-0.719457
-0.700721
-0.679216
-0.656251
-0.633028
-0.610563
-0.589624
-0.570672
-0.55398
-0.539529
-0.527343
-0.517032
-0.50889
-0.501548
-0.496643
-0.493455
-0.489943
-0.486586
-0.483177
-0.479773
-0.476436
-0.473301
-0.47053
-0.468283
-0.466708
-0.465845
-0.465828
-0.466187
-0.468106
-0.769291
-0.749943
-0.726342
-0.700651
-0.674203
-0.648166
-0.623466
-0.60075
-0.580369
-0.562487
-0.547024
-0.533922
-0.522801
-0.51385
-0.505828
-0.50018
-0.496298
-0.492163
-0.488277
-0.484432
-0.480686
-0.477095
-0.473783
-0.470897
-0.468588
-0.466988
-0.466132
-0.466146
-0.466547
-0.468594
-0.799427
-0.775339
-0.747775
-0.718794
-0.68968
-0.661523
-0.635133
-0.611045
-0.589518
-0.570636
-0.554284
-0.540347
-0.528466
-0.518744
-0.510064
-0.503688
-0.499071
-0.494306
-0.489884
-0.485601
-0.481506
-0.477652
-0.474148
-0.471131
-0.468739
-0.467096
-0.466229
-0.466259
-0.466689
-0.468834
-0.82405
-0.796258
-0.765704
-0.734302
-0.703248
-0.673535
-0.64587
-0.620696
-0.59821
-0.578448
-0.561278
-0.54656
-0.533953
-0.523494
-0.514183
-0.507097
-0.501721
-0.496334
-0.49138
-0.486664
-0.482223
-0.478099
-0.474392
-0.471228
-0.468736
-0.467034
-0.466143
-0.466178
-0.466628
-0.46883
-0.843981
-0.813531
-0.780884
-0.747798
-0.715376
-0.684523
-0.655867
-0.629791
-0.606459
-0.585886
-0.567942
-0.552476
-0.539167
-0.528002
-0.518095
-0.510327
-0.504189
-0.498202
-0.492735
-0.4876
-0.482819
-0.478425
-0.474507
-0.471183
-0.468575
-0.4668
-0.465877
-0.465914
-0.466383
-0.468597
-0.860225
-0.828028
-0.794013
-0.759799
-0.726412
-0.694692
-0.66522
-0.638349
-0.614234
-0.592888
-0.574195
-0.558003
-0.544017
-0.532176
-0.52171
-0.513298
-0.506419
-0.499868
-0.493918
-0.488388
-0.483281
-0.47862
-0.474485
-0.470988
-0.468252
-0.466393
-0.465432
-0.465473
-0.465973
-0.468162
-0.873707
-0.840464
-0.805598
-0.770629
-0.736531
-0.704109
-0.67392
-0.646314
-0.621451
-0.599358
-0.579936
-0.563044
-0.548407
-0.535928
-0.524943
-0.515935
-0.508361
-0.501296
-0.494905
-0.489012
-0.483599
-0.478678
-0.474323
-0.470644
-0.467767
-0.465815
-0.464817
-0.464873
-0.465431
-0.467574
-0.885204
-0.851384
-0.815981
-0.780467
-0.745791
-0.712746
-0.681889
-0.653577
-0.627991
-0.605173
-0.585048
-0.567486
-0.552233
-0.539161
-0.527699
-0.518162
-0.509967
-0.502456
-0.495679
-0.489464
-0.48377
-0.478601
-0.474026
-0.470158
-0.467131
-0.465078
-0.464042
-0.46413
-0.464789
-0.466906
-0.896217
-0.862041
-0.826187
-0.79015
-0.754881
-0.721173
-0.689598
-0.660532
-0.634176
-0.610596
-0.589738
-0.571488
-0.555611
-0.541958
-0.530032
-0.520009
-0.511274
-0.503373
-0.496257
-0.489749
-0.483785
-0.478362
-0.473547
-0.469461
-0.466253
-0.464076
-0.462998
-0.463143
-0.463988
-0.466227
-0.907897
-0.873395
-0.837005
-0.800344
-0.764376
-0.729904
-0.697516
-0.667609
-0.640408
-0.616
-0.594352
-0.575366
-0.558826
-0.544578
-0.532163
-0.521654
-0.512419
-0.504141
-0.496703
-0.489907
-0.483664
-0.47796
-0.472867
-0.468519
-0.465085
-0.462748
-0.46161
-0.461837
-0.462961
-0.465611
0.15751
0.156995
0.156951
0.156802
0.156768
0.156669
0.156534
0.156303
0.155981
0.155559
0.155052
0.154475
0.153848
0.153189
0.152515
0.15184
0.151174
0.150526
0.149901
0.149304
0.148736
0.148201
0.147698
0.147232
0.155285
0.154747
0.154693
0.154527
0.15448
0.154367
0.154221
0.153982
0.153659
0.153242
0.15275
0.152196
0.151602
0.150986
0.150366
0.149756
0.149166
0.148606
0.14808
0.147593
0.147146
0.146741
0.146377
0.146055
0.152914
0.152354
0.15229
0.152106
0.152046
0.151918
0.151762
0.151516
0.151192
0.150782
0.150305
0.149777
0.149218
0.148648
0.148086
0.147544
0.147036
0.146568
0.146148
0.145777
0.145458
0.145191
0.144973
0.144802
0.150397
0.149816
0.149741
0.149541
0.149466
0.149324
0.149157
0.148906
0.148581
0.14818
0.147719
0.147218
0.146697
0.146176
0.145674
0.145205
0.144782
0.144413
0.144103
0.143856
0.143671
0.143548
0.143483
0.143471
0.147735
0.147133
0.147048
0.14683
0.146741
0.146586
0.146408
0.146151
0.145827
0.145434
0.144992
0.144519
0.144038
0.143569
0.143131
0.14274
0.142407
0.14214
0.141947
0.141828
0.141784
0.141812
0.141906
0.14206
0.144929
0.144307
0.144211
0.143976
0.143873
0.143704
0.143516
0.143252
0.14293
0.142547
0.142125
0.141683
0.141244
0.140829
0.140458
0.140147
0.139909
0.139751
0.139679
0.139695
0.139797
0.139982
0.140242
0.140568
0.14198
0.14134
0.141233
0.140981
0.140864
0.14068
0.140481
0.140213
0.139893
0.13952
0.139119
0.138709
0.138314
0.137956
0.137656
0.13743
0.13729
0.137245
0.1373
0.137457
0.137712
0.13806
0.138491
0.138995
0.138891
0.138234
0.138115
0.137847
0.137715
0.137516
0.137307
0.137034
0.136716
0.136355
0.135976
0.1356
0.135251
0.134954
0.134728
0.13459
0.134553
0.134626
0.134813
0.135115
0.135528
0.136044
0.136653
0.13734
0.135664
0.134991
0.134861
0.134576
0.134428
0.134215
0.133996
0.133718
0.133403
0.133055
0.132699
0.132358
0.132058
0.131823
0.131675
0.131629
0.1317
0.131895
0.132219
0.132672
0.133247
0.133938
0.134729
0.135604
0.132303
0.131615
0.131474
0.131172
0.131009
0.130781
0.130551
0.130268
0.129957
0.129622
0.12929
0.128987
0.128738
0.128568
0.1285
0.128551
0.128733
0.129056
0.129522
0.13013
0.130873
0.131743
0.132721
0.133789
0.128811
0.128111
0.127958
0.127639
0.12746
0.127217
0.126977
0.126689
0.126381
0.12606
0.125755
0.12549
0.125294
0.125193
0.125209
0.12536
0.125658
0.126112
0.126724
0.127492
0.128409
0.129461
0.130631
0.131896
0.125194
0.124482
0.124317
0.123982
0.123787
0.123528
0.123277
0.122985
0.122681
0.122375
0.122097
0.121873
0.121733
0.121703
0.121806
0.12206
0.122478
0.123068
0.12383
0.124763
0.125857
0.127096
0.128462
0.129928
0.121455
0.120734
0.120558
0.120206
0.119994
0.11972
0.119458
0.119161
0.118862
0.118572
0.118322
0.11814
0.118058
0.118102
0.118295
0.118657
0.119199
0.119928
0.120846
0.121947
0.123222
0.124653
0.126217
0.127888
0.117603
0.116874
0.116686
0.116318
0.116089
0.115799
0.115525
0.115224
0.11493
0.114656
0.114436
0.114299
0.114277
0.114397
0.114685
0.115157
0.115826
0.116699
0.117776
0.11905
0.120509
0.122135
0.123902
0.12578
0.113642
0.112908
0.112707
0.112323
0.112077
0.111772
0.111487
0.111181
0.110893
0.110636
0.110447
0.110355
0.110396
0.110596
0.11098
0.111567
0.112368
0.113388
0.114627
0.116077
0.117724
0.119547
0.12152
0.123608
0.109581
0.108844
0.108631
0.108231
0.107967
0.107646
0.107349
0.107039
0.106757
0.106518
0.106361
0.106318
0.106423
0.106706
0.10719
0.107894
0.10883
0.110001
0.111405
0.113034
0.114872
0.116896
0.119076
0.121377
0.105428
0.10469
0.104465
0.10405
0.103768
0.10343
0.103122
0.102808
0.102532
0.102313
0.10219
0.102196
0.102368
0.102736
0.103323
0.104148
0.105221
0.106546
0.108119
0.10993
0.11196
0.114187
0.116576
0.119091
0.101192
0.100456
0.100219
0.0997889
0.0994888
0.0991346
0.0988147
0.0984971
0.0982283
0.0980286
0.0979406
0.0979989
0.0982404
0.0986951
0.0993881
0.100337
0.10155
0.103032
0.104776
0.106771
0.108996
0.111426
0.114027
0.116757
0.0968839
0.0961513
0.0959025
0.0954582
0.0951397
0.0947693
0.0944376
0.0941166
0.0938553
0.0936767
0.0936251
0.0937368
0.0940497
0.0945943
0.0953956
0.0964703
0.0978273
0.0994678
0.101385
0.103565
0.105987
0.108622
0.111433
0.114379
0.0925134
0.0917874
0.0915269
0.0910688
0.090732
0.0903455
0.0900021