/*--------------------------------*- C++ -*----------------------------------*\
| =========                 |                                                 |
| \\      /  F ield         | OpenFOAM Extend Project: Open source CFD        |
|  \\    /   O peration     | Version:  1.6-ext                               |
|   \\  /    A nd           | Web:      www.extend-project.de                 |
|    \\/     M anipulation  |                                                 |
\*---------------------------------------------------------------------------*/
FoamFile
{
    version     2.0;
    format      ascii;
    class       surfaceScalarField;
    location    "0.85";
    object      phi;
}
// * * * * * * * * * * * * * * * * * * * * * * * * * * * * * * * * * * * * * //

dimensions      [0 3 -1 0 0 0 0];

internalField   nonuniform List<scalar> 
41420
(
-0.000126958
0.000396703
-0.00039745
0.000127705
-0.000125752
0.00037778
-0.000378986
-0.00012412
0.000359202
-0.000360834
-0.000122061
0.000340871
-0.000342929
-0.000119514
0.000322785
-0.000325332
-0.000116327
0.000304728
-0.000307915
-0.000112261
0.000286352
-0.000290418
-0.000107022
0.000267184
-0.000272423
-0.000100337
0.000246742
-0.000253428
-9.20502e-05
0.000224682
-0.000232968
-8.22193e-05
0.00020095
-0.000210781
-7.11545e-05
0.000175872
-0.000186937
-5.93864e-05
0.000150137
-0.000161905
-4.75742e-05
0.000124664
-0.000136476
-3.63752e-05
0.000100421
-0.00011162
-2.63376e-05
7.82367e-05
-8.82742e-05
-1.78323e-05
5.86877e-05
-6.7193e-05
-1.10425e-05
4.20575e-05
-4.88473e-05
-5.98877e-06
2.83663e-05
-3.342e-05
-2.57654e-06
1.74371e-05
-2.08493e-05
-6.43789e-07
8.9687e-06
-1.09015e-05
2.6037e-06
-3.24749e-06
-0.000134774
0.000395781
0.000135695
-0.000133371
0.000376377
-0.000131504
0.000357335
-0.000129136
0.000338503
-0.000126152
0.000319801
-0.00012234
0.000300916
-0.000117413
0.000281424
-0.000111068
0.000260839
-0.000103084
0.000238759
-9.34262e-05
0.000215024
-8.23072e-05
0.000189831
-7.01909e-05
0.000163756
-5.77157e-05
0.000137662
-4.55713e-05
0.00011252
-3.43752e-05
8.92245e-05
-2.45841e-05
6.84456e-05
-1.64616e-05
5.05652e-05
-1.00914e-05
3.56873e-05
-5.41981e-06
2.36947e-05
-2.3054e-06
1.43227e-05
-5.63481e-07
7.22678e-06
2.04022e-06
-0.000149657
0.000394187
0.000151251
-0.000147555
0.000374275
-0.000144935
0.000354715
-0.000141705
0.000335274
-0.000137683
0.000315779
-0.000132588
0.000295821
-0.000126099
0.000274935
-0.000117941
0.000252681
-0.000107998
0.000228816
-9.63984e-05
0.000203425
-8.35459e-05
0.000176978
-7.00608e-05
0.000150271
-5.66654e-05
0.000124266
-4.40472e-05
9.99017e-05
-3.27499e-05
7.79272e-05
-2.31191e-05
5.88147e-05
-1.53017e-05
4.27478e-05
-9.28306e-06
2.96687e-05
-4.938e-06
1.93497e-05
-2.08045e-06
1.14651e-05
-5.02446e-07
5.64878e-06
1.53777e-06
-0.000163939
0.000391944
0.000166183
-0.000161136
0.000371471
-0.000157714
0.000351293
-0.000153509
0.000331068
-0.000148258
0.000310528
-0.000141629
0.000289192
-0.000133306
0.000266612
-0.000123102
0.000242477
-0.000111067
0.000216781
-9.75379e-05
0.000189896
-8.31086e-05
0.000162549
-6.85218e-05
0.000135684
-5.45266e-05
0.000110271
-4.17501e-05
8.71251e-05
-3.06215e-05
6.67987e-05
-2.13562e-05
4.95494e-05
-1.39849e-05
3.53765e-05
-8.40465e-06
2.40884e-05
-4.43305e-06
1.5378e-05
-1.85289e-06
8.88497e-06
-4.43543e-07
4.23943e-06
1.09423e-06
-0.000176899
0.000389098
0.000179746
-0.000173396
0.000367968
-0.000169109
0.000347006
-0.000163782
0.000325742
-0.000157084
0.00030383
-0.000148663
0.000280771
-0.000138272
0.000256222
-0.000125887
0.000230092
-0.000111779
0.000202672
-9.65073e-05
0.000174624
-8.08259e-05
0.000146868
-6.55362e-05
0.000120395
-5.13435e-05
9.60783e-05
-3.87605e-05
7.45421e-05
-2.80741e-05
5.61122e-05
-1.93657e-05
4.0841e-05
-1.25607e-05
2.85715e-05
-7.48584e-06
1.90136e-05
-3.91903e-06
1.18112e-05
-1.62652e-06
6.59246e-06
-3.86263e-07
2.99917e-06
7.07966e-07
-0.00018845
0.000385669
0.000191879
-0.000184197
0.000363716
-0.000178901
0.00034171
-0.00017222
0.000319061
-0.000163786
0.000295395
-0.000153294
0.000270279
-0.000140651
0.000243578
-0.000126062
0.000215503
-0.000110049
0.00018666
-9.33701e-05
0.000157945
-7.68724e-05
0.00013037
-6.13351e-05
0.000104857
-4.73528e-05
8.2096e-05
-3.52857e-05
6.2475e-05
-2.52692e-05
4.60957e-05
-1.72611e-05
3.2833e-05
-1.11016e-05
2.2412e-05
-6.56778e-06
1.44797e-05
-3.41582e-06
8.65928e-06
-1.40879e-06
4.58544e-06
-3.32088e-07
1.92247e-06
3.75879e-07
-0.00019837
0.00038161
0.000202428
-0.000193232
0.000358577
-0.000186695
0.000335173
-0.000178356
0.000310722
-0.000167875
0.000284914
-0.000155087
0.000257491
-0.000140135
0.000228626
-0.000123499
0.000198867
-0.000105934
0.000169095
-8.83289e-05
0.00014034
-7.15314e-05
0.000113572
-5.62179e-05
8.95439e-05
-4.28234e-05
6.87015e-05
-3.15402e-05
5.11918e-05
-2.23621e-05
3.69176e-05
-1.51457e-05
2.56166e-05
-9.67036e-06
1.69367e-05
-5.68495e-06
1.04943e-05
-2.93987e-06
5.9142e-06
-1.20577e-06
2.85133e-06
-2.82285e-07
9.98978e-07
9.35938e-08
-0.000206434
0.000376825
0.000211219
-0.000200189
0.000352333
-0.000192098
0.000327082
-0.000181761
0.000300385
-0.000168962
0.000272115
-0.000153777
0.000242306
-0.000136645
0.000211495
-0.000118318
0.000180539
-9.97158e-05
0.000150493
-8.17557e-05
0.00012238
-6.51925e-05
9.70093e-05
-5.05362e-05
7.48875e-05
-3.80385e-05
5.62038e-05
-2.77322e-05
4.08855e-05
-1.9494e-05
2.86793e-05
-1.3108e-05
1.92306e-05
-8.31806e-06
1.21468e-05
-4.86397e-06
7.04023e-06
-2.50316e-06
3.55339e-06
-1.0217e-06
1.36987e-06
-2.37666e-07
2.14944e-07
-1.44072e-07
-0.000212256
0.000371071
0.00021801
-0.000204583
0.00034466
-0.000194581
0.00031708
-0.000181955
0.000287759
-0.00016672
0.00025688
-0.000149261
0.000224847
-0.000130322
0.000192556
-0.000110856
0.000161073
-9.18461e-05
0.000131483
-7.41272e-05
0.000104661
-5.82873e-05
8.11693e-05
-4.46392e-05
6.12395e-05
-3.32571e-05
4.48216e-05
-2.40397e-05
3.16681e-05
-1.67788e-05
2.14185e-05
-1.12159e-05
1.36676e-05
-7.08195e-06
8.01284e-06
-4.12318e-06
4.08146e-06
-2.11341e-06
1.54362e-06
-8.59e-07
1.15467e-07
-1.98608e-07
-4.45448e-07
-3.4268e-07
-0.000215468
0.000364098
0.000222441
-0.00020602
0.000335212
-0.000193795
0.000304854
-0.000178721
0.000272685
-0.000161143
0.000239301
-0.000141778
0.000205483
-0.000121611
0.000172388
-0.000101685
0.000141147
-8.2919e-05
0.000112717
-6.59813e-05
8.77229e-05
-5.12521e-05
6.64401e-05
-3.88508e-05
4.88382e-05
-2.87015e-05
3.46723e-05
-2.06054e-05
2.3572e-05
-1.43029e-05
1.51159e-05
-9.5181e-06
8.88285e-06
-5.98756e-06
4.4823e-06
-3.47463e-06
1.56853e-06
-1.77543e-06
-1.5558e-07
-7.19119e-07
-9.40845e-07
-1.65323e-07
-9.99243e-07
-5.08003e-07
-0.000215521
0.000355451
0.000224168
-0.000203955
0.000323647
-0.000189335
0.000290234
-0.000171915
0.000255265
-0.000152384
0.000219771
-0.000131742
0.000184841
-0.00011109
0.000151736
-9.14303e-05
0.000121487
-7.3516e-05
9.4803e-05
-5.77989e-05
7.20059e-05
-4.44494e-05
5.30905e-05
-3.34231e-05
3.78119e-05
-2.45353e-05
2.57845e-05
-1.75283e-05
1.65651e-05
-1.21217e-05
9.70926e-06
-8.04358e-06
4.80478e-06
-5.04848e-06
1.4872e-06
-2.92383e-06
-5.5612e-07
-1.49091e-06
-1.5885e-06
-6.02236e-07
-1.82952e-06
-1.37679e-07
-1.4638e-06
-6.45682e-07
-0.000212304
0.000344981
0.000222774
-0.000198467
0.00030981
-0.000181512
0.000273278
-0.00016209
0.000235844
-0.000141205
0.000198885
-0.000120018
0.000163655
-9.96189e-05
0.000131337
-8.08513e-05
0.00010272
-6.42443e-05
7.8196e-05
-5.0026e-05
5.77875e-05
-3.81848e-05
4.12494e-05
-2.85531e-05
2.81802e-05
-2.08781e-05
1.81095e-05
-1.48771e-05
1.0564e-05
-1.02723e-05
5.1045e-06
-6.81096e-06
1.34344e-06
-4.27338e-06
-1.05038e-06
-2.47449e-06
-2.35501e-06
-1.26136e-06
-2.80163e-06
-5.08973e-07
-2.5819e-06
-1.15929e-07
-1.85684e-06
-7.61611e-07
-0.000205289
0.000332188
0.000218083
-0.000189214
0.000293734
-0.000170302
0.000254366
-0.000149547
0.00021509
-0.000128137
0.000177474
-0.000107246
0.000142764
-8.78139e-05
0.000111905
-7.0463e-05
8.53688e-05
-5.54867e-05
6.32198e-05
-4.29175e-05
4.52184e-05
-3.26104e-05
3.09423e-05
-2.43203e-05
1.98901e-05
-1.77646e-05
1.15538e-05
-1.26617e-05
5.46112e-06
-8.75344e-06
1.19623e-06
-5.815e-06
-1.59501e-06
-3.65685e-06
-3.20853e-06
-2.12248e-06
-3.88937e-06
-1.08412e-06
-3.83999e-06
-4.3789e-07
-3.22814e-06
-9.9459e-08
-2.19527e-06
-8.6107e-07
-0.000195095
0.000317607
0.000209676
-0.000177179
0.000275818
-0.000156877
0.000234065
-0.000135547
0.00019376
-0.000114386
0.000156314
-9.44709e-05
0.000122849
-7.65109e-05
9.39448e-05
-6.08791e-05
6.9737e-05
-4.76597e-05
5.00003e-05
-3.67355e-05
3.42942e-05
-2.78758e-05
2.20826e-05
-2.08007e-05
1.28151e-05
-1.52263e-05
5.9794e-06
-1.08901e-05
1.1249e-06
-7.56264e-06
-2.13118e-06
-5.0507e-06
-4.10695e-06
-3.19505e-06
-5.06419e-06
-1.8663e-06
-5.21812e-06
-9.59808e-07
-4.74649e-06
-3.90682e-07
-3.79726e-06
-8.97095e-08
-2.49625e-06
-9.5078e-07
-0.000181469
0.000300802
0.000198273
-0.000162312
0.000256661
-0.000141499
0.000213251
-0.000120497
0.000172758
-0.00010043
0.000136246
-8.21256e-05
0.000104545
-6.60348e-05
7.7854e-05
-5.23025e-05
5.60047e-05
-4.08548e-05
3.85526e-05
-3.14873e-05
2.49267e-05
-2.39347e-05
1.453e-05
-1.79189e-05
6.79923e-06
-1.31775e-05
1.23798e-06
-9.4784e-06
-2.57417e-06
-6.62495e-06
-4.98463e-06
-4.45506e-06
-6.27683e-06
-2.83765e-06
-6.6816e-06
-1.66769e-06
-6.38808e-06
-8.61099e-07
-5.55308e-06
-3.49893e-07
-4.30847e-06
-7.84308e-08
-2.76771e-06
-1.02921e-06
-0.000342746
0.0002446
0.000398948
-0.000287296
0.000201212
-0.000235175
0.00016113
-0.000188223
0.000125806
-0.000147442
9.54655e-05
-0.000113154
7.0257e-05
-8.51107e-05
4.98103e-05
-6.27178e-05
3.36119e-05
-4.52129e-05
2.10477e-05
-3.17969e-05
1.15106e-05
-2.17141e-05
4.44728e-06
-1.42952e-05
-6.19701e-07
-8.96975e-06
-4.08746e-06
-5.26455e-06
-6.27937e-06
-2.79317e-06
-7.45601e-06
-1.24253e-06
-7.82747e-06
-3.59587e-07
-7.56455e-06
6.04323e-08
-6.80809e-06
1.83702e-07
-5.67635e-06
1.45386e-07
-4.27015e-06
5.49706e-08
-2.67729e-06
-9.7424e-07
-0.000283971
0.000186501
0.000342069
-0.000230514
0.000147755
-0.000183195
0.00011381
-0.000142685
8.52962e-05
-0.000109001
6.17814e-05
-8.16891e-05
4.29456e-05
-6.00262e-05
2.81474e-05
-4.31755e-05
1.67612e-05
-3.03053e-05
8.17741e-06
-2.06533e-05
1.8587e-06
-1.35572e-05
-2.64881e-06
-8.46075e-06
-5.71619e-06
-4.90735e-06
-7.64086e-06
-2.52768e-06
-8.65904e-06
-1.02507e-06
-8.95861e-06
-1.61906e-07
-8.69064e-06
2.5225e-07
-7.9787e-06
3.70333e-07
-6.92618e-06
3.15343e-07
-5.62136e-06
1.8602e-07
-4.14083e-06
6.07517e-08
-2.55203e-06
-9.13488e-07
-0.000221884
0.000132561
0.000275824
-0.000174843
0.000100715
-0.000135202
7.41684e-05
-0.000102596
5.26899e-05
-7.64136e-05
3.55992e-05
-5.57959e-05
2.23279e-05
-3.9855e-05
1.22065e-05
-2.77392e-05
4.64536e-06
-1.86913e-05
-8.70489e-07
-1.20651e-05
-4.76749e-06
-7.32517e-06
-7.38879e-06
-4.03602e-06
-9.00533e-06
-1.84787e-06
-9.82902e-06
-4.81394e-07
-1.00255e-05
2.85854e-07
-9.72586e-06
6.3096e-07
-9.03574e-06
6.94994e-07
-8.04274e-06
5.90287e-07
-6.82147e-06
4.05982e-07
-5.43705e-06
2.12307e-07
-3.94716e-06
6.35024e-08
-2.40322e-06
-8.49986e-07
-0.000163304
8.67676e-05
0.000209098
-0.000125032
6.24432e-05
-9.4006e-05
4.31421e-05
-6.92857e-05
2.79695e-05
-4.99941e-05
1.63075e-05
-3.51828e-05
7.51669e-06
-2.40054e-05
1.02904e-06
-1.57189e-05
-3.64109e-06
-9.70108e-06
-6.88832e-06
-5.44167e-06
-9.0269e-06
-2.52914e-06
-1.03013e-05
-6.34751e-07
-1.08997e-05
5.02677e-07
-1.09664e-05
1.0903e-06
-1.06131e-05
1.29238e-06
-9.92794e-06
1.23916e-06
-8.98253e-06
1.03382e-06
-7.8374e-06
7.57648e-07
-6.5453e-06
4.73963e-07
-5.15337e-06
2.31154e-07
-3.70435e-06
6.49185e-08
-2.23699e-06
-7.85067e-07
-0.000112141
5.07134e-05
0.000148196
-8.30859e-05
3.33878e-05
-6.02311e-05
2.02872e-05
-4.25236e-05
1.02621e-05
-2.90617e-05
2.84562e-06
-1.89991e-05
-2.54594e-06
-1.16259e-05
-6.34415e-06
-6.35061e-06
-8.91641e-06
-2.6931e-06
-1.05458e-05
-2.68358e-07
-1.14516e-05
1.22981e-06
-1.17995e-05
2.04385e-06
-1.17138e-05
2.36543e-06
-1.1288e-05
2.34602e-06
-1.05937e-05
2.10533e-06
-9.68725e-06
1.73783e-06
-8.61503e-06
1.31774e-06
-7.41731e-06
9.02619e-07
-6.13018e-06
5.36243e-07
-4.78699e-06
2.50583e-07
-3.41869e-06
6.74929e-08
-2.0539e-06
-7.17574e-07
-6.97749e-05
2.42012e-05
9.62872e-05
-4.91144e-05
1.27272e-05
-3.32935e-05
4.46639e-06
-2.1396e-05
-1.63541e-06
-1.26313e-05
-5.91906e-06
-6.32611e-06
-8.85115e-06
-1.92898e-06
-1.07413e-05
1.00537e-06
-1.18508e-05
2.83232e-06
-1.23728e-05
3.83364e-06
-1.2453e-05
4.23178e-06
-1.21976e-05
4.20218e-06
-1.16842e-05
3.88312e-06
-1.0969e-05
3.3836e-06
-1.00942e-05
2.78944e-06
-9.09309e-06
2.16796e-06
-7.99355e-06
1.57119e-06
-6.82053e-06
1.03873e-06
-5.59773e-06
5.99438e-07
-4.3477e-06
2.73178e-07
-3.09243e-06
7.17502e-08
-1.85247e-06
-6.45824e-07
-3.58803e-05
6.01518e-06
5.40663e-05
-2.22287e-05
-9.2435e-07
-1.21273e-05
-5.63503e-06
-4.85525e-06
-8.90747e-06
2.16918e-07
-1.09912e-05
3.59224e-06
-1.22265e-05
5.67809e-06
-1.28271e-05
6.79708e-06
-1.29697e-05
7.20416e-06
-1.27799e-05
7.09973e-06
-1.23485e-05
6.64114e-06
-1.1739e-05
5.95195e-06
-1.0995e-05
5.12929e-06
-1.01463e-05
4.24946e-06
-9.21438e-06
3.37235e-06
-8.21598e-06
2.54429e-06
-7.16549e-06
1.8008e-06
-6.07704e-06
1.16775e-06
-4.96468e-06
6.63265e-07
-3.84321e-06
2.98159e-07
-2.72732e-06
7.73213e-08
-1.63163e-06
-5.68503e-07
-9.3635e-06
-5.33135e-06
2.071e-05
-1.30881e-06
-8.97903e-06
4.27487e-06
-1.12187e-05
7.93228e-06
-1.25649e-05
1.01348e-05
-1.31937e-05
1.12429e-05
-1.33347e-05
1.15455e-05
-1.31297e-05
1.12671e-05
-1.26913e-05
1.05833e-05
-1.20961e-05
9.63095e-06
-1.13961e-05
8.51635e-06
-1.06244e-05
7.32259e-06
-9.80121e-06
6.11453e-06
-8.93824e-06
4.94297e-06
-8.04283e-06
3.84732e-06
-7.12033e-06
2.85809e-06
-6.17625e-06
1.99776e-06
-5.21672e-06
1.28261e-06
-4.24952e-06
7.2258e-07
-3.28318e-06
3.22802e-07
-2.32754e-06
8.32841e-08
-1.39211e-06
-4.85219e-07
1.07542e-05
-1.12502e-05
-4.83533e-06
1.44555e-05
-1.26804e-05
1.65524e-05
-1.33156e-05
1.74419e-05
-1.34544e-05
1.74592e-05
-1.32109e-05
1.68522e-05
-1.27276e-05
1.58149e-05
-1.20924e-05
1.44949e-05
-1.13714e-05
1.30056e-05
-1.06068e-05
1.14332e-05
-9.82376e-06
9.84421e-06
-9.03544e-06
8.28968e-06
-8.24668e-06
6.80924e-06
-7.45779e-06
5.4335e-06
-6.66709e-06
4.18625e-06
-5.87308e-06
3.08527e-06
-5.07527e-06
2.14378e-06
-4.27524e-06
1.3703e-06
-3.47604e-06
7.69844e-07
-2.68272e-06
3.4336e-07
-1.90106e-06
8.86293e-08
-1.13738e-06
-3.96589e-07
2.50836e-05
-1.29934e-05
-2.33403e-05
2.54977e-05
-1.30944e-05
2.49975e-05
-1.28154e-05
2.38536e-05
-1.23106e-05
2.22874e-05
-1.16448e-05
2.04573e-05
-1.08975e-05
1.84821e-05
-1.01173e-05
1.64491e-05
-9.33841e-06
1.44223e-05
-8.57998e-06
1.24489e-05
-7.85033e-06
1.05638e-05
-7.15033e-06
8.79329e-06
-6.47617e-06
7.15728e-06
-5.82179e-06
5.67112e-06
-5.18093e-06
4.3463e-06
-4.54826e-06
3.19154e-06
-3.92051e-06
2.21258e-06
-3.29628e-06
1.41312e-06
-2.67658e-06
7.94164e-07
-2.06377e-06
3.54903e-07
-1.4618e-06
9.19547e-08
-8.74435e-07
-3.04635e-07
3.38235e-05
-1.17174e-05
-3.50995e-05
3.19211e-05
-1.1192e-05
2.96413e-05
-1.05357e-05
2.71465e-05
-9.81577e-06
2.45646e-05
-9.06289e-06
2.19822e-05
-8.31505e-06
1.94597e-05
-7.59469e-06
1.70371e-05
-6.91584e-06
1.4741e-05
-6.28385e-06
1.25885e-05
-5.69792e-06
1.05912e-05
-5.153e-06
8.75669e-06
-4.64164e-06
7.09054e-06
-4.15564e-06
5.59679e-06
-3.68718e-06
4.27852e-06
-3.22998e-06
3.13754e-06
-2.77953e-06
2.17495e-06
-2.33369e-06
1.39052e-06
-1.89215e-06
7.83382e-07
-1.45662e-06
3.51387e-07
-1.0298e-06
9.1602e-08
-6.1465e-07
-2.13033e-07
3.68853e-05
-8.56998e-06
-4.00327e-05
3.36247e-05
-7.93141e-06
3.03717e-05
-7.28265e-06
2.72014e-05
-6.64542e-06
2.41691e-05
-6.03065e-06
2.13068e-05
-5.45272e-06
1.86312e-05
-4.91912e-06
1.61484e-05
-4.43306e-06
1.38583e-05
-3.99369e-06
1.17571e-05
-3.59677e-06
9.84019e-06
-3.23608e-06
8.10288e-06
-2.90434e-06
6.54131e-06
-2.59406e-06
5.15254e-06
-2.29841e-06
3.93421e-06
-2.01166e-06
2.88443e-06
-1.72975e-06
2.00111e-06
-1.45037e-06
1.28215e-06
-1.17319e-06
7.25008e-07
-8.99484e-07
3.27223e-07
-6.32019e-07
8.61978e-08
-3.73625e-07
-1.26835e-07
3.40694e-05
-4.74273e-06
-3.78966e-05
3.04392e-05
-4.30117e-06
2.70383e-05
-3.88177e-06
2.38811e-05
-3.48828e-06
2.0974e-05
-3.12353e-06
1.83126e-05
-2.79133e-06
1.58863e-05
-2.49281e-06
1.36806e-05
-2.22737e-06
1.16797e-05
-1.99274e-06
9.86822e-06
-1.78529e-06
8.23275e-06
-1.60061e-06
6.76227e-06
-1.43386e-06
5.4484e-06
-1.28019e-06
4.28505e-06
-1.13506e-06
3.26799e-06
-9.94595e-07
2.39403e-06
-8.55782e-07
1.66048e-06
-7.16821e-07
1.06451e-06
-5.77229e-07
6.03141e-07
-4.38116e-07
2.73246e-07
-3.02124e-07
7.23799e-08
-1.72758e-07
-5.4455e-08
2.52261e-05
-1.47529e-06
-2.84936e-05
2.22466e-05
-1.32159e-06
1.95425e-05
-1.17768e-06
1.7099e-05
-1.04485e-06
1.48997e-05
-9.24164e-07
1.29249e-05
-8.1654e-07
1.11539e-05
-7.21833e-07
9.56595e-06
-6.39419e-07
8.1414e-06
-5.68188e-07
6.86284e-06
-5.06723e-07
5.71563e-06
-4.53395e-07
4.68822e-06
-4.06453e-07
3.77215e-06
-3.64117e-07
2.96171e-06
-3.24629e-07
2.25346e-06
-2.86342e-07
1.64549e-06
-2.4781e-07
1.13659e-06
-2.07918e-07
7.25431e-07
-1.66073e-07
4.09852e-07
-1.22536e-07
1.86451e-07
-7.87223e-08
5.07781e-08
-3.70857e-08
-3.67688e-09
1.03466e-05
-1.18077e-05
9.03673e-06
7.8688e-06
6.83205e-06
5.91465e-06
5.10378e-06
4.38673e-06
3.75137e-06
3.18664e-06
2.68289e-06
2.23206e-06
1.82785e-06
1.46569e-06
1.14279e-06
8.57971e-07
6.11501e-07
4.04756e-07
2.39692e-07
1.18001e-07
3.99504e-08
3.34657e-09
0.000298235
2.54261e-05
1.3193e-06
-0.000324981
0.000272977
2.39116e-05
1.34701e-06
0.000249114
2.24944e-05
1.36854e-06
0.000226566
2.11637e-05
1.38386e-06
0.000205258
1.99151e-05
1.39332e-06
0.000185116
1.87447e-05
1.39737e-06
0.000166071
1.76479e-05
1.39644e-06
0.00014806
1.66203e-05
1.39093e-06
0.000131022
1.56573e-05
1.38124e-06
0.000114899
1.47544e-05
1.36773e-06
9.96426e-05
1.39063e-05
1.35057e-06
8.52082e-05
1.31049e-05
1.32945e-06
7.15693e-05
1.23359e-05
1.30305e-06
5.87264e-05
1.15745e-05
1.26844e-06
4.67232e-05
1.07823e-05
1.22089e-06
3.56592e-05
9.90978e-06
1.15424e-06
2.56934e-05
8.90372e-06
1.06205e-06
1.70353e-05
7.71901e-06
9.39115e-07
9.92221e-06
6.33018e-06
7.82882e-07
4.58899e-06
4.73894e-06
5.94284e-07
1.23535e-06
2.97582e-06
3.77816e-07
1.09464e-06
1.40709e-07
0.000297817
5.20942e-05
-0.000324485
0.000272628
4.91002e-05
0.000248826
4.62967e-05
0.000226331
4.36591e-05
0.000205067
4.1179e-05
0.000184962
3.88491e-05
0.00016595
3.66607e-05
0.000147965
3.46052e-05
0.000130948
3.26742e-05
0.000114843
3.08589e-05
9.96007e-05
2.9149e-05
8.51774e-05
2.75282e-05
7.15465e-05
2.59667e-05
5.87094e-05
2.44116e-05
4.67101e-05
2.27816e-05
3.56488e-05
2.09711e-05
2.56851e-05
1.88673e-05
1.70291e-05
1.6375e-05
9.91825e-06
1.34411e-05
4.58709e-06
1.00701e-05
1.2349e-06
6.32801e-06
2.32954e-06
0.000296568
7.85595e-05
-0.000323033
0.000271555
7.41136e-05
0.000247902
6.99487e-05
0.000225538
6.60239e-05
0.000204388
6.23287e-05
0.000184384
5.88533e-05
0.000165459
5.55855e-05
0.000147551
5.25129e-05
0.000130602
4.96236e-05
0.000114556
4.69047e-05
9.93639e-05
4.43412e-05
8.49837e-05
4.19085e-05
7.13893e-05
3.95611e-05
5.85826e-05
3.72183e-05
4.66089e-05
3.47553e-05
3.55692e-05
3.20108e-05
2.56244e-05
2.88121e-05
1.69853e-05
2.50142e-05
9.88979e-06
2.05365e-05
4.57205e-06
1.53878e-05
1.22998e-06
9.67007e-06
3.55952e-06
0.000294824
0.000104714
-0.000320979
0.000270081
9.88569e-05
0.000246659
9.33709e-05
0.000224491
8.81917e-05
0.00020351
8.33096e-05
0.00018365
7.87128e-05
0.00016485
7.43861e-05
0.000147048
7.03143e-05
0.00013019
6.64821e-05
0.000114221
6.28734e-05
9.90938e-05
5.94683e-05
8.47678e-05
5.62345e-05
7.12179e-05
5.3111e-05
5.84471e-05
4.99891e-05
4.6502e-05
4.67004e-05
3.54854e-05
4.30274e-05
2.55601e-05
3.87374e-05
1.69384e-05
3.36358e-05
9.85912e-06
2.76158e-05
4.55588e-06
2.06911e-05
1.22484e-06
1.30011e-05
4.78436e-06
0.000292765
0.000130467
-0.000318517
0.00026837
0.000123252
0.000245241
0.000116499
0.000223324
0.000110109
0.000202556
0.000104077
0.000182878
9.83911e-05
0.000164231
9.30329e-05
0.00014656
8.79857e-05
0.00012981
8.32314e-05
0.000113932
7.87512e-05
9.88798e-05
7.4521e-05
8.46133e-05
7.0501e-05
7.11093e-05
6.6615e-05
5.83724e-05
6.27261e-05
4.64503e-05
5.86225e-05
3.54484e-05
5.40293e-05
2.5532e-05
4.86538e-05
1.69167e-05
4.22512e-05
9.84321e-06
3.46893e-05
4.54627e-06
2.5988e-05
1.2212e-06
1.63262e-05
6.00556e-06
0.000290791
0.000155758
-0.000316082
0.000266789
0.000147254
0.00024399
0.000139298
0.000222348
0.00013175
0.000201812
0.000124614
0.000182326
0.000117877
0.000163839
0.00011152
0.000146298
0.000105526
0.000129655
9.98752e-05
0.00011386
9.45456e-05
9.88713e-05
8.95101e-05
8.46506e-05
8.47217e-05
7.1176e-05
8.00895e-05
5.84531e-05
7.5449e-05
4.65318e-05
7.05438e-05
3.55196e-05
6.50414e-05
2.55863e-05
5.85872e-05
1.69516e-05
5.08859e-05
9.86115e-06
4.17797e-05
4.55234e-06
3.12968e-05
1.22159e-06
1.96569e-05
7.22715e-06
0.000289114
0.000180547
-0.000313903
0.000265536
0.000170833
0.000243083
0.000161751
0.000221728
0.000153106
0.000201425
0.000144917
0.00018213
0.000137172
0.000163795
0.000129855
0.000146375
0.000122947
0.000129824
0.000116427
0.000114097
0.000110273
9.91527e-05
0.000104454
8.49567e-05
9.89177e-05
7.14876e-05
9.35587e-05
5.87516e-05
8.8185e-05
4.68001e-05
8.24952e-05
3.57439e-05
7.60977e-05
2.57576e-05
6.85734e-05
1.70682e-05
5.95753e-05
9.92856e-06
4.89193e-05
4.58214e-06
3.66433e-05
1.2285e-06
2.30106e-05
8.45566e-06
0.000287916
0.000204806
-0.000312176
0.000264777
0.000193972
0.00024268
0.000183847
0.000221613
0.000174173
0.00020154
0.00016499
0.000182424
0.000156288
0.000164226
0.000148053
0.000146905
0.000140267
0.000130422
0.00013291
0.000114734
0.00012596
9.98052e-05
0.000119383
8.5601e-05
0.000113122
7.21016e-05
0.000107058
5.93145e-05
0.000100972
4.72917e-05
9.45181e-05
3.61481e-05
8.72412e-05
2.60642e-05
7.86573e-05
1.72774e-05
6.83621e-05
1.00504e-05
5.61464e-05
4.63657e-06
4.20571e-05
1.24145e-06
2.64057e-05
9.69711e-06
0.000287328
0.00022852
-0.000311041
0.000264629
0.000216671
0.000242878
0.000205599
0.00022208
0.000194972
0.000202214
0.000184856
0.000183252
0.000175249
0.000165165
0.00016614
0.000147918
0.000157514
0.000131475
0.000149354
0.000115799
0.000141636
0.000100855
0.000134327
8.6611e-05
0.000127366
7.30479e-05
0.000120621
6.01719e-05
0.000113848
4.80367e-05
0.000106653
3.67591e-05
9.85188e-05
2.65299e-05
8.88865e-05
1.75969e-05
7.72951e-05
1.02397e-05
6.35035e-05
4.72351e-06
4.75733e-05
1.26389e-06
2.98653e-05
1.0961e-05
0.000287387
0.000251674
-0.000310542
0.000265135
0.000238923
0.000243731
0.000227002
0.000223198
0.000215505
0.000203524
0.00020453
0.000184694
0.000194079
0.000166688
0.000184146
0.000149477
0.000174725
0.000133034
0.000165797
0.000117326
0.000157344
0.000102321
0.000149332
8.79913e-05
0.000141696
7.43162e-05
0.000134296
6.1303e-05
0.000126861
4.90047e-05
0.000118952
3.75444e-05
0.000109979
2.71202e-05
9.93107e-05
1.79979e-05
8.64175e-05
1.04724e-05
7.1029e-05
4.82753e-06
5.32182e-05
1.28856e-06
3.34043e-05
1.22496e-05
0.000288087
0.00027426
-0.000310673
0.000266259
0.000260751
0.000245169
0.000248092
0.000224866
0.000235809
0.000205354
0.000224042
0.00018663
0.000212803
0.00016868
0.000202096
0.000151484
0.00019192
0.000135019
0.000182263
0.000119257
0.000173106
0.00010417
0.000164419
8.97285e-05
0.000156137
7.59148e-05
0.00014811
6.27324e-05
0.000140044
5.02345e-05
0.000131449
3.8546e-05
0.000121668
2.78784e-05
0.000109978
1.85149e-05
9.57809e-05
1.07766e-05
7.87674e-05
4.9665e-06
5.90282e-05
1.32476e-06
3.7046e-05
1.35743e-05
0.000289446
0.000296248
-0.000311433
0.000268067
0.00028213
0.000247307
0.000268851
0.000227224
0.000255892
0.000207844
0.000243422
0.000189181
0.000231466
0.000171235
0.000220042
0.000153997
0.000209158
0.000137451
0.000198809
0.000121575
0.000188982
0.000106345
0.00017965
9.17342e-05
0.000170748
7.77235e-05
0.000162121
6.43169e-05
0.00015345
5.15671e-05
0.000144199
3.96061e-05
0.000133629
2.86582e-05
0.000120926
1.90298e-05
0.000105409
1.10646e-05
8.67325e-05
5.08799e-06
6.50049e-05
1.35034e-06
4.07837e-05
1.49247e-05
0.000291278
0.000317646
-0.000312676
0.000270275
0.000303133
0.000249798
0.000289328
0.000229913
0.000275777
0.000210658
0.000262677
0.000192055
0.000250068
0.000174115
0.000237982
0.000156836
0.000226437
0.000140208
0.000215437
0.000124214
0.000204975
0.000108836
0.000195028
9.40483e-05
0.000185535
7.98311e-05
0.000176338
6.61843e-05
0.000167097
5.31586e-05
0.000157225
4.08881e-05
0.000145899
2.96125e-05
0.000132202
1.96643e-05
0.000115358
1.14227e-05
9.4974e-05
5.24227e-06
7.11853e-05
1.38721e-06
4.46388e-05
1.63119e-05
0.000293478
0.000338238
-0.00031407
0.000272955
0.000323656
0.000252782
0.000309501
0.000233064
0.000295495
0.000213877
0.000281864
0.000195268
0.000268677
0.000177263
0.000255987
0.000159873
0.000243828
0.000143096
0.000232214
0.000126923
0.000221147
0.000111338
0.000210614
9.63187e-05
0.000200555
8.18447e-05
0.000190812
6.79145e-05
0.000181027
5.45776e-05
0.000170562
4.19754e-05
0.000158501
3.03666e-05
0.000143811
2.0116e-05
0.000125608
1.16363e-05
0.000103454
5.30515e-06
7.75165e-05
1.38752e-06
4.85564e-05
1.76994e-05
0.000295977
0.000358094
-0.000315833
0.000275788
0.000343844
0.000255918
0.000329371
0.000236404
0.000315009
0.000217332
0.000300935
0.000198763
0.000287247
0.00018073
0.00027402
0.000163256
0.000261302
0.000146346
0.000249123
0.00013
0.000237494
0.000114203
0.00022641
9.89376e-05
0.000215821
8.41799e-05
0.00020557
6.99256e-05
0.000195282
5.62249e-05
0.000184263
4.32293e-05
0.000171497
3.12216e-05
0.000155818
2.06025e-05
0.000136227
1.18268e-05
0.000112229
5.30832e-06
8.4035e-05
1.33285e-06
5.25319e-05
1.90322e-05
1.2509e-05
0.000360578
-1.49921e-05
9.96137e-06
0.000346392
7.52295e-06
0.00033181
5.10414e-06
0.000317428
2.71481e-06
0.000303324
3.50101e-07
0.000289611
-1.98888e-06
0.000276359
-4.2971e-06
0.000263611
-6.56733e-06
0.000251393
-8.78787e-06
0.000239715
-1.09328e-05
0.000228555
-1.29387e-05
0.000217827
-1.46718e-05
0.000207303
-1.59059e-05
0.000196516
-1.63462e-05
0.000184703
-1.57165e-05
0.000170867
-1.38852e-05
0.000153987
-1.09778e-05
0.00013332
-7.41622e-06
0.000108668
-3.87011e-06
8.04889e-05
-1.13875e-06
4.98005e-05
1.78935e-05
7.29349e-06
0.000363365
-1.0081e-05
4.63853e-06
0.000349047
2.02257e-06
0.000334426
-5.36851e-07
0.000319988
-3.02361e-06
0.000305811
-5.43762e-06
0.000292025
-7.77373e-06
0.000278695
-1.00268e-05
0.000265864
-1.21894e-05
0.000253556
-1.42471e-05
0.000241772
-1.61638e-05
0.000230471
-1.78555e-05
0.000219518
-1.91621e-05
0.000208609
-1.98401e-05
0.000197194
-1.96059e-05
0.000184469
-1.82313e-05
0.000169492
-1.56609e-05
0.000151417
-1.21003e-05
0.000129759
-8.03224e-06
0.0001046
-4.15025e-06
7.66069e-05
-1.23222e-06
4.68825e-05
1.66613e-05
2.01598e-06
0.00036637
-5.02106e-06
-7.49897e-07
0.000351813
-3.46772e-06
0.000337144
-6.07836e-06
0.000322598
-8.57985e-06
0.000308313
-1.09691e-05
0.000294415
-1.32414e-05
0.000280967
-1.53925e-05
0.000268015
-1.74144e-05
0.000255578
-1.92867e-05
0.000243645
-2.09586e-05
0.000232143
-2.23213e-05
0.000220881
-2.31869e-05
0.000209475
-2.3299e-05
0.000197306
-2.23918e-05
0.000183562
-2.02916e-05
0.000167392
-1.70226e-05
0.000148148
-1.28723e-05
0.000125609
-8.38082e-06
0.000100108
-4.25633e-06
7.24824e-05
-1.24346e-06
4.38696e-05
1.54178e-05
-3.27132e-06
0.00036949
1.51476e-07
-6.1353e-06
0.000354677
-8.90611e-06
0.000339914
-1.15277e-05
0.00032522
-1.40069e-05
0.000310792
-1.63381e-05
0.000296746
-1.85184e-05
0.000283147
-2.0544e-05
0.00027004
-2.24044e-05
0.000257438
-2.40702e-05
0.000245311
-2.54708e-05
0.000233544
-2.64698e-05
0.00022188
-2.68545e-05
0.000209859
-2.63643e-05
0.000196816
-2.47641e-05
0.000181961
-2.19461e-05
0.000164574
-1.80208e-05
0.000144222
-1.33546e-05
0.000120943
-8.53279e-06
9.52865e-05
-4.25832e-06
6.82079e-05
-1.22246e-06
4.08337e-05
1.41954e-05
-8.67366e-06
0.000372664
5.4992e-06
-1.15939e-05
0.000357597
-1.43668e-05
0.000342687
-1.69576e-05
0.000327811
-1.93758e-05
0.00031321
-2.16163e-05
0.000298986
-2.36779e-05
0.000285209
-2.55562e-05
0.000271919
-2.72355e-05
0.000259117
-2.86723e-05
0.000246747
-2.97724e-05
0.000234644
-3.03703e-05
0.000222478
-3.02346e-05
0.000209724
-2.91106e-05
0.000195692
-2.68071e-05
0.000179658
-2.32905e-05
0.000161058
-1.87587e-05
0.000139691
-1.36473e-05
0.000115831
-8.57151e-06
9.02106e-05
-4.21042e-06
6.38468e-05
-1.19051e-06
3.78138e-05
1.30048e-05
-1.43284e-05
0.000375852
1.11406e-05
-1.72598e-05
0.000360528
-1.99932e-05
0.000345421
-2.25168e-05
0.000330334
-2.48399e-05
0.000315533
-2.69599e-05
0.000301106
-2.88768e-05
0.000287126
-3.05841e-05
0.000273626
-3.2057e-05
0.00026059
-3.32338e-05
0.000247924
-3.39924e-05
0.000235402
-3.41404e-05
0.000222626
-3.34332e-05
0.000209016
-3.16366e-05
0.000193895
-2.86125e-05
0.000176634
-2.44115e-05
0.000156857
-1.93131e-05
0.000134592
-1.38143e-05
0.000110333
-8.54005e-06
8.49364e-05
-4.13515e-06
5.94419e-05
-1.15307e-06
3.48317e-05
1.18518e-05
-2.03861e-05
0.000379009
1.72296e-05
-2.32778e-05
0.00036342
-2.59296e-05
0.000348072
-2.8348e-05
0.000332753
-3.05416e-05
0.000317727
-3.25109e-05
0.000303075
-3.42559e-05
0.000288871
-3.57648e-05
0.000275135
-3.69998e-05
0.000261825
-3.78752e-05
0.0002488
-3.82395e-05
0.000235767
-3.78747e-05
0.000222261
-3.65354e-05
0.000207677
-3.40167e-05
0.000191377
-3.02513e-05
0.000172868
-2.53714e-05
0.000151977
-1.9741e-05
0.000128962
-1.38973e-05
0.000104489
-8.46743e-06
7.95065e-05
-4.04539e-06
5.50199e-05
-1.11409e-06
3.19004e-05
1.07377e-05
-2.70572e-05
0.000382093
2.39733e-05
-2.98606e-05
0.000366223
-3.23895e-05
0.000350601
-3.46633e-05
0.000335026
-3.66904e-05
0.000319754
-3.84747e-05
0.00030486
-4.00138e-05
0.00029041
-4.12875e-05
0.000276408
-4.2239e-05
0.000262777
-4.27545e-05
0.000249315
-4.26508e-05
0.000235663
-4.16924e-05
0.000221303
-3.96406e-05
0.000205625
-3.63403e-05
0.000188076
-3.1797e-05
0.000168325
-2.62377e-05
0.000146418
-2.00917e-05
0.000122816
-1.39352e-05
9.83325e-05
-8.37391e-06
7.39452e-05
-3.95178e-06
5.05978e-05
-1.07546e-06
2.90241e-05
9.66223e-06
-3.45379e-05
0.000385054
3.15763e-05
-3.71998e-05
0.000368885
-3.95599e-05
0.000352961
-4.16452e-05
0.000337112
-4.34653e-05
0.000321574
-4.50252e-05
0.00030642
-4.63177e-05
0.000291703
-4.73085e-05
0.000277399