/*--------------------------------*- C++ -*----------------------------------*\
| =========                 |                                                 |
| \\      /  F ield         | OpenFOAM Extend Project: Open source CFD        |
|  \\    /   O peration     | Version:  1.6-ext                               |
|   \\  /    A nd           | Web:      www.extend-project.de                 |
|    \\/     M anipulation  |                                                 |
\*---------------------------------------------------------------------------*/
FoamFile
{
    version     2.0;
    format      ascii;
    class       volVectorField;
    location    "0.85";
    object      U;
}
// * * * * * * * * * * * * * * * * * * * * * * * * * * * * * * * * * * * * * //

dimensions      [0 1 -1 0 0 0 0];

internalField   nonuniform List<vector> 
20940
(
(1.84839 0.397627 3.52918e-21)
(1.88795 0.417668 0)
(1.92542 0.436991 -4.17433e-21)
(1.95993 0.45455 0)
(1.9912 0.470554 -7.02142e-21)
(2.01759 0.48388 8.84792e-21)
(2.03612 0.493418 0)
(2.04197 0.497223 2.84579e-22)
(2.02877 0.493061 -7.56403e-21)
(1.98941 0.478694 -1.8355e-23)
(1.91768 0.452585 2.1603e-23)
(1.81 0.414502 1.31795e-20)
(1.66682 0.36588 -1.41224e-20)
(1.49301 0.309711 -8.01194e-21)
(1.29705 0.250004 0)
(1.08937 0.191017 -9.55485e-21)
(0.880493 0.136555 2.08094e-23)
(0.679507 0.0895184 -1.12579e-20)
(0.49322 0.051718 1.17027e-20)
(0.325929 0.0239267 1.84914e-20)
(0.179653 0.00662328 -6.46728e-21)
(0.0546063 0.000490338 1.06483e-23)
(1.87526 0.374396 4.87819e-21)
(1.91355 0.393284 5.99332e-21)
(1.94942 0.410797 -5.38645e-21)
(1.98175 0.426572 -1.34425e-20)
(2.00972 0.440272 2.05471e-20)
(2.03083 0.450691 -8.81256e-21)
(2.04108 0.456418 2.34868e-20)
(2.03471 0.455418 -1.90153e-20)
(2.00496 0.445624 0)
(1.94535 0.425354 0)
(1.85139 0.393972 0)
(1.72217 0.352298 -5.06236e-20)
(1.5611 0.302663 2.76133e-20)
(1.37551 0.248525 3.99307e-20)
(1.17525 0.193797 -1.70117e-20)
(0.970847 0.142145 9.51532e-21)
(0.771891 0.0964851 -1.96695e-20)
(0.585943 0.0587675 0)
(0.418156 0.029968 -2.27141e-20)
(0.271374 0.0102348 1.74662e-20)
(0.146562 -0.000371953 -4.3148e-20)
(0.0433304 -0.00141077 2.04142e-20)
(1.89991 0.351131 -1.02438e-20)
(1.9366 0.368937 0)
(1.97032 0.384746 0)
(1.99961 0.398749 1.17077e-20)
(2.02287 0.410038 -3.2206e-20)
(2.03658 0.417327 3.62207e-20)
(2.0357 0.418959 -6.85078e-20)
(2.01384 0.412972 2.61146e-20)
(1.96446 0.39768 0)
(1.88243 0.372155 0)
(1.7657 0.336738 0)
(1.61635 0.29319 4.90578e-20)
(1.44057 0.244447 5.6001e-20)
(1.24748 0.194058 -5.97368e-20)
(1.04747 0.145511 -1.6909e-20)
(0.850411 0.101694 3.62784e-20)
(0.664452 0.0646139 -1.84778e-20)
(0.495443 0.0353751 4.12454e-20)
(0.346929 0.0142867 -2.05329e-20)
(0.220467 0.00104291 -4.49986e-20)
(0.116158 -0.00459062 -4.69875e-20)
(0.033156 -0.00236479 3.91199e-20)
(1.92341 0.328206 0)
(1.95803 0.345 1.56299e-20)
(1.9888 0.359143 1.88674e-20)
(2.01373 0.371274 0)
(2.0302 0.379915 -3.3192e-20)
(2.0336 0.383727 5.5402e-20)
(2.01805 0.380939 7.11285e-20)
(1.97705 0.369871 -5.27365e-20)
(1.90506 0.349441 3.20372e-20)
(1.79916 0.319623 0)
(1.6603 0.281702 0)
(1.49355 0.238146 -2.58346e-20)
(1.30731 0.192139 5.22e-20)
(1.11164 0.146957 -5.92396e-20)
(0.916564 0.105418 -1.47869e-21)
(0.730642 0.0695513 1.37426e-19)
(0.560272 0.04052 -3.69617e-20)
(0.409562 0.0187323 -9.79184e-20)
(0.280587 0.0040034 1.03089e-19)
(0.173836 -0.00427188 -2.11444e-20)
(0.0887419 -0.00650772 1.15317e-20)
(0.0241482 -0.00257087 0)
(1.94547 0.305695 2.43773e-20)
(1.97736 0.321473 -3.2493e-20)
(2.00401 0.3339 0)
(2.02269 0.343958 1.00912e-21)
(2.02959 0.349626 -3.07654e-20)
(2.01912 0.349609 4.07995e-20)
(1.98501 0.342206 -4.47411e-20)
(1.92144 0.326259 0)
(1.82483 0.301472 -6.35588e-20)
(1.69517 0.268747 0)
(1.53657 0.230139 0)
(1.35667 0.188487 -1.40944e-19)
(1.16518 0.14684 1.00793e-19)
(0.972135 0.107914 0)
(0.786381 0.0737331 0)
(0.614744 0.0455011 0)
(0.461775 0.0236761 -7.23851e-20)
(0.329962 0.00814608 1.6836e-19)
(0.220151 -0.00160074 -1.57519e-19)
(0.132006 -0.00633494 1.86286e-19)
(0.0644999 -0.00655748 -8.55517e-20)
(0.0163099 -0.00219283 0)
(1.96559 0.283667 -3.02626e-20)
(1.99376 0.298375 3.36334e-20)
(2.01457 0.308943 4.69073e-20)
(2.02438 0.316614 3.20708e-20)
(2.01818 0.318927 -6.31703e-20)
(1.98979 0.314799 -3.97205e-20)
(1.93333 0.302831 4.82495e-20)
(1.84467 0.2826 -5.27479e-20)
(1.72302 0.254678 9.5689e-20)
(1.57165 0.22077 -6.96908e-20)
(1.3975 0.183394 -8.15386e-20)
(1.20992 0.145374 8.78152e-20)
(1.01887 0.109305 0)
(0.833411 0.0771811 -5.26899e-20)
(0.660685 0.0502296 0)
(0.505603 0.0289536 0)
(0.370974 0.0132795 -3.42828e-20)
(0.257919 0.00274997 1.0656e-19)
(0.166332 -0.00332991 9.69238e-22)
(0.0953022 -0.00579253 -3.97846e-20)
(0.0435283 -0.00516055 0)
(0.00963813 -0.00138144 8.55485e-20)
(1.98332 0.261933 2.82624e-20)
(2.0062 0.275382 0)
(2.01865 0.28382 -4.83475e-20)
(2.0161 0.288733 5.35011e-20)
(1.99263 0.287387 6.97166e-20)
(1.94223 0.279115 -1.17046e-19)
(1.86041 0.263049 0)
(1.74571 0.239621 0)
(1.60069 0.210193 0)
(1.43167 0.177005 6.85844e-20)
(1.24763 0.142657 -7.86863e-20)
(1.05846 0.109619 1.27045e-19)
(0.873344 0.0798354 0)
(0.699701 0.0545447 1.02968e-19)
(0.542723 0.0342868 5.46361e-20)
(0.405476 0.0190313 -5.87356e-20)
(0.289282 0.00835132 3.31237e-20)
(0.1942 0.00159473 -1.02291e-19)
(0.119458 -0.00200597 0)
(0.0637929 -0.00327317 -7.53131e-20)
(0.0257809 -0.00271121 -7.88924e-20)
(0.00408667 -0.000272656 3.24969e-20)
(1.99715 0.240425 -3.86994e-20)
(2.01245 0.25236 7.57261e-20)
(2.01323 0.258347 -2.86917e-21)
(1.99418 0.260146 5.93026e-20)
(1.94916 0.255003 -6.54508e-20)
(1.87337 0.242898 -2.74495e-21)
(1.7648 0.223649 -9.69025e-20)
(1.62537 0.198514 1.0348e-19)
(1.46088 0.169409 0)
(1.27998 0.138743 -1.36476e-19)
(1.09248 0.108847 7.39531e-20)
(0.907702 0.0816094 -2.07088e-19)
(0.733263 0.0582666 4.51314e-20)
(0.574599 0.0393884 -5.02349e-20)
(0.434982 0.0249873 5.31342e-20)
(0.315891 0.0146774 1.1649e-19)
(0.217491 0.00783327 -2.73808e-19)
(0.139094 0.00372319 1.61122e-19)
(0.0795202 0.00158282 0)
(0.0373338 0.000642859 -3.55925e-20)
(0.0111005 0.00043785 3.78738e-20)
(-0.000422235 0.0010159 7.91931e-20)
(2.00578 0.218584 6.45884e-20)
(2.01021 0.228612 -1.60879e-19)
(1.99513 0.23181 4.78141e-20)
(1.95509 0.230338 1.38407e-21)
(1.88474 0.221673 -6.6136e-20)
(1.78171 0.206578 7.95343e-20)
(1.64727 0.185566 -1.8105e-21)
(1.48679 0.160515 2.07625e-19)
(1.30863 0.13355 -5.71756e-20)
(1.12255 0.106895 -6.46701e-20)
(0.937994 0.0823673 -7.31724e-20)
(0.762787 0.0611959 1.59762e-19)
(0.602575 0.0439764 4.42667e-20)
(0.460807 0.0307639 4.65989e-20)
(0.33908 0.0212191 5.03238e-20)
(0.237631 0.0147572 -1.1002e-19)
(0.155814 0.0106727 5.98237e-20)
(0.0924767 0.00823324 -6.23996e-20)
(0.0462335 0.00672287 -1.32266e-19)
(0.0156139 0.00544686 1.37255e-19)
(-0.000752811 0.00398569 -1.0783e-19)
(-0.00398765 0.00238698 1.207e-19)
(2.00576 0.196456 -7.19121e-20)
(1.9954 0.20426 2.45499e-19)
(1.96004 0.204527 0)
(1.89514 0.199906 5.7937e-20)
(1.79735 0.188372 -7.01221e-20)
(1.66763 0.171499 -1.54103e-21)
(1.51081 0.15035 0)
(1.33508 0.127099 0)
(1.15018 0.103733 -5.74872e-20)
(0.965686 0.0820303 -6.40209e-20)
(0.789655 0.0631926 1.38679e-19)
(0.627942 0.0478384 -7.74714e-20)
(0.484157 0.0360627 8.32046e-20)
(0.360001 0.0275748 4.54771e-20)
(0.255761 0.021838 -2.46601e-19)
(0.170802 0.0181877 1.58592e-19)
(0.103972 0.0159181 5.79352e-20)
(0.0538843 0.0143426 -2.08994e-19)
(0.0190992 0.0128158 1.25714e-19)
(-0.00179922 0.010724 0)
(-0.0100758 0.00769303 -3.39579e-20)
(-0.00672209 0.00376584 0)
(1.99529 0.173017 5.76423e-21)
(1.96533 0.178331 -7.92164e-20)
(1.9055 0.175781 1.02069e-19)
(1.81308 0.168657 0)
(1.68789 0.1555 -6.97522e-20)
(1.53458 0.138494 7.67835e-20)
(1.36101 0.118972 8.99221e-20)
(1.17702 0.0990483 8.07288e-22)
(0.992345 0.0803155 1.12186e-19)
(0.81532 0.0639913 -1.21943e-19)
(0.652027 0.0506999 0)
(0.506243 0.0405794 0)
(0.37976 0.0333893 0)
(0.272903 0.0286457 0)
(0.185033 0.0257337 0)
(0.114977 0.0239891 -1.02307e-19)
(0.0613257 0.0227531 1.6312e-19)
(0.0226259 0.0214083 -1.15888e-19)
(-0.00251576 0.0193867 9.11295e-20)
(-0.0154085 0.0161545 1.28174e-19)
(-0.0171939 0.0113798 -9.8738e-20)
(-0.00874224 0.0050976 0)
(1.96836 0.149372 -7.02655e-20)
(1.91538 0.152288 -8.5207e-20)
(1.82844 0.147452 -1.00791e-19)
(1.70852 0.138734 6.05324e-20)
(1.55891 0.125261 -6.68107e-20)
(1.38763 0.109572 0)
(1.20442 0.0929913 0)
(1.01939 0.077295 -1.96402e-19)
(0.841149 0.0635632 -2.83168e-22)
(0.676101 0.0524633 -1.20448e-19)
(0.528216 0.0441549 1.30477e-19)
(0.399396 0.0384455 0)
(0.289994 0.0349011 0)
(0.19936 0.0329568 8.52736e-20)
(0.126283 0.031995 -1.82865e-19)
(0.0693166 0.0313963 1.4611e-19)
(0.0269764 0.0305699 5.17718e-20)
(-0.00214329 0.0289735 0)
(-0.0193291 0.0261146 8.77863e-20)
(-0.0257588 0.0215334 0)
(-0.0224504 0.0149372 -3.17014e-20)
(-0.0101692 0.00635275 -1.36891e-19)
(1.92669 0.123578 -7.19338e-20)
(1.84616 0.12445 0)
(1.73138 0.118334 -1.04756e-19)
(1.586 0.109415 2.34895e-19)
(1.41693 0.0973397 0)
(1.23442 0.0845054 0)
(1.0487 0.0720201 8.5554e-20)
(0.8689 0.0611473 0)
(0.701743 0.0524734 1.06183e-19)
(0.551473 0.0462171 1.17006e-19)
(0.420122 0.0422246 -1.26781e-19)
(0.308085 0.0401168 -1.40073e-19)
(0.214691 0.0393813 1.5064e-19)
(0.138681 0.0394501 -8.24707e-20)
(0.0785544 0.039748 -9.24681e-22)
(0.0327827 0.0397212 9.34151e-20)
(-7.05155e-05 0.0388526 -5.12792e-20)
(-0.0212995 0.0366722 -1.08041e-19)
(-0.0320545 0.0327573 5.56225e-20)
(-0.0333763 0.0267154 2.94708e-20)
(-0.0261687 0.0182923 3.15629e-20)
(-0.0111125 0.0075114 2.71311e-20)
(1.86021 0.0999559 0)
(1.75479 0.0994617 -8.92436e-20)
(1.61403 0.0928995 0)
(1.44858 0.0848054 -2.35499e-19)
(1.2671 0.0750388 0)
(1.08091 0.0656589 -7.52597e-20)
(0.899389 0.0574782 -8.42564e-20)
(0.729879 0.0512118 9.39854e-20)
(0.576931 0.0470373 1.15354e-21)
(0.442793 0.0448441 -1.12757e-19)
(0.327934 0.0442892 1.24709e-19)
(0.231679 0.0449072 -1.34684e-19)
(0.152725 0.0461757 -1.47759e-19)
(0.0895084 0.047561 1.58373e-19)
(0.0404433 0.0485446 8.61278e-20)
(0.00405117 0.0486375 -9.24166e-20)
(-0.0209867 0.0473876 -9.85658e-20)
(-0.0358221 0.0443866 1.03871e-19)
(-0.0414621 0.0392704 0)
(-0.0388176 0.0317057 -2.92632e-20)
(-0.0286911 0.021474 -2.98667e-20)
(-0.0116947 0.00859799 0)
(1.78556 0.0728868 7.73972e-20)
(1.64973 0.0718385 8.80505e-20)
(1.48737 0.0671081 0)
(1.30729 0.0610718 5.73948e-20)
(1.12003 0.0551363 6.51181e-20)
(0.936277 0.0501793 -4.49978e-22)
(0.763669 0.0467746 8.17224e-20)
(0.607303 0.0450886 0)
(0.469675 0.0450171 -1.00928e-19)
(0.351397 0.0462728 -2.09781e-22)
(0.251825 0.0484597 6.0061e-20)
(0.169617 0.0511281 0)
(0.103138 0.0538081 1.43182e-19)
(0.0507265 0.0560307 -2.30991e-19)
(0.0108339 0.057341 -8.32046e-20)
(-0.0179053 0.0573069 4.38021e-20)
(-0.036666 0.0555265 -4.82422e-20)
(-0.0464519 0.0516366 4.94649e-20)
(-0.0481329 0.0453184 -5.93895e-22)
(-0.0425005 0.0362882 1.67544e-19)
(-0.0302693 0.0243635 2.96477e-20)
(-0.0119988 0.00957535 -1.27447e-19)
(1.63518 0.0529262 -3.93175e-20)
(1.46919 0.0493173 -4.71114e-20)
(1.28742 0.0466066 -5.56823e-20)
(1.10088 0.0436083 1.87083e-19)
(0.918803 0.0419152 0)
(0.748766 0.041428 -7.8254e-20)
(0.595274 0.0423461 0)
(0.460581 0.0444791 0)
(0.34506 0.0475775 4.74576e-22)
(0.247904 0.0513101 2.30126e-19)
(0.167645 0.0553084 -1.87111e-19)
(0.102552 0.0591818 -6.76456e-20)
(0.0508877 0.0625292 -1.47289e-19)
(0.0110547 0.0649474 1.5764e-19)
(-0.0183406 0.0660415 2.55059e-19)
(-0.0384783 0.0654346 5.8189e-22)
(-0.0503469 0.0627788 -1.44636e-19)
(-0.0547797 0.0577675 -1.01964e-19)
(-0.0524994 0.0501455 -1.07339e-19)
(-0.0441713 0.0397075 1.10736e-19)
(-0.0304125 0.0263464 0)
(-0.0117271 0.0101424 4.70237e-22)
(1.38052 0.03071 4.52539e-20)
(1.19707 0.029618 -5.00501e-20)
(1.01454 0.0313471 0)
(0.840033 0.0327493 -2.57391e-19)
(0.679689 0.0357027 0)
(0.536814 0.0392575 7.96924e-20)
(0.412693 0.0435825 0)
(0.30707 0.0483736 0)
(0.218753 0.0534258 2.12908e-19)
(0.146074 0.058474 -1.16435e-19)
(0.0872224 0.0632351 0)
(0.0404567 0.0674007 2.747e-19)
(0.00421409 0.0706449 8.42473e-22)
(-0.0228453 0.0726324 3.30274e-22)
(-0.0418384 0.0730305 -8.52015e-20)
(-0.0536846 0.0715233 -1.35834e-19)
(-0.0591437 0.0678254 -9.6558e-20)
(-0.058857 0.0616968 1.52529e-19)
(-0.0533869 0.0529535 5.29015e-20)
(-0.0432584 0.0414698 -1.67145e-19)
(-0.0289643 0.0272121 8.63663e-20)
(-0.0109183 0.0102918 1.23558e-19)
(1.09555 0.0182205 0)
(0.917478 0.0202503 -1.05914e-19)
(0.753572 0.0259229 0)
(0.604206 0.0306282 1.98512e-19)
(0.473192 0.0365725 7.43859e-20)
(0.360344 0.0425007 -1.62813e-19)
(0.265126 0.0486389 0)
(0.185983 0.0547036 0)
(0.121168 0.0605566 -1.08216e-19)
(0.0688526 0.0659963 0)
(0.0273421 0.0708046 6.38452e-20)
(-0.0048626 0.0747319 -6.94454e-20)
(-0.0290323 0.0775054 0)
(-0.0462168 0.0788382 -8.04067e-20)
(-0.0572712 0.0784435 0)
(-0.0628905 0.0760506 9.09696e-20)
(-0.0636474 0.0714212 9.63702e-20)
(-0.0600283 0.0643649 3.01236e-22)
(-0.0524643 0.0547501 -1.59086e-19)
(-0.041362 0.0425091 -2.73551e-20)
(-0.0271078 0.0276579 2.86916e-20)
(-0.0100366 0.0103227 0)
(0.816302 0.0124561 -4.84088e-20)
(0.660144 0.0182895 1.61474e-19)
(0.524911 0.0265299 0)
(0.405587 0.033497 6.7958e-20)
(0.304657 0.0409663 -1.49844e-19)
(0.21989 0.0479517 8.29969e-20)
(0.150056 0.0546844 -9.12862e-20)
(0.0932006 0.0609863 -1.00457e-19)
(0.0475926 0.0667932 1.09287e-19)
(0.0115919 0.0719703 1.78935e-19)
(-0.0162169 0.076354 -1.93846e-19)
(-0.0370323 0.0797393 1.39907e-19)
(-0.0518402 0.0818897 -7.5116e-20)
(-0.0614396 0.0825494 0)
(-0.0664733 0.0814603 8.58956e-20)
(-0.0674608 0.0783791 -1.82418e-19)
(-0.0648303 0.0730959 1.43696e-19)
(-0.0589463 0.0654487 0)
(-0.0501337 0.0553355 0)
(-0.0386982 0.0427197 5.4653e-20)
(-0.0249337 0.0276409 0)
(-0.00910217 0.0102242 0)
(0.565688 0.013092 0)
(0.439787 0.0218092 -5.56488e-20)
(0.335375 0.030851 -2.34912e-22)
(0.24551 0.0387064 6.88457e-20)
(0.17167 0.0463399 0)
(0.110982 0.053272 8.4438e-20)
(0.0621281 0.0596949 3.04196e-22)
(0.0232607 0.0655404 0)
(-0.00709195 0.0707908 0)
(-0.0302668 0.0753561 -2.84636e-22)
(-0.0473768 0.0791047 -1.95537e-19)
(-0.0593446 0.0818573 2.80853e-19)
(-0.066919 0.0833985 -7.55531e-20)
(-0.0707016 0.0834915 -4.04106e-20)
(-0.0711745 0.0818954 -4.27663e-20)
(-0.0687268 0.0783841 4.53469e-20)
(-0.0636792 0.0727632 -2.87467e-19)
(-0.0563046 0.0648855 1.00332e-19)
(-0.0468441 0.0546613 0)
(-0.0355214 0.042065 -2.727e-20)
(-0.0225534 0.0271378 0)
(-0.0081384 0.00998606 2.3306e-20)
(0.355241 0.0172301 -1.50489e-19)
(0.260594 0.0271313 5.59372e-20)
(0.184393 0.0358208 6.27745e-20)
(0.12035 0.0434593 -1.46546e-22)
(0.0691006 0.0504202 0)
(0.028006 0.05663 0)
(-0.00411183 0.0622435 9.38159e-20)
(-0.0287839 0.0672733 -1.02309e-19)
(-0.0471802 0.0717264 0)
(-0.0603414 0.0755409 -6.08121e-20)
(-0.0691202 0.0786041 6.57911e-20)
(-0.0742176 0.0807526 -7.08822e-20)
(-0.0761996 0.0817856 0)
(-0.0755204 0.0814791 -1.21558e-19)
(-0.072544 0.0796045 4.30191e-20)
(-0.0675647 0.0759463 1.36033e-19)
(-0.0608246 0.0703184 -4.75903e-20)
(-0.0525287 0.0625782 1.99903e-19)
(-0.0428548 0.0526362 4.43339e-23)
(-0.0319622 0.0404632 -1.07538e-19)
(-0.0200084 0.026086 1.10581e-19)
(-0.00714414 0.00957708 -2.32533e-20)
(0.186325 0.0222573 1.0145e-19)
(0.119559 0.0316801 -5.72347e-20)
(0.0671459 0.0393511 6.33149e-20)
(0.0243741 0.0460604 -7.06998e-20)
(-0.00874168 0.051921 1.56126e-19)
(-0.0342849 0.0570784 -8.58385e-20)
(-0.0532448 0.0616683 0)
(-0.0668091 0.0657497 0)
(-0.0758809 0.0693416 -5.60889e-20)
(-0.0812508 0.0723981 6.08448e-20)
(-0.0835639 0.0748184 -6.57311e-20)
(-0.083349 0.0764519 -7.09781e-20)
(-0.0810332 0.0771099 3.8047e-20)
(-0.0769603 0.0765813 0)
(-0.0714074 0.0746489 0)
(-0.0645996 0.0711068 -9.07262e-20)
(-0.0567226 0.0657746 0)
(-0.047933 0.05851 -7.47264e-20)
(-0.0383633 0.0492178 7.76148e-20)
(-0.028126 0.0378571 -1.06693e-19)
(-0.0173381 0.02443 2.19135e-19)
(-0.00612236 0.00896718 -9.10636e-20)
(0.0552315 0.026118 -1.59646e-22)
(0.0114979 0.0339747 -5.77319e-20)
(-0.0216735 0.0402536 6.42376e-20)
(-0.0475011 0.0456912 -7.09111e-20)
(-0.066338 0.0503135 -1.57631e-19)
(-0.0797154 0.0543343 8.64402e-20)
(-0.0884404 0.0578786 0)
(-0.0934016 0.0610243 0)
(-0.0952824 0.0637957 -5.65019e-20)
(-0.0946719 0.066157 6.09937e-20)
(-0.0920507 0.0680182 6.6354e-20)
(-0.0878124 0.0692414 3.54603e-20)
(-0.0822767 0.0696529 1.52238e-19)
(-0.0757029 0.0690567 6.76133e-23)
(-0.0683027 0.0672506 5.03098e-23)
(-0.0602504 0.0640406 -4.50793e-20)
(-0.0516918 0.0592542 0)
(-0.0427507 0.0527504 -4.95397e-20)
(-0.03353 0.044428 2.5798e-20)
(-0.024112 0.0342324 0)
(-0.014592 0.022139 0)
(-0.0050844 0.00813498 0)
(-0.0427837 0.0276364 1.03304e-19)
(-0.0682023 0.0335192 0)
(-0.0861824 0.0382554 3.27815e-22)
(-0.0988205 0.0423272 -7.13481e-20)
(-0.106622 0.0457331 -7.92411e-20)
(-0.110674 0.0486694 1.3068e-19)
(-0.111614 0.0512467 -9.53297e-20)
(-0.110088 0.0535433 0)
(-0.106599 0.0555841 0)
(-0.101572 0.0573405 0)
(-0.0953553 0.058734 0)
(-0.088233 0.0596421 -3.573e-20)
(-0.0804393 0.0599093 -3.82038e-20)
(-0.072167 0.0593596 -4.04382e-20)
(-0.0635772 0.0578103 8.5833e-20)
(-0.0548064 0.0550847 -9.03867e-20)
(-0.0459725 0.0510233 0)
(-0.0371782 0.0454922 2.4753e-20)
(-0.0285098 0.0383894 0)
(-0.0200339 0.0296511 9.20773e-20)
(-0.0118404 0.0192303 -1.07881e-19)
(-0.00405341 0.00707729 -7.76866e-20)
(-0.111301 0.026381 -1.04247e-19)
(-0.122566 0.0303668 -1.1981e-22)
(-0.128891 0.0336231 6.48863e-20)
(-0.1316 0.0364093 7.20139e-20)
(-0.131192 0.038719 0)
(-0.128415 0.0406994 4.38092e-20)
(-0.123747 0.0424411 0)
(-0.117637 0.0440108 5.24173e-20)
(-0.110434 0.0454313 -5.68742e-20)
(-0.10243 0.0466797 0)
(-0.0938629 0.0476901 0)
(-0.0849286 0.0483585 0)
(-0.075791 0.0485516 -1.90416e-20)
(-0.0665897 0.0481177 4.06517e-20)
(-0.0574461 0.0468988 6.43868e-20)
(-0.0484679 0.0447412 -9.02947e-20)
(-0.0397527 0.0415055 1.18051e-19)
(-0.0313904 0.0370726 -8.76347e-23)
(-0.0234594 0.0313496 -1.01846e-19)
(-0.0160214 0.0242734 1.3134e-20)
(-0.00917362 0.0157862 1.07e-19)
(-0.00306284 0.0058153 -1.86877e-19)
(-0.152207 0.0225904 -5.18512e-20)
(-0.15309 0.0250049 2.93542e-20)
(-0.151004 0.0270031 -3.27537e-20)
(-0.14676 0.0287014 7.1831e-20)
(-0.140755 0.0300991 3.97633e-20)
(-0.133475 0.0312944 4.37884e-20)
(-0.125246 0.0323556 -2.40133e-20)
(-0.116354 0.033334 0)
(-0.107021 0.0342478 0)
(-0.0974283 0.03508 0)
(-0.0877222 0.0357787 6.67259e-20)
(-0.0780269 0.0362608 -5.36359e-20)
(-0.0684503 0.0364185 1.91337e-20)
(-0.0590894 0.0361284 0)
(-0.0500342 0.0352608 -4.28958e-20)
(-0.0413701 0.0336899 9.02771e-20)
(-0.0331793 0.0313019 -2.36449e-20)
(-0.0255423 0.0280008 -1.22614e-20)
(-0.0185333 0.0237128 -1.26789e-20)
(-0.0122145 0.0183893 1.17309e-19)
(-0.00669607 0.0119785 -1.20113e-19)
(-0.00215424 0.0044061 5.44625e-21)
(-0.166066 0.0169086 0)
(-0.160227 0.0181661 2.92793e-20)
(-0.152909 0.0192151 -3.26183e-20)
(-0.144593 0.0200912 -3.62479e-20)
(-0.13553 0.0208028 -4.02317e-20)
(-0.126006 0.0214103 4.39202e-20)
(-0.116211 0.0219607 -2.39946e-20)
(-0.106302 0.02249 0)
(-0.0963949 0.0230118 5.73714e-20)
(-0.0865824 0.0235151 -6.19719e-20)
(-0.0769396 0.0239632 -6.69166e-20)
(-0.0675338 0.0242962 5.37368e-20)
(-0.058429 0.0244343 0)
(-0.0496897 0.0242847 6.10107e-20)
(-0.0413823 0.0237486 -1.0745e-19)
(-0.0335748 0.0227298 1.12928e-20)
(-0.0263366 0.0211426 0)
(-0.0197392 0.018918 -8.57993e-20)
(-0.0138514 0.0160093 1.01509e-19)
(-0.00873383 0.0123945 -1.30419e-20)
(-0.00450535 0.00804933 6.64663e-20)
(-0.00136774 0.00292933 -4.89217e-20)
(-0.152896 0.0104767 0)
(-0.144037 0.0109926 -2.94285e-20)
(-0.134705 0.0114214 6.53027e-20)
(-0.125184 0.0117598 -5.43804e-20)
(-0.115584 0.0120226 6.00033e-20)
(-0.106046 0.0122438 -4.42515e-20)
(-0.0966514 0.0124526 -1.99245e-22)
(-0.0874619 0.0126715 5.27897e-20)
(-0.0785157 0.0129103 0)
(-0.0698397 0.0131641 7.78986e-20)
(-0.061457 0.0134121 -1.3419e-19)
(-0.0533928 0.0136182 7.19176e-20)
(-0.0456791 0.0137323 7.68364e-20)
(-0.0383561 0.0136936 -7.1351e-20)
(-0.0314725 0.0134353 0)
(-0.0250832 0.0128903 -1.13143e-20)
(-0.0192477 0.0119989 0)
(-0.0140279 0.0107161 -4.91029e-20)
(-0.00948298 0.00901976 5.71338e-20)
(-0.00566463 0.00691705 5.20867e-20)
(-0.00268316 0.00442355 -9.98005e-20)
(-0.000742043 0.00155252 4.34283e-20)
(-0.112721 0.00437852 -1.31364e-20)
(-0.104591 0.0045053 0)
(-0.0964894 0.00459433 -8.1893e-21)
(-0.0886103 0.00464179 -5.46671e-20)
(-0.08096 0.00466343 1.9971e-20)
(-0.0735912 0.00467636 0)
(-0.0665157 0.00469434 -6.07867e-21)
(-0.0597371 0.00472792 -5.31506e-20)
(-0.0532476 0.00478251 1.15393e-19)
(-0.0470364 0.00485769 -7.80024e-20)
(-0.0410952 0.00494647 -4.21174e-20)
(-0.0354224 0.00503485 7.67099e-20)
(-0.0300272 0.00510173 -3.36752e-20)
(-0.024931 0.00511923 1.02198e-20)
(-0.0201672 0.00505392 0)
(-0.0157793 0.00486918 -5.1037e-20)
(-0.0118177 0.00452932 4.74015e-20)
(-0.00833576 0.00400604 0)
(-0.0053825 0.00328907 6.35194e-21)
(-0.00299442 0.00239867 -3.27132e-21)
(-0.00124471 0.00138649 -6.66036e-21)
(-0.000289204 0.000358214 0)
(-0.0460936 0.000510757 1.28433e-20)
(-0.04234 0.00052707 2.83609e-20)
(-0.0386475 0.000532114 -2.40419e-20)
(-0.0351614 0.00052572 0)
(-0.0318562 0.000515123 3.04823e-22)
(-0.0287454 0.000504743 2.1333e-20)
(-0.0258184 0.0004976 5.78819e-21)
(-0.0230625 0.000496062 -2.55371e-20)
(-0.0204608 0.000501837 0)
(-0.0179958 0.000515971 -1.17263e-22)
(-0.0156517 0.000538652 4.03911e-20)
(-0.0134172 0.000568885 -4.25671e-21)
(-0.0112871 0.000604053 -4.13651e-20)
(-0.00926415 0.000639366 0)
(-0.00736027 0.000667316 0)
(-0.00559696 0.00067733 5.40079e-21)
(-0.00400492 0.000656013 2.20795e-23)
(-0.0026227 0.000588822 -4.69566e-20)
(-0.001492 0.000464858 4.85463e-20)
(-0.00064848 0.000285534 5.29319e-20)
(-0.000129166 7.59173e-05 -1.0196e-19)
(1.66533e-05 -7.96254e-05 8.39017e-20)
(1.13615 0.0228671 0)
(1.09008 0.0244205 4.61183e-24)
(1.04198 0.0260222 0)
(0.991725 0.0276738 -6.05507e-24)
(0.939436 0.0293809 0)
(0.885196 0.0311502 3.25125e-20)
(0.829096 0.0329843 -5.33999e-20)
(0.771245 0.0348844 0)
(0.711758 0.0368498 0)
(0.650768 0.038878 2.51294e-20)
(0.588417 0.0409615 1.75708e-22)
(0.524872 0.0430783 3.00782e-20)
(0.460351 0.0451701 -6.46201e-20)
(0.395184 0.0471067 6.95742e-20)
(0.329926 0.0486467 -1.84669e-20)
(0.265478 0.0494116 -9.63084e-24)
(0.203205 0.0488955 -5.07423e-24)
(0.144991 0.0465159 1.08295e-20)
(0.0930989 0.0417004 -1.12632e-20)
(0.049929 0.0339837 1.18651e-20)
(0.0187205 0.0230646 -2.40389e-20)
(0.00351136 0.00885172 4.83332e-24)
(1.1405 0.0788565 7.12811e-22)
(1.09488 0.0845259 0)
(1.04738 0.0904704 0)
(0.997707 0.0966603 0)
(0.945997 0.103089 0)
(0.892338 0.109759 -6.28736e-20)
(0.83682 0.116669 -1.74605e-20)
(0.779551 0.123812 0)
(0.72065 0.131179 0)
(0.660246 0.138757 0)
(0.598482 0.146512 -8.07076e-20)
(0.535519 0.154359 -3.0374e-20)
(0.47156 0.162074 6.34575e-20)
(0.406907 0.169174 0)
(0.342054 0.174771 -1.84998e-20)
(0.277813 0.177498 1.17062e-19)
(0.215429 0.175547 -8.19392e-20)
(0.156643 0.166859 -1.08232e-20)
(0.103575 0.149432 7.89599e-20)
(0.0585004 0.121649 -1.03571e-19)
(0.0245708 0.0824891 7.23109e-20)
(0.00578339 0.0316725 -1.56362e-19)
(1.14913 0.134858 -6.40342e-20)
(1.10446 0.14466 -7.51948e-20)
(1.05819 0.15487 8.30128e-20)
(1.00969 0.16548 9.84479e-20)
(0.959152 0.17648 -1.62306e-19)
(0.906675 0.18788 1.24106e-19)
(0.852348 0.199679 3.53196e-20)
(0.79628 0.211869 7.72339e-20)
(0.738591 0.224439 0)
(0.679408 0.237365 0)
(0.61887 0.250595 5.34585e-20)
(0.557127 0.26398 8.73523e-20)
(0.494352 0.277141 1.99502e-21)
(0.430781 0.289244 -1.33678e-19)
(0.366788 0.298771 -1.09213e-19)
(0.302997 0.303379 1.13184e-19)
(0.240401 0.29998 0)
(0.180452 0.285061 4.12102e-20)
(0.124977 0.255214 1.9724e-19)
(0.0760035 0.207699 -1.5725e-19)
(0.0365112 0.140796 2.35544e-20)
(0.0104188 0.0540514 9.52421e-20)
(1.16109 0.188126 -1.21216e-19)
(1.11796 0.20194 0)
(1.07364 0.216276 8.07761e-20)
(1.02699 0.231188 1.87819e-19)
(0.978294 0.246651 -5.08781e-20)
(0.927657 0.262678 -6.11563e-20)
(0.87517 0.279266 -1.37773e-19)
(0.820948 0.296405 -1.70102e-21)
(0.765111 0.314078 0)
(0.707789 0.332253 2.79967e-19)
(0.649117 0.350857 -5.09635e-19)
(0.589227 0.369681 2.21209e-19)
(0.528251 0.388188 0)
(0.466324 0.405208 1.30664e-19)
(0.403643 0.418602 -1.05457e-19)
(0.340548 0.425077 0)
(0.277657 0.420296 0)
(0.215986 0.399338 1.20817e-19)
(0.156927 0.357445 -1.67509e-19)
(0.102139 0.290809 0)
(0.0543426 0.197067 0)
(0.0173388 0.0756238 -1.66093e-19)
(1.17636 0.238798 -1.16337e-19)
(1.13529 0.256494 -1.40641e-19)
(1.09357 0.274758 2.29588e-19)
(1.04937 0.293766 -9.18266e-20)
(1.00311 0.313477 0)
(0.954914 0.333904 -4.44571e-21)
(0.904868 0.355049 1.28331e-19)
(0.853095 0.376901 7.41705e-20)
(0.79972 0.399439 -1.63518e-19)
(0.74487 0.422625 2.65661e-19)
(0.688676 0.446365 -9.3826e-20)
(0.631252 0.470397 1.11051e-19)
(0.572669 0.494035 -2.28782e-19)
(0.512936 0.51578 0)
(0.452007 0.532899 -6.75438e-20)
(0.389853 0.541177 0)
(0.326594 0.535075 0)
(0.262671 0.508327 1.53478e-19)
(0.198905 0.454889 -1.58771e-19)
(0.136474 0.369963 -3.97327e-20)
(0.0777632 0.250605 4.09562e-20)
(0.0264221 0.0961221 0)
(1.19452 0.285584 4.1882e-21)
(1.15604 0.30699 0)
(1.11752 0.328943 -1.53814e-19)
(1.07636 0.351817 0)
(1.03313 0.375535 0)
(0.98795 0.400116 -2.1949e-19)
(0.940924 0.425565 2.5027e-19)
(0.892177 0.45187 -4.05943e-19)
(0.841839 0.479009 -1.48321e-19)
(0.79004 0.50694 8.8478e-20)
(0.736903 0.535554 -1.82925e-19)
(0.68252 0.564536 1.03217e-19)
(0.626892 0.593064 1.13206e-19)
(0.569871 0.619331 -2.312e-19)
(0.511117 0.640033 5.9551e-20)
(0.450141 0.650082 0)
(0.38645 0.642789 0)
(0.31978 0.61061 2.86183e-19)
(0.250254 0.546301 -2.96204e-19)
(0.178465 0.444157 3.97023e-20)
(0.106396 0.300729 -4.0947e-20)
(0.0375168 0.115282 1.30696e-19)
(1.21512 0.327908 1.0533e-19)
(1.17974 0.352795 -1.26323e-19)
(1.14498 0.37814 1.39483e-19)
(1.10737 0.404585 1.64228e-19)
(1.06769 0.432011 -3.57754e-19)
(1.02605 0.460442 1.06186e-19)
(0.98257 0.489888 0)
(0.937379 0.520336 1.32912e-19)
(0.890614 0.551764 2.85211e-19)
(0.842407 0.584126 2.32687e-19)
(0.792877 0.617299 1.7304e-19)
(0.742086 0.650926 -1.85317e-19)
(0.689957 0.68406 1.04166e-19)
(0.636157 0.714609 0)
(0.58 0.738741 -5.93075e-20)
(0.520456 0.75054 2.40554e-19)
(0.456307 0.742234 -1.9174e-19)
(0.386458 0.705077 0)
(0.310217 0.630709 0)
(0.227498 0.512612 6.65172e-20)
(0.139825 0.346921 0)
(0.0504579 0.132909 0)
(1.23749 0.365072 2.9524e-19)
(1.2057 0.393194 -2.25863e-19)
(1.17522 0.421618 -1.27917e-19)
(1.14167 0.451313 1.45331e-19)
(1.10602 0.482102 1.16101e-20)
(1.06842 0.514021 0)
(1.02896 0.547085 0)
(0.987806 0.58129 -2.40891e-19)
(0.945092 0.616615 -2.11984e-21)
(0.900957 0.653016 -1.50368e-19)
(0.855515 0.690364 0)
(0.808803 0.728267 0)
(0.760658 0.765675 -8.74305e-20)
(0.710544 0.800243 0)
(0.657387 0.827653 0)
(0.59954 0.841219 0)
(0.534956 0.832153 -6.21592e-21)
(0.461589 0.790583 0)
(0.377815 0.707128 0)
(0.28279 0.574546 -6.64225e-20)
(0.17752 0.388653 6.07603e-20)
(0.0650378 0.148802 2.15954e-19)
(1.26088 0.396509 -3.69565e-19)
(1.23314 0.427537 1.11047e-19)
(1.20736 0.45867 8.83146e-21)
(1.17825 0.491259 -1.43827e-19)
(1.14704 0.52506 3.21272e-19)
(1.11387 0.560117 -1.7378e-19)
(1.07887 0.596452 0)
(1.04218 0.634059 0)
(1.00398 0.672918 1.25302e-19)
(0.964382 0.712986 0)
(0.923512 0.75413 0)
(0.881374 0.795934 3.08524e-19)
(0.837715 0.837263 -3.20489e-19)
(0.791776 0.875561 0)
(0.742057 0.906074 1.83682e-19)
(0.686222 0.921414 8.85797e-20)
(0.621297 0.911855 -2.54266e-19)
(0.54417 0.866482 -2.06093e-19)
(0.45218 0.774981 2.13809e-19)
(0.343646 0.629492 2.20067e-19)
(0.219021 0.425611 -2.86681e-19)
(0.0810776 0.162848 0)
(1.28439 0.422063 1.66092e-19)
(1.26119 0.455714 3.93338e-19)
(1.24052 0.489206 -2.11975e-19)
(1.21627 0.524291 1.28346e-19)
(1.1899 0.560653 -1.40971e-19)
(1.16154 0.598362 -1.52591e-19)
(1.13133 0.637456 0)
(1.09944 0.677943 0)
(1.06606 0.719814 1.02404e-19)
(1.03132 0.763033 -2.35814e-19)
(0.995352 0.807471 5.08558e-19)
(0.958134 0.852707 1.28181e-19)
(0.919331 0.897548 7.45105e-21)
(0.877963 0.939265 -3.08139e-19)
(0.832076 0.972732 0)
(0.778592 0.989921 -8.9576e-20)
(0.713516 0.980233 0)
(0.632555 0.931787 0)
(0.5319 0.833424 4.11981e-20)
(0.40896 0.676768 0)
(0.263592 0.457317 4.34352e-20)
(0.0982911 0.174853 3.65579e-20)
(1.30713 0.441251 -1.61217e-19)
(1.28884 0.477076 3.54255e-19)
(1.27345 0.512538 -1.9773e-19)
(1.25429 0.54979 -2.6187e-21)
(1.23303 0.588418 1.27362e-19)
(1.20979 0.628492 1.50568e-19)
(1.18473 0.67005 0)
(1.15803 0.7131 -9.98088e-21)
(1.12989 0.757637 -7.21265e-22)
(1.10044 0.803631 0)
(1.06982 0.85096 0)
(1.03799 0.899202 -3.63862e-19)
(1.00452 0.947132 3.20506e-19)
(0.968208 0.991892 2.60458e-19)
(0.92662 1.02804 -2.76009e-19)
(0.875874 1.04701 0)
(0.810865 1.0374 0)
(0.726021 0.986484 6.50872e-20)
(0.616299 0.882354 -4.10134e-20)
(0.478153 0.716232 -3.33718e-20)
(0.310825 0.483646 1.13095e-19)
(0.116515 0.184773 -1.67426e-19)
(1.32818 0.454811 0)
(1.31538 0.492586 -5.45391e-21)
(1.30568 0.529601 -1.91534e-19)
(1.29192 0.568463 2.039e-19)
(1.27598 0.608715 -1.0942e-19)
(1.25799 0.650474 0)
(1.23815 0.693806 0)
(1.2167 0.73873 -3.08632e-19)
(1.19384 0.785257 -7.7936e-20)
(1.16975 0.833368 2.7563e-19)
(1.14456 0.88296 -2.82718e-19)
(1.11823 0.933633 0)
(1.09027 0.984168 -9.76194e-20)
(1.05929 1.03164 0)
(1.02237 1.07036 0)
(0.974805 1.09126 0)
(0.910309 1.08223 0)
(0.821898 1.02968 -1.51336e-20)
(0.703171 0.921054 0)
(0.549542 0.747294 8.70695e-21)
(0.359628 0.504144 0)
(0.135327 0.192403 -1.00816e-19)
(1.34658 0.461601 0)
(1.33936 0.500858 0)
(1.33524 0.539305 -3.37643e-19)
(1.32708 0.579739 -8.49606e-20)
(1.31677 0.621594 9.77681e-21)
(1.30442 0.664988 2.18803e-19)
(1.29025 0.709991 0)
(1.27451 0.756634 2.68781e-19)
(1.25742 0.804938 0)
(1.23916 0.854895 8.29659e-20)
(1.21989 0.906414 2.48687e-19)
(1.19955 0.95911 -1.7252e-19)
(1.17761 1.01177 1.75551e-19)
(1.15242 1.06143 0)
(1.1206 1.10221 0)
(1.07654 1.12463 -1.69367e-19)
(1.0127 1.11598 1.78237e-19)
(0.920614 1.06203 -4.91091e-20)
(0.792525 0.949736 -3.25731e-20)
(0.622852 0.769916 2.43932e-20)
(0.409652 0.518693 0)
(0.154544 0.197678 0)