/*--------------------------------*- C++ -*----------------------------------*\
| =========                 |                                                 |
| \\      /  F ield         | OpenFOAM Extend Project: Open source CFD        |
|  \\    /   O peration     | Version:  1.6-ext                               |
|   \\  /    A nd           | Web:      www.extend-project.de                 |
|    \\/     M anipulation  |                                                 |
\*---------------------------------------------------------------------------*/
FoamFile
{
    version     2.0;
    format      ascii;
    class       volVectorField;
    location    "0.85";
    object      U_0;
}
// * * * * * * * * * * * * * * * * * * * * * * * * * * * * * * * * * * * * * //

dimensions      [0 1 -1 0 0 0 0];

internalField   nonuniform List<vector> 
20940
(
(1.8484 0.397624 3.54168e-21)
(1.88796 0.417665 0)
(1.92543 0.436988 -4.18208e-21)
(1.95994 0.454548 0)
(1.99121 0.470552 -7.03092e-21)
(2.0176 0.483878 8.8584e-21)
(2.03613 0.493417 0)
(2.04198 0.497222 2.84587e-22)
(2.02878 0.49306 -7.57089e-21)
(1.98942 0.478694 -1.83696e-23)
(1.91769 0.452585 2.16189e-23)
(1.81001 0.414503 1.31882e-20)
(1.66683 0.365881 -1.41317e-20)
(1.49302 0.309712 -8.01694e-21)
(1.29706 0.250005 0)
(1.08938 0.191018 -9.56045e-21)
(0.8805 0.136556 2.08209e-23)
(0.679512 0.0895188 -1.12641e-20)
(0.493224 0.0517182 1.17091e-20)
(0.325931 0.0239268 1.85014e-20)
(0.179654 0.00662331 -6.47069e-21)
(0.0546065 0.000490342 1.06538e-23)
(1.87527 0.374392 4.89066e-21)
(1.91355 0.393281 6.00722e-21)
(1.94942 0.410794 -5.39419e-21)
(1.98176 0.42657 -1.34596e-20)
(2.00973 0.440269 2.05756e-20)
(2.03084 0.45069 -8.823e-21)
(2.04109 0.456417 2.35097e-20)
(2.03472 0.455417 -1.90341e-20)
(2.00497 0.445623 0)
(1.94536 0.425354 0)
(1.8514 0.393972 0)
(1.72218 0.352298 -5.06583e-20)
(1.56111 0.302664 2.76319e-20)
(1.37552 0.248526 3.99555e-20)
(1.17526 0.193797 -1.70223e-20)
(0.970855 0.142145 9.5209e-21)
(0.771897 0.0964855 -1.96812e-20)
(0.585948 0.0587677 0)
(0.418159 0.0299681 -2.27268e-20)
(0.271376 0.0102349 1.74761e-20)
(0.146563 -0.000371957 -4.31717e-20)
(0.0433306 -0.00141077 2.04254e-20)
(1.89991 0.351127 -1.02687e-20)
(1.9366 0.368934 0)
(1.97033 0.384743 0)
(1.99962 0.398746 1.17247e-20)
(2.02288 0.410036 -3.22439e-20)
(2.03659 0.417324 3.62623e-20)
(2.03571 0.418957 -6.85764e-20)
(2.01385 0.412971 2.61396e-20)
(1.96447 0.397679 0)
(1.88244 0.372154 0)
(1.76571 0.336738 0)
(1.61637 0.29319 4.90924e-20)
(1.44058 0.244447 5.60382e-20)
(1.24749 0.194058 -5.97764e-20)
(1.04748 0.145511 -1.69195e-20)
(0.850419 0.101694 3.63007e-20)
(0.664457 0.064614 -1.84895e-20)
(0.495447 0.0353751 4.12698e-20)
(0.346931 0.0142867 -2.05456e-20)
(0.220469 0.00104288 -4.5025e-20)
(0.116159 -0.00459065 -4.70146e-20)
(0.0331561 -0.0023648 3.91422e-20)
(1.92342 0.328202 0)
(1.95803 0.344996 1.56574e-20)
(1.98881 0.359139 1.8898e-20)
(2.01374 0.371271 0)
(2.03021 0.379912 -3.32297e-20)
(2.03361 0.383725 5.54642e-20)
(2.01806 0.380937 7.11969e-20)
(1.97706 0.369869 -5.27863e-20)
(1.90507 0.34944 3.20644e-20)
(1.79918 0.319622 0)
(1.66031 0.281701 0)
(1.49357 0.238146 -2.58519e-20)
(1.30732 0.192139 5.2237e-20)
(1.11165 0.146957 -5.92791e-20)
(0.916573 0.105418 -1.47871e-21)
(0.730648 0.0695512 1.37515e-19)
(0.560277 0.0405199 -3.69851e-20)
(0.409565 0.0187322 -9.79794e-20)
(0.280589 0.00400331 1.03153e-19)
(0.173837 -0.00427195 -2.11575e-20)
(0.0887424 -0.00650776 1.15385e-20)
(0.0241483 -0.00257087 0)
(1.94548 0.30569 2.44265e-20)
(1.97737 0.321468 -3.2548e-20)
(2.00402 0.333896 0)
(2.0227 0.343955 1.00917e-21)
(2.0296 0.349623 -3.08028e-20)
(2.01913 0.349606 4.08408e-20)
(1.98502 0.342204 -4.47864e-20)
(1.92145 0.326257 0)
(1.82484 0.301471 -6.3613e-20)
(1.69518 0.268746 0)
(1.53658 0.230139 0)
(1.35668 0.188486 -1.41047e-19)
(1.16519 0.146839 1.00866e-19)
(0.972144 0.107914 0)
(0.786389 0.0737328 0)
(0.61475 0.0455009 0)
(0.46178 0.0236758 -7.24316e-20)
(0.329965 0.00814588 1.68469e-19)
(0.220153 -0.00160089 -1.5762e-19)
(0.132007 -0.00633503 1.86404e-19)
(0.0645003 -0.00655752 -8.56057e-20)
(0.0163099 -0.00219283 0)
(1.9656 0.283662 -3.03117e-20)
(1.99377 0.29837 3.3688e-20)
(2.01458 0.308938 4.6968e-20)
(2.02439 0.31661 3.21046e-20)
(2.01819 0.318924 -6.32447e-20)
(1.98981 0.314796 -3.97615e-20)
(1.93334 0.302829 4.82946e-20)
(1.84468 0.282599 -5.27972e-20)
(1.72303 0.254677 9.57699e-20)
(1.57166 0.22077 -6.97493e-20)
(1.39752 0.183394 -8.1602e-20)
(1.20993 0.145373 8.78835e-20)
(1.01888 0.109305 0)
(0.83342 0.0771806 -5.27291e-20)
(0.660692 0.0502292 0)
(0.505608 0.0289531 0)
(0.370978 0.0132791 -3.4306e-20)
(0.257922 0.00274968 1.06633e-19)
(0.166334 -0.00333011 9.69245e-22)
(0.0953031 -0.00579264 -3.98107e-20)
(0.0435286 -0.00516058 0)
(0.00963812 -0.00138142 8.56042e-20)
(1.98332 0.261926 2.8311e-20)
(2.00621 0.275376 0)
(2.01866 0.283815 -4.84078e-20)
(2.01611 0.288729 5.35678e-20)
(1.99264 0.287384 6.97905e-20)
(1.94224 0.279112 -1.17168e-19)
(1.86042 0.263046 0)
(1.74573 0.23962 0)
(1.6007 0.210192 0)
(1.43168 0.177004 6.86425e-20)
(1.24764 0.142656 -7.87494e-20)
(1.05847 0.109618 1.27146e-19)
(0.873353 0.0798347 0)
(0.699709 0.054544 1.03046e-19)
(0.542729 0.0342862 5.46774e-20)
(0.405481 0.0190307 -5.87794e-20)
(0.289286 0.00835084 3.31468e-20)
(0.194202 0.00159436 -1.02363e-19)
(0.119459 -0.00200621 0)
(0.0637936 -0.00327329 -7.53652e-20)
(0.0257811 -0.00271123 -7.89461e-20)
(0.00408662 -0.000272629 3.25192e-20)
(1.99716 0.240418 -3.87478e-20)
(2.01246 0.252354 7.58335e-20)
(2.01324 0.258342 -2.86922e-21)
(1.9942 0.260142 5.93689e-20)
(1.94918 0.254999 -6.5524e-20)
(1.87338 0.242894 -2.745e-21)
(1.76482 0.223646 -9.69914e-20)
(1.62539 0.198512 1.03577e-19)
(1.46089 0.169407 0)
(1.27999 0.138742 -1.36592e-19)
(1.09249 0.108846 7.40156e-20)
(0.907712 0.0816084 -2.07257e-19)
(0.733271 0.0582657 4.51676e-20)
(0.574606 0.0393876 -5.02735e-20)
(0.434988 0.0249865 5.31753e-20)
(0.315895 0.0146767 1.16577e-19)
(0.217494 0.00783268 -2.74014e-19)
(0.139096 0.00372276 1.61242e-19)
(0.0795214 0.00158255 0)
(0.0373344 0.000642737 -3.56185e-20)
(0.0111006 0.00043784 3.79006e-20)
(-0.000422309 0.00101594 7.92488e-20)
(2.00579 0.218576 6.4684e-20)
(2.01022 0.228606 -1.61092e-19)
(1.99514 0.231804 4.78733e-20)
(1.9551 0.230333 1.38414e-21)
(1.88476 0.221669 -6.62085e-20)
(1.78172 0.206575 7.96143e-20)
(1.64729 0.185564 -1.81052e-21)
(1.4868 0.160513 2.07818e-19)
(1.30864 0.133548 -5.72282e-20)
(1.12256 0.106894 -6.47273e-20)
(0.938005 0.0823661 -7.32344e-20)
(0.762796 0.0611947 1.59896e-19)
(0.602583 0.0439753 4.43026e-20)
(0.460813 0.0307629 4.66372e-20)
(0.339084 0.0212182 5.03646e-20)
(0.237635 0.0147564 -1.10106e-19)
(0.155816 0.010672 5.98693e-20)
(0.0924784 0.00823273 -6.24474e-20)
(0.0462345 0.00672255 -1.32365e-19)
(0.0156143 0.00544672 1.37358e-19)
(-0.000752763 0.00398569 -1.0791e-19)
(-0.00398774 0.00238703 1.20789e-19)
(2.00577 0.196448 -7.20069e-20)
(1.99542 0.204253 2.45815e-19)
(1.96006 0.204521 0)
(1.89515 0.199902 5.8002e-20)
(1.79736 0.188368 -7.0194e-20)
(1.66765 0.171496 -1.54111e-21)
(1.51083 0.150348 0)
(1.3351 0.127097 0)
(1.15019 0.103731 -5.75392e-20)
(0.965698 0.0820288 -6.40774e-20)
(0.789665 0.0631913 1.38802e-19)
(0.62795 0.0478371 -7.75375e-20)
(0.484164 0.0360614 8.32756e-20)
(0.360006 0.0275736 4.55151e-20)
(0.255765 0.0218369 -2.46803e-19)
(0.170805 0.0181867 1.5872e-19)
(0.103974 0.0159173 5.79805e-20)
(0.0538857 0.014342 -2.0916e-19)
(0.0191001 0.0128154 1.25813e-19)
(-0.00179885 0.0107238 0)
(-0.0100758 0.00769302 -3.39845e-20)
(-0.00672219 0.0037659 0)
(1.99531 0.173008 5.76444e-21)
(1.96534 0.178323 -7.93205e-20)
(1.90552 0.175775 1.02185e-19)
(1.81309 0.168652 0)
(1.6879 0.155496 -6.98233e-20)
(1.5346 0.138491 7.68617e-20)
(1.36103 0.11897 9.00081e-20)
(1.17703 0.0990462 8.07256e-22)
(0.992358 0.0803136 1.12289e-19)
(0.815331 0.0639897 -1.22055e-19)
(0.652036 0.0506984 0)
(0.50625 0.040578 0)
(0.379766 0.0333879 0)
(0.272907 0.0286444 0)
(0.185036 0.0257324 0)
(0.11498 0.023988 -1.02392e-19)
(0.0613275 0.0227522 1.63255e-19)
(0.0226272 0.0214075 -1.15982e-19)
(-0.00251495 0.0193862 9.12033e-20)
(-0.0154081 0.0161542 1.28276e-19)
(-0.0171939 0.0113797 -9.88174e-20)
(-0.00874233 0.00509766 0)
(1.96838 0.149363 -7.03581e-20)
(1.9154 0.15228 -8.531e-20)
(1.82846 0.147446 -1.00905e-19)
(1.70854 0.138729 6.05959e-20)
(1.55893 0.125257 -6.68807e-20)
(1.38765 0.109569 0)
(1.20443 0.0929888 0)
(1.0194 0.0772929 -1.96587e-19)
(0.841161 0.0635614 -2.83102e-22)
(0.67611 0.0524616 -1.20558e-19)
(0.528223 0.0441533 1.30597e-19)
(0.399401 0.038444 0)
(0.289998 0.0348996 0)
(0.199363 0.0329553 8.53478e-20)
(0.126286 0.0319936 -1.83023e-19)
(0.0693186 0.031395 1.46236e-19)
(0.026978 0.0305688 5.18161e-20)
(-0.00214208 0.0289726 0)
(-0.0193283 0.026114 8.78595e-20)
(-0.0257583 0.0215331 0)
(-0.0224503 0.0149371 -3.17277e-20)
(-0.0101692 0.0063528 -1.37003e-19)
(1.92671 0.123569 -7.20252e-20)
(1.84618 0.124443 0)
(1.7314 0.118328 -1.04869e-19)
(1.58602 0.10941 2.35145e-19)
(1.41695 0.097336 0)
(1.23444 0.0845025 0)
(1.04871 0.0720177 8.56374e-20)
(0.868913 0.0611453 0)
(0.701754 0.0524715 1.06283e-19)
(0.551481 0.0462154 1.17114e-19)
(0.420128 0.042223 -1.26899e-19)
(0.308089 0.0401152 -1.402e-19)
(0.214694 0.0393798 1.50777e-19)
(0.138684 0.0394486 -8.25439e-20)
(0.0785565 0.0397465 -9.247e-22)
(0.0327844 0.0397198 9.34979e-20)
(-6.9087e-05 0.0388513 -5.13231e-20)
(-0.0212984 0.0366711 -1.08133e-19)
(-0.0320537 0.0327565 5.56709e-20)
(-0.0333758 0.0267149 2.9496e-20)
(-0.0261685 0.0182922 3.15891e-20)
(-0.0111126 0.00751143 2.71535e-20)
(1.86023 0.0999467 0)
(1.75482 0.0994546 -8.93441e-20)
(1.61406 0.0928939 0)
(1.4486 0.0848011 -2.35746e-19)
(1.26712 0.0750354 0)
(1.08092 0.0656563 -7.53345e-20)
(0.899403 0.057476 -8.43386e-20)
(0.72989 0.05121 9.40753e-20)
(0.57694 0.0470356 1.15355e-21)
(0.4428 0.0448426 -1.12864e-19)
(0.327939 0.0442877 1.24825e-19)
(0.231683 0.0449058 -1.34808e-19)
(0.152728 0.0461743 -1.47893e-19)
(0.0895104 0.0475595 1.58517e-19)
(0.0404449 0.0485431 8.62048e-20)
(0.00405262 0.0486359 -9.24985e-20)
(-0.0209854 0.0473861 -9.86524e-20)
(-0.0358209 0.0443852 1.03962e-19)
(-0.0414612 0.0392694 0)
(-0.038817 0.0317051 -2.92882e-20)
(-0.0286908 0.0214738 -2.98926e-20)
(-0.0116947 0.00859799 0)
(1.78558 0.0728772 7.74867e-20)
(1.64976 0.0718314 8.81496e-20)
(1.4874 0.0671027 0)
(1.30731 0.0610678 5.74555e-20)
(1.12006 0.0551333 6.5185e-20)
(0.936293 0.050177 -4.49932e-22)
(0.763683 0.0467728 8.18031e-20)
(0.607314 0.0450871 0)
(0.469683 0.0450157 -1.01024e-19)
(0.351403 0.0462716 -2.09711e-22)
(0.251829 0.0484585 6.01177e-20)
(0.16962 0.0511268 0)
(0.10314 0.0538067 1.43314e-19)
(0.0507281 0.0560293 -2.31204e-19)
(0.0108353 0.0573395 -8.32802e-20)
(-0.017904 0.0573053 4.38423e-20)
(-0.0366647 0.0555248 -4.82849e-20)
(-0.0464506 0.0516351 4.95099e-20)
(-0.0481318 0.0453171 -5.93905e-22)
(-0.0424998 0.0362873 1.67693e-19)
(-0.0302689 0.0243631 2.96735e-20)
(-0.0119987 0.00957531 -1.27559e-19)
(1.63521 0.0529178 -3.93649e-20)
(1.46922 0.0493112 -4.71638e-20)
(1.28744 0.0466022 -5.57402e-20)
(1.1009 0.0436052 1.87275e-19)
(0.918822 0.0419131 0)
(0.74878 0.0414264 -7.83311e-20)
(0.595286 0.042345 0)
(0.46059 0.0444783 0)
(0.345066 0.0475768 4.74644e-22)
(0.247909 0.0513093 2.30344e-19)
(0.167648 0.0553075 -1.87288e-19)
(0.102554 0.0591809 -6.77093e-20)
(0.0508891 0.0625281 -1.47426e-19)
(0.0110559 0.0649461 1.57787e-19)
(-0.0183395 0.06604 2.55293e-19)
(-0.0384772 0.0654329 5.81906e-22)
(-0.0503457 0.062777 -1.44768e-19)
(-0.0547785 0.0577658 -1.02056e-19)
(-0.0524982 0.050144 -1.07436e-19)
(-0.0441704 0.0397065 1.10836e-19)
(-0.030412 0.0263459 0)
(-0.011727 0.0101423 4.70272e-22)
(1.38055 0.0307037 4.53021e-20)
(1.1971 0.0296137 -5.01034e-20)
(1.01456 0.0313443 0)
(0.840052 0.0327475 -2.57651e-19)
(0.679704 0.0357018 0)
(0.536825 0.039257 7.9771e-20)
(0.412701 0.0435822 0)
(0.307076 0.0483735 0)
(0.218757 0.0534256 2.13112e-19)
(0.146077 0.0584737 -1.16546e-19)
(0.0872242 0.0632347 0)
(0.040458 0.0674001 2.74959e-19)
(0.00421502 0.070644 8.42504e-22)
(-0.0228445 0.0726312 3.30248e-22)
(-0.0418375 0.073029 -8.52807e-20)
(-0.0536835 0.0715216 -1.3596e-19)
(-0.0591425 0.0678236 -9.66465e-20)
(-0.0588557 0.061695 1.52668e-19)
(-0.0533857 0.0529519 5.295e-20)
(-0.0432574 0.0414686 -1.67296e-19)
(-0.0289637 0.0272114 8.64445e-20)
(-0.0109182 0.0102917 1.2367e-19)
(1.09558 0.0182166 0)
(0.917503 0.020248 -1.06023e-19)
(0.753591 0.0259219 0)
(0.604221 0.030628 1.98711e-19)
(0.473204 0.0365728 7.44586e-20)
(0.360352 0.0425013 -1.62972e-19)
(0.265131 0.0486396 0)
(0.185987 0.0547042 0)
(0.12117 0.060557 -1.08319e-19)
(0.0688542 0.0659965 0)
(0.0273431 0.0708045 6.39061e-20)
(-0.00486192 0.0747315 -6.9511e-20)
(-0.0290317 0.0775046 0)
(-0.0462162 0.0788371 -8.0482e-20)
(-0.0572704 0.078442 0)
(-0.0628894 0.0760488 9.10543e-20)
(-0.0636462 0.0714193 9.64596e-20)
(-0.0600269 0.0643629 3.01243e-22)
(-0.052463 0.0547484 -1.59232e-19)
(-0.0413609 0.0425078 -2.73804e-20)
(-0.0271072 0.0276572 2.87179e-20)
(-0.0100364 0.0103225 0)
(0.816328 0.0124545 -4.84587e-20)
(0.660164 0.0182893 1.6164e-19)
(0.524926 0.0265306 0)
(0.405599 0.0334982 6.80252e-20)
(0.304665 0.0409678 -1.49992e-19)
(0.219895 0.0479532 8.30781e-20)
(0.15006 0.0546858 -9.13749e-20)
(0.0932029 0.0609876 -1.00554e-19)
(0.0475939 0.0667941 1.09392e-19)
(0.0115926 0.0719709 1.79107e-19)
(-0.0162166 0.0763542 -1.94031e-19)
(-0.0370321 0.0797391 1.4004e-19)
(-0.05184 0.081889 -7.51872e-20)
(-0.0614392 0.0825483 0)
(-0.0664726 0.0814587 8.59765e-20)
(-0.0674598 0.0783773 -1.82589e-19)
(-0.064829 0.0730938 1.43831e-19)
(-0.0589449 0.0654466 0)
(-0.0501324 0.0553336 0)
(-0.0386971 0.0427182 5.47039e-20)
(-0.0249331 0.0276401 0)
(-0.00910199 0.010224 0)
(0.565708 0.0130929 0)
(0.439802 0.021811 -5.57049e-20)
(0.335386 0.0308534 -2.34802e-22)
(0.245518 0.0387089 6.89139e-20)
(0.171675 0.0463424 0)
(0.110985 0.0532744 8.45204e-20)
(0.0621298 0.0596969 3.04232e-22)
(0.0232614 0.0655421 0)
(-0.00709179 0.070792 0)
(-0.030267 0.0753569 -2.84704e-22)
(-0.0473771 0.079105 -1.95725e-19)
(-0.0593449 0.0818571 2.81121e-19)
(-0.0669191 0.0833978 -7.56251e-20)
(-0.0707014 0.0834903 -4.0449e-20)
(-0.0711739 0.0818937 -4.2807e-20)
(-0.0687258 0.078382 4.539e-20)
(-0.063678 0.0727609 -2.87739e-19)
(-0.0563032 0.0648832 1.00427e-19)
(-0.0468427 0.0546592 0)
(-0.0355203 0.0420633 -2.72955e-20)
(-0.0225527 0.0271369 0)
(-0.00813819 0.00998581 2.3328e-20)
(0.355256 0.0172332 -1.50643e-19)
(0.260605 0.0271348 5.59941e-20)
(0.184399 0.0358246 6.28373e-20)
(0.120355 0.0434629 -1.46653e-22)
(0.0691028 0.0504235 0)
(0.0280068 0.0566329 0)
(-0.00411197 0.0622459 9.39071e-20)
(-0.0287845 0.0672751 -1.02409e-19)
(-0.0471812 0.0717277 0)
(-0.0603424 0.0755417 -6.08707e-20)
(-0.0691212 0.0786043 6.58543e-20)
(-0.0742183 0.0807523 -7.09501e-20)
(-0.0762 0.0817847 0)
(-0.0755204 0.0814777 -1.21674e-19)
(-0.0725435 0.0796026 4.30602e-20)
(-0.0675638 0.075944 1.36163e-19)
(-0.0608234 0.0703158 -4.76358e-20)
(-0.0525273 0.0625755 2.00094e-19)
(-0.0428534 0.0526338 4.43362e-23)
(-0.0319611 0.0404615 -1.07641e-19)
(-0.0200077 0.026085 1.10687e-19)
(-0.00714392 0.00957678 -2.32753e-20)
(0.186334 0.0222622 1.01554e-19)
(0.119564 0.0316851 -5.72922e-20)
(0.0671485 0.0393559 6.33785e-20)
(0.0243748 0.0460647 -7.07698e-20)
(-0.00874233 0.0519247 1.5628e-19)
(-0.0342864 0.0570815 -8.5923e-20)
(-0.0532468 0.0616707 0)
(-0.0668112 0.0657514 0)
(-0.075883 0.0693427 -5.61435e-20)
(-0.0812526 0.0723986 6.09039e-20)
(-0.0835655 0.0748184 -6.57949e-20)
(-0.0833502 0.0764513 -7.10467e-20)
(-0.0810339 0.0771087 3.80836e-20)
(-0.0769605 0.0765795 0)
(-0.0714071 0.0746467 0)
(-0.0645988 0.0711041 -9.08135e-20)
(-0.0567215 0.0657716 0)
(-0.0479316 0.0585071 -7.47981e-20)
(-0.038362 0.0492152 7.76893e-20)
(-0.0281249 0.0378551 -1.06795e-19)
(-0.0173374 0.0244288 2.19345e-19)
(-0.00612213 0.00896683 -9.11512e-20)
(0.0552342 0.0261241 -1.59524e-22)
(0.0114981 0.0339805 -5.779e-20)
(-0.0216751 0.0402588 6.43019e-20)
(-0.0475039 0.0456957 -7.09819e-20)
(-0.0663414 0.0503172 -1.57787e-19)
(-0.079719 0.0543373 8.65254e-20)
(-0.088444 0.0578807 0)
(-0.093405 0.0610257 0)
(-0.0952855 0.0637964 -5.6557e-20)
(-0.0946745 0.066157 6.10533e-20)
(-0.0920528 0.0680176 6.64183e-20)
(-0.087814 0.0692403 3.54948e-20)
(-0.0822777 0.0696512 1.52386e-19)
(-0.0757033 0.0690545 6.76256e-23)
(-0.0683025 0.0672479 5.03206e-23)
(-0.0602497 0.0640374 -4.5123e-20)
(-0.0516908 0.0592508 0)
(-0.0427494 0.0527471 -4.95876e-20)
(-0.0335287 0.0444251 2.58229e-20)
(-0.0241109 0.0342302 0)
(-0.0145912 0.0221376 0)
(-0.00508416 0.00813457 0)
(-0.042787 0.0276432 1.0341e-19)
(-0.068207 0.0335252 0)
(-0.0861879 0.0382606 3.27974e-22)
(-0.0988264 0.0423315 -7.14194e-20)
(-0.106628 0.0457364 -7.93195e-20)
(-0.11068 0.0486718 1.30809e-19)
(-0.111619 0.0512483 -9.54237e-20)
(-0.110093 0.0535441 0)
(-0.106603 0.0555841 0)
(-0.101575 0.0573399 0)
(-0.0953577 0.0587328 0)
(-0.0882348 0.0596403 -3.57648e-20)
(-0.0804405 0.059907 -3.82409e-20)
(-0.0721675 0.0593568 -4.04776e-20)
(-0.0635771 0.057807 8.59165e-20)
(-0.0548058 0.055081 -9.04747e-20)
(-0.0459715 0.0510195 0)
(-0.0371769 0.0454884 2.4777e-20)
(-0.0285085 0.0383861 0)
(-0.0200328 0.0296485 9.21672e-20)
(-0.0118397 0.0192287 -1.07986e-19)
(-0.00405316 0.00707681 -7.77626e-20)
(-0.11131 0.0263875 -1.04354e-19)
(-0.122575 0.0303724 -1.19672e-22)
(-0.128899 0.0336276 6.49516e-20)
(-0.131608 0.0364128 7.20858e-20)
(-0.1312 0.0387215 0)
(-0.128422 0.040701 4.38526e-20)
(-0.123753 0.0424418 0)
(-0.117642 0.0440108 5.24689e-20)
(-0.110438 0.0454305 -5.69301e-20)
(-0.102433 0.0466783 0)
(-0.0938655 0.0476881 0)
(-0.0849304 0.048356 0)
(-0.0757922 0.0485486 -1.90603e-20)
(-0.0665903 0.0481142 4.06914e-20)
(-0.057446 0.0468949 6.44497e-20)
(-0.0484673 0.0447369 -9.0383e-20)
(-0.0397517 0.0415011 1.18166e-19)
(-0.0313892 0.0370684 -8.76278e-23)
(-0.0234581 0.0313458 -1.01946e-19)
(-0.0160203 0.0242705 1.31469e-20)
(-0.00917285 0.0157844 1.07105e-19)
(-0.00306258 0.00581473 -1.87061e-19)
(-0.15222 0.022596 -5.19049e-20)
(-0.153102 0.0250094 2.93841e-20)
(-0.151015 0.0270066 -3.27865e-20)
(-0.14677 0.0287038 7.19032e-20)
(-0.140764 0.0301005 3.98029e-20)
(-0.133483 0.0312949 4.38318e-20)
(-0.125252 0.0323553 -2.4037e-20)
(-0.116359 0.033333 0)
(-0.107026 0.0342461 0)
(-0.0974317 0.0350777 0)
(-0.0877248 0.0357759 6.67913e-20)
(-0.0780288 0.0362575 -5.36885e-20)
(-0.0684514 0.0364148 1.91524e-20)
(-0.0590899 0.0361243 0)
(-0.0500341 0.0352563 -4.29379e-20)
(-0.0413696 0.0336851 9.03656e-20)
(-0.0331784 0.0312969 -2.3668e-20)
(-0.0255411 0.027996 -1.22735e-20)
(-0.0185321 0.0237085 -1.26914e-20)
(-0.0122134 0.018386 1.17425e-19)
(-0.00669531 0.0119764 -1.20232e-19)
(-0.00215396 0.00440542 5.45164e-21)
(-0.166081 0.0169125 0)
(-0.160241 0.018169 2.93092e-20)
(-0.15292 0.0192169 -3.26512e-20)
(-0.144603 0.0200921 -3.62842e-20)
(-0.135538 0.0208028 -4.02716e-20)
(-0.126013 0.0214095 4.39638e-20)
(-0.116217 0.0219592 -2.40184e-20)
(-0.106307 0.0224878 0)
(-0.0963991 0.0230091 5.74278e-20)
(-0.0865857 0.0235118 -6.20328e-20)
(-0.0769421 0.0239595 -6.69823e-20)
(-0.0675355 0.024292 5.37895e-20)
(-0.0584301 0.0244298 0)
(-0.0496902 0.0242798 6.10705e-20)
(-0.0413823 0.0237434 -1.07555e-19)
(-0.0335743 0.0227243 1.13039e-20)
(-0.0263358 0.0211371 0)
(-0.0197382 0.0189126 -8.58838e-20)
(-0.0138503 0.0160045 1.01608e-19)
(-0.0087328 0.0123907 -1.30547e-20)
(-0.00450461 0.00804692 6.6532e-20)
(-0.00136746 0.00292851 -4.89701e-20)
(-0.152911 0.0104789 0)
(-0.144049 0.0109938 -2.94583e-20)
(-0.134716 0.0114217 6.53686e-20)
(-0.125193 0.0117593 -5.44349e-20)
(-0.115592 0.0120213 6.00632e-20)
(-0.106053 0.0122418 -4.42954e-20)
(-0.0966572 0.01245 -1.99292e-22)
(-0.0874667 0.0126683 5.28418e-20)
(-0.0785195 0.0129066 0)
(-0.0698427 0.0131599 7.79751e-20)
(-0.0614592 0.0134076 -1.34322e-19)
(-0.0533944 0.0136133 7.19881e-20)
(-0.04568 0.0137271 7.69117e-20)
(-0.0383565 0.0136881 -7.14209e-20)
(-0.0314724 0.0134295 0)
(-0.0250828 0.0128844 -1.13254e-20)
(-0.019247 0.0119929 0)
(-0.014027 0.0107102 -4.91512e-20)
(-0.00948202 0.00901447 5.719e-20)
(-0.00566374 0.00691275 5.21382e-20)
(-0.00268247 0.00442072 -9.98991e-20)
(-0.000741771 0.00155151 4.34713e-20)
(-0.112732 0.00437907 -1.31498e-20)
(-0.1046 0.00450516 0)
(-0.0964973 0.00459347 -8.1975e-21)
(-0.0886168 0.00464021 -5.47217e-20)
(-0.0809653 0.00466116 1.9991e-20)
(-0.0735954 0.00467343 0)
(-0.066519 0.00469081 -6.08465e-21)
(-0.0597395 0.00472385 -5.32028e-20)
(-0.0532492 0.00477795 1.15506e-19)
(-0.0470374 0.0048527 -7.80789e-20)
(-0.0410956 0.00494112 -4.21586e-20)
(-0.0354223 0.00502919 7.67849e-20)
(-0.0300267 0.00509581 -3.37082e-20)
(-0.0249302 0.00511311 1.02298e-20)
(-0.0201661 0.00504763 0)
(-0.0157782 0.00486281 -5.10871e-20)
(-0.0118165 0.00452297 4.7448e-20)
(-0.00833466 0.00399988 0)
(-0.00538155 0.00328338 6.35819e-21)
(-0.00299364 0.00239384 -3.27454e-21)
(-0.00124415 0.00138306 -6.66694e-21)
(-0.000288968 0.000356784 0)
(-0.0460848 0.000509692 -1.30027e-20)
(-0.0423311 0.000525533 2.81093e-20)
(-0.0386384 0.000530064 7.97937e-21)
(-0.0351523 0.000523142 0)
(-0.0318472 0.000512036 0)
(-0.0287366 0.000501175 0)
(-0.0258098 0.000493585 2.9418e-20)
(-0.0230544 0.000491642 -2.55619e-20)
(-0.0204531 0.000497052 1.08609e-22)
(-0.0179885 0.000510866 0)
(-0.015645 0.000533273 8.06836e-21)
(-0.013411 0.000563282 -4.31957e-21)
(-0.0112814 0.000598277 -4.15209e-20)
(-0.00925905 0.000633471 3.90787e-20)
(-0.00735575 0.000661361 4.12933e-20)
(-0.00559304 0.000671384 -3.79431e-20)
(-0.00400162 0.000650166 0)
(-0.00262003 0.000583192 -4.70024e-20)
(-0.00148999 0.000459615 9.7123e-20)
(-0.000647145 0.000280932 -4.68294e-20)
(-0.000128454 7.23923e-05 0)
(1.69823e-05 -8.12513e-05 -4.19795e-20)
(1.13615 0.0228686 0)
(1.09008 0.0244223 4.61007e-24)
(1.04198 0.0260242 0)
(0.991725 0.0276761 -6.05294e-24)
(0.939437 0.0293835 0)
(0.885196 0.031153 3.2502e-20)
(0.829097 0.0329874 -5.33827e-20)
(0.771245 0.0348878 0)
(0.711759 0.0368534 0)
(0.650769 0.0388819 2.51221e-20)
(0.588418 0.0409657 1.75711e-22)
(0.524873 0.0430828 3.00698e-20)
(0.460351 0.0451748 -6.46024e-20)
(0.395185 0.0471116 6.95553e-20)
(0.329927 0.0486517 -1.84619e-20)
(0.265478 0.0494166 -9.62829e-24)
(0.203205 0.0489003 -5.0729e-24)
(0.144991 0.0465202 1.08267e-20)
(0.0930991 0.0417039 -1.12603e-20)
(0.0499292 0.0339864 1.18621e-20)
(0.0187206 0.0230662 -2.40328e-20)
(0.00351137 0.00885227 4.8321e-24)
(1.14051 0.078858 7.12824e-22)
(1.09488 0.0845276 0)
(1.04738 0.0904724 0)
(0.997708 0.0966626 0)
(0.945998 0.103091 0)
(0.892339 0.109762 -6.28526e-20)
(0.836821 0.116672 -1.74548e-20)
(0.779552 0.123815 0)
(0.720651 0.131183 0)
(0.660247 0.138761 0)
(0.598483 0.146517 -8.06842e-20)
(0.53552 0.154364 -3.03657e-20)
(0.471561 0.162079 6.34397e-20)
(0.406907 0.169179 0)
(0.342054 0.174776 -1.84948e-20)
(0.277814 0.177503 1.1703e-19)
(0.215429 0.175552 -8.19175e-20)
(0.156644 0.166864 -1.08204e-20)
(0.103576 0.149435 7.89394e-20)
(0.0585006 0.121652 -1.03544e-19)
(0.024571 0.0824908 7.22924e-20)
(0.00578344 0.0316731 -1.56322e-19)
(1.14913 0.134859 -6.40085e-20)
(1.10446 0.144661 -7.51661e-20)
(1.05819 0.154872 8.29812e-20)
(1.00969 0.165483 9.84131e-20)
(0.959153 0.176483 -1.62248e-19)
(0.906676 0.187883 1.24064e-19)
(0.852349 0.199682 3.53082e-20)
(0.796281 0.211873 7.72091e-20)
(0.738592 0.224442 0)
(0.679409 0.237369 0)
(0.618871 0.250599 5.34429e-20)
(0.557128 0.263985 8.73273e-20)
(0.494353 0.277146 1.99501e-21)
(0.430782 0.289249 -1.3364e-19)
(0.366789 0.298776 -1.09183e-19)
(0.302998 0.303384 1.13153e-19)
(0.240402 0.299985 0)
(0.180453 0.285065 4.11989e-20)
(0.124977 0.255218 1.97187e-19)
(0.0760039 0.207702 -1.57208e-19)
(0.0365114 0.140798 2.35483e-20)
(0.0104189 0.054052 9.52171e-20)
(1.16109 0.188127 -1.21164e-19)
(1.11796 0.201942 0)
(1.07364 0.216278 8.07446e-20)
(1.02699 0.23119 1.87749e-19)
(0.978295 0.246654 -5.08591e-20)
(0.927658 0.262681 -6.11355e-20)
(0.875171 0.279269 -1.37727e-19)
(0.820949 0.296408 -1.70102e-21)
(0.765112 0.314082 0)
(0.707791 0.332257 2.7988e-19)
(0.649118 0.350861 -5.09479e-19)
(0.589229 0.369685 2.21142e-19)
(0.528252 0.388193 0)
(0.466326 0.405213 1.30626e-19)
(0.403644 0.418607 -1.05428e-19)
(0.340549 0.425083 0)
(0.277658 0.420301 0)
(0.215987 0.399343 1.20783e-19)
(0.156928 0.357448 -1.67462e-19)
(0.10214 0.290812 0)
(0.0543429 0.197068 0)
(0.017339 0.0756244 -1.66048e-19)
(1.17636 0.238799 -1.16286e-19)
(1.13529 0.256496 -1.40584e-19)
(1.09357 0.274759 2.29494e-19)
(1.04937 0.293769 -9.17921e-20)
(1.00311 0.313479 0)
(0.954915 0.333907 -4.44569e-21)
(0.90487 0.355052 1.28285e-19)
(0.853097 0.376904 7.41459e-20)
(0.799721 0.399442 -1.63464e-19)
(0.744872 0.422629 2.65575e-19)
(0.688678 0.44637 -9.37951e-20)
(0.631253 0.470402 1.11018e-19)
(0.57267 0.49404 -2.28712e-19)
(0.512937 0.515786 0)
(0.452009 0.532904 -6.7524e-20)
(0.389855 0.541182 0)
(0.326595 0.53508 0)
(0.262672 0.508331 1.53433e-19)
(0.198906 0.454893 -1.58725e-19)
(0.136475 0.369966 -3.97207e-20)
(0.0777636 0.250607 4.09439e-20)
(0.0264223 0.0961228 0)
(1.19452 0.285586 4.18817e-21)
(1.15604 0.306992 0)
(1.11752 0.328945 -1.53752e-19)
(1.07636 0.351819 0)
(1.03313 0.375537 0)
(0.987951 0.400119 -2.19408e-19)
(0.940925 0.425568 2.5018e-19)
(0.892179 0.451873 -4.05797e-19)
(0.841841 0.479013 -1.48268e-19)
(0.790041 0.506944 8.84494e-20)
(0.736905 0.535558 -1.82863e-19)
(0.682522 0.564541 1.03185e-19)
(0.626894 0.593069 1.13171e-19)
(0.569873 0.619336 -2.31125e-19)
(0.511119 0.640038 5.95313e-20)
(0.450143 0.650087 0)
(0.386452 0.642794 0)
(0.319781 0.610615 2.86093e-19)
(0.250255 0.546305 -2.96111e-19)
(0.178466 0.44416 3.96903e-20)
(0.106397 0.300731 -4.09347e-20)
(0.037517 0.115283 1.30655e-19)
(1.21512 0.327909 1.0528e-19)
(1.17974 0.352796 -1.26267e-19)
(1.14498 0.378142 1.39422e-19)
(1.10738 0.404587 1.6416e-19)
(1.06769 0.432014 -3.57604e-19)
(1.02605 0.460445 1.06145e-19)
(0.982571 0.489891 0)
(0.937381 0.520339 1.32864e-19)
(0.890616 0.551767 2.85106e-19)
(0.842409 0.584129 2.32602e-19)
(0.792879 0.617303 1.72979e-19)
(0.742089 0.650931 -1.85252e-19)
(0.68996 0.684064 1.04131e-19)
(0.636159 0.714615 0)
(0.580002 0.738747 -5.92879e-20)
(0.520458 0.750545 2.40471e-19)
(0.456309 0.74224 -1.91675e-19)
(0.38646 0.705081 0)
(0.310218 0.630713 0)
(0.227499 0.512615 6.64932e-20)
(0.139825 0.346923 0)
(0.0504581 0.13291 0)
(1.23749 0.365073 2.95091e-19)
(1.2057 0.393195 -2.25753e-19)
(1.17522 0.421619 -1.27856e-19)
(1.14167 0.451315 1.45264e-19)
(1.10602 0.482104 1.16101e-20)
(1.06842 0.514023 0)
(1.02896 0.547088 0)
(0.987808 0.581293 -2.40794e-19)
(0.945095 0.616619 -2.11983e-21)
(0.900959 0.65302 -1.50312e-19)
(0.855517 0.690368 0)
(0.808805 0.728272 0)
(0.760661 0.76568 -8.73958e-20)
(0.710547 0.800248 0)
(0.65739 0.827658 0)
(0.599542 0.841224 0)
(0.534958 0.832158 -6.21592e-21)
(0.461592 0.790588 0)
(0.377817 0.707132 0)
(0.282791 0.574549 -6.63985e-20)
(0.177521 0.388655 6.07357e-20)
(0.0650381 0.148803 2.15873e-19)
(1.26088 0.39651 -3.69368e-19)
(1.23315 0.427539 1.10992e-19)
(1.20736 0.458671 8.8314e-21)
(1.17825 0.491261 -1.4376e-19)
(1.14704 0.525062 3.21126e-19)
(1.11388 0.56012 -1.737e-19)
(1.07887 0.596455 0)
(1.04219 0.634062 0)
(1.00398 0.672922 1.2525e-19)
(0.964384 0.71299 0)
(0.923514 0.754134 0)
(0.881377 0.795938 3.08395e-19)
(0.837717 0.837268 -3.20352e-19)
(0.791779 0.875566 0)
(0.74206 0.906079 1.83604e-19)
(0.686224 0.92142 8.85388e-20)
(0.621299 0.91186 -2.54159e-19)
(0.544172 0.866487 -2.06004e-19)
(0.452182 0.774985 2.13716e-19)
(0.343648 0.629495 2.19971e-19)
(0.219022 0.425613 -2.86558e-19)
(0.0810779 0.162849 0)
(1.28439 0.422064 1.65995e-19)
(1.2612 0.455715 3.93122e-19)
(1.24052 0.489207 -2.11856e-19)
(1.21627 0.524292 1.2828e-19)
(1.18991 0.560655 -1.40899e-19)
(1.16155 0.598364 -1.52512e-19)
(1.13133 0.637459 0)
(1.09945 0.677946 0)
(1.06606 0.719817 1.02353e-19)
(1.03133 0.763037 -2.35703e-19)
(0.995355 0.807475 5.0832e-19)
(0.958137 0.852711 1.28118e-19)
(0.919335 0.897552 7.45094e-21)
(0.877966 0.93927 -3.07994e-19)
(0.832079 0.972737 0)
(0.778595 0.989927 -8.95354e-20)
(0.713519 0.980238 0)
(0.632558 0.931791 0)
(0.531902 0.833428 4.1175e-20)
(0.408962 0.676771 0)
(0.263593 0.457319 4.34106e-20)
(0.0982915 0.174854 3.65375e-20)
(1.30713 0.441252 -1.61121e-19)
(1.28884 0.477077 3.54042e-19)
(1.27346 0.512539 -1.97612e-19)
(1.25429 0.549792 -2.61868e-21)
(1.23303 0.58842 1.27291e-19)
(1.20979 0.628494 1.5049e-19)
(1.18473 0.670053 0)
(1.15804 0.713103 -9.98082e-21)
(1.12989 0.75764 -7.21238e-22)
(1.10044 0.803634 0)
(1.06982 0.850964 0)
(1.03799 0.899206 -3.63673e-19)
(1.00452 0.947136 3.20338e-19)
(0.968212 0.991897 2.60314e-19)
(0.926624 1.02805 -2.75857e-19)
(0.875877 1.04701 0)
(0.810869 1.03741 0)
(0.726024 0.986489 6.5043e-20)
(0.616302 0.882358 -4.09904e-20)
(0.478155 0.716235 -3.3348e-20)
(0.310826 0.483648 1.13022e-19)
(0.116515 0.184774 -1.67324e-19)
(1.32818 0.454811 0)
(1.31538 0.492586 -5.45388e-21)
(1.30568 0.529602 -1.91418e-19)
(1.29193 0.568464 2.03773e-19)
(1.27599 0.608716 -1.0935e-19)
(1.25799 0.650476 0)
(1.23815 0.693808 0)
(1.21671 0.738733 -3.0845e-19)
(1.19385 0.78526 -7.78863e-20)
(1.16976 0.833371 2.75469e-19)
(1.14456 0.882964 -2.82544e-19)
(1.11823 0.933637 0)
(1.09028 0.984172 -9.75527e-20)
(1.05929 1.03164 0)
(1.02237 1.07037 0)
(0.974809 1.09127 0)
(0.910313 1.08223 0)
(0.821902 1.02969 -1.51336e-20)
(0.703174 0.921058 0)
(0.549545 0.747297 8.70696e-21)
(0.35963 0.504146 0)
(0.135327 0.192404 -1.00734e-19)
(1.34659 0.461601 0)
(1.33936 0.500858 0)
(1.33524 0.539306 -3.37415e-19)
(1.32709 0.57974 -8.4898e-20)
(1.31678 0.621596 9.77678e-21)
(1.30443 0.66499 2.18652e-19)
(1.29025 0.709993 0)
(1.27451 0.756636 2.68601e-19)
(1.25742 0.804941 0)
(1.23916 0.854898 8.2913e-20)
(1.21989 0.906417 2.48516e-19)
(1.19955 0.959114 -1.72398e-19)
(1.17761 1.01178 1.7542e-19)
(1.15243 1.06143 0)
(1.1206 1.10221 0)
(1.07655 1.12463 -1.69209e-19)
(1.0127 1.11598 1.78071e-19)
(0.920618 1.06204 -4.90655e-20)
(0.792529 0.94974 -3.25276e-20)
(0.622855 0.769919 2.43696e-20)
(0.409654 0.518695 0)
(0.154545 0.197679 0)