/*--------------------------------*- C++ -*----------------------------------*\
| =========                 |                                                 |
| \\      /  F ield         | OpenFOAM Extend Project: Open source CFD        |
|  \\    /   O peration     | Version:  1.6-ext                               |
|   \\  /    A nd           | Web:      www.extend-project.de                 |
|    \\/     M anipulation  |                                                 |
\*---------------------------------------------------------------------------*/
FoamFile
{
    version     2.0;
    format      ascii;
    class       volScalarField::DimensionedInternalField;
    location    "0.85";
    object      V0;
}
// * * * * * * * * * * * * * * * * * * * * * * * * * * * * * * * * * * * * * //

dimensions      [0 3 0 0 0 0 0];

value           nonuniform List<scalar> 
20940
(
1.17124e-06
1.03821e-06
9.21163e-07
8.18117e-07
7.27334e-07
6.47296e-07
5.76679e-07
5.14327e-07
4.59226e-07
4.10492e-07
3.67354e-07
3.29134e-07
2.9524e-07
2.65153e-07
2.38421e-07
2.14642e-07
1.9347e-07
1.74596e-07
1.57753e-07
1.42705e-07
1.29246e-07
1.17195e-07
1.17142e-06
1.03836e-06
9.21294e-07
8.18233e-07
7.27438e-07
6.47391e-07
5.76767e-07
5.14409e-07
4.59305e-07
4.10568e-07
3.67425e-07
3.292e-07
2.953e-07
2.65208e-07
2.3847e-07
2.14687e-07
1.93511e-07
1.74635e-07
1.57791e-07
1.42743e-07
1.29283e-07
1.1723e-07
1.174e-06
1.04065e-06
9.23326e-07
8.20038e-07
7.29043e-07
6.48822e-07
5.78045e-07
5.15552e-07
4.60329e-07
4.11488e-07
3.68254e-07
3.29948e-07
2.95975e-07
2.65817e-07
2.39018e-07
2.15181e-07
1.93957e-07
1.75039e-07
1.58158e-07
1.43077e-07
1.29589e-07
1.17511e-07
1.17828e-06
1.04444e-06
9.2669e-07
8.23027e-07
7.31704e-07
6.51192e-07
5.80159e-07
5.1744e-07
4.62017e-07
4.13e-07
3.6961e-07
3.31167e-07
2.97073e-07
2.66808e-07
2.39913e-07
2.1599e-07
1.94687e-07
1.75698e-07
1.58755e-07
1.43619e-07
1.30082e-07
1.17961e-07
1.18354e-06
1.04914e-06
9.3089e-07
8.2679e-07
7.3508e-07
6.54227e-07
5.82891e-07
5.19902e-07
4.64238e-07
4.15006e-07
3.71424e-07
3.32809e-07
2.98562e-07
2.68161e-07
2.41145e-07
2.17113e-07
1.95712e-07
1.76634e-07
1.59608e-07
1.44398e-07
1.30794e-07
1.18613e-07
1.19037e-06
1.05526e-06
9.36378e-07
8.31717e-07
7.39511e-07
6.58219e-07
5.86495e-07
5.23162e-07
4.6719e-07
4.17683e-07
3.73854e-07
3.35017e-07
3.00571e-07
2.6999e-07
2.42813e-07
2.18637e-07
1.97106e-07
1.77911e-07
1.60778e-07
1.45469e-07
1.31774e-07
1.1951e-07
1.19875e-06
1.0628e-06
9.43169e-07
8.37835e-07
7.45028e-07
6.632e-07
5.91e-07
5.27246e-07
4.70902e-07
4.21062e-07
3.76935e-07
3.3783e-07
3.0314e-07
2.72339e-07
2.44963e-07
2.20605e-07
1.9891e-07
1.79567e-07
1.62299e-07
1.46867e-07
1.33059e-07
1.20691e-07
1.20868e-06
1.07179e-06
9.51315e-07
8.45221e-07
7.51724e-07
6.69273e-07
5.9651e-07
5.32248e-07
4.75451e-07
4.25208e-07
3.80722e-07
3.41296e-07
3.06318e-07
2.75254e-07
2.47639e-07
2.23064e-07
2.0117e-07
1.81645e-07
1.64212e-07
1.4863e-07
1.34686e-07
1.22193e-07
1.22007e-06
1.08214e-06
9.60753e-07
8.53833e-07
7.59591e-07
6.76462e-07
6.03078e-07
5.38247e-07
4.80928e-07
4.30209e-07
3.85293e-07
3.45481e-07
3.10158e-07
2.78785e-07
2.5089e-07
2.2606e-07
2.03934e-07
1.84195e-07
1.66566e-07
1.50805e-07
1.36697e-07
1.24054e-07
1.23282e-06
1.09379e-06
9.71411e-07
8.63599e-07
7.68555e-07
6.84702e-07
6.10661e-07
5.45229e-07
4.87354e-07
4.36118e-07
3.90724e-07
3.5047e-07
3.14742e-07
2.83003e-07
2.54778e-07
2.29649e-07
2.07252e-07
1.87266e-07
1.6941e-07
1.53439e-07
1.39137e-07
1.26315e-07
1.24677e-06
1.10661e-06
9.83195e-07
8.7444e-07
7.78539e-07
6.9391e-07
6.19167e-07
5.53099e-07
4.94644e-07
4.42876e-07
3.96987e-07
3.56269e-07
3.20106e-07
2.87958e-07
2.59355e-07
2.33881e-07
2.11169e-07
1.90896e-07
1.72778e-07
1.56565e-07
1.4204e-07
1.2901e-07
1.26239e-06
1.12103e-06
9.96502e-07
8.86724e-07
7.8988e-07
7.04383e-07
6.28845e-07
5.62051e-07
5.02938e-07
4.50573e-07
4.04137e-07
3.6292e-07
3.26291e-07
2.93707e-07
2.64691e-07
2.38827e-07
2.15751e-07
1.95142e-07
1.76716e-07
1.60221e-07
1.45437e-07
1.32169e-07
1.27885e-06
1.13635e-06
1.01075e-06
8.99986e-07
8.0222e-07
7.15859e-07
6.39512e-07
5.71961e-07
5.12143e-07
4.59127e-07
4.12095e-07
3.70331e-07
3.33204e-07
3.00161e-07
2.70716e-07
2.44448e-07
2.20988e-07
2.00015e-07
1.81247e-07
1.64434e-07
1.49357e-07
1.35818e-07
1.29617e-06
1.15256e-06
1.02593e-06
9.14197e-07
8.15528e-07
7.28321e-07
6.51176e-07
5.82871e-07
5.22337e-07
4.6864e-07
4.20967e-07
3.78602e-07
3.40918e-07
3.07363e-07
2.77448e-07
2.50747e-07
2.26882e-07
2.05527e-07
1.86395e-07
1.69237e-07
1.53833e-07
1.39989e-07
1.31412e-06
1.1695e-06
1.0419e-06
9.29235e-07
8.29679e-07
7.41636e-07
6.637e-07
5.9465e-07
5.33414e-07
4.79046e-07
4.30732e-07
3.87752e-07
3.4948e-07
3.15368e-07
2.84932e-07
2.57748e-07
2.33438e-07
2.1167e-07
1.92153e-07
1.74629e-07
1.58876e-07
1.447e-07
1.24247e-06
1.10837e-06
9.89858e-07
8.8504e-07
7.92249e-07
7.10032e-07
6.37114e-07
5.72383e-07
5.14861e-07
4.63689e-07
4.18113e-07
3.77474e-07
3.41195e-07
3.0877e-07
2.7976e-07
2.53777e-07
2.30481e-07
2.09568e-07
1.90772e-07
1.73853e-07
1.58603e-07
1.44838e-07
1.2194e-06
1.08726e-06
9.7053e-07
8.67323e-07
7.75994e-07
6.951e-07
6.23382e-07
5.59741e-07
5.03211e-07
4.52947e-07
4.08207e-07
3.68338e-07
3.32766e-07
3.0099e-07
2.72571e-07
2.47125e-07
2.24316e-07
2.03849e-07
1.85463e-07
1.68928e-07
1.54036e-07
1.40607e-07
1.19743e-06
1.06722e-06
9.52225e-07
8.50586e-07
7.60677e-07
6.81071e-07
6.1052e-07
5.47932e-07
4.92355e-07
4.42955e-07
3.99e-07
3.5985e-07
3.24939e-07
2.93773e-07
2.65914e-07
2.40981e-07
2.1864e-07
1.98598e-07
1.80598e-07
1.64415e-07
1.4985e-07
1.36725e-07
1.17673e-06
1.04837e-06
9.35048e-07
8.34917e-07
7.46366e-07
6.67989e-07
5.98552e-07
5.36974e-07
4.8231e-07
4.33735e-07
3.90527e-07
3.52052e-07
3.17756e-07
2.87151e-07
2.59808e-07
2.35352e-07
2.13449e-07
1.93809e-07
1.76175e-07
1.60324e-07
1.46059e-07
1.33207e-07
1.15742e-06
1.03084e-06
9.19105e-07
8.20404e-07
7.33141e-07
6.55921e-07
5.87526e-07
5.26893e-07
4.73086e-07
4.25289e-07
3.82784e-07
3.44945e-07
3.11224e-07
2.81141e-07
2.54273e-07
2.30249e-07
2.08744e-07
1.89469e-07
1.72173e-07
1.5663e-07
1.42647e-07
1.3005e-07
1.13931e-06
1.01444e-06
9.04243e-07
8.06916e-07
7.20887e-07
6.44774e-07
5.77374e-07
5.17635e-07
4.64634e-07
4.17565e-07
3.75719e-07
3.38479e-07
3.053e-07
2.75707e-07
2.49282e-07
2.25659e-07
2.04517e-07
1.85573e-07
1.68579e-07
1.53318e-07
1.39592e-07
1.27234e-07
1.12321e-06
9.99876e-07
8.91052e-07
7.94953e-07
7.10023e-07
6.34897e-07
5.68385e-07
5.09443e-07
4.57159e-07
4.10736e-07
3.69475e-07
3.32762e-07
3.00063e-07
2.70904e-07
2.44874e-07
2.21609e-07
2.00793e-07
1.82144e-07
1.65418e-07
1.504e-07
1.36899e-07
1.24747e-07
1.10852e-06
9.86619e-07
8.79075e-07
7.84123e-07
7.00216e-07
6.26005e-07
5.60311e-07
5.02103e-07
4.50479e-07
4.04649e-07
3.63921e-07
3.2769e-07
2.95425e-07
2.66659e-07
2.40985e-07
2.18044e-07
1.97522e-07
1.79141e-07
1.62657e-07
1.47857e-07
1.34554e-07
1.22582e-07
1.09544e-06
9.74845e-07
8.6846e-07
7.7454e-07
6.91553e-07
6.18165e-07
5.53208e-07
4.95659e-07
4.44627e-07
3.99326e-07
3.59074e-07
3.2327e-07
2.9139e-07
2.62972e-07
2.37612e-07
2.14955e-07
1.94691e-07
1.76543e-07
1.60272e-07
1.45666e-07
1.32539e-07
1.20726e-07
1.08398e-06
9.64547e-07
8.59192e-07
7.66187e-07
6.84017e-07
6.11357e-07
5.47051e-07
4.90084e-07
4.3957e-07
3.94736e-07
3.54901e-07
3.19473e-07
2.8793e-07
2.59815e-07
2.34728e-07
2.12318e-07
1.92276e-07
1.7433e-07
1.58243e-07
1.43804e-07
1.30829e-07
1.19154e-07
1.07411e-06
9.55689e-07
8.51235e-07
7.59031e-07
6.77573e-07
6.05547e-07
5.41805e-07
4.85342e-07
4.35277e-07
3.90845e-07
3.51371e-07
3.16265e-07
2.85011e-07
2.57156e-07
2.32303e-07
2.10104e-07
1.90252e-07
1.72479e-07
1.56548e-07
1.4225e-07
1.29403e-07
1.17844e-07
1.06577e-06
9.48218e-07
8.44536e-07
7.53016e-07
6.72166e-07
6.00681e-07
5.3742e-07
4.81384e-07
4.31702e-07
3.8761e-07
3.4844e-07
3.13606e-07
2.82596e-07
2.5496e-07
2.30304e-07
2.0828e-07
1.88588e-07
1.70957e-07
1.55156e-07
1.40976e-07
1.28236e-07
1.16774e-07
1.05891e-06
9.4208e-07
8.39039e-07
7.48087e-07
6.6774e-07
5.96702e-07
5.33838e-07
4.78157e-07
4.28791e-07
3.84981e-07
3.46062e-07
3.11453e-07
2.80643e-07
2.53187e-07
2.28691e-07
2.06813e-07
1.87249e-07
1.69736e-07
1.54038e-07
1.39954e-07
1.273e-07
1.15919e-07
1.05352e-06
9.37258e-07
8.34719e-07
7.44213e-07
6.64264e-07
5.93578e-07
5.31028e-07
4.75627e-07
4.2651e-07
3.82922e-07
3.44202e-07
3.0977e-07
2.79119e-07
2.51803e-07
2.27434e-07
2.05669e-07
1.86207e-07
1.68784e-07
1.53169e-07
1.39156e-07
1.26567e-07
1.15243e-07
1.04909e-06
9.3332e-07
8.31207e-07
7.41081e-07
6.61468e-07
5.9108e-07
5.28792e-07
4.73623e-07
4.24712e-07
3.81307e-07
3.42749e-07
3.08461e-07
2.77939e-07
2.50738e-07
2.26472e-07
2.04798e-07
1.85418e-07
1.68068e-07
1.52518e-07
1.38564e-07
1.26026e-07
1.14705e-07
1.17427e-06
1.04681e-06
9.34195e-07
8.3462e-07
7.46499e-07
6.68447e-07
5.9925e-07
5.37846e-07
4.83305e-07
4.34812e-07
3.91652e-07
3.53199e-07
3.18902e-07
2.88279e-07
2.60905e-07
2.36408e-07
2.14461e-07
1.94774e-07
1.77095e-07
1.612e-07
1.46892e-07
1.33996e-07
1.17456e-06
1.04708e-06
9.34455e-07
8.34864e-07
7.46727e-07
6.6866e-07
5.99449e-07
5.38033e-07
4.8348e-07
4.34975e-07
3.91805e-07
3.53341e-07
3.19035e-07
2.88403e-07
2.61021e-07
2.36517e-07
2.14562e-07
1.94869e-07
1.77184e-07
1.61283e-07
1.46969e-07
1.34068e-07
1.17731e-06
1.04956e-06
9.36686e-07
8.36878e-07
7.48548e-07
6.70308e-07
6.00942e-07
5.39386e-07
4.84709e-07
4.36093e-07
3.92822e-07
3.54268e-07
3.1988e-07
2.89175e-07
2.61726e-07
2.37162e-07
2.15153e-07
1.9541e-07
1.7768e-07
1.61739e-07
1.47388e-07
1.34454e-07
1.18191e-06
1.05369e-06
9.40398e-07
8.40218e-07
7.51558e-07
6.73023e-07
6.03394e-07
5.41604e-07
4.86716e-07
4.37912e-07
3.94473e-07
3.55768e-07
3.21244e-07
2.90416e-07
2.62858e-07
2.38194e-07
2.16096e-07
1.96273e-07
1.7847e-07
1.62462e-07
1.48051e-07
1.35062e-07
1.18775e-06
1.05897e-06
9.45173e-07
8.44542e-07
7.55477e-07
6.7658e-07
6.06627e-07
5.44544e-07
4.89394e-07
4.40354e-07
3.96701e-07
3.57803e-07
3.23106e-07
2.9212e-07
2.64419e-07
2.39626e-07
2.1741e-07
1.9748e-07
1.7958e-07
1.63483e-07
1.48992e-07
1.35929e-07
1.19549e-06
1.06597e-06
9.51513e-07
8.5029e-07
7.60694e-07
6.81321e-07
6.10939e-07
5.48471e-07
4.92974e-07
4.43621e-07
3.99686e-07
3.60533e-07
3.25604e-07
2.9441e-07
2.66519e-07
2.41553e-07
2.19181e-07
1.99108e-07
1.81077e-07
1.64862e-07
1.50262e-07
1.37101e-07
1.20513e-06
1.07471e-06
9.59444e-07
8.57498e-07
7.67253e-07
6.87295e-07
6.16386e-07
5.53444e-07
4.97518e-07
4.47776e-07
4.0349e-07
3.64019e-07
3.28802e-07
2.97345e-07
2.69216e-07
2.44034e-07
2.21463e-07
2.0121e-07
1.83014e-07
1.66649e-07
1.51911e-07
1.38623e-07
1.21675e-06
1.08527e-06
9.69064e-07
8.66263e-07
7.75248e-07
6.94595e-07
6.23059e-07
5.59548e-07
5.03108e-07
4.52901e-07
4.08192e-07
3.68337e-07
3.3277e-07
3.00995e-07
2.72575e-07
2.47128e-07
2.24315e-07
2.03841e-07
1.85443e-07
1.68892e-07
1.53984e-07
1.4054e-07
1.23043e-06
1.09774e-06
9.80439e-07
8.76655e-07
7.84751e-07
7.03294e-07
6.31029e-07
5.66858e-07
5.09818e-07
4.59065e-07
4.13859e-07
3.73551e-07
3.37571e-07
3.05419e-07
2.76655e-07
2.50892e-07
2.27791e-07
2.07052e-07
1.88412e-07
1.71638e-07
1.56525e-07
1.42893e-07
1.24617e-06
1.11213e-06
9.93611e-07
8.88721e-07
7.95814e-07
7.13446e-07
6.40353e-07
5.75429e-07
5.17703e-07
4.66324e-07
4.20547e-07
3.79717e-07
3.4326e-07
3.10671e-07
2.81506e-07
2.55377e-07
2.31938e-07
2.1089e-07
1.91964e-07
1.74928e-07
1.59574e-07
1.45719e-07
1.26382e-06
1.12832e-06
1.00848e-06
9.02386e-07
8.08382e-07
7.25015e-07
6.5101e-07
5.85253e-07
5.26764e-07
4.74688e-07
4.28272e-07
3.86857e-07
3.49862e-07
3.16779e-07
2.8716e-07
2.60612e-07
2.36789e-07
2.15386e-07
1.96134e-07
1.78796e-07
1.63163e-07
1.49051e-07
1.28384e-06
1.14673e-06
1.0254e-06
9.17963e-07
8.22731e-07
7.38241e-07
6.63209e-07
5.96512e-07
5.37163e-07
4.84298e-07
4.37158e-07
3.95077e-07
3.5747e-07
3.23825e-07
2.93688e-07
2.66663e-07
2.42399e-07
2.2059e-07
2.00962e-07
1.83278e-07
1.67325e-07
1.52917e-07
1.3055e-06
1.16671e-06
1.04386e-06
9.35016e-07
8.38495e-07
7.52822e-07
6.76703e-07
6.09006e-07
5.48737e-07
4.95024e-07
4.47102e-07
4.043e-07
3.66028e-07
3.31767e-07
3.01062e-07
2.73511e-07
2.48762e-07
2.26502e-07
2.06458e-07
1.88388e-07
1.72077e-07
1.57337e-07
1.32891e-06
1.18839e-06
1.06394e-06
9.53626e-07
8.55749e-07
7.68826e-07
6.91553e-07
6.22789e-07
5.61534e-07
5.0691e-07
4.58144e-07
4.14562e-07
3.75566e-07
3.40636e-07
3.09309e-07
2.81183e-07
2.55899e-07
2.33144e-07
2.1264e-07
1.94143e-07
1.77435e-07
1.62326e-07
1.35387e-06
1.21159e-06
1.0855e-06
9.73676e-07
8.74397e-07
7.86173e-07
7.07693e-07
6.37809e-07
5.75514e-07
5.19924e-07
4.70261e-07
4.25844e-07
3.86074e-07
3.50422e-07
3.18426e-07
2.89677e-07
2.63813e-07
2.40519e-07
2.19513e-07
2.00548e-07
1.83406e-07
1.67892e-07
1.35388e-06
1.21159e-06
1.08551e-06
9.7368e-07
8.74401e-07
7.86177e-07
7.07697e-07
6.37813e-07
5.75518e-07
5.19927e-07
4.70264e-07
4.25847e-07
3.86076e-07
3.50425e-07
3.18429e-07
2.89679e-07
2.63816e-07
2.40522e-07
2.19516e-07
2.00551e-07
1.83408e-07
1.67894e-07
1.32892e-06
1.1884e-06
1.06395e-06
9.53637e-07
8.55761e-07
7.68837e-07
6.91564e-07
6.228e-07
5.61544e-07
5.06919e-07
4.58153e-07
4.1457e-07
3.75574e-07
3.40643e-07
3.09317e-07
2.81191e-07
2.55907e-07
2.33152e-07
2.12647e-07
1.94149e-07
1.77441e-07
1.62331e-07
1.30552e-06
1.16673e-06
1.04388e-06
9.35035e-07
8.38514e-07
7.5284e-07
6.76721e-07
6.09023e-07
5.48753e-07
4.95039e-07
4.47117e-07
4.04314e-07
3.66041e-07
3.3178e-07
3.01075e-07
2.73524e-07
2.48773e-07
2.26513e-07
2.06468e-07
1.88397e-07
1.72085e-07
1.57344e-07
1.28386e-06
1.14675e-06
1.02543e-06
9.17988e-07
8.22756e-07
7.38265e-07
6.63233e-07
5.96536e-07
5.37186e-07
4.8432e-07
4.37179e-07
3.95098e-07
3.5749e-07
3.23843e-07
2.93705e-07
2.66679e-07
2.42414e-07
2.20603e-07
2.00974e-07
1.83289e-07
1.67334e-07
1.52925e-07
1.26384e-06
1.12835e-06
1.00851e-06
9.02418e-07
8.08414e-07
7.25046e-07
6.51041e-07
5.85283e-07
5.26794e-07
4.74717e-07
4.283e-07
3.86883e-07
3.49886e-07
3.16801e-07
2.87181e-07
2.60631e-07
2.36806e-07
2.15401e-07
1.96147e-07
1.78808e-07
1.63174e-07
1.49061e-07
1.2462e-06
1.11217e-06
9.93651e-07
8.88762e-07
7.95854e-07
7.13485e-07
6.40391e-07
5.75465e-07
5.17737e-07
4.66357e-07
4.20578e-07
3.79746e-07
3.43287e-07
3.10697e-07
2.8153e-07
2.55399e-07
2.31958e-07
2.10908e-07
1.91981e-07
1.74944e-07
1.59588e-07
1.45732e-07
1.23047e-06
1.09779e-06
9.8049e-07
8.76706e-07
7.84801e-07
7.03342e-07
6.31074e-07
5.669e-07
5.09857e-07
4.59102e-07
4.13893e-07
3.73583e-07
3.37601e-07
3.05447e-07
2.76682e-07
2.50917e-07
2.27815e-07
2.07074e-07
1.88432e-07
1.71657e-07
1.56542e-07
1.42909e-07
1.21681e-06
1.08534e-06
9.69127e-07
8.66326e-07
7.75308e-07
6.94652e-07
6.23112e-07
5.59598e-07
5.03155e-07
4.52944e-07
4.08232e-07
3.68373e-07
3.32804e-07
3.01026e-07
2.72604e-07
2.47155e-07
2.24341e-07
2.03865e-07
1.85465e-07
1.68912e-07
1.54004e-07
1.40558e-07
1.2052e-06
1.07478e-06
9.59522e-07
8.57574e-07
7.67326e-07
6.87363e-07
6.1645e-07
5.53503e-07
4.97572e-07
4.47827e-07
4.03536e-07
3.64061e-07
3.2884e-07
2.9738e-07
2.69248e-07
2.44064e-07
2.21491e-07
2.01236e-07
1.83039e-07
1.66672e-07
1.51933e-07
1.38644e-07
1.19559e-06
1.06606e-06
9.51605e-07
8.50379e-07
7.6078e-07
6.81401e-07
6.11014e-07
5.48541e-07
4.93039e-07
4.43679e-07
3.99739e-07
3.60582e-07
3.25649e-07
2.94451e-07
2.66557e-07
2.41588e-07
2.19213e-07
1.99138e-07
1.81106e-07
1.6489e-07
1.50288e-07
1.37125e-07
1.18786e-06
1.05907e-06
9.45277e-07
8.44643e-07
7.55574e-07
6.76672e-07
6.06713e-07
5.44625e-07
4.89469e-07
4.40422e-07
3.96764e-07
3.57861e-07
3.23158e-07
2.92169e-07
2.64463e-07
2.39667e-07
2.17448e-07
1.97515e-07
1.79613e-07
1.63513e-07
1.49021e-07
1.35956e-07
1.18203e-06
1.05381e-06
9.40515e-07
8.40331e-07
7.51665e-07
6.73124e-07
6.03489e-07
5.41693e-07
4.868e-07
4.37989e-07
3.94544e-07
3.55833e-07
3.21303e-07
2.9047e-07
2.62907e-07
2.38239e-07
2.16136e-07
1.96311e-07
1.78504e-07
1.62495e-07
1.48081e-07
1.35091e-07
1.17745e-06
1.0497e-06
9.36822e-07
8.37007e-07
7.4867e-07
6.70421e-07
6.01047e-07
5.39484e-07
4.848e-07
4.36177e-07
3.929e-07
3.5434e-07
3.19946e-07
2.89235e-07
2.61781e-07
2.37211e-07
2.15198e-07
1.95451e-07
1.77718e-07
1.61775e-07
1.47421e-07
1.34487e-07
1.17473e-06
1.04725e-06
9.34618e-07
8.35018e-07
7.46872e-07
6.68793e-07
5.99571e-07
5.38144e-07
4.83581e-07
4.35069e-07
3.91891e-07
3.53422e-07
3.1911e-07
2.88472e-07
2.61085e-07
2.36575e-07
2.14616e-07
1.94918e-07
1.77229e-07
1.61324e-07
1.47007e-07
1.34103e-07
1.17447e-06
1.04701e-06
9.34389e-07
8.34804e-07
7.46671e-07
6.68606e-07
5.99395e-07
5.37978e-07
4.83424e-07
4.3492e-07
3.91751e-07
3.53289e-07
3.18986e-07
2.88357e-07
2.60978e-07
2.36477e-07
2.14524e-07
1.94833e-07
1.77148e-07
1.61248e-07
1.46934e-07
1.34033e-07
1.17412e-06
1.04666e-06
9.34046e-07
8.34475e-07
7.46358e-07
6.68311e-07
5.9912e-07
5.37723e-07
4.83189e-07
4.34704e-07
3.91552e-07
3.53106e-07
3.18817e-07
2.88202e-07
2.60835e-07
2.36345e-07
2.14403e-07
1.94721e-07
1.77046e-07
1.61154e-07
1.46847e-07
1.33954e-07
1.17441e-06
1.04693e-06
9.34302e-07
8.34714e-07
7.46583e-07
6.68522e-07
5.99318e-07
5.37909e-07
4.83364e-07
4.34869e-07
3.91707e-07
3.53252e-07
3.18954e-07
2.8833e-07
2.60954e-07
2.36456e-07
2.14506e-07
1.94818e-07
1.77136e-07
1.61238e-07
1.46927e-07
1.34029e-07
1.17716e-06
1.0494e-06
9.36532e-07
8.36728e-07
7.48404e-07
6.70171e-07
6.00814e-07
5.39267e-07
4.84598e-07
4.35991e-07
3.92728e-07
3.54182e-07
3.19801e-07
2.89102e-07
2.61659e-07
2.371e-07
2.15096e-07
1.95358e-07
1.77633e-07
1.61695e-07
1.47348e-07
1.34417e-07
1.18176e-06
1.05353e-06
9.40247e-07
8.40073e-07
7.51419e-07
6.72892e-07
6.03272e-07
5.4149e-07
4.8661e-07
4.37814e-07
3.94381e-07
3.55682e-07
3.21165e-07
2.90342e-07
2.62789e-07
2.3813e-07
2.16037e-07
1.96219e-07
1.7842e-07
1.62418e-07
1.48011e-07
1.35027e-07
1.1876e-06
1.05882e-06
9.45027e-07
8.44402e-07
7.55345e-07
6.76455e-07
6.06509e-07
5.44434e-07
4.89291e-07
4.40258e-07
3.96611e-07
3.57719e-07
3.23026e-07
2.92047e-07
2.6435e-07
2.39563e-07
2.17351e-07
1.97426e-07
1.79531e-07
1.63439e-07
1.48953e-07
1.35894e-07
1.19535e-06
1.06582e-06
9.5137e-07
8.50153e-07
7.60564e-07
6.81198e-07
6.10824e-07
5.48363e-07
4.92874e-07
4.43527e-07
3.99598e-07
3.60451e-07
3.25529e-07
2.94339e-07
2.66455e-07
2.41493e-07
2.19127e-07
1.99058e-07
1.81033e-07
1.64821e-07
1.50226e-07
1.37069e-07
1.20498e-06
1.07456e-06
9.59302e-07
8.57362e-07
7.67124e-07
6.87173e-07
6.16272e-07
5.53337e-07
4.97419e-07
4.47685e-07
4.03406e-07
3.63941e-07
3.28731e-07
2.9728e-07
2.69157e-07
2.4398e-07
2.21414e-07
2.01166e-07
1.82974e-07
1.66613e-07
1.51877e-07
1.38593e-07
1.2166e-06
1.08513e-06
9.68921e-07
8.66127e-07
7.75118e-07
6.94473e-07
6.22945e-07
5.59443e-07
5.03011e-07
4.52812e-07
4.0811e-07
3.68262e-07
3.32702e-07
3.00934e-07
2.7252e-07
2.47078e-07
2.2427e-07
2.038e-07
1.85406e-07
1.68858e-07
1.53954e-07
1.40511e-07
1.23027e-06
1.09759e-06
9.80296e-07
8.76518e-07
7.84622e-07
7.03172e-07
6.30916e-07
5.66753e-07
5.09721e-07
4.58976e-07
4.13779e-07
3.73478e-07
3.37506e-07
3.0536e-07
2.76603e-07
2.50844e-07
2.27749e-07
2.07013e-07
1.88377e-07
1.71606e-07
1.56496e-07
1.42867e-07
1.24602e-06
1.11198e-06
9.93468e-07
8.88585e-07
7.95685e-07
7.13325e-07
6.40241e-07
5.75325e-07
5.17607e-07
4.66237e-07
4.20468e-07
3.79646e-07
3.43195e-07
3.10614e-07
2.81454e-07
2.55331e-07
2.31896e-07
2.10853e-07
1.9193e-07
1.74898e-07
1.59546e-07
1.45694e-07
1.26367e-06
1.12818e-06
1.00834e-06
9.02251e-07
8.08255e-07
7.24895e-07
6.50899e-07
5.8515e-07
5.2667e-07
4.74602e-07
4.28194e-07
3.86785e-07
3.49798e-07
3.16721e-07
2.87108e-07
2.60565e-07
2.36748e-07
2.15348e-07
1.96101e-07
1.78766e-07
1.63137e-07
1.49027e-07
1.2837e-06
1.14658e-06
1.02527e-06
9.17832e-07
8.22606e-07
7.38123e-07
6.631e-07
5.96411e-07
5.3707e-07
4.84213e-07
4.3708e-07
3.95006e-07
3.57406e-07
3.23766e-07
2.93635e-07
2.66616e-07
2.42357e-07
2.20552e-07
2.00929e-07
1.83249e-07
1.67299e-07
1.52894e-07
1.30536e-06
1.16658e-06
1.04373e-06
9.34888e-07
8.38373e-07
7.52708e-07
6.76597e-07
6.08907e-07
5.48645e-07
4.9494e-07
4.47025e-07
4.0423e-07
3.65964e-07
3.31709e-07
3.0101e-07
2.73464e-07
2.4872e-07
2.26465e-07
2.06425e-07
1.88358e-07
1.72051e-07
1.57314e-07
1.32878e-06
1.18826e-06
1.06381e-06
9.53501e-07
8.5563e-07
7.68713e-07
6.91448e-07
6.22692e-07
5.61444e-07
5.06827e-07
4.58068e-07
4.14492e-07
3.75504e-07
3.40579e-07
3.09259e-07
2.81137e-07
2.55858e-07
2.33108e-07
2.12608e-07
1.94113e-07
1.77409e-07
1.62303e-07
1.35374e-06
1.21146e-06
1.08538e-06
9.73554e-07
8.7428e-07
7.86062e-07
7.07588e-07
6.37712e-07
5.75424e-07
5.1984e-07
4.70185e-07
4.25775e-07
3.86011e-07
3.50366e-07
3.18376e-07
2.89632e-07
2.63773e-07
2.40483e-07
2.1948e-07
2.00519e-07
1.83379e-07
1.67868e-07
1.35375e-06
1.21146e-06
1.08538e-06
9.73559e-07
8.74285e-07
7.86067e-07
7.07593e-07
6.37716e-07
5.75428e-07
5.19845e-07
4.70189e-07
4.25779e-07
3.86015e-07
3.5037e-07
3.18379e-07
2.89635e-07
2.63776e-07
2.40485e-07
2.19483e-07
2.00521e-07
1.83381e-07
1.67869e-07
1.32879e-06
1.18827e-06
1.06383e-06
9.53517e-07
8.55646e-07
7.68729e-07
6.91462e-07
6.22706e-07
5.61457e-07
5.06839e-07
4.5808e-07
4.14503e-07
3.75514e-07
3.40589e-07
3.09268e-07
2.81146e-07
2.55866e-07
2.33115e-07
2.12614e-07
1.94119e-07
1.77414e-07
1.62308e-07
1.30539e-06
1.16661e-06
1.04376e-06
9.34917e-07
8.38402e-07
7.52734e-07
6.76622e-07
6.08931e-07
5.48668e-07
4.94961e-07
4.47045e-07
4.04248e-07
3.65981e-07
3.31725e-07
3.01024e-07
2.73478e-07
2.48732e-07
2.26476e-07
2.06435e-07
1.88367e-07
1.72059e-07
1.57321e-07
1.28374e-06
1.14663e-06
1.02531e-06
9.17874e-07
8.22647e-07
7.38163e-07
6.63137e-07
5.96446e-07
5.37103e-07
4.84243e-07
4.37108e-07
3.95032e-07
3.5743e-07
3.23788e-07
2.93655e-07
2.66633e-07
2.42373e-07
2.20567e-07
2.00942e-07
1.8326e-07
1.67309e-07
1.52903e-07
1.26373e-06
1.12824e-06
1.0084e-06
9.02307e-07
8.08308e-07
7.24946e-07
6.50947e-07
5.85195e-07
5.26712e-07
4.7464e-07
4.28229e-07
3.86818e-07
3.49827e-07
3.16747e-07
2.87132e-07
2.60587e-07
2.36767e-07
2.15366e-07
1.96116e-07
1.7878e-07
1.63149e-07
1.49039e-07
1.24609e-06
1.11205e-06
9.93538e-07
8.88653e-07
7.9575e-07
7.13387e-07
6.40299e-07
5.75379e-07
5.17658e-07
4.66283e-07
4.2051e-07
3.79684e-07
3.4323e-07
3.10645e-07
2.81483e-07
2.55356e-07
2.3192e-07
2.10873e-07
1.9195e-07
1.74915e-07
1.59562e-07
1.45709e-07
1.23035e-06
1.09767e-06
9.80376e-07
8.76596e-07
7.84697e-07
7.03244e-07
6.30983e-07
5.66816e-07
5.0978e-07
4.5903e-07
4.13828e-07
3.73523e-07
3.37546e-07
3.05397e-07
2.76635e-07
2.50875e-07
2.27776e-07
2.07039e-07
1.884e-07
1.71627e-07
1.56516e-07
1.42885e-07
1.21669e-06
1.08522e-06
9.69009e-07
8.66213e-07
7.75201e-07
6.94552e-07
6.2302e-07
5.59513e-07
5.03077e-07
4.52873e-07
4.08167e-07
3.68314e-07
3.32749e-07
3.00976e-07
2.72559e-07
2.47113e-07
2.24303e-07
2.0383e-07
1.85434e-07
1.68883e-07
1.53977e-07
1.40533e-07
1.20508e-06
1.07466e-06
9.59397e-07
8.57455e-07
7.67214e-07
6.87259e-07
6.16354e-07
5.53414e-07
4.97491e-07
4.47753e-07
4.03469e-07
3.64001e-07
3.28785e-07
2.9733e-07
2.69203e-07
2.44022e-07
2.21452e-07
2.01201e-07
1.83006e-07
1.66642e-07
1.51905e-07
1.38618e-07
1.19545e-06
1.06593e-06
9.51473e-07
8.50253e-07
7.60661e-07
6.81291e-07
6.10912e-07
5.48447e-07
4.92953e-07
4.43601e-07
3.99669e-07
3.60518e-07
3.25591e-07
2.94398e-07
2.66508e-07
2.41544e-07
2.19172e-07
1.99101e-07
1.81071e-07
1.64857e-07
1.50257e-07
1.37097e-07
1.18771e-06
1.05893e-06
9.4514e-07
8.44512e-07
7.5545e-07
6.76556e-07
6.06604e-07
5.44524e-07
4.89377e-07
4.40338e-07
3.96687e-07
3.57791e-07
3.23095e-07
2.92111e-07
2.64411e-07
2.39619e-07
2.17404e-07
1.97475e-07
1.79575e-07
1.63479e-07
1.48988e-07
1.35926e-07
1.18188e-06
1.05366e-06
9.40372e-07
8.40195e-07
7.51537e-07
6.73004e-07
6.03377e-07
5.41588e-07
4.86703e-07
4.379e-07
3.94462e-07
3.55758e-07
3.21236e-07
2.90409e-07
2.62852e-07
2.38189e-07
2.16091e-07
1.96269e-07
1.78466e-07
1.62459e-07
1.48049e-07
1.3506e-07
1.17729e-06
1.04954e-06
9.36668e-07
8.36861e-07
7.48533e-07
6.70294e-07
6.0093e-07
5.39376e-07
4.84699e-07
4.36084e-07
3.92814e-07
3.54261e-07
3.19874e-07
2.8917e-07
2.61722e-07
2.37158e-07
2.15149e-07
1.95408e-07
1.77678e-07
1.61737e-07
1.47386e-07
1.34453e-07
1.17455e-06
1.04707e-06
9.34444e-07
8.34854e-07
7.46718e-07
6.68652e-07
5.99442e-07
5.38026e-07
4.83474e-07
4.3497e-07
3.918e-07
3.53338e-07
3.19032e-07
2.884e-07
2.61019e-07
2.36514e-07
2.1456e-07
1.94867e-07
1.77182e-07
1.61282e-07
1.46968e-07
1.34068e-07
1.17426e-06
1.0468e-06
9.34191e-07
8.34617e-07
7.46496e-07
6.68444e-07
5.99247e-07
5.37844e-07
4.83303e-07
4.34811e-07
3.91651e-07
3.53198e-07
3.18901e-07
2.88278e-07
2.60904e-07
2.36407e-07
2.1446e-07
1.94774e-07
1.77095e-07
1.612e-07
1.46891e-07
1.33996e-07
1.17086e-06
1.17101e-06
1.17357e-06
1.17781e-06
1.18304e-06
1.18984e-06
1.19819e-06
1.20809e-06
1.21945e-06
1.2322e-06
1.24613e-06
1.26172e-06
1.27815e-06
1.29543e-06
1.31338e-06
1.24176e-06
1.21863e-06
1.19664e-06
1.17594e-06
1.15664e-06
1.13854e-06
1.12249e-06
1.10786e-06
1.09486e-06
1.0835e-06
1.07376e-06
1.0656e-06
1.05893e-06
1.05377e-06
1.0497e-06
1.03784e-06
1.03796e-06
1.04023e-06
1.04399e-06
1.04866e-06
1.05475e-06
1.06226e-06
1.07122e-06
1.08155e-06
1.09319e-06
1.106e-06
1.12039e-06
1.13566e-06
1.15185e-06
1.16878e-06
1.10768e-06
1.08654e-06
1.06649e-06
1.04766e-06
1.03014e-06
1.01376e-06
9.99247e-07
9.86052e-07
9.74356e-07
9.64147e-07
9.55407e-07
9.48089e-07
9.42122e-07
9.37501e-07
9.33851e-07
9.20803e-07
9.20918e-07
9.2293e-07
9.2627e-07
9.30442e-07
9.35904e-07
9.42668e-07
9.50783e-07
9.60194e-07
9.70837e-07
9.82614e-07
9.95899e-07
1.01011e-06
1.02526e-06
1.04122e-06
9.89211e-07
9.69869e-07
9.51566e-07
9.34411e-07
9.18492e-07
9.03662e-07
8.90515e-07
8.78598e-07
8.68055e-07
8.58868e-07
8.51015e-07
8.44449e-07
8.391e-07
8.34957e-07
8.31692e-07
8.17774e-07
8.17875e-07
8.19667e-07
8.22638e-07
8.26376e-07
8.31279e-07
8.37373e-07
8.4473e-07
8.53315e-07
8.63066e-07
8.73901e-07
8.8617e-07
8.99398e-07
9.13582e-07
9.28618e-07
8.84448e-07
8.6673e-07
8.50004e-07
8.34359e-07
8.19874e-07
8.06422e-07
7.94503e-07
7.83725e-07
7.74207e-07
7.6593e-07
7.58865e-07
7.52966e-07
7.48165e-07
7.44447e-07
7.4152e-07
7.27009e-07
7.27101e-07
7.28698e-07
7.31344e-07
7.34701e-07
7.3911e-07
7.44605e-07
7.51276e-07
7.59118e-07
7.68065e-07
7.78046e-07
7.89378e-07
8.01689e-07
8.1497e-07
8.29122e-07
7.91719e-07
7.75467e-07
7.60167e-07
7.45885e-07
7.32686e-07
7.20468e-07
7.09649e-07
6.99887e-07
6.91286e-07
6.83819e-07
6.77454e-07
6.72146e-07
6.67832e-07
6.64491e-07
6.61864e-07
6.46992e-07
6.47076e-07
6.48502e-07
6.50862e-07
6.53881e-07
6.57854e-07
6.62816e-07
6.68867e-07
6.76033e-07
6.84257e-07
6.93461e-07
7.03931e-07
7.15386e-07
7.27821e-07
7.41132e-07
7.0956e-07
6.94639e-07
6.80627e-07
6.67576e-07
6.55535e-07
6.44424e-07
6.34589e-07
6.25738e-07
6.17955e-07
6.11208e-07
6.05466e-07
6.00686e-07
5.96805e-07
5.93798e-07
5.91438e-07
5.76397e-07
5.76475e-07
5.77749e-07
5.79858e-07
5.82577e-07
5.86165e-07
5.90654e-07
5.96144e-07
6.02692e-07
6.10259e-07
6.18761e-07
6.2844e-07
6.39094e-07
6.50733e-07
6.63253e-07
6.36699e-07
6.22984e-07
6.10136e-07
5.98197e-07
5.87203e-07
5.77083e-07
5.68133e-07
5.60099e-07
5.53045e-07
5.46942e-07
5.41756e-07
5.37444e-07
5.33949e-07
5.3124e-07
5.29117e-07
5.14066e-07
5.14138e-07
5.15279e-07
5.17165e-07
5.19618e-07
5.22863e-07
5.26933e-07
5.31921e-07
5.37902e-07
5.44868e-07
5.52733e-07
5.61688e-07
5.71593e-07
5.82482e-07
5.94255e-07
5.72019e-07
5.59397e-07
5.47603e-07
5.36671e-07
5.26623e-07
5.17395e-07
5.09239e-07
5.01937e-07
4.95537e-07
4.9001e-07
4.8532e-07
4.81425e-07
4.78273e-07
4.75829e-07
4.73918e-07
4.58986e-07
4.59055e-07
4.60077e-07
4.61766e-07
4.63981e-07
4.66921e-07
4.70619e-07
4.75156e-07
4.8062e-07
4.87033e-07
4.94315e-07
5.02612e-07
5.11819e-07
5.21998e-07
5.33064e-07
5.14541e-07
5.02914e-07
4.92075e-07
4.82053e-07
4.7286e-07
4.64437e-07
4.56996e-07
4.50351e-07
4.44537e-07
4.39526e-07
4.35279e-07
4.31757e-07
4.2891e-07
4.26702e-07
4.2498e-07
4.10273e-07
4.10338e-07
4.11256e-07
4.1277e-07
4.14773e-07
4.1744e-07
4.20806e-07
4.24942e-07
4.29935e-07
4.35835e-07
4.42584e-07
4.50281e-07
4.5884e-07
4.68348e-07
4.78744e-07
4.63408e-07
4.52691e-07
4.42717e-07
4.33517e-07
4.25099e-07
4.17404e-07
4.10606e-07
4.04552e-07
3.99264e-07
3.94715e-07
3.90865e-07
3.87676e-07
3.85102e-07
3.83104e-07
3.81551e-07
3.67154e-07
3.67215e-07
3.68041e-07
3.694e-07
3.71213e-07
3.73635e-07
3.76704e-07
3.80482e-07
3.85049e-07
3.90473e-07
3.96727e-07
4.03877e-07
4.11841e-07
4.20713e-07
4.3047e-07
4.17867e-07
4.07984e-07
3.98797e-07
3.90342e-07
3.82624e-07
3.75589e-07
3.69372e-07
3.6385e-07
3.59035e-07
3.54899e-07
3.51405e-07
3.48514e-07
3.46183e-07
3.44374e-07
3.42972e-07
3.28951e-07
3.29008e-07
3.29753e-07
3.30974e-07
3.32617e-07
3.34819e-07
3.3762e-07
3.41079e-07
3.45263e-07
3.50247e-07
3.56038e-07
3.62685e-07
3.70104e-07
3.78381e-07
3.87526e-07
3.77259e-07
3.68142e-07
3.59674e-07
3.51895e-07
3.44811e-07
3.38373e-07
3.32683e-07
3.27639e-07
3.23249e-07
3.19485e-07
3.1631e-07
3.13687e-07
3.11573e-07
3.09933e-07
3.08666e-07
2.95073e-07
2.95125e-07
2.95797e-07
2.96897e-07
2.98387e-07
3.00391e-07
3.02951e-07
3.06121e-07
3.09962e-07
3.14545e-07
3.19901e-07
3.26081e-07
3.32999e-07
3.40724e-07
3.49286e-07
3.41008e-07
3.32593e-07
3.24786e-07
3.17622e-07
3.11113e-07
3.05213e-07
3.00001e-07
2.95389e-07
2.91382e-07
2.87952e-07
2.85063e-07
2.8268e-07
2.80762e-07
2.79274e-07
2.78126e-07
2.65001e-07
2.65049e-07
2.65655e-07
2.66647e-07
2.68e-07
2.69825e-07
2.72166e-07
2.75076e-07
2.78609e-07
2.82827e-07
2.87777e-07
2.93519e-07
2.99976e-07
3.07189e-07
3.15199e-07
3.08608e-07
3.00838e-07
2.93637e-07
2.87036e-07
2.81047e-07
2.75635e-07
2.70856e-07
2.66635e-07
2.62973e-07
2.59843e-07
2.57213e-07
2.55046e-07
2.53303e-07
2.5195e-07
2.50911e-07
2.38281e-07
2.38324e-07
2.38872e-07
2.39768e-07
2.40998e-07
2.42662e-07
2.44804e-07
2.47478e-07
2.50731e-07
2.54621e-07
2.59194e-07
2.64523e-07
2.70549e-07
2.77292e-07
2.84784e-07
2.79619e-07
2.72437e-07
2.65793e-07
2.59708e-07
2.54194e-07
2.49223e-07
2.44836e-07
2.40969e-07
2.3762e-07
2.34761e-07
2.32362e-07
2.30389e-07
2.28804e-07
2.27574e-07
2.26631e-07
2.14514e-07
2.14554e-07
2.15049e-07
2.15858e-07
2.1698e-07
2.18497e-07
2.20459e-07
2.22916e-07
2.25917e-07
2.29508e-07
2.33737e-07
2.38677e-07
2.44298e-07
2.50605e-07
2.57616e-07
2.53653e-07
2.47007e-07
2.40873e-07
2.35263e-07
2.30183e-07