/*--------------------------------*- C++ -*----------------------------------*\
| =========                 |                                                 |
| \\      /  F ield         | OpenFOAM Extend Project: Open source CFD        |
|  \\    /   O peration     | Version:  1.6-ext                               |
|   \\  /    A nd           | Web:      www.extend-project.de                 |
|    \\/     M anipulation  |                                                 |
\*---------------------------------------------------------------------------*/
FoamFile
{
    version     2.0;
    format      ascii;
    class       surfaceScalarField;
    location    "4.8";
    object      phi;
}
// * * * * * * * * * * * * * * * * * * * * * * * * * * * * * * * * * * * * * //

dimensions      [0 3 -1 0 0 0 0];

internalField   nonuniform List<scalar> 
123
(
0.000202632
1.13314e-05
0.000210258
3.46068e-05
0.000222118
6.12244e-05
0.00023759
9.30331e-05
0.000256727
0.000131614
0.000281464
0.000177814
0.000318645
0.000234553
0.000382971
0.000291663
0.000361009
0.00040315
0.000203913
7.41848e-06
0.000214619
2.39008e-05
0.000230936
4.49069e-05
0.000252618
7.13511e-05
0.000281026
0.000103206
0.000319602
0.000139239
0.00037209
0.000182065
0.000453242
0.000210511
0.000281532
0.000532719
0.000205977
1.44127e-06
0.000220214
9.66416e-06
0.000240129
2.49921e-05
0.000265165
4.63149e-05
0.00029647
7.19015e-05
0.000336659
9.90494e-05
0.000387864
0.00013086
0.000454084
0.000144291
0.000187924
0.000547692
0.000209409
-7.9678e-06
0.00022732
-8.24711e-06
0.000248877
3.43588e-06
0.000273933
2.12583e-05
0.000303803
4.20315e-05
0.000340527
6.23261e-05
0.000386883
8.45033e-05
0.000439177
9.1997e-05
0.000111941
0.00051516
0.000214487
-2.24547e-05
0.00023231
-2.60699e-05
0.000250103
-1.43576e-05
0.000269984
1.37732e-06
0.000294218
1.77978e-05
0.000324598
3.19463e-05
0.000363665
4.54356e-05
0.000405665
4.99972e-05
5.70609e-05
0.000460545
0.000211666
-3.41212e-05
0.000216796
-3.1199e-05
0.000220593
-1.81554e-05
0.000228124
-6.15379e-06
0.000242476
3.44585e-06
0.000264158
1.02645e-05
0.00029387
1.57242e-05
0.000326537
1.73304e-05
1.87541e-05
0.000364843
0.000165879
0.00013468
0.000116524
0.000110371
0.000113816
0.000124081
0.000139805
0.000157136
0.00017589
0.000156892
0.000180774
0.000145136
9.47329e-05
4.89071e-05
1.50583e-05
)
;

boundaryField
{
    inlet
    {
        type            calculated;
        value           nonuniform List<scalar> 7(-0.0002 -0.0002 -0.0002 -0.0002 -0.0002 -0.0002 -0.0002);
    }
    outlet
    {
        type            calculated;
        value           nonuniform 0();
    }
    fixedWalls
    {
        type            calculated;
        value           uniform 0;
    }
    frontAndBack
    {
        type            empty;
    }
    procBoundary2to3
    {
        type            processor;
        value           nonuniform List<scalar> 9(-1.39635e-05 -4.22324e-05 -7.30841e-05 -0.000108506 -0.000150751 -0.000202552 -0.000271734 -0.000355989 -0.000381188);
    }
    procBoundary2to1
    {
        type            processor;
        value           nonuniform List<scalar> 7(0.000246258 0.000508837 0.000583331 0.000565563 0.000506371 0.000398692 0.000190948);
    }
}


// ************************************************************************* //
