/*--------------------------------*- C++ -*----------------------------------*\
| =========                 |                                                 |
| \\      /  F ield         | OpenFOAM Extend Project: Open source CFD        |
|  \\    /   O peration     | Version:  1.6-ext                               |
|   \\  /    A nd           | Web:      www.extend-project.de                 |
|    \\/     M anipulation  |                                                 |
\*---------------------------------------------------------------------------*/
FoamFile
{
    version     2.0;
    format      ascii;
    class       volScalarField;
    location    "2.6";
    object      p;
}
// * * * * * * * * * * * * * * * * * * * * * * * * * * * * * * * * * * * * * //

dimensions      [0 2 -2 0 0 0 0];

internalField   nonuniform List<scalar> 
284
(
0.262322
0.230858
0.219403
0.214458
0.212609
0.212637
0.213546
0.214815
0.216933
0.233099
0.224223
0.218866
0.216356
0.215456
0.215589
0.216227
0.217086
0.219372
0.221173
0.217771
0.215201
0.214053
0.214095
0.214917
0.215969
0.21698
0.22002
0.211737
0.210673
0.209629
0.209427
0.210159
0.211512
0.212943
0.214116
0.217811
0.203972
0.203668
0.203264
0.203324
0.204041
0.205219
0.206316
0.206912
0.210586
0.196929
0.196812
0.196479
0.19621
0.196155
0.196163
0.19566
0.194008
0.195487
0.19025
0.190104
0.1895
0.188477
0.186999
0.18474
0.180783
0.173408
0.167461
0.183964
0.183696
0.18261
0.18054
0.177163
0.171797
0.16279
0.147805
0.102791
0.178318
0.177881
0.176186
0.172885
0.167195
0.157404
0.137692
0.0989268
0.00463357
0.173677
0.17302
0.170658
0.166253
0.158984
0.147265
0.126834
0.0944976
0.0406099
0.170506
0.169431
0.166252
0.160903
0.152941
0.141404
0.124356
0.0998891
0.0666657
0.169294
0.167346
0.162925
0.156548
0.148161
0.137192
0.122791
0.103181
0.079698
0.17168
0.167157
0.160635
0.152989
0.144177
0.133754
0.121229
0.105094
0.0867665
0.17788
0.168071
0.158904
0.150163
0.141275
0.131504
0.120286
0.106426
0.0906294
0.20613
0.174224
0.159515
0.149766
0.141176
0.132257
0.122007
0.109192
0.0940861
-0.129233
-0.0954166
-0.0294431
-0.0513522
0.0169327
-0.0129476
0.0467285
0.020958
0.0640402
0.0426731
0.072298
0.0536088
0.0764904
0.0576376
-0.083704
-0.0753579
-0.0699872
-0.0620753
-0.0500149
-0.0351883
-0.020995
-0.0093369
-0.00269899
-0.0577649
-0.057923
-0.0554579
-0.0493841
-0.0393885
-0.0272589
-0.0161102
-0.00716058
-0.00296903
-0.0265537
-0.0318106
-0.0328398
-0.0302237
-0.0244375
-0.0169976
-0.0102442
-0.00477031
-0.00303428
0.00480425
-0.00504095
-0.0104486
-0.0121078
-0.0109497
-0.00823818
-0.00554377
-0.00306881
-0.00301459
0.0257859
0.0135206
0.00528544
0.000383435
-0.00201973
-0.00279347
-0.00285497
-0.00228186
-0.00290481
0.0369906
0.0235255
0.0134043
0.0063366
0.00175351
-0.00092345
-0.00223528
-0.00238866
-0.0027818
0.0398099
0.0246639
0.0128309
0.00436177
-0.00106428
-0.0039633
-0.00493226
-0.0044728
-0.00357895
-0.0325969
-0.0330561
-0.0308073
-0.026658
-0.0210424
-0.0146831
-0.00842324
-0.00379954
0.00301837
-0.0322669
-0.0329673
-0.0311513
-0.0276004
-0.0224768
-0.0163378
-0.00999536
-0.00494769
0.00221293
-0.0344993
-0.0354188
-0.0337565
-0.0302276
-0.0247858
-0.0181047
-0.0110601
-0.00526188
0.00219234
-0.0390318
-0.0400317
-0.0384282
-0.0346266
-0.0286497
-0.0208621
-0.0127701
-0.00582355
0.00207641
-0.0461823
-0.0468464
-0.0453301
-0.0412999
-0.0344408
-0.024962
-0.0153041
-0.00681249
0.00156451
-0.0561333
-0.0554677
-0.0541512
-0.0498674
-0.0416099
-0.0303176
-0.0185234
-0.00818342
0.000558696
-0.0680961
-0.064074
-0.0626438
-0.0580123
-0.0485128
-0.0353068
-0.0215084
-0.00953184
-0.000744579
-0.0906954
-0.0735579
-0.0707307
-0.0638243
-0.0524727
-0.0376843
-0.0227796
-0.0101528
-0.00192482
)
;

boundaryField
{
    inlet
    {
        type            zeroGradient;
    }
    outlet
    {
        type            totalPressure;
        rho             none;
        psi             none;
        gamma           1;
        p0              uniform 0;
        value           uniform 0;
    }
    fixedWalls
    {
        type            zeroGradient;
    }
    frontAndBack
    {
        type            empty;
    }
}


// ************************************************************************* //
