/*--------------------------------*- C++ -*----------------------------------*\
| =========                 |                                                 |
| \\      /  F ield         | OpenFOAM Extend Project: Open source CFD        |
|  \\    /   O peration     | Version:  1.6-ext                               |
|   \\  /    A nd           | Web:      www.extend-project.de                 |
|    \\/     M anipulation  |                                                 |
\*---------------------------------------------------------------------------*/
FoamFile
{
    version     2.0;
    format      ascii;
    class       surfaceScalarField;
    location    "2.6";
    object      phi;
}
// * * * * * * * * * * * * * * * * * * * * * * * * * * * * * * * * * * * * * //

dimensions      [0 3 -1 0 0 0 0];

internalField   nonuniform List<scalar> 
525
(
0.000160854
3.91458e-05
0.000117198
4.36563e-05
8.17703e-05
3.54275e-05
5.49234e-05
2.68469e-05
3.51555e-05
1.97679e-05
2.02889e-05
1.48666e-05
8.83452e-06
1.14544e-05
1.23117e-06
7.60336e-06
1.23117e-06
0.000205017
3.4129e-05
0.00019061
5.8063e-05
0.000162982
6.30559e-05
0.000129978
5.98507e-05
9.61655e-05
5.35803e-05
6.39778e-05
4.70543e-05
3.47424e-05
4.06897e-05
1.11144e-05
3.12314e-05
1.23456e-05
0.000208722
2.54073e-05
0.000208399
5.83855e-05
0.000194842
7.66133e-05
0.000169618
8.50746e-05
0.000136079
8.71196e-05
9.76907e-05
8.54425e-05
5.76105e-05
8.07699e-05
2.09069e-05
6.79349e-05
3.32525e-05
0.000205106
2.0301e-05
0.000208424
5.50674e-05
0.0002031
8.19379e-05
0.000186516
0.000101658
0.000158556
0.000115079
0.000120694
0.000123304
7.56284e-05
0.000125836
2.9527e-05
0.000114036
6.27795e-05
0.000202428
1.78726e-05
0.000205477
5.20191e-05
0.000204019
8.33959e-05
0.000193951
0.000111727
0.000172564
0.000136466
0.000138661
0.000157208
9.2591e-05
0.000171906
3.92232e-05
0.000167404
0.000102003
0.000201307
1.65655e-05
0.000204032
4.92944e-05
0.000205011
8.2417e-05
0.00020031
0.000116427
0.000185981
0.000150795
0.000158495
0.000184694
0.000114798
0.000215603
5.49717e-05
0.000227231
0.000156974
0.000201233
1.53329e-05
0.000204693
4.58343e-05
0.00020851
7.85994e-05
0.000209576
0.000115361
0.000203899
0.000156472
0.000186886
0.000201706
0.000151167
0.000251322
8.67369e-05
0.000291661
0.000243711
0.000201766
1.35673e-05
0.000207024
4.05759e-05
0.000214686
7.09374e-05
0.00022267
0.000107378
0.000227722
0.000151419
0.000225083
0.000204345
0.000202997
0.000273408
0.000137875
0.000356783
0.000381586
0.00020266
1.09073e-05
0.00021046
3.27759e-05
0.000222701
5.86961e-05
0.000238591
9.14882e-05
0.000257763
0.000132247
0.000281932
0.000180176
0.000318494
0.000236846
0.000383183
0.000292094
0.000358704
0.000406065
0.000203919
6.9883e-06
0.000214689
2.20056e-05
0.000231268
4.21179e-05
0.000253441
6.93149e-05
0.000282307
0.000103381
0.000320884
0.000141599
0.000372917
0.000184812
0.000453275
0.000211736
0.000278146
0.000533833
0.000205965
1.02301e-06
0.000220101
7.86983e-06
0.00023997
2.22493e-05
0.000265228
4.40564e-05
0.000297
7.16095e-05
0.00033757
0.000101029
0.000388777
0.000133606
0.000454328
0.000146185
0.000185305
0.000547169
0.000209351
-8.32771e-06
0.000226991
-9.77075e-06
0.000248101
1.14013e-06
0.00027293
1.92268e-05
0.000302959
4.15808e-05
0.000340169
6.38191e-05
0.000386911
8.68642e-05
0.000439166
9.39297e-05
0.000110575
0.000513897
0.000214395
-2.27231e-05
0.000231729
-2.71045e-05
0.000248768
-1.58983e-05
0.000268052
-5.73263e-08
0.00029215
1.7482e-05
0.000323057
3.29126e-05
0.000362869
4.70523e-05
0.000405444
5.13547e-05
5.63766e-05
0.000459642
0.000211526
-3.42489e-05
0.000216076
-3.16549e-05
0.000218998
-1.88202e-05
0.000225675
-6.73447e-06
0.000239863
3.29427e-06
0.000262157
1.06186e-05
0.000292869
1.63402e-05
0.000326413
1.78107e-05
1.83718e-05
0.000364418
0.000165751
0.000134096
0.000115276
0.000108541
0.000111836
0.000122454
0.000138795
0.000156605
0.000174977
0.000253976
0.000152089
5.03559e-05
0.00020362
0.000513746
0.000172176
7.82297e-05
0.000485872
0.000582823
0.000136522
7.12129e-05
0.00058984
0.000562207
8.82116e-05
4.73618e-05
0.000586058
0.000503204
4.46499e-05
2.09482e-05
0.000529617
0.000395772
1.32961e-05
3.48395e-06
0.000413236
0.000188273
0.000191757
0.000219867
-6.63726e-06
-9.60921e-06
0.000258978
-4.42515e-05
5.13988e-06
0.000296961
-8.58761e-05
4.78941e-05
0.0003256
-0.000129452
0.000100813
0.000342821
-0.00016677
0.000149549
0.000349584
-0.000189868
0.000183105
0.00034826
-0.000193982
0.000195306
0.000342199
-0.000183179
0.00018924
-0.000151527
0.000159841
0.00046932
9.91449e-06
0.0004682
-4.31315e-05
0.000471458
-8.91336e-05
0.000471049
-0.000129043
0.000463106
-0.000158828
0.000447174
-0.000173936
0.000425422
-0.00017223
0.000400791
-0.000158547
-0.000129001
0.000585904
1.38502e-05
0.000579041
-3.62686e-05
0.000568088
-7.81801e-05
0.000550483
-0.000111438
0.000525153
-0.000133498
0.000492973
-0.000141756
0.000457033
-0.000136291
0.000420281
-0.000121795
-9.78794e-05
0.000595013
4.89538e-06
0.000591429
-3.26845e-05
0.000576951
-6.37024e-05
0.000551966
-8.64534e-05
0.000517684
-9.92154e-05
0.000476915
-0.000100987
0.000434058
-9.34345e-05
0.000392637
-8.03743e-05
-6.4278e-05
0.000539304
-4.79129e-06
0.000533972
-2.73532e-05
0.000514927
-4.46566e-05
0.000484014
-5.55412e-05
0.000444279
-5.94803e-05
0.0004002
-5.69076e-05
0.000356785
-5.0019e-05
0.000317683
-4.12727e-05
-3.38051e-05
0.000415083
-6.63811e-06
0.000402245
-1.45157e-05
0.000377071
-1.94821e-05
0.000342961
-2.14315e-05
0.000304247
-2.07659e-05
0.000265605
-1.82661e-05
0.000230723
-1.51364e-05
0.000201701
-1.2251e-05
-1.13208e-05
0.000185119
0.000170603
0.000151121
0.00012969
0.000108924
9.06577e-05
7.55213e-05
6.32703e-05
-5.13944e-06
5.13944e-06
-1.37172e-05
8.57775e-06
-2.03294e-05
6.61218e-06
-2.25774e-05
2.24799e-06
-2.00288e-05
-2.54854e-06
-1.34502e-05
-6.57862e-06
-4.28036e-06
-9.16983e-06
6.49673e-06
-1.07771e-05
-1.1233e-05
-9.4367e-06
1.45761e-05
-2.25757e-05
2.17167e-05
-3.09584e-05
1.49948e-05
-3.10792e-05
2.36887e-06
-2.25805e-05
-1.10473e-05
-7.34894e-06
-2.18102e-05
1.15689e-05
-2.80877e-05
3.13181e-05
-3.05263e-05
-2.99568e-05
-1.1244e-05
2.58201e-05
-2.57982e-05
3.62709e-05
-3.37911e-05
2.29878e-05
-3.11686e-05
-2.53656e-07
-1.79291e-05
-2.42867e-05
3.34353e-06
-4.30828e-05
2.88259e-05
-5.35701e-05
5.46547e-05
-5.63551e-05
-5.33901e-05
-1.26013e-05
3.84215e-05
-2.75637e-05
5.12333e-05
-3.44209e-05
2.98449e-05
-2.90644e-05
-5.61019e-06
-1.19219e-05
-4.14292e-05
1.39611e-05
-6.89659e-05
4.43713e-05
-8.39802e-05
7.49439e-05
-8.69277e-05
-8.01187e-05
-1.2901e-05
5.13225e-05
-2.52112e-05
6.35435e-05
-2.80637e-05
3.26975e-05
-1.82587e-05
-1.54152e-05
3.15741e-06
-6.28454e-05
3.26152e-05
-9.84237e-05
6.60913e-05
-0.000117456
9.92809e-05
-0.000120117
-0.000108136
-9.31955e-06
6.06421e-05
-1.16731e-05
6.5897e-05
-4.07598e-06
2.51004e-05
1.37104e-05
-3.32016e-05
3.9798e-05
-8.8933e-05
7.13579e-05
-0.000129984
0.000104634
-0.000150733
0.000136577
-0.00015206
-0.000134058
4.70401e-06
5.5938e-05
2.3532e-05
4.7069e-05
5.02523e-05
-1.61991e-06
7.91643e-05
-6.21135e-05
0.000109458
-0.000119226
0.000139542
-0.000160068
0.000167521
-0.000178712
0.000192591
-0.00017713
-0.000153039
4.63288e-05
9.85377e-05
0.000144812
0.000183511
0.000213834
0.000236871
0.000253465
0.000265575
)
;

boundaryField
{
    inlet
    {
        type            calculated;
        value           uniform -0.0002;
    }
    outlet
    {
        type            calculated;
        value           nonuniform List<scalar> 
15
(
1.77297e-05
5.00419e-05
7.8088e-05
0.000101673
0.000127298
0.000162499
0.000211572
0.000272377
0.000333884
0.000378266
0.000389159
0.000359036
0.00028721
0.000179217
5.19495e-05
)
;
    }
    fixedWalls
    {
        type            calculated;
        value           uniform 0;
    }
    frontAndBack
    {
        type            empty;
    }
}


// ************************************************************************* //
