/*--------------------------------*- C++ -*----------------------------------*\
| =========                 |                                                 |
| \\      /  F ield         | OpenFOAM Extend Project: Open source CFD        |
|  \\    /   O peration     | Version:  1.6-ext                               |
|   \\  /    A nd           | Web:      www.extend-project.de                 |
|    \\/     M anipulation  |                                                 |
\*---------------------------------------------------------------------------*/
FoamFile
{
    version     2.0;
    format      ascii;
    class       volVectorField;
    location    "2.6";
    object      U;
}
// * * * * * * * * * * * * * * * * * * * * * * * * * * * * * * * * * * * * * //

dimensions      [0 1 -1 0 0 0 0];

internalField   nonuniform List<vector> 
284
(
(0.163776 0.0265995 0)
(0.141855 0.0267981 0)
(0.0989751 0.0191882 0)
(0.0667812 0.0121129 0)
(0.0439833 0.00715238 0)
(0.0270371 0.00426073 0)
(0.0139184 0.00261087 0)
(0.00344989 0.00104998 0)
(-0.000591501 -0.00115506 0)
(0.200599 0.0433405 0)
(0.202186 0.0575192 0)
(0.17979 0.0531545 0)
(0.147461 0.0439002 0)
(0.113139 0.0346154 0)
(0.0797701 0.0273744 0)
(0.0485024 0.0218548 0)
(0.0200617 0.0153291 0)
(0.00337817 0.0040963 0)
(0.203096 0.0290233 0)
(0.211122 0.0593905 0)
(0.204992 0.0718954 0)
(0.184971 0.0743496 0)
(0.154745 0.0712726 0)
(0.118027 0.0659482 0)
(0.0776661 0.0593192 0)
(0.0360016 0.0474908 0)
(0.00769263 0.0211529 0)
(0.201523 0.0223019 0)
(0.207707 0.0566721 0)
(0.208215 0.0802909 0)
(0.197881 0.0949554 0)
(0.175525 0.102529 0)
(0.1422 0.105106 0)
(0.0995609 0.103032 0)
(0.0496285 0.0896958 0)
(0.0118614 0.046588 0)
(0.200564 0.0188459 0)
(0.204098 0.0533919 0)
(0.206208 0.0831704 0)
(0.201608 0.107839 0)
(0.18654 0.127152 0)
(0.159199 0.14133 0)
(0.118578 0.149097 0)
(0.0639842 0.139672 0)
(0.0173183 0.0807709 0)
(0.200234 0.0171419 0)
(0.202487 0.0506478 0)
(0.205248 0.0833562 0)
(0.204608 0.115164 0)
(0.19621 0.145212 0)
(0.176398 0.172617 0)
(0.141278 0.194926 0)
(0.0851495 0.197047 0)
(0.0273165 0.126358 0)
(0.200217 0.0159651 0)
(0.202561 0.0477652 0)
(0.206788 0.0811534 0)
(0.2103 0.117217 0)
(0.209246 0.155707 0)
(0.199556 0.195827 0)
(0.175928 0.235063 0)
(0.122662 0.254798 0)
(0.0479251 0.197847 0)
(0.200343 0.0145288 0)
(0.203721 0.0435915 0)
(0.210548 0.0756314 0)
(0.219229 0.112958 0)
(0.226895 0.156606 0)
(0.230266 0.207479 0)
(0.222177 0.271218 0)
(0.195871 0.340008 0)
(0.0600431 0.287122 0)
(0.200544 0.0123712 0)
(0.205552 0.037197 0)
(0.215799 0.0657835 0)
(0.230515 0.101016 0)
(0.248463 0.144411 0)
(0.271968 0.196632 0)
(0.298905 0.263133 0)
(0.356611 0.345226 0)
(0.39838 0.427412 0)
(0.200838 0.00917083 0)
(0.20797 0.0280375 0)
(0.22183 0.0513593 0)
(0.241659 0.0816666 0)
(0.266916 0.119622 0)
(0.301616 0.163714 0)
(0.343314 0.21542 0)
(0.41036 0.256349 0)
(0.491132 0.334131 0)
(0.201386 0.00455513 0)
(0.211495 0.0157512 0)
(0.228807 0.0329438 0)
(0.251682 0.0573005 0)
(0.27986 0.0880817 0)
(0.316183 0.121832 0)
(0.36099 0.159605 0)
(0.418026 0.174882 0)
(0.497632 0.225118 0)
(0.202449 -0.00276803 0)
(0.216768 -0.00027427 0)
(0.236611 0.0116172 0)
(0.259686 0.0310476 0)
(0.286857 0.0556644 0)
(0.320049 0.0811519 0)
(0.362208 0.108604 0)
(0.410087 0.116743 0)
(0.473554 0.140326 0)
(0.204211 -0.0140266 0)
(0.222481 -0.0188085 0)
(0.239984 -0.0091933 0)
(0.257646 0.00752475 0)
(0.278986 0.0272106 0)
(0.30594 0.0460723 0)
(0.341835 0.0645174 0)
(0.38231 0.0703456 0)
(0.430905 0.0785838 0)
(0.201752 -0.0353413 0)
(0.214833 -0.0372884 0)
(0.217577 -0.0235246 0)
(0.221058 -0.00770546 0)
(0.231199 0.00681216 0)
(0.249227 0.0185476 0)
(0.276419 0.0281344 0)
(0.308489 0.0308994 0)
(0.344958 0.032287 0)
(0.164654 -0.0249231 0)
(0.151054 -0.022428 0)
(0.123443 -0.0128149 0)
(0.109722 -0.00506467 0)
(0.108598 0.000378758 0)
(0.115968 0.00388918 0)
(0.129999 0.00610999 0)
(0.147312 0.00629323 0)
(0.16603 0.00575334 0)
(0.35745 0.164202 0)
(0.193648 0.040195 0)
(0.544454 0.170824 0)
(0.503436 0.070602 0)
(0.574283 0.158871 0)
(0.595066 0.0850755 0)
(0.54142 0.110986 0)
(0.580278 0.0613141 0)
(0.482834 0.0629341 0)
(0.520201 0.0322459 0)
(0.381464 0.0238259 0)
(0.407466 0.00804448 0)
(0.182794 0.00272329 0)
(0.191806 -0.00170806 0)
(0.203651 -0.0130621 0)
(0.234962 -0.0370158 0)
(0.278285 -0.0761889 0)
(0.314945 -0.122107 0)
(0.338746 -0.163785 0)
(0.350406 -0.191501 0)
(0.350405 -0.199404 0)
(0.347919 -0.190902 0)
(0.332784 -0.159648 0)
(0.476195 0.00182294 0)
(0.466109 -0.0474011 0)
(0.469492 -0.0918382 0)
(0.474056 -0.133155 0)
(0.470792 -0.166341 0)
(0.458709 -0.185382 0)
(0.436624 -0.18658 0)
(0.416245 -0.174385 0)
(0.37977 -0.143177 0)
(0.592107 0.0193914 0)
(0.583879 -0.0353573 0)
(0.575092 -0.0817276 0)
(0.562244 -0.119999 0)
(0.540944 -0.147036 0)
(0.511892 -0.159401 0)
(0.47449 -0.15608 0)
(0.441714 -0.141969 0)
(0.39234 -0.114763 0)
(0.595408 0.0106909 0)
(0.596576 -0.0338162 0)
(0.587381 -0.0709954 0)
(0.567923 -0.0997019 0)
(0.537684 -0.117553 0)
(0.49939 -0.122632 0)
(0.45457 -0.115848 0)
(0.415604 -0.101512 0)
(0.363095 -0.0810152 0)
(0.538771 -0.00118016 0)
(0.540709 -0.0312981 0)
(0.528184 -0.0556127 0)
(0.502764 -0.0724473 0)
(0.46634 -0.0804033 0)
(0.423225 -0.0791974 0)
(0.377264 -0.0710609 0)
(0.338096 -0.0593124 0)
(0.291389 -0.04747 0)
(0.41777 -0.00890205 0)
(0.41223 -0.0230988 0)
(0.392708 -0.032826 0)
(0.362143 -0.0375213 0)
(0.324461 -0.0374017 0)
(0.284654 -0.0335382 0)
(0.246848 -0.0279852 0)
(0.215977 -0.022385 0)
(0.182816 -0.0194396 0)
(0.190301 -0.00560867 0)
(0.179374 -0.00801189 0)
(0.161819 -0.00874474 0)
(0.140758 -0.00815137 0)
(0.119125 -0.00681026 0)
(0.0992846 -0.00528612 0)
(0.0825056 -0.00408016 0)
(0.0692897 -0.00341624 0)
(0.0542721 -0.00395831 0)
(-0.00194641 0.00195066 0)
(-0.00910441 0.00366462 0)
(-0.0178382 0.0031446 0)
(-0.0224574 0.0016072 0)
(-0.0221854 -0.000207643 0)
(-0.0173484 -0.00182564 0)
(-0.00887549 -0.00299909 0)
(-0.0004208 -0.00398511 0)
(0.0155167 -0.0044739 0)
(-0.00394906 0.00905838 0)
(-0.0159575 0.014365 0)
(-0.02859 0.0107192 0)
(-0.0330872 0.00309934 0)
(-0.0285351 -0.00513231 0)
(-0.0160667 -0.0119348 0)
(0.00184684 -0.0161406 0)
(0.0200878 -0.0183723 0)
(0.0466396 -0.0187326 0)
(-0.00487604 0.0199161 0)
(-0.0187809 0.0288034 0)
(-0.0322408 0.0192393 0)
(-0.0351275 0.00172762 0)
(-0.0266948 -0.0164719 0)
(-0.0085635 -0.0309623 0)
(0.0157649 -0.0392331 0)
(0.0404607 -0.0419336 0)
(0.0739355 -0.0404729 0)
(-0.00570297 0.0320356 0)
(-0.0207526 0.0438984 0)
(-0.0339334 0.0269469 0)
(-0.0347613 -0.00211028 0)
(-0.0229012 -0.0317808 0)
(-0.000280825 -0.0548599 0)
(0.0289451 -0.0676274 0)
(0.0584983 -0.0705838 0)
(0.0970075 -0.0659961 0)
(-0.00632929 0.0450701 0)
(-0.020586 0.0583226 0)
(-0.0299992 0.0325898 0)
(-0.026249 -0.00929761 0)
(-0.00986433 -0.0513754 0)
(0.0168151 -0.0832285 0)
(0.0493808 -0.100435 0)
(0.081914 -0.103281 0)
(0.122354 -0.0941067 0)
(-0.00545925 0.0569051 0)
(-0.013354 0.0673172 0)
(-0.010962 0.0315232 0)
(0.00248052 -0.0226635 0)
(0.0256199 -0.0756586 0)
(0.0556312 -0.114914 0)
(0.0885861 -0.135271 0)
(0.120594 -0.137261 0)
(0.157603 -0.122299 0)
(0.00110421 0.0682221 0)
(0.00944598 0.0653922 0)
(0.0353891 0.0182449 0)
(0.0644748 -0.0451562 0)
(0.0953221 -0.104376 0)
(0.126182 -0.147022 0)
(0.154901 -0.167523 0)
(0.181026 -0.167468 0)
(0.207217 -0.146172 0)
(0.0334429 0.0343217 0)
(0.0667663 0.0250517 0)
(0.122617 -0.0224058 0)
(0.166869 -0.0821832 0)
(0.202107 -0.136954 0)
(0.228789 -0.175236 0)
(0.247035 -0.19119 0)
(0.261344 -0.187466 0)
(0.269193 -0.160184 0)
)
;

boundaryField
{
    inlet
    {
        type            fixedValue;
        value           uniform (0.2 0 0);
    }
    outlet
    {
        type            zeroGradient;
    }
    fixedWalls
    {
        type            fixedValue;
        value           uniform (0 0 0);
    }
    frontAndBack
    {
        type            empty;
    }
}


// ************************************************************************* //
