/*--------------------------------*- C++ -*----------------------------------*\
| =========                 |                                                 |
| \\      /  F ield         | OpenFOAM Extend Project: Open source CFD        |
|  \\    /   O peration     | Version:  1.6-ext                               |
|   \\  /    A nd           | Web:      www.extend-project.de                 |
|    \\/     M anipulation  |                                                 |
\*---------------------------------------------------------------------------*/
FoamFile
{
    version     2.0;
    format      ascii;
    class       vectorField;
    location    "0.4";
    object      accumulatedFluidInterfaceDisplacement;
}
// * * * * * * * * * * * * * * * * * * * * * * * * * * * * * * * * * * * * * //


338
(
(-4.05604e-06 1.93602e-06 -3.54558e-27)
(-3.02862e-06 1.02343e-06 9.62809e-27)
(-1.69325e-05 -2.01819e-07 3.20308e-27)
(-1.69954e-05 1.94374e-08 -7.01143e-28)
(-1.69751e-05 3.13631e-07 1.04717e-28)
(-1.69472e-05 6.0707e-07 1.12295e-27)
(-1.69122e-05 9.00047e-07 -2.46078e-28)
(-1.687e-05 1.19247e-06 -9.03607e-28)
(-1.68205e-05 1.48442e-06 -1.16326e-27)
(-1.67636e-05 1.77585e-06 -1.86124e-27)
(-1.66992e-05 2.0667e-06 -4.0687e-27)
(-1.6627e-05 2.35679e-06 -1.65014e-27)
(-1.6547e-05 2.64588e-06 1.92516e-27)
(-1.6459e-05 2.93362e-06 -3.79633e-28)
(-1.63629e-05 3.2196e-06 -1.1895e-27)
(-1.62584e-05 3.50328e-06 1.09025e-28)
(-1.61454e-05 3.78404e-06 6.99084e-28)
(-1.60238e-05 4.06116e-06 4.26851e-27)
(-1.58934e-05 4.3338e-06 2.87854e-27)
(-1.5754e-05 4.60105e-06 6.77346e-28)
(-1.56055e-05 4.86187e-06 5.31947e-27)
(-1.54477e-05 5.11515e-06 5.64588e-27)
(-1.52806e-05 5.35969e-06 -3.09397e-27)
(-1.51039e-05 5.5942e-06 -3.92202e-27)
(-1.49175e-05 5.81735e-06 -3.30498e-27)
(-1.47213e-05 6.02777e-06 -4.00827e-27)
(-1.45152e-05 6.22403e-06 1.90963e-27)
(-1.4299e-05 6.40473e-06 -1.52606e-28)
(-1.40728e-05 6.56846e-06 -4.07373e-27)
(-1.38364e-05 6.71389e-06 -2.49669e-27)
(-1.35898e-05 6.83972e-06 3.06549e-27)
(-1.33331e-05 6.94478e-06 1.06669e-27)
(-1.30662e-05 7.028e-06 -3.4024e-27)
(-1.27893e-05 7.08847e-06 -1.58165e-27)
(-1.25025e-05 7.12546e-06 5.20519e-27)
(-1.22062e-05 7.1384e-06 -2.95423e-27)
(-1.19007e-05 7.12695e-06 -8.48263e-27)
(-1.15864e-05 7.09097e-06 1.66929e-27)
(-1.12638e-05 7.03052e-06 1.95215e-27)
(-1.09337e-05 6.94589e-06 6.10357e-28)
(-1.05968e-05 6.83756e-06 -5.02222e-27)
(-1.0254e-05 6.70618e-06 -7.40475e-27)
(-9.90607e-06 6.55259e-06 -2.76373e-27)
(-9.55411e-06 6.37776e-06 -1.06274e-28)
(-9.19908e-06 6.18279e-06 -1.80999e-27)
(-8.84197e-06 5.96891e-06 5.42102e-30)
(-8.48373e-06 5.73743e-06 1.50766e-27)
(-8.12525e-06 5.48976e-06 -5.53422e-29)
(-7.76734e-06 5.22738e-06 1.27426e-27)
(-7.41068e-06 4.95188e-06 -4.55556e-27)
(-7.05588e-06 4.6649e-06 -2.17332e-27)
(-6.70338e-06 4.36816e-06 -1.29525e-27)
(-6.35353e-06 4.06347e-06 2.55311e-27)
(-6.00657e-06 3.75267e-06 6.61179e-27)
(-5.66263e-06 3.4377e-06 4.57139e-27)
(-5.32176e-06 3.12053e-06 3.40171e-28)
(-4.98396e-06 2.80321e-06 -6.24152e-27)
(-4.64917e-06 2.48779e-06 -5.8462e-27)
(-4.31732e-06 2.17641e-06 -3.00378e-27)
(-3.98834e-06 1.87121e-06 1.50633e-27)
(-3.66217e-06 1.57438e-06 -8.40285e-29)
(-3.3388e-06 1.28814e-06 2.17683e-27)
(-1.64112e-05 -2.80536e-07 1.24904e-26)
(-1.67128e-05 -2.77095e-07 2.00046e-26)
(-1.58639e-05 -2.08189e-07 2.44179e-28)
(-1.61019e-05 -2.84492e-07 -2.71044e-27)
(-4.4208e-06 2.19602e-06 1.31266e-27)
(-4.79198e-06 2.47761e-06 5.83006e-27)
(-5.15725e-06 2.77019e-06 -2.25716e-27)
(-5.51673e-06 3.07168e-06 -4.66618e-27)
(-5.87055e-06 3.38001e-06 9.85948e-28)
(-6.21883e-06 3.69312e-06 5.90255e-27)
(-6.56171e-06 4.00892e-06 3.68437e-27)
(-6.8993e-06 4.32529e-06 1.69431e-28)
(-7.23169e-06 4.64009e-06 -4.03084e-27)
(-7.55892e-06 4.95115e-06 -1.60688e-27)
(-7.88098e-06 5.2563e-06 -1.53427e-27)
(-8.19782e-06 5.55333e-06 -3.08638e-27)
(-8.5093e-06 5.84009e-06 -9.70384e-28)
(-8.81525e-06 6.11443e-06 3.17423e-27)
(-9.11539e-06 6.37428e-06 3.09358e-27)
(-9.40943e-06 6.61766e-06 -3.45339e-27)
(-9.69702e-06 6.84272e-06 5.99486e-29)
(-9.97778e-06 7.04776e-06 -2.5174e-28)
(-1.02513e-05 7.23128e-06 -4.3939e-27)
(-1.05174e-05 7.39198e-06 -2.16833e-28)
(-1.07755e-05 7.52881e-06 6.892e-28)
(-1.10256e-05 7.64096e-06 -2.31251e-27)
(-1.12674e-05 7.72786e-06 -5.61982e-27)
(-1.15009e-05 7.78919e-06 -1.13784e-26)
(-1.17261e-05 7.82486e-06 -1.36855e-26)
(-1.19432e-05 7.83502e-06 -8.82996e-27)
(-1.21522e-05 7.81999e-06 -1.44285e-27)
(-1.23536e-05 7.78029e-06 -1.14344e-27)
(-1.25475e-05 7.7166e-06 -1.0912e-26)
(-1.27345e-05 7.62975e-06 -1.02988e-26)
(-1.29149e-05 7.52067e-06 4.45698e-27)
(-1.3089e-05 7.39043e-06 1.63339e-26)
(-1.32573e-05 7.24017e-06 3.0488e-27)
(-1.34201e-05 7.0711e-06 -1.14824e-26)
(-1.35776e-05 6.8845e-06 -5.43892e-27)
(-1.37301e-05 6.68168e-06 3.26649e-27)
(-1.38779e-05 6.46396e-06 -3.07135e-27)
(-1.40209e-05 6.23269e-06 -1.70298e-27)
(-1.41594e-05 5.98916e-06 1.30394e-26)
(-1.42932e-05 5.73469e-06 1.48306e-26)
(-1.44224e-05 5.47051e-06 1.13579e-27)
(-1.45469e-05 5.19782e-06 -5.52665e-27)
(-1.46666e-05 4.91775e-06 2.54742e-27)
(-1.47812e-05 4.63135e-06 5.5543e-27)
(-1.48907e-05 4.3396e-06 7.04378e-27)
(-1.49948e-05 4.04338e-06 2.72628e-27)
(-1.50933e-05 3.7435e-06 -3.57931e-27)
(-1.51861e-05 3.44064e-06 -1.98368e-27)
(-1.52728e-05 3.13544e-06 -3.80443e-28)
(-1.53534e-05 2.8284e-06 1.07328e-28)
(-1.54276e-05 2.51996e-06 7.9507e-28)
(-1.54953e-05 2.21047e-06 -1.22025e-27)
(-1.55562e-05 1.9002e-06 -3.57808e-28)
(-1.56103e-05 1.58932e-06 -1.34939e-27)
(-1.56575e-05 1.27796e-06 -1.61872e-27)
(-1.56977e-05 9.66135e-07 7.78855e-28)
(-1.57307e-05 6.53855e-07 4.53139e-28)
(-1.57568e-05 3.40841e-07 -9.85498e-28)
(-1.57753e-05 2.70665e-08 -1.06214e-27)
(-2.95549e-07 1.68554e-07 3.17156e-26)
(-2.94978e-07 2.17245e-07 2.16253e-26)
(-3.05547e-07 3.03688e-07 -1.77876e-26)
(-3.4045e-07 3.68177e-07 -1.14995e-26)
(-3.9974e-07 4.14885e-07 7.10174e-27)
(-4.80288e-07 4.50159e-07 5.84262e-27)
(-5.78585e-07 4.7832e-07 2.51319e-26)
(-6.92422e-07 5.03159e-07 -2.15561e-26)
(-8.20312e-07 5.27618e-07 -2.25427e-26)
(-9.61433e-07 5.54198e-07 1.83624e-26)
(-1.11536e-06 5.85035e-07 1.04698e-26)
(-1.28197e-06 6.22038e-07 1.55562e-27)
(-1.46134e-06 6.66968e-07 -1.77974e-27)
(-1.65368e-06 7.21501e-07 -5.35544e-27)
(-1.85934e-06 7.87281e-07 -5.93598e-27)
(-2.07876e-06 8.65962e-07 1.91614e-27)
(-2.31245e-06 9.59243e-07 -5.22185e-27)
(-2.561e-06 1.0689e-06 8.96675e-28)
(-2.82502e-06 1.1968e-06 2.31831e-28)
(-3.1052e-06 1.34492e-06 -3.79469e-27)
(-3.40222e-06 1.51532e-06 2.36019e-27)
(-3.71678e-06 1.71015e-06 8.92108e-28)
(-2.85292e-07 -1.48443e-07 2.23749e-26)
(-2.74676e-06 7.93153e-07 1.56057e-27)
(-2.49112e-06 5.94307e-07 -3.75825e-27)
(-2.25467e-06 4.20201e-07 5.76707e-27)
(-2.03593e-06 2.68665e-07 -4.94199e-27)
(-1.83357e-06 1.37573e-07 -3.10013e-27)
(-1.64634e-06 2.48851e-08 4.54025e-27)
(-1.4731e-06 -7.13248e-08 -7.31975e-27)
(-1.31285e-06 -1.52836e-07 -4.38135e-27)
(-1.16469e-06 -2.21253e-07 4.68544e-28)
(-1.02787e-06 -2.77974e-07 -1.22356e-27)
(-9.01785e-07 -3.2416e-07 6.80272e-27)
(-7.85993e-07 -3.60694e-07 1.01485e-27)
(-6.80251e-07 -3.8815e-07 -1.1848e-27)
(-5.84537e-07 -4.06742e-07 4.52954e-28)
(-4.99131e-07 -4.16277e-07 -1.84436e-26)
(-4.24687e-07 -4.16049e-07 -1.89658e-26)
(-3.62448e-07 -4.04801e-07 1.72985e-26)
(-3.14279e-07 -3.80401e-07 3.05541e-26)
(-2.83114e-07 -3.40133e-07 -2.24841e-26)
(-2.714e-07 -2.79514e-07 -2.57585e-26)
(-2.77918e-07 -1.95887e-07 1.51734e-26)
(-4.05604e-06 1.93602e-06 -3.54558e-27)
(-3.02862e-06 1.02343e-06 9.62809e-27)
(-1.69325e-05 -2.01819e-07 3.20308e-27)
(-1.69954e-05 1.94374e-08 -7.01143e-28)
(-1.69751e-05 3.13631e-07 1.04717e-28)
(-1.69472e-05 6.0707e-07 1.12295e-27)
(-1.69122e-05 9.00047e-07 -2.46078e-28)
(-1.687e-05 1.19247e-06 -9.03607e-28)
(-1.68205e-05 1.48442e-06 -1.16326e-27)
(-1.67636e-05 1.77585e-06 -1.86124e-27)
(-1.66992e-05 2.0667e-06 -4.0687e-27)
(-1.6627e-05 2.35679e-06 -1.65014e-27)
(-1.6547e-05 2.64588e-06 1.92516e-27)
(-1.6459e-05 2.93362e-06 -3.79633e-28)
(-1.63629e-05 3.2196e-06 -1.1895e-27)
(-1.62584e-05 3.50328e-06 1.09025e-28)
(-1.61454e-05 3.78404e-06 6.99084e-28)
(-1.60238e-05 4.06116e-06 4.26851e-27)
(-1.58934e-05 4.3338e-06 2.87854e-27)
(-1.5754e-05 4.60105e-06 6.77346e-28)
(-1.56055e-05 4.86187e-06 5.31947e-27)
(-1.54477e-05 5.11515e-06 5.64588e-27)
(-1.52806e-05 5.35969e-06 -3.09397e-27)
(-1.51039e-05 5.5942e-06 -3.92202e-27)
(-1.49175e-05 5.81735e-06 -3.30498e-27)
(-1.47213e-05 6.02777e-06 -4.00827e-27)
(-1.45152e-05 6.22403e-06 1.90963e-27)
(-1.4299e-05 6.40473e-06 -1.52606e-28)
(-1.40728e-05 6.56846e-06 -4.07373e-27)
(-1.38364e-05 6.71389e-06 -2.49669e-27)
(-1.35898e-05 6.83972e-06 3.06549e-27)
(-1.33331e-05 6.94478e-06 1.06669e-27)
(-1.30662e-05 7.028e-06 -3.4024e-27)
(-1.27893e-05 7.08847e-06 -1.58165e-27)
(-1.25025e-05 7.12546e-06 5.20519e-27)
(-1.22062e-05 7.1384e-06 -2.95423e-27)
(-1.19007e-05 7.12695e-06 -8.48263e-27)
(-1.15864e-05 7.09097e-06 1.66929e-27)
(-1.12638e-05 7.03052e-06 1.95215e-27)
(-1.09337e-05 6.94589e-06 6.10357e-28)
(-1.05968e-05 6.83756e-06 -5.02222e-27)
(-1.0254e-05 6.70618e-06 -7.40475e-27)
(-9.90607e-06 6.55259e-06 -2.76373e-27)
(-9.55411e-06 6.37776e-06 -1.06274e-28)
(-9.19908e-06 6.18279e-06 -1.80999e-27)
(-8.84197e-06 5.96891e-06 5.42102e-30)
(-8.48373e-06 5.73743e-06 1.50766e-27)
(-8.12525e-06 5.48976e-06 -5.53422e-29)
(-7.76734e-06 5.22738e-06 1.27426e-27)
(-7.41068e-06 4.95188e-06 -4.55556e-27)
(-7.05588e-06 4.6649e-06 -2.17332e-27)
(-6.70338e-06 4.36816e-06 -1.29525e-27)
(-6.35353e-06 4.06347e-06 2.55311e-27)
(-6.00657e-06 3.75267e-06 6.61179e-27)
(-5.66263e-06 3.4377e-06 4.57139e-27)
(-5.32176e-06 3.12053e-06 3.40171e-28)
(-4.98396e-06 2.80321e-06 -6.24152e-27)
(-4.64917e-06 2.48779e-06 -5.8462e-27)
(-4.31732e-06 2.17641e-06 -3.00378e-27)
(-3.98834e-06 1.87121e-06 1.50633e-27)
(-3.66217e-06 1.57438e-06 -8.40285e-29)
(-3.3388e-06 1.28814e-06 2.17683e-27)
(-1.64112e-05 -2.80536e-07 1.24904e-26)
(-1.67128e-05 -2.77095e-07 2.00046e-26)
(-1.58639e-05 -2.08189e-07 2.44179e-28)
(-1.61019e-05 -2.84492e-07 -2.71044e-27)
(-4.4208e-06 2.19602e-06 1.31266e-27)
(-4.79198e-06 2.47761e-06 5.83006e-27)
(-5.15725e-06 2.77019e-06 -2.25716e-27)
(-5.51673e-06 3.07168e-06 -4.66618e-27)
(-5.87055e-06 3.38001e-06 9.85948e-28)
(-6.21883e-06 3.69312e-06 5.90255e-27)
(-6.56171e-06 4.00892e-06 3.68437e-27)
(-6.8993e-06 4.32529e-06 1.69431e-28)
(-7.23169e-06 4.64009e-06 -4.03084e-27)
(-7.55892e-06 4.95115e-06 -1.60688e-27)
(-7.88098e-06 5.2563e-06 -1.53427e-27)
(-8.19782e-06 5.55333e-06 -3.08638e-27)
(-8.5093e-06 5.84009e-06 -9.70384e-28)
(-8.81525e-06 6.11443e-06 3.17423e-27)
(-9.11539e-06 6.37428e-06 3.09358e-27)
(-9.40943e-06 6.61766e-06 -3.45339e-27)
(-9.69702e-06 6.84272e-06 5.99486e-29)
(-9.97778e-06 7.04776e-06 -2.5174e-28)
(-1.02513e-05 7.23128e-06 -4.3939e-27)
(-1.05174e-05 7.39198e-06 -2.16833e-28)
(-1.07755e-05 7.52881e-06 6.892e-28)
(-1.10256e-05 7.64096e-06 -2.31251e-27)
(-1.12674e-05 7.72786e-06 -5.61982e-27)
(-1.15009e-05 7.78919e-06 -1.13784e-26)
(-1.17261e-05 7.82486e-06 -1.36855e-26)
(-1.19432e-05 7.83502e-06 -8.82996e-27)
(-1.21522e-05 7.81999e-06 -1.44285e-27)
(-1.23536e-05 7.78029e-06 -1.14344e-27)
(-1.25475e-05 7.7166e-06 -1.0912e-26)
(-1.27345e-05 7.62975e-06 -1.02988e-26)
(-1.29149e-05 7.52067e-06 4.45698e-27)
(-1.3089e-05 7.39043e-06 1.63339e-26)
(-1.32573e-05 7.24017e-06 3.0488e-27)
(-1.34201e-05 7.0711e-06 -1.14824e-26)
(-1.35776e-05 6.8845e-06 -5.43892e-27)
(-1.37301e-05 6.68168e-06 3.26649e-27)
(-1.38779e-05 6.46396e-06 -3.07135e-27)
(-1.40209e-05 6.23269e-06 -1.70298e-27)
(-1.41594e-05 5.98916e-06 1.30394e-26)
(-1.42932e-05 5.73469e-06 1.48306e-26)
(-1.44224e-05 5.47051e-06 1.13579e-27)
(-1.45469e-05 5.19782e-06 -5.52665e-27)
(-1.46666e-05 4.91775e-06 2.54742e-27)
(-1.47812e-05 4.63135e-06 5.5543e-27)
(-1.48907e-05 4.3396e-06 7.04378e-27)
(-1.49948e-05 4.04338e-06 2.72628e-27)
(-1.50933e-05 3.7435e-06 -3.57931e-27)
(-1.51861e-05 3.44064e-06 -1.98368e-27)
(-1.52728e-05 3.13544e-06 -3.80443e-28)
(-1.53534e-05 2.8284e-06 1.07328e-28)
(-1.54276e-05 2.51996e-06 7.9507e-28)
(-1.54953e-05 2.21047e-06 -1.22025e-27)
(-1.55562e-05 1.9002e-06 -3.57808e-28)
(-1.56103e-05 1.58932e-06 -1.34939e-27)
(-1.56575e-05 1.27796e-06 -1.61872e-27)
(-1.56977e-05 9.66135e-07 7.78855e-28)
(-1.57307e-05 6.53855e-07 4.53139e-28)
(-1.57568e-05 3.40841e-07 -9.85498e-28)
(-1.57753e-05 2.70665e-08 -1.06214e-27)
(-2.95549e-07 1.68554e-07 3.17156e-26)
(-2.94978e-07 2.17245e-07 2.16253e-26)
(-3.05547e-07 3.03688e-07 -1.77876e-26)
(-3.4045e-07 3.68177e-07 -1.14995e-26)
(-3.9974e-07 4.14885e-07 7.10174e-27)
(-4.80288e-07 4.50159e-07 5.84262e-27)
(-5.78585e-07 4.7832e-07 2.51319e-26)
(-6.92422e-07 5.03159e-07 -2.15561e-26)
(-8.20312e-07 5.27618e-07 -2.25427e-26)
(-9.61433e-07 5.54198e-07 1.83624e-26)
(-1.11536e-06 5.85035e-07 1.04698e-26)
(-1.28197e-06 6.22038e-07 1.55562e-27)
(-1.46134e-06 6.66968e-07 -1.77974e-27)
(-1.65368e-06 7.21501e-07 -5.35544e-27)
(-1.85934e-06 7.87281e-07 -5.93598e-27)
(-2.07876e-06 8.65962e-07 1.91614e-27)
(-2.31245e-06 9.59243e-07 -5.22185e-27)
(-2.561e-06 1.0689e-06 8.96675e-28)
(-2.82502e-06 1.1968e-06 2.31831e-28)
(-3.1052e-06 1.34492e-06 -3.79469e-27)
(-3.40222e-06 1.51532e-06 2.36019e-27)
(-3.71678e-06 1.71015e-06 8.92108e-28)
(-2.85292e-07 -1.48443e-07 2.23749e-26)
(-2.74676e-06 7.93153e-07 1.56057e-27)
(-2.49112e-06 5.94307e-07 -3.75825e-27)
(-2.25467e-06 4.20201e-07 5.76707e-27)
(-2.03593e-06 2.68665e-07 -4.94199e-27)
(-1.83357e-06 1.37573e-07 -3.10013e-27)
(-1.64634e-06 2.48851e-08 4.54025e-27)
(-1.4731e-06 -7.13248e-08 -7.31975e-27)
(-1.31285e-06 -1.52836e-07 -4.38135e-27)
(-1.16469e-06 -2.21253e-07 4.68544e-28)
(-1.02787e-06 -2.77974e-07 -1.22356e-27)
(-9.01785e-07 -3.2416e-07 6.80272e-27)
(-7.85993e-07 -3.60694e-07 1.01485e-27)
(-6.80251e-07 -3.8815e-07 -1.1848e-27)
(-5.84537e-07 -4.06742e-07 4.52954e-28)
(-4.99131e-07 -4.16277e-07 -1.84436e-26)
(-4.24687e-07 -4.16049e-07 -1.89658e-26)
(-3.62448e-07 -4.04801e-07 1.72985e-26)
(-3.14279e-07 -3.80401e-07 3.05541e-26)
(-2.83114e-07 -3.40133e-07 -2.24841e-26)
(-2.714e-07 -2.79514e-07 -2.57585e-26)
(-2.77918e-07 -1.95887e-07 1.51734e-26)
)


// ************************************************************************* //
