/*--------------------------------*- C++ -*----------------------------------*\
| =========                 |                                                 |
| \\      /  F ield         | OpenFOAM Extend Project: Open source CFD        |
|  \\    /   O peration     | Version:  1.6-ext                               |
|   \\  /    A nd           | Web:      www.extend-project.de                 |
|    \\/     M anipulation  |                                                 |
\*---------------------------------------------------------------------------*/
FoamFile
{
    version     2.0;
    format      ascii;
    class       tetPointVectorField;
    location    "0.4";
    object      motionU;
}
// * * * * * * * * * * * * * * * * * * * * * * * * * * * * * * * * * * * * * //

dimensions      [0 1 -1 0 0 0 0];

internalField   nonuniform List<vector> 
147960
(
(0 0 0)
(-0.000135926 0.000520927 0)
(0.00428078 0.00309293 4.35548e-24)
(0.00648297 0.00450314 -6.24333e-24)
(0.022439 -0.0104624 4.18591e-25)
(0.0221792 -0.00974834 3.07813e-24)
(0.0221396 -0.0087941 -1.4108e-24)
(0.0220904 -0.00783799 -6.05783e-24)
(0.0220326 -0.00688206 -1.08224e-24)
(0.0219654 -0.00592723 1.18382e-25)
(0.0218891 -0.0049746 -2.00677e-25)
(0.0218033 -0.00402519 -1.33361e-24)
(0.0217082 -0.00308003 -2.03284e-24)
(0.0216036 -0.00214024 1.24877e-24)
(0.0214898 -0.00120702 2.56685e-24)
(0.0213667 -0.000281691 4.29902e-25)
(0.0212345 0.000634328 -6.66465e-25)
(0.0210935 0.00153949 5.83074e-25)
(0.0209438 0.00243212 8.14339e-25)
(0.0207856 0.00331043 3.99133e-24)
(0.0206193 0.00417254 2.51994e-24)
(0.020445 0.00501642 -3.02406e-24)
(0.020263 0.00583997 2.60963e-25)
(0.0200735 0.00664099 3.70356e-25)
(0.019877 0.00741719 2.70727e-24)
(0.0196736 0.0081662 1.04933e-23)
(0.0194637 0.00888561 5.22859e-24)
(0.0192476 0.00957294 -1.53853e-23)
(0.0190256 0.0102257 -7.24567e-24)
(0.0187982 0.0108413 1.00306e-23)
(0.0185656 0.0114174 -4.55397e-24)
(0.0183282 0.0119514 -1.27866e-23)
(0.0180865 0.012441 2.39447e-24)
(0.0178408 0.0128839 1.642e-23)
(0.0175914 0.013278 6.01235e-24)
(0.0173387 0.0136215 -3.14557e-24)
(0.017083 0.0139126 2.30948e-24)
(0.0168244 0.0141501 6.4924e-24)
(0.0165631 0.014333 -6.83067e-25)
(0.016299 0.0144606 -8.67121e-24)
(0.016032 0.0145327 -3.79479e-24)
(0.0157616 0.0145494 -3.31828e-24)
(0.0154874 0.0145115 -1.27923e-24)
(0.0152085 0.0144198 2.45381e-24)
(0.0149241 0.0142757 2.47342e-24)
(0.014633 0.0140809 2.15273e-24)
(0.0143339 0.0138375 6.14707e-25)
(0.0140255 0.0135477 5.37116e-24)
(0.0137063 0.0132138 5.52099e-24)
(0.013375 0.0128386 2.6593e-24)
(0.0130302 0.0124247 -4.45779e-24)
(0.0126706 0.0119751 -4.90381e-24)
(0.0122953 0.0114927 9.98908e-25)
(0.0119034 0.0109808 -2.84796e-24)
(0.0114943 0.0104426 -4.59724e-24)
(0.0110676 0.00988172 7.10167e-24)
(0.0106231 0.00930177 4.0435e-24)
(0.0101609 0.00870664 2.84961e-25)
(0.00968128 0.00810045 -6.57629e-24)
(0.00918452 0.00748749 -5.25894e-24)
(0.00867118 0.00687225 1.31155e-24)
(0.00814181 0.00625942 -1.70144e-24)
(0.00759706 0.00565387 5.14144e-24)
(0.00703757 0.00506059 -5.08202e-24)
(0.0240893 -0.0107009 1.17653e-23)
(0.0231532 -0.0107008 -1.41201e-24)
(0.0256974 -0.0104686 1.2442e-23)
(0.0250134 -0.0107001 2.02249e-23)
(0.00475265 0.00365979 -5.38975e-24)
(0.00524605 0.00426532 -1.25413e-23)
(0.00574434 0.004886 -8.72274e-25)
(0.00624653 0.00551707 8.47952e-24)
(0.00675161 0.00615378 -5.18752e-24)
(0.00725856 0.00679142 1.02071e-23)
(0.00776644 0.00742531 7.76006e-24)
(0.00827436 0.00805081 -4.42938e-24)
(0.00878157 0.00866332 -3.81129e-25)
(0.00928746 0.00925828 -3.4996e-24)
(0.0097916 0.00983119 -3.27657e-24)
(0.0102937 0.0103777 -1.98187e-24)
(0.0107938 0.0108935 -1.92704e-24)
(0.0112918 0.0113745 -2.84659e-24)
(0.0117879 0.011817 -7.50679e-25)
(0.0122825 0.0122173 1.47258e-24)
(0.0127759 0.0125723 3.13261e-24)
(0.0132683 0.0128792 -6.9415e-25)
(0.0137599 0.0131357 -4.48339e-24)
(0.0142509 0.0133398 -7.93902e-24)
(0.014741 0.0134902 -1.67797e-23)
(0.0152301 0.0135858 -1.25489e-24)
(0.0157176 0.0136261 2.4022e-23)
(0.0162029 0.013611 1.17502e-23)
(0.0166851 0.0135407 9.50287e-24)
(0.0171631 0.0134158 2.02152e-23)
(0.017636 0.013237 1.25079e-24)
(0.0181024 0.0130057 -1.64963e-23)
(0.0185613 0.012723 -1.69863e-23)
(0.0190114 0.0123905 5.59115e-24)
(0.0194515 0.01201 2.89649e-24)
(0.0198807 0.0115832 -7.38854e-24)
(0.020298 0.0111123 -5.61602e-24)
(0.0207024 0.0105993 -6.50785e-25)
(0.0210932 0.0100464 1.15735e-23)
(0.0214699 0.00945572 1.83861e-25)
(0.0218318 0.00882966 -2.41143e-24)
(0.0221785 0.00817047 -2.06804e-24)
(0.0225098 0.00748043 -4.27587e-24)
(0.0228253 0.00676184 8.89001e-25)
(0.0231249 0.00601694 3.81551e-24)
(0.0234085 0.00524793 3.12205e-24)
(0.0236761 0.00445697 -2.24117e-24)
(0.0239277 0.00364614 1.9563e-25)
(0.0241634 0.00281744 3.81028e-24)
(0.0243833 0.0019728 1.10396e-24)
(0.0245876 0.00111402 3.7001e-25)
(0.0247764 0.000242823 1.19616e-24)
(0.0249499 -0.000639191 9.71311e-25)
(0.0251085 -0.00153054 -2.61364e-24)
(0.0252523 -0.00242986 -7.27323e-25)
(0.0253818 -0.0033359 7.5306e-24)
(0.025497 -0.00424752 5.30117e-24)
(0.0255984 -0.00516365 6.19453e-25)
(0.0256862 -0.00608331 -2.75611e-24)
(0.0257607 -0.00700548 -2.19234e-24)
(0.0258221 -0.00792915 -6.48639e-25)
(0.0258708 -0.0088529 2.60569e-24)
(0.0259071 -0.00977594 1.08426e-23)
(0.0116424 -0.00682952 0)
(0.0256876 -0.010003 0)
(0.0255443 -0.00971077 0)
(0.0252619 -0.0094234 0)
(0.0248921 -0.0091361 0)
(0.0243867 -0.00885514 0)
(0.0237625 -0.00858591 0)
(0.0229686 -0.00832523 0)
(0.0220956 -0.00808204 0)
(0.0209934 -0.00785279 0)
(0.0197994 -0.00763679 0)
(0.0185447 -0.0074456 0)
(0.01696 -0.00726221 0)
(0.0153656 -0.00709806 0)
(0.0137353 -0.00696214 0)
(0.00106065 0.00241712 0)
(0.00133476 0.00275032 0)
(0.0016367 0.00310723 0)
(0.0019574 0.00348523 0)
(0.0022904 0.00388296 0)
(0.00263023 0.00429742 0)
(0.00297185 0.00472374 0)
(0.00331532 0.00515858 0)
(0.00365989 0.0055983 0)
(0.00400498 0.00603926 0)
(0.00435121 0.0064778 0)
(0.00470037 0.00691022 0)
(0.0050542 0.00733287 0)
(0.00541257 0.00774212 0)
(0.00577241 0.00813441 0)
(0.00612914 0.00850629 0)
(0.00647914 0.00885449 0)
(0.00682128 0.00917604 0)
(0.0071574 0.00946805 0)
(0.0074929 0.00972806 0)
(0.00782787 0.00995375 0)
(0.00816023 0.0101425 0)
(0.00849333 0.0102925 0)
(0.00882594 0.0104021 0)
(0.00915819 0.0104696 0)
(0.0094898 0.0104941 0)
(0.00982011 0.0104747 0)
(0.0101488 0.010411 0)
(0.0104758 0.0103027 0)
(0.0108008 0.0101504 0)
(0.0111227 0.00995437 0)
(0.011439 0.00971519 0)
(0.0117459 0.00943357 0)
(0.0120419 0.00911072 0)
(0.0123293 0.00874787 0)
(0.0126132 0.00834706 0)
(0.0128885 0.00790777 0)
(0.0131532 0.00743121 0)
(0.0134141 0.00692246 0)
(0.0136679 0.00638286 0)
(0.0139142 0.00581371 0)
(0.0141542 0.00521635 0)
(0.0143886 0.00459276 0)
(0.0146159 0.0039461 0)
(0.0148321 0.00328075 0)
(0.0150307 0.00260105 0)
(0.0151995 0.00190961 0)
(0.0153207 0.00120761 0)
(0.0153761 0.000497893 0)
(0.015358 -0.000213209 0)
(0.015278 -0.000919092 0)
(0.0151608 -0.00161599 0)
(0.0150256 -0.00230179 0)
(0.0148692 -0.00297397 0)
(0.014671 -0.00362741 0)
(0.0144055 -0.00425486 0)
(0.0140525 -0.00484988 0)
(0.0136015 -0.00540716 0)
(0.0130503 -0.00592405 0)
(0.0123933 -0.00639834 0)
(0.00904949 -0.00664771 0)
(0.0110777 -0.00679664 0)
(0.0126745 -0.00694872 0)
(0.0141394 -0.00711773 0)
(0.0156769 -0.00731929 0)
(0.0169524 -0.00752627 0)
(0.0180288 -0.00774768 0)
(0.0190946 -0.00799437 0)
(0.0199686 -0.00824798 0)
(0.0206621 -0.00851701 0)
(0.0212773 -0.00880085 0)
(0.0217289 -0.00908926 0)
(0.0220466 -0.00938705 0)
(0.0222638 -0.00968368 0)
(0.0223238 -0.00998433 0)
(0.00212514 0.0034538 0)
(0.00640444 0.0044547 0)
(0.00630818 0.00440941 0)
(0.00617203 0.00436203 0)
(0.00600604 0.00431039 0)
(0.00580657 0.00425464 0)
(0.00557329 0.00419567 0)
(0.00531667 0.00413165 0)
(0.00501571 0.00406231 0)
(0.00468656 0.00398973 0)
(0.00434155 0.00391326 0)
(0.00395224 0.00383493 0)
(0.00355272 0.00375126 0)
(0.00311982 0.00366186 0)
(0.00261018 0.00356493 0)
(0.00971021 -0.00620639 0)
(0.0102846 -0.00571971 0)
(0.0107663 -0.00518783 0)
(0.0111625 -0.00461391 0)
(0.0114775 -0.00400141 0)
(0.0117175 -0.00335505 0)
(0.0118981 -0.00268079 0)
(0.0120435 -0.00198583 0)
(0.0121754 -0.00127564 0)
(0.0122996 -0.000553589 0)
(0.0123989 0.000177638 0)
(0.0124493 0.000914409 0)
(0.0124382 0.00165045 0)
(0.0123712 0.00237936 0)
(0.012265 0.00309783 0)
(0.0121367 0.00380434 0)
(0.0119982 0.00449627 0)
(0.0118563 0.00516938 0)
(0.0117151 0.00581931 0)
(0.0115762 0.00644268 0)
(0.0114389 0.00703724 0)
(0.0113014 0.00760148 0)
(0.011164 0.00813399 0)
(0.0110295 0.00863339 0)
(0.0108902 0.00909449 0)
(0.0107472 0.00951616 0)
(0.0106059 0.00989901 0)
(0.0104607 0.010241 0)
(0.0103082 0.010541 0)
(0.0101492 0.0107978 0)
(0.00998668 0.011011 0)
(0.0098225 0.0111802 0)
(0.00965689 0.011305 0)
(0.00948919 0.0113853 0)
(0.0093185 0.0114213 0)
(0.00914416 0.0114135 0)
(0.00896587 0.0113626 0)
(0.00878297 0.0112697 0)
(0.00859437 0.0111359 0)
(0.00840062 0.0109634 0)
(0.00819668 0.010754 0)
(0.00798373 0.0105103 0)
(0.00776144 0.0102347 0)
(0.00752339 0.00992924 0)
(0.0072667 0.00959663 0)
(0.00699166 0.00923996 0)
(0.00670147 0.00886239 0)
(0.00640052 0.00846677 0)
(0.00609173 0.00805576 0)
(0.00577499 0.00763226 0)
(0.0054482 0.00719961 0)
(0.00510925 0.00676159 0)
(0.00475742 0.00632212 0)
(0.00439352 0.00588472 0)
(0.0040189 0.00545212 0)
(0.00363397 0.00502643 0)
(0.00324451 0.0046121 0)
(0.00285651 0.00421168 0)
(0.0024767 0.00382503 0)
(0.00302946 0.00394862 0)
(0.00357019 0.00406021 0)
(0.00400785 0.00416962 0)
(0.00443101 0.00426929 0)
(0.00485235 0.00436303 0)
(0.00520601 0.00445854 0)
(0.00555062 0.0045456 0)
(0.00587052 0.00462983 0)
(0.00613008 0.00471035 0)
(0.00637717 0.00478289 0)
(0.00658119 0.00485354 0)
(0.00674849 0.00491643 0)
(0.00688331 0.00497368 0)
(0.00697622 0.00502357 0)
(0.00346193 0.00434997 0)
(0.00401315 0.00447922 0)
(0.00446108 0.00460638 0)
(0.00492183 0.00472179 0)
(0.00535667 0.00483379 0)
(0.00572006 0.00494546 0)
(0.00608717 0.00504807 0)
(0.0064122 0.00514906 0)
(0.00668097 0.00524418 0)
(0.00693746 0.00533191 0)
(0.00714257 0.00541552 0)
(0.00731191 0.0054894 0)
(0.00744519 0.00555514 0)
(0.00753388 0.0056104 0)
(0.00389418 0.00476584 0)
(0.00444939 0.00491406 0)
(0.00491525 0.00505846 0)
(0.00541039 0.00518988 0)
(0.00585418 0.00531982 0)
(0.00622969 0.0054479 0)
(0.00661652 0.00556645 0)
(0.00694482 0.00568411 0)
(0.00722089 0.00579361 0)
(0.00748478 0.00589513 0)
(0.00768973 0.00599143 0)
(0.00786 0.0060758 0)
(0.00799242 0.00615025 0)
(0.00807949 0.00621196 0)
(0.0043215 0.00519626 0)
(0.00487985 0.00536223 0)
(0.0053662 0.00552318 0)
(0.00589438 0.00567089 0)
(0.0063477 0.00581969 0)
(0.00673219 0.00596394 0)
(0.00713608 0.0060973 0)
(0.00746888 0.00623053 0)
(0.0077468 0.00635403 0)
(0.00801781 0.00646851 0)
(0.00822327 0.00657688 0)
(0.0083928 0.00667148 0)
(0.00852475 0.00675414 0)
(0.00861018 0.00682172 0)
(0.00474074 0.00563664 0)
(0.00530428 0.00582035 0)
(0.00581085 0.00599771 0)
(0.00637149 0.00616122 0)
(0.00683401 0.00632784 0)
(0.00722333 0.00648813 0)
(0.00764254 0.00663575 0)
(0.00798098 0.00678401 0)
(0.00825995 0.00692109 0)
(0.00853473 0.00704766 0)
(0.0087415 0.00716732 0)
(0.00891052 0.00727165 0)
(0.00904122 0.00736189 0)
(0.00912477 0.00743452 0)
(0.00515247 0.00608403 0)
(0.00572266 0.00628526 0)
(0.00624609 0.00647903 0)
(0.00683808 0.00665746 0)
(0.0073111 0.00684045 0)
(0.00770174 0.00701662 0)
(0.00813376 0.00717811 0)
(0.00847929 0.00733998 0)
(0.00875889 0.00749016 0)
(0.00903638 0.00762825 0)
(0.0092434 0.0077583 0)
(0.00941236 0.00787156 0)
(0.00954179 0.00796866 0)
(0.00962304 0.00804563 0)
(0.00555619 0.00653571 0)
(0.00613441 0.00675377 0)
(0.0066701 0.00696365 0)
(0.00729085 0.00715605 0)
(0.00777729 0.00735398 0)
(0.00816868 0.0075453 0)
(0.00860904 0.00772035 0)
(0.00896195 0.00789495 0)
(0.0092438 0.00805687 0)
(0.00952232 0.00820523 0)
(0.00972924 0.00834537 0)
(0.00989758 0.00846687 0)
(0.0100256 0.00856982 0)
(0.0101043 0.00865042 0)
(0.00594982 0.00698869 0)
(0.00653887 0.00722228 0)
(0.00708304 0.00744776 0)
(0.00772763 0.00765303 0)
(0.00823055 0.00786491 0)
(0.0086249 0.00807059 0)
(0.00907112 0.00825847 0)
(0.00942849 0.00844499 0)
(0.00971348 0.00861785 0)
(0.00999501 0.00877688 0)
(0.0102003 0.00892562 0)
(0.0103661 0.00905328 0)
(0.010492 0.00916111 0)
(0.0105682 0.0092446 0)
(0.00633081 0.00743958 0)
(0.00693453 0.00768717 0)
(0.00748602 0.00792759 0)
(0.00815063 0.00814682 0)
(0.00866951 0.00837143 0)
(0.00906863 0.00858868 0)
(0.00952105 0.0087883 0)
(0.00988066 0.00898598 0)
(0.0101667 0.00916879 0)
(0.0104509 0.00933659 0)
(0.0106545 0.00949279 0)
(0.0108177 0.00962627 0)
(0.0109411 0.00973828 0)
(0.0110144 0.00982404 0)
(0.00669721 0.00788483 0)
(0.00731861 0.00814509 0)
(0.00787902 0.00839911 0)
(0.00856047 0.00863131 0)
(0.00909116 0.00886787 0)
(0.00949682 0.00909589 0)
(0.00995737 0.00930575 0)
(0.010319 0.00951355 0)
(0.0106042 0.0097053 0)
(0.0108894 0.00988072 0)
(0.0110912 0.0100434 0)
(0.0112519 0.0101818 0)
(0.0113726 0.0102973 0)
(0.011443 0.0103848 0)
(0.00704897 0.00832076 0)
(0.00768839 0.00859278 0)
(0.00826057 0.00885863 0)
(0.00895841 0.00910246 0)
(0.0094975 0.0093505 0)
(0.00990832 0.00958863 0)
(0.0103781 0.00980733 0)
(0.0107424 0.0100238 0)
(0.0110264 0.0102233 0)
(0.0113116 0.0104054 0)
(0.0115109 0.0105736 0)
(0.011669 0.0107162 0)
(0.0117869 0.0108345 0)
(0.011854 0.0109232 0)
(0.00738856 0.00874371 0)
(0.00804367 0.00902685 0)
(0.00862851 0.00930248 0)
(0.0093462 0.00955689 0)
(0.00989172 0.00981548 0)
(0.0103051 0.0100629 0)
(0.0107827 0.0102894 0)
(0.0111495 0.0105132 0)
(0.0114324 0.0107192 0)
(0.0117177 0.0109068 0)
(0.0119142 0.0110798 0)
(0.0120694 0.0112258 0)
(0.0121842 0.0113462 0)
(0.0122479 0.0114356 0)
(0.00771853 0.00915016 0)
(0.00838619 0.00944394 0)
(0.00898333 0.00972947 0)
(0.00972165 0.00999279 0)
(0.0102738 0.0102594 0)
(0.0106889 0.0105147 0)
(0.0111726 0.0107481 0)
(0.0115406 0.0109782 0)
(0.0118222 0.0111894 0)
(0.0121075 0.0113816 0)
(0.0123012 0.0115584 0)
(0.0124534 0.0117071 0)
(0.012565 0.011829 0)
(0.0126252 0.0119187 0)
(0.0080384 0.00953695 0)
(0.00871673 0.00984035 0)
(0.00932461 0.0101347 0)
(0.0100812 0.0104054 0)
(0.0106418 0.0106789 0)
(0.0110593 0.0109408 0)
(0.0115484 0.0111798 0)
(0.0119172 0.0114151 0)
(0.0121972 0.0116307 0)
(0.0124823 0.0118264 0)
(0.012673 0.0120062 0)
(0.0128218 0.0121568 0)
(0.0129302 0.0122797 0)
(0.0129868 0.0123693 0)
(0.00834509 0.00990119 0)
(0.00903411 0.0102121 0)
(0.0096538 0.0105149 0)
(0.0104269 0.0107918 0)
(0.0109957 0.0110711 0)
(0.0114158 0.0113381 0)
(0.0119106 0.0115815 0)
(0.0122802 0.0118209 0)
(0.0125587 0.0120398 0)
(0.0128433 0.0122382 0)
(0.0130305 0.0124201 0)
(0.0131759 0.012572 0)
(0.0132807 0.0126953 0)
(0.0133337 0.0127844 0)
(0.00863579 0.0102402 0)
(0.00933889 0.010558 0)
(0.00997173 0.0108677 0)
(0.0107605 0.0111488 0)
(0.0113365 0.0114327 0)
(0.0117588 0.0117037 0)
(0.0122595 0.0119501 0)
(0.0126304 0.0121924 0)
(0.0129072 0.0124135 0)
(0.0131911 0.0126137 0)
(0.0133747 0.0127971 0)
(0.0135165 0.0129494 0)
(0.0136177 0.0130727 0)
(0.013667 0.013161 0)
(0.00890893 0.0105509 0)
(0.00962887 0.0108744 0)
(0.0102754 0.0111888 0)
(0.0110819 0.0114733 0)
(0.0116649 0.0117606 0)
(0.0120893 0.0120343 0)
(0.0125961 0.0122826 0)
(0.0129682 0.0125267 0)
(0.0132427 0.0127486 0)
(0.0135265 0.0129503 0)
(0.0137065 0.0131343 0)
(0.0138445 0.0132865 0)
(0.0139423 0.0134091 0)
(0.0139881 0.0134964 0)
(0.00916486 0.0108301 0)
(0.009904 0.0111588 0)
(0.010565 0.0114764 0)
(0.0113897 0.0117627 0)
(0.0119803 0.012052 0)
(0.0124075 0.0123273 0)
(0.012921 0.0125764 0)
(0.0132945 0.0128214 0)
(0.0135675 0.0130441 0)
(0.0138509 0.0132461 0)
(0.0140266 0.0134292 0)
(0.0141611 0.0135805 0)
(0.0142558 0.0137021 0)
(0.0142983 0.0137879 0)
(0.00940997 0.0110766 0)
(0.0101672 0.011409 0)
(0.0108413 0.0117278 0)
(0.011684 0.0120146 0)
(0.012283 0.0123047 0)
(0.0127142 0.0125804 0)
(0.0132348 0.0128292 0)
(0.01361 0.0130741 0)
(0.0138815 0.0132963 0)
(0.0141639 0.0134973 0)
(0.0143363 0.0136792 0)
(0.0144677 0.0138291 0)
(0.0145594 0.0139491 0)
(0.0145989 0.0140331 0)
(0.00964898 0.0112879 0)
(0.0104197 0.0116213 0)
(0.0111061 0.0119405 0)
(0.0119666 0.0122266 0)
(0.0125748 0.0125163 0)
(0.0130108 0.0127913 0)
(0.0135388 0.0130387 0)
(0.0139155 0.0132824 0)
(0.0141856 0.013503 0)
(0.0144674 0.013702 0)
(0.0146369 0.0138821 0)
(0.0147655 0.0140299 0)
(0.0148547 0.0141479 0)
(0.0148915 0.0142299 0)
(0.00987864 0.0114612 0)
(0.0106624 0.0117942 0)
(0.011361 0.0121125 0)
(0.0122399 0.0123966 0)
(0.0128578 0.0126847 0)
(0.0132985 0.0129578 0)
(0.0138334 0.0132028 0)
(0.0142118 0.0134443 0)
(0.0144809 0.0136623 0)
(0.0147626 0.0138585 0)
(0.0149296 0.0140359 0)
(0.015056 0.0141811 0)
(0.015143 0.0142965 0)
(0.0151772 0.0143761 0)
(0.0100986 0.0115938 0)
(0.0108962 0.0119256 0)
(0.011608 0.0122419 0)
(0.0125055 0.0125229 0)
(0.0131327 0.0128083 0)
(0.0135776 0.0130784 0)
(0.0141192 0.0133197 0)
(0.0144996 0.0135579 0)
(0.0147684 0.0137724 0)
(0.0150504 0.013965 0)
(0.0152155 0.0141391 0)
(0.0153401 0.0142808 0)
(0.0154253 0.0143932 0)
(0.0154572 0.0144701 0)
(0.0103116 0.0116843 0)
(0.011123 0.0120138 0)
(0.0118482 0.0123272 0)
(0.0127638 0.0126038 0)
(0.0133995 0.0128854 0)
(0.0138482 0.0131514 0)
(0.0143969 0.013388 0)
(0.0147798 0.013622 0)
(0.0150489 0.0138322 0)
(0.0153319 0.0140202 0)
(0.0154956 0.0141901 0)
(0.0156185 0.0143278 0)
(0.0157023 0.0144367 0)
(0.0157324 0.0145105 0)
(0.010519 0.0117315 0)
(0.0113439 0.0120577 0)
(0.0120819 0.0123669 0)
(0.0130147 0.0126383 0)
(0.0136586 0.012915 0)
(0.0141115 0.0131757 0)
(0.0146677 0.0134065 0)
(0.0150532 0.0136353 0)
(0.015324 0.0138408 0)
(0.0156083 0.0140232 0)
(0.0157707 0.014188 0)
(0.0158923 0.0143211 0)
(0.0159749 0.0144259 0)
(0.0160035 0.0144963 0)
(0.0107213 0.0117343 0)
(0.0115588 0.0120562 0)
(0.0123091 0.0123603 0)
(0.0132588 0.0126253 0)
(0.0139109 0.012896 0)
(0.0143685 0.0131505 0)
(0.0149325 0.0133745 0)
(0.0153219 0.0135969 0)
(0.0155947 0.0137968 0)
(0.0158804 0.0139729 0)
(0.0160419 0.0141321 0)
(0.0161621 0.0142599 0)
(0.0162438 0.0143602 0)
(0.0162711 0.014427 0)
(0.0109186 0.0116921 0)
(0.0117679 0.0120084 0)
(0.0125302 0.0123063 0)
(0.0134967 0.012564 0)
(0.0141571 0.0128279 0)
(0.0146194 0.0130752 0)
(0.0151916 0.0132916 0)
(0.0155853 0.0135071 0)
(0.0158599 0.0136999 0)
(0.016148 0.013869 0)
(0.0163092 0.0140219 0)
(0.0164287 0.014144 0)
(0.0165095 0.0142394 0)
(0.0165356 0.0143022 0)
(0.0111116 0.0116042 0)
(0.0119722 0.0119137 0)
(0.0127462 0.0122044 0)
(0.0137291 0.0124539 0)
(0.0143976 0.0127102 0)
(0.0148649 0.0129495 0)
(0.0154456 0.0131576 0)
(0.0158439 0.0133654 0)
(0.0161207 0.0135502 0)
(0.0164111 0.0137117 0)
(0.0165726 0.0138577 0)
(0.016692 0.0139734 0)
(0.0167721 0.0140636 0)
(0.0167972 0.0141223 0)
(0.0113018 0.0114705 0)
(0.0121729 0.0117721 0)
(0.0129582 0.0120547 0)
(0.0139572 0.0122951 0)
(0.0146339 0.0125428 0)
(0.0151062 0.0127734 0)
(0.0156947 0.0129724 0)
(0.0160988 0.0131722 0)
(0.0163776 0.0133478 0)
(0.0166704 0.0135011 0)
(0.0168323 0.0136397 0)
(0.0169519 0.0137488 0)
(0.0170317 0.0138334 0)
(0.017056 0.0138877 0)
(0.0114905 0.0112914 0)
(0.0123717 0.0115841 0)
(0.0131678 0.0118573 0)
(0.0141824 0.0120876 0)
(0.0148668 0.012326 0)
(0.0153439 0.0125469 0)
(0.0159405 0.0127356 0)
(0.0163501 0.0129269 0)
(0.0166309 0.0130933 0)
(0.0169262 0.0132379 0)
(0.0170886 0.0133688 0)
(0.0172085 0.0134708 0)
(0.0172882 0.0135497 0)
(0.0173119 0.0135995 0)
(0.0116777 0.0110675 0)
(0.012569 0.0113501 0)
(0.0133756 0.0116129 0)
(0.0144051 0.0118322 0)
(0.0150966 0.0120605 0)
(0.0155783 0.0122713 0)
(0.0161833 0.0124496 0)
(0.016597 0.012631 0)
(0.0168801 0.0127877 0)
(0.0171785 0.0129232 0)
(0.0173416 0.013046 0)
(0.0174618 0.0131408 0)
(0.0175416 0.0132137 0)
(0.0175647 0.013259 0)
(0.0118618 0.0107989 0)
(0.0127636 0.0110706 0)
(0.0135808 0.0113222 0)
(0.0146249 0.0115298 0)
(0.0153232 0.0117472 0)
(0.015809 0.0119475 0)
(0.0164237 0.0121153 0)
(0.0168404 0.0122857 0)
(0.0171254 0.0124323 0)
(0.0174271 0.0125583 0)
(0.017591 0.0126728 0)
(0.0177117 0.0127602 0)
(0.0177917 0.012827 0)
(0.0178142 0.0128677 0)
(0.0120395 0.0104863 0)
(0.0129528 0.0107463 0)
(0.0137817 0.0109861 0)
(0.0148409 0.0111814 0)
(0.0155465 0.0113872 0)
(0.0160371 0.0115754 0)
(0.016661 0.0117323 0)
(0.0170803 0.0118921 0)
(0.0173671 0.0120283 0)
(0.0176717 0.0121448 0)
(0.0178365 0.0122508 0)
(0.0179578 0.0123306 0)
(0.0180381 0.0123913 0)
(0.01806 0.0124276 0)
(0.0122099 0.0101307 0)
(0.0131358 0.0103784 0)
(0.0139773 0.0106058 0)
(0.0150521 0.0107883 0)
(0.0157652 0.0109823 0)
(0.0162625 0.0111591 0)
(0.0168936 0.0113032 0)
(0.017316 0.0114519 0)
(0.0176046 0.0115776 0)
(0.0179117 0.0116843 0)
(0.0180776 0.0117818 0)
(0.0181998 0.0118542 0)
(0.0182805 0.0119088 0)
(0.0183019 0.0119406 0)
(0.0123758 0.00973382 0)
(0.0133142 0.00996837 0)
(0.0141685 0.0101826 0)
(0.0152584 0.0103519 0)
(0.0159814 0.0105331 0)
(0.0164847 0.0106973 0)
(0.0171218 0.0108295 0)
(0.0175473 0.010967 0)
(0.0178374 0.0110821 0)
(0.018147 0.011179 0)
(0.0183141 0.0112679 0)
(0.0184373 0.0113329 0)
(0.0185183 0.0113816 0)
(0.0185393 0.0114091 0)
(0.0125408 0.00929705 0)
(0.0134901 0.00951783 0)
(0.0143556 0.00971832 0)
(0.0154639 0.00987295 0)
(0.0161956 0.010041 0)
(0.0167023 0.010193 0)
(0.0173458 0.0103131 0)
(0.0177739 0.0104393 0)
(0.0180654 0.0105437 0)
(0.0183776 0.010631 0)
(0.0185457 0.0107113 0)
(0.0186697 0.010769 0)
(0.0187512 0.010812 0)
(0.0187719 0.0108354 0)
(0.0127038 0.00882219 0)
(0.0136636 0.00902874 0)
(0.0145419 0.00921351 0)
(0.0156676 0.00935345 0)
(0.016405 0.00950868 0)
(0.0169155 0.00964816 0)
(0.017565 0.00975601 0)
(0.0179957 0.009871 0)
(0.0182888 0.00996484 0)
(0.0186035 0.0100425 0)
(0.0187723 0.0101144 0)
(0.0188969 0.010165 0)
(0.0189788 0.0102024 0)
(0.0189994 0.0102219 0)
(0.0128639 0.00830673 0)
(0.0138356 0.00849863 0)
(0.014727 0.00866994 0)
(0.0158657 0.00879598 0)
(0.0166094 0.00893801 0)
(0.017124 0.00906475 0)
(0.0177798 0.00916036 0)
(0.0182131 0.00926416 0)
(0.0185074 0.00934756 0)
(0.018824 0.00941579 0)
(0.0189933 0.00947958 0)
(0.0191185 0.00952319 0)
(0.019201 0.00955524 0)
(0.0192214 0.00957116 0)
(0.0130233 0.00775761 0)
(0.0140055 0.00793429 0)
(0.0149079 0.00809091 0)
(0.0160599 0.00820245 0)
(0.01681 0.008331 0)
(0.0173285 0.00844489 0)
(0.0179899 0.00852833 0)
(0.0184253 0.00862109 0)
(0.0187207 0.00869427 0)
(0.0190391 0.00875334 0)
(0.0192088 0.00880921 0)
(0.0193347 0.00884615 0)
(0.0194175 0.0088731 0)
(0.0194376 0.00888561 0)
(0.0131811 0.00717627 0)
(0.014173 0.00733705 0)
(0.015086 0.00747828 0)
(0.0162509 0.00757496 0)
(0.0170065 0.00768991 0)
(0.0175281 0.00779101 0)
(0.0181947 0.00786243 0)
(0.018632 0.00794429 0)
(0.0189284 0.00800745 0)
(0.0192486 0.00805759 0)
(0.0194188 0.00810578 0)
(0.0195451 0.00813633 0)
(0.019628 0.00815845 0)
(0.0196476 0.00816778 0)
(0.0133371 0.00656413 0)
(0.0143377 0.00670856 0)
(0.0152605 0.00683417 0)
(0.0164374 0.00691603 0)
(0.0171978 0.00701747 0)
(0.0177222 0.00710586 0)
(0.0183938 0.00716533 0)
(0.0188331 0.00723635 0)
(0.0191305 0.0072896 0)
(0.0194524 0.00733101 0)
(0.0196228 0.00737175 0)
(0.0197492 0.0073962 0)
(0.0198321 0.00741376 0)
(0.0198511 0.00742015 0)
(0.0134929 0.00592292 0)
(0.014501 0.00605102 0)
(0.0154324 0.00616124 0)
(0.0166199 0.00622858 0)
(0.0173841 0.00631662 0)
(0.0179108 0.00639224 0)
(0.0185869 0.00643969 0)
(0.0190276 0.00649979 0)
(0.0193258 0.00654317 0)
(0.0196492 0.00657598 0)
(0.0198198 0.00660951 0)
(0.0199463 0.00662813 0)
(0.0200292 0.00664142 0)
(0.0200478 0.00664514 0)
(0.0136498 0.00525545 0)
(0.0146637 0.00536769 0)
(0.0156018 0.00546292 0)
(0.0167978 0.00551583 0)
(0.017564 0.00559022 0)
(0.0180914 0.0056527 0)
(0.018771 0.00568789 0)
(0.0192128 0.00573695 0)
(0.0195119 0.00577051 0)
(0.0198373 0.00579488 0)
(0.0200087 0.0058214 0)
(0.0201358 0.00583449 0)
(0.020219 0.00584381 0)
(0.0202373 0.00584512 0)
(0.0138053 0.00456562 0)
(0.0148225 0.00466247 0)
(0.0157642 0.00474255 0)
(0.0169653 0.00478047 0)
(0.0177311 0.0048405 0)
(0.0182582 0.00488945 0)
(0.0189413 0.00491229 0)
(0.0193856 0.00495034 0)
(0.0196872 0.00497414 0)
(0.020016 0.00499019 0)
(0.0201892 0.00500987 0)
(0.0203176 0.00501764 0)
(0.0204013 0.00502324 0)
(0.0204194 0.00502239 0)
(0.0139532 0.00385748 0)
(0.014969 0.00393848 0)
(0.0159098 0.00400233 0)
(0.0171128 0.00402436 0)
(0.0178773 0.00406972 0)
(0.018406 0.00410521 0)
(0.019096 0.0041158 0)
(0.019546 0.00414277 0)
(0.0198528 0.00415669 0)
(0.0201862 0.00416435 0)
(0.0203617 0.00417722 0)
(0.0204915 0.00417984 0)
(0.0205759 0.00418195 0)
(0.0205938 0.00417915 0)
(0.0140836 0.00313399 0)
(0.0150914 0.00319759 0)
(0.0160271 0.00324417 0)
(0.0172319 0.00325039 0)
(0.0179995 0.00328146 0)
(0.0185363 0.0033035 0)
(0.0192387 0.00330142 0)
(0.0196977 0.00331674 0)
(0.0200105 0.00332045 0)
(0.0203485 0.00331962 0)
(0.0205262 0.00332572 0)
(0.0206574 0.00332331 0)
(0.0207425 0.00332208 0)
(0.0207602 0.00331753 0)
(0.0141825 0.00239692 0)
(0.0151768 0.00244217 0)
(0.0161088 0.00247207 0)
(0.0173233 0.00246321 0)
(0.0181047 0.00247962 0)
(0.0186575 0.00248707 0)
(0.0193747 0.00247134 0)
(0.0198414 0.00247456 0)
(0.0201586 0.00246791 0)
(0.0205007 0.00245849 0)
(0.0206811 0.00245768 0)
(0.0208144 0.00245019 0)
(0.0209006 0.00244569 0)
(0.0209184 0.00243955 0)
(0.0142353 0.001649 0)
(0.0152191 0.00167719 0)
(0.0161602 0.00169142 0)
(0.0173998 0.00166655 0)
(0.0182043 0.00166638 0)
(0.0187725 0.00165801 0)
(0.0194993 0.00162842 0)
(0.0199706 0.00161951 0)
(0.0202933 0.00160208 0)
(0.0206419 0.00158339 0)
(0.0208267 0.00157521 0)
(0.0209628 0.00156246 0)
(0.0210503 0.00155471 0)
(0.0210682 0.0015471 0)
(0.0142361 0.00089574 0)
(0.015227 0.000908305 0)
(0.0161985 0.000905433 0)
(0.0174737 0.000862116 0)
(0.0182955 0.000844292 0)
(0.0188685 0.000820402 0)
(0.0196021 0.000777059 0)
(0.0200838 0.000754874 0)
(0.020418 0.000725057 0)
(0.0207754 0.000696193 0)
(0.0209644 0.000680219 0)
(0.0211028 0.000662018 0)
(0.0211914 0.000650979 0)
(0.0212093 0.000641992 0)
(0.0141958 0.000143189 0)
(0.015221 0.000138594 0)
(0.0162354 0.00011582 0)
(0.0175346 5.33451e-05 0)
(0.0183573 1.87852e-05 0)
(0.0189357 -2.046e-05 0)
(0.01969 -7.96191e-05 0)
(0.0201917 -0.000117802 0)
(0.020537 -0.000160992 0)
(0.0208998 -0.000200379 0)
(0.0210916 -0.000224757 0)
(0.0212329 -0.000249051 0)
(0.0213232 -0.000263708 0)
(0.0213415 -0.00027408 0)
(0.0141369 -0.000605065 0)
(0.0152132 -0.000629859 0)
(0.0162552 -0.000673313 0)
(0.0175556 -0.00075342 0)
(0.0183836 -0.000804114 0)
(0.0189916 -0.000861469 0)
(0.0197775 -0.000940229 0)
(0.0202916 -0.000994845 0)
(0.0206401 -0.00105131 0)
(0.0210076 -0.0011028 0)
(0.0212068 -0.00113746 0)
(0.0213536 -0.00116903 0)
(0.021446 -0.00118771 0)
(0.0214645 -0.00119955 0)
(0.0140744 -0.00134642 0)
(0.0151873 -0.00139291 0)
(0.0162275 -0.00145519 0)
(0.0175333 -0.00155111 0)
(0.018399 -0.00162068 0)
(0.0190482 -0.00170103 0)
(0.0198499 -0.00179881 0)
(0.0203653 -0.00186893 0)
(0.0207207 -0.00194201 0)
(0.0211055 -0.00200907 0)
(0.0213171 -0.00205613 0)
(0.0214665 -0.00209587 0)
(0.0215594 -0.00211929 0)
(0.0215785 -0.00213298 0)
(0.0139968 -0.0020773 0)
(0.0151119 -0.00214374 0)
(0.0161458 -0.00222138 0)
(0.0174925 -0.00233506 0)
(0.0184131 -0.00242937 0)
(0.0190838 -0.00253114 0)
(0.019888 -0.00264565 0)
(0.0204122 -0.00273657 0)
(0.0207967 -0.00283079 0)
(0.0212054 -0.00291579 0)
(0.0214167 -0.00297666 0)
(0.0215657 -0.00302657 0)
(0.0216625 -0.00305677 0)
(0.0216832 -0.003073 0)
(0.0138763 -0.00279167 0)
(0.0149726 -0.00287309 0)
(0.0160285 -0.00296629 0)
(0.0174449 -0.00310375 0)
(0.0184064 -0.00322083 0)
(0.0190801 -0.00334022 0)
(0.0198903 -0.00347747 0)
(0.0204551 -0.00359347 0)
(0.0208799 -0.00371063 0)
(0.0212833 -0.00381564 0)
(0.0214922 -0.00389392 0)
(0.0216542 -0.00395907 0)
(0.0217583 -0.00399868 0)
(0.0217786 -0.00401827 0)
(0.0136903 -0.00348092 0)
(0.014775 -0.00357468 0)
(0.0158919 -0.00368769 0)
(0.0173821 -0.00384766 0)
(0.0183577 -0.00398318 0)
(0.0190237 -0.0041244 0)
(0.0198818 -0.00428692 0)
(0.0205106 -0.00442936 0)
(0.0209278 -0.00457193 0)
(0.0213267 -0.00470079 0)
(0.0215648 -0.00480451 0)
(0.0217426 -0.00489003 0)
(0.0218457 -0.00494213 0)
(0.0218636 -0.00496737 0)
(0.0134295 -0.00413843 0)
(0.0145336 -0.00424479 0)
(0.0157401 -0.00437753 0)
(0.0172803 -0.00455705 0)
(0.01824 -0.00471077 0)
(0.0189426 -0.00487325 0)
(0.0198876 -0.00506328 0)
(0.020521 -0.00523356 0)
(0.020932 -0.00540231 0)
(0.0213758 -0.00556382 0)
(0.0216401 -0.00569945 0)
(0.0218175 -0.00581076 0)
(0.0219171 -0.00588303 0)
(0.0219395 -0.00591897 0)
(0.0130974 -0.00475895 0)
(0.0142591 -0.00487756 0)
(0.0155562 -0.00502945 0)
(0.0171073 -0.00522394 0)
(0.0180755 -0.00539172 0)
(0.01886 -0.00557917 0)
(0.0198459 -0.00579532 0)
(0.020483 -0.00598854 0)
(0.0209359 -0.00619053 0)
(0.0214195 -0.00638952 0)
(0.0216949 -0.00656099 0)
(0.0218713 -0.00671004 0)
(0.0219827 -0.00681574 0)
(0.0220091 -0.00687048 0)
(0.0126998 -0.00533817 0)
(0.0139467 -0.00546916 0)
(0.0153149 -0.00563495 0)
(0.0168676 -0.00583796 0)
(0.0178732 -0.00602215 0)
(0.0187346 -0.00623055 0)
(0.0197613 -0.00646398 0)
(0.0204162 -0.00668328 0)
(0.020918 -0.00691852 0)
(0.0214454 -0.00715255 0)
(0.0217261 -0.00736751 0)
(0.021924 -0.00756816 0)
(0.0220505 -0.00772361 0)
(0.0220688 -0.00781555 0)
(0.0122362 -0.00587306 0)
(0.0135833 -0.00601327 0)
(0.015005 -0.0061872 0)
(0.0165547 -0.006396 0)
(0.0176223 -0.00659142 0)
(0.0185714 -0.00681338 0)
(0.0196125 -0.00706106 0)
(0.0203061 -0.00730044 0)
(0.0208874 -0.00756128 0)
(0.0214353 -0.00782689 0)
(0.0217434 -0.00808592 0)
(0.0219816 -0.00834226 0)
(0.0221115 -0.00856752 0)
(0.0221261 -0.00873415 0)
(0.0117119 -0.00636087 0)
(0.0131521 -0.00650567 0)
(0.0146049 -0.00668215 0)
(0.0161798 -0.00689191 0)
(0.0173158 -0.00709274 0)
(0.0183239 -0.00732134 0)
(0.0194119 -0.00757382 0)
(0.0201587 -0.00782381 0)
(0.0208021 -0.00809986 0)
(0.0213932 -0.00838326 0)
(0.0217431 -0.00867089 0)
(0.0220324 -0.00897003 0)
(0.0221808 -0.00926273 0)
(0.0222121 -0.00954465 0)
(-0.0046273 -0.00370925 0)
(-0.00539335 -0.00434395 0)