/*--------------------------------*- C++ -*----------------------------------*\
| =========                 |                                                 |
| \\      /  F ield         | OpenFOAM Extend Project: Open source CFD        |
|  \\    /   O peration     | Version:  1.6-ext                               |
|   \\  /    A nd           | Web:      www.extend-project.de                 |
|    \\/     M anipulation  |                                                 |
\*---------------------------------------------------------------------------*/
FoamFile
{
    version     2.0;
    format      ascii;
    class       volScalarField;
    location    "0.4";
    object      p;
}
// * * * * * * * * * * * * * * * * * * * * * * * * * * * * * * * * * * * * * //

dimensions      [0 2 -2 0 0 0 0];

internalField   nonuniform List<scalar> 
20940
(
-0.0418544
-0.0861363
-0.132629
-0.181599
-0.232484
-0.285351
-0.339694
-0.395036
-0.450512
-0.504996
-0.5571
-0.605377
-0.648579
-0.685906
-0.717162
-0.742729
-0.763419
-0.780256
-0.794198
-0.806061
-0.81741
-0.829451
-0.0702476
-0.113394
-0.158931
-0.20633
-0.255358
-0.305846
-0.357263
-0.408996
-0.460095
-0.509412
-0.555677
-0.59772
-0.634703
-0.666279
-0.692622
-0.714329
-0.732236
-0.747241
-0.760089
-0.771354
-0.782343
-0.794059
-0.094964
-0.136751
-0.181038
-0.226614
-0.273519
-0.321345
-0.369528
-0.417333
-0.463773
-0.507753
-0.548204
-0.584297
-0.615601
-0.642147
-0.664369
-0.68295
-0.698664
-0.712234
-0.724195
-0.734907
-0.745438
-0.756608
-0.118304
-0.158522
-0.201292
-0.244779
-0.289262
-0.33409
-0.378675
-0.422187
-0.463669
-0.502164
-0.536884
-0.567368
-0.593555
-0.615759
-0.634549
-0.650596
-0.664546
-0.676939
-0.688117
-0.698271
-0.708268
-0.7188
-0.13993
-0.17848
-0.219572
-0.260811
-0.302674
-0.34427
-0.385002
-0.423996
-0.460401
-0.493484
-0.522782
-0.548187
-0.569936
-0.588513
-0.604517
-0.618534
-0.631054
-0.642443
-0.652888
-0.662449
-0.671838
-0.681653
-0.160098
-0.196918
-0.236199
-0.275047
-0.314101
-0.352247
-0.388922
-0.423278
-0.454653
-0.482592
-0.506964
-0.527957
-0.545999
-0.561639
-0.575424
-0.587814
-0.599146
-0.609638
-0.619359
-0.628282
-0.636991
-0.646019
-0.178968
-0.213996
-0.251345
-0.287678
-0.323766
-0.35831
-0.390832
-0.420587
-0.447166
-0.470412
-0.490485
-0.50778
-0.522814
-0.536116
-0.548132
-0.559189
-0.569491
-0.57914
-0.588124
-0.59636
-0.604332
-0.612523
-0.196772
-0.230044
-0.265397
-0.299118
-0.3321
-0.362928
-0.391284
-0.416596
-0.438748
-0.457854
-0.474293
-0.488567
-0.501198
-0.512637
-0.523216
-0.533139
-0.542504
-0.55133
-0.559557
-0.567068
-0.574264
-0.581589
-0.213472
-0.24491
-0.27813
-0.309144
-0.338948
-0.366084
-0.390448
-0.411679
-0.42994
-0.445559
-0.45904
-0.470913
-0.481643
-0.491584
-0.500961
-0.50988
-0.518362
-0.526376
-0.53383
-0.540596
-0.547001
-0.553458
-0.229351
-0.259045
-0.290092
-0.318327
-0.344893
-0.368391
-0.388984
-0.406542
-0.421457
-0.434191
-0.445293
-0.45525
-0.464448
-0.473141
-0.481464
-0.489456
-0.497087
-0.504293
-0.51097
-0.516986
-0.522607
-0.528216
-0.243927
-0.271636
-0.300282
-0.32572
-0.349161
-0.369343
-0.386656
-0.401161
-0.413399
-0.423885
-0.433149
-0.441612
-0.449575
-0.457212
-0.464597
-0.471723
-0.478533
-0.484947
-0.49086
-0.496145
-0.501011
-0.505813
-0.257894
-0.283737
-0.310023
-0.332654
-0.353032
-0.370113
-0.384499
-0.396409
-0.406448
-0.415122
-0.422901
-0.430129
-0.437028
-0.443716
-0.450222
-0.456515
-0.462524
-0.468165
-0.473336
-0.477916
-0.482069
-0.486119
-0.26946
-0.293049
-0.316569
-0.336639
-0.354381
-0.369046
-0.381263
-0.391334
-0.399845
-0.407258
-0.413971
-0.420264
-0.426308
-0.432185
-0.437907
-0.443434
-0.448695
-0.45361
-0.458084
-0.462009
-0.465506
-0.468871
-0.281797
-0.303061
-0.324055
-0.341544
-0.35672
-0.36912
-0.379367
-0.387816
-0.394993
-0.401297
-0.407053
-0.412478
-0.417704
-0.422787
-0.427729
-0.432491
-0.437006
-0.441198
-0.444987
-0.448274
-0.451149
-0.453879
-0.287433
-0.307593
-0.325133
-0.34077
-0.354146
-0.365323
-0.374623
-0.38238
-0.388996
-0.394802
-0.400064
-0.404972
-0.409643
-0.41414
-0.418473
-0.42262
-0.426528
-0.430132
-0.433361
-0.436127
-0.438486
-0.440668
-0.303277
-0.319341
-0.333454
-0.346361
-0.357294
-0.366487
-0.37418
-0.380668
-0.38627
-0.391235
-0.395761
-0.399981
-0.403981
-0.407803
-0.411456
-0.414918
-0.418148
-0.421094
-0.4237
-0.425898
-0.427718
-0.429339
-0.323605
-0.335509
-0.344911
-0.353997
-0.361767
-0.368663
-0.374704
-0.380048
-0.38482
-0.389127
-0.393064
-0.396699
-0.400084
-0.403247
-0.406198
-0.408926
-0.411407
-0.413609
-0.4155
-0.417042
-0.418267
-0.419304
-0.332634
-0.342332
-0.348973
-0.356337
-0.36262
-0.368512
-0.373758
-0.37848
-0.382703
-0.386495
-0.389916
-0.39302
-0.395853
-0.398446
-0.400812
-0.402952
-0.404853
-0.406497
-0.407864
-0.408934
-0.409723
-0.410312
-0.33886
-0.347016
-0.351601
-0.357815
-0.36301
-0.36816
-0.372767
-0.376959
-0.380694
-0.384018
-0.38697
-0.389598
-0.391943
-0.394036
-0.395896
-0.39753
-0.398936
-0.400103
-0.401025
-0.401694
-0.402113
-0.402327
-0.342803
-0.349685
-0.353088
-0.358549
-0.363041
-0.367637
-0.371728
-0.375444
-0.378721
-0.381598
-0.38411
-0.386301
-0.38821
-0.38987
-0.391302
-0.392516
-0.393515
-0.394295
-0.394855
-0.395196
-0.395309
-0.395211
-0.346388
-0.351961
-0.354705
-0.359427
-0.363324
-0.367337
-0.370897
-0.374111
-0.376918
-0.379353
-0.381446
-0.383237
-0.384762
-0.386049
-0.38712
-0.387984
-0.388647
-0.389107
-0.389367
-0.389434
-0.389281
-0.388908
-0.350249
-0.354468
-0.356719
-0.36061
-0.363896
-0.367268
-0.370266
-0.37296
-0.3753
-0.377313
-0.379021
-0.380459
-0.381653
-0.382629
-0.383401
-0.38398
-0.384368
-0.384566
-0.384578
-0.384413
-0.384029
-0.383408
-0.354353
-0.357303
-0.359032
-0.362042
-0.364683
-0.367393
-0.369827
-0.372016
-0.373918
-0.375548
-0.376919
-0.378055
-0.378975
-0.379696
-0.380228
-0.380576
-0.380744
-0.38073
-0.380539
-0.38018
-0.379595
-0.37875
-0.358353
-0.360214
-0.361388
-0.363569
-0.365584
-0.367673
-0.369588
-0.371323
-0.372841
-0.374143
-0.375232
-0.376121
-0.37682
-0.377338
-0.37768
-0.377849
-0.377844
-0.377664
-0.377312
-0.376799
-0.376048
-0.375015
-0.361816
-0.362859
-0.363558
-0.365058
-0.366539
-0.368109
-0.369587
-0.370945
-0.372148
-0.373182
-0.374045
-0.374738
-0.375264
-0.375625
-0.375822
-0.375855
-0.375721
-0.375419
-0.374951
-0.374327
-0.373459
-0.37229
-0.365022
-0.36544
-0.365743
-0.366692
-0.367718
-0.368854
-0.369964
-0.371008
-0.371947
-0.372762
-0.37344
-0.373976
-0.374364
-0.374603
-0.374691
-0.374626
-0.374404
-0.374023
-0.373488
-0.372806
-0.371881
-0.370649
-0.367712
-0.367729
-0.36777
-0.36833
-0.369017
-0.369826
-0.370652
-0.371453
-0.372189
-0.372834
-0.373371
-0.373786
-0.374072
-0.374223
-0.374235
-0.374105
-0.373834
-0.373418
-0.372866
-0.372184
-0.371278
-0.37008
-0.371118
-0.370692
-0.370386
-0.370526
-0.370844
-0.371319
-0.371865
-0.372434
-0.372982
-0.373478
-0.373895
-0.374215
-0.374424
-0.374511
-0.374472
-0.374306
-0.374013
-0.373597
-0.373069
-0.372442
-0.371634
-0.370583
-0.373343
-0.372722
-0.372226
-0.372128
-0.372231
-0.372509
-0.372889
-0.373322
-0.373764
-0.374177
-0.374531
-0.374802
-0.374972
-0.375029
-0.374966
-0.374783
-0.374488
-0.374093
-0.373618
-0.37309
-0.372465
-0.371694
-0.377842
-0.376556
-0.375507
-0.37491
-0.374618
-0.374588
-0.374742
-0.375021
-0.375369
-0.375738
-0.376088
-0.376381
-0.376588
-0.376684
-0.37665
-0.376476
-0.376166
-0.375734
-0.375214
-0.374661
-0.374127
-0.373664
1.33222
1.38307
1.43386
1.4845
1.53455
1.58362
1.6313
1.67721
1.72093
1.7621
1.80035
1.83535
1.86679
1.89445
1.91821
1.93812
1.95451
1.9681
1.97985
1.991
2.00442
2.022
1.3236
1.37413
1.42427
1.47425
1.52361
1.57193
1.61884
1.66394
1.70684
1.74716
1.78454
1.81866
1.84922
1.876
1.89888
1.91795
1.93357
1.94648
1.95771
1.96851
1.98173
1.99926
1.30297
1.35279
1.40162
1.45033
1.49837
1.54532
1.59082
1.63445
1.67585
1.71463
1.75044
1.78295
1.81188
1.83701
1.85826
1.87573
1.88986
1.90148
1.91167
1.92177
1.93462
1.952
1.27354
1.3223
1.36915
1.41591
1.46191
1.50674
1.55002
1.59138
1.63043
1.6668
1.70016
1.73017
1.75656
1.77913
1.79784
1.81285
1.82468
1.83428
1.84287
1.85187
1.86413
1.88126
1.23466
1.28199
1.32625
1.37048
1.41384
1.45591
1.49634
1.53475
1.57076
1.60401
1.63417
1.66091
1.68399
1.70322
1.71858
1.73034
1.73913
1.74605
1.75251
1.76004
1.77147
1.78823
1.18805
1.23359
1.27468
1.31581
1.35593
1.39462
1.43154
1.46633
1.4986
1.52801
1.55424
1.57696
1.59595
1.61104
1.62227
1.63
1.635
1.63859
1.64237
1.64802
1.65838
1.67463
1.13466
1.17807
1.21548
1.25304
1.28943
1.32421
1.35708
1.38767
1.41561
1.44057
1.46221
1.48025
1.49446
1.50469
1.51106
1.51401
1.51452
1.51412
1.51466
1.51804
1.52704
1.54259
1.07624
1.11717
1.15049
1.18406
1.21625
1.24664
1.27496
1.30082
1.32388
1.3438
1.36026
1.37299
1.38175
1.38645
1.38725
1.38473
1.38004
1.375
1.37177
1.37244
1.37978
1.39441
1.01432
1.05244
1.08133
1.1106
1.13826
1.16392
1.18731
1.20806
1.22582
1.24026
1.25107
1.25796
1.26073
1.2593
1.2539
1.24524
1.23468
1.22436
1.21676
1.21426
1.21958
1.233
0.95086
0.985867
1.0101
1.03482
1.05765
1.07825
1.09636
1.11162
1.12367
1.13219
1.13687
1.13744
1.13369
1.12558
1.1134
1.09797
1.08092
1.0647
1.05219
1.04604
1.04899
1.06088
0.887256
0.918816
0.938339
0.958433
0.976351
0.99181
1.00455
1.01418
1.02037
1.02277
1.02109
1.01505
1.00443
0.989222
0.969753
0.947
0.922829
0.900057
0.882008
0.871692
0.871798
0.88177
0.825716
0.85353
0.868281
0.883579
0.896393
0.906492
0.913606
0.917346
0.917367
0.913341
0.904957
0.89194
0.874089
0.851393
0.824241
0.793736
0.761998
0.732224
0.708199
0.693319
0.690225
0.697858
0.766608
0.790342
0.800754
0.811533
0.819539
0.824579
0.826357
0.82447
0.81856
0.808282
0.793308
0.773345
0.748178
0.717787
0.682595
0.64383
0.603878
0.566378
0.53566
0.51559
0.50878
0.513609
0.713194
0.731848
0.737826
0.743843
0.74682
0.746547
0.7427
0.734871
0.722697
0.70583
0.683942
0.656746
0.624035
0.585808
0.542537
0.495576
0.447563
0.402525
0.365272
0.340076
0.329416
0.33096
0.663316
0.676848
0.679814
0.681732
0.680519
0.67582
0.667243
0.65436
0.63677
0.614084
0.585932
0.551974
0.51195
0.46581
0.414014
0.358
0.300696
0.246699
0.201601
0.170398
0.155601
0.153919
0.625398
0.627133
0.627085
0.624668
0.618452
0.608434
0.594151
0.575199
0.551186
0.521723
0.486447
0.445035
0.397272
0.343204
0.283476
0.219821
0.155556
0.0956556
0.0459459
0.0114066
-0.00599212
-0.0103315
0.585199
0.577179
0.572125
0.562439
0.548841
0.531103
0.508759
0.481493
0.448965
0.410859
0.366901
0.316889
0.2608
0.199002
0.132603
0.0638794
-0.00346602
-0.0645232
-0.11413
-0.148377
-0.166574
-0.173527
0.53747
0.522491
0.512608
0.496378
0.476508
0.452103
0.422856
0.388488
0.348703
0.303253
0.251943
0.194689
0.13165
0.0634745
-0.00834309
-0.0811154
-0.150863
-0.212754
-0.262159
-0.296038
-0.314855
-0.324055
0.486916
0.466099
0.450948
0.428402
0.402479
0.371695
0.335993
0.295091
0.248746
0.196768
0.139034
0.0755781
0.00675166
-0.0665029
-0.142314
-0.217628
-0.288298
-0.349704
-0.397857
-0.430626
-0.449498
-0.460258
0.434363
0.408413
0.387945
0.359572
0.327981
0.291297
0.249697
0.202883
0.150677
0.0929513
0.0296756
-0.0389726
-0.112412
-0.189376
-0.267621
-0.343811
-0.413783
-0.473322
-0.519212
-0.550247
-0.568757
-0.580594
0.3809
0.350466
0.324875
0.291275
0.254534
0.2126
0.165825
0.113898
0.0567127
-0.00579401
-0.0735481
-0.146204
-0.222927
-0.302123
-0.381228
-0.456738
-0.524644
-0.581281
-0.624263
-0.653231
-0.671152
-0.683731
0.327719
0.293409
0.263055
0.224874
0.183581
0.137116
0.0859426
0.0297567
-0.0314772
-0.0977497
-0.168865
-0.244287
-0.322915
-0.402847
-0.481277
-0.554672
-0.619338
-0.67227
-0.71191
-0.738636
-0.755836
-0.768913
0.275632
0.238049
0.203427
0.161359
0.116196
0.0659872
0.0112533
-0.0482829
-0.112587
-0.181563
-0.254877
-0.331783
-0.410913
-0.490102
-0.566403
-0.636403
-0.696868
-0.745519
-0.781581
-0.806016
-0.822444
-0.835843
0.225649
0.185388
0.147078
0.101836
0.0535211
0.000372338
-0.0570706
-0.119041
-0.18543
-0.256045
-0.330388
-0.407497
-0.485753
-0.562796
-0.63566
-0.701202
-0.756756
-0.800791
-0.833219
-0.855427
-0.871089
-0.884684
0.178087
0.135731
0.0943731
0.0466814
-0.00402937
-0.0592908
-0.118569
-0.182038
-0.24951
-0.320675
-0.394863
-0.470892
-0.546933
-0.620521
-0.688804
-0.749045
-0.799217
-0.838503
-0.86738
-0.887496
-0.902431
-0.91612
0.133747
0.0898603
0.0461154
-0.00332509
-0.055699
-0.112288
-0.172574
-0.236658
-0.304264
-0.374946
-0.447852
-0.521596
-0.594198
-0.663197
-0.725995
-0.780359
-0.824934
-0.859538
-0.885072
-0.903287
-0.917551
-0.93124
0.0922477
0.0473556
0.00188069
-0.048625
-0.101932
-0.159069
-0.21954
-0.283355
-0.350139
-0.419298
-0.489796
-0.560083
-0.62811
-0.691544
-0.748162
-0.796312
-0.835282
-0.865419
-0.887887
-0.90441
-0.918049
-0.931636
0.0543845
0.00899232
-0.0375792
-0.0885263
-0.142109
-0.199104
-0.259031
-0.321797
-0.386912
-0.453624
-0.520729
-0.586566
-0.649117
-0.706301
-0.756366
-0.798266
-0.831864
-0.857894
-0.877642
-0.892691
-0.90574
-0.919115
0.0189193
-0.0265402
-0.0736279
-0.124433
-0.177659
-0.233841
-0.292502
-0.353432
-0.416011
-0.479334
-0.542066
-0.602514
-0.658813
-0.709248
-0.752606
-0.788418
-0.817014
-0.839367
-0.856745
-0.870509
-0.882969
-0.895991
-0.0127273
-0.0578311
-0.104895
-0.155044
-0.207372
-0.262177
-0.318972
-0.377416
-0.436758
-0.495955
-0.553602
-0.608072
-0.65776
-0.701397
-0.738308
-0.768521
-0.792687
-0.811869
-0.827217
-0.839824
-0.851598
-0.864001
0.0191765
-0.0257737
-0.0727881
-0.122932
-0.175331
-0.230241
-0.287172
-0.345748
-0.405186
-0.464407
-0.521974
-0.576245
-0.625624
-0.668871
-0.705354
-0.735139
-0.758906
-0.777728
-0.792757
-0.805079
-0.816571
-0.828665
0.0506319
0.00531468
-0.0417324
-0.092514
-0.145783
-0.20203
-0.260781
-0.321796
-0.384427
-0.447728
-0.51033
-0.570516
-0.626422
-0.676362
-0.719171
-0.754434
-0.782523
-0.804432
-0.821435
-0.834882
-0.847039
-0.859732
0.0856606
0.0404016
-0.00614696
-0.0570571
-0.110661
-0.167688
-0.227663
-0.290471
-0.355595
-0.422245
-0.48918
-0.554706
-0.616795
-0.673388
-0.722786
-0.764007
-0.796974
-0.822462
-0.841766
-0.85646
-0.86919
-0.882225
0.122806
0.078036
0.0325548
-0.0179088
-0.0712258
-0.128368
-0.188853
-0.252671
-0.319426
-0.388489
-0.458786
-0.528726
-0.596241
-0.659008
-0.714852
-0.762197
-0.800409
-0.82989
-0.851835
-0.867959
-0.881261
-0.894507
0.163292
0.119517
0.0757266
0.0263244
-0.0260568
-0.0826346
-0.142912
-0.206971
-0.274519
-0.345083
-0.417769
-0.49115
-0.563213
-0.631496
-0.693439
-0.746888
-0.790578
-0.824412
-0.849332
-0.867099
-0.881012
-0.894365
0.206325
0.164068
0.122614
0.0749449
0.024217
-0.0310316
-0.0902905
-0.153719
-0.221118
-0.292153
-0.366117
-0.441786
-0.517289
-0.590144
-0.657526
-0.716768
-0.765949
-0.804351
-0.832523
-0.852134
-0.866705
-0.88007
0.252297
0.212118
0.173652
0.128405
0.0800514
0.0269028
-0.0305253
-0.0924554
-0.158771
-0.229259
-0.303392
-0.380164
-0.45791
-0.53424
-0.606195
-0.670694
-0.725177
-0.76823
-0.799864
-0.82151
-0.836794
-0.850086
0.300442
0.262918
0.228072
0.185958
0.140721
0.0904836
0.0357432
-0.0237706
-0.0880174
-0.156889
-0.230024
-0.306637
-0.385311
-0.463842
-0.53927
-0.608228
-0.667578
-0.715176
-0.750368
-0.774186
-0.790224
-0.803347
0.350487
0.316203
0.28555
0.247267
0.205854
0.159316
0.108098
0.0518996
-0.00931265
-0.0755194
-0.146504
-0.221697
-0.29995
-0.379311
-0.456948
-0.529349
-0.592905
-0.644748
-0.683462
-0.709525
-0.726328
-0.739163
0.401485
0.371029
0.345062
0.31129
0.27437
0.232305
0.185431
0.133438
0.0762215
0.0137231
-0.0539678
-0.126477
-0.202926
-0.281669
-0.360099
-0.434712
-0.501566
-0.557121
-0.59915
-0.627426
-0.64495
-0.657331
0.452687
0.426648
0.405728
0.377101
0.345263
0.308375
0.266609
0.21966
0.167352
0.109561
0.0462649
-0.0223357
-0.0956217
-0.172274
-0.249997
-0.325433
-0.39446
-0.452974
-0.497922
-0.528257
-0.546382
-0.558075
0.50298
0.481984
0.466312
0.443416
0.417171
0.386102
0.350153
0.309034
0.262503
0.210369
0.152517
0.0889957
0.020188
-0.052915
-0.128385
-0.203129
-0.27301
-0.333501
-0.380767
-0.412857
-0.431372
-0.442054
0.551338
0.536056
0.525598
0.508915
0.488642
0.463866
0.434283
0.399607
0.35954
0.313833
0.262295
0.204851
0.141686
0.0734912
0.00181693
-0.0705958
-0.139754
-0.200888
-0.24951
-0.282764
-0.301271
-0.310474
0.597
0.588474
0.582806
0.572564
0.558477
0.540283
0.517512
0.489844
0.456935
0.418468
0.374167
0.323838
0.267476
0.205483
0.139022
0.0704296
0.00344408
-0.0570552
-0.106025
-0.139737
-0.157692
-0.164745
0.635591
0.636541
0.635836
0.632767
0.625955
0.615379
0.600565
0.581104
0.556597
0.526653
0.490906
0.449039
0.400842
0.34639
0.286373
0.22259
0.158417
0.0988331
0.0495752
0.0154491
-0.00179595
-0.00634405
0.671501
0.683974
0.686263
0.687528
0.685672
0.680361
0.671189
0.657722
0.639554
0.616292
0.587566
0.553036
0.51245
0.465782
0.413531
0.357201
0.299782
0.245889
0.201049
0.170106
0.155353
0.153369
0.718981
0.736502
0.741801
0.747139
0.749432
0.748503
0.744006
0.735531
0.72271
0.705193
0.68265
0.654796
0.621429
0.582571
0.538733
0.491322
0.443034
0.397912
0.36072
0.335613
0.324875
0.326041
0.770188
0.792785
0.802487
0.812565
0.819853
0.824195
0.825274
0.822683
0.816061
0.805061
0.789353
0.768646
0.742732
0.71161
0.675738
0.636396
0.596022
0.558275
0.527453
0.507327
0.500336
0.504726
0.827119
0.853836
0.867859
0.882444
0.894519
0.903892
0.910273
0.913269
0.912534
0.907736
0.898564
0.884743
0.866081
0.842584
0.814671
0.783493
0.751215
0.721061
0.696794
0.681738
0.678382
0.68554
0.886744
0.917287
0.936074
0.955448
0.972617
0.987332
0.999314
1.00818
1.01357
1.01517
1.01266
1.00577
0.994296
0.978231
0.957941
0.93444
0.909639
0.88638
0.867981
0.857397
0.857185
0.866667
0.948691
0.982764
1.00627
1.03027
1.05235
1.07221
1.08957
1.10404
1.11529
1.12299
1.12683
1.12654
1.12191
1.11293
1.09989
1.08367
1.06593
1.04915
1.03621
1.02974
1.03233
1.04374
1.01085
1.04813
1.07631
1.10489
1.13183
1.15676
1.17941
1.19939
1.21636
1.22998
1.23995
1.24599
1.24788
1.24558
1.23932
1.22985
1.21857
1.20765
1.19958
1.1967
1.20167
1.21462
1.07186
1.11205
1.14469
1.1776
1.2091
1.2388
1.2664
1.29152
1.31382
1.33296
1.34862
1.36052
1.36844
1.37229
1.37226
1.36894
1.36353
1.35788
1.35416
1.35444
1.36143
1.37562
1.12977
1.17254
1.20933
1.24628
1.28203
1.31616
1.34837
1.37827
1.40551
1.42974
1.45063
1.4679
1.48131
1.49075
1.49634
1.49854
1.49836
1.49736
1.49742
1.50042
1.50909
1.52425
1.18307
1.22807
1.2686
1.30918
1.34874
1.38685
1.42318
1.45734
1.48898
1.51773
1.54328
1.56531
1.58359
1.59796
1.60848
1.61552
1.6199
1.62293
1.62626
1.63156
1.64162
1.65753
1.22997
1.27686
1.32065
1.36441
1.40729
1.44886
1.48878
1.52665
1.56212
1.5948
1.62438
1.65053
1.67299
1.6916
1.70635
1.71751
1.72575
1.73219
1.73825
1.74546
1.75663
1.77311
1.2695
1.31792
1.36439
1.41076
1.45638
1.5008
1.54367
1.5846
1.62321
1.65913
1.69201
1.72153
1.74743
1.7695
1.78771
1.80223
1.81361
1.82281
1.83108
1.83982
1.85186
1.86877
1.29986
1.34945
1.398
1.44642
1.49418
1.54084
1.58603
1.62935
1.67042
1.70886
1.74433
1.77648
1.80505
1.82981
1.85068
1.8678
1.8816
1.89291
1.90286
1.91276
1.92546
1.94268
1.32164
1.37203
1.422
1.47181
1.52099
1.56914
1.61586
1.66077
1.70347
1.74358
1.78075
1.81465
1.84499
1.87154
1.89419
1.91304
1.92846
1.94119
1.95226
1.96294
1.97608
1.9935
1.33155
1.38236
1.43309
1.48367
1.53367
1.58267
1.63029
1.67613
1.71979
1.76089
1.79907
1.83399
1.86536
1.89295
1.91663
1.93646
1.95278
1.96631
1.97801
1.98912
2.0025
2.02006
-0.00998907
-0.0385802
-0.0636282
-0.0873945
-0.109486
-0.130128
-0.149448
-0.167645
-0.184672
-0.20078
-0.215508
-0.229518
-0.24109
-0.25331
-0.258968
-0.274625
-0.29512
-0.304411
-0.310816
-0.314803
-0.318319
-0.322057
-0.32603
-0.329903
-0.333233
-0.336276
-0.338787
-0.341989
-0.344065
-0.348402
-0.0541062
-0.0815555
-0.105233
-0.127423
-0.147842
-0.166752
-0.184281
-0.200729
-0.215933
-0.230319
-0.243096
-0.255296
-0.264674
-0.274671
-0.279219
-0.290902
-0.307368
-0.314395
-0.319224
-0.321937
-0.32416
-0.326557
-0.329264
-0.332043
-0.334552
-0.336972
-0.339093
-0.341873
-0.343772
-0.347476
-0.100548
-0.127048
-0.149485
-0.170169
-0.188923
-0.206035
-0.221644
-0.236109
-0.249193
-0.261428
-0.271828
-0.28171
-0.288361
-0.2959
-0.297038
-0.305401
-0.317216
-0.321462
-0.324186
-0.325653
-0.32717
-0.329051
-0.331227
-0.33345
-0.335481
-0.337512
-0.339382
-0.341836
-0.343561
-0.346736
-0.149535
-0.17449
-0.195124
-0.213737
-0.230259
-0.244994
-0.258098
-0.269961
-0.280348
-0.289825
-0.297449
-0.30456
-0.308675
-0.313675
-0.312957
-0.318629
-0.326583
-0.32904
-0.330564
-0.331258
-0.332039
-0.333101
-0.334407
-0.335808
-0.337165
-0.338656
-0.34015
-0.342204
-0.343706
-0.346403
-0.200519
-0.223647
-0.242184
-0.258398
-0.272319
-0.284257
-0.294405
-0.303171
-0.310388
-0.316639
-0.321151
-0.325217
-0.326707
-0.329162
-0.326638
-0.329883
-0.334611
-0.335533
-0.335928
-0.335892
-0.336067
-0.336519
-0.337187
-0.337967
-0.338798
-0.339846
-0.341015
-0.342718
-0.344017
-0.346335
-0.253531
-0.274318
-0.290224
-0.303464
-0.314171
-0.32267
-0.329222
-0.334277
-0.337806
-0.340423
-0.341619
-0.342585
-0.341652
-0.341838
-0.338075
-0.339323
-0.34167
-0.341541
-0.341163
-0.340564
-0.340165
-0.339987
-0.340003
-0.340173
-0.340494
-0.341119
-0.341974
-0.34336
-0.344473
-0.346495
-0.308053
-0.32595
-0.338652
-0.348316
-0.355185
-0.359637
-0.36204
-0.362929
-0.362462
-0.361301
-0.359204
-0.35723
-0.35411
-0.352309
-0.347582
-0.347201
-0.347825
-0.346869
-0.345834
-0.344716
-0.34379
-0.343061
-0.342523
-0.342183
-0.342076
-0.342345
-0.342929
-0.344047
-0.345005
-0.346811
-0.36357
-0.377893
-0.386697
-0.392089
-0.394453
-0.394275
-0.392079
-0.388521
-0.383962
-0.379111
-0.373941
-0.369346
-0.364363
-0.360918
-0.355485
-0.35381
-0.353233
-0.351635
-0.35006
-0.34847
-0.347052
-0.345813
-0.344781
-0.343996
-0.343523
-0.343486
-0.343838
-0.344736
-0.345566
-0.347226
-0.419186
-0.429164
-0.433338
-0.433793
-0.431097
-0.425897
-0.418906
-0.410912
-0.402447
-0.394227
-0.386354
-0.379532
-0.372998
-0.368197
-0.362192
-0.359483
-0.358036
-0.355881
-0.353816
-0.351774
-0.349896
-0.348201
-0.34674
-0.345579
-0.344798
-0.344508
-0.344666
-0.345386
-0.346116
-0.347689
-0.473736
-0.478584
-0.477454
-0.472451
-0.464362
-0.454029
-0.442344
-0.4302
-0.418229
-0.407101
-0.396955
-0.388295
-0.380481
-0.374554
-0.368046
-0.364481
-0.362354
-0.359681
-0.357151
-0.35467
-0.352359
-0.350251
-0.348415
-0.346934
-0.345894
-0.345392
-0.345388
-0.345967
-0.346621
-0.348156
-0.52581
-0.524862
-0.517961
-0.507261
-0.493774
-0.478528
-0.462545
-0.446757
-0.431811
-0.418281
-0.406278
-0.396116
-0.387224
-0.380327
-0.373325
-0.369014
-0.366288
-0.363101
-0.360109
-0.357196
-0.354475
-0.351991
-0.349825
-0.348068
-0.346808
-0.346128
-0.345989
-0.346457
-0.347053
-0.348588
-0.573952
-0.566827
-0.554029
-0.537762
-0.519225
-0.499581
-0.479901
-0.461085
-0.443724
-0.428265
-0.414754
-0.403346
-0.393515
-0.385746
-0.378228
-0.373228
-0.369915
-0.366202
-0.36274
-0.359398
-0.356286
-0.353454
-0.350992
-0.348994
-0.347543
-0.346712
-0.346459
-0.346837
-0.347389
-0.348952
-0.616926
-0.603654
-0.585238
-0.563901
-0.540956
-0.51762
-0.494936
-0.473712
-0.454444
-0.437446
-0.422696
-0.410223
-0.399538
-0.390951
-0.382885
-0.377214
-0.373289
-0.369032
-0.365088
-0.361318
-0.357827
-0.354671
-0.351939
-0.349724
-0.348104
-0.34714
-0.34679
-0.347096
-0.347613
-0.349218
-0.653961
-0.635016
-0.611636
-0.586002
-0.55946
-0.533201
-0.508185
-0.4851
-0.464336
-0.446091
-0.43029
-0.416872
-0.405383
-0.396008
-0.387362
-0.381021
-0.376444
-0.371621
-0.367185
-0.362988
-0.35913
-0.355666
-0.352683
-0.350269
-0.348495
-0.347413
-0.346978
-0.347224
-0.347714
-0.349363
-0.684891
-0.661113
-0.633672
-0.604647
-0.575345
-0.546883
-0.520108
-0.495593
-0.473634
-0.454346
-0.437618
-0.423332
-0.411069
-0.400922
-0.391676
-0.384659
-0.379388
-0.373988
-0.369051
-0.36443
-0.360215
-0.356457
-0.353235
-0.350634
-0.348717
-0.347529
-0.347021
-0.347219
-0.347687
-0.349369
-0.710126
-0.682558
-0.652042
-0.620519
-0.589209
-0.559136
-0.531043
-0.505408
-0.482459
-0.46226
-0.444681
-0.429576
-0.41656
-0.405658
-0.395806
-0.388111
-0.382114
-0.376131
-0.370694
-0.365657
-0.361095
-0.357053
-0.353603
-0.350823
-0.348772
-0.347487
-0.346916
-0.347079
-0.347533
-0.349229
-0.730496
-0.7002
-0.667531
-0.634271
-0.601553
-0.570311
-0.541205
-0.514652
-0.490841
-0.469809
-0.451428
-0.43554
-0.421791
-0.410153
-0.399703
-0.391336
-0.384598
-0.37804
-0.372111
-0.36667
-0.361774
-0.357459
-0.35379
-0.350838
-0.348658
-0.347285
-0.346664
-0.346806
-0.34726
-0.348944
-0.74703
-0.714942
-0.680869
-0.646455
-0.612753
-0.580635
-0.550708
-0.523356
-0.498756
-0.476938
-0.457786
-0.441142
-0.426681
-0.414333
-0.403303
-0.394285
-0.386808
-0.379696
-0.373294
-0.367467
-0.362252
-0.357675
-0.353794
-0.350675
-0.348373
-0.346921
-0.346265
-0.346405
-0.346879
-0.34853
-0.76069
-0.727535
-0.692597
-0.657422
-0.623008
-0.590189
-0.55955
-0.531466
-0.506119
-0.483548
-0.463653
-0.446284
-0.431141
-0.418117
-0.406536
-0.3969
-0.388714
-0.38108
-0.374234
-0.368046
-0.362532
-0.357707
-0.353622
-0.350341
-0.347921
-0.346399
-0.345723
-0.345887
-0.346414
-0.348022
-0.772291
-0.738557
-0.703084
-0.66737
-0.632388
-0.598956
-0.567657
-0.538875
-0.512807
-0.48951
-0.468904
-0.450847
-0.435062
-0.42141
-0.409315
-0.399115
-0.390276
-0.382171
-0.374924
-0.368409
-0.36262
-0.357563
-0.353283
-0.349846
-0.347313
-0.345729
-0.34505
-0.345265
-0.345889
-0.347474
-0.783374
-0.749297
-0.713387
-0.677165
-0.641602
-0.607519
-0.575512
-0.545982
-0.51915
-0.495092
-0.473751
-0.454996
-0.438567
-0.424301
-0.411696
-0.40096
-0.391527
-0.382987
-0.375369
-0.368547
-0.362492
-0.357203
-0.352721
-0.349116
-0.346462
-0.344816
-0.34415
-0.344458
-0.345261
-0.346938
-0.795126
-0.760746
-0.724318
-0.687488
-0.651242
-0.616407
-0.583595
-0.553231
-0.525559
-0.500678
-0.478549
-0.459058
-0.441955
-0.427064
-0.413916
-0.40262
-0.392602
-0.383612
-0.375617
-0.368481
-0.36215
-0.35661
-0.351903
-0.348107
-0.345312
-0.343597
-0.342956
-0.343403
-0.344481
-0.346469
0.266641
0.266597
0.266604
0.266606
0.266629
0.266658
0.2667
0.266756
0.266829
0.266921
0.267033
0.267165
0.267317
0.267487
0.267674
0.267876
0.268091
0.268319
0.268557
0.268806
0.269063
0.269327
0.269599
0.269877
0.267206
0.267159
0.267166
0.26717
0.267194
0.267226
0.267272
0.267334
0.267414
0.267514
0.267635
0.267778
0.267942
0.268124
0.268324
0.26854
0.26877
0.269013
0.269267
0.269531
0.269805
0.270087
0.270376
0.270672
0.267749
0.2677
0.267708
0.267711
0.267738
0.267773
0.267824
0.267891
0.267978
0.268087
0.268219
0.268373
0.268549
0.268745
0.268959
0.269189
0.269434
0.269693
0.269963
0.270244
0.270534
0.270834
0.271141
0.271456
0.26827
0.268219
0.268227
0.268231
0.26826
0.268298
0.268354
0.268427
0.268523
0.268641
0.268783
0.268949
0.269138
0.269348
0.269576
0.269822
0.270083
0.270357
0.270644
0.270943
0.271251
0.271569
0.271895
0.272229
0.268768
0.268715
0.268723
0.268728
0.268759
0.2688
0.268862
0.268942
0.269046
0.269174
0.269328
0.269506
0.269709
0.269933
0.270176
0.270438
0.270715
0.271007
0.271311
0.271627
0.271954
0.272291
0.272636
0.27299
0.269242
0.269186
0.269195
0.269201
0.269234
0.269279
0.269346
0.269434
0.269546
0.269685
0.269851
0.270043
0.270259
0.270498
0.270758
0.271036
0.27133
0.271639
0.271961
0.272296
0.272642
0.272998
0.273364
0.273738
0.269691
0.269634
0.269643
0.269649
0.269685
0.269734
0.269807
0.269902
0.270024
0.270174
0.270352
0.270558
0.27079
0.271044
0.27132
0.271615
0.271927
0.272254
0.272595
0.272949
0.273315
0.273691
0.274077
0.274472
0.270115
0.270055
0.270065
0.270072
0.270111
0.270164
0.270242
0.270346
0.270478
0.270639
0.270831
0.271051
0.271299
0.27157
0.271863
0.272176
0.272506
0.272852
0.273212
0.273585
0.273971
0.274368
0.274775
0.275192
0.270512
0.27045
0.270461
0.270469
0.27051
0.270567
0.270653
0.270764
0.270907
0.271081
0.271287
0.271522
0.271786
0.272074
0.272385
0.272716
0.273065
0.27343
0.27381
0.274204
0.27461
0.275028
0.275457
0.275897
0.270882
0.270819
0.270829
0.270839
0.270883
0.270945
0.271037
0.271158
0.271312
0.271499
0.271719
0.27197
0.27225
0.272556
0.272885
0.273235
0.273603
0.273989
0.274389
0.274803
0.275231
0.275671
0.276123
0.276585
0.271224
0.27116
0.271171
0.271181
0.271228
0.271295
0.271395
0.271525
0.27169
0.271891
0.272126
0.272394
0.272691
0.273016
0.273364
0.273733
0.274121
0.274527
0.274948
0.275384
0.275834
0.276296
0.27677
0.277256
0.271538
0.271472
0.271484
0.271495
0.271546
0.271618
0.271725
0.271865
0.272043
0.272257
0.272508
0.272793
0.273109
0.273452
0.273819
0.274209
0.274617
0.275044
0.275487
0.275944
0.276416
0.276902
0.277399
0.277909
0.271823
0.271756
0.271769
0.271782
0.271835
0.271913
0.272028
0.272178
0.272368
0.272598
0.272865
0.273167
0.273501
0.273864
0.274252
0.274661
0.275091
0.275539
0.276004
0.276484
0.276979
0.277487
0.278009
0.278543
0.272079
0.272012
0.272025
0.272039
0.272096
0.272179
0.272302
0.272463
0.272667
0.272911
0.273195
0.273516
0.273869
0.274252
0.27466
0.275091
0.275542
0.276012
0.276498
0.277001
0.277519
0.278052
0.278598
0.279157
0.272306
0.272238
0.272251
0.272267
0.272328
0.272417
0.272549
0.272721
0.272938
0.273198
0.2735
0.273839
0.274212
0.274614
0.275043
0.275495
0.275969
0.276461
0.27697
0.277496
0.278038
0.278595
0.279166
0.279751
0.272502
0.272434
0.272448
0.272466
0.272531
0.272626
0.272767
0.27295
0.273181
0.273458
0.273777
0.274135
0.274528
0.274951
0.275402
0.275876
0.276371
0.276886
0.277418
0.277968
0.278534
0.279115
0.279712
0.280322
0.272669
0.272601
0.272616
0.272636
0.272705
0.272806
0.272956
0.273151
0.273397
0.27369
0.274027
0.274405
0.274818
0.275262
0.275734
0.27623
0.276748
0.277286
0.277842
0.278415
0.279006
0.279612
0.280234
0.280871
0.272806
0.272739
0.272755
0.272777
0.272849
0.272957
0.273116
0.273324
0.273584
0.273894
0.27425
0.274647
0.275081
0.275547
0.27604
0.276559
0.277099
0.27766
0.27824
0.278837
0.279453
0.280084
0.280732
0.281396
0.272913
0.272847
0.272863
0.272888
0.272965
0.27308
0.273248
0.273469
0.273744
0.27407
0.274445
0.274862
0.275317
0.275804
0.27632
0.276861
0.277424
0.278008
0.278611
0.279233
0.279874
0.280531
0.281205
0.281897
0.27299
0.272925
0.272943
0.27297
0.273051
0.273173
0.273352
0.273585
0.273875
0.274219
0.274613
0.27505
0.275526
0.276034
0.276572
0.277135
0.277721
0.278329
0.278956
0.279603
0.280268