/*--------------------------------*- C++ -*----------------------------------*\
| =========                 |                                                 |
| \\      /  F ield         | OpenFOAM Extend Project: Open source CFD        |
|  \\    /   O peration     | Version:  1.6-ext                               |
|   \\  /    A nd           | Web:      www.extend-project.de                 |
|    \\/     M anipulation  |                                                 |
\*---------------------------------------------------------------------------*/
FoamFile
{
    version     2.0;
    format      ascii;
    class       surfaceScalarField;
    location    "0.4";
    object      phi;
}
// * * * * * * * * * * * * * * * * * * * * * * * * * * * * * * * * * * * * * //

dimensions      [0 3 -1 0 0 0 0];

internalField   nonuniform List<scalar> 
41420
(
-0.000124415
0.000398118
-0.00039871
0.000125007
-0.000123365
0.000379301
-0.000380351
-0.00012189
0.000360811
-0.000362286
-0.000119991
0.000342554
-0.000344453
-0.000117612
0.000324539
-0.000326918
-0.000114609
0.000306562
-0.000309565
-0.000110751
0.000288286
-0.000292144
-0.000105748
0.000269242
-0.000274245
-9.9321e-05
0.00024894
-0.000255367
-9.13049e-05
0.000227015
-0.000235032
-8.17357e-05
0.000203385
-0.000212954
-7.09015e-05
0.000178342
-0.000189177
-5.93152e-05
0.000152553
-0.000164139
-4.76266e-05
0.000126931
-0.00013862
-3.64945e-05
0.000102455
-0.000113587
-2.64771e-05
7.99788e-05
-8.99962e-05
-1.79595e-05
6.01081e-05
-6.86257e-05
-1.11396e-05
4.31543e-05
-4.99742e-05
-6.05053e-06
2.91588e-05
-3.42478e-05
-2.6069e-06
1.79574e-05
-2.14011e-05
-6.52491e-07
9.25497e-06
-1.12094e-05
2.69412e-06
-3.34661e-06
-0.000131987
0.000397375
0.00013273
-0.000130763
0.000378076
-0.000129076
0.000359125
-0.000126897
0.000340375
-0.000124118
0.000321759
-0.000120534
0.000302979
-0.000115866
0.000283618
-0.000109811
0.000263187
-0.000102138
0.000241267
-9.27897e-05
0.000217667
-8.1954e-05
0.000192549
-7.00711e-05
0.000166459
-5.77643e-05
0.000140246
-4.57207e-05
0.000114888
-3.45657e-05
9.12999e-05
-2.4771e-05
7.01841e-05
-1.66173e-05
5.19544e-05
-1.02037e-05
3.67407e-05
-5.48836e-06
2.44434e-05
-2.33789e-06
1.4807e-05
-5.72344e-07
7.48943e-06
2.12178e-06
-0.000146649
0.000395986
0.000148038
-0.000144753
0.00037618
-0.000142345
0.000356717
-0.000139344
0.000337373
-0.000135575
0.00031799
-0.000130767
0.000298171
-0.000124603
0.000277454
-0.000116799
0.000255383
-0.000107217
0.000231686
-9.59598e-05
0.000206409
-8.33986e-05
0.000179988
-7.01328e-05
0.000153194
-5.68762e-05
0.00012699
-4.4322e-05
0.000102333
-3.30295e-05
8.00073e-05
-2.33641e-05
6.05188e-05
-1.5492e-05
4.40823e-05
-9.4138e-06
3.06625e-05
-5.01492e-06
2.00446e-05
-2.11585e-06
1.19079e-05
-5.1181e-07
5.88538e-06
1.60997e-06
-0.000160709
0.000393979
0.000162716
-0.000158146
0.000373618
-0.000154979
0.000353551
-0.000151055
0.000333449
-0.000146125
0.000313059
-0.00013986
0.000291906
-0.000131939
0.000269533
-0.000122155
0.000245599
-0.000110527
0.000220057
-9.73552e-05
0.000193238
-8.32054e-05
0.000165838
-6.88049e-05
0.000138793
-5.49046e-05
0.000113089
-4.21468e-05
8.95756e-05
-3.09833e-05
6.88438e-05
-2.16523e-05
5.11878e-05
-1.42042e-05
3.66342e-05
-8.55008e-06
2.50084e-05
-4.51634e-06
1.60108e-05
-1.89035e-06
9.2819e-06
-4.53258e-07
4.4483e-06
1.15671e-06
-0.000173452
0.000391405
0.000176026
-0.000170235
0.000370401
-0.00016626
0.000349576
-0.000161287
0.000328477
-0.000154995
0.000306767
-0.00014703
0.000283941
-0.000137125
0.000259628
-0.000125222
0.000233695
-0.000111549
0.000206384
-9.66273e-05
0.000178317
-8.11895e-05
0.0001504
-6.60338e-05
0.000123637
-5.188e-05
9.89354e-05
-3.92656e-05
7.69611e-05
-2.85044e-05
5.80826e-05
-1.97019e-05
4.23853e-05
-1.28013e-05
2.97336e-05
-7.64129e-06
1.98483e-05
-4.00619e-06
1.23757e-05
-1.66506e-06
6.94077e-06
-3.96075e-07
3.17931e-06
7.60636e-07
-0.000184803
0.000388296
0.000187911
-0.000180897
0.000366495
-0.000175993
0.000344671
-0.000169763
0.000322247
-0.00016184
0.000298845
-0.000151906
0.000274006
-0.000139827
0.00024755
-0.000125762
0.00021963
-0.000110184
0.000190806
-9.38191e-05
0.000161952
-7.75054e-05
0.000134086
-6.20347e-05
0.000108167
-4.80288e-05
8.49295e-05
-3.58795e-05
6.48119e-05
-2.57514e-05
4.79545e-05
-1.76249e-05
3.42588e-05
-1.13553e-05
2.3464e-05
-6.72836e-06
1.52214e-05
-3.50443e-06
9.15178e-06
-1.4474e-06
4.88375e-06
-3.41783e-07
2.07369e-06
4.18853e-07
-0.000194563
0.000384623
0.000198236
-0.000189855
0.000361787
-0.000183816
0.000338632
-0.00017605
0.000314481
-0.000166201
0.000288996
-0.000154068
0.000261873
-0.000139738
0.000233219
-0.000123632
0.000203524
-0.000106465
0.000173638
-8.91054e-05
0.000144593
-7.24127e-05
0.000117394
-5.70909e-05
9.28449e-05
-4.36108e-05
7.14494e-05
-3.21996e-05
5.34008e-05
-2.28792e-05
3.86341e-05
-1.55257e-05
2.69053e-05
-9.93002e-06
1.78683e-05
-5.84676e-06
1.11381e-05
-3.02801e-06
6.33303e-06
-1.24376e-06
3.0995e-06
-2.91703e-07
1.12163e-06
1.2715e-07
-0.000202523
0.000380311
0.000206835
-0.000196826
0.00035609
-0.00018937
0.000331176
-0.000179746
0.000304857
-0.000167701
0.000276951
-0.000153248
0.000247419
-0.000136756
0.000216728
-0.000118922
0.00018569
-0.000100641
0.000155357
-8.28329e-05
0.000126785
-6.62838e-05
0.000100845
-5.15437e-05
7.81048e-05
-3.8905e-05
5.88107e-05
-2.84339e-05
4.29296e-05
-2.0031e-05
3.02312e-05
-1.34955e-05
2.03698e-05
-8.57927e-06
1.29521e-05
-5.02503e-06
7.5839e-06
-2.59015e-06
3.89816e-06
-1.0589e-06
1.56825e-06
-2.46808e-07
3.0954e-07
-1.19658e-07
-0.000208351
0.000375148
0.000213514
-0.00020137
0.00034911
-0.000192159
0.000321965
-0.000180386
0.000293084
-0.000165999
0.000262565
-0.000149305
0.000230725
-0.000130973
0.000198396
-0.000111919
0.000166636
-9.3124e-05
0.000136562
-7.54526e-05
0.000109114
-5.95374e-05
8.49294e-05
-4.5739e-05
6.43065e-05
-3.41715e-05
4.72433e-05
-2.4763e-05
3.35211e-05
-1.73238e-05
2.27919e-05
-1.16051e-05
1.46511e-05
-7.34272e-06
8.68967e-06
-4.28339e-06
4.52457e-06
-2.19974e-06
1.81451e-06
-8.95852e-07
2.64366e-07
-2.07635e-07
-3.78676e-07
-3.27294e-07
-0.000211725
0.000368916
0.000217956
-0.000203136
0.000340521
-0.000191857
0.000310686
-0.000177748
0.000278975
-0.000161059
0.000245876
-0.000142425
0.00021209
-0.000122774
0.000178745
-0.00010314
0.000147003
-8.44689e-05
0.000117891
-6.74769e-05
9.21216e-05
-5.25971e-05
7.00497e-05
-3.9996e-05
5.17053e-05
-2.96328e-05
3.688e-05
-2.13316e-05
2.52199e-05
-1.48455e-05
1.63058e-05
-9.90457e-06
9.71024e-06
-6.24674e-06
5.03183e-06
-3.6345e-06
1.91233e-06
-1.8621e-06
4.21004e-08
-7.56372e-07
-8.41359e-07
-1.74522e-07
-9.60526e-07
-5.01815e-07
-0.00021216
0.000361188
0.000219888
-0.000201618
0.000329979
-0.000188062
0.00029713
-0.000171649
0.000262563
-0.000152971
0.000227198
-0.000132952
0.000192071
-0.000112675
0.000158468
-9.31629e-05
0.000127491
-7.52214e-05
9.99491e-05
-5.93611e-05
7.62613e-05
-4.58063e-05
5.64949e-05
-3.45523e-05
4.04514e-05
-2.54409e-05
2.77686e-05
-1.82297e-05
1.80087e-05
-1.26453e-05
1.07214e-05
-8.41803e-06
5.48298e-06
-5.30166e-06
1.91546e-06
-3.08185e-06
-3.07479e-07
-1.57783e-06
-1.46191e-06
-6.40246e-07
-1.77895e-06
-1.47268e-07
-1.4535e-06
-6.49083e-07
-0.000209555
0.000351811
0.000218932
-0.000196867
0.000317291
-0.000181026
0.000281289
-0.000162568
0.000244105
-0.00014241
0.00020704
-0.000121681
0.000171342
-0.000101482
0.000138269
-8.27119e-05
0.000108721
-6.59672e-05
8.32043e-05
-5.15363e-05
6.18305e-05
-3.94559e-05
4.44145e-05
-2.95887e-05
3.05842e-05
-2.16988e-05
1.98787e-05
-1.55102e-05
1.18201e-05
-1.07466e-05
5.95777e-06
-7.15338e-06
1.88979e-06
-4.50839e-06
-7.29533e-07
-2.62408e-06
-2.1918e-06
-1.34562e-06
-2.74037e-06
-5.46887e-07
-2.57768e-06
-1.25857e-07
-1.87453e-06
-7.74941e-07
-0.000203428
0.00034026
0.000214979
-0.000188539
0.000302402
-0.000170669
0.000263419
-0.000150715
0.000224151
-0.000129817
0.000186142
-0.000109161
0.000150686
-8.97405e-05
0.000118848
-7.22476e-05
9.1228e-05
-5.7046e-05
6.80028e-05
-4.4223e-05
4.90074e-05
-3.36689e-05
3.38604e-05
-2.51588e-05
2.20741e-05
-1.8417e-05
1.31368e-05
-1.31612e-05
6.56432e-06
-9.12885e-06
1.92545e-06
-6.08979e-06
-1.14927e-06
-3.84975e-06
-2.96958e-06
-2.24894e-06
-3.7926e-06
-1.15791e-06
-3.8314e-06
-4.72463e-07
-3.26313e-06
-1.08984e-07
-2.23801e-06
-8.83925e-07
-0.000194331
0.000326969
0.000207621
-0.000177514
0.000285584
-0.000158068
0.000243973
-0.000137278
0.00020336
-0.000116355
0.000165219
-9.64269e-05
0.000130758
-7.82869e-05
0.000100708
-6.23888e-05
7.53299e-05
-4.8879e-05
5.4493e-05
-3.7683e-05
3.78114e-05
-2.85916e-05
2.4769e-05
-2.13323e-05
1.48148e-05
-1.56188e-05
7.42335e-06
-1.11809e-05
2.12644e-06
-7.77967e-06
-1.47578e-06
-5.21273e-06
-3.71621e-06
-3.31377e-06
-4.86854e-06
-1.94885e-06
-5.15752e-06
-1.01137e-06
-4.76887e-06
-4.16713e-07
-3.85779e-06
-9.75337e-08
-2.55719e-06
-9.81458e-07
-0.000181933
0.000311451
0.000197452
-0.000163687
0.000267338
-0.000143407
0.000223693
-0.000122587
0.00018254
-0.000102428
0.000145061
-8.38579e-05
0.000112188
-6.74174e-05
8.42675e-05
-5.33246e-05
6.12371e-05
-4.15531e-05
4.27214e-05
-3.19233e-05
2.81816e-05
-2.41774e-05
1.70231e-05
-1.80328e-05
8.67029e-06
-1.32164e-05
2.60695e-06
-9.48229e-06
-1.60771e-06
-6.61963e-06
-4.33844e-06
-4.45403e-06
-5.8818e-06
-2.84484e-06
-6.47773e-06
-1.68083e-06
-6.32153e-06
-8.75107e-07
-5.5746e-06
-3.59941e-07
-4.37296e-06
-8.23354e-08
-2.8348e-06
-1.06379e-06
-0.000353043
0.000255721
0.000408773
-0.000297459
0.000211754
-0.000244575
0.000170809
-0.000196431
0.000134397
-0.000154238
0.000102868
-0.000118508
7.64575e-05
-8.91289e-05
5.48881e-05
-6.55877e-05
3.76959e-05
-4.71536e-05
2.42873e-05
-3.30245e-05
1.40525e-05
-2.24226e-05
6.42116e-06
-1.46461e-05
8.9377e-07
-9.09062e-06
-2.94852e-06
-5.25124e-06
-5.4471e-06
-2.71401e-06
-6.87567e-06
-1.14327e-06
-7.45254e-06
-2.68097e-07
-7.35291e-06
1.30017e-07
-6.71965e-06
2.27391e-07
-5.67197e-06
1.66266e-07
-4.31183e-06
6.05704e-08
-2.7291e-06
-1.00322e-06
-0.000295564
0.000196772
0.000354512
-0.00024082
0.00015701
-0.000191874
0.000121863
-0.000149651
9.21743e-05
-0.000114318
6.75348e-05
-8.55414e-05
4.76809e-05
-6.2653e-05
3.19996e-05
-4.4832e-05
1.9875e-05
-3.1232e-05
1.06873e-05
-2.10599e-05
3.88046e-06
-1.3616e-05
-1.02271e-06
-8.30691e-06
-4.41536e-06
-4.64228e-06
-6.61315e-06
-2.22393e-06
-7.86544e-06
-7.31594e-07
-8.36801e-06
9.12019e-08
-8.27534e-06
4.4966e-07
-7.71137e-06
5.08122e-07
-6.77811e-06
3.98248e-07
-5.5621e-06
2.25125e-07
-4.13871e-06
7.14196e-08
-2.5754e-06
-9.31804e-07
-0.000233299
0.000140879
0.000289191
-0.00018417
0.000107882
-0.000142471
8.01629e-05
-0.000108
5.77038e-05
-8.02117e-05
3.97463e-05
-5.82836e-05
2.57528e-05
-4.13222e-05
1.50383e-05
-2.84487e-05
7.00146e-06
-1.8867e-05
1.10557e-06
-1.18887e-05
-3.09781e-06
-6.93849e-06
-5.97295e-06
-3.54566e-06
-7.80819e-06
-1.33081e-06
-8.82801e-06
9.41333e-09
-9.20566e-06
7.16559e-07
-9.07515e-06
9.82808e-07
-8.54159e-06
9.61097e-07
-7.68965e-06
7.73126e-07
-6.59014e-06
5.15446e-07
-5.30442e-06
2.64121e-07
-3.88738e-06
7.77976e-08
-2.38907e-06
-8.54006e-07
-0.000173858
9.24889e-05
0.000222248
-0.000133148
6.71721e-05
-9.99865e-05
4.70017e-05
-7.34732e-05
3.11906e-05
-5.2735e-05
1.90081e-05
-3.68019e-05
9.81981e-06
-2.47894e-05
3.02576e-06
-1.5909e-05
-1.87895e-06
-9.49248e-06
-5.31097e-06
-4.98703e-06
-7.60326e-06
-1.94419e-06
-9.01579e-06
-4.44824e-09
-9.74793e-06
1.11823e-06
-9.95068e-06
1.65064e-06
-9.73808e-06
1.77247e-06
-9.19698e-06
1.62617e-06
-8.39528e-06
1.32466e-06
-7.38815e-06
9.57207e-07
-6.22268e-06
5.9374e-07
-4.94095e-06
2.88176e-07
-3.58182e-06
8.07844e-08
-2.18168e-06
-7.73222e-07
-0.00012225
5.34989e-05
0.000161239
-9.06219e-05
3.55445e-05
-6.56416e-05
2.20214e-05
-4.62138e-05
1.17627e-05
-3.14103e-05
4.20456e-06
-2.03339e-05
-1.25655e-06
-1.2223e-05
-5.08519e-06
-6.43344e-06
-7.66848e-06
-2.43757e-06
-9.30684e-06
1.91173e-07
-1.0232e-05
1.79343e-06
-1.06181e-05
2.63924e-06
-1.05937e-05
2.94176e-06
-1.02532e-05
2.86907e-06
-9.66538e-06
2.55371e-06
-8.88163e-06
2.1003e-06
-7.94186e-06
1.5913e-06
-6.87916e-06
1.09132e-06
-5.7227e-06
6.50191e-07
-4.49982e-06
3.05214e-07
-3.23684e-06
8.28192e-08
-1.95929e-06
-6.90403e-07
-8.02584e-05
2.36857e-05
0.000110072
-5.68336e-05
1.21197e-05
-3.8794e-05
3.98179e-06
-2.51483e-05
-1.88298e-06
-1.50512e-05
-5.89252e-06
-7.75869e-06
-8.54907e-06
-2.65402e-06
-1.01899e-05
7.68893e-07
-1.10914e-05
2.91775e-06
-1.14557e-05
4.1173e-06
-1.14316e-05
4.62388e-06
-1.11246e-05
4.6387e-06
-1.06085e-05
4.31918e-06
-9.93369e-06
3.78851e-06
-9.13471e-06
3.14311e-06
-8.23623e-06
2.45858e-06
-7.25733e-06
1.7938e-06
-6.21438e-06
1.19438e-06
-5.12328e-06
6.94618e-07
-4.00005e-06
3.1935e-07
-2.86158e-06
8.48608e-08
-1.7248e-06
-6.05542e-07
-4.67431e-05
1.79366e-06
6.86352e-05
-3.0114e-05
-4.5094e-06
-1.76952e-05
-8.43704e-06
-8.66062e-06
-1.09176e-05
-2.28596e-06
-1.22672e-05
2.02778e-06
-1.28628e-05
4.77194e-06
-1.2934e-05
6.34059e-06
-1.266e-05
7.0459e-06
-1.2161e-05
7.13213e-06
-1.15178e-05
6.78883e-06
-1.07813e-05
6.16234e-06
-9.98206e-06
5.36555e-06
-9.1369e-06
4.48556e-06
-8.25473e-06
3.58996e-06
-7.34063e-06
2.73098e-06
-6.39835e-06
1.9491e-06
-5.4325e-06
1.27479e-06
-4.44897e-06
7.30582e-07
-3.45584e-06
3.31665e-07
-2.46266e-06
8.70747e-08
-1.48021e-06
-5.18467e-07
-1.91325e-05
-1.32679e-05
3.41941e-05
-8.23639e-06
-1.54056e-05
-5.4136e-07
-1.61321e-05
4.64488e-06
-1.61038e-05
7.92649e-06
-1.55488e-05
9.78077e-06
-1.47171e-05
1.05908e-05
-1.3744e-05
1.06545e-05
-1.27237e-05
1.02013e-05
-1.17079e-05
9.4056e-06
-1.0722e-05
8.39866e-06
-9.7744e-06
7.27932e-06
-8.86271e-06
6.12189e-06
-7.97947e-06
4.9828e-06
-7.11564e-06
3.90492e-06
-6.26275e-06
2.92132e-06
-5.41476e-06
2.05698e-06
-4.56816e-06
1.33083e-06
-3.72282e-06
7.55911e-07
-2.88093e-06
3.40734e-07
-2.04748e-06
8.889e-08
-1.22836e-06
-4.29577e-07
4.39208e-06
-2.20387e-05
4.37872e-06
1.01084e-05
-2.11219e-05
1.35818e-05
-1.96054e-05
1.53823e-05
-1.79044e-05
1.59867e-05
-1.61532e-05
1.57532e-05
-1.44836e-05
1.49564e-05
-1.29472e-05
1.37992e-05
-1.15665e-05
1.24301e-05
-1.03388e-05
1.09563e-05
-9.2483e-06
9.45477e-06
-8.27282e-06
7.98049e-06
-7.38844e-06
6.57347e-06
-6.57245e-06
5.26297e-06
-5.80514e-06
4.07109e-06
-5.07086e-06
3.01432e-06
-4.35799e-06
2.10551e-06
-3.65935e-06
1.35372e-06
-2.97103e-06
7.65456e-07
-2.29266e-06
3.43886e-07
-1.62591e-06
8.95644e-08
-9.74043e-07
-3.40013e-07
2.38709e-05
-2.48346e-05
-2.1075e-05
2.48028e-05
-2.20538e-05
2.44871e-05
-1.92897e-05
2.33435e-05
-1.67608e-05
2.16967e-05
-1.45064e-05
1.97703e-05
-1.25572e-05
1.77207e-05
-1.08976e-05
1.56516e-05
-9.49745e-06
1.36306e-05
-8.31775e-06
1.17002e-05
-7.31789e-06
9.88682e-06
-6.45946e-06
8.20683e-06
-5.70845e-06
6.6705e-06
-5.03612e-06
5.28474e-06
-4.41938e-06
4.05438e-06
-3.8405e-06
2.98333e-06
-3.28695e-06
2.07437e-06
-2.75038e-06
1.32983e-06
-2.22648e-06
7.50713e-07
-1.71355e-06
3.37265e-07
-1.21246e-06
8.79683e-08
-7.24746e-07
-2.52044e-07
3.76927e-05
-2.23409e-05
-4.01864e-05
3.4567e-05
-1.89281e-05
3.11901e-05
-1.59128e-05
2.77893e-05
-1.336e-05
2.45126e-05
-1.12297e-05
2.14372e-05
-9.48186e-06
1.85987e-05
-8.05897e-06
1.60053e-05
-6.90414e-06
1.36513e-05
-5.96367e-06
1.15236e-05
-5.19026e-06
9.60781e-06
-4.54364e-06
7.88994e-06
-3.99058e-06
6.35835e-06
-3.50453e-06
5.00378e-06
-3.06481e-06
3.81944e-06
-2.65615e-06
2.80024e-06
-2.26775e-06
1.94276e-06
-1.89291e-06
1.24424e-06
-1.52796e-06
7.02745e-07
-1.17206e-06
3.1626e-07
-8.25977e-07
8.28014e-08
-4.91288e-07
-1.69243e-07
4.36436e-05
-1.60499e-05
-4.99345e-05
3.78287e-05
-1.31132e-05
3.26055e-05
-1.06896e-05
2.79899e-05
-8.74442e-06
2.39548e-05
-7.1946e-06
2.04436e-05
-5.97063e-06
1.73907e-05
-5.00605e-06
1.47311e-05
-4.24456e-06
1.24065e-05
-3.6391e-06
1.03676e-05
-3.15131e-06
8.57436e-06
-2.75044e-06
6.99594e-06
-2.41216e-06
5.60892e-06
-2.1175e-06
4.39619e-06
-1.85208e-06
3.34534e-06
-1.6053e-06
2.44755e-06
-1.36995e-06
1.69621e-06
-1.14157e-06
1.08654e-06
-9.18296e-07
6.14668e-07
-7.0018e-07
2.77683e-07
-4.88992e-07
7.32296e-08
-2.86835e-07
-9.60133e-08
4.01002e-05
-8.38299e-06
-4.77672e-05
3.36222e-05
-6.63517e-06
2.82066e-05
-5.27401e-06
2.36945e-05
-4.23228e-06
1.99338e-05
-3.4339e-06
1.67859e-05
-2.8227e-06
1.41328e-05
-2.35295e-06
1.18777e-05
-1.98953e-06
9.94395e-06
-1.7053e-06
8.27196e-06
-1.47932e-06
6.81693e-06
-1.29541e-06
5.54584e-06
-1.14107e-06
4.435e-06
-1.00667e-06
3.46778e-06
-8.84865e-07
2.6327e-06
-7.70221e-07
1.92171e-06
-6.58959e-07
1.32901e-06
-5.48868e-07
8.49915e-07
-4.39201e-07
4.80485e-07
-3.30749e-07
2.17184e-07
-2.25691e-07
5.73514e-08
-1.27002e-07
-3.86619e-08
2.76649e-05
-2.26486e-06
-3.3783e-05
2.27615e-05
-1.73183e-06
1.88332e-05
-1.34567e-06
1.5669e-05
-1.06809e-06
1.30994e-05
-8.64263e-07
1.09896e-05
-7.12966e-07
9.23568e-06
-5.98992e-07
7.7581e-06
-5.11951e-07
6.4972e-06
-4.44401e-07
5.40878e-06
-3.90907e-07
4.46077e-06
-3.47389e-07
3.63041e-06
-3.10707e-07
2.90213e-06
-2.78388e-07
2.26571e-06
-2.48449e-07
1.71479e-06
-2.19295e-07
1.24552e-06
-1.8969e-07
8.55433e-07
-1.58783e-07
5.42448e-07
-1.26216e-07
3.04053e-07
-9.2353e-08
1.36853e-07
-5.84912e-08
3.66193e-08
-2.67688e-08
-2.04259e-09
9.3869e-06
-1.15997e-05
7.69982e-06
6.39277e-06
5.35814e-06
4.52298e-06
3.83544e-06
3.25878e-06
2.76653e-06
2.33962e-06
1.9643e-06
1.63089e-06
1.33276e-06
1.06571e-06
8.27505e-07
6.17442e-07
4.3603e-07
2.84589e-07
1.64766e-07
7.78045e-08
2.36122e-08
-6.91354e-11
0.000298381
2.61396e-05
6.03493e-07
-0.000325124
0.000273123
2.46105e-05
6.4771e-07
0.000249259
2.31772e-05
6.87178e-07
0.000226708
2.18291e-05
7.21609e-07
0.000205395
2.0562e-05
7.51075e-07
0.000185247
1.93722e-05
7.75735e-07
0.000166196
1.82556e-05
7.95789e-07
0.000148177
1.72076e-05
8.11476e-07
0.000131129
1.62241e-05
8.23053e-07
0.000114998
1.53005e-05
8.30762e-07
9.97317e-05
1.44316e-05
8.34715e-07
8.52876e-05
1.36094e-05
8.34647e-07
7.16387e-05
1.28194e-05
8.29516e-07
5.87856e-05
1.20359e-05
8.17144e-07
4.67723e-05
1.12192e-05
7.94115e-07
3.56982e-05
1.03179e-05
7.56209e-07
2.57226e-05
9.27631e-06
6.99244e-07
1.70554e-05
8.04712e-06
6.2013e-07
9.93432e-06
6.60337e-06
5.17693e-07
4.59476e-06
4.94644e-06
3.93122e-07
1.23696e-06
3.10793e-06
2.49875e-07
1.14393e-06
9.30238e-08
0.000297982
5.28054e-05
-0.000324647
0.000272793
4.97991e-05
0.000248989
4.69814e-05
0.00022649
4.43283e-05
0.00020522
4.18312e-05
0.000185109
3.94834e-05
0.000166089
3.72762e-05
0.000148095
3.52014e-05
0.000131068
3.32505e-05
0.000114954
3.14151e-05
9.97005e-05
2.9685e-05
8.52662e-05
2.80437e-05
7.16243e-05
2.64614e-05
5.87758e-05
2.48843e-05
4.67652e-05
2.32299e-05
3.56926e-05
2.13905e-05
2.5718e-05
1.92509e-05
1.70517e-05
1.67134e-05
9.93186e-06
1.37232e-05
4.59356e-06
1.02847e-05
1.23669e-06
6.4648e-06
2.38062e-06
0.000296742
7.9268e-05
-0.000323205
0.000271729
7.4812e-05
0.000248075
7.06353e-05
0.000225707
6.66968e-05
0.000204551
6.29864e-05
0.00018454
5.94946e-05
0.000165607
5.62093e-05
0.00014769
5.31184e-05
0.000130731
5.02101e-05
0.000114674
4.74718e-05
9.94706e-05
4.48884e-05
8.50787e-05
4.24356e-05
7.14725e-05
4.00676e-05
5.86538e-05
3.7703e-05
4.6668e-05
3.52157e-05
3.56161e-05
3.24424e-05
2.56596e-05
2.92074e-05
1.70094e-05
2.53636e-05
9.90432e-06
2.08283e-05
4.57896e-06
1.56101e-05
1.23188e-06
9.81188e-06
3.6125e-06
0.000295013
0.00010542
-0.000321165
0.00027027
9.95547e-05
0.000246846
9.40593e-05
0.000224675
8.88686e-05
0.000203688
8.39732e-05
0.000183821
7.93616e-05
0.000165011
7.50188e-05
0.0001472
7.09299e-05
0.00013033
6.70796e-05
0.00011435
6.34521e-05
9.92106e-05
6.00277e-05
8.4872e-05
5.67742e-05
7.13091e-05
5.36304e-05
5.85253e-05
5.04868e-05
4.65669e-05
4.71742e-05
3.55371e-05
4.34721e-05
2.55988e-05
3.91458e-05
1.69651e-05
3.39973e-05
9.87512e-06
2.79183e-05
4.56349e-06
2.09217e-05
1.22694e-06
1.31484e-05
4.83944e-06
0.000292976
0.000131168
-0.000318724
0.000268581
0.00012395
0.000245451
0.00011719
0.000223529
0.000110791
0.000202754
0.000104748
0.000183068
9.90482e-05
0.000164411
9.36754e-05
0.000146729
8.86123e-05
0.000129967
8.3841e-05
0.000114077
7.93428e-05
9.90105e-05
7.50939e-05
8.47301e-05
7.10546e-05
7.12119e-05
6.71486e-05
5.84603e-05
6.32384e-05
4.65235e-05
5.9111e-05
3.55068e-05
5.44889e-05
2.55759e-05
4.90766e-05
1.69469e-05
4.26263e-05
9.86145e-06
3.50037e-05
4.55491e-06
2.62283e-05
1.2236e-06
1.64797e-05
6.06304e-06
0.000291029
0.000156456
-0.000316316
0.000267028
0.000147951
0.000244226
0.000139991
0.00022258
0.000132437
0.000202036
0.000125291
0.000182542
0.000118543
0.000164043
0.000112174
0.00014649
0.000106165
0.000129833
0.000100498
0.000114024
9.51516e-05
9.90202e-05
9.00981e-05
8.47839e-05
8.52909e-05
7.12933e-05
8.06391e-05
5.85539e-05
7.59778e-05
4.6616e-05
7.10489e-05
3.55869e-05
6.55179e-05
2.5637e-05
5.90265e-05
1.69865e-05
5.12768e-05
9.88226e-06
4.2108e-05
4.56243e-06
3.15481e-05
1.22434e-06
1.98178e-05
7.28738e-06
0.000289386
0.000181241
-0.000314171
0.000265808
0.000171529
0.000243353
0.000162446
0.000221992
0.000153797
0.000201682
0.000145602
0.000182376
0.000137849
0.000164029
0.000130521
0.000146595
0.000123599
0.000130028
0.000117065
0.000114285
0.000110895
9.93241e-05
0.000105059
8.51106e-05
9.95044e-05
7.16232e-05
9.41266e-05
5.88687e-05
8.87323e-05
4.6898e-05
8.30197e-05
3.58226e-05
7.65933e-05
2.58169e-05
6.90322e-05
1.71095e-05
5.99842e-05
9.95346e-06
4.9264e-05
4.5941e-06
3.69074e-05
1.23183e-06
2.31801e-05
8.51921e-06
0.000288227
0.000205495
-0.000312481
0.000265089
0.000194667
0.000242989
0.000184545
0.000221916
0.000174871
0.000201833
0.000165684
0.000182706
0.000156976
0.000164495
0.000148732
0.000147159
0.000140935
0.000130658
0.000133566
0.000114952
0.0001266
0.000100004
0.000120007
8.57793e-05
0.000113729
7.22595e-05
0.000107646
5.94509e-05
0.000101541
4.74065e-05
9.5064e-05
3.62402e-05
8.77596e-05
2.61345e-05
7.91379e-05
1.73259e-05
6.87928e-05
1.00801e-05
5.65098e-05
4.6507e-06
4.23369e-05
1.24541e-06
2.65854e-05
9.76462e-06
0.000287681
0.000229203
-0.000311389
0.000264984
0.000217364
0.00024323
0.000206299
0.000222426
0.000195675
0.00020255
0.00018556
0.000183576
0.00017595
0.000165474
0.000166834
0.00014821
0.0001582
0.000131748
0.000150028
0.000116051
0.000142297
0.000101085
0.000134973
8.6819e-05
0.000127995
7.32323e-05
0.000121233
6.03323e-05
0.000114441
4.81716e-05
0.000107225
3.68687e-05
9.90625e-05
2.6613e-05
8.93936e-05
1.76554e-05
7.77504e-05
1.02751e-05
6.38901e-05
4.7408e-06
4.78712e-05
1.26865e-06
3.00575e-05
1.10333e-05
0.000287788
0.000252349
-0.000310935
0.000265538
0.000239613
0.000244133
0.000227705
0.000223593
0.000216216
0.000203909
0.000205244
0.000185065
0.000194793
0.000167042
0.000184858
0.000149812
0.000175429
0.000133348
0.000166493
0.000117617
0.000158028
0.000102588
0.000150002
8.82323e-05
0.000142351
7.45309e-05
0.000134935
6.14899e-05
0.000127482
4.91632e-05
0.000119551
3.76728e-05
0.000110553
2.72189e-05
9.98475e-05
1.80668e-05
8.69025e-05
1.05149e-05
7.1442e-05
4.84788e-06
5.35383e-05
1.29432e-06
3.36111e-05
1.23276e-05
0.000288536
0.000274926
-0.000311112
0.000266712
0.000261437
0.000245622
0.000248795
0.000225312
0.000236525
0.000205791
0.000224766
0.000187053
0.000213531
0.000169085
0.000202825
0.000151869
0.000192645
0.000135381
0.000182981
0.000119593
0.000173815
0.000104479
0.000165117
9.00092e-05
0.00015682
7.61655e-05
0.000148778
6.29521e-05
0.000140695
5.04213e-05
0.000132082
3.86988e-05
0.000122275
2.79958e-05
0.000110551
1.8598e-05
9.63003e-05
1.08276e-05
7.92124e-05
4.99144e-06
5.93744e-05
1.33173e-06
3.72708e-05
1.36593e-05
0.000289946
0.0002969
-0.00031192
0.000268574
0.00028281
0.000247814
0.000269555
0.000227726
0.000256613
0.000208335
0.000244156
0.000189657
0.000232209
0.000171693
0.000220789
0.000154433
0.000209905
0.000137862
0.000199552
0.000121959
0.000189719
0.000106699
0.000180377
9.20565e-05
0.000171463
7.80127e-05
0.000162822
6.4571e-05
0.000154137
5.17843e-05
0.000144869
3.97841e-05
0.000134276
2.8796e-05
0.000121539
1.91273e-05
0.000105969
1.1125e-05
8.72147e-05
5.11732e-06
6.53821e-05
1.35861e-06
4.10295e-05
1.50179e-05
0.000291826
0.000318282
-0.000313208
0.000270834
0.000303802
0.000250361
0.000290027
0.000230474
0.0002765
0.00021121
0.00026342
0.000192594
0.000250825
0.000174635
0.000238748
0.000157332
0.000227208
0.000140677
0.000216207
0.000124654
0.000205742
0.000109243
0.000195788
9.44207e-05
0.000186285
8.01667e-05
0.000177076
6.64809e-05
0.000167823
5.34135e-05
0.000157936
4.10986e-05
0.00014659
2.97762e-05
0.000132861
1.97811e-05
0.000115964
1.14953e-05
9.55004e-05
5.27783e-06
7.15996e-05
1.39727e-06
4.49101e-05
1.64152e-05
0.000294073
0.000338855
-0.000314646
0.000273561
0.000324314
0.000253394
0.000310195
0.000233675
0.000296219
0.000214482
0.000282613
0.000195861
0.000269446
0.000177838
0.000256771
0.000160425
0.000244621
0.000143621
0.000233012
0.000127417
0.000221945
0.000111797
0.000211407
9.67407e-05
0.000201342
8.22269e-05
0.00019159
6.82539e-05
0.000181796
5.48709e-05
0.000171319
4.22188e-05
0.000159243
3.05569e-05
0.000144523
2.02521e-05
0.000126269
1.17212e-05
0.000104031
5.3467e-06
7.79741e-05
1.39926e-06
4.88575e-05
1.78145e-05
0.000296621
0.000358678
-0.000316444
0.000276453
0.000344482
0.000256593
0.000330055
0.00023708
0.000315731
0.000218004
0.000301689
0.000199423
0.000288027
0.000181373
0.000274821
0.000163875
0.000262119
0.000146938
0.000249949
0.000130558
0.000238325
0.000114725
0.00022724
9.94188e-05
0.000216648
8.46176e-05
0.000206391
7.03161e-05
0.000196097
5.65639e-05
0.000185071
4.35121e-05
0.000172294
3.14437e-05
0.000156591
2.07619e-05
0.000136951
1.19262e-05
0.000112867
5.3567e-06
8.45435e-05
1.34613e-06
5.28681e-05
1.91606e-05
1.27086e-05
0.000361161
-1.51916e-05
1.01584e-05
0.000347032
7.71467e-06
0.000332499
5.28821e-06
0.000318158
2.88975e-06
0.000304088
5.15059e-07
0.000290402
-1.83439e-06
0.000277171
-4.15333e-06
0.000264438
-6.43436e-06
0.00025223
-8.66574e-06
0.000240556
-1.08217e-05
0.000229396
-1.28395e-05
0.000218666
-1.45859e-05
0.000208137
-1.58354e-05
0.000197347
-1.62932e-05
0.000185529
-1.56812e-05
0.000171682
-1.38661e-05
0.000154776
-1.09708e-05
0.000134056
-7.41628e-06
0.000109313
-3.8722e-06
8.09995e-05
-1.13977e-06
5.01357e-05
1.80208e-05
7.58235e-06
0.000363954
-1.03756e-05
4.91991e-06
0.000349695
2.29412e-06
0.000335125
-2.76988e-07
0.000320729
-2.77672e-06
0.000306587
-5.20455e-06
0.00029283
-7.55497e-06
0.000279521
-9.82257e-06
0.000266706
-1.19999e-05
0.000254408
-1.40725e-05
0.000242629
-1.60046e-05
0.000231328
-1.7713e-05
0.000220374
-1.90384e-05
0.000209463
-1.97379e-05
0.000198046
-1.95277e-05
0.000185319
-1.81773e-05
0.000170332
-1.56292e-05
0.000152228
-1.20859e-05
0.000130512
-8.02869e-06
0.000105255
-4.15115e-06
7.71219e-05
-1.23324e-06
4.72178e-05
1.67876e-05
2.40519e-06
0.000366968
-5.41965e-06
-3.71778e-07
0.000352472
-3.10339e-06
0.000337856
-5.7299e-06
0.000323355
-8.24881e-06
0.000309106
-1.06565e-05
0.000295237
-1.29478e-05
0.000281812
-1.51183e-05
0.000268876
-1.71597e-05
0.000256449
-1.9052e-05
0.000244521
-2.07448e-05
0.000233021
-2.21302e-05
0.000221759
-2.30216e-05
0.000210354
-2.3163e-05
0.000198188
-2.22874e-05
0.000184443
-2.02191e-05
0.000168264
-1.69787e-05
0.000148988
-1.28509e-05
0.000126385
-8.37371e-06
0.000100778
-4.25587e-06
7.30041e-05
-1.24416e-06
4.42061e-05
1.55434e-05
-2.77207e-06
0.000370102
-3.61077e-07
-5.65168e-06
0.000355351
-8.44098e-06
0.000340646
-1.10833e-05
0.000325998
-1.35848e-05
0.000311608
-1.59393e-05
0.000297592
-1.81436e-05
0.000284017
-2.01937e-05
0.000270926
-2.20789e-05
0.000258334
-2.37702e-05
0.000246213
-2.5198e-05
0.000234449
-2.62268e-05
0.000222788
-2.66455e-05
0.000210773
-2.61931e-05
0.000197735
-2.46334e-05
0.000182884
-2.1855e-05
0.000165485
-1.79653e-05
0.000145098
-1.33262e-05
0.000121745
-8.52219e-06
9.59742e-05
-4.25622e-06
6.87381e-05
-1.22277e-06
4.11726e-05
1.43206e-05
-8.05409e-06
0.000373294
4.86189e-06
-1.09951e-05
0.000358292
-1.37917e-05
0.000343442
-1.64085e-05
0.000328614
-1.88545e-05
0.000314054
-2.11239e-05
0.000299861
-2.32151e-05
0.000286108
-2.51234e-05
0.000272834
-2.68333e-05
0.000260044
-2.83021e-05
0.000247681
-2.94365e-05
0.000235583
-3.00729e-05
0.000223425
-2.99803e-05
0.00021068
-2.89044e-05
0.000196659
-2.66505e-05
0.00018063
-2.31826e-05
0.000162017
-1.86922e-05
0.000140607
-1.36133e-05
0.000116666
-8.55773e-06
9.09186e-05
-4.20727e-06
6.43876e-05
-1.19045e-06
3.81558e-05
1.31302e-05
-1.3578e-05
0.000376504
1.03673e-05
-1.6536e-05
0.00036125
-1.92989e-05
0.000346205
-2.18545e-05
0.00033117
-2.42113e-05
0.000316411
-2.63662e-05
0.000302016
-2.83189e-05
0.000288061
-3.00624e-05
0.000274578
-3.15726e-05
0.000261554
-3.27887e-05
0.000248897
-3.35904e-05
0.000236385
-3.37866e-05
0.000223621
-3.3134e-05
0.000210028
-3.1396e-05
0.000194921
-2.84329e-05
0.000177667
-2.42882e-05
0.000157873
-1.92387e-05
0.000135558
-1.37755e-05
0.000111203
-8.5247e-06
8.56678e-05
-4.13106e-06
5.9994e-05
-1.15295e-06
3.51777e-05
1.19772e-05
-1.94941e-05
0.00037969
1.63087e-05
-2.24187e-05
0.000364175
-2.51065e-05
0.000348893
-2.75635e-05
0.000333627
-2.97974e-05
0.000318645
-3.18082e-05
0.000304027
-3.35956e-05
0.000289848
-3.51477e-05
0.00027613
-3.64277e-05
0.000262834
-3.73513e-05
0.000249821
-3.77688e-05
0.000236803
-3.74643e-05
0.000223316
-3.61917e-05
0.000208755
-3.37451e-05
0.000192475
-3.00506e-05
0.000173972
-2.52371e-05
0.000153059
-1.96602e-05
0.000129981
-1.38567e-05
0.0001054
-8.451e-06
8.02621e-05
-4.04139e-06
5.55844e-05
-1.11391e-06
3.22502e-05
1.08633e-05
-2.6013e-05
0.000382809
2.28934e-05
-2.88566e-05
0.000367018
-3.14288e-05
0.000351465
-3.37483e-05
0.000335947
-3.58231e-05
0.000320719
-3.7656e-05
0.00030586
-3.92448e-05
0.000291437
-4.05696e-05
0.000277455
-4.15749e-05
0.00026384
-4.2149e-05
0.000250395
-4.21108e-05
0.000236765
-4.12263e-05
0.000222432
-3.92561e-05
0.000206785
-3.60409e-05
0.00018926
-3.15809e-05
0.000169512
-2.60953e-05
0.000147574
-2.0009e-05
0.000123895
-1.38944e-05
9.92851e-05
-8.35843e-06
7.47261e-05
-3.94835e-06
5.11743e-05
-1.07548e-06
2.93773e-05
9.78785e-06
-3.33306e-05
0.000385815
3.03254e-05
-3.60406e-05
0.000369728
-3.8452e-05
0.000353877
-4.0591e-05
0.000338086
-4.24666e-05
0.000322595
-4.40831e-05
0.000307477
-4.54335e-05
0.000292787
-4.64844e-05
0.000278506
-4.71565e-05
0.000264512