/*--------------------------------*- C++ -*----------------------------------*\
| =========                 |                                                 |
| \\      /  F ield         | OpenFOAM Extend Project: Open source CFD        |
|  \\    /   O peration     | Version:  1.6-ext                               |
|   \\  /    A nd           | Web:      www.extend-project.de                 |
|    \\/     M anipulation  |                                                 |
\*---------------------------------------------------------------------------*/
FoamFile
{
    version     2.0;
    format      ascii;
    class       volVectorField;
    location    "0.4";
    object      U;
}
// * * * * * * * * * * * * * * * * * * * * * * * * * * * * * * * * * * * * * //

dimensions      [0 1 -1 0 0 0 0];

internalField   nonuniform List<vector> 
20940
(
(1.85473 0.387328 1.50617e-21)
(1.8953 0.40745 0)
(1.93378 0.426907 -2.62474e-21)
(1.96932 0.444651 6.72712e-21)
(2.00168 0.460916 7.25559e-22)
(2.02929 0.474612 0)
(2.04927 0.484682 -8.52791e-21)
(2.05688 0.489228 -5.67013e-21)
(2.04578 0.486046 6.17648e-21)
(2.00878 0.472883 -8.41321e-21)
(1.93943 0.448124 1.86015e-20)
(1.83381 0.411417 1.15482e-20)
(1.69201 0.364053 -2.55396e-20)
(1.5186 0.308902 2.88008e-20)
(1.3219 0.249908 -1.53798e-20)
(1.11239 0.191325 -1.74761e-20)
(0.900774 0.137008 1.85746e-20)
(0.696406 0.0899352 0)
(0.506374 0.0520017 -1.07595e-20)
(0.335215 0.0240538 1.11189e-20)
(0.185122 0.00663266 2.90837e-24)
(0.056412 0.000475444 -4.76822e-21)
(1.8817 0.362898 -1.50543e-21)
(1.92106 0.381876 -3.37493e-21)
(1.95802 0.399534 -1.06299e-20)
(1.99149 0.415523 -1.76866e-21)
(2.02071 0.42954 4.44577e-21)
(2.04329 0.440426 0)
(2.05532 0.446824 2.62132e-20)
(2.05112 0.446741 0)
(2.02388 0.438113 0)
(1.96694 0.419209 0)
(1.87548 0.389281 -2.90719e-20)
(1.7482 0.349007 4.36616e-20)
(1.58814 0.300582 -2.4159e-20)
(1.4024 0.247371 0)
(1.2008 0.193258 7.81185e-21)
(0.994013 0.141941 1.63573e-20)
(0.791892 0.096403 -9.20048e-21)
(0.602301 0.0586768 0)
(0.430674 0.0298157 0)
(0.280072 0.0100293 0)
(0.151607 -0.000570722 -2.24503e-20)
(0.0449673 -0.00149536 2.32285e-20)
(1.90641 0.338395 5.7141e-21)
(1.94425 0.356303 -1.34437e-21)
(1.97916 0.372281 1.35399e-20)
(2.00975 0.386547 -1.61052e-20)
(2.0345 0.398243 -2.44582e-21)
(2.05002 0.406134 0)
(2.05137 0.408619 -3.68655e-20)
(2.03216 0.403756 -2.48138e-20)
(1.9857 0.389828 -1.28438e-21)
(1.90657 0.365813 6.48934e-20)
(1.79231 0.331916 -7.4326e-20)
(1.64458 0.289747 8.52218e-20)
(1.46924 0.242131 2.25434e-21)
(1.27533 0.192561 -5.25083e-20)
(1.07332 0.144535 0)
(0.873332 0.100999 -4.8677e-20)
(0.683837 0.0640377 3.39867e-20)
(0.511 0.0348331 3.69436e-20)
(0.358627 0.0137607 -3.84259e-20)
(0.228463 0.000562867 4.09672e-20)
(0.120721 -0.00495422 -4.21558e-20)
(0.0346088 -0.00250139 -8.64641e-21)
(1.92997 0.31419 -5.69397e-21)
(1.96584 0.331112 8.76522e-21)
(1.99796 0.345469 -2.86135e-20)
(2.02442 0.357948 -1.92766e-20)
(2.04274 0.36713 2.26244e-20)
(2.04843 0.371732 0)
(2.03566 0.370022 0)
(1.99782 0.360307 2.22403e-20)
(1.92911 0.34143 2.67555e-20)
(1.82619 0.31323 -3.02074e-20)
(1.68952 0.276841 -3.51976e-20)
(1.52382 0.234596 0)
(1.33727 0.189604 0)
(1.14 0.145128 -5.20883e-20)
(0.942243 0.104031 -1.53513e-21)
(0.752895 0.0684128 -1.39731e-21)
(0.578702 0.0395156 3.2803e-20)
(0.424071 0.0178159 -1.69447e-20)
(0.291303 0.0031808 -7.41127e-20)
(0.181035 -0.00495985 5.78781e-20)
(0.0927797 -0.00698978 -2.09858e-20)
(0.0254079 -0.00274181 4.21357e-20)
(1.95211 0.290385 0)
(1.98541 0.306332 2.36357e-20)
(2.01364 0.319048 -1.24219e-20)
(2.03422 0.329582 -2.16648e-21)
(2.04349 0.335978 2.13491e-20)
(2.03592 0.33699 -3.62345e-21)
(2.0052 0.330922 3.52993e-20)
(1.94528 0.316558 0)
(1.85214 0.293478 0)
(1.72526 0.262424 3.10575e-20)
(1.56829 0.225304 -7.22982e-20)
(1.38862 0.184856 3.87681e-20)
(1.19593 0.1441 0)
(1.00046 0.10578 0)
(0.811387 0.0719841 2.60285e-20)
(0.635919 0.0439927 0)
(0.478945 0.0223337 3.17653e-20)
(0.343217 0.00695023 1.69208e-20)
(0.22976 -0.0026314 7.02352e-20)
(0.138344 -0.00715854 -5.39038e-20)
(0.0679868 -0.00710991 -1.96303e-20)
(0.0173725 -0.00238058 1.55873e-20)
(1.97236 0.267058 1.49363e-20)
(2.00218 0.282006 -2.55598e-20)
(2.02495 0.292983 -5.09383e-21)
(2.03721 0.301314 3.70141e-20)
(2.03405 0.304603 -2.45553e-20)
(2.00931 0.301783 0)
(1.95686 0.291417 -7.65484e-20)
(1.87216 0.272968 8.89078e-20)
(1.75388 0.246848 3.38519e-21)
(1.60475 0.214599 -1.19805e-19)
(1.43138 0.178618 -3.03702e-21)
(1.24301 0.141678 1.13836e-19)
(1.04979 0.106387 1.27409e-19)
(0.86111 0.0747931 -9.17601e-20)
(0.68453 0.0481987 -2.59507e-20)
(0.525335 0.0271764 0)
(0.386637 0.01171 -5.9153e-20)
(0.269768 0.00138302 6.19059e-20)
(0.174755 -0.00447339 0)
(0.100746 -0.00667748 3.37989e-20)
(0.0464573 -0.00573576 -1.76447e-20)
(0.0105061 -0.00156937 5.99379e-20)
(1.99037 0.244075 -1.68788e-20)
(2.01528 0.257871 0)
(2.03027 0.266889 0)
(2.03091 0.272703 -1.87968e-21)
(2.01133 0.272621 1.02559e-19)
(1.96534 0.26595 -5.69458e-20)
(1.888 0.251726 -3.44348e-20)
(1.7773 0.230219 -8.90608e-20)
(1.63515 0.202616 4.94271e-20)
(1.46746 0.171016 5.94042e-20)
(1.28306 0.137946 -6.42548e-20)
(1.09198 0.105871 0)
(0.903745 0.076781 -4.12617e-20)
(0.726209 0.0519812 8.94304e-20)
(0.564983 0.0320816 -1.41996e-19)
(0.423479 0.0171096 -5.06248e-20)
(0.303266 0.00668153 8.31577e-20)
(0.204557 0.000173783 9.50028e-22)
(0.126661 -0.00316392 -3.15801e-20)
(0.0683403 -0.00414588 -3.37488e-20)
(0.0281624 -0.00326381 1.76289e-20)
(0.00476766 -0.00044568 -1.48198e-20)
(2.00476 0.2214 -6.50874e-20)
(2.02267 0.233845 -3.0207e-20)
(2.02678 0.240644 0)
(2.01189 0.243635 -8.49739e-20)
(1.97168 0.240065 1.0731e-19)
(1.90093 0.229829 2.14939e-21)
(1.79702 0.212595 7.40818e-20)
(1.66116 0.189437 4.33875e-20)
(1.49862 0.162109 4.90756e-20)
(1.31782 0.132928 5.54345e-20)
(1.12869 0.104197 -6.19672e-20)
(0.940889 0.0778381 6.8649e-20)
(0.7625 0.0551462 0)
(0.599426 0.0367572 0)
(0.45533 0.0227406 2.05667e-21)
(0.331973 0.0127539 1.497e-19)
(0.229703 0.0062014 -1.31573e-19)
(0.147931 0.00237102 0)
(0.0855124 0.000510025 8.91267e-20)
(0.041008 -0.000145419 -1.54449e-19)
(0.012957 -4.92519e-05 3.18117e-20)
(8.25686e-05 0.000871433 4.15007e-20)
(2.01446 0.198587 -3.36614e-21)
(2.02233 0.209331 5.45068e-20)
(2.01163 0.21361 3.61739e-20)
(1.9768 0.213628 4.2853e-20)
(1.9121 0.20681 -5.21811e-20)
(1.81442 0.193775 0)
(1.68432 0.174857 -7.34283e-20)
(1.52647 0.151754 -8.65629e-20)
(1.34895 0.126476 4.57169e-20)
(1.16157 0.101202 -1.63638e-19)
(0.974103 0.0777614 5.98279e-20)
(0.794891 0.0574332 -2.06724e-21)
(0.630091 0.0408712 -3.60693e-20)
(0.483589 0.0281832 -8.09085e-20)
(0.357309 0.0190707 1.30471e-19)
(0.251701 0.0129775 9.44112e-20)
(0.166237 0.00921762 -1.5144e-19)
(0.0998159 0.00707192 -1.56595e-21)
(0.0510532 0.00583365 1.98199e-19)
(0.0184533 0.00481366 -8.75549e-20)
(0.000606638 0.00360546 -1.56473e-19)
(-0.00364767 0.002284 1.1756e-19)
(2.01628 0.175732 9.53787e-20)
(2.01047 0.184511 -5.56296e-20)
(1.98067 0.18615 3.85953e-20)
(1.92197 0.18329 0)
(1.8303 0.173795 0)
(1.70575 0.159062 -1.26736e-19)
(1.55236 0.139977 -3.53517e-21)
(1.37789 0.118579 1.63189e-19)
(1.19208 0.0967903 0)
(1.00485 0.0763864 -5.30626e-20)
(0.824779 0.058603 1.14887e-19)
(0.658303 0.0441072 0)
(0.50952 0.033039 1.04889e-19)
(0.380501 0.0251423 0)
(0.271778 0.0199043 0)
(0.182857 0.0166755 0)
(0.112651 0.0147606 -1.45149e-19)
(0.0597874 0.0134818 5.11551e-20)
(0.0228053 0.0122017 2.75178e-20)
(0.000250732 0.010314 -1.41491e-19)
(-0.0091857 0.00746092 8.8632e-20)
(-0.00653759 0.00371789 0)
(2.0088 0.151986 0)
(1.98465 0.158527 6.43907e-20)
(1.93153 0.157579 -1.44988e-19)
(1.84596 0.152365 0)
(1.72681 0.14129 0)
(1.57781 0.126365 -1.59127e-21)
(1.40623 0.108782 7.11609e-20)
(1.22181 0.090575 -2.42589e-19)
(1.03463 0.0733161 -2.48549e-21)
(0.853581 0.058244 9.99243e-20)
(0.685369 0.0460196 0)
(0.534326 0.0368173 0)
(0.402666 0.0304228 -5.24014e-22)
(0.290991 0.0263682 -7.26717e-20)
(0.198827 0.0240458 0)
(0.125075 0.022794 0)
(0.0683479 0.0219556 0)
(0.0271812 0.0209162 4.96177e-20)
(0.000149928 0.0191143 0)
(-0.0140974 0.0160242 2.76118e-20)
(-0.0167465 0.0113342 2.88619e-20)
(-0.00870632 0.00511907 0)
(1.98626 0.128451 1.54187e-21)
(1.94029 0.132833 -6.02233e-20)
(1.86081 0.129744 -1.16708e-19)
(1.74777 0.122963 9.05556e-20)
(1.60338 0.111465 -5.15832e-20)
(1.43491 0.0976728 0)
(1.25188 0.0828204 6.85862e-20)
(1.06467 0.0686641 -2.17246e-21)
(0.882481 0.0562935 1.76119e-19)
(0.712403 0.0464068 -9.68329e-20)
(0.559029 0.0391922 0)
(0.424738 0.0344772 -5.85662e-20)
(0.310205 0.0318362 -6.39158e-20)
(0.214961 0.0307024 6.94228e-20)
(0.137882 0.0304499 -7.66261e-20)
(0.0775433 0.0304478 -1.1019e-21)
(0.032451 0.0300951 8.70741e-20)
(0.00117168 0.0288434 -4.59046e-20)
(-0.0176154 0.0262006 4.85336e-20)
(-0.0251261 0.0217124 -1.04166e-19)
(-0.0224148 0.0151074 2.43359e-19)
(-0.0102754 0.00645782 -1.85052e-19)
(1.95046 0.103383 -2.35872e-21)
(1.87783 0.105853 0)
(1.77067 0.101422 1.53864e-19)
(1.63138 0.0942331 -9.10884e-20)
(1.46596 0.0838201 0)
(1.28428 0.0725554 0)
(1.09674 0.0615063 -6.85554e-20)
(0.91309 0.0519612 0)
(0.740802 0.0445249 0)
(0.584822 0.0394432 0)
(0.447729 0.0365767 5.33835e-20)
(0.330279 0.0355507 -5.56335e-20)
(0.232009 0.0358456 1.25878e-19)
(0.151747 0.0368767 -2.03965e-19)
(0.0880097 0.0380453 3.65391e-20)
(0.039248 0.0387712 0)
(0.00399135 0.0385117 8.46693e-20)
(-0.0190897 0.0367764 -4.36061e-20)
(-0.0311759 0.0331303 -4.8187e-20)
(-0.0333361 0.0271777 2.45488e-20)
(-0.0264959 0.0186807 -2.65101e-20)
(-0.0113483 0.00770821 0)
(1.8915 0.080935 -1.75197e-21)
(1.79384 0.082078 1.87592e-21)
(1.6598 0.0770315 -1.51859e-19)
(1.4987 0.0703699 4.57079e-20)
(1.31868 0.0618474 5.27782e-20)
(1.13108 0.053623 -5.90084e-20)
(0.94585 0.0465084 0)
(0.771135 0.0412857 0)
(0.612276 0.0381571 8.38388e-20)
(0.472146 0.0370354 -9.11701e-20)
(0.351637 0.0375824 5.09243e-20)
(0.250308 0.0393266 0)
(0.166945 0.0417275 6.15465e-20)
(0.0999901 0.0442236 -1.95591e-19)
(0.0478144 0.0462594 1.05843e-19)
(0.00888309 0.0473032 7.62392e-20)
(-0.0181737 0.0468585 -8.07018e-20)
(-0.0345448 0.044476 0)
(-0.0412601 0.0397594 4.5056e-20)
(-0.0392434 0.0323541 -2.43755e-20)
(-0.029301 0.0220429 1.00717e-19)
(-0.0120348 0.00888262 -1.08099e-19)
(1.82458 0.055527 5.47065e-20)
(1.69601 0.0562759 6.50743e-20)
(1.53875 0.0525157 7.86718e-20)
(1.36067 0.0473217 -8.75811e-20)
(1.17232 0.0419663 -1.02214e-19)
(0.984904 0.0376041 5.73954e-20)
(0.806921 0.0348272 -7.33689e-22)
(0.644341 0.0338765 0)
(0.500378 0.0346546 0)
(0.376139 0.0368777 0)
(0.271257 0.0401387 -9.81742e-20)
(0.184497 0.0439716 1.06052e-19)
(0.114217 0.0478826 5.86501e-20)
(0.0586829 0.0513692 0)
(0.0162544 0.0539318 6.74041e-20)
(-0.0145218 0.0550835 0)
(-0.0348867 0.0543609 -7.84725e-20)
(-0.0458839 0.0513379 8.27988e-20)
(-0.048398 0.0456384 8.71881e-20)
(-0.0432179 0.0369327 5.42219e-22)
(-0.031043 0.0250139 -9.66173e-20)
(-0.0124008 0.00992127 -8.38772e-20)
(1.68583 0.0384649 6.38275e-20)
(1.5238 0.0362951 0)
(1.34271 0.0338972 8.43555e-20)
(1.15405 0.0311465 1.42649e-19)
(0.967502 0.0294563 -5.3212e-20)
(0.791523 0.0290773 -6.07535e-20)
(0.631426 0.0302154 6.81017e-20)
(0.490169 0.0327429 0)
(0.368593 0.0364088 0)
(0.266154 0.0408812 0)
(0.181472 0.0457825 0)
(0.112785 0.0507105 -1.10288e-19)
(0.0582584 0.0552447 1.77745e-19)
(0.0161667 0.058951 0)
(-0.0150072 0.0613881 -6.97521e-20)
(-0.0365453 0.062117 0)
(-0.0495059 0.060715 0)
(-0.0547589 0.0567942 -1.25012e-19)
(-0.0530332 0.0500192 1.74611e-19)
(-0.0449797 0.0401136 -9.15755e-20)
(-0.0311875 0.0269179 0)
(-0.0121194 0.0104853 5.14654e-22)
(1.43836 0.0199269 -1.30892e-19)
(1.25386 0.0190485 3.89286e-20)
(1.06701 0.0202914 -1.28939e-19)
(0.886832 0.0212912 0)
(0.719731 0.023758 -5.57463e-20)
(0.56992 0.0270518 6.28657e-20)
(0.43918 0.0313044 -6.88703e-20)
(0.327661 0.0362426 0)
(0.234347 0.0416467 0)
(0.157612 0.0472469 -4.63692e-20)
(0.0955791 0.0527539 -1.52792e-19)
(0.0463841 0.0578534 5.50662e-20)
(0.00831592 0.0622059 -1.80409e-19)
(-0.0201106 0.0654501 1.28584e-19)
(-0.0401375 0.0672096 -6.94644e-20)
(-0.0527786 0.0671063 7.36404e-20)
(-0.0588543 0.0647772 0)
(-0.0590337 0.0598942 4.17676e-20)
(-0.0538798 0.0521829 1.40059e-22)
(-0.0438982 0.0414336 2.99266e-22)
(-0.0295527 0.0275403 -9.37893e-20)
(-0.0112213 0.010557 1.20897e-19)
(1.15331 0.0113412 0)
(0.969738 0.0126405 0)
(0.798359 0.0173668 0)
(0.641648 0.0210979 -1.01698e-19)
(0.503314 0.0261466 1.7105e-19)
(0.383864 0.0314024 4.5583e-22)
(0.282915 0.0370876 0)
(0.19906 0.0429323 6.09876e-22)
(0.130524 0.0487922 -8.601e-20)
(0.0753931 0.054468 1.40706e-19)
(0.0318314 0.0597445 5.14574e-20)
(-0.00181736 0.0643741 -5.57924e-20)
(-0.0269795 0.0680769 1.19813e-19)
(-0.0448434 0.0705446 0)
(-0.0563754 0.0714495 0)
(-0.0623508 0.0704597 0)
(-0.0633915 0.0672583 0)
(-0.0600045 0.0615632 0)
(-0.0526192 0.0531471 7.62459e-22)
(-0.0416233 0.0418496 2.21614e-20)
(-0.0273796 0.0276015 9.2557e-20)
(-0.0102012 0.0104485 -9.85825e-20)
(0.869435 0.0110014 7.29731e-20)
(0.705017 0.0152751 0)
(0.561341 0.0220845 0)
(0.434463 0.0274127 1.5543e-19)
(0.326747 0.0334457 -1.16266e-19)
(0.236291 0.039194 -4.63159e-22)
(0.161833 0.0449356 7.19345e-20)
(0.101397 0.0504995 5.7951e-22)
(0.0531364 0.0558288 -8.69496e-20)
(0.0152697 0.0607985 -4.72715e-20)
(-0.013778 0.0652561 -1.03609e-19)
(-0.0353627 0.0690038 2.23716e-19)
(-0.0506151 0.071803 -5.97995e-20)
(-0.0604566 0.0733798 -9.72475e-20)
(-0.0656257 0.0734379 -3.0416e-22)
(-0.0667093 0.0716758 1.09723e-19)
(-0.0641763 0.0678063 0)
(-0.0584092 0.061577 0)
(-0.049733 0.0527889 4.2902e-20)
(-0.0384398 0.0413108 -1.10659e-19)
(-0.0248098 0.0270902 9.10999e-20)
(-0.00910032 0.0101601 0)
(0.614499 0.0196962 -1.8681e-19)
(0.479 0.0260245 4.17829e-20)
(0.366144 0.0328056 -4.72391e-20)
(0.268964 0.0381496 -5.27732e-20)
(0.188995 0.0435103 -5.89051e-20)
(0.123389 0.0483812 0)
(0.0707353 0.0530344 7.28085e-20)
(0.0290736 0.0574169 7.41318e-22)
(-0.00322401 0.0615303 -1.75067e-19)
(-0.0276596 0.0652995 1.43173e-19)
(-0.0455117 0.0686054 -1.55924e-19)
(-0.0578556 0.0712755 5.57167e-20)
(-0.0655728 0.0730909 9.04032e-20)
(-0.0693731 0.0737955 6.45388e-20)
(-0.0698205 0.0731111 -1.37975e-19)
(-0.067361 0.0707549 -1.30199e-22)
(-0.0623499 0.0664592 3.83101e-20)
(-0.055077 0.0599899 0)
(-0.0457872 0.0511642 0)
(-0.0346976 0.0398647 8.72958e-20)
(-0.022022 0.0260408 -1.79752e-19)
(-0.00796958 0.00970457 9.4205e-20)
(0.402433 0.0350192 1.14711e-19)
(0.297224 0.0413044 -4.27923e-20)
(0.212396 0.0463541 4.79708e-20)
(0.141083 0.0502237 5.40696e-20)
(0.0840701 0.0537043 -5.95768e-20)
(0.0385366 0.0567445 -3.41197e-22)
(0.00316491 0.0595875 7.29707e-20)
(-0.0237701 0.0622681 0)
(-0.0436357 0.0648113 0)
(-0.0576646 0.0671619 -9.65164e-20)
(-0.0668839 0.069209 2.08554e-19)
(-0.0721436 0.0707848 0)
(-0.0741309 0.0716747 -1.21238e-19)
(-0.0733931 0.0716299 9.69477e-20)
(-0.0703615 0.0703817 -3.4096e-20)
(-0.0653757 0.06766 -3.6141e-20)
(-0.0587054 0.0632098 -3.85752e-20)
(-0.0505705 0.056809 0)
(-0.0411545 0.0482829 -8.34681e-20)
(-0.0306158 0.0375177 1.07749e-19)
(-0.0191173 0.0244541 0)
(-0.00683124 0.00907689 4.62014e-20)
(0.231632 0.0531547 3.94699e-20)
(0.153481 0.0571747 -4.38083e-20)
(0.0922421 0.0594012 4.2667e-22)
(0.0423886 0.0607531 -5.43895e-20)
(0.004004 0.0616932 1.21425e-19)
(-0.0253529 0.0624325 5.09329e-24)
(-0.0469077 0.0631822 7.43896e-20)
(-0.0621297 0.0640138 5.47587e-22)
(-0.0721669 0.0649434 -8.8689e-20)
(-0.0780244 0.0659079 -9.70297e-20)
(-0.0805219 0.0667839 -4.97492e-22)
(-0.0803234 0.0673947 5.64133e-20)
(-0.0779559 0.0675218 6.06456e-20)
(-0.0738334 0.0669187 0)
(-0.0682791 0.0653247 -3.42505e-20)
(-0.0615465 0.062481 7.25441e-20)
(-0.0538375 0.0581454 0)
(-0.045317 0.0521059 7.96712e-20)
(-0.0361221 0.0441936 -1.03323e-19)
(-0.0263667 0.0342944 6.38955e-20)
(-0.0161778 0.0223358 -1.09522e-19)
(-0.00570429 0.00827217 9.16348e-21)
(0.0922437 0.0691341 5.29367e-23)
(0.0376693 0.0696163 -6.5217e-22)
(-0.00327385 0.0686181 4.9832e-20)
(-0.0348569 0.067125 5.5771e-20)
(-0.0575507 0.0654827 -1.22846e-19)
(-0.0734016 0.063985 -6.8009e-20)
(-0.0835525 0.0628024 0)
(-0.0892277 0.0619954 0)
(-0.0913692 0.0615481 0)
(-0.0907668 0.0613713 4.85645e-20)
(-0.0880445 0.0613196 -5.27089e-20)
(-0.0836925 0.0612029 5.65716e-20)
(-0.0780904 0.0607988 3.02993e-20)
(-0.0715309 0.0598655 1.06017e-22)
(-0.0642411 0.0581543 -6.85606e-20)
(-0.0564001 0.0554221 -1.80269e-20)
(-0.0481527 0.0514439 -7.59136e-20)
(-0.0396201 0.0460216 1.97393e-20)
(-0.0309043 0.0389955 1.84872e-19)
(-0.0220877 0.0302525 -8.47137e-20)
(-0.0132757 0.0197084 1.08494e-19)
(-0.00460811 0.00729103 -8.06741e-20)
(-0.0239623 0.0785535 2.97134e-22)
(-0.0568671 0.0754783 4.56285e-20)
(-0.079281 0.0715657 0)
(-0.0945833 0.0676063 0)
(-0.103561 0.0638863 3.1223e-20)
(-0.107881 0.0606707 -3.4405e-20)
(-0.108534 0.0580723 7.5737e-20)
(-0.106467 0.0561094 -8.24984e-20)
(-0.102382 0.0547229 0)
(-0.0968348 0.053792 -9.79512e-20)
(-0.0902424 0.0531508 5.27432e-20)
(-0.0829191 0.052601 0)
(-0.0751005 0.0519234 0)
(-0.0669653 0.0508892 6.47277e-20)
(-0.0586526 0.0492696 4.57152e-23)
(-0.0502757 0.046846 -7.2066e-20)
(-0.0419312 0.0434176 0)
(-0.0337058 0.0388088 7.86256e-20)
(-0.0256759 0.0328759 -1.02002e-19)
(-0.0179042 0.0255141 -1.04721e-20)
(-0.0104866 0.0166349 -1.07162e-20)
(-0.00356721 0.006149 -5.30616e-20)
(-0.117588 0.0787055 -4.21172e-20)
(-0.130103 0.0729874 0)
(-0.135496 0.0670872 5.17332e-20)
(-0.136437 0.0615859 -5.70431e-20)
(-0.133736 0.056696 3.17297e-20)
(-0.128627 0.0525947 1.56605e-22)
(-0.121826 0.0493229 0)
(-0.113942 0.0468435 -4.17069e-20)
(-0.105392 0.0450564 4.52521e-20)
(-0.0964723 0.0438169 0)
(-0.0873895 0.0429507 -2.65786e-20)
(-0.0782862 0.0422644 8.53328e-20)
(-0.069264 0.041555 -1.51988e-20)
(-0.0604 0.040618 6.47584e-20)
(-0.0517582 0.039255 -6.84861e-20)
(-0.0433973 0.0372803 1.8072e-20)
(-0.0353753 0.0345268 -1.88321e-20)
(-0.027753 0.0308497 -9.81758e-20)
(-0.0205898 0.0261316 1.9302e-19)
(-0.0139374 0.0202863 -1.56671e-19)
(-0.00789209 0.0132336 9.62834e-20)
(-0.00261104 0.00488261 -7.88465e-20)
(-0.182037 0.0694971 4.24865e-20)
(-0.176683 0.0624768 4.73414e-20)
(-0.167849 0.0558362 9.15583e-23)
(-0.157455 0.0499613 1.56096e-22)
(-0.14605 0.0449561 -9.56465e-20)
(-0.134346 0.0408843 -3.50214e-20)
(-0.122681 0.0377096 0)
(-0.11129 0.0353439 -2.09764e-20)
(-0.100288 0.0336606 2.28031e-20)
(-0.0897283 0.0325094 2.46874e-20)
(-0.0796251 0.0317265 -5.32471e-20)
(-0.0699771 0.0311409 -1.00024e-19)
(-0.0607799 0.0305804 7.62539e-20)
(-0.0520339 0.0298766 0)
(-0.0437487 0.0288699 1.71277e-20)
(-0.0359446 0.0274146 7.20672e-20)
(-0.0286533 0.0253828 9.40294e-21)
(-0.0219179 0.0226676 -7.84365e-20)
(-0.0157867 0.019186 -2.02756e-20)
(-0.0103066 0.0148812 0)
(-0.00557773 0.00969625 0)
(-0.0017727 0.00355837 0)
(-0.207963 0.0522616 0)
(-0.189931 0.0455474 0)
(-0.171861 0.0395986 2.65908e-20)
(-0.154822 0.0345952 -2.92774e-20)
(-0.138903 0.0305138 9.65655e-20)
(-0.124271 0.0273099 -3.53243e-20)
(-0.110869 0.024889 0)
(-0.0985996 0.023138 2.10927e-20)
(-0.0873323 0.0219328 -4.58704e-20)
(-0.0769366 0.0211444 3.71897e-20)
(-0.0672966 0.0206425 2.6734e-20)
(-0.0583199 0.020297 1.43379e-20)
(-0.0499406 0.0199801 -1.53069e-20)
(-0.0421181 0.0195686 -1.62551e-20)
(-0.0348353 0.018947 -1.71783e-20)
(-0.0280949 0.0180114 0)
(-0.0219158 0.016674 9.43548e-21)
(-0.0163311 0.014866 0)
(-0.011382 0.0125418 5.05961e-20)
(-0.00711049 0.00968088 -4.68497e-20)
(-0.00361646 0.00626384 0)
(-0.00108091 0.0022599 0)
(-0.189117 0.0315251 0)
(-0.166452 0.0265005 1.21799e-20)
(-0.146157 0.022344 -2.67294e-20)
(-0.128457 0.0190487 1.48183e-20)
(-0.112973 0.0164959 0)
(-0.0994476 0.0145805 0)
(-0.0875523 0.013194 0)
(-0.0770018 0.0122371 -1.06393e-20)
(-0.0675441 0.011618 2.31306e-20)
(-0.0589742 0.0112511 -1.24039e-20)
(-0.0511329 0.0110548 -5.37016e-20)
(-0.0439043 0.0109501 0)
(-0.0372119 0.0108596 7.67977e-20)
(-0.0310122 0.0107077 -4.8911e-20)
(-0.0252891 0.0104225 8.61443e-21)
(-0.0200471 0.00993859 3.61563e-20)
(-0.0153059 0.00920137 -3.78014e-20)
(-0.0110964 0.00817225 0)
(-0.00745394 0.0068349 -4.0515e-20)
(-0.00441277 0.00519999 9.37018e-20)
(-0.00205844 0.00328889 -7.97115e-20)
(-0.000557886 0.00112806 3.46886e-20)
(-0.129014 0.0111663 4.44169e-20)
(-0.11109 0.00893745 -3.6768e-20)
(-0.0959389 0.00727719 -2.70564e-20)
(-0.0833184 0.00607942 -1.4874e-20)
(-0.0726603 0.00522146 3.27589e-20)
(-0.0635922 0.00462374 0)
(-0.0557634 0.00422437 -3.92695e-20)
(-0.0489013 0.00397752 5.33946e-20)
(-0.0427886 0.00384658 5.81065e-21)
(-0.03726 0.00380039 0)
(-0.0321946 0.00381034 0)
(-0.0275102 0.00384839 0)
(-0.0231573 0.00388573 2.69707e-20)
(-0.0191137 0.00389214 -3.27126e-20)
(-0.0153796 0.00383617 -8.62834e-21)
(-0.0119715 0.00368641 0)
(-0.00891723 0.00341437 0)
(-0.00625058 0.00299933 2.46385e-21)
(-0.00400426 0.00243668 0)
(-0.00220229 0.00174769 -7.82463e-21)
(-0.000896373 0.00098067 -5.32048e-21)
(-0.000201371 0.000230157 -1.08698e-21)
(-0.0433258 0.000811433 4.39314e-20)
(-0.0370815 0.000535389 -2.42112e-20)
(-0.0320295 0.000387126 -2.65542e-20)
(-0.0279758 0.000320596 2.91947e-20)
(-0.0246015 0.000295828 1.5976e-20)
(-0.0217425 0.000294527 -1.74749e-20)
(-0.0192578 0.000306522 0)
(-0.01705 0.000327222 -2.06722e-20)
(-0.0150458 0.000354511 1.67775e-20)
(-0.0131922 0.000387296 0)
(-0.0114523 0.000424584 -2.59369e-20)
(-0.00980272 0.000464848 2.77085e-20)
(-0.00823174 0.000505512 3.67449e-21)
(-0.00673843 0.000542458 3.12823e-20)
(-0.00533163 0.000569585 -9.32833e-24)
(-0.00402903 0.000578575 -3.46204e-20)
(-0.00285586 0.000559162 0)
(-0.00184302 0.00050053 -2.34035e-21)
(-0.00102287 0.000395143 -3.87288e-20)
(-0.000421473 0.000245479 4.23443e-20)
(-6.31221e-05 7.27621e-05 -4.97085e-24)
(2.11689e-05 -5.65624e-05 -3.24629e-20)
(1.13681 0.0261668 0)
(1.09077 0.0278812 -2.11056e-20)
(1.04269 0.0296417 -3.21425e-22)
(0.992459 0.0314495 0)
(0.940183 0.0333104 3.11613e-20)
(0.885947 0.0352312 -3.41003e-20)
(0.829845 0.0372148 1.937e-20)
(0.771983 0.0392624 -2.65141e-24)
(0.71248 0.0413732 0)
(0.651466 0.0435448 2.69627e-20)
(0.589086 0.0457692 1.69833e-22)
(0.525506 0.0480231 3.21936e-20)
(0.460944 0.0502439 -6.91107e-20)
(0.395732 0.0522911 9.28332e-20)
(0.330422 0.0539027 -3.94723e-20)
(0.265916 0.0546663 -4.2298e-20)
(0.203578 0.0540284 -3.37583e-22)
(0.145295 0.0513501 5.77849e-20)
(0.0933291 0.0460016 2.41938e-20)
(0.0500851 0.0374695 -2.48739e-20)
(0.018807 0.0254216 -1.27689e-20)
(0.00354002 0.00976004 -5.24067e-21)
(1.14132 0.0821038 6.99365e-20)
(1.09574 0.0879415 4.19229e-20)
(1.04828 0.0940529 -6.93643e-20)
(0.998635 0.100408 -5.45776e-20)
(0.946947 0.107 5.99079e-20)
(0.893303 0.113832 0)
(0.837791 0.120902 5.89171e-20)
(0.780522 0.128203 -8.50801e-20)
(0.721612 0.135727 0)
(0.661193 0.143459 -1.08005e-21)
(0.599408 0.151366 2.82876e-20)
(0.536417 0.159361 3.13022e-20)
(0.472425 0.167217 0)
(0.407732 0.174439 5.55879e-20)
(0.342831 0.18012 -3.92669e-20)
(0.278533 0.182858 0)
(0.216079 0.180794 -2.16884e-20)
(0.157208 0.171813 -1.15358e-20)
(0.104038 0.153848 0)
(0.0588459 0.125234 -2.43674e-20)
(0.0247863 0.0849172 1.39897e-19)
(0.00586239 0.0326092 -1.61163e-19)
(1.15012 0.138033 -6.87325e-20)
(1.1055 0.148011 0)
(1.05928 0.158396 2.32121e-19)
(1.01082 0.16918 -1.03632e-19)
(0.960319 0.180353 5.89981e-20)
(0.907868 0.191925 1.36874e-19)
(0.853558 0.203894 -1.49289e-19)
(0.797499 0.216254 1.69035e-19)
(0.739811 0.228991 -9.51313e-20)
(0.680622 0.242083 -1.05594e-19)
(0.620072 0.255476 1.71197e-19)
(0.558309 0.269022 -1.53957e-19)
(0.495509 0.282335 -1.34939e-19)
(0.431904 0.294573 3.58778e-19)
(0.367868 0.304197 -3.46105e-19)
(0.30402 0.308829 1.22095e-19)
(0.241347 0.305328 2.16719e-20)
(0.181296 0.290121 0)
(0.125689 0.259735 -1.86762e-19)
(0.0765516 0.211376 2.16427e-19)
(0.0368643 0.14329 -2.50899e-20)
(0.0105515 0.0550145 6.14659e-20)
(1.16226 0.191212 -4.9313e-21)
(1.11919 0.205209 2.34866e-19)
(1.07494 0.219728 -8.79936e-20)
(1.02834 0.234822 -2.01684e-23)
(0.979691 0.250467 -5.88009e-20)
(0.929091 0.266676 1.32973e-19)
(0.876632 0.283445 -7.28116e-20)
(0.82243 0.300764 -1.63733e-19)
(0.766606 0.318616 -2.76485e-19)
(0.709288 0.336969 2.49638e-19)
(0.650612 0.355747 3.85879e-19)
(0.590712 0.374743 -2.37665e-19)
(0.529718 0.393415 -1.93922e-19)
(0.467765 0.410583 -4.98756e-22)
(0.405044 0.424089 -7.25768e-20)
(0.341892 0.430602 -3.68217e-20)
(0.278918 0.425731 0)
(0.217127 0.404493 -1.73122e-19)
(0.157905 0.362061 2.22781e-19)
(0.102903 0.294571 0)
(0.054842 0.199621 0)
(0.0175285 0.0766112 -1.37171e-19)
(1.17772 0.241773 5.10098e-21)
(1.13672 0.25966 -1.4929e-19)
(1.09507 0.278112 1.76603e-19)
(1.05095 0.297312 -2.94843e-19)
(1.00475 0.317214 1.13581e-19)
(0.956602 0.337833 -2.47727e-19)
(0.906597 0.35917 6.63481e-20)
(0.854856 0.381213 3.93902e-19)
(0.801504 0.403942 -8.74495e-20)
(0.746669 0.427316 0)
(0.690482 0.451244 1.05079e-19)
(0.633056 0.47546 -3.39333e-19)
(0.574465 0.499276 -5.73697e-20)
(0.514712 0.521184 2.70299e-19)
(0.45375 0.538429 -5.62349e-19)
(0.39154 0.546761 6.75254e-19)
(0.32819 0.540585 -3.13757e-19)
(0.264129 0.513566 0)
(0.200166 0.459592 -4.37176e-20)
(0.137468 0.373804 0)
(0.0784186 0.253217 2.26371e-19)
(0.0266725 0.0971329 -1.85191e-19)
(1.19607 0.288426 1.28175e-19)
(1.15767 0.310029 0)
(1.11925 0.332178 -1.62013e-19)
(1.07817 0.355251 0)
(1.03501 0.379169 0)
(0.989902 0.403953 1.2272e-19)
(0.942931 0.429604 -1.37533e-19)
(0.89423 0.456111 -7.50946e-21)
(0.843927 0.483453 -9.12048e-20)
(0.792154 0.511584 1.80847e-19)
(0.739035 0.540398 9.6852e-20)
(0.684661 0.569577 2.16381e-19)
(0.629034 0.598297 2.33393e-19)
(0.572002 0.624742 -5.67037e-20)
(0.513221 0.645588 6.85733e-20)
(0.45219 0.655709 0)
(0.388402 0.64836 -2.24307e-19)
(0.321575 0.615925 3.0727e-19)
(0.251816 0.551085 0)
(0.179704 0.448072 -3.30766e-19)
(0.107218 0.303398 2.94876e-19)
(0.0378319 0.116316 1.76705e-19)
(1.21686 0.330591 0)
(1.18157 0.355682 1.40083e-19)
(1.14693 0.381229 6.14766e-21)
(1.10943 0.407882 3.54252e-19)
(1.06983 0.435517 -3.94355e-19)
(1.02828 0.46416 1.09904e-19)
(0.984865 0.493819 0)
(0.939734 0.524482 -4.29366e-19)
(0.893019 0.556124 -2.4927e-21)
(0.844852 0.5887 0)
(0.795352 0.622085 9.15967e-20)
(0.744582 0.655923 -3.05728e-19)
(0.692464 0.689264 -1.12655e-19)
(0.638663 0.720009 8.68674e-21)
(0.582486 0.744305 0)
(0.52289 0.756198 -2.60369e-19)
(0.458638 0.747857 2.01587e-19)
(0.388615 0.71046 0)
(0.312103 0.635572 0)
(0.229002 0.516603 0)
(0.140826 0.349647 3.1445e-19)
(0.050843 0.133967 -2.27188e-19)
(1.23941 0.36757 -1.03368e-19)
(1.20774 0.395902 4.28507e-21)
(1.1774 0.424533 4.28153e-21)
(1.14396 0.454442 -6.67545e-19)
(1.10843 0.485449 3.79911e-19)
(1.07092 0.517589 -3.13312e-19)
(1.03155 0.550878 0)
(0.990474 0.585308 0)
(0.947825 0.62086 1.49451e-19)
(0.903743 0.657488 0)
(0.858345 0.695062 0)
(0.811666 0.733191 0)
(0.763545 0.770822 -9.57324e-20)
(0.713441 0.805606 1.11242e-19)
(0.660274 0.833202 -1.07442e-19)
(0.60238 0.846887 -2.36619e-19)
(0.53769 0.837812 2.47743e-19)
(0.464131 0.796027 -2.56418e-19)
(0.380049 0.712064 2.65773e-19)
(0.284577 0.578612 0)
(0.178716 0.391439 -2.84018e-19)
(0.0654987 0.149885 4.10314e-19)
(1.26297 0.398795 2.15326e-19)
(1.23538 0.430037 0)
(1.20975 0.461383 0)
(1.18078 0.494193 1.60098e-19)
(1.14971 0.528222 0)
(1.11666 0.56351 1.93073e-19)
(1.08176 0.600081 2.15453e-19)
(1.04517 0.637925 0)
(1.00705 0.677025 0)
(0.967525 0.717333 -2.90947e-19)
(0.926715 0.758718 3.13139e-19)
(0.884626 0.800763 3.39313e-19)
(0.841004 0.842334 -3.53288e-19)
(0.79509 0.880867 0)
(0.745372 0.911591 3.08783e-19)
(0.689498 0.92708 -2.12707e-19)
(0.624466 0.917543 1.03301e-19)
(0.547129 0.871982 0)
(0.454792 0.779994 0)
(0.345746 0.633639 5.62915e-20)
(0.22043 0.428461 -2.50861e-19)
(0.0816223 0.163959 2.35222e-19)
(1.28665 0.424112 3.79531e-19)
(1.26362 0.457977 2.15945e-19)
(1.24313 0.491684 0)
(1.21904 0.526993 0)
(1.19283 0.563588 0)
(1.16461 0.601536 -1.85947e-19)
(1.13452 0.640876 0)
(1.10275 0.681612 0)
(1.06947 0.723736 -1.14608e-19)
(1.03482 0.76721 -1.24506e-19)
(0.998929 0.811906 2.82928e-19)
(0.961778 0.8574 -3.03456e-19)
(0.92303 0.902501 8.53289e-20)
(0.881702 0.944478 0)
(0.835832 0.978185 8.3602e-20)
(0.782321 0.995558 0)
(0.717142 0.98593 -3.81862e-19)
(0.635959 0.937331 1.98569e-19)
(0.534919 0.838507 -2.01699e-19)
(0.411398 0.680995 1.5226e-19)
(0.265234 0.460235 0)
(0.0989277 0.175994 0)
(1.30954 0.443032 -1.84592e-19)
(1.29143 0.479073 -4.20888e-19)
(1.27626 0.514756 6.30758e-21)
(1.25729 0.55224 -1.31631e-19)
(1.23621 0.591109 1.44586e-19)
(1.21314 0.631432 0)
(1.18823 0.673246 0)
(1.16168 0.716557 1.97939e-19)
(1.13365 0.761359 -1.01602e-19)
(1.10432 0.807622 1.22999e-19)
(1.0738 0.855223 -1.31887e-19)
(1.04205 0.903741 2.22237e-21)
(1.00866 0.951952 2.8478e-19)
(0.972408 0.996995 -6.91042e-20)
(0.930857 1.03342 -1.14978e-20)
(0.8801 1.0526 -7.30621e-20)
(0.814995 1.0431 8.8294e-20)
(0.729917 0.992071 0)
(0.619774 0.88751 1.67806e-19)
(0.480971 0.720546 -2.1236e-19)
(0.31273 0.486638 -3.982e-20)
(0.117256 0.185948 0)
(1.33072 0.456303 0)
(1.31814 0.494286 -1.89767e-19)
(1.30867 0.531515 2.16125e-19)
(1.29512 0.570605 2.34759e-19)
(1.27939 0.6111 -1.26267e-19)
(1.26159 0.653114 0)
(1.24193 0.69671 0)
(1.22065 0.741907 0)
(1.19794 0.788713 0)
(1.17398 0.837108 -9.69111e-20)
(1.14891 0.886988 -4.37848e-19)
(1.12269 0.937955 1.25523e-19)
(1.09484 0.988793 1.1308e-19)
(1.06394 1.03657 1.8486e-19)
(1.02708 1.0756 -1.29997e-19)
(0.97953 1.09677 1.32185e-19)
(0.914955 1.08789 2.01245e-19)
(0.826311 1.03529 -3.324e-19)
(0.70713 0.926277 -7.41022e-20)
(0.552771 0.751695 7.01442e-20)
(0.361822 0.507215 1.80293e-19)
(0.136183 0.193614 -1.19282e-19)
(1.34921 0.462775 1.4406e-19)
(1.34224 0.502247 -1.72516e-19)
(1.33839 0.540916 1.90431e-19)
(1.33049 0.581585 -1.07477e-19)
(1.32042 0.623687 2.42243e-19)
(1.3083 0.66734 -1.2457e-19)
(1.29434 0.712613 1.42946e-19)
(1.27879 0.759537 -3.02799e-19)
(1.26188 0.808131 0)
(1.24379 0.858385 3.56783e-19)
(1.22467 0.910207 -8.9835e-20)
(1.20447 0.963215 -8.83154e-20)
(1.18265 1.0162 3.12003e-21)
(1.15758 1.0662 9.00223e-20)
(1.12585 1.10732 -1.59089e-19)