/*--------------------------------*- C++ -*----------------------------------*\
| =========                 |                                                 |
| \\      /  F ield         | OpenFOAM Extend Project: Open source CFD        |
|  \\    /   O peration     | Version:  1.6-ext                               |
|   \\  /    A nd           | Web:      www.extend-project.de                 |
|    \\/     M anipulation  |                                                 |
\*---------------------------------------------------------------------------*/
FoamFile
{
    version     2.0;
    format      ascii;
    class       volVectorField;
    location    "0.4";
    object      U_0;
}
// * * * * * * * * * * * * * * * * * * * * * * * * * * * * * * * * * * * * * //

dimensions      [0 1 -1 0 0 0 0];

internalField   nonuniform List<vector> 
20940
(
(1.85474 0.387273 1.5483e-21)
(1.89531 0.407395 0)
(1.93379 0.426852 -2.65087e-21)
(1.96934 0.444597 6.78503e-21)
(2.0017 0.460862 7.256e-22)
(2.02931 0.47456 0)
(2.0493 0.484632 -8.56682e-21)
(2.05692 0.489182 -5.69151e-21)
(2.04583 0.486005 6.19977e-21)
(2.00884 0.472847 -8.43869e-21)
(1.9395 0.448095 1.86566e-20)
(1.8339 0.411395 1.15781e-20)
(1.69211 0.364038 -2.56037e-20)
(1.5187 0.308893 2.88695e-20)
(1.32201 0.249903 -1.54163e-20)
(1.11249 0.191324 -1.75148e-20)
(0.900865 0.137008 1.86153e-20)
(0.696484 0.0899359 0)
(0.506436 0.0520024 -1.07817e-20)
(0.335259 0.0240541 1.11418e-20)
(0.185149 0.00663263 2.91412e-24)
(0.0564208 0.000475363 -4.77791e-21)
(1.88171 0.362839 -1.54754e-21)
(1.92107 0.381817 -3.42177e-21)
(1.95803 0.399476 -1.07342e-20)
(1.9915 0.415466 -1.7688e-21)
(2.02073 0.429483 4.47766e-21)
(2.04332 0.440371 0)
(2.05535 0.446772 2.63295e-20)
(2.05116 0.446692 0)
(2.02394 0.43807 0)
(1.96701 0.419172 0)
(1.87557 0.389252 -2.91544e-20)
(1.7483 0.348985 4.37802e-20)
(1.58825 0.300567 -2.42227e-20)
(1.40251 0.247361 0)
(1.20091 0.193252 7.83002e-21)
(0.994117 0.141937 1.63957e-20)
(0.791983 0.0964009 -9.22072e-21)
(0.602378 0.0586754 0)
(0.430733 0.0298144 0)
(0.280114 0.010028 0)
(0.151632 -0.000571763 -2.24972e-20)
(0.0449754 -0.00149578 2.32768e-20)
(1.90642 0.338333 5.7981e-21)
(1.94426 0.356241 -1.34432e-21)
(1.97918 0.372219 1.3644e-20)
(2.00977 0.386485 -1.62205e-20)
(2.03453 0.398183 -2.44593e-21)
(2.05005 0.406076 0)
(2.05141 0.408564 -3.70204e-20)
(2.03221 0.403706 -2.4899e-20)
(1.98577 0.389784 -1.28456e-21)
(1.90666 0.365777 6.50959e-20)
(1.79241 0.331887 -7.45454e-20)
(1.64469 0.289725 8.54588e-20)
(1.46936 0.242115 2.25475e-21)
(1.27545 0.19255 -5.26444e-20)
(1.07344 0.144528 0)
(0.873437 0.100994 -4.87922e-20)
(0.683927 0.0640335 3.40674e-20)
(0.511075 0.0348296 3.70282e-20)
(0.358684 0.0137576 -3.85138e-20)
(0.228502 0.000560276 4.10583e-20)
(0.120744 -0.00495609 -4.22495e-20)
(0.034616 -0.00250208 -8.6657e-21)
(1.92998 0.314124 -5.77766e-21)
(1.96585 0.331046 8.85839e-21)
(1.99797 0.345403 -2.88205e-20)
(2.02444 0.357883 -1.93914e-20)
(2.04277 0.367067 2.27514e-20)
(2.04847 0.371672 0)
(2.03571 0.369966 0)
(1.99789 0.360256 2.23249e-20)
(1.92919 0.341386 2.6848e-20)
(1.82629 0.313194 -3.0308e-20)
(1.68964 0.276812 -3.53068e-20)
(1.52394 0.234575 0)
(1.3374 0.189587 0)
(1.14013 0.145116 -5.22244e-20)
(0.942359 0.104022 -1.53536e-21)
(0.752999 0.0684054 -1.39748e-21)
(0.578791 0.0395094 3.28835e-20)
(0.424141 0.0178106 -1.69868e-20)
(0.291356 0.00317624 -7.42881e-20)
(0.181071 -0.00496351 5.80144e-20)
(0.0928001 -0.00699226 -2.10327e-20)
(0.0254142 -0.00274267 4.22321e-20)
(1.95212 0.290316 0)
(1.98542 0.306263 2.38212e-20)
(2.01366 0.31898 -1.25246e-20)
(2.03425 0.329514 -2.16656e-21)
(2.04352 0.335912 2.14748e-20)
(2.03597 0.336927 -3.62397e-21)
(2.00527 0.330865 3.54524e-20)
(1.94536 0.316507 0)
(1.85224 0.293435 0)
(1.72537 0.262389 3.11579e-20)
(1.56842 0.225276 -7.25166e-20)
(1.38875 0.184835 3.88855e-20)
(1.19607 0.144083 0)
(1.00059 0.105767 0)
(0.811503 0.0719733 2.61003e-20)
(0.63602 0.0439836 0)
(0.479029 0.0223258 3.18456e-20)
(0.343283 0.00694344 1.69628e-20)
(0.229809 -0.00263706 7.041e-20)
(0.138376 -0.00716293 -5.40394e-20)
(0.0680046 -0.00711277 -1.9677e-20)
(0.0173779 -0.00238153 1.56258e-20)
(1.97237 0.266986 1.51018e-20)
(2.00219 0.281934 -2.57438e-20)
(2.02497 0.292912 -5.09412e-21)
(2.03723 0.301244 3.72404e-20)
(2.03409 0.304535 -2.46808e-20)
(2.00937 0.301719 0)
(1.95694 0.291359 -7.68533e-20)
(1.87226 0.272918 8.92425e-20)
(1.754 0.246805 3.38604e-21)
(1.60489 0.214564 -1.20205e-19)
(1.43152 0.17859 -3.03778e-21)
(1.24315 0.141655 1.14187e-19)
(1.04993 0.106369 1.27787e-19)
(0.861239 0.0747783 -9.2029e-20)
(0.684644 0.0481863 -2.60224e-20)
(0.525431 0.0271658 0)
(0.386715 0.0117009 -5.93125e-20)
(0.269829 0.00137529 6.20728e-20)
(0.174798 -0.00447968 0)
(0.100774 -0.00668221 3.38888e-20)
(0.0464726 -0.00573875 -1.76911e-20)
(0.0105106 -0.00157031 6.00915e-20)
(1.99038 0.244001 -1.70431e-20)
(2.01529 0.257798 0)
(2.03029 0.266816 0)
(2.03095 0.272632 -1.88049e-21)
(2.01139 0.272553 1.03055e-19)
(1.96541 0.265887 -5.72181e-20)
(1.8881 0.251669 -3.45849e-20)
(1.77741 0.230169 -8.93928e-20)
(1.63528 0.202574 4.96084e-20)
(1.46761 0.170981 5.96028e-20)
(1.28322 0.137918 -6.44696e-20)
(1.09213 0.105848 0)
(0.903886 0.0767617 -4.13868e-20)
(0.726335 0.0519651 8.96978e-20)
(0.565091 0.0320679 -1.42422e-19)
(0.423569 0.017098 -5.0775e-20)
(0.303337 0.00667174 8.33952e-20)
(0.20461 0.000165698 9.5011e-22)
(0.126699 -0.00317031 -3.16667e-20)
(0.0683644 -0.00415054 -3.38386e-20)
(0.0281749 -0.00326667 1.76752e-20)
(0.0047711 -0.000446516 -1.48582e-20)
(2.00477 0.221326 -6.55752e-20)
(2.02268 0.233771 -3.03867e-20)
(2.02681 0.240571 0)
(2.01193 0.243564 -8.54167e-20)
(1.97174 0.239998 1.07799e-19)
(1.90102 0.229766 2.15051e-21)
(1.79714 0.212539 7.43796e-20)
(1.66129 0.189387 4.35519e-20)
(1.49877 0.162067 4.92551e-20)
(1.31798 0.132892 5.56304e-20)
(1.12886 0.104167 -6.218e-20)
(0.941041 0.077813 6.8879e-20)
(0.762638 0.0551251 0)
(0.599547 0.0367395 0)
(0.455432 0.0227259 2.05719e-21)
(0.332055 0.0127417 1.50148e-19)
(0.229767 0.00619149 -1.31966e-19)
(0.147978 0.00236319 0)
(0.0855449 0.000504111 8.93844e-20)
(0.0410279 -0.000149548 -1.54894e-19)
(0.0129667 -5.16686e-05 3.19035e-20)
(8.50054e-05 0.000870808 4.16157e-20)
(2.01448 0.198515 -3.36601e-21)
(2.02235 0.209261 5.48638e-20)
(2.01167 0.213541 3.63705e-20)
(1.97686 0.21356 4.30718e-20)
(1.91218 0.206745 -5.24232e-20)
(1.81453 0.193715 0)
(1.68445 0.174801 -7.37233e-20)
(1.52663 0.151704 -8.68878e-20)
(1.34912 0.126432 4.58932e-20)
(1.16174 0.101163 -1.6422e-19)
(0.974266 0.0777282 6.00384e-20)
(0.795042 0.0574048 -2.06795e-21)
(0.630225 0.0408473 -3.61916e-20)
(0.483703 0.0281633 -8.11708e-20)
(0.357403 0.0190545 1.3089e-19)
(0.251776 0.0129647 9.4707e-20)
(0.166294 0.0092078 -1.51908e-19)
(0.0998567 0.00706471 -1.56607e-21)
(0.0510802 0.00582866 1.98796e-19)
(0.0184688 0.00481049 -8.78202e-20)
(0.000613589 0.0036038 -1.5693e-19)
(-0.00364627 0.00228372 1.17904e-19)
(2.0163 0.175664 9.60153e-20)
(2.01051 0.184446 -5.59824e-20)
(1.98072 0.186086 3.87877e-20)
(1.92205 0.183227 0)
(1.83041 0.173733 0)
(1.70588 0.159002 -1.27259e-19)
(1.55251 0.139921 -3.53709e-21)
(1.37806 0.118526 1.63823e-19)
(1.19225 0.0967419 0)
(1.00502 0.0763424 -5.32542e-20)
(0.824939 0.0585637 1.15302e-19)
(0.658448 0.0440728 0)
(0.509646 0.0330097 1.05252e-19)
(0.380607 0.0251182 0)
(0.271863 0.019885 0)
(0.182924 0.0166609 0)
(0.112701 0.0147501 -1.45612e-19)
(0.0598218 0.0134749 5.13174e-20)
(0.0228268 0.0121977 2.76026e-20)
(0.00026209 0.010312 -1.4193e-19)
(-0.00918156 0.00746028 8.89046e-20)
(-0.00653727 0.00371809 0)
(2.00883 0.151929 0)
(1.9847 0.158473 6.47362e-20)
(1.9316 0.157525 -1.45754e-19)
(1.84606 0.152311 0)
(1.72693 0.141234 0)
(1.57795 0.126307 -1.59074e-21)
(1.40639 0.108724 7.14459e-20)
(1.22198 0.0905176 -2.43526e-19)
(1.0348 0.07326 -2.4881e-21)
(0.853746 0.0581906 1.00299e-19)
(0.68552 0.04597 0)
(0.534459 0.0367725 0)
(0.40278 0.0303838 -5.24454e-22)
(0.291086 0.0263355 -7.29272e-20)
(0.198903 0.0240197 0)
(0.125134 0.0227744 0)
(0.0683905 0.021942 0)
(0.0272098 0.0209079 4.97782e-20)
(0.00016675 0.0191102 0)
(-0.0140898 0.016023 2.7699e-20)
(-0.0167449 0.0113346 2.89523e-20)
(-0.00870707 0.00511985 0)
(1.98632 0.128406 1.53643e-21)
(1.94036 0.132794 -6.05685e-20)
(1.8609 0.129704 -1.17268e-19)
(1.74788 0.122919 9.09663e-20)
(1.60351 0.111416 -5.18092e-20)
(1.43506 0.0976172 0)
(1.25204 0.0827591 6.88597e-20)
(1.06483 0.0685986 -2.17529e-21)
(0.882641 0.0562257 1.76788e-19)
(0.712551 0.0463389 -9.71985e-20)
(0.559161 0.0391265 0)
(0.424854 0.0344158 -5.87823e-20)
(0.310303 0.0317809 -6.41491e-20)
(0.215042 0.0306548 6.96731e-20)
(0.137947 0.0304108 -7.68943e-20)
(0.0775931 0.0304178 -1.10189e-21)
(0.0324872 0.0300739 8.73748e-20)
(0.00119556 0.0288303 -4.60621e-20)
(-0.0176021 0.0261942 4.86983e-20)
(-0.0251211 0.0217107 -1.0451e-19)
(-0.0224151 0.0151083 2.44162e-19)
(-0.010277 0.00645916 -1.85658e-19)
(1.95056 0.10336 -2.36372e-21)
(1.87793 0.10584 0)
(1.77079 0.101404 1.546e-19)
(1.63151 0.094208 -9.14869e-20)
(1.46611 0.083782 0)
(1.28443 0.0725041 0)
(1.09689 0.0614419 -6.88245e-20)
(0.913236 0.0518861 0)
(0.740936 0.044442 0)
(0.584943 0.0393561 0)
(0.447834 0.036489 5.35815e-20)
(0.33037 0.035466 -5.58432e-20)
(0.232085 0.0357669 1.26338e-19)
(0.151811 0.0368066 -2.04705e-19)
(0.0880619 0.0379858 3.66711e-20)
(0.0392894 0.0387237 0)
(0.00402238 0.0384765 8.49651e-20)
(-0.0190685 0.0367531 -4.37613e-20)
(-0.0311639 0.0331174 -4.83506e-20)
(-0.0333317 0.0271729 2.46335e-20)
(-0.0264967 0.0186809 -2.65986e-20)
(-0.0113502 0.00770977 0)
(1.89165 0.0809318 -1.76061e-21)
(1.79398 0.0820891 1.86646e-21)
(1.65994 0.0770356 -1.52588e-19)
(1.49884 0.0703635 4.59038e-20)
(1.31882 0.061822 5.29878e-20)
(1.13121 0.0535775 -5.92398e-20)
(0.945972 0.0464427 0)
(0.771245 0.0412025 0)
(0.612372 0.0380602 8.41549e-20)
(0.472229 0.0369293 -9.15139e-20)
(0.351708 0.0374718 5.11152e-20)
(0.250368 0.0392161 0)
(0.166997 0.0416216 6.17728e-20)
(0.100036 0.0441261 -1.96312e-19)
(0.0478546 0.0461737 1.0623e-19)
(0.00891764 0.0472318 7.65135e-20)
(-0.0181453 0.0468029 -8.09922e-20)
(-0.0345234 0.0444365 0)
(-0.0412462 0.039735 4.52158e-20)
(-0.0392367 0.0323424 -2.44596e-20)
(-0.0293 0.02204 1.01065e-19)
(-0.0120362 0.00888369 -1.08473e-19)
(1.82476 0.0555552 5.50241e-20)
(1.69618 0.0563324 6.54106e-20)
(1.5389 0.0525622 7.90268e-20)
(1.36081 0.0473524 -8.79731e-20)
(1.17244 0.0419691 -1.02631e-19)
(0.985008 0.0375771 5.76214e-20)
(0.807009 0.0347705 -7.31626e-22)
(0.644413 0.0337935 0)
(0.500436 0.0345503 0)
(0.376186 0.0367577 0)
(0.271296 0.0400088 -9.85416e-20)
(0.184531 0.0438376 1.06448e-19)
(0.114249 0.04775 5.88685e-20)
(0.0587144 0.0512432 0)
(0.0162862 0.0538171 6.76541e-20)
(-0.0144902 0.0549842 0)
(-0.0348571 0.0542798 -7.87569e-20)
(-0.0458582 0.0512767 8.30989e-20)
(-0.0483782 0.0455973 8.75021e-20)
(-0.0432054 0.0369097 5.42005e-22)
(-0.0310375 0.0250051 -9.69599e-20)
(-0.0124006 0.00992071 -8.41734e-20)
(1.68609 0.038527 6.41798e-20)
(1.52401 0.0363824 0)
(1.34288 0.0339778 8.47351e-20)
(1.15418 0.0312078 1.43253e-19)
(0.967603 0.0294872 -5.34311e-20)
(0.791598 0.0290742 -6.09889e-20)
(0.631479 0.0301783 6.83594e-20)
(0.490206 0.0326747 0)
(0.368617 0.036314 0)
(0.266172 0.040765 0)
(0.181487 0.0456507 0)
(0.112802 0.050569 -1.107e-19)
(0.0582784 0.0550995 1.78409e-19)
(0.016192 0.0588081 0)
(-0.0149766 0.0612533 -7.00108e-20)
(-0.0365109 0.0619957 0)
(-0.0494701 0.0606118 0)
(-0.0547249 0.0567123 -1.2547e-19)
(-0.0530042 0.0499602 1.75249e-19)
(-0.0449584 0.0400771 -9.19077e-20)
(-0.0311754 0.0269009 0)
(-0.0121165 0.0104819 5.15169e-22)
(1.43863 0.0200671 -1.31621e-19)
(1.25406 0.0192006 3.91069e-20)
(1.06716 0.02043 -1.29523e-19)
(0.886945 0.0213997 0)
(0.719811 0.0238299 -5.59616e-20)
(0.569977 0.027083 6.31003e-20)
(0.439219 0.0312965 -6.91273e-20)
(0.327688 0.0361988 0)
(0.234367 0.0415714 0)
(0.157629 0.0471452 -4.65414e-20)
(0.0955969 0.0526314 -1.53362e-19)
(0.0464059 0.0577159 5.52709e-20)
(0.00834381 0.0620596 -1.81085e-19)
(-0.0200758 0.0653012 1.29066e-19)
(-0.0400963 0.0670647 -6.97243e-20)
(-0.0527327 0.0669717 7.39159e-20)
(-0.0588064 0.0646586 0)
(-0.0589876 0.0597962 4.19215e-20)
(-0.0538394 0.0521088 1.39805e-22)
(-0.0438669 0.0413843 2.98957e-22)
(-0.0295331 0.0275146 -9.41333e-20)
(-0.0112152 0.0105501 1.21338e-19)
(1.15362 0.0115762 0)
(0.96997 0.0128797 0)
(0.798546 0.017589 0)
(0.641791 0.0212839 -1.02108e-19)
(0.503427 0.0262918 1.71706e-19)
(0.383952 0.0315015 4.55637e-22)
(0.282985 0.0371418 0)
(0.199116 0.0429437 6.10868e-22)
(0.130571 0.0487646 -8.63269e-20)
(0.0754357 0.054406 1.41228e-19)
(0.0318728 0.0596532 5.16495e-20)
(-0.00177383 0.0642593 -5.60034e-20)
(-0.0269317 0.0679451 1.20265e-19)
(-0.0447901 0.0704028 0)
(-0.0563171 0.071305 0)
(-0.062289 0.07032 0)
(-0.063329 0.0671304 0)
(-0.059945 0.0614535 0)
(-0.0525669 0.0530603 7.62776e-22)
(-0.0415821 0.0417887 2.2245e-20)
(-0.0273531 0.027567 9.2901e-20)
(-0.0101921 0.0104379 -9.89482e-20)
(0.869853 0.0113785 7.33544e-20)
(0.705352 0.0156525 0)
(0.56163 0.022438 0)
(0.434702 0.027723 1.56059e-19)
(0.326949 0.0337061 -1.16712e-19)
(0.236457 0.0393985 -4.6102e-22)
(0.161971 0.0450845 7.22032e-20)
(0.101511 0.0505943 5.79666e-22)
(0.053232 0.0558728 -8.72731e-20)
(0.0153526 0.0607965 -4.74509e-20)
(-0.0137025 0.0652134 -1.04001e-19)
(-0.0352903 0.0689269 2.24565e-19)
(-0.0505425 0.0716989 -6.00264e-20)
(-0.0603821 0.0732565 -9.76182e-20)
(-0.065549 0.0733038 -3.05443e-22)
(-0.0666315 0.0715394 1.10144e-19)
(-0.0641 0.0676761 0)
(-0.058338 0.0614609 0)
(-0.0496708 0.0526935 4.30641e-20)
(-0.0383907 0.0412409 -1.11079e-19)
(-0.0247779 0.0270484 9.14459e-20)
(-0.00908901 0.0101462 0)
(0.615112 0.0202655 -1.87785e-19)
(0.479515 0.0265875 4.19911e-20)
(0.36659 0.0333318 -4.74495e-20)
(0.269335 0.0386207 -5.29886e-20)
(0.189304 0.0439167 -5.91429e-20)
(0.123641 0.048717 0)
(0.0709399 0.053299 7.30868e-20)
(0.0292395 0.0576121 7.43687e-22)
(-0.0030877 0.0616601 -1.75735e-19)
(-0.0275443 0.0653692 1.43719e-19)
(-0.0454099 0.0686215 -1.56526e-19)
(-0.0577613 0.0712454 5.59306e-20)
(-0.0654819 0.0730228 9.07537e-20)
(-0.069283 0.0736985 6.47911e-20)
(-0.0697306 0.0729946 -1.38511e-19)
(-0.0672721 0.0706288 -1.30838e-22)
(-0.0622644 0.0663331 3.84601e-20)
(-0.0549982 0.059873 0)
(-0.0457191 0.0510648 0)
(-0.0346442 0.0397893 8.76336e-20)
(-0.0219872 0.0259939 -1.80448e-19)
(-0.00795707 0.00968824 9.45699e-20)
(0.403245 0.0358086 1.15314e-19)
(0.297901 0.0420737 -4.30117e-20)
(0.21296 0.0470686 4.81843e-20)
(0.141539 0.0508656 5.42961e-20)
(0.0844345 0.0542624 -5.9836e-20)
(0.0388231 0.0572135 -3.35278e-22)
(0.00338964 0.0599673 7.32612e-20)
(-0.0235927 0.0625618 0)
(-0.0434924 0.0650242 0)
(-0.0575443 0.0673011 -9.68949e-20)
(-0.0667777 0.0692824 2.09372e-19)
(-0.0720449 0.0708011 0)
(-0.0740355 0.0716436 -1.21715e-19)
(-0.0732986 0.0715612 9.73308e-20)
(-0.0702675 0.070286 -3.42315e-20)
(-0.0652834 0.0675479 -3.62847e-20)
(-0.0586173 0.0630921 -3.87262e-20)
(-0.0504898 0.0566959 0)
(-0.0410851 0.0481837 -8.37973e-20)
(-0.0305618 0.0374403 1.08175e-19)
(-0.0190823 0.0244047 0)
(-0.00681858 0.00905918 4.63841e-20)
(0.232489 0.0541391 3.96796e-20)
(0.154165 0.0581237 -4.40533e-20)
(0.092779 0.0602776 4.13693e-22)
(0.0427971 0.0615382 -5.46388e-20)
(0.00431104 0.0623756 1.21945e-19)
(-0.0251253 0.063008 1.57725e-23)
(-0.0467378 0.0636524 7.46927e-20)
(-0.0619997 0.0643837 5.47092e-22)
(-0.0720622 0.0652203 -8.90476e-20)
(-0.0779339 0.0661004 -9.74194e-20)
(-0.0804377 0.0669018 -4.96793e-22)
(-0.0802404 0.067448 5.66396e-20)
(-0.0778715 0.0675211 6.08889e-20)
(-0.0737467 0.0668746 0)
(-0.0681908 0.0652483 -3.43891e-20)
(-0.0614587 0.0623835 7.28351e-20)
(-0.0537532 0.0580379 0)
(-0.0452398 0.0519992 7.9991e-20)
(-0.0360558 0.0440978 -1.03738e-19)
(-0.0263153 0.0342181 6.4153e-20)
(-0.0161447 0.0222861 -1.09963e-19)
(-0.00569232 0.00825405 9.19999e-21)
(0.0928779 0.0702387 6.5516e-23)
(0.0381251 0.0706753 -6.44241e-22)
(-0.00295859 0.0695922 5.00848e-20)
(-0.0346518 0.0679937 5.60245e-20)
(-0.0574234 0.0662348 -1.23393e-19)
(-0.073326 0.0646181 -6.8298e-20)
(-0.0835069 0.0633198 0)
(-0.089196 0.0624041 0)
(-0.09134 0.0618574 0)
(-0.0907327 0.0615915 4.87669e-20)
(-0.0880016 0.0614615 -5.29249e-20)
(-0.0836394 0.0612774 5.68034e-20)
(-0.0780275 0.0608169 3.04241e-20)
(-0.07146 0.059838 1.06213e-22)
(-0.064165 0.0580922 -6.88403e-20)
(-0.0563222 0.0553366 -1.81009e-20)
(-0.0480766 0.051346 -7.62232e-20)
(-0.03955 0.0459222 1.98202e-20)
(-0.0308441 0.0389047 1.85626e-19)
(-0.0220411 0.0301791 -8.50596e-20)
(-0.0132458 0.01966 1.08937e-19)
(-0.00459735 0.00727322 -8.1005e-20)
(-0.0238024 0.0796865 3.11431e-22)
(-0.0568389 0.0765593 4.58716e-20)
(-0.0793391 0.0725552 0)
(-0.0946928 0.0684831 0)
(-0.103691 0.0646405 3.13689e-20)
(-0.10801 0.0613016 -3.45609e-20)
(-0.108647 0.0585851 7.60654e-20)
(-0.106555 0.0565131 -8.28561e-20)
(-0.102441 0.0550282 0)
(-0.0968645 0.0540102 -9.83609e-20)
(-0.090245 0.0532932 5.29647e-20)
(-0.0828983 0.0526786 0)
(-0.0750609 0.0519468 0)
(-0.0669116 0.0508687 6.49958e-20)
(-0.0585899 0.0492156 4.55985e-23)
(-0.0502088 0.0467689 -7.23652e-20)
(-0.0418646 0.0433277 0)
(-0.033644 0.0387164 7.89521e-20)
(-0.0256229 0.0327906 -1.02425e-19)
(-0.0178632 0.0254447 -1.05158e-20)
(-0.0104604 0.0165888 -1.0761e-20)
(-0.00355785 0.00613194 -5.32829e-20)
(-0.118033 0.0797817 -4.23648e-20)
(-0.130589 0.0740046 0)
(-0.135976 0.0680095 5.19939e-20)
(-0.136882 0.0623944 -5.73306e-20)
(-0.134126 0.0573838 3.18772e-20)
(-0.128951 0.0531639 1.52267e-22)
(-0.122081 0.0497807 0)
(-0.114131 0.0472003 -4.18892e-20)
(-0.105521 0.0453235 4.54499e-20)
(-0.0965495 0.0440059 0)
(-0.0874238 0.0430724 -2.66903e-20)
(-0.0782865 0.042329 8.56955e-20)
(-0.0692388 0.041572 -1.52632e-20)
(-0.060357 0.0405965 6.50301e-20)
(-0.0517042 0.0392039 -6.87735e-20)
(-0.0433382 0.0372086 1.81473e-20)
(-0.0353164 0.0344436 -1.89113e-20)
(-0.0276985 0.0307642 -9.85865e-20)
(-0.0205434 0.0260526 1.93829e-19)
(-0.0139019 0.0202217 -1.57329e-19)
(-0.00786976 0.0131905 9.66881e-20)
(-0.00260311 0.00486661 -7.91794e-20)
(-0.183058 0.0704462 4.27364e-20)
(-0.177626 0.0633568 4.75963e-20)
(-0.168679 0.0566198 7.87163e-23)
(-0.158158 0.0506361 1.45071e-22)
(-0.146621 0.0455203 -9.61159e-20)
(-0.134793 0.0413431 -3.5184e-20)
(-0.123015 0.0380724 0)
(-0.111526 0.0356217 -2.10712e-20)
(-0.100443 0.0338644 2.29045e-20)
(-0.0898178 0.0326499 2.47957e-20)
(-0.0796635 0.0318132 -5.34768e-20)
(-0.0699775 0.0311823 -1.00452e-19)
(-0.0607534 0.0305841 7.65792e-20)
(-0.05199 0.0298499 0)
(-0.0436951 0.0288198 1.72004e-20)
(-0.0358877 0.0273481 7.23716e-20)
(-0.0285981 0.0253072 9.44216e-21)
(-0.0218683 0.0225905 -7.87678e-20)
(-0.0157456 0.0191148 -2.03613e-20)
(-0.0102761 0.0148231 0)
(-0.00555903 0.00965736 0)
(-0.0017662 0.00354386 0)
(-0.209365 0.0530094 0)
(-0.191134 0.0462194 0)
(-0.172855 0.0401801 2.67324e-20)
(-0.155615 0.0350826 -2.94237e-20)
(-0.139514 0.0309109 9.70389e-20)
(-0.124724 0.0276247 -3.54952e-20)
(-0.111188 0.0251315 0)
(-0.0988102 0.0233183 2.1188e-20)
(-0.0874574 0.0220604 -4.6073e-20)
(-0.0769962 0.0212278 3.7356e-20)
(-0.067308 0.0206888 2.685e-20)
(-0.0582977 0.0203124 1.43996e-20)
(-0.0498965 0.0199698 -1.53727e-20)
(-0.0420617 0.0195375 -1.63246e-20)
(-0.0347742 0.0188997 -1.72512e-20)
(-0.0280347 0.0179529 0)
(-0.0218608 0.0166094 9.47542e-21)
(-0.0162842 0.0148009 0)
(-0.011345 0.012482 5.08113e-20)
(-0.0070844 0.00963202 -4.70491e-20)
(-0.0036013 0.0062311 0)
(-0.00107585 0.00224769 0)
(-0.190542 0.0320205 0)
(-0.167599 0.0269252 1.22479e-20)
(-0.14705 0.0226961 -2.68718e-20)
(-0.129127 0.0193321 1.4895e-20)
(-0.113456 0.016718 0)
(-0.0997783 0.0147498 0)
(-0.0877623 0.0133189 0)
(-0.0771188 0.0123252 -1.06884e-20)
(-0.0675917 0.0116759 2.32338e-20)
(-0.0589717 0.0112841 -1.2462e-20)
(-0.051096 0.0110674 -5.39387e-20)
(-0.0438458 0.0109458 0)
(-0.0371418 0.0108412 7.71275e-20)
(-0.0309384 0.0106778 -4.91212e-20)
(-0.0252175 0.0103836 8.6511e-21)
(-0.019982 0.00989335 3.63098e-20)
(-0.0152502 0.00915283 -3.7962e-20)
(-0.0110517 0.00812392 0)
(-0.0074209 0.00679067 -4.06874e-20)
(-0.00439106 0.00516384 9.41012e-20)
(-0.00204686 0.00326464 -8.00525e-20)
(-0.000554296 0.00111904 3.48373e-20)
(-0.130012 0.0113646 4.46749e-20)
(-0.111837 0.00909385 -3.6976e-20)
(-0.0964743 0.00739709 -2.71993e-20)
(-0.0836835 0.00616871 -1.49456e-20)
(-0.0728914 0.0052858 3.29261e-20)
(-0.0637209 0.00466806 0)
(-0.0558158 0.00425284 -3.94534e-20)
(-0.0488987 0.00399351 5.36439e-20)
(-0.0427479 0.00385277 5.83702e-21)
(-0.0371945 0.00379884 0)
(-0.0321148 0.00380258 0)
(-0.0274242 0.00383556 0)
(-0.0230713 0.00386867 2.70865e-20)
(-0.0190324 0.00387155 -3.2853e-20)
(-0.0153065 0.00381272 -8.66508e-21)
(-0.0119089 0.00366092 0)
(-0.00886653 0.00338795 0)
(-0.00621213 0.00297346 2.47421e-21)
(-0.0039776 0.00241321 0)
(-0.00218618 0.00172871 -7.85784e-21)
(-0.000888778 0.00096826 -5.3432e-21)
(-0.000199298 0.000225952 -1.09161e-21)
(-0.0435653 0.000826883 0)
(-0.0372203 0.00054222 -2.42697e-20)
(-0.0320928 0.000388002 6.33827e-23)
(-0.0279852 0.000317456 2.93498e-20)
(-0.0245732 0.000290072 -1.6055e-20)
(-0.0216893 0.000287103 1.75442e-20)
(-0.0191891 0.000298079 0)
(-0.016973 0.000318194 -2.02708e-23)
(-0.0149655 0.000345187 -5.60495e-21)
(-0.0131125 0.000377855 2.42405e-20)
(-0.0113759 0.000415124 -2.60154e-20)
(-0.00973157 0.000455403 1.35925e-23)
(-0.00816721 0.000496071 3.69009e-21)
(-0.00668152 0.000532983 -3.14129e-20)
(-0.00528304 0.00056004 3.31331e-20)
(-0.00398917 0.000568965 0)
(-0.00282482 0.000549584 -4.42992e-24)
(-0.00182056 0.000491238 -2.35011e-21)
(-0.00100829 0.000386603 0)
(-0.000413609 0.000238389 2.49468e-21)
(-6.01774e-05 6.80141e-05 0)
(2.18195e-05 -5.80778e-05 3.46969e-20)
(1.13681 0.02615 0)
(1.09077 0.0278636 -2.1082e-20)
(1.04269 0.0296233 -3.21446e-22)
(0.992463 0.0314303 0)
(0.940186 0.0332904 3.11299e-20)
(0.885951 0.0352104 -3.40659e-20)
(0.829848 0.0371933 1.93513e-20)
(0.771987 0.03924 -2.64893e-24)
(0.712483 0.0413501 0)
(0.651469 0.0435209 2.69389e-20)
(0.589089 0.0457446 1.69861e-22)
(0.525508 0.0479977 3.21663e-20)
(0.460946 0.0502178 -6.90526e-20)
(0.395733 0.0522644 9.27563e-20)
(0.330423 0.0538757 -3.94398e-20)
(0.265917 0.0546394 -4.22639e-20)
(0.203579 0.0540023 -3.37589e-22)
(0.145295 0.0513257 5.77387e-20)
(0.0933293 0.0459801 2.41747e-20)
(0.0500851 0.0374523 -2.48542e-20)
(0.0188069 0.0254102 -1.27589e-20)
(0.00353994 0.00975572 -5.23659e-21)
(1.14133 0.0820869 6.98519e-20)
(1.09574 0.0879238 4.18758e-20)
(1.04828 0.0940344 -6.92864e-20)
(0.998638 0.100389 -5.45204e-20)
(0.94695 0.10698 5.98452e-20)
(0.893305 0.113811 0)
(0.837794 0.12088 5.8861e-20)
(0.780524 0.128181 -8.49988e-20)
(0.721614 0.135704 0)
(0.661195 0.143435 -1.08002e-21)
(0.599409 0.151342 2.82622e-20)
(0.536419 0.159336 3.1275e-20)
(0.472426 0.167192 0)
(0.407733 0.174413 5.55418e-20)
(0.342832 0.180094 -3.92345e-20)
(0.278533 0.182832 0)
(0.216078 0.180769 -2.16707e-20)
(0.157207 0.171789 -1.15265e-20)
(0.104037 0.153827 0)
(0.058845 0.125218 -2.43478e-20)
(0.0247856 0.0849063 1.39787e-19)
(0.00586209 0.0326051 -1.61037e-19)
(1.15012 0.138016 -6.86482e-20)
(1.1055 0.147993 0)
(1.05928 0.158378 2.31862e-19)
(1.01082 0.169161 -1.03518e-19)
(0.960321 0.180333 5.89356e-20)
(0.90787 0.191904 1.36737e-19)
(0.853559 0.203873 -1.4914e-19)
(0.797501 0.216232 1.68873e-19)
(0.739812 0.228969 -9.50436e-20)
(0.680623 0.24206 -1.05499e-19)
(0.620072 0.255453 1.71044e-19)
(0.55831 0.268998 -1.53821e-19)
(0.495509 0.28231 -1.34824e-19)
(0.431904 0.294548 3.58471e-19)
(0.367867 0.304172 -3.45814e-19)
(0.304018 0.308804 1.21993e-19)
(0.241346 0.305304 2.16542e-20)
(0.181294 0.290099 0)
(0.125687 0.259715 -1.8661e-19)
(0.0765501 0.211361 2.16251e-19)
(0.0368631 0.14328 -2.50699e-20)
(0.010551 0.0550106 6.14171e-20)
(1.16226 0.191195 -4.93134e-21)
(1.11919 0.205191 2.34586e-19)
(1.07494 0.219709 -8.78904e-20)
(1.02834 0.234803 -2.00869e-23)
(0.979692 0.250448 -5.87386e-20)
(0.929092 0.266655 1.32837e-19)
(0.876634 0.283424 -7.27373e-20)
(0.822431 0.300743 -1.63571e-19)
(0.766606 0.318594 -2.76223e-19)
(0.709288 0.336946 2.49402e-19)
(0.650612 0.355724 3.85525e-19)
(0.590711 0.374719 -2.37448e-19)
(0.529717 0.393391 -1.9375e-19)
(0.467764 0.410559 -4.98782e-22)
(0.405043 0.424064 -7.25125e-20)
(0.34189 0.430578 -3.67881e-20)
(0.278915 0.425708 0)
(0.217125 0.404472 -1.72975e-19)
(0.157902 0.362042 2.22592e-19)
(0.102901 0.294556 0)
(0.0548405 0.199612 0)
(0.0175279 0.0766076 -1.37058e-19)
(1.17772 0.241756 5.10093e-21)
(1.13672 0.259642 -1.49104e-19)
(1.09508 0.278094 1.76398e-19)
(1.05095 0.297293 -2.94504e-19)
(1.00475 0.317194 1.13457e-19)
(0.956603 0.337813 -2.47457e-19)
(0.906598 0.35915 6.62744e-20)
(0.854857 0.381192 3.93501e-19)
(0.801504 0.40392 -8.73625e-20)
(0.746669 0.427294 0)
(0.690481 0.451222 1.04979e-19)
(0.633055 0.475437 -3.39011e-19)
(0.574463 0.499252 -5.73125e-20)
(0.51471 0.52116 2.70056e-19)
(0.453748 0.538405 -5.61837e-19)
(0.391537 0.546738 6.74649e-19)
(0.328187 0.540563 -3.13476e-19)
(0.264126 0.513546 0)
(0.200163 0.459574 -4.36798e-20)
(0.137465 0.37379 0)
(0.0784167 0.253208 2.26172e-19)
(0.0266718 0.0971296 -1.85029e-19)
(1.19607 0.288408 1.28009e-19)
(1.15767 0.310011 0)
(1.11925 0.33216 -1.61809e-19)
(1.07817 0.355232 0)
(1.03501 0.37915 0)
(0.989903 0.403933 1.22585e-19)
(0.942931 0.429583 -1.37386e-19)
(0.89423 0.456091 -7.5093e-21)
(0.843927 0.483432 -9.11184e-20)
(0.792153 0.511563 1.80661e-19)
(0.739034 0.540376 9.6752e-20)
(0.684659 0.569555 2.16167e-19)
(0.629032 0.598274 2.33165e-19)
(0.572 0.624719 -5.66434e-20)
(0.513218 0.645566 6.85095e-20)
(0.452187 0.655687 0)
(0.388398 0.64834 -2.24097e-19)
(0.321571 0.615906 3.06979e-19)
(0.251812 0.551069 0)
(0.179701 0.44806 -3.30456e-19)
(0.107216 0.30339 2.94598e-19)
(0.0378311 0.116313 1.76542e-19)
(1.21686 0.330573 0)
(1.18157 0.355664 1.399e-19)
(1.14693 0.381211 6.14761e-21)
(1.10943 0.407863 3.53808e-19)
(1.06983 0.435498 -3.93867e-19)
(1.02828 0.464141 1.09771e-19)
(0.984865 0.493799 0)
(0.939734 0.524461 -4.28891e-19)
(0.893019 0.556104 -2.49279e-21)
(0.844851 0.588679 0)
(0.795351 0.622064 9.14975e-20)
(0.74458 0.655902 -3.05409e-19)
(0.692462 0.689243 -1.12541e-19)
(0.63866 0.719988 8.68662e-21)
(0.582483 0.744284 0)
(0.522886 0.756177 -2.60102e-19)
(0.458634 0.747838 2.01378e-19)
(0.388611 0.710443 0)
(0.312099 0.635557 0)
(0.228998 0.516592 0)
(0.140824 0.34964 3.14133e-19)
(0.0508421 0.133964 -2.2696e-19)
(1.23941 0.367553 -1.03205e-19)
(1.20774 0.395883 4.28512e-21)
(1.1774 0.424515 4.2816e-21)
(1.14396 0.454423 -6.66664e-19)
(1.10843 0.48543 3.79427e-19)
(1.07092 0.517569 -3.12915e-19)
(1.03155 0.550858 0)
(0.990473 0.585288 0)
(0.947824 0.62084 1.49281e-19)
(0.903742 0.657467 0)
(0.858343 0.695041 0)
(0.811664 0.733171 0)
(0.763543 0.770802 -9.562e-20)
(0.713438 0.805585 1.11123e-19)
(0.660271 0.833182 -1.07316e-19)
(0.602376 0.846868 -2.36354e-19)
(0.537686 0.837794 2.47466e-19)
(0.464127 0.796011 -2.56129e-19)
(0.380045 0.712051 2.65474e-19)
(0.284574 0.578602 0)
(0.178714 0.391433 -2.83701e-19)
(0.0654979 0.149883 4.09858e-19)
(1.26297 0.398777 2.15004e-19)
(1.23538 0.430019 0)
(1.20975 0.461364 0)
(1.18078 0.494174 1.59881e-19)
(1.14971 0.528203 0)
(1.11666 0.563491 1.92811e-19)
(1.08176 0.600061 2.15167e-19)
(1.04517 0.637906 0)
(1.00705 0.677005 0)
(0.967524 0.717314 -2.90583e-19)
(0.926714 0.758698 3.12748e-19)
(0.884624 0.800743 3.38895e-19)
(0.841002 0.842314 -3.52841e-19)
(0.795087 0.880847 0)
(0.745369 0.911572 3.08407e-19)
(0.689494 0.927063 -2.12443e-19)
(0.624462 0.917526 1.03163e-19)
(0.547126 0.871968 0)
(0.454789 0.779982 0)
(0.345743 0.63363 5.62146e-20)
(0.220428 0.428456 -2.50545e-19)
(0.0816215 0.163957 2.34928e-19)
(1.28665 0.424093 3.78895e-19)
(1.26362 0.457959 2.15591e-19)
(1.24313 0.491665 0)
(1.21904 0.526974 0)
(1.19283 0.563569 0)
(1.16461 0.601517 -1.85689e-19)
(1.13452 0.640857 0)
(1.10275 0.681593 0)
(1.06947 0.723717 -1.14442e-19)
(1.03482 0.767191 -1.24326e-19)
(0.998928 0.811887 2.82542e-19)
(0.961776 0.857381 -3.03042e-19)
(0.923027 0.902483 8.52183e-20)
(0.881699 0.94446 0)
(0.835829 0.978168 8.34778e-20)
(0.782318 0.995542 0)
(0.717138 0.985915 -3.81313e-19)
(0.635955 0.937319 1.98282e-19)
(0.534917 0.838497 -2.01402e-19)
(0.411396 0.680988 1.5203e-19)
(0.265233 0.460231 0)
(0.0989271 0.175993 0)
(1.30954 0.443013 -1.84278e-19)
(1.29143 0.479054 -4.2019e-19)
(1.27626 0.514737 6.30748e-21)
(1.25729 0.552221 -1.31419e-19)
(1.23621 0.59109 1.44353e-19)
(1.21314 0.631413 0)
(1.18823 0.673227 0)
(1.16168 0.716538 1.97636e-19)
(1.13365 0.76134 -1.01437e-19)
(1.10432 0.807603 1.22822e-19)
(1.0738 0.855205 -1.31696e-19)
(1.04205 0.903722 2.22207e-21)
(1.00866 0.951934 2.84342e-19)
(0.972406 0.996978 -6.89878e-20)
(0.930855 1.0334 -1.14978e-20)
(0.880097 1.05259 -7.29321e-20)
(0.814992 1.04309 8.81577e-20)
(0.729915 0.99206 0)
(0.619771 0.887502 1.6751e-19)
(0.480969 0.72054 -2.11977e-19)
(0.312729 0.486635 -3.97413e-20)
(0.117255 0.185947 0)
(1.33072 0.456284 0)
(1.31814 0.494267 -1.89424e-19)
(1.30867 0.531496 2.15745e-19)
(1.29512 0.570586 2.34341e-19)
(1.27939 0.611081 -1.26037e-19)
(1.26159 0.653095 0)
(1.24193 0.696691 0)
(1.22065 0.741888 0)
(1.19794 0.788694 0)
(1.17398 0.837089 -9.67361e-20)
(1.14891 0.88697 -4.37094e-19)
(1.12269 0.937937 1.25321e-19)
(1.09484 0.988776 1.12864e-19)
(1.06394 1.03656 1.84515e-19)
(1.02708 1.07559 -1.29753e-19)
(0.979528 1.09676 1.31927e-19)
(0.914953 1.08788 2.0084e-19)
(0.826309 1.03528 -3.31693e-19)
(0.707129 0.926271 -7.39551e-20)
(0.552771 0.751691 6.99917e-20)
(0.361822 0.507214 1.799e-19)
(0.136183 0.193614 -1.19018e-19)
(1.34921 0.462756 1.43757e-19)
(1.34224 0.502228 -1.72178e-19)
(1.33839 0.540897 1.90058e-19)
(1.33049 0.581565 -1.07271e-19)
(1.32043 0.623668 2.41792e-19)
(1.3083 0.66732 -1.24323e-19)
(1.29434 0.712594 1.42676e-19)
(1.2788 0.759518 -3.02211e-19)
(1.26188 0.808112 0)
(1.24379 0.858367 3.56094e-19)
(1.22467 0.91019 -8.96491e-20)
(1.20447 0.963198 -8.81159e-20)
(1.18265 1.01619 3.11993e-21)
(1.15758 1.06618 8.97948e-20)
(1.12585 1.1073 -1.58727e-19)