/*--------------------------------*- C++ -*----------------------------------*\
| =========                 |                                                 |
| \\      /  F ield         | OpenFOAM Extend Project: Open source CFD        |
|  \\    /   O peration     | Version:  1.6-ext                               |
|   \\  /    A nd           | Web:      www.extend-project.de                 |
|    \\/     M anipulation  |                                                 |
\*---------------------------------------------------------------------------*/
FoamFile
{
    version     2.0;
    format      ascii;
    class       volScalarField::DimensionedInternalField;
    location    "0.4";
    object      V0;
}
// * * * * * * * * * * * * * * * * * * * * * * * * * * * * * * * * * * * * * //

dimensions      [0 3 0 0 0 0 0];

value           nonuniform List<scalar> 
20940
(
1.171e-06
1.03798e-06
9.20946e-07
8.17913e-07
7.27143e-07
6.4712e-07
5.76518e-07
5.14179e-07
4.59092e-07
4.10371e-07
3.67243e-07
3.29033e-07
2.95148e-07
2.6507e-07
2.38344e-07
2.14573e-07
1.93406e-07
1.74538e-07
1.57701e-07
1.42658e-07
1.29203e-07
1.17156e-07
1.17116e-06
1.03812e-06
9.21064e-07
8.18017e-07
7.27237e-07
6.47205e-07
5.76597e-07
5.14254e-07
4.59163e-07
4.10439e-07
3.67309e-07
3.29094e-07
2.95205e-07
2.65122e-07
2.38391e-07
2.14615e-07
1.93446e-07
1.74576e-07
1.57738e-07
1.42694e-07
1.29239e-07
1.1719e-07
1.17373e-06
1.04039e-06
9.23085e-07
8.19814e-07
7.28836e-07
6.48631e-07
5.7787e-07
5.15392e-07
4.60183e-07
4.11356e-07
3.68134e-07
3.2984e-07
2.95878e-07
2.65729e-07
2.38939e-07
2.1511e-07
1.93893e-07
1.7498e-07
1.58105e-07
1.43029e-07
1.29545e-07
1.17471e-07
1.17799e-06
1.04416e-06
9.26435e-07
8.22793e-07
7.31489e-07
6.50997e-07
5.79981e-07
5.17278e-07
4.6187e-07
4.12866e-07
3.69489e-07
3.31057e-07
2.96974e-07
2.66719e-07
2.39834e-07
2.15918e-07
1.94623e-07
1.75641e-07
1.58702e-07
1.43571e-07
1.30038e-07
1.17921e-07
1.18322e-06
1.04884e-06
9.30614e-07
8.26539e-07
7.34853e-07
6.54022e-07
5.82707e-07
5.19736e-07
4.64088e-07
4.14871e-07
3.71301e-07
3.32698e-07
2.98462e-07
2.6807e-07
2.41064e-07
2.1704e-07
1.95647e-07
1.76576e-07
1.59556e-07
1.4435e-07
1.3075e-07
1.18572e-07
1.19002e-06
1.05493e-06
9.36077e-07
8.31443e-07
7.39264e-07
6.57999e-07
5.86299e-07
5.22987e-07
4.67035e-07
4.17544e-07
3.73729e-07
3.34905e-07
3.00469e-07
2.69898e-07
2.42729e-07
2.18561e-07
1.97038e-07
1.77849e-07
1.60722e-07
1.45419e-07
1.31728e-07
1.19467e-07
1.19838e-06
1.06245e-06
9.42847e-07
8.37541e-07
7.44761e-07
6.62961e-07
5.90788e-07
5.27058e-07
4.70735e-07
4.20915e-07
3.76804e-07
3.37713e-07
3.03036e-07
2.72245e-07
2.44877e-07
2.20526e-07
1.98838e-07
1.795e-07
1.62238e-07
1.46812e-07
1.33009e-07
1.20645e-07
1.20831e-06
1.07144e-06
9.50988e-07
8.44919e-07
7.51448e-07
6.69022e-07
5.96284e-07
5.32047e-07
4.75271e-07
4.25049e-07
3.80581e-07
3.41171e-07
3.06207e-07
2.75156e-07
2.4755e-07
2.22983e-07
2.01096e-07
1.81576e-07
1.64149e-07
1.48572e-07
1.34633e-07
1.22144e-07
1.21971e-06
1.08182e-06
9.60447e-07
8.53548e-07
7.59326e-07
6.76216e-07
6.02852e-07
5.38041e-07
4.80741e-07
4.30041e-07
3.85144e-07
3.45348e-07
3.10041e-07
2.78681e-07
2.50798e-07
2.25978e-07
2.03859e-07
1.84127e-07
1.66504e-07
1.50747e-07
1.36644e-07
1.24005e-07
1.23249e-06
1.09349e-06
9.71134e-07
8.63347e-07
7.68323e-07
6.84486e-07
6.10459e-07
5.45039e-07
4.87176e-07
4.35955e-07
3.90575e-07
3.50334e-07
3.1462e-07
2.82894e-07
2.54681e-07
2.29564e-07
2.07177e-07
1.87198e-07
1.69349e-07
1.53383e-07
1.39085e-07
1.26267e-07
1.24642e-06
1.10629e-06
9.82905e-07
8.74187e-07
7.7832e-07
6.93718e-07
6.18995e-07
5.5294e-07
4.94494e-07
4.42735e-07
3.96852e-07
3.56142e-07
3.19987e-07
2.87849e-07
2.59256e-07
2.33792e-07
2.11089e-07
1.90825e-07
1.72714e-07
1.56508e-07
1.41987e-07
1.28962e-07
1.26197e-06
1.12064e-06
9.9615e-07
8.86415e-07
7.89616e-07
7.04161e-07
6.28661e-07
5.61898e-07
5.02806e-07
4.50455e-07
4.04029e-07
3.62815e-07
3.2619e-07
2.93609e-07
2.64597e-07
2.38739e-07
2.1567e-07
1.95068e-07
1.7665e-07
1.60162e-07
1.45384e-07
1.32122e-07
1.27839e-06
1.13591e-06
1.01036e-06
8.99628e-07
8.01901e-07
7.15581e-07
6.39275e-07
5.71764e-07
5.11984e-07
4.58999e-07
4.11991e-07
3.70242e-07
3.33123e-07
3.00083e-07
2.7064e-07
2.44374e-07
2.20917e-07
1.99947e-07
1.81184e-07
1.64377e-07
1.49305e-07
1.35771e-07
1.29571e-06
1.15213e-06
1.02554e-06
9.13844e-07
8.15208e-07
7.28032e-07
6.50917e-07
5.82641e-07
5.22138e-07
4.68474e-07
4.20833e-07
3.78497e-07
3.40836e-07
3.07295e-07
2.77389e-07
2.50691e-07
2.26827e-07
2.05472e-07
1.86341e-07
1.69184e-07
1.53782e-07
1.3994e-07
1.31366e-06
1.16907e-06
1.04151e-06
9.28891e-07
8.29376e-07
7.41367e-07
6.63462e-07
5.94437e-07
5.33219e-07
4.78872e-07
4.30578e-07
3.8762e-07
3.49373e-07
3.15284e-07
2.84867e-07
2.57696e-07
2.33392e-07
2.11626e-07
1.92107e-07
1.74581e-07
1.58827e-07
1.44651e-07
1.24202e-06
1.10795e-06
9.89476e-07
8.84701e-07
7.91954e-07
7.09777e-07
6.36897e-07
5.72197e-07
5.14699e-07
4.63544e-07
4.17981e-07
3.77353e-07
3.41085e-07
3.08675e-07
2.79681e-07
2.53714e-07
2.3043e-07
2.09526e-07
1.90732e-07
1.73814e-07
1.58563e-07
1.44798e-07
1.21892e-06
1.08683e-06
9.70144e-07
8.66984e-07
7.75699e-07
6.94847e-07
6.23169e-07
5.59562e-07
5.03062e-07
4.52822e-07
4.08099e-07
3.6824e-07
3.32675e-07
3.00905e-07
2.72493e-07
2.47057e-07
2.24259e-07
2.03803e-07
1.85426e-07
1.68897e-07
1.54009e-07
1.40582e-07
1.19696e-06
1.06679e-06
9.51852e-07
8.50264e-07
7.604e-07
6.80833e-07
6.10316e-07
5.47759e-07
4.92211e-07
4.42836e-07
3.98902e-07
3.59768e-07
3.24868e-07
2.93708e-07
2.65853e-07
2.40925e-07
2.1859e-07
1.98555e-07
1.80564e-07
1.6439e-07
1.49831e-07
1.3671e-07
1.17626e-06
1.04796e-06
9.34695e-07
8.34616e-07
7.46112e-07
6.67774e-07
5.9837e-07
5.3682e-07
4.8218e-07
4.33626e-07
3.90436e-07
3.51978e-07
3.17696e-07
2.87102e-07
2.59767e-07
2.35315e-07
2.13416e-07
1.93778e-07
1.76147e-07
1.603e-07
1.4604e-07
1.33193e-07
1.15697e-06
1.03045e-06
9.18772e-07
8.20124e-07
7.32906e-07
6.55726e-07
5.87366e-07
5.26761e-07
4.72977e-07
4.25198e-07
3.82708e-07
3.44882e-07
3.11174e-07
2.81101e-07
2.54242e-07
2.30225e-07
2.08724e-07
1.89452e-07
1.72156e-07
1.56614e-07
1.42631e-07
1.30036e-07
1.13887e-06
1.01407e-06
9.03936e-07
8.06662e-07
7.20676e-07
6.44602e-07
5.77235e-07
5.17523e-07
4.64545e-07
4.17494e-07
3.75663e-07
3.38434e-07
3.05263e-07
2.75677e-07
2.49258e-07
2.25641e-07
2.04503e-07
1.85564e-07
1.68573e-07
1.53312e-07
1.39587e-07
1.27228e-07
1.12281e-06
9.99543e-07
8.90776e-07
7.94728e-07
7.09841e-07
6.34752e-07
5.6827e-07
5.09353e-07
4.5709e-07
4.10684e-07
3.69436e-07
3.32734e-07
3.00042e-07
2.70888e-07
2.44862e-07
2.216e-07
2.00786e-07
1.8214e-07
1.65417e-07
1.50401e-07
1.36901e-07
1.24749e-07
1.10816e-06
9.86329e-07
8.78839e-07
7.83933e-07
7.00064e-07
6.25887e-07
5.60221e-07
5.02037e-07
4.50431e-07
4.04616e-07
3.639e-07
3.27678e-07
2.95419e-07
2.66658e-07
2.40986e-07
2.18047e-07
1.97525e-07
1.79144e-07
1.6266e-07
1.47862e-07
1.34559e-07
1.22589e-07
1.09515e-06
9.74607e-07
8.6827e-07
7.74391e-07
6.9144e-07
6.18082e-07
5.53148e-07
4.95619e-07
4.44601e-07
3.99313e-07
3.5907e-07
3.23274e-07
2.91399e-07
2.62984e-07
2.37626e-07
2.14969e-07
1.94704e-07
1.76555e-07
1.60284e-07
1.45677e-07
1.32549e-07
1.20736e-07
1.08376e-06
9.64366e-07
8.59054e-07
7.66085e-07
6.83945e-07
6.1131e-07
5.47023e-07
4.90071e-07
4.39571e-07
3.94746e-07
3.54918e-07
3.19494e-07
2.87954e-07
2.59841e-07
2.34754e-07
2.12343e-07
1.923e-07
1.74353e-07
1.58263e-07
1.43822e-07
1.30845e-07
1.1917e-07
1.07397e-06
9.55582e-07
8.51161e-07
7.58984e-07
6.77548e-07
6.05539e-07
5.41811e-07
4.85359e-07
4.35303e-07
3.90877e-07
3.51408e-07
3.16304e-07
2.85052e-07
2.57197e-07
2.32343e-07
2.10142e-07
1.90287e-07
1.7251e-07
1.56576e-07
1.42275e-07
1.29425e-07
1.17865e-07
1.06573e-06
9.48203e-07
8.4454e-07
7.53036e-07
6.72198e-07
6.00722e-07
5.37467e-07
4.81436e-07
4.31757e-07
3.87667e-07
3.48499e-07
3.13665e-07
2.82654e-07
2.55016e-07
2.30357e-07
2.08331e-07
1.88635e-07
1.71e-07
1.55194e-07
1.41009e-07
1.28264e-07
1.16799e-07
1.05899e-06
9.42167e-07
8.39129e-07
7.4818e-07
6.67834e-07
5.96796e-07
5.33931e-07
4.78248e-07
4.28879e-07
3.85066e-07
3.46144e-07
3.11532e-07
2.80718e-07
2.53258e-07
2.28758e-07
2.06876e-07
1.87307e-07
1.6979e-07
1.54087e-07
1.39997e-07
1.27337e-07
1.1595e-07
1.05374e-06
9.37464e-07
8.34911e-07
7.44394e-07
6.64433e-07
5.93736e-07
5.31175e-07
4.75763e-07
4.26636e-07
3.83039e-07
3.4431e-07
3.0987e-07
2.79211e-07
2.5189e-07
2.27514e-07
2.05743e-07
1.86276e-07
1.68848e-07
1.53228e-07
1.3921e-07
1.26618e-07
1.1529e-07
1.0491e-06
9.33343e-07
8.31249e-07
7.41134e-07
6.61526e-07
5.91142e-07
5.28855e-07
4.73686e-07
4.24773e-07
3.81365e-07
3.42804e-07
3.08513e-07
2.77987e-07
2.50783e-07
2.26514e-07
2.04837e-07
1.85455e-07
1.68104e-07
1.52553e-07
1.386e-07
1.26065e-07
1.14786e-07
1.17426e-06
1.0468e-06
9.34188e-07
8.34614e-07
7.46493e-07
6.68441e-07
5.99245e-07
5.37841e-07
4.83301e-07
4.34808e-07
3.91649e-07
3.53196e-07
3.18899e-07
2.88276e-07
2.60902e-07
2.36406e-07
2.14459e-07
1.94773e-07
1.77094e-07
1.61198e-07
1.46891e-07
1.33995e-07
1.17455e-06
1.04707e-06
9.34444e-07
8.34853e-07
7.46718e-07
6.68651e-07
5.99441e-07
5.38025e-07
4.83473e-07
4.34969e-07
3.918e-07
3.53337e-07
3.19031e-07
2.88399e-07
2.61018e-07
2.36513e-07
2.14559e-07
1.94866e-07
1.77182e-07
1.61281e-07
1.46967e-07
1.34067e-07
1.17729e-06
1.04954e-06
9.36671e-07
8.36864e-07
7.48535e-07
6.70296e-07
6.00931e-07
5.39377e-07
4.847e-07
4.36085e-07
3.92815e-07
3.54262e-07
3.19874e-07
2.8917e-07
2.61722e-07
2.37158e-07
2.15149e-07
1.95407e-07
1.77678e-07
1.61736e-07
1.47386e-07
1.34452e-07
1.18189e-06
1.05367e-06
9.40379e-07
8.40201e-07
7.51542e-07
6.73008e-07
6.0338e-07
5.41591e-07
4.86705e-07
4.37902e-07
3.94464e-07
3.5576e-07
3.21237e-07
2.9041e-07
2.62852e-07
2.38189e-07
2.16091e-07
1.96269e-07
1.78466e-07
1.62459e-07
1.48048e-07
1.3506e-07
1.18773e-06
1.05894e-06
9.4515e-07
8.44521e-07
7.55458e-07
6.76562e-07
6.0661e-07
5.44529e-07
4.89381e-07
4.40341e-07
3.9669e-07
3.57793e-07
3.23097e-07
2.92112e-07
2.64412e-07
2.3962e-07
2.17405e-07
1.97475e-07
1.79576e-07
1.63479e-07
1.48988e-07
1.35926e-07
1.19546e-06
1.06594e-06
9.51486e-07
8.50265e-07
7.60671e-07
6.81299e-07
6.10919e-07
5.48454e-07
4.92958e-07
4.43606e-07
3.99673e-07
3.60521e-07
3.25594e-07
2.944e-07
2.6651e-07
2.41546e-07
2.19174e-07
1.99102e-07
1.81072e-07
1.64858e-07
1.50258e-07
1.37097e-07
1.20509e-06
1.07467e-06
9.59413e-07
8.57469e-07
7.67226e-07
6.8727e-07
6.16363e-07
5.53423e-07
4.97499e-07
4.4776e-07
4.03475e-07
3.64006e-07
3.2879e-07
2.97334e-07
2.69206e-07
2.44025e-07
2.21455e-07
2.01203e-07
1.83008e-07
1.66643e-07
1.51906e-07
1.38619e-07
1.21671e-06
1.08524e-06
9.69028e-07
8.6623e-07
7.75217e-07
6.94566e-07
6.23033e-07
5.59525e-07
5.03087e-07
4.52882e-07
4.08174e-07
3.68321e-07
3.32755e-07
3.00982e-07
2.72564e-07
2.47117e-07
2.24306e-07
2.03833e-07
1.85436e-07
1.68885e-07
1.53978e-07
1.40535e-07
1.23038e-06
1.0977e-06
9.80399e-07
8.76618e-07
7.84716e-07
7.03262e-07
6.31e-07
5.66831e-07
5.09793e-07
4.59042e-07
4.13838e-07
3.73532e-07
3.37554e-07
3.05404e-07
2.76641e-07
2.5088e-07
2.2778e-07
2.07043e-07
1.88403e-07
1.7163e-07
1.56518e-07
1.42887e-07
1.24612e-06
1.11208e-06
9.93566e-07
8.88679e-07
7.95775e-07
7.1341e-07
6.4032e-07
5.75398e-07
5.17675e-07
4.66298e-07
4.20524e-07
3.79696e-07
3.43241e-07
3.10654e-07
2.81491e-07
2.55363e-07
2.31926e-07
2.10878e-07
1.91954e-07
1.74919e-07
1.59566e-07
1.45712e-07
1.26376e-06
1.12827e-06
1.00843e-06
9.02338e-07
8.08338e-07
7.24974e-07
6.50972e-07
5.85218e-07
5.26732e-07
4.74659e-07
4.28246e-07
3.86833e-07
3.4984e-07
3.16759e-07
2.87143e-07
2.60597e-07
2.36775e-07
2.15373e-07
1.96122e-07
1.78785e-07
1.63153e-07
1.49042e-07
1.28378e-06
1.14667e-06
1.02535e-06
9.17911e-07
8.22681e-07
7.38195e-07
6.63167e-07
5.96473e-07
5.37127e-07
4.84265e-07
4.37128e-07
3.9505e-07
3.57446e-07
3.23802e-07
2.93668e-07
2.66644e-07
2.42383e-07
2.20575e-07
2.00949e-07
1.83266e-07
1.67314e-07
1.52907e-07
1.30544e-06
1.16665e-06
1.0438e-06
9.34958e-07
8.3844e-07
7.52771e-07
6.76655e-07
6.08962e-07
5.48696e-07
4.94986e-07
4.47067e-07
4.04268e-07
3.65999e-07
3.31741e-07
3.01038e-07
2.7349e-07
2.48743e-07
2.26485e-07
2.06443e-07
1.88374e-07
1.72064e-07
1.57325e-07
1.32884e-06
1.18832e-06
1.06387e-06
9.53562e-07
8.55689e-07
7.68768e-07
6.91499e-07
6.22739e-07
5.61488e-07
5.06867e-07
4.58106e-07
4.14526e-07
3.75534e-07
3.40606e-07
3.09283e-07
2.81159e-07
2.55877e-07
2.33124e-07
2.12622e-07
1.94126e-07
1.7742e-07
1.62313e-07
1.3538e-06
1.21151e-06
1.08543e-06
9.73607e-07
8.74331e-07
7.86109e-07
7.07633e-07
6.37754e-07
5.75463e-07
5.19876e-07
4.70217e-07
4.25804e-07
3.86037e-07
3.50389e-07
3.18396e-07
2.89649e-07
2.63788e-07
2.40496e-07
2.19492e-07
2.0053e-07
1.83389e-07
1.67877e-07
1.3538e-06
1.21151e-06
1.08543e-06
9.73605e-07
8.74329e-07
7.86108e-07
7.07632e-07
6.37752e-07
5.75461e-07
5.19874e-07
4.70215e-07
4.25802e-07
3.86035e-07
3.50388e-07
3.18395e-07
2.89648e-07
2.63788e-07
2.40496e-07
2.19493e-07
2.0053e-07
1.83389e-07
1.67877e-07
1.32884e-06
1.18831e-06
1.06387e-06
9.53555e-07
8.55683e-07
7.68763e-07
6.91494e-07
6.22734e-07
5.61483e-07
5.06862e-07
4.58101e-07
4.14522e-07
3.7553e-07
3.40603e-07
3.09281e-07
2.81158e-07
2.55877e-07
2.33125e-07
2.12623e-07
1.94127e-07
1.77421e-07
1.62314e-07
1.30543e-06
1.16664e-06
1.04379e-06
9.34946e-07
8.3843e-07
7.52761e-07
6.76646e-07
6.08953e-07
5.48688e-07
4.94979e-07
4.47061e-07
4.04263e-07
3.65994e-07
3.31737e-07
3.01036e-07
2.73488e-07
2.48741e-07
2.26484e-07
2.06443e-07
1.88374e-07
1.72064e-07
1.57325e-07
1.28376e-06
1.14665e-06
1.02533e-06
9.17894e-07
8.22666e-07
7.3818e-07
6.63153e-07
5.96461e-07
5.37117e-07
4.84256e-07
4.3712e-07
3.95043e-07
3.5744e-07
3.23798e-07
2.93664e-07
2.66641e-07
2.4238e-07
2.20572e-07
2.00947e-07
1.83264e-07
1.67313e-07
1.52906e-07
1.26374e-06
1.12825e-06
1.00841e-06
9.02317e-07
8.08318e-07
7.24956e-07
6.50956e-07
5.85204e-07
5.2672e-07
4.74649e-07
4.28237e-07
3.86825e-07
3.49833e-07
3.16753e-07
2.87137e-07
2.60592e-07
2.36771e-07
2.15369e-07
1.96119e-07
1.78782e-07
1.63151e-07
1.4904e-07
1.24609e-06
1.11206e-06
9.9354e-07
8.88655e-07
7.95753e-07
7.1339e-07
6.40302e-07
5.75382e-07
5.1766e-07
4.66286e-07
4.20513e-07
3.79686e-07
3.43233e-07
3.10647e-07
2.81485e-07
2.55358e-07
2.31921e-07
2.10875e-07
1.91951e-07
1.74916e-07
1.59563e-07
1.4571e-07
1.23035e-06
1.09767e-06
9.80372e-07
8.76593e-07
7.84694e-07
7.03241e-07
6.3098e-07
5.66813e-07
5.09777e-07
4.59028e-07
4.13826e-07
3.73521e-07
3.37545e-07
3.05396e-07
2.76635e-07
2.50875e-07
2.27776e-07
2.07039e-07
1.88401e-07
1.71627e-07
1.56516e-07
1.42884e-07
1.21668e-06
1.08521e-06
9.69002e-07
8.66206e-07
7.75195e-07
6.94546e-07
6.23013e-07
5.59507e-07
5.0307e-07
4.52867e-07
4.08161e-07
3.68309e-07
3.32745e-07
3.00973e-07
2.72556e-07
2.47111e-07
2.243e-07
2.03828e-07
1.85431e-07
1.68882e-07
1.53974e-07
1.40532e-07
1.20507e-06
1.07465e-06
9.59389e-07
8.57447e-07
7.67206e-07
6.87251e-07
6.16346e-07
5.53406e-07
4.97483e-07
4.47744e-07
4.03461e-07
3.63992e-07
3.28777e-07
2.97323e-07
2.69196e-07
2.44015e-07
2.21447e-07
2.01195e-07
1.83002e-07
1.66638e-07
1.51902e-07
1.38616e-07
1.19544e-06
1.06592e-06
9.51463e-07
8.50244e-07
7.60652e-07
6.81282e-07
6.10903e-07
5.48438e-07
4.92943e-07
4.43592e-07
3.99658e-07
3.60507e-07
3.2558e-07
2.94388e-07
2.66499e-07
2.41535e-07
2.19164e-07
1.99094e-07
1.81065e-07
1.64852e-07
1.50254e-07
1.37093e-07
1.1877e-06
1.05892e-06
9.45126e-07
8.445e-07
7.55439e-07
6.76545e-07
6.06595e-07
5.44515e-07
4.89367e-07
4.40328e-07
3.96678e-07
3.57781e-07
3.23085e-07
2.921e-07
2.64401e-07
2.39609e-07
2.17395e-07
1.97467e-07
1.79568e-07
1.63473e-07
1.48983e-07
1.35923e-07
1.18186e-06
1.05364e-06
9.40353e-07
8.40177e-07
7.5152e-07
6.72989e-07
6.03364e-07
5.41577e-07
4.86692e-07
4.37891e-07
3.94453e-07
3.5575e-07
3.21227e-07
2.904e-07
2.62842e-07
2.3818e-07
2.16082e-07
1.9626e-07
1.78458e-07
1.62452e-07
1.48043e-07
1.35056e-07
1.17727e-06
1.04952e-06
9.36647e-07
8.36842e-07
7.48514e-07
6.70276e-07
6.00913e-07
5.3936e-07
4.84686e-07
4.36072e-07
3.92804e-07
3.54252e-07
3.19866e-07
2.89162e-07
2.61714e-07
2.3715e-07
2.15142e-07
1.954e-07
1.77671e-07
1.61731e-07
1.4738e-07
1.34448e-07
1.17453e-06
1.04706e-06
9.34429e-07
8.34839e-07
7.46703e-07
6.68636e-07
5.99426e-07
5.3801e-07
4.83459e-07
4.34957e-07
3.91789e-07
3.53328e-07
3.19024e-07
2.88394e-07
2.61014e-07
2.3651e-07
2.14556e-07
1.94863e-07
1.77179e-07
1.61277e-07
1.46964e-07
1.34063e-07
1.17425e-06
1.0468e-06
9.34184e-07
8.3461e-07
7.46489e-07
6.68437e-07
5.99239e-07
5.37834e-07
4.83292e-07
4.34799e-07
3.9164e-07
3.53188e-07
3.18893e-07
2.88272e-07
2.609e-07
2.36405e-07
2.14458e-07
1.94773e-07
1.77093e-07
1.61197e-07
1.46888e-07
1.33991e-07
1.1743e-06
1.04684e-06
9.34224e-07
8.34647e-07
7.46523e-07
6.68468e-07
5.99267e-07
5.3786e-07
4.83317e-07
4.34821e-07
3.9166e-07
3.53206e-07
3.18908e-07
2.88286e-07
2.60912e-07
2.36415e-07
2.14467e-07
1.9478e-07
1.771e-07
1.61203e-07
1.46893e-07
1.33996e-07
1.17458e-06
1.0471e-06
9.34471e-07
8.34877e-07
7.46738e-07
6.68669e-07
5.99455e-07
5.38037e-07
4.83483e-07
4.34978e-07
3.91807e-07
3.53344e-07
3.19038e-07
2.88406e-07
2.61025e-07
2.3652e-07
2.14564e-07
1.94871e-07
1.77185e-07
1.61283e-07
1.46969e-07
1.34068e-07
1.17731e-06
1.04956e-06
9.36688e-07
8.36879e-07
7.48548e-07
6.70307e-07
6.0094e-07
5.39385e-07
4.84707e-07
4.36092e-07
3.92821e-07
3.54267e-07
3.19879e-07
2.89173e-07
2.61724e-07
2.37159e-07
2.1515e-07
1.95408e-07
1.77678e-07
1.61737e-07
1.47387e-07
1.34453e-07
1.1819e-06
1.05368e-06
9.4039e-07
8.40211e-07
7.51551e-07
6.73016e-07
6.03388e-07
5.41598e-07
4.86711e-07
4.37907e-07
3.94467e-07
3.55762e-07
3.21238e-07
2.9041e-07
2.62851e-07
2.38188e-07
2.1609e-07
1.96267e-07
1.78465e-07
1.62459e-07
1.48048e-07
1.35062e-07
1.18773e-06
1.05895e-06
9.45158e-07
8.44528e-07
7.55465e-07
6.76569e-07
6.06616e-07
5.44534e-07
4.89384e-07
4.40344e-07
3.96691e-07
3.57793e-07
3.23095e-07
2.9211e-07
2.64409e-07
2.39617e-07
2.17402e-07
1.97473e-07
1.79574e-07
1.63479e-07
1.48988e-07
1.35926e-07
1.19547e-06
1.06594e-06
9.5149e-07
8.50269e-07
7.60675e-07
6.81303e-07
6.10922e-07
5.48455e-07
4.92959e-07
4.43606e-07
3.99672e-07
3.60519e-07
3.25592e-07
2.94398e-07
2.66508e-07
2.41543e-07
2.19173e-07
1.991e-07
1.81072e-07
1.64857e-07
1.50259e-07
1.37099e-07
1.20509e-06
1.07467e-06
9.59413e-07
8.5747e-07
7.67226e-07
6.8727e-07
6.16363e-07
5.53422e-07
4.97498e-07
4.47758e-07
4.03473e-07
3.64004e-07
3.28788e-07
2.97333e-07
2.69205e-07
2.44024e-07
2.21455e-07
2.01203e-07
1.83009e-07
1.66645e-07
1.51907e-07
1.3862e-07
1.21671e-06
1.08523e-06
9.69023e-07
8.66226e-07
7.75214e-07
6.94563e-07
6.2303e-07
5.59522e-07
5.03084e-07
4.52879e-07
4.08173e-07
3.68319e-07
3.32755e-07
3.00981e-07
2.72564e-07
2.47118e-07
2.24307e-07
2.03834e-07
1.85437e-07
1.68887e-07
1.5398e-07
1.40537e-07
1.23037e-06
1.09769e-06
9.80391e-07
8.76611e-07
7.84711e-07
7.03257e-07
6.30996e-07
5.66828e-07
5.09791e-07
4.59041e-07
4.13838e-07
3.73533e-07
3.37555e-07
3.05406e-07
2.76643e-07
2.50883e-07
2.27783e-07
2.07045e-07
1.88405e-07
1.71632e-07
1.5652e-07
1.42888e-07
1.24611e-06
1.11208e-06
9.93558e-07
8.88672e-07
7.95769e-07
7.13405e-07
6.40316e-07
5.75395e-07
5.17673e-07
4.66298e-07
4.20524e-07
3.79697e-07
3.43243e-07
3.10656e-07
2.81494e-07
2.55366e-07
2.31929e-07
2.10882e-07
1.91957e-07
1.74922e-07
1.59568e-07
1.45714e-07
1.26375e-06
1.12826e-06
1.00842e-06
9.02333e-07
8.08333e-07
7.2497e-07
6.50969e-07
5.85216e-07
5.26732e-07
4.74659e-07
4.28247e-07
3.86834e-07
3.49842e-07
3.16762e-07
2.87145e-07
2.606e-07
2.36778e-07
2.15376e-07
1.96125e-07
1.78788e-07
1.63156e-07
1.49045e-07
1.28378e-06
1.14666e-06
1.02535e-06
9.17908e-07
8.22679e-07
7.38193e-07
6.63166e-07
5.96473e-07
5.37128e-07
4.84266e-07
4.37129e-07
3.95051e-07
3.57448e-07
3.23804e-07
2.9367e-07
2.66647e-07
2.42386e-07
2.20578e-07
2.00952e-07
1.83269e-07
1.67317e-07
1.5291e-07
1.30544e-06
1.16665e-06
1.0438e-06
9.34959e-07
8.38442e-07
7.52772e-07
6.76658e-07
6.08964e-07
5.48699e-07
4.94989e-07
4.4707e-07
4.04271e-07
3.66002e-07
3.31744e-07
3.01042e-07
2.73493e-07
2.48746e-07
2.26488e-07
2.06446e-07
1.88377e-07
1.72068e-07
1.57329e-07
1.32885e-06
1.18833e-06
1.06388e-06
9.53567e-07
8.55694e-07
7.68774e-07
6.91505e-07
6.22745e-07
5.61493e-07
5.06872e-07
4.5811e-07
4.14531e-07
3.75539e-07
3.40611e-07
3.09288e-07
2.81164e-07
2.55882e-07
2.33129e-07
2.12627e-07
1.94131e-07
1.77424e-07
1.62317e-07
1.35381e-06
1.21152e-06
1.08544e-06
9.73616e-07
8.7434e-07
7.86118e-07
7.07642e-07
6.37761e-07
5.7547e-07
5.19883e-07
4.70224e-07
4.25811e-07
3.86044e-07
3.50396e-07
3.18403e-07
2.89656e-07
2.63795e-07
2.40502e-07
2.19498e-07
2.00534e-07
1.83393e-07
1.6788e-07
1.35381e-06
1.21153e-06
1.08544e-06
9.73617e-07
8.74341e-07
7.86119e-07
7.07642e-07
6.37762e-07
5.7547e-07
5.19883e-07
4.70224e-07
4.25811e-07
3.86044e-07
3.50396e-07
3.18403e-07
2.89656e-07
2.63795e-07
2.40502e-07
2.19498e-07
2.00534e-07
1.83393e-07
1.6788e-07
1.32885e-06
1.18833e-06
1.06388e-06
9.53571e-07
8.55697e-07
7.68776e-07
6.91507e-07
6.22746e-07
5.61495e-07
5.06873e-07
4.58111e-07
4.14531e-07
3.75539e-07
3.40611e-07
3.09288e-07
2.81164e-07
2.55883e-07
2.33129e-07
2.12627e-07
1.94131e-07
1.77424e-07
1.62317e-07
1.30545e-06
1.16666e-06
1.04381e-06
9.34966e-07
8.38448e-07
7.52777e-07
6.76662e-07
6.08968e-07
5.48701e-07
4.94991e-07
4.47072e-07
4.04272e-07
3.66003e-07
3.31744e-07
3.01042e-07
2.73493e-07
2.48746e-07
2.26488e-07
2.06446e-07
1.88377e-07
1.72067e-07
1.57328e-07
1.28379e-06
1.14668e-06
1.02536e-06
9.17919e-07
8.22688e-07
7.38201e-07
6.63172e-07
5.96478e-07
5.37131e-07
4.84269e-07
4.37131e-07
3.95052e-07
3.57448e-07
3.23805e-07
2.9367e-07
2.66646e-07
2.42385e-07
2.20577e-07
2.00951e-07
1.83268e-07
1.67316e-07
1.52909e-07
1.26377e-06
1.12828e-06
1.00844e-06
9.02346e-07
8.08345e-07
7.2498e-07
6.50978e-07
5.85222e-07
5.26737e-07
4.74663e-07
4.28249e-07
3.86836e-07
3.49843e-07
3.16762e-07
2.87145e-07
2.60598e-07
2.36777e-07
2.15375e-07
1.96123e-07
1.78787e-07
1.63155e-07
1.49044e-07
1.24613e-06
1.11209e-06
9.93575e-07
8.88687e-07
7.95782e-07
7.13416e-07
6.40326e-07
5.75403e-07
5.17679e-07
4.66302e-07
4.20527e-07
3.79699e-07
3.43244e-07
3.10656e-07
2.81493e-07
2.55365e-07
2.31928e-07
2.1088e-07
1.91956e-07
1.7492e-07
1.59567e-07
1.45713e-07
1.23039e-06
1.09771e-06
9.80408e-07
8.76626e-07
7.84724e-07
7.03269e-07
6.31006e-07
5.66836e-07
5.09798e-07
4.59047e-07
4.13842e-07
3.73536e-07
3.37558e-07
3.05407e-07
2.76644e-07
2.50883e-07
2.27782e-07
2.07044e-07
1.88405e-07
1.71632e-07
1.56519e-07
1.42888e-07
1.21672e-06
1.08525e-06
9.69037e-07
8.66238e-07
7.75225e-07
6.94573e-07
6.23039e-07
5.5953e-07
5.03092e-07
4.52886e-07
4.08178e-07
3.68324e-07
3.32759e-07
3.00985e-07
2.72566e-07
2.47119e-07
2.24308e-07
2.03834e-07
1.85437e-07
1.68887e-07
1.53979e-07
1.40536e-07
1.2051e-06
1.07468e-06
9.59421e-07
8.57476e-07
7.67233e-07
6.87276e-07
6.16369e-07
5.53428e-07
4.97504e-07
4.47764e-07
4.03479e-07
3.64009e-07
3.28793e-07
2.97337e-07
2.69208e-07
2.44026e-07
2.21457e-07
2.01204e-07
1.8301e-07
1.66644e-07
1.51907e-07
1.3862e-07
1.19547e-06
1.06595e-06
9.51491e-07
8.5027e-07
7.60676e-07
6.81304e-07
6.10924e-07
5.48458e-07
4.92962e-07
4.4361e-07
3.99676e-07
3.60524e-07
3.25596e-07
2.94403e-07
2.66512e-07
2.41548e-07
2.19175e-07
1.99103e-07
1.81073e-07
1.64859e-07
1.50259e-07
1.37098e-07
1.18773e-06
1.05895e-06
9.45154e-07
8.44525e-07
7.55462e-07
6.76566e-07
6.06614e-07
5.44532e-07
4.89384e-07
4.40344e-07
3.96692e-07
3.57795e-07
3.23099e-07
2.92114e-07
2.64414e-07
2.39621e-07
2.17406e-07
1.97476e-07
1.79577e-07
1.6348e-07
1.48989e-07
1.35927e-07
1.18189e-06
1.05367e-06
9.40382e-07
8.40204e-07
7.51544e-07
6.73011e-07
6.03383e-07
5.41594e-07
4.86707e-07
4.37904e-07
3.94465e-07
3.55761e-07
3.21238e-07
2.90411e-07
2.62853e-07
2.3819e-07
2.16092e-07
1.9627e-07
1.78467e-07
1.62459e-07
1.48049e-07
1.3506e-07
1.1773e-06
1.04955e-06
9.36674e-07
8.36866e-07
7.48537e-07
6.70298e-07
6.00933e-07
5.39378e-07
4.84702e-07
4.36086e-07
3.92816e-07
3.54263e-07
3.19875e-07
2.8917e-07
2.61722e-07
2.37159e-07
2.1515e-07
1.95408e-07
1.77678e-07
1.61737e-07
1.47386e-07
1.34453e-07
1.17455e-06
1.04707e-06
9.34445e-07
8.34855e-07
7.46719e-07
6.68652e-07
5.99442e-07
5.38026e-07
4.83474e-07
4.3497e-07
3.918e-07
3.53337e-07
3.19032e-07
2.884e-07
2.61018e-07
2.36514e-07
2.1456e-07
1.94867e-07
1.77182e-07
1.61281e-07
1.46967e-07
1.34067e-07
1.17426e-06
1.0468e-06
9.34188e-07
8.34614e-07
7.46494e-07
6.68442e-07
5.99245e-07
5.37841e-07
4.83301e-07
4.34809e-07
3.91649e-07
3.53196e-07
3.18899e-07
2.88276e-07
2.60903e-07
2.36406e-07
2.14459e-07
1.94773e-07
1.77094e-07
1.61199e-07
1.46891e-07
1.33995e-07
1.17105e-06
1.17121e-06
1.17379e-06
1.17805e-06
1.18328e-06
1.19009e-06
1.19845e-06
1.20839e-06
1.21982e-06
1.23262e-06
1.24659e-06
1.26219e-06
1.27862e-06
1.29594e-06
1.31392e-06
1.24229e-06
1.21919e-06
1.19721e-06
1.17651e-06
1.15721e-06
1.1391e-06
1.12302e-06
1.10835e-06
1.0953e-06
1.08388e-06
1.07406e-06
1.06579e-06
1.05901e-06
1.05371e-06
1.04957e-06
1.03802e-06
1.03816e-06
1.04044e-06
1.04422e-06
1.04889e-06
1.05499e-06
1.06251e-06
1.07151e-06
1.0819e-06
1.0936e-06
1.10644e-06
1.12082e-06
1.13611e-06
1.15232e-06
1.16928e-06
1.10817e-06
1.08705e-06
1.067e-06
1.04816e-06
1.03064e-06
1.01425e-06
9.99703e-07
9.86472e-07
9.74729e-07
9.64465e-07
9.55654e-07
9.48247e-07
9.42178e-07
9.37438e-07
9.33715e-07
9.20986e-07
9.21109e-07
9.23133e-07
9.26485e-07
9.30666e-07
9.36132e-07
9.42903e-07
9.51047e-07
9.60515e-07
9.7122e-07
9.83024e-07
9.96301e-07
1.01052e-06
1.0257e-06
1.04169e-06
9.8966e-07
9.70322e-07
9.52018e-07
9.34853e-07
9.18923e-07
9.04075e-07
8.90902e-07
8.78951e-07
8.68366e-07
8.5913e-07
8.51216e-07
8.44573e-07
8.39137e-07
8.34892e-07
8.31544e-07
8.17949e-07
8.18057e-07
8.19857e-07
8.22838e-07
8.26585e-07
8.31492e-07
8.3759e-07
8.44968e-07
8.53602e-07
8.63414e-07
8.74281e-07
8.8654e-07
8.99762e-07
9.13973e-07
9.29033e-07
8.8485e-07
8.67129e-07
8.50397e-07
8.34742e-07
8.20243e-07
8.06772e-07
7.94828e-07
7.84019e-07
7.74465e-07
7.66144e-07
7.59026e-07
7.53061e-07
7.48187e-07
7.44381e-07
7.41367e-07
7.27176e-07
7.27272e-07
7.28875e-07
7.3153e-07
7.34894e-07
7.39307e-07
7.44804e-07
7.51489e-07
7.59369e-07
7.68375e-07
7.78393e-07
7.89718e-07
8.02014e-07
8.15314e-07
8.29489e-07
7.92074e-07
7.75817e-07
7.60507e-07
7.46212e-07
7.33e-07
7.20763e-07
7.09919e-07
7.00132e-07
6.91498e-07
6.83991e-07
6.77582e-07
6.72218e-07
6.67841e-07
6.64425e-07
6.6171e-07
6.47149e-07
6.47236e-07
6.48666e-07
6.51033e-07
6.54059e-07
6.58036e-07
6.62999e-07
6.69056e-07
6.76251e-07
6.84527e-07
6.93773e-07
7.04242e-07
7.15677e-07
7.28121e-07
7.41456e-07
7.09873e-07
6.94942e-07
6.80919e-07
6.67854e-07
6.558e-07
6.4467e-07
6.34814e-07
6.2594e-07
6.18127e-07
6.11346e-07
6.05566e-07
6.00739e-07
5.96804e-07
5.93733e-07
5.91286e-07
5.76544e-07
5.76624e-07
5.779e-07
5.80013e-07
5.82739e-07
5.86331e-07
5.9082e-07
5.96313e-07
6.0288e-07
6.1049e-07
6.19036e-07
6.28724e-07
6.39355e-07
6.50992e-07
6.63533e-07
6.36972e-07
6.23246e-07
6.10386e-07
5.98433e-07
5.87424e-07
5.77289e-07
5.68318e-07
5.60263e-07
5.53184e-07
5.47052e-07
5.41834e-07
5.37482e-07
5.3394e-07
5.31176e-07
5.2897e-07
5.14203e-07
5.14277e-07
5.15418e-07
5.17307e-07
5.19765e-07
5.23014e-07
5.27085e-07
5.32073e-07
5.38064e-07
5.45063e-07
5.52971e-07
5.61945e-07
5.7183e-07
5.82707e-07
5.94495e-07
5.72255e-07
5.59623e-07
5.47817e-07
5.3687e-07
5.26806e-07
5.17565e-07
5.09391e-07
5.0207e-07
4.95648e-07
4.90096e-07
4.85378e-07
4.8145e-07
4.78258e-07
4.75767e-07
4.73776e-07
4.59113e-07
4.59183e-07
4.60205e-07
4.61894e-07
4.64114e-07
4.67058e-07
4.70758e-07
4.75294e-07
4.80762e-07
4.87196e-07
4.94518e-07
5.02841e-07
5.12036e-07
5.22196e-07
5.33268e-07
5.14745e-07
5.0311e-07
4.92257e-07
4.8222e-07
4.73012e-07
4.64577e-07
4.5712e-07
4.50458e-07
4.44625e-07
4.39591e-07
4.35321e-07
4.31771e-07
4.2889e-07
4.26643e-07
4.24845e-07
4.1039e-07
4.10457e-07
4.11374e-07
4.12887e-07
4.14892e-07
4.17564e-07
4.20933e-07
4.25068e-07
4.3006e-07
4.35972e-07
4.42753e-07
4.5048e-07
4.59038e-07
4.68524e-07
4.78916e-07
4.63581e-07
4.52858e-07
4.42872e-07
4.33658e-07
4.25225e-07
4.17519e-07
4.10707e-07
4.04638e-07
3.99333e-07
3.94764e-07
3.90893e-07
3.87681e-07
3.85078e-07
3.83048e-07
3.81423e-07
3.67261e-07
3.67325e-07
3.6815e-07
3.69506e-07
3.7132e-07
3.73746e-07
3.76819e-07
3.80598e-07
3.85162e-07
3.9059e-07
3.96866e-07
4.04046e-07
4.1202e-07
4.20874e-07
4.30618e-07
4.18012e-07
4.08126e-07
3.98929e-07
3.90461e-07
3.82729e-07
3.75682e-07
3.69454e-07
3.63918e-07
3.59087e-07
3.54934e-07
3.51423e-07
3.48512e-07
3.46157e-07
3.44321e-07
3.42852e-07
3.29049e-07
3.29109e-07
3.29854e-07
3.31072e-07
3.32713e-07
3.34918e-07
3.37724e-07
3.41185e-07
3.45365e-07
3.50349e-07
3.56153e-07
3.62827e-07
3.70262e-07
3.7853e-07
3.87657e-07
3.77381e-07
3.6826e-07
3.59786e-07
3.51996e-07
3.44899e-07
3.38448e-07
3.32748e-07
3.27692e-07
3.23289e-07
3.19509e-07
3.16318e-07
3.13679e-07
3.11545e-07
3.09883e-07
3.08553e-07
2.95163e-07
2.95219e-07
2.95891e-07
2.96987e-07
2.98474e-07
3.0048e-07
3.03045e-07
3.06218e-07
3.10056e-07
3.14635e-07
3.19997e-07
3.26198e-07
3.33136e-07
3.4086e-07
3.49405e-07
3.41111e-07
3.32692e-07
3.2488e-07
3.17707e-07
3.11186e-07
3.05274e-07
3.00052e-07
2.9543e-07
2.91411e-07
2.87967e-07
2.85065e-07
2.82668e-07
2.80733e-07
2.79226e-07
2.78021e-07
2.65083e-07
2.65134e-07
2.65741e-07
2.6673e-07
2.6808e-07
2.69906e-07
2.72251e-07
2.75165e-07
2.78695e-07
2.82909e-07
2.87859e-07
2.93614e-07
3.00092e-07
3.07313e-07
3.15311e-07
3.08699e-07
3.00919e-07
2.93715e-07
2.87108e-07
2.8111e-07
2.75686e-07
2.70896e-07
2.66667e-07
2.62994e-07
2.59853e-07
2.5721e-07
2.5503e-07
2.53273e-07
2.51905e-07
2.50813e-07
2.38356e-07
2.38403e-07
2.38951e-07
2.39844e-07
2.41072e-07
2.42735e-07
2.44881e-07
2.47558e-07
2.50811e-07
2.54696e-07
2.59266e-07
2.64602e-07
2.70646e-07
2.77402e-07
2.84889e-07
2.79702e-07
2.72505e-07
2.65857e-07
2.59769e-07
2.54247e-07
2.49265e-07
2.44868e-07
2.40993e-07
2.37634e-07
2.34765e-07
2.32355e-07
2.30371e-07
2.28773e-07
2.2753e-07
2.2654e-07
2.14583e-07
2.14626e-07
2.15121e-07
2.15928e-07
2.17047e-07
2.18564e-07
2.20529e-07
2.22989e-07
2.25989e-07
2.29578e-07
2.33801e-07
2.38743e-07
2.44378e-07
2.507e-07
2.57712e-07
2.5373e-07
2.47066e-07
2.40927e-07
2.35315e-07