/*--------------------------------*- C++ -*----------------------------------*\
| =========                 |                                                 |
| \\      /  F ield         | OpenFOAM Extend Project: Open source CFD        |
|  \\    /   O peration     | Version:  1.6-ext                               |
|   \\  /    A nd           | Web:      www.extend-project.de                 |
|    \\/     M anipulation  |                                                 |
\*---------------------------------------------------------------------------*/
FoamFile
{
    version     2.0;
    format      ascii;
    class       volVectorField;
    location    "0.9";
    object      U;
}
// * * * * * * * * * * * * * * * * * * * * * * * * * * * * * * * * * * * * * //

dimensions      [0 1 -1 0 0 0 0];

internalField   nonuniform List<vector> 
72
(
(-0.002334 0.0018679 0)
(-0.00208069 -0.000437337 0)
(0.00468426 -0.00223855 0)
(0.0136715 -0.00297522 0)
(0.0232027 -0.00303043 0)
(0.0320552 -0.00270331 0)
(0.0395352 -0.00220444 0)
(0.0454659 -0.00171085 0)
(0.0505484 -0.00151448 0)
(-0.00180383 0.00261377 0)
(0.00303116 -0.00714965 0)
(0.0187719 -0.0141056 0)
(0.0376528 -0.0167259 0)
(0.0569144 -0.0164578 0)
(0.0745384 -0.0145491 0)
(0.089332 -0.0118365 0)
(0.100831 -0.00890292 0)
(0.110173 -0.00661674 0)
(-0.00239428 0.00136098 0)
(0.00340754 -0.019941 0)
(0.0233619 -0.0345854 0)
(0.0473857 -0.0398034 0)
(0.0716921 -0.0386275 0)
(0.0935959 -0.0338926 0)
(0.111732 -0.0274568 0)
(0.125641 -0.0204383 0)
(0.136892 -0.0141528 0)
(-0.00498556 0.00166997 0)
(-0.00103075 -0.0331994 0)
(0.0223474 -0.0579266 0)
(0.0511118 -0.0664363 0)
(0.0798225 -0.0638446 0)
(0.104888 -0.0553996 0)
(0.124974 -0.0444817 0)
(0.139989 -0.0328749 0)
(0.151966 -0.0221816 0)
(-0.00799281 0.00854287 0)
(-0.00637185 -0.0466135 0)
(0.0215976 -0.0857822 0)
(0.056395 -0.0982509 0)
(0.0901658 -0.0929609 0)
(0.118272 -0.0791822 0)
(0.139664 -0.0626021 0)
(0.155022 -0.0458048 0)
(0.166927 -0.0303468 0)
(-0.0116812 0.0139247 0)
(-0.00761663 -0.064925 0)
(0.0309345 -0.121527 0)
(0.0718839 -0.137036 0)
(0.109373 -0.126385 0)
(0.138908 -0.104833 0)
(0.160026 -0.0811035 0)
(0.174437 -0.0585624 0)
(0.185165 -0.0381549 0)
(0.00703751 0.0365264 0)
(0.0280993 -0.0853025 0)
(0.0734977 -0.163865 0)
(0.11314 -0.18033 0)
(0.146548 -0.161145 0)
(0.171544 -0.129622 0)
(0.188316 -0.0978377 0)
(0.199192 -0.0696455 0)
(0.206898 -0.0446972 0)
(0.0649689 -0.0290233 0)
(0.109519 -0.146318 0)
(0.165443 -0.212541 0)
(0.193465 -0.217548 0)
(0.209562 -0.186965 0)
(0.219549 -0.14622 0)
(0.225282 -0.108181 0)
(0.228823 -0.0763037 0)
(0.23111 -0.0485428 0)
)
;

boundaryField
{
    inlet
    {
        type            fixedValue;
        value           nonuniform 0();
    }
    outlet
    {
        type            zeroGradient;
    }
    fixedWalls
    {
        type            fixedValue;
        value           uniform (0 0 0);
    }
    frontAndBack
    {
        type            empty;
    }
    procBoundary0to1
    {
        type            processor;
        value           nonuniform List<vector> 9((0.294391 -0.107553 0) (0.328513 -0.192883 0) (0.328176 -0.230473 0) (0.310458 -0.220781 0) (0.29172 -0.184806 0) (0.276841 -0.143105 0) (0.266357 -0.105732 0) (0.260042 -0.0750882 0) (0.255459 -0.0480535 0));
    }
}


// ************************************************************************* //
