/*--------------------------------*- C++ -*----------------------------------*\
| =========                 |                                                 |
| \\      /  F ield         | OpenFOAM Extend Project: Open source CFD        |
|  \\    /   O peration     | Version:  1.6-ext                               |
|   \\  /    A nd           | Web:      www.extend-project.de                 |
|    \\/     M anipulation  |                                                 |
\*---------------------------------------------------------------------------*/
FoamFile
{
    version     2.0;
    format      ascii;
    class       surfaceScalarField;
    location    "2.5";
    object      phi;
}
// * * * * * * * * * * * * * * * * * * * * * * * * * * * * * * * * * * * * * //

dimensions      [0 3 -1 0 0 0 0];

internalField   nonuniform List<scalar> 
127
(
-5.18892e-06
5.18892e-06
-1.35293e-05
8.34042e-06
-1.96086e-05
6.07922e-06
-2.1185e-05
1.57642e-06
-1.80057e-05
-3.17931e-06
-1.1027e-05
-6.97868e-06
-1.79501e-06
-9.23198e-06
8.74101e-06
-1.0536e-05
-1.08124e-05
-9.24967e-06
1.44386e-05
-2.16949e-05
2.07856e-05
-2.895e-05
1.33344e-05
-2.78149e-05
4.41268e-07
-1.81704e-05
-1.28238e-05
-2.19263e-06
-2.29565e-05
1.68609e-05
-2.82855e-05
3.61727e-05
-2.98477e-05
-2.88111e-05
-1.10146e-05
2.54532e-05
-2.47652e-05
3.45362e-05
-3.14616e-05
2.00308e-05
-2.72439e-05
-3.77643e-06
-1.26465e-05
-2.74212e-05
9.42288e-06
-4.50258e-05
3.5135e-05
-5.39977e-05
6.05468e-05
-5.52595e-05
-5.13819e-05
-1.25556e-05
3.80088e-05
-2.68947e-05
4.88752e-05
-3.24753e-05
2.56114e-05
-2.54882e-05
-1.07635e-05
-6.72063e-06
-4.61887e-05
2.01461e-05
-7.18925e-05
5.08248e-05
-8.46764e-05
8.09677e-05
-8.54024e-05
-7.7198e-05
-1.31493e-05
5.11581e-05
-2.51913e-05
6.09172e-05
-2.6962e-05
2.73821e-05
-1.56032e-05
-2.21223e-05
7.3394e-06
-6.91314e-05
3.80176e-05
-0.000102571
7.18884e-05
-0.000118547
0.000104713
-0.000118227
-0.000104347
-9.70991e-06
6.0868e-05
-1.20342e-05
6.32415e-05
-3.71035e-06
1.90583e-05
1.52977e-05
-4.11303e-05
4.2685e-05
-9.65186e-05
7.52038e-05
-0.00013509
0.000108848
-0.000152191
0.000140505
-0.000149884
-0.000129543
4.63508e-06
5.62329e-05
2.36088e-05
4.42678e-05
5.0451e-05
-7.78393e-06
7.99206e-05
-7.06e-05
0.000110735
-0.000127333
0.000141154
-0.000165508
0.000169186
-0.000180224
0.000193961
-0.00017466
-0.000148014
4.72237e-05
9.97192e-05
0.00014594
0.000184031
0.00021366
0.000235996
0.000251991
0.000263631
)
;

boundaryField
{
    inlet
    {
        type            calculated;
        value           nonuniform 0();
    }
    outlet
    {
        type            calculated;
        value           nonuniform List<scalar> 8(1.95534e-05 5.41713e-05 8.31176e-05 0.000106784 0.000131862 0.000165701 0.000212433 0.000270187);
    }
    fixedWalls
    {
        type            calculated;
        value           uniform 0;
    }
    frontAndBack
    {
        type            empty;
    }
    procBoundary0to1
    {
        type            processor;
        value           nonuniform List<scalar> 9(9.00927e-06 -8.2277e-06 -5.40047e-05 -0.000108691 -0.000156962 -0.000187844 -0.000196218 -0.000186301 -0.00015457);
    }
}


// ************************************************************************* //
