/*--------------------------------*- C++ -*----------------------------------*\
| =========                 |                                                 |
| \\      /  F ield         | OpenFOAM Extend Project: Open source CFD        |
|  \\    /   O peration     | Version:  1.6-ext                               |
|   \\  /    A nd           | Web:      www.extend-project.de                 |
|    \\/     M anipulation  |                                                 |
\*---------------------------------------------------------------------------*/
FoamFile
{
    version     2.0;
    format      ascii;
    class       volVectorField;
    location    "2.5";
    object      U;
}
// * * * * * * * * * * * * * * * * * * * * * * * * * * * * * * * * * * * * * //

dimensions      [0 1 -1 0 0 0 0];

internalField   nonuniform List<vector> 
72
(
(-0.00202346 0.00202456 0)
(-0.00912108 0.00363096 0)
(-0.0174281 0.00297913 0)
(-0.0214029 0.00136801 0)
(-0.0204446 -0.000451094 0)
(-0.0150695 -0.0019882 0)
(-0.00635886 -0.00301927 0)
(0.00234389 -0.0038856 0)
(0.0173713 -0.00431076 0)
(-0.00394614 0.00906974 0)
(-0.0155682 0.0138856 0)
(-0.0272049 0.00975453 0)
(-0.0304312 0.00189157 0)
(-0.0246322 -0.00622414 0)
(-0.0112186 -0.0126458 0)
(0.0070405 -0.0162555 0)
(0.0254775 -0.0179416 0)
(0.0508647 -0.0180175 0)
(-0.00486549 0.0196516 0)
(-0.0183185 0.0274735 0)
(-0.0306312 0.0169578 0)
(-0.0319805 -0.000957709 0)
(-0.0220298 -0.0188613 0)
(-0.00270638 -0.0324609 0)
(0.0221162 -0.0395378 0)
(0.0468938 -0.041066 0)
(0.0790923 -0.0389351 0)
(-0.00578678 0.0316032 0)
(-0.0205829 0.0418132 0)
(-0.0327223 0.0233435 0)
(-0.0320018 -0.00639141 0)
(-0.01848 -0.035665 0)
(0.0055369 -0.0572387 0)
(0.0354264 -0.0681568 0)
(0.0650623 -0.0692697 0)
(0.102257 -0.0635446 0)
(-0.00655528 0.0447379 0)
(-0.0208952 0.0557847 0)
(-0.0295434 0.0278028 0)
(-0.0243957 -0.0152895 0)
(-0.00629441 -0.056882 0)
(0.0218466 -0.0867255 0)
(0.0551315 -0.101273 0)
(0.0877966 -0.101528 0)
(0.127059 -0.0907172 0)
(-0.00575347 0.0568801 0)
(-0.0139576 0.0646056 0)
(-0.0110947 0.0257933 0)
(0.00345504 -0.0301677 0)
(0.0279733 -0.0827159 0)
(0.05913 -0.119591 0)
(0.0926981 -0.136523 0)
(0.124792 -0.135167 0)
(0.160938 -0.118067 0)
(0.0010318 0.0687551 0)
(0.00934601 0.0628602 0)
(0.0355844 0.0118018 0)
(0.0651343 -0.0537037 0)
(0.096474 -0.112537 0)
(0.127662 -0.152506 0)
(0.156496 -0.169089 0)
(0.182462 -0.165126 0)
(0.208183 -0.141315 0)
(0.0340898 0.0342241 0)
(0.0678871 0.0218578 0)
(0.123942 -0.0291309 0)
(0.168029 -0.090828 0)
(0.202457 -0.145116 0)
(0.228174 -0.180623 0)
(0.24568 -0.192575 0)
(0.259336 -0.184805 0)
(0.267074 -0.154973 0)
)
;

boundaryField
{
    inlet
    {
        type            fixedValue;
        value           nonuniform 0();
    }
    outlet
    {
        type            zeroGradient;
    }
    fixedWalls
    {
        type            fixedValue;
        value           uniform (0 0 0);
    }
    frontAndBack
    {
        type            empty;
    }
    procBoundary0to1
    {
        type            processor;
        value           nonuniform List<vector> 9((0.205775 -0.0141636 0) (0.237901 -0.0403512 0) (0.281132 -0.0818975 0) (0.316525 -0.129273 0) (0.338292 -0.170399 0) (0.347774 -0.195534 0) (0.346231 -0.199813 0) (0.342588 -0.187677 0) (0.327694 -0.154334 0));
    }
}


// ************************************************************************* //
