/*--------------------------------*- C++ -*----------------------------------*\
| =========                 |                                                 |
| \\      /  F ield         | OpenFOAM Extend Project: Open source CFD        |
|  \\    /   O peration     | Version:  1.6-ext                               |
|   \\  /    A nd           | Web:      www.extend-project.de                 |
|    \\/     M anipulation  |                                                 |
\*---------------------------------------------------------------------------*/
FoamFile
{
    version     2.0;
    format      ascii;
    class       vectorField;
    location    "1.1";
    object      accumulatedFluidInterfaceDisplacement;
}
// * * * * * * * * * * * * * * * * * * * * * * * * * * * * * * * * * * * * * //


338
(
(-3.60884e-07 -1.50233e-07 1.264e-26)
(-6.8472e-07 -2.86368e-07 1.05496e-26)
(-2.57755e-06 -8.98046e-06 1.24458e-26)
(-2.61326e-06 -8.87494e-06 7.96419e-27)
(-2.61473e-06 -8.73308e-06 -4.37161e-27)
(-2.61396e-06 -8.58936e-06 7.59211e-27)
(-2.61091e-06 -8.44512e-06 -1.16502e-26)
(-2.6058e-06 -8.30119e-06 -2.97436e-26)
(-2.59893e-06 -8.15806e-06 3.06589e-27)
(-2.59056e-06 -8.01593e-06 1.36759e-26)
(-2.58092e-06 -7.87486e-06 -3.06806e-26)
(-2.57018e-06 -7.73476e-06 -2.37671e-26)
(-2.55847e-06 -7.59548e-06 3.23458e-26)
(-2.54588e-06 -7.45684e-06 5.48911e-26)
(-2.53247e-06 -7.31861e-06 4.62043e-26)
(-2.51827e-06 -7.18057e-06 1.0874e-26)
(-2.50332e-06 -7.04249e-06 -1.7294e-26)
(-2.48761e-06 -6.90416e-06 -1.16034e-26)
(-2.47115e-06 -6.76534e-06 -1.10797e-26)
(-2.45394e-06 -6.62585e-06 -5.00058e-26)
(-2.43598e-06 -6.48549e-06 -4.61519e-26)
(-2.41725e-06 -6.34408e-06 5.74721e-27)
(-2.39773e-06 -6.20144e-06 1.90771e-26)
(-2.37742e-06 -6.05743e-06 7.60024e-27)
(-2.35629e-06 -5.91192e-06 -2.65459e-27)
(-2.33432e-06 -5.76477e-06 1.37075e-26)
(-2.31148e-06 -5.6159e-06 1.81387e-26)
(-2.28773e-06 -5.46524e-06 3.13764e-27)
(-2.26305e-06 -5.31272e-06 -8.39083e-27)
(-2.23741e-06 -5.15832e-06 -2.13876e-27)
(-2.21076e-06 -5.00205e-06 -9.35571e-27)
(-2.18306e-06 -4.84393e-06 -6.53394e-27)
(-2.15428e-06 -4.68402e-06 1.15882e-27)
(-2.12437e-06 -4.52241e-06 -1.17565e-27)
(-2.09329e-06 -4.3592e-06 7.56154e-27)
(-2.06101e-06 -4.19456e-06 1.11569e-26)
(-2.02748e-06 -4.02864e-06 3.90779e-27)
(-1.99267e-06 -3.86166e-06 -1.70619e-27)
(-1.95654e-06 -3.69384e-06 3.99301e-27)
(-1.91907e-06 -3.52544e-06 4.48843e-27)
(-1.88022e-06 -3.35674e-06 8.51504e-28)
(-1.83997e-06 -3.18804e-06 -3.37159e-27)
(-1.79831e-06 -3.01967e-06 -7.8778e-27)
(-1.75522e-06 -2.85196e-06 -6.91118e-27)
(-1.7107e-06 -2.68527e-06 -9.49247e-27)
(-1.66473e-06 -2.51996e-06 -4.04666e-27)
(-1.61733e-06 -2.35642e-06 4.29059e-27)
(-1.56851e-06 -2.19502e-06 -1.88817e-27)
(-1.51828e-06 -2.03614e-06 -2.88245e-27)
(-1.46666e-06 -1.88018e-06 3.64061e-27)
(-1.41368e-06 -1.72752e-06 1.01001e-27)
(-1.35937e-06 -1.57854e-06 -1.24556e-27)
(-1.30375e-06 -1.43361e-06 1.36558e-27)
(-1.24687e-06 -1.2931e-06 7.98528e-27)
(-1.18877e-06 -1.15736e-06 4.87627e-27)
(-1.12948e-06 -1.02674e-06 -1.33998e-27)
(-1.06903e-06 -9.01577e-07 5.49014e-27)
(-1.00745e-06 -7.82191e-07 -1.65835e-27)
(-9.44752e-07 -6.68909e-07 -7.0783e-27)
(-8.80944e-07 -5.62059e-07 3.95856e-27)
(-8.16002e-07 -4.61984e-07 -3.71882e-27)
(-7.49876e-07 -3.69058e-07 -2.07869e-27)
(-2.34176e-06 -9.0174e-06 -2.28586e-27)
(-2.47586e-06 -9.01663e-06 -8.47459e-27)
(-2.10318e-06 -8.97841e-06 1.05525e-26)
(-2.20669e-06 -9.01599e-06 1.61768e-27)
(-3.95221e-07 -2.3352e-07 1.25115e-27)
(-4.31323e-07 -3.27125e-07 -2.70169e-27)
(-4.67926e-07 -4.27945e-07 -5.01655e-28)
(-5.04928e-07 -5.35604e-07 3.68124e-27)
(-5.42259e-07 -6.49761e-07 1.30163e-26)
(-5.79868e-07 -7.70089e-07 1.95393e-27)
(-6.17721e-07 -8.96264e-07 -5.00025e-27)
(-6.55796e-07 -1.02796e-06 2.94915e-27)
(-6.94078e-07 -1.16484e-06 -2.7249e-27)
(-7.32558e-07 -1.30656e-06 1.05582e-27)
(-7.71227e-07 -1.45276e-06 1.01492e-26)
(-8.10074e-07 -1.60309e-06 5.34092e-27)
(-8.4909e-07 -1.75716e-06 2.28474e-27)
(-8.8826e-07 -1.91459e-06 -3.41005e-28)
(-9.27568e-07 -2.07501e-06 -4.96249e-27)
(-9.66993e-07 -2.23802e-06 -4.28088e-27)
(-1.00651e-06 -2.40324e-06 -8.11493e-27)
(-1.04608e-06 -2.57029e-06 -8.51737e-27)
(-1.08568e-06 -2.73879e-06 -1.54473e-27)
(-1.12527e-06 -2.90837e-06 3.09387e-27)
(-1.16479e-06 -3.07867e-06 -2.80032e-27)
(-1.20421e-06 -3.24937e-06 -4.60344e-27)
(-1.24345e-06 -3.42012e-06 -7.16967e-27)
(-1.28248e-06 -3.59064e-06 -6.44246e-27)
(-1.32121e-06 -3.76063e-06 -1.93076e-27)
(-1.3596e-06 -3.92984e-06 -4.52427e-27)
(-1.39756e-06 -4.09804e-06 -4.33166e-27)
(-1.43503e-06 -4.26503e-06 -1.3302e-27)
(-1.47194e-06 -4.43063e-06 -6.03336e-27)
(-1.50821e-06 -4.59469e-06 -5.2097e-27)
(-1.54378e-06 -4.75709e-06 -5.93724e-27)
(-1.57856e-06 -4.91775e-06 -7.99288e-27)
(-1.61249e-06 -5.0766e-06 -5.86217e-27)
(-1.6455e-06 -5.23363e-06 -4.24344e-27)
(-1.67752e-06 -5.38882e-06 6.86041e-27)
(-1.7085e-06 -5.54219e-06 9.98853e-27)
(-1.73836e-06 -5.69381e-06 9.04752e-28)
(-1.76704e-06 -5.84374e-06 7.15583e-27)
(-1.79451e-06 -5.99207e-06 -5.61541e-27)
(-1.8207e-06 -6.13893e-06 -1.8485e-27)
(-1.84558e-06 -6.28445e-06 1.17859e-26)
(-1.8691e-06 -6.42877e-06 -1.27126e-26)
(-1.89122e-06 -6.57206e-06 3.16019e-27)
(-1.91191e-06 -6.71451e-06 3.08472e-26)
(-1.93115e-06 -6.8563e-06 4.71644e-26)
(-1.94891e-06 -6.99764e-06 4.14662e-26)
(-1.96518e-06 -7.13874e-06 3.71381e-26)
(-1.97995e-06 -7.27982e-06 2.33526e-26)
(-1.99323e-06 -7.4211e-06 1.12412e-26)
(-2.00504e-06 -7.56281e-06 9.96578e-27)
(-2.01544e-06 -7.70517e-06 2.97471e-26)
(-2.02449e-06 -7.84836e-06 1.36658e-26)
(-2.03232e-06 -7.99254e-06 -1.01561e-26)
(-2.0391e-06 -8.13778e-06 -3.40467e-27)
(-2.04504e-06 -8.28403e-06 -3.94506e-26)
(-2.05043e-06 -8.43109e-06 4.30806e-27)
(-2.05552e-06 -8.57847e-06 1.10111e-26)
(-2.06063e-06 -8.72537e-06 -1.87116e-26)
(-2.06555e-06 -8.87034e-06 7.63292e-27)
(-8.22732e-08 3.80054e-08 2.82482e-26)
(-7.99935e-08 5.22423e-08 -1.06272e-27)
(-7.68571e-08 7.85215e-08 2.7241e-26)
(-7.68353e-08 1.00383e-07 2.47791e-26)
(-7.99564e-08 1.18423e-07 -3.18144e-26)
(-8.55157e-08 1.3351e-07 -4.20308e-26)
(-9.27742e-08 1.46101e-07 -4.37965e-27)
(-1.01255e-07 1.5648e-07 2.81457e-26)
(-1.10649e-07 1.64716e-07 2.51752e-26)
(-1.20794e-07 1.70736e-07 -2.1281e-28)
(-1.3163e-07 1.74343e-07 -2.78026e-26)
(-1.43174e-07 1.75239e-07 1.58542e-26)
(-1.55501e-07 1.73044e-07 1.21487e-26)
(-1.68731e-07 1.67305e-07 -6.08146e-27)
(-1.83025e-07 1.57505e-07 -8.41988e-27)
(-1.98568e-07 1.43068e-07 -2.69706e-27)
(-2.15569e-07 1.23362e-07 1.31649e-26)
(-2.34246e-07 9.76995e-08 3.70064e-27)
(-2.54821e-07 6.53321e-08 1.64032e-27)
(-2.77513e-07 2.54438e-08 4.90335e-27)
(-3.02528e-07 -2.28635e-08 -6.38978e-27)
(-3.30059e-07 -8.0586e-08 4.75453e-28)
(-3.36348e-09 -8.66943e-09 8.99719e-27)
(-6.23898e-07 -2.17219e-07 1.30577e-27)
(-5.67249e-07 -1.59913e-07 -6.12454e-27)
(-5.13487e-07 -1.11968e-07 1.59177e-28)
(-4.62499e-07 -7.24037e-08 1.77287e-27)
(-4.14199e-07 -4.03368e-08 1.06034e-27)
(-3.68528e-07 -1.4966e-08 7.10709e-27)
(-3.25448e-07 4.44633e-09 5.02215e-27)
(-2.84942e-07 1.85867e-08 -1.74161e-29)
(-2.47011e-07 2.81013e-08 4.23804e-27)
(-2.11663e-07 3.36047e-08 -1.16781e-26)
(-1.78917e-07 3.56865e-08 -1.29683e-26)
(-1.48795e-07 3.49175e-08 1.24563e-26)
(-1.21323e-07 3.18542e-08 4.85484e-27)
(-9.65328e-08 2.70442e-08 -1.55071e-26)
(-7.44653e-08 2.10292e-08 -1.00614e-26)
(-5.51764e-08 1.43565e-08 1.56284e-26)
(-3.87581e-08 7.5767e-09 -4.84903e-27)
(-2.53332e-08 1.28096e-09 -3.98801e-27)
(-1.51132e-08 -3.94897e-09 2.81852e-26)
(-8.21496e-09 -7.38098e-09 -1.67936e-26)
(-4.47586e-09 -8.6e-09 -2.57278e-26)
(-3.60884e-07 -1.50233e-07 1.264e-26)
(-6.8472e-07 -2.86368e-07 1.05496e-26)
(-2.57755e-06 -8.98046e-06 1.24458e-26)
(-2.61326e-06 -8.87494e-06 7.96419e-27)
(-2.61473e-06 -8.73308e-06 -4.37161e-27)
(-2.61396e-06 -8.58936e-06 7.59211e-27)
(-2.61091e-06 -8.44512e-06 -1.16502e-26)
(-2.6058e-06 -8.30119e-06 -2.97436e-26)
(-2.59893e-06 -8.15806e-06 3.06589e-27)
(-2.59056e-06 -8.01593e-06 1.36759e-26)
(-2.58092e-06 -7.87486e-06 -3.06806e-26)
(-2.57018e-06 -7.73476e-06 -2.37671e-26)
(-2.55847e-06 -7.59548e-06 3.23458e-26)
(-2.54588e-06 -7.45684e-06 5.48911e-26)
(-2.53247e-06 -7.31861e-06 4.62043e-26)
(-2.51827e-06 -7.18057e-06 1.0874e-26)
(-2.50332e-06 -7.04249e-06 -1.7294e-26)
(-2.48761e-06 -6.90416e-06 -1.16034e-26)
(-2.47115e-06 -6.76534e-06 -1.10797e-26)
(-2.45394e-06 -6.62585e-06 -5.00058e-26)
(-2.43598e-06 -6.48549e-06 -4.61519e-26)
(-2.41725e-06 -6.34408e-06 5.74721e-27)
(-2.39773e-06 -6.20144e-06 1.90771e-26)
(-2.37742e-06 -6.05743e-06 7.60024e-27)
(-2.35629e-06 -5.91192e-06 -2.65459e-27)
(-2.33432e-06 -5.76477e-06 1.37075e-26)
(-2.31148e-06 -5.6159e-06 1.81387e-26)
(-2.28773e-06 -5.46524e-06 3.13764e-27)
(-2.26305e-06 -5.31272e-06 -8.39083e-27)
(-2.23741e-06 -5.15832e-06 -2.13876e-27)
(-2.21076e-06 -5.00205e-06 -9.35571e-27)
(-2.18306e-06 -4.84393e-06 -6.53394e-27)
(-2.15428e-06 -4.68402e-06 1.15882e-27)
(-2.12437e-06 -4.52241e-06 -1.17565e-27)
(-2.09329e-06 -4.3592e-06 7.56154e-27)
(-2.06101e-06 -4.19456e-06 1.11569e-26)
(-2.02748e-06 -4.02864e-06 3.90779e-27)
(-1.99267e-06 -3.86166e-06 -1.70619e-27)
(-1.95654e-06 -3.69384e-06 3.99301e-27)
(-1.91907e-06 -3.52544e-06 4.48843e-27)
(-1.88022e-06 -3.35674e-06 8.51504e-28)
(-1.83997e-06 -3.18804e-06 -3.37159e-27)
(-1.79831e-06 -3.01967e-06 -7.8778e-27)
(-1.75522e-06 -2.85196e-06 -6.91118e-27)
(-1.7107e-06 -2.68527e-06 -9.49247e-27)
(-1.66473e-06 -2.51996e-06 -4.04666e-27)
(-1.61733e-06 -2.35642e-06 4.29059e-27)
(-1.56851e-06 -2.19502e-06 -1.88817e-27)
(-1.51828e-06 -2.03614e-06 -2.88245e-27)
(-1.46666e-06 -1.88018e-06 3.64061e-27)
(-1.41368e-06 -1.72752e-06 1.01001e-27)
(-1.35937e-06 -1.57854e-06 -1.24556e-27)
(-1.30375e-06 -1.43361e-06 1.36558e-27)
(-1.24687e-06 -1.2931e-06 7.98528e-27)
(-1.18877e-06 -1.15736e-06 4.87627e-27)
(-1.12948e-06 -1.02674e-06 -1.33998e-27)
(-1.06903e-06 -9.01577e-07 5.49014e-27)
(-1.00745e-06 -7.82191e-07 -1.65835e-27)
(-9.44752e-07 -6.68909e-07 -7.0783e-27)
(-8.80944e-07 -5.62059e-07 3.95856e-27)
(-8.16002e-07 -4.61984e-07 -3.71882e-27)
(-7.49876e-07 -3.69058e-07 -2.07869e-27)
(-2.34176e-06 -9.0174e-06 -2.28586e-27)
(-2.47586e-06 -9.01663e-06 -8.47459e-27)
(-2.10318e-06 -8.97841e-06 1.05525e-26)
(-2.20669e-06 -9.01599e-06 1.61768e-27)
(-3.95221e-07 -2.3352e-07 1.25115e-27)
(-4.31323e-07 -3.27125e-07 -2.70169e-27)
(-4.67926e-07 -4.27945e-07 -5.01655e-28)
(-5.04928e-07 -5.35604e-07 3.68124e-27)
(-5.42259e-07 -6.49761e-07 1.30163e-26)
(-5.79868e-07 -7.70089e-07 1.95393e-27)
(-6.17721e-07 -8.96264e-07 -5.00025e-27)
(-6.55796e-07 -1.02796e-06 2.94915e-27)
(-6.94078e-07 -1.16484e-06 -2.7249e-27)
(-7.32558e-07 -1.30656e-06 1.05582e-27)
(-7.71227e-07 -1.45276e-06 1.01492e-26)
(-8.10074e-07 -1.60309e-06 5.34092e-27)
(-8.4909e-07 -1.75716e-06 2.28474e-27)
(-8.8826e-07 -1.91459e-06 -3.41005e-28)
(-9.27568e-07 -2.07501e-06 -4.96249e-27)
(-9.66993e-07 -2.23802e-06 -4.28088e-27)
(-1.00651e-06 -2.40324e-06 -8.11493e-27)
(-1.04608e-06 -2.57029e-06 -8.51737e-27)
(-1.08568e-06 -2.73879e-06 -1.54473e-27)
(-1.12527e-06 -2.90837e-06 3.09387e-27)
(-1.16479e-06 -3.07867e-06 -2.80032e-27)
(-1.20421e-06 -3.24937e-06 -4.60344e-27)
(-1.24345e-06 -3.42012e-06 -7.16967e-27)
(-1.28248e-06 -3.59064e-06 -6.44246e-27)
(-1.32121e-06 -3.76063e-06 -1.93076e-27)
(-1.3596e-06 -3.92984e-06 -4.52427e-27)
(-1.39756e-06 -4.09804e-06 -4.33166e-27)
(-1.43503e-06 -4.26503e-06 -1.3302e-27)
(-1.47194e-06 -4.43063e-06 -6.03336e-27)
(-1.50821e-06 -4.59469e-06 -5.2097e-27)
(-1.54378e-06 -4.75709e-06 -5.93724e-27)
(-1.57856e-06 -4.91775e-06 -7.99288e-27)
(-1.61249e-06 -5.0766e-06 -5.86217e-27)
(-1.6455e-06 -5.23363e-06 -4.24344e-27)
(-1.67752e-06 -5.38882e-06 6.86041e-27)
(-1.7085e-06 -5.54219e-06 9.98853e-27)
(-1.73836e-06 -5.69381e-06 9.04752e-28)
(-1.76704e-06 -5.84374e-06 7.15583e-27)
(-1.79451e-06 -5.99207e-06 -5.61541e-27)
(-1.8207e-06 -6.13893e-06 -1.8485e-27)
(-1.84558e-06 -6.28445e-06 1.17859e-26)
(-1.8691e-06 -6.42877e-06 -1.27126e-26)
(-1.89122e-06 -6.57206e-06 3.16019e-27)
(-1.91191e-06 -6.71451e-06 3.08472e-26)
(-1.93115e-06 -6.8563e-06 4.71644e-26)
(-1.94891e-06 -6.99764e-06 4.14662e-26)
(-1.96518e-06 -7.13874e-06 3.71381e-26)
(-1.97995e-06 -7.27982e-06 2.33526e-26)
(-1.99323e-06 -7.4211e-06 1.12412e-26)
(-2.00504e-06 -7.56281e-06 9.96578e-27)
(-2.01544e-06 -7.70517e-06 2.97471e-26)
(-2.02449e-06 -7.84836e-06 1.36658e-26)
(-2.03232e-06 -7.99254e-06 -1.01561e-26)
(-2.0391e-06 -8.13778e-06 -3.40467e-27)
(-2.04504e-06 -8.28403e-06 -3.94506e-26)
(-2.05043e-06 -8.43109e-06 4.30806e-27)
(-2.05552e-06 -8.57847e-06 1.10111e-26)
(-2.06063e-06 -8.72537e-06 -1.87116e-26)
(-2.06555e-06 -8.87034e-06 7.63292e-27)
(-8.22732e-08 3.80054e-08 2.82482e-26)
(-7.99935e-08 5.22423e-08 -1.06272e-27)
(-7.68571e-08 7.85215e-08 2.7241e-26)
(-7.68353e-08 1.00383e-07 2.47791e-26)
(-7.99564e-08 1.18423e-07 -3.18144e-26)
(-8.55157e-08 1.3351e-07 -4.20308e-26)
(-9.27742e-08 1.46101e-07 -4.37965e-27)
(-1.01255e-07 1.5648e-07 2.81457e-26)
(-1.10649e-07 1.64716e-07 2.51752e-26)
(-1.20794e-07 1.70736e-07 -2.1281e-28)
(-1.3163e-07 1.74343e-07 -2.78026e-26)
(-1.43174e-07 1.75239e-07 1.58542e-26)
(-1.55501e-07 1.73044e-07 1.21487e-26)
(-1.68731e-07 1.67305e-07 -6.08146e-27)
(-1.83025e-07 1.57505e-07 -8.41988e-27)
(-1.98568e-07 1.43068e-07 -2.69706e-27)
(-2.15569e-07 1.23362e-07 1.31649e-26)
(-2.34246e-07 9.76995e-08 3.70064e-27)
(-2.54821e-07 6.53321e-08 1.64032e-27)
(-2.77513e-07 2.54438e-08 4.90335e-27)
(-3.02528e-07 -2.28635e-08 -6.38978e-27)
(-3.30059e-07 -8.0586e-08 4.75453e-28)
(-3.36348e-09 -8.66943e-09 8.99719e-27)
(-6.23898e-07 -2.17219e-07 1.30577e-27)
(-5.67249e-07 -1.59913e-07 -6.12454e-27)
(-5.13487e-07 -1.11968e-07 1.59177e-28)
(-4.62499e-07 -7.24037e-08 1.77287e-27)
(-4.14199e-07 -4.03368e-08 1.06034e-27)
(-3.68528e-07 -1.4966e-08 7.10709e-27)
(-3.25448e-07 4.44633e-09 5.02215e-27)
(-2.84942e-07 1.85867e-08 -1.74161e-29)
(-2.47011e-07 2.81013e-08 4.23804e-27)
(-2.11663e-07 3.36047e-08 -1.16781e-26)
(-1.78917e-07 3.56865e-08 -1.29683e-26)
(-1.48795e-07 3.49175e-08 1.24563e-26)
(-1.21323e-07 3.18542e-08 4.85484e-27)
(-9.65328e-08 2.70442e-08 -1.55071e-26)
(-7.44653e-08 2.10292e-08 -1.00614e-26)
(-5.51764e-08 1.43565e-08 1.56284e-26)
(-3.87581e-08 7.5767e-09 -4.84903e-27)
(-2.53332e-08 1.28096e-09 -3.98801e-27)
(-1.51132e-08 -3.94897e-09 2.81852e-26)
(-8.21496e-09 -7.38098e-09 -1.67936e-26)
(-4.47586e-09 -8.6e-09 -2.57278e-26)
)


// ************************************************************************* //
