/*--------------------------------*- C++ -*----------------------------------*\
| =========                 |                                                 |
| \\      /  F ield         | OpenFOAM Extend Project: Open source CFD        |
|  \\    /   O peration     | Version:  1.6-ext                               |
|   \\  /    A nd           | Web:      www.extend-project.de                 |
|    \\/     M anipulation  |                                                 |
\*---------------------------------------------------------------------------*/
FoamFile
{
    version     2.0;
    format      ascii;
    class       tetPointVectorField;
    location    "1.1";
    object      motionU;
}
// * * * * * * * * * * * * * * * * * * * * * * * * * * * * * * * * * * * * * //

dimensions      [0 1 -1 0 0 0 0];

internalField   nonuniform List<vector> 
147960
(
(0 0 0)
(0.000126333 -0.000334228 0)
(0.0016871 -0.00200305 -1.23202e-23)
(0.000520631 -0.00171944 2.09283e-23)
(0.0045943 -0.0240062 -3.50364e-23)
(0.00451763 -0.0237899 -4.08775e-23)
(0.00451064 -0.0235013 -3.06803e-23)
(0.00450099 -0.0232137 -2.84588e-23)
(0.00448869 -0.0229265 1.7078e-23)
(0.00447372 -0.0226394 4.86394e-23)
(0.00445612 -0.0223521 5.00602e-24)
(0.0044359 -0.0220644 1.60827e-27)
(0.00441304 -0.0217762 1.99584e-23)
(0.00438752 -0.0214874 -2.06338e-23)
(0.00435928 -0.0211978 -3.81701e-23)
(0.00432826 -0.0209071 1.2837e-23)
(0.00429439 -0.0206153 4.21681e-23)
(0.00425759 -0.0203219 4.66724e-23)
(0.00421777 -0.0200267 8.62037e-23)
(0.00417488 -0.0197293 -1.15585e-23)
(0.00412884 -0.0194293 -7.40253e-23)
(0.00407961 -0.0191262 3.36461e-23)
(0.00402713 -0.0188196 6.39764e-23)
(0.0039714 -0.0185089 1.83829e-23)
(0.00391239 -0.0181937 1.9187e-24)
(0.00385012 -0.0178733 1.99321e-23)
(0.00378463 -0.0175472 1.45873e-23)
(0.00371594 -0.017215 -3.6001e-24)
(0.00364415 -0.016876 2.15386e-24)
(0.00356933 -0.0165298 9.25739e-24)
(0.00349159 -0.0161759 5.52439e-24)
(0.00341107 -0.015814 7.28201e-24)
(0.0033279 -0.0154437 3.2934e-24)
(0.00324227 -0.0150647 8.22734e-24)
(0.00315435 -0.0146768 3.57207e-24)
(0.00306434 -0.0142799 -9.68428e-24)
(0.00297246 -0.0138739 1.88268e-23)
(0.00287892 -0.013459 1.52843e-23)
(0.00278397 -0.0130352 -1.27571e-23)
(0.00268783 -0.0126029 -7.86169e-24)
(0.00259077 -0.0121624 -8.55997e-24)
(0.00249304 -0.0117141 -7.12125e-24)
(0.00239488 -0.0112588 -2.74134e-24)
(0.00229654 -0.010797 -1.26953e-24)
(0.00219829 -0.0103297 2.4108e-24)
(0.00210034 -0.00985756 -8.8239e-24)
(0.00200295 -0.00938175 2.40181e-24)
(0.00190632 -0.00890332 1.08022e-23)
(0.00181068 -0.00842346 -5.77125e-25)
(0.00171622 -0.00794341 1.81104e-24)
(0.00162312 -0.00746453 1.93331e-24)
(0.00153155 -0.00698818 9.92839e-25)
(0.00144166 -0.00651583 1.8969e-24)
(0.00135356 -0.00604895 3.53225e-24)
(0.00126738 -0.00558905 6.7824e-24)
(0.0011832 -0.0051377 -1.54314e-24)
(0.00110109 -0.00469642 -6.08002e-24)
(0.00102108 -0.00426678 6.20198e-24)
(0.000943217 -0.00385031 5.76363e-24)
(0.000867479 -0.00344853 9.07989e-24)
(0.000793841 -0.00306294 5.1647e-25)
(0.000722239 -0.00269495 -1.5561e-23)
(0.000652578 -0.00234593 -8.42391e-24)
(0.000584725 -0.00201715 1.82537e-24)
(0.00510406 -0.0240737 2.23759e-23)
(0.00481373 -0.0240763 1.2804e-23)
(0.00560462 -0.0240003 -2.62781e-23)
(0.00539194 -0.024072 4.1465e-23)
(0.00183439 -0.00229889 -1.21141e-23)
(0.00198404 -0.00262557 3.40997e-25)
(0.00213077 -0.00297233 -9.23482e-24)
(0.00227432 -0.00333792 -9.49007e-24)
(0.0024145 -0.00372098 4.15722e-24)
(0.00255114 -0.00412007 2.23769e-23)
(0.00268408 -0.00453372 1.46005e-23)
(0.00281322 -0.00496041 2.23907e-24)
(0.00293847 -0.00539862 1.50218e-24)
(0.00305975 -0.00584679 6.40774e-24)
(0.00317702 -0.00630336 4.3548e-24)
(0.00329026 -0.00676682 -9.34434e-24)
(0.00339946 -0.00723564 -1.25489e-25)
(0.00350463 -0.00770834 4.55537e-24)
(0.00360582 -0.00818348 -1.38387e-23)
(0.00370308 -0.00865966 8.9779e-24)
(0.00379647 -0.00913557 2.43533e-23)
(0.00388609 -0.00960995 1.34627e-24)
(0.00397205 -0.0100816 6.126e-24)
(0.00405447 -0.0105495 1.10532e-23)
(0.00413347 -0.0110125 -8.4799e-24)
(0.00420919 -0.0114698 -4.51498e-24)
(0.0042818 -0.0119206 1.54158e-24)
(0.00435144 -0.0123642 -7.82647e-24)
(0.00441828 -0.0128 1.11102e-23)
(0.00448249 -0.0132276 -1.95984e-24)
(0.00454422 -0.0136464 -1.58626e-23)
(0.00460363 -0.0140564 2.8061e-23)
(0.00466089 -0.0144573 2.31747e-23)
(0.00471614 -0.014849 -1.72137e-23)
(0.00476953 -0.0152317 2.93533e-24)
(0.00482118 -0.0156054 2.17494e-23)
(0.00487122 -0.0159703 -3.70781e-24)
(0.00491975 -0.0163267 -2.46714e-23)
(0.00496686 -0.0166749 -1.76925e-23)
(0.00501263 -0.0170155 6.57439e-24)
(0.00505711 -0.0173487 8.85084e-25)
(0.00510036 -0.0176752 -4.0244e-23)
(0.00514238 -0.0179953 -2.05376e-23)
(0.0051832 -0.0183098 -4.80472e-23)
(0.0052228 -0.018619 -3.29448e-23)
(0.00526116 -0.0189236 2.4319e-23)
(0.00529825 -0.0192241 4.86495e-23)
(0.005334 -0.019521 -1.53069e-23)
(0.00536837 -0.0198148 -4.74505e-23)
(0.00540127 -0.0201059 5.13596e-23)
(0.00543264 -0.0203948 1.11422e-23)
(0.00546238 -0.0206819 3.18813e-23)
(0.00549043 -0.0209674 -5.78604e-23)
(0.0055167 -0.0212517 -5.0172e-23)
(0.00554114 -0.021535 6.44331e-23)
(0.0055637 -0.0218174 3.26328e-23)
(0.00558435 -0.0220993 1.44625e-23)
(0.0056031 -0.0223807 3.05231e-23)
(0.00561996 -0.0226617 -3.49003e-23)
(0.00563503 -0.0229426 -9.10793e-23)
(0.00564833 -0.0232236 3.26089e-23)
(0.00566002 -0.023505 2.44534e-23)
(0.00566984 -0.0237875 -7.83584e-23)
(0.00495486 -0.021122 0)
(0.00561573 -0.0238562 0)
(0.00559308 -0.0237555 0)
(0.00557427 -0.0236446 0)
(0.00555223 -0.0235205 0)
(0.00552792 -0.0233832 0)
(0.00549923 -0.0232322 0)
(0.00546648 -0.0230666 0)
(0.00542755 -0.0228859 0)
(0.00538397 -0.0226889 0)
(0.00533247 -0.022475 0)
(0.00527466 -0.0222434 0)
(0.00520917 -0.0219928 0)
(0.00513228 -0.0217232 0)
(0.00505014 -0.0214332 0)
(0.00119736 -0.00187667 0)
(0.00131723 -0.00210698 0)
(0.00144054 -0.00235321 0)
(0.00156634 -0.00261531 0)
(0.00169407 -0.00289436 0)
(0.00182301 -0.00318976 0)
(0.00195213 -0.0035004 0)
(0.00208093 -0.00382575 0)
(0.00220886 -0.0041652 0)
(0.00233556 -0.00451804 0)
(0.00246074 -0.00488331 0)
(0.00258418 -0.00525985 0)
(0.00270561 -0.0056466 0)
(0.00282481 -0.00604251 0)
(0.00294155 -0.00644642 0)
(0.00305554 -0.00685728 0)
(0.00316663 -0.00727389 0)
(0.00327478 -0.00769498 0)
(0.00337995 -0.00811952 0)
(0.00348203 -0.00854636 0)
(0.00358112 -0.00897551 0)
(0.00367706 -0.00940569 0)
(0.0037697 -0.00983458 0)
(0.00385902 -0.0102615 0)
(0.00394503 -0.0106859 0)
(0.00402775 -0.0111069 0)
(0.00410726 -0.011524 0)
(0.00418368 -0.0119364 0)
(0.00425716 -0.0123436 0)
(0.00432777 -0.0127454 0)
(0.00439556 -0.0131411 0)
(0.00446061 -0.0135304 0)
(0.00452304 -0.013913 0)
(0.00458289 -0.0142888 0)
(0.00464019 -0.0146576 0)
(0.00469494 -0.015019 0)
(0.00474712 -0.0153739 0)
(0.0047966 -0.0157226 0)
(0.0048431 -0.0160641 0)
(0.00488624 -0.0163983 0)
(0.00492595 -0.0167252 0)
(0.00496257 -0.0170445 0)
(0.00499666 -0.0173564 0)
(0.00502834 -0.017661 0)
(0.00505696 -0.0179579 0)
(0.00508179 -0.0182469 0)
(0.00510322 -0.0185279 0)
(0.0051222 -0.0188004 0)
(0.00513842 -0.0190641 0)
(0.00515041 -0.0193177 0)
(0.00515741 -0.0195608 0)
(0.00515981 -0.0197927 0)
(0.00515864 -0.0200116 0)
(0.00515424 -0.0202166 0)
(0.00514531 -0.0204057 0)
(0.00513063 -0.0205777 0)
(0.00510927 -0.0207307 0)
(0.00508093 -0.0208631 0)
(0.00504618 -0.0209733 0)
(0.00500488 -0.02106 0)
(0.00409546 -0.0209469 0)
(0.0041784 -0.0212835 0)
(0.00424566 -0.0215964 0)
(0.00430895 -0.0218865 0)
(0.0043671 -0.0221548 0)
(0.00441208 -0.0224025 0)
(0.00445363 -0.0226303 0)
(0.00448975 -0.0228393 0)
(0.00451651 -0.0230306 0)
(0.00454092 -0.023205 0)
(0.00455865 -0.0233637 0)
(0.00457067 -0.0235076 0)
(0.00457917 -0.0236371 0)
(0.00458019 -0.0237526 0)
(0.00457459 -0.0238573 0)
(0.000441213 -0.00166981 0)
(0.000514288 -0.0017006 0)
(0.000507799 -0.00169049 0)
(0.000501749 -0.00168588 0)
(0.000495863 -0.00168523 0)
(0.000490853 -0.00168698 0)
(0.000486374 -0.00169054 0)
(0.000482452 -0.00169432 0)
(0.000478848 -0.00169739 0)
(0.000475412 -0.00169977 0)
(0.00047215 -0.00170095 0)
(0.000468137 -0.00169974 0)
(0.000463245 -0.00169588 0)
(0.000457379 -0.00168988 0)
(0.00045004 -0.00168163 0)
(0.00411514 -0.0208859 0)
(0.00412862 -0.0207994 0)
(0.00413605 -0.0206886 0)
(0.00413822 -0.0205551 0)
(0.00413538 -0.0204005 0)
(0.00412773 -0.0202265 0)
(0.00411575 -0.020035 0)
(0.0041002 -0.0198273 0)
(0.00408201 -0.0196055 0)
(0.00406068 -0.0193705 0)
(0.00403535 -0.0191242 0)
(0.00400559 -0.0188671 0)
(0.00397186 -0.0186 0)
(0.00393518 -0.0183239 0)
(0.00389564 -0.0180395 0)
(0.00385229 -0.0177469 0)
(0.00380482 -0.0174464 0)
(0.00375389 -0.0171383 0)
(0.00370001 -0.0168229 0)
(0.00364302 -0.0165 0)
(0.00358246 -0.0161697 0)
(0.00351804 -0.0158322 0)
(0.00344993 -0.0154873 0)
(0.00337861 -0.0151354 0)
(0.00330462 -0.0147774 0)
(0.00322822 -0.0144129 0)
(0.0031495 -0.0140411 0)
(0.0030687 -0.0136624 0)
(0.00298598 -0.013277 0)
(0.00290153 -0.012885 0)
(0.00281549 -0.0124867 0)
(0.00272801 -0.0120827 0)
(0.0026393 -0.0116731 0)
(0.00254954 -0.0112586 0)
(0.00245885 -0.0108396 0)
(0.00236736 -0.0104168 0)
(0.00227524 -0.00999089 0)
(0.00218272 -0.00956255 0)
(0.00209002 -0.00913246 0)
(0.0019973 -0.00870135 0)
(0.00190502 -0.00827152 0)
(0.00181344 -0.00784422 0)
(0.00172258 -0.00741948 0)
(0.0016327 -0.00699846 0)
(0.00154389 -0.00658226 0)
(0.00145625 -0.00617212 0)
(0.00136995 -0.00576923 0)
(0.00128525 -0.00537469 0)
(0.00120235 -0.00498971 0)
(0.00112137 -0.0046154 0)
(0.00104236 -0.00425288 0)
(0.000965396 -0.00390327 0)
(0.000890504 -0.00356755 0)
(0.000817806 -0.00324659 0)
(0.000747543 -0.00294111 0)
(0.000679942 -0.00265176 0)
(0.000615348 -0.0023799 0)
(0.000553907 -0.00212598 0)
(0.000495794 -0.00188929 0)
(0.000505867 -0.00190666 0)
(0.000514422 -0.00192179 0)
(0.000520985 -0.00193501 0)
(0.000527407 -0.00194532 0)
(0.000532401 -0.00195354 0)
(0.000536737 -0.00195985 0)
(0.000541741 -0.00196431 0)
(0.000545943 -0.00196787 0)
(0.000551004 -0.00197084 0)
(0.00055633 -0.00197395 0)
(0.00056183 -0.00197826 0)
(0.000568062 -0.00198394 0)
(0.000574176 -0.00199258 0)
(0.000580276 -0.00200461 0)
(0.000565343 -0.00215073 0)
(0.000574638 -0.00217332 0)
(0.000582219 -0.00219346 0)
(0.000589834 -0.00221105 0)
(0.000595595 -0.00222664 0)
(0.000601174 -0.0022402 0)
(0.000607058 -0.002252 0)
(0.000612052 -0.00226277 0)
(0.000617991 -0.00227272 0)
(0.000623753 -0.00228245 0)
(0.000629675 -0.0022925 0)
(0.000635991 -0.00230304 0)
(0.000641986 -0.00231543 0)
(0.000647914 -0.00232986 0)
(0.000627849 -0.00241237 0)
(0.000637805 -0.00244315 0)
(0.000646562 -0.00247075 0)
(0.000655154 -0.00249603 0)
(0.0006615 -0.00251897 0)
(0.000668218 -0.00253999 0)
(0.000674828 -0.00255967 0)
(0.000680352 -0.00257775 0)
(0.000687034 -0.00259463 0)
(0.000693058 -0.00261077 0)
(0.000699239 -0.00262661 0)
(0.000705677 -0.00264215 0)
(0.000711601 -0.00265865 0)
(0.000717535 -0.0026764 0)
(0.000693425 -0.00269258 0)
(0.000703898 -0.00273107 0)
(0.000713818 -0.00276661 0)
(0.000723279 -0.00279985 0)
(0.000730224 -0.00283104 0)
(0.000737811 -0.00285961 0)
(0.000744928 -0.00288646 0)
(0.000750813 -0.00291179 0)
(0.000758037 -0.00293555 0)
(0.000764305 -0.00295805 0)
(0.000770638 -0.00297969 0)
(0.000777229 -0.00300039 0)
(0.000783156 -0.00302117 0)
(0.000789119 -0.00304224 0)
(0.000761793 -0.00298994 0)
(0.000772767 -0.00303659 0)
(0.00078378 -0.00308017 0)
(0.000793991 -0.00312152 0)
(0.000801253 -0.00316066 0)
(0.000809635 -0.00319698 0)
(0.000817253 -0.00323131 0)
(0.000823369 -0.00326381 0)
(0.000831055 -0.00329443 0)
(0.000837546 -0.00332326 0)
(0.000844 -0.00335069 0)
(0.000850718 -0.00337657 0)
(0.000856713 -0.00340161 0)
(0.000862744 -0.00342585 0)
(0.000832859 -0.00330386 0)
(0.00084419 -0.00335877 0)
(0.000856157 -0.00341058 0)
(0.000867127 -0.00346002 0)
(0.000874577 -0.00350706 0)
(0.000883581 -0.00355122 0)
(0.000891784 -0.0035931 0)
(0.00089808 -0.00363277 0)
(0.000906063 -0.00367011 0)
(0.000912768 -0.00370514 0)
(0.000919377 -0.00373832 0)
(0.000926244 -0.00376936 0)
(0.00093231 -0.00379854 0)
(0.000938441 -0.00382579 0)
(0.000906393 -0.00363348 0)
(0.000917968 -0.00369678 0)
(0.000930729 -0.0037568 0)
(0.000942492 -0.00381436 0)
(0.000950164 -0.00386927 0)
(0.000959648 -0.00392131 0)
(0.000968358 -0.00397074 0)
(0.000974923 -0.00401752 0)
(0.000983159 -0.00406145 0)
(0.000989923 -0.00410216 0)
(0.000996737 -0.00414106 0)
(0.00100386 -0.00417739 0)
(0.00101002 -0.0042105 0)
(0.00101625 -0.00424058 0)
(0.000982204 -0.00397788 0)
(0.000993996 -0.00404974 0)
(0.00100738 -0.004118 0)
(0.00101987 -0.00418319 0)
(0.00102784 -0.00424604 0)
(0.00103783 -0.00430625 0)
(0.00104696 -0.0043631 0)
(0.0010538 -0.00441688 0)
(0.0010624 -0.00446743 0)
(0.00106945 -0.0045148 0)
(0.00107634 -0.00455878 0)
(0.00108357 -0.00459927 0)
(0.00108984 -0.004636 0)
(0.0010962 -0.0046687 0)
(0.00106017 -0.0043363 0)
(0.00107226 -0.00441663 0)
(0.00108612 -0.00449323 0)
(0.00109944 -0.00456705 0)
(0.00110778 -0.00463761 0)
(0.00111811 -0.00470494 0)
(0.00112759 -0.00476888 0)
(0.00113467 -0.00482946 0)
(0.00114365 -0.00488642 0)
(0.00115093 -0.00493964 0)
(0.00115797 -0.00498865 0)
(0.00116534 -0.00503336 0)
(0.00117174 -0.0050735 0)
(0.00117824 -0.00510862 0)
(0.00114014 -0.00470751 0)
(0.00115265 -0.00479634 0)
(0.0011669 -0.0048812 0)
(0.00118074 -0.00496303 0)
(0.00118948 -0.00504123 0)
(0.00120036 -0.00511581 0)
(0.0012102 -0.00518669 0)
(0.00121748 -0.00525377 0)
(0.0012268 -0.00531679 0)
(0.00123432 -0.00537549 0)
(0.00124158 -0.00542934 0)
(0.00124915 -0.0054781 0)
(0.00125569 -0.00552144 0)
(0.00126235 -0.00555877 0)
(0.00122194 -0.00509046 0)
(0.00123492 -0.00518759 0)
(0.00124961 -0.00528049 0)
(0.00126385 -0.00537001 0)
(0.0012729 -0.00545577 0)
(0.00128436 -0.0055375 0)
(0.00129467 -0.00561507 0)
(0.00130218 -0.00568838 0)
(0.00131183 -0.00575711 0)
(0.00131959 -0.00582098 0)
(0.00132711 -0.0058794 0)
(0.00133492 -0.00593197 0)
(0.00134163 -0.00597826 0)
(0.00134845 -0.00601761 0)
(0.00130545 -0.00548402 0)
(0.00131886 -0.00558919 0)
(0.00133403 -0.00568943 0)
(0.00134876 -0.00578667 0)
(0.00135811 -0.00588014 0)
(0.00137002 -0.00596869 0)
(0.0013808 -0.00605262 0)
(0.00138863 -0.00613181 0)
(0.00139866 -0.00620593 0)
(0.00140669 -0.00627465 0)
(0.00141448 -0.00633735 0)
(0.00142257 -0.00639345 0)
(0.00142947 -0.00644246 0)
(0.00143647 -0.0064836 0)
(0.00139066 -0.00588695 0)
(0.00140442 -0.00600019 0)
(0.00142035 -0.00610867 0)
(0.00143563 -0.00621324 0)
(0.00144512 -0.00631312 0)
(0.00145739 -0.00640804 0)
(0.00146855 -0.00649794 0)
(0.0014767 -0.00658264 0)
(0.00148718 -0.00666181 0)
(0.00149554 -0.00673506 0)
(0.00150363 -0.00680171 0)
(0.00151201 -0.00686105 0)
(0.00151911 -0.0069125 0)
(0.00152629 -0.00695523 0)
(0.00147749 -0.00629807 0)
(0.00149146 -0.00641911 0)
(0.00150796 -0.00653514 0)
(0.00152389 -0.00664676 0)
(0.00153369 -0.00675313 0)
(0.00154639 -0.00685412 0)
(0.0015579 -0.00694963 0)
(0.00156634 -0.00703947 0)
(0.00157727 -0.00712331 0)
(0.00158599 -0.00720073 0)
(0.00159442 -0.00727101 0)
(0.0016031 -0.00733329 0)
(0.00161042 -0.0073869 0)
(0.00161778 -0.00743099 0)
(0.00156572 -0.00671611 0)
(0.00157983 -0.00684417 0)
(0.00159685 -0.0069676 0)
(0.00161346 -0.00708638 0)
(0.00162363 -0.00719893 0)
(0.00163681 -0.0073056 0)
(0.00164871 -0.00740631 0)
(0.00165745 -0.00750088 0)
(0.00166882 -0.00758898 0)
(0.0016779 -0.00767021 0)
(0.00168669 -0.00774379 0)
(0.0016957 -0.00780871 0)
(0.00170326 -0.00786423 0)
(0.00171081 -0.00790946 0)
(0.00165526 -0.00714009 0)
(0.00166985 -0.00727602 0)
(0.00168735 -0.00740642 0)
(0.00170436 -0.00753099 0)
(0.00171482 -0.00764924 0)
(0.00172848 -0.00776115 0)
(0.00174081 -0.00786666 0)
(0.00174986 -0.00796551 0)
(0.00176166 -0.00805738 0)
(0.00177112 -0.00814206 0)
(0.0017803 -0.00821869 0)
(0.00178965 -0.00828595 0)
(0.00179747 -0.00834307 0)
(0.0018052 -0.00838922 0)
(0.00174586 -0.00756865 0)
(0.00176086 -0.00771168 0)
(0.00177891 -0.00784869 0)
(0.00179643 -0.00797912 0)
(0.00180718 -0.00810273 0)
(0.0018213 -0.00821952 0)
(0.00183406 -0.00832942 0)
(0.00184344 -0.0084321 0)
(0.00185558 -0.00852685 0)
(0.00186545 -0.00861486 0)
(0.0018751 -0.00869447 0)
(0.00188481 -0.00876368 0)
(0.00189287 -0.00882211 0)
(0.00190078 -0.00886896 0)
(0.00183728 -0.00800006 0)
(0.00185266 -0.00815012 0)
(0.0018714 -0.00829368 0)
(0.00188948 -0.00842963 0)
(0.00190055 -0.0085582 0)
(0.00191513 -0.00867949 0)
(0.00192834 -0.00879344 0)
(0.00193809 -0.00889981 0)
(0.00195084 -0.00899839 0)
(0.00196103 -0.00908887 0)
(0.00197094 -0.00916996 0)
(0.00198096 -0.00924063 0)
(0.00198926 -0.00930008 0)
(0.00199735 -0.0093474 0)
(0.00192976 -0.00843516 0)
(0.00194552 -0.00859176 0)
(0.00196473 -0.00874046 0)
(0.00198334 -0.00888139 0)
(0.00199471 -0.00901451 0)
(0.00200977 -0.00913989 0)
(0.00202342 -0.00925751 0)
(0.00203355 -0.00936713 0)
(0.00204677 -0.00946852 0)
(0.00205733 -0.00956111 0)
(0.00206756 -0.00964375 0)
(0.0020779 -0.00971559 0)
(0.00208644 -0.00977576 0)
(0.0020947 -0.00982335 0)
(0.00202273 -0.00887131 0)
(0.00203899 -0.00903393 0)
(0.00205871 -0.00918772 0)
(0.0020778 -0.00933323 0)
(0.00208948 -0.00947046 0)
(0.002105 -0.00959951 0)
(0.00211908 -0.00972032 0)
(0.00212957 -0.0098327 0)
(0.00214325 -0.00993637 0)
(0.00215417 -0.0100308 0)
(0.00216475 -0.0101147 0)
(0.00217541 -0.0101874 0)
(0.00218418 -0.0102481 0)
(0.0021926 -0.0102957 0)
(0.00211626 -0.00930862 0)
(0.00213286 -0.00947592 0)
(0.0021531 -0.00963434 0)
(0.00217268 -0.00978401 0)
(0.00218467 -0.00992494 0)
(0.00220063 -0.0100572 0)
(0.00221513 -0.0101808 0)
(0.00222596 -0.0102955 0)
(0.00224008 -0.010401 0)
(0.00225137 -0.0104968 0)
(0.00226229 -0.0105818 0)
(0.00227327 -0.0106551 0)
(0.00228226 -0.010716 0)
(0.00229083 -0.0107635 0)
(0.00220976 -0.00974434 0)
(0.00222683 -0.0099165 0)
(0.00224763 -0.0100792 0)
(0.00226775 -0.0102327 0)
(0.00228008 -0.0103769 0)
(0.00229648 -0.010512 0)
(0.00231137 -0.0106379 0)
(0.00232253 -0.0107545 0)
(0.00233705 -0.0108615 0)
(0.0023487 -0.0109584 0)
(0.00235996 -0.011044 0)
(0.00237125 -0.0111177 0)
(0.00238045 -0.0111785 0)
(0.00238916 -0.0112258 0)
(0.00230307 -0.010178 0)
(0.00232065 -0.0103548 0)
(0.00234208 -0.0105215 0)
(0.00236277 -0.0106784 0)
(0.00237545 -0.0108256 0)
(0.0023923 -0.010963 0)
(0.00240758 -0.0110908 0)
(0.00241902 -0.0112088 0)
(0.00243393 -0.0113169 0)
(0.00244593 -0.0114147 0)
(0.00245753 -0.0115007 0)
(0.00246911 -0.0115744 0)
(0.00247849 -0.011635 0)
(0.00248732 -0.0116817 0)
(0.00239598 -0.0106089 0)
(0.00241408 -0.01079 0)
(0.00243615 -0.0109604 0)
(0.00245744 -0.0111204 0)
(0.00247052 -0.01127 0)
(0.00248785 -0.0114095 0)
(0.00250351 -0.0115387 0)
(0.00251514 -0.0116572 0)
(0.00253046 -0.0117664 0)
(0.00254287 -0.011865 0)
(0.00255478 -0.011951 0)
(0.00256661 -0.0120244 0)
(0.00257615 -0.0120845 0)
(0.00258507 -0.0121306 0)
(0.00248826 -0.0110363 0)
(0.00250689 -0.0112213 0)
(0.0025296 -0.0113951 0)
(0.00255149 -0.0115578 0)
(0.00256502 -0.0117096 0)
(0.00258287 -0.0118508 0)
(0.00259898 -0.0119813 0)
(0.00261107 -0.0121012 0)
(0.00262673 -0.0122108 0)
(0.0026393 -0.0123088 0)
(0.00265145 -0.0123944 0)
(0.0026635 -0.0124673 0)
(0.00267316 -0.0125266 0)
(0.00268216 -0.0125719 0)
(0.00257976 -0.0114596 0)
(0.00259891 -0.0116482 0)
(0.00262225 -0.0118249 0)
(0.00264474 -0.01199 0)
(0.0026587 -0.0121437 0)
(0.00267708 -0.0122862 0)
(0.00269366 -0.0124176 0)
(0.00270612 -0.0125381 0)
(0.00272212 -0.0126477 0)
(0.00273492 -0.0127453 0)
(0.00274729 -0.0128303 0)
(0.00275952 -0.0129023 0)
(0.00276929 -0.0129608 0)
(0.00277833 -0.0130051 0)
(0.00267035 -0.011878 0)
(0.00269005 -0.0120699 0)
(0.00271399 -0.0122494 0)
(0.00273703 -0.0124165 0)
(0.00275138 -0.0125716 0)
(0.00277026 -0.0127151 0)
(0.00278727 -0.0128471 0)
(0.00280007 -0.0129677 0)
(0.00281644 -0.0130771 0)
(0.00282947 -0.0131741 0)
(0.00284203 -0.0132582 0)
(0.00285443 -0.0133292 0)
(0.00286427 -0.0133865 0)
(0.00287334 -0.0134298 0)
(0.00275992 -0.0122912 0)
(0.00278018 -0.0124861 0)
(0.00280471 -0.0126679 0)
(0.00282824 -0.0128367 0)
(0.00284293 -0.0129931 0)
(0.00286224 -0.0131371 0)
(0.00287956 -0.0132687 0)
(0.00289271 -0.0133896 0)
(0.0029095 -0.0134988 0)
(0.00292273 -0.0135949 0)
(0.00293544 -0.0136778 0)
(0.00294797 -0.0137476 0)
(0.00295787 -0.0138036 0)
(0.00296695 -0.0138457 0)
(0.00284825 -0.0126986 0)
(0.00286907 -0.0128962 0)
(0.0028942 -0.01308 0)
(0.00291822 -0.0132503 0)
(0.0029332 -0.0134076 0)
(0.00295292 -0.0135521 0)
(0.00297072 -0.0136843 0)
(0.00298413 -0.0138048 0)
(0.00300109 -0.0139126 0)
(0.00301447 -0.0140074 0)
(0.0030273 -0.014089 0)
(0.00303992 -0.0141573 0)
(0.00304986 -0.0142119 0)
(0.00305892 -0.0142527 0)
(0.00293508 -0.0130999 0)
(0.00295648 -0.0132999 0)
(0.00298223 -0.0134855 0)
(0.00300673 -0.0136569 0)
(0.00302197 -0.0138149 0)
(0.00304203 -0.0139596 0)
(0.00306014 -0.0140917 0)
(0.00307377 -0.0142116 0)
(0.00309095 -0.0143181 0)
(0.00310446 -0.0144115 0)
(0.00311737 -0.0144915 0)
(0.00313006 -0.0145582 0)
(0.00314 -0.0146113 0)
(0.00314903 -0.0146507 0)
(0.00302028 -0.0134947 0)
(0.00304222 -0.0136968 0)
(0.00306856 -0.0138839 0)
(0.00309353 -0.0140564 0)
(0.003109 -0.0142146 0)
(0.00312925 -0.0143588 0)
(0.00314766 -0.0144909 0)
(0.00316153 -0.0146101 0)
(0.00317888 -0.0147154 0)
(0.00319248 -0.0148071 0)
(0.00320545 -0.0148854 0)
(0.00321817 -0.0149503 0)
(0.00322808 -0.0150017 0)
(0.00323707 -0.0150397 0)
(0.00310374 -0.0138827 0)
(0.00312617 -0.0140868 0)
(0.00315304 -0.0142752 0)
(0.00317842 -0.0144484 0)
(0.00319411 -0.0146069 0)
(0.00321475 -0.0147515 0)
(0.00323338 -0.0148832 0)
(0.00324724 -0.0150008 0)
(0.0032647 -0.0151044 0)
(0.00327834 -0.0151943 0)
(0.00329133 -0.0152707 0)
(0.00330405 -0.0153337 0)
(0.00331391 -0.0153834 0)
(0.00332283 -0.0154198 0)
(0.00318526 -0.0142638 0)
(0.00320812 -0.0144696 0)
(0.00323544 -0.0146592 0)
(0.00326117 -0.0148328 0)
(0.00327698 -0.0149912 0)
(0.00329797 -0.0151361 0)
(0.0033168 -0.0152672 0)
(0.00333069 -0.0153833 0)
(0.00334823 -0.0154851 0)
(0.00336187 -0.0155731 0)
(0.00337485 -0.0156475 0)
(0.00338753 -0.0157085 0)
(0.00339731 -0.0157564 0)
(0.00340613 -0.0157913 0)
(0.0032646 -0.0146378 0)
(0.00328782 -0.0148453 0)
(0.00331556 -0.0150358 0)
(0.00334158 -0.0152096 0)
(0.00335773 -0.0153692 0)
(0.00337901 -0.0155141 0)
(0.00339782 -0.0156435 0)
(0.00341168 -0.015758 0)
(0.00342925 -0.0158579 0)
(0.00344287 -0.0159438 0)
(0.00345581 -0.0160161 0)
(0.00346844 -0.0160751 0)
(0.0034781 -0.016121 0)
(0.0034868 -0.0161543 0)
(0.00334156 -0.0150047 0)
(0.00336506 -0.0152138 0)
(0.00339315 -0.015405 0)
(0.00341973 -0.0155805 0)
(0.00343609 -0.0157406 0)
(0.00345739 -0.0158843 0)
(0.0034762 -0.0160122 0)
(0.00349001 -0.0161248 0)
(0.0035076 -0.0162228 0)
(0.00352118 -0.0163066 0)
(0.00353406 -0.0163767 0)
(0.00354661 -0.0164336 0)
(0.00355614 -0.0164776 0)
(0.0035647 -0.0165093 0)
(0.00341583 -0.0153643 0)
(0.00343958 -0.0155751 0)
(0.00346829 -0.0157686 0)
(0.00349526 -0.0159451 0)
(0.00351158 -0.0161044 0)
(0.00353296 -0.0162469 0)
(0.00355179 -0.0163733 0)
(0.00356556 -0.0164842 0)
(0.00358315 -0.0165801 0)
(0.00359666 -0.0166617 0)
(0.00360947 -0.0167297 0)
(0.00362191 -0.0167845 0)
(0.00363129 -0.0168266 0)
(0.0036397 -0.0168567 0)
(0.00348769 -0.0157192 0)
(0.00351165 -0.0159318 0)
(0.0035406 -0.016126 0)
(0.00356768 -0.0163021 0)
(0.00358405 -0.0164607 0)
(0.00360558 -0.0166021 0)
(0.00362449 -0.016727 0)
(0.00363823 -0.0168362 0)
(0.00365583 -0.0169302 0)
(0.00366924 -0.0170097 0)
(0.00368192 -0.0170755 0)
(0.00369424 -0.0171281 0)
(0.00370344 -0.0171683 0)
(0.00371168 -0.0171967 0)
(0.00355615 -0.0160664 0)
(0.00358027 -0.0162807 0)
(0.00360951 -0.0164756 0)
(0.00363689 -0.0166517 0)
(0.00365344 -0.0168097 0)
(0.00367523 -0.0169502 0)
(0.00369428 -0.0170738 0)
(0.003708 -0.0171813 0)
(0.00372557 -0.0172734 0)
(0.00373883 -0.0173508 0)
(0.00375135 -0.0174144 0)
(0.00376351 -0.0174649 0)
(0.0037725 -0.0175032 0)
(0.00378055 -0.0175301 0)
(0.00362095 -0.0164063 0)
(0.00364535 -0.0166222 0)
(0.0036751 -0.0168178 0)
(0.00370299 -0.0169941 0)
(0.00371984 -0.0171518 0)
(0.00374193 -0.0172914 0)
(0.00376109 -0.0174138 0)
(0.00377477 -0.0175198 0)
(0.00379227 -0.0176101 0)
(0.00380535 -0.0176854 0)
(0.00381767 -0.017747 0)
(0.00382962 -0.0177955 0)
(0.00383839 -0.0178319 0)
(0.00384624 -0.0178572 0)
(0.00368212 -0.0167388 0)
(0.00370709 -0.0169562 0)
(0.0037376 -0.0171528 0)
(0.00376608 -0.0173295 0)
(0.00378322 -0.0174871 0)
(0.00380555 -0.0176262 0)
(0.00382478 -0.0177475 0)
(0.00383839 -0.0178521 0)
(0.00385581 -0.0179407 0)
(0.0038687 -0.0180141 0)
(0.00388081 -0.0180737 0)
(0.00389255 -0.0181202 0)
(0.00390107 -0.0181548 0)
(0.00390871 -0.0181786 0)
(0.00374006 -0.017064 0)
(0.00376583 -0.0172832 0)
(0.00379711 -0.017481 0)
(0.00382608 -0.0176583 0)
(0.00384339 -0.017816 0)
(0.0038659 -0.0179546 0)
(0.00388521 -0.0180751 0)
(0.00389879 -0.0181785 0)
(0.00391616 -0.0182656 0)
(0.00392887 -0.0183373 0)
(0.00394076 -0.018395 0)
(0.00395225 -0.0184397 0)
(0.0039605 -0.0184725 0)
(0.00396792 -0.0184949 0)
(0.0037951 -0.017382 0)
(0.00382157 -0.0176033 0)
(0.00385338 -0.0178024 0)
(0.00388269 -0.0179806 0)
(0.00390016 -0.0181386 0)
(0.00392295 -0.0182771 0)
(0.00394243 -0.0183971 0)
(0.003956 -0.0184996 0)
(0.00397332 -0.0185853 0)
(0.00398584 -0.0186555 0)
(0.00399748 -0.0187114 0)
(0.00400871 -0.0187543 0)
(0.00401668 -0.0187855 0)
(0.00402386 -0.0188065 0)
(0.00384699 -0.0176929 0)
(0.00387384 -0.0179163 0)
(0.00390608 -0.0181171 0)
(0.00393587 -0.0182965 0)
(0.00395372 -0.0184552 0)
(0.00397688 -0.018594 0)
(0.0039965 -0.0187137 0)
(0.00401001 -0.0188154 0)
(0.00402725 -0.0189001 0)
(0.00403955 -0.0189689 0)
(0.00405095 -0.0190234 0)
(0.00406193 -0.0190647 0)
(0.00406961 -0.0190944 0)
(0.00407655 -0.0191141 0)
(0.0038951 -0.0179964 0)
(0.00392239 -0.0182223 0)
(0.00395545 -0.0184252 0)
(0.00398603 -0.0186062 0)
(0.00400427 -0.0187659 0)
(0.00402765 -0.0189052 0)
(0.00404729 -0.019025 0)
(0.00406073 -0.0191265 0)
(0.00407791 -0.0192105 0)
(0.00409003 -0.0192782 0)
(0.0041012 -0.0193314 0)
(0.0041119 -0.0193713 0)
(0.00411929 -0.0193995 0)
(0.00412599 -0.019418 0)
(0.00393938 -0.0182923 0)
(0.00396774 -0.0185212 0)
(0.00400195 -0.0187267 0)
(0.00403316 -0.0189096 0)
(0.00405149 -0.0190708 0)
(0.00407501 -0.0192111 0)
(0.0040948 -0.0193315 0)
(0.00410829 -0.019433 0)
(0.00412544 -0.0195167 0)
(0.00413734 -0.0195837 0)
(0.00414824 -0.0196359 0)
(0.00415867 -0.0196745 0)
(0.00416577 -0.0197015 0)
(0.00417223 -0.0197189 0)
(0.00398056 -0.0185806 0)
(0.00401027 -0.018813 0)
(0.00404525 -0.0190212 0)
(0.00407671 -0.0192065 0)
(0.00409525 -0.0193698 0)
(0.00411926 -0.0195117 0)
(0.00413937 -0.0196331 0)
(0.00415282 -0.0197352 0)
(0.0041698 -0.0198189 0)
(0.00418145 -0.0198856 0)
(0.0041921 -0.0199371 0)
(0.00420228 -0.0199748 0)
(0.0042091 -0.0200007 0)
(0.00421532 -0.020017 0)
(0.00401892 -0.018861 0)
(0.00404938 -0.019097 0)
(0.00408472 -0.0193085 0)
(0.00411684 -0.019497 0)
(0.00413617 -0.0196629 0)
(0.0041608 -0.0198069 0)
(0.00418089 -0.0199298 0)
(0.00419406 -0.0200331 0)
(0.00421096 -0.0201175 0)
(0.00422247 -0.0201844 0)
(0.00423291 -0.0202355 0)
(0.00424282 -0.0202725 0)
(0.00424934 -0.0202975 0)
(0.00425533 -0.020313 0)
(0.00405376 -0.0191324 0)
(0.00408451 -0.0193727 0)
(0.00412084 -0.0195885 0)
(0.00415436 -0.0197805 0)
(0.00417452 -0.0199496 0)
(0.00419913 -0.0200963 0)
(0.00421893 -0.0202217 0)
(0.00423225 -0.0203269 0)
(0.00424932 -0.0204125 0)
(0.00426065 -0.02048 0)
(0.00427075 -0.0205313 0)
(0.00428034 -0.020568 0)
(0.00428657 -0.0205924 0)
(0.00429232 -0.020607 0)
(0.00408445 -0.0193945 0)
(0.0041162 -0.0196399 0)
(0.00415443 -0.0198601 0)
(0.00418938 -0.0200564 0)
(0.00420945 -0.0202295 0)
(0.0042338 -0.0203799 0)
(0.00425427 -0.0205084 0)
(0.00426807 -0.0206161 0)
(0.00428493 -0.0207037 0)
(0.00429577 -0.0207726 0)
(0.00430553 -0.0208247 0)
(0.00431489 -0.0208615 0)
(0.00432084 -0.0208855 0)
(0.00432637 -0.0208995 0)
(0.00411127 -0.0196467 0)
(0.00414528 -0.0198973 0)
(0.00418566 -0.0201227 0)
(0.00422082 -0.0203241 0)
(0.00424045 -0.0205019 0)
(0.00426612 -0.0206567 0)
(0.00428764 -0.0207892 0)
(0.00430092 -0.0209005 0)
(0.00431722 -0.0209911 0)
(0.00432785 -0.0210622 0)
(0.00433757 -0.0211157 0)
(0.00434666 -0.0211532 0)
(0.00435226 -0.0211772 0)
(0.00435755 -0.0211907 0)
(0.00413515 -0.0198875 0)
(0.00417216 -0.0201441 0)
(0.00421327 -0.0203753 0)
(0.00424793 -0.0205824 0)
(0.00426932 -0.0207657 0)
(0.00429681 -0.0209259 0)
(0.00431764 -0.0210635 0)
(0.00433032 -0.0211793 0)
(0.00434683 -0.0212739 0)
(0.00435766 -0.0213483 0)
(0.00436707 -0.0214042 0)
(0.00437557 -0.0214431 0)
(0.00438083 -0.0214676 0)
(0.00438594 -0.0214808 0)
(0.00415681 -0.0201159 0)
(0.00419544 -0.0203788 0)
(0.00423621 -0.0206163 0)
(0.0042729 -0.0208299 0)
(0.00429679 -0.0210197 0)
(0.00432381 -0.0211863 0)
(0.00434426 -0.0213299 0)
(0.00435762 -0.0214515 0)
(0.00437455 -0.0215515 0)
(0.00438503 -0.0216305 0)
(0.00439349 -0.02169 0)
(0.00440163 -0.0217312 0)
(0.00440673 -0.0217568 0)
(0.00441162 -0.0217701 0)
(0.00417511 -0.02033 0)
(0.00421396 -0.0205997 0)
(0.00425651 -0.0208444 0)
(0.00429631 -0.021065 0)
(0.00432059 -0.021262 0)
(0.00434768 -0.0214358 0)
(0.00436911 -0.0215867 0)
(0.00438303 -0.0217156 0)
(0.00439993 -0.0218224 0)
(0.00440926 -0.0219075 0)
(0.00441739 -0.0219721 0)
(0.00442551 -0.0220171 0)
(0.0044301 -0.0220448 0)
(0.00443458 -0.0220587 0)
(0.00418903 -0.0205284 0)
(0.0042289 -0.0208053 0)
(0.00427439 -0.0210573 0)
(0.00431651 -0.0212854 0)
(0.0043416 -0.0214903 0)
(0.00436934 -0.0216723 0)
(0.00439185 -0.0218317 0)
(0.00440665 -0.0219692 0)
(0.00442252 -0.0220844 0)
(0.00443151 -0.0221776 0)
(0.00443986 -0.0222495 0)
(0.00444703 -0.0223001 0)
(0.0044507 -0.0223314 0)
(0.00445492 -0.0223466 0)
(0.00419855 -0.0207094 0)
(0.00424025 -0.0209934 0)
(0.00428968 -0.0212528 0)
(0.00433417 -0.0214889 0)
(0.0043592 -0.0217022 0)
(0.00438872 -0.021893 0)
(0.00441372 -0.0220617 0)
(0.00442769 -0.0222089 0)
(0.00444332 -0.0223344 0)
(0.00445309 -0.022438 0)
(0.00446027 -0.0225196 0)
(0.00446601 -0.0225787 0)
(0.00446903 -0.022616 0)
(0.00447274 -0.0226339 0)