/*--------------------------------*- C++ -*----------------------------------*\
| =========                 |                                                 |
| \\      /  F ield         | OpenFOAM Extend Project: Open source CFD        |
|  \\    /   O peration     | Version:  1.6-ext                               |
|   \\  /    A nd           | Web:      www.extend-project.de                 |
|    \\/     M anipulation  |                                                 |
\*---------------------------------------------------------------------------*/
FoamFile
{
    version     2.0;
    format      ascii;
    class       volScalarField;
    location    "1.1";
    object      p;
}
// * * * * * * * * * * * * * * * * * * * * * * * * * * * * * * * * * * * * * //

dimensions      [0 2 -2 0 0 0 0];

internalField   nonuniform List<scalar> 
20940
(
-0.166126
-0.208905
-0.25382
-0.301133
-0.350289
-0.401355
-0.453827
-0.507229
-0.560707
-0.613157
-0.663238
-0.709569
-0.75098
-0.786746
-0.816722
-0.841306
-0.86129
-0.87765
-0.891289
-0.902961
-0.914169
-0.926069
-0.194188
-0.235767
-0.279656
-0.325333
-0.372569
-0.421196
-0.470684
-0.520429
-0.569499
-0.616783
-0.661067
-0.701255
-0.736584
-0.766763
-0.791995
-0.812868
-0.830185
-0.844788
-0.857367
-0.868447
-0.879279
-0.890823
-0.218641
-0.258799
-0.301374
-0.345165
-0.390216
-0.436122
-0.482326
-0.528106
-0.572507
-0.614484
-0.653034
-0.687401
-0.717215
-0.742545
-0.763825
-0.781712
-0.796934
-0.81016
-0.821876
-0.832402
-0.842758
-0.853732
-0.241731
-0.280262
-0.321258
-0.362899
-0.40547
-0.448324
-0.490886
-0.532355
-0.571816
-0.608377
-0.641319
-0.670243
-0.695131
-0.716306
-0.734318
-0.749796
-0.763335
-0.775427
-0.786372
-0.796332
-0.806136
-0.816449
-0.263131
-0.299941
-0.339199
-0.378533
-0.418424
-0.457992
-0.496668
-0.533619
-0.568056
-0.599313
-0.626993
-0.651034
-0.671686
-0.689419
-0.704793
-0.718345
-0.730517
-0.741633
-0.751849
-0.761206
-0.770385
-0.779962
-0.283119
-0.31815
-0.355537
-0.392415
-0.429431
-0.465497
-0.500093
-0.532431
-0.561923
-0.588182
-0.611127
-0.630963
-0.648108
-0.663071
-0.676352
-0.688359
-0.699389
-0.709624
-0.719115
-0.727823
-0.736308
-0.745084
-0.301847
-0.335047
-0.370445
-0.404741
-0.438724
-0.471138
-0.501574
-0.529361
-0.554173
-0.575909
-0.594757
-0.6111
-0.62542
-0.63819
-0.649804
-0.660542
-0.670573
-0.679975
-0.688725
-0.696737
-0.704474
-0.712404
-0.319581
-0.350994
-0.384336
-0.415945
-0.446748
-0.475398
-0.501672
-0.525089
-0.545609
-0.563387
-0.578799
-0.59231
-0.604385
-0.615412
-0.62567
-0.635322
-0.644438
-0.653025
-0.661015
-0.668296
-0.675251
-0.682312
-0.336267
-0.36584
-0.397005
-0.425838
-0.453393
-0.478313
-0.500611
-0.520028
-0.536793
-0.551251
-0.563878
-0.575143
-0.585444
-0.595068
-0.604187
-0.612874
-0.62113
-0.628912
-0.636132
-0.642666
-0.648828
-0.655019
-0.352229
-0.380082
-0.40904
-0.435027
-0.459273
-0.48052
-0.499066
-0.514885
-0.528422
-0.54013
-0.55051
-0.559978
-0.568842
-0.577292
-0.585413
-0.59321
-0.60064
-0.60763
-0.614083
-0.619872
-0.625253
-0.630597
-0.36693
-0.392893
-0.419476
-0.442648
-0.463731
-0.481641
-0.496917
-0.509729
-0.520656
-0.530193
-0.538809
-0.54685
-0.554537
-0.561983
-0.569209
-0.576179
-0.582819
-0.589043
-0.594751
-0.599821
-0.604456
-0.608996
-0.381096
-0.405381
-0.429677
-0.450053
-0.468042
-0.48283
-0.495171
-0.505395
-0.514139
-0.521885
-0.529039
-0.535869
-0.542524
-0.549054
-0.555441
-0.561619
-0.567497
-0.572983
-0.577977
-0.582367
-0.586305
-0.590102
-0.392741
-0.415147
-0.436914
-0.454892
-0.470307
-0.48269
-0.492831
-0.501165
-0.508317
-0.514735
-0.520767
-0.526621
-0.5324
-0.53812
-0.543738
-0.549179
-0.554345
-0.559143
-0.563477
-0.567243
-0.570553
-0.573684
-0.405085
-0.425724
-0.445285
-0.460876
-0.473788
-0.483903
-0.492022
-0.498656
-0.504381
-0.509597
-0.514587
-0.519509
-0.524428
-0.529336
-0.53418
-0.538876
-0.543329
-0.547445
-0.551135
-0.554305
-0.557034
-0.559571
-0.409976
-0.430551
-0.447364
-0.461681
-0.473109
-0.482127
-0.489264
-0.495067
-0.500032
-0.504531
-0.508818
-0.513041
-0.517264
-0.521487
-0.525665
-0.529724
-0.533574
-0.537125
-0.540291
-0.542983
-0.545246
-0.547297
-0.424933
-0.442336
-0.45633
-0.468274
-0.477459
-0.484585
-0.490135
-0.494641
-0.498529
-0.502104
-0.50556
-0.509004
-0.512474
-0.515958
-0.519409
-0.522758
-0.525927
-0.528833
-0.531406
-0.53357
-0.535353
-0.536924
-0.4453
-0.458844
-0.468134
-0.476311
-0.482375
-0.4873
-0.491299
-0.494753
-0.497875
-0.500827
-0.503701
-0.506546
-0.509371
-0.512162
-0.514878
-0.517471
-0.51988
-0.52205
-0.523931
-0.525481
-0.52673
-0.52781
-0.454705
-0.466385
-0.473038
-0.479572
-0.484176
-0.488121
-0.491335
-0.494163
-0.49672
-0.499124
-0.501441
-0.503705
-0.505927
-0.508098
-0.510189
-0.512163
-0.513977
-0.515589
-0.516963
-0.518071
-0.518935
-0.519644
-0.461548
-0.471633
-0.476297
-0.481607
-0.485115
-0.488316
-0.490915
-0.493239
-0.495332
-0.497282
-0.499131
-0.500909
-0.502623
-0.50427
-0.505831
-0.50728
-0.508587
-0.509722
-0.510661
-0.511389
-0.511919
-0.512311
-0.46536
-0.474001
-0.477581
-0.482085
-0.484964
-0.487685
-0.489874
-0.491826
-0.493554
-0.495132
-0.496594
-0.497967
-0.499263
-0.50048
-0.501609
-0.502632
-0.503527
-0.504273
-0.504856
-0.505267
-0.505509
-0.505618
-0.467242
-0.474543
-0.477652
-0.48153
-0.484042
-0.486408
-0.488307
-0.489976
-0.491426
-0.492718
-0.493881
-0.494941
-0.49591
-0.496791
-0.497579
-0.498262
-0.498824
-0.499251
-0.499534
-0.49967
-0.499647
-0.499481
-0.467495
-0.473645
-0.476651
-0.480073
-0.482406
-0.484543
-0.486265
-0.48775
-0.489016
-0.490111
-0.491066
-0.491903
-0.492634
-0.493266
-0.493796
-0.494215
-0.494514
-0.49468
-0.494709
-0.494603
-0.494332
-0.493893
-0.4665
-0.471784
-0.474854
-0.477986
-0.480268
-0.482288
-0.483931
-0.485323
-0.486491
-0.487476
-0.488304
-0.488999
-0.489572
-0.490029
-0.490371
-0.490593
-0.490685
-0.49064
-0.490455
-0.490136
-0.489632
-0.488923
-0.464646
-0.469365
-0.472562
-0.475563
-0.477882
-0.479887
-0.481535
-0.482917
-0.484063
-0.485009
-0.485782
-0.486402
-0.486881
-0.487226
-0.487439
-0.487517
-0.487453
-0.487241
-0.486881
-0.486379
-0.485666
-0.484706
-0.462366
-0.466786
-0.470132
-0.473127
-0.475547
-0.477615
-0.479332
-0.480766
-0.481949
-0.482913
-0.483685
-0.484282
-0.484718
-0.485
-0.485131
-0.485111
-0.484935
-0.484599
-0.484105
-0.48346
-0.482576
-0.481402
-0.460098
-0.464423
-0.467927
-0.471002
-0.473561
-0.475743
-0.47757
-0.479095
-0.480353
-0.481374
-0.48218
-0.482791
-0.48322
-0.483476
-0.483564
-0.483486
-0.48324
-0.482824
-0.482242
-0.481503
-0.480504
-0.479182
-0.45813
-0.462497
-0.466161
-0.469363
-0.472078
-0.474398
-0.476355
-0.477996
-0.479352
-0.480452
-0.481319
-0.481971
-0.482422
-0.482681
-0.482757
-0.482655
-0.482378
-0.481928
-0.481312
-0.480542
-0.479509
-0.478138
-0.4568
-0.461287
-0.465106
-0.468454
-0.471322
-0.473785
-0.475877
-0.477639
-0.479103
-0.480297
-0.481241
-0.481953
-0.482447
-0.482734
-0.482824
-0.482727
-0.482452
-0.482008
-0.481409
-0.480674
-0.479703
-0.478422
-0.455941
-0.460564
-0.464502
-0.467973
-0.470966
-0.473548
-0.475755
-0.477626
-0.479191
-0.480477
-0.481502
-0.482282
-0.48283
-0.483156
-0.483273
-0.483194
-0.482938
-0.482525
-0.481984
-0.481351
-0.480567
-0.479565
-0.456065
-0.46083
-0.46492
-0.46854
-0.471683
-0.474411
-0.476765
-0.478784
-0.480501
-0.481942
-0.483123
-0.484055
-0.484745
-0.485193
-0.4854
-0.485374
-0.485126
-0.484684
-0.484097
-0.483436
-0.482769
-0.482171
1.19811
1.24896
1.29974
1.35035
1.40038
1.4494
1.49704
1.54289
1.58655
1.62766
1.66586
1.7008
1.73219
1.75981
1.78352
1.80339
1.81976
1.83333
1.84507
1.85621
1.8696
1.88716
1.18988
1.24042
1.29057
1.34054
1.38988
1.43819
1.48507
1.53014
1.573
1.61328
1.65064
1.68472
1.71526
1.74202
1.76488
1.78395
1.79957
1.81249
1.82372
1.83451
1.84773
1.86523
1.16965
1.2195
1.26835
1.31707
1.36512
1.41207
1.45756
1.50119
1.54258
1.58135
1.61715
1.64966
1.6786
1.70374
1.725
1.74249
1.75665
1.7683
1.77852
1.78862
1.80147
1.81883
1.14063
1.18942
1.23632
1.28311
1.32914
1.37399
1.4173
1.45867
1.49774
1.53413
1.56751
1.59755
1.62397
1.64659
1.66534
1.68041
1.6923
1.70195
1.71059
1.71962
1.73188
1.74899
1.10215
1.14953
1.19386
1.23814
1.28156
1.32368
1.36415
1.40261
1.43866
1.47197
1.50218
1.52899
1.55213
1.57144
1.58688
1.59873
1.60761
1.61462
1.62115
1.62872
1.64016
1.6569
1.05593
1.10153
1.14272
1.18393
1.22414
1.26291
1.29991
1.33477
1.36712
1.39662
1.42293
1.44575
1.46484
1.48005
1.49141
1.49926
1.50439
1.5081
1.51197
1.51769
1.52807
1.54428
1.00291
1.04641
1.08395
1.12162
1.15812
1.19301
1.22599
1.25669
1.28475
1.30983
1.3316
1.34978
1.36412
1.37451
1.38105
1.38417
1.38485
1.3846
1.38527
1.38873
1.39776
1.41328
0.944848
0.985899
1.01937
1.05309
1.08542
1.11596
1.14442
1.17043
1.19364
1.21372
1.23036
1.24326
1.25221
1.25711
1.25812
1.25582
1.25134
1.2465
1.24343
1.2442
1.25158
1.26618
0.883249
0.921517
0.950594
0.980049
1.00789
1.03373
1.05731
1.07825
1.09621
1.11085
1.12187
1.12899
1.132
1.13082
1.12568
1.11728
1.107
1.09691
1.08952
1.08714
1.09252
1.1059
0.820084
0.855276
0.879736
0.904675
0.927724
0.94855
0.966896
0.982385
0.994679
1.00345
1.0084
1.00924
1.00579
0.997985
0.986116
0.971016
0.954288
0.938361
0.926091
0.920114
0.923117
0.93498
0.756734
0.788515
0.808297
0.828651
0.846832
0.86256
0.875574
0.885492
0.891971
0.894685
0.893323
0.88761
0.877346
0.862503
0.843417
0.821057
0.797274
0.77486
0.757106
0.746989
0.747174
0.757115
0.695405
0.723485
0.738538
0.754143
0.767267
0.777685
0.785126
0.789203
0.789574
0.785911
0.777907
0.765286
0.747851
0.725591
0.698892
0.668853
0.637575
0.608228
0.584558
0.56992
0.566925
0.57453
0.636455
0.660489
0.671237
0.682362
0.690724
0.696131
0.69829
0.696797
0.691297
0.681445
0.666917
0.647421
0.622743
0.592865
0.558209
0.519995
0.480592
0.443603
0.413313
0.39354
0.38686
0.391665
0.583165
0.602178
0.60854
0.614952
0.618335
0.618483
0.615072
0.607696
0.595995
0.579622
0.558252
0.531597
0.499454
0.461823
0.419175
0.372856
0.325482
0.281042
0.244294
0.219452
0.208951
0.210479
0.533314
0.547225
0.550606
0.552961
0.552203
0.54798
0.5399
0.527536
0.510489
0.488371
0.460815
0.427483
0.388117
0.34267
0.291601
0.23634
0.179796
0.126517
0.0820297
0.0512587
0.036662
0.0349712
0.495529
0.497693
0.498096
0.496156
0.490444
0.480955
0.467228
0.44886
0.425459
0.396639
0.362041
0.321343
0.27433
0.221055
0.162158
0.0993639
0.0359622
-0.0231263
-0.0721505
-0.106208
-0.123382
-0.127727
0.455703
0.448222
0.443678
0.434535
0.421506
0.404364
0.382646
0.356036
0.324198
0.286818
0.243622
0.194411
0.139164
0.0782499
0.0127737
-0.0550065
-0.121422
-0.181623
-0.230522
-0.264283
-0.282255
-0.289207
0.408331
0.393944
0.384618
0.368994
0.349761
0.326026
0.297483
0.263856
0.224849
0.180216
0.129764
0.0734109
0.011317
-0.0558696
-0.126663
-0.198398
-0.267137
-0.328117
-0.376784
-0.410166
-0.428757
-0.437951
0.358156
0.337991
0.323458
0.301588
0.276373
0.246334
0.211417
0.171341
0.125863
0.0747959
0.0180185
-0.0444341
-0.112209
-0.184368
-0.259049
-0.33323
-0.402815
-0.463258
-0.510649
-0.542917
-0.561566
-0.572317
0.305996
0.280761
0.260977
0.233355
0.202549
0.166693
0.125966
0.0800694
0.0288276
-0.0278861
-0.090101
-0.157637
-0.229914
-0.30567
-0.38268
-0.457643
-0.526462
-0.584998
-0.630114
-0.660652
-0.678947
-0.690775
0.252936
0.223281
0.198448
0.165676
0.129803
0.0887858
0.0429754
-0.00793708
-0.0640572
-0.125447
-0.192031
-0.263461
-0.338906
-0.41678
-0.494544
-0.568742
-0.635435
-0.691043
-0.733248
-0.761733
-0.779449
-0.79202
0.20016
0.166697
0.13718
0.099908
0.0595707
0.0141142
-0.0359981
-0.091069
-0.151133
-0.216179
-0.286011
-0.36009
-0.437322
-0.515819
-0.592808
-0.664814
-0.728222
-0.78011
-0.818985
-0.845246
-0.862256
-0.875324
0.148484
0.111818
0.0781137
0.037041
-0.00707664
-0.0561826
-0.109756
-0.168074
-0.231101
-0.29874
-0.370654
-0.4461
-0.523717
-0.601362
-0.67613
-0.74468
-0.803858
-0.85147
-0.886788
-0.910785
-0.927037
-0.940426
0.0989034
0.059632
0.0223245
-0.0218359
-0.0690128
-0.120962
-0.177144
-0.237792
-0.302796
-0.37196
-0.444788
-0.520319
-0.596949
-0.672347
-0.743603
-0.807651
-0.861912
-0.904927
-0.936646
-0.958447
-0.973948
-0.98753
0.0517422
0.0104503
-0.029819
-0.0763404
-0.125821
-0.179786
-0.237703
-0.299746
-0.365726
-0.43533
-0.507889
-0.582229
-0.656539
-0.728397
-0.795018
-0.853746
-0.902642
-0.940948
-0.969162
-0.988907
-1.0037
-1.01736
0.00778368
-0.0349639
-0.0775335
-0.125716
-0.176767
-0.231964
-0.290791
-0.353347
-0.419355
-0.488369
-0.559537
-0.631488
-0.70227
-0.769475
-0.830582
-0.883445
-0.926786
-0.960469
-0.985394
-1.00328
-1.0174
-1.03106
-0.0333361
-0.0770131
-0.121227
-0.170387
-0.222282
-0.277935
-0.336852
-0.399042
-0.464129
-0.531518
-0.60018
-0.668585
-0.734725
-0.796332
-0.851266
-0.89796
-0.935766
-0.965057
-0.98698
-1.00321
-1.01672
-1.03026
-0.0708499
-0.114953
-0.160179
-0.209696
-0.261779
-0.317202
-0.375485
-0.436535
-0.499858
-0.564707
-0.629891
-0.693777
-0.754402
-0.80976
-0.858186
-0.898708
-0.931235
-0.956508
-0.975777
-0.990564
-1.00349
-1.0168
-0.105959
-0.150055
-0.195715
-0.24501
-0.296654
-0.351181
-0.408114
-0.467243
-0.527948
-0.589331
-0.650078
-0.708539
-0.762913
-0.811569
-0.853374
-0.887921
-0.915562
-0.937254
-0.95422
-0.967755
-0.98009
-0.993019
-0.137296
-0.180965
-0.226523
-0.275085
-0.325754
-0.378827
-0.433817
-0.490383
-0.547779
-0.604975
-0.660598
-0.713079
-0.760885
-0.802831
-0.838312
-0.867395
-0.890731
-0.909351
-0.924347
-0.936749
-0.948394
-0.960682
-0.119459
-0.163541
-0.209625
-0.258778
-0.310123
-0.363918
-0.419668
-0.476994
-0.535111
-0.592945
-0.64908
-0.701913
-0.749908
-0.791893
-0.827296
-0.856222
-0.879358
-0.897757
-0.912529
-0.924712
-0.936125
-0.948152
-0.0879707
-0.132498
-0.178697
-0.228572
-0.280874
-0.336096
-0.39376
-0.453622
-0.515029
-0.577036
-0.638284
-0.697083
-0.751617
-0.800265
-0.84193
-0.876252
-0.903627
-0.925047
-0.941751
-0.955042
-0.967127
-0.979775
-0.0529352
-0.097483
-0.143265
-0.193354
-0.246079
-0.302173
-0.361157
-0.422912
-0.486916
-0.552376
-0.618054
-0.682271
-0.743036
-0.798347
-0.846572
-0.886794
-0.91898
-0.943916
-0.962878
-0.977396
-0.990059
-1.00307
-0.015772
-0.0599064
-0.104701
-0.154429
-0.206956
-0.263259
-0.32285
-0.385719
-0.451462
-0.519448
-0.588599
-0.657333
-0.723605
-0.785138
-0.83982
-0.886143
-0.923528
-0.952409
-0.973971
-0.989899
-1.00314
-1.01638
0.0247198
-0.0184935
-0.0616755
-0.110427
-0.162107
-0.217939
-0.27742
-0.340633
-0.407279
-0.476881
-0.548539
-0.62083
-0.691753
-0.75888
-0.819705
-0.872141
-0.914985
-0.948184
-0.972689
-0.990239
-1.00409
-1.01745
0.0677658
0.026
-0.0149208
-0.062021
-0.112134
-0.166729
-0.22529
-0.287975
-0.354582
-0.424772
-0.497832
-0.572534
-0.647016
-0.718816
-0.785155
-0.843422
-0.891764
-0.929516
-0.95725
-0.976627
-0.991129
-1.00452
0.113747
0.0739933
0.0359895
-0.00876756
-0.0565901
-0.109175
-0.166
-0.227288
-0.292919
-0.362676
-0.436027
-0.51196
-0.588811
-0.664202
-0.735208
-0.798796
-0.852471
-0.894878
-0.926064
-0.947462
-0.962674
-0.976005
0.161911
0.124751
0.090299
0.0486017
0.00381622
-0.0459428
-0.100171
-0.159141
-0.222807
-0.29106
-0.36353
-0.439429
-0.517337
-0.595054
-0.669642
-0.737774
-0.79637
-0.843346
-0.87809
-0.901656
-0.91762
-0.93079
0.211978
0.178001
0.147683
0.109748
0.0687121
0.022573
-0.0282195
-0.0839662
-0.144697
-0.210389
-0.280823
-0.355423
-0.433035
-0.511709
-0.588624
-0.660297
-0.72317
-0.774429
-0.812713
-0.838523
-0.855253
-0.868141
0.263009
0.23281
0.207123
0.173638
0.137028
0.0952872
0.048759
-0.00286766
-0.0596949
-0.121778
-0.189024
-0.261054
-0.336983
-0.415163
-0.492991
-0.566985
-0.633237
-0.688265
-0.72989
-0.757924
-0.775375
-0.787817
0.314254
0.288428
0.26774
0.239345
0.207756
0.171127
0.129634
0.0829728
0.0309704
-0.0264965
-0.0894454
-0.157672
-0.230551
-0.306758
-0.383999
-0.458925
-0.527443
-0.585495
-0.630079
-0.660186
-0.678245
-0.690004
0.364602
0.343781
0.328301
0.305591
0.279542
0.248673
0.212932
0.172032
0.12573
0.0738378
0.0162441
-0.0469987
-0.115503
-0.188271
-0.263371
-0.337715
-0.407184
-0.467287
-0.514236
-0.546122
-0.564579
-0.575335
0.413026
0.397889
0.387587
0.371052
0.35093
0.326304
0.296874
0.262354
0.222449
0.176912
0.125553
0.0683026
0.00534895
-0.0626106
-0.13402
-0.206137
-0.274979
-0.335805
-0.384164
-0.417245
-0.435707
-0.444992
0.458767
0.450367
0.444825
0.434701
0.420727
0.402641
0.379976
0.352411
0.319606
0.281244
0.237054
0.186843
0.13061
0.0687629
0.00247281
-0.0659221
-0.132685
-0.192956
-0.241723
-0.275298
-0.293225
-0.300368
0.497418
0.498483
0.49788
0.494909
0.488183
0.477685
0.46294
0.443541
0.41909
0.3892
0.353506
0.311691
0.263553
0.209169
0.149238
0.085564
0.0215259
-0.0379065
-0.0870205
-0.121046
-0.138279
-0.142926
0.533456
0.546053
0.548416
0.549754
0.547956
0.542691
0.533552
0.520108
0.501954
0.478699
0.449974
0.415443
0.374857
0.328192
0.275958
0.219663
0.162305
0.108492
0.063736
0.032851
0.0180885
0.0160038
0.58112
0.598746
0.604095
0.609477
0.611797
0.610879
0.60638
0.597889
0.585042
0.567489
0.544904
0.517002
0.483586
0.444682
0.400806
0.353373
0.305082
0.259977
0.22281
0.197716
0.186947
0.188014
0.632488
0.65517
0.664898
0.674996
0.682283
0.686608
0.687655
0.685017
0.678336
0.667265
0.651477
0.630685
0.604682
0.573471
0.537518
0.498107
0.457684
0.419907
0.389069
0.368926
0.361889
0.366183
0.689597
0.716378
0.730406
0.744987
0.757037
0.766368
0.772689
0.77561
0.774787
0.76989
0.760608
0.746671
0.72789
0.704273
0.676245
0.644964
0.612601
0.582382
0.558066
0.54297
0.539557
0.546625
0.749399
0.779986
0.79876
0.81811
0.835234
0.849885
0.861787
0.870552
0.875839
0.877316
0.874675
0.867644
0.856029
0.839821
0.819392
0.795763
0.770851
0.747501
0.729032
0.718391
0.718119
0.727518
0.811539
0.845639
0.869114
0.893077
0.915098
0.934873
0.952132
0.966494
0.977619
0.98518
0.988872
0.988424
0.983642
0.974498
0.961304
0.944942
0.927074
0.910185
0.897161
0.890625
0.893154
0.904489
0.873908
0.911202
0.939339
0.967865
0.994728
1.01957
1.0421
1.06196
1.07879
1.09227
1.10208
1.10796
1.10968
1.10721
1.10079
1.09117
1.07976
1.06871
1.06055
1.0576
1.06251
1.0754
0.935142
0.975335
1.00793
1.04077
1.07219
1.10178
1.12927
1.15426
1.17642
1.19541
1.21091
1.22264
1.23039
1.23407
1.23387
1.2304
1.22485
1.21908
1.21526
1.21548
1.2224
1.23654
0.993305
1.03606
1.0728
1.10968
1.14535
1.17937
1.21146
1.24123
1.26832
1.2924
1.31313
1.33024
1.34348
1.35276
1.35818
1.36023
1.35991
1.35879
1.35876
1.36169
1.3703
1.38541
1.04687
1.09186
1.13234
1.17285
1.21232
1.25032
1.28653
1.32057
1.35206
1.38067
1.40606
1.42794
1.44605
1.46027
1.47063
1.47753
1.48177
1.48469
1.48793
1.49317
1.50317
1.51903
1.09408
1.14095
1.18468
1.22837
1.27116
1.31264
1.35244
1.39019
1.42552
1.45807
1.4875
1.5135
1.53581
1.55427
1.56888
1.5799
1.58802
1.59436
1.60033
1.60749
1.61861
1.63505
1.13392
1.18232
1.22874
1.27505
1.32059
1.36492
1.40768
1.4485
1.48698
1.52277
1.55551
1.5849
1.61066
1.63261
1.65068
1.66509
1.67636
1.68547
1.69366
1.70235
1.71435
1.73123
1.16463
1.21419
1.2627
1.31107
1.35875
1.40533
1.45042
1.49364
1.5346
1.57293
1.60827
1.64031
1.66875
1.6934
1.71417
1.73118
1.74489
1.75613
1.76601
1.77587
1.78854
1.80573
1.18677
1.23714
1.28708
1.33684
1.38596
1.43403
1.48067
1.52549
1.56809
1.60811
1.64518
1.67898
1.70922
1.73567
1.75824
1.777
1.79235
1.80502
1.81605
1.82669
1.8398
1.85719
1.19705
1.24785
1.29855
1.3491
1.39905
1.448
1.49555
1.54132
1.5849
1.62592
1.66402
1.69886
1.73015
1.75767
1.78128
1.80105
1.81733
1.83082
1.84249
1.85357
1.86693
1.88446
-0.148658
-0.17726
-0.202357
-0.226182
-0.248349
-0.269105
-0.28857
-0.306979
-0.324267
-0.340733
-0.355859
-0.370346
-0.382274
-0.394805
-0.400009
-0.415157
-0.435955
-0.445762
-0.452865
-0.456823
-0.458781
-0.45907
-0.458077
-0.45619
-0.453846
-0.451488
-0.449425
-0.447988
-0.44706
-0.447064
-0.191829
-0.219209
-0.242859
-0.26503
-0.285452
-0.304404
-0.322015
-0.338618
-0.354046
-0.368781
-0.382008
-0.394827
-0.404876
-0.415675
-0.420733
-0.43275
-0.449725
-0.457554
-0.463013
-0.465524
-0.466158
-0.465312
-0.463463
-0.461018
-0.45838
-0.455934
-0.45392
-0.452616
-0.451831
-0.451996
-0.237261
-0.263612
-0.285943
-0.306531
-0.32521
-0.342286
-0.357899
-0.372434
-0.385673
-0.398192
-0.409031
-0.41956
-0.427063
-0.435652
-0.437923
-0.447106
-0.459368
-0.464509
-0.467923
-0.469294
-0.469413
-0.468436
-0.466637
-0.464314
-0.461828
-0.459546
-0.457699
-0.456559
-0.4559
-0.456233
-0.285175
-0.309899
-0.330347
-0.348783
-0.365148
-0.379755
-0.392769
-0.404597
-0.415035
-0.424689
-0.432688
-0.440403
-0.445474
-0.451656
-0.452583
-0.459368
-0.467774
-0.471188
-0.473331
-0.473875
-0.473364
-0.47193
-0.469843
-0.467392
-0.464903
-0.462709
-0.460998
-0.460015
-0.459485
-0.459982
-0.335021
-0.357838
-0.376109
-0.392064
-0.405742
-0.417461
-0.427421
-0.436044
-0.443205
-0.449518
-0.454318
-0.458905
-0.461356
-0.464996
-0.464377
-0.468876
-0.474064
-0.475961
-0.476968
-0.476857
-0.475961
-0.474338
-0.472193
-0.469779
-0.467394
-0.465345
-0.463796
-0.462976
-0.462577
-0.463237
-0.386833
-0.407227
-0.422785
-0.435685
-0.446066
-0.45426
-0.460538
-0.465361
-0.468749
-0.471342
-0.472753
-0.474163
-0.474153
-0.475473
-0.4737
-0.476258
-0.479143
-0.480011
-0.480245
-0.479641
-0.478386
-0.47653
-0.474267
-0.471838
-0.46952
-0.46759
-0.466187
-0.465518
-0.465245
-0.466063
-0.440086
-0.457509
-0.469785
-0.479035
-0.485509
-0.489593
-0.49167
-0.492285
-0.491641
-0.490422
-0.488501
-0.486912
-0.484643
-0.483887
-0.481086
-0.482009
-0.483264
-0.483314
-0.482914
-0.48189
-0.480337
-0.478301
-0.475956
-0.473533
-0.471287
-0.469472
-0.468206
-0.467679
-0.467526
-0.468501
-0.494267
-0.508037
-0.516346
-0.521267
-0.523195
-0.522627
-0.520105
-0.516291
-0.511584
-0.506699
-0.501702
-0.49746
-0.493244
-0.490739
-0.487073
-0.486658
-0.486802
-0.486207
-0.485291
-0.483888
-0.482049
-0.479825
-0.477387
-0.474953
-0.472762
-0.471044
-0.469898
-0.4695
-0.46946
-0.470592
-0.548479
-0.557838
-0.561467
-0.561426
-0.558295
-0.552738
-0.545479
-0.53731
-0.528781
-0.520598
-0.512927
-0.506444
-0.50059
-0.496617
-0.492171
-0.490648
-0.489988
-0.488817
-0.487428
-0.485656
-0.483536
-0.481125
-0.478587
-0.476132
-0.47398
-0.472341
-0.471299
-0.471014
-0.47108
-0.472371
-0.601573
-0.605758
-0.604066
-0.598584
-0.590113
-0.579509
-0.567672
-0.555482
-0.543567
-0.532573
-0.522676
-0.514355
-0.507141
-0.501937
-0.496762
-0.494294
-0.49299
-0.491265
-0.489417
-0.48727
-0.484859
-0.48225
-0.4796
-0.477107
-0.474975
-0.473395
-0.472436
-0.472249
-0.472411
-0.473864
-0.652169
-0.65055
-0.643112
-0.631999
-0.618232
-0.602848
-0.586861
-0.571178
-0.556424
-0.543132
-0.531432
-0.521616
-0.513259
-0.506997
-0.501115
-0.497803
-0.495906
-0.493621
-0.491303
-0.488765
-0.486052
-0.483231
-0.480453
-0.477904
-0.475771
-0.474229
-0.473334
-0.473229
-0.473475
-0.47509
-0.698865
-0.691103
-0.677839
-0.661266
-0.642587
-0.622959
-0.603435
-0.584873
-0.567831
-0.552707
-0.539554
-0.528509
-0.519167
-0.511965
-0.505386
-0.501289
-0.498789
-0.495921
-0.493114
-0.490168
-0.487138
-0.484091
-0.481169
-0.478544
-0.47639
-0.474864
-0.474013
-0.473971
-0.474288
-0.476061
-0.740488
-0.726655
-0.70788
-0.68637
-0.663434
-0.640269
-0.617886
-0.597047
-0.578204
-0.561624
-0.547282
-0.535198
-0.524979
-0.516917
-0.509648
-0.504795
-0.501651
-0.49818
-0.494862
-0.491493
-0.488133
-0.484845
-0.481761
-0.479042
-0.476845
-0.475313
-0.474485
-0.47449
-0.474863
-0.476782
-0.776331
-0.756932
-0.733319
-0.707652
-0.68126
-0.655306
-0.630708
-0.608108
-0.587849
-0.570088
-0.55474
-0.541744
-0.53072
-0.521851
-0.513905
-0.508314
-0.504477
-0.500385
-0.496541
-0.49274
-0.489039
-0.485498
-0.482238
-0.479404
-0.477143
-0.475586
-0.474763
-0.474797
-0.475211
-0.477256
-0.806276
-0.782161
-0.754611
-0.725679
-0.696643
-0.668586
-0.642314
-0.618352
-0.596955
-0.578198
-0.561965
-0.548137
-0.536355
-0.526718
-0.518116
-0.511799
-0.50723
-0.502512
-0.498135
-0.493898
-0.489852
-0.486049
-0.482598
-0.479633
-0.47729
-0.475688
-0.474853
-0.474903
-0.475344
-0.477485
-0.830753
-0.802957
-0.772438
-0.741102
-0.710142
-0.680542
-0.653003
-0.627961
-0.605608
-0.585974
-0.568925
-0.554317
-0.541809
-0.531437
-0.522207
-0.515184
-0.509859
-0.504521
-0.499617
-0.494949
-0.49056
-0.486489
-0.482836
-0.479726
-0.477283
-0.475622
-0.474763
-0.474817
-0.475277
-0.477474
-0.85058
-0.820144
-0.787546
-0.754538
-0.722219
-0.691486
-0.662959
-0.637018
-0.61382
-0.593376
-0.575553
-0.560198
-0.546991
-0.535915
-0.52609
-0.518388
-0.512305
-0.506371
-0.500956
-0.495874
-0.491147
-0.486809
-0.482947
-0.479677
-0.477119
-0.475386
-0.474494
-0.47455
-0.475029
-0.477236
-0.866754
-0.834582
-0.800625
-0.766496
-0.733215
-0.701618
-0.672277
-0.645541
-0.62156
-0.600343
-0.581771
-0.565692
-0.551808
-0.540058
-0.529676
-0.521333
-0.514512
-0.508019
-0.502124
-0.49665
-0.4916
-0.486997
-0.48292
-0.479479
-0.476794
-0.474978
-0.47405
-0.47411
-0.474619
-0.476799
-0.880193
-0.84698
-0.812175
-0.777293
-0.743302
-0.711001
-0.680943
-0.653471
-0.628742
-0.606778
-0.587478
-0.5707
-0.556167
-0.54378
-0.53288
-0.523945
-0.516433
-0.509429
-0.503096
-0.497262
-0.491908
-0.487048
-0.482753
-0.479133
-0.476309
-0.474402
-0.473437
-0.473512
-0.474078
-0.476211
-0.891663
-0.857873
-0.822532
-0.787104
-0.752534
-0.719609
-0.68888
-0.660702
-0.635248
-0.61256
-0.592558
-0.57511
-0.559962
-0.546985
-0.535611
-0.526149
-0.51802
-0.510572
-0.503857
-0.497703
-0.49207
-0.486964
-0.482452
-0.478645
-0.475674
-0.473668
-0.472667
-0.472775
-0.47344
-0.475546
-0.902656
-0.868508
-0.832713
-0.79676
-0.761593
-0.728004
-0.696556
-0.667622
-0.641398
-0.617948
-0.597215
-0.579081
-0.563312
-0.549756
-0.537919
-0.527974
-0.519309
-0.511473
-0.504421
-0.497976
-0.492076
-0.486718
-0.481969
-0.477948
-0.474799
-0.472672
-0.471631
-0.471797
-0.472648
-0.47487
-0.914316
-0.879839
-0.843504
-0.806922
-0.771054
-0.736698
-0.704436
-0.674661
-0.647593
-0.623316
-0.601794
-0.582927
-0.566497
-0.552349
-0.540025
-0.529597
-0.520435
-0.512225
-0.504852
-0.498121
-0.491944
-0.486309
-0.481285
-0.477005
-0.473635
-0.471353
-0.470255
-0.470504
-0.471633
-0.474258
0.0453658
0.0451457
0.0449353
0.0446216
0.0442905
0.0439305
0.043589
0.0432886
0.0430687
0.0429612
0.0430002
0.0432138
0.0436257
0.0442525
0.0451037
0.0461812
0.04748
0.0489887
0.05069
0.0525618
0.0545775
0.056707
0.0589161
0.0611693
0.0434691
0.0432719
0.0430699
0.0427706
0.0424501
0.042103
0.0417749
0.0414903
0.0412884
0.0412019
0.0412647
0.0415051
0.0419468
0.0426061
0.0434922
0.0446072
0.0459457
0.0474963
0.0492416
0.0511594
0.0532231
0.0554027
0.0576637
0.0599705
0.0416541
0.0414797
0.0412869
0.041003
0.0406947
0.0403622
0.0400489
0.0397814
0.0395986
0.0395336
0.0396204
0.0398874
0.0403578
0.0410482
0.0419675
0.0431177
0.0444934
0.0460831
0.0478696
0.0498306
0.0519394
0.0541662
0.0564765
0.0588346
0.0399215
0.0397696
0.0395867
0.0393194
0.0390246
0.0387081
0.0384113
0.0381621
0.0379993
0.0379564
0.0380673
0.0383603
0.0388586
0.0395785
0.0405291
0.0417123
0.0431227
0.0447489
0.0465737
0.048575
0.0507263
0.0529977
0.0553546
0.0577616
0.0382712
0.0381413
0.0379691
0.0377193
0.0374394
0.0371404
0.0368614
0.0366318
0.0364899
0.0364697
0.0366046
0.0369231
0.0374482
0.0381962
0.0391761
0.04039
0.0418326
0.0434927
0.0453532
0.0473921
0.0495832
0.0518965
0.0542978
0.0567516
0.0367025
0.036594
0.0364332
0.0362016
0.035938
0.0356579
0.0353979
0.0351892
0.035069
0.0350718
0.0352307
0.035574
0.0361248
0.0368993
0.0379067
0.0391491
0.0406215
0.0423129
0.0442065
0.0462805
0.0485088
0.0508617
0.0533052
0.0558037
0.0352138
0.035126
0.0349772
0.0347646
0.0345185
0.0342584
0.034019
0.033832
0.0337344
0.0337604
0.0339431
0.0343107
0.034886
0.0356855
0.0367185
0.0379872
0.0394871
0.0412075
0.0431316
0.0452383
0.0475015
0.0498919
0.0523755
0.0549169
0.0338032
0.0337352
0.0335989
0.0334058
0.0331783
0.0329395
0.0327216
0.0325574
0.0324829
0.0325324
0.0327387
0.0331298
0.0337286
0.0345515
0.0356082
0.0369013
0.0384265
0.0401735
0.042126
0.0442631
0.0465592
0.0489851
0.051507
0.0540898
0.0324678
0.0324186
0.0322952
0.0321222
0.0319142
0.0316976
0.0315023
0.0313617
0.0313108
0.0313841
0.0316135
0.0320274
0.0326485
0.0334935
0.0345722
0.0358877
0.0374362
0.0392078
0.0411867
0.0433522
0.0456792
0.0481389
0.0506976
0.0533204
0.0312042
0.0311727
0.0310626
0.0309098
0.0307222
0.0305287
0.0303569
0.0302406
0.0302138
0.0303107
0.0305631
0.030999
0.0316413
0.0325068
0.033606
0.0349422
0.0365122
0.0383065
0.0403099
0.0425023
0.0448586
0.0473506
0.0499449
0.0526065
0.0300085
0.0299935
0.0298968
0.0297645
0.0295979
0.0294282
0.0292806
0.0291891
0.0291866
0.0293072
0.029582
0.0300392
0.0307016
0.0315865
0.0327047
0.03406
0.0356499
0.0374654
0.0394919
0.0417095
0.0440939
0.0466171
0.0492458
0.0519454
0.0288762
0.0288763
0.0287932
0.0286813
0.0285362
0.0283908
0.028268
0.0282016
0.0282237
0.0283677
0.0286646
0.0291423
0.0298239
0.030727
0.0318628
0.033236
0.0348444
0.0366799
0.0387281
0.04097
0.0433814
0.0459348
0.0485973
0.0513344
0.0278023
0.0278161
0.0277465
0.0276549
0.0275317
0.0274108
0.0273131
0.0272722
0.0273187
0.027486
0.0278045
0.028302
0.0290019
0.0299221
0.0310746
0.0324645
0.0340904
0.0359448
0.0380139
0.0402792
0.042717
0.0453001
0.0479959
0.0507703
0.0267813
0.0268073
0.0267511
0.0266795
0.0265782
0.026482
0.0264097
0.0263942
0.0264652
0.0266554
0.026995
0.0275117
0.0282291
0.0291656
0.0303339
0.0317397
0.0333824
0.035255
0.0373444
0.0396325
0.0420963
0.0447089
0.0474379
0.0502494
0.0258075
0.0258442
0.0258012
0.025749
0.0256696
0.0255981
0.0255511
0.0255609
0.0256561
0.0258689
0.026229
0.0267643
0.0274985
0.0284508
0.0296342
0.0310554
0.0327144
0.0346049
0.0367143
0.0390252
0.0415149
0.0441569
0.0469194
0.0497684
0.0248748
0.0249208
0.0248906
0.0248572
0.0247994
0.0247522
0.0247303
0.0247651
0.0248842
0.0251192
0.0254994
0.0260527
0.0268033
0.0277709
0.0289691
0.0304055
0.0320806
0.0339889
0.0361184
0.0384522
0.040968
0.0436399
0.0464362
0.0493232
0.023977
0.0240307
0.0240129
0.0239974
0.0239609
0.0239374
0.0239402
0.0239997
0.0241422
0.0243989
0.0247987
0.0253697
0.0261363
0.0271189
0.0283319
0.0297834
0.0314749
0.0334013
0.0355512
0.0379084
0.0404509
0.0431533
0.0459842
0.04891
0.0231077
0.0231676
0.0231616
0.0231632
0.0231472
0.0231469
0.0231738
0.0232573
0.0234228
0.0237006
0.0241195
0.0247079
0.0254904
0.0264881