/*--------------------------------*- C++ -*----------------------------------*\
| =========                 |                                                 |
| \\      /  F ield         | OpenFOAM Extend Project: Open source CFD        |
|  \\    /   O peration     | Version:  1.6-ext                               |
|   \\  /    A nd           | Web:      www.extend-project.de                 |
|    \\/     M anipulation  |                                                 |
\*---------------------------------------------------------------------------*/
FoamFile
{
    version     2.0;
    format      ascii;
    class       surfaceScalarField;
    location    "1.1";
    object      phi;
}
// * * * * * * * * * * * * * * * * * * * * * * * * * * * * * * * * * * * * * //

dimensions      [0 3 -1 0 0 0 0];

internalField   nonuniform List<scalar> 
41420
(
-0.000127228
0.000396751
-0.000397516
0.000127993
-0.000126004
0.000377811
-0.000379034
-0.000124355
0.000359218
-0.000360867
-0.000122279
0.000340874
-0.000342949
-0.000119714
0.000322775
-0.00032534
-0.000116508
0.000304706
-0.000307912
-0.000112422
0.000286316
-0.000290402
-0.000107162
0.000267134
-0.000272394
-0.000100453
0.000246675
-0.000253384
-9.2143e-05
0.000224598
-0.000232909
-8.22888e-05
0.000200851
-0.000210705
-7.12024e-05
0.000175763
-0.000186849
-5.94163e-05
0.000150022
-0.000161808
-4.75902e-05
0.000124551
-0.000136377
-3.63816e-05
0.000100314
-0.000111523
-2.63383e-05
7.81422e-05
-8.81855e-05
-1.78304e-05
5.86082e-05
-6.71162e-05
-1.10398e-05
4.19943e-05
-4.87848e-05
-5.98657e-06
2.83194e-05
-3.33726e-05
-2.5753e-06
1.74054e-05
-2.08167e-05
-6.43379e-07
8.95075e-06
-1.08827e-05
2.59782e-06
-3.2412e-06
-0.000135061
0.00039581
0.000136002
-0.000133639
0.000376388
-0.000131752
0.000357331
-0.000129364
0.000338486
-0.00012636
0.00031977
-0.000122525
0.000300871
-0.000117573
0.000281364
-0.000111202
0.000260763
-0.000103192
0.000238665
-9.35072e-05
0.000214914
-8.23635e-05
0.000189708
-7.0226e-05
0.000163625
-5.7734e-05
0.00013753
-4.55778e-05
0.000112394
-3.43744e-05
8.91109e-05
-2.45798e-05
6.83476e-05
-1.64565e-05
5.04849e-05
-1.0087e-05
3.56248e-05
-5.41688e-06
2.36492e-05
-2.30391e-06
1.42924e-05
-5.63053e-07
7.20989e-06
2.03477e-06
-0.000149959
0.000394193
0.000151576
-0.000147835
0.000374264
-0.000145193
0.000354689
-0.000141941
0.000335234
-0.000137894
0.000315724
-0.000132773
0.00029575
-0.000126256
0.000274847
-0.000118067
0.000252574
-0.000108092
0.000228691
-9.64638e-05
0.000203285
-8.35856e-05
0.000176829
-7.00802e-05
0.00015012
-5.66705e-05
0.00012412
-4.40436e-05
9.97675e-05
-3.2742e-05
7.78093e-05
-2.31102e-05
5.87158e-05
-1.52938e-05
4.26685e-05
-9.27722e-06
2.96082e-05
-4.93435e-06
1.93063e-05
-2.0787e-06
1.14368e-05
-5.0196e-07
5.63315e-06
1.53281e-06
-0.000164253
0.000391924
0.000166522
-0.000161424
0.000371435
-0.000157977
0.000351242
-0.000153745
0.000331002
-0.000148467
0.000310446
-0.000141808
0.000289091
-0.000133452
0.000266491
-0.000123214
0.000242336
-0.000111145
0.000216622
-9.75852e-05
0.000189725
-8.31308e-05
0.000162375
-6.85257e-05
0.000135515
-5.45191e-05
0.000110114
-4.1737e-05
8.69853e-05
-3.06072e-05
6.66795e-05
-2.13433e-05
4.94519e-05
-1.39747e-05
3.52999e-05
-8.39759e-06
2.40311e-05
-4.42884e-06
1.53376e-05
-1.85091e-06
8.85886e-06
-4.43012e-07
4.22525e-06
1.0898e-06
-0.000177221
0.000389047
0.000180097
-0.000173688
0.000367902
-0.00016937
0.000346925
-0.000164012
0.000325644
-0.00015728
0.000303714
-0.000148823
0.000280634
-0.000138395
0.000256063
-0.000125973
0.000229914
-0.000111831
0.00020248
-9.65312e-05
0.000174425
-8.08282e-05
0.000146672
-6.55243e-05
0.000120211
-5.1324e-05
9.59134e-05
-3.87387e-05
7.44001e-05
-2.80538e-05
5.59946e-05
-1.9349e-05
4.07471e-05
-1.25483e-05
2.84993e-05
-7.47762e-06
1.89604e-05
-3.91431e-06
1.17743e-05
-1.62439e-06
6.56894e-06
-3.85704e-07
2.98657e-06
7.04094e-07
-0.000188779
0.000385583
0.000192243
-0.000184491
0.000363614
-0.000179158
0.000341591
-0.000172438
0.000318924
-0.000163962
0.000295237
-0.000153427
0.000270099
-0.000140741
0.000243377
-0.000126113
0.000215286
-0.000110068
0.000186435
-9.33656e-05
0.000157722
-7.68523e-05
0.000130159
-6.13068e-05
0.000104665
-4.73222e-05
8.19288e-05
-3.52569e-05
6.23348e-05
-2.52446e-05
4.59823e-05
-1.72418e-05
3.27443e-05
-1.10878e-05
2.23452e-05
-6.55884e-06
1.44315e-05
-3.41082e-06
8.62625e-06
-1.40658e-06
4.56471e-06
-3.31525e-07
1.91151e-06
3.72569e-07
-0.000198708
0.000381484
0.000202807
-0.000193527
0.000358433
-0.000186945
0.000335009
-0.000178557
0.000310536
-0.000168025
0.000284705
-0.000155187
0.000257261
-0.000140189
0.000228379
-0.000123513
0.000198611
-0.00010592
0.000168842
-8.82961e-05
0.000140098
-7.14897e-05
0.000113352
-5.61747e-05
8.93505e-05
-4.27834e-05
6.85376e-05
-3.15062e-05
5.10575e-05
-2.23349e-05
3.68111e-05
-1.51254e-05
2.55348e-05
-9.65626e-06
1.68761e-05
-5.676e-06
1.04512e-05
-2.93491e-06
5.88516e-06
-1.2036e-06
2.8334e-06
-2.81738e-07
9.89639e-07
9.08309e-08
-0.000206776
0.00037665
0.00021161
-0.00020048
0.000352137
-0.000192333
0.000326863
-0.000181938
0.000300141
-0.00016908
0.000271847
-0.00015384
0.000242021
-0.000136662
0.000211201
-0.000118298
0.000180247
-9.96723e-05
0.000150216
-8.17e-05
0.000122126
-6.51341e-05
9.67864e-05
-5.04817e-05
7.4698e-05
-3.79917e-05
5.60475e-05
-2.76945e-05
4.07604e-05
-1.94653e-05
2.85819e-05
-1.30874e-05
1.91569e-05
-8.30417e-06
1.20929e-05
-4.85536e-06
7.00239e-06
-2.49846e-06
3.52827e-06
-1.01966e-06
1.35459e-06
-2.37156e-07
2.07133e-07
-1.46325e-07
-0.000212593
0.000370836
0.000218407
-0.000204858
0.000344401
-0.00019479
0.000316795
-0.000182097
0.000287449
-0.000166799
0.000256549
-0.000149285
0.000224507
-0.000130302
0.000192218
-0.000110807
0.000160752
-9.17802e-05
0.000131189
-7.4056e-05
0.000104402
-5.82189e-05
8.09493e-05
-4.45788e-05
6.10579e-05
-3.3207e-05
4.46758e-05
-2.40005e-05
3.15539e-05
-1.67498e-05
2.13311e-05
-1.11955e-05
1.36026e-05
-7.06851e-06
7.96587e-06
-4.115e-06
4.04888e-06
-2.109e-06
1.52227e-06
-8.57104e-07
1.02696e-07
-1.98133e-07
-4.51837e-07
-3.44458e-07
-0.000215786
0.00036379
0.000222833
-0.000206263
0.000334878
-0.000193961
0.000304493
-0.000178814
0.000272302
-0.000161172
0.000238907
-0.000141757
0.000205092
-0.000121555
0.000172015
-0.000101609
0.000140806
-8.28361e-05
0.000112416
-6.59008e-05
8.74666e-05
-5.11798e-05
6.62282e-05
-3.87896e-05
4.86678e-05
-2.86523e-05
3.45385e-05
-2.05677e-05
2.34692e-05
-1.42753e-05
1.50387e-05
-9.49892e-06
8.82623e-06
-5.97503e-06
4.44198e-06
-3.46708e-06
1.54093e-06
-1.77141e-06
-1.73401e-07
-7.17401e-07
-9.5131e-07
-1.64896e-07
-1.00434e-06
-5.09355e-07
-0.000215804
0.000355054
0.00022454
-0.00020415
0.000323223
-0.000189444
0.000289787
-0.000171949
0.000254807
-0.000152359
0.000219317
-0.000131676
0.000184409
-0.000111001
0.00015134
-9.13327e-05
0.000121138
-7.34211e-05
9.45049e-05
-5.77136e-05
7.17591e-05
-4.43769e-05
5.28916e-05
-3.33644e-05
3.76552e-05
-2.44895e-05
2.56636e-05
-1.7494e-05
1.64737e-05
-1.20969e-05
9.64163e-06
-8.02655e-06
4.75589e-06
-5.03745e-06
1.45288e-06
-2.91725e-06
-5.79264e-07
-1.48746e-06
-1.6032e-06
-6.00789e-07
-1.83798e-06
-1.37328e-07
-1.4678e-06
-6.46683e-07
-0.000212539
0.00034448
0.000223114
-0.000198602
0.000309285
-0.000181557
0.000272742
-0.000162064
0.000235314
-0.000141128
0.000198381
-0.000119912
0.000163193
-9.95023e-05
0.00013093
-8.07377e-05
0.000102373
-6.41421e-05
7.79093e-05
-4.99392e-05
5.75562e-05
-3.81145e-05
4.10669e-05
-2.84982e-05
2.80389e-05
-2.08367e-05
1.80021e-05
-1.48468e-05
1.04838e-05
-1.0251e-05
5.04578e-06
-6.79653e-06
1.30146e-06
-4.26416e-06
-1.0795e-06
-2.46906e-06
-2.37436e-06
-1.25853e-06
-2.81372e-06
-5.07809e-07
-2.5887e-06
-1.15652e-07
-1.85996e-06
-7.62335e-07
-0.000205465
0.000331567
0.000218378
-0.000189284
0.000293104
-0.000170285
0.000253743
-0.000149468
0.000214498
-0.00012802
0.000176932
-0.000107113
0.000142287
-8.76822e-05
0.000111499
-7.03428e-05
8.50338e-05
-5.53837e-05
6.29502e-05
-4.28334e-05
4.5006e-05
-3.25445e-05
3.07779e-05
-2.42704e-05
1.97648e-05
-1.7728e-05
1.14597e-05
-1.26357e-05
5.39151e-06
-8.73557e-06
1.14564e-06
-5.80317e-06
-1.63095e-06
-3.6494e-06
-3.23327e-06
-2.11812e-06
-3.90564e-06
-1.08186e-06
-3.84998e-06
-4.36949e-07
-3.23361e-06
-9.92345e-08
-2.19767e-06
-8.61569e-07
-0.000195198
0.000316857
0.000209908
-0.000177177
0.000275083
-0.000156799
0.000233365
-0.000135421
0.00019312
-0.000114239
0.000155751
-9.43227e-05
0.00012237
-7.63741e-05
9.35505e-05
-6.07606e-05
6.94203e-05
-4.75618e-05
4.97514e-05
-3.66578e-05
3.4102e-05
-2.78163e-05
2.19364e-05
-2.07567e-05
1.27052e-05
-1.51947e-05
5.89776e-06
-1.08682e-05
1.06496e-06
-7.548e-06
-2.17455e-06
-5.04126e-06
-4.13768e-06
-3.18923e-06
-5.0853e-06
-1.86294e-06
-5.23194e-06
-9.58057e-07
-4.75486e-06
-3.89943e-07
-3.80173e-06
-8.95275e-08
-2.49809e-06
-9.51097e-07
-0.000181499
0.000299918
0.000198438
-0.000162243
0.000255827
-0.000141368
0.00021249
-0.000120336
0.000172089
-0.000100264
0.000135678
-8.19702e-05
0.000104077
-6.58991e-05
7.74793e-05
-5.21898e-05
5.5711e-05
-4.07648e-05
3.83264e-05
-3.14179e-05
2.47551e-05
-2.38828e-05
1.44013e-05
-1.78812e-05
6.70364e-06
-1.3151e-05
1.16758e-06
-9.4605e-06
-2.62557e-06
-6.61333e-06
-5.02173e-06
-4.44787e-06
-6.30314e-06
-2.83343e-06
-6.69973e-06
-1.66539e-06
-6.39998e-06
-8.59968e-07
-5.56029e-06
-3.49439e-07
-4.31226e-06
-7.83252e-08
-2.7692e-06
-1.02942e-06
-0.000342009
0.000243678
0.000398249
-0.000286575
0.000200392
-0.000234511
0.000160426
-0.000187643
0.000125221
-0.000146957
9.49921e-05
-0.000112763
6.98829e-05
-8.48045e-05
4.95205e-05
-6.24844e-05
3.33908e-05
-4.5039e-05
2.08811e-05
-3.16701e-05
1.13862e-05
-2.16237e-05
4.35492e-06
-1.42321e-05
-6.87931e-07
-8.92686e-06
-4.13768e-06
-5.23627e-06
-6.31616e-06
-2.77524e-06
-7.48275e-06
-1.23175e-06
-7.84663e-06
-3.53579e-07
-7.57791e-06
6.34274e-08
-6.81698e-06
1.8495e-07
-5.68181e-06
1.45758e-07
-4.27306e-06
5.50129e-08
-2.67846e-06
-9.74409e-07
-0.000283131
0.000185635
0.000341175
-0.000229765
0.000147026
-0.000182556
0.000113217
-0.00014216
8.48248e-05
-0.000108582
6.14147e-05
-8.13645e-05
4.26651e-05
-5.97798e-05
2.79359e-05
-4.29923e-05
1.66033e-05
-3.01716e-05
8.06037e-06
-2.05577e-05
1.77224e-06
-1.34901e-05
-2.71261e-06
-8.41473e-06
-5.76333e-06
-4.87663e-06
-7.67578e-06
-2.50785e-06
-8.68494e-06
-1.01283e-06
-8.97777e-06
-1.54807e-07
-8.70466e-06
2.56008e-07
-7.98872e-06
3.72051e-07
-6.93303e-06
3.15946e-07
-5.6257e-06
1.8613e-07
-4.14325e-06
6.07327e-08
-2.55306e-06
-9.13677e-07
-0.000221047
0.000131824
0.000274858
-0.000174146
0.000100125
-0.000134639
7.37097e-05
-0.000102153
5.23387e-05
-7.60729e-05
3.53349e-05
-5.5539e-05
2.21313e-05
-3.96646e-05
1.20615e-05
-2.76004e-05
4.53902e-06
-1.85917e-05
-9.48345e-07
-1.19948e-05
-4.82461e-06
-7.27649e-06
-7.43093e-06
-4.00311e-06
-9.03671e-06
-1.82626e-06
-9.85263e-06
-4.67728e-07
-1.00435e-05
2.94069e-07
-9.73957e-06
6.35561e-07
-9.04615e-06
6.97312e-07
-8.05047e-06
5.91266e-07
-6.82698e-06
4.0627e-07
-5.44071e-06
2.12318e-07
-3.9493e-06
6.34705e-08
-2.40421e-06
-8.50206e-07
-0.00016255
8.62002e-05
0.000208175
-0.000124434
6.2008e-05
-9.3541e-05
4.2817e-05
-6.89314e-05
2.77291e-05
-4.97286e-05
1.6132e-05
-3.49868e-05
7.38955e-06
-2.38627e-05
9.3736e-07
-1.56164e-05
-3.7072e-06
-9.62856e-06
-6.93623e-06
-5.39117e-06
-9.062e-06
-2.49464e-06
-1.03275e-05
-6.11747e-07
-1.09196e-05
5.17551e-07
-1.09819e-05
1.09953e-06
-1.06254e-05
1.29779e-06
-9.93783e-06
1.24209e-06
-8.99045e-06
1.03522e-06
-7.84361e-06
7.58188e-07
-6.54995e-06
4.74084e-07
-5.1566e-06
2.3113e-07
-3.70634e-06
6.48885e-08
-2.23797e-06
-7.85318e-07
-0.000111511
5.03209e-05
0.000147391
-8.26032e-05
3.30999e-05
-5.98667e-05
2.00805e-05
-4.22527e-05
1.0115e-05
-2.88628e-05
2.74213e-06
-1.88548e-05
-2.61843e-06
-1.15225e-05
-6.39494e-06
-6.27741e-06
-8.95228e-06
-2.64202e-06
-1.05716e-05
-2.33297e-07
-1.14707e-05
1.2534e-06
-1.18141e-05
2.05933e-06
-1.17255e-05
2.37525e-06
-1.12978e-05
2.35197e-06
-1.06022e-05
2.10871e-06
-9.69456e-06
1.73956e-06
-8.6213e-06
1.31848e-06
-7.42253e-06
9.02827e-07
-6.13429e-06
5.36224e-07
-4.79e-06
2.50514e-07
-3.42063e-06
6.74584e-08
-2.05492e-06
-7.17859e-07
-6.928e-05
2.39668e-05
9.56341e-05
-4.87456e-05
1.25654e-05
-3.30219e-05
4.35686e-06
-2.11984e-05
-1.70848e-06
-1.24891e-05
-5.96717e-06
-6.22486e-06
-8.88266e-06
-1.8577e-06
-1.07621e-05
1.05492e-06
-1.18649e-05
2.8663e-06
-1.2383e-05
3.85654e-06
-1.2461e-05
4.24689e-06
-1.22045e-05
4.21188e-06
-1.16905e-05
3.8891e-06
-1.09751e-05
3.3871e-06
-1.01002e-05
2.79131e-06
-9.09878e-06
2.16882e-06
-7.99881e-06
1.57146e-06
-6.82516e-06
1.03872e-06
-5.60156e-06
5.99325e-07
-4.3506e-06
2.73084e-07
-3.09439e-06
7.17123e-08
-1.85354e-06
-6.46147e-07
-3.55167e-05
5.91151e-06
5.35721e-05
-2.19651e-05
-9.86232e-07
-1.19382e-05
-5.66997e-06
-4.72122e-06
-8.9255e-06
3.10916e-07
-1.09993e-05
3.65745e-06
-1.22292e-05
5.72284e-06
-1.28275e-05
6.82742e-06
-1.29695e-05
7.22444e-06
-1.278e-05
7.11306e-06
-1.23496e-05
6.64971e-06
-1.17411e-05
5.95728e-06
-1.09981e-05
5.13246e-06
-1.01503e-05
4.25121e-06
-9.2189e-06
3.3732e-06
-8.22077e-06
2.54459e-06
-7.17021e-06
1.80082e-06
-6.08139e-06
1.16764e-06
-4.96838e-06
6.63143e-07
-3.8461e-06
2.98075e-07
-2.72932e-06
7.72918e-08
-1.63276e-06
-5.68855e-07
-9.12321e-06
-5.33613e-06
2.03709e-05
-1.14087e-06
-8.96857e-06
4.39073e-06
-1.12016e-05
8.01119e-06
-1.2546e-05
1.01879e-05
-1.3176e-05
1.12783e-05
-1.33196e-05
1.15687e-05
-1.31179e-05
1.12822e-05
-1.2683e-05
1.05931e-05
-1.20909e-05
9.63716e-06
-1.13936e-05
8.52024e-06
-1.06242e-05
7.32496e-06
-9.80282e-06
6.11591e-06
-8.9412e-06
4.94371e-06
-8.04671e-06
3.84765e-06
-7.12471e-06
2.85817e-06
-6.18073e-06
1.99771e-06
-5.22093e-06
1.28251e-06
-4.25319e-06
7.22485e-07
-3.28607e-06
3.22744e-07
-2.32958e-06
8.3263e-08
-1.39328e-06
-4.85592e-07
1.0882e-05
-1.119e-05
-5.02816e-06
1.45387e-05
-1.26252e-05
1.66054e-05
-1.32683e-05
1.7475e-05
-1.34156e-05
1.74794e-05
-1.31803e-05
1.68643e-05
-1.27045e-05
1.58221e-05
-1.20757e-05
1.44993e-05
-1.13602e-05
1.30083e-05
-1.05999e-05
1.1435e-05
-9.82034e-06
9.84548e-06
-9.03471e-06
8.29064e-06
-8.24797e-06
6.80997e-06
-7.46053e-06
5.43404e-06
-6.67078e-06
4.18663e-06
-5.8773e-06
3.0855e-06
-5.0796e-06
2.1439e-06
-4.27933e-06
1.37034e-06
-3.47962e-06
7.69845e-07
-2.68558e-06
3.43345e-07
-1.90308e-06
8.86213e-08
-1.13856e-06
-3.96971e-07
2.51162e-05
-1.29026e-05
-2.34036e-05
2.55121e-05
-1.30211e-05
2.50017e-05
-1.2758e-05
2.38529e-05
-1.22667e-05
2.22847e-05
-1.16122e-05
2.04543e-05
-1.08741e-05
1.84799e-05
-1.01012e-05
1.64478e-05
-9.3281e-06
1.44219e-05
-8.57405e-06
1.24493e-05
-7.8477e-06
1.05647e-05
-7.15014e-06
8.79448e-06
-6.47776e-06
7.15857e-06
-5.82462e-06
5.67234e-06
-5.18456e-06
4.34734e-06
-4.5523e-06
3.19236e-06
-3.92461e-06
2.21316e-06
-3.30013e-06
1.41349e-06
-2.67995e-06
7.94357e-07
-2.06645e-06
3.54983e-07
-1.46371e-06
9.19721e-08
-8.75545e-07
-3.04999e-07
3.3789e-05
-1.16263e-05
-3.50653e-05
3.18905e-05
-1.11225e-05
2.96164e-05
-1.04839e-05
2.71276e-05
-9.77789e-06
2.45513e-05
-9.03596e-06
2.19737e-05
-8.29652e-06
1.9455e-05
-7.58256e-06
1.70354e-05
-6.90848e-06
1.47414e-05
-6.28001e-06
1.25904e-05
-5.69668e-06
1.05938e-05
-5.15361e-06
8.75963e-06
-4.64356e-06
7.09346e-06
-4.15845e-06
5.59944e-06
-3.69054e-06
4.28075e-06
-3.2336e-06
3.13928e-06
-2.78314e-06
2.17621e-06
-2.33707e-06
1.39134e-06
-1.89508e-06
7.83848e-07
-1.45896e-06
3.51594e-07
-1.03145e-06
9.16556e-08
-6.15607e-07
-2.13343e-07
3.68219e-05
-8.49921e-06
-3.99491e-05
3.35788e-05
-7.87936e-06
3.03401e-05
-7.24514e-06
2.71811e-05
-6.61888e-06
2.41575e-05
-6.01237e-06
2.13015e-05
-5.4406e-06
1.86305e-05
-4.91152e-06
1.61508e-05
-4.42877e-06
1.38626e-05
-3.99177e-06
1.17624e-05
-3.59654e-06
9.84587e-06
-3.23705e-06
8.10845e-06
-2.90614e-06
6.54641e-06
-2.59641e-06
5.15696e-06
-2.30109e-06
3.93783e-06
-2.01448e-06
2.88722e-06
-1.73253e-06
2.00311e-06
-1.45295e-06
1.28346e-06
-1.17543e-06
7.25756e-07
-9.01254e-07
3.27565e-07
-6.33262e-07
8.62893e-08
-3.74331e-07
-1.27054e-07
3.40172e-05
-4.69789e-06
-3.78185e-05
3.04065e-05
-4.26872e-06
2.702e-05
-3.85864e-06
2.38732e-05
-3.47206e-06
2.09732e-05
-3.11239e-06
1.83166e-05
-2.78395e-06
1.58933e-05
-2.48817e-06
1.36892e-05
-2.22472e-06
1.16889e-05
-1.99152e-06
9.87748e-06
-1.78508e-06
8.24155e-06
-1.60112e-06
6.77028e-06
-1.43487e-06
5.45541e-06
-1.28154e-06
4.29094e-06
-1.13662e-06
3.27271e-06
-9.9625e-07
2.39761e-06
-8.57432e-07
1.66302e-06
-7.18363e-07
1.06616e-06
-5.78568e-07
6.04084e-07
-4.39174e-07
2.73674e-07
-3.02852e-07
7.24937e-08
-1.73151e-07
-5.45602e-08
2.52111e-05
-1.4479e-06
-2.84611e-05
2.22435e-05
-1.30105e-06
1.95472e-05
-1.16234e-06
1.71085e-05
-1.03345e-06
1.49119e-05
-9.15769e-07
1.29384e-05
-8.10435e-07
1.11677e-05
-7.17473e-07
9.57937e-06
-6.36381e-07
8.154e-06
-5.66149e-07
6.87435e-06
-5.05433e-07
5.72589e-06
-4.52662e-07
4.69715e-06
-4.06134e-07
3.77972e-06
-3.641e-07
2.96793e-06
-3.2483e-07
2.25836e-06
-2.86688e-07
1.64917e-06
-2.48239e-07
1.13918e-06
-2.0837e-07
7.27103e-07
-1.66493e-07
4.10803e-07
-1.22873e-07
1.8689e-07
-7.89387e-08
5.09056e-08
-3.71666e-08
-3.65457e-09
1.03696e-05
-1.18297e-05
9.05927e-06
7.88995e-06
6.85139e-06
5.932e-06
5.11912e-06
4.40014e-06
3.76297e-06
3.19659e-06
2.69134e-06
2.23917e-06
1.83374e-06
1.4705e-06
1.1466e-06
8.60888e-07
6.13618e-07
4.06174e-07
2.40534e-07
1.18408e-07
4.00784e-08
3.35357e-09
0.000298212
2.5603e-05
1.14241e-06
-0.000324957
0.000272954
2.40827e-05
1.1755e-06
0.000249091
2.26596e-05
1.20277e-06
0.000226544
2.13228e-05
1.22407e-06
0.000205237
2.00679e-05
1.23965e-06
0.000185096
1.88911e-05
1.24987e-06
0.000166053
1.77881e-05
1.25508e-06
0.000148043
1.67543e-05
1.25566e-06
0.000131005
1.57853e-05
1.25197e-06
0.000114885
1.48764e-05
1.24435e-06
9.96293e-05
1.40225e-05
1.23295e-06
8.51964e-05
1.32154e-05
1.21745e-06
7.15589e-05
1.24409e-05
1.19658e-06
5.87175e-05
1.16739e-05
1.16753e-06
4.67158e-05
1.08758e-05
1.12585e-06
3.56533e-05
9.99682e-06
1.06574e-06
2.5689e-05
8.98294e-06
9.81356e-07
1.70322e-05
7.78879e-06
8.67987e-07
9.92034e-06
6.38832e-06
7.23512e-07
4.58809e-06
4.78324e-06
5.49023e-07
1.2351e-06
3.00414e-06
3.48851e-07
1.10526e-06
1.29838e-07
0.000297797
5.2271e-05
-0.000324465
0.000272608
4.92712e-05
0.000248806
4.64614e-05
0.000226311
4.38176e-05
0.000205048
4.1331e-05
0.000184945
3.89947e-05
0.000165933
3.67999e-05
0.000147949
3.47381e-05
0.000130934
3.28009e-05
0.00011483
3.09796e-05
9.95889e-05
2.92639e-05
8.51668e-05
2.76375e-05
7.15373e-05
2.60704e-05
5.87014e-05
2.45098e-05
4.67035e-05
2.28738e-05
3.56434e-05
2.10568e-05
2.56811e-05
1.89452e-05
1.70264e-05
1.64436e-05
9.91653e-06
1.34981e-05
4.5863e-06
1.01135e-05
1.23464e-06
6.3558e-06
2.3399e-06
0.000296547
7.87362e-05
-0.000323012
0.000271534
7.42842e-05
0.000247882
7.0113e-05
0.000225518
6.61816e-05
0.000204369
6.24799e-05
0.000184366
5.89979e-05
0.000165442
5.57236e-05
0.000147536
5.26447e-05
0.000130587
4.97491e-05
0.000114543
4.70242e-05
9.93518e-05
4.44549e-05
8.4973e-05
4.20163e-05
7.13798e-05
3.96636e-05
5.85746e-05
3.73149e-05
4.6602e-05
3.48465e-05
3.55639e-05
3.20949e-05
2.56201e-05
2.8889e-05
1.69824e-05
2.50813e-05
9.88802e-06
2.05926e-05
4.57112e-06
1.54304e-05
1.22981e-06
9.69711e-06
3.56971e-06
0.000294802
0.000104891
-0.000320957
0.000270059
9.9027e-05
0.000246637
9.35345e-05
0.00022447
8.83487e-05
0.00020349
8.34599e-05
0.000183632
7.88565e-05
0.000164832
7.45231e-05
0.000147032
7.04449e-05
0.000130175
6.66064e-05
0.000114207
6.29917e-05
9.90815e-05
5.95806e-05
8.47567e-05
5.63412e-05
7.12083e-05
5.3212e-05
5.84385e-05
5.00847e-05
4.64952e-05
4.67898e-05
3.54795e-05
4.31106e-05
2.5556e-05
3.88124e-05
1.69352e-05
3.37021e-05
9.85737e-06
2.76704e-05
4.55492e-06
2.07328e-05
1.22456e-06
1.30275e-05
4.79427e-06
0.000292743
0.000130643
-0.000318495
0.000268348
0.000123422
0.00024522
0.000116662
0.000223303
0.000110265
0.000202536
0.000104227
0.000182859
9.85337e-05
0.000164213
9.31689e-05
0.000146543
8.81151e-05
0.000129795
8.33545e-05
0.000113919
7.88682e-05
9.88671e-05
7.46321e-05
8.4602e-05
7.06063e-05
7.10993e-05
6.67147e-05
5.83637e-05
6.28202e-05
4.64429e-05
5.87106e-05
3.54426e-05
5.41109e-05
2.55273e-05
4.87277e-05
1.69137e-05
4.23158e-05
9.84102e-06
3.4743e-05
4.54547e-06
2.60284e-05
1.2208e-06
1.63521e-05
6.01508e-06
0.000290768
0.000155934
-0.000316059
0.000266767
0.000147423
0.000243968
0.000139461
0.000222328
0.000131906
0.000201792
0.000124763
0.000182307
0.000118018
0.000163821
0.000111655
0.000146282
0.000105655
0.000129639
9.99971e-05
0.000113846
9.46613e-05
9.88582e-05
8.962e-05
8.4639e-05
8.48255e-05
7.11655e-05
8.01882e-05
5.84444e-05
7.55413e-05
4.65239e-05
7.06311e-05
3.55138e-05
6.51211e-05
2.55813e-05
5.86602e-05
1.69483e-05
5.09487e-05
9.85902e-06
4.18323e-05
4.55119e-06
3.13362e-05
1.22143e-06
1.96819e-05
7.2365e-06
0.000289092
0.000180723
-0.000313881
0.000265514
0.000171002
0.000243062
0.000161913
0.000221707
0.000153261
0.000201405
0.000145064
0.000182111
0.000137313
0.000163777
0.000129989
0.000146358
0.000123074
0.000129808
0.000116547
0.000114082
0.000110387
9.91395e-05
0.000104562
8.49444e-05
9.90207e-05
7.14772e-05
9.36553e-05
5.87416e-05
8.8277e-05
4.67929e-05
8.25798e-05
3.57365e-05
7.61774e-05
2.57534e-05
6.86434e-05
1.70639e-05
5.96382e-05
9.92674e-06
4.89695e-05
4.58083e-06
3.66821e-05
1.22817e-06
2.30346e-05
8.46467e-06
0.000287894
0.000204982
-0.000312154
0.000264755
0.000194141
0.000242659
0.000184009
0.000221592
0.000174328
0.000201519
0.000165137
0.000182404
0.000156428
0.000164207
0.000148186
0.000146888
0.000140393
0.000130405
0.00013303
0.00011472
0.000126073
9.97911e-05
0.000119491
8.55888e-05
0.000113223
7.20898e-05
0.000107154
5.93054e-05
0.000101061
4.72822e-05
9.4603e-05
3.61422e-05
8.73174e-05
2.60576e-05
7.8728e-05
1.72745e-05
6.84213e-05
1.00471e-05
5.61968e-05
4.63577e-06
4.20934e-05
1.24093e-06
2.64294e-05
9.7056e-06
0.000287307
0.000228696
-0.00031102
0.000264608
0.000216839
0.000242857
0.00020576
0.000222059
0.000195126
0.000202193
0.000185003
0.000183233
0.000175388
0.000165147
0.000166272
0.0001479
0.000157639
0.000131458
0.000149472
0.000115783
0.000141748
0.000100841
0.000134433
8.65974e-05
0.000127466
7.30366e-05
0.000120715
6.01606e-05
0.000113937
4.80286e-05
0.000106735
3.67505e-05
9.85955e-05
2.65251e-05
8.89534e-05
1.75915e-05
7.73548e-05
1.02378e-05
6.35506e-05
4.72163e-06
4.76096e-05
1.26371e-06
2.98873e-05
1.09693e-05
0.000287367
0.000251851
-0.000310522
0.000265115
0.000239092
0.000243711
0.000227164
0.000223177
0.000215659
0.000203504
0.000204676
0.000184675
0.000194217
0.000166669
0.000184278
0.000149459
0.000174849
0.000133016
0.000165915
0.00011731
0.000157455
0.000102306
0.000149437
8.79776e-05
0.000141795
7.4303e-05
0.00013439
6.12922e-05
0.000126948
4.89941e-05
0.000119033
3.75369e-05
0.000110053
2.71128e-05
9.93776e-05
1.79939e-05
8.64737e-05
1.04687e-05
7.10757e-05
4.82636e-06
5.3252e-05
1.28791e-06
3.34258e-05
1.22572e-05
0.000288068
0.000274438
-0.000310655
0.000266239
0.000260921
0.000245149
0.000248254
0.000224845
0.000235963
0.000205333
0.000224188
0.00018661
0.000212941
0.00016866
0.000202227
0.000151465
0.000192044
0.000135001
0.000182379
0.00011924
0.000173216
0.000104153
0.000164523
8.97132e-05
0.000156235
7.59013e-05
0.000148202
6.27196e-05
0.00014013
5.02241e-05
0.000131529
3.85362e-05
0.000121741
2.78715e-05
0.000110042
1.8509e-05
9.58362e-05
1.07734e-05
7.88113e-05
4.96445e-06
5.90609e-05
1.32434e-06
3.70659e-05
1.35816e-05
0.000289428
0.000296427
-0.000311417
0.000268049
0.000282301
0.000247288
0.000269014
0.000227204
0.000256047
0.000207824
0.000243569
0.00018916
0.000231605
0.000171215
0.000220173
0.000153977
0.000209281
0.000137432
0.000198925
0.000121557
0.000189091
0.000106327
0.000179753
9.17177e-05
0.000170844
7.7708e-05
0.000162211
6.43032e-05
0.000153535
5.15545e-05
0.000144277
3.95958e-05
0.000133699
2.86494e-05
0.000120989
1.90237e-05
0.000105462
1.10603e-05
8.67747e-05
5.08598e-06
6.50353e-05
1.34963e-06
4.08022e-05
1.49312e-05
0.000291263
0.000317827
-0.000312663
0.000270258
0.000303305
0.00024978
0.000289493
0.000229894
0.000275933
0.000210637
0.000262825
0.000192034
0.000250208
0.000174094
0.000238113
0.000156815
0.00022656
0.000140187
0.000215553
0.000124194
0.000205084
0.000108817
0.00019513
9.40301e-05
0.000185631
7.98142e-05
0.000176427
6.61687e-05
0.00016718
5.31448e-05
0.000157301
4.0876e-05
0.000145968
2.96028e-05
0.000132262
1.96568e-05
0.000115408
1.1418e-05
9.50135e-05
5.23972e-06
7.12135e-05
1.38647e-06
4.46555e-05
1.63177e-05
0.000293465
0.000338422
-0.00031406
0.000272939
0.000323831
0.000252764
0.000309668
0.000233044
0.000295653
0.000213856
0.000282013
0.000195246
0.000268817
0.000177241
0.000256119
0.00015985
0.000243951
0.000143073
0.000232329
0.000126901
0.000221256
0.000111317
0.000210715
9.62983e-05
0.000200649
8.18254e-05
0.0001909
6.78967e-05
0.000181109
5.45615e-05
0.000170637
4.19615e-05
0.000158568
3.03551e-05
0.000143868
2.01073e-05
0.000125656
1.16306e-05
0.00010349
5.30218e-06
7.75419e-05
1.3866e-06
4.85711e-05
1.77043e-05
0.000295967
0.000358281
-0.000315826
0.000275775
0.000344023
0.000255902
0.000329541
0.000236385
0.00031517
0.000217312
0.000301086
0.000198741
0.000287388
0.000180707
0.000274153
0.000163231
0.000261427
0.000146322
0.000249239
0.000129975
0.000237602
0.00011418
0.00022651
9.89148e-05
0.000215914
8.41582e-05
0.000205657
6.99053e-05
0.000195362
5.62065e-05
0.000184335
4.32131e-05
0.000171561
3.12082e-05
0.000155873
2.05922e-05
0.000136272
1.182e-05
0.000112262
5.30476e-06
8.40572e-05
1.33177e-06
5.25441e-05
1.9036e-05
1.23533e-05
0.000360758
-1.48306e-05
9.81215e-06
0.000346564
7.3809e-06
0.000331972
4.96959e-06
0.000317581
2.58802e-06
0.000303468
2.31222e-07
0.000289745
-2.09977e-06
0.000276484
-4.39999e-06
0.000263727
-6.66225e-06
0.000251501
-8.87488e-06
0.000239815
-1.1012e-05
0.000228648
-1.30101e-05
0.000217913
-1.47353e-05
0.000207382
-1.59612e-05
0.000196588
-1.63931e-05
0.000184767
-1.57545e-05
0.000170923
-1.39142e-05
0.000154033
-1.09979e-05
0.000133355
-7.42846e-06
0.000108693
-3.87595e-06
8.05046e-05
-1.14036e-06
4.98085e-05
1.78957e-05
7.13718e-06
0.00036354
-9.91886e-06
4.48891e-06
0.000349212
1.88018e-06
0.000334581
-6.71658e-07
0.000320133
-3.15059e-06
0.000305947
-5.55666e-06
0.000292151
-7.88476e-06
0.000278812
-1.01298e-05
0.000265972
-1.22845e-05
0.000253656
-1.43343e-05
0.000241865
-1.62431e-05
0.000230556
-1.7927e-05
0.000219596
-1.92255e-05
0.00020868
-1.98952e-05
0.000197257
-1.96522e-05
0.000184524
-1.82685e-05
0.000169539
-1.56889e-05
0.000151453
-1.21195e-05
0.000129786
-8.0437e-06
0.000104617
-4.15564e-06
7.66166e-05
-1.23368e-06
4.68865e-05
1.6662e-05
1.85883e-06
0.000366539
-4.85783e-06
-9.00116e-07
0.000351971
-3.61057e-06
0.000337291
-6.21351e-06
0.000322736
-8.70711e-06
0.00030844
-1.10884e-05
0.000294533
-1.33527e-05
0.000281076
-1.54958e-05
0.000268115
-1.75097e-05
0.00025567
-1.93743e-05
0.000243729
-2.10384e-05
0.000232221
-2.2393e-05
0.000220951
-2.32505e-05
0.000209538
-2.33539e-05
0.000197361
-2.24377e-05
0.000183608
-2.0328e-05
0.000167429
-1.70497e-05
0.000148175
-1.28906e-05
0.000125627
-8.39161e-06
0.000100118
-4.26128e-06
7.24863e-05
-1.24479e-06
4.387e-05
1.54172e-05
-3.42979e-06
0.000369652
3.16259e-07
-6.28669e-06
0.000354828
-9.05002e-06
0.000340055
-1.16638e-05
0.00032535
-1.4135e-05
0.000310911
-1.64582e-05
0.000296856
-1.86304e-05
0.000283248
-2.0648e-05
0.000270133
-2.25005e-05
0.000257522
-2.41585e-05
0.000245387
-2.55512e-05
0.000233613
-2.65421e-05
0.000221942
-2.69182e-05
0.000209914
-2.64193e-05
0.000196862
-2.48094e-05
0.000181998
-2.1982e-05
0.000164602
-1.80469e-05
0.00014424
-1.33721e-05
0.000120952
-8.54283e-06
9.52889e-05
-4.26294e-06
6.82064e-05
-1.22364e-06
4.08307e-05
1.41936e-05
-8.8342e-06
0.00037282
5.66625e-06
-1.17472e-05
0.000357741
-1.45125e-05
0.00034282
-1.70954e-05
0.000327932
-1.95055e-05
0.000313322
-2.17378e-05
0.000299088
-2.37913e-05
0.000285302
-2.56615e-05
0.000272003
-2.73328e-05
0.000259194
-2.87616e-05
0.000246816
-2.98537e-05
0.000234705
-3.04432e-05
0.000222532
-3.02989e-05
0.000209769
-2.91653e-05
0.000195728
-2.68522e-05
0.000179685
-2.33253e-05
0.000161075
-1.87841e-05
0.000139699
-1.36638e-05
0.000115832
-8.58108e-06
9.02062e-05
-4.2146e-06
6.38399e-05
-1.19162e-06
3.78077e-05
1.3002e-05
-1.4492e-05
0.000376001
1.13109e-05
-1.74161e-05
0.000360665
-2.01417e-05
0.000345546
-2.26572e-05
0.000330448
-2.49721e-05
0.000315636
-2.70838e-05
0.0003012
-2.89925e-05
0.00028721
-3.06915e-05
0.000273702
-3.21562e-05
0.000260658
-3.33249e-05
0.000247985
-3.40749e-05
0.000235455
-3.42144e-05
0.000222671
-3.34976e-05
0.000209053
-3.16914e-05
0.000193922
-2.86566e-05
0.00017665
-2.44457e-05
0.000156864
-1.93371e-05
0.00013459
-1.38302e-05
0.000110325
-8.54873e-06
8.49247e-05
-4.13909e-06
5.94303e-05
-1.15402e-06
3.48227e-05
1.18479e-05
-2.05538e-05
0.000379151
1.74042e-05
-2.34379e-05
0.000363549
-2.60818e-05
0.00034819
-2.8492e-05
0.000332858
-3.06772e-05
0.000317822
-3.2638e-05
0.000303161
-3.43747e-05
0.000288947
-3.58751e-05
0.000275202
-3.71018e-05
0.000261885
-3.79685e-05
0.000248852
-3.8324e-05
0.000235811
-3.79495e-05
0.000222297
-3.66003e-05
0.000207704
-3.40708e-05
0.000191393
-3.02948e-05
0.000172874
-2.54039e-05
0.000151973
-1.97641e-05
0.00012895
-1.39117e-05
0.000104472
-8.47555e-06
7.94885e-05
-4.04879e-06
5.50035e-05
-1.11495e-06
3.18888e-05
1.0733e-05
-2.72301e-05
0.000382228
2.41534e-05
-3.00257e-05
0.000366345
-3.25465e-05
0.00035071
-3.48117e-05
0.000335123
-3.68303e-05
0.00031984
-3.86059e-05
0.000304936
-4.01364e-05
0.000290477
-4.14015e-05
0.000276467
-4.23442e-05
0.000262828
-4.28507e-05
0.000249358
-4.27373e-05
0.000235697
-4.17687e-05
0.000221328
-3.97057e-05
0.00020564
-3.6394e-05
0.000188081
-3.18388e-05
0.000168319
-2.62687e-05
0.000146403
-2.01127e-05
0.000122795
-1.39484e-05
9.8308e-05
-8.38091e-06
7.39211e-05
-3.9547e-06
5.05773e-05
-1.07619e-06
2.90103e-05
9.65679e-06
-3.47176e-05
0.000385182
3.17634e-05
-3.73714e-05
0.000368999
-3.97229e-05
0.000353062
-4.17993e-05
0.0003372
-4.36104e-05
0.000321651
-4.51613e-05
0.000306487
-4.64448e-05
0.000291761
-4.74266e-05
0.000277449
-4.80251e-05
0.000263426