/*--------------------------------*- C++ -*----------------------------------*\
| =========                 |                                                 |
| \\      /  F ield         | OpenFOAM Extend Project: Open source CFD        |
|  \\    /   O peration     | Version:  1.6-ext                               |
|   \\  /    A nd           | Web:      www.extend-project.de                 |
|    \\/     M anipulation  |                                                 |
\*---------------------------------------------------------------------------*/
FoamFile
{
    version     2.0;
    format      ascii;
    class       volVectorField;
    location    "1.1";
    object      U;
}
// * * * * * * * * * * * * * * * * * * * * * * * * * * * * * * * * * * * * * //

dimensions      [0 1 -1 0 0 0 0];

internalField   nonuniform List<vector> 
20940
(
(1.84868 0.398605 -8.98126e-22)
(1.88818 0.418634 -1.01187e-20)
(1.92558 0.43794 3.85379e-21)
(1.96003 0.455478 -5.99949e-21)
(1.99123 0.471454 6.62193e-21)
(2.01754 0.484744 0)
(2.03597 0.494235 0)
(2.04171 0.497977 6.87049e-21)
(2.02835 0.493735 -8.58057e-21)
(1.98882 0.479271 9.29448e-21)
(1.9169 0.453052 0)
(1.80904 0.414857 -4.72821e-22)
(1.66571 0.366129 1.4406e-20)
(1.4918 0.309869 0)
(1.29581 0.250091 2.80495e-22)
(1.08817 0.191057 -2.95611e-20)
(0.879396 0.136567 1.05383e-20)
(0.678562 0.0895174 0)
(0.492461 0.0517143 -5.88822e-21)
(0.325376 0.0239253 6.16739e-21)
(0.179317 0.0066248 1.29839e-23)
(0.0544909 0.000491651 5.32573e-21)
(1.87554 0.375421 4.83774e-21)
(1.91375 0.394294 2.14084e-20)
(1.94955 0.411787 -1.00534e-20)
(1.98181 0.427537 -1.39903e-20)
(2.0097 0.441204 1.41489e-20)
(2.03072 0.45158 0)
(2.04084 0.457249 -2.42063e-20)
(2.03432 0.456174 3.41431e-20)
(2.00439 0.446286 1.39529e-21)
(1.94458 0.425909 -1.86786e-20)
(1.85041 0.394412 2.31638e-20)
(1.72101 0.352626 -1.15134e-20)
(1.55982 0.302892 -2.81751e-20)
(1.37416 0.248674 0)
(1.17391 0.193887 8.91318e-21)
(0.969591 0.142198 4.8162e-20)
(0.770771 0.0965173 -6.04596e-20)
(0.585001 0.0587901 2.18995e-20)
(0.417414 0.0299871 -1.69278e-20)
(0.270843 0.0102525 5.63988e-21)
(0.146244 -0.000357625 2.52077e-20)
(0.0432231 -0.00140486 -2.6066e-20)
(1.90017 0.352207 1.65422e-21)
(1.93678 0.369995 2.00957e-21)
(1.97042 0.38578 -1.85722e-20)
(1.99963 0.399751 -1.36298e-20)
(2.02279 0.411 3.34076e-20)
(2.03637 0.418235 -3.67429e-20)
(2.03534 0.419796 0)
(2.01329 0.41372 2.92916e-20)
(1.9637 0.398322 2.49554e-21)
(1.88144 0.372681 -3.73022e-20)
(1.7645 0.337148 4.54984e-20)
(1.615 0.293493 -4.89626e-20)
(1.43912 0.244661 -5.71155e-20)
(1.24602 0.194204 -3.23599e-20)
(1.04607 0.14561 6.67402e-20)
(0.849127 0.101764 1.79119e-20)
(0.663336 0.0646681 5.95286e-20)
(0.494524 0.0354208 2.10224e-20)
(0.346218 0.014327 2.20973e-20)
(0.219968 0.00107733 -5.75423e-20)
(0.115864 -0.00456553 0)
(0.0330582 -0.0023552 0)
(1.92364 0.329335 -3.6073e-20)
(1.95817 0.346107 0)
(1.98885 0.360219 4.43302e-20)
(2.01368 0.372312 8.0494e-22)
(2.03002 0.380902 0)
(2.03327 0.384646 0)
(2.01753 0.38177 0)
(1.9763 0.370598 -5.85759e-20)
(1.90407 0.350053 6.37887e-20)
(1.79794 0.320114 0)
(1.65889 0.28208 0)
(1.49201 0.238426 0)
(1.30572 0.192342 0)
(1.11009 0.147105 3.03674e-20)
(0.915123 0.10553 -3.18114e-20)
(0.72936 0.0696403 -1.78865e-20)
(0.559185 0.0405957 -7.55976e-20)
(0.408684 0.0187991 5.87043e-20)
(0.279921 0.00406185 -2.14871e-20)
(0.173375 -0.00422379 -4.43195e-20)
(0.0884746 -0.00647422 4.56166e-20)
(0.024061 -0.00255858 0)
(1.94567 0.306881 9.813e-22)
(1.97747 0.32263 -3.337e-20)
(2.00401 0.335018 -2.16497e-20)
(2.02255 0.345026 5.69304e-20)
(2.02929 0.350628 -3.19617e-20)
(2.01862 0.350526 4.20993e-20)
(1.98427 0.34302 3.64715e-21)
(1.92044 0.326954 -5.44465e-20)
(1.82358 0.302044 -6.71687e-20)
(1.69369 0.269199 1.49457e-19)
(1.53494 0.230486 -4.10235e-20)
(1.35496 0.188748 9.60926e-20)
(1.16349 0.147037 -5.16524e-20)
(0.970541 0.108068 0)
(0.784942 0.0738586 9.45447e-20)
(0.613497 0.0456086 -6.63789e-20)
(0.46074 0.0237711 1.0726e-19)
(0.329142 0.00823039 -7.55366e-20)
(0.21954 -0.0015281 8.07881e-20)
(0.13159 -0.00627676 -6.30556e-20)
(0.0642626 -0.00651819 0)
(0.0162338 -0.00217886 0)
(1.96574 0.28491 2.88807e-20)
(1.9938 0.29958 0)
(2.01447 0.310097 0)
(2.02411 0.317702 -2.78073e-20)
(2.01771 0.319932 0)
(1.98907 0.3157 0)
(1.93233 0.303612 4.96558e-20)
(1.84339 0.283253 -1.11811e-19)
(1.72149 0.255205 -3.1812e-21)
(1.56993 0.221184 -3.04657e-21)
(1.39568 0.183714 -4.44359e-20)
(1.2081 0.145621 8.98879e-20)
(1.01713 0.109502 5.05541e-20)
(0.831815 0.0773437 -2.19536e-19)
(0.659283 0.0503696 1.17865e-19)
(0.504418 0.0290775 6.45514e-20)
(0.370012 0.0133902 -1.3639e-19)
(0.257171 0.00284741 7.3162e-20)
(0.165784 -0.00324754 9.68165e-22)
(0.0949354 -0.00572812 -6.11114e-20)
(0.0433225 -0.00511813 0)
(0.00957342 -0.00136677 8.72067e-20)
(1.98341 0.263233 2.98719e-20)
(2.00614 0.27663 4.00374e-20)
(2.01842 0.285002 5.02912e-20)
(2.01566 0.289831 -5.56521e-20)
(1.99193 0.28838 7.00185e-20)
(1.94123 0.279985 8.4752e-20)
(1.8591 0.263786 -9.2975e-20)
(1.74412 0.240226 -5.66049e-20)
(1.59888 0.210676 -2.63993e-21)
(1.42973 0.177385 6.98485e-20)
(1.24566 0.142956 0)
(1.05656 0.10986 -4.33056e-20)
(0.871592 0.0800356 0)
(0.698146 0.0547172 -5.1676e-20)
(0.541392 0.0344395 -5.58833e-20)
(0.404376 0.0191679 0)
(0.288407 0.00847286 6.7222e-20)
(0.193532 0.00170021 -6.89819e-20)
(0.118977 -0.00191855 0)
(0.0634767 -0.00320631 -1.54111e-19)
(0.0256067 -0.00266817 1.18797e-19)
(0.004033 -0.000258181 -3.35881e-20)
(1.99715 0.241778 0)
(2.01226 0.253643 4.32823e-20)
(2.01281 0.259543 0)
(1.99349 0.261235 0)
(1.94815 0.255966 7.35932e-20)
(1.87203 0.243723 -2.46533e-19)
(1.76315 0.224334 -2.28394e-21)
(1.62347 0.19907 0)
(1.45883 0.169852 6.11381e-20)
(1.27788 0.139097 0)
(1.09044 0.109134 1.53633e-19)
(0.905799 0.0818488 -4.07705e-20)
(0.731558 0.0584725 9.36695e-20)
(0.573124 0.03957 -9.82975e-20)
(0.433748 0.0251495 5.56128e-20)
(0.314892 0.0148221 1.18123e-19)
(0.21671 0.00796043 -9.24376e-20)
(0.13851 0.00383167 1.33798e-19)
(0.0791067 0.00167091 -1.73866e-19)
(0.0370667 0.000708776 3.75458e-20)
(0.0109563 0.000479345 -7.67073e-20)
(-0.000465577 0.00102944 8.08633e-20)
(2.00564 0.219984 0)
(2.00982 0.229919 -1.23982e-19)
(1.99445 0.233005 -1.01087e-19)
(1.95407 0.231402 5.80436e-20)
(1.88336 0.222592 -6.9977e-20)
(1.77998 0.207349 8.16079e-20)
(1.64527 0.186198 -1.80008e-21)
(1.48461 0.161025 1.04945e-19)
(1.30638 0.133961 -6.06312e-20)
(1.12036 0.107231 6.6424e-20)
(0.935939 0.082648 -7.52771e-20)
(0.760936 0.0614368 -8.24506e-20)
(0.600964 0.0441879 1.32513e-19)
(0.459446 0.0309521 1.55306e-21)
(0.337964 0.0213868 5.15625e-20)
(0.236744 0.0149053 1.1329e-19)
(0.155132 0.0108007 -1.19371e-19)
(0.0919743 0.00834035 3.13462e-20)
(0.0458843 0.00680799 -1.00974e-19)
(0.0153927 0.00550909 -1.3916e-21)
(-0.000869464 0.00402392 1.47766e-19)
(-0.00402161 0.002399 0)
(2.00541 0.19789 7.50131e-20)
(1.99474 0.205571 1.40398e-21)
(1.95901 0.205701 0)
(1.89371 0.200926 6.1185e-20)
(1.79554 0.189234 0)
(1.66551 0.172211 0)
(1.50849 0.150929 0)
(1.33268 0.127569 1.04232e-19)
(1.14781 0.104119 5.81956e-20)
(0.963466 0.0823535 -6.57975e-20)
(0.78765 0.0634698 -1.40367e-21)
(0.626191 0.0480811 7.82022e-20)
(0.482673 0.0362779 -4.36385e-20)
(0.358776 0.0277662 4.73953e-20)
(0.254775 0.0220072 -5.11949e-20)
(0.170032 0.018335 1.62215e-19)
(0.103389 0.0160432 -5.79213e-20)
(0.0534616 0.0144451 -3.11927e-20)
(0.0188105 0.0128953 0)
(-0.00197821 0.0107806 -1.02893e-19)
(-0.0101676 0.0077268 1.76825e-19)
(-0.00674771 0.00377595 0)
(1.99465 0.17447 0)
(1.96429 0.179631 1.81023e-19)
(1.90403 0.17692 -1.01351e-19)
(1.81118 0.169625 2.04235e-21)
(1.68564 0.156305 -1.41017e-19)
(1.5321 0.139152 7.92434e-20)
(1.35843 0.119509 9.12071e-20)
(1.17446 0.0994893 -2.05207e-19)
(0.98994 0.0806847 -1.72914e-19)
(0.813144 0.0643072 1.25387e-19)
(0.650124 0.0509755 -7.036e-20)
(0.504625 0.0408232 7.54476e-20)
(0.378421 0.0336058 0)
(0.271821 0.0288374 4.45042e-20)
(0.184179 0.0259013 -4.97759e-20)
(0.114321 0.0241328 5.07564e-20)
(0.0608371 0.0228729 -1.68446e-19)
(0.0222774 0.0215042 1.17561e-19)
(-0.00274939 0.0194592 0)
(-0.01555 0.0162045 -1.64525e-19)
(-0.0172641 0.0114085 1.35825e-19)
(-0.00876081 0.00510567 0)
(1.96733 0.150823 0)
(1.91387 0.153554 -1.81291e-19)
(1.82646 0.148538 1.02861e-19)
(1.70614 0.139639 6.25391e-20)
(1.55625 0.126006 1.46354e-21)
(1.38484 0.110181 -7.98424e-20)
(1.20166 0.0934928 -9.00548e-20)
(1.01678 0.0777139 1.00844e-19)
(0.838787 0.0639204 0)
(0.674032 0.0527736 0)
(0.526456 0.0444284 0)
(0.397936 0.0386881 -7.45637e-20)
(0.28881 0.0351161 -8.08235e-20)
(0.198421 0.0331458 1.2866e-19)
(0.125555 0.0321586 -1.41895e-19)
(0.0687653 0.0315346 1.00172e-19)
(0.0265726 0.0306832 5.31305e-20)
(-0.00242654 0.0290622 -1.71011e-19)
(-0.0195152 0.0261799 1.7942e-19)
(-0.0258686 0.0215769 1.268e-19)
(-0.0225029 0.0149611 -1.31354e-19)
(-0.0101822 0.00635887 -1.12549e-19)
(1.92514 0.125016 0)
(1.84408 0.125677 0)
(1.72885 0.119368 0)
(1.58315 0.110266 0)
(1.41392 0.0980379 1.12462e-21)
(1.23143 0.0850788 9.78701e-22)
(1.04587 0.0724977 0)
(0.866335 0.0615519 0)
(0.699496 0.0528226 0)
(0.549561 0.0465229 0)
(0.418535 0.0424949 -6.5186e-20)
(0.306796 0.0403563 -1.4399e-19)
(0.213664 0.0395928 1.54852e-19)
(0.137879 0.0396348 -1.69848e-19)
(0.0779409 0.0399066 1.36658e-19)
(0.0323248 0.0398539 -9.69749e-20)
(-0.000401351 0.0389597 -5.26244e-20)
(-0.021528 0.0367545 5.59018e-20)
(-0.0322018 0.0328162 -1.16708e-19)
(-0.0334609 0.0267532 0)
(-0.0262073 0.018312 -3.15442e-20)
(-0.0111213 0.00751581 2.70846e-20)
(1.85805 0.101356 -7.93223e-20)
(1.75212 0.100629 -1.86594e-19)
(1.61098 0.0938695 1.04338e-19)
(1.44533 0.0855965 6.18842e-20)
(1.26385 0.0756891 -6.82705e-20)
(1.07783 0.0661969 0)
(0.896593 0.0579311 8.6505e-20)
(0.727431 0.0515994 0)
(0.574851 0.047374 0)
(0.441069 0.0451398 2.33298e-19)
(0.326534 0.0445504 -6.28484e-20)
(0.230563 0.0451382 0)
(0.151851 0.0463789 0)
(0.0888343 0.0477379 0)
(0.0399337 0.048696 1.31846e-19)
(0.00367498 0.0487636 0)
(-0.0212556 0.0474887 4.99678e-20)
(-0.0360053 0.0444632 -1.07442e-19)
(-0.0415782 0.0393241 1.69877e-19)
(-0.0388825 0.0317389 0)
(-0.0287193 0.0214901 1.24959e-19)
(-0.0117004 0.008601 -1.3408e-19)
(1.78272 0.0742782 1.55271e-19)
(1.64645 0.0729586 9.12197e-20)
(1.48384 0.0680315 0)
(1.30374 0.0618224 1.21276e-19)
(1.11665 0.0557566 0)
(0.933202 0.0506957 0)
(0.760978 0.0472112 -8.50784e-20)
(0.605019 0.0454623 0)
(0.467784 0.0453406 0)
(0.349865 0.0465554 -2.27264e-19)
(0.250606 0.0487078 6.18228e-20)
(0.168661 0.0513464 1.35696e-19)
(0.102401 0.0539996 -2.93346e-19)
(0.0501656 0.0561974 7.83385e-20)
(0.0104146 0.0574838 -8.5898e-20)
(-0.018212 0.0574261 -4.54803e-20)
(-0.0368833 0.0556221 -9.78359e-20)
(-0.0465987 0.051709 5.15042e-20)
(-0.0482247 0.0453686 0)
(-0.0425507 0.0363184 0)
(-0.0302901 0.0243773 6.01006e-22)
(-0.0120023 0.00957746 -1.04908e-19)
(1.63148 0.0541486 -4.16364e-20)
(1.46529 0.0503046 1.75593e-21)
(1.28356 0.0474194 1.16539e-19)
(1.09725 0.0442718 -1.91109e-19)
(0.915537 0.0424645 0)
(0.745928 0.0418852 0)
(0.592882 0.0427312 -8.95641e-20)
(0.458612 0.0448067 -4.40357e-22)
(0.343473 0.0478593 4.7354e-22)
(0.246647 0.0515549 1.1909e-19)
(0.166664 0.0555228 -3.21645e-19)
(0.101796 0.0593707 1.39138e-19)
(0.0503124 0.0626956 0)
(0.0106226 0.0650932 8.16424e-20)
(-0.0186605 0.0661676 -1.73708e-19)
(-0.0387106 0.0655409 1.86267e-19)
(-0.0505107 0.0628649 -4.94715e-20)
(-0.05489 0.0578332 5.16862e-20)
(-0.0525681 0.0501912 0)
(-0.0442086 0.0397349 -5.814e-20)
(-0.0304276 0.0263587 1.49345e-19)
(-0.0117294 0.0101441 0)
(1.37625 0.0317115 1.83976e-19)
(1.19296 0.0304319 -5.30186e-20)
(1.01078 0.0320116 -5.83118e-20)
(0.836715 0.0332885 0)
(0.676855 0.0361451 2.557e-22)
(0.534455 0.0396226 -1.6471e-19)
(0.410773 0.0438875 9.06319e-20)
(0.305534 0.0486318 1.00073e-19)
(0.217544 0.0536476 1.09744e-19)
(0.145134 0.0586674 -5.97693e-20)
(0.0865003 0.0634059 6.49857e-20)
(0.0399074 0.067553 -7.03944e-20)
(0.00380006 0.0707812 1.52865e-19)
(-0.0231545 0.0727538 -3.27265e-19)
(-0.0420667 0.0731373 1.75616e-19)
(-0.0538506 0.0716149 -9.34689e-20)
(-0.0592615 0.0679009 0)
(-0.0589372 0.0617553 0)
(-0.0534377 0.0529948 0)
(-0.0432867 0.041495 -5.75247e-20)
(-0.0289763 0.0272237 -1.18402e-19)
(-0.0109204 0.0102938 2.27938e-19)
(1.09125 0.0190041 4.85785e-20)
(0.913616 0.0208829 1.10354e-19)
(0.750242 0.0264269 -6.059e-20)
(0.601404 0.0310314 -1.36851e-19)
(0.470892 0.0368972 -2.14586e-22)
(0.358491 0.0427653 8.43462e-20)
(0.263657 0.0488578 -9.23731e-20)
(0.184835 0.0548883 -1.02034e-19)
(0.12028 0.060716 1.11057e-19)
(0.0681737 0.066137 6.07818e-20)
(0.026827 0.0709312 -6.60452e-20)
(-0.00525071 0.0748476 2.14398e-19)
(-0.029323 0.0776119 -7.63201e-20)
(-0.0464335 0.078936 -8.16101e-20)
(-0.0574319 0.0785322 0)
(-0.0630085 0.0761288 4.7035e-20)
(-0.0637326 0.0714874 9.91463e-20)
(-0.0600877 0.0644175 -1.0398e-19)
(-0.0525033 0.0547884 5.41386e-20)
(-0.0413848 0.0425332 -1.13403e-19)
(-0.0271183 0.0276696 1.17046e-19)
(-0.0100388 0.0103251 -2.51255e-20)
(0.812393 0.0130164 -9.89871e-20)
(0.656825 0.0187341 -5.58958e-20)
(0.522171 0.0268686 6.28878e-20)
(0.403365 0.03376 -1.90246e-22)
(0.302888 0.0411708 1.5447e-19)
(0.2185 0.0481141 0)
(0.148979 0.0548168 9.43942e-20)
(0.0923744 0.0610983 -1.03025e-19)
(0.0469646 0.0668917 -5.63038e-20)
(0.0111181 0.0720605 0)
(-0.0165724 0.0764392 -6.64014e-20)
(-0.0372982 0.0798214 0)
(-0.052039 0.0819694 7.70736e-20)
(-0.0615885 0.0826265 8.31297e-20)
(-0.0665851 0.0815334 0)
(-0.0675449 0.0784464 4.66116e-20)
(-0.064893 0.0731549 0)
(-0.0589919 0.0654972 0)
(-0.0501652 0.055372 5.39123e-20)
(-0.0387178 0.0427437 -1.12368e-19)
(-0.0249437 0.0276533 1.16077e-19)
(-0.00910471 0.0102272 -1.22429e-19)
(0.562423 0.013425 5.0301e-20)
(0.437133 0.0220579 1.71794e-19)
(0.333255 0.0310235 5.41979e-22)
(0.243842 0.0388293 -1.41935e-19)
(0.170375 0.046427 7.84187e-20)
(0.109989 0.0533367 -8.66961e-20)
(0.0613738 0.0597464 0)
(0.022693 0.0655857 5.21673e-20)
(-0.00751619 0.0708347 5.71344e-20)
(-0.0305823 0.0754019 6.18444e-20)
(-0.0476111 0.0791542 6.72992e-20)
(-0.0595191 0.081911 -7.24887e-20)
(-0.0670499 0.0834561 -3.57786e-22)
(-0.0708012 0.0835518 0)
(-0.0712514 0.0819564 0)
(-0.068787 0.078443 -9.41464e-20)
(-0.0637265 0.0728171 9.85608e-20)
(-0.0563409 0.0649315 0)
(-0.0468707 0.0546972 -1.07748e-19)
(-0.0355392 0.0420895 1.11544e-19)
(-0.0225631 0.0271512 0)
(-0.00814121 0.00998976 4.82949e-20)
(0.352705 0.0173414 0)
(0.258605 0.027189 -4.41397e-23)
(0.182849 0.0358369 -6.50115e-20)
(0.11917 0.0434531 1.4396e-19)
(0.0682083 0.0504021 -1.59018e-19)
(0.0273389 0.0566093 1.76016e-19)
(-0.00460602 0.0622262 -9.63189e-20)
(-0.0291472 0.0672634 -5.28967e-20)
(-0.0474461 0.0717263 -5.74108e-20)
(-0.0605359 0.0755517 6.24922e-20)
(-0.0692633 0.0786259 -6.76221e-20)
(-0.0743243 0.0807849 0)
(-0.0762812 0.0818269 -1.17011e-19)
(-0.0755847 0.0815274 1.66617e-19)
(-0.0725964 0.0796571 -8.8441e-20)
(-0.0676084 0.0759998 -4.69877e-20)
(-0.0608613 0.0703694 -7.39515e-20)
(-0.0525588 0.0626232 1.02889e-19)
(-0.0428784 0.0526725 2.6639e-20)
(-0.0319789 0.040489 2.75469e-20)
(-0.0200181 0.0261007 1.13869e-19)
(-0.00714719 0.00958146 -2.39397e-20)
(0.184503 0.0221685 0)
(0.11818 0.0315703 -1.17767e-19)
(0.0661107 0.0392335 0)
(0.0236104 0.0459472 7.26178e-20)
(-0.00929912 0.0518186 -4.96081e-23)
(-0.0346867 0.0569916 8.84774e-20)
(-0.0535319 0.0615994 9.74695e-20)
(-0.067013 0.0656997 2.98987e-22)
(-0.0760257 0.0693105 -5.76618e-20)
(-0.0813546 0.072385 0)
(-0.0836402 0.074822 -1.35838e-19)
(-0.0834073 0.0764703 0)
(-0.0810803 0.077141 3.92569e-20)
(-0.0770006 0.0766223 0)
(-0.0714434 0.0746967 -4.44478e-20)
(-0.0646326 0.0711576 9.33959e-20)
(-0.0567526 0.0658246 9.79328e-20)
(-0.0479593 0.0585554 1.96721e-23)
(-0.038385 0.0492554 -2.67489e-20)
(-0.0281422 0.0378844 -2.74822e-19)
(-0.017348 0.0244461 2.25722e-19)
(-0.0061256 0.00897225 -1.05463e-19)
(0.0540695 0.0258679 0)
(0.0106614 0.0337371 0)
(-0.0222697 0.0400375 -6.58959e-20)
(-0.0479159 0.0455027 7.31835e-20)
(-0.0666223 0.0501546 -8.08833e-20)
(-0.0799066 0.0542054 -1.33974e-19)
(-0.0885676 0.0577786 9.77891e-20)
(-0.093486 0.0609515 -1.07174e-19)
(-0.0953395 0.0637477 2.33014e-19)
(-0.0947124 0.0661315 -1.26185e-19)
(-0.092082 0.0680125 6.8368e-20)
(-0.0878395 0.0692531 -3.65408e-20)
(-0.0823025 0.069679 0)
(-0.075729 0.0690944 0)
(-0.0683295 0.0672964 -1.32894e-19)
(-0.0602775 0.0640907 9.32655e-20)
(-0.0517183 0.0593045 -2.4554e-20)
(-0.042775 0.0527968 -2.54232e-20)
(-0.0335507 0.0444671 0)
(-0.0241278 0.0342614 -8.16905e-20)
(-0.0146018 0.0221564 1.39522e-22)
(-0.00508772 0.00814069 1.15738e-19)
(-0.0433596 0.0272787 5.35856e-20)
(-0.0685736 0.0332034 -5.94042e-20)
(-0.0864151 0.0379842 6.662e-20)
(-0.0989567 0.0421005 -7.39496e-20)
(-0.106696 0.0455486 4.0658e-20)
(-0.11071 0.0485238 4.49881e-20)
(-0.111629 0.0511363 0)
(-0.110093 0.0534641 0)
(-0.106601 0.0555323 0)
(-0.101576 0.0573126 -9.50545e-20)
(-0.0953626 0.0587267 6.83257e-20)
(-0.0882452 0.0596524 -3.66605e-20)
(-0.0804562 0.0599343 1.17651e-19)
(-0.072188 0.0593964 0)
(-0.0636012 0.0578555 -1.10508e-19)
(-0.0548321 0.0551345 9.31427e-20)
(-0.045998 0.0510738 0)
(-0.0372019 0.0455393 2.55054e-20)
(-0.0285301 0.0384294 0)
(-0.0200493 0.0296813 0)
(-0.0118501 0.0192488 0)
(-0.00405671 0.00708348 -9.15508e-20)
(-0.111395 0.0259813 -5.38442e-20)
(-0.122573 0.0300288 -4.95596e-22)
(-0.128853 0.033343 6.652e-20)
(-0.13154 0.0361821 0)
(-0.131128 0.038539 -1.23069e-19)
(-0.128357 0.0405609 8.99298e-20)
(-0.1237 0.0423385 -9.88047e-20)
(-0.117603 0.0439392 8.08221e-20)
(-0.110413 0.0453859 -8.80572e-20)
(-0.102422 0.0466567 1.58995e-19)
(-0.0938661 0.0476861 3.43205e-20)
(-0.0849408 0.0483706 -7.3548e-20)
(-0.0758101 0.0485771 -1.97748e-20)
(-0.0666137 0.048154 -1.04476e-19)
(-0.0574729 0.0469428 1.10583e-19)
(-0.0484957 0.0447896 2.3226e-20)
(-0.0397796 0.0415547 -2.43075e-20)
(-0.0314146 0.0371187 1.01324e-19)
(-0.0234796 0.0313891 -1.04973e-19)
(-0.0160364 0.0243034 -1.07865e-19)
(-0.00918277 0.0158048 9.67626e-20)
(-0.00306594 0.00582163 -1.13248e-19)
(-0.15197 0.0222117 5.3661e-20)
(-0.152867 0.0246948 -3.00016e-20)
(-0.150811 0.0267534 0)
(-0.146602 0.0285041 0)
(-0.140633 0.0299466 0)
(-0.133386 0.03118 -4.53063e-20)
(-0.125187 0.0322731 9.91624e-20)
(-0.11632 0.0332782 -2.71203e-20)
(-0.107008 0.0342143 2.94912e-20)
(-0.0974316 0.0350652 3.18503e-20)
(-0.0877378 0.0357795 -1.03202e-19)
(-0.0780512 0.0362748 9.21331e-20)
(-0.0684801 0.0364436 -1.97213e-20)
(-0.0591221 0.0361624 -6.27464e-20)
(-0.0500676 0.0353014 -2.5888e-25)
(-0.0414023 0.0337343 6.97526e-20)
(-0.0332086 0.0313469 -6.07457e-20)
(-0.0255674 0.0280431 1.01252e-19)
(-0.0185532 0.0237492 0)
(-0.0122287 0.0184171 1.34384e-20)
(-0.00670433 0.0119958 4.38769e-23)
(-0.00215694 0.00441201 1.12693e-20)
(-0.165696 0.0166035 2.70794e-20)
(-0.159935 0.0179225 -1.20451e-19)
(-0.152689 0.0190235 3.33678e-20)
(-0.144435 0.019943 3.72353e-20)
(-0.135424 0.0206906 0)
(-0.125943 0.0213279 2.27941e-20)
(-0.116182 0.0219028 -4.96477e-20)
(-0.106298 0.0224522 0)
(-0.0964104 0.0229905 -8.86751e-20)
(-0.0866113 0.0235075 9.58966e-20)
(-0.0769773 0.0239671 -1.37853e-19)
(-0.0675763 0.0243097 -1.85859e-20)
(-0.0584733 0.024456 7.89025e-20)
(-0.0497333 0.0243131 1.04815e-19)
(-0.0414233 0.0237821 -8.85909e-20)
(-0.0336115 0.0227663 1.16409e-20)
(-0.026368 0.0211797 9.728e-20)
(-0.0197646 0.0189529 -1.12581e-22)
(-0.0138704 0.0160393 -5.23916e-20)
(-0.00874653 0.0124174 -7.39301e-20)
(-0.00451222 0.00806353 1.37338e-20)
(-0.00136984 0.00293405 0)
(-0.152591 0.010263 9.91777e-23)
(-0.143824 0.0108248 -1.49225e-20)
(-0.134567 0.0112913 1.67435e-20)
(-0.125105 0.0116603 -1.64219e-22)
(-0.115549 0.011948 0)
(-0.106045 0.0121894 -2.28525e-20)
(-0.0966748 0.0124146 4.9822e-20)
(-0.087502 0.0126469 6.82442e-20)
(-0.0785666 0.0128966 -1.47271e-20)
(-0.0698967 0.0131594 6.42549e-20)
(-0.0615164 0.013415 -1.38333e-19)
(-0.0534517 0.0136275 1.48365e-19)
(-0.0457352 0.0137471 -8.90422e-20)
(-0.0384076 0.013713 -3.15326e-20)
(-0.031518 0.0134582 4.44019e-20)
(-0.025122 0.0129155 -5.83232e-20)
(-0.0192792 0.0120247 3.654e-20)
(-0.014052 0.0107405 -5.70099e-20)
(-0.00949991 0.00904085 0)
(-0.0056751 0.00693301 6.71875e-21)
(-0.00268824 0.00443321 0)
(-0.000743441 0.00155552 2.79833e-21)
(-0.112608 0.00424506 0)
(-0.104539 0.00439866 3.80266e-20)
(-0.0964833 0.00450961 -5.05375e-20)
(-0.0886361 0.00457483 -4.70042e-20)
(-0.0810078 0.00461107 4.13392e-20)
(-0.0736531 0.00463604 3.43508e-20)
(-0.0665859 0.00466399 -4.99762e-20)
(-0.0598111 0.00470583 3.42751e-20)
(-0.0533222 0.00476728 -7.4265e-20)
(-0.0471091 0.00484818 0)
(-0.041164 0.00494176 0)
(-0.035486 0.00503421 0)
(-0.0300845 0.00510458 4.96452e-20)
(-0.0249812 0.00512504 5.27284e-21)
(-0.0202098 0.00506212 -8.90324e-20)
(-0.015814 0.00487909 5.2626e-20)
(-0.0118446 0.00454005 4.88281e-20)
(-0.00835523 0.00401649 -4.44257e-20)
(-0.00539532 0.00329806 0)
(-0.00300163 0.00240508 3.37233e-21)
(-0.0012477 0.0013897 -5.49245e-20)
(-0.000289869 0.000358537 4.20088e-20)
(-0.0461752 0.000405714 2.637e-20)
(-0.0424294 0.000439334 7.39336e-21)
(-0.038739 0.00045913 0)
(-0.0352513 0.000465275 9.10995e-21)
(-0.0319423 0.000465436 3.14358e-22)
(-0.0288262 0.000464292 1.1219e-20)
(-0.0258932 0.00046507 2.42578e-20)
(-0.0231308 0.000470306 -1.97424e-20)
(-0.0205225 0.000481845 0)
(-0.0180509 0.000500858 0)
(-0.0157004 0.000527649 6.50275e-23)
(-0.0134597 0.000561328 0)
(-0.0113235 0.000599373 0)
(-0.00929474 0.000637072 -3.52821e-20)
(-0.00738517 0.000666968 4.25155e-20)
(-0.00561639 0.0006785 -5.56729e-21)
(-0.00401916 0.000658247 0)
(-0.00263222 0.000591602 -2.36384e-23)
(-0.0014975 0.000467596 -4.99783e-20)
(-0.000650892 0.000287608 4.82396e-20)
(-0.000129673 7.68191e-05 0)
(1.66662e-05 -7.98773e-05 -4.32356e-20)
(1.1361 0.0236863 3.93196e-24)
(1.09002 0.0252709 -4.56365e-24)
(1.04192 0.0269023 0)
(0.991664 0.0285821 0)
(0.939375 0.0303164 2.84754e-20)
(0.885136 0.0321117 -3.11589e-20)
(0.829039 0.033971 0)
(0.771189 0.0358955 2.06584e-20)
(0.711707 0.0378846 -4.39338e-20)
(0.65072 0.0399359 -2.45305e-20)
(0.588375 0.0420417 0)
(0.524835 0.04418 -1.4715e-20)
(0.46032 0.0462918 -1.59564e-20)
(0.39516 0.0482454 -8.42608e-24)
(0.329909 0.0497951 0)
(0.265468 0.0505564 0)
(0.203203 0.0500125 4.14547e-20)
(0.144995 0.0475691 -5.38154e-20)
(0.0931078 0.0426398 3.37269e-20)
(0.0499404 0.0347479 -2.31867e-20)
(0.0187308 0.023584 5.84441e-24)
(0.00351605 0.00905322 -4.79954e-24)
(1.14048 0.0796782 0)
(1.09486 0.0853777 0)
(1.04736 0.0913508 4.35148e-20)
(0.997685 0.0975678 -4.79052e-20)
(0.945977 0.104022 0)
(0.89232 0.110717 1.63697e-21)
(0.836806 0.117651 2.18936e-21)
(0.779541 0.124816 -5.82486e-20)
(0.720645 0.132206 1.33107e-19)
(0.660247 0.139805 -1.20258e-19)
(0.598489 0.147581 -5.42215e-20)
(0.535533 0.155448 7.27106e-20)
(0.471582 0.163182 -7.94716e-20)
(0.406936 0.170296 -9.70539e-22)
(0.342091 0.175902 7.26016e-20)
(0.277858 0.178623 0)
(0.21548 0.176643 0)
(0.156699 0.167891 1.07437e-20)
(0.10363 0.150351 5.60317e-20)
(0.0585494 0.122396 -9.16655e-20)
(0.0246069 0.0829958 -9.51676e-20)
(0.00579825 0.0318687 -3.50886e-22)
(1.14914 0.135679 0)
(1.10447 0.14551 1.46356e-19)
(1.0582 0.155748 -1.6746e-19)
(1.0097 0.166383 9.39518e-20)
(0.959169 0.177408 0)
(0.906696 0.188831 -6.30864e-20)
(0.852374 0.200652 1.36608e-19)
(0.796312 0.212863 0)
(0.738629 0.225454 4.15091e-20)
(0.679454 0.2384 1.91938e-19)
(0.618924 0.251649 -1.03833e-19)
(0.557189 0.265053 1.15573e-19)
(0.494423 0.27823 3.33613e-20)
(0.430861 0.290346 1.81235e-21)
(0.366877 0.29988 -2.85219e-19)
(0.303094 0.304481 -1.36844e-21)
(0.240504 0.301051 1.58693e-19)
(0.180555 0.286068 0)
(0.125075 0.256109 2.19351e-20)
(0.0760879 0.208425 0)
(0.0365717 0.141288 -2.26364e-20)
(0.0104434 0.0542417 7.59056e-20)
(1.16113 0.188944 -1.19924e-19)
(1.118 0.202786 -2.08232e-21)
(1.07368 0.217148 7.98743e-20)
(1.02704 0.232084 -3.35969e-21)
(0.978346 0.24757 1.03848e-19)
(0.927715 0.263618 1.17284e-19)
(0.875234 0.280227 0)
(0.821019 0.297386 0)
(0.765191 0.315078 8.44845e-20)
(0.707878 0.333271 -1.39098e-19)
(0.649214 0.351892 0)
(0.589334 0.370733 0)
(0.528368 0.389255 5.85824e-20)
(0.466452 0.406287 6.29374e-20)
(0.40378 0.419685 -1.38126e-19)
(0.340693 0.426152 1.45047e-19)
(0.277806 0.421338 1.53736e-19)
(0.216134 0.400316 -1.2077e-19)
(0.157065 0.358312 -4.05495e-20)
(0.102257 0.291512 0)
(0.0544258 0.197541 -1.55781e-19)
(0.0173723 0.0758075 -6.87259e-22)
(1.17643 0.239611 -5.7639e-22)
(1.13536 0.257334 6.42609e-20)
(1.09364 0.275621 -7.9519e-20)
(1.04945 0.294653 -2.72523e-19)
(1.0032 0.314385 1.00355e-19)
(0.955006 0.334832 -3.57065e-22)
(0.904968 0.355996 -1.19514e-21)
(0.853203 0.377866 0)
(0.799837 0.400421 -8.39316e-20)
(0.744997 0.423623 8.45601e-20)
(0.688814 0.447379 0)
(0.6314 0.471426 1.02688e-19)
(0.572828 0.495077 1.71414e-19)
(0.513106 0.516832 -6.00706e-20)
(0.452188 0.533953 -2.60166e-19)
(0.390042 0.54222 2.77423e-19)
(0.326786 0.536086 -2.89961e-19)
(0.262859 0.509272 -3.89828e-20)
(0.19908 0.455725 2.41403e-21)
(0.136622 0.370638 1.63633e-19)
(0.0778669 0.25106 -1.6752e-19)
(0.0264635 0.0962973 -3.34873e-20)
(1.19461 0.28639 -1.08924e-19)
(1.15614 0.307821 0)
(1.11762 0.329797 -1.51473e-19)
(1.07647 0.352692 -5.82894e-21)
(1.03324 0.37643 2.8808e-19)
(0.988072 0.401029 0)
(0.941055 0.426495 -1.25136e-19)
(0.892318 0.452816 -1.32365e-19)
(0.84199 0.479971 7.53659e-20)
(0.790201 0.507916 3.32533e-21)
(0.737077 0.536544 3.1458e-21)
(0.682705 0.565539 -1.95466e-19)
(0.62709 0.594078 -1.09664e-19)
(0.570081 0.620352 0)
(0.511338 0.641054 -1.86587e-19)
(0.45037 0.65109 2.58049e-19)
(0.386681 0.643763 6.51705e-20)
(0.320005 0.611518 0)
(0.250461 0.547102 3.32385e-19)
(0.178639 0.444801 1.62745e-21)
(0.106518 0.301163 2.74734e-21)
(0.0375653 0.115448 -9.46207e-20)
(1.21524 0.328705 2.15808e-19)
(1.17986 0.353616 4.72445e-21)
(1.14511 0.378983 -1.37675e-19)
(1.10751 0.405448 -1.62229e-19)
(1.06783 0.432891 2.92906e-21)
(1.0262 0.461339 0)
(0.982729 0.490799 -2.31734e-19)
(0.937549 0.521262 5.06658e-19)
(0.890795 0.552703 0)
(0.8426 0.585077 0)
(0.793082 0.618262 0)
(0.742304 0.6519 9.55645e-20)
(0.690189 0.685042 -1.03122e-19)
(0.636401 0.715597 1.01835e-19)
(0.580255 0.739727 1.67377e-19)
(0.520719 0.751511 3.18433e-22)
(0.456572 0.743169 -5.03867e-19)
(0.386716 0.705945 2.59321e-19)
(0.310452 0.631472 -2.69032e-19)
(0.227695 0.513223 2.77192e-19)
(0.139962 0.34733 2.87965e-19)
(0.0505126 0.133066 -2.36315e-19)
(1.23763 0.365859 0)
(1.20584 0.394005 0)
(1.17537 0.422448 0)
(1.14182 0.452161 0)
(1.10618 0.482966 3.35752e-19)
(1.06859 0.514899 -1.91685e-19)
(1.02915 0.547977 2.09218e-19)
(0.988002 0.582194 -1.22142e-19)
(0.945299 0.61753 -1.24921e-19)
(0.901176 0.653941 -2.88045e-19)
(0.855747 0.691298 4.58981e-19)
(0.809049 0.72921 0)
(0.760918 0.766624 0)
(0.710817 0.801195 -1.01255e-19)
(0.657672 0.8286 0)
(0.599832 0.842148 0)
(0.535249 0.833045 -2.82885e-19)
(0.461873 0.791408 2.87874e-19)
(0.378074 0.707849 0)
(0.283005 0.575121 0)
(0.17767 0.389036 0)
(0.0650969 0.148948 2.13454e-19)
(1.26104 0.397285 1.80237e-19)
(1.2333 0.428336 0)
(1.20752 0.459487 0)
(1.17842 0.492092 0)
(1.14722 0.525908 -1.604e-19)
(1.11407 0.560977 1.7552e-19)
(1.07907 0.597324 -1.91611e-19)
(1.0424 0.63494 0)
(1.0042 0.673809 1.23747e-19)
(0.964623 0.713885 -1.23453e-19)
(0.923767 0.755035 -1.47817e-19)
(0.881643 0.796845 0)
(0.837998 0.838178 0)
(0.792074 0.876476 0)
(0.742366 0.906981 0)
(0.686538 0.922301 0)
(0.621613 0.912701 9.19556e-20)
(0.544474 0.867261 1.01485e-19)
(0.452456 0.775658 -2.10931e-19)
(0.343876 0.630028 0)
(0.21918 0.425966 0)
(0.0811403 0.162982 0)
(1.28456 0.422829 -1.65807e-19)
(1.26137 0.456501 -1.96789e-19)
(1.2407 0.490009 1.11635e-19)
(1.21646 0.525108 0)
(1.19011 0.561484 1.42113e-19)
(1.16176 0.599203 -1.55644e-19)
(1.13155 0.638307 0)
(1.09968 0.678801 -9.20452e-20)
(1.0663 0.720679 1.00846e-19)
(1.03158 0.763903 1.22148e-19)
(0.995624 0.808346 2.50986e-19)
(0.958421 0.853585 -2.69197e-19)
(0.919633 0.898427 -6.71105e-20)
(0.878278 0.940141 0)
(0.832403 0.973597 0)
(0.778925 0.990763 -7.57975e-20)
(0.713848 0.981032 -9.14374e-20)
(0.632873 0.932517 -1.25434e-19)
(0.532188 0.834054 2.19671e-19)
(0.409198 0.677263 0)
(0.263756 0.457641 -1.47131e-19)
(0.0983555 0.174975 1.57718e-19)
(1.30732 0.442005 0)
(1.28903 0.47785 -1.6914e-19)
(1.27366 0.513328 1.04246e-19)
(1.2545 0.550593 1.07656e-19)
(1.23325 0.589232 1.27733e-19)
(1.21002 0.629315 -1.39909e-19)
(1.18496 0.670881 -1.57387e-19)
(1.15828 0.713936 8.92819e-20)
(1.13014 0.758478 8.80452e-20)
(1.10071 0.804474 2.04049e-19)
(1.0701 0.851805 -8.91204e-22)
(1.03829 0.900048 -2.34964e-19)
(1.00483 0.947976 6.64169e-20)
(0.968537 0.99273 5.96235e-20)
(0.92696 1.02887 -6.13643e-20)
(0.876219 1.04781 -1.23037e-19)
(0.811208 1.03815 4.06469e-21)
(0.726347 0.987165 8.09415e-20)
(0.616593 0.882935 1.03624e-19)
(0.478394 0.716684 -1.48884e-19)
(0.310991 0.483938 -1.95919e-19)
(0.116579 0.184881 1.56519e-19)
(1.32838 0.455554 -1.31758e-19)
(1.31558 0.493349 1.66602e-19)
(1.30589 0.530378 3.53129e-19)
(1.29215 0.569251 -4.07986e-19)
(1.27621 0.609513 2.19247e-19)
(1.25823 0.65128 -1.18796e-19)
(1.2384 0.694616 0)
(1.21696 0.739544 0)
(1.19411 0.786072 -1.54109e-19)
(1.17003 0.834184 1.7596e-19)
(1.14485 0.883775 -1.8967e-19)
(1.11853 0.934446 9.20551e-20)
(1.09059 0.984976 -2.05203e-19)
(1.05962 1.03244 2.57546e-19)
(1.02271 1.07114 -1.04929e-19)
(0.975153 1.09201 2.8919e-19)
(0.910653 1.08293 0)
(0.822224 1.03031 1.24101e-19)
(0.703463 0.921586 -6.59081e-20)
(0.549779 0.747701 2.37698e-20)
(0.35979 0.504403 0)
(0.135389 0.192498 -1.26674e-19)
(1.3468 0.462332 2.48385e-19)
(1.33957 0.501609 1.36884e-19)
(1.33547 0.54007 -3.30709e-19)
(1.32732 0.580515 7.44099e-21)
(1.31701 0.622379 -5.15362e-21)
(1.30467 0.665779 1.17437e-19)
(1.29051 0.710785 -2.41539e-19)
(1.27478 0.757429 1.31562e-19)
(1.25769 0.805733 1.51681e-19)
(1.23945 0.855688 -1.49357e-19)
(1.22018 0.907204 8.78368e-20)
(1.19986 0.959895 -9.07505e-20)
(1.17793 1.01255 0)
(1.15276 1.06219 -1.74025e-19)