/*--------------------------------*- C++ -*----------------------------------*\
| =========                 |                                                 |
| \\      /  F ield         | OpenFOAM Extend Project: Open source CFD        |
|  \\    /   O peration     | Version:  1.6-ext                               |
|   \\  /    A nd           | Web:      www.extend-project.de                 |
|    \\/     M anipulation  |                                                 |
\*---------------------------------------------------------------------------*/
FoamFile
{
    version     2.0;
    format      ascii;
    class       volVectorField;
    location    "1.1";
    object      U_0;
}
// * * * * * * * * * * * * * * * * * * * * * * * * * * * * * * * * * * * * * //

dimensions      [0 1 -1 0 0 0 0];

internalField   nonuniform List<vector> 
20940
(
(1.84868 0.3986 -8.98112e-22)
(1.88817 0.418629 -1.01409e-20)
(1.92558 0.437935 3.86202e-21)
(1.96002 0.455472 -6.00858e-21)
(1.99123 0.471449 6.63197e-21)
(2.01754 0.484739 0)
(2.03597 0.49423 0)
(2.0417 0.497973 6.87711e-21)
(2.02835 0.49373 -8.58779e-21)
(1.98882 0.479267 9.3023e-21)
(1.9169 0.453049 0)
(1.80904 0.414854 -4.72818e-22)
(1.66571 0.366127 1.44158e-20)
(1.4918 0.309867 0)
(1.29581 0.25009 2.80493e-22)
(1.08817 0.191056 -2.95786e-20)
(0.8794 0.136567 1.05445e-20)
(0.678566 0.0895172 0)
(0.492464 0.0517142 -5.89157e-21)
(0.325379 0.0239253 6.17084e-21)
(0.179319 0.00662478 1.29908e-23)
(0.0544915 0.000491642 5.32864e-21)
(1.87553 0.375415 4.85106e-21)
(1.91375 0.394289 2.14528e-20)
(1.94955 0.411782 -1.00698e-20)
(1.9818 0.427532 -1.40085e-20)
(2.0097 0.441198 1.4169e-20)
(2.03071 0.451575 0)
(2.04083 0.457244 -2.42304e-20)
(2.03431 0.456169 3.4176e-20)
(2.00439 0.446282 1.39529e-21)
(1.94458 0.425905 -1.86941e-20)
(1.85041 0.394409 2.31807e-20)
(1.72102 0.352624 -1.15224e-20)
(1.55982 0.30289 -2.81945e-20)
(1.37417 0.248673 0)
(1.17391 0.193886 8.91867e-21)
(0.969595 0.142197 4.8191e-20)
(0.770776 0.0965169 -6.04962e-20)
(0.585005 0.0587898 2.19123e-20)
(0.417417 0.029987 -1.69378e-20)
(0.270846 0.0102524 5.64332e-21)
(0.146246 -0.000357707 2.52218e-20)
(0.0432237 -0.00140489 -2.60805e-20)
(1.90016 0.352201 1.65422e-21)
(1.93677 0.369989 2.00957e-21)
(1.97042 0.385774 -1.8605e-20)
(1.99962 0.399746 -1.36479e-20)
(2.02278 0.410995 3.34476e-20)
(2.03637 0.418229 -3.67869e-20)
(2.03533 0.419791 0)
(2.01329 0.413715 2.93179e-20)
(1.9637 0.398317 2.49554e-21)
(1.88144 0.372677 -3.73333e-20)
(1.76451 0.337145 4.5532e-20)
(1.615 0.293491 -4.89988e-20)
(1.43912 0.244659 -5.71543e-20)
(1.24602 0.194202 -3.23806e-20)
(1.04607 0.145609 6.67842e-20)
(0.849133 0.101763 1.79235e-20)
(0.663341 0.0646677 5.95653e-20)
(0.494528 0.0354205 2.10352e-20)
(0.346222 0.0143268 2.21106e-20)
(0.21997 0.00107713 -5.75767e-20)
(0.115865 -0.00456566 0)
(0.0330587 -0.00235526 0)
(1.92364 0.32933 -3.61526e-20)
(1.95817 0.346101 0)
(1.98885 0.360214 4.43956e-20)
(2.01367 0.372307 8.0493e-22)
(2.03002 0.380896 0)
(2.03327 0.38464 0)
(2.01752 0.381765 0)
(1.9763 0.370594 -5.86285e-20)
(1.90407 0.350049 6.38459e-20)
(1.79794 0.32011 0)
(1.65889 0.282077 0)
(1.49202 0.238424 0)
(1.30573 0.192341 0)
(1.1101 0.147104 3.03881e-20)
(0.915129 0.105529 -3.18334e-20)
(0.729366 0.0696396 -1.78981e-20)
(0.55919 0.0405952 -7.56464e-20)
(0.408688 0.0187987 5.87426e-20)
(0.279924 0.00406152 -2.15004e-20)
(0.173377 -0.00422404 -4.4347e-20)
(0.088476 -0.0064744 4.56449e-20)
(0.0240615 -0.00255865 0)
(1.94567 0.306875 9.81286e-22)
(1.97746 0.322624 -3.34287e-20)
(2.004 0.335013 -2.16823e-20)
(2.02255 0.345021 5.70024e-20)
(2.02929 0.350623 -3.20014e-20)
(2.01862 0.350521 4.21429e-20)
(1.98427 0.343015 3.64716e-21)
(1.92044 0.32695 -5.44989e-20)
(1.82358 0.30204 -6.72258e-20)
(1.6937 0.269196 1.49581e-19)
(1.53494 0.230483 -4.1057e-20)
(1.35497 0.188746 9.61647e-20)
(1.1635 0.147036 -5.1691e-20)
(0.970548 0.108067 0)
(0.784948 0.0738577 9.46105e-20)
(0.613503 0.0456078 -6.64252e-20)
(0.460745 0.0237705 1.07333e-19)
(0.329146 0.00822991 -7.55877e-20)
(0.219543 -0.00152849 8.08412e-20)
(0.131592 -0.00627707 -6.30968e-20)
(0.0642639 -0.0065184 0)
(0.0162343 -0.00217894 0)
(1.96574 0.284905 2.89332e-20)
(1.9938 0.299574 0)
(2.01447 0.310091 0)
(2.02411 0.317697 -2.78431e-20)
(2.0177 0.319927 0)
(1.98907 0.315695 0)
(1.93233 0.303607 4.97034e-20)
(1.84339 0.283249 -1.11915e-19)
(1.72149 0.255202 -3.18122e-21)
(1.56993 0.221181 -3.04659e-21)
(1.39569 0.183711 -4.44693e-20)
(1.2081 0.145619 8.99598e-20)
(1.01714 0.109501 5.05927e-20)
(0.831822 0.0773425 -2.19701e-19)
(0.65929 0.0503686 1.17953e-19)
(0.504423 0.0290767 6.45976e-20)
(0.370016 0.0133895 -1.36487e-19)
(0.257175 0.00284686 7.3213e-20)
(0.165787 -0.00324798 9.68167e-22)
(0.0949373 -0.00572845 -6.11526e-20)
(0.0433236 -0.00511836 0)
(0.00957379 -0.00136685 8.72651e-20)
(1.9834 0.263227 2.99241e-20)
(2.00614 0.276625 4.00953e-20)
(2.01842 0.284996 5.03555e-20)
(2.01565 0.289825 -5.57232e-20)
(1.99192 0.288374 7.0097e-20)
(1.94123 0.27998 8.48384e-20)
(1.8591 0.263782 -9.30697e-20)
(1.74413 0.240223 -5.66567e-20)
(1.59888 0.210673 -2.63995e-21)
(1.42974 0.177382 6.99099e-20)
(1.24567 0.142954 0)
(1.05657 0.109858 -4.33414e-20)
(0.871599 0.0800341 0)
(0.698153 0.054716 -5.1717e-20)
(0.541398 0.0344384 -5.59268e-20)
(0.404382 0.019167 0)
(0.288411 0.00847213 6.72705e-20)
(0.193536 0.00169962 -6.90327e-20)
(0.11898 -0.00191901 0)
(0.0634784 -0.00320665 -1.54221e-19)
(0.0256076 -0.00266839 1.18882e-19)
(0.00403331 -0.000258262 -3.36115e-20)
(1.99714 0.241772 0)
(2.01226 0.253638 4.33398e-20)
(2.01281 0.259538 0)
(1.99349 0.26123 0)
(1.94815 0.255961 7.3671e-20)
(1.87203 0.243718 -2.4679e-19)
(1.76315 0.22433 -2.28396e-21)
(1.62348 0.199066 0)
(1.45883 0.169849 6.11942e-20)
(1.27789 0.139094 0)
(1.09045 0.109132 1.53765e-19)
(0.905807 0.081847 -4.0806e-20)
(0.731566 0.0584709 9.37458e-20)
(0.573131 0.0395686 -9.8379e-20)
(0.433755 0.0251483 5.56562e-20)
(0.314897 0.0148212 1.18215e-19)
(0.216714 0.00795966 -9.251e-20)
(0.138513 0.00383106 1.33899e-19)
(0.0791089 0.00167045 -1.73998e-19)
(0.0370682 0.000708443 3.75731e-20)
(0.010957 0.000479136 -7.67637e-20)
(-0.00046534 0.00102936 8.0922e-20)
(2.00564 0.219978 0)
(2.00982 0.229913 -1.24152e-19)
(1.99445 0.233 -1.01214e-19)
(1.95406 0.231397 5.81135e-20)
(1.88336 0.222587 -7.00541e-20)
(1.77998 0.207345 8.16928e-20)
(1.64527 0.186194 -1.8001e-21)
(1.48461 0.161021 1.05047e-19)
(1.30639 0.133958 -6.06868e-20)
(1.12037 0.107228 6.64845e-20)
(0.935948 0.0826458 -7.53426e-20)
(0.760944 0.0614349 -8.25212e-20)
(0.600972 0.0441863 1.32627e-19)
(0.459453 0.0309507 1.55307e-21)
(0.33797 0.0213856 5.16055e-20)
(0.236749 0.0149043 1.13381e-19)
(0.155136 0.0107999 -1.19467e-19)
(0.091977 0.00833974 3.13714e-20)
(0.0458861 0.00680754 -1.01053e-19)
(0.0153939 0.00550878 -1.39161e-21)
(-0.000868862 0.00402374 1.47879e-19)
(-0.00402143 0.00239895 0)
(2.00541 0.197884 7.51146e-20)
(1.99474 0.205565 1.40397e-21)
(1.95901 0.205696 0)
(1.89371 0.200922 6.12542e-20)
(1.79554 0.18923 0)
(1.66552 0.172207 0)
(1.5085 0.150926 0)
(1.33268 0.127566 1.04333e-19)
(1.14782 0.104116 5.82507e-20)
(0.963475 0.0823511 -6.58574e-20)
(0.787659 0.0634677 -1.40368e-21)
(0.626199 0.0480791 7.82721e-20)
(0.48268 0.0362762 -4.36761e-20)
(0.358782 0.0277647 4.74354e-20)
(0.254781 0.0220059 -5.12377e-20)
(0.170036 0.018334 1.62351e-19)
(0.103392 0.0160424 -5.79691e-20)
(0.053464 0.0144444 -3.12178e-20)
(0.0188121 0.0128949 0)
(-0.00197727 0.0107803 -1.02974e-19)
(-0.0101671 0.00772665 1.76966e-19)
(-0.00674759 0.00377591 0)
(1.99465 0.174464 0)
(1.96428 0.179625 1.81246e-19)
(1.90403 0.176915 -1.01475e-19)
(1.81119 0.16962 2.04234e-21)
(1.68564 0.156301 -1.41168e-19)
(1.5321 0.139148 7.93264e-20)
(1.35843 0.119505 9.12983e-20)
(1.17447 0.0994864 -2.05407e-19)
(0.98995 0.080682 -1.73077e-19)
(0.813153 0.0643047 1.25505e-19)
(0.650132 0.0509732 -7.04242e-20)
(0.504634 0.0408211 7.55168e-20)
(0.378429 0.033604 0)
(0.271827 0.0288357 4.4544e-20)
(0.184184 0.0258999 -4.98183e-20)
(0.114325 0.0241316 5.08014e-20)
(0.06084 0.022872 -1.68589e-19)
(0.0222795 0.0215035 1.17661e-19)
(-0.00274807 0.0194588 0)
(-0.0155492 0.0162043 -1.64661e-19)
(-0.0172638 0.0114084 1.35937e-19)
(-0.00876075 0.00510565 0)
(1.96732 0.150818 0)
(1.91387 0.153549 -1.81511e-19)
(1.82646 0.148533 1.02983e-19)
(1.70614 0.139635 6.26066e-20)
(1.55625 0.126002 1.46353e-21)
(1.38485 0.110178 -7.99244e-20)
(1.20167 0.0934896 -9.01449e-20)
(1.01679 0.077711 1.00943e-19)
(0.838797 0.0639176 0)
(0.674041 0.052771 0)
(0.526464 0.0444259 0)
(0.397943 0.0386859 -7.46321e-20)
(0.288817 0.0351141 -8.0897e-20)
(0.198426 0.0331441 1.28778e-19)
(0.125559 0.0321571 -1.42021e-19)
(0.0687688 0.0315334 1.00261e-19)
(0.0265751 0.0306823 5.31774e-20)
(-0.00242476 0.0290616 -1.7116e-19)
(-0.0195142 0.0261795 1.79575e-19)
(-0.0258681 0.0215767 1.26907e-19)
(-0.0225027 0.0149611 -1.31466e-19)
(-0.0101822 0.00635887 -1.12643e-19)
(1.92513 0.125011 0)
(1.84408 0.125672 0)
(1.72886 0.119364 0)
(1.58315 0.110262 0)
(1.41393 0.0980342 1.12462e-21)
(1.23144 0.0850754 9.78717e-22)
(1.04588 0.0724945 0)
(0.866345 0.0615489 0)
(0.699505 0.0528197 0)
(0.54957 0.0465202 0)
(0.418543 0.0424923 -6.52485e-20)
(0.306803 0.0403539 -1.44125e-19)
(0.21367 0.0395906 1.54997e-19)
(0.137884 0.0396329 -1.70003e-19)
(0.0779449 0.0399049 1.36783e-19)
(0.0323279 0.0398525 -9.70629e-20)
(-0.000399084 0.0389587 -5.26709e-20)
(-0.0215264 0.0367539 5.59508e-20)
(-0.0322009 0.0328159 -1.16811e-19)
(-0.0334605 0.026753 0)
(-0.0262072 0.0183119 -3.1572e-20)
(-0.0111213 0.00751584 2.71083e-20)
(1.85805 0.101352 -7.9419e-20)
(1.75212 0.100625 -1.86808e-19)
(1.61098 0.0938655 1.04457e-19)
(1.44534 0.0855927 6.19498e-20)
(1.26386 0.0756856 -6.83429e-20)
(1.07784 0.0661935 0)
(0.896603 0.0579279 8.65923e-20)
(0.727441 0.0515962 0)
(0.57486 0.047371 0)
(0.441077 0.0451369 2.33525e-19)
(0.326541 0.0445476 -6.29099e-20)
(0.23057 0.0451356 0)
(0.151856 0.0463766 0)
(0.0888387 0.0477358 0)
(0.0399372 0.0486942 1.31968e-19)
(0.00367771 0.0487621 0)
(-0.0212536 0.0474876 5.00138e-20)
(-0.036004 0.0444625 -1.07538e-19)
(-0.0415774 0.0393237 1.7003e-19)
(-0.0388821 0.0317387 0)
(-0.0287193 0.0214901 1.25069e-19)
(-0.0117004 0.00860105 -1.34199e-19)
(1.78273 0.0742737 1.55462e-19)
(1.64646 0.0729545 9.13254e-20)
(1.48385 0.0680277 0)
(1.30375 0.0618188 1.21405e-19)
(1.11666 0.0557532 0)
(0.933213 0.0506923 0)
(0.760988 0.0472079 -8.51643e-20)
(0.605028 0.0454591 0)
(0.467793 0.0453375 0)
(0.349873 0.0465524 -2.27486e-19)
(0.250612 0.048705 6.18831e-20)
(0.168667 0.0513437 1.35826e-19)
(0.102406 0.0539971 -2.93627e-19)
(0.0501694 0.0561951 7.84138e-20)
(0.0104177 0.0574818 -8.59785e-20)
(-0.0182095 0.0574245 -4.5523e-20)
(-0.0368815 0.0556209 -9.79267e-20)
(-0.0465975 0.0517082 5.1552e-20)
(-0.048224 0.0453681 0)
(-0.0425505 0.0363182 0)
(-0.0302901 0.0243774 6.01029e-22)
(-0.0120024 0.00957752 -1.05003e-19)
(1.63149 0.0541446 -4.1687e-20)
(1.4653 0.0503009 1.75587e-21)
(1.28357 0.0474158 1.16663e-19)
(1.09726 0.0442683 -1.91313e-19)
(0.915547 0.0424611 0)
(0.745938 0.0418819 0)
(0.592891 0.0427279 -8.96541e-20)
(0.458621 0.0448035 -4.40318e-22)
(0.34348 0.0478562 4.73576e-22)
(0.246653 0.0515519 1.19207e-19)
(0.166669 0.0555199 -3.21959e-19)
(0.101801 0.059368 1.39274e-19)
(0.0503163 0.062693 0)
(0.0106258 0.0650909 8.17204e-20)
(-0.0186578 0.0661656 -1.73874e-19)
(-0.0387085 0.0655392 1.86443e-19)
(-0.0505091 0.0628636 -4.95181e-20)
(-0.054889 0.0578323 5.17351e-20)
(-0.0525675 0.0501907 0)
(-0.0442084 0.0397347 -5.81934e-20)
(-0.0304276 0.0263587 1.49483e-19)
(-0.0117295 0.0101442 0)
(1.37626 0.0317079 1.84181e-19)
(1.19297 0.0304286 -5.30753e-20)
(1.01079 0.0320082 -5.83745e-20)
(0.836726 0.0332852 0)
(0.676865 0.0361419 2.5571e-22)
(0.534464 0.0396194 -1.64877e-19)
(0.410781 0.0438843 9.07235e-20)
(0.305541 0.0486287 1.00173e-19)
(0.21755 0.0536446 1.09853e-19)
(0.145139 0.0586645 -5.98284e-20)
(0.0865048 0.0634031 6.50496e-20)
(0.0399112 0.0675504 -7.04633e-20)
(0.00380329 0.0707787 1.53013e-19)
(-0.0231518 0.0727515 -3.27581e-19)
(-0.0420645 0.0731353 1.75784e-19)
(-0.0538488 0.0716132 -9.35582e-20)
(-0.0592602 0.0678996 0)
(-0.0589363 0.0617544 0)
(-0.0534372 0.0529942 0)
(-0.0432865 0.0414948 -5.75785e-20)
(-0.0289763 0.0272237 -1.18513e-19)
(-0.0109205 0.0102939 2.28152e-19)
(1.09126 0.0190009 4.86307e-20)
(0.913627 0.0208798 1.10469e-19)
(0.750252 0.0264238 -6.06539e-20)
(0.601414 0.0310284 -1.36992e-19)
(0.470901 0.0368942 -2.14541e-22)
(0.358499 0.0427623 8.44314e-20)
(0.263664 0.0488549 -9.24663e-20)
(0.184841 0.0548854 -1.02136e-19)
(0.120285 0.0607131 1.11168e-19)
(0.068178 0.0661342 6.0842e-20)
(0.0268307 0.0709285 -6.61102e-20)
(-0.00524756 0.0748451 2.14608e-19)
(-0.0293203 0.0776095 -7.63952e-20)
(-0.0464313 0.0789338 -8.16902e-20)
(-0.05743 0.0785302 0)
(-0.063007 0.0761271 4.70801e-20)
(-0.0637315 0.0714861 9.92414e-20)
(-0.0600869 0.0644166 -1.0408e-19)
(-0.0525028 0.0547878 5.41907e-20)
(-0.0413846 0.042533 -1.13511e-19)
(-0.0271184 0.0276696 1.17158e-19)
(-0.0100389 0.0103252 -2.51492e-20)
(0.812405 0.0130135 -9.90933e-20)
(0.656835 0.0187313 -5.59546e-20)
(0.522181 0.0268658 6.29528e-20)
(0.403374 0.0337572 -1.90212e-22)
(0.302895 0.041168 1.54628e-19)
(0.218507 0.0481114 0)
(0.148985 0.0548141 9.4489e-20)
(0.0923793 0.0610956 -1.03128e-19)
(0.0469688 0.0668891 -5.63601e-20)
(0.0111217 0.0720579 0)
(-0.0165693 0.0764367 -6.64672e-20)
(-0.0372955 0.079819 0)
(-0.0520367 0.0819672 7.71495e-20)
(-0.0615866 0.0826244 8.32108e-20)
(-0.0665835 0.0815315 0)
(-0.0675435 0.0784447 4.66572e-20)
(-0.0648919 0.0731536 0)
(-0.0589912 0.0654963 0)
(-0.0501647 0.0553714 5.39646e-20)
(-0.0387177 0.0427434 -1.12476e-19)
(-0.0249437 0.0276533 1.16189e-19)
(-0.00910476 0.0102273 -1.22547e-19)
(0.562434 0.0134227 5.03549e-20)
(0.437143 0.0220556 1.71974e-19)
(0.333263 0.0310212 5.4193e-22)
(0.243849 0.038827 -1.42081e-19)
(0.170382 0.0464246 7.84988e-20)
(0.109994 0.0533343 -8.6784e-20)
(0.0613786 0.059744 0)
(0.022697 0.0655834 5.22198e-20)
(-0.00751271 0.0708324 5.71914e-20)
(-0.0305794 0.0753996 6.19061e-20)
(-0.0476085 0.0791519 6.73659e-20)
(-0.0595168 0.0819088 -7.25604e-20)
(-0.067048 0.083454 -3.57818e-22)
(-0.0707995 0.0835497 0)
(-0.07125 0.0819545 0)
(-0.0687858 0.0784414 -9.42383e-20)
(-0.0637255 0.0728158 9.86574e-20)
(-0.0563402 0.0649306 0)
(-0.0468703 0.0546966 -1.07854e-19)
(-0.035539 0.0420892 1.11653e-19)
(-0.0225631 0.0271511 0)
(-0.00814124 0.00998981 4.8342e-20)
(0.352714 0.0173395 0)
(0.258613 0.0271871 -4.42052e-23)
(0.182856 0.035835 -6.50785e-20)
(0.119176 0.0434512 1.44108e-19)
(0.0682136 0.0504002 -1.59181e-19)
(0.0273435 0.0566074 1.76194e-19)
(-0.0046021 0.0622242 -9.64165e-20)
(-0.0291438 0.0672613 -5.29499e-20)
(-0.0474432 0.0717242 -5.74686e-20)
(-0.0605334 0.0755496 6.25547e-20)
(-0.0692611 0.0786238 -6.76896e-20)
(-0.0743224 0.0807828 0)
(-0.0762795 0.0818248 -1.17127e-19)
(-0.0755832 0.0815254 1.66782e-19)
(-0.0725951 0.0796553 -8.85286e-20)
(-0.0676073 0.0759982 -4.7034e-20)
(-0.0608604 0.0703681 -7.40244e-20)
(-0.0525582 0.0626222 1.02991e-19)
(-0.042878 0.0526718 2.66654e-20)
(-0.0319788 0.0404887 2.75742e-20)
(-0.0200181 0.0261006 1.13981e-19)
(-0.00714722 0.00958151 -2.39631e-20)
(0.184511 0.0221671 0)
(0.118187 0.031569 -1.1789e-19)
(0.0661167 0.0392321 0)
(0.0236155 0.0459458 7.26927e-20)
(-0.00929477 0.0518171 -4.9556e-23)
(-0.0346829 0.05699 8.85677e-20)
(-0.0535287 0.0615977 9.75681e-20)
(-0.0670102 0.065698 2.98944e-22)
(-0.0760233 0.0693087 -5.77202e-20)
(-0.0813526 0.0723831 0)
(-0.0836384 0.0748201 -1.35975e-19)
(-0.0834057 0.0764684 0)
(-0.0810788 0.0771391 3.9296e-20)
(-0.0769993 0.0766204 0)
(-0.0714423 0.074695 -4.44919e-20)
(-0.0646316 0.0711561 9.34889e-20)
(-0.0567518 0.0658233 9.80304e-20)
(-0.0479587 0.0585544 1.96712e-23)
(-0.0383847 0.0492547 -2.67754e-20)
(-0.028142 0.0378841 -2.75096e-19)
(-0.0173479 0.024446 2.25947e-19)
(-0.00612562 0.0089723 -1.05568e-19)
(0.0540759 0.025867 0)
(0.0106669 0.0337362 0)
(-0.022265 0.0400365 -6.59646e-20)
(-0.0479119 0.0455016 7.32592e-20)
(-0.0666188 0.0501534 -8.09666e-20)
(-0.0799036 0.0542041 -1.34111e-19)
(-0.088565 0.0577772 9.78888e-20)
(-0.0934838 0.06095 -1.07283e-19)
(-0.0953375 0.0637462 2.33249e-19)
(-0.0947106 0.0661298 -1.26313e-19)
(-0.0920805 0.0680108 6.84367e-20)
(-0.0878382 0.0692513 -3.65777e-20)
(-0.0823013 0.0696773 0)
(-0.0757279 0.0690926 0)
(-0.0683285 0.0672947 -1.33027e-19)
(-0.0602767 0.0640891 9.3359e-20)
(-0.0517176 0.0593031 -2.45785e-20)
(-0.0427744 0.0527958 -2.54487e-20)
(-0.0335504 0.0444664 0)
(-0.0241276 0.0342611 -8.17726e-20)
(-0.0146017 0.0221563 1.39514e-22)
(-0.00508774 0.00814074 1.15855e-19)
(-0.0433546 0.0272782 5.36423e-20)
(-0.0685694 0.0332029 -5.9467e-20)
(-0.0864114 0.0379836 6.66894e-20)
(-0.0989536 0.0420997 -7.40261e-20)
(-0.106694 0.0455477 4.07e-20)
(-0.110708 0.0485228 4.50342e-20)
(-0.111627 0.0511352 0)
(-0.110091 0.0534629 0)
(-0.1066 0.0555309 0)
(-0.101574 0.0573111 -9.51508e-20)
(-0.0953614 0.0587251 6.83948e-20)
(-0.088244 0.0596508 -3.66976e-20)
(-0.0804552 0.0599327 1.1777e-19)
(-0.0721871 0.0593947 0)
(-0.0636004 0.0578538 -1.1062e-19)
(-0.0548313 0.055133 9.32365e-20)
(-0.0459974 0.0510725 0)
(-0.0372014 0.0455382 2.5531e-20)
(-0.0285298 0.0384287 0)
(-0.0200491 0.0296809 0)
(-0.01185 0.0192487 0)
(-0.00405672 0.00708353 -9.16434e-20)
(-0.111391 0.0259811 -5.39014e-20)
(-0.12257 0.0300286 -4.95534e-22)
(-0.12885 0.0333426 6.659e-20)
(-0.131537 0.0361816 0)
(-0.131126 0.0385384 -1.23196e-19)
(-0.128355 0.0405601 9.00227e-20)
(-0.123698 0.0423376 -9.89061e-20)
(-0.117601 0.0439381 8.09048e-20)
(-0.110412 0.0453847 -8.81469e-20)
(-0.102421 0.0466553 1.59156e-19)
(-0.0938652 0.0476847 3.43553e-20)
(-0.0849399 0.0483691 -7.36225e-20)
(-0.0758094 0.0485755 -1.97947e-20)
(-0.066613 0.0481523 -1.04581e-19)
(-0.0574723 0.0469412 1.10694e-19)
(-0.0484951 0.0447881 2.32495e-20)
(-0.0397791 0.0415533 -2.43321e-20)
(-0.0314142 0.0371177 1.01427e-19)
(-0.0234793 0.0313884 -1.05079e-19)
(-0.0160363 0.0243031 -1.07975e-19)
(-0.00918273 0.0158047 9.68607e-20)
(-0.00306595 0.00582168 -1.13363e-19)
(-0.151968 0.0222118 5.37187e-20)
(-0.152865 0.0246948 -3.00335e-20)
(-0.150809 0.0267533 0)
(-0.146601 0.0285037 0)
(-0.140632 0.0299461 0)
(-0.133385 0.0311793 -4.5353e-20)
(-0.125186 0.0322723 9.92644e-20)
(-0.116319 0.0332772 -2.7148e-20)
(-0.107007 0.0342132 2.95213e-20)
(-0.097431 0.0350639 3.18828e-20)
(-0.0877372 0.0357782 -1.03306e-19)
(-0.0780507 0.0362733 9.22267e-20)
(-0.0684797 0.036442 -1.97412e-20)
(-0.0591217 0.0361608 -6.28099e-20)
(-0.0500673 0.0352997 -2.4642e-25)
(-0.041402 0.0337327 6.98232e-20)
(-0.0332083 0.0313455 -6.08073e-20)
(-0.0255671 0.0280419 1.01354e-19)
(-0.018553 0.0237483 0)
(-0.0122286 0.0184167 1.34521e-20)
(-0.00670429 0.0119957 4.38981e-23)
(-0.00215695 0.00441205 1.12808e-20)
(-0.165694 0.016604 2.71084e-20)
(-0.159934 0.0179229 -1.20579e-19)
(-0.152688 0.0190236 3.34033e-20)
(-0.144434 0.0199429 3.72743e-20)
(-0.135424 0.0206904 0)
(-0.125943 0.0213274 2.28175e-20)
(-0.116181 0.0219021 -4.96989e-20)
(-0.106298 0.0224513 0)
(-0.0964102 0.0229895 -8.87656e-20)
(-0.0866111 0.0235063 9.59944e-20)
(-0.0769772 0.0239658 -1.37993e-19)
(-0.0675762 0.0243082 -1.86046e-20)
(-0.0584732 0.0244544 7.89825e-20)
(-0.0497332 0.0243114 1.04921e-19)
(-0.0414232 0.0237804 -8.86806e-20)
(-0.0336114 0.0227646 1.16526e-20)
(-0.0263679 0.0211781 9.73786e-20)
(-0.0197645 0.0189515 -1.1258e-22)
(-0.0138703 0.0160383 -5.24447e-20)
(-0.00874644 0.0124168 -7.40052e-20)
(-0.00451218 0.0080633 1.37477e-20)
(-0.00136984 0.00293406 0)
(-0.15259 0.0102635 9.91455e-23)
(-0.143823 0.0108252 -1.49387e-20)
(-0.134567 0.0112916 1.67613e-20)
(-0.125104 0.0116604 -1.64222e-22)
(-0.115549 0.0119478 0)
(-0.106045 0.012189 -2.28761e-20)
(-0.0966748 0.0124141 4.98734e-20)
(-0.0875021 0.0126461 6.8314e-20)
(-0.0785667 0.0128956 -1.47422e-20)
(-0.0698968 0.0131582 6.43201e-20)
(-0.0615165 0.0134136 -1.38473e-19)
(-0.0534518 0.013626 1.48515e-19)
(-0.0457352 0.0137454 -8.91323e-20)
(-0.0384076 0.0137113 -3.15645e-20)
(-0.031518 0.0134564 4.44467e-20)
(-0.025122 0.0129137 -5.83821e-20)
(-0.0192791 0.012023 3.65769e-20)
(-0.0140519 0.010739 -5.70675e-20)
(-0.00949985 0.0090396 0)
(-0.00567504 0.00693215 6.72558e-21)
(-0.0026882 0.00443278 0)
(-0.000743431 0.00155545 2.80118e-21)
(-0.112606 0.00424647 0)
(-0.104537 0.00439991 3.80671e-20)
(-0.0964815 0.00451061 -5.05912e-20)
(-0.0886345 0.00457554 -4.70534e-20)
(-0.0810064 0.00461148 4.13825e-20)
(-0.0736519 0.00463615 3.43862e-20)
(-0.0665847 0.0046638 -5.00277e-20)
(-0.0598101 0.00470537 3.431e-20)
(-0.0533212 0.00476657 -7.43409e-20)
(-0.0471081 0.00484724 0)
(-0.0411631 0.00494062 0)
(-0.0354852 0.0050329 0)
(-0.0300838 0.00510311 4.96953e-20)
(-0.0249806 0.00512345 5.27816e-21)
(-0.0202093 0.00506046 -8.91221e-20)
(-0.0158136 0.00487739 5.2679e-20)
(-0.0118443 0.00453837 4.88773e-20)
(-0.00835503 0.00401493 -4.44705e-20)
(-0.00539519 0.0032967 0)
(-0.00300156 0.00240404 3.37573e-21)
(-0.00124765 0.00138907 -5.49802e-20)
(-0.000289849 0.00035834 4.20514e-20)
(-0.0461653 0.000407257 2.66822e-20)
(-0.0424203 0.00044073 -2.20661e-20)
(-0.0387306 0.000460299 -3.30751e-20)
(-0.0352436 0.000466166 4.51997e-20)
(-0.0319353 0.000466029 0)
(-0.0288198 0.000464583 1.10577e-20)
(-0.0258873 0.000465069 0)
(-0.0231256 0.000470028 3.2848e-20)
(-0.0205178 0.000481312 -2.85048e-20)
(-0.0180468 0.000500095 0)
(-0.0156968 0.000526681 -3.34261e-20)
(-0.0134565 0.000560184 -5.93441e-23)
(-0.0113208 0.000598081 7.59924e-20)
(-0.00929247 0.00063566 -3.52904e-20)
(-0.00738332 0.000665468 0)
(-0.00561492 0.000676947 3.90985e-20)
(-0.00401805 0.000656686 -4.66691e-20)
(-0.00263143 0.000590088 -4.84292e-20)
(-0.00149699 0.000466195 1.00121e-19)
(-0.000650608 0.000286413 -5.46927e-20)
(-0.00012955 7.59558e-05 0)
(1.67233e-05 -8.02331e-05 -4.3258e-20)
(1.1361 0.0236807 3.93034e-24)
(1.09002 0.0252649 -4.56184e-24)
(1.04192 0.0268958 0)
(0.991664 0.0285753 0)
(0.939375 0.0303092 2.84655e-20)
(0.885136 0.0321042 -3.11481e-20)
(0.829039 0.0339632 0)
(0.771189 0.0358874 2.0652e-20)
(0.711707 0.0378762 -4.39199e-20)
(0.65072 0.0399271 -2.4523e-20)
(0.588374 0.0420327 0)
(0.524835 0.0441707 -1.47107e-20)
(0.46032 0.0462822 -1.59519e-20)
(0.39516 0.0482355 -8.42371e-24)
(0.329909 0.0497851 0)
(0.265468 0.0505464 0)
(0.203202 0.0500028 4.14435e-20)
(0.144995 0.04756 -5.38008e-20)
(0.0931077 0.0426318 3.37178e-20)
(0.0499402 0.0347415 -2.31805e-20)
(0.0187307 0.0235797 5.84286e-24)
(0.00351601 0.00905163 -4.79828e-24)
(1.14048 0.0796726 0)
(1.09486 0.0853717 0)
(1.04736 0.0913444 4.34985e-20)
(0.997685 0.097561 -4.78872e-20)
(0.945976 0.104015 0)
(0.89232 0.11071 1.63696e-21)
(0.836805 0.117643 2.18937e-21)
(0.779541 0.124808 -5.82293e-20)
(0.720645 0.132198 1.33065e-19)
(0.660246 0.139796 -1.20221e-19)
(0.598489 0.147572 -5.42055e-20)
(0.535533 0.155439 7.26891e-20)
(0.471581 0.163172 -7.94487e-20)
(0.406936 0.170286 -9.70543e-22)
(0.342091 0.175892 7.25812e-20)
(0.277857 0.178613 0)
(0.21548 0.176634 0)
(0.156698 0.167882 1.07408e-20)
(0.103629 0.150343 5.60167e-20)
(0.0585489 0.122389 -9.16408e-20)
(0.0246066 0.0829916 -9.51423e-20)
(0.00579813 0.0318671 -3.50887e-22)
(1.14914 0.135673 0)
(1.10446 0.145504 1.46297e-19)
(1.0582 0.155741 -1.67394e-19)
(1.0097 0.166376 9.39159e-20)
(0.959168 0.1774 0)
(0.906696 0.188823 -6.30649e-20)
(0.852374 0.200644 1.36561e-19)
(0.796312 0.212855 0)
(0.738629 0.225445 4.14953e-20)
(0.679453 0.238391 1.91879e-19)
(0.618923 0.25164 -1.03801e-19)
(0.557188 0.265043 1.15539e-19)
(0.494422 0.27822 3.33522e-20)
(0.43086 0.290336 1.81236e-21)
(0.366876 0.29987 -2.85138e-19)
(0.303093 0.304471 -1.36846e-21)
(0.240502 0.301042 1.58648e-19)
(0.180554 0.286059 0)
(0.125074 0.256101 2.19291e-20)
(0.0760872 0.208419 0)
(0.0365712 0.141284 -2.26302e-20)
(0.0104432 0.0542401 7.5885e-20)
(1.16113 0.188938 -1.19871e-19)
(1.11799 0.20278 -2.0823e-21)
(1.07368 0.217142 7.98418e-20)
(1.02704 0.232077 -3.35968e-21)
(0.978345 0.247563 1.03808e-19)
(0.927714 0.263611 1.17242e-19)
(0.875233 0.280219 0)
(0.821018 0.297378 0)
(0.76519 0.31507 8.4457e-20)
(0.707876 0.333263 -1.39053e-19)
(0.649213 0.351883 0)
(0.589333 0.370724 0)
(0.528366 0.389246 5.85643e-20)
(0.46645 0.406277 6.29182e-20)
(0.403778 0.419676 -1.38085e-19)
(0.340691 0.426142 1.45005e-19)
(0.277805 0.421329 1.53691e-19)
(0.216132 0.400308 -1.20736e-19)
(0.157064 0.358304 -4.05376e-20)
(0.102256 0.291505 0)
(0.054425 0.197537 -1.55737e-19)
(0.017372 0.075806 -6.8726e-22)
(1.17643 0.239605 -5.76413e-22)
(1.13536 0.257328 6.42317e-20)
(1.09364 0.275615 -7.94866e-20)
(1.04945 0.294646 -2.72416e-19)
(1.00319 0.314378 1.00316e-19)
(0.955005 0.334825 -3.57035e-22)
(0.904967 0.355989 -1.19511e-21)
(0.853202 0.377858 0)
(0.799835 0.400413 -8.39042e-20)
(0.744995 0.423615 8.45306e-20)
(0.688812 0.447371 0)
(0.631398 0.471417 1.02654e-19)
(0.572827 0.495068 1.7136e-19)
(0.513105 0.516823 -6.00514e-20)
(0.452186 0.533943 -2.60085e-19)
(0.39004 0.542211 2.77338e-19)
(0.326784 0.536076 -2.89873e-19)
(0.262858 0.509263 -3.89713e-20)
(0.199078 0.455717 2.414e-21)
(0.13662 0.370632 1.63584e-19)
(0.077866 0.251056 -1.67469e-19)
(0.0264632 0.0962958 -3.3477e-20)
(1.19461 0.286384 -1.08871e-19)
(1.15613 0.307816 0)
(1.11762 0.329791 -1.51408e-19)
(1.07647 0.352686 -5.82897e-21)
(1.03324 0.376423 2.87963e-19)
(0.988071 0.401022 0)
(0.941053 0.426488 -1.2509e-19)
(0.892316 0.452809 -1.32314e-19)
(0.841988 0.479963 7.53387e-20)
(0.790199 0.507908 3.32537e-21)
(0.737074 0.536535 3.14584e-21)
(0.682703 0.56553 -1.95398e-19)
(0.627088 0.594069 -1.09628e-19)
(0.570078 0.620343 0)
(0.511335 0.641045 -1.86526e-19)
(0.450367 0.651081 2.57964e-19)
(0.386679 0.643754 6.51484e-20)
(0.320003 0.61151 0)
(0.250459 0.547095 3.32278e-19)
(0.178637 0.444795 1.62747e-21)
(0.106517 0.301159 2.74735e-21)
(0.0375649 0.115446 -9.459e-20)
(1.21524 0.328699 2.15704e-19)
(1.17985 0.353611 4.72447e-21)
(1.1451 0.378977 -1.37611e-19)
(1.10751 0.405441 -1.62159e-19)
(1.06783 0.432885 2.92902e-21)
(1.0262 0.461332 0)
(0.982727 0.490792 -2.31642e-19)
(0.937547 0.521254 5.06459e-19)
(0.890793 0.552695 0)
(0.842598 0.585069 0)
(0.79308 0.618254 0)
(0.742302 0.651891 9.5531e-20)
(0.690186 0.685033 -1.03086e-19)
(0.636398 0.715588 1.01797e-19)
(0.580253 0.739718 1.67317e-19)
(0.520716 0.751502 3.185e-22)
(0.456569 0.74316 -5.03691e-19)
(0.386713 0.705937 2.59229e-19)
(0.31045 0.631465 -2.68937e-19)
(0.227693 0.513217 2.77094e-19)
(0.139961 0.347326 2.87865e-19)
(0.0505121 0.133065 -2.36233e-19)
(1.23763 0.365853 0)
(1.20584 0.393999 0)
(1.17537 0.422442 0)
(1.14182 0.452155 0)
(1.10618 0.48296 3.356e-19)
(1.06859 0.514892 -1.91601e-19)
(1.02914 0.54797 2.09127e-19)
(0.987999 0.582186 -1.22093e-19)
(0.945297 0.617522 -1.24867e-19)
(0.901173 0.653933 -2.87929e-19)
(0.855744 0.69129 4.58795e-19)
(0.809046 0.729202 0)
(0.760915 0.766616 0)
(0.710814 0.801186 -1.01217e-19)
(0.657669 0.828592 0)
(0.599829 0.842139 0)
(0.535246 0.833036 -2.82776e-19)
(0.46187 0.7914 2.87761e-19)
(0.378072 0.707842 0)
(0.283003 0.575115 0)
(0.177669 0.389033 0)
(0.0650964 0.148946 2.13372e-19)
(1.26103 0.39728 1.80135e-19)
(1.2333 0.42833 0)
(1.20752 0.459481 0)
(1.17842 0.492086 0)
(1.14722 0.525901 -1.60325e-19)
(1.11407 0.560971 1.75437e-19)
(1.07907 0.597317 -1.91521e-19)
(1.0424 0.634933 0)
(1.0042 0.673801 1.23694e-19)
(0.96462 0.713877 -1.23396e-19)
(0.923764 0.755027 -1.47756e-19)
(0.88164 0.796837 0)
(0.837995 0.83817 0)
(0.79207 0.876467 0)
(0.742363 0.906972 0)
(0.686535 0.922293 0)
(0.621609 0.912693 9.19122e-20)
(0.544471 0.867253 1.0144e-19)
(0.452453 0.775652 -2.10837e-19)
(0.343873 0.630023 0)
(0.219178 0.425963 0)
(0.0811397 0.162981 0)
(1.28456 0.422823 -1.65707e-19)
(1.26137 0.456496 -1.96678e-19)
(1.2407 0.490003 1.11574e-19)
(1.21646 0.525103 0)
(1.1901 0.561478 1.42039e-19)
(1.16175 0.599196 -1.55562e-19)
(1.13155 0.6383 0)
(1.09967 0.678794 -9.19968e-20)
(1.0663 0.720672 1.00794e-19)
(1.03158 0.763896 1.22091e-19)
(0.995621 0.808338 2.50865e-19)
(0.958418 0.853577 -2.69067e-19)
(0.919629 0.898419 -6.70757e-20)
(0.878275 0.940133 0)
(0.832399 0.973589 0)
(0.778921 0.990755 -7.57564e-20)
(0.713844 0.981024 -9.13942e-20)
(0.63287 0.93251 -1.25367e-19)
(0.532185 0.834047 2.19554e-19)
(0.409196 0.677258 0)
(0.263755 0.457638 -1.47057e-19)
(0.0983548 0.174974 1.57635e-19)
(1.30732 0.442 0)
(1.28902 0.477844 -1.69029e-19)
(1.27365 0.513322 1.04185e-19)
(1.2545 0.550587 1.07589e-19)
(1.23325 0.589226 1.2766e-19)
(1.21002 0.629309 -1.39829e-19)
(1.18496 0.670874 -1.57299e-19)
(1.15828 0.713929 8.92341e-20)
(1.13014 0.758471 8.79934e-20)
(1.10071 0.804467 2.03937e-19)
(1.0701 0.851798 -8.91072e-22)
(1.03828 0.90004 -2.34834e-19)
(1.00483 0.947968 6.63825e-20)
(0.968533 0.992722 5.95869e-20)
(0.926956 1.02886 -6.13256e-20)
(0.876215 1.0478 -1.22955e-19)
(0.811204 1.03815 4.0646e-21)
(0.726343 0.987159 8.08968e-20)
(0.61659 0.882929 1.03554e-19)
(0.478391 0.716679 -1.48788e-19)
(0.310989 0.483935 -1.95796e-19)
(0.116579 0.18488 1.56416e-19)
(1.32838 0.455549 -1.31661e-19)
(1.31558 0.493344 1.66493e-19)
(1.30589 0.530373 3.5289e-19)
(1.29214 0.569246 -4.07722e-19)
(1.27621 0.609507 2.19102e-19)
(1.25823 0.651274 -1.18717e-19)
(1.2384 0.69461 0)
(1.21696 0.739537 0)
(1.19411 0.786066 -1.54007e-19)
(1.17003 0.834177 1.7585e-19)
(1.14485 0.883768 -1.89551e-19)
(1.11853 0.934438 9.19914e-20)
(1.09059 0.984969 -2.05067e-19)
(1.05962 1.03243 2.57365e-19)
(1.02271 1.07113 -1.04852e-19)
(0.975149 1.09201 2.88988e-19)
(0.910649 1.08292 0)
(0.82222 1.0303 1.24012e-19)
(0.703459 0.92158 -6.58619e-20)
(0.549777 0.747697 2.3746e-20)
(0.359788 0.504401 0)
(0.135389 0.192497 -1.2657e-19)
(1.3468 0.462327 2.48193e-19)
(1.33957 0.501604 1.36777e-19)
(1.33546 0.540065 -3.30474e-19)
(1.32731 0.58051 7.44096e-21)
(1.31701 0.622374 -5.15359e-21)
(1.30467 0.665773 1.17359e-19)
(1.2905 0.710779 -2.41369e-19)
(1.27477 0.757423 1.3147e-19)
(1.25769 0.805727 1.51581e-19)
(1.23944 0.855682 -1.49248e-19)
(1.22018 0.907197 8.77782e-20)
(1.19986 0.959888 -9.06878e-20)
(1.17793 1.01254 0)
(1.15275 1.06219 -1.73882e-19)