/*--------------------------------*- C++ -*----------------------------------*\
| =========                 |                                                 |
| \\      /  F ield         | OpenFOAM Extend Project: Open source CFD        |
|  \\    /   O peration     | Version:  1.6-ext                               |
|   \\  /    A nd           | Web:      www.extend-project.de                 |
|    \\/     M anipulation  |                                                 |
\*---------------------------------------------------------------------------*/
FoamFile
{
    version     2.0;
    format      ascii;
    class       volScalarField::DimensionedInternalField;
    location    "1.1";
    object      V0;
}
// * * * * * * * * * * * * * * * * * * * * * * * * * * * * * * * * * * * * * //

dimensions      [0 3 0 0 0 0 0];

value           nonuniform List<scalar> 
20940
(
1.17125e-06
1.03821e-06
9.21164e-07
8.18117e-07
7.27333e-07
6.47296e-07
5.76679e-07
5.14326e-07
4.59225e-07
4.10492e-07
3.67354e-07
3.29133e-07
2.9524e-07
2.65154e-07
2.38421e-07
2.14643e-07
1.9347e-07
1.74597e-07
1.57754e-07
1.42706e-07
1.29247e-07
1.17195e-07
1.17142e-06
1.03836e-06
9.21295e-07
8.18233e-07
7.27437e-07
6.4739e-07
5.76766e-07
5.14408e-07
4.59304e-07
4.10567e-07
3.67425e-07
3.29199e-07
2.953e-07
2.65207e-07
2.38469e-07
2.14686e-07
1.93511e-07
1.74635e-07
1.57791e-07
1.42743e-07
1.29283e-07
1.1723e-07
1.17401e-06
1.04065e-06
9.23327e-07
8.20038e-07
7.29043e-07
6.4882e-07
5.78043e-07
5.1555e-07
4.60327e-07
4.11487e-07
3.68253e-07
3.29947e-07
2.95974e-07
2.65816e-07
2.39017e-07
2.1518e-07
1.93956e-07
1.75038e-07
1.58158e-07
1.43077e-07
1.29589e-07
1.17511e-07
1.17828e-06
1.04444e-06
9.26691e-07
8.23028e-07
7.31703e-07
6.51191e-07
5.80157e-07
5.17438e-07
4.62015e-07
4.12997e-07
3.69608e-07
3.31165e-07
2.97072e-07
2.66807e-07
2.39912e-07
2.15989e-07
1.94686e-07
1.75697e-07
1.58753e-07
1.43618e-07
1.30081e-07
1.1796e-07
1.18354e-06
1.04913e-06
9.30888e-07
8.26789e-07
7.35079e-07
6.54226e-07
5.8289e-07
5.199e-07
4.64236e-07
4.15003e-07
3.71421e-07
3.32806e-07
2.9856e-07
2.68159e-07
2.41144e-07
2.17112e-07
1.95711e-07
1.76633e-07
1.59607e-07
1.44396e-07
1.30792e-07
1.18611e-07
1.19036e-06
1.05525e-06
9.36372e-07
8.31711e-07
7.39506e-07
6.58215e-07
5.86492e-07
5.23159e-07
4.67188e-07
4.1768e-07
3.73851e-07
3.35014e-07
3.00567e-07
2.69986e-07
2.4281e-07
2.18634e-07
1.97104e-07
1.77908e-07
1.60776e-07
1.45467e-07
1.31772e-07
1.19507e-07
1.19874e-06
1.06279e-06
9.4316e-07
8.37827e-07
7.4502e-07
6.63193e-07
5.90994e-07
5.27241e-07
4.70898e-07
4.21058e-07
3.76932e-07
3.37826e-07
3.03137e-07
2.72336e-07
2.44959e-07
2.20601e-07
1.98907e-07
1.79563e-07
1.62296e-07
1.46864e-07
1.33057e-07
1.20688e-07
1.20867e-06
1.07178e-06
9.5131e-07
8.45214e-07
7.51717e-07
6.69266e-07
5.96502e-07
5.32241e-07
4.75445e-07
4.25202e-07
3.80717e-07
3.41291e-07
3.06314e-07
2.75251e-07
2.47636e-07
2.2306e-07
2.01167e-07
1.81641e-07
1.64209e-07
1.48627e-07
1.34684e-07
1.22191e-07
1.22006e-06
1.08214e-06
9.60749e-07
8.5383e-07
7.59587e-07
6.76457e-07
6.03073e-07
5.38242e-07
4.80922e-07
4.30203e-07
3.85287e-07
3.45476e-07
3.10153e-07
2.78781e-07
2.50887e-07
2.26057e-07
2.0393e-07
1.84192e-07
1.66563e-07
1.50802e-07
1.36694e-07
1.24052e-07
1.23281e-06
1.09379e-06
9.71403e-07
8.63592e-07
7.6855e-07
6.84698e-07
6.10658e-07
5.45226e-07
4.8735e-07
4.36114e-07
3.90719e-07
3.50464e-07
3.14737e-07
2.82998e-07
2.54773e-07
2.29645e-07
2.07249e-07
1.87263e-07
1.69407e-07
1.53435e-07
1.39134e-07
1.26312e-07
1.24676e-06
1.1066e-06
9.83178e-07
8.74424e-07
7.78526e-07
6.939e-07
6.19159e-07
5.53093e-07
4.9464e-07
4.42873e-07
3.96984e-07
3.56266e-07
3.20102e-07
2.87954e-07
2.5935e-07
2.33876e-07
2.11164e-07
1.90892e-07
1.72774e-07
1.56561e-07
1.42036e-07
1.29007e-07
1.26237e-06
1.12102e-06
9.96486e-07
8.86708e-07
7.89864e-07
7.04368e-07
6.28831e-07
5.62039e-07
5.02928e-07
4.50566e-07
4.04133e-07
3.62916e-07
3.26289e-07
2.93704e-07
2.64687e-07
2.38823e-07
2.15747e-07
1.95138e-07
1.76712e-07
1.60218e-07
1.45434e-07
1.32167e-07
1.27884e-06
1.13634e-06
1.01075e-06
8.99979e-07
8.02212e-07
7.1585e-07
6.39501e-07
5.71949e-07
5.12131e-07
4.59116e-07
4.12085e-07
3.70324e-07
3.33199e-07
3.00157e-07
2.70714e-07
2.44447e-07
2.20987e-07
2.00013e-07
1.81245e-07
1.64433e-07
1.49356e-07
1.35818e-07
1.29616e-06
1.15255e-06
1.02592e-06
9.14191e-07
8.15523e-07
7.28317e-07
6.51173e-07
5.82867e-07
5.22331e-07
4.68632e-07
4.20958e-07
3.78593e-07
3.40911e-07
3.07357e-07
2.77445e-07
2.50745e-07
2.26882e-07
2.05527e-07
1.86395e-07
1.69237e-07
1.53832e-07
1.39988e-07
1.3141e-06
1.16948e-06
1.04189e-06
9.29221e-07
8.29667e-07
7.41626e-07
6.63693e-07
5.94645e-07
5.33411e-07
4.79044e-07
4.3073e-07
3.87748e-07
3.49474e-07
3.15362e-07
2.84927e-07
2.57744e-07
2.33435e-07
2.11669e-07
1.92151e-07
1.74627e-07
1.58874e-07
1.44697e-07
1.24245e-06
1.10835e-06
9.89842e-07
8.85025e-07
7.92235e-07
7.10018e-07
6.37103e-07
5.72373e-07
5.14854e-07
4.63684e-07
4.18111e-07
3.77472e-07
3.41193e-07
3.08767e-07
2.79756e-07
2.53772e-07
2.30475e-07
2.09563e-07
1.90767e-07
1.73849e-07
1.58599e-07
1.44834e-07
1.21938e-06
1.08725e-06
9.70516e-07
8.6731e-07
7.75982e-07
6.95088e-07
6.23371e-07
5.5973e-07
5.03202e-07
4.5294e-07
4.08201e-07
3.68334e-07
3.32764e-07
3.00988e-07
2.72568e-07
2.47121e-07
2.24311e-07
2.03843e-07
1.85457e-07
1.68922e-07
1.54032e-07
1.40604e-07
1.19742e-06
1.0672e-06
9.52211e-07
8.50573e-07
7.60666e-07
6.81061e-07
6.10511e-07
5.47925e-07
4.92348e-07
4.42948e-07
3.98994e-07
3.59844e-07
3.24935e-07
2.93769e-07
2.65911e-07
2.40979e-07
2.18638e-07
1.98595e-07
1.80595e-07
1.64412e-07
1.49847e-07
1.36723e-07
1.17671e-06
1.04835e-06
9.35032e-07
8.34904e-07
7.46355e-07
6.6798e-07
5.98544e-07
5.36968e-07
4.82305e-07
4.3373e-07
3.90522e-07
3.52047e-07
3.17751e-07
2.87147e-07
2.59806e-07
2.3535e-07
2.13448e-07
1.93809e-07
1.76175e-07
1.60324e-07
1.46058e-07
1.33206e-07
1.15741e-06
1.03082e-06
9.19091e-07
8.20392e-07
7.33131e-07
6.55912e-07
5.87518e-07
5.26886e-07
4.73081e-07
4.25284e-07
3.8278e-07
3.44942e-07
3.11221e-07
2.81138e-07
2.54271e-07
2.30247e-07
2.08743e-07
1.89469e-07
1.72173e-07
1.56631e-07
1.42647e-07
1.30049e-07
1.13929e-06
1.01442e-06
9.04229e-07
8.06905e-07
7.20877e-07
6.44765e-07
5.77366e-07
5.17628e-07
4.64628e-07
4.1756e-07
3.75716e-07
3.38476e-07
3.05297e-07
2.75704e-07
2.49279e-07
2.25657e-07
2.04514e-07
1.85571e-07
1.68577e-07
1.53316e-07
1.39591e-07
1.27233e-07
1.12319e-06
9.99861e-07
8.91039e-07
7.94942e-07
7.10013e-07
6.34889e-07
5.68378e-07
5.09437e-07
4.57153e-07
4.10731e-07
3.69471e-07
3.32759e-07
3.0006e-07
2.70901e-07
2.44872e-07
2.21608e-07
2.00791e-07
1.82142e-07
1.65416e-07
1.50398e-07
1.36897e-07
1.24746e-07
1.1085e-06
9.86606e-07
8.79064e-07
7.84113e-07
7.00207e-07
6.25998e-07
5.60305e-07
5.02098e-07
4.50475e-07
4.04645e-07
3.63918e-07
3.27688e-07
2.95423e-07
2.66658e-07
2.40984e-07
2.18043e-07
1.97521e-07
1.7914e-07
1.62656e-07
1.47857e-07
1.34553e-07
1.22582e-07
1.09543e-06
9.74833e-07
8.68449e-07
7.74531e-07
6.91545e-07
6.18159e-07
5.53202e-07
4.95655e-07
4.44623e-07
3.99323e-07
3.59071e-07
3.23269e-07
2.91388e-07
2.62971e-07
2.37611e-07
2.14955e-07
1.9469e-07
1.76543e-07
1.60272e-07
1.45666e-07
1.32538e-07
1.20725e-07
1.08397e-06
9.64536e-07
8.59183e-07
7.66179e-07
6.84011e-07
6.11352e-07
5.47046e-07
4.9008e-07
4.39567e-07
3.94733e-07
3.54899e-07
3.19471e-07
2.87929e-07
2.59814e-07
2.34727e-07
2.12317e-07
1.92275e-07
1.7433e-07
1.58243e-07
1.43804e-07
1.30829e-07
1.19154e-07
1.0741e-06
9.5568e-07
8.51227e-07
7.59024e-07
6.77568e-07
6.05543e-07
5.41801e-07
4.85339e-07
4.35275e-07
3.90843e-07
3.51369e-07
3.16264e-07
2.8501e-07
2.57156e-07
2.32303e-07
2.10104e-07
1.90252e-07
1.72479e-07
1.56548e-07
1.4225e-07
1.29403e-07
1.17844e-07
1.06577e-06
9.48211e-07
8.4453e-07
7.53011e-07
6.72161e-07
6.00677e-07
5.37417e-07
4.81382e-07
4.31701e-07
3.87609e-07
3.48439e-07
3.13606e-07
2.82596e-07
2.5496e-07
2.30304e-07
2.08281e-07
1.88589e-07
1.70958e-07
1.55157e-07
1.40977e-07
1.28237e-07
1.16775e-07
1.05891e-06
9.42075e-07
8.39034e-07
7.48083e-07
6.67737e-07
5.967e-07
5.33836e-07
4.78155e-07
4.2879e-07
3.8498e-07
3.46062e-07
3.11453e-07
2.80644e-07
2.53188e-07
2.28692e-07
2.06814e-07
1.8725e-07
1.69737e-07
1.54039e-07
1.39955e-07
1.27301e-07
1.1592e-07
1.05351e-06
9.37255e-07
8.34716e-07
7.44211e-07
6.64262e-07
5.93577e-07
5.31028e-07
4.75626e-07
4.2651e-07
3.82922e-07
3.44202e-07
3.0977e-07
2.79119e-07
2.51804e-07
2.27435e-07
2.0567e-07
1.86208e-07
1.68786e-07
1.53171e-07
1.39158e-07
1.26569e-07
1.15245e-07
1.04912e-06
9.33333e-07
8.31204e-07
7.41067e-07
6.61445e-07
5.91051e-07
5.28761e-07
4.73591e-07
4.24679e-07
3.81275e-07
3.42719e-07
3.08433e-07
2.77913e-07
2.50715e-07
2.26451e-07
2.0478e-07
1.85403e-07
1.68056e-07
1.52509e-07
1.38558e-07
1.26023e-07
1.14707e-07
1.17427e-06
1.04681e-06
9.34195e-07
8.3462e-07
7.465e-07
6.68447e-07
5.9925e-07
5.37846e-07
4.83305e-07
4.34812e-07
3.91653e-07
3.53199e-07
3.18903e-07
2.88278e-07
2.60905e-07
2.36408e-07
2.14461e-07
1.94774e-07
1.77095e-07
1.61201e-07
1.46891e-07
1.33997e-07
1.17456e-06
1.04708e-06
9.34455e-07
8.34864e-07
7.46728e-07
6.68661e-07
5.9945e-07
5.38033e-07
4.8348e-07
4.34976e-07
3.91805e-07
3.53342e-07
3.19035e-07
2.88404e-07
2.61021e-07
2.36518e-07
2.14562e-07
1.94869e-07
1.77184e-07
1.61282e-07
1.4697e-07
1.34068e-07
1.17731e-06
1.04956e-06
9.36687e-07
8.36879e-07
7.48549e-07
6.70308e-07
6.00943e-07
5.39387e-07
4.8471e-07
4.36093e-07
3.92823e-07
3.54268e-07
3.19881e-07
2.89174e-07
2.61727e-07
2.37161e-07
2.15154e-07
1.9541e-07
1.77681e-07
1.61739e-07
1.47388e-07
1.34454e-07
1.18191e-06
1.05369e-06
9.40399e-07
8.40219e-07
7.51559e-07
6.73024e-07
6.03395e-07
5.41604e-07
4.86717e-07
4.37913e-07
3.94473e-07
3.55768e-07
3.21245e-07
2.90416e-07
2.62858e-07
2.38194e-07
2.16096e-07
1.96273e-07
1.78469e-07
1.62463e-07
1.4805e-07
1.35063e-07
1.18775e-06
1.05897e-06
9.45174e-07
8.44543e-07
7.55478e-07
6.76581e-07
6.06627e-07
5.44545e-07
4.89395e-07
4.40354e-07
3.96701e-07
3.57804e-07
3.23105e-07
2.92121e-07
2.64419e-07
2.39627e-07
2.1741e-07
1.97481e-07
1.7958e-07
1.63483e-07
1.48992e-07
1.35929e-07
1.1955e-06
1.06597e-06
9.51514e-07
8.50291e-07
7.60695e-07
6.81322e-07
6.1094e-07
5.48472e-07
4.92975e-07
4.43621e-07
3.99687e-07
3.60533e-07
3.25605e-07
2.94409e-07
2.6652e-07
2.41553e-07
2.19182e-07
1.99107e-07
1.81079e-07
1.64862e-07
1.50263e-07
1.37101e-07
1.20513e-06
1.07471e-06
9.59446e-07
8.575e-07
7.67254e-07
6.87296e-07
6.16387e-07
5.53445e-07
4.97518e-07
4.47777e-07
4.03491e-07
3.6402e-07
3.28802e-07
2.97346e-07
2.69216e-07
2.44035e-07
2.21462e-07
2.01211e-07
1.83014e-07
1.6665e-07
1.5191e-07
1.38624e-07
1.21676e-06
1.08528e-06
9.69065e-07
8.66265e-07
7.75249e-07
6.94596e-07
6.2306e-07
5.59549e-07
5.03109e-07
4.52902e-07
4.08193e-07
3.68337e-07
3.32771e-07
3.00995e-07
2.72576e-07
2.47128e-07
2.24316e-07
2.03841e-07
1.85444e-07
1.68892e-07
1.53985e-07
1.4054e-07
1.23043e-06
1.09774e-06
9.8044e-07
8.76657e-07
7.84753e-07
7.03295e-07
6.3103e-07
5.66859e-07
5.09819e-07
4.59066e-07
4.1386e-07
3.73551e-07
3.37572e-07
3.05419e-07
2.76656e-07
2.50893e-07
2.27792e-07
2.07052e-07
1.88413e-07
1.71638e-07
1.56526e-07
1.42893e-07
1.24617e-06
1.11213e-06
9.93612e-07
8.88723e-07
7.95815e-07
7.13447e-07
6.40355e-07
5.7543e-07
5.17704e-07
4.66325e-07
4.20548e-07
3.79718e-07
3.43261e-07
3.10672e-07
2.81507e-07
2.55378e-07
2.31938e-07
2.10891e-07
1.91964e-07
1.74929e-07
1.59574e-07
1.4572e-07
1.26382e-06
1.12832e-06
1.00848e-06
9.02387e-07
8.08384e-07
7.25016e-07
6.51012e-07
5.85254e-07
5.26765e-07
4.74689e-07
4.28273e-07
3.86858e-07
3.49863e-07
3.16779e-07
2.87161e-07
2.60613e-07
2.3679e-07
2.15386e-07
1.96135e-07
1.78796e-07
1.63164e-07
1.49051e-07
1.28384e-06
1.14673e-06
1.02541e-06
9.17965e-07
8.22732e-07
7.38242e-07
6.63211e-07
5.96513e-07
5.37164e-07
4.84299e-07
4.37159e-07
3.95078e-07
3.57471e-07
3.23826e-07
2.93689e-07
2.66664e-07
2.424e-07
2.20591e-07
2.00963e-07
1.83279e-07
1.67325e-07
1.52917e-07
1.3055e-06
1.16672e-06
1.04386e-06
9.35018e-07
8.38497e-07
7.52823e-07
6.76705e-07
6.09007e-07
5.48738e-07
4.95025e-07
4.47103e-07
4.04301e-07
3.66029e-07
3.31768e-07
3.01063e-07
2.73512e-07
2.48763e-07
2.26503e-07
2.06459e-07
1.88388e-07
1.72078e-07
1.57337e-07
1.32891e-06
1.18839e-06
1.06394e-06
9.53627e-07
8.5575e-07
7.68827e-07
6.91554e-07
6.2279e-07
5.61535e-07
5.06911e-07
4.58145e-07
4.14563e-07
3.75567e-07
3.40637e-07
3.0931e-07
2.81184e-07
2.559e-07
2.33145e-07
2.12641e-07
1.94143e-07
1.77436e-07
1.62327e-07
1.35387e-06
1.21159e-06
1.08551e-06
9.73677e-07
8.74398e-07
7.86173e-07
7.07694e-07
6.3781e-07
5.75515e-07
5.19925e-07
4.70262e-07
4.25845e-07
3.86075e-07
3.50423e-07
3.18427e-07
2.89678e-07
2.63814e-07
2.4052e-07
2.19514e-07
2.00549e-07
1.83407e-07
1.67893e-07
1.35388e-06
1.21159e-06
1.08551e-06
9.73681e-07
8.74402e-07
7.86177e-07
7.07698e-07
6.37814e-07
5.75518e-07
5.19927e-07
4.70264e-07
4.25847e-07
3.86077e-07
3.50426e-07
3.1843e-07
2.8968e-07
2.63817e-07
2.40523e-07
2.19517e-07
2.00552e-07
1.83409e-07
1.67895e-07
1.32892e-06
1.1884e-06
1.06395e-06
9.53638e-07
8.55762e-07
7.68838e-07
6.91565e-07
6.22801e-07
5.61545e-07
5.06919e-07
4.58153e-07
4.1457e-07
3.75575e-07
3.40644e-07
3.09318e-07
2.81192e-07
2.55908e-07
2.33153e-07
2.12648e-07
1.9415e-07
1.77442e-07
1.62332e-07
1.30552e-06
1.16673e-06
1.04388e-06
9.35036e-07
8.38515e-07
7.52842e-07
6.76723e-07
6.09025e-07
5.48754e-07
4.9504e-07
4.47117e-07
4.04315e-07
3.66042e-07
3.31781e-07
3.01075e-07
2.73524e-07
2.48774e-07
2.26514e-07
2.06469e-07
1.88398e-07
1.72086e-07
1.57345e-07
1.28387e-06
1.14675e-06
1.02543e-06
9.1799e-07
8.22758e-07
7.38267e-07
6.63235e-07
5.96537e-07
5.37188e-07
4.84322e-07
4.37181e-07
3.95099e-07
3.57491e-07
3.23844e-07
2.93705e-07
2.66679e-07
2.42414e-07
2.20604e-07
2.00975e-07
1.83289e-07
1.67335e-07
1.52926e-07
1.26385e-06
1.12836e-06
1.00851e-06
9.0242e-07
8.08416e-07
7.25048e-07
6.51043e-07
5.85285e-07
5.26796e-07
4.74718e-07
4.28301e-07
3.86884e-07
3.49887e-07
3.16802e-07
2.87182e-07
2.60632e-07
2.36807e-07
2.15401e-07
1.96148e-07
1.78808e-07
1.63175e-07
1.49062e-07
1.24621e-06
1.11217e-06
9.93653e-07
8.88764e-07
7.95856e-07
7.13487e-07
6.40394e-07
5.75468e-07
5.17739e-07
4.66359e-07
4.2058e-07
3.79748e-07
3.43289e-07
3.10698e-07
2.81531e-07
2.55399e-07
2.31959e-07
2.10909e-07
1.91981e-07
1.74944e-07
1.59588e-07
1.45733e-07
1.23047e-06
1.09779e-06
9.80492e-07
8.76708e-07
7.84803e-07
7.03344e-07
6.31077e-07
5.66903e-07
5.0986e-07
4.59104e-07
4.13895e-07
3.73585e-07
3.37603e-07
3.05449e-07
2.76683e-07
2.50918e-07
2.27815e-07
2.07074e-07
1.88432e-07
1.71657e-07
1.56542e-07
1.42909e-07
1.21682e-06
1.08534e-06
9.6913e-07
8.66329e-07
7.75311e-07
6.94655e-07
6.23115e-07
5.59601e-07
5.03157e-07
4.52946e-07
4.08234e-07
3.68375e-07
3.32806e-07
3.01028e-07
2.72606e-07
2.47156e-07
2.24342e-07
2.03865e-07
1.85466e-07
1.68912e-07
1.54004e-07
1.40558e-07
1.20521e-06
1.07479e-06
9.59525e-07
8.57577e-07
7.67329e-07
6.87366e-07
6.16453e-07
5.53506e-07
4.97575e-07
4.47829e-07
4.03538e-07
3.64063e-07
3.28842e-07
2.97382e-07
2.6925e-07
2.44065e-07
2.21492e-07
2.01237e-07
1.83039e-07
1.66672e-07
1.51933e-07
1.38644e-07
1.19559e-06
1.06606e-06
9.51607e-07
8.50382e-07
7.60782e-07
6.81404e-07
6.11017e-07
5.48544e-07
4.93041e-07
4.43682e-07
3.99742e-07
3.60584e-07
3.25651e-07
2.94452e-07
2.66559e-07
2.4159e-07
2.19215e-07
1.99139e-07
1.81107e-07
1.6489e-07
1.50288e-07
1.37126e-07
1.18786e-06
1.05908e-06
9.45279e-07
8.44645e-07
7.55576e-07
6.76674e-07
6.06715e-07
5.44627e-07
4.89471e-07
4.40425e-07
3.96766e-07
3.57863e-07
3.2316e-07
2.92171e-07
2.64465e-07
2.39668e-07
2.17449e-07
1.97516e-07
1.79614e-07
1.63515e-07
1.49022e-07
1.35957e-07
1.18203e-06
1.05381e-06
9.40516e-07
8.40332e-07
7.51666e-07
6.73125e-07
6.0349e-07
5.41694e-07
4.86801e-07
4.37991e-07
3.94546e-07
3.55835e-07
3.21305e-07
2.90472e-07
2.62908e-07
2.38241e-07
2.16138e-07
1.96312e-07
1.78506e-07
1.62497e-07
1.48083e-07
1.35093e-07
1.17745e-06
1.0497e-06
9.36823e-07
8.37008e-07
7.4867e-07
6.70421e-07
6.01047e-07
5.39484e-07
4.848e-07
4.36177e-07
3.92901e-07
3.5434e-07
3.19947e-07
2.89236e-07
2.61783e-07
2.37213e-07
2.152e-07
1.95453e-07
1.77721e-07
1.61777e-07
1.47423e-07
1.34489e-07
1.17474e-06
1.04726e-06
9.34619e-07
8.35019e-07
7.46871e-07
6.68793e-07
5.9957e-07
5.38143e-07
4.83581e-07
4.35068e-07
3.91891e-07
3.53422e-07
3.1911e-07
2.88473e-07
2.61086e-07
2.36577e-07
2.14618e-07
1.9492e-07
1.77232e-07
1.61326e-07
1.47009e-07
1.34105e-07
1.17447e-06
1.04701e-06
9.3439e-07
8.34805e-07
7.46671e-07
6.68605e-07
5.99394e-07
5.37977e-07
4.83424e-07
4.34919e-07
3.9175e-07
3.53289e-07
3.18986e-07
2.88357e-07
2.60979e-07
2.36478e-07
2.14526e-07
1.94835e-07
1.7715e-07
1.6125e-07
1.46935e-07
1.34034e-07
1.17412e-06
1.04666e-06
9.34047e-07
8.34476e-07
7.4636e-07
6.68313e-07
5.99122e-07
5.37725e-07
4.83191e-07
4.34705e-07
3.91553e-07
3.53107e-07
3.18818e-07
2.88202e-07
2.60835e-07
2.36345e-07
2.14402e-07
1.9472e-07
1.77045e-07
1.61153e-07
1.46847e-07
1.33953e-07
1.17441e-06
1.04693e-06
9.34303e-07
8.34715e-07
7.46584e-07
6.68523e-07
5.99319e-07
5.3791e-07
4.83365e-07
4.34869e-07
3.91707e-07
3.53253e-07
3.18954e-07
2.88329e-07
2.60954e-07
2.36455e-07
2.14505e-07
1.94816e-07
1.77135e-07
1.61237e-07
1.46926e-07
1.34028e-07
1.17716e-06
1.0494e-06
9.36533e-07
8.36729e-07
7.48405e-07
6.70172e-07
6.00814e-07
5.39267e-07
4.84598e-07
4.35991e-07
3.92728e-07
3.54181e-07
3.19801e-07
2.89101e-07
2.61658e-07
2.37099e-07
2.15095e-07
1.95357e-07
1.77631e-07
1.61693e-07
1.47346e-07
1.34415e-07
1.18176e-06
1.05353e-06
9.40247e-07
8.40073e-07
7.51419e-07
6.72892e-07
6.03271e-07
5.41489e-07
4.86609e-07
4.37813e-07
3.9438e-07
3.55681e-07
3.21163e-07
2.90341e-07
2.62788e-07
2.38129e-07
2.16035e-07
1.96218e-07
1.78419e-07
1.62417e-07
1.48009e-07
1.35026e-07
1.1876e-06
1.05882e-06
9.45026e-07
8.44401e-07
7.55343e-07
6.76454e-07
6.06508e-07
5.44433e-07
4.8929e-07
4.40256e-07
3.96609e-07
3.57717e-07
3.23025e-07
2.92045e-07
2.64349e-07
2.39561e-07
2.1735e-07
1.97425e-07
1.7953e-07
1.63438e-07
1.48952e-07
1.35893e-07
1.19534e-06
1.06582e-06
9.51368e-07
8.50151e-07
7.60562e-07
6.81196e-07
6.10821e-07
5.48361e-07
4.92871e-07
4.43525e-07
3.99596e-07
3.60449e-07
3.25527e-07
2.94338e-07
2.66453e-07
2.41492e-07
2.19126e-07
1.99057e-07
1.81032e-07
1.64821e-07
1.50226e-07
1.37068e-07
1.20498e-06
1.07456e-06
9.593e-07
8.5736e-07
7.67121e-07
6.8717e-07
6.16269e-07
5.53335e-07
4.97416e-07
4.47683e-07
4.03404e-07
3.6394e-07
3.28729e-07
2.97279e-07
2.69155e-07
2.43979e-07
2.21412e-07
2.01165e-07
1.82973e-07
1.66613e-07
1.51877e-07
1.38593e-07
1.2166e-06
1.08512e-06
9.68918e-07
8.66124e-07
7.75116e-07
6.9447e-07
6.22942e-07
5.5944e-07
5.03009e-07
4.5281e-07
4.08108e-07
3.6826e-07
3.327e-07
3.00932e-07
2.72519e-07
2.47077e-07
2.24269e-07
2.03799e-07
1.85406e-07
1.68857e-07
1.53954e-07
1.40511e-07
1.23027e-06
1.09759e-06
9.80293e-07
8.76516e-07
7.84619e-07
7.0317e-07
6.30913e-07
5.66751e-07
5.09719e-07
4.58974e-07
4.13777e-07
3.73477e-07
3.37504e-07
3.05359e-07
2.76601e-07
2.50844e-07
2.27748e-07
2.07013e-07
1.88377e-07
1.71606e-07
1.56496e-07
1.42867e-07
1.24602e-06
1.11198e-06
9.93465e-07
8.88582e-07
7.95682e-07
7.13323e-07
6.40238e-07
5.75323e-07
5.17605e-07
4.66235e-07
4.20466e-07
3.79644e-07
3.43194e-07
3.10613e-07
2.81454e-07
2.5533e-07
2.31896e-07
2.10852e-07
1.9193e-07
1.74898e-07
1.59546e-07
1.45694e-07
1.26367e-06
1.12818e-06
1.00834e-06
9.02248e-07
8.08252e-07
7.24893e-07
6.50897e-07
5.85148e-07
5.26668e-07
4.746e-07
4.28193e-07
3.86784e-07
3.49797e-07
3.1672e-07
2.87108e-07
2.60565e-07
2.36748e-07
2.15348e-07
1.96101e-07
1.78766e-07
1.63136e-07
1.49026e-07
1.2837e-06
1.14658e-06
1.02526e-06
9.17829e-07
8.22604e-07
7.38121e-07
6.63098e-07
5.9641e-07
5.37069e-07
4.84212e-07
4.37079e-07
3.95005e-07
3.57405e-07
3.23766e-07
2.93635e-07
2.66615e-07
2.42357e-07
2.20552e-07
2.00929e-07
1.83248e-07
1.67298e-07
1.52893e-07
1.30536e-06
1.16658e-06
1.04373e-06
9.34886e-07
8.38372e-07
7.52706e-07
6.76595e-07
6.08906e-07
5.48644e-07
4.94939e-07
4.47024e-07
4.04229e-07
3.65963e-07
3.31709e-07
3.01009e-07
2.73464e-07
2.48719e-07
2.26464e-07
2.06425e-07
1.88358e-07
1.72051e-07
1.57313e-07
1.32878e-06
1.18826e-06
1.06381e-06
9.53499e-07
8.55629e-07
7.68712e-07
6.91447e-07
6.22691e-07
5.61443e-07
5.06826e-07
4.58068e-07
4.14492e-07
3.75503e-07
3.40579e-07
3.09258e-07
2.81137e-07
2.55858e-07
2.33107e-07
2.12607e-07
1.94113e-07
1.77408e-07
1.62303e-07
1.35374e-06
1.21146e-06
1.08538e-06
9.73552e-07
8.74279e-07
7.8606e-07
7.07587e-07
6.37711e-07
5.75423e-07
5.1984e-07
4.70184e-07
4.25774e-07
3.86011e-07
3.50366e-07
3.18375e-07
2.89631e-07
2.63772e-07
2.40482e-07
2.1948e-07
2.00518e-07
1.83378e-07
1.67867e-07
1.35375e-06
1.21146e-06
1.08538e-06
9.73558e-07
8.74284e-07
7.86066e-07
7.07592e-07
6.37716e-07
5.75428e-07
5.19844e-07
4.70188e-07
4.25778e-07
3.86014e-07
3.50369e-07
3.18378e-07
2.89634e-07
2.63775e-07
2.40485e-07
2.19482e-07
2.0052e-07
1.8338e-07
1.67869e-07
1.32879e-06
1.18827e-06
1.06383e-06
9.53516e-07
8.55645e-07
7.68728e-07
6.91461e-07
6.22705e-07
5.61456e-07
5.06838e-07
4.58079e-07
4.14503e-07
3.75513e-07
3.40588e-07
3.09267e-07
2.81145e-07
2.55866e-07
2.33114e-07
2.12614e-07
1.94119e-07
1.77414e-07
1.62307e-07
1.30539e-06
1.1666e-06
1.04375e-06
9.34915e-07
8.384e-07
7.52733e-07
6.76621e-07
6.0893e-07
5.48667e-07
4.9496e-07
4.47044e-07
4.04247e-07
3.6598e-07
3.31724e-07
3.01024e-07
2.73477e-07
2.48732e-07
2.26475e-07
2.06435e-07
1.88367e-07
1.72059e-07
1.5732e-07
1.28374e-06
1.14663e-06
1.02531e-06
9.17872e-07
8.22645e-07
7.38161e-07
6.63136e-07
5.96445e-07
5.37101e-07
4.84242e-07
4.37107e-07
3.95031e-07
3.57429e-07
3.23787e-07
2.93654e-07
2.66633e-07
2.42372e-07
2.20566e-07
2.00941e-07
1.8326e-07
1.67309e-07
1.52903e-07
1.26372e-06
1.12823e-06
1.00839e-06
9.02305e-07
8.08307e-07
7.24945e-07
6.50946e-07
5.85194e-07
5.26711e-07
4.74639e-07
4.28228e-07
3.86817e-07
3.49826e-07
3.16746e-07
2.87132e-07
2.60586e-07
2.36767e-07
2.15365e-07
1.96116e-07
1.78779e-07
1.63149e-07
1.49038e-07
1.24609e-06
1.11205e-06
9.93536e-07
8.88651e-07
7.95749e-07
7.13386e-07
6.40298e-07
5.75378e-07
5.17657e-07
4.66282e-07
4.20509e-07
3.79684e-07
3.4323e-07
3.10644e-07
2.81482e-07
2.55356e-07
2.31919e-07
2.10873e-07
1.91949e-07
1.74915e-07
1.59562e-07
1.45709e-07
1.23035e-06
1.09767e-06
9.80374e-07
8.76595e-07
7.84695e-07
7.03243e-07
6.30982e-07
5.66815e-07
5.09779e-07
4.5903e-07
4.13827e-07
3.73523e-07
3.37546e-07
3.05396e-07
2.76635e-07
2.50874e-07
2.27776e-07
2.07038e-07
1.884e-07
1.71627e-07
1.56516e-07
1.42884e-07
1.21669e-06
1.08521e-06
9.69008e-07
8.66211e-07
7.752e-07
6.94551e-07
6.23019e-07
5.59512e-07
5.03076e-07
4.52872e-07
4.08166e-07
3.68313e-07
3.32749e-07
3.00976e-07
2.72559e-07
2.47113e-07
2.24303e-07
2.03829e-07
1.85434e-07
1.68883e-07
1.53977e-07
1.40533e-07
1.20507e-06
1.07465e-06
9.59396e-07
8.57454e-07
7.67212e-07
6.87258e-07
6.16353e-07
5.53414e-07
4.97491e-07
4.47752e-07
4.03468e-07
3.64e-07
3.28784e-07
2.97331e-07
2.69202e-07
2.44022e-07
2.21451e-07
2.01201e-07
1.83005e-07
1.66643e-07
1.51904e-07
1.38618e-07
1.19545e-06
1.06592e-06
9.51472e-07
8.50252e-07
7.6066e-07
6.8129e-07
6.10911e-07
5.48446e-07
4.92952e-07
4.43601e-07
3.99668e-07
3.60517e-07
3.25591e-07
2.94396e-07
2.66509e-07
2.41543e-07
2.19173e-07
1.99099e-07
1.81072e-07
1.64856e-07
1.50258e-07
1.37096e-07
1.18771e-06
1.05893e-06
9.45139e-07
8.44511e-07
7.55449e-07
6.76555e-07
6.06604e-07
5.44524e-07
4.89376e-07
4.40338e-07
3.96686e-07
3.57791e-07
3.23094e-07
2.92111e-07
2.6441e-07
2.39619e-07
2.17403e-07
1.97475e-07
1.79575e-07
1.63479e-07
1.48989e-07
1.35925e-07
1.18188e-06
1.05366e-06
9.40372e-07
8.40195e-07
7.51536e-07
6.73003e-07
6.03376e-07
5.41588e-07
4.86702e-07
4.379e-07
3.94462e-07
3.55758e-07
3.21236e-07
2.90409e-07
2.62852e-07
2.38189e-07
2.16091e-07
1.96269e-07
1.78466e-07
1.6246e-07
1.48047e-07
1.35061e-07
1.17729e-06
1.04954e-06
9.36668e-07
8.36861e-07
7.48533e-07
6.70294e-07
6.00929e-07
5.39375e-07
4.84699e-07
4.36084e-07
3.92814e-07
3.54261e-07
3.19875e-07
2.89169e-07
2.61722e-07
2.37157e-07
2.1515e-07
1.95407e-07
1.77678e-07
1.61737e-07
1.47386e-07
1.34453e-07
1.17455e-06
1.04707e-06
9.34444e-07
8.34853e-07
7.46718e-07
6.68652e-07
5.99442e-07
5.38026e-07
4.83474e-07
4.3497e-07
3.918e-07
3.53338e-07
3.19031e-07
2.88401e-07
2.61018e-07
2.36515e-07
2.1456e-07
1.94868e-07
1.77182e-07
1.61281e-07
1.46969e-07
1.34067e-07
1.17426e-06
1.0468e-06
9.34191e-07
8.34617e-07
7.46496e-07
6.68444e-07
5.99247e-07
5.37844e-07
4.83303e-07
4.3481e-07
3.91651e-07
3.53198e-07
3.18901e-07
2.88277e-07
2.60904e-07
2.36407e-07
2.1446e-07
1.94774e-07
1.77094e-07
1.612e-07
1.46891e-07
1.33996e-07
1.17086e-06
1.17101e-06
1.17357e-06
1.17781e-06
1.18304e-06
1.18984e-06
1.19819e-06
1.20809e-06
1.21946e-06
1.2322e-06
1.24613e-06
1.26172e-06
1.27815e-06
1.29543e-06
1.31338e-06
1.24176e-06
1.21864e-06
1.19665e-06
1.17595e-06
1.15664e-06
1.13854e-06
1.12249e-06
1.10786e-06
1.09486e-06
1.0835e-06
1.07376e-06
1.06559e-06
1.05892e-06
1.05376e-06
1.04959e-06
1.03784e-06
1.03797e-06
1.04023e-06
1.04399e-06
1.04866e-06
1.05475e-06
1.06226e-06
1.07122e-06
1.08156e-06
1.09319e-06
1.106e-06
1.12038e-06
1.13566e-06
1.15185e-06
1.16878e-06
1.10768e-06
1.08654e-06
1.06649e-06
1.04766e-06
1.03014e-06
1.01377e-06
9.99249e-07
9.86053e-07
9.74356e-07
9.64145e-07
9.55403e-07
9.48084e-07
9.42116e-07
9.37492e-07
9.33766e-07
9.20805e-07
9.2092e-07
9.22933e-07
9.26271e-07
9.30442e-07
9.35902e-07
9.42665e-07
9.50783e-07
9.60198e-07
9.7084e-07
9.82612e-07
9.95898e-07
1.01011e-06
1.02526e-06
1.04123e-06
9.89215e-07
9.69872e-07
9.51569e-07
9.34415e-07
9.18495e-07
9.03664e-07
8.90517e-07
8.78599e-07
8.68054e-07
8.58866e-07
8.51012e-07
8.44444e-07
8.39093e-07
8.34949e-07
8.31629e-07
8.17776e-07
8.17878e-07
8.1967e-07
8.2264e-07
8.26377e-07
8.31277e-07
8.37369e-07
8.44729e-07
8.53319e-07
8.6307e-07
8.73901e-07
8.8617e-07
8.994e-07
9.13586e-07
9.28622e-07
8.84452e-07
8.66733e-07
8.50007e-07
8.34363e-07
8.19877e-07
8.06424e-07
7.94504e-07
7.83725e-07
7.74206e-07
7.65928e-07
7.58862e-07
7.52961e-07
7.48159e-07
7.44439e-07
7.41475e-07
7.27011e-07
7.27104e-07
7.28702e-07
7.31347e-07
7.34703e-07
7.39109e-07
7.44602e-07
7.51275e-07
7.59121e-07
7.68071e-07
7.78047e-07
7.89378e-07
8.01692e-07
8.14974e-07
8.29126e-07
7.91723e-07
7.75471e-07
7.6017e-07
7.45889e-07
7.32688e-07
7.20469e-07
7.09649e-07
6.99887e-07
6.91285e-07
6.83816e-07
6.7745e-07
6.72142e-07
6.67826e-07
6.64484e-07
6.61832e-07
6.46994e-07
6.47079e-07
6.48505e-07
6.50866e-07
6.53884e-07
6.57854e-07
6.62814e-07
6.68865e-07
6.76035e-07
6.84263e-07
6.93464e-07
7.03931e-07
7.15388e-07
7.27825e-07
7.41136e-07
7.09564e-07
6.94643e-07
6.80629e-07
6.67579e-07
6.55538e-07
6.44425e-07
6.34589e-07
6.25738e-07
6.17954e-07
6.11206e-07
6.05463e-07
6.00682e-07
5.968e-07
5.93791e-07
5.91416e-07
5.76399e-07
5.76477e-07
5.77753e-07
5.79862e-07
5.8258e-07
5.86165e-07
5.90652e-07
5.96142e-07
6.02693e-07
6.10265e-07
6.18766e-07
6.2844e-07
6.39095e-07
6.50737e-07
6.63257e-07
6.36703e-07
6.22988e-07
6.10138e-07
5.98199e-07
5.87206e-07
5.77084e-07
5.68133e-07
5.60098e-07
5.53044e-07
5.4694e-07
5.41753e-07
5.3744e-07
5.33944e-07
5.31234e-07
5.29102e-07
5.14068e-07
5.14141e-07
5.15282e-07
5.17169e-07
5.19621e-07
5.22864e-07
5.26932e-07
5.31918e-07
5.37901e-07
5.44873e-07
5.52738e-07
5.6169e-07
5.71594e-07
5.82486e-07
5.94259e-07
5.72022e-07
5.59401e-07
5.47606e-07
5.36673e-07
5.26624e-07
5.17395e-07
5.09238e-07
5.01936e-07
4.95535e-07
4.90007e-07
4.85317e-07
4.81421e-07
4.78269e-07
4.75823e-07
4.73909e-07
4.58988e-07
4.59056e-07
4.6008e-07
4.61769e-07
4.63985e-07
4.66923e-07
4.70619e-07
4.75154e-07
4.80619e-07
4.87035e-07
4.94321e-07
5.02615e-07
5.11819e-07
5.22001e-07
5.33068e-07
5.14544e-07
5.02918e-07
4.92077e-07
4.82054e-07
4.72861e-07
4.64438e-07
4.56995e-07
4.5035e-07
4.44535e-07
4.39523e-07
4.35276e-07
4.31753e-07
4.28906e-07
4.26696e-07
4.24975e-07
4.10274e-07
4.10339e-07
4.11258e-07
4.12773e-07
4.14777e-07
4.17443e-07
4.20807e-07
4.24941e-07
4.29933e-07
4.35837e-07
4.42589e-07
4.50285e-07
4.58841e-07
4.6835e-07
4.78748e-07
4.63411e-07
4.52694e-07
4.42719e-07
4.33519e-07
4.251e-07
4.17405e-07
4.10606e-07
4.04551e-07
3.99263e-07
3.94713e-07
3.90862e-07
3.87672e-07
3.85097e-07
3.83099e-07
3.81548e-07
3.67155e-07
3.67216e-07
3.68043e-07
3.69402e-07
3.71216e-07
3.73638e-07
3.76705e-07
3.80482e-07
3.85047e-07
3.90473e-07
3.96731e-07
4.03882e-07
4.11844e-07
4.20715e-07
4.30473e-07
4.1787e-07
4.07987e-07
3.98799e-07
3.90344e-07
3.82625e-07
3.75589e-07
3.69372e-07
3.63849e-07
3.59033e-07
3.54896e-07
3.51402e-07
3.48511e-07
3.46179e-07
3.4437e-07
3.4297e-07
3.28952e-07
3.29009e-07
3.29754e-07
3.30975e-07
3.32619e-07
3.34822e-07
3.37623e-07
3.41079e-07
3.45261e-07
3.50246e-07
3.5604e-07
3.62691e-07
3.70108e-07
3.78383e-07
3.87529e-07
3.77263e-07
3.68145e-07
3.59676e-07
3.51896e-07
3.44812e-07
3.38373e-07
3.32682e-07
3.27638e-07
3.23247e-07
3.19482e-07
3.16306e-07
3.13683e-07
3.11569e-07
3.09929e-07
3.08664e-07
2.95073e-07
2.95126e-07
2.95798e-07
2.96898e-07
2.98389e-07
3.00393e-07
3.02953e-07
3.06123e-07
3.09962e-07
3.14544e-07
3.19902e-07
3.26086e-07
3.33005e-07
3.40726e-07
3.49288e-07
3.4101e-07
3.32596e-07
3.24788e-07
3.17623e-07
3.11113e-07
3.05213e-07
3.00001e-07
2.95388e-07
2.9138e-07
2.87949e-07
2.8506e-07
2.82677e-07
2.80758e-07
2.79269e-07
2.78125e-07
2.65001e-07
2.65049e-07
2.65656e-07
2.66648e-07
2.68002e-07
2.69827e-07
2.72169e-07
2.75078e-07
2.78609e-07
2.82826e-07
2.87777e-07
2.93522e-07
2.99981e-07
3.07193e-07
3.15202e-07
3.0861e-07
3.0084e-07
2.93639e-07
2.87037e-07
2.81048e-07
2.75635e-07
2.70856e-07
2.66634e-07
2.62972e-07
2.59841e-07
2.5721e-07
2.55042e-07
2.533e-07
2.51946e-07
2.5091e-07
2.38281e-07
2.38325e-07
2.38873e-07
2.39768e-07
2.40999e-07
2.42664e-07
2.44807e-07
2.4748e-07
2.50732e-07
2.5462e-07
2.59193e-07
2.64525e-07
2.70555e-07
2.77297e-07
2.84787e-07
2.7962e-07
2.72438e-07
2.65795e-07
2.5971e-07
2.54195e-07
2.49224e-07
2.44836e-07
2.40968e-07
2.37618e-07
2.34758e-07
2.32359e-07
2.30386e-07
2.288e-07
2.2757e-07
2.26629e-07
2.14514e-07
2.14555e-07
2.1505e-07
2.15859e-07
2.16981e-07
2.18499e-07
2.20461e-07
2.22919e-07
2.25918e-07
2.29508e-07
2.33736e-07
2.38678e-07
2.44303e-07
2.50611e-07
2.57619e-07
2.53654e-07