/*--------------------------------*- C++ -*----------------------------------*\
| =========                 |                                                 |
| \\      /  F ield         | OpenFOAM Extend Project: Open source CFD        |
|  \\    /   O peration     | Version:  1.6-ext                               |
|   \\  /    A nd           | Web:      www.extend-project.de                 |
|    \\/     M anipulation  |                                                 |
\*---------------------------------------------------------------------------*/
FoamFile
{
    version     2.0;
    format      ascii;
    class       volScalarField;
    location    "4";
    object      p;
}
// * * * * * * * * * * * * * * * * * * * * * * * * * * * * * * * * * * * * * //

dimensions      [0 2 -2 0 0 0 0];

internalField   nonuniform List<scalar> 
72
(
-0.0279577
-0.0290952
-0.0284084
-0.0262551
-0.022529
-0.0172538
-0.0109368
-0.00560142
0.00499809
-0.0267654
-0.0279997
-0.0274901
-0.0258557
-0.0228523
-0.0182663
-0.0124106
-0.00747605
0.00423529
-0.027804
-0.0292416
-0.0290263
-0.0278137
-0.025178
-0.0206859
-0.0144489
-0.00908604
0.00465832
-0.0307518
-0.0321172
-0.0322069
-0.0314581
-0.0291753
-0.024686
-0.0178006
-0.0114714
0.00344681
-0.0355983
-0.0363424
-0.0366106
-0.0363298
-0.0344122
-0.0299628
-0.0224743
-0.0146087
0.00120107
-0.0421115
-0.041152
-0.0413949
-0.0414757
-0.039892
-0.0354052
-0.0276485
-0.0172574
-0.0019185
-0.0497484
-0.0452658
-0.0452845
-0.0452579
-0.0438467
-0.0392235
-0.030995
-0.0193198
-0.00447008
-0.0670873
-0.0498699
-0.0477111
-0.0469198
-0.0449916
-0.0399869
-0.0314799
-0.0195022
-0.00575533
)
;

boundaryField
{
    inlet
    {
        type            zeroGradient;
    }
    outlet
    {
        type            totalPressure;
        rho             none;
        psi             none;
        gamma           1;
        p0              uniform 0;
        value           nonuniform List<scalar> 8(-4.44028e-05 -0.000363553 0 0 0 0 0 0);
    }
    fixedWalls
    {
        type            zeroGradient;
    }
    frontAndBack
    {
        type            empty;
    }
    procBoundary0to1
    {
        type            processor;
        value           nonuniform List<scalar> 9(-0.059447 -0.0505674 -0.0470506 -0.0450953 -0.0422898 -0.036773 -0.0284583 -0.0172716 -0.00575932);
    }
}


// ************************************************************************* //
