/*--------------------------------*- C++ -*----------------------------------*\
| =========                 |                                                 |
| \\      /  F ield         | OpenFOAM Extend Project: Open source CFD        |
|  \\    /   O peration     | Version:  1.6-ext                               |
|   \\  /    A nd           | Web:      www.extend-project.de                 |
|    \\/     M anipulation  |                                                 |
\*---------------------------------------------------------------------------*/
FoamFile
{
    version     2.0;
    format      ascii;
    class       surfaceScalarField;
    location    "4";
    object      phi;
}
// * * * * * * * * * * * * * * * * * * * * * * * * * * * * * * * * * * * * * //

dimensions      [0 3 -1 0 0 0 0];

internalField   nonuniform List<scalar> 
127
(
-3.64077e-06
3.64077e-06
-1.23886e-05
8.74778e-06
-2.22196e-05
9.831e-06
-3.04919e-05
8.27239e-06
-3.54723e-05
4.9803e-06
-3.58865e-05
4.14223e-07
-3.09287e-05
-4.95778e-06
-2.08491e-05
-1.00796e-05
-1.58666e-05
-9.5369e-06
1.31777e-05
-2.64784e-05
2.56893e-05
-4.35593e-05
2.69118e-05
-5.62852e-05
2.09983e-05
-6.19589e-05
1.0654e-05
-5.92422e-05
-2.30252e-06
-4.79069e-05
-1.6293e-05
-2.92238e-05
-2.87627e-05
-3.90958e-05
-1.18726e-05
2.50503e-05
-3.13164e-05
4.51331e-05
-4.97232e-05
4.53187e-05
-6.21371e-05
3.34123e-05
-6.58575e-05
1.43743e-05
-5.9951e-05
-8.20901e-06
-4.47451e-05
-3.14989e-05
-2.19069e-05
-5.16009e-05
-6.43627e-05
-1.17044e-05
3.67547e-05
-2.95164e-05
6.2945e-05
-4.52718e-05
6.10741e-05
-5.45139e-05
4.26544e-05
-5.49062e-05
1.47667e-05
-4.59573e-05
-1.7158e-05
-2.83018e-05
-4.91544e-05
-1.73701e-06
-7.81657e-05
-9.01502e-05
-9.72883e-06
4.64835e-05
-2.15884e-05
7.48046e-05
-3.02387e-05
6.97244e-05
-3.25737e-05
4.49893e-05
-2.71206e-05
9.31355e-06
-1.40331e-05
-3.02454e-05
5.41058e-06
-6.85981e-05
3.08372e-05
-0.000103592
-0.000117801
-5.81247e-06
5.2296e-05
-6.09853e-06
7.50907e-05
-1.57767e-06
6.52036e-05
8.38007e-06
3.50316e-05
2.32505e-05
-5.55692e-06
4.25485e-05
-4.95433e-05
6.5322e-05
-9.13716e-05
8.89404e-05
-0.000127211
-0.000143338
4.54958e-06
4.77464e-05
2.26357e-05
5.70045e-05
4.72633e-05
4.0576e-05
7.39593e-05
8.33553e-06
0.000100749
-3.23468e-05
0.000127242
-7.60358e-05
0.000151953
-0.000116082
0.000174099
-0.000149357
-0.000163159
3.71863e-05
8.23886e-05
0.000128415
0.000169923
0.00020607
0.000236504
0.000260277
0.000277813
)
;

boundaryField
{
    inlet
    {
        type            calculated;
        value           nonuniform 0();
    }
    outlet
    {
        type            calculated;
        value           nonuniform List<scalar> 8(-4.9825e-06 -5.99462e-06 3.36003e-06 2.40505e-05 5.84882e-05 0.000114477 0.00019392 0.000288478);
    }
    fixedWalls
    {
        type            calculated;
        value           uniform 0;
    }
    frontAndBack
    {
        type            empty;
    }
    procBoundary0to1
    {
        type            processor;
        value           nonuniform List<scalar> 9(1.05601e-05 1.18022e-05 -5.44988e-06 -3.31726e-05 -6.84941e-05 -0.00010647 -0.000139856 -0.000166893 -0.000173824);
    }
}


// ************************************************************************* //
