/*--------------------------------*- C++ -*----------------------------------*\
| =========                 |                                                 |
| \\      /  F ield         | OpenFOAM Extend Project: Open source CFD        |
|  \\    /   O peration     | Version:  1.6-ext                               |
|   \\  /    A nd           | Web:      www.extend-project.de                 |
|    \\/     M anipulation  |                                                 |
\*---------------------------------------------------------------------------*/
FoamFile
{
    version     2.0;
    format      ascii;
    class       volVectorField;
    location    "4";
    object      U;
}
// * * * * * * * * * * * * * * * * * * * * * * * * * * * * * * * * * * * * * //

dimensions      [0 1 -1 0 0 0 0];

internalField   nonuniform List<vector> 
72
(
(-0.000903859 0.000806903 0)
(-0.00702241 0.00299486 0)
(-0.0174895 0.00372623 0)
(-0.027011 0.00345226 0)
(-0.0338992 0.00247037 0)
(-0.0366371 0.000838221 0)
(-0.0338763 -0.0013252 0)
(-0.0304353 -0.00360423 0)
(-0.0065264 -0.00679131 0)
(-0.00340457 0.00717324 0)
(-0.0166703 0.0155476 0)
(-0.0357671 0.0170188 0)
(-0.0515893 0.0139822 0)
(-0.0611481 0.00802166 0)
(-0.0624374 6.10334e-05 0)
(-0.0543515 -0.00897419 0)
(-0.0449306 -0.0173835 0)
(-0.00768805 -0.0258556 0)
(-0.00450644 0.0189376 0)
(-0.0203569 0.0352632 0)
(-0.0417209 0.0361817 0)
(-0.0581468 0.0275242 0)
(-0.0664922 0.0130653 0)
(-0.0650624 -0.00454858 0)
(-0.0529533 -0.0230854 0)
(-0.0403036 -0.0392904 0)
(0.00192735 -0.050904 0)
(-0.00465646 0.0311634 0)
(-0.0197668 0.05471 0)
(-0.0388844 0.0540569 0)
(-0.0523034 0.0389084 0)
(-0.0572624 0.0153797 0)
(-0.0526136 -0.0120922 0)
(-0.037384 -0.0400517 0)
(-0.0224976 -0.064747 0)
(0.0204804 -0.076986 0)
(-0.00433387 0.0421482 0)
(-0.0157196 0.0704452 0)
(-0.0276112 0.0673194 0)
(-0.0336992 0.0456286 0)
(-0.0320923 0.0136102 0)
(-0.0224832 -0.0229105 0)
(-0.00451239 -0.0588842 0)
(0.0139298 -0.0914288 0)
(0.0536917 -0.104624 0)
(-0.00349794 0.0503539 0)
(-0.00745588 0.077976 0)
(-0.00528814 0.0709518 0)
(0.00181307 0.0431113 0)
(0.0143735 0.00432984 0)
(0.0320869 -0.0387857 0)
(0.053691 -0.0800351 0)
(0.0753601 -0.116348 0)
(0.109611 -0.132111 0)
(0.000867134 0.0578462 0)
(0.00956523 0.0732607 0)
(0.0338245 0.0588297 0)
(0.0596051 0.0263136 0)
(0.0868397 -0.015999 0)
(0.114549 -0.0615288 0)
(0.14051 -0.103861 0)
(0.164166 -0.139423 0)
(0.190069 -0.155328 0)
(0.0277681 0.029649 0)
(0.0535698 0.0381398 0)
(0.105121 0.0210731 0)
(0.149446 -0.0102225 0)
(0.188664 -0.0496334 0)
(0.223394 -0.0915741 0)
(0.250106 -0.129151 0)
(0.272618 -0.159969 0)
(0.286378 -0.171086 0)
)
;

boundaryField
{
    inlet
    {
        type            fixedValue;
        value           nonuniform 0();
    }
    outlet
    {
        type            zeroGradient;
    }
    fixedWalls
    {
        type            fixedValue;
        value           uniform (0 0 0);
    }
    frontAndBack
    {
        type            empty;
    }
    procBoundary0to1
    {
        type            processor;
        value           nonuniform List<vector> 9((0.18746 -0.00663106 0) (0.209184 -0.0169008 0) (0.247534 -0.0332991 0) (0.287468 -0.0581963 0) (0.3227 -0.0891132 0) (0.352432 -0.122342 0) (0.370153 -0.150801 0) (0.385005 -0.173704 0) (0.380672 -0.176157 0));
    }
}


// ************************************************************************* //
