/*--------------------------------*- C++ -*----------------------------------*\
| =========                 |                                                 |
| \\      /  F ield         | OpenFOAM Extend Project: Open source CFD        |
|  \\    /   O peration     | Version:  1.6-ext                               |
|   \\  /    A nd           | Web:      www.extend-project.de                 |
|    \\/     M anipulation  |                                                 |
\*---------------------------------------------------------------------------*/
FoamFile
{
    version     2.0;
    format      ascii;
    class       volScalarField;
    location    "1";
    object      p;
}
// * * * * * * * * * * * * * * * * * * * * * * * * * * * * * * * * * * * * * //

dimensions      [0 2 -2 0 0 0 0];

internalField   nonuniform List<scalar> 
284
(
0.244596
0.213175
0.201759
0.196761
0.194607
0.194155
0.194608
0.195627
0.198157
0.215411
0.206418
0.200964
0.198328
0.197219
0.197129
0.197623
0.198436
0.201125
0.203845
0.200237
0.197523
0.196174
0.195806
0.196161
0.196906
0.197794
0.200941
0.194759
0.193477
0.192268
0.191779
0.191892
0.192462
0.193233
0.193987
0.197413
0.187388
0.186873
0.186269
0.185978
0.185949
0.186124
0.186274
0.186164
0.189223
0.180793
0.180488
0.179915
0.179238
0.178397
0.177369
0.175857
0.173446
0.174179
0.17464
0.174328
0.173451
0.171959
0.169688
0.166507
0.161744
0.15398
0.147451
0.168986
0.168576
0.167204
0.164611
0.160434
0.154328
0.144949
0.131231
0.0868811
0.164095
0.16355
0.161589
0.157759
0.151258
0.140932
0.121038
0.0843339
-0.00879158
0.160327
0.159603
0.157047
0.152197
0.144206
0.132035
0.111789
0.0812179
0.0302625
0.158105
0.15701
0.153769
0.148166
0.139662
0.127617
0.110449
0.0866473
0.0556885
0.157826
0.155907
0.15161
0.145285
0.13665
0.125175
0.110252
0.0904044
0.0676679
0.160967
0.156566
0.15038
0.143111
0.134396
0.123554
0.110223
0.0932908
0.0748157
0.167561
0.157844
0.149204
0.141223
0.132744
0.122617
0.110436
0.0954677
0.0791079
0.196158
0.164654
0.150889
0.142117
0.133639
0.124051
0.11246
0.098215
0.0823197
-0.14195
-0.118667
-0.0382679
-0.0635323
0.00816409
-0.0189981
0.0370875
0.0146083
0.0532671
0.0342243
0.0613389
0.0443616
0.0650289
0.0475629
-0.106137
-0.0808409
-0.0499104
-0.0243671
-0.00847792
-0.000689536
0.00221182
0.00243606
0.000881138
-0.0683695
-0.0540013
-0.0321123
-0.0142598
-0.0036085
0.00134871
0.00287543
0.0024884
0.000613426
-0.0275312
-0.0233399
-0.0135449
-0.00468665
0.000712105
0.00299773
0.00325223
0.0023577
0.000348574
0.00264084
-0.000996331
0.000152024
0.00242844
0.00381245
0.00396617
0.00321351
0.00199337
7.37373e-05
0.0206865
0.0127484
0.0087209
0.00668856
0.00531257
0.00402434
0.00269
0.0014066
-0.000184482
0.0302887
0.0198641
0.0128482
0.00834668
0.00541382
0.00338862
0.00188457
0.000749002
-0.000355097
0.0321612
0.0201189
0.0117104
0.00638
0.00320169
0.00133787
0.000223123
-0.000431834
-0.000733071
-0.0143018
-0.0123334
-0.00887962
-0.00513723
-0.00198112
0.000243167
0.00144518
0.00174198
0.00127575
-0.0162433
-0.0144295
-0.0110645
-0.00713484
-0.00368934
-0.00114717
0.000376056
0.00100626
0.00102859
-0.0198836
-0.0176543
-0.0135133
-0.00875554
-0.00465706
-0.00167097
0.000120417
0.000898753
0.00106467
-0.0259031
-0.0230804
-0.017377
-0.0110939
-0.00583946
-0.00213028
3.18097e-05
0.000945432
0.0011238
-0.0354931
-0.0315751
-0.0232716
-0.014412
-0.00728376
-0.00250519
0.00013011
0.00114973
0.00119742
-0.0519496
-0.0441936
-0.0321045
-0.018951
-0.00894881
-0.00272724
0.000433728
0.00149054
0.00125887
-0.0720065
-0.0595132
-0.0426924
-0.0241563
-0.0105369
-0.00270626
0.000896901
0.00187526
0.00124579
-0.118748
-0.0814108
-0.0528565
-0.0279698
-0.011055
-0.00218864
0.00147829
0.00220339
0.00111039
)
;

boundaryField
{
    inlet
    {
        type            zeroGradient;
    }
    outlet
    {
        type            totalPressure;
        rho             none;
        psi             none;
        gamma           1;
        p0              uniform 0;
        value           uniform 0;
    }
    fixedWalls
    {
        type            zeroGradient;
    }
    frontAndBack
    {
        type            empty;
    }
}


// ************************************************************************* //
