/*--------------------------------*- C++ -*----------------------------------*\
| =========                 |                                                 |
| \\      /  F ield         | OpenFOAM Extend Project: Open source CFD        |
|  \\    /   O peration     | Version:  1.6-ext                               |
|   \\  /    A nd           | Web:      www.extend-project.de                 |
|    \\/     M anipulation  |                                                 |
\*---------------------------------------------------------------------------*/
FoamFile
{
    version     2.0;
    format      ascii;
    class       surfaceScalarField;
    location    "1";
    object      phi;
}
// * * * * * * * * * * * * * * * * * * * * * * * * * * * * * * * * * * * * * //

dimensions      [0 3 -1 0 0 0 0];

internalField   nonuniform List<scalar> 
525
(
0.000161349
3.86514e-05
0.000119431
4.19174e-05
8.67715e-05
3.26597e-05
6.28547e-05
2.39168e-05
4.47222e-05
1.81325e-05
2.93705e-05
1.53517e-05
1.52705e-05
1.41e-05
3.72053e-06
1.155e-05
3.72053e-06
0.000205238
3.34134e-05
0.000191479
5.56765e-05
0.000165848
5.8291e-05
0.000136175
5.35894e-05
0.000105632
4.86755e-05
7.47215e-05
4.62623e-05
4.35804e-05
4.52411e-05
1.52454e-05
3.98849e-05
1.8966e-05
0.000208435
2.49783e-05
0.000205952
5.81597e-05
0.000190076
7.41665e-05
0.000164609
7.90569e-05
0.000133265
8.0019e-05
9.79061e-05
8.16217e-05
5.96103e-05
8.35369e-05
2.23891e-05
7.71061e-05
4.13551e-05
0.000204668
2.03103e-05
0.000204287
5.85402e-05
0.000193408
8.50456e-05
0.000172839
9.96263e-05
0.000144665
0.000108193
0.000110091
0.000116196
6.97583e-05
0.00012387
2.75775e-05
0.000119287
6.89326e-05
0.000202123
1.81872e-05
0.00020152
5.91436e-05
0.000193575
9.29897e-05
0.000177472
0.00011573
0.000153658
0.000132006
0.00012202
0.000147834
8.17207e-05
0.000164169
3.49528e-05
0.000166055
0.000103885
0.000201235
1.69523e-05
0.000201259
5.91192e-05
0.000196495
9.77545e-05
0.00018537
0.000126854
0.000167133
0.000150244
0.000140309
0.000174658
0.000101769
0.000202709
4.94881e-05
0.000218336
0.000153373
0.000201407
1.55448e-05
0.000203416
5.71106e-05
0.000203058
9.81127e-05
0.000198392
0.00013152
0.000188049
0.000160587
0.00017004
0.000192667
0.000138041
0.000234707
8.10608e-05
0.000275316
0.000234434
0.000202142
1.34026e-05
0.000207188
5.20646e-05
0.000212508
9.27927e-05
0.000216034
0.000127993
0.000216219
0.000160402
0.000210917
0.000197969
0.000190324
0.000255301
0.000133488
0.000332152
0.000367922
0.000203151
1.02512e-05
0.000211768
4.34483e-05
0.000223443
8.11175e-05
0.000236498
0.000114939
0.000251441
0.000145459
0.000271511
0.000177899
0.000307666
0.000219146
0.000380714
0.000259105
0.000330055
0.00041858
0.00020438
5.87084e-06
0.000216555
3.12735e-05
0.000233966
6.3707e-05
0.00025495
9.39539e-05
0.000280541
0.000119868
0.000314336
0.000144105
0.000362349
0.000171133
0.00044184
0.000179614
0.000242162
0.000529733
0.000206212
-3.41255e-07
0.000221703
1.5783e-05
0.000243261
4.21485e-05
0.000268905
6.83102e-05
0.000298906
8.98663e-05
0.000335543
0.000107468
0.000381971
0.000124705
0.000440254
0.000121331
0.000152235
0.000530181
0.000209222
-9.56367e-06
0.000227819
-2.81318e-06
0.000251445
1.8522e-05
0.0002785
4.12549e-05
0.000309077
5.92903e-05
0.000344472
7.20726e-05
0.000386786
8.23902e-05
0.000430697
7.74205e-05
8.69624e-05
0.000495969
0.000213776
-2.33399e-05
0.000232728
-2.17647e-05
0.000254288
-3.03867e-06
0.000278815
1.67286e-05
0.000307016
3.10885e-05
0.000339142
3.99471e-05
0.000376064
4.54679e-05
0.000411315
4.21699e-05
4.2542e-05
0.000455735
0.000211256
-3.45959e-05
0.000218634
-2.91422e-05
0.000228507
-1.29116e-05
0.000244505
7.30416e-07
0.000266506
9.08697e-06
0.00029284
1.36138e-05
0.000322542
1.57654e-05
0.00035046
1.42519e-05
1.30748e-05
0.000379927
0.000165404
0.000136262
0.00012335
0.000124081
0.000133168
0.000146781
0.000162547
0.000176799
0.000189874
0.000287923
0.000130657
2.31274e-05
0.000264795
0.000526167
0.000134224
3.02992e-05
0.000518995
0.000565241
9.91638e-05
2.55238e-05
0.000570016
0.000535141
5.99921e-05
1.32001e-05
0.000547465
0.00048799
2.77373e-05
1.72577e-06
0.000499464
0.000400669
6.99513e-06
-3.1015e-06
0.000405497
0.000196869
0.000193767
0.000295331
-9.03334e-05
5.97974e-05
0.000317684
-0.000175122
0.000152769
0.000318637
-0.000214136
0.000213183
0.000306132
-0.000208614
0.000221119
0.000290549
-0.000178061
0.000193645
0.000277352
-0.000140836
0.000154032
0.000268015
-0.000106226
0.000115563
0.000262342
-7.71975e-05
8.287e-05
-5.08602e-05
5.3884e-05
0.000498397
-6.9736e-05
0.000465624
-0.000142348
0.000422663
-0.000171175
0.000379336
-0.000165287
0.000343526
-0.000142252
0.000317179
-0.000114488
0.000299007
-8.80535e-05
0.000287182
-6.53734e-05
-4.3932e-05
0.000547868
-4.7588e-05
0.000505318
-9.97975e-05
0.000455683
-0.00012154
0.000409437
-0.000119041
0.000371238
-0.000104053
0.00034187
-8.51195e-05
0.000320315
-6.64987e-05
0.000305173
-5.02318e-05
-3.45021e-05
0.000533192
-3.33152e-05
0.000499486
-6.6091e-05
0.000457703
-7.97579e-05
0.000416743
-7.80813e-05
0.00038102
-6.83292e-05
0.000351965
-5.60643e-05
0.000329528
-4.40618e-05
0.000312933
-3.3637e-05
-2.37599e-05
0.000489319
-2.31703e-05
0.000463118
-3.98892e-05
0.000429027
-4.56674e-05
0.000394212
-4.32665e-05
0.000362811
-3.69284e-05
0.000336492
-2.97453e-05
0.000315604
-2.31734e-05
0.000299698
-1.77312e-05
-1.31505e-05
0.000394162
-1.18355e-05
0.000370886
-1.66132e-05
0.000342367
-1.71483e-05
0.000314103
-1.50024e-05
0.000289148
-1.19736e-05
0.000268554
-9.15165e-06
0.000252306
-6.92562e-06
0.000239906
-5.33076e-06
-4.55874e-06
0.000181932
0.000165318
0.00014817
0.000133168
0.000121194
0.000112043
0.000105117
9.97862e-05
-2.95413e-06
2.95413e-06
-6.78233e-07
-2.27589e-06
6.03132e-06
-6.70955e-06
1.48896e-05
-8.85824e-06
2.40378e-05
-9.1482e-06
3.23461e-05
-8.30833e-06
3.92403e-05
-6.89423e-06
4.45726e-05
-5.33223e-06
-4.27337e-06
-6.69045e-07
3.62317e-06
7.50611e-06
-1.04511e-05
2.3075e-05
-2.22785e-05
4.17985e-05
-2.75817e-05
6.04658e-05
-2.78155e-05
7.71595e-05
-2.50021e-05
9.08926e-05
-2.06273e-05
0.000101243
-1.56822e-05
-1.13857e-05
-1.03402e-06
4.65719e-06
9.41703e-06
-2.09021e-05
2.95982e-05
-4.24596e-05
5.37933e-05
-5.17769e-05
7.75947e-05
-5.16169e-05
9.85459e-05
-4.59533e-05
0.000115561
-3.76425e-05
0.000128272
-2.83929e-05
-1.9863e-05
-4.69295e-06
9.35014e-06
5.95358e-06
-3.15486e-05
2.99522e-05
-6.64582e-05
5.91022e-05
-8.09269e-05
8.7189e-05
-7.97036e-05
0.000111143
-6.99074e-05
0.000130039
-5.65386e-05
0.000143894
-4.22474e-05
-2.89086e-05
-9.20406e-06
1.85542e-05
2.15129e-06
-4.2904e-05
3.10745e-05
-9.53814e-05
6.61706e-05
-0.000116023
9.87869e-05
-0.00011232
0.000125299
-9.642e-05
0.000145285
-7.65242e-05
0.000159502
-5.64646e-05
-3.79214e-05
-1.14373e-05
2.99915e-05
6.6993e-06
-6.10406e-05
4.33256e-05
-0.000132008
8.38678e-05
-0.000156565
0.000119305
-0.000147757
0.000146471
-0.000123586
0.000165854
-9.59075e-05
0.000179153
-6.97637e-05
-4.60623e-05
1.32459e-05
1.67456e-05
4.52922e-05
-9.30869e-05
8.64821e-05
-0.000173198
0.000125506
-0.000195589
0.000156663
-0.000178914
0.000178893
-0.000145817
0.000193826
-0.000110841
0.000203759
-7.96962e-05
-5.19561e-05
7.6543e-05
0.000136225
0.00017621
0.00020174
0.000216472
0.000224687
0.00022941
0.000232583
)
;

boundaryField
{
    inlet
    {
        type            calculated;
        value           uniform -0.0002;
    }
    outlet
    {
        type            calculated;
        value           nonuniform List<scalar> 
15
(
4.88459e-05
0.000108355
0.000136749
0.000152939
0.000168515
0.000187294
0.000209653
0.000234511
0.000259318
0.000280254
0.000295744
0.000302191
0.000289089
0.000231314
9.52275e-05
)
;
    }
    fixedWalls
    {
        type            calculated;
        value           uniform 0;
    }
    frontAndBack
    {
        type            empty;
    }
}


// ************************************************************************* //
