/*--------------------------------*- C++ -*----------------------------------*\
| =========                 |                                                 |
| \\      /  F ield         | OpenFOAM Extend Project: Open source CFD        |
|  \\    /   O peration     | Version:  1.6-ext                               |
|   \\  /    A nd           | Web:      www.extend-project.de                 |
|    \\/     M anipulation  |                                                 |
\*---------------------------------------------------------------------------*/
FoamFile
{
    version     2.0;
    format      ascii;
    class       volVectorField;
    location    "1";
    object      U;
}
// * * * * * * * * * * * * * * * * * * * * * * * * * * * * * * * * * * * * * //

dimensions      [0 1 -1 0 0 0 0];

internalField   nonuniform List<vector> 
284
(
(0.163693 0.0263416 0)
(0.142914 0.02581 0)
(0.102473 0.0177691 0)
(0.0733971 0.0109508 0)
(0.0531495 0.00682762 0)
(0.0368866 0.00491434 0)
(0.0221279 0.00406836 0)
(0.00782861 0.0028429 0)
(0.00039548 -0.000232685 0)
(0.200416 0.042629 0)
(0.202716 0.0549333 0)
(0.18138 0.0486405 0)
(0.151591 0.0388987 0)
(0.121113 0.0315127 0)
(0.0905624 0.0277816 0)
(0.059171 0.0260347 0)
(0.0267933 0.0219384 0)
(0.00527179 0.00865551 0)
(0.202888 0.0283253 0)
(0.210452 0.057482 0)
(0.20145 0.0672428 0)
(0.179146 0.0671247 0)
(0.1501 0.0646465 0)
(0.11672 0.0636996 0)
(0.0793683 0.0636363 0)
(0.0382618 0.0573464 0)
(0.00853591 0.0292345 0)
(0.201291 0.0221047 0)
(0.206546 0.0581422 0)
(0.20182 0.0801171 0)
(0.185169 0.0901827 0)
(0.160397 0.0948811 0)
(0.12913 0.099384 0)
(0.0912852 0.103718 0)
(0.0462763 0.0976141 0)
(0.0112268 0.0543465 0)
(0.200299 0.0190557 0)
(0.203173 0.0588402 0)
(0.199883 0.0895468 0)
(0.18737 0.108569 0)
(0.167379 0.121062 0)
(0.140107 0.132784 0)
(0.104171 0.144247 0)
(0.056844 0.141854 0)
(0.0156664 0.0850399 0)
(0.199927 0.0175383 0)
(0.202107 0.059383 0)
(0.200641 0.096117 0)
(0.19246 0.12243 0)
(0.17807 0.142462 0)
(0.156448 0.162582 0)
(0.124582 0.184487 0)
(0.0760751 0.192143 0)
(0.025067 0.125809 0)
(0.199868 0.0163052 0)
(0.202783 0.0586004 0)
(0.204464 0.0989771 0)
(0.201873 0.130716 0)
(0.194845 0.157332 0)
(0.181945 0.185864 0)
(0.159509 0.219812 0)
(0.113437 0.241075 0)
(0.0454832 0.190709 0)
(0.199948 0.0145866 0)
(0.204472 0.0552391 0)
(0.210501 0.0967416 0)
(0.214952 0.131655 0)
(0.217304 0.16313 0)
(0.216523 0.199409 0)
(0.20555 0.253659 0)
(0.187718 0.322095 0)
(0.0596514 0.279795 0)
(0.200094 0.0119766 0)
(0.206659 0.0484787 0)
(0.217656 0.0883107 0)
(0.230153 0.123426 0)
(0.243947 0.15566 0)
(0.263852 0.191988 0)
(0.284728 0.244574 0)
(0.350108 0.314595 0)
(0.39935 0.407699 0)
(0.200321 0.00826795 0)
(0.209121 0.0381004 0)
(0.224784 0.073647 0)
(0.24412 0.106096 0)
(0.266803 0.134764 0)
(0.297907 0.163752 0)
(0.332991 0.199087 0)
(0.399863 0.220369 0)
(0.481777 0.295793 0)
(0.20079 0.00328072 0)
(0.212258 0.0242857 0)
(0.231744 0.0538693 0)
(0.255448 0.0821698 0)
(0.282948 0.105921 0)
(0.316445 0.126646 0)
(0.356378 0.148014 0)
(0.40747 0.145398 0)
(0.4816 0.1869 0)
(0.201736 -0.00410572 0)
(0.216798 0.0069316 0)
(0.238967 0.0305718 0)
(0.264324 0.0549123 0)
(0.293083 0.074595 0)
(0.325648 0.0894299 0)
(0.364917 0.102347 0)
(0.406213 0.096464 0)
(0.460345 0.111882 0)
(0.203337 -0.0148971 0)
(0.222043 -0.0122596 0)
(0.243137 0.00722174 0)
(0.265925 0.0281342 0)
(0.292259 0.0443027 0)
(0.322085 0.0549984 0)
(0.357321 0.0624269 0)
(0.392574 0.0582752 0)
(0.432114 0.0603514 0)
(0.200961 -0.0357886 0)
(0.214941 -0.0331904 0)
(0.223174 -0.0138396 0)
(0.235367 0.00414425 0)
(0.254513 0.0166564 0)
(0.278822 0.0237236 0)
(0.307521 0.0273659 0)
(0.336053 0.0250889 0)
(0.365143 0.0234952 0)
(0.164014 -0.0251064 0)
(0.150995 -0.0214592 0)
(0.128093 -0.0105372 0)
(0.121715 -0.00231039 0)
(0.127564 0.00259328 0)
(0.139451 0.00483912 0)
(0.154584 0.0055823 0)
(0.16965 0.00466467 0)
(0.183824 0.00358083 0)
(0.382379 0.154776 0)
(0.235892 0.0277938 0)
(0.546744 0.136147 0)
(0.521495 0.0265862 0)
(0.556167 0.118407 0)
(0.576843 0.0335815 0)
(0.519212 0.0767654 0)
(0.548906 0.0187983 0)
(0.473781 0.0404294 0)
(0.498908 0.00617233 0)
(0.39216 0.0132934 0)
(0.406684 -0.00311465 0)
(0.194704 0.00036547 0)
(0.197094 -0.00378938 0)
(0.280762 -0.0926088 0)
(0.318215 -0.178308 0)
(0.325469 -0.224092 0)
(0.31289 -0.223381 0)
(0.296203 -0.192731 0)
(0.281796 -0.152411 0)
(0.271007 -0.114206 0)
(0.264258 -0.0821696 0)
(0.259118 -0.0536264 0)
(0.515629 -0.0793873 0)
(0.4928 -0.160542 0)
(0.447728 -0.195515 0)
(0.398429 -0.189181 0)
(0.357603 -0.161648 0)
(0.327316 -0.128887 0)
(0.305789 -0.0982732 0)
(0.291867 -0.0723128 0)
(0.280764 -0.04815 0)
(0.569169 -0.0543836 0)
(0.534174 -0.117795 0)
(0.482449 -0.143649 0)
(0.430512 -0.140335 0)
(0.387342 -0.122295 0)
(0.354037 -0.0997301 0)
(0.328973 -0.0776414 0)
(0.311648 -0.0583466 0)
(0.296755 -0.0396893 0)
(0.548379 -0.0403691 0)
(0.522052 -0.0819318 0)
(0.480683 -0.0990871 0)
(0.436499 -0.0972119 0)
(0.39704 -0.0853646 0)
(0.364633 -0.070246 0)
(0.338951 -0.0552603 0)
(0.320345 -0.0421059 0)
(0.30354 -0.0293306 0)
(0.500282 -0.0283081 0)
(0.480469 -0.0519114 0)
(0.447899 -0.0611379 0)
(0.411507 -0.0591751 0)
(0.377415 -0.0514378 0)
(0.348318 -0.0420288 0)
(0.324616 -0.03301 0)
(0.306947 -0.0252874 0)
(0.2906 -0.0182511 0)
(0.403641 -0.0185077 0)
(0.38519 -0.0275355 0)
(0.357716 -0.0294311 0)
(0.328067 -0.0265016 0)
(0.300814 -0.0216754 0)
(0.277867 -0.0168752 0)
(0.259416 -0.0128775 0)
(0.245537 -0.00982306 0)
(0.232771 -0.00783736 0)
(0.189358 -0.00676781 0)
(0.174418 -0.00766296 0)
(0.156835 -0.00682221 0)
(0.14033 -0.00521443 0)
(0.126697 -0.00365283 0)
(0.11615 -0.00248853 0)
(0.108179 -0.00175871 0)
(0.102146 -0.00139781 0)
(0.0964053 -0.00155279 0)
(-0.00242763 0.00202082 0)
(-0.00326937 7.48749e-05 0)
(0.00205203 -0.00176013 0)
(0.0103691 -0.00271385 0)
(0.0196175 -0.00292929 0)
(0.0284617 -0.00269836 0)
(0.0360906 -0.00225282 0)
(0.042257 -0.00179495 0)
(0.0477369 -0.00164042 0)
(-0.00215623 0.00371098 0)
(0.000883025 -0.00493442 0)
(0.0144574 -0.0123728 0)
(0.0323998 -0.0158734 0)
(0.0515082 -0.0162493 0)
(0.0694114 -0.0147182 0)
(0.0847005 -0.0121966 0)
(0.0967739 -0.00935743 0)
(0.106879 -0.00716036 0)
(-0.00283562 0.00380429 0)
(0.000869048 -0.0153325 0)
(0.0184225 -0.0313564 0)
(0.0416833 -0.0384869 0)
(0.0662363 -0.0386702 0)
(0.0888794 -0.0346859 0)
(0.107941 -0.0285782 0)
(0.122768 -0.0216578 0)
(0.135104 -0.0154071 0)
(-0.00529649 0.00585775 0)
(-0.0038558 -0.0258959 0)
(0.0164631 -0.0531419 0)
(0.0445771 -0.0649497 0)
(0.0739386 -0.064605 0)
(0.100228 -0.0572815 0)
(0.121667 -0.0467431 0)
(0.137903 -0.0351374 0)
(0.151204 -0.024317 0)
(-0.00845138 0.0138401 0)
(-0.00973608 -0.0362135 0)
(0.0147277 -0.0791017 0)
(0.0489069 -0.0967996 0)
(0.0836477 -0.094917 0)
(0.113431 -0.0826247 0)
(0.136564 -0.0663511 0)
(0.153389 -0.0493294 0)
(0.166755 -0.0334715 0)
(-0.0115027 0.0218332 0)
(-0.0100664 -0.0508718 0)
(0.0243955 -0.112655 0)
(0.0645802 -0.135743 0)
(0.103083 -0.129958 0)
(0.134468 -0.110259 0)
(0.157499 -0.0866239 0)
(0.173457 -0.0634962 0)
(0.185609 -0.0423063 0)
(0.00454544 0.043296 0)
(0.0241013 -0.0683971 0)
(0.0685171 -0.152858 0)
(0.108232 -0.178994 0)
(0.142486 -0.166268 0)
(0.168971 -0.13703 0)
(0.18731 -0.105093 0)
(0.199436 -0.0759108 0)
(0.208221 -0.0497631 0)
(0.0595947 -0.0176817 0)
(0.105491 -0.128056 0)
(0.162289 -0.201349 0)
(0.192299 -0.216744 0)
(0.209544 -0.193255 0)
(0.220449 -0.154952 0)
(0.226894 -0.116548 0)
(0.230941 -0.0834062 0)
(0.233584 -0.0541604 0)
)
;

boundaryField
{
    inlet
    {
        type            fixedValue;
        value           uniform (0.2 0 0);
    }
    outlet
    {
        type            zeroGradient;
    }
    fixedWalls
    {
        type            fixedValue;
        value           uniform (0 0 0);
    }
    frontAndBack
    {
        type            empty;
    }
}


// ************************************************************************* //
