/*--------------------------------*- C++ -*----------------------------------*\
| =========                 |                                                 |
| \\      /  F ield         | OpenFOAM Extend Project: Open source CFD        |
|  \\    /   O peration     | Version:  1.6-ext                               |
|   \\  /    A nd           | Web:      www.extend-project.de                 |
|    \\/     M anipulation  |                                                 |
\*---------------------------------------------------------------------------*/
FoamFile
{
    version     2.0;
    format      ascii;
    class       vectorField;
    location    "0.15";
    object      accumulatedFluidInterfaceDisplacement;
}
// * * * * * * * * * * * * * * * * * * * * * * * * * * * * * * * * * * * * * //


338
(
(1.72902e-06 1.09426e-07 2.95556e-27)
(1.99961e-06 4.25443e-07 -7.86643e-27)
(4.17348e-06 -2.3637e-05 -6.24956e-27)
(3.99227e-06 -2.31038e-05 1.08459e-27)
(3.98962e-06 -2.23863e-05 9.9824e-27)
(3.98827e-06 -2.16683e-05 1.56796e-27)
(3.98814e-06 -2.09514e-05 -4.75244e-27)
(3.98898e-06 -2.02369e-05 -2.3257e-27)
(3.99043e-06 -1.95254e-05 4.3606e-27)
(3.9923e-06 -1.88171e-05 -2.19563e-28)
(3.9945e-06 -1.81122e-05 -2.88966e-27)
(3.99703e-06 -1.74106e-05 1.77279e-27)
(3.99996e-06 -1.67125e-05 1.27364e-27)
(4.00342e-06 -1.60179e-05 3.9132e-28)
(4.00756e-06 -1.5327e-05 8.03357e-28)
(4.01254e-06 -1.464e-05 -1.44005e-27)
(4.01852e-06 -1.39574e-05 7.70542e-28)
(4.02564e-06 -1.32798e-05 -6.10333e-28)
(4.034e-06 -1.26076e-05 -2.50025e-27)
(4.0437e-06 -1.19417e-05 3.31213e-27)
(4.05477e-06 -1.1283e-05 2.56551e-27)
(4.06721e-06 -1.06322e-05 1.11886e-27)
(4.08097e-06 -9.99055e-06 8.9114e-28)
(4.09595e-06 -9.35894e-06 -3.02511e-27)
(4.11202e-06 -8.73851e-06 3.94245e-27)
(4.12898e-06 -8.13036e-06 5.37806e-27)
(4.14661e-06 -7.53564e-06 -1.23709e-27)
(4.16462e-06 -6.95545e-06 -3.93424e-27)
(4.18271e-06 -6.39089e-06 -1.03548e-26)
(4.20053e-06 -5.84305e-06 -8.7576e-28)
(4.21771e-06 -5.31293e-06 7.44612e-27)
(4.23383e-06 -4.80153e-06 2.74254e-27)
(4.24847e-06 -4.30976e-06 -2.19419e-27)
(4.26119e-06 -3.83846e-06 -1.95344e-27)
(4.27153e-06 -3.38842e-06 -2.03991e-27)
(4.27901e-06 -2.96034e-06 -2.21967e-28)
(4.28316e-06 -2.55482e-06 4.84068e-27)
(4.28348e-06 -2.1724e-06 2.76717e-27)
(4.27949e-06 -1.81349e-06 2.32311e-27)
(4.27069e-06 -1.47844e-06 1.68868e-27)
(4.2566e-06 -1.16747e-06 -9.34554e-27)
(4.23674e-06 -8.80688e-07 -2.3405e-27)
(4.21064e-06 -6.1811e-07 9.14155e-27)
(4.17785e-06 -3.79625e-07 -7.85203e-27)
(4.13794e-06 -1.65011e-07 -1.78628e-27)
(4.09051e-06 2.60636e-08 -1.23247e-27)
(4.03519e-06 1.94043e-07 -4.40667e-27)
(3.97164e-06 3.39473e-07 9.8885e-27)
(3.89958e-06 4.62998e-07 5.41923e-27)
(3.81878e-06 5.65352e-07 6.52006e-31)
(3.72906e-06 6.47347e-07 -2.5991e-28)
(3.63029e-06 7.09867e-07 -1.43525e-27)
(3.52243e-06 7.53855e-07 -1.23648e-26)
(3.40551e-06 7.80311e-07 4.81394e-27)
(3.27962e-06 7.90279e-07 9.62418e-27)
(3.14498e-06 7.84852e-07 2.90783e-27)
(3.00186e-06 7.65171e-07 1.21957e-26)
(2.85068e-06 7.32436e-07 2.81671e-28)
(2.69193e-06 6.87929e-07 -1.35101e-26)
(2.52619e-06 6.33039e-07 -6.49902e-27)
(2.35411e-06 5.69332e-07 1.04847e-26)
(2.17636e-06 4.98569e-07 -1.62125e-27)
(5.41733e-06 -2.37838e-05 -2.14456e-27)
(4.70789e-06 -2.38026e-05 2.37995e-28)
(6.66172e-06 -2.35679e-05 4.37983e-28)
(6.12771e-06 -2.37634e-05 -3.43362e-27)
(1.91436e-06 1.78125e-07 4.35398e-26)
(2.10887e-06 2.47022e-07 -7.91438e-28)
(2.30522e-06 3.12083e-07 -1.12558e-26)
(2.50221e-06 3.71506e-07 1.73106e-26)
(2.69876e-06 4.23541e-07 -2.95382e-27)
(2.89391e-06 4.66461e-07 -2.51873e-26)
(3.08683e-06 4.986e-07 -1.82232e-26)
(3.2768e-06 5.18358e-07 1.18887e-26)
(3.46324e-06 5.24209e-07 1.25194e-26)
(3.64566e-06 5.1471e-07 -3.75734e-27)
(3.82366e-06 4.88503e-07 3.59016e-27)
(3.99693e-06 4.44317e-07 -9.1952e-27)
(4.16518e-06 3.80977e-07 -7.41314e-27)
(4.3282e-06 2.97402e-07 1.35546e-26)
(4.48581e-06 1.92612e-07 4.9291e-27)
(4.63787e-06 6.57327e-08 -1.03908e-27)
(4.78425e-06 -8.40007e-08 4.49092e-28)
(4.92486e-06 -2.57238e-07 -4.88746e-27)
(5.05963e-06 -4.54509e-07 -2.41087e-27)
(5.18851e-06 -6.76226e-07 3.60681e-27)
(5.31148e-06 -9.22673e-07 4.19686e-27)
(5.42851e-06 -1.19402e-06 -7.62464e-27)
(5.53965e-06 -1.49029e-06 9.17304e-28)
(5.6449e-06 -1.81143e-06 1.07306e-26)
(5.74434e-06 -2.15723e-06 -1.09494e-27)
(5.83804e-06 -2.5274e-06 -1.75342e-27)
(5.92609e-06 -2.92151e-06 5.22496e-27)
(6.00861e-06 -3.33906e-06 -5.09543e-27)
(6.08571e-06 -3.77944e-06 -4.66729e-27)
(6.15754e-06 -4.24195e-06 2.42996e-27)
(6.22424e-06 -4.72581e-06 -8.53857e-28)
(6.28599e-06 -5.23016e-06 2.24396e-27)
(6.34294e-06 -5.75407e-06 4.50832e-27)
(6.39529e-06 -6.29653e-06 -3.27832e-27)
(6.44323e-06 -6.85649e-06 -5.34317e-27)
(6.48696e-06 -7.43286e-06 -3.65497e-27)
(6.52668e-06 -8.02449e-06 1.67321e-28)
(6.56263e-06 -8.63023e-06 1.83031e-27)
(6.59503e-06 -9.2489e-06 -4.60675e-27)
(6.62414e-06 -9.87936e-06 4.69473e-28)
(6.65021e-06 -1.05204e-05 3.0816e-27)
(6.67351e-06 -1.11711e-05 -2.81499e-27)
(6.6943e-06 -1.18302e-05 -1.34068e-27)
(6.71286e-06 -1.24968e-05 8.99302e-28)
(6.72948e-06 -1.317e-05 -3.90887e-27)
(6.74442e-06 -1.38491e-05 3.70573e-27)
(6.75794e-06 -1.45333e-05 2.82999e-27)
(6.77028e-06 -1.5222e-05 -2.26364e-27)
(6.78166e-06 -1.59148e-05 6.48973e-27)
(6.79224e-06 -1.66114e-05 6.06985e-27)
(6.80216e-06 -1.73116e-05 1.57146e-27)
(6.81144e-06 -1.80151e-05 -2.27928e-27)
(6.82006e-06 -1.87221e-05 -5.90516e-27)
(6.82786e-06 -1.94323e-05 -4.15797e-27)
(6.83458e-06 -2.01458e-05 -2.363e-27)
(6.8398e-06 -2.08623e-05 -1.91646e-27)
(6.8431e-06 -2.15815e-05 2.84257e-28)
(6.84376e-06 -2.23025e-05 3.67214e-27)
(6.84162e-06 -2.30234e-05 3.99984e-27)
(1.55656e-07 -7.17137e-08 -2.66897e-26)
(1.59103e-07 -9.71422e-08 -6.56533e-26)
(1.69612e-07 -1.4345e-07 1.1736e-26)
(1.87969e-07 -1.8053e-07 5.37461e-26)
(2.1444e-07 -2.09532e-07 -1.32903e-26)
(2.47842e-07 -2.32251e-07 -1.09352e-26)
(2.86886e-07 -2.49704e-07 -4.27363e-27)
(3.30797e-07 -2.62623e-07 1.19684e-26)
(3.79116e-07 -2.71368e-07 -1.98168e-26)
(4.31684e-07 -2.76073e-07 -6.45291e-27)
(4.88547e-07 -2.76695e-07 4.19012e-26)
(5.49933e-07 -2.73075e-07 1.97891e-27)
(6.16222e-07 -2.64981e-07 -5.53055e-27)
(6.87939e-07 -2.52146e-07 -3.08974e-27)
(7.65751e-07 -2.34297e-07 -2.00268e-26)
(8.50465e-07 -2.11184e-07 1.16903e-26)
(9.43016e-07 -1.82591e-07 8.17304e-27)
(1.04446e-06 -1.48351e-07 1.70124e-26)
(1.15594e-06 -1.08352e-07 5.18703e-27)
(1.27865e-06 -6.25556e-08 -2.33253e-26)
(1.41379e-06 -1.1015e-08 -8.94305e-27)
(1.56251e-06 4.60551e-08 -2.85388e-26)
(5.08739e-08 3.27252e-08 1.42185e-26)
(1.83382e-06 3.56272e-07 7.641e-27)
(1.6792e-06 2.92964e-07 -7.56585e-28)
(1.53259e-06 2.35576e-07 -2.60097e-26)
(1.39375e-06 1.84997e-07 6.29871e-27)
(1.26238e-06 1.41705e-07 1.62286e-26)
(1.13815e-06 1.0582e-07 6.49169e-27)
(1.02075e-06 7.71656e-08 6.27984e-27)
(9.09945e-07 5.53439e-08 -1.96462e-26)
(8.05532e-07 3.97932e-08 -5.1418e-27)
(7.07385e-07 2.98394e-08 1.10218e-26)
(6.15431e-07 2.47339e-08 -2.13397e-26)
(5.29651e-07 2.36764e-08 -7.6525e-28)
(4.50067e-07 2.58286e-08 3.00011e-26)
(3.76745e-07 3.03142e-08 3.82734e-26)
(3.09801e-07 3.6216e-08 1.31062e-26)
(2.49419e-07 4.25503e-08 -4.37766e-26)
(1.95898e-07 4.82653e-08 -2.67017e-26)
(1.49653e-07 5.21469e-08 3.06648e-26)
(1.11359e-07 5.29302e-08 -1.84203e-26)
(8.14998e-08 4.89072e-08 -1.78924e-26)
(5.97802e-08 3.90697e-08 4.21201e-26)
(1.72902e-06 1.09426e-07 2.95556e-27)
(1.99961e-06 4.25443e-07 -7.86643e-27)
(4.17348e-06 -2.3637e-05 -6.24956e-27)
(3.99227e-06 -2.31038e-05 1.08459e-27)
(3.98962e-06 -2.23863e-05 9.9824e-27)
(3.98827e-06 -2.16683e-05 1.56796e-27)
(3.98814e-06 -2.09514e-05 -4.75244e-27)
(3.98898e-06 -2.02369e-05 -2.3257e-27)
(3.99043e-06 -1.95254e-05 4.3606e-27)
(3.9923e-06 -1.88171e-05 -2.19563e-28)
(3.9945e-06 -1.81122e-05 -2.88966e-27)
(3.99703e-06 -1.74106e-05 1.77279e-27)
(3.99996e-06 -1.67125e-05 1.27364e-27)
(4.00342e-06 -1.60179e-05 3.9132e-28)
(4.00756e-06 -1.5327e-05 8.03357e-28)
(4.01254e-06 -1.464e-05 -1.44005e-27)
(4.01852e-06 -1.39574e-05 7.70542e-28)
(4.02564e-06 -1.32798e-05 -6.10333e-28)
(4.034e-06 -1.26076e-05 -2.50025e-27)
(4.0437e-06 -1.19417e-05 3.31213e-27)
(4.05477e-06 -1.1283e-05 2.56551e-27)
(4.06721e-06 -1.06322e-05 1.11886e-27)
(4.08097e-06 -9.99055e-06 8.9114e-28)
(4.09595e-06 -9.35894e-06 -3.02511e-27)
(4.11202e-06 -8.73851e-06 3.94245e-27)
(4.12898e-06 -8.13036e-06 5.37806e-27)
(4.14661e-06 -7.53564e-06 -1.23709e-27)
(4.16462e-06 -6.95545e-06 -3.93424e-27)
(4.18271e-06 -6.39089e-06 -1.03548e-26)
(4.20053e-06 -5.84305e-06 -8.7576e-28)
(4.21771e-06 -5.31293e-06 7.44612e-27)
(4.23383e-06 -4.80153e-06 2.74254e-27)
(4.24847e-06 -4.30976e-06 -2.19419e-27)
(4.26119e-06 -3.83846e-06 -1.95344e-27)
(4.27153e-06 -3.38842e-06 -2.03991e-27)
(4.27901e-06 -2.96034e-06 -2.21967e-28)
(4.28316e-06 -2.55482e-06 4.84068e-27)
(4.28348e-06 -2.1724e-06 2.76717e-27)
(4.27949e-06 -1.81349e-06 2.32311e-27)
(4.27069e-06 -1.47844e-06 1.68868e-27)
(4.2566e-06 -1.16747e-06 -9.34554e-27)
(4.23674e-06 -8.80688e-07 -2.3405e-27)
(4.21064e-06 -6.1811e-07 9.14155e-27)
(4.17785e-06 -3.79625e-07 -7.85203e-27)
(4.13794e-06 -1.65011e-07 -1.78628e-27)
(4.09051e-06 2.60636e-08 -1.23247e-27)
(4.03519e-06 1.94043e-07 -4.40667e-27)
(3.97164e-06 3.39473e-07 9.8885e-27)
(3.89958e-06 4.62998e-07 5.41923e-27)
(3.81878e-06 5.65352e-07 6.52006e-31)
(3.72906e-06 6.47347e-07 -2.5991e-28)
(3.63029e-06 7.09867e-07 -1.43525e-27)
(3.52243e-06 7.53855e-07 -1.23648e-26)
(3.40551e-06 7.80311e-07 4.81394e-27)
(3.27962e-06 7.90279e-07 9.62418e-27)
(3.14498e-06 7.84852e-07 2.90783e-27)
(3.00186e-06 7.65171e-07 1.21957e-26)
(2.85068e-06 7.32436e-07 2.81671e-28)
(2.69193e-06 6.87929e-07 -1.35101e-26)
(2.52619e-06 6.33039e-07 -6.49902e-27)
(2.35411e-06 5.69332e-07 1.04847e-26)
(2.17636e-06 4.98569e-07 -1.62125e-27)
(5.41733e-06 -2.37838e-05 -2.14456e-27)
(4.70789e-06 -2.38026e-05 2.37995e-28)
(6.66172e-06 -2.35679e-05 4.37983e-28)
(6.12771e-06 -2.37634e-05 -3.43362e-27)
(1.91436e-06 1.78125e-07 4.35398e-26)
(2.10887e-06 2.47022e-07 -7.91438e-28)
(2.30522e-06 3.12083e-07 -1.12558e-26)
(2.50221e-06 3.71506e-07 1.73106e-26)
(2.69876e-06 4.23541e-07 -2.95382e-27)
(2.89391e-06 4.66461e-07 -2.51873e-26)
(3.08683e-06 4.986e-07 -1.82232e-26)
(3.2768e-06 5.18358e-07 1.18887e-26)
(3.46324e-06 5.24209e-07 1.25194e-26)
(3.64566e-06 5.1471e-07 -3.75734e-27)
(3.82366e-06 4.88503e-07 3.59016e-27)
(3.99693e-06 4.44317e-07 -9.1952e-27)
(4.16518e-06 3.80977e-07 -7.41314e-27)
(4.3282e-06 2.97402e-07 1.35546e-26)
(4.48581e-06 1.92612e-07 4.9291e-27)
(4.63787e-06 6.57327e-08 -1.03908e-27)
(4.78425e-06 -8.40007e-08 4.49092e-28)
(4.92486e-06 -2.57238e-07 -4.88746e-27)
(5.05963e-06 -4.54509e-07 -2.41087e-27)
(5.18851e-06 -6.76226e-07 3.60681e-27)
(5.31148e-06 -9.22673e-07 4.19686e-27)
(5.42851e-06 -1.19402e-06 -7.62464e-27)
(5.53965e-06 -1.49029e-06 9.17304e-28)
(5.6449e-06 -1.81143e-06 1.07306e-26)
(5.74434e-06 -2.15723e-06 -1.09494e-27)
(5.83804e-06 -2.5274e-06 -1.75342e-27)
(5.92609e-06 -2.92151e-06 5.22496e-27)
(6.00861e-06 -3.33906e-06 -5.09543e-27)
(6.08571e-06 -3.77944e-06 -4.66729e-27)
(6.15754e-06 -4.24195e-06 2.42996e-27)
(6.22424e-06 -4.72581e-06 -8.53857e-28)
(6.28599e-06 -5.23016e-06 2.24396e-27)
(6.34294e-06 -5.75407e-06 4.50832e-27)
(6.39529e-06 -6.29653e-06 -3.27832e-27)
(6.44323e-06 -6.85649e-06 -5.34317e-27)
(6.48696e-06 -7.43286e-06 -3.65497e-27)
(6.52668e-06 -8.02449e-06 1.67321e-28)
(6.56263e-06 -8.63023e-06 1.83031e-27)
(6.59503e-06 -9.2489e-06 -4.60675e-27)
(6.62414e-06 -9.87936e-06 4.69473e-28)
(6.65021e-06 -1.05204e-05 3.0816e-27)
(6.67351e-06 -1.11711e-05 -2.81499e-27)
(6.6943e-06 -1.18302e-05 -1.34068e-27)
(6.71286e-06 -1.24968e-05 8.99302e-28)
(6.72948e-06 -1.317e-05 -3.90887e-27)
(6.74442e-06 -1.38491e-05 3.70573e-27)
(6.75794e-06 -1.45333e-05 2.82999e-27)
(6.77028e-06 -1.5222e-05 -2.26364e-27)
(6.78166e-06 -1.59148e-05 6.48973e-27)
(6.79224e-06 -1.66114e-05 6.06985e-27)
(6.80216e-06 -1.73116e-05 1.57146e-27)
(6.81144e-06 -1.80151e-05 -2.27928e-27)
(6.82006e-06 -1.87221e-05 -5.90516e-27)
(6.82786e-06 -1.94323e-05 -4.15797e-27)
(6.83458e-06 -2.01458e-05 -2.363e-27)
(6.8398e-06 -2.08623e-05 -1.91646e-27)
(6.8431e-06 -2.15815e-05 2.84257e-28)
(6.84376e-06 -2.23025e-05 3.67214e-27)
(6.84162e-06 -2.30234e-05 3.99984e-27)
(1.55656e-07 -7.17137e-08 -2.66897e-26)
(1.59103e-07 -9.71422e-08 -6.56533e-26)
(1.69612e-07 -1.4345e-07 1.1736e-26)
(1.87969e-07 -1.8053e-07 5.37461e-26)
(2.1444e-07 -2.09532e-07 -1.32903e-26)
(2.47842e-07 -2.32251e-07 -1.09352e-26)
(2.86886e-07 -2.49704e-07 -4.27363e-27)
(3.30797e-07 -2.62623e-07 1.19684e-26)
(3.79116e-07 -2.71368e-07 -1.98168e-26)
(4.31684e-07 -2.76073e-07 -6.45291e-27)
(4.88547e-07 -2.76695e-07 4.19012e-26)
(5.49933e-07 -2.73075e-07 1.97891e-27)
(6.16222e-07 -2.64981e-07 -5.53055e-27)
(6.87939e-07 -2.52146e-07 -3.08974e-27)
(7.65751e-07 -2.34297e-07 -2.00268e-26)
(8.50465e-07 -2.11184e-07 1.16903e-26)
(9.43016e-07 -1.82591e-07 8.17304e-27)
(1.04446e-06 -1.48351e-07 1.70124e-26)
(1.15594e-06 -1.08352e-07 5.18703e-27)
(1.27865e-06 -6.25556e-08 -2.33253e-26)
(1.41379e-06 -1.1015e-08 -8.94305e-27)
(1.56251e-06 4.60551e-08 -2.85388e-26)
(5.08739e-08 3.27252e-08 1.42185e-26)
(1.83382e-06 3.56272e-07 7.641e-27)
(1.6792e-06 2.92964e-07 -7.56585e-28)
(1.53259e-06 2.35576e-07 -2.60097e-26)
(1.39375e-06 1.84997e-07 6.29871e-27)
(1.26238e-06 1.41705e-07 1.62286e-26)
(1.13815e-06 1.0582e-07 6.49169e-27)
(1.02075e-06 7.71656e-08 6.27984e-27)
(9.09945e-07 5.53439e-08 -1.96462e-26)
(8.05532e-07 3.97932e-08 -5.1418e-27)
(7.07385e-07 2.98394e-08 1.10218e-26)
(6.15431e-07 2.47339e-08 -2.13397e-26)
(5.29651e-07 2.36764e-08 -7.6525e-28)
(4.50067e-07 2.58286e-08 3.00011e-26)
(3.76745e-07 3.03142e-08 3.82734e-26)
(3.09801e-07 3.6216e-08 1.31062e-26)
(2.49419e-07 4.25503e-08 -4.37766e-26)
(1.95898e-07 4.82653e-08 -2.67017e-26)
(1.49653e-07 5.21469e-08 3.06648e-26)
(1.11359e-07 5.29302e-08 -1.84203e-26)
(8.14998e-08 4.89072e-08 -1.78924e-26)
(5.97802e-08 3.90697e-08 4.21201e-26)
)


// ************************************************************************* //
