/*--------------------------------*- C++ -*----------------------------------*\
| =========                 |                                                 |
| \\      /  F ield         | OpenFOAM Extend Project: Open source CFD        |
|  \\    /   O peration     | Version:  1.6-ext                               |
|   \\  /    A nd           | Web:      www.extend-project.de                 |
|    \\/     M anipulation  |                                                 |
\*---------------------------------------------------------------------------*/
FoamFile
{
    version     2.0;
    format      ascii;
    class       tetPointVectorField;
    location    "0.15";
    object      motionU;
}
// * * * * * * * * * * * * * * * * * * * * * * * * * * * * * * * * * * * * * //

dimensions      [0 1 -1 0 0 0 0];

internalField   nonuniform List<vector> 
147960
(
(0 0 0)
(0.000712612 -6.70101e-05 0)
(0.00343531 0.000372204 9.89191e-24)
(0.00358686 0.00160526 -7.43485e-24)
(0.0249513 -0.00950946 6.23186e-24)
(0.0248727 -0.00923591 2.83677e-24)
(0.0248661 -0.00887745 4.04165e-24)
(0.0248424 -0.00851322 2.47107e-24)
(0.0248028 -0.00814759 2.57873e-24)
(0.0247467 -0.00778222 3.90822e-24)
(0.0246739 -0.00741839 5.42367e-25)
(0.0245842 -0.00705685 1.78697e-25)
(0.0244774 -0.00669817 9.20497e-25)
(0.0243532 -0.00634275 8.18976e-25)
(0.0242116 -0.0059909 1.07842e-24)
(0.0240524 -0.00564293 -2.66936e-25)
(0.0238757 -0.00529913 1.84919e-24)
(0.0236813 -0.00495979 3.57402e-24)
(0.0234692 -0.0046252 -8.76756e-26)
(0.0232395 -0.00429568 -6.73227e-25)
(0.0229921 -0.0039715 2.97223e-24)
(0.0227272 -0.00365298 1.16284e-24)
(0.0224449 -0.00334037 -2.41839e-24)
(0.0221453 -0.00303397 9.695e-25)
(0.0218287 -0.00273402 -1.441e-25)
(0.0214954 -0.00244079 -1.71525e-24)
(0.0211458 -0.00215455 -1.22098e-24)
(0.0207803 -0.00187558 -1.50178e-24)
(0.0203994 -0.00160418 -5.09618e-24)
(0.0200038 -0.00134068 -1.12586e-24)
(0.0195942 -0.00108542 3.40974e-24)
(0.0191711 -0.000838795 -1.86481e-24)
(0.0187355 -0.000601182 3.70452e-24)
(0.0182881 -0.000372982 8.3014e-25)
(0.0178298 -0.00015459 -1.97298e-24)
(0.0173614 5.36166e-05 2.73894e-24)
(0.016884 0.00025129 -2.32451e-24)
(0.0163984 0.000438125 -1.72789e-24)
(0.0159055 0.00061387 9.10829e-25)
(0.0154065 0.000778331 1.19797e-24)
(0.0149022 0.000931378 6.70569e-24)
(0.0143938 0.00107294 3.0072e-24)
(0.0138822 0.00120301 1.52952e-24)
(0.0133685 0.00132164 -3.60507e-24)
(0.0128538 0.00142891 -7.79053e-24)
(0.0123391 0.00152494 1.59509e-24)
(0.0118253 0.00160991 2.0305e-24)
(0.0113135 0.00168398 1.93558e-24)
(0.0108047 0.00174738 -2.36528e-24)
(0.0102996 0.00180032 -6.30044e-24)
(0.00979926 0.00184307 1.77269e-24)
(0.00930431 0.0018759 6.04895e-25)
(0.00881544 0.00189913 -1.35622e-24)
(0.00833327 0.00191313 2.28813e-24)
(0.0078583 0.0019183 5.39886e-24)
(0.00739096 0.00191511 -5.71226e-24)
(0.00693162 0.00190406 -4.15614e-24)
(0.00648057 0.00188571 6.91686e-24)
(0.00603807 0.00186066 2.0551e-24)
(0.00560432 0.00182954 -1.10303e-23)
(0.00517953 0.00179298 -1.11062e-24)
(0.00476391 0.00175159 8.58171e-24)
(0.00435768 0.00170592 -7.54136e-25)
(0.0039611 0.00165644 8.86178e-24)
(0.0255192 -0.00965987 -1.11173e-23)
(0.0251965 -0.009625 3.62375e-24)
(0.0260659 -0.00963507 -4.22171e-25)
(0.0258296 -0.00969065 -1.10151e-23)
(0.00382493 0.000394896 -7.49492e-25)
(0.00423742 0.000414729 2.44015e-24)
(0.00466033 0.000430913 -1.16917e-23)
(0.00509394 0.000443202 -3.32992e-24)
(0.0055384 0.000451198 2.0434e-23)
(0.00599372 0.00045442 5.66784e-24)
(0.00645975 0.000452364 6.88947e-24)
(0.00693627 0.000444539 1.69133e-24)
(0.00742292 0.000430496 -1.39147e-23)
(0.00791927 0.000409838 -4.95457e-24)
(0.00842478 0.000382231 -1.6738e-24)
(0.00893886 0.000347398 6.14637e-24)
(0.0094608 0.000305121 5.27886e-24)
(0.00998987 0.000255225 -2.38425e-24)
(0.0105253 0.000197572 -4.12746e-24)
(0.0110661 0.00013205 1.89233e-24)
(0.0116114 5.85635e-05 1.86196e-24)
(0.0121603 -2.29754e-05 -2.01851e-24)
(0.0127116 -0.00011265 2.70518e-25)
(0.0132645 -0.00021054 -4.9431e-24)
(0.0138176 -0.000316723 -3.20947e-24)
(0.01437 -0.000431266 5.61771e-24)
(0.0149204 -0.00055422 -6.96297e-25)
(0.0154677 -0.000685616 -5.44303e-24)
(0.0160106 -0.000825452 5.01922e-25)
(0.0165479 -0.000973688 -4.21345e-25)
(0.0170785 -0.00113025 -2.3874e-24)
(0.0176012 -0.001295 2.28286e-24)
(0.0181149 -0.0014678 7.57147e-25)
(0.0186184 -0.00164843 -8.46164e-25)
(0.0191109 -0.00183669 -1.10988e-24)
(0.0195912 -0.00203232 3.20706e-24)
(0.0200585 -0.00223508 6.7532e-24)
(0.0205121 -0.00244475 -3.24671e-24)
(0.0209511 -0.00266108 -4.0247e-24)
(0.0213749 -0.00288389 1.32394e-24)
(0.0217829 -0.00311301 -2.50351e-25)
(0.0221747 -0.00334828 1.43375e-24)
(0.0225496 -0.00358958 -1.16063e-24)
(0.0229074 -0.00383681 -2.3895e-25)
(0.0232475 -0.00408986 1.13084e-24)
(0.0235698 -0.00434865 -1.08039e-24)
(0.023874 -0.00461306 2.03456e-24)
(0.0241597 -0.00488296 1.2674e-24)
(0.0244269 -0.00515821 -1.17295e-24)
(0.0246754 -0.00543862 3.28591e-24)
(0.0249052 -0.00572399 -9.19957e-25)
(0.025116 -0.0060141 -3.65696e-24)
(0.0253079 -0.0063087 -2.52967e-24)
(0.0254809 -0.00660754 -1.05615e-26)
(0.0256349 -0.00691034 1.7233e-24)
(0.0257697 -0.00721678 1.29366e-24)
(0.0258854 -0.00752649 1.2588e-24)
(0.0259815 -0.00783899 -1.39636e-25)
(0.0260578 -0.00815363 -3.69064e-25)
(0.0261139 -0.00846947 6.87226e-25)
(0.0261492 -0.00878528 6.94367e-25)
(0.0261638 -0.00909913 -2.80366e-24)
(0.0261576 -0.00940998 -1.35434e-24)
(0.0239042 -0.00855204 0)
(0.0260842 -0.0094784 0)
(0.0260446 -0.00938518 0)
(0.0259891 -0.00928903 0)
(0.0259116 -0.00919924 0)
(0.0258136 -0.0091118 0)
(0.0256931 -0.00903122 0)
(0.0255528 -0.00895319 0)
(0.0253957 -0.0088861 0)
(0.0252194 -0.00881896 0)
(0.0250329 -0.00876344 0)
(0.0248327 -0.00871449 0)
(0.0246193 -0.0086606 0)
(0.0244004 -0.00862854 0)
(0.0241609 -0.0085921 0)
(0.00313961 0.000107377 0)
(0.00345134 0.000115586 0)
(0.00378184 0.000122463 0)
(0.00412918 0.000127254 0)
(0.00449217 0.000129398 0)
(0.0048713 0.000128245 0)
(0.00526337 0.000123328 0)
(0.00566799 0.000114396 0)
(0.00608487 0.000100973 0)
(0.00651287 8.24645e-05 0)
(0.00695131 5.83519e-05 0)
(0.00739979 2.82961e-05 0)
(0.00785835 -7.86381e-06 0)
(0.00832577 -5.01925e-05 0)
(0.00880065 -9.88261e-05 0)
(0.00928229 -0.000154049 0)
(0.00977013 -0.000216189 0)
(0.0102639 -0.000285473 0)
(0.0107628 -0.000362014 0)
(0.0112654 -0.000445733 0)
(0.0117714 -0.000537141 0)
(0.0122799 -0.000636493 0)
(0.012788 -0.000743302 0)
(0.0132946 -0.000857711 0)
(0.0137992 -0.000979718 0)
(0.0143009 -0.0011093 0)
(0.0147991 -0.00124645 0)
(0.015293 -0.00139114 0)
(0.0157813 -0.00154329 0)
(0.0162628 -0.00170276 0)
(0.0167365 -0.00186927 0)
(0.0172019 -0.00204264 0)
(0.017658 -0.00222279 0)
(0.0181034 -0.00240956 0)
(0.018537 -0.00260262 0)
(0.0189586 -0.00280129 0)
(0.0193683 -0.00300614 0)
(0.0197645 -0.00321715 0)
(0.0201456 -0.0034327 0)
(0.0205118 -0.00365275 0)
(0.0208622 -0.00387764 0)
(0.0211951 -0.00410818 0)
(0.021511 -0.00434529 0)
(0.0218105 -0.00458924 0)
(0.0220918 -0.00483852 0)
(0.0223532 -0.00509004 0)
(0.0225964 -0.00534146 0)
(0.022822 -0.00559361 0)
(0.0230283 -0.00584912 0)
(0.0232131 -0.00610764 0)
(0.0233799 -0.00636445 0)
(0.0235264 -0.00661507 0)
(0.0236531 -0.00685853 0)
(0.0237599 -0.0070964 0)
(0.0238435 -0.00733052 0)
(0.023908 -0.00756001 0)
(0.0239498 -0.00778195 0)
(0.0239713 -0.00799322 0)
(0.0239699 -0.00819147 0)
(0.0239487 -0.00837567 0)
(0.0227395 -0.00825859 0)
(0.0230495 -0.00830206 0)
(0.0233301 -0.00835323 0)
(0.0235824 -0.00838683 0)
(0.0238118 -0.0084422 0)
(0.0240165 -0.00851097 0)
(0.0242016 -0.00856972 0)
(0.0243657 -0.00864525 0)
(0.024509 -0.00873044 0)
(0.0246348 -0.00881344 0)
(0.0247371 -0.00891054 0)
(0.0248198 -0.00901052 0)
(0.0248804 -0.00911297 0)
(0.0249161 -0.00922122 0)
(0.0249274 -0.00932697 0)
(0.00314003 0.000839497 0)
(0.00355077 0.00159645 0)
(0.00351445 0.00158113 0)
(0.00347473 0.00155785 0)
(0.00343375 0.00152515 0)
(0.00339022 0.00148449 0)
(0.00334903 0.00143613 0)
(0.00330806 0.00138104 0)
(0.00326981 0.00132065 0)
(0.00323716 0.00125598 0)
(0.00320964 0.00118885 0)
(0.00318798 0.00112012 0)
(0.00316943 0.00104977 0)
(0.00315835 0.00097943 0)
(0.00314759 0.000909154 0)
(0.0227437 -0.0080615 0)
(0.0227271 -0.00784933 0)
(0.0226925 -0.00762196 0)
(0.0226402 -0.00738075 0)
(0.0225719 -0.00712736 0)
(0.0224837 -0.0068642 0)
(0.0223798 -0.00659441 0)
(0.0222559 -0.00631933 0)
(0.0221164 -0.00603773 0)
(0.0219607 -0.0057486 0)
(0.0217886 -0.00545288 0)
(0.0216017 -0.00515489 0)
(0.0213951 -0.00485955 0)
(0.0211726 -0.0045676 0)
(0.0209365 -0.00427671 0)
(0.020684 -0.0039861 0)
(0.0204137 -0.00369811 0)
(0.0201283 -0.00341597 0)
(0.0198295 -0.00314142 0)
(0.0195153 -0.00287449 0)
(0.019186 -0.00261449 0)
(0.0188437 -0.00236079 0)
(0.0184885 -0.0021131 0)
(0.0181203 -0.00187153 0)
(0.0177405 -0.00163807 0)
(0.0173504 -0.00141277 0)
(0.0169498 -0.00119494 0)
(0.016539 -0.000985475 0)
(0.016119 -0.000784843 0)
(0.0156911 -0.000593264 0)
(0.0152559 -0.000410838 0)
(0.014814 -0.000237821 0)
(0.0143662 -7.45692e-05 0)
(0.0139135 7.86712e-05 0)
(0.0134571 0.000221801 0)
(0.0129973 0.000354802 0)
(0.0125347 0.000477698 0)
(0.0120702 0.000590533 0)
(0.0116042 0.000693384 0)
(0.0111376 0.00078651 0)
(0.0106727 0.000869365 0)
(0.0102112 0.000942309 0)
(0.00975311 0.00100595 0)
(0.00929941 0.00106018 0)
(0.0088505 0.00110517 0)
(0.00840685 0.00114117 0)
(0.00796933 0.00116855 0)
(0.00753864 0.00118759 0)
(0.00711555 0.00119841 0)
(0.00670081 0.00120106 0)
(0.00629459 0.00119566 0)
(0.00589741 0.00118248 0)
(0.00550993 0.00116189 0)
(0.00513314 0.00113434 0)
(0.00476725 0.00110012 0)
(0.00441277 0.00105928 0)
(0.0040724 0.00101238 0)
(0.00374616 0.000959832 0)
(0.00343511 0.000901883 0)
(0.00345523 0.000974949 0)
(0.00347824 0.00104691 0)
(0.00350271 0.00111905 0)
(0.00353009 0.00119077 0)
(0.00356182 0.00125893 0)
(0.00359793 0.00132565 0)
(0.0036373 0.00138933 0)
(0.00368109 0.00144684 0)
(0.00372536 0.00149974 0)
(0.00377151 0.00154512 0)
(0.0038166 0.00158325 0)
(0.00385982 0.00161368 0)
(0.00389986 0.00163537 0)
(0.00393563 0.00164946 0)
(0.0037807 0.00103504 0)
(0.00381309 0.00110847 0)
(0.00384766 0.00118204 0)
(0.00388614 0.00125384 0)
(0.00392598 0.00132162 0)
(0.00396975 0.00138792 0)
(0.00401578 0.0014498 0)
(0.0040646 0.00150568 0)
(0.00411297 0.00155653 0)
(0.00416285 0.00159971 0)
(0.00420994 0.00163609 0)
(0.00425417 0.00166488 0)
(0.00429488 0.00168546 0)
(0.00433009 0.00169894 0)
(0.00411783 0.00108919 0)
(0.00416036 0.00116358 0)
(0.00420575 0.00123816 0)
(0.00425331 0.00130965 0)
(0.00430125 0.00137694 0)
(0.00435182 0.00144292 0)
(0.00440476 0.00150324 0)
(0.00445853 0.00155771 0)
(0.00451005 0.0016071 0)
(0.00456352 0.00164859 0)
(0.00461248 0.00168376 0)
(0.00465815 0.00171154 0)
(0.00469957 0.00173147 0)
(0.00473554 0.0017447 0)
(0.00446915 0.00113709 0)
(0.00452108 0.00121208 0)
(0.00457532 0.00128738 0)
(0.00463208 0.00135846 0)
(0.00468891 0.00142538 0)
(0.00474538 0.00149103 0)
(0.00480387 0.00154997 0)
(0.00486238 0.00160331 0)
(0.0049169 0.00165163 0)
(0.00497339 0.00169192 0)
(0.00502451 0.00172625 0)
(0.00507148 0.00175348 0)
(0.00511407 0.00177308 0)
(0.00515075 0.00178618 0)
(0.00483251 0.00117827 0)
(0.00489364 0.00125378 0)
(0.00495703 0.00132977 0)
(0.00502135 0.00140044 0)
(0.00508636 0.00146687 0)
(0.00514907 0.00153223 0)
(0.00521255 0.00159014 0)
(0.0052758 0.00164248 0)
(0.00533349 0.00169014 0)
(0.0053927 0.00172965 0)
(0.0054458 0.00176341 0)
(0.00549418 0.00179033 0)
(0.00553785 0.00180979 0)
(0.00557529 0.00182285 0)
(0.00520728 0.00121275 0)
(0.00527722 0.0012886 0)
(0.00534927 0.00136523 0)
(0.00542134 0.00143555 0)
(0.00549353 0.00150138 0)
(0.00556226 0.00156646 0)
(0.00563077 0.00162374 0)
(0.00569847 0.00167527 0)
(0.00575949 0.00172239 0)
(0.00582111 0.00176147 0)
(0.0058761 0.00179494 0)
(0.00592603 0.00182166 0)
(0.00597072 0.00184104 0)
(0.00600876 0.00185409 0)
(0.00559248 0.00124045 0)
(0.00567157 0.00131639 0)
(0.0057522 0.00139357 0)
(0.00583088 0.00146369 0)
(0.00591006 0.0015289 0)
(0.00598501 0.00159372 0)
(0.00605839 0.00165056 0)
(0.00613022 0.00170153 0)
(0.00619436 0.00174821 0)
(0.00625803 0.00178692 0)
(0.00631505 0.00182037 0)
(0.00636686 0.00184699 0)
(0.00641255 0.00186629 0)
(0.00645109 0.00187928 0)
(0.00598852 0.00126119 0)
(0.00607549 0.00133696 0)
(0.00616463 0.00141457 0)
(0.00625007 0.0014846 0)
(0.0063354 0.00154947 0)
(0.00641694 0.00161388 0)
(0.00649523 0.00167038 0)
(0.00657085 0.00172095 0)
(0.00663821 0.00176734 0)
(0.00670522 0.00180577 0)
(0.00676385 0.00183919 0)
(0.00681648 0.00186571 0)
(0.00686299 0.00188493 0)
(0.00690199 0.00189783 0)
(0.00639412 0.00127467 0)
(0.00648914 0.00135018 0)
(0.0065862 0.001428 0)
(0.00667966 0.00149807 0)
(0.00677129 0.0015628 0)
(0.00685757 0.0016268 0)
(0.00694061 0.00168287 0)
(0.00702012 0.00173314 0)
(0.00709059 0.00177936 0)
(0.00716025 0.00181755 0)
(0.00722063 0.00185083 0)
(0.00727446 0.00187724 0)
(0.00732173 0.00189635 0)
(0.00736116 0.00190912 0)
(0.00680882 0.00128052 0)
(0.00691173 0.00135585 0)
(0.00701671 0.00143374 0)
(0.00711728 0.00150383 0)
(0.0072151 0.00156838 0)
(0.00730657 0.00163217 0)
(0.00739396 0.00168776 0)
(0.00747746 0.00173768 0)
(0.007551 0.00178377 0)
(0.00762307 0.00182175 0)
(0.00768522 0.00185485 0)
(0.00774034 0.0018811 0)
(0.00778848 0.00190003 0)
(0.00782835 0.00191261 0)
(0.0072324 0.00127833 0)
(0.00734304 0.00135367 0)
(0.00745513 0.00143162 0)
(0.00756258 0.00150157 0)
(0.00766674 0.00156589 0)
(0.00776346 0.00162957 0)
(0.00785516 0.00168475 0)
(0.00794225 0.00173427 0)
(0.00801885 0.00178016 0)
(0.00809335 0.00181786 0)
(0.00815732 0.00185075 0)
(0.00821375 0.00187678 0)
(0.00826279 0.00189546 0)
(0.00830317 0.00190778 0)
(0.00766353 0.0012678 0)
(0.00778228 0.00134324 0)
(0.00790102 0.00142132 0)
(0.00801485 0.00149122 0)
(0.00812569 0.00155505 0)
(0.00822768 0.0016186 0)
(0.00832373 0.00167342 0)
(0.00841431 0.00172254 0)
(0.00849367 0.00176815 0)
(0.00857062 0.00180546 0)
(0.00863653 0.00183805 0)
(0.00869437 0.0018638 0)
(0.00874431 0.00188215 0)
(0.00878518 0.00189416 0)
(0.00810203 0.00124875 0)
(0.00822863 0.00132419 0)
(0.00835547 0.00140241 0)
(0.00847555 0.00147227 0)
(0.00859156 0.00153559 0)
(0.00869859 0.00159894 0)
(0.00879895 0.00165334 0)
(0.00889308 0.00170203 0)
(0.00897521 0.00174732 0)
(0.00905446 0.00178416 0)
(0.00912232 0.00181635 0)
(0.00918161 0.00184173 0)
(0.00923251 0.00185969 0)
(0.00927389 0.00187134 0)
(0.00854753 0.00122111 0)
(0.00868164 0.00129633 0)
(0.00881554 0.00137483 0)
(0.00894236 0.00144443 0)
(0.00906404 0.00150719 0)
(0.00917575 0.00157028 0)
(0.00928018 0.00162416 0)
(0.00937777 0.00167233 0)
(0.00946279 0.00171725 0)
(0.00954437 0.00175354 0)
(0.00961413 0.00178526 0)
(0.00967488 0.0018102 0)
(0.00972679 0.00182771 0)
(0.0097687 0.00183894 0)
(0.00899911 0.00118476 0)
(0.00914027 0.00125955 0)
(0.00928121 0.0013384 0)
(0.00941492 0.0014074 0)
(0.00954228 0.00146951 0)
(0.00965853 0.00153229 0)
(0.00976684 0.00158559 0)
(0.00986775 0.00163315 0)
(0.00995563 0.00167761 0)
(0.0100396 0.00171327 0)
(0.0101114 0.00174444 0)
(0.0101736 0.00176887 0)
(0.0102265 0.00178587 0)
(0.0102689 0.00179666 0)
(0.00945628 0.00113938 0)
(0.00960569 0.0012135 0)
(0.00975372 0.00129254 0)
(0.00989285 0.00136091 0)
(0.0100253 0.00142226 0)
(0.010146 0.00148466 0)
(0.0102582 0.00153729 0)
(0.0103624 0.00158417 0)
(0.0104531 0.0016281 0)
(0.0105395 0.00166306 0)
(0.0106133 0.0016936 0)
(0.010677 0.00171744 0)
(0.0107309 0.00173387 0)
(0.0107739 0.00174418 0)
(0.00991792 0.00108466 0)
(0.0100751 0.00115825 0)
(0.0102302 0.00123714 0)
(0.0103752 0.00130477 0)
(0.0105127 0.00136523 0)
(0.0106377 0.00142712 0)
(0.0107538 0.00147895 0)
(0.0108612 0.00152505 0)
(0.010954 0.00156842 0)
(0.011043 0.0016027 0)
(0.0111192 0.00163243 0)
(0.0111844 0.00165563 0)
(0.0112392 0.00167144 0)
(0.0112826 0.00168126 0)
(0.0103829 0.0010204 0)
(0.0105477 0.00109355 0)
(0.0107102 0.00117198 0)
(0.0108613 0.00123875 0)
(0.0110038 0.00129817 0)
(0.0111332 0.00135942 0)
(0.0112529 0.00141032 0)
(0.0113635 0.0014555 0)
(0.0114599 0.00149803 0)
(0.011551 0.0015316 0)
(0.0116284 0.00156065 0)
(0.0116948 0.00158317 0)
(0.0117505 0.00159834 0)
(0.0117943 0.00160765 0)
(0.010853 0.000946317 0)
(0.0110252 0.00101879 0)
(0.0111934 0.00109677 0)
(0.0113502 0.00116256 0)
(0.0114978 0.00122084 0)
(0.0116313 0.00128138 0)
(0.0117545 0.00133125 0)
(0.0118682 0.00137541 0)
(0.0119674 0.00141715 0)
(0.0120605 0.00144978 0)
(0.0121396 0.00147805 0)
(0.0122073 0.00149986 0)
(0.0122638 0.00151436 0)
(0.0123081 0.00152316 0)
(0.0113255 0.000862756 0)
(0.0115049 0.00093394 0)
(0.0116789 0.00101136 0)
(0.011841 0.00107604 0)
(0.0119933 0.00113307 0)
(0.0121308 0.00119283 0)
(0.0122575 0.00124156 0)
(0.0123741 0.00128461 0)
(0.0124759 0.0013255 0)
(0.0125711 0.00135708 0)
(0.0126519 0.0013845 0)
(0.012721 0.00140553 0)
(0.0127783 0.00141932 0)
(0.0128228 0.00142759 0)
(0.0118 0.000768842 0)
(0.0119856 0.000838849 0)
(0.0121654 0.000915642 0)
(0.0123327 0.000979084 0)
(0.0124893 0.00103476 0)
(0.0126308 0.00109362 0)
(0.0127608 0.0011411 0)
(0.0128804 0.00118295 0)
(0.0129847 0.0012229 0)
(0.013082 0.00125334 0)
(0.0131645 0.00127982 0)
(0.0132348 0.00130002 0)
(0.0132928 0.00131307 0)
(0.0133377 0.0013208 0)
(0.0122735 0.000664779 0)
(0.0124661 0.000733466 0)
(0.0126518 0.000809526 0)
(0.0128241 0.000871608 0)
(0.0129851 0.000925771 0)
(0.0131305 0.000983607 0)
(0.013264 0.00102972 0)
(0.0133862 0.00107029 0)
(0.0134931 0.00110923 0)
(0.0135922 0.00113843 0)
(0.0136763 0.0011639 0)
(0.0137477 0.00118321 0)
(0.0138064 0.00119548 0)
(0.0138515 0.00120264 0)
(0.0127457 0.000550546 0)
(0.0129454 0.000617752 0)
(0.013137 0.000692954 0)
(0.0133144 0.000753524 0)
(0.01348 0.000806017 0)
(0.0136293 0.000862709 0)
(0.0137659 0.000907355 0)
(0.0138907 0.00094658 0)
(0.0139999 0.000984437 0)
(0.0141009 0.00101227 0)
(0.0141864 0.00103663 0)
(0.0142588 0.00105499 0)
(0.014318 0.00106644 0)
(0.0143632 0.00107305 0)
(0.0132161 0.000426102 0)
(0.0134229 0.000491684 0)
(0.0136204 0.000565909 0)
(0.013803 0.000624823 0)
(0.013973 0.000675507 0)
(0.0141261 0.000730932 0)
(0.0142656 0.000773988 0)
(0.0143922 0.000811843 0)
(0.0145041 0.000848605 0)
(0.014607 0.000874812 0)
(0.0146937 0.000897989 0)
(0.0147669 0.000915335 0)
(0.0148266 0.000925929 0)
(0.0148719 0.000931953 0)
(0.0136839 0.000291406 0)
(0.0138977 0.000355249 0)
(0.0141012 0.000428407 0)
(0.014289 0.000485544 0)
(0.0144632 0.000534274 0)
(0.0146197 0.000588282 0)
(0.0147621 0.00062953 0)
(0.0148918 0.000665485 0)
(0.0150058 0.000701138 0)
(0.0151095 0.000725978 0)
(0.0151972 0.000747965 0)
(0.0152711 0.000764267 0)
(0.0153312 0.000773959 0)
(0.0153764 0.00077938 0)
(0.0141481 0.000146411 0)
(0.014369 0.000208402 0)
(0.0145785 0.000280421 0)
(0.0147712 0.000335677 0)
(0.0149492 0.000382337 0)
(0.0151091 0.00043482 0)
(0.0152543 0.000474159 0)
(0.0153863 0.000508333 0)
(0.0155023 0.000542571 0)
(0.0156071 0.000565872 0)
(0.0156958 0.000586614 0)
(0.0157704 0.000601838 0)
(0.0158306 0.000610603 0)
(0.0158757 0.000615396 0)
(0.0146082 -8.91176e-06 0)
(0.0148359 5.10816e-05 0)
(0.015051 0.000121883 0)
(0.0152484 0.000175192 0)
(0.01543 0.000219726 0)
(0.015593 0.000270641 0)
(0.0157408 0.000308031 0)
(0.0158749 0.000340354 0)
(0.0159928 0.000373005 0)
(0.0160988 0.000394639 0)
(0.0161885 0.000414057 0)
(0.0162636 0.000428161 0)
(0.016324 0.000435978 0)
(0.0163689 0.000440129 0)
(0.0150631 -0.000174494 0)
(0.0152973 -0.000116687 0)
(0.0155178 -4.72028e-05 0)
(0.0157196 4.09734e-06 0)
(0.0159048 4.64568e-05 0)
(0.0160708 9.57545e-05 0)
(0.0162203 0.000131261 0)
(0.0163567 0.000161734 0)
(0.0164767 0.000192514 0)
(0.0165838 0.00021242 0)
(0.0166743 0.000230465 0)
(0.0167498 0.000243411 0)
(0.0168103 0.000250263 0)
(0.016855 0.000253766 0)
(0.0155118 -0.000350069 0)
(0.0157523 -0.000294673 0)
(0.015978 -0.000226666 0)
(0.0161842 -0.000177497 0)
(0.0163729 -0.000137407 0)
(0.0165419 -8.98531e-05 0)
(0.0166944 -5.67806e-05 0)
(0.0168325 -2.8116e-05 0)
(0.0169533 1.18422e-06 0)
(0.017061 1.9389e-05 0)
(0.0171522 3.60535e-05 0)
(0.0172281 4.78229e-05 0)
(0.0172885 5.36935e-05 0)
(0.0173329 5.65538e-05 0)
(0.0159536 -0.000535238 0)
(0.0162001 -0.00048249 0)
(0.0164307 -0.000416179 0)
(0.0166412 -0.00036932 0)
(0.0168332 -0.000331594 0)
(0.0170051 -0.000285764 0)
(0.0171598 -0.000254863 0)
(0.0172995 -0.000228288 0)
(0.0174214 -0.00020066 0)
(0.0175297 -0.000184203 0)
(0.0176213 -0.000168919 0)
(0.0176974 -0.000158326 0)
(0.0177577 -0.00015344 0)
(0.0178017 -0.000151209 0)
(0.016388 -0.00072972 0)
(0.01664 -0.00067982 0)
(0.0168751 -0.000615396 0)
(0.0170895 -0.000571032 0)
(0.0172845 -0.00053579 0)
(0.0174584 -0.000491579 0)
(0.0176156 -0.000462803 0)
(0.017757 -0.000438623 0)
(0.0178801 -0.000412739 0)
(0.0179887 -0.000398069 0)
(0.0180807 -0.00038416 0)
(0.0181569 -0.00037473 0)
(0.018217 -0.000370809 0)
(0.0182606 -0.000369182 0)
(0.0168138 -0.000933437 0)
(0.0170709 -0.000886489 0)
(0.0173101 -0.000824045 0)
(0.0175281 -0.000782326 0)
(0.017726 -0.000749778 0)
(0.0179031 -0.000707853 0)
(0.0180624 -0.000681213 0)
(0.0182045 -0.000658981 0)
(0.0183284 -0.000634785 0)
(0.0184373 -0.000621891 0)
(0.0185295 -0.000609347 0)
(0.0186056 -0.000601052 0)
(0.0186654 -0.000598058 0)
(0.0187085 -0.000596996 0)
(0.01723 -0.00114618 0)
(0.0174918 -0.00110224 0)
(0.0177349 -0.00104184 0)
(0.0179562 -0.00100285 0)
(0.0181564 -0.000972932 0)
(0.0183366 -0.000932997 0)
(0.0184979 -0.000909059 0)
(0.0186408 -0.000888973 0)
(0.0187655 -0.000866455 0)
(0.0188744 -0.000855322 0)
(0.0189667 -0.000844132 0)
(0.0190427 -0.000836935 0)
(0.0191022 -0.000834812 0)
(0.0191447 -0.000834265 0)
(0.0176358 -0.00136737 0)
(0.0179024 -0.00132665 0)
(0.0181492 -0.00126845 0)
(0.0183731 -0.00123225 0)
(0.018577 -0.00120562 0)
(0.0187598 -0.00116794 0)
(0.0189216 -0.00114623 0)
(0.019065 -0.00112825 0)
(0.0191903 -0.00110739 0)
(0.0192993 -0.00109801 0)
(0.0193917 -0.00108815 0)
(0.0194674 -0.001082 0)
(0.0195264 -0.00108069 0)
(0.0195684 -0.0010806 0)
(0.0180311 -0.00159649 0)
(0.018302 -0.00155929 0)
(0.0185517 -0.0015035 0)
(0.0187797 -0.00147082 0)
(0.0189864 -0.00144746 0)
(0.0191702 -0.00141171 0)
(0.0193327 -0.00139235 0)
(0.0194765 -0.00137648 0)
(0.0196024 -0.00135726 0)
(0.0197113 -0.00134961 0)
(0.0198035 -0.00134101 0)
(0.0198789 -0.00133586 0)
(0.0199373 -0.00133531 0)
(0.0199787 -0.00133561 0)
(0.0184147 -0.00183321 0)
(0.0186895 -0.00179974 0)
(0.0189434 -0.00174725 0)
(0.0191748 -0.00171809 0)
(0.0193826 -0.00169763 0)
(0.0195676 -0.001664 0)
(0.0197307 -0.00164708 0)
(0.0198747 -0.00163336 0)
(0.0200008 -0.00161577 0)
(0.0201094 -0.00160977 0)
(0.0202014 -0.00160238 0)
(0.0202764 -0.00159816 0)
(0.0203343 -0.00159831 0)
(0.0203749 -0.00159892 0)
(0.0187878 -0.00207914 0)
(0.0190664 -0.00204954 0)
(0.0193233 -0.0019993 0)
(0.0195563 -0.00197326 0)
(0.0197654 -0.00195599 0)
(0.0199512 -0.00192463 0)
(0.0201147 -0.00191024 0)
(0.0202587 -0.00189867 0)
(0.0203849 -0.00188264 0)
(0.0204931 -0.00187822 0)
(0.0205848 -0.00187194 0)
(0.0206593 -0.00186856 0)
(0.0207165 -0.00186932 0)
(0.0207564 -0.00187018 0)
(0.0191472 -0.00233143 0)
(0.0194298 -0.00230602 0)
(0.0196891 -0.0022587 0)
(0.0199237 -0.00223627 0)
(0.0201335 -0.00222244 0)
(0.02032 -0.00219347 0)
(0.0204838 -0.00218164 0)
(0.0206279 -0.00217217 0)
(0.0207542 -0.0021576 0)
(0.0208618 -0.00215464 0)
(0.0209531 -0.00214936 0)
(0.021027 -0.00214672 0)
(0.0210835 -0.00214801 0)
(0.0211226 -0.00214905 0)
(0.0194934 -0.00259016 0)
(0.0197789 -0.00256947 0)
(0.0200399 -0.0025256 0)
(0.0202757 -0.00250712 0)
(0.0204863 -0.00249689 0)
(0.0206737 -0.00247032 0)
(0.0208378 -0.00246098 0)
(0.0209819 -0.00245349 0)
(0.021108 -0.00244025 0)
(0.021215 -0.00243865 0)
(0.0213057 -0.00243427 0)
(0.021379 -0.00243231 0)
(0.0214347 -0.00243407 0)
(0.0214729 -0.00243524 0)
(0.019825 -0.00285583 0)
(0.0201123 -0.00284038 0)
(0.0203751 -0.00280026 0)
(0.0206125 -0.00278583 0)
(0.0208241 -0.0027791 0)
(0.021012 -0.00275473 0)
(0.0211762 -0.00274768 0)
(0.0213199 -0.00274205 0)
(0.0214458 -0.00273008 0)
(0.0215521 -0.00272983 0)
(0.0216423 -0.00272634 0)
(0.0217148 -0.00272501 0)
(0.0217696 -0.0027272 0)
(0.021807 -0.00272846 0)
(0.0201412 -0.00312904 0)
(0.0204307 -0.0031191 0)
(0.0206953 -0.0030826 0)
(0.020934 -0.00307186 0)
(0.0211461 -0.00306822 0)
(0.0213341 -0.00304577 0)
(0.0214981 -0.00304093 0)
(0.0216415 -0.00303722 0)
(0.0217673 -0.00302665 0)
(0.0218729 -0.00302784 0)
(0.0219623 -0.00302527 0)
(0.0220341 -0.00302457 0)
(0.0220878 -0.00302713 0)
(0.0221243 -0.00302843 0)
(0.020443 -0.00340999 0)
(0.0207345 -0.00340514 0)
(0.0209998 -0.00337152 0)
(0.0212389 -0.00336384 0)
(0.0214512 -0.00336302 0)
(0.0216397 -0.00334257 0)
(0.0218037 -0.00334026 0)
(0.0219468 -0.00333877 0)
(0.0220722 -0.00332978 0)
(0.0221769 -0.00333248 0)
(0.0222655 -0.00333083 0)
(0.0223363 -0.0033307 0)
(0.0223891 -0.0033336 0)
(0.0224246 -0.00333488 0)
(0.0207299 -0.00369774 0)
(0.0210221 -0.00369681 0)
(0.0212876 -0.00366523 0)
(0.0215272 -0.00366048 0)
(0.0217399 -0.00366293 0)
(0.0219287 -0.00364509 0)
(0.0220925 -0.00364573 0)
(0.022235 -0.0036466 0)
(0.02236 -0.0036392 0)
(0.0224636 -0.00364337 0)
(0.0225515 -0.00364261 0)
(0.0226213 -0.00364306 0)
(0.0226731 -0.00364629 0)
(0.0227077 -0.00364755 0)
(0.0210001 -0.00398989 0)
(0.0212927 -0.00399197 0)
(0.0215593 -0.00396265 0)
(0.0217995 -0.00396182 0)
(0.022012 -0.00396842 0)
(0.0222005 -0.00395351 0)
(0.0223638 -0.00395695 0)
(0.0225058 -0.00396002 0)
(0.0226303 -0.00395417 0)
(0.0227331 -0.00395993 0)
(0.0228201 -0.0039602 0)
(0.022889 -0.00396132 0)
(0.0229397 -0.00396492 0)
(0.0229733 -0.00396616 0)
(0.0212537 -0.00428393 0)
(0.0215479 -0.00428982 0)
(0.021815 -0.00426442 0)
(0.0220548 -0.00426854 0)
(0.0222668 -0.00427917 0)
(0.0224549 -0.00426658 0)
(0.022618 -0.00427259 0)
(0.0227594 -0.00427809 0)
(0.0228834 -0.00427421 0)
(0.0229851 -0.00428189 0)
(0.0230712 -0.00428336 0)
(0.023139 -0.00428523 0)
(0.0231887 -0.00428922 0)
(0.0232214 -0.00429044 0)
(0.0214923 -0.00457955 0)
(0.0217872 -0.00459158 0)
(0.0220528 -0.00457108 0)
(0.0222926 -0.00457931 0)
(0.0225042 -0.00459291 0)
(0.0226925 -0.00458265 0)
(0.0228549 -0.00459211 0)
(0.0229955 -0.00460087 0)
(0.0231188 -0.00459935 0)
(0.0232194 -0.00460903 0)
(0.0233045 -0.00461176 0)
(0.0233713 -0.00461444 0)
(0.02342 -0.00461888 0)
(0.0234518 -0.00462008 0)
(0.0217149 -0.00487866 0)
(0.022008 -0.00489754 0)
(0.0222739 -0.00488015 0)
(0.0225132 -0.00489108 0)
(0.0227248 -0.00490838 0)
(0.0229126 -0.00490221 0)
(0.0230738 -0.00491613 0)
(0.023214 -0.00492814 0)
(0.0233366 -0.00492871 0)
(0.0234361 -0.0049405 0)
(0.0235202 -0.0049448 0)
(0.023586 -0.00494856 0)
(0.0236337 -0.00495357 0)
(0.0236645 -0.00495479 0)
(0.0219188 -0.00518135 0)
(0.0222128 -0.00520431 0)
(0.0224784 -0.00518822 0)
(0.0227172 -0.00520347 0)
(0.0229281 -0.00522702 0)
(0.0231142 -0.00522569 0)
(0.0232754 -0.00524323 0)
(0.0234149 -0.00525783 0)
(0.0235367 -0.00526111 0)
(0.0236352 -0.00527599 0)
(0.0237183 -0.00528237 0)
(0.023783 -0.00528738 0)
(0.0238295 -0.00529303 0)
(0.0238596 -0.00529428 0)
(0.0221075 -0.0054836 0)
(0.0224009 -0.00550821 0)
(0.0226656 -0.00549557 0)
(0.0229044 -0.00551827 0)
(0.0231125 -0.0055483 0)
(0.0232992 -0.00555005 0)
(0.0234601 -0.00557039 0)
(0.0235981 -0.00558927 0)
(0.023719 -0.00559723 0)
(0.0238164 -0.0056156 0)
(0.0238984 -0.005624 0)
(0.0239621 -0.00563039 0)
(0.0240077 -0.00563689 0)
(0.0240369 -0.00563824 0)
(0.0222792 -0.00578126 0)
(0.0225716 -0.00580945 0)
(0.0228368 -0.00580386 0)
(0.0230723 -0.00583407 0)
(0.0232808 -0.00586816 0)
(0.0234676 -0.00587195 0)
(0.0236264 -0.005898 0)
(0.0237635 -0.00592423 0)
(0.0238839 -0.0059363 0)
(0.02398 -0.0059574 0)
(0.0240609 -0.00596836 0)
(0.0241236 -0.00597703 0)
(0.0241683 -0.0059848 0)
(0.0241966 -0.00598635 0)
(0.0224344 -0.0060736 0)
(0.022728 -0.00610948 0)
(0.0229884 -0.00611183 0)
(0.023224 -0.00614662 0)
(0.023433 -0.00618266 0)
(0.0236168 -0.00619221 0)
(0.0237748 -0.00622834 0)
(0.0239122 -0.00625961 0)
(0.0240314 -0.00627412 0)
(0.024126 -0.0062999 0)
(0.0242061 -0.00631559 0)
(0.0242677 -0.00632737 0)
(0.0243112 -0.00633644 0)
(0.0243388 -0.00633832 0)
(0.0225749 -0.00636168 0)
(0.0228637 -0.00640804 0)
(0.023124 -0.00641536 0)
(0.0233602 -0.00645067 0)
(0.0235658 -0.00649241 0)
(0.0237489 -0.00651375 0)
(0.0239078 -0.0065559 0)
(0.0240435 -0.00658944 0)
(0.0241609 -0.00661069 0)
(0.0242549 -0.00664443 0)
(0.0243339 -0.00666551 0)
(0.024394 -0.00667999 0)
(0.0244366 -0.00669103 0)
(0.0244635 -0.00669384 0)
(0.0226941 -0.00664646 0)
(0.0229835 -0.0067015 0)
(0.023244 -0.00670784 0)
(0.0234769 -0.00674635 0)
(0.0236818 -0.00680124 0)
(0.0238659 -0.00682944 0)
(0.0240227 -0.00687352 0)
(0.0241562 -0.0069156 0)
(0.0242741 -0.006947 0)
(0.0243672 -0.00698846 0)
(0.0244442 -0.00701406 0)
(0.0245034 -0.00703315 0)
(0.024545 -0.00704834 0)
(0.0245708 -0.00705258 0)
(0.022799 -0.00692573 0)
(0.0230866 -0.00698306 0)
(0.0233448 -0.00698851 0)
(0.0235772 -0.00703737 0)
(0.023782 -0.00710151 0)
(0.0239643 -0.00713182 0)
(0.0241196 -0.00718375 0)
(0.0242541 -0.00723697 0)
(0.0243715 -0.00727774 0)
(0.024462 -0.00732594 0)
(0.0245381 -0.0073593 0)
(0.0245962 -0.00738741 0)
(0.0246361 -0.00740788 0)
(0.0246609 -0.00741383 0)
(0.0228848 -0.00719454 0)
(0.0231714 -0.00725068 0)
(0.0234299 -0.00725907 0)
(0.0236607 -0.00731766 0)
(0.0238638 -0.00738764 0)
(0.0240459 -0.00742188 0)
(0.0242019 -0.00748279 0)
(0.024336 -0.00754793 0)
(0.0244511 -0.00759659 0)
(0.0245411 -0.00765421 0)
(0.0246166 -0.00770118 0)
(0.0246721 -0.00773972 0)
(0.0247105 -0.00776668 0)
(0.0247344 -0.00777681 0)
(0.0229539 -0.00744993 0)
(0.0232403 -0.00750335 0)
(0.0234965 -0.0075167 0)
(0.023726 -0.00758491 0)
(0.0239295 -0.00765668 0)
(0.0241118 -0.00769394 0)
(0.0242673 -0.00776832 0)
(0.0244004 -0.00784202 0)
(0.0245164 -0.00789772 0)
(0.0246065 -0.00797078 0)
(0.0246794 -0.00803226 0)
(0.0247335 -0.00808261 0)
(0.0247699 -0.00812219 0)
(0.0247912 -0.00814054 0)
(0.0230053 -0.00768932 0)
(0.0232903 -0.00774047 0)
(0.0235455 -0.00776132 0)
(0.0237748 -0.00783318 0)