/*--------------------------------*- C++ -*----------------------------------*\
| =========                 |                                                 |
| \\      /  F ield         | OpenFOAM Extend Project: Open source CFD        |
|  \\    /   O peration     | Version:  1.6-ext                               |
|   \\  /    A nd           | Web:      www.extend-project.de                 |
|    \\/     M anipulation  |                                                 |
\*---------------------------------------------------------------------------*/
FoamFile
{
    version     2.0;
    format      ascii;
    class       volScalarField;
    location    "0.15";
    object      p;
}
// * * * * * * * * * * * * * * * * * * * * * * * * * * * * * * * * * * * * * //

dimensions      [0 2 -2 0 0 0 0];

internalField   nonuniform List<scalar> 
20940
(
0.441115
0.394033
0.343992
0.290744
0.234677
0.175805
0.114579
0.051561
-0.0122886
-0.0756478
-0.136848
-0.194058
-0.245559
-0.290063
-0.326949
-0.356336
-0.378995
-0.396128
-0.409064
-0.419076
-0.42801
-0.437336
0.421524
0.375048
0.325346
0.272703
0.217323
0.159398
0.0994445
0.0381711
-0.0233309
-0.0836375
-0.141071
-0.193922
-0.24074
-0.280597
-0.313242
-0.339093
-0.359078
-0.374417
-0.386327
-0.395906
-0.404801
-0.414294
0.406756
0.360973
0.31181
0.259914
0.205382
0.148575
0.0900893
0.03078
-0.0281432
-0.0851879
-0.138716
-0.187193
-0.229464
-0.264956
-0.293752
-0.316499
-0.334221
-0.348096
-0.359206
-0.36846
-0.3773
-0.38682
0.39463
0.349568
0.301091
0.250058
0.196534
0.141037
0.0842604
0.0272012
-0.0288303
-0.0823146
-0.131708
-0.175705
-0.213472
-0.244787
-0.270019
-0.289987
-0.305749
-0.318403
-0.328877
-0.337893
-0.346705
-0.35625
0.385988
0.341563
0.293822
0.243652
0.191182
0.137064
0.0821135
0.027464
-0.0254958
-0.0752622
-0.120439
-0.15999
-0.193421
-0.220835
-0.242843
-0.260376
-0.274475
-0.28613
-0.296108
-0.304952
-0.313749
-0.323312
0.380719
0.336815
0.289831
0.240483
0.189074
0.136367
0.0833191
0.0311876
-0.0185876
-0.0645639
-0.10554
-0.14078
-0.170125
-0.193972
-0.213119
-0.228553
-0.241265
-0.252112
-0.261702
-0.270414
-0.279187
-0.288741
0.379013
0.335499
0.289275
0.24067
0.190278
0.138941
0.0877808
0.0381655
-0.00843769
-0.050686
-0.0876077
-0.11878
-0.144368
-0.165021
-0.181673
-0.195327
-0.206892
-0.217087
-0.226368
-0.234968
-0.243695
-0.253199
0.380696
0.337335
0.291777
0.243733
0.194227
0.144138
0.0947872
0.0476282
0.00413076
-0.0345006
-0.0675526
-0.0949229
-0.117078
-0.13488
-0.149358
-0.161495
-0.172099
-0.181754
-0.190773
-0.199257
-0.207899
-0.217305
0.386071
0.342749
0.297847
0.250221
0.20145
0.15241
0.104652
0.0597113
0.0190551
-0.0162643
-0.0457975
-0.0697522
-0.0888697
-0.104191
-0.116808
-0.127666
-0.137471
-0.146673
-0.155457
-0.163813
-0.172328
-0.181582
0.394667
0.351055
0.306603
0.259083
0.210774
0.162507
0.116095
0.0731399
0.0350907
0.00282786
-0.02347
-0.0443119
-0.0606905
-0.0737991
-0.08477
-0.0945017
-0.103596
-0.112381
-0.120928
-0.129124
-0.137465
-0.146515
0.407142
0.363373
0.319503
0.272014
0.223955
0.176096
0.130558
0.0890341
0.052999
0.0231946
-0.000438569
-0.0186811
-0.0327541
-0.0439894
-0.0535595
-0.0623237
-0.0707956
-0.0791982
-0.0875051
-0.0955172
-0.103643
-0.112445
0.422228
0.377899
0.33422
0.28637
0.238192
0.190389
0.145388
0.104974
0.0706397
0.0429895
0.0217357
0.00584186
-0.00612527
-0.0156272
-0.0238769
-0.0317032
-0.0395448
-0.0475329
-0.0555554
-0.0633359
-0.071199
-0.0797175
0.441664
0.397737
0.354822
0.306875
0.258406
0.210153
0.164889
0.124592
0.090886
0.06435
0.0445567
0.0302675
0.0198531
0.0117085
0.00454767
-0.00246648
-0.00973361
-0.017321
-0.0250518
-0.0325847
-0.040167
-0.0483856
0.461196
0.417436
0.3744
0.326057
0.277033
0.228204
0.182569
0.142292
0.109102
0.0835537
0.0650935
0.0523035
0.0433801
0.0365859
0.0305602
0.0244462
0.0178673
0.0108045
0.00348645
-0.00369126
-0.0109072
-0.0187885
0.487346
0.446333
0.404602
0.356646
0.306928
0.256822
0.209551
0.16766
0.133178
0.106859
0.0881975
0.0757048
0.0674277
0.061455
0.0562688
0.0508991
0.0449123
0.038285
0.0312736
0.0243299
0.017366
0.0097382
0.501695
0.464022
0.421236
0.373242
0.323015
0.272405
0.224816
0.182976
0.148993
0.123553
0.106009
0.0947103
0.0875846
0.0826579
0.0783957
0.0738378
0.0685713
0.0625947
0.0561769
0.0497759
0.0433501
0.0362687
0.496635
0.4567
0.410744
0.36175
0.311683
0.263136
0.219258
0.182268
0.153502
0.132888
0.119284
0.110876
0.105703
0.102047
0.0986592
0.0948122
0.0902423
0.0850162
0.0794075
0.0738187
0.0681672
0.0618956
0.502462
0.462387
0.414971
0.365782
0.315898
0.268751
0.227079
0.192826
0.166817
0.148598
0.136829
0.129701
0.125389
0.122355
0.119502
0.116203
0.112237
0.107668
0.102742
0.0978095
0.0927686
0.0871594
0.510335
0.469691
0.421387
0.37252
0.323418
0.278059
0.238621
0.206789
0.182957
0.166447
0.155859
0.149471
0.14562
0.142932
0.140437
0.137578
0.134152
0.130202
0.125933
0.121635
0.117184
0.112186
0.522396
0.481395
0.432683
0.38435
0.336218
0.292546
0.254969
0.224939
0.202522
0.186951
0.176857
0.170665
0.166882
0.164278
0.161978
0.159458
0.156505
0.153123
0.149467
0.145767
0.141882
0.137469
0.538721
0.497691
0.449146
0.401604
0.354581
0.312352
0.276131
0.247187
0.225411
0.21005
0.199846
0.193388
0.189341
0.186594
0.184333
0.182046
0.179493
0.17663
0.173558
0.170447
0.16715
0.163367
0.559261
0.518482
0.470557
0.423927
0.378014
0.336899
0.301533
0.273045
0.251274
0.235551
0.224765
0.217674
0.213087
0.209992
0.207616
0.205449
0.203212
0.200814
0.198301
0.195789
0.19314
0.190098
0.583368
0.543114
0.496193
0.450532
0.405663
0.365333
0.330379
0.301831
0.279573
0.263051
0.251321
0.243306
0.237945
0.23431
0.231665
0.229491
0.22748
0.225492
0.223523
0.221641
0.219739
0.217607
0.610167
0.570625
0.52496
0.480249
0.4363
0.396454
0.361556
0.332567
0.309468
0.29184
0.278905
0.26974
0.263406
0.259052
0.255977
0.253663
0.251773
0.250135
0.248698
0.247487
0.24646
0.245457
0.637594
0.598936
0.554717
0.51097
0.467884
0.428372
0.393352
0.363738
0.339632
0.320745
0.306459
0.295994
0.28853
0.283293
0.279628
0.277028
0.275146
0.273785
0.27286
0.272362
0.272343
0.27271
0.66448
0.626783
0.58406
0.541233
0.498912
0.459614
0.42435
0.394004
0.368789
0.34854
0.332783
0.320874
0.312107
0.305798
0.301347
0.298278
0.296249
0.295053
0.294581
0.294797
0.29588
0.297819
0.686807
0.650228
0.609125
0.567406
0.526023
0.487137
0.451814
0.42091
0.394723
0.373194
0.355983
0.342581
0.332405
0.324874
0.319467
0.315753
0.313416
0.312252
0.312132
0.312996
0.315163
0.318729
0.706555
0.67127
0.631817
0.591202
0.550648
0.512031
0.476461
0.44478
0.417371
0.394286
0.375317
0.360093
0.348162
0.339056
0.332341
0.327648
0.324692
0.323274
0.323243
0.324506
0.327489
0.332386
0.715489
0.681577
0.643903
0.604747
0.565429
0.527571
0.492264
0.460327
0.432196
0.408016
0.387696
0.370994
0.357584
0.347109
0.339229
0.333636
0.330076
0.328344
0.328245
0.329599
0.332767
0.338017
0.735057
0.703087
0.666886
0.62827
0.588691
0.549728
0.512599
0.478249
0.447287
0.420024
0.396528
0.376687
0.360279
0.347039
0.336701
0.329032
0.323842
0.320968
0.320212
0.321293
0.324092
0.328179
1.61822
1.66569
1.71261
1.7589
1.80417
1.84809
1.89036
1.93072
1.96889
2.00462
2.03765
2.06775
2.09472
2.1184
2.13871
2.15576
2.16989
2.18176
2.19226
2.20249
2.21508
2.23175
1.61067
1.65783
1.70413
1.7498
1.79443
1.83768
1.87928
1.91895
1.95641
1.99143
2.02374
2.05313
2.07937
2.10233
2.12193
2.13831
2.15181
2.16315
2.17323
2.18317
2.19561
2.21221
1.59139
1.63783
1.68284
1.72727
1.77062
1.81256
1.85283
1.89114
1.92724
1.96088
1.9918
2.01978
2.04461
2.06614
2.08434
2.09935
2.1116
2.12184
2.13104
2.14038
2.15247
2.16889
1.56339
1.60871
1.65173
1.6942
1.73553
1.77539
1.81354
1.84971
1.88363
1.91507
1.94377
1.96952
1.9921
2.01139
2.02738
2.04026
2.05052
2.05903
2.06687
2.07525
2.08677
2.10289
1.52611
1.56993
1.61033
1.65025
1.68895
1.72611
1.7615
1.79487
1.82596
1.85452
1.88033
1.90314
1.92277
1.93911
1.95217
1.96222
1.96985
1.97606
1.98206
1.98915
1.99989
2.01556
1.48119
1.52313
1.56033
1.59713
1.63261
1.66645
1.69847
1.7284
1.75601
1.78105
1.80328
1.82249
1.83848
1.85116
1.86061
1.86716
1.87153
1.87487
1.87856
1.88403
1.89375
1.90881
1.42965
1.46937
1.50287
1.5361
1.56788
1.59791
1.62604
1.65202
1.6756
1.69656
1.71465
1.72965
1.74139
1.7498
1.75499
1.75741
1.75791
1.75785
1.75878
1.76226
1.77073
1.78498
1.37322
1.41037
1.43977
1.46904
1.49669
1.52248
1.54627
1.56782
1.58689
1.60326
1.61668
1.62695
1.63388
1.63744
1.63779
1.63549
1.63156
1.62756
1.62528
1.62645
1.63339
1.64662
1.31355
1.34781
1.37283
1.39788
1.42112
1.44237
1.46151
1.47829
1.49249
1.50388
1.51222
1.5173
1.51895
1.51715
1.51213
1.50456
1.49564
1.48719
1.48125
1.47972
1.48483
1.49678
1.25262
1.28369
1.30413
1.32474
1.34331
1.35974
1.37393
1.38563
1.39462
1.40068
1.40356
1.40305
1.399
1.39139
1.38052
1.36719
1.3528
1.33943
1.3294
1.32482
1.32781
1.3382
1.1921
1.21969
1.23557
1.25173
1.2656
1.27717
1.28633
1.29285
1.29649
1.29704
1.29423
1.28787
1.27778
1.26399
1.24686
1.22729
1.20692
1.18812
1.17353
1.16548
1.16599
1.17449
1.13417
1.15792
1.16921
1.18076
1.18975
1.19628
1.20022
1.20132
1.19939
1.19417
1.18542
1.17292
1.15653
1.13627
1.11255
1.08643
1.05976
1.03519
1.01574
1.00395
1.00171
1.00799
1.0797
1.09939
1.10657
1.11382
1.11826
1.12003
1.11898
1.11489
1.10752
1.09663
1.08196
1.06328
1.04043
1.01345
0.982799
0.949659
0.916132
0.885228
0.860348
0.844353
0.83899
0.84269
1.0316
1.0462
1.04912
1.05177
1.0514
1.04815
1.04187
1.03231
1.01925
1.00243
0.981612
0.956551
0.927097
0.893318
0.855741
0.815672
0.775447
0.738393
0.708255
0.688145
0.679591
0.680374
0.988551
0.998327
0.998364
0.997105
0.992724
0.985236
0.974439
0.960099
0.941963
0.919755
0.893184
0.861977
0.825944
0.785129
0.740079
0.692222
0.644185
0.599776
0.563324
0.538418
0.526489
0.524483
0.956587
0.956251
0.953042
0.947412
0.938199
0.925656
0.909519
0.889574
0.865565
0.837214
0.804237
0.766381
0.723507
0.675764
0.623888
0.569588
0.515819
0.466671
0.426596
0.399091
0.385093
0.380914
0.923535
0.913634
0.904904
0.892186
0.876044
0.856465
0.833146
0.805901
0.774481
0.738643
0.698163
0.6529
0.60291
0.548659
0.491312
0.433018
0.376983
0.32714
0.287312
0.260106
0.245468
0.239208
0.885297
0.868544
0.854813
0.835842
0.81382
0.788117
0.758555
0.724948
0.687066
0.644708
0.597721
0.546076
0.49002
0.430294
0.368412
0.306851
0.248983
0.198588
0.158994
0.132093
0.11696
0.108983
0.845623
0.822935
0.803887
0.778902
0.751212
0.719638
0.684199
0.644668
0.600845
0.552572
0.499765
0.442525
0.381302
0.317128
0.25185
0.188219
0.129673
0.079737
0.0411729
0.0151528
1.51743e-05
-0.00904313
0.805044
0.777089
0.752796
0.722277
0.689259
0.652209
0.611321
0.566324
0.517067
0.463444
0.405467
0.343395
0.277915
0.210369
0.142912
0.078483
0.0204562
-0.0280331
-0.064861
-0.089553
-0.104355
-0.11406
0.764193
0.731628
0.702378
0.666892
0.629
0.587004
0.541218
0.491348
0.437298
0.379026
0.316661
0.250643
0.181918
0.112122
0.0436612
-0.0204398
-0.0769947
-0.123348
-0.158022
-0.181163
-0.195438
-0.205496
0.72376
0.687231
0.653442
0.613585
0.571326
0.524958
0.474864
0.420748
0.362578
0.300392
0.234457
0.165415
0.0944734
0.0235346
-0.0448188
-0.107588
-0.161886
-0.20559
-0.237847
-0.259323
-0.27296
-0.283165
0.684129
0.644287
0.606479
0.562882
0.516827
0.466714
0.412945
0.355254
0.293678
0.228352
0.159699
0.0885824
0.0164583
-0.0545508
-0.121773
-0.182347
-0.233768
-0.274474
-0.304178
-0.323964
-0.336914
-0.347136
0.645952
0.603435
0.562187
0.515479
0.466228
0.413004
0.356204
0.295615
0.23135
0.163663
0.0931511
0.0208974
-0.0514125
-0.121498
-0.186694
-0.244372
-0.292473
-0.329983
-0.357113
-0.375251
-0.38752
-0.397683
0.609332
0.564756
0.520668
0.471476
0.41965
0.363962
0.304795
0.242004
0.175794
0.10655
0.0350546
-0.037394
-0.10892
-0.177158
-0.239544
-0.293763
-0.338233
-0.372461
-0.397065
-0.413641
-0.425258
-0.435322
0.574998
0.528937
0.482607
0.431525
0.377717
0.320176
0.259267
0.194934
0.12748
0.0574409
-0.0142092
-0.0859762
-0.155843
-0.221438
-0.280384
-0.33074
-0.371415
-0.402379
-0.424574
-0.439705
-0.450726
-0.460676
0.542614
0.495571
0.447559
0.395145
0.339935
0.281143
0.219121
0.153915
0.0859417
0.0158974
-0.0550585
-0.125265
-0.192625
-0.254845
-0.30981
-0.356001
-0.392795
-0.420568
-0.440493
-0.454303
-0.464784
-0.474615
0.513203
0.465644
0.41648
0.363236
0.307143
0.247628
0.185045
0.119554
0.0516956
-0.017664
-0.0871916
-0.155097
-0.219267
-0.277563
-0.328198
-0.370087
-0.403048
-0.427785
-0.445622
-0.458254
-0.46826
-0.477974
0.4857
0.43797
0.388097
0.334464
0.277966
0.218236
0.155644
0.0904782
0.0234162
-0.0445087
-0.111812
-0.176628
-0.236907
-0.290743
-0.336726
-0.374211
-0.403408
-0.425272
-0.441194
-0.452773
-0.462354
-0.47194
0.462061
0.414504
0.36435
0.310723
0.254237
0.19472
0.132577
0.0682278
0.00249473
-0.0634318
-0.127949
-0.189171
-0.245177
-0.294346
-0.335665
-0.368899
-0.394578
-0.413825
-0.428031
-0.43865
-0.447766
-0.457069
0.463668
0.416095
0.365933
0.312281
0.25577
0.196233
0.134083
0.069756
0.00408731
-0.0617174
-0.126046
-0.187015
-0.242717
-0.291555
-0.33254
-0.36546
-0.390856
-0.409851
-0.423835
-0.434252
-0.44316
-0.452229
0.488497
0.440573
0.390534
0.336717
0.280041
0.22014
0.157398
0.0921167
0.0249935
-0.042917
-0.110113
-0.174721
-0.234702
-0.288174
-0.333762
-0.370857
-0.399693
-0.421238
-0.436886
-0.448225
-0.457568
-0.466892
0.517181
0.469234
0.419728
0.366128
0.30969
0.249843
0.186953
0.121196
0.0531348
-0.0163386
-0.0858647
-0.153636
-0.217542
-0.275464
-0.325657
-0.367083
-0.399603
-0.423948
-0.441452
-0.453804
-0.463545
-0.472969
0.547704
0.500062
0.451514
0.398558
0.342823
0.283527
0.221031
0.1554
0.0870682
0.0167652
-0.0543178
-0.124492
-0.19165
-0.253514
-0.308012
-0.35368
-0.389956
-0.417259
-0.436787
-0.450274
-0.460462
-0.469982
0.58106
0.534179
0.487102
0.435282
0.380758
0.322534
0.260976
0.196048
0.128071
0.0576141
-0.0143111
-0.0861738
-0.155934
-0.221224
-0.279703
-0.329497
-0.369585
-0.400004
-0.421737
-0.4365
-0.447203
-0.456828
0.616156
0.570536
0.525475
0.475341
0.422601
0.366042
0.306046
0.242486
0.175581
0.10575
0.0338158
-0.0388797
-0.110425
-0.178445
-0.240403
-0.294045
-0.337879
-0.371493
-0.395571
-0.411733
-0.423011
-0.432743
0.653253
0.609472
0.567015
0.519159
0.468793
0.414508
0.356698
0.295161
0.230028
0.161579
0.0904524
0.0177807
-0.0547036
-0.124694
-0.189538
-0.246664
-0.294103
-0.330948
-0.357493
-0.375177
-0.387089
-0.396922
0.691559
0.650244
0.61099
0.566041
0.518673
0.467312
0.412353
0.353538
0.290919
0.224653
0.155204
0.0834842
0.0110054
-0.0600672
-0.127057
-0.187143
-0.237915
-0.277926
-0.307002
-0.326296
-0.338882
-0.348788
0.730908
0.692727
0.657262
0.615862
0.5721
0.524304
0.472845
0.417434
0.358051
0.294751
0.227834
0.157995
0.0865001
0.0153068
-0.0529741
-0.115369
-0.169072
-0.212087
-0.24369
-0.264652
-0.277923
-0.287842
0.770613
0.736256
0.705124
0.66792
0.628355
0.584762
0.537449
0.486122
0.430694
0.371137
0.307608
0.240596
0.171105
0.100839
0.0322492
-0.0316382
-0.0877032
-0.133412
-0.167439
-0.190059
-0.203984
-0.213801
0.810279
0.780441
0.754095
0.721711
0.686875
0.648081
0.605517
0.558913
0.508123
0.453052
0.393736
0.330472
0.26401
0.195759
0.127938
0.0635134
0.0058192
-0.0421226
-0.0783466
-0.102535
-0.117018
-0.126551
0.849253
0.824647
0.803428
0.776466
0.746843
0.713402
0.676159
0.634885
0.589385
0.53951
0.485195
0.426572
0.364146
0.299021
0.233119
0.16924
0.110814
0.0612739
0.0232234
-0.00234317
-0.0172159
-0.0261912
0.886969
0.868309
0.852365
0.831337
0.807301
0.779631
0.748153
0.71268
0.672987
0.628881
0.580223
0.527013
0.46954
0.408617
0.345838
0.283749
0.225743
0.175539
0.136319
0.109784
0.0948381
0.0868274
0.922993
0.911142
0.900225
0.88541
0.867215
0.845616
0.820307
0.791106
0.757771
0.720062
0.677771
0.630776
0.579171
0.523484
0.464962
0.405838
0.349369
0.29946
0.259813
0.232843
0.218285
0.21185
0.954263
0.951986
0.946732
0.939019
0.927724
0.913104
0.894891
0.872881
0.846826
0.816456
0.781497
0.741714
0.696995
0.64754
0.594164
0.538669
0.484097
0.434553
0.394401
0.366954
0.352899
0.348382
0.983448
0.990867
0.989026
0.98579
0.979367
0.969815
0.956932
0.940499
0.920271
0.895983
0.867356
0.834133
0.796149
0.753493
0.706783
0.657542
0.608484
0.563449
0.526705
0.501679
0.489551
0.487062
1.02283
1.03514
1.03627
1.03699
1.0346
1.02931
1.02095
1.0093
0.99414
0.975237
0.952346
0.925248
0.893816
0.858158
0.818866
0.777328
0.735958
0.698116
0.667503
0.647102
0.638208
0.638393
1.06814
1.08564
1.09105
1.0964
1.09884
1.09857
1.09543
1.08923
1.07974
1.06673
1.04996
1.0292
1.00432
0.975394
0.94295
0.908234
0.873426
0.841571
0.816043
0.7996
0.793772
0.796781
1.12008
1.14176
1.15127
1.16093
1.16794
1.17244
1.1743
1.1733
1.16925
1.16191
1.15106
1.13648
1.11805
1.09583
1.07028
1.04252
1.01448
0.98884
0.9686
0.95624
0.953447
0.958973
1.17622
1.20189
1.21601
1.23032
1.24222
1.25178
1.25888
1.2633
1.26484
1.26327
1.25837
1.24992
1.2378
1.22204
1.20305
1.1818
1.15998
1.14
1.12453
1.11581
1.1157
1.12342
1.23555
1.26485
1.28354
1.30233
1.31897
1.33342
1.34558
1.35522
1.36215
1.36614
1.36696
1.36441
1.35835
1.3488
1.33609
1.32107
1.3052
1.2906
1.27962
1.2743
1.27664
1.28626
1.296
1.32866
1.35198
1.37528
1.39665
1.41598
1.43315
1.44794
1.46014
1.46953
1.47588
1.47898
1.47869
1.475
1.46818
1.45894
1.44855
1.43885
1.43192
1.42963
1.43408
1.4453
1.35586
1.39157
1.41935
1.44695
1.47283
1.4968
1.51872
1.53838
1.55555
1.57002
1.58155
1.58995
1.59504
1.5968
1.59544
1.59153
1.58617
1.58094
1.57769
1.5781
1.5844
1.59695
1.41312
1.45157
1.48359
1.51528
1.54542
1.57377
1.60017
1.6244
1.64622
1.66542
1.68176
1.69503
1.70507
1.71181
1.71541
1.71633
1.71548
1.71425
1.71424
1.71701
1.72488
1.73852
1.46608
1.50694
1.54282
1.57824
1.61226
1.6446
1.67506
1.70342
1.72945
1.75291
1.77358
1.79123
1.8057
1.81689
1.8249
1.8301
1.83324
1.83553
1.83835
1.84316
1.85236
1.86687
1.51297
1.55589
1.59517
1.63391
1.67137
1.70723
1.74129
1.7733
1.80304
1.83025
1.8547
1.87618
1.8945
1.90956
1.92138
1.93027
1.93684
1.94212
1.94736
1.95388
1.96416
1.97938
1.55267
1.59728
1.63941
1.68093
1.72125
1.76007
1.79714
1.83221
1.86504
1.89538
1.92299
1.94766
1.96918
1.98743
2.00242
2.01435
2.02375
2.0315
2.03872
2.04663
2.05779
2.07355
1.58346
1.6294
1.67376
1.71749
1.7601
1.80127
1.84075
1.87826
1.91355
1.94638
1.9765
2.00368
2.02773
2.0485
2.06596
2.08027
2.09188
2.10155
2.1103
2.11929
2.1311
2.14727
1.6058
1.65266
1.69856
1.74381
1.78799
1.83077
1.87188
1.91106
1.94803
1.98255
2.01437
2.04327
2.06903
2.09152
2.11067
2.12662
2.13973
2.15073
2.16052
2.17025
2.18252
2.19897
1.61658
1.66395
1.71074
1.75688
1.802
1.84576
1.88787
1.92806
1.96607
2.00162
2.03449
2.06443
2.09124
2.11476
2.13492
2.15182
2.16582
2.17758
2.18798
2.19814
2.21067
2.22729
0.441568
0.420915
0.405191
0.39224
0.382914
0.377098
0.374974
0.376355
0.381522
0.389987
0.402384
0.417434
0.43685
0.456403
0.482529
0.49703
0.492397
0.498518
0.50665
0.518905
0.535362
0.55598
0.580125
0.606937
0.634365
0.661247
0.683569
0.703307
0.71223
0.731759
0.394634
0.374731
0.359825
0.347698
0.339091
0.33386
0.332173
0.333737
0.338957
0.347135
0.35936
0.373833
0.393604
0.413291
0.442083
0.459911
0.453037
0.458979
0.466496
0.478337
0.494703
0.51551
0.540123
0.567599
0.595873
0.623688
0.64711
0.668128
0.678417
0.69988
0.344727
0.325289
0.311033
0.299688
0.291899
0.287494
0.286622
0.288897
0.294803
0.303451
0.316261
0.33092
0.351426
0.370968
0.401002
0.417721
0.407659
0.412096
0.41867
0.430041
0.446511
0.46788
0.493447
0.522138
0.551827
0.581115
0.60614
0.628795
0.640857
0.663784
0.291599
0.272898
0.259506
0.249127
0.242289
0.23878
0.238711
0.241594
0.247952
0.256729
0.269577
0.283875
0.304264
0.323387
0.353762
0.370403
0.359302
0.363488
0.370314
0.382147
0.399338
0.421557
0.448041
0.477641
0.508263
0.538448
0.564564
0.588311
0.601824
0.625285
0.235648
0.21776
0.20533
0.196059
0.19036
0.187985
0.188994
0.192809
0.199938
0.209201
0.222312
0.236495
0.256585
0.275135
0.304786
0.320875
0.309859
0.314154
0.321682
0.334411
0.352647
0.375922
0.403408
0.433896
0.465356
0.496288
0.523328
0.547894
0.562637
0.585832
0.176891
0.160074
0.148872
0.141007
0.136769
0.135872
0.138304
0.14341
0.151616
0.161671
0.175201
0.189443
0.209081
0.227041
0.255401
0.270945
0.261896
0.267511
0.276749
0.291097
0.31072
0.335065
0.363301
0.394247
0.426021
0.45715
0.484589
0.509415
0.52491
0.546999
0.115789
0.100361
0.0907288
0.0846581
0.082317
0.0833783
0.0877385
0.0946813
0.104499
0.11591
0.130318
0.145098
0.164473
0.182053
0.208775
0.223962
0.218512
0.226256
0.237661
0.253816
0.274752
0.299921
0.328546
0.359529
0.391165
0.422038
0.449409
0.473979
0.489734
0.509999
0.0529134
0.0393349
0.0317547
0.0280051
0.0281274
0.031744
0.0386433
0.0480533
0.060092
0.0734851
0.0893213
0.105203
0.124697
0.142289
0.16741
0.182612
0.181908
0.192326
0.206101
0.22402
0.246016
0.271621
0.300171
0.330701
0.361702
0.391833
0.418637
0.442426
0.45792
0.475775
-0.0107659
-0.0219094
-0.0268422
-0.0276507
-0.0244252
-0.0176088
-0.00753529
0.00497262
0.0198403
0.0358247
0.0536635
0.0712341
0.0913577
0.109461
0.133312
0.148985
0.153414
0.166545
0.182465
0.201779
0.224402
0.250003
0.278058
0.30774
0.337726
0.366743
0.392568
0.415133
0.429904
0.444932
-0.0739191
-0.0819467
-0.0835751
-0.0807996
-0.0738496
-0.0632506
-0.0494661
-0.0333647
-0.015209
0.00380869
0.0240898
0.0438013
0.0650409
0.0841303
0.107234
0.123771
0.13297
0.148472
0.166088
0.186333
0.209164
0.234401
0.261655
0.290228
0.318951
0.346602
0.371144
0.39215
0.405826
0.417778
-0.134876
-0.139104
-0.136813
-0.129907
-0.118757
-0.103984
-0.0861763
-0.0662378
-0.0445928
-0.0223651
0.000564373
0.0226432
0.0453461
0.0657697
0.0886988
0.106347
0.119457
0.136788
0.155583
0.176325
0.199049
0.223707
0.25002
0.277387
0.304758
0.330934
0.354021
0.373269
0.385595
0.394379
-0.191813
-0.191681
-0.185032
-0.173673
-0.158111
-0.139065
-0.117228
-0.0935226
-0.0684908
-0.043173
-0.0176578
0.00676106
0.0310721
0.0529983
0.076248
0.0950941
0.111085
0.129701
0.149243
0.170189
0.192654
0.216685
0.242077
0.268296
0.294367
0.319098
0.340691
0.358118
0.368969
0.374623
-0.243025
-0.238239
-0.227081
-0.211262
-0.191409
-0.168319
-0.142763
-0.115656
-0.0876101
-0.0595711
-0.0317597
-0.00524054
0.0206271
0.0440482
0.067963
0.0879694
0.105915
0.125404
0.145415
0.166439
0.18865
0.212149
0.236772
0.26202
0.28696
0.310388
0.330572
0.346246
0.355621
0.358288
-0.287242
-0.277859
-0.262389
-0.242442
-0.218736
-0.192119
-0.163401
-0.133468
-0.10296
-0.0727203
-0.043042
-0.0147926
0.0124353
0.0372101
0.0619592
0.0830219
0.102247
0.122368
0.142736
0.163855
0.185932
0.20909
0.233178
0.257709
0.281769
0.304123
0.323086
0.337187
0.345197
0.345109
-0.323858
-0.310295
-0.291033
-0.267572
-0.240683
-0.211238
-0.180051
-0.147963
-0.115607
-0.0837303
-0.0526557
-0.0230884
0.00522979
0.0311412
0.0567371
0.0787327
0.0988417
0.119508
0.140243
0.161566
0.18369
0.206741
0.230564
0.254668
0.278137
0.299707
0.317712
0.330509
0.337355
0.33482
-0.353
-0.335962
-0.313649
-0.287452
-0.258162
-0.226646
-0.193699
-0.160108
-0.126483
-0.0934871
-0.0614492
-0.0309471
-0.00181725
0.0249939
0.0513369
0.0741506
0.094978
0.1162
0.137384
0.159053
0.181417
0.204592
0.228413
0.252378
0.275563
0.296662
0.314023
0.325843
0.331792
0.327191
-0.375441
-0.355784
-0.331251
-0.303129
-0.272204
-0.239321
-0.205242
-0.170703
-0.136288
-0.102588
-0.0699335
-0.0388052
-0.00910329
0.018394
0.0453292
0.0688666
0.0903954
0.112226
0.133956
0.156103
0.178874
0.202369
0.226419
0.250508
0.2737
0.294651
0.311704
0.322905
0.328253
0.322029
-0.392377
-0.370968
-0.345006
-0.315691
-0.283789
-0.250116
-0.2154
-0.180333
-0.145474
-0.111365
-0.0783343
-0.0467967
-0.0166979
0.0113208
0.03869
0.0628795
0.0851611
0.107652
0.130005
0.152725
0.176018
0.199982
0.224444
0.248883
0.272352
0.293468
0.310552
0.321499
0.326533
0.319174
-0.40513
-0.382729
-0.355994
-0.326065
-0.293685
-0.25964
-0.22463
-0.189313
-0.154231
-0.119894
-0.0866302
-0.0548145
-0.0244285
0.00399936
0.031673
0.0564565
0.079548
0.102724
0.125736
0.149072
0.17295
0.197476
0.222483
0.247455
0.271435
0.293003
0.310437
0.321473
0.326438
0.318426
-0.41497
-0.39216
-0.365122
-0.334974
-0.30244
-0.26828
-0.233172
-0.197753
-0.162553
-0.128067
-0.0946279
-0.0625871
-0.0319582
-0.00317861
0.0247272
0.0500534
0.0739571
0.0977904
0.121438
0.145374
0.169843
0.194968
0.220604
0.246247
0.270939
0.29322
0.3113
0.322734
0.327789
0.319507
-0.42372
-0.400894
-0.373822
-0.343668
-0.311139
-0.276973
-0.241836
-0.206348
-0.171036
-0.136386
-0.10274
-0.0704437
-0.0395381
-0.0103949
0.0177621
0.043627
0.0683055
0.0927501
0.116988
0.14149
0.166546
0.192319
0.218702
0.245217
0.270915
0.294296
0.313457
0.325706
0.330946
0.322295
-0.432838
-0.410205
-0.383186
-0.353081
-0.320594
-0.286442
-0.251275
-0.215705
-0.180258
-0.145418
-0.111534
-0.0789597
-0.0477577
-0.0182783
0.0101325
0.0365462
0.0620364
0.0871443
0.111993
0.137079
0.162764
0.189275
0.216565
0.244206
0.27127
0.29622
0.317005
0.330581
0.336174
0.326362
0.448019
0.448019
0.448023
0.448031
0.448042
0.448058
0.448077
0.448099
0.448124
0.448152
0.448183
0.448216
0.44825
0.448287
0.448325
0.448364
0.448405
0.448446
0.448488
0.44853
0.448572
0.448615
0.448657
0.448698
0.44942
0.44942
0.449425
0.449433
0.449446
0.449462
0.449483
0.449507
0.449535
0.449565
0.449598
0.449634
0.449671
0.449711
0.449752
0.449794
0.449838
0.449883
0.449928
0.449974
0.45002
0.450065
0.450111
0.450155
0.450818
0.450818
0.450823
0.450832
0.450846
0.450864
0.450886
0.450913
0.450942
0.450975
0.451011
0.451049
0.45109
0.451133
0.451177
0.451223
0.451271
0.451319
0.451368
0.451417
0.451467
0.451516
0.451566
0.451614
0.452212
0.452212
0.452218
0.452228
0.452242
0.452262
0.452286
0.452315
0.452347
0.452383
0.452422
0.452463
0.452507
0.452553
0.452601
0.452651
0.452702
0.452754
0.452807
0.452861
0.452915
0.452968
0.453021
0.453073
0.453601
0.453602
0.453609
0.453619
0.453635
0.453656
0.453683
0.453714
0.453749
0.453787
0.453829
0.453874
0.453922
0.453972
0.454024
0.454077
0.454133
0.454189
0.454246
0.454304
0.454362
0.45442
0.454477
0.454534
0.454987
0.454988
0.454995
0.455006
0.455024
0.455047
0.455076
0.455109
0.455147
0.455189
0.455234
0.455283
0.455334
0.455388
0.455444
0.455502
0.455562
0.455623
0.455685
0.455747
0.45581
0.455872
0.455934
0.455996
0.456368
0.456369
0.456377
0.456389
0.456408
0.456433
0.456464
0.456501
0.456542
0.456587
0.456636
0.456688
0.456744
0.456802
0.456863
0.456925
0.45699
0.457056
0.457123
0.45719
0.457258
0.457325
0.457392
0.457458
0.457744
0.457745
0.457754
0.457767
0.457788
0.457815
0.457849
0.457888
0.457932
0.457981
0.458034
0.458091
0.458151
0.458214
0.458279
0.458347
0.458416
0.458488
0.45856
0.458633
0.458706
0.458779
0.458851
0.458923
0.459114
0.459116
0.459125
0.45914
0.459162
0.459192
0.459228
0.459271
0.459319
0.459372
0.459429
0.45949
0.459555
0.459623
0.459693
0.459766
0.459842
0.459918
0.459996
0.460075
0.460154
0.460233
0.460311
0.460388
0.460479
0.460481
0.460491
0.460507
0.460531
0.460563
0.460603
0.460649
0.460701
0.460758
0.46082
0.460886
0.460956
0.461029
0.461105
0.461184
0.461265
0.461348
0.461432
0.461517
0.461602
0.461687
0.461772
0.461855
0.461838
0.46184
0.461851
0.461868
0.461895
0.461929
0.461972
0.462022
0.462078
0.46214
0.462206
0.462278
0.462353
0.462432
0.462514
0.462599
0.462687
0.462776
0.462867
0.462958
0.46305
0.463142
0.463234
0.463324
0.46319
0.463192
0.463204
0.463223
0.463252
0.463289
0.463335
0.463389
0.46345
0.463516
0.463588
0.463665
0.463746
0.463832
0.46392
0.464012
0.464106
0.464203
0.4643
0.464399
0.464499
0.464598
0.464697
0.464794
0.464535
0.464538
0.46455
0.464571
0.464602
0.464643
0.464693
0.464751
0.464816
0.464888
0.464966
0.465049
0.465136
0.465228
0.465323
0.465422
0.465524
0.465628
0.465733
0.46584
0.465947
0.466054
0.466161
0.466266
0.465872
0.465876
0.465889
0.465912
0.465945
0.465989
0.466043
0.466106
0.466177
0.466254
0.466338
0.466427
0.466521
0.46662
0.466723
0.46683
0.466939
0.467051
0.467165
0.46728
0.467395
0.467511
0.467626
0.46774
0.467202
0.467205
0.46722
0.467245
0.467281
0.467328
0.467387
0.467455
0.467531
0.467614
0.467704
0.4678
0.467902
0.468008
0.468119
0.468234
0.468352
0.468472
0.468595
0.468719
0.468844
0.468969
0.469093
0.469216
0.468522
0.468527
0.468543
0.468569
0.468609
0.46866
0.468723
0.468796
0.468878
0.468968
0.469065
0.469168
0.469278
0.469392
0.469511
0.469635
0.469762
0.469891
0.470024
0.470157
0.470292
0.470427
0.470561
0.470693
0.469834
0.469839
0.469857
0.469885
0.469927
0.469983
0.470051
0.47013
0.470218
0.470315
0.470419
0.47053
0.470648
0.470771
0.470899
0.471032
0.471168
0.471308
0.47145
0.471595
0.47174
0.471885
0.47203
0.472173
0.471136
0.471141
0.47116
0.471191
0.471237
0.471297
0.47137
0.471455
0.47155
0.471654
0.471767
0.471886
0.472012
0.472145
0.472282
0.472425
0.472572
0.472722
0.472876
0.473031
0.473187
0.473344
0.4735
0.473655
0.472427
0.472434
0.472454
0.472488
0.472537
0.472601
0.47268
0.472772
0.472874
0.472986
0.473106
0.473235
0.47337
0.473513
0.473661
0.473814
0.473972
0.474134
0.474298
0.474465
0.474634
0.474803
0.474972
0.475139
0.473707
0.473715
0.473737
0.473773
0.473826
0.473896
0.473981
0.474079
0.474189
0.474309
0.474439
0.474576
0.474722
0.474874
0.475033
0.475198
0.475368
0.475542
0.475719
0.475899
0.47608
0.476262
0.476444
0.476625
0.474976
0.474984
0.475008
0.475047
0.475104
0.475179
0.475271
0.475376
0.475494
0.475623
0.475762
0.47591
0.476066
0.47623
0.4764
0.476577
0.476759
0.476946
0.477136
0.47733
0.477525
0.477722
0.477918
0.478113
0.476232
0.476241
0.476267
0.476309
0.476371
0.476452
0.47655
0.476663
0.47679
0.476928
0.477077
0.477235
0.477402
0.477578
0.477761
0.47795
0.478146
0.478346
0.478551
0.478759
0.478969
0.479181
0.479393
0.479603
0.477474
0.477485
0.477513
0.477559
0.477625
0.477712
0.477817
0.477939
0.478074
0.478223
0.478382
0.478551
0.47873
0.478918
0.479114
0.479317
0.479527
0.479742
0.479962
0.480185
0.480412
0.48064
0.480868
0.481095
0.478703
0.478715
0.478745
0.478795
0.478866
0.478959
0.479072
0.479202
0.479347
0.479506
0.479676
0.479858
0.480049
0.48025
0.48046
0.480677
0.480902
0.481132
0.481369
0.481609
0.481852
0.482098
0.482344
0.482589
0.479917
0.479931
0.479963
0.480016
0.480092
0.480192
0.480313
0.480453
0.480608
0.480778
0.48096
0.481154
0.481358
0.481573
0.481797
0.482029
0.48227
0.482517
0.482771