/*--------------------------------*- C++ -*----------------------------------*\
| =========                 |                                                 |
| \\      /  F ield         | OpenFOAM Extend Project: Open source CFD        |
|  \\    /   O peration     | Version:  1.6-ext                               |
|   \\  /    A nd           | Web:      www.extend-project.de                 |
|    \\/     M anipulation  |                                                 |
\*---------------------------------------------------------------------------*/
FoamFile
{
    version     2.0;
    format      ascii;
    class       surfaceScalarField;
    location    "0.15";
    object      phi;
}
// * * * * * * * * * * * * * * * * * * * * * * * * * * * * * * * * * * * * * //

dimensions      [0 3 -1 0 0 0 0];

internalField   nonuniform List<scalar> 
41420
(
-7.83472e-05
0.000344341
-0.000345363
7.93693e-05
-7.72395e-05
0.000328497
-0.000329605
-7.60425e-05
0.000313384
-0.000314581
-7.47357e-05
0.000298764
-0.000300071
-7.32592e-05
0.000284509
-0.000285986
-7.15061e-05
0.000270379
-0.000272133
-6.93215e-05
0.000256053
-0.000258237
-6.6519e-05
0.000241123
-0.000243926
-6.29163e-05
0.000225166
-0.000228769
-5.83858e-05
0.000207834
-0.000212365
-5.29039e-05
0.000188963
-0.000194444
-4.6582e-05
0.00016865
-0.000174972
-3.96645e-05
0.000147282
-0.000154199
-3.24937e-05
0.000125473
-0.000132644
-2.54517e-05
0.000103965
-0.000111007
-1.89e-05
8.34893e-05
-9.0041e-05
-1.31311e-05
6.46604e-05
-7.04293e-05
-8.34459e-06
4.79047e-05
-5.26912e-05
-4.64454e-06
3.34426e-05
-3.71427e-05
-2.0529e-06
2.13072e-05
-2.38989e-05
-5.30858e-07
1.13861e-05
-1.29082e-05
3.46963e-06
-4.00049e-06
-7.81144e-05
0.000343449
7.90063e-05
-7.71481e-05
0.000327531
-7.60886e-05
0.000312324
-7.48986e-05
0.000297574
-7.34963e-05
0.000283107
-7.17517e-05
0.000268635
-6.94915e-05
0.000253793
-6.65234e-05
0.000238155
-6.26783e-05
0.000221321
-5.78621e-05
0.000203018
-5.20992e-05
0.0001832
-4.55509e-05
0.000162102
-3.85009e-05
0.000140232
-3.13089e-05
0.000118281
-2.43516e-05
9.70075e-05
-1.79647e-05
7.71024e-05
-1.24056e-05
5.91013e-05
-7.83767e-06
4.33368e-05
-4.33474e-06
2.99397e-05
-1.89849e-06
1.8871e-05
-4.79765e-07
9.96738e-06
2.98986e-06
-8.38418e-05
0.000342241
8.50497e-05
-8.25962e-05
0.000326285
-8.1271e-05
0.000310999
-7.98051e-05
0.000296108
-7.80872e-05
0.000281389
-7.59585e-05
0.000266506
-7.32242e-05
0.000251058
-6.96872e-05
0.000234618
-6.51969e-05
0.000216831
-5.97005e-05
0.000197522
-5.32787e-05
0.000176778
-4.61508e-05
0.000154974
-3.86444e-05
0.000132725
-3.11411e-05
0.000110778
-2.40137e-05
8.98801e-05
-1.75749e-05
7.06636e-05
-1.2048e-05
5.35745e-05
-7.56041e-06
3.88492e-05
-4.15436e-06
2.65336e-05
-1.80709e-06
1.65237e-05
-4.52426e-07
8.61272e-06
2.53744e-06
-8.88204e-05
0.000340748
9.03137e-05
-8.73289e-05
0.000324794
-8.57684e-05
0.000309439
-8.40504e-05
0.00029439
-8.20315e-05
0.00027937
-7.95237e-05
0.000263998
-7.6315e-05
0.00024785
-7.22113e-05
0.000230514
-6.70901e-05
0.00021171
-6.09481e-05
0.00019138
-5.39256e-05
0.000169755
-4.62963e-05
0.000147345
-3.84241e-05
0.000124853
-3.07012e-05
0.000103055
-2.34873e-05
8.26662e-05
-1.70657e-05
6.4242e-05
-1.16231e-05
4.81319e-05
-7.25148e-06
3.44776e-05
-3.96384e-06
2.3246e-05
-1.71591e-06
1.42758e-05
-4.27491e-07
7.3243e-06
2.10995e-06
-9.24772e-05
0.000339033
9.4192e-05
-9.08049e-05
0.000323122
-8.90702e-05
0.000307704
-8.71559e-05
0.000292476
-8.48845e-05
0.000277098
-8.20414e-05
0.000261155
-7.84026e-05
0.000244211
-7.37859e-05
0.000225898
-6.81046e-05
0.000206029
-6.14093e-05
0.000184684
-5.38986e-05
0.000162245
-4.58935e-05
0.00013934
-3.77831e-05
0.000116743
-2.99591e-05
9.52314e-05
-2.27595e-05
7.54666e-05
-1.64334e-05
5.79159e-05
-1.11309e-05
4.28293e-05
-6.91112e-06
3.02579e-05
-3.76201e-06
2.00969e-05
-1.62248e-06
1.21363e-05
-4.0272e-07
6.10454e-06
1.70723e-06
-9.47795e-05
0.000337168
9.66443e-05
-9.29983e-05
0.00032134
-9.1156e-05
0.000305862
-8.91057e-05
0.000290425
-8.66352e-05
0.000274628
-8.35079e-05
0.000258028
-7.94954e-05
0.000240198
-7.44352e-05
0.000220837
-6.82831e-05
0.000199876
-6.11447e-05
0.000177546
-5.32719e-05
0.000154372
-4.50231e-05
0.000131091
-3.68007e-05
0.00010852
-2.89858e-05
8.74164e-05
-2.18882e-05
6.8369e-05
-1.57215e-05
5.17492e-05
-1.06009e-05
3.77086e-05
-6.55701e-06
2.6214e-05
-3.55777e-06
1.70976e-05
-1.53011e-06
1.01086e-05
-3.78763e-07
4.95319e-06
1.32846e-06
-9.56775e-05
0.000335206
9.76396e-05
-9.38428e-05
0.000319506
-9.19474e-05
0.000303966
-8.98172e-05
0.000288295
-8.7207e-05
0.000272018
-8.38623e-05
0.000254683
-7.95562e-05
0.000235892
-7.41515e-05
0.000215433
-6.76481e-05
0.000193373
-6.02031e-05
0.000170101
-5.21129e-05
0.000146282
-4.37614e-05
0.000122739
-3.55527e-05
0.000100312
-2.78489e-05
7.97127e-05
-2.09286e-05
6.14488e-05
-1.49711e-05
4.57917e-05
-1.00609e-05
3.27985e-05
-6.20605e-06
2.23591e-05
-3.35988e-06
1.42515e-05
-1.44231e-06
8.19105e-06
-3.56359e-07
3.86725e-06
9.72105e-07
-9.51659e-05
0.000333211
9.71614e-05
-9.33475e-05
0.000317687
-9.14679e-05
0.000302087
-8.9327e-05
0.000286154
-8.66497e-05
0.000269341
-8.31694e-05
0.000251203
-7.86663e-05
0.000231389
-7.30324e-05
0.000209799
-6.63106e-05
0.000186651
-5.87033e-05
0.000162494
-5.05406e-05
0.000138119
-4.22199e-05
0.000114419
-3.41369e-05
9.22286e-05
-2.6629e-05
7.22048e-05
-1.9943e-05
5.47627e-05
-1.42269e-05
4.00756e-05
-9.54085e-06
2.81124e-05
-5.87624e-06
1.86945e-05
-3.17786e-06
1.15531e-05
-1.36307e-06
6.37626e-06
-3.36513e-07
2.84069e-06
6.35592e-07
-9.32599e-05
0.000331191
9.5279e-05
-9.14771e-05
0.000315904
-8.9646e-05
0.000300256
-8.75478e-05
0.000284056
-8.48805e-05
0.000266673
-8.13688e-05
0.000247691
-7.67997e-05
0.00022682
-7.109e-05
0.000204089
-6.43175e-05
0.000179879
-5.67176e-05
0.000154894
-4.86405e-05
0.000130042
-4.04852e-05
0.000106263
-3.26318e-05
8.43753e-05
-2.53914e-05
6.49643e-05
-1.89814e-05
4.83528e-05
-1.35249e-05
3.46192e-05
-9.06439e-06
2.36518e-05
-5.58168e-06
1.52118e-05
-3.01882e-06
8.99023e-06
-1.2951e-06
4.65253e-06
-3.19713e-07
1.86531e-06
3.1588e-07
-9.00255e-05
0.000329203
9.20138e-05
-8.83412e-05
0.00031422
-8.66256e-05
0.00029854
-8.46454e-05
0.000282076
-8.2078e-05
0.000264106
-7.86447e-05
0.000244258
-7.4142e-05
0.000222317
-6.85079e-05
0.000198455
-6.18455e-05
0.000173216
-5.44107e-05
0.000147459
-4.65604e-05
0.000122191
-3.86844e-05
9.83875e-05
-3.11418e-05
7.68327e-05
-2.42173e-05
5.80398e-05
-1.81043e-05
4.22397e-05
-1.29076e-05
2.94225e-05
-8.65964e-06
1.94039e-05
-5.33964e-06
1.18918e-05
-2.89226e-06
6.54285e-06
-1.24266e-06
3.00293e-06
-3.07158e-07
9.298e-07
8.722e-09
-8.55278e-05
0.000327166
8.75647e-05
-8.38798e-05
0.000312572
-8.22591e-05
0.000296919
-8.04261e-05
0.000280243
-7.80428e-05
0.000261723
-7.48227e-05
0.000241038
-7.05617e-05
0.000218056
-6.52041e-05
0.000193097
-5.88592e-05
0.000166871
-5.17832e-05
0.000140383
-4.4324e-05
0.000114732
-3.68529e-05
9.09164e-05
-2.9705e-05
6.96848e-05
-2.31425e-05
5.14773e-05
-1.73414e-05
3.64386e-05
-1.23977e-05
2.44788e-05
-8.34253e-06
1.53487e-05
-5.16001e-06
8.70932e-06
-2.80334e-06
4.18618e-06
-1.20765e-06
1.40725e-06
-2.99038e-07
2.1187e-08
-2.90316e-07
-8.00378e-05
0.000325181
8.20231e-05
-7.85054e-05
0.00031104
-7.70454e-05
0.000295459
-7.54169e-05
0.000278614
-7.32861e-05
0.000259592
-7.03689e-05
0.00023812
-6.64639e-05
0.000214151
-6.1516e-05
0.00018815
-5.56298e-05
0.000160985
-4.90475e-05
0.000133801
-4.20941e-05
0.000107779
-3.51134e-05
8.39356e-05
-2.84133e-05
6.29847e-05
-2.2235e-05
4.52991e-05
-1.67432e-05
3.09468e-05
-1.20322e-05
1.97678e-05
-8.13941e-06
1.14559e-05
-5.0606e-06
5.63051e-06
-2.76303e-06
1.8886e-06
-1.19584e-06
-1.59943e-07
-2.97428e-07
-8.77221e-07
-5.87745e-07
-7.35106e-05
0.000322979
7.57128e-05
-7.18591e-05
0.000309388
-7.0455e-05
0.000294055
-6.90203e-05
0.00027718
-6.72231e-05
0.000257795
-6.47607e-05
0.000235658
-6.14146e-05
0.000210805
-5.71042e-05
0.000183839
-5.19038e-05
0.000155785
-4.60203e-05
0.000127917
-3.97416e-05
0.0001015
-3.33766e-05
7.75707e-05
-2.72066e-05
5.68147e-05
-2.14563e-05
3.95488e-05
-1.62865e-05
2.57769e-05
-1.1798e-05
1.52793e-05
-8.04347e-06
7.70134e-06
-5.0379e-06
2.62494e-06
-2.76911e-06
-3.80185e-07
-1.20529e-06
-1.72376e-06
-3.00869e-07
-1.78164e-06
-8.88613e-07
-6.67574e-05
0.000320955
6.87816e-05
-6.51579e-05
0.000307789
-6.3848e-05
0.000292745
-6.25828e-05
0.000275914
-6.10813e-05
0.000256293
-5.90496e-05
0.000233626
-5.62654e-05
0.000208021
-5.26242e-05
0.000180198
-4.81615e-05
0.000151322
-4.30375e-05
0.000122793
-3.74918e-05
9.59544e-05
-3.17903e-05
7.18691e-05
-2.61814e-05
5.12059e-05
-2.08717e-05
3.4239e-05
-1.60179e-05
2.09232e-05
-1.17312e-05
1.09926e-05
-8.08342e-06
4.05355e-06
-5.11474e-06
-3.43744e-07
-2.83901e-06
-2.65591e-06
-1.24811e-06
-3.31467e-06
-3.15542e-07
-2.71421e-06
-1.20416e-06
-5.88556e-05
0.000318491
6.13187e-05
-5.67566e-05
0.00030569
-5.53964e-05
0.000291385
-5.42934e-05
0.000274811
-5.32048e-05
0.000255204
-5.18057e-05
0.000232227
-4.98399e-05
0.000206055
-4.71474e-05
0.000177506
-4.36984e-05
0.000147873
-3.95835e-05
0.000118678
-3.49781e-05
9.1349e-05
-3.0097e-05
6.6988e-05
-2.51557e-05
4.62645e-05
-2.03478e-05
2.94312e-05
-1.5836e-05
1.64114e-05
-1.17507e-05
6.90731e-06
-8.19285e-06
4.95689e-07
-5.23601e-06
-3.30058e-06
-2.92787e-06
-4.96404e-06
-1.29073e-06
-4.95181e-06
-3.22927e-07
-3.68201e-06
-1.52708e-06
-0.000276403
0.000301497
0.000293397
-0.000259431
0.000288718
-0.000241657
0.000273611
-0.000222394
0.000255549
-0.000201408
0.000234218
-0.000178764
0.000209584
-0.000154997
0.000182288
-0.000130967
0.000153475
-0.000107681
0.000124587
-8.60746e-05
9.70723e-05
-6.68477e-05
7.21222e-05
-5.03896e-05
5.05299e-05
-3.67975e-05
3.26724e-05
-2.59439e-05
1.85776e-05
-1.7559e-05
8.0265e-06
-1.13021e-05
6.504e-07
-6.81372e-06
-3.99272e-06
-3.74814e-06
-6.36616e-06
-1.79087e-06
-6.92131e-06
-6.65389e-07
-6.07729e-06
-1.34668e-07
-4.21273e-06
-1.66175e-06
-0.000266439
0.000283962
0.000283973
-0.000248319
0.000270598
-0.000228926
0.000254218
-0.000207959
0.000234582
-0.000185469
0.000211727
-0.000161842
0.000185957
-0.000137846
0.000158292
-0.000114415
0.000130044
-9.2472e-05
0.000102644
-7.2744e-05
7.73443e-05
-5.56747e-05
5.50529e-05
-4.14172e-05
3.62724e-05
-2.9889e-05
2.11442e-05
-2.08502e-05
9.53883e-06
-1.39774e-05
1.1537e-06
-8.91987e-06
-4.40712e-06
-5.33639e-06
-7.5762e-06
-2.91548e-06
-8.78707e-06
-1.38438e-06
-8.45242e-06
-5.10796e-07
-6.95087e-06
-1.0144e-07
-4.62209e-06
-1.76319e-06
-0.000253713
0.000265135
0.000272541
-0.000233991
0.000250877
-0.000212897
0.000233123
-0.000190464
0.00021215
-0.000166987
0.00018825
-0.000143099
0.00016207
-0.000119661
0.000134854
-9.75511e-05
0.000107934
-7.75075e-05
8.26001e-05
-6.00129e-05
5.98497e-05
-4.5269e-05
4.0309e-05
-3.32353e-05
2.42387e-05
-2.37004e-05
1.16093e-05
-1.63568e-05
2.1952e-06
-1.08604e-05
-4.34272e-06
-6.87197e-06
-8.39555e-06
-4.08075e-06
-1.03674e-05
-2.21533e-06
-1.06525e-05
-1.04635e-06
-9.62141e-06
-3.84301e-07
-7.61292e-06
-7.58636e-08
-4.93052e-06
-1.83905e-06
-0.000238212
0.00024473
0.000258617
-0.000216775
0.00022944
-0.000194172
0.00021052
-0.000170702
0.00018868
-0.000146867
0.000164415
-0.000123435
0.000138638
-0.000101229
0.000112648
-8.09754e-05
8.76805e-05
-6.31791e-05
6.48038e-05
-4.80805e-05
4.47511e-05
-3.56773e-05
2.79058e-05
-2.57862e-05
1.43476e-05
-1.8115e-05
3.93814e-06
-1.23245e-05
-3.59529e-06
-8.0733e-06
-8.59393e-06
-5.04521e-06
-1.14236e-05
-2.96327e-06
-1.24494e-05
-1.5945e-06
-1.20213e-05
-7.48821e-07
-1.04671e-05
-2.74954e-07
-8.08679e-06
-5.50222e-08
-5.15046e-06
-1.89408e-06
-0.000219837
0.00022263
0.000241938
-0.000196851
0.000206453
-0.000173167
0.000186836
-0.000149268
0.000164781
-0.000125781
0.000140928
-0.000103479
0.000116335
-8.30493e-05
9.22191e-05
-6.50095e-05
6.96407e-05
-4.96302e-05
4.94245e-05
-3.69451e-05
3.2066e-05
-2.67995e-05
1.77601e-05
-1.89173e-05
6.46545e-06
-1.29638e-05
-2.01535e-06
-8.59273e-06
-7.9664e-06
-5.47754e-06
-1.17091e-05
-3.32882e-06
-1.35723e-05
-1.90179e-06
-1.38764e-05
-9.97043e-07
-1.2926e-05
-4.58064e-07
-1.10061e-05
-1.65827e-07
-8.37902e-06
-3.3309e-08
-5.28297e-06
-1.92738e-06
-0.000198898
0.000198982
0.000222546
-0.000174759
0.000182315
-0.000150567
0.000162643
-0.000126899
0.000141113
-0.000104409
0.000118438
-8.37642e-05
9.56905e-05
-6.54671e-05
7.3922e-05
-4.98134e-05
5.39871e-05
-3.68693e-05
3.64803e-05
-2.65105e-05
2.17072e-05
-1.84806e-05
9.73029e-06
-1.24517e-05
4.36546e-07
-8.07324e-06
-6.39384e-06
-5.00621e-06
-1.10334e-05
-2.94373e-06
-1.37716e-05
-1.62161e-06
-1.48945e-05
-8.22024e-07
-1.4676e-05
-3.72895e-07
-1.33751e-05
-1.44184e-07
-1.12348e-05
-4.28795e-08
-8.48033e-06
-6.90035e-09
-5.31895e-06
-1.93429e-06
-0.000176177
0.000174123
0.000201036
-0.000151408
0.000157546
-0.000127303
0.000138539
-0.000104453
0.000118264
-8.34456e-05
9.74301e-05
-6.47833e-05
7.70281e-05
-4.87672e-05
5.79059e-05
-3.54961e-05
4.0716e-05
-2.4877e-05
2.58611e-05
-1.66774e-05
1.35076e-05
-1.05814e-05
3.63427e-06
-6.2382e-06
-3.90663e-06
-3.29833e-06
-9.33371e-06
-1.43647e-06
-1.28953e-05
-3.64726e-07
-1.48433e-05
1.6083e-07
-1.542e-05
3.38191e-07
-1.48534e-05
3.20238e-07
-1.33572e-05
2.1812e-07
-1.11327e-05
1.06165e-07
-8.36837e-06
2.76435e-08
-5.24043e-06
-1.90664e-06
-0.000152444
0.000148536
0.000178031
-0.000127618
0.000132719
-0.000104156
0.000115077
-8.25895e-05
9.66969e-05
-6.3378e-05
7.82187e-05
-4.68396e-05
6.04897e-05
-3.30934e-05
4.41597e-05
-2.20814e-05
2.97039e-05
-1.35999e-05
1.73797e-05
-7.35188e-06
7.25961e-06
-2.99328e-06
-7.24334e-07
-1.6999e-07
-6.72991e-06
1.45757e-06
-1.09613e-05
2.19957e-06
-1.36373e-05
2.32803e-06
-1.49718e-05
2.0728e-06
-1.51648e-05
1.61943e-06
-1.44e-05
1.11016e-06
-1.28479e-05
6.45501e-07
-1.0668e-05
2.8918e-07
-8.01205e-06
7.25242e-08
-5.02378e-06
-1.83412e-06
-0.000128752
0.000122727
0.000154561
-0.000104376
0.000108343
-8.19782e-05
9.26793e-05
-6.19756e-05
7.66943e-05
-4.4678e-05
6.09211e-05
-3.02306e-05
4.60423e-05
-1.86071e-05
3.25362e-05
-9.6384e-06
2.07353e-05
-3.05365e-06
1.07949e-05
1.47627e-06
2.72969e-06
4.30225e-06
-3.55032e-06
5.7712e-06
-8.19886e-06
6.20972e-06
-1.13998e-05
5.91418e-06
-1.33417e-05
5.14537e-06
-1.4203e-05
4.12438e-06
-1.41438e-05
3.03175e-06
-1.33074e-05
2.00573e-06
-1.18219e-05
1.14505e-06
-9.80732e-06
5.10243e-07
-7.37724e-06
1.29145e-07
-4.64268e-06
-1.70497e-06
-0.000106176
9.71413e-05
0.000131762
-8.26217e-05
8.47887e-05
-6.15294e-05
7.15869e-05
-4.31813e-05
5.83463e-05
-2.77428e-05
4.54826e-05
-1.52198e-05
3.35192e-05
-5.48196e-06
2.27984e-05
1.70847e-06
1.35448e-05
6.65778e-06
5.84562e-06
9.7062e-06
-3.18733e-07
1.12012e-05
-5.04531e-06
1.14794e-05
-8.47704e-06
1.08551e-05
-1.07756e-05
9.61418e-06
-1.21008e-05
8.00872e-06
-1.25975e-05
6.25568e-06
-1.23908e-05
4.53337e-06
-1.1585e-05
2.98257e-06
-1.02711e-05
1.70461e-06
-8.52936e-06
7.6564e-07
-6.43827e-06
1.97008e-07
-4.07404e-06
-1.50796e-06
-8.55706e-05
7.20735e-05
0.000110638
-6.30269e-05
6.2245e-05
-4.33048e-05
5.18648e-05
-2.65525e-05
4.1594e-05
-1.28148e-05
3.17449e-05
-1.99662e-06
2.2701e-05
6.10181e-06
1.46999e-05
1.17596e-05
7.88706e-06
1.53019e-05
2.3033e-06
1.70735e-05
-2.09032e-06
1.74178e-05
-5.38962e-06
1.66632e-05
-7.72243e-06
1.51142e-05
-9.22662e-06
1.30465e-05
-1.0033e-05
1.0704e-05
-1.0255e-05
8.29688e-06
-9.98366e-06
6.00195e-06
-9.29011e-06
3.9604e-06
-8.22953e-06
2.2805e-06
-6.84945e-06
1.03646e-06
-5.19424e-06
2.71891e-07
-3.30948e-06
-1.23607e-06
-6.69225e-05
4.78549e-05
9.11411e-05
-4.55885e-05
4.09109e-05
-2.73182e-05
3.35945e-05
-1.21499e-05
2.64257e-05
-3.61412e-08
1.96311e-05
9.19009e-06
1.34748e-05
1.57783e-05
8.11172e-06
2.00392e-05
3.62622e-06
2.23153e-05
2.72037e-08
2.29584e-05
-2.73344e-06
2.23112e-05
-4.74245e-06
2.06949e-05
-6.10614e-06
1.84018e-05
-6.93347e-06
1.5692e-05
-7.32324e-06
1.27929e-05
-7.3559e-06
9.90032e-06
-7.09111e-06
7.17955e-06
-6.56934e-06
4.76746e-06
-5.81745e-06
2.77289e-06
-4.85487e-06
1.27905e-06
-3.7004e-06
3.43303e-07
-2.37373e-06
-8.9277e-07
-4.82989e-05
2.55041e-05
7.06496e-05
-2.89624e-05
2.15745e-05
-1.27582e-05
1.73903e-05
3.50512e-07
1.3317e-05
1.04799e-05
9.50165e-06
1.78525e-05
6.1022e-06
2.27609e-05
3.20333e-06
2.5545e-05
8.42144e-07
2.65638e-05
-9.91595e-07
2.61725e-05
-2.34218e-06
2.47051e-05
-3.27502e-06
2.24629e-05
-3.86389e-06
1.97096e-05
-4.1802e-06
1.66715e-05
-4.28515e-06
1.35407e-05
-4.22511e-06
1.048e-05
-4.03037e-06
7.62759e-06
-3.71694e-06
5.10083e-06
-3.29069e-06
2.99878e-06
-2.75282e-06
1.40405e-06
-2.10568e-06
3.84878e-07
-1.35455e-06
-5.07892e-07
-2.70422e-05
7.92021e-06
4.46261e-05
-1.20641e-05
6.59637e-06
1.82317e-07
5.14395e-06
9.75685e-06
3.74247e-06
1.68067e-05
2.45179e-06
2.15757e-05
1.33321e-06
2.43654e-05
4.13661e-07
2.55079e-05
-3.00409e-07
2.53379e-05
-8.21577e-07
2.41704e-05
-1.17463e-06
2.2286e-05
-1.3906e-06
1.99235e-05
-1.50147e-06
1.72795e-05
-1.53618e-06
1.45122e-05
-1.51788e-06
1.17496e-05
-1.46245e-06
9.09731e-06
-1.37811e-06
6.64651e-06
-1.26615e-06
4.4784e-06
-1.12257e-06
2.66667e-06
-9.41098e-07
1.27746e-06
-7.16466e-07
3.68094e-07
-4.45179e-07
-1.39798e-07
-4.41079e-06
1.23819e-05
2.23181e-06
7.41781e-06
1.11986e-05
1.36853e-05
1.50503e-05
1.54931e-05
1.52194e-05
1.44223e-05
1.32701e-05
1.19002e-05
1.04177e-05
8.89904e-06
7.39721e-06
5.94943e-06
4.58461e-06
3.33034e-06
2.21817e-06
1.28589e-06
5.76462e-07
1.36341e-07
0.000297049
2.4494e-05
2.88803e-06
-0.000324431
0.000271152
2.28908e-05
3.00649e-06
0.00024669
2.13821e-05
3.07943e-06
0.000223622
1.99677e-05
3.10048e-06
0.0002019
1.86519e-05
3.07081e-06
0.000181466
1.74365e-05
2.99752e-06
0.000162256
1.63191e-05
2.89097e-06
0.000144199
1.52939e-05
2.7623e-06
0.000127224
1.43535e-05
2.6216e-06
0.000111258
1.3489e-05
2.47695e-06
9.62336e-05
1.26906e-05
2.33406e-06
8.20921e-05
1.19452e-05
2.19621e-06
6.87936e-05
1.12345e-05
2.06407e-06
5.63275e-05
1.05307e-05
1.93541e-06
4.47266e-05
9.796e-06
1.80492e-06
3.40768e-05
8.98531e-06
1.66448e-06
2.45193e-05
8.05305e-06
1.50442e-06
1.62412e-05
6.96268e-06
1.3154e-06
9.45545e-06
5.69522e-06
1.09056e-06
4.37379e-06
4.25446e-06
8.27203e-07
1.17861e-06
2.66768e-06
5.27498e-07
9.80739e-07
1.97868e-07
0.000296447
5.18056e-05
-0.000323758
0.000270618
4.87199e-05
0.00024622
4.57799e-05
0.000223211
4.29765e-05
0.000201543
4.03201e-05
0.000181158
3.78212e-05
0.000161992
3.54849e-05
0.000143975
3.33109e-05
0.000127035
3.12942e-05
0.000111098
2.94251e-05
9.60996e-05
2.76894e-05
8.19801e-05
2.60648e-05
6.87001e-05
2.45144e-05
5.62499e-05
2.29809e-05
4.46629e-05
2.13831e-05
3.40257e-05
1.96225e-05
2.44801e-05
1.75986e-05
1.62134e-05
1.52294e-05
9.43814e-06
1.24705e-05
4.36536e-06
9.32724e-06
1.17628e-06
5.85677e-06
2.15702e-06
0.000294782
7.8939e-05
-0.000321915
0.000269117
7.43846e-05
0.000244871
7.00254e-05
0.000222006
6.58417e-05
0.000200474
6.18528e-05
0.000180216
5.8079e-05
0.000161168
5.45331e-05
0.000143258
5.12202e-05
0.000126415
4.81372e-05
0.000110567
4.52735e-05
9.56462e-05
4.26103e-05
8.15958e-05
4.01152e-05
6.8377e-05
3.77332e-05
5.59811e-05
3.53767e-05
4.4443e-05
3.29212e-05
3.38506e-05
3.02149e-05
2.43467e-05
2.71025e-05
1.61188e-05
2.34573e-05
9.37867e-06
1.92106e-05
4.33537e-06
1.43705e-05
1.1672e-06
9.02494e-06
3.32421e-06
0.000292364
0.000105803
-0.000319228
0.000266949
9.97989e-05
0.000242935
9.404e-05
0.000220285
8.84911e-05
0.000198954
8.31844e-05
0.000178882
7.81505e-05
0.000160005
7.34103e-05
0.000142251
6.8974e-05
0.000125548
6.48403e-05
0.000109824
6.09971e-05
9.50141e-05
5.74206e-05
8.10611e-05
5.40682e-05
6.79279e-05
5.08664e-05
5.56077e-05
4.76969e-05
4.41373e-05
4.43916e-05
3.3607e-05
4.07453e-05
2.41608e-05
3.65487e-05
1.5987e-05
3.16311e-05
9.29596e-06
2.59015e-05
4.29399e-06
1.93725e-05
1.15495e-06
1.2164e-05
4.47917e-06
0.000289351
0.000132318
-0.000315866
0.000264262
0.000124888
0.000240547
0.000117755
0.000218177
0.000110861
0.000197106
0.000104255
0.000177276
9.79813e-05
0.000158618
9.20676e-05
0.000141063
8.65292e-05
0.000124537
8.13659e-05
0.000108971
7.65637e-05
9.4298e-05
7.20934e-05
8.04643e-05
6.7902e-05
6.7434e-05
6.38967e-05
5.52025e-05
5.99284e-05
4.38093e-05
5.57847e-05
3.33473e-05
5.12073e-05
2.39634e-05
4.59327e-05
1.58467e-05
3.97478e-05
9.20756e-06
3.25407e-05
4.24927e-06
2.43308e-05
1.14144e-06
1.52718e-05
5.62061e-06
0.000286127
0.000158431
-0.00031224
0.000261411
0.000149604
0.000238041
0.000141126
0.000215992
0.00013291
0.000195217
0.00012503
0.000175657
0.000117541
0.000157245
0.00011048
0.000139908
0.000103866
0.000123576
9.76987e-05
0.000108177
9.19627e-05
9.36476e-05
8.66224e-05
7.99357e-05
8.16139e-05
6.70073e-05
7.68252e-05
5.486e-05
7.20756e-05
4.35366e-05
6.71082e-05
3.31331e-05
6.16107e-05
2.38001e-05
5.52657e-05
1.57295e-05
4.78185e-05
9.13229e-06
3.91379e-05
4.21032e-06
2.92528e-05
1.12917e-06
1.8353e-05
6.74978e-06
0.000282881
0.000184099
-0.000308549
0.000258578
0.000173907
0.000235586
0.000164117
0.000213887
0.000154608
0.000193434
0.000145483
0.000174167
0.000136809
0.000156015
0.000128631
0.000138909
0.000120972
0.000122775
0.000113832
0.000107546
0.000107192
9.31592e-05
0.000101009
7.95633e-05
9.52098e-05
6.67267e-05
8.96618e-05
5.46498e-05
8.41524e-05
4.33782e-05
7.83798e-05
3.30128e-05
7.19761e-05
2.37083e-05
6.45702e-05
1.56618e-05
5.5865e-05
9.08664e-06
4.5713e-05
4.18531e-06
3.41541e-05
1.12073e-06
2.14175e-05
7.87051e-06
0.000279773
0.000209282
-0.000304956
0.000255921
0.000197759
0.000233342
0.000186697
0.000212022
0.000175929
0.00019191
0.000165594
0.000172947
0.000155773
0.000155062
0.000146516
0.000138184
0.00013785
0.000122244
0.000129772
0.000107174
0.000122261
9.29155e-05
0.000115268
7.94178e-05
0.000108707
6.66522e-05
0.000102427
5.46211e-05
9.61836e-05
4.3374e-05
8.96268e-05
3.30161e-05
8.23341e-05
2.37094e-05
7.38768e-05
1.56565e-05
6.39179e-05
9.07741e-06
5.22921e-05
4.17632e-06
3.90552e-05
1.11597e-06
2.44779e-05
8.98648e-06
0.00027691
0.000233938
-0.000301566
0.00025354
0.000221129
0.000231396
0.00020884
0.000210472
0.000196854
0.000190714
0.000185352
0.000172062
0.000174425
0.000154446
0.000164132
0.000137795
0.0001545
0.000122041
0.000145526
0.00010712
0.000137183
9.29732e-05
0.000129415
7.95542e-05
0.000122126
6.68353e-05
0.000115146
5.48217e-05
0.000108197
4.35658e-05
0.000100883
3.31793e-05
9.27205e-05
2.38312e-05
8.32249e-05
1.57351e-05
7.2014e-05
9.11831e-06
5.89089e-05
4.19164e-06
4.39819e-05
1.11817e-06
2.75514e-05
1.01047e-05
0.000274332
0.000258008
-0.000298402
0.000251496
0.000243965
0.000229833
0.000230504
0.000209331
0.000217355
0.000189939
0.000204744
0.000171597
0.000192767
0.00015424
0.00018149
0.000137799
0.000170941
0.00012221
0.000161115
0.000107411
0.000151981
9.33486e-05
0.000143478
7.99771e-05
0.000135498
6.72715e-05
0.000127852
5.52389e-05
0.00012023
4.39362e-05
0.000112185
3.3481e-05
0.000103176
2.40534e-05
9.26526e-05
1.58776e-05
8.01898e-05
9.19386e-06
6.55926e-05
4.21983e-06
4.89559e-05
1.12212e-06
3.06491e-05
1.12268e-05
0.000272008
0.000281431
-0.000295431
0.000249739
0.000266234
0.000228579
0.000251663
0.000208523
0.000237412
0.000189517
0.00022375
0.0001715
0.000210784
0.000154407
0.000198582
0.000138176
0.000187172
0.000122745
0.000176546
0.000108058
0.000166668
9.40635e-05
0.000157473
8.07198e-05
0.000148842
6.8003e-05
0.000140569
5.5922e-05
0.000132311
4.45363e-05
0.000123571
3.39712e-05
0.000113741
2.44182e-05
0.000102206
1.61189e-05
8.84892e-05
9.32852e-06
7.2383e-05
4.27731e-06
5.40071e-05
1.13532e-06
3.37911e-05
1.23621e-05
0.00027002
0.000304088
-0.000292678
0.000248406
0.000287849
0.000227803
0.000272266
0.000208205
0.000257009
0.000189574
0.000242381
0.000171859
0.000228499
0.000155003
0.000215438
0.000138948
0.000203227
0.000123639
0.000191855
0.000109025
0.000181283
9.50573e-05
0.00017144
8.16986e-05
0.0001622
6.89269e-05
0.00015334
5.67532e-05
0.000144484
4.52421e-05
0.000135082
3.45279e-05
0.000124455
2.48175e-05
0.000111916
1.63698e-05
9.69368e-05
9.45828e-06
7.92945e-05
4.32426e-06
5.91411e-05
1.14123e-06
3.69741e-05
1.35033e-05
0.000268169
0.00032592
-0.000290001
0.000247231
0.000308787
0.000227231
0.000292267
0.000208142
0.000276098
0.000189926
0.000260597
0.00017254
0.000245885
0.000155936
0.000232042
0.000140065
0.000219098
0.00012488
0.00020704
0.000110335
0.000195828
9.63884e-05
0.000185386
8.30048e-05
0.000175584
7.01634e-05
0.000166182
5.78757e-05
0.000156772
4.62082e-05
0.00014675
3.53037e-05
0.00013536
2.53852e-05
0.000121834
1.6736e-05
0.000105586
9.65525e-06
8.63753e-05
4.40331e-06
6.43931e-05
1.1579e-06
4.02195e-05
1.46612e-05
0.000266494
0.000346655
-0.000287229
0.000246347
0.000328933
0.000226979
0.000311634
0.000208392
0.000294685
0.000190567
0.000278421
0.000173478
0.000262975
0.000157088
0.000248432
0.000141361
0.000234825
0.000126258
0.000222143
0.000111742
0.000210345
9.77746e-05
0.000199353
8.43251e-05
0.000189034
7.13744e-05
0.000179133
5.89352e-05
0.000169211
4.70788e-05
0.000158606
3.59594e-05
0.000146479
2.58216e-05
0.000131972
1.69767e-05
0.000114431
9.74968e-06
9.36023e-05
4.41501e-06
6.97277e-05
1.14654e-06
4.3488e-05
1.58078e-05
0.000265105
0.000366198
-0.000284648
0.000245719
0.00034832
0.000227026
0.000330327
0.000208978
0.000312733
0.000191581
0.000295819
0.000174817
0.000279739
0.000158663
0.000264586
0.000143092
0.000250396
0.000128076
0.000237159
0.000113585
0.000224835
9.95875e-05
0.000213351
8.60529e-05
0.000202568
7.29624e-05
0.000192223
6.03292e-05
0.000181844
4.82298e-05
0.000170706
3.68331e-05
0.000157876
2.6408e-05
0.000142397
1.72976e-05
0.000123541
9.85994e-06
0.00010104
4.39625e-06
7.51914e-05
1.09522e-06
4.6789e-05
1.6903e-05
-2.66551e-05
0.000364255
2.85983e-05
-2.46549e-05
0.00034632
-2.26447e-05
0.000328317
-2.08732e-05
0.000310961
-1.94274e-05
0.000294373
-1.83644e-05
0.000278676
-1.76966e-05
0.000263919
-1.74051e-05
0.000250104
-1.745e-05
0.000237204
-1.77736e-05
0.000225159
-1.8292e-05
0.000213869
-1.88747e-05
0.000203151
-1.93229e-05
0.000192671
-1.93679e-05
0.000181889
-1.87147e-05
0.000170052
-1.71301e-05
0.000156291
-1.45478e-05
0.000139815
-1.11429e-05
0.000120136
-7.34129e-06
9.72384e-05
-3.75754e-06
7.16077e-05
-1.0899e-06
4.41214e-05
1.58131e-05
-3.26491e-05
0.000361514
3.53897e-05
-3.00043e-05
0.000343675
-2.76727e-05
0.000325985
-2.57389e-05
0.000309028
-2.42278e-05
0.000292862
-2.31452e-05
0.000277593
-2.2464e-05
0.000263237
-2.21401e-05
0.00024978
-2.21161e-05
0.000237179
-2.23178e-05
0.000225361
-2.26411e-05
0.000214193
-2.29308e-05
0.000203441
-2.29665e-05
0.000192707
-2.24771e-05
0.0001814
-2.11961e-05
0.000168771
-1.89513e-05
0.000154046
-1.57528e-05
0.000136616
-1.18444e-05
0.000116228
-7.69038e-06
9.30844e-05
-3.90496e-06
6.78222e-05
-1.14356e-06
4.136e-05
1.46695e-05
-3.69757e-05
0.000358302
4.01882e-05
-3.40294e-05
0.000340729
-3.15871e-05
0.000323543
-2.96268e-05
0.000307067
-2.81404e-05
0.000291375
-2.70935e-05
0.000276546
-2.64347e-05
0.000262579
-2.61038e-05
0.000249449
-2.60304e-05
0.000237106
-2.61257e-05
0.000225456
-2.62653e-05
0.000214332
-2.62706e-05
0.000203446
-2.59056e-05
0.000192342
-2.49046e-05
0.000180399
-2.30388e-05
0.000166906
-2.01993e-05
0.000151207
-1.64722e-05
0.000132889
-1.21626e-05
0.000111918
-7.76607e-06
8.86879e-05
-3.88364e-06
6.39398e-05
-1.12065e-06
3.8597e-05
1.35489e-05
-3.97485e-05
0.000354972
4.30782e-05
-3.68337e-05
0.000337814
-3.44943e-05
0.000321203
-3.26596e-05
0.000305233
-3.12991e-05
0.000290015
-3.03541e-05
0.000275601
-2.97613e-05
0.000261986
-2.94521e-05
0.00024914
-2.9347e-05
0.000237001
-2.93434e-05
0.000225452
-2.9297e-05
0.000214286
-2.90103e-05
0.000203159
-2.82389e-05
0.000191571
-2.67358e-05
0.000178896
-2.43182e-05
0.000164488
-2.09486e-05
0.000147837
-1.67834e-05
0.000128724
-1.21821e-05
0.000107317
-7.65279e-06
8.41585e-05
-3.76875e-06
6.00558e-05
-1.07048e-06
3.58987e-05
1.24784e-05
-4.13039e-05
0.000351855
4.44206e-05
-3.86651e-05
0.000335175
-3.6584e-05
0.000319122
-3.49824e-05
0.000303631
-3.38164e-05
0.000288849
-3.30185e-05
0.000274803
-3.25224e-05
0.00026149
-3.22553e-05
0.000248873
-3.21306e-05
0.000236876
-3.20314e-05
0.000225353
-3.17961e-05
0.000214051
-3.12115e-05
0.000202575
-3.00375e-05
0.000190397
-2.80532e-05
0.000176912
-2.51336e-05
0.000161568
-2.1308e-05
0.000144012
-1.68007e-05
0.000124217
-1.20057e-05
0.000102522
-7.43245e-06
7.95853e-05
-3.61005e-06
5.62334e-05
-1.01178e-06
3.33004e-05
1.14666e-05
-4.20612e-05
0.000349191
4.4726e-05
-3.98539e-05
0.000332968
-3.81303e-05
0.000317399
-3.6826e-05
0.000302327
-3.58933e-05
0.000287916
-3.52667e-05
0.000274177
-3.48819e-05
0.000261105
-3.46646e-05
0.000248656
-3.45203e-05
0.000236732
-3.4319e-05
0.000225152
-3.38818e-05
0.000213613
-3.29903e-05
0.000201683
-3.14133e-05
0.00018882
-2.89714e-05
0.00017447
-2.55945e-05
0.000158192
-2.13847e-05
0.000139802
-1.66143e-05
0.000119446
-1.1707e-05
9.76147e-05
-7.1513e-06
7.50296e-05
-3.43176e-06
5.25138e-05
-9.50196e-07
3.08189e-05
1.05164e-05
-4.2403e-05
0.000347106
4.44876e-05
-4.06994e-05
0.000331264
-3.93775e-05
0.000316077
-3.83949e-05
0.000301344
-3.77072e-05
0.000287228
-3.7257e-05
0.000273727
-3.69839e-05
0.000260832
-3.68117e-05
0.000248484
-3.6638e-05
0.000236558
-3.63175e-05
0.000224831
-3.56613e-05
0.000212957
-3.44474e-05
0.000200469
-3.247e-05
0.000186842
-2.95887e-05
0.000171588
-2.58025e-05
0.000154405
-2.12658e-05
0.000135265
-1.63037e-05
0.000114484
-1.13399e-05
9.2651e-05
-6.84664e-06
7.05363e-05
-3.2492e-06
4.89164e-05
-8.90628e-07
2.84603e-05
9.6258e-06
-4.27314e-05
0.000345637
4.42006e-05
-4.15388e-05
0.000330071
-4.06174e-05
0.000315155
-3.99473e-05
0.000300674
-3.94921e-05
0.000286773
-3.92044e-05
0.000273439
-3.90268e-05
0.000260654
-3.88805e-05
0.000248337
-3.86521e-05
0.00023633
-3.81847e-05
0.000224364
-3.72786e-05
0.000212051
-3.57228e-05
0.000198913
-3.33346e-05
0.000184454
-3.00317e-05
0.000168286
-2.58636e-05
0.000150237
-2.10512e-05
0.000130453
-1.59377e-05
0.000109371
-1.09592e-05
8.76725e-05
-6.54448e-06
6.61216e-05
-3.07682e-06
4.54487e-05
-8.35271e-07
2.62187e-05
8.79053e-06
-4.33894e-05
0.00034474
4.42861e-05
-4.26611e-05
0.000329343
-4.21001e-05
0.000314594
-4.17051e-05
0.000300279
-4.14489e-05
0.000286517
-4.12925e-05
0.000273283
-4.118e-05
0.000260541
-4.10261e-05
0.000248184
-4.07068e-05
0.00023601
-4.00513e-05
0.000223708