/*--------------------------------*- C++ -*----------------------------------*\
| =========                 |                                                 |
| \\      /  F ield         | OpenFOAM Extend Project: Open source CFD        |
|  \\    /   O peration     | Version:  1.6-ext                               |
|   \\  /    A nd           | Web:      www.extend-project.de                 |
|    \\/     M anipulation  |                                                 |
\*---------------------------------------------------------------------------*/
FoamFile
{
    version     2.0;
    format      ascii;
    class       volVectorField;
    location    "0.15";
    object      U;
}
// * * * * * * * * * * * * * * * * * * * * * * * * * * * * * * * * * * * * * //

dimensions      [0 1 -1 0 0 0 0];

internalField   nonuniform List<vector> 
20940
(
(1.60192 0.229012 3.96891e-22)
(1.6382 0.239466 1.24657e-20)
(1.67536 0.249998 0)
(1.71229 0.259995 0)
(1.74833 0.269601 0)
(1.7819 0.278161 -3.21219e-21)
(1.81044 0.285039 6.14872e-21)
(1.83001 0.289132 -6.00934e-22)
(1.83538 0.289143 -6.60769e-22)
(1.82057 0.283706 7.17033e-22)
(1.7798 0.271726 -5.22901e-21)
(1.70873 0.252707 3.06856e-21)
(1.60562 0.226999 5.30178e-21)
(1.47195 0.195855 -5.65381e-21)
(1.31234 0.16126 -9.0245e-25)
(1.13376 0.125608 4.33929e-21)
(0.944327 0.0913278 -9.12883e-21)
(0.752079 0.0605761 0)
(0.564028 0.0350147 0)
(0.38557 0.0157177 0)
(0.220299 0.0036319 2.97648e-21)
(0.0700904 -0.000128556 -2.50132e-21)
(1.61423 0.18323 2.13462e-20)
(1.65047 0.192248 1.01324e-20)
(1.68741 0.20097 -9.88591e-21)
(1.72384 0.209272 1.98916e-20)
(1.75876 0.217008 -1.31555e-21)
(1.79015 0.223578 0)
(1.81484 0.228287 -2.61375e-21)
(1.82836 0.230092 5.9865e-22)
(1.82513 0.227861 0)
(1.79927 0.220532 0)
(1.74566 0.207424 1.38797e-21)
(1.6612 0.188492 6.17183e-21)
(1.54572 0.164462 4.60932e-21)
(1.40227 0.136777 1.24412e-20)
(1.23672 0.107371 -1.32029e-20)
(1.0567 0.078355 1.63749e-20)
(0.870406 0.0517108 -1.26638e-20)
(0.685491 0.0290777 0)
(0.508272 0.0116223 0)
(0.343371 6.89239e-06 1.10855e-20)
(0.193699 -0.00511234 -1.43694e-20)
(0.060637 -0.00277878 7.18708e-21)
(1.62223 0.137575 -4.27471e-20)
(1.65836 0.144999 8.86969e-22)
(1.69493 0.151894 0)
(1.73059 0.158477 -3.56478e-20)
(1.76395 0.164381 1.01711e-20)
(1.79247 0.169065 5.25096e-21)
(1.81242 0.171816 -5.75705e-21)
(1.81882 0.171708 0)
(1.80594 0.167815 -3.35509e-21)
(1.76822 0.159399 -1.62888e-21)
(1.70147 0.146165 6.38786e-21)
(1.60396 0.128429 -3.39117e-20)
(1.47713 0.107151 -1.63085e-20)
(1.32547 0.083809 -2.67264e-21)
(1.15583 0.0601559 1.23193e-20)
(0.97625 0.0379379 8.14882e-21)
(0.794766 0.0186709 -1.60229e-20)
(0.618467 0.00351526 2.67704e-20)
(0.45292 -0.00678843 -1.89285e-20)
(0.301977 -0.0119124 0)
(0.167892 -0.0114378 0)
(0.0515879 -0.00456174 -4.69476e-21)
(1.62701 0.0923052 0)
(1.66297 0.0980246 4.11103e-20)
(1.69895 0.10311 -1.96318e-20)
(1.73351 0.107983 5.93935e-22)
(1.76475 0.112133 1.35058e-20)
(1.78959 0.115088 -2.53091e-21)
(1.80373 0.116169 0)
(1.80183 0.11461 1.2402e-21)
(1.77818 0.109729 -4.75492e-21)
(1.72782 0.101107 2.4084e-20)
(1.6477 0.0887761 -7.32224e-21)
(1.53764 0.0733027 6.61688e-21)
(1.40061 0.0557404 8.65316e-21)
(1.24239 0.0374631 2.14959e-20)
(1.07055 0.0199337 -3.51592e-20)
(0.893235 0.00448615 3.32977e-20)
(0.718119 -0.00782058 1.42542e-20)
(0.551598 -0.0162558 -7.95614e-22)
(0.398438 -0.0204335 0)
(0.26172 -0.0202874 0)
(0.143078 -0.0155734 -2.94156e-20)
(0.043006 -0.00558854 8.52665e-21)
(1.62827 0.0476307 -2.18664e-21)
(1.66399 0.0514911 -4.37349e-20)
(1.69922 0.0547765 -1.56325e-20)
(1.73232 0.0579532 7.26168e-20)
(1.76085 0.0604694 -3.2616e-20)
(1.78116 0.06193 -2.43463e-20)
(1.78845 0.0617452 -5.19279e-21)
(1.77716 0.0593431 4.24255e-21)
(1.74185 0.054292 -1.57962e-21)
(1.6784 0.0464561 -5.54368e-22)
(1.5851 0.0361056 1.90541e-20)
(1.46334 0.0239267 -2.05078e-20)
(1.31759 0.0109246 1.41656e-20)
(1.15462 -0.00175112 8.62197e-21)
(0.982453 -0.0129971 0)
(0.809116 -0.0219053 2.49723e-20)
(0.641711 -0.0278374 -2.78379e-20)
(0.48586 -0.0304257 -7.75394e-21)
(0.345512 -0.0295617 -3.95506e-20)
(0.223016 -0.025367 6.74383e-20)
(0.119441 -0.0177105 -1.73895e-20)
(0.0349127 -0.0059381 1.51646e-20)
(1.62569 0.0038153 8.07991e-20)
(1.66106 0.00568727 -3.16699e-21)
(1.69531 0.00722719 -7.86808e-20)
(1.72657 0.00876433 0)
(1.75178 0.00983027 -1.51041e-20)
(1.76676 0.010112 9.46616e-21)
(1.76628 0.00916525 -1.87108e-20)
(1.74473 0.00662862 0)
(1.69719 0.00230775 4.87744e-21)
(1.6206 -0.00371678 -2.4704e-21)
(1.51474 -0.0110481 1.66647e-20)
(1.38254 -0.0190157 4.65837e-21)
(1.22974 -0.0267918 -5.05464e-20)
(1.06392 -0.0335421 -4.23786e-20)
(0.893248 -0.0385588 5.32636e-20)
(0.72539 -0.0413416 0)
(0.566768 -0.0416167 -1.26174e-20)
(0.422184 -0.039304 0)
(0.294793 -0.0344947 3.58118e-20)
(0.186269 -0.0274304 9.65113e-22)
(0.0971841 -0.0180415 -4.71277e-20)
(0.0273616 -0.00568516 1.99567e-20)
(1.61942 -0.0389517 -3.99489e-20)
(1.65434 -0.0392811 0)
(1.68739 -0.0394947 3.76025e-20)
(1.7164 -0.0395691 0)
(1.73768 -0.0397458 4.14827e-21)
(1.74654 -0.0402548 8.48411e-20)
(1.73748 -0.0413495 -1.33048e-20)
(1.70504 -0.0431916 -5.9396e-21)
(1.64504 -0.0457862 -1.88704e-21)
(1.55565 -0.0489346 1.90759e-21)
(1.43818 -0.052243 0)
(1.29703 -0.0551912 7.6998e-21)
(1.13901 -0.0572368 1.21495e-20)
(0.972173 -0.0579187 0)
(0.804605 -0.0569272 -5.03905e-20)
(0.643454 -0.0541273 1.84513e-20)
(0.494375 -0.0495395 1.1452e-20)
(0.361352 -0.0432931 -5.45179e-20)
(0.246797 -0.0356061 2.36052e-20)
(0.151781 -0.0267804 1.19686e-20)
(0.0764515 -0.0167662 -2.08183e-20)
(0.0203872 -0.00490451 2.34196e-20)
(1.60883 -0.0803214 0)
(1.64311 -0.0829918 0)
(1.67472 -0.0848793 3.43665e-20)
(1.7011 -0.0864645 -6.95887e-21)
(1.71796 -0.0876086 -6.54265e-20)
(1.72015 -0.0884661 -2.45085e-20)
(1.70201 -0.0890576 0)
(1.65846 -0.0893704 4.45317e-21)
(1.58622 -0.0892835 0)
(1.48484 -0.0885888 -5.23628e-21)
(1.35709 -0.0870251 0)
(1.2087 -0.0843415 -7.65087e-21)
(1.04728 -0.0803619 -7.9111e-21)
(0.881128 -0.0750268 0)
(0.718037 -0.0684028 -3.87574e-20)
(0.564515 -0.060663 4.51932e-20)
(0.425427 -0.0520498 4.36239e-20)
(0.303978 -0.0428284 -3.42656e-20)
(0.201907 -0.0332797 0)
(0.119761 -0.0237167 -3.43598e-20)
(0.0573297 -0.0140772 2.31189e-20)
(0.0140043 -0.00366626 2.52181e-20)
(1.59448 -0.120126 0)
(1.62799 -0.125483 -3.6747e-20)
(1.65794 -0.129154 5.9139e-21)
(1.68133 -0.13227 7.03398e-20)
(1.69331 -0.134149 -4.20596e-21)
(1.68837 -0.134886 -4.88994e-20)
(1.66088 -0.13425 3.23281e-21)
(1.60628 -0.132118 -7.93271e-21)
(1.52235 -0.128341 8.64559e-21)
(1.41002 -0.122834 0)
(1.27351 -0.115602 -4.57173e-21)
(1.1196 -0.106766 1.13225e-20)
(0.956496 -0.096572 -4.29764e-21)
(0.792485 -0.0853629 1.8045e-20)
(0.634919 -0.0735405 -2.01408e-20)
(0.489609 -0.061521 -1.89186e-21)
(0.360647 -0.049696 1.40113e-20)
(0.250521 -0.0383997 3.89906e-20)
(0.160381 -0.0279211 -3.19864e-20)
(0.0903271 -0.0185428 4.49673e-20)
(0.0398554 -0.0101636 -3.81206e-20)
(0.00821265 -0.00203748 3.04531e-21)
(1.57514 -0.157754 -7.6158e-20)
(1.60757 -0.165876 8.47337e-20)
(1.63565 -0.171213 0)
(1.65583 -0.175745 -3.7132e-20)
(1.66277 -0.178087 3.35414e-20)
(1.6507 -0.178287 3.24641e-21)
(1.6141 -0.175835 4.63328e-20)
(1.54908 -0.170544 5.65117e-21)
(1.45454 -0.162316 1.18438e-20)
(1.33275 -0.1513 0)
(1.1892 -0.137872 1.05781e-20)
(1.03155 -0.122606 -4.83156e-21)
(0.868324 -0.106201 -1.02054e-20)
(0.707652 -0.0893905 -6.70429e-21)
(0.556348 -0.0728695 -1.04533e-20)
(0.419519 -0.0572391 2.73113e-20)
(0.300538 -0.04298 -7.48276e-21)
(0.201263 -0.030443 0)
(0.122341 -0.0198812 0)
(0.0635052 -0.0115141 2.11849e-20)
(0.0240099 -0.0051811 -3.6999e-20)
(0.00299296 -7.13899e-05 -7.78445e-21)
(1.55249 -0.193199 0)
(1.5837 -0.204723 -7.67181e-20)
(1.60975 -0.212099 8.50975e-20)
(1.62646 -0.218249 7.08552e-20)
(1.62823 -0.22095 -1.06083e-19)
(1.60905 -0.220226 2.55784e-20)
(1.5637 -0.215309 -8.00113e-21)
(1.48901 -0.206041 -3.82698e-20)
(1.38502 -0.192495 0)
(1.25528 -0.175188 0)
(1.10633 -0.154976 -4.11761e-21)
(0.946488 -0.13295 2.76819e-21)
(0.784415 -0.110277 0)
(0.627926 -0.0880608 7.11399e-21)
(0.483265 -0.067242 0)
(0.354866 -0.0485522 2.83931e-21)
(0.24546 -0.0325106 0)
(0.156367 -0.0194394 0)
(0.0878221 -0.0095199 0)
(0.0392597 -0.00287914 0)
(0.0097404 0.000724408 3.12078e-20)
(-0.0016827 0.00218279 -2.51581e-20)
(1.52382 -0.225084 -6.56263e-21)
(1.55336 -0.239719 -1.6784e-19)
(1.57725 -0.248933 8.7637e-20)
(1.59059 -0.256623 -4.53027e-20)
(1.58757 -0.259629 -4.55032e-21)
(1.56201 -0.257894 0)
(1.50901 -0.250354 0)
(1.42614 -0.236886 0)
(1.31449 -0.217776 0)
(1.17869 -0.193965 0)
(1.02616 -0.166848 3.43493e-21)
(0.865661 -0.138069 -3.70627e-21)
(0.705837 -0.10928 0)
(0.554136 -0.0819445 -2.36687e-21)
(0.41624 -0.0572301 4.71888e-21)
(0.295982 -0.0359748 5.62437e-21)
(0.195551 -0.0187114 -1.50481e-20)
(0.115831 -0.0057112 8.69994e-21)
(0.056736 0.00293776 0)
(0.0174692 0.00722142 2.60682e-21)
(-0.00306155 0.0074806 0)
(-0.00586613 0.0047071 -7.55775e-21)
(1.49397 -0.254441 2.64506e-19)
(1.52143 -0.273493 0)
(1.54294 -0.285425 -8.03004e-20)
(1.55269 -0.295154 1.68657e-19)
(1.54496 -0.298636 0)
(1.51341 -0.29572 -3.57997e-20)
(1.45354 -0.285123 -5.33876e-21)
(1.36364 -0.266842 -5.43588e-20)
(1.24573 -0.241491 4.89073e-21)
(1.1054 -0.210547 3.04632e-20)
(0.95072 -0.176018 -6.71002e-21)
(0.790694 -0.140145 0)
(0.633832 -0.105066 0)
(0.487169 -0.0725898 0)
(0.355854 -0.0440883 0)
(0.243198 -0.0204867 -2.07407e-21)
(0.150951 -0.00231467 -1.02128e-21)
(0.0796634 0.0102224 2.70041e-21)
(0.0290117 0.0171463 4.86606e-21)
(-0.00196664 0.0185758 -8.83921e-21)
(-0.0144807 0.0149744 0)
(-0.00959028 0.00746347 -3.06657e-21)
(1.45589 -0.277304 -9.50966e-20)
(1.48108 -0.299035 -1.80466e-19)
(1.50031 -0.313493 1.33222e-21)
(1.50692 -0.325282 9.0537e-20)
(1.49538 -0.329757 8.53942e-20)
(1.45922 -0.326349 3.52519e-20)
(1.39432 -0.313506 2.13441e-21)
(1.29954 -0.29122 5.69297e-20)
(1.17765 -0.260365 -2.63546e-20)
(1.03492 -0.222901 -4.36853e-20)
(0.879856 -0.181437 -2.12752e-20)
(0.721587 -0.138813 2.42004e-20)
(0.568416 -0.0976803 0)
(0.426981 -0.0602341 7.5547e-21)
(0.301977 -0.0280949 0)
(0.196302 -0.00231565 9.55174e-22)
(0.111384 0.016544 -3.6861e-22)
(0.0475514 0.0283244 -3.75851e-21)
(0.00433583 0.0331509 2.55238e-21)
(-0.019329 0.0312815 0)
(-0.024733 0.0233153 -1.73375e-22)
(-0.0129579 0.0105217 0)
(1.42373 -0.299936 0)
(1.44386 -0.327189 -9.07257e-20)
(1.46019 -0.345409 9.48823e-20)
(1.46327 -0.359886 -8.92504e-20)
(1.44787 -0.365609 -8.4141e-20)
(1.40744 -0.361549 0)
(1.33816 -0.346016 3.77506e-20)
(1.2394 -0.319064 3.33208e-20)
(1.11459 -0.281938 3.31923e-22)
(0.970541 -0.237182 5.23874e-20)
(0.816067 -0.188074 2.36858e-20)
(0.660244 -0.138092 -8.4178e-21)
(0.511068 -0.0904095 -1.82283e-20)
(0.374737 -0.0475948 3.18203e-21)
(0.255518 -0.0115066 -1.40557e-21)
(0.155979 0.0166766 5.39361e-21)
(0.0773371 0.0363578 -7.59262e-21)
(0.019808 0.0474114 1.03738e-20)
(-0.0171232 0.0500604 0)
(-0.0345495 0.0447088 -3.93298e-21)
(-0.0337995 0.0321146 -2.78899e-21)
(-0.0159611 0.0137414 4.4359e-21)
(1.38722 -0.317708 1.01675e-19)
(1.4033 -0.345173 0)
(1.41299 -0.366301 5.35219e-20)
(1.407 -0.381349 5.44065e-20)
(1.3811 -0.386509 0)
(1.32923 -0.380129 0)
(1.24916 -0.360604 -3.94872e-20)
(1.14184 -0.328281 -3.13768e-20)
(1.01207 -0.284937 6.38229e-21)
(0.867362 -0.233742 3.48796e-20)
(0.716422 -0.178546 0)
(0.567593 -0.123258 -2.49243e-20)
(0.42782 -0.0713274 5.18093e-20)
(0.302242 -0.0254766 -4.13412e-20)
(0.194242 0.012359 1.3426e-20)
(0.105736 0.0409736 7.98736e-21)
(0.0375189 0.0597823 0)
(-0.0104423 0.0687114 7.31013e-21)
(-0.0387875 0.0680852 0)
(-0.0486681 0.0584686 -6.0157e-21)
(-0.0414419 0.0408004 -1.60189e-21)
(-0.0182046 0.0167295 5.26695e-21)
(1.35466 -0.353568 -1.60668e-19)
(1.36385 -0.380843 -1.59568e-19)
(1.36023 -0.400931 0)
(1.33794 -0.411671 1.0155e-19)
(1.29334 -0.41035 4.82134e-20)
(1.22249 -0.395139 -4.05398e-20)
(1.12595 -0.365538 4.43994e-20)
(1.00709 -0.323003 -3.68544e-20)
(0.872348 -0.270437 0)
(0.729566 -0.211806 -3.05923e-20)
(0.586653 -0.151321 -2.96596e-20)
(0.450415 -0.0928703 1.86107e-20)
(0.326038 -0.0396408 1.31009e-21)
(0.217032 0.00598986 4.79486e-20)
(0.125483 0.0424147 -3.15331e-20)
(0.0523841 0.0686904 -8.76395e-21)
(-0.00206345 0.0844244 -8.71174e-21)
(-0.0382173 0.0896823 -6.30162e-21)
(-0.0568532 0.0848986 1.71644e-20)
(-0.0591175 0.0707531 0)
(-0.0462754 0.0482938 2.22259e-20)
(-0.019334 0.0191868 -2.5592e-20)
(1.30699 -0.382882 -3.19122e-21)
(1.30484 -0.408426 -1.51343e-21)
(1.28479 -0.425245 1.57871e-19)
(1.24533 -0.429915 -1.58739e-19)
(1.18292 -0.420906 -9.91089e-20)
(1.09657 -0.396522 0)
(0.988958 -0.357643 3.93633e-20)
(0.865095 -0.306642 -3.87625e-20)
(0.731929 -0.247238 7.9202e-20)
(0.596702 -0.183739 0)
(0.465945 -0.120335 0)
(0.344779 -0.0606468 2.72696e-21)
(0.236779 -0.00751775 1.87746e-20)
(0.144145 0.0369905 -2.00638e-20)
(0.0680198 0.0715072 -2.03098e-20)
(0.00879399 0.0952441 3.11491e-20)
(-0.0336598 0.107905 -1.1403e-20)
(-0.0598318 0.10962 2.21852e-20)
(-0.0704974 0.100883 1.20487e-20)
(-0.0667102 0.0824529 0)
(-0.0495894 0.055457 -2.48252e-20)
(-0.0200208 0.0215604 1.60367e-20)
(1.2445 -0.408162 -1.60673e-19)
(1.22833 -0.430709 1.68337e-19)
(1.19113 -0.442457 2.32251e-21)
(1.13532 -0.439893 0)
(1.05777 -0.422502 -1.61822e-21)
(0.960429 -0.389208 -4.49981e-20)
(0.847279 -0.34217 4.9266e-20)
(0.724127 -0.28445 -8.23236e-20)
(0.597515 -0.220242 4.42503e-21)
(0.473537 -0.153862 0)
(0.357165 -0.0892506 -2.2154e-20)
(0.251962 -0.0296534 -6.22864e-20)
(0.160178 0.0224536 4.53268e-20)
(0.0830298 0.0652963 -1.26039e-20)
(0.021001 0.0976919 -1.3188e-20)
(-0.0259054 0.118952 0)
(-0.0579987 0.128817 0)
(-0.0758049 0.127419 0)
(-0.0800339 0.115247 -1.21289e-20)
(-0.0715995 0.0930712 2.62354e-20)
(-0.0514397 0.0620394 -5.30169e-20)
(-0.0202811 0.0237865 2.07375e-20)
(1.16499 -0.425938 0)
(1.13352 -0.443992 0)
(1.08017 -0.449476 -1.13707e-19)
(1.0104 -0.439341 0)
(0.921849 -0.413927 2.64695e-21)
(0.818754 -0.373083 1.09344e-19)
(0.705509 -0.319877 4.65057e-20)
(0.58794 -0.257803 -5.52657e-21)
(0.471602 -0.191158 -2.45092e-20)
(0.361229 -0.124006 -2.06064e-20)
(0.260317 -0.0598875 1.18381e-19)
(0.171126 -0.00161849 -1.01349e-19)
(0.0948982 0.0486784 4.00952e-20)
(0.0321399 0.0894711 -1.81105e-21)
(-0.017113 0.119707 -1.9334e-21)
(-0.0531033 0.138734 1.59005e-20)
(-0.0762362 0.146265 0)
(-0.0870239 0.14237 -3.94376e-20)
(-0.0860821 0.127464 3.22567e-20)
(-0.0741649 0.10226 3.17446e-20)
(-0.0520132 0.0678611 -6.44237e-20)
(-0.0201681 0.0258199 3.26193e-20)
(1.06905 -0.433622 -6.4022e-20)
(1.02261 -0.446108 -6.32051e-20)
(0.955482 -0.444885 6.21541e-20)
(0.875244 -0.427694 0)
(0.780424 -0.395577 6.0131e-20)
(0.676532 -0.349338 -1.07367e-19)
(0.567761 -0.292501 2.93854e-20)
(0.459352 -0.228705 0)
(0.35563 -0.16203 -2.50154e-20)
(0.259999 -0.0961197 -2.51402e-20)
(0.174704 -0.034038 5.37046e-20)
(0.101001 0.0218222 -3.09845e-20)
(0.0393921 0.0696542 -1.4006e-20)
(-0.0101113 0.108121 1.47027e-20)
(-0.0477824 0.136252 1.5395e-20)
(-0.074032 0.153388 -1.60288e-20)
(-0.0893273 0.159165 0)
(-0.0941588 0.153535 3.48521e-20)
(-0.0890499 0.136772 -2.75504e-20)
(-0.0745994 0.109464 1.01468e-20)
(-0.0513554 0.072586 0)
(-0.0196701 0.0275418 -3.11085e-20)
(0.959133 -0.429147 1.22665e-19)
(0.899462 -0.435685 0)
(0.821952 -0.428187 -1.86642e-21)
(0.735249 -0.405305 -6.74561e-20)
(0.638711 -0.368559 4.24908e-21)
(0.538142 -0.319531 0)
(0.43717 -0.261788 -2.70825e-21)
(0.340109 -0.198861 3.12978e-20)
(0.250078 -0.134401 0)
(0.169333 -0.071554 0)
(0.0991472 -0.012897 0)
(0.0400403 0.0395711 3.19515e-20)
(-0.00800473 0.0843237 1.72966e-20)
(-0.0453295 0.120189 -1.69713e-20)
(-0.0724356 0.146256 3.69992e-20)
(-0.0898725 0.161837 -1.84751e-20)
(-0.098173 0.166464 0)
(-0.0978282 0.159927 -3.15525e-20)
(-0.0892983 0.142309 4.42665e-20)
(-0.0730537 0.113999 4.463e-20)
(-0.0494792 0.0757673 -5.61737e-20)
(-0.018762 0.0287825 -4.83759e-21)
(0.839406 -0.410975 -1.31089e-19)
(0.76922 -0.411983 6.87145e-22)
(0.685093 -0.399425 0)
(0.595799 -0.372858 -7.1222e-20)
(0.501323 -0.334007 -6.59809e-20)
(0.407041 -0.284938 -3.51817e-20)
(0.315869 -0.228965 3.19175e-20)
(0.231096 -0.169313 3.2262e-20)
(0.154816 -0.109106 -6.94224e-20)
(0.0883812 -0.0509755 -3.591e-20)
(0.0323591 0.00296107 1.8494e-20)
(-0.0132452 0.0510654 -3.60204e-20)
(-0.0488126 0.0920678 3.84972e-22)
(-0.0749445 0.124954 -1.89212e-20)
(-0.0923328 0.14888 -2.19931e-20)
(-0.101666 0.163132 -9.19151e-21)
(-0.103571 0.167138 -1.19437e-20)
(-0.0985819 0.160512 0)
(-0.0871463 0.143106 -5.94055e-20)
(-0.0696557 0.115053 5.10034e-20)
(-0.0463862 0.0768407 1.17981e-20)
(-0.0174148 0.0293168 -6.54684e-22)
(0.715435 -0.378787 1.40186e-19)
(0.637829 -0.375376 1.44752e-19)
(0.550652 -0.359512 -7.57084e-20)
(0.461988 -0.331557 7.20033e-20)
(0.372253 -0.29319 -3.84732e-20)
(0.285977 -0.246656 3.5553e-20)
(0.205382 -0.194848 0)
(0.13282 -0.140566 -1.09998e-19)
(0.0695935 -0.0863898 7.73962e-20)
(0.0163988 -0.0344606 5.62332e-20)
(-0.0266806 0.0135258 -1.86506e-20)
(-0.0599907 0.0562648 0)
(-0.0841726 0.0927382 6.23146e-20)
(-0.100034 0.122105 -4.47709e-20)
(-0.108444 0.143618 2.21198e-20)
(-0.110245 0.156574 1.1351e-21)
(-0.106192 0.160326 2.51788e-20)
(-0.0969158 0.154323 5.20371e-20)
(-0.082913 0.138182 -1.07614e-19)
(-0.0645628 0.111746 -1.28323e-20)
(-0.0421131 0.0751613 5.64927e-20)
(-0.0156166 0.0288756 5.17787e-20)
(0.593357 -0.332493 0)
(0.511318 -0.326308 -7.48725e-20)
(0.423987 -0.309229 7.64441e-20)
(0.338228 -0.282247 0)
(0.254728 -0.246822 3.88348e-20)
(0.177054 -0.205118 0)
(0.106847 -0.159547 0)
(0.0457043 -0.112433 3.90454e-20)
(-0.00562849 -0.0658478 1.85843e-20)
(-0.0469096 -0.0214816 -8.55743e-20)
(-0.0783837 0.0193538 0)
(-0.100647 0.0556714 -6.78221e-20)
(-0.114542 0.0867124 1.02278e-21)
(-0.121057 0.111839 4.92692e-20)
(-0.121229 0.130444 0)
(-0.116065 0.141892 -6.56895e-20)
(-0.106473 0.145515 2.78733e-20)
(-0.0932221 0.14065 -5.71794e-20)
(-0.076914 0.126707 -7.53428e-21)
(-0.0579893 0.103255 5.56519e-23)
(-0.0367655 0.0700755 5.42021e-20)
(-0.0133897 0.027167 5.13189e-20)
(0.479063 -0.274046 -7.86836e-20)
(0.394924 -0.266904 0)
(0.309355 -0.250658 0)
(0.227747 -0.226695 -3.81097e-20)
(0.150976 -0.196214 8.99059e-20)
(0.0817252 -0.161133 -4.4936e-20)
(0.0212005 -0.12339 0)
(-0.0295663 -0.0848457 0)
(-0.0702275 -0.047107 2.17057e-20)
(-0.100875 -0.0114539 4.60622e-20)
(-0.122011 0.021161 -2.45496e-20)
(-0.134442 0.0500625 2.35659e-20)
(-0.139188 0.0747625 0)
(-0.137397 0.0948548 -1.36517e-20)
(-0.130253 0.109916 5.48653e-20)
(-0.118906 0.11944 -1.00144e-19)
(-0.104405 0.122811 7.42536e-20)
(-0.0876607 0.119334 0)
(-0.0694117 0.108297 -5.32684e-22)
(-0.0502148 0.0890586 0)
(-0.0305554 0.0610835 -6.8569e-20)
(-0.0108135 0.0239375 5.57305e-20)
(0.373888 -0.204113 7.92577e-20)
(0.289912 -0.197761 0)
(0.207708 -0.184258 4.22266e-20)
(0.131322 -0.165124 -1.36434e-19)
(0.0617522 -0.141317 0)
(0.000963406 -0.114403 4.44092e-22)
(-0.0501836 -0.0858703 9.4405e-20)
(-0.0911138 -0.057126 -3.23229e-21)
(-0.121826 -0.0293407 -9.74645e-20)
(-0.142725 -0.00340543 -3.42342e-20)
(-0.154565 0.0200692 1.26863e-19)
(-0.158354 0.0407058 -5.35737e-20)
(-0.155269 0.0582784 0)
(-0.146565 0.0726122 6.96763e-20)
(-0.133507 0.0834858 -5.91346e-20)
(-0.117308 0.0905579 3.81336e-20)
(-0.0990874 0.0933355 -1.18578e-19)
(-0.0798413 0.0911864 6.56849e-20)
(-0.0604157 0.0833961 -2.57198e-20)
(-0.0414922 0.0692472 7.00716e-20)
(-0.023783 0.0480293 -2.72091e-20)
(-0.00802703 0.019018 0)
(0.271027 -0.130512 0)
(0.191453 -0.126121 4.25535e-20)
(0.116082 -0.116575 -4.70484e-20)
(0.0478442 -0.103311 4.61829e-20)
(-0.0122139 -0.0870869 0)
(-0.0627361 -0.0690732 4.73973e-20)
(-0.103226 -0.0503265 -1.0002e-19)
(-0.133566 -0.0318058 5.25154e-20)
(-0.154133 -0.0142636 5.01837e-20)
(-0.165662 0.00177779 -4.13744e-20)
(-0.169153 0.0160189 6.65603e-20)
(-0.165772 0.0283386 -4.95553e-20)
(-0.156757 0.0387248 -5.64022e-20)
(-0.143349 0.0471899 5.98529e-20)
(-0.126746 0.0536875 -7.72499e-21)
(-0.108071 0.058047 3.93095e-20)
(-0.0883613 0.0599396 -3.6889e-20)
(-0.0685687 0.0588828 -3.3977e-20)
(-0.0495411 0.0542877 -6.97498e-23)
(-0.0320127 0.0455297 7.26905e-20)
(-0.0168839 0.0319346 4.5505e-22)
(-0.00527873 0.0127515 -3.08518e-20)
(0.156627 -0.0551185 4.13885e-20)
(0.0922445 -0.0528093 -4.58482e-20)
(0.0329799 -0.0478084 5.71862e-20)
(-0.0190855 -0.0411366 -6.22626e-20)
(-0.0630584 -0.0332507 3.53283e-20)
(-0.0981816 -0.0248059 -3.96333e-20)
(-0.12439 -0.0163396 6.61257e-21)
(-0.142008 -0.00830369 4.43402e-20)
(-0.151743 -0.00100902 -5.53529e-20)
(-0.154541 0.00537396 -6.94043e-21)
(-0.15148 0.0107997 -4.10834e-20)
(-0.143665 0.0153149 -5.89828e-21)
(-0.132163 0.0190144 2.99555e-20)
(-0.117954 0.021993 3.78753e-21)
(-0.101929 0.0242962 7.73704e-21)
(-0.0848951 0.025879 0)
(-0.0676047 0.0265799 -4.14046e-21)
(-0.0507796 0.0261183 -2.13423e-21)
(-0.0351082 0.0241294 0)
(-0.0212282 0.0202312 0)
(-0.0100186 0.0140459 3.83809e-20)
(-0.00276763 0.00531592 -3.22858e-20)
(0.0355973 -0.008601 0)
(0.00501404 -0.00832055 0)
(-0.0220733 -0.00739467 -1.15896e-20)
(-0.0447271 -0.00615739 1.19881e-20)
(-0.0625648 -0.00471422 1.23022e-20)
(-0.0754451 -0.00322032 -1.25501e-20)
(-0.0836249 -0.00178623 -3.14868e-20)
(-0.0875748 -0.000495773 3.37227e-20)
(-0.0879236 0.00060542 2.58229e-20)
(-0.0853552 0.0015056 5.00843e-21)
(-0.0805368 0.00222061 -2.81156e-20)
(-0.0740659 0.00278529 0)
(-0.0664433 0.00324391 0)
(-0.0580692 0.00363971 -3.60328e-21)
(-0.0492598 0.00400276 2.91454e-20)
(-0.0402788 0.00433655 -6.06042e-20)
(-0.0313773 0.00460434 3.13497e-20)
(-0.0228383 0.00471919 2.02247e-21)
(-0.0149973 0.0045477 0)
(-0.00823816 0.00393257 -8.33736e-24)
(-0.0031569 0.00270858 3.54898e-20)
(-0.000654369 0.000835177 -2.83282e-20)
(1.13289 0.0171542 4.34229e-20)
(1.08419 0.017923 -2.48815e-20)
(1.03328 0.0187493 0)
(0.98026 0.0196892 -6.43577e-20)
(0.925399 0.0207924 3.56018e-20)
(0.86894 0.0220913 4.08726e-20)
(0.811085 0.0235956 -4.45766e-20)
(0.752005 0.025298 -7.54618e-20)
(0.691841 0.0271796 2.71884e-20)
(0.630712 0.0292144 6.08121e-20)
(0.568728 0.031369 -3.28565e-20)
(0.506011 0.0335943 0)
(0.442735 0.0358051 1.93168e-20)
(0.37919 0.0378528 -2.07038e-20)
(0.315888 0.0394983 2.20467e-20)
(0.253675 0.040402 -2.33236e-20)
(0.193831 0.0401406 0)
(0.138102 0.038251 -2.57808e-20)
(0.0885754 0.0342958 5.34227e-20)
(0.0474612 0.0279313 -2.75297e-20)
(0.0177763 0.0189387 -2.84922e-20)
(0.00332624 0.00725341 2.31822e-20)
(1.13663 0.0763701 -4.34152e-20)
(1.08832 0.081639 -2.54797e-20)
(1.03797 0.0869924 1.11557e-19)
(0.985475 0.0924207 3.19146e-20)
(0.931149 0.0979621 0)
(0.875228 0.103674 0)
(0.817915 0.109607 0)
(0.759381 0.115798 1.25331e-19)
(0.699769 0.122267 -1.35658e-19)
(0.639197 0.129017 3.05279e-20)
(0.577776 0.136016 -1.31514e-19)
(0.515621 0.143159 7.08733e-20)
(0.45289 0.1502 -1.93128e-20)
(0.389842 0.156633 6.26967e-20)
(0.326936 0.161596 -1.09478e-19)
(0.264934 0.163818 6.93482e-20)
(0.205004 0.161673 2.4182e-20)
(0.148768 0.153346 0)
(0.0981806 0.137084 -1.06158e-19)
(0.0553373 0.111466 1.36235e-19)
(0.0231674 0.0755567 -2.78566e-20)
(0.00542594 0.0290271 -1.03677e-19)
(1.14401 0.135763 -3.70605e-22)
(1.09653 0.145507 0)
(1.0473 0.155266 -5.58516e-20)
(0.995885 0.165022 0)
(0.942649 0.174815 1.42876e-19)
(0.887839 0.184742 -1.56346e-19)
(0.831654 0.1949 -1.88185e-21)
(0.774267 0.205376 9.68236e-20)
(0.71582 0.216234 5.43592e-20)
(0.656431 0.227504 -1.19399e-19)
(0.596204 0.239156 1.28277e-19)
(0.535243 0.251037 0)
(0.473674 0.262736 0)
(0.411691 0.273399 2.0351e-19)
(0.349637 0.28155 -1.71629e-19)
(0.288103 0.285 -9.0907e-20)
(0.228026 0.280941 -7.13428e-20)
(0.170763 0.266235 0)
(0.118001 0.237845 0)
(0.0715988 0.193303 -6.75559e-22)
(0.0343039 0.130988 -8.28968e-20)
(0.00976581 0.0503277 2.1441e-19)
(1.15413 0.192938 8.43436e-20)
(1.10801 0.207001 9.46254e-20)
(1.06055 0.220975 0)
(1.01084 0.234881 1.21015e-19)
(0.959312 0.24876 1.36025e-19)
(0.90623 0.262746 0)
(0.851789 0.276985 -2.16439e-21)
(0.796167 0.291613 0)
(0.739505 0.306732 3.15672e-19)
(0.681922 0.322401 -2.28863e-19)
(0.623517 0.338589 -1.23744e-19)
(0.564375 0.355088 0)
(0.504576 0.371327 0)
(0.444216 0.386108 1.57973e-19)
(0.383467 0.397349 -1.6671e-19)
(0.322657 0.401969 4.48534e-20)
(0.262384 0.396016 2.33232e-19)
(0.203607 0.375078 -1.93463e-19)
(0.147611 0.334899 0)
(0.0959002 0.272038 -2.63885e-20)
(0.0509515 0.184249 1.62377e-19)
(0.0162521 0.0707616 -3.73075e-19)
(1.16692 0.248168 -1.64881e-19)
(1.1226 0.266348 4.61326e-19)
(1.07751 0.284248 5.25401e-21)
(1.03005 0.302004 -3.55516e-19)
(0.980798 0.319662 -3.14651e-22)
(0.930016 0.337405 -2.9891e-19)
(0.877897 0.355433 8.03455e-20)
(0.824623 0.373931 1.85946e-19)
(0.770338 0.393042 -3.04568e-19)
(0.71516 0.412849 0)
(0.65918 0.433319 2.48595e-19)
(0.602459 0.454193 -2.61208e-19)
(0.545015 0.474737 -2.84072e-19)
(0.486816 0.493417 2.27383e-19)
(0.427803 0.507568 7.84959e-20)
(0.367963 0.513243 3.40162e-19)
(0.307441 0.505397 -3.55544e-19)
(0.246675 0.478417 0)
(0.186429 0.426912 0)
(0.127749 0.346557 0)
(0.0727608 0.234568 5.23513e-20)
(0.0247421 0.0900283 4.10514e-20)
(1.18194 0.300395 -1.50082e-19)
(1.1399 0.322418 -5.35644e-19)
(1.09773 0.343883 0)
(1.05306 0.365126 0)
(1.00663 0.386204 0)
(0.958701 0.407356 0)
(0.909456 0.42884 3.21968e-19)
(0.859086 0.450891 -5.22717e-19)
(0.807737 0.473691 1.8986e-19)
(0.755526 0.497342 3.17922e-19)
(0.702537 0.521812 -1.11913e-19)
(0.648801 0.546785 0)
(0.594261 0.571374 0)
(0.538724 0.593719 7.36531e-20)
(0.481851 0.610591 -7.82443e-20)
(0.423205 0.617224 7.81728e-20)
(0.362375 0.607538 0)
(0.29917 0.574801 3.52276e-19)
(0.233719 0.512591 -2.76283e-19)
(0.166522 0.415806 0)
(0.0992921 0.281221 -3.89655e-19)
(0.0350564 0.107844 4.37784e-19)
(1.19869 0.349219 1.52842e-19)
(1.15937 0.374719 1.80483e-19)
(1.12064 0.399297 -1.92001e-19)
(1.07926 0.423583 2.13683e-19)
(1.03616 0.447646 0)
(0.991581 0.47179 0)
(0.945723 0.496336 -3.05845e-19)
(0.898776 0.521563 3.29767e-19)
(0.850889 0.547689 1.77283e-19)
(0.802177 0.574835 9.26459e-20)
(0.752715 0.602964 0)
(0.7025 0.631707 0)
(0.651384 0.66003 2.54466e-19)
(0.598987 0.685765 -5.41298e-19)
(0.544638 0.705151 1.47831e-19)
(0.4874 0.712647 -7.78943e-20)
(0.426218 0.701212 -2.3998e-19)
(0.360161 0.663086 3.29177e-19)
(0.288632 0.590923 2.53271e-19)
(0.211514 0.478966 1.21366e-21)
(0.130053 0.323656 -3.61876e-19)
(0.0469968 0.124 3.60568e-20)
(1.21645 0.394091 -2.79632e-19)
(1.18033 0.422626 4.92026e-19)
(1.14553 0.449795 -2.46796e-21)
(1.10791 0.476604 1.99347e-19)
(1.0686 0.503138 -2.2961e-19)
(1.02785 0.52978 -2.5125e-19)
(0.985836 0.556916 -1.391e-19)
(0.942773 0.584873 -8.73681e-21)
(0.89881 0.6139 -3.47991e-19)
(0.854066 0.644135 -1.97847e-19)
(0.808605 0.675534 8.19163e-19)
(0.762387 0.707679 -3.25797e-19)
(0.715166 0.739399 -2.36182e-19)
(0.666347 0.768238 0)
(0.614884 0.78994 2.66081e-19)
(0.559274 0.798245 0)
(0.497724 0.785222 -7.5932e-20)
(0.428475 0.742179 0)
(0.35012 0.660964 0)
(0.261863 0.535281 0)
(0.16445 0.361362 7.98059e-20)
(0.0603261 0.138301 2.41425e-19)
(1.23441 0.43459 5.46119e-19)
(1.20193 0.465606 -4.63617e-19)
(1.17146 0.49478 -1.78121e-19)
(1.13799 0.523569 -3.29077e-21)
(1.10291 0.552065 -2.15989e-19)
(1.0664 0.58073 4.92316e-19)
(1.02869 0.610007 -1.28244e-19)
(0.98996 0.640261 -1.51753e-19)
(0.950378 0.671766 0)
(0.910061 0.704672 1.82544e-19)
(0.869063 0.738931 -9.42703e-19)
(0.827307 0.774078 5.13863e-19)
(0.784437 0.808823 0)
(0.739626 0.840449 0)
(0.691409 0.864251 -4.88004e-19)
(0.637655 0.873308 3.78931e-19)
(0.575756 0.858879 -2.65989e-19)
(0.50304 0.811441 1.32915e-21)
(0.417217 0.722151 5.7204e-19)
(0.316776 0.584303 -2.94862e-19)
(0.201938 0.394041 2.2522e-19)
(0.0748284 0.150638 -1.92226e-19)
(1.25163 0.470571 2.51112e-19)
(1.22332 0.503459 -5.80943e-19)
(1.1976 0.533976 3.23922e-19)
(1.1687 0.564076 1.7755e-19)
(1.1382 0.59388 2.04621e-19)
(1.10629 0.623949 -4.42687e-19)
(1.07319 0.654787 -2.40784e-19)
(1.03912 0.686795 0)
(1.00425 0.720268 -1.43781e-19)
(0.96869 0.755362 1.6773e-19)
(0.932505 0.79202 1.35512e-20)
(0.895574 0.829744 1.7948e-19)
(0.85743 0.867137 -9.53545e-20)
(0.817001 0.901257 -4.19944e-19)
(0.772375 0.926992 5.60691e-19)
(0.720738 0.936822 -1.1718e-20)
(0.658593 0.92127 0)
(0.582274 0.870073 0)
(0.488547 0.77381 -2.55138e-19)
(0.375149 0.625496 4.65286e-19)
(0.241771 0.421323 -2.07211e-19)
(0.0902087 0.160867 -6.01572e-20)
(1.26713 0.501607 0)
(1.24338 0.535631 0)
(1.22267 0.566886 1.53568e-19)
(1.19867 0.597799 -1.73126e-19)
(1.17315 0.628467 -1.88001e-19)
(1.14624 0.65952 5.99862e-21)
(1.11817 0.691503 2.3623e-19)
(1.08916 0.724846 2.50795e-19)
(1.05939 0.75986 2.73654e-19)
(1.029 0.796706 1.53471e-19)
(0.998025 0.835322 -1.52647e-19)
(0.966322 0.875177 -3.39819e-19)
(0.93331 0.914793 -2.63918e-19)
(0.897658 0.951035 8.4814e-19)
(0.856974 0.978438 -3.99213e-19)
(0.807708 0.988957 9.52867e-20)
(0.745411 0.972466 -4.25233e-19)
(0.665361 0.918071 2.2037e-19)
(0.563335 0.815892 1.71419e-19)
(0.436313 0.658793 7.22629e-21)
(0.283471 0.443151 -5.39721e-19)
(0.106275 0.168971 1.5287e-19)
(1.28005 0.528197 0)
(1.26155 0.562626 -2.48613e-19)
(1.24621 0.593766 0)
(1.22735 0.62462 0)
(1.20696 0.655336 0)
(1.18516 0.686635 0)
(1.16223 0.719095 0)
(1.1384 0.753157 -2.29984e-19)
(1.11388 0.789132 6.08649e-19)
(1.08879 0.827183 -1.29085e-19)
(1.06319 0.867241 0)
(1.03691 0.908766 1.60256e-19)
(1.00927 0.950223 0)
(0.97868 0.988331 -8.90695e-20)
(0.942277 1.01733 -8.24843e-20)
(0.895739 1.02869 0)
(0.8336 1.01169 8.63506e-20)
(0.749998 0.954857 8.7807e-20)
(0.639657 0.847962 -5.07522e-20)
(0.498781 0.683851 2.06992e-19)
(0.326059 0.459265 -4.67856e-20)
(0.122645 0.174832 -1.25643e-19)
(1.28928 0.549159 -2.10592e-19)
(1.27634 0.583359 2.38032e-19)
(1.2666 0.614158 5.29407e-19)
(1.25336 0.644796 1.39753e-19)
(1.23858 0.675388 1.57368e-19)
(1.22235 0.706719 -3.49121e-19)
(1.20499 0.739401 0)
(1.18676 0.773892 -4.11876e-19)
(1.16787 0.810508 -2.26423e-19)
(1.14849 0.849405 0)
(1.12866 0.890508 0)
(1.10819 0.933258 0)
(1.0863 0.976077 2.82108e-19)
(1.06113 1.01556 -4.53393e-19)
(1.02931 1.0457 3.20394e-19)