/*--------------------------------*- C++ -*----------------------------------*\
| =========                 |                                                 |
| \\      /  F ield         | OpenFOAM Extend Project: Open source CFD        |
|  \\    /   O peration     | Version:  1.6-ext                               |
|   \\  /    A nd           | Web:      www.extend-project.de                 |
|    \\/     M anipulation  |                                                 |
\*---------------------------------------------------------------------------*/
FoamFile
{
    version     2.0;
    format      ascii;
    class       volVectorField;
    location    "0.15";
    object      U_0;
}
// * * * * * * * * * * * * * * * * * * * * * * * * * * * * * * * * * * * * * //

dimensions      [0 1 -1 0 0 0 0];

internalField   nonuniform List<vector> 
20940
(
(1.60011 0.225723 3.96501e-22)
(1.6363 0.236106 1.35131e-20)
(1.67339 0.246583 0)
(1.71027 0.256544 0)
(1.7463 0.266134 0)
(1.77992 0.274706 -4.00524e-21)
(1.80858 0.281636 7.89076e-21)
(1.82839 0.28583 -1.07756e-21)
(1.83414 0.286004 -1.41819e-22)
(1.81985 0.2808 1.53895e-22)
(1.77974 0.269119 -4.01742e-21)
(1.70941 0.250454 2.41659e-21)
(1.60706 0.225131 4.60918e-21)
(1.47407 0.194374 -4.91521e-21)
(1.315 0.160142 -8.07058e-25)
(1.13675 0.124808 3.93067e-21)
(0.947398 0.0907879 -8.27247e-21)
(0.754996 0.0602354 0)
(0.566571 0.0348169 0)
(0.387554 0.0156155 0)
(0.221579 0.00358835 2.73064e-21)
(0.0705559 -0.000140387 -2.29918e-21)
(1.61231 0.180089 2.32363e-20)
(1.64847 0.189015 1.11901e-20)
(1.68537 0.197661 -1.10587e-20)
(1.72178 0.205906 2.24903e-20)
(1.75673 0.21361 -1.31183e-21)
(1.78821 0.220182 0)
(1.81311 0.224936 -3.48243e-21)
(1.82697 0.226844 1.07346e-21)
(1.82424 0.22478 0)
(1.79902 0.217687 0)
(1.74618 0.204878 7.84507e-22)
(1.66254 0.186292 4.88131e-21)
(1.54785 0.162628 3.92523e-21)
(1.40507 0.135304 1.09905e-20)
(1.23999 0.106231 -1.16634e-20)
(1.0602 0.0775044 1.47625e-20)
(0.873884 0.0510977 -1.13941e-20)
(0.688701 0.0286509 0)
(0.511005 0.0113369 0)
(0.345463 -0.000172369 1.01371e-20)
(0.195025 -0.00521067 -1.31489e-20)
(0.0611111 -0.00281167 6.58511e-21)
(1.62018 0.13457 -4.65197e-20)
(1.65626 0.141878 8.87494e-22)
(1.6928 0.148677 0)
(1.72847 0.155183 -4.08595e-20)
(1.76191 0.161038 1.16086e-20)
(1.79059 0.165711 6.8351e-21)
(1.81083 0.1685 -7.49387e-21)
(1.81769 0.168491 0)
(1.80544 0.164764 -1.29876e-21)
(1.76849 0.156582 -1.63409e-21)
(1.70261 0.14364 5.2002e-21)
(1.60599 0.126234 -2.75145e-20)
(1.47996 0.1053 -1.42825e-20)
(1.32893 0.0822933 -2.68922e-21)
(1.15968 0.0589474 1.0783e-20)
(0.980217 0.0369966 7.34762e-21)
(0.798588 0.0179534 -1.43402e-20)
(0.621908 0.00298043 2.41426e-20)
(0.455791 -0.0071746 -1.71055e-20)
(0.304135 -0.012175 0)
(0.169239 -0.0115926 0)
(0.0520616 -0.00461531 -4.2942e-21)
(1.62482 0.089427 0)
(1.66073 0.0950055 4.53413e-20)
(1.69671 0.0999718 -2.19861e-20)
(1.73132 0.104745 5.81479e-22)
(1.76269 0.108828 1.63845e-20)
(1.78777 0.111757 -2.52332e-21)
(1.80232 0.112866 0)
(1.801 0.111398 6.9149e-21)
(1.77812 0.106677 -6.82729e-21)
(1.72867 0.0982795 1.29917e-20)
(1.64951 0.0862265 -4.93368e-21)
(1.54038 0.0710639 5.34205e-21)
(1.40414 0.0538233 7.29631e-21)
(1.24648 0.035858 1.86344e-20)
(1.07492 0.0186158 -3.06166e-20)
(0.897602 0.00342224 2.93049e-20)
(0.722218 -0.00866512 1.25859e-20)
(0.555209 -0.0169122 -7.92595e-22)
(0.401393 -0.0209268 0)
(0.263905 -0.0206346 0)
(0.144422 -0.0157833 -2.65212e-20)
(0.0434709 -0.00566147 7.72992e-21)
(1.6259 0.0448803 -2.19291e-21)
(1.66159 0.0485716 -4.79278e-20)
(1.69684 0.0517136 -1.7995e-20)
(1.73004 0.0547643 8.30343e-20)
(1.75877 0.0571901 -3.8383e-20)
(1.77943 0.0586051 -3.06844e-20)
(1.78726 0.0584318 -8.65651e-21)
(1.7767 0.0561067 2.36935e-21)
(1.7423 0.0512012 4.57445e-21)
(1.67987 0.0435742 -5.5432e-22)
(1.58761 0.0334825 1.43337e-20)
(1.4668 0.0215936 -1.54273e-20)
(1.32179 0.00889256 1.14763e-20)
(1.15929 -0.00348856 7.19693e-21)
(0.987286 -0.0144587 0)
(0.813814 -0.0231159 2.1805e-20)
(0.646019 -0.0288231 -2.45045e-20)
(0.489579 -0.0312097 -6.88425e-21)
(0.348501 -0.0301619 -3.50356e-20)
(0.22519 -0.0257952 5.99612e-20)
(0.120758 -0.0179714 -1.54658e-20)
(0.0353609 -0.00602816 1.35762e-20)
(1.62313 0.00120087 8.83771e-20)
(1.65848 0.0028711 -3.1465e-21)
(1.69278 0.00423891 -8.81068e-20)
(1.7242 0.00561872 0)
(1.74969 0.00656549 -1.80149e-20)
(1.76514 0.00677478 1.2612e-20)
(1.76533 0.00581501 -2.56569e-20)
(1.74468 0.00333247 0)
(1.6982 -0.000865244 8.08818e-22)
(1.62275 -0.00670335 -2.58623e-22)
(1.51798 -0.0137978 1.197e-20)
(1.38671 -0.0214951 4.69983e-21)
(1.23459 -0.0289853 -3.98173e-20)
(1.06912 -0.0354495 -3.52987e-20)
(0.898475 -0.0401906 4.42527e-20)
(0.730347 -0.0427145 0)
(0.571215 -0.0427494 -1.09592e-20)
(0.425949 -0.0402139 0)
(0.297766 -0.0351957 3.13072e-20)
(0.188396 -0.027932 9.66445e-22)
(0.0984528 -0.0183467 -4.13639e-20)
(0.0277862 -0.00578927 1.75757e-20)
(1.61664 -0.0414128 -4.3726e-20)
(1.65156 -0.0419794 0)
(1.68469 -0.0423977 4.22965e-20)
(1.71392 -0.0426672 0)
(1.73558 -0.0430005 4.13212e-21)
(1.74505 -0.0436195 1.07025e-19)
(1.73682 -0.0447635 -1.67885e-20)
(1.70545 -0.0465861 -1.34656e-20)
(1.64665 -0.0490899 6.25193e-21)
(1.5585 -0.0520805 -2.50085e-21)
(1.44216 -0.0551752 0)
(1.3019 -0.057869 5.19483e-21)
(1.14446 -0.0596356 9.48621e-21)
(0.977842 -0.0600284 0)
(0.810155 -0.0587492 -4.14405e-20)
(0.648599 -0.0556707 1.52963e-20)
(0.498896 -0.0508178 9.80263e-21)
(0.365108 -0.0443209 -4.58693e-20)
(0.249711 -0.0363966 2.00043e-20)
(0.153832 -0.0273437 1.01023e-20)
(0.0776536 -0.0171069 -1.79394e-20)
(0.020782 -0.00501888 2.02367e-20)
(1.60582 -0.0826068 0)
(1.6401 -0.0855537 0)
(1.67184 -0.0876843 3.90858e-20)
(1.69851 -0.0895106 -6.95426e-21)
(1.71586 -0.0908591 -7.69927e-20)
(1.71881 -0.0918762 -3.08199e-20)
(1.70168 -0.0925662 0)
(1.65937 -0.0929066 8.20036e-21)
(1.58847 -0.0927704 0)
(1.48839 -0.0919515 -8.80393e-22)
(1.36178 -0.0901965 0)
(1.21422 -0.087268 -5.16181e-21)
(1.05327 -0.0830053 -5.25737e-21)
(0.887194 -0.0773651 0)
(0.723837 -0.0704278 -2.983e-20)
(0.569777 -0.0623782 3.57645e-20)
(0.42996 -0.0534661 3.53746e-20)
(0.307674 -0.0439608 -2.73446e-20)
(0.204723 -0.034144 0)
(0.121707 -0.0243271 -2.87683e-20)
(0.0584492 -0.0144426 1.9273e-20)
(0.0143641 -0.00378644 2.12239e-20)
(1.59122 -0.122202 0)
(1.62474 -0.127874 -4.09892e-20)
(1.65486 -0.13183 5.90002e-21)
(1.67862 -0.135242 8.07938e-20)
(1.69122 -0.137386 -4.2331e-21)
(1.6872 -0.13835 -6.15839e-20)
(1.6609 -0.13788 3.21772e-21)
(1.6077 -0.13584 -1.53919e-20)
(1.52524 -0.132067 1.6775e-20)
(1.41429 -0.126475 0)
(1.27889 -0.119072 8.60398e-23)
(1.12573 -0.109992 6.38644e-21)
(0.962961 -0.0994987 -1.63464e-21)
(0.798878 -0.0879539 1.24521e-20)
(0.6409 -0.0757787 -1.42009e-20)
(0.494925 -0.0634059 -1.90407e-21)
(0.365139 -0.051239 1.07164e-20)
(0.254113 -0.03962 3.03557e-20)
(0.163066 -0.0288408 -2.4778e-20)
(0.092145 -0.0191834 3.56252e-20)
(0.0408788 -0.0105415 -3.04102e-20)
(0.00853305 -0.00215855 2.23659e-21)
(1.57164 -0.159587 -8.37426e-20)
(1.60408 -0.168064 9.31736e-20)
(1.63237 -0.173734 0)
(1.65299 -0.178625 -4.23923e-20)
(1.6607 -0.181307 3.93485e-20)
(1.64971 -0.181816 3.23409e-21)
(1.61449 -0.179614 6.01337e-20)
(1.55103 -0.174493 5.73296e-21)
(1.45806 -0.166334 1.99528e-20)
(1.33769 -0.155276 0)
(1.19522 -0.141696 -3.27581e-21)
(1.03822 -0.126179 1.27526e-22)
(0.875193 -0.109446 -4.96675e-21)
(0.7143 -0.0922552 -3.92898e-21)
(0.562444 -0.0753284 -7.51562e-21)
(0.424833 -0.0592894 1.79238e-20)
(0.304943 -0.0446369 -4.17098e-21)
(0.204717 -0.0317329 0)
(0.124869 -0.0208361 0)
(0.0651777 -0.0121665 1.55662e-20)
(0.0249266 -0.00555815 -2.73229e-20)
(0.00327042 -0.000187929 -6.16972e-21)
(1.54874 -0.194736 0)
(1.57997 -0.206645 -8.51883e-20)
(1.60625 -0.214403 9.44931e-20)
(1.6235 -0.220983 8.1287e-20)
(1.62617 -0.224116 -1.23407e-19)
(1.60824 -0.223807 3.18901e-20)
(1.56444 -0.219251 -8.06049e-21)
(1.49146 -0.210253 -5.32134e-20)
(1.38915 -0.196858 0)
(1.26084 -0.17956 0)
(1.11293 -0.159214 9.63102e-21)
(0.95363 -0.136923 -7.10979e-21)
(0.791615 -0.113881 0)
(0.634762 -0.0912266 1.54377e-21)
(0.489418 -0.069935 0)
(0.360133 -0.0507693 2.86258e-21)
(0.249743 -0.0342728 0)
(0.159657 -0.0207838 0)
(0.0901748 -0.0104917 0)
(0.0407744 -0.00352569 0)
(0.010543 0.000361594 2.1518e-20)
(-0.00145075 0.00207635 -1.69769e-20)
(1.51988 -0.226286 -6.55465e-21)
(1.54942 -0.241337 -1.84675e-19)
(1.57358 -0.250985 9.70078e-20)
(1.58753 -0.259179 -5.0583e-20)
(1.58552 -0.262716 -4.58341e-21)
(1.56137 -0.261513 0)
(1.51007 -0.254458 0)
(1.42905 -0.241378 0)
(1.31914 -0.222513 0)
(1.18479 -0.198773 0)
(1.03324 -0.171542 1.25528e-20)
(0.873178 -0.142482 -1.35443e-20)
(0.713284 -0.113278 0)
(0.56109 -0.085437 3.976e-22)
(0.422397 -0.0601727 -1.17409e-21)
(0.301162 -0.0383638 2.51949e-21)
(0.199685 -0.0205749 -1.85247e-21)
(0.11894 -0.00709879 1.76454e-21)
(0.0589027 0.0019645 0)
(0.0188193 0.00659706 7.12875e-22)
(-0.00237714 0.0071452 0)
(-0.0056813 0.00461654 -4.25712e-21)
(1.48984 -0.255231 2.86828e-19)
(1.51729 -0.274703 0)
(1.5391 -0.287115 -8.96972e-20)
(1.54953 -0.297429 1.89414e-19)
(1.54292 -0.301561 0)
(1.51291 -0.299322 -4.21751e-20)
(1.45489 -0.289367 -5.43125e-21)
(1.36694 -0.271622 -6.93672e-20)
(1.25084 -0.246635 5.01243e-21)
(1.11195 -0.215837 4.76031e-20)
(0.958183 -0.181224 -1.13214e-20)
(0.798497 -0.145055 0)
(0.641449 -0.109509 0)
(0.494178 -0.0764527 0)
(0.361969 -0.0473142 0)
(0.248263 -0.0230702 1.02879e-21)
(0.154921 -0.004291 2.29001e-21)
(0.0825841 0.00878975 -4.24263e-21)
(0.0309908 0.0161773 1.25601e-21)
(-0.000780481 0.0179836 6.1576e-22)
(-0.0139138 0.0146764 0)
(-0.00945247 0.00739371 -1.40427e-21)
(1.45169 -0.277676 -1.02372e-19)
(1.47685 -0.299836 -1.971e-19)
(1.49638 -0.314806 1.25523e-21)
(1.50369 -0.32724 1.00971e-19)
(1.49335 -0.332465 9.69674e-20)
(1.45882 -0.329868 4.15297e-20)
(1.39587 -0.317823 2.12539e-21)
(1.30312 -0.296228 7.18145e-20)
(1.18308 -0.265872 -3.44341e-20)
(1.04178 -0.22865 -6.09228e-20)
(0.887572 -0.18715 -3.48616e-20)
(0.729558 -0.144229 3.88713e-20)
(0.576105 -0.102591 0)
(0.433974 -0.0644951 1.31056e-20)
(0.308002 -0.0316324 0)
(0.201223 -0.00511835 4.05515e-21)
(0.115178 0.014437 -3.6482e-21)
(0.0502835 0.0268374 -1.41936e-20)
(0.00613255 0.0321852 6.21445e-21)
(-0.0183002 0.0307268 0)
(-0.0242787 0.0230623 -2.15347e-21)
(-0.0128658 0.0104774 0)
(1.41947 -0.29975 0)
(1.43955 -0.327409 -9.90188e-20)
(1.45619 -0.34618 1.04005e-19)
(1.46001 -0.361375 -9.9536e-20)
(1.44585 -0.367975 -9.55442e-20)
(1.40714 -0.364894 0)
(1.33989 -0.350351 4.46892e-20)
(1.24322 -0.324282 4.08265e-20)
(1.12027 -0.287818 3.36738e-22)
(0.977621 -0.243422 6.96162e-20)
(0.82394 -0.19434 3.28659e-20)
(0.668292 -0.144071 -1.3231e-20)
(0.518752 -0.0958462 -2.85179e-20)
(0.381656 -0.0523133 3.2632e-21)
(0.261419 -0.0154125 -1.43103e-21)
(0.160743 0.0136034 8.52121e-21)
(0.0809579 0.034077 -1.41742e-20)
(0.0223641 0.045837 2.07707e-20)
(-0.0154915 0.049076 0)
(-0.0336609 0.0441801 -7.76155e-21)
(-0.0334454 0.0319035 -8.72098e-21)
(-0.01591 0.013723 1.8133e-20)
(1.383 -0.317271 1.09497e-19)
(1.39915 -0.345091 0)
(1.40926 -0.366805 5.83513e-20)
(1.40416 -0.382627 5.98482e-20)
(1.37966 -0.388761 0)
(1.32962 -0.383483 0)
(1.25162 -0.365079 -4.6744e-20)
(1.14633 -0.333758 -3.91288e-20)
(1.01827 -0.291163 6.52256e-21)
(0.874753 -0.240374 4.40735e-20)
(0.724382 -0.185213 0)
(0.575529 -0.129616 -3.50805e-20)
(0.435248 -0.0770992 7.35431e-20)
(0.308818 -0.0304735 -5.87285e-20)
(0.199764 0.0082382 1.95616e-20)
(0.110126 0.0377515 1.1259e-20)
(0.040798 0.0574162 0)
(-0.00817824 0.0671083 1.09321e-20)
(-0.0373889 0.0671165 0)
(-0.0479494 0.0579826 -9.9424e-21)
(-0.0411924 0.040637 -3.61827e-21)
(-0.0181908 0.0167364 1.04751e-20)
(1.35058 -0.352817 -1.72513e-19)
(1.36008 -0.38054 -1.73098e-19)
(1.35717 -0.401363 0)
(1.33611 -0.413059 1.1293e-19)
(1.29317 -0.412909 5.45189e-20)
(1.22429 -0.398969 -4.74022e-20)
(1.12978 -0.370597 5.19149e-20)
(1.01271 -0.329092 -4.49089e-20)
(0.879322 -0.277229 0)
(0.737313 -0.218907 -3.98023e-20)
(0.594585 -0.158338 -3.94334e-20)
(0.458027 -0.0994632 2.39944e-20)
(0.332949 -0.0455538 1.39464e-21)
(0.223 0.000921573 6.57211e-20)
(0.130391 0.0382706 -4.40662e-20)
(0.0562121 0.0654767 -1.21043e-20)
(0.000741728 0.0820874 -1.22367e-20)
(-0.0363232 0.0881219 -9.9554e-21)
(-0.0557196 0.0839803 2.48548e-20)
(-0.0585678 0.0703188 0)
(-0.046114 0.0481736 3.45707e-20)
(-0.0193457 0.0192127 -3.96898e-20)
(1.30338 -0.381883 -3.08005e-21)
(1.30183 -0.408005 -1.62075e-21)
(1.28278 -0.425724 1.7362e-19)
(1.2448 -0.431532 -1.76121e-19)
(1.18419 -0.423857 -1.12023e-19)
(1.09977 -0.400853 0)
(0.993964 -0.363239 4.70133e-20)
(0.871549 -0.313228 -4.7008e-20)
(0.739315 -0.254436 9.71028e-20)
(0.604459 -0.191134 0)
(0.473564 -0.127539 0)
(0.351859 -0.0673422 2.79433e-21)
(0.243047 -0.013475 2.44848e-20)
(0.149449 0.0319127 -2.61661e-20)
(0.072308 0.0673716 -2.67557e-20)
(0.0120883 0.092047 4.13653e-20)
(-0.0312821 0.105588 -1.50125e-20)
(-0.0582548 0.108083 2.97137e-20)
(-0.0695779 0.0999913 1.59952e-20)
(-0.0662868 0.0820462 0)
(-0.0494861 0.0553612 -3.5285e-20)
(-0.020046 0.0215972 2.31351e-20)
(1.24171 -0.406955 -1.73345e-19)
(1.22641 -0.430232 1.82558e-19)
(1.19046 -0.44305 2.4405e-21)
(1.13626 -0.441791 0)
(1.06049 -0.425853 -1.6843e-21)
(0.964895 -0.393993 -5.2247e-20)
(0.85322 -0.348196 5.72022e-20)
(0.731103 -0.291387 -9.92543e-20)
(0.605011 -0.227681 4.53791e-21)
(0.481058 -0.161388 0)
(0.364301 -0.096499 -2.73809e-20)
(0.258418 -0.0363358 -7.8797e-20)
(0.165776 0.0165377 5.71368e-20)
(0.0876896 0.0602659 -1.57466e-20)
(0.0247174 0.093596 -1.65159e-20)
(-0.0230828 0.115781 0)
(-0.0559828 0.126512 0)
(-0.0744822 0.125885 0)
(-0.0792734 0.114353 -1.61016e-20)
(-0.0712582 0.0926626 3.45087e-20)
(-0.0513647 0.0619445 -7.00646e-20)
(-0.0203083 0.0238234 2.7912e-20)
(1.16336 -0.424602 0)
(1.13298 -0.443544 0)
(1.08102 -0.450249 -1.24675e-19)
(1.01286 -0.441539 0)
(0.925932 -0.417637 2.62329e-21)
(0.824279 -0.37821 1.24296e-19)
(0.712114 -0.326169 5.4552e-20)
(0.595169 -0.264892 -5.64345e-21)
(0.478989 -0.198632 -2.92307e-20)
(0.368367 -0.131473 -2.55131e-20)
(0.266899 -0.0670141 1.4501e-19)
(0.176952 -0.00815278 -1.24117e-19)
(0.0998657 0.0429075 4.9184e-20)
(0.0362211 0.0845622 -1.85119e-21)
(-0.0138904 0.115698 -1.97494e-21)
(-0.0506738 0.135612 1.94874e-20)
(-0.0745093 0.143977 0)
(-0.0858929 0.140827 -4.92231e-20)
(-0.0854299 0.126546 4.03952e-20)
(-0.073868 0.101825 4.01536e-20)
(-0.0519426 0.067745 -8.17323e-20)
(-0.0201881 0.0258467 4.16899e-20)
(1.06887 -0.432252 -6.84142e-20)
(1.02365 -0.445766 -6.81626e-20)
(0.957932 -0.445868 6.78065e-20)
(0.879171 -0.430158 0)
(0.785703 -0.399534 6.71076e-20)
(0.682884 -0.354633 -1.22556e-19)
(0.574794 -0.298841 3.35425e-20)
(0.466641 -0.235714 0)
(0.362784 -0.169316 -2.97813e-20)
(0.266707 -0.103325 -3.02327e-20)
(0.18075 -0.0408708 6.45683e-20)
(0.106261 0.0155777 -3.68861e-20)
(0.0438195 0.0641414 -1.70734e-20)
(-0.0065083 0.10342 1.79532e-20)
(-0.0449557 0.132393 1.88294e-20)
(-0.0719079 0.150358 -1.96447e-20)
(-0.0878162 0.156916 0)
(-0.0931618 0.151988 4.27829e-20)
(-0.0884637 0.135823 -3.3742e-20)
(-0.0743185 0.108986 1.22911e-20)
(-0.051273 0.0724329 0)
(-0.0196775 0.0275504 -3.84325e-20)
(0.960608 -0.427836 1.31648e-19)
(0.902181 -0.4355 0)
(0.825974 -0.429364 -1.81771e-21)
(0.74051 -0.407942 -7.38307e-20)
(0.64499 -0.372604 4.27437e-21)
(0.545118 -0.324785 0)
(0.444464 -0.267945 -2.72926e-21)
(0.347357 -0.20556 3.58611e-20)
(0.256972 -0.141284 0)
(0.175648 -0.0783083 0)
(0.104742 -0.0192727 0)
(0.0448471 0.0337556 3.78618e-20)
(-0.0039962 0.0791865 2.04179e-20)
(-0.0420878 0.115795 -2.03092e-20)
(-0.0699013 0.142627 4.40241e-20)
(-0.0879684 0.15896 -2.21697e-20)
(-0.096812 0.164297 0)
(-0.0969186 0.158404 -3.76124e-20)
(-0.0887482 0.141343 5.26659e-20)
(-0.0727724 0.113481 5.32892e-20)
(-0.0493784 0.0755725 -6.72771e-20)
(-0.0187552 0.0287689 -5.76318e-21)
(0.842631 -0.409797 -1.40274e-19)
(0.773599 -0.411967 6.33943e-22)
(0.690575 -0.400739 0)
(0.602223 -0.37554 -7.77225e-20)
(0.50842 -0.337958 -7.31618e-20)
(0.414487 -0.28994 -3.9123e-20)
(0.32333 -0.23472 3.61922e-20)
(0.23828 -0.175493 3.68494e-20)
(0.161492 -0.115399 -7.9418e-20)
(0.0943936 -0.0571136 -4.12469e-20)
(0.0376207 -0.00281172 2.13422e-20)
(-0.00876438 0.0458082 -4.20381e-20)
(-0.045099 0.0874223 4.1075e-22)
(-0.0719535 0.120971 -2.2296e-20)
(-0.0899987 0.145573 -2.55803e-20)
(-0.0999108 0.160488 -1.10451e-20)
(-0.10231 0.165121 -1.39139e-20)
(-0.0977287 0.159066 0)
(-0.0866171 0.142159 -6.99814e-20)
(-0.0693705 0.114517 5.97583e-20)
(-0.0462698 0.076614 1.40282e-20)
(-0.0173962 0.0292832 -6.61632e-22)
(0.720387 -0.37778 1.4936e-19)
(0.643759 -0.375499 1.55209e-19)
(0.557428 -0.360868 -8.15877e-20)
(0.469395 -0.334138 7.85746e-20)
(0.380011 -0.296869 -4.21031e-20)
(0.293791 -0.251217 3.95357e-20)
(0.212975 -0.20002 0)
(0.139963 -0.146062 -1.24019e-19)
(0.0761211 -0.091945 8.75264e-20)
(0.0222061 -0.0398501 6.43231e-20)
(-0.0216435 0.00847599 -2.15228e-20)
(-0.0557293 0.0516776 0)
(-0.0806581 0.0886901 7.2037e-20)
(-0.0972138 0.118634 -5.16644e-20)
(-0.106248 0.14073 2.57277e-20)
(-0.108594 0.154254 1.14781e-21)
(-0.105004 0.15854 2.91489e-20)
(-0.0961074 0.153024 6.02925e-20)
(-0.0824052 0.137311 -1.2472e-19)
(-0.0642822 0.111234 -1.50181e-20)
(-0.0419918 0.074928 6.55225e-20)
(-0.0155919 0.0288306 6.01463e-20)
(0.599915 -0.331663 0)
(0.518627 -0.326513 -8.0147e-20)
(0.431868 -0.310524 8.23799e-20)
(0.346446 -0.284589 0)
(0.263018 -0.250077 4.24986e-20)
(0.185162 -0.209088 0)
(0.11455 -0.163996 0)
(0.052828 -0.117121 4.37768e-20)
(0.000795991 -0.0705546 2.11075e-20)
(-0.0412525 -0.0260225 -9.65202e-20)
(-0.0735176 0.0151206 0)
(-0.096559 0.0518444 -7.7113e-20)
(-0.111192 0.0833504 1.06315e-21)
(-0.118384 0.108968 5.62405e-20)
(-0.119159 0.128063 0)
(-0.114516 0.139981 -7.52709e-20)
(-0.105363 0.144043 3.1893e-20)
(-0.0924696 0.139574 -6.55072e-20)
(-0.0764432 0.12598 -8.60298e-21)
(-0.0577306 0.102822 6.55466e-23)
(-0.0366548 0.0698724 6.21509e-20)
(-0.0133661 0.027125 5.87805e-20)
(0.487013 -0.273363 -8.3341e-20)
(0.403384 -0.267112 0)
(0.318124 -0.251782 0)
(0.236592 -0.228675 -4.14618e-20)
(0.159658 -0.198925 9.72364e-20)
(0.0900283 -0.164401 -4.8968e-20)
(0.0289451 -0.127019 0)
(-0.0225127 -0.08864 0)
(-0.06395 -0.0508887 2.42733e-20)
(-0.0954137 -0.0150755 5.15725e-20)
(-0.117366 0.0178114 -2.74971e-20)
(-0.130582 0.04706 2.66917e-20)
(-0.136059 0.0721489 0)
(-0.134927 0.0926443 -1.54105e-20)
(-0.128361 0.108102 6.22408e-20)
(-0.117506 0.118 -1.13694e-19)
(-0.103414 0.121714 8.43622e-20)
(-0.086999 0.118543 0)
(-0.0690065 0.107772 -5.38405e-22)
(-0.0500004 0.088754 0)
(-0.0304706 0.060948 -7.77011e-20)
(-0.0107976 0.0239147 6.32149e-20)
(0.382853 -0.203568 8.39482e-20)
(0.299162 -0.197926 0)
(0.217029 -0.18514 4.52276e-20)
(0.140491 -0.166663 -1.464e-19)
(0.0705551 -0.143402 0)
(0.00921643 -0.116893 4.52716e-22)
(-0.0426259 -0.0886101 1.03242e-19)
(-0.0843501 -0.0599634 -3.25561e-21)
(-0.11591 -0.0321401 -1.07804e-19)
(-0.137667 -0.0060565 -3.83594e-20)
(-0.150339 0.0176475 1.4169e-19)
(-0.154908 0.0385649 -5.9909e-20)
(-0.152527 0.0564436 0)
(-0.144443 0.0710872 7.85042e-20)
(-0.131914 0.082259 -6.65962e-20)
(-0.116156 0.0896078 4.30036e-20)
(-0.0982912 0.0926347 -1.33843e-19)
(-0.0793257 0.0907043 7.41465e-20)
(-0.0601135 0.0830995 -2.8995e-20)
(-0.0413446 0.0690988 7.90491e-20)
(-0.0237352 0.047985 -3.06566e-20)
(-0.00802249 0.019026 0)
(0.280235 -0.130092 0)
(0.200767 -0.126207 4.52294e-20)
(0.125276 -0.117166 -5.00068e-20)
(0.0567018 -0.104355 4.95221e-20)
(-0.00388703 -0.0884956 0)
(-0.0550956 -0.0707413 5.1459e-20)
(-0.0963841 -0.0521412 -1.08888e-19)
(-0.127585 -0.0336602 5.73388e-20)
(-0.14903 -0.0160655 5.53707e-20)
(-0.161413 0.000100413 -4.55819e-20)
(-0.165703 0.0145154 7.40165e-20)
(-0.163042 0.0270372 -5.5141e-20)
(-0.154655 0.0376354 -6.31388e-20)
(-0.14178 0.0463085 6.70019e-20)
(-0.125614 0.0530014 -8.6652e-21)
(-0.107288 0.0575384 4.42152e-20)
(-0.0878488 0.0595885 -4.15012e-20)
(-0.0682593 0.0586683 -3.82272e-20)
(-0.049378 0.0541869 -6.35481e-23)
(-0.0319483 0.0455152 8.17173e-20)
(-0.0168763 0.03197 4.50071e-22)
(-0.00528495 0.0127875 -3.46181e-20)
(0.164554 -0.0549451 4.37617e-20)
(0.100156 -0.0529007 -4.84777e-20)
(0.040655 -0.0481533 6.09375e-20)
(-0.0118414 -0.0416989 -6.64094e-20)
(-0.0564082 -0.033977 3.81085e-20)
(-0.0922413 -0.0256358 -4.26738e-20)
(-0.119227 -0.0172127 7.17038e-21)
(-0.137643 -0.00916625 4.85614e-20)
(-0.148153 -0.00181835 -6.0587e-20)
(-0.151672 0.00464766 -7.64601e-21)
(-0.149254 0.0101736 -4.55831e-20)
(-0.141993 0.014795 -6.68187e-21)
(-0.130951 0.0185988 3.33615e-20)
(-0.117112 0.0216745 4.23806e-21)
(-0.101375 0.0240649 8.67876e-21)
(-0.0845574 0.0257247 0)
(-0.0674216 0.0264929 -4.65441e-21)
(-0.0507005 0.02609 -2.40204e-21)
(-0.0350926 0.0241505 0)
(-0.0212446 0.0202886 0)
(-0.0100431 0.0141171 4.30123e-20)
(-0.00277991 0.00536203 -3.61827e-20)
(0.0397205 -0.0085846 1.73389e-21)
(0.00908219 -0.00836755 4.86353e-20)
(-0.0182056 -0.00749856 -1.23643e-20)
(-0.0411775 -0.00630745 -3.77722e-20)
(-0.0594189 -0.00489606 4.25495e-20)
(-0.0727513 -0.0034188 -1.17735e-20)
(-0.0813969 -0.00198723 2.21897e-20)
(-0.0857963 -0.000687843 7.0476e-21)
(-0.0865563 0.000430344 -1.42497e-23)
(-0.084347 0.00135217 7.32144e-21)
(-0.0798291 0.00209054 0)
(-0.0736001 0.00267811 3.01829e-20)
(-0.0661649 0.00315782 -3.21303e-20)
(-0.0579302 0.00357231 -4.03169e-21)
(-0.0492195 0.00395171 0)
(-0.0403037 0.00430006 0)
(-0.0314404 0.00458145 -3.48936e-20)
(-0.0229175 0.00470978 2.46809e-21)
(-0.0150748 0.00455206 3.73234e-20)
(-0.00829998 0.00395007 9.39254e-24)
(-0.00319444 0.00273459 -3.99191e-20)
(-0.00066687 0.000854922 3.39364e-20)
(1.13152 0.0170357 4.43012e-20)
(1.08259 0.0177936 -2.53665e-20)
(1.0315 0.0186209 0)
(0.978331 0.0195743 -6.55109e-20)
(0.923376 0.0207013 3.62329e-20)
(0.866877 0.0220302 4.1548e-20)
(0.809029 0.0235663 -4.53131e-20)
(0.749998 0.025299 -7.66384e-20)
(0.689917 0.0272071 2.76142e-20)
(0.628896 0.0292634 6.17105e-20)
(0.56704 0.0314343 -3.33377e-20)
(0.504466 0.0336706 0)
(0.441344 0.0358875 1.95854e-20)
(0.377962 0.0379361 -2.09866e-20)
(0.314833 0.0395776 2.23434e-20)
(0.252802 0.0404726 -2.36335e-20)
(0.193142 0.0401984 0)
(0.137596 0.0382935 -2.61142e-20)
(0.0882426 0.0343226 5.41114e-20)
(0.0472795 0.0279443 -2.78835e-20)
(0.0177077 0.0189419 -2.88527e-20)
(0.00331348 0.00725267 2.34755e-20)
(1.13523 0.0765415 -4.42933e-20)
(1.0867 0.08178 -2.59601e-20)
(1.03616 0.0870922 1.13684e-19)
(0.983523 0.0924748 3.24927e-20)
(0.929102 0.0979715 0)
(0.873141 0.103644 0)
(0.815835 0.109542 0)
(0.75735 0.115704 1.27291e-19)
(0.69782 0.12215 -1.37777e-19)
(0.637357 0.128878 3.09742e-20)
(0.576063 0.135856 -1.33432e-19)
(0.514051 0.142979 7.18946e-20)
(0.451473 0.149996 -1.95813e-20)
(0.388589 0.156401 6.35408e-20)
(0.325854 0.161331 -1.10965e-19)
(0.264031 0.163518 7.028e-20)
(0.204285 0.161341 2.45056e-20)
(0.148231 0.152996 0)
(0.097819 0.136741 -1.07537e-19)
(0.0551307 0.111164 1.38009e-19)
(0.0230812 0.0753384 -2.82194e-20)
(0.00540611 0.0289387 -1.04999e-19)
(1.14256 0.136226 -3.66005e-22)
(1.09486 0.145914 0)
(1.04543 0.155587 -5.69106e-20)
(0.993872 0.165235 0)
(0.940542 0.174913 1.4537e-19)
(0.885691 0.18473 -1.59076e-19)
(0.829513 0.194788 -1.87202e-21)
(0.772175 0.205178 9.84069e-20)
(0.713811 0.215963 5.52024e-20)
(0.65453 0.227171 -1.21195e-19)
(0.59443 0.238769 1.30206e-19)
(0.533611 0.250599 0)
(0.472194 0.262245 0)
(0.410372 0.272852 2.0634e-19)
(0.348487 0.280942 -1.74018e-19)
(0.287129 0.284331 -9.21538e-20)
(0.227234 0.280223 -7.23175e-20)
(0.170154 0.265497 0)
(0.117572 0.237134 0)
(0.0713345 0.192689 -6.72781e-22)
(0.034177 0.130551 -8.39881e-20)
(0.00972967 0.0501526 2.17222e-19)
(1.15259 0.193705 8.60914e-20)
(1.10624 0.207683 9.65579e-20)
(1.05859 0.221519 0)
(1.00873 0.235251 1.23321e-19)
(0.957109 0.248944 1.38532e-19)
(0.903986 0.262749 0)
(0.849553 0.276824 -2.16014e-21)
(0.79398 0.29131 0)
(0.737401 0.306309 3.20728e-19)
(0.679926 0.321876 -2.32491e-19)
(0.621647 0.337976 -1.25676e-19)
(0.562646 0.354395 0)
(0.502997 0.370555 0)
(0.442795 0.385252 1.60249e-19)
(0.38221 0.396406 -1.69112e-19)
(0.321573 0.40094 4.54778e-20)
(0.261478 0.39492 2.36492e-19)
(0.202885 0.373959 -1.96177e-19)
(0.147075 0.33383 0)
(0.0955458 0.271119 -2.67464e-20)
(0.0507611 0.183597 1.64573e-19)
(0.0161905 0.070502 -3.78158e-19)
(1.16526 0.249253 -1.68353e-19)
(1.12071 0.267307 4.70952e-19)
(1.07542 0.285009 5.21627e-21)
(1.02781 0.302519 -3.62429e-19)
(0.978464 0.319917 -3.24645e-22)
(0.927642 0.337409 -3.04324e-19)
(0.875532 0.355211 8.18242e-20)
(0.822308 0.373513 1.89081e-19)
(0.768107 0.39246 -3.09651e-19)
(0.713036 0.412128 0)
(0.657183 0.432481 2.52429e-19)
(0.600601 0.453247 -2.65328e-19)
(0.543304 0.473688 -2.88412e-19)
(0.485258 0.49226 2.30832e-19)
(0.426405 0.506298 7.97107e-20)
(0.36673 0.511864 3.45215e-19)
(0.306382 0.503935 -3.60826e-19)
(0.245802 0.47693 0)
(0.185751 0.425497 0)
(0.127273 0.345344 0)
(0.0724851 0.23371 5.3091e-20)
(0.0246464 0.0896871 4.1663e-20)
(1.18011 0.301813 -1.53579e-19)
(1.13784 0.323656 -5.47159e-19)
(1.09547 0.344851 0)
(1.05066 0.365772 0)
(1.00414 0.386513 0)
(0.956168 0.407344 0)
(0.906934 0.428542 3.27786e-19)
(0.856615 0.450348 -5.32205e-19)
(0.80535 0.472943 1.9326e-19)
(0.753247 0.496423 3.23362e-19)
(0.700384 0.520748 -1.13872e-19)
(0.646786 0.545591 0)
(0.59239 0.570054 0)
(0.537 0.592269 7.48036e-20)
(0.480279 0.609006 -7.94552e-20)
(0.42179 0.615508 7.94608e-20)
(0.361129 0.605726 0)
(0.29811 0.572964 3.57828e-19)
(0.232865 0.510847 -2.8058e-19)
(0.165897 0.414314 0)
(0.0989107 0.280168 -3.95701e-19)
(0.0349183 0.107426 4.44591e-19)
(1.19667 0.350981 1.5629e-19)
(1.15712 0.37623 1.8427e-19)
(1.11819 0.400456 -1.96195e-19)
(1.07667 0.424336 2.18254e-19)
(1.03348 0.447985 0)
(0.988865 0.471741 0)
(0.94302 0.495944 -3.11659e-19)
(0.896127 0.520881 3.36115e-19)
(0.848325 0.546766 1.8071e-19)
(0.799722 0.573714 9.44931e-20)
(0.750385 0.601675 0)
(0.700305 0.630269 0)
(0.649329 0.658448 2.58871e-19)
(0.597072 0.684034 -5.50638e-19)
(0.542865 0.703265 1.50278e-19)
(0.485776 0.710613 -7.91777e-20)
(0.424755 0.699069 -2.44028e-19)
(0.358884 0.66092 3.34813e-19)
(0.287575 0.588872 2.57665e-19)
(0.210715 0.477214 1.2115e-21)
(0.129548 0.32242 -3.68044e-19)
(0.0468088 0.12351 3.66949e-20)
(1.21421 0.396199 -2.86508e-19)
(1.17786 0.424394 5.03387e-19)
(1.14286 0.451117 -2.4734e-21)
(1.1051 0.477431 2.0389e-19)
(1.06571 0.503472 -2.34575e-19)
(1.02493 0.529663 -2.56646e-19)
(0.982935 0.556407 -1.42026e-19)
(0.939929 0.584035 -8.70906e-21)
(0.896054 0.612793 -3.54766e-19)
(0.851419 0.642808 -2.01446e-19)
(0.806082 0.674022 8.34809e-19)
(0.759997 0.706004 -3.32096e-19)
(0.71291 0.737566 -2.40633e-19)
(0.664224 0.766241 0)
(0.612893 0.787773 2.71063e-19)
(0.557419 0.795916 0)
(0.496022 0.782775 -7.72926e-20)
(0.426958 0.739712 0)
(0.348834 0.658632 0)
(0.260868 0.533294 0)
(0.163805 0.359964 8.13975e-20)
(0.060082 0.137746 2.4596e-19)
(1.23191 0.437031 5.59717e-19)
(1.19921 0.4676 -4.74936e-19)
(1.16856 0.496226 -1.82242e-19)
(1.13496 0.524428 -3.29482e-21)
(1.0998 0.552358 -2.20932e-19)
(1.06328 0.580514 5.03001e-19)
(1.02558 0.609355 -1.31181e-19)
(0.986915 0.639249 -1.54887e-19)
(0.947423 0.670463 0)
(0.907216 0.703133 1.86169e-19)
(0.866341 0.737196 -9.62376e-19)
(0.824714 0.772171 5.24363e-19)
(0.781972 0.806749 0)
(0.737284 0.838202 0)
(0.689187 0.861823 -4.98087e-19)
(0.635555 0.870708 3.86924e-19)
(0.573799 0.856157 -2.71573e-19)
(0.501265 0.808705 1.31698e-21)
(0.415687 0.719572 5.8416e-19)
(0.31557 0.58211 -3.01123e-19)
(0.201143 0.392501 2.30058e-19)
(0.0745235 0.150029 -1.96198e-19)
(1.24886 0.473308 2.57884e-19)
(1.22034 0.505625 -5.95905e-19)
(1.19445 0.535483 3.32155e-19)
(1.16543 0.564908 1.82059e-19)
(1.13487 0.594078 2.09511e-19)
(1.10295 0.623589 -4.53408e-19)
(1.06988 0.653959 -2.46619e-19)
(1.03587 0.685587 0)
(1.00109 0.718756 -1.47206e-19)
(0.965648 0.753607 1.71375e-19)
(0.929585 0.790066 1.34939e-20)
(0.892779 0.827614 1.83741e-19)
(0.854756 0.864837 -9.76312e-20)
(0.81444 0.89878 -4.29562e-19)
(0.76992 0.924329 5.734e-19)
(0.718391 0.933984 -1.16642e-20)
(0.656376 0.91831 0)
(0.580236 0.867106 0)
(0.486766 0.771023 -2.61322e-19)
(0.373725 0.623134 4.76456e-19)
(0.24082 0.419669 -2.12124e-19)
(0.0898407 0.160213 -6.15062e-20)
(1.26407 0.504578 0)
(1.24014 0.537901 0)
(1.21928 0.568391 1.57633e-19)
(1.19518 0.598546 -1.77598e-19)
(1.16961 0.628522 -1.92893e-19)
(1.1427 0.658978 5.98338e-21)
(1.11467 0.69047 2.42008e-19)
(1.08573 0.72342 2.57089e-19)
(1.05605 0.758125 2.8046e-19)
(1.02577 0.794728 1.57117e-19)
(0.994916 0.833146 -1.56636e-19)
(0.963333 0.872829 -3.48315e-19)
(0.930435 0.912278 -2.70763e-19)
(0.894884 0.948344 8.69975e-19)
(0.85429 0.975564 -4.09499e-19)
(0.805116 0.985909 9.80504e-20)
(0.742936 0.969303 -4.36727e-19)
(0.663059 0.914916 2.26387e-19)
(0.561302 0.812941 1.76129e-19)
(0.434672 0.656302 7.19978e-21)
(0.282364 0.441414 -5.54828e-19)
(0.105844 0.168287 1.57068e-19)
(1.27671 0.531298 0)
(1.25807 0.564886 -2.56015e-19)
(1.2426 0.595159 0)
(1.22366 0.625188 0)
(1.20323 0.655172 0)
(1.18144 0.685855 0)
(1.15855 0.717818 0)
(1.1348 0.75149 -2.36249e-19)
(1.11037 0.787163 6.25711e-19)
(1.08539 0.82498 -1.32788e-19)
(1.05992 0.864851 0)
(1.03375 0.906214 1.64484e-19)
(1.00621 0.947513 0)
(0.975715 0.985455 -9.14875e-20)
(0.939387 1.01427 -8.51054e-20)
(0.892924 1.02547 0)
(0.830886 1.00836 8.92896e-20)
(0.747452 0.951561 9.08986e-20)
(0.637388 0.844896 -5.23468e-20)
(0.496936 0.681277 2.13597e-19)
(0.324804 0.457479 -4.85219e-20)
(0.122154 0.174131 -1.29992e-19)
(1.2857 0.552275 -2.17213e-19)
(1.27266 0.585519 2.45364e-19)
(1.26282 0.615369 5.45481e-19)
(1.24952 0.645129 1.44173e-19)
(1.23471 0.67496 1.62197e-19)
(1.2185 0.705664 -3.59687e-19)
(1.20118 0.737851 0)
(1.18302 0.771962 -4.24404e-19)
(1.16423 0.808289 -2.332e-19)
(1.14495 0.846967 0)
(1.12524 0.887898 0)
(1.10488 0.930502 0)
(1.08308 0.973178 2.91289e-19)
(1.05799 1.01251 -4.68066e-19)
(1.02623 1.04249 3.30783e-19)
(0.982656 1.05422 0)