/*--------------------------------*- C++ -*----------------------------------*\
| =========                 |                                                 |
| \\      /  F ield         | OpenFOAM Extend Project: Open source CFD        |
|  \\    /   O peration     | Version:  1.6-ext                               |
|   \\  /    A nd           | Web:      www.extend-project.de                 |
|    \\/     M anipulation  |                                                 |
\*---------------------------------------------------------------------------*/
FoamFile
{
    version     2.0;
    format      ascii;
    class       volScalarField::DimensionedInternalField;
    location    "0.15";
    object      V0;
}
// * * * * * * * * * * * * * * * * * * * * * * * * * * * * * * * * * * * * * //

dimensions      [0 3 0 0 0 0 0];

value           nonuniform List<scalar> 
20940
(
1.17099e-06
1.03797e-06
9.2093e-07
8.17897e-07
7.27127e-07
6.47104e-07
5.76502e-07
5.14164e-07
4.59077e-07
4.10358e-07
3.67232e-07
3.29023e-07
2.9514e-07
2.65063e-07
2.38338e-07
2.14568e-07
1.93402e-07
1.74534e-07
1.57697e-07
1.42655e-07
1.292e-07
1.17153e-07
1.17115e-06
1.0381e-06
9.21051e-07
8.18003e-07
7.27222e-07
6.4719e-07
5.76582e-07
5.14238e-07
4.59148e-07
4.10425e-07
3.67295e-07
3.29082e-07
2.95194e-07
2.65112e-07
2.38383e-07
2.14609e-07
1.9344e-07
1.74572e-07
1.57733e-07
1.4269e-07
1.29236e-07
1.17187e-07
1.17373e-06
1.04039e-06
9.23077e-07
8.19803e-07
7.28824e-07
6.48618e-07
5.77856e-07
5.15378e-07
4.60169e-07
4.11342e-07
3.68121e-07
3.29827e-07
2.95866e-07
2.65718e-07
2.3893e-07
2.15102e-07
1.93885e-07
1.74974e-07
1.581e-07
1.43025e-07
1.29542e-07
1.17468e-07
1.17801e-06
1.04418e-06
9.26446e-07
8.22797e-07
7.31486e-07
6.50989e-07
5.79971e-07
5.17266e-07
4.61857e-07
4.12853e-07
3.69476e-07
3.31045e-07
2.96962e-07
2.66707e-07
2.39823e-07
2.15908e-07
1.94614e-07
1.75633e-07
1.58696e-07
1.43565e-07
1.30034e-07
1.17917e-07
1.1833e-06
1.04891e-06
9.30672e-07
8.26581e-07
7.3488e-07
6.54036e-07
5.8271e-07
5.19733e-07
4.6408e-07
4.1486e-07
3.7129e-07
3.32687e-07
2.98451e-07
2.68059e-07
2.41053e-07
2.1703e-07
1.95638e-07
1.76567e-07
1.59548e-07
1.44344e-07
1.30745e-07
1.18567e-07
1.19017e-06
1.05506e-06
9.36193e-07
8.3154e-07
7.39342e-07
6.58056e-07
5.86337e-07
5.23009e-07
4.67044e-07
4.17544e-07
3.73724e-07
3.34896e-07
3.0046e-07
2.69888e-07
2.4272e-07
2.18551e-07
1.97028e-07
1.7784e-07
1.60714e-07
1.45411e-07
1.31722e-07
1.19462e-07
1.19856e-06
1.06261e-06
9.4299e-07
8.3767e-07
7.44877e-07
6.63061e-07
5.90871e-07
5.27121e-07
4.7078e-07
4.20942e-07
3.76818e-07
3.37716e-07
3.03033e-07
2.72238e-07
2.44869e-07
2.20518e-07
1.9883e-07
1.79493e-07
1.62231e-07
1.46805e-07
1.33003e-07
1.20639e-07
1.20847e-06
1.07157e-06
9.51108e-07
8.45029e-07
7.51553e-07
6.69123e-07
5.96379e-07
5.32134e-07
4.75347e-07
4.2511e-07
3.80627e-07
3.41201e-07
3.06223e-07
2.75162e-07
2.4755e-07
2.22979e-07
2.0109e-07
1.8157e-07
1.64143e-07
1.48566e-07
1.34627e-07
1.22139e-07
1.21985e-06
1.08193e-06
9.60534e-07
8.53621e-07
7.59392e-07
6.7628e-07
6.02917e-07
5.38109e-07
4.80811e-07
4.30111e-07
3.85208e-07
3.45403e-07
3.10083e-07
2.78711e-07
2.50815e-07
2.25985e-07
2.03861e-07
1.84125e-07
1.665e-07
1.50743e-07
1.36639e-07
1.24e-07
1.23263e-06
1.09359e-06
9.7121e-07
8.63403e-07
7.68366e-07
6.8452e-07
6.10489e-07
5.4507e-07
4.87212e-07
4.35997e-07
3.90622e-07
3.50385e-07
3.14671e-07
2.8294e-07
2.54718e-07
2.2959e-07
2.07192e-07
1.87206e-07
1.6935e-07
1.53381e-07
1.39081e-07
1.26262e-07
1.24655e-06
1.10639e-06
9.82981e-07
8.74242e-07
7.7836e-07
6.93746e-07
6.19014e-07
5.52953e-07
4.94505e-07
4.42746e-07
3.96868e-07
3.56164e-07
3.20017e-07
2.87885e-07
2.59294e-07
2.33827e-07
2.11119e-07
1.90846e-07
1.72727e-07
1.56513e-07
1.41988e-07
1.2896e-07
1.26211e-06
1.12075e-06
9.96228e-07
8.86471e-07
7.89656e-07
7.04189e-07
6.28679e-07
5.61909e-07
5.02813e-07
4.50458e-07
4.04029e-07
3.62815e-07
3.26193e-07
2.93618e-07
2.64614e-07
2.38762e-07
2.15696e-07
1.95094e-07
1.76671e-07
1.60178e-07
1.45393e-07
1.32124e-07
1.27855e-06
1.13604e-06
1.01045e-06
8.99697e-07
8.0195e-07
7.15613e-07
6.39294e-07
5.71775e-07
5.11989e-07
4.59001e-07
4.1199e-07
3.70238e-07
3.33117e-07
3.00077e-07
2.70637e-07
2.44375e-07
2.20924e-07
1.9996e-07
1.812e-07
1.64394e-07
1.49319e-07
1.35781e-07
1.29589e-06
1.15228e-06
1.02566e-06
9.13934e-07
8.15276e-07
7.28081e-07
6.50949e-07
5.8266e-07
5.22147e-07
4.68477e-07
4.20831e-07
3.78492e-07
3.40829e-07
3.07287e-07
2.77379e-07
2.50681e-07
2.2682e-07
2.05468e-07
1.86342e-07
1.6919e-07
1.53791e-07
1.3995e-07
1.31387e-06
1.16924e-06
1.04165e-06
9.28999e-07
8.29461e-07
7.41432e-07
6.63511e-07
5.94472e-07
5.33243e-07
4.78886e-07
4.30583e-07
3.8762e-07
3.49368e-07
3.15277e-07
2.84858e-07
2.57686e-07
2.33381e-07
2.11615e-07
1.92097e-07
1.74574e-07
1.58824e-07
1.44652e-07
1.24223e-06
1.10812e-06
9.89613e-07
8.84811e-07
7.92042e-07
7.09847e-07
6.36952e-07
5.7224e-07
5.14732e-07
4.63568e-07
4.17997e-07
3.77361e-07
3.41088e-07
3.08673e-07
2.79676e-07
2.53707e-07
2.30422e-07
2.09516e-07
1.90721e-07
1.73802e-07
1.58552e-07
1.44789e-07
1.21913e-06
1.08699e-06
9.7028e-07
8.67094e-07
7.75787e-07
6.94918e-07
6.23227e-07
5.59609e-07
5.031e-07
4.52852e-07
4.08121e-07
3.68256e-07
3.32685e-07
3.0091e-07
2.72495e-07
2.47055e-07
2.24255e-07
2.03797e-07
1.85419e-07
1.68888e-07
1.53999e-07
1.40571e-07
1.19716e-06
1.06696e-06
9.51987e-07
8.50374e-07
7.60489e-07
6.80905e-07
6.10376e-07
5.47809e-07
4.92252e-07
4.4287e-07
3.9893e-07
3.5979e-07
3.24885e-07
2.93721e-07
2.65862e-07
2.4093e-07
2.18592e-07
1.98555e-07
1.80562e-07
1.64387e-07
1.49828e-07
1.36707e-07
1.17647e-06
1.04813e-06
9.3483e-07
8.34727e-07
7.46204e-07
6.6785e-07
5.98433e-07
5.36872e-07
4.82223e-07
4.33662e-07
3.90466e-07
3.52003e-07
3.17717e-07
2.87119e-07
2.59781e-07
2.35326e-07
2.13425e-07
1.93785e-07
1.76153e-07
1.60305e-07
1.46045e-07
1.33198e-07
1.15717e-06
1.03061e-06
9.18911e-07
8.20239e-07
7.33003e-07
6.55807e-07
5.87435e-07
5.26818e-07
4.73024e-07
4.25237e-07
3.8274e-07
3.4491e-07
3.11197e-07
2.8112e-07
2.54258e-07
2.30239e-07
2.08736e-07
1.89463e-07
1.72166e-07
1.56622e-07
1.42637e-07
1.3004e-07
1.13907e-06
1.01424e-06
9.04075e-07
8.06779e-07
7.20775e-07
6.44686e-07
5.77307e-07
5.17584e-07
4.64596e-07
4.17537e-07
3.75699e-07
3.38464e-07
3.05288e-07
2.75698e-07
2.49275e-07
2.25654e-07
2.04514e-07
1.85572e-07
1.68579e-07
1.53316e-07
1.39588e-07
1.27227e-07
1.12301e-06
9.99707e-07
8.90914e-07
7.94845e-07
7.0994e-07
6.34836e-07
5.68342e-07
5.09415e-07
4.57144e-07
4.10731e-07
3.69476e-07
3.32768e-07
3.0007e-07
2.70912e-07
2.44881e-07
2.21615e-07
2.00797e-07
1.82147e-07
1.65422e-07
1.50403e-07
1.36903e-07
1.2475e-07
1.10836e-06
9.86494e-07
8.78979e-07
7.84051e-07
7.00166e-07
6.25974e-07
5.60296e-07
5.02102e-07
4.50488e-07
4.04666e-07
3.63944e-07
3.27716e-07
2.95452e-07
2.66686e-07
2.4101e-07
2.18067e-07
1.9754e-07
1.79156e-07
1.6267e-07
1.4787e-07
1.34566e-07
1.22595e-07
1.09534e-06
9.74769e-07
8.68409e-07
7.7451e-07
6.91543e-07
6.18171e-07
5.53227e-07
4.95688e-07
4.44663e-07
3.99367e-07
3.59118e-07
3.23316e-07
2.91436e-07
2.63016e-07
2.37654e-07
2.14993e-07
1.94724e-07
1.76572e-07
1.60298e-07
1.45688e-07
1.32559e-07
1.20744e-07
1.08394e-06
9.64525e-07
8.59191e-07
7.66204e-07
6.84049e-07
6.11401e-07
5.47103e-07
4.90143e-07
4.39635e-07
3.94804e-07
3.5497e-07
3.19541e-07
2.87995e-07
2.59877e-07
2.34786e-07
2.12371e-07
1.92323e-07
1.74372e-07
1.58279e-07
1.43835e-07
1.30855e-07
1.19178e-07
1.07415e-06
9.55737e-07
8.51296e-07
7.59102e-07
6.77652e-07
6.05632e-07
5.41893e-07
4.85433e-07
4.3537e-07
3.90938e-07
3.51463e-07
3.16355e-07
2.85098e-07
2.57238e-07
2.3238e-07
2.10174e-07
1.90315e-07
1.72534e-07
1.56595e-07
1.4229e-07
1.29437e-07
1.17875e-07
1.06591e-06
9.48355e-07
8.44673e-07
7.53153e-07
6.72302e-07
6.00815e-07
5.37551e-07
4.81512e-07
4.31827e-07
3.87731e-07
3.48557e-07
3.13719e-07
2.82704e-07
2.55061e-07
2.30399e-07
2.08368e-07
1.88669e-07
1.71029e-07
1.5522e-07
1.4103e-07
1.28282e-07
1.16813e-07
1.05916e-06
9.42314e-07
8.3926e-07
7.48297e-07
6.67939e-07
5.96891e-07
5.34018e-07
4.78327e-07
4.28951e-07
3.85133e-07
3.46205e-07
3.11588e-07
2.80771e-07
2.53307e-07
2.28803e-07
2.06918e-07
1.87346e-07
1.69825e-07
1.54119e-07
1.40026e-07
1.27361e-07
1.15969e-07
1.0539e-06
9.37604e-07
8.35039e-07
7.4451e-07
6.64539e-07
5.93833e-07
5.31264e-07
4.75845e-07
4.26711e-07
3.83108e-07
3.44373e-07
3.09928e-07
2.79266e-07
2.5194e-07
2.27561e-07
2.05787e-07
1.86316e-07
1.68886e-07
1.53263e-07
1.39246e-07
1.26653e-07
1.15324e-07
1.04973e-06
9.33891e-07
8.31733e-07
7.41563e-07
6.61908e-07
5.91481e-07
5.29159e-07
4.73958e-07
4.25018e-07
3.81586e-07
3.43003e-07
3.08693e-07
2.7815e-07
2.5093e-07
2.26646e-07
2.04955e-07
1.85559e-07
1.68195e-07
1.52631e-07
1.38664e-07
1.26117e-07
1.1488e-07
1.17425e-06
1.04679e-06
9.34179e-07
8.34605e-07
7.46485e-07
6.68433e-07
5.99237e-07
5.37834e-07
4.83294e-07
4.34802e-07
3.91643e-07
3.5319e-07
3.18894e-07
2.88271e-07
2.60898e-07
2.36402e-07
2.14455e-07
1.94769e-07
1.77091e-07
1.61196e-07
1.46888e-07
1.33993e-07
1.17454e-06
1.04706e-06
9.34435e-07
8.34844e-07
7.46709e-07
6.68643e-07
5.99433e-07
5.38018e-07
4.83466e-07
4.34963e-07
3.91793e-07
3.53331e-07
3.19026e-07
2.88394e-07
2.61013e-07
2.36509e-07
2.14556e-07
1.94863e-07
1.77178e-07
1.61278e-07
1.46965e-07
1.34065e-07
1.17728e-06
1.04953e-06
9.36662e-07
8.36855e-07
7.48527e-07
6.70288e-07
6.00923e-07
5.39369e-07
4.84693e-07
4.36078e-07
3.92809e-07
3.54256e-07
3.19869e-07
2.89165e-07
2.61717e-07
2.37154e-07
2.15145e-07
1.95404e-07
1.77674e-07
1.61733e-07
1.47383e-07
1.3445e-07
1.18188e-06
1.05366e-06
9.4037e-07
8.40192e-07
7.51533e-07
6.73e-07
6.03373e-07
5.41584e-07
4.86698e-07
4.37896e-07
3.94458e-07
3.55754e-07
3.21232e-07
2.90405e-07
2.62848e-07
2.38185e-07
2.16088e-07
1.96265e-07
1.78463e-07
1.62456e-07
1.48045e-07
1.35057e-07
1.18772e-06
1.05893e-06
9.45141e-07
8.44512e-07
7.5545e-07
6.76554e-07
6.06603e-07
5.44522e-07
4.89374e-07
4.40335e-07
3.96684e-07
3.57788e-07
3.23091e-07
2.92107e-07
2.64408e-07
2.39616e-07
2.17401e-07
1.97471e-07
1.79572e-07
1.63476e-07
1.48985e-07
1.35923e-07
1.19546e-06
1.06593e-06
9.51478e-07
8.50257e-07
7.60663e-07
6.81292e-07
6.10912e-07
5.48447e-07
4.92952e-07
4.436e-07
3.99667e-07
3.60516e-07
3.25588e-07
2.94395e-07
2.66505e-07
2.41541e-07
2.1917e-07
1.99098e-07
1.81069e-07
1.64854e-07
1.50255e-07
1.37095e-07
1.20509e-06
1.07467e-06
9.59407e-07
8.57463e-07
7.67219e-07
6.87263e-07
6.16357e-07
5.53416e-07
4.97492e-07
4.47753e-07
4.03469e-07
3.64e-07
3.28784e-07
2.97329e-07
2.69201e-07
2.4402e-07
2.21451e-07
2.01199e-07
1.83005e-07
1.6664e-07
1.51903e-07
1.38616e-07
1.21671e-06
1.08523e-06
9.69022e-07
8.66224e-07
7.7521e-07
6.9456e-07
6.23026e-07
5.59518e-07
5.0308e-07
4.52875e-07
4.08168e-07
3.68315e-07
3.32749e-07
3.00976e-07
2.72558e-07
2.47113e-07
2.24301e-07
2.03828e-07
1.85432e-07
1.68882e-07
1.53975e-07
1.40532e-07
1.23038e-06
1.09769e-06
9.80393e-07
8.76611e-07
7.84709e-07
7.03254e-07
6.30992e-07
5.66823e-07
5.09785e-07
4.59035e-07
4.13831e-07
3.73526e-07
3.37548e-07
3.05398e-07
2.76636e-07
2.50875e-07
2.27776e-07
2.07038e-07
1.88399e-07
1.71626e-07
1.56515e-07
1.42884e-07
1.24612e-06
1.11208e-06
9.9356e-07
8.88672e-07
7.95767e-07
7.13401e-07
6.40311e-07
5.7539e-07
5.17666e-07
4.6629e-07
4.20516e-07
3.79689e-07
3.43234e-07
3.10647e-07
2.81485e-07
2.55357e-07
2.31921e-07
2.10874e-07
1.9195e-07
1.74915e-07
1.59562e-07
1.45708e-07
1.26376e-06
1.12827e-06
1.00842e-06
9.0233e-07
8.08329e-07
7.24965e-07
6.50963e-07
5.85209e-07
5.26723e-07
4.74651e-07
4.28238e-07
3.86825e-07
3.49833e-07
3.16752e-07
2.87136e-07
2.6059e-07
2.36769e-07
2.15368e-07
1.96117e-07
1.78781e-07
1.63149e-07
1.49039e-07
1.28378e-06
1.14666e-06
1.02534e-06
9.17903e-07
8.22673e-07
7.38186e-07
6.63157e-07
5.96464e-07
5.37118e-07
4.84256e-07
4.37119e-07
3.95041e-07
3.57438e-07
3.23795e-07
2.93661e-07
2.66638e-07
2.42377e-07
2.20569e-07
2.00944e-07
1.83261e-07
1.6731e-07
1.52903e-07
1.30544e-06
1.16665e-06
1.04379e-06
9.34951e-07
8.38432e-07
7.52762e-07
6.76647e-07
6.08953e-07
5.48687e-07
4.94978e-07
4.47059e-07
4.0426e-07
3.65991e-07
3.31734e-07
3.01032e-07
2.73484e-07
2.48737e-07
2.2648e-07
2.06438e-07
1.8837e-07
1.7206e-07
1.57322e-07
1.32884e-06
1.18832e-06
1.06387e-06
9.53556e-07
8.55682e-07
7.68761e-07
6.91491e-07
6.22731e-07
5.6148e-07
5.06859e-07
4.58098e-07
4.14518e-07
3.75527e-07
3.406e-07
3.09277e-07
2.81153e-07
2.55873e-07
2.3312e-07
2.12618e-07
1.94123e-07
1.77417e-07
1.6231e-07
1.3538e-06
1.21151e-06
1.08543e-06
9.73602e-07
8.74325e-07
7.86103e-07
7.07626e-07
6.37746e-07
5.75455e-07
5.19868e-07
4.70209e-07
4.25797e-07
3.8603e-07
3.50383e-07
3.1839e-07
2.89644e-07
2.63784e-07
2.40492e-07
2.19488e-07
2.00526e-07
1.83385e-07
1.67873e-07
1.3538e-06
1.21151e-06
1.08543e-06
9.736e-07
8.74323e-07
7.86101e-07
7.07625e-07
6.37745e-07
5.75453e-07
5.19867e-07
4.70208e-07
4.25796e-07
3.8603e-07
3.50382e-07
3.1839e-07
2.89644e-07
2.63783e-07
2.40492e-07
2.19488e-07
2.00525e-07
1.83385e-07
1.67873e-07
1.32884e-06
1.18831e-06
1.06386e-06
9.5355e-07
8.55676e-07
7.68756e-07
6.91487e-07
6.22727e-07
5.61476e-07
5.06856e-07
4.58095e-07
4.14516e-07
3.75525e-07
3.40598e-07
3.09275e-07
2.81152e-07
2.55871e-07
2.33119e-07
2.12617e-07
1.94122e-07
1.77416e-07
1.62309e-07
1.30543e-06
1.16664e-06
1.04378e-06
9.34941e-07
8.38423e-07
7.52754e-07
6.76639e-07
6.08946e-07
5.48681e-07
4.94972e-07
4.47054e-07
4.04256e-07
3.65988e-07
3.31731e-07
3.01029e-07
2.73481e-07
2.48735e-07
2.26478e-07
2.06437e-07
1.88368e-07
1.72059e-07
1.57321e-07
1.28376e-06
1.14665e-06
1.02533e-06
9.17888e-07
8.22659e-07
7.38173e-07
6.63146e-07
5.96454e-07
5.3711e-07
4.84249e-07
4.37113e-07
3.95036e-07
3.57433e-07
3.23791e-07
2.93657e-07
2.66635e-07
2.42374e-07
2.20567e-07
2.00942e-07
1.8326e-07
1.67308e-07
1.52902e-07
1.26374e-06
1.12824e-06
1.0084e-06
9.02312e-07
8.08312e-07
7.24949e-07
6.50949e-07
5.85196e-07
5.26712e-07
4.74641e-07
4.28229e-07
3.86818e-07
3.49827e-07
3.16747e-07
2.87131e-07
2.60586e-07
2.36766e-07
2.15364e-07
1.96115e-07
1.78778e-07
1.63147e-07
1.49036e-07
1.24609e-06
1.11205e-06
9.93536e-07
8.88649e-07
7.95746e-07
7.13382e-07
6.40294e-07
5.75374e-07
5.17652e-07
4.66278e-07
4.20505e-07
3.7968e-07
3.43226e-07
3.10641e-07
2.81479e-07
2.55352e-07
2.31916e-07
2.1087e-07
1.91946e-07
1.74912e-07
1.59559e-07
1.45706e-07
1.23035e-06
1.09766e-06
9.80367e-07
8.76587e-07
7.84686e-07
7.03233e-07
6.30972e-07
5.66805e-07
5.09769e-07
4.5902e-07
4.13819e-07
3.73514e-07
3.37539e-07
3.05389e-07
2.76629e-07
2.50869e-07
2.2777e-07
2.07033e-07
1.88395e-07
1.71622e-07
1.56511e-07
1.42881e-07
1.21668e-06
1.08521e-06
9.68997e-07
8.662e-07
7.75188e-07
6.94538e-07
6.23005e-07
5.59499e-07
5.03062e-07
4.52858e-07
4.08153e-07
3.68301e-07
3.32737e-07
3.00966e-07
2.72549e-07
2.47105e-07
2.24294e-07
2.03822e-07
1.85426e-07
1.68877e-07
1.53971e-07
1.40528e-07
1.20506e-06
1.07464e-06
9.59384e-07
8.57441e-07
7.67199e-07
6.87243e-07
6.16337e-07
5.53397e-07
4.97474e-07
4.47736e-07
4.03453e-07
3.63984e-07
3.2877e-07
2.97316e-07
2.6919e-07
2.4401e-07
2.21442e-07
2.01191e-07
1.82998e-07
1.66634e-07
1.51898e-07
1.38612e-07
1.19544e-06
1.06591e-06
9.51458e-07
8.50238e-07
7.60645e-07
6.81274e-07
6.10895e-07
5.4843e-07
4.92935e-07
4.43584e-07
3.99651e-07
3.605e-07
3.25574e-07
2.94382e-07
2.66493e-07
2.4153e-07
2.19159e-07
1.99089e-07
1.81061e-07
1.64848e-07
1.5025e-07
1.3709e-07
1.1877e-06
1.05891e-06
9.45121e-07
8.44493e-07
7.55432e-07
6.76538e-07
6.06587e-07
5.44507e-07
4.8936e-07
4.40321e-07
3.9667e-07
3.57774e-07
3.23078e-07
2.92094e-07
2.64395e-07
2.39603e-07
2.17389e-07
1.97462e-07
1.79563e-07
1.63469e-07
1.48979e-07
1.35919e-07
1.18186e-06
1.05364e-06
9.40347e-07
8.4017e-07
7.51512e-07
6.72981e-07
6.03355e-07
5.41569e-07
4.86684e-07
4.37883e-07
3.94445e-07
3.55742e-07
3.2122e-07
2.90393e-07
2.62836e-07
2.38174e-07
2.16077e-07
1.96255e-07
1.78455e-07
1.62448e-07
1.4804e-07
1.35053e-07
1.17726e-06
1.04951e-06
9.36638e-07
8.36832e-07
7.48504e-07
6.70266e-07
6.00903e-07
5.39351e-07
4.84678e-07
4.36065e-07
3.92797e-07
3.54246e-07
3.1986e-07
2.89156e-07
2.61709e-07
2.37145e-07
2.15137e-07
1.95396e-07
1.77667e-07
1.61727e-07
1.47377e-07
1.34445e-07
1.17452e-06
1.04705e-06
9.34417e-07
8.34826e-07
7.4669e-07
6.68624e-07
5.99414e-07
5.37999e-07
4.83449e-07
4.34948e-07
3.91781e-07
3.53321e-07
3.19018e-07
2.88388e-07
2.61008e-07
2.36505e-07
2.14552e-07
1.94859e-07
1.77174e-07
1.61273e-07
1.4696e-07
1.3406e-07
1.17424e-06
1.04678e-06
9.34169e-07
8.34594e-07
7.46473e-07
6.68421e-07
5.99224e-07
5.3782e-07
4.8328e-07
4.34788e-07
3.9163e-07
3.5318e-07
3.18886e-07
2.88266e-07
2.60894e-07
2.364e-07
2.14454e-07
1.94768e-07
1.77089e-07
1.61193e-07
1.46884e-07
1.33988e-07
1.17429e-06
1.04683e-06
9.34214e-07
8.34639e-07
7.46516e-07
6.68462e-07
5.99264e-07
5.37858e-07
4.83316e-07
4.34822e-07
3.91662e-07
3.53208e-07
3.18911e-07
2.88288e-07
2.60914e-07
2.36417e-07
2.14469e-07
1.94781e-07
1.77101e-07
1.61204e-07
1.46894e-07
1.33997e-07
1.17457e-06
1.0471e-06
9.34466e-07
8.34873e-07
7.46736e-07
6.68667e-07
5.99455e-07
5.38038e-07
4.83484e-07
4.3498e-07
3.9181e-07
3.53347e-07
3.19041e-07
2.88408e-07
2.61026e-07
2.36521e-07
2.14565e-07
1.94872e-07
1.77185e-07
1.61284e-07
1.46969e-07
1.34068e-07
1.17731e-06
1.04956e-06
9.36688e-07
8.36879e-07
7.48549e-07
6.70308e-07
6.00942e-07
5.39387e-07
4.8471e-07
4.36094e-07
3.92823e-07
3.54269e-07
3.1988e-07
2.89174e-07
2.61725e-07
2.3716e-07
2.15151e-07
1.95408e-07
1.77678e-07
1.61737e-07
1.47386e-07
1.34453e-07
1.1819e-06
1.05368e-06
9.40392e-07
8.40213e-07
7.51553e-07
6.73018e-07
6.0339e-07
5.416e-07
4.86712e-07
4.37908e-07
3.94468e-07
3.55763e-07
3.21238e-07
2.9041e-07
2.62851e-07
2.38188e-07
2.16089e-07
1.96267e-07
1.78464e-07
1.62458e-07
1.48048e-07
1.3506e-07
1.18774e-06
1.05895e-06
9.45161e-07
8.44531e-07
7.55467e-07
6.7657e-07
6.06617e-07
5.44535e-07
4.89384e-07
4.40343e-07
3.9669e-07
3.57793e-07
3.23094e-07
2.92109e-07
2.64409e-07
2.39616e-07
2.17401e-07
1.97472e-07
1.79573e-07
1.63477e-07
1.48988e-07
1.35926e-07
1.19547e-06
1.06595e-06
9.51493e-07
8.50271e-07
7.60676e-07
6.81303e-07
6.10922e-07
5.48454e-07
4.92958e-07
4.43604e-07
3.9967e-07
3.60517e-07
3.2559e-07
2.94396e-07
2.66506e-07
2.41542e-07
2.1917e-07
1.99099e-07
1.8107e-07
1.64856e-07
1.50257e-07
1.37097e-07
1.2051e-06
1.07467e-06
9.59415e-07
8.5747e-07
7.67226e-07
6.87269e-07
6.16361e-07
5.5342e-07
4.97495e-07
4.47755e-07
4.0347e-07
3.64001e-07
3.28784e-07
2.9733e-07
2.69202e-07
2.44021e-07
2.21452e-07
2.012e-07
1.83006e-07
1.66642e-07
1.51905e-07
1.38618e-07
1.21671e-06
1.08523e-06
9.69025e-07
8.66226e-07
7.75213e-07
6.94562e-07
6.23027e-07
5.59519e-07
5.03081e-07
4.52876e-07
4.08169e-07
3.68316e-07
3.32751e-07
3.00978e-07
2.72561e-07
2.47114e-07
2.24304e-07
2.03831e-07
1.85435e-07
1.68884e-07
1.53977e-07
1.40535e-07
1.23037e-06
1.09769e-06
9.80392e-07
8.76611e-07
7.8471e-07
7.03255e-07
6.30993e-07
5.66824e-07
5.09787e-07
4.59037e-07
4.13833e-07
3.73528e-07
3.37551e-07
3.05401e-07
2.76639e-07
2.50879e-07
2.27779e-07
2.07042e-07
1.88402e-07
1.71629e-07
1.56517e-07
1.42886e-07
1.24611e-06
1.11208e-06
9.93559e-07
8.88671e-07
7.95767e-07
7.13402e-07
6.40313e-07
5.75392e-07
5.17669e-07
4.66293e-07
4.2052e-07
3.79692e-07
3.43238e-07
3.10651e-07
2.81489e-07
2.55361e-07
2.31925e-07
2.10877e-07
1.91953e-07
1.74918e-07
1.59565e-07
1.45711e-07
1.26376e-06
1.12827e-06
1.00842e-06
9.02332e-07
8.08332e-07
7.24967e-07
6.50966e-07
5.85212e-07
5.26727e-07
4.74655e-07
4.28242e-07
3.8683e-07
3.49837e-07
3.16757e-07
2.8714e-07
2.60595e-07
2.36773e-07
2.15372e-07
1.96121e-07
1.78784e-07
1.63152e-07
1.49041e-07
1.28378e-06
1.14667e-06
1.02535e-06
9.17907e-07
8.22678e-07
7.38191e-07
6.63163e-07
5.96469e-07
5.37124e-07
4.84262e-07
4.37125e-07
3.95047e-07
3.57443e-07
3.238e-07
2.93666e-07
2.66642e-07
2.42381e-07
2.20573e-07
2.00948e-07
1.83265e-07
1.67313e-07
1.52906e-07
1.30544e-06
1.16666e-06
1.0438e-06
9.34959e-07
8.3844e-07
7.5277e-07
6.76654e-07
6.0896e-07
5.48694e-07
4.94984e-07
4.47066e-07
4.04267e-07
3.65997e-07
3.3174e-07
3.01037e-07
2.73489e-07
2.48742e-07
2.26484e-07
2.06442e-07
1.88373e-07
1.72064e-07
1.57325e-07
1.32885e-06
1.18833e-06
1.06388e-06
9.53567e-07
8.55692e-07
7.68771e-07
6.91501e-07
6.2274e-07
5.61489e-07
5.06867e-07
4.58105e-07
4.14526e-07
3.75534e-07
3.40606e-07
3.09283e-07
2.81159e-07
2.55878e-07
2.33125e-07
2.12623e-07
1.94127e-07
1.7742e-07
1.62313e-07
1.35381e-06
1.21153e-06
1.08544e-06
9.73615e-07
8.74338e-07
7.86115e-07
7.07638e-07
6.37757e-07
5.75465e-07
5.19878e-07
4.70218e-07
4.25805e-07
3.86038e-07
3.5039e-07
3.18397e-07
2.8965e-07
2.63789e-07
2.40497e-07
2.19493e-07
2.0053e-07
1.83389e-07
1.67876e-07
1.35382e-06
1.21153e-06
1.08544e-06
9.73616e-07
8.74338e-07
7.86116e-07
7.07638e-07
6.37757e-07
5.75465e-07
5.19878e-07
4.70219e-07
4.25805e-07
3.86038e-07
3.5039e-07
3.18397e-07
2.8965e-07
2.63789e-07
2.40497e-07
2.19493e-07
2.0053e-07
1.83389e-07
1.67876e-07
1.32886e-06
1.18833e-06
1.06388e-06
9.53569e-07
8.55694e-07
7.68773e-07
6.91503e-07
6.22742e-07
5.6149e-07
5.06868e-07
4.58106e-07
4.14526e-07
3.75534e-07
3.40606e-07
3.09283e-07
2.81159e-07
2.55877e-07
2.33124e-07
2.12622e-07
1.94126e-07
1.7742e-07
1.62313e-07
1.30545e-06
1.16666e-06
1.04381e-06
9.34963e-07
8.38444e-07
7.52773e-07
6.76657e-07
6.08963e-07
5.48696e-07
4.94986e-07
4.47067e-07
4.04267e-07
3.65998e-07
3.3174e-07
3.01037e-07
2.73489e-07
2.48741e-07
2.26484e-07
2.06441e-07
1.88373e-07
1.72063e-07
1.57325e-07
1.28379e-06
1.14668e-06
1.02535e-06
9.17914e-07
8.22683e-07
7.38196e-07
6.63167e-07
5.96472e-07
5.37126e-07
4.84263e-07
4.37126e-07
3.95047e-07
3.57443e-07
3.238e-07
2.93665e-07
2.66642e-07
2.4238e-07
2.20573e-07
2.00947e-07
1.83264e-07
1.67312e-07
1.52905e-07
1.26377e-06
1.12828e-06
1.00843e-06
9.02341e-07
8.08339e-07
7.24974e-07
6.50971e-07
5.85216e-07
5.26731e-07
4.74657e-07
4.28243e-07
3.8683e-07
3.49838e-07
3.16757e-07
2.8714e-07
2.60594e-07
2.36772e-07
2.15371e-07
1.9612e-07
1.78783e-07
1.63152e-07
1.49041e-07
1.24613e-06
1.11209e-06
9.93569e-07
8.88681e-07
7.95775e-07
7.13409e-07
6.40319e-07
5.75396e-07
5.17672e-07
4.66296e-07
4.20521e-07
3.79694e-07
3.43238e-07
3.10651e-07
2.81489e-07
2.5536e-07
2.31924e-07
2.10876e-07
1.91952e-07
1.74917e-07
1.59564e-07
1.4571e-07
1.23039e-06
1.0977e-06
9.80402e-07
8.76619e-07
7.84717e-07
7.03261e-07
6.30998e-07
5.66829e-07
5.09791e-07
4.5904e-07
4.13836e-07
3.7353e-07
3.37552e-07
3.05402e-07
2.76639e-07
2.50878e-07
2.27778e-07
2.07041e-07
1.88401e-07
1.71628e-07
1.56516e-07
1.42885e-07
1.21672e-06
1.08524e-06
9.6903e-07
8.66231e-07
7.75217e-07
6.94566e-07
6.23031e-07
5.59523e-07
5.03085e-07
4.52879e-07
4.08172e-07
3.68318e-07
3.32753e-07
3.00979e-07
2.72561e-07
2.47115e-07
2.24304e-07
2.0383e-07
1.85434e-07
1.68883e-07
1.53976e-07
1.40533e-07
1.2051e-06
1.07467e-06
9.59413e-07
8.57469e-07
7.67225e-07
6.87268e-07
6.16361e-07
5.53421e-07
4.97496e-07
4.47757e-07
4.03472e-07
3.64003e-07
3.28787e-07
2.97331e-07
2.69203e-07
2.44022e-07
2.21453e-07
2.012e-07
1.83006e-07
1.66641e-07
1.51904e-07
1.38617e-07
1.19546e-06
1.06594e-06
9.51484e-07
8.50262e-07
7.60668e-07
6.81296e-07
6.10916e-07
5.4845e-07
4.92955e-07
4.43603e-07
3.99669e-07
3.60518e-07
3.25591e-07
2.94397e-07
2.66507e-07
2.41543e-07
2.19171e-07
1.991e-07
1.8107e-07
1.64856e-07
1.50256e-07
1.37095e-07
1.18772e-06
1.05894e-06
9.45146e-07
8.44517e-07
7.55454e-07
6.76558e-07
6.06606e-07
5.44525e-07
4.89377e-07
4.40337e-07
3.96686e-07
3.5779e-07
3.23093e-07
2.92109e-07
2.64409e-07
2.39617e-07
2.17402e-07
1.97473e-07
1.79573e-07
1.63477e-07
1.48986e-07
1.35924e-07
1.18188e-06
1.05366e-06
9.40374e-07
8.40195e-07
7.51536e-07
6.73003e-07
6.03375e-07
5.41586e-07
4.867e-07
4.37898e-07
3.94459e-07
3.55756e-07
3.21233e-07
2.90406e-07
2.62849e-07
2.38186e-07
2.16089e-07
1.96266e-07
1.78464e-07
1.62456e-07
1.48046e-07
1.35058e-07
1.17729e-06
1.04954e-06
9.36665e-07
8.36858e-07
7.48529e-07
6.7029e-07
6.00925e-07
5.39371e-07
4.84695e-07
4.3608e-07
3.9281e-07
3.54257e-07
3.1987e-07
2.89166e-07
2.61718e-07
2.37154e-07
2.15146e-07
1.95404e-07
1.77675e-07
1.61734e-07
1.47384e-07
1.3445e-07
1.17454e-06
1.04707e-06
9.34436e-07
8.34846e-07
7.4671e-07
6.68644e-07
5.99434e-07
5.38019e-07
4.83467e-07
4.34964e-07
3.91794e-07
3.53332e-07
3.19026e-07
2.88395e-07
2.61014e-07
2.3651e-07
2.14556e-07
1.94863e-07
1.77179e-07
1.61278e-07
1.46965e-07
1.34065e-07
1.17425e-06
1.04679e-06
9.34179e-07
8.34605e-07
7.46485e-07
6.68433e-07
5.99237e-07
5.37834e-07
4.83294e-07
4.34802e-07
3.91643e-07
3.5319e-07
3.18894e-07
2.88271e-07
2.60898e-07
2.36402e-07
2.14455e-07
1.94769e-07
1.77091e-07
1.61196e-07
1.46888e-07
1.33993e-07
1.17104e-06
1.1712e-06
1.17378e-06
1.17806e-06
1.18335e-06
1.19022e-06
1.1986e-06
1.20851e-06
1.21989e-06
1.23267e-06
1.24662e-06
1.26221e-06
1.27865e-06
1.29599e-06
1.31397e-06
1.24234e-06
1.21925e-06
1.19728e-06
1.17658e-06
1.15729e-06
1.13919e-06
1.12312e-06
1.10846e-06
1.09542e-06
1.08401e-06
1.0742e-06
1.06593e-06
1.05916e-06
1.05387e-06
1.04973e-06
1.03801e-06
1.03815e-06
1.04044e-06
1.04424e-06
1.04896e-06
1.05512e-06
1.06266e-06
1.07162e-06
1.08197e-06
1.09364e-06
1.10646e-06
1.12084e-06
1.13614e-06
1.15237e-06
1.16934e-06
1.10822e-06
1.08711e-06
1.06707e-06
1.04824e-06
1.03072e-06
1.01434e-06
9.99802e-07
9.86579e-07
9.74841e-07
9.64584e-07
9.55778e-07
9.48374e-07
9.42309e-07
9.37573e-07
9.33878e-07
9.20975e-07
9.21098e-07
9.23128e-07
9.26497e-07
9.30724e-07
9.36246e-07
9.43041e-07
9.51156e-07
9.6058e-07
9.71261e-07
9.83051e-07
9.96321e-07
1.01055e-06
1.02574e-06
1.04174e-06
9.89714e-07
9.70382e-07
9.52083e-07
9.34927e-07
9.19006e-07
9.04162e-07
8.90995e-07
8.7905e-07
8.6847e-07
8.59239e-07
8.51328e-07
8.44686e-07
8.39252e-07
8.35008e-07
8.317e-07
8.17939e-07
8.18048e-07
8.19852e-07
8.22846e-07
8.26631e-07
8.31593e-07
8.37722e-07
8.45077e-07
8.53666e-07
8.63451e-07
8.74306e-07
8.86558e-07
8.99788e-07
9.14016e-07
9.29085e-07
8.84904e-07
8.67187e-07
8.5046e-07
8.34811e-07
8.20321e-07
8.06854e-07
7.94914e-07
7.84111e-07
7.7456e-07
7.66243e-07
7.59126e-07
7.53161e-07
7.48286e-07
7.44479e-07
7.41515e-07
7.27167e-07
7.27264e-07
7.2887e-07
7.31534e-07
7.34928e-07
7.39392e-07
7.44928e-07
7.516e-07
7.59436e-07
7.68411e-07
7.78416e-07
7.89733e-07
8.02035e-07
8.15352e-07
8.29538e-07
7.92125e-07
7.75871e-07
7.60566e-07
7.46277e-07
7.33073e-07
7.2084e-07
7.09999e-07
7.00216e-07
6.91583e-07
6.84079e-07
6.7767e-07
6.72305e-07
6.67927e-07
6.64507e-07
6.6185e-07
6.47141e-07
6.47229e-07
6.48661e-07
6.51034e-07
6.54082e-07
6.58103e-07
6.6311e-07
6.69169e-07
6.76323e-07
6.84562e-07
6.93795e-07
7.04256e-07
7.15692e-07
7.28152e-07
7.415e-07
7.09921e-07
6.94993e-07
6.80973e-07
6.67914e-07
6.55867e-07
6.4474e-07
6.34885e-07
6.26015e-07
6.18203e-07
6.11424e-07
6.05645e-07
6.00815e-07
5.96877e-07
5.93802e-07
5.91417e-07
5.76538e-07
5.76617e-07
5.77895e-07
5.80013e-07
5.82753e-07
5.86381e-07
5.90916e-07
5.96424e-07
6.02959e-07
6.10529e-07
6.19057e-07
6.28737e-07
6.39366e-07
6.51016e-07
6.63572e-07
6.37016e-07
6.23293e-07
6.10436e-07
5.98487e-07
5.87485e-07
5.77352e-07
5.68382e-07
5.60329e-07
5.53252e-07
5.47121e-07
5.41902e-07
5.37548e-07
5.34002e-07
5.31234e-07
5.29091e-07
5.14198e-07
5.14271e-07
5.15413e-07
5.17305e-07
5.19772e-07
5.23049e-07
5.27163e-07
5.32176e-07
5.38149e-07
5.45108e-07
5.52991e-07
5.61957e-07
5.71838e-07
5.82723e-07
5.94526e-07
5.72294e-07
5.59666e-07
5.47863e-07
5.36919e-07
5.2686e-07
5.17621e-07
5.09448e-07
5.02128e-07
4.95707e-07
4.90155e-07
4.85437e-07
4.81506e-07
4.7831e-07
4.75815e-07
4.73889e-07
4.5911e-07
4.59178e-07
4.60201e-07
4.61893e-07
4.64117e-07
4.6708e-07
4.70817e-07
4.75387e-07
4.8085e-07
4.87248e-07
4.9454e-07
5.02852e-07
5.12042e-07
5.22206e-07
5.33293e-07
5.14778e-07
5.03149e-07
4.92299e-07
4.82264e-07
4.73059e-07
4.64627e-07
4.5717e-07
4.50509e-07
4.44677e-07
4.39643e-07
4.35371e-07
4.31819e-07
4.28934e-07
4.26683e-07
4.24949e-07
4.10388e-07
4.10453e-07
4.1137e-07
4.12885e-07
4.14894e-07
4.17577e-07
4.20975e-07
4.25147e-07
4.30148e-07
4.36031e-07
4.42778e-07
4.50491e-07
4.59044e-07
4.6853e-07
4.78934e-07
4.63609e-07
4.52893e-07
4.4291e-07
4.33698e-07
4.25266e-07
4.17562e-07
4.10751e-07
4.04682e-07
3.99377e-07
3.94808e-07
3.90936e-07
3.87722e-07
3.85115e-07
3.83081e-07
3.81519e-07
3.67261e-07
3.67322e-07
3.68147e-07
3.69504e-07
3.71321e-07
3.73754e-07
3.76847e-07
3.8066e-07
3.85244e-07
3.90656e-07
3.96898e-07
4.04058e-07
4.12025e-07
4.20878e-07
4.30629e-07
4.18034e-07
4.08155e-07
3.98964e-07
3.90497e-07
3.82765e-07
3.75719e-07
3.69492e-07
3.63955e-07
3.59125e-07
3.54971e-07
3.51459e-07
3.48547e-07
3.46188e-07
3.44348e-07
3.4294e-07
3.2905e-07
3.29108e-07
3.29851e-07
3.31069e-07
3.32713e-07
3.34923e-07
3.37743e-07
3.4123e-07
3.45437e-07
3.50418e-07
3.56193e-07
3.62841e-07
3.70267e-07
3.78532e-07
3.87663e-07
3.77397e-07
3.68286e-07
3.59818e-07
3.52029e-07
3.44931e-07
3.3848e-07
3.3278e-07
3.27724e-07
3.23321e-07
3.1954e-07
3.16349e-07
3.13707e-07
3.11571e-07
3.09904e-07
3.08634e-07
2.95165e-07
2.95219e-07
2.95889e-07
2.96985e-07
2.98474e-07
3.00483e-07
3.03057e-07
3.0625e-07
3.10115e-07
3.14703e-07
3.20044e-07
3.26217e-07
3.33142e-07
3.40861e-07
3.49407e-07
3.41121e-07
3.32712e-07
3.24908e-07
3.17738e-07
3.11215e-07
3.05302e-07
3.0008e-07
2.95458e-07
2.91438e-07
2.87993e-07
2.85091e-07
2.82692e-07
2.80754e-07
2.79243e-07
2.78095e-07
2.65085e-07
2.65135e-07
2.65741e-07
2.66728e-07
2.6808e-07
2.69908e-07
2.72259e-07
2.75186e-07
2.7874e-07
2.8297e-07
2.87911e-07
2.93641e-07
3.00099e-07
3.07314e-07
3.1531e-07
3.08705e-07
3.00935e-07
2.9374e-07
2.87136e-07
2.81135e-07
2.75709e-07
2.70919e-07
2.6669e-07
2.63017e-07
2.59874e-07
2.5723e-07
2.55049e-07
2.53291e-07
2.51919e-07
2.50881e-07
2.38358e-07
2.38405e-07
2.38951e-07
2.39843e-07
2.41071e-07
2.42737e-07
2.44887e-07
2.47572e-07
2.50842e-07
2.54747e-07
2.59319e-07
2.64635e-07
2.70658e-07
2.77403e-07
2.84887e-07
2.79705e-07
2.72517e-07
2.65879e-07
2.59794e-07
2.5427e-07
2.49285e-07
2.44887e-07
2.41012e-07
2.37653e-07
2.34782e-07
2.32372e-07
2.30387e-07
2.28787e-07
2.27541e-07
2.26601e-07
2.14585e-07
2.14628e-07
2.15123e-07
2.15928e-07
2.17047e-07
2.18566e-07
2.20534e-07
2.23e-07
2.26011e-07
2.29616e-07
2.33851e-07
2.38783e-07
2.44395e-07
2.50702e-07
2.57709e-07
2.53731e-07
2.47076e-07
2.40945e-07
2.35338e-07
2.30249e-07
2.25662e-07