/*--------------------------------*- C++ -*----------------------------------*\
| =========                 |                                                 |
| \\      /  F ield         | OpenFOAM Extend Project: Open source CFD        |
|  \\    /   O peration     | Version:  1.6-ext                               |
|   \\  /    A nd           | Web:      www.extend-project.de                 |
|    \\/     M anipulation  |                                                 |
\*---------------------------------------------------------------------------*/
FoamFile
{
    version     2.0;
    format      ascii;
    class       surfaceScalarField;
    location    "2";
    object      phi;
}
// * * * * * * * * * * * * * * * * * * * * * * * * * * * * * * * * * * * * * //

dimensions      [0 3 -1 0 0 0 0];

internalField   nonuniform List<scalar> 
123
(
0.000202715
1.01806e-05
0.000210739
3.20284e-05
0.000223175
6.03702e-05
0.000238759
9.63399e-05
0.000256857
0.000138237
0.000279538
0.00018399
0.000315013
0.000236359
0.000379919
0.000286652
0.000350019
0.000405823
0.000203927
6.25379e-06
0.000214869
2.10857e-05
0.000231805
4.34348e-05
0.000254153
7.39915e-05
0.000282558
0.000109832
0.000319911
0.000146638
0.000370308
0.000185962
0.000449094
0.000207866
0.000268286
0.000530827
0.000205922
3.31984e-07
0.000220056
6.95171e-06
0.000240249
2.32414e-05
0.000266002
4.82384e-05
0.000297988
7.78461e-05
0.000338068
0.000106558
0.000388048
0.000135983
0.000451682
0.000144232
0.000176814
0.000543154
0.000209194
-8.86183e-06
0.000226673
-1.05278e-05
0.000248008
1.90647e-06
0.000273567
2.26795e-05
0.000304519
4.68947e-05
0.000342223
6.88532e-05
0.000388631
8.95757e-05
0.000439665
9.31969e-05
0.000104544
0.000511936
0.000214216
-2.30774e-05
0.000231286
-2.75982e-05
0.00024858
-1.53871e-05
0.000268901
2.35794e-06
0.000294709
2.10871e-05
0.000327134
3.64279e-05
0.000367627
4.90823e-05
0.000409796
5.10282e-05
5.26099e-05
0.00046173
0.000211349
-3.44268e-05
0.000215641
-3.18897e-05
0.000218879
-1.86255e-05
0.000227028
-5.79105e-06
0.000243394
4.72164e-06
0.000267799
1.20229e-05
0.00029975
1.71307e-05
0.000333187
1.75913e-05
1.67695e-05
0.000369027
0.000165573
0.000133684
0.000115058
0.000109267
0.000113989
0.000126012
0.000143142
0.000160734
0.000177503
0.000145515
0.000160541
0.000124317
7.82618e-05
3.81372e-05
1.07104e-05
)
;

boundaryField
{
    inlet
    {
        type            calculated;
        value           nonuniform List<scalar> 7(-0.0002 -0.0002 -0.0002 -0.0002 -0.0002 -0.0002 -0.0002);
    }
    outlet
    {
        type            calculated;
        value           nonuniform 0();
    }
    fixedWalls
    {
        type            calculated;
        value           uniform 0;
    }
    frontAndBack
    {
        type            empty;
    }
    procBoundary2to3
    {
        type            processor;
        value           nonuniform List<scalar> 9(-1.28958e-05 -4.00524e-05 -7.28056e-05 -0.000111925 -0.000156334 -0.000206672 -0.000271834 -0.000351558 -0.000375923);
    }
    procBoundary2to1
    {
        type            processor;
        value           nonuniform List<scalar> 7(0.000260308 0.000515801 0.000579378 0.000557991 0.000501854 0.000396454 0.000188214);
    }
}


// ************************************************************************* //
