/*--------------------------------*- C++ -*----------------------------------*\
| =========                 |                                                 |
| \\      /  F ield         | OpenFOAM Extend Project: Open source CFD        |
|  \\    /   O peration     | Version:  1.6-ext                               |
|   \\  /    A nd           | Web:      www.extend-project.de                 |
|    \\/     M anipulation  |                                                 |
\*---------------------------------------------------------------------------*/
FoamFile
{
    version     2.0;
    format      ascii;
    class       volScalarField;
    location    "0.5";
    object      p;
}
// * * * * * * * * * * * * * * * * * * * * * * * * * * * * * * * * * * * * * //

dimensions      [0 2 -2 0 0 0 0];

internalField   nonuniform List<scalar> 
284
(
0.26466
0.233286
0.222159
0.216741
0.213878
0.212804
0.212928
0.213952
0.217283
0.235799
0.226095
0.220783
0.217912
0.216266
0.215827
0.216301
0.217395
0.22089
0.224656
0.219951
0.217152
0.215549
0.214572
0.214548
0.215283
0.216493
0.220331
0.215542
0.213121
0.211752
0.21099
0.210458
0.21061
0.211328
0.212367
0.216335
0.207858
0.206275
0.205511
0.204994
0.204391
0.2042
0.204316
0.2045
0.207944
0.200813
0.19951
0.198794
0.19797
0.196695
0.195438
0.194024
0.192102
0.193003
0.194164
0.192921
0.191904
0.190318
0.187743
0.184468
0.179913
0.172952
0.166089
0.188056
0.186782
0.185251
0.182563
0.178146
0.172054
0.162968
0.152551
0.103899
0.182846
0.181493
0.179339
0.175346
0.168519
0.158115
0.137963
0.103258
0.0039783
0.178976
0.177492
0.174713
0.16963
0.161222
0.148786
0.12885
0.0995603
0.0503802
0.1769
0.175107
0.171671
0.165794
0.15671
0.144134
0.127012
0.103576
0.0750367
0.177093
0.174526
0.170177
0.16359
0.15417
0.141862
0.126423
0.106402
0.084514
0.180888
0.176145
0.170126
0.162608
0.152868
0.14083
0.126411
0.108816
0.0899675
0.187538
0.178012
0.170111
0.162047
0.152314
0.140661
0.126997
0.110938
0.0936205
0.216663
0.186404
0.17344
0.164012
0.154093
0.142725
0.129418
0.113877
0.0967846
-0.13719
-0.116723
-0.0176161
-0.0404229
0.0270105
0.00194241
0.0540195
0.0325713
0.0673714
0.0478467
0.0744932
0.0565905
0.0781093
0.0598223
-0.100179
-0.0541696
-0.0191238
-0.00176602
0.00497824
0.00679007
0.00620016
0.00430475
0.00148744
-0.0442456
-0.0237132
-0.00478351
0.00462593
0.00776983
0.00806759
0.00677045
0.00448433
0.00141418
-0.00468045
1.35438e-05
0.00664917
0.010134
0.0105707
0.00937341
0.00725554
0.00456714
0.00132796
0.0210128
0.0166405
0.0155593
0.0145511
0.0126741
0.0102093
0.00742232
0.00446018
0.00120174
0.0345213
0.0263021
0.0211482
0.0172659
0.0137514
0.0104029
0.00719567
0.00413623
0.00103232
0.0422217
0.0316038
0.0239819
0.0183051
0.013765
0.00993401
0.00659202
0.00362967
0.000851199
0.044175
0.0319985
0.0230664
0.0166097
0.0118138
0.00808974
0.00507362
0.00256531
0.00048855
-0.00543555
-0.00137663
0.00138456
0.00362608
0.00494426
0.005253
0.0046665
0.00336889
0.00149591
-0.00889228
-0.00453637
-0.00151447
0.0011283
0.00288961
0.00362962
0.00346443
0.00259383
0.00124177
-0.0128604
-0.00757927
-0.00384404
-0.000462123
0.00185923
0.0029743
0.00306372
0.00237713
0.00119479
-0.0191036
-0.0120194
-0.00694436
-0.0022322
0.000967859
0.0025743
0.00292105
0.00235047
0.00119732
-0.029228
-0.0184965
-0.0110099
-0.00410995
0.000334684
0.00251203
0.00307686
0.00252576
0.00125371
-0.0476007
-0.0280298
-0.016096
-0.00588486
0.000156188
0.00288421
0.00354791
0.00288233
0.00134569
-0.0628117
-0.0404029
-0.0218502
-0.00732869
0.000536616
0.00369621
0.00427675
0.00335033
0.00143384
-0.134
-0.0614383
-0.0277549
-0.00752621
0.00176133
0.00494577
0.00517962
0.00384649
0.00148255
)
;

boundaryField
{
    inlet
    {
        type            zeroGradient;
    }
    outlet
    {
        type            totalPressure;
        rho             none;
        psi             none;
        gamma           1;
        p0              uniform 0;
        value           uniform 0;
    }
    fixedWalls
    {
        type            zeroGradient;
    }
    frontAndBack
    {
        type            empty;
    }
}


// ************************************************************************* //
