/*--------------------------------*- C++ -*----------------------------------*\
| =========                 |                                                 |
| \\      /  F ield         | OpenFOAM Extend Project: Open source CFD        |
|  \\    /   O peration     | Version:  1.6-ext                               |
|   \\  /    A nd           | Web:      www.extend-project.de                 |
|    \\/     M anipulation  |                                                 |
\*---------------------------------------------------------------------------*/
FoamFile
{
    version     2.0;
    format      ascii;
    class       surfaceScalarField;
    location    "0.5";
    object      phi;
}
// * * * * * * * * * * * * * * * * * * * * * * * * * * * * * * * * * * * * * //

dimensions      [0 3 -1 0 0 0 0];

internalField   nonuniform List<scalar> 
525
(
0.000163455
3.65452e-05
0.000126647
3.68079e-05
9.89342e-05
2.77128e-05
7.78812e-05
2.1053e-05
5.97577e-05
1.81235e-05
4.23363e-05
1.74214e-05
2.46909e-05
1.76454e-05
8.09042e-06
1.66004e-05
8.09042e-06
0.000203811
3.27343e-05
0.000189454
5.11645e-05
0.000166049
5.11184e-05
0.000139626
4.74759e-05
0.000111737
4.6012e-05
8.21181e-05
4.70405e-05
5.06075e-05
4.91561e-05
1.94393e-05
4.77686e-05
2.75297e-05
0.00020502
2.77145e-05
0.000196802
5.93826e-05
0.000178496
6.94241e-05
0.000154424
7.15475e-05
0.000126552
7.38842e-05
9.51144e-05
7.84784e-05
6.01183e-05
8.41522e-05
2.39727e-05
8.39142e-05
5.15025e-05
0.00020162
2.60947e-05
0.00019463
6.63726e-05
0.000179599
8.44553e-05
0.000158908
9.22381e-05
0.000133511
9.9281e-05
0.000103156
0.000108834
6.73363e-05
0.000119972
2.79803e-05
0.00012327
7.94828e-05
0.00019999
2.61042e-05
0.000193973
7.23904e-05
0.000181971
9.64569e-05
0.000164985
0.000109224
0.000142953
0.000121313
0.000114773
0.000137014
7.87817e-05
0.000155963
3.52088e-05
0.000166843
0.000114692
0.000199934
2.61698e-05
0.000196011
7.63136e-05
0.000187827
0.000104641
0.000175474
0.000121577
0.000158142
0.000138645
0.000133768
0.000161389
9.87502e-05
0.00019098
4.97931e-05
0.0002158
0.000164485
0.000200805
2.53648e-05
0.000200175
7.69434e-05
0.000197026
0.00010779
0.000190856
0.000127747
0.0001806
0.000148902
0.000164001
0.000177988
0.000135047
0.000219934
8.34612e-05
0.000267386
0.000247946
0.000202185
2.31795e-05
0.000205765
7.33633e-05
0.000208799
0.000104757
0.00021047
0.000126075
0.00020987
0.000149502
0.000204722
0.000183135
0.000186555
0.000238102
0.000136024
0.000317917
0.000383969
0.000203801
1.93789e-05
0.000212018
6.51462e-05
0.000221806
9.49679e-05
0.000232672
0.00011521
0.000246133
0.000136041
0.000265899
0.000163369
0.000305324
0.000198677
0.000385955
0.000237286
0.000329373
0.000440551
0.000205482
1.38966e-05
0.000218083
5.25457e-05
0.00023386
7.91911e-05
0.000252137
9.69321e-05
0.000274985
0.000113194
0.000306575
0.000131779
0.000352976
0.000152276
0.000426385
0.000163878
0.000231249
0.000524509
0.000207385
6.51183e-06
0.000223732
3.61981e-05
0.000243829
5.9094e-05
0.000266409
7.43528e-05
0.000292804
8.67982e-05
0.000325724
9.88586e-05
0.000367664
0.000110335
0.000419791
0.000111751
0.000137797
0.000513243
0.000210105
-3.59325e-06
0.000229612
1.66915e-05
0.000252154
3.65521e-05
0.000276402
5.01043e-05
0.00030333
5.98702e-05
0.000334555
6.76341e-05
0.000371296
7.35934e-05
0.000411198
7.18497e-05
7.67111e-05
0.000472283
0.000214313
-1.79058e-05
0.000235456
-4.45158e-06
0.000257774
1.42334e-05
0.000281322
2.65562e-05
0.000307015
3.41775e-05
0.000335605
3.90445e-05
0.000367376
4.18225e-05
0.000399309
3.99165e-05
3.79048e-05
0.000438115
0.000212972
-3.08775e-05
0.000226966
-1.84455e-05
0.000243781
-2.58189e-06
0.000263621
6.71573e-06
0.000286103
1.16958e-05
0.000310924
1.42237e-05
0.000337441
1.53054e-05
0.000363059
1.42981e-05
1.24769e-05
0.000388487
0.000169123
0.000150677
0.000148095
0.000154811
0.000166507
0.00018073
0.000196036
0.000210334
0.000222811
0.000336387
0.000104164
-1.51153e-05
0.000351503
0.0005378
9.08735e-05
-2.28058e-05
0.00054549
0.00054095
6.31667e-05
-1.17497e-05
0.000529894
0.000496683
3.87665e-05
-6.8429e-06
0.000491776
0.000458054
1.88278e-05
-4.89414e-06
0.000456105
0.000402095
5.22049e-06
-3.62735e-06
0.000400828
0.000228031
0.000224404
0.000368019
-0.000173059
0.000156543
0.000351894
-0.000223525
0.000239649
0.000314934
-0.000206796
0.000243756
0.000284037
-0.000168703
0.0001996
0.000264289
-0.00012958
0.000149328
0.000252659
-9.65002e-05
0.000108131
0.000246019
-6.95576e-05
7.6198e-05
0.000242544
-4.7227e-05
5.07021e-05
-2.69117e-05
2.84723e-05
0.000490796
-0.000118365
0.000422815
-0.000155544
0.000364906
-0.000148886
0.000323229
-0.000127025
0.000296329
-0.000102681
0.000279346
-7.95166e-05
0.000268634
-5.88457e-05
0.000262218
-4.0811e-05
-2.36198e-05
0.000482566
-7.10373e-05
0.000426912
-9.98894e-05
0.000380154
-0.000102128
0.000344475
-9.13469e-05
0.000318252
-7.64577e-05
0.000299576
-6.08401e-05
0.000286688
-4.59578e-05
0.000278339
-3.24616e-05
-1.90969e-05
0.000462587
-4.18474e-05
0.000423959
-6.12615e-05
0.000387303
-6.54722e-05
0.00035651
-6.05541e-05
0.000331914
-5.18615e-05
0.000313074
-4.20007e-05
0.000299293
-3.21768e-05
0.000289876
-2.3044e-05
-1.38107e-05
0.000437955
-2.36967e-05
0.00041105
-3.43575e-05
0.000382558
-3.69794e-05
0.000356441
-3.44378e-05
0.000334191
-2.96106e-05
0.000316245
-2.40552e-05
0.00030257
-1.85019e-05
0.000292871
-1.33447e-05
-8.23107e-06
0.000387449
-1.03182e-05
0.000366794
-1.37026e-05
0.000343903
-1.40882e-05
0.000322162
-1.26964e-05
0.00030319
-1.0639e-05
0.000287616
-8.48126e-06
0.000275568
-6.45329e-06
0.000266886
-4.66314e-06
-3.12811e-06
0.000214086
0.000200383
0.000186295
0.000173599
0.00016296
0.000154478
0.000148025
0.000143362
2.14681e-06
-2.14681e-06
1.21361e-05
-9.98931e-06
2.41727e-05
-1.20366e-05
3.57215e-05
-1.15488e-05
4.58382e-05
-1.01167e-05
5.41184e-05
-8.28021e-06
6.04189e-05
-6.30042e-06
6.47658e-05
-4.34693e-06
-2.79925e-06
7.42491e-06
-9.57173e-06
2.63824e-05
-2.89468e-05
4.78701e-05
-3.35243e-05
6.82167e-05
-3.18954e-05
8.59497e-05
-2.78498e-05
0.000100448
-2.2778e-05
0.000111492
-1.73444e-05
0.000119056
-1.19115e-05
-7.12885e-06
8.03067e-06
-1.76024e-05
3.02541e-05
-5.11702e-05
5.54549e-05
-5.87251e-05
7.90659e-05
-5.55064e-05
9.93385e-05
-4.81224e-05
0.000115681
-3.91201e-05
0.000128011
-2.96747e-05
0.000136424
-2.03244e-05
-1.18785e-05
6.40128e-06
-2.40037e-05
3.16305e-05
-7.63995e-05
6.06618e-05
-8.77563e-05
8.72211e-05
-8.20656e-05
0.000109235
-7.01358e-05
0.000126395
-5.62809e-05
0.000139027
-4.23067e-05
0.000147546
-2.88427e-05
-1.66381e-05
3.27562e-06
-2.72793e-05
3.33133e-05
-0.000106437
6.84051e-05
-0.000122848
9.89658e-05
-0.000112626
0.000122765
-9.39349e-05
0.000140305
-7.38214e-05
0.000152695
-5.46965e-05
0.000160887
-3.7034e-05
-2.11411e-05
2.32698e-06
-2.96063e-05
4.01174e-05
-0.000144228
8.30365e-05
-0.000165767
0.000117732
-0.000147322
0.000142479
-0.000118682
0.000159307
-9.06491e-05
0.000170499
-6.58885e-05
0.00017769
-4.42259e-05
-2.50122e-05
2.60912e-05
-5.56975e-05
6.963e-05
-0.000187766
0.000115094
-0.000211232
0.000149185
-0.000181412
0.000171041
-0.000140538
0.000184399
-0.000104007
0.000192576
-7.4065e-05
0.000197654
-4.93045e-05
-2.76882e-05
0.000100845
0.000152728
0.000185252
0.00020344
0.00021223
0.000216353
0.000218486
0.000219884
)
;

boundaryField
{
    inlet
    {
        type            calculated;
        value           uniform -0.0002;
    }
    outlet
    {
        type            calculated;
        value           nonuniform List<scalar> 
15
(
6.7565e-05
0.000123386
0.000141173
0.000152305
0.00016539
0.000181561
0.00020033
0.000220668
0.000240983
0.000258926
0.000273816
0.000284589
0.000287291
0.000261783
0.000140234
)
;
    }
    fixedWalls
    {
        type            calculated;
        value           uniform 0;
    }
    frontAndBack
    {
        type            empty;
    }
}


// ************************************************************************* //
