/*--------------------------------*- C++ -*----------------------------------*\
| =========                 |                                                 |
| \\      /  F ield         | OpenFOAM Extend Project: Open source CFD        |
|  \\    /   O peration     | Version:  1.6-ext                               |
|   \\  /    A nd           | Web:      www.extend-project.de                 |
|    \\/     M anipulation  |                                                 |
\*---------------------------------------------------------------------------*/
FoamFile
{
    version     2.0;
    format      ascii;
    class       volVectorField;
    location    "0.5";
    object      U;
}
// * * * * * * * * * * * * * * * * * * * * * * * * * * * * * * * * * * * * * //

dimensions      [0 1 -1 0 0 0 0];

internalField   nonuniform List<vector> 
284
(
(0.162392 0.0246123 0)
(0.148254 0.022177 0)
(0.112209 0.0148095 0)
(0.087364 0.00987352 0)
(0.0686747 0.00761036 0)
(0.0512244 0.0068387 0)
(0.0335922 0.00667303 0)
(0.0149082 0.00601312 0)
(0.00262456 0.00219949 0)
(0.19648 0.0403931 0)
(0.20272 0.0482993 0)
(0.1797 0.0410782 0)
(0.152634 0.0340157 0)
(0.126052 0.0306859 0)
(0.0975721 0.0301855 0)
(0.0667666 0.0308988 0)
(0.0331253 0.0294299 0)
(0.00780604 0.015589 0)
(0.197991 0.0292542 0)
(0.206449 0.0553293 0)
(0.190027 0.0606681 0)
(0.16672 0.0598934 0)
(0.141265 0.0601434 0)
(0.111859 0.062701 0)
(0.0784092 0.0663046 0)
(0.0402631 0.0651938 0)
(0.010023 0.0389102 0)
(0.19632 0.0265506 0)
(0.202736 0.0628548 0)
(0.18922 0.0773875 0)
(0.169611 0.0825033 0)
(0.147221 0.0871334 0)
(0.11971 0.0940174 0)
(0.0865433 0.102117 0)
(0.0462819 0.103173 0)
(0.0122577 0.0648551 0)
(0.195401 0.0260694 0)
(0.200932 0.0696499 0)
(0.189772 0.0910662 0)
(0.173806 0.101487 0)
(0.155133 0.111039 0)
(0.130621 0.123504 0)
(0.0988064 0.138148 0)
(0.0565399 0.144298 0)
(0.0166421 0.0956999 0)
(0.19509 0.0262211 0)
(0.201397 0.0748419 0)
(0.193465 0.101377 0)
(0.181889 0.116415 0)
(0.168043 0.13108 0)
(0.148107 0.150278 0)
(0.11936 0.174377 0)
(0.0757516 0.191605 0)
(0.0258903 0.137405 0)
(0.195074 0.0259287 0)
(0.203375 0.0773175 0)
(0.199895 0.107301 0)
(0.194004 0.126029 0)
(0.18686 0.145408 0)
(0.174605 0.171539 0)
(0.1541 0.206376 0)
(0.114865 0.234989 0)
(0.0480259 0.201985 0)
(0.195193 0.0244838 0)
(0.206258 0.0759817 0)
(0.208284 0.107562 0)
(0.209408 0.128603 0)
(0.210964 0.151548 0)
(0.209794 0.18445 0)
(0.19708 0.237881 0)
(0.191684 0.314871 0)
(0.0587453 0.295671 0)
(0.195378 0.0215126 0)
(0.209559 0.0701202 0)
(0.217607 0.101177 0)
(0.226693 0.122342 0)
(0.239286 0.145103 0)
(0.25783 0.176927 0)
(0.278495 0.225501 0)
(0.354676 0.292144 0)
(0.402892 0.420514 0)
(0.195622 0.0168948 0)
(0.212888 0.0596597 0)
(0.226423 0.0882219 0)
(0.242088 0.107426 0)
(0.262767 0.126253 0)
(0.290188 0.149719 0)
(0.325632 0.178159 0)
(0.387202 0.199551 0)
(0.469696 0.284939 0)
(0.196036 0.0105587 0)
(0.216328 0.0450642 0)
(0.234179 0.0699764 0)
(0.254075 0.0864803 0)
(0.278778 0.100769 0)
(0.307984 0.115792 0)
(0.345766 0.130527 0)
(0.387817 0.133671 0)
(0.463639 0.170192 0)
(0.1969 0.00190363 0)
(0.22062 0.0268922 0)
(0.241444 0.0482355 0)
(0.263307 0.0625411 0)
(0.28918 0.0734724 0)
(0.31797 0.0829524 0)
(0.352693 0.0907733 0)
(0.38764 0.0893963 0)
(0.440698 0.0990549 0)
(0.198494 -0.00883151 0)
(0.22609 0.00768256 0)
(0.247486 0.0259113 0)
(0.268687 0.0383145 0)
(0.293567 0.0467379 0)
(0.320723 0.0527494 0)
(0.351242 0.0566396 0)
(0.38196 0.0544435 0)
(0.418582 0.0531445 0)
(0.196834 -0.0306262 0)
(0.221696 -0.0175625 0)
(0.23605 0.00114132 0)
(0.252639 0.0135672 0)
(0.274219 0.0206089 0)
(0.29815 0.0244516 0)
(0.324014 0.0262259 0)
(0.349874 0.0246755 0)
(0.376253 0.0219225 0)
(0.162284 -0.023187 0)
(0.160329 -0.0160523 0)
(0.14848 -0.00550024 0)
(0.150101 0.000996861 0)
(0.16007 0.00412931 0)
(0.173378 0.00547859 0)
(0.188313 0.0058969 0)
(0.203218 0.00528596 0)
(0.217129 0.00408866 0)
(0.420223 0.147483 0)
(0.298037 0.0173815 0)
(0.547295 0.0902676 0)
(0.546837 -0.0385454 0)
(0.538148 0.0771402 0)
(0.548917 -0.0120376 0)
(0.490753 0.047919 0)
(0.502033 -0.0100724 0)
(0.451322 0.0265733 0)
(0.461726 -0.00527773 0)
(0.397386 0.00986929 0)
(0.404375 -0.00490904 0)
(0.226584 0.000758033 0)
(0.227603 -0.00289395 0)
(0.385556 -0.175967 0)
(0.373914 -0.242475 0)
(0.328858 -0.237161 0)
(0.293411 -0.193491 0)
(0.270647 -0.145127 0)
(0.256522 -0.105458 0)
(0.2482 -0.0746469 0)
(0.243675 -0.0499961 0)
(0.240873 -0.0282352 0)
(0.535637 -0.154208 0)
(0.463633 -0.190771 0)
(0.388446 -0.17533 0)
(0.337918 -0.145444 0)
(0.306268 -0.115333 0)
(0.28579 -0.0882432 0)
(0.272644 -0.0647538 0)
(0.264626 -0.0445544 0)
(0.25914 -0.0256182 0)
(0.515555 -0.087558 0)
(0.457361 -0.121365 0)
(0.401195 -0.121901 0)
(0.359061 -0.10771 0)
(0.329005 -0.0891788 0)
(0.307268 -0.0702932 0)
(0.291868 -0.0527035 0)
(0.281688 -0.0369682 0)
(0.274289 -0.0215941 0)
(0.482646 -0.0555673 0)
(0.445777 -0.0785152 0)
(0.405319 -0.0818693 0)
(0.370385 -0.0747562 0)
(0.342691 -0.0635942 0)
(0.321218 -0.051264 0)
(0.305071 -0.0391317 0)
(0.293813 -0.0279119 0)
(0.285258 -0.0165877 0)
(0.450878 -0.0310759 0)
(0.426622 -0.0457857 0)
(0.397219 -0.0495257 0)
(0.368905 -0.0463578 0)
(0.344392 -0.0400658 0)
(0.324262 -0.0326758 0)
(0.308467 -0.0251884 0)
(0.297031 -0.0181668 0)
(0.288095 -0.0110418 0)
(0.396691 -0.0164529 0)
(0.378688 -0.0226156 0)
(0.355855 -0.0237602 0)
(0.332797 -0.0217964 0)
(0.312086 -0.0185289 0)
(0.294697 -0.0149293 0)
(0.280852 -0.0114334 0)
(0.270648 -0.00826079 0)
(0.262643 -0.00530844 0)
(0.220369 -0.00533445 0)
(0.207863 -0.00623133 0)
(0.19349 -0.00591215 0)
(0.179779 -0.00499574 0)
(0.167962 -0.00396565 0)
(0.158355 -0.00302389 0)
(0.150887 -0.00222453 0)
(0.145363 -0.00158118 0)
(0.141031 -0.001172 0)
(-0.00047483 -5.24953e-05 0)
(0.00551639 -0.00351257 0)
(0.0181987 -0.00448298 0)
(0.0302309 -0.00433881 0)
(0.0411137 -0.00380077 0)
(0.0503435 -0.00309748 0)
(0.0576347 -0.00234042 0)
(0.0629723 -0.00161469 0)
(0.066812 -0.00112567 0)
(0.00157533 -0.00479288 0)
(0.0146493 -0.0176061 0)
(0.0372527 -0.0208375 0)
(0.0585836 -0.0199572 0)
(0.0777085 -0.0174946 0)
(0.0938737 -0.0143418 0)
(0.106651 -0.0109319 0)
(0.115946 -0.00752918 0)
(0.122469 -0.00467371 0)
(0.00131608 -0.0135691 0)
(0.0163188 -0.0393077 0)
(0.0431242 -0.0453026 0)
(0.0679821 -0.0430696 0)
(0.0899842 -0.0375706 0)
(0.108314 -0.0307014 0)
(0.12263 -0.0233685 0)
(0.132963 -0.0160345 0)
(0.140211 -0.00946841 0)
(-0.000610562 -0.0207362 0)
(0.0150832 -0.0627423 0)
(0.0467769 -0.0721362 0)
(0.0749667 -0.0680681 0)
(0.0992144 -0.0587753 0)
(0.118744 -0.0475788 0)
(0.133551 -0.0359791 0)
(0.144036 -0.0245962 0)
(0.151323 -0.0142793 0)
(-0.00417044 -0.0257134 0)
(0.0122775 -0.0898602 0)
(0.0523427 -0.103611 0)
(0.0852502 -0.096354 0)
(0.112151 -0.0816728 0)
(0.132616 -0.0650325 0)
(0.147378 -0.0486098 0)
(0.157507 -0.0330442 0)
(0.164415 -0.0189695 0)
(-0.00604389 -0.0320816 0)
(0.0125535 -0.122965 0)
(0.0644978 -0.142355 0)
(0.102683 -0.129086 0)
(0.131691 -0.106246 0)
(0.15208 -0.082554 0)
(0.16575 -0.06068 0)
(0.174712 -0.0409295 0)
(0.180649 -0.0232666 0)
(0.0174721 -0.0180306 0)
(0.0402465 -0.161114 0)
(0.0965039 -0.18979 0)
(0.134815 -0.166309 0)
(0.161576 -0.131266 0)
(0.178699 -0.0986383 0)
(0.189104 -0.0709412 0)
(0.195513 -0.047397 0)
(0.199572 -0.0267073 0)
(0.10279 -0.113823 0)
(0.120904 -0.230086 0)
(0.172046 -0.241822 0)
(0.19513 -0.200304 0)
(0.207748 -0.150719 0)
(0.214211 -0.109339 0)
(0.217355 -0.0769987 0)
(0.219156 -0.0510661 0)
(0.220185 -0.0286286 0)
)
;

boundaryField
{
    inlet
    {
        type            fixedValue;
        value           uniform (0.2 0 0);
    }
    outlet
    {
        type            zeroGradient;
    }
    fixedWalls
    {
        type            fixedValue;
        value           uniform (0 0 0);
    }
    frontAndBack
    {
        type            empty;
    }
}


// ************************************************************************* //
