/*--------------------------------*- C++ -*----------------------------------*\
| =========                 |                                                 |
| \\      /  F ield         | OpenFOAM Extend Project: Open source CFD        |
|  \\    /   O peration     | Version:  1.6-ext                               |
|   \\  /    A nd           | Web:      www.extend-project.de                 |
|    \\/     M anipulation  |                                                 |
\*---------------------------------------------------------------------------*/
FoamFile
{
    version     2.0;
    format      ascii;
    class       vectorField;
    location    "1";
    object      accumulatedFluidInterfaceDisplacement;
}
// * * * * * * * * * * * * * * * * * * * * * * * * * * * * * * * * * * * * * //


338
(
(-2.18743e-06 1.92166e-06 -1.25463e-26)
(-1.26655e-06 1.47139e-06 1.15356e-26)
(-9.21125e-06 -1.77563e-05 2.75619e-27)
(-9.40633e-06 -1.71663e-05 -5.37234e-26)
(-9.39934e-06 -1.63792e-05 -2.49816e-26)
(-9.38849e-06 -1.55928e-05 2.06654e-26)
(-9.37318e-06 -1.48065e-05 2.39867e-26)
(-9.35267e-06 -1.40205e-05 9.44565e-27)
(-9.32648e-06 -1.32358e-05 4.32709e-26)
(-9.29418e-06 -1.24533e-05 1.57058e-26)
(-9.25544e-06 -1.16744e-05 -5.52693e-26)
(-9.21004e-06 -1.09006e-05 2.11196e-26)
(-9.15783e-06 -1.01333e-05 3.89225e-26)
(-9.09871e-06 -9.3741e-06 -2.45212e-27)
(-9.03267e-06 -8.62467e-06 2.71596e-26)
(-8.95975e-06 -7.88656e-06 3.48206e-26)
(-8.88002e-06 -7.16135e-06 -1.26575e-27)
(-8.7936e-06 -6.45055e-06 -3.89508e-27)
(-8.70063e-06 -5.75562e-06 2.3133e-26)
(-8.6013e-06 -5.07794e-06 3.04633e-26)
(-8.4958e-06 -4.41882e-06 1.82991e-27)
(-8.38435e-06 -3.77945e-06 4.69613e-27)
(-8.26716e-06 -3.16095e-06 1.86016e-26)
(-8.14448e-06 -2.56433e-06 -2.22522e-27)
(-8.01654e-06 -1.99049e-06 1.94669e-26)
(-7.88358e-06 -1.44024e-06 4.10784e-27)
(-7.74583e-06 -9.1429e-07 -2.69914e-26)
(-7.60354e-06 -4.13239e-07 -9.2165e-27)
(-7.45693e-06 6.23964e-08 -1.87926e-27)
(-7.3062e-06 5.12187e-07 1.38315e-27)
(-7.15156e-06 9.35784e-07 1.844e-26)
(-6.99321e-06 1.33291e-06 1.97856e-26)
(-6.83133e-06 1.70336e-06 1.63149e-26)
(-6.66608e-06 2.04698e-06 2.08803e-26)
(-6.49762e-06 2.36367e-06 1.26664e-26)
(-6.3261e-06 2.65337e-06 -6.40396e-27)
(-6.15167e-06 2.91607e-06 5.35999e-27)
(-5.97447e-06 3.15178e-06 8.28789e-27)
(-5.79462e-06 3.36057e-06 4.63744e-27)
(-5.61228e-06 3.54251e-06 4.86076e-27)
(-5.42758e-06 3.69773e-06 1.23782e-28)
(-5.24068e-06 3.82638e-06 4.59313e-28)
(-5.05174e-06 3.92865e-06 -3.41507e-27)
(-4.86093e-06 4.0048e-06 7.18829e-27)
(-4.66845e-06 4.05511e-06 3.57713e-27)
(-4.47451e-06 4.07993e-06 -9.07071e-27)
(-4.27935e-06 4.07971e-06 -6.39926e-27)
(-4.08321e-06 4.05494e-06 4.70246e-27)
(-3.88638e-06 4.00623e-06 5.80705e-27)
(-3.68915e-06 3.9343e-06 1.29331e-27)
(-3.49184e-06 3.83996e-06 -5.1918e-27)
(-3.29481e-06 3.72418e-06 1.05469e-26)
(-3.09841e-06 3.58804e-06 5.87589e-27)
(-2.90303e-06 3.43278e-06 -1.58874e-26)
(-2.70907e-06 3.2598e-06 2.24051e-27)
(-2.51696e-06 3.07068e-06 -4.3486e-27)
(-2.32712e-06 2.86713e-06 1.18725e-26)
(-2.14001e-06 2.65109e-06 -9.68998e-28)
(-1.95606e-06 2.42465e-06 -1.58589e-26)
(-1.77574e-06 2.19009e-06 3.32893e-26)
(-1.59952e-06 1.9499e-06 1.1764e-26)
(-1.42787e-06 1.70674e-06 -6.91519e-27)
(-7.82522e-06 -1.79418e-05 7.66755e-26)
(-8.61784e-06 -1.79483e-05 7.61254e-26)
(-6.43592e-06 -1.7735e-05 6.72543e-26)
(-7.03113e-06 -1.79367e-05 3.3568e-26)
(-2.35641e-06 2.15459e-06 2.25255e-26)
(-2.52447e-06 2.39506e-06 -1.05496e-26)
(-2.68604e-06 2.63239e-06 -2.13305e-26)
(-2.84139e-06 2.86391e-06 2.40398e-26)
(-2.99083e-06 3.08713e-06 2.20058e-26)
(-3.13462e-06 3.29979e-06 -4.46412e-26)
(-3.27303e-06 3.49978e-06 -1.82681e-26)
(-3.40634e-06 3.68519e-06 9.74733e-27)
(-3.5348e-06 3.85428e-06 -8.56571e-27)
(-3.65865e-06 4.00549e-06 1.04586e-27)
(-3.77813e-06 4.13742e-06 -4.57384e-28)
(-3.89344e-06 4.24884e-06 -3.27884e-27)
(-4.00478e-06 4.33865e-06 6.96049e-27)
(-4.11235e-06 4.40589e-06 1.63259e-27)
(-4.2163e-06 4.44975e-06 -3.29254e-27)
(-4.31676e-06 4.46952e-06 6.58149e-28)
(-4.41388e-06 4.46458e-06 -4.37498e-27)
(-4.50775e-06 4.43444e-06 -1.47529e-26)
(-4.59845e-06 4.37866e-06 -1.41113e-26)
(-4.68605e-06 4.29689e-06 -1.49449e-27)
(-4.77061e-06 4.18883e-06 -3.45683e-27)
(-4.85217e-06 4.05425e-06 -1.7843e-27)
(-4.93076e-06 3.89295e-06 4.87365e-27)
(-5.00639e-06 3.70478e-06 6.09611e-27)
(-5.07908e-06 3.4896e-06 -7.47415e-27)
(-5.14884e-06 3.24735e-06 -2.00366e-26)
(-5.21569e-06 2.97797e-06 -5.5261e-27)
(-5.27965e-06 2.68143e-06 2.07164e-28)
(-5.34073e-06 2.35775e-06 5.77146e-27)
(-5.39897e-06 2.00699e-06 1.47921e-26)
(-5.45442e-06 1.62924e-06 2.52158e-26)
(-5.50712e-06 1.22466e-06 2.46148e-26)
(-5.55714e-06 7.93455e-07 -2.44279e-27)
(-5.60458e-06 3.35894e-07 -1.42683e-27)
(-5.64951e-06 -1.47674e-07 8.10997e-27)
(-5.69205e-06 -6.56823e-07 -6.34194e-27)
(-5.73231e-06 -1.19104e-06 -2.55434e-26)
(-5.77044e-06 -1.74972e-06 -3.31915e-26)
(-5.80655e-06 -2.33216e-06 -1.57977e-26)
(-5.84081e-06 -2.93756e-06 -1.80704e-27)
(-5.87334e-06 -3.565e-06 6.36017e-28)
(-5.90431e-06 -4.21349e-06 4.13178e-27)
(-5.93383e-06 -4.88191e-06 1.29233e-26)
(-5.96206e-06 -5.56905e-06 2.5776e-26)
(-5.9891e-06 -6.2736e-06 5.30719e-26)
(-6.01507e-06 -6.9942e-06 4.94113e-26)
(-6.04004e-06 -7.72936e-06 1.46374e-26)
(-6.06407e-06 -8.47758e-06 3.10063e-26)
(-6.08718e-06 -9.23727e-06 1.67994e-26)
(-6.10937e-06 -1.00068e-05 -8.91162e-27)
(-6.13056e-06 -1.07847e-05 1.77418e-26)
(-6.15066e-06 -1.15692e-05 2.6736e-26)
(-6.16947e-06 -1.23588e-05 2.57468e-26)
(-6.18674e-06 -1.31522e-05 3.25421e-26)
(-6.20214e-06 -1.39479e-05 8.56982e-28)
(-6.21527e-06 -1.4745e-05 1.89055e-26)
(-6.22565e-06 -1.55425e-05 8.23844e-26)
(-6.23292e-06 -1.63401e-05 -1.92365e-26)
(-6.23685e-06 -1.71372e-05 -9.27091e-27)
(-1.79793e-07 1.02074e-07 -2.09439e-25)
(-1.81165e-07 1.32027e-07 -3.41633e-26)
(-1.91053e-07 1.86376e-07 1.02444e-25)
(-2.1534e-07 2.29766e-07 -1.13993e-26)
(-2.53479e-07 2.64966e-07 1.08845e-26)
(-3.03393e-07 2.95925e-07 -1.88983e-26)
(-3.62875e-07 3.25389e-07 -7.45074e-26)
(-4.30513e-07 3.5578e-07 8.08513e-26)
(-5.05327e-07 3.89034e-07 -1.41522e-27)
(-5.8673e-07 4.26845e-07 -3.7777e-26)
(-6.74359e-07 4.70707e-07 6.54292e-26)
(-7.68009e-07 5.22006e-07 -4.79448e-26)
(-8.67567e-07 5.82051e-07 -4.90406e-26)
(-9.72981e-07 6.52106e-07 2.62624e-26)
(-1.08423e-06 7.33403e-07 4.20495e-28)
(-1.20133e-06 8.27144e-07 2.80348e-26)
(-1.32429e-06 9.34498e-07 1.91746e-26)
(-1.45312e-06 1.05658e-06 3.25328e-28)
(-1.58782e-06 1.19441e-06 -1.04336e-26)
(-1.72836e-06 1.34889e-06 -4.83783e-26)
(-1.87471e-06 1.52071e-06 1.63052e-27)
(-2.02677e-06 1.71027e-06 -7.92442e-27)
(-1.05211e-07 -5.35586e-08 -2.86556e-25)
(-1.12324e-06 1.25792e-06 -2.2127e-26)
(-9.96343e-07 1.06658e-06 -2.09813e-26)
(-8.81831e-07 8.93186e-07 4.71406e-26)
(-7.7857e-07 7.37286e-07 7.0249e-27)
(-6.85504e-07 5.98139e-07 -4.50129e-26)
(-6.01658e-07 4.74806e-07 -1.61854e-26)
(-5.26149e-07 3.66226e-07 -1.23841e-26)
(-4.58183e-07 2.71282e-07 1.76738e-26)
(-3.97067e-07 1.88852e-07 1.76335e-26)
(-3.42203e-07 1.17859e-07 3.81622e-26)
(-2.93099e-07 5.731e-08 -7.29651e-27)
(-2.49367e-07 6.33085e-09 -1.75698e-26)
(-2.1073e-07 -3.58049e-08 1.15016e-25)
(-1.77028e-07 -6.96478e-08 -2.85751e-26)
(-1.48238e-07 -9.55514e-08 -1.52844e-25)
(-1.24498e-07 -1.13632e-07 -7.73633e-26)
(-1.06173e-07 -1.2376e-07 6.65514e-26)
(-9.38511e-08 -1.25449e-07 1.16839e-25)
(-8.85005e-08 -1.17977e-07 4.62934e-26)
(-9.07882e-08 -9.99645e-08 -7.43425e-27)
(-9.953e-08 -7.08122e-08 -1.79023e-25)
(-2.18743e-06 1.92166e-06 -1.25463e-26)
(-1.26655e-06 1.47139e-06 1.15356e-26)
(-9.21125e-06 -1.77563e-05 2.75619e-27)
(-9.40633e-06 -1.71663e-05 -5.37234e-26)
(-9.39934e-06 -1.63792e-05 -2.49816e-26)
(-9.38849e-06 -1.55928e-05 2.06654e-26)
(-9.37318e-06 -1.48065e-05 2.39867e-26)
(-9.35267e-06 -1.40205e-05 9.44565e-27)
(-9.32648e-06 -1.32358e-05 4.32709e-26)
(-9.29418e-06 -1.24533e-05 1.57058e-26)
(-9.25544e-06 -1.16744e-05 -5.52693e-26)
(-9.21004e-06 -1.09006e-05 2.11196e-26)
(-9.15783e-06 -1.01333e-05 3.89225e-26)
(-9.09871e-06 -9.3741e-06 -2.45212e-27)
(-9.03267e-06 -8.62467e-06 2.71596e-26)
(-8.95975e-06 -7.88656e-06 3.48206e-26)
(-8.88002e-06 -7.16135e-06 -1.26575e-27)
(-8.7936e-06 -6.45055e-06 -3.89508e-27)
(-8.70063e-06 -5.75562e-06 2.3133e-26)
(-8.6013e-06 -5.07794e-06 3.04633e-26)
(-8.4958e-06 -4.41882e-06 1.82991e-27)
(-8.38435e-06 -3.77945e-06 4.69613e-27)
(-8.26716e-06 -3.16095e-06 1.86016e-26)
(-8.14448e-06 -2.56433e-06 -2.22522e-27)
(-8.01654e-06 -1.99049e-06 1.94669e-26)
(-7.88358e-06 -1.44024e-06 4.10784e-27)
(-7.74583e-06 -9.1429e-07 -2.69914e-26)
(-7.60354e-06 -4.13239e-07 -9.2165e-27)
(-7.45693e-06 6.23964e-08 -1.87926e-27)
(-7.3062e-06 5.12187e-07 1.38315e-27)
(-7.15156e-06 9.35784e-07 1.844e-26)
(-6.99321e-06 1.33291e-06 1.97856e-26)
(-6.83133e-06 1.70336e-06 1.63149e-26)
(-6.66608e-06 2.04698e-06 2.08803e-26)
(-6.49762e-06 2.36367e-06 1.26664e-26)
(-6.3261e-06 2.65337e-06 -6.40396e-27)
(-6.15167e-06 2.91607e-06 5.35999e-27)
(-5.97447e-06 3.15178e-06 8.28789e-27)
(-5.79462e-06 3.36057e-06 4.63744e-27)
(-5.61228e-06 3.54251e-06 4.86076e-27)
(-5.42758e-06 3.69773e-06 1.23782e-28)
(-5.24068e-06 3.82638e-06 4.59313e-28)
(-5.05174e-06 3.92865e-06 -3.41507e-27)
(-4.86093e-06 4.0048e-06 7.18829e-27)
(-4.66845e-06 4.05511e-06 3.57713e-27)
(-4.47451e-06 4.07993e-06 -9.07071e-27)
(-4.27935e-06 4.07971e-06 -6.39926e-27)
(-4.08321e-06 4.05494e-06 4.70246e-27)
(-3.88638e-06 4.00623e-06 5.80705e-27)
(-3.68915e-06 3.9343e-06 1.29331e-27)
(-3.49184e-06 3.83996e-06 -5.1918e-27)
(-3.29481e-06 3.72418e-06 1.05469e-26)
(-3.09841e-06 3.58804e-06 5.87589e-27)
(-2.90303e-06 3.43278e-06 -1.58874e-26)
(-2.70907e-06 3.2598e-06 2.24051e-27)
(-2.51696e-06 3.07068e-06 -4.3486e-27)
(-2.32712e-06 2.86713e-06 1.18725e-26)
(-2.14001e-06 2.65109e-06 -9.68998e-28)
(-1.95606e-06 2.42465e-06 -1.58589e-26)
(-1.77574e-06 2.19009e-06 3.32893e-26)
(-1.59952e-06 1.9499e-06 1.1764e-26)
(-1.42787e-06 1.70674e-06 -6.91519e-27)
(-7.82522e-06 -1.79418e-05 7.66755e-26)
(-8.61784e-06 -1.79483e-05 7.61254e-26)
(-6.43592e-06 -1.7735e-05 6.72543e-26)
(-7.03113e-06 -1.79367e-05 3.3568e-26)
(-2.35641e-06 2.15459e-06 2.25255e-26)
(-2.52447e-06 2.39506e-06 -1.05496e-26)
(-2.68604e-06 2.63239e-06 -2.13305e-26)
(-2.84139e-06 2.86391e-06 2.40398e-26)
(-2.99083e-06 3.08713e-06 2.20058e-26)
(-3.13462e-06 3.29979e-06 -4.46412e-26)
(-3.27303e-06 3.49978e-06 -1.82681e-26)
(-3.40634e-06 3.68519e-06 9.74733e-27)
(-3.5348e-06 3.85428e-06 -8.56571e-27)
(-3.65865e-06 4.00549e-06 1.04586e-27)
(-3.77813e-06 4.13742e-06 -4.57384e-28)
(-3.89344e-06 4.24884e-06 -3.27884e-27)
(-4.00478e-06 4.33865e-06 6.96049e-27)
(-4.11235e-06 4.40589e-06 1.63259e-27)
(-4.2163e-06 4.44975e-06 -3.29254e-27)
(-4.31676e-06 4.46952e-06 6.58149e-28)
(-4.41388e-06 4.46458e-06 -4.37498e-27)
(-4.50775e-06 4.43444e-06 -1.47529e-26)
(-4.59845e-06 4.37866e-06 -1.41113e-26)
(-4.68605e-06 4.29689e-06 -1.49449e-27)
(-4.77061e-06 4.18883e-06 -3.45683e-27)
(-4.85217e-06 4.05425e-06 -1.7843e-27)
(-4.93076e-06 3.89295e-06 4.87365e-27)
(-5.00639e-06 3.70478e-06 6.09611e-27)
(-5.07908e-06 3.4896e-06 -7.47415e-27)
(-5.14884e-06 3.24735e-06 -2.00366e-26)
(-5.21569e-06 2.97797e-06 -5.5261e-27)
(-5.27965e-06 2.68143e-06 2.07164e-28)
(-5.34073e-06 2.35775e-06 5.77146e-27)
(-5.39897e-06 2.00699e-06 1.47921e-26)
(-5.45442e-06 1.62924e-06 2.52158e-26)
(-5.50712e-06 1.22466e-06 2.46148e-26)
(-5.55714e-06 7.93455e-07 -2.44279e-27)
(-5.60458e-06 3.35894e-07 -1.42683e-27)
(-5.64951e-06 -1.47674e-07 8.10997e-27)
(-5.69205e-06 -6.56823e-07 -6.34194e-27)
(-5.73231e-06 -1.19104e-06 -2.55434e-26)
(-5.77044e-06 -1.74972e-06 -3.31915e-26)
(-5.80655e-06 -2.33216e-06 -1.57977e-26)
(-5.84081e-06 -2.93756e-06 -1.80704e-27)
(-5.87334e-06 -3.565e-06 6.36017e-28)
(-5.90431e-06 -4.21349e-06 4.13178e-27)
(-5.93383e-06 -4.88191e-06 1.29233e-26)
(-5.96206e-06 -5.56905e-06 2.5776e-26)
(-5.9891e-06 -6.2736e-06 5.30719e-26)
(-6.01507e-06 -6.9942e-06 4.94113e-26)
(-6.04004e-06 -7.72936e-06 1.46374e-26)
(-6.06407e-06 -8.47758e-06 3.10063e-26)
(-6.08718e-06 -9.23727e-06 1.67994e-26)
(-6.10937e-06 -1.00068e-05 -8.91162e-27)
(-6.13056e-06 -1.07847e-05 1.77418e-26)
(-6.15066e-06 -1.15692e-05 2.6736e-26)
(-6.16947e-06 -1.23588e-05 2.57468e-26)
(-6.18674e-06 -1.31522e-05 3.25421e-26)
(-6.20214e-06 -1.39479e-05 8.56982e-28)
(-6.21527e-06 -1.4745e-05 1.89055e-26)
(-6.22565e-06 -1.55425e-05 8.23844e-26)
(-6.23292e-06 -1.63401e-05 -1.92365e-26)
(-6.23685e-06 -1.71372e-05 -9.27091e-27)
(-1.79793e-07 1.02074e-07 -2.09439e-25)
(-1.81165e-07 1.32027e-07 -3.41633e-26)
(-1.91053e-07 1.86376e-07 1.02444e-25)
(-2.1534e-07 2.29766e-07 -1.13993e-26)
(-2.53479e-07 2.64966e-07 1.08845e-26)
(-3.03393e-07 2.95925e-07 -1.88983e-26)
(-3.62875e-07 3.25389e-07 -7.45074e-26)
(-4.30513e-07 3.5578e-07 8.08513e-26)
(-5.05327e-07 3.89034e-07 -1.41522e-27)
(-5.8673e-07 4.26845e-07 -3.7777e-26)
(-6.74359e-07 4.70707e-07 6.54292e-26)
(-7.68009e-07 5.22006e-07 -4.79448e-26)
(-8.67567e-07 5.82051e-07 -4.90406e-26)
(-9.72981e-07 6.52106e-07 2.62624e-26)
(-1.08423e-06 7.33403e-07 4.20495e-28)
(-1.20133e-06 8.27144e-07 2.80348e-26)
(-1.32429e-06 9.34498e-07 1.91746e-26)
(-1.45312e-06 1.05658e-06 3.25328e-28)
(-1.58782e-06 1.19441e-06 -1.04336e-26)
(-1.72836e-06 1.34889e-06 -4.83783e-26)
(-1.87471e-06 1.52071e-06 1.63052e-27)
(-2.02677e-06 1.71027e-06 -7.92442e-27)
(-1.05211e-07 -5.35586e-08 -2.86556e-25)
(-1.12324e-06 1.25792e-06 -2.2127e-26)
(-9.96343e-07 1.06658e-06 -2.09813e-26)
(-8.81831e-07 8.93186e-07 4.71406e-26)
(-7.7857e-07 7.37286e-07 7.0249e-27)
(-6.85504e-07 5.98139e-07 -4.50129e-26)
(-6.01658e-07 4.74806e-07 -1.61854e-26)
(-5.26149e-07 3.66226e-07 -1.23841e-26)
(-4.58183e-07 2.71282e-07 1.76738e-26)
(-3.97067e-07 1.88852e-07 1.76335e-26)
(-3.42203e-07 1.17859e-07 3.81622e-26)
(-2.93099e-07 5.731e-08 -7.29651e-27)
(-2.49367e-07 6.33085e-09 -1.75698e-26)
(-2.1073e-07 -3.58049e-08 1.15016e-25)
(-1.77028e-07 -6.96478e-08 -2.85751e-26)
(-1.48238e-07 -9.55514e-08 -1.52844e-25)
(-1.24498e-07 -1.13632e-07 -7.73633e-26)
(-1.06173e-07 -1.2376e-07 6.65514e-26)
(-9.38511e-08 -1.25449e-07 1.16839e-25)
(-8.85005e-08 -1.17977e-07 4.62934e-26)
(-9.07882e-08 -9.99645e-08 -7.43425e-27)
(-9.953e-08 -7.08122e-08 -1.79023e-25)
)


// ************************************************************************* //
