/*--------------------------------*- C++ -*----------------------------------*\
| =========                 |                                                 |
| \\      /  F ield         | OpenFOAM Extend Project: Open source CFD        |
|  \\    /   O peration     | Version:  1.6-ext                               |
|   \\  /    A nd           | Web:      www.extend-project.de                 |
|    \\/     M anipulation  |                                                 |
\*---------------------------------------------------------------------------*/
FoamFile
{
    version     2.0;
    format      ascii;
    class       tetPointVectorField;
    location    "1";
    object      motionU;
}
// * * * * * * * * * * * * * * * * * * * * * * * * * * * * * * * * * * * * * //

dimensions      [0 1 -1 0 0 0 0];

internalField   nonuniform List<vector> 
147960
(
(0 0 0)
(-3.81392e-05 0.000101679 0)
(0.00129891 -0.000392626 8.03465e-24)
(0.00135095 -6.07114e-05 1.05576e-23)
(0.00704569 0.0240135 -2.34202e-23)
(0.00720643 0.0235211 -3.52504e-23)
(0.00720094 0.0228636 3.14864e-23)
(0.00719188 0.0222053 -9.79277e-24)
(0.00717917 0.0215471 -6.63301e-23)
(0.00716272 0.0208899 -8.52847e-25)
(0.00714252 0.0202345 3.64028e-23)
(0.00711853 0.0195815 4.67366e-23)
(0.00709075 0.0189315 3.43779e-24)
(0.00705913 0.018285 3.37261e-23)
(0.00702364 0.0176426 4.82577e-23)
(0.00698425 0.0170049 2.98928e-23)
(0.00694093 0.0163726 6.34057e-24)
(0.00689369 0.0157461 -2.59635e-23)
(0.00684251 0.0151261 -4.24789e-24)
(0.00678742 0.0145132 -2.44366e-23)
(0.00672844 0.013908 -8.08061e-24)
(0.00666561 0.0133111 2.74989e-23)
(0.006599 0.0127229 4.36298e-24)
(0.00652865 0.012144 -9.46454e-24)
(0.00645465 0.011575 -1.69141e-23)
(0.00637706 0.0110161 -5.97573e-25)
(0.00629597 0.010468 2.41636e-23)
(0.00621145 0.00993086 -1.92523e-23)
(0.00612358 0.00940516 -1.52485e-23)
(0.00603243 0.0088912 4.66796e-24)
(0.00593808 0.00838927 -3.50831e-24)
(0.00584059 0.00789966 7.47576e-24)
(0.00574003 0.00742263 9.25215e-24)
(0.00563643 0.00695843 5.29996e-25)
(0.00552986 0.00650731 -1.86724e-23)
(0.00542036 0.00606949 -6.64639e-24)
(0.00530796 0.00564523 1.26244e-23)
(0.00519271 0.00523477 -1.28066e-26)
(0.00507464 0.00483834 -1.21867e-23)
(0.00495379 0.00445621 1.69236e-24)
(0.00483021 0.00408863 -1.27741e-25)
(0.00470393 0.00373586 -4.98447e-24)
(0.00457502 0.00339817 -3.95977e-24)
(0.00444355 0.00307582 4.10777e-25)
(0.00430958 0.00276906 5.1415e-24)
(0.00417322 0.00247813 -4.62508e-25)
(0.00403456 0.00220325 -6.33732e-24)
(0.00389373 0.00194461 -8.31273e-24)
(0.00375086 0.00170238 -1.69274e-24)
(0.0036061 0.00147665 9.59026e-25)
(0.00345963 0.00126749 -1.74185e-24)
(0.00331162 0.0010749 -6.2121e-24)
(0.00316228 0.000898816 5.20698e-24)
(0.0030118 0.000739098 1.03814e-23)
(0.00286042 0.000595527 -7.1942e-24)
(0.00270836 0.000467803 -1.92624e-23)
(0.00255584 0.000355536 3.46062e-24)
(0.00240311 0.000258249 1.51238e-23)
(0.0022504 0.000175377 -5.93758e-24)
(0.00209793 0.000106265 -1.39435e-24)
(0.00194592 5.01796e-05 -5.61947e-24)
(0.00179457 6.30931e-06 -1.10465e-24)
(0.00164406 -2.62201e-05 6.58461e-24)
(0.00149455 -4.83325e-05 4.12348e-25)
(0.00590412 0.0241775 2.70256e-23)
(0.00655712 0.0241776 1.13079e-23)
(0.00475239 0.0240097 -5.95731e-23)
(0.00524795 0.0241767 -3.20683e-23)
(0.00140789 -0.000378505 1.71259e-23)
(0.00151799 -0.000354438 -1.09229e-23)
(0.00162545 -0.000319794 -1.75343e-23)
(0.00173028 -0.00027365 1.37927e-23)
(0.00183251 -0.000215134 1.58964e-23)
(0.00193222 -0.000143435 -5.85849e-24)
(0.00202947 -5.78207e-05 -4.61215e-24)
(0.00212435 4.23628e-05 6.29453e-24)
(0.00221696 0.000157681 8.58239e-24)
(0.0023074 0.000288612 3.99199e-24)
(0.00239576 0.000435543 7.55345e-25)
(0.00248214 0.000598776 -2.59842e-24)
(0.00256663 0.00077853 7.58323e-25)
(0.00264932 0.000974944 3.28357e-24)
(0.00273027 0.00118808 8.98913e-25)
(0.00280955 0.00141795 4.79075e-24)
(0.0028872 0.00166448 -2.65649e-24)
(0.00296326 0.00192756 9.43432e-25)
(0.00303775 0.00220704 6.78615e-24)
(0.00311069 0.00250272 -2.31636e-24)
(0.00318206 0.00281439 -4.27306e-24)
(0.00325185 0.00314179 8.78313e-27)
(0.00332003 0.00348469 6.47237e-25)
(0.00338658 0.0038428 7.92386e-24)
(0.00345144 0.00421587 7.26785e-24)
(0.00351458 0.00460363 3.64839e-24)
(0.00357594 0.00500582 -8.27986e-25)
(0.00363548 0.00542217 -6.08484e-24)
(0.00369315 0.00585244 9.06828e-24)
(0.0037489 0.00629639 1.73905e-23)
(0.0038027 0.00675376 1.99141e-24)
(0.00385453 0.00722431 -1.24447e-23)
(0.00390436 0.0077078 -1.46215e-24)
(0.00395219 0.00820396 1.40028e-24)
(0.00399801 0.00871254 1.22934e-23)
(0.00404183 0.00923323 -3.41107e-24)
(0.00408368 0.00976574 5.05481e-24)
(0.00412357 0.0103097 2.17612e-23)
(0.00416156 0.0108648 -1.86844e-23)
(0.00419767 0.0114307 -1.6235e-23)
(0.00423196 0.0120068 2.49209e-23)
(0.00426447 0.0125928 1.05631e-23)
(0.00429526 0.0131881 -6.63449e-24)
(0.00432436 0.0137923 1.51047e-23)
(0.00435182 0.0144048 -1.76788e-23)
(0.00437769 0.0150249 1.31678e-24)
(0.00440199 0.0156522 4.59617e-23)
(0.00442475 0.0162859 4.66586e-23)
(0.004446 0.0169256 1.98966e-23)
(0.00446575 0.0175705 4.01441e-23)
(0.00448403 0.0182201 4.10816e-23)
(0.00450086 0.0188738 5.3111e-24)
(0.00451628 0.019531 1.69092e-23)
(0.00453033 0.0201911 2.12734e-23)
(0.00454309 0.0208535 1.04601e-22)
(0.00455466 0.0215175 1.02208e-22)
(0.0045651 0.0221824 -1.2523e-23)
(0.00457451 0.0228475 -2.09833e-23)
(0.00458249 0.0235117 -1.38781e-23)
(0.0021014 0.019758 0)
(0.00470572 0.0236753 0)
(0.00471091 0.0234548 0)
(0.0046812 0.0232264 0)
(0.00462328 0.022986 0)
(0.00453303 0.022736 0)
(0.00442163 0.0224779 0)
(0.00426844 0.0222119 0)
(0.00409749 0.021938 0)
(0.00389565 0.0216559 0)
(0.00364802 0.0213649 0)
(0.00340618 0.0210648 0)
(0.00311712 0.0207549 0)
(0.00277935 0.020434 0)
(0.00246922 0.0201021 0)
(0.000427846 6.51207e-05 0)
(0.000504799 8.91501e-05 0)
(0.000584683 0.000120109 0)
(0.000665646 0.000158927 0)
(0.000747155 0.000206686 0)
(0.000828167 0.000264082 0)
(0.000907393 0.000331733 0)
(0.000984854 0.000410399 0)
(0.00106047 0.000500811 0)
(0.00113402 0.00060354 0)
(0.00120535 0.000718973 0)
(0.00127464 0.000847445 0)
(0.00134241 0.000989383 0)
(0.00140901 0.00114528 0)
(0.00147421 0.00131561 0)
(0.00153728 0.00150071 0)
(0.00159756 0.00170072 0)
(0.00165486 0.00191569 0)
(0.00170954 0.00214581 0)
(0.00176259 0.00239101 0)
(0.00181394 0.00265219 0)
(0.00186338 0.0029293 0)
(0.00191181 0.00322097 0)
(0.0019591 0.00352724 0)
(0.0020054 0.003848 0)
(0.00205081 0.00418308 0)
(0.00209528 0.00453229 0)
(0.00213876 0.00489543 0)
(0.00218119 0.00527225 0)
(0.0022225 0.00566248 0)
(0.00226242 0.00606583 0)
(0.00230048 0.00648194 0)
(0.00233632 0.00691035 0)
(0.00237027 0.0073507 0)
(0.00240301 0.00780269 0)
(0.00243524 0.00826535 0)
(0.0024659 0.00873976 0)
(0.00249486 0.00922599 0)
(0.00252366 0.00972114 0)
(0.00255194 0.0102245 0)
(0.00257962 0.0107353 0)
(0.00260703 0.0112527 0)
(0.00263457 0.0117756 0)
(0.00266207 0.012303 0)
(0.00268837 0.0128334 0)
(0.00271126 0.0133652 0)
(0.00272759 0.0138966 0)
(0.00273423 0.0144258 0)
(0.00272981 0.0149506 0)
(0.0027166 0.0154685 0)
(0.00269973 0.0159766 0)
(0.00268306 0.0164719 0)
(0.00266582 0.016951 0)
(0.00264308 0.0174103 0)
(0.00260939 0.017846 0)
(0.00256168 0.0182542 0)
(0.00249892 0.018631 0)
(0.0024219 0.0189728 0)
(0.00233124 0.0192762 0)
(0.00222744 0.0195386 0)
(0.00398104 0.0195981 0)
(0.00439083 0.0199685 0)
(0.00472957 0.0203236 0)
(0.00508905 0.0206651 0)
(0.00542848 0.0209931 0)
(0.00569965 0.0213084 0)
(0.00596335 0.0216126 0)
(0.00621092 0.0219059 0)
(0.00640665 0.022189 0)
(0.00658312 0.0224626 0)
(0.00673464 0.0227267 0)
(0.00684927 0.0229813 0)
(0.00694442 0.0232253 0)
(0.00701594 0.0234561 0)
(0.00707342 0.0236783 0)
(0.000562589 0.000239248 0)
(0.00133436 -5.56819e-05 0)
(0.00131548 -4.55128e-05 0)
(0.00129096 -3.02359e-05 0)
(0.00126102 -1.12082e-05 0)
(0.00122638 1.02724e-05 0)
(0.001185 3.35536e-05 0)
(0.00113863 5.76496e-05 0)
(0.00108686 8.23797e-05 0)
(0.00102678 0.000107123 0)
(0.000965558 0.000131281 0)
(0.000897556 0.000155136 0)
(0.000822937 0.000177888 0)
(0.000747198 0.0001997 0)
(0.000658409 0.000220556 0)
(0.00415945 0.019384 0)
(0.0043165 0.0191268 0)
(0.00445273 0.0188286 0)
(0.00456841 0.0184922 0)
(0.00466377 0.0181209 0)
(0.00473809 0.0177184 0)
(0.00479223 0.0172888 0)
(0.00482945 0.0168358 0)
(0.00485555 0.0163635 0)
(0.00487557 0.0158752 0)
(0.0048902 0.0153745 0)
(0.00489574 0.0148644 0)
(0.00488767 0.0143476 0)
(0.00486451 0.0138266 0)
(0.00482813 0.0133036 0)
(0.00478197 0.0127804 0)
(0.00472937 0.0122589 0)
(0.00467275 0.0117405 0)
(0.00461349 0.0112266 0)
(0.00455201 0.0107183 0)
(0.00448815 0.0102168 0)
(0.00442176 0.00972269 0)
(0.00435306 0.00923685 0)
(0.0042826 0.00876 0)
(0.00420908 0.00829486 0)
(0.00413262 0.00784138 0)
(0.00405429 0.00739854 0)
(0.00397357 0.00696726 0)
(0.00388985 0.00654785 0)
(0.00380285 0.00614066 0)
(0.00371298 0.00574612 0)
(0.00362078 0.00536457 0)
(0.00352656 0.0049963 0)
(0.00343045 0.00464158 0)
(0.00333257 0.00430065 0)
(0.00323304 0.00397372 0)
(0.003132 0.00366097 0)
(0.00302942 0.00336255 0)
(0.00292524 0.00307853 0)
(0.00281969 0.00280884 0)
(0.00271226 0.00255469 0)
(0.00260329 0.00231607 0)
(0.00249289 0.00209213 0)
(0.00238033 0.00188292 0)
(0.00226545 0.00168825 0)
(0.00214868 0.00150798 0)
(0.00203093 0.00134188 0)
(0.00191311 0.0011896 0)
(0.00179568 0.00105068 0)
(0.00167848 0.000924636 0)
(0.00156121 0.000810985 0)
(0.00144394 0.000709231 0)
(0.00132704 0.000618824 0)
(0.00121097 0.000539091 0)
(0.00109604 0.00046925 0)
(0.000982318 0.000408466 0)
(0.000871152 0.000356021 0)
(0.000763574 0.000311087 0)
(0.000659824 0.000272537 0)
(0.000765808 0.000251979 0)
(0.000857247 0.000229199 0)
(0.000936595 0.000206234 0)
(0.0010194 0.000182052 0)
(0.00109267 0.000156166 0)
(0.00115664 0.00013045 0)
(0.00122263 0.000103692 0)
(0.00127746 7.67999e-05 0)
(0.00132594 5.10768e-05 0)
(0.00137148 2.61287e-05 0)
(0.00140704 3.29671e-06 0)
(0.00143881 -1.68073e-05 0)
(0.00146344 -3.26098e-05 0)
(0.00148211 -4.30844e-05 0)
(0.000876178 0.000289047 0)
(0.000969247 0.000265003 0)
(0.00105592 0.000241052 0)
(0.00114602 0.000215204 0)
(0.0012215 0.000187961 0)
(0.00129095 0.000160754 0)
(0.00136129 0.000132087 0)
(0.00141783 0.000103899 0)
(0.00147031 7.67581e-05 0)
(0.00151781 5.03557e-05 0)
(0.00155485 2.66099e-05 0)
(0.00158772 5.72393e-06 0)
(0.00161258 -1.05932e-05 0)
(0.00163087 -2.11806e-05 0)
(0.000989146 0.000332651 0)
(0.00108452 0.000307926 0)
(0.00117919 0.000283108 0)
(0.00127528 0.000255859 0)
(0.00135286 0.000227491 0)
(0.00142794 0.000198958 0)
(0.00150208 0.00016902 0)
(0.00156027 0.000139722 0)
(0.00161632 0.00011145 0)
(0.00166547 8.41977e-05 0)
(0.00170356 5.96283e-05 0)
(0.00173761 3.81749e-05 0)
(0.00176271 2.16353e-05 0)
(0.00178119 1.10652e-05 0)
(0.00110478 0.000384118 0)
(0.00120261 0.000358913 0)
(0.00130528 0.00033335 0)
(0.00140701 0.000304974 0)
(0.00148691 0.000275975 0)
(0.00156707 0.000246386 0)
(0.00164495 0.000215305 0)
(0.00170439 0.000185346 0)
(0.00176314 0.00015632 0)
(0.00181445 0.00012827 0)
(0.00185322 0.000103356 0)
(0.00188822 8.15799e-05 0)
(0.00191382 6.49449e-05 0)
(0.00193251 5.4558e-05 0)
(0.00122224 0.000444173 0)
(0.00132276 0.000418716 0)
(0.00143339 0.000392711 0)
(0.00154097 0.000363502 0)
(0.00162278 0.000333958 0)
(0.00170721 0.000303862 0)
(0.00178911 0.000272046 0)
(0.00184991 0.000241498 0)
(0.00191077 0.000212165 0)
(0.00196403 0.000183758 0)
(0.0020038 0.000158525 0)
(0.00203956 0.00013677 0)
(0.00206558 0.000120264 0)
(0.00208448 0.000110185 0)
(0.00134146 0.000513592 0)
(0.00144457 0.000488175 0)
(0.00156289 0.000462032 0)
(0.0016767 0.000432315 0)
(0.0017602 0.00040248 0)
(0.00184805 0.000372149 0)
(0.0019341 0.00034003 0)
(0.00199642 0.00030927 0)
(0.00205905 0.000279742 0)
(0.00211411 0.000251332 0)
(0.00215487 0.000226131 0)
(0.00219153 0.000204534 0)
(0.00221788 0.000188377 0)
(0.00223693 0.000178753 0)
(0.00146248 0.00059321 0)
(0.00156787 0.000568059 0)
(0.00169319 0.000542151 0)
(0.00181358 0.000512232 0)
(0.00189904 0.00048229 0)
(0.00198953 0.000452115 0)
(0.00207939 0.000420044 0)
(0.00214374 0.00038937 0)
(0.00220802 0.000360013 0)
(0.00226438 0.00033172 0)
(0.00230619 0.000306778 0)
(0.00234383 0.000285706 0)
(0.00237053 0.000270042 0)
(0.00238965 0.000260997 0)
(0.00158513 0.000683841 0)
(0.00169264 0.000659132 0)
(0.00182393 0.000633739 0)
(0.00195066 0.000604021 0)
(0.00203894 0.000574083 0)
(0.00213194 0.000544429 0)
(0.00222491 0.000512877 0)
(0.00229131 0.000482581 0)
(0.00235768 0.000453678 0)
(0.00241558 0.000426078 0)
(0.00245802 0.00040148 0)
(0.0024962 0.000380959 0)
(0.00252321 0.000365944 0)
(0.00254241 0.000357586 0)
(0.0017089 0.000786196 0)
(0.00181876 0.000762113 0)
(0.00195512 0.000737509 0)
(0.00208803 0.000708688 0)
(0.00217964 0.000679093 0)
(0.00227517 0.000649891 0)
(0.00237085 0.000619074 0)
(0.00243888 0.000589547 0)
(0.00250734 0.000561339 0)
(0.00256676 0.000534489 0)
(0.0026097 0.000510604 0)
(0.00264844 0.000490852 0)
(0.0026757 0.000476649 0)
(0.00269497 0.000469092 0)
(0.00183308 0.000900894 0)
(0.00194593 0.000877655 0)
(0.0020869 0.000853993 0)
(0.00222514 0.000826224 0)
(0.00231994 0.000797509 0)
(0.0024186 0.000769123 0)
(0.00251705 0.000739257 0)
(0.00258644 0.00071072 0)
(0.00265665 0.000683497 0)
(0.0027175 0.000657621 0)
(0.00276106 0.000634686 0)
(0.00280036 0.0006159 0)
(0.00282781 0.000602654 0)
(0.0028471 0.000596001 0)
(0.00195709 0.00102844 0)
(0.00207363 0.00100634 0)
(0.00221934 0.000983728 0)
(0.00236225 0.000957235 0)
(0.00245976 0.000929821 0)
(0.00256167 0.000902604 0)
(0.00266315 0.000873983 0)
(0.00273389 0.000846628 0)
(0.00280559 0.000820593 0)
(0.00286763 0.000795942 0)
(0.00291179 0.000774174 0)
(0.00295169 0.000756534 0)
(0.00297932 0.000744376 0)
(0.00299858 0.000738711 0)
(0.0020808 0.00116926 0)
(0.00220127 0.00114868 0)
(0.00235191 0.00112722 0)
(0.00249968 0.00110211 0)
(0.00259935 0.0010765 0)
(0.00270417 0.00105076 0)
(0.00280867 0.00102367 0)
(0.00288077 0.00099773 0)
(0.00295388 0.000973065 0)
(0.00301704 0.000949834 0)
(0.00306175 0.000929423 0)
(0.00310221 0.000913091 0)
(0.00312997 0.000902138 0)
(0.00314916 0.000897535 0)
(0.00220432 0.00132378 0)
(0.00232843 0.00130512 0)
(0.00248444 0.00128555 0)
(0.00263723 0.00126202 0)
(0.00273872 0.00123804 0)
(0.0028461 0.00121395 0)
(0.00295332 0.00118864 0)
(0.00302664 0.00116435 0)
(0.00310118 0.00114125 0)
(0.0031655 0.00111961 0)
(0.00321075 0.00110072 0)
(0.00325171 0.00108583 0)
(0.00327955 0.00107618 0)
(0.00329864 0.0010727 0)
(0.00232751 0.00149235 0)
(0.00245484 0.00147584 0)
(0.00261612 0.00145818 0)
(0.0027737 0.00143676 0)
(0.00287736 0.00141475 0)
(0.00298735 0.00139251 0)
(0.00309708 0.00136919 0)
(0.00317147 0.00134673 0)
(0.00324739 0.00132538 0)
(0.00331287 0.00130551 0)
(0.00335862 0.00128827 0)
(0.00340001 0.00127494 0)
(0.00342786 0.00126668 0)
(0.0034468 0.00126436 0)
(0.00244984 0.00167531 0)
(0.00258014 0.001661 0)
(0.00274697 0.00164538 0)
(0.00290906 0.00162667 0)
(0.00301494 0.00160691 0)
(0.00312763 0.00158672 0)
(0.00323983 0.00156556 0)
(0.00331523 0.00154508 0)
(0.00339247 0.00152562 0)
(0.00345901 0.00150765 0)
(0.00350517 0.0014922 0)
(0.00354691 0.00148053 0)
(0.00357471 0.00147372 0)
(0.00359345 0.00147259 0)
(0.00257069 0.00187305 0)
(0.00270459 0.00186169 0)
(0.00287701 0.00184827 0)
(0.00304332 0.00183203 0)
(0.00315137 0.00181469 0)
(0.00326666 0.00179674 0)
(0.00338127 0.00177791 0)
(0.00345768 0.00175954 0)
(0.00353617 0.00174206 0)
(0.0036037 0.00172608 0)
(0.00365016 0.00171257 0)
(0.00369216 0.00170264 0)
(0.00371987 0.00169732 0)
(0.00373839 0.0016974 0)
(0.00268941 0.00208559 0)
(0.00282732 0.00207711 0)
(0.00300523 0.00206634 0)
(0.00317619 0.00205294 0)
(0.0032864 0.00203822 0)
(0.00340416 0.0020227 0)
(0.00352114 0.00200635 0)
(0.00359857 0.00199023 0)
(0.00367809 0.00197462 0)
(0.00374668 0.00196071 0)
(0.00379341 0.00194943 0)
(0.00383556 0.00194128 0)
(0.00386317 0.00193745 0)
(0.00388146 0.00193874 0)
(0.00280579 0.00231284 0)
(0.00294818 0.00230739 0)
(0.00313161 0.00229984 0)
(0.00330727 0.00228952 0)
(0.00341963 0.00227759 0)
(0.00353987 0.00226465 0)
(0.00365931 0.00225096 0)
(0.00373786 0.00223734 0)
(0.00381873 0.00222442 0)
(0.00388814 0.0022124 0)
(0.00393475 0.0022028 0)
(0.00397698 0.00219637 0)
(0.00400445 0.00219403 0)
(0.00402251 0.0021965 0)
(0.00292092 0.0025559 0)
(0.00306761 0.00255368 0)
(0.00325609 0.00254899 0)
(0.00343623 0.00254183 0)
(0.00355078 0.00253283 0)
(0.0036737 0.00252261 0)
(0.0037957 0.00251169 0)
(0.00387538 0.00250064 0)
(0.00395737 0.00249009 0)
(0.00402739 0.00248022 0)
(0.00407399 0.0024725 0)
(0.00411629 0.00246778 0)
(0.0041436 0.00246691 0)
(0.0041614 0.00247054 0)
(0.00303466 0.00281366 0)
(0.00318505 0.00281519 0)
(0.00337853 0.0028137 0)
(0.003563 0.00280982 0)
(0.00367986 0.00280388 0)
(0.00380559 0.00279649 0)
(0.00393014 0.00278841 0)
(0.00401082 0.00277994 0)
(0.00409379 0.00277176 0)
(0.00416436 0.00276412 0)
(0.00421099 0.00275835 0)
(0.00425339 0.00275536 0)
(0.00428051 0.00275593 0)
(0.00429802 0.00276068 0)
(0.00314666 0.0030872 0)
(0.00330053 0.00309207 0)
(0.00349892 0.00309388 0)
(0.00368772 0.00309342 0)
(0.00380695 0.00309064 0)
(0.00393544 0.00308619 0)
(0.00406238 0.00308099 0)
(0.00414395 0.00307513 0)
(0.00422785 0.00306934 0)
(0.00429895 0.00306397 0)
(0.00434563 0.00306017 0)
(0.00438812 0.00305889 0)
(0.00441505 0.00306087 0)
(0.00443226 0.00306669 0)
(0.00325652 0.00337543 0)
(0.003414 0.00338407 0)
(0.0036173 0.00338941 0)
(0.00381043 0.00339249 0)
(0.00393195 0.003393 0)
(0.00406303 0.00339157 0)
(0.00419221 0.00338927 0)
(0.00427462 0.00338603 0)
(0.00435943 0.00338267 0)
(0.00443107 0.0033796 0)
(0.00447779 0.00337778 0)
(0.00452036 0.00337818 0)
(0.00454712 0.00338151 0)
(0.00456403 0.00338835 0)
(0.00336451 0.00367833 0)
(0.00352552 0.00369102 0)
(0.0037337 0.00370013 0)
(0.00393103 0.00370689 0)
(0.00405469 0.00371079 0)
(0.00418822 0.00371248 0)
(0.00431955 0.00371309 0)
(0.00440277 0.00371244 0)
(0.00448851 0.00371152 0)
(0.0045607 0.0037108 0)
(0.00460746 0.00371095 0)
(0.00465005 0.00371299 0)
(0.00467661 0.00371761 0)
(0.00469322 0.00372541 0)
(0.00347073 0.00399579 0)
(0.00363515 0.00401277 0)
(0.00384805 0.00402586 0)
(0.00404939 0.00403644 0)
(0.00417506 0.00404385 0)
(0.00431096 0.00404876 0)
(0.00444436 0.0040523 0)
(0.00452824 0.00405398 0)
(0.00461515 0.00405551 0)
(0.00468788 0.00405741 0)
(0.00473461 0.00405949 0)
(0.00477715 0.00406308 0)
(0.00480345 0.00406892 0)
(0.00481978 0.00407761 0)
(0.00357516 0.00432762 0)
(0.0037428 0.00434913 0)
(0.0039602 0.00436643 0)
(0.00416535 0.00438095 0)
(0.00429291 0.00439199 0)
(0.00443108 0.00440025 0)
(0.00456656 0.00440693 0)
(0.00465146 0.00441192 0)
(0.00473946 0.00441565 0)
(0.00481247 0.00441932 0)
(0.00485916 0.00442316 0)
(0.00490162 0.00442821 0)
(0.00492763 0.00443518 0)
(0.00494365 0.00444468 0)
(0.00367767 0.00467364 0)
(0.00384832 0.00469988 0)
(0.00407002 0.00472161 0)
(0.00427878 0.00474018 0)
(0.0044081 0.00475496 0)
(0.00454848 0.00476668 0)
(0.00468605 0.00477649 0)
(0.00477191 0.00478431 0)
(0.00486084 0.00479045 0)
(0.00493432 0.00479611 0)
(0.00498098 0.00480167 0)
(0.00502338 0.0048081 0)
(0.0050491 0.00481612 0)
(0.00506477 0.00482636 0)
(0.00377818 0.00503362 0)
(0.00395163 0.00506482 0)
(0.00417744 0.00509116 0)
(0.00438965 0.0051139 0)
(0.00452065 0.00513251 0)
(0.00466322 0.00514771 0)
(0.00480285 0.00516052 0)
(0.00488966 0.0051711 0)
(0.00497951 0.0051798 0)
(0.00505341 0.00518752 0)
(0.00509999 0.00519476 0)
(0.00514237 0.0052025 0)
(0.0051678 0.0052115 0)
(0.00518312 0.00522241 0)
(0.00387669 0.00540732 0)
(0.00405283 0.00544368 0)
(0.00428257 0.00547485 0)
(0.00449809 0.00550185 0)
(0.00463069 0.00552438 0)
(0.00477533 0.00554311 0)
(0.00491669 0.00555855 0)
(0.00500462 0.00557194 0)
(0.00509542 0.00558357 0)
(0.00516972 0.00559332 0)
(0.00521617 0.00560219 0)
(0.0052585 0.00561116 0)
(0.00528366 0.00562104 0)
(0.00529864 0.00563255 0)
(0.00397322 0.00579449 0)
(0.00415199 0.00583622 0)
(0.00438553 0.00587241 0)
(0.00460418 0.00590378 0)
(0.00473823 0.00593036 0)
(0.0048848 0.00595288 0)
(0.00502808 0.00597211 0)
(0.005117 0.00598809 0)
(0.00520848 0.00600169 0)
(0.00528318 0.00601329 0)
(0.00532951 0.0060237 0)
(0.00537176 0.00603383 0)
(0.00539663 0.00604452 0)
(0.0054113 0.00605655 0)
(0.00406752 0.00619482 0)
(0.00424896 0.00624212 0)
(0.00448622 0.00628352 0)
(0.00470785 0.00631937 0)
(0.00484321 0.00635008 0)
(0.00499167 0.00637641 0)
(0.00513682 0.00639891 0)
(0.00522639 0.00641778 0)
(0.00531859 0.00643372 0)
(0.0053937 0.00644713 0)
(0.00543997 0.00645903 0)
(0.00548212 0.00647024 0)
(0.0055067 0.00648166 0)
(0.00552106 0.00649416 0)
(0.00415902 0.00660797 0)
(0.00434323 0.00666107 0)
(0.00458427 0.00670788 0)
(0.00480887 0.00674831 0)
(0.00494551 0.00678321 0)
(0.00509561 0.00681296 0)
(0.00524292 0.00683878 0)
(0.00533299 0.00686105 0)
(0.00542576 0.00687939 0)
(0.00550127 0.00689459 0)
(0.0055475 0.00690793 0)
(0.00558955 0.00692015 0)
(0.00561384 0.00693224 0)
(0.00562789 0.00694513 0)
(0.00424717 0.00703358 0)
(0.00443432 0.0070927 0)
(0.00467932 0.00714512 0)
(0.00490702 0.00719026 0)
(0.00504501 0.00722961 0)
(0.00519698 0.00726411 0)
(0.00534631 0.00729317 0)
(0.00543666 0.00731786 0)
(0.00552998 0.00733847 0)
(0.00560586 0.0073554 0)
(0.00565202 0.00737013 0)
(0.00569399 0.0073833 0)
(0.00571801 0.007396 0)
(0.00573174 0.00740923 0)
(0.00433208 0.00747129 0)
(0.00452222 0.00753665 0)
(0.0047713 0.00759487 0)
(0.00500214 0.00764481 0)
(0.00514142 0.00768834 0)
(0.00529578 0.00772736 0)
(0.00544654 0.00776029 0)
(0.00553726 0.00778777 0)
(0.00563117 0.00781065 0)
(0.00570734 0.00782928 0)
(0.00575343 0.00784536 0)
(0.00579536 0.00785943 0)
(0.00581914 0.00787269 0)
(0.00583255 0.0078862 0)
(0.00441444 0.0079207 0)
(0.00460735 0.00799255 0)
(0.00486031 0.00805678 0)
(0.00509412 0.00811149 0)
(0.00523532 0.00816077 0)
(0.00539183 0.00820454 0)
(0.00554368 0.00824028 0)
(0.00563472 0.00827048 0)
(0.00572916 0.00829563 0)
(0.00580561 0.00831593 0)
(0.00585166 0.00833334 0)
(0.00589361 0.00834828 0)
(0.00591716 0.00836205 0)
(0.00593028 0.0083758 0)
(0.00449459 0.00838137 0)
(0.00468988 0.00846001 0)
(0.0049463 0.0085304 0)
(0.00518389 0.0085916 0)
(0.00532675 0.00864641 0)
(0.00548461 0.00869387 0)
(0.00563768 0.00873268 0)
(0.005729 0.00876563 0)
(0.0058239 0.00879306 0)
(0.00590063 0.00881505 0)
(0.00594668 0.00883377 0)
(0.00598865 0.00884956 0)
(0.00601199 0.0088638 0)
(0.00602484 0.00887775 0)
(0.00457196 0.00885262 0)
(0.00476977 0.00893852 0)
(0.00503032 0.00901706 0)
(0.00527129 0.00908439 0)
(0.00541499 0.0091435 0)
(0.00557425 0.00919499 0)
(0.00572851 0.00923702 0)
(0.00582004 0.00927283 0)
(0.00591541 0.00930259 0)
(0.00599243 0.0093263 0)
(0.00603844 0.00934635 0)
(0.0060804 0.00936297 0)
(0.00610356 0.00937766 0)
(0.00611619 0.00939178 0)
(0.00464686 0.00933777 0)
(0.00484743 0.00943115 0)
(0.00511205 0.00951584 0)
(0.00535533 0.0095879 0)
(0.00549994 0.00965168 0)
(0.00566064 0.00970743 0)
(0.0058161 0.00975286 0)
(0.00590788 0.00979165 0)
(0.0060037 0.00982384 0)
(0.00608094 0.00984932 0)
(0.00612685 0.00987073 0)
(0.0061688 0.00988818 0)
(0.00619182 0.00990331 0)
(0.00620425 0.00991757 0)
(0.0047193 0.00983172 0)
(0.0049223 0.00993268 0)
(0.00519035 0.0100241 0)
(0.00543612 0.0101016 0)
(0.00558172 0.0101704 0)
(0.00574389 0.0102307 0)
(0.00590051 0.0102797 0)
(0.00599247 0.0103217 0)
(0.00608866 0.0103564 0)
(0.00616607 0.0103837 0)
(0.00621187 0.0104066 0)
(0.00625383 0.0104249 0)
(0.00627671 0.0104404 0)
(0.00628895 0.0104548 0)
(0.0047892 0.0103341 0)
(0.00499443 0.0104429 0)
(0.00526574 0.0105415 0)
(0.00551394 0.0106249 0)
(0.00566043 0.0106991 0)
(0.00582391 0.0107642 0)
(0.00598156 0.0108171 0)
(0.00607361 0.0108624 0)
(0.00617014 0.0108998 0)
(0.00624774 0.0109291 0)
(0.00629347 0.0109534 0)
(0.00633545 0.0109726 0)
(0.00635819 0.0109886 0)
(0.00637022 0.0110031 0)
(0.00485632 0.0108443 0)
(0.00506364 0.0109613 0)
(0.00533808 0.0110674 0)
(0.00558854 0.0111572 0)
(0.00573572 0.0112372 0)
(0.00590035 0.0113074 0)
(0.00605894 0.0113645 0)
(0.0061511 0.0114133 0)
(0.00624804 0.0114537 0)
(0.00632589 0.0114851 0)
(0.00637159 0.0115109 0)
(0.00641358 0.0115311 0)
(0.00643616 0.0115475 0)
(0.00644799 0.0115621 0)
(0.00492072 0.0113615 0)
(0.00512984 0.0114872 0)
(0.00540711 0.0116012 0)
(0.00565954 0.0116977 0)
(0.00580719 0.0117839 0)
(0.00597286 0.0118596 0)
(0.00613236 0.0119212 0)
(0.0062247 0.0119739 0)
(0.00632214 0.0120173 0)
(0.00640032 0.0120511 0)
(0.00644604 0.0120786 0)
(0.00648809 0.0120998 0)
(0.00651053 0.0121167 0)
(0.00652216 0.0121314 0)
(0.00498253 0.0118849 0)
(0.005193 0.0120196 0)
(0.00547258 0.0121419 0)
(0.0057265 0.0122457 0)
(0.00587431 0.0123385 0)
(0.00604085 0.0124201 0)
(0.0062013 0.0124866 0)
(0.00629397 0.0125435 0)
(0.00639211 0.0125903 0)
(0.00647079 0.0126266 0)
(0.00651668 0.012656 0)
(0.00655887 0.0126782 0)
(0.00658121 0.0126957 0)
(0.00659267 0.0127104 0)
(0.00504114 0.0124132 0)
(0.00525224 0.0125574 0)
(0.00553336 0.0126885 0)
(0.00578816 0.0128001 0)
(0.00593585 0.0129 0)
(0.00610338 0.012988 0)
(0.00626511 0.0130599 0)
(0.00635857 0.0131215 0)
(0.0064578 0.013172 0)
(0.00653726 0.0132111 0)
(0.00658347 0.0132425 0)
(0.00662586 0.013266 0)
(0.00664815 0.013284 0)
(0.00665944 0.0132988 0)
(0.00509468 0.0129452 0)
(0.00530534 0.0130994 0)
(0.00558718 0.0132399 0)
(0.00584258 0.0133599 0)
(0.00599056 0.0134676 0)
(0.0061599 0.0135625 0)
(0.00632382 0.0136403 0)
(0.00641877 0.013707 0)
(0.00651945 0.0137616 0)
(0.00659981 0.0138039 0)
(0.00664639 0.0138375 0)
(0.00668902 0.0138624 0)
(0.00671127 0.0138812 0)
(0.00672242 0.013896 0)
(0.00514025 0.0134795 0)
(0.00534942 0.0136443 0)
(0.00563181 0.0137947 0)
(0.00588871 0.0139239 0)
(0.00603859 0.0140399 0)
(0.00621126 0.0141424 0)
(0.00637827 0.0142269 0)
(0.00647495 0.0142992 0)
(0.00657703 0.0143585 0)
(0.00665824 0.0144043 0)
(0.00670524 0.0144406 0)
(0.0067482 0.0144671 0)
(0.0067705 0.0144865 0)
(0.00678155 0.0145015 0)
(0.00517469 0.0140142 0)
(0.00538236 0.0141903 0)
(0.00566692 0.0143513 0)
(0.00592787 0.0144904 0)
(0.00608177 0.0146157 0)
(0.00625859 0.0147265 0)
(0.0064284 0.0148184 0)
(0.00652636 0.0148971 0)
(0.00662977 0.0149617 0)
(0.0067121 0.0150116 0)
(0.00675985 0.0150508 0)
(0.00680336 0.0150792 0)
(0.00682581 0.0150996 0)
(0.00683678 0.0151147 0)
(0.00519602 0.0145477 0)
(0.00540464 0.0147357 0)
(0.00569502 0.0149081 0)
(0.00596263 0.015058 0)
(0.00612091 0.0151933 0)
(0.00630065 0.0153134 0)
(0.00647232 0.0154136 0)
(0.00657187 0.0154995 0)
(0.00667748 0.0155702 0)
(0.00676163 0.015625 0)
(0.00681044 0.0156676 0)
(0.00685458 0.0156982 0)
(0.0068772 0.0157197 0)
(0.0068881 0.015735 0)
(0.00520526 0.0150776 0)
(0.00541969 0.0152783 0)
(0.00571902 0.0154629 0)
(0.00599284 0.0156245 0)
(0.00615303 0.0157709 0)
(0.0063345 0.0159013 0)
(0.00650943 0.0160109 0)
(0.00661252 0.0161052 0)
(0.00672124 0.0161829 0)
(0.00680722 0.0162433 0)
(0.00685697 0.0162901 0)
(0.00690175 0.0163234 0)
(0.00692461 0.0163462 0)
(0.00693548 0.0163618 0)
(0.00520645 0.0156016 0)
(0.00543058 0.0158157 0)
(0.00573771 0.0160133 0)
(0.00601388 0.0161877 0)
(0.00617481 0.0163463 0)
(0.00636117 0.0164881 0)
(0.00654241 0.0166085 0)
(0.00664943 0.0167123 0)
(0.00676035 0.0167983 0)
(0.0068477 0.0168655 0)
(0.00689874 0.0169174 0)
(0.00694464 0.016954 0)
(0.00696797 0.0169785 0)
(0.0069789 0.0169945 0)
(0.00520298 0.0161168 0)
(0.00543558 0.016345 0)
(0.00574531 0.0165565 0)
(0.00602235 0.0167448 0)
(0.00618903 0.0169168 0)
(0.00638431 0.0170713 0)
(0.00657087 0.0172039 0)
(0.00667962 0.0173189 0)
(0.00679238 0.0174146 0)
(0.0068826 0.0174901 0)
(0.00693629 0.0175483 0)
(0.0069836 0.0175892 0)
(0.00700739 0.0176159 0)
(0.0070184 0.0176325 0)
(0.00519362 0.0166201 0)
(0.00542855 0.0168631 0)
(0.0057381 0.0170892 0)
(0.00602197 0.0172924 0)
(0.00619948 0.0174791 0)
(0.00640139 0.0176479 0)
(0.00658994 0.0177943 0)
(0.00670075 0.0179223 0)
(0.00681861 0.0180297 0)
(0.00691418 0.0181153 0)
(0.00697011 0.0181815 0)
(0.0070182 0.0182279 0)
(0.0070427 0.0182577 0)
(0.007054 0.0182752 0)
(0.00517258 0.017108 0)
(0.00540482 0.0173663 0)
(0.00571933 0.0176078 0)
(0.0060165 0.0178269 0)
(0.00620271 0.0180293 0)
(0.00640703 0.0182139 0)
(0.00659805 0.0183761 0)
(0.00671564 0.0185191 0)
(0.00684231 0.0186406 0)
(0.00694093 0.0187387 0)
(0.00699723 0.018815 0)
(0.00704764 0.0188689 0)
(0.00707398 0.018903 0)
(0.00708571 0.0189219 0)
(0.0051342 0.0175766 0)
(0.00536572 0.0178505 0)
(0.0056928 0.0181078 0)
(0.00600365 0.0183435 0)
(0.00619357 0.018563 0)
(0.00639892 0.0187647 0)
(0.00659777 0.0189445 0)
(0.00672801 0.0191049 0)
(0.0068589 0.0192431 0)
(0.00695673 0.0193569 0)
(0.00701819 0.0194465 0)
(0.0070736 0.0195104 0)
(0.00710157 0.0195508 0)
(0.00711345 0.0195721 0)
(0.00507695 0.0180218 0)
(0.00531435 0.0183112 0)
(0.00565882 0.0185844 0)
(0.00597883 0.0188373 0)
(0.00616721 0.0190745 0)
(0.00637865 0.0192946 0)
(0.00659457 0.0194937 0)
(0.00673126 0.0196738 0)
(0.0068596 0.0198319 0)
(0.00696608 0.0199648 0)
(0.00703663 0.0200718 0)
(0.0070951 0.0201499 0)
(0.00712411 0.0201997 0)
(0.0071372 0.020225 0)
(0.00500178 0.0184393 0)
(0.00525319 0.0187437 0)
(0.00561425 0.0190325 0)
(0.0059349 0.0193026 0)
(0.00612426 0.0195576 0)
(0.0063536 0.0197967 0)
(0.00658075 0.0200164 0)
(0.00671425 0.0202182 0)
(0.0068526 0.020399 0)
(0.00697166 0.0205554 0)
(0.00704656 0.0206849 0)
(0.00710806 0.0207829 0)
(0.00714119 0.0208473 0)
(0.0071573 0.0208797 0)
(0.00491117 0.0188246 0)
(0.00518144 0.0191431 0)
(0.00555232 0.0194467 0)
(0.00587094 0.0197331 0)
(0.00607116 0.0200055 0)
(0.0063165 0.0202632 0)
(0.00654567 0.0205038 0)
(0.00668619 0.0207284 0)
(0.00683718 0.0209341 0)
(0.00696378 0.0211176 0)
(0.00704415 0.0212756 0)
(0.00711265 0.0214013 0)
(0.00715394 0.0214887 0)
(0.00717319 0.0215345 0)
(0.00480572 0.0191736 0)
(0.00509531 0.0195046 0)
(0.00547034 0.0198216 0)
(0.00578925 0.0201227 0)
(0.00600368 0.0204108 0)
(0.0062615 0.0206857 0)
(0.00649453 0.020946 0)
(0.00664205 0.0211926 0)
(0.00680656 0.0214235 0)
(0.00694086 0.0216363 0)