/*--------------------------------*- C++ -*----------------------------------*\
| =========                 |                                                 |
| \\      /  F ield         | OpenFOAM Extend Project: Open source CFD        |
|  \\    /   O peration     | Version:  1.6-ext                               |
|   \\  /    A nd           | Web:      www.extend-project.de                 |
|    \\/     M anipulation  |                                                 |
\*---------------------------------------------------------------------------*/
FoamFile
{
    version     2.0;
    format      ascii;
    class       volScalarField;
    location    "1";
    object      p;
}
// * * * * * * * * * * * * * * * * * * * * * * * * * * * * * * * * * * * * * //

dimensions      [0 2 -2 0 0 0 0];

internalField   nonuniform List<scalar> 
20940
(
-0.156807
-0.199576
-0.24448
-0.291783
-0.340929
-0.391987
-0.444451
-0.497847
-0.551322
-0.603773
-0.653858
-0.700196
-0.741617
-0.777394
-0.807381
-0.831973
-0.851964
-0.868329
-0.881969
-0.893641
-0.904849
-0.916748
-0.184857
-0.226429
-0.270312
-0.315982
-0.363212
-0.411834
-0.461319
-0.511063
-0.560135
-0.607423
-0.651715
-0.691915
-0.727255
-0.757446
-0.78269
-0.803572
-0.820894
-0.835501
-0.848082
-0.859162
-0.869994
-0.881538
-0.2093
-0.249454
-0.292026
-0.335813
-0.380863
-0.426767
-0.472972
-0.518755
-0.563162
-0.605148
-0.64371
-0.67809
-0.707918
-0.73326
-0.75455
-0.772445
-0.787672
-0.800901
-0.812619
-0.823145
-0.8335
-0.844476
-0.23238
-0.270912
-0.311907
-0.353549
-0.39612
-0.438976
-0.481543
-0.523019
-0.56249
-0.599063
-0.632019
-0.660958
-0.685859
-0.707046
-0.725067
-0.740552
-0.754096
-0.766189
-0.777137
-0.787097
-0.796901
-0.807216
-0.253773
-0.290586
-0.329847
-0.369184
-0.409079
-0.448653
-0.487336
-0.524299
-0.558748
-0.59002
-0.617715
-0.641771
-0.662436
-0.680179
-0.695561
-0.709118
-0.721294
-0.732412
-0.74263
-0.751988
-0.761168
-0.770747
-0.273755
-0.308792
-0.346186
-0.383069
-0.420093
-0.456167
-0.490774
-0.523126
-0.552633
-0.578907
-0.601867
-0.621717
-0.638874
-0.653846
-0.667134
-0.679146
-0.690179
-0.700417
-0.709909
-0.718618
-0.727105
-0.735883
-0.292481
-0.325689
-0.361096
-0.395401
-0.429394
-0.46182
-0.492269
-0.520071
-0.544899
-0.566651
-0.585513
-0.601869
-0.616199
-0.628977
-0.640596
-0.651339
-0.661372
-0.670776
-0.679528
-0.687541
-0.695281
-0.703213
-0.310214
-0.341639
-0.374992
-0.406612
-0.437428
-0.466092
-0.492382
-0.515814
-0.53635
-0.554143
-0.569568
-0.583089
-0.595173
-0.606207
-0.616469
-0.626125
-0.635244
-0.643833
-0.651825
-0.659107
-0.666065
-0.673128
-0.326903
-0.356489
-0.387668
-0.416515
-0.444085
-0.46902
-0.491334
-0.510767
-0.527547
-0.542017
-0.554656
-0.56593
-0.576238
-0.585868
-0.594991
-0.603682
-0.61194
-0.619725
-0.626947
-0.633482
-0.639647
-0.64584
-0.342871
-0.37074
-0.399714
-0.425717
-0.449979
-0.471241
-0.489802
-0.505636
-0.519186
-0.530906
-0.541295
-0.550771
-0.559642
-0.568096
-0.576221
-0.584022
-0.591454
-0.598447
-0.604902
-0.610693
-0.616076
-0.621423
-0.357584
-0.383563
-0.410166
-0.433354
-0.454453
-0.472378
-0.487667
-0.500491
-0.511429
-0.520975
-0.5296
-0.537647
-0.545341
-0.552791
-0.560022
-0.566995
-0.573638
-0.579864
-0.585574
-0.590646
-0.595283
-0.599825
-0.371766
-0.396069
-0.420387
-0.440778
-0.458783
-0.473583
-0.485935
-0.496169
-0.504921
-0.512674
-0.519835
-0.526671
-0.533331
-0.539867
-0.546258
-0.552439
-0.55832
-0.563809
-0.568805
-0.573196
-0.577136
-0.580934
-0.383434
-0.405858
-0.427648
-0.44564
-0.461069
-0.473462
-0.483611
-0.491951
-0.499108
-0.505532
-0.511569
-0.517429
-0.523213
-0.528937
-0.53456
-0.540004
-0.545174
-0.549974
-0.55431
-0.558077
-0.561388
-0.56452
-0.395806
-0.416466
-0.436048
-0.451651
-0.464574
-0.474696
-0.482819
-0.489457
-0.495185
-0.500404
-0.505398
-0.510325
-0.515248
-0.52016
-0.525008
-0.529708
-0.534164
-0.538283
-0.541975
-0.545146
-0.547875
-0.550413
-0.400733
-0.421325
-0.438158
-0.452484
-0.463919
-0.472941
-0.480079
-0.485883
-0.490849
-0.49535
-0.49964
-0.503866
-0.508093
-0.51232
-0.516502
-0.520565
-0.524418
-0.527971
-0.531139
-0.533832
-0.536096
-0.538147
-0.415735
-0.433155
-0.447162
-0.45911
-0.468298
-0.475423
-0.480972
-0.485477
-0.489365
-0.49294
-0.496397
-0.499844
-0.503316
-0.506803
-0.510257
-0.51361
-0.516781
-0.519689
-0.522264
-0.524429
-0.526212
-0.527783
-0.436162
-0.449715
-0.459008
-0.467183
-0.473243
-0.478162
-0.482157
-0.485607
-0.488728
-0.49168
-0.494555
-0.497401
-0.500229
-0.503022
-0.505741
-0.508336
-0.510747
-0.512918
-0.514801
-0.516351
-0.517601
-0.51868
-0.445617
-0.457295
-0.463945
-0.470471
-0.475068
-0.479006
-0.482214
-0.485039
-0.487593
-0.489997
-0.492313
-0.494578
-0.496802
-0.498974
-0.501067
-0.503043
-0.504858
-0.506471
-0.507846
-0.508954
-0.509818
-0.510528
-0.452499
-0.462576
-0.467232
-0.472532
-0.476032
-0.479224
-0.481817
-0.484137
-0.486226
-0.488175
-0.490024
-0.491801
-0.493516
-0.495164
-0.496725
-0.498175
-0.499483
-0.500618
-0.501558
-0.502286
-0.502816
-0.503208
-0.456341
-0.464972
-0.468541
-0.473034
-0.475904
-0.478616
-0.480799
-0.482746
-0.48447
-0.486046
-0.487506
-0.488878
-0.490173
-0.491391
-0.49252
-0.493543
-0.494438
-0.495185
-0.495768
-0.496179
-0.496421
-0.49653
-0.458247
-0.465538
-0.468635
-0.472502
-0.475004
-0.477362
-0.479254
-0.480917
-0.482363
-0.483651
-0.484812
-0.48587
-0.486838
-0.487719
-0.488506
-0.489189
-0.489751
-0.490178
-0.49046
-0.490596
-0.490574
-0.490408
-0.458518
-0.464659
-0.467653
-0.471064
-0.473388
-0.475516
-0.477232
-0.478711
-0.479972
-0.481063
-0.482015
-0.48285
-0.48358
-0.48421
-0.484739
-0.485158
-0.485456
-0.485622
-0.485651
-0.485544
-0.485273
-0.484834
-0.457538
-0.462814
-0.465872
-0.468995
-0.471267
-0.473279
-0.474915
-0.476302
-0.477465
-0.478445
-0.479271
-0.479963
-0.480534
-0.48099
-0.48133
-0.481551
-0.481642
-0.481597
-0.481411
-0.481092
-0.480588
-0.479878
-0.455697
-0.460409
-0.463595
-0.466586
-0.468897
-0.470894
-0.472536
-0.473912
-0.475053
-0.475995
-0.476765
-0.477381
-0.477858
-0.478202
-0.478413
-0.478489
-0.478425
-0.478212
-0.477851
-0.477349
-0.476636
-0.475674
-0.453428
-0.457841
-0.461178
-0.464164
-0.466577
-0.468637
-0.470348
-0.471776
-0.472954
-0.473914
-0.474682
-0.475276
-0.475709
-0.47599
-0.476119
-0.476098
-0.475921
-0.475584
-0.475088
-0.474443
-0.473558
-0.472384
-0.451171
-0.455489
-0.458986
-0.462053
-0.464604
-0.466779
-0.4686
-0.47012
-0.471373
-0.472389
-0.473192
-0.473799
-0.474226
-0.47448
-0.474566
-0.474486
-0.474238
-0.473821
-0.473238
-0.472499
-0.471499
-0.470177
-0.449213
-0.453574
-0.457231
-0.460426
-0.463134
-0.465447
-0.467399
-0.469034
-0.470386
-0.471482
-0.472345
-0.472993
-0.47344
-0.473697
-0.473771
-0.473667
-0.473389
-0.472937
-0.472321
-0.47155
-0.470516
-0.469146
-0.447899
-0.45238
-0.456191
-0.459532
-0.462393
-0.464849
-0.466935
-0.468692
-0.470151
-0.47134
-0.47228
-0.472988
-0.473479
-0.473763
-0.473851
-0.473751
-0.473474
-0.473028
-0.472429
-0.471693
-0.470722
-0.469441
-0.447049
-0.451665
-0.455596
-0.45906
-0.462047
-0.464623
-0.466824
-0.468689
-0.47025
-0.471531
-0.472552
-0.473328
-0.473872
-0.474195
-0.474309
-0.474228
-0.473969
-0.473554
-0.473012
-0.472378
-0.471594
-0.470593
-0.447197
-0.451954
-0.456036
-0.459648
-0.462784
-0.465505
-0.467853
-0.469866
-0.471578
-0.473013
-0.47419
-0.475118
-0.475803
-0.476247
-0.476452
-0.476421
-0.47617
-0.475726
-0.475135
-0.474472
-0.473803
-0.473203
1.20633
1.25719
1.30796
1.35858
1.40861
1.45764
1.50528
1.55113
1.59481
1.63592
1.67412
1.70907
1.74046
1.76808
1.7918
1.81168
1.82805
1.84163
1.85337
1.86451
1.8779
1.89546
1.19819
1.24874
1.29888
1.34886
1.39821
1.44653
1.49342
1.5385
1.58137
1.62166
1.65903
1.69312
1.72367
1.75044
1.77332
1.79239
1.80802
1.82095
1.83219
1.84299
1.85621
1.87371
1.17804
1.22789
1.27676
1.32548
1.37354
1.42051
1.46601
1.50966
1.55106
1.58984
1.62566
1.65819
1.68714
1.7123
1.73358
1.75109
1.76527
1.77692
1.78715
1.79727
1.81012
1.82748
1.1491
1.1979
1.24481
1.29161
1.33766
1.38252
1.42585
1.46724
1.50633
1.54274
1.57614
1.6062
1.63265
1.65529
1.67407
1.68915
1.70106
1.71074
1.71939
1.72843
1.74069
1.7578
1.11069
1.15808
1.20243
1.24672
1.29016
1.3323
1.3728
1.41128
1.44736
1.48069
1.51093
1.53776
1.56093
1.58027
1.59574
1.60762
1.61653
1.62356
1.63011
1.63769
1.64914
1.66588
1.06454
1.11016
1.15136
1.1926
1.23283
1.27162
1.30864
1.34353
1.37591
1.40544
1.43178
1.45464
1.47377
1.48901
1.5004
1.50828
1.51345
1.51718
1.52108
1.52681
1.5372
1.55342
1.01159
1.0551
1.09266
1.13036
1.16688
1.2018
1.23481
1.26554
1.29363
1.31874
1.34055
1.35877
1.37315
1.38359
1.39016
1.39332
1.39403
1.39382
1.39452
1.398
1.40703
1.42256
0.953586
0.994652
1.02815
1.06189
1.09425
1.12482
1.15331
1.17936
1.20261
1.22273
1.23941
1.25235
1.26135
1.26629
1.26735
1.26509
1.26065
1.25585
1.2528
1.2536
1.26099
1.27559
0.892042
0.930326
0.959429
0.988912
1.01678
1.04266
1.06628
1.08725
1.10525
1.11994
1.131
1.13817
1.14122
1.1401
1.13501
1.12666
1.11642
1.10638
1.09902
1.09666
1.10205
1.11544
0.828924
0.864134
0.888622
0.91359
0.936672
0.957534
0.975918
0.991449
1.00379
1.01261
1.0176
1.0185
1.01509
1.00735
0.995532
0.980486
0.963808
0.947926
0.935693
0.929741
0.932759
0.944629
0.765615
0.797415
0.817226
0.83761
0.855826
0.871591
0.884647
0.894608
0.901134
0.903897
0.902587
0.896929
0.886721
0.871936
0.85291
0.830607
0.80688
0.784514
0.7668
0.756711
0.756912
0.766862
0.704321
0.732421
0.747504
0.763141
0.776301
0.786758
0.794242
0.798365
0.798785
0.795175
0.787225
0.774661
0.757286
0.735087
0.708451
0.678474
0.647254
0.617959
0.594331
0.579723
0.576746
0.584361
0.6454
0.669454
0.680232
0.69139
0.699788
0.705236
0.707438
0.705992
0.700543
0.690746
0.676275
0.656839
0.632223
0.60241
0.567819
0.52967
0.490329
0.453395
0.42315
0.403409
0.396748
0.401564
0.592133
0.611168
0.617561
0.624006
0.627427
0.627617
0.624251
0.616923
0.605274
0.588956
0.567645
0.541052
0.508973
0.471408
0.428828
0.382576
0.335267
0.290885
0.254182
0.229373
0.218892
0.220432
0.5423
0.556231
0.559642
0.56203
0.561309
0.557128
0.549093
0.536778
0.519784
0.497723
0.470226
0.436957
0.397657
0.352279
0.30128
0.24609
0.189612
0.136393
0.091954
0.0612168
0.0466407
0.0449634
0.504535
0.506724
0.507156
0.505249
0.499575
0.490127
0.476446
0.458127
0.434779
0.406017
0.371478
0.330843
0.283898
0.230691
0.171865
0.109141
0.0458056
-0.0132244
-0.0622018
-0.0962267
-0.113381
-0.117712
0.464742
0.457293
0.452781
0.443674
0.430685
0.413586
0.391915
0.365356
0.333571
0.296248
0.253112
0.203963
0.148782
0.0879342
0.0225251
-0.04519
-0.111545
-0.171695
-0.220554
-0.254286
-0.272242
-0.279181
0.417401
0.403048
0.393754
0.378168
0.358976
0.335285
0.30679
0.273213
0.234259
0.189683
0.13929
0.0829984
0.0209677
-0.0461548
-0.116885
-0.188559
-0.257244
-0.318179
-0.366811
-0.40017
-0.418746
-0.427928
0.367256
0.347127
0.332626
0.310795
0.285621
0.255626
0.220756
0.18073
0.135305
0.0842921
0.0275719
-0.0348216
-0.102537
-0.174635
-0.249257
-0.323384
-0.39292
-0.453325
-0.500686
-0.532935
-0.551571
-0.562311
0.315124
0.289925
0.270175
0.242591
0.211826
0.176014
0.135333
0.0894847
0.0382938
-0.0183671
-0.0805273
-0.148008
-0.220228
-0.295928
-0.372885
-0.4478
-0.516577
-0.575082
-0.620174
-0.650698
-0.668982
-0.6808
0.262091
0.232471
0.207671
0.174937
0.139105
0.0981299
0.0523641
0.00149825
-0.0545734
-0.115913
-0.182445
-0.253824
-0.329216
-0.40704
-0.484757
-0.558914
-0.625574
-0.681156
-0.723344
-0.751817
-0.769525
-0.782087
0.209339
0.175911
0.146426
0.109192
0.0688926
0.0234768
-0.0265931
-0.0816199
-0.141638
-0.206638
-0.276422
-0.350454
-0.427639
-0.506092
-0.583042
-0.655014
-0.718396
-0.770265
-0.809127
-0.835379
-0.852382
-0.865442
0.157685
0.121052
0.0873796
0.0463425
0.00226115
-0.0468064
-0.10034
-0.158618
-0.221602
-0.289199
-0.36107
-0.436473
-0.514049
-0.591657
-0.666394
-0.734918
-0.794077
-0.841675
-0.876985
-0.900975
-0.917221
-0.930604
0.108124
0.0688839
0.0316067
-0.0125203
-0.0596633
-0.111577
-0.167722
-0.228333
-0.293299
-0.362425
-0.435215
-0.51071
-0.587306
-0.662674
-0.733905
-0.797935
-0.852184
-0.895191
-0.926905
-0.948701
-0.964198
-0.977773
0.0609808
0.0197178
-0.0205232
-0.0670138
-0.116463
-0.170396
-0.228281
-0.29029
-0.356236
-0.425807
-0.498334
-0.572644
-0.646927
-0.718762
-0.785367
-0.844084
-0.892973
-0.931276
-0.959487
-0.979229
-0.994013
-1.00768
0.0170383
-0.0256829
-0.0682267
-0.116381
-0.167404
-0.222573
-0.281371
-0.343898
-0.409878
-0.478864
-0.550006
-0.621933
-0.692695
-0.759886
-0.820983
-0.873841
-0.91718
-0.950862
-0.975787
-0.993667
-1.00779
-1.02144
-0.0240667
-0.0677203
-0.111911
-0.161047
-0.212917
-0.268546
-0.327437
-0.389604
-0.454667
-0.522034
-0.590676
-0.659065
-0.725192
-0.786792
-0.841722
-0.888416
-0.926224
-0.955517
-0.97744
-0.993666
-1.00717
-1.02071
-0.0615669
-0.105649
-0.150855
-0.200352
-0.252414
-0.307816
-0.366078
-0.427109
-0.490414
-0.555247
-0.620417
-0.684294
-0.744914
-0.800271
-0.848698
-0.889224
-0.921755
-0.947031
-0.966302
-0.981089
-0.994013
-1.00732
-0.0966629
-0.140742
-0.186385
-0.235662
-0.28729
-0.3418
-0.398717
-0.457832
-0.518524
-0.579896
-0.640636
-0.699094
-0.753469
-0.802129
-0.84394
-0.878494
-0.906141
-0.927837
-0.944805
-0.958339
-0.970672
-0.983599
-0.127988
-0.171643
-0.217188
-0.265735
-0.316392
-0.369452
-0.424431
-0.480987
-0.538374
-0.595565
-0.651188
-0.703671
-0.751484
-0.793438
-0.828928
-0.858019
-0.881362
-0.899986
-0.914985
-0.927386
-0.93903
-0.951317
-0.112555
-0.156737
-0.202925
-0.252186
-0.303642
-0.357552
-0.41342
-0.470867
-0.529107
-0.587065
-0.643321
-0.69627
-0.744371
-0.786448
-0.821928
-0.850913
-0.874092
-0.89252
-0.907311
-0.919505
-0.930926
-0.942961
-0.0810452
-0.12567
-0.171969
-0.221949
-0.27436
-0.329695
-0.387475
-0.447456
-0.508985
-0.571116
-0.632487
-0.691406
-0.746053
-0.794802
-0.836553
-0.870943
-0.898369
-0.919823
-0.936549
-0.949854
-0.961947
-0.974601
-0.0459848
-0.0906267
-0.136506
-0.186698
-0.239529
-0.295733
-0.354831
-0.416704
-0.480828
-0.546412
-0.612213
-0.676552
-0.737435
-0.792854
-0.841172
-0.881472
-0.913716
-0.938693
-0.957681
-0.972214
-0.984886
-0.997905
-0.00879704
-0.0530225
-0.0979108
-0.147739
-0.200369
-0.25678
-0.316482
-0.379466
-0.445328
-0.513436
-0.58271
-0.651568
-0.717959
-0.779605
-0.834388
-0.880794
-0.918246
-0.947173
-0.968766
-0.984711
-0.997958
-1.01121
0.0317219
-0.0115795
-0.0548519
-0.1037
-0.15548
-0.211417
-0.271007
-0.334332
-0.401095
-0.470817
-0.542597
-0.615011
-0.686056
-0.753299
-0.814229
-0.866755
-0.909672
-0.942923
-0.967464
-0.985034
-0.998891
-1.01226
0.074796
0.0329451
-0.00806237
-0.0552557
-0.105466
-0.160162
-0.218829
-0.281624
-0.348345
-0.418651
-0.491832
-0.566657
-0.64126
-0.713178
-0.779625
-0.837989
-0.886409
-0.924219
-0.951993
-0.971393
-0.985906
-0.999305
0.120808
0.0809723
0.0428855
-0.00196119
-0.0498772
-0.10256
-0.159487
-0.220882
-0.286624
-0.356496
-0.429964
-0.506017
-0.582988
-0.658498
-0.729616
-0.793304
-0.847063
-0.889534
-0.920764
-0.942188
-0.957413
-0.970749
0.169004
0.131765
0.0972346
0.0554513
0.0105761
-0.0392773
-0.0936048
-0.152677
-0.216451
-0.284814
-0.357399
-0.433416
-0.511444
-0.589279
-0.66398
-0.732215
-0.790899
-0.837944
-0.872737
-0.896332
-0.91231
-0.925486
0.219105
0.185053
0.154661
0.116643
0.0755219
0.0292922
-0.0215953
-0.0774412
-0.138275
-0.204075
-0.274621
-0.349335
-0.427064
-0.505855
-0.582884
-0.654662
-0.717627
-0.76896
-0.807297
-0.83314
-0.849886
-0.862781
0.270174
0.239902
0.214145
0.180582
0.14389
0.102063
0.0554435
0.00372155
-0.0532054
-0.115392
-0.182746
-0.254887
-0.330931
-0.409226
-0.487168
-0.561268
-0.627615
-0.682721
-0.724403
-0.752472
-0.769942
-0.782391
0.321456
0.295562
0.274808
0.246339
0.214673
0.177962
0.136381
0.0896292
0.0375313
-0.0200354
-0.0830882
-0.151422
-0.224413
-0.300732
-0.378085
-0.453119
-0.521734
-0.579867
-0.624513
-0.65466
-0.672738
-0.684505
0.371844
0.350959
0.335416
0.312637
0.286514
0.255568
0.219745
0.178758
0.132364
0.0803771
0.0226837
-0.0406629
-0.109274
-0.182153
-0.257363
-0.331814
-0.401382
-0.461569
-0.508583
-0.540512
-0.558991
-0.569756
0.420307
0.40511
0.394751
0.378151
0.35796
0.333261
0.303753
0.269151
0.229159
0.183531
0.132076
0.074726
0.0116687
-0.0563975
-0.127915
-0.200138
-0.26908
-0.329991
-0.378418
-0.411545
-0.430031
-0.439325
0.466088
0.457632
0.452035
0.441853
0.427814
0.409659
0.386921
0.35928
0.326392
0.287944
0.243663
0.193358
0.137025
0.075076
0.00868089
-0.0598185
-0.126681
-0.18704
-0.235878
-0.269502
-0.287454
-0.294606
0.504782
0.505803
0.505151
0.502126
0.495341
0.48478
0.469967
0.450496
0.425968
0.395996
0.360216
0.318311
0.270078
0.215595
0.155561
0.0917834
0.0276447
-0.031879
-0.0810677
-0.115145
-0.132406
-0.137062
0.540839
0.553397
0.555713
0.557
0.555146
0.549821
0.540618
0.527106
0.508879
0.485548
0.456741
0.422125
0.381449
0.334692
0.282361
0.225968
0.168514
0.114615
0.0697872
0.0388519
0.0240626
0.0219684
0.588513
0.6061
0.611402
0.616736
0.619003
0.618029
0.613469
0.604914
0.591999
0.574374
0.551713
0.523732
0.490234
0.451243
0.407278
0.359756
0.311379
0.266196
0.228965
0.203825
0.193032
0.194091
0.639901
0.662549
0.672235
0.682286
0.689525
0.693797
0.694787
0.692089
0.685345
0.674207
0.65835
0.637483
0.611403
0.580113
0.544078
0.504584
0.464082
0.426233
0.395336
0.375151
0.368093
0.37238
0.697036
0.723785
0.737773
0.752311
0.764315
0.773596
0.779865
0.782731
0.781849
0.77689
0.767544
0.753539
0.734687
0.710997
0.682894
0.651539
0.619104
0.58882
0.564452
0.549319
0.545887
0.552949
0.756872
0.787431
0.806168
0.825479
0.84256
0.857166
0.86902
0.877735
0.882968
0.884389
0.881689
0.874595
0.862916
0.846641
0.826144
0.802447
0.77747
0.754062
0.735545
0.724872
0.724583
0.733976
0.819054
0.853129
0.876569
0.900496
0.922479
0.942213
0.959428
0.973744
0.98482
0.99233
0.995969
0.995465
0.990625
0.981421
0.968165
0.951742
0.933816
0.916875
0.903809
0.897244
0.899759
0.911089
0.881471
0.918743
0.94685
0.975344
1.00217
1.02697
1.04947
1.06929
1.08608
1.09951
1.10927
1.1151
1.11677
1.11425
1.10777
1.09809
1.08663
1.07554
1.06735
1.06437
1.06926
1.08214
0.942761
0.982935
1.0155
1.04831
1.0797
1.10927
1.13671
1.16167
1.18379
1.20274
1.2182
1.22988
1.23759
1.24123
1.24098
1.23746
1.23187
1.22606
1.2222
1.2224
1.22931
1.24344
1.00099
1.04373
1.08044
1.1173
1.15294
1.18694
1.219
1.24873
1.27579
1.29983
1.32053
1.3376
1.35081
1.36004
1.36542
1.36742
1.36707
1.36592
1.36586
1.36877
1.37737
1.39248
1.05462
1.09959
1.14005
1.18054
1.21999
1.25797
1.29416
1.32816
1.35963
1.38821
1.41357
1.43542
1.4535
1.46768
1.47801
1.48487
1.48908
1.49197
1.49519
1.50041
1.5104
1.52627
1.1019
1.14876
1.19248
1.23615
1.27892
1.32038
1.36016
1.39789
1.4332
1.46572
1.49513
1.5211
1.54339
1.56182
1.5764
1.5874
1.59549
1.6018
1.60776
1.6149
1.62602
1.64246
1.14182
1.19021
1.23662
1.28292
1.32844
1.37275
1.4155
1.4563
1.49477
1.53054
1.56327
1.59264
1.61838
1.6403
1.65835
1.67273
1.68399
1.69308
1.70126
1.70994
1.72194
1.73881
1.1726
1.22216
1.27066
1.31902
1.36669
1.41326
1.45835
1.50155
1.5425
1.58082
1.61615
1.64817
1.67661
1.70124
1.72199
1.73899
1.75268
1.76391
1.77378
1.78364
1.7963
1.81348
1.19483
1.2452
1.29513
1.34488
1.394
1.44207
1.48871
1.53352
1.57611
1.61612
1.65319
1.68698
1.71721
1.74365
1.76621
1.78497
1.80031
1.81297
1.82399
1.83463
1.84774
1.86513
1.20519
1.25599
1.30669
1.35724
1.40719
1.45614
1.50369
1.54945
1.59303
1.63405
1.67215
1.70699
1.73829
1.7658
1.78941
1.80918
1.82546
1.83894
1.85061
1.86169
1.87505
1.89258
-0.141776
-0.170403
-0.195522
-0.219369
-0.241559
-0.262337
-0.281825
-0.300257
-0.317568
-0.33406
-0.349209
-0.363724
-0.375676
-0.388239
-0.393467
-0.408684
-0.429625
-0.439522
-0.446684
-0.450675
-0.45265
-0.452951
-0.451965
-0.450082
-0.44774
-0.445382
-0.443322
-0.441892
-0.440976
-0.441013
-0.18505
-0.212458
-0.236132
-0.258328
-0.278775
-0.297752
-0.31539
-0.332019
-0.347474
-0.362239
-0.375493
-0.388344
-0.398417
-0.409251
-0.414323
-0.426402
-0.443499
-0.451389
-0.456888
-0.459422
-0.46007
-0.459232
-0.457389
-0.454946
-0.452309
-0.449863
-0.447853
-0.446557
-0.445785
-0.445982
-0.230588
-0.25697
-0.279328
-0.299944
-0.318651
-0.335755
-0.351397
-0.365963
-0.379231
-0.391784
-0.402653
-0.413217
-0.420744
-0.429366
-0.431645
-0.440873
-0.453232
-0.458414
-0.461853
-0.463236
-0.463361
-0.462389
-0.460593
-0.458272
-0.455786
-0.453505
-0.451662
-0.450531
-0.449885
-0.450249
-0.278612
-0.30337
-0.323847
-0.342313
-0.358707
-0.373345
-0.38639
-0.398251
-0.408721
-0.418409
-0.426437
-0.434186
-0.439277
-0.445486
-0.446413
-0.453232
-0.461706
-0.465143
-0.4673
-0.46785
-0.467343
-0.465912
-0.463826
-0.461375
-0.458886
-0.456693
-0.454987
-0.454012
-0.453496
-0.454023
-0.328573
-0.351424
-0.369726
-0.385713
-0.399423
-0.411173
-0.421164
-0.42982
-0.437013
-0.443358
-0.448185
-0.452799
-0.455265
-0.458924
-0.458298
-0.46282
-0.46805
-0.469958
-0.47097
-0.47086
-0.469965
-0.468343
-0.466198
-0.463783
-0.461398
-0.45935
-0.457806
-0.456996
-0.45661
-0.4573
-0.380501
-0.40093
-0.416521
-0.429454
-0.439866
-0.448092
-0.4544
-0.459254
-0.46267
-0.465289
-0.466721
-0.46815
-0.468147
-0.469477
-0.467692
-0.47026
-0.473169
-0.474039
-0.474273
-0.473667
-0.472411
-0.470555
-0.46829
-0.46586
-0.463542
-0.461613
-0.460215
-0.459556
-0.459296
-0.460143
-0.433874
-0.451333
-0.463642
-0.472924
-0.479428
-0.483542
-0.485646
-0.486286
-0.485664
-0.484463
-0.482552
-0.480973
-0.478702
-0.477947
-0.47513
-0.476055
-0.477318
-0.477365
-0.476962
-0.475935
-0.47438
-0.472341
-0.469995
-0.46757
-0.465323
-0.46351
-0.462249
-0.461732
-0.461592
-0.462595
-0.488176
-0.501983
-0.510323
-0.515274
-0.517231
-0.516687
-0.514185
-0.510388
-0.505692
-0.500814
-0.495818
-0.491575
-0.48735
-0.484838
-0.481153
-0.480734
-0.480877
-0.480276
-0.479355
-0.477948
-0.476106
-0.473879
-0.471438
-0.469002
-0.46681
-0.465094
-0.463954
-0.463565
-0.463538
-0.464698
-0.54251
-0.551905
-0.555563
-0.555548
-0.552439
-0.546898
-0.539651
-0.531488
-0.522959
-0.514772
-0.507092
-0.500598
-0.494728
-0.490743
-0.486276
-0.484744
-0.484079
-0.4829
-0.481505
-0.479729
-0.477604
-0.47519
-0.472649
-0.470191
-0.468038
-0.466401
-0.465364
-0.46509
-0.465168
-0.466486
-0.595726
-0.599943
-0.598275
-0.592812
-0.584355
-0.573758
-0.561921
-0.549725
-0.537799
-0.52679
-0.516876
-0.508537
-0.501301
-0.496082
-0.490885
-0.488405
-0.487093
-0.48536
-0.483505
-0.481352
-0.478937
-0.476324
-0.47367
-0.471174
-0.469041
-0.467462
-0.46651
-0.466333
-0.466507
-0.467986
-0.64644
-0.644847
-0.637427
-0.626324
-0.61256
-0.597171
-0.581172
-0.565471
-0.550696
-0.537381
-0.525656
-0.515817
-0.507436
-0.501154
-0.495251
-0.491926
-0.490019
-0.487725
-0.485399
-0.482856
-0.480137
-0.477312
-0.47453
-0.471977
-0.469844
-0.468303
-0.467414
-0.46732
-0.467578
-0.469218
-0.693246
-0.685502
-0.672246
-0.655672
-0.636985
-0.617341
-0.597793
-0.579204
-0.562132
-0.546979
-0.533796
-0.522724
-0.513357
-0.506134
-0.499533
-0.495421
-0.49291
-0.490034
-0.487219
-0.484267
-0.481231
-0.478178
-0.475251
-0.472623
-0.470468
-0.468943
-0.468098
-0.468067
-0.468395
-0.470193
-0.734967
-0.721143
-0.702365
-0.680844
-0.657888
-0.634696
-0.612281
-0.591407
-0.572528
-0.555913
-0.541538
-0.529425
-0.519179
-0.511094
-0.503804
-0.498936
-0.49578
-0.4923
-0.488973
-0.485598
-0.482231
-0.478937
-0.475848
-0.473125
-0.470926
-0.469396
-0.468574
-0.468589
-0.468973
-0.470918
-0.770893
-0.751492
-0.727866
-0.702177
-0.675755
-0.649766
-0.625129
-0.602489
-0.58219
-0.56439
-0.549009
-0.535982
-0.52493
-0.516037
-0.50807
-0.502462
-0.498614
-0.494512
-0.490659
-0.48685
-0.483142
-0.479594
-0.476328
-0.473491
-0.471228
-0.469672
-0.468854
-0.468898
-0.469323
-0.471394
-0.800905
-0.776779
-0.749206
-0.720243
-0.69117
-0.663072
-0.636756
-0.61275
-0.59131
-0.572514
-0.556244
-0.542385
-0.530574
-0.520913
-0.512289
-0.505956
-0.501375
-0.496646
-0.492259
-0.488013
-0.483959
-0.480148
-0.476691
-0.473722
-0.471376
-0.469776
-0.468946
-0.469005
-0.469457
-0.471623
-0.825432
-0.797617
-0.767068
-0.735695
-0.704692
-0.675046
-0.647461
-0.622373
-0.599976
-0.580301
-0.563216
-0.548575
-0.536039
-0.525642
-0.516389
-0.509349
-0.504011
-0.498662
-0.493746
-0.489069
-0.484671
-0.480592
-0.476932
-0.473816
-0.471371
-0.469711
-0.468856
-0.46892
-0.46939
-0.471611
-0.845295
-0.814833
-0.7822
-0.749152
-0.716787
-0.686005
-0.657431
-0.631443
-0.6082
-0.587715
-0.569856
-0.554467
-0.541231
-0.530129
-0.520281
-0.512562
-0.506464
-0.500518
-0.495091
-0.489998
-0.485261
-0.480914
-0.477044
-0.473769
-0.471208
-0.469475
-0.468587
-0.468652
-0.46914
-0.471371
-0.861494
-0.829292
-0.795297
-0.761124
-0.727797
-0.696151
-0.666761
-0.639978
-0.615952
-0.594694
-0.576084
-0.559971
-0.546058
-0.534282
-0.523876
-0.515514
-0.508679
-0.502171
-0.496263
-0.490777
-0.485717
-0.481104
-0.477019
-0.473571
-0.470883
-0.469067
-0.468142
-0.46821
-0.468728
-0.470931
-0.874948
-0.841703
-0.80686
-0.771934
-0.737896
-0.705546
-0.675439
-0.64792
-0.623146
-0.60114
-0.581802
-0.56499
-0.550426
-0.538013
-0.527089
-0.518134
-0.510605
-0.503586
-0.49724
-0.491393
-0.486028
-0.481157
-0.476853
-0.473226
-0.470398
-0.46849
-0.467527
-0.46761
-0.468185
-0.47034
-0.886429
-0.852607
-0.817227
-0.781755
-0.747138
-0.714164
-0.683387
-0.655162
-0.629663
-0.606933
-0.586892
-0.56941
-0.554231
-0.541226
-0.529827
-0.520344
-0.512198
-0.504734
-0.498004
-0.491836
-0.486192
-0.481075
-0.476552
-0.472738
-0.469761
-0.467753
-0.466755
-0.46687
-0.467544
-0.46967
-0.89743
-0.863251
-0.827418
-0.791421
-0.756208
-0.72257
-0.691074
-0.662093
-0.635825
-0.612332
-0.59156
-0.573391
-0.557589
-0.544005
-0.532142
-0.522176
-0.513492
-0.505639
-0.498571
-0.492112
-0.4862
-0.480829
-0.476069
-0.472039
-0.468884
-0.466755
-0.465716
-0.465888
-0.466748
-0.468989
-0.909099
-0.874591
-0.838218
-0.801594
-0.765681
-0.731277
-0.698966
-0.669144
-0.642031
-0.617711
-0.596149
-0.577246
-0.560783
-0.546606
-0.534255
-0.523804
-0.514622
-0.506394
-0.499005
-0.49226
-0.486069
-0.48042
-0.475385
-0.471095
-0.467718
-0.465432
-0.464335
-0.46459
-0.465728
-0.468373
0.0848961
0.084319
0.0840568
0.0836195
0.083252
0.0828302
0.0824273
0.0820273
0.0816703
0.0813762
0.0811805
0.0811122
0.0812008
0.08147
0.0819379
0.0826155
0.0835067
0.0846082
0.0859102
0.0873966
0.0890453
0.0908293
0.0927155
0.0946682
0.0815797
0.0810163
0.0807481
0.0803052
0.0799262
0.0794941
0.0790826
0.0786792
0.0783254
0.0780435
0.07787
0.0778351
0.0779689
0.0782951
0.0788318
0.0795891
0.0805702
0.0817708
0.0831796
0.0847792
0.0865463
0.0884524
0.090463
0.0925411
0.078273
0.0777253
0.0774518
0.0770045
0.076615
0.0761737
0.0757546
0.0753487
0.0749993
0.0747305
0.0745803
0.0745797
0.0747595
0.0751435
0.0757492
0.0765864
0.0776572
0.0789562
0.0804709
0.0821826
0.0840666
0.0860931
0.0882263
0.0904278
0.0749853
0.074455
0.074177
0.0737267
0.0733277
0.0728783
0.0724526
0.0720455
0.0717016
0.0714471
0.0713212
0.0713559
0.0715824
0.0720245
0.0726995
0.0736165
0.0747765
0.076173
0.0777923
0.0796145
0.0816135
0.0837584
0.086012
0.0883348
0.0717258
0.0712147
0.0709332
0.0704812
0.0700739
0.0696176
0.0691867
0.0687795
0.0684423
0.0682032
0.0681026
0.0681734
0.0684472
0.0689478
0.0696921
0.0706883
0.0719367
0.0734295
0.0751518
0.0770825
0.0791943
0.0814551
0.0838267
0.0862681
0.0685035
0.0680135
0.0677293
0.0672772
0.0668628
0.0664012
0.0659663
0.0655605
0.0652312
0.0650087
0.0649343
0.065042
0.0653636
0.0659227
0.0667359
0.0678107
0.0691463
0.0707338
0.0725572
0.0745941
0.0768161
0.0791901
0.0816766
0.0842338
0.0653276
0.0648603
0.0645745
0.0641238
0.0637037
0.0632383
0.062801
0.0623979
0.0620779
0.0618731
0.061826
0.0619712
0.0623408
0.0629584
0.06384
0.0649923
0.0664135
0.0680938
0.0700159
0.0721564
0.0744856
0.0769696
0.0795678
0.0822374
0.0622068
0.0617637
0.0614774
0.0610298
0.0606056
0.0601381
0.0596999
0.0593011
0.0589917
0.0588058
0.0587868
0.0589701
0.0593878
0.0600635
0.0610127
0.0622412
0.0637463
0.065517
0.0675352
0.0697761
0.0722093
0.0747997
0.0775061
0.0802847
0.0591494
0.058732
0.0584464
0.0580036
0.057577
0.0571092
0.0566718
0.056279
0.0559816
0.0558159
0.0558258
0.0560475
0.0565133
0.0572466
0.0582621
0.0595652
0.061152
0.0630106
0.0651217
0.0674597
0.0699933
0.0726864
0.075497
0.0783806
0.0561634
0.0557732
0.0554894
0.0550533
0.054626
0.0541598
0.0537251
0.0533399
0.0530561
0.0529116
0.0529512
0.0532116
0.0537253
0.0545153
0.0555959
0.0569715
0.0586375
0.060581
0.0627817
0.0652131
0.067843
0.0706347
0.0735454
0.07653
0.0532564
0.0528945
0.0526139
0.0521862
0.0517602
0.0512977
0.0508676
0.0504918
0.050223
0.0501009
0.0501708
0.0504702
0.0510313
0.051877
0.0530209
0.0544668
0.0562092
0.0582343
0.0605208
0.0630416
0.0657637
0.0686496
0.0716561
0.0747373
0.0504353
0.0501026
0.0498265
0.0494092
0.0489866
0.0485298
0.0481063
0.0477419
0.0474896
0.047391
0.0474919
0.0478301
0.048438
0.0493381
0.0505434
0.052057
0.0538726
0.0559757
0.0583441
0.06095
0.0637597
0.0667354
0.0698329
0.0730064
0.0477061
0.0474037
0.0471335
0.0467284
0.0463111
0.0458624
0.0454477
0.0450965
0.0448623
0.0447882
0.0449206
0.0452975
0.0459513
0.0469042
0.0481687
0.0497471
0.0516326
0.0538097
0.0562558
0.0589423
0.061835
0.0648955
0.0680796
0.0713405
0.0450745
0.0448029
0.0445399
0.044149
0.0437393
0.0433009
0.0428972
0.0425611
0.0423466
0.0422981
0.0424622
0.0428776
0.0435763
0.0445801
0.0459013
0.0475415
0.0494931
0.0517402
0.0542594
0.0570218
0.0599926
0.0631332
0.0663988
0.0697426
0.042545
0.0423046
0.0420503
0.0416754
0.0412756
0.0408499
0.0404594
0.0401404
0.039947
0.039925
0.0401213
0.0405746
0.0413168
0.0423697
0.0437448
0.0454433
0.0474573
0.04977
0.0523577
0.0551911
0.0582351
0.0614507
0.064793
0.0682149
0.0401213
0.0399124
0.0396681
0.0393111
0.0389234
0.0385127
0.0381377
0.0378378
0.0376671
0.0376724
0.0379009
0.0383915
0.0391759
0.0402755
0.0417016
0.043455
0.0455271
0.047901
0.0505525
0.0534519
0.056564
0.0598497
0.0632638
0.0667591
0.0378062
0.0376288
0.0373959
0.0370585
0.0366852
0.0362919
0.0359347
0.0356557
0.0355091
0.0355426
0.0358033
0.0363303
0.0371553
0.0382992
0.0397732
0.0415777
0.0437038
0.0461342
0.0488446
0.0518051
0.0549803
0.058331
0.061812
0.065376
0.0356013
0.0354552
0.035235
0.034919
0.0345623
0.0341887
0.0338515
0.0335954
0.0334742
0.0335365
0.0338293
0.0343919
0.0352555