/*--------------------------------*- C++ -*----------------------------------*\
| =========                 |                                                 |
| \\      /  F ield         | OpenFOAM Extend Project: Open source CFD        |
|  \\    /   O peration     | Version:  1.6-ext                               |
|   \\  /    A nd           | Web:      www.extend-project.de                 |
|    \\/     M anipulation  |                                                 |
\*---------------------------------------------------------------------------*/
FoamFile
{
    version     2.0;
    format      ascii;
    class       surfaceScalarField;
    location    "1";
    object      phi;
}
// * * * * * * * * * * * * * * * * * * * * * * * * * * * * * * * * * * * * * //

dimensions      [0 3 -1 0 0 0 0];

internalField   nonuniform List<scalar> 
41420
(
-0.000127098
0.000396657
-0.000397417
0.000127858
-0.000125881
0.000377726
-0.000378943
-0.000124237
0.000359141
-0.000360785
-0.000122168
0.000340805
-0.000342874
-0.00011961
0.000322713
-0.000325271
-0.000116411
0.000304651
-0.00030785
-0.000112333
0.00028627
-0.000290348
-0.000107081
0.000267096
-0.000272348
-0.000100382
0.000246648
-0.000253347
-9.20824e-05
0.000224582
-0.000232881
-8.22392e-05
0.000200846
-0.000210689
-7.11639e-05
0.000175768
-0.000186843
-5.93879e-05
0.000150036
-0.000161812
-4.75706e-05
0.00012457
-0.000136388
-3.63689e-05
0.000100337
-0.000111539
-2.63309e-05
7.81664e-05
-8.82044e-05
-1.78265e-05
5.86312e-05
-6.71357e-05
-1.10381e-05
4.20144e-05
-4.88028e-05
-5.98604e-06
2.83357e-05
-3.33877e-05
-2.57522e-06
1.74172e-05
-2.0828e-05
-6.43418e-07
8.9579e-06
-1.08897e-05
2.60034e-06
-3.24376e-06
-0.000134923
0.000395723
0.000135858
-0.000133508
0.00037631
-0.000131628
0.000357261
-0.000129247
0.000338424
-0.000126251
0.000319716
-0.000122425
0.000300826
-0.000117483
0.000281328
-0.000111123
0.000260736
-0.000103124
0.000238649
-9.34516e-05
0.000214909
-8.23199e-05
0.000189714
-7.01935e-05
0.000163641
-5.77113e-05
0.000137553
-4.55631e-05
0.000112422
-3.43658e-05
8.91402e-05
-2.45753e-05
6.8376e-05
-1.64545e-05
5.05104e-05
-1.00864e-05
3.56464e-05
-5.41679e-06
2.3666e-05
-2.304e-06
1.43044e-05
-5.63102e-07
7.21701e-06
2.03723e-06
-0.000149813
0.000394113
0.000151423
-0.000147697
0.000374193
-0.000145062
0.000354627
-0.000141818
0.00033518
-0.00013778
0.000315679
-0.00013267
0.000295715
-0.000126164
0.000274822
-0.000117988
0.000252561
-0.000108028
0.000228689
-9.64134e-05
0.000203295
-8.35483e-05
0.000176849
-7.00543e-05
0.000150147
-5.66537e-05
0.000124153
-4.40335e-05
9.9802e-05
-3.27367e-05
7.78433e-05
-2.31079e-05
5.87471e-05
-1.52932e-05
4.26957e-05
-9.27732e-06
2.96305e-05
-4.93467e-06
1.93234e-05
-2.07893e-06
1.14487e-05
-5.02049e-07
5.64013e-06
1.53519e-06
-0.000164102
0.000391853
0.000166363
-0.000161282
0.000371373
-0.000157844
0.000351189
-0.000153621
0.000330957
-0.000148352
0.00031041
-0.000141704
0.000289067
-0.000133362
0.000266479
-0.000123138
0.000242337
-0.000111085
0.000216636
-9.75402e-05
0.00018975
-8.30995e-05
0.000162408
-6.85059e-05
0.000135554
-5.45078e-05
0.000110155
-4.17314e-05
8.70256e-05
-3.0605e-05
6.6717e-05
-2.13431e-05
4.94851e-05
-1.39753e-05
3.5328e-05
-8.3984e-06
2.40536e-05
-4.4295e-06
1.53545e-05
-1.85131e-06
8.87047e-06
-4.43137e-07
4.23196e-06
1.09205e-06
-0.000177068
0.000388986
0.000179934
-0.000173545
0.00036785
-0.000169238
0.000346881
-0.000163891
0.00032561
-0.000157171
0.00030369
-0.000148727
0.000280623
-0.000138314
0.000256066
-0.000125907
0.000229931
-0.000111781
0.000202509
-9.64952e-05
0.000174465
-8.08049e-05
0.000146718
-6.55111e-05
0.00012026
-5.13181e-05
9.59616e-05
-3.87376e-05
7.4445e-05
-2.80551e-05
5.60345e-05
-1.93512e-05
4.07812e-05
-1.25505e-05
2.85273e-05
-7.4793e-06
1.89824e-05
-3.9154e-06
1.17906e-05
-1.62493e-06
6.58001e-06
-3.85859e-07
2.99289e-06
7.0619e-07
-0.000188624
0.000385535
0.000192076
-0.000184349
0.000363575
-0.000179028
0.000341561
-0.000172322
0.000318904
-0.000163862
0.000295229
-0.000153343
0.000270104
-0.000140674
0.000243397
-0.000126063
0.000215319
-0.000110033
0.000186479
-9.33431e-05
0.000157775
-7.68399e-05
0.000130215
-6.13017e-05
0.000104722
-4.7322e-05
8.1982e-05
-3.52595e-05
6.23825e-05
-2.52484e-05
4.60234e-05
-1.72458e-05
3.27785e-05
-1.1091e-05
2.23726e-05
-6.56117e-06
1.44525e-05
-3.4122e-06
8.64162e-06
-1.40722e-06
4.57503e-06
-3.31695e-07
1.91736e-06
3.74495e-07
-0.00019855
0.00038145
0.000202635
-0.000193384
0.000358409
-0.000186818
0.000334995
-0.000178448
0.000310534
-0.000167935
0.000284717
-0.000155118
0.000257286
-0.000140139
0.000228418
-0.000123481
0.000198661
-0.000105901
0.0001689
-8.82881e-05
0.000140161
-7.14888e-05
0.000113416
-5.6178e-05
8.94109e-05
-4.27887e-05
6.85927e-05
-3.1512e-05
5.11058e-05
-2.23404e-05
3.68519e-05
-1.51301e-05
2.55682e-05
-9.65983e-06
1.69023e-05
-5.67845e-06
1.04711e-05
-2.93636e-06
5.89952e-06
-1.20426e-06
2.84293e-06
-2.81909e-07
9.95011e-07
9.2586e-08
-0.000206617
0.000376633
0.000211434
-0.000200339
0.00035213
-0.000192212
0.000326869
-0.000181839
0.000300161
-0.000169003
0.000271881
-0.000153786
0.000242068
-0.000136628
0.00021126
-0.000118281
0.000180314
-9.96677e-05
0.000150287
-8.17039e-05
0.000122198
-6.51427e-05
9.68544e-05
-5.0492e-05
7.47602e-05
-3.80017e-05
5.61024e-05
-2.77032e-05
4.08073e-05
-1.94723e-05
2.8621e-05
-1.30926e-05
1.91885e-05
-8.30783e-06
1.21176e-05
-4.85772e-06
7.02102e-06
-2.49981e-06
3.54161e-06
-1.02027e-06
1.36339e-06
-2.37312e-07
2.12057e-07
-1.44726e-07
-0.000212435
0.00037084
0.000218228
-0.000204722
0.000344417
-0.000194678
0.000316825
-0.000182011
0.000287494
-0.000166737
0.000256608
-0.000149246
0.000224577
-0.000130283
0.000192297
-0.000110803
0.000160834
-9.17866e-05
0.000131271
-7.40683e-05
0.000104479
-5.82336e-05
8.10197e-05
-4.45935e-05
6.112e-05
-3.322e-05
4.4729e-05
-2.40111e-05
3.15984e-05
-1.67578e-05
2.13677e-05
-1.12012e-05
1.36318e-05
-7.07227e-06
7.98869e-06
-4.11731e-06
4.06606e-06
-2.11027e-06
1.53456e-06
-8.57661e-07
1.10789e-07
-1.98278e-07
-4.47327e-07
-3.43004e-07
-0.000215633
0.00036382
0.000222653
-0.000206137
0.000334921
-0.000193863
0.000304551
-0.000178745
0.000272375
-0.000161128
0.000238992
-0.000141736
0.000205185
-0.000121551
0.000172111
-0.000101617
0.000140901
-8.2851e-05
0.000112505
-6.59186e-05
8.75469e-05
-5.11977e-05
6.62988e-05
-3.88059e-05
4.87282e-05
-2.8666e-05
3.45891e-05
-2.05785e-05
2.35109e-05
-1.42833e-05
1.50724e-05
-9.50448e-06
8.85305e-06
-5.97863e-06
4.46284e-06
-3.46923e-06
1.55665e-06
-1.77254e-06
-1.62123e-07
-7.17886e-07
-9.43868e-07
-1.65018e-07
-1.00019e-06
-5.08022e-07
-0.000215662
0.000355116
0.000224366
-0.00020404
0.000323299
-0.000189367
0.000289878
-0.000171901
0.000254909
-0.000152336
0.000219427
-0.000131672
0.000184521
-0.000111011
0.00015145
-9.13501e-05
0.00012124
-7.34419e-05
9.4597e-05
-5.77346e-05
7.18396e-05
-4.43961e-05
5.29603e-05
-3.33807e-05
3.77127e-05
-2.45026e-05
2.5711e-05
-1.75039e-05
1.65122e-05
-1.2104e-05
9.67258e-06
-8.03139e-06
4.78041e-06
-5.04049e-06
1.47194e-06
-2.91898e-06
-5.64855e-07
-1.48831e-06
-1.5928e-06
-6.01118e-07
-1.83106e-06
-1.374e-07
-1.46391e-06
-6.45422e-07
-0.000212414
0.00034458
0.00022295
-0.000198514
0.000309399
-0.000181504
0.000272867
-0.00016204
0.000235446
-0.000141126
0.000198513
-0.000119926
0.000163321
-9.95246e-05
0.000131048
-8.07634e-05
0.000102479
-6.41675e-05
7.80011e-05
-4.99622e-05
5.76343e-05
-3.8134e-05
4.11321e-05
-2.85138e-05
2.80926e-05
-2.08487e-05
1.80458e-05
-1.48555e-05
1.05191e-05
-1.0257e-05
5.07403e-06
-6.80042e-06
1.32384e-06
-4.26646e-06
-1.06202e-06
-2.47026e-06
-2.36106e-06
-1.25905e-06
-2.804e-06
-5.07967e-07
-2.58214e-06
-1.15672e-07
-1.85621e-06
-7.61095e-07
-0.00020536
0.000331711
0.000218228
-0.000189219
0.000293258
-0.000170256
0.000253903
-0.000149466
0.000214656
-0.000128036
0.000177083
-0.000107141
0.000142425
-8.77142e-05
0.000111621
-7.03746e-05
8.51391e-05
-5.54125e-05
6.3039e-05
-4.28578e-05
4.50796e-05
-3.25641e-05
3.08383e-05
-2.42855e-05
1.9814e-05
-1.77391e-05
1.14994e-05
-1.26435e-05
5.42348e-06
-8.74071e-06
1.17126e-06
-5.80633e-06
-1.61054e-06
-3.65116e-06
-3.2172e-06
-2.11896e-06
-3.89325e-06
-1.08217e-06
-3.8408e-06
-4.37011e-07
-3.2273e-06
-9.92277e-08
-2.19399e-06
-8.60322e-07
-0.000195119
0.000317051
0.00020978
-0.00017714
0.000275279
-0.000156794
0.000233557
-0.00013544
0.000193301
-0.000114271
0.000155915
-9.43602e-05
0.000122514
-7.6412e-05
9.36733e-05
-6.07957e-05
6.95228e-05
-4.75921e-05
4.98355e-05
-3.66828e-05
3.41703e-05
-2.78359e-05
2.19915e-05
-2.07714e-05
1.27495e-05
-1.52054e-05
5.93337e-06
-1.08755e-05
1.09361e-06
-7.55276e-06
-2.15148e-06
-5.04415e-06
-4.11915e-06
-3.19082e-06
-5.07053e-06
-1.86368e-06
-5.22038e-06
-9.58326e-07
-4.74616e-06
-3.89993e-07
-3.79563e-06
-8.95186e-08
-2.49447e-06
-9.49841e-07
-0.000181448
0.000300164
0.000198334
-0.000162233
0.000256065
-0.000141387
0.000212711
-0.000120373
0.000172287
-0.000100308
0.00013585
-8.20157e-05
0.000104222
-6.59415e-05
7.75991e-05
-5.2227e-05
5.58082e-05
-4.07959e-05
3.84044e-05
-3.14429e-05
2.48173e-05
-2.39022e-05
1.44508e-05
-1.78957e-05
6.74303e-06
-1.31615e-05
1.19912e-06
-9.46772e-06
-2.60016e-06
-6.61805e-06
-5.00115e-06
-4.45077e-06
-6.28644e-06
-2.83506e-06
-6.68624e-06
-1.66618e-06
-6.38926e-06
-8.60274e-07
-5.55206e-06
-3.49509e-07
-4.3064e-06
-7.83232e-08
-2.76565e-06
-1.02816e-06
-0.000342194
0.000243954
0.000398404
-0.00028677
0.000200641
-0.0002347
0.000160642
-0.000187817
0.000125403
-0.000147109
9.51421e-05
-0.000112891
7.00042e-05
-8.49089e-05
4.96172e-05
-6.25678e-05
3.34671e-05
-4.51044e-05
2.09411e-05
-3.17205e-05
1.14333e-05
-2.16619e-05
4.39218e-06
-1.42607e-05
-6.58242e-07
-8.9478e-06
-4.11375e-06
-5.25132e-06
-6.29664e-06
-2.78579e-06
-7.46668e-06
-1.2389e-06
-7.83333e-06
-3.58193e-07
-7.56695e-06
6.0662e-08
-6.80811e-06
1.83488e-07
-5.67489e-06
1.45147e-07
-4.26806e-06
5.48718e-08
-2.67538e-06
-9.73292e-07
-0.000283371
0.000185909
0.000341417
-0.000229989
0.000147258
-0.000182754
0.000113407
-0.000142329
8.49781e-05
-0.000108723
6.15359e-05
-8.14788e-05
4.27599e-05
-5.9871e-05
2.80094e-05
-4.3064e-05
1.666e-05
-3.02272e-05
8.10429e-06
-2.06003e-05
1.80643e-06
-1.35224e-05
-2.6857e-06
-8.43883e-06
-5.74181e-06
-4.89432e-06
-7.65826e-06
-2.52057e-06
-8.6704e-06
-1.02173e-06
-8.96551e-06
-1.60819e-07
-8.69425e-06
2.52141e-07
-7.97991e-06
3.69741e-07
-6.92571e-06
3.14723e-07
-5.61987e-06
1.85616e-07
-4.13895e-06
6.06103e-08
-2.55037e-06
-9.12682e-07
-0.000221307
0.000132068
0.000275147
-0.00017437
0.000100321
-0.000134827
7.38636e-05
-0.000102306
5.24578e-05
-7.61964e-05
3.5426e-05
-5.5637e-05
2.22005e-05
-3.97415e-05
1.21139e-05
-2.76602e-05
4.57879e-06
-1.86379e-05
-9.17976e-07
-1.20304e-05
-4.80115e-06
-7.30358e-06
-7.41249e-06
-4.02351e-06
-9.02188e-06
-1.84138e-06
-9.84038e-06
-4.78696e-07
-1.00331e-05
2.86353e-07
-9.73056e-06
6.30351e-07
-9.03824e-06
6.93988e-07
-8.04354e-06
5.89307e-07
-6.82103e-06
4.05251e-07
-5.43582e-06
2.11896e-07
-3.9456e-06
6.33699e-08
-2.40184e-06
-8.49312e-07
-0.000162799
8.63976e-05
0.00020847
-0.000124638
6.216e-05
-9.37058e-05
4.29314e-05
-6.90625e-05
2.78145e-05
-4.98318e-05
1.61953e-05
-3.50676e-05
7.43626e-06
-2.39256e-05
9.71881e-07
-1.56653e-05
-3.68153e-06
-9.66632e-06
-6.91691e-06
-5.4203e-06
-9.04717e-06
-2.51701e-06
-1.03158e-05
-6.28791e-07
-1.09101e-05
5.04715e-07
-1.09739e-05
1.09004e-06
-1.06184e-05
1.29098e-06
-9.9315e-06
1.2374e-06
-8.98466e-06
1.03218e-06
-7.83833e-06
7.56383e-07
-6.54523e-06
4.73148e-07
-5.15258e-06
2.30746e-07
-3.70319e-06
6.47983e-08
-2.2359e-06
-7.84514e-07
-0.000111729
5.04662e-05
0.00014766
-8.27757e-05
3.3207e-05
-6.00025e-05
2.01581e-05
-4.23587e-05
1.01708e-05
-2.89454e-05
2.7819e-06
-1.8919e-05
-2.59013e-06
-1.15723e-05
-6.37476e-06
-6.31609e-06
-8.93775e-06
-2.67205e-06
-1.0561e-05
-2.56578e-07
-1.14626e-05
1.23539e-06
-1.18077e-05
2.04546e-06
-1.17202e-05
2.36465e-06
-1.12931e-05
2.34398e-06
-1.05977e-05
2.10282e-06
-9.69033e-06
1.73536e-06
-8.61721e-06
1.31565e-06
-7.41861e-06
9.01069e-07
-6.13065e-06
5.3527e-07
-4.78678e-06
2.50106e-07
-3.41803e-06
6.73583e-08
-2.05315e-06
-7.17155e-07
-6.94557e-05
2.40634e-05
9.58584e-05
-4.88818e-05
1.26331e-05
-3.31272e-05
4.40354e-06
-2.12796e-05
-1.67677e-06
-1.25518e-05
-5.94591e-06
-6.27341e-06
-8.86856e-06
-1.89539e-06
-1.07528e-05
1.02558e-06
-1.18587e-05
2.84338e-06
-1.23788e-05
3.83862e-06
-1.24579e-05
4.23288e-06
-1.2202e-05
4.20096e-06
-1.16882e-05
3.88066e-06
-1.09728e-05
3.38063e-06
-1.00977e-05
2.78646e-06
-9.09616e-06
2.16528e-06
-7.99604e-06
1.56899e-06
-6.82232e-06
1.03712e-06
-5.59878e-06
5.98406e-07
-4.34807e-06
2.72665e-07
-3.09229e-06
7.16025e-08
-1.85209e-06
-6.45553e-07
-3.5648e-05
5.96792e-06
5.37435e-05
-2.20651e-05
-9.49769e-07
-1.20144e-05
-5.64711e-06
-4.77937e-06
-8.91183e-06
2.66354e-07
-1.09916e-05
3.62311e-06
-1.22253e-05
5.6962e-06
-1.28259e-05
6.8066e-06
-1.29691e-05
7.20806e-06
-1.27802e-05
7.1001e-06
-1.23499e-05
6.63942e-06
-1.17413e-05
5.94911e-06
-1.09979e-05
5.12602e-06
-1.01497e-05
4.2462e-06
-9.2179e-06
3.36938e-06
-8.21934e-06
2.54178e-06
-7.16843e-06
1.79884e-06
-6.07938e-06
1.16635e-06
-4.96629e-06
6.62392e-07
-3.84411e-06
2.97724e-07
-2.72762e-06
7.71965e-08
-1.63156e-06
-5.68356e-07
-9.21256e-06
-5.30991e-06
2.04904e-05
-1.20763e-06
-8.9547e-06
4.34074e-06
-1.11955e-05
7.97356e-06
-1.25447e-05
1.01593e-05
-1.31774e-05
1.12564e-05
-1.33224e-05
1.15518e-05
-1.31212e-05
1.12689e-05
-1.26862e-05
1.05825e-05
-1.20938e-05
9.62861e-06
-1.1396e-05
8.51328e-06
-1.0626e-05
7.31929e-06
-9.80394e-06
6.11129e-06
-8.94169e-06
4.94001e-06
-8.04662e-06
3.84476e-06
-7.12409e-06
2.856e-06
-6.17967e-06
1.99617e-06
-5.21956e-06
1.28151e-06
-4.25163e-06
7.21913e-07
-3.28451e-06
3.22483e-07
-2.32819e-06
8.31936e-08
-1.39227e-06
-4.85163e-07
1.08288e-05
-1.11844e-05
-4.95433e-06
1.45002e-05
-1.26261e-05
1.65774e-05
-1.32727e-05
1.74545e-05
-1.34217e-05
1.74641e-05
-1.3187e-05
1.68527e-05
-1.2711e-05
1.58131e-05
-1.20816e-05
1.44921e-05
-1.13652e-05
1.30024e-05
-1.06041e-05
1.14301e-05
-9.82368e-06
9.84128e-06
-9.0372e-06
8.28702e-06
-8.24969e-06
6.80688e-06
-7.46155e-06
5.43144e-06
-6.67118e-06
4.18451e-06
-5.87716e-06
3.08384e-06
-5.07901e-06
2.14268e-06
-4.2784e-06
1.36952e-06
-3.47847e-06
7.69368e-07
-2.68436e-06
3.43127e-07
-1.90195e-06
8.85637e-08
-1.13771e-06
-3.96599e-07
2.50916e-05
-1.29094e-05
-2.33666e-05
2.54957e-05
-1.30302e-05
2.49909e-05
-1.27678e-05
2.38455e-05
-1.22764e-05
2.22796e-05
-1.16211e-05
2.04505e-05
-1.08819e-05
1.84768e-05
-1.01079e-05
1.64451e-05
-9.33359e-06
1.44194e-05
-8.57845e-06
1.24469e-05
-7.85113e-06
1.05624e-05
-7.15271e-06
8.79229e-06
-6.47957e-06
7.15652e-06
-5.82578e-06
5.67049e-06
-5.18515e-06
4.34574e-06
-4.5524e-06
3.19104e-06
-3.92431e-06
2.21215e-06
-3.29951e-06
1.41279e-06
-2.6791e-06
7.93934e-07
-2.06551e-06
3.54784e-07
-1.4628e-06
9.19181e-08
-8.74841e-07
-3.04681e-07
3.37847e-05
-1.1639e-05
-3.50551e-05
3.18895e-05
-1.1135e-05
2.96171e-05
-1.04954e-05
2.71289e-05
-9.7882e-06
2.45526e-05
-9.04483e-06
2.19747e-05
-8.30399e-06
1.94555e-05
-7.58868e-06
1.70353e-05
-6.91341e-06
1.47408e-05
-6.28392e-06
1.25893e-05
-5.69968e-06
1.05925e-05
-5.15587e-06
8.75808e-06
-4.64518e-06
7.09184e-06
-4.15954e-06
5.59787e-06
-3.69118e-06
4.27931e-06
-3.23385e-06
3.13806e-06
-2.78306e-06
2.17526e-06
-2.33671e-06
1.39067e-06
-1.89452e-06
7.83437e-07
-1.45827e-06
3.51398e-07
-1.03076e-06
9.16026e-08
-6.15046e-07
-2.13079e-07
3.68291e-05
-8.51322e-06
-3.99549e-05
3.35859e-05
-7.89185e-06
3.03465e-05
-7.25592e-06
2.71863e-05
-6.62801e-06
2.41614e-05
-6.01994e-06
2.13042e-05
-5.44678e-06
1.8632e-05
-4.9165e-06
1.61513e-05
-4.43272e-06
1.38622e-05
-3.99487e-06
1.17615e-05
-3.59895e-06
9.84452e-06
-3.23888e-06
8.10684e-06
-2.9075e-06
6.54469e-06
-2.59739e-06
5.15526e-06
-2.30175e-06
3.93627e-06
-2.01485e-06
2.88587e-06
-1.73267e-06
2.00204e-06
-1.45287e-06
1.28269e-06
-1.17517e-06
7.25279e-07
-9.00866e-07
3.27334e-07
-6.32818e-07
8.62262e-08
-3.73938e-07
-1.26852e-07
3.40271e-05
-4.71095e-06
-3.78293e-05
3.04148e-05
-4.27964e-06
2.70266e-05
-3.86765e-06
2.3878e-05
-3.47941e-06
2.09764e-05
-3.11836e-06
1.83184e-05
-2.78875e-06
1.58939e-05
-2.49201e-06
1.36889e-05
-2.22777e-06
1.1688e-05
-1.99395e-06
9.87606e-06
-1.78701e-06
8.23983e-06
-1.60265e-06
6.76839e-06
-1.43607e-06
5.45348e-06
-1.28248e-06
4.28907e-06
-1.13734e-06
3.27099e-06
-9.96779e-07
2.39612e-06
-8.57791e-07
1.66181e-06
-7.18565e-07
1.06526e-06
-5.78625e-07
6.03502e-07
-4.39105e-07
2.73378e-07
-3.02694e-07
7.24058e-08
-1.72966e-07
-5.44466e-08
2.5219e-05
-1.45965e-06
-2.84703e-05
2.22498e-05
-1.31043e-06
1.95519e-05
-1.16982e-06
1.71119e-05
-1.03943e-06
1.49141e-05
-9.20548e-07
1.29396e-05
-8.14259e-07
1.11682e-05
-7.20537e-07
9.57924e-06
-6.38843e-07
8.15343e-06
-5.68134e-07
6.87345e-06
-5.0704e-07
5.72477e-06
-4.53969e-07
4.6959e-06
-4.07201e-07
3.7784e-06
-3.64974e-07
2.9666e-06
-3.25546e-07
2.25709e-06
-2.87272e-07
1.64801e-06
-2.48708e-07
1.13818e-06
-2.08735e-07
7.26316e-07
-1.6676e-07
4.10257e-07
-1.23047e-07
1.86588e-07
-7.90257e-08
5.08061e-08
-3.71846e-08
-3.64049e-09
1.03773e-05
-1.18382e-05
9.06601e-06
7.89583e-06
6.85646e-06
5.93632e-06
5.12276e-06
4.40316e-06
3.76543e-06
3.19856e-06
2.69287e-06
2.24031e-06
1.83454e-06
1.471e-06
1.14687e-06
8.60955e-07
6.13533e-07
4.05989e-07
2.40301e-07
1.1818e-07
3.99062e-08
3.26653e-09
0.000298221
2.54631e-05
1.28234e-06
-0.000324966
0.000272962
2.39459e-05
1.31257e-06
0.0002491
2.25261e-05
1.33655e-06
0.000226552
2.11929e-05
1.35421e-06
0.000205245
1.99419e-05
1.36592e-06
0.000185103
1.87693e-05
1.37209e-06
0.00016606
1.76705e-05
1.37314e-06
0.000148049
1.6641e-05
1.36948e-06
0.000131011
1.56762e-05
1.36153e-06
0.00011489
1.47717e-05
1.34963e-06
9.96342e-05
1.3922e-05
1.33398e-06
8.52008e-05
1.31191e-05
1.31424e-06
7.15628e-05
1.23489e-05
1.28909e-06
5.87208e-05
1.15864e-05
1.25554e-06
4.67186e-05
1.07933e-05
1.2089e-06
3.56555e-05
9.92014e-06
1.14297e-06
2.56906e-05
8.91333e-06
1.05149e-06
1.70333e-05
7.72792e-06
9.29379e-07
9.92106e-06
6.33799e-06
7.74295e-07
4.58843e-06
4.74529e-06
5.87338e-07
1.23519e-06
2.98016e-06
3.73077e-07
1.09639e-06
1.38807e-07
0.000297803
5.21312e-05
-0.000324471
0.000272614
4.91344e-05
0.000248812
4.63281e-05
0.000226317
4.36879e-05
0.000205054
4.12054e-05
0.00018495
3.88732e-05
0.000165938
3.66826e-05
0.000147954
3.46251e-05
0.000130938
3.26922e-05
0.000114834
3.08752e-05
9.95925e-05
2.91637e-05
8.517e-05
2.75416e-05
7.15401e-05
2.59788e-05
5.87039e-05
2.44227e-05
4.67055e-05
2.27917e-05
3.56451e-05
2.09805e-05
2.56824e-05
1.8876e-05
1.70273e-05
1.63831e-05
9.91709e-06
1.34482e-05
4.58659e-06
1.00758e-05
1.23471e-06
6.33204e-06
2.3311e-06
0.000296553
7.85966e-05
-0.000323019
0.00027154
7.41476e-05
0.000247888
6.99799e-05
0.000225524
6.60523e-05
0.000204375
6.23545e-05
0.000184371
5.88767e-05
0.000165447
5.56066e-05
0.00014754
5.2532e-05
0.000130592
4.96408e-05
0.000114547
4.69202e-05
9.93554e-05
4.43551e-05
8.49762e-05
4.19208e-05
7.13826e-05
3.95724e-05
5.85771e-05
3.72282e-05
4.6604e-05
3.47648e-05
3.55656e-05
3.2019e-05
2.56214e-05
2.88202e-05
1.69834e-05
2.50211e-05
9.88863e-06
2.05429e-05
4.57142e-06
1.5393e-05
1.22992e-06
9.67354e-06
3.56102e-06
0.000294808
0.000104752
-0.000320963
0.000270065
9.88907e-05
0.000246644
9.34017e-05
0.000224476
8.82196e-05
0.000203496
8.33349e-05
0.000183637
7.87356e-05
0.000164837
7.44065e-05
0.000147037
7.03326e-05
0.000130179
6.64984e-05
0.000114211
6.2888e-05
9.9085e-05
5.94812e-05
8.47598e-05
5.6246e-05
7.12111e-05
5.31211e-05
5.8441e-05
4.99983e-05
4.64974e-05
4.67084e-05
3.54812e-05
4.30351e-05
2.55575e-05
3.87439e-05
1.69362e-05
3.36424e-05
9.85805e-06
2.7621e-05
4.55525e-06
2.06958e-05
1.22466e-06
1.30041e-05
4.78568e-06
0.000292749
0.000130504
-0.000318501
0.000268353
0.000123286
0.000245226
0.00011653
0.000223309
0.000110137
0.000202541
0.000104102
0.000182864
9.84131e-05
0.000164218
9.30525e-05
0.000146547
8.80031e-05
0.000129799
8.32468e-05
0.000113922
7.87648e-05
9.88703e-05
7.45329e-05
8.46049e-05
7.05115e-05
7.11019e-05
6.6624e-05
5.83661e-05
6.27342e-05
4.64449e-05
5.86295e-05
3.54444e-05
5.40357e-05
2.55287e-05
4.86596e-05
1.69147e-05
4.22564e-05
9.84166e-06
3.46941e-05
4.54586e-06
2.59916e-05
1.22088e-06
1.63291e-05
6.00656e-06
0.000290773
0.000155795
-0.000316065
0.000266772
0.000147288
0.000243973
0.000139328
0.000222332
0.000131777
0.000201796
0.000124638
0.000182312
0.000117898
0.000163825
0.000111539
0.000146285
0.000105543
0.000129643
9.98897e-05
0.000113849
9.45581e-05
9.88611e-05
8.95211e-05
8.46417e-05
8.47308e-05
7.11679e-05
8.00979e-05
5.84466e-05
7.54554e-05
4.65258e-05
7.05504e-05
3.55155e-05
6.5046e-05
2.55826e-05
5.85926e-05
1.69494e-05
5.08896e-05
9.85971e-06
4.17838e-05
4.55153e-06
3.12998e-05
1.22157e-06
1.96591e-05
7.22813e-06
0.000289096
0.000180584
-0.000313885
0.000265517
0.000170866
0.000243065
0.00016178
0.000221711
0.000153132
0.000201409
0.00014494
0.000182114
0.000137193
0.00016378
0.000129873
0.000146361
0.000122962
0.00012981
0.00011644
0.000114084
0.000110284
9.9142e-05
0.000104463
8.49466e-05
9.89262e-05
7.14794e-05
9.3565e-05
5.87434e-05
8.81914e-05
4.67948e-05
8.2499e-05
3.57379e-05
7.61029e-05
2.57549e-05
6.85756e-05
1.70648e-05
5.95797e-05
9.92753e-06
4.89211e-05
4.58117e-06
3.66461e-05
1.22829e-06
2.30119e-05
8.45642e-06
0.000287897
0.000204844
-0.000312156
0.000264758
0.000194005
0.000242661
0.000183877
0.000221594
0.000174199
0.000201522
0.000165012
0.000182406
0.000156308
0.000164209
0.00014807
0.00014689
0.000140281
0.000130407
0.000132923
0.000114721
0.00012597
9.97929e-05
0.000119392
8.55907e-05
0.000113128
7.20914e-05
0.000107064
5.93072e-05
0.000100976
4.72836e-05
9.45226e-05
3.61439e-05
8.72426e-05
2.60586e-05
7.86609e-05
1.72758e-05
6.83625e-05
1.00477e-05
5.61492e-05
4.63626e-06
4.20575e-05
1.24102e-06
2.64072e-05
9.69744e-06
0.000287307
0.000228557
-0.000311021
0.000264609
0.000216704
0.000242858
0.000205628
0.00022206
0.000194997
0.000202194
0.000184878
0.000183234
0.000175268
0.000165148
0.000166156
0.000147901
0.000157528
0.000131459
0.000149365
0.000115784
0.000141645
0.000100842
0.000134334
8.65986e-05
0.000127372
7.3038e-05
0.000120625
6.01618e-05
0.000113852
4.80301e-05
0.000106654
3.67516e-05
9.85211e-05
2.65265e-05
8.88859e-05
1.75923e-05
7.72967e-05
1.02387e-05
6.35028e-05
4.72192e-06
4.75743e-05
1.26389e-06
2.98652e-05
1.09613e-05
0.000287366
0.000251712
-0.000310521
0.000265113
0.000238956
0.000243709
0.000227032
0.000223176
0.00021553
0.000203503
0.000204551
0.000184674
0.000194097
0.000166668
0.000184162
0.000149459
0.000174737
0.000133016
0.000165807
0.00011731
0.000157352
0.000102306
0.000149338
8.79785e-05
0.0001417
7.43039e-05
0.000134299
6.12935e-05
0.000126862
4.89952e-05
0.000118953
3.75384e-05
0.000109978
2.71138e-05
9.93105e-05
1.79951e-05
8.64154e-05
1.04694e-05
7.10285e-05
4.82691e-06
5.32168e-05
1.28802e-06
3.34041e-05
1.22494e-05
0.000288064
0.000274299
-0.000310651
0.000266235
0.000260785
0.000245146
0.000248121
0.000224843
0.000235834
0.000205331
0.000224063
0.000186608
0.00021282
0.000168659
0.000202111
0.000151464
0.000191932
0.000135
0.000182271
0.000119239
0.000173113
0.000104153
0.000164424
8.97135e-05
0.00015614
7.59019e-05
0.000148111
6.27204e-05
0.000140044
5.02252e-05
0.000131448
3.85373e-05
0.000121666
2.78729e-05
0.000109975
1.851e-05
9.57783e-05
1.07744e-05
7.87641e-05
4.9649e-06
5.90262e-05
1.32453e-06
3.70445e-05
1.35739e-05
0.000289422
0.000296288
-0.00031141
0.000268043
0.000282164
0.000247283
0.000268881
0.0002272
0.000255917
0.00020782
0.000243443
0.000189157
0.000231483
0.000171212
0.000220056
0.000153975
0.000209168
0.00013743
0.000198816
0.000121556
0.000188987
0.000106327
0.000179653
9.17178e-05
0.000170749
7.77084e-05
0.00016212
6.43041e-05
0.000153448
5.15556e-05
0.000144196
3.95972e-05
0.000133624
2.86508e-05
0.000120921
1.90251e-05
0.000105404
1.10613e-05
8.67279e-05
5.08663e-06
6.50009e-05
1.34984e-06
4.07812e-05
1.49237e-05
0.000291254
0.000317687
-0.000312653
0.00027025
0.000303168
0.000249772
0.000289359
0.000229887
0.000275802
0.000210632
0.000262698
0.00019203
0.000250085
0.00017409
0.000237995
0.000156812
0.000226447
0.000140184
0.000215444
0.000124193
0.000204979
0.000108816
0.00019503
9.40296e-05
0.000185535
7.98144e-05
0.000176336
6.61694e-05
0.000167093
5.31459e-05
0.00015722
4.08774e-05
0.000145893
2.96044e-05
0.000132194
1.96583e-05
0.00011535
1.14192e-05
9.4967e-05
5.24044e-06
7.11797e-05
1.38673e-06
4.4635e-05
1.63105e-05
0.000293453
0.000338281
-0.000314047
0.000272928
0.000323692
0.000252755
0.000309532
0.000233036
0.000295521
0.000213849
0.000281885
0.000195241
0.000268693
0.000177236
0.000256
0.000159846
0.000243836
0.000143071
0.000232219
0.000126899
0.00022115
0.000111316
0.000210614
9.6298e-05
0.000200553
8.18258e-05
0.000190808
6.78977e-05
0.000181021
5.4563e-05
0.000170554
4.19634e-05
0.000158492
3.03571e-05
0.000143801
2.01093e-05
0.000125598
1.16321e-05
0.000103444
5.30311e-06
7.75087e-05
1.38692e-06
4.85511e-05
1.76974e-05
0.000295952
0.000358139
-0.00031581
0.000275761
0.000343883
0.00025589
0.000329404
0.000236374
0.000315036
0.000217303
0.000300957
0.000198733
0.000287263
0.000180701
0.000274032
0.000163227
0.00026131
0.000146318
0.000249128
0.000129973
0.000237496
0.000114178
0.000226408
9.89144e-05
0.000215817
8.41587e-05
0.000205563
6.99066e-05
0.000195273
5.62084e-05
0.000184253
4.32155e-05
0.000171485
3.12108e-05
0.000155805
2.05947e-05
0.000136214
1.18219e-05
0.000112217
5.30594e-06
8.40247e-05
1.33219e-06
5.25249e-05
1.90296e-05
1.24499e-05
0.000360619
-1.49298e-05
9.90558e-06
0.000346427
7.47069e-06
0.000331839
5.05546e-06
0.000317451
2.66973e-06
0.000303342
3.08565e-07
0.000289624
-2.02694e-06
0.000276367
-4.33177e-06
0.000263615
-6.59872e-06
0.000251394
-8.81609e-06
0.000239713
-1.09579e-05
0.00022855
-1.29609e-05
0.00021782
-1.4691e-05
0.000207293
-1.59221e-05
0.000196505
-1.63596e-05
0.00018469
-1.57269e-05
0.000170853
-1.38929e-05
0.000153971
-1.09829e-05
0.000133304
-7.41921e-06
0.000108653
-3.8715e-06
8.0477e-05
-1.13913e-06
4.97925e-05
1.78904e-05
7.23222e-06
0.000363403
-1.00165e-05
4.58078e-06
0.000349079
1.96846e-06
0.000334451
-5.87275e-07
0.000320007
-3.07034e-06
0.000305825
-5.4807e-06
0.000292035
-7.81323e-06
0.0002787
-1.00628e-05
0.000265865
-1.2222e-05
0.000253554
-1.42764e-05
0.000241767
-1.61899e-05
0.000230464
-1.78786e-05
0.000219508
-1.9182e-05
0.000208597
-1.98568e-05
0.000197179
-1.96196e-05
0.000184453
-1.82418e-05
0.000169475
-1.56685e-05
0.000151398
-1.21053e-05
0.000129741
-8.03508e-06
0.000104583
-4.15152e-06
7.65934e-05
-1.23256e-06
4.68735e-05
1.66579e-05
1.95211e-06
0.000366405
-4.95385e-06
-8.10101e-07
0.000351841
-3.52416e-06
0.000337165
-6.13097e-06
0.000322614
-8.62864e-06
0.000308323
-1.10141e-05
0.00029442
-1.32827e-05
0.000280968
-1.54302e-05
0.000268012
-1.74485e-05
0.000255572
-1.93175e-05
0.000243636
-2.0986e-05
0.000232132
-2.23454e-05
0.000220868
-2.32076e-05
0.000209459
-2.33164e-05
0.000197288
-2.24058e-05
0.000183542
-2.03022e-05
0.000167371
-1.70301e-05
0.000148126
-1.28771e-05
0.000125588
-8.38349e-06
0.000100089
-4.2575e-06
7.24674e-05
-1.24375e-06
4.38598e-05
1.54141e-05
-3.33822e-06
0.000369521
2.21894e-07
-6.19838e-06
0.000354701
-8.96528e-06
0.000339932
-1.15829e-05
0.000325232
-1.40581e-05
0.000310798
-1.63854e-05
0.000296747
-1.85618e-05
0.000283145
-2.05836e-05
0.000270034
-2.24403e-05
0.000257429
-2.41026e-05
0.000245299
-2.54997e-05
0.000233529
-2.64951e-05
0.000221863
-2.68761e-05
0.00020984
-2.63823e-05
0.000196794
-2.47783e-05
0.000181938
-2.19568e-05
0.00016455
-1.80282e-05
0.000144197
-1.33593e-05
0.000120919
-8.53532e-06
9.52655e-05
-4.25939e-06
6.81915e-05
-1.22272e-06
4.08231e-05
1.41914e-05
-8.74409e-06
0.000372692
5.57334e-06
-1.16603e-05
0.000357617
-1.44291e-05
0.000342701
-1.70157e-05
0.000327818
-1.94298e-05
0.000313212
-2.16661e-05
0.000298984
-2.37237e-05
0.000285202
-2.55981e-05
0.000271908
-2.72735e-05
0.000259104
-2.87065e-05
0.000246732
-2.98028e-05
0.000234626
-3.03969e-05
0.000222457
-3.02572e-05
0.000209701
-2.91292e-05
0.000195666
-2.68217e-05
0.000179631
-2.33012e-05
0.000161029
-1.8766e-05
0.000139662
-1.36518e-05
0.000115805
-8.57387e-06
9.01876e-05
-4.2114e-06
6.3829e-05
-1.19074e-06
3.78025e-05
1.30007e-05
-1.44029e-05
0.000375876
1.1219e-05
-1.73301e-05
0.000360544
-2.00591e-05
0.00034543
-2.25783e-05
0.000330337
-2.4897e-05
0.000315531
-2.70127e-05
0.000301099
-2.89254e-05
0.000287115
-3.06285e-05
0.000273612
-3.20973e-05
0.000260573
-3.32701e-05
0.000247904
-3.40245e-05
0.00023538
-3.41684e-05
0.000222601
-3.34568e-05
0.000208989
-3.16558e-05
0.000193865
-2.86272e-05
0.000176602
-2.44221e-05
0.000156824
-1.93201e-05
0.00013456
-1.38186e-05
0.000110303
-8.54222e-06
8.49112e-05
-4.13602e-06
5.94228e-05
-1.15327e-06
3.48197e-05
1.18474e-05
-2.04652e-05
0.000379028
1.73128e-05
-2.33524e-05
0.000363432
-2.59996e-05
0.000348077
-2.84134e-05
0.000332751
-3.06023e-05
0.00031772
-3.2567e-05
0.000303064
-3.43076e-05
0.000288856
-3.5812e-05
0.000275116
-3.70427e-05
0.000261804
-3.79137e-05
0.000248775
-3.82735e-05
0.00023574
-3.7904e-05
0.000222231
-3.65599e-05
0.000207645
-3.40363e-05
0.000191342
-3.02661e-05
0.000172832
-2.53819e-05
0.00015194
-1.97478e-05
0.000128926
-1.39012e-05
0.000104457
-8.4694e-06
7.94795e-05
-4.04612e-06
5.49995e-05
-1.11426e-06
3.18878e-05
1.07332e-05
-2.71414e-05
0.000382107
2.4062e-05
-2.994e-05
0.00036623
-3.24641e-05
0.000350601
-3.47329e-05
0.00033502
-3.67551e-05
0.000319742
-3.85345e-05
0.000304844
-4.00689e-05
0.00029039
-4.13379e-05
0.000276385
-4.22846e-05
0.00026275
-4.27954e-05
0.000249286
-4.26866e-05
0.000235631
-4.1723e-05
0.000221268
-3.96657e-05
0.000205588
-3.63602e-05
0.000188036
-3.18115e-05
0.000168283
-2.62478e-05
0.000146376
-2.00979e-05
0.000122776
-1.39388e-05
9.82975e-05
-8.37552e-06
7.39162e-05
-3.95242e-06
5.05764e-05
-1.07556e-06
2.9011e-05
9.65759e-06
-3.46278e-05
0.000385064
3.16711e-05
-3.72846e-05
0.000368887
-3.96395e-05
0.000352956
-4.17194e-05
0.0003371
-4.35343e-05
0.000321557
-4.5089e-05
0.000306398
-4.63764e-05
0.000291677
-4.73621e-05
0.000277371
-4.79647e-05
0.000263353
-4.80371e-05