/*--------------------------------*- C++ -*----------------------------------*\
| =========                 |                                                 |
| \\      /  F ield         | OpenFOAM Extend Project: Open source CFD        |
|  \\    /   O peration     | Version:  1.6-ext                               |
|   \\  /    A nd           | Web:      www.extend-project.de                 |
|    \\/     M anipulation  |                                                 |
\*---------------------------------------------------------------------------*/
FoamFile
{
    version     2.0;
    format      ascii;
    class       volVectorField;
    location    "1";
    object      U;
}
// * * * * * * * * * * * * * * * * * * * * * * * * * * * * * * * * * * * * * //

dimensions      [0 1 -1 0 0 0 0];

internalField   nonuniform List<vector> 
20940
(
(1.8482 0.398189 5.71773e-21)
(1.88771 0.418213 -2.31994e-21)
(1.92511 0.437517 -7.73024e-22)
(1.95957 0.455054 1.0521e-20)
(1.99079 0.471033 7.44837e-21)
(2.01712 0.484329 7.66401e-22)
(2.03557 0.493831 0)
(2.04134 0.497591 -1.27863e-23)
(2.02804 0.493374 8.42806e-21)
(1.98859 0.478946 4.44585e-22)
(1.91676 0.45277 1.16047e-20)
(1.80899 0.414624 -2.52662e-20)
(1.66576 0.365946 0)
(1.49195 0.309734 1.61119e-23)
(1.29603 0.249997 9.14697e-21)
(1.08844 0.190996 -1.96e-20)
(0.879682 0.13653 1.01045e-20)
(0.67884 0.0894966 2.24467e-20)
(0.492707 0.0517034 -1.1779e-20)
(0.325571 0.0239199 -1.85913e-20)
(0.179445 0.00662222 1.28564e-20)
(0.0545386 0.000490755 0)
(1.87505 0.375001 -4.58732e-21)
(1.91327 0.393871 7.84986e-21)
(1.94908 0.411363 9.7437e-21)
(1.98135 0.427114 -1.63483e-20)
(2.00926 0.440784 0)
(2.0303 0.451169 9.70826e-21)
(2.04046 0.456853 -2.27699e-20)
(2.03399 0.4558 0)
(2.00414 0.445944 -1.69504e-20)
(1.94441 0.425606 -1.0957e-20)
(1.85035 0.394156 2.14144e-20)
(1.72106 0.352419 3.77515e-20)
(1.55997 0.302733 -1.40473e-20)
(1.3744 0.248557 0)
(1.1742 0.193805 0)
(0.969913 0.142142 -1.84478e-20)
(0.771096 0.0964797 -1.02897e-20)
(0.585302 0.0587648 -3.21844e-20)
(0.417673 0.0299698 -3.15674e-22)
(0.271043 0.0102405 2.96931e-20)
(0.146373 -0.000365291 0)
(0.04327 -0.00140781 -1.01114e-20)
(1.89967 0.351783 -1.2337e-20)
(1.93629 0.369569 2.26468e-22)
(1.96995 0.385354 -3.79112e-20)
(1.99918 0.399328 2.62724e-20)
(2.02236 0.410583 -2.89832e-20)
(2.03598 0.41783 1.39967e-21)
(2.035 0.41941 2.49543e-20)
(2.01303 0.413362 -2.5284e-20)
(1.96352 0.398001 -3.13511e-20)
(1.88137 0.372404 -3.77876e-20)
(1.76455 0.336918 -2.32379e-20)
(1.61515 0.29331 7.39055e-20)
(1.43937 0.244521 1.61781e-20)
(1.24633 0.1941 1.93778e-21)
(1.04642 0.145534 -6.5918e-20)
(0.849494 0.101709 1.84321e-20)
(0.663688 0.0646269 -2.01164e-20)
(0.49484 0.0353893 9.28665e-20)
(0.346482 0.0143024 -2.19031e-20)
(0.220167 0.0010586 -4.58435e-20)
(0.115989 -0.00457806 3.55701e-20)
(0.0331033 -0.00236002 1.01157e-20)
(1.92315 0.328906 0)
(1.95769 0.345677 3.27934e-20)
(1.98839 0.359791 -2.13332e-20)
(2.01324 0.371889 -2.02053e-21)
(2.02962 0.380489 0)
(2.03292 0.38425 0)
(2.01724 0.3814 0)
(1.97611 0.370261 -2.99958e-20)
(1.90399 0.349757 1.29802e-19)
(1.79798 0.319864 -7.23199e-20)
(1.65904 0.281876 -2.1574e-20)
(1.49227 0.238265 -4.90689e-20)
(1.30606 0.192218 1.06974e-19)
(1.11048 0.147011 -2.91469e-20)
(0.91553 0.105457 0)
(0.72976 0.0695829 -6.98471e-20)
(0.559554 0.040549 5.45028e-20)
(0.409006 0.0187603 -7.92984e-20)
(0.280184 0.00402978 -2.23551e-20)
(0.17357 -0.00424894 8.6525e-20)
(0.0885955 -0.00649117 5.72646e-20)
(0.0241036 -0.00256502 -3.76392e-20)
(1.94517 0.306446 0)
(1.97699 0.322196 3.54192e-20)
(2.00355 0.334589 -1.62079e-21)
(2.02213 0.344606 1.05335e-19)
(2.02892 0.350223 -6.56065e-20)
(2.01833 0.350144 3.7834e-20)
(1.98406 0.342669 0)
(1.92035 0.326643 0)
(1.82361 0.301777 -3.4161e-20)
(1.69385 0.268977 1.08818e-19)
(1.53521 0.230307 1.26115e-19)
(1.35532 0.188606 -1.86259e-19)
(1.16391 0.146925 1.52217e-19)
(0.970985 0.107979 -1.13671e-19)
(0.785384 0.0737853 3.06571e-20)
(0.613915 0.0455467 -6.67149e-20)
(0.461114 0.0237176 1.04763e-19)
(0.329461 0.00818408 -7.56827e-20)
(0.219795 -0.00156723 7.87606e-20)
(0.131776 -0.00630765 0)
(0.0643764 -0.0065389 0)
(0.0162733 -0.00218661 0)
(1.96525 0.284469 -2.9937e-20)
(1.99333 0.299142 3.3642e-21)
(2.01404 0.309668 -1.32988e-19)
(2.02373 0.317287 0)
(2.01739 0.319538 0)
(1.98885 0.315336 -4.15301e-20)
(1.93223 0.303286 4.55501e-20)
(1.84341 0.28297 5.47744e-20)
(1.72165 0.254967 3.30034e-20)
(1.57021 0.220989 -7.0334e-20)
(1.39606 0.183556 -1.23169e-19)
(1.20854 0.145494 2.24012e-19)
(1.01761 0.109398 -1.48279e-19)
(0.8323 0.0772557 2.76117e-20)
(0.659745 0.0502931 2.99675e-20)
(0.504839 0.0290096 0)
(0.370379 0.0133295 -3.4524e-20)
(0.257478 0.0027939 0)
(0.166026 -0.00329294 -3.70287e-20)
(0.095109 -0.00576377 7.98119e-20)
(0.0434274 -0.0051418 -1.02431e-19)
(0.00960945 -0.0013755 6.92069e-20)
(1.98292 0.262786 3.33943e-20)
(2.00569 0.276191 -7.63346e-20)
(2.01803 0.284576 9.03662e-20)
(2.01533 0.289426 5.74663e-20)
(1.99169 0.288003 0)
(1.94111 0.279645 -8.31312e-20)
(1.85912 0.263488 -5.54927e-21)
(1.74428 0.239973 5.1346e-20)
(1.59917 0.210466 0)
(1.43013 0.177212 0)
(1.24614 0.142815 -7.71667e-20)
(1.05708 0.109742 -4.4031e-20)
(0.872119 0.0799343 9.61657e-20)
(0.698652 0.0546275 -1.02693e-19)
(0.541858 0.0343582 0)
(0.404789 0.0190936 0)
(0.288759 0.00840539 0)
(0.193821 0.00164047 6.89676e-20)
(0.119201 -0.00196905 -3.48848e-20)
(0.0636357 -0.00324563 0)
(0.0257018 -0.00269397 2.01999e-20)
(0.00406538 -0.000267571 0)
(1.99668 0.241326 6.11403e-20)
(2.01185 0.253206 0)
(2.01247 0.259126 0)
(1.99325 0.260846 -1.17099e-19)
(1.94803 0.255612 6.63213e-20)
(1.87204 0.24341 8.28536e-20)
(1.76331 0.224066 -9.09125e-20)
(1.62377 0.198845 -1.62314e-19)
(1.45924 0.169665 5.88605e-20)
(1.27838 0.138942 0)
(1.09099 0.109003 7.6679e-20)
(0.906361 0.0817349 -8.22005e-20)
(0.732105 0.0583704 0)
(0.573633 0.0394763 4.88806e-20)
(0.434205 0.0250626 5.28216e-20)
(0.315288 0.0147416 0)
(0.217042 0.0078871 0)
(0.138777 0.00376689 0)
(0.0793114 0.00161652 1.39122e-19)
(0.0372107 0.000666829 -1.08697e-19)
(0.0110417 0.000452127 -7.59952e-20)
(-0.000436713 0.00101965 1.26758e-19)
(2.00521 0.219529 0)
(2.00947 0.229486 0)
(1.99419 0.232601 0)
(1.95394 0.231034 0)
(1.88338 0.222266 6.95032e-20)
(1.78015 0.207068 -8.04557e-20)
(1.64558 0.18596 -1.86319e-19)
(1.48504 0.160826 1.03561e-19)
(1.30691 0.133793 9.6135e-22)
(1.12093 0.107088 6.67745e-20)
(0.936532 0.0825225 -7.22768e-20)
(0.761514 0.0613234 1.60912e-19)
(0.601506 0.0440829 0)
(0.459937 0.0308536 -1.44812e-19)
(0.338396 0.0212943 -8.83708e-22)
(0.237113 0.0148193 0)
(0.155438 0.0107225 -5.81937e-20)
(0.0922187 0.00827164 0)
(0.0460698 0.00675073 -1.3333e-19)
(0.0155223 0.00546535 1.02891e-19)
(-0.000793106 0.00399584 0)
(-0.00399601 0.00238902 0)
(2.00505 0.197436 7.16249e-20)
(1.99448 0.205149 0)
(1.95888 0.205316 5.20678e-20)
(1.89373 0.200586 -1.18739e-19)
(1.79572 0.18894 -1.33225e-21)
(1.66584 0.171961 -2.84725e-22)
(1.50895 0.15072 9.12127e-20)
(1.33323 0.127392 -1.54958e-19)
(1.14842 0.103966 1.71821e-19)
(0.96409 0.082219 0)
(0.788259 0.0633472 0)
(0.626762 0.0479665 -7.8616e-20)
(0.483192 0.0361693 8.52896e-20)
(0.359235 0.027663 -2.29061e-19)
(0.255173 0.0219098 9.79326e-20)
(0.170367 0.0182445 5.33459e-20)
(0.103665 0.0159611 1.84164e-21)
(0.053681 0.0143733 0)
(0.0189765 0.0128359 0)
(-0.00186264 0.0107356 0)
(-0.0100997 0.00769821 0)
(-0.00672509 0.00376588 2.89646e-20)
(1.99438 0.174021 -7.08457e-20)
(1.96415 0.179224 0)
(1.90405 0.17656 0)
(1.81138 0.169314 6.12575e-20)
(1.686 0.156042 -6.76145e-20)
(1.53259 0.138932 -1.96059e-22)
(1.35902 0.119323 8.95039e-20)
(1.17511 0.0993302 1.01217e-19)
(0.990603 0.0805438 -1.13326e-19)
(0.813788 0.0641784 1.23183e-19)
(0.650726 0.0508545 0)
(0.505172 0.0407075 0)
(0.378905 0.0334947 -8.22392e-20)
(0.27224 0.0287308 1.32891e-19)
(0.184537 0.0258004 -4.84834e-20)
(0.11462 0.024039 5.20793e-20)
(0.0610817 0.022788 1.11762e-19)
(0.0224715 0.0214302 1.19496e-21)
(-0.00260244 0.0193982 -2.455e-19)
(-0.0154474 0.0161585 1.28229e-19)
(-0.0172038 0.0113795 0)
(-0.00874066 0.00509547 -2.90425e-20)
(1.96719 0.150384 0)
(1.9139 0.15317 0)
(1.82667 0.148206 0)
(1.70653 0.139361 0)
(1.55678 0.125774 0)
(1.38548 0.109987 1.56533e-19)
(1.20235 0.0933279 -8.83731e-20)
(1.01749 0.0775693 0)
(0.839474 0.0637888 -1.10304e-19)
(0.674672 0.0526501 2.41589e-19)
(0.527034 0.0443099 -1.31803e-19)
(0.398446 0.0385732 -1.46024e-19)
(0.289252 0.0350046 7.87566e-20)
(0.198798 0.0330383 -1.38812e-21)
(0.125872 0.0320563 9.17737e-20)
(0.0690289 0.0314393 -9.96047e-20)
(0.0267875 0.0305967 1.58834e-19)
(-0.00225576 0.0289867 1.12809e-19)
(-0.0193853 0.0261175 9.75548e-22)
(-0.0257773 0.0215298 -1.23907e-19)
(-0.0224486 0.0149314 3.19902e-20)
(-0.0101638 0.00634836 -1.108e-19)
(1.92518 0.124592 -7.68661e-20)
(1.84432 0.125316 9.00236e-20)
(1.72928 0.119064 -1.06098e-19)
(1.58373 0.110017 1.17368e-19)
(1.41462 0.0978324 1.37859e-19)
(1.23219 0.0849073 -1.53483e-19)
(1.04664 0.0723499 -8.73534e-20)
(0.867074 0.0614199 -5.3972e-22)
(0.700181 0.0527001 -1.07393e-19)
(0.550178 0.046406 1.16773e-19)
(0.419077 0.0423814 0)
(0.307264 0.0402452 0)
(0.214062 0.0394841 7.72289e-20)
(0.138215 0.0395294 -8.36848e-20)
(0.0782212 0.0398056 -4.4249e-20)
(0.0325566 0.0397591 0)
(-0.000212325 0.0388731 1.02753e-19)
(-0.0213772 0.0366783 5.46351e-20)
(-0.0320861 0.0327528 -2.29353e-19)
(-0.0333786 0.026705 2.10999e-19)
(-0.0261576 0.0182812 -1.57122e-19)
(-0.0111041 0.00750483 0)
(1.85832 0.100949 7.58315e-20)
(1.75259 0.100294 -8.87851e-20)
(1.61163 0.0935943 -1.06312e-19)
(1.4461 0.0853747 5.6903e-20)
(1.26468 0.0755074 -6.46688e-22)
(1.07867 0.066045 -7.69419e-20)
(0.897397 0.0577991 8.52873e-20)
(0.728172 0.0514802 8.55346e-22)
(0.575514 0.0472625 -1.04795e-19)
(0.441649 0.0450327 2.29091e-19)
(0.327032 0.0444458 -2.50786e-19)
(0.230986 0.0450352 1.36086e-19)
(0.152206 0.0462775 -2.23014e-19)
(0.0891315 0.0476386 2.39739e-19)
(0.0401806 0.0485998 -4.21981e-20)
(0.00387889 0.0486722 -4.60367e-20)
(-0.0210888 0.047404 0)
(-0.0358714 0.0443877 -5.32122e-20)
(-0.0414744 0.0392604 -5.50429e-20)
(-0.0388076 0.0316898 2.95401e-20)
(-0.0286733 0.0214585 0)
(-0.0116842 0.00858944 -2.60648e-20)
(1.78324 0.0738793 0)
(1.64716 0.0726456 -1.82696e-19)
(1.4847 0.0677788 1.01492e-19)
(1.30466 0.0616222 0)
(1.11758 0.0555935 0)
(0.93409 0.0505598 -3.87456e-22)
(0.761792 0.0470936 8.28104e-20)
(0.605743 0.0453567 0)
(0.468414 0.0452425 0)
(0.350403 0.0464616 0)
(0.25106 0.0486163 -6.07047e-20)
(0.169041 0.0512559 -1.33279e-19)
(0.102717 0.0539097 2.16006e-19)
(0.050428 0.0561082 -2.34177e-19)
(0.010632 0.0573961 1.68165e-19)
(-0.0180324 0.0573412 4.53882e-20)
(-0.0367359 0.0555419 0)
(-0.0464795 0.051636 0)
(-0.0481314 0.0453058 -1.81221e-22)
(-0.0424825 0.0362691 1.13045e-19)
(-0.0302475 0.024345 0)
(-0.011987 0.00956536 -5.15286e-20)
(1.63235 0.0538021 0)
(1.46628 0.0500324 9.60544e-20)
(1.2846 0.0472015 1.12653e-19)
(1.09828 0.0440993 1.27109e-19)
(0.916503 0.0423248 0)
(0.746803 0.0417699 -7.8715e-20)
(0.593652 0.0426329 8.73881e-20)
(0.459276 0.04472 9.68542e-20)
(0.344035 0.0477799 -1.05497e-19)
(0.247118 0.0514796 -5.71157e-22)
(0.167055 0.0554493 1.2613e-19)
(0.10212 0.0592975 0)
(0.0505802 0.0626217 0)
(0.010844 0.0650184 8.03465e-20)
(-0.0184771 0.0660922 0)
(-0.0385586 0.0654662 9.19016e-20)
(-0.050385 0.0627926 -9.70793e-20)
(-0.0547874 0.0577658 0)
(-0.0524868 0.050132 5.38702e-20)
(-0.0441483 0.0396874 -1.68892e-19)
(-0.0303893 0.0263269 2.91014e-20)
(-0.0117154 0.0101319 -2.56176e-20)
(1.37741 0.0314313 1.34374e-19)
(1.19413 0.030212 2.06357e-19)
(1.01189 0.0318394 -1.13565e-19)
(0.837732 0.0331548 -3.25143e-19)
(0.677757 0.0360395 0)
(0.535236 0.0395377 0)
(0.411437 0.0438168 0)
(0.306093 0.0485704 3.86248e-22)
(0.218009 0.0535916 -1.07324e-19)
(0.145518 0.0586139 -1.76378e-19)
(0.0868169 0.0633527 1.92346e-19)
(0.0401683 0.0674984 -6.91341e-20)
(0.00401547 0.0707242 0)
(-0.0229759 0.0726942 0)
(-0.0419179 0.0730753 -4.28852e-20)
(-0.0537262 0.0715515 -1.37718e-19)
(-0.0591575 0.0678379 9.7128e-20)
(-0.0588513 0.0616952 0)
(-0.0533687 0.0529408 0)
(-0.0432347 0.0414508 -5.57971e-20)
(-0.0289429 0.0271935 8.67924e-20)
(-0.0109079 0.010282 7.49586e-20)
(1.09253 0.018784 1.71802e-21)
(0.914803 0.0207133 -1.05681e-19)
(0.751299 0.0262999 0)
(0.602325 0.0309367 6.61744e-20)
(0.471677 0.0368264 7.41408e-20)
(0.359151 0.0427114 -8.27735e-20)
(0.264206 0.0488152 1.81554e-19)
(0.185289 0.0548526 -2.15436e-22)
(0.120654 0.0606837 2.18138e-19)
(0.0684802 0.0661055 5.96695e-20)
(0.0270787 0.0708983 -6.45452e-20)
(-0.0050435 0.0748118 -3.96267e-22)
(-0.0291516 0.0775722 0)
(-0.0462908 0.0788919 -1.61743e-19)
(-0.0573121 0.0784839 1.72762e-19)
(-0.0629073 0.0760772 4.6201e-20)
(-0.0636471 0.0714342 0)
(-0.0600161 0.064365 0)
(-0.052445 0.0547399 0)
(-0.0413403 0.0424926 0)
(-0.0270893 0.0276413 1.15165e-19)
(-0.0100278 0.0103138 -7.32176e-20)
(0.813637 0.012854 -1.44176e-19)
(0.657912 0.0186135 0)
(0.523098 0.0267855 0)
(0.404144 0.0337034 0)
(0.303535 0.0411339 -7.62198e-20)
(0.219033 0.0480904 -5.0456e-22)
(0.149416 0.0548013 -2.76337e-22)
(0.0927315 0.0610871 0)
(0.0472563 0.0668819 -5.56228e-20)
(0.0113567 0.0720495 0)
(-0.0163767 0.0764253 1.30694e-19)
(-0.0371367 0.0798031 -2.12225e-19)
(-0.0519048 0.0819458 1.51607e-19)
(-0.061476 0.0825971 4.11271e-20)
(-0.0664899 0.0814982 -4.35349e-20)
(-0.0674636 0.0784062 9.20972e-20)
(-0.0648234 0.0731113 -9.69537e-20)
(-0.0589328 0.0654525 0)
(-0.0501164 0.0553293 8.00345e-20)
(-0.0386801 0.0427069 1.37503e-22)
(-0.0249187 0.0276269 -2.27925e-19)
(-0.00909509 0.0102164 9.63217e-20)
(0.563517 0.0133166 -9.94679e-20)
(0.438049 0.0219843 1.12222e-19)
(0.334013 0.030981 0)
(0.244463 0.0388078 0)
(0.170881 0.0464204 0)
(0.1104 0.0533394 0)
(0.0617073 0.0597542 9.38609e-20)
(0.0229636 0.0655954 -1.02401e-19)
(-0.00729611 0.0708437 -2.23251e-22)
(-0.0304026 0.0754082 0)
(-0.0474635 0.0791561 -1.98059e-19)
(-0.0593968 0.0819074 1.41946e-19)
(-0.0669477 0.0834462 0)
(-0.0707147 0.083535 -9.39752e-23)
(-0.0711774 0.0819328 1.73656e-19)
(-0.068723 0.0784133 -9.1854e-20)
(-0.0636709 0.0727827 4.87378e-20)
(-0.056293 0.0648944 -1.01425e-19)
(-0.0468306 0.0546604 1.06105e-19)
(-0.0355078 0.0420568 -2.46387e-19)
(-0.0225421 0.0271272 1.1285e-19)
(-0.00813299 0.00997966 2.35608e-20)
(0.353589 0.01728 4.99782e-20)
(0.259323 0.0271571 -5.73839e-20)
(0.183429 0.0358289 0)
(0.119637 0.0434607 0)
(0.0685828 0.0504201 -7.8052e-20)
(0.0276393 0.056633 8.64026e-20)
(-0.00436455 0.0622521 -9.4528e-20)
(-0.0289524 0.0672889 0)
(-0.0472882 0.0717494 -1.69749e-19)
(-0.0604069 0.0755709 6.13482e-20)
(-0.069157 0.0786398 -6.61482e-20)
(-0.0742357 0.0807926 0)
(-0.0762063 0.0818276 3.818e-20)
(-0.0755205 0.0815208 -1.22903e-19)
(-0.0725406 0.0796432 8.68265e-20)
(-0.0675594 0.0759791 9.19162e-20)
(-0.0608181 0.0703432 -1.44676e-19)
(-0.0525211 0.0625933 7.58704e-20)
(-0.0428463 0.0526416 -5.25662e-20)
(-0.0319535 0.0404607 1.09018e-19)
(-0.0200009 0.0260794 2.78038e-20)
(-0.00714038 0.0095723 8.15014e-20)
(0.185161 0.0221445 0)
(0.118701 0.0315711 -5.75948e-20)
(0.0665235 0.0392518 6.44959e-20)
(0.0239358 0.0459764 -7.11609e-20)
(-0.00904197 0.0518541 -5.05528e-23)
(-0.0344831 0.0570296 8.68242e-20)
(-0.0533699 0.0616373 4.80227e-20)
(-0.0668832 0.0657355 -1.56363e-19)
(-0.0759207 0.0693426 0)
(-0.0812687 0.0724123 6.18685e-20)
(-0.0835689 0.0748436 1.32974e-22)
(-0.0833471 0.0764855 -1.15856e-22)
(-0.0810285 0.0771491 3.82227e-20)
(-0.0769552 0.076623 8.19396e-20)
(-0.0714032 0.0746901 -1.73766e-19)
(-0.0645964 0.0711441 1.83434e-19)
(-0.0567201 0.0658051 -9.62914e-20)
(-0.0479304 0.0585317 -5.0291e-20)
(-0.0383601 0.0492298 7.82369e-20)
(-0.0281221 0.0378603 2.71193e-20)
(-0.0173342 0.0244276 -2.7852e-20)
(-0.00612009 0.00896411 -1.15713e-20)
(0.054515 0.0258714 -5.17856e-20)
(0.0110043 0.0337602 5.83222e-20)
(-0.0220048 0.040073 3.85141e-22)
(-0.0477121 0.0455452 -7.17361e-20)
(-0.0664647 0.0502002 0)
(-0.0797843 0.0542512 8.77729e-20)
(-0.0884717 0.0578226 -4.77853e-20)
(-0.0934099 0.0609921 5.2657e-20)
(-0.095278 0.0637841 -5.70299e-20)
(-0.0946616 0.0661627 6.20387e-20)
(-0.0920391 0.0680379 -1.00453e-19)
(-0.0878023 0.0692722 7.1872e-20)
(-0.0822694 0.0696914 0)
(-0.0756989 0.0690998 0)
(-0.0683018 0.0672947 0)
(-0.0602518 0.0640823 0)
(-0.0516944 0.0592902 -2.39276e-20)
(-0.0427532 0.052778 7.49994e-20)
(-0.0335316 0.044446 -1.29791e-19)
(-0.0241121 0.0342409 1.07091e-19)
(-0.0145909 0.0221403 -1.09916e-19)
(-0.00508331 0.00813345 1.13028e-20)
(-0.0430952 0.0273013 5.19682e-20)
(-0.0683792 0.0332401 -1.23212e-22)
(-0.0862715 0.038029 6.53562e-20)
(-0.0988514 0.0421491 -7.25549e-20)
(-0.106619 0.045598 7.97924e-20)
(-0.110652 0.0485717 4.42999e-20)
(-0.111585 0.0511814 3.07203e-22)
(-0.110059 0.0535052 -2.63673e-19)
(-0.106573 0.0555688 1.72233e-19)
(-0.101552 0.057344 6.22541e-20)
(-0.095341 0.0587526 -6.42967e-23)
(-0.088225 0.0596725 8.21124e-23)
(-0.0804369 0.0599483 -7.70243e-20)
(-0.0721692 0.0594041 -8.20112e-20)
(-0.0635828 0.0578568 6.51371e-20)
(-0.0548141 0.0551297 0)
(-0.0459808 0.0510634 2.40245e-20)
(-0.0371857 0.0455245 -9.97439e-20)
(-0.0285155 0.038412 2.32667e-19)
(-0.0200372 0.0296638 -1.3644e-22)
(-0.0118415 0.0192347 -1.09115e-19)
(-0.00405317 0.00707699 -8.98464e-20)
(-0.111272 0.0260155 -5.26712e-20)
(-0.122493 0.0300717 1.17966e-19)
(-0.128801 0.0333905 -1.30944e-19)
(-0.131508 0.036231 7.24404e-20)
(-0.131109 0.0385871 -1.20565e-19)
(-0.128345 0.0406065 2.21142e-19)
(-0.123692 0.0423807 -1.45356e-19)
(-0.117597 0.0439772 1.05952e-19)
(-0.110408 0.0454195 5.76613e-20)
(-0.102416 0.0466856 -3.11838e-20)
(-0.0938582 0.0477102 3.36093e-20)
(-0.0849314 0.0483896 -7.21793e-20)
(-0.0757993 0.0485909 0)
(-0.0666018 0.0481624 2.04785e-20)
(-0.0574603 0.0469458 -6.50384e-20)
(-0.0484826 0.0447873 1.96095e-23)
(-0.0397666 0.0415474 9.56064e-20)
(-0.0314023 0.0371072 9.94377e-20)
(-0.0234683 0.0313749 -1.03019e-19)
(-0.0160269 0.0242886 1.32171e-20)
(-0.009176 0.0157925 0)
(-0.00306312 0.00581583 -1.00041e-19)
(-0.151948 0.0222525 5.29949e-20)
(-0.152866 0.0247397 -5.87027e-20)
(-0.150821 0.0267998 0)
(-0.146617 0.0285498 -7.31153e-20)
(-0.14065 0.0299902 2.01371e-19)
(-0.133402 0.0312206 -4.42644e-20)
(-0.1252 0.0323101 -4.87314e-20)
(-0.116329 0.0333112 7.95841e-20)
(-0.107014 0.0342433 0)
(-0.097433 0.0350901 -3.13361e-20)
(-0.0877356 0.0358003 -1.01195e-19)
(-0.078046 0.0362915 7.23364e-20)
(-0.0684725 0.0364562 0)
(-0.0591127 0.0361708 -4.10846e-20)
(-0.0500572 0.0353054 2.16904e-20)
(-0.0413914 0.0337339 9.1289e-20)
(-0.0331978 0.0313423 -9.55249e-20)
(-0.0255572 0.0280347 0)
(-0.0185441 0.0237381 -1.02626e-19)
(-0.0122212 0.018405 1.9794e-19)
(-0.00669901 0.0119855 -1.08034e-19)
(-0.00215474 0.00440692 0)
(-0.165731 0.0166448 2.62093e-20)
(-0.159975 0.0179647 0)
(-0.152728 0.0190649 0)
(-0.144471 0.0199824 1.47552e-22)
(-0.135455 0.0207274 -8.079e-20)
(-0.125967 0.0213614 0)
(-0.116199 0.0219329 -2.43929e-20)
(-0.10631 0.0224789 5.88811e-23)
(-0.0964162 0.0230139 -5.78897e-20)
(-0.0866121 0.0235277 0)
(-0.076974 0.0239842 3.38536e-20)
(-0.0675698 0.0243238 -5.44613e-20)
(-0.0584644 0.0244672 7.74331e-20)
(-0.049723 0.0243213 2.05883e-20)
(-0.0414123 0.0237872 -1.08859e-20)
(-0.0336005 0.0227681 0)
(-0.0263576 0.0211781 0)
(-0.0197553 0.0189481 1.24123e-20)
(-0.0138625 0.0160319 5.12637e-20)
(-0.00874035 0.0124086 6.48975e-21)
(-0.00450808 0.00805537 -5.39058e-20)
(-0.00136818 0.0029298 0)
(-0.152641 0.0103066 5.30457e-20)
(-0.143871 0.010866 0)
(-0.134608 0.0113295 3.31655e-20)
(-0.125138 0.0116951 -3.66356e-20)
(-0.115575 0.0119793 4.04379e-20)
(-0.106063 0.0122173 4.47707e-20)
(-0.0966857 0.0124393 -1.21317e-20)
(-0.0875071 0.0126686 8.03531e-20)
(-0.0785666 0.0129157 -5.80975e-20)
(-0.0698927 0.0131761 -1.57512e-20)
(-0.0615093 0.0134295 0)
(-0.0534423 0.01364 -9.09796e-21)
(-0.0457243 0.0137576 -8.74496e-20)
(-0.038396 0.0137217 9.28108e-20)
(-0.0315063 0.0134649 3.26821e-20)
(-0.0251108 0.0129201 -1.85305e-23)
(-0.019269 0.0120269 -4.78562e-20)
(-0.0140432 0.0107402 3.72502e-20)
(-0.00949287 0.00903816 -4.49633e-20)
(-0.00567001 0.0069285 5.77911e-24)
(-0.00268515 0.00442824 -5.37902e-20)
(-0.000742292 0.00155258 4.66839e-20)
(-0.112649 0.00428392 -1.33125e-20)
(-0.104575 0.00443287 7.43231e-21)
(-0.0965129 0.00453969 0)
(-0.0886595 0.00460129 0)
(-0.0810252 0.00463432 0)
(-0.0736652 0.00465646 0)
(-0.0665934 0.00468195 -1.22882e-20)
(-0.0598147 0.00472166 0)
(-0.0533225 0.00478128 0)
(-0.0471067 0.00486061 1.5797e-20)
(-0.0411596 0.00495284 0)
(-0.03548 0.00504411 -4.56685e-20)
(-0.0300775 0.0051134 5.35701e-20)
(-0.0249735 0.00513285 -1.0339e-20)
(-0.0202017 0.00506892 4.3691e-20)
(-0.0158061 0.00488478 -4.58998e-20)
(-0.0118372 0.00454448 0)
(-0.00834871 0.00401946 0)
(-0.0053901 0.00329941 -6.42618e-21)
(-0.00299799 0.00240483 -3.29023e-21)
(-0.0012457 0.00138832 0)
(-0.000289211 0.000357291 -2.74166e-21)
(-0.0462328 0.000457166 1.31481e-20)
(-0.042481 0.000483084 -3.61292e-20)
(-0.0387848 0.00049649 0)
(-0.0352916 0.000497359 0)
(-0.0319775 0.000493123 -2.01132e-20)
(-0.0288567 0.000488304 2.1472e-20)
(-0.0259193 0.000486006 1.85598e-22)
(-0.023153 0.000488664 0)
(-0.0205411 0.000498043 0)
(-0.0180662 0.000515244 0)
(-0.0157127 0.000540512 0)
(-0.0134693 0.000572906 0)
(-0.0113307 0.000609858 3.2594e-20)
(-0.00929981 0.000646613 -3.95429e-20)
(-0.00738841 0.00067567 -4.07654e-23)
(-0.00561808 0.000686417 0)
(-0.00401964 0.000665375 -2.23408e-23)
(-0.00263184 0.000597865 4.7489e-20)
(-0.00149666 0.000472833 -9.81752e-20)
(-0.00064998 0.000291583 4.73361e-20)
(-0.000129047 7.92704e-05 5.15407e-20)
(1.68057e-05 -7.91206e-05 -4.24588e-20)
(1.13611 0.0230384 5.29989e-22)
(1.09003 0.0245911 4.59388e-22)
(1.04192 0.0261915 -4.27635e-20)
(0.991673 0.0278414 0)
(0.939383 0.0295464 0)
(0.885143 0.0313133 0)
(0.829044 0.0331449 -1.788e-20)
(0.771194 0.0350423 -9.80618e-24)
(0.711709 0.0370048 0)
(0.650721 0.0390301 -1.20791e-23)
(0.588373 0.0411104 -5.4594e-20)
(0.524832 0.0432242 -5.7543e-22)
(0.460314 0.0453131 1.59022e-20)
(0.395152 0.047248 -3.49386e-20)
(0.329898 0.048787 3.68556e-20)
(0.265455 0.0495526 3.95502e-20)
(0.203188 0.0490367 -4.13044e-20)
(0.144979 0.0466553 -1.07994e-20)
(0.0930919 0.0418318 1.12265e-20)
(0.0499262 0.0340973 -1.18334e-20)
(0.0187205 0.023147 2.39796e-20)
(0.00351185 0.00888615 0)
(1.14046 0.0790307 -9.55204e-20)
(1.09484 0.0846986 1.87562e-20)
(1.04733 0.0906412 -2.10243e-20)
(0.997661 0.0968286 0)
(0.94595 0.103254 0)
(0.892291 0.109921 0)
(0.836774 0.116828 1.78666e-20)
(0.779506 0.123967 3.9477e-20)
(0.720607 0.13133 0)
(0.660206 0.138904 0)
(0.598444 0.146655 2.70816e-20)
(0.535484 0.154498 0)
(0.471529 0.16221 4.75979e-20)
(0.40688 0.169306 6.91543e-20)
(0.342032 0.174901 -7.29505e-20)
(0.277796 0.177628 0)
(0.215418 0.175676 -8.23517e-20)
(0.156637 0.166986 9.6357e-20)
(0.103574 0.149552 7.83376e-20)
(0.0585027 0.121753 -1.03701e-19)
(0.0245744 0.0825642 2.3489e-20)
(0.00578543 0.0317038 -7.81417e-20)
(1.14909 0.135034 -6.20254e-20)
(1.10442 0.144834 0)
(1.05815 0.155042 4.24747e-20)
(1.00965 0.165649 0)
(0.95911 0.176645 -1.11444e-19)
(0.906633 0.188041 1.21953e-19)
(0.852306 0.199835 -7.08241e-20)
(0.79624 0.212021 3.75757e-20)
(0.738552 0.224586 8.56024e-20)
(0.679371 0.237507 0)
(0.618836 0.250732 0)
(0.557096 0.264112 0)
(0.494325 0.277268 9.41899e-20)
(0.430758 0.289366 -1.99265e-19)
(0.36677 0.298891 -1.79345e-19)
(0.302984 0.303497 3.41311e-19)
(0.240394 0.300097 -1.59473e-19)
(0.18045 0.285175 1.67964e-19)
(0.12498 0.255321 -1.73639e-19)
(0.0760095 0.207792 0)
(0.0365177 0.140864 -1.1672e-19)
(0.0104222 0.0540797 1.70888e-19)
(1.16106 0.188305 0)
(1.11792 0.202116 -7.27775e-20)
(1.0736 0.216449 1.60783e-19)
(1.02695 0.231356 1.87068e-19)
(0.978255 0.246815 -1.30649e-22)
(0.927618 0.262837 0)
(0.875131 0.279419 0)
(0.82091 0.296553 0)
(0.765075 0.31422 -8.53532e-20)
(0.707756 0.332389 9.10659e-20)
(0.649086 0.350987 -9.99131e-20)
(0.589199 0.369805 -5.44378e-20)
(0.528226 0.388306 0)
(0.466304 0.405321 -6.43926e-20)
(0.403627 0.418711 1.7262e-19)
(0.340537 0.425184 -1.08732e-19)
(0.277652 0.420399 -3.75632e-20)
(0.215987 0.39944 0)
(0.156933 0.357539 -4.07656e-20)
(0.102148 0.290891 0)
(0.0543511 0.197126 -1.7932e-19)
(0.0173432 0.0756494 -1.9411e-20)
(1.17634 0.238979 -4.62988e-21)
(1.13526 0.256672 4.09066e-19)
(1.09353 0.274931 -2.34673e-19)
(1.04933 0.293935 -9.14522e-20)
(1.00307 0.313639 -1.03943e-19)
(0.954877 0.334061 1.1718e-19)
(0.904832 0.3552 -1.18992e-21)
(0.85306 0.377045 1.41455e-19)
(0.799685 0.399576 0)
(0.744837 0.422755 -9.07347e-20)
(0.688646 0.446489 4.65403e-21)
(0.631224 0.470513 5.42635e-20)
(0.572645 0.494144 0)
(0.512915 0.515883 0)
(0.451992 0.532996 -6.37527e-20)
(0.389843 0.54127 7.13067e-20)
(0.326589 0.535166 3.75002e-20)
(0.262672 0.508414 -2.26814e-19)
(0.198911 0.45497 4.00387e-20)
(0.136484 0.370033 2.03171e-19)
(0.0777726 0.250656 0)
(0.0264268 0.0961436 3.36767e-20)
(1.1945 0.285767 -1.15148e-19)
(1.15601 0.307169 -1.32988e-19)
(1.11749 0.329117 0)
(1.07633 0.351985 0)
(1.03309 0.375697 0)
(0.987914 0.400271 -1.06483e-19)
(0.940887 0.425713 -1.25953e-19)
(0.892141 0.45201 -7.44055e-21)
(0.841804 0.479142 0)
(0.790006 0.507065 0)
(0.736872 0.53567 1.83491e-19)
(0.682491 0.564645 -2.01349e-19)
(0.626866 0.593164 3.18916e-19)
(0.569849 0.619423 0)
(0.511099 0.640119 2.51243e-19)
(0.450129 0.650162 -3.22194e-19)
(0.386443 0.642866 0)
(0.31978 0.610683 7.37015e-20)
(0.250259 0.546368 0)
(0.178474 0.444214 -3.46089e-19)
(0.106406 0.300771 3.13969e-19)
(0.0375216 0.115299 9.65045e-20)
(1.2151 0.328093 0)
(1.17971 0.352976 9.39151e-22)
(1.14495 0.378315 1.38799e-19)
(1.10734 0.404754 -1.63473e-19)
(1.06765 0.432173 3.56093e-19)
(1.02602 0.460596 1.05733e-19)
(0.982532 0.490033 1.11408e-19)
(0.937341 0.520473 -2.56422e-19)
(0.890577 0.551892 1.5011e-19)
(0.842371 0.584245 -3.10257e-19)
(0.792843 0.617409 -2.6085e-19)
(0.742054 0.651026 1.84586e-19)
(0.689928 0.684151 -1.03776e-19)
(0.636131 0.714692 -1.02541e-19)
(0.579978 0.738815 -4.95655e-20)
(0.520439 0.750608 6.23683e-20)
(0.456296 0.742296 -5.97053e-20)
(0.386454 0.705134 -2.61093e-19)
(0.310219 0.630761 2.06218e-19)
(0.227505 0.512656 -2.80313e-19)
(0.139833 0.346953 2.87324e-19)
(0.0504625 0.132924 0)
(1.23747 0.36526 1.921e-19)
(1.20567 0.393377 1.17333e-19)
(1.17519 0.421795 -2.56792e-19)
(1.14163 0.451482 1.44575e-19)
(1.10598 0.482264 -3.17438e-21)
(1.06838 0.514173 -1.88191e-19)
(1.02892 0.547229 -1.10475e-19)
(0.987765 0.581424 8.9684e-21)
(0.945051 0.616739 1.02724e-20)
(0.900916 0.65313 -2.90172e-19)
(0.855476 0.690467 -3.73511e-21)
(0.808765 0.72836 3.38468e-19)
(0.760623 0.765757 0)
(0.710512 0.800315 9.36417e-21)
(0.657359 0.827716 1.081e-19)
(0.599516 0.841272 -1.02372e-19)
(0.534939 0.8322 -1.66009e-19)
(0.461579 0.790624 1.79768e-19)
(0.377812 0.707164 -1.78477e-19)
(0.282792 0.574576 -5.94816e-20)
(0.177526 0.388676 5.17111e-19)
(0.065041 0.148812 1.18359e-21)
(1.26086 0.3967 3.57052e-19)
(1.23312 0.427724 -2.09254e-19)
(1.20732 0.458849 8.83589e-21)
(1.17821 0.49143 -3.08226e-21)
(1.147 0.525222 -3.03444e-19)
(1.11383 0.56027 0)
(1.07882 0.596595 -1.87078e-19)
(1.04214 0.634191 1.12962e-19)
(1.00393 0.673039 1.2472e-19)
(0.964335 0.713096 0)
(0.923466 0.754228 0)
(0.881329 0.79602 -1.45288e-19)
(0.837671 0.837337 -2.41549e-19)
(0.791735 0.875623 2.66267e-19)
(0.74202 0.906124 -1.82804e-19)
(0.686189 0.921455 2.94301e-19)
(0.62127 0.911886 -9.28003e-20)
(0.544151 0.866507 3.07798e-19)
(0.452168 0.775001 -2.1276e-19)
(0.343642 0.629508 8.06022e-21)
(0.219022 0.425623 5.2038e-20)
(0.0810795 0.162853 0)
(1.28437 0.422259 -1.28639e-20)
(1.26117 0.455905 -1.98801e-19)
(1.24049 0.489388 3.35189e-19)
(1.21623 0.524465 0)
(1.18986 0.560818 1.47913e-19)
(1.1615 0.598516 0)
(1.13128 0.637599 1.75223e-19)
(1.09939 0.678074 -2.73293e-21)
(1.066 0.719933 1.11486e-19)
(1.03127 0.763139 -1.10725e-19)
(0.995298 0.807565 0)
(0.95808 0.852787 -1.27402e-19)
(0.919278 0.897615 2.98855e-19)
(0.877912 0.939318 -3.03499e-19)
(0.832028 0.972772 3.21342e-19)
(0.778547 0.989949 -1.64358e-19)
(0.713477 0.980249 2.64666e-19)
(0.632524 0.931795 -4.75565e-20)
(0.531878 0.833427 4.09361e-20)
(0.408947 0.676769 5.03401e-20)
(0.263587 0.457317 -5.19652e-20)
(0.0982906 0.174855 0)
(1.30711 0.441452 -1.60127e-19)
(1.28881 0.477271 -1.71134e-19)
(1.27342 0.512725 -1.93266e-19)
(1.25425 0.549968 0)
(1.23299 0.588585 1.2908e-19)
(1.20974 0.628647 -1.41384e-19)
(1.18467 0.670194 -3.25283e-19)
(1.15797 0.713231 1.73109e-19)
(1.12982 0.757755 1.08166e-20)
(1.10038 0.803735 1.09384e-19)
(1.06975 0.85105 0)
(1.03792 0.899277 0)
(1.00445 0.947192 1.8305e-19)
(0.968144 0.991937 0)
(0.926558 1.02807 -6.21219e-20)
(0.875814 1.04702 -6.33403e-20)
(0.810811 1.03741 -1.40119e-19)
(0.725974 0.986476 1.46407e-19)
(0.616263 0.88234 -7.33394e-20)
(0.478128 0.716217 0)
(0.310812 0.483634 0)
(0.116511 0.184769 0)
(1.32816 0.455018 1.42226e-19)
(1.31535 0.492787 3.27732e-19)
(1.30565 0.529794 2.04025e-20)
(1.29188 0.568646 -2.02434e-19)
(1.27593 0.608887 1.1502e-19)
(1.25793 0.650635 -1.25995e-19)
(1.23809 0.693953 0)
(1.21664 0.738863 0)
(1.19377 0.785376 8.84493e-20)
(1.16968 0.833472 0)
(1.14448 0.883049 -1.89413e-19)
(1.11815 0.933705 1.10129e-19)
(1.0902 0.984224 1.90109e-19)
(1.05921 1.03168 -7.27477e-21)
(1.02229 1.07038 -3.83847e-19)
(0.974728 1.09127 1.23194e-19)
(0.910237 1.08222 6.03019e-20)
(0.821834 1.02966 1.2038e-19)
(0.703118 0.921023 9.9237e-20)
(0.549503 0.747263 -8.97527e-20)
(0.359605 0.504121 2.35532e-19)
(0.135319 0.192394 -1.9914e-19)
(1.34657 0.461814 -1.20472e-19)
(1.33933 0.501065 -1.51975e-19)
(1.3352 0.539504 1.70852e-19)
(1.32704 0.579927 0)
(1.31672 0.621772 9.60541e-20)
(1.30436 0.665153 0)
(1.29018 0.710142 0)
(1.27444 0.75677 0)
(1.25734 0.805059 0)
(1.23908 0.855 -1.51424e-19)
(1.2198 0.906502 1.6331e-19)
(1.19946 0.959181 9.19572e-20)
(1.17751 1.01183 -1.74043e-19)
(1.15233 1.06146 -7.87492e-20)
(1.1205 1.10222 0)
(1.07644 1.12462 -1.79738e-19)
(1.0126 1.11595 1.27067e-19)
(0.920528 1.06199 3.37854e-20)
(0.792451 0.949688 4.81344e-20)