/*--------------------------------*- C++ -*----------------------------------*\
| =========                 |                                                 |
| \\      /  F ield         | OpenFOAM Extend Project: Open source CFD        |
|  \\    /   O peration     | Version:  1.6-ext                               |
|   \\  /    A nd           | Web:      www.extend-project.de                 |
|    \\/     M anipulation  |                                                 |
\*---------------------------------------------------------------------------*/
FoamFile
{
    version     2.0;
    format      ascii;
    class       volVectorField;
    location    "1";
    object      U_0;
}
// * * * * * * * * * * * * * * * * * * * * * * * * * * * * * * * * * * * * * //

dimensions      [0 1 -1 0 0 0 0];

internalField   nonuniform List<vector> 
20940
(
(1.8482 0.398185 5.73053e-21)
(1.8877 0.418209 -2.32705e-21)
(1.92511 0.437513 -7.73033e-22)
(1.95957 0.455051 1.05385e-20)
(1.99078 0.47103 7.458e-21)
(2.01711 0.484325 7.66402e-22)
(2.03557 0.493828 0)
(2.04134 0.497588 -1.27987e-23)
(2.02804 0.493372 8.43496e-21)
(1.98858 0.478943 4.44601e-22)
(1.91675 0.452768 1.16128e-20)
(1.80899 0.414622 -2.52836e-20)
(1.66576 0.365945 0)
(1.49195 0.309733 1.61216e-23)
(1.29603 0.249997 9.15225e-21)
(1.08844 0.190995 -1.96111e-20)
(0.879683 0.13653 1.01103e-20)
(0.678841 0.0894965 2.2459e-20)
(0.492708 0.0517034 -1.17854e-20)
(0.325572 0.0239199 -1.86012e-20)
(0.179446 0.00662221 1.28632e-20)
(0.0545388 0.000490752 0)
(1.87504 0.374997 -4.60011e-21)
(1.91327 0.393868 7.8641e-21)
(1.94908 0.411359 9.75947e-21)
(1.98135 0.42711 -1.63744e-20)
(2.00926 0.440781 0)
(2.0303 0.451166 9.71884e-21)
(2.04046 0.45685 -2.2793e-20)
(2.03399 0.455797 0)
(2.00414 0.445941 -1.69641e-20)
(1.94441 0.425604 -1.09645e-20)
(1.85035 0.394154 2.14305e-20)
(1.72106 0.352418 3.77775e-20)
(1.55997 0.302732 -1.40566e-20)
(1.3744 0.248556 0)
(1.1742 0.193804 0)
(0.969914 0.142141 -1.84589e-20)
(0.771097 0.0964796 -1.02955e-20)
(0.585304 0.0587648 -3.22027e-20)
(0.417674 0.0299698 -3.15674e-22)
(0.271044 0.0102405 2.97095e-20)
(0.146373 -0.000365312 0)
(0.0432702 -0.00140782 -1.0117e-20)
(1.89967 0.351779 -1.23626e-20)
(1.93629 0.369565 2.26467e-22)
(1.96995 0.38535 -3.79742e-20)
(1.99917 0.399324 2.63072e-20)
(2.02236 0.41058 -2.90216e-20)
(2.03598 0.417826 1.39967e-21)
(2.035 0.419407 2.49774e-20)
(2.01302 0.413359 -2.53092e-20)
(1.96352 0.397998 -3.13785e-20)
(1.88137 0.372402 -3.78174e-20)
(1.76455 0.336917 -2.3254e-20)
(1.61515 0.293309 7.39574e-20)
(1.43937 0.24452 1.61874e-20)
(1.24633 0.194099 1.93777e-21)
(1.04642 0.145534 -6.596e-20)
(0.849496 0.101709 1.84432e-20)
(0.66369 0.0646268 -2.0128e-20)
(0.494841 0.0353892 9.29213e-20)
(0.346483 0.0143024 -2.19158e-20)
(0.220168 0.00105857 -4.58697e-20)
(0.11599 -0.00457809 3.55903e-20)
(0.0331035 -0.00236004 1.01212e-20)
(1.92314 0.328902 0)
(1.95769 0.345673 3.285e-20)
(1.98839 0.359788 -2.13646e-20)
(2.01324 0.371885 -2.02053e-21)
(2.02962 0.380485 0)
(2.03291 0.384246 0)
(2.01724 0.381397 0)
(1.97611 0.370259 -3.0021e-20)
(1.90399 0.349755 1.29912e-19)
(1.79798 0.319862 -7.23794e-20)
(1.65904 0.281874 -2.159e-20)
(1.49227 0.238264 -4.91035e-20)
(1.30606 0.192218 1.07048e-19)
(1.11048 0.14701 -2.91667e-20)
(0.915531 0.105457 0)
(0.729761 0.0695828 -6.98914e-20)
(0.559556 0.040549 5.45377e-20)
(0.409007 0.0187603 -7.93472e-20)
(0.280185 0.00402977 -2.23677e-20)
(0.173571 -0.00424897 8.65774e-20)
(0.0885959 -0.00649121 5.72983e-20)
(0.0241038 -0.00256505 -3.76615e-20)
(1.94517 0.306442 0)
(1.97698 0.322192 3.54756e-20)
(2.00355 0.334585 -1.62074e-21)
(2.02213 0.344602 1.05473e-19)
(2.02892 0.350219 -6.56828e-20)
(2.01832 0.350141 3.7876e-20)
(1.98406 0.342666 0)
(1.92035 0.32664 0)
(1.82361 0.301775 -3.41883e-20)
(1.69385 0.268976 1.08907e-19)
(1.53521 0.230306 1.26211e-19)
(1.35532 0.188605 -1.86397e-19)
(1.16391 0.146925 1.52328e-19)
(0.970987 0.107979 -1.1375e-19)
(0.785386 0.0737852 3.0678e-20)
(0.613916 0.0455467 -6.67592e-20)
(0.461116 0.0237177 1.04833e-19)
(0.329462 0.00818412 -7.57314e-20)
(0.219796 -0.00156721 7.88113e-20)
(0.131777 -0.00630766 0)
(0.0643767 -0.00653893 0)
(0.0162735 -0.00218664 0)
(1.96524 0.284465 -2.99876e-20)
(1.99333 0.299138 3.3642e-21)
(2.01404 0.309664 -1.33175e-19)
(2.02373 0.317284 0)
(2.01739 0.319535 0)
(1.98885 0.315333 -4.15718e-20)
(1.93223 0.303283 4.55959e-20)
(1.84341 0.282968 5.48244e-20)
(1.72165 0.254965 3.30307e-20)
(1.57021 0.220987 -7.03931e-20)
(1.39607 0.183555 -1.23265e-19)
(1.20855 0.145494 2.24184e-19)
(1.01761 0.109398 -1.48389e-19)
(0.832303 0.0772556 2.76314e-20)
(0.659747 0.0502932 2.99884e-20)
(0.504841 0.0290097 0)
(0.370381 0.0133296 -3.45472e-20)
(0.257479 0.002794 0)
(0.166026 -0.00329288 -3.7054e-20)
(0.0951094 -0.00576375 7.98643e-20)
(0.0434276 -0.00514181 -1.02499e-19)
(0.00960954 -0.00137552 6.92515e-20)
(1.98292 0.262781 3.34445e-20)
(2.00569 0.276187 -7.64462e-20)
(2.01802 0.284572 9.049e-20)
(2.01533 0.289422 5.75348e-20)
(1.99169 0.288 0)
(1.94111 0.279642 -8.32142e-20)
(1.85912 0.263486 -5.54923e-21)
(1.74429 0.239971 5.13958e-20)
(1.59917 0.210464 0)
(1.43014 0.177211 0)
(1.24615 0.142814 -7.72303e-20)
(1.05708 0.109741 -4.40653e-20)
(0.872121 0.0799342 9.62391e-20)
(0.698655 0.0546276 -1.02771e-19)
(0.54186 0.0343584 0)
(0.404791 0.0190938 0)
(0.28876 0.00840559 0)
(0.193821 0.00164064 6.90161e-20)
(0.119201 -0.00196892 -3.49101e-20)
(0.0636359 -0.00324556 0)
(0.0257019 -0.00269395 2.02134e-20)
(0.00406543 -0.000267579 0)
(1.99668 0.241322 6.12402e-20)
(2.01185 0.253201 0)
(2.01247 0.259122 0)
(1.99325 0.260842 -1.17235e-19)
(1.94803 0.255609 6.63963e-20)
(1.87204 0.243408 8.2936e-20)
(1.76331 0.224064 -9.1003e-20)
(1.62378 0.198843 -1.62462e-19)
(1.45925 0.169665 5.89143e-20)
(1.27838 0.138941 0)
(1.09099 0.109003 7.67422e-20)
(0.906365 0.0817349 -8.22686e-20)
(0.732108 0.0583706 0)
(0.573635 0.0394766 4.89196e-20)
(0.434207 0.0250629 5.2863e-20)
(0.315289 0.014742 0)
(0.217043 0.00788741 0)
(0.138778 0.00376716 0)
(0.0793116 0.00161673 1.39223e-19)
(0.0372108 0.000666962 -1.08776e-19)
(0.0110417 0.000452184 -7.60491e-20)
(-0.000436713 0.00101966 1.26847e-19)
(2.00521 0.219525 0)
(2.00947 0.229482 0)
(1.99419 0.232598 0)
(1.95394 0.231031 0)
(1.88338 0.222263 6.95775e-20)
(1.78015 0.207065 -8.05375e-20)
(1.64559 0.185958 -1.86498e-19)
(1.48505 0.160825 1.03659e-19)
(1.30691 0.133793 9.61321e-22)
(1.12094 0.107088 6.68325e-20)
(0.936536 0.0825226 -7.23395e-20)
(0.761518 0.0613236 1.61047e-19)
(0.601509 0.0440833 0)
(0.45994 0.030854 -1.44928e-19)
(0.338398 0.0212948 -8.83698e-22)
(0.237114 0.0148198 0)
(0.155438 0.010723 -5.82397e-20)
(0.0922188 0.00827203 0)
(0.0460697 0.00675105 -1.33431e-19)
(0.0155221 0.00546557 1.0297e-19)
(-0.000793251 0.00399595 0)
(-0.00399606 0.00238904 0)
(2.00504 0.197431 7.17231e-20)
(1.99448 0.205144 0)
(1.95888 0.205312 5.21281e-20)
(1.89373 0.200583 -1.18872e-19)
(1.79572 0.188937 -1.33218e-21)
(1.66585 0.17196 -2.84797e-22)
(1.50895 0.150719 9.13015e-20)
(1.33324 0.127392 -1.55103e-19)
(1.14843 0.103966 1.7198e-19)
(0.964095 0.0822192 0)
(0.788263 0.0633476 0)
(0.626766 0.047967 -7.86831e-20)
(0.483194 0.0361699 8.53616e-20)
(0.359237 0.0276637 -2.29253e-19)
(0.255174 0.0219105 9.80145e-20)
(0.170368 0.0182451 5.33893e-20)
(0.103665 0.0159617 1.84163e-21)
(0.0536809 0.0143739 0)
(0.0189762 0.0128364 0)
(-0.001863 0.0107359 0)
(-0.0101 0.00769839 0)
(-0.00672518 0.00376593 2.89872e-20)
(1.99438 0.174016 -7.09429e-20)
(1.96415 0.17922 0)
(1.90406 0.176556 0)
(1.81138 0.169312 6.13236e-20)
(1.686 0.15604 -6.76874e-20)
(1.53259 0.13893 -1.96131e-22)
(1.35902 0.119323 8.95918e-20)
(1.17512 0.0993301 1.01313e-19)
(0.990609 0.0805441 -1.13431e-19)
(0.813793 0.064179 1.23297e-19)
(0.65073 0.0508552 0)
(0.505175 0.0407083 0)
(0.378908 0.0334955 -8.23104e-20)
(0.272242 0.0287317 1.33005e-19)
(0.184538 0.0258012 -4.8524e-20)
(0.11462 0.0240398 5.21224e-20)
(0.0610816 0.0227888 1.11852e-19)
(0.0224711 0.0214309 1.19496e-21)
(-0.00260299 0.0193988 -2.457e-19)
(-0.015448 0.016159 1.28332e-19)
(-0.0172042 0.0113797 0)
(-0.00874079 0.00509555 -2.90651e-20)
(1.96719 0.15038 0)
(1.9139 0.153166 0)
(1.82668 0.148203 0)
(1.70653 0.139358 0)
(1.55679 0.125772 0)
(1.38549 0.109987 1.56691e-19)
(1.20236 0.0933277 -8.846e-20)
(1.0175 0.0775696 0)
(0.83948 0.0637895 -1.10407e-19)
(0.674677 0.052651 2.41814e-19)
(0.527038 0.0443109 -1.31924e-19)
(0.398449 0.0385743 -1.46155e-19)
(0.289254 0.0350057 7.88272e-20)
(0.198799 0.0330394 -1.3881e-21)
(0.125873 0.0320575 9.18541e-20)
(0.069029 0.0314404 -9.96901e-20)
(0.0267872 0.0305978 1.58969e-19)
(-0.00225641 0.0289876 1.12903e-19)
(-0.0193861 0.0261183 9.7555e-22)
(-0.025778 0.0215304 -1.24011e-19)
(-0.0224491 0.0149317 3.2017e-20)
(-0.010164 0.00634848 -1.10891e-19)
(1.92518 0.124587 -7.69612e-20)
(1.84433 0.125313 9.0129e-20)
(1.72929 0.119062 -1.06215e-19)
(1.58374 0.110015 1.17497e-19)
(1.41463 0.0978312 1.38001e-19)
(1.2322 0.0849068 -1.53639e-19)
(1.04665 0.0723501 -8.74391e-20)
(0.867081 0.0614205 -5.39692e-22)
(0.700187 0.0527011 -1.07495e-19)
(0.550183 0.0464072 1.16884e-19)
(0.41908 0.0423827 0)
(0.307266 0.0402467 0)
(0.214064 0.0394856 7.72985e-20)
(0.138216 0.0395309 -8.37593e-20)
(0.0782215 0.0398071 -4.42888e-20)
(0.0325563 0.0397605 0)
(-0.000212969 0.0388744 1.02842e-19)
(-0.0213781 0.0366795 5.46821e-20)
(-0.0320871 0.0327538 -2.2955e-19)
(-0.0333795 0.0267057 2.11179e-19)
(-0.0261582 0.0182817 -1.57255e-19)
(-0.0111044 0.00750499 0)
(1.85832 0.100945 7.59253e-20)
(1.7526 0.100291 -8.88891e-20)
(1.61164 0.0935915 -1.06427e-19)
(1.44611 0.085373 5.69667e-20)
(1.26469 0.0755065 -6.46623e-22)
(1.07868 0.0660448 -7.7019e-20)
(0.897406 0.0577995 8.53717e-20)
(0.72818 0.051481 8.55265e-22)
(0.57552 0.0472637 -1.04895e-19)
(0.441653 0.0450342 2.29309e-19)
(0.327035 0.0444475 -2.51023e-19)
(0.230988 0.045037 1.36214e-19)
(0.152207 0.0462793 -2.2322e-19)
(0.089132 0.0476404 2.3996e-19)
(0.0401806 0.0486016 -4.22374e-20)
(0.00387835 0.0486739 -4.60784e-20)
(-0.0210897 0.0474057 0)
(-0.0358726 0.0443892 -5.32588e-20)
(-0.0414756 0.0392617 -5.50917e-20)
(-0.0388087 0.0316908 2.95656e-20)
(-0.0286741 0.0214591 0)
(-0.0116844 0.00858966 -2.60876e-20)
(1.78325 0.0738746 0)
(1.64717 0.0726421 -1.82901e-19)
(1.48471 0.0677763 1.01606e-19)
(1.30467 0.0616207 0)
(1.11759 0.0555928 0)
(0.9341 0.0505599 -3.87393e-22)
(0.761801 0.0470943 8.28936e-20)
(0.60575 0.0453579 0)
(0.468419 0.045244 0)
(0.350407 0.0464633 0)
(0.251062 0.0486183 -6.07628e-20)
(0.169043 0.051258 -1.33404e-19)
(0.102718 0.0539119 2.16208e-19)
(0.0504282 0.0561104 -2.34394e-19)
(0.0106316 0.0573982 1.6832e-19)
(-0.0180332 0.0573432 4.54293e-20)
(-0.036737 0.0555439 0)
(-0.0464808 0.0516378 0)
(-0.0481327 0.0453073 -1.81225e-22)
(-0.0424837 0.0362703 1.13146e-19)
(-0.0302484 0.0243458 0)
(-0.0119873 0.00956564 -5.15742e-20)
(1.63236 0.0537979 0)
(1.4663 0.0500294 9.61628e-20)
(1.28462 0.0471994 1.12773e-19)
(1.09829 0.0440981 1.27241e-19)
(0.916514 0.0423244 0)
(0.746813 0.0417703 -7.87947e-20)
(0.59366 0.0426338 8.74753e-20)
(0.459282 0.0447213 9.69493e-20)
(0.34404 0.0477816 -1.05601e-19)
(0.247121 0.0514816 -5.71128e-22)
(0.167058 0.0554516 1.26251e-19)
(0.102121 0.0592998 0)
(0.0505806 0.0626241 0)
(0.0108438 0.0650208 8.04216e-20)
(-0.0184777 0.0660947 0)
(-0.0385596 0.0654685 9.19865e-20)
(-0.0503864 0.0627948 -9.71689e-20)
(-0.0547889 0.0577679 0)
(-0.0524883 0.0501338 5.39195e-20)
(-0.0441496 0.0396888 -1.69046e-19)
(-0.0303903 0.0263278 2.91279e-20)
(-0.0117157 0.0101323 -2.56405e-20)
(1.37743 0.031428 1.34524e-19)
(1.19415 0.0302098 2.06578e-19)
(1.0119 0.031838 -1.13687e-19)
(0.837744 0.0331543 -3.25479e-19)
(0.677767 0.0360397 0)
(0.535244 0.0395386 0)
(0.411444 0.0438182 0)
(0.306097 0.0485722 3.86211e-22)
(0.218012 0.0535937 -1.0743e-19)
(0.14552 0.0586163 -1.76549e-19)
(0.086818 0.0633552 1.92531e-19)
(0.0401686 0.0675011 -6.92006e-20)
(0.00401523 0.0707269 0)
(-0.0229766 0.0726969 0)
(-0.041919 0.073078 -4.29257e-20)
(-0.0537275 0.0715541 -1.37847e-19)
(-0.0591591 0.0678404 9.72187e-20)
(-0.0588529 0.0616975 0)
(-0.0533703 0.0529428 0)
(-0.0432362 0.0414524 -5.58488e-20)
(-0.0289439 0.0271946 8.68725e-20)
(-0.0109083 0.0102824 7.50272e-20)
(1.09254 0.0187816 1.71799e-21)
(0.914817 0.0207119 -1.05794e-19)
(0.751312 0.0262993 0)
(0.602335 0.0309368 6.6243e-20)
(0.471685 0.0368271 7.42161e-20)
(0.359157 0.0427127 -8.28561e-20)
(0.264211 0.0488169 1.81735e-19)
(0.185292 0.0548547 -2.15344e-22)
(0.120656 0.060686 2.18352e-19)
(0.0684812 0.066108 5.97275e-20)
(0.027079 0.070901 -6.46078e-20)
(-0.0050438 0.0748146 -3.96306e-22)
(-0.0291523 0.077575 0)
(-0.0462919 0.0788948 -1.61898e-19)
(-0.0573135 0.0784867 1.72926e-19)
(-0.062909 0.07608 4.62445e-20)
(-0.0636489 0.0714369 0)
(-0.0600179 0.0643676 0)
(-0.0524467 0.0547421 0)
(-0.0413418 0.0424944 0)
(-0.0270904 0.0276425 1.15272e-19)
(-0.0100282 0.0103142 -7.32861e-20)
(0.813652 0.0128524 -1.44331e-19)
(0.657924 0.0186127 0)
(0.523107 0.0267855 0)
(0.404152 0.0337041 0)
(0.30354 0.041135 -7.62963e-20)
(0.219037 0.048092 -5.04437e-22)
(0.149419 0.0548033 -2.76312e-22)
(0.0927332 0.0610894 0)
(0.0472571 0.0668844 -5.56772e-20)
(0.0113568 0.0720522 0)
(-0.0163771 0.0764281 1.30821e-19)
(-0.0371376 0.0798061 -2.1243e-19)
(-0.051906 0.0819488 1.51753e-19)
(-0.0614775 0.0826001 4.11662e-20)
(-0.0664916 0.0815012 -4.35764e-20)
(-0.0674654 0.0784092 9.21849e-20)
(-0.0648252 0.0731142 -9.70461e-20)
(-0.0589347 0.0654552 0)
(-0.0501182 0.0553317 8.01101e-20)
(-0.0386817 0.0427089 1.37509e-22)
(-0.0249198 0.0276283 -2.28141e-19)
(-0.00909552 0.0102169 9.64127e-20)
(0.563529 0.0133157 -9.95727e-20)
(0.438059 0.0219841 1.12338e-19)
(0.33402 0.0309815 0)
(0.244469 0.0388088 0)
(0.170885 0.0464219 0)
(0.110402 0.0533413 0)
(0.0617086 0.0597564 9.3954e-20)
(0.022964 0.0655979 -1.02503e-19)
(-0.00729628 0.0708464 -2.23305e-22)
(-0.0304033 0.075411 0)
(-0.0474645 0.0791591 -1.98252e-19)
(-0.0593982 0.0819104 1.42084e-19)
(-0.0669492 0.0834492 0)
(-0.0707164 0.0835381 -9.39624e-23)
(-0.0711792 0.0819359 1.73823e-19)
(-0.0687249 0.0784164 -9.19425e-20)
(-0.0636728 0.0727857 4.87843e-20)
(-0.056295 0.0648973 -1.01522e-19)
(-0.0468325 0.054663 1.06207e-19)
(-0.0355093 0.0420589 -2.46623e-19)
(-0.0225432 0.0271287 1.12958e-19)
(-0.00813342 0.00998021 2.35835e-20)
(0.353598 0.0172798 5.00315e-20)
(0.259329 0.0271575 -5.74429e-20)
(0.183434 0.0358299 0)
(0.11964 0.0434621 0)
(0.0685846 0.0504219 -7.81308e-20)
(0.0276402 0.0566351 8.6489e-20)
(-0.00436446 0.0622544 -9.46225e-20)
(-0.0289529 0.0672914 0)
(-0.0472891 0.0717521 -1.69917e-19)
(-0.0604082 0.0755737 6.14087e-20)
(-0.0691585 0.0786428 -6.62132e-20)
(-0.0742374 0.0807956 0)
(-0.0762081 0.0818307 3.82174e-20)
(-0.0755224 0.0815239 -1.23023e-19)
(-0.0725426 0.0796463 8.69109e-20)
(-0.0675614 0.0759823 9.20053e-20)
(-0.0608201 0.0703463 -1.44817e-19)
(-0.052523 0.0625963 7.59437e-20)
(-0.0428481 0.0526443 -5.2617e-20)
(-0.0319551 0.040463 1.09123e-19)
(-0.020002 0.026081 2.78308e-20)
(-0.00714081 0.00957291 8.15804e-20)
(0.185167 0.0221449 0)
(0.118705 0.031572 -5.76544e-20)
(0.0665259 0.0392531 6.45618e-20)
(0.0239371 0.0459781 -7.12336e-20)
(-0.0090416 0.0518561 -5.04452e-23)
(-0.0344834 0.0570318 8.69117e-20)
(-0.0533707 0.0616397 4.80704e-20)
(-0.0668844 0.0657381 -1.56519e-19)
(-0.0759222 0.0693453 0)
(-0.0812704 0.0724152 6.19295e-20)
(-0.0835707 0.0748466 1.33042e-22)
(-0.083349 0.0764885 -1.15803e-22)
(-0.0810304 0.0771521 3.82604e-20)
(-0.0769572 0.0766261 8.20197e-20)
(-0.0714051 0.0746932 -1.73936e-19)
(-0.0645984 0.0711472 1.83613e-19)
(-0.056722 0.0658083 -9.63854e-20)
(-0.0479323 0.0585347 -5.034e-20)
(-0.0383618 0.0492326 7.83132e-20)
(-0.0281236 0.0378627 2.71456e-20)
(-0.0173353 0.0244292 -2.7879e-20)
(-0.00612051 0.00896476 -1.15826e-20)
(0.0545181 0.0258724 -5.184e-20)
(0.0110061 0.0337616 5.83826e-20)
(-0.022004 0.0400747 3.85127e-22)
(-0.0477122 0.0455472 -7.18095e-20)
(-0.0664655 0.0502024 0)
(-0.0797855 0.0542536 8.78612e-20)
(-0.0884732 0.0578251 -4.78335e-20)
(-0.0934117 0.0609947 5.27095e-20)
(-0.0952799 0.0637868 -5.70867e-20)
(-0.0946636 0.0661655 6.21002e-20)
(-0.0920412 0.0680408 -1.00552e-19)
(-0.0878043 0.0692751 7.1943e-20)
(-0.0822715 0.0696944 0)
(-0.0757009 0.0691028 0)
(-0.0683037 0.0672978 0)
(-0.0602537 0.0640854 0)
(-0.0516963 0.0592933 -2.39511e-20)
(-0.042755 0.0527811 7.50731e-20)
(-0.0335332 0.0444488 -1.29918e-19)
(-0.0241135 0.0342434 1.07197e-19)
(-0.0145919 0.022142 -1.10024e-19)
(-0.0050837 0.00813413 1.1314e-20)
(-0.043094 0.0273029 5.20233e-20)
(-0.068379 0.0332419 -1.2315e-22)
(-0.086272 0.038031 6.54236e-20)
(-0.0988524 0.0421513 -7.2629e-20)
(-0.10662 0.0456003 7.98739e-20)
(-0.110654 0.0485742 4.43444e-20)
(-0.111587 0.0511839 3.07062e-22)
(-0.110061 0.0535078 -2.63937e-19)
(-0.106575 0.0555715 1.72405e-19)
(-0.101554 0.0573467 6.2316e-20)
(-0.0953433 0.0587554 -6.44175e-23)
(-0.0882272 0.0596753 8.2053e-23)
(-0.080439 0.0599512 -7.71005e-20)
(-0.0721712 0.059407 -8.20922e-20)
(-0.0635847 0.0578597 6.52014e-20)
(-0.054816 0.0551327 0)
(-0.0459826 0.0510665 2.40481e-20)
(-0.0371874 0.0455275 -9.98424e-20)
(-0.028517 0.0384148 2.32897e-19)
(-0.0200384 0.0296662 -1.36436e-22)
(-0.0118424 0.0192364 -1.09223e-19)
(-0.00405354 0.0070777 -8.99355e-20)
(-0.111272 0.0260176 -5.27268e-20)
(-0.122494 0.030074 1.18089e-19)
(-0.128802 0.0333928 -1.31079e-19)
(-0.13151 0.0362334 7.25152e-20)
(-0.131111 0.0385895 -1.20688e-19)
(-0.128347 0.0406091 2.21366e-19)
(-0.123695 0.0423832 -1.45503e-19)
(-0.117599 0.0439798 1.06058e-19)
(-0.11041 0.0454221 5.7719e-20)
(-0.102418 0.0466882 -3.1215e-20)
(-0.0938607 0.0477128 3.36427e-20)
(-0.0849337 0.0483922 -7.22511e-20)
(-0.0758016 0.0485935 0)
(-0.0666039 0.048165 2.04988e-20)
(-0.0574622 0.0469485 -6.51028e-20)
(-0.0484845 0.04479 1.96402e-23)
(-0.0397683 0.0415502 9.5701e-20)
(-0.0314038 0.0371101 9.95362e-20)
(-0.0234697 0.0313776 -1.03121e-19)
(-0.0160281 0.0242911 1.32303e-20)
(-0.00917684 0.0157943 0)
(-0.00306346 0.00581656 -1.00141e-19)
(-0.151949 0.022255 5.30508e-20)
(-0.152867 0.0247422 -5.87647e-20)
(-0.150823 0.0268024 0)
(-0.14662 0.0285524 -7.31905e-20)
(-0.140652 0.0299928 2.01578e-19)
(-0.133405 0.0312231 -4.43097e-20)
(-0.125202 0.0323126 -4.87806e-20)
(-0.116332 0.0333137 7.96644e-20)
(-0.107016 0.0342458 0)
(-0.0974357 0.0350925 -3.13674e-20)
(-0.0877382 0.0358028 -1.01296e-19)
(-0.0780484 0.0362939 7.24084e-20)
(-0.0684747 0.0364586 0)
(-0.0591148 0.0361732 -4.11253e-20)
(-0.0500591 0.0353078 2.17119e-20)
(-0.0413932 0.0337364 9.13794e-20)
(-0.0331994 0.0313449 -9.56196e-20)
(-0.0255587 0.0280374 0)
(-0.0185454 0.0237407 -1.02728e-19)
(-0.0122222 0.0184074 1.98137e-19)
(-0.00669976 0.0119872 -1.08141e-19)
(-0.00215504 0.00440765 0)
(-0.165732 0.0166479 2.62375e-20)
(-0.159977 0.0179676 0)
(-0.152731 0.0190677 0)
(-0.144474 0.0199852 1.47525e-22)
(-0.135458 0.0207301 -8.08731e-20)
(-0.12597 0.0213641 0)
(-0.116202 0.0219355 -2.44176e-20)
(-0.106312 0.0224814 5.88371e-23)
(-0.0964189 0.0230163 -5.79479e-20)
(-0.0866147 0.02353 0)
(-0.0769764 0.0239865 3.38873e-20)
(-0.0675721 0.024326 -5.45154e-20)
(-0.0584665 0.0244694 7.751e-20)
(-0.0497249 0.0243234 2.06087e-20)
(-0.041414 0.0237893 -1.08967e-20)
(-0.0336021 0.0227703 0)
(-0.026359 0.0211804 0)
(-0.0197565 0.0189505 1.24245e-20)
(-0.0138636 0.0160343 5.13146e-20)
(-0.00874126 0.0124108 6.49628e-21)
(-0.00450872 0.00805703 -5.39594e-20)
(-0.00136844 0.00293052 0)
(-0.152643 0.0103099 5.31025e-20)
(-0.143873 0.0108691 0)
(-0.13461 0.0113325 3.32001e-20)
(-0.12514 0.011698 -3.66736e-20)
(-0.115577 0.0119821 4.04797e-20)
(-0.106065 0.01222 4.48163e-20)
(-0.096688 0.0124419 -1.21441e-20)
(-0.0875092 0.012671 8.04339e-20)
(-0.0785686 0.012918 -5.81559e-20)
(-0.0698945 0.0131783 -1.57669e-20)
(-0.0615109 0.0134316 0)
(-0.0534439 0.013642 -9.10702e-21)
(-0.0457258 0.0137596 -8.75361e-20)
(-0.0383973 0.0137236 9.29025e-20)
(-0.0315076 0.0134668 3.27143e-20)
(-0.0251119 0.012922 -1.85508e-23)
(-0.01927 0.0120289 -4.79034e-20)
(-0.0140441 0.0107423 3.7287e-20)
(-0.00949373 0.00904025 -4.50078e-20)
(-0.00567072 0.00693046 5.7601e-24)
(-0.00268566 0.00442977 -5.38436e-20)
(-0.0007425 0.00155327 4.67302e-20)
(-0.112648 0.00428787 -1.33268e-20)
(-0.104575 0.00443664 7.4402e-21)
(-0.0965125 0.00454325 0)
(-0.0886591 0.00460464 0)
(-0.0810249 0.00463747 0)
(-0.0736649 0.00465943 0)
(-0.0665931 0.00468475 -1.23007e-20)
(-0.0598144 0.00472433 0)
(-0.0533222 0.00478384 0)
(-0.0471066 0.00486307 1.58128e-20)
(-0.0411595 0.00495521 0)
(-0.0354801 0.00504641 -4.57136e-20)
(-0.0300776 0.00511564 5.3623e-20)
(-0.0249737 0.00513504 -1.03492e-20)
(-0.0202021 0.00507106 4.3734e-20)
(-0.0158066 0.0048869 -4.59449e-20)
(-0.0118377 0.0045466 0)
(-0.00834931 0.0040216 0)
(-0.00539067 0.00330152 -6.43253e-21)
(-0.00299848 0.00240681 -3.2935e-21)
(-0.00124606 0.00138992 0)
(-0.000289365 0.000358084 -2.74438e-21)
(-0.0462277 0.000461387 3.86479e-20)
(-0.0424765 0.000487062 -3.61676e-20)
(-0.0387808 0.00050021 0)
(-0.0352882 0.000500824 0)
(-0.0319746 0.000496345 0)
(-0.0288543 0.000491306 2.17813e-20)
(-0.0259173 0.000488812 -2.37234e-20)
(-0.0231514 0.000491301 0)
(-0.0205399 0.000500535 0)
(-0.0180653 0.000517614 3.04471e-20)
(-0.0157122 0.00054278 7.21058e-23)
(-0.013469 0.000575088 5.90045e-23)
(-0.0113307 0.000611964 -7.93996e-20)
(-0.00930002 0.000648649 3.95426e-20)
(-0.00738881 0.000677638 0)
(-0.00561863 0.000688318 0)
(-0.00402029 0.000667208 4.5776e-20)
(-0.00263254 0.000599627 -9.5122e-20)
(-0.00149733 0.00047451 4.91677e-20)
(-0.000650523 0.000293127 -3.13679e-21)
(-0.00012939 8.05504e-05 0)
(1.66521e-05 -7.84467e-05 0)
(1.13611 0.0230324 5.29993e-22)
(1.09003 0.0245848 4.59387e-22)
(1.04192 0.026185 -4.27478e-20)
(0.991673 0.0278347 0)
(0.939383 0.0295395 0)
(0.885143 0.0313062 0)
(0.829044 0.0331376 -1.78744e-20)
(0.771194 0.0350348 -9.80318e-24)
(0.71171 0.0369971 0)
(0.650721 0.0390221 -1.20756e-23)
(0.588373 0.0411023 -5.45786e-20)
(0.524832 0.0432159 -5.75431e-22)
(0.460314 0.0453046 1.58979e-20)
(0.395152 0.0472393 -3.49294e-20)
(0.329898 0.0487783 3.68458e-20)
(0.265455 0.0495439 3.954e-20)
(0.203187 0.0490282 -4.12936e-20)
(0.144979 0.0466473 -1.07966e-20)
(0.0930918 0.0418247 1.12236e-20)
(0.0499261 0.0340916 -1.18304e-20)
(0.0187204 0.0231432 2.39736e-20)
(0.00351182 0.00888474 0)
(1.14046 0.0790247 -9.54823e-20)
(1.09484 0.0846924 1.87492e-20)
(1.04733 0.0906347 -2.10165e-20)
(0.997661 0.0968219 0)
(0.94595 0.103247 0)
(0.892291 0.109914 0)
(0.836774 0.11682 1.7861e-20)
(0.779506 0.123959 3.94647e-20)
(0.720607 0.131323 0)
(0.660205 0.138896 0)
(0.598444 0.146647 2.7074e-20)
(0.535484 0.15449 0)
(0.471529 0.162201 4.75848e-20)
(0.40688 0.169297 6.91358e-20)
(0.342031 0.174893 -7.2931e-20)
(0.277796 0.177619 0)
(0.215417 0.175668 -8.23303e-20)
(0.156637 0.166979 9.6332e-20)
(0.103573 0.149545 7.83175e-20)
(0.0585023 0.121747 -1.03675e-19)
(0.0245741 0.0825605 2.3483e-20)
(0.00578532 0.0317024 -7.81221e-20)
(1.14909 0.135028 -6.2e-20)
(1.10442 0.144828 0)
(1.05815 0.155036 4.24591e-20)
(1.00965 0.165642 0)
(0.959109 0.176638 -1.11406e-19)
(0.906632 0.188034 1.21912e-19)
(0.852306 0.199828 -7.08016e-20)
(0.796239 0.212013 3.75635e-20)
(0.738551 0.224578 8.5576e-20)
(0.679371 0.237499 0)
(0.618835 0.250724 0)
(0.557096 0.264104 0)
(0.494324 0.277259 9.41638e-20)
(0.430757 0.289358 -1.9921e-19)
(0.366769 0.298882 -1.79296e-19)
(0.302983 0.303489 3.41219e-19)
(0.240393 0.300089 -1.5943e-19)
(0.18045 0.285168 1.6792e-19)
(0.124979 0.255314 -1.73594e-19)
(0.0760088 0.207786 0)
(0.0365172 0.14086 -1.1669e-19)
(0.010422 0.0540784 1.70844e-19)
(1.16106 0.188299 0)
(1.11792 0.20211 -7.27494e-20)
(1.0736 0.216442 1.60721e-19)
(1.02695 0.23135 1.87e-19)
(0.978254 0.246808 -1.3063e-22)
(0.927617 0.26283 0)
(0.875131 0.279412 0)
(0.820909 0.296545 0)
(0.765074 0.314212 -8.53269e-20)
(0.707755 0.332382 9.10376e-20)
(0.649085 0.350979 -9.98826e-20)
(0.589198 0.369797 -5.44215e-20)
(0.528225 0.388298 0)
(0.466303 0.405313 -6.43742e-20)
(0.403625 0.418703 1.72572e-19)
(0.340536 0.425175 -1.08702e-19)
(0.277651 0.420391 -3.75526e-20)
(0.215985 0.399432 0)
(0.156932 0.357532 -4.07542e-20)
(0.102147 0.290886 0)
(0.0543504 0.197123 -1.79272e-19)
(0.0173429 0.0756481 -1.94061e-20)
(1.17633 0.238973 -4.6299e-21)
(1.13526 0.256666 4.08898e-19)
(1.09353 0.274924 -2.3458e-19)
(1.04933 0.293928 -9.14182e-20)
(1.00307 0.313633 -1.03905e-19)
(0.954876 0.334054 1.17139e-19)
(0.904831 0.355193 -1.1899e-21)
(0.853058 0.377038 1.41407e-19)
(0.799684 0.399569 0)
(0.744836 0.422747 -9.07065e-20)
(0.688644 0.446481 4.65399e-21)
(0.631223 0.470505 5.42473e-20)
(0.572643 0.494136 0)
(0.512914 0.515875 0)
(0.45199 0.532988 -6.37334e-20)
(0.389841 0.541262 7.12864e-20)
(0.326587 0.535158 3.74896e-20)
(0.26267 0.508406 -2.26748e-19)
(0.19891 0.454963 4.00273e-20)
(0.136482 0.370028 2.03112e-19)
(0.0777718 0.250652 0)
(0.0264265 0.0961423 3.3667e-20)
(1.1945 0.285761 -1.15098e-19)
(1.15601 0.307163 -1.32933e-19)
(1.11749 0.329111 0)
(1.07632 0.351979 0)
(1.03309 0.37569 0)
(0.987912 0.400265 -1.06443e-19)
(0.940886 0.425706 -1.25908e-19)
(0.89214 0.452003 -7.44051e-21)
(0.841802 0.479135 0)
(0.790004 0.507057 0)
(0.73687 0.535663 1.83431e-19)
(0.682489 0.564637 -2.01285e-19)
(0.626864 0.593157 3.18813e-19)
(0.569847 0.619415 0)
(0.511097 0.640111 2.51166e-19)
(0.450127 0.650154 -3.22093e-19)
(0.386441 0.642858 0)
(0.319778 0.610675 7.36795e-20)
(0.250257 0.546361 0)
(0.178472 0.444209 -3.45984e-19)
(0.106405 0.300768 3.13873e-19)
(0.0375212 0.115298 9.64751e-20)
(1.2151 0.328087 0)
(1.17971 0.35297 9.39129e-22)
(1.14495 0.378309 1.38738e-19)
(1.10734 0.404748 -1.63406e-19)
(1.06765 0.432166 3.55946e-19)
(1.02601 0.460589 1.05693e-19)
(0.98253 0.490026 1.11364e-19)
(0.937339 0.520466 -2.56327e-19)
(0.890575 0.551885 1.50059e-19)
(0.842369 0.584237 -3.10146e-19)
(0.792841 0.617401 -2.6076e-19)
(0.742052 0.651019 1.84522e-19)
(0.689926 0.684143 -1.03742e-19)
(0.636128 0.714684 -1.02505e-19)
(0.579976 0.738807 -4.95464e-20)
(0.520436 0.7506 6.23482e-20)
(0.456294 0.742288 -5.96843e-20)
(0.386452 0.705127 -2.61006e-19)
(0.310217 0.630755 2.0615e-19)
(0.227503 0.512651 -2.8022e-19)
(0.139832 0.34695 2.87229e-19)
(0.050462 0.132923 0)
(1.23747 0.365254 1.92002e-19)
(1.20567 0.393372 1.17279e-19)
(1.17519 0.421789 -2.56671e-19)
(1.14163 0.451476 1.44509e-19)
(1.10598 0.482257 -3.17434e-21)
(1.06838 0.514167 -1.88111e-19)
(1.02892 0.547222 -1.10431e-19)
(0.987763 0.581417 8.96837e-21)
(0.945049 0.616732 1.02723e-20)
(0.900914 0.653123 -2.90062e-19)
(0.855473 0.69046 -3.73521e-21)
(0.808763 0.728353 3.38341e-19)
(0.76062 0.76575 0)
(0.710509 0.800308 9.36414e-21)
(0.657356 0.827708 1.08062e-19)
(0.599513 0.841265 -1.02332e-19)
(0.534936 0.832193 -1.65947e-19)
(0.461576 0.790618 1.79703e-19)
(0.37781 0.707158 -1.78409e-19)
(0.28279 0.574571 -5.94584e-20)
(0.177525 0.388673 5.16921e-19)
(0.0650406 0.148811 1.1836e-21)
(1.26086 0.396695 3.56857e-19)
(1.23311 0.427718 -2.09146e-19)
(1.20732 0.458843 8.83588e-21)
(1.17821 0.491424 -3.08223e-21)
(1.147 0.525216 -3.033e-19)
(1.11383 0.560264 0)
(1.07882 0.596588 -1.86991e-19)
(1.04214 0.634184 1.12915e-19)
(1.00393 0.673033 1.24669e-19)
(0.964333 0.713089 0)
(0.923463 0.754221 0)
(0.881326 0.796013 -1.45225e-19)
(0.837668 0.83733 -2.41448e-19)
(0.791733 0.875616 2.6616e-19)
(0.742017 0.906117 -1.82728e-19)
(0.686186 0.921448 2.94182e-19)
(0.621267 0.911879 -9.27588e-20)
(0.544148 0.8665 3.07668e-19)
(0.452165 0.774995 -2.12671e-19)
(0.34364 0.629504 8.06019e-21)
(0.21902 0.42562 5.20143e-20)
(0.081079 0.162852 0)
(1.28437 0.422254 -1.28639e-20)
(1.26116 0.455899 -1.98694e-19)
(1.24048 0.489383 3.35012e-19)
(1.21623 0.524459 0)
(1.18986 0.560812 1.47842e-19)
(1.1615 0.59851 0)
(1.13128 0.637593 1.75138e-19)
(1.09939 0.678068 -2.73302e-21)
(1.066 0.719927 1.11436e-19)
(1.03127 0.763133 -1.10671e-19)
(0.995295 0.807558 0)
(0.958077 0.85278 -1.2734e-19)
(0.919275 0.897608 2.98722e-19)
(0.877908 0.939311 -3.03358e-19)
(0.832024 0.972765 3.21192e-19)
(0.778544 0.989942 -1.6428e-19)
(0.713474 0.980243 2.64542e-19)
(0.632521 0.931789 -4.7535e-20)
(0.531875 0.833421 4.09137e-20)
(0.408945 0.676765 5.03171e-20)
(0.263586 0.457314 -5.19415e-20)
(0.0982901 0.174853 0)
(1.30711 0.441447 -1.60032e-19)
(1.2888 0.477265 -1.71029e-19)
(1.27342 0.512719 -1.9315e-19)
(1.25425 0.549962 0)
(1.23298 0.588579 1.2901e-19)
(1.20974 0.628641 -1.41307e-19)
(1.18467 0.670188 -3.25115e-19)
(1.15797 0.713225 1.73017e-19)
(1.12982 0.757749 1.08166e-20)
(1.10038 0.803729 1.09331e-19)
(1.06975 0.851043 0)
(1.03792 0.899271 0)
(1.00445 0.947186 1.82951e-19)
(0.96814 0.99193 0)
(0.926554 1.02807 -6.20849e-20)
(0.875811 1.04702 -6.33013e-20)
(0.810808 1.0374 -1.40037e-19)
(0.725971 0.98647 1.46321e-19)
(0.61626 0.882335 -7.32949e-20)
(0.478126 0.716213 0)
(0.31081 0.483631 0)
(0.116511 0.184768 0)
(1.32816 0.455013 1.42133e-19)
(1.31535 0.492782 3.27524e-19)
(1.30564 0.529789 2.04026e-20)
(1.29188 0.56864 -2.02308e-19)
(1.27593 0.608881 1.14951e-19)
(1.25793 0.650629 -1.2592e-19)
(1.23809 0.693947 0)
(1.21663 0.738857 0)
(1.19377 0.78537 8.84005e-20)
(1.16968 0.833466 0)
(1.14448 0.883042 -1.893e-19)
(1.11814 0.933699 1.10068e-19)
(1.09019 0.984217 1.89979e-19)
(1.0592 1.03167 -7.2746e-21)
(1.02229 1.07037 -3.8359e-19)
(0.974724 1.09126 1.23117e-19)
(0.910233 1.08221 6.02612e-20)
(0.82183 1.02965 1.20294e-19)
(0.703115 0.921018 9.91707e-20)
(0.5495 0.747259 -8.96842e-20)
(0.359603 0.504118 2.35343e-19)
(0.135319 0.192393 -1.98981e-19)
(1.34657 0.461809 -1.2038e-19)
(1.33932 0.50106 -1.51873e-19)
(1.3352 0.539499 1.70739e-19)
(1.32704 0.579922 0)
(1.31672 0.621766 9.59859e-20)
(1.30436 0.665148 0)
(1.29018 0.710136 0)
(1.27443 0.756765 0)
(1.25733 0.805053 0)
(1.23907 0.854994 -1.51321e-19)
(1.21979 0.906496 1.63198e-19)
(1.19945 0.959175 9.18971e-20)
(1.17751 1.01182 -1.73914e-19)
(1.15232 1.06146 -7.86808e-20)
(1.1205 1.10221 0)
(1.07644 1.12462 -1.79585e-19)
(1.0126 1.11595 1.26947e-19)
(0.920524 1.06199 3.37433e-20)
(0.792447 0.949684 4.80905e-20)
(0.622792 0.769865 -8.58862e-21)
(0.409615 0.518655 1.55816e-20)