/*--------------------------------*- C++ -*----------------------------------*\
| =========                 |                                                 |
| \\      /  F ield         | OpenFOAM Extend Project: Open source CFD        |
|  \\    /   O peration     | Version:  1.6-ext                               |
|   \\  /    A nd           | Web:      www.extend-project.de                 |
|    \\/     M anipulation  |                                                 |
\*---------------------------------------------------------------------------*/
FoamFile
{
    version     2.0;
    format      ascii;
    class       volScalarField::DimensionedInternalField;
    location    "1";
    object      V0;
}
// * * * * * * * * * * * * * * * * * * * * * * * * * * * * * * * * * * * * * //

dimensions      [0 3 0 0 0 0 0];

value           nonuniform List<scalar> 
20940
(
1.17125e-06
1.03822e-06
9.21174e-07
8.18127e-07
7.27343e-07
6.47305e-07
5.76687e-07
5.14334e-07
4.59232e-07
4.10498e-07
3.67359e-07
3.29138e-07
2.95244e-07
2.65157e-07
2.38424e-07
2.14646e-07
1.93473e-07
1.74599e-07
1.57756e-07
1.42708e-07
1.29248e-07
1.17196e-07
1.17143e-06
1.03837e-06
9.21305e-07
8.18244e-07
7.27447e-07
6.474e-07
5.76776e-07
5.14417e-07
4.59311e-07
4.10574e-07
3.6743e-07
3.29205e-07
2.95305e-07
2.65212e-07
2.38473e-07
2.1469e-07
1.93514e-07
1.74638e-07
1.57794e-07
1.42745e-07
1.29285e-07
1.17232e-07
1.17401e-06
1.04066e-06
9.23337e-07
8.20048e-07
7.29053e-07
6.48831e-07
5.78053e-07
5.1556e-07
4.60336e-07
4.11495e-07
3.6826e-07
3.29953e-07
2.9598e-07
2.65821e-07
2.39022e-07
2.15185e-07
1.9396e-07
1.75042e-07
1.5816e-07
1.43079e-07
1.29591e-07
1.17513e-07
1.17829e-06
1.04445e-06
9.267e-07
8.23037e-07
7.31713e-07
6.51201e-07
5.80167e-07
5.17448e-07
4.62024e-07
4.13006e-07
3.69616e-07
3.31172e-07
2.97078e-07
2.66812e-07
2.39917e-07
2.15993e-07
1.9469e-07
1.75701e-07
1.58757e-07
1.43621e-07
1.30084e-07
1.17963e-07
1.18354e-06
1.04914e-06
9.30897e-07
8.26797e-07
7.35087e-07
6.54234e-07
5.82898e-07
5.19909e-07
4.64244e-07
4.15012e-07
3.71429e-07
3.32814e-07
2.98567e-07
2.68165e-07
2.41149e-07
2.17117e-07
1.95715e-07
1.76637e-07
1.59611e-07
1.444e-07
1.30796e-07
1.18614e-07
1.19038e-06
1.05526e-06
9.36381e-07
8.3172e-07
7.39514e-07
6.58222e-07
5.86499e-07
5.23166e-07
4.67195e-07
4.17688e-07
3.73859e-07
3.35022e-07
3.00575e-07
2.69994e-07
2.42817e-07
2.1864e-07
1.97109e-07
1.77913e-07
1.6078e-07
1.45471e-07
1.31776e-07
1.19511e-07
1.19875e-06
1.0628e-06
9.43173e-07
8.37838e-07
7.45029e-07
6.63201e-07
5.91001e-07
5.27248e-07
4.70904e-07
4.21065e-07
3.76938e-07
3.37833e-07
3.03144e-07
2.72343e-07
2.44966e-07
2.20608e-07
1.98913e-07
1.79569e-07
1.62301e-07
1.46869e-07
1.33061e-07
1.20692e-07
1.2087e-06
1.07181e-06
9.5133e-07
8.45231e-07
7.51731e-07
6.69277e-07
5.96512e-07
5.32249e-07
4.75451e-07
4.25208e-07
3.80723e-07
3.41297e-07
3.0632e-07
2.75257e-07
2.47642e-07
2.23067e-07
2.01173e-07
1.81647e-07
1.64215e-07
1.48632e-07
1.34688e-07
1.22195e-07
1.2201e-06
1.08218e-06
9.60781e-07
8.53857e-07
7.5961e-07
6.76476e-07
6.03087e-07
5.38253e-07
4.8093e-07
4.3021e-07
3.85293e-07
3.45481e-07
3.10158e-07
2.78786e-07
2.50892e-07
2.26062e-07
2.03936e-07
1.84197e-07
1.66569e-07
1.50807e-07
1.36699e-07
1.24056e-07
1.23286e-06
1.09383e-06
9.71447e-07
8.63631e-07
7.68584e-07
6.84727e-07
6.10681e-07
5.45244e-07
4.87365e-07
4.36125e-07
3.90728e-07
3.50471e-07
3.14742e-07
2.83003e-07
2.54777e-07
2.2965e-07
2.07253e-07
1.87267e-07
1.69412e-07
1.53441e-07
1.39139e-07
1.26317e-07
1.24681e-06
1.10665e-06
9.83227e-07
8.7447e-07
7.78568e-07
6.93937e-07
6.19192e-07
5.5312e-07
4.94663e-07
4.42891e-07
3.96998e-07
3.56276e-07
3.2011e-07
2.8796e-07
2.59356e-07
2.33881e-07
2.11169e-07
1.90897e-07
1.72779e-07
1.56566e-07
1.42041e-07
1.29012e-07
1.26242e-06
1.12106e-06
9.96527e-07
8.86746e-07
7.89901e-07
7.04403e-07
6.28865e-07
5.6207e-07
5.02956e-07
4.5059e-07
4.04153e-07
3.62933e-07
3.26302e-07
2.93715e-07
2.64696e-07
2.3883e-07
2.15752e-07
1.95143e-07
1.76716e-07
1.60222e-07
1.45438e-07
1.3217e-07
1.27888e-06
1.13637e-06
1.01077e-06
9.00004e-07
8.02234e-07
7.15872e-07
6.39523e-07
5.71972e-07
5.12155e-07
4.59139e-07
4.12108e-07
3.70344e-07
3.33217e-07
3.00172e-07
2.70726e-07
2.44455e-07
2.20993e-07
2.00018e-07
1.81248e-07
1.64435e-07
1.49357e-07
1.35819e-07
1.2962e-06
1.15259e-06
1.02595e-06
9.14217e-07
8.15543e-07
7.28332e-07
6.51185e-07
5.82878e-07
5.22343e-07
4.68646e-07
4.20973e-07
3.7861e-07
3.40927e-07
3.07372e-07
2.77458e-07
2.50756e-07
2.2689e-07
2.05533e-07
1.86399e-07
1.69238e-07
1.53833e-07
1.39989e-07
1.31416e-06
1.16953e-06
1.04193e-06
9.29259e-07
8.29699e-07
7.41651e-07
6.63712e-07
5.94659e-07
5.3342e-07
4.7905e-07
4.30735e-07
3.87755e-07
3.49483e-07
3.15372e-07
2.84937e-07
2.57753e-07
2.33444e-07
2.11676e-07
1.92156e-07
1.74631e-07
1.58876e-07
1.44699e-07
1.24251e-06
1.1084e-06
9.89885e-07
8.85063e-07
7.92268e-07
7.10048e-07
6.37128e-07
5.72394e-07
5.14869e-07
4.63694e-07
4.18117e-07
3.77476e-07
3.41195e-07
3.0877e-07
2.7976e-07
2.53778e-07
2.30482e-07
2.0957e-07
1.90774e-07
1.73855e-07
1.58604e-07
1.44838e-07
1.21943e-06
1.08729e-06
9.70554e-07
8.67343e-07
7.76011e-07
6.95114e-07
6.23395e-07
5.59752e-07
5.03221e-07
4.52955e-07
4.08212e-07
3.6834e-07
3.32767e-07
3.0099e-07
2.72569e-07
2.47123e-07
2.24314e-07
2.03848e-07
1.85463e-07
1.68928e-07
1.54037e-07
1.40608e-07
1.19747e-06
1.06725e-06
9.52247e-07
8.50604e-07
7.60691e-07
6.81082e-07
6.1053e-07
5.47941e-07
4.92363e-07
4.42961e-07
3.99006e-07
3.59854e-07
3.24942e-07
2.93774e-07
2.65914e-07
2.4098e-07
2.18639e-07
1.98597e-07
1.80597e-07
1.64415e-07
1.49851e-07
1.36727e-07
1.17676e-06
1.0484e-06
9.3507e-07
8.34935e-07
7.46381e-07
6.68e-07
5.98561e-07
5.36981e-07
4.82316e-07
4.3374e-07
3.90531e-07
3.52056e-07
3.17759e-07
2.87153e-07
2.5981e-07
2.35353e-07
2.1345e-07
1.9381e-07
1.76176e-07
1.60324e-07
1.4606e-07
1.33208e-07
1.15746e-06
1.03086e-06
9.19127e-07
8.20422e-07
7.33156e-07
6.55933e-07
5.87535e-07
5.269e-07
4.73091e-07
4.25293e-07
3.82787e-07
3.44948e-07
3.11227e-07
2.81144e-07
2.54276e-07
2.30252e-07
2.08746e-07
1.89471e-07
1.72174e-07
1.56631e-07
1.42647e-07
1.3005e-07
1.13934e-06
1.01446e-06
9.04262e-07
8.06932e-07
7.209e-07
6.44784e-07
5.77382e-07
5.17641e-07
4.64639e-07
4.17569e-07
3.75722e-07
3.38481e-07
3.05301e-07
2.75708e-07
2.49283e-07
2.2566e-07
2.04518e-07
1.85574e-07
1.6858e-07
1.53318e-07
1.39592e-07
1.27233e-07
1.12324e-06
9.99898e-07
8.91069e-07
7.94967e-07
7.10034e-07
6.34906e-07
5.68392e-07
5.09448e-07
4.57163e-07
4.1074e-07
3.69478e-07
3.32765e-07
3.00064e-07
2.70905e-07
2.44874e-07
2.2161e-07
2.00793e-07
1.82144e-07
1.65418e-07
1.504e-07
1.36899e-07
1.24747e-07
1.10854e-06
9.86639e-07
8.79091e-07
7.84135e-07
7.00226e-07
6.26013e-07
5.60317e-07
5.02108e-07
4.50483e-07
4.04652e-07
3.63924e-07
3.27692e-07
2.95426e-07
2.66661e-07
2.40986e-07
2.18045e-07
1.97522e-07
1.79141e-07
1.62657e-07
1.47858e-07
1.34554e-07
1.22583e-07
1.09547e-06
9.74862e-07
8.68473e-07
7.7455e-07
6.91561e-07
6.18172e-07
5.53213e-07
4.95664e-07
4.4463e-07
3.99329e-07
3.59076e-07
3.23272e-07
2.91391e-07
2.62973e-07
2.37613e-07
2.14956e-07
1.94691e-07
1.76543e-07
1.60272e-07
1.45666e-07
1.32538e-07
1.20726e-07
1.084e-06
9.6456e-07
8.59203e-07
7.66196e-07
6.84024e-07
6.11362e-07
5.47055e-07
4.90087e-07
4.39573e-07
3.94738e-07
3.54903e-07
3.19474e-07
2.87931e-07
2.59816e-07
2.34729e-07
2.12318e-07
1.92276e-07
1.74331e-07
1.58243e-07
1.43804e-07
1.30829e-07
1.19154e-07
1.07412e-06
9.55699e-07
8.51243e-07
7.59037e-07
6.77578e-07
6.05551e-07
5.41808e-07
4.85344e-07
4.35279e-07
3.90846e-07
3.51372e-07
3.16265e-07
2.85011e-07
2.57157e-07
2.32304e-07
2.10104e-07
1.90253e-07
1.72479e-07
1.56548e-07
1.4225e-07
1.29403e-07
1.17844e-07
1.06578e-06
9.48224e-07
8.44541e-07
7.5302e-07
6.72168e-07
6.00683e-07
5.37421e-07
4.81385e-07
4.31703e-07
3.87611e-07
3.48441e-07
3.13607e-07
2.82597e-07
2.5496e-07
2.30304e-07
2.08281e-07
1.88588e-07
1.70958e-07
1.55156e-07
1.40976e-07
1.28236e-07
1.16774e-07
1.05891e-06
9.42082e-07
8.39039e-07
7.48087e-07
6.6774e-07
5.96702e-07
5.33838e-07
4.78156e-07
4.28791e-07
3.84981e-07
3.46062e-07
3.11453e-07
2.80643e-07
2.53187e-07
2.28691e-07
2.06813e-07
1.87249e-07
1.69736e-07
1.54038e-07
1.39955e-07
1.27301e-07
1.15919e-07
1.05351e-06
9.37254e-07
8.34716e-07
7.44211e-07
6.64261e-07
5.93576e-07
5.31027e-07
4.75625e-07
4.26509e-07
3.82921e-07
3.44201e-07
3.09769e-07
2.79118e-07
2.51803e-07
2.27434e-07
2.05669e-07
1.86207e-07
1.68784e-07
1.53169e-07
1.39157e-07
1.26567e-07
1.15244e-07
1.04867e-06
9.32971e-07
8.30911e-07
7.4083e-07
6.61255e-07
5.90899e-07
5.28639e-07
4.73493e-07
4.24602e-07
3.81213e-07
3.42668e-07
3.08392e-07
2.77879e-07
2.50687e-07
2.26428e-07
2.0476e-07
1.85386e-07
1.68042e-07
1.52497e-07
1.38549e-07
1.26016e-07
1.147e-07
1.17427e-06
1.04681e-06
9.34195e-07
8.3462e-07
7.465e-07
6.68447e-07
5.9925e-07
5.37846e-07
4.83305e-07
4.34812e-07
3.91653e-07
3.53199e-07
3.18902e-07
2.88278e-07
2.60905e-07
2.36408e-07
2.14461e-07
1.94774e-07
1.77095e-07
1.61201e-07
1.46891e-07
1.33997e-07
1.17456e-06
1.04708e-06
9.34455e-07
8.34864e-07
7.46728e-07
6.6866e-07
5.9945e-07
5.38033e-07
4.8348e-07
4.34976e-07
3.91805e-07
3.53342e-07
3.19035e-07
2.88404e-07
2.6102e-07
2.36518e-07
2.14561e-07
1.94869e-07
1.77184e-07
1.61282e-07
1.4697e-07
1.34068e-07
1.17731e-06
1.04956e-06
9.36687e-07
8.36879e-07
7.48549e-07
6.70308e-07
6.00942e-07
5.39387e-07
4.8471e-07
4.36093e-07
3.92822e-07
3.54268e-07
3.19881e-07
2.89174e-07
2.61727e-07
2.37161e-07
2.15154e-07
1.9541e-07
1.77681e-07
1.61738e-07
1.47388e-07
1.34454e-07
1.18191e-06
1.05369e-06
9.40399e-07
8.40219e-07
7.51559e-07
6.73024e-07
6.03395e-07
5.41604e-07
4.86717e-07
4.37913e-07
3.94473e-07
3.55768e-07
3.21244e-07
2.90416e-07
2.62858e-07
2.38194e-07
2.16096e-07
1.96273e-07
1.78469e-07
1.62463e-07
1.4805e-07
1.35063e-07
1.18775e-06
1.05897e-06
9.45174e-07
8.44543e-07
7.55478e-07
6.76581e-07
6.06627e-07
5.44545e-07
4.89395e-07
4.40354e-07
3.96701e-07
3.57804e-07
3.23105e-07
2.92121e-07
2.64419e-07
2.39627e-07
2.17409e-07
1.97481e-07
1.79579e-07
1.63483e-07
1.48992e-07
1.35929e-07
1.1955e-06
1.06597e-06
9.51514e-07
8.50291e-07
7.60695e-07
6.81322e-07
6.1094e-07
5.48472e-07
4.92975e-07
4.43621e-07
3.99687e-07
3.60533e-07
3.25606e-07
2.94409e-07
2.6652e-07
2.41552e-07
2.19182e-07
1.99107e-07
1.81079e-07
1.64861e-07
1.50263e-07
1.37101e-07
1.20513e-06
1.07471e-06
9.59446e-07
8.575e-07
7.67254e-07
6.87296e-07
6.16387e-07
5.53445e-07
4.97519e-07
4.47778e-07
4.03491e-07
3.6402e-07
3.28802e-07
2.97346e-07
2.69216e-07
2.44035e-07
2.21462e-07
2.01211e-07
1.83014e-07
1.6665e-07
1.5191e-07
1.38624e-07
1.21676e-06
1.08528e-06
9.69066e-07
8.66265e-07
7.7525e-07
6.94596e-07
6.2306e-07
5.5955e-07
5.0311e-07
4.52902e-07
4.08193e-07
3.68337e-07
3.32771e-07
3.00995e-07
2.72576e-07
2.47128e-07
2.24316e-07
2.03841e-07
1.85444e-07
1.68892e-07
1.53985e-07
1.4054e-07
1.23043e-06
1.09774e-06
9.80441e-07
8.76657e-07
7.84753e-07
7.03296e-07
6.31031e-07
5.66859e-07
5.09819e-07
4.59066e-07
4.1386e-07
3.73552e-07
3.37572e-07
3.05419e-07
2.76656e-07
2.50893e-07
2.27792e-07
2.07052e-07
1.88413e-07
1.71638e-07
1.56526e-07
1.42893e-07
1.24617e-06
1.11213e-06
9.93613e-07
8.88724e-07
7.95816e-07
7.13448e-07
6.40355e-07
5.75431e-07
5.17704e-07
4.66325e-07
4.20548e-07
3.79718e-07
3.43261e-07
3.10672e-07
2.81507e-07
2.55378e-07
2.31938e-07
2.10891e-07
1.91964e-07
1.74929e-07
1.59574e-07
1.4572e-07
1.26382e-06
1.12833e-06
1.00848e-06
9.02388e-07
8.08385e-07
7.25017e-07
6.51012e-07
5.85255e-07
5.26766e-07
4.7469e-07
4.28274e-07
3.86858e-07
3.49863e-07
3.1678e-07
2.87162e-07
2.60613e-07
2.36791e-07
2.15386e-07
1.96135e-07
1.78796e-07
1.63164e-07
1.49051e-07
1.28385e-06
1.14673e-06
1.02541e-06
9.17967e-07
8.22734e-07
7.38243e-07
6.63212e-07
5.96514e-07
5.37165e-07
4.843e-07
4.37159e-07
3.95079e-07
3.57472e-07
3.23826e-07
2.93689e-07
2.66664e-07
2.424e-07
2.20591e-07
2.00963e-07
1.83279e-07
1.67325e-07
1.52917e-07
1.30551e-06
1.16672e-06
1.04386e-06
9.3502e-07
8.38499e-07
7.52825e-07
6.76706e-07
6.09009e-07
5.48739e-07
4.95026e-07
4.47104e-07
4.04301e-07
3.66029e-07
3.31768e-07
3.01063e-07
2.73512e-07
2.48763e-07
2.26503e-07
2.06459e-07
1.88388e-07
1.72078e-07
1.57337e-07
1.32892e-06
1.18839e-06
1.06394e-06
9.53629e-07
8.55753e-07
7.68829e-07
6.91556e-07
6.22792e-07
5.61537e-07
5.06912e-07
4.58147e-07
4.14564e-07
3.75568e-07
3.40637e-07
3.09311e-07
2.81184e-07
2.55901e-07
2.33146e-07
2.12641e-07
1.94144e-07
1.77436e-07
1.62327e-07
1.35388e-06
1.21159e-06
1.08551e-06
9.7368e-07
8.74401e-07
7.86176e-07
7.07696e-07
6.37812e-07
5.75517e-07
5.19926e-07
4.70263e-07
4.25846e-07
3.86076e-07
3.50424e-07
3.18428e-07
2.89678e-07
2.63815e-07
2.4052e-07
2.19514e-07
2.00549e-07
1.83407e-07
1.67893e-07
1.35388e-06
1.21159e-06
1.08551e-06
9.73684e-07
8.74405e-07
7.8618e-07
7.077e-07
6.37816e-07
5.75521e-07
5.1993e-07
4.70266e-07
4.25849e-07
3.86078e-07
3.50427e-07
3.18431e-07
2.89681e-07
2.63818e-07
2.40523e-07
2.19517e-07
2.00552e-07
1.83409e-07
1.67895e-07
1.32893e-06
1.18841e-06
1.06396e-06
9.53641e-07
8.55765e-07
7.68841e-07
6.91568e-07
6.22803e-07
5.61547e-07
5.06922e-07
4.58156e-07
4.14572e-07
3.75576e-07
3.40646e-07
3.09319e-07
2.81193e-07
2.55909e-07
2.33153e-07
2.12649e-07
1.9415e-07
1.77442e-07
1.62333e-07
1.30552e-06
1.16674e-06
1.04388e-06
9.35039e-07
8.38518e-07
7.52844e-07
6.76725e-07
6.09027e-07
5.48756e-07
4.95042e-07
4.47119e-07
4.04317e-07
3.66044e-07
3.31783e-07
3.01077e-07
2.73525e-07
2.48775e-07
2.26515e-07
2.0647e-07
1.88398e-07
1.72086e-07
1.57345e-07
1.28387e-06
1.14675e-06
1.02543e-06
9.17993e-07
8.2276e-07
7.38269e-07
6.63237e-07
5.96539e-07
5.3719e-07
4.84324e-07
4.37183e-07
3.95101e-07
3.57493e-07
3.23846e-07
2.93707e-07
2.66681e-07
2.42416e-07
2.20605e-07
2.00976e-07
1.8329e-07
1.67336e-07
1.52926e-07
1.26385e-06
1.12836e-06
1.00852e-06
9.02422e-07
8.08419e-07
7.25051e-07
6.51045e-07
5.85287e-07
5.26797e-07
4.7472e-07
4.28303e-07
3.86885e-07
3.49889e-07
3.16804e-07
2.87183e-07
2.60633e-07
2.36808e-07
2.15403e-07
1.96149e-07
1.78809e-07
1.63176e-07
1.49063e-07
1.24621e-06
1.11218e-06
9.93656e-07
8.88767e-07
7.95859e-07
7.1349e-07
6.40396e-07
5.75469e-07
5.17741e-07
4.6636e-07
4.20581e-07
3.79749e-07
3.4329e-07
3.10699e-07
2.81532e-07
2.55401e-07
2.3196e-07
2.1091e-07
1.91983e-07
1.74945e-07
1.5959e-07
1.45734e-07
1.23048e-06
1.09779e-06
9.80495e-07
8.76711e-07
7.84806e-07
7.03346e-07
6.31079e-07
5.66904e-07
5.09861e-07
4.59105e-07
4.13897e-07
3.73586e-07
3.37604e-07
3.0545e-07
2.76684e-07
2.50919e-07
2.27817e-07
2.07076e-07
1.88434e-07
1.71658e-07
1.56544e-07
1.4291e-07
1.21682e-06
1.08534e-06
9.69133e-07
8.66331e-07
7.75313e-07
6.94657e-07
6.23117e-07
5.59603e-07
5.03159e-07
4.52948e-07
4.08235e-07
3.68377e-07
3.32807e-07
3.01029e-07
2.72607e-07
2.47157e-07
2.24343e-07
2.03867e-07
1.85467e-07
1.68914e-07
1.54005e-07
1.4056e-07
1.20521e-06
1.07479e-06
9.59528e-07
8.5758e-07
7.67331e-07
6.87369e-07
6.16455e-07
5.53508e-07
4.97577e-07
4.4783e-07
4.0354e-07
3.64064e-07
3.28843e-07
2.97383e-07
2.69251e-07
2.44066e-07
2.21493e-07
2.01238e-07
1.83041e-07
1.66674e-07
1.51934e-07
1.38646e-07
1.19559e-06
1.06607e-06
9.51611e-07
8.50386e-07
7.60786e-07
6.81407e-07
6.11019e-07
5.48546e-07
4.93043e-07
4.43684e-07
3.99743e-07
3.60585e-07
3.25652e-07
2.94454e-07
2.6656e-07
2.41591e-07
2.19216e-07
1.99141e-07
1.81108e-07
1.64891e-07
1.50289e-07
1.37127e-07
1.18787e-06
1.05908e-06
9.45284e-07
8.4465e-07
7.55581e-07
6.76678e-07
6.06718e-07
5.4463e-07
4.89473e-07
4.40427e-07
3.96768e-07
3.57865e-07
3.23162e-07
2.92172e-07
2.64466e-07
2.3967e-07
2.1745e-07
1.97517e-07
1.79615e-07
1.63515e-07
1.49023e-07
1.35958e-07
1.18204e-06
1.05382e-06
9.40523e-07
8.40338e-07
7.51672e-07
6.73131e-07
6.03495e-07
5.41698e-07
4.86805e-07
4.37994e-07
3.94548e-07
3.55837e-07
3.21307e-07
2.90474e-07
2.6291e-07
2.38242e-07
2.16139e-07
1.96313e-07
1.78506e-07
1.62497e-07
1.48083e-07
1.35093e-07
1.17746e-06
1.04971e-06
9.3683e-07
8.37015e-07
7.48677e-07
6.70428e-07
6.01054e-07
5.3949e-07
4.84805e-07
4.36182e-07
3.92905e-07
3.54344e-07
3.1995e-07
2.89238e-07
2.61784e-07
2.37214e-07
2.15201e-07
1.95454e-07
1.77721e-07
1.61777e-07
1.47423e-07
1.34488e-07
1.17474e-06
1.04726e-06
9.34628e-07
8.35027e-07
7.4688e-07
6.68801e-07
5.99578e-07
5.3815e-07
4.83587e-07
4.35074e-07
3.91896e-07
3.53426e-07
3.19114e-07
2.88476e-07
2.61088e-07
2.36579e-07
2.14619e-07
1.94921e-07
1.77232e-07
1.61326e-07
1.4701e-07
1.34105e-07
1.17448e-06
1.04702e-06
9.34399e-07
8.34814e-07
7.4668e-07
6.68614e-07
5.99402e-07
5.37985e-07
4.83431e-07
4.34926e-07
3.91756e-07
3.53294e-07
3.1899e-07
2.88361e-07
2.60982e-07
2.3648e-07
2.14527e-07
1.94836e-07
1.77151e-07
1.61251e-07
1.46936e-07
1.34035e-07
1.17411e-06
1.04665e-06
9.34037e-07
8.34466e-07
7.46351e-07
6.68304e-07
5.99114e-07
5.37717e-07
4.83184e-07
4.34699e-07
3.91547e-07
3.53102e-07
3.18813e-07
2.88198e-07
2.60832e-07
2.36342e-07
2.144e-07
1.94719e-07
1.77043e-07
1.61151e-07
1.46846e-07
1.33952e-07
1.1744e-06
1.04692e-06
9.34294e-07
8.34706e-07
7.46575e-07
6.68515e-07
5.99311e-07
5.37903e-07
4.83359e-07
4.34863e-07
3.91702e-07
3.53248e-07
3.1895e-07
2.88326e-07
2.60951e-07
2.36453e-07
2.14504e-07
1.94815e-07
1.77134e-07
1.61236e-07
1.46925e-07
1.34027e-07
1.17715e-06
1.04939e-06
9.36524e-07
8.3672e-07
7.48397e-07
6.70164e-07
6.00807e-07
5.39261e-07
4.84593e-07
4.35986e-07
3.92724e-07
3.54178e-07
3.19797e-07
2.89098e-07
2.61656e-07
2.37097e-07
2.15093e-07
1.95356e-07
1.7763e-07
1.61693e-07
1.47346e-07
1.34415e-07
1.18175e-06
1.05353e-06
9.40239e-07
8.40065e-07
7.51412e-07
6.72885e-07
6.03266e-07
5.41484e-07
4.86605e-07
4.37809e-07
3.94377e-07
3.55678e-07
3.21161e-07
2.90339e-07
2.62786e-07
2.38127e-07
2.16034e-07
1.96216e-07
1.78418e-07
1.62416e-07
1.48009e-07
1.35025e-07
1.18759e-06
1.05881e-06
9.45019e-07
8.44395e-07
7.55338e-07
6.76449e-07
6.06503e-07
5.44429e-07
4.89286e-07
4.40253e-07
3.96606e-07
3.57715e-07
3.23023e-07
2.92043e-07
2.64347e-07
2.3956e-07
2.17348e-07
1.97424e-07
1.79529e-07
1.63438e-07
1.48951e-07
1.35893e-07
1.19534e-06
1.06581e-06
9.51363e-07
8.50146e-07
7.60558e-07
6.81192e-07
6.10818e-07
5.48358e-07
4.92869e-07
4.43522e-07
3.99594e-07
3.60447e-07
3.25525e-07
2.94336e-07
2.66452e-07
2.41491e-07
2.19124e-07
1.99056e-07
1.81031e-07
1.6482e-07
1.50225e-07
1.37067e-07
1.20497e-06
1.07455e-06
9.59295e-07
8.57355e-07
7.67117e-07
6.87167e-07
6.16266e-07
5.53332e-07
4.97414e-07
4.4768e-07
4.03402e-07
3.63938e-07
3.28727e-07
2.97277e-07
2.69154e-07
2.43977e-07
2.21411e-07
2.01164e-07
1.82972e-07
1.66611e-07
1.51875e-07
1.38592e-07
1.2166e-06
1.08512e-06
9.68914e-07
8.6612e-07
7.75112e-07
6.94467e-07
6.22939e-07
5.59438e-07
5.03006e-07
4.52807e-07
4.08106e-07
3.68259e-07
3.32699e-07
3.00931e-07
2.72517e-07
2.47076e-07
2.24268e-07
2.03798e-07
1.85405e-07
1.68856e-07
1.53952e-07
1.4051e-07
1.23027e-06
1.09758e-06
9.80289e-07
8.76512e-07
7.84616e-07
7.03167e-07
6.30911e-07
5.66748e-07
5.09717e-07
4.58972e-07
4.13775e-07
3.73475e-07
3.37503e-07
3.05357e-07
2.766e-07
2.50842e-07
2.27747e-07
2.07011e-07
1.88375e-07
1.71604e-07
1.56495e-07
1.42865e-07
1.24601e-06
1.11198e-06
9.93462e-07
8.88579e-07
7.9568e-07
7.1332e-07
6.40236e-07
5.75321e-07
5.17603e-07
4.66233e-07
4.20464e-07
3.79643e-07
3.43193e-07
3.10611e-07
2.81452e-07
2.55329e-07
2.31894e-07
2.10851e-07
1.91929e-07
1.74896e-07
1.59545e-07
1.45693e-07
1.26366e-06
1.12817e-06
1.00833e-06
9.02246e-07
8.0825e-07
7.24891e-07
6.50895e-07
5.85146e-07
5.26666e-07
4.74599e-07
4.28191e-07
3.86783e-07
3.49795e-07
3.16718e-07
2.87106e-07
2.60564e-07
2.36746e-07
2.15347e-07
1.96099e-07
1.78765e-07
1.63135e-07
1.49026e-07
1.28369e-06
1.14658e-06
1.02526e-06
9.17827e-07
8.22601e-07
7.38119e-07
6.63096e-07
5.96408e-07
5.37067e-07
4.8421e-07
4.37077e-07
3.95004e-07
3.57404e-07
3.23764e-07
2.93633e-07
2.66614e-07
2.42355e-07
2.20551e-07
2.00928e-07
1.83247e-07
1.67298e-07
1.52893e-07
1.30536e-06
1.16657e-06
1.04372e-06
9.34883e-07
8.38369e-07
7.52704e-07
6.76593e-07
6.08904e-07
5.48642e-07
4.94937e-07
4.47022e-07
4.04227e-07
3.65962e-07
3.31707e-07
3.01008e-07
2.73463e-07
2.48718e-07
2.26463e-07
2.06424e-07
1.88357e-07
1.7205e-07
1.57313e-07
1.32877e-06
1.18825e-06
1.06381e-06
9.53496e-07
8.55626e-07
7.6871e-07
6.91444e-07
6.22688e-07
5.61441e-07
5.06824e-07
4.58066e-07
4.1449e-07
3.75502e-07
3.40577e-07
3.09257e-07
2.81136e-07
2.55857e-07
2.33106e-07
2.12606e-07
1.94112e-07
1.77408e-07
1.62302e-07
1.35374e-06
1.21145e-06
1.08537e-06
9.7355e-07
8.74276e-07
7.86058e-07
7.07585e-07
6.37709e-07
5.75421e-07
5.19838e-07
4.70183e-07
4.25773e-07
3.86009e-07
3.50365e-07
3.18374e-07
2.8963e-07
2.63772e-07
2.40481e-07
2.19479e-07
2.00518e-07
1.83378e-07
1.67867e-07
1.35374e-06
1.21146e-06
1.08538e-06
9.73556e-07
8.74282e-07
7.86063e-07
7.0759e-07
6.37714e-07
5.75426e-07
5.19842e-07
4.70187e-07
4.25777e-07
3.86013e-07
3.50368e-07
3.18378e-07
2.89633e-07
2.63775e-07
2.40484e-07
2.19482e-07
2.0052e-07
1.8338e-07
1.67869e-07
1.32879e-06
1.18827e-06
1.06382e-06
9.53514e-07
8.55643e-07
7.68726e-07
6.9146e-07
6.22703e-07
5.61455e-07
5.06837e-07
4.58078e-07
4.14502e-07
3.75512e-07
3.40587e-07
3.09266e-07
2.81145e-07
2.55865e-07
2.33114e-07
2.12613e-07
1.94119e-07
1.77413e-07
1.62307e-07
1.30539e-06
1.1666e-06
1.04375e-06
9.34914e-07
8.38399e-07
7.52732e-07
6.7662e-07
6.08929e-07
5.48666e-07
4.94959e-07
4.47043e-07
4.04246e-07
3.6598e-07
3.31724e-07
3.01023e-07
2.73477e-07
2.48731e-07
2.26475e-07
2.06435e-07
1.88367e-07
1.72058e-07
1.5732e-07
1.28374e-06
1.14662e-06
1.02531e-06
9.17871e-07
8.22644e-07
7.3816e-07
6.63135e-07
5.96444e-07
5.37101e-07
4.84241e-07
4.37106e-07
3.9503e-07
3.57428e-07
3.23787e-07
2.93654e-07
2.66633e-07
2.42372e-07
2.20566e-07
2.00941e-07
1.8326e-07
1.67308e-07
1.52903e-07
1.26372e-06
1.12823e-06
1.00839e-06
9.02304e-07
8.08306e-07
7.24944e-07
6.50945e-07
5.85193e-07
5.2671e-07
4.74639e-07
4.28228e-07
3.86816e-07
3.49826e-07
3.16746e-07
2.87132e-07
2.60586e-07
2.36767e-07
2.15365e-07
1.96116e-07
1.78779e-07
1.63149e-07
1.49038e-07
1.24609e-06
1.11205e-06
9.93535e-07
8.8865e-07
7.95748e-07
7.13385e-07
6.40297e-07
5.75378e-07
5.17656e-07
4.66282e-07
4.20509e-07
3.79683e-07
3.43229e-07
3.10644e-07
2.81482e-07
2.55356e-07
2.31918e-07
2.10873e-07
1.91949e-07
1.74915e-07
1.59562e-07
1.45709e-07
1.23035e-06
1.09767e-06
9.80374e-07
8.76594e-07
7.84695e-07
7.03242e-07
6.30982e-07
5.66815e-07
5.09779e-07
4.59029e-07
4.13827e-07
3.73522e-07
3.37546e-07
3.05396e-07
2.76635e-07
2.50874e-07
2.27776e-07
2.07038e-07
1.884e-07
1.71627e-07
1.56516e-07
1.42884e-07
1.21669e-06
1.08521e-06
9.69007e-07
8.66211e-07
7.752e-07
6.94551e-07
6.23019e-07
5.59512e-07
5.03076e-07
4.52872e-07
4.08166e-07
3.68313e-07
3.32749e-07
3.00976e-07
2.72559e-07
2.47113e-07
2.24303e-07
2.03829e-07
1.85433e-07
1.68882e-07
1.53977e-07
1.40533e-07
1.20507e-06
1.07465e-06
9.59396e-07
8.57454e-07
7.67212e-07
6.87258e-07
6.16353e-07
5.53413e-07
4.9749e-07
4.47752e-07
4.03468e-07
3.64e-07
3.28784e-07
2.97331e-07
2.69201e-07
2.44022e-07
2.21451e-07
2.01202e-07
1.83005e-07
1.66643e-07
1.51904e-07
1.38618e-07
1.19545e-06
1.06592e-06
9.51472e-07
8.50252e-07
7.6066e-07
6.8129e-07
6.10911e-07
5.48446e-07
4.92952e-07
4.43601e-07
3.99668e-07
3.60517e-07
3.25591e-07
2.94396e-07
2.66509e-07
2.41542e-07
2.19174e-07
1.99099e-07
1.81072e-07
1.64856e-07
1.50258e-07
1.37096e-07
1.18771e-06
1.05893e-06
9.45139e-07
8.44511e-07
7.55449e-07
6.76555e-07
6.06604e-07
5.44524e-07
4.89376e-07
4.40338e-07
3.96686e-07
3.57791e-07
3.23094e-07
2.92111e-07
2.6441e-07
2.3962e-07
2.17403e-07
1.97475e-07
1.79575e-07
1.63479e-07
1.48989e-07
1.35925e-07
1.18188e-06
1.05366e-06
9.40372e-07
8.40194e-07
7.51536e-07
6.73003e-07
6.03376e-07
5.41588e-07
4.86702e-07
4.379e-07
3.94462e-07
3.55758e-07
3.21236e-07
2.90409e-07
2.62852e-07
2.38189e-07
2.16091e-07
1.96269e-07
1.78465e-07
1.6246e-07
1.48047e-07
1.35061e-07
1.17729e-06
1.04954e-06
9.36668e-07
8.36861e-07
7.48533e-07
6.70294e-07
6.00929e-07
5.39375e-07
4.84699e-07
4.36084e-07
3.92814e-07
3.54261e-07
3.19875e-07
2.89169e-07
2.61722e-07
2.37157e-07
2.1515e-07
1.95407e-07
1.77679e-07
1.61736e-07
1.47386e-07
1.34452e-07
1.17455e-06
1.04707e-06
9.34444e-07
8.34853e-07
7.46718e-07
6.68652e-07
5.99442e-07
5.38026e-07
4.83474e-07
4.3497e-07
3.918e-07
3.53338e-07
3.19031e-07
2.88401e-07
2.61018e-07
2.36515e-07
2.14559e-07
1.94868e-07
1.77182e-07
1.61281e-07
1.46969e-07
1.34067e-07
1.17426e-06
1.0468e-06
9.34191e-07
8.34617e-07
7.46496e-07
6.68444e-07
5.99247e-07
5.37844e-07
4.83303e-07
4.3481e-07
3.91651e-07
3.53197e-07
3.18901e-07
2.88277e-07
2.60904e-07
2.36407e-07
2.1446e-07
1.94774e-07
1.77094e-07
1.612e-07
1.46891e-07
1.33996e-07
1.17085e-06
1.171e-06
1.17355e-06
1.17779e-06
1.18301e-06
1.18981e-06
1.19816e-06
1.20806e-06
1.21944e-06
1.23218e-06
1.24611e-06
1.2617e-06
1.27811e-06
1.2954e-06
1.31335e-06
1.24173e-06
1.2186e-06
1.19661e-06
1.17591e-06
1.15661e-06
1.13851e-06
1.12246e-06
1.10783e-06
1.09484e-06
1.08349e-06
1.07375e-06
1.06559e-06
1.05893e-06
1.05378e-06
1.04994e-06
1.03783e-06
1.03795e-06
1.04022e-06
1.04398e-06
1.04863e-06
1.05472e-06
1.06223e-06
1.0712e-06
1.08154e-06
1.09318e-06
1.10598e-06
1.12036e-06
1.13563e-06
1.15181e-06
1.16875e-06
1.10765e-06
1.08651e-06
1.06646e-06
1.04763e-06
1.03011e-06
1.01374e-06
9.99226e-07
9.86034e-07
9.74341e-07
9.64135e-07
9.55398e-07
9.48085e-07
9.42122e-07
9.37506e-07
9.34045e-07
9.20794e-07
9.20908e-07
9.22919e-07
9.26255e-07
9.30421e-07
9.35878e-07
9.4264e-07
9.5076e-07
9.60181e-07
9.70829e-07
9.82602e-07
9.95879e-07
1.01008e-06
1.02524e-06
1.0412e-06
9.89189e-07
9.69845e-07
9.51542e-07
9.3439e-07
9.18473e-07
9.03643e-07
8.90499e-07
8.78584e-07
8.68043e-07
8.58858e-07
8.51009e-07
8.44446e-07
8.391e-07
8.34962e-07
8.31846e-07
8.17765e-07
8.17866e-07
8.19657e-07
8.22625e-07
8.26358e-07
8.31255e-07
8.37347e-07
8.44708e-07
8.53303e-07
8.6306e-07
8.73893e-07
8.86154e-07
8.99375e-07
9.13559e-07
9.28598e-07
8.8443e-07
8.6671e-07
8.49984e-07
8.34342e-07
8.19858e-07
8.06407e-07
7.9449e-07
7.83713e-07
7.74198e-07
7.65922e-07
7.5886e-07
7.52963e-07
7.48165e-07
7.44451e-07
7.41641e-07
7.27001e-07
7.27093e-07
7.28689e-07
7.31333e-07
7.34686e-07
7.39089e-07
7.44581e-07
7.51255e-07
7.59106e-07
7.68062e-07
7.78041e-07
7.89366e-07
8.0167e-07
8.14949e-07
8.29105e-07
7.91704e-07
7.75451e-07
7.6015e-07
7.45871e-07
7.32673e-07
7.20456e-07
7.09638e-07
6.99878e-07
6.91278e-07
6.83813e-07
6.7745e-07
6.72144e-07
6.67833e-07
6.64494e-07
6.61957e-07
6.46985e-07
6.47069e-07
6.48493e-07
6.50853e-07
6.53869e-07
6.57837e-07
6.62795e-07
6.68847e-07
6.7602e-07
6.84253e-07
6.93459e-07
7.03923e-07
7.15371e-07
7.27803e-07
7.41117e-07
7.09549e-07
6.94627e-07
6.80613e-07
6.67564e-07
6.55525e-07
6.44414e-07
6.3458e-07
6.25731e-07
6.17949e-07
6.11204e-07
6.05463e-07
6.00685e-07
5.96806e-07
5.93801e-07
5.91508e-07
5.76391e-07
5.76468e-07
5.77742e-07
5.7985e-07
5.82567e-07
5.8615e-07
5.90635e-07
5.96125e-07
6.02678e-07
6.10255e-07
6.18761e-07
6.28435e-07
6.39082e-07
6.50717e-07
6.63239e-07
6.3669e-07
6.22975e-07
6.10124e-07
5.98186e-07
5.87195e-07
5.77076e-07
5.68126e-07
5.60093e-07
5.53041e-07
5.46939e-07
5.41754e-07
5.37443e-07
5.3395e-07
5.31242e-07
5.29169e-07
5.1406e-07
5.14132e-07
5.15273e-07
5.17158e-07
5.19609e-07
5.22851e-07
5.26917e-07
5.31903e-07
5.37888e-07
5.44863e-07
5.52733e-07
5.61687e-07
5.71584e-07
5.82469e-07
5.94242e-07
5.7201e-07
5.5939e-07
5.47595e-07
5.36662e-07
5.26615e-07
5.17389e-07
5.09233e-07
5.01933e-07
4.95533e-07
4.90007e-07
4.85319e-07
4.81425e-07
4.78274e-07
4.75831e-07
4.73955e-07
4.58981e-07
4.59049e-07
4.60071e-07
4.6176e-07
4.63974e-07
4.66911e-07
4.70605e-07
4.7514e-07
4.80606e-07
4.87026e-07
4.94316e-07
5.02613e-07
5.11813e-07
5.21988e-07
5.33052e-07
5.14533e-07
5.02909e-07
4.92068e-07
4.82045e-07
4.72854e-07
4.64432e-07
4.56991e-07
4.50348e-07
4.44534e-07
4.39524e-07
4.35278e-07
4.31757e-07
4.28911e-07
4.26704e-07
4.25006e-07
4.10268e-07
4.10333e-07
4.11251e-07
4.12765e-07
4.14767e-07
4.17432e-07
4.20795e-07
4.24928e-07
4.29921e-07
4.35827e-07
4.42583e-07
4.50282e-07
4.58838e-07
4.6834e-07
4.78734e-07
4.634e-07
4.52686e-07
4.42712e-07
4.33512e-07
4.25093e-07
4.174e-07
4.10603e-07
4.0455e-07
3.99262e-07
3.94714e-07
3.90864e-07
3.87676e-07
3.85102e-07
3.83106e-07
3.81567e-07
3.67149e-07
3.6721e-07
3.68037e-07
3.69395e-07
3.71207e-07
3.73629e-07
3.76695e-07
3.8047e-07
3.85036e-07
3.90463e-07
3.96725e-07
4.03879e-07
4.11841e-07
4.20708e-07
4.30461e-07
4.17859e-07
4.07979e-07
3.98793e-07
3.90338e-07
3.8262e-07
3.75585e-07
3.6937e-07
3.63848e-07
3.59033e-07
3.54898e-07
3.51404e-07
3.48514e-07
3.46184e-07
3.44376e-07
3.42981e-07
3.28947e-07
3.29004e-07
3.29749e-07
3.3097e-07
3.32612e-07
3.34813e-07
3.37613e-07
3.41069e-07
3.45251e-07
3.50237e-07
3.56034e-07
3.62687e-07
3.70106e-07
3.78378e-07
3.87519e-07
3.77252e-07
3.68137e-07
3.59671e-07
3.51892e-07
3.44808e-07
3.3837e-07
3.32681e-07
3.27637e-07
3.23248e-07
3.19484e-07
3.16309e-07
3.13687e-07
3.11574e-07
3.09934e-07
3.08669e-07
2.95069e-07
2.95121e-07
2.95794e-07
2.96893e-07
2.98383e-07
3.00386e-07
3.02945e-07
3.06114e-07
3.09952e-07
3.14535e-07
3.19895e-07
3.26081e-07
3.33002e-07
3.40723e-07
3.49281e-07
3.41001e-07
3.32588e-07
3.24783e-07
3.1762e-07
3.1111e-07
3.0521e-07
2.99999e-07
2.95387e-07
2.91381e-07
2.87951e-07
2.85063e-07
2.8268e-07
2.80762e-07
2.79274e-07
2.78125e-07
2.64997e-07
2.65045e-07
2.65652e-07
2.66644e-07
2.67997e-07
2.69821e-07
2.72162e-07
2.7507e-07
2.78601e-07
2.82818e-07
2.8777e-07
2.93517e-07
2.99978e-07
3.0719e-07
3.15196e-07
3.08602e-07
3.00833e-07
2.93634e-07
2.87034e-07
2.81046e-07
2.75633e-07
2.70855e-07
2.66634e-07
2.62972e-07
2.59843e-07
2.57213e-07
2.55046e-07
2.53304e-07
2.51951e-07
2.50907e-07
2.38278e-07
2.38321e-07
2.38869e-07
2.39765e-07
2.40995e-07
2.42658e-07
2.448e-07
2.47473e-07
2.50725e-07
2.54612e-07
2.59186e-07
2.64519e-07
2.70551e-07
2.77294e-07
2.84783e-07
2.79615e-07
2.72432e-07
2.6579e-07
2.59707e-07
2.54194e-07
2.49222e-07
2.44835e-07
2.40968e-07
2.37619e-07
2.3476e-07
2.32362e-07
2.30389e-07
2.28804e-07
2.27575e-07
2.26624e-07
2.14511e-07
2.14551e-07
2.15046e-07
2.15855e-07
2.16977e-07
2.18494e-07
2.20456e-07
2.22912e-07
2.25911e-07
2.29502e-07
2.33729e-07
2.38672e-07
2.44298e-07
2.50607e-07
2.57616e-07
2.5365e-07
2.47002e-07
2.4087e-07
2.35262e-07