/*--------------------------------*- C++ -*----------------------------------*\
| =========                 |                                                 |
| \\      /  F ield         | OpenFOAM Extend Project: Open source CFD        |
|  \\    /   O peration     | Version:  1.6-ext                               |
|   \\  /    A nd           | Web:      www.extend-project.de                 |
|    \\/     M anipulation  |                                                 |
\*---------------------------------------------------------------------------*/
FoamFile
{
    version     2.0;
    format      ascii;
    class       volScalarField;
    location    "1.5";
    object      p;
}
// * * * * * * * * * * * * * * * * * * * * * * * * * * * * * * * * * * * * * //

dimensions      [0 2 -2 0 0 0 0];

internalField   nonuniform List<scalar> 
70
(
-0.111966
-0.0637443
-0.0221934
0.0117699
0.0327067
0.043399
0.0467386
-0.101685
-0.0882211
-0.0687544
-0.0452996
-0.0246651
-0.0105043
-0.00283839
0.000355761
0.000252086
-0.0708435
-0.0655112
-0.0510875
-0.0329931
-0.0172877
-0.00680794
-0.00142336
0.000596658
-0.000184908
-0.0334023
-0.0340923
-0.0278024
-0.0181813
-0.00930654
-0.00331829
-0.000392711
0.000538574
-0.000594888
-0.00200251
-0.00827542
-0.00895248
-0.00645258
-0.0033175
-0.00104848
-5.24036e-05
0.000148058
-0.000945686
0.01799
0.00855939
0.00331005
0.000938512
9.74446e-05
-0.000172725
-0.000373098
-0.00048092
-0.00119182
0.0285609
0.0172008
0.00920799
0.00407801
0.00109354
-0.000439505
-0.00108995
-0.00116166
-0.0012949
0.0306249
0.0175843
0.00808316
0.00199158
-0.00132462
-0.00271505
-0.00294512
-0.00250868
-0.00172505
)
;

boundaryField
{
    inlet
    {
        type            zeroGradient;
    }
    outlet
    {
        type            totalPressure;
        rho             none;
        psi             none;
        gamma           1;
        p0              uniform 0;
        value           uniform 0;
    }
    fixedWalls
    {
        type            zeroGradient;
    }
    frontAndBack
    {
        type            empty;
    }
    procBoundary1to2
    {
        type            processor;
        value           nonuniform List<scalar> 7(-0.139849 -0.0400077 0.00630516 0.0357722 0.0527186 0.0610103 0.064761);
    }
    procBoundary1to0
    {
        type            processor;
        value           nonuniform List<scalar> 9(-0.110302 -0.0873378 -0.0691331 -0.0472916 -0.0269363 -0.0122262 -0.00373808 0.000109783 0.000721084);
    }
}


// ************************************************************************* //
