/*--------------------------------*- C++ -*----------------------------------*\
| =========                 |                                                 |
| \\      /  F ield         | OpenFOAM Extend Project: Open source CFD        |
|  \\    /   O peration     | Version:  1.6-ext                               |
|   \\  /    A nd           | Web:      www.extend-project.de                 |
|    \\/     M anipulation  |                                                 |
\*---------------------------------------------------------------------------*/
FoamFile
{
    version     2.0;
    format      ascii;
    class       volScalarField;
    location    "3.3";
    object      p;
}
// * * * * * * * * * * * * * * * * * * * * * * * * * * * * * * * * * * * * * //

dimensions      [0 2 -2 0 0 0 0];

internalField   nonuniform List<scalar> 
284
(
0.273117
0.241646
0.23019
0.225232
0.223366
0.223383
0.224299
0.225576
0.227642
0.243899
0.235022
0.229675
0.227166
0.226242
0.226336
0.22694
0.227779
0.230002
0.231943
0.228543
0.225985
0.224843
0.224875
0.225676
0.226711
0.227723
0.230731
0.222472
0.221407
0.220374
0.220188
0.220933
0.222309
0.223781
0.225014
0.228748
0.214661
0.214357
0.213966
0.21405
0.214809
0.216066
0.217288
0.218038
0.221846
0.207563
0.207447
0.207128
0.206892
0.206906
0.207048
0.206758
0.205366
0.207063
0.200818
0.200671
0.200081
0.199097
0.197709
0.195631
0.19196
0.184921
0.179264
0.194453
0.194183
0.193108
0.191074
0.187797
0.182643
0.173969
0.159398
0.114356
0.188716
0.188278
0.186586
0.18331
0.17771
0.168129
0.148707
0.110274
0.0158033
0.183978
0.18332
0.180951
0.176546
0.169329
0.157758
0.137516
0.105366
0.0513573
0.180706
0.179633
0.176435
0.171051
0.163072
0.151566
0.134579
0.11016
0.0768781
0.17941
0.177457
0.173007
0.166558
0.158075
0.146998
0.132502
0.112786
0.0891974
0.181714
0.177189
0.170622
0.162885
0.153912
0.143262
0.130493
0.114117
0.0956044
0.187834
0.178028
0.16882
0.159978
0.150889
0.140814
0.12926
0.115094
0.0990734
0.216068
0.184171
0.169407
0.159514
0.150661
0.141395
0.130802
0.117725
0.10248
-0.118473
-0.0834081
-0.018739
-0.040253
0.0269033
-0.00325654
0.0559101
0.0296833
0.0726305
0.0509052
0.0805359
0.0615225
0.0848
0.0658434
-0.0713382
-0.0628112
-0.0591658
-0.0556832
-0.049644
-0.0400525
-0.0282291
-0.0153032
-0.0048484
-0.0464315
-0.0471338
-0.0467088
-0.0445351
-0.0394222
-0.0311836
-0.0216044
-0.0114571
-0.00446125
-0.0174811
-0.0237678
-0.026572
-0.0267069
-0.0240724
-0.0189692
-0.01311
-0.0068804
-0.0038285
0.0129005
0.00218313
-0.00475961
-0.00835061
-0.00911206
-0.00775357
-0.00573242
-0.00320358
-0.0033069
0.0334568
0.0203246
0.0109466
0.00479949
0.00124718
-0.000399138
-0.00117177
-0.00116873
-0.00296562
0.044441
0.0303096
0.0193403
0.0113619
0.00591045
0.00242589
0.000236531
-0.000873929
-0.00284182
0.0476598
0.0319163
0.0192403
0.00974506
0.00319669
-0.000843498
-0.00293638
-0.00351583
-0.004011
-0.0322521
-0.0331728
-0.0317971
-0.0286453
-0.0238052
-0.0175964
-0.0106152
-0.00571454
0.00556294
-0.0313651
-0.0324523
-0.0314142
-0.0288898
-0.0247658
-0.0191153
-0.0122906
-0.00811443
0.00529031
-0.0329515
-0.0342698
-0.0335257
-0.0313071
-0.0273068
-0.0214609
-0.0140768
-0.00891789
0.00463824
-0.0366548
-0.0379819
-0.0375352
-0.0356045
-0.0315736
-0.0252751
-0.0168154
-0.0103477
0.0034116
-0.0425302
-0.0433716
-0.0431863
-0.0416066
-0.0375428
-0.0306663
-0.0211514
-0.011965
0.00153529
-0.0504367
-0.0497415
-0.0497741
-0.0485544
-0.0443953
-0.0366458
-0.0260178
-0.0142946
-0.000798742
-0.0597862
-0.0555551
-0.0556464
-0.0543554
-0.0500175
-0.0415618
-0.0297995
-0.0163845
-0.00301517
-0.0787174
-0.0617016
-0.0598639
-0.0576616
-0.0524814
-0.0432476
-0.0309192
-0.016967
-0.00444906
)
;

boundaryField
{
    inlet
    {
        type            zeroGradient;
    }
    outlet
    {
        type            totalPressure;
        rho             none;
        psi             none;
        gamma           1;
        p0              uniform 0;
        value           uniform 0;
    }
    fixedWalls
    {
        type            zeroGradient;
    }
    frontAndBack
    {
        type            empty;
    }
}


// ************************************************************************* //
