/*--------------------------------*- C++ -*----------------------------------*\
| =========                 |                                                 |
| \\      /  F ield         | OpenFOAM Extend Project: Open source CFD        |
|  \\    /   O peration     | Version:  1.6-ext                               |
|   \\  /    A nd           | Web:      www.extend-project.de                 |
|    \\/     M anipulation  |                                                 |
\*---------------------------------------------------------------------------*/
FoamFile
{
    version     2.0;
    format      ascii;
    class       surfaceScalarField;
    location    "3.3";
    object      phi;
}
// * * * * * * * * * * * * * * * * * * * * * * * * * * * * * * * * * * * * * //

dimensions      [0 3 -1 0 0 0 0];

internalField   nonuniform List<scalar> 
525
(
0.000160823
3.91768e-05
0.000117058
4.37653e-05
8.14568e-05
3.5601e-05
5.43895e-05
2.70674e-05
3.44123e-05
1.99771e-05
1.94718e-05
1.49405e-05
8.20037e-06
1.12714e-05
9.85098e-07
7.21527e-06
9.85098e-07
0.000204958
3.42187e-05
0.000190341
5.83822e-05
0.000162381
6.35616e-05
0.000128965
6.04832e-05
9.47522e-05
5.41897e-05
6.23913e-05
4.73014e-05
3.34439e-05
4.02188e-05
1.05182e-05
3.0141e-05
1.15033e-05
0.000208667
2.55517e-05
0.000208168
5.88814e-05
0.000194367
7.73629e-05
0.000168868
8.59817e-05
0.000135038
8.802e-05
9.64688e-05
8.58703e-05
5.65384e-05
8.01492e-05
2.03723e-05
6.63072e-05
3.18756e-05
0.000205061
2.04904e-05
0.000208256
5.56871e-05
0.000202858
8.27605e-05
0.000186321
0.000102519
0.000158426
0.000115915
0.000120535
0.000123761
7.54269e-05
0.000125258
2.93948e-05
0.000112339
6.12704e-05
0.000202383
1.81075e-05
0.000205329
5.27411e-05
0.000203914
8.41756e-05
0.00019418
0.000112252
0.000173264
0.000136832
0.00013961
0.000157415
9.33905e-05
0.000171477
3.95946e-05
0.000166135
0.000100865
0.000201258
1.68496e-05
0.000203867
5.01319e-05
0.000204893
8.31493e-05
0.000200643
0.000116502
0.000187068
0.000150407
0.000160146
0.000184337
0.000116356
0.000215266
5.57913e-05
0.0002267
0.000156656
0.000201183
1.56661e-05
0.000204502
4.68135e-05
0.000208277
7.93739e-05
0.000209699
0.00011508
0.000204836
0.00015527
0.000188659
0.000200514
0.000153094
0.000250832
8.78909e-05
0.000291903
0.000244547
0.000201725
1.39414e-05
0.00020683
4.17086e-05
0.00021433
7.18735e-05
0.000222433
0.000106977
0.000228123
0.00014958
0.000226431
0.000202206
0.000204879
0.000272384
0.00013912
0.000357662
0.000383667
0.000202637
1.13042e-05
0.000210314
3.40322e-05
0.000222327
5.98597e-05
0.000238078
9.1227e-05
0.000257526
0.000130132
0.000282475
0.000177257
0.000319947
0.000234912
0.00038515
0.000292458
0.000362113
0.000406704
0.000203921
7.38273e-06
0.000214653
2.33007e-05
0.000231057
4.34558e-05
0.000252963
6.93212e-05
0.000281742
0.000101353
0.000320719
0.00013828
0.0003736
0.000182031
0.000455224
0.000210835
0.000281598
0.000535739
0.000205991
1.39169e-06
0.000220218
9.07384e-06
0.000240093
2.35809e-05
0.000265152
4.42618e-05
0.000296632
6.98732e-05
0.000337131
9.77811e-05
0.0003887
0.000130461
0.00045517
0.000144365
0.000187557
0.000549212
0.00020942
-8.02792e-06
0.00022727
-8.77699e-06
0.000248616
2.23489e-06
0.000273415
1.94633e-05
0.000303081
4.0207e-05
0.000339789
6.10728e-05
0.000386285
8.39652e-05
0.000438708
9.1942e-05
0.000111573
0.000514692
0.000214483
-2.25108e-05
0.00023215
-2.64443e-05
0.000249558
-1.51726e-05
0.000268916
1.05439e-07
0.000292561
1.65618e-05
0.000322576
3.10574e-05
0.000361522
4.50198e-05
0.000403542
4.99215e-05
5.67989e-05
0.000458316
0.000211635
-3.41459e-05
0.000216551
-3.13608e-05
0.000219881
-1.85025e-05
0.000226643
-6.65674e-06
0.000240262
2.94312e-06
0.000261431
9.88871e-06
0.000290918
1.55325e-05
0.000323571
1.72684e-05
1.86013e-05
0.000361769
0.000165854
0.000134493
0.000115991
0.000109334
0.000112277
0.000122166
0.000137699
0.000154967
0.000173568
0.000250879
0.000155825
5.51059e-05
0.000195773
0.00051328
0.000178284
8.72623e-05
0.000481124
0.000585104
0.000142392
8.04998e-05
0.000591866
0.000564506
9.25776e-05
5.50829e-05
0.000589923
0.000503403
4.74907e-05
2.62215e-05
0.000532265
0.00039481
1.4449e-05
5.75891e-06
0.000415273
0.000188017
0.000193776
0.000205549
1.12958e-06
-1.09061e-05
0.000241985
-2.86824e-05
-7.75299e-06
0.000282299
-5.91045e-05
1.87904e-05
0.000317942
-9.39171e-05
5.8274e-05
0.000345065
-0.000129855
0.000102732
0.00036253
-0.000161481
0.000144017
0.000370552
-0.000181458
0.000173435
0.000370952
-0.000190245
0.000189846
-0.000173833
0.000180247
0.000460497
2.17566e-05
0.000457356
-2.55416e-05
0.000463814
-6.55621e-05
0.000471636
-0.00010174
0.000475255
-0.000133474
0.000471578
-0.000157804
0.000460245
-0.000170125
0.000442044
-0.000172043
-0.000152112
0.000587209
2.64144e-05
0.000581182
-1.95147e-05
0.000574677
-5.90569e-05
0.000565065
-9.21285e-05
0.000549934
-0.000118343
0.000527732
-0.000135602
0.000499275
-0.000141668
0.000465434
-0.000138202
-0.000119039
0.000600683
1.56551e-05
0.000600996
-1.98284e-05
0.000592195
-5.02559e-05
0.000574773
-7.47061e-05
0.000548608
-9.21782e-05
0.000514304
-0.000101298
0.000474462
-0.000101826
0.000431359
-9.50997e-05
-8.05248e-05
0.000545835
2.08498e-06
0.000545533
-1.95269e-05
0.000532675
-3.73976e-05
0.000508297
-5.03284e-05
0.000473963
-5.78435e-05
0.000432343
-5.96779e-05
0.000387409
-5.68928e-05
0.000342956
-5.06465e-05
-4.3395e-05
0.000421337
-3.97918e-06
0.00041365
-1.18392e-05
0.000393645
-1.73928e-05
0.000363716
-2.03997e-05
0.000326957
-2.1084e-05
0.00028718
-1.99013e-05
0.000248109
-1.78222e-05
0.000212948
-1.54847e-05
-1.47415e-05
0.000189797
0.000177958
0.000160565
0.000140165
0.000119081
9.91799e-05
8.13577e-05
6.5873e-05
-4.49653e-06
4.49653e-06
-1.37264e-05
9.22986e-06
-2.28226e-05
9.09619e-06
-2.89464e-05
6.12379e-06
-3.07152e-05
1.76879e-06
-2.76849e-05
-3.03028e-06
-2.00911e-05
-7.59375e-06
-9.32491e-06
-1.07662e-05
-1.44134e-05
-9.95165e-06
1.44482e-05
-2.6146e-05
2.54242e-05
-4.0389e-05
2.33392e-05
-4.81195e-05
1.38544e-05
-4.74588e-05
1.10805e-06
-3.83228e-05
-1.21662e-05
-2.21527e-05
-2.37638e-05
-4.25049e-07
-3.24939e-05
-3.55467e-05
-1.20325e-05
2.64807e-05
-3.02694e-05
4.3661e-05
-4.5146e-05
3.82158e-05
-5.1688e-05
2.03964e-05
-4.78925e-05
-2.6875e-06
-3.42457e-05
-2.5813e-05
-1.2821e-05
-4.51886e-05
1.37464e-05
-5.90613e-05
-6.26236e-05
-1.2365e-05
3.88457e-05
-2.97514e-05
6.10474e-05
-4.27666e-05
5.1231e-05
-4.66611e-05
2.42909e-05
-3.9715e-05
-9.63367e-06
-2.26139e-05
-4.2914e-05
2.2254e-06
-7.00279e-05
3.25472e-05
-8.93831e-05
-9.28105e-05
-1.10959e-05
4.99416e-05
-2.37553e-05
7.37068e-05
-3.11228e-05
5.85984e-05
-2.94252e-05
2.25934e-05
-1.77839e-05
-2.12751e-05
3.01441e-06
-6.37123e-05
3.06049e-05
-9.76184e-05
6.16456e-05
-0.000120424
-0.000123532
-7.05219e-06
5.69938e-05
-8.47115e-06
7.51258e-05
-3.62504e-06
5.37523e-05
8.71085e-06
1.02575e-05
2.76444e-05
-4.02087e-05
5.22031e-05
-8.82709e-05
8.06442e-05
-0.000126059
0.000110304
-0.000150083
-0.000151282
5.03684e-06
5.1957e-05
2.36759e-05
5.64867e-05
4.89498e-05
2.84785e-05
7.62991e-05
-1.70919e-05
0.000104392
-6.83016e-05
0.000132423
-0.000116302
0.000158998
-0.000152635
0.00018362
-0.000174705
-0.000171679
4.10509e-05
8.97846e-05
0.000137053
0.000178236
0.000212666
0.000240381
0.000261181
0.000276322
)
;

boundaryField
{
    inlet
    {
        type            calculated;
        value           uniform -0.0002;
    }
    outlet
    {
        type            calculated;
        value           nonuniform List<scalar> 
15
(
5.08852e-06
2.07082e-05
4.08234e-05
6.27341e-05
9.23676e-05
0.000138053
0.000204017
0.00028489
0.000364537
0.000420323
0.000432362
0.000392845
0.000305826
0.000184294
5.11315e-05
)
;
    }
    fixedWalls
    {
        type            calculated;
        value           uniform 0;
    }
    frontAndBack
    {
        type            empty;
    }
}


// ************************************************************************* //
