/*--------------------------------*- C++ -*----------------------------------*\
| =========                 |                                                 |
| \\      /  F ield         | OpenFOAM Extend Project: Open source CFD        |
|  \\    /   O peration     | Version:  1.6-ext                               |
|   \\  /    A nd           | Web:      www.extend-project.de                 |
|    \\/     M anipulation  |                                                 |
\*---------------------------------------------------------------------------*/
FoamFile
{
    version     2.0;
    format      ascii;
    class       volVectorField;
    location    "3.3";
    object      U;
}
// * * * * * * * * * * * * * * * * * * * * * * * * * * * * * * * * * * * * * //

dimensions      [0 1 -1 0 0 0 0];

internalField   nonuniform List<vector> 
284
(
(0.163776 0.0266062 0)
(0.141791 0.0268325 0)
(0.0987614 0.0192487 0)
(0.0663619 0.0121856 0)
(0.0433242 0.00722053 0)
(0.0262012 0.00428357 0)
(0.0131281 0.00254741 0)
(0.0030084 0.000925248 0)
(-0.000689017 -0.00120949 0)
(0.200595 0.0433968 0)
(0.202068 0.0577143 0)
(0.179393 0.0534727 0)
(0.14667 0.044298 0)
(0.111895 0.0349886 0)
(0.0781664 0.0275015 0)
(0.0469268 0.021523 0)
(0.019087 0.0146234 0)
(0.00311135 0.00359717 0)
(0.203091 0.0291464 0)
(0.211012 0.0598095 0)
(0.204655 0.0725579 0)
(0.184366 0.0751829 0)
(0.153846 0.0720913 0)
(0.116835 0.0663069 0)
(0.0764072 0.0587271 0)
(0.0351527 0.0460336 0)
(0.00743862 0.0199624 0)
(0.201519 0.02247 0)
(0.207611 0.0572419 0)
(0.20798 0.0811209 0)
(0.197628 0.0959303 0)
(0.175377 0.103513 0)
(0.142088 0.10563 0)
(0.0993726 0.102419 0)
(0.0494354 0.0879209 0)
(0.0117918 0.0450309 0)
(0.200559 0.0190582 0)
(0.203998 0.0540657 0)
(0.206009 0.0839914 0)
(0.201577 0.108594 0)
(0.187005 0.127857 0)
(0.160138 0.141759 0)
(0.119581 0.148621 0)
(0.064596 0.13812 0)
(0.0174936 0.079355 0)
(0.200229 0.0174014 0)
(0.202377 0.051422 0)
(0.205016 0.0841006 0)
(0.204573 0.115471 0)
(0.196875 0.145253 0)
(0.17791 0.172625 0)
(0.143126 0.194597 0)
(0.086449 0.196137 0)
(0.0277378 0.125533 0)
(0.200213 0.0162742 0)
(0.202449 0.0486659 0)
(0.206495 0.0818755 0)
(0.210082 0.117069 0)
(0.209674 0.154905 0)
(0.201011 0.195125 0)
(0.178093 0.234746 0)
(0.124388 0.254648 0)
(0.0485993 0.198146 0)
(0.200342 0.014884 0)
(0.203625 0.0446455 0)
(0.210226 0.0764563 0)
(0.218787 0.112546 0)
(0.226827 0.15502 0)
(0.231152 0.20584 0)
(0.224067 0.270628 0)
(0.197972 0.340762 0)
(0.060271 0.288148 0)
(0.200546 0.0127597 0)
(0.205496 0.038401 0)
(0.215531 0.0668241 0)
(0.22998 0.100625 0)
(0.247939 0.142331 0)
(0.272063 0.194029 0)
(0.299947 0.261686 0)
(0.358705 0.346158 0)
(0.40002 0.430391 0)
(0.200841 0.00957188 0)
(0.207973 0.0293371 0)
(0.221724 0.0526327 0)
(0.241287 0.0815203 0)
(0.266305 0.117456 0)
(0.301164 0.160444 0)
(0.343504 0.212952 0)
(0.411749 0.256131 0)
(0.493206 0.338191 0)
(0.201389 0.004929 0)
(0.211564 0.0170269 0)
(0.22895 0.0343229 0)
(0.251733 0.0574269 0)
(0.279638 0.0861416 0)
(0.315704 0.11839 0)
(0.360659 0.156453 0)
(0.418339 0.173285 0)
(0.499045 0.228104 0)
(0.202458 -0.00244229 0)
(0.216917 0.000842801 0)
(0.237031 0.0128897 0)
(0.260255 0.0312995 0)
(0.287235 0.0540712 0)
(0.319888 0.0780069 0)
(0.361654 0.105347 0)
(0.409387 0.114539 0)
(0.473544 0.141696 0)
(0.204216 -0.013753 0)
(0.222687 -0.0179529 0)
(0.240623 -0.00823518 0)
(0.258588 0.00772232 0)
(0.279746 0.0260308 0)
(0.30592 0.0436679 0)
(0.340888 0.0618701 0)
(0.38052 0.0684303 0)
(0.429059 0.0790535 0)
(0.201755 -0.0351817 0)
(0.215072 -0.0368216 0)
(0.218311 -0.0230193 0)
(0.222126 -0.00760039 0)
(0.23202 0.0062039 0)
(0.249099 0.0173069 0)
(0.27504 0.0267617 0)
(0.305932 0.0299557 0)
(0.341979 0.032606 0)
(0.164661 -0.0248832 0)
(0.151265 -0.0223105 0)
(0.124042 -0.0126886 0)
(0.110568 -0.00503338 0)
(0.109296 0.000235381 0)
(0.116068 0.00360478 0)
(0.12927 0.00582028 0)
(0.145837 0.00615571 0)
(0.164347 0.00598591 0)
(0.356732 0.166636 0)
(0.188277 0.0426792 0)
(0.54601 0.176288 0)
(0.501234 0.0779963 0)
(0.576852 0.165239 0)
(0.597429 0.0948337 0)
(0.542958 0.116168 0)
(0.58338 0.0703346 0)
(0.482073 0.0664324 0)
(0.521455 0.0388593 0)
(0.37932 0.0258721 0)
(0.407707 0.0116847 0)
(0.181742 0.00340711 0)
(0.192537 -0.000809143 0)
(0.193184 -0.00867273 0)
(0.219037 -0.0228009 0)
(0.26067 -0.0478404 0)
(0.301311 -0.0827064 0)
(0.334116 -0.121403 0)
(0.358042 -0.157053 0)
(0.368625 -0.181391 0)
(0.375986 -0.194108 0)
(0.363665 -0.180887 0)
(0.469569 0.0117667 0)
(0.455569 -0.0314389 0)
(0.458286 -0.0677909 0)
(0.468209 -0.102914 0)
(0.475475 -0.136052 0)
(0.477435 -0.163572 0)
(0.466857 -0.179449 0)
(0.457319 -0.184911 0)
(0.421941 -0.166309 0)
(0.593854 0.0330429 0)
(0.585147 -0.0174882 0)
(0.578106 -0.0599129 0)
(0.571323 -0.0965359 0)
(0.55958 -0.12686 0)
(0.542456 -0.148536 0)
(0.513595 -0.158203 0)
(0.488485 -0.157671 0)
(0.435781 -0.137632 0)
(0.600111 0.023126 0)
(0.603712 -0.0186883 0)
(0.598892 -0.054427 0)
(0.586268 -0.084111 0)
(0.564318 -0.10672 0)
(0.534635 -0.120314 0)
(0.494199 -0.123638 0)
(0.457847 -0.118074 0)
(0.39742 -0.100401 0)
(0.543012 0.00795504 0)
(0.549313 -0.02064 0)
(0.542457 -0.0450885 0)
(0.523728 -0.0641231 0)
(0.493759 -0.0766577 0)
(0.455346 -0.0816755 0)
(0.409456 -0.0797253 0)
(0.36791 -0.072055 0)
(0.310744 -0.0605944 0)
(0.42161 -0.00416256 0)
(0.42085 -0.0181817 0)
(0.406693 -0.0287853 0)
(0.381188 -0.0353059 0)
(0.346925 -0.0377119 0)
(0.307736 -0.0364266 0)
(0.26688 -0.0329046 0)
(0.231218 -0.0282527 0)
(0.188641 -0.0253439 0)
(0.193565 -0.00467258 0)
(0.185432 -0.00726598 0)
(0.17038 -0.00838615 0)
(0.150994 -0.00823944 0)
(0.129766 -0.00728088 0)
(0.108917 -0.00600834 0)
(0.0898548 -0.0049858 0)
(0.073929 -0.00445899 0)
(0.0539122 -0.00519969 0)
(-0.00139456 0.00136536 0)
(-0.00833744 0.00351277 0)
(-0.0187528 0.00377708 0)
(-0.0267556 0.00289733 0)
(-0.0308205 0.00140807 0)
(-0.0301372 -0.000415995 0)
(-0.0238932 -0.0023313 0)
(-0.0186706 -0.0036806 0)
(0.0034311 -0.00598105 0)
(-0.00377763 0.00838375 0)
(-0.0171878 0.0159804 0)
(-0.0345661 0.0153624 0)
(-0.0462374 0.00997476 0)
(-0.0498168 0.00229932 0)
(-0.0446397 -0.00593449 0)
(-0.0301267 -0.0135201 0)
(-0.0173084 -0.0191516 0)
(0.017275 -0.0229542 0)
(-0.00477924 0.020255 0)
(-0.0204695 0.0343634 0)
(-0.0395538 0.030879 0)
(-0.0509815 0.0175831 0)
(-0.0522487 -3.10485e-05 0)
(-0.0431504 -0.0179162 0)
(-0.0235653 -0.0332396 0)
(-0.00429157 -0.0444947 0)
(0.036284 -0.0478115 0)
(-0.0051262 0.0328007 0)
(-0.0207461 0.0527844 0)
(-0.0384682 0.0453698 0)
(-0.0475485 0.023112 0)
(-0.0457552 -0.00533885 0)
(-0.0332834 -0.0335862 0)
(-0.0103892 -0.056873 0)
(0.0137528 -0.0735405 0)
(0.0575451 -0.0771379 0)
(-0.00505437 0.044821 0)
(-0.0179554 0.0686824 0)
(-0.0299278 0.0565031 0)
(-0.0330814 0.0249505 0)
(-0.0259698 -0.0144077 0)
(-0.00923125 -0.0529075 0)
(0.0159214 -0.0838478 0)
(0.0432924 -0.105107 0)
(0.086932 -0.108567 0)
(-0.00401262 0.0545604 0)
(-0.0095402 0.077377 0)
(-0.00818296 0.0593578 0)
(0.000444993 0.0191554 0)
(0.0166486 -0.0293358 0)
(0.0393699 -0.0759247 0)
(0.0664528 -0.112748 0)
(0.0945432 -0.136596 0)
(0.13279 -0.139045 0)
(0.00121627 0.0630229 0)
(0.0102151 0.0736671 0)
(0.0349526 0.0472627 0)
(0.0616734 0.000773041 0)
(0.0903689 -0.0525382 0)
(0.119615 -0.102496 0)
(0.147015 -0.140955 0)
(0.172732 -0.16474 0)
(0.199576 -0.164228 0)
(0.0300073 0.032428 0)
(0.059362 0.0363445 0)
(0.1134 0.00802314 0)
(0.158572 -0.0362926 0)
(0.19728 -0.0858708 0)
(0.229647 -0.131788 0)
(0.252997 -0.1656 0)
(0.272313 -0.185508 0)
(0.281948 -0.179453 0)
)
;

boundaryField
{
    inlet
    {
        type            fixedValue;
        value           uniform (0.2 0 0);
    }
    outlet
    {
        type            zeroGradient;
    }
    fixedWalls
    {
        type            fixedValue;
        value           uniform (0 0 0);
    }
    frontAndBack
    {
        type            empty;
    }
}


// ************************************************************************* //
