/*--------------------------------*- C++ -*----------------------------------*\
| =========                 |                                                 |
| \\      /  F ield         | OpenFOAM Extend Project: Open source CFD        |
|  \\    /   O peration     | Version:  1.6-ext                               |
|   \\  /    A nd           | Web:      www.extend-project.de                 |
|    \\/     M anipulation  |                                                 |
\*---------------------------------------------------------------------------*/
FoamFile
{
    version     2.0;
    format      ascii;
    class       surfaceScalarField;
    location    "1.1";
    object      phi;
}
// * * * * * * * * * * * * * * * * * * * * * * * * * * * * * * * * * * * * * //

dimensions      [0 3 -1 0 0 0 0];

internalField   nonuniform List<scalar> 
127
(
-3.43699e-06
3.43699e-06
-2.42792e-06
-1.00907e-06
3.28874e-06
-5.71666e-06
1.16131e-05
-8.32441e-06
2.06168e-05
-9.00364e-06
2.90235e-05
-8.40671e-06
3.6142e-05
-7.1185e-06
4.17609e-05
-5.61894e-06
-4.61874e-06
-1.73992e-06
5.17691e-06
4.38395e-06
-7.13295e-06
1.84036e-05
-1.97363e-05
3.6454e-05
-2.63748e-05
5.51147e-05
-2.76644e-05
7.21901e-05
-2.5482e-05
8.64795e-05
-2.14079e-05
9.74322e-05
-1.65717e-05
-1.23314e-05
-2.31776e-06
7.49467e-06
5.76034e-06
-1.52111e-05
2.43109e-05
-3.82868e-05
4.80187e-05
-5.00826e-05
7.21831e-05
-5.18289e-05
9.39361e-05
-4.7235e-05
0.000111891
-3.93631e-05
0.000125516
-3.01964e-05
-2.16215e-05
-5.9253e-06
1.342e-05
1.92716e-06
-2.30635e-05
2.39168e-05
-6.02764e-05
5.26782e-05
-7.8844e-05
8.15171e-05
-8.06678e-05
0.000106724
-7.24417e-05
0.00012694
-5.95795e-05
0.000141985
-4.5241e-05
-3.16432e-05
-1.0548e-05
2.3968e-05
-2.28624e-06
-3.13253e-05
2.43023e-05
-8.6865e-05
5.90195e-05
-0.000113561
9.27174e-05
-0.000114366
0.000120891
-0.000100615
0.000142522
-8.12109e-05
0.000158136
-6.08549e-05
-4.17219e-05
-1.20906e-05
3.60586e-05
2.85891e-06
-4.62748e-05
3.69798e-05
-0.000120986
7.70434e-05
-0.000153625
0.000113643
-0.000150965
0.000142624
-0.000129596
0.00016376
-0.000102347
0.00017849
-7.55845e-05
-5.08906e-05
1.08646e-05
2.51939e-05
4.14675e-05
-7.68777e-05
8.17237e-05
-0.000161242
0.000120815
-0.000192716
0.00015311
-0.00018326
0.000176883
-0.000153369
0.000193235
-0.000118699
0.000204292
-8.66417e-05
-5.75544e-05
7.27821e-05
0.00013196
0.000173198
0.000200427
0.000216619
0.000225862
0.000231238
0.000234844
)
;

boundaryField
{
    inlet
    {
        type            calculated;
        value           nonuniform 0();
    }
    outlet
    {
        type            calculated;
        value           nonuniform List<scalar> 8(4.63797e-05 0.000105145 0.000134806 0.000152007 0.000168215 0.000187659 0.000210956 0.000237032);
    }
    fixedWalls
    {
        type            calculated;
        value           uniform 0;
    }
    frontAndBack
    {
        type            empty;
    }
    procBoundary0to1
    {
        type            processor;
        value           nonuniform List<scalar> 9(-4.75882e-05 -0.000136056 -0.00020248 -0.000219945 -0.000199453 -0.000162612 -0.000124076 -9.02469e-05 -5.97424e-05);
    }
}


// ************************************************************************* //
