/*--------------------------------*- C++ -*----------------------------------*\
| =========                 |                                                 |
| \\      /  F ield         | OpenFOAM Extend Project: Open source CFD        |
|  \\    /   O peration     | Version:  1.6-ext                               |
|   \\  /    A nd           | Web:      www.extend-project.de                 |
|    \\/     M anipulation  |                                                 |
\*---------------------------------------------------------------------------*/
FoamFile
{
    version     2.0;
    format      ascii;
    class       volVectorField;
    location    "1.1";
    object      U;
}
// * * * * * * * * * * * * * * * * * * * * * * * * * * * * * * * * * * * * * //

dimensions      [0 1 -1 0 0 0 0];

internalField   nonuniform List<vector> 
72
(
(-0.00249801 0.0021425 0)
(-0.00424567 0.000584895 0)
(-0.000308538 -0.00134164 0)
(0.00724181 -0.00247039 0)
(0.016218 -0.00284157 0)
(0.0250642 -0.00271012 0)
(0.0328622 -0.00231918 0)
(0.0392868 -0.00189464 0)
(0.0451975 -0.00177658 0)
(-0.00241574 0.00464431 0)
(-0.00107473 -0.00280296 0)
(0.010294 -0.0106885 0)
(0.027205 -0.0149898 0)
(0.0460721 -0.0160245 0)
(0.0642111 -0.0149024 0)
(0.0799893 -0.0125907 0)
(0.0926489 -0.00984892 0)
(0.10355 -0.00773173 0)
(-0.00316285 0.00597804 0)
(-0.00147399 -0.0109314 0)
(0.013577 -0.0280229 0)
(0.0359098 -0.0369653 0)
(0.0605374 -0.0385819 0)
(0.0838323 -0.0354439 0)
(0.103797 -0.0297244 0)
(0.11955 -0.0229246 0)
(0.133009 -0.0167063 0)
(-0.00553137 0.00948928 0)
(-0.00643794 -0.0189239 0)
(0.0108239 -0.0480177 0)
(0.0380324 -0.0629992 0)
(0.0677681 -0.0650727 0)
(0.0951557 -0.0590687 0)
(0.117926 -0.049031 0)
(0.13541 -0.0374742 0)
(0.150098 -0.0265301 0)
(-0.00873605 0.0183944 0)
(-0.0125721 -0.0263029 0)
(0.00841572 -0.0718378 0)
(0.0415773 -0.0945292 0)
(0.0769044 -0.0963522 0)
(0.108171 -0.0859016 0)
(0.133019 -0.0701467 0)
(0.151357 -0.0529804 0)
(0.166269 -0.036725 0)
(-0.0111859 0.0282873 0)
(-0.0121046 -0.0375633 0)
(0.018526 -0.102901 0)
(0.0576629 -0.133135 0)
(0.0967316 -0.132667 0)
(0.129689 -0.115403 0)
(0.154572 -0.0922105 0)
(0.172121 -0.0686235 0)
(0.185788 -0.0466491 0)
(0.00278578 0.049003 0)
(0.0206926 -0.0524976 0)
(0.0638309 -0.140842 0)
(0.103519 -0.175925 0)
(0.138417 -0.17016 0)
(0.16618 -0.143995 0)
(0.186026 -0.11241 0)
(0.199433 -0.0824267 0)
(0.20936 -0.0550763 0)
(0.0551523 -0.00785684 0)
(0.101212 -0.110629 0)
(0.1587 -0.189204 0)
(0.190755 -0.214193 0)
(0.209318 -0.198235 0)
(0.221192 -0.163193 0)
(0.228388 -0.124986 0)
(0.232979 -0.0907942 0)
(0.235995 -0.0600538 0)
)
;

boundaryField
{
    inlet
    {
        type            fixedValue;
        value           nonuniform 0();
    }
    outlet
    {
        type            zeroGradient;
    }
    fixedWalls
    {
        type            fixedValue;
        value           uniform (0 0 0);
    }
    frontAndBack
    {
        type            empty;
    }
    procBoundary0to1
    {
        type            processor;
        value           nonuniform List<vector> 9((0.269571 -0.0795232 0) (0.308729 -0.163548 0) (0.322409 -0.216063 0) (0.314826 -0.224191 0) (0.300404 -0.199572 0) (0.286694 -0.16141 0) (0.275736 -0.122838 0) (0.268592 -0.0895595 0) (0.26285 -0.0594691 0));
    }
}


// ************************************************************************* //
