/*--------------------------------*- C++ -*----------------------------------*\
| =========                 |                                                 |
| \\      /  F ield         | OpenFOAM Extend Project: Open source CFD        |
|  \\    /   O peration     | Version:  1.6-ext                               |
|   \\  /    A nd           | Web:      www.extend-project.de                 |
|    \\/     M anipulation  |                                                 |
\*---------------------------------------------------------------------------*/
FoamFile
{
    version     2.0;
    format      ascii;
    class       volScalarField;
    location    "3.2";
    object      p;
}
// * * * * * * * * * * * * * * * * * * * * * * * * * * * * * * * * * * * * * //

dimensions      [0 2 -2 0 0 0 0];

internalField   nonuniform List<scalar> 
284
(
0.271636
0.240165
0.22871
0.223755
0.221893
0.221914
0.222833
0.224112
0.226184
0.242416
0.23354
0.228192
0.225685
0.224766
0.224866
0.225478
0.226322
0.228553
0.230463
0.227063
0.224504
0.223363
0.223399
0.224206
0.225248
0.226263
0.229277
0.220993
0.219929
0.218896
0.21871
0.219457
0.220836
0.222309
0.22354
0.227274
0.213185
0.212881
0.21249
0.212574
0.213332
0.214587
0.215802
0.216541
0.220338
0.20609
0.205974
0.205654
0.205418
0.205429
0.205563
0.205257
0.20384
0.205515
0.199348
0.199202
0.198611
0.197625
0.196233
0.194142
0.190445
0.183369
0.177674
0.192986
0.192717
0.191642
0.189606
0.186324
0.181153
0.172446
0.157823
0.112743
0.187255
0.186817
0.185125
0.181848
0.176242
0.166643
0.147187
0.108696
0.0141778
0.182521
0.181863
0.179495
0.175091
0.167871
0.156287
0.13602
0.103834
0.0498056
0.179255
0.178181
0.174985
0.169604
0.161627
0.150119
0.133125
0.108697
0.0754091
0.177963
0.176011
0.171563
0.165121
0.156645
0.145579
0.131097
0.111396
0.087825
0.180272
0.175747
0.169186
0.161465
0.152495
0.141867
0.12913
0.112792
0.0943162
0.186396
0.176589
0.16738
0.158533
0.149474
0.139435
0.127926
0.113808
0.097835
0.214631
0.182731
0.167969
0.158085
0.149258
0.140032
0.129487
0.116459
0.101254
-0.120139
-0.0851505
-0.0203177
-0.0418696
0.0254402
-0.00470696
0.0545702
0.02839
0.0713843
0.049713
0.0793422
0.0603822
0.0836073
0.0646838
-0.0731529
-0.0646657
-0.0608986
-0.0570027
-0.0502977
-0.0399879
-0.0276801
-0.0146908
-0.0046077
-0.0480779
-0.0487812
-0.0481839
-0.0456102
-0.0399266
-0.0311286
-0.0212007
-0.0110357
-0.00431366
-0.0188982
-0.0250789
-0.0276902
-0.0275117
-0.0244803
-0.0190214
-0.0129491
-0.00671169
-0.00377625
0.0116743
0.00105454
-0.00570987
-0.00906602
-0.00957277
-0.00800342
-0.00584349
-0.00327028
-0.00332192
0.0323379
0.019309
0.0100724
0.00408637
0.000692995
-0.000821602
-0.00148129
-0.00138441
-0.00300697
0.0433717
0.0293321
0.0184723
0.0106126
0.00527983
0.00190735
-0.000160837
-0.00113607
-0.00287678
0.0465526
0.0308826
0.0183065
0.00893693
0.00253285
-0.0013542
-0.00328865
-0.00371134
-0.00399688
-0.0327166
-0.033593
-0.0321097
-0.0288207
-0.0238542
-0.0175773
-0.0106206
-0.00557969
0.0049587
-0.0318884
-0.0329422
-0.0318152
-0.0291592
-0.0249045
-0.0191415
-0.012345
-0.00772083
0.00461254
-0.0335553
-0.0348416
-0.0339958
-0.0316029
-0.0273818
-0.0214018
-0.0140045
-0.00841483
0.00408027
-0.0373653
-0.0386734
-0.038111
-0.035956
-0.0316436
-0.0251001
-0.0166876
-0.00962739
0.00311866
-0.043396
-0.0442413
-0.0439404
-0.0420801
-0.0376254
-0.030331
-0.0207069
-0.0112923
0.00150532
-0.0515349
-0.0508762
-0.0508207
-0.0492653
-0.0445932
-0.0363075
-0.0253447
-0.0135724
-0.000614544
-0.0611919
-0.0570031
-0.0570324
-0.0554034
-0.050453
-0.0413171
-0.0290867
-0.0156129
-0.00271702
-0.0804281
-0.0634525
-0.0615853
-0.0589686
-0.0531189
-0.0431284
-0.0302696
-0.0162363
-0.00414181
)
;

boundaryField
{
    inlet
    {
        type            zeroGradient;
    }
    outlet
    {
        type            totalPressure;
        rho             none;
        psi             none;
        gamma           1;
        p0              uniform 0;
        value           uniform 0;
    }
    fixedWalls
    {
        type            zeroGradient;
    }
    frontAndBack
    {
        type            empty;
    }
}


// ************************************************************************* //
