/*--------------------------------*- C++ -*----------------------------------*\
| =========                 |                                                 |
| \\      /  F ield         | OpenFOAM Extend Project: Open source CFD        |
|  \\    /   O peration     | Version:  1.6-ext                               |
|   \\  /    A nd           | Web:      www.extend-project.de                 |
|    \\/     M anipulation  |                                                 |
\*---------------------------------------------------------------------------*/
FoamFile
{
    version     2.0;
    format      ascii;
    class       surfaceScalarField;
    location    "3.2";
    object      phi;
}
// * * * * * * * * * * * * * * * * * * * * * * * * * * * * * * * * * * * * * //

dimensions      [0 3 -1 0 0 0 0];

internalField   nonuniform List<scalar> 
525
(
0.000160825
3.91748e-05
0.000117069
4.37558e-05
8.14843e-05
3.55851e-05
5.44372e-05
2.70471e-05
3.44797e-05
1.99575e-05
1.95472e-05
1.49325e-05
8.25955e-06
1.12877e-05
1.00742e-06
7.25213e-06
1.00742e-06
0.000204963
3.42118e-05
0.000190367
5.83518e-05
0.000162442
6.35101e-05
0.00012907
6.04188e-05
9.48996e-05
5.41282e-05
6.25569e-05
4.72752e-05
3.35797e-05
4.02649e-05
1.05801e-05
3.02517e-05
1.15875e-05
0.000208671
2.55404e-05
0.000208192
5.88312e-05
0.000194424
7.72782e-05
0.000168965
8.58775e-05
0.000135173
8.79201e-05
9.66245e-05
8.58241e-05
5.66721e-05
8.02173e-05
2.04376e-05
6.64861e-05
3.20251e-05
0.000205065
2.04758e-05
0.000208275
5.56213e-05
0.000202898
8.26543e-05
0.000186378
0.000102398
0.000158493
0.000115805
0.000120609
0.000123708
7.54925e-05
0.000125334
2.94292e-05
0.000112549
6.14543e-05
0.000202386
1.80896e-05
0.000205346
5.26614e-05
0.000203943
8.4057e-05
0.000194203
0.000112138
0.000173261
0.000136747
0.000139586
0.000157383
9.33671e-05
0.000171553
3.95842e-05
0.000166332
0.000101039
0.000201261
1.68282e-05
0.000203885
5.00375e-05
0.000204923
8.30189e-05
0.000200656
0.000116406
0.000187029
0.000150373
0.000160057
0.000184356
0.000116261
0.000215349
5.574e-05
0.000226854
0.000156779
0.000201187
1.5641e-05
0.000204522
4.6703e-05
0.000208315
7.92257e-05
0.000209728
0.000114992
0.00020481
0.000155292
0.000188558
0.000200607
0.000152966
0.00025094
8.78158e-05
0.000292004
0.000244594
0.000201728
1.39132e-05
0.000206848
4.15824e-05
0.000214374
7.17e-05
0.000222488
0.000106879
0.000228144
0.000149636
0.000226373
0.000202378
0.00020476
0.000272553
0.000139032
0.000357732
0.000383627
0.000202639
1.12741e-05
0.000210327
3.38945e-05
0.000222367
5.96598e-05
0.000238148
9.10979e-05
0.000257598
0.000130186
0.000282498
0.000177478
0.000319895
0.000235156
0.000385051
0.000292576
0.000361952
0.000406725
0.000203922
7.35258e-06
0.000214656
2.31604e-05
0.000231075
4.32408e-05
0.000253013
6.91597e-05
0.000281822
0.000101376
0.000320793
0.000138508
0.000373623
0.000182326
0.000455139
0.00021106
0.000281449
0.000535642
0.00020599
1.36288e-06
0.000220207
8.94311e-06
0.000240074
2.3374e-05
0.000265145
4.40887e-05
0.000296655
6.98654e-05
0.00033718
9.79829e-05
0.000388744
0.000130762
0.000455154
0.000144649
0.000187514
0.00054909
0.000209415
-8.05231e-06
0.000227245
-8.88627e-06
0.000248554
2.06491e-06
0.000273332
1.93101e-05
0.000303009
4.01888e-05
0.000339758
6.12333e-05
0.000386292
8.42292e-05
0.000438729
9.22117e-05
0.000111617
0.000514626
0.000214476
-2.25288e-05
0.000232107
-2.65173e-05
0.000249455
-1.52822e-05
0.000268774
-9.29045e-09
0.000292409
1.65536e-05
0.000322477
3.11654e-05
0.000361503
4.52029e-05
0.000403606
5.01095e-05
5.68516e-05
0.000458371
0.000211625
-3.41542e-05
0.000216501
-3.13927e-05
0.000219769
-1.85505e-05
0.000226462
-6.70217e-06
0.000240078
2.93745e-06
0.000261313
9.93034e-06
0.000290911
1.56054e-05
0.000323679
1.73415e-05
1.86179e-05
0.000361913
0.000165846
0.000134453
0.000115903
0.0001092
0.000112138
0.000122068
0.000137674
0.000155015
0.000173633
0.000251226
0.000155499
5.45816e-05
0.000196645
0.000513356
0.000177785
8.63739e-05
0.000481564
0.000584935
0.000141939
7.96055e-05
0.000591704
0.000564298
9.22679e-05
5.43605e-05
0.000589543
0.000503337
4.73017e-05
2.57423e-05
0.000531955
0.000394846
1.43683e-05
5.54421e-06
0.000415044
0.000188001
0.000193545
0.000207082
4.75576e-07
-1.09127e-05
0.000244031
-3.03155e-05
-6.63298e-06
0.000284389
-6.20766e-05
2.17184e-05
0.000319456
-9.81845e-05
6.31177e-05
0.000345549
-0.000134782
0.000108689
0.000361732
-0.000165958
0.000149775
0.000368489
-0.000184454
0.000177697
0.000367858
-0.000190967
0.000191598
-0.000172245
0.00017914
0.000461549
2.04908e-05
0.000458766
-2.75329e-05
0.000465094
-6.84045e-05
0.000472192
-0.000105282
0.000474583
-0.000137173
0.00046942
-0.000160795
0.000456639
-0.000171674
0.000437304
-0.000171631
-0.000150081
0.000587124
2.50709e-05
0.000581084
-2.14937e-05
0.000574199
-6.15186e-05
0.00056378
-9.48641e-05
0.000547476
-0.000120869
0.000523966
-0.000137285
0.000494333
-0.00014204
0.000459745
-0.000137044
-0.000116913
0.000600113
1.4501e-05
0.000600012
-2.13928e-05
0.000590584
-5.20909e-05
0.000572262
-7.65417e-05
0.000545019
-9.36269e-05
0.0005097
-0.000101965
0.000469143
-0.000101483
0.000425873
-9.37738e-05
-7.87432e-05
0.000545155
1.30127e-06
0.000544267
-2.0505e-05
0.000530632
-3.84555e-05
0.000505344
-5.12538e-05
0.000470128
-5.84113e-05
0.000427892
-5.97282e-05
0.000382791
-5.63823e-05
0.000338711
-4.96943e-05
-4.22831e-05
0.000420626
-4.28041e-06
0.000412316
-1.21957e-05
0.000391587
-1.77258e-05
0.000360966
-2.06334e-05
0.000323719
-2.11638e-05
0.000283805
-1.98142e-05
0.000245004
-1.75817e-05
0.000210448
-1.51378e-05
-1.43334e-05
0.000189265
0.000177069
0.000159343
0.00013871
0.000117546
9.7732e-05
8.01503e-05
6.50125e-05
-4.6118e-06
4.6118e-06
-1.38393e-05
9.22753e-06
-2.27055e-05
8.86614e-06
-2.83812e-05
5.67571e-06
-2.95798e-05
1.19859e-06
-2.60081e-05
-3.57173e-06
-1.80621e-05
-7.94592e-06
-7.00406e-06
-1.10581e-05
-1.38064e-05
-9.95207e-06
1.45639e-05
-2.58822e-05
2.51576e-05
-3.94996e-05
2.24836e-05
-4.6298e-05
1.24741e-05
-4.45835e-05
-5.15944e-07
-3.4526e-05
-1.36292e-05
-1.78405e-05
-2.46315e-05
3.5204e-06
-3.24189e-05
-3.51249e-05
-1.19939e-05
2.65577e-05
-2.98889e-05
4.30526e-05
-4.40144e-05
3.66091e-05
-4.94523e-05
1.7912e-05
-4.43988e-05
-5.5694e-06
-2.95979e-05
-2.84302e-05
-7.53696e-06
-4.66924e-05
1.93589e-05
-5.93148e-05
-6.19538e-05
-1.24397e-05
3.89974e-05
-2.96423e-05
6.02553e-05
-4.20319e-05
4.89987e-05
-4.48535e-05
2.07337e-05
-3.66028e-05
-1.38201e-05
-1.81354e-05
-4.68976e-05
7.9105e-06
-7.27383e-05
3.84327e-05
-8.98371e-05
-9.19962e-05
-1.13395e-05
5.03369e-05
-2.40646e-05
7.29805e-05
-3.10617e-05
5.59957e-05
-2.84761e-05
1.81481e-05
-1.56605e-05
-2.66357e-05
6.32205e-06
-6.88802e-05
3.50041e-05
-0.00010142
6.67927e-05
-0.000121626
-0.000122688
-7.32152e-06
5.76584e-05
-8.92123e-06
7.45802e-05
-3.91346e-06
5.0988e-05
8.98964e-06
5.245e-06
2.87246e-05
-4.63706e-05
5.42066e-05
-9.43622e-05
8.34395e-05
-0.000130653
0.000113813
-0.000151999
-0.000150484
5.0461e-06
5.26123e-05
2.37299e-05
5.58964e-05
4.91335e-05
2.55844e-05
7.65369e-05
-2.21584e-05
0.000104887
-7.47207e-05
0.000133173
-0.000122648
0.000159992
-0.000157472
0.000184869
-0.000176876
-0.000170854
4.16996e-05
9.0963e-05
0.000138266
0.000179225
0.000213193
0.00024032
0.000260545
0.000275267
)
;

boundaryField
{
    inlet
    {
        type            calculated;
        value           uniform -0.0002;
    }
    outlet
    {
        type            calculated;
        value           nonuniform List<scalar> 
15
(
6.80238e-06
2.48389e-05
4.61878e-05
6.84752e-05
9.74849e-05
0.000141608
0.000205239
0.000283553
0.000360963
0.000415139
0.000426577
0.000387703
0.000302251
0.000182498
5.06791e-05
)
;
    }
    fixedWalls
    {
        type            calculated;
        value           uniform 0;
    }
    frontAndBack
    {
        type            empty;
    }
}


// ************************************************************************* //
