/*--------------------------------*- C++ -*----------------------------------*\
| =========                 |                                                 |
| \\      /  F ield         | OpenFOAM Extend Project: Open source CFD        |
|  \\    /   O peration     | Version:  1.6-ext                               |
|   \\  /    A nd           | Web:      www.extend-project.de                 |
|    \\/     M anipulation  |                                                 |
\*---------------------------------------------------------------------------*/
FoamFile
{
    version     2.0;
    format      ascii;
    class       volVectorField;
    location    "3.2";
    object      U;
}
// * * * * * * * * * * * * * * * * * * * * * * * * * * * * * * * * * * * * * //

dimensions      [0 1 -1 0 0 0 0];

internalField   nonuniform List<vector> 
284
(
(0.163775 0.026606 0)
(0.141796 0.0268299 0)
(0.0987796 0.0192439 0)
(0.0663991 0.0121797 0)
(0.0433835 0.00721453 0)
(0.0262779 0.00428071 0)
(0.013202 0.0025521 0)
(0.00304919 0.000935819 0)
(-0.000680645 -0.00120591 0)
(0.200595 0.0433927 0)
(0.202078 0.0576967 0)
(0.179432 0.0534425 0)
(0.146751 0.0442605 0)
(0.112026 0.034953 0)
(0.0783342 0.0274879 0)
(0.0470918 0.0215536 0)
(0.0191886 0.0146918 0)
(0.00313877 0.00364407 0)
(0.203091 0.0291368 0)
(0.211021 0.0597686 0)
(0.204691 0.072488 0)
(0.184442 0.0750949 0)
(0.153964 0.0720065 0)
(0.11699 0.0662696 0)
(0.0765659 0.0587882 0)
(0.035257 0.0461864 0)
(0.00746927 0.0200854 0)
(0.201519 0.0224569 0)
(0.207618 0.057183 0)
(0.208009 0.0810223 0)
(0.19768 0.0958107 0)
(0.175441 0.103398 0)
(0.142161 0.105573 0)
(0.0994477 0.102492 0)
(0.0494886 0.0881258 0)
(0.0118084 0.045208 0)
(0.200559 0.019042 0)
(0.204006 0.0539926 0)
(0.206035 0.0838773 0)
(0.201611 0.108471 0)
(0.187019 0.127749 0)
(0.16012 0.141708 0)
(0.11955 0.148695 0)
(0.0645771 0.13833 0)
(0.0174884 0.0795432 0)
(0.200229 0.0173818 0)
(0.202385 0.0513353 0)
(0.205045 0.0839768 0)
(0.204606 0.115365 0)
(0.196871 0.145189 0)
(0.17784 0.17261 0)
(0.143016 0.194671 0)
(0.0863652 0.196314 0)
(0.0277102 0.12569 0)
(0.200213 0.0162509 0)
(0.202458 0.0485638 0)
(0.206528 0.0817384 0)
(0.21013 0.116981 0)
(0.20969 0.154901 0)
(0.200945 0.195175 0)
(0.177953 0.234833 0)
(0.124267 0.254777 0)
(0.0485541 0.19823 0)
(0.200342 0.0148572 0)
(0.203633 0.0445268 0)
(0.210258 0.0762971 0)
(0.218849 0.112459 0)
(0.226883 0.155066 0)
(0.23114 0.205973 0)
(0.223961 0.270753 0)
(0.197823 0.340826 0)
(0.0602487 0.288174 0)
(0.200546 0.0127303 0)
(0.2055 0.0382677 0)
(0.215555 0.0666367 0)
(0.23004 0.100515 0)
(0.248025 0.142395 0)
(0.27212 0.194235 0)
(0.299937 0.261893 0)
(0.358596 0.346227 0)
(0.39994 0.430276 0)
(0.200841 0.00954141 0)
(0.207973 0.0291955 0)
(0.221732 0.0524213 0)
(0.241321 0.0813732 0)
(0.266378 0.1175 0)
(0.30125 0.160682 0)
(0.343564 0.213236 0)
(0.411713 0.256308 0)
(0.493102 0.337988 0)
(0.20139 0.00490016 0)
(0.211559 0.0168888 0)
(0.228934 0.0341058 0)
(0.251716 0.0572529 0)
(0.279644 0.0861483 0)
(0.315744 0.118615 0)
(0.360714 0.156768 0)
(0.418359 0.173567 0)
(0.498985 0.228005 0)
(0.202458 -0.00246829 0)
(0.216906 0.000721074 0)
(0.236988 0.0126935 0)
(0.260177 0.0311283 0)
(0.287148 0.0540541 0)
(0.319834 0.0781944 0)
(0.361644 0.105647 0)
(0.409411 0.114845 0)
(0.473543 0.141725 0)
(0.204216 -0.0137763 0)
(0.22267 -0.018048 0)
(0.240552 -0.00838279 0)
(0.258457 0.00759904 0)
(0.279585 0.0260149 0)
(0.305786 0.0438062 0)
(0.340827 0.0621071 0)
(0.380552 0.0686777 0)
(0.429141 0.0791267 0)
(0.201755 -0.0351951 0)
(0.21505 -0.036873 0)
(0.218231 -0.0230956 0)
(0.221968 -0.00766071 0)
(0.231821 0.00619704 0)
(0.248938 0.0173789 0)
(0.274974 0.0268858 0)
(0.305992 0.030081 0)
(0.342126 0.0326396 0)
(0.164661 -0.024886 0)
(0.151247 -0.0223227 0)
(0.123978 -0.012707 0)
(0.11045 -0.00505082 0)
(0.10915 0.000233561 0)
(0.115942 0.00362148 0)
(0.129207 0.00584747 0)
(0.145856 0.0061786 0)
(0.164418 0.00597888 0)
(0.356864 0.16643 0)
(0.188861 0.0423783 0)
(0.545926 0.175818 0)
(0.501449 0.0772156 0)
(0.576674 0.164735 0)
(0.597239 0.0938851 0)
(0.54283 0.115789 0)
(0.583087 0.069487 0)
(0.482093 0.0662004 0)
(0.521291 0.0382575 0)
(0.379447 0.0257341 0)
(0.407649 0.0113477 0)
(0.181792 0.00335089 0)
(0.192438 -0.000906645 0)
(0.194291 -0.00912197 0)
(0.220824 -0.0241343 0)
(0.262878 -0.0508334 0)
(0.303372 -0.0872891 0)
(0.335409 -0.126883 0)
(0.357989 -0.162233 0)
(0.367223 -0.185114 0)
(0.373185 -0.19545 0)
(0.360012 -0.179595 0)
(0.47026 0.0106181 0)
(0.45683 -0.0332445 0)
(0.459801 -0.0706129 0)
(0.469384 -0.106696 0)
(0.475685 -0.140257 0)
(0.476068 -0.167236 0)
(0.463995 -0.181691 0)
(0.45286 -0.18504 0)
(0.416743 -0.164454 0)
(0.59371 0.0316198 0)
(0.585077 -0.0195309 0)
(0.577945 -0.0626193 0)
(0.570618 -0.0997048 0)
(0.557891 -0.12998 0)
(0.539322 -0.150858 0)
(0.509239 -0.159124 0)
(0.482832 -0.156804 0)
(0.429995 -0.135455 0)
(0.599639 0.021792 0)
(0.602981 -0.0204957 0)
(0.597697 -0.0566218 0)
(0.584302 -0.0864302 0)
(0.561345 -0.108709 0)
(0.530451 -0.121447 0)
(0.489186 -0.123561 0)
(0.4521 -0.116701 0)
(0.39225 -0.0983367 0)
(0.542554 0.00698828 0)
(0.548399 -0.0219481 0)
(0.540868 -0.0465722 0)
(0.521261 -0.0655121 0)
(0.490348 -0.0776217 0)
(0.451071 -0.0819344 0)
(0.404825 -0.0791612 0)
(0.3632 -0.0707963 0)
(0.307105 -0.0590887 0)
(0.421187 -0.00468119 0)
(0.419871 -0.0188232 0)
(0.405018 -0.0294153 0)
(0.37876 -0.0357752 0)
(0.343857 -0.0378991 0)
(0.304308 -0.0362874 0)
(0.263555 -0.0324659 0)
(0.228258 -0.0276203 0)
(0.186766 -0.0246393 0)
(0.193203 -0.00479985 0)
(0.184727 -0.00738258 0)
(0.169313 -0.00846285 0)
(0.149627 -0.00826273 0)
(0.128232 -0.00725444 0)
(0.107384 -0.00594808 0)
(0.0884983 -0.00489831 0)
(0.072829 -0.00434632 0)
(0.0534029 -0.00505074 0)
(-0.00147269 0.00145194 0)
(-0.00850019 0.00356675 0)
(-0.0187987 0.00373636 0)
(-0.0264426 0.0027552 0)
(-0.0299687 0.00119489 0)
(-0.0287101 -0.00063707 0)
(-0.0220322 -0.00250456 0)
(-0.0161955 -0.00392919 0)
(0.00498719 -0.00563001 0)
(-0.00381981 0.00853077 0)
(-0.0171502 0.0159099 0)
(-0.0340703 0.0149108 0)
(-0.0449123 0.00917053 0)
(-0.0474392 0.00130987 0)
(-0.0412494 -0.00684742 0)
(-0.0261491 -0.0140834 0)
(-0.0120054 -0.0193213 0)
(0.0213491 -0.022398 0)
(-0.00480798 0.0203432 0)
(-0.020369 0.0339217 0)
(-0.0388913 0.0296613 0)
(-0.0493308 0.0156864 0)
(-0.0493532 -0.00222618 0)
(-0.0390198 -0.0198868 0)
(-0.0185843 -0.0343489 0)
(0.00198518 -0.0445006 0)
(0.041645 -0.0472641 0)
(-0.00520368 0.0328904 0)
(-0.0208375 0.0520435 0)
(-0.0381571 0.0434231 0)
(-0.0463225 0.0200868 0)
(-0.0432802 -0.00886715 0)
(-0.0294178 -0.0368412 0)
(-0.00559107 -0.0589086 0)
(0.0198133 -0.0738068 0)
(0.0633102 -0.0763527 0)
(-0.00520004 0.045071 0)
(-0.018337 0.067875 0)
(-0.0301847 0.0540387 0)
(-0.032635 0.0209265 0)
(-0.0244485 -0.0192619 0)
(-0.00639401 -0.0575052 0)
(0.0198665 -0.0870823 0)
(0.0483464 -0.10587 0)
(0.0920715 -0.107667 0)
(-0.00414814 0.0550909 0)
(-0.00998463 0.0767079 0)
(-0.00868689 0.0566065 0)
(0.000380087 0.014416 0)
(0.0173483 -0.0352753 0)
(0.0409682 -0.0816948 0)
(0.0689272 -0.117032 0)
(0.0978325 -0.13817 0)
(0.136346 -0.138188 0)
(0.00123469 0.0638198 0)
(0.0102029 0.073202 0)
(0.0350359 0.0444539 0)
(0.0619477 -0.00435739 0)
(0.0908669 -0.0590762 0)
(0.120323 -0.108973 0)
(0.14793 -0.145886 0)
(0.173825 -0.166924 0)
(0.200752 -0.163458 0)
(0.0303891 0.0328704 0)
(0.0603145 0.0355709 0)
(0.114683 0.00502834 0)
(0.159853 -0.041463 0)
(0.198269 -0.0923005 0)
(0.229994 -0.138092 0)
(0.252682 -0.170387 0)
(0.271312 -0.18767 0)
(0.280516 -0.178586 0)
)
;

boundaryField
{
    inlet
    {
        type            fixedValue;
        value           uniform (0.2 0 0);
    }
    outlet
    {
        type            zeroGradient;
    }
    fixedWalls
    {
        type            fixedValue;
        value           uniform (0 0 0);
    }
    frontAndBack
    {
        type            empty;
    }
}


// ************************************************************************* //
