/*--------------------------------*- C++ -*----------------------------------*\
| =========                 |                                                 |
| \\      /  F ield         | OpenFOAM Extend Project: Open source CFD        |
|  \\    /   O peration     | Version:  1.6-ext                               |
|   \\  /    A nd           | Web:      www.extend-project.de                 |
|    \\/     M anipulation  |                                                 |
\*---------------------------------------------------------------------------*/
FoamFile
{
    version     2.0;
    format      ascii;
    class       volSymmTensorField;
    location    "0.3";
    object      DSigma;
}
// * * * * * * * * * * * * * * * * * * * * * * * * * * * * * * * * * * * * * //

dimensions      [1 -1 -2 0 0 0 0];

internalField   nonuniform List<symmTensor> 
328
(
(-0.23893 -0.0471744 -1.93515e-26 -0.0841874 -1.59395e-22 -0.129247)
(-0.213126 -0.0211545 -6.11235e-26 -0.119736 9.24915e-28 -0.133145)
(-0.218164 0.0227238 5.84816e-25 -0.121943 -3.05055e-25 -0.136043)
(-0.261099 0.050723 1.02929e-26 -0.0921915 -1.44794e-22 -0.141316)
(-0.222196 -0.0325749 -4.28385e-25 -0.049594 8.06332e-23 -0.108716)
(-0.213613 -0.0171267 4.35989e-25 -0.0835073 5.15682e-25 -0.118848)
(-0.218586 0.0194489 -2.70821e-24 -0.0841652 1.4214e-24 -0.121101)
(-0.243031 0.0353052 1.80744e-24 -0.0550866 2.98691e-20 -0.119247)
(-0.217847 -0.0203452 -2.19039e-24 -0.0291596 7.38487e-23 -0.0988025)
(-0.225303 -0.0127487 -7.50411e-25 -0.0624567 -7.08539e-25 -0.115104)
(-0.23061 0.0155948 9.89962e-24 -0.0624341 -4.97399e-24 -0.117218)
(-0.23808 0.0225077 -3.28968e-25 -0.0332284 -1.44417e-20 -0.108523)
(-0.212525 -0.0115036 1.72125e-24 -0.0149714 1.28488e-20 -0.0909987)
(-0.228403 -0.00824561 -1.06201e-24 -0.0428371 -8.12942e-25 -0.108496)
(-0.23361 0.011408 -6.55672e-24 -0.0422794 2.92077e-24 -0.110356)
(-0.231905 0.0133057 1.90188e-25 -0.0180695 -1.32093e-20 -0.0999899)
(-0.210609 -0.0056144 4.92756e-23 -0.00671497 -3.48368e-23 -0.0869296)
(-0.232045 -0.00434729 6.58306e-25 -0.0294508 -2.61897e-26 -0.104598)
(-0.237155 0.00766879 -2.5241e-23 -0.0286429 8.28576e-24 -0.106319)
(-0.229219 0.00720198 -2.74459e-25 -0.00924157 1.273e-20 -0.0953842)
(-0.209734 -0.00185283 -1.11322e-22 -0.00180518 -1.13952e-20 -0.0846159)
(-0.233001 -0.00125473 0 -0.0190484 0 -0.10082)
(-0.237898 0.00464574 2.30902e-23 -0.0180948 -7.81639e-24 -0.102397)
(-0.22751 0.00331602 -3.37445e-23 -0.0039681 -1.21549e-20 -0.0925914)
(-0.210164 0.000369166 5.72476e-23 0.000739371 -1.08492e-20 -0.0837699)
(-0.233311 0.000929854 3.91717e-24 -0.0119211 1.62251e-24 -0.0980926)
(-0.237971 0.00247332 0 -0.0109177 0 -0.0995555)
(-0.22708 0.00102393 -4.51246e-23 -0.00119203 -1.74984e-23 -0.0913088)
(-0.211242 0.00154912 -6.87288e-23 0.00190229 1.98655e-20 -0.0837358)
(-0.232675 0.00230549 -8.92656e-24 -0.00697211 -3.01917e-24 -0.095859)
(-0.237065 0.00107854 0 -0.00596399 0 -0.0972115)
(-0.227246 -0.000196242 -4.28597e-24 0.00013655 -1.03888e-20 -0.0908438)
(-0.212756 0.00203731 7.34441e-23 0.00221829 2.21376e-22 -0.0842152)
(-0.231701 0.00301605 1.00469e-23 -0.00382166 -5.47364e-25 -0.094209)
(-0.235806 0.000331019 -2.0531e-23 -0.00284103 4.46878e-24 -0.0954588)
(-0.227799 -0.000709054 8.05803e-23 0.000586098 2.92029e-20 -0.0908853)
(-0.214422 0.00210014 -6.51977e-25 0.00207915 -8.42663e-21 -0.0849373)
(-0.230506 0.00324457 0 -0.00191119 0 -0.0929669)
(-0.234313 5.63961e-05 1.70751e-22 -0.000975664 -2.94979e-23 -0.0941155)
(-0.228449 -0.000789295 2.16405e-23 0.000569567 -1.78362e-20 -0.0911517)
(-0.21608 0.001923 -1.7732e-22 0.00171676 7.80499e-21 -0.0857454)
(-0.229317 0.00315823 1.56627e-22 -0.000880863 7.67558e-24 -0.092079)
(-0.232815 9.15792e-05 -1.56543e-22 -2.87293e-06 3.31088e-23 -0.0931273)
(-0.229033 -0.000626784 -2.16529e-22 0.00032941 -1.52941e-23 -0.0914816)
(-0.21761 0.00163492 1.86106e-22 0.00128037 -6.87952e-21 -0.086532)
(-0.22822 0.0028991 -1.91541e-22 -0.000406339 1.00797e-24 -0.0914506)
(-0.2314 0.000296589 -1.71637e-22 0.000405581 3.37112e-23 -0.0923979)
(-0.229431 -0.000352782 2.01088e-22 2.02728e-05 -7.52761e-21 -0.0917643)
(-0.218954 0.00131779 5.25953e-23 0.000855159 1.06846e-22 -0.0872397)
(-0.227282 0.00257131 0 -0.000259623 0 -0.0910166)
(-0.230132 0.000567794 2.08257e-22 0.000479241 -3.46314e-23 -0.0918612)
(-0.229582 -5.02856e-05 1.8557e-22 -0.000270428 6.76416e-21 -0.0919411)
(-0.220092 0.00101929 -5.38577e-25 0.000487983 5.93766e-21 -0.0878414)
(-0.226512 0.00224352 5.68772e-23 -0.000271745 4.95041e-24 -0.0907134)
(-0.22902 0.000836373 5.93402e-23 0.000388084 -1.37685e-23 -0.0914529)
(-0.229465 0.000232532 2.83606e-22 -0.000495059 -5.65174e-23 -0.0919841)
(-0.22103 0.000761748 -5.01203e-22 0.000200358 -1.05735e-20 -0.0883317)
(-0.225896 0.00195318 -5.09466e-22 -0.000332499 6.83761e-24 -0.0904914)
(-0.22805 0.0010642 -1.24193e-22 0.000242787 2.71072e-23 -0.0911229)
(-0.229088 0.000473036 -1.00663e-21 -0.000632122 1.31173e-22 -0.0918879)
(-0.221792 0.000551059 6.91265e-23 6.45855e-08 9.6473e-21 -0.0887168)
(-0.2254 0.00171476 4.75024e-22 -0.000372442 -6.37542e-24 -0.0903092)
(-0.227187 0.00123595 -5.39929e-22 0.000113145 7.80406e-23 -0.0908294)
(-0.228473 0.000665177 4.93244e-22 -0.000674208 -4.93844e-21 -0.0916588)
(-0.222406 0.000383693 7.37842e-22 -0.000110989 5.58767e-23 -0.089007)
(-0.224984 0.0015277 0 -0.000351647 0 -0.0901341)
(-0.226388 0.00135126 -5.54419e-23 3.93475e-05 6.85825e-24 -0.0905395)
(-0.22765 0.000812359 9.40775e-25 -0.000620006 4.38464e-21 -0.0913081)
(-0.222898 0.000252533 -2.90827e-22 -0.00013096 -3.70734e-21 -0.0892117)
(-0.224602 0.0013837 -2.67446e-22 -0.00024728 -2.97167e-24 -0.0899397)
(-0.225611 0.00141766 5.21089e-22 4.45336e-05 -7.42403e-23 -0.0902267)
(-0.226648 0.000921686 -1.12531e-26 -0.000468375 -4.63778e-23 -0.0908464)
(-0.223283 0.000151156 1.36492e-21 -5.43549e-05 3.15758e-22 -0.0893349)
(-0.224214 0.00127218 2.80312e-22 -4.46865e-05 -2.6694e-23 -0.0897034)
(-0.224815 0.00144528 -2.8031e-22 0.000143732 2.66937e-23 -0.0898684)
(-0.225485 0.000999674 2.89069e-22 -0.000214618 -7.09301e-23 -0.09028)
(-0.223565 7.63023e-05 -1.71613e-21 0.000128263 6.18418e-23 -0.0893745)
(-0.22378 0.00118367 -6.22394e-22 0.000268261 1.5759e-23 -0.0894046)
(-0.22396 0.00144341 -5.75788e-22 0.000349645 5.68637e-23 -0.0894443)
(-0.224172 0.0010498 6.38428e-22 0.000150232 -8.05764e-24 -0.0896089)
(-0.223731 2.98748e-05 1.10096e-21 0.000431297 4.96584e-22 -0.08932)
(-0.223261 0.00111179 1.11719e-21 0.000704076 -6.77137e-23 -0.0890228)
(-0.223012 0.00141891 0 0.000675525 0 -0.0889344)
(-0.222706 0.00107051 -3.0129e-21 0.000639764 -9.67313e-21 -0.0888266)
(-0.223756 1.70546e-05 2.9134e-24 0.000865557 7.78126e-21 -0.0891561)
(-0.222616 0.00105255 -6.02793e-22 0.00127369 6.3039e-23 -0.0885371)
(-0.221928 0.00137504 1.86981e-21 0.00113394 -2.38196e-22 -0.0883176)
(-0.221063 0.00105612 1.17677e-21 0.0012668 1.27377e-20 -0.0879184)
(-0.223582 3.72802e-05 -3.06477e-24 0.00146016 -7.34912e-21 -0.0888489)
(-0.221768 0.000997747 -1.14888e-21 0.00201147 1.22615e-22 -0.0879025)
(-0.22062 0.00130817 -1.11188e-21 0.00175414 2.24896e-22 -0.0875464)
(-0.219149 0.0010021 1.15898e-21 0.00206087 -3.56422e-21 -0.0868353)
(-0.223139 0.000105145 1.30779e-21 0.00222881 -7.21607e-22 -0.088364)
(-0.220673 0.000966403 -2.55295e-21 0.00290979 1.68121e-22 -0.0871054)
(-0.219065 0.00123452 0 0.00253695 0 -0.0866112)
(-0.216962 0.000909413 1.33011e-21 0.00303441 5.80563e-21 -0.085571)
(-0.222437 0.00022038 2.082e-24 0.00303776 5.4569e-21 -0.0877597)
(-0.219373 0.000948788 -4.91529e-23 0.00384742 -3.07775e-23 -0.0862103)
(-0.217334 0.00114578 -1.42456e-21 0.00337085 1.90154e-22 -0.0855854)
(-0.214625 0.000767813 1.03345e-22 0.00404639 -5.88166e-21 -0.0842315)
(-0.221434 0.00036904 -1.56751e-21 0.00385936 -4.87703e-21 -0.08703)
(-0.217835 0.00093776 -1.52354e-21 0.00478425 1.27658e-22 -0.0852205)
(-0.215397 0.0010416 -5.78696e-23 0.00421553 4.13668e-23 -0.0844726)
(-0.212101 0.000587311 -1.44276e-21 0.00506763 5.92854e-23 -0.0828135)
(-0.220129 0.000543991 1.53088e-21 0.00460757 -1.29489e-21 -0.0862087)
(-0.216051 0.00092825 4.80074e-21 0.00564482 -5.47026e-22 -0.0841624)
(-0.213245 0.00092045 1.12787e-22 0.00499547 -8.01867e-23 -0.0832999)
(-0.209396 0.000371913 -7.49638e-25 0.00601005 -1.20455e-21 -0.0813545)
(-0.218501 0.000728744 3.36456e-21 0.00523286 8.81474e-22 -0.0853073)
(-0.214002 0.000913092 -1.01023e-20 0.00637545 7.67461e-22 -0.0830504)
(-0.210865 0.000783717 -3.27498e-21 0.00565706 4.17716e-22 -0.0820831)
(-0.206501 0.000135526 1.09363e-24 0.00682069 1.63369e-21 -0.0798723)
(-0.216552 0.000910314 5.89013e-26 0.00567608 8.51178e-23 -0.0843502)
(-0.211688 0.00088678 7.06238e-21 0.00691932 -6.52041e-22 -0.0819073)
(-0.20826 0.000633235 7.18625e-24 0.00614312 -1.41797e-22 -0.0808466)
(-0.203436 -0.000110497 -7.1954e-21 0.00743464 1.56409e-22 -0.0784007)
(-0.21428 0.0010741 -3.79217e-21 0.00590758 -6.53881e-22 -0.0833489)
(-0.209111 0.000844678 1.1484e-20 0.00724331 -9.05004e-22 -0.080747)
(-0.205436 0.000473154 -1.14918e-20 0.00642006 1.32957e-21 -0.0796065)
(-0.200219 -0.000351516 3.70128e-21 0.00781568 2.07304e-22 -0.0769614)
(-0.211697 0.00120941 5.33508e-25 0.00591236 6.83816e-22 -0.082314)
(-0.206285 0.000784755 -7.89878e-21 0.00732998 6.78974e-22 -0.079582)
(-0.202413 0.000308605 3.89978e-21 0.00646979 -3.06123e-22 -0.0783773)
(-0.19688 -0.000575173 7.89988e-21 0.00794191 -5.5018e-22 -0.0755753)
(-0.208819 0.00130848 -4.20888e-21 0.00570026 1.09516e-21 -0.0812474)
(-0.203228 0.000707318 4.20951e-21 0.00718504 -2.34149e-22 -0.0784173)
(-0.199212 0.000145814 0 0.00629747 0 -0.0771659)
(-0.19345 -0.000770407 4.29237e-21 0.00781754 -2.99334e-22 -0.0742528)
(-0.205667 0.00136798 3.27368e-25 0.00529789 3.78997e-22 -0.0801475)
(-0.199966 0.000615146 4.40424e-21 0.00683158 -3.6692e-22 -0.0772538)
(-0.195861 -8.91495e-06 9.19463e-23 0.00592567 -6.10458e-23 -0.0759739)
(-0.189958 -0.000929563 -4.2935e-21 0.00746545 -9.5911e-22 -0.0729971)
(-0.202266 0.00138846 -1.2037e-24 0.00474556 -1.3326e-21 -0.0790083)
(-0.196526 0.000512817 0 0.00630705 0 -0.0760876)
(-0.192386 -0.000149733 -4.49615e-21 0.00539149 4.27961e-22 -0.0747978)
(-0.186433 -0.00104833 5.50247e-25 0.00692488 5.9741e-22 -0.0718032)
(-0.198648 0.0013738 -1.08497e-22 0.00408981 -1.79873e-21 -0.0778233)
(-0.192937 0.000406002 -4.81178e-21 0.00565654 2.06847e-22 -0.0749122)
(-0.188816 -0.000271893 0 0.00473974 0 -0.0736304)
(-0.182896 -0.00112592 4.75558e-21 0.00624392 2.09046e-21 -0.0706607)
(-0.194843 0.0013302 9.92554e-21 0.00337761 1.71167e-21 -0.0765863)
(-0.189227 0.00030062 -5.00474e-21 0.0049272 1.88014e-22 -0.07372)
(-0.185174 -0.000372077 0 0.00401722 0 -0.0724626)
(-0.179361 -0.00116451 -9.96591e-21 0.00547338 -2.82063e-22 -0.0695552)
(-0.190885 0.00126505 7.64875e-23 0.00265137 -2.43249e-21 -0.0752934)
(-0.185423 0.000202112 -5.1655e-21 0.00416307 2.89295e-22 -0.0725038)
(-0.18148 -0.000448525 -7.47246e-23 0.00326756 4.50136e-23 -0.071285)
(-0.17584 -0.00116852 -5.28744e-21 0.00466116 -4.95321e-21 -0.0684713)
(-0.186804 0.00118594 7.71807e-23 0.00194575 -2.36459e-22 -0.0739432)
(-0.181546 0.000114927 -5.37785e-21 0.00340176 1.36005e-22 -0.0712577)
(-0.17775 -0.000500942 5.2402e-21 0.00252772 -3.34305e-22 -0.0700889)
(-0.172333 -0.0011437 -1.65639e-22 0.00384836 5.41207e-21 -0.0673938)
(-0.18263 0.00109987 5.60228e-21 0.00128636 7.31551e-21 -0.0725375)
(-0.177616 4.22326e-05 0 0.00267259 0 -0.0699775)
(-0.173995 -0.000530271 0 0.00182613 0 -0.0688674)
(-0.168839 -0.00109636 -6.70839e-23 0.00306728 -1.89105e-21 -0.0663088)
(-0.178391 0.00101273 6.06505e-23 0.000689779 -4.86452e-21 -0.0710804)
(-0.173649 -1.41471e-05 5.69301e-21 0.00199627 -1.81125e-22 -0.0686611)
(-0.170221 -0.000538392 -5.69298e-21 0.00118238 1.81123e-22 -0.0676155)
(-0.165353 -0.00103272 5.60631e-21 0.00234091 -1.84455e-21 -0.0652049)
(-0.174109 0.000929124 2.14298e-22 0.00016462 -2.52816e-22 -0.0695779)
(-0.169656 -5.36348e-05 -6.07698e-23 0.00138553 3.33906e-23 -0.0673081)
(-0.166433 -0.000527813 0 0.000607931 0 -0.06633)
(-0.161866 -0.000958395 -7.35461e-26 0.00168364 -6.53057e-23 -0.0640729)
(-0.169806 0.000852262 -6.0166e-21 -0.000286899 -5.34623e-21 -0.0680374)
(-0.165646 -7.66982e-05 1.19889e-20 0.000846428 -1.46922e-22 -0.0659198)
(-0.162631 -0.000501401 -4.92478e-23 0.000107453 -1.06078e-22 -0.0650095)
(-0.158368 -0.000878213 -5.86849e-21 0.00110261 2.9131e-21 -0.0629062)
(-0.165499 0.000784133 -6.38213e-21 -0.000667254 5.66711e-21 -0.0664664)
(-0.161626 -8.46086e-05 -6.12952e-21 0.000379868 1.03415e-23 -0.0644984)
(-0.158816 -0.000462156 6.1827e-21 -0.000319564 -3.72393e-23 -0.0636541)
(-0.15485 -0.000796074 -1.22037e-20 0.000599371 1.12148e-21 -0.0617001)
(-0.161199 0.000725681 6.33859e-21 -0.000982028 2.52501e-22 -0.0648725)
(-0.1576 -7.91986e-05 1.54431e-22 -1.69355e-05 5.45626e-23 -0.063047)
(-0.154985 -0.000413055 1.2667e-20 -0.000677239 -8.69473e-23 -0.062265)
(-0.151301 -0.000714994 -6.32889e-21 0.000171429 -7.23692e-22 -0.0604517)
(-0.156919 0.00067703 1.32972e-20 -0.00123857 2.19856e-22 -0.0632629)
(-0.153573 -6.26453e-05 -6.23543e-21 -0.000349129 6.12109e-23 -0.0615687)
(-0.151138 -0.000356936 3.25171e-20 -0.000971924 2.20586e-22 -0.060844)
(-0.147713 -0.000637195 -1.28596e-20 -0.000186305 1.51407e-22 -0.0591598)
(-0.152665 0.000637712 2.08768e-22 -0.00144494 -5.48229e-22 -0.0616439)
(-0.149545 -3.72909e-05 -1.3183e-20 -0.000623172 -3.06923e-22 -0.0600672)
(-0.147272 -0.000296434 -1.32691e-20 -0.00121111 -2.70079e-22 -0.0593934)
(-0.14408 -0.000564233 -2.63693e-20 -0.00048041 2.72796e-21 -0.0578243)
(-0.148443 0.000606856 2.74805e-20 -0.00160922 -5.25432e-22 -0.0600208)
(-0.145518 -5.50302e-06 -2.7237e-20 -0.000846055 -9.77633e-22 -0.0585458)
(-0.143387 -0.00023394 2.69088e-20 -0.0014026 6.32736e-22 -0.0579158)
(-0.140397 -0.000497139 -2.77479e-22 -0.000718114 -2.7381e-21 -0.056446)
(-0.144256 0.000583356 3.33668e-24 -0.00173896 2.68352e-21 -0.0583978)
(-0.141494 3.04292e-05 -1.38343e-20 -0.00102474 -5.24441e-22 -0.0570075)
(-0.139481 -0.000171583 1.36331e-20 -0.00155396 3.67757e-22 -0.0564139)
(-0.13666 -0.000436537 -2.04414e-22 -0.000906705 -1.58619e-21 -0.0550268)
(-0.140105 0.000565995 -1.42365e-20 -0.00184091 -4.67972e-22 -0.0567782)
(-0.137472 6.83678e-05 2.83409e-20 -0.00116583 1.49341e-21 -0.0554552)
(-0.135554 -0.00011123 -1.43676e-20 -0.00167215 -7.96885e-22 -0.0548905)
(-0.132869 -0.000382755 -2.78521e-20 -0.00105317 -1.59612e-21 -0.053569)
(-0.13599 0.000553541 -3.34535e-24 -0.00192091 -2.64972e-21 -0.0551643)
(-0.133453 0.000106375 0 -0.00127535 0 -0.0538915)
(-0.131607 -5.4479e-05 1.41664e-20 -0.00176336 6.41048e-22 -0.0533481)
(-0.129025 -0.000335909 2.82972e-20 -0.00116395 -2.0628e-21 -0.0520755)
(-0.13191 0.000544813 2.97128e-20 -0.00198383 -1.26831e-21 -0.0535575)
(-0.129437 0.000142741 -1.41206e-22 -0.00135865 -1.65948e-22 -0.0523184)
(-0.127641 -2.67638e-06 -1.46197e-20 -0.0018329 -9.38002e-22 -0.0517894)
(-0.125129 -0.000295965 -1.40823e-20 -0.00124489 -1.18628e-21 -0.0505496)
(-0.127862 0.000538724 6.15228e-23 -0.0020336 5.50719e-21 -0.0519583)
(-0.125424 0.000176003 -1.50109e-20 -0.00142043 -1.24421e-21 -0.0507379)
(-0.123656 4.30801e-05 1.491e-20 -0.00188524 1.08015e-21 -0.0502166)
(-0.121186 -0.000262786 2.39025e-22 -0.00130117 2.60072e-21 -0.0489949)
(-0.123843 0.000534307 -6.11151e-24 -0.00207334 -4.76849e-21 -0.0503666)
(-0.121414 0.000204948 1.51038e-20 -0.00146473 1.23302e-21 -0.0491514)
(-0.119656 8.19287e-05 -4.49637e-20 -0.00192405 -3.39412e-21 -0.0486321)
(-0.117201 -0.000236165 2.01488e-22 -0.00133734 6.01485e-21 -0.0474153)
(-0.119849 0.000530728 -1.56758e-20 -0.0021054 -9.08887e-22 -0.0487818)
(-0.117406 0.000228611 0 -0.00149498 0 -0.0475603)
(-0.115643 0.000113232 0 -0.0019523 0 -0.0470381)
(-0.11318 -0.000215843 -1.52035e-20 -0.00135736 -7.13141e-22 -0.0458149)
(-0.115875 0.000527293 1.57104e-20 -0.00213151 1.43175e-21 -0.0472028)
(-0.1134 0.000246269 0 -0.00151413 0 -0.0459657)
(-0.111619 0.000136565 0 -0.0019723 0 -0.0454365)
(-0.10913 -0.000201525 1.52015e-20 -0.00136471 -8.78258e-22 -0.0441977)
(-0.111917 0.000523442 -1.58956e-20 -0.00215288 2.52124e-21 -0.045628)
(-0.109396 0.000257427 0 -0.00152465 0 -0.0443684)
(-0.107587 0.000151704 0 -0.00198588 0 -0.0438292)
(-0.105058 -0.000192886 -1.47133e-24 -0.00136237 -1.14266e-21 -0.042568)
(-0.107969 0.000518743 -1.61214e-20 -0.00217032 -2.63077e-21 -0.0440559)
(-0.105394 0.000261809 1.61427e-20 -0.00152862 2.00355e-21 -0.0427691)
(-0.103551 0.00015861 0 -0.00199443 0 -0.042218)
(-0.100972 -0.000189574 -1.24028e-24 -0.00135298 -9.61868e-22 -0.0409299)
(-0.104027 0.000512886 2.01276e-23 -0.00218431 1.04612e-21 -0.0424845)
(-0.101393 0.000259336 -1.63456e-20 -0.00152783 -2.16757e-21 -0.0411685)
(-0.0995125 0.000157419 0 -0.00199899 0 -0.0406046)
(-0.0968799 -0.000191217 -1.60055e-20 -0.00133881 -2.07275e-21 -0.0392875)
(-0.100085 0.000505666 -1.67089e-20 -0.00219508 -5.84876e-22 -0.040912)
(-0.0973938 0.000250116 1.63666e-20 -0.00152379 2.21213e-21 -0.039567)
(-0.0954757 0.000148424 -1.63666e-20 -0.00200033 -2.21213e-21 -0.0389904)
(-0.0927895 -0.000197417 1.6004e-20 -0.00132185 9.46419e-22 -0.0376445)
(-0.0961384 0.000496978 3.36271e-20 -0.00220273 1.97744e-21 -0.0393365)
(-0.093395 0.000234416 -1.67281e-20 -0.00151781 -2.50873e-21 -0.0379651)
(-0.0914432 0.000132057 1.63664e-20 -0.00199905 2.27505e-21 -0.0373769)
(-0.0887082 -0.000207763 -1.63662e-20 -0.00130387 -2.10551e-21 -0.0360048)
(-0.0921829 0.000486801 3.39908e-20 -0.00220725 2.31109e-21 -0.0377561)
(-0.0893968 0.000212652 -3.38096e-20 -0.00151101 -5.40697e-21 -0.0363631)
(-0.0874178 0.000108878 -1.67144e-20 -0.00199558 -2.61187e-21 -0.0357653)
(-0.0846431 -0.000221822 1.79181e-22 -0.0012864 2.62977e-21 -0.0343718)
(-0.0882142 0.000475191 -5.15931e-20 -0.00220856 -4.85802e-21 -0.0361691)
(-0.0853989 0.000185364 3.39814e-20 -0.00150435 5.58904e-21 -0.0347613)
(-0.0834019 7.95564e-05 1.67144e-20 -0.00199027 2.61187e-21 -0.0341569)
(-0.0806006 -0.000239149 -1.98958e-23 -0.0012708 -1.52611e-21 -0.0327486)
(-0.0842287 0.000462268 1.72546e-20 -0.0022066 2.55915e-21 -0.0345741)
(-0.0814013 0.000153206 -1.72254e-20 -0.0014987 -3.09971e-21 -0.03316)
(-0.079398 4.48567e-05 1.68546e-20 -0.00198339 2.85262e-21 -0.0325526)
(-0.0765866 -0.000259286 -1.68514e-20 -0.00125826 -3.9293e-22 -0.0311379)
(-0.0802231 0.000448212 1.75916e-20 -0.00220129 2.09206e-21 -0.0329698)
(-0.0774038 0.000116932 1.72254e-20 -0.00149479 3.09971e-21 -0.0315594)
(-0.0754081 5.63035e-06 0 -0.00197522 0 -0.0309533)
(-0.0726061 -0.000281766 -1.69682e-20 -0.00124983 -3.02013e-21 -0.0295424)
(-0.0761949 0.000433258 1.96336e-22 -0.00219264 -1.48221e-21 -0.031355)
(-0.0734062 7.73885e-05 1.75479e-20 -0.00149329 3.44301e-21 -0.0299598)
(-0.0714337 -3.71903e-05 0 -0.00196601 0 -0.0293599)
(-0.0686633 -0.000306107 1.69682e-20 -0.00124641 3.00633e-21 -0.0279639)
(-0.0721422 0.000417692 1.7686e-20 -0.00218071 1.81429e-21 -0.0297291)
(-0.0694086 3.55127e-05 -1.75192e-20 -0.00149476 -3.49714e-21 -0.0283613)
(-0.0674763 -8.25943e-05 4.09353e-23 -0.00195603 -6.40463e-23 -0.0277729)
(-0.0647615 -0.000331816 3.42825e-20 -0.00124879 4.3395e-21 -0.0264041)
(-0.0680635 0.000401851 -1.78203e-20 -0.00216565 -3.35482e-21 -0.0280916)
(-0.0654108 -7.6687e-06 3.55582e-20 -0.0014997 7.82881e-21 -0.0267642)
(-0.0635366 -0.000129492 -1.69148e-22 -0.00194559 -1.47048e-22 -0.0261929)
(-0.0609027 -0.000358388 -4.9531e-23 -0.00125762 -4.80402e-22 -0.0248641)
(-0.0639583 0.000386124 1.25265e-24 -0.00214772 9.74877e-22 -0.0264424)
(-0.061413 -5.10383e-05 -3.5675e-20 -0.00150855 -8.0447e-21 -0.0251686)
(-0.059615 -0.000176712 1.76784e-20 -0.00193508 4.05732e-21 -0.02462)
(-0.057088 -0.000385299 1.6893e-24 -0.00127345 1.31734e-21 -0.0233446)
(-0.0598267 0.000370949 -3.62818e-20 -0.00212732 -3.78931e-21 -0.0247816)
(-0.057415 -9.33888e-05 3.59591e-20 -0.00152168 8.40528e-21 -0.0235747)
(-0.0557113 -0.000223005 -3.54637e-20 -0.00192491 -8.33936e-21 -0.0230545)
(-0.053317 -0.000412011 -5.02154e-25 -0.00129668 -3.92044e-22 -0.0218455)
(-0.0556698 0.000356815 1.82229e-20 -0.00210502 2.19334e-21 -0.0231099)
(-0.0534169 -0.000133426 1.81105e-20 -0.00153942 4.57312e-21 -0.0219825)
(-0.051825 -0.000267046 5.33925e-20 -0.00191564 1.31572e-20 -0.0214962)
(-0.0495881 -0.000437971 -1.77192e-20 -0.00132764 -1.74842e-21 -0.0203663)
(-0.0514893 0.000344267 1.82693e-20 -0.00208151 2.75361e-21 -0.0214283)
(-0.0494187 -0.00016977 -3.63824e-20 -0.00156205 -9.29021e-21 -0.0203923)
(-0.0479545 -0.000307448 -1.78846e-20 -0.00190788 -4.51077e-21 -0.019945)
(-0.045898 -0.000462627 -6.14942e-25 -0.00136648 -4.81148e-22 -0.0189058)
(-0.0472879 0.000333891 1.19759e-25 -0.00205783 9.36179e-23 -0.0197383)
(-0.0454203 -0.000200961 -1.82928e-20 -0.00158992 -5.03112e-21 -0.0188041)
(-0.044098 -0.000342774 -1.57884e-22 -0.00190249 -1.44878e-22 -0.0184002)
(-0.0422422 -0.000485414 -1.78996e-20 -0.00141337 -2.40672e-21 -0.0174622)
(-0.0430693 0.000326378 -1.84465e-20 -0.00203508 -2.97051e-21 -0.0180418)
(-0.0414215 -0.000225446 3.65876e-20 -0.00162328 1.00619e-20 -0.0172179)
(-0.0402525 -0.000371591 -1.57014e-22 -0.00190037 -1.43463e-22 -0.0168611)
(-0.0386141 -0.000505831 -4.46244e-25 -0.00146819 -3.49797e-22 -0.0160329)
(-0.0388384 0.000322466 -4.52747e-27 -0.00201509 -3.54482e-24 -0.0163414)
(-0.0374222 -0.000241566 -7.14401e-23 -0.00166285 -2.36262e-22 -0.015634)
(-0.0364147 -0.000392545 -1.82064e-20 -0.00190305 -5.45931e-21 -0.0153271)
(-0.0350062 -0.000523418 1.78086e-20 -0.00153121 3.359e-21 -0.0146149)
(-0.0346009 0.000323151 1.85048e-20 -0.0019997 3.35863e-21 -0.0146402)
(-0.0334214 -0.000247503 -1.85092e-20 -0.00170919 -5.73927e-21 -0.0140522)
(-0.0325794 -0.00040455 1.82966e-20 -0.00191204 5.35663e-21 -0.0137966)
(-0.0314085 -0.000538011 4.42564e-25 -0.00160228 3.47405e-22 -0.0132043)
(-0.0303653 0.000329765 -1.89751e-20 -0.00199253 -3.0761e-21 -0.0129431)
(-0.0294187 -0.000241059 -3.72177e-20 -0.00176472 -1.18563e-20 -0.0124734)
(-0.0287418 -0.000407205 1.82681e-20 -0.00193084 5.70289e-21 -0.012269)
(-0.0278118 -0.000549892 4.39205e-25 -0.00168261 3.44959e-22 -0.0117978)
(-0.0261404 0.000344226 -2.3713e-22 -0.00199774 3.0668e-22 -0.0112553)
(-0.025408 -0.000219662 -1.44584e-22 -0.00183082 -1.3527e-22 -0.0108955)
(-0.0248905 -0.000401017 0 -0.00196202 0 -0.010741)
(-0.0242046 -0.000560159 4.08986e-25 -0.00177356 3.21379e-22 -0.0103913)
(-0.021947 0.000370644 3.77331e-20 -0.00202422 6.08472e-21 -0.00958849)
(-0.021391 -0.000179385 -1.87516e-20 -0.00191594 -6.35381e-21 -0.00932278)
(-0.021022 -0.000388653 0 -0.00201534 0 -0.00921493)
(-0.0205855 -0.000572293 -1.81563e-20 -0.00188078 -2.93677e-21 -0.00898649)
(-0.0177916 0.000409984 -3.79394e-20 -0.00208367 -6.3184e-21 -0.0079501)
(-0.017332 -0.000119137 0 -0.002012 0 -0.00773758)
(-0.0170953 -0.000370609 0 -0.00208408 0 -0.00767173)
(-0.0169384 -0.000586965 3.63437e-20 -0.00201213 6.27635e-21 -0.0075802)
(-0.0137568 0.0004596 3.7968e-20 -0.00219547 6.66892e-21 -0.00638092)
(-0.0132874 -4.42996e-05 0 -0.00212814 0 -0.0061662)
(-0.0131607 -0.000343019 1.83287e-20 -0.00217832 6.80762e-21 -0.00613559)
(-0.0133182 -0.000602719 -5.45878e-20 -0.00217939 -1.03195e-20 -0.00619904)
(-0.00969966 0.000443582 -3.77887e-20 -0.00225679 -7.05213e-21 -0.00478258)
(-0.00909503 5.64028e-06 5.61498e-20 -0.00203554 2.13285e-20 -0.00445223)
(-0.00905372 -0.000264105 -2.44975e-22 -0.00207603 -7.43039e-24 -0.0044519)
(-0.00956374 -0.000543694 -3.65708e-20 -0.00228793 -7.35697e-21 -0.00474067)
(-0.0060078 0.000238682 -4.73681e-23 -0.00189535 1.75179e-22 -0.00316126)
(-0.00546004 1.63972e-05 -9.37552e-21 -0.00146685 -7.20222e-21 -0.00277075)
(-0.00546596 -0.000109411 -9.14851e-21 -0.00151788 -7.318e-21 -0.00279354)
(-0.00601542 -0.000292525 2.73574e-20 -0.00197167 1.11578e-20 -0.00319483)
)
;

boundaryField
{
    plateFix
    {
        type            calculated;
        value           nonuniform List<symmTensor> 4((-0.241052 -0.060793 -1.64135e-26 -0.0855992 -1.59395e-22 -0.13066) (-0.200302 -0.0223787 -6.11235e-26 -0.111187 9.24915e-28 -0.124596) (-0.204748 0.0232357 5.84816e-25 -0.113 -3.05055e-25 -0.127099) (-0.263373 0.0649029 5.18487e-26 -0.093706 -1.46241e-22 -0.142832));
    }
    plate
    {
        type            calculated;
        value           nonuniform List<symmTensor> 
168
(
(-0.18341 2.84905e-05 -3.86997e-26 -0.000936002 -3.18764e-22 -0.0737384)
(-0.200217 -2.46458e-05 2.05855e-26 -0.000887925 -2.89584e-22 -0.0804421)
(-0.189747 2.35736e-05 -4.20803e-25 -0.000934408 1.61763e-22 -0.0762724)
(-0.206885 -1.7652e-05 2.35853e-24 -0.000877317 5.97569e-20 -0.0831049)
(-0.199022 1.02531e-05 -3.31429e-24 -0.000929553 1.42254e-22 -0.0799807)
(-0.2165 -2.95695e-06 1.39391e-25 -0.000862005 -2.88754e-20 -0.0869447)
(-0.203162 -8.20399e-06 2.38088e-24 -0.000929135 2.57041e-20 -0.0816364)
(-0.220427 1.63519e-05 3.80594e-25 -0.000852664 -2.64338e-20 -0.0885117)
(-0.206754 -2.91996e-05 4.9003e-23 -0.000933677 -1.09735e-22 -0.0830751)
(-0.223625 3.90612e-05 -2.61507e-25 -0.000850303 2.54669e-20 -0.08979)
(-0.209158 -5.28428e-05 -1.11818e-22 -0.000940539 -2.27073e-20 -0.0840393)
(-0.225433 6.49435e-05 -3.39515e-23 -0.000851819 -2.43343e-20 -0.090514)
(-0.211289 -7.85161e-05 5.67068e-23 -0.000948023 -2.174e-20 -0.0848949)
(-0.226855 9.3627e-05 -4.5126e-23 -0.000855005 -6.04909e-23 -0.0910841)
(-0.213147 -0.000105966 -6.76281e-23 -0.000955647 3.97716e-20 -0.0856413)
(-0.22791 0.000124817 -4.78469e-24 -0.000859174 -2.07837e-20 -0.0915076)
(-0.214878 -0.000135145 7.34562e-23 -0.000963336 4.07854e-22 -0.0863365)
(-0.228766 0.000158488 8.2394e-23 -0.000864169 5.84568e-20 -0.091852)
(-0.216456 -0.000166386 -1.30435e-24 -0.000970771 -1.68583e-20 -0.0869708)
(-0.229408 0.000194969 2.03104e-23 -0.000869642 -3.56695e-20 -0.0921111)
(-0.217877 -0.000200298 -1.76603e-22 -0.000977016 1.56612e-20 -0.0875415)
(-0.229836 0.000234882 -2.16538e-22 -0.000874658 -1.09602e-22 -0.0922842)
(-0.219118 -0.000237655 1.8492e-22 -0.000980161 -1.38212e-20 -0.0880393)
(-0.230029 0.000279029 2.00292e-22 -0.000877358 -1.49812e-20 -0.0923626)
(-0.220177 -0.00027922 5.22549e-23 -0.000976984 1.97807e-22 -0.0884614)
(-0.229985 0.000328228 1.86504e-22 -0.000874607 1.35818e-20 -0.0923438)
(-0.221059 -0.000325532 3.66938e-26 -0.000962598 1.18664e-20 -0.0888087)
(-0.22971 0.000383109 2.8358e-22 -0.000861653 -2.54727e-23 -0.0922285)
(-0.221784 -0.000376679 -5.02933e-22 -0.000930084 -2.10859e-20 -0.0890856)
(-0.229221 0.000443892 -1.00667e-21 -0.000831731 -4.21267e-23 -0.092021)
(-0.222373 -0.000432032 7.05792e-23 -0.000870051 1.92666e-20 -0.0892971)
(-0.22854 0.000510124 4.92337e-22 -0.000775623 -9.74015e-21 -0.0917264)
(-0.222847 -0.000489908 7.37255e-22 -0.000770161 3.0689e-23 -0.0894467)
(-0.227691 0.000580346 1.88152e-24 -0.000681129 8.76917e-21 -0.0913489)
(-0.223221 -0.000547136 -2.9171e-22 -0.000614785 -7.38984e-21 -0.0895345)
(-0.226691 0.000651643 -2.25083e-26 -0.000532669 -9.27646e-23 -0.0908894)
(-0.223504 -0.000598362 1.36455e-21 -0.000384817 5.57619e-22 -0.0895554)
(-0.22555 0.000718926 2.89233e-22 -0.00031099 -6.30324e-23 -0.0903443)
(-0.223691 -0.000635785 -1.7161e-21 -5.9647e-05 1.64006e-22 -0.0895001)
(-0.22427 0.000774601 6.38163e-22 4.97995e-06 9.63977e-23 -0.0897059)
(-0.223764 -0.000647781 1.10112e-21 0.000383524 9.70696e-22 -0.0893522)
(-0.22284 0.000807098 -3.01672e-21 0.000438928 -2.001e-20 -0.0889606)
(-0.223696 -0.000621134 5.82862e-24 0.000956765 1.55674e-20 -0.0890956)
(-0.221238 0.000802929 1.18175e-21 0.00100447 2.57223e-20 -0.0880935)
(-0.223434 -0.000549425 -6.13044e-24 0.0016841 -1.47004e-20 -0.0886999)
(-0.219372 0.00075627 1.15754e-21 0.00172705 -6.93293e-21 -0.0870579)
(-0.222896 -0.000428133 1.30837e-21 0.00259416 -1.33609e-21 -0.0881208)
(-0.217225 0.000661016 1.333e-21 0.0026402 1.18653e-20 -0.085834)
(-0.222112 -0.000250665 4.09142e-24 0.00352662 1.09143e-20 -0.0874341)
(-0.214933 0.000507604 1.00256e-22 0.00358547 -1.17553e-20 -0.084539)
(-0.221034 -3.45681e-05 -1.56957e-21 0.00446095 -9.77796e-21 -0.0866292)
(-0.212451 0.000312681 -1.44337e-21 0.00454402 -2.14013e-22 -0.0831628)
(-0.219667 0.000211858 1.53131e-21 0.00530183 -2.38756e-21 -0.0857462)
(-0.209791 8.36578e-05 -1.50003e-24 0.0054191 -2.4103e-21 -0.0817487)
(-0.217989 0.000468846 3.36526e-21 0.00600229 1.96957e-21 -0.0847945)
(-0.206941 -0.000159971 2.18723e-24 0.00616173 3.26733e-21 -0.0803118)
(-0.216002 0.000721999 1.17803e-25 0.00650107 1.70236e-22 -0.0838004)
(-0.203923 -0.000403875 -7.19707e-21 0.00670625 -8.41038e-22 -0.0788865)
(-0.213705 0.000954737 -3.79282e-21 0.00677012 -1.53648e-21 -0.082774)
(-0.20075 -0.000630979 3.70279e-21 0.00701984 9.96703e-22 -0.0774922)
(-0.211109 0.00115512 1.06676e-24 0.00679545 1.36731e-21 -0.0817253)
(-0.197453 -0.000828644 7.90031e-21 0.00708325 -4.6085e-24 -0.0761481)
(-0.208226 0.00131405 -4.20817e-21 0.006589 1.95675e-21 -0.0806549)
(-0.194059 -0.000986812 4.2926e-21 0.00690422 -2.71497e-23 -0.074862)
(-0.205079 0.00142708 6.53621e-25 0.00617957 7.56703e-22 -0.0795596)
(-0.190597 -0.0011001 -4.29485e-21 0.00650863 -2.49042e-21 -0.0736352)
(-0.20169 0.00149369 -2.40676e-24 0.00560974 -2.66449e-21 -0.0784321)
(-0.187091 -0.00116713 1.10112e-24 0.00593808 1.19549e-21 -0.0724613)
(-0.198089 0.00151687 -1.1012e-22 0.00492823 -3.52443e-21 -0.0772642)
(-0.183564 -0.00119025 4.75835e-21 0.005242 4.77261e-21 -0.0713287)
(-0.194305 0.00150214 9.92753e-21 0.00418394 3.74517e-21 -0.0760486)
(-0.180029 -0.00117463 -9.96726e-21 0.00447144 -1.61411e-21 -0.0702232)
(-0.190371 0.00145655 7.34553e-23 0.00342094 -4.81634e-21 -0.0747801)
(-0.176498 -0.00112724 -5.29287e-21 0.00367352 -1.04028e-20 -0.0691297)
(-0.186317 0.00138773 7.6986e-23 0.00267539 -4.23347e-22 -0.0734565)
(-0.172973 -0.00105583 -1.59915e-22 0.00288772 1.08613e-20 -0.0680341)
(-0.182171 0.00130309 5.61076e-21 0.00197418 1.46172e-20 -0.0720786)
(-0.169454 -0.000968078 -6.87386e-23 0.00214412 -3.81561e-21 -0.0669241)
(-0.17796 0.00120928 5.47054e-23 0.00133508 -9.69343e-21 -0.0706499)
(-0.165938 -0.00087101 5.60419e-21 0.00146319 -3.28825e-21 -0.0657898)