/*--------------------------------*- C++ -*----------------------------------*\
| =========                 |                                                 |
| \\      /  F ield         | OpenFOAM Extend Project: Open source CFD        |
|  \\    /   O peration     | Version:  1.6-ext                               |
|   \\  /    A nd           | Web:      www.extend-project.de                 |
|    \\/     M anipulation  |                                                 |
\*---------------------------------------------------------------------------*/
FoamFile
{
    version     2.0;
    format      ascii;
    class       volVectorField;
    location    "0.3";
    object      DU;
}
// * * * * * * * * * * * * * * * * * * * * * * * * * * * * * * * * * * * * * //

dimensions      [0 1 0 0 0 0 0];

internalField   nonuniform List<vector> 
328
(
(-5.51995e-09 -1.0973e-08 0)
(-3.78518e-09 -2.31965e-09 0)
(-3.88241e-09 2.43568e-09 0)
(-6.02774e-09 1.17799e-08 0)
(-1.68135e-08 -2.80702e-08 0)
(-1.25158e-08 -6.61978e-09 0)
(-1.28555e-08 7.27143e-09 0)
(-1.83625e-08 3.03161e-08 0)
(-2.99257e-08 -4.0618e-08 0)
(-2.42153e-08 -1.05013e-08 0)
(-2.49003e-08 1.20306e-08 0)
(-3.26494e-08 4.42837e-08 0)
(-4.42414e-08 -4.92893e-08 0)
(-3.79369e-08 -1.36149e-08 0)
(-3.90136e-08 1.6372e-08 0)
(-4.82132e-08 5.44632e-08 0)
(-5.99576e-08 -5.49746e-08 0)
(-5.38762e-08 -1.58292e-08 0)
(-5.53896e-08 2.01759e-08 0)
(-6.52495e-08 6.18495e-08 0)
(-7.70142e-08 -5.83558e-08 0)
(-7.1727e-08 -1.70925e-08 0)
(-7.37025e-08 2.34192e-08 0)
(-8.3678e-08 6.72125e-08 0)
(-9.55149e-08 -5.999e-08 0)
(-9.14537e-08 -1.74518e-08 0)
(-9.3911e-08 2.61858e-08 0)
(-1.03593e-07 7.1189e-08 0)
(-1.15537e-07 -6.0287e-08 0)
(-1.12945e-07 -1.6989e-08 0)
(-1.15895e-07 2.86045e-08 0)
(-1.25059e-07 7.42618e-08 0)
(-1.37193e-07 -5.95586e-08 0)
(-1.36176e-07 -1.58087e-08 0)
(-1.39626e-07 3.08339e-08 0)
(-1.4818e-07 7.68125e-08 0)
(-1.60599e-07 -5.80288e-08 0)
(-1.61141e-07 -1.40092e-08 0)
(-1.65093e-07 3.30324e-08 0)
(-1.73058e-07 7.91342e-08 0)
(-1.85876e-07 -5.58564e-08 0)
(-1.87882e-07 -1.1673e-08 0)
(-1.92332e-07 3.53478e-08 0)
(-1.99802e-07 8.14552e-08 0)
(-2.13153e-07 -5.31446e-08 0)
(-2.16473e-07 -8.85811e-09 0)
(-2.21413e-07 3.79061e-08 0)
(-2.28524e-07 8.39493e-08 0)
(-2.42562e-07 -4.99537e-08 0)
(-2.47022e-07 -5.59719e-09 0)
(-2.52438e-07 4.081e-08 0)
(-2.59339e-07 8.67475e-08 0)
(-2.74243e-07 -4.63103e-08 0)
(-2.79667e-07 -1.89994e-09 0)
(-2.85538e-07 4.41384e-08 0)
(-2.92364e-07 8.99457e-08 0)
(-3.08346e-07 -4.22171e-08 0)
(-3.14566e-07 2.24151e-09 0)
(-3.20863e-07 4.79493e-08 0)
(-3.27727e-07 9.36123e-08 0)
(-3.45035e-07 -3.76622e-08 0)
(-3.51898e-07 6.84573e-09 0)
(-3.58582e-07 5.22826e-08 0)
(-3.6556e-07 9.77938e-08 0)
(-3.84486e-07 -3.2628e-08 0)
(-3.91856e-07 1.19346e-08 0)
(-3.98878e-07 5.7163e-08 0)
(-4.06007e-07 1.02519e-07 0)
(-4.26893e-07 -2.71e-08 0)
(-4.34644e-07 1.7526e-08 0)
(-4.41942e-07 6.26015e-08 0)
(-4.49225e-07 1.07804e-07 0)
(-4.72467e-07 -2.10738e-08 0)
(-4.80478e-07 2.36268e-08 0)
(-4.87976e-07 6.85945e-08 0)
(-4.95382e-07 1.13646e-07 0)
(-5.21436e-07 -1.45615e-08 0)
(-5.29585e-07 3.02268e-08 0)
(-5.37191e-07 7.51215e-08 0)
(-5.44659e-07 1.20028e-07 0)
(-5.74048e-07 -7.59751e-09 0)
(-5.822e-07 3.72919e-08 0)
(-5.89805e-07 8.214e-08 0)
(-5.97248e-07 1.2691e-07 0)
(-6.30562e-07 -2.43135e-10 0)
(-6.3857e-07 4.47585e-08 0)
(-6.46046e-07 8.95787e-08 0)
(-6.53355e-07 1.34218e-07 0)
(-6.93562e-07 7.69777e-09 0)
(-7.0125e-07 5.28211e-08 0)
(-7.08437e-07 9.7623e-08 0)
(-7.15465e-07 1.4213e-07 0)
(-7.6105e-07 1.57483e-08 0)
(-7.68218e-07 6.099e-08 0)
(-7.74928e-07 1.05775e-07 0)
(-7.81501e-07 1.50147e-07 0)
(-8.28529e-07 2.32263e-08 0)
(-8.35015e-07 6.85495e-08 0)
(-8.41092e-07 1.13295e-07 0)
(-8.47062e-07 1.57514e-07 0)
(-8.95919e-07 3.00059e-08 0)
(-9.01578e-07 7.5356e-08 0)
(-9.06878e-07 1.20021e-07 0)
(-9.12099e-07 1.64052e-07 0)
(-9.63126e-07 3.59788e-08 0)
(-9.67827e-07 8.12765e-08 0)
(-9.72217e-07 1.25795e-07 0)
(-9.76553e-07 1.69578e-07 0)
(-1.03003e-06 4.10376e-08 0)
(-1.03366e-06 8.6184e-08 0)
(-1.03702e-06 1.30471e-07 0)
(-1.04034e-06 1.73929e-07 0)
(-1.09651e-06 4.50813e-08 0)
(-1.09898e-06 8.99607e-08 0)
(-1.1012e-06 1.33914e-07 0)
(-1.10338e-06 1.76953e-07 0)
(-1.16243e-06 4.80108e-08 0)
(-1.16364e-06 9.24981e-08 0)
(-1.16464e-06 1.36005e-07 0)
(-1.16558e-06 1.78525e-07 0)
(-1.22764e-06 4.97328e-08 0)
(-1.22754e-06 9.37004e-08 0)
(-1.22723e-06 1.36646e-07 0)
(-1.22684e-06 1.78546e-07 0)
(-1.29201e-06 5.01616e-08 0)
(-1.29054e-06 9.34876e-08 0)
(-1.28887e-06 1.35762e-07 0)
(-1.28709e-06 1.76946e-07 0)
(-1.35541e-06 4.92241e-08 0)
(-1.35255e-06 9.17987e-08 0)
(-1.34947e-06 1.33305e-07 0)
(-1.34624e-06 1.7369e-07 0)
(-1.41773e-06 4.68639e-08 0)
(-1.41345e-06 8.85941e-08 0)
(-1.40896e-06 1.29251e-07 0)
(-1.40424e-06 1.68772e-07 0)
(-1.47887e-06 4.30451e-08 0)
(-1.47318e-06 8.38575e-08 0)
(-1.46726e-06 1.23602e-07 0)
(-1.46107e-06 1.62213e-07 0)
(-1.53875e-06 3.77541e-08 0)
(-1.53168e-06 7.75955e-08 0)
(-1.52434e-06 1.16386e-07 0)
(-1.51668e-06 1.54057e-07 0)
(-1.59732e-06 3.10006e-08 0)
(-1.58889e-06 6.98368e-08 0)
(-1.58017e-06 1.07649e-07 0)
(-1.57107e-06 1.44367e-07 0)
(-1.65454e-06 2.28157e-08 0)
(-1.64479e-06 6.06289e-08 0)
(-1.63473e-06 9.74528e-08 0)
(-1.62424e-06 1.3322e-07 0)
(-1.71038e-06 1.32496e-08 0)
(-1.69937e-06 5.00354e-08 0)
(-1.68803e-06 8.58738e-08 0)
(-1.6762e-06 1.207e-07 0)
(-1.76483e-06 2.36741e-09 0)
(-1.75263e-06 3.81317e-08 0)
(-1.74005e-06 7.29954e-08 0)
(-1.72697e-06 1.06897e-07 0)
(-1.81788e-06 -9.75491e-09 0)
(-1.80455e-06 2.5001e-08 0)
(-1.79083e-06 5.89061e-08 0)
(-1.77655e-06 9.19031e-08 0)
(-1.86955e-06 -2.30349e-08 0)
(-1.85517e-06 1.07301e-08 0)
(-1.84035e-06 4.36956e-08 0)
(-1.82495e-06 7.58083e-08 0)
(-1.91985e-06 -3.73878e-08 0)
(-1.90447e-06 -4.59355e-09 0)
(-1.88864e-06 2.74518e-08 0)
(-1.8722e-06 5.86994e-08 0)
(-1.96878e-06 -5.27301e-08 0)
(-1.95249e-06 -2.08856e-08 0)
(-1.9357e-06 1.02585e-08 0)
(-1.91829e-06 4.06579e-08 0)
(-2.01637e-06 -6.89823e-08 0)
(-1.99922e-06 -3.80669e-08 0)
(-1.98155e-06 -7.80663e-09 0)
(-1.96324e-06 2.17584e-08 0)
(-2.06263e-06 -8.60717e-08 0)
(-2.04468e-06 -5.60657e-08 0)
(-2.02619e-06 -2.66739e-08 0)
(-2.00704e-06 2.06753e-09 0)
(-2.10758e-06 -1.03934e-07 0)
(-2.08888e-06 -7.48188e-08 0)
(-2.06962e-06 -4.62825e-08 0)
(-2.04968e-06 -1.83568e-08 0)
(-2.15123e-06 -1.22513e-07 0)
(-2.13184e-06 -9.42727e-08 0)
(-2.11184e-06 -6.6581e-08 0)
(-2.09117e-06 -3.94659e-08 0)
(-2.19362e-06 -1.41765e-07 0)
(-2.17355e-06 -1.14384e-07 0)
(-2.15287e-06 -8.75281e-08 0)
(-2.1315e-06 -6.12209e-08 0)
(-2.23474e-06 -1.61654e-07 0)
(-2.21404e-06 -1.3512e-07 0)
(-2.19269e-06 -1.09092e-07 0)
(-2.17066e-06 -8.35921e-08 0)
(-2.27462e-06 -1.82156e-07 0)
(-2.2533e-06 -1.56457e-07 0)
(-2.23131e-06 -1.31252e-07 0)
(-2.20863e-06 -1.06559e-07 0)
(-2.31327e-06 -2.03255e-07 0)
(-2.29133e-06 -1.78381e-07 0)
(-2.26872e-06 -1.53995e-07 0)
(-2.24541e-06 -1.3011e-07 0)
(-2.3507e-06 -2.24943e-07 0)
(-2.32816e-06 -2.00887e-07 0)
(-2.30492e-06 -1.77316e-07 0)
(-2.281e-06 -1.54241e-07 0)
(-2.38693e-06 -2.47223e-07 0)
(-2.36377e-06 -2.23977e-07 0)
(-2.33992e-06 -2.01218e-07 0)
(-2.31537e-06 -1.78955e-07 0)
(-2.42194e-06 -2.701e-07 0)
(-2.39818e-06 -2.47659e-07 0)
(-2.3737e-06 -2.25711e-07 0)
(-2.34853e-06 -2.0426e-07 0)
(-2.45577e-06 -2.93587e-07 0)
(-2.43138e-06 -2.71947e-07 0)
(-2.40627e-06 -2.50808e-07 0)
(-2.38048e-06 -2.30171e-07 0)
(-2.4884e-06 -3.177e-07 0)
(-2.46337e-06 -2.96858e-07 0)
(-2.43763e-06 -2.76526e-07 0)
(-2.41119e-06 -2.56703e-07 0)
(-2.51985e-06 -3.42459e-07 0)
(-2.49417e-06 -3.22412e-07 0)
(-2.46777e-06 -3.02885e-07 0)
(-2.44068e-06 -2.83877e-07 0)
(-2.55011e-06 -3.67881e-07 0)
(-2.52376e-06 -3.4863e-07 0)
(-2.4967e-06 -3.29907e-07 0)
(-2.46895e-06 -3.11711e-07 0)
(-2.57918e-06 -3.93988e-07 0)
(-2.55215e-06 -3.7553e-07 0)
(-2.52442e-06 -3.57611e-07 0)
(-2.49599e-06 -3.40226e-07 0)
(-2.60707e-06 -4.20796e-07 0)
(-2.57935e-06 -4.03133e-07 0)
(-2.55092e-06 -3.86016e-07 0)
(-2.52181e-06 -3.69439e-07 0)
(-2.63377e-06 -4.4832e-07 0)
(-2.60535e-06 -4.31454e-07 0)
(-2.57623e-06 -4.15138e-07 0)
(-2.54641e-06 -3.99365e-07 0)
(-2.65927e-06 -4.76573e-07 0)
(-2.63014e-06 -4.60505e-07 0)
(-2.60032e-06 -4.44988e-07 0)
(-2.56981e-06 -4.30015e-07 0)
(-2.68358e-06 -5.0556e-07 0)
(-2.65374e-06 -4.90293e-07 0)
(-2.62322e-06 -4.75574e-07 0)
(-2.59201e-06 -4.61395e-07 0)
(-2.70668e-06 -5.35283e-07 0)
(-2.67614e-06 -5.20818e-07 0)
(-2.64493e-06 -5.06896e-07 0)
(-2.61303e-06 -4.93507e-07 0)
(-2.72857e-06 -5.65735e-07 0)
(-2.69734e-06 -5.52077e-07 0)
(-2.66545e-06 -5.3895e-07 0)
(-2.63286e-06 -5.26344e-07 0)
(-2.74924e-06 -5.96904e-07 0)
(-2.71733e-06 -5.84056e-07 0)
(-2.68478e-06 -5.71723e-07 0)
(-2.65153e-06 -5.59895e-07 0)
(-2.76868e-06 -6.28771e-07 0)
(-2.73613e-06 -6.16737e-07 0)
(-2.70293e-06 -6.05196e-07 0)
(-2.66904e-06 -5.94139e-07 0)
(-2.7869e-06 -6.61308e-07 0)
(-2.75372e-06 -6.50091e-07 0)
(-2.71992e-06 -6.39341e-07 0)
(-2.68541e-06 -6.2905e-07 0)
(-2.80387e-06 -6.9448e-07 0)
(-2.77011e-06 -6.84084e-07 0)
(-2.73573e-06 -6.74125e-07 0)
(-2.70065e-06 -6.64594e-07 0)
(-2.8196e-06 -7.28245e-07 0)
(-2.78529e-06 -7.18673e-07 0)
(-2.75038e-06 -7.09504e-07 0)
(-2.71477e-06 -7.00728e-07 0)
(-2.83407e-06 -7.62553e-07 0)
(-2.79927e-06 -7.53809e-07 0)
(-2.76387e-06 -7.45429e-07 0)
(-2.72778e-06 -7.37405e-07 0)
(-2.84728e-06 -7.97348e-07 0)
(-2.81204e-06 -7.89436e-07 0)
(-2.77621e-06 -7.81845e-07 0)
(-2.73968e-06 -7.74569e-07 0)
(-2.85922e-06 -8.3257e-07 0)
(-2.8236e-06 -8.25491e-07 0)
(-2.7874e-06 -8.18691e-07 0)
(-2.75049e-06 -8.12162e-07 0)
(-2.8699e-06 -8.68151e-07 0)
(-2.83395e-06 -8.61909e-07 0)
(-2.79743e-06 -8.55901e-07 0)
(-2.7602e-06 -8.5012e-07 0)
(-2.87931e-06 -9.04022e-07 0)
(-2.84309e-06 -8.98619e-07 0)
(-2.8063e-06 -8.93407e-07 0)
(-2.76882e-06 -8.88377e-07 0)
(-2.88744e-06 -9.40112e-07 0)
(-2.85102e-06 -9.35549e-07 0)
(-2.81402e-06 -9.31142e-07 0)
(-2.77634e-06 -9.26867e-07 0)
(-2.89431e-06 -9.7635e-07 0)
(-2.85772e-06 -9.7263e-07 0)
(-2.82057e-06 -9.69038e-07 0)
(-2.78275e-06 -9.65528e-07 0)
(-2.89992e-06 -1.01266e-06 0)
(-2.8632e-06 -1.00979e-06 0)
(-2.82594e-06 -1.00703e-06 0)
(-2.78805e-06 -1.0043e-06 0)
(-2.90426e-06 -1.04901e-06 0)
(-2.86743e-06 -1.04698e-06 0)
(-2.8301e-06 -1.04506e-06 0)
(-2.79222e-06 -1.04312e-06 0)
(-2.9074e-06 -1.08538e-06 0)
(-2.87043e-06 -1.08417e-06 0)
(-2.83307e-06 -1.08306e-06 0)
(-2.79528e-06 -1.08189e-06 0)
(-2.90928e-06 -1.12208e-06 0)
(-2.87217e-06 -1.12142e-06 0)
(-2.83481e-06 -1.12087e-06 0)
(-2.79715e-06 -1.12024e-06 0)
)
;

boundaryField
{
    plateFix
    {
        type            fixedDisplacement;
        value           uniform (0 0 0);
    }
    plate
    {
        type            solidTraction;
        nonLinear       updatedLagrangian;
        traction        nonuniform List<vector> 
168
(
(0.000210154 0.000353942 4.81167e-20)
(0.000213269 -0.000353384 2.46269e-20)
(0.00038242 0.000378011 -2.85279e-20)
(0.000385753 -0.000376693 2.83491e-20)
(0.000270386 0.000180035 2.73633e-20)
(0.000276335 -0.000180061 1.095e-22)
(-0.000158943 -5.76589e-05 -2.75162e-20)
(-0.000147731 5.59196e-05 -2.90733e-20)
(-0.000912666 -0.000258719 0)
(-0.000893514 0.000255329 2.60226e-20)
(-0.00196836 -0.000399666 0)
(-0.00193864 0.00039481 -2.28171e-20)
(-0.00328948 -0.000484735 1.32032e-24)
(-0.0032466 0.000478578 2.29054e-20)
(-0.00484217 -0.000530071 0)
(-0.00478358 0.000522693 -2.11603e-20)
(-0.00660519 -0.00055457 -2.10133e-20)
(-0.0065283 0.000545953 1.97233e-20)
(-0.00857553 -0.000575588 1.92001e-20)
(-0.00847774 0.000565638 -1.80059e-20)
(-0.0107715 -0.000607309 0)
(-0.0106502 0.000595894 1.45807e-20)
(-0.0132328 -0.000660507 3.54359e-21)
(-0.0130854 0.000647511 -1.50168e-20)
(-0.0160186 -0.000743105 0)
(-0.0158429 0.000728494 0)
(-0.0192032 -0.000861172 0)
(-0.0189979 0.00084507 6.03698e-24)
(-0.0228701 -0.00102003 0)
(-0.0226353 0.00100283 0)
(-0.0271044 -0.00122506 -9.50724e-21)
(-0.0268428 0.00120757 -2.45553e-21)
(-0.0319824 -0.00148145 -7.76952e-23)
(-0.0317008 0.00146522 0)
(-0.0375559 -0.00179211 3.74029e-21)
(-0.0372671 0.00177975 -3.87973e-21)
(-0.0438292 -0.00215215 0)
(-0.0435544 0.00214795 0)
(-0.0507162 -0.00254231 -2.211e-23)
(-0.0504878 0.0025528 2.33052e-23)
(-0.058038 -0.00290055 0)
(-0.057903 0.00293486 -1.01129e-20)
(-0.0652507 -0.00318415 -7.97319e-21)
(-0.0652677 0.00325333 8.73918e-21)
(-0.0729665 -0.00301742 6.74906e-21)
(-0.0732155 0.00313373 2.72969e-23)
(-0.0801649 -0.0025159 -5.68519e-21)
(-0.0807193 0.0026744 6.08132e-21)
(-0.08531 -0.00201656 8.25729e-22)
(-0.0862283 0.00221062 -6.13873e-21)
(-0.0884537 -0.00131214 4.89129e-21)
(-0.0897684 0.00153173 3.92975e-23)
(-0.089073 -0.000547535 -2.63833e-23)
(-0.0907928 0.000779458 -3.23707e-21)
(-0.0873139 0.000276424 0)
(-0.0894188 -4.69983e-05 3.24046e-21)
(-0.0831205 0.00106779 -1.70296e-22)
(-0.0855638 -0.000855407 0)
(-0.0767888 0.0017867 1.70474e-22)
(-0.0795023 -0.00160413 -2.0198e-24)
(-0.0685927 0.00238093 1.4951e-23)
(-0.0714918 -0.00223776 -2.01873e-23)
(-0.0589546 0.00282717 -1.98981e-21)
(-0.0619475 -0.00272922 0)
(-0.0482918 0.00311208 1.98331e-21)
(-0.051287 -0.00306129 -3.33974e-23)
(-0.0370464 0.00324097 0)
(-0.0399601 -0.00323587 0)
(-0.0256201 0.00322949 3.61579e-21)
(-0.0283817 -0.003266 1.53162e-22)
(-0.0143706 0.00310215 -3.61226e-21)
(-0.0169255 -0.00317457 5.98257e-23)
(-0.00358775 0.00288695 4.47557e-21)
(-0.00589922 -0.00298891 -4.36328e-21)
(0.00650712 0.00261242 2.94569e-22)
(0.00445902 -0.00273762 4.50639e-21)
(0.0157622 0.00230457 -9.71315e-21)
(0.0139826 -0.00244735 5.07829e-21)
(0.0240881 0.00198536 4.97493e-21)
(0.0225703 -0.00214097 -1.01206e-20)
(0.0314489 0.00167188 4.14512e-23)
(0.0301773 -0.00183657 3.16091e-23)
(0.0378512 0.0013763 5.30739e-21)
(0.0368047 -0.00154728 5.50373e-21)
(0.0433336 0.00110639 -5.48175e-21)
(0.042488 -0.00128167 8.52814e-23)
(0.0479567 0.00086625 8.54961e-23)
(0.0472868 -0.00104448 3.42373e-22)
(0.0517945 0.000657186 8.48012e-23)
(0.0512761 -0.000837461 1.71586e-22)
(0.0549282 0.000478508 5.55993e-21)
(0.0545386 -0.000660236 0)
(0.0574403 0.000328244 -5.31265e-21)
(0.0571596 -0.000511022 -1.69499e-22)
(0.0594116 0.000203695 -5.35465e-21)
(0.0592222 -0.000387233 -5.32742e-21)
(0.0609184 0.000101853 5.27745e-21)
(0.0608056 -0.000285915 -8.50171e-23)
(0.0620309 1.96852e-05 1.61269e-22)
(0.0619824 -0.000204061 5.25804e-21)
(0.0628128 -4.56818e-05 0)
(0.0628188 -0.000138804 -4.92223e-21)
(0.0633211 -9.6863e-05 -4.78104e-21)
(0.0633735 -8.75289e-05 5.08777e-21)
(0.0636058 -0.000136166 4.78924e-21)
(0.0636984 -4.79279e-05 4.89789e-21)
(0.063711 -0.000165585 -7.50734e-23)
(0.0638387 -1.80091e-05 -9.94085e-23)
(0.0636747 -0.000186812 0)
(0.0638336 3.91449e-06 -4.65967e-21)
(0.0635299 -0.000201262 0)
(0.063717 1.92518e-05 2.30758e-21)
(0.0633051 -0.000210111 0)
(0.0635178 2.91656e-05 -2.45278e-21)
(0.0630246 -0.00021432 -6.936e-23)
(0.0632609 3.46066e-05 1.40085e-22)
(0.0627094 -0.000214676 2.08216e-21)
(0.0629674 3.63448e-05 1.37251e-22)
(0.0623773 -0.000211812 -2.15248e-21)
(0.0626555 3.49982e-05 -1.9923e-21)
(0.0620437 -0.000206236 -6.51892e-23)
(0.0623406 3.10573e-05 4.21248e-21)
(0.0617218 -0.000198348 -6.40111e-23)
(0.062036 2.49044e-05 -2.0858e-21)
(0.0614231 -0.000188457 -6.27494e-23)
(0.0617531 1.68308e-05 -1.26475e-22)
(0.0611576 -0.000176792 -6.15172e-23)
(0.061502 7.04462e-06 -1.23926e-22)
(0.0609343 -0.000163512 1.20554e-22)
(0.0612915 -4.31542e-06 -2.16393e-21)
(0.0607613 -0.0001487 0)
(0.0611297 -1.7186e-05 1.92312e-21)
(0.0606461 -0.000132378 -1.73887e-22)
(0.0610242 -3.15677e-05 0)
(0.0605964 -0.000114483 0)
(0.0609824 -4.7549e-05 -9.03674e-22)
(0.0606197 -9.4874e-05 5.57116e-23)
(0.0610118 -6.5297e-05 9.04598e-22)
(0.0607245 -7.32738e-05 -1.09199e-22)
(0.0611209 -8.51177e-05 8.66782e-22)
(0.0609204 -4.92783e-05 0)
(0.0613191 -0.000107449 -8.67668e-22)
(0.0612186 -2.21899e-05 -5.24107e-23)
(0.0616178 -0.000133027 0)
(0.0616339 8.9772e-06 0)
(0.0620314 -0.000162886 1.02632e-22)
(0.0621851 4.61149e-05 -5.01706e-23)
(0.0625788 -0.000198973 1.00173e-22)
(0.0628994 9.20485e-05 -3.86407e-22)
(0.0632871 -0.000244192 0)
(0.0638132 0.000153856 2.91409e-22)
(0.0641921 -0.000305712 9.53195e-23)
(0.0649941 0.000242726 3.19287e-22)
(0.0653618 -0.000394821 1.85134e-22)
(0.0665165 0.000399486 -3.65999e-22)
(0.0668686 -0.000552462 8.95647e-23)
(0.0686558 0.000678765 0)
(0.0689884 -0.000832846 8.67709e-23)
(0.07147 0.00141651 -4.07273e-23)
(0.0717694 -0.00157109 0)
(0.0768811 0.00287507 4.0781e-23)
(0.0771387 -0.00301955 9.8136e-23)
(0.083063 0.00916114 0)
(0.0155898 0.00568399 1.50743e-23)
(-0.00213433 -0.0058037 9.88535e-23)
(-0.00214052 0.0061316 6.46554e-23)
(0.0156533 -0.00544385 0)
(0.0832336 -0.0092667 1.40891e-23)
)
;
        pressure        nonuniform List<scalar> 
168
(
-0.302507
-0.319728
-0.30309
-0.32031
-0.304131
-0.321347
-0.305574
-0.322785
-0.307319
-0.324523
-0.30928
-0.326478
-0.311411
-0.328601
-0.313695
-0.33088
-0.316144
-0.333327
-0.318789
-0.335974
-0.321668
-0.338861
-0.324812
-0.342023
-0.328232
-0.345476
-0.331899
-0.349198
-0.335728
-0.35311
-0.339545
-0.357052
-0.343066
-0.360747
-0.345846
-0.363769
-0.347243
-0.365487
-0.346354
-0.365011
-0.342112
-0.361283
-0.332699
-0.352468
-0.317831
-0.338297
-0.291673
-0.3129
-0.257679
-0.279545
-0.21398
-0.236284
-0.162736
-0.185173
-0.104396
-0.126584
-0.0412647
-0.0627704
0.0248887
0.00451308
0.0916982
0.0728725
0.157144
0.140226
0.219291
0.204548
0.276646
0.264239
0.32809
0.318072
0.372963
0.365289
0.410995
0.405538
0.442261
0.438835
0.467095
0.465476
0.486014
0.485961
0.499642
0.500913
0.508653
0.511017
0.51372
0.516963
0.515482
0.519417
0.514529
0.51899
0.511385
0.516232
0.506504
0.511621
0.500277
0.505567
0.49303
0.498414
0.485034
0.490448
0.476511
0.481902
0.467639
0.472966
0.45856
0.463791
0.449389
0.454495
0.440212
0.445172
0.431098
0.435894
0.422098
0.426714
0.413249
0.417671
0.404576
0.408795
0.396098
0.400103
0.387824
0.391605
0.379755
0.383306
0.371891
0.375204
0.364222
0.367292
0.356738
0.359559
0.349422
0.351992
0.342254
0.34457
0.335213
0.337274
0.328269
0.330076
0.321392
0.322946
0.314546
0.315852
0.307689
0.308753
0.300774
0.301604
0.293743
0.29435
0.286528
0.286926
0.279042
0.279247
0.271185
0.271217
0.262738
0.26262
0.253655
0.253418
0.242715
0.242384
0.231509
0.231185
0.208466
0.170788
0.213223
0.213255
0.170686
0.208134
)
;
        value           nonuniform List<vector> 
168
(
(-5.35923e-08 -2.9171e-08 1.594e-28)
(-5.78475e-08 3.16661e-08 -1.44793e-28)
(-5.15633e-08 -4.69034e-08 -8.1151e-29)
(-5.64388e-08 5.08717e-08 2.98716e-26)
(-5.31382e-08 -6.03807e-08 -7.64914e-29)
(-5.90345e-08 6.58038e-08 -1.44423e-26)
(-5.88904e-08 -6.94667e-08 -1.28488e-26)
(-6.61021e-08 7.63778e-08 -1.32091e-26)
(-6.85844e-08 -7.5511e-08 7.4857e-29)
(-7.7342e-08 8.40845e-08 1.27296e-26)
(-8.14584e-08 -7.91317e-08 1.13129e-26)
(-9.19164e-08 8.96282e-08 -1.21797e-26)
(-9.70981e-08 -8.09782e-08 1.08915e-26)
(-1.09364e-07 9.37465e-08 -4.30454e-29)
(-1.15178e-07 -8.14601e-08 -1.99017e-26)
(-1.2932e-07 9.69241e-08 -1.03829e-26)
(-1.35529e-07 -8.09036e-08 -1.86459e-28)
(-1.51589e-07 9.95596e-08 2.92433e-26)
(-1.58061e-07 -7.95307e-08 8.42742e-27)
(-1.76056e-07 1.01945e-07 -1.78285e-26)
(-1.8275e-07 -7.74995e-08 -7.85674e-27)
(-2.02675e-07 1.04308e-07 -9.90604e-29)
(-2.09621e-07 -7.49114e-08 6.94211e-27)
(-2.31448e-07 1.06821e-07 -7.44944e-27)
(-2.38735e-07 -7.1827e-08 -9.10344e-29)
(-2.6241e-07 1.09615e-07 6.81773e-27)
(-2.70186e-07 -6.82742e-08 -5.92918e-27)
(-2.95627e-07 1.12788e-07 3.10301e-29)
(-3.04098e-07 -6.42585e-08 1.05132e-26)
(-3.31188e-07 1.1641e-07 -1.73285e-28)
(-3.4062e-07 -5.97716e-08 -9.6201e-27)
(-3.69203e-07 1.20532e-07 -4.80178e-27)
(-3.79927e-07 -5.47999e-08 2.75399e-29)
(-4.09804e-07 1.25187e-07 4.38458e-27)
(-4.22217e-07 -4.93329e-08 3.68065e-27)
(-4.53137e-07 1.30394e-07 -4.6377e-29)
(-4.67711e-07 -4.33696e-08 -2.41906e-28)
(-4.99366e-07 1.36155e-07 7.88782e-30)
(-5.1665e-07 -3.69249e-08 -1.05393e-28)
(-5.48668e-07 1.42457e-07 1.04468e-28)
(-5.69294e-07 -3.00348e-08 -4.74085e-28)
(-6.01233e-07 1.49261e-07 -1.0334e-26)
(-6.25919e-07 -2.27598e-08 -7.78206e-27)
(-6.57262e-07 1.56494e-07 1.29822e-26)
(-6.89131e-07 -1.49018e-08 7.34986e-27)
(-7.19225e-07 1.64328e-07 -3.36873e-27)
(-7.56932e-07 -6.93405e-09 6.16053e-28)
(-7.85036e-07 1.72267e-07 6.05618e-27)
(-8.24815e-07 4.82548e-10 -5.45784e-27)
(-8.50307e-07 1.79546e-07 -5.87012e-27)
(-8.92686e-07 7.23002e-09 4.89964e-27)
(-9.14985e-07 1.85979e-07 -2.744e-28)
(-9.60444e-07 1.32137e-08 1.09315e-27)
(-9.7901e-07 1.91371e-07 -1.20449e-27)
(-1.02796e-06 1.83356e-08 -1.08894e-27)
(-1.0423e-06 1.95548e-07 1.63361e-27)
(-1.0951e-06 2.25036e-08 -8.51236e-29)
(-1.10477e-06 1.98351e-07 -9.96853e-28)
(-1.16171e-06 2.5623e-08 8.82973e-28)
(-1.16633e-06 1.99653e-07 7.88772e-28)
(-1.22764e-06 2.76014e-08 -6.83853e-28)
(-1.2269e-06 1.99352e-07 5.45548e-28)
(-1.29275e-06 2.83501e-08 -8.61048e-28)
(-1.28641e-06 1.97385e-07 2.72171e-28)
(-1.3569e-06 2.77896e-08 -3.79012e-28)
(-1.34479e-06 1.93723e-07 -1.53053e-27)
(-1.41997e-06 2.58545e-08 1.33264e-27)
(-1.40201e-06 1.88368e-07 5.97367e-28)
(-1.48185e-06 2.24989e-08 1.72362e-27)
(-1.45803e-06 1.81351e-07 2.68146e-27)
(-1.54246e-06 1.76988e-08 -2.03143e-27)
(-1.51286e-06 1.72725e-07 -1.33145e-27)
(-1.60173e-06 1.14541e-08 2.38214e-27)
(-1.56648e-06 1.62561e-07 -5.44878e-27)
(-1.65961e-06 3.78744e-09 1.88165e-28)
(-1.61891e-06 1.50943e-07 5.45025e-27)
(-1.71608e-06 -5.258e-09 -7.29839e-27)
(-1.67016e-06 1.37959e-07 -1.92677e-27)
(-1.77113e-06 -1.56224e-08 4.82564e-27)
(-1.72026e-06 1.23701e-07 -1.4412e-27)
(-1.82473e-06 -2.72334e-08 4.07857e-28)
(-1.76922e-06 1.08263e-07 -6.53012e-29)
(-1.87691e-06 -4.00112e-08 5.29273e-27)
(-1.81705e-06 9.17354e-08 2.63834e-27)
(-1.92767e-06 -5.38723e-08 -5.92117e-27)
(-1.86376e-06 7.4203e-08 7.40276e-28)
(-1.97704e-06 -6.87338e-08 -1.05584e-28)
(-1.90936e-06 5.57462e-08 -8.26393e-28)
(-2.02502e-06 -8.45162e-08 2.8567e-28)
(-1.95386e-06 3.64378e-08 1.05966e-28)
(-2.07165e-06 -1.01146e-07 7.0222e-28)
(-1.99724e-06 1.63428e-08 2.86122e-27)
(-2.11694e-06 -1.18559e-07 1.88126e-27)
(-2.0395e-06 -4.48262e-09 -2.60257e-27)
(-2.16092e-06 -1.36698e-07 -2.68347e-27)
(-2.08063e-06 -2.59913e-08 -1.42891e-27)
(-2.20361e-06 -1.55518e-07 -3.67134e-28)
(-2.12062e-06 -4.81454e-08 -8.09961e-28)
(-2.24502e-06 -1.74983e-07 2.64967e-27)
(-2.15946e-06 -7.09162e-08 -3.15477e-27)
(-2.28519e-06 -1.95067e-07 3.6287e-27)
(-2.19712e-06 -9.42839e-08 -7.23103e-28)
(-2.32412e-06 -2.15753e-07 -5.51939e-27)
(-2.2336e-06 -1.18237e-07 2.44519e-27)
(-2.36184e-06 -2.37033e-07 4.76839e-27)
(-2.26889e-06 -1.42772e-07 5.86075e-27)
(-2.39835e-06 -2.58909e-07 -7.77653e-28)
(-2.30297e-06 -1.67891e-07 5.362e-28)
(-2.43366e-06 -2.81385e-07 2.57786e-28)
(-2.33582e-06 -1.93603e-07 -2.12755e-27)
(-2.46779e-06 -3.04474e-07 -4.35885e-27)
(-2.36745e-06 -2.19921e-07 -1.14263e-27)
(-2.50073e-06 -3.2819e-07 6.39521e-28)
(-2.39785e-06 -2.46861e-07 -9.61843e-28)
(-2.5325e-06 -3.52553e-07 -1.03074e-27)
(-2.42702e-06 -2.74443e-07 -1.31031e-28)
(-2.5631e-06 -3.7758e-07 -1.87701e-27)
(-2.45495e-06 -3.02685e-07 -9.95272e-28)
(-2.59252e-06 -4.03291e-07 3.16078e-27)
(-2.48165e-06 -3.31606e-07 1.69541e-28)
(-2.62076e-06 -4.29704e-07 3.17672e-27)
(-2.50712e-06 -3.61224e-07 2.4786e-27)
(-2.64782e-06 -4.56831e-07 -4.00398e-27)
(-2.53137e-06 -3.91552e-07 -1.57271e-27)
(-2.67369e-06 -4.84686e-07 4.56107e-28)
(-2.55441e-06 -4.22602e-07 2.45965e-27)
(-2.69836e-06 -5.13273e-07 1.25457e-27)
(-2.57625e-06 -4.5438e-07 9.29646e-29)
(-2.72183e-06 -5.42593e-07 1.57699e-27)
(-2.5969e-06 -4.86885e-07 -1.06768e-28)
(-2.74409e-06 -5.7264e-07 1.82986e-27)
(-2.61638e-06 -5.20113e-07 -2.59299e-27)
(-2.76511e-06 -6.03403e-07 -4.95219e-28)
(-2.63471e-06 -5.5405e-07 -5.5166e-28)
(-2.7849e-06 -6.3486e-07 -9.7486e-28)
(-2.65189e-06 -5.88677e-07 1.31732e-27)
(-2.80344e-06 -6.66984e-07 -4.90589e-27)
(-2.66794e-06 -6.23967e-07 -3.92039e-28)
(-2.82073e-06 -6.99741e-07 2.22663e-27)
(-2.68288e-06 -6.59886e-07 2.61591e-27)
(-2.83674e-06 -7.33089e-07 1.96345e-27)
(-2.69672e-06 -6.96393e-07 -4.81142e-28)
(-2.85147e-06 -7.66977e-07 -9.36166e-29)
(-2.70948e-06 -7.3344e-07 2.42743e-27)
(-2.86491e-06 -8.01351e-07 -2.20252e-27)
(-2.72116e-06 -7.70973e-07 -3.49793e-28)
(-2.87706e-06 -8.36149e-07 3.54478e-30)
(-2.73177e-06 -8.08934e-07 -1.91537e-27)
(-2.8879e-06 -8.71305e-07 2.37785e-27)
(-2.74132e-06 -8.47259e-07 3.47401e-28)
(-2.89744e-06 -9.0675e-07 -2.73669e-27)
(-2.74981e-06 -8.85884e-07 3.44955e-28)
(-2.90567e-06 -9.42414e-07 -3.36559e-28)
(-2.75724e-06 -9.24745e-07 3.21376e-28)
(-2.91259e-06 -9.78226e-07 6.6472e-27)
(-2.76359e-06 -9.6378e-07 3.48498e-27)
(-2.91823e-06 -1.01412e-06 -7.0149e-27)
(-2.76886e-06 -1.00293e-06 -6.82011e-27)
(-2.9226e-06 -1.05004e-06 6.8986e-27)
(-2.77304e-06 -1.04213e-06 9.95762e-27)
(-2.92583e-06 -1.08599e-06 -7.21707e-27)
(-2.77623e-06 -1.0813e-06 6.87988e-27)
(-2.92802e-06 -1.12233e-06 -2.96592e-28)
(-2.90981e-06 -1.14085e-06 8.07252e-29)
(-2.87269e-06 -1.14008e-06 9.36015e-27)
(-2.83533e-06 -1.13964e-06 9.22626e-27)
(-2.79768e-06 -1.13894e-06 -2.7379e-26)
(-2.77846e-06 -1.11999e-06 -1.06652e-26)
)
;
    }
    frontAndBackPlanes
    {
        type            empty;
    }
}


// ************************************************************************* //
