/*--------------------------------*- C++ -*----------------------------------*\
| =========                 |                                                 |
| \\      /  F ield         | OpenFOAM Extend Project: Open source CFD        |
|  \\    /   O peration     | Version:  1.6-ext                               |
|   \\  /    A nd           | Web:      www.extend-project.de                 |
|    \\/     M anipulation  |                                                 |
\*---------------------------------------------------------------------------*/
FoamFile
{
    version     2.0;
    format      ascii;
    class       volVectorField;
    location    "0.3";
    object      DU_0;
}
// * * * * * * * * * * * * * * * * * * * * * * * * * * * * * * * * * * * * * //

dimensions      [0 1 0 0 0 0 0];

internalField   nonuniform List<vector> 
328
(
(-6.43353e-09 -1.27745e-08 0)
(-4.38659e-09 -2.69287e-09 0)
(-4.47885e-09 2.81076e-09 0)
(-6.91812e-09 1.35581e-08 0)
(-1.9596e-08 -3.26801e-08 0)
(-1.45066e-08 -7.71299e-09 0)
(-1.48294e-08 8.35265e-09 0)
(-2.10735e-08 3.48538e-08 0)
(-3.48718e-08 -4.7309e-08 0)
(-2.80684e-08 -1.22806e-08 0)
(-2.87204e-08 1.3765e-08 0)
(-3.74687e-08 5.08453e-08 0)
(-5.15441e-08 -5.74586e-08 0)
(-4.39697e-08 -1.59941e-08 0)
(-4.4995e-08 1.8654e-08 0)
(-5.53296e-08 6.24361e-08 0)
(-6.98404e-08 -6.41755e-08 0)
(-6.24357e-08 -1.87041e-08 0)
(-6.38768e-08 2.28823e-08 0)
(-7.48824e-08 7.07743e-08 0)
(-8.96895e-08 -6.82602e-08 0)
(-8.311e-08 -2.03548e-08 0)
(-8.49908e-08 2.64223e-08 0)
(-9.60368e-08 7.67467e-08 0)
(-1.11211e-07 -7.03666e-08 0)
(-1.05951e-07 -2.10049e-08 0)
(-1.0829e-07 2.93689e-08 0)
(-1.18903e-07 8.10846e-08 0)
(-1.34492e-07 -7.0976e-08 0)
(-1.3083e-07 -2.07542e-08 0)
(-1.33637e-07 3.18677e-08 0)
(-1.43558e-07 8.43398e-08 0)
(-1.59666e-07 -7.04552e-08 0)
(-1.5772e-07 -1.97287e-08 0)
(-1.61002e-07 3.40973e-08 0)
(-1.70122e-07 8.69469e-08 0)
(-1.86862e-07 -6.90697e-08 0)
(-1.86613e-07 -1.80479e-08 0)
(-1.9037e-07 3.6235e-08 0)
(-1.98716e-07 8.92376e-08 0)
(-2.16224e-07 -6.7009e-08 0)
(-2.17559e-07 -1.58133e-08 0)
(-2.21788e-07 3.84447e-08 0)
(-2.29467e-07 9.14678e-08 0)
(-2.47898e-07 -6.43993e-08 0)
(-2.50645e-07 -1.30987e-08 0)
(-2.55337e-07 4.08647e-08 0)
(-2.62508e-07 9.383e-08 0)
(-2.82036e-07 -6.13173e-08 0)
(-2.85997e-07 -9.94947e-09 0)
(-2.91138e-07 4.36054e-08 0)
(-2.97972e-07 9.64669e-08 0)
(-3.18801e-07 -5.78013e-08 0)
(-3.23774e-07 -6.38445e-09 0)
(-3.29342e-07 4.67495e-08 0)
(-3.36e-07 9.94804e-08 0)
(-3.58365e-07 -5.38619e-08 0)
(-3.64162e-07 -2.40268e-09 0)
(-3.70127e-07 5.03551e-08 0)
(-3.76739e-07 1.0294e-07 0)
(-4.00915e-07 -4.94929e-08 0)
(-4.07365e-07 2.00933e-09 0)
(-4.1369e-07 5.44598e-08 0)
(-4.2035e-07 1.06892e-07 0)
(-4.46655e-07 -4.46808e-08 0)
(-4.53609e-07 6.86953e-09 0)
(-4.60243e-07 5.90844e-08 0)
(-4.67002e-07 1.1136e-07 0)
(-4.95807e-07 -3.94141e-08 0)
(-5.03129e-07 1.21925e-08 0)
(-5.10011e-07 6.42348e-08 0)
(-5.1688e-07 1.16354e-07 0)
(-5.48611e-07 -3.36908e-08 0)
(-5.56175e-07 1.79826e-08 0)
(-5.63229e-07 6.99026e-08 0)
(-5.70184e-07 1.21869e-07 0)
(-6.05327e-07 -2.75247e-08 0)
(-6.13007e-07 2.42271e-08 0)
(-6.20143e-07 7.60627e-08 0)
(-6.27128e-07 1.27882e-07 0)
(-6.66237e-07 -2.09514e-08 0)
(-6.73899e-07 3.08904e-08 0)
(-6.81009e-07 8.26689e-08 0)
(-6.87942e-07 1.34347e-07 0)
(-7.31635e-07 -1.40325e-08 0)
(-7.39133e-07 3.79079e-08 0)
(-7.46092e-07 8.96473e-08 0)
(-7.52867e-07 1.4119e-07 0)
(-8.04506e-07 -6.59011e-09 0)
(-8.11666e-07 4.54547e-08 0)
(-8.18316e-07 9.71624e-08 0)
(-8.24789e-07 1.48563e-07 0)
(-8.82529e-07 9.17119e-10 0)
(-8.89156e-07 5.30589e-08 0)
(-8.95314e-07 1.04732e-07 0)
(-9.01316e-07 1.55985e-07 0)
(-9.60509e-07 7.84836e-09 0)
(-9.66446e-07 6.00466e-08 0)
(-9.71961e-07 1.1166e-07 0)
(-9.77348e-07 1.62742e-07 0)
(-1.03836e-06 1.40824e-08 0)
(-1.04347e-06 6.62781e-08 0)
(-1.0482e-06 1.17786e-07 0)
(-1.05283e-06 1.68658e-07 0)
(-1.11599e-06 1.95139e-08 0)
(-1.12014e-06 7.16237e-08 0)
(-1.12396e-06 1.22956e-07 0)
(-1.1277e-06 1.73554e-07 0)
(-1.19326e-06 2.40388e-08 0)
(-1.19635e-06 7.59596e-08 0)
(-1.19915e-06 1.27027e-07 0)
(-1.20187e-06 1.77269e-07 0)
(-1.27006e-06 2.75592e-08 0)
(-1.27199e-06 7.91717e-08 0)
(-1.27366e-06 1.29867e-07 0)
(-1.27525e-06 1.79658e-07 0)
(-1.34623e-06 2.99801e-08 0)
(-1.34693e-06 8.1156e-08 0)
(-1.34738e-06 1.31365e-07 0)
(-1.34775e-06 1.80599e-07 0)
(-1.42164e-06 3.12125e-08 0)
(-1.42104e-06 8.18224e-08 0)
(-1.42021e-06 1.31427e-07 0)
(-1.41926e-06 1.80002e-07 0)
(-1.49613e-06 3.11763e-08 0)
(-1.4942e-06 8.10969e-08 0)
(-1.49203e-06 1.29987e-07 0)
(-1.4897e-06 1.77805e-07 0)
(-1.5696e-06 2.98037e-08 0)
(-1.5663e-06 7.89247e-08 0)
(-1.56275e-06 1.27001e-07 0)
(-1.559e-06 1.73978e-07 0)
(-1.64191e-06 2.70438e-08 0)
(-1.63724e-06 7.5272e-08 0)
(-1.6323e-06 1.22453e-07 0)
(-1.62709e-06 1.68523e-07 0)
(-1.71297e-06 2.28651e-08 0)
(-1.70693e-06 7.01272e-08 0)
(-1.7006e-06 1.1635e-07 0)
(-1.69394e-06 1.61464e-07 0)
(-1.7827e-06 1.72578e-08 0)
(-1.77531e-06 6.35003e-08 0)
(-1.7676e-06 1.08722e-07 0)
(-1.75951e-06 1.52849e-07 0)
(-1.85105e-06 1.02334e-08 0)
(-1.84234e-06 5.54215e-08 0)
(-1.83329e-06 9.96154e-08 0)
(-1.82379e-06 1.42743e-07 0)
(-1.91797e-06 1.824e-09 0)
(-1.90799e-06 4.59386e-08 0)
(-1.89763e-06 8.9094e-08 0)
(-1.88678e-06 1.31219e-07 0)
(-1.98344e-06 -7.92099e-09 0)
(-1.97224e-06 3.51139e-08 0)
(-1.96063e-06 7.72307e-08 0)
(-1.94847e-06 1.1836e-07 0)
(-2.04743e-06 -1.89381e-08 0)
(-2.03507e-06 2.30204e-08 0)
(-2.02227e-06 6.41065e-08 0)
(-2.00889e-06 1.04254e-07 0)
(-2.10994e-06 -3.11539e-08 0)
(-2.09649e-06 9.73798e-09 0)
(-2.08257e-06 4.98061e-08 0)
(-2.06802e-06 8.89881e-08 0)
(-2.17098e-06 -4.4489e-08 0)
(-2.15651e-06 -4.64987e-09 0)
(-2.14152e-06 3.44153e-08 0)
(-2.12588e-06 7.26479e-08 0)
(-2.23054e-06 -5.88618e-08 0)
(-2.21511e-06 -2.00595e-08 0)
(-2.19914e-06 1.80181e-08 0)
(-2.18248e-06 5.53165e-08 0)
(-2.28863e-06 -7.41917e-08 0)
(-2.27232e-06 -3.64098e-08 0)
(-2.25542e-06 6.94769e-10 0)
(-2.23782e-06 3.70716e-08 0)
(-2.34527e-06 -9.04019e-08 0)
(-2.32813e-06 -5.36246e-08 0)
(-2.31038e-06 -1.74802e-08 0)
(-2.29189e-06 1.79848e-08 0)
(-2.40046e-06 -1.07422e-07 0)
(-2.38255e-06 -7.16341e-08 0)
(-2.364e-06 -3.64392e-08 0)
(-2.34469e-06 -1.87945e-09 0)
(-2.45422e-06 -1.25188e-07 0)
(-2.43559e-06 -9.03769e-08 0)
(-2.41628e-06 -5.6123e-08 0)
(-2.39621e-06 -2.24649e-08 0)
(-2.50655e-06 -1.43646e-07 0)
(-2.48724e-06 -1.098e-07 0)
(-2.46723e-06 -7.6481e-08 0)
(-2.44644e-06 -4.37237e-08 0)
(-2.55747e-06 -1.6275e-07 0)
(-2.53752e-06 -1.2986e-07 0)
(-2.51684e-06 -9.74716e-08 0)
(-2.49537e-06 -6.56166e-08 0)
(-2.60697e-06 -1.82464e-07 0)
(-2.58641e-06 -1.50522e-07 0)
(-2.5651e-06 -1.19062e-07 0)
(-2.54298e-06 -8.81129e-08 0)
(-2.65508e-06 -2.02762e-07 0)
(-2.63393e-06 -1.71762e-07 0)
(-2.612e-06 -1.4123e-07 0)
(-2.58926e-06 -1.11191e-07 0)
(-2.70179e-06 -2.23625e-07 0)
(-2.68006e-06 -1.93563e-07 0)
(-2.65753e-06 -1.63959e-07 0)
(-2.63419e-06 -1.34835e-07 0)
(-2.74711e-06 -2.45044e-07 0)
(-2.72481e-06 -2.15916e-07 0)
(-2.70169e-06 -1.87241e-07 0)
(-2.67775e-06 -1.5904e-07 0)
(-2.79103e-06 -2.67015e-07 0)
(-2.76816e-06 -2.38819e-07 0)
(-2.74447e-06 -2.11077e-07 0)
(-2.71994e-06 -1.83803e-07 0)
(-2.83357e-06 -2.8954e-07 0)
(-2.81013e-06 -2.62278e-07 0)
(-2.78585e-06 -2.3547e-07 0)
(-2.76074e-06 -2.0913e-07 0)
(-2.87471e-06 -3.12629e-07 0)
(-2.8507e-06 -2.86299e-07 0)
(-2.82583e-06 -2.60429e-07 0)
(-2.80013e-06 -2.35029e-07 0)
(-2.91446e-06 -3.3629e-07 0)
(-2.88986e-06 -3.10896e-07 0)
(-2.8644e-06 -2.85967e-07 0)
(-2.83811e-06 -2.61511e-07 0)
(-2.95281e-06 -3.60539e-07 0)
(-2.92761e-06 -3.36082e-07 0)
(-2.90156e-06 -3.12098e-07 0)
(-2.87466e-06 -2.88592e-07 0)
(-2.98975e-06 -3.85388e-07 0)
(-2.96396e-06 -3.61873e-07 0)
(-2.9373e-06 -3.38837e-07 0)
(-2.90978e-06 -3.16284e-07 0)
(-3.02528e-06 -4.10852e-07 0)
(-2.99888e-06 -3.88284e-07 0)
(-2.9716e-06 -3.66199e-07 0)
(-2.94347e-06 -3.44602e-07 0)
(-3.0594e-06 -4.36945e-07 0)
(-3.03237e-06 -4.15327e-07 0)
(-3.00447e-06 -3.94197e-07 0)
(-2.97572e-06 -3.73558e-07 0)
(-3.09208e-06 -4.63675e-07 0)
(-3.06443e-06 -4.43014e-07 0)
(-3.03591e-06 -4.22843e-07 0)
(-3.00652e-06 -4.03163e-07 0)
(-3.12333e-06 -4.91052e-07 0)
(-3.09505e-06 -4.71353e-07 0)
(-3.0659e-06 -4.52144e-07 0)
(-3.03588e-06 -4.33424e-07 0)
(-3.15313e-06 -5.19078e-07 0)
(-3.12422e-06 -5.00347e-07 0)
(-3.09445e-06 -4.82103e-07 0)
(-3.0638e-06 -4.64344e-07 0)
(-3.18147e-06 -5.47754e-07 0)
(-3.15194e-06 -5.29997e-07 0)
(-3.12155e-06 -5.1272e-07 0)
(-3.09029e-06 -4.95921e-07 0)
(-3.20835e-06 -5.77071e-07 0)
(-3.1782e-06 -5.60296e-07 0)
(-3.1472e-06 -5.4399e-07 0)
(-3.11533e-06 -5.2815e-07 0)
(-3.23374e-06 -6.0702e-07 0)
(-3.20299e-06 -5.91232e-07 0)
(-3.17141e-06 -5.75899e-07 0)
(-3.13894e-06 -5.61017e-07 0)
(-3.25763e-06 -6.37581e-07 0)
(-3.22632e-06 -6.22788e-07 0)
(-3.19416e-06 -6.0843e-07 0)
(-3.16112e-06 -5.94504e-07 0)
(-3.28003e-06 -6.68732e-07 0)
(-3.24816e-06 -6.54939e-07 0)
(-3.21547e-06 -6.41559e-07 0)
(-3.18188e-06 -6.28587e-07 0)
(-3.30091e-06 -7.00443e-07 0)
(-3.26853e-06 -6.87655e-07 0)
(-3.23532e-06 -6.75255e-07 0)
(-3.20123e-06 -6.63236e-07 0)
(-3.32027e-06 -7.32675e-07 0)
(-3.2874e-06 -7.209e-07 0)
(-3.25373e-06 -7.09481e-07 0)
(-3.21916e-06 -6.98413e-07 0)
(-3.33809e-06 -7.65388e-07 0)
(-3.30479e-06 -7.5463e-07 0)
(-3.27068e-06 -7.44195e-07 0)
(-3.23568e-06 -7.34076e-07 0)
(-3.35437e-06 -7.98532e-07 0)
(-3.32068e-06 -7.88796e-07 0)
(-3.28619e-06 -7.79346e-07 0)
(-3.2508e-06 -7.70177e-07 0)
(-3.36911e-06 -8.32055e-07 0)
(-3.33507e-06 -8.23344e-07 0)
(-3.30024e-06 -8.14882e-07 0)
(-3.26452e-06 -8.06663e-07 0)
(-3.38229e-06 -8.659e-07 0)
(-3.34797e-06 -8.58217e-07 0)
(-3.31285e-06 -8.50746e-07 0)
(-3.27684e-06 -8.43477e-07 0)
(-3.39392e-06 -9.00006e-07 0)
(-3.35935e-06 -8.93354e-07 0)
(-3.324e-06 -8.86877e-07 0)
(-3.28775e-06 -8.80561e-07 0)
(-3.40399e-06 -9.3431e-07 0)
(-3.36924e-06 -9.28691e-07 0)
(-3.33369e-06 -9.23216e-07 0)
(-3.29727e-06 -9.17858e-07 0)
(-3.41251e-06 -9.6875e-07 0)
(-3.3776e-06 -9.64165e-07 0)
(-3.34192e-06 -9.59702e-07 0)
(-3.30538e-06 -9.5531e-07 0)
(-3.41949e-06 -1.00326e-06 0)
(-3.38446e-06 -9.99714e-07 0)
(-3.34868e-06 -9.96281e-07 0)
(-3.31207e-06 -9.92867e-07 0)
(-3.42491e-06 -1.0378e-06 0)
(-3.38976e-06 -1.03529e-06 0)
(-3.35392e-06 -1.03289e-06 0)
(-3.31733e-06 -1.03047e-06 0)
(-3.42885e-06 -1.07238e-06 0)
(-3.39356e-06 -1.07088e-06 0)
(-3.35768e-06 -1.06947e-06 0)
(-3.32119e-06 -1.06802e-06 0)
(-3.4312e-06 -1.1073e-06 0)
(-3.39577e-06 -1.10654e-06 0)
(-3.35989e-06 -1.10587e-06 0)
(-3.32352e-06 -1.10513e-06 0)
)
;

boundaryField
{
    plateFix
    {
        type            fixedDisplacement;
        value           uniform (0 0 0);
    }
    plate
    {
        type            solidTraction;
        nonLinear       updatedLagrangian;
        traction        uniform (0 0 0);
        pressure        uniform 0;
        value           nonuniform List<vector> 
168
(
(-6.23998e-08 -3.40372e-08 1.1784e-26)
(-6.65091e-08 3.64627e-08 2.55297e-26)
(-6.00766e-08 -5.46649e-08 -1.42225e-26)
(-6.47529e-08 5.85071e-08 -1.51433e-26)
(-6.19779e-08 -7.03572e-08 2.73068e-26)
(-6.76094e-08 7.55905e-08 1.43061e-26)
(-6.8754e-08 -8.09728e-08 7.10717e-29)
(-7.56282e-08 8.76241e-08 -5.88373e-29)
(-8.01182e-08 -8.8092e-08 -9.56888e-29)
(-8.84597e-08 9.63249e-08 5.6328e-29)
(-9.51767e-08 -9.24411e-08 -1.13756e-26)
(-1.05136e-07 1.02503e-07 -1.67015e-30)
(-1.13442e-07 -9.47805e-08 -1.08883e-26)
(-1.25123e-07 1.07005e-07 1.14795e-26)
(-1.34533e-07 -9.55916e-08 1.00143e-26)
(-1.48001e-07 1.10383e-07 -1.05235e-26)
(-1.58253e-07 -9.52582e-08 -2.05528e-30)
(-1.73548e-07 1.13093e-07 -9.81854e-27)
(-1.84493e-07 -9.4043e-08 4.06661e-29)
(-2.01629e-07 1.15462e-07 1.80261e-26)
(-2.13228e-07 -9.21351e-08 7.81887e-27)
(-2.32198e-07 1.17748e-07 -8.34342e-27)
(-2.44484e-07 -8.96584e-08 -7.02494e-27)
(-2.65256e-07 1.20141e-07 7.57284e-27)
(-2.78332e-07 -8.66897e-08 -3.03197e-29)
(-3.00851e-07 1.22783e-07 -6.71853e-27)
(-3.14881e-07 -8.32688e-08 5.80284e-27)
(-3.39059e-07 1.25778e-07 -4.01178e-29)
(-3.54271e-07 -7.94093e-08 -1.05214e-26)
(-3.79988e-07 1.29198e-07 -7.43163e-30)
(-3.96673e-07 -7.51089e-08 4.68606e-27)
(-4.23773e-07 1.33093e-07 4.9752e-27)
(-4.42288e-07 -7.03585e-08 -4.74677e-27)
(-4.70567e-07 1.37492e-07 -8.82764e-27)
(-4.91341e-07 -6.51504e-08 1.11456e-26)
(-5.20549e-07 1.4241e-07 3.94028e-27)
(-5.44081e-07 -5.94865e-08 -6.50462e-27)
(-5.73913e-07 1.47844e-07 -4.00243e-29)
(-6.00782e-07 -5.33834e-08 -5.66652e-27)
(-6.3087e-07 1.53776e-07 -1.34609e-28)
(-6.61736e-07 -4.68782e-08 5.31598e-27)
(-6.91649e-07 1.60162e-07 5.10998e-27)
(-7.27256e-07 -4.00314e-08 3.9594e-27)
(-7.56486e-07 1.66927e-07 -1.26907e-26)
(-8.00348e-07 -3.26626e-08 -3.98475e-27)
(-8.28253e-07 1.74218e-07 7.01091e-27)
(-8.7869e-07 -2.52267e-08 -2.16728e-27)
(-9.04548e-07 1.81556e-07 -2.49174e-27)
(-9.57077e-07 -1.83435e-08 5.16987e-27)
(-9.80285e-07 1.88217e-07 5.42875e-27)
(-1.03541e-06 -1.21263e-08 -1.34459e-27)
(-1.05541e-06 1.94017e-07 -2.59686e-27)
(-1.11359e-06 -6.66631e-09 8.6535e-28)
(-1.12984e-06 1.98765e-07 9.12284e-28)
(-1.19147e-06 -2.0585e-09 1.72732e-28)
(-1.20351e-06 2.02291e-07 -5.96818e-28)
(-1.26891e-06 1.60794e-09 6.51913e-31)
(-1.27632e-06 2.04441e-07 -1.00864e-27)
(-1.34577e-06 4.24193e-09 -6.77457e-28)
(-1.34818e-06 2.05094e-07 1.33877e-27)
(-1.42188e-06 5.75518e-09 6.26133e-28)
(-1.41901e-06 2.04156e-07 4.58604e-29)
(-1.49711e-06 6.06376e-09 -1.01555e-27)
(-1.48872e-06 2.01571e-07 3.06216e-28)
(-1.5713e-06 5.09332e-09 3.67957e-27)
(-1.55726e-06 1.97317e-07 1.98881e-27)
(-1.64434e-06 2.78368e-09 -4.24289e-27)
(-1.62458e-06 1.91403e-07 -1.18186e-27)
(-1.71612e-06 -9.06797e-10 1.68914e-27)
(-1.69065e-06 1.83863e-07 -1.28781e-27)
(-1.78656e-06 -5.99836e-09 1.44413e-28)
(-1.75545e-06 1.74755e-07 -2.38093e-28)
(-1.85558e-06 -1.24888e-08 -1.33343e-28)
(-1.81898e-06 1.6415e-07 5.5225e-27)
(-1.92314e-06 -2.03544e-08 -2.2554e-28)
(-1.88124e-06 1.52129e-07 -8.01111e-27)
(-1.98922e-06 -2.95523e-08 4.95296e-27)
(-1.94225e-06 1.38779e-07 2.65563e-27)
(-2.05378e-06 -4.0024e-08 -2.35393e-27)
(-2.00201e-06 1.24189e-07 2.47387e-27)
(-2.11682e-06 -5.16993e-08 -5.86082e-27)
(-2.06054e-06 1.08447e-07 -4.206e-27)
(-2.17835e-06 -6.45012e-08 -4.53296e-28)
(-2.11784e-06 9.16407e-08 2.96284e-28)
(-2.23836e-06 -7.83491e-08 5.8039e-27)
(-2.17391e-06 7.38505e-08 -2.61355e-27)
(-2.29687e-06 -9.31628e-08 -4.87789e-27)
(-2.22876e-06 5.51531e-08 5.44132e-27)
(-2.35389e-06 -1.08865e-07 1.76249e-27)
(-2.28239e-06 3.56183e-08 -8.16309e-28)
(-2.40944e-06 -1.25386e-07 2.58093e-27)
(-2.33478e-06 1.53086e-08 -5.54035e-27)
(-2.46352e-06 -1.42659e-07 -2.83234e-27)
(-2.38592e-06 -5.72121e-09 5.0602e-27)
(-2.51616e-06 -1.60632e-07 -4.41955e-28)
(-2.4358e-06 -2.74248e-08 -1.04952e-27)
(-2.56737e-06 -1.79255e-07 3.1477e-27)
(-2.4844e-06 -4.9764e-08 1.22084e-28)
(-2.61716e-06 -1.98494e-07 -4.05363e-27)
(-2.5317e-06 -7.27093e-08 9.21874e-27)
(-2.66553e-06 -2.1832e-07 -2.48495e-27)
(-2.57768e-06 -9.6239e-08 -3.83433e-27)
(-2.71251e-06 -2.38715e-07 3.87786e-27)
(-2.62232e-06 -1.20339e-07 -1.40065e-27)
(-2.75809e-06 -2.59666e-07 -5.88171e-29)
(-2.66559e-06 -1.45003e-07 -4.06883e-27)
(-2.80228e-06 -2.81172e-07 -1.60066e-27)
(-2.7075e-06 -1.7023e-07 -1.76989e-27)
(-2.84509e-06 -3.03232e-07 -2.47772e-29)
(-2.748e-06 -1.96023e-07 2.54374e-28)
(-2.88651e-06 -3.25855e-07 2.46303e-27)
(-2.7871e-06 -2.22392e-07 3.85253e-27)
(-2.92654e-06 -3.49051e-07 -1.07497e-27)
(-2.82479e-06 -2.49347e-07 -1.93575e-27)
(-2.96519e-06 -3.72832e-07 -1.08481e-27)
(-2.86104e-06 -2.76903e-07 2.23144e-27)
(-3.00243e-06 -3.97212e-07 1.09284e-27)
(-2.89585e-06 -3.05072e-07 -8.95481e-28)
(-3.03828e-06 -4.22205e-07 -3.16209e-27)
(-2.92923e-06 -3.33869e-07 -1.04312e-27)
(-3.07271e-06 -4.47823e-07 1.11641e-27)
(-2.96116e-06 -3.63304e-07 -1.01505e-27)
(-3.10571e-06 -4.74076e-07 -4.05923e-30)
(-2.99164e-06 -3.93389e-07 1.4548e-27)
(-3.13729e-06 -5.00972e-07 -1.58994e-27)
(-3.02068e-06 -4.2413e-07 -6.00387e-28)
(-3.16741e-06 -5.28514e-07 -9.51197e-29)
(-3.04827e-06 -4.5553e-07 5.50006e-27)
(-3.19608e-06 -5.56702e-07 1.02867e-27)
(-3.07443e-06 -4.87586e-07 -2.49136e-27)
(-3.22327e-06 -5.85528e-07 -1.95707e-27)
(-3.09916e-06 -5.20292e-07 3.9829e-27)
(-3.24897e-06 -6.1498e-07 -1.62841e-27)
(-3.12246e-06 -5.53636e-07 -8.65233e-28)
(-3.27318e-06 -6.45043e-07 2.12011e-27)
(-3.14435e-06 -5.87598e-07 2.29063e-28)
(-3.29586e-06 -6.7569e-07 4.01774e-27)
(-3.16483e-06 -6.22156e-07 -3.36492e-27)
(-3.31701e-06 -7.06894e-07 -4.88771e-28)
(-3.1839e-06 -6.57277e-07 2.5455e-27)
(-3.33662e-06 -7.38616e-07 4.15252e-28)
(-3.20158e-06 -6.92925e-07 -2.21008e-27)
(-3.35468e-06 -7.70815e-07 2.60558e-27)
(-3.21788e-06 -7.29058e-07 1.59677e-27)
(-3.37116e-06 -8.03443e-07 -5.56737e-27)
(-3.2328e-06 -7.65628e-07 -2.61868e-27)
(-3.38608e-06 -8.36448e-07 2.27374e-27)
(-3.24635e-06 -8.02582e-07 3.02103e-27)
(-3.39941e-06 -8.69773e-07 -2.10097e-27)
(-3.25852e-06 -8.39866e-07 2.00797e-27)
(-3.41115e-06 -9.03358e-07 -6.38329e-27)
(-3.26933e-06 -8.77421e-07 -6.93513e-28)
(-3.42131e-06 -9.3714e-07 6.68929e-27)
(-3.27876e-06 -9.1519e-07 3.17372e-27)
(-3.42989e-06 -9.7106e-07 3.18259e-27)
(-3.28681e-06 -9.53118e-07 -3.44106e-27)
(-3.43689e-06 -1.00505e-06 -3.18894e-27)
(-3.29347e-06 -9.91157e-07 1.36297e-28)
(-3.44234e-06 -1.03908e-06 6.94866e-27)
(-3.29874e-06 -1.02924e-06 6.65001e-27)
(-3.44638e-06 -1.07313e-06 5.83692e-29)
(-3.30273e-06 -1.06729e-06 -3.144e-27)
(-3.44906e-06 -1.10761e-06 3.58431e-27)
(-3.43186e-06 -1.12521e-06 -1.12114e-26)
(-3.39642e-06 -1.1244e-06 -1.10419e-26)
(-3.36053e-06 -1.12396e-06 -1.09113e-26)
(-3.32416e-06 -1.12321e-06 1.09029e-26)
(-3.30544e-06 -1.10484e-06 3.61273e-27)
)
;
    }
    frontAndBackPlanes
    {
        type            empty;
    }
}


// ************************************************************************* //
