/*--------------------------------*- C++ -*----------------------------------*\
| =========                 |                                                 |
| \\      /  F ield         | OpenFOAM Extend Project: Open source CFD        |
|  \\    /   O peration     | Version:  1.6-ext                               |
|   \\  /    A nd           | Web:      www.extend-project.de                 |
|    \\/     M anipulation  |                                                 |
\*---------------------------------------------------------------------------*/
FoamFile
{
    version     2.0;
    format      ascii;
    class       volVectorField;
    location    "0.3";
    object      DV;
}
// * * * * * * * * * * * * * * * * * * * * * * * * * * * * * * * * * * * * * //

dimensions      [0 1 -1 0 0 0 0];

internalField   nonuniform List<vector> 
328
(
(1.04705e-06 2.12164e-06 0)
(6.8226e-07 4.37285e-07 0)
(6.77184e-07 -4.50534e-07 0)
(1.02732e-06 -2.12632e-06 0)
(3.18643e-06 5.40718e-06 0)
(2.26467e-06 1.27433e-06 0)
(2.24847e-06 -1.29272e-06 0)
(3.12402e-06 -5.39971e-06 0)
(5.66283e-06 7.81918e-06 0)
(4.39786e-06 2.06674e-06 0)
(4.36778e-06 -2.0669e-06 0)
(5.55027e-06 -7.77488e-06 0)
(8.35838e-06 9.51531e-06 0)
(6.89634e-06 2.75407e-06 0)
(6.85e-06 -2.71218e-06 0)
(8.19064e-06 -9.4129e-06 0)
(1.13079e-05 1.06847e-05 0)
(9.79353e-06 3.3169e-06 0)
(9.72855e-06 -3.20943e-06 0)
(1.10802e-05 -1.05045e-05 0)
(1.44984e-05 1.14699e-05 0)
(1.30294e-05 3.75149e-06 0)
(1.29438e-05 -3.55531e-06 0)
(1.42071e-05 -1.11931e-05 0)
(1.79477e-05 1.19858e-05 0)
(1.65964e-05 4.07228e-06 0)
(1.64886e-05 -3.76475e-06 0)
(1.759e-05 -1.15933e-05 0)
(2.16686e-05 1.23163e-05 0)
(2.04734e-05 4.30019e-06 0)
(2.03422e-05 -3.859e-06 0)
(2.12424e-05 -1.17889e-05 0)
(2.5681e-05 1.25255e-05 0)
(2.46565e-05 4.46017e-06 0)
(2.45012e-05 -3.86298e-06 0)
(2.51846e-05 -1.18431e-05 0)
(3.00048e-05 1.26607e-05 0)
(2.91452e-05 4.57616e-06 0)
(2.8965e-05 -3.80001e-06 0)
(2.94371e-05 -1.18017e-05 0)
(3.46616e-05 1.27566e-05 0)
(3.39481e-05 4.66952e-06 0)
(3.37424e-05 -3.69001e-06 0)
(3.40213e-05 -1.16975e-05 0)
(3.96736e-05 1.28386e-05 0)
(3.90794e-05 4.75762e-06 0)
(3.8848e-05 -3.54785e-06 0)
(3.89596e-05 -1.15526e-05 0)
(4.50641e-05 1.29244e-05 0)
(4.45598e-05 4.8539e-06 0)
(4.43023e-05 -3.38321e-06 0)
(4.42747e-05 -1.13809e-05 0)
(5.08574e-05 1.30264e-05 0)
(5.04147e-05 4.96829e-06 0)
(5.01306e-05 -3.2008e-06 0)
(4.99908e-05 -1.11892e-05 0)
(5.70794e-05 1.3153e-05 0)
(5.66732e-05 5.10803e-06 0)
(5.6362e-05 -3.00114e-06 0)
(5.61332e-05 -1.09793e-05 0)
(6.37577e-05 1.331e-05 0)
(6.33675e-05 5.27856e-06 0)
(6.30286e-05 -2.78154e-06 0)
(6.27294e-05 -1.0749e-05 0)
(7.09216e-05 1.35018e-05 0)
(7.05318e-05 5.48433e-06 0)
(7.01646e-05 -2.53709e-06 0)
(6.98089e-05 -1.04934e-05 0)
(7.86024e-05 1.37317e-05 0)
(7.8202e-05 5.72924e-06 0)
(7.78061e-05 -2.26165e-06 0)
(7.74035e-05 -1.02063e-05 0)
(8.68331e-05 1.40028e-05 0)
(8.64151e-05 6.01688e-06 0)
(8.59905e-05 -1.94879e-06 0)
(8.55475e-05 -9.88076e-06 0)
(9.56486e-05 1.43173e-05 0)
(9.52091e-05 6.35041e-06 0)
(9.47562e-05 -1.59251e-06 0)
(9.42776e-05 -9.51028e-06 0)
(0.000105085 1.46769e-05 0)
(0.000104623 6.73228e-06 0)
(0.000104143 -1.18785e-06 0)
(0.000103632 -9.08907e-06 0)
(0.00011518 1.50821e-05 0)
(0.000114696 7.16403e-06 0)
(0.000114191 -7.3128e-07 0)
(0.000113652 -8.61266e-06 0)
(0.000126384 1.55499e-05 0)
(0.00012588 7.66453e-06 0)
(0.000125351 -2.01131e-07 0)
(0.000124787 -8.05727e-06 0)
(0.000138326 1.60629e-05 0)
(0.000137806 8.2169e-06 0)
(0.000137259 3.86638e-07 0)
(0.000136673 -7.43801e-06 0)
(0.000150211 1.6581e-05 0)
(0.000149681 8.77932e-06 0)
(0.000149119 9.893e-07 0)
(0.000148517 -6.79848e-06 0)
(0.000162033 1.70995e-05 0)
(0.000161497 9.34725e-06 0)
(0.000160926 1.60274e-06 0)
(0.000160312 -6.14259e-06 0)
(0.000173783 1.76151e-05 0)
(0.000173247 9.91755e-06 0)
(0.000172672 2.22388e-06 0)
(0.00017205 -5.47359e-06 0)
(0.000185457 1.81254e-05 0)
(0.000184925 1.04876e-05 0)
(0.00018435 2.84982e-06 0)
(0.000183723 -4.7948e-06 0)
(0.000197047 1.86278e-05 0)
(0.000196524 1.10544e-05 0)
(0.000195954 3.47698e-06 0)
(0.000195327 -4.11048e-06 0)
(0.000208548 1.91191e-05 0)
(0.000208039 1.16138e-05 0)
(0.000207479 4.1005e-06 0)
(0.000206857 -3.4263e-06 0)
(0.000219954 1.95946e-05 0)
(0.000219464 1.21604e-05 0)
(0.000218919 4.71414e-06 0)
(0.000218307 -2.74928e-06 0)
(0.000231261 2.00489e-05 0)
(0.000230796 1.26878e-05 0)
(0.000230271 5.3106e-06 0)
(0.000229675 -2.08737e-06 0)
(0.000242466 2.04758e-05 0)
(0.000242031 1.3189e-05 0)
(0.000241531 5.88221e-06 0)
(0.000240956 -1.44866e-06 0)
(0.000253567 2.08689e-05 0)
(0.000253166 1.3657e-05 0)
(0.000252695 6.42176e-06 0)
(0.000252146 -8.40507e-07 0)
(0.000264561 2.12225e-05 0)
(0.000264198 1.40859e-05 0)
(0.000263761 6.92317e-06 0)
(0.000263242 -2.68857e-07 0)
(0.000275446 2.15319e-05 0)
(0.000275124 1.44711e-05 0)
(0.000274723 7.38209e-06 0)
(0.000274238 2.62234e-07 0)
(0.00028622 2.1794e-05 0)
(0.000285941 1.48099e-05 0)
(0.000285578 7.7961e-06 0)
(0.000285128 7.50761e-07 0)
(0.000296881 2.20073e-05 0)
(0.000296646 1.51011e-05 0)
(0.000296321 8.16468e-06 0)
(0.000295907 1.19665e-06 0)
(0.000307426 2.21718e-05 0)
(0.000307234 1.53455e-05 0)
(0.000306948 8.48897e-06 0)
(0.000306569 1.60147e-06 0)
(0.00031785 2.22889e-05 0)
(0.0003177 1.5545e-05 0)
(0.000317452 8.7714e-06 0)
(0.000317107 1.96796e-06 0)
(0.000328149 2.23609e-05 0)
(0.000328039 1.57025e-05 0)
(0.000327827 9.01524e-06 0)
(0.000327515 2.29961e-06 0)
(0.000338318 2.23906e-05 0)
(0.000338247 1.58212e-05 0)
(0.000338069 9.22414e-06 0)
(0.000337787 2.60023e-06 0)
(0.000348351 2.23812e-05 0)
(0.000348316 1.59048e-05 0)
(0.00034817 9.40179e-06 0)
(0.000347917 2.87355e-06 0)
(0.000358242 2.23357e-05 0)
(0.000358241 1.59564e-05 0)
(0.000358125 9.5516e-06 0)
(0.000357898 3.12298e-06 0)
(0.000367983 2.22566e-05 0)
(0.000368015 1.59788e-05 0)
(0.000367928 9.67644e-06 0)
(0.000367726 3.35137e-06 0)
(0.000377569 2.2146e-05 0)
(0.000377632 1.59743e-05 0)
(0.000377573 9.77854e-06 0)
(0.000377394 3.5609e-06 0)
(0.000386992 2.20054e-05 0)
(0.000387085 1.59443e-05 0)
(0.000387053 9.85941e-06 0)
(0.000386897 3.75301e-06 0)
(0.000396245 2.18354e-05 0)
(0.000396369 1.58896e-05 0)
(0.000396364 9.91977e-06 0)
(0.00039623 3.92839e-06 0)
(0.000405322 2.16361e-05 0)
(0.000405476 1.58102e-05 0)
(0.000405499 9.9596e-06 0)
(0.000405388 4.087e-06 0)
(0.000414214 2.14068e-05 0)
(0.0004144 1.57053e-05 0)
(0.000414451 9.97817e-06 0)
(0.000414364 4.22809e-06 0)
(0.000422916 2.11461e-05 0)
(0.000423135 1.55737e-05 0)
(0.000423216 9.9741e-06 0)
(0.000423155 4.35026e-06 0)
(0.000431421 2.08521e-05 0)
(0.000431675 1.54132e-05 0)
(0.000431788 9.94536e-06 0)
(0.000431754 4.4515e-06 0)
(0.00043972 2.05223e-05 0)
(0.000440013 1.52214e-05 0)
(0.00044016 9.88937e-06 0)
(0.000440156 4.52925e-06 0)
(0.000447809 2.01535e-05 0)
(0.000448142 1.4995e-05 0)
(0.000448327 9.80298e-06 0)
(0.000448357 4.58038e-06 0)
(0.000455679 1.97423e-05 0)
(0.000456057 1.47306e-05 0)
(0.000456283 9.68256e-06 0)
(0.000456349 4.6013e-06 0)
(0.000463325 1.92845e-05 0)
(0.000463751 1.44238e-05 0)
(0.000464022 9.52397e-06 0)
(0.000464128 4.58792e-06 0)
(0.00047074 1.87758e-05 0)
(0.000471218 1.40704e-05 0)
(0.000471537 9.3227e-06 0)
(0.000471689 4.5358e-06 0)
(0.000477917 1.82114e-05 0)
(0.000478452 1.36654e-05 0)
(0.000478824 9.07391e-06 0)
(0.000479024 4.44014e-06 0)
(0.000484852 1.75867e-05 0)
(0.000485447 1.32038e-05 0)
(0.000485876 8.77257e-06 0)
(0.000486129 4.29599e-06 0)
(0.000491538 1.68966e-05 0)
(0.000492197 1.26807e-05 0)
(0.000492687 8.41363e-06 0)
(0.000492997 4.09837e-06 0)
(0.00049797 1.61367e-05 0)
(0.000498697 1.20912e-05 0)
(0.00049925 7.99222e-06 0)
(0.000499621 3.84248e-06 0)
(0.000504143 1.53027e-05 0)
(0.000504941 1.1431e-05 0)
(0.000505561 7.50389e-06 0)
(0.000505996 3.5239e-06 0)
(0.000510052 1.43911e-05 0)
(0.000510924 1.06964e-05 0)
(0.000511614 6.94482e-06 0)
(0.000512115 3.13883e-06 0)
(0.000515694 1.33994e-05 0)
(0.000516641 9.88448e-06 0)
(0.000517401 6.31208e-06 0)
(0.000517971 2.6843e-06 0)
(0.000521064 1.23262e-05 0)
(0.000522087 8.99367e-06 0)
(0.000522919 5.60382e-06 0)
(0.000523558 2.15838e-06 0)
(0.00052616 1.11712e-05 0)
(0.000527258 8.0235e-06 0)
(0.000528161 4.81944e-06 0)
(0.000528869 1.5603e-06 0)
(0.000530979 9.93567e-06 0)
(0.00053215 6.97495e-06 0)
(0.000533122 3.95964e-06 0)
(0.000533898 8.90564e-07 0)
(0.000535518 8.62231e-06 0)
(0.000536759 5.85038e-06 0)
(0.000537798 3.02654e-06 0)
(0.00053864 1.5094e-07 0)
(0.000539775 7.23511e-06 0)
(0.000541082 4.65354e-06 0)
(0.000542185 2.0235e-06 0)
(0.000543089 -6.55581e-07 0)
(0.000543748 5.7794e-06 0)
(0.000545117 3.3894e-06 0)
(0.000546279 9.55126e-07 0)
(0.000547241 -1.5249e-06 0)
(0.000547437 4.26163e-06 0)
(0.000548861 2.06405e-06 0)
(0.000550077 -1.72966e-07 0)
(0.000551093 -2.45197e-06 0)
(0.000550841 2.68921e-06 0)
(0.000552314 6.84507e-07 0)
(0.000553578 -1.35429e-06 0)
(0.000554641 -3.43095e-06 0)
(0.000553959 1.07031e-06 0)
(0.000555474 -7.4148e-07 0)
(0.00055678 -2.58165e-06 0)
(0.000557885 -4.45537e-06 0)
(0.000556793 -5.86401e-07 0)
(0.000558342 -2.20566e-06 0)
(0.000559683 -3.8474e-06 0)
(0.000560825 -5.51831e-06 0)
(0.000559343 -2.27214e-06 0)
(0.000560918 -3.69963e-06 0)
(0.000562288 -5.14365e-06 0)
(0.000563459 -6.61256e-06 0)
(0.000561609 -3.97853e-06 0)
(0.000563204 -5.21524e-06 0)
(0.000564596 -6.4627e-06 0)
(0.000565792 -7.73099e-06 0)
(0.000563594 -5.69845e-06 0)
(0.000565202 -6.74526e-06 0)
(0.000566609 -7.79736e-06 0)
(0.000567824 -8.86659e-06 0)
(0.000565297 -7.42629e-06 0)
(0.00056691 -8.28357e-06 0)
(0.000568328 -9.14137e-06 0)
(0.000569558 -1.00129e-05 0)
(0.000566719 -9.1586e-06 0)
(0.000568332 -9.82532e-06 0)
(0.000569755 -1.04889e-05 0)
(0.000570995 -1.1163e-05 0)
(0.000567847 -1.08876e-05 0)
(0.000569456 -1.13644e-05 0)
(0.000570883 -1.18357e-05 0)
(0.00057213 -1.23132e-05 0)
(0.00056869 -1.26117e-05 0)
(0.000570294 -1.28966e-05 0)
(0.000571719 -1.31773e-05 0)
(0.00057297 -1.34568e-05 0)
(0.00056919 -1.43064e-05 0)
(0.000570794 -1.44153e-05 0)
(0.000572219 -1.45234e-05 0)
(0.000573466 -1.46289e-05 0)
)
;

boundaryField
{
    plateFix
    {
        type            calculated;
        value           uniform (0 0 0);
    }
    plate
    {
        type            calculated;
        value           nonuniform List<vector> 
168
(
(1.03514e-05 5.76835e-06 -1.11919e-23)
(1.0333e-05 -5.78172e-06 -6.40375e-23)
(9.87599e-06 9.12751e-06 2.83753e-23)
(9.75323e-06 -9.11058e-06 8.27126e-23)
(1.01664e-05 1.16787e-05 -6.15564e-23)
(9.94782e-06 -1.16118e-05 -5.02758e-23)
(1.12895e-05 1.3422e-05 -2.60206e-23)
(1.09812e-05 -1.32889e-05 -2.66669e-23)
(1.31735e-05 1.46314e-05 6.50274e-24)
(1.27781e-05 -1.44154e-05 2.55443e-23)
(1.56571e-05 1.54366e-05 3.97412e-23)
(1.51761e-05 -1.51211e-05 -1.82695e-23)
(1.86509e-05 1.59689e-05 3.80885e-23)
(1.80848e-05 -1.55366e-05 -2.30385e-23)
(2.20867e-05 1.63123e-05 -4.99477e-23)
(2.14358e-05 -1.57449e-05 1.08047e-23)
(2.59293e-05 1.65334e-05 4.54637e-24)
(2.51935e-05 -1.58116e-05 6.35738e-23)
(3.01592e-05 1.66788e-05 1.25585e-23)
(2.9338e-05 -1.57815e-05 -7.64326e-23)
(3.47712e-05 1.67834e-05 -2.73135e-23)
(3.38632e-05 -1.56869e-05 2.47875e-23)
(3.97688e-05 1.68717e-05 2.07925e-23)
(3.87717e-05 -1.55495e-05 -2.25045e-23)
(4.51627e-05 1.69615e-05 -8.6701e-26)
(4.40731e-05 -1.53826e-05 2.0265e-23)
(5.0969e-05 1.70652e-05 -2.05279e-23)
(4.97824e-05 -1.51932e-05 1.88419e-25)
(5.72086e-05 1.71912e-05 3.95349e-23)
(5.59198e-05 -1.49833e-05 -3.35185e-25)
(6.39061e-05 1.73457e-05 -2.85691e-23)
(6.25095e-05 -1.4751e-05 -1.70834e-23)
(7.10894e-05 1.75331e-05 1.58951e-23)
(6.95798e-05 -1.4492e-05 2.6406e-23)
(7.87889e-05 1.77571e-05 -2.42145e-23)
(7.71626e-05 -1.42001e-05 -1.37951e-23)
(8.70374e-05 1.80205e-05 1.58899e-23)
(8.52929e-05 -1.38689e-05 3.55903e-24)
(9.58692e-05 1.83256e-05 1.11843e-23)
(9.40085e-05 -1.34918e-05 4.60451e-25)
(0.00010532 1.86738e-05 -1.11623e-23)
(0.000103349 -1.30627e-05 -2.83032e-23)
(0.000115428 1.90655e-05 -2.15738e-23)
(0.000113356 -1.25766e-05 4.90233e-23)
(0.000126642 1.95162e-05 2.06489e-23)
(0.00012448 -1.20087e-05 -2.25921e-23)
(0.000138591 2.00089e-05 3.61134e-24)
(0.000136357 -1.13737e-05 1.71237e-23)
(0.00015048 2.05043e-05 -1.59706e-23)
(0.000148194 -1.07155e-05 -2.37217e-23)
(0.000162303 2.09974e-05 8.62892e-24)
(0.000159982 -1.00382e-05 8.21354e-24)
(0.000174053 2.14848e-05 -9.02973e-25)
(0.000171715 -9.34495e-06 -5.41435e-24)
(0.000185724 2.19643e-05 -1.60258e-24)
(0.000183385 -8.63938e-06 3.88464e-24)
(0.000197309 2.24334e-05 -5.99761e-25)
(0.000194986 -7.92613e-06 7.24595e-25)
(0.000208801 2.28891e-05 2.3787e-24)
(0.000206516 -7.21128e-06 -2.06242e-24)
(0.000220196 2.33276e-05 -2.44127e-24)
(0.000217969 -6.50225e-06 3.97128e-25)
(0.000231489 2.37438e-05 1.25547e-24)
(0.000229343 -5.80729e-06 -5.79935e-25)
(0.000242676 2.41319e-05 -8.39836e-24)
(0.000240634 -5.13465e-06 -5.66161e-24)
(0.000253756 2.4486e-05 1.21274e-23)
(0.000251838 -4.49173e-06 3.20872e-24)
(0.000264727 2.48005e-05 -1.48049e-24)
(0.00026295 -3.88439e-06 6.59747e-24)
(0.000275587 2.50706e-05 -5.34837e-24)
(0.000273964 -3.31652e-06 -1.5209e-24)
(0.000286336 2.52933e-05 4.97115e-24)
(0.000284873 -2.78993e-06 -2.17359e-23)
(0.000296971 2.54666e-05 6.90437e-25)
(0.000295672 -2.30448e-06 2.67017e-23)
(0.000307491 2.55904e-05 -2.33617e-23)
(0.000306353 -1.85844e-06 -8.27592e-24)
(0.000317892 2.56657e-05 1.34017e-23)
(0.000316908 -1.44894e-06 -1.09185e-23)
(0.000328169 2.56944e-05 1.51579e-23)
(0.000327333 -1.07241e-06 1.16227e-23)
(0.000338318 2.56793e-05 7.99549e-24)
(0.000337619 -7.25017e-07 3.35209e-24)
(0.000348332 2.56231e-05 -2.17277e-23)
(0.000347762 -4.0302e-07 7.13936e-24)
(0.000358206 2.55287e-05 1.33194e-23)
(0.000357755 -1.03038e-07 -1.48168e-23)
(0.000367932 2.53985e-05 -5.18367e-24)
(0.000367593 1.77754e-07 2.13294e-24)
(0.000377502 2.52347e-05 -5.24315e-24)
(0.000377271 4.41505e-07 1.90932e-23)
(0.000386911 2.50385e-05 8.22529e-24)
(0.000386783 6.89635e-07 -1.77044e-23)
(0.00039615 2.48107e-05 -2.80621e-24)
(0.000396125 9.22813e-07 1.33531e-24)
(0.000405212 2.45512e-05 -6.17586e-24)
(0.000405292 1.14099e-06 -1.74046e-24)
(0.00041409 2.42593e-05 1.09684e-23)
(0.000414278 1.34341e-06 -2.49278e-23)
(0.000422775 2.39339e-05 1.34615e-23)
(0.000423079 1.52868e-06 7.57338e-24)
(0.000431263 2.35728e-05 -1.56416e-23)
(0.00043169 1.69481e-06 7.55114e-24)
(0.000439544 2.31735e-05 4.03257e-24)
(0.000440105 1.83925e-06 1.71496e-23)
(0.000447612 2.27331e-05 3.68853e-24)
(0.00044832 1.95889e-06 4.34123e-24)
(0.00045546 2.2248e-05 -1.77829e-25)
(0.000456329 2.05016e-06 -3.5101e-24)
(0.000463081 2.17143e-05 -9.25938e-24)
(0.000464127 2.10903e-06 -9.87337e-24)
(0.00047047 2.11275e-05 1.93618e-24)
(0.000471709 2.13106e-06 2.39459e-24)
(0.000477618 2.0483e-05 2.31952e-24)
(0.000479068 2.11154e-06 -4.81919e-24)
(0.000484522 1.97762e-05 -3.7798e-24)
(0.000486198 2.04554e-06 -2.78782e-25)
(0.000491174 1.90022e-05 1.09067e-23)
(0.000493094 1.92816e-06 4.55761e-24)
(0.000497569 1.81567e-05 2.53262e-24)
(0.00049975 1.75462e-06 6.41247e-24)
(0.000503704 1.72354e-05 -6.97293e-24)
(0.000506157 1.52056e-06 -6.04141e-24)
(0.000509574 1.62352e-05 5.20296e-24)
(0.00051231 1.2222e-06 7.53722e-24)
(0.000515176 1.51535e-05 1.30179e-24)
(0.000518202 8.56578e-07 -1.18379e-23)
(0.000520505 1.39891e-05 3.86918e-24)
(0.000523825 4.21724e-07 4.85194e-24)
(0.00052556 1.27419e-05 4.80477e-24)
(0.000529172 -8.31967e-08 -1.09573e-23)
(0.000530339 1.14133e-05 1.51673e-24)
(0.000534237 -6.57801e-07 3.53957e-25)
(0.00053484 1.0006e-05 -5.04867e-24)
(0.000539014 -1.30048e-06 1.54554e-24)
(0.000539061 8.52429e-06 -1.62415e-23)
(0.000543496 -2.00845e-06 5.37366e-24)
(0.000543002 6.97356e-06 3.56381e-24)
(0.000547678 -2.77788e-06 -1.60526e-24)
(0.000546661 5.36045e-06 5.6341e-24)
(0.000551558 -3.60401e-06 4.10366e-24)
(0.00055004 3.69254e-06 -8.07909e-24)
(0.000555131 -4.48135e-06 3.42921e-25)
(0.000553137 1.97816e-06 7.75549e-24)
(0.000558396 -5.40376e-06 2.44273e-24)
(0.000555953 2.26128e-07 -3.01091e-24)
(0.000561353 -6.3647e-06 -9.57714e-24)
(0.00055849 -1.5547e-06 5.70417e-24)
(0.000564002 -7.35728e-06 -5.44704e-25)
(0.000560748 -3.35594e-06 7.1861e-24)
(0.000566345 -8.3746e-06 7.29176e-25)
(0.000562728 -5.17078e-06 -1.41986e-23)
(0.000568385 -9.40952e-06 -4.34763e-24)
(0.000564427 -6.99404e-06 2.1244e-24)
(0.000570122 -1.04554e-05 1.19466e-23)
(0.000565847 -8.82398e-06 -8.67357e-25)
(0.000571561 -1.15037e-05 -1.06922e-23)
(0.000566977 -1.06508e-05 -5.18386e-24)
(0.000572694 -1.25519e-05 3.52495e-24)
(0.000567828 -1.24769e-05 -9.269e-24)
(0.000573539 -1.35874e-05 1.31397e-23)
(0.000568346 -1.42681e-05 -7.62222e-24)
(0.000569307 -1.51324e-05 2.2537e-23)
(0.000570925 -1.51743e-05 4.23468e-23)
(0.000572354 -1.51937e-05 3.5682e-23)
(0.000573588 -1.52321e-05 -5.67541e-23)
(0.000574051 -1.46641e-05 -2.14696e-23)
)
;
    }
    frontAndBackPlanes
    {
        type            empty;
    }
}


// ************************************************************************* //
