/*--------------------------------*- C++ -*----------------------------------*\
| =========                 |                                                 |
| \\      /  F ield         | OpenFOAM Extend Project: Open source CFD        |
|  \\    /   O peration     | Version:  1.6-ext                               |
|   \\  /    A nd           | Web:      www.extend-project.de                 |
|    \\/     M anipulation  |                                                 |
\*---------------------------------------------------------------------------*/
FoamFile
{
    version     2.0;
    format      ascii;
    class       volVectorField;
    location    "0.3";
    object      DV_0;
}
// * * * * * * * * * * * * * * * * * * * * * * * * * * * * * * * * * * * * * //

dimensions      [0 1 -1 0 0 0 0];

internalField   nonuniform List<vector> 
328
(
(7.64616e-07 1.30275e-06 0)
(5.32705e-07 2.81952e-07 0)
(5.28464e-07 -2.40138e-07 0)
(7.3094e-07 -1.18316e-06 0)
(2.33894e-06 3.41266e-06 0)
(1.73975e-06 8.45388e-07 0)
(1.72227e-06 -7.15269e-07 0)
(2.24129e-06 -3.11424e-06 0)
(4.16263e-06 5.05434e-06 0)
(3.31216e-06 1.39702e-06 0)
(3.27261e-06 -1.17371e-06 0)
(3.99768e-06 -4.6246e-06 0)
(6.15382e-06 6.27624e-06 0)
(5.14512e-06 1.89406e-06 0)
(5.08166e-06 -1.57475e-06 0)
(5.92099e-06 -5.74179e-06 0)
(8.33921e-06 7.17203e-06 0)
(7.2649e-06 2.31743e-06 0)
(7.17572e-06 -1.89997e-06 0)
(8.03801e-06 -6.54555e-06 0)
(1.07109e-05 7.81807e-06 0)
(9.63884e-06 2.65984e-06 0)
(9.5239e-06 -2.14055e-06 0)
(1.03411e-05 -7.10239e-06 0)
(1.32824e-05 8.2803e-06 0)
(1.2265e-05 2.92681e-06 0)
(1.21243e-05 -2.2991e-06 0)
(1.28435e-05 -7.47045e-06 0)
(1.60637e-05 8.6102e-06 0)
(1.51321e-05 3.13014e-06 0)
(1.49658e-05 -2.38321e-06 0)
(1.55545e-05 -7.69462e-06 0)
(1.90698e-05 8.84979e-06 0)
(1.82388e-05 3.28602e-06 0)
(1.80469e-05 -2.40388e-06 0)
(1.84882e-05 -7.81074e-06 0)
(2.23156e-05 9.03235e-06 0)
(2.15855e-05 3.41165e-06 0)
(2.13676e-05 -2.37224e-06 0)
(2.1659e-05 -7.84592e-06 0)
(2.58173e-05 9.18455e-06 0)
(2.51782e-05 3.52371e-06 0)
(2.49338e-05 -2.29819e-06 0)
(2.50827e-05 -7.82036e-06 0)
(2.95915e-05 9.3273e-06 0)
(2.90268e-05 3.63695e-06 0)
(2.87553e-05 -2.18916e-06 0)
(2.87754e-05 -7.7481e-06 0)
(3.36555e-05 9.47676e-06 0)
(3.31458e-05 3.76373e-06 0)
(3.28463e-05 -2.04978e-06 0)
(3.27547e-05 -7.63811e-06 0)
(3.80275e-05 9.64509e-06 0)
(3.75529e-05 3.91383e-06 0)
(3.72248e-05 -1.88195e-06 0)
(3.70391e-05 -7.49512e-06 0)
(4.27264e-05 9.84119e-06 0)
(4.22695e-05 4.09469e-06 0)
(4.1912e-05 -1.68527e-06 0)
(4.16486e-05 -7.32062e-06 0)
(4.7773e-05 1.00713e-05 0)
(4.7319e-05 4.31166e-06 0)
(4.69322e-05 -1.45775e-06 0)
(4.66051e-05 -7.11379e-06 0)
(5.31894e-05 1.03398e-05 0)
(5.27277e-05 4.56847e-06 0)
(5.23117e-05 -1.19655e-06 0)
(5.19326e-05 -6.87247e-06 0)
(5.89999e-05 1.06491e-05 0)
(5.85233e-05 4.86746e-06 0)
(5.8079e-05 -8.98718e-07 0)
(5.76573e-05 -6.59403e-06 0)
(6.52309e-05 1.10008e-05 0)
(6.47356e-05 5.20982e-06 0)
(6.42645e-05 -5.61731e-07 0)
(6.38078e-05 -6.27603e-06 0)
(7.19114e-05 1.1395e-05 0)
(7.13961e-05 5.59583e-06 0)
(7.09004e-05 -1.83885e-07 0)
(7.04151e-05 -5.91668e-06 0)
(7.9073e-05 1.18317e-05 0)
(7.85385e-05 6.02516e-06 0)
(7.8021e-05 2.35631e-07 0)
(7.75126e-05 -5.51504e-06 0)
(8.675e-05 1.23106e-05 0)
(8.61985e-05 6.49733e-06 0)
(8.56624e-05 6.96991e-07 0)
(8.51358e-05 -5.07108e-06 0)
(9.52936e-05 1.28522e-05 0)
(9.47276e-05 7.03185e-06 0)
(9.41762e-05 1.2195e-06 0)
(9.36351e-05 -4.56643e-06 0)
(0.000104435 1.34375e-05 0)
(0.000103859 7.61054e-06 0)
(0.000103297 1.78633e-06 0)
(0.000102745 -4.01647e-06 0)
(0.000113573 1.40244e-05 0)
(0.000112991 8.19294e-06 0)
(0.000112423 2.35916e-06 0)
(0.000111865 -3.45734e-06 0)
(0.000122704 1.46104e-05 0)
(0.000122122 8.77729e-06 0)
(0.000121552 2.93687e-06 0)
(0.000120991 -2.89e-06 0)
(0.000131827 1.51934e-05 0)
(0.000131249 9.36153e-06 0)
(0.000130682 3.51744e-06 0)
(0.000130121 -2.31681e-06 0)
(0.000140937 1.57703e-05 0)
(0.00014037 9.94238e-06 0)
(0.00013981 4.09742e-06 0)
(0.000139253 -1.74152e-06 0)
(0.000150032 1.63367e-05 0)
(0.00014948 1.05149e-05 0)
(0.000148933 4.67154e-06 0)
(0.000148385 -1.16984e-06 0)
(0.000159108 1.6887e-05 0)
(0.000158578 1.1073e-05 0)
(0.000158048 5.23303e-06 0)
(0.000157514 -6.08914e-07 0)
(0.000168164 1.74152e-05 0)
(0.00016766 1.16096e-05 0)
(0.000167154 5.77429e-06 0)
(0.000166639 -6.67822e-08 0)
(0.000177197 1.79151e-05 0)
(0.000176725 1.21177e-05 0)
(0.000176246 6.28778e-06 0)
(0.000175755 4.48693e-07 0)
(0.000186207 1.83807e-05 0)
(0.000185771 1.25911e-05 0)
(0.000185324 6.76683e-06 0)
(0.000184861 9.30676e-07 0)
(0.000195195 1.88073e-05 0)
(0.000194797 1.30247e-05 0)
(0.000194385 7.20628e-06 0)
(0.000193953 1.37406e-06 0)
(0.000204158 1.91912e-05 0)
(0.000203801 1.34151e-05 0)
(0.000203425 7.60287e-06 0)
(0.000203027 1.77579e-06 0)
(0.000213098 1.95302e-05 0)
(0.000212783 1.37606e-05 0)
(0.000212444 7.95525e-06 0)
(0.00021208 2.13497e-06 0)
(0.000222013 1.98235e-05 0)
(0.000221739 1.40609e-05 0)
(0.000221437 8.26392e-06 0)
(0.000221107 2.4526e-06 0)
(0.000230901 2.00714e-05 0)
(0.000230667 1.43175e-05 0)
(0.0002304 8.53089e-06 0)
(0.000230103 2.73126e-06 0)
(0.000239759 2.02756e-05 0)
(0.000239563 1.45327e-05 0)
(0.00023933 8.75935e-06 0)
(0.000239064 2.97471e-06 0)
(0.000248584 2.04385e-05 0)
(0.000248423 1.471e-05 0)
(0.000248221 8.9533e-06 0)
(0.000247983 3.18744e-06 0)
(0.000257371 2.05632e-05 0)
(0.000257243 1.48531e-05 0)
(0.00025707 9.1172e-06 0)
(0.000256856 3.3743e-06 0)
(0.000266115 2.06531e-05 0)
(0.000266017 1.49662e-05 0)
(0.000265869 9.25557e-06 0)
(0.000265676 3.54018e-06 0)
(0.000274808 2.07116e-05 0)
(0.000274738 1.5053e-05 0)
(0.000274613 9.3728e-06 0)
(0.000274439 3.68968e-06 0)
(0.000283445 2.07417e-05 0)
(0.0002834 1.51174e-05 0)
(0.000283295 9.47277e-06 0)
(0.000283137 3.82689e-06 0)
(0.000292018 2.07463e-05 0)
(0.000291996 1.51622e-05 0)
(0.00029191 9.55875e-06 0)
(0.000291765 3.9552e-06 0)
(0.000300518 2.07273e-05 0)
(0.000300518 1.51897e-05 0)
(0.00030045 9.63317e-06 0)
(0.000300317 4.07714e-06 0)
(0.000308936 2.06859e-05 0)
(0.000308958 1.52012e-05 0)
(0.000308907 9.69752e-06 0)
(0.000308786 4.19431e-06 0)
(0.000317264 2.06223e-05 0)
(0.000317309 1.51972e-05 0)
(0.000317275 9.75232e-06 0)
(0.000317165 4.30732e-06 0)
(0.000325493 2.05359e-05 0)
(0.000325561 1.51771e-05 0)
(0.000325545 9.7971e-06 0)
(0.000325448 4.41577e-06 0)
(0.000333612 2.04252e-05 0)
(0.000333706 1.51394e-05 0)
(0.00033371 9.8304e-06 0)
(0.000333627 4.51831e-06 0)
(0.000341613 2.02877e-05 0)
(0.000341735 1.50816e-05 0)
(0.000341762 9.84988e-06 0)
(0.000341695 4.61266e-06 0)
(0.000349485 2.01202e-05 0)
(0.000349638 1.50006e-05 0)
(0.000349692 9.85233e-06 0)
(0.000349644 4.69574e-06 0)
(0.00035722 1.99187e-05 0)
(0.000357408 1.48923e-05 0)
(0.000357491 9.83379e-06 0)
(0.000357466 4.76366e-06 0)
(0.000364805 1.96786e-05 0)
(0.000365034 1.4752e-05 0)
(0.000365151 9.78961e-06 0)
(0.000365154 4.81191e-06 0)
(0.000372234 1.93948e-05 0)
(0.000372507 1.45746e-05 0)
(0.000372662 9.71459e-06 0)
(0.000372698 4.83535e-06 0)
(0.000379494 1.90616e-05 0)
(0.000379817 1.43543e-05 0)
(0.000380017 9.60303e-06 0)
(0.00038009 4.82842e-06 0)
(0.000386578 1.86732e-05 0)
(0.000386956 1.40852e-05 0)
(0.000387205 9.44892e-06 0)
(0.000387321 4.78517e-06 0)
(0.000393476 1.82234e-05 0)
(0.000393915 1.37609e-05 0)
(0.000394217 9.24602e-06 0)
(0.000394382 4.69949e-06 0)
(0.000400178 1.77063e-05 0)
(0.000400683 1.33753e-05 0)
(0.000401045 8.98807e-06 0)
(0.000401263 4.5652e-06 0)
(0.000406676 1.71158e-05 0)
(0.000407251 1.29223e-05 0)
(0.000407678 8.66898e-06 0)
(0.000407955 4.37629e-06 0)
(0.000412961 1.64464e-05 0)
(0.000413612 1.23963e-05 0)
(0.000414107 8.28301e-06 0)
(0.000414447 4.1271e-06 0)
(0.000419025 1.56932e-05 0)
(0.000419755 1.1792e-05 0)
(0.000420323 7.82499e-06 0)
(0.00042073 3.81251e-06 0)
(0.00042486 1.48521e-05 0)
(0.000425673 1.11052e-05 0)
(0.000426316 7.2905e-06 0)
(0.000426794 3.42813e-06 0)
(0.000430458 1.39197e-05 0)
(0.000431356 1.03324e-05 0)
(0.000432077 6.67603e-06 0)
(0.000432628 2.97046e-06 0)
(0.000435812 1.28937e-05 0)
(0.000436796 9.47129e-06 0)
(0.000437597 5.97913e-06 0)
(0.000438222 2.43704e-06 0)
(0.000440915 1.17733e-05 0)
(0.000441986 8.52062e-06 0)
(0.000442866 5.19851e-06 0)
(0.000443566 1.82651e-06 0)
(0.00044576 1.05585e-05 0)
(0.000446916 7.48044e-06 0)
(0.000447875 4.3341e-06 0)
(0.00044865 1.13871e-06 0)
(0.000450339 9.25069e-06 0)
(0.00045158 6.35205e-06 0)
(0.000452615 3.38706e-06 0)
(0.000453463 3.74671e-07 0)
(0.000454648 7.85266e-06 0)
(0.000455969 5.13801e-06 0)
(0.000457079 2.3598e-06 0)
(0.000457996 -4.63374e-07 0)
(0.000458678 6.3683e-06 0)
(0.000460076 3.84209e-06 0)
(0.000461256 1.25592e-06 0)
(0.00046224 -1.37208e-06 0)
(0.000462424 4.80273e-06 0)
(0.000463894 2.46918e-06 0)
(0.00046514 8.00731e-08 0)
(0.000466186 -2.34707e-06 0)
(0.000465881 3.16215e-06 0)
(0.000467416 1.02524e-06 0)
(0.000468723 -1.1621e-06 0)
(0.000469826 -3.38315e-06 0)
(0.000469043 1.45388e-06 0)
(0.000470637 -4.82842e-07 0)
(0.000471997 -2.46415e-06 0)
(0.000473151 -4.47438e-06 0)
(0.000471905 -3.13655e-07 0)
(0.000473551 -2.04723e-06 0)
(0.000474958 -3.81884e-06 0)
(0.000476155 -5.61432e-06 0)
(0.000474465 -2.13075e-06 0)
(0.000476153 -3.65908e-06 0)
(0.000477599 -5.21828e-06 0)
(0.000478834 -6.79615e-06 0)
(0.000476719 -3.98611e-06 0)
(0.00047844 -5.3085e-06 0)
(0.000479918 -6.65403e-06 0)
(0.000481183 -8.01304e-06 0)
(0.000478668 -5.86687e-06 0)
(0.000480413 -6.98469e-06 0)
(0.000481914 -8.11748e-06 0)
(0.000483203 -9.25869e-06 0)
(0.000480315 -7.75805e-06 0)
(0.000482072 -8.67628e-06 0)
(0.000483588 -9.60085e-06 0)
(0.000484896 -1.05291e-05 0)
(0.00048167 -9.64576e-06 0)
(0.00048343 -1.03734e-05 0)
(0.000484953 -1.10976e-05 0)
(0.000486272 -1.18223e-05 0)
(0.000482742 -1.15176e-05 0)
(0.000484493 -1.20684e-05 0)
(0.000486014 -1.26029e-05 0)
(0.00048734 -1.31397e-05 0)
(0.000483574 -1.339e-05 0)
(0.000485298 -1.37619e-05 0)
(0.000486809 -1.41053e-05 0)
(0.000488143 -1.44642e-05 0)
(0.000484132 -1.52341e-05 0)
(0.000485803 -1.5432e-05 0)
(0.000487305 -1.5586e-05 0)
(0.000488657 -1.57862e-05 0)
)
;

boundaryField
{
    plateFix
    {
        type            calculated;
        value           uniform (0 0 0);
    }
    plate
    {
        type            calculated;
        value           nonuniform List<vector> 
168
(
(6.40709e-06 3.38515e-06 -3.10573e-23)
(5.79902e-06 -3.04573e-06 9.5583e-23)
(6.68915e-06 5.66748e-06 -2.15437e-23)
(6.21726e-06 -5.18206e-06 -6.18073e-23)
(7.25805e-06 7.4693e-06 7.52035e-23)
(6.82717e-06 -6.86814e-06 2.14906e-23)
(8.2877e-06 8.77198e-06 3.27869e-23)
(7.84941e-06 -8.08e-06 3.43286e-23)
(9.78611e-06 9.7361e-06 -4.3633e-23)
(9.30959e-06 -8.96431e-06 -3.27352e-23)
(1.16781e-05 1.0431e-05 -1.16733e-23)
(1.1144e-05 -9.58086e-06 1.54714e-27)
(1.39244e-05 1.09355e-05 -1.69049e-23)
(1.33192e-05 -1.00003e-05 1.14881e-23)
(1.64915e-05 1.13015e-05 2.03974e-23)
(1.58051e-05 -1.02683e-05 -3.2461e-23)
(1.9363e-05 1.15735e-05 -3.40708e-23)
(1.85867e-05 -1.04232e-05 -2.49513e-23)
(2.25304e-05 1.1785e-05 4.92627e-24)
(2.16561e-05 -1.04928e-05 9.98787e-23)
(2.59924e-05 1.19629e-05 1.12366e-23)
(2.50127e-05 -1.04977e-05 -4.54493e-23)
(2.97528e-05 1.21278e-05 8.66899e-24)
(2.86607e-05 -1.04522e-05 -1.5279e-23)
(3.38193e-05 1.22961e-05 -1.39627e-27)
(3.2609e-05 -1.03655e-05 2.55015e-24)
(3.82033e-05 1.24801e-05 1.25214e-23)
(3.687e-05 -1.02429e-05 1.98772e-24)
(4.29191e-05 1.26889e-05 -3.19982e-23)
(4.14603e-05 -1.00863e-05 4.0223e-25)
(4.79841e-05 1.29293e-05 3.02457e-23)
(4.63997e-05 -9.89532e-06 4.01409e-24)
(5.34185e-05 1.32058e-05 -3.4562e-23)
(5.17114e-05 -9.66837e-06 -2.17996e-23)
(5.92455e-05 1.35216e-05 4.47277e-23)
(5.74216e-05 -9.40311e-06 3.41858e-23)
(6.54907e-05 1.38782e-05 -2.27693e-23)
(6.35594e-05 -9.09732e-06 -2.09438e-23)
(7.21828e-05 1.42763e-05 -5.72428e-24)
(7.01564e-05 -8.7493e-06 1.93565e-24)
(7.93538e-05 1.47159e-05 7.08019e-24)
(7.72463e-05 -8.35817e-06 1.97786e-23)
(8.70383e-05 1.51972e-05 1.36568e-23)
(8.48648e-05 -7.92408e-06 -3.7835e-23)
(9.55881e-05 1.57411e-05 -1.42607e-23)
(9.33614e-05 -7.42942e-06 2.61356e-23)
(0.000104734 1.63287e-05 6.27149e-24)
(0.000102469 -6.88876e-06 -1.95692e-23)
(0.000113874 1.69167e-05 -6.21223e-24)
(0.000111587 -6.33704e-06 2.84095e-23)
(0.000123006 1.75025e-05 4.78443e-24)
(0.000120711 -5.77529e-06 -2.19301e-23)
(0.000132127 1.80838e-05 5.45707e-24)
(0.00012984 -5.20623e-06 1.10149e-23)
(0.000141233 1.86577e-05 -1.84821e-24)
(0.000138972 -4.63384e-06 -2.71768e-24)
(0.00015032 1.92202e-05 2.35381e-24)
(0.000148105 -4.06406e-06 -1.16666e-24)
(0.000159385 1.97661e-05 4.05857e-25)
(0.000157239 -3.50426e-06 4.42347e-24)
(0.000168425 2.02899e-05 1.32438e-24)
(0.000166371 -2.96265e-06 2.33936e-24)
(0.00017744 2.07856e-05 -3.2126e-24)
(0.000175499 -2.4472e-06 2.00262e-24)
(0.00018643 2.12478e-05 6.71858e-24)
(0.000184619 -1.96479e-06 -6.14982e-25)
(0.000195394 2.16716e-05 -1.30885e-23)
(0.000193727 -1.52045e-06 -1.53232e-24)
(0.000204334 2.20533e-05 6.13221e-24)
(0.000202819 -1.11707e-06 -2.96326e-24)
(0.000213249 2.23903e-05 8.24168e-24)
(0.00021189 -7.55315e-07 1.2831e-24)
(0.000222139 2.26813e-05 -5.85986e-24)
(0.000220935 -4.33902e-07 1.84079e-23)
(0.000231004 2.29262e-05 1.22113e-24)
(0.000229948 -1.49952e-07 -2.08331e-23)
(0.000239841 2.31262e-05 1.97261e-23)
(0.000238924 1.00558e-07 5.80551e-24)
(0.000248645 2.32832e-05 -1.22134e-23)
(0.000247857 3.22359e-07 1.75601e-23)
(0.000257414 2.33998e-05 -2.10111e-23)
(0.000256741 5.20492e-07 -2.08644e-23)
(0.000266141 2.34791e-05 3.58228e-24)
(0.000265572 6.99973e-07 1.18865e-24)
(0.00027482 2.35241e-05 1.38254e-23)
(0.000274342 8.65502e-07 -5.8454e-24)
(0.000283444 2.35378e-05 -2.32846e-23)
(0.000283046 1.02124e-06 1.76414e-23)
(0.000292005 2.35227e-05 1.23655e-23)
(0.000291679 1.17061e-06 -5.97848e-25)
(0.000300493 2.34807e-05 8.84413e-24)
(0.000300234 1.31618e-06 -2.68388e-23)
(0.000308901 2.34128e-05 -2.2886e-24)
(0.000308706 1.45958e-06 2.33949e-23)
(0.000317218 2.33193e-05 -4.38313e-24)
(0.000317088 1.60144e-06 -8.48593e-24)
(0.000325435 2.31996e-05 2.58663e-24)
(0.000325374 1.74141e-06 1.79743e-24)
(0.000333542 2.3052e-05 -8.24737e-25)
(0.000333558 1.87818e-06 2.20143e-23)
(0.000341528 2.28742e-05 -2.03589e-23)
(0.000341631 2.00953e-06 -9.7885e-24)
(0.000349385 2.26629e-05 4.28711e-24)
(0.000349588 2.13241e-06 -5.86939e-24)
(0.000357101 2.24142e-05 1.63999e-23)
(0.000357419 2.243e-06 -8.02974e-24)
(0.000364666 2.21236e-05 -1.02114e-23)
(0.000365119 2.33684e-06 -1.93235e-24)
(0.000372071 2.17859e-05 1.28205e-24)
(0.000372677 2.40886e-06 -6.71887e-25)
(0.000379305 2.13956e-05 -6.9222e-24)
(0.000380086 2.45355e-06 6.75785e-24)
(0.00038636 2.09469e-05 1.83736e-24)
(0.000387337 2.46503e-06 -1.15657e-24)
(0.000393225 2.04337e-05 -7.80265e-24)
(0.000394421 2.43725e-06 4.10919e-24)
(0.000399892 1.98501e-05 -3.13347e-24)
(0.000401328 2.36411e-06 -2.1485e-26)
(0.000406352 1.91903e-05 -4.18778e-24)
(0.000408049 2.23964e-06 -1.03744e-23)
(0.000412596 1.84488e-05 8.75139e-25)
(0.000414573 2.05825e-06 -4.78095e-24)
(0.000418617 1.76208e-05 5.47927e-24)
(0.00042089 1.81486e-06 6.80291e-24)
(0.000424407 1.67021e-05 -5.93505e-24)
(0.00042699 1.50511e-06 -1.29138e-23)
(0.000429958 1.56897e-05 9.60856e-25)
(0.000432862 1.12552e-06 1.25722e-23)
(0.000435265 1.45814e-05 -1.3207e-23)
(0.000438495 6.73612e-07 -3.47479e-24)
(0.000440321 1.33762e-05 8.81512e-24)
(0.000443877 1.48018e-07 1.11048e-24)
(0.000445118 1.20743e-05 1.12635e-24)
(0.000449 -4.51475e-07 4.8296e-25)
(0.000449652 1.06772e-05 3.7399e-25)
(0.000453851 -1.1239e-06 -4.09918e-25)
(0.000453915 9.18774e-06 9.64383e-24)
(0.000458421 -1.86713e-06 -3.46535e-25)
(0.000457903 7.60988e-06 2.27641e-24)
(0.0004627 -2.67794e-06 5.99294e-24)
(0.00046161 5.94885e-06 -1.08881e-23)
(0.000466678 -3.55216e-06 -6.47343e-24)
(0.000465031 4.21101e-06 1.32424e-23)
(0.000470347 -4.4848e-06 4.33506e-24)
(0.00046816 2.40391e-06 -6.68455e-24)
(0.000473699 -5.47025e-06 3.92048e-24)
(0.000470995 5.36314e-07 -4.00757e-24)
(0.000476726 -6.50249e-06 4.89879e-24)
(0.000473531 -1.38159e-06 4.06401e-24)
(0.000479425 -7.5753e-06 -8.98147e-24)
(0.000475769 -3.33772e-06 -9.65933e-25)
(0.000481791 -8.6828e-06 7.90392e-25)
(0.000477708 -5.31817e-06 9.97989e-24)
(0.000483825 -9.81993e-06 1.20003e-24)
(0.000479351 -7.30587e-06 1.05461e-23)
(0.000485529 -1.09851e-05 -5.66787e-24)
(0.000480708 -9.28505e-06 -1.94354e-23)
(0.000486918 -1.21784e-05 -4.46452e-25)
(0.000481781 -1.12374e-05 1.50954e-23)
(0.000487995 -1.34074e-05 5.46427e-24)
(0.000482614 -1.31931e-05 -4.84988e-24)
(0.000488804 -1.465e-05 8.97984e-24)
(0.000483184 -1.51192e-05 2.01597e-24)
(0.000484364 -1.61223e-05 -3.14149e-24)
(0.000485981 -1.62362e-05 -3.46671e-23)
(0.000487479 -1.62929e-05 -9.72417e-24)
(0.000488852 -1.64443e-05 -1.48769e-24)
(0.000489317 -1.58984e-05 1.15728e-25)
)
;
    }
    frontAndBackPlanes
    {
        type            empty;
    }
}


// ************************************************************************* //
