/*--------------------------------*- C++ -*----------------------------------*\
| =========                 |                                                 |
| \\      /  F ield         | OpenFOAM Extend Project: Open source CFD        |
|  \\    /   O peration     | Version:  1.6-ext                               |
|   \\  /    A nd           | Web:      www.extend-project.de                 |
|    \\/     M anipulation  |                                                 |
\*---------------------------------------------------------------------------*/
FoamFile
{
    version     2.0;
    format      ascii;
    class       surfaceScalarField;
    location    "0.3";
    object      meshPhi;
}
// * * * * * * * * * * * * * * * * * * * * * * * * * * * * * * * * * * * * * //

dimensions      [0 3 -1 0 0 0 0];

internalField   nonuniform List<scalar> 
570
(
-2.99189e-10
-7.84618e-09
4.74821e-12
-2.22802e-09
3.22953e-10
-2.30554e-09
-8.49986e-09
-8.99811e-10
-9.22668e-09
1.97057e-11
-4.9485e-09
9.79769e-10
-5.11454e-09
-1.00723e-08
-1.44858e-09
-1.1356e-08
4.65887e-11
-8.2475e-09
1.60196e-09
-8.51347e-09
-1.24492e-08
-1.93017e-09
-1.42159e-08
8.82161e-11
-1.20339e-08
2.1808e-09
-1.24072e-08
-1.55975e-08
-2.34228e-09
-1.77454e-08
1.47872e-10
-1.63027e-08
2.72194e-09
-1.67897e-08
-1.94461e-08
-2.6864e-09
-2.18596e-08
2.29775e-10
-2.10209e-08
3.23647e-09
-2.1626e-08
-2.39005e-08
-2.96448e-09
-2.6513e-08
3.39281e-10
-2.61802e-08
3.73793e-09
-2.69066e-08
-2.89085e-08
-3.17843e-09
-3.16756e-08
4.83054e-10
-3.1773e-08
4.24213e-09
-3.26229e-08
-3.4435e-08
-3.32926e-09
-3.73371e-08
6.69273e-10
-3.78032e-08
4.7668e-09
-3.87778e-08
-4.04652e-08
-3.41658e-09
-4.34989e-08
9.07864e-10
-4.42812e-08
5.33158e-09
-4.53805e-08
-4.69966e-08
-3.43782e-09
-5.01726e-08
1.21074e-09
-5.12255e-08
5.95775e-09
-5.24483e-08
-5.40366e-08
-3.38756e-09
-5.73775e-08
1.59206e-09
-5.86613e-08
6.66815e-09
-6.0005e-08
-6.16e-08
-3.25695e-09
-6.51398e-08
2.0685e-09
-6.66201e-08
7.48711e-09
-6.80803e-08
-6.9708e-08
-3.03322e-09
-7.34918e-08
2.65947e-09
-7.51386e-08
8.44051e-09
-7.67092e-08
-7.83869e-08
-2.69948e-09
-8.24713e-08
3.38731e-09
-8.42582e-08
9.55587e-09
-8.59307e-08
-8.76678e-08
-2.23473e-09
-9.21214e-08
4.27736e-09
-9.40242e-08
1.08626e-08
-9.57876e-08
-9.75857e-08
-1.61425e-09
-1.0249e-07
5.3579e-09
-1.04485e-07
1.23923e-08
-1.06326e-07
-1.0818e-07
-8.10163e-10
-1.1363e-07
6.65977e-09
-1.15694e-07
1.41784e-08
-1.17593e-07
-1.19492e-07
2.07467e-10
-1.25597e-07
8.21574e-09
-1.27704e-07
1.62561e-08
-1.29642e-07
-1.31568e-07
1.46927e-09
-1.38455e-07
1.00593e-08
-1.40574e-07
1.86616e-08
-1.42524e-07
-1.44457e-07
3.00462e-09
-1.52266e-07
1.22227e-08
-1.54364e-07
2.14295e-08
-1.56297e-07
-1.5821e-07
4.83888e-09
-1.67102e-07
1.47341e-08
-1.69138e-07
2.45906e-08
-1.71019e-07
-1.72879e-07
7.57442e-09
-1.84201e-07
1.89815e-08
-1.86124e-07
3.03118e-08
-1.87904e-07
-1.89668e-07
9.60721e-09
-2.01306e-07
2.10254e-08
-2.03073e-07
3.23349e-08
-2.0471e-07
-2.0634e-07
1.14885e-08
-2.184e-07
2.29108e-08
-2.1997e-07
3.41947e-08
-2.21428e-07
-2.22886e-07
1.3185e-08
-2.35459e-07
2.45989e-08
-2.36798e-07
3.58471e-08
-2.38041e-07
-2.39292e-07
1.46655e-08
-2.52457e-07
2.6053e-08
-2.53533e-07
3.725e-08
-2.54528e-07
-2.55539e-07
1.59007e-08
-2.69363e-07
2.72385e-08
-2.70149e-07
3.83639e-08
-2.70868e-07
-2.71606e-07
1.68626e-08
-2.86143e-07
2.81237e-08
-2.86615e-07
3.91532e-08
-2.87033e-07
-2.8747e-07
1.75255e-08
-3.02761e-07
2.86802e-08
-3.02901e-07
3.95873e-08
-3.02995e-07
-3.03106e-07
1.78656e-08
-3.19182e-07
2.88836e-08
-3.18975e-07
3.96414e-08
-3.1873e-07
-3.18492e-07
1.78622e-08
-3.35372e-07
2.87148e-08
-3.34809e-07
3.92977e-08
-3.34211e-07
-3.3361e-07
1.74988e-08
-3.51301e-07
2.816e-08
-3.50376e-07
3.85456e-08
-3.49418e-07
-3.48444e-07
1.67636e-08
-3.66942e-07
2.72115e-08
-3.65654e-07
3.73813e-08
-3.64332e-07
-3.62981e-07
1.56501e-08
-3.82274e-07
2.58677e-08
-3.80625e-07
3.58079e-08
-3.78942e-07
-3.77214e-07
1.41577e-08
-3.97279e-07
2.41327e-08
-3.95277e-07
3.38342e-08
-3.93238e-07
-3.91139e-07
1.22913e-08
-4.11944e-07
2.20161e-08
-4.09601e-07
3.1474e-08
-4.07215e-07
-4.04755e-07
1.00607e-08
-4.26262e-07
1.95317e-08
-4.23591e-07
2.87448e-08
-4.20871e-07
-4.18064e-07
7.48038e-09
-4.40228e-07
1.66971e-08
-4.37244e-07
2.56668e-08
-4.34206e-07
-4.31068e-07
4.56795e-09
-4.53839e-07
1.35323e-08
-4.50561e-07
2.22618e-08
-4.47222e-07
-4.43771e-07
1.34346e-09
-4.67098e-07
1.0059e-08
-4.63544e-07
1.85527e-08
-4.5992e-07
-4.56176e-07
-2.17176e-09
-4.80006e-07
6.29945e-09
-4.76193e-07
1.45622e-08
-4.72303e-07
-4.68286e-07
-5.95601e-09
-4.92566e-07
2.27576e-09
-4.88514e-07
1.03123e-08
-4.84375e-07
-4.80103e-07
-9.9881e-09
-5.04782e-07
-1.99081e-09
-5.00507e-07
5.82403e-09
-4.96138e-07
-4.9163e-07
-1.4248e-08
-5.16659e-07
-6.48042e-09
-5.12178e-07
1.11662e-09
-5.07593e-07
-5.02866e-07
-1.87174e-08
-5.28203e-07
-1.11752e-08
-5.23528e-07
-3.79265e-09
-5.18742e-07
-5.13811e-07
-2.33803e-08
-5.39416e-07
-1.60594e-08
-5.3456e-07
-8.8887e-09
-5.29585e-07
-5.24463e-07
-2.82227e-08
-5.50304e-07
-2.11197e-08
-5.45277e-07
-1.41589e-08
-5.40124e-07
-5.34822e-07
-3.32335e-08
-5.60872e-07
-2.63454e-08
-5.55681e-07
-1.9593e-08
-5.50358e-07
-5.44885e-07
-3.84041e-08
-5.71122e-07
-3.17283e-08
-5.65774e-07
-2.51832e-08
-5.60287e-07
-5.5465e-07
-4.37283e-08
-5.8106e-07
-3.72627e-08
-5.75557e-07
-3.09242e-08
-5.6991e-07
-5.64115e-07
-4.92023e-08
-5.90687e-07
-4.29451e-08
-5.85031e-07
-3.68128e-08
-5.79228e-07
-5.73276e-07
-5.48245e-08
-6.00006e-07
-4.87742e-08
-5.94199e-07
-4.28479e-08
-5.88239e-07
-5.82131e-07
-6.05953e-08
-6.09021e-07
-5.47507e-08
-6.03059e-07
-4.90301e-08
-5.96944e-07
-5.9068e-07
-6.65165e-08
-6.17732e-07
-6.08766e-08
-6.11615e-07
-5.53618e-08
-6.05341e-07
-5.98919e-07
-7.25913e-08
-6.26141e-07
-6.71554e-08
-6.19865e-07
-6.18462e-08
-6.1343e-07
-6.06848e-07
-7.8824e-08
-6.3425e-07
-7.35914e-08
-6.2781e-07
-6.84877e-08
-6.21212e-07
-6.14467e-07
-8.52193e-08
-6.42058e-07
-8.01897e-08
-6.35451e-07
-7.52912e-08
-6.28686e-07
-6.21774e-07
-9.17822e-08
-6.49566e-07
-8.69553e-08
-6.42788e-07
-8.22617e-08
-6.35853e-07
-6.2877e-07
-9.85178e-08
-6.56774e-07
-9.38934e-08
-6.49821e-07
-8.94043e-08
-6.42713e-07
-6.35457e-07
-1.05431e-07
-6.6368e-07
-1.01009e-07
-6.5655e-07
-9.67236e-08
-6.49267e-07
-6.41834e-07
-1.12525e-07
-6.70285e-07
-1.08305e-07
-6.62976e-07
-1.04223e-07
-6.55515e-07
-6.47905e-07
-1.19803e-07
-6.76587e-07
-1.15785e-07
-6.69097e-07
-1.11906e-07
-6.61459e-07
-6.5367e-07
-1.27267e-07
-6.82585e-07
-1.23452e-07
-6.74915e-07
-1.19775e-07
-6.67099e-07
-6.59132e-07
-1.34916e-07
-6.88277e-07
-1.31304e-07
-6.80428e-07
-1.27828e-07
-6.72438e-07
-6.64295e-07
-1.42751e-07
-6.93661e-07
-1.39342e-07
-6.85637e-07
-1.36066e-07
-6.77475e-07
-6.6916e-07
-1.50767e-07
-6.98735e-07
-1.47561e-07
-6.90541e-07
-1.44484e-07
-6.82213e-07
-6.73731e-07
-1.58959e-07
-7.03498e-07
-1.55957e-07
-6.95141e-07
-1.53078e-07
-6.86654e-07
-6.7801e-07
-1.67321e-07
-7.07947e-07
-1.64523e-07
-6.99435e-07
-1.61842e-07
-6.90797e-07
-6.82002e-07
-1.75844e-07
-7.1208e-07
-1.7325e-07
-7.03425e-07
-1.70765e-07
-6.94645e-07
-6.85708e-07
-1.84517e-07
-7.15897e-07
-1.82128e-07
-7.07108e-07
-1.79839e-07
-6.98199e-07
-6.89131e-07
-1.93328e-07
-7.19394e-07
-1.91143e-07
-7.10486e-07
-1.8905e-07
-7.0146e-07
-6.92274e-07
-2.02262e-07
-7.22572e-07
-2.00283e-07
-7.13558e-07
-1.98384e-07
-7.04428e-07
-6.95139e-07
-2.11303e-07
-7.25427e-07
-2.0953e-07
-7.16323e-07
-2.07827e-07
-7.07104e-07
-6.97726e-07
-2.20436e-07
-7.2796e-07
-2.1887e-07
-7.18781e-07
-2.17362e-07
-7.09487e-07
-7.00035e-07
-2.29642e-07
-7.30171e-07
-2.28283e-07
-7.20931e-07
-2.26972e-07
-7.11578e-07
-7.02068e-07
-2.38904e-07
-7.32058e-07
-2.37754e-07
-7.22774e-07
-2.3664e-07
-7.13374e-07
-7.03821e-07
-2.48204e-07
-7.33623e-07
-2.47264e-07
-7.24306e-07
-2.46351e-07
-7.14874e-07
-7.05293e-07
-2.57524e-07
-7.34868e-07
-2.56797e-07
-7.25527e-07
-2.56088e-07
-7.16074e-07
-7.06481e-07
-2.66853e-07
-7.35805e-07
-2.66337e-07
-7.26437e-07
-2.65834e-07
-7.16971e-07
-7.07389e-07
-2.76196e-07
-7.36447e-07
-2.75874e-07
-7.27032e-07
-2.75559e-07
-7.17562e-07
-7.08023e-07
-2.85589e-07
-2.85395e-07
-2.85209e-07
)
;

boundaryField
{
    plateFix
    {
        type            calculated;
        value           nonuniform List<scalar> 4(6.08943e-09 8.61346e-14 5.43167e-14 6.56401e-09);
    }
    plate
    {
        type            calculated;
        value           nonuniform List<scalar> 
168
(
1.41725e-09
1.54123e-09
2.4769e-09
2.69098e-09
3.44411e-09
3.75938e-09
4.28651e-09
4.71984e-09
5.01587e-09
5.59328e-09
5.65407e-09
6.41273e-09
6.2164e-09
7.206e-09
6.71552e-09
8.00035e-09
7.15961e-09
8.82096e-09
7.55339e-09
9.69267e-09
7.89791e-09
1.06403e-08
8.19062e-09
1.16892e-08
8.42516e-09
1.28659e-08
8.59119e-09
1.41981e-08
8.67436e-09
1.57155e-08
8.65644e-09
1.74495e-08
8.51568e-09
1.9434e-08
8.22756e-09
2.17051e-08
7.76572e-09
2.43009e-08
7.10335e-09
2.72605e-08
6.21494e-09
3.06218e-08
5.07855e-09
3.44181e-08
3.88167e-09
4.15917e-08
1.88277e-09
4.35763e-08
2.62356e-11
4.53934e-08
-1.66043e-09
4.69938e-08
-3.15158e-09
4.83299e-08
-4.42301e-09
4.93575e-08
-5.45091e-09
5.00374e-08
-6.21168e-09
5.03371e-08
-6.68211e-09
5.02317e-08
-6.84022e-09
4.97053e-08
-6.66634e-09
4.87502e-08
-6.1444e-09
4.7367e-08
-5.26311e-09
4.55634e-08
-4.0167e-09
4.33528e-08
-2.40525e-09
4.0753e-08
-4.34548e-10
3.77846e-08
1.88455e-09
3.44702e-08
4.537e-09
3.08333e-08
7.50466e-09
2.68972e-08
1.07674e-08
2.26848e-08
1.43043e-08
1.8218e-08
1.80943e-08
1.35168e-08
2.21175e-08
8.59992e-09
2.63553e-08
3.48371e-09
3.07914e-08
-1.81754e-09
3.54114e-08
-7.29185e-09
4.02038e-08
-1.29296e-08
4.51595e-08
-1.87235e-08
5.02718e-08
-2.46684e-08
5.55366e-08
-3.07614e-08
6.09518e-08
-3.70015e-08
6.65174e-08
-4.33893e-08
7.22349e-08
-4.9927e-08
7.81073e-08
-5.66179e-08
8.41383e-08
-6.3466e-08
9.03324e-08
-7.0476e-08
9.66946e-08
-7.76528e-08
1.03229e-07
-8.50011e-08
1.09941e-07
-9.25253e-08
1.16834e-07
-1.00229e-07
1.2391e-07
-1.08115e-07
1.31171e-07
-1.16184e-07
1.38617e-07
-1.24438e-07
1.46246e-07
-1.32873e-07
1.54057e-07
-1.41488e-07
1.62042e-07
-1.50277e-07
1.70196e-07
-1.59234e-07
1.7851e-07
-1.68349e-07
1.86972e-07
-1.77613e-07
1.95571e-07
-1.87013e-07
2.04293e-07
-1.96536e-07
2.13122e-07
-2.06167e-07
2.2204e-07
-2.1589e-07
2.31032e-07
-2.25689e-07
2.4008e-07
-2.35547e-07
2.49164e-07
-2.4545e-07
2.5827e-07
-2.55382e-07
2.67386e-07
-2.65325e-07
2.76531e-07
-2.7524e-07
2.85795e-07
-7.36821e-07
-7.27372e-07
-7.17898e-07
-7.08394e-07
-2.85015e-07
)
;
    }
    frontAndBackPlanes
    {
        type            empty;
    }
}


// ************************************************************************* //
