/*--------------------------------*- C++ -*----------------------------------*\
| =========                 |                                                 |
| \\      /  F ield         | OpenFOAM Extend Project: Open source CFD        |
|  \\    /   O peration     | Version:  1.6-ext                               |
|   \\  /    A nd           | Web:      www.extend-project.de                 |
|    \\/     M anipulation  |                                                 |
\*---------------------------------------------------------------------------*/
FoamFile
{
    version     2.0;
    format      ascii;
    class       volScalarField;
    location    "0.3";
    object      sigmaEq;
}
// * * * * * * * * * * * * * * * * * * * * * * * * * * * * * * * * * * * * * //

dimensions      [1 -1 -2 0 0 0 0];

internalField   nonuniform List<scalar> 
328
(
1.32268
0.485204
0.544234
0.474158
1.39341
0.71969
0.543194
0.405933
1.49859
0.929467
0.589305
0.358772
1.56811
1.06961
0.64028
0.328813
1.62594
1.17368
0.690791
0.313698
1.66735
1.24265
0.729068
0.304568
1.70071
1.28876
0.755458
0.2981
1.72824
1.31698
0.770071
0.291727
1.75271
1.33333
0.775448
0.284483
1.77518
1.34168
0.773859
0.275821
1.7963
1.3453
0.76759
0.265558
1.81628
1.34637
0.758362
0.253637
1.83513
1.34633
0.747402
0.240103
1.8527
1.34587
0.735396
0.225047
1.86873
1.34515
0.722582
0.208622
1.88278
1.34386
0.708814
0.191035
1.89419
1.34131
0.693637
0.172625
1.90205
1.33652
0.676334
0.154037
1.90508
1.32821
0.655926
0.136629
1.9017
1.31481
0.63123
0.123295
1.88978
1.29441
0.600729
0.119246
1.86717
1.26493
0.562832
0.130531
1.82967
1.22225
0.513867
0.16214
1.77369
1.16396
0.45256
0.212772
1.7023
1.09327
0.383002
0.275187
1.61617
1.01083
0.306334
0.346
1.51703
0.91828
0.225565
0.422056
1.40702
0.817727
0.147449
0.500801
1.28887
0.711871
0.0954976
0.579459
1.16555
0.603706
0.117943
0.655395
1.04017
0.496429
0.187196
0.726071
0.915741
0.393337
0.263958
0.789274
0.795007
0.297975
0.337166
0.843219
0.680333
0.214868
0.402906
0.886646
0.573641
0.15176
0.459325
0.918854
0.476426
0.122284
0.50558
0.939683
0.389835
0.132393
0.5415
0.949452
0.314822
0.163731
0.56741
0.94887
0.252371
0.198885
0.583982
0.938926
0.203706
0.230925
0.592125
0.920792
0.170221
0.257747
0.592875
0.89573
0.152516
0.278987
0.587319
0.86501
0.148757
0.294943
0.576531
0.829859
0.154625
0.306164
0.561525
0.791417
0.165497
0.313282
0.543232
0.750713
0.178089
0.316925
0.522482
0.708658
0.190543
0.317681
0.500002
0.666035
0.201942
0.316076
0.476414
0.623511
0.211895
0.312573
0.452243
0.581639
0.220282
0.30757
0.427926
0.540873
0.227121
0.301404
0.403819
0.50158
0.232494
0.294358
0.380212
0.464046
0.236506
0.286664
0.357332
0.428493
0.23927
0.278516
0.335358
0.395084
0.240893
0.270069
0.314422
0.363932
0.241476
0.261448
0.294622
0.335109
0.24111
0.252754
0.276024
0.308649
0.239878
0.244065
0.258667
0.284551
0.237853
0.235442
0.242568
0.262788
0.235104
0.226931
0.227723
0.243301
0.231695
0.218565
0.21411
0.226007
0.227685
0.210366
0.201692
0.210801
0.223131
0.20235
0.190418
0.197554
0.21809
0.194523
0.180225
0.186119
0.212618
0.186884
0.171037
0.176335
0.20677
0.179428
0.162769
0.168031
0.200603
0.172145
0.155325
0.161033
0.194175
0.165019
0.148604
0.155164
0.187544
0.15803
0.142498
0.150252
0.180768
0.151153
0.136894
0.146134
0.173908
0.144357
0.131673
0.142656
0.167026
0.137602
0.12671
0.139673
0.160191
0.130837
0.121874
0.137058
0.153476
0.123978
0.117007
0.134696
0.147007
0.116914
0.111935
0.132533
0.140932
0.109388
0.106358
0.130545
0.135712
0.101146
0.100007
0.129016
0.131714
0.0914043
0.0921289
0.128166
0.130825
0.0808871
0.0833826
0.129629
0.1311
0.0701645
0.0739227
0.13135
0.135814
0.0688939
0.0717708
0.136139
0.127474
0.0959183
0.0960587
0.127147
)
;

boundaryField
{
    plateFix
    {
        type            calculated;
        value           nonuniform List<scalar> 4(1.40995 0.457538 0.590172 0.570914);
    }
    plate
    {
        type            calculated;
        value           nonuniform List<scalar> 
168
(
1.40901
0.298105
1.48287
0.287639
1.57774
0.28818
1.62707
0.281286
1.66986
0.275563
1.70125
0.26871
1.72943
0.261926
1.75492
0.25458
1.77934
0.246513
1.80281
0.23734
1.82544
0.226856
1.84709
0.21494
1.86759
0.201622
1.88671
0.187054
1.90415
0.171533
1.91947
0.155546
1.93203
0.13992
1.94095
0.126135
1.94495
0.116783
1.94246
0.115776
1.93131
0.127122
1.90937
0.152344
1.87255
0.193617
1.81692
0.249577
1.74569
0.313979
1.65939
0.385287
1.55981
0.46094
1.44904
0.538898
1.32981
0.616546
1.2051
0.691402
1.07799
0.760977
0.951491
0.823094
0.828326
0.875969
0.710834
0.918341
0.600894
0.9495
0.499931
0.969279
0.408978
0.977992
0.328818
0.976344
0.2602
0.965327
0.204152
0.946117
0.162312
0.919981
0.136698
0.888197
0.127775
0.852
0.13213
0.812538
0.144031
0.770851
0.158826
0.727854
0.173863
0.68434
0.187874
0.640981
0.200331
0.598336
0.211065
0.556864
0.220085
0.516935
0.227472
0.478838
0.233342
0.442796
0.237816
0.408971
0.241014
0.377478
0.243046
0.348383
0.244013
0.321718
0.244008
0.297476
0.243114
0.275623
0.241409
0.256091
0.238967
0.238791
0.235854
0.223607
0.232139
0.210403
0.227887
0.199028
0.223162
0.189316
0.21803
0.181099
0.212558
0.174204
0.206813
0.168463
0.200863
0.163714
0.194781
0.159806
0.188636
0.156597
0.182503
0.153958
0.176461
0.151774
0.17059
0.149941
0.165008
0.148395
0.159821
0.147076
0.155346
0.146126
0.151674
0.145515
0.150192
0.146439
0.149856
0.147917
0.16004
0.159086
0.169924
0.10228
0.0944489
0.0938967
0.101041
0.169629
)
;
    }
    frontAndBackPlanes
    {
        type            empty;
    }
}


// ************************************************************************* //
