/*--------------------------------*- C++ -*----------------------------------*\
| =========                 |                                                 |
| \\      /  F ield         | OpenFOAM Extend Project: Open source CFD        |
|  \\    /   O peration     | Version:  1.6-ext                               |
|   \\  /    A nd           | Web:      www.extend-project.de                 |
|    \\/     M anipulation  |                                                 |
\*---------------------------------------------------------------------------*/
FoamFile
{
    version     2.0;
    format      ascii;
    class       volSymmTensorField;
    location    "0.3";
    object      sigma;
}
// * * * * * * * * * * * * * * * * * * * * * * * * * * * * * * * * * * * * * //

dimensions      [1 -1 -2 0 0 0 0];

internalField   nonuniform List<symmTensor> 
328
(
(-1.85493 -0.33431 -4.99852e-22 -0.508865 5.51273e-20 -0.946802)
(-1.03946 0.0216265 -2.50854e-24 -0.509914 5.22846e-23 -0.620715)
(-0.566049 0.278859 4.21067e-23 -0.293582 -5.58841e-23 -0.344818)
(-0.162273 0.241182 -1.04587e-22 0.0966765 -9.36498e-20 -0.0274724)
(-1.74035 -0.215153 2.3291e-21 -0.20614 -1.40539e-19 -0.779912)
(-1.0424 0.0124942 1.92596e-22 -0.224522 -1.19221e-23 -0.507811)
(-0.570456 0.226595 5.80481e-24 -0.144533 1.25905e-22 -0.28703)
(-0.0754778 0.184279 1.26649e-21 0.213609 -2.28273e-20 0.0539858)
(-1.73591 -0.120298 -2.80206e-21 -0.0343461 -4.44735e-20 -0.709483)
(-1.13006 0.0153727 -2.84259e-22 -0.0659979 1.07882e-22 -0.479554)
(-0.619695 0.180869 8.44676e-22 -0.0483515 1.00142e-22 -0.268337)
(-0.0258222 0.132034 -4.37693e-21 0.29175 1.25429e-19 0.105049)
(-1.71513 -0.0543777 5.60483e-22 0.0826203 3.53168e-20 -0.654446)
(-1.14961 0.0272925 2.76376e-22 0.0781922 -1.20043e-22 -0.429812)
(-0.635736 0.141566 -1.25207e-21 0.0439476 -6.0091e-22 -0.237942)
(0.0199776 0.0915041 3.95543e-21 0.349682 3.47413e-20 0.146481)
(-1.72065 -0.0119297 7.07142e-22 0.148038 6.29695e-20 -0.63054)
(-1.17419 0.041991 1.3721e-22 0.173644 1.2624e-22 -0.401562)
(-0.652416 0.111149 6.47621e-22 0.111209 -7.83464e-22 -0.217804)
(0.0522447 0.0623885 1.5747e-21 0.388224 -9.57216e-20 0.174758)
(-1.73134 0.0143895 8.42043e-22 0.18561 -5.98534e-20 -0.619822)
(-1.17928 0.0553109 -2.56318e-22 0.247408 -9.72564e-23 -0.374174)
(-0.656671 0.0881572 -1.4254e-21 0.164661 8.89985e-22 -0.198204)
(0.0781929 0.0420587 -1.46722e-21 0.414606 1.77166e-20 0.195657)
(-1.75087 0.0295968 -2.96024e-21 0.204066 1.0037e-19 -0.620276)
(-1.18098 0.0653526 2.41513e-22 0.298008 5.53133e-23 -0.354675)
(-0.656211 0.0720486 7.51277e-22 0.202638 -5.95429e-22 -0.182886)
(0.0983596 0.0285251 1.24394e-21 0.431929 2.56782e-20 0.210632)
(-1.77418 0.0376573 3.57651e-21 0.211983 -2.77913e-20 -0.626448)
(-1.17681 0.0716135 -1.7121e-21 0.334127 -6.99222e-23 -0.338597)
(-0.649998 0.0613126 -8.83504e-22 0.229461 -3.47819e-22 -0.16971)
(0.115594 0.0198544 -2.34227e-21 0.44347 -6.4991e-20 0.222131)
(-1.80021 0.0412157 -4.8094e-21 0.213822 7.00154e-20 -0.636134)
(-1.17111 0.0744099 3.18408e-21 0.358505 1.69187e-22 -0.32659)
(-0.640643 0.0546652 1.17462e-21 0.246991 6.15234e-22 -0.158978)
(0.131416 0.0145406 -1.10923e-21 0.451259 1.01183e-19 0.231569)
(-1.82701 0.0421832 1.48349e-21 0.212723 -1.02682e-19 -0.647296)
(-1.16438 0.0744818 1.94954e-21 0.37508 -4.1915e-22 -0.31728)
(-0.628892 0.050758 2.94579e-22 0.257948 -7.86573e-22 -0.149904)
(0.147392 0.0113242 3.69474e-21 0.456922 -8.45802e-20 0.240223)
(-1.85353 0.041828 9.91876e-22 0.210438 6.73433e-20 -0.658822)
(-1.15794 0.0726562 -6.12087e-21 0.386198 2.03477e-22 -0.310259)
(-0.615874 0.0484802 1.88224e-21 0.264286 6.79397e-22 -0.142164)
(0.164549 0.00923805 -1.91989e-21 0.461545 1.97472e-20 0.248936)
(-1.8789 0.0410143 1.4274e-21 0.208023 -8.06403e-20 -0.669936)
(-1.15207 0.0696927 6.58189e-21 0.393954 8.10115e-22 -0.304804)
(-0.602092 0.0469275 -4.2828e-22 0.267765 5.9248e-23 -0.135256)
(0.183652 0.00755082 -4.95085e-21 0.465892 1.92312e-20 0.258317)
(-1.90255 0.0402881 -1.77653e-21 0.206023 5.58379e-20 -0.680197)
(-1.1469 0.0661749 -2.28155e-21 0.399751 -5.93657e-22 -0.300414)
(-0.587865 0.0454449 -4.61684e-21 0.269648 8.74466e-23 -0.128807)
(0.205136 0.00574013 3.134e-21 0.470421 1.41112e-20 0.268726)
(-1.92408 0.0399858 1.28185e-22 0.204673 -1.46846e-21 -0.689345)
(-1.1422 0.062501 -4.73011e-22 0.404592 5.6618e-22 -0.29659)
(-0.573189 0.0435956 8.89756e-22 0.270834 -9.93433e-24 -0.122455)
(0.229246 0.00345447 1.859e-21 0.475371 -3.9043e-20 0.280353)
(-1.94313 0.0402895 1.82935e-21 0.203984 -1.22142e-20 -0.697241)
(-1.13753 0.0588917 -5.94423e-21 0.40905 -1.60927e-21 -0.292931)
(-0.557868 0.0411226 1.99081e-21 0.271844 8.4907e-22 -0.115915)
(0.256067 0.000470348 4.25935e-21 0.480778 1.28132e-20 0.293249)
(-1.95937 0.0412844 -1.31695e-21 0.2038 9.16896e-22 -0.703806)
(-1.13228 0.0554348 4.89016e-21 0.413367 3.76335e-22 -0.289099)
(-0.54154 0.0379023 -7.48236e-21 0.272883 4.42362e-22 -0.108961)
(0.285623 -0.00334102 2.21592e-21 0.486513 -2.34175e-20 0.30737)
(-1.97232 0.0429895 -3.81474e-21 0.20382 -3.14359e-20 -0.708975)
(-1.12575 0.0521234 -8.52768e-21 0.417481 -1.10225e-21 -0.284831)
(-0.523727 0.0338962 8.83829e-22 0.273881 -2.48592e-22 -0.101428)
(0.31793 -0.00804737 -3.01683e-21 0.492281 2.60231e-20 0.322605)
(-1.98138 0.045383 1.32851e-20 0.203582 1.76402e-20 -0.71269)
(-1.11712 0.0488955 1.65681e-21 0.421057 1.22682e-21 -0.279942)
(-0.503886 0.0291133 5.31021e-21 0.27451 -1.13895e-21 -0.0932325)
(0.353022 -0.0136724 -4.01965e-21 0.497606 -6.24393e-20 0.338778)
(-1.9857 0.0484017 -1.47314e-21 0.202465 1.31244e-20 -0.714857)
(-1.1055 0.0456596 -1.42695e-20 0.423522 -8.57698e-22 -0.274301)
(-0.481379 0.0235838 -4.15819e-22 0.274223 2.4083e-22 -0.0843363)
(0.391021 -0.020201 2.54155e-21 0.50182 4.69587e-20 0.35567)
(-1.98434 0.0519287 -2.35279e-20 0.199568 -1.41812e-20 -0.715465)
(-1.09003 0.0423043 1.29987e-20 0.423959 1.10281e-21 -0.267931)
(-0.455643 0.0173443 1.63929e-20 0.272151 4.03453e-22 -0.0748621)
(0.431961 -0.027564 6.73575e-22 0.503957 -8.4317e-22 0.372908)
(-1.97581 0.0557965 3.0391e-20 0.193902 1.00619e-20 -0.714309)
(-1.06953 0.0387224 -4.39284e-21 0.421321 7.10981e-22 -0.260776)
(-0.425841 0.0104305 -1.11664e-20 0.267308 -1.15925e-21 -0.0648689)
(0.47616 -0.035643 1.056e-20 0.502901 1.375e-20 0.390173)
(-1.95953 0.0595741 1.30826e-20 0.183582 -8.46817e-21 -0.711914)
(-1.04348 0.0347286 -1.16986e-20 0.413754 -3.88002e-22 -0.25337)
(-0.391788 0.00290912 -1.08639e-20 0.257942 5.91407e-22 -0.0549841)
(0.522991 -0.0440664 1.10136e-20 0.496672 7.9898e-21 0.406423)
(-1.93151 0.0635523 1.51046e-20 0.167692 6.2024e-21 -0.707051)
(-1.00856 0.0300684 2.35392e-20 0.399812 2.62726e-21 -0.244968)
(-0.35057 -0.0055799 1.74055e-20 0.242589 -1.10831e-21 -0.0446262)
(0.57507 -0.053406 1.08942e-20 0.484081 -1.64369e-20 0.422228)
(-1.89224 0.0670554 -4.53832e-20 0.141596 -2.34886e-20 -0.701763)
(-0.966052 0.0248564 -7.96009e-21 0.375406 -6.25842e-22 -0.237711)
(-0.304221 -0.0144042 -9.9657e-21 0.217488 -8.03432e-22 -0.036114)
(0.628835 -0.0626637 -6.66251e-20 0.460235 4.23857e-20 0.434206)
(-1.84241 0.0689949 -1.4044e-20 0.108316 3.38145e-20 -0.695125)
(-0.917589 0.0190593 -1.18913e-20 0.342576 -1.23269e-21 -0.231442)
(-0.255096 -0.0229983 3.36969e-20 0.184711 1.92451e-21 -0.0295619)
(0.681171 -0.0705536 7.3638e-20 0.427706 -5.78407e-20 0.44214)
(-1.78441 0.0693296 -1.11852e-21 0.066201 -2.95817e-20 -0.688752)
(-0.864949 0.0126905 5.56508e-20 0.300249 4.90542e-22 -0.2273)
(-0.20495 -0.0312443 -1.32132e-20 0.143166 -3.61328e-21 -0.0261085)
(0.729626 -0.0769785 -1.63885e-20 0.384745 2.02375e-20 0.444348)
(-1.71847 0.0676453 2.56514e-20 0.0171128 -2.60313e-20 -0.681994)
(-0.808621 0.00570591 -5.35927e-20 0.249788 -3.60089e-21 -0.224937)
(-0.154312 -0.0389351 6.35014e-21 0.094177 1.04647e-21 -0.025436)
(0.773804 -0.0814399 -3.81178e-20 0.33309 -4.12288e-20 0.441367)
(-1.64651 0.0640316 -4.91619e-20 -0.0383993 3.33713e-20 -0.675392)
(-0.750189 -0.00178075 -1.93349e-20 0.19194 5.25111e-21 -0.224687)
(-0.10474 -0.045949 1.6816e-20 0.0384603 -3.5818e-21 -0.0278815)
(0.811867 -0.0839143 3.02872e-20 0.273226 6.338e-20 0.432657)
(-1.56947 0.058464 1.60427e-20 -0.0981575 -6.31939e-21 -0.668462)
(-0.690664 -0.00965661 2.27829e-20 0.128666 -3.06365e-21 -0.226172)
(-0.0571801 -0.0521269 -3.3144e-20 -0.0220603 4.71298e-21 -0.0330541)
(0.843087 -0.0842479 4.85937e-20 0.207313 -4.58992e-20 0.418789)
(-1.489 0.0511969 3.85567e-20 -0.160391 9.64768e-21 -0.661145)
(-0.631438 -0.017724 8.49052e-22 0.0617925 -6.92502e-22 -0.229216)
(-0.0128991 -0.0573728 -1.13662e-19 -0.0855936 4.46885e-21 -0.0407438)
(0.866317 -0.0825595 1.44559e-20 0.137163 -2.22572e-21 0.400031)
(-1.40627 0.0424928 3.55187e-21 -0.222806 -1.26357e-21 -0.653002)
(-0.573579 -0.0257785 -7.38814e-20 -0.00643621 1.04951e-20 -0.233349)
(0.0272223 -0.0616027 1.19963e-19 -0.149934 -7.48671e-21 -0.0504208)
(0.881067 -0.0789801 2.49976e-20 0.0651806 2.94263e-20 0.377147)
(-1.32265 0.0327368 -5.14052e-20 -0.283421 -9.83504e-22 -0.643784)
(-0.518158 -0.033593 7.48367e-20 -0.0739696 -7.38e-21 -0.238181)
(0.0623534 -0.0647854 -1.6696e-19 -0.21307 2.18635e-21 -0.0616126)
(0.886921 -0.0737811 -2.42902e-21 -0.00648634 4.93768e-21 0.350831)
(-1.23926 0.0223179 -7.23218e-20 -0.340363 1.76204e-20 -0.633186)
(-0.465985 -0.0409587 1.04804e-19 -0.138866 -2.30347e-21 -0.243258)
(0.0919789 -0.0669228 2.88797e-20 -0.273101 -8.07347e-21 -0.0737652)
(0.883903 -0.0672634 3.11355e-20 -0.0757481 -3.51569e-21 0.321928)
(-1.15713 0.0116402 7.8669e-20 -0.392193 -2.72515e-20 -0.621052)
(-0.417712 -0.0476906 3.26995e-20 -0.199555 -5.11471e-21 -0.248212)
(0.115776 -0.0680592 -4.72291e-20 -0.328504 9.11659e-21 -0.0863975)
(0.872248 -0.0597751 -2.73064e-21 -0.140917 -1.37515e-20 0.291209)
(-1.07713 0.00106783 -8.72946e-20 -0.437857 2.41873e-20 -0.607303)
(-0.373755 -0.0536466 4.59206e-20 -0.254833 -4.29406e-21 -0.252729)
(0.133686 -0.0682682 5.16154e-21 -0.378124 6.92744e-21 -0.0990725)
(0.852487 -0.0516581 -3.36152e-20 -0.200677 1.09248e-20 0.25941)
(-0.999963 -0.00908366 9.5352e-20 -0.476758 6.76323e-21 -0.591983)
(-0.334346 -0.0587299 9.32469e-20 -0.303929 -1.20062e-20 -0.256593)
(0.145841 -0.0676484 -5.30801e-20 -0.421248 7.0103e-21 -0.111451)
(0.825324 -0.0432368 -4.45206e-20 -0.254172 -1.66434e-20 0.227157)
(-0.926165 -0.0185671 -4.60932e-20 -0.508689 -4.40749e-21 -0.575222)
(-0.29953 -0.0628914 -1.19716e-19 -0.34646 -3.40746e-21 -0.259668)
(0.152557 -0.0663115 9.07338e-20 -0.457554 1.30716e-20 -0.123276)
(0.791622 -0.034794 -6.49973e-20 -0.300954 -7.97133e-21 0.194975)
(-0.85612 -0.0272047 -3.53575e-20 -0.533784 -1.19584e-20 -0.55723)
(-0.26921 -0.0661247 1.92968e-19 -0.38239 2.26802e-20 -0.261902)
(0.154279 -0.0643752 -1.05256e-19 -0.48707 2.45698e-21 -0.134384)
(0.752329 -0.0265626 1.07799e-19 -0.340946 1.15502e-20 0.163272)
(-0.790069 -0.0348864 5.01869e-20 -0.552436 -1.39972e-20 -0.538258)
(-0.24317 -0.0684596 7.07373e-20 -0.411952 1.76049e-20 -0.2633)
(0.151543 -0.0619548 -9.48345e-20 -0.510095 8.13829e-21 -0.144678)
(0.708433 -0.0187205 -7.82183e-21 -0.374358 -6.42601e-21 0.132361)
(-0.728131 -0.0415616 8.44915e-20 -0.565212 1.53103e-20 -0.518581)
(-0.221115 -0.0699523 -1.89975e-20 -0.435577 7.33691e-21 -0.263917)
(0.144932 -0.0591582 7.2821e-20 -0.527125 -2.42533e-21 -0.154124)
(0.66092 -0.0113926 -1.13721e-19 -0.401611 -6.19576e-21 0.102467)
(-0.670322 -0.0472288 2.5969e-20 -0.572785 1.05122e-20 -0.498475)
(-0.202696 -0.0706775 7.37076e-20 -0.45382 -2.69712e-20 -0.263836)
(0.13505 -0.0560819 4.90658e-20 -0.538778 -9.73118e-22 -0.162727)
(0.61074 -0.00465535 -7.97625e-20 -0.42326 3.83056e-21 0.073748)
(-0.61658 -0.0519236 -9.49767e-20 -0.575867 -4.46638e-21 -0.4782)
(-0.187538 -0.0707198 8.36672e-21 -0.467299 7.22744e-21 -0.263153)
(0.12249 -0.0528092 1.82809e-20 -0.54573 5.84652e-21 -0.17052)
(0.558778 0.0014549 3.20298e-20 -0.43993 -1.84492e-20 0.0463085)
(-0.566785 -0.0557079 1.1791e-19 -0.575166 -8.46192e-21 -0.457989)
(-0.175259 -0.0701677 -1.02511e-19 -0.476649 1.80369e-20 -0.261971)
(0.107814 -0.04941 1.08933e-19 -0.548667 -9.16039e-21 -0.177552)
(0.505844 0.00693397 -8.05335e-20 -0.452264 -7.13337e-21 0.0202152)
(-0.520777 -0.0586606 2.19064e-19 -0.571352 9.20961e-21 -0.438048)
(-0.165489 -0.0691083 -3.40402e-20 -0.482482 2.4175e-20 -0.260384)
(0.0915456 -0.0459411 6.1344e-20 -0.548247 -1.12554e-20 -0.18388)
(0.45266 0.0118014 -6.24711e-20 -0.460884 2.07378e-20 -0.00449325)
(-0.47837 -0.0608689 6.68411e-20 -0.565035 1.9044e-20 -0.418546)
(-0.157875 -0.0676243 -6.8361e-20 -0.485371 -4.35747e-20 -0.258482)
(0.0741541 -0.0424476 -4.31283e-20 -0.54508 8.52717e-21 -0.189557)
(0.399855 0.0160931 -1.15483e-19 -0.466373 -9.6885e-21 -0.0277971)
(-0.439367 -0.0624227 6.31213e-20 -0.556759 -2.7983e-20 -0.399623)
(-0.152093 -0.0657915 4.77254e-20 -0.485829 3.39037e-20 -0.25634)
(0.056057 -0.0389642 2.41441e-20 -0.539712 6.18846e-21 -0.194636)
(0.347971 0.019855 1.1965e-19 -0.469255 1.92201e-21 -0.0496896)
(-0.403569 -0.0634101 3.47727e-20 -0.546993 1.10023e-20 -0.381385)
(-0.147847 -0.0636781 1.24021e-19 -0.484309 1.14441e-20 -0.254022)
(0.0376177 -0.0355173 -1.11785e-22 -0.532623 6.54955e-21 -0.199164)
(0.297463 0.0231383 1.14981e-19 -0.46999 -9.09187e-21 -0.0701732)
(-0.370781 -0.0639146 -1.08985e-19 -0.536139 -1.0415e-21 -0.363916)
(-0.144876 -0.0613442 -6.53039e-20 -0.481203 -4.14271e-21 -0.251579)
(0.0191471 -0.0321261 1.57178e-20 -0.524223 -1.34662e-20 -0.203179)
(0.248707 0.0259958 -4.81534e-20 -0.468977 -2.14478e-22 -0.0892564)
(-0.340815 -0.0640131 5.64225e-21 -0.52453 -1.10283e-20 -0.347273)
(-0.14295 -0.0588424 -1.49325e-19 -0.476841 2.28842e-20 -0.249052)
(0.000907748 -0.0288047 -1.05167e-19 -0.514856 -7.51325e-23 -0.206715)
(0.202008 0.028479 -1.28842e-22 -0.466552 1.24475e-20 -0.106952)
(-0.313497 -0.0637754 5.81345e-20 -0.512443 1.72972e-20 -0.331499)
(-0.14187 -0.0562179 3.64792e-20 -0.4715 1.03725e-20 -0.246471)
(-0.0168826 -0.0255628 1.30208e-19 -0.504809 -4.47176e-20 -0.2098)
(0.157608 0.0306367 -4.41695e-20 -0.462997 1.79829e-20 -0.123277)
(-0.288663 -0.0632634 -2.64316e-19 -0.500102 2.38365e-21 -0.316617)
(-0.141465 -0.0535098 1.55333e-19 -0.465409 -2.95254e-20 -0.24386)
(-0.0340463 -0.0224071 -2.02643e-19 -0.494319 -2.08637e-20 -0.212456)
(0.11569 0.0325139 9.8852e-20 -0.458546 -2.64818e-20 -0.13825)
(-0.266164 -0.0625319 1.73091e-20 -0.487686 1.03311e-20 -0.302638)
(-0.141588 -0.0507512 -3.3124e-20 -0.458755 1.15441e-20 -0.241235)
(-0.0504411 -0.0193424 1.18237e-19 -0.483574 -1.66913e-20 -0.214704)
(0.076391 0.0341508 -7.29704e-20 -0.453389 3.02668e-20 -0.151894)
(-0.245861 -0.0616289 9.42267e-20 -0.475338 -2.90575e-20 -0.289566)
(-0.142119 -0.0479708 -1.04997e-19 -0.451688 3.34031e-20 -0.238609)
(-0.0659563 -0.0163718 4.55951e-21 -0.472726 -1.25744e-20 -0.216558)
(0.0398029 0.0355836 9.12393e-20 -0.447682 4.12883e-21 -0.164234)
(-0.227628 -0.0605959 -5.4813e-20 -0.463169 -1.76681e-20 -0.277393)
(-0.142956 -0.045193 -6.82299e-20 -0.44433 -4.30023e-20 -0.235988)
(-0.0805085 -0.0134978 9.62074e-20 -0.461894 3.93518e-20 -0.218034)
(0.00598217 0.0368436 -1.8423e-19 -0.44155 1.45115e-20 -0.175297)
(-0.211348 -0.059469 3.05962e-20 -0.451262 1.07372e-20 -0.266107)
(-0.144015 -0.0424392 7.06094e-20 -0.436779 5.37471e-20 -0.233379)
(-0.0940378 -0.0107223 3.1957e-21 -0.451171 -5.65851e-20 -0.219145)
(-0.0250468 0.0379582 1.08412e-21 -0.435092 1.80882e-20 -0.185113)
(-0.196915 -0.0582794 -1.15481e-19 -0.439681 -6.04938e-21 -0.25569)
(-0.145228 -0.0397278 1.37889e-19 -0.429109 -1.26354e-20 -0.230785)
(-0.106505 -0.00804712 -1.79584e-21 -0.440627 -1.80793e-20 -0.219902)
(-0.0532871 0.0389508 4.14176e-20 -0.428389 -3.78604e-20 -0.193716)
(-0.184228 -0.0570541 1.18079e-20 -0.428471 1.76433e-22 -0.246119)
(-0.14654 -0.0370752 1.12034e-19 -0.421379 4.52024e-20 -0.228207)
(-0.117888 -0.00547436 4.34932e-21 -0.430313 6.66303e-21 -0.220318)
(-0.0787658 0.0398411 -1.21558e-19 -0.421503 -8.19558e-21 -0.201142)
(-0.173192 -0.0558164 -4.08114e-20 -0.417662 1.13093e-20 -0.237369)
(-0.147908 -0.0344961 1.73918e-19 -0.413637 3.29191e-20 -0.225646)
(-0.128182 -0.00300631 -4.14005e-20 -0.420267 1.71331e-21 -0.220406)
(-0.101531 0.0406461 -2.32932e-19 -0.414484 -4.47306e-22 -0.207429)
(-0.163715 -0.0545866 -4.10465e-19 -0.407271 -3.5565e-21 -0.229412)
(-0.149297 -0.0320038 2.53109e-19 -0.405915 -1.34394e-20 -0.223101)
(-0.137392 -0.000645674 -8.74147e-20 -0.410513 -1.86939e-21 -0.220178)
(-0.121648 0.0413798 1.5427e-19 -0.407371 -2.10754e-20 -0.21262)
(-0.155712 -0.0533825 1.54195e-19 -0.397308 3.16188e-21 -0.222214)
(-0.150682 -0.0296106 7.74025e-20 -0.398239 -2.62555e-20 -0.220574)
(-0.145538 0.0016044 3.64191e-20 -0.401066 1.26269e-20 -0.219646)
(-0.139201 0.0420538 -1.85954e-19 -0.400192 4.52753e-20 -0.216758)
(-0.149094 -0.0522197 -2.38115e-20 -0.387772 1.08744e-20 -0.215742)
(-0.152041 -0.0273279 -2.94193e-19 -0.390626 -2.32498e-20 -0.218061)
(-0.152647 0.00374034 2.99792e-19 -0.391931 3.94971e-20 -0.218825)
(-0.154286 0.0426778 -2.90559e-19 -0.39297 -1.32484e-22 -0.219893)
(-0.143777 -0.0511118 -1.83917e-19 -0.378654 -7.50431e-21 -0.209957)
(-0.15336 -0.0251664 4.01342e-20 -0.383087 6.35906e-21 -0.215563)
(-0.158756 0.00575819 1.85042e-19 -0.383106 -3.45377e-20 -0.217728)
(-0.167014 0.0432597 7.83529e-20 -0.385722 2.13812e-20 -0.222074)
(-0.139673 -0.0500713 -1.03618e-19 -0.369941 -2.52576e-21 -0.204819)
(-0.154629 -0.0231364 -9.05692e-20 -0.375628 1.90596e-20 -0.213077)
(-0.163911 0.00765371 -6.47571e-20 -0.374584 3.80434e-20 -0.216371)
(-0.177507 0.043806 6.03086e-20 -0.378459 -9.45408e-21 -0.223356)
(-0.136696 -0.0491091 6.94089e-20 -0.361611 -7.85586e-21 -0.200286)
(-0.155841 -0.0212474 -7.71863e-20 -0.36825 -7.08101e-20 -0.2106)
(-0.168161 0.00942252 3.66438e-20 -0.366352 3.34684e-20 -0.214767)
(-0.185898 0.0443223 1.18801e-19 -0.371188 -2.22528e-20 -0.223794)
(-0.134755 -0.0482353 1.98426e-19 -0.353641 4.42563e-21 -0.196311)
(-0.156992 -0.0195084 -7.04268e-20 -0.360949 -2.49484e-20 -0.208129)
(-0.171563 0.0110603 2.12529e-19 -0.35839 6.70262e-20 -0.212933)
(-0.192333 0.0448133 -1.39651e-19 -0.363913 9.09702e-21 -0.223447)
(-0.133758 -0.047459 -1.97593e-19 -0.345999 3.36281e-20 -0.192845)
(-0.158079 -0.0179278 -1.35183e-19 -0.353719 4.06636e-20 -0.205662)
(-0.174181 0.0125629 -1.07854e-19 -0.350678 -7.60038e-20 -0.210885)
(-0.196962 0.0452831 -2.09784e-19 -0.356634 -6.75617e-21 -0.222377)
(-0.133611 -0.046789 -1.36595e-19 -0.338651 -2.11627e-20 -0.189837)
(-0.159102 -0.0165134 1.05538e-19 -0.346549 4.15178e-20 -0.203192)
(-0.17608 0.0139267 -1.08332e-19 -0.343186 -5.88598e-20 -0.208638)
(-0.199948 0.045736 2.01089e-19 -0.349347 -1.07705e-20 -0.220647)
(-0.134218 -0.0462334 1.94068e-19 -0.331557 -6.47887e-21 -0.187232)
(-0.160062 -0.015272 -1.42604e-19 -0.339423 -6.67332e-22 -0.200716)
(-0.177331 0.0151489 -2.43866e-20 -0.335885 4.17942e-20 -0.206208)
(-0.201458 0.0461762 3.43262e-19 -0.342048 -3.19257e-20 -0.218321)
(-0.135482 -0.0458003 -1.58849e-19 -0.324674 8.57964e-21 -0.184974)
(-0.160964 -0.0142097 1.16831e-19 -0.332325 1.31463e-20 -0.198227)
(-0.178009 0.0162279 1.30876e-19 -0.328738 7.35435e-21 -0.20361)
(-0.201668 0.0466088 -1.75071e-19 -0.334725 7.58265e-21 -0.215466)
(-0.137304 -0.0454978 1.48632e-19 -0.317952 1.31884e-20 -0.183004)
(-0.161812 -0.0133319 -1.0628e-20 -0.32523 -3.03777e-20 -0.195719)
(-0.178194 0.0171635 -8.41315e-20 -0.321705 8.42163e-20 -0.200861)
(-0.200758 0.0470399 -5.42156e-20 -0.327366 -4.46996e-20 -0.212149)
(-0.139584 -0.0453353 -7.81871e-21 -0.311338 -2.02589e-20 -0.18126)
(-0.162617 -0.0126434 3.09391e-19 -0.318109 -3.86615e-20 -0.193182)
(-0.177967 0.0179579 -2.60905e-19 -0.314738 9.74752e-20 -0.197974)
(-0.198913 0.0474777 1.32695e-19 -0.319951 -7.67412e-21 -0.208435)
(-0.142227 -0.0453239 -1.29426e-19 -0.304769 -1.3566e-20 -0.17968)
(-0.163394 -0.0121498 -1.81457e-19 -0.310927 1.21136e-19 -0.190611)
(-0.177421 0.0186168 3.51262e-19 -0.307786 -4.63934e-20 -0.194965)
(-0.196319 0.0479335 -2.85922e-19 -0.312457 -2.7931e-20 -0.204391)
(-0.145128 -0.0454802 -1.59916e-19 -0.298174 -4.71453e-20 -0.178193)
(-0.164164 -0.0118605 3.68083e-19 -0.303633 3.33952e-20 -0.187992)
(-0.17665 0.0191525 1.10635e-19 -0.300779 8.05584e-21 -0.191844)
(-0.19316 0.0484253 -2.78014e-19 -0.304848 4.54543e-21 -0.200074)
(-0.148191 -0.0458303 2.7851e-19 -0.291466 3.24917e-20 -0.176726)
(-0.164989 -0.0117936 -7.15374e-20 -0.296166 6.39482e-20 -0.185326)
(-0.175789 0.0195887 2.14543e-19 -0.293638 1.81257e-20 -0.188634)
(-0.189618 0.0489815 1.24858e-19 -0.297074 1.53928e-20 -0.195539)
(-0.151257 -0.0464278 -9.64156e-20 -0.28452 -5.82555e-20 -0.175165)
(-0.165924 -0.0119944 -2.62249e-19 -0.288399 2.41916e-21 -0.182584)
(-0.174965 0.0199785 -1.63602e-19 -0.286219 -4.28415e-20 -0.185329)
(-0.185815 0.0496587 -7.67822e-20 -0.289045 9.95877e-21 -0.190798)
(-0.154192 -0.0473657 -2.22484e-19 -0.27717 1.47905e-20 -0.173391)
(-0.167278 -0.0125515 4.64769e-20 -0.280214 5.90437e-21 -0.179844)
(-0.174559 0.0204199 1.17657e-19 -0.278389 -1.21452e-19 -0.182026)
(-0.181886 0.0505532 3.89639e-20 -0.280634 2.8715e-20 -0.185854)
(-0.156425 -0.0488721 3.23053e-19 -0.269046 6.68676e-20 -0.171027)
(-0.169165 -0.0136782 -1.59182e-19 -0.271168 1.61259e-20 -0.176972)
(-0.174748 0.0211359 -2.3121e-19 -0.269686 -2.42566e-20 -0.178613)
(-0.177528 0.0518962 -2.76461e-19 -0.271505 1.11011e-20 -0.180451)
(-0.157727 -0.0512454 -2.84473e-19 -0.259685 -4.20668e-20 -0.167796)
(-0.173323 -0.0156523 2.88624e-19 -0.261282 9.07539e-20 -0.174675)
(-0.177338 0.0224149 3.5586e-19 -0.260114 3.94268e-20 -0.175813)
(-0.172756 0.053988 -1.05808e-19 -0.261227 2.44817e-20 -0.174425)
(-0.155154 -0.0551702 2.19031e-19 -0.247721 -1.58308e-20 -0.161975)
(-0.178934 -0.0189409 4.61559e-20 -0.249205 -5.70185e-20 -0.172081)
(-0.181571 0.0247311 -1.46065e-19 -0.248306 -1.24857e-20 -0.172777)
(-0.164889 0.0575112 2.24234e-19 -0.248474 -4.73915e-20 -0.16617)
(-0.150958 -0.0596567 3.35541e-20 -0.233383 2.6861e-20 -0.154555)
(-0.194806 -0.0226591 -3.06664e-20 -0.240405 1.90925e-20 -0.174905)
(-0.196309 0.0272113 3.12712e-19 -0.239713 1.18848e-19 -0.175229)
(-0.156354 0.0614714 -2.97345e-19 -0.233471 -1.36111e-20 -0.156749)
(-0.13183 -0.061676 -5.65802e-20 -0.220158 4.05263e-21 -0.141609)
(-0.201206 -0.0244892 -4.75057e-19 -0.239142 -2.61499e-20 -0.176955)
(-0.201868 0.0275074 1.83856e-19 -0.238604 -3.28856e-20 -0.177005)
(-0.134137 0.0628161 -4.42665e-19 -0.219777 2.47562e-20 -0.142378)
(-0.147079 -0.0431889 2.59662e-20 -0.257138 -6.11953e-21 -0.162498)
(-0.236493 -0.0176769 3.13438e-20 -0.320191 3.72169e-21 -0.223489)
(-0.236571 0.018722 -1.2172e-19 -0.319616 3.55843e-20 -0.22329)
(-0.147301 0.0436377 2.28091e-19 -0.256177 7.35207e-21 -0.162202)
)
;

boundaryField
{
    plateFix
    {
        type            calculated;
        value           nonuniform List<symmTensor> 4((-1.8504 -0.43834 -1.26408e-21 -0.505434 5.48386e-20 -0.943767) (-0.93857 0.0451407 -2.51832e-24 -0.442686 5.22763e-23 -0.553505) (-0.517828 0.312565 4.21208e-23 -0.261457 -5.58696e-23 -0.312719) (-0.193677 0.300692 -1.29259e-21 0.0761072 -9.31171e-20 -0.0484072));
    }
    plate
    {
        type            calculated;
        value           nonuniform List<symmTensor> 
168
(
(-1.3207 6.98232e-05 -2.3258e-22 0.302155 -4.81177e-20 -0.408878)
(-0.0229763 0.000229294 -3.1941e-22 0.319373 2.46268e-20 0.117144)
(-1.40495 -0.000159061 1.74101e-21 0.302714 2.85284e-20 -0.442372)
(-0.0100897 0.000401018 1.51347e-21 0.319931 2.75787e-20 0.12251)
(-1.51265 -9.92846e-05 -3.1581e-21 0.303953 -2.70627e-20 -0.484984)
(-0.00945768 0.0002919 -4.72369e-21 0.321164 -2.55095e-22 0.123235)
(-1.56762 0.0002909 5.54325e-22 0.305634 2.71905e-20 -0.506318)
(0.000388966 -0.000130099 3.90243e-21 0.322839 -2.83853e-20 0.127833)
(-1.61483 0.00102553 6.6802e-22 0.307579 -4.01598e-23 -0.524437)
(0.00914536 -0.000873643 1.58013e-21 0.324777 2.56956e-20 0.132101)
(-1.64879 0.00207523 8.36957e-22 0.309681 9.17544e-26 -0.53719)
(0.0194298 -0.00191653 -1.47594e-21 0.326872 -2.28186e-20 0.137047)
(-1.67896 0.00340118 -2.96634e-21 0.311896 3.47648e-23 -0.54838)
(0.0297957 -0.00322235 1.24425e-21 0.32908 2.29031e-20 0.142072)
(-1.70591 0.00496657 3.57949e-21 0.314225 -2.54695e-22 -0.558235)
(0.041016 -0.00475741 -2.33844e-21 0.331403 -2.06408e-20 0.147486)
(-1.7315 0.00674861 -4.81588e-21 0.316698 2.10122e-20 -0.567484)
(0.0533368 -0.00650047 -1.11592e-21 0.333873 1.92426e-20 0.153399)
(-1.75579 0.00874318 1.48741e-21 0.319364 -1.89856e-20 -0.576141)
(0.0673124 -0.00844858 3.69737e-21 0.33654 -1.77797e-20 0.160054)
(-1.77888 0.010968 9.89675e-22 0.322274 -5.10629e-26 -0.584216)
(0.083307 -0.01062 -1.91352e-21 0.339458 1.43718e-20 0.167618)
(-1.80053 0.0134627 1.42957e-21 0.32547 -3.32736e-21 -0.591603)
(0.101622 -0.0130547 -4.95482e-21 0.342673 -1.48274e-20 0.176229)
(-1.82055 0.0162862 -1.7847e-21 0.328972 2.04285e-22 -0.598209)
(0.122411 -0.015812 3.13077e-21 0.346208 3.47069e-23 0.18596)
(-1.83867 0.0195131 1.23582e-22 0.332757 1.92179e-22 -0.603946)
(0.145753 -0.0189673 1.86322e-21 0.350047 -2.56262e-23 0.196834)
(-1.85463 0.0232269 1.83407e-21 0.336743 -3.16303e-25 -0.608735)
(0.171661 -0.0226057 4.25863e-21 0.354118 5.47285e-23 0.208828)
(-1.86808 0.0275131 -1.3152e-21 0.340764 9.84771e-21 -0.612503)
(0.200144 -0.026815 2.21993e-21 0.358265 -2.456e-21 0.221884)
(-1.87853 0.0324479 -3.80527e-21 0.34454 6.10007e-22 -0.615172)
(0.231233 -0.031676 -3.02036e-21 0.36222 6.28341e-25 0.235906)
(-1.88539 0.0380833 1.32794e-20 0.347629 -3.65007e-21 -0.616673)
(0.264996 -0.0372469 -4.00409e-21 0.365559 -3.87831e-21 0.250752)
(-1.88779 0.0444232 -1.48004e-21 0.349383 5.58414e-22 -0.616927)
(0.301574 -0.0435411 2.53107e-21 0.367648 -5.81804e-23 0.266226)
(-1.88484 0.0513809 -2.35216e-20 0.348881 1.70874e-22 -0.615939)
(0.341045 -0.0504847 6.77563e-22 0.36758 1.12073e-22 0.281994)
(-1.87511 0.0587762 3.03889e-20 0.344992 -1.29165e-23 -0.613597)
(0.383719 -0.0579147 1.05481e-20 0.364238 -9.92518e-21 0.297735)
(-1.85804 0.0660635 1.30908e-20 0.335859 7.76395e-21 -0.610411)
(0.429044 -0.0653006 1.10142e-20 0.355747 8.62501e-21 0.312477)
(-1.82946 0.0738553 1.50996e-20 0.320818 -6.67037e-21 -0.60498)
(0.479994 -0.073279 1.08995e-20 0.341462 2.2567e-23 0.327153)
(-1.79056 0.0811232 -4.53661e-20 0.294151 4.18083e-21 -0.60007)
(0.532426 -0.0808262 -6.66414e-20 0.315613 5.95885e-21 0.337797)
(-1.74154 0.0863229 -1.40782e-20 0.259652 5.80355e-22 -0.594242)
(0.58391 -0.0863897 7.36617e-20 0.2818 -6.02309e-21 0.344876)
(-1.68506 0.0895042 -1.10544e-21 0.215243 -6.13876e-21 -0.589396)
(0.631722 -0.0899962 -1.64048e-20 0.237867 -1.85622e-22 0.346438)
(-1.62107 0.0901426 2.56754e-20 0.163229 -2.46098e-21 -0.584585)
(0.675772 -0.0910983 -3.80912e-20 0.186008 -3.15873e-21 0.343325)
(-1.55153 0.0883831 -4.91846e-20 0.104063 6.67562e-23 -0.580416)
(0.714145 -0.089812 3.02442e-20 0.126597 3.22011e-21 0.334919)
(-1.47727 0.0841703 1.60461e-20 0.0401389 1.59302e-22 -0.576261)
(0.746236 -0.0860525 4.86244e-20 0.0619763 -8.71709e-22 0.321917)
(-1.39988 0.0778012 3.85477e-20 -0.0267325 -2.14017e-22 -0.572032)
(0.770889 -0.0800913 1.44535e-20 -0.0060565 9.86874e-22 0.304574)
(-1.32047 0.0695515 3.54744e-21 -0.0941333 -2.61332e-24 -0.567211)
(0.787644 -0.0721826 2.49722e-20 -0.0750523 -4.05768e-23 0.283686)
(-1.24036 0.0598462 -5.14074e-20 -0.16002 2.0075e-21 -0.561506)
(0.796056 -0.0627381 -2.43175e-21 -0.142902 1.87943e-24 0.25992)
(-1.16062 0.0491056 -7.23296e-20 -0.222446 -1.86358e-21 -0.554563)
(0.796119 -0.0521717 3.11362e-20 -0.207564 -2.94629e-23 0.23409)
(-1.08226 0.037775 7.86841e-20 -0.279921 -1.03653e-22 -0.546191)
(0.788009 -0.0409302 -2.7162e-21 -0.267437 -2.78586e-23 0.206906)
(-1.00609 0.0262591 -8.73238e-20 -0.331344 -3.44196e-21 -0.536281)
(0.772186 -0.0294257 -3.36173e-20 -0.32131 1.80495e-21 0.179037)
(-0.932817 0.0149185 9.53501e-20 -0.376079 3.42793e-21 -0.52485)
(0.749276 -0.0180305 -4.44989e-20 -0.368445 -1.57947e-21 0.151029)
(-0.862938 0.00404534 -4.60946e-20 -0.413886 -4.70192e-21 -0.512008)
(0.720059 -0.0070507 -6.49935e-20 -0.408519 -6.02142e-21 0.123324)
(-0.79682 -0.00613685 -3.535e-20 -0.444867 -3.13942e-22 -0.497941)
(0.685401 0.00327566 1.07789e-19 -0.441576 4.45278e-21 0.0962491)
(-0.734683 -0.0154748 5.02193e-20 -0.469383 9.58448e-21 -0.48288)
(0.646215 0.0127818 -7.8117e-21 -0.467937 3.21729e-21 0.0700423)
(-0.676626 -0.0238782 8.44699e-20 -0.487973 -4.88107e-21 -0.467081)
(0.603421 0.0213658 -1.13716e-19 -0.488126 -8.13731e-21 0.0448615)
(-0.622645 -0.0313104 2.59526e-20 -0.501279 -2.95622e-22 -0.4508)
(0.557908 0.0289816 -7.97613e-20 -0.502783 1.23338e-22 0.0208066)
(-0.572659 -0.0377777 -9.49807e-20 -0.509986 -5.06448e-21 -0.434276)
(0.510517 0.035629 3.2057e-20 -0.512605 3.80801e-21 -0.00206563)
(-0.52653 -0.0433188 1.17922e-19 -0.514775 5.51955e-21 -0.417729)
(0.462017 0.0413418 -8.05223e-20 -0.518293 1.79332e-22 -0.0237272)
(-0.484082 -0.0479942 2.19039e-19 -0.516291 -3.44065e-22 -0.401344)
(0.413101 0.0461782 -6.24944e-20 -0.520516 -1.27264e-21 -0.0441694)
(-0.445114 -0.0518785 6.68158e-20 -0.515124 -9.71863e-23 -0.385278)
(0.364375 0.0502115 -1.15459e-19 -0.519888 3.78005e-22 -0.0633946)
(-0.409416 -0.055053 6.31395e-20 -0.511796 -6.49116e-21 -0.369655)
(0.316366 0.0535231 1.19636e-19 -0.516957 -1.43239e-22 -0.0814123)
(-0.376778 -0.0576009 3.47621e-20 -0.506761 4.21282e-21 -0.354574)
(0.269518 0.0561965 1.14987e-19 -0.512201 -3.06965e-22 -0.0982352)
(-0.346996 -0.0596031 -1.08975e-19 -0.500406 5.42423e-21 -0.340107)
(0.224201 0.0583141 -4.8155e-20 -0.506026 -5.26969e-21 -0.113878)
(-0.319874 -0.0611365 5.65115e-21 -0.493055 -5.21585e-21 -0.326305)
(0.180717 0.0599535 -1.44031e-22 -0.498775 -2.36471e-21 -0.128358)
(-0.295233 -0.0622717 5.81111e-20 -0.484975 -2.32832e-22 -0.313204)
(0.139307 0.0611867 -4.41786e-20 -0.490729 5.18099e-21 -0.14169)
(-0.272904 -0.0630727 -2.64322e-19 -0.476385 3.97546e-22 -0.300824)
(0.100157 0.0620789 9.88763e-20 -0.48212 -7.12221e-21 -0.153893)
(-0.252737 -0.0635968 1.73222e-20 -0.46746 4.69944e-21 -0.289175)
(0.0634058 0.0626882 -7.29998e-20 -0.473134 5.05412e-21 -0.164986)