/*--------------------------------*- C++ -*----------------------------------*\
| =========                 |                                                 |
| \\      /  F ield         | OpenFOAM Extend Project: Open source CFD        |
|  \\    /   O peration     | Version:  1.6-ext                               |
|   \\  /    A nd           | Web:      www.extend-project.de                 |
|    \\/     M anipulation  |                                                 |
\*---------------------------------------------------------------------------*/
FoamFile
{
    version     2.0;
    format      ascii;
    class       volVectorField;
    location    "0.3";
    object      Usolid;
}
// * * * * * * * * * * * * * * * * * * * * * * * * * * * * * * * * * * * * * //

dimensions      [0 1 0 0 0 0 0];

internalField   nonuniform List<vector> 
328
(
(-4.52911e-08 -7.85797e-08 0)
(-1.92945e-08 3.10669e-09 0)
(-1.02768e-08 3.03263e-08 0)
(-7.13319e-09 5.2091e-08 0)
(-1.39419e-07 -1.99041e-07 0)
(-6.62375e-08 -3.24298e-10 0)
(-3.48936e-08 7.92068e-08 0)
(-1.96138e-08 1.36317e-07 0)
(-2.51326e-07 -2.89978e-07 0)
(-1.34245e-07 -1.31853e-08 0)
(-7.08316e-08 1.15878e-07 0)
(-3.37249e-08 1.97987e-07 0)
(-3.74978e-07 -3.60465e-07 0)
(-2.15355e-07 -3.41993e-08 0)
(-1.14751e-07 1.377e-07 0)
(-4.7916e-08 2.36565e-07 0)
(-5.12168e-07 -4.20764e-07 0)
(-3.10878e-07 -6.36397e-08 0)
(-1.67489e-07 1.42975e-07 0)
(-6.26206e-08 2.52524e-07 0)
(-6.62259e-07 -4.79388e-07 0)
(-4.18344e-07 -1.03238e-07 0)
(-2.27753e-07 1.29533e-07 0)
(-7.75628e-08 2.45544e-07 0)
(-8.26208e-07 -5.4407e-07 0)
(-5.37528e-07 -1.55968e-07 0)
(-2.95172e-07 9.51269e-08 0)
(-9.2803e-08 2.14641e-07 0)
(-1.00476e-06 -6.2178e-07 0)
(-6.67653e-07 -2.25846e-07 0)
(-3.68996e-07 3.69214e-08 0)
(-1.08232e-07 1.57887e-07 0)
(-1.19906e-06 -7.1933e-07 0)
(-8.08648e-07 -3.17844e-07 0)
(-4.48782e-07 -4.85777e-08 0)
(-1.23749e-07 7.23928e-08 0)
(-1.41031e-06 -8.43647e-07 0)
(-9.60535e-07 -4.37833e-07 0)
(-5.34129e-07 -1.65797e-07 0)
(-1.3914e-07 -4.58471e-08 0)
(-1.63984e-06 -1.00214e-06 0)
(-1.12367e-06 -5.92634e-07 0)
(-6.24828e-07 -3.20265e-07 0)
(-1.54122e-07 -2.02081e-07 0)
(-1.88905e-06 -1.203e-06 0)
(-1.2986e-06 -7.90126e-07 0)
(-7.20794e-07 -5.18834e-07 0)
(-1.68305e-07 -4.02968e-07 0)
(-2.15942e-06 -1.45548e-06 0)
(-1.48607e-06 -1.03942e-06 0)
(-8.22064e-07 -7.69879e-07 0)
(-1.81208e-07 -6.56766e-07 0)
(-2.45248e-06 -1.77019e-06 0)
(-1.68692e-06 -1.35113e-06 0)
(-9.28751e-07 -1.08354e-06 0)
(-1.92243e-07 -9.73551e-07 0)
(-2.76983e-06 -2.15947e-06 0)
(-1.90213e-06 -1.73761e-06 0)
(-1.041e-06 -1.47198e-06 0)
(-2.00714e-07 -1.36547e-06 0)
(-3.11309e-06 -2.6377e-06 0)
(-2.13264e-06 -2.21337e-06 0)
(-1.15894e-06 -1.9497e-06 0)
(-2.05793e-07 -1.84707e-06 0)
(-3.48386e-06 -3.22174e-06 0)
(-2.3794e-06 -2.79547e-06 0)
(-1.28258e-06 -2.53386e-06 0)
(-2.06495e-07 -2.4356e-06 0)
(-3.88367e-06 -3.93134e-06 0)
(-2.64317e-06 -3.5039e-06 0)
(-1.41181e-06 -3.24474e-06 0)
(-2.01619e-07 -3.15152e-06 0)
(-4.31384e-06 -4.78967e-06 0)
(-2.92454e-06 -4.3622e-06 0)
(-1.54622e-06 -4.10622e-06 0)
(-1.89693e-07 -4.01891e-06 0)
(-4.77536e-06 -5.82383e-06 0)
(-3.22369e-06 -5.39793e-06 0)
(-1.68507e-06 -5.14629e-06 0)
(-1.68857e-07 -5.0661e-06 0)
(-5.26872e-06 -7.06549e-06 0)
(-3.54035e-06 -6.64332e-06 0)
(-1.82713e-06 -6.39773e-06 0)
(-1.36801e-07 -6.32625e-06 0)
(-5.79351e-06 -8.55155e-06 0)
(-3.87341e-06 -8.13596e-06 0)
(-1.97042e-06 -7.89876e-06 0)
(-9.04837e-08 -7.83807e-06 0)
(-6.36981e-06 -1.03926e-05 0)
(-4.2343e-06 -9.98758e-06 0)
(-2.11774e-06 -9.76218e-06 0)
(-2.39475e-08 -9.71534e-06 0)
(-6.9723e-06 -1.2595e-05 0)
(-4.60498e-06 -1.22056e-05 0)
(-2.25797e-06 -1.19962e-05 0)
(6.71421e-08 -1.19669e-05 0)
(-7.55541e-06 -1.50306e-05 0)
(-4.95633e-06 -1.4661e-05 0)
(-2.37818e-06 -1.4471e-05 0)
(1.79716e-07 -1.44617e-05 0)
(-8.11492e-06 -1.76999e-05 0)
(-5.28511e-06 -1.73543e-05 0)
(-2.47622e-06 -1.71869e-05 0)
(3.14753e-07 -1.71999e-05 0)
(-8.64665e-06 -2.06028e-05 0)
(-5.58826e-06 -2.02847e-05 0)
(-2.55013e-06 -2.01427e-05 0)
(4.73099e-07 -2.018e-05 0)
(-9.14722e-06 -2.37381e-05 0)
(-5.86339e-06 -2.34504e-05 0)
(-2.59861e-06 -2.33361e-05 0)
(6.54803e-07 -2.33991e-05 0)
(-9.61382e-06 -2.71035e-05 0)
(-6.10869e-06 -2.68486e-05 0)
(-2.62092e-06 -2.67634e-05 0)
(8.59412e-07 -2.68526e-05 0)
(-1.00445e-05 -3.06959e-05 0)
(-6.32315e-06 -3.04751e-05 0)
(-2.6171e-06 -3.04198e-05 0)
(1.08568e-06 -3.0535e-05 0)
(-1.04383e-05 -3.45108e-05 0)
(-6.50654e-06 -3.43246e-05 0)
(-2.58789e-06 -3.4299e-05 0)
(1.33173e-06 -3.44392e-05 0)
(-1.07947e-05 -3.85427e-05 0)
(-6.65937e-06 -3.83907e-05 0)
(-2.53473e-06 -3.83938e-05 0)
(1.59507e-06 -3.85574e-05 0)
(-1.11143e-05 -4.2785e-05 0)
(-6.78288e-06 -4.26659e-05 0)
(-2.45967e-06 -4.26961e-05 0)
(1.87273e-06 -4.28806e-05 0)
(-1.13982e-05 -4.72299e-05 0)
(-6.87885e-06 -4.7142e-05 0)
(-2.36521e-06 -4.71968e-05 0)
(2.16137e-06 -4.73995e-05 0)
(-1.16481e-05 -5.18687e-05 0)
(-6.94952e-06 -5.18096e-05 0)
(-2.2542e-06 -5.18865e-05 0)
(2.45751e-06 -5.21042e-05 0)
(-1.1866e-05 -5.66918e-05 0)
(-6.99741e-06 -5.66589e-05 0)
(-2.12965e-06 -5.6755e-05 0)
(2.7576e-06 -5.69844e-05 0)
(-1.20544e-05 -6.1689e-05 0)
(-7.02521e-06 -6.16797e-05 0)
(-1.99461e-06 -6.17919e-05 0)
(3.05824e-06 -6.20297e-05 0)
(-1.22157e-05 -6.68499e-05 0)
(-7.03562e-06 -6.68611e-05 0)
(-1.85201e-06 -6.69865e-05 0)
(3.35623e-06 -6.72297e-05 0)
(-1.23523e-05 -7.21634e-05 0)
(-7.03127e-06 -7.21926e-05 0)
(-1.70462e-06 -7.23283e-05 0)
(3.6487e-06 -7.25739e-05 0)
(-1.24668e-05 -7.76187e-05 0)
(-7.01464e-06 -7.76632e-05 0)
(-1.55494e-06 -7.78067e-05 0)
(3.93315e-06 -7.80521e-05 0)
(-1.25615e-05 -8.32047e-05 0)
(-6.98802e-06 -8.32621e-05 0)
(-1.40519e-06 -8.34111e-05 0)
(4.20745e-06 -8.36541e-05 0)
(-1.26386e-05 -8.89106e-05 0)
(-6.95344e-06 -8.89789e-05 0)
(-1.25726e-06 -8.91313e-05 0)
(4.4699e-06 -8.93701e-05 0)
(-1.27001e-05 -9.47261e-05 0)
(-6.91272e-06 -9.48032e-05 0)
(-1.11273e-06 -9.49573e-05 0)
(4.71917e-06 -9.51903e-05 0)
(-1.27479e-05 -0.000100641 0)
(-6.86742e-06 -0.000100725 0)
(-9.72867e-07 -0.00010088 0)
(4.95429e-06 -0.000101106 0)
(-1.27837e-05 -0.000106645 0)
(-6.81888e-06 -0.000106735 0)
(-8.38689e-07 -0.000106889 0)
(5.17461e-06 -0.000107107 0)
(-1.28089e-05 -0.00011273 0)
(-6.76821e-06 -0.000112825 0)
(-7.10943e-07 -0.000112976 0)
(5.37978e-06 -0.000113186 0)
(-1.28249e-05 -0.000118886 0)
(-6.71636e-06 -0.000118984 0)
(-5.90162e-07 -0.000119133 0)
(5.56969e-06 -0.000119334 0)
(-1.28328e-05 -0.000125106 0)
(-6.66408e-06 -0.000125206 0)
(-4.7669e-07 -0.000125352 0)
(5.74443e-06 -0.000125543 0)
(-1.28337e-05 -0.00013138 0)
(-6.61201e-06 -0.000131483 0)
(-3.70708e-07 -0.000131625 0)
(5.90429e-06 -0.000131807 0)
(-1.28286e-05 -0.000137703 0)
(-6.56063e-06 -0.000137807 0)
(-2.72264e-07 -0.000137944 0)
(6.04968e-06 -0.000138117 0)
(-1.28182e-05 -0.000144067 0)
(-6.51034e-06 -0.000144171 0)
(-1.81294e-07 -0.000144305 0)
(6.18113e-06 -0.000144469 0)
(-1.28034e-05 -0.000150466 0)
(-6.46144e-06 -0.000150571 0)
(-9.7647e-08 -0.0001507 0)
(6.29927e-06 -0.000150855 0)
(-1.27847e-05 -0.000156895 0)
(-6.41415e-06 -0.000156999 0)
(-2.1098e-08 -0.000157124 0)
(6.40478e-06 -0.00015727 0)
(-1.27629e-05 -0.000163347 0)
(-6.36865e-06 -0.00016345 0)
(4.86315e-08 -0.000163571 0)
(6.4984e-06 -0.000163709 0)
(-1.27384e-05 -0.000169818 0)
(-6.32505e-06 -0.000169921 0)
(1.11862e-07 -0.000170037 0)
(6.5809e-06 -0.000170168 0)
(-1.27117e-05 -0.000176304 0)
(-6.28344e-06 -0.000176406 0)
(1.68945e-07 -0.000176518 0)
(6.65308e-06 -0.000176641 0)
(-1.26834e-05 -0.000182801 0)
(-6.24387e-06 -0.000182901 0)
(2.20252e-07 -0.000183009 0)
(6.71574e-06 -0.000183126 0)
(-1.26539e-05 -0.000189305 0)
(-6.20636e-06 -0.000189404 0)
(2.66166e-07 -0.000189508 0)
(6.76967e-06 -0.000189618 0)
(-1.26235e-05 -0.000195813 0)
(-6.17092e-06 -0.00019591 0)
(3.07076e-07 -0.000196011 0)
(6.81566e-06 -0.000196115 0)
(-1.25927e-05 -0.000202323 0)
(-6.13753e-06 -0.000202419 0)
(3.43372e-07 -0.000202516 0)
(6.8545e-06 -0.000202614 0)
(-1.25617e-05 -0.000208833 0)
(-6.10618e-06 -0.000208926 0)
(3.75435e-07 -0.000209019 0)
(6.88693e-06 -0.000209113 0)
(-1.25308e-05 -0.000215339 0)
(-6.07685e-06 -0.000215431 0)
(4.0364e-07 -0.000215521 0)
(6.91367e-06 -0.00021561 0)
(-1.25005e-05 -0.000221842 0)
(-6.04949e-06 -0.000221931 0)
(4.28345e-07 -0.000222018 0)
(6.93543e-06 -0.000222103 0)
(-1.24709e-05 -0.000228339 0)
(-6.02408e-06 -0.000228426 0)
(4.49893e-07 -0.00022851 0)
(6.95284e-06 -0.000228591 0)
(-1.24423e-05 -0.00023483 0)
(-6.00058e-06 -0.000234915 0)
(4.68607e-07 -0.000234996 0)
(6.96652e-06 -0.000235073 0)
(-1.24149e-05 -0.000241314 0)
(-5.97895e-06 -0.000241396 0)
(4.84786e-07 -0.000241475 0)
(6.97705e-06 -0.000241549 0)
(-1.2389e-05 -0.00024779 0)
(-5.95916e-06 -0.00024787 0)
(4.98707e-07 -0.000247946 0)
(6.98494e-06 -0.000248018 0)
(-1.23646e-05 -0.000254259 0)
(-5.94117e-06 -0.000254337 0)
(5.10616e-07 -0.00025441 0)
(6.99065e-06 -0.000254479 0)
(-1.23421e-05 -0.000260721 0)
(-5.92497e-06 -0.000260796 0)
(5.20735e-07 -0.000260867 0)
(6.99461e-06 -0.000260934 0)
(-1.23214e-05 -0.000267176 0)
(-5.91052e-06 -0.000267249 0)
(5.29252e-07 -0.000267317 0)
(6.99717e-06 -0.000267381 0)
(-1.23028e-05 -0.000273623 0)
(-5.89782e-06 -0.000273694 0)
(5.3632e-07 -0.00027376 0)
(6.99863e-06 -0.000273823 0)
(-1.22864e-05 -0.000280065 0)
(-5.88686e-06 -0.000280133 0)
(5.42059e-07 -0.000280197 0)
(6.99924e-06 -0.000280258 0)
(-1.22722e-05 -0.000286502 0)
(-5.87766e-06 -0.000286567 0)
(5.46547e-07 -0.000286629 0)
(6.99916e-06 -0.000286687 0)
(-1.22603e-05 -0.000292933 0)
(-5.87024e-06 -0.000292996 0)
(5.49818e-07 -0.000293055 0)
(6.99851e-06 -0.000293112 0)
(-1.22508e-05 -0.000299361 0)
(-5.86467e-06 -0.000299421 0)
(5.51832e-07 -0.000299478 0)
(6.99734e-06 -0.000299533 0)
(-1.22437e-05 -0.000305786 0)
(-5.86108e-06 -0.000305843 0)
(5.5249e-07 -0.000305897 0)
(6.99565e-06 -0.00030595 0)
(-1.22391e-05 -0.000312208 0)
(-5.85978e-06 -0.000312262 0)
(5.51466e-07 -0.000312313 0)
(6.99335e-06 -0.000312364 0)
(-1.22368e-05 -0.00031863 0)
(-5.86112e-06 -0.000318681 0)
(5.48361e-07 -0.000318727 0)
(6.99049e-06 -0.000318776 0)
(-1.22369e-05 -0.000325052 0)
(-5.86648e-06 -0.000325099 0)
(5.41756e-07 -0.00032514 0)
(6.9868e-06 -0.000325185 0)
(-1.2238e-05 -0.000331475 0)
(-5.87626e-06 -0.000331518 0)
(5.31149e-07 -0.000331551 0)
(6.9834e-06 -0.000331592 0)
(-1.22415e-05 -0.000337893 0)
(-5.89496e-06 -0.000337934 0)
(5.11962e-07 -0.000337964 0)
(6.97865e-06 -0.000338006 0)
(-1.22365e-05 -0.000344282 0)
(-5.90929e-06 -0.000344341 0)
(4.97348e-07 -0.000344389 0)
(6.98298e-06 -0.000344447 0)
)
;

boundaryField
{
    plateFix
    {
        type            fixedDisplacement;
        value           uniform (0 0 0);
    }
    plate
    {
        type            solidTraction;
        nonLinear       updatedLagrangian;
        traction        uniform (0 0 0);
        pressure        uniform 0;
        value           nonuniform List<vector> 
168
(
(-3.87865e-07 -2.53513e-07 -5.86759e-26)
(-2.3983e-07 9.87866e-08 -9.73449e-26)
(-3.87483e-07 -3.82557e-07 1.46174e-25)
(-1.90992e-07 1.81835e-07 -2.37747e-26)
(-4.27836e-07 -4.84384e-07 4.06242e-26)
(-1.43735e-07 2.43513e-07 1.25871e-25)
(-5.08216e-07 -5.60583e-07 -3.19615e-26)
(-1.04197e-07 2.81305e-07 2.82599e-26)
(-6.25207e-07 -6.25842e-07 -6.77442e-26)
(-7.23522e-08 2.9662e-07 -8.11837e-26)
(-7.71782e-07 -6.88135e-07 6.265e-26)
(-4.58838e-08 2.88886e-07 1.15821e-26)
(-9.44492e-07 -7.56122e-07 -1.05091e-25)
(-2.31231e-08 2.57244e-07 2.522e-26)
(-1.1409e-06 -8.36835e-07 3.06979e-26)
(-2.38663e-09 1.99691e-07 -6.5884e-26)
(-1.36012e-06 -9.37274e-07 -7.23748e-26)
(1.77326e-08 1.13316e-07 1.02246e-25)
(-1.60207e-06 -1.06438e-06 1.03513e-25)
(3.85769e-08 -5.93419e-09 -8.30425e-26)
(-1.86734e-06 -1.22559e-06 -6.43611e-26)
(6.13892e-08 -1.63336e-07 1.85171e-26)
(-2.15695e-06 -1.42906e-06 8.02246e-26)
(8.73857e-08 -3.65573e-07 1.71819e-26)
(-2.47227e-06 -1.68403e-06 -5.86727e-26)
(1.17757e-07 -6.20914e-07 1.55523e-26)
(-2.81492e-06 -2.0011e-06 3.54708e-27)
(1.53714e-07 -9.39445e-07 -3.91912e-26)
(-3.18671e-06 -2.39255e-06 1.01203e-26)
(1.96508e-07 -1.33333e-06 1.29558e-26)
(-3.5896e-06 -2.87271e-06 1.14042e-27)
(2.4748e-07 -1.81713e-06 -1.99471e-26)
(-4.02559e-06 -3.45835e-06 3.01819e-26)
(3.08112e-07 -2.40815e-06 2.20547e-26)
(-4.49663e-06 -4.16908e-06 -1.5372e-26)
(3.80103e-07 -3.12691e-06 -6.1885e-26)
(-5.00452e-06 -5.0279e-06 -1.24193e-26)
(4.65441e-07 -3.99762e-06 4.73833e-26)
(-5.55064e-06 -6.06167e-06 1.15227e-26)
(5.66544e-07 -5.04873e-06 -8.42623e-28)
(-6.13587e-06 -7.30176e-06 -1.17612e-26)
(6.86309e-07 -6.31361e-06 1.76578e-26)
(-6.76003e-06 -8.78473e-06 8.79331e-27)
(8.28471e-07 -7.83121e-06 9.04238e-27)
(-7.44785e-06 -1.06206e-05 -2.63776e-27)
(1.00329e-06 -9.71568e-06 -1.69609e-26)
(-8.16999e-06 -1.28151e-05 1.75149e-26)
(1.21176e-06 -1.19763e-05 3.72776e-26)
(-8.87225e-06 -1.52406e-05 -3.27704e-26)
(1.44305e-06 -1.44813e-05 -5.27355e-26)
(-9.54997e-06 -1.78976e-05 3.2082e-26)
(1.69745e-06 -1.72309e-05 2.23786e-26)
(-1.01983e-05 -2.07862e-05 2.98031e-26)
(1.97528e-06 -2.02231e-05 -4.34133e-26)
(-1.08134e-05 -2.39056e-05 -3.4026e-26)
(2.27584e-06 -2.34549e-05 6.47899e-26)
(-1.1392e-05 -2.7254e-05 -1.57947e-27)
(2.598e-06 -2.69214e-05 -4.39127e-26)
(-1.19318e-05 -3.08285e-05 5.64526e-28)
(2.93976e-06 -3.06165e-05 -3.29458e-27)
(-1.24311e-05 -3.46253e-05 2.81651e-27)
(3.29856e-06 -3.45327e-05 3.09191e-26)
(-1.28894e-05 -3.86393e-05 5.8298e-29)
(3.67124e-06 -3.86619e-05 5.90936e-27)
(-1.33067e-05 -4.28642e-05 -1.09252e-26)
(4.05423e-06 -4.29949e-05 -2.50944e-27)
(-1.36839e-05 -4.72926e-05 1.25245e-26)
(4.44372e-06 -4.75219e-05 -2.97862e-26)
(-1.40225e-05 -5.1916e-05 -1.11011e-26)
(4.8358e-06 -5.22331e-05 3.43039e-26)
(-1.43243e-05 -5.6725e-05 8.99148e-27)
(5.22664e-06 -5.71181e-05 -2.1437e-26)
(-1.45915e-05 -6.17095e-05 5.29254e-27)
(5.6126e-06 -6.21665e-05 3.90979e-27)
(-1.48267e-05 -6.68591e-05 -1.90066e-26)
(5.99038e-06 -6.7368e-05 1.30763e-26)
(-1.50321e-05 -7.21627e-05 8.62179e-27)
(6.35706e-06 -7.27123e-05 -1.19747e-26)
(-1.52104e-05 -7.76093e-05 -7.54899e-27)
(6.71014e-06 -7.81892e-05 4.52583e-27)
(-1.5364e-05 -8.31878e-05 2.52371e-27)
(7.0476e-06 -8.37889e-05 -4.34544e-27)
(-1.54952e-05 -8.88875e-05 2.10493e-26)
(7.36784e-06 -8.95016e-05 5.81979e-28)
(-1.56061e-05 -9.46976e-05 -1.59339e-26)
(7.6697e-06 -9.53178e-05 2.10446e-26)
(-1.56988e-05 -0.000100608 2.09665e-27)
(7.95241e-06 -0.000101229 -2.69268e-27)
(-1.5775e-05 -0.000106609 2.6347e-27)
(8.21554e-06 -0.000107225 -4.53745e-27)
(-1.58365e-05 -0.00011269 1.07957e-27)
(8.45897e-06 -0.000113298 6.44474e-27)
(-1.58849e-05 -0.000118844 -3.10266e-26)
(8.68282e-06 -0.000119441 2.54871e-27)
(-1.59214e-05 -0.000125061 8.71828e-27)
(8.88746e-06 -0.000125645 -4.71689e-27)
(-1.59474e-05 -0.000131334 2.7849e-26)
(9.07341e-06 -0.000131903 -1.79135e-26)
(-1.5964e-05 -0.000137656 -8.53454e-27)
(9.24134e-06 -0.000138208 -1.24824e-26)
(-1.59722e-05 -0.000144019 -4.78032e-27)
(9.39204e-06 -0.000144554 -1.18529e-26)
(-1.59731e-05 -0.000150418 3.81876e-27)
(9.52639e-06 -0.000150935 1.42768e-26)
(-1.59676e-05 -0.000156846 -1.54617e-26)
(9.64532e-06 -0.000157346 1.33271e-26)
(-1.59564e-05 -0.000163298 -4.71109e-27)
(9.74981e-06 -0.00016378 -4.17997e-26)
(-1.59404e-05 -0.000169769 -4.38876e-27)
(9.84087e-06 -0.000170234 2.64597e-26)
(-1.59202e-05 -0.000176255 -1.37577e-26)
(9.91953e-06 -0.000176704 -4.06537e-27)
(-1.58965e-05 -0.000182752 1.03839e-26)
(9.98681e-06 -0.000183185 1.21198e-26)
(-1.587e-05 -0.000189257 7.64938e-27)
(1.00437e-05 -0.000189673 2.16179e-27)
(-1.58412e-05 -0.000195765 5.6375e-27)
(1.00913e-05 -0.000196167 1.85507e-26)
(-1.58108e-05 -0.000202276 2.06333e-26)
(1.01304e-05 -0.000202663 -4.1968e-26)
(-1.57791e-05 -0.000208786 -5.45493e-27)
(1.01621e-05 -0.000209159 -1.18792e-26)
(-1.57468e-05 -0.000215293 -1.96497e-26)
(1.01873e-05 -0.000215654 -8.01538e-27)
(-1.57142e-05 -0.000221797 6.90455e-27)
(1.02067e-05 -0.000222144 2.12471e-26)
(-1.56818e-05 -0.000228295 -7.82968e-27)
(1.02213e-05 -0.00022863 1.08804e-26)
(-1.565e-05 -0.000234787 9.18744e-27)
(1.02318e-05 -0.000235111 -9.81869e-27)
(-1.56192e-05 -0.000241272 4.3141e-26)
(1.02389e-05 -0.000241585 1.25358e-27)
(-1.55896e-05 -0.000247749 -3.23786e-26)
(1.02432e-05 -0.000248052 1.43029e-26)
(-1.55616e-05 -0.00025422 -1.23224e-26)
(1.02454e-05 -0.000254513 2.90714e-26)
(-1.55354e-05 -0.000260683 1.56033e-26)
(1.02459e-05 -0.000260966 2.05525e-27)
(-1.55113e-05 -0.000267138 6.30927e-27)
(1.02451e-05 -0.000267413 4.61049e-26)
(-1.54894e-05 -0.000273588 -1.46518e-26)
(1.02436e-05 -0.000273853 5.15904e-27)
(-1.54699e-05 -0.000280031 -1.36899e-26)
(1.02415e-05 -0.000280287 2.31598e-26)
(-1.54529e-05 -0.000286468 -5.07586e-26)
(1.0239e-05 -0.000286716 -5.7338e-27)
(-1.54386e-05 -0.000292901 2.92703e-26)
(1.02364e-05 -0.00029314 -1.53618e-26)
(-1.5427e-05 -0.000299331 -4.75088e-26)
(1.02337e-05 -0.00029956 -8.43606e-27)
(-1.54183e-05 -0.000305757 -2.47557e-27)
(1.02308e-05 -0.000305976 -2.48218e-26)
(-1.54123e-05 -0.000312181 7.32384e-26)
(1.02277e-05 -0.00031239 -9.58741e-27)
(-1.54091e-05 -0.000318604 -4.30171e-26)
(1.02244e-05 -0.0003188 -2.63012e-26)
(-1.54084e-05 -0.000325028 -1.07459e-26)
(1.02208e-05 -0.000325209 4.55407e-26)
(-1.54069e-05 -0.000331452 2.50506e-26)
(1.02198e-05 -0.000331615 1.23063e-26)
(-1.53993e-05 -0.000337869 3.4229e-27)
(1.02263e-05 -0.000338029 -2.42251e-26)
(-1.53597e-05 -0.00034426 -6.09494e-27)
(-1.22354e-05 -0.000347428 -2.5874e-26)
(-5.91293e-06 -0.000347533 -3.15697e-26)
(4.93594e-07 -0.000347614 1.22079e-25)
(6.9839e-06 -0.000347718 -2.28263e-25)
(1.02656e-05 -0.00034447 -6.3796e-27)
)
;
    }
    frontAndBackPlanes
    {
        type            empty;
    }
}


// ************************************************************************* //
