/*--------------------------------*- C++ -*----------------------------------*\
| =========                 |                                                 |
| \\      /  F ield         | OpenFOAM Extend Project: Open source CFD        |
|  \\    /   O peration     | Version:  1.6-ext                               |
|   \\  /    A nd           | Web:      www.extend-project.de                 |
|    \\/     M anipulation  |                                                 |
\*---------------------------------------------------------------------------*/
FoamFile
{
    version     2.0;
    format      ascii;
    class       volScalarField::DimensionedInternalField;
    location    "0.3";
    object      V0;
}
// * * * * * * * * * * * * * * * * * * * * * * * * * * * * * * * * * * * * * //

dimensions      [0 3 0 0 0 0 0];

value           nonuniform List<scalar> 
328
(
2.53336e-07
2.53331e-07
2.53336e-07
2.53342e-07
2.71709e-07
2.717e-07
2.71704e-07
2.71714e-07
2.91406e-07
2.91401e-07
2.91404e-07
2.91414e-07
3.12532e-07
3.1253e-07
3.12533e-07
3.12542e-07
3.3519e-07
3.3519e-07
3.35193e-07
3.35202e-07
3.59491e-07
3.59494e-07
3.59497e-07
3.59505e-07
3.85554e-07
3.85559e-07
3.85562e-07
3.85571e-07
4.13508e-07
4.13514e-07
4.13517e-07
4.13526e-07
4.43489e-07
4.43496e-07
4.435e-07
4.43508e-07
4.75643e-07
4.75652e-07
4.75655e-07
4.75665e-07
5.10129e-07
5.10139e-07
5.10143e-07
5.10153e-07
5.47115e-07
5.47126e-07
5.47131e-07
5.47141e-07
5.86783e-07
5.86795e-07
5.868e-07
5.86812e-07
6.29327e-07
6.2934e-07
6.29346e-07
6.29358e-07
6.74956e-07
6.7497e-07
6.74976e-07
6.7499e-07
7.23893e-07
7.23909e-07
7.23916e-07
7.23931e-07
7.76379e-07
7.76396e-07
7.76403e-07
7.76419e-07
8.3267e-07
8.32688e-07
8.32696e-07
8.32714e-07
8.93042e-07
8.93062e-07
8.9307e-07
8.9309e-07
9.57791e-07
9.57813e-07
9.57823e-07
9.57844e-07
1.02724e-06
1.02726e-06
1.02727e-06
1.02729e-06
1.10171e-06
1.10174e-06
1.10175e-06
1.10178e-06
1.26865e-06
1.26868e-06
1.2687e-06
1.26872e-06
1.26865e-06
1.26868e-06
1.2687e-06
1.26873e-06
1.26865e-06
1.26868e-06
1.2687e-06
1.26873e-06
1.26865e-06
1.26868e-06
1.2687e-06
1.26873e-06
1.26865e-06
1.26868e-06
1.2687e-06
1.26873e-06
1.26865e-06
1.26868e-06
1.2687e-06
1.26873e-06
1.26866e-06
1.26868e-06
1.2687e-06
1.26872e-06
1.26866e-06
1.26868e-06
1.2687e-06
1.26872e-06
1.26866e-06
1.26868e-06
1.26869e-06
1.26872e-06
1.26866e-06
1.26868e-06
1.26869e-06
1.26872e-06
1.26866e-06
1.26868e-06
1.26869e-06
1.26872e-06
1.26866e-06
1.26868e-06
1.26869e-06
1.26872e-06
1.26866e-06
1.26868e-06
1.26869e-06
1.26871e-06
1.26866e-06
1.26868e-06
1.26869e-06
1.26871e-06
1.26866e-06
1.26868e-06
1.26869e-06
1.26871e-06
1.26866e-06
1.26868e-06
1.26869e-06
1.26871e-06
1.26866e-06
1.26868e-06
1.26869e-06
1.26871e-06
1.26866e-06
1.26868e-06
1.26869e-06
1.2687e-06
1.26867e-06
1.26868e-06
1.26869e-06
1.2687e-06
1.26867e-06
1.26868e-06
1.26869e-06
1.2687e-06
1.26867e-06
1.26868e-06
1.26869e-06
1.2687e-06
1.26867e-06
1.26868e-06
1.26869e-06
1.2687e-06
1.26867e-06
1.26868e-06
1.26868e-06
1.26869e-06
1.26867e-06
1.26868e-06
1.26868e-06
1.26869e-06
1.26867e-06
1.26868e-06
1.26868e-06
1.26869e-06
1.26867e-06
1.26868e-06
1.26868e-06
1.26869e-06
1.26867e-06
1.26868e-06
1.26868e-06
1.26869e-06
1.26868e-06
1.26868e-06
1.26868e-06
1.26869e-06
1.26868e-06
1.26868e-06
1.26868e-06
1.26869e-06
1.26868e-06
1.26868e-06
1.26868e-06
1.26869e-06
1.26868e-06
1.26868e-06
1.26868e-06
1.26869e-06
1.26868e-06
1.26868e-06
1.26868e-06
1.26868e-06
1.26868e-06
1.26868e-06
1.26868e-06
1.26868e-06
1.26868e-06
1.26868e-06
1.26868e-06
1.26868e-06
1.26868e-06
1.26868e-06
1.26868e-06
1.26868e-06
1.26868e-06
1.26868e-06
1.26868e-06
1.26868e-06
1.26868e-06
1.26868e-06
1.26868e-06
1.26868e-06
1.26868e-06
1.26868e-06
1.26868e-06
1.26868e-06
1.26868e-06
1.26868e-06
1.26868e-06
1.26868e-06
1.26868e-06
1.26868e-06
1.26868e-06
1.26868e-06
1.26868e-06
1.26868e-06
1.26868e-06
1.26868e-06
1.26868e-06
1.26868e-06
1.26868e-06
1.26868e-06
1.26868e-06
1.26868e-06
1.26868e-06
1.26868e-06
1.26868e-06
1.26868e-06
1.26868e-06
1.26868e-06
1.26868e-06
1.26868e-06
1.26868e-06
1.26868e-06
1.26868e-06
1.26868e-06
1.26868e-06
1.26868e-06
1.26868e-06
1.26868e-06
1.26868e-06
1.26868e-06
1.26868e-06
1.26868e-06
1.26868e-06
1.26868e-06
1.26868e-06
1.26868e-06
1.26868e-06
1.26868e-06
1.26868e-06
1.26868e-06
1.26868e-06
1.26868e-06
1.26868e-06
1.26868e-06
1.26868e-06
1.26868e-06
1.26868e-06
1.26868e-06
1.26868e-06
1.26868e-06
1.26868e-06
1.26868e-06
1.26868e-06
1.26868e-06
1.26868e-06
1.26868e-06
1.26868e-06
1.26868e-06
1.26868e-06
1.26868e-06
1.26868e-06
1.26868e-06
1.26868e-06
1.26868e-06
1.26868e-06
1.26868e-06
1.26868e-06
1.26868e-06
1.26868e-06
1.26868e-06
1.26868e-06
1.26868e-06
1.26868e-06
1.26868e-06
1.26869e-06
1.26868e-06
1.26868e-06
1.26869e-06
1.26868e-06
1.26868e-06
1.26868e-06
1.26868e-06
)
;


// ************************************************************************* //
