/*--------------------------------*- C++ -*----------------------------------*\
| =========                 |                                                 |
| \\      /  F ield         | OpenFOAM Extend Project: Open source CFD        |
|  \\    /   O peration     | Version:  1.6-ext                               |
|   \\  /    A nd           | Web:      www.extend-project.de                 |
|    \\/     M anipulation  |                                                 |
\*---------------------------------------------------------------------------*/
FoamFile
{
    version     2.0;
    format      ascii;
    class       volVectorField;
    location    "0.3";
    object      Vs;
}
// * * * * * * * * * * * * * * * * * * * * * * * * * * * * * * * * * * * * * //

dimensions      [0 1 -1 0 0 0 0];

internalField   nonuniform List<vector> 
328
(
(-4.67441e-06 -1.58601e-05 0)
(-2.12839e-06 -3.34155e-06 0)
(-2.22923e-06 3.48121e-06 0)
(-5.20482e-06 1.67201e-05 0)
(-1.4151e-05 -4.05703e-05 0)
(-7.81548e-06 -9.58059e-06 0)
(-8.16792e-06 1.03174e-05 0)
(-1.57677e-05 4.29696e-05 0)
(-2.57564e-05 -5.87312e-05 0)
(-1.72692e-05 -1.52706e-05 0)
(-1.79806e-05 1.69628e-05 0)
(-2.85972e-05 6.26509e-05 0)
(-3.85602e-05 -7.13396e-05 0)
(-2.90827e-05 -1.99177e-05 0)
(-3.02009e-05 2.29306e-05 0)
(-4.26997e-05 7.68715e-05 0)
(-5.28038e-05 -7.97023e-05 0)
(-4.34923e-05 -2.3341e-05 0)
(-4.50639e-05 2.80505e-05 0)
(-5.83148e-05 8.70451e-05 0)
(-6.83539e-05 -8.48208e-05 0)
(-6.00115e-05 -2.54774e-05 0)
(-6.20626e-05 3.22871e-05 0)
(-7.52877e-05 9.42635e-05 0)
(-8.53109e-05 -8.75139e-05 0)
(-7.85415e-05 -2.64055e-05 0)
(-8.10918e-05 3.57556e-05 0)
(-9.37088e-05 9.94267e-05 0)
(-0.000103733 -8.83858e-05 0)
(-9.88714e-05 -2.62554e-05 0)
(-0.000101932 3.86327e-05 0)
(-0.000113624 0.000103213 0)
(-0.000123727 -8.78981e-05 0)
(-0.000120915 -2.51896e-05 0)
(-0.000124492 4.11346e-05 0)
(-0.000135128 0.000106155 0)
(-0.000145398 -8.63855e-05 0)
(-0.000144605 -2.3362e-05 0)
(-0.0001487 4.34758e-05 0)
(-0.000158315 0.000108656 0)
(-0.000168857 -8.40883e-05 0)
(-0.000169942 -2.0904e-05 0)
(-0.00017455 4.58532e-05 0)
(-0.000183282 0.000111029 0)
(-0.000194218 -8.11672e-05 0)
(-0.000196968 -1.79121e-05 0)
(-0.00020208 4.84322e-05 0)
(-0.000210126 0.000113504 0)
(-0.000221596 -7.77211e-05 0)
(-0.000225768 -1.44462e-05 0)
(-0.000231369 5.1344e-05 0)
(-0.000238946 0.000116253 0)
(-0.000251114 -7.38001e-05 0)
(-0.000256463 -1.0533e-05 0)
(-0.000262531 5.46861e-05 0)
(-0.000269843 0.000119398 0)
(-0.000282901 -6.94192e-05 0)
(-0.0002892 -6.17342e-06 0)
(-0.000295706 5.85275e-05 0)
(-0.00030292 0.00012302 0)
(-0.000317099 -6.4571e-05 0)
(-0.000324148 -1.35118e-06 0)
(-0.000331052 6.29129e-05 0)
(-0.000338293 0.000127175 0)
(-0.000353863 -5.92374e-05 0)
(-0.000361489 3.95719e-06 0)
(-0.000368741 6.78688e-05 0)
(-0.000376082 0.000131892 0)
(-0.000393365 -5.34006e-05 0)
(-0.000401418 9.7733e-06 0)
(-0.000408955 7.34057e-05 0)
(-0.000416422 0.000137188 0)
(-0.000435795 -4.7052e-05 0)
(-0.000444136 1.61085e-05 0)
(-0.000451882 7.95189e-05 0)
(-0.000459461 0.000143059 0)
(-0.000481359 -4.01995e-05 0)
(-0.000489854 2.29568e-05 0)
(-0.000497716 8.6187e-05 0)
(-0.000505355 0.000149488 0)
(-0.000530281 -3.28743e-05 0)
(-0.00053879 3.02875e-05 0)
(-0.000546659 9.33669e-05 0)
(-0.000554277 0.000156433 0)
(-0.000582798 -2.51351e-05 0)
(-0.000591171 3.80396e-05 0)
(-0.000598917 0.000100987 0)
(-0.000606407 0.000163821 0)
(-0.000641309 -1.67683e-05 0)
(-0.000649365 4.64212e-05 0)
(-0.000656828 0.00010924 0)
(-0.000664044 0.000171832 0)
(-0.000703947 -8.26458e-06 0)
(-0.000711485 5.49327e-05 0)
(-0.000718475 0.000117622 0)
(-0.000725243 0.000179965 0)
(-0.00076654 -3.3825e-07 0)
(-0.000773395 6.28347e-05 0)
(-0.000779755 0.000125377 0)
(-0.000785926 0.000187459 0)
(-0.000829016 6.88364e-06 0)
(-0.00083504 6.99826e-05 0)
(-0.000840624 0.000132343 0)
(-0.000846052 0.000194132 0)
(-0.000891287 1.32918e-05 0)
(-0.000896349 7.62426e-05 0)
(-0.000901022 0.000138359 0)
(-0.000905567 0.000199803 0)
(-0.000953243 1.8778e-05 0)
(-0.000957228 8.14866e-05 0)
(-0.000960868 0.00014328 0)
(-0.000964399 0.000204304 0)
(-0.00101476 2.32402e-05 0)
(-0.00101757 8.55953e-05 0)
(-0.00102007 0.000146966 0)
(-0.00102247 0.000207482 0)
(-0.00107572 2.65779e-05 0)
(-0.00107726 8.84581e-05 0)
(-0.00107853 0.000149299 0)
(-0.00107968 0.000209209 0)
(-0.00113597 2.86954e-05 0)
(-0.00113619 8.99766e-05 0)
(-0.00113614 0.000150175 0)
(-0.00113596 0.000209382 0)
(-0.00119538 2.95049e-05 0)
(-0.00119422 9.00677e-05 0)
(-0.0011928 0.000149517 0)
(-0.00119121 0.000207928 0)
(-0.00125384 2.89306e-05 0)
(-0.00125127 8.86673e-05 0)
(-0.00124843 0.000147272 0)
(-0.00124538 0.000204808 0)
(-0.00131123 2.69136e-05 0)
(-0.00130722 8.57331e-05 0)
(-0.00130294 0.000143415 0)
(-0.00129841 0.000200011 0)
(-0.00136745 2.34158e-05 0)
(-0.00136201 8.12463e-05 0)
(-0.00135629 0.000137944 0)
(-0.00135026 0.000193556 0)
(-0.00142243 1.84222e-05 0)
(-0.00141558 7.5212e-05 0)
(-0.00140843 0.000130886 0)
(-0.00140091 0.000185487 0)
(-0.00147612 1.19414e-05 0)
(-0.00146789 6.76578e-05 0)
(-0.00145934 0.000122285 0)
(-0.00145037 0.000175865 0)
(-0.00152848 4.00429e-06 0)
(-0.00151891 5.86314e-05 0)
(-0.001509 0.000112205 0)
(-0.00149862 0.000164767 0)
(-0.00157948 -5.33851e-06 0)
(-0.00156863 4.81969e-05 0)
(-0.00155742 0.000100721 0)
(-0.00154569 0.000152279 0)
(-0.00162911 -1.60208e-05 0)
(-0.00161705 3.6431e-05 0)
(-0.0016046 8.79189e-05 0)
(-0.00159159 0.000138492 0)
(-0.00167738 -2.79653e-05 0)
(-0.00166418 2.34184e-05 0)
(-0.00165055 7.3889e-05 0)
(-0.00163633 0.000123499 0)
(-0.0017243 -4.10878e-05 0)
(-0.00171002 9.24783e-06 0)
(-0.00169528 5.87226e-05 0)
(-0.00167994 0.000107393 0)
(-0.00176987 -5.53018e-05 0)
(-0.00175458 -5.99152e-06 0)
(-0.00173882 4.25095e-05 0)
(-0.00172242 9.02616e-05 0)
(-0.00181411 -7.05221e-05 0)
(-0.0017979 -2.22135e-05 0)
(-0.00178117 2.53353e-05 0)
(-0.00176379 7.21885e-05 0)
(-0.00185705 -8.66677e-05 0)
(-0.00183996 -3.93375e-05 0)
(-0.00182234 7.27901e-06 0)
(-0.00180405 5.32495e-05 0)
(-0.0018987 -0.000103665 0)
(-0.0018808 -5.72904e-05 0)
(-0.00186234 -1.15886e-05 0)
(-0.0018432 3.35123e-05 0)
(-0.00193909 -0.000121447 0)
(-0.00192043 -7.60085e-05 0)
(-0.00190118 -3.1206e-05 0)
(-0.00188125 1.30351e-05 0)
(-0.00197823 -0.00013996 0)
(-0.00195886 -9.54379e-05 0)
(-0.00193887 -5.15215e-05 0)
(-0.00191819 -8.13337e-06 0)
(-0.00201615 -0.000159158 0)
(-0.00199609 -0.000115535 0)
(-0.0019754 -7.24942e-05 0)
(-0.00195401 -2.99544e-05 0)
(-0.00205286 -0.000179007 0)
(-0.00203214 -0.000136268 0)
(-0.00201078 -9.40932e-05 0)
(-0.00198871 -5.23992e-05 0)
(-0.00208837 -0.000199481 0)
(-0.00206702 -0.000157613 0)
(-0.002045 -0.000116298 0)
(-0.00202228 -7.54487e-05 0)
(-0.00212271 -0.000220566 0)
(-0.00210074 -0.000179558 0)
(-0.00207807 -0.000139097 0)
(-0.00205471 -9.90925e-05 0)
(-0.00215588 -0.000242257 0)
(-0.00213328 -0.000202099 0)
(-0.00210999 -0.000162487 0)
(-0.00208599 -0.000123329 0)
(-0.0021879 -0.000264555 0)
(-0.00216468 -0.000225241 0)
(-0.00214074 -0.000186474 0)
(-0.00211611 -0.000148163 0)
(-0.00221877 -0.00028747 0)
(-0.00219491 -0.000248992 0)
(-0.00217033 -0.000211069 0)
(-0.00214506 -0.000173606 0)
(-0.0022485 -0.000311015 0)
(-0.00222399 -0.00027337 0)
(-0.00219876 -0.000236289 0)
(-0.00217284 -0.000199675 0)
(-0.00227709 -0.000335208 0)
(-0.00225192 -0.000298394 0)
(-0.00222603 -0.000262153 0)
(-0.00219943 -0.00022639 0)
(-0.00230454 -0.00036007 0)
(-0.0022787 -0.000324085 0)
(-0.00225212 -0.000288685 0)
(-0.00222485 -0.000253773 0)
(-0.00233085 -0.000385623 0)
(-0.00230431 -0.000350468 0)
(-0.00227704 -0.000315908 0)
(-0.00224907 -0.000281848 0)
(-0.00235601 -0.000411886 0)
(-0.00232877 -0.000377564 0)
(-0.00230079 -0.000343846 0)
(-0.00227211 -0.000310638 0)
(-0.00238003 -0.000438881 0)
(-0.00235206 -0.000405394 0)
(-0.00232336 -0.000372521 0)
(-0.00229395 -0.000340164 0)
(-0.00240288 -0.000466622 0)
(-0.00237418 -0.000433977 0)
(-0.00234475 -0.00040195 0)
(-0.00231461 -0.000370445 0)
(-0.00242455 -0.000495122 0)
(-0.00239511 -0.000463325 0)
(-0.00236495 -0.000432148 0)
(-0.00233407 -0.000401495 0)
(-0.00244504 -0.000524386 0)
(-0.00241486 -0.000493447 0)
(-0.00238396 -0.000463124 0)
(-0.00235234 -0.000433325 0)
(-0.00246431 -0.000554415 0)
(-0.0024334 -0.000524345 0)
(-0.00240178 -0.000494882 0)
(-0.00236941 -0.000465937 0)
(-0.00248236 -0.000585202 0)
(-0.00245073 -0.000556012 0)
(-0.00241838 -0.000527416 0)
(-0.00238529 -0.000499329 0)
(-0.00249915 -0.00061673 0)
(-0.00246682 -0.000588436 0)
(-0.00243377 -0.000560717 0)
(-0.00239996 -0.000533491 0)
(-0.00251467 -0.000648978 0)
(-0.00248166 -0.000621595 0)
(-0.00244793 -0.000594763 0)
(-0.00241343 -0.000568405 0)
(-0.00252887 -0.000681913 0)
(-0.00249522 -0.00065546 0)
(-0.00246085 -0.000629528 0)
(-0.00242569 -0.000604045 0)
(-0.00254173 -0.000715494 0)
(-0.00250747 -0.000689992 0)
(-0.0024725 -0.000664976 0)
(-0.00243671 -0.00064038 0)
(-0.0025532 -0.000749673 0)
(-0.0025184 -0.000725144 0)
(-0.00248286 -0.000701063 0)
(-0.00244649 -0.000677368 0)
(-0.00256326 -0.000784392 0)
(-0.00252795 -0.000760864 0)
(-0.00249191 -0.000737739 0)
(-0.002455 -0.000714964 0)
(-0.00257184 -0.000819586 0)
(-0.0025361 -0.000797089 0)
(-0.0024996 -0.000774946 0)
(-0.00246221 -0.000753113 0)
(-0.00257891 -0.000855185 0)
(-0.0025428 -0.000833751 0)
(-0.0025059 -0.000812621 0)
(-0.00246807 -0.00079176 0)
(-0.00258441 -0.00089111 0)
(-0.00254799 -0.000870777 0)
(-0.00251075 -0.000850697 0)
(-0.00247256 -0.000830843 0)
(-0.00258828 -0.000927282 0)
(-0.00255162 -0.000908091 0)
(-0.0025141 -0.000889105 0)
(-0.0024756 -0.0008703 0)
(-0.00259046 -0.000963614 0)
(-0.00255362 -0.000945613 0)
(-0.00251588 -0.000927776 0)
(-0.00247712 -0.000910071 0)
(-0.00259087 -0.00100002 0)
(-0.00255391 -0.000983264 0)
(-0.002516 -0.000966643 0)
(-0.00247706 -0.000950099 0)
(-0.00258944 -0.00103641 0)
(-0.00255238 -0.00102097 0)
(-0.00251437 -0.00100565 0)
(-0.00247531 -0.000990341 0)
(-0.00258607 -0.00107273 0)
(-0.00254892 -0.00105866 0)
(-0.00251084 -0.00104472 0)
(-0.00247176 -0.00103073 0)
(-0.00258075 -0.00110898 0)
(-0.00254346 -0.00109631 0)
(-0.00250535 -0.00108379 0)
(-0.00246638 -0.00107116 0)
(-0.00257325 -0.00114564 0)
(-0.00253577 -0.00113406 0)
(-0.00249766 -0.00112264 0)
(-0.00245886 -0.00111108 0)
)
;

boundaryField
{
    plateFix
    {
        type            calculated;
        value           uniform (0 0 0);
    }
    plate
    {
        type            calculated;
        value           nonuniform List<vector> 
168
(
(-7.41395e-05 -4.23046e-05 -1.10717e-23)
(-7.86734e-05 4.49238e-05 -8.49359e-24)
(-6.43956e-05 -6.79356e-05 7.03437e-24)
(-6.95751e-05 7.21301e-05 5.35297e-23)
(-5.94158e-05 -8.74332e-05 -1.86827e-23)
(-6.56531e-05 9.3184e-05 -3.14264e-23)
(-5.99662e-05 -0.000100626 -1.37692e-23)
(-6.75637e-05 0.000107967 -1.92231e-23)
(-6.56466e-05 -0.000109487 1.60234e-25)
(-7.48399e-05 0.000118597 1.91054e-23)
(-7.52992e-05 -0.000114927 2.63773e-23)
(-8.62448e-05 0.000126074 -1.81264e-23)
(-8.8269e-05 -0.000117898 1.87917e-23)
(-0.000101074 0.000131439 -6.66636e-24)
(-0.000104028 -0.000119004 -3.56314e-23)
(-0.00011876 0.000135375 -1.03452e-23)
(-0.000122275 -0.000118729 3.08609e-24)
(-0.000138973 0.000138437 5.2528e-23)
(-0.000142814 -0.000117404 1.03765e-23)
(-0.000161493 0.000141028 -3.58151e-23)
(-0.000165549 -0.000115269 -1.59949e-23)
(-0.000186201 0.00014346 4.01939e-24)
(-0.000190442 -0.000112483 1.33273e-23)
(-0.000213036 0.000145961 -2.12827e-23)
(-0.000217507 -0.000109143 -2.17807e-24)
(-0.000241988 0.000148703 1.7591e-23)
(-0.000246798 -0.000105303 -1.20149e-23)
(-0.000273082 0.000151809 -7.0413e-25)
(-0.000278405 -0.000100981 2.51833e-23)
(-0.000306374 0.000155367 -5.56576e-26)
(-0.000312449 -9.61747e-05 -1.82467e-23)
(-0.000341947 0.000159433 -1.00817e-23)
(-0.00034908 -9.08713e-05 3.85221e-24)
(-0.000379906 0.000164046 9.67575e-24)
(-0.000388473 -8.5058e-05 -3.42797e-24)
(-0.000420375 0.000169225 -7.09958e-25)
(-0.000430827 -7.87307e-05 5.46827e-24)
(-0.000463496 0.000174972 -1.92808e-25)
(-0.000476362 -7.19009e-05 3.35838e-24)
(-0.000509425 0.000181274 4.02595e-25)
(-0.000525317 -6.46021e-05 -3.96507e-24)
(-0.000558329 0.000188092 -1.74453e-23)
(-0.000577946 -5.68924e-05 -1.17968e-23)
(-0.000610387 0.000195354 2.64171e-23)
(-0.000636668 -4.85549e-05 1.11333e-23)
(-0.00066788 0.000203231 -9.99421e-24)
(-0.00069962 -4.00779e-05 2.18289e-24)
(-0.000728859 0.000211229 1.32056e-23)
(-0.000762618 -3.21594e-05 -9.3866e-24)
(-0.000789255 0.00021858 -1.29559e-23)
(-0.000825577 -2.49188e-05 6.75322e-24)
(-0.000849025 0.000225097 8.79496e-25)
(-0.000888401 -1.84516e-05 8.30257e-26)
(-0.000908115 0.000230582 -2.54794e-24)
(-0.00095097 -1.28563e-05 -3.06489e-25)
(-0.000966449 0.000234861 4.1559e-24)
(-0.00101315 -8.22623e-06 1.28242e-24)
(-0.00102395 0.000237773 -3.82166e-24)
(-0.00107481 -4.65716e-06 8.95256e-26)
(-0.00108053 0.000239186 2.50993e-24)
(-0.00113579 -2.24324e-06 -1.61953e-24)
(-0.00113611 0.000238995 1.20915e-24)
(-0.00119595 -1.07531e-06 -5.69101e-25)
(-0.00119063 0.000237134 2.46573e-25)
(-0.00125517 -1.23513e-06 -2.25744e-24)
(-0.00124402 0.000233567 -3.77879e-24)
(-0.00131332 -2.79024e-06 3.75612e-24)
(-0.00129625 0.000228295 5.05332e-25)
(-0.0013703 -5.78883e-06 1.74145e-24)
(-0.0013473 0.000221345 5.63423e-24)
(-0.00142602 -1.02563e-05 -2.90878e-24)
(-0.00139716 0.00021277 -1.47033e-24)
(-0.00148042 -1.61939e-05 3.50822e-24)
(-0.00144583 0.00020264 -1.16069e-23)
(-0.00153345 -2.35791e-05 3.95321e-25)
(-0.00149334 0.000191037 1.14159e-23)
(-0.0015851 -3.23685e-05 -1.39709e-23)
(-0.00153969 0.000178053 -4.14259e-24)
(-0.00163534 -4.25013e-05 8.97037e-24)
(-0.00158492 0.00016378 -3.11733e-24)
(-0.00168417 -5.39041e-05 4.50041e-24)
(-0.00162903 0.000148314 3.16105e-24)
(-0.0017316 -6.64951e-05 6.59312e-24)
(-0.00167205 0.000131746 4.00215e-24)
(-0.00177765 -8.01894e-05 -1.12386e-23)
(-0.00171399 0.000114165 1.60054e-24)
(-0.00182233 -9.49023e-05 3.09666e-24)
(-0.00175487 9.56504e-05 -3.35495e-24)
(-0.00186567 -0.000110553 -2.56302e-25)
(-0.00179467 7.62779e-05 3.6934e-26)
(-0.0019077 -0.000127067 -1.77545e-24)
(-0.00183341 5.61129e-05 7.52896e-24)
(-0.00194844 -0.000144377 4.91114e-24)
(-0.00187107 3.5212e-05 -6.98371e-24)
(-0.0019879 -0.000162429 -3.28845e-24)
(-0.00190764 1.36223e-05 -8.64481e-25)
(-0.00202613 -0.000181174 -1.98235e-24)
(-0.00194313 -8.61877e-06 -2.08942e-24)
(-0.00206314 -0.000200579 5.41074e-24)
(-0.0019775 -3.14835e-05 -9.27314e-24)
(-0.00209895 -0.000220616 6.76026e-24)
(-0.00201076 -5.49533e-05 7.57171e-25)
(-0.00213357 -0.000241271 -9.83391e-24)
(-0.00204288 -7.90185e-05 4.50057e-24)
(-0.00216704 -0.000262537 6.71654e-24)
(-0.00207385 -0.000103677 1.0498e-23)
(-0.00219935 -0.000284415 -1.08559e-24)
(-0.00210366 -0.000128935 1.95883e-24)
(-0.00223053 -0.000306912 4.63882e-25)
(-0.0021323 -0.000154804 -3.393e-24)
(-0.00226057 -0.000330042 -6.3925e-24)
(-0.00215975 -0.000181299 -3.64021e-24)
(-0.00228948 -0.000353822 6.78026e-25)
(-0.00218602 -0.000208441 -7.98361e-25)
(-0.00231727 -0.000378271 -9.67323e-25)
(-0.0022111 -0.000236252 -9.60951e-25)
(-0.00234393 -0.00040341 -3.00681e-24)
(-0.00223497 -0.000264755 -6.84537e-25)
(-0.00236945 -0.000429259 5.96408e-24)
(-0.00225765 -0.000293973 4.141e-25)
(-0.00239384 -0.000455836 4.27682e-24)
(-0.00227912 -0.000323927 4.23108e-24)
(-0.00241706 -0.000483157 -6.3594e-24)
(-0.0022994 -0.000354636 -3.10158e-24)
(-0.00243912 -0.000511232 1.77149e-24)
(-0.00231848 -0.000386114 3.9589e-24)
(-0.00245999 -0.000540066 1.89885e-24)
(-0.00233636 -0.000418371 -2.61059e-24)
(-0.00247965 -0.00056966 1.81506e-24)
(-0.00235305 -0.000451411 1.08294e-24)
(-0.00249807 -0.000600003 3.47103e-24)
(-0.00236854 -0.000485232 -5.55899e-24)
(-0.00251523 -0.000631081 3.90758e-25)
(-0.00238284 -0.000519824 -7.07998e-25)
(-0.0025311 -0.000662868 -2.52492e-24)
(-0.00239595 -0.00055517 1.92778e-24)
(-0.00254563 -0.000695333 -9.49059e-24)
(-0.00240786 -0.000591246 1.04725e-24)
(-0.00255881 -0.000728432 3.74292e-24)
(-0.00241855 -0.000628021 2.6087e-24)
(-0.00257057 -0.000762116 2.87097e-24)
(-0.00242802 -0.000665457 4.34233e-25)
(-0.00258088 -0.000796326 -1.61507e-24)
(-0.00243624 -0.000703509 2.80848e-24)
(-0.00258969 -0.000830996 -3.70549e-25)
(-0.00244319 -0.000742126 7.84652e-25)
(-0.00259695 -0.000866053 -1.29027e-24)
(-0.00244884 -0.000781255 -4.55438e-24)
(-0.00260259 -0.000901418 4.4356e-24)
(-0.00245312 -0.000820837 -4.67435e-25)
(-0.00260657 -0.000937008 -6.51401e-25)
(-0.002456 -0.000860814 1.02052e-24)
(-0.00260881 -0.000972735 -4.0071e-24)
(-0.00245739 -0.000901132 -1.12236e-24)
(-0.00260924 -0.00100851 8.38037e-24)
(-0.00245721 -0.000941735 6.88761e-24)
(-0.00260779 -0.00104425 -8.84988e-24)
(-0.00245539 -0.000982587 -1.02514e-23)
(-0.00260439 -0.00107989 6.87357e-24)
(-0.0024518 -0.00102361 1.16419e-23)
(-0.00259918 -0.0011154 -1.08588e-23)
(-0.00244655 -0.00106475 1.18917e-23)
(-0.00259209 -0.00115142 -2.23298e-24)
(-0.00256875 -0.00116457 5.73538e-24)
(-0.00253125 -0.001153 1.95525e-23)
(-0.00249313 -0.00114188 1.93045e-23)
(-0.00245436 -0.00113038 -4.65294e-23)
(-0.00243952 -0.00110531 -1.78101e-23)
)
;
    }
    frontAndBackPlanes
    {
        type            empty;
    }
}


// ************************************************************************* //
