/*--------------------------------*- C++ -*----------------------------------*\
| =========                 |                                                 |
| \\      /  F ield         | OpenFOAM Extend Project: Open source CFD        |
|  \\    /   O peration     | Version:  1.6-ext                               |
|   \\  /    A nd           | Web:      www.extend-project.de                 |
|    \\/     M anipulation  |                                                 |
\*---------------------------------------------------------------------------*/
FoamFile
{
    version     2.0;
    format      ascii;
    class       volScalarField;
    location    "2.1";
    object      p;
}
// * * * * * * * * * * * * * * * * * * * * * * * * * * * * * * * * * * * * * //

dimensions      [0 2 -2 0 0 0 0];

internalField   nonuniform List<scalar> 
70
(
-0.103121
-0.0580765
-0.0184929
0.0156978
0.0372222
0.0481694
0.0518473
-0.0919143
-0.0829286
-0.0738898
-0.059999
-0.0423258
-0.0252846
-0.0123009
-0.00409979
-0.00105482
-0.0649465
-0.063757
-0.0578605
-0.0468323
-0.0326348
-0.019126
-0.00919011
-0.00309341
-0.00156098
-0.031131
-0.0351576
-0.033865
-0.0282091
-0.0199669
-0.0118375
-0.00591937
-0.00225392
-0.00195184
0.00030212
-0.00846709
-0.0121274
-0.0118838
-0.00931083
-0.00612157
-0.00366176
-0.00191838
-0.00221029
0.0209289
0.00973832
0.00272254
-0.00103856
-0.00258024
-0.00285935
-0.00265135
-0.00203019
-0.00229888
0.0320708
0.0193899
0.0101572
0.00391044
4.16127e-05
-0.00200678
-0.00274791
-0.00247548
-0.00226439
0.0345423
0.0201831
0.00928416
0.00180361
-0.00265305
-0.00469214
-0.00500111
-0.00415478
-0.00283893
)
;

boundaryField
{
    inlet
    {
        type            zeroGradient;
    }
    outlet
    {
        type            totalPressure;
        rho             none;
        psi             none;
        gamma           1;
        p0              uniform 0;
        value           uniform 0;
    }
    fixedWalls
    {
        type            zeroGradient;
    }
    frontAndBack
    {
        type            empty;
    }
    procBoundary1to2
    {
        type            processor;
        value           nonuniform List<scalar> 7(-0.135016 -0.0356546 0.0109043 0.0408997 0.0582903 0.0666458 0.0706268);
    }
    procBoundary1to0
    {
        type            processor;
        value           nonuniform List<scalar> 9(-0.099153 -0.0813114 -0.0740009 -0.0614061 -0.0443989 -0.0272606 -0.0135769 -0.00454625 -0.000318751);
    }
}


// ************************************************************************* //
