/*--------------------------------*- C++ -*----------------------------------*\
| =========                 |                                                 |
| \\      /  F ield         | OpenFOAM Extend Project: Open source CFD        |
|  \\    /   O peration     | Version:  1.6-ext                               |
|   \\  /    A nd           | Web:      www.extend-project.de                 |
|    \\/     M anipulation  |                                                 |
\*---------------------------------------------------------------------------*/
FoamFile
{
    version     2.0;
    format      ascii;
    class       volVectorField;
    location    "2.1";
    object      U;
}
// * * * * * * * * * * * * * * * * * * * * * * * * * * * * * * * * * * * * * //

dimensions      [0 1 -1 0 0 0 0];

internalField   nonuniform List<vector> 
70
(
(0.201437 0.0375894 0)
(0.507345 0.0619076 0)
(0.59253 0.0728807 0)
(0.576033 0.0497703 0)
(0.517764 0.0240018 0)
(0.40639 0.00398599 0)
(0.190517 -0.002524 0)
(0.216404 -0.0208206 0)
(0.251663 -0.0588614 0)
(0.292651 -0.110983 0)
(0.320637 -0.161793 0)
(0.332809 -0.195735 0)
(0.333529 -0.205677 0)
(0.32683 -0.193112 0)
(0.319984 -0.16735 0)
(0.30717 -0.128748 0)
(0.484689 -0.00938494 0)
(0.476625 -0.0654853 0)
(0.476039 -0.117505 0)
(0.469838 -0.160777 0)
(0.452912 -0.186229 0)
(0.428336 -0.189905 0)
(0.399572 -0.174552 0)
(0.375546 -0.149425 0)
(0.344924 -0.114372 0)
(0.590201 0.00491867 0)
(0.580983 -0.0524846 0)
(0.567304 -0.101266 0)
(0.54486 -0.13772 0)
(0.51226 -0.156228 0)
(0.473719 -0.155643 0)
(0.432901 -0.140188 0)
(0.399459 -0.11823 0)
(0.359023 -0.0905358 0)
(0.58918 -0.00165374 0)
(0.587145 -0.046401 0)
(0.572357 -0.083142 0)
(0.545146 -0.108385 0)
(0.507258 -0.118588 0)
(0.464039 -0.114187 0)
(0.419849 -0.0998613 0)
(0.383799 -0.0821483 0)
(0.341803 -0.0631313 0)
(0.532619 -0.00939222 0)
(0.530259 -0.038906 0)
(0.512761 -0.0616752 0)
(0.48201 -0.0749337 0)
(0.441811 -0.0772956 0)
(0.39837 -0.0705004 0)
(0.356548 -0.0589031 0)
(0.323069 -0.0467088 0)
(0.28654 -0.0365796 0)
(0.412828 -0.0126426 0)
(0.40341 -0.0259956 0)
(0.380292 -0.0343439 0)
(0.347172 -0.0369128 0)
(0.309337 -0.0343286 0)
(0.272451 -0.0286161 0)
(0.240123 -0.0223454 0)
(0.215132 -0.0171291 0)
(0.189726 -0.0148256 0)
(0.186651 -0.00622093 0)
(0.173851 -0.00830841 0)
(0.155089 -0.00864164 0)
(0.133844 -0.00763525 0)
(0.113377 -0.00597132 0)
(0.0959173 -0.00429602 0)
(0.082181 -0.00307766 0)
(0.0718509 -0.00248318 0)
(0.060725 -0.00299116 0)
)
;

boundaryField
{
    inlet
    {
        type            fixedValue;
        value           nonuniform 0();
    }
    outlet
    {
        type            zeroGradient;
    }
    fixedWalls
    {
        type            fixedValue;
        value           uniform (0 0 0);
    }
    frontAndBack
    {
        type            empty;
    }
    procBoundary1to2
    {
        type            processor;
        value           nonuniform List<vector> 7((0.359243 0.161011 0) (0.542975 0.162861 0) (0.570742 0.148795 0) (0.538952 0.101865 0) (0.483469 0.0563374 0) (0.383966 0.0202887 0) (0.183946 0.00181233 0));
    }
    procBoundary1to0
    {
        type            processor;
        value           nonuniform List<vector> 9((0.0369893 0.0321587 0) (0.0730553 0.00325748 0) (0.129654 -0.0630764 0) (0.172544 -0.129757 0) (0.203526 -0.176617 0) (0.225443 -0.195806 0) (0.240219 -0.189291 0) (0.251447 -0.166325 0) (0.258444 -0.129575 0));
    }
}


// ************************************************************************* //
