/*--------------------------------*- C++ -*----------------------------------*\
| =========                 |                                                 |
| \\      /  F ield         | OpenFOAM Extend Project: Open source CFD        |
|  \\    /   O peration     | Version:  1.6-ext                               |
|   \\  /    A nd           | Web:      www.extend-project.de                 |
|    \\/     M anipulation  |                                                 |
\*---------------------------------------------------------------------------*/
FoamFile
{
    version     2.0;
    format      ascii;
    class       volScalarField;
    location    "1.5";
    object      p;
}
// * * * * * * * * * * * * * * * * * * * * * * * * * * * * * * * * * * * * * //

dimensions      [0 2 -2 0 0 0 0];

internalField   nonuniform List<scalar> 
284
(
0.245916
0.214458
0.202983
0.198016
0.196066
0.195896
0.196577
0.197694
0.199966
0.216703
0.207795
0.202364
0.199776
0.198799
0.19885
0.199406
0.200204
0.202656
0.20495
0.201496
0.198845
0.197586
0.197455
0.19806
0.198924
0.199803
0.20283
0.195722
0.194605
0.193474
0.193121
0.193562
0.194499
0.195506
0.196349
0.199802
0.188223
0.187864
0.187358
0.187223
0.187551
0.188138
0.188588
0.18864
0.191841
0.181506
0.18134
0.180889
0.180383
0.179871
0.179198
0.177934
0.175633
0.176562
0.175216
0.175031
0.174301
0.173003
0.17102
0.168073
0.163403
0.155543
0.149198
0.169387
0.169093
0.167888
0.165522
0.161613
0.155602
0.146061
0.131249
0.0873645
0.164259
0.163815
0.162029
0.158457
0.152252
0.141922
0.12194
0.0839776
-0.00835388
0.160182
0.159537
0.157141
0.152553
0.144881
0.13277
0.112321
0.0808365
0.0288616
0.157591
0.156536
0.153406
0.148027
0.139859
0.128068
0.110921
0.0868102
0.0546951
0.156856
0.154975
0.150704
0.144489
0.136165
0.125111
0.110525
0.0908584
0.0675669
0.159647
0.155182
0.148877
0.141571
0.133101
0.122793
0.110084
0.0936337
0.075007
0.16612
0.156321
0.147399
0.13916
0.130795
0.121267
0.10988
0.0955605
0.0792586
0.194496
0.162659
0.148367
0.139272
0.131205
0.122422
0.111785
0.0982402
0.0824316
-0.139849
-0.111966
-0.0400077
-0.0637443
0.00630516
-0.0221934
0.0357722
0.0117699
0.0527186
0.0327067
0.0610103
0.043399
0.064761
0.0467386
-0.101685
-0.0882211
-0.0687544
-0.0452996
-0.0246651
-0.0105043
-0.00283839
0.000355761
0.000252086
-0.0708435
-0.0655112
-0.0510875
-0.0329931
-0.0172877
-0.00680794
-0.00142336
0.000596658
-0.000184908
-0.0334023
-0.0340923
-0.0278024
-0.0181813
-0.00930654
-0.00331829
-0.000392711
0.000538574
-0.000594888
-0.00200251
-0.00827542
-0.00895248
-0.00645258
-0.0033175
-0.00104848
-5.24036e-05
0.000148058
-0.000945686
0.01799
0.00855939
0.00331005
0.000938512
9.74446e-05
-0.000172725
-0.000373098
-0.00048092
-0.00119182
0.0285609
0.0172008
0.00920799
0.00407801
0.00109354
-0.000439505
-0.00108995
-0.00116166
-0.0012949
0.0306249
0.0175843
0.00808316
0.00199158
-0.00132462
-0.00271505
-0.00294512
-0.00250868
-0.00172505
-0.0226521
-0.0216651
-0.0183001
-0.0138258
-0.00846633
-0.00457588
-0.00163433
0.000252309
0.00130974
-0.0237166
-0.0229938
-0.0199633
-0.0152563
-0.0103464
-0.00608568
-0.00281499
-0.00059064
0.000996227
-0.0269538
-0.0261696
-0.0226308
-0.0171857
-0.0116491
-0.00678185
-0.00309783
-0.000658586
0.00110936
-0.0325844
-0.0316486
-0.0272972
-0.020338
-0.0135418
-0.00764223
-0.00331086
-0.000592446
0.00123893
-0.0417223
-0.0401024
-0.0345703
-0.0253326
-0.0163775
-0.00882961
-0.00353473
-0.000444282
0.00131974
-0.056037
-0.0527642
-0.0448613
-0.0325406
-0.0202385
-0.0103313
-0.00377006
-0.000245984
0.00129549
-0.0740136
-0.0667289
-0.0569118
-0.0406912
-0.0243706
-0.0117662
-0.0039274
-5.96957e-05
0.0010999
-0.110302
-0.0873378
-0.0691331
-0.0472916
-0.0269363
-0.0122262
-0.00373808
0.000109783
0.000721084
)
;

boundaryField
{
    inlet
    {
        type            zeroGradient;
    }
    outlet
    {
        type            totalPressure;
        rho             none;
        psi             none;
        gamma           1;
        p0              uniform 0;
        value           uniform 0;
    }
    fixedWalls
    {
        type            zeroGradient;
    }
    frontAndBack
    {
        type            empty;
    }
}


// ************************************************************************* //
