/*--------------------------------*- C++ -*----------------------------------*\
| =========                 |                                                 |
| \\      /  F ield         | OpenFOAM Extend Project: Open source CFD        |
|  \\    /   O peration     | Version:  1.6-ext                               |
|   \\  /    A nd           | Web:      www.extend-project.de                 |
|    \\/     M anipulation  |                                                 |
\*---------------------------------------------------------------------------*/
FoamFile
{
    version     2.0;
    format      ascii;
    class       surfaceScalarField;
    location    "1.5";
    object      phi;
}
// * * * * * * * * * * * * * * * * * * * * * * * * * * * * * * * * * * * * * //

dimensions      [0 3 -1 0 0 0 0];

internalField   nonuniform List<scalar> 
525
(
0.000161032
3.89684e-05
0.000117939
4.30924e-05
8.35011e-05
3.44381e-05
5.79084e-05
2.55927e-05
3.90858e-05
1.88226e-05
2.42589e-05
1.4827e-05
1.17144e-05
1.25445e-05
2.33663e-06
9.37777e-06
2.33663e-06
0.000205238
3.37302e-05
0.000191359
5.69716e-05
0.00016472
6.10775e-05
0.000133275
5.70369e-05
0.000101102
5.09963e-05
6.95968e-05
4.63318e-05
3.93148e-05
4.28265e-05
1.31969e-05
3.54957e-05
1.55335e-05
0.000208855
2.48748e-05
0.000208265
5.75622e-05
0.000194109
7.52332e-05
0.000168776
8.23699e-05
0.000136059
8.37136e-05
9.88321e-05
8.35585e-05
5.92214e-05
8.24371e-05
2.187e-05
7.28471e-05
3.74035e-05
0.00020518
1.96945e-05
0.000207622
5.51208e-05
0.000200166
8.26886e-05
0.000181398
0.000101139
0.000152668
0.000112443
0.000115844
0.000120383
7.27508e-05
0.00012553
2.84836e-05
0.000117114
6.58871e-05
0.000202511
1.71831e-05
0.000204554
5.30779e-05
0.000200309
8.69338e-05
0.00018674
0.000114708
0.000163143
0.00013604
0.000129606
0.000153919
8.62189e-05
0.000168917
3.65162e-05
0.000166817
0.000102403
0.00020143
1.57535e-05
0.000203417
5.10909e-05
0.000201828
8.85227e-05
0.000193313
0.000123223
0.000175864
0.000153488
0.000147821
0.000181963
0.0001066
0.000210138
5.12086e-05
0.000222209
0.000153612
0.000201401
1.43522e-05
0.000204582
4.791e-05
0.000206606
8.64988e-05
0.000204329
0.0001255
0.000195192
0.000162625
0.000176658
0.000200497
0.000142524
0.000244272
8.23259e-05
0.000282407
0.000235938
0.000201961
1.2391e-05
0.000207411
4.24603e-05
0.000214266
7.9644e-05
0.000219853
0.000119913
0.000221589
0.000160889
0.000216574
0.000205512
0.000194799
0.000266047
0.000134065
0.000343141
0.000370003
0.000202836
9.55472e-06
0.000211164
3.41329e-05
0.000223532
6.72757e-05
0.000238206
0.000105239
0.000254786
0.000144309
0.000276027
0.000184271
0.000311112
0.000230961
0.000378197
0.000276057
0.000339234
0.000408966
0.000204009
5.54586e-06
0.00021539
2.27518e-05
0.000232746
4.99193e-05
0.000254854
8.31316e-05
0.000282201
0.000116962
0.000317911
0.000148561
0.000366671
0.000182201
0.00044509
0.000197638
0.000254455
0.000529869
0.000205905
-3.59099e-07
0.000220426
8.23029e-06
0.00024134
2.90059e-05
0.000267514
5.69578e-05
0.000299137
8.53385e-05
0.000337962
0.000109737
0.000386248
0.000133915
0.000447904
0.000135981
0.000163403
0.000538956
0.000209083
-9.44223e-06
0.000226788
-9.4748e-06
0.000249078
6.7165e-06
0.000275776
3.02595e-05
0.000307323
5.3791e-05
0.000344643
7.24171e-05
0.000389844
8.87143e-05
0.000438606
8.72184e-05
9.44124e-05
0.000507597
0.000213997
-2.34395e-05
0.000231349
-2.68261e-05
0.000250088
-1.20231e-05
0.000272552
7.79584e-06
0.000300241
2.61022e-05
0.000333433
3.92246e-05
0.000373361
4.87862e-05
0.000413234
4.73459e-05
4.65172e-05
0.000461129
0.000211185
-3.46243e-05
0.000215937
-3.15779e-05
0.000221113
-1.71995e-05
0.000232402
-3.49298e-06
0.000251732
6.77206e-06
0.000277794
1.31629e-05
0.000309624
1.69557e-05
0.000340918
1.6052e-05
1.43978e-05
0.000373038
0.000165376
0.000133798
0.000116598
0.000113105
0.000119877
0.00013304
0.000149996
0.000166048
0.000180446
0.00027069
0.000138276
3.63339e-05
0.000234356
0.000520882
0.000147262
5.19021e-05
0.000505314
0.000575383
0.000110836
4.48117e-05
0.000582473
0.000550475
6.79576e-05
2.63412e-05
0.000568946
0.000497025
3.2061e-05
8.11873e-06
0.000515248
0.000396675
8.42331e-06
-1.37412e-06
0.000406168
0.000188869
0.000187495
0.000260188
-4.06262e-05
1.47942e-05
0.000292555
-0.000111397
7.90299e-05
0.000311886
-0.000172235
0.000152905
0.000316562
-0.000204415
0.000199739
0.000311391
-0.000204007
0.000209178
0.000301868
-0.00018073
0.000190253
0.000292072
-0.000147469
0.000157265
0.000284375
-0.000114199
0.000121896
-8.07072e-05
8.58097e-05
0.000491057
-2.63692e-05
0.000477162
-9.75015e-05
0.000455208
-0.000150282
0.000425189
-0.000174396
0.000392228
-0.000171047
0.000361677
-0.000150178
0.000336574
-0.000122366
0.00031779
-9.54153e-05
-6.84099e-05
0.000573894
-1.77904e-05
0.000551228
-7.48355e-05
0.000516112
-0.000115165
0.000473831
-0.000132116
0.000430972
-0.000128187
0.000392527
-0.000111733
0.000361012
-9.08512e-05
0.000336781
-7.11842e-05
-5.20478e-05
0.000568384
-1.72288e-05
0.000549308
-5.57598e-05
0.000515747
-8.16039e-05
0.000474251
-9.06191e-05
0.000431703
-8.56392e-05
0.000393046
-7.3076e-05
0.000360834
-5.86399e-05
0.00033543
-4.57801e-05
-3.44012e-05
0.000514991
-1.69717e-05
0.000497267
-3.80356e-05
0.000465774
-5.01113e-05
0.000427223
-5.2068e-05
0.000388278
-4.66937e-05
0.000353379
-3.81778e-05
0.000324517
-2.97776e-05
0.000301722
-2.29852e-05
-1.82137e-05
0.000399799
-1.06024e-05
0.000378952
-1.71884e-05
0.000348483
-1.96426e-05
0.000314805
-1.839e-05
0.00028321
-1.50982e-05
0.000256496
-1.14639e-05
0.000235248
-8.5301e-06
0.000218846
-6.58344e-06
-6.11015e-06
0.000176892
0.000159704
0.000140061
0.000121671
0.000106573
9.51092e-05
8.65791e-05
7.99957e-05
-4.58708e-06
4.58708e-06
-7.71056e-06
3.12348e-06
-5.97525e-06
-1.73531e-06
-3.20284e-08
-5.94322e-06
8.07898e-06
-8.11101e-06
1.67873e-05
-8.7083e-06
2.48943e-05
-8.10706e-06
3.1841e-05
-6.9467e-06
-6.17902e-06
-5.08192e-06
9.66899e-06
-6.10484e-06
4.1464e-06
1.2623e-06
-9.10245e-06
1.55007e-05
-2.01816e-05
3.33213e-05
-2.59317e-05
5.15336e-05
-2.69206e-05
6.80167e-05
-2.45901e-05
8.15398e-05
-2.04698e-05
-1.65183e-05
-6.186e-06
1.5855e-05
-6.56136e-06
4.52175e-06
4.23818e-06
-1.9902e-05
2.41597e-05
-4.01031e-05
4.83204e-05
-5.00924e-05
7.25361e-05
-5.11363e-05
9.40891e-05
-4.61431e-05
0.000111523
-3.79042e-05
-2.93373e-05
-9.51392e-06
2.53689e-05
-1.12314e-05
6.23925e-06
1.89582e-06
-3.30292e-05
2.65341e-05
-6.47414e-05
5.61673e-05
-7.97256e-05
8.52667e-05
-8.02357e-05
0.000110558
-7.14348e-05
0.000130635
-5.79807e-05
-4.36707e-05
-1.35865e-05
3.89554e-05
-1.51383e-05
7.79106e-06
1.61109e-06
-4.97786e-05
3.14611e-05
-9.45914e-05
6.63626e-05
-0.000114627
9.95452e-05
-0.000113418
0.000127438
-9.93275e-05
0.00014901
-7.95526e-05
-5.85344e-05
-1.27018e-05
5.16572e-05
-8.05472e-06
3.14397e-06
1.64875e-05
-7.43208e-05
5.19686e-05
-0.000130072
8.99587e-05
-0.000152617
0.000124253
-0.000147712
0.000151906
-0.000126981
0.000172696
-0.000100342
-7.23294e-05
5.3805e-06
4.62767e-05
3.12866e-05
-2.27622e-05
6.60116e-05
-0.000109046
0.000103414
-0.000167474
0.000138108
-0.000187311
0.000166793
-0.000176398
0.000188535
-0.000148723
0.000204376
-0.000116183
-8.24413e-05
6.10709e-05
0.000117339
0.000161198
0.000193462
0.000215329
0.000229185
0.000237726
0.000243439
)
;

boundaryField
{
    inlet
    {
        type            calculated;
        value           uniform -0.0002;
    }
    outlet
    {
        type            calculated;
        value           nonuniform List<scalar> 
15
(
3.80201e-05
9.18791e-05
0.000124343
0.000144968
0.000163873
0.000186491
0.000214488
0.000246808
0.000279273
0.000305493
0.000320419
0.000317784
0.000285535
0.000206743
7.38855e-05
)
;
    }
    fixedWalls
    {
        type            calculated;
        value           uniform 0;
    }
    frontAndBack
    {
        type            empty;
    }
}


// ************************************************************************* //
