/*--------------------------------*- C++ -*----------------------------------*\
| =========                 |                                                 |
| \\      /  F ield         | OpenFOAM Extend Project: Open source CFD        |
|  \\    /   O peration     | Version:  1.6-ext                               |
|   \\  /    A nd           | Web:      www.extend-project.de                 |
|    \\/     M anipulation  |                                                 |
\*---------------------------------------------------------------------------*/
FoamFile
{
    version     2.0;
    format      ascii;
    class       volVectorField;
    location    "1.5";
    object      U;
}
// * * * * * * * * * * * * * * * * * * * * * * * * * * * * * * * * * * * * * //

dimensions      [0 1 -1 0 0 0 0];

internalField   nonuniform List<vector> 
284
(
(0.163788 0.0265363 0)
(0.142196 0.026536 0)
(0.100127 0.0187274 0)
(0.0691484 0.0116211 0)
(0.0475983 0.00687197 0)
(0.0312495 0.00437556 0)
(0.0175829 0.00313964 0)
(0.0054104 0.00176392 0)
(-0.00016067 -0.000815174 0)
(0.200636 0.0430501 0)
(0.202589 0.056609 0)
(0.180901 0.0514826 0)
(0.149836 0.0417433 0)
(0.117327 0.0329131 0)
(0.0854178 0.0272005 0)
(0.0540711 0.023658 0)
(0.0234804 0.0183994 0)
(0.00429901 0.00621173 0)
(0.203152 0.0285182 0)
(0.211295 0.058228 0)
(0.20465 0.0697685 0)
(0.183929 0.0710335 0)
(0.154005 0.0678839 0)
(0.118592 0.0645959 0)
(0.0793529 0.0615259 0)
(0.0374983 0.0525781 0)
(0.00818131 0.0252478 0)
(0.201583 0.0217272 0)
(0.20772 0.0561875 0)
(0.206727 0.079673 0)
(0.193651 0.0928698 0)
(0.169408 0.0990587 0)
(0.136341 0.10249 0)
(0.0956071 0.103861 0)
(0.047868 0.0941369 0)
(0.0114618 0.0506258 0)
(0.200619 0.0182035 0)
(0.204126 0.0539745 0)
(0.204476 0.0852722 0)
(0.196102 0.108875 0)
(0.17753 0.125331 0)
(0.149134 0.138013 0)
(0.110364 0.147447 0)
(0.0595416 0.141104 0)
(0.0161623 0.0827304 0)
(0.200274 0.0164002 0)
(0.202638 0.0521716 0)
(0.204001 0.0883159 0)
(0.19965 0.120084 0)
(0.187078 0.146203 0)
(0.165083 0.169406 0)
(0.131046 0.190608 0)
(0.079088 0.194302 0)
(0.0256219 0.12508 0)
(0.200237 0.0150774 0)
(0.202868 0.0498192 0)
(0.206387 0.0883791 0)
(0.206991 0.125851 0)
(0.201909 0.160081 0)
(0.189287 0.193609 0)
(0.165515 0.22852 0)
(0.115979 0.24727 0)
(0.0456869 0.19195 0)
(0.200338 0.0134553 0)
(0.204143 0.0456781 0)
(0.211021 0.0841798 0)
(0.217954 0.12455 0)
(0.222287 0.164477 0)
(0.222377 0.207238 0)
(0.212324 0.263701 0)
(0.189129 0.329198 0)
(0.0597058 0.279974 0)
(0.200509 0.0111032 0)
(0.205986 0.0388838 0)
(0.2169 0.0746414 0)
(0.231104 0.114462 0)
(0.246785 0.155398 0)
(0.26752 0.199197 0)
(0.290954 0.256078 0)
(0.349696 0.329358 0)
(0.395627 0.412149 0)
(0.200768 0.00775706 0)
(0.208259 0.0290949 0)
(0.223082 0.0596919 0)
(0.243401 0.0957475 0)
(0.267665 0.132793 0)
(0.300398 0.169418 0)
(0.338065 0.210956 0)
(0.403081 0.239871 0)
(0.483675 0.30945 0)
(0.201283 0.00313689 0)
(0.211473 0.0162428 0)
(0.229657 0.0402945 0)
(0.253658 0.0709457 0)
(0.282233 0.102168 0)
(0.317853 0.130079 0)
(0.359811 0.158635 0)
(0.413636 0.162524 0)
(0.489645 0.200369 0)
(0.202302 -0.00402022 0)
(0.216331 -2.11576e-05 0)
(0.236832 0.017906 0)
(0.261585 0.0433955 0)
(0.290639 0.069258 0)
(0.324854 0.0905149 0)
(0.366124 0.110256 0)
(0.41173 0.10866 0)
(0.470229 0.121148 0)
(0.204045 -0.0149656 0)
(0.221786 -0.0184634 0)
(0.240059 -0.00413354 0)
(0.260416 0.0173347 0)
(0.285468 0.0383104 0)
(0.315589 0.0542821 0)
(0.352694 0.0669456 0)
(0.392115 0.0654139 0)
(0.435988 0.0658614 0)
(0.201605 -0.0358861 0)
(0.214192 -0.0371057 0)
(0.218025 -0.0208108 0)
(0.225279 -0.0025177 0)
(0.240692 0.0127224 0)
(0.263463 0.0228854 0)
(0.293202 0.0292902 0)
(0.324781 0.0281119 0)
(0.356982 0.025749 0)
(0.164497 -0.0250907 0)
(0.150418 -0.0224338 0)
(0.123532 -0.0122124 0)
(0.112525 -0.0038737 0)
(0.115064 0.00172002 0)
(0.125625 0.00476204 0)
(0.141288 0.00611485 0)
(0.157995 0.00531537 0)
(0.173718 0.00397994 0)
(0.367186 0.1569 0)
(0.216827 0.0334736 0)
(0.544823 0.149224 0)
(0.515302 0.0483663 0)
(0.56602 0.131566 0)
(0.587331 0.0562444 0)
(0.532455 0.0869153 0)
(0.56586 0.0359669 0)
(0.480675 0.046475 0)
(0.510198 0.0152444 0)
(0.386471 0.0156688 0)
(0.404606 8.02894e-05 0)
(0.185924 0.000755731 0)
(0.189969 -0.00333204 0)
(0.2405 -0.0437997 0)
(0.279534 -0.109896 0)
(0.309813 -0.173594 0)
(0.319599 -0.210656 0)
(0.315427 -0.213713 0)
(0.305926 -0.191349 0)
(0.295486 -0.156926 0)
(0.287417 -0.12143 0)
(0.278938 -0.0854704 0)
(0.498333 -0.0323873 0)
(0.488829 -0.105354 0)
(0.472311 -0.163406 0)
(0.443379 -0.19239 0)
(0.40828 -0.190733 0)
(0.374902 -0.168365 0)
(0.346533 -0.137332 0)
(0.325984 -0.106777 0)
(0.306443 -0.0759612 0)
(0.583938 -0.0166224 0)
(0.568435 -0.0828832 0)
(0.538874 -0.131122 0)
(0.497253 -0.152599 0)
(0.451689 -0.149514 0)
(0.409723 -0.131242 0)
(0.374127 -0.107157 0)
(0.347903 -0.0840122 0)
(0.32218 -0.0608736 0)
(0.57478 -0.0170875 0)
(0.564687 -0.0648126 0)
(0.537106 -0.0977998 0)
(0.497068 -0.110734 0)
(0.45263 -0.10637 0)
(0.410842 -0.0920237 0)
(0.374673 -0.0745344 0)
(0.347436 -0.0584245 0)
(0.319985 -0.0432634 0)
(0.520305 -0.0184523 0)
(0.511166 -0.0476578 0)
(0.485128 -0.0658559 0)
(0.447999 -0.0707009 0)
(0.407404 -0.0651187 0)
(0.369563 -0.0544055 0)
(0.337124 -0.0430192 0)
(0.312549 -0.033333 0)
(0.287831 -0.0255968 0)
(0.406918 -0.0161059 0)
(0.392859 -0.0282959 0)
(0.365808 -0.0337204 0)
(0.332111 -0.0325797 0)
(0.298316 -0.0274443 0)
(0.268699 -0.0212583 0)
(0.244585 -0.0159643 0)
(0.226503 -0.0121747 0)
(0.208801 -0.0104913 0)
(0.183943 -0.00673292 0)
(0.169437 -0.00832263 0)
(0.150223 -0.00796719 0)
(0.130576 -0.00638199 0)
(0.11354 -0.00450714 0)
(0.100246 -0.0029753 0)
(0.0903655 -0.00203292 0)
(0.0830157 -0.00165915 0)
(0.0753904 -0.00208515 0)
(-0.00257798 0.00239266 0)
(-0.00702523 0.00212461 0)
(-0.00788038 0.000217383 0)
(-0.00373074 -0.00150954 0)
(0.00375161 -0.00242534 0)
(0.0125384 -0.00276887 0)
(0.0210292 -0.00266058 0)
(0.028581 -0.00239533 0)
(0.0365398 -0.00241081 0)
(-0.00322573 0.00714708 0)
(-0.00744234 0.00426053 0)
(-0.00441353 -0.00392294 0)
(0.00728888 -0.0108987 0)
(0.0242246 -0.0145854 0)
(0.0427445 -0.0154611 0)
(0.060296 -0.0142951 0)
(0.0753449 -0.0120951 0)
(0.0897909 -0.0103055 0)
(-0.00407004 0.0123815 0)
(-0.00892883 0.00422592 0)
(-0.00377553 -0.0137431 0)
(0.0128496 -0.0287975 0)
(0.0360829 -0.0365169 0)
(0.0609224 -0.0376793 0)
(0.0840871 -0.0342832 0)
(0.103539 -0.0283757 0)
(0.121907 -0.0224074 0)
(-0.00611575 0.0199475 0)
(-0.0137841 0.00501749 0)
(-0.00810297 -0.0255227 0)
(0.0124566 -0.0509413 0)
(0.0412937 -0.0634385 0)
(0.0714445 -0.0645076 0)
(0.0989422 -0.0579649 0)
(0.121472 -0.0474015 0)
(0.142309 -0.0362199 0)
(-0.00895388 0.0317982 0)
(-0.0191063 0.00789855 0)
(-0.0108073 -0.0399973 0)
(0.0146607 -0.0781953 0)
(0.0491562 -0.0959781 0)
(0.0839899 -0.0960106 0)
(0.114772 -0.084915 0)
(0.139241 -0.068527 0)
(0.161106 -0.0510687 0)
(-0.00958802 0.0449453 0)
(-0.0166206 0.00680447 0)
(0.00105146 -0.0607443 0)
(0.0335843 -0.111966 0)
(0.0718387 -0.133895 0)
(0.10839 -0.131108 0)
(0.139425 -0.113762 0)
(0.163326 -0.0904819 0)
(0.183785 -0.0659184 0)
(-0.000185184 0.0634738 0)
(0.0120322 0.000112165 0)
(0.04891 -0.0892308 0)
(0.0867139 -0.150302 0)
(0.122571 -0.172891 0)
(0.153708 -0.165013 0)
(0.178622 -0.140338 0)
(0.19715 -0.110135 0)
(0.212132 -0.0787018 0)
(0.0441934 0.0181089 0)
(0.0860035 -0.0509976 0)
(0.143906 -0.13556 0)
(0.182634 -0.189665 0)
(0.206937 -0.2044 0)
(0.222947 -0.188774 0)
(0.233426 -0.157353 0)
(0.240567 -0.122262 0)
(0.245227 -0.0862542 0)
)
;

boundaryField
{
    inlet
    {
        type            fixedValue;
        value           uniform (0.2 0 0);
    }
    outlet
    {
        type            zeroGradient;
    }
    fixedWalls
    {
        type            fixedValue;
        value           uniform (0 0 0);
    }
    frontAndBack
    {
        type            empty;
    }
}


// ************************************************************************* //
