/*--------------------------------*- C++ -*----------------------------------*\
| =========                 |                                                 |
| \\      /  F ield         | OpenFOAM Extend Project: Open source CFD        |
|  \\    /   O peration     | Version:  1.6-ext                               |
|   \\  /    A nd           | Web:      www.extend-project.de                 |
|    \\/     M anipulation  |                                                 |
\*---------------------------------------------------------------------------*/
FoamFile
{
    version     2.0;
    format      ascii;
    class       volScalarField;
    location    "4.7";
    object      p;
}
// * * * * * * * * * * * * * * * * * * * * * * * * * * * * * * * * * * * * * //

dimensions      [0 2 -2 0 0 0 0];

internalField   nonuniform List<scalar> 
70
(
-0.0624321
-0.0208341
0.014104
0.0451775
0.0652607
0.0753351
0.0797554
-0.0499679
-0.0407911
-0.0369171
-0.0350747
-0.0335907
-0.030449
-0.0248918
-0.0162317
-0.00556343
-0.0265364
-0.0267525
-0.0268225
-0.0269045
-0.0261451
-0.023447
-0.0188646
-0.0118737
-0.00457807
-0.000285715
-0.0071828
-0.0110548
-0.0134196
-0.0142582
-0.0131263
-0.0106655
-0.0064329
-0.00332009
0.0277916
0.0162665
0.00775317
0.0020238
-0.0013593
-0.00264889
-0.00284926
-0.00166139
-0.00232141
0.0469076
0.0326055
0.0216684
0.0136965
0.00818677
0.00472623
0.00237192
0.00121413
-0.00181931
0.0572558
0.0418805
0.0294668
0.0199198
0.0128796
0.00791978
0.00431828
0.00189394
-0.00178419
0.0607151
0.0439402
0.030018
0.019072
0.0109053
0.00515951
0.00131538
-0.000970701
-0.00326383
)
;

boundaryField
{
    inlet
    {
        type            zeroGradient;
    }
    outlet
    {
        type            totalPressure;
        rho             none;
        psi             none;
        gamma           1;
        p0              uniform 0;
        value           uniform 0;
    }
    fixedWalls
    {
        type            zeroGradient;
    }
    frontAndBack
    {
        type            empty;
    }
    procBoundary1to2
    {
        type            processor;
        value           nonuniform List<scalar> 7(-0.0976634 6.08935e-05 0.0441312 0.0718313 0.0876983 0.0951684 0.0994034);
    }
    procBoundary1to0
    {
        type            processor;
        value           nonuniform List<scalar> 9(-0.0575417 -0.0402453 -0.0373827 -0.0367109 -0.036051 -0.0334454 -0.0278546 -0.0185951 -0.00582225);
    }
}


// ************************************************************************* //
