/*--------------------------------*- C++ -*----------------------------------*\
| =========                 |                                                 |
| \\      /  F ield         | OpenFOAM Extend Project: Open source CFD        |
|  \\    /   O peration     | Version:  1.6-ext                               |
|   \\  /    A nd           | Web:      www.extend-project.de                 |
|    \\/     M anipulation  |                                                 |
\*---------------------------------------------------------------------------*/
FoamFile
{
    version     2.0;
    format      ascii;
    class       surfaceScalarField;
    location    "4.7";
    object      phi;
}
// * * * * * * * * * * * * * * * * * * * * * * * * * * * * * * * * * * * * * //

dimensions      [0 3 -1 0 0 0 0];

internalField   nonuniform List<scalar> 
123
(
5.8352e-05
0.000188211
9.30871e-05
0.000474483
8.65567e-05
0.000590074
6.00329e-05
0.000592063
2.95173e-05
0.000536645
7.20292e-06
0.000420638
0.000197886
0.000191945
6.35868e-06
0.000221436
-1.70274e-05
0.000257291
-3.59643e-05
0.000293653
-5.5917e-05
0.000325988
-7.86345e-05
0.000352332
-0.000103775
0.000371029
-0.000126529
0.00038218
-0.000147099
-0.000153627
0.000449256
3.15852e-05
0.000441587
-9.35758e-06
0.000446129
-4.05062e-05
0.00045679
-6.65779e-05
0.000468247
-9.00919e-05
0.000476566
-0.000112094
0.000479322
-0.000129285
0.000475636
-0.000143413
-0.000142438
0.000584978
3.66808e-05
0.000578295
-2.67439e-06
0.000573807
-3.60179e-05
0.00056981
-6.25809e-05
0.000564365
-8.46472e-05
0.000555113
-0.000102842
0.00054106
-0.000115233
0.000521124
-0.000123476
-0.000118187
0.000604293
2.44508e-05
0.000608041
-6.42267e-06
0.000604384
-3.23607e-05
0.000595063
-5.32602e-05
0.000580061
-6.96451e-05
0.000558743
-8.15233e-05
0.000531927
-8.84164e-05
0.000499373
-9.09221e-05
-8.46447e-05
0.000553138
7.95812e-06
0.000557732
-1.10169e-05
0.000551933
-2.65612e-05
0.000537007
-3.83349e-05
0.000513944
-4.65823e-05
0.000483686
-5.12648e-05
0.000448224
-5.29541e-05
0.00040901
-5.1709e-05
-4.79872e-05
0.000430262
-1.66588e-06
0.000427886
-8.64118e-06
0.000415045
-1.37194e-05
0.000393543
-1.68335e-05
0.000365256
-1.82947e-05
0.000332349
-1.83581e-05
0.000297151
-1.77564e-05
0.000262117
-1.6675e-05
-1.68854e-05
0.00019622
0.000187578
0.000173859
0.000157026
0.000138731
0.000120373
0.000102616
8.59414e-05
)
;

boundaryField
{
    inlet
    {
        type            calculated;
        value           nonuniform 0();
    }
    outlet
    {
        type            calculated;
        value           nonuniform List<scalar> 7(0.00038436 0.000464446 0.000496873 0.00046583 0.000372353 0.000231015 6.90559e-05);
    }
    fixedWalls
    {
        type            calculated;
        value           uniform 0;
    }
    frontAndBack
    {
        type            empty;
    }
    procBoundary1to2
    {
        type            processor;
        value           nonuniform List<scalar> 7(-0.000246563 -0.000509218 -0.000583544 -0.000565539 -0.000506129 -0.000398324 -0.000190683);
    }
    procBoundary1to0
    {
        type            processor;
        value           nonuniform List<scalar> 9(-1.00927e-05 -1.24634e-05 1.09175e-07 1.95553e-05 4.62991e-05 7.74312e-05 0.000107833 0.000135947 0.000151447);
    }
}


// ************************************************************************* //
