/*--------------------------------*- C++ -*----------------------------------*\
| =========                 |                                                 |
| \\      /  F ield         | OpenFOAM Extend Project: Open source CFD        |
|  \\    /   O peration     | Version:  1.6-ext                               |
|   \\  /    A nd           | Web:      www.extend-project.de                 |
|    \\/     M anipulation  |                                                 |
\*---------------------------------------------------------------------------*/
FoamFile
{
    version     2.0;
    format      ascii;
    class       volScalarField;
    location    "0.3";
    object      p;
}
// * * * * * * * * * * * * * * * * * * * * * * * * * * * * * * * * * * * * * //

dimensions      [0 2 -2 0 0 0 0];

internalField   nonuniform List<scalar> 
284
(
0.290876
0.258584
0.248174
0.242282
0.238731
0.237197
0.237154
0.238362
0.242344
0.262708
0.251012
0.24638
0.243191
0.240933
0.240187
0.240655
0.242102
0.246298
0.251732
0.244646
0.242407
0.240569
0.239075
0.238818
0.23959
0.241187
0.245661
0.242362
0.237536
0.236703
0.235758
0.234756
0.234708
0.235481
0.236921
0.241436
0.234122
0.230221
0.230045
0.229436
0.228438
0.228098
0.228314
0.228932
0.232751
0.226384
0.222852
0.222794
0.221984
0.2204
0.219051
0.217807
0.21642
0.217555
0.218983
0.215598
0.215295
0.213812
0.210995
0.207647
0.203246
0.196808
0.188788
0.212145
0.208802
0.208009
0.20547
0.200854
0.194703
0.185727
0.177808
0.123394
0.206296
0.202932
0.201506
0.197633
0.190545
0.179854
0.159931
0.125982
0.0231637
0.201956
0.19851
0.196431
0.191419
0.182685
0.169967
0.150582
0.121973
0.0768785
0.199638
0.195952
0.193183
0.187321
0.177775
0.164808
0.147683
0.124099
0.0968647
0.199935
0.195551
0.191827
0.185159
0.175086
0.162158
0.146125
0.125599
0.103201
0.204192
0.197637
0.192219
0.184549
0.173969
0.161056
0.14567
0.127177
0.10705
0.210772
0.199976
0.193054
0.184797
0.173997
0.161194
0.146284
0.128978
0.110086
0.240167
0.209976
0.19801
0.18776
0.176493
0.16371
0.148957
0.131958
0.113171
-0.122931
-0.106787
0.00932193
-0.0139366
0.0470377
0.0211196
0.0717243
0.0496079
0.0830906
0.0624527
0.0893488
0.0701464
0.0928511
0.0732726
-0.0924993
-0.0339434
-0.00193968
0.00842544
0.0109315
0.0104602
0.0084456
0.0055116
0.00188346
-0.0225435
-0.00558216
0.00839946
0.0131339
0.0135096
0.011991
0.00932078
0.00591765
0.00192803
0.0125545
0.0144624
0.0179042
0.0182904
0.0164198
0.0135251
0.0100473
0.00618376
0.00193518
0.036033
0.0291195
0.0255889
0.0223098
0.0185556
0.014555
0.0104377
0.00625133
0.00189198
0.047676
0.0376429
0.030616
0.024929
0.0197793
0.0149719
0.0104284
0.00608992
0.00178872
0.0544697
0.0423943
0.0332098
0.025964
0.0199129
0.0146541
0.00995647
0.00567546
0.00162622
0.0563934
0.0428768
0.0324745
0.0244776
0.0181496
0.012955
0.0085421
0.00469193
0.00127964
-0.00210819
0.00279869
0.0054703
0.00714892
0.00774495
0.0073129
0.00602243
0.004075
0.00164018
-0.00644593
-0.0010065
0.00207597
0.00425625
0.00538034
0.00546492
0.0046791
0.00323535
0.00136231
-0.0110052
-0.00423816
-0.000376596
0.00251814
0.00419144
0.00467151
0.00417617
0.00295773
0.00128197
-0.017701
-0.00829115
-0.00311401
0.000930303
0.00335738
0.00427604
0.00402225
0.00292144
0.00127585
-0.0282173
-0.01351
-0.00622155
-0.000418796
0.00297162
0.00432876
0.00422992
0.00311878
0.0013395
-0.0443798
-0.0199993
-0.00950528
-0.00123259
0.00324164
0.00492142
0.00481498
0.00353204
0.00145766
-0.0609746
-0.0284557
-0.0128555
-0.00132699
0.00429117
0.00608461
0.00574511
0.00411225
0.00160374
-0.146294
-0.0460252
-0.0159604
9.31316e-05
0.00641388
0.00785963
0.00697139
0.00479668
0.00175138
)
;

boundaryField
{
    inlet
    {
        type            zeroGradient;
    }
    outlet
    {
        type            totalPressure;
        rho             none;
        psi             none;
        gamma           1;
        p0              uniform 0;
        value           uniform 0;
    }
    fixedWalls
    {
        type            zeroGradient;
    }
    frontAndBack
    {
        type            empty;
    }
}


// ************************************************************************* //
