/*--------------------------------*- C++ -*----------------------------------*\
| =========                 |                                                 |
| \\      /  F ield         | OpenFOAM Extend Project: Open source CFD        |
|  \\    /   O peration     | Version:  1.6-ext                               |
|   \\  /    A nd           | Web:      www.extend-project.de                 |
|    \\/     M anipulation  |                                                 |
\*---------------------------------------------------------------------------*/
FoamFile
{
    version     2.0;
    format      ascii;
    class       surfaceScalarField;
    location    "0.3";
    object      phi;
}
// * * * * * * * * * * * * * * * * * * * * * * * * * * * * * * * * * * * * * //

dimensions      [0 3 -1 0 0 0 0];

internalField   nonuniform List<scalar> 
525
(
0.000166793
3.32074e-05
0.000135222
3.1571e-05
0.000111036
2.41858e-05
9.11066e-05
1.99292e-05
7.22872e-05
1.88194e-05
5.3096e-05
1.91913e-05
3.29341e-05
2.01619e-05
1.26864e-05
2.02477e-05
1.26864e-05
0.000201047
3.21601e-05
0.000185779
4.68393e-05
0.000163902
4.60632e-05
0.000139506
4.43246e-05
0.000113333
4.49926e-05
8.49711e-05
4.75531e-05
5.4224e-05
5.0909e-05
2.24937e-05
5.19781e-05
3.518e-05
0.000200625
3.15354e-05
0.000188881
5.85828e-05
0.000170343
6.46013e-05
0.000147929
6.67383e-05
0.00012235
7.0572e-05
9.33527e-05
7.65504e-05
6.071e-05
8.35516e-05
2.57723e-05
8.69158e-05
6.09524e-05
0.000198227
3.33081e-05
0.000187841
6.89693e-05
0.000172038
8.04038e-05
0.000152372
8.64043e-05
0.000128843
9.41014e-05
0.000100775
0.000104618
6.74356e-05
0.000116891
2.96258e-05
0.000124726
9.05781e-05
0.000197643
3.56654e-05
0.000189002
7.76098e-05
0.000176187
9.32188e-05
0.000159773
0.000102819
0.000139088
0.000114786
0.000112756
0.00013095
7.89983e-05
0.000150649
3.69798e-05
0.000166744
0.000127558
0.000198366
3.72998e-05
0.000192494
8.34815e-05
0.00018353
0.000102182
0.000171404
0.000114946
0.000154957
0.000131233
0.000132001
0.000153905
9.90115e-05
0.000183639
5.17642e-05
0.000213991
0.000179322
0.00019989
3.74096e-05
0.000197825
8.55464e-05
0.000193845
0.000106163
0.000187521
0.00012127
0.000177627
0.000141126
0.000161783
0.000169749
0.000134813
0.00021061
8.66169e-05
0.000262187
0.000265939
0.000201898
3.55119e-05
0.000204439
8.30053e-05
0.000206473
0.000104129
0.000207536
0.000120206
0.000206744
0.000141919
0.000201592
0.000174902
0.000184385
0.000227816
0.000136249
0.000310323
0.000402188
0.000204112
3.14e-05
0.000211589
7.55281e-05
0.000220113
9.56048e-05
0.00022989
0.000110429
0.000242676
0.000129132
0.000262584
0.000154994
0.000302372
0.000188028
0.00038513
0.000227566
0.00031992
0.000467397
0.000206279
2.51205e-05
0.000218293
6.35148e-05
0.00023243
8.14677e-05
0.000248972
9.38869e-05
0.00027027
0.000107835
0.000300552
0.000124711
0.000345191
0.000143389
0.000414793
0.000157963
0.000208062
0.000526652
0.000208412
1.67084e-05
0.000224154
4.77728e-05
0.000242268
6.3354e-05
0.000262624
7.35309e-05
0.000286942
8.35165e-05
0.000317655
9.39986e-05
0.000357243
0.000103802
0.000408517
0.000106689
0.000117781
0.000498798
0.000210989
5.71987e-06
0.00022963
2.9131e-05
0.000250032
4.2952e-05
0.000271953
5.16104e-05
0.000296652
5.88169e-05
0.000325522
6.51293e-05
0.000359702
6.96213e-05
0.000398096
6.82956e-05
6.54354e-05
0.000450441
0.000214818
-9.09856e-06
0.000235083
8.86619e-06
0.000255858
2.21768e-05
0.000277616
2.9853e-05
0.000301387
3.50454e-05
0.000327805
3.87122e-05
0.000356908
4.05184e-05
0.000386621
3.85825e-05
3.35627e-05
0.000418493
0.000214546
-2.36448e-05
0.000231711
-8.29898e-06
0.000250192
3.69606e-06
0.000270069
9.97619e-06
0.00029178
1.33344e-05
0.000315315
1.51776e-05
0.000339985
1.58478e-05
0.000363771
1.47967e-05
1.20973e-05
0.000385236
0.000176355
0.000168056
0.000171752
0.000181728
0.000195063
0.00021024
0.000226088
0.000240885
0.000252982
0.000392008
7.53896e-05
-3.45918e-05
0.000426599
0.000544254
5.77876e-05
-3.76666e-05
0.000547329
0.000514007
4.25781e-05
-1.89328e-05
0.000495274
0.000464798
2.82211e-05
-1.00025e-05
0.000455868
0.000431599
1.51158e-05
-5.29246e-06
0.000426889
0.000395319
5.03305e-06
-2.81227e-06
0.000392839
0.000258015
0.000255203
0.000404998
-0.000201877
0.000223478
0.000353794
-0.000220922
0.000272126
0.000301775
-0.000184912
0.000236931
0.000269439
-0.000144189
0.000176525
0.000251768
-0.000109127
0.000126799
0.000242087
-8.06076e-05
9.02888e-05
0.000236732
-5.70947e-05
6.245e-05
0.000233986
-3.70591e-05
3.98044e-05
-1.86716e-05
1.98092e-05
0.000466242
-0.00012079
0.00038907
-0.000143749
0.000335057
-0.0001309
0.000300466
-0.000109599
0.000279019
-8.76804e-05
0.000265523
-6.71108e-05
0.000257061
-4.86328e-05
0.000252143
-3.2141e-05
-1.64063e-05
0.000443906
-6.94224e-05
0.00039146
-9.13035e-05
0.000350708
-9.01477e-05
0.000320639
-7.95292e-05
0.000298993
-6.60343e-05
0.000283851
-5.19696e-05
0.000273646
-3.84271e-05
0.000267328
-2.58236e-05
-1.3359e-05
0.000426085
-3.96393e-05
0.000390374
-5.55931e-05
0.000358494
-5.82672e-05
0.000332518
-5.35529e-05
0.000312189
-4.57055e-05
0.000296923
-3.67039e-05
0.00028605
-2.75539e-05
0.00027899
-1.87632e-05
-9.84075e-06
0.000408847
-2.15977e-05
0.000384257
-3.10034e-05
0.000359415
-3.34247e-05
0.000337227
-3.13648e-05
0.000318656
-2.71347e-05
0.000303957
-2.20048e-05
0.000293049
-1.66458e-05
0.00028571
-1.14246e-05
-6.10173e-06
0.00038026
-9.01861e-06
0.000361748
-1.24914e-05
0.000341617
-1.32938e-05
0.000322632
-1.23799e-05
0.000306142
-1.06446e-05
0.000292729
-8.59182e-06
0.000282565
-6.4819e-06
0.000275597
-4.45709e-06
-2.4982e-06
0.000246184
0.000233693
0.000220399
0.000208019
0.000197375
0.000188783
0.000182301
0.000177844
7.20602e-06
-7.20602e-06
2.14543e-05
-1.42482e-05
3.60276e-05
-1.45734e-05
4.91288e-05
-1.31012e-05
6.01956e-05
-1.10668e-05
6.90094e-05
-8.81386e-06
7.55187e-05
-6.50921e-06
7.9769e-05
-4.2503e-06
-2.29758e-06
1.32364e-05
-2.04425e-05
3.56308e-05
-3.66426e-05
5.80696e-05
-3.70121e-05
7.81213e-05
-3.31529e-05
9.49943e-05
-2.79398e-05
0.000108408
-2.2228e-05
0.000118317
-1.64179e-05
0.000124776
-1.07088e-05
-5.53537e-06
1.43834e-05
-3.48259e-05
3.97011e-05
-6.19603e-05
6.48002e-05
-6.21112e-05
8.68436e-05
-5.51963e-05
0.000105065
-4.61614e-05
0.000119335
-3.64981e-05
0.00012977
-2.6853e-05
0.000136547
-1.74851e-05
-8.91134e-06
1.47527e-05
-4.95786e-05
4.37999e-05
-9.10075e-05
7.19818e-05
-9.0293e-05
9.58696e-05
-7.90842e-05
0.00011491
-6.5202e-05
0.000129365
-5.09527e-05
0.000139704
-3.71919e-05
0.000146352
-2.41336e-05
-1.22015e-05
1.48513e-05
-6.44299e-05
5.02417e-05
-0.000126398
8.31091e-05
-0.00012316
0.000109274
-0.000105249
0.000128902
-8.48304e-05
0.000143077
-6.51276e-05
0.000152867
-4.69816e-05
0.000159065
-3.03322e-05
-1.52358e-05
1.67417e-05
-8.11716e-05
6.18086e-05
-0.000171465
0.000100812
-0.000162164
0.000129034
-0.000133471
0.000148326
-0.000104122
0.00016123
-7.80316e-05
0.000169681
-5.54331e-05
0.000174913
-3.55635e-05
-1.77608e-05
3.56725e-05
-0.000116844
8.74182e-05
-0.00022321
0.00013042
-0.000205165
0.000158031
-0.000161082
0.000174415
-0.000120506
0.00018409
-8.7707e-05
0.000189904
-6.1247e-05
0.000193392
-3.90517e-05
-1.94206e-05
0.000106633
0.000155549
0.000187315
0.000202758
0.00020905
0.000211632
0.000212835
0.000213588
)
;

boundaryField
{
    inlet
    {
        type            calculated;
        value           uniform -0.0002;
    }
    outlet
    {
        type            calculated;
        value           nonuniform List<scalar> 
15
(
8.20665e-05
0.000128013
0.000139923
0.000149642
0.0001621
0.000177438
0.000195052
0.000213976
0.000232849
0.000249877
0.000264281
0.000275471
0.000281971
0.000271994
0.000175346
)
;
    }
    fixedWalls
    {
        type            calculated;
        value           uniform 0;
    }
    frontAndBack
    {
        type            empty;
    }
}


// ************************************************************************* //
