/*--------------------------------*- C++ -*----------------------------------*\
| =========                 |                                                 |
| \\      /  F ield         | OpenFOAM Extend Project: Open source CFD        |
|  \\    /   O peration     | Version:  1.6-ext                               |
|   \\  /    A nd           | Web:      www.extend-project.de                 |
|    \\/     M anipulation  |                                                 |
\*---------------------------------------------------------------------------*/
FoamFile
{
    version     2.0;
    format      ascii;
    class       volVectorField;
    location    "0.3";
    object      U;
}
// * * * * * * * * * * * * * * * * * * * * * * * * * * * * * * * * * * * * * //

dimensions      [0 1 -1 0 0 0 0];

internalField   nonuniform List<vector> 
284
(
(0.159259 0.0215963 0)
(0.157101 0.0182329 0)
(0.12224 0.0126149 0)
(0.100144 0.00960002 0)
(0.0817628 0.00858483 0)
(0.0629449 0.00849548 0)
(0.0431669 0.00877211 0)
(0.0218348 0.0086692 0)
(0.00536507 0.005059 0)
(0.187895 0.0372292 0)
(0.203009 0.0418912 0)
(0.175624 0.035947 0)
(0.151108 0.0319173 0)
(0.126831 0.0310816 0)
(0.0997298 0.0321521 0)
(0.0700145 0.0340066 0)
(0.037292 0.0343643 0)
(0.0100822 0.0223882 0)
(0.18814 0.031182 0)
(0.20386 0.0527747 0)
(0.180596 0.0556188 0)
(0.158763 0.0558057 0)
(0.135778 0.057931 0)
(0.108668 0.0620322 0)
(0.0777196 0.0670131 0)
(0.0423528 0.0689985 0)
(0.0117744 0.0475995 0)
(0.186717 0.032261 0)
(0.201451 0.0639072 0)
(0.180808 0.0729035 0)
(0.161903 0.0770299 0)
(0.141404 0.0827295 0)
(0.115885 0.0908305 0)
(0.0851887 0.100238 0)
(0.048056 0.105445 0)
(0.0139548 0.0751852 0)
(0.186109 0.034551 0)
(0.201267 0.0736379 0)
(0.18337 0.0873559 0)
(0.167691 0.0952172 0)
(0.150354 0.105018 0)
(0.127312 0.118222 0)
(0.0975853 0.133911 0)
(0.0584217 0.14512 0)
(0.0183158 0.107734 0)
(0.186026 0.0366417 0)
(0.20298 0.0810709 0)
(0.188728 0.0984333 0)
(0.177139 0.109723 0)
(0.16417 0.123904 0)
(0.145194 0.143286 0)
(0.118161 0.167842 0)
(0.0776037 0.190604 0)
(0.0272073 0.152325 0)
(0.186211 0.0375863 0)
(0.205992 0.0851987 0)
(0.196485 0.105114 0)
(0.190231 0.11925 0)
(0.18348 0.137551 0)
(0.171523 0.163375 0)
(0.152056 0.198016 0)
(0.117662 0.231877 0)
(0.0501316 0.216271 0)
(0.186539 0.0367369 0)
(0.20983 0.0850673 0)
(0.205995 0.10624 0)
(0.206316 0.122151 0)
(0.207758 0.14355 0)
(0.206078 0.175903 0)
(0.194113 0.227753 0)
(0.192622 0.309511 0)
(0.0562977 0.318959 0)
(0.186938 0.0337437 0)
(0.214017 0.0800689 0)
(0.216262 0.100955 0)
(0.224044 0.116698 0)
(0.236244 0.137475 0)
(0.253366 0.168238 0)
(0.277593 0.214735 0)
(0.350542 0.281082 0)
(0.411473 0.431772 0)
(0.187365 0.0285424 0)
(0.218051 0.0702427 0)
(0.225702 0.0894465 0)
(0.239452 0.103199 0)
(0.258967 0.119735 0)
(0.284253 0.141496 0)
(0.320529 0.16776 0)
(0.373174 0.192007 0)
(0.467855 0.25714 0)
(0.187887 0.021185 0)
(0.221829 0.0562239 0)
(0.233616 0.0730557 0)
(0.251114 0.0843296 0)
(0.274067 0.0962292 0)
(0.301136 0.109634 0)
(0.336831 0.122721 0)
(0.376369 0.128426 0)
(0.454295 0.146141 0)
(0.188763 0.011521 0)
(0.225899 0.0389116 0)
(0.240423 0.0535339 0)
(0.25972 0.0628495 0)
(0.283707 0.0712863 0)
(0.310364 0.0793002 0)
(0.342144 0.0856332 0)
(0.37608 0.0851302 0)
(0.425054 0.0846684 0)
(0.190383 0.00059915 0)
(0.230955 0.0204251 0)
(0.246318 0.032968 0)
(0.265547 0.0407569 0)
(0.289016 0.0467558 0)
(0.314198 0.0514797 0)
(0.342012 0.0541821 0)
(0.370896 0.0520135 0)
(0.403111 0.0463187 0)
(0.189557 -0.021437 0)
(0.229361 -0.00448566 0)
(0.241733 0.00982065 0)
(0.258915 0.0180552 0)
(0.280487 0.022741 0)
(0.30333 0.025516 0)
(0.327485 0.0265896 0)
(0.351743 0.0249278 0)
(0.375114 0.0206554 0)
(0.160207 -0.0188583 0)
(0.17603 -0.00973132 0)
(0.1695 -0.00113587 0)
(0.175567 0.00342623 0)
(0.188007 0.00551675 0)
(0.202513 0.0064872 0)
(0.218109 0.00674182 0)
(0.233565 0.00613497 0)
(0.247405 0.00467897 0)
(0.463257 0.130256 0)
(0.369024 0.0114959 0)
(0.551919 0.0478199 0)
(0.55688 -0.0650493 0)
(0.517346 0.0536139 0)
(0.515332 -0.0197343 0)
(0.462908 0.0333322 0)
(0.465724 -0.0153155 0)
(0.427703 0.0202859 0)
(0.432476 -0.0068125 0)
(0.39194 0.00892537 0)
(0.396181 -0.004093 0)
(0.256408 0.0014961 0)
(0.257695 -0.00189933 0)
(0.458987 -0.219791 0)
(0.384007 -0.261149 0)
(0.315326 -0.224528 0)
(0.279198 -0.168368 0)
(0.257967 -0.121973 0)
(0.24555 -0.0874893 0)
(0.238642 -0.0608991 0)
(0.234941 -0.0390788 0)
(0.232827 -0.01956 0)
(0.522604 -0.165452 0)
(0.429051 -0.175793 0)
(0.355136 -0.15168 0)
(0.312895 -0.124199 0)
(0.287343 -0.0979654 0)
(0.270876 -0.0741861 0)
(0.260381 -0.0533153 0)
(0.254023 -0.0349778 0)
(0.250085 -0.017759 0)
(0.475701 -0.0867057 0)
(0.418852 -0.112077 0)
(0.368762 -0.108109 0)
(0.33321 -0.0937053 0)
(0.308137 -0.0766625 0)
(0.290239 -0.059647 0)
(0.277857 -0.0437441 0)
(0.269858 -0.0292005 0)
(0.264668 -0.0150226 0)
(0.444667 -0.0531355 0)
(0.409771 -0.0711159 0)
(0.373931 -0.0724306 0)
(0.34433 -0.065574 0)
(0.321254 -0.0554524 0)
(0.303627 -0.0442293 0)
(0.290693 -0.0330346 0)
(0.281909 -0.022394 0)
(0.275989 -0.0116767 0)
(0.420464 -0.029035 0)
(0.397921 -0.0415966 0)
(0.372009 -0.0445244 0)
(0.347843 -0.0416311 0)
(0.327261 -0.0359643 0)
(0.310602 -0.0291368 0)
(0.29782 -0.0220235 0)
(0.288814 -0.0150963 0)
(0.28258 -0.00799411 0)
(0.388358 -0.0145346 0)
(0.372101 -0.020507 0)
(0.35203 -0.0220458 0)
(0.331955 -0.0207039 0)
(0.313958 -0.0179271 0)
(0.298905 -0.0145487 0)
(0.287084 -0.0110183 0)
(0.278586 -0.00758705 0)
(0.272657 -0.0041454 0)
(0.251613 -0.00443677 0)
(0.240502 -0.0057277 0)
(0.22724 -0.00588828 0)
(0.214133 -0.00535806 0)
(0.202471 -0.00452561 0)
(0.192785 -0.00359888 0)
(0.185226 -0.00267787 0)
(0.179773 -0.00181441 0)
(0.175978 -0.00104733 0)
(0.00259037 -0.00275105 0)
(0.0133192 -0.00602904 0)
(0.0288839 -0.00622674 0)
(0.0428979 -0.00560636 0)
(0.0550124 -0.00473598 0)
(0.0649651 -0.00376554 0)
(0.072623 -0.00276981 0)
(0.0779971 -0.00179897 0)
(0.0814328 -0.00100226 0)
(0.0053456 -0.012783 0)
(0.0232019 -0.0240195 0)
(0.0471348 -0.0244536 0)
(0.0686398 -0.0219921 0)
(0.0871429 -0.0185937 0)
(0.102298 -0.0148259 0)
(0.113951 -0.0109641 0)
(0.122112 -0.00716003 0)
(0.127273 -0.00377946 0)
(0.00562188 -0.0272553 0)
(0.0255729 -0.048595 0)
(0.0526818 -0.048975 0)
(0.0765158 -0.0437946 0)
(0.0966519 -0.0368358 0)
(0.112874 -0.029256 0)
(0.125192 -0.0215874 0)
(0.133756 -0.0140726 0)
(0.139168 -0.00721767 0)
(0.00517619 -0.0417301 0)
(0.0273176 -0.0754821 0)
(0.0586335 -0.0754431 0)
(0.0848613 -0.066749 0)
(0.106231 -0.0555402 0)
(0.12288 -0.043719 0)
(0.135189 -0.0320665 0)
(0.14361 -0.020848 0)
(0.148885 -0.010583 0)
(0.00405562 -0.0567868 0)
(0.0295694 -0.107149 0)
(0.0681163 -0.105577 0)
(0.0975294 -0.091691 0)
(0.120122 -0.0749485 0)
(0.136799 -0.0581509 0)
(0.148618 -0.0422369 0)
(0.156501 -0.0273456 0)
(0.161363 -0.0137857 0)
(0.00457423 -0.0728104 0)
(0.0344619 -0.145813 0)
(0.0841505 -0.140963 0)
(0.116844 -0.118911 0)
(0.139903 -0.0946605 0)
(0.155607 -0.0719574 0)
(0.166036 -0.0515627 0)
(0.172734 -0.0331942 0)
(0.176767 -0.016634 0)
(0.0259572 -0.074005 0)
(0.0543491 -0.193372 0)
(0.113512 -0.184263 0)
(0.146648 -0.14855 0)
(0.167392 -0.113511 0)
(0.179914 -0.0838505 0)
(0.187387 -0.0590487 0)
(0.191908 -0.0377538 0)
(0.194517 -0.0188205 0)
(0.123811 -0.192905 0)
(0.117751 -0.270322 0)
(0.174143 -0.235831 0)
(0.196002 -0.176985 0)
(0.205971 -0.127839 0)
(0.210291 -0.0912064 0)
(0.212176 -0.0630715 0)
(0.213177 -0.0401056 0)
(0.213664 -0.0199404 0)
)
;

boundaryField
{
    inlet
    {
        type            fixedValue;
        value           uniform (0.2 0 0);
    }
    outlet
    {
        type            zeroGradient;
    }
    fixedWalls
    {
        type            fixedValue;
        value           uniform (0 0 0);
    }
    frontAndBack
    {
        type            empty;
    }
}


// ************************************************************************* //
