/*--------------------------------*- C++ -*----------------------------------*\
| =========                 |                                                 |
| \\      /  F ield         | OpenFOAM Extend Project: Open source CFD        |
|  \\    /   O peration     | Version:  1.6-ext                               |
|   \\  /    A nd           | Web:      www.extend-project.de                 |
|    \\/     M anipulation  |                                                 |
\*---------------------------------------------------------------------------*/
FoamFile
{
    version     2.0;
    format      ascii;
    class       volScalarField;
    location    "2.7";
    object      p;
}
// * * * * * * * * * * * * * * * * * * * * * * * * * * * * * * * * * * * * * //

dimensions      [0 2 -2 0 0 0 0];

internalField   nonuniform List<scalar> 
70
(
-0.093672
-0.0497373
-0.0115466
0.022246
0.043927
0.0548253
0.0589151
-0.0819132
-0.0735946
-0.0685086
-0.0615217
-0.0505673
-0.0364916
-0.0224471
-0.0103589
-0.00304278
-0.0560889
-0.0563924
-0.0543526
-0.0490412
-0.0398949
-0.0283
-0.0172244
-0.00791543
-0.00322979
-0.0252741
-0.0307268
-0.032094
-0.0299806
-0.0247156
-0.017585
-0.0108673
-0.00517594
-0.00320055
0.00598141
-0.00402293
-0.00970768
-0.0117041
-0.0108542
-0.00832634
-0.00569184
-0.00316502
-0.0031101
0.0269529
0.0145283
0.00609162
0.000978311
-0.00160878
-0.00251408
-0.00267814
-0.00218124
-0.00296157
0.0381306
0.0245571
0.0142889
0.00706688
0.00234057
-0.00047028
-0.00192434
-0.00222151
-0.00283031
0.0410255
0.0257676
0.0137797
0.00513063
-0.000484047
-0.00356787
-0.00470855
-0.00439346
-0.00368099
)
;

boundaryField
{
    inlet
    {
        type            zeroGradient;
    }
    outlet
    {
        type            totalPressure;
        rho             none;
        psi             none;
        gamma           1;
        p0              uniform 0;
        value           uniform 0;
    }
    fixedWalls
    {
        type            zeroGradient;
    }
    frontAndBack
    {
        type            empty;
    }
    procBoundary1to2
    {
        type            processor;
        value           nonuniform List<scalar> 7(-0.127758 -0.0279052 0.0183952 0.0480993 0.0653434 0.0735568 0.0777693);
    }
    procBoundary1to0
    {
        type            processor;
        value           nonuniform List<scalar> 9(-0.0888704 -0.0716421 -0.0690472 -0.063318 -0.0531229 -0.0391277 -0.0243774 -0.0112892 -0.0022994);
    }
}


// ************************************************************************* //
