/*--------------------------------*- C++ -*----------------------------------*\
| =========                 |                                                 |
| \\      /  F ield         | OpenFOAM Extend Project: Open source CFD        |
|  \\    /   O peration     | Version:  1.6-ext                               |
|   \\  /    A nd           | Web:      www.extend-project.de                 |
|    \\/     M anipulation  |                                                 |
\*---------------------------------------------------------------------------*/
FoamFile
{
    version     2.0;
    format      ascii;
    class       volVectorField;
    location    "2.7";
    object      U;
}
// * * * * * * * * * * * * * * * * * * * * * * * * * * * * * * * * * * * * * //

dimensions      [0 1 -1 0 0 0 0];

internalField   nonuniform List<vector> 
70
(
(0.19258 0.0406321 0)
(0.502984 0.0719791 0)
(0.595538 0.0869637 0)
(0.580893 0.0631053 0)
(0.520437 0.033574 0)
(0.407516 0.00875427 0)
(0.191951 -0.00154807 0)
(0.201717 -0.0121183 0)
(0.232188 -0.034056 0)
(0.275481 -0.0709405 0)
(0.313224 -0.115363 0)
(0.33887 -0.157249 0)
(0.352634 -0.187103 0)
(0.354215 -0.198307 0)
(0.353003 -0.193372 0)
(0.337781 -0.164425 0)
(0.474935 0.00361897 0)
(0.464273 -0.0445813 0)
(0.467843 -0.0877223 0)
(0.473725 -0.128262 0)
(0.472575 -0.161967 0)
(0.462898 -0.183003 0)
(0.442513 -0.186997 0)
(0.423476 -0.177622 0)
(0.386497 -0.147887 0)
(0.592433 0.0218641 0)
(0.584165 -0.0323294 0)
(0.575863 -0.0782453 0)
(0.564291 -0.116519 0)
(0.544792 -0.144494 0)
(0.517676 -0.158769 0)
(0.48141 -0.157727 0)
(0.449409 -0.145582 0)
(0.398902 -0.119023 0)
(0.596302 0.0129117 0)
(0.597923 -0.0313705 0)
(0.589548 -0.0685519 0)
(0.5713 -0.0976581 0)
(0.54243 -0.116548 0)
(0.505346 -0.123204 0)
(0.460886 -0.118038 0)
(0.421874 -0.104808 0)
(0.367693 -0.0843784 0)
(0.539592 0.000422194 0)
(0.542313 -0.0296591 0)
(0.530712 -0.0541902 0)
(0.506301 -0.071541 0)
(0.470749 -0.0803703 0)
(0.428069 -0.0802173 0)
(0.381734 -0.0729713 0)
(0.3418 -0.0616293 0)
(0.293231 -0.0496297 0)
(0.418504 -0.00810482 0)
(0.413755 -0.0223947 0)
(0.39502 -0.032352 0)
(0.365099 -0.0373942 0)
(0.327715 -0.0377059 0)
(0.28769 -0.0342406 0)
(0.249104 -0.0289456 0)
(0.217244 -0.0233981 0)
(0.18254 -0.0203831 0)
(0.190902 -0.00546773 0)
(0.180403 -0.0079207 0)
(0.163171 -0.0087251 0)
(0.142264 -0.00820449 0)
(0.120562 -0.00692318 0)
(0.10042 -0.00543671 0)
(0.0831604 -0.00425245 0)
(0.0694324 -0.00359684 0)
(0.0536129 -0.00415622 0)
)
;

boundaryField
{
    inlet
    {
        type            fixedValue;
        value           nonuniform 0();
    }
    outlet
    {
        type            zeroGradient;
    }
    fixedWalls
    {
        type            fixedValue;
        value           uniform (0 0 0);
    }
    frontAndBack
    {
        type            empty;
    }
    procBoundary1to2
    {
        type            processor;
        value           nonuniform List<vector> 7((0.357318 0.164707 0) (0.544795 0.171975 0) (0.574849 0.160259 0) (0.541755 0.112169 0) (0.482657 0.0637706 0) (0.380995 0.0243064 0) (0.182562 0.00286718 0));
    }
    procBoundary1to0
    {
        type            processor;
        value           nonuniform List<vector> 9((0.0328041 0.034284 0) (0.0656234 0.0277474 0) (0.12133 -0.0164413 0) (0.165749 -0.0741057 0) (0.201688 -0.128922 0) (0.229315 -0.169467 0) (0.248317 -0.189066 0) (0.263309 -0.189321 0) (0.271278 -0.164822 0));
    }
}


// ************************************************************************* //
