/*--------------------------------*- C++ -*----------------------------------*\
| =========                 |                                                 |
| \\      /  F ield         | OpenFOAM Extend Project: Open source CFD        |
|  \\    /   O peration     | Version:  1.6-ext                               |
|   \\  /    A nd           | Web:      www.extend-project.de                 |
|    \\/     M anipulation  |                                                 |
\*---------------------------------------------------------------------------*/
FoamFile
{
    version     2.0;
    format      ascii;
    class       vectorField;
    location    "0.55";
    object      accumulatedFluidInterfaceDisplacement;
}
// * * * * * * * * * * * * * * * * * * * * * * * * * * * * * * * * * * * * * //


338
(
(-5.89798e-07 -1.165e-07 -6.89358e-27)
(-2.5581e-07 -2.39627e-07 -1.55065e-27)
(-1.49647e-06 1.32813e-05 -2.78673e-26)
(-1.42188e-06 1.3061e-05 -2.68069e-26)
(-1.41329e-06 1.2764e-05 -2.36143e-26)
(-1.40699e-06 1.24608e-05 -1.48435e-26)
(-1.40325e-06 1.21564e-05 1.42965e-28)
(-1.40121e-06 1.18535e-05 1.61976e-26)
(-1.40006e-06 1.15537e-05 2.46051e-26)
(-1.39904e-06 1.12579e-05 1.5579e-26)
(-1.39753e-06 1.09666e-05 5.24015e-27)
(-1.39509e-06 1.06797e-05 -4.57173e-27)
(-1.39138e-06 1.03971e-05 -2.17611e-27)
(-1.3862e-06 1.01184e-05 -2.22879e-26)
(-1.37942e-06 9.84345e-06 -3.13739e-27)
(-1.371e-06 9.57181e-06 1.40778e-26)
(-1.36092e-06 9.30317e-06 5.32526e-27)
(-1.3492e-06 9.03723e-06 -5.03745e-27)
(-1.3359e-06 8.77371e-06 -1.93351e-27)
(-1.32107e-06 8.5124e-06 1.96707e-26)
(-1.30477e-06 8.25306e-06 1.36926e-26)
(-1.28709e-06 7.99554e-06 1.42708e-27)
(-1.26809e-06 7.73967e-06 4.33277e-27)
(-1.24786e-06 7.48534e-06 3.58725e-28)
(-1.2265e-06 7.23244e-06 3.21504e-27)
(-1.20409e-06 6.98089e-06 5.52239e-27)
(-1.18074e-06 6.73066e-06 -4.6477e-27)
(-1.15654e-06 6.48169e-06 -1.93665e-27)
(-1.13159e-06 6.23399e-06 2.06017e-27)
(-1.106e-06 5.98756e-06 -6.5913e-28)
(-1.07987e-06 5.74246e-06 -2.09321e-27)
(-1.05329e-06 5.49873e-06 -6.71955e-27)
(-1.02637e-06 5.25648e-06 -2.81913e-27)
(-9.99199e-07 5.0158e-06 1.48306e-27)
(-9.71853e-07 4.77682e-06 2.04648e-27)
(-9.44411e-07 4.53972e-06 -3.55102e-28)
(-9.16941e-07 4.30466e-06 -2.1683e-27)
(-8.89498e-07 4.07184e-06 1.76851e-28)
(-8.62132e-07 3.84149e-06 -4.78599e-28)
(-8.34878e-07 3.61383e-06 -6.79861e-28)
(-8.07765e-07 3.38912e-06 -1.01295e-27)
(-7.8081e-07 3.16762e-06 -1.07174e-27)
(-7.54024e-07 2.9496e-06 8.71707e-28)
(-7.2741e-07 2.73534e-06 1.5818e-27)
(-7.00968e-07 2.52514e-06 -1.2473e-27)
(-6.74689e-07 2.31929e-06 -7.19439e-28)
(-6.48567e-07 2.11808e-06 1.00281e-27)
(-6.22589e-07 1.9218e-06 -5.87483e-28)
(-5.96747e-07 1.73075e-06 -8.74346e-28)
(-5.71028e-07 1.54522e-06 1.9779e-28)
(-5.45423e-07 1.3655e-06 -1.2643e-27)
(-5.19925e-07 1.19186e-06 -2.09189e-27)
(-4.94529e-07 1.02457e-06 3.83162e-28)
(-4.69235e-07 8.63901e-07 4.1945e-27)
(-4.4405e-07 7.10096e-07 -2.94395e-27)
(-4.18993e-07 5.63393e-07 -8.86979e-27)
(-3.94102e-07 4.24027e-07 8.63824e-28)
(-3.6944e-07 2.92229e-07 3.0814e-27)
(-3.45109e-07 1.68247e-07 -2.49613e-27)
(-3.21261e-07 5.23695e-08 5.88719e-27)
(-2.98114e-07 -5.50449e-08 4.94049e-27)
(-2.75959e-07 -1.53512e-07 -4.93039e-27)
(-1.9697e-06 1.3367e-05 8.54381e-28)
(-1.70158e-06 1.33604e-05 -1.62561e-27)
(-2.44621e-06 1.32928e-05 4.41947e-27)
(-2.23841e-06 1.33673e-05 -1.10612e-28)
(-6.50485e-07 -3.10014e-08 -3.75152e-27)
(-7.11422e-07 6.6761e-08 3.07721e-27)
(-7.70834e-07 1.734e-07 -3.15965e-27)
(-8.28964e-07 2.88432e-07 -3.49345e-27)
(-8.85979e-07 4.11496e-07 2.73468e-27)
(-9.41982e-07 5.42311e-07 5.34959e-27)
(-9.97029e-07 6.80632e-07 2.31726e-28)
(-1.05114e-06 8.26234e-07 -3.7351e-27)
(-1.10432e-06 9.78892e-07 -3.4191e-28)
(-1.15655e-06 1.13838e-06 2.53853e-27)
(-1.20782e-06 1.30445e-06 9.94442e-28)
(-1.2581e-06 1.47687e-06 6.32626e-28)
(-1.30738e-06 1.65538e-06 -3.21064e-28)
(-1.35564e-06 1.83971e-06 -1.64508e-27)
(-1.40287e-06 2.02959e-06 1.71245e-29)
(-1.44908e-06 2.22474e-06 -1.02836e-27)
(-1.49426e-06 2.42489e-06 -1.93197e-27)
(-1.53841e-06 2.62974e-06 1.74884e-27)
(-1.58155e-06 2.83902e-06 6.8671e-29)
(-1.62369e-06 3.05243e-06 -5.05134e-28)
(-1.66485e-06 3.26968e-06 -7.16498e-28)
(-1.70504e-06 3.49048e-06 -6.69971e-28)
(-1.74428e-06 3.71455e-06 2.86356e-28)
(-1.7826e-06 3.94162e-06 7.51153e-28)
(-1.82001e-06 4.17142e-06 1.90852e-27)
(-1.85654e-06 4.40368e-06 1.13432e-28)
(-1.89219e-06 4.63817e-06 -6.19581e-28)
(-1.927e-06 4.87466e-06 -2.69726e-27)
(-1.96096e-06 5.11294e-06 -5.38805e-28)
(-1.99409e-06 5.35284e-06 2.16425e-27)
(-2.02639e-06 5.59418e-06 -2.3191e-27)
(-2.05787e-06 5.83684e-06 -1.15851e-26)
(-2.08852e-06 6.08072e-06 1.48308e-28)
(-2.11836e-06 6.32572e-06 6.86005e-27)
(-2.14736e-06 6.57181e-06 -9.44531e-28)
(-2.17552e-06 6.81896e-06 -2.33733e-28)
(-2.20284e-06 7.06718e-06 1.99064e-27)
(-2.22931e-06 7.3165e-06 -4.68033e-28)
(-2.25492e-06 7.56698e-06 -2.55752e-27)
(-2.27968e-06 7.81871e-06 5.12055e-27)
(-2.30358e-06 8.07181e-06 2.32201e-27)
(-2.32663e-06 8.32641e-06 7.89118e-27)
(-2.34883e-06 8.5827e-06 -2.49657e-27)
(-2.3702e-06 8.84085e-06 6.98238e-27)
(-2.39075e-06 9.1011e-06 2.4248e-26)
(-2.41048e-06 9.3637e-06 -1.29346e-26)
(-2.42941e-06 9.62893e-06 -1.65666e-26)
(-2.44751e-06 9.89712e-06 1.65994e-26)
(-2.46476e-06 1.01686e-05 9.87548e-27)
(-2.48106e-06 1.04437e-05 4.10944e-27)
(-2.49627e-06 1.07228e-05 9.4365e-27)
(-2.51015e-06 1.10061e-05 -1.53485e-26)
(-2.52233e-06 1.12938e-05 5.66619e-27)
(-2.53231e-06 1.15859e-05 2.34025e-26)
(-2.53942e-06 1.18819e-05 -5.67741e-28)
(-2.54285e-06 1.21811e-05 -8.81011e-27)
(-2.54178e-06 1.24816e-05 -2.07171e-26)
(-2.53548e-06 1.27808e-05 -3.48981e-27)
(-2.52458e-06 1.30748e-05 1.75017e-26)
(8.34198e-08 -2.85692e-08 1.57705e-26)
(8.10691e-08 -4.40672e-08 3.25947e-29)
(7.58609e-08 -7.49159e-08 -1.42213e-26)
(6.94553e-08 -1.05643e-07 1.54169e-26)
(6.128e-08 -1.36458e-07 2.01157e-26)
(5.06549e-08 -1.67335e-07 -7.15764e-27)
(3.70819e-08 -1.98042e-07 -2.52503e-26)
(2.02362e-08 -2.28161e-07 5.84535e-27)
(-5.69049e-11 -2.57142e-07 1.05466e-26)
(-2.38575e-08 -2.84329e-07 -2.40034e-26)
(-5.11355e-08 -3.08998e-07 1.34617e-26)
(-8.17917e-08 -3.30377e-07 1.64389e-26)
(-1.15673e-07 -3.47668e-07 -1.3415e-26)
(-1.52586e-07 -3.6006e-07 -9.71586e-27)
(-1.9231e-07 -3.66739e-07 -7.79576e-28)
(-2.34615e-07 -3.669e-07 6.72163e-28)
(-2.79271e-07 -3.59747e-07 1.84374e-27)
(-3.26073e-07 -3.44492e-07 -4.11751e-27)
(-3.74856e-07 -3.20348e-07 -5.61711e-27)
(-4.2551e-07 -2.8651e-07 -7.46659e-28)
(-4.77998e-07 -2.4213e-07 7.47585e-27)
(-5.32362e-07 -1.86282e-07 9.24966e-27)
(-1.60196e-07 -7.11596e-08 -2.07518e-27)
(-2.38819e-07 -3.09921e-07 -3.29399e-27)
(-2.24852e-07 -3.66198e-07 8.59307e-28)
(-2.13422e-07 -4.10951e-07 -6.50332e-27)
(-2.04319e-07 -4.45123e-07 1.96028e-27)
(-1.97263e-07 -4.69577e-07 9.51231e-27)
(-1.91916e-07 -4.8513e-07 -2.40798e-27)
(-1.879e-07 -4.9258e-07 -7.5056e-27)
(-1.84814e-07 -4.92716e-07 -4.70202e-28)
(-1.82262e-07 -4.86322e-07 1.68701e-27)
(-1.7987e-07 -4.74169e-07 5.96147e-27)
(-1.77308e-07 -4.57006e-07 2.71197e-27)
(-1.74313e-07 -4.35538e-07 -6.19904e-27)
(-1.70706e-07 -4.10405e-07 -6.32272e-27)
(-1.66416e-07 -3.82152e-07 -2.34632e-27)
(-1.61527e-07 -3.51191e-07 -2.16822e-27)
(-1.56313e-07 -3.17746e-07 5.83836e-27)
(-1.51333e-07 -2.81803e-07 2.11739e-26)
(-1.47476e-07 -2.42982e-07 -1.45849e-26)
(-1.46123e-07 -2.00566e-07 1.46007e-26)
(-1.48717e-07 -1.53124e-07 1.80184e-26)
(-1.55672e-07 -9.95244e-08 -1.81226e-26)
(-5.89798e-07 -1.165e-07 -6.89358e-27)
(-2.5581e-07 -2.39627e-07 -1.55065e-27)
(-1.49647e-06 1.32813e-05 -2.78673e-26)
(-1.42188e-06 1.3061e-05 -2.68069e-26)
(-1.41329e-06 1.2764e-05 -2.36143e-26)
(-1.40699e-06 1.24608e-05 -1.48435e-26)
(-1.40325e-06 1.21564e-05 1.42965e-28)
(-1.40121e-06 1.18535e-05 1.61976e-26)
(-1.40006e-06 1.15537e-05 2.46051e-26)
(-1.39904e-06 1.12579e-05 1.5579e-26)
(-1.39753e-06 1.09666e-05 5.24015e-27)
(-1.39509e-06 1.06797e-05 -4.57173e-27)
(-1.39138e-06 1.03971e-05 -2.17611e-27)
(-1.3862e-06 1.01184e-05 -2.22879e-26)
(-1.37942e-06 9.84345e-06 -3.13739e-27)
(-1.371e-06 9.57181e-06 1.40778e-26)
(-1.36092e-06 9.30317e-06 5.32526e-27)
(-1.3492e-06 9.03723e-06 -5.03745e-27)
(-1.3359e-06 8.77371e-06 -1.93351e-27)
(-1.32107e-06 8.5124e-06 1.96707e-26)
(-1.30477e-06 8.25306e-06 1.36926e-26)
(-1.28709e-06 7.99554e-06 1.42708e-27)
(-1.26809e-06 7.73967e-06 4.33277e-27)
(-1.24786e-06 7.48534e-06 3.58725e-28)
(-1.2265e-06 7.23244e-06 3.21504e-27)
(-1.20409e-06 6.98089e-06 5.52239e-27)
(-1.18074e-06 6.73066e-06 -4.6477e-27)
(-1.15654e-06 6.48169e-06 -1.93665e-27)
(-1.13159e-06 6.23399e-06 2.06017e-27)
(-1.106e-06 5.98756e-06 -6.5913e-28)
(-1.07987e-06 5.74246e-06 -2.09321e-27)
(-1.05329e-06 5.49873e-06 -6.71955e-27)
(-1.02637e-06 5.25648e-06 -2.81913e-27)
(-9.99199e-07 5.0158e-06 1.48306e-27)
(-9.71853e-07 4.77682e-06 2.04648e-27)
(-9.44411e-07 4.53972e-06 -3.55102e-28)
(-9.16941e-07 4.30466e-06 -2.1683e-27)
(-8.89498e-07 4.07184e-06 1.76851e-28)
(-8.62132e-07 3.84149e-06 -4.78599e-28)
(-8.34878e-07 3.61383e-06 -6.79861e-28)
(-8.07765e-07 3.38912e-06 -1.01295e-27)
(-7.8081e-07 3.16762e-06 -1.07174e-27)
(-7.54024e-07 2.9496e-06 8.71707e-28)
(-7.2741e-07 2.73534e-06 1.5818e-27)
(-7.00968e-07 2.52514e-06 -1.2473e-27)
(-6.74689e-07 2.31929e-06 -7.19439e-28)
(-6.48567e-07 2.11808e-06 1.00281e-27)
(-6.22589e-07 1.9218e-06 -5.87483e-28)
(-5.96747e-07 1.73075e-06 -8.74346e-28)
(-5.71028e-07 1.54522e-06 1.9779e-28)
(-5.45423e-07 1.3655e-06 -1.2643e-27)
(-5.19925e-07 1.19186e-06 -2.09189e-27)
(-4.94529e-07 1.02457e-06 3.83162e-28)
(-4.69235e-07 8.63901e-07 4.1945e-27)
(-4.4405e-07 7.10096e-07 -2.94395e-27)
(-4.18993e-07 5.63393e-07 -8.86979e-27)
(-3.94102e-07 4.24027e-07 8.63824e-28)
(-3.6944e-07 2.92229e-07 3.0814e-27)
(-3.45109e-07 1.68247e-07 -2.49613e-27)
(-3.21261e-07 5.23695e-08 5.88719e-27)
(-2.98114e-07 -5.50449e-08 4.94049e-27)
(-2.75959e-07 -1.53512e-07 -4.93039e-27)
(-1.9697e-06 1.3367e-05 8.54381e-28)
(-1.70158e-06 1.33604e-05 -1.62561e-27)
(-2.44621e-06 1.32928e-05 4.41947e-27)
(-2.23841e-06 1.33673e-05 -1.10612e-28)
(-6.50485e-07 -3.10014e-08 -3.75152e-27)
(-7.11422e-07 6.6761e-08 3.07721e-27)
(-7.70834e-07 1.734e-07 -3.15965e-27)
(-8.28964e-07 2.88432e-07 -3.49345e-27)
(-8.85979e-07 4.11496e-07 2.73468e-27)
(-9.41982e-07 5.42311e-07 5.34959e-27)
(-9.97029e-07 6.80632e-07 2.31726e-28)
(-1.05114e-06 8.26234e-07 -3.7351e-27)
(-1.10432e-06 9.78892e-07 -3.4191e-28)
(-1.15655e-06 1.13838e-06 2.53853e-27)
(-1.20782e-06 1.30445e-06 9.94442e-28)
(-1.2581e-06 1.47687e-06 6.32626e-28)
(-1.30738e-06 1.65538e-06 -3.21064e-28)
(-1.35564e-06 1.83971e-06 -1.64508e-27)
(-1.40287e-06 2.02959e-06 1.71245e-29)
(-1.44908e-06 2.22474e-06 -1.02836e-27)
(-1.49426e-06 2.42489e-06 -1.93197e-27)
(-1.53841e-06 2.62974e-06 1.74884e-27)
(-1.58155e-06 2.83902e-06 6.8671e-29)
(-1.62369e-06 3.05243e-06 -5.05134e-28)
(-1.66485e-06 3.26968e-06 -7.16498e-28)
(-1.70504e-06 3.49048e-06 -6.69971e-28)
(-1.74428e-06 3.71455e-06 2.86356e-28)
(-1.7826e-06 3.94162e-06 7.51153e-28)
(-1.82001e-06 4.17142e-06 1.90852e-27)
(-1.85654e-06 4.40368e-06 1.13432e-28)
(-1.89219e-06 4.63817e-06 -6.19581e-28)
(-1.927e-06 4.87466e-06 -2.69726e-27)
(-1.96096e-06 5.11294e-06 -5.38805e-28)
(-1.99409e-06 5.35284e-06 2.16425e-27)
(-2.02639e-06 5.59418e-06 -2.3191e-27)
(-2.05787e-06 5.83684e-06 -1.15851e-26)
(-2.08852e-06 6.08072e-06 1.48308e-28)
(-2.11836e-06 6.32572e-06 6.86005e-27)
(-2.14736e-06 6.57181e-06 -9.44531e-28)
(-2.17552e-06 6.81896e-06 -2.33733e-28)
(-2.20284e-06 7.06718e-06 1.99064e-27)
(-2.22931e-06 7.3165e-06 -4.68033e-28)
(-2.25492e-06 7.56698e-06 -2.55752e-27)
(-2.27968e-06 7.81871e-06 5.12055e-27)
(-2.30358e-06 8.07181e-06 2.32201e-27)
(-2.32663e-06 8.32641e-06 7.89118e-27)
(-2.34883e-06 8.5827e-06 -2.49657e-27)
(-2.3702e-06 8.84085e-06 6.98238e-27)
(-2.39075e-06 9.1011e-06 2.4248e-26)
(-2.41048e-06 9.3637e-06 -1.29346e-26)
(-2.42941e-06 9.62893e-06 -1.65666e-26)
(-2.44751e-06 9.89712e-06 1.65994e-26)
(-2.46476e-06 1.01686e-05 9.87548e-27)
(-2.48106e-06 1.04437e-05 4.10944e-27)
(-2.49627e-06 1.07228e-05 9.4365e-27)
(-2.51015e-06 1.10061e-05 -1.53485e-26)
(-2.52233e-06 1.12938e-05 5.66619e-27)
(-2.53231e-06 1.15859e-05 2.34025e-26)
(-2.53942e-06 1.18819e-05 -5.67741e-28)
(-2.54285e-06 1.21811e-05 -8.81011e-27)
(-2.54178e-06 1.24816e-05 -2.07171e-26)
(-2.53548e-06 1.27808e-05 -3.48981e-27)
(-2.52458e-06 1.30748e-05 1.75017e-26)
(8.34198e-08 -2.85692e-08 1.57705e-26)
(8.10691e-08 -4.40672e-08 3.25947e-29)
(7.58609e-08 -7.49159e-08 -1.42213e-26)
(6.94553e-08 -1.05643e-07 1.54169e-26)
(6.128e-08 -1.36458e-07 2.01157e-26)
(5.06549e-08 -1.67335e-07 -7.15764e-27)
(3.70819e-08 -1.98042e-07 -2.52503e-26)
(2.02362e-08 -2.28161e-07 5.84535e-27)
(-5.69049e-11 -2.57142e-07 1.05466e-26)
(-2.38575e-08 -2.84329e-07 -2.40034e-26)
(-5.11355e-08 -3.08998e-07 1.34617e-26)
(-8.17917e-08 -3.30377e-07 1.64389e-26)
(-1.15673e-07 -3.47668e-07 -1.3415e-26)
(-1.52586e-07 -3.6006e-07 -9.71586e-27)
(-1.9231e-07 -3.66739e-07 -7.79576e-28)
(-2.34615e-07 -3.669e-07 6.72163e-28)
(-2.79271e-07 -3.59747e-07 1.84374e-27)
(-3.26073e-07 -3.44492e-07 -4.11751e-27)
(-3.74856e-07 -3.20348e-07 -5.61711e-27)
(-4.2551e-07 -2.8651e-07 -7.46659e-28)
(-4.77998e-07 -2.4213e-07 7.47585e-27)
(-5.32362e-07 -1.86282e-07 9.24966e-27)
(-1.60196e-07 -7.11596e-08 -2.07518e-27)
(-2.38819e-07 -3.09921e-07 -3.29399e-27)
(-2.24852e-07 -3.66198e-07 8.59307e-28)
(-2.13422e-07 -4.10951e-07 -6.50332e-27)
(-2.04319e-07 -4.45123e-07 1.96028e-27)
(-1.97263e-07 -4.69577e-07 9.51231e-27)
(-1.91916e-07 -4.8513e-07 -2.40798e-27)
(-1.879e-07 -4.9258e-07 -7.5056e-27)
(-1.84814e-07 -4.92716e-07 -4.70202e-28)
(-1.82262e-07 -4.86322e-07 1.68701e-27)
(-1.7987e-07 -4.74169e-07 5.96147e-27)
(-1.77308e-07 -4.57006e-07 2.71197e-27)
(-1.74313e-07 -4.35538e-07 -6.19904e-27)
(-1.70706e-07 -4.10405e-07 -6.32272e-27)
(-1.66416e-07 -3.82152e-07 -2.34632e-27)
(-1.61527e-07 -3.51191e-07 -2.16822e-27)
(-1.56313e-07 -3.17746e-07 5.83836e-27)
(-1.51333e-07 -2.81803e-07 2.11739e-26)
(-1.47476e-07 -2.42982e-07 -1.45849e-26)
(-1.46123e-07 -2.00566e-07 1.46007e-26)
(-1.48717e-07 -1.53124e-07 1.80184e-26)
(-1.55672e-07 -9.95244e-08 -1.81226e-26)
)


// ************************************************************************* //
