/*--------------------------------*- C++ -*----------------------------------*\
| =========                 |                                                 |
| \\      /  F ield         | OpenFOAM Extend Project: Open source CFD        |
|  \\    /   O peration     | Version:  1.6-ext                               |
|   \\  /    A nd           | Web:      www.extend-project.de                 |
|    \\/     M anipulation  |                                                 |
\*---------------------------------------------------------------------------*/
FoamFile
{
    version     2.0;
    format      ascii;
    class       tetPointVectorField;
    location    "0.55";
    object      motionU;
}
// * * * * * * * * * * * * * * * * * * * * * * * * * * * * * * * * * * * * * //

dimensions      [0 1 -1 0 0 0 0];

internalField   nonuniform List<vector> 
147960
(
(0 0 0)
(-0.000645943 0.000239894 0)
(-0.0032597 0.00200924 -2.75256e-25)
(-0.00255176 0.0012626 -4.45672e-24)
(-0.0126683 0.0229819 3.50362e-24)
(-0.012573 0.0226993 -8.62788e-24)
(-0.012567 0.0223221 -2.69949e-23)
(-0.0125538 0.0219469 -2.41998e-24)
(-0.0125326 0.0215735 -1.58583e-23)
(-0.0125033 0.021201 -5.66536e-24)
(-0.0124657 0.0208287 1.32669e-23)
(-0.01242 0.0204558 -2.03932e-23)
(-0.0123664 0.0200818 -9.56422e-24)
(-0.0123049 0.0197063 -2.47507e-23)
(-0.0122357 0.0193288 -3.65364e-23)
(-0.012159 0.018949 -1.07538e-23)
(-0.0120748 0.0185667 1.27459e-23)
(-0.0119832 0.0181816 1.27769e-23)
(-0.0118845 0.0177936 -1.43985e-23)
(-0.0117787 0.0174024 -5.44065e-25)
(-0.011666 0.0170081 4.90422e-24)
(-0.0115465 0.0166105 -1.02202e-23)
(-0.0114205 0.0162097 1.33006e-23)
(-0.0112881 0.0158056 1.34177e-23)
(-0.0111494 0.0153985 7.45744e-24)
(-0.0110048 0.0149883 -4.00614e-25)
(-0.0108544 0.0145753 -4.19523e-24)
(-0.0106986 0.0141598 -3.32359e-25)
(-0.0105374 0.013742 -5.51031e-24)
(-0.0103713 0.0133223 5.18689e-24)
(-0.0102003 0.0129011 1.62811e-23)
(-0.0100249 0.0124787 1.03542e-23)
(-0.00984512 0.0120557 -2.32279e-24)
(-0.00966129 0.0116325 5.4392e-24)
(-0.00947361 0.0112097 7.78652e-24)
(-0.00928228 0.0107878 -1.24954e-24)
(-0.00908746 0.0103673 4.74151e-24)
(-0.00888932 0.00994896 2.92196e-24)
(-0.00868799 0.00953322 -3.71692e-24)
(-0.0084836 0.0091207 -1.46221e-24)
(-0.00827623 0.00871197 6.47648e-26)
(-0.00806596 0.0083076 8.94537e-25)
(-0.00785285 0.00790814 -2.20591e-25)
(-0.00763695 0.00751412 -9.68144e-25)
(-0.00741829 0.00712606 4.39627e-25)
(-0.00719691 0.00674446 2.35191e-26)
(-0.00697283 0.00636977 7.77736e-25)
(-0.00674607 0.00600245 1.81155e-26)
(-0.00651667 0.00564294 -1.50014e-24)
(-0.00628467 0.00529162 3.87618e-25)
(-0.00605012 0.00494891 -1.87608e-24)
(-0.00581306 0.00461517 -7.79579e-25)
(-0.00557359 0.00429078 3.33116e-24)
(-0.00533178 0.0039761 2.2984e-24)
(-0.00508773 0.00367148 2.56559e-25)
(-0.00484155 0.00337731 -4.12197e-24)
(-0.00459334 0.00309393 -3.50543e-25)
(-0.00434324 0.00282174 1.40406e-24)
(-0.00409132 0.00256109 4.66547e-25)
(-0.00383768 0.00231236 3.46942e-24)
(-0.00358236 0.00207589 1.75877e-24)
(-0.00332536 0.00185196 1.7861e-24)
(-0.0030666 0.00164079 2.06013e-24)
(-0.00280594 0.00144243 -3.39078e-24)
(-0.0133303 0.0230756 -1.03325e-23)
(-0.0129517 0.0230754 9.423e-24)
(-0.0139859 0.0229882 -4.09687e-25)
(-0.0137065 0.0230777 -7.96501e-24)
(-0.00356003 0.00218511 7.23441e-25)
(-0.00386946 0.00237899 3.36278e-24)
(-0.00417734 0.00258529 1.99156e-24)
(-0.0044832 0.00280393 -6.14746e-24)
(-0.0047867 0.00303473 5.37548e-25)
(-0.00508753 0.00327741 5.13486e-25)
(-0.00538546 0.00353163 1.04815e-24)
(-0.00568031 0.00379704 1.86823e-24)
(-0.0059719 0.00407329 1.10051e-24)
(-0.0062601 0.00436003 5.43189e-25)
(-0.00654479 0.00465691 -2.01273e-24)
(-0.00682584 0.0049636 2.25422e-25)
(-0.00710315 0.00527977 9.8027e-25)
(-0.00737661 0.00560508 -2.78528e-25)
(-0.00764611 0.00593918 -1.99504e-24)
(-0.00791154 0.00628174 -9.8186e-26)
(-0.00817279 0.00663237 2.83112e-24)
(-0.00842976 0.0069907 -1.64692e-24)
(-0.00868231 0.0073563 -1.13522e-24)
(-0.00893036 0.00772873 4.30047e-27)
(-0.00917376 0.00810753 -1.20226e-24)
(-0.00941241 0.00849218 -5.67752e-25)
(-0.00964619 0.00888216 1.12713e-24)
(-0.00987497 0.00927691 -1.93076e-25)
(-0.0100986 0.00967585 9.55791e-25)
(-0.010317 0.0100784 1.99017e-24)
(-0.0105301 0.0104838 4.20515e-24)
(-0.0107376 0.0108916 6.90485e-24)
(-0.0109396 0.0113011 -3.21333e-25)
(-0.0111358 0.0117117 -9.80453e-24)
(-0.0113261 0.0121228 -6.53502e-24)
(-0.0115105 0.0125338 1.82109e-24)
(-0.0116889 0.0129441 -7.85942e-25)
(-0.011861 0.0133532 7.11984e-24)
(-0.012027 0.0137607 3.7522e-24)
(-0.0121866 0.0141661 3.38746e-24)
(-0.0123398 0.0145691 -3.73665e-24)
(-0.0124866 0.0149692 -3.07295e-24)
(-0.0126269 0.0153664 4.66314e-24)
(-0.0127607 0.0157603 3.53778e-24)
(-0.0128879 0.0161507 -5.0928e-24)
(-0.0130086 0.0165377 -1.9607e-23)
(-0.0131227 0.0169212 2.56409e-23)
(-0.0132302 0.017301 4.08653e-23)
(-0.0133312 0.0176774 4.84679e-24)
(-0.0134255 0.0180504 -1.94688e-23)
(-0.0135134 0.0184201 -8.13596e-24)
(-0.0135948 0.0187867 3.48567e-23)
(-0.0136696 0.0191505 3.37178e-23)
(-0.0137381 0.0195116 2.70185e-23)
(-0.0138001 0.0198704 1.49742e-23)
(-0.0138558 0.0202272 -2.60337e-23)
(-0.0139052 0.0205823 5.13111e-24)
(-0.0139484 0.0209364 2.93227e-23)
(-0.0139855 0.0212898 -1.54815e-23)
(-0.0140166 0.0216434 -1.35968e-23)
(-0.0140415 0.021998 2.11717e-24)
(-0.0140607 0.0223545 -2.02545e-23)
(-0.0140736 0.0227152 -2.84595e-23)
(-0.0129009 0.0198774 0)
(-0.0139995 0.0228031 0)
(-0.0139677 0.0226769 0)
(-0.0139328 0.022542 0)
(-0.0138916 0.0223942 0)
(-0.0138413 0.0222345 0)
(-0.0137826 0.0220624 0)
(-0.0137148 0.021878 0)
(-0.013638 0.0216801 0)
(-0.0135545 0.021469 0)
(-0.0134622 0.0212431 0)
(-0.0133642 0.0210021 0)
(-0.0132606 0.0207464 0)
(-0.0131479 0.020473 0)
(-0.01303 0.0201833 0)
(-0.00251174 0.0016227 0)
(-0.00275419 0.0017964 0)
(-0.00300442 0.00197851 0)
(-0.00326079 0.00216892 0)
(-0.00352311 0.0023683 0)
(-0.00379037 0.00257691 0)
(-0.00406055 0.00279418 0)
(-0.00433289 0.00302028 0)
(-0.00460659 0.0032553 0)
(-0.00488082 0.00349942 0)
(-0.00515504 0.00375288 0)
(-0.00542881 0.00401578 0)
(-0.00570172 0.00428804 0)
(-0.00597321 0.00456943 0)
(-0.00624275 0.00485968 0)
(-0.00651003 0.00515857 0)
(-0.00677479 0.00546596 0)
(-0.00703672 0.00578161 0)
(-0.00729547 0.00610521 0)
(-0.00755059 0.00643624 0)
(-0.00780237 0.00677513 0)
(-0.00805046 0.00712141 0)
(-0.00829394 0.00747367 0)
(-0.00853264 0.00783166 0)
(-0.00876651 0.00819504 0)
(-0.0089955 0.00856335 0)
(-0.00921949 0.00893609 0)
(-0.00943821 0.00931276 0)
(-0.00965143 0.0096928 0)
(-0.00985912 0.0100756 0)
(-0.0100614 0.0104607 0)
(-0.0102579 0.0108476 0)
(-0.0104483 0.0112355 0)
(-0.0106327 0.011624 0)
(-0.0108112 0.0120126 0)
(-0.0109834 0.0124004 0)
(-0.011149 0.012788 0)
(-0.0113085 0.0131752 0)
(-0.0114619 0.0135603 0)
(-0.0116083 0.0139425 0)
(-0.0117475 0.0143214 0)
(-0.0118802 0.0146963 0)
(-0.012006 0.0150669 0)
(-0.0121243 0.0154326 0)
(-0.0122351 0.0157928 0)
(-0.0123393 0.0161469 0)
(-0.0124362 0.016494 0)
(-0.0125246 0.0168331 0)
(-0.0126057 0.0171632 0)
(-0.0126793 0.0174833 0)
(-0.0127445 0.0177922 0)
(-0.0128019 0.0180885 0)
(-0.0128498 0.0183705 0)
(-0.0128893 0.0186361 0)
(-0.0129202 0.0188835 0)
(-0.0129414 0.0191106 0)
(-0.0129533 0.0193155 0)
(-0.0129551 0.0194964 0)
(-0.0129474 0.0196513 0)
(-0.012929 0.0197789 0)
(-0.0116211 0.0196747 0)
(-0.0117785 0.0200061 0)
(-0.011919 0.0203182 0)
(-0.0120447 0.0206126 0)
(-0.0121561 0.020887 0)
(-0.0122549 0.0211438 0)
(-0.0123416 0.0213849 0)
(-0.0124175 0.0216093 0)
(-0.0124831 0.0218184 0)
(-0.0125376 0.0220137 0)
(-0.0125825 0.0221947 0)
(-0.0126161 0.0223627 0)
(-0.0126384 0.0225176 0)
(-0.0126486 0.0226588 0)
(-0.0126434 0.0227903 0)
(-0.00193085 0.00115308 0)
(-0.00252015 0.00125023 0)
(-0.0024832 0.00124224 0)
(-0.00243989 0.00123586 0)
(-0.00239192 0.00123133 0)
(-0.00234173 0.00122761 0)
(-0.00229107 0.00122481 0)
(-0.00224057 0.00122271 0)
(-0.00219126 0.00121971 0)
(-0.00214498 0.00121689 0)
(-0.00210201 0.00121327 0)
(-0.00206187 0.00120684 0)
(-0.00202465 0.00119851 0)
(-0.0019913 0.00118663 0)
(-0.00196021 0.00117083 0)
(-0.0116068 0.0195731 0)
(-0.0115849 0.0194413 0)
(-0.0115551 0.0192808 0)
(-0.0115178 0.0190932 0)
(-0.0114732 0.0188805 0)
(-0.0114226 0.0186446 0)
(-0.0113653 0.0183877 0)
(-0.011302 0.0181118 0)
(-0.0112324 0.0178189 0)
(-0.0111556 0.0175113 0)
(-0.0110729 0.0171906 0)
(-0.0109838 0.0168586 0)
(-0.0108893 0.0165163 0)
(-0.0107886 0.0161649 0)
(-0.0106809 0.0158055 0)
(-0.0105675 0.0154391 0)
(-0.010449 0.0150666 0)
(-0.0103241 0.0146888 0)
(-0.0101931 0.0143062 0)
(-0.0100569 0.0139195 0)
(-0.00991532 0.0135291 0)
(-0.00976798 0.0131356 0)
(-0.00961537 0.0127395 0)
(-0.0094582 0.0123416 0)
(-0.00929627 0.0119437 0)
(-0.00912934 0.0115459 0)
(-0.00895779 0.0111475 0)
(-0.00878194 0.0107496 0)
(-0.00860168 0.0103526 0)
(-0.00841711 0.00995702 0)
(-0.00822864 0.00956344 0)
(-0.00803651 0.00917242 0)
(-0.00784073 0.0087845 0)
(-0.00764142 0.00840024 0)
(-0.00743886 0.00802021 0)
(-0.00723326 0.00764491 0)
(-0.00702478 0.00727486 0)
(-0.00681345 0.00691052 0)
(-0.00659926 0.00655226 0)
(-0.00638228 0.00620033 0)
(-0.00616315 0.00585623 0)
(-0.00594225 0.00552047 0)
(-0.00571942 0.00519263 0)
(-0.00549491 0.00487331 0)
(-0.00526886 0.00456288 0)
(-0.00504139 0.00426165 0)
(-0.0048127 0.00396986 0)
(-0.00458312 0.00368784 0)
(-0.00435296 0.00341597 0)
(-0.00412251 0.00315467 0)
(-0.00389207 0.00290418 0)
(-0.00366215 0.0026646 0)
(-0.00343327 0.00243593 0)
(-0.00320604 0.0022182 0)
(-0.00298108 0.00201155 0)
(-0.00275915 0.00181614 0)
(-0.00254214 0.0016327 0)
(-0.00233121 0.00146119 0)
(-0.00212692 0.00130119 0)
(-0.00216506 0.00132286 0)
(-0.00220562 0.00134388 0)
(-0.00224829 0.00135909 0)
(-0.00229312 0.00137023 0)
(-0.00234062 0.00138128 0)
(-0.00239071 0.00138852 0)
(-0.00244288 0.00139428 0)
(-0.00249654 0.00140062 0)
(-0.00255058 0.0014047 0)
(-0.00260419 0.00140981 0)
(-0.00265613 0.00141501 0)
(-0.00270451 0.0014203 0)
(-0.00274726 0.00142703 0)
(-0.00278234 0.00143472 0)
(-0.0023787 0.00148811 0)
(-0.00242764 0.00151315 0)
(-0.00247809 0.00153096 0)
(-0.00253025 0.00154645 0)
(-0.002584 0.00156126 0)
(-0.00263967 0.00157144 0)
(-0.00269662 0.00158108 0)
(-0.00275404 0.00158993 0)
(-0.00281086 0.00159638 0)
(-0.00286637 0.00160377 0)
(-0.00291899 0.00161012 0)
(-0.00296709 0.00161643 0)
(-0.00300888 0.00162371 0)
(-0.00304248 0.00163157 0)
(-0.00259808 0.00166477 0)
(-0.00265496 0.00169368 0)
(-0.00271263 0.00171473 0)
(-0.00277123 0.00173466 0)
(-0.00283025 0.00175275 0)
(-0.00289052 0.00176602 0)
(-0.00295148 0.00177943 0)
(-0.00301176 0.00179083 0)
(-0.00307047 0.00179969 0)
(-0.00312711 0.00180913 0)
(-0.00317996 0.00181694 0)
(-0.00322766 0.00182453 0)
(-0.00326866 0.00183287 0)
(-0.0033016 0.00184175 0)
(-0.00282312 0.00185357 0)
(-0.00288672 0.00188594 0)
(-0.00295069 0.00191046 0)
(-0.00301503 0.00193486 0)
(-0.00307922 0.00195665 0)
(-0.00314321 0.00197281 0)
(-0.00320677 0.00198951 0)
(-0.00326907 0.00200349 0)
(-0.003329 0.00201457 0)
(-0.00338626 0.0020263 0)
(-0.00343912 0.00203584 0)
(-0.0034864 0.00204495 0)
(-0.0035268 0.00205468 0)
(-0.00355912 0.00206477 0)
(-0.00305187 0.00205392 0)
(-0.00312171 0.00208991 0)
(-0.0031913 0.00211795 0)
(-0.00326052 0.0021467 0)
(-0.00332888 0.00217204 0)
(-0.003396 0.00219116 0)
(-0.00346176 0.00221108 0)
(-0.00352558 0.00222796 0)
(-0.0035863 0.00224137 0)
(-0.00364385 0.00225527 0)
(-0.00369656 0.00226688 0)
(-0.0037434 0.00227777 0)
(-0.00378324 0.002289 0)
(-0.00381497 0.00230034 0)
(-0.00328331 0.00226568 0)
(-0.00335889 0.00230547 0)
(-0.00343353 0.00233697 0)
(-0.0035069 0.0023699 0)
(-0.00357864 0.00239894 0)
(-0.00364839 0.00242116 0)
(-0.00371598 0.00244427 0)
(-0.00378095 0.00246412 0)
(-0.00384219 0.00248008 0)
(-0.00389976 0.00249618 0)
(-0.00395224 0.00250987 0)
(-0.00399868 0.00252277 0)
(-0.00403796 0.00253562 0)
(-0.00406911 0.00254821 0)
(-0.00351655 0.00248858 0)
(-0.00359743 0.00253248 0)
(-0.00367655 0.00256741 0)
(-0.00375351 0.0026043 0)
(-0.00382812 0.00263729 0)
(-0.00390012 0.00266285 0)
(-0.0039692 0.00268905 0)
(-0.00403501 0.00271196 0)
(-0.00409651 0.00273058 0)
(-0.00415371 0.00274876 0)
(-0.00420604 0.00276465 0)
(-0.00425222 0.00277974 0)
(-0.00429093 0.00279423 0)
(-0.00432151 0.00280804 0)
(-0.00375094 0.00272241 0)
(-0.00383656 0.00277077 0)
(-0.00391975 0.00280931 0)
(-0.00399966 0.00284971 0)
(-0.0040769 0.00288674 0)
(-0.004151 0.00291623 0)
(-0.00422126 0.00294549 0)
(-0.00428768 0.00297134 0)
(-0.00434939 0.00299287 0)
(-0.00440685 0.00301395 0)
(-0.00445867 0.0030318 0)
(-0.00450399 0.00304849 0)
(-0.00454208 0.00306448 0)
(-0.00457209 0.00307947 0)
(-0.003986 0.00296701 0)
(-0.00407593 0.00302018 0)
(-0.00416279 0.00306277 0)
(-0.00424599 0.00310726 0)
(-0.00432546 0.00314805 0)
(-0.00440076 0.003181 0)
(-0.00447192 0.00321347 0)
(-0.0045388 0.00324218 0)
(-0.0046006 0.00326651 0)
(-0.0046579 0.00329016 0)
(-0.00470919 0.00331015 0)
(-0.00475386 0.00332861 0)
(-0.00479131 0.00334605 0)
(-0.00482076 0.00336215 0)
(-0.00422119 0.00322231 0)
(-0.00431512 0.00328039 0)
(-0.00440532 0.00332738 0)
(-0.00449118 0.00337569 0)
(-0.00457255 0.00342013 0)
(-0.00464906 0.00345671 0)
(-0.00472094 0.00349254 0)
(-0.00478816 0.00352424 0)
(-0.00484993 0.00355124 0)
(-0.00490692 0.0035773 0)
(-0.00495767 0.00359945 0)
(-0.0050017 0.0036197 0)
(-0.00503854 0.00363857 0)
(-0.00506741 0.00365569 0)
(-0.00445609 0.00348823 0)
(-0.00455369 0.00355105 0)
(-0.00464689 0.00360256 0)
(-0.00473509 0.00365485 0)
(-0.0048182 0.00370299 0)
(-0.00489579 0.00374316 0)
(-0.00496823 0.00378233 0)
(-0.00503564 0.00381707 0)
(-0.00509725 0.00384677 0)
(-0.00515386 0.00387519 0)
(-0.00520405 0.00389942 0)
(-0.00524744 0.00392142 0)
(-0.00528364 0.00394164 0)
(-0.00531194 0.00395973 0)
(-0.00469032 0.00376468 0)
(-0.00479133 0.00383197 0)
(-0.00488701 0.00388775 0)
(-0.00497751 0.00394432 0)
(-0.00506232 0.00399656 0)
(-0.00514081 0.00404023 0)
(-0.00521368 0.00408261 0)
(-0.00528113 0.00412031 0)
(-0.00534248 0.00415272 0)
(-0.00539866 0.00418348 0)
(-0.00544825 0.00420975 0)
(-0.00549099 0.00423341 0)
(-0.00552653 0.00425492 0)
(-0.00555424 0.0042739 0)
(-0.0049237 0.00405146 0)
(-0.00502793 0.00412327 0)
(-0.0051265 0.00418399 0)
(-0.005219 0.00424477 0)
(-0.00530479 0.00430051 0)
(-0.00538396 0.00434762 0)
(-0.00545713 0.00439314 0)
(-0.00552453 0.00443371 0)
(-0.00558552 0.00446875 0)
(-0.00564122 0.00450178 0)
(-0.00569019 0.00453004 0)
(-0.00573225 0.00455531 0)
(-0.00576712 0.00457803 0)
(-0.00579421 0.00459784 0)
(-0.00515601 0.00434819 0)
(-0.00526317 0.00442455 0)
(-0.00536417 0.00448974 0)
(-0.00545847 0.00455472 0)
(-0.00554536 0.00461427 0)
(-0.00562512 0.00466489 0)
(-0.00569844 0.00471352 0)
(-0.00576568 0.00475691 0)
(-0.00582626 0.0047945 0)
(-0.00588143 0.00482974 0)
(-0.00592976 0.00485992 0)
(-0.00597111 0.00488673 0)
(-0.00600529 0.00491061 0)
(-0.00603176 0.00493118 0)
(-0.00538689 0.00465437 0)
(-0.00549655 0.00473504 0)
(-0.00559997 0.0048048 0)
(-0.00569604 0.00487423 0)
(-0.00578393 0.00493753 0)
(-0.00586413 0.00499162 0)
(-0.0059375 0.00504334 0)
(-0.00600449 0.0050895 0)
(-0.00606459 0.00512956 0)
(-0.0061192 0.00516694 0)
(-0.00616685 0.005199 0)
(-0.00620749 0.00522731 0)
(-0.00624098 0.00525227 0)
(-0.00626682 0.00527355 0)
(-0.00561629 0.00496986 0)
(-0.0057289 0.00505573 0)
(-0.00583454 0.00513002 0)
(-0.00593168 0.00520311 0)
(-0.00602035 0.00527 0)
(-0.00610089 0.00532747 0)
(-0.00617422 0.00538221 0)
(-0.00624089 0.00543105 0)
(-0.00630042 0.00547347 0)
(-0.00635441 0.00551293 0)
(-0.0064014 0.00554689 0)
(-0.00644132 0.00557665 0)
(-0.00647412 0.00560263 0)
(-0.00649933 0.00562456 0)
(-0.00584396 0.00529419 0)
(-0.00595917 0.00538486 0)
(-0.00606678 0.00546373 0)
(-0.00616516 0.00554081 0)
(-0.00625453 0.00561128 0)
(-0.00633531 0.00567212 0)
(-0.00640854 0.00572982 0)
(-0.00647481 0.00578123 0)
(-0.00653346 0.00582558 0)
(-0.00658695 0.00586721 0)
(-0.0066334 0.00590327 0)
(-0.00667258 0.00593439 0)
(-0.00670466 0.00596131 0)
(-0.00672924 0.00598382 0)
(-0.00606942 0.00562656 0)
(-0.00618729 0.00572213 0)
(-0.00629683 0.00580586 0)
(-0.00639637 0.00588692 0)
(-0.00648637 0.00596096 0)
(-0.00656731 0.00602515 0)
(-0.0066404 0.0060858 0)
(-0.00670634 0.00613993 0)
(-0.00676475 0.00618719 0)
(-0.0068175 0.00623056 0)
(-0.00686287 0.0062678 0)
(-0.00690122 0.00630009 0)
(-0.00693256 0.00632787 0)
(-0.00695651 0.00635092 0)
(-0.00629354 0.00596802 0)
(-0.00641386 0.0060684 0)
(-0.00652465 0.00615617 0)
(-0.00662516 0.00624105 0)
(-0.00671569 0.0063186 0)
(-0.00679674 0.0063861 0)
(-0.00686967 0.00644967 0)
(-0.00693527 0.00650645 0)
(-0.00699312 0.00655608 0)
(-0.00704513 0.00660123 0)
(-0.00708965 0.00663989 0)
(-0.00712719 0.00667331 0)
(-0.00715779 0.00670189 0)
(-0.0071811 0.00672543 0)
(-0.00651543 0.00631687 0)
(-0.00663784 0.00642203 0)
(-0.00674999 0.00651407 0)
(-0.00685137 0.00660273 0)
(-0.00694236 0.00668372 0)
(-0.00702349 0.00675447 0)
(-0.00709624 0.00682087 0)
(-0.00716142 0.00688017 0)
(-0.00721864 0.00693201 0)
(-0.00726994 0.00697895 0)
(-0.00731367 0.00701905 0)
(-0.00735043 0.00705357 0)
(-0.00738031 0.00708291 0)
(-0.00740298 0.00710689 0)
(-0.00673523 0.00667366 0)
(-0.00685921 0.00678281 0)
(-0.00697264 0.00687903 0)
(-0.00707485 0.00697142 0)
(-0.00716624 0.00705581 0)
(-0.00724745 0.00712974 0)
(-0.00732001 0.00719888 0)
(-0.00738474 0.0072606 0)
(-0.00744133 0.00731458 0)
(-0.00749193 0.00736328 0)
(-0.0075349 0.0074048 0)
(-0.0075709 0.00744039 0)
(-0.00760008 0.00747046 0)
(-0.00762213 0.00749485 0)
(-0.00695189 0.00703662 0)
(-0.00707769 0.0071501 0)
(-0.00719241 0.00725054 0)
(-0.00729543 0.00734663 0)
(-0.00738725 0.00743434 0)
(-0.00746852 0.00751139 0)
(-0.00754086 0.00758318 0)
(-0.00760513 0.00764724 0)
(-0.00766111 0.00770331 0)
(-0.00771105 0.00775374 0)
(-0.00775329 0.00779667 0)
(-0.00778857 0.00783329 0)
(-0.00781707 0.00786404 0)
(-0.00783852 0.00788879 0)
(-0.0071656 0.0074056 0)
(-0.0072932 0.00752345 0)
(-0.00740922 0.00762812 0)
(-0.00751307 0.00772786 0)
(-0.0076053 0.00781883 0)
(-0.0076866 0.00789893 0)
(-0.00775867 0.00797327 0)
(-0.00782247 0.00803953 0)
(-0.0078779 0.00809765 0)
(-0.00792726 0.00814984 0)
(-0.0079688 0.00819415 0)
(-0.00800338 0.00823176 0)
(-0.00803123 0.00826314 0)
(-0.00805209 0.00828822 0)
(-0.0073764 0.00778025 0)
(-0.00750575 0.00790244 0)
(-0.00762303 0.0080113 0)
(-0.00772768 0.00811462 0)
(-0.00782029 0.00820881 0)
(-0.00790159 0.00829191 0)
(-0.00797335 0.0083687 0)
(-0.00803648 0.00843669 0)
(-0.00809156 0.00849697 0)
(-0.0081405 0.00855114 0)
(-0.00818138 0.00859674 0)
(-0.00821529 0.00863528 0)
(-0.00824251 0.00866723 0)
(-0.00826281 0.00869259 0)
(-0.00758422 0.00816008 0)
(-0.00771524 0.00828657 0)
(-0.00783373 0.00839959 0)
(-0.00793914 0.00850644 0)
(-0.00803209 0.00860379 0)
(-0.0081134 0.00868988 0)
(-0.00818501 0.00876924 0)
(-0.00824807 0.00883998 0)
(-0.00830266 0.00890205 0)
(-0.00835077 0.00895721 0)
(-0.00839097 0.00900393 0)
(-0.00842423 0.00904329 0)
(-0.00845084 0.00907576 0)
(-0.00847062 0.00910136 0)
(-0.00778888 0.0085446 0)
(-0.00792149 0.00867533 0)
(-0.00804115 0.00879247 0)
(-0.00814725 0.00890279 0)
(-0.00824056 0.00900322 0)
(-0.00832194 0.00909224 0)
(-0.00839345 0.00917409 0)
(-0.00845626 0.00924703 0)
(-0.00851035 0.00931089 0)
(-0.00855787 0.00936734 0)
(-0.00859746 0.00941511 0)
(-0.00863012 0.00945525 0)
(-0.00865616 0.00948817 0)
(-0.00867543 0.00951396 0)
(-0.00799018 0.00893326 0)
(-0.00812432 0.00906819 0)
(-0.00824511 0.0091894 0)
(-0.00835192 0.0093031 0)
(-0.0084456 0.00940653 0)
(-0.00852708 0.00949834 0)
(-0.00859845 0.00958245 0)
(-0.008661 0.00965745 0)
(-0.00871469 0.00972316 0)
(-0.00876173 0.00978093 0)
(-0.00880076 0.00982973 0)
(-0.00883286 0.00987056 0)
(-0.00885837 0.00990388 0)
(-0.00887716 0.00992981 0)
(-0.0081879 0.00932553 0)
(-0.00832359 0.0094646 0)
(-0.00844551 0.00958981 0)
(-0.00855306 0.00970682 0)
(-0.00864715 0.00981316 0)
(-0.00872869 0.00990765 0)
(-0.00879971 0.00999348 0)
(-0.0088622 0.0100707 0)
(-0.00891566 0.0101385 0)
(-0.00896224 0.0101975 0)
(-0.00900075 0.0102472 0)
(-0.00903233 0.0102887 0)
(-0.00905735 0.0103223 0)
(-0.00907569 0.0103483 0)
(-0.00838198 0.00972083 0)
(-0.00851918 0.00986399 0)
(-0.00864221 0.00999316 0)
(-0.00875051 0.0101134 0)
(-0.00884502 0.0102226 0)
(-0.00892673 0.0103199 0)
(-0.00899798 0.0104085 0)
(-0.00906034 0.0104875 0)
(-0.00911316 0.0105564 0)
(-0.00915927 0.0106164 0)
(-0.0091973 0.010667 0)
(-0.00922839 0.010709 0)
(-0.00925296 0.0107429 0)
(-0.00927087 0.010769 0)
(-0.00857233 0.0101186 0)
(-0.00871093 0.0102658 0)
(-0.00883497 0.0103989 0)
(-0.00894399 0.0105223 0)
(-0.00903894 0.0106343 0)
(-0.00912087 0.0107342 0)
(-0.00919225 0.0108251 0)
(-0.0092545 0.010906 0)
(-0.00930696 0.0109762 0)
(-0.00935267 0.0110372 0)
(-0.00939025 0.0110885 0)
(-0.00942089 0.011131 0)
(-0.00944504 0.0111651 0)
(-0.00946255 0.0111911 0)
(-0.00875862 0.0105184 0)
(-0.00889852 0.0106695 0)
(-0.00902359 0.0108065 0)
(-0.00913336 0.0109329 0)
(-0.00922876 0.0110476 0)
(-0.00931071 0.0111496 0)
(-0.00938241 0.0112429 0)
(-0.00944471 0.0113258 0)
(-0.00949689 0.0113974 0)
(-0.00954225 0.0114593 0)
(-0.00957942 0.0115112 0)
(-0.00960966 0.011554 0)
(-0.00963342 0.0115882 0)
(-0.00965056 0.0116142 0)
(-0.00894055 0.0109195 0)
(-0.00908182 0.0110746 0)
(-0.00920799 0.0112153 0)
(-0.00931855 0.0113448 0)
(-0.00941448 0.0114622 0)
(-0.00949698 0.0115674 0)
(-0.00956893 0.0116628 0)
(-0.00963087 0.0117468 0)
(-0.00968275 0.0118195 0)
(-0.00972781 0.0118821 0)
(-0.00976463 0.0119346 0)
(-0.00979451 0.0119776 0)
(-0.0098179 0.0120119 0)
(-0.00983471 0.0120377 0)
(-0.00911811 0.0113215 0)
(-0.00926079 0.0114805 0)
(-0.00938804 0.0116249 0)
(-0.00949928 0.0117573 0)
(-0.00959556 0.011877 0)
(-0.00967873 0.0119853 0)
(-0.00975092 0.0120829 0)
(-0.00981272 0.0121681 0)
(-0.00986436 0.0122419 0)
(-0.00990916 0.0123051 0)
(-0.00994566 0.012358 0)
(-0.00997522 0.0124013 0)
(-0.00999829 0.0124355 0)
(-0.0100148 0.0124611 0)
(-0.00929122 0.0117238 0)
(-0.00943518 0.0118867 0)
(-0.00956334 0.0120347 0)
(-0.00967513 0.0121698 0)
(-0.00977257 0.0122932 0)
(-0.00985642 0.0124044 0)
(-0.00992845 0.0125031 0)
(-0.0099901 0.0125895 0)
(-0.0100415 0.0126641 0)
(-0.0100861 0.0127279 0)
(-0.0101223 0.0127811 0)
(-0.0101516 0.0128244 0)
(-0.0101744 0.0128585 0)
(-0.0101905 0.0128838 0)
(-0.00945951 0.0121259 0)
(-0.00960459 0.0122927 0)
(-0.00973358 0.0124443 0)
(-0.00984687 0.0125835 0)
(-0.00994537 0.0127102 0)
(-0.0100293 0.0128229 0)
(-0.0101013 0.0129229 0)
(-0.0101628 0.0130102 0)
(-0.010214 0.0130857 0)
(-0.0102584 0.0131499 0)
(-0.0102944 0.0132033 0)
(-0.0103234 0.0132467 0)
(-0.0103459 0.0132805 0)
(-0.0103617 0.0133055 0)
(-0.00962256 0.0125271 0)
(-0.00976903 0.0126981 0)
(-0.00989975 0.0128548 0)
(-0.0100143 0.0129976 0)
(-0.010113 0.013126 0)
(-0.010197 0.0132405 0)
(-0.010269 0.0133416 0)
(-0.0103305 0.01343 0)
(-0.0103816 0.0135062 0)
(-0.0104258 0.0135707 0)
(-0.0104616 0.0136243 0)
(-0.0104903 0.0136675 0)
(-0.0105126 0.0137011 0)
(-0.0105282 0.0137257 0)
(-0.00978169 0.0129301 0)
(-0.00992966 0.0131051 0)
(-0.0100614 0.0132652 0)
(-0.0101762 0.0134101 0)
(-0.0102752 0.0135404 0)
(-0.0103594 0.0136567 0)
(-0.0104315 0.013759 0)
(-0.010493 0.0138483 0)
(-0.0105441 0.0139252 0)
(-0.0105881 0.01399 0)
(-0.0106237 0.0140436 0)
(-0.0106523 0.0140866 0)
(-0.0106743 0.0141198 0)
(-0.0106896 0.014144 0)
(-0.00993556 0.0133306 0)
(-0.0100846 0.0135096 0)
(-0.010217 0.0136732 0)
(-0.0103324 0.0138205 0)
(-0.0104319 0.0139528 0)
(-0.0105164 0.014071 0)
(-0.0105887 0.0141746 0)
(-0.0106502 0.0142647 0)
(-0.0107012 0.0143422 0)
(-0.0107451 0.0144072 0)
(-0.0107805 0.0144609 0)
(-0.0108089 0.0145037 0)
(-0.0108306 0.0145364 0)
(-0.0108457 0.01456 0)
(-0.0100837 0.0137284 0)
(-0.0102335 0.0139114 0)
(-0.0103668 0.0140785 0)
(-0.010483 0.0142285 0)
(-0.0105829 0.014363 0)
(-0.0106677 0.014483 0)
(-0.0107401 0.0145879 0)
(-0.0108017 0.014679 0)
(-0.0108526 0.0147571 0)
(-0.0108965 0.0148223 0)
(-0.0109318 0.0148758 0)
(-0.01096 0.0149183 0)
(-0.0109815 0.0149505 0)
(-0.0109963 0.0149735 0)
(-0.0102263 0.0141231 0)
(-0.0103769 0.0143102 0)
(-0.0105111 0.0144809 0)
(-0.0106277 0.0146337 0)
(-0.010728 0.0147705 0)
(-0.0108131 0.0148925 0)
(-0.0108857 0.0149988 0)
(-0.0109474 0.0150908 0)
(-0.0109984 0.0151694 0)
(-0.0110422 0.0152347 0)
(-0.0110774 0.0152881 0)
(-0.0111053 0.0153302 0)
(-0.0111266 0.0153618 0)
(-0.0111412 0.0153843 0)
(-0.0103633 0.0145143 0)
(-0.0105148 0.0147055 0)
(-0.0106493 0.0148801 0)
(-0.0107663 0.0150358 0)
(-0.010867 0.015175 0)
(-0.0109524 0.0152991 0)
(-0.0110253 0.0154067 0)
(-0.0110871 0.0154997 0)
(-0.0111381 0.015579 0)
(-0.0111819 0.0156444 0)
(-0.0112169 0.0156976 0)
(-0.0112446 0.0157393 0)
(-0.0112657 0.0157703 0)
(-0.0112801 0.0157921 0)
(-0.0104946 0.0149015 0)
(-0.0106463 0.015097 0)
(-0.0107812 0.0152755 0)
(-0.0108988 0.0154343 0)
(-0.011 0.0155762 0)
(-0.0110856 0.0157024 0)
(-0.0111587 0.0158116 0)
(-0.0112206 0.0159056 0)
(-0.0112715 0.0159855 0)
(-0.0113153 0.0160511 0)
(-0.0113502 0.0161041 0)
(-0.0113778 0.0161453 0)
(-0.0113987 0.0161757 0)
(-0.0114128 0.0161968 0)
(-0.0106197 0.0152841 0)
(-0.0107717 0.0154841 0)
(-0.0109072 0.0156668 0)
(-0.0110252 0.0158289 0)
(-0.0111266 0.0159735 0)
(-0.0112124 0.0161021 0)
(-0.0112856 0.0162129 0)
(-0.0113476 0.0163082 0)
(-0.0113986 0.0163888 0)
(-0.0114424 0.0164546 0)
(-0.0114771 0.0165075 0)
(-0.0115045 0.0165483 0)
(-0.0115252 0.016578 0)
(-0.011539 0.0165983 0)
(-0.0107389 0.0156617 0)
(-0.0108914 0.0158663 0)
(-0.011027 0.0160533 0)
(-0.011145 0.016219 0)
(-0.0112465 0.0163665 0)
(-0.0113327 0.0164978 0)
(-0.0114061 0.0166105 0)
(-0.0114682 0.0167072 0)
(-0.0115192 0.0167888 0)
(-0.0115628 0.0168549 0)
(-0.0115974 0.0169077 0)
(-0.0116247 0.016948 0)
(-0.0116451 0.016977 0)
(-0.0116587 0.0169966 0)
(-0.0108524 0.0160333 0)
(-0.0110047 0.0162429 0)
(-0.0111402 0.0164345 0)
(-0.0112582 0.0166039 0)
(-0.0113601 0.0167549 0)
(-0.0114465 0.0168891 0)
(-0.0115199 0.0170041 0)
(-0.011582 0.0171024 0)
(-0.011633 0.0171851 0)
(-0.0116765 0.0172517 0)
(-0.011711 0.0173046 0)
(-0.011738 0.0173445 0)
(-0.0117583 0.0173728 0)
(-0.0117717 0.0173916 0)
(-0.0109592 0.0163983 0)
(-0.0111113 0.0166131 0)
(-0.0112469 0.0168096 0)
(-0.0113652 0.0169834 0)
(-0.0114672 0.0171381 0)
(-0.0115533 0.0172757 0)
(-0.0116268 0.0173932 0)
(-0.011689 0.0174935 0)
(-0.0117399 0.0175777 0)
(-0.0117833 0.017645 0)
(-0.0118176 0.0176981 0)
(-0.0118445 0.0177377 0)
(-0.0118645 0.0177654 0)
(-0.0118777 0.0177835 0)
(-0.0110599 0.0167555 0)
(-0.0112118 0.016976 0)
(-0.0113474 0.017178 0)
(-0.0114657 0.0173565 0)
(-0.0115671 0.0175155 0)
(-0.0116533 0.0176568 0)
(-0.011727 0.0177775 0)
(-0.0117891 0.0178803 0)
(-0.0118398 0.0179663 0)
(-0.0118831 0.0180348 0)
(-0.0119172 0.0180883 0)
(-0.0119438 0.0181278 0)
(-0.0119637 0.018155 0)
(-0.0119766 0.0181722 0)
(-0.0111544 0.017104 0)
(-0.011306 0.0173308 0)
(-0.0114414 0.0175387 0)
(-0.0115589 0.0177225 0)
(-0.0116603 0.0178862 0)
(-0.0117468 0.018032 0)
(-0.0118202 0.0181564 0)
(-0.011882 0.0182624 0)
(-0.0119326 0.0183508 0)
(-0.0119757 0.0184208 0)
(-0.0120096 0.0184752 0)
(-0.012036 0.0185148 0)
(-0.0120556 0.0185415 0)
(-0.0120683 0.018558 0)
(-0.0112426 0.0174429 0)
(-0.0113941 0.0176764 0)
(-0.0115282 0.0178906 0)
(-0.0116454 0.0180801 0)
(-0.0117472 0.0182494 0)
(-0.0118331 0.0184004 0)
(-0.011906 0.0185294 0)
(-0.0119678 0.0186392 0)
(-0.0120182 0.0187307 0)
(-0.012061 0.0188029 0)
(-0.0120946 0.0188586 0)
(-0.0121208 0.0188988 0)
(-0.0121402 0.0189252 0)
(-0.0121527 0.0189411 0)
(-0.0113251 0.0177708 0)
(-0.011475 0.0180112 0)
(-0.0116085 0.0182322 0)
(-0.0117259 0.0184283 0)
(-0.0118269 0.0186041 0)
(-0.0119119 0.0187611 0)
(-0.0119851 0.0188954 0)
(-0.0120466 0.0190099 0)
(-0.0120965 0.0191055 0)
(-0.012139 0.0191808 0)
(-0.0121723 0.0192387 0)
(-0.0121982 0.0192798 0)
(-0.0122173 0.0193063 0)
(-0.0122296 0.0193216 0)
(-0.0114002 0.0180859 0)
(-0.0115492 0.0183336 0)
(-0.0116829 0.0185621 0)
(-0.0117992 0.0187657 0)
(-0.011899 0.0189487 0)
(-0.0119845 0.0191126 0)
(-0.0120572 0.0192532 0)
(-0.012118 0.0193737 0)
(-0.0121675 0.0194746 0)
(-0.0122097 0.0195542 0)
(-0.0122426 0.019615 0)
(-0.012268 0.0196578 0)
(-0.0122868 0.0196849 0)
(-0.0122989 0.0196998 0)
(-0.0114688 0.0183863 0)
(-0.0116177 0.0186418 0)
(-0.0117502 0.0188786 0)
(-0.0118652 0.0190904 0)
(-0.0119653 0.0192813 0)
(-0.0120501 0.0194528 0)
(-0.0121218 0.0196012 0)
(-0.0121823 0.0197293 0)
(-0.0122316 0.0198368 0)
(-0.0122731 0.0199219 0)
(-0.0123053 0.0199872 0)
(-0.0123303 0.0200329 0)
(-0.0123487 0.0200613 0)
(-0.0123605 0.0200761 0)
(-0.0115317 0.0186701 0)
(-0.0116792 0.018934 0)
(-0.0118105 0.0191796 0)
(-0.0119254 0.0194 0)
(-0.0120246 0.0195993 0)
(-0.0121084 0.0197798 0)
(-0.01218 0.0199376 0)
(-0.0122403 0.0200744 0)
(-0.0122885 0.02019 0)
(-0.0123292 0.0202828 0)
(-0.0123608 0.0203545 0)
(-0.012385 0.0204048 0)
(-0.0124027 0.0204355 0)
(-0.0124143 0.0204507 0)
(-0.0115876 0.0189351 0)
(-0.0117342 0.0192078 0)
(-0.0118647 0.0194624 0)
(-0.0119784 0.0196914 0)
(-0.012077 0.0199002 0)
(-0.0121605 0.020091 0)
(-0.0122319 0.0202589 0)
(-0.0122911 0.0204058 0)
(-0.0123385 0.020532 0)
(-0.0123787 0.0206349 0)
(-0.0124091 0.0207155 0)
(-0.0124321 0.0207726 0)
(-0.0124491 0.0208075 0)
(-0.0124601 0.0208242 0)
(-0.0116374 0.0191792 0)
(-0.0117828 0.0194608 0)
(-0.0119116 0.0197239 0)
(-0.0120252 0.019962 0)
(-0.0121232 0.0201809 0)
(-0.0122063 0.0203824 0)
(-0.012277 0.0205612 0)
(-0.0123358 0.0207201 0)
(-0.012383 0.0208588 0)
(-0.012422 0.0209744 0)
(-0.0124509 0.021067 0)
(-0.0124725 0.0211345 0)
(-0.0124879 0.0211769 0)
(-0.0124979 0.0211968 0)
(-0.0116803 0.0194 0)
(-0.0118241 0.0196899 0)
(-0.0119526 0.0199613 0)
(-0.0120653 0.0202084 0)
(-0.0121628 0.0204374 0)
(-0.0122456 0.0206496 0)
(-0.0123164 0.02084 0)
(-0.0123753 0.0210117 0)
(-0.0124219 0.0211648 0)
(-0.0124597 0.0212955 0)
(-0.0124874 0.0214038 0)
(-0.0125067 0.0214869 0)
(-0.0125195 0.0215418 0)
(-0.0125278 0.0215686 0)
(-0.0117162 0.0195952 0)
(-0.011859 0.0198926 0)
(-0.0119865 0.0201714 0)