/*--------------------------------*- C++ -*----------------------------------*\
| =========                 |                                                 |
| \\      /  F ield         | OpenFOAM Extend Project: Open source CFD        |
|  \\    /   O peration     | Version:  1.6-ext                               |
|   \\  /    A nd           | Web:      www.extend-project.de                 |
|    \\/     M anipulation  |                                                 |
\*---------------------------------------------------------------------------*/
FoamFile
{
    version     2.0;
    format      ascii;
    class       volScalarField;
    location    "0.55";
    object      p;
}
// * * * * * * * * * * * * * * * * * * * * * * * * * * * * * * * * * * * * * //

dimensions      [0 2 -2 0 0 0 0];

internalField   nonuniform List<scalar> 
20940
(
-0.0976767
-0.141347
-0.187185
-0.235455
-0.285595
-0.337674
-0.391184
-0.445647
-0.500202
-0.553729
-0.604861
-0.652186
-0.694494
-0.73103
-0.761629
-0.786686
-0.80701
-0.823601
-0.83739
-0.849162
-0.860447
-0.872424
-0.125926
-0.168431
-0.213277
-0.259939
-0.308183
-0.357843
-0.408384
-0.459198
-0.509341
-0.55768
-0.602974
-0.644092
-0.680236
-0.711093
-0.736859
-0.75813
-0.775729
-0.790527
-0.803241
-0.814417
-0.825332
-0.836966
-0.150544
-0.191661
-0.235226
-0.280028
-0.32611
-0.373066
-0.420332
-0.467181
-0.512639
-0.555636
-0.595137
-0.630353
-0.66089
-0.686803
-0.708531
-0.726748
-0.742205
-0.7556
-0.767439
-0.778061
-0.788507
-0.799581
-0.17382
-0.213343
-0.255359
-0.298035
-0.341654
-0.385568
-0.429195
-0.471719
-0.512204
-0.549729
-0.583543
-0.613222
-0.638731
-0.660394
-0.678774
-0.694522
-0.708259
-0.720499
-0.731561
-0.74162
-0.751522
-0.761943
-0.195423
-0.233255
-0.273564
-0.313953
-0.354907
-0.395541
-0.435271
-0.47325
-0.508659
-0.540804
-0.569261
-0.593951
-0.615121
-0.633251
-0.648923
-0.662697
-0.675038
-0.68629
-0.69662
-0.70608
-0.715364
-0.725056
-0.215635
-0.251719
-0.290188
-0.32814
-0.36623
-0.403356
-0.438984
-0.472303
-0.502695
-0.529746
-0.55336
-0.573736
-0.591301
-0.606583
-0.620104
-0.632297
-0.643476
-0.653839
-0.663445
-0.672259
-0.680854
-0.689749
-0.234612
-0.268893
-0.305402
-0.340789
-0.37585
-0.40931
-0.440738
-0.469438
-0.495058
-0.517479
-0.536882
-0.553662
-0.568315
-0.581338
-0.593149
-0.604047
-0.614214
-0.62374
-0.632606
-0.640727
-0.648576
-0.656627
-0.252628
-0.285156
-0.319643
-0.352355
-0.384231
-0.413894
-0.441099
-0.465339
-0.486557
-0.504903
-0.52076
-0.534612
-0.546947
-0.558178
-0.568601
-0.578396
-0.587641
-0.59635
-0.604456
-0.611847
-0.618913
-0.626093
-0.269626
-0.300344
-0.332688
-0.362629
-0.391242
-0.417125
-0.440272
-0.460406
-0.47775
-0.492659
-0.50563
-0.517156
-0.527661
-0.537451
-0.546715
-0.555535
-0.563916
-0.571819
-0.579154
-0.585796
-0.592067
-0.598372
-0.28595
-0.314991
-0.345166
-0.372259
-0.397527
-0.419661
-0.438951
-0.455363
-0.469355
-0.481403
-0.492037
-0.5017
-0.510724
-0.519313
-0.527565
-0.535489
-0.543041
-0.550151
-0.556717
-0.562612
-0.568096
-0.573547
-0.301035
-0.328224
-0.356053
-0.380317
-0.402373
-0.421081
-0.436988
-0.450269
-0.461535
-0.471314
-0.480109
-0.488293
-0.496108
-0.503675
-0.511023
-0.518114
-0.524875
-0.531216
-0.537035
-0.542207
-0.546939
-0.551576
-0.315649
-0.341222
-0.366796
-0.388232
-0.40712
-0.422592
-0.435435
-0.446003
-0.454975
-0.462875
-0.470144
-0.477074
-0.483829
-0.490465
-0.496964
-0.503259
-0.509255
-0.514855
-0.519957
-0.524443
-0.52847
-0.532355
-0.327714
-0.351446
-0.374499
-0.3935
-0.409742
-0.422709
-0.433245
-0.441819
-0.449112
-0.455617
-0.461714
-0.467634
-0.47349
-0.479301
-0.485023
-0.490574
-0.495853
-0.500761
-0.505197
-0.509055
-0.512447
-0.515657
-0.340579
-0.36261
-0.383454
-0.400006
-0.413648
-0.424235
-0.432636
-0.439412
-0.445199
-0.450439
-0.455449
-0.460403
-0.465374
-0.470355
-0.475288
-0.480085
-0.484642
-0.488861
-0.492647
-0.495901
-0.498705
-0.501314
-0.345851
-0.36779
-0.385866
-0.401101
-0.413203
-0.422634
-0.429998
-0.435894
-0.440878
-0.445364
-0.449638
-0.453865
-0.458115
-0.462389
-0.466639
-0.470785
-0.474728
-0.478373
-0.481628
-0.484399
-0.486734
-0.488852
-0.361627
-0.38038
-0.395481
-0.408243
-0.417977
-0.425408
-0.431093
-0.435621
-0.439475
-0.442996
-0.446408
-0.449829
-0.453301
-0.456814
-0.460317
-0.463734
-0.466979
-0.469965
-0.472615
-0.47485
-0.476696
-0.478331
-0.383599
-0.398256
-0.408367
-0.417041
-0.423383
-0.42841
-0.432411
-0.435807
-0.438855
-0.441736
-0.444557
-0.447372
-0.450193
-0.453001
-0.455755
-0.458398
-0.460866
-0.463099
-0.465043
-0.46665
-0.467954
-0.469092
-0.394018
-0.406488
-0.413769
-0.420612
-0.425377
-0.429347
-0.432519
-0.435269
-0.43774
-0.440066
-0.44232
-0.444544
-0.446748
-0.448921
-0.451032
-0.45304
-0.454896
-0.456555
-0.457978
-0.459133
-0.460044
-0.460806
-0.401473
-0.412152
-0.417292
-0.422797
-0.426393
-0.429575
-0.432112
-0.434349
-0.436353
-0.438222
-0.440007
-0.441738
-0.443425
-0.445063
-0.446631
-0.4481
-0.449434
-0.450603
-0.451578
-0.452343
-0.452912
-0.45335
-0.405493
-0.414641
-0.418596
-0.423246
-0.426183
-0.428878
-0.431007
-0.432879
-0.434526
-0.436029
-0.437429
-0.438755
-0.440019
-0.44122
-0.442347
-0.443378
-0.44429
-0.445059
-0.445667
-0.446105
-0.446377
-0.446522
-0.407263
-0.415051
-0.418487
-0.42251
-0.425083
-0.42744
-0.429297
-0.430906
-0.432292
-0.433522
-0.434633
-0.435651
-0.43659
-0.437453
-0.438234
-0.438918
-0.439489
-0.439929
-0.440227
-0.44038
-0.440378
-0.440237
-0.407172
-0.41382
-0.417152
-0.420747
-0.423169
-0.425331
-0.427044
-0.428499
-0.429725
-0.430781
-0.431698
-0.432504
-0.433212
-0.433828
-0.434349
-0.434766
-0.435068
-0.43524
-0.435276
-0.435178
-0.434916
-0.434488
-0.405702
-0.411503
-0.414929
-0.418278
-0.420691
-0.422781
-0.424455
-0.425853
-0.427013
-0.427983
-0.428794
-0.429472
-0.430031
-0.430478
-0.430814
-0.431032
-0.431124
-0.431079
-0.430894
-0.430574
-0.430069
-0.429357
-0.403349
-0.4086
-0.412188
-0.415451
-0.41795
-0.42007
-0.421792
-0.423218
-0.424389
-0.425347
-0.426124
-0.426743
-0.42722
-0.427562
-0.427773
-0.427848
-0.427781
-0.427565
-0.427199
-0.426689
-0.425964
-0.424986
-0.400632
-0.405585
-0.409348
-0.412642
-0.415284
-0.41751
-0.419341
-0.420854
-0.422092
-0.423094
-0.42389
-0.424503
-0.424949
-0.425236
-0.42537
-0.425349
-0.425169
-0.424826
-0.42432
-0.42366
-0.422754
-0.42155
-0.398015
-0.402863
-0.406796
-0.410198
-0.413012
-0.415388
-0.417363
-0.419001
-0.420342
-0.421423
-0.422274
-0.422917
-0.423368
-0.423638
-0.423733
-0.423656
-0.423406
-0.42298
-0.422383
-0.421623
-0.420594
-0.419232
-0.395809
-0.40068
-0.404772
-0.408318
-0.411311
-0.413852
-0.415986
-0.417764
-0.419227
-0.42041
-0.421339
-0.422036
-0.42252
-0.422801
-0.422889
-0.422791
-0.42251
-0.422048
-0.421414
-0.42062
-0.419551
-0.418132
-0.394286
-0.399263
-0.403509
-0.407217
-0.410386
-0.413096
-0.415389
-0.417314
-0.418908
-0.420204
-0.421227
-0.422
-0.422538
-0.422855
-0.422964
-0.422873
-0.422595
-0.422139
-0.421521
-0.420758
-0.419749
-0.418416
-0.393335
-0.398433
-0.402794
-0.406631
-0.409936
-0.41278
-0.415205
-0.417255
-0.418966
-0.420368
-0.421486
-0.422337
-0.422938
-0.423301
-0.423441
-0.423372
-0.423115
-0.42269
-0.42213
-0.421469
-0.420649
-0.419601
-0.393272
-0.398529
-0.403069
-0.407087
-0.410577
-0.4136
-0.416202
-0.418427
-0.420314
-0.421892
-0.423184
-0.424204
-0.424961
-0.425458
-0.425699
-0.425688
-0.425443
-0.424989
-0.424378
-0.423687
-0.422988
-0.42236
1.2735
1.32434
1.37512
1.42573
1.47576
1.5248
1.57245
1.61831
1.662
1.70313
1.74133
1.77629
1.8077
1.83533
1.85905
1.87893
1.8953
1.90887
1.92061
1.93175
1.94515
1.96272
1.26488
1.3154
1.36552
1.41547
1.4648
1.51309
1.55996
1.60502
1.64787
1.68814
1.72548
1.75955
1.79006
1.81679
1.83963
1.85866
1.87426
1.88715
1.89835
1.90914
1.92235
1.93986
1.24425
1.29406
1.34287
1.39155
1.43956
1.48648
1.53193
1.57552
1.61686
1.65559
1.69134
1.7238
1.75268
1.77776
1.79895
1.81638
1.83048
1.84206
1.85223
1.86231
1.87515
1.89251
1.21484
1.26358
1.31042
1.35714
1.40311
1.4479
1.49114
1.53244
1.57144
1.60775
1.64105
1.671
1.69733
1.71985
1.7385
1.75346
1.76525
1.77482
1.78338
1.79236
1.8046
1.82171
1.17598
1.22329
1.26754
1.31174
1.35507
1.39709
1.43748
1.47583
1.51178
1.54498
1.57507
1.60176
1.62477
1.64394
1.65924
1.67095
1.67969
1.68658
1.69301
1.70051
1.71193
1.72867
1.12939
1.17492
1.216
1.2571
1.2972
1.33584
1.37272
1.40745
1.43967
1.46902
1.49518
1.51785
1.53677
1.5518
1.56297
1.57064
1.5756
1.57915
1.5829
1.58853
1.59887
1.61509
1.07604
1.11944
1.15685
1.19438
1.23074
1.26549
1.29831
1.32885
1.35674
1.38164
1.40323
1.42121
1.43534
1.44552
1.45183
1.45473
1.45519
1.45475
1.45527
1.45862
1.4676
1.48312
1.01766
1.05859
1.09191
1.12546
1.15763
1.18799
1.21627
1.24209
1.2651
1.28497
1.30137
1.31404
1.32274
1.32739
1.32813
1.32556
1.32083
1.31576
1.3125
1.31315
1.32047
1.33506
0.955779
0.993908
1.02281
1.05208
1.07972
1.10536
1.12873
1.14944
1.16716
1.18155
1.19231
1.19915
1.20186
1.20039
1.19494
1.18623
1.17564
1.16529
1.15768
1.15515
1.16046
1.17384
0.892365
0.927395
0.951651
0.976378
0.999204
1.01979
1.03789
1.05312
1.06514
1.07363
1.07827
1.0788
1.07501
1.06686
1.05463
1.03918
1.0221
1.00586
0.993343
0.987193
0.990116
1.00197
0.828806
0.860402
0.879957
0.900074
0.918005
0.933469
0.946205
0.955828
0.961998
0.964385
0.962679
0.956606
0.945965
0.930729
0.911238
0.888469
0.864291
0.84152
0.823475
0.813158
0.813246
0.823174
0.767307
0.795174
0.809973
0.825312
0.838157
0.848279
0.855408
0.859155
0.859179
0.855151
0.846762
0.833737
0.815879
0.793177
0.766023
0.735524
0.7038
0.674047
0.650045
0.635178
0.632071
0.639657
0.708231
0.732034
0.74251
0.753348
0.761404
0.766487
0.768301
0.766444
0.760559
0.750302
0.735347
0.715401
0.690251
0.65988
0.624713
0.58598
0.546072
0.508622
0.477951
0.457913
0.451101
0.45588
0.654846
0.673592
0.679654
0.68575
0.688799
0.688591
0.684803
0.677028
0.664905
0.648086
0.626245
0.599095
0.566431
0.528255
0.485042
0.438148
0.390214
0.345259
0.308084
0.282944
0.272292
0.273786
0.60497
0.61861
0.621678
0.623696
0.622578
0.61797
0.60948
0.596681
0.579172
0.556566
0.528493
0.494616
0.454675
0.408625
0.356927
0.301023
0.243844
0.189978
0.145002
0.113887
0.0991152
0.0973841
0.567088
0.568948
0.56902
0.566723
0.560624
0.55072
0.536551
0.517713
0.493811
0.464462
0.429302
0.388011
0.340373
0.28644
0.226858
0.163364
0.0992744
0.0395532
-0.00999458
-0.0444177
-0.0617774
-0.0661643
0.527002
0.51914
0.514224
0.504678
0.491221
0.473622
0.45142
0.424296
0.391914
0.353959
0.310157
0.260308
0.204391
0.142777
0.0765795
0.00807231
-0.0590446
-0.119877
-0.169289
-0.2034
-0.221549
-0.228544
0.479388
0.464588
0.454863
0.438798
0.419097
0.394863
0.365791
0.331603
0.292005
0.246749
0.195641
0.1386
0.0757868
0.00785398
-0.063703
-0.136197
-0.205659
-0.267277
-0.316452
-0.350175
-0.368935
-0.378173
0.428966
0.408352
0.393385
0.371034
0.345311
0.314733
0.279244
0.238564
0.19245
0.140713
0.0832337
0.0200461
-0.0484951
-0.121445
-0.196929
-0.271901
-0.342225
-0.403312
-0.451203
-0.4838
-0.502609
-0.513402
0.376559
0.350841
0.330584
0.30244
0.271085
0.234646
0.193303
0.146756
0.0948314
0.037401
-0.025564
-0.0938832
-0.166973
-0.243563
-0.321412
-0.397191
-0.466761
-0.525936
-0.571539
-0.602389
-0.620834
-0.632701
0.323257
0.293084
0.267738
0.234402
0.197938
0.156293
0.109821
0.0582131
0.00136283
-0.0607912
-0.128173
-0.200434
-0.276736
-0.355486
-0.434122
-0.509156
-0.576605
-0.632842
-0.675514
-0.704293
-0.722146
-0.734753
0.270248
0.236231
0.206159
0.168282
0.12731
0.0811808
0.0303615
-0.0254515
-0.0862926
-0.152151
-0.222827
-0.297784
-0.375918
-0.455328
-0.533217
-0.60607
-0.670232
-0.722732
-0.762052
-0.788585
-0.80572
-0.818821
0.218345
0.18109
0.146788
0.105068
0.0602713
0.0104485
-0.0438774
-0.102984
-0.166833
-0.235331
-0.308137
-0.384504
-0.463063
-0.541654
-0.617342
-0.686745
-0.746664
-0.794865
-0.8306
-0.854847
-0.871211
-0.884632
0.168553
0.128654
0.090707
0.0458567
-0.00204308
-0.0547534
-0.111733
-0.173213
-0.239086
-0.309154
-0.382917
-0.459412
-0.537021
-0.613391
-0.685578
-0.750473
-0.805455
-0.849029
-0.881134
-0.90316
-0.918763
-0.932376
0.121188
0.0792319
0.0382794
-0.0089738
-0.05922
-0.11399
-0.172748
-0.235667
-0.302558
-0.373108
-0.446644
-0.521984
-0.597302
-0.670148
-0.737701
-0.79726
-0.846845
-0.885673
-0.914239
-0.934186
-0.949065
-0.962766
0.0770439
0.0335939
-0.00970184
-0.0586572
-0.110516
-0.16656
-0.226269
-0.289743
-0.356703
-0.426702
-0.498884
-0.571866
-0.643676
-0.711876
-0.773901
-0.827565
-0.871554
-0.905716
-0.930957
-0.949018
-0.963229
-0.976922
0.0357431
-0.00867488
-0.0536568
-0.103631
-0.156374
-0.212913
-0.27275
-0.335897
-0.401972
-0.470381
-0.540087
-0.609545
-0.676722
-0.739313
-0.795137
-0.842588
-0.880991
-0.910712
-0.932913
-0.949296
-0.962884
-0.976465
-0.00193367
-0.0468154
-0.092851
-0.143221
-0.196191
-0.252537
-0.311777
-0.373817
-0.438162
-0.50406
-0.57031
-0.63526
-0.696916
-0.753233
-0.802504
-0.843725
-0.876789
-0.90244
-0.92195
-0.936874
-0.949874
-0.96323
-0.0372114
-0.0821247
-0.128634
-0.178819
-0.231386
-0.28687
-0.344791
-0.40494
-0.466694
-0.529145
-0.590968
-0.650487
-0.705867
-0.755436
-0.798023
-0.8332
-0.861311
-0.883328
-0.9005
-0.914154
-0.926561
-0.939548
-0.0686971
-0.113221
-0.159667
-0.209153
-0.260778
-0.314838
-0.370845
-0.428456
-0.486919
-0.545195
-0.601892
-0.655408
-0.704176
-0.746971
-0.783159
-0.812793
-0.836532
-0.855425
-0.870596
-0.883104
-0.894822
-0.907176
-0.0392996
-0.083711
-0.130151
-0.179685
-0.231438
-0.285671
-0.341891
-0.399725
-0.458391
-0.516817
-0.57358
-0.627061
-0.675696
-0.718276
-0.754198
-0.783542
-0.806985
-0.82559
-0.840482
-0.852724
-0.864165
-0.876214
-0.00785677
-0.0526651
-0.0991695
-0.149373
-0.202031
-0.257636
-0.315711
-0.376019
-0.43791
-0.500444
-0.562261
-0.621661
-0.676806
-0.726045
-0.768245
-0.803014
-0.83073
-0.852384
-0.869227
-0.882584
-0.894692
-0.907347
0.0271429
-0.0176382
-0.0636769
-0.114043
-0.167071
-0.22349
-0.282827
-0.344964
-0.409384
-0.475302
-0.541479
-0.606234
-0.667563
-0.723437
-0.772191
-0.812873
-0.845424
-0.870618
-0.889738
-0.90433
-0.917011
-0.930018
0.0642655
0.0199425
-0.0250622
-0.075017
-0.127794
-0.184365
-0.244249
-0.307436
-0.373527
-0.441897
-0.511471
-0.58067
-0.64744
-0.709487
-0.76467
-0.811446
-0.849205
-0.878359
-0.900093
-0.916102
-0.929356
-0.942581
0.10472
0.0613608
0.0180131
-0.0309157
-0.0827932
-0.138839
-0.198554
-0.262021
-0.328948
-0.398859
-0.470863
-0.543538
-0.614884
-0.682461
-0.74374
-0.796602
-0.839812
-0.873289
-0.897976
-0.915613
-0.929474
-0.942814
0.147726
0.105852
0.0648073
0.0175762
-0.0326854
-0.0874405
-0.146177
-0.209056
-0.275876
-0.346303
-0.41963
-0.494635
-0.569457
-0.641631
-0.70836
-0.767011
-0.815694
-0.853717
-0.881634
-0.901103
-0.915617
-0.928973
0.193664
0.153839
0.115749
0.0709035
0.0229789
-0.0297149
-0.0866616
-0.148084
-0.213864
-0.283789
-0.357331
-0.433484
-0.510591
-0.586273
-0.657597
-0.721511
-0.77549
-0.818148
-0.84951
-0.871
-0.886223
-0.899509
0.241779
0.204578
0.170074
0.128328
0.0834828
0.0336614
-0.020638
-0.0796858
-0.143441
-0.211795
-0.284385
-0.360427
-0.438508
-0.516431
-0.591257
-0.659647
-0.718495
-0.765691
-0.800597
-0.824249
-0.84022
-0.85334
0.29179
0.2578
0.227459
0.189509
0.148452
0.102293
0.0514762
-0.00429804
-0.0650618
-0.130795
-0.201282
-0.275951
-0.353657
-0.432454
-0.509525
-0.581381
-0.644448
-0.695885
-0.734306
-0.760192
-0.776925
-0.789757
0.342756
0.312566
0.286881
0.25341
0.216812
0.175088
0.128578
0.0769692
0.0201589
-0.0419103
-0.109148
-0.181181
-0.25713
-0.335354
-0.413258
-0.487357
-0.553736
-0.608893
-0.650623
-0.678717
-0.696165
-0.708545
0.393926
0.368128
0.347461
0.319104
0.287555
0.250975
0.209534
0.162931
0.11099
0.0535857
-0.00930155
-0.0774709
-0.150304
-0.226482
-0.303721
-0.378676
-0.447252
-0.505376
-0.550028
-0.580174
-0.598221
-0.609912
0.444188
0.423409
0.407964
0.38531
0.359323
0.328529
0.292871
0.252062
0.205859
0.154071
0.0965863
0.0334527
-0.0349462
-0.107621
-0.182647
-0.256947
-0.326404
-0.386521
-0.433494
-0.465394
-0.483827
-0.494509
0.492517
0.477429
0.467175
0.450708
0.430665
0.406134
0.376811
0.342411
0.302636
0.257239
0.206028
0.148932
0.0861331
0.0183238
-0.0529495
-0.124955
-0.193719
-0.254499
-0.302837
-0.335902
-0.354327
-0.363532
0.538153
0.529806
0.524321
0.514272
0.50039
0.482412
0.459871
0.432446
0.399794
0.3616
0.317588
0.267567
0.21153
0.149881
0.0837811
0.0155581
-0.0510634
-0.111229
-0.159926
-0.193454
-0.211327
-0.218384
0.576702
0.577801
0.577254
0.574356
0.567723
0.557339
0.542727
0.52348
0.499199
0.469495
0.434005
0.392409
0.344501
0.290356
0.230663
0.167218
0.103383
0.0441156
-0.0048776
-0.0388206
-0.0559834
-0.0605376
0.612649
0.625267
0.627699
0.629119
0.627425
0.622286
0.613294
0.600016
0.582049
0.559
0.530498
0.496206
0.455873
0.409473
0.357506
0.301471
0.24435
0.190736
0.146132
0.115353
0.100673
0.0986816
0.660213
0.677874
0.683306
0.688784
0.691222
0.690444
0.686106
0.677796
0.665151
0.647818
0.62547
0.597821
0.564673
0.526046
0.48245
0.435291
0.387253
0.342364
0.305367
0.280393
0.269712
0.270869
0.711471
0.734191
0.744008
0.754209
0.761624
0.766098
0.767314
0.764867
0.758396
0.747554
0.732014
0.711484
0.685757
0.654833
0.61917
0.580044
0.539884
0.502336
0.471678
0.451664
0.44472
0.449097
0.768448
0.795276
0.809402
0.824095
0.83628
0.845767
0.852266
0.855384
0.854777
0.850114
0.841083
0.827412
0.808909
0.78558
0.757843
0.726847
0.694749
0.66476
0.640629
0.625664
0.622343
0.629487
0.828102
0.858739
0.877614
0.897079
0.914341
0.929151
0.941232
0.950196
0.955699
0.95741
0.955019
0.948251
0.936911
0.920988
0.900845
0.877497
0.852846
0.829726
0.811439
0.800929
0.800745
0.810213
0.890067
0.92422
0.947797
0.971878
0.994039
1.01397
1.03141
1.04597
1.05731
1.0651
1.06903
1.06884
1.06433
1.05546
1.04254
1.02645
1.00883
0.992164
0.979318
0.972907
0.97552
0.986915
0.952235
0.989582
1.01782
1.04646
1.07346
1.09846
1.12117
1.14121
1.15825
1.17195
1.182
1.18811
1.1901
1.18789
1.18173
1.17236
1.16119
1.15035
1.14236
1.13953
1.14451
1.15745
1.01324
1.05348
1.08617
1.11913
1.15068
1.18042
1.20807
1.23325
1.2556
1.27479
1.29051
1.30248
1.31046
1.31439
1.31443
1.3112
1.30587
1.3003
1.29663
1.29696
1.30395
1.31813
1.07114
1.11395
1.15078
1.18777
1.22355
1.25772
1.28996
1.3199
1.34717
1.37144
1.39237
1.40969
1.42315
1.43265
1.43829
1.44056
1.44044
1.4395
1.43961
1.44264
1.45131
1.46646
1.12442
1.16945
1.21002
1.25062
1.29021
1.32834
1.36468
1.39887
1.43053
1.45931
1.48488
1.50695
1.52526
1.53967
1.55024
1.55732
1.56174
1.56482
1.56818
1.57351
1.58356
1.59946
1.17132
1.21823
1.26204
1.3058
1.3487
1.39028
1.43021
1.46809
1.50356
1.53626
1.56585
1.59201
1.6145
1.63313
1.64791
1.6591
1.66737
1.67384
1.67992
1.68715
1.69832
1.71479
1.21082
1.25925
1.30574
1.35212
1.39773
1.44216
1.48503
1.52595
1.56456
1.60047
1.63335
1.66288
1.68879
1.71087
1.72909
1.74363
1.75503
1.76425
1.77253
1.78128
1.79332
1.81022
1.24117
1.29076
1.33931
1.38774
1.43549
1.48214
1.52732
1.57063
1.61168
1.65011
1.68556
1.71771
1.74627
1.77103
1.7919
1.80902
1.82283
1.83415
1.8441
1.85401
1.86671
1.88392
1.26294
1.31333
1.36329
1.41309
1.46226
1.51039
1.55709
1.60198
1.64465
1.68474
1.72189
1.75577
1.78609
1.81262
1.83527
1.85411
1.86952
1.88225
1.89332
1.904
1.91713
1.93454
1.27284
1.32364
1.37436
1.42492
1.4749
1.52388
1.57148
1.61728
1.66091
1.70197
1.74012
1.77501
1.80636
1.83392
1.85757
1.87739
1.8937
1.90722
1.91891
1.93001
1.94338
1.96092
-0.0684548
-0.0970258
-0.122082
-0.145873
-0.168011
-0.188747
-0.208205
-0.226625
-0.243944
-0.260476
-0.275691
-0.290322
-0.3024
-0.315167
-0.320592
-0.336277
-0.358468
-0.369248
-0.377002
-0.381259
-0.383219
-0.383287
-0.381931
-0.379632
-0.376907
-0.37423
-0.371937
-0.37031
-0.369279
-0.36913
-0.112005
-0.139405
-0.163063
-0.185252
-0.205695
-0.224678
-0.242332
-0.259001
-0.274516
-0.289386
-0.302772
-0.315827
-0.3261
-0.337236
-0.342496
-0.355085
-0.373325
-0.381852
-0.387789
-0.390516
-0.391126
-0.390058
-0.387853
-0.385001
-0.381979
-0.379204
-0.376944
-0.375436
-0.374538
-0.37456
-0.157842
-0.184263
-0.206652
-0.227306
-0.246055
-0.263212
-0.278919
-0.29358
-0.306965
-0.319688
-0.330752
-0.341591
-0.349371
-0.358349
-0.360843
-0.370535
-0.383858
-0.389526
-0.393267
-0.394735
-0.39476
-0.393539
-0.391398
-0.388695
-0.385846
-0.383248
-0.381156
-0.379815
-0.37904
-0.379252
-0.206187
-0.231032
-0.251586
-0.270136
-0.286618
-0.301355
-0.31451
-0.326511
-0.337143
-0.347044
-0.355302
-0.363352
-0.368709
-0.375269
-0.376397
-0.383637
-0.39283
-0.396592
-0.398944
-0.399528
-0.398911
-0.397248
-0.39485
-0.392053
-0.389235
-0.386749
-0.384808
-0.383639
-0.383001
-0.383405
-0.256494
-0.27948
-0.297906
-0.314021
-0.327862
-0.339755
-0.349898
-0.358732
-0.366116
-0.372696
-0.377759
-0.382663
-0.385376
-0.389348
-0.388898
-0.393771
-0.399499
-0.401626
-0.402759
-0.402641
-0.401625
-0.399786
-0.397361
-0.39464
-0.391962
-0.389651
-0.387895
-0.386911
-0.386416
-0.387011
-0.308796
-0.32941
-0.345171
-0.358277
-0.368864
-0.37727
-0.383763
-0.388815
-0.392431
-0.395273
-0.396914
-0.398582
-0.398775
-0.400352
-0.398705
-0.40155
-0.404776
-0.405788
-0.406092
-0.405462
-0.404093
-0.402044
-0.399536
-0.39684
-0.394265
-0.392106
-0.390521
-0.389711
-0.389357
-0.390138
-0.362575
-0.380268
-0.392796
-0.402295
-0.409012
-0.413334
-0.415639
-0.416476
-0.416036
-0.415015
-0.413258
-0.411844
-0.409702
-0.40912
-0.406402
-0.407534
-0.408987
-0.409129
-0.408767
-0.407709
-0.40605
-0.403844
-0.401286
-0.398632
-0.396164
-0.394151
-0.392729
-0.392085
-0.391866
-0.392829
-0.41732
-0.431412
-0.440017
-0.445224
-0.44742
-0.447098
-0.444792
-0.441165
-0.436607
-0.431843
-0.426928
-0.422767
-0.4186
-0.416188
-0.412566
-0.412294
-0.412544
-0.41201
-0.411114
-0.409676
-0.407744
-0.405373
-0.402751
-0.400119
-0.397737
-0.39585
-0.394572
-0.39408
-0.39399
-0.395133
-0.472137
-0.481866
-0.485829
-0.486096
-0.483238
-0.477911
-0.470831
-0.462789
-0.454332
-0.446183
-0.438507
-0.432015
-0.426139
-0.422192
-0.417754
-0.416322
-0.415716
-0.414588
-0.41321
-0.411405
-0.409202
-0.406664
-0.403969
-0.401343
-0.399028
-0.397246
-0.396093
-0.395735
-0.395766
-0.397088
-0.525875
-0.530468
-0.529132
-0.523961
-0.515744
-0.505329
-0.493609
-0.48147
-0.469544
-0.458497
-0.448515
-0.440112
-0.432817
-0.427585
-0.422389
-0.419972
-0.418693
-0.416999
-0.415156
-0.412978
-0.410495
-0.407775
-0.404989
-0.402349
-0.400076
-0.398375
-0.397325
-0.397084
-0.397224
-0.398726
-0.577141
-0.575951
-0.568871
-0.558048
-0.544492
-0.529234
-0.51329
-0.497576
-0.48273
-0.469311
-0.457461
-0.447508
-0.439027
-0.432695
-0.426767
-0.423476
-0.421589
-0.419324
-0.417006
-0.414438
-0.41166
-0.408741
-0.405844
-0.403167
-0.400913
-0.399267
-0.398298
-0.398154
-0.39839
-0.40007
-0.624509
-0.617175
-0.604247
-0.587919
-0.56939
-0.549816
-0.530256
-0.511589
-0.494388
-0.479079
-0.46573
-0.454509
-0.445013
-0.437712
-0.431065
-0.426964
-0.424463
-0.421607
-0.418792
-0.415816
-0.412725
-0.409589
-0.406559
-0.403822
-0.401561
-0.399946
-0.399033
-0.398967
-0.399283
-0.401135
-0.666772
-0.653344
-0.634862
-0.613539
-0.590683
-0.567498
-0.545011
-0.524004
-0.504952
-0.488146
-0.473579
-0.461293
-0.450902
-0.442719
-0.435364
-0.430486
-0.427333
-0.423861
-0.420528
-0.417125
-0.413705
-0.410333
-0.407152
-0.40433
-0.402037
-0.400428
-0.399549
-0.399539
-0.39992
-0.40193
-0.703191
-0.684153
-0.660778
-0.635233
-0.608854
-0.582817
-0.55806
-0.535247
-0.514746
-0.496734
-0.481145
-0.467932
-0.456724
-0.44772
-0.439672
-0.434037
-0.430182
-0.426076
-0.422209
-0.418367
-0.414604
-0.410982
-0.407629
-0.4047
-0.402351
-0.400725
-0.399858
-0.399886
-0.400314
-0.402461
-0.733618
-0.709813
-0.682443
-0.653573
-0.624494
-0.596306
-0.569835
-0.545633
-0.523974
-0.504954
-0.48847
-0.474419
-0.462446
-0.452664
-0.443947
-0.437571
-0.432972
-0.428226
-0.423815
-0.419529
-0.415418
-0.411533
-0.407991
-0.404935
-0.402509
-0.400844
-0.399971
-0.400019
-0.40048
-0.40273
-0.758469
-0.730932
-0.700543
-0.669222
-0.638178
-0.608414
-0.580655
-0.555357
-0.532733
-0.512831
-0.495529
-0.480695
-0.467993
-0.457468
-0.448112
-0.441016
-0.435648
-0.430269
-0.425318
-0.420594
-0.416133
-0.411978
-0.408235
-0.405033
-0.402509
-0.400787
-0.399893
-0.399951
-0.400433
-0.402744
-0.778564
-0.748345
-0.715839
-0.682815
-0.650387
-0.619474
-0.590717
-0.564514
-0.541044
-0.520331
-0.502256
-0.486673
-0.473269
-0.462034
-0.452076
-0.444288
-0.438149
-0.432159
-0.426686
-0.421537
-0.416733
-0.412306
-0.40835
-0.404988
-0.40235
-0.400556
-0.39963
-0.39969
-0.400193
-0.402518
-0.794913
-0.762931
-0.729044
-0.694882
-0.661482
-0.629699
-0.600126
-0.57313
-0.548877
-0.527393
-0.508569
-0.492262
-0.478179
-0.466266
-0.455744
-0.447303
-0.440413
-0.433851
-0.427887
-0.422337
-0.417202
-0.412505
-0.408329
-0.404794
-0.402026
-0.400147
-0.399184
-0.399248
-0.399782
-0.40208
-0.808455
-0.775419
-0.740676
-0.705758
-0.671647
-0.639164
-0.608877
-0.581148
-0.556151
-0.533921
-0.51437
-0.497361
-0.482626
-0.470072
-0.459027
-0.449984
-0.44239
-0.435307
-0.428895
-0.422976
-0.417528
-0.412567
-0.408169
-0.404449
-0.401538
-0.399566
-0.398563
-0.398641
-0.399232
-0.401481
-0.819981
-0.786368
-0.751091
-0.715631
-0.680948
-0.647846
-0.616895
-0.588465
-0.562746
-0.539792
-0.519537
-0.501857
-0.486504
-0.473353
-0.46183
-0.452252
-0.444032
-0.436495
-0.429691
-0.423443
-0.41771
-0.412496
-0.407873
-0.40396
-0.400896
-0.39882
-0.397779
-0.397887
-0.398579
-0.400798
-0.831009
-0.797047
-0.761325
-0.72535
-0.69008
-0.656323
-0.624658
-0.595476
-0.568988
-0.545272
-0.524281
-0.505911
-0.489931
-0.476196
-0.464206
-0.454138
-0.445372
-0.437441
-0.430293
-0.423746
-0.417737
-0.412263
-0.407395
-0.40326
-0.400011
-0.397807
-0.39672
-0.396883
-0.397761
-0.400102
-0.842705
-0.808428
-0.77218
-0.735589
-0.699629
-0.665113
-0.632639
-0.602619
-0.575286
-0.550739
-0.528953
-0.509842
-0.493194
-0.478861
-0.46638
-0.455824
-0.446554
-0.438242
-0.430767
-0.423927
-0.417631
-0.411869
-0.406715
-0.402311
-0.398831
-0.396462
-0.395311
-0.395553
-0.396711
-0.399472
0.234878
0.23481
0.2348
0.234783
0.234793
0.234818
0.23487
0.234946
0.235052
0.235188
0.235353
0.235546
0.235764
0.236004
0.236263
0.236537
0.236824
0.237123
0.237431
0.237748
0.238071
0.238402
0.238739
0.239082
0.235122
0.235054
0.235044
0.235026
0.235038
0.235064
0.235118
0.235199
0.235312
0.235455
0.235629
0.235831
0.236059
0.23631
0.236579
0.236864
0.237162
0.237471
0.23779
0.238117
0.238451
0.238792
0.239139
0.239493
0.235353
0.235286
0.235276
0.235258
0.23527
0.235298
0.235356
0.235441
0.235559
0.23571
0.235893
0.236105
0.236343
0.236604
0.236883
0.237179
0.237487
0.237806
0.238135
0.238472
0.238817
0.239169
0.239527
0.239891
0.235572
0.235507
0.235496
0.235479
0.235491
0.235521
0.235582
0.235672
0.235797
0.235955
0.236146
0.236367
0.236615
0.236886
0.237176
0.237481
0.2378
0.238129
0.238468
0.238815
0.23917
0.239532
0.2399
0.240275
0.23578
0.235716
0.235706
0.235689
0.235702
0.235734
0.235798
0.235893
0.236024
0.236189
0.236389
0.236619
0.236877
0.237157
0.237457
0.237772
0.2381
0.23844
0.238788
0.239145
0.239509
0.23988
0.240259
0.240644
0.235978
0.235917
0.235906
0.23589
0.235904
0.235938
0.236005
0.236105
0.236241
0.236415
0.236622
0.236862
0.237129
0.237418
0.237727
0.238052
0.238389
0.238737
0.239095
0.239461
0.239834
0.240215
0.240603
0.240998
0.236167
0.236108
0.236097
0.236082
0.236097
0.236133
0.236203
0.236308
0.236451
0.236631
0.236847
0.237095
0.23737
0.237669
0.237987
0.23832
0.238666
0.239023
0.239389
0.239763
0.240145
0.240535
0.240932
0.241337
0.236348
0.236291
0.23628
0.236266
0.236283
0.236321
0.236395
0.236504
0.236653
0.23684
0.237064
0.237319
0.237603
0.23791
0.238236
0.238577
0.238931
0.239296
0.239669
0.240052
0.240442
0.24084
0.241246
0.24166
0.23652
0.236466
0.236457
0.236444
0.236461
0.236502
0.236579
0.236693
0.236848
0.237042
0.237272
0.237536
0.237827
0.238142
0.238475
0.238824
0.239185
0.239556
0.239937
0.240327
0.240724
0.24113
0.241544
0.241966
0.236687
0.236636
0.236626
0.236615
0.236634
0.236678
0.236758
0.236877
0.237037
0.237237
0.237475
0.237745
0.238043
0.238365
0.238704
0.239059
0.239426
0.239804
0.240191
0.240587
0.240991
0.241404
0.241825
0.242255
0.236847
0.236799
0.236791
0.236782
0.236802
0.236848
0.236932
0.237055
0.237221
0.237427
0.23767
0.237947
0.238252
0.238579
0.238924
0.239284
0.239656
0.240039
0.240432
0.240833
0.241243
0.241662
0.24209
0.242527
0.237001
0.236958
0.23695
0.236943
0.236966
0.237014
0.237102
0.237229
0.2374
0.237611
0.237861
0.238143
0.238452
0.238784
0.239134
0.239498
0.239875
0.240262
0.240659
0.241064
0.241479
0.241904
0.242337
0.24278
0.237152
0.237112
0.237106
0.237101
0.237126
0.237177
0.237268
0.2374
0.237575
0.237791
0.238046
0.238332
0.238646
0.238981
0.239334
0.239702
0.240081
0.240471
0.240871
0.24128
0.241699
0.242128
0.242566
0.243015
0.237298
0.237263
0.237258
0.237256
0.237283
0.237337
0.237432
0.237567
0.237747
0.237968
0.238226
0.238516
0.238832
0.23917
0.239525
0.239895
0.240276
0.240667
0.241069
0.241481
0.241902
0.242334
0.242776
0.243229
0.237441
0.23741
0.237407
0.237408
0.237437
0.237495
0.237593
0.237733
0.237916
0.23814
0.238401
0.238694
0.239012
0.239351
0.239707
0.240076
0.240458
0.24085
0.241252
0.241665
0.242088
0.242522
0.242967
0.243423
0.23758
0.237554
0.237553
0.237557
0.23759
0.237651
0.237752
0.237895
0.238082
0.238309
0.238572
0.238866
0.239185
0.239523
0.239878
0.240247
0.240627
0.241018
0.24142
0.241832
0.242256
0.24269
0.243137
0.243596
0.237717
0.237696
0.237697
0.237705
0.23774
0.237805
0.23791
0.238056
0.238246
0.238475
0.238739
0.239033
0.23935
0.239687
0.24004
0.240405
0.240783
0.241172
0.241571
0.241982
0.242405
0.242839
0.243286
0.243746
0.23785
0.237834
0.237838
0.23785
0.237889
0.237958
0.238066
0.238215
0.238407
0.238637
0.238901
0.239193
0.239508
0.239842
0.24019
0.240552
0.240925
0.24131
0.241706
0.242114
0.242534
0.242967
0.243413
0.243874
0.23798
0.237969
0.237976
0.237992
0.238035
0.238108
0.23822
0.238372
0.238565
0.238796
0.239058
0.239348
0.239659
0.239987
0.24033
0.240686
0.241053
0.241432
0.241823
0.242227
0.242643
0.243073
0.243517
0.243977
0.238107
0.238101
0.23811
0.238132
0.238179
0.238256
0.238371
0.238526
0.238721
0.23895
0.23921
0.239495
0.239801
0.240122
0.240458
0.240806
0.241166
0.241538