/*--------------------------------*- C++ -*----------------------------------*\
| =========                 |                                                 |
| \\      /  F ield         | OpenFOAM Extend Project: Open source CFD        |
|  \\    /   O peration     | Version:  1.6-ext                               |
|   \\  /    A nd           | Web:      www.extend-project.de                 |
|    \\/     M anipulation  |                                                 |
\*---------------------------------------------------------------------------*/
FoamFile
{
    version     2.0;
    format      ascii;
    class       surfaceScalarField;
    location    "0.55";
    object      phi;
}
// * * * * * * * * * * * * * * * * * * * * * * * * * * * * * * * * * * * * * //

dimensions      [0 3 -1 0 0 0 0];

internalField   nonuniform List<scalar> 
41420
(
-0.000126159
0.000397791
-0.000398475
0.000126844
-0.000125016
0.0003789
-0.000380043
-0.000123447
0.000360344
-0.000361913
-0.000121452
0.000342027
-0.000344022
-0.00011897
0.000323951
-0.000326432
-0.000115854
0.000305907
-0.000309023
-0.000111866
0.000287548
-0.000291536
-0.000106714
0.000268405
-0.000273557
-0.000100121
0.000247989
-0.000254582
-9.19276e-05
0.000225947
-0.00023414
-8.21824e-05
0.000202213
-0.000211958
-7.11875e-05
0.000177104
-0.000188099
-5.94678e-05
0.000151298
-0.000163018
-4.76806e-05
0.000125719
-0.000137506
-3.64857e-05
0.000101339
-0.000112534
-2.64367e-05
7.90019e-05
-8.90509e-05
-1.79109e-05
5.92957e-05
-6.78215e-05
-1.10973e-05
4.25152e-05
-4.93287e-05
-6.02154e-06
2.86889e-05
-3.37647e-05
-2.59186e-06
1.76436e-05
-2.10733e-05
-6.47973e-07
9.07933e-06
-1.10232e-05
2.63752e-06
-3.28549e-06
-0.000133866
0.000396945
0.000134712
-0.000132538
0.000377571
-0.000130746
0.000358551
-0.000128455
0.000339736
-0.000125553
0.000321049
-0.000121831
0.000302184
-0.000117003
0.00028272
-0.000110766
0.000262168
-0.000102895
0.000240118
-9.33436e-05
0.000216396
-8.23172e-05
0.000191187
-7.02706e-05
0.000165057
-5.78377e-05
0.000138865
-4.57094e-05
0.000113591
-3.4508e-05
9.01377e-05
-2.46973e-05
6.91912e-05
-1.65481e-05
5.11464e-05
-1.01502e-05
3.61173e-05
-5.45408e-06
2.39928e-05
-2.32106e-06
1.45106e-05
-5.676e-07
7.32587e-06
2.06992e-06
-0.000148657
0.00039544
0.000150162
-0.000146644
0.000375558
-0.000144114
0.000356022
-0.00014098
0.000336601
-0.00013706
0.000317129
-0.000132079
0.000297203
-0.000125716
0.000276357
-0.00011769
0.000254142
-0.000107877
0.000230304
-9.6395e-05
0.000204914
-8.36353e-05
0.000178427
-7.02119e-05
0.000151634
-5.68458e-05
0.000125499
-4.42289e-05
0.000100974
-3.29125e-05
7.88213e-05
-2.32508e-05
5.95296e-05
-1.53986e-05
4.32943e-05
-9.34704e-06
3.00657e-05
-4.97446e-06
1.96202e-05
-2.09677e-06
1.16329e-05
-5.06646e-07
5.73574e-06
1.56327e-06
-0.000162847
0.000393303
0.000164984
-0.00016015
0.000372861
-0.000156839
0.000352711
-0.000152752
0.000332514
-0.000147633
0.00031201
-0.000141149
0.00029072
-0.000132982
0.000268189
-0.000122934
0.000244095
-0.000111044
0.000218414
-9.76352e-05
0.000191505
-8.32909e-05
0.000164083
-6.87505e-05
0.000137093
-5.47662e-05
0.000111515
-4.19731e-05
8.81805e-05
-3.08106e-05
6.76588e-05
-2.15035e-05
5.02224e-05
-1.409e-05
3.58808e-05
-8.47236e-06
2.44481e-05
-4.4709e-06
1.56188e-05
-1.86954e-06
9.03153e-06
-4.47765e-07
4.31397e-06
1.11551e-06
-0.000175713
0.000390583
0.000178433
-0.00017234
0.000369489
-0.000168191
0.000348561
-0.000163015
0.000327339
-0.000156485
0.00030548
-0.000148246
0.00028248
-0.000138043
0.000257986
-0.000125836
0.000231888
-0.00011188
0.000204459
-9.67216e-05
0.000176346
-8.11079e-05
0.000148469
-6.58422e-05
0.000121827
-5.16378e-05
9.73106e-05
-3.90189e-05
7.55617e-05
-2.82841e-05
5.69239e-05
-1.9524e-05
4.14624e-05
-1.2671e-05
2.90277e-05
-7.55547e-06
1.93326e-05
-3.95731e-06
1.20206e-05
-1.64315e-06
6.71737e-06
-3.90416e-07
3.06123e-06
7.25093e-07
-0.000187175
0.000387308
0.00019045
-0.000183084
0.000365397
-0.000177964
0.000343441
-0.000171477
0.000320853
-0.000163255
0.000297258
-0.000152985
0.000272211
-0.000140558
0.000245559
-0.00012616
0.00021749
-0.000110294
0.000188593
-9.37099e-05
0.000159762
-7.72533e-05
0.000132013
-6.17118e-05
0.000106286
-4.76932e-05
8.3292e-05
-3.55713e-05
6.34397e-05
-2.54933e-05
4.68459e-05
-1.74257e-05
3.33948e-05
-1.12138e-05
2.28159e-05
-6.63749e-06
1.47563e-05
-3.45367e-06
8.8368e-06
-1.42504e-06
4.68874e-06
-3.36105e-07
1.9723e-06
3.88988e-07
-0.000197019
0.00038344
0.000200887
-0.000192085
0.000360463
-0.000185774
0.00033713
-0.000177684
0.000312763
-0.000167466
0.000287039
-0.000154938
0.000259683
-0.000140221
0.000230842
-0.000123772
0.000201041
-0.000106335
0.000171156
-8.87923e-05
0.000142219
-7.20016e-05
0.000115222
-5.66532e-05
9.09376e-05
-4.31981e-05
6.98369e-05
-3.18433e-05
5.20849e-05
-2.25932e-05
3.75959e-05
-1.53117e-05
2.61133e-05
-9.78158e-06
1.72858e-05
-5.7531e-06
1.07278e-05
-2.97645e-06
6.06015e-06
-1.22133e-06
2.93363e-06
-2.86093e-07
1.03706e-06
1.02895e-07
-0.000205033
0.000378896
0.000209577
-0.000199053
0.000354483
-0.000191252
0.00032933
-0.000181225
0.000302735
-0.000168737
0.000274552
-0.000153839
0.000244785
-0.000136943
0.000213946
-0.000118781
0.000182879
-0.000100269
0.000152644
-8.23307e-05
0.000124281
-6.5736e-05
9.86272e-05
-5.10141e-05
7.62157e-05
-3.84343e-05
5.72571e-05
-2.80429e-05
4.16935e-05
-1.97255e-05
2.92784e-05
-1.32711e-05
1.96589e-05
-8.42575e-06
1.24404e-05
-4.92914e-06
7.23116e-06
-2.53779e-06
3.66881e-06
-1.0363e-06
1.43214e-06
-2.41206e-07
2.41963e-07
-1.38311e-07
-0.000210847
0.000373449
0.000216294
-0.000203514
0.00034715
-0.000193879
0.000319695
-0.000181625
0.000290482
-0.000166739
0.000259666
-0.000149574
0.00022762
-0.000130849
0.00019522
-0.000111507
0.000163538
-9.25376e-05
0.000133674
-7.47932e-05
0.000106536
-5.88835e-05
8.27175e-05
-4.51425e-05
6.24747e-05
-3.3661e-05
4.57756e-05
-2.4349e-05
3.23815e-05
-1.70049e-05
2.19343e-05
-1.13727e-05
1.40268e-05
-7.18415e-06
8.25184e-06
-4.18435e-06
4.23137e-06
-2.14559e-06
1.63004e-06
-8.72445e-07
1.5899e-07
-2.01833e-07
-4.28649e-07
-3.40144e-07
-0.000214119
0.000366873
0.000220695
-0.000205102
0.000338133
-0.000193321
0.000307914
-0.000178671
0.000275832
-0.000161457
0.000242451
-0.000142365
0.000208528
-0.000122365
0.00017522
-0.000102505
0.000143678
-8.37233e-05
0.000114893
-6.67133e-05
8.95263e-05
-5.18803e-05
6.78844e-05
-3.93642e-05
4.99586e-05
-2.91032e-05
3.55146e-05
-2.0907e-05
2.41853e-05
-1.45197e-05
1.5547e-05
-9.66658e-06
9.17366e-06
-6.08322e-06
4.66847e-06
-3.53131e-06
1.67946e-06
-1.80496e-06
-9.63057e-08
-7.31323e-07
-9.14643e-07
-1.68209e-07
-9.91762e-07
-5.08353e-07
-0.000214308
0.000358728
0.000222453
-0.000203268
0.000327094
-0.000189161
0.000293806
-0.000172192
0.000258863
-0.000153012
0.000223271
-0.000132595
0.000188111
-0.000112046
0.000154671
-9.23871e-05
0.000124019
-7.44016e-05
9.69071e-05
-5.8571e-05
7.36957e-05
-4.50912e-05
5.44046e-05
-3.3935e-05
3.88024e-05
-2.49284e-05
2.6508e-05
-1.78191e-05
1.7076e-05
-1.23283e-05
1.00562e-05
-8.18361e-06
5.02901e-06
-5.13784e-06
1.62271e-06
-2.97627e-06
-4.82116e-07
-1.51794e-06
-1.55464e-06
-6.13257e-07
-1.81932e-06
-1.40232e-07
-1.46479e-06
-6.48585e-07
-0.000211321
0.000348881
0.000221169
-0.000198099
0.000313871
-0.000181699
0.000277407
-0.000162721
0.000239885
-0.000142137
0.000202686
-0.000121107
0.000167081
-0.000100737
0.000134302
-8.19073e-05
0.000105189
-6.51818e-05
8.01816e-05
-5.08187e-05
5.93326e-05
-3.88291e-05
4.2415e-05
-2.90586e-05
2.9032e-05
-2.12619e-05
1.87112e-05
-1.51586e-05
1.09727e-05
-1.04711e-05
5.36866e-06
-6.94499e-06
1.50289e-06
-4.35845e-06
-9.63835e-07
-2.52408e-06
-2.31648e-06
-1.28668e-06
-2.79203e-06
-5.19166e-07
-2.58684e-06
-1.18233e-07
-1.86572e-06
-7.66818e-07
-0.000204619
0.000336817
0.000216683
-0.000189218
0.00029847
-0.000170865
0.000259055
-0.000150512
0.000219532
-0.00012933
0.000181504
-0.000108515
0.000146266
-8.90434e-05
0.00011483
-7.15781e-05
8.77237e-05
-5.64493e-05
6.50529e-05
-4.37167e-05
4.66e-05
-3.32522e-05
3.19505e-05
-2.48207e-05
2.06005e-05
-1.81435e-05
1.2034e-05
-1.29396e-05
5.7689e-06
-8.94999e-06
1.37902e-06
-5.94778e-06
-1.49933e-06
-3.74126e-06
-3.17036e-06
-2.1717e-06
-3.88604e-06
-1.1092e-06
-3.85453e-06
-4.47903e-07
-3.24814e-06
-1.01677e-07
-2.21195e-06
-8.68495e-07
-0.000194829
0.000323062
0.000208584
-0.000177608
0.000281248
-0.000157827
0.000239274
-0.000136819
0.000198524
-0.000115797
0.000160482
-9.58751e-05
0.000126345
-7.78126e-05
9.67677e-05
-6.20264e-05
7.19375e-05
-4.86325e-05
5.1659e-05
-3.75359e-05
3.55033e-05
-2.85172e-05
2.29318e-05
-2.13021e-05
1.33854e-05
-1.56084e-05
6.34031e-06
-1.1173e-05
1.33344e-06
-7.76482e-06
-2.02913e-06
-5.18878e-06
-4.07537e-06
-3.28376e-06
-5.07538e-06
-1.91853e-06
-5.25127e-06
-9.86643e-07
-4.78642e-06
-4.01481e-07
-3.8333e-06
-9.21213e-08
-2.52131e-06
-9.60616e-07
-0.000181577
0.000307146
0.000197493
-0.000163113
0.000262784
-0.000142754
0.000218915
-0.000121986
0.000177755
-0.000101972
0.000140469
-8.35985e-05
0.000107971
-6.73652e-05
8.05344e-05
-5.34574e-05
5.80297e-05
-4.18278e-05
4.00294e-05
-3.22876e-05
2.59632e-05
-2.45794e-05
1.52235e-05
-1.84277e-05
7.23373e-06
-1.35702e-05
1.48277e-06
-9.77348e-06
-2.46323e-06
-6.83932e-06
-4.9633e-06
-4.60399e-06
-6.3107e-06
-2.93496e-06
-6.74441e-06
-1.72591e-06
-6.46032e-06
-8.91458e-07
-5.62087e-06
-3.62269e-07
-4.36249e-06
-8.12197e-08
-2.80235e-06
-1.04184e-06
-0.000348307
0.000251326
0.000404127
-0.000292842
0.000207319
-0.000240351
0.000166424
-0.000192804
0.000130208
-0.000151324
9.89887e-05
-0.00011633
7.29774e-05
-8.76358e-05
5.18397e-05
-6.46784e-05
3.50723e-05
-4.67048e-05
2.20558e-05
-3.29117e-05
1.217e-05
-2.25329e-05
4.84477e-06
-1.48858e-05
-4.13324e-07
-9.3873e-06
-4.01575e-06
-5.55267e-06
-6.29786e-06
-2.9859e-06
-7.53007e-06
-1.3662e-06
-7.9304e-06
-4.34454e-07
-7.67615e-06
1.88308e-08
-6.91361e-06
1.63531e-07
-5.76557e-06
1.37755e-07
-4.33671e-06
5.33933e-08
-2.71799e-06
-9.88443e-07
-0.000290302
0.000192998
0.000348631
-0.000236296
0.000153313
-0.000188221
0.00011835
-0.000146891
8.88768e-05
-0.00011241
6.45086e-05
-8.4385e-05
4.4952e-05
-6.21142e-05
2.95689e-05
-4.47653e-05
1.77235e-05
-3.14982e-05
8.78869e-06
-2.15365e-05
2.20831e-06
-1.42025e-05
-2.48931e-06
-8.92541e-06
-5.69039e-06
-5.23645e-06
-7.70471e-06
-2.75602e-06
-8.77829e-06
-1.17933e-06
-9.10676e-06
-2.62407e-07
-8.84732e-06
1.90051e-07
-8.12861e-06
3.34687e-07
-7.05824e-06
2.9731e-07
-5.72819e-06
1.78779e-07
-4.21818e-06
5.91026e-08
-2.59832e-06
-9.2934e-07
-0.000228217
0.000138274
0.000282941
-0.00018025
0.000105346
-0.000139657
7.7757e-05
-0.000106167
5.53864e-05
-7.9211e-05
3.75528e-05
-5.79477e-05
2.36887e-05
-4.14858e-05
1.3107e-05
-2.89601e-05
5.1978e-06
-1.95957e-05
-5.75705e-07
-1.27285e-05
-4.65893e-06
-7.80685e-06
-7.41095e-06
-4.38189e-06
-9.11534e-06
-2.0929e-06
-9.99369e-06
-6.52056e-07
-1.02191e-05
1.69644e-07
-9.92846e-06
5.54262e-07
-9.23194e-06
6.46611e-07
-8.22095e-06
5.61809e-07
-6.97344e-06
3.91044e-07
-5.55742e-06
2.06009e-07
-4.03315e-06
6.19601e-08
-2.45427e-06
-8.6738e-07
-0.000168969
9.13673e-05
0.000215875
-0.000129617
6.59944e-05
-9.76236e-05
4.57634e-05
-7.20813e-05
2.98441e-05
-5.21176e-05
1.75891e-05
-3.67734e-05
8.34456e-06
-2.51832e-05
1.5168e-06
-1.65827e-05
-3.40274e-06
-1.03292e-05
-6.82922e-06
-5.89476e-06
-9.09333e-06
-2.85339e-06
-1.04523e-05
-8.64778e-07
-1.1104e-05
3.41178e-07
-1.11996e-05
9.78402e-07
-1.08564e-05
1.21621e-06
-1.01663e-05
1.18864e-06
-9.20436e-06
1.00158e-06
-8.0339e-06
7.38317e-07
-6.71017e-06
4.63547e-07
-5.28265e-06
2.26594e-07
-3.79619e-06
6.37362e-08
-2.29141e-06
-8.03644e-07
-0.000116672
5.41326e-05
0.000153906
-8.65852e-05
3.59081e-05
-6.28817e-05
2.20598e-05
-4.44957e-05
1.14581e-05
-3.05071e-05
3.60049e-06
-2.00445e-05
-2.11803e-06
-1.2373e-05
-6.15468e-06
-6.87851e-06
-8.89725e-06
-3.06207e-06
-1.06457e-05
-5.23478e-07
-1.16319e-05
1.05528e-06
-1.20311e-05
1.92569e-06
-1.19744e-05
2.28622e-06
-1.15602e-05
2.29343e-06
-1.08636e-05
2.07077e-06
-9.94361e-06
1.71542e-06
-8.84901e-06
1.30352e-06
-7.62201e-06
8.93979e-07
-6.30063e-06
5.31431e-07
-4.92011e-06
2.4836e-07
-3.51312e-06
6.6868e-08
-2.10992e-06
-7.36776e-07
-7.29562e-05
2.65822e-05
0.000100507
-5.14517e-05
1.44036e-05
-3.49769e-05
5.58502e-06
-2.25827e-05
-9.36058e-07
-1.34504e-05
-5.53185e-06
-6.87806e-06
-8.69035e-06
-2.29054e-06
-1.07422e-05
7.76956e-07
-1.19647e-05
2.69503e-06
-1.25637e-05
3.75698e-06
-1.26939e-05
4.19396e-06
-1.24681e-05
4.1879e-06
-1.19683e-05
3.88186e-06
-1.12541e-05
3.38847e-06
-1.03702e-05
2.79616e-06
-9.3513e-06
2.17413e-06
-8.22699e-06
1.57575e-06
-7.02362e-06
1.04152e-06
-5.7664e-06
6.00752e-07
-4.47934e-06
2.73579e-07
-3.18595e-06
7.17762e-08
-1.90812e-06
-6.64999e-07
-3.77547e-05
7.61075e-06
5.67262e-05
-2.35036e-05
1.5246e-07
-1.29619e-05
-4.95671e-06
-5.373e-06
-8.52497e-06
-7.89371e-08
-1.08259e-05
3.44787e-06
-1.22172e-05
5.63375e-06
-1.29281e-05
6.81577e-06
-1.31468e-05
7.25955e-06
-1.30075e-05
7.17337e-06
-1.26077e-05
6.72035e-06
-1.2015e-05
6.02829e-06
-1.12762e-05
5.19754e-06
-1.04234e-05
4.30676e-06
-9.47939e-06
3.41763e-06
-8.46218e-06
2.57782e-06
-7.38718e-06
1.82381e-06
-6.26961e-06
1.18203e-06
-5.12461e-06
6.70919e-07
-3.96824e-06
3.01344e-07
-2.81637e-06
7.80627e-08
-1.68483e-06
-5.86937e-07
-1.01849e-05
-4.2615e-06
2.20571e-05
-1.75662e-06
-8.27581e-06
4.08393e-06
-1.07973e-05
7.91282e-06
-1.23539e-05
1.02248e-05
-1.31379e-05
1.13985e-05
-1.33909e-05
1.17358e-05
-1.32653e-05
1.14705e-05
-1.28815e-05
1.07851e-05
-1.23221e-05
9.82104e-06
-1.16436e-05
8.68821e-06
-1.08822e-05
7.47236e-06
-1.00604e-05
6.24039e-06
-9.19144e-06
5.04478e-06
-8.28378e-06
3.92617e-06
-7.34357e-06
2.91607e-06
-6.37708e-06
2.03766e-06
-5.39121e-06
1.30771e-06
-4.39466e-06
7.36347e-07
-3.39687e-06
3.28761e-07
-2.40879e-06
8.4756e-08
-1.44083e-06
-5.02181e-07
1.0623e-05
-1.05062e-05
-4.37828e-06
1.45368e-05
-1.21896e-05
1.67664e-05
-1.30269e-05
1.77338e-05
-1.33212e-05
1.77909e-05
-1.3195e-05
1.71979e-05
-1.27979e-05
1.61568e-05
-1.22243e-05
1.48209e-05
-1.15456e-05
1.33073e-05
-1.08085e-05
1.17052e-05
-1.00415e-05
1.00832e-05
-9.26022e-06
8.49418e-06
-8.47137e-06
6.97925e-06
-7.6765e-06
5.57025e-06
-6.87479e-06
4.29208e-06
-6.06539e-06
3.16331e-06
-5.24831e-06
2.19788e-06
-4.42577e-06
1.40466e-06
-3.60144e-06
7.88983e-07
-2.78119e-06
3.51785e-07
-1.97159e-06
9.07714e-08
-1.17982e-06
-4.11409e-07
2.52988e-05
-1.24495e-05
-2.33555e-05
2.58355e-05
-1.27262e-05
2.54051e-05
-1.25965e-05
2.42953e-05
-1.22114e-05
2.27387e-05
-1.16384e-05
2.0901e-05
-1.09602e-05
1.89062e-05
-1.02295e-05
1.6845e-05
-9.48437e-06
1.47839e-05
-8.74738e-06
1.27721e-05
-8.02977e-06
1.08465e-05
-7.33454e-06
9.03462e-06
-6.65953e-06
7.35787e-06
-5.99976e-06
5.83275e-06
-5.34967e-06
4.47177e-06
-4.70441e-06
3.28453e-06
-4.06107e-06
2.27741e-06
-3.41866e-06
1.45465e-06
-2.77867e-06
8.17497e-07
-2.14404e-06
3.65311e-07
-1.51941e-06
9.46396e-08
-9.09145e-07
-3.1677e-07
3.41402e-05
-1.13105e-05
-3.52792e-05
3.23263e-05
-1.09123e-05
3.00992e-05
-1.03694e-05
2.76303e-05
-9.74253e-06
2.5054e-05
-9.06215e-06
2.24617e-05
-8.36792e-06
1.99174e-05
-7.68522e-06
1.74643e-05
-7.03127e-06
1.51313e-05
-6.41439e-06
1.29378e-05
-5.83625e-06
1.0897e-05
-5.29374e-06
9.01823e-06
-4.78074e-06
7.30843e-06
-4.28996e-06
5.77289e-06
-3.81413e-06
4.41573e-06
-3.34725e-06
3.23968e-06
-2.88502e-06
2.24657e-06
-2.42555e-06
1.43669e-06
-1.96879e-06
8.09536e-07
-1.51689e-06
3.63158e-07
-1.07303e-06
9.46797e-08
-6.40667e-07
-2.2209e-07
3.71761e-05
-8.28637e-06
-4.02002e-05
3.40056e-05
-7.74191e-06
3.08125e-05
-7.17626e-06
2.76759e-05
-6.60588e-06
2.46554e-05
-6.04164e-06
2.17871e-05
-5.49965e-06
1.90919e-05
-4.99005e-06
1.65795e-05
-4.51883e-06
1.42526e-05
-4.08749e-06
1.21101e-05
-3.6938e-06
1.01494e-05
-3.33303e-06
8.36757e-06
-2.99888e-06
6.76211e-06
-2.68449e-06
5.33131e-06
-2.38333e-06
4.07386e-06
-2.0898e-06
2.98874e-06
-1.7999e-06
2.07455e-06
-1.51136e-06
1.32975e-06
-1.22399e-06
7.52173e-07
-9.39307e-07
3.39575e-07
-6.6043e-07
8.94799e-08
-3.90572e-07
-1.3261e-07
3.43208e-05
-4.59432e-06
-3.80129e-05
3.0791e-05
-4.2121e-06
2.74565e-05
-3.8418e-06
2.43359e-05
-3.48522e-06
2.14407e-05
-3.14647e-06
1.87723e-05
-2.83126e-06
1.63251e-05
-2.54286e-06
1.40889e-05
-2.28259e-06
1.20511e-05
-2.04974e-06
1.01992e-05
-1.84189e-06
8.52166e-06
-1.65546e-06
7.00893e-06
-1.48615e-06
5.65383e-06
-1.3294e-06
4.45128e-06
-1.18078e-06
3.39786e-06
-1.03638e-06
2.4911e-06
-8.93141e-07
1.72893e-06
-7.49191e-07
1.10899e-06
-6.04054e-07
6.28619e-07
-4.58938e-07
2.84899e-07
-3.16711e-07
7.54984e-08
-1.81171e-07
-5.71117e-08
2.54932e-05
-1.44757e-06
-2.86399e-05
2.25952e-05
-1.31406e-06
1.9938e-05
-1.18467e-06
1.75138e-05
-1.06104e-06
1.53129e-05
-9.45558e-07
1.33219e-05
-8.40274e-07
1.15251e-05
-7.46002e-07
9.90534e-06
-6.62852e-07
8.44585e-06
-5.90246e-07
7.13109e-06
-5.27128e-07
5.94772e-06
-4.72095e-07
4.88509e-06
-4.23522e-07
3.93536e-06
-3.79667e-07
3.09334e-06
-3.38756e-07
2.35604e-06
-2.99081e-07
1.72201e-06
-2.5911e-07
1.19046e-06
-2.17641e-07
7.60426e-07
-1.74017e-07
4.29977e-07
-1.28488e-07
1.95809e-07
-8.25434e-08
5.34284e-08
-3.87906e-08
-3.68335e-09
1.06159e-05
-1.2038e-05
9.3214e-06
8.15165e-06
7.10191e-06
6.16483e-06
5.33085e-06
4.58945e-06
3.92991e-06
3.34199e-06
2.81644e-06
2.34537e-06
1.92246e-06
1.54311e-06
1.20446e-06
9.05339e-07
6.46098e-07
4.28275e-07
2.54059e-07
1.25378e-07
4.26705e-08
3.76103e-09
0.000298285
2.62913e-05
4.52676e-07
-0.000325029
0.000273027
2.47641e-05
4.93783e-07
0.000249164
2.33316e-05
5.31463e-07
0.000226616
2.19831e-05
5.6526e-07
0.000205306
2.07147e-05
5.95094e-07
0.000185162
1.9523e-05
6.20986e-07
0.000166115
1.84037e-05
6.43005e-07
0.000148101
1.73527e-05
6.61271e-07
0.000131059
1.63657e-05
6.75939e-07
0.000114934
1.54383e-05
6.87159e-07
9.96738e-05
1.45653e-05
6.94988e-07
8.5236e-05
1.37387e-05
6.99172e-07
7.15934e-05
1.29437e-05
6.98818e-07
5.87469e-05
1.21545e-05
6.92058e-07
4.67401e-05
1.13308e-05
6.75966e-07
3.56725e-05
1.04207e-05
6.46862e-07
2.57033e-05
9.36814e-06
6.01037e-07
1.7042e-05
8.12566e-06
5.35617e-07
9.92626e-06
6.66645e-06
4.49329e-07
4.59091e-06
4.99244e-06
3.42911e-07
1.23588e-06
3.13593e-06
2.19092e-07
1.15381e-06
8.20715e-08
0.000297886
5.2958e-05
-0.000324552
0.000272697
4.99525e-05
0.000248894
4.71344e-05
0.000226398
4.44799e-05
0.000205131
4.19808e-05
0.000185024
3.96302e-05
0.000166008
3.74198e-05
0.000148019
3.53414e-05
0.000130998
3.33866e-05
0.00011489
3.15471e-05
9.96424e-05
2.98125e-05
8.52144e-05
2.81667e-05
7.15788e-05
2.65793e-05
5.87368e-05
2.49965e-05
4.67327e-05
2.3335e-05
3.56666e-05
2.14868e-05
2.56984e-05
1.93363e-05
1.70381e-05
1.67859e-05
9.92359e-06
1.3781e-05
4.5896e-06
1.03264e-05
1.23557e-06
6.48996e-06
2.38938e-06
0.000296641
7.94216e-05
-0.000323105
0.000271629
7.49652e-05
0.000247976
7.07869e-05
0.00022561
6.68461e-05
0.000204458
6.31327e-05
0.000184451
5.96374e-05
0.000165523
5.63481e-05
0.000147611
5.32531e-05
0.000130657
5.03404e-05
0.000114607
4.75976e-05
9.94093e-05
4.50097e-05
8.5024e-05
4.25521e-05
7.14243e-05
4.01789e-05
5.86124e-05
3.78084e-05
4.66333e-05
3.53141e-05
3.55884e-05
3.25317e-05
2.56385e-05
2.92862e-05
1.69948e-05
2.54296e-05
9.8954e-06
2.08804e-05
4.57464e-06
1.56472e-05
1.23069e-06
9.83391e-06
3.62008e-06
0.000294906
0.000105575
-0.000321059
0.000270164
9.97077e-05
0.000246741
9.42096e-05
0.000224572
8.90154e-05
0.000203588
8.41161e-05
0.000183725
7.95001e-05
0.000164921
7.51527e-05
0.000147115
7.1059e-05
0.000130251
6.72039e-05
0.000114278
6.35716e-05
9.91448e-05
6.01424e-05
8.4813e-05
5.68839e-05
7.12572e-05
5.37347e-05
5.84804e-05
5.05852e-05
4.65294e-05
4.72652e-05
3.55068e-05
4.35543e-05
2.55759e-05
3.92171e-05
1.69489e-05
3.40565e-05
9.86532e-06
2.7964e-05
4.55872e-06
2.09538e-05
1.22559e-06
1.3167e-05
4.84567e-06
0.000292861
0.000131324
-0.000318611
0.000268466
0.000124103
0.000245337
0.000117338
0.000223418
0.000110935
0.000202647
0.000104887
0.000182965
9.91822e-05
0.000164314
9.38041e-05
0.000146637
8.87355e-05
0.000129882
8.39589e-05
0.000113998
7.94555e-05
9.8939e-05
7.52015e-05
8.46658e-05
7.1157e-05
7.11551e-05
6.72455e-05
5.84112e-05
6.33292e-05
4.64821e-05
5.91942e-05
3.54733e-05
5.45631e-05
2.55503e-05
4.91401e-05
1.6929e-05
4.26779e-05
9.85038e-06
3.50426e-05
4.5496e-06
2.62546e-05
1.22205e-06
1.64946e-05
6.06772e-06
0.000290904
0.000156614
-0.000316193
0.000266903
0.000148104
0.000244103
0.000140139
0.000222459
0.000132578
0.000201919
0.000125427
0.000182429
0.000118672
0.000163937
0.000112297
0.00014639
0.000106282
0.000129739
0.000100609
0.000113938
9.52571e-05
9.89414e-05
9.01981e-05
8.47129e-05
8.53854e-05
7.12303e-05
8.07281e-05
5.84993e-05
7.60601e-05
4.65697e-05
7.11238e-05
3.55495e-05
6.55833e-05
2.56081e-05
5.90815e-05
1.69663e-05
5.13197e-05
9.86973e-06
4.21392e-05
4.55629e-06
3.1568e-05
1.22264e-06
1.98282e-05
7.29036e-06
0.00028925
0.0001814
-0.000314037
0.000265672
0.000171682
0.000243218
0.000162592
0.00022186
0.000153936
0.000201553
0.000145734
0.000182252
0.000137973
0.000163911
0.000130638
0.000146484
0.00012371
0.000129924
0.000117169
0.000114189
0.000110993
9.92364e-05
0.000105151
8.50312e-05
9.95906e-05
7.15527e-05
9.42066e-05
5.8807e-05
8.88059e-05
4.6846e-05
8.30849e-05
3.57798e-05
7.66495e-05
2.57844e-05
6.90769e-05
1.70861e-05
6.0018e-05
9.93917e-06
4.92861e-05
4.58697e-06
3.69202e-05
1.2298e-06
2.31854e-05
8.52016e-06
0.000288078
0.000205657
-0.000312335
0.00026494
0.000194821
0.000242841
0.000184691
0.00022177
0.000175008
0.000201692
0.000165812
0.000182569
0.000157095
0.000164364
0.000148843
0.000147035
0.000141039
0.000130542
0.000133662
0.000114845
0.00012669
9.99049e-05
0.00012009
8.569e-05
0.000113806
7.21795e-05
0.000107717
5.93811e-05
0.000101604
4.73466e-05
9.51194e-05
3.61916e-05
8.78045e-05
2.60963e-05
7.91722e-05
1.72993e-05
6.8815e-05
1.00631e-05
5.65222e-05
4.64254e-06
4.23408e-05
1.24299e-06
2.6585e-05
9.76315e-06
0.000287519
0.000229368
-0.00031123
0.000264821
0.000217519
0.000243068
0.000206444
0.000222265
0.00019581
0.000202393
0.000185684
0.000183424
0.000176064
0.000165329
0.000166939
0.000148071
0.000158296
0.000131617
0.000150116
0.00011593
0.000142377
0.000100974
0.000135047
8.67173e-05
0.000128062
7.31413e-05
0.000121293
6.02519e-05
0.000114494
4.81032e-05
0.000107268
3.68118e-05
9.90958e-05
2.65692e-05
8.94148e-05
1.76236e-05
7.77607e-05
1.02556e-05
6.38902e-05
4.73085e-06
4.78655e-05
1.26588e-06
3.00499e-05
1.1029e-05
0.000287611
0.000252519
-0.000310763
0.000265359
0.000239771
0.000243953
0.00022785
0.000223415
0.000216349
0.000203734
0.000205365
0.000184896
0.000194902
0.000166879
0.000184956
0.000149657
0.000175518
0.000133201
0.000166572
0.000117479
0.000158099
0.000102461
0.000150065
8.81163e-05
0.000142407
7.44262e-05
0.000134983
6.13975e-05
0.000127522
4.90834e-05
0.000119582
3.7607e-05
0.000110572
2.7167e-05
9.98549e-05
1.80298e-05
8.68979e-05
1.04913e-05
7.14287e-05
4.83632e-06
5.35205e-05
1.29089e-06
3.35954e-05
1.23199e-05
0.000288344
0.000275102
-0.000310927
0.000266516
0.000261599
0.000245424
0.000248942
0.000225116
0.000236657
0.000205596
0.000224884
0.000186863
0.000213636
0.000168902
0.000202917
0.000151694
0.000192726
0.000135214
0.000183051
0.000119437
0.000173876
0.000104334
0.000165169
8.9876e-05
0.000156864
7.6045e-05
0.000148814
6.28448e-05
0.000140722
5.03285e-05
0.000132099
3.86211e-05
0.00012228
2.79348e-05
0.000110541
1.85537e-05
9.6279e-05
1.07997e-05
7.91827e-05
4.97734e-06
5.93428e-05
1.32768e-06
3.7245e-05
1.36476e-05
0.000289739
0.000297085
-0.000311722
0.000268361
0.000282977
0.000247598
0.000269705
0.000227509
0.000256746
0.000208121
0.000244273
0.000189447
0.00023231
0.000171488
0.000220875
0.000154236
0.000209978
0.000137674
0.000199613
0.000121782
0.000189769
0.000106533
0.000180417
9.19037e-05
0.000171494
7.78736e-05
0.000162844
6.44467e-05
0.000154149
5.16759e-05
0.000144869
3.96933e-05
0.000134262
2.87239e-05
0.000121511
1.90748e-05
0.000105928
1.10915e-05
8.7166e-05
5.10055e-06
6.53338e-05
1.35369e-06
4.09919e-05
1.50013e-05
0.000291605
0.000318478
-0.000312998
0.000270604
0.000303978
0.000250126
0.000290183
0.000230236
0.000276636
0.000210973
0.000263536
0.000192359
0.000250923
0.000174405
0.000238829
0.00015711
0.000227273
0.000140464
0.000216259
0.000124452
0.00020578
0.000109054
0.000195816
9.42451e-05
0.000186303
8.0006e-05
0.000177083
6.63363e-05
0.000167819
5.32866e-05
0.000157919
4.09914e-05
0.000146557
2.96906e-05
0.000132811
1.97182e-05
0.0001159
1.14551e-05
9.54291e-05
5.25751e-06
7.15314e-05
1.39131e-06
4.48581e-05
1.63926e-05
0.000293839
0.000339065
-0.000314426
0.000273317
0.0003245
0.000253141
0.000310358
0.000233418
0.000296359
0.000214223
0.000282731
0.000195603
0.000269543
0.000177584
0.000256848
0.000160177
0.00024468
0.000143382
0.000233054
0.000127189
0.000221973
0.000111582
0.000211422
9.65401e-05
0.000201345
8.20421e-05
0.000191581
6.80867e-05
0.000181774
5.47233e-05
0.000171282
4.20933e-05
0.000159187
3.04561e-05
0.000144449
2.01779e-05
0.000126179
1.16735e-05
0.000103933
5.32254e-06
7.78823e-05
1.39216e-06
4.87885e-05
1.77848e-05
0.000296374
0.000358908
-0.000316217
0.000276191
0.000344684
0.00025632
0.000330229
0.0002368
0.000315879
0.000217721
0.000301811
0.000199139
0.000288125
0.000181092
0.000274896
0.000163599
0.000262172
0.00014667
0.000249984
0.000130301
0.000238342
0.000114481
0.000227242
9.91898e-05
0.000216636
8.44053e-05
0.000206366
7.01227e-05
0.000196057
5.63921e-05
0.000185013
4.3365e-05
0.000172215
3.13248e-05
0.000156489
2.06739e-05
0.00013683
1.18694e-05
0.000112738
5.32802e-06
8.44237e-05
1.33785e-06
5.27786e-05
1.91226e-05
1.22684e-05
0.000361386
-1.47468e-05
9.72638e-06
0.000347226
7.29448e-06
0.000332661
4.88256e-06
0.000318291
2.50077e-06
0.000304193
1.44351e-07
0.000290481
-2.18562e-06
0.000277226
-4.48414e-06
0.000264471
-6.74411e-06
0.000252243
-8.95389e-06
0.000240552
-1.10877e-05
0.000229376
-1.30825e-05
0.000218631
-1.48043e-05
0.000208088
-1.60267e-05
0.000197279
-1.64546e-05
0.000185441
-1.58103e-05
0.00017157
-1.39622e-05
0.000154641
-1.10354e-05
0.000133903
-7.45382e-06
0.000109156
-3.88918e-06
8.08591e-05
-1.14423e-06
5.00337e-05
1.79784e-05
7.09902e-06
0.000364172
-9.88462e-06
4.44754e-06
0.000349877
1.83601e-06
0.000335273
-7.18308e-07
0.000320845
-3.19925e-06
0.000306674
-5.60677e-06
0.000292889
-7.93572e-06
0.000279555
-1.0181e-05
0.000266716
-1.23354e-05
0.000254398
-1.43846e-05
0.000242601
-1.62924e-05
0.000231284
-1.79755e-05
0.000220314
-1.92732e-05
0.000209385
-1.99425e-05
0.000197949
-1.96983e-05
0.000185197
-1.83124e-05
0.000170184
-1.57278e-05
0.000152056
-1.21512e-05
0.000130326
-8.06554e-06
0.000105071
-4.16747e-06
7.6961e-05
-1.23727e-06
4.71035e-05
1.67411e-05
1.87325e-06
0.000367176
-4.87741e-06
-8.9017e-07
0.000352641
-3.6051e-06
0.000337988
-6.2124e-06
0.000323452
-8.71015e-06
0.000309172
-1.10952e-05
0.000295274
-1.33628e-05
0.000281822
-1.55088e-05
0.000268862
-1.75252e-05
0.000256414
-1.93917e-05
0.000244468
-2.10579e-05
0.00023295
-2.24147e-05
0.000221671
-2.32753e-05
0.000210246
-2.33816e-05
0.000198055
-2.24687e-05
0.000184284
-2.03597e-05
0.000168075
-1.70805e-05
0.000148777
-1.29163e-05
0.000126162
-8.41039e-06
0.000100565
-4.27146e-06
7.28221e-05
-1.24803e-06
4.40801e-05
1.54931e-05
-3.35809e-06
0.000370296
2.3801e-07
-6.22135e-06
0.000355504
-8.99131e-06
0.000340758
-1.16118e-05
0.000326073
-1.40896e-05
0.000311649
-1.64191e-05
0.000297603
-1.85973e-05
0.000284
-2.06205e-05
0.000270885
-2.24782e-05
0.000258272
-2.41414e-05
0.000246131
-2.55392e-05
0.000234348
-2.65364e-05
0.000222668
-2.6919e-05
0.000210629
-2.64279e-05
0.000197564
-2.48243e-05
0.00018268
-2.20026e-05
0.000165254
-1.80688e-05
0.000144843
-1.33928e-05
0.000121486
-8.55788e-06
9.57298e-05
-4.2717e-06
6.85359e-05
-1.22629e-06
4.10347e-05
1.42668e-05
-8.70029e-06
0.000373472
5.52407e-06
-1.16219e-05
0.000358426
-1.43963e-05
0.000343532
-1.69885e-05
0.000328665
-1.94081e-05
0.000314069
-2.16497e-05
0.000299845
-2.37122e-05
0.000286063
-2.55911e-05
0.000272764
-2.7271e-05
0.000259952
-2.87082e-05
0.000247568
-2.98098e-05
0.00023545
-3.0409e-05
0.000223267
-3.02765e-05
0.000210496
-2.91542e-05
0.000196442
-2.68533e-05
0.000180379
-2.33343e-05
0.000161735
-1.87994e-05
0.000140308
-1.36789e-05
0.000116366
-8.59382e-06
9.06447e-05
-4.22164e-06
6.41637e-05
-1.19403e-06
3.8007e-05
1.30727e-05
-1.42912e-05
0.000376664
1.10997e-05
-1.72266e-05
0.000361361
-1.99641e-05
0.00034627
-2.2492e-05
0.000331193
-2.48194e-05
0.000316396
-2.69437e-05
0.000301969
-2.88647e-05
0.000287984
-3.0576e-05
0.000274475
-3.20527e-05
0.000261429
-3.32342e-05
0.00024875
-3.39976e-05
0.000236213
-3.41527e-05
0.000223422
-3.34518e-05
0.000209795
-3.16636e-05
0.000194653
-2.86436e-05
0.000177359
-2.44469e-05
0.000157538
-1.93452e-05
0.000135206
-1.38425e-05
0.000110863
-8.55858e-06
8.53609e-05
-4.1455e-06
5.97506e-05
-1.15599e-06
3.50175e-05
1.19168e-05
-2.02815e-05
0.000379826
1.71188e-05
-2.318e-05
0.000364259
-2.5839e-05
0.000348929
-2.82649e-05
0.000333619
-3.04662e-05
0.000318598
-3.24431e-05
0.000303946
-3.41957e-05
0.000289737
-3.57121e-05
0.000275992
-3.69552e-05
0.000262672
-3.7839e-05
0.000249633
-3.82137e-05
0.000236588
-3.78597e-05
0.000223068
-3.65338e-05
0.000208469
-3.4026e-05
0.000192146
-3.02722e-05
0.000173606
-2.53967e-05
0.000152663
-1.97691e-05
0.000129579
-1.39203e-05
0.000105014
-8.48471e-06
7.99253e-05
-4.05418e-06
5.53201e-05
-1.11688e-06
3.20802e-05
1.07999e-05
-2.68821e-05
0.000382919
2.37891e-05
-2.96956e-05
0.000367073
-3.22352e-05
0.000351468
-3.452e-05
0.000335904
-3.65584e-05
0.000320636
-3.8354e-05
0.000305741
-3.99044e-05
0.000291287
-4.11897e-05
0.000277277
-4.21532e-05
0.000263635
-4.26825e-05
0.000250163
-4.25936e-05
0.000236499
-4.16529e-05
0.000222127
-3.96184e-05
0.000206435
-3.63366e-05
0.000188864
-3.18064e-05
0.000169075
-2.62579e-05
0.000147114
-2.01141e-05
0.000123435
-1.39567e-05
9.88567e-05
-8.38891e-06
7.43574e-05
-3.96023e-06
5.08914e-05
-1.07796e-06
2.9198e-05
9.72192e-06
-3.42892e-05
0.000385894
3.1315e-05
-3.69649e-05
0.000369748
-3.93394e-05
0.000353843
-4.14396e-05
0.000338004
-4.32749e-05
0.000322471
-4.48501e-05
0.000307317
-4.6158e-05
0.000292595
-4.71646e-05