/*--------------------------------*- C++ -*----------------------------------*\
| =========                 |                                                 |
| \\      /  F ield         | OpenFOAM Extend Project: Open source CFD        |
|  \\    /   O peration     | Version:  1.6-ext                               |
|   \\  /    A nd           | Web:      www.extend-project.de                 |
|    \\/     M anipulation  |                                                 |
\*---------------------------------------------------------------------------*/
FoamFile
{
    version     2.0;
    format      ascii;
    class       volVectorField;
    location    "0.55";
    object      U;
}
// * * * * * * * * * * * * * * * * * * * * * * * * * * * * * * * * * * * * * //

dimensions      [0 1 -1 0 0 0 0];

internalField   nonuniform List<vector> 
20940
(
(1.85353 0.394031 -3.23774e-21)
(1.89363 0.414155 -1.02762e-21)
(1.93163 0.433583 3.32472e-21)
(1.96666 0.451266 -4.80385e-21)
(1.99847 0.467423 5.30226e-21)
(2.02544 0.480942 -3.55526e-24)
(2.04462 0.490732 -4.55415e-24)
(2.05121 0.494861 -6.33995e-21)
(2.03884 0.491104 -7.86865e-22)
(2.00035 0.477209 8.34412e-21)
(1.9294 0.451604 0)
(1.82228 0.414006 -1.23995e-20)
(1.67931 0.365797 2.00593e-20)
(1.50526 0.309927 -1.56995e-20)
(1.30857 0.250391 8.02233e-21)
(1.09973 0.191455 9.12463e-21)
(0.889374 0.136954 9.80277e-21)
(0.686715 0.0898231 -1.07488e-20)
(0.498688 0.0519096 1.11622e-20)
(0.32969 0.0240144 0)
(0.18181 0.00663938 0)
(0.055295 0.000486877 0)
(1.88051 0.370175 -3.97742e-21)
(1.91937 0.389156 9.04961e-21)
(1.9558 0.406784 -3.76005e-21)
(1.9887 0.422701 8.7099e-21)
(2.01727 0.436581 2.63332e-20)
(2.03905 0.447237 -1.48568e-20)
(2.05006 0.453274 0)
(2.04457 0.45267 -2.52598e-20)
(2.01578 0.443354 2.88843e-20)
(1.9571 0.423618 -1.82769e-20)
(1.86392 0.392778 1.88851e-20)
(1.73517 0.351599 4.61103e-20)
(1.57411 0.302363 3.36635e-20)
(1.38803 0.248499 -2.9077e-20)
(1.18679 0.193919 3.3154e-20)
(0.98103 0.14231 -3.50209e-20)
(0.780455 0.0966227 -2.8411e-20)
(0.592771 0.0588409 0)
(0.423249 0.0299719 0)
(0.274821 0.0101865 -2.26961e-20)
(0.148506 -0.000436928 3.48403e-20)
(0.043939 -0.00143989 9.58673e-21)
(1.90527 0.346258 -8.69059e-21)
(1.94255 0.364171 0)
(1.97688 0.380113 -2.45057e-20)
(2.0068 0.394285 1.89118e-20)
(2.03075 0.4058 -4.10794e-20)
(2.04525 0.413385 4.87548e-20)
(2.04529 0.415405 -1.93446e-20)
(2.02447 0.4099 1.23084e-20)
(1.97616 0.395165 -1.34756e-20)
(1.8951 0.37023 3.72753e-20)
(1.77908 0.335382 -5.93947e-20)
(1.63001 0.292323 -2.32543e-20)
(1.45398 0.243954 -1.31106e-20)
(1.26012 0.193809 -2.8097e-20)
(1.05888 0.14539 -3.0718e-20)
(0.860267 0.101614 -5.09999e-20)
(0.672579 0.0645235 5.47953e-20)
(0.501802 0.0352532 0)
(0.351587 0.0141378 2.00439e-20)
(0.223565 0.000888249 -4.33526e-20)
(0.117873 -0.00471603 2.21629e-20)
(0.0336809 -0.00241162 -9.59077e-21)
(1.92887 0.322656 4.59102e-20)
(1.96413 0.33958 -3.56331e-20)
(1.99557 0.353886 -1.63622e-20)
(2.02122 0.366234 4.36062e-20)
(2.03852 0.375164 2.21041e-21)
(2.04289 0.379358 3.45365e-20)
(2.02845 0.377053 8.56723e-20)
(1.98864 0.366561 -2.27927e-20)
(1.91781 0.346765 2.95631e-20)
(1.81285 0.317579 -3.45956e-20)
(1.67453 0.280233 3.89956e-20)
(1.50778 0.237145 0)
(1.32097 0.191477 2.62644e-20)
(1.12421 0.146509 -2.60792e-20)
(0.927654 0.105084 -3.00748e-20)
(0.740014 0.0692633 8.0786e-20)
(0.567842 0.0402428 0)
(0.41537 0.0184573 -1.80672e-20)
(0.284762 0.00374042 -9.87788e-20)
(0.176559 -0.00450148 1.01507e-19)
(0.0902188 -0.00667267 1.09576e-20)
(0.0245885 -0.00262781 0)
(1.95107 0.299446 4.47383e-20)
(1.98367 0.31539 9.60585e-22)
(2.01108 0.328027 2.12995e-20)
(2.03062 0.338371 -6.70831e-20)
(2.03854 0.344419 -1.03792e-21)
(2.02926 0.344891 2.26333e-21)
(1.99646 0.338084 -1.2415e-19)
(1.93422 0.322809 -2.49352e-20)
(1.83878 0.298718 6.04031e-20)
(1.70991 0.266648 -9.89438e-20)
(1.55156 0.2286 -3.88726e-20)
(1.37129 0.18738 1.30245e-19)
(1.17887 0.146034 -6.97789e-20)
(0.984418 0.107298 -7.90286e-20)
(0.796961 0.0732236 5.6591e-20)
(0.623486 0.0450493 0)
(0.468687 0.0232602 0)
(0.335157 0.00776449 8.90003e-20)
(0.223808 -0.00193672 -7.38438e-20)
(0.13434 -0.00660731 -1.99997e-20)
(0.0657352 -0.00674132 -8.19699e-20)
(0.0166663 -0.00225259 8.42688e-20)
(1.97135 0.276708 2.68711e-20)
(2.00034 0.291638 -2.75616e-20)
(2.02207 0.302487 0)
(2.03295 0.310541 5.02207e-20)
(2.02802 0.313354 -5.54149e-20)
(2.00108 0.309843 0)
(1.94612 0.298587 4.19962e-20)
(1.85884 0.279112 0)
(1.73824 0.251925 -5.70857e-20)
(1.58737 0.218668 3.32446e-20)
(1.41308 0.181818 0)
(1.22471 0.144188 -4.22295e-20)
(1.03233 0.108386 9.29552e-20)
(0.84518 0.0764338 -2.43857e-20)
(0.670576 0.0495912 1.73989e-21)
(0.513589 0.0283897 -5.82626e-20)
(0.37715 0.0127771 0)
(0.262459 0.00231027 0)
(0.169456 -0.00369789 0)
(0.0972458 -0.00607658 0)
(0.0445261 -0.0053438 -1.8897e-20)
(0.00991384 -0.00143738 6.40597e-20)
(1.98934 0.254256 -7.29364e-20)
(2.0132 0.268009 2.94802e-20)
(2.0268 0.276829 4.19515e-20)
(2.02561 0.282259 -4.6423e-20)
(2.00372 0.281556 2.09811e-21)
(1.95501 0.27404 -1.42555e-19)
(1.8748 0.258795 -4.78255e-20)
(1.76141 0.236184 9.51472e-20)
(1.61715 0.207501 5.67578e-20)
(1.4482 0.174936 0)
(1.26352 0.141071 0)
(1.0731 0.108381 -3.91663e-20)
(0.886307 0.0788383 0)
(0.710741 0.0537121 -1.45842e-19)
(0.551775 0.033572 2.07024e-19)
(0.412615 0.0184102 -5.48007e-20)
(0.294676 0.00781525 -6.03945e-20)
(0.198071 0.00114377 3.2081e-20)
(0.122052 -0.0023676 0)
(0.0653568 -0.00354062 -1.05591e-19)
(0.026552 -0.00287654 2.02289e-19)
(0.00428674 -0.000319105 -9.2447e-20)
(2.00356 0.232053 -1.03468e-19)
(2.0201 0.24441 0)
(2.02235 0.250918 -4.19105e-20)
(2.00504 0.253395 -5.0835e-20)
(1.9619 0.249055 -1.20795e-21)
(1.88798 0.237838 -7.39385e-20)
(1.781 0.219493 3.93905e-20)
(1.64259 0.195203 -1.46726e-19)
(1.4784 0.166823 5.31699e-20)
(1.29702 0.136737 0)
(1.10835 0.107277 6.81445e-20)
(0.921892 0.080354 3.89315e-20)
(0.745473 0.0572358 0)
(0.584728 0.038523 0)
(0.443084 0.0242523 -1.50716e-19)
(0.322127 0.0140544 2.68082e-19)
(0.222086 0.00731378 -1.69294e-19)
(0.142304 0.00330369 1.32133e-21)
(0.0816028 0.00126123 3.14001e-20)
(0.0385391 0.000416113 -3.32631e-20)
(0.0116613 0.000304796 -3.6768e-20)
(-0.000291023 0.000983453 1.33002e-19)
(2.01286 0.209544 1.7211e-21)
(2.01889 0.22015 0)
(2.00571 0.224041 8.5876e-20)
(1.96778 0.223433 5.44918e-20)
(1.89958 0.215732 6.45282e-20)
(1.79842 0.201639 2.33762e-21)
(1.66531 0.181583 8.27859e-20)
(1.50536 0.157372 4.75648e-20)
(1.32689 0.131096 1.62822e-19)
(1.13972 0.104975 -5.89166e-20)
(0.953474 0.0808442 -2.09939e-22)
(0.776218 0.0599647 7.39288e-20)
(0.613816 0.0429639 -7.96927e-20)
(0.469891 0.029923 0)
(0.346164 0.0205211 0)
(0.242946 0.0141851 1.02783e-19)
(0.159623 0.0102154 -5.26083e-20)
(0.0950523 0.00788215 1.46348e-19)
(0.0478374 0.00646918 -1.53062e-19)
(0.0164902 0.0052799 0)
(-0.000381378 0.00389583 0)
(-0.0039172 0.00237175 0)
(2.01385 0.186834 0)
(2.0056 0.195416 -7.30672e-20)
(1.97261 0.196575 1.33649e-19)
(1.91016 0.193007 -1.02586e-19)
(1.8146 0.182574 -1.40421e-21)
(1.68653 0.166778 -1.58013e-21)
(1.53053 0.146597 1.64676e-19)
(1.35467 0.12416 1.0837e-21)
(1.16875 0.101439 1.05552e-19)
(0.982556 0.0802292 -1.73444e-19)
(0.804392 0.0617617 -6.4899e-20)
(0.640361 0.0466879 -1.74531e-21)
(0.494272 0.0351312 0)
(0.367964 0.0268215 0)
(0.26181 0.021236 9.15247e-20)
(0.175214 0.0177178 1.4098e-21)
(0.107032 0.0155649 -1.03741e-19)
(0.0558703 0.0140919 5.45593e-20)
(0.0202673 0.0126526 8.91276e-20)
(-0.00121669 0.0106312 -2.46242e-19)
(-0.00987002 0.00765389 9.63497e-20)
(-0.00670349 0.00376972 0)
(2.005 0.162877 0)
(1.9777 0.169194 7.22573e-20)
(1.92068 0.167745 -4.14322e-20)
(1.83087 0.161851 1.04392e-21)
(1.70772 0.149906 -6.08719e-20)
(1.55555 0.134023 0)
(1.38206 0.115465 1.09113e-21)
(1.19714 0.0963255 -2.72248e-19)
(1.01075 0.0782055 -2.30259e-21)
(0.831497 0.0623509 5.56067e-20)
(0.665736 0.0494187 0)
(0.517475 0.0395776 0)
(0.388666 0.0326101 0)
(0.27973 0.0280489 -3.98258e-20)
(0.190074 0.0252892 -8.78516e-20)
(0.118535 0.023673 9.31543e-20)
(0.0636949 0.0225445 1.00883e-19)
(0.0240784 0.0212873 -1.05486e-19)
(-0.00173485 0.0193333 2.98153e-20)
(-0.0150817 0.0161468 -1.17662e-19)
(-0.017129 0.0113961 3.1439e-20)
(-0.00876635 0.00512127 0)
(1.98026 0.138871 0)
(1.93053 0.143037 0)
(1.84668 0.139495 -4.65122e-20)
(1.72928 0.132148 -5.49714e-20)
(1.5812 0.11995 -6.23905e-20)
(1.41028 0.105398 1.3859e-19)
(1.22628 0.0897628 7.88644e-20)
(1.03952 0.0748266 0)
(0.85895 0.0616894 0)
(0.691266 0.0510516 5.50382e-20)
(0.540707 0.0431032 0)
(0.409358 0.0376773 0)
(0.297685 0.0343584 7.21506e-20)
(0.205091 0.0325945 -1.92988e-19)
(0.13038 0.0317766 8.34463e-20)
(0.0720937 0.0312908 4.45581e-20)
(0.0287244 0.03055 9.70241e-20)
(-0.00116302 0.0290139 6.57936e-22)
(-0.0188856 0.0261913 0)
(-0.0256509 0.0216216 0)
(-0.0225033 0.0150128 -2.92486e-20)
(-0.0102276 0.00639632 -1.26518e-19)
(1.94165 0.112749 -6.59426e-20)
(1.86476 0.115096 7.81959e-20)
(1.75305 0.110453 0)
(1.60971 0.103019 1.04997e-19)
(1.44135 0.0922738 -7.13167e-22)
(1.25824 0.0805957 -7.08567e-20)
(1.07082 0.0690588 -1.10066e-21)
(0.888581 0.05895 -9.78903e-22)
(0.718602 0.0508802 -9.70617e-20)
(0.565432 0.0451002 5.25261e-20)
(0.431319 0.0414823 1.17061e-19)
(0.316788 0.0396682 1.60038e-21)
(0.221231 0.0391608 -2.75934e-19)
(0.143406 0.039403 1.50567e-19)
(0.0818033 0.0398278 -8.15093e-20)
(0.0348679 0.0398876 8.55478e-20)
(0.00113264 0.0390705 -4.59982e-20)
(-0.02073 0.0369106 -1.49514e-19)
(-0.0319023 0.0329884 1.04093e-19)
(-0.0334556 0.026913 1.37296e-19)
(-0.0263204 0.0184324 5.81468e-20)
(-0.0111987 0.00757515 -4.89335e-20)
(1.87874 0.0890236 6.50555e-20)
(1.7771 0.0902051 -7.71198e-20)
(1.63904 0.0852358 9.20929e-20)
(1.47483 0.0786947 5.38921e-20)
(1.29305 0.0702768 -1.19572e-19)
(1.10527 0.0620578 1.36916e-19)
(0.921232 0.0548308 -1.51641e-19)
(0.748716 0.0493426 -1.70393e-19)
(0.592626 0.0457939 1.87265e-19)
(0.455466 0.0441009 5.18542e-20)
(0.337858 0.0439409 -1.69775e-19)
(0.239205 0.0448648 -6.25735e-20)
(0.158224 0.0463626 6.6236e-20)
(0.0933437 0.0479102 2.1666e-19)
(0.0429516 0.0489975 -7.76829e-20)
(0.00553613 0.0491425 -4.25522e-20)
(-0.0202558 0.0479001 4.54992e-20)
(-0.0356096 0.0448682 9.60018e-20)
(-0.0415643 0.039689 -1.00704e-19)
(-0.0390611 0.0320337 -7.94115e-20)
(-0.0289301 0.0216886 -5.55475e-20)
(-0.0118051 0.00868432 -2.43506e-20)
(1.80824 0.0615549 -1.32527e-19)
(1.67595 0.0624988 -8.03977e-20)
(1.51552 0.0594764 -9.40055e-20)
(1.33559 0.0550659 1.05581e-19)
(1.14691 0.0505262 0)
(0.960607 0.0467766 -6.69557e-20)
(0.784816 0.0443799 1.49915e-19)
(0.625056 0.0435285 1.02828e-21)
(0.484122 0.044136 -9.07224e-20)
(0.362813 0.0459361 -2.00613e-19)
(0.260575 0.0485496 1.6431e-19)
(0.176097 0.0515417 6.02062e-20)
(0.107737 0.0544544 0)
(0.0538029 0.0568289 -7.16784e-20)
(0.0127147 0.0582188 7.66979e-20)
(-0.0169296 0.0582002 -4.03848e-20)
(-0.036339 0.0563792 -4.31254e-20)
(-0.0465492 0.0524013 0)
(-0.0484603 0.0459563 4.84349e-20)
(-0.0428931 0.0367687 2.06032e-19)
(-0.0305897 0.0246649 5.43113e-20)
(-0.0121325 0.00968794 -1.87213e-19)
(1.66358 0.0425168 -3.807e-21)
(1.49956 0.040723 4.38902e-20)
(1.31782 0.0396735 1.95477e-19)
(1.12968 0.0382248 -2.79594e-19)
(0.944835 0.0378867 0)
(0.771387 0.0385817 7.08833e-20)
(0.614277 0.0404997 7.88451e-20)
(0.476076 0.0434655 -8.61358e-20)
(0.357343 0.0472428 -9.50576e-20)
(0.257367 0.0515173 2.0892e-19)
(0.174704 0.0559361 -1.69778e-19)
(0.107611 0.0601223 0)
(0.054318 0.0636853 0)
(0.0131903 0.0662314 -7.24798e-20)
(-0.0172042 0.0673729 7.7221e-20)
(-0.0380806 0.0667401 2.07124e-19)
(-0.0504581 0.0639931 8.86525e-20)
(-0.0551983 0.0588342 5.56902e-22)
(-0.0530503 0.0510188 -1.95638e-19)
(-0.044706 0.0403529 -1.54255e-19)
(-0.030808 0.0267422 -2.725e-20)
(-0.0118818 0.0102835 1.14581e-19)
(1.4132 0.021519 7.70784e-20)
(1.22916 0.0221472 -1.81102e-19)
(1.04433 0.0255096 0)
(0.866578 0.0284124 1.15336e-19)
(0.702486 0.0326629 0)
(0.555799 0.0373326 -7.24582e-20)
(0.428071 0.0425857 -6.82769e-22)
(0.319209 0.0481362 1.76344e-19)
(0.228084 0.0537971 9.74089e-20)
(0.153033 0.0593233 -5.25859e-20)
(0.092218 0.0644482 1.72979e-19)
(0.0438554 0.0688766 -6.21771e-20)
(0.0063367 0.0722919 -1.35179e-19)
(-0.0217196 0.0743654 1.44554e-19)
(-0.041466 0.0747696 -7.80504e-20)
(-0.0538513 0.0731934 0)
(-0.0596603 0.0693575 -4.42151e-20)
(-0.0595561 0.0630298 0)
(-0.0541218 0.054037 4.90136e-20)
(-0.0439039 0.0422656 -2.51436e-20)
(-0.0294159 0.0276968 0)
(-0.0110886 0.0104614 8.97302e-20)
(1.12869 0.0103573 -1.24096e-19)
(0.947839 0.0140219 1.40473e-19)
(0.780122 0.0212609 -5.38305e-20)
(0.626748 0.0273539 5.9433e-20)
(0.491761 0.0344822 6.67924e-20)
(0.375262 0.0414111 3.64963e-22)
(0.276818 0.0483728 -1.63161e-19)
(0.194919 0.0551062 8.93791e-20)
(0.127801 0.0614933 9.79749e-20)
(0.0735942 0.0673516 -5.36094e-20)
(0.0305511 0.0724773 0)
(-0.00287858 0.0766308 -1.89301e-19)
(-0.0280111 0.0795454 1.35356e-19)
(-0.0459337 0.0809376 0)
(-0.0575311 0.0805226 3.87278e-20)
(-0.0635212 0.078032 0)
(-0.0644954 0.0732317 -8.77807e-20)
(-0.0609559 0.0659379 1.84428e-19)
(-0.0533496 0.0560293 -9.6373e-20)
(-0.0420994 0.0434503 1.2583e-19)
(-0.0276075 0.0282328 -1.81925e-19)
(-0.0102214 0.0105232 6.60519e-20)
(0.846411 0.00585359 8.61371e-20)
(0.686183 0.013189 -4.82938e-20)
(0.546606 0.0228913 0)
(0.423251 0.0311058 0)
(0.31866 0.0396351 6.40183e-23)
(0.230737 0.0475033 1.50728e-19)
(0.158246 0.054958 -8.26678e-20)
(0.0992016 0.0618452 -9.07939e-20)
(0.0518161 0.0681207 -9.95549e-20)
(0.0143892 0.0736673 0)
(-0.0145527 0.0783331 5.85223e-20)
(-0.036257 0.0819202 1.27081e-19)
(-0.0517497 0.0841948 -2.04187e-19)
(-0.0618602 0.0849015 0)
(-0.0672539 0.0837809 -3.91702e-20)
(-0.0684671 0.0805897 0)
(-0.0659408 0.0751194 0)
(-0.0600507 0.0672132 0)
(-0.0511322 0.0567777 -1.19682e-19)
(-0.0395029 0.0437878 9.93861e-20)
(-0.0254679 0.0282987 7.68448e-20)
(-0.0092977 0.0104549 -1.08307e-19)
(0.590239 0.00757305 -4.3756e-20)
(0.459971 0.0176559 0)
(0.351469 0.0280077 5.62045e-20)
(0.258065 0.0369623 -6.20363e-20)
(0.181202 0.0455255 -6.91443e-20)
(0.118027 0.053227 -7.64217e-20)
(0.0671541 0.0602805 0)
(0.0266744 0.0666409 9.21775e-20)
(-0.00495394 0.0723092 -5.00909e-20)
(-0.0291291 0.07721 5.44475e-20)
(-0.0470161 0.0812203 5.91523e-20)
(-0.0595787 0.0841646 -1.27399e-19)
(-0.0675968 0.0858275 1.0291e-19)
(-0.0716948 0.0859694 -3.68904e-20)
(-0.0723705 0.0843458 1.1671e-19)
(-0.0700244 0.0807276 -4.10953e-20)
(-0.0649853 0.07492 8.71236e-20)
(-0.0575329 0.0667784 -1.82447e-19)
(-0.0479153 0.0562201 1.91788e-22)
(-0.0363643 0.0432297 7.40063e-20)
(-0.0231042 0.0278626 0)
(-0.00833863 0.0102426 2.1482e-20)
(0.373017 0.0125157 4.4667e-20)
(0.274488 0.0236606 0)
(0.194932 0.0334939 0)
(0.128127 0.0420948 0)
(0.074627 0.0498684 0)
(0.0317485 0.0567534 0)
(-0.00177023 0.0629262 -8.5021e-20)
(-0.0275283 0.0684195 1.39028e-19)
(-0.0467598 0.0732564 5.07664e-20)
(-0.0605566 0.0773862 -3.32865e-22)
(-0.0698122 0.0807022 5.92817e-20)
(-0.0752581 0.0830427 0)
(-0.0774825 0.0842043 -6.87188e-20)
(-0.0769549 0.0839584 -3.09891e-22)
(-0.0740498 0.0820707 3.88599e-20)
(-0.0690681 0.0783206 4.15401e-20)
(-0.0622568 0.0725196 -8.66467e-20)
(-0.0538249 0.0645256 0)
(-0.0439546 0.0542539 2.37363e-20)
(-0.0328104 0.0416838 2.45606e-20)
(-0.0205547 0.0268539 0)
(-0.00734145 0.00985168 8.38314e-20)
(0.197452 0.0180827 -4.59974e-20)
(0.127705 0.0286322 5.10172e-20)
(0.0728523 0.0372998 -5.75888e-20)
(0.0281546 0.0448553 1.2753e-19)
(-0.00646843 0.051433 -7.04071e-20)
(-0.0331652 0.0571926 3.97182e-22)
(-0.0530006 0.0622888 -8.53165e-20)
(-0.0672198 0.0667972 -2.75615e-22)
(-0.0767747 0.0707495 0)
(-0.0824929 0.0741087 -5.54381e-20)
(-0.0850477 0.0767783 -5.99171e-20)
(-0.0849881 0.0786074 0)
(-0.0827557 0.079404 1.37702e-19)
(-0.0787041 0.0789512 -1.10171e-19)
(-0.0731168 0.0770249 0)
(-0.066223 0.0734127 0)
(-0.0582114 0.06793 0)
(-0.0492409 0.0604333 -9.01729e-20)
(-0.0394472 0.0508299 9.36521e-20)
(-0.0289461 0.0390851 1.20746e-19)
(-0.0178582 0.0252107 -9.93341e-20)
(-0.00630871 0.00924912 -1.02495e-20)
(0.0609384 0.0223761 -9.22636e-20)
(0.0151612 0.0312086 5.14207e-20)
(-0.0196115 0.0383467 5.79784e-20)
(-0.0466512 0.0445264 -6.39553e-20)
(-0.0664017 0.0497845 0)
(-0.0804518 0.0543473 1.17951e-19)
(-0.0896657 0.0583541 -8.5765e-20)
(-0.094972 0.0618955 -1.4119e-19)
(-0.0970861 0.0650059 -2.54034e-22)
(-0.0966205 0.0676563 1.10788e-19)
(-0.094073 0.06976 0)
(-0.0898502 0.0711787 0)
(-0.0842806 0.0717349 -2.39854e-22)
(-0.0776302 0.0712269 0)
(-0.0701151 0.069445 -3.87318e-20)
(-0.0619129 0.0661881 0)
(-0.0531718 0.0612782 -8.59583e-20)
(-0.0440179 0.0545715 2.4416e-23)
(-0.0345566 0.0459675 1.85973e-19)
(-0.0248731 0.0354157 -1.20038e-19)
(-0.0150659 0.0228983 0)
(-0.00525237 0.00841151 2.03236e-20)
(-0.040727 0.0243789 4.431e-22)
(-0.067454 0.0310391 5.22157e-20)
(-0.0864274 0.0364865 4.15087e-23)
(-0.0997877 0.0411926 0)
(-0.108116 0.045154 0)
(-0.112538 0.0485722 3.94166e-20)
(-0.11373 0.0515661 8.63872e-20)
(-0.112361 0.0542223 -1.88486e-19)
(-0.108953 0.0565735 1.53801e-19)
(-0.103944 0.0585967 -2.7809e-20)
(-0.097693 0.0602163 -6.00322e-20)
(-0.0904931 0.0613098 6.43949e-20)
(-0.0825849 0.0617189 -6.89225e-20)
(-0.0741668 0.0612621 0)
(-0.0654044 0.0597494 -3.86797e-20)
(-0.0564377 0.0569972 -2.62305e-25)
(-0.0473878 0.0528396 2.89027e-23)
(-0.0383603 0.0471387 6.13746e-23)
(-0.0294448 0.0397918 9.24561e-20)
(-0.0207109 0.0307374 0)
(-0.0122523 0.019933 0)
(-0.00419712 0.00733488 -9.02693e-20)
(-0.111213 0.0237032 -9.30185e-20)
(-0.123319 0.028255 5.17886e-20)
(-0.130284 0.032068 -1.16706e-19)
(-0.133455 0.0353739 6.4366e-20)
(-0.133381 0.0381516 0)
(-0.130831 0.0405447 -3.92944e-20)
(-0.126302 0.0426458 4.31299e-20)
(-0.120257 0.0445264 2.35707e-20)
(-0.113057 0.046215 -2.56529e-20)
(-0.105002 0.047694 2.78326e-20)
(-0.0963379 0.0489006 -6.0031e-20)
(-0.0872684 0.0497316 0)
(-0.0779642 0.0500518 -3.44003e-20)
(-0.0685712 0.0497052 7.32765e-20)
(-0.059216 0.0485273 -1.93484e-20)
(-0.0500115 0.0463576 -2.0359e-20)
(-0.0410596 0.0430504 0)
(-0.0324544 0.0384819 0)
(-0.0242785 0.0325574 -9.18911e-20)
(-0.0165975 0.0252148 9.46848e-20)
(-0.00951336 0.0163991 -8.45444e-20)
(-0.00317863 0.00604088 9.99735e-21)
(-0.15286 0.0205146 2.81792e-22)
(-0.154354 0.023325 -5.24335e-20)
(-0.152765 0.0257451 1.16449e-19)
(-0.148896 0.027853 -1.29444e-19)
(-0.143168 0.0296267 7.15954e-20)
(-0.136072 0.0311552 3.80631e-23)
(-0.127946 0.0325053 -4.36247e-20)
(-0.119084 0.0337314 4.71833e-20)
(-0.109719 0.0348566 2.58199e-20)
(-0.100038 0.0358692 -2.78789e-20)
(-0.0901994 0.0367211 6.0247e-20)
(-0.0803343 0.0373309 -4.84284e-20)
(-0.0705591 0.0375901 -6.90334e-20)
(-0.0609782 0.037372 1.46665e-19)
(-0.0516885 0.0365416 -7.74706e-20)
(-0.0427817 0.0349669 8.15704e-20)
(-0.0343455 0.032528 -1.07158e-20)
(-0.026466 0.0291244 -9.97808e-20)
(-0.0192224 0.02468 9.15879e-20)
(-0.0126816 0.0191464 -9.43141e-20)
(-0.00695982 0.0124734 8.40455e-20)
(-0.00224099 0.00458834 -8.86807e-20)
(-0.166785 0.0154407 1.16285e-19)
(-0.161507 0.0169821 0)
(-0.154671 0.0183431 -2.91178e-20)
(-0.146731 0.0195226 0)
(-0.137943 0.0205101 3.59744e-20)
(-0.128596 0.0213578 3.28955e-23)
(-0.118889 0.022112 2.03478e-22)
(-0.108989 0.0228118 -1.18732e-19)
(-0.0990258 0.0234762 -1.62291e-22)
(-0.0891016 0.0240991 8.39099e-20)
(-0.079303 0.0246482 0)
(-0.0697071 0.0250658 -1.62048e-20)
(-0.060387 0.0252721 -1.72849e-20)
(-0.0514156 0.0251722 9.18161e-20)
(-0.0428664 0.0246631 -5.81816e-20)
(-0.0348143 0.0236433 3.06112e-20)
(-0.0273354 0.0220219 1.06685e-20)
(-0.020507 0.0197255 1.1088e-20)
(-0.0144036 0.0167053 0)
(-0.00909095 0.0129393 5.87943e-21)
(-0.00469484 0.00840488 0)
(-0.00142658 0.00305893 0)
(-0.15355 0.0095955 1.08565e-22)
(-0.145278 0.0103177 -2.601e-20)
(-0.136434 0.0109612 -9.42557e-23)
(-0.127276 0.0114976 3.23637e-20)
(-0.117924 0.0119319 0)
(-0.108526 0.0122953 3.98092e-20)
(-0.0991815 0.0126189 -4.34664e-20)
(-0.089966 0.0129294 0)
(-0.0809331 0.0132416 0)
(-0.0721232 0.0135551 0)
(-0.0635707 0.013853 -6.06039e-20)
(-0.0553103 0.014101 5.67797e-20)
(-0.0473822 0.0142498 8.67106e-20)
(-0.039834 0.0142371 -1.65691e-19)
(-0.0327209 0.0139932 3.88956e-20)
(-0.0261045 0.0134472 -1.01985e-20)
(-0.02005 0.012535 9.07337e-20)
(-0.0146254 0.011208 -8.87116e-20)
(-0.00989532 0.00944237 5.15856e-20)
(-0.0059162 0.0072455 -5.88112e-21)
(-0.00280528 0.00463499 0)
(-0.000776551 0.0016269 0)
(-0.113577 0.00414083 -2.35428e-20)
(-0.105947 0.00437018 -3.10126e-22)
(-0.0982174 0.00455109 3.64602e-20)
(-0.0905838 0.00467239 0)
(-0.0830714 0.00475036 0)
(-0.075751 0.00480406 0)
(-0.0686538 0.0048504 0)
(-0.0618001 0.00490316 -4.78895e-20)
(-0.0551962 0.00497077 6.31914e-21)
(-0.0488423 0.00505529 -1.68019e-22)
(-0.0427384 0.0051516 6.82745e-20)
(-0.0368898 0.00524679 4.07514e-20)
(-0.0313106 0.00532005 3.92503e-23)
(-0.0260269 0.00534287 -4.15461e-20)
(-0.0210765 0.00528031 3.90044e-20)
(-0.0165073 0.00509343 -3.58408e-20)
(-0.0123744 0.00474384 -5.34646e-21)
(-0.00873602 0.00420065 0)
(-0.00564573 0.0034521 -8.61109e-21)
(-0.00314366 0.00251891 4.70949e-20)
(-0.00130816 0.00145559 -4.81734e-20)
(-0.000304245 0.000374689 0)
(-0.0471536 0.00060284 -3.12122e-22)
(-0.0435696 0.000626471 -3.13375e-22)
(-0.0399624 0.000633622 2.12411e-20)
(-0.0364977 0.000624246 -6.18612e-23)
(-0.0331678 0.000607549 0)
(-0.0299999 0.000589275 -1.93369e-20)
(-0.026995 0.000573504 -8.0828e-23)
(-0.0241486 0.000563359 2.29933e-20)
(-0.0214497 0.000561078 -3.13925e-20)
(-0.0188846 0.000568082 5.4111e-20)
(-0.01644 0.000584818 -3.6417e-20)
(-0.0141057 0.000610451 -3.12675e-20)
(-0.0118775 0.000642402 3.33098e-20)
(-0.00975852 0.000675765 3.97471e-20)
(-0.00776149 0.000702686 -3.7277e-20)
(-0.00590904 0.00071196 -4.40205e-20)
(-0.00423369 0.000689255 3.39855e-23)
(-0.00277656 0.000618846 4.2455e-20)
(-0.00158246 0.000488728 -4.10696e-20)
(-0.00068992 0.000299946 4.50776e-20)
(-0.000138972 7.88543e-05 4.60023e-20)
(1.69198e-05 -8.52838e-05 -2.7036e-23)
(1.13648 0.0268727 0)
(1.09043 0.0286495 1.9763e-20)
(1.04234 0.030471 2.26511e-20)
(0.9921 0.0323385 2.58517e-20)
(0.93982 0.0342575 -2.99893e-20)
(0.885586 0.036235 -3.86782e-22)
(0.829489 0.038274 3.80533e-20)
(0.771637 0.0403754 -4.13577e-20)
(0.712148 0.0425389 -2.32146e-20)
(0.651151 0.0447617 1.5723e-24)
(0.588792 0.0470359 0)
(0.525236 0.049337 -1.53694e-20)
(0.460701 0.0515999 3.37337e-20)
(0.395519 0.0536791 -1.78389e-20)
(0.330242 0.0553042 -1.91414e-20)
(0.265769 0.0560521 0)
(0.203468 0.0553572 -1.06919e-20)
(0.145218 0.0525698 2.25747e-20)
(0.0932846 0.0470529 -2.33334e-20)
(0.0500668 0.0382907 2.42874e-20)
(0.0188058 0.0259545 -3.7493e-20)
(0.00354229 0.0099548 2.03726e-20)
(1.14102 0.082833 -6.74754e-20)
(1.09542 0.0887286 2.0406e-20)
(1.04795 0.0948959 -1.11742e-19)
(0.998303 0.101305 -7.69136e-20)
(0.946614 0.107949 0)
(0.892973 0.114831 3.3192e-20)
(0.83747 0.12195 -3.68443e-20)
(0.780212 0.129298 0)
(0.721319 0.136867 2.32088e-20)
(0.66092 0.144644 -1.07967e-21)
(0.599159 0.152594 -1.15811e-21)
(0.536195 0.160629 1.42451e-20)
(0.472233 0.168519 6.57267e-20)
(0.407572 0.175765 1.73494e-20)
(0.342705 0.181452 9.56984e-20)
(0.278441 0.184166 -1.20286e-19)
(0.216021 0.18204 -7.46655e-20)
(0.157181 0.172946 1.77939e-19)
(0.104037 0.154816 -1.8504e-19)
(0.0588618 0.125984 1.91414e-19)
(0.0248077 0.0853986 -1.15974e-20)
(0.00587306 0.0327832 -1.71439e-19)
(1.14983 0.138785 1.33313e-19)
(1.10519 0.148816 0)
(1.05897 0.159251 2.22431e-19)
(1.01051 0.170083 -4.53368e-20)
(0.960005 0.181302 -1.12925e-19)
(0.907559 0.192917 -1.31738e-19)
(0.853259 0.204928 1.0855e-19)
(0.797215 0.217328 0)
(0.739545 0.230103 2.39854e-21)
(0.680379 0.243232 -1.49381e-19)
(0.619855 0.256661 5.40668e-20)
(0.558122 0.270239 -6.17963e-20)
(0.495354 0.283578 2.59129e-19)
(0.431783 0.295832 -1.73627e-19)
(0.367782 0.305454 3.65692e-20)
(0.303968 0.310054 1.14129e-21)
(0.241329 0.306483 2.07315e-19)
(0.181305 0.291162 -1.30469e-19)
(0.125719 0.260613 0)
(0.0765925 0.212047 0)
(0.0369021 0.143716 9.65654e-20)
(0.0105681 0.0551658 2.97207e-20)
(1.16197 0.191989 -3.26218e-19)
(1.11889 0.206033 1.47689e-19)
(1.07463 0.220597 -8.72079e-20)
(1.02804 0.235733 1.99423e-19)
(0.979386 0.251417 3.60299e-21)
(0.928793 0.267662 -2.51885e-19)
(0.876346 0.284465 2.1115e-19)
(0.822159 0.301817 1.60093e-19)
(0.766355 0.319699 -2.61971e-19)
(0.709061 0.338081 2.86563e-19)
(0.650413 0.356886 1.60537e-19)
(0.590545 0.375906 -2.88252e-19)
(0.529585 0.394597 -6.12761e-20)
(0.467668 0.411772 6.5789e-20)
(0.404984 0.425265 1.07658e-19)
(0.341867 0.431737 -3.84823e-20)
(0.278924 0.426789 -7.97174e-20)
(0.217159 0.405433 -2.1009e-19)
(0.157954 0.362841 1.30922e-19)
(0.102958 0.295156 -4.37306e-20)
(0.054889 0.199985 0)
(0.0175482 0.0767377 -1.71611e-19)
(1.17744 0.242577 -7.26179e-23)
(1.13643 0.260506 2.90081e-19)
(1.09477 0.278997 -1.63128e-19)
(1.05064 0.298232 9.25546e-20)
(1.00444 0.318166 1.08929e-19)
(0.956303 0.338814 -2.37544e-19)
(0.90631 0.360178 0)
(0.854586 0.382245 1.48055e-19)
(0.801254 0.404995 0)
(0.746445 0.42839 -9.46169e-20)
(0.690287 0.452336 0)
(0.632895 0.476568 0)
(0.574339 0.500393 6.10959e-20)
(0.514625 0.522298 -6.56139e-20)
(0.453699 0.53952 -3.40661e-19)
(0.391524 0.547801 1.43967e-19)
(0.328204 0.541539 3.89399e-20)
(0.264167 0.514398 -8.21277e-20)
(0.200219 0.460267 4.15912e-20)
(0.137525 0.374296 4.27531e-20)
(0.0784663 0.253514 1.32462e-19)
(0.0266919 0.0972317 -3.49785e-20)
(1.19578 0.289261 1.27292e-19)
(1.15737 0.310901 -1.35886e-19)
(1.11894 0.333083 0)
(1.07786 0.356184 9.10853e-20)
(1.0347 0.380127 -1.01616e-19)
(0.989592 0.404932 4.62982e-19)
(0.942632 0.430601 -5.15897e-19)
(0.893946 0.457124 2.82352e-19)
(0.843665 0.484478 -2.86749e-21)
(0.791918 0.512621 -1.7711e-19)
(0.738829 0.541444 1.90401e-19)
(0.684489 0.570629 -1.01024e-19)
(0.628899 0.599348 0)
(0.571906 0.625779 -1.16517e-19)
(0.513161 0.646591 6.61377e-20)
(0.452165 0.65665 6.99227e-20)
(0.388406 0.649205 2.84625e-19)
(0.321601 0.61664 -7.40746e-19)
(0.251856 0.551645 -9.18474e-22)
(0.179749 0.448463 3.17246e-19)
(0.107257 0.30362 4.24045e-20)
(0.037847 0.116384 1.70464e-19)
(1.21656 0.331463 1.15809e-19)
(1.18126 0.356585 0)
(1.1466 0.382159 1.45235e-19)
(1.10909 0.408833 1.72573e-19)
(1.06949 0.436486 -2.88211e-19)
(1.02794 0.465142 -1.11204e-19)
(0.984541 0.49481 -3.6253e-19)
(0.939425 0.525479 4.08869e-19)
(0.892729 0.557125 -1.4797e-19)
(0.844588 0.589702 -1.66916e-19)
(0.795118 0.623087 0)
(0.744383 0.65692 1.00473e-19)
(0.692302 0.690249 2.10043e-19)
(0.638539 0.720969 2.24549e-19)
(0.582399 0.745217 -2.36913e-19)
(0.522835 0.757034 -5.97639e-20)
(0.458611 0.748585 2.61746e-19)
(0.388609 0.711052 -2.01449e-19)
(0.312111 0.636008 0)
(0.229019 0.516883 2.92425e-19)
(0.140844 0.349788 2.53461e-21)
(0.0508492 0.134002 -2.48055e-19)
(1.2391 0.368486 0)
(1.20741 0.396844 -2.43728e-19)
(1.17705 0.425496 4.34791e-22)
(1.1436 0.45542 -3.09918e-19)
(1.10806 0.486437 -1.7322e-19)
(1.07055 0.518581 0)
(1.03119 0.55187 7.84235e-21)
(0.990124 0.586297 1.29383e-19)
(0.947493 0.621843 -2.78291e-19)
(0.903435 0.658461 3.02928e-19)
(0.858066 0.696024 -3.27921e-19)
(0.811422 0.734137 0)
(0.763337 0.771744 9.14617e-20)
(0.71327 0.806489 -1.06692e-19)
(0.660138 0.834023 -1.02638e-19)
(0.602274 0.847617 5.94984e-20)
(0.537609 0.83842 0)
(0.464069 0.796487 3.0327e-19)
(0.380004 0.712369 -5.0837e-19)
(0.284547 0.578773 5.24791e-19)
(0.1787 0.391491 -2.696e-19)
(0.0654903 0.149883 2.25065e-19)
(1.26264 0.399762 0)
(1.23502 0.431026 2.33507e-19)
(1.20937 0.462387 6.14509e-21)
(1.18038 0.495206 3.12752e-21)
(1.1493 0.529236 1.75559e-19)
(1.11625 0.564521 0)
(1.08135 0.601083 1.07408e-19)
(1.04477 0.638914 0)
(1.00666 0.677997 0)
(0.967157 0.718285 1.44017e-19)
(0.926374 0.759646 -1.42695e-19)
(0.884316 0.801663 0)
(0.840729 0.843197 -9.07727e-20)
(0.79485 0.881677 0)
(0.745164 0.912323 2.94469e-19)
(0.689316 0.927703 -9.6389e-20)
(0.624305 0.918026 -3.0868e-19)
(0.546986 0.872305 -7.20292e-21)
(0.454668 0.780157 0)
(0.345647 0.63367 2.83983e-19)
(0.220363 0.428416 -2.36821e-19)
(0.0815927 0.163916 -4.60131e-20)
(1.2863 0.425139 0)
(1.26324 0.459024 -2.13123e-19)
(1.24271 0.492741 3.56064e-19)
(1.21861 0.528053 -2.69213e-19)
(1.19237 0.564643 3.07063e-19)
(1.16414 0.602579 0)
(1.13405 0.6419 9.70451e-21)
(1.10228 0.682613 -4.14892e-19)
(1.06901 0.724709 2.26466e-19)
(1.03438 0.768151 0)
(0.998509 0.812811 2.82619e-19)
(0.961385 0.858264 -4.23627e-19)
(0.922668 0.903314 0)
(0.881371 0.945222 0)
(0.835528 0.978833 0)
(0.782038 0.996076 9.41186e-20)
(0.716874 0.986288 9.74909e-20)
(0.635705 0.937513 -9.30325e-20)
(0.534688 0.838523 0)
(0.411205 0.680888 -5.32201e-20)
(0.2651 0.460085 -2.49536e-19)
(0.0988693 0.175907 2.15261e-19)
(1.30917 0.44413 -1.60291e-19)
(1.29102 0.480187 -1.85206e-19)
(1.27581 0.515875 -2.08737e-19)
(1.25681 0.553356 -1.17359e-19)
(1.2357 0.592213 0)
(1.21261 0.632516 0)
(1.18769 0.674303 7.32922e-21)
(1.16113 0.71758 1.85059e-19)
(1.13311 0.762344 -2.03339e-19)
(1.10379 0.808564 2.19868e-19)
(1.07328 0.856116 1.25501e-19)
(1.04155 0.904579 1.34324e-19)
(1.00819 0.952724 0)
(0.971963 0.997681 -6.47228e-20)
(0.930431 1.03399 2.86166e-19)
(0.879686 1.05302 -1.5488e-19)
(0.814588 1.04333 -2.23438e-19)
(0.72952 0.992108 4.25297e-20)
(0.619401 0.887371 0)
(0.480653 0.720293 0)
(0.312505 0.486375 2.12777e-19)
(0.117159 0.185812 -1.08234e-19)
(1.33033 0.457483 1.57903e-19)
(1.3177 0.495481 1.82428e-19)
(1.30818 0.532714 2.05585e-19)
(1.2946 0.571798 4.13157e-21)
(1.27883 0.612275 -1.68122e-21)
(1.261 0.654261 1.35944e-19)
(1.24131 0.697821 -7.97853e-21)
(1.22002 0.742974 1.6436e-19)
(1.1973 0.78973 -1.78345e-19)
(1.17335 0.838069 3.84436e-19)
(1.14828 0.887888 -2.06431e-19)
(1.12208 0.938786 0)
(1.09424 0.989541 0)
(1.06336 1.03722 6.40031e-20)
(1.02651 1.07611 0)
(0.97896 1.0971 0)
(0.914379 1.08801 -1.17421e-19)
(0.825737 1.03518 1.30754e-19)
(0.706583 0.92598 1.25933e-19)
(0.552297 0.751288 0)
(0.361482 0.506832 0)
(0.136038 0.193427 -1.40608e-19)
(1.34882 0.464045 1.32697e-19)
(1.34178 0.503529 0)
(1.33787 0.542199 1.79034e-19)
(1.32992 0.582857 -1.97149e-19)