/*--------------------------------*- C++ -*----------------------------------*\
| =========                 |                                                 |
| \\      /  F ield         | OpenFOAM Extend Project: Open source CFD        |
|  \\    /   O peration     | Version:  1.6-ext                               |
|   \\  /    A nd           | Web:      www.extend-project.de                 |
|    \\/     M anipulation  |                                                 |
\*---------------------------------------------------------------------------*/
FoamFile
{
    version     2.0;
    format      ascii;
    class       volVectorField;
    location    "0.55";
    object      U_0;
}
// * * * * * * * * * * * * * * * * * * * * * * * * * * * * * * * * * * * * * //

dimensions      [0 1 -1 0 0 0 0];

internalField   nonuniform List<vector> 
20940
(
(1.85354 0.394001 -3.22836e-21)
(1.89365 0.414124 -1.02766e-21)
(1.93164 0.433553 3.31902e-21)
(1.96668 0.451236 -4.79768e-21)
(1.9985 0.467394 5.29545e-21)
(2.02547 0.480914 -3.55168e-24)
(2.04465 0.490705 -4.55027e-24)
(2.05125 0.494837 -6.33572e-21)
(2.03888 0.491082 -7.86942e-22)
(2.0004 0.477191 8.3392e-21)
(1.92946 0.45159 0)
(1.82235 0.413997 -1.2394e-20)
(1.67938 0.365791 2.00506e-20)
(1.50533 0.309925 -1.56934e-20)
(1.30864 0.250391 8.01908e-21)
(1.0998 0.191457 9.12128e-21)
(0.88943 0.136955 9.79927e-21)
(0.686762 0.0898245 -1.07452e-20)
(0.498724 0.0519106 1.11584e-20)
(0.329716 0.0240149 0)
(0.181825 0.00663947 0)
(0.0552997 0.000486854 0)
(1.88053 0.370141 -3.96802e-21)
(1.91938 0.389122 9.02877e-21)
(1.95582 0.406751 -3.75446e-21)
(1.98872 0.422668 8.69739e-21)
(2.01729 0.436549 2.63063e-20)
(2.03908 0.447206 -1.4842e-20)
(2.05009 0.453245 0)
(2.04461 0.452644 -2.52428e-20)
(2.01583 0.443331 2.88661e-20)
(1.95716 0.423599 -1.82673e-20)
(1.86399 0.392764 1.88746e-20)
(1.73524 0.35159 4.60884e-20)
(1.57419 0.302357 3.36491e-20)
(1.38811 0.248496 -2.90648e-20)
(1.18686 0.193918 3.31413e-20)
(0.981095 0.14231 -3.50075e-20)
(0.780511 0.0966229 -2.84006e-20)
(0.592816 0.0588411 0)
(0.423283 0.0299718 0)
(0.274844 0.0101862 -2.26884e-20)
(0.148519 -0.000437367 3.48283e-20)
(0.0439431 -0.00144008 9.58343e-21)
(1.90528 0.34622 -8.67158e-21)
(1.94257 0.364133 0)
(1.9769 0.380076 -2.44717e-20)
(2.00682 0.394249 1.88868e-20)
(2.03077 0.405765 -4.10391e-20)
(2.04528 0.413352 4.87107e-20)
(2.04533 0.415375 -1.93287e-20)
(2.02452 0.409873 1.22999e-20)
(1.97622 0.395141 -1.34663e-20)
(1.89517 0.370212 3.72562e-20)
(1.77915 0.335368 -5.93637e-20)
(1.63009 0.292314 -2.32434e-20)
(1.45406 0.243947 -1.31048e-20)
(1.2602 0.193805 -2.80848e-20)
(1.05895 0.145388 -3.07051e-20)
(0.860332 0.101613 -5.09797e-20)
(0.672633 0.0645226 5.47741e-20)
(0.501845 0.0352523 0)
(0.351619 0.0141368 2.00362e-20)
(0.223586 0.000887226 -4.33369e-20)
(0.117885 -0.00471686 2.21548e-20)
(0.0336844 -0.00241192 -9.58747e-21)
(1.92889 0.322615 4.58153e-20)
(1.96415 0.339539 -3.55701e-20)
(1.99559 0.353846 -1.63395e-20)
(2.02124 0.366195 4.35565e-20)
(2.03855 0.375127 2.21058e-21)
(2.04292 0.379322 3.45073e-20)
(2.02849 0.377021 8.56095e-20)
(1.9887 0.366534 -2.27755e-20)
(1.91788 0.346741 2.95449e-20)
(1.81293 0.317561 -3.45763e-20)
(1.67461 0.280219 3.8975e-20)
(1.50787 0.237135 0)
(1.32105 0.191471 2.6253e-20)
(1.12429 0.146505 -2.60668e-20)
(0.927727 0.105081 -3.00619e-20)
(0.740076 0.0692611 8.07521e-20)
(0.567894 0.040241 0)
(0.41541 0.0184555 -1.80597e-20)
(0.28479 0.00373875 -9.87404e-20)
(0.176578 -0.00450296 1.01467e-19)
(0.0902289 -0.00667375 1.09535e-20)
(0.0245914 -0.00262817 0)
(1.95108 0.299401 4.46625e-20)
(1.98369 0.315346 9.60953e-22)
(2.0111 0.327984 2.12771e-20)
(2.03065 0.338329 -6.70086e-20)
(2.03857 0.344379 -1.03815e-21)
(2.0293 0.344855 2.26356e-21)
(1.99651 0.338052 -1.24056e-19)
(1.93429 0.322781 -2.49184e-20)
(1.83885 0.298696 6.03672e-20)
(1.70999 0.266631 -9.88855e-20)
(1.55165 0.228587 -3.8852e-20)
(1.37139 0.187371 1.30179e-19)
(1.17896 0.146028 -6.97437e-20)
(0.984499 0.107293 -7.89916e-20)
(0.797032 0.07322 5.65649e-20)
(0.623545 0.0450464 0)
(0.468734 0.0232576 0)
(0.335192 0.00776217 8.8963e-20)
(0.223834 -0.00193878 -7.38127e-20)
(0.134356 -0.00660901 -1.99917e-20)
(0.0657436 -0.00674249 -8.19371e-20)
(0.0166686 -0.00225296 8.42349e-20)
(1.97136 0.276659 2.68332e-20)
(2.00036 0.29159 -2.75198e-20)
(2.02209 0.30244 0)
(2.03298 0.310497 5.01717e-20)
(2.02806 0.313313 -5.53608e-20)
(2.00113 0.309805 0)
(1.94618 0.298554 4.19649e-20)
(1.85892 0.279086 0)
(1.73833 0.251904 -5.70495e-20)
(1.58746 0.218652 3.32253e-20)
(1.41317 0.181806 0)
(1.2248 0.144179 -4.22076e-20)
(1.03242 0.10838 9.29085e-20)
(0.84526 0.0764288 -2.43732e-20)
(0.670644 0.0495873 1.7401e-21)
(0.513644 0.0283863 -5.82349e-20)
(0.377193 0.0127742 0)
(0.262491 0.00230774 0)
(0.169478 -0.00370002 0)
(0.097259 -0.00607826 0)
(0.0445327 -0.0053449 -1.88886e-20)
(0.00991552 -0.00143769 6.40322e-20)
(1.98935 0.254203 -7.28227e-20)
(2.01322 0.267957 2.94384e-20)
(2.02683 0.27678 4.19067e-20)
(2.02565 0.282212 -4.63733e-20)
(2.00377 0.281514 2.09861e-21)
(1.95507 0.274003 -1.42439e-19)
(1.87488 0.258764 -4.77954e-20)
(1.7615 0.236159 9.50797e-20)
(1.61724 0.207482 5.67218e-20)
(1.4483 0.174922 0)
(1.26362 0.14106 0)
(1.0732 0.108373 -3.91442e-20)
(0.886395 0.078832 0)
(0.710817 0.0537071 -1.45767e-19)
(0.551838 0.0335679 2.06918e-19)
(0.412665 0.0184068 -5.47727e-20)
(0.294714 0.00781235 -6.03654e-20)
(0.198097 0.00114137 3.20658e-20)
(0.122069 -0.00236951 0)
(0.0653671 -0.00354204 -1.05542e-19)
(0.0265569 -0.00287742 2.02197e-19)
(0.00428782 -0.000319309 -9.24053e-20)
(2.00357 0.231997 -1.03316e-19)
(2.02012 0.244355 0)
(2.02239 0.250866 -4.18654e-20)
(2.00508 0.253347 -5.0786e-20)
(1.96197 0.249013 -1.20792e-21)
(1.88806 0.237803 -7.38817e-20)
(1.78109 0.219464 3.93591e-20)
(1.6427 0.19518 -1.46627e-19)
(1.47851 0.166806 5.31336e-20)
(1.29713 0.136724 0)
(1.10846 0.107267 6.8103e-20)
(0.921988 0.0803464 3.89095e-20)
(0.745558 0.0572299 0)
(0.584799 0.0385183 0)
(0.443141 0.0242485 -1.50636e-19)
(0.322171 0.0140513 2.67942e-19)
(0.222119 0.00731133 -1.69206e-19)
(0.142326 0.00330181 1.32149e-21)
(0.0816166 0.00125984 3.1384e-20)
(0.0385467 0.000415166 -3.32466e-20)
(0.0116645 0.000304263 -3.67512e-20)
(-0.000290516 0.000983398 1.32938e-19)
(2.01288 0.209484 1.72196e-21)
(2.01892 0.220093 0)
(2.00575 0.223988 8.5787e-20)
(1.96784 0.223386 5.44442e-20)
(1.89965 0.215691 6.44767e-20)
(1.79852 0.201605 2.33814e-21)
(1.66542 0.181556 8.27246e-20)
(1.50548 0.157352 4.75317e-20)
(1.32701 0.131081 1.62716e-19)
(1.13983 0.104963 -5.88779e-20)
(0.95358 0.0808354 -2.09967e-22)
(0.776312 0.0599581 7.38846e-20)
(0.613895 0.0429588 -7.96452e-20)
(0.469956 0.0299191 0)
(0.346215 0.0205181 0)
(0.242984 0.0141829 1.02727e-19)
(0.15965 0.0102139 -5.25785e-20)
(0.0950696 0.00788117 1.46271e-19)
(0.0478475 0.00646863 -1.52981e-19)
(0.016495 0.00527964 0)
(-0.000379836 0.00389577 0)
(-0.00391721 0.00237188 0)
(2.01387 0.186771 0)
(2.00564 0.195356 -7.29851e-20)
(1.97267 0.196521 1.33516e-19)
(1.91024 0.19296 -1.02489e-19)
(1.81469 0.182534 -1.4047e-21)
(1.68665 0.166747 -1.58061e-21)
(1.53066 0.146573 1.64554e-19)
(1.3548 0.124141 1.08404e-21)
(1.16887 0.101425 1.05482e-19)
(0.982672 0.0802192 -1.73329e-19)
(0.804496 0.0617544 -6.48579e-20)
(0.64045 0.0466827 -1.74557e-21)
(0.494345 0.0351275 0)
(0.368022 0.026819 0)
(0.261854 0.0212344 9.14713e-20)
(0.175245 0.0177171 1.41e-21)
(0.107053 0.0155648 -1.03681e-19)
(0.055883 0.0140922 5.45282e-20)
(0.0202738 0.0126532 8.90793e-20)
(-0.00121432 0.0106318 -2.46109e-19)
(-0.00986995 0.00765442 9.62979e-20)
(-0.00670398 0.00377008 0)
(2.00503 0.162811 0)
(1.97775 0.169133 7.21761e-20)
(1.92075 0.167691 -4.13877e-20)
(1.83097 0.161805 1.04451e-21)
(1.70784 0.149868 -6.08205e-20)
(1.55568 0.133993 0)
(1.3822 0.115442 1.09148e-21)
(1.19728 0.096309 -2.72053e-19)
(1.01088 0.0781938 -2.30306e-21)
(0.831611 0.0623429 5.55685e-20)
(0.665835 0.0494134 0)
(0.517557 0.0395744 0)
(0.388732 0.0326085 0)
(0.27978 0.0280486 -3.98005e-20)
(0.19011 0.0252899 -8.77982e-20)
(0.118561 0.0236744 9.30977e-20)
(0.0637107 0.0225464 1.00824e-19)
(0.0240868 0.0212894 -1.05424e-19)
(-0.00173163 0.0193354 2.97994e-20)
(-0.0150817 0.0161486 -1.17594e-19)
(-0.0171303 0.0113973 3.14217e-20)
(-0.00876728 0.00512188 0)
(1.98031 0.138804 0)
(1.93061 0.142975 0)
(1.84678 0.139442 -4.64691e-20)
(1.7294 0.132103 -5.49248e-20)
(1.58134 0.119914 -6.23402e-20)
(1.41043 0.105371 1.3848e-19)
(1.22642 0.0897424 7.88051e-20)
(1.03966 0.0748122 0)
(0.859078 0.0616798 0)
(0.691377 0.0510458 5.50006e-20)
(0.540799 0.0431005 0)
(0.409432 0.0376768 0)
(0.297743 0.0343597 7.21037e-20)
(0.205134 0.0325972 -1.92863e-19)
(0.130411 0.0317802 8.33929e-20)
(0.0721132 0.0312951 4.45299e-20)
(0.0287353 0.0305546 9.69649e-20)
(-0.00115856 0.0290184 6.58068e-22)
(-0.0188855 0.0261954 0)
(-0.0256531 0.0216249 0)
(-0.0225059 0.015015 -2.92312e-20)
(-0.010229 0.00639724 -1.26445e-19)
(1.94172 0.112681 -6.58669e-20)
(1.86486 0.115034 7.81146e-20)
(1.75318 0.110399 0)
(1.60986 0.102974 1.04904e-19)
(1.44151 0.0922386 -7.13755e-22)
(1.25841 0.080569 -7.08036e-20)
(1.07098 0.0690395 -1.1011e-21)
(0.888723 0.058937 -9.79116e-22)
(0.718726 0.0508724 -9.69933e-20)
(0.565537 0.0450967 5.24887e-20)
(0.431405 0.0414822 1.16981e-19)
(0.316855 0.0396708 1.60057e-21)
(0.221281 0.0391655 -2.75748e-19)
(0.143443 0.0394092 1.50467e-19)
(0.0818275 0.039835 -8.14565e-20)
(0.0348822 0.0398954 8.54916e-20)
(0.00113908 0.0390784 -4.59686e-20)
(-0.0207293 0.0369181 -1.49421e-19)
(-0.0319051 0.032995 1.04029e-19)
(-0.0334599 0.0269182 1.37212e-19)
(-0.0263244 0.0184357 5.81123e-20)
(-0.0112005 0.00757646 -4.89038e-20)
(1.87884 0.0889545 6.49808e-20)
(1.77722 0.0901427 -7.70396e-20)
(1.63919 0.0851826 9.20059e-20)
(1.475 0.0786507 5.38466e-20)
(1.29323 0.070242 -1.19473e-19)
(1.10544 0.0620314 1.3681e-19)
(0.92139 0.0548121 -1.51525e-19)
(0.748855 0.0493305 -1.70268e-19)
(0.592745 0.0457875 1.8713e-19)
(0.455563 0.0440992 5.18175e-20)
(0.337936 0.0439431 -1.69656e-19)
(0.239264 0.0448703 -6.25309e-20)
(0.158268 0.0463705 6.61899e-20)
(0.0933738 0.04792 2.16513e-19)
(0.0429702 0.0490085 -7.76306e-20)
(0.00554558 0.0491541 -4.25245e-20)
(-0.0202535 0.0479116 4.547e-20)
(-0.0356124 0.0448791 9.59405e-20)
(-0.04157 0.0396985 -1.0064e-19)
(-0.0390677 0.0320411 -7.93614e-20)
(-0.0289354 0.0216933 -5.55129e-20)
(-0.0118074 0.00868613 -2.43357e-20)
(1.80837 0.0614847 -1.32373e-19)
(1.6761 0.0624349 -8.03182e-20)
(1.5157 0.0594213 -9.39209e-20)
(1.33578 0.0550198 1.05489e-19)
(1.1471 0.0504892 0)
(0.96078 0.0467482 -6.6903e-20)
(0.784971 0.0443595 1.49802e-19)
(0.625188 0.0435154 1.02887e-21)
(0.484232 0.0441293 -9.06555e-20)
(0.362901 0.0459348 -2.00469e-19)
(0.260644 0.048553 1.64193e-19)
(0.176149 0.0515489 6.01641e-20)
(0.107773 0.0544647 0)
(0.0538267 0.0568415 -7.16301e-20)
(0.0127281 0.058233 7.66463e-20)
(-0.0169247 0.0582153 -4.03574e-20)
(-0.0363406 0.0563944 -4.30965e-20)
(-0.0465553 0.0524156 0)
(-0.0484688 0.0459689 4.84031e-20)
(-0.0429018 0.0367786 2.05899e-19)
(-0.0305965 0.0246713 5.42771e-20)
(-0.0121354 0.00969036 -1.87094e-19)
(1.66374 0.04245 -3.80652e-21)
(1.49974 0.0406621 4.38461e-20)
(1.31802 0.0396195 1.95294e-19)
(1.12987 0.038179 -2.79349e-19)
(0.945016 0.0378492 0)
(0.771549 0.0385525 7.08275e-20)
(0.614416 0.0404785 7.87856e-20)
(0.476191 0.0434515 -8.60707e-20)
(0.357436 0.0472354 -9.49875e-20)
(0.257439 0.0515157 2.08769e-19)
(0.174758 0.0559396 -1.69655e-19)
(0.10765 0.0601301 0)
(0.054344 0.0636967 0)
(0.0132055 0.0662457 -7.24296e-20)
(-0.0171979 0.0673893 7.71675e-20)
(-0.0380814 0.0667578 2.06983e-19)
(-0.0504642 0.0640111 8.85932e-20)
(-0.055208 0.0588515 5.57086e-22)
(-0.0530616 0.0510342 -1.95508e-19)
(-0.0447168 0.0403652 -1.54154e-19)
(-0.0308161 0.0267502 -2.72328e-20)
(-0.0118851 0.0102865 1.14506e-19)
(1.4134 0.0214531 7.69957e-20)
(1.22936 0.0220865 -1.80926e-19)
(1.04453 0.0254553 0)
(0.866759 0.0283665 1.15237e-19)
(0.702645 0.0326251 0)
(0.555933 0.0373032 -7.24021e-20)
(0.428181 0.0425641 -6.83608e-22)
(0.319295 0.0481218 1.76212e-19)
(0.22815 0.0537892 9.7338e-20)
(0.153082 0.0593213 -5.25472e-20)
(0.0922532 0.0644513 1.72854e-19)
(0.0438786 0.0688843 -6.21324e-20)
(0.00634991 0.0723035 -1.35083e-19)
(-0.0217146 0.0743802 1.44452e-19)
(-0.0414675 0.074787 -7.79963e-20)
(-0.0538581 0.0732125 0)
(-0.0596709 0.0693773 -4.4185e-20)
(-0.059569 0.0630491 0)
(-0.0541354 0.0540544 4.89808e-20)
(-0.0439161 0.0422796 -2.51265e-20)
(-0.0294248 0.0277061 0)
(-0.0110922 0.010465 8.96704e-20)
(1.12889 0.0102905 -1.23968e-19)
(0.948032 0.0139597 1.40337e-19)
(0.780293 0.021205 -5.37837e-20)
(0.626895 0.0273061 5.93814e-20)
(0.491883 0.0344422 6.67378e-20)
(0.37536 0.0413791 3.65211e-22)
(0.276893 0.0483482 -1.63035e-19)
(0.194976 0.0550887 8.93109e-20)
(0.127842 0.0614823 9.79014e-20)
(0.0736222 0.0673466 -5.357e-20)
(0.0305686 0.0724777 0)
(-0.00286956 0.0766362 -1.89165e-19)
(-0.028009 0.0795553 1.35259e-19)
(-0.0459373 0.0809514 0)
(-0.0575392 0.0805395 3.87003e-20)
(-0.0635328 0.0780512 0)
(-0.0645094 0.0732521 -8.772e-20)
(-0.0609712 0.0659583 1.84301e-19)
(-0.0533647 0.0560479 -9.63068e-20)
(-0.0421125 0.0434655 1.25745e-19)
(-0.0276168 0.0282431 -1.81802e-19)
(-0.0102251 0.0105272 6.6007e-20)
(0.846584 0.00578298 8.60498e-20)
(0.686337 0.0131223 -4.82466e-20)
(0.546733 0.0228312 0)
(0.423353 0.0310532 0)
(0.318739 0.0395901 6.31067e-23)
(0.230796 0.0474661 1.50608e-19)
(0.158288 0.0549283 -8.26025e-20)
(0.0992303 0.0618225 -9.07236e-20)
(0.0518341 0.0681047 -9.94802e-20)
(0.0143987 0.0736576 0)
(-0.0145498 0.0783294 5.84788e-20)
(-0.0362594 0.0819219 1.26989e-19)
(-0.0517563 0.0842016 -2.04038e-19)
(-0.0618703 0.0849128 0)
(-0.0672667 0.083796 -3.91425e-20)
(-0.068482 0.0806078 0)
(-0.0659571 0.0751393 0)
(-0.0600673 0.0672336 0)
(-0.0511479 0.0567967 -1.19599e-19)
(-0.0395163 0.0438037 9.93172e-20)
(-0.0254773 0.0283096 7.67917e-20)
(-0.0093014 0.0104592 -1.08233e-19)
(0.590364 0.00749676 -4.37097e-20)
(0.460073 0.0175831 0)
(0.351546 0.0279417 5.61546e-20)
(0.258122 0.0369035 -6.19812e-20)
(0.181242 0.0454743 -6.90868e-20)
(0.118053 0.0531835 -7.636e-20)
(0.0671689 0.0602445 0)
(0.0266811 0.0666122 9.21061e-20)
(-0.00495327 0.0722874 -5.0052e-20)
(-0.029133 0.0771948 5.44059e-20)
(-0.0470234 0.0812115 5.91083e-20)
(-0.0595886 0.0841619 -1.27304e-19)
(-0.0676089 0.0858304 1.02835e-19)
(-0.0717087 0.0859774 -3.68641e-20)
(-0.0723859 0.0843583 1.16626e-19)
(-0.0700409 0.0807437 -4.10658e-20)
(-0.0650023 0.0749386 8.7062e-20)
(-0.0575496 0.066798 -1.82319e-19)
(-0.0479308 0.0562389 1.91585e-22)
(-0.0363772 0.0432456 7.39544e-20)
(-0.0231132 0.0278738 0)
(-0.00834214 0.010247 2.14671e-20)
(0.373088 0.0124343 4.46189e-20)
(0.27454 0.0235826 0)
(0.194966 0.0334225 0)
(0.128148 0.0420303 0)
(0.0746371 0.0498114 0)
(0.0317512 0.0567041 0)
(-0.00177287 0.0628844 -8.49525e-20)
(-0.0275345 0.0683852 1.38916e-19)
(-0.0467686 0.0732293 5.0727e-20)
(-0.0605672 0.0773661 -3.33339e-22)
(-0.0698242 0.0806889 5.92363e-20)
(-0.0752712 0.0830358 0)
(-0.0774966 0.0842034 -6.8668e-20)
(-0.0769699 0.0839631 -3.09905e-22)
(-0.0740655 0.0820804 3.88318e-20)
(-0.0690844 0.0783344 4.15107e-20)
(-0.0622732 0.0725363 -8.65846e-20)
(-0.0538408 0.0645438 0)
(-0.0439691 0.0542717 2.37195e-20)
(-0.0328224 0.0416992 2.45433e-20)
(-0.0205629 0.0268648 0)
(-0.00734465 0.00985606 8.37722e-20)
(0.197485 0.0180008 -4.59499e-20)
(0.127724 0.0285531 5.09644e-20)
(0.0728611 0.0372262 -5.75349e-20)
(0.0281563 0.0447881 1.27413e-19)
(-0.00647159 0.0513728 -7.03437e-20)
(-0.0331713 0.0571399 3.98683e-22)
(-0.0530087 0.0622435 -8.52443e-20)
(-0.067229 0.0667593 -2.76258e-22)
(-0.0767847 0.070719 0)
(-0.0825036 0.0740853 -5.5395e-20)
(-0.0850591 0.0767618 -5.98713e-20)
(-0.0850002 0.0785974 0)
(-0.0827685 0.0794003 1.37599e-19)
(-0.0787176 0.0789532 -1.1009e-19)
(-0.0731309 0.0770321 0)
(-0.0662376 0.0734243 0)
(-0.058226 0.0679449 0)
(-0.0492551 0.0604499 -9.01087e-20)
(-0.03946 0.0508465 9.35853e-20)
(-0.0289567 0.0390996 1.2066e-19)
(-0.0178655 0.0252211 -9.92636e-20)
(-0.00631154 0.00925333 -1.02422e-20)
(0.0609586 0.0223017 -9.21638e-20)
(0.0151726 0.0311347 5.13662e-20)
(-0.0196061 0.0382762 5.79225e-20)
(-0.0466493 0.0444609 -6.38936e-20)
(-0.0664019 0.0497251 0)
(-0.0804533 0.0542947 1.17849e-19)
(-0.0896681 0.0583085 -8.56905e-20)
(-0.0949753 0.061857 -1.41073e-19)
(-0.0970904 0.0649746 -2.55745e-22)
(-0.0966258 0.067632 1.10698e-19)
(-0.0940796 0.0697424 0)
(-0.089858 0.0711675 0)
(-0.0842896 0.0717298 -2.39858e-22)
(-0.0776403 0.0712274 0)
(-0.0701262 0.0694506 -3.87034e-20)
(-0.0619248 0.0661981 0)
(-0.053184 0.0612916 -8.58968e-20)
(-0.0440298 0.0545868 2.40527e-23)
(-0.0345675 0.045983 1.85841e-19)
(-0.0248821 0.0354293 -1.19953e-19)
(-0.0150722 0.0229082 0)
(-0.00525479 0.00841551 2.03092e-20)
(-0.0406969 0.0243191 4.44478e-22)
(-0.0674302 0.0309761 5.21617e-20)
(-0.0864078 0.0364241 4.2108e-23)
(-0.0997709 0.0411333 0)
(-0.108101 0.0450994 0)
(-0.112526 0.0485235 3.93814e-20)
(-0.11372 0.0515237 8.63124e-20)
(-0.112353 0.0541866 -1.88325e-19)
(-0.108947 0.0565444 1.53673e-19)
(-0.103941 0.0585741 -2.7786e-20)
(-0.0976925 0.0602 -5.99853e-20)
(-0.090495 0.0612995 6.43445e-20)
(-0.0825891 0.0617142 -6.88702e-20)
(-0.0741729 0.0612626 0)
(-0.065412 0.0597547 -3.86519e-20)
(-0.0564465 0.0570066 -1.01466e-24)
(-0.0473973 0.0528521 2.82773e-23)
(-0.03837 0.0471531 6.08939e-23)
(-0.0294539 0.0398064 9.23909e-20)
(-0.0207185 0.0307503 0)
(-0.0122577 0.0199424 0)
(-0.00419919 0.00733868 -9.02058e-20)
(-0.111162 0.0236597 -9.29145e-20)
(-0.123272 0.0282054 5.17316e-20)
(-0.130241 0.0320167 -1.16587e-19)
(-0.133416 0.035324 6.43008e-20)
(-0.133346 0.0381052 0)
(-0.1308 0.0405033 -3.92575e-20)
(-0.126276 0.0426099 4.30907e-20)
(-0.120236 0.0444965 2.35499e-20)
(-0.113041 0.0461911 -2.5631e-20)
(-0.10499 0.0476758 2.78101e-20)
(-0.0963305 0.0488879 -5.99823e-20)
(-0.0872647 0.0497242 0)
(-0.0779638 0.0500493 -3.43747e-20)
(-0.0685734 0.0497072 7.32214e-20)
(-0.0592205 0.0485335 -1.93344e-20)
(-0.0500176 0.0463674 -2.03446e-20)
(-0.0410668 0.0430629 0)
(-0.0324621 0.0384961 0)
(-0.0242859 0.0325716 -9.18279e-20)
(-0.0166038 0.0252274 9.46196e-20)
(-0.00951788 0.0164082 -8.44862e-20)
(-0.00318041 0.00604457 9.99064e-21)
(-0.152784 0.0204842 2.81936e-22)
(-0.154282 0.0232876 -5.23772e-20)
(-0.152697 0.0257054 1.16327e-19)
(-0.148835 0.0278141 -1.29313e-19)
(-0.143113 0.0295907 7.15249e-20)
(-0.136026 0.0311235 3.80431e-23)
(-0.127907 0.0324785 -4.35863e-20)
(-0.119053 0.0337097 4.71402e-20)
(-0.109695 0.03484 2.57978e-20)
(-0.10002 0.0358575 -2.78554e-20)
(-0.0901871 0.0367139 6.01989e-20)
(-0.0803268 0.037328 -4.83896e-20)
(-0.0705555 0.0375911 -6.89815e-20)
(-0.0609779 0.0373767 1.46556e-19)
(-0.0516909 0.0365496 -7.74141e-20)
(-0.042786 0.0349779 8.15134e-20)
(-0.0343511 0.0325412 -1.07074e-20)
(-0.0264721 0.0291389 -9.97131e-20)
(-0.0192285 0.0246943 9.1527e-20)
(-0.0126869 0.019159 -9.42514e-20)
(-0.00696371 0.0124825 8.399e-20)
(-0.00224253 0.00459198 -8.86219e-20)
(-0.166686 0.0154196 1.1615e-19)
(-0.161413 0.016956 0)
(-0.154584 0.0183156 -2.90863e-20)
(-0.146654 0.0194964 0)
(-0.137876 0.0204868 3.59388e-20)
(-0.12854 0.0213383 3.31171e-23)
(-0.118843 0.0220965 2.04611e-22)
(-0.108953 0.0228004 -1.18624e-19)
(-0.0989984 0.0234687 -1.63621e-22)
(-0.0890815 0.0240953 8.3838e-20)
(-0.0792892 0.0246478 0)
(-0.0696985 0.0250684 -1.61919e-20)
(-0.0603827 0.0252777 -1.72715e-20)
(-0.0514146 0.0251804 9.1749e-20)
(-0.042868 0.0246737 -5.81392e-20)
(-0.0348179 0.0236561 3.059e-20)
(-0.0273401 0.0220362 1.06613e-20)
(-0.0205123 0.0197406 1.10807e-20)
(-0.0144088 0.0167199 0)
(-0.00909553 0.0129521 5.87594e-21)
(-0.00469822 0.00841416 0)
(-0.00142792 0.00306258 0)
(-0.153434 0.00958129 1.08681e-22)
(-0.145173 0.0103017 -2.59802e-20)
(-0.136341 0.0109459 -9.43566e-23)
(-0.127197 0.0114843 3.23289e-20)
(-0.117857 0.0119215 0)
(-0.108472 0.012288 3.97704e-20)
(-0.0991387 0.0126147 -4.3424e-20)
(-0.0899331 0.0129281 0)
(-0.0809087 0.013243 0)
(-0.072106 0.0135589 0)
(-0.0635594 0.0138589 -6.05541e-20)
(-0.0553038 0.0141089 5.6733e-20)
(-0.0473795 0.0142594 8.66444e-20)
(-0.0398342 0.0142484 -1.65568e-19)
(-0.0327233 0.014006 3.8866e-20)
(-0.0261084 0.0134614 -1.01929e-20)
(-0.0200548 0.0125502 9.0675e-20)
(-0.0146305 0.0112235 -8.86571e-20)
(-0.00990015 0.00945727 5.15549e-20)
(-0.00592038 0.00725857 -5.87763e-21)
(-0.00280842 0.0046447 0)
(-0.000777806 0.00163074 0)
(-0.113472 0.00413998 -2.35155e-20)
(-0.105856 0.00436995 -3.10628e-22)
(-0.0981413 0.00455226 3.64191e-20)
(-0.090522 0.00467536 0)
(-0.0830224 0.00475518 0)
(-0.0757133 0.00481062 0)
(-0.0686258 0.00485852 0)
(-0.0617803 0.00491266 -4.78451e-20)
(-0.0551831 0.00498145 6.31171e-21)
(-0.0488346 0.00506697 -1.69605e-22)
(-0.042735 0.00516412 6.82155e-20)
(-0.0368897 0.00526004 4.07186e-20)
(-0.031313 0.00533392 4.03626e-23)
(-0.0260311 0.00535729 -4.15142e-20)
(-0.0210817 0.00529523 3.89772e-20)
(-0.016513 0.00510879 -3.58157e-20)
(-0.0123802 0.00475945 -5.34303e-21)
(-0.00874139 0.00421615 0)
(-0.00565038 0.00346686 -8.60632e-21)
(-0.00314744 0.00253219 4.70729e-20)
(-0.00131096 0.00146639 -4.81509e-20)
(-0.000305403 0.000380072 0)
(-0.0471251 0.000611573 4.01588e-22)
(-0.0435508 0.000635944 -2.53861e-20)
(-0.0399525 0.000643888 -7.12025e-21)
(-0.0364951 0.000635267 -6.17921e-23)
(-0.0331709 0.000619215 1.75572e-20)
(-0.0300074 0.000601473 -1.91107e-20)
(-0.0270057 0.000586133 -2.11626e-20)
(-0.0241615 0.000576331 2.29706e-20)
(-0.0214639 0.000574321 -6.24508e-21)
(-0.0188994 0.000581536 -2.71037e-20)
(-0.0164549 0.000598429 2.18199e-20)
(-0.0141203 0.000624167 -3.12113e-20)
(-0.0118914 0.000656171 -4.98238e-23)
(-0.00977153 0.000689531 3.9703e-20)
(-0.00777337 0.000716391 0)
(-0.0059196 0.000725532 -4.86666e-21)
(-0.00424277 0.000702581 4.08229e-20)
(-0.00278399 0.000631721 -5.09856e-23)
(-0.00158791 0.000500794 -4.11139e-20)
(-0.00069297 0.000310669 1.09917e-23)
(-0.000139506 8.76016e-05 0)
(1.74643e-05 -8.00382e-05 0)
(1.13648 0.0268796 0)
(1.09043 0.0286567 1.97677e-20)
(1.04234 0.0304785 2.26564e-20)
(0.992102 0.0323462 2.58575e-20)
(0.939822 0.0342654 -2.99957e-20)
(0.885587 0.0362432 -3.8679e-22)
(0.829491 0.0382823 3.80609e-20)
(0.771639 0.040384 -4.13659e-20)
(0.712149 0.0425476 -2.32191e-20)
(0.651153 0.0447707 1.57259e-24)
(0.588793 0.047045 0)
(0.525238 0.0493462 -1.53722e-20)
(0.460703 0.0516093 3.37396e-20)
(0.39552 0.0536886 -1.7842e-20)
(0.330243 0.0553138 -1.91447e-20)
(0.265771 0.0560617 0)
(0.203468 0.0553665 -1.06937e-20)
(0.145219 0.0525786 2.25784e-20)
(0.0932851 0.0470607 -2.33373e-20)
(0.0500672 0.0382971 2.42914e-20)
(0.018806 0.0259588 -3.74992e-20)
(0.00354234 0.00995637 2.03759e-20)
(1.14102 0.0828398 -6.74926e-20)
(1.09543 0.0887356 2.04107e-20)
(1.04795 0.0949033 -1.11769e-19)
(0.998305 0.101313 -7.6931e-20)
(0.946616 0.107957 0)
(0.892975 0.11484 3.3199e-20)
(0.837472 0.121958 -3.68519e-20)
(0.780214 0.129307 0)
(0.721321 0.136876 2.32133e-20)
(0.660923 0.144653 -1.07967e-21)
(0.599161 0.152603 -1.15811e-21)
(0.536197 0.160638 1.42479e-20)
(0.472235 0.168529 6.57385e-20)
(0.407574 0.175775 1.73526e-20)
(0.342707 0.181462 9.5715e-20)
(0.278443 0.184176 -1.20306e-19)
(0.216022 0.182049 -7.46782e-20)
(0.157182 0.172955 1.7797e-19)
(0.104038 0.154824 -1.85072e-19)
(0.0588625 0.12599 1.91446e-19)
(0.0248081 0.085403 -1.15994e-20)
(0.0058732 0.0327848 -1.71467e-19)
(1.14983 0.138792 1.33347e-19)
(1.1052 0.148822 0)
(1.05897 0.159259 2.22484e-19)
(1.01051 0.170091 -4.53485e-20)
(0.960008 0.18131 -1.1295e-19)
(0.907562 0.192925 -1.31766e-19)
(0.853262 0.204937 1.08573e-19)
(0.797218 0.217336 0)
(0.739548 0.230112 2.39853e-21)
(0.680382 0.243241 -1.4941e-19)
(0.619857 0.25667 5.40772e-20)
(0.558125 0.270248 -6.18074e-20)
(0.495356 0.283588 2.59176e-19)
(0.431786 0.295842 -1.73659e-19)
(0.367784 0.305464 3.65758e-20)
(0.303971 0.310064 1.1413e-21)
(0.241331 0.306493 2.07351e-19)
(0.181307 0.291171 -1.30492e-19)
(0.125721 0.260622 0)
(0.0765935 0.212054 0)
(0.0369028 0.14372 9.65817e-20)
(0.0105684 0.0551676 2.97257e-20)
(1.16198 0.191995 -3.26304e-19)
(1.11889 0.20604 1.47727e-19)
(1.07464 0.220604 -8.7229e-20)
(1.02804 0.23574 1.99469e-19)
(0.97939 0.251425 3.60298e-21)
(0.928796 0.26767 -2.5194e-19)
(0.876349 0.284474 2.11195e-19)
(0.822162 0.301826 1.60126e-19)
(0.766358 0.319708 -2.62025e-19)
(0.709065 0.33809 2.8662e-19)
(0.650417 0.356895 1.60568e-19)
(0.590548 0.375915 -2.88308e-19)
(0.529588 0.394606 -6.12879e-20)
(0.467672 0.411782 6.58015e-20)
(0.404987 0.425275 1.07678e-19)
(0.34187 0.431748 -3.84892e-20)
(0.278926 0.4268 -7.97319e-20)
(0.217161 0.405443 -2.10127e-19)
(0.157956 0.36285 1.30945e-19)
(0.10296 0.295164 -4.37386e-20)
(0.05489 0.19999 0)
(0.0175486 0.0767395 -1.71641e-19)
(1.17744 0.242583 -7.26925e-23)
(1.13643 0.260512 2.90158e-19)
(1.09477 0.279004 -1.6317e-19)
(1.05064 0.298239 9.25778e-20)
(1.00445 0.318173 1.08954e-19)
(0.956307 0.338822 -2.37599e-19)
(0.906314 0.360186 0)
(0.85459 0.382253 1.48088e-19)
(0.801258 0.405004 0)
(0.746449 0.428399 -9.46361e-20)
(0.690291 0.452346 0)
(0.632899 0.476577 0)
(0.574343 0.500403 6.11077e-20)
(0.514628 0.522308 -6.56264e-20)
(0.453703 0.539531 -3.40727e-19)
(0.391527 0.547812 1.43995e-19)
(0.328207 0.54155 3.89471e-20)
(0.26417 0.514408 -8.21427e-20)
(0.200221 0.460276 4.15989e-20)
(0.137527 0.374303 4.27611e-20)
(0.0784675 0.253518 1.32486e-19)
(0.0266923 0.0972336 -3.49851e-20)
(1.19578 0.289267 1.27326e-19)
(1.15737 0.310907 -1.35924e-19)
(1.11894 0.33309 0)
(1.07786 0.356191 9.11084e-20)
(1.0347 0.380135 -1.01641e-19)
(0.989596 0.404939 4.63093e-19)
(0.942636 0.430609 -5.16018e-19)
(0.893951 0.457132 2.82417e-19)
(0.843669 0.484487 -2.86749e-21)
(0.791922 0.51263 -1.77148e-19)
(0.738834 0.541453 1.90442e-19)
(0.684494 0.570639 -1.01046e-19)
(0.628904 0.599358 0)
(0.57191 0.625789 -1.16542e-19)
(0.513166 0.646602 6.61508e-20)
(0.452169 0.65666 6.99365e-20)
(0.38841 0.649215 2.84682e-19)
(0.321605 0.616651 -7.40895e-19)
(0.251859 0.551655 -9.18435e-22)
(0.179752 0.448471 3.1731e-19)
(0.107258 0.303625 4.24127e-20)
(0.0378476 0.116386 1.70498e-19)
(1.21656 0.331468 1.15843e-19)
(1.18126 0.356591 0)
(1.14661 0.382166 1.45277e-19)
(1.1091 0.40884 1.72618e-19)
(1.0695 0.436493 -2.88286e-19)
(1.02795 0.46515 -1.11232e-19)
(0.984546 0.494818 -3.6262e-19)
(0.93943 0.525487 4.08966e-19)
(0.892735 0.557134 -1.48006e-19)
(0.844593 0.589711 -1.66954e-19)
(0.795123 0.623096 0)
(0.744388 0.65693 1.00495e-19)
(0.692308 0.690259 2.10089e-19)
(0.638544 0.720979 2.24599e-19)
(0.582404 0.745228 -2.36965e-19)
(0.52284 0.757045 -5.97776e-20)
(0.458616 0.748596 2.61803e-19)
(0.388613 0.711062 -2.01494e-19)
(0.312115 0.636018 0)
(0.229022 0.516891 2.92488e-19)
(0.140846 0.349793 2.53461e-21)
(0.0508499 0.134004 -2.48108e-19)
(1.2391 0.368491 0)
(1.20741 0.396849 -2.43803e-19)
(1.17705 0.425502 4.34789e-22)
(1.14361 0.455426 -3.10009e-19)
(1.10806 0.486443 -1.7327e-19)
(1.07056 0.518588 0)
(1.0312 0.551878 7.84231e-21)
(0.99013 0.586305 1.29416e-19)
(0.947499 0.621851 -2.78361e-19)
(0.903441 0.65847 3.03004e-19)
(0.858072 0.696033 -3.28003e-19)
(0.811428 0.734147 0)
(0.763343 0.771754 9.14849e-20)
(0.713276 0.806499 -1.06717e-19)
(0.660144 0.834034 -1.02664e-19)
(0.60228 0.847628 5.9512e-20)
(0.537615 0.838431 0)
(0.464075 0.796498 3.03344e-19)
(0.380008 0.712379 -5.08493e-19)
(0.284551 0.578781 5.24917e-19)
(0.178702 0.391496 -2.69665e-19)
(0.0654912 0.149885 2.25118e-19)
(1.26265 0.399767 0)
(1.23503 0.431031 2.33582e-19)
(1.20937 0.462393 6.145e-21)
(1.18039 0.495212 3.12751e-21)
(1.1493 0.529242 1.75609e-19)
(1.11625 0.564528 0)
(1.08136 0.60109 1.07438e-19)
(1.04478 0.638921 0)
(1.00667 0.678004 0)
(0.967164 0.718293 1.44055e-19)
(0.92638 0.759655 -1.42736e-19)
(0.884323 0.801672 0)
(0.840736 0.843207 -9.07957e-20)
(0.794857 0.881687 0)
(0.745171 0.912334 2.94546e-19)
(0.689323 0.927714 -9.64161e-20)
(0.624311 0.918037 -3.08764e-19)
(0.546992 0.872316 -7.20296e-21)
(0.454673 0.780167 0)
(0.345651 0.633678 2.84061e-19)
(0.220366 0.428422 -2.36886e-19)
(0.0815938 0.163918 -4.60264e-20)
(1.2863 0.425143 0)
(1.26324 0.459028 -2.13197e-19)
(1.24272 0.492746 3.56186e-19)
(1.21861 0.528058 -2.69302e-19)
(1.19238 0.564649 3.07162e-19)
(1.16415 0.602585 0)
(1.13406 0.641907 9.7044e-21)
(1.10229 0.68262 -4.15019e-19)
(1.06902 0.724717 2.26535e-19)
(1.03439 0.768159 0)
(0.998517 0.812819 2.82698e-19)
(0.961393 0.858273 -4.23755e-19)
(0.922676 0.903324 0)
(0.881379 0.945232 0)
(0.835536 0.978843 0)
(0.782045 0.996087 9.41454e-20)
(0.716881 0.986299 9.75189e-20)
(0.635712 0.937524 -9.30616e-20)
(0.534694 0.838533 0)
(0.41121 0.680897 -5.32358e-20)
(0.265103 0.460091 -2.49616e-19)
(0.0988706 0.175909 2.15328e-19)
(1.30917 0.444134 -1.60357e-19)
(1.29103 0.48019 -1.85279e-19)
(1.27582 0.51588 -2.08817e-19)
(1.25681 0.553361 -1.17403e-19)
(1.23571 0.592218 0)
(1.21262 0.632521 0)
(1.18769 0.674309 7.32924e-21)
(1.16114 0.717587 1.85122e-19)
(1.13312 0.762351 -2.03407e-19)
(1.1038 0.808571 2.19941e-19)
(1.07329 0.856124 1.25541e-19)
(1.04156 0.904588 1.34366e-19)
(1.0082 0.952733 0)
(0.971972 0.997691 -6.47467e-20)
(0.93044 1.034 2.86267e-19)
(0.879695 1.05303 -1.54933e-19)
(0.814597 1.04335 -2.23521e-19)
(0.729528 0.99212 4.25442e-20)
(0.619409 0.887382 0)
(0.480659 0.720302 0)
(0.312509 0.486381 2.12856e-19)
(0.117161 0.185815 -1.08274e-19)
(1.33034 0.457485 1.57968e-19)
(1.31771 0.495484 1.825e-19)
(1.30819 0.532718 2.05665e-19)
(1.29461 0.571801 4.13157e-21)
(1.27883 0.612279 -1.68109e-21)
(1.261 0.654266 1.35996e-19)
(1.24132 0.697827 -7.97839e-21)
(1.22003 0.74298 1.64422e-19)
(1.19731 0.789736 -1.78412e-19)
(1.17336 0.838076 3.84581e-19)
(1.14829 0.887895 -2.06508e-19)
(1.12209 0.938794 0)
(1.09425 0.98955 0)
(1.06337 1.03723 6.40267e-20)
(1.02652 1.07612 0)
(0.97897 1.09711 0)
(0.91439 1.08802 -1.17476e-19)
(0.825747 1.0352 1.30811e-19)
(0.706592 0.925991 1.25993e-19)
(0.552304 0.751298 0)
(0.361487 0.506839 0)
(0.13604 0.193429 -1.40674e-19)
(1.34882 0.464047 1.32762e-19)
(1.34179 0.503532 0)
(1.33788 0.542202 1.79113e-19)
(1.32993 0.58286 -1.97236e-19)