/*--------------------------------*- C++ -*----------------------------------*\
| =========                 |                                                 |
| \\      /  F ield         | OpenFOAM Extend Project: Open source CFD        |
|  \\    /   O peration     | Version:  1.6-ext                               |
|   \\  /    A nd           | Web:      www.extend-project.de                 |
|    \\/     M anipulation  |                                                 |
\*---------------------------------------------------------------------------*/
FoamFile
{
    version     2.0;
    format      ascii;
    class       volScalarField::DimensionedInternalField;
    location    "0.55";
    object      V0;
}
// * * * * * * * * * * * * * * * * * * * * * * * * * * * * * * * * * * * * * //

dimensions      [0 3 0 0 0 0 0];

value           nonuniform List<scalar> 
20940
(
1.17107e-06
1.03804e-06
9.21006e-07
8.17969e-07
7.27196e-07
6.47169e-07
5.76563e-07
5.1422e-07
4.59129e-07
4.10404e-07
3.67273e-07
3.2906e-07
2.95172e-07
2.65091e-07
2.38364e-07
2.1459e-07
1.93422e-07
1.74553e-07
1.57714e-07
1.4267e-07
1.29215e-07
1.17166e-07
1.17123e-06
1.03818e-06
9.21126e-07
8.18076e-07
7.27292e-07
6.47256e-07
5.76644e-07
5.14297e-07
4.59202e-07
4.10475e-07
3.67341e-07
3.29123e-07
2.9523e-07
2.65144e-07
2.38411e-07
2.14633e-07
1.93462e-07
1.7459e-07
1.5775e-07
1.42706e-07
1.2925e-07
1.172e-07
1.1738e-06
1.04046e-06
9.23147e-07
8.19872e-07
7.28891e-07
6.48682e-07
5.77917e-07
5.15436e-07
4.60223e-07
4.11393e-07
3.68168e-07
3.29869e-07
2.95904e-07
2.65752e-07
2.3896e-07
2.15128e-07
1.93908e-07
1.74994e-07
1.58117e-07
1.4304e-07
1.29555e-07
1.17481e-07
1.17806e-06
1.04423e-06
9.26497e-07
8.22851e-07
7.31542e-07
6.51045e-07
5.80026e-07
5.1732e-07
4.61909e-07
4.12902e-07
3.69522e-07
3.31087e-07
2.97002e-07
2.66743e-07
2.39855e-07
2.15937e-07
1.94639e-07
1.75655e-07
1.58714e-07
1.43581e-07
1.30048e-07
1.1793e-07
1.1833e-06
1.04891e-06
9.3068e-07
8.26599e-07
7.34907e-07
6.54071e-07
5.82751e-07
5.19776e-07
4.64125e-07
4.14905e-07
3.71333e-07
3.32728e-07
2.9849e-07
2.68096e-07
2.41087e-07
2.17061e-07
1.95665e-07
1.76592e-07
1.5957e-07
1.44362e-07
1.3076e-07
1.18581e-07
1.1901e-06
1.05501e-06
9.36148e-07
8.31509e-07
7.39323e-07
6.58051e-07
5.86345e-07
5.23028e-07
4.67071e-07
4.17577e-07
3.73759e-07
3.34933e-07
3.00496e-07
2.69922e-07
2.42753e-07
2.18582e-07
1.97057e-07
1.77866e-07
1.60738e-07
1.45432e-07
1.3174e-07
1.19477e-07
1.19845e-06
1.06252e-06
9.42914e-07
8.37606e-07
7.44823e-07
6.63018e-07
5.90839e-07
5.27103e-07
4.70774e-07
4.20948e-07
3.76834e-07
3.37739e-07
3.03059e-07
2.72267e-07
2.44897e-07
2.20546e-07
1.98857e-07
1.79518e-07
1.62255e-07
1.46827e-07
1.33023e-07
1.20657e-07
1.20834e-06
1.07148e-06
9.51031e-07
8.44965e-07
7.51497e-07
6.69072e-07
5.96333e-07
5.32093e-07
4.75314e-07
4.25087e-07
3.80614e-07
3.41199e-07
3.06231e-07
2.75177e-07
2.47569e-07
2.23001e-07
2.01113e-07
1.81593e-07
1.64165e-07
1.48588e-07
1.34648e-07
1.22158e-07
1.2197e-06
1.08181e-06
9.60446e-07
8.53555e-07
7.59342e-07
6.7624e-07
6.02883e-07
5.38077e-07
4.80779e-07
4.3008e-07
3.8518e-07
3.45382e-07
3.1007e-07
2.78707e-07
2.5082e-07
2.25997e-07
2.03877e-07
1.84144e-07
1.6652e-07
1.50763e-07
1.36659e-07
1.2402e-07
1.23245e-06
1.09345e-06
9.71097e-07
8.63314e-07
7.68298e-07
6.84471e-07
6.10455e-07
5.45046e-07
4.87193e-07
4.35979e-07
3.90604e-07
3.50365e-07
3.14652e-07
2.82924e-07
2.54708e-07
2.29588e-07
2.07197e-07
1.87216e-07
1.69365e-07
1.53398e-07
1.391e-07
1.26281e-07
1.24638e-06
1.10626e-06
9.82875e-07
8.74154e-07
7.78286e-07
6.93684e-07
6.18965e-07
5.52917e-07
4.94481e-07
4.42731e-07
3.96859e-07
3.56157e-07
3.20009e-07
2.87874e-07
2.59283e-07
2.33818e-07
2.11113e-07
1.90846e-07
1.72732e-07
1.56524e-07
1.42002e-07
1.28976e-07
1.26196e-06
1.12064e-06
9.96154e-07
8.86418e-07
7.89614e-07
7.04152e-07
6.28645e-07
5.61876e-07
5.02782e-07
4.50433e-07
4.04012e-07
3.62806e-07
3.2619e-07
2.93617e-07
2.64612e-07
2.38758e-07
2.15691e-07
1.9509e-07
1.76669e-07
1.60179e-07
1.45399e-07
1.32134e-07
1.27839e-06
1.13592e-06
1.01037e-06
8.99649e-07
8.01924e-07
7.15603e-07
6.39292e-07
5.71774e-07
5.11984e-07
4.58991e-07
4.11977e-07
3.70226e-07
3.33108e-07
3.00073e-07
2.70637e-07
2.44377e-07
2.20925e-07
1.9996e-07
1.81199e-07
1.64392e-07
1.49319e-07
1.35784e-07
1.29568e-06
1.15212e-06
1.02554e-06
9.13849e-07
8.15219e-07
7.28049e-07
6.50939e-07
5.82665e-07
5.22161e-07
4.68492e-07
4.20842e-07
3.78497e-07
3.40828e-07
3.07283e-07
2.77376e-07
2.5068e-07
2.26821e-07
2.05472e-07
1.86346e-07
1.69193e-07
1.53795e-07
1.39955e-07
1.31362e-06
1.16905e-06
1.0415e-06
9.28882e-07
8.29371e-07
7.41366e-07
6.63465e-07
5.94445e-07
5.33233e-07
4.7889e-07
4.30597e-07
3.87638e-07
3.49384e-07
3.15288e-07
2.84865e-07
2.57688e-07
2.33384e-07
2.1162e-07
1.92105e-07
1.74585e-07
1.58837e-07
1.44665e-07
1.24199e-06
1.10792e-06
9.89464e-07
8.84694e-07
7.91949e-07
7.09773e-07
6.36893e-07
5.72194e-07
5.14698e-07
4.63547e-07
4.17989e-07
3.77365e-07
3.411e-07
3.0869e-07
2.79693e-07
2.53721e-07
2.30433e-07
2.09526e-07
1.90732e-07
1.73815e-07
1.58567e-07
1.44805e-07
1.21889e-06
1.08681e-06
9.70133e-07
8.66977e-07
7.75695e-07
6.94844e-07
6.23166e-07
5.59558e-07
5.03057e-07
4.52817e-07
4.08096e-07
3.68241e-07
3.32682e-07
3.00916e-07
2.72508e-07
2.47072e-07
2.24271e-07
2.03811e-07
1.85431e-07
1.68897e-07
1.54007e-07
1.40578e-07
1.19693e-06
1.06677e-06
9.51836e-07
8.50251e-07
7.60389e-07
6.80824e-07
6.1031e-07
5.47754e-07
4.92206e-07
4.4283e-07
3.98897e-07
3.59763e-07
3.24866e-07
2.93709e-07
2.65858e-07
2.40932e-07
2.18598e-07
1.98562e-07
1.80568e-07
1.6439e-07
1.49827e-07
1.36704e-07
1.17623e-06
1.04794e-06
9.34672e-07
8.34596e-07
7.46094e-07
6.67758e-07
5.98356e-07
5.36808e-07
4.8217e-07
4.33618e-07
3.90429e-07
3.51971e-07
3.17689e-07
2.87095e-07
2.59761e-07
2.3531e-07
2.13412e-07
1.93776e-07
1.76147e-07
1.603e-07
1.4604e-07
1.33192e-07
1.15693e-06
1.03041e-06
9.18743e-07
8.20097e-07
7.32881e-07
6.55702e-07
5.87344e-07
5.26741e-07
4.7296e-07
4.25183e-07
3.82695e-07
3.44871e-07
3.11163e-07
2.81091e-07
2.54232e-07
2.30216e-07
2.08716e-07
1.89445e-07
1.72152e-07
1.56612e-07
1.42632e-07
1.30038e-07
1.13883e-06
1.01403e-06
9.03898e-07
8.06626e-07
7.20643e-07
6.44571e-07
5.77206e-07
5.17495e-07
4.64519e-07
4.1747e-07
3.75642e-07
3.38415e-07
3.05247e-07
2.75664e-07
2.49247e-07
2.25631e-07
2.04495e-07
1.85557e-07
1.68566e-07
1.53307e-07
1.39583e-07
1.27225e-07
1.12276e-06
9.99495e-07
8.9073e-07
7.94685e-07
7.09799e-07
6.34712e-07
5.68232e-07
5.09317e-07
4.57056e-07
4.10653e-07
3.69407e-07
3.32708e-07
3.00019e-07
2.70869e-07
2.44846e-07
2.21587e-07
2.00775e-07
1.8213e-07
1.65408e-07
1.50392e-07
1.36893e-07
1.24741e-07
1.1081e-06
9.8627e-07
8.78783e-07
7.83879e-07
7.00014e-07
6.25838e-07
5.60175e-07
5.01992e-07
4.5039e-07
4.04577e-07
3.63865e-07
3.27645e-07
2.95389e-07
2.66632e-07
2.40964e-07
2.18028e-07
1.97508e-07
1.7913e-07
1.62648e-07
1.47852e-07
1.3455e-07
1.2258e-07
1.09507e-06
9.74536e-07
8.68203e-07
7.74327e-07
6.91378e-07
6.18023e-07
5.53092e-07
4.95566e-07
4.44552e-07
3.99267e-07
3.59028e-07
3.23235e-07
2.91363e-07
2.62952e-07
2.37597e-07
2.14945e-07
1.94683e-07
1.76538e-07
1.60269e-07
1.45665e-07
1.32539e-07
1.20727e-07
1.08367e-06
9.64283e-07
8.58975e-07
7.6601e-07
6.83873e-07
6.11241e-07
5.46958e-07
4.9001e-07
4.39513e-07
3.94692e-07
3.54868e-07
3.19448e-07
2.87912e-07
2.59803e-07
2.34721e-07
2.12314e-07
1.92274e-07
1.74331e-07
1.58245e-07
1.43807e-07
1.30833e-07
1.19159e-07
1.07386e-06
9.55483e-07
8.51068e-07
7.58895e-07
6.77465e-07
6.05461e-07
5.41737e-07
4.8529e-07
4.35238e-07
3.90816e-07
3.51351e-07
3.16252e-07
2.85003e-07
2.57153e-07
2.32303e-07
2.10106e-07
1.90256e-07
1.72484e-07
1.56553e-07
1.42256e-07
1.29409e-07
1.17851e-07
1.06561e-06
9.48083e-07
8.44429e-07
7.52932e-07
6.72101e-07
6.00632e-07
5.37383e-07
4.81358e-07
4.31685e-07
3.876e-07
3.48436e-07
3.13606e-07
2.826e-07
2.54966e-07
2.30312e-07
2.0829e-07
1.88598e-07
1.70967e-07
1.55166e-07
1.40985e-07
1.28245e-07
1.16783e-07
1.05884e-06
9.42025e-07
8.38998e-07
7.4806e-07
6.67724e-07
5.96694e-07
5.33837e-07
4.78161e-07
4.28799e-07
3.84992e-07
3.46075e-07
3.11468e-07
2.80659e-07
2.53204e-07
2.28708e-07
2.0683e-07
1.87265e-07
1.69752e-07
1.54053e-07
1.39967e-07
1.27312e-07
1.1593e-07
1.05355e-06
9.37295e-07
8.34758e-07
7.44254e-07
6.64305e-07
5.93619e-07
5.31069e-07
4.75666e-07
4.26547e-07
3.82958e-07
3.44235e-07
3.09801e-07
2.79149e-07
2.51832e-07
2.27461e-07
2.05694e-07
1.86231e-07
1.68806e-07
1.53189e-07
1.39174e-07
1.26582e-07
1.15256e-07
1.04932e-06
9.3353e-07
8.31401e-07
7.41258e-07
6.61627e-07
5.91223e-07
5.28921e-07
4.73739e-07
4.24815e-07
3.81398e-07
3.4283e-07
3.08533e-07
2.78001e-07
2.50793e-07
2.2652e-07
2.0484e-07
1.85454e-07
1.681e-07
1.52546e-07
1.38588e-07
1.26046e-07
1.14721e-07
1.17426e-06
1.0468e-06
9.34189e-07
8.34615e-07
7.46494e-07
6.68442e-07
5.99245e-07
5.37842e-07
4.83301e-07
4.34809e-07
3.91649e-07
3.53196e-07
3.18899e-07
2.88276e-07
2.60903e-07
2.36406e-07
2.14459e-07
1.94773e-07
1.77094e-07
1.61199e-07
1.4689e-07
1.33995e-07
1.17455e-06
1.04707e-06
9.34446e-07
8.34855e-07
7.4672e-07
6.68653e-07
5.99443e-07
5.38027e-07
4.83474e-07
4.3497e-07
3.918e-07
3.53337e-07
3.19031e-07
2.884e-07
2.61018e-07
2.36514e-07
2.1456e-07
1.94867e-07
1.77182e-07
1.61281e-07
1.46967e-07
1.34067e-07
1.1773e-06
1.04955e-06
9.36674e-07
8.36867e-07
7.48538e-07
6.70298e-07
6.00933e-07
5.39379e-07
4.84702e-07
4.36087e-07
3.92816e-07
3.54263e-07
3.19876e-07
2.8917e-07
2.61722e-07
2.37158e-07
2.1515e-07
1.95408e-07
1.77678e-07
1.61737e-07
1.47386e-07
1.34452e-07
1.18189e-06
1.05367e-06
9.40383e-07
8.40205e-07
7.51545e-07
6.73011e-07
6.03383e-07
5.41594e-07
4.86707e-07
4.37904e-07
3.94466e-07
3.55761e-07
3.21238e-07
2.90411e-07
2.62853e-07
2.3819e-07
2.16092e-07
1.96269e-07
1.78467e-07
1.62459e-07
1.48049e-07
1.3506e-07
1.18773e-06
1.05895e-06
9.45154e-07
8.44525e-07
7.55462e-07
6.76566e-07
6.06614e-07
5.44533e-07
4.89384e-07
4.40344e-07
3.96692e-07
3.57796e-07
3.23098e-07
2.92114e-07
2.64413e-07
2.39621e-07
2.17406e-07
1.97476e-07
1.79576e-07
1.6348e-07
1.48989e-07
1.35927e-07
1.19547e-06
1.06595e-06
9.51491e-07
8.5027e-07
7.60676e-07
6.81304e-07
6.10924e-07
5.48457e-07
4.92962e-07
4.4361e-07
3.99676e-07
3.60524e-07
3.25596e-07
2.94402e-07
2.66512e-07
2.41547e-07
2.19175e-07
1.99103e-07
1.81073e-07
1.64859e-07
1.50259e-07
1.37098e-07
1.2051e-06
1.07468e-06
9.5942e-07
8.57476e-07
7.67232e-07
6.87275e-07
6.16368e-07
5.53428e-07
4.97503e-07
4.47763e-07
4.03478e-07
3.64009e-07
3.28792e-07
2.97337e-07
2.69208e-07
2.44027e-07
2.21457e-07
2.01204e-07
1.83009e-07
1.66645e-07
1.51907e-07
1.3862e-07
1.21672e-06
1.08525e-06
9.69036e-07
8.66237e-07
7.75224e-07
6.94573e-07
6.23038e-07
5.5953e-07
5.03092e-07
4.52886e-07
4.08178e-07
3.68324e-07
3.32759e-07
3.00985e-07
2.72566e-07
2.4712e-07
2.24308e-07
2.03834e-07
1.85438e-07
1.68887e-07
1.5398e-07
1.40536e-07
1.23039e-06
1.09771e-06
9.80407e-07
8.76626e-07
7.84724e-07
7.03269e-07
6.31006e-07
5.66837e-07
5.09799e-07
4.59047e-07
4.13843e-07
3.73537e-07
3.37558e-07
3.05407e-07
2.76645e-07
2.50883e-07
2.27783e-07
2.07045e-07
1.88406e-07
1.71632e-07
1.5652e-07
1.42888e-07
1.24613e-06
1.11209e-06
9.93575e-07
8.88688e-07
7.95783e-07
7.13418e-07
6.40327e-07
5.75405e-07
5.17681e-07
4.66304e-07
4.20529e-07
3.79701e-07
3.43245e-07
3.10658e-07
2.81495e-07
2.55366e-07
2.31929e-07
2.10881e-07
1.91957e-07
1.74921e-07
1.59568e-07
1.45714e-07
1.26377e-06
1.12828e-06
1.00844e-06
9.02348e-07
8.08348e-07
7.24983e-07
6.50981e-07
5.85226e-07
5.2674e-07
4.74666e-07
4.28252e-07
3.86838e-07
3.49845e-07
3.16764e-07
2.87147e-07
2.606e-07
2.36779e-07
2.15376e-07
1.96125e-07
1.78788e-07
1.63156e-07
1.49044e-07
1.28379e-06
1.14668e-06
1.02536e-06
9.17922e-07
8.22692e-07
7.38205e-07
6.63176e-07
5.96482e-07
5.37135e-07
4.84273e-07
4.37135e-07
3.95056e-07
3.57452e-07
3.23808e-07
2.93673e-07
2.66649e-07
2.42387e-07
2.20579e-07
2.00952e-07
1.83269e-07
1.67317e-07
1.52909e-07
1.30545e-06
1.16666e-06
1.04381e-06
9.34971e-07
8.38452e-07
7.52782e-07
6.76666e-07
6.08972e-07
5.48705e-07
4.94995e-07
4.47076e-07
4.04276e-07
3.66006e-07
3.31747e-07
3.01044e-07
2.73495e-07
2.48747e-07
2.26489e-07
2.06447e-07
1.88377e-07
1.72067e-07
1.57328e-07
1.32886e-06
1.18834e-06
1.06389e-06
9.53576e-07
8.55702e-07
7.68781e-07
6.91511e-07
6.22751e-07
5.61499e-07
5.06877e-07
4.58115e-07
4.14535e-07
3.75542e-07
3.40613e-07
3.09289e-07
2.81165e-07
2.55883e-07
2.3313e-07
2.12627e-07
1.94131e-07
1.77424e-07
1.62317e-07
1.35381e-06
1.21153e-06
1.08545e-06
9.73622e-07
8.74345e-07
7.86124e-07
7.07647e-07
6.37767e-07
5.75475e-07
5.19887e-07
4.70228e-07
4.25814e-07
3.86046e-07
3.50397e-07
3.18403e-07
2.89656e-07
2.63795e-07
2.40502e-07
2.19498e-07
2.00535e-07
1.83393e-07
1.67881e-07
1.35381e-06
1.21153e-06
1.08545e-06
9.73621e-07
8.74345e-07
7.86124e-07
7.07647e-07
6.37767e-07
5.75475e-07
5.19887e-07
4.70227e-07
4.25813e-07
3.86046e-07
3.50397e-07
3.18404e-07
2.89656e-07
2.63796e-07
2.40503e-07
2.19499e-07
2.00536e-07
1.83394e-07
1.67882e-07
1.32885e-06
1.18833e-06
1.06389e-06
9.53574e-07
8.55701e-07
7.6878e-07
6.91511e-07
6.2275e-07
5.61498e-07
5.06876e-07
4.58114e-07
4.14534e-07
3.75541e-07
3.40614e-07
3.0929e-07
2.81167e-07
2.55885e-07
2.33132e-07
2.1263e-07
1.94133e-07
1.77427e-07
1.62319e-07
1.30544e-06
1.16666e-06
1.04381e-06
9.34967e-07
8.38449e-07
7.5278e-07
6.76665e-07
6.0897e-07
5.48704e-07
4.94994e-07
4.47075e-07
4.04276e-07
3.66007e-07
3.31748e-07
3.01046e-07
2.73497e-07
2.4875e-07
2.26492e-07
2.0645e-07
1.8838e-07
1.7207e-07
1.57331e-07
1.28378e-06
1.14667e-06
1.02535e-06
9.17916e-07
8.22687e-07
7.38201e-07
6.63173e-07
5.9648e-07
5.37134e-07
4.84272e-07
4.37135e-07
3.95057e-07
3.57453e-07
3.2381e-07
2.93674e-07
2.66651e-07
2.42389e-07
2.20581e-07
2.00954e-07
1.83271e-07
1.67318e-07
1.52911e-07
1.26376e-06
1.12827e-06
1.00843e-06
9.02341e-07
8.08341e-07
7.24978e-07
6.50977e-07
5.85223e-07
5.26739e-07
4.74666e-07
4.28253e-07
3.8684e-07
3.49848e-07
3.16766e-07
2.87149e-07
2.60602e-07
2.36781e-07
2.15378e-07
1.96127e-07
1.78789e-07
1.63158e-07
1.49046e-07
1.24611e-06
1.11208e-06
9.93566e-07
8.88681e-07
7.95778e-07
7.13413e-07
6.40324e-07
5.75403e-07
5.1768e-07
4.66304e-07
4.20529e-07
3.79702e-07
3.43247e-07
3.1066e-07
2.81497e-07
2.55369e-07
2.31931e-07
2.10884e-07
1.91959e-07
1.74924e-07
1.5957e-07
1.45716e-07
1.23038e-06
1.0977e-06
9.804e-07
8.76621e-07
7.84721e-07
7.03266e-07
6.31004e-07
5.66836e-07
5.09798e-07
4.59047e-07
4.13844e-07
3.73538e-07
3.37561e-07
3.0541e-07
2.76648e-07
2.50887e-07
2.27787e-07
2.07049e-07
1.88409e-07
1.71636e-07
1.56523e-07
1.42891e-07
1.21671e-06
1.08524e-06
9.69033e-07
8.66236e-07
7.75224e-07
6.94573e-07
6.23039e-07
5.59531e-07
5.03093e-07
4.52887e-07
4.0818e-07
3.68327e-07
3.32761e-07
3.00988e-07
2.72569e-07
2.47123e-07
2.24312e-07
2.03838e-07
1.85441e-07
1.6889e-07
1.53983e-07
1.40539e-07
1.2051e-06
1.07468e-06
9.59423e-07
8.5748e-07
7.67237e-07
6.8728e-07
6.16373e-07
5.53432e-07
4.97507e-07
4.47766e-07
4.03481e-07
3.64011e-07
3.28794e-07
2.97339e-07
2.6921e-07
2.44029e-07
2.21459e-07
2.01207e-07
1.83012e-07
1.66647e-07
1.5191e-07
1.38623e-07
1.19547e-06
1.06595e-06
9.51499e-07
8.50279e-07
7.60685e-07
6.81313e-07
6.10932e-07
5.48465e-07
4.92968e-07
4.43615e-07
3.9968e-07
3.60527e-07
3.25598e-07
2.94404e-07
2.66514e-07
2.41549e-07
2.19177e-07
1.99105e-07
1.81076e-07
1.64862e-07
1.50262e-07
1.37102e-07
1.18774e-06
1.05896e-06
9.45165e-07
8.44536e-07
7.55473e-07
6.76578e-07
6.06625e-07
5.44544e-07
4.89394e-07
4.40353e-07
3.967e-07
3.57802e-07
3.23104e-07
2.92118e-07
2.64417e-07
2.39624e-07
2.17409e-07
1.97479e-07
1.7958e-07
1.63483e-07
1.48994e-07
1.35932e-07
1.1819e-06
1.05368e-06
9.40395e-07
8.40217e-07
7.51557e-07
6.73023e-07
6.03396e-07
5.41606e-07
4.8672e-07
4.37916e-07
3.94477e-07
3.55771e-07
3.21247e-07
2.90418e-07
2.62859e-07
2.38195e-07
2.16096e-07
1.96274e-07
1.7847e-07
1.62463e-07
1.48053e-07
1.35065e-07
1.17731e-06
1.04957e-06
9.36694e-07
8.36885e-07
7.48554e-07
6.70313e-07
6.00947e-07
5.39392e-07
4.84715e-07
4.36099e-07
3.92829e-07
3.54275e-07
3.19888e-07
2.89181e-07
2.61733e-07
2.37167e-07
2.15157e-07
1.95415e-07
1.77684e-07
1.61743e-07
1.47392e-07
1.34459e-07
1.17459e-06
1.04711e-06
9.34481e-07
8.34888e-07
7.46749e-07
6.68678e-07
5.99464e-07
5.38045e-07
4.8349e-07
4.34985e-07
3.91815e-07
3.53352e-07
3.19046e-07
2.88415e-07
2.61033e-07
2.36528e-07
2.14573e-07
1.94879e-07
1.77193e-07
1.6129e-07
1.46976e-07
1.34074e-07
1.17431e-06
1.04685e-06
9.34241e-07
8.34664e-07
7.4654e-07
6.68483e-07
5.99281e-07
5.37873e-07
4.83328e-07
4.34831e-07
3.91669e-07
3.53214e-07
3.18917e-07
2.88294e-07
2.60921e-07
2.36424e-07
2.14476e-07
1.94789e-07
1.77108e-07
1.61211e-07
1.469e-07
1.34002e-07
1.17426e-06
1.0468e-06
9.34186e-07
8.34609e-07
7.46487e-07
6.68433e-07
5.99235e-07
5.3783e-07
4.83288e-07
4.34795e-07
3.91636e-07
3.53184e-07
3.18888e-07
2.88267e-07
2.60894e-07
2.36399e-07
2.14452e-07
1.94766e-07
1.77086e-07
1.61191e-07
1.46881e-07
1.33985e-07
1.17454e-06
1.04706e-06
9.34434e-07
8.34841e-07
7.46704e-07
6.68636e-07
5.99425e-07
5.38008e-07
4.83456e-07
4.34953e-07
3.91784e-07
3.53323e-07
3.19019e-07
2.88388e-07
2.61007e-07
2.36504e-07
2.1455e-07
1.94857e-07
1.77172e-07
1.61271e-07
1.46958e-07
1.34058e-07
1.17728e-06
1.04953e-06
9.36653e-07
8.36845e-07
7.48515e-07
6.70276e-07
6.00911e-07
5.39358e-07
4.84682e-07
4.36068e-07
3.92799e-07
3.54247e-07
3.1986e-07
2.89155e-07
2.61708e-07
2.37144e-07
2.15136e-07
1.95395e-07
1.77666e-07
1.61726e-07
1.47377e-07
1.34443e-07
1.18187e-06
1.05365e-06
9.40357e-07
8.40179e-07
7.5152e-07
6.72987e-07
6.03361e-07
5.41572e-07
4.86687e-07
4.37885e-07
3.94447e-07
3.55742e-07
3.2122e-07
2.90393e-07
2.62836e-07
2.38173e-07
2.16076e-07
1.96255e-07
1.78453e-07
1.62448e-07
1.48038e-07
1.35052e-07
1.1877e-06
1.05892e-06
9.45126e-07
8.44498e-07
7.55436e-07
6.76542e-07
6.0659e-07
5.4451e-07
4.89362e-07
4.40323e-07
3.96671e-07
3.57775e-07
3.23078e-07
2.92095e-07
2.64394e-07
2.39604e-07
2.17389e-07
1.97461e-07
1.79563e-07
1.63468e-07
1.4898e-07
1.35918e-07
1.19544e-06
1.06591e-06
9.5146e-07
8.50241e-07
7.60648e-07
6.81277e-07
6.10898e-07
5.48432e-07
4.92938e-07
4.43586e-07
3.99653e-07
3.60502e-07
3.25576e-07
2.94383e-07
2.66495e-07
2.4153e-07
2.19161e-07
1.99089e-07
1.81062e-07
1.64848e-07
1.50251e-07
1.37092e-07
1.20506e-06
1.07464e-06
9.59385e-07
8.57442e-07
7.672e-07
6.87245e-07
6.1634e-07
5.534e-07
4.97477e-07
4.47739e-07
4.03455e-07
3.63987e-07
3.28772e-07
2.97319e-07
2.69192e-07
2.44013e-07
2.21443e-07
2.01194e-07
1.82999e-07
1.66637e-07
1.51899e-07
1.38613e-07
1.21668e-06
1.0852e-06
9.68996e-07
8.662e-07
7.75189e-07
6.9454e-07
6.23008e-07
5.59501e-07
5.03065e-07
4.52862e-07
4.08156e-07
3.68304e-07
3.32741e-07
3.00969e-07
2.72552e-07
2.47107e-07
2.24298e-07
2.03824e-07
1.8543e-07
1.68879e-07
1.53974e-07
1.4053e-07
1.23034e-06
1.09766e-06
9.80365e-07
8.76586e-07
7.84687e-07
7.03235e-07
6.30975e-07
5.66808e-07
5.09773e-07
4.59024e-07
4.13823e-07
3.73518e-07
3.37543e-07
3.05393e-07
2.76633e-07
2.50872e-07
2.27774e-07
2.07037e-07
1.88398e-07
1.71626e-07
1.56514e-07
1.42884e-07
1.24608e-06
1.11205e-06
9.93533e-07
8.88648e-07
7.95746e-07
7.13383e-07
6.40296e-07
5.75377e-07
5.17656e-07
4.66282e-07
4.2051e-07
3.79685e-07
3.43231e-07
3.10646e-07
2.81484e-07
2.55358e-07
2.31921e-07
2.10875e-07
1.9195e-07
1.74916e-07
1.59563e-07
1.45709e-07
1.26373e-06
1.12824e-06
1.0084e-06
9.0231e-07
8.08312e-07
7.2495e-07
6.50951e-07
5.85199e-07
5.26716e-07
4.74645e-07
4.28234e-07
3.86822e-07
3.49832e-07
3.16751e-07
2.87137e-07
2.60591e-07
2.36771e-07
2.15369e-07
1.9612e-07
1.78783e-07
1.63152e-07
1.49041e-07
1.28375e-06
1.14664e-06
1.02532e-06
9.17887e-07
8.22659e-07
7.38175e-07
6.63149e-07
5.96457e-07
5.37113e-07
4.84253e-07
4.37117e-07
3.95041e-07
3.57437e-07
3.23796e-07
2.93661e-07
2.6664e-07
2.42379e-07
2.20572e-07
2.00946e-07
1.83265e-07
1.67313e-07
1.52906e-07
1.30542e-06
1.16663e-06
1.04378e-06
9.34939e-07
8.38423e-07
7.52755e-07
6.76642e-07
6.08949e-07
5.48685e-07
4.94976e-07
4.47059e-07
4.04261e-07
3.65993e-07
3.31736e-07
3.01034e-07
2.73486e-07
2.4874e-07
2.26483e-07
2.06441e-07
1.88373e-07
1.72064e-07
1.57326e-07
1.32883e-06
1.18831e-06
1.06386e-06
9.53548e-07
8.55676e-07
7.68757e-07
6.91489e-07
6.22731e-07
5.6148e-07
5.06861e-07
4.581e-07
4.14521e-07
3.7553e-07
3.40604e-07
3.09281e-07
2.81158e-07
2.55877e-07
2.33124e-07
2.12622e-07
1.94127e-07
1.77421e-07
1.62314e-07
1.35379e-06
1.2115e-06
1.08542e-06
9.73598e-07
8.74322e-07
7.86102e-07
7.07627e-07
6.37748e-07
5.75458e-07
5.19872e-07
4.70214e-07
4.25802e-07
3.86036e-07
3.50389e-07
3.18396e-07
2.8965e-07
2.6379e-07
2.40498e-07
2.19494e-07
2.00531e-07
1.8339e-07
1.67878e-07
1.35379e-06
1.21151e-06
1.08543e-06
9.736e-07
8.74325e-07
7.86104e-07
7.07628e-07
6.37749e-07
5.75459e-07
5.19873e-07
4.70215e-07
4.25802e-07
3.86036e-07
3.50389e-07
3.18397e-07
2.89651e-07
2.6379e-07
2.40498e-07
2.19494e-07
2.00531e-07
1.8339e-07
1.67878e-07
1.32883e-06
1.18831e-06
1.06387e-06
9.53555e-07
8.55682e-07
7.68763e-07
6.91494e-07
6.22735e-07
5.61484e-07
5.06864e-07
4.58103e-07
4.14524e-07
3.75532e-07
3.40606e-07
3.09283e-07
2.81159e-07
2.55879e-07
2.33126e-07
2.12624e-07
1.94128e-07
1.77422e-07
1.62315e-07
1.30543e-06
1.16664e-06
1.04379e-06
9.34951e-07
8.38434e-07
7.52765e-07
6.7665e-07
6.08957e-07
5.48692e-07
4.94982e-07
4.47064e-07
4.04266e-07
3.65997e-07
3.31739e-07
3.01037e-07
2.73489e-07
2.48742e-07
2.26485e-07
2.06443e-07
1.88375e-07
1.72065e-07
1.57327e-07
1.28378e-06
1.14666e-06
1.02534e-06
9.17905e-07
8.22676e-07
7.38189e-07
6.63162e-07
5.96468e-07
5.37123e-07
4.84261e-07
4.37124e-07
3.95047e-07
3.57443e-07
3.238e-07
2.93666e-07
2.66643e-07
2.42382e-07
2.20574e-07
2.00949e-07
1.83266e-07
1.67314e-07
1.52907e-07
1.26376e-06
1.12827e-06
1.00842e-06
9.02334e-07
8.08334e-07
7.2497e-07
6.50969e-07
5.85214e-07
5.26729e-07
4.74656e-07
4.28243e-07
3.8683e-07
3.49838e-07
3.16758e-07
2.87141e-07
2.60595e-07
2.36774e-07
2.15372e-07
1.96122e-07
1.78785e-07
1.63153e-07
1.49042e-07
1.24612e-06
1.11208e-06
9.93564e-07
8.88677e-07
7.95772e-07
7.13407e-07
6.40318e-07
5.75396e-07
5.17673e-07
4.66297e-07
4.20522e-07
3.79695e-07
3.4324e-07
3.10653e-07
2.8149e-07
2.55362e-07
2.31925e-07
2.10878e-07
1.91954e-07
1.74919e-07
1.59566e-07
1.45712e-07
1.23038e-06
1.0977e-06
9.80398e-07
8.76617e-07
7.84716e-07
7.03261e-07
6.30999e-07
5.6683e-07
5.09793e-07
4.59042e-07
4.13838e-07
3.73532e-07
3.37554e-07
3.05404e-07
2.76642e-07
2.5088e-07
2.27781e-07
2.07043e-07
1.88403e-07
1.7163e-07
1.56518e-07
1.42887e-07
1.21671e-06
1.08524e-06
9.69028e-07
8.6623e-07
7.75217e-07
6.94567e-07
6.23033e-07
5.59525e-07
5.03087e-07
4.52882e-07
4.08175e-07
3.68321e-07
3.32756e-07
3.00982e-07
2.72564e-07
2.47118e-07
2.24306e-07
2.03833e-07
1.85436e-07
1.68885e-07
1.53978e-07
1.40535e-07
1.20509e-06
1.07467e-06
9.59413e-07
8.5747e-07
7.67227e-07
6.87271e-07
6.16364e-07
5.53424e-07
4.975e-07
4.4776e-07
4.03476e-07
3.64006e-07
3.2879e-07
2.97335e-07
2.69206e-07
2.44025e-07
2.21455e-07
2.01203e-07
1.83008e-07
1.66644e-07
1.51906e-07
1.38619e-07
1.19546e-06
1.06594e-06
9.51485e-07
8.50265e-07
7.60671e-07
6.813e-07
6.1092e-07
5.48454e-07
4.92959e-07
4.43607e-07
3.99673e-07
3.60522e-07
3.25594e-07
2.94401e-07
2.66511e-07
2.41546e-07
2.19175e-07
1.99102e-07
1.81073e-07
1.64858e-07
1.50259e-07
1.37098e-07
1.18773e-06
1.05894e-06
9.45149e-07
8.4452e-07
7.55458e-07
6.76562e-07
6.0661e-07
5.4453e-07
4.89381e-07
4.40342e-07
3.9669e-07
3.57794e-07
3.23097e-07
2.92113e-07
2.64413e-07
2.3962e-07
2.17405e-07
1.97476e-07
1.79576e-07
1.6348e-07
1.48989e-07
1.35926e-07
1.18189e-06
1.05367e-06
9.40379e-07
8.40201e-07
7.51542e-07
6.73008e-07
6.03381e-07
5.41592e-07
4.86705e-07
4.37902e-07
3.94464e-07
3.5576e-07
3.21237e-07
2.9041e-07
2.62853e-07
2.3819e-07
2.16092e-07
1.96269e-07
1.78466e-07
1.62459e-07
1.48048e-07
1.3506e-07
1.17729e-06
1.04954e-06
9.36671e-07
8.36864e-07
7.48535e-07
6.70296e-07
6.00931e-07
5.39377e-07
4.847e-07
4.36085e-07
3.92815e-07
3.54262e-07
3.19875e-07
2.8917e-07
2.61722e-07
2.37158e-07
2.1515e-07
1.95407e-07
1.77678e-07
1.61737e-07
1.47386e-07
1.34452e-07
1.17455e-06
1.04707e-06
9.34444e-07
8.34853e-07
7.46718e-07
6.68652e-07
5.99441e-07
5.38025e-07
4.83473e-07
4.3497e-07
3.918e-07
3.53337e-07
3.19031e-07
2.88399e-07
2.61018e-07
2.36514e-07
2.14559e-07
1.94867e-07
1.77182e-07
1.61281e-07
1.46967e-07
1.34067e-07
1.17426e-06
1.0468e-06
9.34188e-07
8.34614e-07
7.46494e-07
6.68441e-07
5.99245e-07
5.37841e-07
4.83301e-07
4.34808e-07
3.91649e-07
3.53196e-07
3.18899e-07
2.88276e-07
2.60903e-07
2.36406e-07
2.14459e-07
1.94773e-07
1.77094e-07
1.61199e-07
1.4689e-07
1.33995e-07
1.17101e-06
1.17117e-06
1.17373e-06
1.17799e-06
1.18322e-06
1.19004e-06
1.19839e-06
1.20829e-06
1.21967e-06
1.23244e-06
1.2464e-06
1.26201e-06
1.27845e-06
1.29575e-06
1.31371e-06
1.24208e-06
1.21898e-06
1.19699e-06
1.17628e-06
1.15697e-06
1.13886e-06
1.12278e-06
1.10812e-06
1.09508e-06
1.08367e-06
1.07386e-06
1.06562e-06
1.05886e-06
1.05359e-06
1.04925e-06
1.03798e-06
1.03812e-06
1.04039e-06
1.04416e-06
1.04884e-06
1.05494e-06
1.06245e-06
1.07142e-06
1.08176e-06
1.09342e-06
1.10625e-06
1.12066e-06
1.13595e-06
1.15214e-06
1.16909e-06
1.10798e-06
1.08685e-06
1.0668e-06
1.04795e-06
1.03042e-06
1.01403e-06
9.99491e-07
9.86265e-07
9.7453e-07
9.64277e-07
9.55481e-07
9.48094e-07
9.42049e-07
9.37336e-07
9.33448e-07
9.20947e-07
9.21067e-07
9.23086e-07
9.26432e-07
9.30612e-07
9.36081e-07
9.42848e-07
9.50966e-07
9.60385e-07
9.7105e-07
9.82851e-07
9.96152e-07
1.01037e-06
1.02554e-06
1.04151e-06
9.89485e-07
9.70145e-07
9.51835e-07
9.34668e-07
9.18736e-07
9.03887e-07
8.90717e-07
8.7877e-07
8.68192e-07
8.58966e-07
8.51065e-07
8.4444e-07
8.39025e-07
8.34804e-07
8.31325e-07
8.17911e-07
8.18018e-07
8.19814e-07
8.2279e-07
8.26535e-07
8.31443e-07
8.3754e-07
8.44898e-07
8.53489e-07
8.63258e-07
8.74117e-07
8.864e-07
8.99636e-07
9.13828e-07
9.2887e-07
8.84693e-07
8.66972e-07
8.50236e-07
8.34578e-07
8.20079e-07
8.06608e-07
7.94666e-07
7.83862e-07
7.74314e-07
7.66002e-07
7.58895e-07
7.52945e-07
7.48089e-07
7.44305e-07
7.41187e-07
7.2714e-07
7.27235e-07
7.28836e-07
7.31486e-07
7.34848e-07
7.39261e-07
7.44759e-07
7.51431e-07
7.59276e-07
7.68237e-07
7.78239e-07
7.89585e-07
8.01902e-07
8.15189e-07
8.29345e-07
7.91933e-07
7.75678e-07
7.60366e-07
7.46069e-07
7.32857e-07
7.20621e-07
7.0978e-07
6.99996e-07
6.91366e-07
6.83868e-07
6.77468e-07
6.72117e-07
6.67756e-07
6.64359e-07
6.61563e-07
6.47115e-07
6.47202e-07
6.4863e-07
6.50994e-07
6.54016e-07
6.57993e-07
6.62958e-07
6.69009e-07
6.76175e-07
6.84408e-07
6.93631e-07
7.04116e-07
7.15576e-07
7.28014e-07
7.41329e-07
7.09748e-07
6.9482e-07
6.80797e-07
6.6773e-07
6.55676e-07
6.44548e-07
6.34693e-07
6.25823e-07
6.18014e-07
6.1124e-07
6.05468e-07
6.00652e-07
5.9673e-07
5.93676e-07
5.91166e-07
5.76512e-07
5.76592e-07
5.77868e-07
5.79979e-07
5.82701e-07
5.86291e-07
5.90783e-07
5.96275e-07
6.02821e-07
6.10393e-07
6.1891e-07
6.28603e-07
6.39262e-07
6.50904e-07
6.63424e-07
6.36861e-07
6.23139e-07
6.1028e-07
5.98326e-07
5.87318e-07
5.77183e-07
5.68215e-07
5.60162e-07
5.53087e-07
5.4696e-07
5.41748e-07
5.37406e-07
5.33876e-07
5.31126e-07
5.28872e-07
5.14173e-07
5.14247e-07
5.15388e-07
5.17275e-07
5.19731e-07
5.22978e-07
5.27051e-07
5.3204e-07
5.38019e-07
5.44986e-07
5.52861e-07
5.61832e-07
5.71742e-07
5.82632e-07
5.94404e-07
5.72158e-07
5.59529e-07
5.47726e-07
5.36779e-07
5.26715e-07
5.17474e-07
5.09302e-07
5.01984e-07
4.95564e-07
4.90016e-07
4.85305e-07
4.81384e-07
4.78202e-07
4.75724e-07
4.73698e-07
4.59085e-07
4.59155e-07
4.60178e-07
4.61866e-07
4.64083e-07
4.67026e-07
4.70726e-07
4.75265e-07
4.80727e-07
4.87137e-07
4.94427e-07
5.02737e-07
5.11951e-07
5.22131e-07
5.33194e-07
5.14661e-07
5.03026e-07
4.92178e-07
4.82143e-07
4.72935e-07
4.645e-07
4.57044e-07
4.50384e-07
4.44553e-07
4.39523e-07
4.35258e-07
4.31714e-07
4.28842e-07
4.26606e-07
4.24783e-07
4.10364e-07
4.10431e-07
4.11349e-07
4.12862e-07
4.14866e-07
4.17535e-07
4.20904e-07
4.25042e-07
4.30032e-07
4.35929e-07
4.4268e-07
4.50388e-07
4.58956e-07
4.68464e-07
4.78857e-07
4.63511e-07
4.52786e-07
4.42803e-07
4.33593e-07
4.2516e-07
4.17453e-07
4.10642e-07
4.04575e-07
3.99272e-07
3.94706e-07
3.90839e-07
3.87632e-07
3.85036e-07
3.83016e-07
3.81374e-07
3.67238e-07
3.67301e-07
3.68126e-07
3.69483e-07
3.71296e-07
3.73721e-07
3.76793e-07
3.80573e-07
3.85138e-07
3.90558e-07
3.96812e-07
4.03969e-07
4.11942e-07
4.20816e-07
4.30569e-07
4.17956e-07
4.08064e-07
3.98869e-07
3.90405e-07
3.82675e-07
3.75627e-07
3.69399e-07
3.63864e-07
3.59036e-07
3.54885e-07
3.51376e-07
3.4847e-07
3.46121e-07
3.44293e-07
3.42814e-07
3.29028e-07
3.29087e-07
3.29831e-07
3.3105e-07
3.32692e-07
3.34896e-07
3.37701e-07
3.41162e-07
3.45344e-07
3.50325e-07
3.56114e-07
3.62765e-07
3.70191e-07
3.78471e-07
3.87614e-07
3.77337e-07
3.6821e-07
3.59735e-07
3.51948e-07
3.44853e-07
3.38402e-07
3.32702e-07
3.27647e-07
3.23245e-07
3.19467e-07
3.16279e-07
3.13643e-07
3.11514e-07
3.09858e-07
3.08524e-07
2.95143e-07
2.95198e-07
2.9587e-07
2.96966e-07
2.98455e-07
3.0046e-07
3.03025e-07
3.06197e-07
3.10036e-07
3.14616e-07
3.19969e-07
3.26151e-07
3.33074e-07
3.40802e-07
3.49363e-07
3.41076e-07
3.32653e-07
3.24837e-07
3.17666e-07
3.11147e-07
3.05236e-07
3.00014e-07
2.95392e-07
2.91374e-07
2.87933e-07
2.85032e-07
2.82637e-07
2.80706e-07
2.79205e-07
2.78e-07
2.65065e-07
2.65116e-07
2.65722e-07
2.66711e-07
2.68062e-07
2.69888e-07
2.72234e-07
2.75146e-07
2.78677e-07
2.82893e-07
2.8784e-07
2.93581e-07
3.0004e-07
3.07257e-07
3.15268e-07
3.08669e-07
3.00889e-07
2.93681e-07
2.87072e-07
2.81076e-07
2.75654e-07
2.70865e-07
2.66635e-07
2.62964e-07
2.59824e-07
2.57182e-07
2.55004e-07
2.53251e-07
2.51887e-07
2.50798e-07
2.38339e-07
2.38386e-07
2.38933e-07
2.39826e-07
2.41054e-07
2.42719e-07
2.44866e-07
2.47541e-07
2.50794e-07
2.54681e-07
2.59252e-07
2.64579e-07
2.70605e-07
2.7735e-07
2.84844e-07
2.79673e-07
2.72482e-07
2.65831e-07
2.59739e-07
2.54218e-07
2.49238e-07
2.44842e-07
2.40967e-07
2.37609e-07
2.34741e-07
2.32332e-07
2.3035e-07
2.28754e-07
2.27515e-07
2.26531e-07
2.14567e-07
2.1461e-07
2.15105e-07
2.15912e-07
2.17031e-07
2.18549e-07
2.20515e-07
2.22975e-07
2.25974e-07
2.29564e-07
2.33791e-07
2.38728e-07
2.44347e-07
2.50655e-07
2.57667e-07
2.53701e-07
2.47047e-07
2.40906e-07