/*--------------------------------*- C++ -*----------------------------------*\
| =========                 |                                                 |
| \\      /  F ield         | OpenFOAM Extend Project: Open source CFD        |
|  \\    /   O peration     | Version:  1.6-ext                               |
|   \\  /    A nd           | Web:      www.extend-project.de                 |
|    \\/     M anipulation  |                                                 |
\*---------------------------------------------------------------------------*/
FoamFile
{
    version     2.0;
    format      ascii;
    class       volScalarField;
    location    "3.5";
    object      p;
}
// * * * * * * * * * * * * * * * * * * * * * * * * * * * * * * * * * * * * * //

dimensions      [0 2 -2 0 0 0 0];

internalField   nonuniform List<scalar> 
284
(
0.275883
0.244409
0.232951
0.227988
0.226113
0.22612
0.227029
0.228302
0.230356
0.246666
0.237789
0.232441
0.229929
0.228995
0.229073
0.229662
0.230492
0.232698
0.234708
0.231307
0.228749
0.227605
0.227629
0.228415
0.229436
0.230438
0.233434
0.225234
0.224168
0.223135
0.222947
0.223687
0.225054
0.226518
0.22775
0.231482
0.217421
0.217115
0.216724
0.216808
0.217565
0.21882
0.220048
0.220813
0.224636
0.21032
0.210203
0.209883
0.209647
0.209664
0.209814
0.209545
0.208191
0.209925
0.203572
0.203425
0.202834
0.20185
0.200468
0.198406
0.194773
0.187797
0.182207
0.197204
0.196934
0.195858
0.193824
0.190554
0.185423
0.1768
0.162319
0.117379
0.191464
0.191025
0.189333
0.186056
0.180462
0.170909
0.151545
0.113222
0.0188946
0.186721
0.186063
0.183694
0.179287
0.172072
0.160522
0.140322
0.108244
0.0543006
0.183444
0.182372
0.179174
0.173786
0.165801
0.154296
0.13732
0.112921
0.0796559
0.182142
0.180191
0.17574
0.169284
0.160788
0.14969
0.135168
0.115421
0.0917967
0.184438
0.179915
0.173344
0.165599
0.156606
0.145917
0.133091
0.116643
0.0980529
0.190549
0.180744
0.171533
0.162682
0.153566
0.14344
0.131811
0.117551
0.101433
0.218782
0.186887
0.172121
0.162213
0.153325
0.143997
0.133318
0.120147
0.104814
-0.115228
-0.0800587
-0.0157064
-0.0371437
0.0296891
-0.000484989
0.0584511
0.0321373
0.0749913
0.0531573
0.0827977
0.0636719
0.0870555
0.0680222
-0.0678849
-0.059269
-0.0557622
-0.0529276
-0.0480465
-0.0397853
-0.0289571
-0.0163089
-0.00526005
-0.0432656
-0.0439353
-0.043768
-0.0422621
-0.0381625
-0.0309832
-0.0221355
-0.0121423
-0.00470116
-0.014775
-0.0212279
-0.0243449
-0.025021
-0.0231075
-0.0186913
-0.0132854
-0.00713766
-0.00389255
0.0152321
0.00434409
-0.00291368
-0.00692662
-0.00816139
-0.0072133
-0.00547712
-0.00305268
-0.003246
0.0355652
0.0222401
0.0126009
0.00615332
0.00229907
0.000398801
-0.000589158
-0.000755713
-0.00285792
0.0464509
0.0321378
0.0209563
0.0127515
0.0070755
0.00338234
0.000973329
-0.000376273
-0.00274894
0.0497312
0.0338457
0.0209837
0.0112587
0.00444626
0.000124561
-0.00226064
-0.00313027
-0.00400628
-0.0313951
-0.0324006
-0.0312485
-0.028402
-0.023877
-0.0178826
-0.0109622
-0.00576707
0.00580251
-0.030395
-0.0315444
-0.0306856
-0.0284431
-0.0246493
-0.0192695
-0.0125955
-0.00768889
0.005012
-0.0318103
-0.0331843
-0.0326302
-0.0307485
-0.0271772
-0.0217427
-0.0146278
-0.009491
0.005085
-0.0352832
-0.0366399
-0.0363972
-0.0348766
-0.0313847
-0.0257023
-0.0178134
-0.0109998
0.00373302
-0.0408367
-0.041663
-0.0416697
-0.0405759
-0.03724
-0.0310957
-0.0222376
-0.0130934
0.00151017
-0.0482857
-0.0475146
-0.0476767
-0.046985
-0.0437628
-0.0370254
-0.0271957
-0.0155875
-0.00117451
-0.0570489
-0.0527369
-0.0528797
-0.0521058
-0.0488545
-0.0416639
-0.0308937
-0.0177275
-0.00357076
-0.0754011
-0.0583263
-0.056479
-0.0549219
-0.0509006
-0.0430618
-0.0318247
-0.0181963
-0.00499371
)
;

boundaryField
{
    inlet
    {
        type            zeroGradient;
    }
    outlet
    {
        type            totalPressure;
        rho             none;
        psi             none;
        gamma           1;
        p0              uniform 0;
        value           uniform 0;
    }
    fixedWalls
    {
        type            zeroGradient;
    }
    frontAndBack
    {
        type            empty;
    }
}


// ************************************************************************* //
