/*--------------------------------*- C++ -*----------------------------------*\
| =========                 |                                                 |
| \\      /  F ield         | OpenFOAM Extend Project: Open source CFD        |
|  \\    /   O peration     | Version:  1.6-ext                               |
|   \\  /    A nd           | Web:      www.extend-project.de                 |
|    \\/     M anipulation  |                                                 |
\*---------------------------------------------------------------------------*/
FoamFile
{
    version     2.0;
    format      ascii;
    class       surfaceScalarField;
    location    "3.5";
    object      phi;
}
// * * * * * * * * * * * * * * * * * * * * * * * * * * * * * * * * * * * * * //

dimensions      [0 3 -1 0 0 0 0];

internalField   nonuniform List<scalar> 
525
(
0.000160821
3.91793e-05
0.000117041
4.37796e-05
8.1415e-05
3.56262e-05
5.4315e-05
2.70999e-05
3.43058e-05
2.00092e-05
1.93513e-05
1.49545e-05
8.10567e-06
1.12457e-05
9.50151e-07
7.15552e-06
9.5015e-07
0.000204951
3.42282e-05
0.0001903
5.84303e-05
0.00016228
6.36468e-05
0.000128788
6.05916e-05
9.45033e-05
5.42939e-05
6.2111e-05
4.73468e-05
3.32137e-05
4.01429e-05
1.04138e-05
2.99554e-05
1.13639e-05
0.000208661
2.55676e-05
0.000208129
5.89622e-05
0.000194268
7.75077e-05
0.000168695
8.61647e-05
0.000134792
8.81963e-05
9.61864e-05
8.59527e-05
5.62967e-05
8.00326e-05
2.02548e-05
6.59973e-05
3.16188e-05
0.000205057
2.05106e-05
0.000208225
5.57942e-05
0.000202785
8.29479e-05
0.000186207
0.000102743
0.00015828
0.000116123
0.000120373
0.00012386
7.5284e-05
0.000125122
2.93215e-05
0.00011196
6.09403e-05
0.000202379
1.81315e-05
0.000205302
5.28712e-05
0.000203858
8.43918e-05
0.000194119
0.000112482
0.000173226
0.000137016
0.000139598
0.000157489
9.3386e-05
0.000171333
3.95901e-05
0.000165756
0.00010053
0.000201253
1.68781e-05
0.000203838
5.02862e-05
0.000204838
8.33926e-05
0.000200598
0.000116722
0.000187087
0.000150526
0.000160239
0.000184338
0.000116464
0.000215108
5.58484e-05
0.000226371
0.000156379
0.000201179
1.56995e-05
0.000204471
4.6994e-05
0.00020821
7.96534e-05
0.00020963
0.000115301
0.000204837
0.00015532
0.000188767
0.000200407
0.000153246
0.000250629
8.7974e-05
0.000291643
0.000244353
0.00020172
1.3979e-05
0.0002068
4.19144e-05
0.000214254
7.2199e-05
0.000222324
0.000107232
0.000228049
0.000149595
0.000226468
0.000201988
0.00020501
0.000272087
0.000139221
0.000357433
0.000383574
0.000202634
1.13445e-05
0.000210293
3.42562e-05
0.000222261
6.02304e-05
0.000237951
9.1542e-05
0.000257372
0.000130174
0.000282373
0.000176987
0.000319939
0.000234521
0.000385191
0.000292181
0.000362219
0.000406546
0.000203921
7.42391e-06
0.000214648
2.35291e-05
0.000231027
4.38507e-05
0.000252876
6.96933e-05
0.000281589
0.000101461
0.000320548
0.000138028
0.000373476
0.000181593
0.000455236
0.000210421
0.000281704
0.000535751
0.000205992
1.43236e-06
0.000220232
9.28834e-06
0.000240123
2.39596e-05
0.000265169
4.46472e-05
0.000296597
7.00329e-05
0.00033704
9.75854e-05
0.000388593
0.000130039
0.000455127
0.000143887
0.000187525
0.000549307
0.000209424
-7.99188e-06
0.000227308
-8.59538e-06
0.00024872
2.54749e-06
0.000273567
1.98002e-05
0.000303237
4.03629e-05
0.000339891
6.09318e-05
0.000386323
8.36071e-05
0.000438704
9.15058e-05
0.000111434
0.000514795
0.000214492
-2.24834e-05
0.000232218
-2.6322e-05
0.000249733
-1.49676e-05
0.000269184
3.4909e-07
0.000292886
1.66616e-05
0.000322853
3.09646e-05
0.000361687
4.47728e-05
0.000403573
4.96203e-05
5.66722e-05
0.000458334
0.000211649
-3.41328e-05
0.000216634
-3.13066e-05
0.000220079
-1.84126e-05
0.000226991
-6.56342e-06
0.000240667
2.98637e-06
0.000261776
9.85503e-06
0.000291114
1.54354e-05
0.000323582
1.71519e-05
1.85583e-05
0.000361696
0.000165867
0.000134561
0.000116148
0.000109585
0.000112571
0.000122426
0.000137861
0.000155013
0.000173572
0.000250242
0.000156304
5.59699e-05
0.000194272
0.000513027
0.000179028
8.87327e-05
0.000480264
0.000585278
0.000143057
8.19798e-05
0.000592031
0.000564833
9.30186e-05
5.62656e-05
0.000590547
0.000503598
4.77552e-05
2.70033e-05
0.00053286
0.000394887
1.45637e-05
6.1081e-06
0.000415783
0.000188135
0.000194243
0.00020281
2.32204e-06
-1.08606e-05
0.000238189
-2.58827e-05
-9.49643e-06
0.000278231
-5.38568e-05
1.3815e-05
0.000314706
-8.60997e-05
4.96246e-05
0.000343533
-0.000120447
9.16202e-05
0.000363261
-0.000152407
0.00013268
0.00037363
-0.000174662
0.000164293
0.000376061
-0.00018738
0.000184948
-0.000175475
0.000180781
0.000458596
2.39907e-05
0.00045471
-2.19973e-05
0.000461228
-6.03751e-05
0.000470183
-9.5054e-05
0.000475893
-0.000126157
0.000474889
-0.000151404
0.000466296
-0.000166069
0.000450416
-0.0001715
-0.00015487
0.000587274
2.87469e-05
0.000581239
-1.59622e-05
0.000575347
-5.44827e-05
0.000567113
-8.68203e-05
0.000554081
-0.000113125
0.000534337
-0.00013166
0.000508233
-0.000139965
0.000476093
-0.00013936
-0.000122297
0.000601651
1.76437e-05
0.000602698
-1.70096e-05
0.000595012
-4.67964e-05
0.000579233
-7.10413e-05
0.000555119
-8.90111e-05
0.000522871
-9.94119e-05
0.000484654
-0.000101747
0.000442235
-9.69411e-05
-8.34407e-05
0.000547079
3.42516e-06
0.000547816
-1.77468e-05
0.000536381
-3.53617e-05
0.000513748
-4.8408e-05
0.000481213
-5.64766e-05
0.000441014
-5.92122e-05
0.000396741
-5.7475e-05
0.00035193
-5.21296e-05
-4.52885e-05
0.000422663
-3.45488e-06
0.000416098
-1.11817e-05
0.00039747
-1.67337e-05
0.000368946
-1.98839e-05
0.000333299
-2.08304e-05
0.000294041
-1.99533e-05
0.000254736
-1.81702e-05
0.000218658
-1.60522e-05
-1.54513e-05
0.000190788
0.000179607
0.000162873
0.000142989
0.000122159
0.000102205
8.40352e-05
6.7983e-05
-4.26277e-06
4.26277e-06
-1.34408e-05
9.17804e-06
-2.29014e-05
9.46063e-06
-2.98236e-05
6.9222e-06
-3.26721e-05
2.84843e-06
-3.07201e-05
-1.95201e-06
-2.38516e-05
-6.86846e-06
-1.31336e-05
-1.0718e-05
-1.47311e-05
-9.90586e-06
1.41686e-05
-2.65037e-05
2.57759e-05
-4.18309e-05
2.47878e-05
-5.12891e-05
1.63804e-05
-5.26396e-05
4.19897e-06
-4.5469e-05
-9.12266e-06
-3.06904e-05
-2.1647e-05
-1.01607e-05
-3.12477e-05
-3.7206e-05
-1.20609e-05
2.62295e-05
-3.08416e-05
4.45567e-05
-4.70203e-05
4.09665e-05
-5.55566e-05
2.49167e-05
-5.41669e-05
2.80925e-06
-4.28247e-05
-2.04648e-05
-2.29678e-05
-4.15039e-05
3.70601e-06
-5.79215e-05
-6.36012e-05
-1.21978e-05
3.84273e-05
-2.98442e-05
6.2203e-05
-4.39112e-05
5.50335e-05
-4.96986e-05
3.07041e-05
-4.51148e-05
-1.77452e-06
-3.05446e-05
-3.5035e-05
-7.75725e-06
-6.42913e-05
2.16364e-05
-8.73152e-05
-9.34231e-05
-1.06439e-05
4.90712e-05
-2.31164e-05
7.46755e-05
-3.10487e-05
6.29658e-05
-3.08326e-05
3.0488e-05
-2.1325e-05
-1.12821e-05
-2.85942e-06
-5.35006e-05
2.23648e-05
-8.95156e-05
5.19577e-05
-0.000116908
-0.000123815
-6.58454e-06
5.56558e-05
-7.63761e-06
7.57286e-05
-3.00055e-06
5.83288e-05
8.4323e-06
1.90552e-05
2.59232e-05
-2.87731e-05
4.87834e-05
-7.63608e-05
7.56119e-05
-0.000116344
0.000103678
-0.000144975
-0.000151253
4.96735e-06
5.06884e-05
2.34995e-05
5.71964e-05
4.85644e-05
3.32638e-05
7.57908e-05
-8.17124e-06
0.000103442
-5.64238e-05
0.000131004
-0.000103923
0.000157085
-0.000142425
0.000181108
-0.000168998
-0.000171615
3.98278e-05
8.75278e-05
0.000134607
0.00017606
0.000211256
0.000240013
0.00026188
0.000277831
)
;

boundaryField
{
    inlet
    {
        type            calculated;
        value           uniform -0.0002;
    }
    outlet
    {
        type            calculated;
        value           nonuniform List<scalar> 
15
(
1.59746e-06
1.23143e-05
3.01012e-05
5.14583e-05
8.23496e-05
0.000131116
0.000201471
0.000286997
0.000370755
0.000429811
0.00044352
0.000403379
0.000313777
0.000188821
5.25316e-05
)
;
    }
    fixedWalls
    {
        type            calculated;
        value           uniform 0;
    }
    frontAndBack
    {
        type            empty;
    }
}


// ************************************************************************* //
