/*--------------------------------*- C++ -*----------------------------------*\
| =========                 |                                                 |
| \\      /  F ield         | OpenFOAM Extend Project: Open source CFD        |
|  \\    /   O peration     | Version:  1.6-ext                               |
|   \\  /    A nd           | Web:      www.extend-project.de                 |
|    \\/     M anipulation  |                                                 |
\*---------------------------------------------------------------------------*/
FoamFile
{
    version     2.0;
    format      ascii;
    class       volVectorField;
    location    "3.5";
    object      U;
}
// * * * * * * * * * * * * * * * * * * * * * * * * * * * * * * * * * * * * * //

dimensions      [0 1 -1 0 0 0 0];

internalField   nonuniform List<vector> 
284
(
(0.163777 0.0266062 0)
(0.141785 0.0268359 0)
(0.0987344 0.0192559 0)
(0.0663046 0.0121944 0)
(0.0432308 0.0072299 0)
(0.0260789 0.00428861 0)
(0.0130095 0.00254072 0)
(0.00294375 0.000909245 0)
(-0.000701512 -0.00121367 0)
(0.200596 0.0434021 0)
(0.202053 0.0577414 0)
(0.17933 0.0535212 0)
(0.146533 0.0443593 0)
(0.111676 0.0350472 0)
(0.077882 0.027525 0)
(0.0466463 0.0214737 0)
(0.0189151 0.0145113 0)
(0.00306547 0.00352213 0)
(0.203091 0.02916 0)
(0.210998 0.0598747 0)
(0.204594 0.0726749 0)
(0.184233 0.0753331 0)
(0.153631 0.0722364 0)
(0.116553 0.0663717 0)
(0.0761189 0.0586243 0)
(0.0349646 0.0457741 0)
(0.0073838 0.0197558 0)
(0.20152 0.0224883 0)
(0.2076 0.0573372 0)
(0.207932 0.0812917 0)
(0.197532 0.0961444 0)
(0.175242 0.103719 0)
(0.141926 0.105732 0)
(0.0992067 0.102291 0)
(0.049321 0.08756 0)
(0.0117565 0.0447212 0)
(0.20056 0.0190804 0)
(0.203987 0.0541848 0)
(0.205967 0.0841958 0)
(0.201508 0.108829 0)
(0.186948 0.128067 0)
(0.160116 0.141862 0)
(0.119579 0.148486 0)
(0.0645934 0.137729 0)
(0.0174916 0.0790069 0)
(0.200229 0.0174277 0)
(0.202365 0.0515639 0)
(0.20497 0.0843294 0)
(0.204504 0.115696 0)
(0.196845 0.145413 0)
(0.177972 0.172675 0)
(0.143252 0.194454 0)
(0.0865471 0.195779 0)
(0.0277691 0.125213 0)
(0.200214 0.0163052 0)
(0.202437 0.0488329 0)
(0.206443 0.0821337 0)
(0.209993 0.117283 0)
(0.209614 0.154986 0)
(0.201064 0.19508 0)
(0.17826 0.23458 0)
(0.124537 0.254351 0)
(0.0486488 0.197911 0)
(0.200342 0.0149196 0)
(0.203615 0.0448392 0)
(0.210174 0.0767566 0)
(0.218679 0.112775 0)
(0.226705 0.155039 0)
(0.231117 0.205673 0)
(0.224172 0.270397 0)
(0.198147 0.340546 0)
(0.0603061 0.287985 0)
(0.200546 0.0127989 0)
(0.20549 0.0386181 0)
(0.215492 0.0671742 0)
(0.229877 0.100906 0)
(0.247774 0.142344 0)
(0.271916 0.193768 0)
(0.299882 0.261337 0)
(0.358768 0.345941 0)
(0.400037 0.430403 0)
(0.200841 0.00961311 0)
(0.207973 0.0295673 0)
(0.221712 0.053023 0)
(0.241232 0.0818693 0)
(0.266174 0.117525 0)
(0.300989 0.160164 0)
(0.343335 0.212513 0)
(0.4117 0.255772 0)
(0.493239 0.338365 0)
(0.201389 0.004969 0)
(0.21157 0.0172525 0)
(0.228973 0.0347211 0)
(0.251763 0.0578202 0)
(0.279634 0.0862831 0)
(0.315639 0.118155 0)
(0.360547 0.155998 0)
(0.418257 0.172795 0)
(0.499052 0.228146 0)
(0.202457 -0.00240472 0)
(0.216931 0.00104399 0)
(0.237098 0.0132508 0)
(0.26039 0.0316774 0)
(0.287405 0.0542437 0)
(0.320026 0.0778369 0)
(0.361722 0.104935 0)
(0.409391 0.11404 0)
(0.473554 0.141566 0)
(0.204215 -0.0137182 0)
(0.222711 -0.0177944 0)
(0.240737 -0.00796293 0)
(0.258821 0.00799738 0)
(0.280067 0.0261639 0)
(0.306238 0.0435489 0)
(0.341118 0.0615504 0)
(0.380608 0.0680345 0)
(0.429046 0.0788812 0)
(0.201754 -0.0351609 0)
(0.215104 -0.0367351 0)
(0.218446 -0.0228771 0)
(0.222412 -0.00746077 0)
(0.232424 0.00627191 0)
(0.249497 0.0172459 0)
(0.275322 0.0265948 0)
(0.306025 0.0297551 0)
(0.341915 0.0325244 0)
(0.16466 -0.0248786 0)
(0.151293 -0.0222894 0)
(0.124151 -0.012652 0)
(0.110781 -0.00499217 0)
(0.109585 0.000255702 0)
(0.116358 0.00359239 0)
(0.129487 0.00578452 0)
(0.145933 0.0061188 0)
(0.164348 0.00599089 0)
(0.356412 0.166912 0)
(0.18727 0.0431776 0)
(0.546006 0.176996 0)
(0.500744 0.0792842 0)
(0.577035 0.165982 0)
(0.597638 0.096401 0)
(0.543151 0.116712 0)
(0.583849 0.0717259 0)
(0.482132 0.0667552 0)
(0.521804 0.0398402 0)
(0.379261 0.026067 0)
(0.40793 0.0122336 0)
(0.18176 0.00349348 0)
(0.192784 -0.000644642 0)
(0.191236 -0.00792069 0)
(0.215784 -0.0205728 0)
(0.256532 -0.0426409 0)
(0.29723 -0.0744276 0)
(0.331183 -0.111085 0)
(0.35738 -0.146744 0)
(0.370414 -0.17326 0)
(0.380367 -0.19002 0)
(0.370065 -0.181854 0)
(0.468326 0.0137459 0)
(0.453275 -0.0282478 0)
(0.455398 -0.0626914 0)
(0.465749 -0.0958633 0)
(0.474551 -0.127878 0)
(0.479254 -0.155963 0)
(0.471439 -0.174081 0)
(0.464948 -0.183242 0)
(0.431453 -0.168584 0)
(0.59401 0.0355156 0)
(0.585183 -0.0138575 0)
(0.578265 -0.0549428 0)
(0.572374 -0.0904838 0)
(0.562313 -0.12057 0)
(0.547817 -0.143377 0)
(0.521325 -0.155373 0)
(0.49885 -0.158109 0)
(0.446914 -0.140819 0)
(0.600903 0.0254362 0)
(0.604972 -0.0154367 0)
(0.600968 -0.0503165 0)
(0.589727 -0.079547 0)
(0.569628 -0.1025 0)
(0.542298 -0.117449 0)
(0.503632 -0.122891 0)
(0.469008 -0.119808 0)
(0.407969 -0.103705 0)
(0.543867 0.00962784 0)
(0.550968 -0.0182794 0)
(0.545317 -0.0422697 0)
(0.528227 -0.0612991 0)
(0.500105 -0.0744501 0)
(0.463525 -0.0806662 0)
(0.418619 -0.0802313 0)
(0.377606 -0.0739637 0)
(0.31878 -0.0631379 0)
(0.422437 -0.00326183 0)
(0.422643 -0.0170057 0)
(0.409771 -0.0275479 0)
(0.385735 -0.0342852 0)
(0.352825 -0.0371639 0)
(0.314559 -0.0364728 0)
(0.273786 -0.0335306 0)
(0.23771 -0.0292877 0)
(0.193294 -0.0265687 0)
(0.194253 -0.00444744 0)
(0.186735 -0.00704109 0)
(0.17237 -0.00822088 0)
(0.153606 -0.00816706 0)
(0.132786 -0.00730162 0)
(0.112047 -0.00609488 0)
(0.0927639 -0.00512503 0)
(0.0764497 -0.0046463 0)
(0.0554165 -0.00546047 0)
(-0.00124664 0.001199 0)
(-0.00799462 0.00338895 0)
(-0.0185569 0.00382143 0)
(-0.0271736 0.00313485 0)
(-0.0322312 0.00178702 0)
(-0.0326699 -2.15881e-06 0)
(-0.0273769 -0.00204305 0)
(-0.0228362 -0.00371621 0)
(0.000628785 -0.00617078 0)
(-0.0036863 0.00807277 0)
(-0.0171759 0.0160171 0)
(-0.0353041 0.016103 0)
(-0.0484683 0.0114299 0)
(-0.0540271 0.00420689 0)
(-0.0508899 -0.00406048 0)
(-0.0381567 -0.0122224 0)
(-0.0263937 -0.0185848 0)
(0.00972024 -0.0240204 0)
(-0.00471509 0.0200032 0)
(-0.0205758 0.0349969 0)
(-0.0405871 0.0329604 0)
(-0.0537719 0.0210472 0)
(-0.0573671 0.00420909 0)
(-0.0506835 -0.0138441 0)
(-0.0329611 -0.0304645 0)
(-0.0160069 -0.0433923 0)
(0.025982 -0.0491972 0)
(-0.00498053 0.0325099 0)
(-0.020519 0.0538887 0)
(-0.0388675 0.0487068 0)
(-0.0495323 0.0285995 0)
(-0.0499953 0.00138539 0)
(-0.040078 -0.0270445 0)
(-0.0193218 -0.0523132 0)
(0.00220658 -0.0721198 0)
(0.0464851 -0.0780342 0)
(-0.00479858 0.0442165 0)
(-0.0172338 0.0698349 0)
(-0.0293161 0.060688 0)
(-0.0336105 0.0321815 0)
(-0.0284129 -0.005251 0)
(-0.0141119 -0.0437818 0)
(0.0088625 -0.0769395 0)
(0.0338319 -0.102439 0)
(0.0769641 -0.109144 0)
(-0.0037958 0.0534346 0)
(-0.00876603 0.0782083 0)
(-0.00721188 0.0639439 0)
(0.000758315 0.0275895 0)
(0.0156465 -0.0182753 0)
(0.0366994 -0.0645784 0)
(0.0620907 -0.103628 0)
(0.0884391 -0.132213 0)
(0.125893 -0.139208 0)
(0.00115146 0.0614809 0)
(0.0101515 0.0741305 0)
(0.0347443 0.0518994 0)
(0.0611472 0.00984915 0)
(0.0894186 -0.0404442 0)
(0.118249 -0.0898642 0)
(0.145245 -0.130555 0)
(0.170525 -0.159011 0)
(0.197155 -0.164048 0)
(0.0292871 0.0315811 0)
(0.0575532 0.0374134 0)
(0.110924 0.0130353 0)
(0.15598 -0.0271347 0)
(0.19507 -0.073956 0)
(0.228492 -0.119477 0)
(0.253049 -0.155475 0)
(0.273603 -0.179793 0)
(0.284276 -0.179455 0)
)
;

boundaryField
{
    inlet
    {
        type            fixedValue;
        value           uniform (0.2 0 0);
    }
    outlet
    {
        type            zeroGradient;
    }
    fixedWalls
    {
        type            fixedValue;
        value           uniform (0 0 0);
    }
    frontAndBack
    {
        type            empty;
    }
}


// ************************************************************************* //
