/*--------------------------------*- C++ -*----------------------------------*\
| =========                 |                                                 |
| \\      /  F ield         | OpenFOAM Extend Project: Open source CFD        |
|  \\    /   O peration     | Version:  1.6-ext                               |
|   \\  /    A nd           | Web:      www.extend-project.de                 |
|    \\/     M anipulation  |                                                 |
\*---------------------------------------------------------------------------*/
FoamFile
{
    version     2.0;
    format      ascii;
    class       volSymmTensorField;
    location    "1.05";
    object      DSigma;
}
// * * * * * * * * * * * * * * * * * * * * * * * * * * * * * * * * * * * * * //

dimensions      [1 -1 -2 0 0 0 0];

internalField   nonuniform List<symmTensor> 
328
(
(0.0604597 0.012252 -6.79338e-24 0.0215145 2.74298e-20 0.0327896)
(0.0526408 0.00642902 0 0.0295971 0 0.0328952)
(0.0535995 -0.00424616 0 0.0300668 0 0.0334665)
(0.0625268 -0.0115866 1.30225e-24 0.0222135 -3.17695e-21 0.0338961)
(0.0560877 0.00863407 8.34371e-24 0.01289 -2.26829e-20 0.0275911)
(0.0527447 0.00549721 8.61759e-24 0.0207116 5.00575e-24 0.0293825)
(0.0537155 -0.00339823 -9.27704e-26 0.0209368 -9.70492e-27 0.0298609)
(0.0584276 -0.00788921 -2.41514e-23 0.0133817 3.27047e-21 0.0287237)
(0.054742 0.00561107 -1.71024e-24 0.00777229 7.76264e-21 0.0250057)
(0.0555799 0.00446627 -7.94861e-24 0.0155675 -4.65834e-24 0.028459)
(0.0566509 -0.00242394 0 0.0156699 0 0.0289283)
(0.0575152 -0.00481308 1.64601e-23 0.00820804 1.64184e-20 0.0262893)
(0.0531397 0.00342587 3.0359e-24 0.00420706 -1.28043e-20 0.0229387)
(0.056295 0.00338866 -1.9531e-24 0.0107838 -1.54298e-25 0.0268315)
(0.0574189 -0.0013855 3.99264e-23 0.0107752 -1.02958e-23 0.0272776)
(0.056325 -0.00260071 -4.23469e-23 0.00463299 -1.9606e-20 0.0243832)
(0.0523546 0.00196815 -6.03691e-24 0.00210955 1.19625e-20 0.0217856)
(0.0571325 0.0024454 2.72298e-24 0.00753308 1.94952e-24 0.0258662)
(0.0583305 -0.000469113 -3.54059e-23 0.00745053 9.74358e-24 0.0263124)
(0.0559963 -0.00113368 1.56174e-22 0.00257339 -1.26547e-20 0.0234279)
(0.0518058 0.00103318 1.31951e-22 0.000840644 -7.03744e-21 0.0210586)
(0.0573027 0.00168891 -1.21475e-22 0.00501535 -4.03434e-23 0.0249272)
(0.0585753 0.000263764 0 0.00486909 0 0.0253777)
(0.0559223 -0.000200506 -2.2509e-22 0.00136263 3.64894e-22 0.022914)
(0.0515576 0.00047567 -1.06853e-22 0.000156054 -1.98856e-20 0.0206855)
(0.0573064 0.00114611 1.0709e-22 0.00330002 3.38997e-23 0.0242426)
(0.0586678 0.000782818 1.61192e-23 0.00310093 -6.37647e-24 0.0247075)
(0.0561757 0.000349032 9.53135e-23 0.00074918 2.36035e-20 0.02277)
(0.051449 0.00017293 -7.48134e-24 -0.000187777 1.6079e-20 0.0205045)
(0.0570714 0.000794459 1.52278e-22 0.00211749 3.53578e-23 0.0236755)
(0.0585325 0.00110759 1.83716e-23 0.00186957 -6.07867e-24 0.0241608)
(0.0565919 0.000640478 -9.94199e-24 0.000482071 -1.78529e-20 0.0228296)
(0.0514284 3.86975e-05 6.91906e-26 -0.000323459 -1.27632e-22 0.020442)
(0.0567461 0.000599816 -1.41984e-22 0.00137453 -3.29676e-23 0.0232483)
(0.05832 0.00127079 0 0.00108078 0 0.0237603)
(0.05712 0.000761523 -2.44376e-24 0.000425982 4.4821e-21 0.0230184)
(0.0514263 7.40951e-06 -3.72594e-22 -0.000347782 6.48362e-21 0.0204314)
(0.05636 0.00051816 0 0.000934716 0 0.0229179)
(0.0580585 0.00131537 0 0.000596309 0 0.0234619)
(0.0576893 0.000778311 4.37917e-22 0.000482517 7.4872e-21 0.0232687)
(0.051404 3.3395e-05 7.80523e-22 -0.000317811 5.18046e-21 0.0204345)
(0.0559686 0.00050897 -4.63417e-23 0.000710571 -1.25879e-23 0.0226717)
(0.0578029 0.00128114 -4.11072e-22 0.000328181 3.53586e-23 0.0232524)
(0.0582604 0.000736561 -4.11691e-22 0.000594122 -1.10266e-20 0.0235418)
(0.0513327 8.47883e-05 -4.52578e-22 -0.000269908 -1.54836e-20 0.0204251)
(0.0555934 0.000537632 0 0.000623543 0 0.0224868)
(0.0575735 0.00120206 8.22827e-22 0.000197394 -6.77247e-23 0.0231083)
(0.0588028 0.000667922 4.57679e-22 0.00072429 -3.92993e-21 0.0238108)
(0.0511993 0.000141217 -1.0793e-22 -0.000224298 5.82228e-21 0.02039)
(0.0552508 0.000578541 0 0.000618834 0 0.0223478)
(0.0573851 0.00110302 5.61123e-23 0.000149023 -2.88825e-24 0.0230136)
(0.0593006 0.000592373 -6.24497e-23 0.000852766 6.67018e-21 0.0240614)
(0.0509999 0.000190676 -3.07331e-24 -0.000191354 3.06799e-21 0.0203234)
(0.0549436 0.000614587 1.13786e-22 0.000656304 5.41878e-25 0.02224)
(0.0572388 0.00100036 -5.48235e-22 0.000142917 3.23671e-23 0.0229527)
(0.0597466 0.000521448 -4.49088e-22 0.000969081 3.29052e-22 0.0242863)
(0.0507385 0.00022737 -1.80312e-24 -0.000174662 1.62537e-21 0.0202255)
(0.0546692 0.000636115 4.95492e-22 0.000710489 2.75368e-23 0.0221519)
(0.05713 0.000902775 0 0.000153745 0 0.0229135)
(0.0601397 0.0004604 -5.3184e-22 0.00106936 1.14215e-21 0.0244836)
(0.0504235 0.000249612 7.28482e-24 -0.000173743 -5.95838e-21 0.0200999)
(0.0544199 0.000638985 -4.61996e-22 0.000766301 -2.56753e-23 0.0220745)
(0.0570488 0.000813328 2.57573e-22 0.000166677 -3.71585e-23 0.0228862)
(0.0604818 0.000410335 1.35396e-21 0.00115355 -8.57928e-21 0.0246541)
(0.0500659 0.000258182 -6.29191e-24 -0.000185814 4.68973e-21 0.019952)
(0.0541868 0.000622674 0 0.000816393 0 0.0220013)
(0.0569832 0.000731311 -1.10763e-21 0.000174782 1.03656e-22 0.0228632)
(0.0607748 0.000369865 -1.31216e-21 0.00122354 3.05287e-21 0.0247993)
(0.0496773 0.000255014 3.05851e-24 -0.000207108 -2.08559e-21 0.0197881)
(0.0539606 0.000588581 5.33493e-22 0.000858205 -2.64843e-23 0.0219275)
(0.0569209 0.000653994 -9.01385e-23 0.000176081 -3.24358e-23 0.0228388)
(0.0610194 0.000336429 -5.43579e-22 0.00128185 -7.54105e-21 0.0249205)
(0.0492693 0.000242318 5.32027e-22 -0.000233667 -3.56013e-21 0.0196143)
(0.0537333 0.000538809 -5.26373e-22 0.000891782 -1.10137e-23 0.02185)
(0.0568497 0.000577934 -1.11189e-22 0.000171398 2.89971e-23 0.0228084)
(0.0612128 0.000307204 -6.15647e-22 0.00133071 1.34176e-20 0.0250174)
(0.0488533 0.000222051 5.31889e-22 -0.000261823 4.18524e-21 0.0194366)
(0.0534987 0.000475359 2.51055e-23 0.000918229 -4.49701e-23 0.0217668)
(0.0567587 0.000499805 5.33944e-22 0.000162882 -8.14047e-23 0.0227686)
(0.0613486 0.000279655 -1.25773e-21 0.00137167 -2.61283e-21 0.0250881)
(0.0484405 0.000195745 1.12545e-21 -0.000288203 -1.82842e-21 0.0192609)
(0.0532519 0.00039993 0 0.000938598 0 0.0216762)
(0.0566368 0.000416989 0 0.000152763 0 0.0227158)
(0.0614156 0.000251813 2.43414e-21 0.00140507 2.34869e-21 0.0251283)
(0.0480415 0.000164411 -3.22304e-21 -0.000310031 -5.37738e-21 0.0190926)
(0.0529896 0.000313492 1.12288e-21 0.000953726 -8.78756e-23 0.0215773)
(0.0564746 0.000327366 -1.26521e-21 0.000143791 2.31718e-22 0.0226474)
(0.0614008 0.000222233 1.31182e-21 0.00143121 7.07948e-21 0.0251328)
(0.0476574 0.000127196 -9.88346e-22 -0.000324465 -1.2749e-21 0.0189332)
(0.0526987 0.000213291 1.067e-21 0.000963678 -1.25681e-22 0.0214649)
(0.0562508 0.000226199 -8.38836e-23 0.000136257 6.41388e-23 0.0225548)
(0.0612749 0.000188809 1.30432e-21 0.0014474 -1.86357e-21 0.0250889)
(0.0473163 8.68737e-05 -2.15948e-21 -0.000327995 -9.70512e-21 0.0187953)
(0.0523876 0.000105633 0 0.000967705 0 0.0213421)
(0.0559618 0.000118678 0 0.000134862 0 0.0224387)
(0.061017 0.000153261 7.30034e-23 0.00145327 7.93011e-21 0.0249881)
(0.04705 4.58851e-05 2.50861e-21 -0.000318658 5.40876e-21 0.0186926)
(0.0520765 -3.23406e-06 -5.1958e-21 0.000965028 1.16346e-21 0.0212166)
(0.0556189 1.03109e-05 2.63735e-21 0.000139175 -6.4402e-22 0.0223032)
(0.060629 0.000116975 -2.83471e-21 0.0014459 6.60826e-21 0.02483)
(0.0468579 5.21102e-06 -8.65562e-24 -0.000296229 6.86646e-21 0.0186247)
(0.0517654 -0.000110961 -1.82718e-22 0.000956252 1.50232e-22 0.0210887)
(0.0552235 -9.69408e-05 5.89999e-21 0.000149828 -1.74387e-21 0.0221493)
(0.0601139 8.05394e-05 2.20784e-22 0.0014258 -9.00424e-21 0.0246159)
(0.0467381 -3.42612e-05 -2.7012e-21 -0.00026082 -8.27957e-21 0.0185909)
(0.0514536 -0.000215537 2.89961e-21 0.000941552 -8.24949e-22 0.0209581)
(0.0547759 -0.000201202 -3.28589e-21 0.000166559 1.14437e-21 0.021977)
(0.0594734 4.47081e-05 3.63514e-21 0.00139302 1.43094e-20 0.0243466)
(0.0466869 -7.1654e-05 -2.87363e-21 -0.000212875 -8.80743e-21 0.0185896)
(0.0511403 -0.000314833 0 0.000921275 0 0.0208246)
(0.0542775 -0.000300411 1.02742e-20 0.000189211 -3.80068e-21 0.0217867)
(0.0587119 1.02671e-05 -3.26191e-21 0.0013481 7.97487e-22 0.024024)
(0.0466987 -0.000106141 3.31042e-21 -0.000153131 -7.33915e-21 0.0186182)
(0.0508241 -0.000406829 -3.29192e-21 0.000895793 1.25167e-21 0.020688)
(0.05373 -0.000392572 -3.49952e-21 0.000217429 1.38223e-21 0.021579)
(0.0578353 -2.19913e-05 -7.41553e-21 0.00129176 3.95571e-21 0.0236508)
(0.0467662 -0.000136957 3.47312e-21 -8.252e-05 -4.67356e-21 0.0186735)
(0.0505034 -0.000489614 3.70376e-21 0.000865611 -1.602e-21 0.0205476)
(0.0531355 -0.00047578 5.33066e-24 0.000250782 4.45174e-23 0.0213545)
(0.0568515 -5.13117e-05 8.04265e-21 0.00122498 4.02252e-21 0.0232306)
(0.0468805 -0.000163403 3.62068e-21 -2.2197e-06 5.05445e-21 0.0187513)
(0.050176 -0.000561436 -3.67246e-21 0.00083131 1.71022e-21 0.0204029)
(0.0524967 -0.000548279 -1.36333e-23 0.00028873 -5.33907e-23 0.0211142)
(0.0557699 -7.69845e-05 -3.30101e-23 0.00114895 7.89819e-21 0.0227675)
(0.0470313 -0.000184874 -3.59041e-21 8.64117e-05 -4.89585e-21 0.0188471)
(0.0498393 -0.00062075 4.10466e-21 0.000793565 -2.08357e-21 0.0202531)
(0.0518165 -0.000608511 -3.90178e-21 0.000330652 1.83291e-21 0.0208589)
(0.0546014 -9.83695e-05 2.64472e-23 0.00106506 -1.34883e-20 0.0222666)
(0.0472068 -0.000200867 4.04362e-21 0.000181835 -6.87718e-23 0.0189555)
(0.0494905 -0.000666254 -8.35362e-21 0.00075312 4.55451e-21 0.0200974)
(0.0510984 -0.000655157 -4.57549e-21 0.00037585 2.40706e-21 0.0205897)
(0.0533581 -0.000114912 -2.48681e-23 0.000974852 1.33321e-21 0.0217332)
(0.0473946 -0.000211002 8.21526e-21 0.000282374 -4.44171e-21 0.0190708)
(0.0491265 -0.000696933 -4.2404e-21 0.000710776 2.47964e-21 0.0199349)
(0.050346 -0.000687172 0 0.000423565 0 0.0203078)
(0.0520533 -0.000126158 -5.00145e-21 0.000880034 -5.68739e-22 0.0211733)
(0.0475812 -0.000215028 4.37989e-21 0.00038624 -3.63529e-23 0.019187)
(0.0487442 -0.000712089 -4.65551e-21 0.000667375 2.9489e-21 0.0197646)
(0.049563 -0.000703828 0 0.000472989 0 0.0200144)
(0.050701 -0.000131772 -5.15943e-21 0.000782404 -1.21084e-20 0.0205933)
(0.0477527 -0.000212837 -8.95501e-21 0.000491578 2.65361e-21 0.0192977)
(0.04834 -0.000711363 4.65551e-21 0.00062378 -2.94891e-21 0.0195855)
(0.0487536 -0.000704728 1.02528e-20 0.000523285 -6.61912e-21 0.0197107)
(0.0493155 -0.000131544 -5.11107e-21 0.000683827 -5.64015e-21 0.0199997)
(0.0478952 -0.000204468 4.56615e-21 0.000596507 -2.76458e-22 0.0193967)
(0.0479106 -0.000694754 -1.01019e-20 0.00058086 6.92441e-21 0.0193966)
(0.0479216 -0.000689829 5.25768e-21 0.000573603 -3.69827e-21 0.0193981)
(0.0479116 -0.000125401 -2.46926e-24 0.00058619 6.29922e-22 0.0193991)
(0.0479948 -0.000190103 4.9891e-21 0.00069916 -3.01818e-21 0.0194776)
(0.0474526 -0.000662615 4.00279e-23 0.00053947 7.75217e-23 0.0191968)
(0.0470713 -0.000659442 -1.08146e-20 0.000623098 7.43992e-21 0.0190777)
(0.0465038 -0.000113407 5.54277e-21 0.000491359 -9.57688e-21 0.0187981)
(0.0480382 -0.00017006 1.55033e-23 0.000797727 -3.79676e-21 0.0195344)
(0.0469628 -0.000615643 0 0.000500429 0 0.0189853)
(0.0462063 -0.000614218 0 0.000670946 0 0.0187509)
(0.0451062 -9.57596e-05 5.93272e-21 0.000401138 3.61237e-21 0.0182029)
(0.0480127 -0.000144789 5.30786e-21 0.000890498 1.57908e-22 0.0195613)
(0.0464383 -0.000554858 0 0.000464509 0 0.0187611)
(0.0453305 -0.000555131 0 0.000716363 0 0.0184188)
(0.0437319 -7.27861e-05 -5.8623e-24 0.000317227 1.41237e-21 0.0176197)
(0.0479068 -0.000114852 -1.08117e-20 0.000975896 2.37424e-21 0.0195531)
(0.0458762 -0.000481567 0 0.000432416 0 0.0185235)
(0.0444474 -0.000483446 0 0.000758621 0 0.0180824)
(0.0423934 -4.49308e-05 6.29362e-21 0.000241186 -2.7841e-21 0.0170538)
(0.0477102 -8.09081e-05 5.74538e-21 0.00105251 -7.92995e-21 0.0195051)
(0.0452742 -0.000397333 -5.97336e-21 0.000404774 4.75886e-21 0.0182716)
(0.04356 -0.000400686 5.97343e-21 0.000797066 -4.75892e-21 0.0177428)
(0.0411016 -1.27427e-05 2.82718e-24 0.000174408 -6.60423e-22 0.0165104)
(0.047414 -4.36981e-05 -1.15528e-20 0.00111911 3.64865e-21 0.0194132)
(0.0446303 -0.000303932 -6.11474e-21 0.000382116 5.0682e-21 0.0180049)
(0.0426712 -0.000308587 1.27249e-20 0.000831123 -1.02898e-20 0.0174009)
(0.0398662 2.31385e-05 1.85582e-22 0.000118089 1.83543e-21 0.0159937)
(0.0470111 -4.02685e-06 -4.25992e-22 0.0011747 3.29113e-21 0.0192743)
(0.0439428 -0.000203314 1.85164e-20 0.000364871 -1.54377e-20 0.0177231)
(0.0417834 -0.000209067 -6.15191e-21 0.000860317 5.01175e-21 0.0170575)
(0.0386951 6.19965e-05 1.57498e-22 7.32103e-05 -1.38478e-21 0.0155073)
(0.0464962 3.72536e-05 6.06377e-21 0.00121849 -7.60928e-22 0.0190859)
(0.0432108 -9.75624e-05 -6.26336e-21 0.000353359 5.35503e-21 0.0174257)
(0.0408984 -0.000104182 1.58889e-22 0.000884274 -2.17437e-22 0.0167131)
(0.0375944 0.000103053 -6.69865e-21 4.05223e-05 -8.02725e-22 0.015054)
(0.0458656 7.92591e-05 6.22806e-21 0.00124994 -5.4544e-21 0.0188462)
(0.0424336 1.11412e-05 6.43669e-21 0.000347783 -5.56946e-21 0.0171125)
(0.0400177 3.90854e-06 -6.69094e-21 0.000902736 5.57271e-21 0.0163682)
(0.0365685 0.000145481 1.38257e-20 2.0531e-05 -2.86444e-21 0.0146356)
(0.0451179 0.000121089 1.84314e-22 0.00126876 1.92941e-22 0.0185547)
(0.0416111 0.000120555 -6.60704e-21 0.000348224 5.77146e-21 0.0167837)
(0.0391422 0.000112977 -1.38159e-20 0.000915558 1.18048e-20 0.0160231)
(0.0356198 0.000188419 -2.28862e-23 1.34905e-05 -4.30858e-22 0.0142533)
(0.0442535 0.000161839 6.56605e-21 0.00127492 -7.81601e-22 0.0182114)
(0.0407437 0.000228415 0 0.000354645 0 0.0164394)
(0.0382723 0.000220767 0 0.000922717 0 0.015678)
(0.0347486 0.000230984 7.28636e-21 1.93971e-05 6.16637e-22 0.0139072)
(0.0432749 0.000200621 -8.15387e-24 0.00126865 1.7675e-21 0.0178174)
(0.0398326 0.000332471 0 0.000366884 0 0.0160798)
(0.0374081 0.000325031 1.45463e-20 0.000924309 -1.27006e-20 0.015333)
(0.0339534 0.000272289 -7.27722e-21 3.79873e-05 5.81862e-21 0.0135965)
(0.0421863 0.000236577 1.41672e-20 0.00125044 -7.05958e-21 0.0173747)
(0.038879 0.000430536 -7.10213e-21 0.000384664 6.27384e-21 0.0157055)
(0.0365488 0.000423573 -8.53358e-24 0.000920549 -3.27677e-23 0.0149878)
(0.0332306 0.000311457 3.41725e-24 6.87394e-05 -7.36186e-22 0.0133197)
(0.0409942 0.000268899 1.56084e-22 0.00122102 -1.1909e-22 0.0168861)
(0.037885 0.000520526 -1.45056e-20 0.000407598 1.28832e-20 0.015317)
(0.0356935 0.000514298 0 0.000911765 0 0.0146421)
(0.0325748 0.000347642 -2.99366e-24 0.00011088 -1.0343e-21 0.0130743)
(0.0397066 0.000296848 7.38692e-21 0.00118138 -3.13774e-21 0.0163552)
(0.036853 0.000600519 -2.2493e-20 0.000435195 1.99942e-20 0.0149153)
(0.0348406 0.000595264 7.54454e-21 0.000898392 -6.68947e-21 0.0142956)
(0.0319789 0.000380053 1.26074e-22 0.000163397 -2.52416e-22 0.0128569)
(0.0383333 0.00031978 -1.39733e-22 0.00113273 1.89816e-21 0.0157864)
(0.035786 0.000668809 7.40985e-21 0.000466871 -6.60182e-21 0.0145012)
(0.0339881 0.000664738 7.81204e-21 0.000880961 -6.90247e-21 0.0139476)
(0.0314339 0.00040797 2.38916e-22 0.000225055 1.76354e-21 0.0126636)
(0.0368854 0.000337161 3.66782e-24 0.00107647 -7.72171e-22 0.0151848)
(0.0346872 0.00072396 1.55004e-20 0.000501969 -1.37713e-20 0.0140756)
(0.0331339 0.000721254 -1.57536e-20 0.000860089 1.39567e-20 0.0135976)
(0.0309297 0.000430776 9.90131e-25 0.000294428 -6.14858e-23 0.0124897)
(0.0353753 0.000348596 -1.56376e-20 0.00101417 7.49491e-21 0.0145558)
(0.03356 0.000764862 0 0.000539767 0 0.0136399)
(0.0322751 0.000763665 8.06581e-21 0.00083646 -7.14182e-21 0.0132446)
(0.0304549 0.000447976 1.63211e-20 0.000369927 -7.48185e-21 0.0123299)
(0.0338161 0.000353836 1.56364e-20 0.000947523 -7.26553e-21 0.0139054)
(0.0324084 0.000790773 1.61533e-20 0.000579505 -1.43289e-20 0.0131951)
(0.0314092 0.00079119 8.30876e-21 0.000810811 -7.34451e-21 0.012888)
(0.0299972 0.000459215 1.67642e-20 0.000449847 -5.98441e-21 0.0121788)
(0.0322215 0.000352798 1.61324e-20 0.000878296 -7.15221e-21 0.0132399)
(0.0312361 0.000801349 -4.87061e-20 0.000620397 4.31875e-20 0.0127426)
(0.0305331 0.000803445 1.11442e-23 0.000783911 -2.15644e-23 0.0125268)
(0.029544 0.000464294 2.21688e-22 0.000532412 1.4778e-21 0.0120305)
(0.0306054 0.000345562 1.63715e-20 0.000808279 -7.11157e-21 0.0125655)
(0.0300472 0.000796657 -1.64074e-20 0.000661657 1.45512e-20 0.0122835)
(0.0296439 0.000800454 -1.68401e-20 0.000756543 1.48703e-20 0.0121602)
(0.0290823 0.000463178 -1.68065e-20 0.000615829 8.84511e-21 0.0118792)
(0.0289813 0.000332367 -2.21923e-22 0.000739234 2.63996e-21 0.0118882)
(0.0288455 0.000777162 -4.31356e-24 0.000702516 2.46383e-23 0.0118192)
(0.0287386 0.00078264 -7.98345e-24 0.000729481 2.20094e-23 0.0117872)
(0.0285996 0.000455992 3.4212e-20 0.000698341 -1.38143e-20 0.0117192)
(0.0273624 0.000313598 4.22797e-24 0.00067284 -2.39082e-21 0.0112141)
(0.0276348 0.000743698 1.68524e-20 0.000742239 -1.49169e-20 0.0113508)
(0.0278145 0.000750796 -1.7273e-20 0.000703477 1.52211e-20 0.0114072)
(0.0280838 0.00044301 1.72413e-20 0.000778275 -8.64205e-21 0.0115448)
(0.0257607 0.000289762 -1.70134e-20 0.000610655 7.42357e-21 0.0105486)
(0.0264187 0.000697411 0 0.000780145 0 0.0108795)
(0.0268692 0.000706032 1.74858e-20 0.000679236 -1.54391e-20 0.0110194)
(0.0275237 0.000424635 3.52983e-20 0.000854088 -1.47155e-20 0.0113511)
(0.0241875 0.000261464 1.70136e-20 0.000554078 -7.47388e-21 0.00989663)
(0.0252003 0.0006397 0 0.000815619 0 0.0104064)
(0.0259003 0.000649711 2.00574e-22 0.000657407 -1.99374e-22 0.0106231)
(0.0269094 0.000401377 -1.76546e-20 0.000924398 7.51456e-21 0.0111335)
(0.0226524 0.000229374 -1.73762e-20 0.000504328 7.70507e-21 0.00926268)
(0.0239826 0.000572146 0 0.000848124 0 0.0099323)
(0.024906 0.000583385 -1.76864e-20 0.000638568 1.56385e-20 0.0102178)
(0.0262322 0.000373825 1.80633e-20 0.000988008 -7.99306e-21 0.0108881)
(0.0211637 0.000194206 1.75816e-20 0.000462431 -9.74542e-21 0.00865045)
(0.0227683 0.000496456 0 0.00087721 0 0.00945819)
(0.0238847 0.000508732 0 0.000623215 0 0.00980318)
(0.0254847 0.000342621 -3.63344e-20 0.00104392 1.6203e-20 0.0106115)
(0.0197283 0.000156698 -1.78055e-20 0.000429222 1.1404e-20 0.00806302)
(0.0215594 0.000414412 1.78265e-20 0.00090252 -1.59526e-20 0.00898476)
(0.0228355 0.000427516 -1.8032e-20 0.000611754 1.61254e-20 0.0093789)
(0.0246614 0.000308447 -1.84456e-20 0.00109133 8.09994e-21 0.0103011)
(0.0183515 0.000117604 1.78984e-20 0.00040534 -8.08782e-21 0.00750274)
(0.0203577 0.000327856 1.81965e-20 0.000923799 -1.63708e-20 0.00851261)
(0.0217575 0.000341562 0 0.000604498 0 0.00894481)
(0.0237579 0.000272015 3.70724e-20 0.00112962 -1.6393e-20 0.00995502)
(0.0170369 7.76939e-05 -1.79682e-20 0.000391235 8.35015e-21 0.00697126)
(0.0191647 0.000238688 -3.64375e-20 0.000940902 3.31636e-20 0.00804224)
(0.0206506 0.000252761 -5.43997e-23 0.000601659 -8.19256e-23 0.0085009)
(0.0227719 0.000234067 1.88033e-20 0.00115841 -8.89944e-21 0.00957211)
(0.0157866 3.77608e-05 9.01084e-23 0.000387164 -1.55123e-21 0.00646951)
(0.0179812 0.000148884 1.8292e-20 0.000953792 -1.67163e-20 0.007574)
(0.0195149 0.000163083 -1.85699e-20 0.000603343 1.68097e-20 0.0080473)
(0.0217023 0.000195383 3.79905e-20 0.00117747 -1.80638e-20 0.0091519)
(0.0146009 -1.36967e-06 -1.82032e-20 0.000393181 8.55316e-21 0.00599764)
(0.0168078 6.05159e-05 0 0.000962554 0 0.00710813)
(0.0183511 7.45993e-05 1.88631e-20 0.000609552 -1.7384e-20 0.00758426)
(0.02055 0.000156791 -1.89642e-20 0.00118681 8.51955e-21 0.00869474)
(0.0134783 -3.88358e-05 1.82031e-20 0.00040912 -8.53578e-21 0.00555496)
(0.0156444 -2.42383e-05 -1.86766e-20 0.000967397 1.76208e-20 0.0066447)
(0.0171603 -1.05029e-05 -1.88631e-20 0.000620176 1.7384e-20 0.00711219)
(0.0193178 0.000119171 -2.7741e-24 0.00118667 5.664e-22 0.00820179)
(0.0124153 -7.37441e-05 7.84009e-26 0.000434568 -1.6002e-23 0.00513994)
(0.0144905 -0.000103106 1.86766e-20 0.000968653 -1.76208e-20 0.00618366)
(0.0159442 -8.9938e-05 0 0.000634995 0 0.00663168)
(0.0180102 8.34549e-05 -1.95004e-20 0.00117755 9.69131e-21 0.0076751)
(0.0114064 -0.000105188 1.84912e-20 0.000468861 -9.07016e-21 0.00475011)
(0.0133452 -0.000173764 -1.90089e-20 0.000966802 1.81573e-20 0.00572479)
(0.014705 -0.00016136 1.91214e-20 0.000653692 -1.80202e-20 0.00614346)
(0.016634 5.06046e-05 -1.94116e-20 0.00116024 9.74903e-21 0.00711768)
(0.0104441 -0.000132277 -3.70624e-20 0.000511039 1.83343e-20 0.00438207)
(0.0122068 -0.000233912 0 0.00096242 0 0.00526769)
(0.0134453 -0.000222435 1.92326e-20 0.000675816 -1.83643e-20 0.00564843)
(0.0151977 2.15889e-05 -3.9167e-20 0.0011358 1.8473e-20 0.00653342)
(0.00951898 -0.000154178 3.72151e-20 0.000559944 -1.87218e-20 0.00403157)
(0.0110734 -0.000281371 1.90639e-20 0.000956319 -1.90373e-20 0.0048119)
(0.0121685 -0.000270923 1.94296e-20 0.000700925 -1.90864e-20 0.00514775)
(0.0137124 -2.65091e-06 3.93836e-20 0.00110568 -1.88348e-20 0.00592725)
(0.00861934 -0.000170158 2.27843e-22 0.000614036 -1.01527e-21 0.00369335)
(0.00994221 -0.000314174 -5.71172e-20 0.000949227 5.76651e-20 0.00435657)
(0.0108779 -0.000304772 -1.94296e-20 0.000728282 1.90864e-20 0.00464248)
(0.0121905 -2.12293e-05 -3.95771e-20 0.00107147 1.92283e-20 0.00530478)
(0.0077328 -0.000179665 6.78342e-26 0.000671936 -1.38285e-23 0.0033619)
(0.00881081 -0.000330741 1.91387e-20 0.000942629 -1.94207e-20 0.00390138)
(0.00957846 -0.000322173 0 0.000757752 0 0.00413449)
(0.010647 -3.33417e-05 3.97468e-20 0.00103553 -1.95895e-20 0.00467299)
(0.00684378 -0.00018228 1.85893e-20 0.000731457 -9.16791e-21 0.00303009)
(0.00767377 -0.000329825 1.65716e-22 0.00093673 1.83662e-22 0.0034442)
(0.00827226 -0.000321688 -1.94276e-20 0.000787675 2.00264e-20 0.00362397)
(0.00909612 -3.82833e-05 -3.98927e-20 0.000999546 1.99686e-20 0.00403827)
(0.00594129 -0.000178131 1.37719e-26 0.000792366 -2.80716e-24 0.00269346)
(0.00653229 -0.000311006 1.92619e-20 0.000935744 -2.02101e-20 0.00298721)
(0.00696872 -0.000302036 -1.9869e-20 0.000820444 2.04514e-20 0.00311567)
(0.00755943 -3.52249e-05 5.98309e-20 0.000968041 -3.00316e-20 0.00341099)
(0.00500025 -0.000166576 -7.97422e-26 0.000850033 1.62542e-23 0.00234011)
(0.005368 -0.000273424 0 0.000933667 0 0.00252067)
(0.00565723 -0.000263279 -1.97424e-20 0.000847809 2.10323e-20 0.00260201)
(0.00604413 -2.43948e-05 4.56136e-23 0.00094086 -6.45494e-22 0.002794)
(0.00403428 -0.000148229 -1.91135e-20 0.000910888 1.0552e-20 0.00197807)
(0.00421432 -0.000217766 3.87294e-20 0.000948177 -4.24367e-20 0.002065)
(0.00437995 -0.000205543 1.78805e-22 0.000885787 1.92364e-22 0.00210629)
(0.00459977 -4.95916e-06 -2.00785e-20 0.000930252 1.04935e-20 0.00221201)
(0.00294718 -0.000110014 -2.14203e-26 0.000940443 4.36404e-24 0.00155505)
(0.00297259 -0.000137308 0 0.000914078 0 0.00155467)
(0.0030402 -0.000136369 0 0.000865734 0 0.00156237)
(0.00315542 7.96869e-06 -2.01315e-20 0.000907259 1.08586e-20 0.00162507)
(0.00193434 -5.19268e-05 -9.90447e-21 0.000938907 1.07903e-20 0.0011493)
(0.0019351 -4.04781e-05 -2.72289e-23 0.000912244 -1.33752e-25 0.00113894)
(0.00195009 -4.98407e-05 -1.0449e-20 0.000865625 2.22679e-20 0.00112629)
(0.00196572 3.30169e-06 1.97962e-20 0.000874686 -2.21542e-20 0.00113616)
)
;

boundaryField
{
    plateFix
    {
        type            calculated;
        value           nonuniform List<symmTensor> 4((0.0611081 0.0156071 -2.78168e-24 0.0219481 2.74312e-20 0.0332225) (0.0494943 0.00668026 1.0451e-28 0.0274995 -5.007e-29 0.0307975) (0.0503584 -0.00441828 2.15301e-28 0.0279061 6.86021e-29 0.0313058) (0.0629474 -0.0150066 1.12264e-24 0.0224916 -3.17974e-21 0.0341756));
    }
    plate
    {
        type            calculated;
        value           nonuniform List<symmTensor> 
168
(
(0.0464803 1.21478e-05 -1.34172e-23 0.000530296 5.41749e-20 0.0188042)
(0.0481215 2.01172e-05 2.32367e-24 0.000629368 -5.6688e-21 0.0195004)
(0.0478541 1.19984e-05 1.54517e-23 0.000529856 -4.49678e-20 0.0193536)
(0.0499168 1.84851e-05 -2.5141e-23 0.000629298 6.10492e-21 0.0202185)
(0.0499174 1.19388e-05 -3.34431e-24 0.00052922 1.51795e-20 0.0201787)
(0.0524577 1.68632e-05 1.13225e-23 0.000629111 3.33018e-20 0.0212347)
(0.05069 1.24648e-05 6.1589e-24 0.000528427 -2.59759e-20 0.0204874)
(0.053653 1.61908e-05 -3.7024e-23 0.000628848 -3.97087e-20 0.0217127)
(0.0513017 1.42937e-05 -9.44679e-24 0.000527606 2.42722e-20 0.0207317)
(0.0546986 1.75891e-05 1.6028e-22 0.000628636 -2.58139e-20 0.0221309)
(0.0515977 1.67385e-05 1.34297e-22 0.00052678 -1.41365e-20 0.0208498)
(0.0554326 2.00834e-05 -2.25084e-22 0.000628501 5.71379e-22 0.0224244)
(0.0518048 1.97294e-05 -9.90341e-23 0.000525964 -3.97136e-20 0.0209323)
(0.0560957 2.3523e-05 8.5315e-23 0.000628471 4.81702e-20 0.0226897)
(0.0519245 2.30808e-05 -1.48304e-23 0.000525147 3.18737e-20 0.0209799)
(0.0566905 2.76031e-05 -1.4927e-24 0.000628551 -3.57492e-20 0.0229276)
(0.0519936 2.67354e-05 1.19676e-25 0.000524317 -2.20761e-22 0.0210072)
(0.0572565 3.22095e-05 -4.62226e-24 0.000628747 8.47769e-21 0.0231541)
(0.0520071 3.06388e-05 -3.76979e-22 0.000523465 1.35091e-20 0.0210122)
(0.0577886 3.72502e-05 4.32039e-22 0.000629059 1.56043e-20 0.0233671)
(0.0519642 3.47661e-05 7.7717e-22 0.000522587 9.89717e-21 0.0209947)
(0.0582856 4.26852e-05 -4.02896e-22 0.000629487 -2.24165e-20 0.023566)
(0.0518606 3.90984e-05 -4.40361e-22 0.000521686 -3.08115e-20 0.0209529)
(0.0587416 4.84899e-05 4.60438e-22 0.000630034 -7.3727e-21 0.0237486)
(0.0516963 4.36259e-05 -1.13389e-22 0.000520768 1.17002e-20 0.0208868)
(0.0591542 5.46532e-05 -6.71656e-23 0.000630698 1.29789e-20 0.023914)
(0.0514745 4.8343e-05 -6.01155e-24 0.000519846 6.00115e-21 0.0207978)
(0.0595231 6.11696e-05 -4.49463e-22 0.00063148 7.0429e-22 0.0240618)
(0.0512016 5.32484e-05 -3.77371e-24 0.000518936 3.4017e-21 0.0206882)
(0.0598499 6.80365e-05 -5.32977e-22 0.000632375 2.16924e-21 0.0241929)
(0.0508855 5.83429e-05 1.45988e-23 0.000518061 -1.19406e-20 0.0205614)
(0.0601363 7.52516e-05 1.3642e-21 0.000633373 -1.69747e-20 0.0243079)
(0.0505355 6.36296e-05 -1.24745e-23 0.00051725 9.298e-21 0.0204211)
(0.0603834 8.28102e-05 -1.31496e-21 0.000634458 5.71118e-21 0.0244071)
(0.0501606 6.91119e-05 5.77949e-24 0.000516543 -3.94101e-21 0.0202709)
(0.0605898 9.07032e-05 -5.32549e-22 0.000635606 -1.50744e-20 0.0244902)
(0.04977 7.47967e-05 5.37955e-22 0.000515993 -7.27112e-21 0.0201144)
(0.0607513 9.89132e-05 -6.35878e-22 0.000636778 2.67094e-20 0.0245552)
(0.0493724 8.06849e-05 5.24626e-22 0.000515652 8.37406e-21 0.0199552)
(0.0608604 0.000107413 -1.25271e-21 0.000637923 -5.5094e-21 0.0245993)
(0.048977 8.67801e-05 1.1286e-21 0.000515591 -3.51087e-21 0.019797)
(0.0609057 0.000116166 2.42738e-21 0.000638951 5.36794e-21 0.0246179)
(0.0485927 9.31062e-05 -3.21224e-21 0.000516025 -1.09727e-20 0.0196435)
(0.0608739 0.000125091 1.29722e-21 0.000639858 1.4301e-20 0.0246055)
(0.0482182 9.97006e-05 -9.85419e-22 0.000516459 -2.69542e-21 0.0194938)
(0.0607371 0.000134619 1.30752e-21 0.000640138 -3.33015e-21 0.0245509)
(0.0478801 0.000106341 -2.13611e-21 0.000517936 -1.96015e-20 0.0193592)
(0.0604752 0.000144264 5.43559e-23 0.000640472 1.58561e-20 0.0244463)
(0.0476088 0.000112724 2.4939e-21 0.000520296 1.1279e-20 0.0192516)
(0.0600917 0.000153138 -2.84946e-21 0.000640387 1.25019e-20 0.0242928)
(0.0474034 0.00011888 -2.71529e-23 0.000523551 1.38279e-20 0.0191708)
(0.0595893 0.000161188 2.4445e-22 0.000639838 -1.79225e-20 0.0240916)
(0.0472622 0.000124848 -2.67604e-21 0.000527681 -1.72591e-20 0.019116)
(0.0589695 0.000168391 3.59264e-21 0.000638853 3.00696e-20 0.0238433)
(0.0471819 0.000130645 -2.84239e-21 0.00053271 -1.85329e-20 0.0190859)
(0.0582364 0.000174711 -3.26097e-21 0.000637383 4.75587e-22 0.0235495)
(0.0471573 0.000136294 3.32915e-21 0.000538578 -1.34353e-20 0.0190784)
(0.0573957 0.00018014 -7.41594e-21 0.000635471 4.94618e-21 0.0232125)
(0.0471817 0.000141796 3.48315e-21 0.000545271 -7.80922e-21 0.0190908)
(0.0564544 0.000184677 8.01841e-21 0.000633141 1.16063e-20 0.022835)
(0.047247 0.000147154 3.59396e-21 0.00055272 1.18792e-20 0.0191199)
(0.0554213 0.000188334 -5.96139e-23 0.000630449 1.59197e-20 0.0224207)
(0.0473437 0.000152353 -3.5629e-21 0.000560866 -1.1622e-20 0.0191618)
(0.0543063 0.000191137 6.88063e-23 0.000627459 -2.69325e-20 0.0219735)
(0.0474611 0.000157374 4.03588e-21 0.000569624 2.11572e-21 0.0192123)
(0.0531208 0.000193123 -2.98263e-23 0.00062425 2.73387e-21 0.021498)
(0.0475877 0.00016219 8.2092e-21 0.000578905 -4.11709e-21 0.0192667)
(0.0518767 0.000194339 -4.99287e-21 0.000620912 -4.06932e-21 0.020999)
(0.0477113 0.000166767 4.3692e-21 0.000588607 2.81779e-21 0.01932)
(0.050587 0.000194846 -5.10693e-21 0.000617542 -2.72818e-20 0.0204818)
(0.0478192 0.000171064 -8.94232e-21 0.000598622 -6.54347e-22 0.0193671)
(0.049265 0.000194708 -5.0769e-21 0.000614245 -1.45543e-20 0.0199517)
(0.0478985 0.000175036 4.55493e-21 0.000608837 2.58287e-21 0.0194029)
(0.0479241 0.000194 -4.84149e-24 0.000611129 1.23509e-21 0.0194141)
(0.0479366 0.000178638 4.98711e-21 0.000619138 -2.52268e-21 0.0194223)
(0.0465777 0.0001928 5.56559e-21 0.000608303 -1.52776e-20 0.0188744)
(0.0479212 0.000181821 3.08793e-23 0.00062941 -7.56234e-21 0.0194203)
(0.0452387 0.000191188 5.90493e-21 0.000605872 1.13446e-20 0.0183378)
(0.0478409 0.000184539 5.28978e-21 0.000639544 4.50775e-21 0.0193922)
(0.0439194 0.000189244 -1.19642e-23 0.00060394 2.88248e-21 0.0178093)
(0.0476849 0.000186745 -1.07852e-20 0.000649435 -3.89862e-21 0.0193337)
(0.0426311 0.000187049 6.28848e-21 0.000602602 -8.45876e-22 0.0172935)
(0.047444 0.000188398 5.76298e-21 0.000658983 -1.12198e-20 0.0192412)
(0.0413838 0.000184676 5.42463e-24 0.000601945 -1.26718e-21 0.0167943)
(0.04711 0.000189464 -1.15267e-20 0.0006681 -2.36333e-21 0.0191112)
(0.0401866 0.000182198 1.77007e-22 0.000602048 3.8115e-21 0.0163154)
(0.0466763 0.00018991 -4.41453e-22 0.000676706 6.23368e-21 0.0189412)
(0.0390465 0.000179676 1.62702e-22 0.000602977 -2.56925e-21 0.0158598)
(0.0461381 0.000189715 6.04434e-21 0.000684733 3.60791e-21 0.0187291)