/*--------------------------------*- C++ -*----------------------------------*\
| =========                 |                                                 |
| \\      /  F ield         | OpenFOAM Extend Project: Open source CFD        |
|  \\    /   O peration     | Version:  1.6-ext                               |
|   \\  /    A nd           | Web:      www.extend-project.de                 |
|    \\/     M anipulation  |                                                 |
\*---------------------------------------------------------------------------*/
FoamFile
{
    version     2.0;
    format      ascii;
    class       volVectorField;
    location    "1.05";
    object      DU;
}
// * * * * * * * * * * * * * * * * * * * * * * * * * * * * * * * * * * * * * //

dimensions      [0 1 0 0 0 0 0];

internalField   nonuniform List<vector> 
328
(
(1.39442e-09 2.83111e-09 0)
(9.3491e-10 6.90178e-10 0)
(9.52526e-10 -4.66964e-10 0)
(1.43859e-09 -2.70964e-09 0)
(4.23897e-09 7.30745e-09 0)
(3.0899e-09 2.01632e-09 0)
(3.15051e-09 -1.36354e-09 0)
(4.3915e-09 -6.9083e-09 0)
(7.52279e-09 1.06894e-08 0)
(5.97193e-09 3.27956e-09 0)
(6.09485e-09 -2.20229e-09 0)
(7.82672e-09 -9.9797e-09 0)
(1.10909e-08 1.31466e-08 0)
(9.34687e-09 4.39376e-09 0)
(9.54508e-09 -2.90157e-09 0)
(1.15852e-08 -1.21098e-08 0)
(1.49874e-08 1.48993e-08 0)
(1.32609e-08 5.32507e-09 0)
(1.35501e-08 -3.43427e-09 0)
(1.5719e-08 -1.35383e-08 0)
(1.91928e-08 1.61149e-08 0)
(1.76374e-08 6.05854e-09 0)
(1.80334e-08 -3.79738e-09 0)
(2.02137e-08 -1.44519e-08 0)
(2.37275e-08 1.69277e-08 0)
(2.24658e-08 6.60187e-09 0)
(2.29872e-08 -4.01509e-09 0)
(2.50977e-08 -1.50068e-08 0)
(2.86043e-08 1.74338e-08 0)
(2.77171e-08 6.96954e-09 0)
(2.83847e-08 -4.12427e-09 0)
(3.03929e-08 -1.5324e-08 0)
(3.3845e-08 1.7702e-08 0)
(3.33834e-08 7.17891e-09 0)
(3.42221e-08 -4.17142e-09 0)
(3.61314e-08 -1.5503e-08 0)
(3.947e-08 1.77761e-08 0)
(3.94608e-08 7.24242e-09 0)
(4.0499e-08 -4.20644e-09 0)
(4.23454e-08 -1.56255e-08 0)
(4.55016e-08 1.7679e-08 0)
(4.59571e-08 7.16418e-09 0)
(4.7228e-08 -4.281e-09 0)
(4.90703e-08 -1.57622e-08 0)
(5.19615e-08 1.74142e-08 0)
(5.28874e-08 6.93651e-09 0)
(5.44291e-08 -4.44733e-09 0)
(5.63425e-08 -1.59761e-08 0)
(5.8872e-08 1.69674e-08 0)
(6.0275e-08 6.53818e-09 0)
(6.21313e-08 -4.75923e-09 0)
(6.42005e-08 -1.63274e-08 0)
(6.62558e-08 1.63063e-08 0)
(6.81493e-08 5.93306e-09 0)
(7.037e-08 -5.27399e-09 0)
(7.26846e-08 -1.68767e-08 0)
(7.41368e-08 1.53815e-08 0)
(7.6545e-08 5.06911e-09 0)
(7.91862e-08 -6.05528e-09 0)
(8.18377e-08 -1.76893e-08 0)
(8.25405e-08 1.41253e-08 0)
(8.55004e-08 3.87735e-09 0)
(8.86252e-08 -7.17663e-09 0)
(9.17056e-08 -1.8839e-08 0)
(9.14946e-08 1.24512e-08 0)
(9.50569e-08 2.2704e-09 0)
(9.87353e-08 -8.72525e-09 0)
(1.02337e-07 -2.04127e-08 0)
(1.01029e-07 1.02522e-08 0)
(1.05258e-07 1.40664e-10 0)
(1.09567e-07 -1.0806e-08 0)
(1.13783e-07 -2.25139e-08 0)
(1.11177e-07 7.39835e-09 0)
(1.16148e-07 -2.6422e-09 0)
(1.21172e-07 -1.35454e-08 0)
(1.26098e-07 -2.52676e-08 0)
(1.21976e-07 3.73417e-09 0)
(1.27775e-07 -6.23416e-09 0)
(1.33605e-07 -1.70957e-08 0)
(1.39337e-07 -2.8824e-08 0)
(1.33466e-07 -9.24519e-10 0)
(1.40187e-07 -1.082e-08 0)
(1.46917e-07 -2.16383e-08 0)
(1.53557e-07 -3.3362e-08 0)
(1.45692e-07 -6.79361e-09 0)
(1.53434e-07 -1.66165e-08 0)
(1.61164e-07 -2.73871e-08 0)
(1.68813e-07 -3.90927e-08 0)
(1.59201e-07 -1.44026e-08 0)
(1.68108e-07 -2.41517e-08 0)
(1.76979e-07 -3.4866e-08 0)
(1.85781e-07 -4.6535e-08 0)
(1.73555e-07 -2.38991e-08 0)
(1.83724e-07 -3.35774e-08 0)
(1.93834e-07 -4.42265e-08 0)
(2.03889e-07 -5.58367e-08 0)
(1.87821e-07 -3.47563e-08 0)
(1.99252e-07 -4.43725e-08 0)
(2.10599e-07 -5.4951e-08 0)
(2.21904e-07 -6.64821e-08 0)
(2.02021e-07 -4.6963e-08 0)
(2.14692e-07 -5.65257e-08 0)
(2.27256e-07 -6.70281e-08 0)
(2.39792e-07 -7.84604e-08 0)
(2.16173e-07 -6.04878e-08 0)
(2.30046e-07 -7.00054e-08 0)
(2.43788e-07 -8.04261e-08 0)
(2.57516e-07 -9.174e-08 0)
(2.30297e-07 -7.52789e-08 0)
(2.45314e-07 -8.47593e-08 0)
(2.6018e-07 -9.50929e-08 0)
(2.75043e-07 -1.0627e-07 0)
(2.44409e-07 -9.12654e-08 0)
(2.60499e-07 -1.00716e-07 0)
(2.76415e-07 -1.10957e-07 0)
(2.9234e-07 -1.21979e-07 0)
(2.58527e-07 -1.08359e-07 0)
(2.75598e-07 -1.17785e-07 0)
(2.92477e-07 -1.27929e-07 0)
(3.09374e-07 -1.3878e-07 0)
(2.72662e-07 -1.26453e-07 0)
(2.90612e-07 -1.35861e-07 0)
(3.08352e-07 -1.45903e-07 0)
(3.26116e-07 -1.56567e-07 0)
(2.86826e-07 -1.45428e-07 0)
(3.05538e-07 -1.54821e-07 0)
(3.24025e-07 -1.64756e-07 0)
(3.42541e-07 -1.7522e-07 0)
(3.01026e-07 -1.6515e-07 0)
(3.20374e-07 -1.74532e-07 0)
(3.39484e-07 -1.84354e-07 0)
(3.58625e-07 -1.94607e-07 0)
(3.15266e-07 -1.85478e-07 0)
(3.35115e-07 -1.94848e-07 0)
(3.54716e-07 -2.04554e-07 0)
(3.74349e-07 -2.14586e-07 0)
(3.29547e-07 -2.06261e-07 0)
(3.49757e-07 -2.15618e-07 0)
(3.69711e-07 -2.25203e-07 0)
(3.89695e-07 -2.35006e-07 0)
(3.43864e-07 -2.27342e-07 0)
(3.64292e-07 -2.36683e-07 0)
(3.84459e-07 -2.46144e-07 0)
(4.04651e-07 -2.55712e-07 0)
(3.5821e-07 -2.48566e-07 0)
(3.78714e-07 -2.57886e-07 0)
(3.98953e-07 -2.67217e-07 0)
(4.1921e-07 -2.76548e-07 0)
(3.72575e-07 -2.69777e-07 0)
(3.93013e-07 -2.79069e-07 0)
(4.13185e-07 -2.88267e-07 0)
(4.33366e-07 -2.97358e-07 0)
(3.86942e-07 -2.90821e-07 0)
(4.07178e-07 -3.00078e-07 0)
(4.27151e-07 -3.09138e-07 0)
(4.4712e-07 -3.17991e-07 0)
(4.01295e-07 -3.11556e-07 0)
(4.212e-07 -3.20765e-07 0)
(4.40846e-07 -3.29684e-07 0)
(4.60474e-07 -3.38301e-07 0)
(4.1561e-07 -3.31844e-07 0)
(4.35065e-07 -3.40995e-07 0)
(4.54268e-07 -3.49768e-07 0)
(4.73436e-07 -3.58154e-07 0)
(4.29863e-07 -3.51563e-07 0)
(4.4876e-07 -3.60642e-07 0)
(4.67414e-07 -3.69266e-07 0)
(4.86015e-07 -3.77425e-07 0)
(4.44027e-07 -3.70602e-07 0)
(4.62272e-07 -3.79594e-07 0)
(4.80285e-07 -3.88065e-07 0)
(4.98225e-07 -3.96006e-07 0)
(4.58071e-07 -3.88869e-07 0)
(4.75586e-07 -3.97759e-07 0)
(4.9288e-07 -4.06073e-07 0)
(5.10081e-07 -4.13803e-07 0)
(4.71966e-07 -4.06288e-07 0)
(4.88687e-07 -4.15058e-07 0)
(5.05201e-07 -4.23211e-07 0)
(5.216e-07 -4.3074e-07 0)
(4.85677e-07 -4.228e-07 0)
(5.0156e-07 -4.31433e-07 0)
(5.1725e-07 -4.39423e-07 0)
(5.32802e-07 -4.46759e-07 0)
(4.99174e-07 -4.38367e-07 0)
(5.14191e-07 -4.46847e-07 0)
(5.29028e-07 -4.54668e-07 0)
(5.43706e-07 -4.61822e-07 0)
(5.12421e-07 -4.52972e-07 0)
(5.26563e-07 -4.61281e-07 0)
(5.40539e-07 -4.6893e-07 0)
(5.54334e-07 -4.75912e-07 0)
(5.25388e-07 -4.66616e-07 0)
(5.38663e-07 -4.74737e-07 0)
(5.51785e-07 -4.8221e-07 0)
(5.64705e-07 -4.89029e-07 0)
(5.38043e-07 -4.7932e-07 0)
(5.50476e-07 -4.87236e-07 0)
(5.62769e-07 -4.9453e-07 0)
(5.7484e-07 -5.01194e-07 0)
(5.50356e-07 -4.91123e-07 0)
(5.61989e-07 -4.98819e-07 0)
(5.73493e-07 -5.05929e-07 0)
(5.84758e-07 -5.12448e-07 0)
(5.62299e-07 -5.02083e-07 0)
(5.73189e-07 -5.09543e-07 0)
(5.8396e-07 -5.16466e-07 0)
(5.94475e-07 -5.22846e-07 0)
(5.73847e-07 -5.12272e-07 0)
(5.84064e-07 -5.19483e-07 0)
(5.94171e-07 -5.26216e-07 0)
(6.04006e-07 -5.32462e-07 0)
(5.84977e-07 -5.21776e-07 0)
(5.94604e-07 -5.28727e-07 0)
(6.04127e-07 -5.35265e-07 0)
(6.13365e-07 -5.41382e-07 0)
(5.95672e-07 -5.30694e-07 0)
(6.048e-07 -5.37375e-07 0)
(6.13827e-07 -5.43715e-07 0)
(6.2256e-07 -5.49706e-07 0)
(6.05916e-07 -5.39134e-07 0)
(6.14643e-07 -5.45537e-07 0)
(6.23272e-07 -5.51674e-07 0)
(6.31599e-07 -5.5754e-07 0)
(6.15697e-07 -5.4721e-07 0)
(6.24127e-07 -5.53328e-07 0)
(6.32459e-07 -5.59259e-07 0)
(6.40484e-07 -5.64999e-07 0)
(6.25007e-07 -5.5504e-07 0)
(6.33246e-07 -5.60868e-07 0)
(6.41386e-07 -5.6659e-07 0)
(6.49214e-07 -5.72202e-07 0)
(6.33844e-07 -5.62742e-07 0)
(6.41998e-07 -5.68278e-07 0)
(6.50048e-07 -5.73788e-07 0)
(6.57786e-07 -5.79267e-07 0)
(6.42205e-07 -5.70434e-07 0)
(6.50378e-07 -5.75677e-07 0)
(6.5844e-07 -5.80971e-07 0)
(6.66193e-07 -5.86311e-07 0)
(6.50095e-07 -5.78229e-07 0)
(6.58387e-07 -5.8318e-07 0)
(6.66558e-07 -5.88254e-07 0)
(6.74424e-07 -5.93448e-07 0)
(6.57521e-07 -5.86231e-07 0)
(6.66022e-07 -5.90893e-07 0)
(6.74393e-07 -5.95746e-07 0)
(6.82465e-07 -6.00785e-07 0)
(6.6449e-07 -5.9454e-07 0)
(6.73286e-07 -5.98917e-07 0)
(6.81939e-07 -6.03544e-07 0)
(6.903e-07 -6.08418e-07 0)
(6.71016e-07 -6.0324e-07 0)
(6.8018e-07 -6.07337e-07 0)
(6.89188e-07 -6.11737e-07 0)
(6.97912e-07 -6.16435e-07 0)
(6.77112e-07 -6.12406e-07 0)
(6.86707e-07 -6.16229e-07 0)
(6.9613e-07 -6.20399e-07 0)
(7.0528e-07 -6.2491e-07 0)
(6.82794e-07 -6.22098e-07 0)
(6.92868e-07 -6.25656e-07 0)
(7.02757e-07 -6.29592e-07 0)
(7.12383e-07 -6.33904e-07 0)
(6.88077e-07 -6.32363e-07 0)
(6.98668e-07 -6.35663e-07 0)
(7.09059e-07 -6.39364e-07 0)
(7.19198e-07 -6.43464e-07 0)
(6.92979e-07 -6.43233e-07 0)
(7.04111e-07 -6.46282e-07 0)
(7.15026e-07 -6.49747e-07 0)
(7.25702e-07 -6.53622e-07 0)
(6.97518e-07 -6.54723e-07 0)
(7.092e-07 -6.5753e-07 0)
(7.2065e-07 -6.60756e-07 0)
(7.31872e-07 -6.64395e-07 0)
(7.01711e-07 -6.66834e-07 0)
(7.1394e-07 -6.69408e-07 0)
(7.25921e-07 -6.72392e-07 0)
(7.37686e-07 -6.75783e-07 0)
(7.05575e-07 -6.79552e-07 0)
(7.18333e-07 -6.819e-07 0)
(7.30831e-07 -6.84642e-07 0)
(7.43121e-07 -6.87774e-07 0)
(7.09125e-07 -6.92848e-07 0)
(7.22384e-07 -6.94977e-07 0)
(7.3537e-07 -6.97475e-07 0)
(7.48158e-07 -7.00339e-07 0)
(7.12374e-07 -7.0668e-07 0)
(7.26094e-07 -7.08596e-07 0)
(7.39533e-07 -7.1085e-07 0)
(7.52779e-07 -7.13436e-07 0)
(7.15333e-07 -7.20995e-07 0)
(7.29467e-07 -7.22703e-07 0)
(7.43311e-07 -7.2471e-07 0)
(7.56967e-07 -7.27012e-07 0)
(7.1801e-07 -7.35729e-07 0)
(7.32503e-07 -7.37232e-07 0)
(7.467e-07 -7.38992e-07 0)
(7.60711e-07 -7.41005e-07 0)
(7.20411e-07 -7.50811e-07 0)
(7.35203e-07 -7.52111e-07 0)
(7.49695e-07 -7.53623e-07 0)
(7.64002e-07 -7.55344e-07 0)
(7.22536e-07 -7.66168e-07 0)
(7.37564e-07 -7.67264e-07 0)
(7.52294e-07 -7.68526e-07 0)
(7.66836e-07 -7.69953e-07 0)
(7.2438e-07 -7.81722e-07 0)
(7.39585e-07 -7.82611e-07 0)
(7.54494e-07 -7.83622e-07 0)
(7.69212e-07 -7.84757e-07 0)
(7.2594e-07 -7.97399e-07 0)
(7.41263e-07 -7.98076e-07 0)
(7.56298e-07 -7.98835e-07 0)
(7.71136e-07 -7.99681e-07 0)
(7.27197e-07 -8.13129e-07 0)
(7.42586e-07 -8.13587e-07 0)
(7.57701e-07 -8.14094e-07 0)
(7.72613e-07 -8.14658e-07 0)
(7.28152e-07 -8.28849e-07 0)
(7.43566e-07 -8.2908e-07 0)
(7.58723e-07 -8.29338e-07 0)
(7.73675e-07 -8.29628e-07 0)
(7.28744e-07 -8.44458e-07 0)
(7.44157e-07 -8.44491e-07 0)
(7.59329e-07 -8.44534e-07 0)
(7.74293e-07 -8.44604e-07 0)
)
;

boundaryField
{
    plateFix
    {
        type            fixedDisplacement;
        value           uniform (0 0 0);
    }
    plate
    {
        type            solidTraction;
        nonLinear       updatedLagrangian;
        traction        nonuniform List<vector> 
168
(
(3.52091e-06 7.19419e-05 3.76103e-20)
(5.05775e-06 -7.28511e-05 0)
(-0.000125651 -6.18446e-05 0)
(-0.000119237 5.67064e-05 1.10429e-23)
(-0.000570568 -0.000239015 2.65458e-21)
(-0.00055325 0.000230612 4.31877e-20)
(-0.00126522 -0.000382236 4.03929e-20)
(-0.0012331 0.000371656 -4.34153e-20)
(-0.0021566 -0.000472526 -3.56237e-20)
(-0.0021071 0.000460604 -3.85456e-20)
(-0.00319556 -0.000512423 1.73737e-23)
(-0.00312703 0.000499643 -2.27438e-21)
(-0.00433143 -0.000514276 3.30836e-20)
(-0.00424309 0.000500728 7.12263e-20)
(-0.00551991 -0.000492239 3.80493e-21)
(-0.00541161 0.000477669 -3.4834e-20)
(-0.00672631 -0.000458277 -2.80581e-20)
(-0.00659824 0.000442189 -2.84171e-20)
(-0.00792562 -0.000421092 0)
(-0.0077781 0.000402849 5.19121e-20)
(-0.00910182 -0.000386273 0)
(-0.0089351 0.000365175 -2.35292e-20)
(-0.0102464 -0.000356896 2.08751e-20)
(-0.0100606 0.000332233 2.11638e-20)
(-0.0113565 -0.00033421 -2.34234e-20)
(-0.0111514 0.000305295 -1.89349e-20)
(-0.0124331 -0.000318244 -6.51515e-23)
(-0.0122084 0.000284422 2.11064e-20)
(-0.0134789 -0.000308259 -1.47427e-20)
(-0.0132342 0.000268914 -3.80021e-21)
(-0.0144969 -0.000303076 1.3046e-20)
(-0.0142316 0.000257626 -1.32324e-20)
(-0.0154884 -0.000301263 -8.90982e-23)
(-0.0152024 0.000249174 -5.78057e-21)
(-0.0164519 -0.000301197 1.55315e-22)
(-0.0161451 0.000241998 5.04046e-21)
(-0.017384 -0.000301109 0)
(-0.0170571 0.000234434 1.74347e-20)
(-0.01827 -0.000298796 0)
(-0.0179245 0.000224425 -1.51613e-20)
(-0.0191142 -0.000290929 -9.50241e-21)
(-0.0187525 0.000208941 3.23997e-21)
(-0.0198441 -0.000278227 1.07935e-20)
(-0.0194727 0.000188788 0)
(-0.0207067 -0.000230122 0)
(-0.0203218 0.000134478 0)
(-0.0216078 -0.000174766 8.91125e-21)
(-0.0212069 7.13511e-05 -8.93289e-21)
(-0.0223593 -0.000165213 -8.92082e-21)
(-0.0219521 5.2807e-05 9.08501e-21)
(-0.0230727 -0.000151405 -8.6321e-21)
(-0.0226624 3.06652e-05 -4.16453e-22)
(-0.0237002 -0.000147403 8.90929e-21)
(-0.0232928 1.85969e-05 -8.93769e-21)
(-0.0242835 -0.0001405 2.62965e-22)
(-0.0238836 4.15058e-06 1.60259e-22)
(-0.0248023 -0.000135669 2.57707e-22)
(-0.0244155 -7.75083e-06 8.78519e-21)
(-0.0252698 -0.000129578 0)
(-0.0249017 -2.03838e-05 -8.18914e-21)
(-0.0256781 -0.000123555 3.09451e-25)
(-0.0253344 -3.23864e-05 1.62143e-20)
(-0.0260296 -0.000116641 -4.82721e-22)
(-0.0257163 -4.46882e-05 -1.19439e-20)
(-0.0263202 -0.000109095 -3.47712e-21)
(-0.0260433 -5.69911e-05 3.92289e-21)
(-0.0265482 -0.000100597 7.32928e-21)
(-0.026314 -6.95873e-05 -3.73009e-21)
(-0.0267101 -9.11483e-05 -6.90338e-21)
(-0.0265249 -8.24401e-05 3.50362e-21)
(-0.0268029 -8.06216e-05 3.51412e-21)
(-0.0266731 -9.56497e-05 2.23873e-22)
(-0.026823 -6.8986e-05 -3.08514e-21)
(-0.0267553 -0.00010922 -2.17811e-22)
(-0.026767 -5.61936e-05 6.27812e-21)
(-0.0267679 -0.000123176 0)
(-0.0266315 -4.22379e-05 -3.3826e-21)
(-0.0267074 -0.000137506 -3.20438e-21)
(-0.0264131 -2.71239e-05 2.95234e-21)
(-0.0265705 -0.000152188 3.01071e-21)
(-0.0261087 -1.08843e-05 -2.5924e-21)
(-0.0263539 -0.000167181 0)
(-0.0257155 6.42747e-06 0)
(-0.0260546 -0.000182429 2.85848e-21)
(-0.0252312 2.47371e-05 1.65946e-22)
(-0.0256699 -0.000197858 -1.21876e-22)
(-0.0246538 4.39492e-05 3.18082e-22)
(-0.0251973 -0.000213381 -2.91034e-21)
(-0.0239818 6.39497e-05 1.50612e-22)
(-0.0246351 -0.000228897 0)
(-0.0232146 8.46082e-05 0)
(-0.0239815 -0.000244296 -6.99005e-25)
(-0.0223519 0.00010578 0)
(-0.0232358 -0.000259455 -2.2528e-21)
(-0.0213942 0.000127311 0)
(-0.0223975 -0.000274246 -1.22399e-23)
(-0.0203426 0.000149037 -1.8537e-21)
(-0.0214667 -0.000288538 2.00307e-21)
(-0.019199 0.000170793 3.58858e-21)
(-0.0204442 -0.000302196 -1.22533e-22)
(-0.0179659 0.000192413 -1.73475e-21)
(-0.0193314 -0.000315088 1.65276e-21)
(-0.0166463 0.000213735 2.93548e-22)
(-0.01813 -0.000327085 -1.76956e-21)
(-0.0152441 0.000234606 0)
(-0.0168427 -0.000338067 9.93967e-23)
(-0.0137636 0.000254883 0)
(-0.0154723 -0.00034792 1.41859e-21)
(-0.0122095 0.000274438 -1.46953e-21)
(-0.0140225 -0.000356544 -1.12311e-22)
(-0.010587 0.00029316 1.1646e-21)
(-0.012497 -0.000363855 -1.22982e-21)
(-0.00890174 0.000310959 6.05783e-22)
(-0.0109001 -0.000369783 -5.48092e-22)
(-0.00715949 0.000327764 -4.80194e-22)
(-0.00923665 -0.000374275 5.48648e-22)
(-0.00536622 0.000343527 -2.84392e-22)
(-0.00751136 -0.0003773 -1.18458e-22)
(-0.003528 0.000358223 8.24015e-22)
(-0.00572933 -0.000378843 -4.04896e-22)
(-0.00165085 0.00037185 -4.05023e-23)
(-0.00389573 -0.000378914 7.67232e-22)
(0.000259278 0.000384429 -2.31047e-22)
(-0.00201575 -0.00037754 -6.83855e-22)
(0.00219667 0.000396005 6.21347e-23)
(-9.45257e-05 -0.000374772 7.66418e-23)
(0.00415587 0.000406644 2.56043e-22)
(0.00186296 -0.00037068 5.67512e-22)
(0.00613184 0.000416436 -1.52367e-22)
(0.00385195 -0.000365358 -2.77558e-22)
(0.00811998 0.000425495 4.13973e-23)
(0.00586802 -0.00035892 5.05468e-23)
(0.0101163 0.000433957 -3.35997e-23)
(0.00790718 -0.000351506 2.0638e-22)
(0.0121175 0.000441991 0)
(0.00996601 -0.000343284 -2.2785e-23)
(0.014121 0.000449791 0)
(0.0120417 -0.00033445 -3.66598e-23)
(0.0161254 0.000457607 0)
(0.0141325 -0.000325251 -1.58112e-22)
(0.0181303 0.000465727 0)
(0.0162375 -0.000315969 5.22791e-23)
(0.0201371 0.000474572 -1.71951e-23)
(0.0183576 -0.000307014 5.26373e-23)
(0.0221486 0.000484636 -1.68707e-24)
(0.0204951 -0.000298861 -6.0552e-23)
(0.0241714 0.00049687 4.20089e-23)
(0.0226558 -0.000292418 1.83841e-23)
(0.026215 0.00051255 -2.81604e-23)
(0.0248485 -0.000288907 -9.98397e-24)
(0.028297 0.000535242 -3.32222e-23)
(0.0270906 -0.000291792 1.87611e-23)
(0.0304461 0.000571088 3.32584e-23)
(0.0294102 -0.00030711 0)
(0.0327123 0.000643217 0)
(0.0318569 -0.000357927 -3.72325e-23)
(0.0352204 0.000795862 -2.69536e-23)
(0.0345587 -0.000488529 -1.88333e-23)
(0.0381242 0.00123983 -3.06563e-23)
(0.0376689 -0.000911058 4.68699e-23)
(0.0423277 0.00236144 0)
(0.0421187 -0.00201285 2.73454e-24)
(0.0482449 0.00671725 0)
(0.00976458 0.00509688 3.54805e-23)
(-0.000715235 -0.0027383 -7.75919e-23)
(-0.000706782 0.0030227 0)
(0.00982133 -0.00478175 -4.26357e-23)
(0.0482303 -0.00636168 1.282e-23)
)
;
        pressure        nonuniform List<scalar> 
168
(
-0.473152
-0.479459
-0.473753
-0.480046
-0.474423
-0.480706
-0.475086
-0.481363
-0.475675
-0.481948
-0.476113
-0.482387
-0.476353
-0.482633
-0.476366
-0.482658
-0.47614
-0.482448
-0.475667
-0.481998
-0.474947
-0.481306
-0.473978
-0.48037
-0.472753
-0.479185
-0.47126
-0.477741
-0.46948
-0.47602
-0.467386
-0.473997
-0.464945
-0.471639
-0.462113
-0.468907
-0.458848
-0.465761
-0.455086
-0.46214
-0.450833
-0.458051
-0.445876
-0.45329
-0.440514
-0.448144
-0.433882
-0.441786
-0.427153
-0.435343
-0.419885
-0.428387
-0.412378
-0.421205
-0.404465
-0.413636
-0.396253
-0.405779
-0.387692
-0.397586
-0.378818
-0.389088
-0.369624
-0.380276
-0.360124
-0.371163
-0.350325
-0.36175
-0.340239
-0.352048
-0.329879
-0.342066
-0.319258
-0.331815
-0.308395
-0.321309
-0.297308
-0.310563
-0.286019
-0.299597
-0.274552
-0.28843
-0.262933
-0.277087
-0.251191
-0.265591
-0.239359
-0.253972
-0.227467
-0.242258
-0.215553
-0.230483
-0.203653
-0.218681
-0.191804
-0.206885
-0.180047
-0.195135
-0.16842
-0.183467
-0.156964
-0.17192
-0.145718
-0.160532
-0.134723
-0.149343
-0.124015
-0.13839
-0.113632
-0.127712
-0.103609
-0.117344
-0.0939791
-0.107322
-0.0847735
-0.0976788
-0.0760204
-0.0884462
-0.0677453
-0.0796534
-0.0599712
-0.0713271
-0.052718
-0.0634921
-0.0460028
-0.0561702
-0.03984
-0.0493809
-0.0342411
-0.0431414
-0.0292152
-0.0374662
-0.0247693
-0.0323678
-0.0209079
-0.0278564
-0.0176345
-0.0239407
-0.0149506
-0.0206278
-0.012858
-0.0179242
-0.011357
-0.0158351
-0.0104506
-0.0143678
-0.0101405
-0.0135281
-0.0104367
-0.0133295
-0.0113475
-0.013784
-0.0129018
-0.0149224
-0.015144
-0.0167952
-0.0181314
-0.019455
-0.0222491
-0.0233109
-0.0272524
-0.028088
-0.037488
-0.0674178
-0.0442773
-0.0443881
-0.0676063
-0.0382997
)
;
        value           nonuniform List<vector> 
168
(
(1.38636e-08 7.40068e-09 -2.7426e-26)
(1.32886e-08 -7.4257e-09 -3.17745e-27)
(1.34348e-08 1.2014e-08 2.26819e-26)
(1.29205e-08 -1.18047e-08 3.23912e-27)
(1.38967e-08 1.5602e-08 -7.76092e-27)
(1.35233e-08 -1.51311e-08 1.64522e-26)
(1.53759e-08 1.81362e-08 1.2801e-26)
(1.52227e-08 -1.73813e-08 -1.96578e-26)
(1.78042e-08 1.99501e-08 -1.19611e-26)
(1.7955e-08 -1.89147e-08 -1.2533e-26)
(2.09868e-08 2.11952e-08 7.13436e-27)
(2.15245e-08 -1.99019e-08 2.07016e-28)
(2.4814e-08 2.20287e-08 1.97915e-26)
(2.58275e-08 -2.05233e-08 2.36843e-26)
(2.91977e-08 2.25467e-08 -1.60745e-26)
(3.07842e-08 -2.09001e-08 -1.78652e-26)
(3.40876e-08 2.28218e-08 1.27597e-28)
(3.63567e-08 -2.11358e-08 4.48366e-27)
(3.94512e-08 2.28972e-08 -6.63592e-27)
(4.25275e-08 -2.13115e-08 7.64948e-27)
(4.52723e-08 2.27958e-08 -4.88056e-27)
(4.92975e-08 -2.14977e-08 -1.11795e-26)
(5.15441e-08 2.25207e-08 1.53043e-26)
(5.66797e-08 -2.1757e-08 -3.80916e-27)
(5.8268e-08 2.20574e-08 -5.85961e-27)
(6.46973e-08 -2.21493e-08 6.63652e-27)
(6.54513e-08 2.1374e-08 -3.0672e-27)
(7.33816e-08 -2.27351e-08 2.20071e-28)
(7.31068e-08 2.04217e-08 -1.62496e-27)
(8.27711e-08 -2.35799e-08 1.03068e-27)
(8.12518e-08 1.91337e-08 5.95691e-27)
(9.29107e-08 -2.47577e-08 -8.29088e-27)
(8.99079e-08 1.74242e-08 -4.6886e-27)
(1.03851e-07 -2.63553e-08 2.77471e-27)
(9.91006e-08 1.51872e-08 2.08509e-27)
(1.15645e-07 -2.84763e-08 -7.62615e-27)
(1.08859e-07 1.22935e-08 3.57033e-27)
(1.28352e-07 -3.12451e-08 1.32768e-26)
(1.19218e-07 8.58859e-09 -4.1897e-27)
(1.42031e-07 -3.48112e-08 -2.88154e-27)
(1.30214e-07 3.8891e-09 1.79779e-27)
(1.56741e-07 -3.93522e-08 2.91617e-27)
(1.41892e-07 -2.02003e-09 5.50747e-27)
(1.7254e-07 -4.5078e-08 7.40104e-27)
(1.54776e-07 -9.6685e-09 1.33848e-27)
(1.90128e-07 -5.25046e-08 -1.5423e-27)
(1.68451e-07 -1.92012e-08 9.95325e-27)
(2.08907e-07 -6.17778e-08 8.00124e-27)
(1.8204e-07 -3.00884e-08 -5.92354e-27)
(2.27593e-07 -7.23824e-08 5.81791e-27)
(1.95572e-07 -4.23187e-08 -6.89109e-27)
(2.46141e-07 -8.43078e-08 -8.84523e-27)
(2.09078e-07 -5.58609e-08 8.97859e-27)
(2.64504e-07 -9.75228e-08 1.57661e-26)
(2.22585e-07 -7.06635e-08 9.72726e-27)
(2.82639e-07 -1.11977e-07 -3.18371e-28)
(2.36122e-07 -8.66562e-08 6.08665e-27)
(3.00504e-07 -1.276e-07 9.1256e-28)
(2.49713e-07 -1.03751e-07 3.1423e-27)
(3.18058e-07 -1.44304e-07 7.65007e-27)
(2.63377e-07 -1.21842e-07 -6.8215e-27)
(3.35264e-07 -1.61985e-07 7.94617e-27)
(2.77133e-07 -1.40811e-07 6.731e-27)
(3.52089e-07 -1.80525e-07 -1.34336e-26)
(2.90995e-07 -1.60525e-07 -2.14551e-27)
(3.68505e-07 -1.99792e-07 1.39301e-27)
(3.04969e-07 -1.80844e-07 -3.95766e-28)
(3.84486e-07 -2.19645e-07 -3.43359e-27)
(3.1906e-07 -2.01617e-07 -2.79022e-27)
(4.00014e-07 -2.39934e-07 -1.52397e-26)
(3.33266e-07 -2.22691e-07 3.27562e-27)
(4.15074e-07 -2.60508e-07 -8.9137e-27)
(3.47579e-07 -2.43909e-07 -2.82598e-27)
(4.29658e-07 -2.81209e-07 6.30013e-28)
(3.61987e-07 -2.65118e-07 -5.59994e-28)
(4.43764e-07 -3.01884e-07 -5.7593e-27)
(3.76473e-07 -2.86166e-07 3.79645e-27)
(4.57392e-07 -3.22383e-07 7.81734e-27)
(3.91014e-07 -3.0691e-07 -4.35228e-27)
(4.70551e-07 -3.42561e-07 1.41255e-27)
(4.05582e-07 -3.27215e-07 6.27558e-27)
(4.83253e-07 -3.62286e-07 1.94041e-27)
(4.20146e-07 -3.46959e-07 3.29002e-27)
(4.95514e-07 -3.81433e-07 -6.60494e-28)
(4.34672e-07 -3.66032e-07 6.01073e-27)
(5.07355e-07 -3.99895e-07 2.00344e-27)
(4.49121e-07 -3.84343e-07 -2.94133e-27)
(5.18799e-07 -4.17579e-07 -1.15842e-27)
(4.63453e-07 -4.01814e-07 -4.37254e-27)
(5.29874e-07 -4.3441e-07 -6.30974e-27)
(4.77627e-07 -4.1839e-07 3.80292e-30)
(5.40608e-07 -4.50329e-07 8.8382e-27)
(4.91599e-07 -4.34033e-07 -3.4971e-28)
(5.5103e-07 -4.653e-07 -3.79316e-28)
(5.05328e-07 -4.48723e-07 -5.0693e-27)
(5.61171e-07 -4.79303e-07 6.86725e-27)
(5.1877e-07 -4.62463e-07 -1.76744e-27)
(5.71062e-07 -4.92341e-07 -5.139e-28)
(5.31885e-07 -4.75273e-07 -5.569e-27)
(5.80731e-07 -5.04434e-07 -7.36229e-28)
(5.44634e-07 -4.87192e-07 -8.03585e-30)
(5.90207e-07 -5.1562e-07 -1.00792e-27)
(5.56981e-07 -4.98276e-07 -3.45774e-27)
(5.99515e-07 -5.25956e-07 -1.21928e-28)
(5.68893e-07 -5.08597e-07 -1.80318e-27)
(6.08677e-07 -5.35515e-07 1.96501e-27)
(5.80342e-07 -5.18241e-07 7.72156e-28)
(6.17713e-07 -5.44381e-07 -4.32118e-29)
(5.91304e-07 -5.27305e-07 6.45512e-27)
(6.26637e-07 -5.52652e-07 6.9568e-27)
(6.0176e-07 -5.35896e-07 -6.68453e-27)
(6.35459e-07 -5.60435e-07 8.83135e-27)
(6.11694e-07 -5.44126e-07 -7.19831e-27)
(6.44185e-07 -5.67843e-07 1.66904e-27)
(6.211e-07 -5.52113e-07 -7.43939e-27)
(6.52817e-07 -5.74993e-07 -6.00333e-27)
(6.29972e-07 -5.59973e-07 -2.46741e-27)
(6.61349e-07 -5.82004e-07 1.63795e-26)
(6.38312e-07 -5.67822e-07 2.42299e-27)
(6.69773e-07 -5.8899e-07 6.57928e-27)
(6.46126e-07 -5.75773e-07 7.76058e-27)
(6.78076e-07 -5.96065e-07 1.64026e-26)
(6.53425e-07 -5.83931e-07 -7.71029e-27)
(6.8624e-07 -6.03334e-07 -8.0582e-27)
(6.60223e-07 -5.9239e-07 7.91359e-27)
(6.94245e-07 -6.10893e-07 7.97895e-27)
(6.66536e-07 -6.01238e-07 -6.04501e-27)
(7.02066e-07 -6.1883e-07 -1.59079e-26)
(6.72386e-07 -6.10547e-07 4.54605e-27)
(7.09677e-07 -6.27217e-07 -8.31487e-27)
(6.77794e-07 -6.20377e-07 -8.18255e-27)
(7.17049e-07 -6.36116e-07 1.66785e-26)
(6.82785e-07 -6.30775e-07 8.28329e-27)
(7.24153e-07 -6.45573e-07 8.00814e-27)
(6.87383e-07 -6.41771e-07 1.65484e-27)
(7.30958e-07 -6.5562e-07 1.62213e-26)
(6.91614e-07 -6.53382e-07 8.67963e-27)
(7.37434e-07 -6.66275e-07 -8.6672e-27)
(6.95502e-07 -6.65609e-07 -8.69702e-27)
(7.4355e-07 -6.77538e-07 5.66405e-28)
(6.99071e-07 -6.78437e-07 1.6002e-29)
(7.49276e-07 -6.89397e-07 -8.28794e-27)
(7.02344e-07 -6.91838e-07 -9.17938e-27)
(7.54588e-07 -7.01823e-07 -8.34617e-27)
(7.0534e-07 -7.05772e-07 1.85319e-26)
(7.59458e-07 -7.14776e-07 -1.87456e-26)
(7.08075e-07 -7.20184e-07 -1.88902e-26)
(7.63868e-07 -7.28205e-07 1.90911e-26)
(7.10562e-07 -7.35014e-07 8.03537e-28)
(7.678e-07 -7.42046e-07 -1.94266e-26)
(7.12808e-07 -7.50191e-07 1.38285e-29)
(7.71243e-07 -7.56231e-07 1.98123e-26)
(7.14817e-07 -7.65642e-07 -1.07998e-26)
(7.7419e-07 -7.70687e-07 -2.01942e-26)
(7.16583e-07 -7.81292e-07 2.80718e-30)
(7.76642e-07 -7.85339e-07 3.13539e-26)
(7.181e-07 -7.9707e-07 -1.62544e-29)
(7.78607e-07 -8.00111e-07 -2.55599e-28)
(7.19348e-07 -8.12901e-07 1.06601e-26)
(7.80093e-07 -8.14943e-07 -1.05573e-26)
(7.20334e-07 -8.28734e-07 -4.36407e-30)
(7.81151e-07 -8.29769e-07 -1.09731e-26)
(7.20993e-07 -8.44446e-07 1.12762e-26)
(7.28917e-07 -8.5219e-07 8.85758e-27)
(7.44335e-07 -8.52146e-07 -2.72722e-29)
(7.59513e-07 -8.52081e-07 9.37391e-27)
(7.74473e-07 -8.52102e-07 -2.07038e-26)
(7.81774e-07 -8.44626e-07 2.18064e-26)
)
;
    }
    frontAndBackPlanes
    {
        type            empty;
    }
}


// ************************************************************************* //
