/*--------------------------------*- C++ -*----------------------------------*\
| =========                 |                                                 |
| \\      /  F ield         | OpenFOAM Extend Project: Open source CFD        |
|  \\    /   O peration     | Version:  1.6-ext                               |
|   \\  /    A nd           | Web:      www.extend-project.de                 |
|    \\/     M anipulation  |                                                 |
\*---------------------------------------------------------------------------*/
FoamFile
{
    version     2.0;
    format      ascii;
    class       volVectorField;
    location    "1.05";
    object      DU_0;
}
// * * * * * * * * * * * * * * * * * * * * * * * * * * * * * * * * * * * * * //

dimensions      [0 1 0 0 0 0 0];

internalField   nonuniform List<vector> 
328
(
(1.36708e-09 2.77634e-09 0)
(9.2385e-10 6.75233e-10 0)
(9.46391e-10 -4.70564e-10 0)
(1.43946e-09 -2.71008e-09 0)
(4.15608e-09 7.15947e-09 0)
(3.05268e-09 1.96323e-09 0)
(3.13057e-09 -1.38349e-09 0)
(4.39382e-09 -6.9169e-09 0)
(7.37703e-09 1.04591e-08 0)
(5.89881e-09 3.17876e-09 0)
(6.05659e-09 -2.24935e-09 0)
(7.82895e-09 -1.00074e-08 0)
(1.08782e-08 1.284e-08 0)
(9.23204e-09 4.23634e-09 0)
(9.48474e-09 -2.98745e-09 0)
(1.15857e-08 -1.21687e-08 0)
(1.47035e-08 1.45177e-08 0)
(1.30982e-08 5.10224e-09 0)
(1.34634e-08 -3.57122e-09 0)
(1.57152e-08 -1.36411e-08 0)
(1.88345e-08 1.56553e-08 0)
(1.74219e-08 5.761e-09 0)
(1.79161e-08 -3.99827e-09 0)
(2.02027e-08 -1.46117e-08 0)
(2.32915e-08 1.63842e-08 0)
(2.21932e-08 6.21947e-09 0)
(2.2835e-08 -4.29338e-09 0)
(2.50758e-08 -1.52371e-08 0)
(2.80882e-08 1.67975e-08 0)
(2.73834e-08 6.49103e-09 0)
(2.81935e-08 -4.49399e-09 0)
(3.03556e-08 -1.5639e-08 0)
(3.32464e-08 1.69621e-08 0)
(3.29851e-08 6.59189e-09 0)
(3.39871e-08 -4.64712e-09 0)
(3.60733e-08 -1.59172e-08 0)
(3.87872e-08 1.69202e-08 0)
(3.89947e-08 6.53341e-09 0)
(4.02157e-08 -4.80316e-09 0)
(4.22604e-08 -1.61537e-08 0)
(4.47332e-08 1.66934e-08 0)
(4.542e-08 6.31882e-09 0)
(4.68913e-08 -5.0141e-09 0)
(4.8951e-08 -1.64196e-08 0)
(5.11069e-08 1.62846e-08 0)
(5.22764e-08 5.93988e-09 0)
(5.40335e-08 -5.33229e-09 0)
(5.61805e-08 -1.67781e-08 0)
(5.79312e-08 1.56791e-08 0)
(5.95872e-08 5.37527e-09 0)
(6.16708e-08 -5.81132e-09 0)
(6.3986e-08 -1.72889e-08 0)
(6.52296e-08 1.48453e-08 0)
(6.7382e-08 4.58938e-09 0)
(6.98378e-08 -6.50775e-09 0)
(7.24066e-08 -1.80121e-08 0)
(7.30271e-08 1.37348e-08 0)
(7.56954e-08 3.53147e-09 0)
(7.85749e-08 -7.48384e-09 0)
(8.14836e-08 -1.90115e-08 0)
(8.135e-08 1.22823e-08 0)
(8.4566e-08 2.13483e-09 0)
(8.79265e-08 -8.81079e-09 0)
(9.12611e-08 -2.03587e-08 0)
(9.02272e-08 1.04047e-08 0)
(9.40351e-08 3.15664e-10 0)
(9.79401e-08 -1.05723e-08 0)
(1.01786e-07 -2.21369e-08 0)
(9.96899e-08 8.00004e-09 0)
(1.04146e-07 -2.02857e-09 0)
(1.08665e-07 -1.2868e-08 0)
(1.13108e-07 -2.4445e-08 0)
(1.09773e-07 4.94519e-09 0)
(1.14944e-07 -5.02121e-09 0)
(1.20153e-07 -1.58178e-08 0)
(1.25278e-07 -2.7401e-08 0)
(1.20513e-07 1.09386e-09 0)
(1.26476e-07 -8.80892e-09 0)
(1.32456e-07 -1.95643e-08 0)
(1.38352e-07 -3.1146e-08 0)
(1.31952e-07 -3.72628e-09 0)
(1.38791e-07 -1.35645e-08 0)
(1.45626e-07 -2.42772e-08 0)
(1.52382e-07 -3.58471e-08 0)
(1.44137e-07 -9.71615e-09 0)
(1.51938e-07 -1.94895e-08 0)
(1.59716e-07 -3.01552e-08 0)
(1.67423e-07 -4.17005e-08 0)
(1.57614e-07 -1.73892e-08 0)
(1.66506e-07 -2.70957e-08 0)
(1.75354e-07 -3.7706e-08 0)
(1.8414e-07 -4.92093e-08 0)
(1.71945e-07 -2.68586e-08 0)
(1.82013e-07 -3.65002e-08 0)
(1.92016e-07 -4.70463e-08 0)
(2.01969e-07 -5.84869e-08 0)
(1.86196e-07 -3.75866e-08 0)
(1.97435e-07 -4.717e-08 0)
(2.08587e-07 -5.76464e-08 0)
(2.197e-07 -6.90062e-08 0)
(2.00385e-07 -4.9558e-08 0)
(2.12771e-07 -5.90898e-08 0)
(2.2505e-07 -6.94913e-08 0)
(2.373e-07 -8.07524e-08 0)
(2.14527e-07 -6.27402e-08 0)
(2.28022e-07 -7.2227e-08 0)
(2.41389e-07 -8.2548e-08 0)
(2.54738e-07 -9.36932e-08 0)
(2.28638e-07 -7.70836e-08 0)
(2.43187e-07 -8.65314e-08 0)
(2.5759e-07 -9.67665e-08 0)
(2.71984e-07 -1.07779e-07 0)
(2.4273e-07 -9.2522e-08 0)
(2.58267e-07 -1.01936e-07 0)
(2.73638e-07 -1.1208e-07 0)
(2.89008e-07 -1.22944e-07 0)
(2.56817e-07 -1.08974e-07 0)
(2.73259e-07 -1.18359e-07 0)
(2.89518e-07 -1.28408e-07 0)
(3.05783e-07 -1.39108e-07 0)
(2.70908e-07 -1.26345e-07 0)
(2.88162e-07 -1.35704e-07 0)
(3.05216e-07 -1.45652e-07 0)
(3.22283e-07 -1.56176e-07 0)
(2.85012e-07 -1.44525e-07 0)
(3.02972e-07 -1.53862e-07 0)
(3.2072e-07 -1.63704e-07 0)
(3.38483e-07 -1.74039e-07 0)
(2.99133e-07 -1.63398e-07 0)
(3.17687e-07 -1.72714e-07 0)
(3.36018e-07 -1.82445e-07 0)
(3.54365e-07 -1.9258e-07 0)
(3.13273e-07 -1.82836e-07 0)
(3.32302e-07 -1.9213e-07 0)
(3.51097e-07 -2.01746e-07 0)
(3.69909e-07 -2.11673e-07 0)
(3.27431e-07 -2.02706e-07 0)
(3.46811e-07 -2.11976e-07 0)
(3.65949e-07 -2.21472e-07 0)
(3.85101e-07 -2.31184e-07 0)
(3.41604e-07 -2.22871e-07 0)
(3.61207e-07 -2.32114e-07 0)
(3.80564e-07 -2.41486e-07 0)
(3.99929e-07 -2.50977e-07 0)
(3.55784e-07 -2.43192e-07 0)
(3.75484e-07 -2.52403e-07 0)
(3.94934e-07 -2.61647e-07 0)
(4.14385e-07 -2.70914e-07 0)
(3.69959e-07 -2.63532e-07 0)
(3.89631e-07 -2.72704e-07 0)
(4.09052e-07 -2.81816e-07 0)
(4.28465e-07 -2.90857e-07 0)
(3.84117e-07 -2.83756e-07 0)
(4.0364e-07 -2.92882e-07 0)
(4.22913e-07 -3.01858e-07 0)
(4.42167e-07 -3.10672e-07 0)
(3.98241e-07 -3.03737e-07 0)
(4.175e-07 -3.12807e-07 0)
(4.36513e-07 -3.21642e-07 0)
(4.55493e-07 -3.30232e-07 0)
(4.1231e-07 -3.23354e-07 0)
(4.31199e-07 -3.32357e-07 0)
(4.49847e-07 -3.41048e-07 0)
(4.68448e-07 -3.49416e-07 0)
(4.26302e-07 -3.42497e-07 0)
(4.44725e-07 -3.51422e-07 0)
(4.62914e-07 -3.59964e-07 0)
(4.81039e-07 -3.68115e-07 0)
(4.40194e-07 -3.61068e-07 0)
(4.58066e-07 -3.69901e-07 0)
(4.75712e-07 -3.78292e-07 0)
(4.93276e-07 -3.86231e-07 0)
(4.53959e-07 -3.78983e-07 0)
(4.71208e-07 -3.8771e-07 0)
(4.8824e-07 -3.95945e-07 0)
(5.05173e-07 -4.03678e-07 0)
(4.6757e-07 -3.96172e-07 0)
(4.84137e-07 -4.04778e-07 0)
(5.00499e-07 -4.12853e-07 0)
(5.16742e-07 -4.20388e-07 0)
(4.80997e-07 -4.12581e-07 0)
(4.9684e-07 -4.21051e-07 0)
(5.12489e-07 -4.28962e-07 0)
(5.27999e-07 -4.36307e-07 0)
(4.94212e-07 -4.28173e-07 0)
(5.09303e-07 -4.36491e-07 0)
(5.24211e-07 -4.44235e-07 0)
(5.38961e-07 -4.51397e-07 0)
(5.07185e-07 -4.42928e-07 0)
(5.21512e-07 -4.51079e-07 0)
(5.35666e-07 -4.58652e-07 0)
(5.49644e-07 -4.65639e-07 0)
(5.19888e-07 -4.56842e-07 0)
(5.33453e-07 -4.64811e-07 0)
(5.46857e-07 -4.72209e-07 0)
(5.60066e-07 -4.79029e-07 0)
(5.32293e-07 -4.6993e-07 0)
(5.45114e-07 -4.77701e-07 0)
(5.57785e-07 -4.8492e-07 0)
(5.70242e-07 -4.91581e-07 0)
(5.44373e-07 -4.8222e-07 0)
(5.56483e-07 -4.8978e-07 0)
(5.68451e-07 -4.96817e-07 0)
(5.80189e-07 -5.03325e-07 0)
(5.56103e-07 -4.93758e-07 0)
(5.67546e-07 -5.01094e-07 0)
(5.78856e-07 -5.07945e-07 0)
(5.8992e-07 -5.14305e-07 0)
(5.67461e-07 -5.04603e-07 0)
(5.78294e-07 -5.11702e-07 0)
(5.89001e-07 -5.18363e-07 0)
(5.99449e-07 -5.24581e-07 0)
(5.78426e-07 -5.14824e-07 0)
(5.88717e-07 -5.21676e-07 0)
(5.98887e-07 -5.28144e-07 0)
(6.08786e-07 -5.34223e-07 0)
(5.88981e-07 -5.24505e-07 0)
(5.98805e-07 -5.311e-07 0)
(6.08512e-07 -5.37371e-07 0)
(6.17939e-07 -5.43313e-07 0)
(5.99111e-07 -5.33734e-07 0)
(6.08551e-07 -5.40064e-07 0)
(6.17876e-07 -5.46135e-07 0)
(6.26913e-07 -5.5194e-07 0)
(6.08806e-07 -5.42607e-07 0)
(6.17949e-07 -5.48666e-07 0)
(6.26977e-07 -5.54533e-07 0)
(6.35712e-07 -5.60202e-07 0)
(6.18057e-07 -5.51225e-07 0)
(6.26993e-07 -5.57008e-07 0)
(6.35812e-07 -5.62668e-07 0)
(6.44334e-07 -5.68198e-07 0)
(6.2686e-07 -5.59687e-07 0)
(6.35679e-07 -5.65192e-07 0)
(6.44377e-07 -5.70641e-07 0)
(6.52777e-07 -5.76029e-07 0)
(6.35214e-07 -5.68094e-07 0)
(6.44005e-07 -5.7332e-07 0)
(6.52667e-07 -5.78555e-07 0)
(6.61033e-07 -5.83795e-07 0)
(6.4312e-07 -5.76543e-07 0)
(6.51967e-07 -5.8149e-07 0)
(6.60678e-07 -5.86508e-07 0)
(6.69095e-07 -5.91593e-07 0)
(6.50584e-07 -5.85125e-07 0)
(6.59566e-07 -5.89794e-07 0)
(6.68403e-07 -5.94593e-07 0)
(6.7695e-07 -5.99515e-07 0)
(6.57612e-07 -5.93923e-07 0)
(6.66801e-07 -5.98318e-07 0)
(6.75835e-07 -6.02893e-07 0)
(6.84585e-07 -6.07645e-07 0)
(6.64213e-07 -6.03011e-07 0)
(6.73674e-07 -6.07136e-07 0)
(6.82967e-07 -6.11486e-07 0)
(6.91983e-07 -6.16058e-07 0)
(6.704e-07 -6.12453e-07 0)
(6.80185e-07 -6.16313e-07 0)
(6.8979e-07 -6.20436e-07 0)
(6.99127e-07 -6.24817e-07 0)
(6.76183e-07 -6.22303e-07 0)
(6.86337e-07 -6.25903e-07 0)
(6.96298e-07 -6.29795e-07 0)
(7.05999e-07 -6.33976e-07 0)
(6.81578e-07 -6.32599e-07 0)
(6.92133e-07 -6.35946e-07 0)
(7.02482e-07 -6.39606e-07 0)
(7.1258e-07 -6.43575e-07 0)
(6.86597e-07 -6.4337e-07 0)
(6.97574e-07 -6.4647e-07 0)
(7.08333e-07 -6.49895e-07 0)
(7.18849e-07 -6.53643e-07 0)
(6.91254e-07 -6.5463e-07 0)
(7.02664e-07 -6.5749e-07 0)
(7.13843e-07 -6.6068e-07 0)
(7.24788e-07 -6.64195e-07 0)
(6.95564e-07 -6.66384e-07 0)
(7.07406e-07 -6.6901e-07 0)
(7.19004e-07 -6.71961e-07 0)
(7.30377e-07 -6.75234e-07 0)
(6.99539e-07 -6.7862e-07 0)
(7.11802e-07 -6.81019e-07 0)
(7.23809e-07 -6.8373e-07 0)
(7.35599e-07 -6.86752e-07 0)
(7.03192e-07 -6.91319e-07 0)
(7.15854e-07 -6.93495e-07 0)
(7.2825e-07 -6.95966e-07 0)
(7.40436e-07 -6.98728e-07 0)
(7.06533e-07 -7.04448e-07 0)
(7.19565e-07 -7.06407e-07 0)
(7.32321e-07 -7.08636e-07 0)
(7.44873e-07 -7.11131e-07 0)
(7.09572e-07 -7.17967e-07 0)
(7.22935e-07 -7.19712e-07 0)
(7.36017e-07 -7.21698e-07 0)
(7.48897e-07 -7.2392e-07 0)
(7.12315e-07 -7.31826e-07 0)
(7.25967e-07 -7.3336e-07 0)
(7.39332e-07 -7.35101e-07 0)
(7.52498e-07 -7.37045e-07 0)
(7.14765e-07 -7.45968e-07 0)
(7.28659e-07 -7.47293e-07 0)
(7.42262e-07 -7.48789e-07 0)
(7.55667e-07 -7.50452e-07 0)
(7.16925e-07 -7.60335e-07 0)
(7.31011e-07 -7.6145e-07 0)
(7.44806e-07 -7.62699e-07 0)
(7.584e-07 -7.64081e-07 0)
(7.18792e-07 -7.74865e-07 0)
(7.3302e-07 -7.75767e-07 0)
(7.4696e-07 -7.76768e-07 0)
(7.60696e-07 -7.7787e-07 0)
(7.20361e-07 -7.89497e-07 0)
(7.34685e-07 -7.90182e-07 0)
(7.48727e-07 -7.90934e-07 0)
(7.62559e-07 -7.91756e-07 0)
(7.21618e-07 -8.04171e-07 0)
(7.35995e-07 -8.04634e-07 0)
(7.50101e-07 -8.05138e-07 0)
(7.63992e-07 -8.05687e-07 0)
(7.22566e-07 -8.18837e-07 0)
(7.36963e-07 -8.19072e-07 0)
(7.51102e-07 -8.19329e-07 0)
(7.65023e-07 -8.1961e-07 0)
(7.23145e-07 -8.33407e-07 0)
(7.37542e-07 -8.3344e-07 0)
(7.51693e-07 -8.33479e-07 0)
(7.65621e-07 -8.33541e-07 0)
)
;

boundaryField
{
    plateFix
    {
        type            fixedDisplacement;
        value           uniform (0 0 0);
    }
    plate
    {
        type            solidTraction;
        nonLinear       updatedLagrangian;
        traction        uniform (0 0 0);
        pressure        uniform 0;
        value           nonuniform List<vector> 
168
(
(1.35871e-08 7.25345e-09 3.60133e-26)
(1.33004e-08 -7.42727e-09 -7.04792e-27)
(1.31472e-08 1.17721e-08 -6.70785e-27)
(1.29541e-08 -1.1813e-08 7.24282e-27)
(1.35787e-08 1.52756e-08 -6.70525e-27)
(1.35796e-08 -1.5156e-08 1.02806e-26)
(1.50102e-08 1.77344e-08 -6.94736e-27)
(1.52986e-08 -1.74347e-08 1.27776e-26)
(1.73762e-08 1.94747e-08 8.60357e-28)
(1.80459e-08 -1.90089e-08 2.69417e-27)
(2.04862e-08 2.06443e-08 -6.71982e-28)
(2.16253e-08 -2.00497e-08 5.45053e-27)
(2.42334e-08 2.13966e-08 -1.15349e-26)
(2.59324e-08 -2.07379e-08 -1.37939e-26)
(2.85317e-08 2.18252e-08 2.03724e-26)
(3.0887e-08 -2.11953e-08 1.24774e-26)
(3.33327e-08 2.20004e-08 -1.75313e-26)
(3.64502e-08 -2.15258e-08 -1.64947e-26)
(3.86054e-08 2.19637e-08 2.92873e-27)
(4.26037e-08 -2.18111e-08 9.38148e-27)
(4.43346e-08 2.17369e-08 1.65516e-26)
(4.93474e-08 -2.21219e-08 4.07752e-27)
(5.05148e-08 2.13222e-08 1.47231e-27)
(5.66929e-08 -2.25208e-08 3.62291e-27)
(5.71487e-08 2.0705e-08 -1.01911e-26)
(6.46619e-08 -2.30676e-08 -8.62458e-27)
(6.42451e-08 1.98539e-08 1.00821e-28)
(7.32842e-08 -2.38222e-08 -9.913e-28)
(7.1818e-08 1.87212e-08 1.29507e-30)
(8.25964e-08 -2.48485e-08 6.91138e-27)
(7.98864e-08 1.72422e-08 -4.10429e-27)
(9.26412e-08 -2.62185e-08 1.09506e-28)
(8.84735e-08 1.53347e-08 7.32266e-27)
(1.03467e-07 -2.80154e-08 3.29166e-28)
(9.76064e-08 1.28976e-08 1.09569e-26)
(1.15125e-07 -3.03379e-08 -3.03258e-27)
(1.07316e-07 9.80845e-09 -1.58721e-26)
(1.2767e-07 -3.33038e-08 -1.59792e-27)
(1.17638e-07 5.92182e-09 4.12003e-27)
(1.41161e-07 -3.70534e-08 -9.3538e-27)
(1.28612e-07 1.06609e-09 -9.74788e-27)
(1.55653e-07 -4.17528e-08 -1.06856e-27)
(1.40284e-07 -4.95896e-09 6.88123e-27)
(1.71203e-07 -4.75972e-08 -7.1352e-27)
(1.53177e-07 -1.2667e-08 2.50696e-27)
(1.88497e-07 -5.50866e-08 -6.47595e-29)
(1.66878e-07 -2.21692e-08 -7.90502e-28)
(2.06949e-07 -6.4333e-08 -3.57759e-27)
(1.80504e-07 -3.29247e-08 -4.06166e-27)
(2.25297e-07 -7.48102e-08 -8.19357e-27)
(1.94079e-07 -4.49186e-08 8.08974e-27)
(2.43504e-07 -8.65037e-08 1.45115e-27)
(2.07628e-07 -5.81184e-08 -8.12131e-27)
(2.61528e-07 -9.93812e-08 3.41701e-27)
(2.21174e-07 -7.24747e-08 2.04976e-27)
(2.79331e-07 -1.13394e-07 2.13326e-28)
(2.34738e-07 -8.79217e-08 -1.12642e-26)
(2.96875e-07 -1.28477e-07 1.20261e-26)
(2.48342e-07 -1.04379e-07 -3.51694e-27)
(3.14126e-07 -1.44549e-07 -2.41833e-26)
(2.62e-07 -1.21751e-07 5.5056e-27)
(3.31051e-07 -1.61517e-07 -1.43597e-27)
(2.75727e-07 -1.39931e-07 1.92599e-27)
(3.47621e-07 -1.79274e-07 -6.20373e-27)
(2.89533e-07 -1.58802e-07 -2.44641e-27)
(3.63809e-07 -1.97702e-07 -3.26616e-28)
(3.03423e-07 -1.78238e-07 -4.62003e-27)
(3.79596e-07 -2.16677e-07 -1.5023e-26)
(3.17399e-07 -1.98106e-07 -4.14552e-27)
(3.94962e-07 -2.36067e-07 7.72405e-27)
(3.31458e-07 -2.1827e-07 -3.55135e-27)
(4.09897e-07 -2.55735e-07 1.07848e-26)
(3.45593e-07 -2.38593e-07 -2.20388e-27)
(4.2439e-07 -2.75546e-07 6.86626e-27)
(3.59792e-07 -2.58938e-07 -2.6079e-27)
(4.38439e-07 -2.95362e-07 1.40218e-26)
(3.74039e-07 -2.79172e-07 -8.86057e-27)
(4.52045e-07 -3.15052e-07 -5.76297e-27)
(3.88313e-07 -2.99169e-07 4.35013e-28)
(4.65213e-07 -3.34487e-07 -6.26308e-27)
(4.02591e-07 -3.18808e-07 -1.65969e-27)
(4.77952e-07 -3.53549e-07 8.65848e-27)
(4.16844e-07 -3.37981e-07 -5.54848e-27)
(4.90276e-07 -3.7213e-07 5.52765e-27)
(4.31042e-07 -3.56589e-07 1.68236e-27)
(5.022e-07 -3.90131e-07 1.07608e-27)
(4.45152e-07 -3.7455e-07 -1.88014e-27)
(5.13745e-07 -4.07469e-07 3.68582e-27)
(4.59138e-07 -3.91794e-07 3.9445e-27)
(5.24932e-07 -4.24074e-07 4.52899e-27)
(4.72964e-07 -4.08267e-07 -8.38874e-27)
(5.35784e-07 -4.39894e-07 2.02637e-27)
(4.86592e-07 -4.23932e-07 2.25423e-27)
(5.46326e-07 -4.54891e-07 -7.72287e-27)
(4.99984e-07 -4.3877e-07 2.80374e-27)
(5.56584e-07 -4.69045e-07 2.61019e-27)
(5.13104e-07 -4.52776e-07 3.46566e-27)
(5.66584e-07 -4.82353e-07 -8.56295e-27)
(5.25915e-07 -4.65965e-07 4.34416e-28)
(5.76349e-07 -4.94829e-07 1.90544e-28)
(5.38382e-07 -4.78365e-07 2.18707e-29)
(5.85902e-07 -5.06501e-07 2.16538e-29)
(5.50474e-07 -4.90021e-07 -3.52164e-28)
(5.95267e-07 -5.17413e-07 3.2709e-28)
(5.62162e-07 -5.00991e-07 4.29629e-28)
(6.04461e-07 -5.27625e-07 -3.70874e-27)
(5.73418e-07 -5.11345e-07 5.0652e-27)
(6.13502e-07 -5.37206e-07 -6.97922e-27)
(5.84222e-07 -5.21162e-07 6.90541e-27)
(6.22401e-07 -5.46237e-07 3.47073e-27)
(5.94555e-07 -5.30533e-07 -4.39828e-27)
(6.31168e-07 -5.54806e-07 -9.12128e-27)
(6.04404e-07 -5.39552e-07 1.67514e-26)
(6.39808e-07 -5.63009e-07 -1.95475e-27)
(6.13759e-07 -5.48317e-07 1.79859e-27)
(6.48322e-07 -5.70946e-07 -1.45747e-26)
(6.22616e-07 -5.56928e-07 1.49669e-26)
(6.56707e-07 -5.78715e-07 7.00021e-27)
(6.30975e-07 -5.65485e-07 4.3969e-29)
(6.64955e-07 -5.86417e-07 9.9473e-28)
(6.38839e-07 -5.74083e-07 -1.57522e-28)
(6.73054e-07 -5.94147e-07 7.87671e-27)
(6.46217e-07 -5.82812e-07 -4.16948e-29)
(6.80991e-07 -6.01997e-07 7.80564e-30)
(6.5312e-07 -5.91754e-07 -7.82964e-27)
(6.88747e-07 -6.10049e-07 8.00442e-27)
(6.59563e-07 -6.00984e-07 7.90848e-27)
(6.96301e-07 -6.18378e-07 1.23273e-28)
(6.65561e-07 -6.10564e-07 2.57819e-26)
(7.03631e-07 -6.27047e-07 8.95227e-29)
(6.71133e-07 -6.20547e-07 -1.63249e-26)
(7.10711e-07 -6.36109e-07 -1.25431e-28)
(6.76298e-07 -6.30973e-07 8.2302e-27)
(7.17517e-07 -6.45605e-07 -8.3411e-27)
(6.81078e-07 -6.41869e-07 -1.39899e-29)
(7.24022e-07 -6.55564e-07 4.4234e-28)
(6.85492e-07 -6.5325e-07 8.65104e-27)
(7.30202e-07 -6.66e-07 -8.63122e-27)
(6.89559e-07 -6.6512e-07 -1.74628e-26)
(7.3603e-07 -6.76917e-07 -6.33184e-28)
(6.933e-07 -6.77468e-07 7.62325e-27)
(7.41484e-07 -6.88308e-07 8.90099e-27)
(6.96731e-07 -6.90275e-07 -9.15244e-27)
(7.4654e-07 -7.00151e-07 9.22979e-27)
(6.99869e-07 -7.03509e-07 1.847e-26)
(7.51178e-07 -7.12416e-07 -9.20635e-27)
(7.02726e-07 -7.1713e-07 -9.32125e-27)
(7.55381e-07 -7.25064e-07 5.80644e-28)
(7.05314e-07 -7.31088e-07 -1.05e-26)
(7.59133e-07 -7.38045e-07 9.05781e-27)
(7.07639e-07 -7.4533e-07 -1.54068e-29)
(7.62425e-07 -7.51306e-07 -1.61677e-30)
(7.09704e-07 -7.59796e-07 4.18342e-30)
(7.65251e-07 -7.64788e-07 4.91712e-30)
(7.11506e-07 -7.74426e-07 1.08462e-26)
(7.67609e-07 -7.78431e-07 9.67263e-27)
(7.1304e-07 -7.89161e-07 -1.02317e-26)
(7.69505e-07 -7.92173e-07 -9.9498e-27)
(7.1429e-07 -8.0394e-07 -1.14213e-29)
(7.70944e-07 -8.05964e-07 -1.05364e-26)
(7.15265e-07 -8.18721e-07 1.08274e-26)
(7.71972e-07 -8.19746e-07 1.08233e-26)
(7.159e-07 -8.33394e-07 -2.18195e-26)
(7.23313e-07 -8.40633e-07 -1.87752e-26)
(7.37715e-07 -8.40584e-07 9.58642e-27)
(7.51869e-07 -8.4051e-07 -7.48478e-30)
(7.65793e-07 -8.40511e-07 4.89408e-28)
(7.72572e-07 -8.33561e-07 1.83697e-28)
)
;
    }
    frontAndBackPlanes
    {
        type            empty;
    }
}


// ************************************************************************* //
