/*--------------------------------*- C++ -*----------------------------------*\
| =========                 |                                                 |
| \\      /  F ield         | OpenFOAM Extend Project: Open source CFD        |
|  \\    /   O peration     | Version:  1.6-ext                               |
|   \\  /    A nd           | Web:      www.extend-project.de                 |
|    \\/     M anipulation  |                                                 |
\*---------------------------------------------------------------------------*/
FoamFile
{
    version     2.0;
    format      ascii;
    class       volVectorField;
    location    "1.05";
    object      DV;
}
// * * * * * * * * * * * * * * * * * * * * * * * * * * * * * * * * * * * * * //

dimensions      [0 1 -1 0 0 0 0];

internalField   nonuniform List<vector> 
328
(
(3.11447e-09 7.44245e-09 0)
(-4.31099e-09 4.63238e-09 0)
(-8.68077e-09 1.17329e-08 0)
(-2.19244e-08 4.14661e-08 0)
(9.1464e-09 2.56719e-08 0)
(-1.36497e-08 2.19017e-08 0)
(-2.89776e-08 4.26481e-08 0)
(-6.64774e-08 1.12979e-07 0)
(1.4803e-08 5.07591e-08 0)
(-2.53036e-08 4.85721e-08 0)
(-5.62169e-08 8.22249e-08 0)
(-1.16512e-07 1.77684e-07 0)
(1.95119e-08 8.42616e-08 0)
(-3.92255e-08 8.53042e-08 0)
(-8.75476e-08 1.30092e-07 0)
(-1.69539e-07 2.39323e-07 0)
(2.27448e-08 1.2723e-07 0)
(-5.58151e-08 1.32485e-07 0)
(-1.23173e-07 1.86261e-07 0)
(-2.25643e-07 3.01783e-07 0)
(2.39241e-08 1.80575e-07 0)
(-7.5144e-08 1.90705e-07 0)
(-1.62101e-07 2.51211e-07 0)
(-2.84062e-07 3.68154e-07 0)
(2.24324e-08 2.45077e-07 0)
(-9.73851e-08 2.60505e-07 0)
(-2.04072e-07 3.25679e-07 0)
(-3.44504e-07 4.41006e-07 0)
(1.76006e-08 3.21441e-07 0)
(-1.22663e-07 3.42478e-07 0)
(-2.48646e-07 4.10573e-07 0)
(-4.06543e-07 5.22378e-07 0)
(8.69208e-09 4.10269e-07 0)
(-1.51169e-07 4.37167e-07 0)
(-2.95589e-07 5.06829e-07 0)
(-4.69801e-07 6.13907e-07 0)
(-5.10568e-09 5.1205e-07 0)
(-1.83141e-07 5.45051e-07 0)
(-3.44669e-07 6.1531e-07 0)
(-5.33823e-07 7.16855e-07 0)
(-2.46956e-08 6.27105e-07 0)
(-2.18901e-07 6.66453e-07 0)
(-3.95727e-07 7.36683e-07 0)
(-5.98097e-07 8.32119e-07 0)
(-5.10796e-08 7.55515e-07 0)
(-2.58843e-07 8.01464e-07 0)
(-4.48621e-07 8.71312e-07 0)
(-6.62017e-07 9.60195e-07 0)
(-8.53685e-08 8.97017e-07 0)
(-3.03447e-07 9.4982e-07 0)
(-5.03237e-07 1.01914e-06 0)
(-7.24888e-07 1.10111e-06 0)
(-1.28786e-07 1.05087e-06 0)
(-3.53268e-07 1.11077e-06 0)
(-5.59465e-07 1.17955e-06 0)
(-7.85919e-07 1.2543e-06 0)
(-1.82673e-07 1.21571e-06 0)
(-4.08929e-07 1.28291e-06 0)
(-6.17198e-07 1.3512e-06 0)
(-8.44232e-07 1.4185e-06 0)
(-2.48478e-07 1.38929e-06 0)
(-4.71113e-07 1.46396e-06 0)
(-6.76322e-07 1.53185e-06 0)
(-8.98868e-07 1.59153e-06 0)
(-3.27751e-07 1.56834e-06 0)
(-5.40549e-07 1.65056e-06 0)
(-7.36717e-07 1.71816e-06 0)
(-9.48803e-07 1.77012e-06 0)
(-4.22118e-07 1.74819e-06 0)
(-6.18003e-07 1.83798e-06 0)
(-7.98255e-07 1.90535e-06 0)
(-9.92969e-07 1.9496e-06 0)
(-5.33248e-07 1.92252e-06 0)
(-7.04255e-07 2.01979e-06 0)
(-8.60808e-07 2.087e-06 0)
(-1.03029e-06 2.12363e-06 0)
(-6.62795e-07 2.083e-06 0)
(-8.00082e-07 2.1875e-06 0)
(-9.24268e-07 2.25459e-06 0)
(-1.05973e-06 2.28385e-06 0)
(-8.12327e-07 2.21888e-06 0)
(-9.06229e-07 2.33019e-06 0)
(-9.88557e-07 2.39719e-06 0)
(-1.08036e-06 2.41949e-06 0)
(-9.83164e-07 2.31659e-06 0)
(-1.02336e-06 2.43411e-06 0)
(-1.05368e-06 2.50103e-06 0)
(-1.09152e-06 2.51699e-06 0)
(-1.18372e-06 2.36109e-06 0)
(-1.15693e-06 2.48413e-06 0)
(-1.12226e-06 2.55097e-06 0)
(-1.09281e-06 2.56125e-06 0)
(-1.40781e-06 2.32176e-06 0)
(-1.30266e-06 2.44902e-06 0)
(-1.19178e-06 2.51577e-06 0)
(-1.08366e-06 2.52169e-06 0)
(-1.63777e-06 2.18957e-06 0)
(-1.44989e-06 2.31925e-06 0)
(-1.25847e-06 2.38592e-06 0)
(-1.0673e-06 2.38925e-06 0)
(-1.87005e-06 1.961e-06 0)
(-1.59737e-06 2.09128e-06 0)
(-1.32337e-06 2.15785e-06 0)
(-1.04711e-06 2.1604e-06 0)
(-2.10101e-06 1.63511e-06 0)
(-1.74386e-06 1.76419e-06 0)
(-1.38757e-06 1.83065e-06 0)
(-1.02654e-06 1.83418e-06 0)
(-2.32707e-06 1.21368e-06 0)
(-1.8881e-06 1.33977e-06 0)
(-1.45213e-06 1.40608e-06 0)
(-1.00901e-06 1.41234e-06 0)
(-2.54474e-06 7.01083e-07 0)
(-2.02893e-06 8.22451e-07 0)
(-1.5181e-06 8.88579e-07 0)
(-9.97869e-07 8.99223e-07 0)
(-2.75074e-06 1.04228e-07 0)
(-2.1652e-06 2.19263e-07 0)
(-1.58647e-06 2.8516e-07 0)
(-9.96258e-07 3.017e-07 0)
(-2.94209e-06 -5.67652e-07 0)
(-2.29591e-06 -4.60423e-07 0)
(-1.65814e-06 -3.94816e-07 0)
(-1.00706e-06 -3.7103e-07 0)
(-3.11613e-06 -1.30324e-06 0)
(-2.42016e-06 -1.20511e-06 0)
(-1.73393e-06 -1.13986e-06 0)
(-1.03283e-06 -1.10768e-06 0)
(-3.27065e-06 -2.08942e-06 0)
(-2.53718e-06 -2.00148e-06 0)
(-1.81452e-06 -1.93667e-06 0)
(-1.07573e-06 -1.89518e-06 0)
(-3.40385e-06 -2.9116e-06 0)
(-2.64639e-06 -2.83469e-06 0)
(-1.90046e-06 -2.77043e-06 0)
(-1.13747e-06 -2.71894e-06 0)
(-3.51448e-06 -3.75404e-06 0)
(-2.74735e-06 -3.68878e-06 0)
(-1.99212e-06 -3.62515e-06 0)
(-1.21927e-06 -3.56327e-06 0)
(-3.60179e-06 -4.60026e-06 0)
(-2.8398e-06 -4.54698e-06 0)
(-2.08974e-06 -4.48409e-06 0)
(-1.32186e-06 -4.41171e-06 0)
(-3.66557e-06 -5.43341e-06 0)
(-2.92368e-06 -5.39219e-06 0)
(-2.19337e-06 -5.33016e-06 0)
(-1.44541e-06 -5.24742e-06 0)
(-3.7062e-06 -6.2367e-06 0)
(-2.9991e-06 -6.20733e-06 0)
(-2.30288e-06 -6.14628e-06 0)
(-1.58953e-06 -6.05364e-06 0)
(-3.72458e-06 -6.99385e-06 0)
(-3.06636e-06 -6.97585e-06 0)
(-2.41796e-06 -6.91588e-06 0)
(-1.75331e-06 -6.81405e-06 0)
(-3.72215e-06 -7.68945e-06 0)
(-3.12591e-06 -7.68208e-06 0)
(-2.53813e-06 -7.62332e-06 0)
(-1.9353e-06 -7.51328e-06 0)
(-3.70081e-06 -8.30939e-06 0)
(-3.17838e-06 -8.31169e-06 0)
(-2.66275e-06 -8.25424e-06 0)
(-2.13356e-06 -8.13718e-06 0)
(-3.66292e-06 -8.84123e-06 0)
(-3.22454e-06 -8.852e-06 0)
(-2.79104e-06 -8.79598e-06 0)
(-2.34572e-06 -8.67329e-06 0)
(-3.6112e-06 -9.27446e-06 0)
(-3.26526e-06 -9.29234e-06 0)
(-2.92207e-06 -9.23784e-06 0)
(-2.56901e-06 -9.1111e-06 0)
(-3.54867e-06 -9.60081e-06 0)
(-3.30151e-06 -9.62429e-06 0)
(-3.05485e-06 -9.57139e-06 0)
(-2.80039e-06 -9.44227e-06 0)
(-3.47854e-06 -9.8144e-06 0)
(-3.33433e-06 -9.84186e-06 0)
(-3.18825e-06 -9.79064e-06 0)
(-3.03655e-06 -9.66091e-06 0)
(-3.40418e-06 -9.91188e-06 0)
(-3.36481e-06 -9.94163e-06 0)
(-3.32114e-06 -9.89216e-06 0)
(-3.27407e-06 -9.76362e-06 0)
(-3.329e-06 -9.8925e-06 0)
(-3.39401e-06 -9.92285e-06 0)
(-3.45234e-06 -9.87515e-06 0)
(-3.50945e-06 -9.7496e-06 0)
(-3.25637e-06 -9.75812e-06 0)
(-3.42303e-06 -9.78738e-06 0)
(-3.58067e-06 -9.7415e-06 0)
(-3.73921e-06 -9.62067e-06 0)
(-3.18955e-06 -9.51314e-06 0)
(-3.45288e-06 -9.5397e-06 0)
(-3.70498e-06 -9.49564e-06 0)
(-3.95997e-06 -9.38119e-06 0)
(-3.13161e-06 -9.16443e-06 0)
(-3.48452e-06 -9.18675e-06 0)
(-3.82418e-06 -9.14452e-06 0)
(-4.16854e-06 -9.03797e-06 0)
(-3.08533e-06 -8.72111e-06 0)
(-3.51883e-06 -8.7378e-06 0)
(-3.93726e-06 -8.69737e-06 0)
(-4.36197e-06 -8.60008e-06 0)
(-3.05317e-06 -8.19433e-06 0)
(-3.55656e-06 -8.20417e-06 0)
(-4.0433e-06 -8.16553e-06 0)
(-4.53766e-06 -8.07866e-06 0)
(-3.0372e-06 -7.597e-06 0)
(-3.59832e-06 -7.59897e-06 0)
(-4.14152e-06 -7.56207e-06 0)
(-4.69339e-06 -7.48657e-06 0)
(-3.03903e-06 -6.94345e-06 0)
(-3.6446e-06 -6.93673e-06 0)
(-4.23127e-06 -6.90153e-06 0)
(-4.82735e-06 -6.8381e-06 0)
(-3.05983e-06 -6.24905e-06 0)
(-3.69572e-06 -6.23305e-06 0)
(-4.31204e-06 -6.19949e-06 0)
(-4.93822e-06 -6.14861e-06 0)
(-3.10029e-06 -5.52983e-06 0)
(-3.75186e-06 -5.5042e-06 0)
(-4.3835e-06 -5.4722e-06 0)
(-5.02513e-06 -5.43411e-06 0)
(-3.16065e-06 -4.80214e-06 0)
(-3.81304e-06 -4.76672e-06 0)
(-4.44543e-06 -4.73623e-06 0)
(-5.08766e-06 -4.71092e-06 0)
(-3.24072e-06 -4.08224e-06 0)
(-3.87916e-06 -4.03711e-06 0)
(-4.49778e-06 -4.00805e-06 0)
(-5.12584e-06 -3.99532e-06 0)
(-3.33994e-06 -3.38609e-06 0)
(-3.94997e-06 -3.3315e-06 0)
(-4.54063e-06 -3.30381e-06 0)
(-5.14006e-06 -3.30326e-06 0)
(-3.4574e-06 -2.72906e-06 0)
(-4.02512e-06 -2.66544e-06 0)
(-4.57416e-06 -2.63904e-06 0)
(-5.13108e-06 -2.65011e-06 0)
(-3.59186e-06 -2.12574e-06 0)
(-4.10417e-06 -2.0537e-06 0)
(-4.59867e-06 -2.02854e-06 0)
(-5.09998e-06 -2.05048e-06 0)
(-3.74182e-06 -1.58984e-06 0)
(-4.18655e-06 -1.51015e-06 0)
(-4.61458e-06 -1.48616e-06 0)
(-5.04813e-06 -1.51809e-06 0)
(-3.90544e-06 -1.13401e-06 0)
(-4.27162e-06 -1.04761e-06 0)
(-4.6224e-06 -1.02475e-06 0)
(-4.9772e-06 -1.06563e-06 0)
(-4.08061e-06 -7.69685e-07 0)
(-4.35861e-06 -6.77694e-07 0)
(-4.62276e-06 -6.55916e-07 0)
(-4.88921e-06 -7.04535e-07 0)
(-4.26488e-06 -5.06864e-07 0)
(-4.44667e-06 -4.10574e-07 0)
(-4.61639e-06 -3.89845e-07 0)
(-4.78648e-06 -4.44841e-07 0)
(-4.45544e-06 -3.53807e-07 0)
(-4.53484e-06 -2.54683e-07 0)
(-4.60414e-06 -2.34979e-07 0)
(-4.6717e-06 -2.94839e-07 0)
(-4.64918e-06 -3.16697e-07 0)
(-4.62207e-06 -2.16352e-07 0)
(-4.58699e-06 -1.97659e-07 0)
(-4.5479e-06 -2.6074e-07 0)
(-4.84274e-06 -3.99273e-07 0)
(-4.70723e-06 -2.99423e-07 0)
(-4.56599e-06 -2.81739e-07 0)
(-4.4184e-06 -3.46315e-07 0)
(-5.03257e-06 -6.02509e-07 0)
(-4.78917e-06 -5.04914e-07 0)
(-4.54226e-06 -4.88246e-07 0)
(-4.2867e-06 -5.52571e-07 0)
(-5.21516e-06 -9.24425e-07 0)
(-4.86674e-06 -8.30809e-07 0)
(-4.51696e-06 -8.15172e-07 0)
(-4.15631e-06 -8.77553e-07 0)
(-5.38717e-06 -1.36006e-06 0)
(-4.93889e-06 -1.27203e-06 0)
(-4.49117e-06 -1.25744e-06 0)
(-4.03063e-06 -1.31633e-06 0)
(-5.54561e-06 -1.90169e-06 0)
(-5.00468e-06 -1.82063e-06 0)
(-4.4659e-06 -1.80713e-06 0)
(-3.91269e-06 -1.86118e-06 0)
(-5.68804e-06 -2.53921e-06 0)
(-5.06336e-06 -2.46623e-06 0)
(-4.44203e-06 -2.45385e-06 0)
(-3.80507e-06 -2.50202e-06 0)
(-5.81267e-06 -3.26067e-06 0)
(-5.11439e-06 -3.19658e-06 0)
(-4.42022e-06 -3.18533e-06 0)
(-3.70966e-06 -3.2269e-06 0)
(-5.91844e-06 -4.05296e-06 0)
(-5.1575e-06 -3.99818e-06 0)
(-4.40093e-06 -3.98809e-06 0)
(-3.62771e-06 -4.02271e-06 0)
(-6.00502e-06 -4.90245e-06 0)
(-5.19264e-06 -4.85706e-06 0)
(-4.3844e-06 -4.84812e-06 0)
(-3.55967e-06 -4.87575e-06 0)
(-6.07281e-06 -5.79562e-06 0)
(-5.22004e-06 -5.75934e-06 0)
(-4.37068e-06 -5.7515e-06 0)
(-3.50536e-06 -5.77248e-06 0)
(-6.12279e-06 -6.71971e-06 0)
(-5.24009e-06 -6.69195e-06 0)
(-4.35957e-06 -6.68509e-06 0)
(-3.46381e-06 -6.69999e-06 0)
(-6.15665e-06 -7.66307e-06 0)
(-5.25364e-06 -7.64297e-06 0)
(-4.35096e-06 -7.63688e-06 0)
(-3.43371e-06 -7.64655e-06 0)
(-6.17594e-06 -8.6154e-06 0)
(-5.26122e-06 -8.60186e-06 0)
(-4.34417e-06 -8.5964e-06 0)
(-3.41273e-06 -8.6019e-06 0)
(-6.18387e-06 -9.56669e-06 0)
(-5.26474e-06 -9.55909e-06 0)
(-4.33957e-06 -9.55527e-06 0)
(-3.39916e-06 -9.55848e-06 0)
(-6.18017e-06 -1.05059e-05 0)
(-5.26174e-06 -1.05053e-05 0)
(-4.3333e-06 -1.05071e-05 0)
(-3.38778e-06 -1.05137e-05 0)
)
;

boundaryField
{
    plateFix
    {
        type            calculated;
        value           uniform (0 0 0);
    }
    plate
    {
        type            calculated;
        value           nonuniform List<vector> 
168
(
(4.36356e-08 2.05659e-08 -1.21043e-22)
(-2.12463e-07 1.11255e-07 6.45513e-24)
(5.92538e-08 3.77877e-08 6.034e-23)
(-2.25968e-07 1.83827e-07 -1.99046e-23)
(7.80618e-08 6.12854e-08 4.5888e-24)
(-2.54296e-07 2.49834e-07 6.7445e-24)
(9.65747e-08 9.26452e-08 2.94221e-23)
(-2.95532e-07 3.10558e-07 -5.28346e-23)
(1.13304e-07 1.33045e-07 -1.93107e-23)
(-3.47406e-07 3.71463e-07 -2.54874e-23)
(1.27302e-07 1.83454e-07 4.33507e-24)
(-4.06587e-07 4.35514e-07 -1.36147e-23)
(1.37713e-07 2.4471e-07 5.69525e-23)
(-4.70931e-07 5.05631e-07 6.6928e-23)
(1.43716e-07 3.17559e-07 -6.67898e-23)
(-5.38611e-07 5.83902e-07 -5.86506e-23)
(1.44443e-07 4.02635e-07 3.57521e-23)
(-6.08249e-07 6.72042e-07 4.41174e-23)
(1.38954e-07 5.00451e-07 -5.10361e-24)
(-6.78627e-07 7.71334e-07 -6.582e-24)
(1.26193e-07 6.11346e-07 -4.96497e-23)
(-7.48632e-07 8.82692e-07 -2.62898e-23)
(1.04971e-07 7.35419e-07 1.68812e-23)
(-8.17148e-07 1.00663e-06 -1.18275e-23)
(7.39383e-08 8.72424e-07 1.43194e-23)
(-8.83019e-07 1.14318e-06 2.50828e-23)
(3.1585e-08 1.02164e-06 -5.02624e-24)
(-9.45016e-07 1.29181e-06 7.09536e-24)
(-2.37656e-08 1.18172e-06 -2.5302e-24)
(-1.00183e-06 1.45129e-06 -2.16302e-23)
(-9.39453e-08 1.35048e-06 1.7417e-23)
(-1.05205e-06 1.61949e-06 -9.67446e-24)
(-1.80926e-07 1.52464e-06 -2.44907e-23)
(-1.09422e-06 1.79317e-06 1.40127e-24)
(-2.86787e-07 1.69962e-06 -2.14547e-23)
(-1.1268e-06 1.96773e-06 -1.18541e-24)
(-4.13673e-07 1.86916e-06 3.88501e-23)
(-1.14823e-06 2.13691e-06 1.89011e-23)
(-5.63721e-07 2.025e-06 -1.3361e-23)
(-1.15701e-06 2.29243e-06 1.68144e-23)
(-7.38958e-07 2.15649e-06 2.70768e-23)
(-1.15175e-06 2.42362e-06 8.64287e-24)
(-9.41114e-07 2.25019e-06 -4.98993e-24)
(-1.13138e-06 2.51705e-06 3.15801e-23)
(-1.18039e-06 2.29116e-06 3.36464e-25)
(-1.09372e-06 2.5577e-06 -4.8584e-25)
(-1.44916e-06 2.24911e-06 1.3398e-23)
(-1.03958e-06 2.51536e-06 1.98352e-23)
(-1.72618e-06 2.11533e-06 2.85394e-24)
(-9.75887e-07 2.38128e-06 2.79934e-23)
(-2.00663e-06 1.88633e-06 -2.94405e-23)
(-9.07244e-07 2.15194e-06 -1.08105e-23)
(-2.28557e-06 1.56119e-06 3.26094e-23)
(-8.38425e-07 1.82641e-06 1.13805e-23)
(-2.5581e-06 1.14166e-06 1.13697e-23)
(-7.74182e-07 1.40637e-06 -1.72042e-24)
(-2.81943e-06 6.32081e-07 3.2446e-23)
(-7.19134e-07 8.96134e-07 -2.89553e-23)
(-3.06508e-06 3.92807e-08 1.31482e-23)
(-6.77637e-07 3.02486e-07 6.69529e-23)
(-3.29097e-06 -6.27601e-07 -2.41596e-23)
(-6.53678e-07 -3.65486e-07 1.55198e-23)
(-3.49347e-06 -1.35736e-06 6.42871e-24)
(-6.50776e-07 -1.09663e-06 -5.94796e-25)
(-3.66954e-06 -2.13702e-06 2.38812e-24)
(-6.71908e-07 -1.878e-06 2.8489e-24)
(-3.81675e-06 -2.95213e-06 8.14418e-24)
(-7.19443e-07 -2.6952e-06 2.9412e-23)
(-3.93335e-06 -3.78713e-06 7.3453e-24)
(-7.95082e-07 -3.53269e-06 -3.74491e-23)
(-4.01833e-06 -4.62569e-06 1.69651e-23)
(-8.99818e-07 -4.37419e-06 -3.52514e-23)
(-4.0714e-06 -5.45115e-06 3.45512e-24)
(-1.0339e-06 -5.20306e-06 -1.70896e-23)
(-4.09307e-06 -6.2469e-06 7.91748e-24)
(-1.19681e-06 -6.0027e-06 -4.25476e-23)
(-4.08458e-06 -6.99683e-06 2.39982e-23)
(-1.38729e-06 -6.75701e-06 2.87388e-23)
(-4.0479e-06 -7.6857e-06 -5.25593e-24)
(-1.60335e-06 -7.45072e-06 2.13183e-23)
(-3.9857e-06 -8.29956e-06 9.34912e-24)
(-1.8423e-06 -8.06989e-06 -1.40112e-23)
(-3.90122e-06 -8.8261e-06 1.79104e-23)
(-2.10088e-06 -8.60217e-06 -1.92289e-23)
(-3.79821e-06 -9.25493e-06 6.33554e-24)
(-2.37528e-06 -9.03713e-06 3.27499e-24)
(-3.68084e-06 -9.57788e-06 1.95399e-25)
(-2.66131e-06 -9.36656e-06 -7.69986e-24)
(-3.55357e-06 -9.78911e-06 -1.3074e-23)
(-2.95443e-06 -9.58457e-06 -1.69338e-23)
(-3.42103e-06 -9.88534e-06 1.76947e-23)
(-3.24995e-06 -9.68782e-06 6.50563e-24)
(-3.28794e-06 -9.86582e-06 -6.98084e-24)
(-3.54305e-06 -9.67549e-06 1.93296e-23)
(-3.15895e-06 -9.73239e-06 -1.21413e-23)
(-3.82898e-06 -9.54938e-06 2.01586e-24)
(-3.03856e-06 -9.48943e-06 -1.27733e-23)
(-4.10312e-06 -9.31379e-06 1.51467e-23)
(-2.93103e-06 -9.14372e-06 -1.03706e-23)
(-4.36108e-06 -8.97544e-06 2.83641e-24)
(-2.84021e-06 -8.7043e-06 -3.41547e-25)
(-4.59885e-06 -8.54332e-06 -3.51014e-24)
(-2.76951e-06 -8.1822e-06 -4.35043e-24)
(-4.81289e-06 -8.0284e-06 -8.56997e-25)
(-2.72177e-06 -7.59023e-06 -6.93165e-24)
(-5.00018e-06 -7.44343e-06 1.50978e-23)
(-2.69925e-06 -6.94254e-06 -1.20597e-23)
(-5.1583e-06 -6.80254e-06 1.08035e-23)
(-2.70352e-06 -6.25437e-06 -4.83348e-25)
(-5.28551e-06 -6.12093e-06 5.17397e-24)
(-2.73553e-06 -5.54161e-06 -9.41535e-24)
(-5.38067e-06 -5.41446e-06 3.75815e-23)
(-2.79557e-06 -4.82045e-06 -4.91513e-23)
(-5.44334e-06 -4.6993e-06 2.61995e-24)
(-2.88337e-06 -4.10703e-06 -1.11153e-23)
(-5.4736e-06 -3.9916e-06 2.37994e-23)
(-2.99814e-06 -3.41718e-06 -4.19968e-23)
(-5.4721e-06 -3.30719e-06 6.89898e-24)
(-3.13862e-06 -2.76615e-06 7.27286e-24)
(-5.43993e-06 -2.66132e-06 1.16227e-23)
(-3.30318e-06 -2.16845e-06 1.20365e-23)
(-5.37856e-06 -2.06851e-06 4.8798e-24)
(-3.48981e-06 -1.63767e-06 -1.15133e-23)
(-5.28987e-06 -1.54239e-06 -1.20834e-23)
(-3.69614e-06 -1.18636e-06 3.13781e-23)
(-5.1761e-06 -1.09553e-06 -4.02382e-24)
(-3.91936e-06 -8.25848e-07 -2.95066e-23)
(-5.0399e-06 -7.39289e-07 -3.23254e-23)
(-4.15625e-06 -5.66011e-07 -4.47706e-23)
(-4.88441e-06 -4.83575e-07 -1.26637e-23)
(-4.40306e-06 -4.14995e-07 1.6256e-23)
(-4.71326e-06 -3.36579e-07 2.12136e-23)
(-4.65553e-06 -3.7888e-07 9.54619e-26)
(-4.53062e-06 -3.04421e-07 2.86069e-23)
(-4.90901e-06 -4.61326e-07 2.51592e-24)
(-4.34109e-06 -3.90805e-07 2.34766e-23)
(-5.15854e-06 -6.63272e-07 -8.63012e-24)
(-4.14961e-06 -5.96714e-07 4.05584e-24)
(-5.39911e-06 -9.82757e-07 2.24172e-23)
(-3.96117e-06 -9.20226e-07 -2.35003e-24)
(-5.62594e-06 -1.4149e-06 -5.79885e-24)
(-3.78061e-06 -1.3565e-06 -3.02996e-23)
(-5.83477e-06 -1.95211e-06 4.54028e-24)
(-3.61225e-06 -1.89797e-06 -2.67111e-23)
(-6.0221e-06 -2.58447e-06 -9.13803e-24)
(-3.45969e-06 -2.53472e-06 -9.70521e-24)
(-6.18539e-06 -3.30025e-06 -9.69428e-24)
(-3.32562e-06 -3.25505e-06 3.18964e-23)
(-6.32315e-06 -4.08659e-06 1.74314e-23)
(-3.21167e-06 -4.04607e-06 -5.17628e-23)
(-6.43494e-06 -4.93008e-06 -3.29772e-25)
(-3.11843e-06 -4.89434e-06 2.97198e-23)
(-6.52139e-06 -5.81743e-06 -2.08483e-23)
(-3.04549e-06 -5.78652e-06 -3.03017e-23)
(-6.58392e-06 -6.73608e-06 -2.20386e-23)
(-2.99144e-06 -6.70992e-06 3.2738e-23)
(-6.62484e-06 -7.6745e-06 2.55963e-23)
(-2.9543e-06 -7.65298e-06 1.95262e-23)
(-6.64603e-06 -8.6226e-06 1.08579e-23)
(-2.93061e-06 -8.60553e-06 1.0312e-23)
(-6.65065e-06 -9.57018e-06 -2.16629e-23)
(-2.91691e-06 -9.5604e-06 -4.33549e-23)
(-6.63684e-06 -1.05069e-05 4.97564e-23)
(-6.17706e-06 -1.0962e-05 4.20248e-23)
(-5.25844e-06 -1.09676e-05 -1.92442e-23)
(-4.32879e-06 -1.0977e-05 1.38345e-23)
(-3.38244e-06 -1.09963e-05 -3.22796e-23)
(-2.90273e-06 -1.05151e-05 3.23398e-23)
)
;
    }
    frontAndBackPlanes
    {
        type            empty;
    }
}


// ************************************************************************* //
