/*--------------------------------*- C++ -*----------------------------------*\
| =========                 |                                                 |
| \\      /  F ield         | OpenFOAM Extend Project: Open source CFD        |
|  \\    /   O peration     | Version:  1.6-ext                               |
|   \\  /    A nd           | Web:      www.extend-project.de                 |
|    \\/     M anipulation  |                                                 |
\*---------------------------------------------------------------------------*/
FoamFile
{
    version     2.0;
    format      ascii;
    class       volVectorField;
    location    "1.05";
    object      DV_0;
}
// * * * * * * * * * * * * * * * * * * * * * * * * * * * * * * * * * * * * * //

dimensions      [0 1 -1 0 0 0 0];

internalField   nonuniform List<vector> 
328
(
(5.28583e-08 1.04784e-07 0)
(2.71203e-08 2.61127e-08 0)
(2.15096e-08 -4.45772e-09 0)
(2.07677e-08 -4.16802e-08 0)
(1.60582e-07 2.77516e-07 0)
(9.03696e-08 8.70663e-08 0)
(7.07071e-08 -2.23947e-09 0)
(6.36728e-08 -9.82451e-08 0)
(2.8367e-07 4.21074e-07 0)
(1.75957e-07 1.58045e-07 0)
(1.36327e-07 1.31825e-08 0)
(1.15389e-07 -1.2525e-07 0)
(4.16016e-07 5.43453e-07 0)
(2.75816e-07 2.36957e-07 0)
(2.13863e-07 4.41602e-08 0)
(1.73704e-07 -1.24108e-07 0)
(5.58599e-07 6.53836e-07 0)
(3.91074e-07 3.2321e-07 0)
(3.0469e-07 9.17134e-08 0)
(2.40155e-07 -9.77979e-08 0)
(7.10119e-07 7.59375e-07 0)
(5.19021e-07 4.17174e-07 0)
(4.07436e-07 1.56689e-07 0)
(3.15124e-07 -4.85249e-08 0)
(8.70642e-07 8.65983e-07 0)
(6.59133e-07 5.20029e-07 0)
(5.22121e-07 2.39425e-07 0)
(3.99806e-07 2.19401e-08 0)
(1.03994e-06 9.7821e-07 0)
(8.10307e-07 6.33343e-07 0)
(6.48344e-07 3.40133e-07 0)
(4.95319e-07 1.12407e-07 0)
(1.21804e-06 1.09968e-06 0)
(9.72105e-07 7.58879e-07 0)
(7.86194e-07 4.58889e-07 0)
(6.03024e-07 2.22059e-07 0)
(1.40487e-06 1.23319e-06 0)
(1.14417e-06 8.98318e-07 0)
(9.35886e-07 5.95726e-07 0)
(7.24362e-07 3.50371e-07 0)
(1.60031e-06 1.38083e-06 0)
(1.32645e-06 1.0531e-06 0)
(1.09795e-06 7.50618e-07 0)
(8.60905e-07 4.96973e-07 0)
(1.80418e-06 1.54399e-06 0)
(1.51907e-06 1.22427e-06 0)
(1.27316e-06 9.23416e-07 0)
(1.01435e-06 6.61511e-07 0)
(2.01618e-06 1.72339e-06 0)
(1.72233e-06 1.41227e-06 0)
(1.46251e-06 1.11373e-06 0)
(1.18653e-06 8.43484e-07 0)
(2.2359e-06 1.9189e-06 0)
(1.93666e-06 1.61688e-06 0)
(1.66724e-06 1.32076e-06 0)
(1.37945e-06 1.04203e-06 0)
(2.46285e-06 2.12948e-06 0)
(2.16258e-06 1.83694e-06 0)
(1.88873e-06 1.54306e-06 0)
(1.59528e-06 1.2557e-06 0)
(2.69646e-06 2.35294e-06 0)
(2.40066e-06 2.0702e-06 0)
(2.12855e-06 1.77824e-06 0)
(1.83641e-06 1.48214e-06 0)
(2.93608e-06 2.58569e-06 0)
(2.65152e-06 2.31299e-06 0)
(2.38835e-06 2.02266e-06 0)
(2.1054e-06 1.71777e-06 0)
(3.18103e-06 2.82241e-06 0)
(2.91578e-06 2.55993e-06 0)
(2.66988e-06 2.27099e-06 0)
(2.40498e-06 1.95737e-06 0)
(3.4306e-06 3.05566e-06 0)
(3.19407e-06 2.80345e-06 0)
(2.97494e-06 2.51579e-06 0)
(2.73803e-06 2.19365e-06 0)
(3.68419e-06 3.27539e-06 0)
(3.48709e-06 3.03339e-06 0)
(3.30539e-06 2.747e-06 0)
(3.10748e-06 2.41671e-06 0)
(3.94133e-06 3.46851e-06 0)
(3.79556e-06 3.23646e-06 0)
(3.66304e-06 2.95141e-06 0)
(3.51622e-06 2.61363e-06 0)
(4.20196e-06 3.61834e-06 0)
(4.12036e-06 3.39575e-06 0)
(4.04963e-06 3.11222e-06 0)
(3.96683e-06 2.76788e-06 0)
(4.47646e-06 3.70756e-06 0)
(4.47554e-06 3.49394e-06 0)
(4.48273e-06 3.21221e-06 0)
(4.48051e-06 2.86246e-06 0)
(4.75492e-06 3.69726e-06 0)
(4.84897e-06 3.49133e-06 0)
(4.94815e-06 3.21172e-06 0)
(5.04083e-06 2.8585e-06 0)
(5.02215e-06 3.57348e-06 0)
(5.21689e-06 3.37317e-06 0)
(5.41375e-06 3.09586e-06 0)
(5.60706e-06 2.74163e-06 0)
(5.28237e-06 3.33166e-06 0)
(5.58059e-06 3.13489e-06 0)
(5.8779e-06 2.86008e-06 0)
(6.17465e-06 2.50729e-06 0)
(5.53982e-06 2.97058e-06 0)
(5.94135e-06 2.77529e-06 0)
(6.33897e-06 2.50314e-06 0)
(6.73895e-06 2.15422e-06 0)
(5.79869e-06 2.49235e-06 0)
(6.3004e-06 2.29651e-06 0)
(6.79534e-06 2.02718e-06 0)
(7.29544e-06 1.68446e-06 0)
(6.06298e-06 1.90227e-06 0)
(6.65895e-06 1.70393e-06 0)
(7.24544e-06 1.43756e-06 0)
(7.83972e-06 1.10327e-06 0)
(6.33645e-06 1.20867e-06 0)
(7.01809e-06 1.00604e-06 0)
(7.68778e-06 7.42748e-07 0)
(8.36766e-06 4.18927e-07 0)
(6.62252e-06 4.22718e-07 0)
(7.37883e-06 2.14154e-07 0)
(8.12098e-06 -4.59586e-08 0)
(8.87544e-06 -3.57471e-07 0)
(6.92418e-06 -4.41873e-07 0)
(7.742e-06 -6.57794e-07 0)
(8.5438e-06 -9.14647e-07 0)
(9.35968e-06 -1.21227e-06 0)
(7.24393e-06 -1.36916e-06 0)
(8.10829e-06 -1.5936e-06 0)
(8.95514e-06 -1.84714e-06 0)
(9.81748e-06 -2.12958e-06 0)
(7.58373e-06 -2.34132e-06 0)
(8.47821e-06 -2.57519e-06 0)
(9.3541e-06 -2.82536e-06 0)
(1.02465e-05 -3.09164e-06 0)
(7.94489e-06 -3.33914e-06 0)
(8.85205e-06 -3.58301e-06 0)
(9.73997e-06 -3.82979e-06 0)
(1.06449e-05 -4.07927e-06 0)
(8.32807e-06 -4.34246e-06 0)
(9.22988e-06 -4.59658e-06 0)
(1.01123e-05 -4.83995e-06 0)
(1.10118e-05 -5.07235e-06 0)
(8.73326e-06 -5.33071e-06 0)
(9.61155e-06 -5.595e-06 0)
(1.04707e-05 -5.83495e-06 0)
(1.13466e-05 -6.05036e-06 0)
(9.15973e-06 -6.28349e-06 0)
(9.99671e-06 -6.55753e-06 0)
(1.08153e-05 -6.79407e-06 0)
(1.16498e-05 -6.99291e-06 0)
(9.6061e-06 -7.18108e-06 0)
(1.03848e-05 -7.46411e-06 0)
(1.11461e-05 -7.69724e-06 0)
(1.19222e-05 -7.88028e-06 0)
(1.00704e-05 -8.00495e-06 0)
(1.07749e-05 -8.29593e-06 0)
(1.14637e-05 -8.52566e-06 0)
(1.21656e-05 -8.69396e-06 0)
(1.05499e-05 -8.73824e-06 0)
(1.11662e-05 -9.03585e-06 0)
(1.17686e-05 -9.26218e-06 0)
(1.23821e-05 -9.41709e-06 0)
(1.10418e-05 -9.36616e-06 0)
(1.15575e-05 -9.66882e-06 0)
(1.20615e-05 -9.89177e-06 0)
(1.25745e-05 -1.00348e-05 0)
(1.15425e-05 -9.87626e-06 0)
(1.19477e-05 -1.01822e-05 0)
(1.23435e-05 -1.04018e-05 0)
(1.27458e-05 -1.05348e-05 0)
(1.20483e-05 -1.02587e-05 0)
(1.23353e-05 -1.05661e-05 0)
(1.26154e-05 -1.07823e-05 0)
(1.28996e-05 -1.0907e-05 0)
(1.25551e-05 -1.05066e-05 0)
(1.27189e-05 -1.08134e-05 0)
(1.28785e-05 -1.10261e-05 0)
(1.30394e-05 -1.11446e-05 0)
(1.30589e-05 -1.06158e-05 0)
(1.30971e-05 -1.09198e-05 0)
(1.31339e-05 -1.11291e-05 0)
(1.31693e-05 -1.12434e-05 0)
(1.35555e-05 -1.05853e-05 0)
(1.34686e-05 -1.08844e-05 0)
(1.33829e-05 -1.10901e-05 0)
(1.32931e-05 -1.12023e-05 0)
(1.40407e-05 -1.04169e-05 0)
(1.38317e-05 -1.07091e-05 0)
(1.36267e-05 -1.09112e-05 0)
(1.34148e-05 -1.10231e-05 0)
(1.45104e-05 -1.01157e-05 0)
(1.41852e-05 -1.03988e-05 0)
(1.38664e-05 -1.05972e-05 0)
(1.35384e-05 -1.07109e-05 0)
(1.49608e-05 -9.68951e-06 0)
(1.45276e-05 -9.96159e-06 0)
(1.41034e-05 -1.01562e-05 0)
(1.36675e-05 -1.02733e-05 0)
(1.53882e-05 -9.14891e-06 0)
(1.48579e-05 -9.4081e-06 0)
(1.43387e-05 -9.59877e-06 0)
(1.38057e-05 -9.72097e-06 0)
(1.57893e-05 -8.50714e-06 0)
(1.51748e-05 -8.75179e-06 0)
(1.45732e-05 -8.93841e-06 0)
(1.3956e-05 -9.06707e-06 0)
(1.61613e-05 -7.77975e-06 0)
(1.54773e-05 -8.0084e-06 0)
(1.48079e-05 -8.19083e-06 0)
(1.41213e-05 -8.32709e-06 0)
(1.65019e-05 -6.98424e-06 0)
(1.57648e-05 -7.19573e-06 0)
(1.50434e-05 -7.37379e-06 0)
(1.43038e-05 -7.5185e-06 0)
(1.68092e-05 -6.13968e-06 0)
(1.60365e-05 -6.33311e-06 0)
(1.52803e-05 -6.50664e-06 0)
(1.45052e-05 -6.66033e-06 0)
(1.70822e-05 -5.26622e-06 0)
(1.62921e-05 -5.44101e-06 0)
(1.55189e-05 -5.60982e-06 0)
(1.47265e-05 -5.7727e-06 0)
(1.73203e-05 -4.38453e-06 0)
(1.65314e-05 -4.54042e-06 0)
(1.57593e-05 -4.70431e-06 0)
(1.4968e-05 -4.87627e-06 0)
(1.75237e-05 -3.51531e-06 0)
(1.67543e-05 -3.65233e-06 0)
(1.60013e-05 -3.81112e-06 0)
(1.52296e-05 -3.99171e-06 0)
(1.76931e-05 -2.6787e-06 0)
(1.69612e-05 -2.7972e-06 0)
(1.62446e-05 -2.95069e-06 0)
(1.55104e-05 -3.13918e-06 0)
(1.783e-05 -1.89389e-06 0)
(1.71523e-05 -1.99446e-06 0)
(1.64888e-05 -2.14244e-06 0)
(1.58089e-05 -2.33785e-06 0)
(1.79359e-05 -1.17864e-06 0)
(1.73282e-05 -1.26209e-06 0)
(1.67332e-05 -1.40439e-06 0)
(1.61232e-05 -1.60551e-06 0)
(1.8013e-05 -5.49065e-07 0)
(1.74894e-05 -6.16406e-07 0)
(1.69769e-05 -7.52825e-07 0)
(1.6451e-05 -9.58288e-07 0)
(1.80638e-05 -1.94295e-08 0)
(1.76368e-05 -7.18107e-08 0)
(1.72191e-05 -2.02178e-07 0)
(1.67898e-05 -4.10479e-07 0)
(1.80908e-05 3.9795e-07 0)
(1.77711e-05 3.59247e-07 0)
(1.74588e-05 2.35098e-07 0)
(1.71367e-05 2.55695e-08 0)
(1.80968e-05 6.92743e-07 0)
(1.78932e-05 6.66318e-07 0)
(1.76948e-05 5.48539e-07 0)
(1.74887e-05 3.39487e-07 0)
(1.80849e-05 8.5664e-07 0)
(1.8004e-05 8.40984e-07 0)
(1.79261e-05 7.29714e-07 0)
(1.78427e-05 5.22921e-07 0)
(1.80581e-05 8.8344e-07 0)
(1.81044e-05 8.76936e-07 0)
(1.81514e-05 7.72294e-07 0)
(1.81952e-05 5.6962e-07 0)
(1.80197e-05 7.69206e-07 0)
(1.81955e-05 7.70137e-07 0)
(1.83696e-05 6.72228e-07 0)
(1.85426e-05 4.75594e-07 0)
(1.79734e-05 5.12499e-07 0)
(1.82784e-05 5.19075e-07 0)
(1.85792e-05 4.27981e-07 0)
(1.88814e-05 2.39347e-07 0)
(1.79228e-05 1.14649e-07 0)
(1.83542e-05 1.25047e-07 0)
(1.87789e-05 4.08348e-08 0)
(1.92074e-05 -1.37848e-07 0)
(1.78713e-05 -4.20009e-07 0)
(1.84239e-05 -4.07572e-07 0)
(1.89674e-05 -4.84857e-07 0)
(1.9517e-05 -6.51711e-07 0)
(1.78226e-05 -1.08402e-06 0)
(1.84885e-05 -1.0712e-06 0)
(1.91434e-05 -1.14153e-06 0)
(1.98063e-05 -1.29484e-06 0)
(1.77797e-05 -1.86691e-06 0)
(1.85491e-05 -1.85515e-06 0)
(1.93058e-05 -1.9185e-06 0)
(2.0072e-05 -2.05679e-06 0)
(1.77452e-05 -2.75549e-06 0)
(1.86063e-05 -2.74592e-06 0)
(1.94534e-05 -2.80228e-06 0)
(2.03112e-05 -2.92441e-06 0)
(1.77208e-05 -3.73446e-06 0)
(1.86604e-05 -3.72781e-06 0)
(1.95855e-05 -3.77717e-06 0)
(2.05218e-05 -3.88241e-06 0)
(1.77075e-05 -4.78711e-06 0)
(1.87118e-05 -4.78366e-06 0)
(1.97016e-05 -4.82596e-06 0)
(2.07025e-05 -4.91403e-06 0)
(1.77051e-05 -5.89612e-06 0)
(1.87602e-05 -5.89565e-06 0)
(1.98014e-05 -5.93082e-06 0)
(2.08532e-05 -6.00191e-06 0)
(1.77128e-05 -7.04445e-06 0)
(1.88051e-05 -7.04622e-06 0)
(1.9885e-05 -7.07407e-06 0)
(2.09745e-05 -7.12884e-06 0)
(1.77284e-05 -8.21606e-06 0)
(1.88456e-05 -8.21893e-06 0)
(1.99527e-05 -8.23917e-06 0)
(2.10683e-05 -8.27865e-06 0)
(1.77493e-05 -9.39682e-06 0)
(1.88805e-05 -9.39934e-06 0)
(2.00049e-05 -9.41185e-06 0)
(2.11373e-05 -9.43746e-06 0)
(1.7772e-05 -1.05745e-05 0)
(1.89082e-05 -1.05756e-05 0)
(2.00423e-05 -1.05815e-05 0)
(2.11849e-05 -1.05956e-05 0)
(1.77942e-05 -1.17359e-05 0)
(1.89298e-05 -1.17376e-05 0)
(2.00676e-05 -1.1742e-05 0)
(2.12159e-05 -1.17523e-05 0)
)
;

boundaryField
{
    plateFix
    {
        type            calculated;
        value           uniform (0 0 0);
    }
    plate
    {
        type            calculated;
        value           nonuniform List<vector> 
168
(
(5.21996e-07 2.80602e-07 9.03418e-23)
(1.95352e-07 -1.11491e-07 -1.48011e-24)
(5.2908e-07 4.57429e-07 -7.75482e-23)
(1.64339e-07 -1.72213e-07 5.18558e-23)
(5.71989e-07 6.06819e-07 -1.06042e-23)
(1.46576e-07 -2.05491e-07 4.27643e-24)
(6.50782e-07 7.2982e-07 1.19835e-24)
(1.48653e-07 -2.08898e-07 -1.25848e-24)
(7.61308e-07 8.39766e-07 7.72476e-25)
(1.71198e-07 -1.87399e-07 1.99802e-23)
(8.9562e-07 9.43341e-07 3.5447e-23)
(2.11815e-07 -1.42817e-07 1.40475e-23)
(1.04898e-06 1.04734e-06 -3.58762e-23)
(2.69563e-07 -7.72767e-08 -3.24765e-23)
(1.21754e-06 1.15637e-06 3.5023e-23)
(3.43824e-07 8.09053e-09 5.52459e-23)
(1.39879e-06 1.27424e-06 -2.43102e-23)
(4.34738e-07 1.12444e-07 -4.75921e-23)
(1.5908e-06 1.40375e-06 -4.36258e-23)
(5.42869e-07 2.35304e-07 1.04271e-23)
(1.7921e-06 1.54703e-06 6.05723e-23)
(6.69231e-07 3.76333e-07 8.83769e-24)
(2.00142e-06 1.70547e-06 1.58374e-23)
(8.15213e-07 5.35206e-07 5.04793e-24)
(2.21759e-06 1.87978e-06 -2.46323e-23)
(9.82564e-07 7.11443e-07 -4.76273e-24)
(2.43947e-06 2.06987e-06 6.98859e-26)
(1.17339e-06 9.04199e-07 -2.10318e-23)
(2.66588e-06 2.27472e-06 -4.61364e-25)
(1.39014e-06 1.11203e-06 4.99962e-23)
(2.89561e-06 2.49218e-06 -6.79865e-24)
(1.6356e-06 1.33262e-06 -8.40987e-24)
(3.12735e-06 2.71872e-06 2.37692e-23)
(1.91286e-06 1.56241e-06 1.14863e-23)
(3.35976e-06 2.94909e-06 2.95139e-23)
(2.22527e-06 1.79623e-06 -2.53825e-23)
(3.59147e-06 3.17591e-06 -3.16316e-23)
(2.57639e-06 2.02685e-06 1.64476e-23)
(3.82119e-06 3.38926e-06 8.73998e-25)
(2.96982e-06 2.24451e-06 -2.65446e-23)
(4.04785e-06 3.57616e-06 -3.709e-23)
(3.40911e-06 2.43641e-06 -9.86162e-24)
(4.27081e-06 3.7201e-06 4.12246e-24)
(3.8974e-06 2.58622e-06 -4.18105e-23)
(4.49831e-06 3.80383e-06 -1.19347e-23)
(4.4581e-06 2.67708e-06 -9.90058e-24)
(4.72218e-06 3.7889e-06 1.49553e-23)
(5.07304e-06 2.67062e-06 -1.00728e-23)
(4.93175e-06 3.66183e-06 -2.1966e-23)
(5.69695e-06 2.5528e-06 -3.03972e-23)
(5.13286e-06 3.41808e-06 2.44433e-23)
(6.32366e-06 2.31906e-06 -1.38729e-23)
(5.33141e-06 3.05644e-06 -2.443e-23)
(6.94688e-06 1.96813e-06 2.62529e-23)
(5.5332e-06 2.57898e-06 -9.17579e-25)
(7.56044e-06 1.50202e-06 3.88319e-24)
(5.74381e-06 1.99094e-06 -2.15981e-23)
(8.1584e-06 9.25889e-07 4.92462e-23)
(5.96845e-06 1.30058e-06 -1.51935e-23)
(8.73516e-06 2.47914e-07 -6.47508e-23)
(6.21188e-06 5.18946e-07 2.29962e-23)
(9.28558e-06 -5.20942e-07 -1.07514e-24)
(6.47829e-06 -3.40395e-07 1.4657e-24)
(9.80506e-06 -1.36719e-06 -3.88385e-23)
(6.77121e-06 -1.26165e-06 -9.73163e-24)
(1.02897e-05 -2.27511e-06 -3.21566e-25)
(7.0934e-06 -2.22721e-06 -3.41025e-24)
(1.07362e-05 -3.22716e-06 -4.2362e-23)
(7.44677e-06 -3.21803e-06 -1.98397e-23)
(1.11425e-05 -4.20437e-06 8.53812e-24)
(7.83233e-06 -4.21417e-06 -2.87096e-23)
(1.15069e-05 -5.18686e-06 1.68016e-23)
(8.25011e-06 -5.19531e-06 -1.81138e-23)
(1.18291e-05 -6.15434e-06 2.87077e-23)
(8.69918e-06 -6.14125e-06 -1.97998e-23)
(1.21097e-05 -7.08663e-06 4.3949e-23)
(9.1777e-06 -7.03247e-06 -1.45971e-23)
(1.235e-05 -7.96426e-06 -2.94952e-23)
(9.68295e-06 -7.85067e-06 -6.40383e-24)
(1.25524e-05 -8.7689e-06 -3.70984e-23)
(1.02114e-05 -8.57914e-06 1.15697e-23)
(1.272e-05 -9.48385e-06 8.92034e-24)
(1.0759e-05 -9.20325e-06 -1.88134e-23)
(1.28567e-05 -1.00945e-05 4.05645e-23)
(1.1321e-05 -9.71068e-06 -2.96199e-24)
(1.29667e-05 -1.05884e-05 -9.79319e-24)
(1.18922e-05 -1.00917e-05 -7.76796e-24)
(1.3055e-05 -1.09558e-05 -1.36123e-24)
(1.24673e-05 -1.03395e-05 -3.77167e-25)
(1.31267e-05 -1.11899e-05 2.4089e-24)
(1.30406e-05 -1.04499e-05 -1.59382e-23)
(1.3187e-05 -1.12865e-05 1.80554e-23)
(1.36066e-05 -1.04219e-05 1.59103e-23)
(1.32415e-05 -1.12445e-05 -3.56734e-23)
(1.41594e-05 -1.02575e-05 -4.04287e-24)
(1.32957e-05 -1.10658e-05 1.57485e-23)
(1.46936e-05 -9.96161e-06 1.70372e-23)
(1.33548e-05 -1.07552e-05 -9.95772e-24)
(1.52038e-05 -9.54194e-06 4.85233e-24)
(1.34242e-05 -1.03204e-05 -1.98721e-23)
(1.56851e-05 -9.00907e-06 2.17741e-24)
(1.35084e-05 -9.77196e-06 1.07493e-23)
(1.6133e-05 -8.3761e-06 -1.15999e-24)
(1.36121e-05 -9.12285e-06 3.77052e-25)
(1.65436e-05 -7.65842e-06 1.57666e-23)
(1.3739e-05 -8.38843e-06 -2.6155e-23)
(1.69135e-05 -6.87338e-06 2.10518e-23)
(1.38921e-05 -7.58597e-06 1.90975e-24)
(1.72405e-05 -6.03985e-06 -4.09808e-24)
(1.40739e-05 -6.73431e-06 -4.92613e-24)
(1.75229e-05 -5.17776e-06 2.86721e-23)
(1.42858e-05 -5.85333e-06 -4.08218e-23)
(1.77602e-05 -4.30759e-06 4.45436e-23)
(1.45282e-05 -4.96349e-06 1.14185e-23)
(1.79525e-05 -3.44982e-06 -1.64207e-23)
(1.48009e-05 -4.08526e-06 -4.11833e-23)
(1.81011e-05 -2.62442e-06 5.67782e-23)
(1.51026e-05 -3.2386e-06 2.5185e-23)
(1.82078e-05 -1.85038e-06 -3.70777e-24)
(1.54312e-05 -2.44251e-06 -1.72043e-23)
(1.82752e-05 -1.14535e-06 -5.55922e-25)
(1.57841e-05 -1.71465e-06 2.7748e-23)
(1.83062e-05 -5.25315e-07 -7.57424e-24)
(1.61581e-05 -1.07104e-06 3.83964e-24)
(1.83041e-05 -4.44851e-09 -1.92524e-23)
(1.65496e-05 -5.25901e-07 1.19637e-23)
(1.82727e-05 4.05007e-07 3.49663e-23)
(1.6955e-05 -9.15079e-08 2.50779e-23)
(1.82156e-05 6.92787e-07 3.87919e-23)
(1.73701e-05 2.2182e-07 4.27937e-24)
(1.81369e-05 8.50649e-07 -3.22046e-24)
(1.77908e-05 4.0578e-07 2.02376e-23)
(1.80408e-05 8.72461e-07 -8.28765e-24)
(1.82125e-05 4.54176e-07 -1.62101e-23)
(1.79318e-05 7.54355e-07 -5.59216e-26)
(1.86306e-05 3.63067e-07 -3.75177e-24)
(1.78148e-05 4.94948e-07 3.03909e-23)
(1.904e-05 1.30996e-07 -1.2006e-23)
(1.76948e-05 9.56003e-08 -2.89117e-23)
(1.94353e-05 -2.40756e-07 1.69244e-23)
(1.7577e-05 -4.39368e-07 -3.06535e-23)
(1.98112e-05 -7.47943e-07 1.36144e-23)
(1.74664e-05 -1.10258e-06 -1.37466e-23)
(2.01624e-05 -1.38326e-06 -7.5709e-24)
(1.73675e-05 -1.88369e-06 2.76845e-23)
(2.0484e-05 -2.13641e-06 -9.21661e-24)
(1.7284e-05 -2.76973e-06 -1.86531e-23)
(2.0772e-05 -2.99449e-06 -2.15436e-23)
(1.72187e-05 -3.74567e-06 3.34605e-24)
(2.10235e-05 -3.94245e-06 3.6347e-23)
(1.71729e-05 -4.79508e-06 1.83951e-24)
(2.12366e-05 -4.96386e-06 4.93386e-26)
(1.71467e-05 -5.90096e-06 1.325e-23)
(2.1411e-05 -6.04166e-06 -9.79359e-24)
(1.71388e-05 -7.0466e-06 1.75964e-23)
(2.15478e-05 -7.159e-06 -5.7104e-24)
(1.71463e-05 -8.21623e-06 -3.60568e-23)
(2.16495e-05 -8.29999e-06 -1.49648e-23)
(1.71658e-05 -9.39598e-06 2.5886e-23)
(2.17208e-05 -9.45105e-06 -4.63824e-23)
(1.71932e-05 -1.05736e-05 1.60828e-23)
(2.17681e-05 -1.06027e-05 3.19673e-23)
(1.72271e-05 -1.17359e-05 1.04653e-23)
(1.78026e-05 -1.23017e-05 7.0943e-24)
(1.89386e-05 -1.23068e-05 1.02565e-23)
(2.00779e-05 -1.23153e-05 -3.1275e-24)
(2.12268e-05 -1.23371e-05 -6.83338e-24)
(2.18029e-05 -1.1755e-05 1.08742e-23)
)
;
    }
    frontAndBackPlanes
    {
        type            empty;
    }
}


// ************************************************************************* //
