/*--------------------------------*- C++ -*----------------------------------*\
| =========                 |                                                 |
| \\      /  F ield         | OpenFOAM Extend Project: Open source CFD        |
|  \\    /   O peration     | Version:  1.6-ext                               |
|   \\  /    A nd           | Web:      www.extend-project.de                 |
|    \\/     M anipulation  |                                                 |
\*---------------------------------------------------------------------------*/
FoamFile
{
    version     2.0;
    format      ascii;
    class       surfaceScalarField;
    location    "1.05";
    object      meshPhi;
}
// * * * * * * * * * * * * * * * * * * * * * * * * * * * * * * * * * * * * * //

dimensions      [0 3 -1 0 0 0 0];

internalField   nonuniform List<scalar> 
570
(
8.00549e-11
2.02531e-09
5.45394e-12
5.52844e-10
-7.14076e-11
5.61493e-10
1.96478e-09
2.43001e-10
2.37844e-09
1.74946e-11
1.22587e-09
-2.14568e-10
1.24602e-09
2.34198e-09
3.97163e-10
2.91456e-09
3.10728e-11
2.0397e-09
-3.45404e-10
2.07498e-09
2.91588e-09
5.39534e-10
3.62721e-09
4.61829e-11
2.9717e-09
-4.61105e-10
3.02573e-09
3.68023e-09
6.70288e-10
4.49995e-09
6.26958e-11
4.02031e-09
-5.62358e-10
4.09721e-09
4.61932e-09
7.90499e-10
5.51051e-09
8.02614e-11
5.17711e-09
-6.51177e-10
5.2815e-09
5.7117e-09
9.013e-10
6.64619e-09
9.82109e-11
6.43962e-09
-7.30225e-10
6.57683e-09
6.94629e-09
1.00366e-09
7.89805e-09
1.15433e-10
7.80554e-09
-8.02851e-10
7.9817e-09
8.31627e-09
1.09806e-09
9.26181e-09
1.30197e-10
9.27531e-09
-8.73132e-10
9.49749e-09
9.82001e-09
1.1842e-09
1.07358e-08
1.39924e-10
1.08509e-08
-9.46035e-10
1.11272e-08
1.1459e-08
1.26053e-09
1.23207e-08
1.40861e-10
1.2536e-08
-1.02763e-09
1.28758e-08
1.32373e-08
1.32375e-09
1.40187e-08
1.27667e-10
1.43362e-08
-1.1254e-09
1.47501e-08
1.51611e-08
1.36816e-09
1.58334e-08
9.28397e-11
1.6258e-08
-1.24873e-09
1.67581e-08
1.72385e-08
1.38484e-09
1.77696e-08
2.59805e-11
1.83095e-08
-1.40961e-09
1.89093e-08
1.94787e-08
1.36068e-09
1.9833e-08
-8.71834e-11
2.04995e-08
-1.62354e-09
2.12143e-08
2.18926e-08
1.27711e-09
2.20303e-08
-2.66064e-10
2.28376e-08
-1.91084e-09
2.36844e-08
2.44921e-08
1.10855e-09
2.43688e-08
-5.36846e-10
2.53341e-08
-2.29833e-09
2.63317e-08
2.72899e-08
8.20348e-10
2.68566e-08
-9.34578e-10
2.79997e-08
-2.82145e-09
2.91687e-08
3.02998e-08
3.66264e-10
2.95029e-08
-1.50582e-09
3.08457e-08
-3.52699e-09
3.22082e-08
3.35357e-08
-3.14815e-10
3.23173e-08
-2.31193e-09
3.38837e-08
-4.47639e-09
3.54636e-08
3.7012e-08
-1.30286e-09
3.53109e-08
-3.43316e-09
3.71259e-08
-5.74988e-09
3.89478e-08
4.07427e-08
-2.70156e-09
3.84945e-08
-4.97351e-09
4.0585e-08
-7.45131e-09
4.26743e-08
4.47425e-08
-5.06878e-09
4.21347e-08
-7.66913e-09
4.45453e-08
-1.05111e-08
4.69486e-08
4.93347e-08
-7.48606e-09
4.57468e-08
-1.00699e-08
4.84814e-08
-1.28969e-08
5.12006e-08
5.39083e-08
-1.02493e-08
4.93377e-08
-1.28171e-08
5.23935e-08
-1.56259e-08
5.54258e-08
5.84524e-08
-1.33556e-08
5.29126e-08
-1.59078e-08
5.6282e-08
-1.86953e-08
5.96199e-08
6.29579e-08
-1.67968e-08
5.64764e-08
-1.93339e-08
6.0147e-08
-2.2097e-08
6.37786e-08
6.74156e-08
-2.05598e-08
6.00337e-08
-2.3082e-08
6.39889e-08
-2.58176e-08
6.78977e-08
7.18169e-08
-2.46265e-08
6.35889e-08
-2.71341e-08
6.78075e-08
-2.98394e-08
7.19731e-08
7.61535e-08
-2.89742e-08
6.71457e-08
-3.14674e-08
7.1603e-08
-3.41395e-08
7.60011e-08
8.04177e-08
-3.35761e-08
7.07074e-08
-3.60548e-08
7.5375e-08
-3.86912e-08
7.99779e-08
8.46025e-08
-3.84016e-08
7.42764e-08
-4.08656e-08
7.91229e-08
-4.3464e-08
8.39003e-08
8.87016e-08
-4.34168e-08
7.78543e-08
-4.58658e-08
8.28462e-08
-4.8424e-08
8.77652e-08
9.27096e-08
-4.85855e-08
8.14418e-08
-5.10188e-08
8.65437e-08
-5.3535e-08
9.157e-08
9.66221e-08
-5.38692e-08
8.50388e-08
-5.62861e-08
9.02143e-08
-5.87586e-08
9.53122e-08
1.00436e-07
-5.92285e-08
8.86442e-08
-6.1628e-08
9.38562e-08
-6.40554e-08
9.89899e-08
1.04148e-07
-6.46235e-08
9.22557e-08
-6.70042e-08
9.74676e-08
-6.93855e-08
1.02601e-07
1.07757e-07
-7.00145e-08
9.58702e-08
-7.23749e-08
1.01046e-07
-7.47093e-08
1.06145e-07
1.11263e-07
-7.53628e-08
9.94838e-08
-7.77013e-08
1.0459e-07
-7.99882e-08
1.09621e-07
1.14666e-07
-8.06315e-08
1.03091e-07
-8.29461e-08
1.08095e-07
-8.51852e-08
1.13028e-07
1.17969e-07
-8.57862e-08
1.06687e-07
-8.80747e-08
1.1156e-07
-9.0266e-08
1.16365e-07
1.21173e-07
-9.07954e-08
1.10265e-07
-9.30556e-08
1.14981e-07
-9.5199e-08
1.19632e-07
1.24281e-07
-9.56312e-08
1.13817e-07
-9.78606e-08
1.18354e-07
-9.99566e-08
1.22831e-07
1.27298e-07
-1.0027e-07
1.17336e-07
-1.02466e-07
1.21675e-07
-1.04515e-07
1.2596e-07
1.30229e-07
-1.04692e-07
1.20814e-07
-1.06852e-07
1.24942e-07
-1.08854e-07
1.29022e-07
1.33077e-07
-1.08882e-07
1.24243e-07
-1.11004e-07
1.28151e-07
-1.12961e-07
1.32015e-07
1.35848e-07
-1.12832e-07
1.27615e-07
-1.14912e-07
1.31297e-07
-1.16824e-07
1.34942e-07
1.38548e-07
-1.16536e-07
1.3092e-07
-1.18572e-07
1.34377e-07
-1.20439e-07
1.37802e-07
1.41181e-07
-1.19995e-07
1.34151e-07
-1.21984e-07
1.37387e-07
-1.23808e-07
1.40597e-07
1.43754e-07
-1.23213e-07
1.373e-07
-1.25153e-07
1.40324e-07
-1.26934e-07
1.43328e-07
1.46271e-07
-1.26202e-07
1.4036e-07
-1.2809e-07
1.43185e-07
-1.29829e-07
1.45994e-07
1.48736e-07
-1.28975e-07
1.43324e-07
-1.30809e-07
1.45966e-07
-1.32506e-07
1.48596e-07
1.51154e-07
-1.31551e-07
1.46185e-07
-1.33329e-07
1.48665e-07
-1.34984e-07
1.51135e-07
1.53529e-07
-1.33952e-07
1.48938e-07
-1.35672e-07
1.51278e-07
-1.37285e-07
1.5361e-07
1.55863e-07
-1.36203e-07
1.51579e-07
-1.37863e-07
1.53803e-07
-1.39435e-07
1.56022e-07
1.58158e-07
-1.38332e-07
1.54104e-07
-1.3993e-07
1.56239e-07
-1.41461e-07
1.58369e-07
1.60415e-07
-1.40366e-07
1.56511e-07
-1.41903e-07
1.58584e-07
-1.43391e-07
1.60652e-07
1.62634e-07
-1.42337e-07
1.58798e-07
-1.4381e-07
1.60836e-07
-1.45256e-07
1.62869e-07
1.64815e-07
-1.44275e-07
1.60964e-07
-1.45684e-07
1.62995e-07
-1.47085e-07
1.65018e-07
1.66956e-07
-1.46208e-07
1.6301e-07
-1.47553e-07
1.6506e-07
-1.4891e-07
1.67099e-07
1.69054e-07
-1.48167e-07
1.64936e-07
-1.49448e-07
1.6703e-07
-1.50758e-07
1.69109e-07
1.71107e-07
-1.50178e-07
1.66746e-07
-1.51394e-07
1.68906e-07
-1.52657e-07
1.71047e-07
1.7311e-07
-1.52265e-07
1.6844e-07
-1.53417e-07
1.70687e-07
-1.54632e-07
1.72911e-07
1.75059e-07
-1.54451e-07
1.70023e-07
-1.5554e-07
1.72374e-07
-1.56703e-07
1.74697e-07
1.76949e-07
-1.56755e-07
1.71498e-07
-1.5778e-07
1.73968e-07
-1.58891e-07
1.76404e-07
1.78774e-07
-1.59191e-07
1.7287e-07
-1.60154e-07
1.75469e-07
-1.61211e-07
1.7803e-07
1.80529e-07
-1.61773e-07
1.74142e-07
-1.62674e-07
1.76879e-07
-1.63675e-07
1.79572e-07
1.82207e-07
-1.64507e-07
1.7532e-07
-1.65347e-07
1.78198e-07
-1.6629e-07
1.81027e-07
1.83803e-07
-1.67398e-07
1.76406e-07
-1.68178e-07
1.79427e-07
-1.69062e-07
1.82393e-07
1.85311e-07
-1.70447e-07
1.77407e-07
-1.71167e-07
1.80568e-07
-1.71989e-07
1.83668e-07
1.86724e-07
-1.73649e-07
1.78326e-07
-1.7431e-07
1.8162e-07
-1.7507e-07
1.8485e-07
1.88039e-07
-1.76997e-07
1.79167e-07
-1.776e-07
1.82586e-07
-1.78296e-07
1.85936e-07
1.89249e-07
-1.80481e-07
1.79933e-07
-1.81026e-07
1.83465e-07
-1.81656e-07
1.86925e-07
1.9035e-07
-1.84086e-07
1.80628e-07
-1.84575e-07
1.84259e-07
-1.85138e-07
1.87815e-07
1.91339e-07
-1.87798e-07
1.81251e-07
-1.8823e-07
1.84966e-07
-1.88726e-07
1.88606e-07
1.92214e-07
-1.91597e-07
1.81805e-07
-1.91972e-07
1.85589e-07
-1.924e-07
1.89296e-07
1.92971e-07
-1.95466e-07
1.82289e-07
-1.95783e-07
1.86125e-07
-1.96143e-07
1.89885e-07
1.93612e-07
-1.99384e-07
1.82703e-07
-1.99643e-07
1.86575e-07
-1.99934e-07
1.90374e-07
1.94137e-07
-2.03332e-07
1.83043e-07
-2.03533e-07
1.86936e-07
-2.03755e-07
1.90761e-07
1.94546e-07
-2.07293e-07
1.83307e-07
-2.07434e-07
1.8721e-07
-2.07589e-07
1.91049e-07
1.94846e-07
-2.11249e-07
1.8349e-07
-2.11331e-07
1.8739e-07
-2.11422e-07
1.91236e-07
1.9504e-07
-2.15184e-07
-2.15213e-07
-2.15249e-07
)
;

boundaryField
{
    plateFix
    {
        type            calculated;
        value           nonuniform List<scalar> 4(-1.57939e-09 4.51381e-14 -7.64826e-14 -1.50114e-09);
    }
    plate
    {
        type            calculated;
        value           nonuniform List<scalar> 
168
(
-3.59609e-10
-3.61349e-10
-6.35133e-10
-6.23775e-10
-8.91045e-10
-8.63432e-10
-1.12026e-09
-1.07312e-09
-1.32636e-09
-1.25729e-09
-1.51539e-09
-1.4233e-09
-1.69169e-09
-1.57734e-09
-1.85879e-09
-1.72559e-09
-2.01882e-09
-1.87401e-09
-2.17263e-09
-2.02895e-09
-2.31941e-09
-2.19744e-09
-2.45638e-09
-2.38771e-09
-2.57825e-09
-2.60978e-09
-2.67645e-09
-2.8762e-09
-2.73824e-09
-3.20301e-09
-2.7454e-09
-3.61104e-09
-2.67275e-09
-4.12758e-09
-2.48606e-09
-4.78846e-09
-2.13954e-09
-5.64075e-09
-1.57264e-09
-6.74606e-09
-7.05988e-10
-8.18454e-09
5.63386e-10
-1.00597e-08
2.62516e-09
-1.35065e-08
5.05971e-09
-1.58784e-08
7.83759e-09
-1.85881e-08
1.09558e-08
-2.16325e-08
1.44062e-08
-2.50037e-08
1.8176e-08
-2.86889e-08
2.22471e-08
-3.26701e-08
2.65973e-08
-3.69251e-08
3.12e-08
-4.14275e-08
3.60251e-08
-4.61471e-08
4.10392e-08
-5.10508e-08
4.62064e-08
-5.61026e-08
5.14889e-08
-6.1265e-08
5.68479e-08
-6.6499e-08
6.2244e-08
-7.17653e-08
6.76379e-08
-7.7025e-08
7.29917e-08
-8.22399e-08
7.8269e-08
-8.73738e-08
8.34356e-08
-9.23926e-08
8.84606e-08
-9.72655e-08
9.33164e-08
-1.01965e-07
9.79795e-08
-1.06467e-07
1.02431e-07
-1.10754e-07
1.06656e-07
-1.1481e-07
1.10644e-07
-1.18626e-07
1.14393e-07
-1.22197e-07
1.179e-07
-1.25524e-07
1.21172e-07
-1.28611e-07
1.24219e-07
-1.3147e-07
1.27054e-07
-1.34113e-07
1.29696e-07
-1.36559e-07
1.32166e-07
-1.3883e-07
1.34488e-07
-1.4095e-07
1.3669e-07
-1.42946e-07
1.388e-07
-1.44847e-07
1.40847e-07
-1.46682e-07
1.42861e-07
-1.48482e-07
1.44872e-07
-1.50274e-07
1.46907e-07
-1.52088e-07
1.48993e-07
-1.53951e-07
1.51154e-07
-1.55886e-07
1.53413e-07
-1.57916e-07
1.55786e-07
-1.60058e-07
1.58291e-07
-1.62329e-07
1.60938e-07
-1.64741e-07
1.63735e-07
-1.67301e-07
1.66687e-07
-1.70013e-07
1.69794e-07
-1.72878e-07
1.73052e-07
-1.75893e-07
1.76454e-07
-1.79051e-07
1.79989e-07
-1.8234e-07
1.83646e-07
-1.8575e-07
1.87407e-07
-1.89262e-07
1.91256e-07
-1.92861e-07
1.95175e-07
-1.96528e-07
1.99143e-07
-2.00244e-07
2.03143e-07
-2.03991e-07
2.07159e-07
-2.07752e-07
2.1117e-07
-2.11518e-07
2.15151e-07
1.83593e-07
1.87491e-07
1.91339e-07
1.95145e-07
-2.15294e-07
)
;
    }
    frontAndBackPlanes
    {
        type            empty;
    }
}


// ************************************************************************* //
