/*--------------------------------*- C++ -*----------------------------------*\
| =========                 |                                                 |
| \\      /  F ield         | OpenFOAM Extend Project: Open source CFD        |
|  \\    /   O peration     | Version:  1.6-ext                               |
|   \\  /    A nd           | Web:      www.extend-project.de                 |
|    \\/     M anipulation  |                                                 |
\*---------------------------------------------------------------------------*/
FoamFile
{
    version     2.0;
    format      ascii;
    class       volScalarField;
    location    "1.05";
    object      sigmaEq;
}
// * * * * * * * * * * * * * * * * * * * * * * * * * * * * * * * * * * * * * //

dimensions      [1 -1 -2 0 0 0 0];

internalField   nonuniform List<scalar> 
328
(
3.6527
1.05813
1.06961
4.49378
3.9116
1.07502
1.50021
4.77554
4.16107
1.21751
1.92173
5.09005
4.27218
1.30428
2.16525
5.24432
4.32773
1.34991
2.3133
5.33602
4.33104
1.35637
2.38221
5.36285
4.3077
1.34372
2.40809
5.35631
4.2664
1.32089
2.40576
5.32637
4.21526
1.29491
2.38833
5.28309
4.15778
1.26855
2.36211
5.23057
4.0961
1.24303
2.33135
5.17134
4.03099
1.21833
2.29806
5.10631
3.96268
1.19409
2.26331
5.03578
3.89106
1.16982
2.22741
4.95969
3.81585
1.14509
2.19031
4.87787
3.73674
1.11959
2.15175
4.79005
3.65341
1.0931
2.11136
4.69596
3.56557
1.06549
2.06874
4.59532
3.47297
1.03671
2.02351
4.48783
3.37536
1.0067
1.97532
4.37318
3.2727
0.975492
1.92388
4.25115
3.1646
0.94299
1.86889
4.12131
3.0472
0.907332
1.80765
3.97883
2.92491
0.872278
1.74298
3.82797
2.80491
0.838676
1.6786
3.67827
2.68738
0.806332
1.61435
3.52986
2.57223
0.775141
1.55025
3.38274
2.45952
0.745086
1.48634
3.23702
2.34932
0.716141
1.42267
3.09282
2.24167
0.688288
1.35932
2.95025
2.13665
0.661507
1.29633
2.80942
2.03432
0.635777
1.23376
2.67047
1.93476
0.611077
1.17169
2.53352
1.83805
0.587386
1.11017
2.39872
1.74425
0.56468
1.04929
2.2662
1.65344
0.542939
0.989114
2.13611
1.56569
0.522139
0.929732
2.00861
1.48105
0.502259
0.871225
1.88384
1.39958
0.483278
0.813683
1.76196
1.32134
0.465176
0.757198
1.64312
1.24636
0.447935
0.701867
1.52747
1.17467
0.43154
0.647791
1.41514
1.10628
0.415975
0.595071
1.30628
1.0412
0.401228
0.543817
1.20102
0.979413
0.387289
0.494141
1.09949
0.920901
0.374147
0.446161
1.00179
0.865623
0.361795
0.400006
0.908026
0.813528
0.350223
0.355814
0.818296
0.764552
0.33942
0.313746
0.732675
0.718618
0.329372
0.273994
0.651227
0.675634
0.32006
0.236796
0.574003
0.635499
0.31146
0.202473
0.501041
0.598102
0.30354
0.171473
0.432365
0.563321
0.29626
0.144443
0.367985
0.531026
0.289571
0.122298
0.3079
0.501079
0.283415
0.106194
0.252101
0.473338
0.277724
0.0971531
0.200577
0.447655
0.272422
0.0952806
0.153329
0.423876
0.267426
0.0992908
0.110414
0.401845
0.262647
0.107099
0.0721011
0.381404
0.257993
0.116766
0.0397063
0.362392
0.253367
0.126898
0.0221178
0.344645
0.248671
0.136609
0.0348707
0.328
0.243808
0.145359
0.0560984
0.31229
0.238682
0.152823
0.0760063
0.297349
0.233199
0.158811
0.0932619
0.28301
0.227265
0.16322
0.107662
0.269106
0.220792
0.165998
0.119244
0.255472
0.213695
0.167129
0.128127
0.24195
0.205892
0.166623
0.134457
0.22839
0.197307
0.164502
0.138398
0.214655
0.187869
0.160794
0.140113
0.200636
0.177511
0.155524
0.139764
0.186253
0.166156
0.148698
0.137497
0.171495
0.153723
0.140296
0.133473
0.156399
0.140028
0.130181
0.127828
0.141257
0.12487
0.118198
0.120895
0.126341
0.10753
0.103669
0.112908
0.113198
0.0881248
0.0867683
0.105346
0.101407
0.0657246
0.0663936
0.0975067
0.0957237
0.052094
0.0531661
0.0939889
0.0860521
0.0624717
0.0616355
0.0845273
)
;

boundaryField
{
    plateFix
    {
        type            calculated;
        value           nonuniform List<scalar> 4(3.69595 1.33852 1.22062 4.64072);
    }
    plate
    {
        type            calculated;
        value           nonuniform List<scalar> 
168
(
4.04102
4.92269
4.23044
5.15241
4.43049
5.41385
4.49985
5.50966
4.53211
5.56464
4.52218
5.56882
4.49244
5.55068
4.44791
5.51507
4.39496
5.46926
4.33602
5.41546
4.27274
5.35525
4.20571
5.28904
4.13513
5.21692
4.06088
5.1388
3.98273
5.05447
3.90038
4.96374
3.81354
4.86636
3.72193
4.76208
3.62529
4.65062
3.52339
4.5317
3.41616
4.40512
3.30321
4.27039
3.18061
4.12274
3.05285
3.96641
2.92732
3.81121
2.80435
3.65736
2.68382
3.50487
2.56582
3.35388
2.4504
3.20447
2.33764
3.05678
2.22759
2.91093
2.12035
2.76705
2.01597
2.62527
1.91456
2.48574
1.81618
2.3486
1.72091
2.21401
1.62883
2.08212
1.54001
1.95308
1.45451
1.82706
1.37238
1.70421
1.29367
1.58467
1.21841
1.4686
1.14662
1.35614
1.07831
1.24742
1.01347
1.14256
0.952076
1.04169
0.894096
0.944894
0.839477
0.852275
0.788151
0.763908
0.74004
0.679854
0.695048
0.600161
0.65307
0.524864
0.613986
0.45398
0.57767
0.387512
0.543982
0.325449
0.512777
0.267767
0.483903
0.21443
0.457201
0.165397
0.432511
0.120632
0.409666
0.0801493
0.388501
0.0442393
0.368845
0.0162379
0.350529
0.0240427
0.333383
0.0474519
0.317237
0.0688934
0.30192
0.0873288
0.287265
0.102716
0.273103
0.115164
0.259274
0.124828
0.245622
0.131882
0.232003
0.136506
0.218291
0.138883
0.204389
0.139191
0.190233
0.1376
0.175831
0.134293
0.161236
0.129432
0.146744
0.12336
0.132561
0.116271
0.120064
0.109532
0.108944
0.102757
0.106759
0.103705
0.108603
0.0708471
0.0616547
0.0603945
0.068991
0.10712
)
;
    }
    frontAndBackPlanes
    {
        type            empty;
    }
}


// ************************************************************************* //
