/*--------------------------------*- C++ -*----------------------------------*\
| =========                 |                                                 |
| \\      /  F ield         | OpenFOAM Extend Project: Open source CFD        |
|  \\    /   O peration     | Version:  1.6-ext                               |
|   \\  /    A nd           | Web:      www.extend-project.de                 |
|    \\/     M anipulation  |                                                 |
\*---------------------------------------------------------------------------*/
FoamFile
{
    version     2.0;
    format      ascii;
    class       volSymmTensorField;
    location    "1.05";
    object      sigma;
}
// * * * * * * * * * * * * * * * * * * * * * * * * * * * * * * * * * * * * * //

dimensions      [1 -1 -2 0 0 0 0];

internalField   nonuniform List<symmTensor> 
328
(
(6.47907 0.544155 -6.85585e-22 2.54009 7.6812e-20 3.60556)
(1.57872 -0.435582 -2.64427e-24 0.766377 4.82379e-23 0.936906)
(-1.83893 -0.265636 7.83145e-23 -0.76489 -7.0948e-23 -1.04267)
(-7.00597 0.921461 1.29318e-22 -2.27454 -1.20619e-19 -3.71453)
(6.28301 0.351415 2.20045e-21 1.92362 -1.61039e-19 3.28053)
(1.56323 -0.186531 9.68525e-23 0.401507 -4.79433e-23 0.784684)
(-1.82894 -0.0455442 2.95756e-24 -0.113456 1.08477e-22 -0.778204)
(-6.67724 0.612064 1.21386e-21 -1.38118 -2.42582e-20 -3.22569)
(6.29614 0.22705 -2.90346e-21 1.60108 -2.87228e-20 3.15667)
(1.64532 -0.0073701 -2.08441e-22 0.257054 1.61118e-22 0.759617)
(-2.00054 0.10099 9.7401e-22 0.199619 7.06291e-23 -0.721764)
(-6.65421 0.389801 -5.12508e-21 -0.893801 1.36504e-19 -3.02164)
(6.23557 0.155529 1.6914e-21 1.39221 1.30011e-20 3.04883)
(1.62515 0.110247 3.08897e-22 0.149732 -1.42533e-22 0.708488)
(-2.00373 0.184324 -1.05517e-21 0.462872 -7.04278e-22 -0.617891)
(-6.54963 0.247127 4.49013e-21 -0.57007 3.82348e-20 -2.8504)
(6.20062 0.11901 -1.45522e-21 1.28494 6.92436e-20 2.99188)
(1.61246 0.178738 1.67689e-21 0.108571 6.20895e-22 0.686828)
(-2.01787 0.222621 1.12346e-22 0.61104 -4.45157e-22 -0.564409)
(-6.49678 0.162321 -6.94556e-22 -0.395123 -1.16534e-19 -2.75934)
(6.15064 0.102814 2.79538e-22 1.22745 -5.89155e-20 2.94886)
(1.57852 0.21864 -1.23795e-21 0.0872039 -3.39718e-22 0.664616)
(-1.98989 0.238192 -2.302e-21 0.715394 8.38694e-22 -0.511573)
(-6.43646 0.114233 6.25656e-24 -0.296843 2.93761e-20 -2.69594)
(6.09858 0.0976047 -9.79142e-22 1.20077 8.33044e-20 2.91735)
(1.54644 0.239224 6.0995e-22 0.0827513 3.62854e-23 0.649936)
(-1.95839 0.241193 5.79812e-22 0.776773 -3.27105e-22 -0.474493)
(-6.38362 0.088973 9.58558e-22 -0.248488 2.60093e-20 -2.65548)
(6.03891 0.0974665 4.28296e-21 1.18808 -1.94386e-20 2.88841)
(1.51276 0.248734 -8.66679e-21 0.0830286 -1.76443e-21 0.636535)
(-1.91773 0.239199 1.32344e-21 0.815837 -5.41441e-22 -0.442645)
(-6.32757 0.0767989 -1.97572e-21 -0.225485 -6.95732e-20 -2.62386)
(5.97361 0.0992417 -4.33962e-21 1.18146 6.90363e-20 2.85964)
(1.48185 0.251608 6.11508e-21 0.0857875 8.84415e-22 0.62525)
(-1.87685 0.235591 4.09969e-21 0.837849 -3.63869e-22 -0.417508)
(-6.26861 0.0718605 -3.21033e-21 -0.215678 8.80207e-20 -2.59635)
(5.90226 0.101333 6.29283e-21 1.17617 -9.90684e-20 2.829)
(1.45279 0.250991 4.15992e-21 0.088519 -7.15256e-23 0.614712)
(-1.83574 0.232145 7.05317e-22 0.84966 -2.67193e-22 -0.396346)
(-6.2041 0.0705127 1.19859e-20 -0.21125 -5.99364e-20 -2.56876)
(5.82541 0.103128 -4.9735e-21 1.17017 6.82215e-20 2.79588)
(1.42574 0.248634 -1.21317e-20 0.0910253 9.04256e-22 0.604897)
(-1.79623 0.229341 2.53829e-21 0.854271 -1.37306e-21 -0.378694)
(-6.13331 0.0707175 -8.48178e-21 -0.208346 8.02705e-21 -2.53926)
(5.74315 0.10448 -7.07878e-21 1.16261 -9.24117e-20 2.75997)
(1.39992 0.245618 1.03352e-20 0.0932729 2.53443e-21 0.595475)
(-1.75817 0.22718 -4.63907e-21 0.85422 2.25733e-21 -0.36348)
(-6.05539 0.071336 -7.84081e-22 -0.204985 2.52359e-20 -2.50673)
(5.65558 0.105457 1.95531e-20 1.15332 6.93434e-20 2.72125)
(1.3748 0.242508 -2.21175e-22 0.0955913 -1.74836e-21 0.586361)
(-1.72146 0.22543 -5.78929e-21 0.85092 3.95232e-22 -0.350106)
(-5.96994 0.0718028 4.77244e-22 -0.200363 1.10211e-20 -2.47067)
(5.5626 0.106173 -1.82687e-20 1.14236 -1.56418e-21 2.67969)
(1.34978 0.239581 -1.60107e-20 0.0982263 -1.76664e-22 0.577421)
(-1.68556 0.223844 2.23598e-21 0.845384 1.95104e-21 -0.337947)
(-5.87667 0.0718647 1.25867e-21 -0.194232 -3.24461e-20 -2.43088)
(5.464 0.106729 -8.34272e-21 1.12984 -6.57192e-21 2.63527)
(1.32447 0.236924 -1.1787e-20 0.101356 -1.49614e-21 0.568557)
(-1.64989 0.222219 8.2296e-22 0.838216 3.90067e-22 -0.326533)
(-5.7754 0.0714493 8.24117e-21 -0.186627 1.06167e-20 -2.3873)
(5.35952 0.107184 1.07204e-20 1.11586 -1.12373e-20 2.58791)
(1.29852 0.234514 -2.24991e-21 0.105038 -4.60154e-21 0.55966)
(-1.61381 0.220425 4.0669e-21 0.829792 2.06532e-21 -0.315457)
(-5.66599 0.0705761 8.78358e-21 -0.177696 -2.97048e-20 -2.33993)
(5.24883 0.107562 -1.07668e-20 1.10046 -2.85287e-20 2.5375)
(1.2717 0.232269 1.11383e-20 0.109252 5.33431e-21 0.550628)
(-1.57672 0.218388 -1.16641e-20 0.820303 -1.335e-22 -0.304404)
(-5.54829 0.0693078 -2.07425e-21 -0.167622 2.44346e-20 -2.28879)
(5.13159 0.107858 5.30116e-20 1.08365 1.86486e-20 2.48391)
(1.24384 0.230085 -1.88334e-20 0.113914 -5.5306e-21 0.541359)
(-1.5381 0.216074 3.63812e-20 0.809832 6.585e-21 -0.29313)
(-5.42215 0.0677213 -8.66067e-21 -0.156581 -5.73726e-20 -2.23388)
(5.0075 0.108049 -4.47631e-20 1.06541 1.08677e-20 2.42701)
(1.21484 0.227855 -4.03562e-20 0.118927 -9.85702e-21 0.531773)
(-1.49748 0.21347 -1.03228e-20 0.798389 -9.49841e-21 -0.281444)
(-5.28737 0.06589 -6.3325e-21 -0.144728 4.82102e-20 -2.17519)
(4.8762 0.108104 -7.23394e-20 1.04565 -1.65629e-20 2.36662)
(1.18457 0.225473 6.78359e-20 0.124163 2.1961e-21 0.521773)
(-1.4545 0.210562 2.41226e-20 0.785929 1.72489e-21 -0.269223)
(-5.14371 0.063881 4.0101e-20 -0.132187 -1.73547e-20 -2.11267)
(4.73763 0.108008 8.26834e-20 1.02439 2.30916e-20 2.30273)
(1.15307 0.222865 -2.67756e-21 0.129555 1.57515e-20 0.511341)
(-1.40886 0.207346 -6.67803e-21 0.772431 -1.22802e-20 -0.256349)
(-4.99099 0.0617345 -3.45462e-20 -0.119029 4.32291e-20 -2.04627)
(4.59103 0.107621 6.33301e-21 1.00124 -2.40681e-20 2.23486)
(1.12013 0.219855 -4.3843e-20 0.134876 6.6505e-22 0.500306)
(-1.36034 0.20372 1.75527e-22 0.757782 4.20713e-21 -0.242784)
(-4.82878 0.059466 -1.41357e-20 -0.105317 7.72358e-21 -1.97585)
(4.43196 0.106643 -2.06954e-20 0.976215 -1.8481e-21 2.16126)
(1.08479 0.215448 8.18734e-20 0.140642 2.2969e-20 0.488492)
(-1.30681 0.198648 1.91844e-20 0.741348 -1.07568e-20 -0.227929)
(-4.65134 0.0564459 5.80333e-20 -0.0908313 -2.20295e-20 -1.89903)
(4.26524 0.106541 -5.44444e-20 0.949197 -3.34405e-20 2.08381)
(1.04809 0.212938 -1.5657e-20 0.146104 1.17319e-20 0.476011)
(-1.25008 0.195491 3.61408e-20 0.72333 5.37378e-21 -0.212421)
(-4.46445 0.0543418 -1.73076e-19 -0.0765586 4.76653e-20 -1.81852)
(4.10093 0.106309 -5.12775e-20 0.921964 1.80154e-20 2.00723)
(1.01248 0.210506 2.23613e-23 0.151072 1.44908e-20 0.46377)
(-1.19351 0.192516 -2.02202e-20 0.705363 8.73651e-21 -0.196962)
(-4.27892 0.0524574 1.10849e-19 -0.0623195 -5.42099e-20 -1.73855)
(3.93921 0.105927 1.44626e-19 0.894457 -4.82702e-21 1.93158)
(0.977791 0.207956 -3.64701e-20 0.155421 -1.24283e-20 0.451651)
(-1.13734 0.18949 9.54901e-21 0.687133 -1.34649e-20 -0.181764)
(-4.09554 0.0506108 -2.02173e-20 -0.0487971 1.98688e-20 -1.65975)
(3.78021 0.105378 5.59727e-20 0.866944 -2.81732e-20 1.85701)
(0.94409 0.205269 -9.54322e-20 0.159317 -4.17023e-20 0.439745)
(-1.08144 0.186413 4.02612e-20 0.668776 5.29936e-21 -0.166728)
(-3.91415 0.0488488 -6.00521e-20 -0.0357855 -5.9764e-21 -1.58194)
(3.62393 0.104697 -7.82635e-21 0.839323 3.24368e-21 1.78349)
(0.9113 0.202435 -1.60098e-20 0.162672 5.46215e-20 0.427987)
(-1.02596 0.183256 -3.89378e-20 0.650212 -1.0903e-20 -0.151939)
(-3.73502 0.0471365 -3.0951e-20 -0.0234506 3.22904e-20 -1.5053)
(3.47052 0.103869 1.34374e-19 0.811694 3.54004e-20 1.7111)
(0.879465 0.199446 1.20613e-19 0.16554 -2.7226e-20 0.416417)
(-0.970883 0.180015 3.51994e-20 0.631508 5.7603e-20 -0.137372)
(-3.55821 0.0454822 6.26538e-20 -0.0117166 -5.97466e-20 -1.42984)
(3.32002 0.102907 -2.00648e-19 0.784031 -4.77424e-20 1.63987)
(0.848564 0.196297 1.89622e-20 0.167888 -2.37613e-20 0.405011)
(-0.916309 0.176676 -4.95933e-20 0.612646 5.98341e-20 -0.123067)
(-3.38391 0.0438681 1.88459e-20 -0.000640502 -3.77197e-20 -1.35565)
(3.17257 0.101805 -4.23759e-20 0.756383 4.80386e-21 1.56986)
(0.818619 0.192978 -1.01848e-19 0.169731 4.91038e-20 0.393787)
(-0.862272 0.17323 -4.9448e-20 0.593657 -3.90328e-20 -0.109029)
(-3.21223 0.0422919 -3.93319e-20 0.00979385 8.62561e-20 -1.28276)
(3.02824 0.100565 -9.72714e-20 0.728759 -3.7388e-21 1.50111)
(0.789629 0.189484 -2.49219e-20 0.171058 -5.31602e-20 0.382738)
(-0.808843 0.169668 -8.55296e-20 0.574547 -8.59704e-20 -0.095282)
(-3.04334 0.0407443 5.89428e-20 0.0195616 3.55788e-20 -1.21126)
(2.88716 0.0991859 -1.75861e-19 0.701189 -5.00789e-21 1.43368)
(0.761608 0.185809 2.76541e-19 0.171874 6.67073e-20 0.371872)
(-0.75608 0.165981 -6.36785e-20 0.555334 -1.12428e-19 -0.0818422)
(-2.87741 0.0392213 -6.34455e-20 0.02866 3.58647e-20 -1.14121)
(2.74944 0.0976669 9.93919e-20 0.673697 -6.17287e-20 1.36763)
(0.734562 0.181949 -8.56661e-20 0.172175 5.98547e-20 0.36119)
(-0.704048 0.162163 2.70708e-19 0.536035 3.20442e-20 -0.0687306)
(-2.7146 0.0377175 -2.10325e-19 0.0370749 5.45919e-21 -1.07268)
(2.61519 0.0960075 -2.42799e-20 0.646313 9.97696e-21 1.303)
(0.7085 0.177899 1.07996e-19 0.171965 1.50346e-19 0.350697)
(-0.652815 0.158209 1.65437e-19 0.516667 -1.02609e-19 -0.0559655)
(-2.55508 0.0362302 1.11139e-20 0.0447995 3.01494e-20 -1.00575)
(2.48452 0.0942083 3.20876e-19 0.619066 1.13993e-20 1.23986)
(0.683429 0.17366 -1.18875e-19 0.171244 5.22014e-20 0.340396)
(-0.60245 0.154118 -1.14193e-19 0.497252 -1.52624e-20 -0.043567)
(-2.39903 0.034757 -1.05663e-19 0.0518252 -1.29636e-19 -0.940485)
(2.35755 0.0922701 -9.78036e-20 0.591989 1.42976e-19 1.17827)
(0.659354 0.169233 -1.22002e-19 0.170018 1.11782e-19 0.330292)
(-0.553023 0.149889 -4.15766e-20 0.477811 -1.44067e-19 -0.0315542)
(-2.24663 0.0332969 4.07974e-20 0.058147 -1.7318e-20 -0.876963)
(2.23439 0.0901944 -1.42027e-19 0.565115 -7.14445e-21 1.11828)
(0.636277 0.164621 2.02592e-19 0.168293 -1.55783e-19 0.320388)
(-0.504607 0.145525 -1.6227e-19 0.458368 2.12219e-19 -0.0199464)
(-2.09805 0.0318501 1.42392e-19 0.0637613 -1.28807e-19 -0.815255)
(2.11514 0.0879837 3.42948e-20 0.538482 -8.98138e-20 1.05996)
(0.614199 0.159829 1.2116e-20 0.166079 -1.6438e-19 0.310688)
(-0.457274 0.14103 -1.36134e-19 0.438949 -1.27337e-19 -0.00876202)
(-1.95347 0.0304177 -7.14708e-20 0.0686676 1.79586e-19 -0.755431)
(1.9999 0.0856411 2.38939e-19 0.512126 1.49569e-19 1.00334)
(0.593117 0.154867 -4.81665e-20 0.163388 3.38676e-19 0.301195)
(-0.411096 0.136412 1.62856e-19 0.419582 1.40006e-19 0.00198098)
(-1.81306 0.0290018 -2.13047e-19 0.0728682 -9.79407e-20 -0.697559)
(1.88874 0.0831708 -3.74139e-20 0.486086 9.83894e-20 0.948485)
(0.573022 0.149743 1.14452e-19 0.160235 -1.1659e-19 0.291912)
(-0.366145 0.13168 7.9466e-20 0.400297 2.15838e-19 0.0122657)
(-1.67699 0.0276057 -1.34104e-19 0.0763692 3.22693e-20 -0.641701)
(1.78175 0.0805777 -1.26342e-19 0.460403 -2.32725e-19 0.895437)
(0.553905 0.14447 -3.58926e-20 0.156637 1.62695e-19 0.282843)
(-0.322494 0.126846 1.07793e-19 0.381126 -2.87049e-19 0.0220762)
(-1.54541 0.0262331 2.14741e-19 0.0791799 7.99897e-20 -0.587917)
(1.67897 0.0778676 8.88612e-20 0.435118 5.39643e-20 0.844237)
(0.535748 0.139063 -2.41856e-19 0.152617 1.55755e-20 0.27399)
(-0.280211 0.121923 4.18457e-19 0.362101 -1.4028e-19 0.031398)
(-1.41846 0.0248887 -2.91397e-19 0.0813135 8.24052e-20 -0.536259)
(1.58047 0.0750473 8.46704e-20 0.410273 -1.14275e-19 0.79492)
(0.518532 0.133537 -1.87421e-19 0.148197 7.37753e-20 0.265353)
(-0.239363 0.116926 -6.95081e-20 0.343257 4.61082e-19 0.040218)
(-1.29629 0.0235776 3.65089e-20 0.0827872 6.14686e-20 -0.486774)
(1.48627 0.0721242 3.4519e-19 0.385911 -3.06267e-20 0.747515)
(0.502233 0.127911 -1.94338e-19 0.143404 -1.3449e-19 0.256934)
(-0.200016 0.111871 6.81271e-22 0.32463 -3.88229e-19 0.0485247)
(-1.17901 0.0223056 8.47074e-21 0.0836222 -2.15584e-19 -0.439502)
(1.39638 0.0691066 -6.98718e-20 0.362072 9.08719e-20 0.702046)
(0.486819 0.122201 -3.6073e-20 0.138271 2.41989e-19 0.248733)
(-0.16223 0.106776 -2.22961e-19 0.306256 3.87188e-19 0.0563083)
(-1.06672 0.0210784 -3.0722e-19 0.0838434 -2.85638e-20 -0.394474)
(1.3108 0.0660034 8.52693e-19 0.3388 -7.80187e-21 0.658528)
(0.472258 0.11643 -1.66858e-19 0.132827 4.90921e-19 0.240749)
(-0.126062 0.101661 4.12453e-20 0.288174 -1.97483e-19 0.0635609)
(-0.959513 0.0199023 3.58206e-19 0.0834797 1.0793e-19 -0.351715)
(1.22952 0.062824 -1.40095e-19 0.316136 -4.72779e-20 0.61697)
(0.458509 0.110617 -4.58608e-19 0.12711 -6.12824e-19 0.232981)
(-0.0915654 0.0965438 1.3054e-19 0.270419 -7.2638e-20 0.0702765)
(-0.857466 0.0187835 -2.70892e-19 0.0825638 1.33791e-19 -0.31124)
(1.15249 0.0595787 6.16418e-20 0.294119 -4.07196e-20 0.577372)
(0.44553 0.104783 1.86262e-19 0.121157 -8.01689e-20 0.225425)
(-0.0587868 0.091445 -8.90775e-20 0.253031 -3.65144e-19 0.0764512)
(-0.76063 0.0177281 -6.04352e-19 0.0811316 9.84016e-20 -0.273057)
(1.07966 0.0562778 1.83687e-19 0.272788 1.49044e-20 0.539729)
(0.433272 0.0989505 -6.60105e-20 0.115007 5.38004e-19 0.21808)
(-0.027769 0.0863846 1.49638e-19 0.236047 -1.71555e-20 0.0820827)
(-0.669038 0.0167421 2.07151e-19 0.0792224 1.19319e-19 -0.237163)
(1.01096 0.0529321 -2.92161e-19 0.252179 -1.43553e-19 0.504026)
(0.421685 0.0931409 5.17226e-19 0.1087 2.3758e-20 0.21094)
(0.00145127 0.0813822 -2.30942e-19 0.219503 2.8086e-19 0.0871713)
(-0.582708 0.0158311 1.99161e-19 0.0768782 -2.59159e-19 -0.203548)
(0.946297 0.0495526 -4.70698e-19 0.232327 -9.26449e-20 0.47024)
(0.410713 0.0873753 -3.83588e-19 0.10228 -9.55323e-19 0.204001)
(0.0288432 0.0764573 -1.14367e-19 0.203435 -1.1799e-19 0.0917187)
(-0.501635 0.0150005 2.22197e-19 0.0741436 -4.50346e-21 -0.172192)
(0.885572 0.0461503 3.2262e-19 0.213263 5.91003e-20 0.438344)
(0.400298 0.0816746 -4.4253e-20 0.0957875 3.87088e-19 0.197256)
(0.0543822 0.0716286 1.78663e-19 0.187878 2.83416e-19 0.0957289)
(-0.425796 0.0142548 2.98669e-19 0.0710651 -3.36965e-19 -0.143069)
(0.828662 0.0427362 1.73273e-19 0.195015 -1.28707e-19 0.408299)
(0.39038 0.0760587 5.38647e-20 0.089267 2.75377e-19 0.190698)
(0.0780498 0.0669138 -4.22046e-19 0.172864 1.87761e-19 0.0992076)
(-0.355152 0.0135984 -4.02963e-19 0.0676908 1.23066e-19 -0.116142)
(0.775434 0.0393212 -1.49871e-19 0.17761 3.99926e-20 0.380064)
(0.380897 0.0705466 2.38293e-19 0.082761 2.38684e-19 0.184319)
(0.0998341 0.0623297 3.21169e-19 0.158424 5.68908e-20 0.102162)
(-0.289642 0.0130347 8.68828e-20 0.0640702 -8.54599e-20 -0.0913684)
(0.725743 0.0359156 -6.11848e-20 0.161068 1.30761e-20 0.353589)
(0.371784 0.0651561 -1.77403e-19 0.076312 -2.76646e-19 0.178111)
(0.119729 0.0578917 -8.53131e-19 0.144587 2.2256e-19 0.104602)
(-0.229189 0.0125666 7.35832e-20 0.060253 1.91914e-19 -0.0686968)
(0.679431 0.0325298 -2.80482e-19 0.145408 -7.01787e-19 0.328818)
(0.362976 0.0599038 -1.55349e-19 0.0699616 3.61734e-19 0.172064)
(0.137736 0.0536138 7.33654e-19 0.131379 -5.49566e-19 0.106538)
(-0.173701 0.0121962 3.19038e-19 0.0562895 -7.17891e-20 -0.04807)
(0.636331 0.0291734 -1.59382e-19 0.130645 1.04704e-19 0.30569)
(0.354408 0.054805 -6.8037e-20 0.06375 1.70597e-19 0.166168)
(0.153861 0.0495089 -4.41892e-19 0.118824 1.45371e-19 0.107982)
(-0.123069 0.0119251 -6.46916e-19 0.0522296 1.81493e-19 -0.0294245)
(0.596268 0.0258558 2.99424e-19 0.116789 -1.35058e-19 0.284139)
(0.346013 0.0498736 4.67562e-19 0.0577162 -1.52885e-19 0.160412)
(0.168118 0.0455884 -1.77806e-19 0.106943 -6.30713e-20 0.108948)
(-0.0771682 0.0117543 6.64661e-19 0.0481224 -4.58089e-19 -0.0126912)
(0.559057 0.0225858 -2.78404e-19 0.103848 2.77012e-19 0.264094)
(0.337726 0.0451227 -6.08006e-19 0.0518973 6.85501e-20 0.154785)
(0.180525 0.0418629 2.90611e-19 0.0957527 -4.11369e-19 0.10945)
(-0.0358628 0.0116843 -5.89314e-19 0.0440162 3.18944e-19 0.00220407)
(0.524511 0.0193718 -5.13932e-19 0.0918235 -7.35402e-21 0.245482)
(0.329482 0.040564 2.3436e-19 0.0463286 -9.67064e-21 0.149276)
(0.191106 0.0383416 4.71542e-19 0.0852686 2.46232e-20 0.109504)
(0.000997462 0.0117153 -1.28408e-19 0.0399581 1.28888e-19 0.0153401)
(0.492434 0.0162216 2.68842e-19 0.0807164 1.28045e-19 0.228224)
(0.321218 0.0362087 4.71997e-19 0.0410433 -5.66123e-19 0.143871)
(0.199893 0.0350335 -3.90381e-19 0.0755024 -4.97956e-19 0.109127)
(0.0335742 0.0118471 -1.29223e-19 0.0359935 -8.13445e-20 0.0267998)
(0.462627 0.013143 -4.67804e-19 0.0705221 1.93635e-19 0.212239)
(0.31287 0.0320676 -5.26707e-19 0.0360726 -2.13615e-19 0.138558)
(0.206921 0.0319469 1.30212e-19 0.0664627 3.06999e-19 0.108337)
(0.0620401 0.0120798 1.39795e-19 0.0321661 8.40482e-20 0.0366698)
(0.434887 0.0101432 1.76672e-20 0.0612327 -8.57599e-20 0.197442)
(0.304377 0.0281509 6.03707e-19 0.0314455 -4.9283e-20 0.133325)
(0.212229 0.0290902 1.04182e-18 0.0581551 3.7114e-19 0.107152)
(0.0865786 0.0124135 -2.07089e-19 0.0285178 2.50626e-19 0.0450401)
(0.409007 0.00722924 -2.61823e-20 0.0528374 -3.17809e-19 0.183747)
(0.295681 0.024469 -6.08203e-19 0.0271892 9.41758e-19 0.128158)
(0.215865 0.0264719 4.7226e-20 0.0505821 -4.78483e-19 0.105591)
(0.107382 0.0128487 1.29899e-19 0.025089 -5.46322e-19 0.0520042)
(0.384779 0.0044077 -4.18744e-19 0.0453219 3.44886e-20 0.171064)
(0.286722 0.0210319 3.58342e-19 0.0233288 -4.95896e-19 0.123045)
(0.217879 0.0241003 -1.13463e-19 0.0437438 7.43899e-20 0.103675)
(0.124654 0.013386 6.47651e-20 0.021918 5.8654e-20 0.0576582)
(0.361991 0.00168469 -5.90562e-19 0.0386695 3.48519e-19 0.159302)
(0.277444 0.0178492 -3.54512e-20 0.0198881 2.30516e-19 0.117971)
(0.218323 0.0219837 4.38288e-19 0.0376372 -5.88759e-19 0.101424)
(0.138603 0.0140268 4.76613e-19 0.0190418 -2.38921e-19 0.0621009)
(0.340431 -0.000934578 2.94814e-19 0.0328604 -4.08352e-19 0.148368)
(0.267794 0.0149292 3.72496e-20 0.0168888 -9.23822e-19 0.112925)
(0.217258 0.0201295 -6.24216e-19 0.0322575 1.98368e-18 0.0988594)
(0.149447 0.0147725 -4.26293e-19 0.0164957 -3.03586e-19 0.0654331)
(0.31989 -0.00344642 -1.18698e-19 0.0278733 6.11903e-19 0.13817)
(0.257721 0.0122776 3.4855e-19 0.0143518 -5.8337e-19 0.107894)
(0.214743 0.0185429 9.86501e-19 0.0275981 -2.4101e-19 0.0960027)
(0.157406 0.0156241 -5.26076e-19 0.0143143 -1.61412e-19 0.0677573)
(0.300158 -0.00584956 -5.48326e-19 0.0236849 -7.66209e-19 0.128616)
(0.247174 0.0098955 -2.39593e-19 0.0122962 3.26758e-19 0.102867)
(0.210839 0.0172253 -4.72903e-20 0.0236517 -5.15534e-19 0.0928756)
(0.162703 0.0165823 6.79881e-20 0.0125306 -2.74281e-19 0.0691753)
(0.281039 -0.00814656 -1.81634e-19 0.0202726 3.69465e-20 0.119616)
(0.236111 0.00777651 4.19683e-19 0.0107414 1.17958e-18 0.0978323)
(0.205609 0.0161721 -9.63094e-19 0.0204114 -1.07315e-19 0.0895002)
(0.165557 0.017646 8.74899e-20 0.0111777 3.83932e-19 0.0697882)
(0.262347 -0.0103457 -6.75213e-19 0.0176135 7.37153e-20 0.111088)
(0.224489 0.00590343 -1.49531e-19 0.00970512 -3.12231e-19 0.0927811)
(0.19911 0.0153702 8.97967e-19 0.0178716 5.5231e-19 0.0858967)
(0.166177 0.0188123 -7.64196e-19 0.0102875 5.24304e-19 0.0696923)
(0.243925 -0.0124636 -8.47091e-20 0.0156912 6.18684e-19 0.102963)
(0.212272 0.00424326 -5.78906e-20 0.00921049 1.21336e-19 0.0877084)
(0.191395 0.0147971 2.73207e-19 0.016035 2.54412e-19 0.0820878)
(0.164763 0.0200766 1.18371e-19 0.00989513 -3.7852e-19 0.0689811)
(0.225642 -0.0145298 1.52264e-19 0.0144934 -5.30277e-19 0.0951815)
(0.19941 0.00274193 -5.9307e-19 0.00927869 1.45827e-20 0.0826024)
(0.182487 0.0144216 4.12791e-19 0.0149074 -1.03981e-18 0.078085)
(0.161483 0.0214343 4.92512e-19 0.0100349 3.03611e-19 0.0677361)
(0.207446 -0.0165957 3.30972e-19 0.0140378 -1.71012e-19 0.0877317)
(0.185874 0.00131312 4.94067e-20 0.00996697 7.90832e-19 0.077474)
(0.172415 0.0142136 -2.82581e-19 0.0145361 6.03008e-19 0.0739183)
(0.15652 0.0228899 -5.12756e-20 0.0107634 -1.71345e-19 0.0660527)
(0.18931 -0.018744 -8.8613e-19 0.0143572 7.25806e-19 0.0806155)
(0.171488 -0.000169569 8.45446e-19 0.0113138 1.17348e-19 0.0722682)
(0.161039 0.014157 1.54472e-19 0.014955 -1.18535e-18 0.0695455)
(0.149996 0.0244674 1.75187e-19 0.0121414 -7.01344e-19 0.0640042)
(0.171539 -0.021134 6.86254e-19 0.0156279 -5.39962e-19 0.0740245)
(0.156216 -0.00191068 -1.24317e-19 0.0135549 1.54795e-18 0.0670652)
(0.148348 0.0143027 -9.73259e-19 0.0164027 -1.08014e-18 0.0650574)
(0.142287 0.0262638 1.97745e-19 0.0143615 8.00388e-19 0.0618179)
(0.154234 -0.0239806 -1.22347e-20 0.018045 4.69332e-19 0.0680781)
(0.139049 -0.00415166 -2.95231e-19 0.0166184 3.03458e-19 0.0614323)
(0.133335 0.014753 9.44623e-19 0.0188116 1.52628e-19 0.0600242)
(0.133487 0.0284334 -4.8083e-19 0.0176215 -4.41616e-19 0.0596101)
(0.139222 -0.0276626 9.71354e-21 0.0224349 2.16271e-19 0.063837)
(0.120502 -0.00719512 8.4627e-19 0.0212679 -1.69747e-18 0.0558809)
(0.116549 0.0157197 3.48246e-19 0.0229609 9.79862e-19 0.0549768)
(0.125425 0.0313302 1.56126e-19 0.022739 1.69774e-19 0.0584399)
(0.125119 -0.0316569 -4.38864e-20 0.0284031 9.19708e-20 0.0605895)
(0.0954764 -0.0105109 2.08549e-19 0.0240611 -7.60311e-19 0.0469942)
(0.0928778 0.0166845 -2.34867e-20 0.0254196 1.97422e-19 0.0464982)
(0.116582 0.0344203 1.28212e-20 0.0292822 4.84738e-19 0.0575267)
(0.11957 -0.0336651 3.76892e-19 0.0339212 1.27372e-19 0.0605834)
(0.0754477 -0.012451 5.76817e-21 0.0220682 3.64646e-19 0.0381907)
(0.0740451 0.016203 -6.11167e-19 0.0233485 8.26703e-19 0.0381418)
(0.115085 0.0355903 -7.73162e-19 0.0352275 -6.93888e-19 0.0593118)
(0.0935148 -0.0237317 1.13253e-20 0.00712708 1.85453e-19 0.0394463)
(0.0396947 -0.00903003 -3.74726e-20 -0.0301141 9.71579e-19 0.00301824)
(0.0391633 0.010861 -2.39698e-19 -0.0285768 -2.09857e-19 0.00342063)
(0.0915394 0.0251424 3.23614e-19 0.00882874 1.66102e-19 0.0393368)
)
;

boundaryField
{
    plateFix
    {
        type            calculated;
        value           nonuniform List<symmTensor> 4((6.4253 0.665985 -1.44791e-21 2.50477 7.65454e-20 3.56975) (1.43309 -0.66067 -2.64421e-24 0.669339 4.82256e-23 0.8398) (-1.59644 -0.483779 7.83208e-23 -0.603177 -7.09419e-23 -0.881017) (-6.97064 1.15175 -1.05982e-21 -2.25032 -1.20122e-19 -3.6909));
    }
    plate
    {
        type            calculated;
        value           nonuniform List<symmTensor> 
168
(
(5.09441 0.00117302 -3.51865e-22 0.473081 -7.54122e-21 2.22487)
(-5.17913 -0.00227792 -8.24195e-23 0.479384 -3.01476e-20 -1.88221)
(5.31245 0.00124833 1.56261e-21 0.473815 -1.71303e-20 2.3123)
(-5.44201 -0.00215949 1.4226e-21 0.480102 1.77908e-20 -1.98717)
(5.54278 0.00170479 -3.27394e-21 0.474663 1.2525e-20 2.40468)
(-5.74115 -0.00242763 -5.48653e-21 0.480936 2.40716e-20 -2.10662)
(5.62313 0.00249808 1.68465e-21 0.47547 -2.41609e-20 2.43711)
(-5.85028 -0.00306754 4.46492e-21 0.481733 -2.42001e-20 -2.15001)
(5.6608 0.00360168 -1.47909e-21 0.476148 2.03554e-20 2.45242)
(-5.9127 -0.00409396 -7.19004e-22 0.482407 -1.08769e-20 -2.17474)
(5.64986 0.00491213 2.59658e-22 0.476627 -1.6136e-21 2.44823)
(-5.91704 -0.0053743 1.62926e-23 0.482884 -1.29859e-21 -2.17629)
(5.61597 0.00636291 -9.38008e-22 0.476869 -3.15931e-20 2.43477)
(-5.89598 -0.00683476 9.56958e-22 0.483131 3.21874e-20 -2.16777)
(5.56487 0.00789121 4.26439e-21 0.476862 8.60211e-21 2.41433)
(-5.85511 -0.00840042 -1.99205e-21 0.483131 -3.33073e-20 -2.15142)
(5.50386 0.00945465 -4.31936e-21 0.476603 2.65385e-20 2.38983)
(-5.80279 -0.0100223 -3.17147e-21 0.482885 -6.98376e-21 -2.13058)
(5.43572 0.0110229 6.24603e-21 0.476095 -1.70993e-20 2.36239)
(-5.74153 -0.0116644 1.19269e-20 0.482393 3.4092e-20 -2.10626)
(5.36237 0.0125776 -4.93006e-21 0.475343 7.23283e-21 2.33276)
(-5.67316 -0.0133045 -8.46152e-21 0.481661 -1.67757e-20 -2.07919)
(5.28449 0.0141084 -7.13931e-21 0.474346 -2.33627e-20 2.30123)
(-5.59812 -0.0149292 -7.66693e-22 0.48069 5.07472e-21 -2.04954)
(5.20229 0.0156111 1.95969e-20 0.473101 1.95135e-20 2.26786)
(-5.51656 -0.016532 4.84683e-22 0.479476 -8.96816e-21 -2.01738)
(5.11561 0.0170849 -1.82827e-20 0.471595 5.96029e-21 2.23261)
(-5.42834 -0.0181104 1.20853e-21 0.478008 1.42784e-20 -1.98265)
(5.02419 0.0185304 -8.35088e-21 0.469808 8.08166e-21 2.19535)
(-5.33327 -0.0196638 8.26709e-21 0.476267 -3.64148e-21 -1.94529)
(4.92765 0.0199481 1.07125e-20 0.467713 -1.19481e-20 2.15592)
(-5.23114 -0.0211913 8.75609e-21 0.474229 -8.55283e-21 -1.90522)
(4.82562 0.0213361 -1.08034e-20 0.465274 3.63165e-21 2.11416)
(-5.12171 -0.0226904 -2.02236e-21 0.471858 -6.89204e-21 -1.86236)
(4.71773 0.0226893 5.30604e-20 0.462447 -1.01927e-20 2.0699)
(-5.00471 -0.0241553 -8.75781e-21 0.469114 1.00385e-21 -1.81663)
(4.60366 0.0240001 -4.47837e-20 0.459187 6.1013e-21 2.023)
(-4.87989 -0.0255778 -6.26581e-21 0.465955 6.33862e-21 -1.76792)
(4.48306 0.0252491 -7.23897e-20 0.455428 -6.83529e-23 1.97329)
(-4.74697 -0.0269379 4.01151e-20 0.462318 -1.44089e-20 -1.71617)
(4.35587 0.0264356 8.27225e-20 0.451173 4.57493e-21 1.92075)
(-4.60572 -0.0282342 -3.45242e-20 0.458207 1.56454e-20 -1.66127)
(4.22142 0.0274807 6.35273e-21 0.44621 -1.75447e-20 1.86502)
(-4.45579 -0.02939 -1.41586e-20 0.453419 7.81868e-21 -1.60316)
(4.07547 0.0286371 -2.06734e-20 0.440807 -5.29086e-21 1.80451)
(-4.29143 -0.0306502 5.7985e-20 0.448212 -3.19445e-21 -1.53945)
(3.92234 0.0297904 -5.44585e-20 0.434126 -2.0057e-20 1.74063)
(-4.11829 -0.0318911 -1.72989e-19 0.441783 6.36758e-21 -1.47271)
(3.77172 0.0307311 -5.1297e-20 0.427395 1.11576e-20 1.67773)
(-3.94651 -0.0329085 1.10703e-19 0.435313 5.99269e-21 -1.40654)
(3.62353 0.0315757 1.44585e-19 0.420121 5.94403e-21 1.61558)
(-3.77676 -0.0338121 -2.01731e-20 0.428328 2.797e-21 -1.34138)
(3.47789 0.0322803 5.59183e-20 0.412615 -8.73982e-21 1.55436)
(-3.60879 -0.0345612 -6.01134e-20 0.421127 1.3138e-20 -1.27703)
(3.33478 0.032891 -7.82885e-21 0.404702 -1.45252e-20 1.49398)
(-3.44291 -0.0352009 -3.08665e-20 0.413536 2.26391e-22 -1.21367)
(3.19433 0.0333915 1.34461e-19 0.396491 5.57414e-22 1.43455)
(-3.27914 -0.0357167 6.24203e-20 0.405662 2.57894e-20 -1.15126)
(3.05658 0.0337995 -2.00804e-19 0.387929 -9.42517e-22 1.37606)
(-3.11766 -0.0361263 1.87781e-20 0.39745 -5.25353e-21 -1.08991)
(2.92165 0.0341108 -4.237e-20 0.379055 1.19322e-20 1.31857)
(-2.95859 -0.0364267 -3.91672e-20 0.388935 1.27293e-20 -1.02965)
(2.78962 0.034332 -9.71999e-20 0.369858 -1.16691e-20 1.26211)
(-2.80208 -0.0366251 5.91226e-20 0.380106 -2.87882e-20 -0.970537)
(2.6606 0.0344625 -1.75916e-19 0.360355 1.14298e-21 1.20673)
(-2.64828 -0.0367219 -6.33912e-20 0.370976 3.35584e-21 -0.91263)
(2.53467 0.0345047 9.90959e-20 0.350551 6.59105e-21 1.15247)
(-2.49735 -0.0367204 -2.1029e-19 0.361547 -1.73915e-20 -0.855993)
(2.41195 0.0344584 -2.42601e-20 0.340459 4.00484e-21 1.09937)
(-2.34944 -0.0366214 1.12393e-20 0.351829 -1.43223e-20 -0.800684)
(2.29253 0.0343243 3.20923e-19 0.330091 -8.65864e-22 1.04748)
(-2.20474 -0.0364265 -1.06171e-19 0.341831 -1.28119e-22 -0.746766)
(2.17653 0.0341021 -9.72466e-20 0.319461 1.24039e-21 0.996856)
(-2.06339 -0.0361366 4.07263e-20 0.331564 1.03227e-21 -0.694301)
(2.06403 0.0337915 -1.4202e-19 0.308586 -4.00836e-21 0.947531)
(-1.92557 -0.0357523 1.41899e-19 0.321042 -1.98748e-21 -0.643351)
(1.95512 0.033392 3.39421e-20 0.297486 2.1574e-21 0.899554)
(-1.79144 -0.0352744 -7.08321e-20 0.310282 1.20408e-20 -0.593973)
(1.8499 0.0329032 2.39554e-19 0.286182 -1.84565e-21 0.852968)
(-1.66116 -0.0347034 -2.1341e-19 0.299301 -4.11561e-22 -0.546225)
(1.74843 0.0323247 -3.70633e-20 0.274699 2.31007e-21 0.807811)
(-1.53489 -0.0340399 -1.34005e-19 0.28812 9.846e-21 -0.50016)
(1.65079 0.031656 -1.27314e-19 0.263062 -7.13036e-21 0.76412)
(-1.41277 -0.0332846 2.15028e-19 0.276762 1.41567e-21 -0.455827)
(1.55701 0.030897 8.91058e-20 0.251301 2.70837e-22 0.721929)
(-1.29493 -0.0324382 -2.91056e-19 0.265252 -1.84938e-22 -0.413271)
(1.46715 0.0300478 8.4113e-20 0.239447 5.80958e-21 0.681265)
(-1.18152 -0.0315017 3.67748e-20 0.25362 -1.59974e-21 -0.372532)
(1.38123 0.0291087 3.45056e-19 0.227533 1.54928e-21 0.642152)
(-1.07263 -0.0304763 7.5302e-21 0.241894 -1.29421e-22 -0.333643)
(1.29925 0.0280807 -6.94954e-20 0.215595 -3.57988e-22 0.604607)
(-0.968373 -0.0293634 -3.07352e-19 0.230107 -1.32244e-21 -0.296631)
(1.22121 0.0269647 8.52654e-19 0.203669 3.07014e-21 0.568645)
(-0.868831 -0.0281648 3.58673e-19 0.218293 2.67959e-22 -0.261516)
(1.1471 0.0257624 -1.40342e-19 0.191795 4.57229e-21 0.534271)
(-0.774074 -0.0268825 -2.70302e-19 0.206488 5.10991e-21 -0.228313)
(1.07687 0.0244758 6.1469e-20 0.180011 2.01272e-21 0.501485)
(-0.684155 -0.025519 -6.0389e-19 0.194729 -2.30354e-21 -0.197027)
(1.01047 0.0231076 1.8376e-19 0.168357 -1.84942e-21 0.470284)
(-0.599108 -0.0240769 2.07737e-19 0.183053 8.36793e-22 -0.167658)
(0.947828 0.0216607 -2.92892e-19 0.156873 -4.32206e-22 0.440654)
(-0.518953 -0.0225593 1.98016e-19 0.171499 -2.79166e-21 -0.140197)
(0.888863 0.0201385 -4.71043e-19 0.145599 -2.47376e-21 0.412578)
(-0.443688 -0.0209699 2.22129e-19 0.160106 5.65902e-22 -0.114628)
(0.833475 0.018545 3.22843e-19 0.134576 4.79276e-21 0.386032)
(-0.373296 -0.0193122 2.9717e-19 0.148913 4.60295e-21 -0.0909289)
(0.78155 0.0168844 1.72617e-19 0.12384 8.3077e-22 0.360987)
(-0.307742 -0.0175905 -4.02361e-19 0.137958 -5.58088e-22 -0.0690707)
(0.732963 0.0151614 -1.49616e-19 0.11343 2.28847e-22 0.337406)
(-0.246975 -0.0158091 8.65797e-20 0.12728 -5.75286e-22 -0.0490174)
(0.687579 0.013381 -6.11915e-20 0.10338 -1.0457e-21 0.31525)
(-0.190927 -0.0139726 7.4576e-20 0.116913 3.92117e-21 -0.0307271)
(0.645249 0.0115481 -2.83814e-19 0.0937237 -1.72909e-21 0.294473)
(-0.139514 -0.0120858 3.18732e-19 0.106894 1.14833e-21 -0.0141524)
(0.605817 0.00966825 -1.58835e-19 0.0844925 -3.25312e-22 0.275025)
(-0.0926373 -0.0101536 -6.46084e-19 0.0972555 -1.00359e-22 0.000759251)
(0.56912 0.00774671 2.98818e-19 0.0757144 6.30032e-21 0.256851)
(-0.0501862 -0.00818114 6.62547e-19 0.0880293 4.87814e-21 0.0140652)
(0.534987 0.00578891 -2.77048e-19 0.0674152 -6.51941e-21 0.239895)
(-0.0120359 -0.00617341 -5.87717e-19 0.0792445 -3.13515e-21 0.025827)