/*--------------------------------*- C++ -*----------------------------------*\
| =========                 |                                                 |
| \\      /  F ield         | OpenFOAM Extend Project: Open source CFD        |
|  \\    /   O peration     | Version:  1.6-ext                               |
|   \\  /    A nd           | Web:      www.extend-project.de                 |
|    \\/     M anipulation  |                                                 |
\*---------------------------------------------------------------------------*/
FoamFile
{
    version     2.0;
    format      ascii;
    class       volVectorField;
    location    "1.05";
    object      Usolid;
}
// * * * * * * * * * * * * * * * * * * * * * * * * * * * * * * * * * * * * * //

dimensions      [0 1 0 0 0 0 0];

internalField   nonuniform List<vector> 
328
(
(1.42713e-07 1.33405e-07 0)
(2.96012e-08 -5.67984e-08 0)
(-3.58149e-08 -3.90193e-08 0)
(-1.63982e-07 2.18763e-07 0)
(4.42258e-07 3.58708e-07 0)
(1.01018e-07 -8.13491e-08 0)
(-1.26788e-07 -2.94578e-08 0)
(-5.06143e-07 5.77568e-07 0)
(7.88538e-07 5.84025e-07 0)
(1.97805e-07 -1.03503e-08 0)
(-2.62264e-07 7.37634e-08 0)
(-9.05641e-07 9.02139e-07 0)
(1.16608e-06 8.41942e-07 0)
(3.05972e-07 1.61328e-07 0)
(-4.20728e-07 2.73218e-07 0)
(-1.34188e-06 1.23071e-06 0)
(1.57675e-06 1.16413e-06 0)
(4.25598e-07 4.39807e-07 0)
(-6.03505e-07 5.74098e-07 0)
(-1.81804e-06 1.60195e-06 0)
(2.01723e-06 1.57887e-06 0)
(5.52746e-07 8.37226e-07 0)
(-8.04024e-07 9.88251e-07 0)
(-2.33005e-06 2.04941e-06 0)
(2.48767e-06 2.11329e-06 0)
(6.87087e-07 1.36923e-06 0)
(-1.02137e-06 1.53179e-06 0)
(-2.87852e-06 2.6046e-06 0)
(2.9879e-06 2.79441e-06 0)
(8.27955e-07 2.05606e-06 0)
(-1.25368e-06 2.22571e-06 0)
(-3.4635e-06 3.29778e-06 0)
(3.51862e-06 3.65071e-06 0)
(9.75652e-07 2.92207e-06 0)
(-1.50069e-06 3.09534e-06 0)
(-4.08614e-06 4.15998e-06 0)
(4.08069e-06 4.71332e-06 0)
(1.13052e-06 3.99624e-06 0)
(-1.76224e-06 4.17056e-06 0)
(-4.7477e-06 5.22418e-06 0)
(4.67521e-06 6.01708e-06 0)
(1.29309e-06 5.31233e-06 0)
(-2.03874e-06 5.48599e-06 0)
(-5.44969e-06 6.52663e-06 0)
(5.30332e-06 7.60146e-06 0)
(1.46384e-06 6.90941e-06 0)
(-2.33069e-06 7.08135e-06 0)
(-6.19365e-06 8.10779e-06 0)
(5.96617e-06 9.51147e-06 0)
(1.64321e-06 8.83235e-06 0)
(-2.6388e-06 9.002e-06 0)
(-6.98111e-06 1.00133e-05 0)
(6.66488e-06 1.17984e-05 0)
(1.83156e-06 1.11325e-05 0)
(-2.96382e-06 1.12996e-05 0)
(-7.81354e-06 1.22949e-05 0)
(7.40042e-06 1.45208e-05 0)
(2.02913e-06 1.38684e-05 0)
(-3.30652e-06 1.40329e-05 0)
(-8.69231e-06 1.50112e-05 0)
(8.17363e-06 1.7745e-05 0)
(2.23608e-06 1.71066e-05 0)
(-3.66763e-06 1.72684e-05 0)
(-9.61864e-06 1.82288e-05 0)
(8.98514e-06 2.15463e-05 0)
(2.45246e-06 2.09226e-05 0)
(-4.04782e-06 2.10815e-05 0)
(-1.05935e-05 2.20227e-05 0)
(9.83533e-06 2.60099e-05 0)
(2.67824e-06 2.54014e-05 0)
(-4.44766e-06 2.55574e-05 0)
(-1.16178e-05 2.64782e-05 0)
(1.07243e-05 3.12319e-05 0)
(2.91328e-06 3.06392e-05 0)
(-4.86759e-06 3.07921e-05 0)
(-1.26919e-05 3.1691e-05 0)
(1.16517e-05 3.73201e-05 0)
(3.15733e-06 3.6744e-05 0)
(-5.30789e-06 3.68934e-05 0)
(-1.38161e-05 3.7769e-05 0)
(1.2617e-05 4.43957e-05 0)
(3.41001e-06 4.38367e-05 0)
(-5.76867e-06 4.39823e-05 0)
(-1.49899e-05 4.48331e-05 0)
(1.36189e-05 5.25939e-05 0)
(3.67084e-06 5.20528e-05 0)
(-6.24983e-06 5.21941e-05 0)
(-1.62127e-05 5.30183e-05 0)
(1.46952e-05 6.24262e-05 0)
(3.94934e-06 6.19045e-05 0)
(-6.77016e-06 6.20408e-05 0)
(-1.75314e-05 6.28356e-05 0)
(1.58004e-05 7.37884e-05 0)
(4.23323e-06 7.32867e-05 0)
(-7.30838e-06 7.34174e-05 0)
(-1.88915e-05 7.41808e-05 0)
(1.68594e-05 8.59554e-05 0)
(4.50329e-06 8.54732e-05 0)
(-7.82793e-06 8.5598e-05 0)
(-2.02005e-05 8.63303e-05 0)
(1.78729e-05 9.88949e-05 0)
(4.75989e-06 9.84315e-05 0)
(-8.32896e-06 9.85503e-05 0)
(-2.14589e-05 9.92515e-05 0)
(1.88418e-05 0.000112575 0)
(5.00337e-06 0.00011213 0)
(-8.81153e-06 0.000112242 0)
(-2.26672e-05 0.000112913 0)
(1.97668e-05 0.000126964 0)
(5.2341e-06 0.000126537 0)
(-9.27574e-06 0.000126643 0)
(-2.3826e-05 0.000127282 0)
(2.06489e-05 0.000142031 0)
(5.45246e-06 0.000141621 0)
(-9.72169e-06 0.00014172 0)
(-2.49359e-05 0.000142329 0)
(2.14888e-05 0.000157745 0)
(5.65882e-06 0.000157351 0)
(-1.01495e-05 0.000157444 0)
(-2.59974e-05 0.000158023 0)
(2.22874e-05 0.000174076 0)
(5.8536e-06 0.000173699 0)
(-1.05592e-05 0.000173785 0)
(-2.70111e-05 0.000174334 0)
(2.30458e-05 0.000190995 0)
(6.03719e-06 0.000190633 0)
(-1.0951e-05 0.000190713 0)
(-2.79778e-05 0.000191232 0)
(2.37649e-05 0.000208473 0)
(6.21003e-06 0.000208126 0)
(-1.13251e-05 0.000208198 0)
(-2.88981e-05 0.000208689 0)
(2.44457e-05 0.00022648 0)
(6.37254e-06 0.000226148 0)
(-1.16815e-05 0.000226213 0)
(-2.97728e-05 0.000226675 0)
(2.50893e-05 0.00024499 0)
(6.52516e-06 0.000244672 0)
(-1.20204e-05 0.00024473 0)
(-3.06026e-05 0.000245163 0)
(2.56967e-05 0.000263975 0)
(6.66835e-06 0.00026367 0)
(-1.23421e-05 0.000263721 0)
(-3.13883e-05 0.000264126 0)
(2.62691e-05 0.000283407 0)
(6.80256e-06 0.000283116 0)
(-1.26466e-05 0.000283159 0)
(-3.21309e-05 0.000283537 0)
(2.68076e-05 0.000303263 0)
(6.92826e-06 0.000302983 0)
(-1.29344e-05 0.00030302 0)
(-3.28312e-05 0.000303371 0)
(2.73134e-05 0.000323515 0)
(7.04589e-06 0.000323248 0)
(-1.32055e-05 0.000323277 0)
(-3.34902e-05 0.000323602 0)
(2.77877e-05 0.00034414 0)
(7.15594e-06 0.000343884 0)
(-1.34603e-05 0.000343906 0)
(-3.41089e-05 0.000344205 0)
(2.82317e-05 0.000365114 0)
(7.25885e-06 0.000364869 0)
(-1.36991e-05 0.000364883 0)
(-3.46884e-05 0.000365158 0)
(2.86467e-05 0.000386414 0)
(7.35509e-06 0.000386179 0)
(-1.39222e-05 0.000386186 0)
(-3.52298e-05 0.000386436 0)
(2.9034e-05 0.000408018 0)
(7.44511e-06 0.000407792 0)
(-1.413e-05 0.000407792 0)
(-3.57342e-05 0.000408019 0)
(2.93947e-05 0.000429904 0)
(7.52934e-06 0.000429687 0)
(-1.43228e-05 0.000429681 0)
(-3.62029e-05 0.000429884 0)
(2.97301e-05 0.000452052 0)
(7.60822e-06 0.000451844 0)
(-1.45011e-05 0.00045183 0)
(-3.66371e-05 0.000452012 0)
(3.00416e-05 0.000474443 0)
(7.68217e-06 0.000474242 0)
(-1.46652e-05 0.000474222 0)
(-3.70381e-05 0.000474383 0)
(3.03304e-05 0.000497057 0)
(7.75157e-06 0.000496864 0)
(-1.48157e-05 0.000496837 0)
(-3.74072e-05 0.000496977 0)
(3.05977e-05 0.000519877 0)
(7.81681e-06 0.000519691 0)
(-1.4953e-05 0.000519658 0)
(-3.77458e-05 0.000519778 0)
(3.08447e-05 0.000542886 0)
(7.87824e-06 0.000542706 0)
(-1.50777e-05 0.000542667 0)
(-3.80552e-05 0.000542768 0)
(3.10727e-05 0.000566068 0)
(7.9362e-06 0.000565894 0)
(-1.51902e-05 0.000565848 0)
(-3.83368e-05 0.000565932 0)
(3.12828e-05 0.000589407 0)
(7.991e-06 0.000589238 0)
(-1.52911e-05 0.000589187 0)
(-3.85921e-05 0.000589254 0)
(3.14762e-05 0.000612889 0)
(8.04291e-06 0.000612726 0)
(-1.5381e-05 0.000612669 0)
(-3.88226e-05 0.00061272 0)
(3.16539e-05 0.000636502 0)
(8.0922e-06 0.000636343 0)
(-1.54606e-05 0.000636281 0)
(-3.90295e-05 0.000636316 0)
(3.18171e-05 0.000660231 0)
(8.13908e-06 0.000660076 0)
(-1.55303e-05 0.00066001 0)
(-3.92145e-05 0.00066003 0)
(3.19667e-05 0.000684066 0)
(8.18375e-06 0.000683915 0)
(-1.55908e-05 0.000683844 0)
(-3.93788e-05 0.000683851 0)
(3.21037e-05 0.000707996 0)
(8.22637e-06 0.000707849 0)
(-1.56428e-05 0.000707773 0)
(-3.95241e-05 0.000707768 0)
(3.2229e-05 0.00073201 0)
(8.26707e-06 0.000731866 0)
(-1.56869e-05 0.000731786 0)
(-3.96516e-05 0.000731769 0)
(3.23434e-05 0.0007561 0)
(8.30596e-06 0.000755958 0)
(-1.57238e-05 0.000755875 0)
(-3.97629e-05 0.000755847 0)
(3.24479e-05 0.000780256 0)
(8.34311e-06 0.000780117 0)
(-1.5754e-05 0.00078003 0)
(-3.98592e-05 0.000779993 0)
(3.2543e-05 0.00080447 0)
(8.37855e-06 0.000804335 0)
(-1.57784e-05 0.000804244 0)
(-3.9942e-05 0.000804198 0)
(3.26295e-05 0.000828737 0)
(8.41229e-06 0.000828604 0)
(-1.57974e-05 0.00082851 0)
(-4.00125e-05 0.000828456 0)
(3.2708e-05 0.000853049 0)
(8.44433e-06 0.000852918 0)
(-1.58118e-05 0.000852822 0)
(-4.00721e-05 0.000852761 0)
(3.2779e-05 0.0008774 0)
(8.47461e-06 0.000877271 0)
(-1.58223e-05 0.000877173 0)
(-4.0122e-05 0.000877106 0)
(3.28431e-05 0.000901785 0)
(8.50305e-06 0.000901658 0)
(-1.58294e-05 0.000901559 0)
(-4.01634e-05 0.000901486 0)
(3.29007e-05 0.000926199 0)
(8.52956e-06 0.000926075 0)
(-1.58338e-05 0.000925974 0)
(-4.01976e-05 0.000925896 0)
(3.29521e-05 0.000950639 0)
(8.55402e-06 0.000950517 0)
(-1.58361e-05 0.000950415 0)
(-4.02255e-05 0.000950334 0)
(3.29977e-05 0.000975101 0)
(8.57627e-06 0.000974981 0)
(-1.58369e-05 0.000974879 0)
(-4.02484e-05 0.000974793 0)
(3.30376e-05 0.000999581 0)
(8.59614e-06 0.000999463 0)
(-1.58369e-05 0.000999361 0)
(-4.02671e-05 0.000999273 0)
(3.30722e-05 0.00102408 0)
(8.61343e-06 0.00102396 0)
(-1.58365e-05 0.00102386 0)
(-4.02827e-05 0.00102377 0)
(3.31015e-05 0.00104858 0)
(8.62793e-06 0.00104847 0)
(-1.58364e-05 0.00104837 0)
(-4.0296e-05 0.00104828 0)
(3.31255e-05 0.0010731 0)
(8.63941e-06 0.00107299 0)
(-1.58371e-05 0.00107289 0)
(-4.03079e-05 0.0010728 0)
(3.31444e-05 0.00109763 0)
(8.64761e-06 0.00109753 0)
(-1.58391e-05 0.00109743 0)
(-4.03191e-05 0.00109733 0)
(3.3158e-05 0.00112217 0)
(8.65226e-06 0.00112207 0)
(-1.58429e-05 0.00112197 0)
(-4.03305e-05 0.00112188 0)
(3.31663e-05 0.00114671 0)
(8.65307e-06 0.00114661 0)
(-1.58489e-05 0.00114652 0)
(-4.03426e-05 0.00114643 0)
(3.31691e-05 0.00117126 0)
(8.64973e-06 0.00117116 0)
(-1.58578e-05 0.00117107 0)
(-4.03562e-05 0.00117098 0)
(3.31664e-05 0.00119581 0)
(8.64192e-06 0.00119572 0)
(-1.587e-05 0.00119563 0)
(-4.03717e-05 0.00119554 0)
(3.3158e-05 0.00122036 0)
(8.62918e-06 0.00122027 0)
(-1.58861e-05 0.00122019 0)
(-4.03899e-05 0.0012201 0)
(3.31439e-05 0.00124492 0)
(8.61107e-06 0.00124483 0)
(-1.59067e-05 0.00124475 0)
(-4.04111e-05 0.00124467 0)
(3.31238e-05 0.00126947 0)
(8.58655e-06 0.00126939 0)
(-1.59329e-05 0.00126932 0)
(-4.04361e-05 0.00126924 0)
(3.30987e-05 0.00129403 0)
(8.55516e-06 0.00129395 0)
(-1.59655e-05 0.00129388 0)
(-4.04643e-05 0.00129381 0)
(3.30676e-05 0.00131859 0)
(8.51416e-06 0.00131851 0)
(-1.60072e-05 0.00131845 0)
(-4.04973e-05 0.00131838 0)
(3.30367e-05 0.00134316 0)
(8.47128e-06 0.00134308 0)
(-1.60504e-05 0.00134301 0)
(-4.05288e-05 0.00134293 0)
)
;

boundaryField
{
    plateFix
    {
        type            fixedDisplacement;
        value           uniform (0 0 0);
    }
    plate
    {
        type            solidTraction;
        nonLinear       updatedLagrangian;
        traction        uniform (0 0 0);
        pressure        uniform 0;
        value           nonuniform List<vector> 
168
(
(7.46882e-07 5.74221e-07 -8.074e-26)
(-1.14535e-06 8.05088e-07 -1.23928e-25)
(9.66493e-07 8.211e-07 1.6655e-25)
(-1.30529e-06 1.19039e-06 -2.52847e-26)
(1.31145e-06 1.06936e-06 2.48807e-26)
(-1.61641e-06 1.54493e-06 1.35948e-25)
(1.7504e-06 1.33524e-06 -8.47407e-27)
(-2.05071e-06 1.8845e-06 3.24089e-26)
(2.2683e-06 1.66117e-06 -7.6023e-26)
(-2.59061e-06 2.26201e-06 -1.03871e-25)
(2.84751e-06 2.07482e-06 6.14858e-26)
(-3.21208e-06 2.7099e-06 2.46992e-26)
(3.47908e-06 2.60592e-06 -8.68351e-26)
(-3.90262e-06 3.26294e-06 2.5354e-26)
(4.1572e-06 3.28205e-06 2.2982e-26)
(-4.65349e-06 3.95193e-06 -7.01046e-26)
(4.8796e-06 4.13243e-06 -7.14021e-26)
(-5.4607e-06 4.80875e-06 8.83841e-26)
(5.64581e-06 5.18846e-06 1.01565e-25)
(-6.32256e-06 5.86663e-06 -5.46481e-26)
(6.45658e-06 6.48518e-06 -6.80267e-26)
(-7.23911e-06 7.16198e-06 4.17799e-27)
(7.31324e-06 8.06213e-06 8.81877e-26)
(-8.21127e-06 8.73532e-06 2.47258e-26)
(8.21736e-06 9.96434e-06 -6.33832e-26)
(-9.24043e-06 1.06323e-05 1.20496e-26)
(9.17054e-06 1.22431e-05 -5.81089e-27)
(-1.03282e-05 1.29046e-05 -3.09528e-26)
(1.01742e-05 1.49569e-05 6.74947e-27)
(-1.14761e-05 1.56109e-05 9.36003e-27)
(1.12296e-05 1.81721e-05 1.21146e-26)
(-1.26856e-05 1.88176e-05 -1.94695e-26)
(1.23377e-05 2.1964e-05 3.04571e-26)
(-1.39581e-05 2.26e-05 1.85102e-26)
(1.34991e-05 2.64177e-05 -7.91548e-27)
(-1.52944e-05 2.70429e-05 -6.5215e-26)
(1.47139e-05 3.16292e-05 -1.8344e-26)
(-1.66952e-05 3.22424e-05 5.40618e-26)
(1.59819e-05 3.77065e-05 6.75844e-27)
(-1.81606e-05 3.8306e-05 8.57838e-28)
(1.73021e-05 4.47706e-05 -1.28108e-27)
(-1.96902e-05 4.53547e-05 1.61838e-26)
(1.86732e-05 5.29568e-05 1.65815e-26)
(-2.12827e-05 5.35236e-05 7.2231e-27)
(2.01462e-05 6.27761e-05 -1.05665e-26)
(-2.29988e-05 6.33229e-05 -1.43568e-26)
(2.16609e-05 7.41249e-05 3.19205e-26)
(-2.4769e-05 7.4649e-05 3.32283e-26)
(2.31131e-05 8.62789e-05 -5.95484e-26)
(-2.64717e-05 8.67794e-05 -4.54998e-26)
(2.45039e-05 9.92056e-05 4.52899e-26)
(-2.81079e-05 9.96818e-05 2.6191e-26)
(2.58343e-05 0.000112873 3.1518e-26)
(-2.96781e-05 0.000113324 -6.12068e-26)
(2.71052e-05 0.00012725 -4.88772e-26)
(-3.11831e-05 0.000127675 9.25853e-26)
(2.83177e-05 0.000142305 4.06817e-26)
(-3.26238e-05 0.000142704 -5.16971e-27)
(2.94731e-05 0.000158008 -5.62277e-26)
(-3.40009e-05 0.000158379 2.73339e-26)
(3.05723e-05 0.000174328 -3.17593e-27)
(-3.53154e-05 0.000174672 -1.44605e-26)
(3.16166e-05 0.000191236 1.09278e-26)
(-3.65682e-05 0.000191552 -5.38212e-26)
(3.26073e-05 0.000208703 -3.65087e-26)
(-3.77602e-05 0.000208991 -3.77861e-26)
(3.35457e-05 0.0002267 -2.84088e-26)
(-3.88925e-05 0.00022696 -6.63367e-26)
(3.44332e-05 0.0002452 -3.24057e-26)
(-3.99662e-05 0.000245431 -1.08137e-27)
(3.5271e-05 0.000264175 1.69774e-26)
(-4.09823e-05 0.000264377 9.32163e-26)
(3.60608e-05 0.000283599 1.46624e-25)
(-4.19421e-05 0.000283772 1.98745e-26)
(3.68039e-05 0.000303445 -1.02218e-26)
(-4.28468e-05 0.00030359 1.47454e-25)
(3.7502e-05 0.000323689 -6.01964e-26)
(-4.36979e-05 0.000323805 -1.89298e-25)
(3.81566e-05 0.000344306 1.24537e-25)
(-4.44965e-05 0.000344393 1.04103e-25)
(3.87693e-05 0.000365272 8.77076e-26)
(-4.52443e-05 0.00036533 -2.33395e-26)
(3.93417e-05 0.000386565 -2.05837e-25)
(-4.59427e-05 0.000386594 -1.00274e-25)
(3.98756e-05 0.000408162 5.21467e-26)
(-4.65933e-05 0.000408163 -6.87484e-26)
(4.03726e-05 0.000430041 -1.26904e-25)
(-4.71977e-05 0.000430015 -4.3735e-26)
(4.08344e-05 0.000452183 -4.93609e-26)
(-4.77576e-05 0.000452129 2.00922e-25)
(4.12626e-05 0.000474568 1.14164e-25)
(-4.82747e-05 0.000474487 3.59847e-26)
(4.16591e-05 0.000497176 -4.8622e-26)
(-4.87508e-05 0.00049707 -1.14028e-25)
(4.20254e-05 0.000519991 -3.71324e-26)
(-4.91876e-05 0.000519859 -1.28178e-25)
(4.23633e-05 0.000542995 -8.73405e-27)
(-4.95869e-05 0.000542838 -1.04483e-25)
(4.26744e-05 0.000566172 -9.67185e-27)
(-4.99507e-05 0.000565991 -1.17543e-25)
(4.29602e-05 0.000589507 -1.49769e-25)
(-5.02808e-05 0.000589303 2.24931e-25)
(4.32225e-05 0.000612986 -9.18606e-26)
(-5.05791e-05 0.000612759 4.4674e-26)
(4.34626e-05 0.000636595 6.33862e-26)
(-5.08473e-05 0.000636346 3.542e-25)
(4.36822e-05 0.000660321 -1.16822e-25)
(-5.10875e-05 0.000660052 -1.50779e-25)
(4.38825e-05 0.000684153 2.59118e-26)
(-5.13015e-05 0.000683865 1.34071e-25)
(4.40651e-05 0.00070808 6.27085e-27)
(-5.14911e-05 0.000707774 -2.32618e-25)
(4.42312e-05 0.000732091 -6.88657e-25)
(-5.16581e-05 0.000731769 7.91742e-26)
(4.43819e-05 0.000756178 1.01756e-25)
(-5.18043e-05 0.000755841 -1.80052e-25)
(4.45186e-05 0.000780332 -1.32582e-25)
(-5.19315e-05 0.000779981 4.6045e-25)
(4.46422e-05 0.000804544 3.01624e-25)
(-5.20414e-05 0.000804181 -3.17103e-25)
(4.47539e-05 0.000828809 -2.21031e-26)
(-5.21357e-05 0.000828434 -1.43652e-25)
(4.48545e-05 0.000853119 1.15701e-25)
(-5.2216e-05 0.000852735 9.49456e-26)
(4.49448e-05 0.000877468 2.05684e-25)
(-5.22838e-05 0.000877076 -7.13e-26)
(4.50258e-05 0.000901852 -8.29927e-26)
(-5.23406e-05 0.000901453 -2.625e-25)
(4.5098e-05 0.000926265 -3.18023e-25)
(-5.2388e-05 0.00092586 5.4832e-25)
(4.51622e-05 0.000950703 4.62228e-26)
(-5.24272e-05 0.000950295 -6.70183e-26)
(4.52187e-05 0.000975163 3.40516e-25)
(-5.24595e-05 0.000974753 2.43547e-25)
(4.52682e-05 0.000999642 -4.12657e-25)
(-5.24863e-05 0.000999231 2.98697e-25)
(4.5311e-05 0.00102414 6.19639e-25)
(-5.25085e-05 0.00102373 1.67522e-25)
(4.53473e-05 0.00104864 -7.70253e-25)
(-5.25274e-05 0.00104823 2.74926e-25)
(4.53775e-05 0.00107316 4.32645e-26)
(-5.25438e-05 0.00107276 -3.83567e-25)
(4.54015e-05 0.00109769 7.71994e-26)
(-5.25588e-05 0.00109729 -5.31631e-25)
(4.54196e-05 0.00112222 6.15614e-25)
(-5.25731e-05 0.00112183 3.77442e-25)
(4.54317e-05 0.00114676 -5.34478e-25)
(-5.25874e-05 0.00114638 -3.01863e-25)
(4.54377e-05 0.00117131 -1.60698e-25)
(-5.26026e-05 0.00117094 1.72611e-25)
(4.54375e-05 0.00119586 7.13561e-25)
(-5.26193e-05 0.0011955 7.05984e-25)
(4.54311e-05 0.00122041 -5.38545e-25)
(-5.2638e-05 0.00122006 -7.984e-25)
(4.54185e-05 0.00124496 4.68552e-25)
(-5.26593e-05 0.00124463 4.37195e-25)
(4.53996e-05 0.00126952 2.21558e-25)
(-5.26839e-05 0.0012692 -1.70665e-25)
(4.53766e-05 0.00129407 8.98312e-26)
(-5.271e-05 0.00129377 -4.85833e-25)
(4.53527e-05 0.00131862 1.24921e-25)
(-5.27353e-05 0.00131834 6.89988e-25)
(4.5344e-05 0.0013432 1.86309e-25)
(3.30186e-05 0.00135548 -1.21559e-26)
(8.45051e-06 0.00135537 3.24489e-26)
(-1.60713e-05 0.00135528 2.40118e-25)
(-4.0547e-05 0.00135517 -3.24787e-25)
(-5.27442e-05 0.00134289 -1.64163e-25)
)
;
    }
    frontAndBackPlanes
    {
        type            empty;
    }
}


// ************************************************************************* //
