/*--------------------------------*- C++ -*----------------------------------*\
| =========                 |                                                 |
| \\      /  F ield         | OpenFOAM Extend Project: Open source CFD        |
|  \\    /   O peration     | Version:  1.6-ext                               |
|   \\  /    A nd           | Web:      www.extend-project.de                 |
|    \\/     M anipulation  |                                                 |
\*---------------------------------------------------------------------------*/
FoamFile
{
    version     2.0;
    format      ascii;
    class       volScalarField::DimensionedInternalField;
    location    "1.05";
    object      V0;
}
// * * * * * * * * * * * * * * * * * * * * * * * * * * * * * * * * * * * * * //

dimensions      [0 3 0 0 0 0 0];

value           nonuniform List<scalar> 
328
(
2.53366e-07
2.53356e-07
2.53317e-07
2.53318e-07
2.71732e-07
2.71721e-07
2.71691e-07
2.71696e-07
2.91441e-07
2.91419e-07
2.91394e-07
2.91385e-07
3.12576e-07
3.12546e-07
3.12524e-07
3.12504e-07
3.35242e-07
3.35206e-07
3.35186e-07
3.35157e-07
3.5955e-07
3.59509e-07
3.5949e-07
3.59454e-07
3.85619e-07
3.85575e-07
3.85555e-07
3.85514e-07
4.13578e-07
4.13531e-07
4.1351e-07
4.13465e-07
4.43564e-07
4.43514e-07
4.43492e-07
4.43443e-07
4.75724e-07
4.7567e-07
4.75648e-07
4.75595e-07
5.10215e-07
5.10158e-07
5.10134e-07
5.10078e-07
5.47207e-07
5.47147e-07
5.47122e-07
5.47062e-07
5.8688e-07
5.86817e-07
5.86791e-07
5.86728e-07
6.2943e-07
6.29364e-07
6.29336e-07
6.29269e-07
6.75065e-07
6.74996e-07
6.74966e-07
6.74896e-07
7.24009e-07
7.23936e-07
7.23904e-07
7.2383e-07
7.76501e-07
7.76424e-07
7.76391e-07
7.76313e-07
8.32799e-07
8.32718e-07
8.32683e-07
8.32602e-07
8.93178e-07
8.93093e-07
8.93057e-07
8.92972e-07
9.57934e-07
9.57846e-07
9.57808e-07
9.5772e-07
1.02739e-06
1.02729e-06
1.02725e-06
1.02716e-06
1.10187e-06
1.10178e-06
1.10174e-06
1.10164e-06
1.26883e-06
1.26872e-06
1.26868e-06
1.26857e-06
1.26882e-06
1.26872e-06
1.26868e-06
1.26858e-06
1.26882e-06
1.26872e-06
1.26868e-06
1.26858e-06
1.26881e-06
1.26872e-06
1.26868e-06
1.26859e-06
1.26881e-06
1.26872e-06
1.26868e-06
1.26859e-06
1.2688e-06
1.26872e-06
1.26868e-06
1.2686e-06
1.2688e-06
1.26872e-06
1.26868e-06
1.2686e-06
1.2688e-06
1.26872e-06
1.26868e-06
1.26861e-06
1.26879e-06
1.26872e-06
1.26868e-06
1.26861e-06
1.26879e-06
1.26872e-06
1.26869e-06
1.26861e-06
1.26878e-06
1.26871e-06
1.26869e-06
1.26862e-06
1.26878e-06
1.26871e-06
1.26869e-06
1.26862e-06
1.26877e-06
1.26871e-06
1.26869e-06
1.26863e-06
1.26877e-06
1.26871e-06
1.26869e-06
1.26863e-06
1.26877e-06
1.26871e-06
1.26869e-06
1.26864e-06
1.26876e-06
1.26871e-06
1.26869e-06
1.26864e-06
1.26876e-06
1.26871e-06
1.26869e-06
1.26864e-06
1.26875e-06
1.26871e-06
1.26869e-06
1.26865e-06
1.26875e-06
1.26871e-06
1.26869e-06
1.26865e-06
1.26875e-06
1.26871e-06
1.26869e-06
1.26865e-06
1.26874e-06
1.26871e-06
1.26869e-06
1.26866e-06
1.26874e-06
1.26871e-06
1.26869e-06
1.26866e-06
1.26874e-06
1.26871e-06
1.26869e-06
1.26866e-06
1.26874e-06
1.26871e-06
1.2687e-06
1.26867e-06
1.26873e-06
1.26871e-06
1.2687e-06
1.26867e-06
1.26873e-06
1.26871e-06
1.2687e-06
1.26867e-06
1.26873e-06
1.26871e-06
1.2687e-06
1.26867e-06
1.26873e-06
1.26871e-06
1.2687e-06
1.26868e-06
1.26872e-06
1.26871e-06
1.2687e-06
1.26868e-06
1.26872e-06
1.2687e-06
1.2687e-06
1.26868e-06
1.26872e-06
1.2687e-06
1.2687e-06
1.26868e-06
1.26872e-06
1.2687e-06
1.2687e-06
1.26868e-06
1.26872e-06
1.2687e-06
1.2687e-06
1.26869e-06
1.26871e-06
1.2687e-06
1.2687e-06
1.26869e-06
1.26871e-06
1.2687e-06
1.2687e-06
1.26869e-06
1.26871e-06
1.2687e-06
1.2687e-06
1.26869e-06
1.26871e-06
1.2687e-06
1.2687e-06
1.26869e-06
1.26871e-06
1.2687e-06
1.2687e-06
1.26869e-06
1.26871e-06
1.2687e-06
1.2687e-06
1.26869e-06
1.26871e-06
1.2687e-06
1.2687e-06
1.26869e-06
1.26871e-06
1.2687e-06
1.2687e-06
1.26869e-06
1.2687e-06
1.2687e-06
1.2687e-06
1.2687e-06
1.2687e-06
1.2687e-06
1.2687e-06
1.2687e-06
1.2687e-06
1.2687e-06
1.2687e-06
1.2687e-06
1.2687e-06
1.2687e-06
1.2687e-06
1.2687e-06
1.2687e-06
1.2687e-06
1.2687e-06
1.2687e-06
1.2687e-06
1.2687e-06
1.2687e-06
1.2687e-06
1.2687e-06
1.2687e-06
1.2687e-06
1.2687e-06
1.2687e-06
1.2687e-06
1.2687e-06
1.2687e-06
1.2687e-06
1.2687e-06
1.2687e-06
1.2687e-06
1.2687e-06
1.2687e-06
1.2687e-06
1.2687e-06
1.2687e-06
1.2687e-06
1.2687e-06
1.2687e-06
1.2687e-06
1.2687e-06
1.2687e-06
1.2687e-06
1.2687e-06
1.2687e-06
1.2687e-06
1.2687e-06
1.2687e-06
1.2687e-06
1.2687e-06
1.2687e-06
1.2687e-06
1.2687e-06
1.2687e-06
1.2687e-06
1.2687e-06
1.2687e-06
1.2687e-06
1.2687e-06
1.2687e-06
1.2687e-06
1.2687e-06
1.2687e-06
1.2687e-06
1.2687e-06
1.2687e-06
1.2687e-06
1.26869e-06
1.26869e-06
1.26869e-06
1.26869e-06
)
;


// ************************************************************************* //
