/*--------------------------------*- C++ -*----------------------------------*\
| =========                 |                                                 |
| \\      /  F ield         | OpenFOAM Extend Project: Open source CFD        |
|  \\    /   O peration     | Version:  1.6-ext                               |
|   \\  /    A nd           | Web:      www.extend-project.de                 |
|    \\/     M anipulation  |                                                 |
\*---------------------------------------------------------------------------*/
FoamFile
{
    version     2.0;
    format      ascii;
    class       volVectorField;
    location    "1.05";
    object      Vs;
}
// * * * * * * * * * * * * * * * * * * * * * * * * * * * * * * * * * * * * * //

dimensions      [0 1 -1 0 0 0 0];

internalField   nonuniform List<vector> 
328
(
(1.79684e-06 -2.92935e-06 0)
(2.29653e-06 -5.10858e-07 0)
(2.31056e-06 7.679e-07 0)
(1.81588e-06 3.11984e-06 0)
(5.55175e-06 -7.42366e-06 0)
(6.8135e-06 -1.46455e-06 0)
(6.86105e-06 2.23303e-06 0)
(5.62966e-06 8.01831e-06 0)
(9.29194e-06 -1.06541e-05 0)
(1.1028e-05 -2.32902e-06 0)
(1.11236e-05 3.62066e-06 0)
(9.4681e-06 1.16822e-05 0)
(1.32271e-05 -1.28352e-05 0)
(1.52422e-05 -3.01993e-06 0)
(1.53973e-05 4.84101e-06 0)
(1.35402e-05 1.43144e-05 0)
(1.73418e-05 -1.42379e-05 0)
(1.94465e-05 -3.51283e-06 0)
(1.96756e-05 5.86203e-06 0)
(1.78391e-05 1.61711e-05 0)
(2.16947e-05 -1.50726e-05 0)
(2.37691e-05 -3.80873e-06 0)
(2.40879e-05 6.67253e-06 0)
(2.243e-05 1.74462e-05 0)
(2.63015e-05 -1.55127e-05 0)
(2.82657e-05 -3.93722e-06 0)
(2.86929e-05 7.28546e-06 0)
(2.73376e-05 1.82939e-05 0)
(3.11882e-05 -1.56913e-05 0)
(3.30143e-05 -3.94016e-06 0)
(3.35721e-05 7.72033e-06 0)
(3.2598e-05 1.88237e-05 0)
(3.63739e-05 -1.57158e-05 0)
(3.8072e-05 -3.86842e-06 0)
(3.87863e-05 7.99884e-06 0)
(3.82412e-05 1.91135e-05 0)
(4.18805e-05 -1.5673e-05 0)
(4.34941e-05 -3.77515e-06 0)
(4.43953e-05 8.13656e-06 0)
(4.43021e-05 1.92124e-05 0)
(4.77314e-05 -1.56364e-05 0)
(4.93269e-05 -3.71427e-06 0)
(5.04501e-05 8.13947e-06 0)
(5.08179e-05 1.91463e-05 0)
(5.39522e-05 -1.5671e-05 0)
(5.56118e-05 -3.73946e-06 0)
(5.69977e-05 8.0006e-06 0)
(5.783e-05 1.892e-05 0)
(6.05713e-05 -1.58377e-05 0)
(6.23857e-05 -3.90547e-06 0)
(6.40808e-05 7.6985e-06 0)
(6.53836e-05 1.8519e-05 0)
(6.76191e-05 -1.61984e-05 0)
(6.96833e-05 -4.27043e-06 0)
(7.17403e-05 7.19613e-06 0)
(7.35278e-05 1.79105e-05 0)
(7.5128e-05 -1.68197e-05 0)
(7.75382e-05 -4.89908e-06 0)
(8.00167e-05 6.44003e-06 0)
(8.23148e-05 1.7044e-05 0)
(8.31319e-05 -1.77774e-05 0)
(8.59845e-05 -5.8665e-06 0)
(8.89512e-05 5.35942e-06 0)
(9.17998e-05 1.58506e-05 0)
(9.16666e-05 -1.91614e-05 0)
(9.50582e-05 -7.26217e-06 0)
(9.85871e-05 3.86478e-06 0)
(0.00010204 1.42425e-05 0)
(0.000100769 -2.10794e-05 0)
(0.000104798 -9.19413e-06 0)
(0.00010897 1.84588e-06 0)
(0.000113096 1.21109e-05 0)
(0.00011048 -2.36618e-05 0)
(0.000115245 -1.17931e-05 0)
(0.00012015 -8.30828e-07 0)
(0.000125028 9.32402e-06 0)
(0.00012084 -2.70653e-05 0)
(0.000126445 -1.52167e-05 0)
(0.000132178 -4.32532e-06 0)
(0.000137898 5.72365e-06 0)
(0.000131895 -3.14774e-05 0)
(0.000138446 -1.9653e-05 0)
(0.000145107 -8.82751e-06 0)
(0.000151769 1.12227e-06 0)
(0.000143696 -3.7119e-05 0)
(0.0001513 -2.53243e-05 0)
(0.000158993 -1.45605e-05 0)
(0.000166699 -4.70059e-06 0)
(0.000156776 -4.45194e-05 0)
(0.000165586 -3.27628e-05 0)
(0.00017446 -2.20589e-05 0)
(0.00018336 -1.22793e-05 0)
(0.000170723 -5.38478e-05 0)
(0.000180844 -4.21388e-05 0)
(0.000191002 -3.14905e-05 0)
(0.000201199 -2.17739e-05 0)
(0.000184633 -6.45946e-05 0)
(0.000196065 -5.294e-05 0)
(0.000207506 -4.23384e-05 0)
(0.000218999 -3.26609e-05 0)
(0.000198521 -7.67496e-05 0)
(0.000211244 -6.5156e-05 0)
(0.00022395 -5.45924e-05 0)
(0.00023672 -4.49303e-05 0)
(0.000212405 -9.0281e-05 0)
(0.00022638 -7.87548e-05 0)
(0.000240311 -6.82208e-05 0)
(0.000254318 -5.8551e-05 0)
(0.000226301 -0.000105135 0)
(0.00024147 -9.36828e-05 0)
(0.000256569 -8.31703e-05 0)
(0.000271753 -7.34704e-05 0)
(0.000240226 -0.000121239 0)
(0.000256511 -0.000109866 0)
(0.000272702 -9.93668e-05 0)
(0.000288988 -8.96159e-05 0)
(0.000254193 -0.000138499 0)
(0.0002715 -0.000127209 0)
(0.000288691 -0.000116717 0)
(0.000305986 -0.000106895 0)
(0.000268213 -0.000156804 0)
(0.000286434 -0.000145602 0)
(0.000304519 -0.000135109 0)
(0.000322713 -0.000125198 0)
(0.000282297 -0.000176028 0)
(0.000301309 -0.000164916 0)
(0.000320167 -0.000154415 0)
(0.000339139 -0.0001444 0)
(0.00029645 -0.00019603 0)
(0.00031612 -0.000185009 0)
(0.000335621 -0.000174494 0)
(0.000355238 -0.00016436 0)
(0.000310675 -0.00021666 0)
(0.000330861 -0.000205729 0)
(0.000350866 -0.000195193 0)
(0.000370986 -0.000184929 0)
(0.000324972 -0.000237757 0)
(0.000345527 -0.000226915 0)
(0.00036589 -0.000216352 0)
(0.000386365 -0.000205948 0)
(0.000339336 -0.000259158 0)
(0.000360108 -0.000248399 0)
(0.000380681 -0.000237805 0)
(0.00040136 -0.000227253 0)
(0.000353759 -0.000280696 0)
(0.000374596 -0.000270015 0)
(0.000395231 -0.000259383 0)
(0.000415963 -0.000248679 0)
(0.000368228 -0.000302206 0)
(0.000388981 -0.000291594 0)
(0.000409531 -0.000280919 0)
(0.000430168 -0.000270062 0)
(0.000382727 -0.000323528 0)
(0.000403252 -0.000312975 0)
(0.000423576 -0.000302252 0)
(0.000443974 -0.00029124 0)
(0.000397236 -0.000344506 0)
(0.000417397 -0.000334001 0)
(0.000437362 -0.000323226 0)
(0.000457385 -0.000312062 0)
(0.000411732 -0.000364999 0)
(0.000431403 -0.000354528 0)
(0.000450886 -0.000343695 0)
(0.000470408 -0.000332384 0)
(0.000426189 -0.000384876 0)
(0.000445257 -0.000374424 0)
(0.000464146 -0.000363529 0)
(0.000483055 -0.000352076 0)
(0.000440578 -0.00040402 0)
(0.000458945 -0.000393572 0)
(0.000477143 -0.000382611 0)
(0.000495341 -0.000371023 0)
(0.000454868 -0.000422335 0)
(0.000472451 -0.000411873 0)
(0.000489878 -0.000400842 0)
(0.000507282 -0.000389128 0)
(0.000469027 -0.000439741 0)
(0.000485761 -0.000429247 0)
(0.000502353 -0.000418142 0)
(0.0005189 -0.000406311 0)
(0.000483021 -0.000456177 0)
(0.00049886 -0.000445634 0)
(0.000514572 -0.00043445 0)
(0.000530215 -0.000422514 0)
(0.000496818 -0.000471605 0)
(0.000511733 -0.000460994 0)
(0.000526538 -0.000449729 0)
(0.000541251 -0.000437697 0)
(0.000510383 -0.000486008 0)
(0.000524367 -0.000475311 0)
(0.000538256 -0.00046396 0)
(0.000552031 -0.000451845 0)
(0.000523684 -0.000499389 0)
(0.000536748 -0.000488589 0)
(0.000549732 -0.000477149 0)
(0.00056258 -0.00046496 0)
(0.000536689 -0.000511773 0)
(0.000548862 -0.000500852 0)
(0.000560969 -0.00048932 0)
(0.000572921 -0.000477068 0)
(0.000549371 -0.000523203 0)
(0.000560699 -0.000512147 0)
(0.000571975 -0.000500519 0)
(0.000583077 -0.000488214 0)
(0.000561702 -0.000533742 0)
(0.000572248 -0.000522536 0)
(0.000582753 -0.000510811 0)
(0.000593069 -0.000498461 0)
(0.00057366 -0.00054347 0)
(0.000583499 -0.000532101 0)
(0.00059331 -0.000520276 0)
(0.000602917 -0.00050789 0)
(0.000585225 -0.00055248 0)
(0.000594447 -0.000540938 0)
(0.00060365 -0.000529011 0)
(0.000612638 -0.000516595 0)
(0.000596381 -0.000560879 0)
(0.000605085 -0.000549156 0)
(0.000613778 -0.000537124 0)
(0.000622247 -0.000524683 0)
(0.000607118 -0.000568783 0)
(0.000615411 -0.000556872 0)
(0.000623697 -0.000544736 0)
(0.000631755 -0.000532273 0)
(0.000617429 -0.000576314 0)
(0.000625422 -0.000564212 0)
(0.000633411 -0.00055197 0)
(0.00064117 -0.000539489 0)
(0.000627313 -0.000583599 0)
(0.00063512 -0.000571305 0)
(0.000642925 -0.000558957 0)
(0.0006505 -0.000546457 0)
(0.000636774 -0.000590765 0)
(0.000644508 -0.000578281 0)
(0.000652239 -0.000565827 0)
(0.000659746 -0.000553308 0)
(0.000645819 -0.000597935 0)
(0.000653592 -0.000585266 0)
(0.000661359 -0.000572708 0)
(0.000668909 -0.000560169 0)
(0.000654463 -0.000605231 0)
(0.000662379 -0.000592382 0)
(0.000670286 -0.000579723 0)
(0.000677986 -0.000567161 0)
(0.000662722 -0.000612764 0)
(0.00067088 -0.000599746 0)
(0.000679024 -0.000586987 0)
(0.000686974 -0.000574399 0)
(0.000670619 -0.000620636 0)
(0.000679107 -0.00060746 0)
(0.000687576 -0.000594607 0)
(0.000695867 -0.00058199 0)
(0.000678179 -0.000628939 0)
(0.000687075 -0.00061562 0)
(0.000695947 -0.000602677 0)
(0.000704659 -0.000590028 0)
(0.000685433 -0.00063775 0)
(0.000694803 -0.000624303 0)
(0.000704142 -0.000611278 0)
(0.000713344 -0.000598594 0)
(0.000692415 -0.000647131 0)
(0.000702309 -0.000633577 0)
(0.000712169 -0.000620477 0)
(0.000721915 -0.000607756 0)
(0.000699161 -0.00065713 0)
(0.000709618 -0.000643489 0)
(0.000720037 -0.000630325 0)
(0.000730367 -0.000617566 0)
(0.000705713 -0.000667777 0)
(0.000716755 -0.000654072 0)
(0.000727757 -0.000640856 0)
(0.000738697 -0.00062806 0)
(0.000712113 -0.000679087 0)
(0.000723748 -0.000665343 0)
(0.000735343 -0.000652089 0)
(0.000746906 -0.000639259 0)
(0.00071841 -0.000691055 0)
(0.000730629 -0.0006773 0)
(0.000742813 -0.000664024 0)
(0.000754995 -0.000651165 0)
(0.000724651 -0.000703661 0)
(0.000737434 -0.000689925 0)
(0.000750188 -0.000676646 0)
(0.000762972 -0.000663768 0)
(0.00073089 -0.000716868 0)
(0.000744201 -0.000703183 0)
(0.000757494 -0.000689922 0)
(0.000770852 -0.000677039 0)
(0.000737181 -0.000730625 0)
(0.000750973 -0.000717023 0)
(0.000764763 -0.000703807 0)
(0.000778654 -0.000690936 0)
(0.000743581 -0.000744866 0)
(0.000757796 -0.000731384 0)
(0.000772033 -0.000718242 0)
(0.000786406 -0.000705407 0)
(0.000750151 -0.000759514 0)
(0.000764724 -0.000746191 0)
(0.000779348 -0.000733156 0)
(0.000794148 -0.000720386 0)
(0.000756952 -0.000774485 0)
(0.000771814 -0.000761361 0)
(0.000786763 -0.000748473 0)
(0.000801927 -0.000735804 0)
(0.000764051 -0.000789685 0)
(0.000779129 -0.000776805 0)
(0.000794338 -0.00076411 0)
(0.000809803 -0.000751588 0)
(0.000771517 -0.000805021 0)
(0.000786745 -0.000792434 0)
(0.000802151 -0.000779987 0)
(0.000817852 -0.000767664 0)
(0.000779422 -0.000820397 0)
(0.00079474 -0.000808158 0)
(0.000810284 -0.000796024 0)
(0.000826157 -0.000783966 0)
(0.000787854 -0.000835729 0)
(0.000803222 -0.000823895 0)
(0.000818854 -0.000812147 0)
(0.00083483 -0.000800424 0)
(0.000796863 -0.000850951 0)
(0.00081227 -0.000839582 0)
(0.000827948 -0.000828285 0)
(0.000843955 -0.000816976 0)
(0.000806616 -0.000866159 0)
(0.000822066 -0.000855213 0)
(0.00083776 -0.000844334 0)
(0.000853737 -0.000833423 0)
)
;

boundaryField
{
    plateFix
    {
        type            calculated;
        value           uniform (0 0 0);
    }
    plate
    {
        type            calculated;
        value           nonuniform List<vector> 
168
(
(-1.09492e-05 -8.09238e-06 -6.45644e-23)
(-1.18741e-05 8.23105e-06 3.24623e-24)
(-3.51031e-06 -1.2778e-05 3.74217e-23)
(-4.38965e-06 1.32754e-05 2.38794e-24)
(3.35832e-06 -1.62756e-05 -1.32033e-23)
(2.58909e-06 1.7155e-05 1.6928e-23)
(9.55107e-06 -1.85756e-05 2.82147e-23)
(8.9601e-06 1.98579e-05 -3.53143e-23)
(1.5189e-05 -2.00792e-05 -1.83718e-23)
(1.48529e-05 2.17654e-05 -2.01075e-23)
(2.05371e-05 -2.09795e-05 1.47577e-23)
(2.05362e-05 2.30548e-05 -2.2725e-24)
(2.57613e-05 -2.14761e-05 3.24648e-23)
(2.61851e-05 2.39056e-05 4.15613e-23)
(3.10023e-05 -2.17024e-05 -3.50696e-23)
(3.19515e-05 2.44278e-05 -3.30691e-23)
(3.63574e-05 -2.17702e-05 1.23218e-23)
(3.79467e-05 2.47032e-05 1.87266e-23)
(4.19043e-05 -2.17656e-05 -1.36625e-23)
(4.42648e-05 2.47807e-05 6.72414e-24)
(4.77037e-05 -2.17622e-05 -1.5897e-23)
(5.09853e-05 2.46864e-05 -1.88117e-23)
(5.38068e-05 -2.18246e-05 2.16219e-23)
(5.81802e-05 2.44247e-05 -1.38474e-23)
(6.02576e-05 -2.20138e-05 -5.75053e-24)
(6.59167e-05 2.39815e-05 1.82722e-23)
(6.70959e-05 -2.23919e-05 -4.87089e-24)
(7.42595e-05 2.33248e-05 5.50227e-26)
(7.4358e-05 -2.30259e-05 1.71471e-24)
(8.3272e-05 2.24048e-05 -1.70911e-24)
(8.20785e-05 -2.39924e-05 9.51395e-24)
(9.30173e-05 2.11541e-05 -1.28825e-23)
(9.02911e-05 -2.53817e-05 -9.25672e-24)
(0.000103559 1.9486e-05 2.68254e-24)
(9.90296e-05 -2.73019e-05 -5.72697e-24)
(0.000114961 1.72933e-05 -8.59318e-24)
(0.00010833 -2.98835e-05 1.58704e-23)
(0.000127289 1.44457e-05 2.04896e-23)
(0.000118229 -3.32834e-05 -7.66136e-24)
(0.000140608 1.07865e-05 5.33185e-25)
(0.00012877 -3.76883e-05 6.97467e-24)
(0.000154981 6.13004e-06 5.51922e-24)
(0.00014 -4.3319e-05 6.67656e-24)
(0.000170472 2.5742e-07 1.52676e-23)
(0.00015243 -5.07027e-05 -1.12961e-24)
(0.000187773 -7.36481e-06 -3.71673e-24)
(0.00016567 -6.00075e-05 1.55003e-23)
(0.000206308 -1.68929e-05 1.66662e-23)
(0.000178873 -7.07252e-05 -5.46938e-24)
(0.000224803 -2.7799e-05 1.13873e-23)
(0.000192065 -8.28458e-05 -1.56501e-23)
(0.000243208 -4.00737e-05 -1.40007e-23)
(0.000205274 -9.63374e-05 1.64045e-23)
(0.00026147 -5.36858e-05 2.16556e-23)
(0.000218527 -0.000111147 1.49793e-23)
(0.000279538 -6.85834e-05 8.22859e-25)
(0.00023185 -0.000127201 1.61725e-23)
(0.000297363 -8.46946e-05 -7.4749e-24)
(0.000245266 -0.000144407 4.89825e-24)
(0.000314901 -0.000101928 2.55629e-23)
(0.000258796 -0.000162655 -1.32657e-23)
(0.000332109 -0.000120175 1.3051e-23)
(0.000272455 -0.000181819 9.34819e-24)
(0.00034895 -0.00013931 -1.70571e-23)
(0.000286256 -0.00020176 -1.84418e-24)
(0.00036539 -0.000159196 1.76424e-24)
(0.000300207 -0.000222327 1.35208e-24)
(0.000381403 -0.000179684 1.37947e-24)
(0.00031431 -0.000243363 -2.11198e-24)
(0.000396966 -0.000200617 -2.57534e-23)
(0.000328563 -0.000264705 6.89967e-24)
(0.000412063 -0.000221833 -1.83552e-23)
(0.000342958 -0.000286187 -3.26868e-24)
(0.000426685 -0.000243167 -3.16062e-24)
(0.00035748 -0.000307646 4.64261e-25)
(0.000440828 -0.000264457 -1.64149e-23)
(0.000372111 -0.000328921 9.57814e-24)
(0.000454493 -0.000285544 1.46829e-23)
(0.000386827 -0.000349861 -6.19098e-24)
(0.00046769 -0.000306276 5.53177e-24)
(0.000401597 -0.000370323 1.12014e-23)
(0.000480431 -0.000326511 -2.62625e-25)
(0.00041639 -0.000390177 6.13665e-24)
(0.000492734 -0.000346122 -3.56179e-24)
(0.000431169 -0.000409309 8.72004e-24)
(0.000504623 -0.000364993 1.65048e-24)
(0.000445893 -0.000427622 -2.65584e-24)
(0.000516124 -0.000383027 -2.97524e-24)
(0.000460521 -0.000445036 -8.33463e-24)
(0.000527266 -0.000400147 -1.22593e-23)
(0.000475009 -0.000461492 2.66176e-24)
(0.000538082 -0.000416294 1.27111e-23)
(0.000489313 -0.000476952 -9.78603e-25)
(0.000548604 -0.000431429 2.7427e-24)
(0.00050339 -0.000491397 -8.49005e-24)
(0.000558868 -0.000445535 9.7499e-24)
(0.000517196 -0.000504831 -4.24179e-24)
(0.000568907 -0.000458617 2.69719e-24)
(0.000530689 -0.000517278 -9.16128e-24)
(0.000578756 -0.0004707 -1.13122e-24)
(0.000543833 -0.000528782 5.17384e-26)
(0.000588447 -0.000481826 -1.59805e-24)
(0.00055659 -0.000539403 -4.62644e-24)
(0.000598011 -0.00049206 -2.13974e-25)
(0.000568931 -0.00054922 -3.38504e-24)
(0.000607474 -0.000501481 4.47434e-24)
(0.000580828 -0.000558327 -2.09381e-24)
(0.00061686 -0.000510182 3.69437e-24)
(0.000592262 -0.000566827 6.29479e-24)
(0.00062619 -0.000518271 8.62535e-24)
(0.000603217 -0.000574837 -6.45036e-24)
(0.00063548 -0.000525864 1.78077e-23)
(0.000613685 -0.000582475 -1.99919e-23)
(0.00064474 -0.000533083 3.15745e-24)
(0.000623662 -0.000589868 -1.2022e-23)
(0.000653978 -0.000540056 -1.36631e-24)
(0.000633153 -0.00059714 -1.08295e-23)
(0.000663197 -0.000546911 2.14298e-23)
(0.000642168 -0.000604415 3.25437e-24)
(0.000672394 -0.000553775 9.00979e-24)
(0.000650723 -0.000611811 1.17896e-23)
(0.000681565 -0.000560768 2.06712e-23)
(0.00065884 -0.000619438 -1.19e-23)
(0.000690702 -0.000568005 -1.21063e-23)
(0.000666546 -0.000627398 1.60776e-23)
(0.000699794 -0.000575592 7.93545e-24)
(0.000673874 -0.00063578 -1.30523e-23)
(0.000708828 -0.000583622 -2.39235e-23)
(0.000680861 -0.000644659 -6.10795e-24)
(0.000717792 -0.000592179 -1.25197e-23)
(0.000687547 -0.000654098 -4.36368e-24)
(0.000726672 -0.000601328 2.54024e-23)
(0.000693979 -0.000664143 8.62922e-24)
(0.000735456 -0.000611124 1.58696e-23)
(0.000700205 -0.000674822 2.48668e-24)
(0.000744131 -0.000621602 2.41772e-23)
(0.000706277 -0.000686149 8.57104e-24)
(0.00075269 -0.000632786 -8.73235e-24)
(0.000712251 -0.000698119 -4.15555e-24)
(0.000761127 -0.000644679 1.12378e-24)
(0.000718184 -0.000710711 -3.6542e-24)
(0.000769443 -0.000657271 -1.68315e-23)
(0.000724137 -0.000723887 -9.36471e-24)
(0.000777643 -0.000670537 -1.71684e-23)
(0.00073017 -0.000737594 1.87123e-23)
(0.000785742 -0.000684437 -2.35153e-23)
(0.000736349 -0.000751765 -2.38333e-23)
(0.000793762 -0.000698921 2.81755e-23)
(0.000742737 -0.000766324 6.27363e-24)
(0.000801737 -0.000713928 -3.36533e-23)
(0.000749401 -0.000781183 2.90445e-25)
(0.000809714 -0.000729393 2.98755e-23)
(0.000756408 -0.00079625 -1.63594e-23)
(0.000817751 -0.000745245 -3.03114e-23)
(0.000763831 -0.000811429 -5.41803e-24)
(0.000825926 -0.000761417 4.21342e-23)
(0.000771737 -0.000826621 5.16947e-24)
(0.000834322 -0.000777846 4.63845e-24)
(0.000780207 -0.000841746 1.59959e-23)
(0.000843053 -0.000794466 -1.05372e-23)
(0.000789246 -0.000856724 -5.42429e-24)
(0.000852169 -0.000811227 -2.18715e-23)
(0.000798951 -0.00087169 2.78281e-23)
(0.000811762 -0.000873867 2.26826e-23)
(0.000827226 -0.00086301 -4.84273e-24)
(0.000842926 -0.000852262 1.4074e-23)
(0.000858889 -0.000841474 -3.13098e-23)
(0.000861834 -0.0008279 3.26118e-23)
)
;
    }
    frontAndBackPlanes
    {
        type            empty;
    }
}


// ************************************************************************* //
