/*--------------------------------*- C++ -*----------------------------------*\
| =========                 |                                                 |
| \\      /  F ield         | OpenFOAM Extend Project: Open source CFD        |
|  \\    /   O peration     | Version:  1.6-ext                               |
|   \\  /    A nd           | Web:      www.extend-project.de                 |
|    \\/     M anipulation  |                                                 |
\*---------------------------------------------------------------------------*/
FoamFile
{
    version     2.0;
    format      ascii;
    class       volVectorField;
    location    "3.9";
    object      U;
}
// * * * * * * * * * * * * * * * * * * * * * * * * * * * * * * * * * * * * * //

dimensions      [0 1 -1 0 0 0 0];

internalField   nonuniform List<vector> 
72
(
(-0.000968113 0.000880648 0)
(-0.00722229 0.00307903 0)
(-0.0177503 0.00376317 0)
(-0.0271539 0.00341576 0)
(-0.0337473 0.002362 0)
(-0.0360827 0.000687956 0)
(-0.0328008 -0.00147415 0)
(-0.0292773 -0.00367198 0)
(-0.00511721 -0.00674054 0)
(-0.00346533 0.00736011 0)
(-0.0168152 0.0156916 0)
(-0.0358077 0.0169271 0)
(-0.0512124 0.0135872 0)
(-0.0600867 0.00736942 0)
(-0.0605764 -0.000686263 0)
(-0.0515675 -0.00960364 0)
(-0.0418773 -0.0176877 0)
(-0.00429282 -0.0254346 0)
(-0.00455264 0.0191877 0)
(-0.0204463 0.035335 0)
(-0.0416342 0.0357367 0)
(-0.0575345 0.0264642 0)
(-0.0650521 0.011506 0)
(-0.0626592 -0.00626531 0)
(-0.0494437 -0.0245236 0)
(-0.0359962 -0.0402475 0)
(0.00648793 -0.0505299 0)
(-0.00471702 0.0314868 0)
(-0.019932 0.0547311 0)
(-0.0389696 0.0532863 0)
(-0.0519566 0.0372035 0)
(-0.0561387 0.0128952 0)
(-0.0505274 -0.014878 0)
(-0.0342626 -0.0424854 0)
(-0.0180613 -0.0665206 0)
(0.0254478 -0.0775626 0)
(-0.00440977 0.042608 0)
(-0.0159895 0.0705373 0)
(-0.0279598 0.0663767 0)
(-0.0338006 0.0434286 0)
(-0.0315764 0.0103371 0)
(-0.0211091 -0.02677 0)
(-0.00226338 -0.062482 0)
(0.0174739 -0.0939726 0)
(0.0581315 -0.10614 0)
(-0.003535 0.0509823 0)
(-0.00765012 0.0782293 0)
(-0.0056049 0.0699809 0)
(0.00163182 0.040581 0)
(0.0145597 0.000409064 0)
(0.0328337 -0.0435404 0)
(0.0551436 -0.0847198 0)
(0.077755 -0.119884 0)
(0.112758 -0.134266 0)
(0.000933078 0.0585403 0)
(0.00972164 0.0736098 0)
(0.0340472 0.0578873 0)
(0.059959 0.0236653 0)
(0.0874066 -0.0202626 0)
(0.115349 -0.0667563 0)
(0.141521 -0.10913 0)
(0.165553 -0.143734 0)
(0.191627 -0.157858 0)
(0.0280434 0.0300082 0)
(0.0543126 0.038157 0)
(0.106247 0.0198848 0)
(0.150756 -0.0129965 0)
(0.190004 -0.0538958 0)
(0.224611 -0.0967631 0)
(0.250994 -0.134387 0)
(0.273253 -0.16437 0)
(0.286385 -0.173561 0)
)
;

boundaryField
{
    inlet
    {
        type            fixedValue;
        value           nonuniform 0();
    }
    outlet
    {
        type            zeroGradient;
    }
    fixedWalls
    {
        type            fixedValue;
        value           uniform (0 0 0);
    }
    frontAndBack
    {
        type            empty;
    }
    procBoundary0to1
    {
        type            processor;
        value           nonuniform List<vector> 9((0.188125 -0.00684115 0) (0.210359 -0.0174697 0) (0.249196 -0.0348242 0) (0.289361 -0.0609978 0) (0.324471 -0.0930803 0) (0.353705 -0.126997 0) (0.370641 -0.155399 0) (0.384701 -0.177494 0) (0.379133 -0.178097 0));
    }
}


// ************************************************************************* //
