/*--------------------------------*- C++ -*----------------------------------*\
| =========                 |                                                 |
| \\      /  F ield         | OpenFOAM Extend Project: Open source CFD        |
|  \\    /   O peration     | Version:  1.6-ext                               |
|   \\  /    A nd           | Web:      www.extend-project.de                 |
|    \\/     M anipulation  |                                                 |
\*---------------------------------------------------------------------------*/
FoamFile
{
    version     2.0;
    format      ascii;
    class       surfaceScalarField;
    location    "3.7";
    object      phi;
}
// * * * * * * * * * * * * * * * * * * * * * * * * * * * * * * * * * * * * * //

dimensions      [0 3 -1 0 0 0 0];

internalField   nonuniform List<scalar> 
127
(
-4.01722e-06
4.01722e-06
-1.30663e-05
9.04911e-06
-2.27577e-05
9.69135e-06
-3.03243e-05
7.56664e-06
-3.41237e-05
3.79943e-06
-3.31746e-05
-9.49109e-07
-2.70633e-05
-6.1113e-06
-1.65347e-05
-1.05286e-05
-1.52473e-05
-9.79696e-06
1.38142e-05
-2.66354e-05
2.58876e-05
-4.28166e-05
2.58725e-05
-5.37557e-05
1.85057e-05
-5.69774e-05
7.02111e-06
-5.16853e-05
-6.24119e-06
-3.82878e-05
-1.95089e-05
-1.85347e-05
-3.02816e-05
-3.79195e-05
-1.20261e-05
2.58403e-05
-3.11805e-05
4.50419e-05
-4.84134e-05
4.31055e-05
-5.86836e-05
2.87759e-05
-5.94903e-05
7.82778e-06
-5.04134e-05
-1.53181e-05
-3.24545e-05
-3.74677e-05
-6.80264e-06
-5.59335e-05
-6.40647e-05
-1.20124e-05
3.78527e-05
-2.97994e-05
6.28289e-05
-4.46882e-05
5.79943e-05
-5.20577e-05
3.61454e-05
-4.96119e-05
5.38199e-06
-3.74118e-05
-2.75182e-05
-1.66518e-05
-5.82278e-05
1.15954e-05
-8.41807e-05
-9.28285e-05
-1.02437e-05
4.80965e-05
-2.24876e-05
7.50727e-05
-3.08144e-05
6.63211e-05
-3.1811e-05
3.7142e-05
-2.40759e-05
-2.35309e-06
-7.9433e-06
-4.36508e-05
1.49868e-05
-8.11578e-05
4.29851e-05
-0.000112179
-0.000122424
-6.21342e-06
5.43099e-05
-6.92766e-06
7.5787e-05
-2.38103e-06
6.17745e-05
8.39184e-06
2.63691e-05
2.46201e-05
-1.85814e-05
4.59947e-05
-6.50253e-05
7.11568e-05
-0.00010632
9.75031e-05
-0.000138525
-0.000149273
4.83327e-06
4.94766e-05
2.3213e-05
5.74073e-05
4.80727e-05
3.69149e-05
7.52123e-05
-7.70504e-07
0.000102454
-4.5823e-05
0.000129586
-9.21575e-05
0.000155134
-0.000131868
0.000178465
-0.000161857
-0.000169496
3.87087e-05
8.54049e-05
0.000132174
0.000173654
0.000209417
0.000239014
0.000261785
0.000278465
)
;

boundaryField
{
    inlet
    {
        type            calculated;
        value           nonuniform 0();
    }
    outlet
    {
        type            calculated;
        value           nonuniform List<scalar> 8(-1.28744e-06 4.1375e-06 1.93426e-05 4.03592e-05 7.25804e-05 0.000124352 0.000198688 0.00028825);
    }
    fixedWalls
    {
        type            calculated;
        value           uniform 0;
    }
    frontAndBack
    {
        type            empty;
    }
    procBoundary0to1
    {
        type            processor;
        value           nonuniform List<scalar> 9(1.07679e-05 1.07111e-05 -9.85396e-06 -4.22511e-05 -8.15858e-05 -0.000121754 -0.000154639 -0.000178536 -0.000179281);
    }
}


// ************************************************************************* //
