/*--------------------------------*- C++ -*----------------------------------*\
| =========                 |                                                 |
| \\      /  F ield         | OpenFOAM Extend Project: Open source CFD        |
|  \\    /   O peration     | Version:  1.6-ext                               |
|   \\  /    A nd           | Web:      www.extend-project.de                 |
|    \\/     M anipulation  |                                                 |
\*---------------------------------------------------------------------------*/
FoamFile
{
    version     2.0;
    format      ascii;
    class       volVectorField;
    location    "3.7";
    object      U;
}
// * * * * * * * * * * * * * * * * * * * * * * * * * * * * * * * * * * * * * //

dimensions      [0 1 -1 0 0 0 0];

internalField   nonuniform List<vector> 
72
(
(-0.00110429 0.00103662 0)
(-0.00761909 0.00324173 0)
(-0.0182118 0.00381314 0)
(-0.0272896 0.00330451 0)
(-0.0331884 0.00210405 0)
(-0.0346276 0.000363815 0)
(-0.0302934 -0.00176349 0)
(-0.0264972 -0.00372173 0)
(-0.00210651 -0.00640119 0)
(-0.00358168 0.00772843 0)
(-0.0170459 0.0159122 0)
(-0.0357029 0.0166146 0)
(-0.0501055 0.0126284 0)
(-0.0574339 0.00589685 0)
(-0.0561908 -0.00230372 0)
(-0.0452759 -0.0109095 0)
(-0.0347664 -0.0181308 0)
(0.00258814 -0.0247433 0)
(-0.00463967 0.0196416 0)
(-0.0205633 0.0353051 0)
(-0.0412656 0.0345618 0)
(-0.0559365 0.0239968 0)
(-0.0616152 0.00805848 0)
(-0.0571647 -0.00993657 0)
(-0.0415924 -0.0274964 0)
(-0.0266624 -0.0419879 0)
(0.0160821 -0.049963 0)
(-0.00484545 0.0320652 0)
(-0.0202462 0.0545162 0)
(-0.0390239 0.0513201 0)
(-0.0509811 0.033281 0)
(-0.0534256 0.00746627 0)
(-0.0457578 -0.0207741 0)
(-0.027259 -0.0474112 0)
(-0.00846282 -0.0697273 0)
(0.0358221 -0.0780786 0)
(-0.00458661 0.0434729 0)
(-0.0165806 0.0704263 0)
(-0.0286513 0.0639454 0)
(-0.033835 0.0383203 0)
(-0.0302488 0.00303947 0)
(-0.0179572 -0.0349893 0)
(0.00287546 -0.0697298 0)
(0.025194 -0.0986248 0)
(0.0673786 -0.108238 0)
(-0.00364155 0.0522372 0)
(-0.00814284 0.0784584 0)
(-0.00634971 0.0674343 0)
(0.00119896 0.0346829 0)
(0.0150056 -0.00832677 0)
(0.0345797 -0.0536807 0)
(0.0583838 -0.094192 0)
(0.0828636 -0.126513 0)
(0.119234 -0.13751 0)
(0.00105323 0.0599916 0)
(0.00997627 0.0740804 0)
(0.0344236 0.0553953 0)
(0.060595 0.0174724 0)
(0.0884741 -0.0296853 0)
(0.116858 -0.0778782 0)
(0.143447 -0.119831 0)
(0.168157 -0.151864 0)
(0.194535 -0.161812 0)
(0.0286359 0.0307809 0)
(0.0558804 0.0379828 0)
(0.108569 0.0169377 0)
(0.153372 -0.0193873 0)
(0.192598 -0.0632974 0)
(0.226776 -0.107745 0)
(0.252354 -0.144962 0)
(0.273899 -0.172609 0)
(0.285772 -0.177386 0)
)
;

boundaryField
{
    inlet
    {
        type            fixedValue;
        value           nonuniform 0();
    }
    outlet
    {
        type            zeroGradient;
    }
    fixedWalls
    {
        type            fixedValue;
        value           uniform (0 0 0);
    }
    frontAndBack
    {
        type            empty;
    }
    procBoundary0to1
    {
        type            processor;
        value           nonuniform List<vector> 9((0.189575 -0.00731832 0) (0.212917 -0.0188287 0) (0.252727 -0.0383538 0) (0.29324 -0.0672493 0) (0.327921 -0.101646 0) (0.355866 -0.136672 0) (0.371015 -0.164498 0) (0.383212 -0.184366 0) (0.375208 -0.180842 0));
    }
}


// ************************************************************************* //
