/*--------------------------------*- C++ -*----------------------------------*\
| =========                 |                                                 |
| \\      /  F ield         | OpenFOAM Extend Project: Open source CFD        |
|  \\    /   O peration     | Version:  1.6-ext                               |
|   \\  /    A nd           | Web:      www.extend-project.de                 |
|    \\/     M anipulation  |                                                 |
\*---------------------------------------------------------------------------*/
FoamFile
{
    version     2.0;
    format      ascii;
    class       volScalarField;
    location    "4.7";
    object      p;
}
// * * * * * * * * * * * * * * * * * * * * * * * * * * * * * * * * * * * * * //

dimensions      [0 2 -2 0 0 0 0];

internalField   nonuniform List<scalar> 
284
(
0.289778
0.258301
0.246832
0.241846
0.239933
0.239893
0.240758
0.241999
0.244009
0.260567
0.251689
0.246337
0.243808
0.242834
0.242849
0.243371
0.244148
0.2463
0.248612
0.245209
0.242647
0.241488
0.241474
0.242195
0.243141
0.244085
0.247023
0.239141
0.238073
0.237034
0.236832
0.237539
0.238847
0.240244
0.241427
0.245119
0.231335
0.231026
0.230628
0.230698
0.231428
0.232639
0.233824
0.234576
0.2384
0.224247
0.224125
0.223798
0.223549
0.223544
0.223667
0.223392
0.222086
0.223903
0.217515
0.217364
0.216766
0.215769
0.214369
0.212298
0.208702
0.201867
0.196513
0.211167
0.210895
0.209813
0.207767
0.204481
0.199351
0.190802
0.176489
0.132348
0.205449
0.20501
0.203315
0.200029
0.194428
0.184895
0.165693
0.127767
0.0347462
0.20073
0.200073
0.197705
0.193294
0.186073
0.174542
0.154459
0.122635
0.0692148
0.197473
0.196405
0.193213
0.187824
0.17983
0.168318
0.151353
0.127019
0.0938292
0.196184
0.194238
0.189797
0.183343
0.174834
0.163696
0.149091
0.129234
0.105407
0.198484
0.193966
0.1874
0.179654
0.170647
0.159888
0.146907
0.130213
0.111246
0.204584
0.194782
0.185573
0.176726
0.167582
0.157363
0.145538
0.130957
0.114382
0.232824
0.200939
0.186185
0.176287
0.167365
0.157923
0.147018
0.133499
0.117706
-0.0976634
-0.0624321
6.08935e-05
-0.0208341
0.0441312
0.014104
0.0718313
0.0451775
0.0876983
0.0652607
0.0951684
0.0753351
0.0994034
0.0797554
-0.0499679
-0.0407911
-0.0369171
-0.0350747
-0.0335907
-0.030449
-0.0248918
-0.0162317
-0.00556343
-0.0265364
-0.0267525
-0.0268225
-0.0269045
-0.0261451
-0.023447
-0.0188646
-0.0118737
-0.00457807
-0.000285715
-0.0071828
-0.0110548
-0.0134196
-0.0142582
-0.0131263
-0.0106655
-0.0064329
-0.00332009
0.0277916
0.0162665
0.00775317
0.0020238
-0.0013593
-0.00264889
-0.00284926
-0.00166139
-0.00232141
0.0469076
0.0326055
0.0216684
0.0136965
0.00818677
0.00472623
0.00237192
0.00121413
-0.00181931
0.0572558
0.0418805
0.0294668
0.0199198
0.0128796
0.00791978
0.00431828
0.00189394
-0.00178419
0.0607151
0.0439402
0.030018
0.019072
0.0109053
0.00515951
0.00131538
-0.000970701
-0.00326383
-0.0233182
-0.0245145
-0.0242883
-0.0229133
-0.0201939
-0.0160278
-0.0107894
-0.00539032
0.00326325
-0.0220185
-0.0232707
-0.0230878
-0.0220856
-0.0200168
-0.0165974
-0.0120587
-0.00711278
0.00210659
-0.0226295
-0.024057
-0.0241126
-0.0235227
-0.0219288
-0.0188367
-0.0143297
-0.00919719
0.00124438
-0.0249326
-0.0262355
-0.0265245
-0.0263776
-0.0252708
-0.0224437
-0.0177319
-0.012077
0.000247592
-0.0289411
-0.0295503
-0.0298904
-0.0301034
-0.0294424
-0.0268562
-0.0217512
-0.0150353
-0.000770592
-0.0344546
-0.0333077
-0.0333747
-0.03375
-0.0334188
-0.0310778
-0.0257936
-0.0173828
-0.00316763
-0.0410252
-0.0364147
-0.0359886
-0.0360952
-0.0358124
-0.0335049
-0.0280696
-0.0188692
-0.00504129
-0.0575417
-0.0402453
-0.0373827
-0.0367109
-0.036051
-0.0334454
-0.0278546
-0.0185951
-0.00582225
)
;

boundaryField
{
    inlet
    {
        type            zeroGradient;
    }
    outlet
    {
        type            totalPressure;
        rho             none;
        psi             none;
        gamma           1;
        p0              uniform 0;
        value           nonuniform List<scalar> 
15
(
-0.000134023
-0.000691184
-0.00144164
-0.00254938
0
0
0
0
0
0
0
0
0
0
0
)
;
    }
    fixedWalls
    {
        type            zeroGradient;
    }
    frontAndBack
    {
        type            empty;
    }
}


// ************************************************************************* //
