/*--------------------------------*- C++ -*----------------------------------*\
| =========                 |                                                 |
| \\      /  F ield         | OpenFOAM Extend Project: Open source CFD        |
|  \\    /   O peration     | Version:  1.6-ext                               |
|   \\  /    A nd           | Web:      www.extend-project.de                 |
|    \\/     M anipulation  |                                                 |
\*---------------------------------------------------------------------------*/
FoamFile
{
    version     2.0;
    format      ascii;
    class       surfaceScalarField;
    location    "4.7";
    object      phi;
}
// * * * * * * * * * * * * * * * * * * * * * * * * * * * * * * * * * * * * * //

dimensions      [0 3 -1 0 0 0 0];

internalField   nonuniform List<scalar> 
525
(
0.000160825
3.9175e-05
0.000117031
4.37937e-05
8.13637e-05
3.56676e-05
5.41982e-05
2.71655e-05
3.41157e-05
2.00824e-05
1.91208e-05
1.49949e-05
7.92379e-06
1.1197e-05
8.93545e-07
7.03024e-06
8.93545e-07
0.000204945
3.42299e-05
0.000190234
5.8505e-05
0.000162074
6.3827e-05
0.000128381
6.08586e-05
9.38899e-05
5.45739e-05
6.13941e-05
4.74907e-05
3.26176e-05
3.99735e-05
1.01504e-05
2.94974e-05
1.1044e-05
0.000208656
2.55735e-05
0.000208062
5.90998e-05
0.00019404
7.78484e-05
0.000168221
8.66783e-05
0.000134053
8.87415e-05
9.52947e-05
8.62489e-05
5.55216e-05
7.97466e-05
1.98827e-05
6.51364e-05
3.09266e-05
0.000205059
2.05141e-05
0.000208181
5.59781e-05
0.000202609
8.34205e-05
0.000185828
0.000103459
0.000157683
0.000116887
0.000119635
0.000124297
7.4616e-05
0.000124766
2.89818e-05
0.000110771
5.99084e-05
0.000202384
1.81296e-05
0.000205274
5.30889e-05
0.000203731
8.49633e-05
0.000193859
0.000113331
0.000172847
0.000137898
0.000139143
0.000158001
9.29567e-05
0.000170952
3.93518e-05
0.000164375
9.92602e-05
0.000201259
1.6871e-05
0.000203812
5.0536e-05
0.000204722
8.40527e-05
0.000200386
0.000117668
0.000186837
0.000151447
0.000159993
0.000184845
0.000116222
0.000214723
5.56654e-05
0.000224932
0.000154926
0.000201182
1.56891e-05
0.000204438
4.72797e-05
0.000208077
8.04136e-05
0.000209381
0.000116364
0.000204548
0.000156281
0.000188508
0.000200885
0.000152968
0.000250262
8.76248e-05
0.000290276
0.00024255
0.000201721
1.39678e-05
0.000206763
4.22378e-05
0.000214103
7.30739e-05
0.000222001
0.000108466
0.000227597
0.000150685
0.000226001
0.00020248
0.000204562
0.0002717
0.000138801
0.000356037
0.000381351
0.000202632
1.13357e-05
0.000210258
3.46121e-05
0.000222119
6.12127e-05
0.000237597
9.29879e-05
0.000256747
0.000131535
0.00028151
0.000177718
0.000318739
0.000234471
0.00038317
0.000291606
0.000361072
0.000403449
0.000203913
7.42251e-06
0.00021462
2.39051e-05
0.00023094
4.48933e-05
0.000252626
7.13016e-05
0.000281045
0.000103115
0.000319643
0.00013912
0.00037217
0.000181944
0.000453399
0.000210377
0.000281477
0.000532995
0.000205978
1.44452e-06
0.000220217
9.66636e-06
0.000240133
2.49768e-05
0.00026517
4.62644e-05
0.000296478
7.18079e-05
0.000336677
9.89213e-05
0.000387901
0.00013072
0.00045415
0.000144129
0.000187788
0.000547839
0.00020941
-7.96573e-06
0.000227324
-8.24717e-06
0.00024888
3.42048e-06
0.000273932
2.12123e-05
0.000303792
4.19478e-05
0.000340504
6.22098e-05
0.000386854
8.43692e-05
0.000439138
9.18451e-05
0.000111791
0.000515135
0.000214488
-2.24536e-05
0.000232312
-2.60709e-05
0.000250101
-1.43694e-05
0.00026997
1.34393e-06
0.000294178
1.77393e-05
0.000324524
3.18644e-05
0.000363554
4.53385e-05
0.000405511
4.98889e-05
5.6949e-05
0.000460353
0.000211667
-3.41205e-05
0.000216795
-3.11992e-05
0.000220586
-1.81602e-05
0.000228097
-6.16721e-06
0.000242414
3.42224e-06
0.000264048
1.02307e-05
0.000293703
1.56832e-05
0.000326308
1.72844e-05
1.87058e-05
0.000364551
0.000165879
0.00013468
0.00011652
0.000110353
0.000113775
0.000124006
0.000139689
0.000156973
0.000175679
0.000246563
0.000156886
5.8352e-05
0.000188211
0.000509218
0.000180662
9.30871e-05
0.000474483
0.000583544
0.000144957
8.65567e-05
0.000590074
0.000565539
9.45529e-05
6.00329e-05
0.000592063
0.000506129
4.87762e-05
2.95173e-05
0.000536645
0.000398324
1.50035e-05
7.20292e-06
0.000420638
0.000190683
0.000197886
0.000191945
6.35868e-06
-1.00927e-05
0.000221436
-1.70274e-05
-1.24634e-05
0.000257291
-3.59643e-05
1.09175e-07
0.000293653
-5.5917e-05
1.95553e-05
0.000325988
-7.86345e-05
4.62991e-05
0.000352332
-0.000103775
7.74312e-05
0.000371029
-0.000126529
0.000107833
0.00038218
-0.000147099
0.000135947
-0.000153627
0.000151447
0.000449256
3.15852e-05
0.000441587
-9.35758e-06
0.000446129
-4.05062e-05
0.00045679
-6.65779e-05
0.000468247
-9.00919e-05
0.000476566
-0.000112094
0.000479322
-0.000129285
0.000475636
-0.000143413
-0.000142438
0.000584978
3.66808e-05
0.000578295
-2.67439e-06
0.000573807
-3.60179e-05
0.00056981
-6.25809e-05
0.000564365
-8.46472e-05
0.000555113
-0.000102842
0.00054106
-0.000115233
0.000521124
-0.000123476
-0.000118187
0.000604293
2.44508e-05
0.000608041
-6.42267e-06
0.000604384
-3.23607e-05
0.000595063
-5.32602e-05
0.000580061
-6.96451e-05
0.000558743
-8.15233e-05
0.000531927
-8.84164e-05
0.000499373
-9.09221e-05
-8.46447e-05
0.000553138
7.95812e-06
0.000557732
-1.10169e-05
0.000551933
-2.65612e-05
0.000537007
-3.83349e-05
0.000513944
-4.65823e-05
0.000483686
-5.12648e-05
0.000448224
-5.29541e-05
0.00040901
-5.1709e-05
-4.79872e-05
0.000430262
-1.66588e-06
0.000427886
-8.64118e-06
0.000415045
-1.37194e-05
0.000393543
-1.68335e-05
0.000365256
-1.82947e-05
0.000332349
-1.83581e-05
0.000297151
-1.77564e-05
0.000262117
-1.6675e-05
-1.68854e-05
0.00019622
0.000187578
0.000173859
0.000157026
0.000138731
0.000120373
0.000102616
8.59414e-05
-2.82258e-06
2.82258e-06
-1.06051e-05
7.78253e-06
-2.01067e-05
9.50164e-06
-2.90442e-05
8.93745e-06
-3.57145e-05
6.67036e-06
-3.84997e-05
2.78516e-06
-3.60446e-05
-2.45515e-06
-2.76346e-05
-8.4099e-06
-1.45039e-05
-8.65817e-06
1.14808e-05
-2.49863e-05
2.41106e-05
-4.27598e-05
2.72752e-05
-5.78785e-05
2.40561e-05
-6.74729e-05
1.62648e-05
-6.94316e-05
4.74387e-06
-6.25383e-05
-9.34851e-06
-4.7216e-05
-2.37322e-05
-3.59874e-05
-1.12023e-05
2.26831e-05
-3.04006e-05
4.33089e-05
-5.00317e-05
4.69064e-05
-6.55118e-05
3.95362e-05
-7.39862e-05
2.47391e-05
-7.368e-05
4.43766e-06
-6.39667e-05
-1.90617e-05
-4.56419e-05
-4.2057e-05
-5.95773e-05
-1.09572e-05
3.36403e-05
-2.8292e-05
6.06437e-05
-4.48888e-05
6.35032e-05
-5.67685e-05
5.14159e-05
-6.17165e-05
2.96872e-05
-5.85711e-05
1.29225e-06
-4.73228e-05
-3.03101e-05
-2.80696e-05
-6.13101e-05
-8.18446e-05
-8.8978e-06
4.25381e-05
-1.99128e-05
7.16587e-05
-2.86157e-05
7.22061e-05
-3.2638e-05
5.54382e-05
-3.08181e-05
2.78673e-05
-2.31586e-05
-6.36722e-06
-1.0261e-05
-4.32077e-05
8.77609e-06
-8.03472e-05
-0.000101413
-5.4714e-06
4.80095e-05
-5.22945e-06
7.14167e-05
-6.17678e-07
6.75943e-05
8.30642e-06
4.65141e-05
2.08933e-05
1.52804e-05
3.6305e-05
-2.17789e-05
5.38004e-05
-6.07031e-05
7.17814e-05
-9.83282e-05
-0.00012175
3.62895e-06
4.43805e-05
2.06178e-05
5.44279e-05
4.43947e-05
4.38173e-05
7.00616e-05
2.08472e-05
9.57564e-05
-1.04144e-05
0.000120502
-4.6524e-05
0.000142958
-8.31595e-05
0.000162156
-0.000117526
-0.000139465
3.42878e-05
7.62523e-05
0.000120179
0.000160581
0.000196466
0.000227373
0.000252047
0.000270468
)
;

boundaryField
{
    inlet
    {
        type            calculated;
        value           uniform -0.0002;
    }
    outlet
    {
        type            calculated;
        value           nonuniform List<scalar> 
15
(
-1.31307e-05
-2.57326e-05
-2.20519e-05
-5.80234e-06
2.83444e-05
9.21189e-05
0.00017987
0.00028245
0.00038436
0.000464446
0.000496873
0.00046583
0.000372353
0.000231015
6.90559e-05
)
;
    }
    fixedWalls
    {
        type            calculated;
        value           uniform 0;
    }
    frontAndBack
    {
        type            empty;
    }
}


// ************************************************************************* //
