/*--------------------------------*- C++ -*----------------------------------*\
| =========                 |                                                 |
| \\      /  F ield         | OpenFOAM Extend Project: Open source CFD        |
|  \\    /   O peration     | Version:  1.6-ext                               |
|   \\  /    A nd           | Web:      www.extend-project.de                 |
|    \\/     M anipulation  |                                                 |
\*---------------------------------------------------------------------------*/
FoamFile
{
    version     2.0;
    format      ascii;
    class       volVectorField;
    location    "4.7";
    object      U;
}
// * * * * * * * * * * * * * * * * * * * * * * * * * * * * * * * * * * * * * //

dimensions      [0 1 -1 0 0 0 0];

internalField   nonuniform List<vector> 
284
(
(0.163781 0.0266017 0)
(0.14179 0.0268343 0)
(0.0987117 0.0192614 0)
(0.0662251 0.0122046 0)
(0.0430726 0.00724574 0)
(0.0258476 0.00430261 0)
(0.0127745 0.00253534 0)
(0.00282859 0.000889143 0)
(-0.00071294 -0.00120183 0)
(0.200598 0.0433994 0)
(0.20204 0.0577755 0)
(0.179222 0.053611 0)
(0.146243 0.044492 0)
(0.111151 0.0351875 0)
(0.0771582 0.0275948 0)
(0.0459134 0.0213727 0)
(0.0184742 0.0142617 0)
(0.00295528 0.00338018 0)
(0.203094 0.0291653 0)
(0.210987 0.0599818 0)
(0.204483 0.0729349 0)
(0.183906 0.075722 0)
(0.153013 0.0726449 0)
(0.11567 0.0665815 0)
(0.0751878 0.0583793 0)
(0.0343634 0.0450984 0)
(0.0072135 0.0192451 0)
(0.201524 0.0224938 0)
(0.207599 0.0575016 0)
(0.207852 0.0817068 0)
(0.197275 0.0967758 0)
(0.174746 0.104396 0)
(0.141207 0.106113 0)
(0.0984203 0.10196 0)
(0.0487853 0.0865006 0)
(0.0115936 0.0438311 0)
(0.200564 0.0190815 0)
(0.203991 0.0543875 0)
(0.205909 0.0847242 0)
(0.201319 0.109628 0)
(0.186613 0.128919 0)
(0.159668 0.142364 0)
(0.119091 0.148123 0)
(0.0642377 0.136419 0)
(0.0173692 0.0778231 0)
(0.200234 0.0174231 0)
(0.202369 0.0517975 0)
(0.204913 0.0849448 0)
(0.204329 0.116597 0)
(0.196583 0.146328 0)
(0.177702 0.173206 0)
(0.143001 0.194073 0)
(0.0863323 0.194336 0)
(0.0276607 0.123834 0)
(0.200218 0.0162963 0)
(0.202438 0.0490999 0)
(0.206376 0.0828391 0)
(0.209786 0.118274 0)
(0.209297 0.155915 0)
(0.200759 0.195573 0)
(0.178004 0.234218 0)
(0.124251 0.253003 0)
(0.0484019 0.196289 0)
(0.200346 0.0149085 0)
(0.203614 0.0451442 0)
(0.210101 0.0775718 0)
(0.218435 0.113907 0)
(0.226268 0.156028 0)
(0.230593 0.206118 0)
(0.223736 0.269973 0)
(0.197523 0.339009 0)
(0.0603295 0.286084 0)
(0.200547 0.0127885 0)
(0.205485 0.0389605 0)
(0.215427 0.0681097 0)
(0.229641 0.102245 0)
(0.247264 0.143544 0)
(0.271104 0.194335 0)
(0.298902 0.261083 0)
(0.357121 0.344932 0)
(0.397894 0.428317 0)
(0.200839 0.00960745 0)
(0.207962 0.0299387 0)
(0.221671 0.0540547 0)
(0.241084 0.083425 0)
(0.265785 0.119052 0)
(0.30024 0.161067 0)
(0.342238 0.212629 0)
(0.410126 0.255494 0)
(0.49108 0.337748 0)
(0.201383 0.00497301 0)
(0.211552 0.0176356 0)
(0.22897 0.0357811 0)
(0.251782 0.0594894 0)
(0.279596 0.0880669 0)
(0.315423 0.119422 0)
(0.36001 0.156539 0)
(0.417462 0.172912 0)
(0.497787 0.228312 0)
(0.20245 -0.00238562 0)
(0.216916 0.00141461 0)
(0.237162 0.0142391 0)
(0.260649 0.0332566 0)
(0.28789 0.0560176 0)
(0.32066 0.0792334 0)
(0.362304 0.105724 0)
(0.409925 0.114349 0)
(0.473862 0.141925 0)
(0.204207 -0.0136828 0)
(0.222721 -0.0174743 0)
(0.240921 -0.00718148 0)
(0.259382 0.00920771 0)
(0.281134 0.0275499 0)
(0.307776 0.0446965 0)
(0.342924 0.0622614 0)
(0.382554 0.0683564 0)
(0.430966 0.0792052 0)
(0.201748 -0.035138 0)
(0.215146 -0.0365578 0)
(0.218727 -0.0224637 0)
(0.223199 -0.00683405 0)
(0.233879 0.00699911 0)
(0.251565 0.0178631 0)
(0.277804 0.0269939 0)
(0.308712 0.0299594 0)
(0.344661 0.0327475 0)
(0.164654 -0.0248763 0)
(0.151325 -0.0222497 0)
(0.124364 -0.0125505 0)
(0.111339 -0.00483045 0)
(0.110588 0.000443865 0)
(0.117782 0.0037527 0)
(0.131218 0.00589534 0)
(0.147832 0.00619383 0)
(0.166343 0.00609991 0)
(0.352856 0.166527 0)
(0.182957 0.0443877 0)
(0.542905 0.178347 0)
(0.496106 0.0829312 0)
(0.575503 0.167885 0)
(0.595833 0.101072 0)
(0.543567 0.118504 0)
(0.58488 0.0761293 0)
(0.48426 0.0680363 0)
(0.524787 0.0430326 0)
(0.382248 0.0268131 0)
(0.411843 0.0139917 0)
(0.183977 0.00377192 0)
(0.195724 -0.000119311 0)
(0.183529 -0.00555768 0)
(0.20235 -0.0143706 0)
(0.237438 -0.026018 0)
(0.275146 -0.0438158 0)
(0.310045 -0.0671257 0)
(0.341268 -0.0943135 0)
(0.362781 -0.120255 0)
(0.380941 -0.144262 0)
(0.384719 -0.155392 0)
(0.461284 0.0201828 0)
(0.442378 -0.0172238 0)
(0.44086 -0.0438892 0)
(0.450262 -0.0669533 0)
(0.462062 -0.0894596 0)
(0.474724 -0.112368 0)
(0.47794 -0.131733 0)
(0.483346 -0.148864 0)
(0.466034 -0.151405 0)
(0.591991 0.0438093 0)
(0.582658 -0.000743685 0)
(0.575562 -0.0354108 0)
(0.57197 -0.0638521 0)
(0.567164 -0.0881046 0)
(0.562488 -0.109193 0)
(0.547322 -0.12452 0)
(0.538136 -0.136219 0)
(0.499646 -0.133003 0)
(0.602932 0.0333203 0)
(0.608732 -0.00342782 0)
(0.607681 -0.0334774 0)
(0.601604 -0.0581159 0)
(0.588877 -0.0782277 0)
(0.572513 -0.093935 0)
(0.544693 -0.103983 0)
(0.522718 -0.109514 0)
(0.469734 -0.10317 0)
(0.548532 0.015382 0)
(0.558547 -0.00938805 0)
(0.557426 -0.0303293 0)
(0.54706 -0.0470976 0)
(0.527499 -0.0597807 0)
(0.501538 -0.068098 0)
(0.465775 -0.0721649 0)
(0.433936 -0.0720166 0)
(0.376984 -0.0661448 0)
(0.428313 -0.000181258 0)
(0.431902 -0.0125034 0)
(0.424 -0.0219844 0)
(0.406545 -0.0284105 0)
(0.381085 -0.0320543 0)
(0.350287 -0.0330905 0)
(0.314654 -0.0324494 0)
(0.282148 -0.0303074 0)
(0.23554 -0.0289817 0)
(0.198603 -0.0036535 0)
(0.193278 -0.00609868 0)
(0.18176 -0.00732229 0)
(0.166155 -0.00749935 0)
(0.148247 -0.00697683 0)
(0.129704 -0.00608093 0)
(0.111377 -0.00535811 0)
(0.0951255 -0.00501239 0)
(0.072275 -0.00606147 0)
(-0.000521241 0.000373539 0)
(-0.0056624 0.00240707 0)
(-0.0153417 0.00333443 0)
(-0.0250298 0.00344002 0)
(-0.0331326 0.00290618 0)
(-0.0379573 0.00164442 0)
(-0.0382966 -0.000346341 0)
(-0.0354971 -0.00294256 0)
(-0.0152501 -0.00604344 0)
(-0.00295133 0.0058746 0)
(-0.0152718 0.01413 0)
(-0.0341881 0.0167514 0)
(-0.0516033 0.015425 0)
(-0.0644549 0.0111606 0)
(-0.0701963 0.00425046 0)
(-0.0677901 -0.00471624 0)
(-0.0598475 -0.0144826 0)
(-0.0286224 -0.0237879 0)
(-0.0041418 0.0169053 0)
(-0.0192935 0.0335621 0)
(-0.0409067 0.0371429 0)
(-0.0595538 0.0320625 0)
(-0.071981 0.0209189 0)
(-0.0758327 0.00507299 0)
(-0.0705697 -0.0138114 0)
(-0.0602663 -0.0325824 0)
(-0.0248214 -0.047634 0)
(-0.00428625 0.0284641 0)
(-0.0185404 0.0527686 0)
(-0.0375584 0.0562288 0)
(-0.0527624 0.0465085 0)
(-0.0615034 0.0280957 0)
(-0.0620406 0.0035977 0)
(-0.0541309 -0.024658 0)
(-0.0434182 -0.0520152 0)
(-0.00734058 -0.0709946 0)
(-0.00398061 0.0386249 0)
(-0.0142793 0.0678221 0)
(-0.0254545 0.069974 0)
(-0.0324164 0.0554712 0)
(-0.0336579 0.030487 0)
(-0.0285569 -0.00119261 0)
(-0.016992 -0.0365431 0)
(-0.00505582 -0.0713317 0)
(0.0255027 -0.0921058 0)
(-0.00343836 0.0460552 0)
(-0.0068146 0.0744584 0)
(-0.00404526 0.0734681 0)
(0.0026431 0.0543341 0)
(0.0133772 0.0243202 0)
(0.0277821 -0.0121597 0)
(0.0448193 -0.0512042 0)
(0.06096 -0.0896532 0)
(0.0884936 -0.112486 0)
(0.000351383 0.0535404 0)
(0.00809437 0.0695647 0)
(0.0315494 0.0613023 0)
(0.0563989 0.0382198 0)
(0.0823154 0.00581287 0)
(0.108231 -0.0320262 0)
(0.132282 -0.0709681 0)
(0.153024 -0.107998 0)
(0.177017 -0.131753 0)
(0.0261653 0.0275585 0)
(0.0490643 0.0368826 0)
(0.0979176 0.0255866 0)
(0.140486 0.00299344 0)
(0.178751 -0.0270548 0)
(0.213189 -0.0615661 0)
(0.240987 -0.0957598 0)
(0.263774 -0.127507 0)
(0.281191 -0.147144 0)
)
;

boundaryField
{
    inlet
    {
        type            fixedValue;
        value           uniform (0.2 0 0);
    }
    outlet
    {
        type            zeroGradient;
    }
    fixedWalls
    {
        type            fixedValue;
        value           uniform (0 0 0);
    }
    frontAndBack
    {
        type            empty;
    }
}


// ************************************************************************* //
