/*--------------------------------*- C++ -*----------------------------------*\
| =========                 |                                                 |
| \\      /  F ield         | OpenFOAM Extend Project: Open source CFD        |
|  \\    /   O peration     | Version:  1.6-ext                               |
|   \\  /    A nd           | Web:      www.extend-project.de                 |
|    \\/     M anipulation  |                                                 |
\*---------------------------------------------------------------------------*/
FoamFile
{
    version     2.0;
    format      ascii;
    class       volVectorField;
    location    "1.2";
    object      U;
}
// * * * * * * * * * * * * * * * * * * * * * * * * * * * * * * * * * * * * * //

dimensions      [0 1 -1 0 0 0 0];

internalField   nonuniform List<vector> 
70
(
(0.226871 0.0305919 0)
(0.518675 0.0383124 0)
(0.581601 0.0456912 0)
(0.557025 0.0278556 0)
(0.504564 0.0106375 0)
(0.405553 -0.00170327 0)
(0.19279 -0.00364411 0)
(0.260352 -0.0682554 0)
(0.300175 -0.149029 0)
(0.319212 -0.206668 0)
(0.316391 -0.223222 0)
(0.304386 -0.205196 0)
(0.291546 -0.16996 0)
(0.280549 -0.131539 0)
(0.273064 -0.0972312 0)
(0.266681 -0.0655846 0)
(0.507266 -0.055777 0)
(0.492648 -0.137239 0)
(0.460853 -0.186317 0)
(0.418834 -0.195728 0)
(0.378578 -0.176849 0)
(0.345955 -0.14594 0)
(0.32122 -0.113717 0)
(0.304525 -0.0853809 0)
(0.290337 -0.0585991 0)
(0.577041 -0.0363652 0)
(0.552289 -0.104822 0)
(0.509294 -0.142415 0)
(0.459359 -0.148805 0)
(0.413278 -0.134969 0)
(0.375557 -0.112622 0)
(0.346054 -0.0890254 0)
(0.325221 -0.068048 0)
(0.306374 -0.047731 0)
(0.561971 -0.0298137 0)
(0.543193 -0.0763095 0)
(0.50657 -0.100944 0)
(0.462356 -0.1044 0)
(0.419572 -0.0943556 0)
(0.382825 -0.0787567 0)
(0.352874 -0.0625239 0)
(0.330897 -0.0482612 0)
(0.310109 -0.0346893 0)
(0.510616 -0.024368 0)
(0.495345 -0.0512706 0)
(0.464551 -0.0642357 0)
(0.426774 -0.0643742 0)
(0.389413 -0.0568101 0)
(0.35664 -0.0465614 0)
(0.329524 -0.0366085 0)
(0.309204 -0.0282582 0)
(0.289652 -0.0210928 0)
(0.405034 -0.0177985 0)
(0.388088 -0.0283927 0)
(0.360134 -0.0315623 0)
(0.328354 -0.028977 0)
(0.29835 -0.0237404 0)
(0.272869 -0.0183077 0)
(0.252355 -0.0138547 0)
(0.236944 -0.0106115 0)
(0.222294 -0.00884159 0)
(0.18569 -0.00686267 0)
(0.17065 -0.00804395 0)
(0.152119 -0.00731852 0)
(0.134248 -0.00562695 0)
(0.119354 -0.00388976 0)
(0.107904 -0.00257836 0)
(0.0993546 -0.00179034 0)
(0.0929156 -0.00145623 0)
(0.0865011 -0.00174719 0)
)
;

boundaryField
{
    inlet
    {
        type            fixedValue;
        value           nonuniform 0();
    }
    outlet
    {
        type            zeroGradient;
    }
    fixedWalls
    {
        type            fixedValue;
        value           uniform (0 0 0);
    }
    frontAndBack
    {
        type            empty;
    }
    procBoundary1to2
    {
        type            processor;
        value           nonuniform List<vector> 7((0.375162 0.155507 0) (0.546805 0.14195 0) (0.56134 0.12411 0) (0.525444 0.0813861 0) (0.476986 0.0431578 0) (0.389161 0.0142752 0) (0.189666 0.000480123 0));
    }
    procBoundary1to0
    {
        type            processor;
        value           nonuniform List<vector> 9((0.0515158 0.000483233 0) (0.0969685 -0.094135 0) (0.154897 -0.176332 0) (0.188911 -0.210059 0) (0.208904 -0.201866 0) (0.221789 -0.170818 0) (0.229776 -0.133397 0) (0.234949 -0.0984314 0) (0.238355 -0.0662232 0));
    }
}


// ************************************************************************* //
