/*--------------------------------*- C++ -*----------------------------------*\
| =========                 |                                                 |
| \\      /  F ield         | OpenFOAM Extend Project: Open source CFD        |
|  \\    /   O peration     | Version:  1.6-ext                               |
|   \\  /    A nd           | Web:      www.extend-project.de                 |
|    \\/     M anipulation  |                                                 |
\*---------------------------------------------------------------------------*/
FoamFile
{
    version     2.0;
    format      ascii;
    class       surfaceScalarField;
    location    "3.3";
    object      phi;
}
// * * * * * * * * * * * * * * * * * * * * * * * * * * * * * * * * * * * * * //

dimensions      [0 3 -1 0 0 0 0];

internalField   nonuniform List<scalar> 
127
(
-4.49653e-06
4.49653e-06
-1.37264e-05
9.22986e-06
-2.28226e-05
9.09619e-06
-2.89464e-05
6.12379e-06
-3.07152e-05
1.76879e-06
-2.76849e-05
-3.03028e-06
-2.00911e-05
-7.59375e-06
-9.32491e-06
-1.07662e-05
-1.44134e-05
-9.95165e-06
1.44482e-05
-2.6146e-05
2.54242e-05
-4.0389e-05
2.33392e-05
-4.81195e-05
1.38544e-05
-4.74588e-05
1.10805e-06
-3.83228e-05
-1.21662e-05
-2.21527e-05
-2.37638e-05
-4.25049e-07
-3.24939e-05
-3.55467e-05
-1.20325e-05
2.64807e-05
-3.02694e-05
4.3661e-05
-4.5146e-05
3.82158e-05
-5.1688e-05
2.03964e-05
-4.78925e-05
-2.6875e-06
-3.42457e-05
-2.5813e-05
-1.2821e-05
-4.51886e-05
1.37464e-05
-5.90613e-05
-6.26236e-05
-1.2365e-05
3.88457e-05
-2.97514e-05
6.10474e-05
-4.27666e-05
5.1231e-05
-4.66611e-05
2.42909e-05
-3.9715e-05
-9.63367e-06
-2.26139e-05
-4.2914e-05
2.2254e-06
-7.00279e-05
3.25472e-05
-8.93831e-05
-9.28105e-05
-1.10959e-05
4.99416e-05
-2.37553e-05
7.37068e-05
-3.11228e-05
5.85984e-05
-2.94252e-05
2.25934e-05
-1.77839e-05
-2.12751e-05
3.01441e-06
-6.37123e-05
3.06049e-05
-9.76184e-05
6.16456e-05
-0.000120424
-0.000123532
-7.05219e-06
5.69938e-05
-8.47115e-06
7.51258e-05
-3.62504e-06
5.37523e-05
8.71085e-06
1.02575e-05
2.76444e-05
-4.02087e-05
5.22031e-05
-8.82709e-05
8.06442e-05
-0.000126059
0.000110304
-0.000150083
-0.000151282
5.03684e-06
5.1957e-05
2.36759e-05
5.64867e-05
4.89498e-05
2.84785e-05
7.62991e-05
-1.70919e-05
0.000104392
-6.83016e-05
0.000132423
-0.000116302
0.000158998
-0.000152635
0.00018362
-0.000174705
-0.000171679
4.10509e-05
8.97846e-05
0.000137053
0.000178236
0.000212666
0.000240381
0.000261181
0.000276322
)
;

boundaryField
{
    inlet
    {
        type            calculated;
        value           nonuniform 0();
    }
    outlet
    {
        type            calculated;
        value           nonuniform List<scalar> 8(5.08852e-06 2.07082e-05 4.08234e-05 6.27341e-05 9.23676e-05 0.000138053 0.000204017 0.00028489);
    }
    fixedWalls
    {
        type            calculated;
        value           uniform 0;
    }
    frontAndBack
    {
        type            empty;
    }
    procBoundary0to1
    {
        type            processor;
        value           nonuniform List<scalar> 9(1.09061e-05 7.75299e-06 -1.87904e-05 -5.8274e-05 -0.000102732 -0.000144017 -0.000173435 -0.000189846 -0.000180247);
    }
}


// ************************************************************************* //
