/*--------------------------------*- C++ -*----------------------------------*\
| =========                 |                                                 |
| \\      /  F ield         | OpenFOAM Extend Project: Open source CFD        |
|  \\    /   O peration     | Version:  1.6-ext                               |
|   \\  /    A nd           | Web:      www.extend-project.de                 |
|    \\/     M anipulation  |                                                 |
\*---------------------------------------------------------------------------*/
FoamFile
{
    version     2.0;
    format      ascii;
    class       volScalarField;
    location    "1.6";
    object      p;
}
// * * * * * * * * * * * * * * * * * * * * * * * * * * * * * * * * * * * * * //

dimensions      [0 2 -2 0 0 0 0];

internalField   nonuniform List<scalar> 
284
(
0.247135
0.215676
0.2042
0.199235
0.197306
0.197172
0.197888
0.199025
0.201271
0.21792
0.209019
0.203597
0.201018
0.200056
0.200125
0.200695
0.201499
0.203924
0.206141
0.202699
0.200059
0.198815
0.198714
0.199356
0.200247
0.201137
0.204162
0.196886
0.195781
0.194662
0.19433
0.194818
0.195817
0.196876
0.197752
0.201229
0.189354
0.189008
0.188516
0.188407
0.188791
0.189457
0.189979
0.19008
0.193327
0.182599
0.182444
0.182009
0.181535
0.181083
0.180488
0.179295
0.177043
0.178023
0.176265
0.176089
0.175378
0.174117
0.172195
0.169314
0.164692
0.156846
0.15053
0.170384
0.170097
0.168912
0.166589
0.162742
0.15678
0.147249
0.132321
0.0883725
0.165196
0.164755
0.162989
0.159461
0.153319
0.143021
0.123028
0.0848872
-0.00754663
0.161051
0.160405
0.158023
0.153472
0.145858
0.133774
0.113292
0.0816443
0.0294465
0.158393
0.157329
0.154201
0.148845
0.140723
0.128969
0.111824
0.0876485
0.05537
0.157574
0.155692
0.151411
0.145195
0.136895
0.125889
0.111351
0.0917123
0.0683882
0.160316
0.155842
0.149511
0.142177
0.133703
0.123442
0.110815
0.0944529
0.0758638
0.16676
0.156958
0.148
0.139698
0.131306
0.121823
0.110536
0.0963339
0.0800951
0.195115
0.163257
0.148897
0.139727
0.131653
0.122942
0.112437
0.0990286
0.083281
-0.139115
-0.11038
-0.039545
-0.0629684
0.00681341
-0.0218716
0.0364079
0.0121375
0.0534596
0.0332068
0.0617671
0.0439607
0.0655333
0.047329
-0.100005
-0.0878857
-0.0707215
-0.0486701
-0.0279461
-0.0128386
-0.00414345
-0.000197727
9.06612e-05
-0.0701254
-0.0659398
-0.053293
-0.0361108
-0.0201198
-0.0087452
-0.00250224
0.000124936
-0.000373684
-0.0334229
-0.0348677
-0.0295594
-0.0204134
-0.0112983
-0.00470692
-0.00121226
0.000141298
-0.000801502
-0.00195489
-0.00873599
-0.00996121
-0.00775065
-0.00454
-0.00198085
-0.00067439
-0.000200705
-0.00115388
0.0182007
0.00845577
0.00289343
0.000305471
-0.000595047
-0.000794494
-0.000859566
-0.000793753
-0.00138404
0.0288906
0.0173137
0.00910306
0.0037738
0.000656147
-0.000913803
-0.00151004
-0.00145612
-0.00146702
0.0310145
0.017752
0.00800187
0.00167058
-0.00180904
-0.0032469
-0.00341685
-0.00284648
-0.00191357
-0.0239146
-0.0230794
-0.0197254
-0.0150269
-0.0100981
-0.00571967
-0.00235917
-0.000103507
0.00133592
-0.0248449
-0.024284
-0.0213392
-0.0166761
-0.0117364
-0.00717807
-0.00354503
-0.000965621
0.00100434
-0.0280249
-0.0274879
-0.0243445
-0.0184897
-0.0130329
-0.00789023
-0.00383183
-0.00102543
0.00113348
-0.0335522
-0.0328618
-0.0287571
-0.0221958
-0.0151793
-0.0088825
-0.00409793
-0.000965753
0.00127627
-0.0425374
-0.0413037
-0.0360926
-0.0276003
-0.0183582
-0.0103025
-0.0044358
-0.000850327
0.00135147
-0.0564175
-0.0536487
-0.0466795
-0.0350458
-0.0226202
-0.0121268
-0.00484181
-0.000710922
0.00129519
-0.0737909
-0.0671184
-0.0587252
-0.0435524
-0.0272094
-0.0139165
-0.00518445
-0.000594103
0.00104596
-0.108452
-0.0870385
-0.0708802
-0.0504623
-0.0301426
-0.0146097
-0.00510204
-0.000467743
0.000608166
)
;

boundaryField
{
    inlet
    {
        type            zeroGradient;
    }
    outlet
    {
        type            totalPressure;
        rho             none;
        psi             none;
        gamma           1;
        p0              uniform 0;
        value           uniform 0;
    }
    fixedWalls
    {
        type            zeroGradient;
    }
    frontAndBack
    {
        type            empty;
    }
}


// ************************************************************************* //
