/*--------------------------------*- C++ -*----------------------------------*\
| =========                 |                                                 |
| \\      /  F ield         | OpenFOAM Extend Project: Open source CFD        |
|  \\    /   O peration     | Version:  1.6-ext                               |
|   \\  /    A nd           | Web:      www.extend-project.de                 |
|    \\/     M anipulation  |                                                 |
\*---------------------------------------------------------------------------*/
FoamFile
{
    version     2.0;
    format      ascii;
    class       surfaceScalarField;
    location    "1.6";
    object      phi;
}
// * * * * * * * * * * * * * * * * * * * * * * * * * * * * * * * * * * * * * //

dimensions      [0 3 -1 0 0 0 0];

internalField   nonuniform List<scalar> 
525
(
0.000161004
3.89965e-05
0.000117809
4.31942e-05
8.31882e-05
3.4621e-05
5.7382e-05
2.58063e-05
3.84294e-05
1.89526e-05
2.36303e-05
1.47991e-05
1.12737e-05
1.23567e-05
2.17038e-06
9.10328e-06
2.17038e-06
0.000205216
3.37805e-05
0.000191292
5.71179e-05
0.000164522
6.13918e-05
0.000132841
5.74867e-05
0.000100427
5.1367e-05
6.88294e-05
4.63964e-05
3.86898e-05
4.24962e-05
1.29122e-05
3.48809e-05
1.50826e-05
0.00020886
2.49208e-05
0.000208414
5.75636e-05
0.000194452
7.53538e-05
0.000169171
8.27677e-05
0.000136311
8.42274e-05
9.88636e-05
8.38434e-05
5.91166e-05
8.22432e-05
2.17843e-05
7.22132e-05
3.6867e-05
0.000205197
1.97235e-05
0.000207905
5.48556e-05
0.000200905
8.23539e-05
0.000182488
0.000101185
0.000153798
0.000112918
0.000116718
0.000120923
7.3249e-05
0.000125712
2.86598e-05
0.000116802
6.55267e-05
0.000202524
1.71991e-05
0.000204844
5.25364e-05
0.000201134
8.60635e-05
0.00018807
0.000114249
0.000164666
0.000136322
0.000130931
0.000154657
8.70783e-05
0.000169565
3.68567e-05
0.000167024
0.000102383
0.00020143
1.57689e-05
0.000203627
5.03394e-05
0.000202514
8.71764e-05
0.000194525
0.000122238
0.000177367
0.000153481
0.000149231
0.000182793
0.000107586
0.00021121
5.16186e-05
0.000222991
0.000154002
0.000201387
1.43819e-05
0.000204681
4.70449e-05
0.000207053
8.48046e-05
0.000205243
0.000124048
0.000196448
0.000162275
0.000177936
0.000201305
0.000143481
0.000245666
8.27348e-05
0.000283737
0.000236737
0.000201934
1.24481e-05
0.000207399
4.15798e-05
0.000214451
7.77524e-05
0.000220406
0.000118094
0.000222507
0.000160174
0.000217642
0.00020617
0.000195702
0.000267606
0.000134363
0.000345076
0.000371099
0.000202802
9.64584e-06
0.000211062
3.33203e-05
0.000223478
6.53366e-05
0.000238393
0.000103179
0.000255304
0.000143262
0.000276824
0.00018465
0.000311916
0.000232514
0.00037833
0.000278662
0.000341505
0.000407925
0.00020398
5.66558e-06
0.000215242
2.20581e-05
0.000232519
4.80599e-05
0.000254727
8.0971e-05
0.000282341
0.000115649
0.000318414
0.000148577
0.000367479
0.00018345
0.000445807
0.000200333
0.000257489
0.000529823
0.0002059
-2.34917e-07
0.000220296
7.66262e-06
0.000241039
2.73171e-05
0.000267163
5.48473e-05
0.000298933
8.38777e-05
0.000338084
0.000109426
0.000386724
0.00013481
0.000448775
0.000138282
0.000166365
0.000539899
0.000209093
-9.32805e-06
0.000226706
-9.95045e-06
0.000248744
5.27973e-06
0.000275213
2.83774e-05
0.000306716
5.2375e-05
0.000344214
7.19285e-05
0.00038974
8.92842e-05
0.000439106
8.89159e-05
9.65807e-05
0.00050889
0.000214043
-2.33715e-05
0.000231264
-2.71711e-05
0.00024959
-1.30458e-05
0.000271557
6.40991e-06
0.000298909
2.50237e-05
0.000332053
3.87843e-05
0.000372242
4.90948e-05
0.000412799
4.83588e-05
4.77548e-05
0.000461625
0.000211213
-3.4585e-05
0.000215769
-3.17263e-05
0.000220367
-1.7644e-05
0.000230873
-4.09584e-06
0.000249575
6.32071e-06
0.000275381
1.29785e-05
0.000307387
1.70886e-05
0.000339293
1.64529e-05
1.48569e-05
0.000372191
0.000165415
0.000133689
0.000116045
0.000111949
0.00011827
0.000131248
0.000148337
0.00016479
0.000179647
0.000268182
0.000139744
3.79413e-05
0.00023024
0.000519659
0.000149908
5.45418e-05
0.000503058
0.000576455
0.000113352
4.71324e-05
0.000583864
0.000552499
6.97429e-05
2.79987e-05
0.000571633
0.000498309
3.30591e-05
9.03921e-06
0.000517269
0.000396463
8.787e-06
-1.07494e-06
0.000406577
0.000188434
0.000187359
0.000255486
-3.48919e-05
9.64637e-06
0.000288974
-0.000101175
6.76871e-05
0.000310748
-0.000162058
0.000140283
0.000318158
-0.000199084
0.000191675
0.000315125
-0.000205036
0.000208069
0.000306735
-0.000186447
0.000194838
0.000297191
-0.00015519
0.000164734
0.00028923
-0.00012204
0.000130002
-8.73364e-05
9.28778e-05
0.000489331
-2.11647e-05
0.000477856
-8.96995e-05
0.000459395
-0.000143597
0.000432527
-0.000172216
0.000401288
-0.000173797
0.000370874
-0.000156034
0.000344876
-0.000129192
0.000324771
-0.000101936
-7.38395e-05
0.000576588
-1.38885e-05
0.000556788
-6.98998e-05
0.000524925
-0.000111733
0.000484861
-0.000132152
0.000442518
-0.000131454
0.000403155
-0.000116671
0.000369968
-9.60046e-05
0.000343864
-7.58316e-05
-5.59104e-05
0.000572638
-1.48942e-05
0.000555964
-5.32258e-05
0.000524718
-8.04874e-05
0.000484356
-9.17897e-05
0.00044148
-8.85779e-05
0.000401446
-7.66378e-05
0.000367415
-6.19737e-05
0.000340162
-4.8578e-05
-3.674e-05
0.000518239
-1.58648e-05
0.000502155
-3.71415e-05
0.000471871
-5.02033e-05
0.000433417
-5.33359e-05
0.000393489
-4.86504e-05
0.000357026
-4.01746e-05
0.000326507
-3.14543e-05
0.000302217
-2.4288e-05
-1.93446e-05
0.000401003
-1.02908e-05
0.000380922
-1.706e-05
0.000350614
-1.9895e-05
0.000316264
-1.89858e-05
0.000283431
-1.58176e-05
0.000255358
-1.21014e-05
0.000232917
-9.01366e-06
0.000215571
-6.94161e-06
-6.46865e-06
0.000177068
0.000160008
0.000140113
0.000121127
0.000105309
9.3208e-05
8.41943e-05
7.72527e-05
-4.7752e-06
4.7752e-06
-8.69672e-06
3.92152e-06
-7.9634e-06
-7.33317e-07
-2.70637e-06
-5.25704e-06
5.1239e-06
-7.83026e-06
1.38592e-05
-8.73531e-06
2.22095e-05
-8.35026e-06
2.95191e-05
-7.30963e-06
-6.61171e-06
-5.72539e-06
1.05006e-05
-8.28655e-06
6.48268e-06
-2.62758e-06
-6.39229e-06
1.05032e-05
-1.83879e-05
2.78582e-05
-2.51852e-05
4.62059e-05
-2.7083e-05
6.31919e-05
-2.53362e-05
7.73807e-05
-2.14984e-05
-1.76658e-05
-6.92562e-06
1.74262e-05
-9.10308e-06
8.66013e-06
-1.83416e-07
-1.5312e-05
1.83039e-05
-3.68752e-05
4.20382e-05
-4.89195e-05
6.66072e-05
-5.1652e-05
8.89617e-05
-4.76908e-05
0.00010736
-3.98969e-05
-3.1434e-05
-1.01328e-05
2.7559e-05
-1.37511e-05
1.22785e-05
-2.89153e-06
-2.61716e-05
2.02152e-05
-5.9982e-05
4.94719e-05
-7.81762e-05
7.91572e-05
-8.13372e-05
0.000105569
-7.41026e-05
0.000126919
-6.12474e-05
-4.69323e-05
-1.38339e-05
4.13929e-05
-1.73493e-05
1.57938e-05
-3.01617e-06
-4.05047e-05
2.51218e-05
-8.812e-05
5.96096e-05
-0.000112664
9.35204e-05
-0.000115248
0.000122765
-0.000103347
0.000145839
-8.43218e-05
-6.30938e-05
-1.27528e-05
5.41458e-05
-9.47069e-06
1.25117e-05
1.26838e-05
-6.26592e-05
4.65007e-05
-0.000121937
8.41015e-05
-0.000150265
0.000119157
-0.000150303
0.000148189
-0.000132379
0.00017049
-0.000106623
-7.81382e-05
4.81124e-06
4.93345e-05
2.95228e-05
-1.21998e-05
6.29483e-05
-9.60847e-05
9.9602e-05
-0.000158591
0.000134385
-0.000185048
0.000163929
-0.000179847
0.000186867
-0.000155318
0.000203917
-0.000123672
-8.91788e-05
5.89809e-05
0.000114468
0.000158667
0.000191751
0.000214771
0.000229762
0.000239179
0.000245508
)
;

boundaryField
{
    inlet
    {
        type            calculated;
        value           uniform -0.0002;
    }
    outlet
    {
        type            calculated;
        value           nonuniform List<scalar> 
15
(
3.61308e-05
8.84348e-05
0.000121128
0.000142418
0.000162001
0.000185534
0.000214957
0.000249207
0.000283688
0.000311274
0.000325935
0.000320991
0.000284821
0.000202695
7.07841e-05
)
;
    }
    fixedWalls
    {
        type            calculated;
        value           uniform 0;
    }
    frontAndBack
    {
        type            empty;
    }
}


// ************************************************************************* //
