/*--------------------------------*- C++ -*----------------------------------*\
| =========                 |                                                 |
| \\      /  F ield         | OpenFOAM Extend Project: Open source CFD        |
|  \\    /   O peration     | Version:  1.6-ext                               |
|   \\  /    A nd           | Web:      www.extend-project.de                 |
|    \\/     M anipulation  |                                                 |
\*---------------------------------------------------------------------------*/
FoamFile
{
    version     2.0;
    format      ascii;
    class       volVectorField;
    location    "1.6";
    object      U;
}
// * * * * * * * * * * * * * * * * * * * * * * * * * * * * * * * * * * * * * //

dimensions      [0 1 -1 0 0 0 0];

internalField   nonuniform List<vector> 
284
(
(0.163789 0.0265488 0)
(0.14214 0.0265913 0)
(0.0999186 0.0188196 0)
(0.0687207 0.0117066 0)
(0.0469766 0.00690273 0)
(0.0305678 0.00433407 0)
(0.0170159 0.00303918 0)
(0.0051151 0.00164284 0)
(-0.0002237 -0.000872784 0)
(0.200635 0.0430933 0)
(0.20255 0.0567641 0)
(0.180789 0.0517829 0)
(0.149547 0.0421072 0)
(0.116763 0.0331546 0)
(0.0846453 0.02718 0)
(0.0533102 0.0233582 0)
(0.0230117 0.0179363 0)
(0.00417283 0.00590218 0)
(0.203148 0.0285744 0)
(0.211323 0.0583471 0)
(0.204884 0.07007 0)
(0.184363 0.0715463 0)
(0.154391 0.068377 0)
(0.118738 0.0647661 0)
(0.0792723 0.0612127 0)
(0.037368 0.0518844 0)
(0.00813364 0.0246977 0)
(0.201579 0.021765 0)
(0.207786 0.0560709 0)
(0.207188 0.0796089 0)
(0.194642 0.0931507 0)
(0.170632 0.0996 0)
(0.13741 0.102916 0)
(0.0962945 0.10383 0)
(0.0481651 0.0936106 0)
(0.0115263 0.0501315 0)
(0.200617 0.0182237 0)
(0.204185 0.0535612 0)
(0.204957 0.0846674 0)
(0.197242 0.108684 0)
(0.179085 0.125736 0)
(0.150662 0.138668 0)
(0.111499 0.147858 0)
(0.0601082 0.141036 0)
(0.0162968 0.0825256 0)
(0.200276 0.0164131 0)
(0.202665 0.0515049 0)
(0.204365 0.0871829 0)
(0.200638 0.119354 0)
(0.188547 0.146356 0)
(0.166649 0.17021 0)
(0.132314 0.191474 0)
(0.0797676 0.194782 0)
(0.0257879 0.125249 0)
(0.200243 0.0150973 0)
(0.202853 0.0489883 0)
(0.206578 0.0868261 0)
(0.207686 0.124616 0)
(0.203078 0.159914 0)
(0.190651 0.194456 0)
(0.166722 0.229787 0)
(0.116643 0.24841 0)
(0.0458595 0.192593 0)
(0.200347 0.0134966 0)
(0.204091 0.0447838 0)
(0.211033 0.0823515 0)
(0.218316 0.12289 0)
(0.22308 0.16395 0)
(0.223442 0.207999 0)
(0.213519 0.265188 0)
(0.189691 0.330642 0)
(0.0597228 0.280613 0)
(0.200522 0.0111763 0)
(0.205909 0.0380204 0)
(0.216759 0.0726918 0)
(0.231144 0.112491 0)
(0.247178 0.154509 0)
(0.268159 0.199746 0)
(0.292005 0.257695 0)
(0.350174 0.331724 0)
(0.395469 0.413673 0)
(0.200787 0.00786258 0)
(0.208182 0.0283322 0)
(0.222847 0.0577645 0)
(0.243189 0.0936019 0)
(0.267683 0.131592 0)
(0.300673 0.169633 0)
(0.338868 0.212411 0)
(0.403842 0.242758 0)
(0.484187 0.31253 0)
(0.201312 0.00327546 0)
(0.211433 0.0156159 0)
(0.229413 0.0384993 0)
(0.253299 0.0687688 0)
(0.281932 0.100745 0)
(0.317777 0.129915 0)
(0.360153 0.159728 0)
(0.414346 0.165133 0)
(0.490587 0.203725 0)
(0.202333 -0.00388349 0)
(0.216338 -0.00053135 0)
(0.236617 0.0163124 0)
(0.261108 0.0413327 0)
(0.290011 0.0677413 0)
(0.324305 0.0900471 0)
(0.365831 0.110969 0)
(0.411897 0.110683 0)
(0.471101 0.123777 0)
(0.204088 -0.0148761 0)
(0.221839 -0.0189011 0)
(0.239796 -0.00545424 0)
(0.259643 0.015595 0)
(0.284248 0.0369403 0)
(0.314181 0.0537136 0)
(0.351381 0.0673277 0)
(0.391267 0.0667355 0)
(0.436009 0.0675221 0)
(0.201646 -0.0358329 0)
(0.214221 -0.0373539 0)
(0.217621 -0.0215477 0)
(0.224114 -0.00347907 0)
(0.238785 0.0119528 0)
(0.261102 0.0225619 0)
(0.290798 0.0294924 0)
(0.322793 0.0287682 0)
(0.355749 0.026511 0)
(0.164536 -0.0250708 0)
(0.150461 -0.0224853 0)
(0.123251 -0.0123777 0)
(0.111653 -0.00408573 0)
(0.113631 0.00155575 0)
(0.123868 0.00471475 0)
(0.139516 0.00619847 0)
(0.156516 0.00549106 0)
(0.172693 0.00415678 0)
(0.365189 0.157494 0)
(0.213868 0.0342502 0)
(0.544114 0.15164 0)
(0.513975 0.0508817 0)
(0.566961 0.134401 0)
(0.588684 0.0589886 0)
(0.534111 0.0891459 0)
(0.568214 0.0380542 0)
(0.481601 0.0478287 0)
(0.511795 0.0164942 0)
(0.385959 0.0162631 0)
(0.404654 0.000619607 0)
(0.18531 0.000886365 0)
(0.189675 -0.00321901 0)
(0.235527 -0.038178 0)
(0.27398 -0.0989451 0)
(0.306845 -0.162089 0)
(0.320268 -0.203891 0)
(0.318826 -0.213645 0)
(0.310682 -0.196584 0)
(0.300612 -0.164711 0)
(0.292515 -0.129645 0)
(0.283304 -0.0925293 0)
(0.495864 -0.0270496 0)
(0.487086 -0.0965209 0)
(0.474401 -0.15497 0)
(0.449831 -0.188572 0)
(0.417327 -0.192689 0)
(0.384508 -0.174352 0)
(0.355369 -0.144844 0)
(0.333752 -0.114177 0)
(0.31231 -0.0821499 0)
(0.58555 -0.0119859 0)
(0.571838 -0.0763758 0)
(0.546018 -0.126043 0)
(0.507836 -0.151643 0)
(0.463664 -0.152693 0)
(0.421178 -0.13678 0)
(0.383939 -0.113235 0)
(0.356048 -0.0896494 0)
(0.327856 -0.065553 0)
(0.577934 -0.0139644 0)
(0.569806 -0.0610999 0)
(0.545042 -0.0956731 0)
(0.5071 -0.111535 0)
(0.463037 -0.109629 0)
(0.420177 -0.0963485 0)
(0.382152 -0.0787792 0)
(0.353196 -0.0621006 0)
(0.323374 -0.0463121 0)
(0.522746 -0.0167953 0)
(0.515147 -0.0461562 0)
(0.490811 -0.06565 0)
(0.454487 -0.0721944 0)
(0.41337 -0.06772 0)
(0.374101 -0.0572044 0)
(0.3399 -0.0454489 0)
(0.313837 -0.0352565 0)
(0.287283 -0.0272165 0)
(0.407668 -0.0155346 0)
(0.394507 -0.0280194 0)
(0.36804 -0.0341185 0)
(0.334091 -0.0336157 0)
(0.299246 -0.0287327 0)
(0.26824 -0.0224202 0)
(0.242798 -0.0168531 0)
(0.223699 -0.012826 0)
(0.204879 -0.011104 0)
(0.18398 -0.00666065 0)
(0.169735 -0.00835566 0)
(0.150473 -0.00813619 0)
(0.130374 -0.00663296 0)
(0.112637 -0.00475408 0)
(0.0986412 -0.00316412 0)
(0.0882007 -0.00216269 0)
(0.0804557 -0.00175838 0)
(0.0723564 -0.00221271 0)
(-0.00256083 0.00240636 0)
(-0.00748522 0.00240144 0)
(-0.00938247 0.000619581 0)
(-0.00609823 -0.00125573 0)
(0.00089766 -0.0023117 0)
(0.00955084 -0.00277036 0)
(0.0181947 -0.00274902 0)
(0.0260233 -0.00253694 0)
(0.0345751 -0.00258891 0)
(-0.00337902 0.00756908 0)
(-0.00864664 0.00570083 0)
(-0.00757445 -0.00221108 0)
(0.00259248 -0.00976151 0)
(0.0188486 -0.0140834 0)
(0.0372682 -0.0155057 0)
(0.0551715 -0.0147084 0)
(0.0707945 -0.0127038 0)
(0.0862204 -0.011019 0)
(-0.00423265 0.0135889 0)
(-0.010309 0.00746934 0)
(-0.0075525 -0.0101736 0)
(0.00726187 -0.0263103 0)
(0.0298355 -0.0355192 0)
(0.0547153 -0.0379367 0)
(0.0785066 -0.0353334 0)
(0.0988332 -0.0297963 0)
(0.118527 -0.0239602 0)
(-0.00617564 0.0218874 0)
(-0.0150255 0.0102003 0)
(-0.0119528 -0.0198812 0)
(0.00652043 -0.0469891 0)
(0.0345722 -0.0620553 0)
(0.064921 -0.0652465 0)
(0.0933381 -0.0599867 0)
(0.117062 -0.0499526 0)
(0.139561 -0.0388449 0)
(-0.00876308 0.034164 0)
(-0.019948 0.0148513 0)
(-0.0144057 -0.0319866 0)
(0.00882678 -0.0726404 0)
(0.0423818 -0.0942529 0)
(0.077474 -0.0974681 0)
(0.109365 -0.0882264 0)
(0.135271 -0.0725074 0)
(0.159014 -0.0549591 0)
(-0.00924971 0.0475842 0)
(-0.0169834 0.0156666 0)
(-0.00180446 -0.0501996 0)
(0.0286131 -0.104632 0)
(0.0660183 -0.131769 0)
(0.102835 -0.13338 0)
(0.13497 -0.118529 0)
(0.16033 -0.0960506 0)
(0.182603 -0.0711477 0)
(-0.000297394 0.0656463 0)
(0.010907 0.0107404 0)
(0.0461196 -0.0764074 0)
(0.0831007 -0.141427 0)
(0.118857 -0.170448 0)
(0.150483 -0.168069 0)
(0.176355 -0.146452 0)
(0.196078 -0.117156 0)
(0.212391 -0.0851017 0)
(0.042589 0.0220086 0)
(0.0830934 -0.0390744 0)
(0.140674 -0.122043 0)
(0.18055 -0.18076 0)
(0.206185 -0.202493 0)
(0.223235 -0.192769 0)
(0.234523 -0.164512 0)
(0.242371 -0.130257 0)
(0.247465 -0.0933453 0)
)
;

boundaryField
{
    inlet
    {
        type            fixedValue;
        value           uniform (0.2 0 0);
    }
    outlet
    {
        type            zeroGradient;
    }
    fixedWalls
    {
        type            fixedValue;
        value           uniform (0 0 0);
    }
    frontAndBack
    {
        type            empty;
    }
}


// ************************************************************************* //
