/*--------------------------------*- C++ -*----------------------------------*\
| =========                 |                                                 |
| \\      /  F ield         | OpenFOAM Extend Project: Open source CFD        |
|  \\    /   O peration     | Version:  1.6-ext                               |
|   \\  /    A nd           | Web:      www.extend-project.de                 |
|    \\/     M anipulation  |                                                 |
\*---------------------------------------------------------------------------*/
FoamFile
{
    version     2.0;
    format      ascii;
    class       volScalarField;
    location    "2.7";
    object      p;
}
// * * * * * * * * * * * * * * * * * * * * * * * * * * * * * * * * * * * * * //

dimensions      [0 2 -2 0 0 0 0];

internalField   nonuniform List<scalar> 
284
(
0.264017
0.232552
0.221098
0.216153
0.214304
0.214333
0.215248
0.216522
0.218632
0.234795
0.225919
0.220565
0.218057
0.217155
0.217285
0.217922
0.218781
0.221057
0.222862
0.219461
0.216894
0.215749
0.215793
0.216616
0.217671
0.218687
0.221724
0.213417
0.212354
0.211313
0.211116
0.211855
0.21322
0.214665
0.215855
0.219562
0.205641
0.205337
0.204938
0.205004
0.205734
0.206935
0.208062
0.208692
0.212394
0.198584
0.198468
0.198139
0.197879
0.197842
0.197882
0.197425
0.195823
0.197343
0.191888
0.191742
0.191142
0.19013
0.188674
0.186455
0.182554
0.175236
0.169333
0.185582
0.185313
0.184231
0.18217
0.178818
0.173497
0.16455
0.149624
0.10456
0.179912
0.179475
0.177781
0.174488
0.16882
0.159071
0.139406
0.100669
0.00627046
0.175246
0.174589
0.172226
0.167823
0.160567
0.148877
0.128474
0.0961476
0.0421943
0.17205
0.170975
0.167792
0.162437
0.154473
0.142945
0.125907
0.101442
0.0681914
0.170817
0.168868
0.16444
0.158048
0.149644
0.138657
0.124245
0.104623
0.0811275
0.173184
0.168659
0.162127
0.154465
0.145618
0.135155
0.122597
0.106436
0.0880968
0.179367
0.169559
0.160382
0.151617
0.142689
0.132865
0.1216
0.107708
0.0918992
0.207612
0.175705
0.160981
0.151197
0.142557
0.133583
0.12329
0.110456
0.0953559
-0.127758
-0.093672
-0.0279052
-0.0497373
0.0183952
-0.0115466
0.0480993
0.022246
0.0653434
0.043927
0.0735568
0.0548253
0.0777693
0.0589151
-0.0819132
-0.0735946
-0.0685086
-0.0615217
-0.0505673
-0.0364916
-0.0224471
-0.0103589
-0.00304278
-0.0560889
-0.0563924
-0.0543526
-0.0490412
-0.0398949
-0.0283
-0.0172244
-0.00791543
-0.00322979
-0.0252741
-0.0307268
-0.032094
-0.0299806
-0.0247156
-0.017585
-0.0108673
-0.00517594
-0.00320055
0.00598141
-0.00402293
-0.00970768
-0.0117041
-0.0108542
-0.00832634
-0.00569184
-0.00316502
-0.0031101
0.0269529
0.0145283
0.00609162
0.000978311
-0.00160878
-0.00251408
-0.00267814
-0.00218124
-0.00296157
0.0381306
0.0245571
0.0142889
0.00706688
0.00234057
-0.00047028
-0.00192434
-0.00222151
-0.00283031
0.0410255
0.0257676
0.0137797
0.00513063
-0.000484047
-0.00356787
-0.00470855
-0.00439346
-0.00368099
-0.0328181
-0.0333597
-0.0312385
-0.0272169
-0.0216779
-0.0152906
-0.00887792
-0.00428928
0.00341795
-0.0323939
-0.0331656
-0.0314647
-0.0280417
-0.0230374
-0.0169151
-0.0104349
-0.00550415
0.00251072
-0.0345372
-0.0355338
-0.0340101
-0.0306331
-0.0253931
-0.0187767
-0.0116972
-0.0058369
0.00240855
-0.0389626
-0.0400397
-0.0386402
-0.0351203
-0.0293981
-0.0218214
-0.0135858
-0.00645756
0.00219349
-0.0459318
-0.0466639
-0.045415
-0.0417602
-0.0352556
-0.0262386
-0.0164329
-0.00759181
0.00154574
-0.0555526
-0.0549496
-0.0539957
-0.0502426
-0.0425753
-0.0317371
-0.0199105
-0.00914425
0.000380673
-0.0670657
-0.0630628
-0.0622534
-0.0580765
-0.0493996
-0.0368099
-0.0230776
-0.0106372
-0.00105916
-0.0888704
-0.0716421
-0.0690472
-0.063318
-0.0531229
-0.0391277
-0.0243774
-0.0112892
-0.0022994
)
;

boundaryField
{
    inlet
    {
        type            zeroGradient;
    }
    outlet
    {
        type            totalPressure;
        rho             none;
        psi             none;
        gamma           1;
        p0              uniform 0;
        value           uniform 0;
    }
    fixedWalls
    {
        type            zeroGradient;
    }
    frontAndBack
    {
        type            empty;
    }
}


// ************************************************************************* //
