/*--------------------------------*- C++ -*----------------------------------*\
| =========                 |                                                 |
| \\      /  F ield         | OpenFOAM Extend Project: Open source CFD        |
|  \\    /   O peration     | Version:  1.6-ext                               |
|   \\  /    A nd           | Web:      www.extend-project.de                 |
|    \\/     M anipulation  |                                                 |
\*---------------------------------------------------------------------------*/
FoamFile
{
    version     2.0;
    format      ascii;
    class       surfaceScalarField;
    location    "2.7";
    object      phi;
}
// * * * * * * * * * * * * * * * * * * * * * * * * * * * * * * * * * * * * * //

dimensions      [0 3 -1 0 0 0 0];

internalField   nonuniform List<scalar> 
525
(
0.000160847
3.9153e-05
0.000117168
4.36788e-05
8.17055e-05
3.54627e-05
5.48134e-05
2.68921e-05
3.50034e-05
1.981e-05
2.01237e-05
1.48796e-05
8.70763e-06
1.14161e-05
1.18131e-06
7.52632e-06
1.18131e-06
0.000205004
3.41486e-05
0.000190558
5.81247e-05
0.000162871
6.31505e-05
0.000129792
5.9971e-05
9.59041e-05
5.36976e-05
6.36836e-05
4.71001e-05
3.4502e-05
4.05978e-05
1.10037e-05
3.10246e-05
1.2185e-05
0.00020871
2.54384e-05
0.000208359
5.8476e-05
0.00019477
7.67395e-05
0.000169512
8.52293e-05
0.000135928
8.72811e-05
9.75057e-05
8.55225e-05
5.74427e-05
8.06608e-05
2.08213e-05
6.7646e-05
3.30063e-05
0.000205096
2.0342e-05
0.000208398
5.51741e-05
0.000203084
8.20539e-05
0.000186541
0.000101772
0.000158615
0.000115207
0.000120748
0.00012339
7.56534e-05
0.000125756
2.95307e-05
0.000113769
6.2537e-05
0.000202418
1.79237e-05
0.000205455
5.2137e-05
0.000204034
8.34752e-05
0.000194069
0.000111737
0.0001728
0.000136476
0.000138944
0.000157245
9.28199e-05
0.00017188
3.93288e-05
0.00016726
0.000101866
0.000201296
1.66274e-05
0.000204006
4.94269e-05
0.000205022
8.24595e-05
0.000200449
0.00011631
0.000186293
0.000150632
0.000158915
0.000184624
0.000115173
0.000215621
5.51644e-05
0.000227269
0.00015703
0.000201222
1.54055e-05
0.00020466
4.59889e-05
0.000208493
7.8627e-05
0.000209665
0.000115138
0.000204175
0.000156122
0.000187325
0.000201474
0.000151612
0.000251334
8.69998e-05
0.000291881
0.00024403
0.000201757
1.36487e-05
0.000206988
4.07579e-05
0.000214634
7.09803e-05
0.000222675
0.000107098
0.000227886
0.000150911
0.000225439
0.00020392
0.000203434
0.000273339
0.000138146
0.00035717
0.000382176
0.000202655
1.09936e-05
0.00021043
3.29828e-05
0.000222634
5.87763e-05
0.000238522
9.12099e-05
0.000257786
0.000131646
0.000282134
0.000179573
0.000318874
0.000236599
0.000383636
0.000292407
0.000359586
0.000406226
0.00020392
7.0737e-06
0.00021468
2.22229e-05
0.000231221
4.22356e-05
0.000253352
6.90789e-05
0.000282232
0.000102766
0.000320926
0.000140878
0.000373155
0.00018437
0.00045376
0.000211802
0.000279073
0.000534273
0.000205972
1.1017e-06
0.000220122
8.07245e-06
0.000239978
2.23796e-05
0.000265185
4.3872e-05
0.000296907
7.10445e-05
0.000337492
0.000100293
0.000388808
0.000133055
0.000454573
0.000146037
0.000186
0.000547646
0.000209368
-8.26601e-06
0.000227046
-9.60568e-06
0.000248178
1.24776e-06
0.000272961
1.90885e-05
0.00030289
4.11156e-05
0.000340003
6.31803e-05
0.000386725
8.63325e-05
0.000439063
9.36992e-05
0.000110983
0.000514079
0.000214415
-2.26814e-05
0.000231807
-2.69977e-05
0.000248887
-1.58322e-05
0.000268113
-1.37218e-07
0.000292063
1.71654e-05
0.000322767
3.24764e-05
0.000362426
4.66738e-05
0.000404948
5.11769e-05
5.66054e-05
0.000459326
0.000211547
-3.42284e-05
0.000216156
-3.16062e-05
0.00021911
-1.8787e-05
0.000225742
-6.76855e-06
0.000239734
3.17304e-06
0.000261764
1.04463e-05
0.000292248
1.61899e-05
0.000325678
1.77468e-05
1.84772e-05
0.000363806
0.000165772
0.000134165
0.000115378
0.00010861
0.000111783
0.000122229
0.000138419
0.000156166
0.000174643
0.000253357
0.000152869
5.12259e-05
0.000202131
0.000513658
0.000173483
7.9953e-05
0.000484931
0.000583307
0.000137822
7.30278e-05
0.000590232
0.000562678
8.92239e-05
4.88995e-05
0.000586806
0.000503226
4.5324e-05
2.19977e-05
0.000530128
0.000395561
1.35696e-05
3.92658e-06
0.000413632
0.000188213
0.000192139
0.000217368
-5.16068e-06
-1.00766e-05
0.000256153
-4.1308e-05
2.5236e-06
0.000294958
-8.10838e-05
4.22785e-05
0.000325051
-0.000123507
9.34134e-05
0.000344045
-0.000161237
0.000142244
0.000352514
-0.000186464
0.000177996
0.000352503
-0.000193671
0.000193682
0.000347176
-0.000186072
0.000191399
-0.00015629
0.000164561
0.00046774
1.20311e-05
0.000466516
-4.00839e-05
0.000470667
-8.52353e-05
0.000471963
-0.000124802
0.000466104
-0.000155379
0.000452131
-0.000172492
0.000431802
-0.000173342
0.000407763
-0.000162033
-0.000133501
0.000586167
1.60967e-05
0.000579599
-3.35158e-05
0.000569614
-7.52508e-05
0.000553543
-0.000108731
0.000529961
-0.000131797
0.000499274
-0.000141805
0.000464207
-0.000138275
0.00042746
-0.000125286
-0.000101694
0.00059609
6.81299e-06
0.000593238
-3.06642e-05
0.000579785
-6.17971e-05
0.000556074
-8.50205e-05
0.000523016
-9.87393e-05
0.00048303
-0.000101818
0.000440263
-9.55076e-05
0.000398168
-8.31911e-05
-6.70413e-05
0.000540547
-3.60659e-06
0.000536062
-2.61785e-05
0.000517981
-4.37166e-05
0.000487998
-5.50373e-05
0.00044889
-5.9631e-05
0.000404855
-5.7784e-05
0.000360817
-5.14691e-05
0.000320577
-4.29513e-05
-3.53714e-05
0.000416223
-6.19799e-06
0.000404183
-1.41384e-05
0.000379712
-1.92454e-05
0.000346065
-2.13899e-05
0.000307386
-2.09524e-05
0.000268259
-1.86566e-05
0.000232451
-1.56616e-05
0.000202312
-1.28118e-05
-1.1868e-05
0.000185941
0.000171803
0.000152557
0.000131168
0.000110215
9.15586e-05
7.5897e-05
6.30852e-05
-5.07711e-06
5.07711e-06
-1.38511e-05
8.77396e-06
-2.09502e-05
7.0991e-06
-2.38515e-05
2.90129e-06
-2.19449e-05
-1.90656e-06
-1.58174e-05
-6.12753e-06
-6.71552e-06
-9.10186e-06
4.29061e-06
-1.10061e-05
-1.162e-05
-9.59254e-06
1.46697e-05
-2.33555e-05
2.25369e-05
-3.27945e-05
1.65381e-05
-3.41396e-05
4.24641e-06
-2.67999e-05
-9.24626e-06
-1.23756e-05
-2.05519e-05
6.3087e-06
-2.77861e-05
2.64504e-05
-3.11479e-05
-3.10365e-05
-1.14392e-05
2.61089e-05
-2.67208e-05
3.78185e-05
-3.59321e-05
2.57494e-05
-3.48218e-05
3.13608e-06
-2.29671e-05
-2.1101e-05
-2.52519e-06
-4.09937e-05
2.25694e-05
-5.28807e-05
4.87147e-05
-5.72931e-05
-5.52734e-05
-1.26197e-05
3.87286e-05
-2.81222e-05
5.3321e-05
-3.61469e-05
3.37741e-05
-3.23391e-05
-6.71735e-07
-1.6829e-05
-3.66111e-05
7.9893e-06
-6.5812e-05
3.80002e-05
-8.28916e-05
6.88524e-05
-8.81453e-05
-8.28242e-05
-1.26378e-05
5.13664e-05
-2.51413e-05
6.58245e-05
-2.89455e-05
3.75783e-05
-2.0572e-05
-9.04527e-06
-6.02351e-07
-5.65807e-05
2.74925e-05
-9.39069e-05
6.04294e-05
-0.000115829
9.38039e-05
-0.00012152
-0.000111591
-8.93357e-06
6.03e-05
-1.12372e-05
6.81281e-05
-4.29093e-06
3.06321e-05
1.23726e-05
-2.57088e-05
3.72056e-05
-8.14138e-05
6.77936e-05
-0.000124495
0.000100585
-0.00014862
0.000132647
-0.000153582
-0.000138118
4.78473e-06
5.55152e-05
2.35913e-05
4.93215e-05
5.00172e-05
4.20618e-06
7.85276e-05
-5.42192e-05
0.000108363
-0.000111249
0.000138119
-0.000154251
0.000165984
-0.000176485
0.000191237
-0.000178835
-0.000157521
4.54387e-05
9.72838e-05
0.000143768
0.000182963
0.000213957
0.000237702
0.000254899
0.000267463
)
;

boundaryField
{
    inlet
    {
        type            calculated;
        value           uniform -0.0002;
    }
    outlet
    {
        type            calculated;
        value           nonuniform List<scalar> 
15
(
1.59106e-05
4.5867e-05
7.29515e-05
9.64032e-05
0.000122571
0.000159174
0.00021064
0.000274503
0.000338904
0.000384975
0.000395653
0.000363515
0.000288907
0.000178808
5.12172e-05
)
;
    }
    fixedWalls
    {
        type            calculated;
        value           uniform 0;
    }
    frontAndBack
    {
        type            empty;
    }
}


// ************************************************************************* //
