/*--------------------------------*- C++ -*----------------------------------*\
| =========                 |                                                 |
| \\      /  F ield         | OpenFOAM Extend Project: Open source CFD        |
|  \\    /   O peration     | Version:  1.6-ext                               |
|   \\  /    A nd           | Web:      www.extend-project.de                 |
|    \\/     M anipulation  |                                                 |
\*---------------------------------------------------------------------------*/
FoamFile
{
    version     2.0;
    format      ascii;
    class       volVectorField;
    location    "2.7";
    object      U;
}
// * * * * * * * * * * * * * * * * * * * * * * * * * * * * * * * * * * * * * //

dimensions      [0 1 -1 0 0 0 0];

internalField   nonuniform List<vector> 
284
(
(0.163775 0.0266014 0)
(0.141841 0.0268058 0)
(0.0989305 0.0192015 0)
(0.0666947 0.0121289 0)
(0.0438478 0.00716653 0)
(0.0268674 0.00426404 0)
(0.0137602 0.00259617 0)
(0.0033613 0.00102352 0)
(-0.000611702 -0.00116773 0)
(0.200598 0.0433532 0)
(0.202162 0.0575585 0)
(0.179715 0.0532176 0)
(0.147316 0.0439803 0)
(0.112911 0.03469 0)
(0.0794735 0.0273973 0)
(0.0482109 0.021787 0)
(0.019881 0.0151909 0)
(0.00332841 0.00399722 0)
(0.203094 0.02905 0)
(0.2111 0.0594698 0)
(0.204935 0.0720154 0)
(0.184883 0.0745034 0)
(0.154619 0.0714276 0)
(0.117852 0.0660163 0)
(0.0774717 0.0592086 0)
(0.0358664 0.0472215 0)
(0.00765149 0.0209313 0)
(0.201522 0.0223382 0)
(0.207687 0.0567736 0)
(0.208183 0.0804225 0)
(0.197879 0.0951102 0)
(0.175576 0.102698 0)
(0.14227 0.105205 0)
(0.0996041 0.102934 0)
(0.049638 0.0893947 0)
(0.0118612 0.0463206 0)
(0.200562 0.018892 0)
(0.204077 0.0535048 0)
(0.206185 0.0832723 0)
(0.201657 0.107914 0)
(0.186725 0.127242 0)
(0.15949 0.141409 0)
(0.118865 0.149048 0)
(0.0641562 0.139453 0)
(0.0173673 0.0805643 0)
(0.200232 0.0171984 0)
(0.202464 0.0507715 0)
(0.205217 0.0834141 0)
(0.204654 0.115112 0)
(0.196435 0.145146 0)
(0.176801 0.172616 0)
(0.141728 0.194932 0)
(0.0854532 0.196992 0)
(0.0274129 0.126299 0)
(0.200215 0.0160324 0)
(0.202538 0.0479065 0)
(0.206741 0.0811809 0)
(0.210304 0.117037 0)
(0.209418 0.155451 0)
(0.199944 0.195691 0)
(0.176436 0.235097 0)
(0.123048 0.25493 0)
(0.0480754 0.198046 0)
(0.200342 0.014606 0)
(0.203701 0.0437586 0)
(0.21049 0.0756587 0)
(0.219175 0.112691 0)
(0.226957 0.156166 0)
(0.23054 0.207159 0)
(0.22264 0.271223 0)
(0.196329 0.340338 0)
(0.0600843 0.287466 0)
(0.200545 0.0124557 0)
(0.20554 0.0373924 0)
(0.215745 0.0658407 0)
(0.230425 0.100723 0)
(0.248415 0.143836 0)
(0.272076 0.196107 0)
(0.29922 0.262987 0)
(0.357103 0.345641 0)
(0.398745 0.428194 0)
(0.200839 0.00925794 0)
(0.20797 0.0282537 0)
(0.221803 0.0514597 0)
(0.241581 0.0814006 0)
(0.266817 0.118991 0)
(0.301583 0.163023 0)
(0.343451 0.215061 0)
(0.410737 0.256568 0)
(0.491626 0.335178 0)
(0.201388 0.00463556 0)
(0.211511 0.0159661 0)
(0.228828 0.0330732 0)
(0.251668 0.0570873 0)
(0.279789 0.0874719 0)
(0.316078 0.121068 0)
(0.360956 0.159074 0)
(0.41815 0.174807 0)
(0.497998 0.225973 0)
(0.202452 -0.00269978 0)
(0.216802 -8.7039e-05 0)
(0.236686 0.0117437 0)
(0.259754 0.0308845 0)
(0.286847 0.0551306 0)
(0.319917 0.080426 0)
(0.362019 0.108014 0)
(0.409907 0.116499 0)
(0.473568 0.140837 0)
(0.204214 -0.0139721 0)
(0.222525 -0.0186685 0)
(0.240097 -0.00910168 0)
(0.257762 0.00739498 0)
(0.278991 0.0268058 0)
(0.305744 0.0455072 0)
(0.341455 0.0640231 0)
(0.381802 0.0701016 0)
(0.430458 0.0788612 0)
(0.201753 -0.0353101 0)
(0.214879 -0.0372125 0)
(0.217692 -0.0234764 0)
(0.221177 -0.00777299 0)
(0.231188 0.00660288 0)
(0.248961 0.0182555 0)
(0.275894 0.0278789 0)
(0.307774 0.0307848 0)
(0.344239 0.0324507 0)
(0.164656 -0.0249149 0)
(0.151095 -0.0224084 0)
(0.123543 -0.0128017 0)
(0.109827 -0.00507541 0)
(0.108617 0.000329828 0)
(0.115827 0.00382251 0)
(0.129685 0.00605795 0)
(0.146881 0.00628453 0)
(0.165613 0.00582151 0)
(0.357318 0.164707 0)
(0.19258 0.0406321 0)
(0.544795 0.171975 0)
(0.502984 0.0719791 0)
(0.574849 0.160259 0)
(0.595538 0.0869637 0)
(0.541755 0.112169 0)
(0.580893 0.0631053 0)
(0.482657 0.0637706 0)
(0.520437 0.033574 0)
(0.380995 0.0243064 0)
(0.407516 0.00875427 0)
(0.182562 0.00286718 0)
(0.191951 -0.00154807 0)
(0.201717 -0.0121183 0)
(0.232188 -0.034056 0)
(0.275481 -0.0709405 0)
(0.313224 -0.115363 0)
(0.33887 -0.157249 0)
(0.352634 -0.187103 0)
(0.354215 -0.198307 0)
(0.353003 -0.193372 0)
(0.337781 -0.164425 0)
(0.474935 0.00361897 0)
(0.464273 -0.0445813 0)
(0.467843 -0.0877223 0)
(0.473725 -0.128262 0)
(0.472575 -0.161967 0)
(0.462898 -0.183003 0)
(0.442513 -0.186997 0)
(0.423476 -0.177622 0)
(0.386497 -0.147887 0)
(0.592433 0.0218641 0)
(0.584165 -0.0323294 0)
(0.575863 -0.0782453 0)
(0.564291 -0.116519 0)
(0.544792 -0.144494 0)
(0.517676 -0.158769 0)
(0.48141 -0.157727 0)
(0.449409 -0.145582 0)
(0.398902 -0.119023 0)
(0.596302 0.0129117 0)
(0.597923 -0.0313705 0)
(0.589548 -0.0685519 0)
(0.5713 -0.0976581 0)
(0.54243 -0.116548 0)
(0.505346 -0.123204 0)
(0.460886 -0.118038 0)
(0.421874 -0.104808 0)
(0.367693 -0.0843784 0)
(0.539592 0.000422194 0)
(0.542313 -0.0296591 0)
(0.530712 -0.0541902 0)
(0.506301 -0.071541 0)
(0.470749 -0.0803703 0)
(0.428069 -0.0802173 0)
(0.381734 -0.0729713 0)
(0.3418 -0.0616293 0)
(0.293231 -0.0496297 0)
(0.418504 -0.00810482 0)
(0.413755 -0.0223947 0)
(0.39502 -0.032352 0)
(0.365099 -0.0373942 0)
(0.327715 -0.0377059 0)
(0.28769 -0.0342406 0)
(0.249104 -0.0289456 0)
(0.217244 -0.0233981 0)
(0.18254 -0.0203831 0)
(0.190902 -0.00546773 0)
(0.180403 -0.0079207 0)
(0.163171 -0.0087251 0)
(0.142264 -0.00820449 0)
(0.120562 -0.00692318 0)
(0.10042 -0.00543671 0)
(0.0831604 -0.00425245 0)
(0.0694324 -0.00359684 0)
(0.0536129 -0.00415622 0)
(-0.00186843 0.00187317 0)
(-0.00905967 0.00368172 0)
(-0.0181694 0.00328918 0)
(-0.0233978 0.00183222 0)
(-0.0238091 3.47605e-05 0)
(-0.0195431 -0.00165059 0)
(-0.0112927 -0.00298251 0)
(-0.00318773 -0.0040746 0)
(0.013661 -0.0046199 0)
(-0.00394446 0.00902237 0)
(-0.0162874 0.014775 0)
(-0.0298324 0.0116059 0)
(-0.0355459 0.00425604 0)
(-0.0322364 -0.00402281 0)
(-0.0207853 -0.0111491 0)
(-0.00322518 -0.0159876 0)
(0.0146972 -0.0187747 0)
(0.0423706 -0.0194021 0)
(-0.00487943 0.0201192 0)
(-0.0191799 0.0299858 0)
(-0.0336966 0.0213641 0)
(-0.0380362 0.00433056 0)
(-0.0310944 -0.0140416 0)
(-0.0142795 -0.0293315 0)
(0.00950163 -0.0387599 0)
(0.0340153 -0.0427096 0)
(0.0686792 -0.0419248 0)
(-0.00561739 0.0323733 0)
(-0.0208665 0.0457559 0)
(-0.0349762 0.0303013 0)
(-0.0372521 0.00204108 0)
(-0.0270305 -0.0278409 0)
(-0.00588414 -0.0522998 0)
(0.0225979 -0.0667814 0)
(0.0519216 -0.0716777 0)
(0.0916146 -0.0682875 0)
(-0.00611045 0.0452868 0)
(-0.0202395 0.0605583 0)
(-0.0302929 0.0370193 0)
(-0.0278157 -0.00353571 0)
(-0.0131313 -0.045836 0)
(0.0120579 -0.0794234 0)
(0.0438414 -0.0991326 0)
(0.076063 -0.104644 0)
(0.117506 -0.0972298 0)
(-0.00517981 0.0567994 0)
(-0.0127352 0.0696343 0)
(-0.0107071 0.0367912 0)
(0.0017307 -0.01553 0)
(0.0235553 -0.0686345 0)
(0.0524269 -0.109841 0)
(0.0846981 -0.133408 0)
(0.116477 -0.13878 0)
(0.154166 -0.126137 0)
(0.00116413 0.0675876 0)
(0.00960461 0.0674446 0)
(0.0352717 0.0239576 0)
(0.0638806 -0.0371374 0)
(0.0943188 -0.09631 0)
(0.124876 -0.141138 0)
(0.153451 -0.165244 0)
(0.179666 -0.169077 0)
(0.206205 -0.150516 0)
(0.0328041 0.034284 0)
(0.0656234 0.0277474 0)
(0.12133 -0.0164413 0)
(0.165749 -0.0741057 0)
(0.201688 -0.128922 0)
(0.229315 -0.169467 0)
(0.248317 -0.189066 0)
(0.263309 -0.189321 0)
(0.271278 -0.164822 0)
)
;

boundaryField
{
    inlet
    {
        type            fixedValue;
        value           uniform (0.2 0 0);
    }
    outlet
    {
        type            zeroGradient;
    }
    fixedWalls
    {
        type            fixedValue;
        value           uniform (0 0 0);
    }
    frontAndBack
    {
        type            empty;
    }
}


// ************************************************************************* //
