/*--------------------------------*- C++ -*----------------------------------*\
| =========                 |                                                 |
| \\      /  F ield         | OpenFOAM Extend Project: Open source CFD        |
|  \\    /   O peration     | Version:  1.6-ext                               |
|   \\  /    A nd           | Web:      www.extend-project.de                 |
|    \\/     M anipulation  |                                                 |
\*---------------------------------------------------------------------------*/
FoamFile
{
    version     2.0;
    format      ascii;
    class       volSymmTensorField;
    location    "0.05";
    object      DSigma;
}
// * * * * * * * * * * * * * * * * * * * * * * * * * * * * * * * * * * * * * //

dimensions      [1 -1 -2 0 0 0 0];

internalField   nonuniform List<symmTensor> 
328
(
(-0.275934 -0.0499016 1.16047e-23 -0.103159 -6.71414e-21 -0.151637)
(-0.231676 -0.0213133 5.27317e-24 -0.131324 7.04498e-24 -0.1452)
(-0.224833 0.0215483 8.52904e-24 -0.128302 -4.5481e-24 -0.141254)
(-0.247752 0.0463025 -1.09763e-22 -0.0930959 -4.27635e-20 -0.136339)
(-0.258447 -0.0346912 -9.77028e-22 -0.0666307 5.64108e-19 -0.130031)
(-0.232191 -0.0182814 1.53842e-23 -0.0942269 1.73657e-23 -0.130567)
(-0.225405 0.0175347 -2.21782e-23 -0.0932846 2.04465e-23 -0.127476)
(-0.231565 0.0321516 1.06868e-21 -0.0597503 5.93834e-19 -0.116526)
(-0.253868 -0.0220388 1.52614e-21 -0.0451343 -1.3665e-18 -0.119601)
(-0.244123 -0.0146179 -3.54203e-25 -0.0729231 -5.40604e-27 -0.126818)
(-0.236833 0.0131908 -5.61814e-23 -0.0729037 2.15092e-23 -0.123895)
(-0.227265 0.0202359 -2.20202e-22 -0.0399941 2.67375e-19 -0.106904)
(-0.248009 -0.0129328 4.97734e-22 -0.0302666 -2.6713e-19 -0.11131)
(-0.247157 -0.0105826 0 -0.0531646 0 -0.120129)
(-0.239933 0.00874027 5.27172e-23 -0.0538846 -2.00515e-23 -0.117527)
(-0.222013 0.0115911 3.03324e-22 -0.0262826 -6.16909e-19 -0.0993181)
(-0.245556 -0.00690842 -4.34367e-22 -0.0216646 7.72734e-19 -0.106888)
(-0.250721 -0.00695711 0 -0.0398242 0 -0.116218)
(-0.243536 0.00489948 0 -0.0409076 0 -0.113778)
(-0.220028 0.00583359 -6.88506e-22 -0.0183159 -6.44002e-19 -0.0953377)
(-0.244045 -0.00309776 6.59923e-22 -0.0165851 -1.2305e-18 -0.104252)
(-0.25152 -0.00402121 0 -0.0295269 0 -0.112419)
(-0.244516 0.00185905 1.19732e-22 -0.0308404 -2.48031e-23 -0.110142)
(-0.21905 0.00217021 1.92293e-22 -0.0136065 4.53577e-19 -0.0930625)
(-0.24379 -0.000886465 -2.83942e-22 -0.0139763 1.4431e-19 -0.103106)
(-0.251661 -0.00191534 7.23724e-23 -0.0225493 1.7764e-23 -0.109684)
(-0.244849 -0.000281877 -2.51335e-22 -0.0239686 4.6015e-23 -0.107527)
(-0.219335 3.47429e-05 -3.13573e-22 -0.0111993 -1.39274e-18 -0.0922137)
(-0.244131 0.000244672 1.76379e-22 -0.0127921 2.49073e-21 -0.102769)
(-0.250841 -0.000573477 -6.7481e-23 -0.017756 -1.65634e-23 -0.107439)
(-0.244253 -0.00162255 1.12116e-22 -0.0192245 -1.54725e-23 -0.105391)
(-0.220257 -0.00105915 1.42142e-22 -0.0101344 8.87342e-19 -0.0921565)
(-0.244871 0.000661043 -6.79314e-23 -0.0124608 6.10876e-21 -0.102933)
(-0.249682 0.000130086 0 -0.0147537 0 -0.105774)
(-0.243321 -0.00230538 1.764e-22 -0.016231 -1.66167e-23 -0.103821)
(-0.221613 -0.00145786 -2.72731e-23 -0.00988272 -3.10494e-19 -0.0925982)
(-0.245728 0.000641046 -5.08495e-23 -0.0125652 1.47818e-18 -0.103317)
(-0.248305 0.000366112 -5.93708e-24 -0.0129704 -1.88911e-24 -0.10451)
(-0.242176 -0.00251162 -3.46375e-22 -0.0144352 2.59489e-23 -0.102644)
(-0.223128 -0.00142861 -1.84818e-22 -0.0100534 2.67926e-19 -0.0932727)
(-0.246546 0.000379541 -3.97109e-23 -0.0128585 -1.26686e-18 -0.103762)
(-0.246939 0.000295594 -2.62989e-23 -0.0120398 -6.05968e-24 -0.103592)
(-0.241042 -0.00240719 7.57457e-23 -0.0134777 -7.5592e-24 -0.101808)
(-0.224647 -0.00116059 1.76781e-22 -0.0104123 6.74293e-21 -0.0940238)
(-0.247204 1.32944e-05 -5.84292e-23 -0.0131838 -1.05418e-18 -0.104155)
(-0.245671 5.75005e-05 1.25517e-23 -0.0116338 2.19771e-24 -0.102922)
(-0.240007 -0.0021336 9.71482e-23 -0.0130352 -4.06505e-24 -0.101217)
(-0.226051 -0.000787822 5.14784e-24 -0.0108084 1.39181e-19 -0.0947437)
(-0.247641 -0.000369766 1.8233e-22 -0.0134543 1.39811e-18 -0.104438)
(-0.244563 -0.000244797 0 -0.0115243 0 -0.102435)
(-0.239136 -0.00179525 1.36514e-23 -0.0128819 -1.31739e-24 -0.100807)
(-0.227278 -0.000397167 7.06414e-23 -0.0111573 -8.18893e-19 -0.0953741)
(-0.247828 -0.000717792 -1.82211e-22 -0.013627 1.22495e-19 -0.104582)
(-0.243622 -0.000542363 0 -0.0115458 0 -0.102067)
(-0.238435 -0.0014615 1.24046e-22 -0.0128536 2.026e-24 -0.100515)
(-0.228302 -4.02042e-05 -7.27002e-23 -0.0114164 8.60266e-19 -0.0958873)
(-0.247765 -0.00100625 2.23216e-22 -0.0136889 3.64228e-19 -0.104582)
(-0.242825 -0.000797017 1.97962e-22 -0.0115955 3.57277e-23 -0.101768)
(-0.237886 -0.00117066 -1.1566e-22 -0.0128482 -1.88906e-24 -0.100294)
(-0.229123 0.000258428 -3.64573e-23 -0.0115727 -8.36812e-19 -0.0962782)
(-0.247464 -0.00122906 -1.70962e-22 -0.0136455 -5.56596e-19 -0.104444)
(-0.242131 -0.000993672 -1.89648e-22 -0.0116155 -2.6402e-23 -0.101498)
(-0.237447 -0.000937883 -7.00145e-23 -0.0128085 1.27514e-25 -0.100102)
(-0.229755 0.000492431 4.87726e-24 -0.0116313 7.30426e-19 -0.0965544)
(-0.246941 -0.00139145 -1.07722e-22 -0.0135119 -3.6631e-19 -0.104181)
(-0.241486 -0.00113268 -1.94576e-24 -0.0115816 -7.46254e-24 -0.101227)
(-0.237068 -0.000762893 -8.14317e-23 -0.0127103 -9.99257e-24 -0.0999114)
(-0.230215 0.000666767 5.33446e-23 -0.0116072 -1.84833e-19 -0.0967289)
(-0.246208 -0.00150408 1.51865e-22 -0.013307 1.68413e-19 -0.103806)
(-0.240833 -0.00122275 6.97019e-23 -0.0114903 8.15374e-24 -0.10093)
(-0.236693 -0.000637096 6.07046e-23 -0.0125505 -9.53928e-26 -0.0996975)
(-0.230518 0.000791847 2.20173e-22 -0.0115191 2.59976e-19 -0.0968148)
(-0.245269 -0.00157902 -3.00122e-22 -0.0130498 -1.52239e-20 -0.103327)
(-0.240118 -0.00127578 1.47529e-22 -0.0113499 3.09531e-23 -0.100587)
(-0.236268 -0.000548793 0 -0.0123375 0 -0.0994424)
(-0.230669 0.000879481 1.21301e-22 -0.0113859 -5.99976e-19 -0.0968221)
(-0.244112 -0.00162634 1.45759e-22 -0.0127548 -6.35808e-20 -0.102747)
(-0.239285 -0.00130304 -1.51424e-22 -0.0111719 -3.18467e-23 -0.100183)
(-0.235739 -0.000486899 1.52523e-22 -0.0120827 1.55486e-23 -0.0991288)
(-0.230661 0.00093949 -2.39563e-22 -0.0112223 4.55937e-19 -0.0967532)
(-0.242721 -0.00165645 -1.00982e-23 -0.0124392 -1.0985e-19 -0.102064)
(-0.238282 -0.00131459 0 -0.0109704 0 -0.0997011)
(-0.235056 -0.000441587 -1.42212e-22 -0.0118004 -1.44975e-23 -0.0987424)
(-0.230478 0.000982061 2.74861e-22 -0.0110457 -4.27339e-19 -0.0966094)
(-0.241048 -0.00166982 2.2047e-22 -0.0120983 6.58546e-19 -0.101259)
(-0.237053 -0.00131596 -1.58268e-22 -0.0107489 -3.39731e-23 -0.0991208)
(-0.234162 -0.000406515 1.68485e-22 -0.0114943 2.7195e-23 -0.0982626)
(-0.230079 0.00100808 -2.3868e-22 -0.0108531 5.75312e-19 -0.0963728)
(-0.23898 -0.0016855 -3.53774e-22 -0.0117442 -4.74675e-19 -0.10029)
(-0.23548 -0.00131064 -3.11902e-22 -0.0105085 -6.05812e-23 -0.0983955)
(-0.232955 -0.000369635 -5.63939e-22 -0.0111606 -6.5513e-23 -0.0976461)
(-0.229395 0.00104053 -1.85409e-22 -0.0106581 -5.07206e-19 -0.0960214)
(-0.236507 -0.00170591 1.25048e-23 -0.01134 1.27209e-19 -0.0991388)
(-0.233541 -0.00131212 6.34022e-22 -0.0102422 1.16149e-22 -0.0975133)
(-0.231399 -0.000343827 -3.2212e-22 -0.0107964 -5.55679e-23 -0.0968782)
(-0.228375 0.00106937 -6.06267e-24 -0.010421 2.91659e-19 -0.0955185)
(-0.233764 -0.00170997 -3.49154e-22 -0.0109626 1.52864e-19 -0.0978906)
(-0.231322 -0.00130893 -3.67228e-22 -0.00999305 -7.64423e-23 -0.0965259)
(-0.229558 -0.000323621 -3.41604e-22 -0.010452 -4.61434e-23 -0.0960039)
(-0.22707 0.00108147 5.23335e-22 -0.0102127 3.34197e-19 -0.0949132)
(-0.230724 -0.00170753 -3.76852e-22 -0.0105993 7.85646e-20 -0.0965293)
(-0.228802 -0.00130209 1.14636e-21 -0.00975753 2.50446e-22 -0.095424)
(-0.22741 -0.000303128 0 -0.0101235 0 -0.0950136)
(-0.225447 0.00108875 -3.87868e-23 -0.0100178 -5.35872e-19 -0.094186)
(-0.227384 -0.00169876 -5.41254e-23 -0.0102586 -5.48526e-19 -0.0950572)
(-0.225974 -0.00129024 -3.94476e-22 -0.00954143 -8.4712e-23 -0.0942063)
(-0.224947 -0.000280727 -4.13184e-22 -0.00981664 -7.60285e-23 -0.0939055)
(-0.223499 0.00109245 3.02686e-23 -0.00984381 4.23468e-19 -0.0933372)
(-0.223735 -0.00168582 -4.25117e-22 -0.00993863 3.12891e-19 -0.0934696)
(-0.222825 -0.00127303 -4.3063e-22 -0.00934327 -8.88769e-23 -0.0928674)
(-0.222154 -0.000254377 1.28345e-21 -0.0095303 2.49682e-22 -0.0926737)
(-0.221208 0.00109564 -1.7649e-23 -0.00968747 -2.52126e-19 -0.0923582)
(-0.219774 -0.00166922 8.98297e-22 -0.00963947 -3.11643e-19 -0.0917653)
(-0.219348 -0.00125008 -9.31028e-22 -0.00916255 -2.07776e-22 -0.0914043)
(-0.219021 -0.000223229 4.83037e-22 -0.00926441 1.06378e-22 -0.0913144)
(-0.218562 0.00109932 -2.35851e-22 -0.00954727 -2.42133e-19 -0.0912435)
(-0.215497 -0.00164948 -4.62026e-22 -0.00936065 3.08048e-19 -0.0899431)
(-0.215537 -0.00122153 9.64975e-22 -0.00899789 2.32957e-22 -0.0898138)
(-0.21554 -0.000187076 -9.57129e-22 -0.00901807 -1.96047e-22 -0.0898234)
(-0.215547 0.00110405 5.06178e-22 -0.00942107 3.64809e-19 -0.0899872)
(-0.210905 -0.00162712 4.9997e-22 -0.00910163 -1.79295e-19 -0.0880026)
(-0.211386 -0.00118805 -5.16312e-22 -0.00884804 -1.31112e-22 -0.0880937)
(-0.211704 -0.000146425 2.41619e-22 -0.00879043 5.30568e-23 -0.0881978)
(-0.212154 0.00110988 -4.84617e-22 -0.00930674 -1.13572e-19 -0.0885843)
(-0.205997 -0.00160277 5.35673e-22 -0.00886221 -6.24607e-20 -0.0859438)
(-0.206893 -0.00115078 -5.41188e-22 -0.00871199 -1.39398e-22 -0.0862422)
(-0.207508 -0.000102339 0 -0.00858087 0 -0.0864354)
(-0.208375 0.00111659 -1.05386e-23 -0.00920274 -1.77524e-19 -0.0870309)
(-0.200775 -0.00157721 5.93898e-22 -0.00864193 3.35377e-19 -0.0837668)
(-0.202057 -0.00111125 -8.52314e-22 -0.00858885 -2.1953e-22 -0.0842585)
(-0.202948 -5.62683e-05 2.82779e-22 -0.00838874 6.43372e-23 -0.0845346)
(-0.204204 0.00112376 2.08025e-23 -0.00910774 3.73081e-19 -0.0853248)
(-0.19524 -0.00155128 -2.97188e-22 -0.00844031 -3.22614e-20 -0.081472)
(-0.196879 -0.00107113 8.79957e-22 -0.00847798 2.25769e-22 -0.0821426)
(-0.198025 -9.86778e-06 -2.82779e-22 -0.0082135 -6.43371e-23 -0.0824954)
(-0.199642 0.00113088 -1.68759e-23 -0.00902087 -3.2538e-19 -0.0834652)
(-0.189394 -0.00152579 3.14886e-22 -0.00825665 1.14027e-19 -0.0790601)
(-0.191359 -0.00103213 -9.06995e-22 -0.00837884 -2.32024e-22 -0.0798952)
(-0.192742 3.52077e-05 6.08427e-22 -0.00805459 1.47098e-22 -0.0803186)
(-0.194691 0.00113746 3.0013e-22 -0.00894158 1.36274e-19 -0.0814532)
(-0.18324 -0.00150147 -3.2862e-22 -0.00809006 -1.11238e-19 -0.0765319)
(-0.185504 -0.000995727 0 -0.00829101 0 -0.077518)
(-0.187104 7.74889e-05 -9.32842e-22 -0.00791143 -2.20738e-22 -0.078006)
(-0.189359 0.00114305 3.1257e-22 -0.00886963 6.90633e-20 -0.0792915)
(-0.176783 -0.00147893 -3.45329e-22 -0.0079395 -1.52982e-19 -0.073889)
(-0.17932 -0.00096305 -3.24537e-22 -0.00821416 -8.22181e-23 -0.0750136)
(-0.181119 0.000115859 6.34353e-22 -0.00778342 1.53604e-22 -0.0755609)
(-0.183656 0.00114735 -3.17412e-24 -0.00880504 -1.65675e-19 -0.0769844)
(-0.17003 -0.00145854 -7.49776e-25 -0.00780377 1.44778e-19 -0.0711334)
(-0.172816 -0.000934743 -3.41874e-22 -0.00814799 -9.09823e-23 -0.0723857)
(-0.174799 0.000149678 3.27986e-22 -0.00766989 8.07169e-23 -0.0729876)
(-0.177597 0.00115025 -3.1485e-22 -0.00874796 2.63127e-19 -0.0745379)
(-0.162989 -0.00144047 1.04085e-21 -0.00768163 -5.8801e-20 -0.0682681)
(-0.166005 -0.000910889 3.03356e-26 -0.0080922 -1.5187e-26 -0.0696389)
(-0.168158 0.000178856 3.45194e-22 -0.00757017 8.95384e-23 -0.0702914)
(-0.171199 0.00115184 1.66616e-22 -0.0086986 -7.03045e-20 -0.0719591)
(-0.155672 -0.00142465 3.67484e-22 -0.00757184 1.72286e-19 -0.0652975)
(-0.158902 -0.000891006 -7.09628e-22 -0.00804645 -1.933e-22 -0.0667793)
(-0.161214 0.000203867 0 -0.00748355 0 -0.067479)
(-0.164483 0.00115246 -6.19848e-24 -0.00865716 -2.5015e-19 -0.0692561)
(-0.148095 -0.00141079 5.50923e-22 -0.00747326 -9.34221e-20 -0.0622272)
(-0.151524 -0.000874101 -3.6713e-22 -0.00801035 -9.83928e-23 -0.0638138)
(-0.153986 0.000225688 3.62499e-22 -0.00740934 9.33099e-23 -0.0645581)
(-0.157471 0.00115263 -1.77604e-22 -0.00862367 1.40275e-19 -0.066438)
(-0.140277 -0.00139845 3.75613e-22 -0.00738491 -8.95534e-20 -0.0590647)
(-0.143893 -0.000858787 -5.66382e-22 -0.00798338 -1.55737e-22 -0.0607507)
(-0.146496 0.000245692 1.86497e-22 -0.00734682 4.96491e-23 -0.0615371)
(-0.150188 0.00115303 -1.86265e-22 -0.00859795 -4.21866e-21 -0.0635143)
(-0.132241 -0.0013871 -1.90154e-22 -0.00730603 6.45787e-21 -0.055819)
(-0.136034 -0.00084345 3.7996e-22 -0.00796493 1.02787e-22 -0.0575995)
(-0.138769 0.000265472 -2.8526e-22 -0.00729531 -7.5336e-23 -0.0584259)
(-0.142658 0.00115442 2.80842e-22 -0.00857957 5.09317e-21 -0.0604952)
(-0.124017 -0.00137617 -2.98361e-22 -0.00723604 -1.09068e-19 -0.0525011)
(-0.127973 -0.000826456 -1.94605e-22 -0.00795426 -5.24357e-23 -0.0543709)
(-0.130833 0.000286642 1.94606e-22 -0.00725413 5.24359e-23 -0.055235)
(-0.134909 0.00115756 6.70173e-25 -0.00856777 1.12882e-19 -0.0573908)
(-0.115634 -0.00136518 4.53299e-24 -0.00717462 8.51616e-20 -0.0491236)
(-0.119741 -0.000806358 1.13339e-24 -0.00795052 8.21573e-25 -0.0510768)
(-0.122717 0.00031063 1.97643e-22 -0.00722259 5.25346e-23 -0.0519758)
(-0.126969 0.00116315 -1.10874e-22 -0.00856151 -1.1305e-19 -0.054212)
(-0.10713 -0.00135379 -3.53722e-22 -0.0071216 2.48919e-20 -0.0457007)
(-0.111372 -0.000782086 4.47356e-25 -0.00795274 1.01961e-24 -0.0477299)
(-0.114452 0.000338486 -5.12751e-23 -0.00720002 -1.39871e-23 -0.0486607)
(-0.118865 0.00117169 -1.50553e-22 -0.0085595 -1.17937e-19 -0.0509697)
(-0.0985425 -0.00134186 4.61678e-23 -0.00707689 -1.98558e-19 -0.0422477)
(-0.1029 -0.000753093 1.53129e-22 -0.00795985 4.21081e-23 -0.0443441)
(-0.106071 0.000370739 4.3814e-23 -0.0071857 1.1521e-23 -0.0453028)
(-0.110629 0.00118349 1.05937e-22 -0.00856027 1.66984e-19 -0.0476756)
(-0.0899122 -0.0013295 2.13187e-22 -0.00704041 2.02072e-19 -0.038781)
(-0.0943641 -0.000719433 5.19544e-23 -0.00797074 1.41802e-23 -0.040934)
(-0.0976114 0.00040732 -5.19544e-23 -0.00717887 -1.41802e-23 -0.0419161)
(-0.102292 0.00119861 -5.13715e-23 -0.00856227 -4.93991e-20 -0.0443419)
(-0.0812814 -0.00131702 1.45087e-24 -0.00701199 8.4037e-20 -0.0353174)
(-0.0858026 -0.000681756 0 -0.00798426 0 -0.0375147)
(-0.0891092 0.000447564 6.60462e-24 -0.0071787 1.78427e-24 -0.0385151)
(-0.0938901 0.00121684 2.53587e-23 -0.00856396 1.76539e-20 -0.0409816)
(-0.072693 -0.00130497 -1.0805e-22 -0.00699129 -8.16616e-20 -0.0318737)
(-0.0772563 -0.000641232 7.99353e-23 -0.00799922 2.21414e-23 -0.0341022)
(-0.0806037 0.000490292 7.28553e-23 -0.00718426 1.9313e-23 -0.0351152)
(-0.0854585 0.00123776 -7.82625e-23 -0.00856391 -7.97724e-20 -0.037609)
(-0.0641896 -0.001294 5.44978e-23 -0.00697768 8.70897e-20 -0.0284669)
(-0.0687668 -0.000599397 -2.84866e-25 -0.00801447 -1.90581e-25 -0.0307125)
(-0.0721356 0.000533961 1.83533e-25 -0.00719453 -8.87349e-26 -0.0317321)
(-0.0770367 0.00126079 -2.62151e-23 -0.00856088 -2.97354e-20 -0.034239)
(-0.0558132 -0.00128485 6.58522e-23 -0.00697027 -2.83569e-19 -0.0251134)
(-0.060376 -0.000557953 2.57816e-22 -0.00802888 7.05117e-23 -0.0273619)
(-0.0637468 0.000576869 -5.41775e-23 -0.00720838 -1.51231e-23 -0.0283821)
(-0.0686662 0.00128528 -8.60618e-23 -0.00855386 1.84887e-19 -0.030888)
(-0.0476046 -0.0012782 -2.63067e-23 -0.00696785 2.56176e-19 -0.021829)
(-0.0521259 -0.000518543 -1.08912e-22 -0.00804135 -2.98555e-23 -0.0240669)
(-0.05548 0.000617373 0 -0.00722455 0 -0.0250818)
(-0.0603907 0.00131057 1.70414e-22 -0.00854207 -2.62341e-19 -0.0275731)
(-0.0396034 -0.00127462 5.47192e-23 -0.00696894 -2.38198e-19 -0.0186289)
(-0.0440583 -0.000482543 -1.64885e-22 -0.0080508 -4.48158e-23 -0.0208437)
(-0.0473784 0.000654106 -1.09684e-22 -0.00724173 -2.90243e-23 -0.021848)
(-0.0522556 0.00133612 -5.46537e-23 -0.00852497 -7.69118e-21 -0.0243122)
(-0.0318477 -0.00127449 -2.07413e-22 -0.00697187 8.45121e-20 -0.0155278)
(-0.0362147 -0.000450882 0 -0.00805619 0 -0.0177084)
(-0.0394853 0.000686151 1.10728e-22 -0.00725852 2.96511e-23 -0.0186975)
(-0.0443069 0.00136155 -2.30229e-22 -0.00850219 2.65522e-19 -0.0211236)
(-0.0243745 -0.00127794 3.31472e-22 -0.00697486 8.85496e-20 -0.0125398)
(-0.0286356 -0.000423932 1.11063e-22 -0.0080565 2.95756e-23 -0.0146769)
(-0.0318437 0.000713153 -1.10735e-22 -0.00727347 -3.00778e-23 -0.0156469)
(-0.0365907 0.00138669 2.65666e-24 -0.00847344 -9.10504e-20 -0.0180257)
(-0.0172199 -0.00128486 6.90664e-28 -0.0069761 -1.04972e-22 -0.00967839)
(-0.0213606 -0.000401473 -2.2252e-22 -0.00805069 -5.9287e-23 -0.0117645)
(-0.0244952 0.000735358 2.2252e-22 -0.00728514 5.92872e-23 -0.0127121)
(-0.0291522 0.00141162 -3.31778e-22 -0.00843844 -5.54447e-20 -0.0150363)
(-0.0104188 -0.00129491 2.01596e-25 -0.00697388 -2.30567e-20 -0.00695706)
(-0.0144279 -0.000382742 0 -0.0080377 0 -0.00898625)
(-0.0174803 0.000753559 -2.23181e-22 -0.0072921 -5.88381e-23 -0.00990894)
(-0.0220347 0.00143661 -2.20749e-22 -0.0083968 -5.96697e-20 -0.0121726)
(-0.00400545 -0.00130756 -7.08751e-25 -0.00696667 6.60411e-20 -0.00438885)
(-0.00787439 -0.000366556 -2.23184e-22 -0.00801644 -5.85447e-23 -0.00635633)
(-0.0108371 0.000768974 -2.70707e-25 -0.00729296 2.11958e-25 -0.00725203)
(-0.0152786 0.00146209 -2.11342e-24 -0.00834797 4.89238e-20 -0.00945062)
(0.00198664 -0.00132218 -1.11334e-22 -0.00695318 -3.05509e-20 -0.00198662)
(-0.00173484 -0.000351499 2.22536e-22 -0.00798578 5.78018e-23 -0.00388825)
(-0.00460158 0.000783065 2.23455e-22 -0.00728639 5.83328e-23 -0.00475519)
(-0.00892082 0.00148859 2.18846e-22 -0.00829119 1.11014e-19 -0.0068848)
(0.00752518 -0.00133812 1.10052e-22 -0.00693236 4.22539e-20 0.000237128)
(0.00395798 -0.00033614 5.13982e-25 -0.00794456 5.40539e-25 -0.00159463)
(0.00119343 0.000797314 -2.23067e-22 -0.00727116 -5.73728e-23 -0.00243109)
(-0.00299449 0.00151663 4.49981e-22 -0.0082254 -4.50456e-20 -0.00448796)
(0.0125794 -0.00135481 1.11897e-22 -0.00690343 -2.68241e-20 0.00227038)
(0.00917394 -0.000319261 6.72574e-25 -0.00789157 6.26034e-25 0.000512951)
(0.00651819 0.000812997 2.22915e-22 -0.00724607 5.6439e-23 -0.00029115)
(0.00247163 0.00154667 -2.24524e-22 -0.00814938 1.6036e-20 -0.0022711)
(0.0171206 -0.00137185 1.11111e-22 -0.00686582 -6.02357e-20 0.00410192)
(0.0138859 -0.000300062 -2.22277e-22 -0.00782558 -5.57993e-23 0.00242411)
(0.0113465 0.000830985 2.21782e-22 -0.00721 5.49633e-23 0.00165459)
(0.00745298 0.00157895 2.28663e-22 -0.00806166 -1.12995e-19 -0.000243471)
(0.0211232 -0.00138907 2.20901e-22 -0.00681904 -1.48375e-20 0.00572166)
(0.0180699 -0.000278312 -6.63112e-22 -0.00774537 -1.63194e-22 0.00412982)
(0.0156557 0.000851584 -7.51512e-25 -0.00716186 -7.31071e-25 0.00339753)
(0.0119291 0.00161354 -6.79637e-22 -0.0079607 2.0194e-19 0.00158735)
(0.0245652 -0.00140655 -2.18932e-22 -0.00676265 2.09722e-20 0.00712102)
(0.0217061 -0.000254435 -1.25684e-25 -0.00764972 2.01413e-25 0.00562256)
(0.019427 0.000874461 -1.14576e-25 -0.00710056 2.09722e-25 0.00493059)
(0.0158833 0.00165021 -4.37005e-22 -0.00784493 -1.6299e-19 0.00321533)
(0.0274294 -0.00142467 2.18437e-22 -0.00669608 2.38781e-20 0.00829333)
(0.0247787 -0.000229509 1.18854e-24 -0.00753747 7.35612e-25 0.00689648)
(0.0226455 0.000898644 -4.41304e-22 -0.00702495 -1.05972e-22 0.00624823)
(0.0193021 0.00168851 -3.13452e-24 -0.00771284 2.65902e-20 0.00463572)
(0.029704 -0.00144401 8.67529e-22 -0.00661851 1.78786e-20 0.00923421)
(0.0272763 -0.00020517 -6.54118e-22 -0.00740746 -1.51914e-22 0.00794754)
(0.0253002 0.000922615 0 -0.00693381 0 0.00734657)
(0.0221754 0.00172776 -2.43787e-24 -0.00756307 4.64692e-20 0.00584495)
(0.0313833 -0.00146538 -6.48478e-22 -0.00652883 -1.8095e-20 0.00994181)
(0.0291926 -0.000183455 1.30669e-21 -0.00725859 3.00287e-22 0.0087736)
(0.0273841 0.000944488 2.34291e-24 -0.00682581 1.53395e-24 0.00822331)
(0.0244954 0.00176718 -4.4089e-22 -0.00739452 4.02551e-20 0.00684037)
(0.0324682 -0.00148966 -4.30005e-22 -0.00642536 4.44904e-20 0.0104171)
(0.0305261 -0.000166555 -4.341e-22 -0.00708965 -9.8519e-23 0.00937459)
(0.0288941 0.000962241 0 -0.00669935 0 0.00887791)
(0.0262571 0.00180593 2.25026e-22 -0.00720617 -8.33273e-20 0.00762039)
(0.0329656 -0.0015178 8.56476e-22 -0.0063062 -3.17864e-20 0.0106638)
(0.0312803 -0.000156588 4.29742e-22 -0.00689955 9.2989e-23 0.00975232)
(0.0298314 0.000974015 -4.34802e-22 -0.00655275 -9.68706e-23 0.00931144)
(0.0274578 0.00184338 2.1155e-22 -0.00699742 8.46062e-20 0.00818416)
(0.0328896 -0.00155058 2.12368e-22 -0.0061683 -4.6442e-20 0.0106885)
(0.0314641 -0.000155311 -1.07334e-21 -0.00668658 -2.30731e-22 0.00991101)
(0.0302012 0.000978358 8.62793e-22 -0.0063836 1.86406e-22 0.00952704)
(0.0280982 0.00187899 -4.28235e-22 -0.00676716 -8.33328e-20 0.00853242)
(0.0322591 -0.00158896 -8.48028e-22 -0.006009 5.57596e-20 0.0105)
(0.0310903 -0.000164045 0 -0.0064493 0 0.00985638)
(0.0300126 0.000974601 2.39234e-24 -0.00618964 2.30595e-24 0.00952918)
(0.0281813 0.00191294 -2.15613e-22 -0.0065151 8.18582e-21 0.00866649)
(0.0310998 -0.0016335 1.91264e-24 -0.00582293 9.71282e-21 0.0101107)
(0.0301771 -0.000183512 4.25782e-22 -0.00618428 8.6416e-23 0.00959712)
(0.0292795 0.000962955 -8.52411e-22 -0.00596656 -1.71306e-22 0.00932518)
(0.0277159 0.00194555 2.10879e-22 -0.0062384 4.12437e-20 0.00859102)
(0.0294393 -0.00168591 4.19657e-22 -0.00560683 1.8741e-20 0.00953298)
(0.0287446 -0.000214437 -4.21269e-22 -0.00588866 -8.10303e-23 0.00914237)
(0.0280178 0.000945156 4.26263e-22 -0.00571065 8.56522e-23 0.00892285)
(0.026713 0.00197896 2.12985e-22 -0.00593633 1.14515e-20 0.00831066)
(0.0273141 -0.00174761 9.90345e-25 -0.00534981 -4.14011e-20 0.00878572)
(0.026817 -0.000257897 1.8696e-24 -0.00555362 3.09207e-24 0.00850534)
(0.0262477 0.000924602 2.35275e-24 -0.00541227 2.30014e-24 0.00833419)
(0.0251939 0.00201553 -6.39312e-22 -0.00560016 1.54714e-20 0.00783748)
(0.0247619 -0.00182486 1.63662e-25 -0.00504533 -6.86836e-21 0.00788664)
(0.0244141 -0.000317669 1.25714e-21 -0.00517034 2.29809e-22 0.00769751)
(0.0239862 0.000908248 4.25532e-22 -0.0050619 8.05904e-23 0.00756972)
(0.023184 0.0020628 -2.07198e-22 -0.00522506 -7.18661e-20 0.00718357)
(0.0218338 -0.00192682 6.2071e-22 -0.00466736 -6.42967e-21 0.00686659)
(0.0215501 -0.00040268 -6.25321e-22 -0.00471544 -1.11176e-22 0.00673387)
(0.0212449 0.00090853 0 -0.00463554 0 0.00664374)
(0.0207253 0.00213135 -4.41626e-24 -0.00478609 6.5764e-20 0.00637567)
(0.0186114 -0.00207397 -6.18114e-22 -0.00418044 -2.7897e-21 0.00577237)
(0.0182184 -0.000528297 0 -0.00416012 0 0.0056233)
(0.0180157 0.000944056 0 -0.00410392 0 0.00556472)
(0.0178937 0.00224292 9.33265e-25 -0.00424825 -2.77049e-20 0.00545818)
(0.0151679 -0.00230332 -4.10481e-22 -0.00353449 -2.76342e-21 0.00465335)
(0.0143744 -0.000719799 0 -0.00347699 0 0.00435896)
(0.0142535 0.00104298 4.18984e-22 -0.00343932 6.82515e-23 0.00432565)
(0.0147591 0.00243571 2.21651e-24 -0.00356198 4.52702e-21 0.00447886)
(0.0117446 -0.00257027 6.16398e-22 -0.00257606 7.26886e-22 0.00366743)
(0.00991947 -0.000941313 -2.05873e-22 -0.00272101 -3.18454e-23 0.00287939)
(0.00985948 0.00117146 2.08158e-22 -0.00269637 3.14358e-23 0.00286524)
(0.0115629 0.00266543 -8.40183e-22 -0.0025728 -8.74502e-21 0.00359605)
(0.00827217 -0.00279273 6.1437e-22 -0.0017803 1.02981e-20 0.00259675)
(0.00505909 -0.00109421 2.07179e-22 -0.00249979 2.89861e-23 0.00102372)
(0.00504075 0.00123327 -2.08158e-22 -0.00248266 -3.14358e-23 0.00102324)
(0.0082353 0.00285236 6.30277e-22 -0.00175894 -8.78928e-21 0.00259054)
(0.00434773 -0.001865 2.60572e-22 -0.00225139 7.02298e-22 0.000838536)
(-0.000217453 -0.000815888 -3.02065e-21 -0.00522868 -1.1734e-22 -0.00217845)
(-0.00021648 0.000865671 1.50954e-21 -0.00521063 1.15267e-22 -0.00217084)
(0.00437465 0.00189271 -2.09387e-22 -0.00221208 3.94737e-21 0.000865025)
)
;

boundaryField
{
    plateFix
    {
        type            calculated;
        value           nonuniform List<symmTensor> 4((-0.277849 -0.063826 2.73643e-23 -0.104493 -6.71412e-21 -0.152937) (-0.218443 -0.0216813 5.27229e-24 -0.122502 7.04512e-24 -0.136378) (-0.212399 0.0228404 8.52821e-24 -0.120013 -4.54861e-24 -0.132965) (-0.249728 0.0594857 -1.10281e-22 -0.0944684 -4.27635e-20 -0.137679));
    }
    plate
    {
        type            calculated;
        value           nonuniform List<symmTensor> 
168
(
(-0.216181 -0.000467644 2.18262e-23 -0.0129073 -1.07753e-20 -0.0916355)
(-0.194763 0.000499163 -2.1956e-22 -0.013023 -8.55404e-20 -0.0831143)
(-0.222841 -0.000338316 -2.07752e-21 -0.0128967 1.17965e-18 -0.0942951)
(-0.200614 0.00037316 2.25573e-21 -0.0130146 1.2374e-18 -0.0854514)
(-0.232501 -0.00022135 3.38019e-21 -0.0129422 -2.78368e-18 -0.0981773)
(-0.209399 0.000261626 5.56482e-23 -0.0130623 4.87185e-19 -0.0889846)
(-0.236572 -0.000143657 7.39863e-22 -0.0130584 -5.58395e-19 -0.0998523)
(-0.213309 0.000189288 -2.16055e-22 -0.0131776 -1.21231e-18 -0.0905947)
(-0.239929 -0.000130097 -8.41601e-22 -0.0132072 1.54722e-18 -0.101255)
(-0.216711 0.000179133 -1.05284e-21 -0.0133245 -1.2872e-18 -0.0920144)
(-0.241906 -0.00016917 1.03575e-21 -0.0133731 -2.44201e-18 -0.102112)
(-0.218973 0.000220257 3.70325e-22 -0.0134875 9.4756e-19 -0.0929841)
(-0.243496 -0.000254128 -3.08368e-22 -0.0135357 2.87686e-19 -0.102813)
(-0.220966 0.000306062 -6.39753e-22 -0.0136467 -2.84146e-18 -0.0938452)
(-0.244723 -0.000373771 1.76192e-22 -0.01368 4.88385e-21 -0.103361)
(-0.222691 0.000425703 2.6838e-22 -0.0137872 1.79069e-18 -0.0945914)
(-0.245759 -0.000517461 -6.80664e-23 -0.0137928 1.32273e-20 -0.103821)
(-0.224288 0.000568782 -5.72498e-23 -0.0138961 -6.51767e-19 -0.0952735)
(-0.246595 -0.000674462 -2.33468e-23 -0.0138649 2.97145e-18 -0.104184)
(-0.225735 0.000724767 -1.67588e-22 -0.0139642 5.64658e-19 -0.0958797)
(-0.247234 -0.000835132 -9.22656e-23 -0.0138905 -2.53387e-18 -0.10445)
(-0.227029 0.000884171 1.77111e-22 -0.0139858 1.44401e-20 -0.096406)
(-0.24766 -0.00099137 -1.1822e-22 -0.0138673 -2.13292e-18 -0.104611)
(-0.228151 0.00103901 1.0666e-23 -0.0139586 2.88375e-19 -0.0968438)
(-0.247869 -0.00113715 2.71569e-22 -0.0137965 2.79631e-18 -0.104666)
(-0.229095 0.00118334 4.02578e-23 -0.0138839 -1.64814e-18 -0.0971918)
(-0.247865 -0.0012687 -1.73077e-22 -0.0136817 2.54311e-19 -0.104619)
(-0.229868 0.00131346 -3.808e-23 -0.0137653 1.73959e-18 -0.0974532)
(-0.247658 -0.00138438 2.50542e-22 -0.0135284 7.37647e-19 -0.104475)
(-0.23048 0.00142777 -7.40085e-23 -0.0136082 -1.69873e-18 -0.0976351)
(-0.247262 -0.00148433 -2.14078e-22 -0.0133427 -1.12043e-18 -0.104242)
(-0.230946 0.00152644 4.02511e-23 -0.0134188 1.46182e-18 -0.097746)
(-0.246687 -0.00156978 -1.3641e-22 -0.0131309 -7.26653e-19 -0.103927)
(-0.231279 0.00161072 4.37565e-23 -0.0132033 -3.63318e-19 -0.097793)
(-0.245936 -0.00164262 1.67183e-22 -0.012899 3.53453e-19 -0.103534)
(-0.231484 0.00168248 2.34225e-22 -0.0129678 5.08506e-19 -0.0977806)
(-0.245004 -0.00170484 -3.03842e-22 -0.0126523 -5.89321e-20 -0.103062)
(-0.231557 0.00174372 8.4707e-23 -0.0127176 -1.2007e-18 -0.0977099)
(-0.243871 -0.00175724 1.41553e-22 -0.0123941 -1.10816e-19 -0.102506)
(-0.231483 0.00179521 -2.10795e-22 -0.0124559 9.03617e-19 -0.0975755)
(-0.242518 -0.00180331 -2.08248e-23 -0.012134 -2.26534e-19 -0.101861)
(-0.231242 0.0018404 2.46666e-22 -0.0121925 -8.47459e-19 -0.0973739)
(-0.24089 -0.00183556 2.82719e-22 -0.0118615 1.31755e-18 -0.101101)
(-0.230788 0.00187177 -1.97593e-22 -0.0119169 1.16406e-18 -0.0970819)
(-0.238886 -0.00188019 -3.99092e-22 -0.0116026 -9.44727e-19 -0.100195)
(-0.23006 0.00191543 -2.22178e-22 -0.0116551 -1.0254e-18 -0.0966859)
(-0.236465 -0.00193152 2.44537e-23 -0.0112775 2.48763e-19 -0.0990972)
(-0.228979 0.0019657 1.58119e-23 -0.0113275 5.94333e-19 -0.0961228)
(-0.23378 -0.00196367 -3.33857e-22 -0.0109867 3.06162e-19 -0.0979067)
(-0.227618 0.00199665 5.47422e-22 -0.0110349 6.63082e-19 -0.0954612)
(-0.230798 -0.00198926 -3.68452e-22 -0.0107105 1.63213e-19 -0.0966035)
(-0.22594 0.00202086 -7.76312e-23 -0.0107575 -1.07254e-18 -0.094679)
(-0.227517 -0.00200937 -1.08317e-22 -0.010457 -1.09773e-18 -0.0951895)
(-0.223939 0.00203941 6.09406e-23 -0.0105034 8.5258e-19 -0.0937768)
(-0.223925 -0.00202712 -3.95109e-22 -0.010223 6.20564e-19 -0.0936592)
(-0.221596 0.00205542 -3.56671e-23 -0.0102694 -5.09526e-19 -0.0927461)
(-0.220019 -0.00204331 8.68757e-22 -0.0100069 -6.1826e-19 -0.0920103)
(-0.218899 0.00206969 -2.525e-22 -0.0100535 -4.89857e-19 -0.0915809)
(-0.215795 -0.00205854 -4.33651e-22 -0.00980719 6.10941e-19 -0.0902409)
(-0.215836 0.00208282 5.31159e-22 -0.00985418 7.46021e-19 -0.0902759)
(-0.211252 -0.00207304 4.83628e-22 -0.00962222 -3.58728e-19 -0.0883497)
(-0.212396 0.00209509 -4.92204e-22 -0.00966963 -2.37899e-19 -0.0888261)
(-0.20639 -0.00208696 5.31145e-22 -0.00945105 -1.13863e-19 -0.0863364)
(-0.208572 0.00210668 -2.10798e-23 -0.00949876 -3.55094e-19 -0.0872282)
(-0.201209 -0.00210041 6.21363e-22 -0.00929263 6.59391e-19 -0.0842006)
(-0.204359 0.00211772 4.17692e-23 -0.0093404 7.49106e-19 -0.0854798)
(-0.19571 -0.00211345 -2.99373e-22 -0.00914619 -5.91871e-20 -0.0819426)
(-0.199757 0.00212831 -3.40481e-23 -0.00919373 -6.56472e-19 -0.0835804)
(-0.189897 -0.00212611 3.23295e-22 -0.00901095 2.22845e-19 -0.079563)
(-0.194769 0.00213851 3.06553e-22 -0.00905796 2.7512e-19 -0.0815307)
(-0.183771 -0.00213842 -3.36838e-22 -0.00888623 -2.2528e-19 -0.0770628)
(-0.189401 0.00214838 3.15569e-22 -0.00893244 1.38176e-19 -0.0793333)
(-0.177338 -0.00215038 -3.55682e-22 -0.00877136 -3.0311e-19 -0.0744436)
(-0.183664 0.00215795 -9.61556e-24 -0.0088166 -3.31352e-19 -0.0769921)
(-0.170604 -0.00216196 8.42362e-24 -0.0086657 2.86807e-19 -0.0717081)
(-0.177571 0.00216722 -3.0584e-22 -0.00870991 5.26184e-19 -0.0745125)
(-0.16358 -0.00217316 1.03731e-21 -0.00856862 -1.15146e-19 -0.0688595)
(-0.171141 0.0021762 1.64525e-22 -0.00861186 -1.3753e-19 -0.0719012)
(-0.156277 -0.00218394 3.7707e-22 -0.00847951 3.4468e-19 -0.0659027)
(-0.164393 0.00218487 -1.24062e-23 -0.00852198 -5.00673e-19 -0.0691659)
(-0.148711 -0.00219427 5.45983e-22 -0.00839777 -1.87045e-19 -0.0628436)
(-0.157349 0.00219323 -1.74848e-22 -0.00843979 2.78031e-19 -0.0663154)