/*--------------------------------*- C++ -*----------------------------------*\
| =========                 |                                                 |
| \\      /  F ield         | OpenFOAM Extend Project: Open source CFD        |
|  \\    /   O peration     | Version:  1.6-ext                               |
|   \\  /    A nd           | Web:      www.extend-project.de                 |
|    \\/     M anipulation  |                                                 |
\*---------------------------------------------------------------------------*/
FoamFile
{
    version     2.0;
    format      ascii;
    class       volVectorField;
    location    "0.05";
    object      DU;
}
// * * * * * * * * * * * * * * * * * * * * * * * * * * * * * * * * * * * * * //

dimensions      [0 1 0 0 0 0 0];

internalField   nonuniform List<vector> 
328
(
(-6.22664e-09 -1.15159e-08 0)
(-4.10004e-09 -2.27882e-09 0)
(-3.96869e-09 2.35606e-09 0)
(-5.58513e-09 1.06698e-08 0)
(-1.90038e-08 -2.9617e-08 0)
(-1.35118e-08 -6.84866e-09 0)
(-1.30531e-08 6.70328e-09 0)
(-1.70281e-08 2.73239e-08 0)
(-3.37826e-08 -4.32499e-08 0)
(-2.59928e-08 -1.13858e-08 0)
(-2.5065e-08 1.06066e-08 0)
(-3.02707e-08 3.95682e-08 0)
(-4.98954e-08 -5.31877e-08 0)
(-4.05588e-08 -1.55571e-08 0)
(-3.90945e-08 1.37188e-08 0)
(-4.47217e-08 4.80299e-08 0)
(-6.7534e-08 -6.04152e-08 0)
(-5.74042e-08 -1.92484e-08 0)
(-5.53347e-08 1.59054e-08 0)
(-6.05669e-08 5.35504e-08 0)
(-8.6619e-08 -6.57001e-08 0)
(-7.62112e-08 -2.24447e-08 0)
(-7.3491e-08 1.71063e-08 0)
(-7.77468e-08 5.67736e-08 0)
(-1.07246e-07 -6.96845e-08 0)
(-9.69425e-08 -2.52399e-08 0)
(-9.35306e-08 1.73558e-08 0)
(-9.63608e-08 5.8226e-08 0)
(-1.29485e-07 -7.28631e-08 0)
(-1.19484e-07 -2.7776e-08 0)
(-1.15347e-07 1.67195e-08 0)
(-1.16484e-07 5.82921e-08 0)
(-1.53444e-07 -7.56356e-08 0)
(-1.43814e-07 -3.02286e-08 0)
(-1.38919e-07 1.52817e-08 0)
(-1.38229e-07 5.72599e-08 0)
(-1.79235e-07 -7.83188e-08 0)
(-1.69927e-07 -3.27776e-08 0)
(-1.64246e-07 1.31164e-08 0)
(-1.61709e-07 5.53289e-08 0)
(-2.0698e-07 -8.11695e-08 0)
(-1.97868e-07 -3.55977e-08 0)
(-1.91373e-07 1.02773e-08 0)
(-1.87049e-07 5.26295e-08 0)
(-2.36804e-07 -8.43959e-08 0)
(-2.27718e-07 -3.8848e-08 0)
(-2.20381e-07 6.78762e-09 0)
(-2.14379e-07 4.92311e-08 0)
(-2.68837e-07 -8.81688e-08 0)
(-2.59591e-07 -4.26716e-08 0)
(-2.51385e-07 2.63794e-09 0)
(-2.43833e-07 4.51516e-08 0)
(-3.03216e-07 -9.26309e-08 0)
(-2.93628e-07 -4.71959e-08 0)
(-2.8453e-07 -2.21307e-09 0)
(-2.75556e-07 4.03647e-08 0)
(-3.40085e-07 -9.79053e-08 0)
(-3.29995e-07 -5.25373e-08 0)
(-3.19983e-07 -7.83532e-09 0)
(-3.097e-07 3.48076e-08 0)
(-3.79596e-07 -1.04104e-07 0)
(-3.68871e-07 -5.88062e-08 0)
(-3.57927e-07 -1.43228e-08 0)
(-3.46427e-07 2.83875e-08 0)
(-4.21908e-07 -1.11332e-07 0)
(-4.10451e-07 -6.61123e-08 0)
(-3.9856e-07 -2.17887e-08 0)
(-3.85912e-07 2.09892e-08 0)
(-4.67191e-07 -1.19698e-07 0)
(-4.54932e-07 -7.45681e-08 0)
(-4.42087e-07 -3.03607e-08 0)
(-4.28339e-07 1.24796e-08 0)
(-5.15618e-07 -1.29314e-07 0)
(-5.02517e-07 -8.42925e-08 0)
(-4.88716e-07 -4.01778e-08 0)
(-4.73905e-07 2.71329e-09 0)
(-5.67368e-07 -1.40297e-07 0)
(-5.5341e-07 -9.54116e-08 0)
(-5.38658e-07 -5.13864e-08 0)
(-5.22812e-07 -8.46428e-09 0)
(-6.2262e-07 -1.52769e-07 0)
(-6.0781e-07 -1.08058e-07 0)
(-5.92125e-07 -6.41386e-08 0)
(-5.75272e-07 -2.12145e-08 0)
(-6.81551e-07 -1.6686e-07 0)
(-6.65912e-07 -1.2237e-07 0)
(-6.49322e-07 -7.85878e-08 0)
(-6.31495e-07 -3.56994e-08 0)
(-7.46718e-07 -1.83297e-07 0)
(-7.30264e-07 -1.39098e-07 0)
(-7.12781e-07 -9.5509e-08 0)
(-6.93986e-07 -5.27097e-08 0)
(-8.15852e-07 -2.01696e-07 0)
(-7.98661e-07 -1.57856e-07 0)
(-7.80357e-07 -1.14523e-07 0)
(-7.60661e-07 -7.18709e-08 0)
(-8.84283e-07 -2.20747e-07 0)
(-8.66487e-07 -1.77327e-07 0)
(-8.47495e-07 -1.3431e-07 0)
(-8.27034e-07 -9.18707e-08 0)
(-9.51919e-07 -2.40311e-07 0)
(-9.3365e-07 -1.97375e-07 0)
(-9.14101e-07 -1.54739e-07 0)
(-8.93007e-07 -1.12579e-07 0)
(-1.01867e-06 -2.60249e-07 0)
(-1.00006e-06 -2.17863e-07 0)
(-9.8008e-07 -1.75678e-07 0)
(-9.58482e-07 -1.33868e-07 0)
(-1.08443e-06 -2.80426e-07 0)
(-1.0656e-06 -2.38659e-07 0)
(-1.04533e-06 -1.96994e-07 0)
(-1.02335e-06 -1.55607e-07 0)
(-1.14912e-06 -3.0071e-07 0)
(-1.1302e-06 -2.59631e-07 0)
(-1.10974e-06 -2.18558e-07 0)
(-1.08751e-06 -1.7767e-07 0)
(-1.21262e-06 -3.20972e-07 0)
(-1.19373e-06 -2.8065e-07 0)
(-1.17322e-06 -2.40244e-07 0)
(-1.15085e-06 -1.99933e-07 0)
(-1.27485e-06 -3.4109e-07 0)
(-1.2561e-06 -3.01595e-07 0)
(-1.23564e-06 -2.6193e-07 0)
(-1.21325e-06 -2.22274e-07 0)
(-1.3357e-06 -3.60949e-07 0)
(-1.31719e-06 -3.22351e-07 0)
(-1.29689e-06 -2.83502e-07 0)
(-1.27459e-06 -2.4458e-07 0)
(-1.39507e-06 -3.80441e-07 0)
(-1.37691e-06 -3.4281e-07 0)
(-1.35688e-06 -3.04852e-07 0)
(-1.33476e-06 -2.66745e-07 0)
(-1.45287e-06 -3.99469e-07 0)
(-1.43515e-06 -3.62874e-07 0)
(-1.41547e-06 -3.25882e-07 0)
(-1.39363e-06 -2.8867e-07 0)
(-1.50899e-06 -4.17943e-07 0)
(-1.49181e-06 -3.82453e-07 0)
(-1.47256e-06 -3.46501e-07 0)
(-1.4511e-06 -3.10264e-07 0)
(-1.56335e-06 -4.35785e-07 0)
(-1.54677e-06 -4.01467e-07 0)
(-1.52805e-06 -3.6663e-07 0)
(-1.50703e-06 -3.31445e-07 0)
(-1.61585e-06 -4.52924e-07 0)
(-1.59994e-06 -4.19845e-07 0)
(-1.58181e-06 -3.86193e-07 0)
(-1.56131e-06 -3.52137e-07 0)
(-1.66639e-06 -4.69298e-07 0)
(-1.65122e-06 -4.37521e-07 0)
(-1.63375e-06 -4.05125e-07 0)
(-1.61384e-06 -3.7227e-07 0)
(-1.71488e-06 -4.84849e-07 0)
(-1.70051e-06 -4.54439e-07 0)
(-1.68376e-06 -4.23364e-07 0)
(-1.66451e-06 -3.9178e-07 0)
(-1.76123e-06 -4.99529e-07 0)
(-1.74771e-06 -4.70543e-07 0)
(-1.73174e-06 -4.40854e-07 0)
(-1.71321e-06 -4.10607e-07 0)
(-1.80537e-06 -5.13289e-07 0)
(-1.79275e-06 -4.85785e-07 0)
(-1.77761e-06 -4.57541e-07 0)
(-1.75986e-06 -4.28693e-07 0)
(-1.84721e-06 -5.26088e-07 0)
(-1.83554e-06 -5.00117e-07 0)
(-1.82129e-06 -4.73372e-07 0)
(-1.80436e-06 -4.45979e-07 0)
(-1.88669e-06 -5.37884e-07 0)
(-1.876e-06 -5.13493e-07 0)
(-1.86268e-06 -4.88297e-07 0)
(-1.84664e-06 -4.62411e-07 0)
(-1.92373e-06 -5.48638e-07 0)
(-1.91407e-06 -5.25868e-07 0)
(-1.90173e-06 -5.02265e-07 0)
(-1.88663e-06 -4.77933e-07 0)
(-1.9583e-06 -5.58314e-07 0)
(-1.9497e-06 -5.37199e-07 0)
(-1.93838e-06 -5.15228e-07 0)
(-1.92426e-06 -4.92488e-07 0)
(-1.99033e-06 -5.66877e-07 0)
(-1.98283e-06 -5.47446e-07 0)
(-1.97257e-06 -5.27137e-07 0)
(-1.95948e-06 -5.06024e-07 0)
(-2.0198e-06 -5.74299e-07 0)
(-2.01342e-06 -5.56571e-07 0)
(-2.00425e-06 -5.37948e-07 0)
(-1.99224e-06 -5.18488e-07 0)
(-2.0467e-06 -5.80553e-07 0)
(-2.04146e-06 -5.6454e-07 0)
(-2.03341e-06 -5.4762e-07 0)
(-2.02251e-06 -5.29834e-07 0)
(-2.071e-06 -5.85621e-07 0)
(-2.06692e-06 -5.71327e-07 0)
(-2.06002e-06 -5.56117e-07 0)
(-2.05026e-06 -5.40018e-07 0)
(-2.09272e-06 -5.89492e-07 0)
(-2.0898e-06 -5.76911e-07 0)
(-2.08407e-06 -5.63412e-07 0)
(-2.07548e-06 -5.49005e-07 0)
(-2.11187e-06 -5.92162e-07 0)
(-2.11012e-06 -5.8128e-07 0)
(-2.10556e-06 -5.69484e-07 0)
(-2.09817e-06 -5.56764e-07 0)
(-2.12848e-06 -5.93637e-07 0)
(-2.1279e-06 -5.84431e-07 0)
(-2.12452e-06 -5.7432e-07 0)
(-2.11833e-06 -5.63276e-07 0)
(-2.14261e-06 -5.9393e-07 0)
(-2.14318e-06 -5.8637e-07 0)
(-2.14097e-06 -5.77918e-07 0)
(-2.13599e-06 -5.68528e-07 0)
(-2.15429e-06 -5.93064e-07 0)
(-2.156e-06 -5.8711e-07 0)
(-2.15495e-06 -5.80282e-07 0)
(-2.15119e-06 -5.72516e-07 0)
(-2.16361e-06 -5.91068e-07 0)
(-2.16642e-06 -5.86672e-07 0)
(-2.16653e-06 -5.81424e-07 0)
(-2.16397e-06 -5.75242e-07 0)
(-2.17063e-06 -5.87977e-07 0)
(-2.17452e-06 -5.85083e-07 0)
(-2.17577e-06 -5.81362e-07 0)
(-2.1744e-06 -5.76716e-07 0)
(-2.17545e-06 -5.8383e-07 0)
(-2.1804e-06 -5.82374e-07 0)
(-2.18274e-06 -5.8012e-07 0)
(-2.18256e-06 -5.76952e-07 0)
(-2.17818e-06 -5.78671e-07 0)
(-2.18413e-06 -5.78581e-07 0)
(-2.18756e-06 -5.77723e-07 0)
(-2.18853e-06 -5.75966e-07 0)
(-2.17892e-06 -5.72542e-07 0)
(-2.18584e-06 -5.73739e-07 0)
(-2.19033e-06 -5.74201e-07 0)
(-2.19243e-06 -5.73781e-07 0)
(-2.1778e-06 -5.65489e-07 0)
(-2.18565e-06 -5.67887e-07 0)
(-2.19115e-06 -5.69583e-07 0)
(-2.19437e-06 -5.70417e-07 0)
(-2.17494e-06 -5.57556e-07 0)
(-2.18369e-06 -5.61062e-07 0)
(-2.19017e-06 -5.63901e-07 0)
(-2.19447e-06 -5.65899e-07 0)
(-2.1705e-06 -5.48787e-07 0)
(-2.18009e-06 -5.53302e-07 0)
(-2.18752e-06 -5.57185e-07 0)
(-2.19287e-06 -5.60252e-07 0)
(-2.16462e-06 -5.39228e-07 0)
(-2.17502e-06 -5.44646e-07 0)
(-2.18335e-06 -5.4947e-07 0)
(-2.18972e-06 -5.53504e-07 0)
(-2.15747e-06 -5.28924e-07 0)
(-2.16862e-06 -5.35135e-07 0)
(-2.17782e-06 -5.4079e-07 0)
(-2.18517e-06 -5.45687e-07 0)
(-2.1492e-06 -5.17923e-07 0)
(-2.16106e-06 -5.24812e-07 0)
(-2.17108e-06 -5.31186e-07 0)
(-2.17937e-06 -5.36835e-07 0)
(-2.14e-06 -5.06276e-07 0)
(-2.15252e-06 -5.13725e-07 0)
(-2.16331e-06 -5.207e-07 0)
(-2.17249e-06 -5.26989e-07 0)
(-2.13005e-06 -4.94038e-07 0)
(-2.14316e-06 -5.01925e-07 0)
(-2.15467e-06 -5.09382e-07 0)
(-2.16469e-06 -5.16195e-07 0)
(-2.11951e-06 -4.81267e-07 0)
(-2.13317e-06 -4.89469e-07 0)
(-2.14534e-06 -4.97289e-07 0)
(-2.15614e-06 -5.04508e-07 0)
(-2.10858e-06 -4.68028e-07 0)
(-2.12272e-06 -4.76422e-07 0)
(-2.13549e-06 -4.84481e-07 0)
(-2.14701e-06 -4.91989e-07 0)
(-2.09744e-06 -4.54386e-07 0)
(-2.112e-06 -4.6285e-07 0)
(-2.1253e-06 -4.71027e-07 0)
(-2.13748e-06 -4.78704e-07 0)
(-2.08626e-06 -4.40412e-07 0)
(-2.10117e-06 -4.48826e-07 0)
(-2.11495e-06 -4.56999e-07 0)
(-2.12772e-06 -4.64726e-07 0)
(-2.07522e-06 -4.26177e-07 0)
(-2.09042e-06 -4.34422e-07 0)
(-2.10461e-06 -4.42472e-07 0)
(-2.1179e-06 -4.50131e-07 0)
(-2.06448e-06 -4.11752e-07 0)
(-2.07992e-06 -4.19713e-07 0)
(-2.09444e-06 -4.27523e-07 0)
(-2.10819e-06 -4.34996e-07 0)
(-2.05421e-06 -3.97203e-07 0)
(-2.06982e-06 -4.04771e-07 0)
(-2.08463e-06 -4.12225e-07 0)
(-2.09875e-06 -4.19396e-07 0)
(-2.04455e-06 -3.82597e-07 0)
(-2.06029e-06 -3.89665e-07 0)
(-2.07533e-06 -3.96648e-07 0)
(-2.08977e-06 -4.03403e-07 0)
(-2.03566e-06 -3.67992e-07 0)
(-2.05149e-06 -3.74457e-07 0)
(-2.0667e-06 -3.80852e-07 0)
(-2.08138e-06 -3.87081e-07 0)
(-2.02766e-06 -3.53446e-07 0)
(-2.04356e-06 -3.59207e-07 0)
(-2.0589e-06 -3.64889e-07 0)
(-2.07375e-06 -3.7048e-07 0)
(-2.02068e-06 -3.39015e-07 0)
(-2.03666e-06 -3.43972e-07 0)
(-2.05209e-06 -3.48794e-07 0)
(-2.06702e-06 -3.53635e-07 0)
(-2.01481e-06 -3.24759e-07 0)
(-2.03096e-06 -3.28804e-07 0)
(-2.04644e-06 -3.32591e-07 0)
(-2.06131e-06 -3.36565e-07 0)
(-2.01015e-06 -3.10708e-07 0)
(-2.02664e-06 -3.13733e-07 0)
(-2.04215e-06 -3.16306e-07 0)
(-2.05673e-06 -3.19293e-07 0)
(-2.00672e-06 -2.9658e-07 0)
(-2.02391e-06 -2.98639e-07 0)
(-2.03944e-06 -3.00103e-07 0)
(-2.05333e-06 -3.02144e-07 0)
(-2.00447e-06 -2.81317e-07 0)
(-2.0226e-06 -2.83159e-07 0)
(-2.03813e-06 -2.84367e-07 0)
(-2.05108e-06 -2.86197e-07 0)
)
;

boundaryField
{
    plateFix
    {
        type            fixedDisplacement;
        value           uniform (0 0 0);
    }
    plate
    {
        type            solidTraction;
        nonLinear       updatedLagrangian;
        traction        nonuniform List<vector> 
168
(
(0.000396755 0.000410826 -9.04556e-20)
(0.000393274 -0.000410655 5.65493e-21)
(0.00198181 0.00169543 -3.43357e-18)
(0.00197902 -0.00169752 3.43386e-18)
(0.00541726 0.00269454 3.26367e-18)
(0.00541531 -0.00269734 -3.26071e-18)
(0.0101223 0.00331634 3.28309e-18)
(0.0101212 -0.00331949 -3.01774e-21)
(0.0156948 0.00360655 -2.90716e-18)
(0.0156943 -0.00360994 2.83914e-21)
(0.0218349 0.00363762 -1.3272e-21)
(0.021835 -0.00364125 2.718e-18)
(0.0282577 0.003491 0)
(0.0282583 -0.00349491 -5.36693e-18)
(0.034718 0.00323834 2.84741e-22)
(0.034719 -0.0032426 2.04122e-18)
(0.0410212 0.00293461 0)
(0.0410224 -0.00293933 -2.1404e-18)
(0.0470217 0.00261928 -1.95405e-18)
(0.0470231 -0.00262453 1.95441e-18)
(0.0526203 0.00231899 1.77413e-18)
(0.0526217 -0.00232488 0)
(0.0577595 0.00205024 2.00041e-18)
(0.0577607 -0.00205684 0)
(0.0624163 0.00182148 -1.36603e-21)
(0.0624172 -0.00182887 -1.43591e-18)
(0.0665939 0.00163505 -9.62751e-19)
(0.0665945 -0.00164326 2.56508e-18)
(0.0703127 0.00148879 -1.13878e-18)
(0.0703127 -0.00149788 -2.27871e-18)
(0.0736016 0.00137768 1.00827e-18)
(0.073601 -0.00138763 1.00773e-18)
(0.0764899 0.00129453 -4.32989e-22)
(0.0764886 -0.00130534 4.43142e-19)
(0.0790049 0.0012315 -1.5525e-18)
(0.0790028 -0.00124311 0)
(0.0811615 0.00117478 1.35576e-18)
(0.0811584 -0.00118711 -1.01421e-18)
(0.0829535 0.00111482 0)
(0.0829494 -0.00112776 1.80777e-21)
(0.0844162 0.000995476 0)
(0.0844108 -0.00100883 -2.52939e-19)
(0.0852351 0.000843862 -8.75592e-19)
(0.0852283 -0.000857654 1.75218e-18)
(0.0869593 0.000255772 7.40811e-19)
(0.0869512 -0.000269902 -1.47745e-18)
(0.0893496 -0.000148032 7.23844e-22)
(0.0893408 0.000133719 7.40743e-19)
(0.0908828 -0.000316355 -7.23098e-22)
(0.0908728 0.000302074 7.38126e-19)
(0.0922489 -0.000419325 -7.42419e-19)
(0.092238 0.000405335 -7.39532e-19)
(0.0933323 -0.000466575 7.39691e-19)
(0.0933205 0.000453032 7.3611e-19)
(0.0942973 -0.000502114 0)
(0.0942845 0.000489201 -7.36793e-19)
(0.0951255 -0.000524719 -7.1989e-22)
(0.0951119 0.000512585 -7.33673e-19)
(0.0958639 -0.000543077 0)
(0.0958493 0.000531858 1.46733e-18)
(0.0965156 -0.000556409 2.87323e-21)
(0.0965 0.000546219 -7.33661e-19)
(0.0970988 -0.000566671 -7.30799e-19)
(0.0970822 0.00055761 -3.57283e-22)
(0.0976206 -0.000573931 7.34543e-19)
(0.0976029 0.000566085 3.64877e-19)
(0.0980903 -0.000578849 -3.68789e-19)
(0.0980716 0.000572294 -7.32051e-19)
(0.0985142 -0.000581674 3.67074e-19)
(0.0984944 0.000576479 3.64681e-19)
(0.0988983 -0.000582734 0)
(0.0988774 0.000578965 -3.55165e-22)
(0.0992475 -0.000582244 0)
(0.0992254 0.000579964 -3.54631e-22)
(0.0995658 -0.000580407 3.55947e-22)
(0.0995426 0.000579678 -3.54095e-22)
(0.099857 -0.000577381 0)
(0.0998326 0.000578264 3.61592e-19)
(0.100124 -0.000573304 -3.66254e-19)
(0.100099 0.000575854 -3.61949e-19)
(0.10037 -0.000568288 3.75225e-21)
(0.100343 0.000572558 2.9965e-21)
(0.100597 -0.000562433 3.63329e-19)
(0.100569 0.000568463 -2.63997e-21)
(0.100807 -0.00055582 -3.53521e-22)
(0.100778 0.000563642 0)
(0.101003 -0.000548521 3.61385e-19)
(0.100972 0.000558149 3.58832e-19)
(0.101185 -0.000540598 -9.25935e-22)
(0.101153 0.000552029 -3.5642e-19)
(0.101356 -0.000532105 -3.6373e-19)
(0.101322 0.000545313 -3.54929e-19)
(0.101516 -0.000523082 3.59454e-19)
(0.101481 0.000538025 3.58123e-19)
(0.101668 -0.000513568 -3.5985e-19)
(0.101632 0.000530182 4.35898e-23)
(0.101812 -0.000503591 0)
(0.101775 0.000521792 0)
(0.10195 -0.000493171 2.88699e-21)
(0.101911 0.000512863 8.69109e-23)
(0.102083 -0.000482319 0)
(0.102042 0.000503393 0)
(0.102211 -0.00047104 3.56766e-19)
(0.102169 0.000493382 -2.77284e-21)
(0.102336 -0.000459331 -7.13287e-19)
(0.102293 0.000482822 -3.53865e-19)
(0.102459 -0.000447182 3.56541e-19)
(0.102415 0.000471704 -1.82439e-21)
(0.102581 -0.000434572 0)
(0.102537 0.000460013 3.53701e-19)
(0.102704 -0.000421477 -4.33257e-23)
(0.102659 0.000447729 -2.75556e-21)
(0.102828 -0.000407863 -4.32552e-23)
(0.102782 0.000434821 -2.40735e-21)
(0.102954 -0.000393688 0)
(0.102909 0.000421256 -3.51094e-19)
(0.103085 -0.000378901 -2.75944e-21)
(0.10304 0.000406981 3.5183e-19)
(0.103222 -0.000363439 -1.76054e-19)
(0.103177 0.000391937 0)
(0.103366 -0.000347226 4.80466e-22)
(0.103322 0.000376041 -2.73378e-21)
(0.10352 -0.000330164 1.75851e-19)
(0.103477 0.000359193 1.74427e-19)
(0.103687 -0.000312132 1.75152e-19)
(0.103645 0.000341264 -3.48429e-19)
(0.103868 -0.000292972 -1.75332e-19)
(0.103828 0.000322088 3.48203e-19)
(0.104067 -0.000272483 0)
(0.10403 0.000301456 -3.5035e-19)
(0.104288 -0.000250391 0)
(0.104254 0.000279089 1.73773e-19)
(0.104536 -0.000226347 -1.73918e-19)
(0.104506 0.000254632 -1.72998e-19)
(0.104818 -0.000199847 1.73925e-19)
(0.104792 0.000227582 3.46241e-19)
(0.10514 -0.000170258 0)
(0.105119 0.000197307 -3.47679e-19)
(0.105513 -0.000136553 0)
(0.105498 0.000162784 3.44727e-19)
(0.105949 -9.75452e-05 2.70152e-21)
(0.105941 0.000122829 -2.58557e-19)
(0.106468 -5.08269e-05 0)
(0.106468 7.50328e-05 8.8355e-20)
(0.107089 5.97925e-06 -8.86788e-20)
(0.107098 1.70133e-05 -2.67911e-21)
(0.107858 7.9659e-05 2.56938e-22)
(0.107878 -5.80499e-05 8.2435e-20)
(0.108799 0.00017589 8.60719e-20)
(0.108831 -0.000155879 -2.59339e-22)
(0.110047 0.000318348 8.56332e-20)
(0.110094 -0.0003003 -8.53808e-20)
(0.111615 0.000526855 -2.70153e-22)
(0.111679 -0.000511308 8.79367e-20)
(0.113946 0.000906878 -8.25381e-20)
(0.114033 -0.000894969 -4.49826e-20)
(0.117031 0.00155678 2.49125e-21)
(0.117146 -0.00155019 1.85905e-22)
(0.122379 0.00311148 0)
(0.12253 -0.00311461 -4.20043e-20)
(0.130884 0.00606681 2.80846e-21)
(0.131087 -0.00608273 0)
(0.146186 0.0165934 -9.8472e-21)
(0.0377261 0.052916 9.34677e-21)
(0.0101874 0.00352632 -9.35671e-21)
(0.0102216 -0.00374263 -7.32177e-23)
(0.0379448 -0.053245 -5.83489e-22)
(0.146443 -0.0166197 -2.62637e-21)
)
;
        pressure        nonuniform List<scalar> 
168
(
36.4648
36.4702
36.4682
36.4736
36.471
36.4764
36.4725
36.4779
36.4724
36.4779
36.4703
36.4758
36.4658
36.4712
36.4584
36.4638
36.4481
36.4535
36.4345
36.44
36.4177
36.4231
36.3973
36.4027
36.3734
36.3788
36.3458
36.3512
36.3143
36.3197
36.2789
36.2843
36.2393
36.2447
36.1954
36.2008
36.1469
36.1523
36.0937
36.0991
36.0357
36.0411
35.9721
35.9775
35.9031
35.9085
35.8235
35.8288
35.7439
35.7493
35.6627
35.668
35.581
35.5863
35.4985
35.5038
35.4155
35.4208
35.3319
35.3372
35.248
35.2532
35.1636
35.1687
35.0788
35.0839
34.9937
34.9988
34.9083
34.9134
34.8227
34.8277
34.7368
34.7417
34.6507
34.6556
34.5643
34.5692
34.4778
34.4826
34.3912
34.3959
34.3043
34.309
34.2173
34.2219
34.1302
34.1347
34.0429
34.0474
33.9556
33.9599
33.8681
33.8723
33.7804
33.7847
33.6927
33.6969
33.6049
33.609
33.5169
33.521
33.4289
33.4328
33.3408
33.3446
33.2525
33.2564
33.1642
33.168
33.0758
33.0795
32.9872
32.9909
32.8986
32.9022
32.8098
32.8134
32.7209
32.7244
32.6319
32.6354
32.5428
32.5461
32.4535
32.4568
32.364
32.3673
32.2743
32.2775
32.1844
32.1876
32.0943
32.0974
32.0039
32.007
31.9131
31.9162
31.822
31.825
31.7305
31.7334
31.6384
31.6413
31.5456
31.5484
31.4521
31.4549
31.3576
31.3602
31.2619
31.2644
31.1642
31.1667
31.0648
31.067
30.9609
30.963
30.8531
30.855
30.7344
30.736
30.5951
30.2789
30.339
30.3391
30.2789
30.5962
)
;
        value           nonuniform List<vector> 
168
(
(-5.67303e-08 -3.12481e-08 6.70539e-27)
(-5.22004e-08 2.82401e-08 -4.27519e-26)
(-5.60886e-08 -4.99918e-08 -5.63983e-25)
(-5.07789e-08 4.54568e-08 5.93703e-25)
(-5.94806e-08 -6.45617e-08 1.36571e-24)
(-5.28329e-08 5.85514e-08 2.66596e-25)
(-6.73427e-08 -7.48765e-08 2.67284e-25)
(-5.89265e-08 6.73747e-08 -6.15595e-25)
(-7.93715e-08 -8.24104e-08 -7.72159e-25)
(-6.88315e-08 7.32069e-08 -6.43788e-25)
(-9.47492e-08 -8.78644e-08 1.2296e-24)
(-8.18223e-08 7.66283e-08 4.53183e-25)
(-1.1303e-07 -9.19813e-08 -1.44352e-25)
(-9.75045e-08 7.82544e-08 -1.39134e-24)
(-1.33868e-07 -9.52598e-08 -2.3954e-27)
(-1.15569e-07 7.84709e-08 8.86417e-25)
(-1.57082e-07 -9.81183e-08 -6.14403e-27)
(-1.35858e-07 7.75813e-08 -3.10159e-25)
(-1.82576e-07 -1.00874e-07 -1.47664e-24)
(-1.58289e-07 7.57844e-08 2.6757e-25)
(-2.10323e-07 -1.03784e-07 1.26549e-24)
(-1.82845e-07 7.3211e-08 6.79018e-27)
(-2.40343e-07 -1.07057e-07 1.05302e-24)
(-2.09553e-07 6.99286e-08 1.39025e-25)
(-2.72693e-07 -1.10861e-07 -1.39654e-24)
(-2.38478e-07 6.59546e-08 -8.17953e-25)
(-3.0746e-07 -1.1534e-07 -1.22417e-25)
(-2.69717e-07 6.12627e-08 8.59278e-25)
(-3.44753e-07 -1.20616e-07 -3.63765e-25)
(-3.0339e-07 5.57902e-08 -8.35868e-25)
(-3.84703e-07 -1.26803e-07 5.55944e-25)
(-3.39644e-07 4.94452e-08 7.29599e-25)
(-4.27459e-07 -1.34006e-07 3.65882e-25)
(-3.78644e-07 4.21123e-08 -1.84618e-25)
(-4.73182e-07 -1.42332e-07 -1.68192e-25)
(-4.20575e-07 3.36585e-08 2.59693e-25)
(-5.22042e-07 -1.51891e-07 1.51323e-26)
(-4.65636e-07 2.39371e-08 -5.99311e-25)
(-5.74216e-07 -1.62799e-07 6.35429e-26)
(-5.14034e-07 1.27914e-08 4.55433e-25)
(-6.29879e-07 -1.75176e-07 1.0973e-25)
(-5.65987e-07 5.66347e-11 -4.26882e-25)
(-6.89206e-07 -1.89145e-07 -6.57795e-25)
(-6.21719e-07 -1.44324e-08 5.74684e-25)
(-7.5475e-07 -2.05421e-07 4.74076e-25)
(-6.83714e-07 -3.14761e-08 -5.06652e-25)
(-8.24222e-07 -2.23626e-07 -1.27072e-25)
(-7.49917e-07 -5.0696e-08 2.91351e-25)
(-8.92927e-07 -2.42452e-07 -1.52799e-25)
(-8.15889e-07 -7.07878e-08 3.33773e-25)
(-9.60773e-07 -2.6176e-07 -7.857e-26)
(-8.81528e-07 -9.16221e-08 -5.353e-25)
(-1.02767e-06 -2.81409e-07 5.47944e-25)
(-9.46737e-07 -1.13072e-07 4.23019e-25)
(-1.09351e-06 -3.01262e-07 -3.12679e-25)
(-1.01141e-06 -1.35011e-07 -2.51861e-25)
(-1.15821e-06 -3.21188e-07 3.11565e-25)
(-1.07543e-06 -1.57311e-07 -2.41848e-25)
(-1.22166e-06 -3.41059e-07 -3.07849e-25)
(-1.13869e-06 -1.79849e-07 3.64345e-25)
(-1.28378e-06 -3.60751e-07 1.79241e-25)
(-1.20107e-06 -2.02506e-07 -1.13377e-25)
(-1.34447e-06 -3.8015e-07 6.25357e-26)
(-1.26245e-06 -2.25168e-07 -1.77343e-25)
(-1.40362e-06 -3.99148e-07 -3.34887e-25)
(-1.32271e-06 -2.4773e-07 3.72703e-25)
(-1.46116e-06 -4.17649e-07 3.21509e-26)
(-1.38172e-06 -2.70093e-07 -3.25052e-25)
(-1.51699e-06 -4.35563e-07 -1.1383e-25)
(-1.43936e-06 -2.92165e-07 1.36078e-25)
(-1.57101e-06 -4.52812e-07 1.11034e-25)
(-1.49551e-06 -3.13863e-07 6.89238e-26)
(-1.62313e-06 -4.69326e-07 1.52735e-25)
(-1.55005e-06 -3.3511e-07 -1.65511e-25)
(-1.67327e-06 -4.85042e-07 -1.44638e-25)
(-1.60287e-06 -3.55836e-07 2.62945e-25)
(-1.72133e-06 -4.99907e-07 5.90382e-26)
(-1.65386e-06 -3.75974e-07 -7.02748e-26)
(-1.76723e-06 -5.1387e-07 -1.7202e-25)
(-1.70291e-06 -3.95461e-07 -2.4991e-25)
(-1.8109e-06 -5.26888e-07 9.34923e-26)
(-1.74994e-06 -4.14238e-07 1.40186e-25)
(-1.85225e-06 -5.38917e-07 8.95736e-26)
(-1.79485e-06 -4.32244e-07 -4.16839e-27)
(-1.89121e-06 -5.49922e-07 -6.50596e-27)
(-1.83757e-06 -4.49421e-07 5.0179e-27)
(-1.92772e-06 -5.59864e-07 1.0888e-25)
(-1.87802e-06 -4.65711e-07 1.12777e-25)
(-1.96173e-06 -5.68711e-07 -8.50818e-26)
(-1.91614e-06 -4.81054e-07 -1.12917e-25)
(-1.9932e-06 -5.76433e-07 -2.49689e-26)
(-1.95188e-06 -4.95395e-07 -1.1779e-25)
(-2.02209e-06 -5.83004e-07 1.98391e-25)
(-1.98518e-06 -5.08678e-07 1.66805e-25)
(-2.0484e-06 -5.88402e-07 -2.01829e-25)
(-2.01602e-06 -5.20853e-07 -4.93411e-26)
(-2.0721e-06 -5.92614e-07 -8.39614e-26)
(-2.04436e-06 -5.31873e-07 1.76315e-26)
(-2.09322e-06 -5.95632e-07 8.15589e-26)
(-2.07018e-06 -5.41699e-07 -7.96807e-26)
(-2.11177e-06 -5.97456e-07 -8.69978e-26)
(-2.09348e-06 -5.50296e-07 -2.97023e-26)
(-2.12779e-06 -5.98098e-07 2.8334e-25)
(-2.11427e-06 -5.57641e-07 1.84749e-25)
(-2.14133e-06 -5.97574e-07 -2.55962e-25)
(-2.13256e-06 -5.63716e-07 -2.62159e-25)
(-2.15244e-06 -5.95912e-07 2.38009e-25)
(-2.14839e-06 -5.68512e-07 -7.67074e-27)
(-2.1612e-06 -5.93144e-07 -8.44967e-26)
(-2.16179e-06 -5.72028e-07 2.65357e-25)
(-2.16769e-06 -5.8931e-07 -8.83852e-26)
(-2.17284e-06 -5.74267e-07 -9.0974e-26)
(-2.172e-06 -5.84452e-07 1.04885e-28)
(-2.18161e-06 -5.7524e-07 -5.53111e-26)
(-2.17423e-06 -5.78617e-07 2.30377e-26)
(-2.18819e-06 -5.74958e-07 -5.95625e-26)
(-2.1745e-06 -5.71853e-07 -6.59872e-26)
(-2.19269e-06 -5.7344e-07 4.88842e-26)
(-2.17292e-06 -5.64207e-07 3.04973e-26)
(-2.19521e-06 -5.70703e-07 1.10867e-25)
(-2.16964e-06 -5.55727e-07 -4.21919e-26)
(-2.19588e-06 -5.66767e-07 -4.51248e-26)
(-2.1648e-06 -5.46461e-07 2.68312e-26)
(-2.19484e-06 -5.61656e-07 1.60808e-26)
(-2.15854e-06 -5.36457e-07 6.02159e-26)
(-2.19223e-06 -5.55393e-07 -1.12963e-25)
(-2.15102e-06 -5.25763e-07 1.48802e-26)
(-2.1882e-06 -5.48009e-07 2.01952e-25)
(-2.14242e-06 -5.1443e-07 -2.10086e-26)
(-2.18291e-06 -5.39536e-07 -1.62755e-25)
(-2.13292e-06 -5.02511e-07 -2.3808e-26)
(-2.17651e-06 -5.30014e-07 2.65713e-26)
(-2.12268e-06 -4.9006e-07 -1.76651e-26)
(-2.16917e-06 -5.19488e-07 4.64345e-26)
(-2.1119e-06 -4.77139e-07 1.79336e-26)
(-2.16105e-06 -5.08011e-07 4.03274e-26)
(-2.10075e-06 -4.63809e-07 -4.45518e-26)
(-2.15233e-06 -4.95643e-07 -8.33178e-26)
(-2.08942e-06 -4.50139e-07 3.19486e-26)
(-2.14316e-06 -4.82451e-07 8.4497e-26)
(-2.07809e-06 -4.36196e-07 4.64511e-26)
(-2.13372e-06 -4.68507e-07 -8.31791e-26)
(-2.06693e-06 -4.2205e-07 -5.58937e-26)
(-2.12418e-06 -4.53887e-07 8.22588e-27)
(-2.0561e-06 -4.07771e-07 -9.70304e-27)
(-2.11471e-06 -4.38669e-07 4.1172e-26)
(-2.04578e-06 -3.93422e-07 -1.86456e-26)
(-2.10549e-06 -4.2293e-07 1.14016e-26)
(-2.0361e-06 -3.79067e-07 4.13726e-26)
(-2.09667e-06 -4.0674e-07 1.55843e-26)
(-2.0272e-06 -3.64762e-07 6.8637e-27)
(-2.08841e-06 -3.90167e-07 -7.17777e-26)
(-2.01922e-06 -3.50563e-07 6.53226e-27)
(-2.08089e-06 -3.73262e-07 6.57216e-26)
(-2.01228e-06 -3.3652e-07 2.68297e-27)
(-2.07424e-06 -3.56065e-07 -2.76848e-26)
(-2.00645e-06 -3.22689e-07 2.69683e-27)
(-2.06858e-06 -3.38596e-07 4.52499e-27)
(-2.00176e-06 -3.091e-07 -6.29817e-28)
(-2.06396e-06 -3.20882e-07 -8.60884e-27)
(-1.99785e-06 -2.95422e-07 -1.02022e-26)
(-2.06005e-06 -3.03297e-07 -8.87709e-27)
(-1.99409e-06 -2.80693e-07 -7.60696e-28)
(-2.00384e-06 -2.71338e-07 6.70426e-28)
(-2.02227e-06 -2.7486e-07 -2.19591e-27)
(-2.03781e-06 -2.77104e-07 6.79617e-28)
(-2.05045e-06 -2.80601e-07 1.10737e-28)
(-2.05626e-06 -2.8682e-07 3.98941e-27)
)
;
    }
    frontAndBackPlanes
    {
        type            empty;
    }
}


// ************************************************************************* //
