/*--------------------------------*- C++ -*----------------------------------*\
| =========                 |                                                 |
| \\      /  F ield         | OpenFOAM Extend Project: Open source CFD        |
|  \\    /   O peration     | Version:  1.6-ext                               |
|   \\  /    A nd           | Web:      www.extend-project.de                 |
|    \\/     M anipulation  |                                                 |
\*---------------------------------------------------------------------------*/
FoamFile
{
    version     2.0;
    format      ascii;
    class       volVectorField;
    location    "0.05";
    object      DU_0;
}
// * * * * * * * * * * * * * * * * * * * * * * * * * * * * * * * * * * * * * //

dimensions      [0 1 0 0 0 0 0];

internalField   nonuniform List<vector> 
328
(
(-6.37359e-09 -1.00183e-08 0)
(-4.50206e-09 -1.97482e-09 0)
(-4.37022e-09 2.03823e-09 0)
(-5.72714e-09 9.1536e-09 0)
(-1.94723e-08 -2.57854e-08 0)
(-1.46274e-08 -5.96268e-09 0)
(-1.41669e-08 5.77375e-09 0)
(-1.74825e-08 2.34382e-08 0)
(-3.44553e-08 -3.76925e-08 0)
(-2.756e-08 -9.95217e-09 0)
(-2.66288e-08 9.09654e-09 0)
(-3.09209e-08 3.39211e-08 0)
(-5.075e-08 -4.6411e-08 0)
(-4.24537e-08 -1.36549e-08 0)
(-4.09843e-08 1.17044e-08 0)
(-4.55462e-08 4.11268e-08 0)
(-6.8531e-08 -5.27955e-08 0)
(-5.94864e-08 -1.69721e-08 0)
(-5.74101e-08 1.34779e-08 0)
(-6.15274e-08 4.57663e-08 0)
(-8.77367e-08 -5.75131e-08 0)
(-7.83907e-08 -1.98922e-08 0)
(-7.56624e-08 1.43604e-08 0)
(-7.88232e-08 4.83823e-08 0)
(-1.08458e-07 -6.11233e-08 0)
(-9.91421e-08 -2.24986e-08 0)
(-9.57213e-08 1.4376e-08 0)
(-9.75281e-08 4.94184e-08 0)
(-1.30761e-07 -6.40586e-08 0)
(-1.21649e-07 -2.49183e-08 0)
(-1.17503e-07 1.35747e-08 0)
(-1.17716e-07 4.91966e-08 0)
(-1.54748e-07 -6.66698e-08 0)
(-1.45898e-07 -2.73077e-08 0)
(-1.40996e-07 1.20222e-08 0)
(-1.3949e-07 4.79557e-08 0)
(-1.80519e-07 -6.92361e-08 0)
(-1.7189e-07 -2.98289e-08 0)
(-1.66203e-07 9.77452e-09 0)
(-1.62956e-07 4.58581e-08 0)
(-2.08183e-07 -7.19853e-08 0)
(-1.99666e-07 -3.26397e-08 0)
(-1.93168e-07 6.86942e-09 0)
(-1.88226e-07 4.30056e-08 0)
(-2.37847e-07 -7.51025e-08 0)
(-2.29295e-07 -3.58854e-08 0)
(-2.2196e-07 3.31735e-09 0)
(-2.15412e-07 3.9446e-08 0)
(-2.69622e-07 -7.87406e-08 0)
(-2.60872e-07 -3.96977e-08 0)
(-2.52676e-07 -9.00141e-10 0)
(-2.4463e-07 3.51813e-08 0)
(-3.03615e-07 -8.30278e-08 0)
(-2.9451e-07 -4.41951e-08 0)
(-2.85432e-07 -5.83009e-09 0)
(-2.75996e-07 3.01739e-08 0)
(-3.39935e-07 -8.80747e-08 0)
(-3.30337e-07 -4.94868e-08 0)
(-3.20358e-07 -1.1545e-08 0)
(-3.0963e-07 2.43531e-08 0)
(-3.78688e-07 -9.3981e-08 0)
(-3.68485e-07 -5.56765e-08 0)
(-3.5759e-07 -1.81389e-08 0)
(-3.4565e-07 1.76213e-08 0)
(-4.19978e-07 -1.00842e-07 0)
(-4.09086e-07 -6.2867e-08 0)
(-3.97265e-07 -2.57227e-08 0)
(-3.84174e-07 9.86021e-09 0)
(-4.63901e-07 -1.08752e-07 0)
(-4.52265e-07 -7.11633e-08 0)
(-4.39514e-07 -3.44203e-08 0)
(-4.25319e-07 9.35877e-10 0)
(-5.10543e-07 -1.1781e-07 0)
(-4.98132e-07 -8.06754e-08 0)
(-4.84454e-07 -4.4365e-08 0)
(-4.69191e-07 -9.29677e-09 0)
(-5.59975e-07 -1.28119e-07 0)
(-5.4678e-07 -9.15191e-08 0)
(-5.32188e-07 -5.56964e-08 0)
(-5.15888e-07 -2.09904e-08 0)
(-6.12245e-07 -1.39784e-07 0)
(-5.98276e-07 -1.03815e-07 0)
(-5.82789e-07 -6.85581e-08 0)
(-5.65487e-07 -3.43028e-08 0)
(-6.67372e-07 -1.52919e-07 0)
(-6.52653e-07 -1.17689e-07 0)
(-6.36306e-07 -8.30937e-08 0)
(-6.18043e-07 -4.93901e-08 0)
(-7.27544e-07 -1.68192e-07 0)
(-7.12093e-07 -1.33858e-07 0)
(-6.94901e-07 -1.00069e-07 0)
(-6.75692e-07 -6.70598e-08 0)
(-7.90356e-07 -1.85241e-07 0)
(-7.74244e-07 -1.51936e-07 0)
(-7.56282e-07 -1.19085e-07 0)
(-7.36202e-07 -8.68972e-08 0)
(-8.51464e-07 -2.02856e-07 0)
(-8.34806e-07 -1.70655e-07 0)
(-8.16204e-07 -1.38819e-07 0)
(-7.95396e-07 -1.07534e-07 0)
(-9.10763e-07 -2.20924e-07 0)
(-8.93675e-07 -1.89893e-07 0)
(-8.74558e-07 -1.59139e-07 0)
(-8.5316e-07 -1.28829e-07 0)
(-9.68168e-07 -2.39332e-07 0)
(-9.50759e-07 -2.0953e-07 0)
(-9.3125e-07 -1.79921e-07 0)
(-9.09394e-07 -1.5065e-07 0)
(-1.0236e-06 -2.57975e-07 0)
(-1.00598e-06 -2.2945e-07 0)
(-9.86196e-07 -2.01038e-07 0)
(-9.64011e-07 -1.72861e-07 0)
(-1.077e-06 -2.76748e-07 0)
(-1.05927e-06 -2.49542e-07 0)
(-1.03933e-06 -2.22368e-07 0)
(-1.01694e-06 -1.95331e-07 0)
(-1.12831e-06 -2.95553e-07 0)
(-1.11058e-06 -2.69695e-07 0)
(-1.09059e-06 -2.43794e-07 0)
(-1.06812e-06 -2.17933e-07 0)
(-1.17751e-06 -3.14293e-07 0)
(-1.15986e-06 -2.89804e-07 0)
(-1.13993e-06 -2.65198e-07 0)
(-1.1175e-06 -2.4054e-07 0)
(-1.22457e-06 -3.32875e-07 0)
(-1.20711e-06 -3.09765e-07 0)
(-1.18734e-06 -2.86469e-07 0)
(-1.16506e-06 -2.63031e-07 0)
(-1.26948e-06 -3.51207e-07 0)
(-1.25229e-06 -3.2948e-07 0)
(-1.23279e-06 -3.07498e-07 0)
(-1.21077e-06 -2.85289e-07 0)
(-1.31225e-06 -3.69204e-07 0)
(-1.29543e-06 -3.48851e-07 0)
(-1.27628e-06 -3.2818e-07 0)
(-1.25463e-06 -3.072e-07 0)
(-1.3529e-06 -3.86781e-07 0)
(-1.33652e-06 -3.67788e-07 0)
(-1.31783e-06 -3.48415e-07 0)
(-1.29664e-06 -3.28658e-07 0)
(-1.39146e-06 -4.0386e-07 0)
(-1.3756e-06 -3.86204e-07 0)
(-1.35744e-06 -3.6811e-07 0)
(-1.33681e-06 -3.4956e-07 0)
(-1.42797e-06 -4.20366e-07 0)
(-1.41271e-06 -4.04016e-07 0)
(-1.39516e-06 -3.87175e-07 0)
(-1.37517e-06 -3.69811e-07 0)
(-1.46248e-06 -4.36231e-07 0)
(-1.44788e-06 -4.2115e-07 0)
(-1.43102e-06 -4.05529e-07 0)
(-1.41176e-06 -3.89324e-07 0)
(-1.49506e-06 -4.51392e-07 0)
(-1.48119e-06 -4.37537e-07 0)
(-1.46508e-06 -4.23097e-07 0)
(-1.4466e-06 -4.08019e-07 0)
(-1.52577e-06 -4.65791e-07 0)
(-1.51268e-06 -4.53115e-07 0)
(-1.49738e-06 -4.39813e-07 0)
(-1.47977e-06 -4.25823e-07 0)
(-1.55468e-06 -4.79378e-07 0)
(-1.54242e-06 -4.67829e-07 0)
(-1.528e-06 -4.55617e-07 0)
(-1.5113e-06 -4.42674e-07 0)
(-1.58189e-06 -4.92107e-07 0)
(-1.57051e-06 -4.8163e-07 0)
(-1.55699e-06 -4.70458e-07 0)
(-1.54127e-06 -4.58517e-07 0)
(-1.60748e-06 -5.0394e-07 0)
(-1.597e-06 -4.94478e-07 0)
(-1.58445e-06 -4.84292e-07 0)
(-1.56974e-06 -4.73305e-07 0)
(-1.63152e-06 -5.14843e-07 0)
(-1.62199e-06 -5.06337e-07 0)
(-1.61043e-06 -4.97082e-07 0)
(-1.59677e-06 -4.86998e-07 0)
(-1.65412e-06 -5.24787e-07 0)
(-1.64556e-06 -5.17177e-07 0)
(-1.63502e-06 -5.08797e-07 0)
(-1.62245e-06 -4.99565e-07 0)
(-1.67536e-06 -5.33747e-07 0)
(-1.6678e-06 -5.26974e-07 0)
(-1.65831e-06 -5.19412e-07 0)
(-1.64684e-06 -5.1098e-07 0)
(-1.69532e-06 -5.41702e-07 0)
(-1.68879e-06 -5.35706e-07 0)
(-1.68037e-06 -5.28907e-07 0)
(-1.67002e-06 -5.21223e-07 0)
(-1.71411e-06 -5.48633e-07 0)
(-1.70861e-06 -5.43358e-07 0)
(-1.70128e-06 -5.37265e-07 0)
(-1.69208e-06 -5.30278e-07 0)
(-1.7318e-06 -5.54526e-07 0)
(-1.72736e-06 -5.49914e-07 0)
(-1.72112e-06 -5.44475e-07 0)
(-1.71307e-06 -5.38134e-07 0)
(-1.74847e-06 -5.59366e-07 0)
(-1.74509e-06 -5.55364e-07 0)
(-1.73997e-06 -5.50527e-07 0)
(-1.73308e-06 -5.44784e-07 0)
(-1.76421e-06 -5.63142e-07 0)
(-1.7619e-06 -5.59699e-07 0)
(-1.75789e-06 -5.55416e-07 0)
(-1.75217e-06 -5.50225e-07 0)
(-1.77908e-06 -5.65845e-07 0)
(-1.77785e-06 -5.62913e-07 0)
(-1.77496e-06 -5.59137e-07 0)
(-1.7704e-06 -5.54457e-07 0)
(-1.79317e-06 -5.67469e-07 0)
(-1.79302e-06 -5.65002e-07 0)
(-1.79124e-06 -5.61691e-07 0)
(-1.78784e-06 -5.57483e-07 0)
(-1.80653e-06 -5.68009e-07 0)
(-1.80746e-06 -5.65967e-07 0)
(-1.80679e-06 -5.63083e-07 0)
(-1.80454e-06 -5.59311e-07 0)
(-1.81922e-06 -5.67468e-07 0)
(-1.82122e-06 -5.65811e-07 0)
(-1.82165e-06 -5.63318e-07 0)
(-1.82054e-06 -5.59951e-07 0)
(-1.83131e-06 -5.65849e-07 0)
(-1.83437e-06 -5.64543e-07 0)
(-1.83589e-06 -5.62411e-07 0)
(-1.83589e-06 -5.59422e-07 0)
(-1.84284e-06 -5.63161e-07 0)
(-1.84695e-06 -5.62176e-07 0)
(-1.84953e-06 -5.60378e-07 0)
(-1.85063e-06 -5.57743e-07 0)
(-1.85386e-06 -5.5942e-07 0)
(-1.85899e-06 -5.58729e-07 0)
(-1.86261e-06 -5.57242e-07 0)
(-1.86479e-06 -5.54942e-07 0)
(-1.8644e-06 -5.54648e-07 0)
(-1.87053e-06 -5.54227e-07 0)
(-1.87517e-06 -5.53032e-07 0)
(-1.87838e-06 -5.51052e-07 0)
(-1.87451e-06 -5.4887e-07 0)
(-1.88161e-06 -5.48701e-07 0)
(-1.88722e-06 -5.47782e-07 0)
(-1.89143e-06 -5.4611e-07 0)
(-1.8842e-06 -5.4212e-07 0)
(-1.89224e-06 -5.42187e-07 0)
(-1.89879e-06 -5.41533e-07 0)
(-1.90396e-06 -5.4016e-07 0)
(-1.89351e-06 -5.34438e-07 0)
(-1.90244e-06 -5.34728e-07 0)
(-1.90989e-06 -5.34329e-07 0)
(-1.91597e-06 -5.33249e-07 0)
(-1.90245e-06 -5.25866e-07 0)
(-1.91222e-06 -5.26371e-07 0)
(-1.92053e-06 -5.26222e-07 0)
(-1.92747e-06 -5.2543e-07 0)
(-1.91103e-06 -5.16453e-07 0)
(-1.92161e-06 -5.17167e-07 0)
(-1.93072e-06 -5.17263e-07 0)
(-1.93847e-06 -5.16758e-07 0)
(-1.91926e-06 -5.06251e-07 0)
(-1.93059e-06 -5.07169e-07 0)
(-1.94046e-06 -5.07509e-07 0)
(-1.94897e-06 -5.0729e-07 0)
(-1.92715e-06 -4.95313e-07 0)
(-1.93918e-06 -4.96434e-07 0)
(-1.94975e-06 -4.97017e-07 0)
(-1.95896e-06 -4.97085e-07 0)
(-1.9347e-06 -4.83696e-07 0)
(-1.94738e-06 -4.8502e-07 0)
(-1.95859e-06 -4.85847e-07 0)
(-1.96845e-06 -4.86201e-07 0)
(-1.94191e-06 -4.71456e-07 0)
(-1.95518e-06 -4.72983e-07 0)
(-1.96698e-06 -4.74055e-07 0)
(-1.97743e-06 -4.74698e-07 0)
(-1.94878e-06 -4.58651e-07 0)
(-1.96259e-06 -4.60381e-07 0)
(-1.97493e-06 -4.617e-07 0)
(-1.98591e-06 -4.62631e-07 0)
(-1.9553e-06 -4.45337e-07 0)
(-1.9696e-06 -4.47272e-07 0)
(-1.98242e-06 -4.48837e-07 0)
(-1.99389e-06 -4.50056e-07 0)
(-1.96148e-06 -4.31573e-07 0)
(-1.97621e-06 -4.33712e-07 0)
(-1.98946e-06 -4.35522e-07 0)
(-2.00136e-06 -4.37028e-07 0)
(-1.96732e-06 -4.17415e-07 0)
(-1.98242e-06 -4.19756e-07 0)
(-1.99606e-06 -4.21809e-07 0)
(-2.00833e-06 -4.23597e-07 0)
(-1.97282e-06 -4.02921e-07 0)
(-1.98825e-06 -4.05459e-07 0)
(-2.00221e-06 -4.07749e-07 0)
(-2.01481e-06 -4.09813e-07 0)
(-1.97798e-06 -3.88148e-07 0)
(-1.99368e-06 -3.90877e-07 0)
(-2.00792e-06 -3.93394e-07 0)
(-2.0208e-06 -3.95724e-07 0)
(-1.98281e-06 -3.73154e-07 0)
(-1.99874e-06 -3.76063e-07 0)
(-2.01321e-06 -3.78791e-07 0)
(-2.02632e-06 -3.81373e-07 0)
(-1.98732e-06 -3.57999e-07 0)
(-2.00345e-06 -3.61072e-07 0)
(-2.0181e-06 -3.63985e-07 0)
(-2.03138e-06 -3.66799e-07 0)
(-1.99153e-06 -3.42746e-07 0)
(-2.00782e-06 -3.45961e-07 0)
(-2.02262e-06 -3.49015e-07 0)
(-2.03602e-06 -3.52032e-07 0)
(-1.99546e-06 -3.27468e-07 0)
(-2.01191e-06 -3.30791e-07 0)
(-2.02682e-06 -3.3391e-07 0)
(-2.04025e-06 -3.3709e-07 0)
(-1.99911e-06 -3.12238e-07 0)
(-2.0158e-06 -3.15622e-07 0)
(-2.03078e-06 -3.18693e-07 0)
(-2.04412e-06 -3.21981e-07 0)
(-2.00249e-06 -2.97129e-07 0)
(-2.01956e-06 -3.00505e-07 0)
(-2.03459e-06 -3.03389e-07 0)
(-2.04762e-06 -3.06709e-07 0)
(-2.00565e-06 -2.81874e-07 0)
(-2.02345e-06 -2.85336e-07 0)
(-2.0385e-06 -2.8817e-07 0)
(-2.05083e-06 -2.91603e-07 0)
(-2.00825e-06 -2.65621e-07 0)
(-2.02701e-06 -2.69815e-07 0)
(-2.04207e-06 -2.73388e-07 0)
(-2.05344e-06 -2.77563e-07 0)
)
;

boundaryField
{
    plateFix
    {
        type            fixedDisplacement;
        value           uniform (0 0 0);
    }
    plate
    {
        type            solidTraction;
        nonLinear       updatedLagrangian;
        traction        uniform (0 0 0);
        pressure        uniform 0;
        value           nonuniform List<vector> 
168
(
(-5.0304e-08 -2.71967e-08 5.39646e-26)
(-4.57012e-08 2.41464e-08 3.90382e-26)
(-5.17887e-08 -4.35225e-08 -1.28115e-25)
(-4.6401e-08 3.89119e-08 1.73458e-26)
(-5.69222e-08 -5.62407e-08 -8.31962e-25)
(-5.01904e-08 5.01214e-08 -8.2876e-25)
(-6.60804e-08 -6.52791e-08 8.8006e-25)
(-5.75737e-08 5.76339e-08 1.5416e-24)
(-7.90096e-08 -7.19183e-08 -6.74034e-25)
(-6.83733e-08 6.25358e-08 -7.10474e-25)
(-9.50104e-08 -7.67671e-08 -2.03029e-24)
(-8.19823e-08 6.53147e-08 1.26139e-24)
(-1.13706e-07 -8.04725e-08 1.35968e-24)
(-9.80761e-08 6.64896e-08 -1.08185e-24)
(-1.34804e-07 -8.34696e-08 1.77669e-28)
(-1.16401e-07 6.6383e-08 -4.67666e-26)
(-1.58157e-07 -8.61252e-08 2.85192e-26)
(-1.3683e-07 6.52462e-08 9.17543e-25)
(-1.83683e-07 -8.87175e-08 -1.27122e-25)
(-1.593e-07 6.32397e-08 6.44338e-26)
(-2.11363e-07 -9.14742e-08 4.36124e-25)
(-1.83802e-07 6.04643e-08 -1.66905e-24)
(-2.41214e-07 -9.45775e-08 -6.4166e-26)
(-2.10361e-07 5.69648e-08 3.6402e-25)
(-2.73281e-07 -9.81783e-08 1.45333e-24)
(-2.39031e-07 5.27411e-08 3.38138e-25)
(-3.07626e-07 -1.02402e-07 -3.55853e-25)
(-2.69888e-07 4.77533e-08 -4.98568e-26)
(-3.44329e-07 -1.07358e-07 -5.26579e-25)
(-3.03024e-07 4.19288e-08 2.64763e-25)
(-3.83478e-07 -1.13144e-07 -2.30892e-25)
(-3.38545e-07 3.51683e-08 -2.11981e-25)
(-4.25163e-07 -1.19853e-07 2.30414e-25)
(-3.76562e-07 2.73508e-08 3.46441e-26)
(-4.69477e-07 -1.27575e-07 -6.81369e-25)
(-4.17191e-07 1.83394e-08 6.64176e-25)
(-5.165e-07 -1.36406e-07 7.08884e-26)
(-4.60543e-07 7.98508e-09 -6.77188e-25)
(-5.66303e-07 -1.46443e-07 3.02288e-25)
(-5.06722e-07 -3.86978e-09 -2.7201e-25)
(-6.18928e-07 -1.57787e-07 -2.6145e-25)
(-5.55811e-07 -1.73889e-08 -1.72329e-25)
(-6.74397e-07 -1.70545e-07 1.90394e-25)
(-6.07877e-07 -3.27333e-08 4.06396e-25)
(-7.34892e-07 -1.8536e-07 3.42447e-25)
(-6.65039e-07 -5.0734e-08 3.2556e-25)
(-7.97993e-07 -2.01887e-07 -2.8651e-25)
(-7.25093e-07 -7.09613e-08 -1.43969e-25)
(-8.59336e-07 -2.18942e-07 -1.80519e-25)
(-7.83906e-07 -9.20292e-08 -5.52146e-25)
(-9.18819e-07 -2.36418e-07 1.52113e-25)
(-8.4136e-07 -1.13793e-07 5.18745e-25)
(-9.76355e-07 -2.54205e-07 -1.57945e-25)
(-8.97354e-07 -1.36114e-07 1.92462e-25)
(-1.03187e-06 -2.72202e-07 1.29523e-25)
(-9.518e-07 -1.58854e-07 -3.40615e-25)
(-1.0853e-06 -2.90309e-07 -5.26307e-25)
(-1.00462e-06 -1.81877e-07 -2.93323e-26)
(-1.1366e-06 -3.08434e-07 5.26928e-25)
(-1.05576e-06 -2.05049e-07 5.69895e-26)
(-1.18573e-06 -3.26483e-07 -4.86686e-25)
(-1.10516e-06 -2.2824e-07 -3.96782e-26)
(-1.23268e-06 -3.44369e-07 1.60722e-25)
(-1.1528e-06 -2.51325e-07 1.81453e-25)
(-1.27743e-06 -3.62004e-07 4.45726e-25)
(-1.19865e-06 -2.74182e-07 7.46887e-26)
(-1.32001e-06 -3.79308e-07 -9.50929e-26)
(-1.2427e-06 -2.96693e-07 -2.47377e-25)
(-1.36042e-06 -3.962e-07 3.52094e-25)
(-1.28496e-06 -3.18748e-07 7.06502e-27)
(-1.39871e-06 -4.12606e-07 -3.46776e-25)
(-1.32542e-06 -3.40241e-07 -9.15197e-26)
(-1.43491e-06 -4.28455e-07 -9.25219e-26)
(-1.36412e-06 -3.61073e-07 1.69057e-25)
(-1.46908e-06 -4.43681e-07 8.412e-26)
(-1.40109e-06 -3.81155e-07 -8.03569e-26)
(-1.50129e-06 -4.58225e-07 1.58683e-25)
(-1.43636e-06 -4.00403e-07 6.83902e-28)
(-1.5316e-06 -4.72031e-07 -1.59256e-25)
(-1.46998e-06 -4.18743e-07 7.81538e-26)
(-1.5601e-06 -4.8505e-07 -9.09469e-26)
(-1.502e-06 -4.3611e-07 -8.3859e-26)
(-1.58686e-06 -4.97241e-07 8.72467e-26)
(-1.53248e-06 -4.52447e-07 4.637e-27)
(-1.61199e-06 -5.08563e-07 4.81802e-27)
(-1.56147e-06 -4.67707e-07 9.17712e-27)
(-1.63556e-06 -5.18985e-07 1.73345e-25)
(-1.58906e-06 -4.81848e-07 5.11889e-27)
(-1.65766e-06 -5.28478e-07 -8.19356e-26)
(-1.6153e-06 -4.94838e-07 -1.91143e-26)
(-1.6784e-06 -5.37018e-07 -1.05542e-25)
(-1.64027e-06 -5.0665e-07 2.72288e-29)
(-1.69786e-06 -5.44581e-07 1.01922e-25)
(-1.66404e-06 -5.17265e-07 -1.46205e-25)
(-1.71613e-06 -5.51151e-07 -7.39637e-26)
(-1.68669e-06 -5.26668e-07 1.46103e-25)
(-1.73329e-06 -5.56709e-07 6.19411e-26)
(-1.70828e-06 -5.34847e-07 -2.41743e-25)
(-1.74944e-06 -5.61242e-07 8.21311e-26)
(-1.72889e-06 -5.41797e-07 2.47844e-25)
(-1.76464e-06 -5.64736e-07 8.41339e-26)
(-1.74858e-06 -5.47516e-07 9.82989e-26)
(-1.77898e-06 -5.67182e-07 -3.19561e-25)
(-1.76741e-06 -5.52004e-07 -2.087e-25)
(-1.79252e-06 -5.68572e-07 -8.04269e-26)
(-1.78545e-06 -5.55268e-07 2.54085e-25)
(-1.80534e-06 -5.689e-07 -1.7867e-25)
(-1.80274e-06 -5.57316e-07 -1.63442e-25)
(-1.8175e-06 -5.68165e-07 2.33834e-25)
(-1.81933e-06 -5.58163e-07 -6.16953e-26)
(-1.82905e-06 -5.66369e-07 1.0345e-25)
(-1.83527e-06 -5.57826e-07 7.57385e-26)
(-1.84005e-06 -5.63522e-07 -1.63315e-25)
(-1.85057e-06 -5.56329e-07 -1.61509e-25)
(-1.85055e-06 -5.59635e-07 -6.82742e-26)
(-1.86528e-06 -5.53701e-07 3.12083e-25)
(-1.86059e-06 -5.54728e-07 9.74012e-26)
(-1.87941e-06 -5.49976e-07 -1.08379e-25)
(-1.8702e-06 -5.48827e-07 9.05126e-26)
(-1.89298e-06 -5.45194e-07 -8.32666e-26)
(-1.87942e-06 -5.41962e-07 4.36189e-26)
(-1.906e-06 -5.39399e-07 5.06611e-26)
(-1.88828e-06 -5.34171e-07 5.81114e-28)
(-1.91848e-06 -5.32641e-07 2.92238e-26)
(-1.89679e-06 -5.25496e-07 7.83419e-26)
(-1.93042e-06 -5.24973e-07 2.18263e-27)
(-1.90496e-06 -5.15984e-07 -4.14818e-26)
(-1.94183e-06 -5.16451e-07 -9.07079e-26)
(-1.91281e-06 -5.05684e-07 -1.10971e-25)
(-1.95271e-06 -5.07133e-07 1.31726e-25)
(-1.92035e-06 -4.9465e-07 -9.15639e-27)
(-1.96306e-06 -4.97077e-07 1.63935e-27)
(-1.92758e-06 -4.82937e-07 4.71584e-26)
(-1.97287e-06 -4.86344e-07 -1.26879e-25)
(-1.93449e-06 -4.70601e-07 1.06727e-25)
(-1.98215e-06 -4.74991e-07 1.30147e-25)
(-1.94109e-06 -4.577e-07 -1.08108e-25)
(-1.9909e-06 -4.63074e-07 -8.03936e-26)
(-1.94738e-06 -4.44291e-07 1.30677e-25)
(-1.99911e-06 -4.50649e-07 -6.97857e-27)
(-1.95335e-06 -4.30431e-07 -1.37273e-25)
(-2.00679e-06 -4.37769e-07 -7.96792e-26)
(-1.959e-06 -4.16178e-07 6.37831e-26)
(-2.01395e-06 -4.24485e-07 1.37944e-25)
(-1.96434e-06 -4.01591e-07 -1.88938e-26)
(-2.02058e-06 -4.10844e-07 -1.16111e-25)
(-1.96936e-06 -3.86727e-07 1.90863e-26)
(-2.02671e-06 -3.96893e-07 7.74552e-26)
(-1.97409e-06 -3.71649e-07 -4.31675e-26)
(-2.03234e-06 -3.82673e-07 -1.87437e-27)
(-1.97852e-06 -3.56414e-07 1.00121e-25)
(-2.03749e-06 -3.68221e-07 4.19321e-27)
(-1.98268e-06 -3.41092e-07 -9.54073e-26)
(-2.04219e-06 -3.53564e-07 -2.33613e-26)
(-1.98657e-06 -3.25753e-07 2.80017e-26)
(-2.04648e-06 -3.38719e-07 -1.97414e-26)
(-1.99022e-06 -3.10469e-07 -1.84658e-27)
(-2.05037e-06 -3.23695e-07 1.0836e-26)
(-1.99352e-06 -2.95327e-07 -1.88254e-26)
(-2.05381e-06 -3.0848e-07 -1.65289e-27)
(-1.99622e-06 -2.79988e-07 1.04619e-26)
(-2.05654e-06 -2.93476e-07 3.31139e-28)
(-1.99736e-06 -2.63797e-07 -2.9829e-27)
(-2.00952e-06 -2.55194e-07 -1.91745e-27)
(-2.02861e-06 -2.61468e-07 1.96618e-27)
(-2.04367e-06 -2.66646e-07 -1.65278e-27)
(-2.05471e-06 -2.72882e-07 -3.43738e-29)
(-2.05765e-06 -2.79381e-07 1.32249e-27)
)
;
    }
    frontAndBackPlanes
    {
        type            empty;
    }
}


// ************************************************************************* //
