/*--------------------------------*- C++ -*----------------------------------*\
| =========                 |                                                 |
| \\      /  F ield         | OpenFOAM Extend Project: Open source CFD        |
|  \\    /   O peration     | Version:  1.6-ext                               |
|   \\  /    A nd           | Web:      www.extend-project.de                 |
|    \\/     M anipulation  |                                                 |
\*---------------------------------------------------------------------------*/
FoamFile
{
    version     2.0;
    format      ascii;
    class       volVectorField;
    location    "0.05";
    object      DV;
}
// * * * * * * * * * * * * * * * * * * * * * * * * * * * * * * * * * * * * * //

dimensions      [0 1 -1 0 0 0 0];

internalField   nonuniform List<vector> 
328
(
(4.98032e-07 -3.46592e-07 0)
(5.57524e-07 -6.19537e-08 0)
(5.56904e-07 8.24891e-08 0)
(4.90403e-07 3.76997e-07 0)
(1.53335e-06 -8.7386e-07 0)
(1.68501e-06 -1.76465e-07 0)
(1.68257e-06 2.40589e-07 0)
(1.51191e-06 9.60095e-07 0)
(2.6087e-06 -1.25029e-06 0)
(2.82149e-06 -2.79879e-07 0)
(2.81624e-06 3.9113e-07 0)
(2.5741e-06 1.3897e-06 0)
(3.75085e-06 -1.50644e-06 0)
(4.00436e-06 -3.63129e-07 0)
(3.99611e-06 5.24577e-07 0)
(3.70446e-06 1.69754e-06 0)
(4.95906e-06 -1.67901e-06 0)
(5.23413e-06 -4.24433e-07 0)
(5.22295e-06 6.38763e-07 0)
(4.90267e-06 1.92145e-06 0)
(6.24039e-06 -1.79653e-06 0)
(6.52598e-06 -4.64893e-07 0)
(6.51233e-06 7.34618e-07 0)
(6.17622e-06 2.09088e-06 0)
(7.59567e-06 -1.88235e-06 0)
(7.88529e-06 -4.88704e-07 0)
(7.86988e-06 8.16235e-07 0)
(7.52637e-06 2.22983e-06 0)
(9.02542e-06 -1.95442e-06 0)
(9.31822e-06 -5.01068e-07 0)
(9.302e-06 8.88779e-07 0)
(8.95412e-06 2.35667e-06 0)
(1.05273e-05 -2.02727e-06 0)
(1.08262e-05 -5.07756e-07 0)
(1.08103e-05 9.57932e-07 0)
(1.04576e-05 2.48615e-06 0)
(1.20966e-05 -2.11282e-06 0)
(1.24075e-05 -5.14319e-07 0)
(1.23935e-05 1.02899e-06 0)
(1.20328e-05 2.63008e-06 0)
(1.37252e-05 -2.22146e-06 0)
(1.40559e-05 -5.25956e-07 0)
(1.40454e-05 1.10656e-06 0)
(1.36722e-05 2.79829e-06 0)
(1.54005e-05 -2.36264e-06 0)
(1.57599e-05 -5.47473e-07 0)
(1.57549e-05 1.19424e-06 0)
(1.53645e-05 2.99907e-06 0)
(1.71048e-05 -2.54563e-06 0)
(1.7502e-05 -5.8351e-07 0)
(1.75049e-05 1.29463e-06 0)
(1.70926e-05 3.23956e-06 0)
(1.88128e-05 -2.77997e-06 0)
(1.92569e-05 -6.38869e-07 0)
(1.92703e-05 1.4092e-06 0)
(1.88329e-05 3.52598e-06 0)
(2.04908e-05 -3.07604e-06 0)
(2.09903e-05 -7.18895e-07 0)
(2.10175e-05 1.53831e-06 0)
(2.0553e-05 3.86375e-06 0)
(2.20938e-05 -3.44544e-06 0)
(2.26569e-05 -8.29875e-07 0)
(2.27014e-05 1.68116e-06 0)
(2.22095e-05 4.25748e-06 0)
(2.35636e-05 -3.90133e-06 0)
(2.41976e-05 -9.79344e-07 0)
(2.42637e-05 1.83578e-06 0)
(2.37456e-05 4.71098e-06 0)
(2.48256e-05 -4.45863e-06 0)
(2.55372e-05 -1.17632e-06 0)
(2.56294e-05 1.99887e-06 0)
(2.50883e-05 5.22714e-06 0)
(2.57856e-05 -5.13393e-06 0)
(2.65806e-05 -1.43137e-06 0)
(2.67037e-05 2.16587e-06 0)
(2.6144e-05 5.80785e-06 0)
(2.63263e-05 -5.94528e-06 0)
(2.72092e-05 -1.75646e-06 0)
(2.73681e-05 2.33087e-06 0)
(2.67958e-05 6.45372e-06 0)
(2.63032e-05 -6.91165e-06 0)
(2.72767e-05 -2.16471e-06 0)
(2.74762e-05 2.48673e-06 0)
(2.68983e-05 7.16399e-06 0)
(2.55402e-05 -8.0513e-06 0)
(2.66047e-05 -2.66958e-06 0)
(2.68488e-05 2.625e-06 0)
(2.62734e-05 7.93553e-06 0)
(2.37622e-05 -9.43296e-06 0)
(2.49184e-05 -3.30802e-06 0)
(2.52118e-05 2.74096e-06 0)
(2.46481e-05 8.79597e-06 0)
(2.06598e-05 -1.10293e-05 0)
(2.18998e-05 -4.07629e-06 0)
(2.22437e-05 2.81499e-06 0)
(2.17012e-05 9.7026e-06 0)
(1.63174e-05 -1.27209e-05 0)
(1.76238e-05 -4.91798e-06 0)
(1.80136e-05 2.83928e-06 0)
(1.74997e-05 1.05841e-05 0)
(1.07135e-05 -1.44802e-05 0)
(1.20669e-05 -5.8179e-06 0)
(1.24964e-05 2.81595e-06 0)
(1.20174e-05 1.14294e-05 0)
(3.84374e-06 -1.62776e-05 0)
(5.22339e-06 -6.75884e-06 0)
(5.68538e-06 2.7495e-06 0)
(5.24629e-06 1.223e-05 0)
(-4.27827e-06 -1.80819e-05 0)
(-2.89377e-06 -7.72184e-06 0)
(-2.40695e-06 2.64579e-06 0)
(-2.80159e-06 1.29782e-05 0)
(-1.36215e-05 -1.98617e-05 0)
(-1.22531e-05 -8.68756e-06 0)
(-1.17489e-05 2.51135e-06 0)
(-1.20945e-05 1.36676e-05 0)
(-2.41379e-05 -2.15866e-05 0)
(-2.28051e-05 -9.63753e-06 0)
(-2.22899e-05 2.3521e-06 0)
(-2.25811e-05 1.42909e-05 0)
(-3.57626e-05 -2.32291e-05 0)
(-3.44824e-05 -1.05557e-05 0)
(-3.3961e-05 2.17202e-06 0)
(-3.41912e-05 1.484e-05 0)
(-4.84145e-05 -2.47658e-05 0)
(-4.7201e-05 -1.14297e-05 0)
(-4.66759e-05 1.972e-06 0)
(-4.68368e-05 1.53041e-05 0)
(-6.1997e-05 -2.61787e-05 0)
(-6.08606e-05 -1.22519e-05 0)
(-6.0332e-05 1.74896e-06 0)
(-6.04133e-05 1.56694e-05 0)
(-7.63987e-05 -2.74553e-05 0)
(-7.53462e-05 -1.30198e-05 0)
(-7.48117e-05 1.49556e-06 0)
(-7.48015e-05 1.59191e-05 0)
(-9.14943e-05 -2.85894e-05 0)
(-9.05289e-05 -1.37361e-05 0)
(-8.99843e-05 1.20052e-06 0)
(-8.98693e-05 1.60337e-05 0)
(-0.000107146 -2.95796e-05 0)
(-0.000106268 -1.44074e-05 0)
(-0.000105707 8.49522e-07 0)
(-0.000105474 1.59919e-05 0)
(-0.000123203 -3.04286e-05 0)
(-0.000122411 -1.50434e-05 0)
(-0.000121828 4.26627e-07 0)
(-0.000121463 1.57722e-05 0)
(-0.000139508 -3.11416e-05 0)
(-0.000138799 -1.56549e-05 0)
(-0.000138188 -8.39811e-08 0)
(-0.00013768 1.53548e-05 0)
(-0.000155892 -3.17249e-05 0)
(-0.000155264 -1.62523e-05 0)
(-0.00015462 -6.96133e-07 0)
(-0.000153961 1.47229e-05 0)
(-0.000172184 -3.21838e-05 0)
(-0.000171635 -1.68435e-05 0)
(-0.000170955 -1.41991e-06 0)
(-0.000170141 1.38651e-05 0)
(-0.000188209 -3.25218e-05 0)
(-0.000187739 -1.74329e-05 0)
(-0.000187024 -2.2602e-06 0)
(-0.000186055 1.27762e-05 0)
(-0.00020379 -3.27394e-05 0)
(-0.000203401 -1.80202e-05 0)
(-0.000202655 -3.21571e-06 0)
(-0.000201536 1.14587e-05 0)
(-0.000218755 -3.28338e-05 0)
(-0.000218452 -1.86001e-05 0)
(-0.000217681 -4.27861e-06 0)
(-0.000216422 9.92277e-06 0)
(-0.000232936 -3.27992e-05 0)
(-0.000232724 -1.91624e-05 0)
(-0.000231939 -5.43483e-06 0)
(-0.000230555 8.18596e-06 0)
(-0.000246173 -3.26275e-05 0)
(-0.000246059 -1.96931e-05 0)
(-0.000245271 -6.66493e-06 0)
(-0.000243782 6.27245e-06 0)
(-0.000258317 -3.23098e-05 0)
(-0.000258308 -2.01757e-05 0)
(-0.000257531 -7.94563e-06 0)
(-0.000255957 4.21146e-06 0)
(-0.00026923 -3.18374e-05 0)
(-0.000269332 -2.05929e-05 0)
(-0.000268578 -9.25165e-06 0)
(-0.000266944 2.03541e-06 0)
(-0.000278789 -3.12043e-05 0)
(-0.000279006 -2.09288e-05 0)
(-0.000278289 -1.05577e-05 0)
(-0.000276616 -2.22115e-07 0)
(-0.000286887 -3.04085e-05 0)
(-0.00028722 -2.11704e-05 0)
(-0.00028655 -1.18407e-05 0)
(-0.000284861 -2.52842e-06 0)
(-0.000293435 -2.94534e-05 0)
(-0.000293879 -2.13097e-05 0)
(-0.000293265 -1.30812e-05 0)
(-0.00029158 -4.85342e-06 0)
(-0.000298358 -2.83486e-05 0)
(-0.000298908 -2.13441e-05 0)
(-0.000298353 -1.42646e-05 0)
(-0.000296689 -7.17097e-06 0)
(-0.000301603 -2.71105e-05 0)
(-0.000302246 -2.12775e-05 0)
(-0.000301753 -1.53821e-05 0)
(-0.000300124 -9.45957e-06 0)
(-0.000303132 -2.57616e-05 0)
(-0.000303854 -2.11197e-05 0)
(-0.000303421 -1.64303e-05 0)
(-0.000301839 -1.17024e-05 0)
(-0.000302929 -2.43293e-05 0)
(-0.000303711 -2.08854e-05 0)
(-0.000303334 -1.74104e-05 0)
(-0.000301808 -1.38869e-05 0)
(-0.000300992 -2.28447e-05 0)
(-0.000301815 -2.05928e-05 0)
(-0.00030149 -1.8327e-05 0)
(-0.000300027 -1.60033e-05 0)
(-0.000297341 -2.13402e-05 0)
(-0.000298184 -2.02616e-05 0)
(-0.000297905 -1.91861e-05 0)
(-0.000296512 -1.80434e-05 0)
(-0.000292011 -1.98474e-05 0)
(-0.000292856 -1.99109e-05 0)
(-0.000292617 -1.99933e-05 0)
(-0.000291302 -1.99988e-05 0)
(-0.000285055 -1.8395e-05 0)
(-0.000285885 -1.95571e-05 0)
(-0.000285684 -2.0752e-05 0)
(-0.000284455 -2.18593e-05 0)
(-0.000276546 -1.70073e-05 0)
(-0.000277347 -1.92123e-05 0)
(-0.000277183 -2.14616e-05 0)
(-0.00027605 -2.36117e-05 0)
(-0.000266572 -1.57027e-05 0)
(-0.000267334 -1.88833e-05 0)
(-0.000267207 -2.21171e-05 0)
(-0.000266184 -2.52392e-05 0)
(-0.000255237 -1.44934e-05 0)
(-0.000255954 -1.85712e-05 0)
(-0.000255868 -2.27086e-05 0)
(-0.000254969 -2.6721e-05 0)
(-0.000242663 -1.33856e-05 0)
(-0.000243332 -1.82718e-05 0)
(-0.000243293 -2.32218e-05 0)
(-0.000242533 -2.80334e-05 0)
(-0.000228986 -1.23806e-05 0)
(-0.000229606 -1.79769e-05 0)
(-0.00022962 -2.36395e-05 0)
(-0.000229016 -2.91511e-05 0)
(-0.000214356 -1.14761e-05 0)
(-0.000214927 -1.76757e-05 0)
(-0.000215002 -2.39432e-05 0)
(-0.000214569 -3.00488e-05 0)
(-0.000198935 -1.06685e-05 0)
(-0.000199459 -1.73574e-05 0)
(-0.000199599 -2.41156e-05 0)
(-0.000199349 -3.07035e-05 0)
(-0.000182894 -9.95419e-06 0)
(-0.000183371 -1.70128e-05 0)
(-0.000183581 -2.41425e-05 0)
(-0.000183523 -3.10967e-05 0)
(-0.000166413 -9.33191e-06 0)
(-0.000166842 -1.66366e-05 0)
(-0.000167123 -2.4015e-05 0)
(-0.00016726 -3.12166e-05 0)
(-0.000149677 -8.80367e-06 0)
(-0.000150053 -1.62284e-05 0)
(-0.000150402 -2.37306e-05 0)
(-0.000150735 -3.10587e-05 0)
(-0.000132872 -8.37537e-06 0)
(-0.00013319 -1.57937e-05 0)
(-0.000133601 -2.32943e-05 0)
(-0.000134122 -3.06274e-05 0)
(-0.000116183 -8.05663e-06 0)
(-0.000116435 -1.53435e-05 0)
(-0.000116899 -2.2718e-05 0)
(-0.000117597 -2.9935e-05 0)
(-9.97924e-05 -7.85975e-06 0)
(-9.99686e-05 -1.48932e-05 0)
(-0.000100474 -2.20194e-05 0)
(-0.000101334 -2.90014e-05 0)
(-8.38758e-05 -7.79814e-06 0)
(-8.39672e-05 -1.44608e-05 0)
(-8.45015e-05 -2.12208e-05 0)
(-8.55045e-05 -2.78515e-05 0)
(-6.86001e-05 -7.88433e-06 0)
(-6.85984e-05 -1.4065e-05 0)
(-6.91486e-05 -2.0346e-05 0)
(-7.02744e-05 -2.65138e-05 0)
(-5.41215e-05 -8.12795e-06 0)
(-5.40212e-05 -1.3723e-05 0)
(-5.4575e-05 -1.9419e-05 0)
(-5.58034e-05 -2.5018e-05 0)
(-4.0584e-05 -8.53411e-06 0)
(-4.03825e-05 -1.34482e-05 0)
(-4.09298e-05 -1.84609e-05 0)
(-4.22414e-05 -2.33925e-05 0)
(-2.81184e-05 -9.10174e-06 0)
(-2.78177e-05 -1.32492e-05 0)
(-2.8351e-05 -1.74894e-05 0)
(-2.97282e-05 -2.16634e-05 0)
(-1.68389e-05 -9.82411e-06 0)
(-1.64453e-05 -1.31288e-05 0)
(-1.69603e-05 -1.65168e-05 0)
(-1.83878e-05 -1.98524e-05 0)
(-6.84989e-06 -1.06857e-05 0)
(-6.37517e-06 -1.30831e-05 0)
(-6.87063e-06 -1.55506e-05 0)
(-8.33499e-06 -1.79788e-05 0)
(1.77654e-06 -1.16701e-05 0)
(2.31616e-06 -1.31037e-05 0)
(1.83862e-06 -1.45913e-05 0)
(3.48851e-07 -1.60518e-05 0)
(8.9419e-06 -1.27358e-05 0)
(9.52387e-06 -1.31691e-05 0)
(9.0604e-06 -1.36413e-05 0)
(7.55797e-06 -1.40952e-05 0)
(1.46806e-05 -1.386e-05 0)
(1.52851e-05 -1.32599e-05 0)
(1.48309e-05 -1.2692e-05 0)
(1.33237e-05 -1.21055e-05 0)
(1.87392e-05 -1.48299e-05 0)
(1.93612e-05 -1.33093e-05 0)
(1.89111e-05 -1.17772e-05 0)
(1.73921e-05 -1.02653e-05 0)
)
;

boundaryField
{
    plateFix
    {
        type            calculated;
        value           uniform (0 0 0);
    }
    plate
    {
        type            calculated;
        value           nonuniform List<vector> 
168
(
(-1.02052e-06 -9.73177e-07 -9.18329e-23)
(-1.15953e-06 1.04311e-06 -1.32955e-22)
(4.59782e-07 -1.52249e-06 -5.25632e-22)
(3.21893e-07 1.64512e-06 8.57606e-22)
(1.90295e-06 -1.93197e-06 3.71022e-21)
(1.7643e-06 2.10465e-06 2.05157e-21)
(3.29856e-06 -2.20616e-06 -1.38677e-21)
(3.15669e-06 2.42703e-06 -4.37569e-21)
(4.66608e-06 -2.39762e-06 1.68286e-22)
(4.51985e-06 2.66621e-06 7.98793e-22)
(6.04057e-06 -2.53354e-06 6.50475e-21)
(5.89035e-06 2.85037e-06 -2.49215e-21)
(7.44333e-06 -2.64122e-06 -3.54975e-21)
(7.29073e-06 3.00746e-06 6.75546e-22)
(8.89011e-06 -2.73967e-06 2.8421e-22)
(8.73776e-06 3.15695e-06 1.42607e-21)
(1.03887e-05 -2.84522e-06 -3.13048e-22)
(1.02402e-05 3.31532e-06 -2.7935e-21)
(1.19412e-05 -2.9712e-06 -1.52351e-21)
(1.18014e-05 3.49577e-06 5.4232e-22)
(1.3544e-05 -3.12967e-06 6.50517e-22)
(1.34187e-05 3.70973e-06 3.92155e-21)
(1.51872e-05 -3.33191e-06 1.51489e-21)
(1.50842e-05 3.96725e-06 -8.72676e-22)
(1.68545e-05 -3.58923e-06 -5.19907e-21)
(1.67832e-05 4.2775e-06 -2.07759e-21)
(1.85215e-05 -3.91344e-06 5.63991e-22)
(1.84937e-05 4.64893e-06 1.56453e-21)
(2.01547e-05 -4.31737e-06 6.23708e-22)
(2.01845e-05 5.08944e-06 -1.79011e-21)
(2.17092e-05 -4.81524e-06 1.31422e-21)
(2.18132e-05 5.60636e-06 1.36094e-21)
(2.31267e-05 -5.42301e-06 -1.55236e-22)
(2.33238e-05 6.20644e-06 -2.16883e-22)
(2.43328e-05 -6.15849e-06 1.65004e-21)
(2.46439e-05 6.8957e-06 -1.27263e-21)
(2.52339e-05 -7.04125e-06 -5.03318e-22)
(2.56808e-05 7.67927e-06 7.66121e-22)
(2.57132e-05 -8.0923e-06 -3.57959e-22)
(2.6318e-05 8.56106e-06 1.22869e-21)
(2.56277e-05 -9.33355e-06 6.88658e-22)
(2.64109e-05 9.5436e-06 4.91899e-23)
(2.4803e-05 -1.07854e-05 -1.4619e-21)
(2.57819e-05 1.06262e-05 -2.64487e-22)
(2.29638e-05 -1.25328e-05 3.89018e-23)
(2.41581e-05 1.18531e-05 -1.46782e-21)
(1.98061e-05 -1.45359e-05 3.50339e-22)
(2.12191e-05 1.31693e-05 6.09323e-22)
(1.5421e-05 -1.66449e-05 2.14183e-22)
(1.70313e-05 1.44729e-05 1.77578e-21)
(9.78856e-06 -1.88258e-05 -4.05464e-22)
(1.15674e-05 1.57459e-05 -1.65367e-21)
(2.90551e-06 -2.10433e-05 1.2222e-21)
(4.81889e-06 1.69735e-05 -1.08629e-22)
(-5.21416e-06 -2.32602e-05 -8.92971e-22)
(-3.20288e-06 1.81413e-05 4.75209e-22)
(-1.45396e-05 -2.54391e-05 1.68859e-21)
(-1.24662e-05 1.92362e-05 -2.88146e-22)
(-2.50237e-05 -2.75441e-05 -1.59039e-21)
(-2.29193e-05 2.02447e-05 3.07509e-22)
(-3.66032e-05 -2.95419e-05 1.49323e-21)
(-3.44911e-05 2.11522e-05 1.84105e-23)
(-4.91995e-05 -3.14039e-05 -3.15434e-22)
(-4.70923e-05 2.19422e-05 -6.28544e-22)
(-6.27188e-05 -3.31069e-05 -1.56988e-21)
(-6.06168e-05 2.25958e-05 2.43211e-22)
(-7.70526e-05 -3.46336e-05 2.801e-22)
(-7.49438e-05 2.30914e-05 1.74566e-22)
(-9.20782e-05 -3.59733e-05 -1.00145e-21)
(-8.99401e-05 2.34055e-05 1.41905e-22)
(-0.00010766 -3.71205e-05 9.45906e-22)
(-0.000105462 2.35136e-05 3.31486e-22)
(-0.000123649 -3.80743e-05 4.13102e-22)
(-0.000121359 2.33915e-05 -5.83801e-22)
(-0.000139889 -3.88372e-05 -3.84439e-22)
(-0.000137474 2.30176e-05 4.17822e-22)
(-0.000156211 -3.9413e-05 -3.06249e-22)
(-0.000153647 2.23738e-05 7.1717e-23)
(-0.000172443 -3.98058e-05 1.33149e-22)
(-0.000169714 2.14481e-05 -5.32022e-22)
(-0.000188408 -4.00185e-05 2.3632e-22)
(-0.000185513 2.02355e-05 2.94409e-22)
(-0.000203929 -4.0052e-05 5.03283e-23)
(-0.000200884 1.87389e-05 3.11753e-23)
(-0.000218832 -3.99048e-05 6.78001e-23)
(-0.000215666 1.69696e-05 1.85442e-23)
(-0.000232947 -3.95734e-05 -3.16192e-22)
(-0.000229705 1.49468e-05 1.19597e-22)
(-0.000246114 -3.90527e-05 3.54944e-23)
(-0.000242852 1.2697e-05 -1.27627e-22)
(-0.000258183 -3.83374e-05 1.87819e-22)
(-0.000254961 1.02521e-05 -1.71852e-22)
(-0.000269017 -3.74236e-05 3.78248e-23)
(-0.000265899 7.64791e-06 6.56117e-22)
(-0.000278496 -3.63103e-05 -7.56316e-23)
(-0.000275539 4.92194e-06 -4.35796e-22)
(-0.000286514 -3.50008e-05 -2.33257e-22)
(-0.000283767 2.11144e-06 5.43951e-22)
(-0.000292984 -3.35044e-05 -1.24254e-22)
(-0.000290483 -7.48363e-07 -6.95579e-22)
(-0.000297836 -3.18368e-05 -3.00533e-22)
(-0.000295601 -3.6256e-06 -2.47999e-22)
(-0.000301019 -3.00205e-05 1.13866e-21)
(-0.000299054 -6.49254e-06 7.02667e-22)
(-0.0003025 -2.80841e-05 -9.79637e-23)
(-0.000300794 -9.32574e-06 -9.81069e-22)
(-0.000302262 -2.60613e-05 7.16444e-22)
(-0.000300794 -1.21055e-05 3.976e-22)
(-0.000300306 -2.39892e-05 -6.73172e-22)
(-0.000299048 -1.48151e-05 5.14136e-22)
(-0.000296652 -2.19065e-05 -3.85342e-22)
(-0.000295572 -1.74391e-05 -3.24281e-22)
(-0.000291333 -1.98506e-05 3.626e-22)
(-0.000290405 -1.9962e-05 4.46015e-22)
(-0.000284403 -1.78564e-05 1.73011e-22)
(-0.000283608 -2.23669e-05 -9.54231e-22)
(-0.000275929 -1.59538e-05 -2.03937e-22)
(-0.00027526 -2.46342e-05 3.67301e-22)
(-0.000265998 -1.41671e-05 -2.64454e-22)
(-0.00026546 -2.6741e-05 3.29134e-22)
(-0.000254711 -1.2514e-05 -1.49162e-22)
(-0.000254322 -2.86616e-05 -1.72248e-22)
(-0.000242186 -1.1006e-05 3.61392e-23)
(-0.000241975 -3.03677e-05 -2.72304e-23)
(-0.000228558 -9.64907e-06 -1.00167e-22)
(-0.00022856 -3.183e-05 -1.76507e-22)
(-0.000213976 -8.44544e-06 1.03536e-22)
(-0.000214226 -3.30199e-05 4.87475e-22)
(-0.0001986 -7.39501e-06 2.66097e-22)
(-0.000199131 -3.39121e-05 -5.09536e-22)
(-0.000182604 -6.4973e-06 -1.52555e-23)
(-0.000183436 -3.44861e-05 -8.86989e-24)
(-0.000166168 -5.75307e-06 -1.42589e-22)
(-0.000167309 -3.47284e-05 3.87926e-22)
(-0.000149478 -5.16551e-06 -2.81247e-22)
(-0.00015092 -3.46339e-05 -2.85143e-22)
(-0.000132723 -4.74076e-06 2.88887e-22)
(-0.000134438 -3.42067e-05 1.16496e-22)
(-0.00011609 -4.48768e-06 -3.16038e-22)
(-0.000118037 -3.34592e-05 1.25301e-22)
(-9.97619e-05 -4.4169e-06 4.10398e-22)
(-0.000101886 -3.24119e-05 9.61445e-23)
(-8.39141e-05 -4.53935e-06 -2.37009e-22)
(-8.61556e-05 -3.10913e-05 -3.54884e-22)
(-6.87128e-05 -4.86437e-06 2.25591e-23)
(-7.10102e-05 -2.95277e-05 3.43274e-22)
(-5.43123e-05 -5.39769e-06 -5.57056e-23)
(-5.66094e-05 -2.77536e-05 -1.6615e-22)
(-4.08539e-05 -6.14023e-06 1.59554e-22)
(-4.31041e-05 -2.58007e-05 1.58829e-23)
(-2.84657e-05 -7.08595e-06 -2.39947e-22)
(-3.06358e-05 -2.36995e-05 -9.64975e-23)
(-1.72579e-05 -8.22362e-06 2.49267e-22)
(-1.93301e-05 -2.14758e-05 1.46305e-22)
(-7.33309e-06 -9.53098e-06 -8.16032e-23)
(-9.30534e-06 -1.91558e-05 6.89819e-24)
(1.24424e-06 -1.09901e-05 7.8152e-24)
(-6.40685e-07 -1.67508e-05 -3.02421e-23)
(8.37414e-06 -1.25433e-05 4.16169e-23)
(6.55182e-06 -1.43016e-05 -9.12847e-24)
(1.41405e-05 -1.41909e-05 -3.40531e-23)
(1.23499e-05 -1.17827e-05 -4.426e-24)
(1.82642e-05 -1.56208e-05 9.61175e-24)
(2.0256e-05 -1.52497e-05 7.76436e-24)
(2.0902e-05 -1.33568e-05 -8.23201e-24)
(2.04533e-05 -1.12784e-05 4.49653e-24)
(1.89113e-05 -9.39826e-06 1.98603e-25)
(1.64755e-05 -9.47854e-06 1.55172e-24)
)
;
    }
    frontAndBackPlanes
    {
        type            empty;
    }
}


// ************************************************************************* //
