/*--------------------------------*- C++ -*----------------------------------*\
| =========                 |                                                 |
| \\      /  F ield         | OpenFOAM Extend Project: Open source CFD        |
|  \\    /   O peration     | Version:  1.6-ext                               |
|   \\  /    A nd           | Web:      www.extend-project.de                 |
|    \\/     M anipulation  |                                                 |
\*---------------------------------------------------------------------------*/
FoamFile
{
    version     2.0;
    format      ascii;
    class       volVectorField;
    location    "0.05";
    object      DV_0;
}
// * * * * * * * * * * * * * * * * * * * * * * * * * * * * * * * * * * * * * //

dimensions      [0 1 -1 0 0 0 0];

internalField   nonuniform List<vector> 
328
(
(-4.6597e-08 -2.52383e-06 0)
(3.83888e-07 -5.21933e-07 0)
(3.8339e-07 5.1974e-07 0)
(-4.65826e-08 2.51453e-06 0)
(-1.13555e-07 -6.46922e-06 0)
(9.78732e-07 -1.52551e-06 0)
(9.7766e-07 1.52068e-06 0)
(-1.1393e-07 6.44792e-06 0)
(-4.19289e-07 -9.39892e-06 0)
(1.08976e-06 -2.47457e-06 0)
(1.08909e-06 2.47017e-06 0)
(-4.1977e-07 9.37405e-06 0)
(-8.07397e-07 -1.14794e-05 0)
(9.4538e-07 -3.29237e-06 0)
(9.45161e-07 3.29274e-06 0)
(-8.08412e-07 1.14591e-05 0)
(-1.30856e-06 -1.29251e-05 0)
(5.15036e-07 -3.95152e-06 0)
(5.15355e-07 3.96203e-06 0)
(-1.31038e-06 1.29162e-05 0)
(-1.89476e-06 -1.39013e-05 0)
(-1.19097e-07 -4.44462e-06 0)
(-1.18327e-07 4.47151e-06 0)
(-1.8976e-06 1.39102e-05 0)
(-2.57602e-06 -1.4544e-05 0)
(-9.36767e-07 -4.78724e-06 0)
(-9.35509e-07 4.83741e-06 0)
(-2.57973e-06 1.45771e-05 0)
(-3.35688e-06 -1.49552e-05 0)
(-1.90141e-06 -5.00384e-06 0)
(-1.8995e-06 5.08475e-06 0)
(-3.36082e-06 1.50189e-05 0)
(-4.25128e-06 -1.52147e-05 0)
(-2.99757e-06 -5.12465e-06 0)
(-2.99462e-06 5.24402e-06 0)
(-4.25419e-06 1.53158e-05 0)
(-5.27468e-06 -1.53831e-05 0)
(-4.21489e-06 -5.17932e-06 0)
(-4.21025e-06 5.34479e-06 0)
(-5.27441e-06 1.55282e-05 0)
(-6.44669e-06 -1.5507e-05 0)
(-5.5562e-06 -5.19481e-06 0)
(-5.54891e-06 5.41335e-06 0)
(-6.44009e-06 1.57022e-05 0)
(-7.79048e-06 -1.56221e-05 0)
(-7.03429e-06 -5.19343e-06 0)
(-7.02298e-06 5.47057e-06 0)
(-7.77312e-06 1.58718e-05 0)
(-9.3344e-06 -1.57553e-05 0)
(-8.67355e-06 -5.19273e-06 0)
(-8.65642e-06 5.53159e-06 0)
(-9.30045e-06 1.60616e-05 0)
(-1.11134e-05 -1.59271e-05 0)
(-1.05095e-05 -5.2059e-06 0)
(-1.04842e-05 5.60594e-06 0)
(-1.10553e-05 1.62885e-05 0)
(-1.31708e-05 -1.61536e-05 0)
(-1.25892e-05 -5.24284e-06 0)
(-1.25529e-05 5.69838e-06 0)
(-1.30795e-05 1.65637e-05 0)
(-1.55609e-05 -1.6448e-05 0)
(-1.49722e-05 -5.31135e-06 0)
(-1.49213e-05 5.8098e-06 0)
(-1.54252e-05 1.68936e-05 0)
(-1.83509e-05 -1.68225e-05 0)
(-1.77316e-05 -5.41837e-06 0)
(-1.7662e-05 5.93822e-06 0)
(-1.81578e-05 1.72817e-05 0)
(-2.16237e-05 -1.72893e-05 0)
(-2.09557e-05 -5.57106e-06 0)
(-2.08626e-05 6.07944e-06 0)
(-2.13586e-05 1.77292e-05 0)
(-2.54808e-05 -1.78613e-05 0)
(-2.47507e-05 -5.77765e-06 0)
(-2.4629e-05 6.22747e-06 0)
(-2.51274e-05 1.82351e-05 0)
(-3.00454e-05 -1.85531e-05 0)
(-2.92437e-05 -6.04802e-06 0)
(-2.90876e-05 6.37466e-06 0)
(-2.95862e-05 1.8797e-05 0)
(-3.54652e-05 -1.93805e-05 0)
(-3.45857e-05 -6.39404e-06 0)
(-3.43895e-05 6.51145e-06 0)
(-3.48822e-05 1.94099e-05 0)
(-4.19154e-05 -2.03603e-05 0)
(-4.09552e-05 -6.82934e-06 0)
(-4.07135e-05 6.62606e-06 0)
(-4.11916e-05 2.00657e-05 0)
(-4.98939e-05 -2.1554e-05 0)
(-4.88502e-05 -7.38991e-06 0)
(-4.85562e-05 6.7079e-06 0)
(-4.90084e-05 2.07805e-05 0)
(-5.94539e-05 -2.29408e-05 0)
(-5.83324e-05 -8.07835e-06 0)
(-5.79833e-05 6.73101e-06 0)
(-5.83977e-05 2.15057e-05 0)
(-7.00555e-05 -2.44175e-05 0)
(-6.88722e-05 -8.84688e-06 0)
(-6.84716e-05 6.68663e-06 0)
(-6.88399e-05 2.21775e-05 0)
(-8.17027e-05 -2.59583e-05 0)
(-8.04766e-05 -9.68156e-06 0)
(-8.00307e-05 6.576e-06 0)
(-8.03473e-05 2.27842e-05 0)
(-9.43826e-05 -2.75331e-05 0)
(-9.31355e-05 -1.05641e-05 0)
(-9.26525e-05 6.40506e-06 0)
(-9.29136e-05 2.33193e-05 0)
(-0.000108066 -2.91085e-05 0)
(-0.000106821 -1.14727e-05 0)
(-0.00010631 6.18308e-06 0)
(-0.000106513 2.37791e-05 0)
(-0.000122707 -3.06498e-05 0)
(-0.000121487 -1.23839e-05 0)
(-0.000120958 5.92112e-06 0)
(-0.000121102 2.41615e-05 0)
(-0.000138243 -3.2123e-05 0)
(-0.00013707 -1.32749e-05 0)
(-0.000136532 5.62997e-06 0)
(-0.000136614 2.44648e-05 0)
(-0.000154598 -3.34972e-05 0)
(-0.000153491 -1.41257e-05 0)
(-0.000152951 5.31818e-06 0)
(-0.000152968 2.46855e-05 0)
(-0.00017168 -3.47465e-05 0)
(-0.000170655 -1.49204e-05 0)
(-0.000170117 4.99045e-06 0)
(-0.000170062 2.4817e-05 0)
(-0.000189381 -3.5851e-05 0)
(-0.00018845 -1.56494e-05 0)
(-0.000187915 4.64646e-06 0)
(-0.00018778 2.48487e-05 0)
(-0.000207582 -3.67982e-05 0)
(-0.00020675 -1.6309e-05 0)
(-0.000206217 4.28048e-06 0)
(-0.000205991 2.47659e-05 0)
(-0.000226148 -3.75821e-05 0)
(-0.000225419 -1.69019e-05 0)
(-0.000224883 3.8816e-06 0)
(-0.000224552 2.45499e-05 0)
(-0.000244933 -3.82031e-05 0)
(-0.000244306 -1.74362e-05 0)
(-0.000243761 3.43472e-06 0)
(-0.000243311 2.41792e-05 0)
(-0.000263781 -3.86668e-05 0)
(-0.000263253 -1.79238e-05 0)
(-0.00026269 2.92201e-06 0)
(-0.000262107 2.36312e-05 0)
(-0.000282527 -3.89819e-05 0)
(-0.000282091 -1.83789e-05 0)
(-0.000281503 2.32493e-06 0)
(-0.000280774 2.28837e-05 0)
(-0.000300995 -3.91589e-05 0)
(-0.000300648 -1.88155e-05 0)
(-0.000300027 1.6263e-06 0)
(-0.000299142 2.19175e-05 0)
(-0.000319009 -3.92074e-05 0)
(-0.000318745 -1.92457e-05 0)
(-0.000318088 8.12522e-07 0)
(-0.000317041 2.07182e-05 0)
(-0.000336388 -3.91349e-05 0)
(-0.000336205 -1.96777e-05 0)
(-0.00033551 -1.24566e-07 0)
(-0.000334299 1.92781e-05 0)
(-0.000352951 -3.89457e-05 0)
(-0.000352848 -2.01142e-05 0)
(-0.000352118 -1.18625e-06 0)
(-0.000350748 1.75976e-05 0)
(-0.00036852 -3.86392e-05 0)
(-0.000368502 -2.05519e-05 0)
(-0.000367742 -2.36619e-06 0)
(-0.000366224 1.56862e-05 0)
(-0.000382925 -3.82112e-05 0)
(-0.000382995 -2.09815e-05 0)
(-0.000382216 -3.65048e-06 0)
(-0.000380565 1.35618e-05 0)
(-0.000396001 -3.76534e-05 0)
(-0.000396168 -2.13881e-05 0)
(-0.000395383 -5.01844e-06 0)
(-0.000393618 1.12503e-05 0)
(-0.000407599 -3.69557e-05 0)
(-0.000407869 -2.17536e-05 0)
(-0.000407092 -6.44429e-06 0)
(-0.000405239 8.78411e-06 0)
(-0.00041758 -3.61078e-05 0)
(-0.000417961 -2.20579e-05 0)
(-0.000417207 -7.89924e-06 0)
(-0.000415291 6.19958e-06 0)
(-0.000425823 -3.51013e-05 0)
(-0.00042632 -2.22816e-05 0)
(-0.000425603 -9.35404e-06 0)
(-0.00042365 3.53489e-06 0)
(-0.000432223 -3.39317e-05 0)
(-0.000432837 -2.24087e-05 0)
(-0.000432171 -1.07814e-05 0)
(-0.000430206 8.27448e-07 0)
(-0.000436696 -3.26009e-05 0)
(-0.000437424 -2.24283e-05 0)
(-0.000436816 -1.21585e-05 0)
(-0.000434862 -1.88841e-06 0)
(-0.000439173 -3.11179e-05 0)
(-0.000440008 -2.23363e-05 0)
(-0.000439465 -1.3468e-05 0)
(-0.000437541 -4.5831e-06 0)
(-0.000439608 -2.94997e-05 0)
(-0.000440537 -2.21361e-05 0)
(-0.000440061 -1.46999e-05 0)
(-0.000438182 -7.23278e-06 0)
(-0.000437974 -2.77705e-05 0)
(-0.00043898 -2.18384e-05 0)
(-0.000438568 -1.58505e-05 0)
(-0.000436747 -9.81949e-06 0)
(-0.000434263 -2.59613e-05 0)
(-0.000435326 -2.14603e-05 0)
(-0.000434973 -1.69222e-05 0)
(-0.000433219 -1.23305e-05 0)
(-0.000428487 -2.41071e-05 0)
(-0.000429584 -2.1023e-05 0)
(-0.000429285 -1.79215e-05 0)
(-0.000427605 -1.47568e-05 0)
(-0.000420679 -2.22451e-05 0)
(-0.000421786 -2.055e-05 0)
(-0.000421533 -1.88572e-05 0)
(-0.000419934 -1.70914e-05 0)
(-0.000410889 -2.0412e-05 0)
(-0.000411984 -2.00644e-05 0)
(-0.000411771 -1.97372e-05 0)
(-0.000410259 -1.93271e-05 0)
(-0.000399186 -1.86411e-05 0)
(-0.000400251 -1.95859e-05 0)
(-0.000400072 -2.05673e-05 0)
(-0.000398657 -2.14544e-05 0)
(-0.000385662 -1.69606e-05 0)
(-0.000386678 -1.91294e-05 0)
(-0.000386533 -2.13484e-05 0)
(-0.000385226 -2.346e-05 0)
(-0.000370423 -1.53917e-05 0)
(-0.00037138 -1.87034e-05 0)
(-0.000371269 -2.20756e-05 0)
(-0.000370084 -2.53261e-05 0)
(-0.000353597 -1.39485e-05 0)
(-0.000354487 -1.83094e-05 0)
(-0.000354415 -2.2738e-05 0)
(-0.000353368 -2.70296e-05 0)
(-0.000335328 -1.26377e-05 0)
(-0.000336149 -1.79423e-05 0)
(-0.000336121 -2.33192e-05 0)
(-0.000335231 -2.85434e-05 0)
(-0.000315779 -1.14602e-05 0)
(-0.000316529 -1.75919e-05 0)
(-0.000316555 -2.37987e-05 0)
(-0.000315842 -2.98377e-05 0)
(-0.000295128 -1.04125e-05 0)
(-0.000295809 -1.7245e-05 0)
(-0.000295896 -2.41542e-05 0)
(-0.000295378 -3.0882e-05 0)
(-0.000273567 -9.48934e-06 0)
(-0.000274181 -1.68876e-05 0)
(-0.000274338 -2.4364e-05 0)
(-0.00027403 -3.16482e-05 0)
(-0.000251302 -8.68572e-06 0)
(-0.000251848 -1.65076e-05 0)
(-0.00025208 -2.44099e-05 0)
(-0.000251995 -3.21127e-05 0)
(-0.000228545 -7.99926e-06 0)
(-0.000229023 -1.60975e-05 0)
(-0.000229332 -2.42796e-05 0)
(-0.000229476 -3.22592e-05 0)
(-0.000205518 -7.43177e-06 0)
(-0.000205924 -1.56557e-05 0)
(-0.000206307 -2.39683e-05 0)
(-0.00020668 -3.20804e-05 0)
(-0.000182445 -6.99014e-06 0)
(-0.000182772 -1.51877e-05 0)
(-0.000183223 -2.34801e-05 0)
(-0.00018382 -3.15787e-05 0)
(-0.000159552 -6.68625e-06 0)
(-0.000159789 -1.4706e-05 0)
(-0.000160298 -2.28278e-05 0)
(-0.000161106 -3.07667e-05 0)
(-0.00013706 -6.53593e-06 0)
(-0.000137195 -1.42292e-05 0)
(-0.000137749 -2.20318e-05 0)
(-0.000138751 -2.96658e-05 0)
(-0.000115184 -6.55706e-06 0)
(-0.000115206 -1.37796e-05 0)
(-0.000115789 -2.1118e-05 0)
(-0.000116964 -2.83044e-05 0)
(-9.41323e-05 -6.76701e-06 0)
(-9.40303e-05 -1.33808e-05 0)
(-9.46273e-05 -2.0115e-05 0)
(-9.59529e-05 -2.67152e-05 0)
(-7.41001e-05 -7.17974e-06 0)
(-7.38659e-05 -1.30544e-05 0)
(-7.4463e-05 -1.90513e-05 0)
(-7.59161e-05 -2.49322e-05 0)
(-5.52699e-05 -7.80347e-06 0)
(-5.49e-05 -1.28176e-05 0)
(-5.54856e-05 -1.79519e-05 0)
(-5.70448e-05 -2.29874e-05 0)
(-3.78109e-05 -8.63798e-06 0)
(-3.73074e-05 -1.26801e-05 0)
(-3.78731e-05 -1.68362e-05 0)
(-3.95194e-05 -2.09095e-05 0)
(-2.18738e-05 -9.67544e-06 0)
(-2.12441e-05 -1.26443e-05 0)
(-2.17858e-05 -1.57163e-05 0)
(-2.35028e-05 -1.87206e-05 0)
(-7.60047e-06 -1.08965e-05 0)
(-6.85885e-06 -1.27037e-05 0)
(-7.3759e-06 -1.45986e-05 0)
(-9.14934e-06 -1.64401e-05 0)
(4.90565e-06 -1.22825e-05 0)
(5.74018e-06 -1.28474e-05 0)
(5.24523e-06 -1.34808e-05 0)
(3.42773e-06 -1.40749e-05 0)
(1.55024e-05 -1.37837e-05 0)
(1.64028e-05 -1.30502e-05 0)
(1.59251e-05 -1.23667e-05 0)
(1.40789e-05 -1.16545e-05 0)
(2.4222e-05 -1.53842e-05 0)
(2.51645e-05 -1.32949e-05 0)
(2.46977e-05 -1.12457e-05 0)
(2.28332e-05 -9.16953e-06 0)
(3.07038e-05 -1.68233e-05 0)
(3.16795e-05 -1.35027e-05 0)
(3.12175e-05 -1.01647e-05 0)
(2.93299e-05 -6.85426e-06 0)
)
;

boundaryField
{
    plateFix
    {
        type            calculated;
        value           uniform (0 0 0);
    }
    plate
    {
        type            calculated;
        value           nonuniform List<vector> 
168
(
(-1.11493e-05 -6.7952e-06 1.48398e-22)
(-1.1059e-05 6.77477e-06 1.48123e-23)
(-8.19518e-06 -1.08785e-05 -1.1084e-21)
(-8.13005e-06 1.08463e-05 -8.33825e-22)
(-5.91879e-06 -1.40161e-05 -4.53247e-22)
(-5.87887e-06 1.39805e-05 2.75329e-22)
(-4.42613e-06 -1.61884e-05 6.27975e-22)
(-4.40579e-06 1.6158e-05 2.79165e-21)
(-3.63892e-06 -1.77159e-05 -2.97289e-22)
(-3.63296e-06 1.76974e-05 -2.10755e-21)
(-3.36237e-06 -1.87493e-05 -5.43459e-21)
(-3.36805e-06 1.87488e-05 3.9651e-21)
(-3.48381e-06 -1.94464e-05 4.0032e-21)
(-3.4996e-06 1.94697e-05 -3.63378e-21)
(-3.91369e-06 -1.99103e-05 -1.54471e-21)
(-3.93812e-06 1.99636e-05 1.11215e-23)
(-4.6009e-06 -2.02254e-05 1.78687e-21)
(-4.63171e-06 2.03147e-05 3.77804e-21)
(-5.514e-06 -2.04531e-05 -1.89699e-21)
(-5.54758e-06 2.05846e-05 -1.71798e-21)
(-6.63994e-06 -2.06417e-05 2.12996e-21)
(-6.67105e-06 2.08206e-05 -4.48455e-21)
(-7.97887e-06 -2.08279e-05 4.97797e-22)
(-8.00033e-06 2.1058e-05 1.94322e-21)
(-9.54337e-06 -2.10403e-05 3.14316e-21)
(-9.54591e-06 2.13233e-05 1.0354e-21)
(-1.13578e-05 -2.13016e-05 -6.87153e-22)
(-1.13299e-05 2.16354e-05 -3.66657e-22)
(-1.34591e-05 -2.16303e-05 -9.37471e-22)
(-1.33867e-05 2.2008e-05 2.03903e-22)
(-1.58975e-05 -2.20426e-05 -7.89737e-22)
(-1.57643e-05 2.24507e-05 6.48341e-22)
(-1.87381e-05 -2.25533e-05 1.64723e-21)
(-1.85255e-05 2.29697e-05 -9.47542e-22)
(-2.20633e-05 -2.31774e-05 -3.54465e-21)
(-2.175e-05 2.35693e-05 2.81695e-21)
(-2.5974e-05 -2.39309e-05 1.66941e-21)
(-2.55369e-05 2.42518e-05 -2.86373e-21)
(-3.05934e-05 -2.48307e-05 -3.01046e-22)
(-3.00075e-05 2.50174e-05 -3.67177e-22)
(-3.60685e-05 -2.58952e-05 -1.92841e-22)
(-3.53082e-05 2.58639e-05 -1.80664e-21)
(-4.2574e-05 -2.71423e-05 9.17929e-22)
(-4.16144e-05 2.6785e-05 2.18421e-21)
(-5.06085e-05 -2.86471e-05 1.29245e-23)
(-4.94197e-05 2.78107e-05 6.17607e-22)
(-6.02201e-05 -3.03758e-05 1.53819e-23)
(-5.87888e-05 2.88807e-05 1.97273e-22)
(-7.08617e-05 -3.2199e-05 -3.53828e-22)
(-6.9204e-05 2.99044e-05 -1.18356e-21)
(-8.25348e-05 -3.40845e-05 -1.34007e-22)
(-8.06797e-05 3.08639e-05 -3.2059e-22)
(-9.52246e-05 -3.5997e-05 -8.79932e-22)
(-9.32114e-05 3.17464e-05 1.74765e-21)
(-0.0001089 -3.78972e-05 1.21754e-21)
(-0.000106775 3.25415e-05 -1.04655e-21)
(-0.000123516 -3.97451e-05 -1.6102e-21)
(-0.000121326 3.32408e-05 3.19581e-23)
(-0.000139012 -4.15014e-05 1.11867e-21)
(-0.000136799 3.3836e-05 3.861e-22)
(-0.000155311 -4.31301e-05 -1.79842e-21)
(-0.000153111 3.43176e-05 -4.41624e-22)
(-0.000172325 -4.46003e-05 6.184e-22)
(-0.000170159 3.46734e-05 2.95297e-22)
(-0.000189951 -4.58873e-05 1.55444e-21)
(-0.000187823 3.48877e-05 8.98646e-22)
(-0.000208071 -4.69739e-05 -3.78024e-22)
(-0.000205973 3.49414e-05 -1.18663e-21)
(-0.000226555 -4.785e-05 9.24873e-22)
(-0.000224463 3.4812e-05 1.71196e-22)
(-0.00024526 -4.85122e-05 -8.03032e-22)
(-0.000243139 3.4475e-05 -2.68153e-22)
(-0.000264031 -4.89625e-05 -1.32581e-22)
(-0.00026184 3.39056e-05 2.25773e-22)
(-0.000282703 -4.92071e-05 1.36679e-22)
(-0.000280402 3.30801e-05 4.02435e-22)
(-0.000301104 -4.92542e-05 4.58603e-22)
(-0.000298657 3.19783e-05 -7.2591e-22)
(-0.000319055 -4.91122e-05 -4.48419e-22)
(-0.000316437 3.05857e-05 4.61728e-23)
(-0.000336373 -4.87885e-05 2.87838e-22)
(-0.000333574 2.88949e-05 3.69027e-22)
(-0.000352875 -4.82874e-05 -2.32441e-22)
(-0.000349905 2.69073e-05 -2.99679e-22)
(-0.000368383 -4.76104e-05 -5.29577e-22)
(-0.000365269 2.46338e-05 -7.12711e-23)
(-0.000382723 -4.67554e-05 8.54465e-22)
(-0.000379509 2.20943e-05 2.77381e-22)
(-0.000395731 -4.57176e-05 -3.554e-23)
(-0.000392476 1.93172e-05 -9.66646e-23)
(-0.000407255 -4.44913e-05 -2.17886e-22)
(-0.000404027 1.63378e-05 -3.9169e-23)
(-0.000417157 -4.30709e-05 2.64843e-22)
(-0.000414029 1.31963e-05 -6.43349e-22)
(-0.000425319 -4.14536e-05 -2.87497e-22)
(-0.000422356 9.93479e-06 3.5307e-22)
(-0.000431637 -3.96411e-05 -3.09228e-23)
(-0.000428898 6.59566e-06 -4.48729e-22)
(-0.00043603 -3.76416e-05 4.35312e-22)
(-0.000433557 3.21869e-06 7.6027e-22)
(-0.000438434 -3.54705e-05 2.09539e-22)
(-0.000436251 -1.60417e-07 2.46534e-22)
(-0.000438807 -3.31515e-05 -8.33842e-22)
(-0.000436918 -3.51114e-06 -4.27408e-22)
(-0.000437124 -3.07156e-05 -6.80231e-22)
(-0.000435517 -6.8083e-06 7.09658e-22)
(-0.000433382 -2.82003e-05 -2.78532e-22)
(-0.000432028 -1.00316e-05 -5.72537e-22)
(-0.000427593 -2.56473e-05 6.69879e-22)
(-0.000426457 -1.31642e-05 2.07986e-24)
(-0.000419789 -2.31005e-05 3.78231e-22)
(-0.000418833 -1.61911e-05 2.35857e-22)
(-0.000410021 -2.06028e-05 -3.43258e-22)
(-0.000409209 -1.90973e-05 -1.20645e-21)
(-0.000398357 -1.81942e-05 -1.20065e-22)
(-0.000397664 -2.1866e-05 1.51396e-21)
(-0.000384883 -1.59093e-05 -2.86199e-22)
(-0.000384298 -2.44766e-05 -5.28064e-22)
(-0.000369704 -1.37757e-05 6.56569e-22)
(-0.000369231 -2.69047e-05 -3.19338e-24)
(-0.000352942 -1.18135e-05 9.28604e-23)
(-0.000352603 -2.91215e-05 5.34668e-23)
(-0.00033474 -1.00356e-05 8.48091e-24)
(-0.000334569 -3.10946e-05 1.50849e-23)
(-0.000315258 -8.44832e-06 2.55411e-22)
(-0.000315297 -3.27896e-05 -1.37434e-23)
(-0.00029467 -7.05333e-06 -9.56767e-23)
(-0.000294965 -3.41727e-05 -1.13626e-22)
(-0.000273171 -5.84975e-06 -4.27428e-22)
(-0.000273762 -3.52124e-05 1.57043e-22)
(-0.000250965 -4.83628e-06 -2.00285e-23)
(-0.000251882 -3.58829e-05 2.29026e-22)
(-0.000228268 -4.01329e-06 1.343e-22)
(-0.000229523 -3.6166e-05 -4.71906e-22)
(-0.000205303 -3.38432e-06 5.95199e-22)
(-0.00020689 -3.6053e-05 6.13098e-22)
(-0.000182297 -2.95693e-06 -7.75748e-22)
(-0.000184188 -3.55459e-05 -4.83015e-22)
(-0.000159477 -2.74255e-06 6.26125e-22)
(-0.000161624 -3.46568e-05 3.35014e-23)
(-0.000137067 -2.75555e-06 -4.63962e-22)
(-0.000139406 -3.34075e-05 -3.84909e-22)
(-0.000115282 -3.01132e-06 1.94013e-22)
(-0.000117742 -3.18276e-05 6.0285e-22)
(-9.43284e-05 -3.52396e-06 -4.23627e-23)
(-9.68364e-05 -2.99512e-05 -3.86196e-22)
(-7.44001e-05 -4.30335e-06 -2.71388e-23)
(-7.68885e-05 -2.7815e-05 2.19769e-22)
(-5.56758e-05 -5.35324e-06 -9.57871e-23)
(-5.80909e-05 -2.54543e-05 7.39959e-23)
(-3.83207e-05 -6.66812e-06 3.80859e-22)
(-4.06264e-05 -2.29024e-05 -1.02064e-22)
(-2.24806e-05 -8.23557e-06 -3.52013e-22)
(-2.46603e-05 -2.01859e-05 -2.63753e-23)
(-8.29497e-06 -1.00286e-05 1.60582e-22)
(-1.03509e-05 -1.73322e-05 -5.14366e-23)
(4.14122e-06 -1.20282e-05 -1.48596e-24)
(2.19194e-06 -1.43493e-05 6.9271e-23)
(1.46821e-05 -1.41634e-05 -4.47228e-23)
(1.28116e-05 -1.12891e-05 -1.23916e-23)
(2.34196e-05 -1.64518e-05 -3.86668e-24)
(2.15952e-05 -8.10981e-06 -3.40321e-23)
(2.99593e-05 -1.85033e-05 -2.02229e-23)
(3.32533e-05 -1.74854e-05 -1.56859e-23)
(3.42585e-05 -1.36418e-05 7.54304e-24)
(3.37982e-05 -9.56905e-06 -2.71542e-24)
(3.18822e-05 -5.75091e-06 8.39954e-26)
(2.81511e-05 -5.17756e-06 8.10424e-24)
)
;
    }
    frontAndBackPlanes
    {
        type            empty;
    }
}


// ************************************************************************* //
