/*--------------------------------*- C++ -*----------------------------------*\
| =========                 |                                                 |
| \\      /  F ield         | OpenFOAM Extend Project: Open source CFD        |
|  \\    /   O peration     | Version:  1.6-ext                               |
|   \\  /    A nd           | Web:      www.extend-project.de                 |
|    \\/     M anipulation  |                                                 |
\*---------------------------------------------------------------------------*/
FoamFile
{
    version     2.0;
    format      ascii;
    class       surfaceScalarField;
    location    "0.05";
    object      meshPhi;
}
// * * * * * * * * * * * * * * * * * * * * * * * * * * * * * * * * * * * * * //

dimensions      [0 3 -1 0 0 0 0];

internalField   nonuniform List<scalar> 
570
(
-3.11876e-10
-8.45894e-09
-3.82696e-13
-2.40586e-09
2.92007e-10
-2.30625e-09
-7.73854e-09
-9.48508e-10
-1.01858e-08
-6.53996e-12
-5.31891e-09
8.80875e-10
-5.10359e-09
-9.21648e-09
-1.55209e-09
-1.27205e-08
-2.53768e-11
-8.82339e-09
1.41969e-09
-8.47524e-09
-1.14224e-08
-2.11449e-09
-1.60291e-08
-6.02494e-11
-1.28266e-08
1.89228e-09
-1.23332e-08
-1.43402e-08
-2.64204e-09
-2.00424e-08
-1.15184e-10
-1.73233e-08
2.29503e-09
-1.66733e-08
-1.79121e-08
-3.14682e-09
-2.46691e-08
-1.95521e-10
-2.22803e-08
2.62771e-09
-2.14641e-08
-2.20575e-08
-3.64393e-09
-2.98594e-08
-3.08251e-10
-2.76893e-08
2.89021e-09
-2.66978e-08
-2.67332e-08
-4.15147e-09
-3.55812e-08
-4.62326e-10
-3.35431e-08
3.08187e-09
-3.23679e-08
-3.19111e-08
-4.69041e-09
-4.18229e-08
-6.69067e-10
-3.98463e-08
3.20046e-09
-3.84793e-08
-3.75825e-08
-5.28478e-09
-4.85851e-08
-9.4265e-10
-4.66102e-08
3.24133e-09
-4.50435e-08
-4.37497e-08
-5.9618e-09
-5.58792e-08
-1.30069e-09
-5.38542e-08
3.19631e-09
-5.20803e-08
-5.04255e-08
-6.75217e-09
-6.37241e-08
-1.76493e-09
-6.16049e-08
3.05257e-09
-5.96166e-08
-5.763e-08
-7.69051e-09
-7.21453e-08
-2.36213e-09
-6.98949e-08
2.79129e-09
-6.76855e-08
-6.53906e-08
-8.81609e-09
-8.11738e-08
-3.125e-09
-7.87623e-08
2.3864e-09
-7.63257e-08
-7.37399e-08
-1.01739e-08
-9.08451e-08
-4.09338e-09
-8.82493e-08
1.80328e-09
-8.55802e-08
-8.2716e-08
-1.18159e-08
-1.01198e-07
-5.31565e-09
-9.84014e-08
9.97399e-10
-9.54954e-08
-9.23613e-08
-1.38028e-08
-1.12276e-07
-6.85019e-09
-1.09266e-07
-8.70751e-11
-1.06121e-07
-1.02722e-07
-1.62062e-08
-1.24123e-07
-8.7672e-09
-1.20894e-07
-1.51882e-09
-1.17507e-07
-1.13847e-07
-1.91103e-08
-1.36784e-07
-1.11506e-08
-1.33333e-07
-3.38107e-09
-1.29705e-07
-1.25788e-07
-2.26149e-08
-1.50307e-07
-1.41003e-08
-1.46635e-07
-5.77363e-09
-1.4277e-07
-1.386e-07
-2.68369e-08
-1.64736e-07
-1.77342e-08
-1.60849e-07
-8.81495e-09
-1.56751e-07
-1.52335e-07
-3.19134e-08
-1.80117e-07
-2.21907e-08
-1.76023e-07
-1.26445e-08
-1.71702e-07
-1.67047e-07
-4.09648e-08
-1.97687e-07
-2.98308e-08
-1.93389e-07
-1.88743e-08
-1.88843e-07
-1.83947e-07
-4.56706e-08
-2.1509e-07
-3.46152e-08
-2.10621e-07
-2.37105e-08
-2.05885e-07
-2.00781e-07
-5.05497e-08
-2.32305e-07
-3.95879e-08
-2.27698e-07
-2.87504e-08
-2.22805e-07
-2.17526e-07
-5.55669e-08
-2.49307e-07
-4.47149e-08
-2.44595e-07
-3.39614e-08
-2.39578e-07
-2.34158e-07
-6.06875e-08
-2.66072e-07
-4.99624e-08
-2.61288e-07
-3.93103e-08
-2.56179e-07
-2.50651e-07
-6.58772e-08
-2.82577e-07
-5.52965e-08
-2.77751e-07
-4.47642e-08
-2.72583e-07
-2.66978e-07
-7.11027e-08
-2.98795e-07
-6.06844e-08
-2.9396e-07
-5.02905e-08
-2.88762e-07
-2.83112e-07
-7.63316e-08
-3.14702e-07
-6.60937e-08
-3.09888e-07
-5.58575e-08
-3.0469e-07
-2.99023e-07
-8.15329e-08
-3.30273e-07
-7.14939e-08
-3.25507e-07
-6.14346e-08
-3.20337e-07
-3.14682e-07
-8.66775e-08
-3.45483e-07
-7.68556e-08
-3.40792e-07
-6.6993e-08
-3.35676e-07
-3.3006e-07
-9.17381e-08
-3.60307e-07
-8.21518e-08
-3.55716e-07
-7.25055e-08
-3.50679e-07
-3.45126e-07
-9.669e-08
-3.74721e-07
-8.73576e-08
-3.70252e-07
-7.79472e-08
-3.65316e-07
-3.59849e-07
-1.01511e-07
-3.887e-07
-9.24501e-08
-3.84373e-07
-8.32952e-08
-3.7956e-07
-3.742e-07
-1.0618e-07
-4.0222e-07
-9.74088e-08
-3.98055e-07
-8.85285e-08
-3.93383e-07
-3.8815e-07
-1.10679e-07
-4.15258e-07
-1.02215e-07
-4.1127e-07
-9.36283e-08
-4.06757e-07
-4.01669e-07
-1.14992e-07
-4.27789e-07
-1.06853e-07
-4.23994e-07
-9.85772e-08
-4.19658e-07
-4.14731e-07
-1.19105e-07
-4.39792e-07
-1.11306e-07
-4.36204e-07
-1.03359e-07
-4.32058e-07
-4.27308e-07
-1.23004e-07
-4.51244e-07
-1.15562e-07
-4.47877e-07
-1.0796e-07
-4.43936e-07
-4.39377e-07
-1.26677e-07
-4.62126e-07
-1.19606e-07
-4.58991e-07
-1.12364e-07
-4.55268e-07
-4.50915e-07
-1.30113e-07
-4.72418e-07
-1.23426e-07
-4.69527e-07
-1.16558e-07
-4.66034e-07
-4.61901e-07
-1.333e-07
-4.82104e-07
-1.27009e-07
-4.79467e-07
-1.20529e-07
-4.76216e-07
-4.72315e-07
-1.36228e-07
-4.91168e-07
-1.30344e-07
-4.88795e-07
-1.24263e-07
-4.85797e-07
-4.82142e-07
-1.38887e-07
-4.99598e-07
-1.3342e-07
-4.97497e-07
-1.27747e-07
-4.94763e-07
-4.91365e-07
-1.41268e-07
-5.07384e-07
-1.36224e-07
-5.05564e-07
-1.30968e-07
-5.03103e-07
-4.99973e-07
-1.43361e-07
-5.14519e-07
-1.38747e-07
-5.12987e-07
-1.33914e-07
-5.10807e-07
-5.07956e-07
-1.4516e-07
-5.21001e-07
-1.40979e-07
-5.19761e-07
-1.36574e-07
-5.17868e-07
-5.15305e-07
-1.4666e-07
-5.26828e-07
-1.42913e-07
-5.25884e-07
-1.38938e-07
-5.24284e-07
-5.22015e-07
-1.47855e-07
-5.32003e-07
-1.44542e-07
-5.31357e-07
-1.40998e-07
-5.30053e-07
-5.28085e-07
-1.48745e-07
-5.36533e-07
-1.45863e-07
-5.36184e-07
-1.42748e-07
-5.35179e-07
-5.33516e-07
-1.4933e-07
-5.40426e-07
-1.46873e-07
-5.40373e-07
-1.44184e-07
-5.39667e-07
-5.3831e-07
-1.49611e-07
-5.43696e-07
-1.47573e-07
-5.43935e-07
-1.45303e-07
-5.43526e-07
-5.42476e-07
-1.49594e-07
-5.46359e-07
-1.47965e-07
-5.46884e-07
-1.46107e-07
-5.46769e-07
-5.46024e-07
-1.49284e-07
-5.48432e-07
-1.48053e-07
-5.49237e-07
-1.46595e-07
-5.49412e-07
-5.4897e-07
-1.4869e-07
-5.49937e-07
-1.47843e-07
-5.51014e-07
-1.46773e-07
-5.51473e-07
-5.5133e-07
-1.47821e-07
-5.50898e-07
-1.47341e-07
-5.52239e-07
-1.46644e-07
-5.52975e-07
-5.53127e-07
-1.46686e-07
-5.51343e-07
-1.46556e-07
-5.52938e-07
-1.46215e-07
-5.53944e-07
-5.54384e-07
-1.45295e-07
-5.51302e-07
-1.45495e-07
-5.53141e-07
-1.4549e-07
-5.54409e-07
-5.55131e-07
-1.43659e-07
-5.50805e-07
-1.44167e-07
-5.52878e-07
-1.44478e-07
-5.544e-07
-5.55397e-07
-1.41788e-07
-5.49889e-07
-1.42581e-07
-5.52185e-07
-1.43184e-07
-5.53952e-07
-5.55216e-07
-1.39692e-07
-5.48589e-07
-1.40746e-07
-5.51099e-07
-1.41616e-07
-5.531e-07
-5.54624e-07
-1.37383e-07
-5.46947e-07
-1.38671e-07
-5.49658e-07
-1.39783e-07
-5.51884e-07
-5.53657e-07
-1.34872e-07
-5.45002e-07
-1.36365e-07
-5.47903e-07
-1.37691e-07
-5.50343e-07
-5.52356e-07
-1.32169e-07
-5.42799e-07
-1.33839e-07
-5.45877e-07
-1.35352e-07
-5.48518e-07
-5.5076e-07
-1.29288e-07
-5.40381e-07
-1.31105e-07
-5.43623e-07
-1.32775e-07
-5.46452e-07
-5.48911e-07
-1.26242e-07
-5.37794e-07
-1.28176e-07
-5.41185e-07
-1.29974e-07
-5.4419e-07
-5.46851e-07
-1.23046e-07
-5.35084e-07
-1.25066e-07
-5.3861e-07
-1.26961e-07
-5.41774e-07
-5.44623e-07
-1.19716e-07
-5.32297e-07
-1.2179e-07
-5.35941e-07
-1.23752e-07
-5.3925e-07
-5.4227e-07
-1.16269e-07
-5.29478e-07
-1.18367e-07
-5.33225e-07
-1.20365e-07
-5.36661e-07
-5.39836e-07
-1.12722e-07
-5.26673e-07
-1.14813e-07
-5.30505e-07
-1.16818e-07
-5.34053e-07
-5.37364e-07
-1.09094e-07
-5.23924e-07
-1.11149e-07
-5.27826e-07
-1.13129e-07
-5.31468e-07
-5.34898e-07
-1.05404e-07
-5.21272e-07
-1.07392e-07
-5.25229e-07
-1.09318e-07
-5.28951e-07
-5.32481e-07
-1.01668e-07
-5.18758e-07
-1.03561e-07
-5.22756e-07
-1.05404e-07
-5.26541e-07
-5.30155e-07
-9.79032e-08
-5.1642e-07
-9.96736e-08
-5.20446e-07
-1.01404e-07
-5.2428e-07
-5.27962e-07
-9.4126e-08
-5.14292e-07
-9.57451e-08
-5.18336e-07
-9.7334e-08
-5.22208e-07
-5.2594e-07
-9.0351e-08
-5.12408e-07
-9.17896e-08
-5.16465e-07
-9.32063e-08
-5.20363e-07
-5.2413e-07
-8.65926e-08
-5.10798e-07
-8.78188e-08
-5.1487e-07
-8.90301e-08
-5.18786e-07
-5.22567e-07
-8.28632e-08
-5.09486e-07
-8.38421e-08
-5.13593e-07
-8.48118e-08
-5.17519e-07
-5.2128e-07
-7.91571e-08
-5.08467e-07
-7.98671e-08
-5.12674e-07
-8.05721e-08
-5.16605e-07
-5.2027e-07
-7.54035e-08
-5.07678e-07
-7.58989e-08
-5.12113e-07
-7.63922e-08
-5.16045e-07
-5.19479e-07
-7.13593e-08
-7.19411e-08
-7.2521e-08
)
;

boundaryField
{
    plateFix
    {
        type            calculated;
        value           nonuniform List<scalar> 4(6.39556e-09 -1.98659e-12 -1.88185e-12 5.90299e-09);
    }
    plate
    {
        type            calculated;
        value           nonuniform List<scalar> 
168
(
1.51229e-09
1.36327e-09
2.6339e-09
2.39048e-09
3.67871e-09
3.33067e-09
4.6191e-09
4.14959e-09
5.47568e-09
4.85619e-09
6.28207e-09
5.46953e-09
7.0676e-09
6.00235e-09
7.862e-09
6.46455e-09
8.69408e-09
6.86108e-09
9.59355e-09
7.19265e-09
1.05916e-08
7.45497e-09
1.1722e-08
7.63828e-09
1.30219e-08
7.72636e-09
1.45325e-08
7.6955e-09
1.63007e-08
7.51326e-09
1.83801e-08
7.13716e-09
2.0833e-08
6.51321e-09
2.37318e-08
5.57439e-09
2.71617e-08
4.23878e-09
3.12224e-08
2.40749e-09
3.60307e-08
-3.75309e-11
4.17219e-08
-3.23619e-09
5.21821e-08
-8.06005e-09
5.67927e-08
-1.29307e-08
6.15616e-08
-1.80209e-08
6.64524e-08
-2.32994e-08
7.14297e-08
-2.87339e-08
7.6459e-08
-3.4292e-08
8.15066e-08
-3.99417e-08
8.65401e-08
-4.56518e-08
9.15285e-08
-5.13921e-08
9.64428e-08
-5.7134e-08
1.01256e-07
-6.28505e-08
1.05943e-07
-6.85166e-08
1.10481e-07
-7.41092e-08
1.14851e-07
-7.96071e-08
1.19035e-07
-8.49907e-08
1.23016e-07
-9.0242e-08
1.26782e-07
-9.53442e-08
1.30319e-07
-1.00281e-07
1.33616e-07
-1.05038e-07
1.36663e-07
-1.09599e-07
1.39449e-07
-1.1395e-07
1.41966e-07
-1.18075e-07
1.44205e-07
-1.2196e-07
1.46159e-07
-1.25591e-07
1.47822e-07
-1.28954e-07
1.49187e-07
-1.32036e-07
1.50252e-07
-1.34826e-07
1.51014e-07
-1.37313e-07
1.51475e-07
-1.39489e-07
1.51635e-07
-1.41348e-07
1.51501e-07
-1.42885e-07
1.51079e-07
-1.44099e-07
1.50377e-07
-1.44988e-07
1.49404e-07
-1.45554e-07
1.48173e-07
-1.45799e-07
1.46693e-07
-1.45727e-07
1.44978e-07
-1.45341e-07
1.4304e-07
-1.44646e-07
1.4089e-07
-1.43647e-07
1.38541e-07
-1.4235e-07
1.36005e-07
-1.40762e-07
1.33295e-07
-1.3889e-07
1.30422e-07
-1.36742e-07
1.27401e-07
-1.34328e-07
1.24246e-07
-1.31661e-07
1.20971e-07
-1.28753e-07
1.17594e-07
-1.25619e-07
1.1413e-07
-1.22277e-07
1.10598e-07
-1.18745e-07
1.07014e-07
-1.15041e-07
1.03396e-07
-1.11186e-07
9.976e-08
-1.07198e-07
9.61224e-08
-1.03096e-07
9.24976e-08
-9.88952e-08
8.88994e-08
-9.46098e-08
8.53414e-08
-9.02491e-08
8.18357e-08
-8.58199e-08
7.83679e-08
-8.13516e-08
7.48341e-08
-7.69589e-08
7.08172e-08
-5.07183e-07
-5.11808e-07
-5.15739e-07
-5.18981e-07
-7.30618e-08
)
;
    }
    frontAndBackPlanes
    {
        type            empty;
    }
}


// ************************************************************************* //
