/*--------------------------------*- C++ -*----------------------------------*\
| =========                 |                                                 |
| \\      /  F ield         | OpenFOAM Extend Project: Open source CFD        |
|  \\    /   O peration     | Version:  1.6-ext                               |
|   \\  /    A nd           | Web:      www.extend-project.de                 |
|    \\/     M anipulation  |                                                 |
\*---------------------------------------------------------------------------*/
FoamFile
{
    version     2.0;
    format      ascii;
    class       volScalarField;
    location    "0.05";
    object      sigmaEq;
}
// * * * * * * * * * * * * * * * * * * * * * * * * * * * * * * * * * * * * * //

dimensions      [1 -1 -2 0 0 0 0];

internalField   nonuniform List<scalar> 
328
(
11.6185
8.87689
8.82344
11.8177
9.72962
6.86874
6.86922
9.96726
9.0341
6.55114
6.64363
9.34173
9.02357
7.45905
7.59905
9.3634
9.30327
8.57174
8.72798
9.65782
9.57715
9.48972
9.64646
9.93221
9.80276
10.147
10.2991
10.1528
9.96631
10.5519
10.6973
10.3079
10.0837
10.7622
10.9007
10.4151
10.1658
10.8332
10.9646
10.4854
10.2222
10.8166
10.9411
10.5286
10.2582
10.7516
10.8691
10.55
10.2777
10.6658
10.7763
10.5535
10.2833
10.5764
10.6796
10.5417
10.277
10.4922
10.5878
10.5169
10.2607
10.4162
10.504
10.4809
10.2359
10.3482
10.4278
10.4355
10.2038
10.286
10.3571
10.382
10.1653
10.2267
10.2891
10.3215
10.1209
10.1676
10.2211
10.2546
10.0708
10.1067
10.1511
10.1817
10.0152
10.0422
10.0775
10.1031
9.95192
9.97046
9.99629
10.0161
9.8804
9.89171
9.90821
9.92127
9.80702
9.81189
9.81985
9.82652
9.73182
9.73091
9.73107
9.73186
9.65515
9.64902
9.64211
9.63755
9.57714
9.56631
9.55301
9.54367
9.49792
9.48291
9.46389
9.45028
9.4176
9.39888
9.37479
9.35743
9.33626
9.31431
9.28577
9.26515
9.25399
9.22925
9.19687
9.17346
9.17088
9.14379
9.10813
9.08237
9.087
9.05797
9.01959
8.9919
9.00244
8.97186
8.93127
8.90206
8.91727
8.88552
8.84322
8.81288
8.83158
8.79901
8.75548
8.72436
8.74547
8.7124
8.66808
8.63652
8.65901
8.62577
8.58107
8.54938
8.57233
8.53918
8.4945
8.46296
8.48551
8.45272
8.4084
8.37729
8.39867
8.36648
8.32285
8.2924
8.31193
8.28055
8.23788
8.2083
8.2254
8.19501
8.15357
8.12505
8.13922
8.10997
8.06998
8.04266
8.05352
8.02553
7.98717
7.96119
7.96842
7.9418
7.90522
7.88067
7.88406
7.85888
7.8242
7.80116
7.80056
7.77688
7.74418
7.72271
7.71806
7.69591
7.66525
7.64537
7.63668
7.61607
7.58748
7.56921
7.55654
7.53746
7.51096
7.49429
7.47777
7.4602
7.43577
7.42068
7.40047
7.38438
7.36198
7.34843
7.32476
7.31009
7.28969
7.27763
7.25072
7.23743
7.21895
7.20833
7.17847
7.16648
7.14986
7.14061
7.10808
7.09733
7.08248
7.07452
7.03964
7.03004
7.01687
7.01013
6.97321
6.9647
6.9531
6.9475
6.90888
6.90135
6.89123
6.88667
6.84668
6.84006
6.83131
6.8277
6.78669
6.78088
6.77337
6.77063
6.72892
6.72385
6.71748
6.71551
6.67343
6.669
6.66365
6.66237
6.62023
6.61637
6.61193
6.61125
6.56934
6.56597
6.56233
6.56218
6.52078
6.51781
6.51488
6.51518
6.47454
6.47192
6.4696
6.47028
6.43064
6.4283
6.42651
6.42751
6.38907
6.38695
6.38559
6.38687
6.34982
6.34785
6.34687
6.34837
6.31287
6.31101
6.31033
6.31203
6.27823
6.2764
6.27597
6.27785
6.24586
6.24396
6.24372
6.24581
6.21574
6.21366
6.21357
6.21593
6.18773
6.1853
6.18532
6.18805
6.1618
6.15902
6.15911
6.16216
6.1372
6.13458
6.1347
6.13754
6.11424
6.11489
6.115
6.11451
6.09266
6.10194
6.10203
6.09283
6.09236
6.12041
6.12048
6.09247
)
;

boundaryField
{
    plateFix
    {
        type            calculated;
        value           nonuniform List<scalar> 4(14.3281 9.43468 9.36213 14.5698);
    }
    plate
    {
        type            calculated;
        value           nonuniform List<scalar> 
168
(
8.08756
8.34866
8.42195
8.72566
8.98555
9.34328
9.25331
9.62714
9.49
9.87251
9.64317
10.0246
9.7751
10.1515
9.88479
10.2528
9.9826
10.3399
10.0665
10.4113
10.1358
10.4662
10.1887
10.5031
10.2247
10.5217
10.2444
10.5225
10.2492
10.5072
10.241
10.4779
10.2219
10.4366
10.1937
10.3854
10.1578
10.3258
10.1151
10.2591
10.0663
10.1858
10.0118
10.1065
9.94975
10.0191
9.87898
9.9233
9.80638
9.82773
9.73188
9.73227
9.65586
9.63725
9.57845
9.54271
9.49978
9.44873
9.41994
9.35535
9.33905
9.26259
9.25718
9.17048
9.17441
9.07902
9.09083
8.98823
9.00652
8.89813
8.92156
8.80873
8.83605
8.72004
8.75006
8.63207
8.6637
8.54485
8.57707
8.45839
8.49027
8.37271
8.40342
8.28785
8.31664
8.20382
8.23006
8.12065
8.14379
8.03838
8.05798
7.95706
7.97275
7.8767
7.88825
7.79738
7.8046
7.71912
7.72194
7.64199
7.64039
7.56605
7.56008
7.49135
7.48113
7.41797
7.40366
7.34595
7.32777
7.27538
7.25356
7.20631
7.18114
7.13881
7.11058
7.07294
7.04198
7.00876
6.9754
6.94633
6.91091
6.8857
6.84858
6.82692
6.78844
6.77003
6.73056
6.71508
6.67495
6.6621
6.62164
6.61113
6.57066
6.56219
6.52201
6.51532
6.47571
6.47054
6.43174
6.42786
6.39012
6.38732
6.35083
6.34892
6.31386
6.31267
6.27921
6.27859
6.24687
6.24667
6.21685
6.21695
6.18909
6.18938
6.16369
6.16409
6.1403
6.14072
6.11918
6.11955
6.09864
6.09894
6.07749
6.1024
6.11824
6.11831
6.10253
6.0777
)
;
    }
    frontAndBackPlanes
    {
        type            empty;
    }
}


// ************************************************************************* //
