/*--------------------------------*- C++ -*----------------------------------*\
| =========                 |                                                 |
| \\      /  F ield         | OpenFOAM Extend Project: Open source CFD        |
|  \\    /   O peration     | Version:  1.6-ext                               |
|   \\  /    A nd           | Web:      www.extend-project.de                 |
|    \\/     M anipulation  |                                                 |
\*---------------------------------------------------------------------------*/
FoamFile
{
    version     2.0;
    format      ascii;
    class       volSymmTensorField;
    location    "0.05";
    object      sigma;
}
// * * * * * * * * * * * * * * * * * * * * * * * * * * * * * * * * * * * * * //

dimensions      [1 -1 -2 0 0 0 0];

internalField   nonuniform List<symmTensor> 
328
(
(-24.2265 6.01121 -1.48736e-21 -25.7502 1.43912e-21 -20.0041)
(-28.1817 2.69842 6.4012e-24 -21.6225 3.00534e-23 -19.9334)
(-27.9881 -2.72222 3.74982e-23 -21.5373 1.46225e-23 -19.8218)
(-23.4048 -6.13077 -7.30957e-22 -25.4552 -4.84009e-20 -19.5571)
(-26.3585 4.16544 1.27512e-21 -30.1599 4.7086e-19 -22.6223)
(-28.1265 2.23451 1.9574e-23 -26.1776 9.02359e-23 -21.7343)
(-27.9349 -2.28648 -3.12886e-23 -26.1519 2.95754e-23 -21.6473)
(-25.58 -4.25382 1.45013e-21 -29.9585 6.10475e-19 -22.2301)
(-26.9216 2.62113 -6.68602e-22 -32.761 -5.14638e-19 -23.889)
(-26.6619 1.71586 -3.30206e-22 -28.8094 2.09596e-22 -22.2016)
(-26.4566 -1.78732 2.20464e-22 -28.81 -1.90403e-22 -22.1196)
(-26.1573 -2.6878 -5.18101e-21 -32.6115 -5.0578e-19 -23.5232)
(-27.6177 1.50372 3.9429e-22 -34.564 -1.10782e-18 -24.8898)
(-26.2812 1.17131 1.58191e-22 -31.2583 -1.73333e-23 -23.0301)
(-26.0786 -1.25453 -7.99087e-22 -31.2797 -2.13517e-22 -22.9576)
(-26.8773 -1.55666 1.85086e-21 -34.4493 -4.70886e-19 -24.5476)
(-27.8888 0.758208 6.32607e-22 -35.6115 1.43244e-18 -25.418)
(-25.8326 0.694268 1.68911e-22 -32.9214 -4.01256e-23 -23.5169)
(-25.6322 -0.78342 9.60753e-22 -32.9528 -4.41771e-22 -23.4493)
(-27.1686 -0.803085 3.20048e-21 -35.5165 -5.34015e-20 -25.0918)
(-28.0341 0.279758 2.35631e-22 -36.2334 -4.22063e-19 -25.7254)
(-25.7215 0.312742 -1.42022e-22 -34.2099 -1.80008e-22 -23.9889)
(-25.5275 -0.404558 -6.5289e-22 -34.2475 2.94851e-22 -23.9263)
(-27.3362 -0.320047 -1.04164e-21 -36.1504 4.7871e-19 -25.4129)
(-28.0194 -0.00598812 -1.80923e-22 -36.5546 5.91979e-20 -25.8483)
(-25.691 0.0409218 4.4084e-23 -35.0877 -9.04214e-23 -24.3286)
(-25.504 -0.133327 -1.75989e-23 -35.1278 3.44537e-22 -24.2698)
(-27.3442 -0.0317984 -9.68186e-22 -36.4787 -1.50645e-18 -25.5477)
(-27.9268 -0.161706 -7.37886e-22 -36.6999 -1.89155e-20 -25.8695)
(-25.7783 -0.132323 -4.46794e-22 -35.6926 5.39448e-23 -24.606)
(-25.5993 0.0404492 -2.22897e-23 -35.7336 -5.25758e-22 -24.5508)
(-27.2758 0.125295 5.81144e-22 -36.6287 7.20765e-19 -25.5805)
(-27.7822 -0.23131 1.58445e-22 -36.7367 1.12552e-20 -25.8264)
(-25.9075 -0.224218 3.84543e-22 -36.0717 6.25424e-24 -24.8097)
(-25.7367 0.133515 3.61302e-22 -36.1124 2.77646e-22 -24.7577)
(-27.1568 0.195706 -5.6202e-22 -36.6689 -3.39534e-19 -25.549)
(-27.6209 -0.248058 -2.2193e-22 -36.7138 6.20948e-19 -25.7527)
(-26.0634 -0.257029 -1.97274e-22 -36.2943 -3.53629e-24 -24.9613)
(-25.9013 0.167839 -3.38171e-22 -36.3341 -9.91189e-23 -24.9124)
(-27.0226 0.213023 3.00227e-22 -36.6492 3.03402e-19 -25.4874)
(-27.4623 -0.235023 2.14613e-22 -36.6601 -9.18383e-19 -25.6677)
(-26.218 -0.251234 7.14144e-23 -36.4045 -2.13202e-23 -25.0673)
(-26.0645 0.163763 2.92613e-22 -36.443 1.07605e-22 -25.0214)
(-26.8926 0.200492 -8.85035e-23 -36.5986 -6.4379e-20 -25.4151)
(-27.3209 -0.20824 1.00295e-22 -36.5937 -4.53025e-19 -25.5845)
(-26.36 -0.224272 9.15686e-23 -36.442 9.01829e-24 -25.1392)
(-26.2154 0.13866 2.04055e-23 -36.4789 2.30393e-23 -25.0961)
(-26.7815 0.174236 6.15332e-22 -36.5355 -2.03793e-19 -25.3453)
(-27.2037 -0.177903 -2.06307e-22 -36.5246 -1.00993e-21 -25.5099)
(-26.481 -0.188958 -9.37477e-23 -36.4343 -7.89154e-24 -25.1845)
(-26.3455 0.105327 -3.29327e-22 -36.4694 -6.81899e-23 -25.1444)
(-26.696 0.144488 -1.51795e-22 -36.4699 -4.56316e-19 -25.2848)
(-27.1127 -0.149966 4.14479e-22 -36.458 3.05583e-19 -25.4468)
(-26.5795 -0.153762 2.58845e-22 -36.4015 1.28586e-23 -25.2108)
(-26.4532 0.0722342 4.24082e-22 -36.4345 1.12784e-22 -25.1735)
(-26.6384 0.11722 8.54643e-23 -36.4071 8.39148e-19 -25.2366)
(-27.0467 -0.127241 2.25715e-22 -36.3956 3.38832e-19 -25.3954)
(-26.6565 -0.123324 -1.55302e-22 -36.3563 2.35607e-23 -25.2234)
(-26.5398 0.0440332 -3.71068e-22 -36.3872 4.07549e-23 -25.1891)
(-26.6071 0.095247 5.80138e-23 -36.3487 -5.83773e-19 -25.2007)
(-27.0021 -0.11046 -3.69852e-22 -36.3372 -3.39135e-19 -25.3541)
(-26.7157 -0.0994625 -2.34665e-24 -36.306 -2.92991e-23 -25.227)
(-26.6088 0.0225535 -2.56532e-22 -36.3346 9.33202e-24 -25.1957)
(-26.5988 0.079303 1.31622e-22 -36.2945 4.62535e-19 -25.1756)
(-26.9746 -0.0990999 -4.06979e-22 -36.2814 -1.42474e-19 -25.3207)
(-26.7613 -0.0821265 2.40123e-22 -36.2542 4.28307e-23 -25.2245)
(-26.6645 0.00776001 3.39315e-22 -36.2804 -1.42185e-22 -25.1962)
(-26.6091 0.0688671 -6.5931e-22 -36.2431 9.21523e-20 -25.1591)
(-26.9602 -0.0920541 1.87722e-22 -36.2264 4.28152e-19 -25.2929)
(-26.7978 -0.0702726 -8.35688e-23 -36.2018 -1.62902e-23 -25.2181)
(-26.7114 -0.00137755 -4.09244e-22 -36.2254 5.91812e-23 -25.1929)
(-26.6336 0.0628319 4.69904e-22 -36.1927 2.32484e-19 -25.1487)
(-26.9553 -0.0880704 -1.61695e-22 -36.1705 -5.58106e-20 -25.2685)
(-26.8288 -0.0625019 2.49466e-22 -36.1484 4.95317e-23 -25.209)
(-26.753 -0.00624629 8.61361e-23 -36.1694 6.62368e-23 -25.1871)
(-26.6689 0.0599464 2.34515e-22 -36.1415 -4.57318e-19 -25.1423)
(-26.9571 -0.0860222 6.83736e-22 -36.1122 -3.69934e-19 -25.2459)
(-26.8573 -0.0574674 -4.18689e-22 -36.0929 -1.38914e-22 -25.1982)
(-26.7923 -0.00818101 3.69026e-22 -36.1112 1.17371e-22 -25.1795)
(-26.7119 0.0590852 -2.78585e-22 -36.0881 1.79273e-19 -25.1381)
(-26.9642 -0.0850834 7.51346e-23 -36.0503 1.47382e-19 -25.2239)
(-26.8855 -0.05411 -2.36317e-23 -36.0343 -3.81309e-25 -25.186)
(-26.8316 -0.00823677 -1.04383e-21 -36.0498 -8.52944e-23 -25.1707)
(-26.7609 0.059422 6.90294e-22 -36.0312 -2.74254e-19 -25.1349)
(-26.9745 -0.0844365 -2.56527e-22 -35.9835 4.26472e-19 -25.2012)
(-26.9145 -0.051602 -2.88181e-23 -35.9713 -6.18375e-23 -25.1723)
(-26.8718 -0.00720646 -3.68535e-22 -35.984 1.16184e-23 -25.1603)
(-26.8138 0.0601571 2.27703e-22 -35.9695 5.52472e-19 -25.1313)
(-26.9898 -0.0847496 -2.10057e-21 -35.9102 -4.57507e-19 -25.178)
(-26.9474 -0.0495082 -5.77971e-22 -35.9012 1.20048e-22 -25.1574)
(-26.9163 -0.00518243 -4.75226e-22 -35.911 -1.55937e-22 -25.1489)
(-26.8733 0.0621155 -3.04728e-22 -35.9013 -4.84218e-19 -25.1278)
(-27.0082 -0.085795 3.21541e-22 -35.828 1.28057e-19 -25.1524)
(-26.9829 -0.0479652 7.41978e-22 -35.8235 2.53098e-22 -25.1404)
(-26.9634 -0.00299519 1.07274e-21 -35.8303 -1.72626e-22 -25.1354)
(-26.9356 0.0646255 -7.71128e-22 -35.8242 1.35369e-19 -25.1218)
(-27.0305 -0.0862801 5.94213e-22 -35.746 -1.12125e-20 -25.1284)
(-27.0201 -0.0464406 -1.34312e-21 -35.7452 -3.18613e-22 -25.124)
(-27.0114 -0.000897644 4.99564e-22 -35.7494 6.21757e-23 -25.1221)
(-26.9987 0.0665421 -1.72727e-22 -35.747 4.50964e-19 -25.1161)
(-27.0546 -0.0866841 -4.32965e-23 -35.6626 2.33452e-19 -25.1047)
(-27.0582 -0.0449743 1.85026e-21 -35.6655 5.28617e-22 -25.1073)
(-27.0594 0.00118939 2.10175e-22 -35.6672 -5.79368e-23 -25.1084)
(-27.0605 0.0683662 -1.70709e-21 -35.6681 -3.26716e-19 -25.1092)
(-27.0813 -0.0868844 -2.03932e-21 -35.579 -3.79165e-19 -25.0818)
(-27.0976 -0.043496 -7.68563e-22 -35.5851 2.4106e-23 -25.0908)
(-27.108 0.00319216 -2.16997e-21 -35.5845 5.49606e-23 -25.0947)
(-27.1219 0.0699671 1.82215e-21 -35.5886 2.33363e-19 -25.1019)
(-27.1101 -0.0870045 1.5703e-22 -35.4947 1.44669e-19 -25.0596)
(-27.1381 -0.0420328 -1.22262e-21 -35.5038 -8.25311e-23 -25.0744)
(-27.1568 0.0051341 2.95061e-21 -35.5011 2.48767e-22 -25.0808)
(-27.1825 0.0714642 -4.45455e-22 -35.508 -2.3714e-19 -25.0938)
(-27.1412 -0.0870309 -2.09273e-22 -35.4101 -1.34616e-19 -25.0381)
(-27.1797 -0.0405787 4.01735e-22 -35.4219 -3.9782e-22 -25.0582)
(-27.206 0.00700391 1.0054e-21 -35.4172 1.86752e-22 -25.0669)
(-27.2425 0.0728408 -5.72522e-23 -35.4268 -2.43494e-19 -25.0853)
(-27.1744 -0.0870005 -7.0437e-22 -35.325 1.45054e-19 -25.0172)
(-27.2225 -0.0391446 9.81701e-22 -35.3394 8.09073e-23 -25.0422)
(-27.2557 0.00880953 -2.01973e-21 -35.3329 1.22239e-22 -25.0529)
(-27.3018 0.0741317 2.84045e-22 -35.3448 3.5525e-19 -25.0762)
(-27.2097 -0.0869172 1.17685e-21 -35.2397 -1.86202e-20 -24.9972)
(-27.2664 -0.0377323 -5.31156e-22 -35.2563 -1.99891e-22 -25.0265)
(-27.3057 0.0105504 1.54733e-21 -35.2483 1.87144e-22 -25.039)
(-27.3605 0.0753391 -2.21468e-22 -35.2623 -1.09888e-19 -25.0666)
(-27.2471 -0.0867958 -9.73992e-22 -35.1542 1.24701e-19 -24.9779)
(-27.3114 -0.0363465 -5.66489e-22 -35.1727 1.59531e-22 -25.011)
(-27.3563 0.0122299 -1.62159e-21 -35.1633 -1.26568e-23 -25.0252)
(-27.4188 0.0764766 2.28742e-22 -35.1792 -5.72977e-21 -25.0566)
(-27.2867 -0.0866425 7.41671e-22 -35.0684 -1.09937e-19 -24.9593)
(-27.3577 -0.0349897 -1.95132e-21 -35.0886 -3.58267e-22 -24.9958)
(-27.4073 0.0138493 -2.31221e-24 -35.078 2.63549e-22 -25.0114)
(-27.4766 0.0775494 6.62575e-22 -35.0955 1.1655e-19 -25.0462)
(-27.3283 -0.0864654 -5.72422e-23 -34.9824 5.28488e-20 -24.9415)
(-27.4051 -0.0336648 1.44231e-21 -35.0041 3.56647e-22 -24.9809)
(-27.4589 0.0154101 1.50078e-21 -34.9924 -2.97816e-22 -24.9978)
(-27.5341 0.0785643 -7.11356e-22 -35.0114 -2.48239e-19 -25.0355)
(-27.372 -0.0862701 1.71473e-21 -34.8963 -6.21824e-20 -24.9245)
(-27.4536 -0.0323747 -1.94179e-21 -34.9193 -9.11021e-23 -24.9664)
(-27.511 0.0169128 8.33174e-22 -34.9067 -1.62258e-22 -24.9843)
(-27.5912 0.0795255 9.68861e-22 -34.9268 1.38556e-19 -25.0244)
(-27.4177 -0.0860621 -2.21454e-23 -34.81 7.18026e-20 -24.9082)
(-27.5034 -0.0311226 2.88615e-22 -34.834 -1.29752e-22 -24.9521)
(-27.5638 0.0183571 -2.75643e-21 -34.8207 2.25499e-22 -24.9709)
(-27.6481 0.0804366 -1.93861e-22 -34.8418 -1.09516e-20 -25.0131)
(-27.4654 -0.0858465 1.30038e-22 -34.7236 -6.8414e-20 -24.8927)
(-27.5544 -0.0299125 -4.95448e-22 -34.7485 9.67298e-23 -24.9382)
(-27.6171 0.0197416 9.04125e-22 -34.7345 5.8037e-23 -24.9577)
(-27.7048 0.0812999 6.51849e-22 -34.7564 2.59369e-21 -25.0016)
(-27.5151 -0.0856279 1.59553e-22 -34.6372 5.87691e-20 -24.8779)
(-27.6066 -0.0287488 -6.7929e-22 -34.6626 -7.29497e-23 -24.9247)
(-27.6711 0.0210639 -2.65878e-22 -34.6481 -6.56184e-23 -24.9447)
(-27.7613 0.0821171 -5.24095e-22 -34.6707 -1.26487e-21 -24.9898)
(-27.5667 -0.0854109 -1.68196e-22 -34.5506 -6.44024e-20 -24.8638)
(-27.66 -0.0276369 -3.81001e-22 -34.5765 -9.61355e-23 -24.9115)
(-27.7258 0.0223206 -2.54127e-22 -34.5617 5.41286e-23 -24.9319)
(-27.8177 0.0828886 1.10775e-21 -34.5846 1.13879e-19 -24.9779)
(-27.6202 -0.0851998 4.58136e-22 -34.4639 1.78566e-19 -24.8505)
(-27.7145 -0.0265822 -8.86573e-22 -34.4901 -2.0197e-22 -24.8987)
(-27.7811 0.0235078 -1.93031e-22 -34.475 -7.81745e-24 -24.9193)
(-27.8741 0.0836148 1.5479e-23 -34.4982 -1.74474e-19 -24.9659)
(-27.6754 -0.0849988 9.24659e-22 -34.3772 2.4121e-21 -24.8379)
(-27.7701 -0.0255908 -5.09368e-22 -34.4034 -6.47005e-23 -24.8863)
(-27.837 0.024621 4.96336e-22 -34.3883 1.5334e-22 -24.907)
(-27.9305 0.0842951 -5.19834e-22 -34.4115 5.83714e-20 -24.9537)
(-27.7324 -0.0848115 2.73459e-22 -34.2904 -1.76179e-19 -24.8259)
(-27.8269 -0.0246682 -5.5683e-22 -34.3165 -3.13956e-22 -24.8742)
(-27.8936 0.0256558 6.24126e-22 -34.3014 1.18355e-22 -24.8948)
(-27.9869 0.0849289 -1.06751e-21 -34.3246 5.58728e-22 -24.9414)
(-27.7911 -0.0846413 1.8829e-22 -34.2036 -2.39417e-21 -24.8145)
(-27.8847 -0.0238196 3.6765e-22 -34.2294 3.08403e-22 -24.8624)
(-27.9509 0.0266081 -4.0472e-22 -34.2144 -1.13882e-22 -24.8829)
(-28.0433 0.0855157 8.41239e-22 -34.2373 -4.06914e-21 -24.9291)
(-27.8512 -0.0844911 -3.16462e-22 -34.1166 -1.1338e-19 -24.8038)
(-27.9435 -0.0230492 -3.29848e-22 -34.1422 -1.06916e-22 -24.851)
(-28.0088 0.0274746 4.90505e-22 -34.1273 1.08539e-22 -24.8711)
(-28.0999 0.0860551 -5.97078e-22 -34.1499 1.24788e-19 -24.9167)
(-27.9128 -0.0843629 2.12062e-22 -34.0297 8.78503e-22 -24.7936)
(-28.0033 -0.0223601 4.52734e-23 -34.0547 7.87705e-23 -24.8398)
(-28.0673 0.0282533 2.26258e-23 -34.0401 1.94734e-23 -24.8596)
(-28.1566 0.0865469 -8.4239e-23 -34.0622 -1.2245e-19 -24.9042)
(-27.9756 -0.0842582 -2.44195e-22 -33.9426 1.10372e-19 -24.7839)
(-28.064 -0.0217538 4.25366e-22 -33.967 -6.94578e-24 -24.829)
(-28.1264 0.0289433 -1.31075e-22 -33.9528 -5.05372e-25 -24.8483)
(-28.2135 0.0869915 -5.66432e-23 -33.9744 -1.15919e-19 -24.8918)
(-28.0397 -0.0841778 -4.72416e-23 -33.8555 -1.04972e-19 -24.7746)
(-28.1254 -0.0212302 3.07272e-22 -33.8792 6.57183e-23 -24.8184)
(-28.1861 0.0295456 4.31775e-23 -33.8654 4.34592e-24 -24.8371)
(-28.2705 0.08739 8.01566e-23 -33.8863 1.70616e-19 -24.8793)
(-28.1047 -0.0841216 8.00521e-23 -33.7684 1.14323e-19 -24.7657)
(-28.1876 -0.0207878 2.18721e-22 -33.7913 -3.67181e-23 -24.808)
(-28.2462 0.0300623 -1.32331e-22 -33.7779 -4.33275e-23 -24.8261)
(-28.3278 0.0877439 -3.4034e-22 -33.7981 -5.35177e-20 -24.8669)
(-28.1707 -0.0840891 3.41547e-22 -33.6811 -4.9787e-21 -24.7571)
(-28.2504 -0.0204234 -2.83878e-22 -33.7032 -2.30029e-23 -24.7979)
(-28.3068 0.0304971 -3.24572e-22 -33.6903 7.23269e-23 -24.8153)
(-28.3852 0.0880552 -8.08614e-22 -33.7098 -5.49414e-20 -24.8545)
(-28.2374 -0.0840792 2.82744e-22 -33.5938 1.46785e-21 -24.7488)
(-28.3138 -0.0201328 -1.77898e-22 -33.615 -2.1001e-23 -24.7879)
(-28.3678 0.030855 -2.63713e-22 -33.6027 4.38503e-23 -24.8046)
(-28.4428 0.0883266 1.00289e-21 -33.6213 7.36506e-22 -24.8421)
(-28.3048 -0.0840904 6.84077e-23 -33.5064 -3.77837e-21 -24.7408)
(-28.3776 -0.0199109 4.07799e-22 -33.5266 3.51276e-23 -24.778)
(-28.4292 0.0311415 3.22764e-22 -33.5149 -6.30925e-23 -24.794)
(-28.5006 0.088561 1.71029e-22 -33.5327 4.30066e-20 -24.8297)
(-28.3726 -0.0841212 4.0482e-22 -33.4189 -1.01827e-19 -24.7329)
(-28.4418 -0.0197523 1.48e-22 -33.4381 1.47282e-22 -24.7683)
(-28.4908 0.0313628 -2.29934e-23 -33.427 4.28287e-23 -24.7834)
(-28.5586 0.0887615 3.7928e-22 -33.4439 4.89851e-21 -24.8173)
(-28.4408 -0.0841698 9.39167e-23 -33.3314 1.69164e-19 -24.7251)
(-28.5063 -0.0196512 -3.46775e-22 -33.3496 -6.49738e-23 -24.7586)
(-28.5526 0.031525 -1.08816e-21 -33.3391 1.28925e-22 -24.773)
(-28.6166 0.0889314 7.8744e-22 -33.355 -1.59702e-19 -24.805)
(-28.5093 -0.084235 3.04026e-22 -33.2437 -7.01165e-20 -24.7174)
(-28.571 -0.0196024 9.29803e-23 -33.2609 -1.14031e-22 -24.749)
(-28.6146 0.031634 -6.71343e-22 -33.2511 -1.00151e-22 -24.7625)
(-28.6748 0.0890736 1.52186e-22 -33.2661 -1.57455e-20 -24.7926)
(-28.5779 -0.0843155 -1.30282e-22 -33.1559 7.23514e-21 -24.7096)
(-28.6358 -0.0196011 5.36927e-22 -33.1721 1.91695e-23 -24.7393)
(-28.6767 0.0316951 3.26156e-22 -33.1629 1.0713e-22 -24.752)
(-28.733 0.0891913 -2.45137e-22 -33.177 1.87879e-19 -24.7802)
(-28.6464 -0.0844106 4.80573e-22 -33.0681 2.99301e-21 -24.7019)
(-28.7006 -0.0196434 7.54484e-23 -33.0832 1.95011e-22 -24.7296)
(-28.7388 0.0317129 -2.90858e-22 -33.0747 -7.25651e-23 -24.7415)
(-28.7913 0.0892873 -3.73316e-23 -33.0879 -8.33891e-21 -24.7678)
(-28.7149 -0.08452 -3.9064e-22 -32.9801 -3.38614e-21 -24.694)
(-28.7652 -0.0197261 -2.3458e-22 -32.9942 -7.26685e-23 -24.7199)
(-28.8007 0.0316911 3.64569e-22 -32.9864 -2.38907e-23 -24.7309)
(-28.8494 0.089364 3.08766e-22 -32.9986 -6.19822e-20 -24.7553)
(-28.7831 -0.0846437 1.65103e-22 -32.892 5.70175e-20 -24.6861)
(-28.8297 -0.0198467 5.47332e-22 -32.9052 5.96345e-23 -24.71)
(-28.8626 0.0316329 -1.40647e-21 -32.8979 -1.91536e-22 -24.7203)
(-28.9075 0.0894238 3.37137e-22 -32.9092 -5.56449e-20 -24.7428)
(-28.851 -0.0847821 6.3586e-22 -32.8038 -5.88498e-20 -24.6779)
(-28.894 -0.0200033 5.85962e-23 -32.816 -1.59086e-22 -24.7)
(-28.9243 0.031541 -2.98466e-22 -32.8094 7.32858e-23 -24.7095)
(-28.9655 0.0894693 -2.72201e-22 -32.8198 8.96026e-20 -24.7302)
(-28.9184 -0.084936 2.58319e-22 -32.7154 5.32359e-20 -24.6695)
(-28.9579 -0.020194 2.55663e-22 -32.7267 -9.0161e-24 -24.6898)
(-28.9856 0.0314179 -7.13587e-22 -32.7207 -2.14876e-24 -24.6985)
(-29.0233 0.0895027 4.63402e-22 -32.7302 2.56667e-20 -24.7174)
(-28.9854 -0.0851061 -4.47457e-22 -32.627 4.80961e-21 -24.6608)
(-29.0214 -0.0204171 6.55944e-23 -32.6372 -2.31174e-23 -24.6794)
(-29.0467 0.0312663 1.19505e-21 -32.6319 -2.28853e-22 -24.6874)
(-29.0809 0.0895269 9.20061e-22 -32.6406 -3.20273e-21 -24.7045)
(-29.0517 -0.0852934 -6.41131e-22 -32.5383 -2.6756e-20 -24.6519)
(-29.0845 -0.0206705 -1.20487e-23 -32.5477 1.11315e-22 -24.6688)
(-29.1074 0.0310894 -6.84144e-22 -32.5429 -8.04484e-23 -24.676)
(-29.1383 0.089545 -9.85144e-22 -32.5508 6.63283e-20 -24.6915)
(-29.1174 -0.0854988 1.25458e-21 -32.4495 -5.77115e-20 -24.6426)
(-29.147 -0.0209514 6.9632e-22 -32.458 -6.47773e-23 -24.6579)
(-29.1676 0.0308911 1.23707e-22 -32.4538 -2.28158e-22 -24.6644)
(-29.1953 0.0895607 -1.88153e-22 -32.4609 -1.1796e-19 -24.6784)
(-29.1823 -0.0857233 2.49278e-22 -32.3605 2.36973e-20 -24.6329)
(-29.2089 -0.0212565 -1.06099e-21 -32.3682 -3.39393e-22 -24.6467)
(-29.2274 0.0306761 -1.48499e-22 -32.3645 1.91437e-22 -24.6526)
(-29.2521 0.0895784 5.31224e-22 -32.3709 1.15648e-19 -24.665)
(-29.2464 -0.085968 -2.1487e-22 -32.2712 -2.28761e-20 -24.6228)
(-29.2702 -0.0215816 -7.55427e-22 -32.2782 -1.60622e-22 -24.6351)
(-29.2867 0.0304501 1.785e-22 -32.2749 2.05547e-22 -24.6404)
(-29.3085 0.0896033 -2.78546e-22 -32.2807 -1.21366e-19 -24.6515)
(-29.3097 -0.0862346 -3.82285e-22 -32.1817 2.33776e-20 -24.6123)
(-29.3308 -0.0219222 -1.70479e-22 -32.188 -1.26292e-22 -24.6233)
(-29.3454 0.0302197 -2.46968e-21 -32.1852 -3.20922e-22 -24.628)
(-29.3646 0.0896415 5.36537e-22 -32.1903 2.89836e-20 -24.6377)
(-29.3721 -0.0865251 1.39104e-21 -32.092 6.33673e-20 -24.6013)
(-29.3908 -0.0222735 -6.10878e-22 -32.0976 -1.10949e-22 -24.6111)
(-29.4036 0.029992 -2.12427e-22 -32.0952 1.28869e-22 -24.6153)
(-29.4203 0.0897 -1.59737e-21 -32.0997 -2.42593e-22 -24.6237)
(-29.4337 -0.0868427 -1.38733e-21 -32.0019 -5.80578e-20 -24.5899)
(-29.45 -0.0226313 2.37917e-21 -32.0069 4.88048e-22 -24.5985)
(-29.4613 0.0297745 6.55266e-22 -32.0049 1.02063e-23 -24.6022)
(-29.4757 0.089787 -1.08848e-21 -32.0089 8.07584e-20 -24.6095)
(-29.4943 -0.0871922 -3.16184e-22 -31.9115 -2.29765e-21 -24.578)
(-29.5086 -0.0229921 -6.94127e-22 -31.9159 -1.5055e-22 -24.5855)
(-29.5183 0.0295746 -3.89815e-22 -31.9143 5.22927e-24 -24.5887)
(-29.5307 0.0899117 -1.70672e-22 -31.9177 -8.16935e-20 -24.595)
(-29.5542 -0.0875815 4.42371e-22 -31.8207 2.46849e-21 -24.5655)
(-29.5665 -0.0233546 -2.52895e-23 -31.8246 1.02863e-22 -24.5721)
(-29.5749 0.0294001 -6.06781e-22 -31.8233 -1.32808e-22 -24.5749)
(-29.5853 0.0900859 8.68675e-22 -31.8263 8.67283e-20 -24.5803)
(-29.6132 -0.0880212 3.23657e-22 -31.7294 -1.07371e-21 -24.5526)
(-29.6237 -0.0237204 -5.67956e-22 -31.7328 -9.64478e-23 -24.5582)
(-29.6309 0.0292591 -1.0906e-21 -31.7318 -1.05526e-22 -24.5607)
(-29.6396 0.0903229 -1.07866e-21 -31.7344 -8.71752e-20 -24.5652)
(-29.6714 -0.0885321 -4.69939e-22 -31.6375 -2.17994e-21 -24.5391)
(-29.6804 -0.024098 -4.47259e-22 -31.6405 -1.53812e-22 -24.5439)
(-29.6864 0.0291633 1.02575e-21 -31.6398 1.40819e-22 -24.546)
(-29.6936 0.0906448 -1.52174e-21 -31.642 2.88127e-20 -24.5498)
(-29.7289 -0.0891416 -5.08139e-22 -31.545 3.07368e-20 -24.5251)
(-29.7365 -0.0245071 1.56154e-21 -31.5475 3.50495e-22 -24.5291)
(-29.7415 0.0291316 -1.15711e-21 -31.547 4.5357e-23 -24.5309)
(-29.7471 0.091079 3.29171e-22 -31.5489 3.3422e-23 -24.534)
(-29.7858 -0.0899163 -4.47716e-22 -31.4516 1.63375e-22 -24.5105)
(-29.7923 -0.0249966 -6.78635e-23 -31.4537 1.92133e-23 -24.5139)
(-29.7963 0.0292082 1.29436e-21 -31.4534 5.70185e-24 -24.5154)
(-29.8005 0.0916906 -3.16928e-23 -31.4551 1.36378e-20 -24.5177)
(-29.8419 -0.0909536 3.28711e-22 -31.3571 -4.4305e-20 -24.4951)
(-29.8478 -0.0256697 -8.46369e-22 -31.3586 -8.90209e-23 -24.498)
(-29.8509 0.0294879 7.39383e-22 -31.3585 4.42754e-23 -24.4992)
(-29.8534 0.0925737 -3.0627e-21 -31.3601 1.22522e-20 -24.5009)
(-29.8974 -0.092517 -7.87171e-22 -31.2611 -2.44922e-20 -24.4788)
(-29.9038 -0.0267571 1.88453e-21 -31.2619 1.79197e-22 -24.4817)
(-29.9062 0.0301887 3.31492e-22 -31.262 2.37482e-23 -24.4827)
(-29.9059 0.0939873 -2.66606e-22 -31.2637 -2.88677e-20 -24.4833)
(-29.9509 -0.0950207 6.15452e-22 -31.1623 1.20633e-20 -24.4607)
(-29.9605 -0.0287184 -2.38075e-21 -31.1624 -2.51805e-22 -24.4646)
(-29.9623 0.0317536 4.10082e-22 -31.1626 9.11057e-23 -24.4654)
(-29.9569 0.0963393 -1.52463e-21 -31.1645 4.48382e-20 -24.464)
(-30.0026 -0.0994095 -7.78671e-22 -31.0602 2.8084e-20 -24.4405)
(-30.0218 -0.0322911 1.44339e-21 -31.0599 1.40788e-22 -24.4481)
(-30.023 0.0348998 -7.15962e-22 -31.0602 -1.49945e-22 -24.4486)
(-30.0064 0.100568 1.34284e-21 -31.062 -2.98082e-20 -24.4428)
(-30.0459 -0.106674 -2.68122e-22 -30.9499 -3.30049e-21 -24.4136)
(-30.0868 -0.0382984 -1.42214e-22 -30.9508 -2.82849e-23 -24.4304)
(-30.0875 0.0404247 1.20196e-21 -30.9512 -5.2147e-23 -24.4308)
(-30.0479 0.107656 2.90558e-22 -30.9514 -6.08682e-21 -24.415)
(-30.085 -0.115691 5.74174e-22 -30.833 5.1331e-23 -24.3825)
(-30.1715 -0.0449874 -1.30981e-22 -30.846 6.02912e-23 -24.4223)
(-30.1718 0.0465461 -3.18351e-22 -30.8464 8.17244e-23 -24.4226)
(-30.0856 0.116466 -4.24382e-22 -30.8341 -8.31325e-21 -24.3832)
(-30.0977 -0.114804 6.73529e-22 -30.7142 -8.52603e-22 -24.34)
(-30.243 -0.0452407 -1.1424e-21 -30.76 -1.58999e-22 -24.4165)
(-30.2432 0.046126 -1.33689e-21 -30.7604 -8.75579e-23 -24.4167)
(-30.0974 0.115324 1.75648e-21 -30.715 6.72732e-22 -24.3402)
(-30.1689 -0.0650608 1.70465e-21 -30.7138 3.21814e-21 -24.3683)
(-30.3428 -0.0242125 -1.62422e-21 -30.8537 -1.14749e-22 -24.494)
(-30.3429 0.0244387 6.96448e-22 -30.8541 2.87498e-22 -24.4942)
(-30.1685 0.0652694 -1.08832e-22 -30.7145 4.75368e-22 -24.3684)
)
;

boundaryField
{
    plateFix
    {
        type            calculated;
        value           nonuniform List<symmTensor> 4((-23.9686 7.72425 -1.64088e-21 -25.5663 1.48375e-21 -19.8291) (-29.7996 2.81738 6.40161e-24 -22.7029 3.0044e-23 -21.014) (-29.6288 -2.81455 3.74894e-23 -22.633 1.4617e-23 -20.9177) (-23.1457 -7.8655 -1.11399e-21 -25.2701 -4.86922e-20 -19.3812));
    }
    plate
    {
        type            calculated;
        value           nonuniform List<symmTensor> 
168
(
(-31.3406 0.0124157 -2.23387e-21 -36.4652 -2.62922e-20 -27.1418)
(-30.7185 -0.0142429 -8.16327e-22 -36.4706 5.45925e-21 -26.895)
(-30.5519 0.00915847 -2.15427e-22 -36.4699 1.16765e-18 -26.8279)
(-29.9109 -0.0106342 3.2817e-21 -36.4753 1.24391e-18 -26.5736)
(-29.3926 0.00369499 3.77841e-22 -36.4736 -1.06775e-18 -26.3654)
(-28.7316 -0.00483697 -6.62201e-21 -36.4791 -1.19512e-18 -26.1031)
(-28.8916 -0.00385172 1.57531e-21 -36.4758 -2.23899e-18 -26.1658)
(-28.2313 0.00299692 1.35939e-21 -36.4812 -9.23083e-19 -25.9037)
(-28.4653 -0.0115288 -3.36709e-22 -36.4761 2.84603e-18 -25.9953)
(-27.8121 0.0108362 3.19114e-21 -36.4815 -5.50045e-20 -25.7361)
(-28.1946 -0.0192748 3.93219e-22 -36.474 -8.56511e-19 -25.8861)
(-27.5557 0.0186682 -8.32726e-22 -36.4794 9.46316e-19 -25.6326)
(-27.9623 -0.0268102 -1.80141e-22 -36.4692 5.01282e-20 -25.7913)
(-27.3415 0.0262266 -1.30811e-21 -36.4747 -2.90753e-18 -25.545)
(-27.7676 -0.0340367 -7.39482e-22 -36.4617 -6.58938e-23 -25.7103)
(-27.1679 0.0334352 6.59955e-22 -36.4671 1.33973e-18 -25.4725)
(-27.5913 -0.0408504 1.58048e-22 -36.451 -4.26456e-20 -25.6355)
(-27.0148 0.0402022 -5.95194e-22 -36.4564 -7.84624e-19 -25.407)
(-27.436 -0.0471854 -1.90346e-22 -36.4372 1.29353e-18 -25.5678)
(-26.8845 0.0464721 3.16742e-22 -36.4426 6.82587e-19 -25.3493)
(-27.3018 -0.0529976 1.53824e-22 -36.42 -1.76929e-18 -25.5072)
(-26.7769 0.0522079 -8.50694e-23 -36.4254 -3.96345e-20 -25.2993)
(-27.191 -0.058271 6.59364e-23 -36.3994 -9.19048e-19 -25.4546)
(-26.6941 0.0573985 6.07924e-22 -36.4048 -4.4118e-19 -25.2579)
(-27.1038 -0.0630122 -2.06531e-22 -36.3752 -3.7383e-21 -25.41)
(-26.6363 0.0620544 -1.71472e-22 -36.3806 -9.78937e-19 -25.2251)
(-27.0388 -0.0672451 4.33433e-22 -36.3474 5.5452e-19 -25.3728)
(-26.6021 0.0662023 1.26091e-22 -36.3528 1.72437e-18 -25.2003)
(-26.9933 -0.0710038 2.52882e-22 -36.3158 7.31192e-19 -25.342)
(-26.5888 0.0698779 2.56971e-23 -36.3212 -1.17205e-18 -25.1823)
(-26.964 -0.0743256 -3.94647e-22 -36.2802 -6.87649e-19 -25.316)
(-26.5929 0.0731202 1.63995e-22 -36.2857 9.63783e-19 -25.1697)
(-26.9473 -0.077244 -4.1546e-22 -36.2406 -2.61583e-19 -25.2934)
(-26.611 0.0759639 -6.53988e-22 -36.246 1.65571e-19 -25.1611)
(-26.9403 -0.0797881 2.16551e-22 -36.1966 8.18206e-19 -25.273)
(-26.6399 0.0784387 4.91605e-22 -36.202 5.06481e-19 -25.155)
(-26.9403 -0.0819724 -1.65125e-22 -36.1481 -9.39148e-20 -25.2535)
(-26.6769 0.0805604 1.90228e-22 -36.1535 -9.812e-19 -25.1503)
(-26.9455 -0.0837902 6.57155e-22 -36.0949 -7.21816e-19 -25.2343)
(-26.7201 0.0823234 -2.61836e-22 -36.1003 3.65743e-19 -25.1462)
(-26.9551 -0.0852753 8.7769e-23 -36.0367 3.012e-19 -25.2148)
(-26.7682 0.0837627 6.6175e-22 -36.0421 -5.71729e-19 -25.1422)
(-26.9674 -0.0861123 -2.22051e-22 -35.9729 8.54087e-19 -25.1942)
(-26.8197 0.0845642 2.85693e-22 -35.9784 1.15768e-18 -25.1372)
(-26.9852 -0.0878494 -2.13895e-21 -35.9033 -9.36479e-19 -25.1734)
(-26.8782 0.0862768 -3.5435e-22 -35.9087 -9.95215e-19 -25.1327)
(-27.0051 -0.0902472 3.31132e-22 -35.8233 2.48512e-19 -25.1493)
(-26.9386 0.0886657 -7.59734e-22 -35.8287 2.55613e-19 -25.1248)
(-27.0289 -0.0917788 5.94796e-22 -35.7436 -9.70521e-21 -25.1268)
(-27 0.0902027 -1.20252e-22 -35.749 9.67187e-19 -25.1174)
(-27.0544 -0.0931365 -2.29527e-23 -35.6623 4.78234e-19 -25.1044)
(-27.0601 0.0915794 -1.74505e-21 -35.6676 -7.04427e-19 -25.1089)
(-27.0824 -0.0942051 -2.06595e-21 -35.5805 -7.10024e-19 -25.0829)
(-27.1201 0.0926788 1.84678e-21 -35.5859 4.87382e-19 -25.1001)
(-27.1123 -0.0951498 1.6418e-22 -35.498 2.35128e-19 -25.0618)
(-27.1793 0.0936646 -4.71195e-22 -35.5033 -5.04348e-19 -25.0907)
(-27.1445 -0.095953 -2.17067e-22 -35.415 -2.35994e-19 -25.0413)
(-27.2381 0.0945179 -8.03542e-23 -35.4203 -4.87972e-19 -25.0809)
(-27.1786 -0.0966622 -6.97042e-22 -35.3314 2.32517e-19 -25.0215)
(-27.2963 0.0952848 3.19652e-22 -35.3366 7.40708e-19 -25.0707)
(-27.2148 -0.0972813 1.17803e-21 -35.2474 -2.59043e-21 -25.0023)
(-27.3541 0.0959679 -2.34488e-22 -35.2526 -2.58303e-19 -25.0601)
(-27.253 -0.0978291 -9.65865e-22 -35.163 2.37302e-19 -24.9838)
(-27.4115 0.0965848 2.29654e-22 -35.1682 1.63404e-21 -25.0492)
(-27.2933 -0.0983131 7.33084e-22 -35.0782 -2.40268e-19 -24.9659)
(-27.4685 0.097142 6.72068e-22 -35.0834 2.35155e-19 -25.0381)
(-27.3355 -0.0987433 -5.13465e-23 -34.9931 1.37076e-19 -24.9487)
(-27.5253 0.0976485 -7.29586e-22 -34.9982 -4.80328e-19 -25.0267)
(-27.3796 -0.0991265 1.71044e-21 -34.9077 -1.41162e-19 -24.9321)
(-27.5819 0.0981099 9.77231e-22 -34.9128 2.50736e-19 -25.0151)
(-27.4257 -0.099469 -1.86871e-23 -34.8221 1.29721e-19 -24.9162)
(-27.6383 0.098532 -1.93287e-22 -34.8271 -5.64664e-21 -25.0033)
(-27.4738 -0.0997761 1.27466e-22 -34.7362 -1.21566e-19 -24.901)
(-27.6946 0.0989191 6.5159e-22 -34.7412 -2.37148e-22 -24.9914)
(-27.5237 -0.100052 1.6249e-22 -34.6501 1.209e-19 -24.8865)
(-27.7508 0.099275 -5.23392e-22 -34.655 6.06029e-21 -24.9794)
(-27.5755 -0.100302 -1.70556e-22 -34.5638 -1.23229e-19 -24.8726)
(-27.8071 0.0996031 1.11403e-21 -34.5686 2.25167e-19 -24.9673)
(-27.6291 -0.100528 4.64461e-22 -34.4773 3.57126e-19 -24.8594)
(-27.8633 0.0999061 6.39794e-24 -34.4821 -3.45517e-19 -24.9551)
(-27.6844 -0.100734 9.24111e-22 -34.3906 -3.88673e-21 -24.8468)
(-27.9197 0.100187 -5.17004e-22 -34.3953 1.15984e-19 -24.9429)
(-27.7414 -0.100923 2.69169e-22 -34.3038 -3.55111e-19 -24.8348)
(-27.9761 0.100447 -1.06764e-21 -34.3084 -1.85509e-21 -24.9306)
(-27.7999 -0.101096 1.88057e-22 -34.2168 2.51531e-22 -24.8234)
(-28.0327 0.100688 8.41478e-22 -34.2214 -2.01832e-23 -24.9184)
(-27.8599 -0.101256 -3.18046e-22 -34.1297 -2.31239e-19 -24.8125)
(-28.0894 0.100913 -5.93387e-22 -34.1342 2.37693e-19 -24.9061)
(-27.9213 -0.101404 2.11936e-22 -34.0424 -5.55428e-21 -24.8021)
(-28.1463 0.101123 -8.74536e-23 -34.0468 -2.35188e-19 -24.8939)
(-27.9839 -0.101543 -2.43374e-22 -33.955 2.40955e-19 -24.7921)
(-28.2035 0.10132 -5.92944e-23 -33.9594 -2.34147e-19 -24.8817)
(-28.0477 -0.101674 -4.73696e-23 -33.8675 -2.45214e-19 -24.7826)
(-28.2608 0.101504 8.34798e-23 -33.8718 3.42738e-19 -24.8696)
(-28.1125 -0.101798 7.96528e-23 -33.7799 2.51732e-19 -24.7734)
(-28.3184 0.101677 -3.41203e-22 -33.7841 -1.06498e-19 -24.8575)
(-28.1781 -0.101917 3.4132e-22 -33.6922 -6.27553e-21 -24.7645)
(-28.3762 0.101841 -8.0918e-22 -33.6963 -1.12246e-19 -24.8455)
(-28.2445 -0.102031 2.8275e-22 -33.6044 -3.7587e-21 -24.7559)
(-28.4342 0.101995 1.00285e-21 -33.6084 2.1454e-21 -24.8335)
(-28.3115 -0.102142 6.82863e-23 -33.5165 2.58279e-23 -24.7475)
(-28.4924 0.102143 1.71123e-22 -33.5204 1.11381e-19 -24.8215)
(-28.379 -0.102251 4.0721e-22 -33.4284 -2.30367e-19 -24.7392)
(-28.5508 0.102284 3.79347e-22 -33.4324 -2.73806e-21 -24.8096)
(-28.4468 -0.102359 8.99841e-23 -33.3403 3.54143e-19 -24.7311)
(-28.6094 0.102421 7.88056e-22 -33.3442 -3.38126e-19 -24.7977)
(-28.5149 -0.102466 3.05354e-22 -33.2521 -1.23788e-19 -24.723)
(-28.668 0.102554 1.52281e-22 -33.2559 -1.76051e-20 -24.7858)
(-28.5831 -0.102575 -1.304e-22 -33.1638 6.98362e-21 -24.7149)
(-28.7267 0.102684 -2.46533e-22 -33.1675 3.45839e-19 -24.7739)
(-28.6513 -0.102685 4.80801e-22 -33.0754 -7.02895e-21 -24.7068)
(-28.7853 0.102812 -3.73047e-23 -33.079 -1.83491e-21 -24.7619)
(-28.7194 -0.102799 -3.90795e-22 -32.9868 4.8841e-23 -24.6985)
(-28.844 0.102941 3.0931e-22 -32.9904 -1.0806e-19 -24.7499)
(-28.7872 -0.102917 1.63199e-22 -32.8982 1.11329e-19 -24.6902)
(-28.9025 0.103072 3.38412e-22 -32.9017 -1.23274e-19 -24.7378)
(-28.8547 -0.103041 6.37812e-22 -32.8094 -1.08715e-19 -24.6817)
(-28.9609 0.103205 -2.74014e-22 -32.8129 1.81304e-19 -24.7256)
(-28.9219 -0.103171 2.55757e-22 -32.7206 1.16219e-19 -24.6729)
(-29.0192 0.103343 4.62619e-22 -32.724 5.13936e-20 -24.7133)
(-28.9885 -0.103311 -4.47218e-22 -32.6316 -6.96999e-22 -24.6639)