/*--------------------------------*- C++ -*----------------------------------*\
| =========                 |                                                 |
| \\      /  F ield         | OpenFOAM Extend Project: Open source CFD        |
|  \\    /   O peration     | Version:  1.6-ext                               |
|   \\  /    A nd           | Web:      www.extend-project.de                 |
|    \\/     M anipulation  |                                                 |
\*---------------------------------------------------------------------------*/
FoamFile
{
    version     2.0;
    format      ascii;
    class       volVectorField;
    location    "0.05";
    object      Usolid;
}
// * * * * * * * * * * * * * * * * * * * * * * * * * * * * * * * * * * * * * //

dimensions      [0 1 0 0 0 0 0];

internalField   nonuniform List<vector> 
328
(
(-2.07558e-07 1.39895e-06 0)
(-4.40209e-07 2.9401e-07 0)
(-4.36476e-07 -2.94847e-07 0)
(-1.88763e-07 -1.42639e-06 0)
(-6.55282e-07 3.58674e-06 0)
(-1.24079e-06 8.5366e-07 0)
(-1.22774e-06 -8.6731e-07 0)
(-5.97622e-07 -3.66203e-06 0)
(-1.00768e-06 5.20858e-06 0)
(-1.80572e-06 1.37666e-06 0)
(-1.77932e-06 -1.41545e-06 0)
(-9.05626e-07 -5.33035e-06 0)
(-1.35407e-06 6.35279e-06 0)
(-2.26488e-06 1.81978e-06 0)
(-2.22328e-06 -1.89639e-06 0)
(-1.20435e-06 -6.52383e-06 0)
(-1.68108e-06 7.13455e-06 0)
(-2.60481e-06 2.16709e-06 0)
(-2.54612e-06 -2.29472e-06 0)
(-1.48036e-06 -7.36176e-06 0)
(-2.00872e-06 7.64232e-06 0)
(-2.87582e-06 2.41334e-06 0)
(-2.7989e-06 -2.60638e-06 0)
(-1.7543e-06 -7.93606e-06 0)
(-2.33703e-06 7.94861e-06 0)
(-3.09495e-06 2.56585e-06 0)
(-2.99879e-06 -2.84028e-06 0)
(-2.02644e-06 -8.32245e-06 0)
(-2.67036e-06 8.10719e-06 0)
(-3.28965e-06 2.63671e-06 0)
(-3.17351e-06 -3.01051e-06 0)
(-2.30142e-06 -8.5777e-06 0)
(-3.00939e-06 8.15942e-06 0)
(-3.47723e-06 2.64101e-06 0)
(-3.34047e-06 -3.13454e-06 0)
(-2.58012e-06 -8.74616e-06 0)
(-3.3559e-06 8.1357e-06 0)
(-3.67407e-06 2.59328e-06 0)
(-3.51618e-06 -3.2296e-06 0)
(-2.86458e-06 -8.86124e-06 0)
(-3.71169e-06 8.05822e-06 0)
(-3.89151e-06 2.50621e-06 0)
(-3.71206e-06 -3.31141e-06 0)
(-3.15682e-06 -8.94831e-06 0)
(-4.07947e-06 7.94225e-06 0)
(-4.13821e-06 2.38948e-06 0)
(-3.93686e-06 -3.39297e-06 0)
(-3.45989e-06 -9.02609e-06 0)
(-4.46262e-06 7.79763e-06 0)
(-4.41981e-06 2.24959e-06 0)
(-4.19633e-06 -3.48439e-06 0)
(-3.7775e-06 -9.10804e-06 0)
(-4.86514e-06 7.62978e-06 0)
(-4.74001e-06 2.08999e-06 0)
(-4.49431e-06 -3.59302e-06 0)
(-4.11409e-06 -9.20348e-06 0)
(-5.29149e-06 7.44078e-06 0)
(-5.10118e-06 1.91163e-06 0)
(-4.83333e-06 -3.72391e-06 0)
(-4.4746e-06 -9.3186e-06 0)
(-5.74642e-06 7.23028e-06 0)
(-5.50511e-06 1.71356e-06 0)
(-5.21535e-06 -3.88045e-06 0)
(-4.86437e-06 -9.45738e-06 0)
(-6.23485e-06 6.99634e-06 0)
(-5.95359e-06 1.4936e-06 0)
(-5.64238e-06 -4.0649e-06 0)
(-5.28901e-06 -9.62234e-06 0)
(-6.7619e-06 6.73614e-06 0)
(-6.44889e-06 1.24888e-06 0)
(-6.11695e-06 -4.27893e-06 0)
(-5.75441e-06 -9.8152e-06 0)
(-7.33286e-06 6.44655e-06 0)
(-6.99405e-06 9.76331e-07 0)
(-6.64238e-06 -4.52394e-06 0)
(-6.26674e-06 -1.00373e-05 0)
(-7.95336e-06 6.12445e-06 0)
(-7.5931e-06 6.72986e-07 0)
(-7.22304e-06 -4.80123e-06 0)
(-6.83259e-06 -1.02898e-05 0)
(-8.62935e-06 5.76705e-06 0)
(-8.25107e-06 3.36198e-07 0)
(-7.8643e-06 -5.11208e-06 0)
(-7.45901e-06 -1.0574e-05 0)
(-9.36754e-06 5.37195e-06 0)
(-8.97418e-06 -3.62353e-08 0)
(-8.57278e-06 -5.45762e-06 0)
(-8.15389e-06 -1.08907e-05 0)
(-1.02057e-05 4.92098e-06 0)
(-9.79989e-06 -4.61475e-07 0)
(-9.3859e-06 -5.85328e-06 0)
(-8.95492e-06 -1.12541e-05 0)
(-1.11241e-05 4.4275e-06 0)
(-1.07097e-05 -9.26153e-07 0)
(-1.02865e-05 -6.28575e-06 0)
(-9.84635e-06 -1.16514e-05 0)
(-1.20655e-05 3.92796e-06 0)
(-1.16462e-05 -1.39619e-06 0)
(-1.12177e-05 -6.72326e-06 0)
(-1.07724e-05 -1.20534e-05 0)
(-1.30304e-05 3.42599e-06 0)
(-1.261e-05 -1.86792e-06 0)
(-1.21798e-05 -7.16201e-06 0)
(-1.17329e-05 -1.24564e-05 0)
(-1.40198e-05 2.92524e-06 0)
(-1.36015e-05 -2.33784e-06 0)
(-1.31731e-05 -7.59858e-06 0)
(-1.2728e-05 -1.28571e-05 0)
(-1.50345e-05 2.42889e-06 0)
(-1.46214e-05 -2.80276e-06 0)
(-1.41977e-05 -8.0298e-06 0)
(-1.37575e-05 -1.32523e-05 0)
(-1.60751e-05 1.93993e-06 0)
(-1.567e-05 -3.25977e-06 0)
(-1.52539e-05 -8.45277e-06 0)
(-1.48215e-05 -1.36391e-05 0)
(-1.71426e-05 1.46102e-06 0)
(-1.67479e-05 -3.70621e-06 0)
(-1.6342e-05 -8.86487e-06 0)
(-1.59199e-05 -1.40149e-05 0)
(-1.82374e-05 9.94562e-07 0)
(-1.78555e-05 -4.13971e-06 0)
(-1.7462e-05 -9.26372e-06 0)
(-1.70526e-05 -1.43774e-05 0)
(-1.93605e-05 5.42712e-07 0)
(-1.89933e-05 -4.55812e-06 0)
(-1.86143e-05 -9.64719e-06 0)
(-1.82197e-05 -1.47243e-05 0)
(-2.05123e-05 1.07377e-07 0)
(-2.01617e-05 -4.95955e-06 0)
(-1.9799e-05 -1.00134e-05 0)
(-1.9421e-05 -1.5054e-05 0)
(-2.16937e-05 -3.09776e-07 0)
(-2.13612e-05 -5.34235e-06 0)
(-2.10164e-05 -1.03607e-05 0)
(-2.06565e-05 -1.53646e-05 0)
(-2.29052e-05 -7.07306e-07 0)
(-2.25922e-05 -5.70509e-06 0)
(-2.22667e-05 -1.06877e-05 0)
(-2.19263e-05 -1.56548e-05 0)
(-2.41475e-05 -1.084e-06 0)
(-2.38551e-05 -6.04655e-06 0)
(-2.355e-05 -1.09931e-05 0)
(-2.32304e-05 -1.59233e-05 0)
(-2.54213e-05 -1.43884e-06 0)
(-2.51503e-05 -6.36576e-06 0)
(-2.48666e-05 -1.1276e-05 0)
(-2.45686e-05 -1.61693e-05 0)
(-2.67272e-05 -1.77105e-06 0)
(-2.64784e-05 -6.66191e-06 0)
(-2.62168e-05 -1.15356e-05 0)
(-2.59412e-05 -1.63918e-05 0)
(-2.80657e-05 -2.08002e-06 0)
(-2.78396e-05 -6.93444e-06 0)
(-2.76007e-05 -1.17713e-05 0)
(-2.73481e-05 -1.65903e-05 0)
(-2.94375e-05 -2.36534e-06 0)
(-2.92345e-05 -7.18293e-06 0)
(-2.90186e-05 -1.19828e-05 0)
(-2.87893e-05 -1.67645e-05 0)
(-3.08431e-05 -2.62679e-06 0)
(-3.06634e-05 -7.40719e-06 0)
(-3.04707e-05 -1.21697e-05 0)
(-3.02649e-05 -1.69141e-05 0)
(-3.22831e-05 -2.86431e-06 0)
(-3.21267e-05 -7.60716e-06 0)
(-3.19572e-05 -1.23322e-05 0)
(-3.17749e-05 -1.70391e-05 0)
(-3.3758e-05 -3.078e-06 0)
(-3.36248e-05 -7.78298e-06 0)
(-3.34785e-05 -1.24703e-05 0)
(-3.33195e-05 -1.71395e-05 0)
(-3.52683e-05 -3.26812e-06 0)
(-3.5158e-05 -7.93491e-06 0)
(-3.50345e-05 -1.25842e-05 0)
(-3.48987e-05 -1.72158e-05 0)
(-3.68145e-05 -3.43504e-06 0)
(-3.67266e-05 -8.06335e-06 0)
(-3.66257e-05 -1.26745e-05 0)
(-3.65126e-05 -1.72683e-05 0)
(-3.83969e-05 -3.57927e-06 0)
(-3.83311e-05 -8.16882e-06 0)
(-3.82521e-05 -1.27417e-05 0)
(-3.81613e-05 -1.72975e-05 0)
(-4.00159e-05 -3.70141e-06 0)
(-3.99716e-05 -8.25196e-06 0)
(-3.99141e-05 -1.27863e-05 0)
(-3.98448e-05 -1.73041e-05 0)
(-4.1672e-05 -3.80214e-06 0)
(-4.16484e-05 -8.31348e-06 0)
(-4.16116e-05 -1.28091e-05 0)
(-4.15633e-05 -1.72888e-05 0)
(-4.33654e-05 -3.88226e-06 0)
(-4.33617e-05 -8.35418e-06 0)
(-4.3345e-05 -1.2811e-05 0)
(-4.33168e-05 -1.72525e-05 0)
(-4.50963e-05 -3.94257e-06 0)
(-4.51119e-05 -8.37491e-06 0)
(-4.51144e-05 -1.27928e-05 0)
(-4.51055e-05 -1.7196e-05 0)
(-4.6865e-05 -3.98396e-06 0)
(-4.6899e-05 -8.37656e-06 0)
(-4.69198e-05 -1.27554e-05 0)
(-4.69294e-05 -1.71202e-05 0)
(-4.86717e-05 -4.00735e-06 0)
(-4.87231e-05 -8.36009e-06 0)
(-4.87614e-05 -1.26997e-05 0)
(-4.87885e-05 -1.70261e-05 0)
(-5.05166e-05 -4.01367e-06 0)
(-5.05845e-05 -8.32646e-06 0)
(-5.06394e-05 -1.26268e-05 0)
(-5.0683e-05 -1.69147e-05 0)
(-5.23996e-05 -4.00388e-06 0)
(-5.24832e-05 -8.27664e-06 0)
(-5.25537e-05 -1.25377e-05 0)
(-5.2613e-05 -1.6787e-05 0)
(-5.4321e-05 -3.97895e-06 0)
(-5.44193e-05 -8.21162e-06 0)
(-5.45044e-05 -1.24333e-05 0)
(-5.45784e-05 -1.6644e-05 0)
(-5.62807e-05 -3.93984e-06 0)
(-5.63928e-05 -8.13241e-06 0)
(-5.64916e-05 -1.23147e-05 0)
(-5.65792e-05 -1.64868e-05 0)
(-5.82788e-05 -3.88753e-06 0)
(-5.84037e-05 -8.03998e-06 0)
(-5.85153e-05 -1.21829e-05 0)
(-5.86156e-05 -1.63163e-05 0)
(-6.03152e-05 -3.82298e-06 0)
(-6.04519e-05 -7.93531e-06 0)
(-6.05754e-05 -1.20388e-05 0)
(-6.06875e-05 -1.61336e-05 0)
(-6.23898e-05 -3.74712e-06 0)
(-6.25376e-05 -7.81936e-06 0)
(-6.26719e-05 -1.18835e-05 0)
(-6.27948e-05 -1.59396e-05 0)
(-6.45027e-05 -3.66088e-06 0)
(-6.46605e-05 -7.69308e-06 0)
(-6.48049e-05 -1.17179e-05 0)
(-6.49376e-05 -1.57353e-05 0)
(-6.66535e-05 -3.56517e-06 0)
(-6.68206e-05 -7.55739e-06 0)
(-6.69741e-05 -1.15428e-05 0)
(-6.71158e-05 -1.55216e-05 0)
(-6.88423e-05 -3.46087e-06 0)
(-6.90177e-05 -7.41317e-06 0)
(-6.91795e-05 -1.13593e-05 0)
(-6.93294e-05 -1.52995e-05 0)
(-7.10688e-05 -3.34881e-06 0)
(-7.12518e-05 -7.26128e-06 0)
(-7.14211e-05 -1.11682e-05 0)
(-7.15783e-05 -1.50698e-05 0)
(-7.33329e-05 -3.22981e-06 0)
(-7.35227e-05 -7.10253e-06 0)
(-7.36988e-05 -1.09703e-05 0)
(-7.38625e-05 -1.48333e-05 0)
(-7.56344e-05 -3.10463e-06 0)
(-7.58303e-05 -6.9377e-06 0)
(-7.60123e-05 -1.07664e-05 0)
(-7.61818e-05 -1.45908e-05 0)
(-7.7973e-05 -2.97399e-06 0)
(-7.81744e-05 -6.76749e-06 0)
(-7.83617e-05 -1.05571e-05 0)
(-7.85363e-05 -1.4343e-05 0)
(-8.03486e-05 -2.83857e-06 0)
(-8.05548e-05 -6.5926e-06 0)
(-8.07468e-05 -1.03432e-05 0)
(-8.09258e-05 -1.40906e-05 0)
(-8.2761e-05 -2.699e-06 0)
(-8.29714e-05 -6.41364e-06 0)
(-8.31674e-05 -1.01253e-05 0)
(-8.33503e-05 -1.38342e-05 0)
(-8.521e-05 -2.55587e-06 0)
(-8.5424e-05 -6.23118e-06 0)
(-8.56235e-05 -9.9039e-06 0)
(-8.58097e-05 -1.35743e-05 0)
(-8.76953e-05 -2.40973e-06 0)
(-8.79124e-05 -6.04574e-06 0)
(-8.8115e-05 -9.67956e-06 0)
(-8.8304e-05 -1.33114e-05 0)
(-9.02168e-05 -2.26108e-06 0)
(-9.04367e-05 -5.85782e-06 0)
(-9.06418e-05 -9.4527e-06 0)
(-9.08331e-05 -1.3046e-05 0)
(-9.27744e-05 -2.11039e-06 0)
(-9.29966e-05 -5.66785e-06 0)
(-9.32038e-05 -9.22373e-06 0)
(-9.33971e-05 -1.27783e-05 0)
(-9.5368e-05 -1.95814e-06 0)
(-9.55921e-05 -5.47624e-06 0)
(-9.58011e-05 -8.99301e-06 0)
(-9.59958e-05 -1.25088e-05 0)
(-9.79974e-05 -1.80479e-06 0)
(-9.82232e-05 -5.28338e-06 0)
(-9.84336e-05 -8.76081e-06 0)
(-9.86295e-05 -1.22376e-05 0)
(-0.000100663 -1.65083e-06 0)
(-0.00010089 -5.0897e-06 0)
(-0.000101102 -8.52737e-06 0)
(-0.000101298 -1.19649e-05 0)
(-0.000103364 -1.49686e-06 0)
(-0.000103593 -4.89565e-06 0)
(-0.000103805 -8.2928e-06 0)
(-0.000104002 -1.16907e-05 0)
(-0.000106102 -1.34371e-06 0)
(-0.000106332 -4.70185e-06 0)
(-0.000106545 -8.057e-06 0)
(-0.000106741 -1.14146e-05 0)
(-0.000108875 -1.1926e-06 0)
(-0.000109109 -4.50914e-06 0)
(-0.000109323 -7.81961e-06 0)
(-0.000109515 -1.11359e-05 0)
(-0.000111685 -1.04491e-06 0)
(-0.000111927 -4.3184e-06 0)
(-0.00011214 -7.58018e-06 0)
(-0.000112325 -1.08536e-05 0)
(-0.000114528 -9.00887e-07 0)
(-0.000114787 -4.1296e-06 0)
(-0.000115001 -7.33914e-06 0)
(-0.000115169 -1.0568e-05 0)
(-0.000117408 -7.45926e-07 0)
(-0.000117698 -3.93586e-06 0)
(-0.000117911 -7.10369e-06 0)
(-0.000118049 -1.02938e-05 0)
(-0.000120308 -5.20106e-07 0)
(-0.000120635 -3.71703e-06 0)
(-0.000120849 -6.89423e-06 0)
(-0.000120948 -1.00914e-05 0)
)
;

boundaryField
{
    plateFix
    {
        type            fixedDisplacement;
        value           uniform (0 0 0);
    }
    plate
    {
        type            solidTraction;
        nonLinear       updatedLagrangian;
        traction        uniform (0 0 0);
        pressure        uniform 0;
        value           nonuniform List<vector> 
168
(
(5.92943e-06 3.74077e-06 -7.46237e-27)
(6.07411e-06 -3.83177e-06 -4.90709e-26)
(3.80853e-06 6.0069e-06 -4.68752e-25)
(3.97586e-06 -6.1476e-06 6.14298e-25)
(2.01802e-06 7.74435e-06 5.15752e-25)
(2.22377e-06 -7.9335e-06 -5.13391e-25)
(6.14211e-07 8.93842e-06 1.12083e-24)
(8.70335e-07 -9.17674e-06 -4.70526e-25)
(-4.46786e-07 9.76261e-06 -1.44677e-24)
(-1.30639e-07 -1.00564e-05 -5.13818e-26)
(-1.2751e-06 1.0297e-05 4.2704e-25)
(-8.92061e-07 -1.06559e-05 4.79648e-25)
(-1.93719e-06 1.06258e-05 -6.11552e-26)
(-1.482e-06 -1.10629e-05 -1.51534e-24)
(-2.48884e-06 1.08027e-05 1.9323e-26)
(-1.95752e-06 -1.13344e-05 7.25743e-25)
(-2.9666e-06 1.0871e-05 -1.13254e-26)
(-2.35596e-06 -1.15166e-05 -3.42337e-25)
(-3.3984e-06 1.08608e-05 -6.25074e-25)
(-2.70587e-06 -1.16426e-05 3.05108e-25)
(-3.80444e-06 1.07942e-05 9.24096e-25)
(-3.02797e-06 -1.17379e-05 -6.44827e-26)
(-4.20059e-06 1.06862e-05 4.55819e-25)
(-3.33861e-06 -1.18209e-05 -2.04948e-25)
(-4.59931e-06 1.05467e-05 8.99217e-28)
(-3.65076e-06 -1.1905e-05 -4.58978e-25)
(-5.01072e-06 1.03812e-05 -3.07342e-25)
(-3.97513e-06 -1.19997e-05 8.44404e-25)
(-5.44309e-06 1.01921e-05 -3.40819e-25)
(-4.32066e-06 -1.21114e-05 -5.87478e-25)
(-5.90333e-06 9.97914e-06 3.411e-25)
(-4.69505e-06 -1.22444e-05 4.6583e-25)
(-6.39741e-06 9.74091e-06 1.43407e-25)
(-5.10517e-06 -1.24015e-05 9.1944e-26)
(-6.93071e-06 9.47481e-06 -4.31457e-25)
(-5.55744e-06 -1.25849e-05 2.33985e-25)
(-7.50839e-06 9.17792e-06 5.64432e-26)
(-6.05818e-06 -1.2796e-05 -4.60244e-25)
(-8.13573e-06 8.8473e-06 3.72713e-25)
(-6.614e-06 -1.30362e-05 1.80465e-25)
(-8.81829e-06 8.48019e-06 -1.48265e-25)
(-7.2319e-06 -1.33067e-05 -2.75814e-25)
(-9.56253e-06 8.07428e-06 -4.29487e-25)
(-7.91991e-06 -1.36087e-05 5.56282e-25)
(-1.04054e-05 7.61105e-06 4.59961e-25)
(-8.71514e-06 -1.39558e-05 -4.87208e-25)
(-1.13269e-05 7.10354e-06 -1.28657e-25)
(-9.60213e-06 -1.43349e-05 1.36147e-25)
(-1.22696e-05 6.58963e-06 1.1416e-26)
(-1.0526e-05 -1.47188e-05 4.53455e-25)
(-1.32341e-05 6.07288e-06 -2.35075e-25)
(-1.14861e-05 -1.51036e-05 -3.28938e-25)
(-1.42216e-05 5.55703e-06 3.8147e-25)
(-1.24826e-05 -1.54859e-05 2.35375e-25)
(-1.52328e-05 5.04527e-06 -1.45795e-25)
(-1.35151e-05 -1.58627e-05 -2.38517e-25)
(-1.62687e-05 4.5406e-06 1.35896e-25)
(-1.45836e-05 -1.62311e-05 -2.44743e-25)
(-1.73302e-05 4.04569e-06 -1.46385e-25)
(-1.56876e-05 -1.65885e-05 3.57376e-25)
(-1.8418e-05 3.56297e-06 1.86071e-26)
(-1.68272e-05 -1.69326e-05 -1.10332e-25)
(-1.9533e-05 3.0946e-06 -1.25486e-25)
(-1.80022e-05 -1.72611e-05 -5.898e-27)
(-2.06759e-05 2.64248e-06 1.10541e-25)
(-1.92123e-05 -1.75722e-05 1.17131e-25)
(-2.18476e-05 2.2083e-06 -5.35686e-26)
(-2.04574e-05 -1.78643e-05 -2.49085e-25)
(-2.30488e-05 1.79349e-06 6.24357e-26)
(-2.17375e-05 -1.8136e-05 1.38921e-25)
(-2.42803e-05 1.39929e-06 -7.26013e-26)
(-2.30524e-05 -1.8386e-05 -1.06252e-26)
(-2.55428e-05 1.02671e-06 6.85639e-26)
(-2.44019e-05 -1.86134e-05 2.23264e-27)
(-2.68371e-05 6.76537e-07 -5.94023e-26)
(-2.57862e-05 -1.88173e-05 -1.12761e-27)
(-2.81638e-05 3.49389e-07 6.52663e-26)
(-2.72049e-05 -1.89972e-05 1.14214e-25)
(-2.95236e-05 4.56785e-08 -1.7956e-25)
(-2.86582e-05 -1.91527e-05 -1.75351e-25)
(-3.09172e-05 -2.3436e-07 -2.25494e-27)
(-3.0146e-05 -1.92836e-05 5.88225e-26)
(-3.23452e-05 -4.9066e-07 1.77185e-25)
(-3.16682e-05 -1.93898e-05 4.77346e-28)
(-3.38081e-05 -7.23314e-07 2.57575e-27)
(-3.32248e-05 -1.94715e-05 -4.26849e-27)
(-3.53067e-05 -9.3256e-07 1.13932e-25)
(-3.48159e-05 -1.95289e-05 1.25731e-25)
(-3.68413e-05 -1.11877e-06 -9.60242e-28)
(-3.64415e-05 -1.95626e-05 -1.23402e-25)
(-3.84124e-05 -1.28243e-06 -1.11096e-25)
(-3.81015e-05 -1.95729e-05 -1.16551e-25)
(-4.00205e-05 -1.42413e-06 1.05609e-25)
(-3.9796e-05 -1.95606e-05 1.7158e-25)
(-4.1666e-05 -1.54455e-06 -1.14919e-25)
(-4.15251e-05 -1.95263e-05 -5.39061e-26)
(-4.33493e-05 -1.64445e-06 5.17789e-27)
(-4.32889e-05 -1.9471e-05 -5.54844e-26)
(-4.50705e-05 -1.72464e-06 -1.48683e-27)
(-4.50873e-05 -1.93954e-05 1.08421e-27)
(-4.68299e-05 -1.78599e-06 3.84681e-27)
(-4.69205e-05 -1.93005e-05 4.32074e-26)
(-4.86278e-05 -1.82939e-06 1.02376e-25)
(-4.87885e-05 -1.91873e-05 5.06744e-27)
(-5.04643e-05 -1.85578e-06 -1.70135e-25)
(-5.06913e-05 -1.90568e-05 -1.60617e-25)
(-5.23395e-05 -1.8661e-06 7.04926e-26)
(-5.26291e-05 -1.89099e-05 -1.57377e-26)
(-5.42535e-05 -1.8613e-06 -7.35352e-27)
(-5.46018e-05 -1.87478e-05 1.89155e-25)
(-5.62063e-05 -1.84235e-06 -2.98321e-27)
(-5.66094e-05 -1.85713e-05 -8.2173e-27)
(-5.8198e-05 -1.81019e-06 3.34248e-27)
(-5.86521e-05 -1.83816e-05 -6.25142e-26)
(-6.02285e-05 -1.76578e-06 -5.70611e-26)
(-6.07298e-05 -1.81797e-05 -5.61279e-26)
(-6.22976e-05 -1.71005e-06 5.90397e-26)
(-6.28424e-05 -1.79665e-05 8.9714e-26)
(-6.44054e-05 -1.64393e-06 -5.36611e-26)
(-6.49901e-05 -1.7743e-05 2.54757e-26)
(-6.65517e-05 -1.5683e-06 -4.87595e-27)
(-6.71727e-05 -1.75101e-05 -3.73036e-27)
(-6.87363e-05 -1.48403e-06 2.67467e-26)
(-6.93902e-05 -1.72688e-05 6.7028e-26)
(-7.09591e-05 -1.39197e-06 5.82905e-26)
(-7.16426e-05 -1.70198e-05 -1.18992e-25)
(-7.32198e-05 -1.29291e-06 -2.3693e-26)
(-7.39299e-05 -1.67641e-05 1.1643e-25)
(-7.55183e-05 -1.18762e-06 2.31004e-26)
(-7.62519e-05 -1.65025e-05 -1.21917e-25)
(-7.78543e-05 -1.07683e-06 -2.33811e-26)
(-7.86088e-05 -1.62355e-05 2.9402e-26)
(-8.02275e-05 -9.61206e-07 -6.36334e-26)
(-8.10003e-05 -1.59639e-05 -4.17803e-28)
(-8.26378e-05 -8.41392e-07 5.80059e-26)
(-8.34265e-05 -1.56883e-05 8.10838e-26)
(-8.5085e-05 -7.17979e-07 2.18561e-27)
(-8.58874e-05 -1.54092e-05 -8.21141e-26)
(-8.75687e-05 -5.91522e-07 -2.14872e-27)
(-8.83829e-05 -1.51271e-05 8.70187e-26)
(-9.00889e-05 -4.62542e-07 9.90734e-28)
(-9.0913e-05 -1.48424e-05 -8.74288e-26)
(-9.26453e-05 -3.31536e-07 1.95608e-27)
(-9.34777e-05 -1.45555e-05 2.92009e-26)
(-9.52379e-05 -1.98988e-07 -3.1029e-26)
(-9.6077e-05 -1.42666e-05 -1.11118e-29)
(-9.78666e-05 -6.53871e-08 -1.29969e-28)
(-9.87111e-05 -1.3976e-05 1.37022e-26)
(-0.000100531 6.87293e-08 4.45833e-26)
(-0.00010138 -1.36838e-05 1.2673e-26)
(-0.000103232 2.02728e-07 2.43534e-26)
(-0.000104084 -1.33898e-05 -2.89467e-26)
(-0.00010597 3.35763e-07 -1.18429e-26)
(-0.000106823 -1.30938e-05 4.53393e-26)
(-0.000108743 4.66579e-07 -2.82966e-26)
(-0.000109598 -1.2795e-05 -3.01716e-26)
(-0.000111553 5.93931e-07 3.29387e-27)
(-0.000112408 -1.24925e-05 -6.17788e-27)
(-0.000114392 7.17346e-07 -1.16964e-28)
(-0.000115247 -1.21864e-05 -8.32483e-27)
(-0.000117248 8.5342e-07 9.87619e-28)
(-0.000118102 -1.18934e-05 5.8861e-28)
(-0.000120062 1.06134e-06 -3.22043e-27)
(-0.000121769 -2.88517e-07 4.44266e-27)
(-0.000122102 -3.57969e-06 -1.36685e-27)
(-0.000122316 -6.81782e-06 -3.94576e-28)
(-0.00012241 -1.01093e-05 1.7067e-28)
(-0.000120916 -1.1673e-05 5.54688e-28)
)
;
    }
    frontAndBackPlanes
    {
        type            empty;
    }
}


// ************************************************************************* //
