/*--------------------------------*- C++ -*----------------------------------*\
| =========                 |                                                 |
| \\      /  F ield         | OpenFOAM Extend Project: Open source CFD        |
|  \\    /   O peration     | Version:  1.6-ext                               |
|   \\  /    A nd           | Web:      www.extend-project.de                 |
|    \\/     M anipulation  |                                                 |
\*---------------------------------------------------------------------------*/
FoamFile
{
    version     2.0;
    format      ascii;
    class       volScalarField::DimensionedInternalField;
    location    "0.05";
    object      V0;
}
// * * * * * * * * * * * * * * * * * * * * * * * * * * * * * * * * * * * * * //

dimensions      [0 3 0 0 0 0 0];

value           nonuniform List<scalar> 
328
(
2.52959e-07
2.53119e-07
2.53121e-07
2.52962e-07
2.71189e-07
2.71438e-07
2.7144e-07
2.71191e-07
2.90895e-07
2.91102e-07
2.91103e-07
2.90898e-07
3.12032e-07
3.12187e-07
3.12188e-07
3.12036e-07
3.34696e-07
3.34807e-07
3.34808e-07
3.34701e-07
3.58992e-07
3.59069e-07
3.5907e-07
3.58997e-07
3.85042e-07
3.85093e-07
3.85094e-07
3.85047e-07
4.12974e-07
4.13007e-07
4.13008e-07
4.12979e-07
4.42927e-07
4.42947e-07
4.42948e-07
4.42933e-07
4.75048e-07
4.75059e-07
4.7506e-07
4.75054e-07
5.09496e-07
5.09502e-07
5.09503e-07
5.09502e-07
5.4644e-07
5.46442e-07
5.46443e-07
5.46446e-07
5.86061e-07
5.86062e-07
5.86063e-07
5.86067e-07
6.28554e-07
6.28554e-07
6.28555e-07
6.28561e-07
6.74128e-07
6.74128e-07
6.74129e-07
6.74134e-07
7.23006e-07
7.23006e-07
7.23007e-07
7.23012e-07
7.75427e-07
7.75428e-07
7.75429e-07
7.75433e-07
8.3165e-07
8.31651e-07
8.31652e-07
8.31655e-07
8.91949e-07
8.9195e-07
8.91951e-07
8.91954e-07
9.5662e-07
9.56621e-07
9.56622e-07
9.56625e-07
1.02598e-06
1.02598e-06
1.02598e-06
1.02598e-06
1.10037e-06
1.10037e-06
1.10037e-06
1.10037e-06
1.2671e-06
1.26711e-06
1.26711e-06
1.26711e-06
1.26711e-06
1.26711e-06
1.26711e-06
1.26711e-06
1.26711e-06
1.26711e-06
1.26711e-06
1.26711e-06
1.26711e-06
1.26711e-06
1.26711e-06
1.26711e-06
1.26711e-06
1.26711e-06
1.26711e-06
1.26711e-06
1.26711e-06
1.26711e-06
1.26711e-06
1.26711e-06
1.26711e-06
1.26711e-06
1.26711e-06
1.26711e-06
1.26711e-06
1.26711e-06
1.26711e-06
1.26711e-06
1.26711e-06
1.26711e-06
1.26711e-06
1.26711e-06
1.26712e-06
1.26711e-06
1.26711e-06
1.26711e-06
1.26712e-06
1.26711e-06
1.26711e-06
1.26711e-06
1.26712e-06
1.26712e-06
1.26711e-06
1.26711e-06
1.26712e-06
1.26712e-06
1.26711e-06
1.26711e-06
1.26712e-06
1.26712e-06
1.26712e-06
1.26711e-06
1.26712e-06
1.26712e-06
1.26712e-06
1.26711e-06
1.26712e-06
1.26712e-06
1.26712e-06
1.26711e-06
1.26712e-06
1.26712e-06
1.26712e-06
1.26711e-06
1.26712e-06
1.26712e-06
1.26712e-06
1.26712e-06
1.26712e-06
1.26712e-06
1.26712e-06
1.26712e-06
1.26712e-06
1.26712e-06
1.26712e-06
1.26712e-06
1.26712e-06
1.26712e-06
1.26712e-06
1.26712e-06
1.26712e-06
1.26712e-06
1.26712e-06
1.26712e-06
1.26713e-06
1.26712e-06
1.26712e-06
1.26712e-06
1.26713e-06
1.26712e-06
1.26712e-06
1.26712e-06
1.26713e-06
1.26712e-06
1.26712e-06
1.26712e-06
1.26713e-06
1.26712e-06
1.26712e-06
1.26712e-06
1.26713e-06
1.26712e-06
1.26712e-06
1.26712e-06
1.26713e-06
1.26712e-06
1.26712e-06
1.26712e-06
1.26713e-06
1.26712e-06
1.26712e-06
1.26712e-06
1.26713e-06
1.26713e-06
1.26712e-06
1.26712e-06
1.26713e-06
1.26713e-06
1.26712e-06
1.26712e-06
1.26713e-06
1.26713e-06
1.26713e-06
1.26712e-06
1.26713e-06
1.26713e-06
1.26713e-06
1.26712e-06
1.26713e-06
1.26713e-06
1.26713e-06
1.26712e-06
1.26713e-06
1.26713e-06
1.26713e-06
1.26713e-06
1.26713e-06
1.26713e-06
1.26713e-06
1.26713e-06
1.26713e-06
1.26713e-06
1.26713e-06
1.26713e-06
1.26713e-06
1.26713e-06
1.26713e-06
1.26713e-06
1.26713e-06
1.26713e-06
1.26713e-06
1.26713e-06
1.26713e-06
1.26713e-06
1.26713e-06
1.26713e-06
1.26713e-06
1.26713e-06
1.26713e-06
1.26713e-06
1.26713e-06
1.26713e-06
1.26713e-06
1.26713e-06
1.26713e-06
1.26713e-06
1.26713e-06
1.26713e-06
1.26713e-06
1.26713e-06
1.26713e-06
1.26713e-06
1.26713e-06
1.26713e-06
1.26713e-06
1.26713e-06
1.26713e-06
1.26713e-06
1.26713e-06
1.26713e-06
1.26713e-06
1.26713e-06
1.26713e-06
1.26713e-06
1.26714e-06
1.26714e-06
1.26714e-06
1.26713e-06
1.26714e-06
1.26714e-06
1.26714e-06
1.26714e-06
1.26714e-06
1.26714e-06
1.26714e-06
1.26714e-06
1.26714e-06
1.26714e-06
1.26714e-06
1.26714e-06
1.26714e-06
1.26714e-06
1.26714e-06
1.26714e-06
1.26714e-06
1.26714e-06
1.26714e-06
1.26714e-06
1.26714e-06
1.26714e-06
1.26714e-06
1.26714e-06
1.26714e-06
1.26714e-06
1.26714e-06
1.26714e-06
1.26714e-06
1.26714e-06
1.26714e-06
1.26714e-06
1.26715e-06
1.26715e-06
1.26715e-06
1.26715e-06
1.26715e-06
1.26715e-06
1.26715e-06
1.26715e-06
1.26715e-06
1.26714e-06
1.26714e-06
1.26715e-06
1.26715e-06
1.26713e-06
1.26713e-06
1.26715e-06
)
;


// ************************************************************************* //
