/*--------------------------------*- C++ -*----------------------------------*\
| =========                 |                                                 |
| \\      /  F ield         | OpenFOAM Extend Project: Open source CFD        |
|  \\    /   O peration     | Version:  1.6-ext                               |
|   \\  /    A nd           | Web:      www.extend-project.de                 |
|    \\/     M anipulation  |                                                 |
\*---------------------------------------------------------------------------*/
FoamFile
{
    version     2.0;
    format      ascii;
    class       volVectorField;
    location    "0.05";
    object      Vs;
}
// * * * * * * * * * * * * * * * * * * * * * * * * * * * * * * * * * * * * * //

dimensions      [0 1 -1 0 0 0 0];

internalField   nonuniform List<vector> 
328
(
(-5.76441e-06 -1.80525e-05 0)
(-2.54295e-06 -3.63933e-06 0)
(-2.41296e-06 3.74804e-06 0)
(-5.1364e-06 1.72571e-05 0)
(-1.74983e-05 -4.63379e-05 0)
(-9.24906e-06 -1.07991e-05 0)
(-8.79564e-06 1.07546e-05 0)
(-1.55615e-05 4.41891e-05 0)
(-3.175e-05 -6.74872e-05 0)
(-2.01898e-05 -1.77616e-05 0)
(-1.92735e-05 1.7161e-05 0)
(-2.83031e-05 6.40398e-05 0)
(-4.74383e-05 -8.2711e-05 0)
(-3.37735e-05 -2.40006e-05 0)
(-3.23276e-05 2.24257e-05 0)
(-4.23542e-05 7.78762e-05 0)
(-6.4823e-05 -9.35532e-05 0)
(-5.02589e-05 -2.93358e-05 0)
(-4.82149e-05 2.6347e-05 0)
(-5.79684e-05 8.71005e-05 0)
(-8.37375e-05 -0.000101211 0)
(-6.90975e-05 -3.3737e-05 0)
(-6.64095e-05 2.88487e-05 0)
(-7.49978e-05 9.27874e-05 0)
(-0.000104284 -0.000106677 0)
(-9.01791e-05 -3.73408e-05 0)
(-8.68055e-05 3.00071e-05 0)
(-9.35481e-05 9.58153e-05 0)
(-0.000126521 -0.000110709 0)
(-0.000113271 -4.03539e-05 0)
(-0.000109177 2.99516e-05 0)
(-0.000113682 9.683e-05 0)
(-0.000150562 -0.000113906 0)
(-0.000138282 -4.30298e-05 0)
(-0.000133434 2.88438e-05 0)
(-0.000135517 9.63213e-05 0)
(-0.000176524 -0.000116737 0)
(-0.000165145 -4.5624e-05 0)
(-0.000159512 2.6832e-05 0)
(-0.000159171 9.4638e-05 0)
(-0.000204533 -0.00011957 0)
(-0.000193868 -4.83778e-05 0)
(-0.000187421 2.40352e-05 0)
(-0.000184773 9.20211e-05 0)
(-0.000234718 -0.000122693 0)
(-0.000224511 -5.15037e-05 0)
(-0.00021722 2.05282e-05 0)
(-0.000212456 8.86187e-05 0)
(-0.000267215 -0.000126332 0)
(-0.000257184 -5.51837e-05 0)
(-0.00024902 1.63387e-05 0)
(-0.000242359 8.45023e-05 0)
(-0.000302166 -0.000130668 0)
(-0.000292037 -5.95715e-05 0)
(-0.000282975 1.14487e-05 0)
(-0.000274632 7.96796e-05 0)
(-0.000339724 -0.000135845 0)
(-0.000329255 -6.47995e-05 0)
(-0.00031927 5.80055e-06 0)
(-0.000309435 7.4107e-05 0)
(-0.000380054 -0.000141989 0)
(-0.000369048 -7.09862e-05 0)
(-0.000358119 -6.95797e-07 0)
(-0.000346944 6.77005e-05 0)
(-0.000423335 -0.000149213 0)
(-0.000411643 -7.82448e-05 0)
(-0.000399753 -8.15513e-06 0)
(-0.000387352 6.03467e-05 0)
(-0.000469765 -0.000157629 0)
(-0.000457282 -8.66899e-05 0)
(-0.000444421 -1.67101e-05 0)
(-0.000430874 5.19107e-05 0)
(-0.000519555 -0.000167353 0)
(-0.000506215 -9.64414e-05 0)
(-0.000492378 -2.65057e-05 0)
(-0.000477741 4.22433e-05 0)
(-0.000572932 -0.000178505 0)
(-0.000558705 -0.000107628 0)
(-0.000543895 -3.76953e-05 0)
(-0.000528206 3.11855e-05 0)
(-0.000630135 -0.000191215 0)
(-0.000615016 -0.000120385 0)
(-0.000599249 -5.04375e-05 0)
(-0.00058254 1.85714e-05 0)
(-0.000691414 -0.000205617 0)
(-0.000675423 -0.000134854 0)
(-0.000658725 -6.48923e-05 0)
(-0.00064103 4.23406e-06 0)
(-0.000759523 -0.00022246 0)
(-0.000742672 -0.000151801 0)
(-0.000725051 -8.18419e-05 0)
(-0.000706374 -1.26161e-05 0)
(-0.000832236 -0.000241352 0)
(-0.000814606 -0.000170839 0)
(-0.000796134 -0.000100915 0)
(-0.000776539 -3.162e-05 0)
(-0.000904694 -0.000260945 0)
(-0.000886423 -0.000190629 0)
(-0.000867238 -0.000120791 0)
(-0.000846859 -5.148e-05 0)
(-0.000976815 -0.000281088 0)
(-0.000958045 -0.000211028 0)
(-0.000938282 -0.000141335 0)
(-0.000917249 -7.20699e-05 0)
(-0.00104851 -0.000301627 0)
(-0.00102938 -0.000231891 0)
(-0.00100917 -0.000162412 0)
(-0.000987614 -9.32642e-05 0)
(-0.00111968 -0.000322411 0)
(-0.00110033 -0.000253073 0)
(-0.0010798 -0.000183886 0)
(-0.00105784 -0.000114936 0)
(-0.0011902 -0.000343293 0)
(-0.00117076 -0.000274435 0)
(-0.00115005 -0.000205624 0)
(-0.00112782 -0.000136959 0)
(-0.00125997 -0.00036413 0)
(-0.00124057 -0.000295839 0)
(-0.0012198 -0.000227495 0)
(-0.0011974 -0.000159211 0)
(-0.00132885 -0.000384786 0)
(-0.00130962 -0.000317154 0)
(-0.00128889 -0.000249376 0)
(-0.00126644 -0.000181576 0)
(-0.0013967 -0.000405135 0)
(-0.00137775 -0.000338259 0)
(-0.00135718 -0.000271151 0)
(-0.00133479 -0.000203943 0)
(-0.00146339 -0.000425062 0)
(-0.00144482 -0.000359044 0)
(-0.00142451 -0.000292713 0)
(-0.00140227 -0.000226212 0)
(-0.00152877 -0.000444462 0)
(-0.00151068 -0.000379407 0)
(-0.00149072 -0.000313967 0)
(-0.00146872 -0.000248291 0)
(-0.00159267 -0.000463244 0)
(-0.00157515 -0.000399261 0)
(-0.00155563 -0.000334829 0)
(-0.00153395 -0.000270098 0)
(-0.00165496 -0.000481328 0)
(-0.00163808 -0.00041853 0)
(-0.00161907 -0.000355222 0)
(-0.00159779 -0.000291561 0)
(-0.00171545 -0.000498646 0)
(-0.00169929 -0.000437146 0)
(-0.00168086 -0.000375083 0)
(-0.00166004 -0.000312613 0)
(-0.00177399 -0.000515138 0)
(-0.00175861 -0.00045505 0)
(-0.00174083 -0.000394351 0)
(-0.00172053 -0.000333196 0)
(-0.00183041 -0.000530751 0)
(-0.00181586 -0.000472189 0)
(-0.00179879 -0.000412972 0)
(-0.00177908 -0.000353251 0)
(-0.00188455 -0.000545439 0)
(-0.00187088 -0.000488514 0)
(-0.00185457 -0.000430896 0)
(-0.00183551 -0.000372726 0)
(-0.00193624 -0.000559155 0)
(-0.00192351 -0.000503978 0)
(-0.00190802 -0.00044807 0)
(-0.00188966 -0.000391563 0)
(-0.00198533 -0.000571859 0)
(-0.00197357 -0.000518533 0)
(-0.00195895 -0.000464442 0)
(-0.00194136 -0.000409706 0)
(-0.00203166 -0.000583507 0)
(-0.00202093 -0.000532131 0)
(-0.00200723 -0.000479958 0)
(-0.00199046 -0.000427094 0)
(-0.0020751 -0.000594058 0)
(-0.00206544 -0.000544723 0)
(-0.00205271 -0.000494562 0)
(-0.00203681 -0.000443662 0)
(-0.00211552 -0.000603472 0)
(-0.00210697 -0.00055626 0)
(-0.00209525 -0.000508194 0)
(-0.0020803 -0.000459345 0)
(-0.00215281 -0.00061171 0)
(-0.0021454 -0.000566691 0)
(-0.00213475 -0.000520797 0)
(-0.00212079 -0.000474074 0)
(-0.00218688 -0.000618738 0)
(-0.00218064 -0.000575972 0)
(-0.00217109 -0.000532312 0)
(-0.00215818 -0.000487784 0)
(-0.00221765 -0.000624526 0)
(-0.0022126 -0.00058406 0)
(-0.00220419 -0.000542687 0)
(-0.00219237 -0.000500409 0)
(-0.00224506 -0.000629055 0)
(-0.00224122 -0.000590922 0)
(-0.00223398 -0.000551876 0)
(-0.0022233 -0.000511892 0)
(-0.00226907 -0.000632313 0)
(-0.00226645 -0.000596532 0)
(-0.00226041 -0.00055984 0)
(-0.0022509 -0.000522182 0)
(-0.00228968 -0.0006343 0)
(-0.00228828 -0.000600879 0)
(-0.00228344 -0.000566552 0)
(-0.00227514 -0.000531239 0)
(-0.00230688 -0.000635029 0)
(-0.00230669 -0.000603958 0)
(-0.00230306 -0.000571996 0)
(-0.00229598 -0.000539031 0)
(-0.0023207 -0.000634524 0)
(-0.00232171 -0.000605781 0)
(-0.00231928 -0.000576165 0)
(-0.00231344 -0.000545538 0)
(-0.0023312 -0.00063282 0)
(-0.00233337 -0.000606366 0)
(-0.00233213 -0.000579067 0)
(-0.00232753 -0.000550751 0)
(-0.00233843 -0.000629958 0)
(-0.00234173 -0.000605744 0)
(-0.00234167 -0.000580714 0)
(-0.00233831 -0.000554669 0)
(-0.00234249 -0.000625989 0)
(-0.00234688 -0.000603951 0)
(-0.00234798 -0.00058113 0)
(-0.00234584 -0.000557297 0)
(-0.00234348 -0.000620968 0)
(-0.00234891 -0.000601027 0)
(-0.00235114 -0.000580339 0)
(-0.00235022 -0.000558647 0)
(-0.00234151 -0.000614948 0)
(-0.00234796 -0.000597015 0)
(-0.00235128 -0.00057837 0)
(-0.00235156 -0.000558732 0)
(-0.00233674 -0.000607984 0)
(-0.00234415 -0.000591956 0)
(-0.00234855 -0.000575252 0)
(-0.00235 -0.000557568 0)
(-0.00232932 -0.00060013 0)
(-0.00233765 -0.000585891 0)
(-0.00234308 -0.000571013 0)
(-0.0023457 -0.00055517 0)
(-0.00231943 -0.000591433 0)
(-0.00232863 -0.000578857 0)
(-0.00233507 -0.00056568 0)
(-0.00233883 -0.000551553 0)
(-0.00230726 -0.000581941 0)
(-0.00231729 -0.000570892 0)
(-0.0023247 -0.000559278 0)
(-0.00232957 -0.000546733 0)
(-0.00229302 -0.000571697 0)
(-0.00230384 -0.000562028 0)
(-0.00231218 -0.000551832 0)
(-0.00231814 -0.000540727 0)
(-0.00227693 -0.000560744 0)
(-0.00228849 -0.000552301 0)
(-0.00229772 -0.000543369 0)
(-0.00230473 -0.000533556 0)
(-0.00225921 -0.000549127 0)
(-0.00227146 -0.000541749 0)
(-0.00228156 -0.000533922 0)
(-0.00228958 -0.000525245 0)
(-0.00224012 -0.000536893 0)
(-0.00225301 -0.000530414 0)
(-0.00226391 -0.000523528 0)
(-0.00227291 -0.000515829 0)
(-0.00221989 -0.000524093 0)
(-0.00223337 -0.000518344 0)
(-0.00224502 -0.000512232 0)
(-0.00225495 -0.00050535 0)
(-0.00219877 -0.000510786 0)
(-0.00221279 -0.000505597 0)
(-0.00222513 -0.00050009 0)
(-0.00223592 -0.000493862 0)
(-0.00217702 -0.000497034 0)
(-0.00219151 -0.000492235 0)
(-0.00220448 -0.000487167 0)
(-0.00221607 -0.000481432 0)
(-0.00215488 -0.000482906 0)
(-0.00216977 -0.000478333 0)
(-0.00218331 -0.000473538 0)
(-0.00219563 -0.000468135 0)
(-0.00213259 -0.000468475 0)
(-0.00214782 -0.000463967 0)
(-0.00216184 -0.000459285 0)
(-0.00217481 -0.000454058 0)
(-0.00211036 -0.000453814 0)
(-0.00212587 -0.00044922 0)
(-0.00214032 -0.000444497 0)
(-0.00215385 -0.000439293 0)
(-0.00208842 -0.000438996 0)
(-0.00210414 -0.000434173 0)
(-0.00211894 -0.000429261 0)
(-0.00213296 -0.000423935 0)
(-0.00206695 -0.000424089 0)
(-0.00208283 -0.000418904 0)
(-0.00209791 -0.000413667 0)
(-0.00211233 -0.00040808 0)
(-0.00204613 -0.000409153 0)
(-0.00206212 -0.000403488 0)
(-0.00207742 -0.000397795 0)
(-0.00209216 -0.000391819 0)
(-0.00202611 -0.00039424 0)
(-0.00204218 -0.000387989 0)
(-0.00205765 -0.000381718 0)
(-0.00207263 -0.000375237 0)
(-0.00200701 -0.000379397 0)
(-0.00202314 -0.000372464 0)
(-0.00203874 -0.000365497 0)
(-0.00205387 -0.000358403 0)
(-0.00198894 -0.00036466 0)
(-0.00200516 -0.000356964 0)
(-0.00202083 -0.000349173 0)
(-0.00203602 -0.000341371 0)
(-0.00197196 -0.000350065 0)
(-0.00198835 -0.000341529 0)
(-0.00200407 -0.000332778 0)
(-0.00201917 -0.000324179 0)
(-0.00195612 -0.000335619 0)
(-0.00197283 -0.00032618 0)
(-0.00198858 -0.00031634 0)
(-0.00200338 -0.000306865 0)
(-0.00194135 -0.00032103 0)
(-0.00195874 -0.000310788 0)
(-0.00197449 -0.000300012 0)
(-0.00198863 -0.000289753 0)
(-0.00192751 -0.000305341 0)
(-0.00194579 -0.000295026 0)
(-0.00196155 -0.000284129 0)
(-0.00197479 -0.000273803 0)
)
;

boundaryField
{
    plateFix
    {
        type            calculated;
        value           uniform (0 0 0);
    }
    plate
    {
        type            calculated;
        value           nonuniform List<vector> 
168
(
(-8.48944e-05 -4.88405e-05 -2.2343e-23)
(-8.06067e-05 4.59429e-05 -7.91585e-23)
(-7.53275e-05 -7.81395e-05 -7.81873e-22)
(-7.02612e-05 7.38053e-05 8.83032e-22)
(-7.14573e-05 -0.000100763 2.45964e-21)
(-6.50602e-05 9.50401e-05 8.11664e-22)
(-7.39815e-05 -0.000116588 -3.35648e-23)
(-6.58275e-05 0.000109457 -1.69363e-21)
(-8.23815e-05 -0.000127923 -8.21221e-22)
(-7.21173e-05 0.000119175 -6.10406e-22)
(-9.53186e-05 -0.000135863 2.86326e-21)
(-8.26802e-05 0.000125168 4.92203e-23)
(-0.000112035 -0.000141557 -8.99356e-22)
(-9.68086e-05 0.000128458 -1.54695e-21)
(-0.000131928 -0.000145765 -4.45366e-24)
(-0.000113935 0.000129695 1.35298e-21)
(-0.000154653 -0.000149118 -2.01109e-23)
(-0.000133736 0.000129393 -9.20256e-22)
(-0.000179992 -0.000152081 -2.15364e-21)
(-0.000156008 0.000127899 3.69079e-22)
(-0.00020784 -0.000155027 1.67987e-21)
(-0.000180653 0.000125456 8.44706e-22)
(-0.000238159 -0.000158241 1.61102e-21)
(-0.000207642 0.00012221 2.02057e-23)
(-0.00027097 -0.000161949 -2.82354e-21)
(-0.000237001 0.000118233 -1.39199e-21)
(-0.000306335 -0.000166334 -5.91845e-24)
(-0.000268802 0.000113534 1.31307e-21)
(-0.000344358 -0.000171543 -2.78205e-22)
(-0.00030316 0.000108071 -1.38598e-21)
(-0.000385172 -0.000177704 9.47889e-22)
(-0.000340222 0.000101765 1.2e-21)
(-0.000428941 -0.000184933 4.35053e-22)
(-0.000380169 9.45044e-05 -2.95564e-22)
(-0.000475853 -0.000193344 8.50203e-23)
(-0.000423212 8.61569e-05 5.87809e-23)
(-0.000526114 -0.000203053 -1.0167e-23)
(-0.000469586 7.65746e-05 -5.60597e-22)
(-0.000579951 -0.000214183 -5.51465e-23)
(-0.000519549 6.55985e-05 8.19333e-22)
(-0.000637598 -0.000226859 2.94723e-22)
(-0.000573379 5.30613e-05 -5.53549e-22)
(-0.000699306 -0.000241213 -1.08003e-21)
(-0.000631377 3.87939e-05 6.59426e-22)
(-0.000767824 -0.000257984 5.38007e-22)
(-0.000696222 2.20017e-05 -9.24194e-22)
(-0.000840903 -0.000276786 -4.71777e-23)
(-0.000765908 3.04395e-06 5.11887e-22)
(-0.000913657 -0.000296262 -1.37554e-22)
(-0.000835818 -1.67977e-05 7.75296e-22)
(-0.000986003 -0.000316258 -1.9518e-22)
(-0.000905863 -3.74005e-05 -1.06233e-21)
(-0.00105785 -0.000336616 8.99764e-22)
(-0.00097595 -5.86436e-05 5.38013e-22)
(-0.00112909 -0.000357182 -5.32366e-22)
(-0.00104597 -8.04045e-05 -2.06076e-22)
(-0.00119962 -0.000377806 7.31912e-22)
(-0.00111579 -0.000102561 -3.50936e-22)
(-0.00126933 -0.000398342 -7.26811e-22)
(-0.00118528 -0.000124995 5.20019e-22)
(-0.00133808 -0.000418653 5.11923e-22)
(-0.00125428 -0.000147593 -1.49813e-22)
(-0.00140574 -0.000438609 1.36573e-23)
(-0.00132265 -0.000170249 -3.56749e-22)
(-0.00147219 -0.000458093 -7.25042e-22)
(-0.0013902 -0.000192864 5.21221e-22)
(-0.00153727 -0.000476999 9.54085e-23)
(-0.00145676 -0.000215348 -3.64872e-22)
(-0.00160085 -0.000495235 -3.46791e-22)
(-0.00152214 -0.000237622 2.01553e-22)
(-0.00166276 -0.000512719 3.4015e-22)
(-0.00158616 -0.000259613 1.49553e-22)
(-0.00172285 -0.000529381 2.75232e-22)
(-0.00164862 -0.000281256 -3.33467e-22)
(-0.00178096 -0.00054516 -2.59017e-22)
(-0.00170936 -0.000302489 4.3383e-22)
(-0.00183693 -0.000560006 8.66894e-24)
(-0.00176818 -0.000323255 -1.05679e-22)
(-0.00189059 -0.00057387 -1.77846e-22)
(-0.00182491 -0.000343498 -4.1366e-22)
(-0.00194178 -0.00058671 1.8667e-22)
(-0.00187938 -0.00036316 2.53365e-22)
(-0.00199034 -0.000598485 8.91644e-23)
(-0.00193144 -0.000382179 -8.37832e-24)
(-0.00203614 -0.000609156 -1.16228e-23)
(-0.00198093 -0.000400493 2.12164e-24)
(-0.00207901 -0.000618686 7.74634e-23)
(-0.00202771 -0.000418034 1.67212e-22)
(-0.00211885 -0.000627039 -8.64584e-23)
(-0.00207164 -0.000434732 -1.60349e-22)
(-0.00215555 -0.000634181 1.37795e-23)
(-0.00211262 -0.000450514 -1.76231e-22)
(-0.002189 -0.000640084 2.47298e-22)
(-0.00215053 -0.00046531 3.22761e-22)
(-0.00221914 -0.000644725 -2.65245e-22)
(-0.00218528 -0.000479049 -1.46309e-22)
(-0.00224591 -0.000648091 -1.56771e-22)
(-0.00221679 -0.000491669 1.46505e-22)
(-0.00226929 -0.000650178 8.06822e-23)
(-0.002245 -0.000503113 -2.43375e-22)
(-0.00228926 -0.000650993 -1.72489e-22)
(-0.00226985 -0.000513333 -9.37783e-23)
(-0.00230584 -0.000650555 5.85174e-22)
(-0.00229133 -0.000522292 3.81606e-22)
(-0.00231906 -0.000648896 -3.44195e-22)
(-0.00230943 -0.000529961 -5.20608e-22)
(-0.00232897 -0.000646055 4.45629e-22)
(-0.00232417 -0.000536324 7.04847e-23)
(-0.00233563 -0.000642085 -2.43597e-22)
(-0.00233559 -0.000541372 4.28808e-22)
(-0.00233915 -0.000637039 -1.82926e-22)
(-0.00234376 -0.000545102 -1.7433e-22)
(-0.00233962 -0.000630979 8.09963e-23)
(-0.00234877 -0.000547518 -2.53569e-24)
(-0.00233718 -0.000623966 6.87301e-23)
(-0.00235074 -0.000548626 -2.45034e-22)
(-0.00233195 -0.00061606 -1.47326e-22)
(-0.0023498 -0.000548436 1.27877e-22)
(-0.0023241 -0.000607321 1.31481e-25)
(-0.00234611 -0.000546955 2.07573e-22)
(-0.0023138 -0.000597801 -8.50273e-23)
(-0.00233984 -0.000544195 -9.30121e-23)
(-0.00230124 -0.000587554 3.96008e-23)
(-0.00233118 -0.000540165 9.49413e-24)
(-0.00228664 -0.000576627 5.14453e-23)
(-0.00232033 -0.00053488 -1.70567e-22)
(-0.0022702 -0.000565068 4.30307e-23)
(-0.00230751 -0.000528355 3.48282e-22)
(-0.00225217 -0.000552925 2.39367e-23)
(-0.00229292 -0.000520615 -3.09999e-22)
(-0.00223278 -0.000540248 -3.13862e-23)
(-0.00227679 -0.000511692 3.93593e-23)
(-0.00221228 -0.000527089 -4.97575e-23)
(-0.00225934 -0.000501627 1.32778e-22)
(-0.00219093 -0.000513507 -2.64658e-23)
(-0.0022408 -0.000490475 -4.51609e-24)
(-0.00216897 -0.000499565 -1.28964e-23)
(-0.0022214 -0.000478301 -8.48271e-23)
(-0.00214666 -0.000485329 -1.72572e-23)
(-0.00220136 -0.000465182 1.30192e-22)
(-0.00212423 -0.000470868 1.38446e-22)
(-0.00218091 -0.000451206 -8.48781e-23)
(-0.0021019 -0.000456253 -1.15904e-22)
(-0.00216026 -0.000436466 -5.66674e-23)
(-0.00207989 -0.000441551 -4.95813e-24)
(-0.00213963 -0.000421062 1.19813e-22)
(-0.00205838 -0.000426823 -3.76702e-23)
(-0.00211922 -0.000405094 -2.1796e-23)
(-0.00203755 -0.000412124 8.34611e-23)
(-0.00209923 -0.000388656 2.4329e-23)
(-0.00201753 -0.000397498 -3.95028e-23)
(-0.00207981 -0.000371839 -1.09607e-22)
(-0.00199846 -0.000382983 5.73444e-23)
(-0.00206115 -0.00035472 1.10246e-22)
(-0.00198042 -0.000368607 -9.97553e-24)
(-0.00204336 -0.000337362 -3.1717e-23)
(-0.00196346 -0.000354396 5.04654e-24)
(-0.00202652 -0.000319812 1.41645e-24)
(-0.00194755 -0.000340351 8.46799e-24)
(-0.00201065 -0.000302117 -1.20563e-23)
(-0.00193229 -0.000326121 -2.05383e-23)
(-0.00199538 -0.000284655 -1.34814e-23)
(-0.00191704 -0.000310859 3.5447e-25)
(-0.00192096 -0.000295309 1.97296e-24)
(-0.00193953 -0.000286639 -4.28556e-24)
(-0.00195528 -0.000276728 1.85525e-24)
(-0.00196824 -0.000268038 1.73878e-25)
(-0.00198011 -0.00026828 5.31696e-24)
)
;
    }
    frontAndBackPlanes
    {
        type            empty;
    }
}


// ************************************************************************* //
