/*--------------------------------*- C++ -*----------------------------------*\
| =========                 |                                                 |
| \\      /  F ield         | OpenFOAM Extend Project: Open source CFD        |
|  \\    /   O peration     | Version:  1.6-ext                               |
|   \\  /    A nd           | Web:      www.extend-project.de                 |
|    \\/     M anipulation  |                                                 |
\*---------------------------------------------------------------------------*/
FoamFile
{
    version     2.0;
    format      ascii;
    class       volScalarField;
    location    "3.9";
    object      p;
}
// * * * * * * * * * * * * * * * * * * * * * * * * * * * * * * * * * * * * * //

dimensions      [0 2 -2 0 0 0 0];

internalField   nonuniform List<scalar> 
284
(
0.28109
0.249615
0.238152
0.233178
0.231287
0.231274
0.232166
0.233427
0.23546
0.251876
0.242999
0.237649
0.23513
0.234178
0.234228
0.234788
0.235596
0.237777
0.239918
0.236516
0.233957
0.232806
0.232813
0.233572
0.234562
0.235542
0.238514
0.230443
0.229376
0.228341
0.228148
0.228874
0.230218
0.231658
0.232876
0.236596
0.222631
0.222324
0.22193
0.222009
0.222756
0.223998
0.225218
0.22599
0.229824
0.215533
0.215413
0.215091
0.214851
0.214862
0.215009
0.214754
0.213439
0.215222
0.208788
0.208639
0.208045
0.207058
0.205673
0.20362
0.200023
0.193131
0.18765
0.202425
0.202153
0.201075
0.199037
0.195766
0.190651
0.182085
0.167723
0.123052
0.196689
0.196251
0.194557
0.191277
0.185684
0.176154
0.156874
0.11874
0.0248298
0.191952
0.191295
0.188924
0.184515
0.177299
0.165768
0.145632
0.113679
0.0599212
0.188678
0.187608
0.184411
0.179019
0.171028
0.159523
0.142559
0.118196
0.0849706
0.187376
0.185428
0.180979
0.174519
0.16601
0.154887
0.140325
0.120527
0.0968291
0.189669
0.185149
0.178577
0.170825
0.161816
0.15108
0.138171
0.121605
0.102861
0.195771
0.185967
0.176755
0.1679
0.158758
0.14857
0.136832
0.122417
0.106108
0.224006
0.192116
0.177351
0.167439
0.158515
0.149109
0.138304
0.124967
0.109446
-0.10878
-0.0735266
-0.00981845
-0.031084
0.035074
0.00491985
0.0633881
0.0369303
0.0796175
0.0575642
0.0872583
0.0678861
0.0914963
0.072266
-0.0612085
-0.0523836
-0.0488928
-0.0468196
-0.0436774
-0.0376708
-0.0288532
-0.0172886
-0.0057336
-0.0370739
-0.037616
-0.037708
-0.03711
-0.0346062
-0.0293097
-0.0220135
-0.0127692
-0.00492045
-0.00944867
-0.0161266
-0.0196699
-0.021169
-0.0204655
-0.0173435
-0.0129512
-0.00725214
-0.00384499
0.0198211
0.00865496
0.000873883
-0.00385697
-0.00594914
-0.00581971
-0.00472548
-0.00262802
-0.00300275
0.0396924
0.0260033
0.0158784
0.00886366
0.00441448
0.00198439
0.000541461
3.68264e-05
-0.00254679
0.05037
0.0356864
0.0240748
0.0154085
0.00927207
0.00515436
0.00232333
0.000551133
-0.00246972
0.0537319
0.0375488
0.02432
0.0141598
0.00685359
0.00200511
-0.000927737
-0.0023395
-0.0038586
-0.0289892
-0.0301121
-0.0293502
-0.0270787
-0.0232124
-0.0178102
-0.0112957
-0.00594892
0.00489694
-0.0278219
-0.0290499
-0.0284879
-0.0267534
-0.0236066
-0.0188397
-0.0128128
-0.00784965
0.00421676
-0.0289226
-0.0303587
-0.0300977
-0.0287837
-0.0259932
-0.0213329
-0.0149397
-0.00954497
0.00452544
-0.0319577
-0.0333315
-0.0333821
-0.0325255
-0.0300575
-0.0253718
-0.0183958
-0.0123246
0.00393463
-0.0369191
-0.0376859
-0.0379298
-0.037538
-0.0353859
-0.030648
-0.0229425
-0.0147461
0.00126457
-0.0435798
-0.0426572
-0.0429117
-0.0428905
-0.0410531
-0.0361611
-0.0279934
-0.0172467
-0.00184765
-0.0513867
-0.0469333
-0.0470004
-0.0468768
-0.0451636
-0.0400967
-0.031363
-0.019287
-0.00438342
-0.0688661
-0.0516723
-0.0495925
-0.0487054
-0.046443
-0.0409418
-0.0318949
-0.0194933
-0.0056936
)
;

boundaryField
{
    inlet
    {
        type            zeroGradient;
    }
    outlet
    {
        type            totalPressure;
        rho             none;
        psi             none;
        gamma           1;
        p0              uniform 0;
        value           nonuniform List<scalar> 
15
(
-3.58002e-05
-0.000332595
0
0
0
0
0
0
0
0
0
0
0
0
0
)
;
    }
    fixedWalls
    {
        type            zeroGradient;
    }
    frontAndBack
    {
        type            empty;
    }
}


// ************************************************************************* //
