/*--------------------------------*- C++ -*----------------------------------*\
| =========                 |                                                 |
| \\      /  F ield         | OpenFOAM Extend Project: Open source CFD        |
|  \\    /   O peration     | Version:  1.6-ext                               |
|   \\  /    A nd           | Web:      www.extend-project.de                 |
|    \\/     M anipulation  |                                                 |
\*---------------------------------------------------------------------------*/
FoamFile
{
    version     2.0;
    format      ascii;
    class       surfaceScalarField;
    location    "3.9";
    object      phi;
}
// * * * * * * * * * * * * * * * * * * * * * * * * * * * * * * * * * * * * * //

dimensions      [0 3 -1 0 0 0 0];

internalField   nonuniform List<scalar> 
525
(
0.00016082
3.91797e-05
0.000117027
4.37937e-05
8.13711e-05
3.56555e-05
5.42307e-05
2.71405e-05
3.41797e-05
2.0051e-05
1.92048e-05
1.49748e-05
7.99016e-06
1.12147e-05
9.10155e-07
7.08e-06
9.10155e-07
0.000204945
3.42352e-05
0.000190253
5.84853e-05
0.000162151
6.37571e-05
0.000128552
6.07401e-05
9.4162e-05
5.44407e-05
6.17214e-05
4.74154e-05
3.28925e-05
4.00436e-05
1.02699e-05
2.97026e-05
1.11801e-05
0.000208655
2.558e-05
0.000208082
5.90582e-05
0.000194133
7.77059e-05
0.000168439
8.64344e-05
0.000134415
8.84645e-05
9.57456e-05
8.60852e-05
5.59184e-05
7.98708e-05
2.00726e-05
6.55484e-05
3.12527e-05
0.000205055
2.0525e-05
0.00020819
5.59228e-05
0.00020268
8.32162e-05
0.000186013
0.000103101
0.000158005
0.000116473
0.000120052
0.000124038
7.50007e-05
0.000124922
2.91781e-05
0.000111371
6.04308e-05
0.000202378
1.8147e-05
0.000205274
5.30271e-05
0.000203777
8.4713e-05
0.000193991
0.000112888
0.00017308
0.000137384
0.000139452
0.000157665
9.32608e-05
0.000171114
3.95218e-05
0.00016511
9.99526e-05
0.000201252
1.68951e-05
0.000203809
5.04697e-05
0.000204759
8.37634e-05
0.000200491
0.000117155
0.000187011
0.000150865
0.000160219
0.000184456
0.000116467
0.000214866
5.58406e-05
0.000225736
0.000155793
0.000201176
1.57187e-05
0.000204439
4.72074e-05
0.00020812
8.00825e-05
0.000209498
0.000115777
0.000204736
0.000155626
0.000188756
0.000200436
0.000153276
0.000250347
8.795e-05
0.000291062
0.000243743
0.000201718
1.40009e-05
0.000206768
4.21568e-05
0.000214155
7.26957e-05
0.000222147
0.000107785
0.000227855
0.000149919
0.000226352
0.000201939
0.000204984
0.000271714
0.000139201
0.000356845
0.000382945
0.000202632
1.13691e-05
0.000210268
3.45204e-05
0.000222175
6.07893e-05
0.00023776
9.21995e-05
0.000257084
0.000130595
0.000282061
0.000176962
0.000319632
0.000234143
0.000384782
0.000291695
0.000361924
0.000405803
0.000203918
7.45126e-06
0.000214637
2.38012e-05
0.000230985
4.44413e-05
0.00025275
7.04348e-05
0.000281333
0.000102012
0.000320181
0.000138115
0.000373045
0.000181279
0.00045481
0.00020993
0.000281549
0.000535184
0.000205988
1.46352e-06
0.000220239
9.55004e-06
0.000240153
2.45276e-05
0.000265192
4.53952e-05
0.000296553
7.06511e-05
0.000336887
9.77805e-05
0.000388338
0.000129827
0.000454846
0.000143423
0.000187345
0.00054905
0.000209423
-7.95949e-06
0.000227339
-8.36637e-06
0.000248843
3.02385e-06
0.00027379
2.04485e-05
0.000303521
4.09203e-05
0.000340148
6.11528e-05
0.000386503
8.34722e-05
0.000438802
9.11235e-05
0.000111214
0.000514934
0.000214496
-2.24557e-05
0.000232293
-2.61628e-05
0.000249964
-1.46474e-05
0.000269608
8.04062e-07
0.000293494
1.70348e-05
0.000323523
3.11233e-05
0.000362308
4.46871e-05
0.000404068
4.93641e-05
5.65026e-05
0.000458779
0.000211664
-3.412e-05
0.000216739
-3.12373e-05
0.000220367
-1.8276e-05
0.000227555
-6.38347e-06
0.000241451
3.13836e-06
0.000262651
9.92416e-06
0.000291931
1.54061e-05
0.000324239
1.70562e-05
1.85026e-05
0.000362239
0.00016588
0.000134643
0.000116367
0.000109983
0.000113122
0.000123046
0.000138452
0.000155508
0.000174011
0.000249044
0.000156759
5.71561e-05
0.000191888
0.000512105
0.000179838
9.07708e-05
0.000478491
0.000585079
0.000143808
8.4022e-05
0.000591828
0.000565229
9.35132e-05
5.7883e-05
0.000591368
0.000504241
4.80516e-05
2.80672e-05
0.000534056
0.000395595
1.46956e-05
6.58177e-06
0.000417081
0.000188706
0.000195288
0.000198365
4.15221e-06
-1.06288e-05
0.000231613
-2.17343e-05
-1.15143e-05
0.000270582
-4.57103e-05
6.74133e-06
0.000307767
-7.31255e-05
3.5941e-05
0.000338808
-0.000103646
7.26054e-05
0.000361912
-0.000134506
0.000111402
0.000376099
-0.00015897
0.000144783
0.000382184
-0.000177071
0.000170986
-0.000173259
0.000176022
0.000455255
2.73881e-05
0.000449943
-1.64223e-05
0.000456082
-5.18493e-05
0.000466347
-8.3391e-05
0.000475031
-0.00011233
0.000478272
-0.000137746
0.000474417
-0.000155116
0.000463095
-0.000165749
-0.000155508
0.000586953
3.22635e-05
0.000580803
-1.02724e-05
0.000575716
-4.6763e-05
0.000569523
-7.71971e-05
0.000559848
-0.000102656
0.000544386
-0.000122283
0.00052281
-0.00013354
0.000494618
-0.000137557
-0.000124941
0.000603011
2.06207e-05
0.000605226
-1.24877e-05
0.000599314
-4.08509e-05
0.000586264
-6.41473e-05
0.000565801
-8.21926e-05
0.000537593
-9.40753e-05
0.000503126
-9.90737e-05
0.000463221
-9.76517e-05
-8.66759e-05
0.000549264
5.41268e-06
0.000551649
-1.4872e-05
0.000542576
-3.17782e-05
0.000523039
-4.46103e-05
0.000494044
-5.31971e-05
0.000457143
-5.71751e-05
0.000415217
-5.71469e-05
0.000371083
-5.35184e-05
-4.77224e-05
0.00042516
-2.6665e-06
0.000420389
-1.01009e-05
0.000404139
-1.55286e-05
0.000378312
-1.8783e-05
0.000345187
-2.00718e-05
0.000307686
-1.96745e-05
0.000268953
-1.84134e-05
0.000232153
-1.67189e-05
-1.64329e-05
0.000192621
0.000182521
0.000166992
0.000148209
0.000128137
0.000108463
9.00492e-05
7.33303e-05
-3.76526e-06
3.76526e-06
-1.26246e-05
8.85933e-06
-2.24329e-05
9.80829e-06
-3.05024e-05
8.06956e-06
-3.51211e-05
4.61869e-06
-3.51071e-05
-1.40416e-08
-2.97693e-05
-5.33778e-06
-1.95094e-05
-1.02599e-05
-1.57369e-05
-9.63383e-06
1.33991e-05
-2.65714e-05
2.57969e-05
-4.33994e-05
2.66363e-05
-5.55859e-05
2.02561e-05
-6.0496e-05
9.52875e-06
-5.69605e-05
-3.54952e-06
-4.4963e-05
-1.73353e-05
-2.58638e-05
-2.93591e-05
-3.85246e-05
-1.19347e-05
2.53337e-05
-3.13137e-05
4.51759e-05
-4.93789e-05
4.47014e-05
-6.11367e-05
3.2014e-05
-6.39412e-05
1.23332e-05
-5.70147e-05
-1.04759e-05
-4.08984e-05
-3.34517e-05
-1.71616e-05
-5.30959e-05
-6.44183e-05
-1.18088e-05
3.71426e-05
-2.96326e-05
6.29997e-05
-4.51407e-05
6.02095e-05
-5.38137e-05
4.0687e-05
-5.33232e-05
1.18427e-05
-4.33223e-05
-2.04769e-05
-2.46088e-05
-5.21652e-05
2.60846e-06
-8.03132e-05
-9.12954e-05
-9.88886e-06
4.70315e-05
-2.18792e-05
7.49901e-05
-3.04547e-05
6.8785e-05
-3.24028e-05
4.26351e-05
-2.62102e-05
5.65009e-06
-1.21693e-05
-3.45178e-05
8.42502e-06
-7.27595e-05
3.46962e-05
-0.000106584
-0.000119676
-5.92481e-06
5.29563e-05
-6.33887e-06
7.54041e-05
-1.81402e-06
6.42601e-05
8.38554e-06
3.24356e-05
2.36335e-05
-9.59783e-06
4.36086e-05
-5.44929e-05
6.71554e-05
-9.63062e-05
9.1708e-05
-0.000131137
-0.000145673
4.65425e-06
4.8302e-05
2.2849e-05
5.72094e-05
4.75596e-05
3.95495e-05
7.44053e-05
5.58996e-06
0.00010135
-3.65422e-05
0.000128055
-8.11981e-05
0.000153047
-0.000121298
0.00017561
-0.0001537
-0.000165641
3.76732e-05
8.33684e-05
0.000129659
0.00017119
0.000207253
0.000237457
0.000260942
0.000278228
)
;

boundaryField
{
    inlet
    {
        type            calculated;
        value           uniform -0.0002;
    }
    outlet
    {
        type            calculated;
        value           nonuniform List<scalar> 
15
(
-3.77257e-06
-3.076e-06
8.73209e-06
2.94856e-05
6.30764e-05
0.000117705
0.000195578
0.00028861
0.000379421
0.000445344
0.000464051
0.000424956
0.00033213
0.000200864
5.68975e-05
)
;
    }
    fixedWalls
    {
        type            calculated;
        value           uniform 0;
    }
    frontAndBack
    {
        type            empty;
    }
}


// ************************************************************************* //
