/*--------------------------------*- C++ -*----------------------------------*\
| =========                 |                                                 |
| \\      /  F ield         | OpenFOAM Extend Project: Open source CFD        |
|  \\    /   O peration     | Version:  1.6-ext                               |
|   \\  /    A nd           | Web:      www.extend-project.de                 |
|    \\/     M anipulation  |                                                 |
\*---------------------------------------------------------------------------*/
FoamFile
{
    version     2.0;
    format      ascii;
    class       volVectorField;
    location    "3.9";
    object      U;
}
// * * * * * * * * * * * * * * * * * * * * * * * * * * * * * * * * * * * * * //

dimensions      [0 1 -1 0 0 0 0];

internalField   nonuniform List<vector> 
284
(
(0.163779 0.0266048 0)
(0.141783 0.0268379 0)
(0.0987089 0.0192625 0)
(0.0662421 0.0122033 0)
(0.0431222 0.00724071 0)
(0.0259308 0.00429599 0)
(0.0128631 0.00253474 0)
(0.00286709 0.000892524 0)
(-0.000713633 -0.00121372 0)
(0.200597 0.043405 0)
(0.202039 0.0577701 0)
(0.179255 0.0535803 0)
(0.146357 0.044438 0)
(0.111378 0.0351252 0)
(0.0774871 0.0275595 0)
(0.0462533 0.0214122 0)
(0.0186764 0.0143658 0)
(0.00300359 0.003431 0)
(0.203093 0.0291707 0)
(0.210985 0.0599509 0)
(0.204519 0.07283 0)
(0.184046 0.0755443 0)
(0.153307 0.0724459 0)
(0.116113 0.0664702 0)
(0.0756655 0.058485 0)
(0.0346715 0.045411 0)
(0.00729966 0.0194736 0)
(0.201521 0.022502 0)
(0.207592 0.0574514 0)
(0.207874 0.08153 0)
(0.197387 0.0964693 0)
(0.175 0.104044 0)
(0.141608 0.105899 0)
(0.0988735 0.102107 0)
(0.0490955 0.087021 0)
(0.011688 0.0442647 0)
(0.200562 0.0190954 0)
(0.203981 0.0543278 0)
(0.205918 0.0844939 0)
(0.201397 0.109221 0)
(0.186798 0.128445 0)
(0.159962 0.142057 0)
(0.119437 0.148282 0)
(0.0644935 0.137097 0)
(0.0174577 0.0784433 0)
(0.200231 0.0174438 0)
(0.202358 0.0517333 0)
(0.204918 0.0846746 0)
(0.204395 0.116117 0)
(0.196731 0.145775 0)
(0.17792 0.172838 0)
(0.14326 0.194231 0)
(0.0865574 0.195129 0)
(0.027765 0.124616 0)
(0.200215 0.0163233 0)
(0.202428 0.049031 0)
(0.206385 0.0825305 0)
(0.209863 0.11773 0)
(0.209464 0.155303 0)
(0.200995 0.195161 0)
(0.178298 0.234332 0)
(0.124573 0.25375 0)
(0.0486286 0.197312 0)
(0.200344 0.0149402 0)
(0.203607 0.0450678 0)
(0.210116 0.0772179 0)
(0.218528 0.113279 0)
(0.226483 0.155335 0)
(0.230929 0.20565 0)
(0.224113 0.270074 0)
(0.198135 0.339961 0)
(0.060341 0.28739 0)
(0.200547 0.0128223 0)
(0.205484 0.038874 0)
(0.215447 0.0677061 0)
(0.229737 0.101508 0)
(0.247509 0.1427 0)
(0.271583 0.193706 0)
(0.299562 0.260947 0)
(0.358439 0.345426 0)
(0.399604 0.429872 0)
(0.200841 0.00963921 0)
(0.20797 0.02984 0)
(0.221694 0.0536091 0)
(0.241155 0.0825817 0)
(0.265976 0.118014 0)
(0.300663 0.160178 0)
(0.342914 0.212137 0)
(0.411274 0.255266 0)
(0.492778 0.338193 0)
(0.201386 0.00499721 0)
(0.211569 0.0175241 0)
(0.228991 0.0353173 0)
(0.251798 0.0585921 0)
(0.279632 0.086893 0)
(0.315547 0.118303 0)
(0.36033 0.155721 0)
(0.41799 0.17228 0)
(0.498749 0.227997 0)
(0.202455 -0.00237349 0)
(0.216936 0.00129372 0)
(0.237165 0.0137962 0)
(0.260567 0.0324059 0)
(0.287678 0.054869 0)
(0.320318 0.0780682 0)
(0.361945 0.104761 0)
(0.409534 0.113586 0)
(0.473622 0.14133 0)
(0.204212 -0.0136838 0)
(0.222731 -0.0175901 0)
(0.24087 -0.00754269 0)
(0.259151 0.00854459 0)
(0.28061 0.0266472 0)
(0.306908 0.0437518 0)
(0.341785 0.061437 0)
(0.381174 0.0676953 0)
(0.429475 0.0786501 0)
(0.201751 -0.0351397 0)
(0.215138 -0.0366228 0)
(0.218623 -0.0226561 0)
(0.222843 -0.00717957 0)
(0.233127 0.0065228 0)
(0.250363 0.0173553 0)
(0.276196 0.0265387 0)
(0.306767 0.0295869 0)
(0.342481 0.0324186 0)
(0.164658 -0.0248745 0)
(0.151322 -0.0222626 0)
(0.12429 -0.0125963 0)
(0.111093 -0.00491724 0)
(0.110078 0.00032238 0)
(0.116965 0.00362293 0)
(0.130106 0.00577676 0)
(0.146473 0.00609163 0)
(0.164788 0.00599653 0)
(0.355478 0.167038 0)
(0.18566 0.043846 0)
(0.545395 0.177756 0)
(0.499485 0.0810558 0)
(0.576853 0.166808 0)
(0.597479 0.0985497 0)
(0.543373 0.117326 0)
(0.584432 0.0736364 0)
(0.482604 0.0671165 0)
(0.522644 0.0411789 0)
(0.379803 0.02629 0)
(0.408822 0.0129816 0)
(0.182206 0.00360182 0)
(0.193519 -0.000410996 0)
(0.188125 -0.00684115 0)
(0.210359 -0.0174697 0)
(0.249196 -0.0348242 0)
(0.289361 -0.0609978 0)
(0.324471 -0.0930803 0)
(0.353705 -0.126997 0)
(0.370641 -0.155399 0)
(0.384701 -0.177494 0)
(0.379133 -0.178097 0)
(0.466013 0.016698 0)
(0.449293 -0.0233016 0)
(0.450121 -0.0544586 0)
(0.460623 -0.0837999 0)
(0.471318 -0.112835 0)
(0.480054 -0.140377 0)
(0.476878 -0.160835 0)
(0.475621 -0.175215 0)
(0.447009 -0.167873 0)
(0.593813 0.0392397 0)
(0.58481 -0.00811504 0)
(0.577964 -0.0466743 0)
(0.573297 -0.0797431 0)
(0.565726 -0.108363 0)
(0.555538 -0.131841 0)
(0.533392 -0.146699 0)
(0.516048 -0.15447 0)
(0.467305 -0.142726 0)
(0.601981 0.0289004 0)
(0.60681 -0.0102537 0)
(0.604095 -0.0433241 0)
(0.595083 -0.0711298 0)
(0.578084 -0.0937496 0)
(0.555072 -0.110089 0)
(0.520165 -0.11849 0)
(0.489685 -0.119616 0)
(0.429432 -0.107036 0)
(0.545449 0.0121319 0)
(0.553802 -0.0144893 0)
(0.550081 -0.0373815 0)
(0.535771 -0.0558643 0)
(0.511032 -0.0694364 0)
(0.478274 -0.0771954 0)
(0.436103 -0.0791426 0)
(0.397385 -0.0755023 0)
(0.337148 -0.0663079 0)
(0.42418 -0.00191115 0)
(0.42586 -0.0150878 0)
(0.415097 -0.0253101 0)
(0.393708 -0.0321428 0)
(0.363553 -0.0356048 0)
(0.32766 -0.0358304 0)
(0.287989 -0.0339129 0)
(0.252191 -0.0304924 0)
(0.205474 -0.0282546 0)
(0.195614 -0.00409734 0)
(0.189054 -0.00664868 0)
(0.175875 -0.00788314 0)
(0.158323 -0.0079593 0)
(0.138482 -0.00724976 0)
(0.118299 -0.00616527 0)
(0.099005 -0.00529166 0)
(0.0823409 -0.00488805 0)
(0.05995 -0.00583107 0)
(-0.000968113 0.000880648 0)
(-0.00722229 0.00307903 0)
(-0.0177503 0.00376317 0)
(-0.0271539 0.00341576 0)
(-0.0337473 0.002362 0)
(-0.0360827 0.000687956 0)
(-0.0328008 -0.00147415 0)
(-0.0292773 -0.00367198 0)
(-0.00511721 -0.00674054 0)
(-0.00346533 0.00736011 0)
(-0.0168152 0.0156916 0)
(-0.0358077 0.0169271 0)
(-0.0512124 0.0135872 0)
(-0.0600867 0.00736942 0)
(-0.0605764 -0.000686263 0)
(-0.0515675 -0.00960364 0)
(-0.0418773 -0.0176877 0)
(-0.00429282 -0.0254346 0)
(-0.00455264 0.0191877 0)
(-0.0204463 0.035335 0)
(-0.0416342 0.0357367 0)
(-0.0575345 0.0264642 0)
(-0.0650521 0.011506 0)
(-0.0626592 -0.00626531 0)
(-0.0494437 -0.0245236 0)
(-0.0359962 -0.0402475 0)
(0.00648793 -0.0505299 0)
(-0.00471702 0.0314868 0)
(-0.019932 0.0547311 0)
(-0.0389696 0.0532863 0)
(-0.0519566 0.0372035 0)
(-0.0561387 0.0128952 0)
(-0.0505274 -0.014878 0)
(-0.0342626 -0.0424854 0)
(-0.0180613 -0.0665206 0)
(0.0254478 -0.0775626 0)
(-0.00440977 0.042608 0)
(-0.0159895 0.0705373 0)
(-0.0279598 0.0663767 0)
(-0.0338006 0.0434286 0)
(-0.0315764 0.0103371 0)
(-0.0211091 -0.02677 0)
(-0.00226338 -0.062482 0)
(0.0174739 -0.0939726 0)
(0.0581315 -0.10614 0)
(-0.003535 0.0509823 0)
(-0.00765012 0.0782293 0)
(-0.0056049 0.0699809 0)
(0.00163182 0.040581 0)
(0.0145597 0.000409064 0)
(0.0328337 -0.0435404 0)
(0.0551436 -0.0847198 0)
(0.077755 -0.119884 0)
(0.112758 -0.134266 0)
(0.000933078 0.0585403 0)
(0.00972164 0.0736098 0)
(0.0340472 0.0578873 0)
(0.059959 0.0236653 0)
(0.0874066 -0.0202626 0)
(0.115349 -0.0667563 0)
(0.141521 -0.10913 0)
(0.165553 -0.143734 0)
(0.191627 -0.157858 0)
(0.0280434 0.0300082 0)
(0.0543126 0.038157 0)
(0.106247 0.0198848 0)
(0.150756 -0.0129965 0)
(0.190004 -0.0538958 0)
(0.224611 -0.0967631 0)
(0.250994 -0.134387 0)
(0.273253 -0.16437 0)
(0.286385 -0.173561 0)
)
;

boundaryField
{
    inlet
    {
        type            fixedValue;
        value           uniform (0.2 0 0);
    }
    outlet
    {
        type            zeroGradient;
    }
    fixedWalls
    {
        type            fixedValue;
        value           uniform (0 0 0);
    }
    frontAndBack
    {
        type            empty;
    }
}


// ************************************************************************* //
