/*--------------------------------*- C++ -*----------------------------------*\
| =========                 |                                                 |
| \\      /  F ield         | OpenFOAM Extend Project: Open source CFD        |
|  \\    /   O peration     | Version:  1.6-ext                               |
|   \\  /    A nd           | Web:      www.extend-project.de                 |
|    \\/     M anipulation  |                                                 |
\*---------------------------------------------------------------------------*/
FoamFile
{
    version     2.0;
    format      ascii;
    class       volScalarField;
    location    "3.4";
    object      p;
}
// * * * * * * * * * * * * * * * * * * * * * * * * * * * * * * * * * * * * * //

dimensions      [0 2 -2 0 0 0 0];

internalField   nonuniform List<scalar> 
284
(
0.274465
0.242993
0.231536
0.226576
0.224705
0.224717
0.22563
0.226905
0.228965
0.245248
0.236371
0.231024
0.228513
0.227584
0.22767
0.228266
0.229101
0.231315
0.233291
0.22989
0.227332
0.226189
0.226218
0.227011
0.228039
0.229047
0.232048
0.223818
0.222753
0.22172
0.221533
0.222276
0.223647
0.225116
0.226349
0.230083
0.216006
0.215701
0.21531
0.215394
0.216152
0.217409
0.218635
0.219394
0.22321
0.208906
0.208789
0.20847
0.208234
0.20825
0.208397
0.208119
0.206748
0.208465
0.202159
0.202012
0.201421
0.200438
0.199053
0.196985
0.193334
0.186329
0.180706
0.195791
0.195522
0.194446
0.192412
0.18914
0.183999
0.175352
0.160829
0.115833
0.190053
0.189614
0.187922
0.184646
0.179049
0.169484
0.150092
0.111715
0.0173074
0.185311
0.184653
0.182284
0.177878
0.170662
0.159103
0.138883
0.106769
0.0527884
0.182036
0.180964
0.177766
0.172379
0.164397
0.152892
0.13591
0.111501
0.0782268
0.180736
0.178785
0.174334
0.167881
0.159391
0.148302
0.133793
0.114061
0.090455
0.183036
0.178512
0.171943
0.164201
0.155217
0.144546
0.131747
0.115335
0.0967843
0.189151
0.179345
0.170135
0.161288
0.152185
0.142083
0.130489
0.116275
0.100208
0.217384
0.185488
0.170722
0.16082
0.151949
0.14265
0.132012
0.118889
0.103601
-0.116904
-0.0817839
-0.0172693
-0.0387467
0.0282528
-0.00191663
0.0571377
0.0308666
0.0737676
0.0519892
0.0816233
0.0625562
0.0858854
0.066894
-0.0696628
-0.0610946
-0.0575316
-0.0543957
-0.0489555
-0.0400345
-0.028689
-0.0158627
-0.0050724
-0.0448991
-0.0455888
-0.045304
-0.0434803
-0.0388873
-0.0311781
-0.0219472
-0.0118451
-0.00459665
-0.0161756
-0.0225501
-0.0255183
-0.0259321
-0.0236625
-0.0188978
-0.0132505
-0.00703963
-0.00387281
0.0140216
0.00321746
-0.00388522
-0.0076891
-0.00868584
-0.00752581
-0.00563622
-0.00314652
-0.00328653
0.03447
0.0212424
0.0117348
0.00543971
0.00174087
-2.56931e-05
-0.000898469
-0.000973382
-0.00292051
0.0454073
0.0311877
0.0201156
0.012028
0.00646919
0.00288581
0.000591744
-0.000634172
-0.00280363
0.0486597
0.032848
0.0200815
0.0104737
0.00379604
-0.000381248
-0.00261588
-0.0033354
-0.0040185
-0.0319382
-0.0329018
-0.0316352
-0.0286276
-0.0239281
-0.0177974
-0.0107844
-0.00564336
0.00538048
-0.0309947
-0.0321139
-0.0311641
-0.0287732
-0.0247946
-0.0192536
-0.0124128
-0.0075279
0.00473762
-0.0324982
-0.0338473
-0.0332022
-0.0311517
-0.0273412
-0.021713
-0.0143659
-0.00898701
0.00470086
-0.0360891
-0.0374364
-0.0371055
-0.0354072
-0.031707
-0.0257169
-0.0174251
-0.010457
0.00359737
-0.0418015
-0.0426412
-0.0425695
-0.0412675
-0.0376286
-0.0312729
-0.0215402
-0.0124623
0.00156576
-0.0494694
-0.0487398
-0.0488517
-0.0479268
-0.0442632
-0.0370298
-0.0266436
-0.014945
-0.000973979
-0.0585083
-0.054238
-0.0543681
-0.053362
-0.0495876
-0.041763
-0.0304361
-0.0170985
-0.00330073
-0.0771274
-0.0600829
-0.0582511
-0.0563963
-0.0518188
-0.043287
-0.0314742
-0.0176389
-0.00473862
)
;

boundaryField
{
    inlet
    {
        type            zeroGradient;
    }
    outlet
    {
        type            totalPressure;
        rho             none;
        psi             none;
        gamma           1;
        p0              uniform 0;
        value           uniform 0;
    }
    fixedWalls
    {
        type            zeroGradient;
    }
    frontAndBack
    {
        type            empty;
    }
}


// ************************************************************************* //
