/*--------------------------------*- C++ -*----------------------------------*\
| =========                 |                                                 |
| \\      /  F ield         | OpenFOAM Extend Project: Open source CFD        |
|  \\    /   O peration     | Version:  1.6-ext                               |
|   \\  /    A nd           | Web:      www.extend-project.de                 |
|    \\/     M anipulation  |                                                 |
\*---------------------------------------------------------------------------*/
FoamFile
{
    version     2.0;
    format      ascii;
    class       surfaceScalarField;
    location    "3.4";
    object      phi;
}
// * * * * * * * * * * * * * * * * * * * * * * * * * * * * * * * * * * * * * //

dimensions      [0 3 -1 0 0 0 0];

internalField   nonuniform List<scalar> 
525
(
0.000160822
3.91783e-05
0.000117049
4.37732e-05
8.14339e-05
3.56146e-05
5.4349e-05
2.70849e-05
3.43547e-05
1.99943e-05
1.94068e-05
1.49479e-05
8.14933e-06
1.12575e-05
9.66117e-07
7.18322e-06
9.66117e-07
0.000204954
3.42241e-05
0.000190319
5.84083e-05
0.000162327
6.36071e-05
0.000128871
6.05406e-05
9.46204e-05
5.42448e-05
6.22431e-05
4.73252e-05
3.33223e-05
4.01783e-05
1.04629e-05
3.00426e-05
1.1429e-05
0.000208663
2.55607e-05
0.000208147
5.89249e-05
0.000194314
7.74394e-05
0.000168778
8.60775e-05
0.00013491
8.8112e-05
9.63225e-05
8.5913e-05
5.64132e-05
8.00877e-05
2.03113e-05
6.61444e-05
3.17404e-05
0.000205059
2.05019e-05
0.000208239
5.57447e-05
0.00020282
8.28586e-05
0.000186263
0.000102634
0.000158354
0.000116021
0.000120456
0.000123811
7.53567e-05
0.000125187
2.93586e-05
0.000112142
6.1099e-05
0.000202381
1.81213e-05
0.000205314
5.2811e-05
0.000203885
8.42878e-05
0.000194152
0.000112368
0.000173251
0.000136922
0.000139612
0.00015745
9.33956e-05
0.000171403
3.9596e-05
0.000165942
0.000100695
0.000201255
1.68661e-05
0.000203851
5.02148e-05
0.000204865
8.32747e-05
0.000200623
0.000116609
0.000187086
0.000150459
0.000160204
0.000184331
0.000116422
0.000215185
5.58266e-05
0.000226537
0.000156522
0.000201181
1.56854e-05
0.000204485
4.69105e-05
0.000208242
7.95176e-05
0.000209666
0.000115185
0.000204844
0.000155282
0.000188727
0.000200448
0.000153185
0.000250727
8.79426e-05
0.00029178
0.000244464
0.000201722
1.39631e-05
0.000206814
4.18193e-05
0.00021429
7.20411e-05
0.000222378
0.000107098
0.00022809
0.000149569
0.000226461
0.000202078
0.000204961
0.000272227
0.000139182
0.000357559
0.000383646
0.000202636
1.13274e-05
0.000210302
3.41527e-05
0.000222292
6.00511e-05
0.000238012
9.13781e-05
0.00025745
0.000130131
0.000282432
0.000177095
0.000319959
0.0002347
0.000385195
0.000292323
0.000362197
0.000406644
0.000203921
7.40628e-06
0.00021465
2.34235e-05
0.000231041
4.36603e-05
0.000252917
6.95022e-05
0.000281664
0.000101385
0.000320636
0.000138123
0.000373549
0.000181787
0.000455254
0.000210619
0.000281678
0.000535773
0.000205992
1.41467e-06
0.000220226
9.18882e-06
0.000240109
2.37771e-05
0.000265161
4.44508e-05
0.000296613
6.99329e-05
0.000337084
9.76516e-05
0.00038865
0.000130221
0.00045516
0.000144108
0.000187556
0.000549282
0.000209423
-8.00789e-06
0.000227291
-8.68008e-06
0.000248672
2.39647e-06
0.000273494
1.96292e-05
0.000303158
4.02682e-05
0.000339835
6.09749e-05
0.000386297
8.37587e-05
0.0004387
9.17052e-05
0.000111509
0.000514748
0.000214488
-2.24958e-05
0.000232187
-2.63794e-05
0.000249651
-1.50674e-05
0.000269053
2.27133e-07
0.000292722
1.65998e-05
0.000322704
3.09922e-05
0.000361586
4.4877e-05
0.000403534
4.97575e-05
5.67369e-05
0.000458305
0.000211643
-3.41387e-05
0.000216595
-3.1332e-05
0.000219984
-1.8456e-05
0.000226822
-6.61062e-06
0.000240461
2.96032e-06
0.000261589
9.86446e-06
0.00029099
1.54762e-05
0.000323542
1.72049e-05
1.85806e-05
0.000361699
0.000165861
0.000134529
0.000116073
0.000109463
0.000112423
0.000122288
0.000137764
0.000154969
0.000173549
0.000250552
0.000156092
5.5566e-05
0.000194986
0.000513171
0.000178694
8.80449e-05
0.000480692
0.000585217
0.00014276
8.12886e-05
0.000591973
0.000564684
9.28241e-05
5.57152e-05
0.000590257
0.00050349
4.76393e-05
2.664e-05
0.000532565
0.000394825
1.45131e-05
5.94589e-06
0.000415519
0.000188062
0.000194008
0.000204128
1.75186e-06
-1.08941e-05
0.000240041
-2.72081e-05
-8.70461e-06
0.000280247
-5.63668e-05
1.61603e-05
0.000316356
-8.98878e-05
5.37788e-05
0.000344388
-0.00012507
9.70376e-05
0.000363036
-0.000156951
0.000138304
0.000372267
-0.000178176
0.000168944
0.000373694
-0.000189034
0.000187608
-0.000174902
0.000180783
0.000459518
2.29258e-05
0.000456006
-2.36966e-05
0.000462524
-6.28844e-05
0.000470962
-9.83258e-05
0.000475685
-0.000129793
0.000473395
-0.000154661
0.000463462
-0.000168243
0.000446418
-0.00017199
-0.000153705
0.000587261
2.7638e-05
0.000581235
-1.76711e-05
0.000575059
-5.6708e-05
0.000566173
-8.944e-05
0.000552131
-0.000115752
0.000531186
-0.000133715
0.000503908
-0.000140965
0.000470888
-0.000138969
-0.000120834
0.000601195
1.67002e-05
0.000601891
-1.83668e-05
0.000593669
-4.84868e-05
0.000577094
-7.28651e-05
0.000551973
-9.06307e-05
0.000518696
-0.000100438
0.000479638
-0.000101907
0.000436822
-9.61528e-05
-8.20918e-05
0.000546475
2.79065e-06
0.000546714
-1.8606e-05
0.00053459
-3.63623e-05
0.000511099
-4.93744e-05
0.000477661
-5.71931e-05
0.000436724
-5.95011e-05
0.000392071
-5.72537e-05
0.000347375
-5.14573e-05
-4.43978e-05
0.000422014
-3.70417e-06
0.000414908
-1.15004e-05
0.000395606
-1.70603e-05
0.00036638
-2.01478e-05
0.000330157
-2.09709e-05
0.000290602
-1.99461e-05
0.000251366
-1.80173e-05
0.000215698
-1.57891e-05
-1.51145e-05
0.000190304
0.000178804
0.000161743
0.000141596
0.000120625
0.000100679
8.26613e-05
6.68722e-05
-4.38315e-06
4.38315e-06
-1.35996e-05
9.21646e-06
-2.28981e-05
9.29844e-06
-2.94431e-05
6.54505e-06
-3.17679e-05
2.32481e-06
-2.92804e-05
-2.48747e-06
-2.20165e-05
-7.26392e-06
-1.11905e-05
-1.0826e-05
-1.45556e-05
-9.93863e-06
1.43218e-05
-2.6358e-05
2.56358e-05
-4.11751e-05
2.41156e-05
-4.98032e-05
1.51731e-05
-5.01665e-05
2.68807e-06
-4.20263e-05
-1.06277e-05
-2.65652e-05
-2.27249e-05
-5.5253e-06
-3.18659e-05
-3.64507e-05
-1.20562e-05
2.63779e-05
-3.0589e-05
4.41686e-05
-4.61508e-05
3.96774e-05
-5.37267e-05
2.2749e-05
-5.11696e-05
1.30984e-07
-3.86934e-05
-2.31039e-05
-1.79828e-05
-4.34355e-05
8.6372e-06
-5.8486e-05
-6.32282e-05
-1.22846e-05
3.86625e-05
-2.98179e-05
6.17019e-05
-4.33898e-05
5.32493e-05
-4.82686e-05
2.76278e-05
-4.2552e-05
-5.58554e-06
-2.6773e-05
-3.88829e-05
-3.02359e-06
-6.71849e-05
2.7044e-05
-8.85536e-05
-9.32612e-05
-1.08636e-05
4.95261e-05
-2.34367e-05
7.4275e-05
-3.11108e-05
6.09235e-05
-3.01915e-05
2.67086e-05
-1.96271e-05
-1.615e-05
9.29715e-08
-5.8603e-05
2.64579e-05
-9.35498e-05
5.6739e-05
-0.000118835
-0.000123888
-6.80572e-06
5.63319e-05
-8.03962e-06
7.55089e-05
-3.31469e-06
5.61985e-05
8.538e-06
1.48559e-05
2.67233e-05
-3.43353e-05
5.03772e-05
-8.22568e-05
7.80703e-05
-0.000121243
0.00010695
-0.000147714
-0.000151524
5.01105e-06
5.13208e-05
2.36014e-05
5.69185e-05
4.87668e-05
3.10331e-05
7.60558e-05
-1.24331e-05
0.000103917
-6.21969e-05
0.000131704
-0.000110043
0.000158049
-0.000147588
0.000182387
-0.000172052
-0.00017192
4.04267e-05
8.86406e-05
0.000135834
0.00017718
0.00021202
0.000240281
0.000261637
0.000277193
)
;

boundaryField
{
    inlet
    {
        type            calculated;
        value           uniform -0.0002;
    }
    outlet
    {
        type            calculated;
        value           nonuniform List<scalar> 
15
(
3.36511e-06
1.63698e-05
3.54147e-05
5.7077e-05
8.73657e-05
0.000134586
0.000202783
0.000286055
0.000367813
0.00042522
0.000438017
0.00039808
0.000309681
0.000186414
5.17577e-05
)
;
    }
    fixedWalls
    {
        type            calculated;
        value           uniform 0;
    }
    frontAndBack
    {
        type            empty;
    }
}


// ************************************************************************* //
