/*--------------------------------*- C++ -*----------------------------------*\
| =========                 |                                                 |
| \\      /  F ield         | OpenFOAM Extend Project: Open source CFD        |
|  \\    /   O peration     | Version:  1.6-ext                               |
|   \\  /    A nd           | Web:      www.extend-project.de                 |
|    \\/     M anipulation  |                                                 |
\*---------------------------------------------------------------------------*/
FoamFile
{
    version     2.0;
    format      ascii;
    class       volVectorField;
    location    "3.4";
    object      U;
}
// * * * * * * * * * * * * * * * * * * * * * * * * * * * * * * * * * * * * * //

dimensions      [0 1 -1 0 0 0 0];

internalField   nonuniform List<vector> 
284
(
(0.163776 0.0266063 0)
(0.141788 0.0268344 0)
(0.0987464 0.0192527 0)
(0.0663306 0.0121904 0)
(0.0432736 0.00722562 0)
(0.0261352 0.0042862 0)
(0.0130643 0.00254366 0)
(0.00297344 0.000916457 0)
(-0.000695924 -0.00121203 0)
(0.200595 0.0433999 0)
(0.20206 0.0577291 0)
(0.179359 0.0534988 0)
(0.146597 0.0443308 0)
(0.111779 0.0350198 0)
(0.0780161 0.0275139 0)
(0.0467787 0.0214965 0)
(0.0189961 0.0145635 0)
(0.00308698 0.00355672 0)
(0.203091 0.0291541 0)
(0.211004 0.0598447 0)
(0.204622 0.0726201 0)
(0.184296 0.0752621 0)
(0.153734 0.0721677 0)
(0.116689 0.0663408 0)
(0.076258 0.0586726 0)
(0.0350552 0.0458965 0)
(0.00741012 0.0198529 0)
(0.201519 0.0224804 0)
(0.207604 0.0572932 0)
(0.207954 0.0812108 0)
(0.197579 0.0960417 0)
(0.175309 0.10362 0)
(0.142009 0.105683 0)
(0.0992914 0.102352 0)
(0.049379 0.0877324 0)
(0.0117743 0.0448688 0)
(0.200559 0.0190709 0)
(0.203992 0.0541297 0)
(0.205986 0.084098 0)
(0.201542 0.108714 0)
(0.18698 0.127963 0)
(0.160135 0.141811 0)
(0.119589 0.148552 0)
(0.0646006 0.137919 0)
(0.0174944 0.0791759 0)
(0.200229 0.0174165 0)
(0.20237 0.0514982 0)
(0.204991 0.0842189 0)
(0.204538 0.115582 0)
(0.196865 0.145329 0)
(0.177953 0.172647 0)
(0.143203 0.194524 0)
(0.0865084 0.195957 0)
(0.0277571 0.125373 0)
(0.200213 0.0162921 0)
(0.202442 0.0487556 0)
(0.206467 0.0820083 0)
(0.210036 0.117172 0)
(0.209648 0.154936 0)
(0.201048 0.195094 0)
(0.178193 0.234661 0)
(0.124477 0.254503 0)
(0.0486303 0.198038 0)
(0.200342 0.0149045 0)
(0.203619 0.0447496 0)
(0.210198 0.0766107 0)
(0.21873 0.112654 0)
(0.226767 0.155013 0)
(0.231143 0.205741 0)
(0.224135 0.270508 0)
(0.198079 0.340666 0)
(0.0602901 0.288083 0)
(0.200546 0.0127823 0)
(0.205493 0.0385177 0)
(0.21551 0.0670046 0)
(0.229925 0.100759 0)
(0.247854 0.142317 0)
(0.271993 0.193875 0)
(0.299926 0.261499 0)
(0.35876 0.346059 0)
(0.400051 0.430429 0)
(0.200841 0.00959555 0)
(0.207973 0.0294609 0)
(0.221718 0.0528345 0)
(0.241258 0.0816888 0)
(0.266237 0.117468 0)
(0.301076 0.160274 0)
(0.343426 0.212711 0)
(0.411743 0.255948 0)
(0.49325 0.338312 0)
(0.201389 0.00495176 0)
(0.211568 0.017148 0)
(0.228963 0.0345291 0)
(0.251749 0.0576191 0)
(0.279635 0.0861906 0)
(0.315669 0.118239 0)
(0.360603 0.156196 0)
(0.418304 0.173025 0)
(0.499066 0.228146 0)
(0.202458 -0.00242123 0)
(0.216926 0.000950383 0)
(0.237068 0.0130766 0)
(0.260327 0.0314853 0)
(0.287321 0.0541383 0)
(0.319954 0.0778908 0)
(0.361682 0.10511 0)
(0.409381 0.114269 0)
(0.473547 0.141639 0)
(0.204216 -0.0137338 0)
(0.222701 -0.0178686 0)
(0.240685 -0.0080948 0)
(0.258709 0.0078563 0)
(0.279908 0.0260828 0)
(0.306073 0.0435844 0)
(0.340988 0.0616853 0)
(0.380541 0.0682147 0)
(0.429029 0.0789687 0)
(0.201754 -0.0351703 0)
(0.215089 -0.0367757 0)
(0.218383 -0.0229461 0)
(0.222275 -0.00753276 0)
(0.232224 0.0062302 0)
(0.249289 0.0172639 0)
(0.27516 0.0266652 0)
(0.305947 0.0298464 0)
(0.341911 0.0325661 0)
(0.164661 -0.0248807 0)
(0.15128 -0.0222993 0)
(0.1241 -0.0126698 0)
(0.110679 -0.00501276 0)
(0.109442 0.000243651 0)
(0.116208 0.00359554 0)
(0.129366 0.00579942 0)
(0.145865 0.00613561 0)
(0.164325 0.00598953 0)
(0.356582 0.166796 0)
(0.187748 0.0429449 0)
(0.546036 0.176678 0)
(0.501 0.0786825 0)
(0.576971 0.16565 0)
(0.59756 0.0956693 0)
(0.543064 0.116471 0)
(0.583633 0.0710776 0)
(0.482086 0.0666141 0)
(0.521626 0.0393843 0)
(0.37926 0.0259812 0)
(0.407801 0.0119785 0)
(0.181733 0.00345423 0)
(0.192652 -0.00072194 0)
(0.192167 -0.00827181 0)
(0.217359 -0.0216155 0)
(0.258559 -0.0451133 0)
(0.299264 -0.0784206 0)
(0.332702 -0.116132 0)
(0.357833 -0.151876 0)
(0.369686 -0.17742 0)
(0.378384 -0.192279 0)
(0.367028 -0.181631 0)
(0.468931 0.012808 0)
(0.454388 -0.029773 0)
(0.456819 -0.0651497 0)
(0.466995 -0.0993002 0)
(0.475091 -0.131918 0)
(0.47849 -0.159802 0)
(0.469333 -0.176897 0)
(0.461348 -0.184299 0)
(0.426851 -0.16768 0)
(0.593954 0.0343396 0)
(0.585184 -0.0155994 0)
(0.578214 -0.0573525 0)
(0.571907 -0.0934563 0)
(0.561049 -0.123714 0)
(0.545282 -0.14603 0)
(0.517621 -0.15694 0)
(0.493827 -0.158098 0)
(0.441428 -0.139419 0)
(0.600532 0.0243392 0)
(0.604375 -0.0170009 0)
(0.599981 -0.0523207 0)
(0.588074 -0.0818086 0)
(0.567077 -0.10464 0)
(0.538584 -0.118971 0)
(0.499018 -0.123406 0)
(0.463491 -0.119105 0)
(0.40267 -0.102191 0)
(0.543449 0.00883371 0)
(0.550167 -0.0194165 0)
(0.543937 -0.04365 0)
(0.526049 -0.0627118 0)
(0.497013 -0.0755929 0)
(0.459503 -0.0812459 0)
(0.414064 -0.0800772 0)
(0.372725 -0.0731094 0)
(0.314648 -0.0619456 0)
(0.422025 -0.00368978 0)
(0.421771 -0.0175746 0)
(0.408276 -0.0281598 0)
(0.383515 -0.0348055 0)
(0.349919 -0.0374634 0)
(0.311162 -0.0364857 0)
(0.270302 -0.0332576 0)
(0.234383 -0.028808 0)
(0.190829 -0.0259877 0)
(0.193914 -0.00455521 0)
(0.186101 -0.00715151 0)
(0.171399 -0.0083047 0)
(0.152323 -0.00820681 0)
(0.131289 -0.00729595 0)
(0.110478 -0.00605667 0)
(0.0912849 -0.00506085 0)
(0.0751451 -0.00455871 0)
(0.0545921 -0.00533636 0)
(-0.00132081 0.0012827 0)
(-0.00817351 0.00345521 0)
(-0.0186802 0.00380758 0)
(-0.0270123 0.00302643 0)
(-0.0315942 0.0016064 0)
(-0.0314849 -0.000204065 0)
(-0.0256759 -0.00219548 0)
(-0.0207616 -0.00371301 0)
(0.00202367 -0.00608529 0)
(-0.00373446 0.00823542 0)
(-0.0172 0.0160207 0)
(-0.0349842 0.0157662 0)
(-0.0474372 0.0107387 0)
(-0.0520352 0.00328286 0)
(-0.0479002 -0.00498693 0)
(-0.0342313 -0.0128962 0)
(-0.0218916 -0.0188927 0)
(0.0134659 -0.0235182 0)
(-0.00474913 0.0201476 0)
(-0.0205402 0.0347277 0)
(-0.0401211 0.0319876 0)
(-0.0524648 0.0193869 0)
(-0.0549333 0.00214644 0)
(-0.0470803 -0.0158589 0)
(-0.028359 -0.0319101 0)
(-0.0102007 -0.0439576 0)
(0.0311187 -0.0485796 0)
(-0.00505219 0.0326806 0)
(-0.0206398 0.0534054 0)
(-0.0387025 0.0471392 0)
(-0.0486122 0.0259654 0)
(-0.0479921 -0.00189094 0)
(-0.0368797 -0.0302542 0)
(-0.0149366 -0.0546484 0)
(0.00794064 -0.0729326 0)
(0.0519726 -0.0777129 0)
(-0.00492066 0.0445428 0)
(-0.0175865 0.0693401 0)
(-0.0296324 0.0587244 0)
(-0.0333922 0.0287125 0)
(-0.0272585 -0.00971904 0)
(-0.01185 -0.0483001 0)
(0.0122395 -0.0804 0)
(0.038512 -0.103958 0)
(0.0819284 -0.109041 0)
(-0.00389543 0.0540136 0)
(-0.00913325 0.0778786 0)
(-0.00768566 0.0618039 0)
(0.000581646 0.0235509 0)
(0.0160949 -0.0236627 0)
(0.0379434 -0.0702217 0)
(0.0641807 -0.108206 0)
(0.0914405 -0.134588 0)
(0.129331 -0.139368 0)
(0.00118865 0.0622504 0)
(0.0101986 0.0739768 0)
(0.0348602 0.0497419 0)
(0.0614119 0.00550845 0)
(0.0898917 -0.0463213 0)
(0.118929 -0.0961103 0)
(0.146131 -0.135806 0)
(0.171653 -0.162074 0)
(0.198398 -0.164411 0)
(0.0296389 0.0320033 0)
(0.0584414 0.0369556 0)
(0.112149 0.0106866 0)
(0.157281 -0.03152 0)
(0.196212 -0.0797507 0)
(0.229147 -0.125567 0)
(0.253125 -0.160602 0)
(0.27309 -0.182857 0)
(0.28322 -0.17973 0)
)
;

boundaryField
{
    inlet
    {
        type            fixedValue;
        value           uniform (0.2 0 0);
    }
    outlet
    {
        type            zeroGradient;
    }
    fixedWalls
    {
        type            fixedValue;
        value           uniform (0 0 0);
    }
    frontAndBack
    {
        type            empty;
    }
}


// ************************************************************************* //
