/*--------------------------------*- C++ -*----------------------------------*\
| =========                 |                                                 |
| \\      /  F ield         | OpenFOAM Extend Project: Open source CFD        |
|  \\    /   O peration     | Version:  1.6-ext                               |
|   \\  /    A nd           | Web:      www.extend-project.de                 |
|    \\/     M anipulation  |                                                 |
\*---------------------------------------------------------------------------*/
FoamFile
{
    version     2.0;
    format      ascii;
    class       surfaceScalarField;
    location    "1";
    object      phi;
}
// * * * * * * * * * * * * * * * * * * * * * * * * * * * * * * * * * * * * * //

dimensions      [0 3 -1 0 0 0 0];

internalField   nonuniform List<scalar> 
127
(
0.000161349
3.86514e-05
0.000119431
4.19174e-05
8.67715e-05
3.26597e-05
6.28547e-05
2.39168e-05
4.47222e-05
1.81325e-05
2.93705e-05
1.53517e-05
1.52705e-05
1.41e-05
3.72053e-06
1.155e-05
3.72053e-06
0.000205238
3.34134e-05
0.000191479
5.56765e-05
0.000165848
5.8291e-05
0.000136175
5.35894e-05
0.000105632
4.86755e-05
7.47215e-05
4.62623e-05
4.35804e-05
4.52411e-05
1.52454e-05
3.98849e-05
1.8966e-05
0.000208435
2.49783e-05
0.000205952
5.81597e-05
0.000190076
7.41665e-05
0.000164609
7.90569e-05
0.000133265
8.0019e-05
9.79061e-05
8.16217e-05
5.96103e-05
8.35369e-05
2.23891e-05
7.71061e-05
4.13551e-05
0.000204668
2.03103e-05
0.000204287
5.85402e-05
0.000193408
8.50456e-05
0.000172839
9.96263e-05
0.000144665
0.000108193
0.000110091
0.000116196
6.97583e-05
0.00012387
2.75775e-05
0.000119287
6.89326e-05
0.000202123
1.81872e-05
0.00020152
5.91436e-05
0.000193575
9.29897e-05
0.000177472
0.00011573
0.000153658
0.000132006
0.00012202
0.000147834
8.17207e-05
0.000164169
3.49528e-05
0.000166055
0.000103885
0.000201235
1.69523e-05
0.000201259
5.91192e-05
0.000196495
9.77545e-05
0.00018537
0.000126854
0.000167133
0.000150244
0.000140309
0.000174658
0.000101769
0.000202709
4.94881e-05
0.000218336
0.000153373
0.000201407
1.55448e-05
0.000203416
5.71106e-05
0.000203058
9.81127e-05
0.000198392
0.00013152
0.000188049
0.000160587
0.00017004
0.000192667
0.000138041
0.000234707
8.10608e-05
0.000275316
0.000234434
0.000202142
0.000207188
0.000212508
0.000216034
0.000216219
0.000210917
0.000190324
0.000133488
)
;

boundaryField
{
    inlet
    {
        type            calculated;
        value           nonuniform List<scalar> 8(-0.0002 -0.0002 -0.0002 -0.0002 -0.0002 -0.0002 -0.0002 -0.0002);
    }
    outlet
    {
        type            calculated;
        value           nonuniform 0();
    }
    fixedWalls
    {
        type            calculated;
        value           uniform 0;
    }
    frontAndBack
    {
        type            empty;
    }
    procBoundary3to2
    {
        type            processor;
        value           nonuniform List<scalar> 9(1.34026e-05 5.20646e-05 9.27927e-05 0.000127993 0.000160402 0.000197969 0.000255301 0.000332152 0.000367922);
    }
}


// ************************************************************************* //
