/*--------------------------------*- C++ -*----------------------------------*\
| =========                 |                                                 |
| \\      /  F ield         | OpenFOAM Extend Project: Open source CFD        |
|  \\    /   O peration     | Version:  1.6-ext                               |
|   \\  /    A nd           | Web:      www.extend-project.de                 |
|    \\/     M anipulation  |                                                 |
\*---------------------------------------------------------------------------*/
FoamFile
{
    version     2.0;
    format      ascii;
    class       surfaceScalarField;
    location    "3.5";
    object      phi;
}
// * * * * * * * * * * * * * * * * * * * * * * * * * * * * * * * * * * * * * //

dimensions      [0 3 -1 0 0 0 0];

internalField   nonuniform List<scalar> 
123
(
0.000202634
1.13445e-05
0.000210293
3.42562e-05
0.000222261
6.02304e-05
0.000237951
9.1542e-05
0.000257372
0.000130174
0.000282373
0.000176987
0.000319939
0.000234521
0.000385191
0.000292181
0.000362219
0.000406546
0.000203921
7.42391e-06
0.000214648
2.35291e-05
0.000231027
4.38507e-05
0.000252876
6.96933e-05
0.000281589
0.000101461
0.000320548
0.000138028
0.000373476
0.000181593
0.000455236
0.000210421
0.000281704
0.000535751
0.000205992
1.43236e-06
0.000220232
9.28834e-06
0.000240123
2.39596e-05
0.000265169
4.46472e-05
0.000296597
7.00329e-05
0.00033704
9.75854e-05
0.000388593
0.000130039
0.000455127
0.000143887
0.000187525
0.000549307
0.000209424
-7.99188e-06
0.000227308
-8.59538e-06
0.00024872
2.54749e-06
0.000273567
1.98002e-05
0.000303237
4.03629e-05
0.000339891
6.09318e-05
0.000386323
8.36071e-05
0.000438704
9.15058e-05
0.000111434
0.000514795
0.000214492
-2.24834e-05
0.000232218
-2.6322e-05
0.000249733
-1.49676e-05
0.000269184
3.4909e-07
0.000292886
1.66616e-05
0.000322853
3.09646e-05
0.000361687
4.47728e-05
0.000403573
4.96203e-05
5.66722e-05
0.000458334
0.000211649
-3.41328e-05
0.000216634
-3.13066e-05
0.000220079
-1.84126e-05
0.000226991
-6.56342e-06
0.000240667
2.98637e-06
0.000261776
9.85503e-06
0.000291114
1.54354e-05
0.000323582
1.71519e-05
1.85583e-05
0.000361696
0.000165867
0.000134561
0.000116148
0.000109585
0.000112571
0.000122426
0.000137861
0.000155013
0.000173572
0.000156304
0.000179028
0.000143057
9.30186e-05
4.77552e-05
1.45637e-05
)
;

boundaryField
{
    inlet
    {
        type            calculated;
        value           nonuniform List<scalar> 7(-0.0002 -0.0002 -0.0002 -0.0002 -0.0002 -0.0002 -0.0002);
    }
    outlet
    {
        type            calculated;
        value           nonuniform 0();
    }
    fixedWalls
    {
        type            calculated;
        value           uniform 0;
    }
    frontAndBack
    {
        type            empty;
    }
    procBoundary2to3
    {
        type            processor;
        value           nonuniform List<scalar> 9(-1.3979e-05 -4.19144e-05 -7.2199e-05 -0.000107232 -0.000149595 -0.000201988 -0.000272087 -0.000357433 -0.000383574);
    }
    procBoundary2to1
    {
        type            processor;
        value           nonuniform List<scalar> 7(0.000250242 0.000513027 0.000585278 0.000564833 0.000503598 0.000394887 0.000188135);
    }
}


// ************************************************************************* //
