/*--------------------------------*- C++ -*----------------------------------*\
| =========                 |                                                 |
| \\      /  F ield         | OpenFOAM Extend Project: Open source CFD        |
|  \\    /   O peration     | Version:  1.6-ext                               |
|   \\  /    A nd           | Web:      www.extend-project.de                 |
|    \\/     M anipulation  |                                                 |
\*---------------------------------------------------------------------------*/
FoamFile
{
    version     2.0;
    format      ascii;
    class       surfaceScalarField;
    location    "4.9";
    object      phi;
}
// * * * * * * * * * * * * * * * * * * * * * * * * * * * * * * * * * * * * * //

dimensions      [0 3 -1 0 0 0 0];

internalField   nonuniform List<scalar> 
127
(
0.000160826
3.9174e-05
0.000117034
4.3792e-05
8.13672e-05
3.56667e-05
5.4201e-05
2.71662e-05
3.41163e-05
2.00847e-05
1.91191e-05
1.49972e-05
7.92243e-06
1.11966e-05
8.946e-07
7.02783e-06
8.946e-07
0.000204946
3.42282e-05
0.000190235
5.85028e-05
0.000162073
6.3829e-05
0.000128372
6.08674e-05
9.3869e-05
5.45872e-05
6.13656e-05
4.75007e-05
3.25925e-05
3.99697e-05
1.014e-05
2.94804e-05
1.10346e-05
0.000208657
2.55711e-05
0.000208062
5.90975e-05
0.000194036
7.78555e-05
0.000168203
8.67004e-05
0.000134017
8.87734e-05
9.52446e-05
8.62729e-05
5.54753e-05
7.9739e-05
1.98603e-05
6.50953e-05
3.08949e-05
0.00020506
2.05107e-05
0.000208183
5.59749e-05
0.000202607
8.34319e-05
0.000185812
0.000103495
0.000157646
0.000116939
0.000119581
0.000124339
7.4562e-05
0.000124758
2.89535e-05
0.000110704
5.98484e-05
0.000202386
1.8125e-05
0.000205277
5.30837e-05
0.000203732
8.49768e-05
0.000193849
0.000113378
0.000172818
0.00013797
0.000139094
0.000158062
9.29039e-05
0.000170948
3.93207e-05
0.000164287
9.91691e-05
0.00020126
1.68651e-05
0.000203815
5.05283e-05
0.000204725
8.40671e-05
0.000200381
0.000117722
0.000186815
0.000151536
0.000159951
0.000184926
0.000116169
0.00021473
5.56249e-05
0.000224831
0.000154794
0.000201183
1.56819e-05
0.000204442
4.72696e-05
0.00020808
8.04285e-05
0.000209377
0.000116426
0.000204526
0.000156386
0.00018846
0.000200993
0.000152895
0.000250295
8.75454e-05
0.00029018
0.000242339
0.000201722
0.000206766
0.000214104
0.000221992
0.000227569
0.000225942
0.000204468
0.000138698
)
;

boundaryField
{
    inlet
    {
        type            calculated;
        value           nonuniform List<scalar> 8(-0.0002 -0.0002 -0.0002 -0.0002 -0.0002 -0.0002 -0.0002 -0.0002);
    }
    outlet
    {
        type            calculated;
        value           nonuniform 0();
    }
    fixedWalls
    {
        type            calculated;
        value           uniform 0;
    }
    frontAndBack
    {
        type            empty;
    }
    procBoundary3to2
    {
        type            processor;
        value           nonuniform List<scalar> 9(1.39598e-05 4.22263e-05 7.30902e-05 0.000108538 0.000150809 0.00020262 0.000271769 0.000355951 0.000381037);
    }
}


// ************************************************************************* //
