/*--------------------------------*- C++ -*----------------------------------*\
| =========                 |                                                 |
| \\      /  F ield         | OpenFOAM Extend Project: Open source CFD        |
|  \\    /   O peration     | Version:  1.6-ext                               |
|   \\  /    A nd           | Web:      www.extend-project.de                 |
|    \\/     M anipulation  |                                                 |
\*---------------------------------------------------------------------------*/
FoamFile
{
    version     2.0;
    format      ascii;
    class       vectorField;
    location    "0.5";
    object      accumulatedFluidInterfaceDisplacement;
}
// * * * * * * * * * * * * * * * * * * * * * * * * * * * * * * * * * * * * * //


338
(
(-1.20617e-07 6.53937e-07 -6.05204e-27)
(3.58956e-07 6.83429e-07 -3.85249e-27)
(9.08806e-07 1.73689e-05 1.88349e-26)
(9.93903e-07 1.71264e-05 8.28961e-27)
(1.00011e-06 1.68033e-05 -1.54127e-26)
(1.00377e-06 1.6479e-05 -1.16203e-26)
(1.00452e-06 1.61553e-05 7.64259e-27)
(1.0029e-06 1.58331e-05 -3.04863e-27)
(9.99514e-07 1.55132e-05 -6.97111e-27)
(9.94965e-07 1.51958e-05 -2.27497e-28)
(9.89729e-07 1.48808e-05 -1.71051e-26)
(9.84185e-07 1.4568e-05 -3.01801e-26)
(9.78613e-07 1.42571e-05 -2.01649e-26)
(9.73217e-07 1.39478e-05 3.13933e-27)
(9.68149e-07 1.36397e-05 5.99709e-27)
(9.63518e-07 1.33324e-05 2.73362e-27)
(9.59406e-07 1.30258e-05 -2.35562e-26)
(9.55877e-07 1.27194e-05 -9.37909e-27)
(9.52976e-07 1.24131e-05 4.91493e-27)
(9.50738e-07 1.21067e-05 -1.13908e-26)
(9.49183e-07 1.17999e-05 -7.78363e-28)
(9.48316e-07 1.14926e-05 -7.58404e-27)
(9.48128e-07 1.11847e-05 -2.68126e-27)
(9.4859e-07 1.08761e-05 1.89003e-26)
(9.49654e-07 1.05668e-05 -4.12027e-28)
(9.51249e-07 1.02567e-05 -1.30449e-26)
(9.53282e-07 9.94576e-06 4.78998e-27)
(9.55636e-07 9.63413e-06 1.61521e-26)
(9.58174e-07 9.32185e-06 6.811e-27)
(9.60736e-07 9.00903e-06 -1.12274e-26)
(9.63145e-07 8.69582e-06 -5.36121e-27)
(9.6521e-07 8.38242e-06 -4.8463e-27)
(9.66729e-07 8.06905e-06 -7.17188e-27)
(9.67496e-07 7.75598e-06 -5.45062e-28)
(9.67304e-07 7.4435e-06 4.2042e-27)
(9.65957e-07 7.13194e-06 -2.95551e-27)
(9.63265e-07 6.82169e-06 -3.94695e-27)
(9.59061e-07 6.51312e-06 -2.14787e-28)
(9.53198e-07 6.20668e-06 -7.11212e-27)
(9.45555e-07 5.90279e-06 -2.45984e-27)
(9.36042e-07 5.60194e-06 7.56978e-27)
(9.24601e-07 5.3046e-06 -1.95602e-27)
(9.11203e-07 5.01127e-06 -1.77724e-27)
(8.95853e-07 4.72245e-06 6.1798e-29)
(8.78584e-07 4.43865e-06 -1.64683e-27)
(8.59458e-07 4.16036e-06 4.45319e-29)
(8.38557e-07 3.88807e-06 2.23278e-27)
(8.15984e-07 3.62228e-06 3.83734e-27)
(7.91854e-07 3.36345e-06 -4.0019e-27)
(7.66295e-07 3.11203e-06 -4.30637e-27)
(7.39438e-07 2.86846e-06 2.70527e-27)
(7.11414e-07 2.63313e-06 1.03146e-27)
(6.82355e-07 2.40644e-06 3.5992e-27)
(6.52385e-07 2.18874e-06 -2.38226e-27)
(6.21622e-07 1.98036e-06 -4.04304e-27)
(5.90173e-07 1.78161e-06 1.38202e-27)
(5.58136e-07 1.59275e-06 6.89985e-27)
(5.256e-07 1.41405e-06 -1.71057e-27)
(4.9264e-07 1.24571e-06 -3.93446e-27)
(4.59326e-07 1.08794e-06 8.36688e-28)
(4.25719e-07 9.40891e-07 -4.99965e-27)
(3.91873e-07 8.04716e-07 9.88487e-27)
(3.57947e-07 1.74505e-05 2.85799e-27)
(6.69982e-07 1.74509e-05 5.62852e-27)
(-1.83308e-07 1.73642e-05 -6.94362e-27)
(4.87447e-08 1.7447e-05 9.20261e-27)
(-1.30431e-07 7.74986e-07 6.97217e-27)
(-1.40361e-07 9.1088e-07 3.62582e-27)
(-1.50025e-07 1.05762e-06 -6.43756e-27)
(-1.59378e-07 1.21509e-06 2.67531e-27)
(-1.68387e-07 1.38315e-06 1.90646e-27)
(-1.77022e-07 1.56162e-06 -4.30726e-27)
(-1.85263e-07 1.75033e-06 -1.41951e-27)
(-1.93095e-07 1.94906e-06 -1.87123e-27)
(-2.00512e-07 2.15758e-06 4.09298e-27)
(-2.07515e-07 2.37562e-06 2.08592e-27)
(-2.14113e-07 2.6029e-06 -1.82765e-27)
(-2.20322e-07 2.8391e-06 1.40806e-27)
(-2.26166e-07 3.08385e-06 -3.46946e-28)
(-2.31672e-07 3.33679e-06 -3.72591e-27)
(-2.36872e-07 3.59749e-06 -2.40702e-27)
(-2.41802e-07 3.8655e-06 7.29122e-28)
(-2.46495e-07 4.14034e-06 1.15031e-27)
(-2.50983e-07 4.42151e-06 -7.90615e-28)
(-2.55296e-07 4.70847e-06 -1.45053e-27)
(-2.59455e-07 5.00066e-06 -1.11019e-27)
(-2.63476e-07 5.29751e-06 -1.93442e-27)
(-2.67366e-07 5.59844e-06 7.44543e-28)
(-2.71125e-07 5.90288e-06 1.76834e-27)
(-2.74741e-07 6.21024e-06 2.1831e-27)
(-2.78194e-07 6.51997e-06 2.39849e-27)
(-2.81458e-07 6.83153e-06 -5.51771e-28)
(-2.84497e-07 7.14443e-06 2.18892e-27)
(-2.87272e-07 7.45821e-06 7.55421e-27)
(-2.89739e-07 7.77243e-06 -8.0158e-27)
(-2.91855e-07 8.08673e-06 -1.09957e-26)
(-2.93575e-07 8.4008e-06 4.85177e-27)
(-2.94862e-07 8.71437e-06 4.73741e-27)
(-2.95683e-07 9.02724e-06 5.48552e-27)
(-2.96013e-07 9.33924e-06 -2.30548e-27)
(-2.9584e-07 9.65027e-06 1.38961e-28)
(-2.95161e-07 9.96029e-06 3.45192e-27)
(-2.93987e-07 1.02693e-05 2.40053e-26)
(-2.92344e-07 1.05772e-05 1.41648e-26)
(-2.9027e-07 1.08843e-05 -1.9347e-26)
(-2.87816e-07 1.11905e-05 -2.14664e-26)
(-2.85049e-07 1.1496e-05 -1.89487e-26)
(-2.82045e-07 1.18009e-05 4.46726e-28)
(-2.78893e-07 1.21054e-05 -3.84487e-27)
(-2.75692e-07 1.24098e-05 -8.05588e-27)
(-2.72547e-07 1.27142e-05 -7.64541e-27)
(-2.69572e-07 1.30189e-05 3.81899e-27)
(-2.66881e-07 1.33241e-05 2.71352e-27)
(-2.64586e-07 1.36302e-05 -1.08709e-26)
(-2.62792e-07 1.39374e-05 7.08176e-27)
(-2.61584e-07 1.42462e-05 2.20608e-26)
(-2.61015e-07 1.45569e-05 2.11691e-26)
(-2.61093e-07 1.48697e-05 1.58025e-26)
(-2.61759e-07 1.51851e-05 1.53768e-26)
(-2.62869e-07 1.55033e-05 7.40195e-27)
(-2.64174e-07 1.58243e-05 -6.98878e-27)
(-2.65314e-07 1.6148e-05 -2.26147e-26)
(-2.65807e-07 1.64736e-05 -2.74606e-26)
(-2.65029e-07 1.67997e-05 -8.08521e-27)
(-2.62565e-07 1.71234e-05 -8.41325e-27)
(-7.22624e-09 5.0787e-09 1.00533e-26)
(-8.10625e-09 6.36845e-09 2.87209e-27)
(-1.03595e-08 9.12712e-09 -2.60808e-26)
(-1.34015e-08 1.23487e-08 2.47734e-26)
(-1.69423e-08 1.63158e-08 3.89124e-26)
(-2.08073e-08 2.13287e-08 -3.13359e-26)
(-2.48727e-08 2.76358e-08 -2.04978e-26)
(-2.90741e-08 3.54841e-08 2.81007e-26)
(-3.33847e-08 4.51254e-08 2.62757e-27)
(-3.78054e-08 5.68376e-08 -1.41867e-26)
(-4.23543e-08 7.09371e-08 5.31869e-27)
(-4.70604e-08 8.77933e-08 -1.12765e-27)
(-5.19594e-08 1.07839e-07 7.71592e-27)
(-5.70909e-08 1.31584e-07 1.29558e-27)
(-6.24973e-08 1.59626e-07 -1.11707e-27)
(-6.82216e-08 1.92665e-07 -9.54865e-27)
(-7.43075e-08 2.31518e-07 -1.05601e-27)
(-8.0797e-08 2.77136e-07 7.96962e-27)
(-8.77293e-08 3.30621e-07 -6.91645e-27)
(-9.51387e-08 3.93252e-07 5.06937e-27)
(-1.03052e-07 4.66503e-07 9.27143e-27)
(-1.11485e-07 5.52071e-07 -7.5073e-27)
(2.55345e-08 1.49773e-08 -5.09365e-26)
(3.28678e-07 5.81384e-07 -1.12878e-26)
(3.00918e-07 4.95687e-07 3.41124e-28)
(2.7499e-07 4.22348e-07 -3.48648e-27)
(2.50782e-07 3.59667e-07 3.30704e-28)
(2.28182e-07 3.06162e-07 -2.21471e-27)
(2.07077e-07 2.60553e-07 5.17901e-27)
(1.87358e-07 2.21732e-07 8.84859e-27)
(1.68924e-07 1.88743e-07 -7.97574e-27)
(1.51677e-07 1.60762e-07 4.05869e-27)
(1.35531e-07 1.37078e-07 -1.71927e-27)
(1.20407e-07 1.17075e-07 -9.831e-27)
(1.06242e-07 1.00216e-07 -7.25314e-28)
(9.29851e-08 8.60302e-08 -1.0649e-26)
(8.06084e-08 7.40928e-08 6.98521e-27)
(6.9113e-08 6.40135e-08 3.46619e-26)
(5.85419e-08 5.54128e-08 -7.32343e-27)
(4.90057e-08 4.79066e-08 -3.10008e-26)
(4.06947e-08 4.10615e-08 2.19602e-26)
(3.39327e-08 3.44076e-08 -4.02122e-27)
(2.90655e-08 2.73054e-08 -2.07896e-26)
(2.63369e-08 1.92586e-08 -1.70228e-26)
(-1.20617e-07 6.53937e-07 -6.05204e-27)
(3.58956e-07 6.83429e-07 -3.85249e-27)
(9.08806e-07 1.73689e-05 1.88349e-26)
(9.93903e-07 1.71264e-05 8.28961e-27)
(1.00011e-06 1.68033e-05 -1.54127e-26)
(1.00377e-06 1.6479e-05 -1.16203e-26)
(1.00452e-06 1.61553e-05 7.64259e-27)
(1.0029e-06 1.58331e-05 -3.04863e-27)
(9.99514e-07 1.55132e-05 -6.97111e-27)
(9.94965e-07 1.51958e-05 -2.27497e-28)
(9.89729e-07 1.48808e-05 -1.71051e-26)
(9.84185e-07 1.4568e-05 -3.01801e-26)
(9.78613e-07 1.42571e-05 -2.01649e-26)
(9.73217e-07 1.39478e-05 3.13933e-27)
(9.68149e-07 1.36397e-05 5.99709e-27)
(9.63518e-07 1.33324e-05 2.73362e-27)
(9.59406e-07 1.30258e-05 -2.35562e-26)
(9.55877e-07 1.27194e-05 -9.37909e-27)
(9.52976e-07 1.24131e-05 4.91493e-27)
(9.50738e-07 1.21067e-05 -1.13908e-26)
(9.49183e-07 1.17999e-05 -7.78363e-28)
(9.48316e-07 1.14926e-05 -7.58404e-27)
(9.48128e-07 1.11847e-05 -2.68126e-27)
(9.4859e-07 1.08761e-05 1.89003e-26)
(9.49654e-07 1.05668e-05 -4.12027e-28)
(9.51249e-07 1.02567e-05 -1.30449e-26)
(9.53282e-07 9.94576e-06 4.78998e-27)
(9.55636e-07 9.63413e-06 1.61521e-26)
(9.58174e-07 9.32185e-06 6.811e-27)
(9.60736e-07 9.00903e-06 -1.12274e-26)
(9.63145e-07 8.69582e-06 -5.36121e-27)
(9.6521e-07 8.38242e-06 -4.8463e-27)
(9.66729e-07 8.06905e-06 -7.17188e-27)
(9.67496e-07 7.75598e-06 -5.45062e-28)
(9.67304e-07 7.4435e-06 4.2042e-27)
(9.65957e-07 7.13194e-06 -2.95551e-27)
(9.63265e-07 6.82169e-06 -3.94695e-27)
(9.59061e-07 6.51312e-06 -2.14787e-28)
(9.53198e-07 6.20668e-06 -7.11212e-27)
(9.45555e-07 5.90279e-06 -2.45984e-27)
(9.36042e-07 5.60194e-06 7.56978e-27)
(9.24601e-07 5.3046e-06 -1.95602e-27)
(9.11203e-07 5.01127e-06 -1.77724e-27)
(8.95853e-07 4.72245e-06 6.1798e-29)
(8.78584e-07 4.43865e-06 -1.64683e-27)
(8.59458e-07 4.16036e-06 4.45319e-29)
(8.38557e-07 3.88807e-06 2.23278e-27)
(8.15984e-07 3.62228e-06 3.83734e-27)
(7.91854e-07 3.36345e-06 -4.0019e-27)
(7.66295e-07 3.11203e-06 -4.30637e-27)
(7.39438e-07 2.86846e-06 2.70527e-27)
(7.11414e-07 2.63313e-06 1.03146e-27)
(6.82355e-07 2.40644e-06 3.5992e-27)
(6.52385e-07 2.18874e-06 -2.38226e-27)
(6.21622e-07 1.98036e-06 -4.04304e-27)
(5.90173e-07 1.78161e-06 1.38202e-27)
(5.58136e-07 1.59275e-06 6.89985e-27)
(5.256e-07 1.41405e-06 -1.71057e-27)
(4.9264e-07 1.24571e-06 -3.93446e-27)
(4.59326e-07 1.08794e-06 8.36688e-28)
(4.25719e-07 9.40891e-07 -4.99965e-27)
(3.91873e-07 8.04716e-07 9.88487e-27)
(3.57947e-07 1.74505e-05 2.85799e-27)
(6.69982e-07 1.74509e-05 5.62852e-27)
(-1.83308e-07 1.73642e-05 -6.94362e-27)
(4.87447e-08 1.7447e-05 9.20261e-27)
(-1.30431e-07 7.74986e-07 6.97217e-27)
(-1.40361e-07 9.1088e-07 3.62582e-27)
(-1.50025e-07 1.05762e-06 -6.43756e-27)
(-1.59378e-07 1.21509e-06 2.67531e-27)
(-1.68387e-07 1.38315e-06 1.90646e-27)
(-1.77022e-07 1.56162e-06 -4.30726e-27)
(-1.85263e-07 1.75033e-06 -1.41951e-27)
(-1.93095e-07 1.94906e-06 -1.87123e-27)
(-2.00512e-07 2.15758e-06 4.09298e-27)
(-2.07515e-07 2.37562e-06 2.08592e-27)
(-2.14113e-07 2.6029e-06 -1.82765e-27)
(-2.20322e-07 2.8391e-06 1.40806e-27)
(-2.26166e-07 3.08385e-06 -3.46946e-28)
(-2.31672e-07 3.33679e-06 -3.72591e-27)
(-2.36872e-07 3.59749e-06 -2.40702e-27)
(-2.41802e-07 3.8655e-06 7.29122e-28)
(-2.46495e-07 4.14034e-06 1.15031e-27)
(-2.50983e-07 4.42151e-06 -7.90615e-28)
(-2.55296e-07 4.70847e-06 -1.45053e-27)
(-2.59455e-07 5.00066e-06 -1.11019e-27)
(-2.63476e-07 5.29751e-06 -1.93442e-27)
(-2.67366e-07 5.59844e-06 7.44543e-28)
(-2.71125e-07 5.90288e-06 1.76834e-27)
(-2.74741e-07 6.21024e-06 2.1831e-27)
(-2.78194e-07 6.51997e-06 2.39849e-27)
(-2.81458e-07 6.83153e-06 -5.51771e-28)
(-2.84497e-07 7.14443e-06 2.18892e-27)
(-2.87272e-07 7.45821e-06 7.55421e-27)
(-2.89739e-07 7.77243e-06 -8.0158e-27)
(-2.91855e-07 8.08673e-06 -1.09957e-26)
(-2.93575e-07 8.4008e-06 4.85177e-27)
(-2.94862e-07 8.71437e-06 4.73741e-27)
(-2.95683e-07 9.02724e-06 5.48552e-27)
(-2.96013e-07 9.33924e-06 -2.30548e-27)
(-2.9584e-07 9.65027e-06 1.38961e-28)
(-2.95161e-07 9.96029e-06 3.45192e-27)
(-2.93987e-07 1.02693e-05 2.40053e-26)
(-2.92344e-07 1.05772e-05 1.41648e-26)
(-2.9027e-07 1.08843e-05 -1.9347e-26)
(-2.87816e-07 1.11905e-05 -2.14664e-26)
(-2.85049e-07 1.1496e-05 -1.89487e-26)
(-2.82045e-07 1.18009e-05 4.46726e-28)
(-2.78893e-07 1.21054e-05 -3.84487e-27)
(-2.75692e-07 1.24098e-05 -8.05588e-27)
(-2.72547e-07 1.27142e-05 -7.64541e-27)
(-2.69572e-07 1.30189e-05 3.81899e-27)
(-2.66881e-07 1.33241e-05 2.71352e-27)
(-2.64586e-07 1.36302e-05 -1.08709e-26)
(-2.62792e-07 1.39374e-05 7.08176e-27)
(-2.61584e-07 1.42462e-05 2.20608e-26)
(-2.61015e-07 1.45569e-05 2.11691e-26)
(-2.61093e-07 1.48697e-05 1.58025e-26)
(-2.61759e-07 1.51851e-05 1.53768e-26)
(-2.62869e-07 1.55033e-05 7.40195e-27)
(-2.64174e-07 1.58243e-05 -6.98878e-27)
(-2.65314e-07 1.6148e-05 -2.26147e-26)
(-2.65807e-07 1.64736e-05 -2.74606e-26)
(-2.65029e-07 1.67997e-05 -8.08521e-27)
(-2.62565e-07 1.71234e-05 -8.41325e-27)
(-7.22624e-09 5.0787e-09 1.00533e-26)
(-8.10625e-09 6.36845e-09 2.87209e-27)
(-1.03595e-08 9.12712e-09 -2.60808e-26)
(-1.34015e-08 1.23487e-08 2.47734e-26)
(-1.69423e-08 1.63158e-08 3.89124e-26)
(-2.08073e-08 2.13287e-08 -3.13359e-26)
(-2.48727e-08 2.76358e-08 -2.04978e-26)
(-2.90741e-08 3.54841e-08 2.81007e-26)
(-3.33847e-08 4.51254e-08 2.62757e-27)
(-3.78054e-08 5.68376e-08 -1.41867e-26)
(-4.23543e-08 7.09371e-08 5.31869e-27)
(-4.70604e-08 8.77933e-08 -1.12765e-27)
(-5.19594e-08 1.07839e-07 7.71592e-27)
(-5.70909e-08 1.31584e-07 1.29558e-27)
(-6.24973e-08 1.59626e-07 -1.11707e-27)
(-6.82216e-08 1.92665e-07 -9.54865e-27)
(-7.43075e-08 2.31518e-07 -1.05601e-27)
(-8.0797e-08 2.77136e-07 7.96962e-27)
(-8.77293e-08 3.30621e-07 -6.91645e-27)
(-9.51387e-08 3.93252e-07 5.06937e-27)
(-1.03052e-07 4.66503e-07 9.27143e-27)
(-1.11485e-07 5.52071e-07 -7.5073e-27)
(2.55345e-08 1.49773e-08 -5.09365e-26)
(3.28678e-07 5.81384e-07 -1.12878e-26)
(3.00918e-07 4.95687e-07 3.41124e-28)
(2.7499e-07 4.22348e-07 -3.48648e-27)
(2.50782e-07 3.59667e-07 3.30704e-28)
(2.28182e-07 3.06162e-07 -2.21471e-27)
(2.07077e-07 2.60553e-07 5.17901e-27)
(1.87358e-07 2.21732e-07 8.84859e-27)
(1.68924e-07 1.88743e-07 -7.97574e-27)
(1.51677e-07 1.60762e-07 4.05869e-27)
(1.35531e-07 1.37078e-07 -1.71927e-27)
(1.20407e-07 1.17075e-07 -9.831e-27)
(1.06242e-07 1.00216e-07 -7.25314e-28)
(9.29851e-08 8.60302e-08 -1.0649e-26)
(8.06084e-08 7.40928e-08 6.98521e-27)
(6.9113e-08 6.40135e-08 3.46619e-26)
(5.85419e-08 5.54128e-08 -7.32343e-27)
(4.90057e-08 4.79066e-08 -3.10008e-26)
(4.06947e-08 4.10615e-08 2.19602e-26)
(3.39327e-08 3.44076e-08 -4.02122e-27)
(2.90655e-08 2.73054e-08 -2.07896e-26)
(2.63369e-08 1.92586e-08 -1.70228e-26)
)


// ************************************************************************* //
