/*--------------------------------*- C++ -*----------------------------------*\
| =========                 |                                                 |
| \\      /  F ield         | OpenFOAM Extend Project: Open source CFD        |
|  \\    /   O peration     | Version:  1.6-ext                               |
|   \\  /    A nd           | Web:      www.extend-project.de                 |
|    \\/     M anipulation  |                                                 |
\*---------------------------------------------------------------------------*/
FoamFile
{
    version     2.0;
    format      ascii;
    class       tetPointVectorField;
    location    "0.5";
    object      motionU;
}
// * * * * * * * * * * * * * * * * * * * * * * * * * * * * * * * * * * * * * //

dimensions      [0 1 -1 0 0 0 0];

internalField   nonuniform List<vector> 
147960
(
(0 0 0)
(-0.0001178 0.000197261 0)
(0.00367866 -0.000191641 -2.79742e-24)
(0.00411454 0.000839561 -1.62342e-24)
(0.0181645 0.0172251 -3.14032e-25)
(0.0182417 0.0169765 4.83025e-24)
(0.0182262 0.0166459 2.24123e-23)
(0.0182011 0.0163151 1.27256e-23)
(0.0181662 0.0159834 2.0754e-23)
(0.018121 0.0156517 1.12609e-23)
(0.0180657 0.0153204 -1.56085e-24)
(0.0180005 0.0149902 1.3107e-23)
(0.0179256 0.0146614 1.29835e-23)
(0.0178413 0.0143344 8.58198e-24)
(0.0177477 0.0140096 1.56633e-23)
(0.0176452 0.0136872 2.18642e-23)
(0.0175339 0.0133674 1.38802e-23)
(0.0174142 0.0130503 -9.72515e-24)
(0.0172862 0.0127359 -1.49627e-23)
(0.0171503 0.0124244 -9.5811e-24)
(0.0170067 0.0121157 -5.89852e-24)
(0.0168557 0.0118096 -1.039e-24)
(0.0166974 0.0115061 -9.96825e-24)
(0.0165321 0.011205 -1.67302e-23)
(0.0163601 0.0109059 1.57864e-24)
(0.0161814 0.0106087 4.82654e-24)
(0.0159962 0.0103131 -8.43778e-24)
(0.0158047 0.0100189 8.61917e-24)
(0.0156068 0.00972558 2.38743e-23)
(0.0154028 0.00943303 -1.24474e-25)
(0.0151924 0.00914094 -1.35506e-23)
(0.0149758 0.00884908 -7.4179e-24)
(0.0147528 0.00855725 -1.02229e-23)
(0.0145233 0.00826531 -1.513e-24)
(0.0142873 0.00797316 1.37593e-24)
(0.0140445 0.00768076 8.62521e-25)
(0.0137948 0.00738815 4.01476e-24)
(0.013538 0.00709543 -1.81239e-25)
(0.0132741 0.00680277 -7.61851e-24)
(0.0130029 0.0065104 -2.20511e-24)
(0.0127242 0.00621865 6.21071e-24)
(0.012438 0.00592788 -6.02663e-25)
(0.0121442 0.00563854 -7.23415e-24)
(0.0118428 0.00535113 -8.08269e-25)
(0.0115339 0.00506619 3.23208e-24)
(0.0112175 0.00478431 -9.92953e-25)
(0.0108937 0.00450614 -6.2452e-25)
(0.0105628 0.00423231 -1.10944e-24)
(0.0102248 0.00396351 7.12751e-25)
(0.00988004 0.00370041 1.7751e-24)
(0.00952877 0.0034437 -6.94842e-25)
(0.00917126 0.00319404 -1.74205e-24)
(0.00880782 0.0029521 -2.2365e-24)
(0.00843878 0.00271849 -9.3909e-25)
(0.00806446 0.00249382 5.67676e-25)
(0.00768519 0.00227862 1.06104e-24)
(0.00730132 0.00207341 -3.42518e-24)
(0.00691316 0.00187865 4.53555e-25)
(0.00652105 0.00169475 5.03109e-24)
(0.0061253 0.00152205 -4.3185e-24)
(0.00572619 0.00136086 -1.22641e-24)
(0.00532399 0.00121145 6.1747e-24)
(0.00491895 0.00107403 -1.23112e-24)
(0.00451126 0.00094884 -7.18545e-24)
(0.0175812 0.0173031 -2.21102e-24)
(0.0179155 0.0173064 -2.51087e-25)
(0.0169858 0.0172085 -2.3057e-23)
(0.017243 0.0172987 -3.68922e-24)
(0.00402617 -7.75863e-05 -5.15738e-24)
(0.00438387 5.2985e-05 -3.38922e-24)
(0.00473982 0.00019625 -3.82862e-25)
(0.00509385 0.000352017 1.37081e-24)
(0.0054458 0.000520086 4.00624e-24)
(0.00579553 0.000700227 4.52008e-24)
(0.0061429 0.00089217 -4.96865e-24)
(0.00648779 0.0010956 1.31333e-24)
(0.00683004 0.00131016 1.04717e-24)
(0.00716952 0.00153541 -1.54664e-24)
(0.00750607 0.00177091 3.66408e-24)
(0.00783952 0.00201612 -1.7085e-24)
(0.00816969 0.00227047 -1.52459e-24)
(0.0084964 0.00253336 -1.96037e-24)
(0.00881943 0.00280414 -2.34638e-25)
(0.00913859 0.00308213 1.9617e-24)
(0.00945365 0.0033666 -2.44814e-24)
(0.0097644 0.00365685 2.45298e-24)
(0.0100706 0.00395213 4.15349e-24)
(0.0103721 0.00425171 2.01099e-24)
(0.0106686 0.00455487 -1.81944e-24)
(0.0109599 0.00486093 -3.39672e-24)
(0.0112458 0.00516923 -6.34461e-26)
(0.0115262 0.00547915 -1.11754e-25)
(0.0118008 0.00579017 6.31846e-25)
(0.0120695 0.00610181 -4.03595e-24)
(0.0123321 0.00641366 -3.47642e-24)
(0.0125884 0.00672542 -2.53304e-25)
(0.0128384 0.00703686 6.72778e-24)
(0.0130818 0.00734785 1.49944e-24)
(0.0133185 0.00765835 -5.89721e-24)
(0.0135485 0.0079684 8.27058e-24)
(0.0137716 0.00827811 4.40471e-24)
(0.0139877 0.00858768 9.23842e-26)
(0.0141966 0.00889736 1.00373e-23)
(0.0143984 0.00920744 1.31843e-23)
(0.0145928 0.00951827 1.07472e-24)
(0.0147799 0.00983018 -5.13315e-24)
(0.0149594 0.0101436 1.14286e-23)
(0.0151314 0.0104587 1.57826e-23)
(0.0152958 0.0107761 1.54042e-23)
(0.0154524 0.0110958 6.09679e-24)
(0.0156013 0.0114184 -6.35071e-24)
(0.0157423 0.0117438 -5.09688e-24)
(0.0158755 0.0120724 -4.26369e-24)
(0.0160007 0.0124041 7.83734e-25)
(0.016118 0.0127392 -1.55821e-24)
(0.0162272 0.0130775 6.77311e-24)
(0.0163284 0.0134189 5.13827e-24)
(0.0164216 0.0137634 -8.31289e-24)
(0.0165066 0.0141107 -9.9421e-24)
(0.0165835 0.0144606 -1.65425e-23)
(0.0166522 0.0148128 8.49229e-24)
(0.0167127 0.0151669 1.94218e-23)
(0.016765 0.0155224 1.28279e-24)
(0.0168089 0.0158789 2.18348e-23)
(0.0168446 0.0162357 2.76686e-24)
(0.0168721 0.016592 -7.97189e-24)
(0.0168915 0.0169455 -3.82528e-25)
(0.0136227 0.0158234 0)
(0.0169458 0.0170295 0)
(0.0169354 0.0169245 0)
(0.016876 0.0168164 0)
(0.0167969 0.0167139 0)
(0.0166832 0.0166148 0)
(0.0165428 0.0165209 0)
(0.0163669 0.0164312 0)
(0.0161665 0.0163511 0)
(0.015919 0.0162653 0)
(0.0156485 0.0161936 0)
(0.0153324 0.0161243 0)
(0.0149649 0.0160402 0)
(0.0145856 0.0159813 0)
(0.0141247 0.0159153 0)
(0.00242858 0.000432936 0)
(0.00270755 0.000501095 0)
(0.0029954 0.000582341 0)
(0.00328983 0.000677012 0)
(0.00359214 0.000784951 0)
(0.00390186 0.000905975 0)
(0.00421584 0.00103984 0)
(0.00453323 0.00118625 0)
(0.00485387 0.00134479 0)
(0.0051773 0.00151511 0)
(0.00550239 0.00169696 0)
(0.00582796 0.00189004 0)
(0.00615292 0.00209395 0)
(0.00647628 0.0023082 0)
(0.00679751 0.00253226 0)
(0.00711656 0.00276569 0)
(0.00743342 0.00300805 0)
(0.00774801 0.00325883 0)
(0.00805979 0.00351758 0)
(0.00836792 0.0037836 0)
(0.0086728 0.00405713 0)
(0.00897395 0.00433747 0)
(0.0092697 0.00462274 0)
(0.00955903 0.00491264 0)
(0.00984159 0.00520668 0)
(0.0101174 0.00550437 0)
(0.0103866 0.00580528 0)
(0.010649 0.00610906 0)
(0.010905 0.0064154 0)
(0.011155 0.00672406 0)
(0.0113987 0.00703489 0)
(0.0116354 0.00734771 0)
(0.0118649 0.00766205 0)
(0.0120877 0.00797729 0)
(0.0123034 0.00829318 0)
(0.0125112 0.00860937 0)
(0.0127115 0.00892681 0)
(0.0129046 0.00924553 0)
(0.0130888 0.00956364 0)
(0.0132614 0.00988086 0)
(0.0134199 0.0101969 0)
(0.0135621 0.0105116 0)
(0.0136887 0.0108246 0)
(0.0138036 0.0111358 0)
(0.013911 0.0114461 0)
(0.0140098 0.0117569 0)
(0.0140936 0.0120699 0)
(0.014159 0.0123853 0)
(0.0142117 0.0127006 0)
(0.0142589 0.0130115 0)
(0.0142978 0.0133142 0)
(0.0143185 0.0136083 0)
(0.0143147 0.0138959 0)
(0.0142866 0.0141785 0)
(0.0142423 0.0144551 0)
(0.0141863 0.0147225 0)
(0.0141174 0.014977 0)
(0.0140309 0.0152153 0)
(0.0139191 0.0154358 0)
(0.0137787 0.0156366 0)
(0.0145903 0.0157279 0)
(0.0151003 0.0158495 0)
(0.0155949 0.015948 0)
(0.0159943 0.0160229 0)
(0.0163563 0.0161207 0)
(0.016711 0.0162158 0)
(0.0169926 0.0162937 0)
(0.0172445 0.0163852 0)
(0.0174784 0.0164783 0)
(0.017656 0.0165643 0)
(0.017817 0.0166606 0)
(0.0179477 0.016758 0)
(0.0180417 0.0168554 0)
(0.0181198 0.0169574 0)
(0.0181645 0.0170568 0)
(0.0027189 0.000894611 0)
(0.00406526 0.000836236 0)
(0.00400994 0.000838698 0)
(0.00394103 0.000845162 0)
(0.00386422 0.00085405 0)
(0.00378021 0.000863699 0)
(0.00369293 0.000873401 0)
(0.00360137 0.00088246 0)
(0.00350441 0.000890213 0)
(0.00340653 0.000896764 0)
(0.00330507 0.000901719 0)
(0.00319916 0.000904546 0)
(0.00308902 0.000905194 0)
(0.00297312 0.000903682 0)
(0.00285179 0.000900053 0)
(0.0147838 0.0155571 0)
(0.0149469 0.0153695 0)
(0.0150832 0.0151638 0)
(0.0151945 0.0149415 0)
(0.0152838 0.0147037 0)
(0.0153543 0.014453 0)
(0.0154091 0.014193 0)
(0.0154454 0.013927 0)
(0.0154573 0.0136564 0)
(0.0154444 0.0133798 0)
(0.0154109 0.0130951 0)
(0.0153657 0.0128024 0)
(0.0153126 0.0125049 0)
(0.0152464 0.0122069 0)
(0.0151616 0.0119109 0)
(0.0150607 0.0116168 0)
(0.0149498 0.0113233 0)
(0.0148307 0.0110287 0)
(0.0147002 0.0107324 0)
(0.0145544 0.0104343 0)
(0.0143926 0.0101347 0)
(0.0142166 0.00983388 0)
(0.0140288 0.00953211 0)
(0.0138316 0.0092298 0)
(0.0136268 0.00892853 0)
(0.0134141 0.00862831 0)
(0.0131931 0.00832835 0)
(0.0129644 0.00802902 0)
(0.0127284 0.00773053 0)
(0.0124846 0.00743344 0)
(0.012233 0.00713819 0)
(0.0119741 0.00684496 0)
(0.0117081 0.00655386 0)
(0.0114345 0.00626514 0)
(0.0111529 0.00597909 0)
(0.0108633 0.00569605 0)
(0.0105655 0.00541644 0)
(0.0102593 0.00514068 0)
(0.00994506 0.0048692 0)
(0.00962376 0.00460232 0)
(0.00929704 0.00434152 0)
(0.0089654 0.00408735 0)
(0.00862836 0.00383952 0)
(0.00828672 0.00359853 0)
(0.00794123 0.00336481 0)
(0.00759214 0.00313881 0)
(0.00723946 0.00292091 0)
(0.00688324 0.00271144 0)
(0.00652401 0.00251062 0)
(0.0061629 0.00231867 0)
(0.00580131 0.00213575 0)
(0.00544068 0.00196201 0)
(0.00508235 0.00179748 0)
(0.00472701 0.00164216 0)
(0.00437493 0.00149596 0)
(0.00402698 0.00135865 0)
(0.00368678 0.00123036 0)
(0.00335544 0.00111074 0)
(0.00303192 0.000998954 0)
(0.00317214 0.00100442 0)
(0.00330735 0.00100845 0)
(0.00343771 0.00101015 0)
(0.00355437 0.00100941 0)
(0.00367309 0.00100686 0)
(0.00378567 0.00100232 0)
(0.0038898 0.000995857 0)
(0.00399725 0.000988288 0)
(0.00409337 0.0009796 0)
(0.00418636 0.000970578 0)
(0.00427452 0.000961921 0)
(0.0043521 0.000954199 0)
(0.00442059 0.000949108 0)
(0.0044739 0.000947514 0)
(0.00350555 0.00111699 0)
(0.00365447 0.00112147 0)
(0.00379333 0.0011233 0)
(0.00391974 0.001123 0)
(0.00404952 0.00112106 0)
(0.00416834 0.00111703 0)
(0.00428147 0.00111135 0)
(0.00439473 0.00110467 0)
(0.00449548 0.00109697 0)
(0.00459352 0.00108924 0)
(0.00468293 0.00108185 0)
(0.00476112 0.00107551 0)
(0.00482893 0.00107176 0)
(0.00488013 0.00107119 0)
(0.00384804 0.0012375 0)
(0.00400976 0.00124287 0)
(0.00415578 0.00124523 0)
(0.00429175 0.00124578 0)
(0.00443048 0.00124469 0)
(0.00455438 0.00124149 0)
(0.00467513 0.00123722 0)
(0.00479393 0.00123189 0)
(0.00489719 0.00122557 0)
(0.00499888 0.00121944 0)
(0.00508911 0.00121364 0)
(0.00516724 0.00120891 0)
(0.00523479 0.00120668 0)
(0.00528537 0.00120748 0)
(0.00419988 0.00136709 0)
(0.00437205 0.00137333 0)
(0.00452369 0.00137648 0)
(0.00466828 0.0013783 0)
(0.00481567 0.00137874 0)
(0.00494378 0.00137663 0)
(0.00506995 0.00137384 0)
(0.00519277 0.00137018 0)
(0.00529794 0.0013655 0)
(0.00540191 0.00136123 0)
(0.00549295 0.00135724 0)
(0.00557073 0.0013543 0)
(0.00563809 0.00135372 0)
(0.0056881 0.00135588 0)
(0.00455775 0.00150574 0)
(0.00473932 0.00151317 0)
(0.00489536 0.00151736 0)
(0.00504752 0.00152078 0)
(0.00520287 0.00152286 0)
(0.00533379 0.00152221 0)
(0.0054641 0.0015213 0)
(0.00559088 0.00151959 0)
(0.00569678 0.00151676 0)
(0.00580215 0.00151453 0)
(0.0058939 0.00151252 0)
(0.00597155 0.00151147 0)
(0.00603844 0.00151261 0)
(0.0060877 0.00151611 0)
(0.0049193 0.00165371 0)
(0.00511022 0.00166258 0)
(0.00527006 0.00166802 0)
(0.00542811 0.00167328 0)
(0.00559068 0.00167727 0)
(0.00572418 0.00167835 0)
(0.00585676 0.00167958 0)
(0.00598663 0.00168005 0)
(0.00609367 0.00167925 0)
(0.0061995 0.00167916 0)
(0.00629153 0.00167923 0)
(0.0063691 0.00168019 0)
(0.00643565 0.00168307 0)
(0.00648405 0.00168789 0)
(0.00528328 0.00181112 0)
(0.00548375 0.00182169 0)
(0.00564708 0.00182853 0)
(0.00580912 0.00183582 0)
(0.00597773 0.00184196 0)
(0.00611365 0.00184503 0)
(0.00624786 0.0018486 0)
(0.00637969 0.00185145 0)
(0.00648755 0.0018528 0)
(0.00659368 0.00185481 0)
(0.00668572 0.00185704 0)
(0.00676309 0.00186019 0)
(0.00682917 0.00186479 0)
(0.00687677 0.0018709 0)
(0.0056487 0.00197801 0)
(0.00585839 0.00199053 0)
(0.00602518 0.00199891 0)
(0.0061892 0.00200828 0)
(0.00636283 0.00201676 0)
(0.00650134 0.00202219 0)
(0.00663681 0.00202824 0)
(0.00677006 0.00203358 0)
(0.00687833 0.00203729 0)
(0.00698568 0.002042 0)
(0.00707739 0.00204624 0)
(0.00715346 0.00205116 0)
(0.00721879 0.00205743 0)
(0.00726551 0.0020648 0)
(0.00601435 0.00215436 0)
(0.00623203 0.00216908 0)
(0.00640294 0.00217923 0)
(0.00656947 0.00219131 0)
(0.00674629 0.0022022 0)
(0.00688608 0.00220969 0)
(0.0070231 0.00221828 0)
(0.00715749 0.00222618 0)
(0.0072657 0.00223229 0)
(0.00737328 0.00223946 0)
(0.00746455 0.00224585 0)
(0.00753975 0.00225267 0)
(0.00760428 0.00226058 0)
(0.00765001 0.00226918 0)
(0.00637941 0.00234004 0)
(0.0066033 0.00235713 0)
(0.00677846 0.00236918 0)
(0.00694777 0.00238381 0)
(0.00712683 0.00239732 0)
(0.0072672 0.00240711 0)
(0.00740571 0.00241834 0)
(0.00754139 0.00242886 0)
(0.00764919 0.00243732 0)
(0.0077565 0.00244693 0)
(0.00784704 0.00245551 0)
(0.00792138 0.00246424 0)
(0.00798519 0.00247379 0)
(0.00802992 0.00248358 0)
(0.00674359 0.00253485 0)
(0.0069719 0.00255438 0)
(0.00715025 0.00256836 0)
(0.00732262 0.00258558 0)
(0.00750439 0.00260188 0)
(0.00764493 0.00261407 0)
(0.00778408 0.00262803 0)
(0.00792072 0.00264118 0)
(0.00802808 0.00265199 0)
(0.00813502 0.00266401 0)
(0.00822468 0.00267477 0)
(0.00829807 0.0026854 0)
(0.00836113 0.00269655 0)
(0.00840489 0.0027075 0)
(0.00710645 0.00273857 0)
(0.00733802 0.00276058 0)
(0.00751754 0.00277636 0)
(0.00769288 0.00279628 0)
(0.00787789 0.00281563 0)
(0.00801879 0.00283023 0)
(0.0081581 0.00284691 0)
(0.00829501 0.00286269 0)
(0.00840166 0.00287583 0)
(0.00850826 0.00289023 0)
(0.00859714 0.00290313 0)
(0.00866957 0.00291561 0)
(0.00873182 0.00292833 0)
(0.00877459 0.0029404 0)
(0.007467 0.00295103 0)
(0.00770203 0.00297562 0)
(0.00788254 0.00299378 0)
(0.00805952 0.00301637 0)
(0.00824647 0.00303828 0)
(0.00838772 0.00305518 0)
(0.00852728 0.00307453 0)
(0.0086642 0.00309291 0)
(0.00876976 0.00310831 0)
(0.00887589 0.00312503 0)
(0.00896404 0.00314002 0)
(0.00903555 0.00315431 0)
(0.00909696 0.00316855 0)
(0.0091387 0.00318168 0)
(0.007824 0.00317194 0)
(0.00806311 0.00319904 0)
(0.00824416 0.00321922 0)
(0.00842164 0.0032446 0)
(0.0086101 0.00326926 0)
(0.00875129 0.00328843 0)
(0.00889101 0.00331038 0)
(0.00902792 0.00333127 0)
(0.00913229 0.00334886 0)
(0.00923784 0.00336784 0)
(0.00932521 0.00338484 0)
(0.00939572 0.00340088 0)
(0.00945622 0.00341659 0)
(0.00949689 0.00343072 0)
(0.00817648 0.00340093 0)
(0.00841913 0.00343024 0)
(0.00860141 0.00345231 0)
(0.00877968 0.00348072 0)
(0.0089692 0.0035081 0)
(0.00910962 0.00352943 0)
(0.00924904 0.00355392 0)
(0.00938574 0.00357723 0)
(0.00948889 0.0035969 0)
(0.00959386 0.00361804 0)
(0.00968037 0.00363699 0)
(0.00974977 0.00365471 0)
(0.00980927 0.00367181 0)
(0.00984887 0.00368687 0)
(0.00852447 0.00363777 0)
(0.00877077 0.0036699 0)
(0.00895417 0.00369366 0)
(0.00913274 0.00372441 0)
(0.00932325 0.00375431 0)
(0.00946262 0.00377769 0)
(0.00960129 0.00380461 0)
(0.00973743 0.00383023 0)
(0.00983916 0.00385179 0)
(0.00994348 0.003875 0)
(0.0100291 0.00389585 0)
(0.0100973 0.00391517 0)
(0.0101558 0.00393357 0)
(0.0101943 0.00394948 0)
(0.00886822 0.00388184 0)
(0.00911734 0.00391639 0)
(0.00930099 0.00394188 0)
(0.0094799 0.00397509 0)
(0.00967135 0.00400742 0)
(0.00980965 0.00403271 0)
(0.00994743 0.00406195 0)
(0.0100828 0.00408971 0)
(0.0101826 0.00411277 0)
(0.0102864 0.00413801 0)
(0.0103711 0.00416084 0)
(0.0104381 0.00418162 0)
(0.0104956 0.0042012 0)
(0.010533 0.00421785 0)
(0.00920702 0.00413236 0)
(0.00945929 0.00416924 0)
(0.00964262 0.00419666 0)
(0.00982115 0.00423228 0)
(0.0100131 0.0042669 0)
(0.0101502 0.00429396 0)
(0.0102871 0.0043254 0)
(0.0104219 0.00435527 0)
(0.0105207 0.00438045 0)
(0.0106235 0.00440732 0)
(0.0107064 0.00443136 0)
(0.0107719 0.00445339 0)
(0.0108284 0.00447402 0)
(0.0108647 0.00449132 0)
(0.00954152 0.00439 0)
(0.0097968 0.00442903 0)
(0.00997878 0.00445762 0)
(0.0101565 0.00449543 0)
(0.0103486 0.00453221 0)
(0.0104842 0.00456084 0)
(0.0106202 0.0045943 0)
(0.0107543 0.00462612 0)
(0.0108516 0.00465287 0)
(0.0109532 0.00468134 0)
(0.0110346 0.00470666 0)
(0.0110987 0.0047298 0)
(0.0111541 0.00475134 0)
(0.0111893 0.0047692 0)
(0.00987065 0.0046533 0)
(0.010128 0.00469444 0)
(0.0103088 0.00472414 0)
(0.0104857 0.004764 0)
(0.0106777 0.00480275 0)
(0.0108116 0.00483275 0)
(0.0109465 0.00486803 0)
(0.0110798 0.00490157 0)
(0.0111753 0.00492965 0)
(0.0112755 0.00495959 0)
(0.0113555 0.00498609 0)
(0.0114183 0.00501019 0)
(0.0114725 0.00503253 0)
(0.0115065 0.00505084 0)
(0.0101945 0.00492265 0)
(0.010453 0.00496513 0)
(0.0106326 0.00499569 0)
(0.0108084 0.00503743 0)
(0.0110001 0.00507797 0)
(0.0111322 0.00510911 0)
(0.0112658 0.005146 0)
(0.011398 0.00518105 0)
(0.0114916 0.00521027 0)
(0.0115905 0.00524153 0)
(0.0116691 0.00526905 0)
(0.0117305 0.00529397 0)
(0.0117835 0.00531697 0)
(0.0118162 0.00533562 0)
(0.0105109 0.00519653 0)
(0.0107712 0.00524045 0)
(0.0109497 0.00527174 0)
(0.0111244 0.00531521 0)
(0.0113157 0.00535734 0)
(0.0114459 0.00538938 0)
(0.011578 0.00542767 0)
(0.011709 0.00546402 0)
(0.0118006 0.00549419 0)
(0.0118982 0.00552661 0)
(0.0119754 0.00555498 0)
(0.0120352 0.00558056 0)
(0.012087 0.00560408 0)
(0.0121184 0.00562295 0)
(0.0108196 0.00547461 0)
(0.0110822 0.00551991 0)
(0.0112597 0.00555178 0)
(0.0114335 0.00559681 0)
(0.0116244 0.00564031 0)
(0.0117526 0.00567303 0)
(0.0118831 0.0057125 0)
(0.0120127 0.00574989 0)
(0.0121023 0.00578081 0)
(0.0121986 0.00581426 0)
(0.0122742 0.00584333 0)
(0.0123325 0.0058694 0)
(0.0123829 0.0058933 0)
(0.0124129 0.00591228 0)
(0.0111202 0.00575649 0)
(0.0113853 0.00580304 0)
(0.0115623 0.00583531 0)
(0.0117355 0.00588172 0)
(0.011926 0.00592643 0)
(0.0120521 0.00595963 0)
(0.0121809 0.00600008 0)
(0.0123088 0.00603804 0)
(0.0123967 0.00606958 0)
(0.0124918 0.00610407 0)
(0.0125657 0.00613362 0)
(0.0126222 0.00616 0)
(0.0126713 0.00618413 0)
(0.0127 0.0062031 0)
(0.0114124 0.0060417 0)
(0.0116802 0.00608936 0)
(0.0118569 0.00612187 0)
(0.0120297 0.00616955 0)
(0.0122201 0.00621532 0)
(0.0123441 0.00624886 0)
(0.0124716 0.00629023 0)
(0.0125986 0.00632934 0)
(0.0126845 0.00636105 0)
(0.0127776 0.0063957 0)
(0.0128496 0.00642544 0)
(0.0129045 0.00645191 0)
(0.0129522 0.00647612 0)
(0.0129795 0.00649498 0)
(0.0116962 0.00632981 0)
(0.0119665 0.00637846 0)
(0.0121431 0.00641107 0)
(0.0123158 0.0064599 0)
(0.0125063 0.00650659 0)
(0.0126287 0.00654025 0)
(0.0127549 0.00658231 0)
(0.0128808 0.00662198 0)
(0.0129646 0.00665373 0)
(0.0130561 0.00668862 0)
(0.0131262 0.00671837 0)
(0.0131792 0.00674476 0)
(0.0132256 0.00676889 0)
(0.0132515 0.00678753 0)
(0.0119718 0.00662046 0)
(0.0122444 0.00666995 0)
(0.0124209 0.00670251 0)
(0.0125936 0.00675236 0)
(0.0127846 0.00679977 0)
(0.0129055 0.00683332 0)
(0.0130304 0.00687577 0)
(0.0131552 0.00691574 0)
(0.0132371 0.00694743 0)
(0.013327 0.00698243 0)
(0.0133954 0.00701206 0)
(0.0134466 0.00703823 0)
(0.0134916 0.00706213 0)
(0.0135162 0.00708044 0)
(0.0122398 0.00691331 0)
(0.0125146 0.00696346 0)
(0.0126908 0.0069958 0)
(0.0128636 0.00704654 0)
(0.0130549 0.00709453 0)
(0.0131744 0.00712777 0)
(0.0132979 0.00717015 0)
(0.013422 0.00721033 0)
(0.0135021 0.00724199 0)
(0.0135905 0.00727691 0)
(0.0136572 0.00730625 0)
(0.0137067 0.00733205 0)
(0.0137503 0.00735559 0)
(0.0137737 0.00737347 0)
(0.0125008 0.00720811 0)
(0.0127777 0.00725872 0)
(0.0129534 0.00729066 0)
(0.013126 0.00734217 0)
(0.0133177 0.00739064 0)
(0.0134359 0.00742353 0)
(0.0135586 0.00746649 0)
(0.013682 0.00750655 0)
(0.0137598 0.00753733 0)
(0.0138467 0.0075719 0)
(0.0139118 0.00760074 0)
(0.0139597 0.00762601 0)
(0.014002 0.00764909 0)
(0.0140242 0.00766644 0)
(0.0127547 0.00750475 0)
(0.0130338 0.00755559 0)
(0.013209 0.00758693 0)
(0.0133812 0.00763905 0)
(0.013573 0.00768782 0)
(0.0136898 0.00772015 0)
(0.0138117 0.00776319 0)
(0.0139341 0.00780306 0)
(0.0140101 0.00783311 0)
(0.0140957 0.00786723 0)
(0.0141592 0.00789541 0)
(0.0142056 0.00792001 0)
(0.0142467 0.00794251 0)
(0.0142677 0.00795924 0)
(0.0130008 0.0078031 0)
(0.0132821 0.00785398 0)
(0.0134569 0.00788449 0)
(0.0136289 0.00793701 0)
(0.0138208 0.00798588 0)
(0.0139359 0.00801718 0)
(0.0140572 0.00806024 0)
(0.0141788 0.00810004 0)
(0.0142532 0.00812925 0)
(0.0143376 0.00816279 0)
(0.0143997 0.00819017 0)
(0.0144446 0.00821398 0)
(0.0144846 0.0082358 0)
(0.0145044 0.00825185 0)
(0.0132388 0.00810285 0)
(0.0135223 0.00815363 0)
(0.0136968 0.00818314 0)
(0.0138689 0.00823593 0)
(0.0140613 0.00828486 0)
(0.0141756 0.00831581 0)
(0.0142963 0.00835866 0)
(0.0144166 0.00839759 0)
(0.0144893 0.00842575 0)
(0.0145726 0.00845855 0)
(0.0146333 0.00848501 0)
(0.0146769 0.00850793 0)
(0.0147158 0.00852898 0)
(0.0147345 0.00854428 0)
(0.0134692 0.00840351 0)
(0.0137545 0.00845419 0)
(0.0139288 0.00848261 0)
(0.0141012 0.00853557 0)
(0.014294 0.0085842 0)
(0.0144078 0.0086145 0)
(0.0145278 0.00865735 0)
(0.0146471 0.00869561 0)
(0.0147183 0.0087226 0)
(0.0148006 0.00875453 0)
(0.0148602 0.00877998 0)
(0.0149026 0.00880191 0)
(0.0149404 0.00882212 0)
(0.0149581 0.00883662 0)
(0.0136918 0.00870474 0)
(0.013979 0.00875536 0)
(0.0141532 0.00878274 0)
(0.0143256 0.00883571 0)
(0.01452 0.00888497 0)
(0.0146333 0.00891459 0)
(0.0147522 0.00895666 0)
(0.0148706 0.0089941 0)
(0.0149403 0.00901983 0)
(0.0150217 0.00905084 0)
(0.0150803 0.00907519 0)
(0.0151216 0.00909605 0)
(0.0151585 0.00911536 0)
(0.0151753 0.00912901 0)
(0.0139064 0.00900643 0)
(0.0141958 0.00905704 0)
(0.0143697 0.00908335 0)
(0.0145432 0.00913741 0)
(0.0147389 0.00918698 0)
(0.014851 0.00921513 0)
(0.0149692 0.00925651 0)
(0.0150868 0.00929309 0)
(0.0151552 0.00931755 0)
(0.0152359 0.00934759 0)
(0.0152936 0.00937079 0)
(0.015334 0.00939052 0)
(0.0153702 0.00940887 0)
(0.0153862 0.00942165 0)
(0.0141132 0.00930835 0)
(0.0144049 0.00935903 0)
(0.0145791 0.00938536 0)
(0.0147533 0.00944023 0)
(0.0149493 0.00948926 0)
(0.0150605 0.0095161 0)
(0.0151783 0.00955687 0)
(0.0152956 0.00959264 0)
(0.015363 0.00961584 0)
(0.0154432 0.00964492 0)
(0.0155002 0.00966693 0)
(0.0155399 0.00968551 0)
(0.0155755 0.00970288 0)
(0.0155907 0.00971477 0)
(0.0143128 0.00961261 0)
(0.0146064 0.00966338 0)
(0.0147801 0.00968838 0)
(0.014954 0.00974309 0)
(0.0151505 0.00979182 0)
(0.0152613 0.00981751 0)
(0.0153792 0.00985777 0)
(0.0154967 0.00989281 0)
(0.0155637 0.00991482 0)
(0.0156437 0.00994296 0)
(0.0157002 0.00996383 0)
(0.0157394 0.00998126 0)
(0.0157745 0.00999765 0)
(0.0157889 0.0100086 0)
(0.014502 0.00991611 0)
(0.0147969 0.00996701 0)
(0.0149702 0.00999104 0)
(0.0151444 0.010046 0)
(0.015342 0.0100947 0)
(0.015453 0.0101194 0)
(0.0155718 0.0101593 0)
(0.0156902 0.0101937 0)
(0.0157573 0.0102146 0)
(0.0158374 0.0102419 0)
(0.0158936 0.0102617 0)
(0.0159323 0.010278 0)
(0.0159669 0.0102934 0)
(0.0159809 0.0103035 0)
(0.0146788 0.0102187 0)
(0.014975 0.0102699 0)
(0.0151483 0.0102933 0)
(0.0153238 0.0103489 0)
(0.0155236 0.0103978 0)
(0.015636 0.0104217 0)
(0.0157566 0.0104615 0)
(0.0158763 0.0104956 0)
(0.0159438 0.0105156 0)
(0.0160244 0.0105421 0)
(0.0160805 0.0105608 0)
(0.0161187 0.0105761 0)
(0.016153 0.0105905 0)
(0.0161664 0.0105996 0)
(0.0148417 0.0105203 0)
(0.0151401 0.010572 0)
(0.015315 0.0105952 0)
(0.0154933 0.0106518 0)
(0.0156967 0.0107012 0)
(0.0158112 0.0107249 0)
(0.0159338 0.0107648 0)
(0.0160551 0.0107987 0)
(0.0161231 0.0108179 0)
(0.0162043 0.0108437 0)
(0.0162604 0.0108615 0)
(0.0162985 0.0108756 0)
(0.0163325 0.0108891 0)
(0.0163454 0.0108974 0)
(0.0149902 0.0108207 0)
(0.0152932 0.0108735 0)
(0.0154719 0.0108969 0)
(0.0156547 0.0109551 0)
(0.0158621 0.0110056 0)
(0.0159788 0.0110292 0)
(0.0161032 0.0110696 0)
(0.016226 0.0111034 0)
(0.0162948 0.0111218 0)
(0.0163769 0.011147 0)
(0.0164334 0.0111638 0)
(0.0164714 0.0111769 0)
(0.0165053 0.0111895 0)
(0.0165177 0.0111969 0)
(0.0151266 0.0111199 0)
(0.0154368 0.0111744 0)
(0.0156208 0.0111989 0)
(0.0158081 0.0112593 0)
(0.016019 0.0113113 0)
(0.0161375 0.0113352 0)
(0.0162639 0.0113761 0)
(0.0163887 0.0114097 0)
(0.0164588 0.0114274 0)
(0.016542 0.011452 0)
(0.0165992 0.0114679 0)
(0.0166373 0.0114802 0)
(0.0166711 0.011492 0)
(0.0166832 0.0114986 0)
(0.0152543 0.0114183 0)
(0.0155727 0.0114755 0)
(0.015761 0.0115018 0)
(0.0159515 0.011565 0)
(0.0161657 0.0116187 0)
(0.0162867 0.0116428 0)
(0.0164162 0.011684 0)
(0.0165435 0.0117175 0)
(0.0166152 0.0117345 0)
(0.0166997 0.0117588 0)
(0.0167575 0.011774 0)
(0.0167959 0.0117856 0)
(0.0168298 0.0117967 0)
(0.0168417 0.0118026 0)
(0.0153739 0.0117169 0)
(0.0156981 0.0117779 0)
(0.015889 0.0118065 0)
(0.0160832 0.0118724 0)
(0.0163024 0.0119274 0)
(0.0164277 0.0119514 0)
(0.0165608 0.0119929 0)
(0.0166906 0.0120265 0)
(0.0167636 0.0120433 0)
(0.0168495 0.0120675 0)
(0.0169081 0.0120823 0)
(0.016947 0.0120933 0)
(0.0169812 0.0121039 0)
(0.0169929 0.0121091 0)
(0.0154807 0.0120172 0)
(0.0158089 0.0120822 0)
(0.0160042 0.0121127 0)
(0.0162053 0.0121804 0)
(0.0164314 0.0122361 0)
(0.0165605 0.01226 0)
(0.0166964 0.0123024 0)
(0.0168284 0.0123369 0)
(0.0169033 0.0123539 0)
(0.0169912 0.0123784 0)
(0.017051 0.0123931 0)
(0.0170906 0.0124036 0)
(0.0171251 0.0124136 0)
(0.0171367 0.0124183 0)
(0.0155705 0.0123195 0)
(0.0159063 0.0123876 0)
(0.0161107 0.0124186 0)
(0.0163199 0.0124872 0)
(0.0165507 0.0125439 0)
(0.0166823 0.0125689 0)
(0.0168215 0.0126133 0)
(0.0169575 0.0126491 0)
(0.0170354 0.0126666 0)
(0.0171253 0.0126914 0)
(0.0171863 0.012706 0)
(0.0172265 0.0127164 0)
(0.0172612 0.012726 0)
(0.0172727 0.0127302 0)
(0.0156465 0.0126223 0)
(0.0159958 0.0126913 0)
(0.0162095 0.0127217 0)
(0.0164227 0.0127921 0)
(0.016657 0.0128517 0)
(0.0167933 0.0128792 0)
(0.0169388 0.0129257 0)
(0.0170795 0.0129625 0)
(0.0171595 0.0129805 0)
(0.017251 0.0130061 0)
(0.0173131 0.0130212 0)
(0.0173541 0.0130316 0)
(0.0173893 0.0130411 0)
(0.0174007 0.0130448 0)
(0.0157149 0.012922 0)
(0.0160768 0.0129905 0)
(0.0162939 0.0130218 0)
(0.0165106 0.0130968 0)
(0.0167526 0.0131606 0)
(0.0168974 0.0131897 0)
(0.0170489 0.0132375 0)
(0.0171915 0.0132758 0)
(0.0172729 0.0132953 0)
(0.0173672 0.0133226 0)
(0.0174315 0.0133386 0)
(0.0174735 0.0133493 0)
(0.0175092 0.0133589 0)
(0.0175206 0.0133623 0)
(0.0157736 0.0132154 0)
(0.0161409 0.0132853 0)
(0.0163611 0.0133211 0)
(0.0165874 0.0134018 0)
(0.0168414 0.013468 0)
(0.016993 0.0134974 0)
(0.0171452 0.0135476 0)
(0.0172902 0.0135894 0)
(0.0173772 0.0136117 0)
(0.0174758 0.013641 0)
(0.0175416 0.0136579 0)
(0.0175843 0.0136693 0)
(0.0176204 0.0136792 0)
(0.0176319 0.0136824 0)
(0.0158144 0.0135025 0)
(0.0161851 0.0135783 0)
(0.016415 0.0136199 0)
(0.0166566 0.0137034 0)
(0.0169206 0.01377 0)
(0.0170713 0.013802 0)
(0.0172264 0.0138577 0)
(0.0173818 0.0139039 0)
(0.0174748 0.0139285 0)
(0.0175747 0.0139595 0)
(0.0176413 0.0139783 0)
(0.0176855 0.0139913 0)
(0.0177229 0.0140018 0)
(0.0177345 0.014005 0)
(0.0158328 0.0137858 0)
(0.0162123 0.0138695 0)
(0.0164601 0.0139136 0)
(0.0167161 0.0139973 0)
(0.0169792 0.0140672 0)
(0.0171318 0.0141053 0)
(0.0173029 0.0141669 0)
(0.0174664 0.0142161 0)
(0.0175587 0.0142425 0)
(0.0176603 0.0142775 0)
(0.0177308 0.0143002 0)
(0.0177783 0.0143152 0)
(0.0178164 0.0143267 0)
(0.017828 0.01433 0)
(0.0158293 0.0140659 0)
(0.0162292 0.014155 0)
(0.0164967 0.0141979 0)
(0.0167526 0.0142838 0)
(0.0170164 0.0143609 0)
(0.0171893 0.0144059 0)
(0.0173712 0.0144711 0)
(0.0175318 0.0145222 0)
(0.0176279 0.0145544 0)
(0.017737 0.0145965 0)
(0.0178135 0.0146228 0)
(0.0178619 0.0146399 0)
(0.0179001 0.0146531 0)
(0.0179123 0.0146571 0)
(0.0158113 0.0143405 0)
(0.0162379 0.0144302 0)
(0.01651 0.0144712 0)
(0.0167645 0.0145635 0)
(0.0170497 0.0146501 0)
(0.017237 0.0146991 0)
(0.0174162 0.0147651 0)
(0.0175834 0.0148233 0)
(0.0176892 0.0148659 0)
(0.0178065 0.0149131 0)
(0.0178844 0.0149427 0)
(0.0179328 0.0149642 0)
(0.0179738 0.0149809 0)
(0.0179873 0.014986 0)
(0.0157821 0.0146052 0)
(0.0162256 0.0146916 0)
(0.0164976 0.0147339 0)
(0.0167671 0.014837 0)
(0.0170706 0.0149304 0)
(0.0172613 0.0149779 0)
(0.0174478 0.0150502 0)
(0.017624 0.0151215 0)
(0.0177402 0.01517 0)
(0.0178613 0.0152217 0)
(0.0179394 0.0152594 0)
(0.0179945 0.0152886 0)
(0.0180392 0.0153096 0)
(0.0180525 0.0153161 0)
(0.0157351 0.0148559 0)
(0.0161889 0.0149385 0)
(0.016466 0.0149873 0)
(0.0167529 0.0151005 0)
(0.0170729 0.0151936 0)
(0.0172702 0.0152432 0)
(0.0174607 0.0153283 0)
(0.0176525 0.0154073 0)
(0.0177767 0.0154605 0)
(0.0178975 0.0155225 0)
(0.017986 0.015572 0)
(0.018048 0.0156102 0)
(0.0180929 0.0156367 0)
(0.0181072 0.0156467 0)
(0.0156671 0.0150902 0)
(0.0161248 0.0151715 0)
(0.0164119 0.0152291 0)
(0.0167256 0.0153471 0)
(0.0170558 0.0154394 0)
(0.0172506 0.0154956 0)
(0.0174625 0.0155901 0)
(0.0176679 0.0156752 0)
(0.0177892 0.0157362 0)
(0.0179226 0.0158114 0)
(0.0180219 0.0158739 0)
(0.0180848 0.0159225 0)
(0.0181337 0.0159601 0)
(0.0181521 0.0159774 0)
(0.0155713 0.0153075 0)
(0.016033 0.0153902 0)
(0.0163424 0.0154558 0)
(0.0166759 0.0155749 0)
(0.0170061 0.015666 0)
(0.0172193 0.0157295 0)
(0.0174493 0.0158325 0)
(0.0176536 0.0159203 0)
(0.0177868 0.0159907 0)
(0.0179345 0.0160806 0)
(0.0180364 0.0161549 0)
(0.0181056 0.0162198 0)
(0.0181647 0.0162759 0)
(0.0181862 0.0163053 0)
(0.0154476 0.0155072 0)
(0.0159167 0.0155931 0)
(0.0162489 0.0156645 0)
(0.0165986 0.0157804 0)
(0.0169373 0.0158718 0)
(0.0171656 0.0159433 0)
(0.017408 0.0160474 0)
(0.0176206 0.0161376 0)
(0.0177667 0.0162192 0)
(0.0179224 0.0163178 0)
(0.0180298 0.0164043 0)
(0.0181125 0.0164899 0)
(0.0181781 0.0165692 0)
(0.018206 0.0166234 0)
(0.0152941 0.01569 0)
(0.0157751 0.0157793 0)
(0.0161289 0.0158515 0)
(0.0164952 0.0159646 0)
(0.0168409 0.0160561 0)
(0.0170867 0.0161293 0)
(0.0173452 0.0162343 0)
(0.0175617 0.0163247 0)
(0.0177216 0.0164107 0)
(0.0178877 0.0165148 0)
(0.0179995 0.0166085 0)
(0.0180942 0.0167093 0)
(0.0181646 0.0168105 0)
(0.0182046 0.0169045 0)
(-0.0013703 0.0022786 0)
(-0.00159444 0.00266683 0)
(-0.00139829 0.00232364 0)
(-0.00142432 0.00236619 0)
(-0.00144849 0.00240601 0)
(-0.0014708 0.0024431 0)
(-0.00149125 0.00247744 0)