/*--------------------------------*- C++ -*----------------------------------*\
| =========                 |                                                 |
| \\      /  F ield         | OpenFOAM Extend Project: Open source CFD        |
|  \\    /   O peration     | Version:  1.6-ext                               |
|   \\  /    A nd           | Web:      www.extend-project.de                 |
|    \\/     M anipulation  |                                                 |
\*---------------------------------------------------------------------------*/
FoamFile
{
    version     2.0;
    format      ascii;
    class       volScalarField;
    location    "0.5";
    object      p;
}
// * * * * * * * * * * * * * * * * * * * * * * * * * * * * * * * * * * * * * //

dimensions      [0 2 -2 0 0 0 0];

internalField   nonuniform List<scalar> 
20940
(
-0.09935
-0.143216
-0.189262
-0.237752
-0.288125
-0.340448
-0.394215
-0.448947
-0.503781
-0.557596
-0.609019
-0.656627
-0.699198
-0.735965
-0.766754
-0.791958
-0.812387
-0.829048
-0.842882
-0.85468
-0.865985
-0.877982
-0.127638
-0.170348
-0.215412
-0.262305
-0.310791
-0.360705
-0.411512
-0.462603
-0.513031
-0.561661
-0.607241
-0.64863
-0.685017
-0.716082
-0.742014
-0.763409
-0.781096
-0.795953
-0.808705
-0.819908
-0.830846
-0.842506
-0.152282
-0.193615
-0.237408
-0.28245
-0.328785
-0.376004
-0.423544
-0.470676
-0.516422
-0.559705
-0.599482
-0.634951
-0.665708
-0.691801
-0.713669
-0.73199
-0.74752
-0.760964
-0.772839
-0.783488
-0.79396
-0.805064
-0.175583
-0.21533
-0.257585
-0.300512
-0.344393
-0.388579
-0.432485
-0.475295
-0.516066
-0.553867
-0.587938
-0.617844
-0.643545
-0.66536
-0.683855
-0.699688
-0.713485
-0.725769
-0.736866
-0.746953
-0.756884
-0.76734
-0.197199
-0.235268
-0.275827
-0.316478
-0.357705
-0.398619
-0.438635
-0.476898
-0.512584
-0.544988
-0.573677
-0.598564
-0.619894
-0.638148
-0.653913
-0.667755
-0.680148
-0.691439
-0.701804
-0.711295
-0.720611
-0.730341
-0.217418
-0.253752
-0.292484
-0.330713
-0.369086
-0.406502
-0.442417
-0.476015
-0.506667
-0.533953
-0.557767
-0.578307
-0.596
-0.61138
-0.624974
-0.637224
-0.648447
-0.658849
-0.66849
-0.677337
-0.685967
-0.694903
-0.236384
-0.270932
-0.307723
-0.343403
-0.378763
-0.41252
-0.444235
-0.473203
-0.499061
-0.521685
-0.541254
-0.558162
-0.572913
-0.586012
-0.597881
-0.608826
-0.619034
-0.628598
-0.6375
-0.645656
-0.653543
-0.661636
-0.254376
-0.287194
-0.321986
-0.355014
-0.387205
-0.417174
-0.444662
-0.469151
-0.490578
-0.509091
-0.525075
-0.539022
-0.551429
-0.562714
-0.573183
-0.583018
-0.592303
-0.60105
-0.609194
-0.616622
-0.623727
-0.630951
-0.27132
-0.302358
-0.335034
-0.365322
-0.39427
-0.420469
-0.443892
-0.464254
-0.481776
-0.496814
-0.509876
-0.521466
-0.532017
-0.541845
-0.551144
-0.56
-0.568418
-0.576361
-0.583735
-0.590416
-0.596727
-0.603076
-0.287562
-0.316965
-0.347511
-0.374989
-0.400618
-0.423076
-0.442633
-0.459249
-0.473384
-0.485525
-0.496214
-0.505911
-0.514959
-0.523571
-0.531848
-0.539803
-0.54739
-0.554539
-0.561146
-0.567081
-0.572606
-0.578102
-0.302507
-0.330108
-0.35835
-0.383046
-0.405494
-0.424542
-0.440711
-0.454178
-0.465559
-0.4754
-0.484222
-0.492415
-0.500234
-0.507809
-0.515173
-0.522289
-0.529081
-0.53546
-0.541319
-0.546532
-0.551305
-0.555988
-0.316933
-0.342983
-0.369026
-0.390952
-0.41027
-0.426099
-0.439202
-0.449939
-0.459004
-0.46694
-0.474211
-0.481128
-0.487868
-0.494496
-0.500999
-0.507309
-0.51333
-0.518964
-0.524104
-0.52863
-0.5327
-0.536632
-0.328708
-0.352981
-0.376552
-0.396104
-0.412823
-0.426181
-0.436994
-0.445742
-0.453123
-0.459654
-0.46574
-0.471632
-0.477456
-0.483244
-0.488956
-0.49451
-0.499806
-0.50474
-0.509211
-0.513106
-0.516541
-0.519802
-0.341231
-0.363865
-0.385306
-0.402479
-0.416655
-0.427668
-0.436367
-0.443325
-0.449198
-0.454457
-0.459444
-0.464356
-0.46928
-0.474221
-0.479128
-0.483914
-0.488476
-0.492712
-0.496525
-0.499814
-0.502659
-0.505321
-0.346045
-0.368581
-0.387293
-0.403202
-0.415908
-0.42583
-0.43355
-0.439674
-0.44478
-0.449308
-0.453571
-0.457756
-0.461952
-0.466175
-0.470384
-0.474503
-0.478437
-0.482087
-0.485361
-0.48816
-0.490533
-0.492705
-0.361432
-0.380746
-0.396614
-0.410105
-0.420499
-0.428452
-0.434514
-0.439282
-0.443265
-0.446834
-0.450236
-0.453615
-0.45703
-0.460485
-0.463938
-0.46732
-0.470545
-0.473528
-0.476188
-0.478444
-0.480322
-0.482005
-0.38331
-0.398627
-0.409606
-0.41898
-0.425941
-0.43142
-0.435739
-0.439331
-0.442481
-0.445394
-0.448202
-0.450977
-0.453746
-0.456502
-0.45921
-0.461818
-0.464265
-0.46649
-0.468437
-0.470057
-0.471383
-0.472558
-0.393441
-0.40662
-0.414814
-0.422332
-0.427703
-0.432102
-0.435581
-0.438523
-0.4411
-0.443469
-0.445724
-0.447922
-0.450087
-0.452217
-0.454289
-0.456266
-0.458101
-0.459749
-0.46117
-0.46233
-0.463254
-0.464037
-0.400517
-0.411986
-0.418041
-0.424209
-0.428394
-0.43199
-0.434828
-0.437261
-0.439383
-0.441313
-0.443117
-0.444842
-0.446509
-0.44812
-0.449662
-0.451107
-0.452425
-0.453583
-0.454553
-0.455316
-0.455887
-0.456331
-0.404073
-0.414091
-0.418933
-0.42425
-0.427763
-0.430873
-0.433312
-0.435397
-0.437184
-0.438772
-0.440217
-0.441561
-0.442827
-0.444021
-0.445135
-0.446155
-0.447056
-0.447816
-0.448418
-0.44885
-0.449115
-0.449252
-0.405408
-0.414116
-0.418398
-0.423095
-0.42623
-0.429009
-0.431187
-0.433027
-0.434575
-0.435915
-0.437096
-0.438157
-0.43912
-0.439994
-0.440778
-0.441462
-0.44203
-0.442466
-0.442759
-0.442905
-0.44289
-0.442732
-0.405069
-0.412619
-0.416737
-0.420988
-0.423949
-0.426529
-0.428565
-0.430262
-0.431667
-0.43285
-0.433859
-0.434727
-0.435477
-0.436121
-0.43666
-0.437088
-0.437395
-0.437569
-0.437603
-0.437499
-0.437225
-0.436777
-0.403652
-0.410261
-0.414374
-0.41832
-0.421223
-0.423704
-0.425687
-0.427324
-0.428666
-0.429774
-0.430688
-0.431443
-0.432058
-0.432546
-0.43291
-0.433149
-0.433254
-0.433217
-0.433035
-0.432714
-0.4322
-0.431473
-0.401679
-0.407571
-0.411698
-0.415454
-0.418362
-0.420823
-0.42282
-0.424466
-0.425811
-0.426907
-0.427791
-0.428494
-0.429035
-0.429426
-0.429674
-0.429777
-0.429731
-0.42953
-0.429173
-0.428668
-0.427943
-0.42696
-0.399571
-0.40495
-0.409072
-0.412725
-0.415676
-0.418172
-0.420231
-0.421935
-0.42333
-0.424461
-0.425363
-0.42606
-0.426574
-0.426916
-0.427092
-0.427105
-0.426953
-0.426631
-0.426142
-0.425495
-0.424599
-0.423403
-0.397678
-0.402705
-0.406807
-0.41042
-0.413435
-0.416003
-0.418153
-0.419945
-0.421421
-0.422619
-0.423569
-0.424295
-0.424815
-0.425142
-0.425285
-0.425248
-0.425031
-0.424633
-0.424059
-0.42332
-0.422311
-0.420969
-0.396154
-0.400969
-0.405059
-0.408678
-0.411771
-0.414431
-0.416686
-0.418584
-0.420159
-0.421443
-0.422463
-0.423241
-0.423795
-0.424137
-0.424277
-0.424224
-0.423982
-0.423553
-0.422949
-0.42218
-0.421137
-0.419746
-0.395178
-0.399885
-0.403978
-0.407637
-0.410818
-0.413583
-0.415954
-0.41797
-0.419658
-0.421046
-0.422158
-0.423012
-0.423624
-0.424008
-0.424175
-0.424137
-0.423905
-0.423488
-0.422905
-0.422172
-0.421191
-0.419887
-0.394585
-0.399267
-0.403373
-0.407077
-0.410333
-0.413186
-0.415657
-0.417776
-0.419568
-0.421056
-0.422258
-0.423192
-0.42387
-0.424305
-0.424509
-0.424499
-0.424292
-0.423912
-0.423389
-0.422758
-0.421963
-0.420935
-0.394512
-0.399223
-0.403422
-0.407248
-0.410652
-0.413666
-0.416308
-0.418605
-0.42058
-0.422256
-0.423647
-0.424766
-0.425617
-0.426203
-0.426526
-0.426593
-0.426418
-0.426028
-0.425471
-0.424822
-0.424144
-0.423515
1.27318
1.32403
1.3748
1.42543
1.47546
1.52451
1.57216
1.61804
1.66173
1.70287
1.74109
1.77605
1.80747
1.8351
1.85883
1.87872
1.89509
1.90867
1.92041
1.93155
1.94495
1.96253
1.26451
1.31503
1.36516
1.41511
1.46445
1.51274
1.55962
1.60468
1.64754
1.68782
1.72516
1.75924
1.78976
1.8165
1.83935
1.85838
1.87398
1.88687
1.89808
1.90886
1.92208
1.93959
1.24383
1.29365
1.34246
1.39114
1.43915
1.48607
1.53152
1.57512
1.61647
1.6552
1.69096
1.72343
1.75231
1.77739
1.79859
1.81602
1.83012
1.84171
1.85188
1.86195
1.8748
1.89216
1.21437
1.26311
1.30994
1.35667
1.40264
1.44743
1.49067
1.53198
1.57098
1.6073
1.6406
1.67055
1.69689
1.71941
1.73806
1.75302
1.76481
1.77437
1.78294
1.79192
1.80416
1.82127
1.17545
1.22277
1.26701
1.3112
1.35453
1.39656
1.43694
1.4753
1.51125
1.54445
1.57455
1.60123
1.62425
1.64341
1.65872
1.67042
1.67916
1.68605
1.69247
1.69997
1.71139
1.72813
1.12882
1.17434
1.21542
1.25651
1.2966
1.33525
1.37212
1.40685
1.43906
1.46842
1.49457
1.51724
1.53616
1.55118
1.56235
1.57002
1.57497
1.57851
1.58226
1.58789
1.59823
1.61445
1.07541
1.11881
1.15621
1.19374
1.23009
1.26482
1.29765
1.32818
1.35606
1.38096
1.40254
1.42051
1.43464
1.44481
1.45111
1.454
1.45446
1.45401
1.45452
1.45787
1.46685
1.48237
1.01699
1.05791
1.09121
1.12476
1.15691
1.18726
1.21553
1.24134
1.26434
1.2842
1.3006
1.31326
1.32195
1.32658
1.32732
1.32473
1.31999
1.3149
1.31163
1.31227
1.3196
1.33419
0.955061
0.993177
1.02206
1.05131
1.07894
1.10457
1.12792
1.14862
1.16632
1.1807
1.19145
1.19827
1.20097
1.19948
1.19402
1.18529
1.17468
1.16431
1.15669
1.15415
1.15945
1.17284
0.891605
0.926618
0.950851
0.975557
0.998364
1.01894
1.03701
1.05222
1.06423
1.07269
1.07732
1.07782
1.07402
1.06585
1.0536
1.03811
1.02102
1.00475
0.992214
0.986051
0.988971
1.00083
0.828008
0.859583
0.879111
0.899202
0.917109
0.932548
0.945259
0.954858
0.961003
0.963365
0.961634
0.955535
0.944867
0.929602
0.910081
0.887281
0.863071
0.84027
0.822199
0.811865
0.811949
0.821884
0.766476
0.794316
0.809083
0.82439
0.837204
0.847295
0.854393
0.858109
0.858102
0.854043
0.845621
0.832562
0.81467
0.791931
0.764739
0.7342
0.702435
0.672644
0.64861
0.633721
0.630607
0.6382
0.707374
0.731145
0.741585
0.752385
0.760404
0.76545
0.767226
0.765331
0.759407
0.74911
0.734114
0.714126
0.688932
0.658515
0.6233
0.584517
0.544558
0.507059
0.476347
0.45628
0.449457
0.454244
0.653967
0.672673
0.678692
0.684745
0.68775
0.687498
0.683665
0.675844
0.663673
0.646805
0.624915
0.597713
0.564995
0.526762
0.48349
0.436535
0.388537
0.343523
0.306297
0.28112
0.270454
0.271955
0.60408
0.617677
0.620698
0.622667
0.621498
0.616838
0.608296
0.595442
0.577876
0.555212
0.527078
0.493138
0.453131
0.407012
0.355241
0.299261
0.242004
0.188062
0.143021
0.111859
0.0970672
0.0953428
0.566177
0.567987
0.568007
0.565655
0.559499
0.549536
0.535306
0.516404
0.492436
0.463018
0.427787
0.38642
0.338704
0.284688
0.225019
0.161434
0.0972515
0.037441
-0.0121833
-0.0466606
-0.0640437
-0.0684241
0.526041
0.518114
0.513139
0.503531
0.490008
0.472343
0.45007
0.422873
0.390414
0.35238
0.308494
0.258558
0.20255
0.14084
0.0745409
0.00592898
-0.061293
-0.122224
-0.171718
-0.205887
-0.22406
-0.231049
0.478377
0.463506
0.453716
0.43758
0.417805
0.393494
0.364342
0.330069
0.290383
0.245034
0.19383
0.136687
0.0737676
0.00572294
-0.065951
-0.138565
-0.208146
-0.269873
-0.319137
-0.35292
-0.371707
-0.380939
0.427902
0.40721
0.392169
0.369738
0.343932
0.313267
0.277686
0.23691
0.190695
0.138853
0.0812619
0.0179578
-0.0507057
-0.123784
-0.199402
-0.27451
-0.344967
-0.406173
-0.454159
-0.486819
-0.505654
-0.516444
0.375441
0.349635
0.329297
0.301063
0.269614
0.233076
0.191629
0.144973
0.0929335
0.0353826
-0.0277088
-0.0961609
-0.16939
-0.246126
-0.324127
-0.400059
-0.469774
-0.529078
-0.57478
-0.605695
-0.624164
-0.636028
0.322083
0.291814
0.266376
0.23294
0.196371
0.154615
0.108025
0.0562937
-0.000686197
-0.0629765
-0.130501
-0.202912
-0.279373
-0.358288
-0.437093
-0.512295
-0.579902
-0.636274
-0.679049
-0.707892
-0.72577
-0.738374
0.269017
0.234895
0.204721
0.166732
0.125642
0.0793889
0.0284382
-0.027513
-0.0884995
-0.15451
-0.225348
-0.300473
-0.378784
-0.458379
-0.536455
-0.609492
-0.67382
-0.726462
-0.765885
-0.792481
-0.809639
-0.822737
0.217057
0.179687
0.145272
0.103428
0.0585009
0.00853976
-0.0459321
-0.105192
-0.169204
-0.237872
-0.310856
-0.387412
-0.466168
-0.544962
-0.620854
-0.690453
-0.750547
-0.798892
-0.83473
-0.859036
-0.875422
-0.888841
0.167208
0.127186
0.0891132
0.0441266
-0.0039172
-0.0567801
-0.11392
-0.175571
-0.241622
-0.311878
-0.38584
-0.462542
-0.540367
-0.616958
-0.689365
-0.754466
-0.809628
-0.853345
-0.88555
-0.907632
-0.923255
-0.936866
0.119788
0.0776977
0.0366076
-0.0107946
-0.0611985
-0.116135
-0.175069
-0.238174
-0.305261
-0.376017
-0.44977
-0.525337
-0.60089
-0.673974
-0.741758
-0.80153
-0.851295
-0.890263
-0.918924
-0.938922
-0.95382
-0.96752
0.0755913
0.0319965
-0.011449
-0.0605662
-0.112597
-0.168821
-0.228722
-0.292398
-0.359571
-0.429794
-0.502211
-0.575438
-0.6475
-0.71595
-0.778215
-0.832094
-0.87626
-0.910555
-0.935884
-0.953991
-0.968219
-0.981913
0.0342387
-0.0103344
-0.0554784
-0.105627
-0.158555
-0.21529
-0.275333
-0.338697
-0.405001
-0.473651
-0.543609
-0.613328
-0.68077
-0.743621
-0.799687
-0.847349
-0.885921
-0.915766
-0.938046
-0.954471
-0.968075
-0.98166
-0.00348506
-0.0485323
-0.094742
-0.145299
-0.198467
-0.255022
-0.314481
-0.376754
-0.441343
-0.507498
-0.574016
-0.63924
-0.701171
-0.757751
-0.807261
-0.848684
-0.881906
-0.907668
-0.927248
-0.942209
-0.955224
-0.968587
-0.0388094
-0.0838985
-0.130594
-0.180977
-0.233754
-0.28946
-0.347616
-0.40801
-0.470022
-0.532744
-0.594847
-0.654649
-0.710307
-0.760135
-0.802951
-0.838314
-0.866567
-0.888682
-0.905914
-0.9196
-0.932024
-0.945023
-0.0703346
-0.115044
-0.161687
-0.211384
-0.263231
-0.317524
-0.373777
-0.431646
-0.49038
-0.548938
-0.605923
-0.659726
-0.708768
-0.751811
-0.788211
-0.818014
-0.841876
-0.860853
-0.876075
-0.888612
-0.900347
-0.912717
-0.0387667
-0.0832847
-0.12984
-0.179496
-0.231381
-0.285752
-0.342118
-0.400106
-0.458934
-0.517528
-0.574463
-0.628116
-0.676913
-0.719641
-0.755687
-0.785129
-0.808644
-0.827296
-0.842218
-0.854476
-0.865928
-0.877986
-0.00734729
-0.0522524
-0.0988626
-0.149179
-0.201958
-0.257691
-0.315903
-0.376354
-0.438398
-0.501092
-0.563074
-0.622642
-0.677952
-0.727343
-0.769677
-0.804555
-0.832354
-0.854063
-0.87094
-0.884317
-0.896434
-0.909096
0.0276308
-0.0172374
-0.0633722
-0.113841
-0.16698
-0.223517
-0.282979
-0.34525
-0.409812
-0.475879
-0.542212
-0.607129
-0.668619
-0.724648
-0.773541
-0.814341
-0.846983
-0.872241
-0.8914
-0.906014
-0.918704
-0.931715
0.0647303
0.0203296
-0.0247617
-0.0748093
-0.127687
-0.184365
-0.244364
-0.307673
-0.373894
-0.442402
-0.512122
-0.581472
-0.648397
-0.710596
-0.76592
-0.812818
-0.850674
-0.879899
-0.901678
-0.917711
-0.930973
-0.9442
0.105164
0.0617355
0.0183105
-0.0307011
-0.0826691
-0.138811
-0.198631
-0.262209
-0.329253
-0.39929
-0.471428
-0.544243
-0.615734
-0.683456
-0.744873
-0.797859
-0.841171
-0.874724
-0.899459
-0.917123
-0.930993
-0.944333
0.148147
0.106214
0.0651005
0.0177962
-0.0325457
-0.0873869
-0.146217
-0.209194
-0.27612
-0.34666
-0.420108
-0.495241
-0.570196
-0.642505
-0.709367
-0.768139
-0.816926
-0.855028
-0.882998
-0.902495
-0.917018
-0.930373
0.194065
0.154188
0.116038
0.0711293
0.0231342
-0.0296354
-0.0866639
-0.148174
-0.214048
-0.284074
-0.357723
-0.433991
-0.511218
-0.587025
-0.658472
-0.722503
-0.776583
-0.819322
-0.850739
-0.87226
-0.887493
-0.900777
0.24216
0.204915
0.170359
0.128558
0.0836517
0.0337646
-0.020606
-0.0797304
-0.143568
-0.21201
-0.284694
-0.360837
-0.439025
-0.51706
-0.592
-0.660498
-0.719445
-0.766721
-0.801682
-0.825366
-0.841348
-0.854465
0.292152
0.258125
0.227739
0.189742
0.148633
0.102418
0.0515399
-0.00430017
-0.0651348
-0.130945
-0.201513
-0.27627
-0.354069
-0.432966
-0.510138
-0.582094
-0.645253
-0.696767
-0.735244
-0.761164
-0.777907
-0.790736
0.343099
0.312879
0.287155
0.253645
0.217003
0.175232
0.128669
0.0770051
0.0201346
-0.0419994
-0.109307
-0.181415
-0.257445
-0.335755
-0.413748
-0.487937
-0.554401
-0.60963
-0.651415
-0.679542
-0.697001
-0.709376
0.39425
0.368427
0.347728
0.319339
0.287753
0.251133
0.20965
0.163
0.111009
0.0535503
-0.00939539
-0.0776279
-0.150529
-0.22678
-0.304096
-0.37913
-0.447782
-0.505974
-0.550678
-0.580856
-0.598914
-0.6106
0.444495
0.423695
0.408223
0.385541
0.359525
0.328698
0.293006
0.252159
0.205914
0.154083
0.0965492
0.0333635
-0.0350918
-0.107827
-0.182919
-0.257287
-0.32681
-0.386988
-0.434009
-0.46594
-0.484383
-0.49506
0.492805
0.477701
0.467424
0.450934
0.430868
0.40631
0.376959
0.342529
0.302721
0.257289
0.206039
0.1489
0.086056
0.0181967
-0.0531304
-0.125193
-0.194014
-0.254847
-0.303228
-0.336322
-0.354756
-0.363955
0.538424
0.530061
0.524557
0.514491
0.500589
0.48259
0.460027
0.432579
0.399901
0.361679
0.317638
0.267584
0.211511
0.149822
0.0836791
0.0154096
-0.0512597
-0.111471
-0.160206
-0.193759
-0.21164
-0.21869
0.576958
0.578042
0.577481
0.574567
0.567919
0.557519
0.54289
0.523625
0.499325
0.469601
0.434088
0.392467
0.344532
0.290357
0.230631
0.167149
0.103275
0.0439684
-0.00505785
-0.0390235
-0.0561935
-0.0607395
0.612883
0.625484
0.627905
0.629313
0.627607
0.622455
0.61345
0.60016
0.582178
0.559114
0.530596
0.496286
0.455934
0.409511
0.357519
0.301456
0.244305
0.190661
0.146031
0.115234
0.100549
0.0985664
0.660418
0.678063
0.683486
0.688954
0.691384
0.690597
0.68625
0.677932
0.665277
0.647934
0.625576
0.597915
0.564753
0.526111
0.482498
0.435318
0.387259
0.342349
0.305333
0.280347
0.269665
0.27083
0.711649
0.734355
0.744167
0.754361
0.76177
0.766238
0.767449
0.764997
0.758522
0.747675
0.732129
0.711592
0.685857
0.654924
0.61925
0.58011
0.539935
0.502372
0.471702
0.45168
0.444736
0.449122
0.768598
0.795414
0.809536
0.824225
0.836407
0.845892
0.852389
0.855506
0.854898
0.850234
0.841201
0.827528
0.809022
0.785688
0.757945
0.726941
0.694834
0.664836
0.640697
0.625728
0.622408
0.629561
0.828223
0.858851
0.877724
0.897188
0.914449
0.92926
0.941342
0.950309
0.955814
0.957528
0.955138
0.948371
0.937032
0.921108
0.900964
0.877612
0.852957
0.829832
0.811541
0.801029
0.800847
0.810323
0.890158
0.924304
0.947882
0.971963
0.994126
1.01406
1.0315
1.04607
1.05741
1.06521
1.06915
1.06896
1.06445
1.05558
1.04267
1.02657
1.00896
0.992288
0.979441
0.97303
0.975646
0.987048
0.952296
0.989637
1.01788
1.04652
1.07353
1.09852
1.12124
1.1413
1.15834
1.17205
1.1821
1.18822
1.19021
1.18801
1.18186
1.17249
1.16132
1.15049
1.14249
1.13967
1.14465
1.1576
1.01327
1.05351
1.0862
1.11916
1.15072
1.18047
1.20812
1.23331
1.25567
1.27487
1.2906
1.30257
1.31057
1.3145
1.31455
1.31132
1.306
1.30043
1.29676
1.29709
1.30409
1.31828
1.07114
1.11394
1.15078
1.18777
1.22356
1.25774
1.28999
1.31993
1.34721
1.37149
1.39244
1.40977
1.42324
1.43274
1.43839
1.44066
1.44055
1.43962
1.43973
1.44276
1.45144
1.46659
1.12438
1.16941
1.20998
1.25059
1.29018
1.32832
1.36468
1.39887
1.43054
1.45933
1.48492
1.507
1.52532
1.53974
1.55031
1.5574
1.56183
1.56492
1.56828
1.57361
1.58367
1.59957
1.17123
1.21814
1.26196
1.30573
1.34863
1.39022
1.43016
1.46806
1.50354
1.53625
1.56585
1.59203
1.61452
1.63316
1.64795
1.65915
1.66743
1.6739
1.67999
1.68722
1.6984
1.71487
1.2107
1.25913
1.30562
1.352
1.39763
1.44206
1.48494
1.52588
1.56449
1.60042
1.63332
1.66286
1.68877
1.71086
1.72909
1.74364
1.75505
1.76427
1.77255
1.78131
1.79336
1.81026
1.241
1.29059
1.33915
1.38758
1.43534
1.482
1.52719
1.57051
1.61157
1.65001
1.68548
1.71764
1.74621
1.77097
1.79186
1.80899
1.8228
1.83413
1.84409
1.854
1.86669
1.88391
1.26272
1.31311
1.36308
1.41289
1.46206
1.5102
1.55691
1.60181
1.64449
1.68459
1.72175
1.75564
1.78597
1.81252
1.83517
1.85402
1.86944
1.88217
1.89325
1.90393
1.91706
1.93448
1.27257
1.32337
1.3741
1.42467
1.47465
1.52364
1.57125
1.61706
1.6607
1.70177
1.73993
1.77483
1.80618
1.83375
1.85742
1.87724
1.89356
1.90708
1.91877
1.92988
1.94326
1.9608
-0.0678992
-0.0964531
-0.121488
-0.145261
-0.167381
-0.188098
-0.207531
-0.225921
-0.243193
-0.259663
-0.274772
-0.289261
-0.301111
-0.313603
-0.318643
-0.33399
-0.356076
-0.366582
-0.373978
-0.37779
-0.379315
-0.3791
-0.377734
-0.375739
-0.373551
-0.371537
-0.369881
-0.36878
-0.368098
-0.367976
-0.111566
-0.138959
-0.162607
-0.184789
-0.205224
-0.224203
-0.241848
-0.258509
-0.274004
-0.288849
-0.302172
-0.315143
-0.325244
-0.336162
-0.341039
-0.353265
-0.371485
-0.379786
-0.38544
-0.387799
-0.388025
-0.38667
-0.384379
-0.381686
-0.379006
-0.376666
-0.374825
-0.373642
-0.372953
-0.372878
-0.157528
-0.183952
-0.20634
-0.226998
-0.245751
-0.262917
-0.278632
-0.293305
-0.306695
-0.319426
-0.330463
-0.341266
-0.348919
-0.357747
-0.3599
-0.369343
-0.382737
-0.388227
-0.391696
-0.392779
-0.392393
-0.390839
-0.388533
-0.38586
-0.383192
-0.380854
-0.379022
-0.377862
-0.3772
-0.37723
-0.206006
-0.230863
-0.251426
-0.26999
-0.286488
-0.301246
-0.314424
-0.326458
-0.337119
-0.34706
-0.355332
-0.363393
-0.368677
-0.37515
-0.37599
-0.383037
-0.392281
-0.395853
-0.397927
-0.398135
-0.397118
-0.395116
-0.392507
-0.389653
-0.386896
-0.384535
-0.382726
-0.381623
-0.381018
-0.381179
-0.256453
-0.279461
-0.297905
-0.314043
-0.32791
-0.339834
-0.350012
-0.358893
-0.366325
-0.372964
-0.378067
-0.383014
-0.385697
-0.389632
-0.388962
-0.393694
-0.399447
-0.401379
-0.402225
-0.401726
-0.400306
-0.398114
-0.395441
-0.392596
-0.38989
-0.387607
-0.385889
-0.384888
-0.384367
-0.384682
-0.308903
-0.329547
-0.345335
-0.358472
-0.369092
-0.377538
-0.384073
-0.389179
-0.392849
-0.395758
-0.397451
-0.399179
-0.399372
-0.400947
-0.39914
-0.401878
-0.405077
-0.405879
-0.405888
-0.404883
-0.403121
-0.400722
-0.397948
-0.395085
-0.392423
-0.390221
-0.388606
-0.38772
-0.387295
-0.387775
-0.362837
-0.380569
-0.393131
-0.402667
-0.409421
-0.413786
-0.416134
-0.41702
-0.41663
-0.415669
-0.413962
-0.412607
-0.410482
-0.409918
-0.407095
-0.408142
-0.409525
-0.409452
-0.408794
-0.407372
-0.405336
-0.402787
-0.399956
-0.397109
-0.394513
-0.392409
-0.390909
-0.390147
-0.389827
-0.39048
-0.417744
-0.431882
-0.440527
-0.445774
-0.448008
-0.447724
-0.445453
-0.441863
-0.437339
-0.432617
-0.427738
-0.423624
-0.41948
-0.417095
-0.41341
-0.413067
-0.413215
-0.412466
-0.411281
-0.409497
-0.407208
-0.404509
-0.401616
-0.398778
-0.396244
-0.394234
-0.392845
-0.392207
-0.391996
-0.392828
-0.472731
-0.482511
-0.486516
-0.486822
-0.483998
-0.478697
-0.471636
-0.463611
-0.455165
-0.447031
-0.439371
-0.43291
-0.427053
-0.423134
-0.418663
-0.41717
-0.416442
-0.415104
-0.41345
-0.411322
-0.408786
-0.405938
-0.40298
-0.400144
-0.397663
-0.395738
-0.394453
-0.393933
-0.393828
-0.394845
-0.526643
-0.531289
-0.529995
-0.524856
-0.516661
-0.506257
-0.494535
-0.482385
-0.470444
-0.459385
-0.449396
-0.441003
-0.43372
-0.42851
-0.423299
-0.420827
-0.419417
-0.417524
-0.415421
-0.412944
-0.410153
-0.407145
-0.404107
-0.401259
-0.398814
-0.396959
-0.395765
-0.395352
-0.39535
-0.396555
-0.578084
-0.576944
-0.569901
-0.559098
-0.545548
-0.53028
-0.51431
-0.49856
-0.483673
-0.470217
-0.458339
-0.448375
-0.439894
-0.433574
-0.427639
-0.424295
-0.422274
-0.419823
-0.417264
-0.414422
-0.411361
-0.408174
-0.40504
-0.40216
-0.399733
-0.397929
-0.396808
-0.39649
-0.39658
-0.397975
-0.625621
-0.618331
-0.605427
-0.589106
-0.570564
-0.550957
-0.53135
-0.512623
-0.495359
-0.479991
-0.466595
-0.455345
-0.445836
-0.438534
-0.431877
-0.427722
-0.425091
-0.42206
-0.419024
-0.415796
-0.412446
-0.409062
-0.405811
-0.402878
-0.400447
-0.398672
-0.397606
-0.397365
-0.397537
-0.399116
-0.668041
-0.654645
-0.636173
-0.614839
-0.59195
-0.568713
-0.546158
-0.525075
-0.505943
-0.489062
-0.474432
-0.462102
-0.451684
-0.443484
-0.436111
-0.431175
-0.427896
-0.42426
-0.420723
-0.417089
-0.413431
-0.409832
-0.406442
-0.403434
-0.400974
-0.399208
-0.398176
-0.397996
-0.398235
-0.399987
-0.704596
-0.685578
-0.662196
-0.636622
-0.610192
-0.584087
-0.559249
-0.536347
-0.515754
-0.497657
-0.481993
-0.468724
-0.457474
-0.448438
-0.440359
-0.434659
-0.430683
-0.426422
-0.422364
-0.418309
-0.414328
-0.410494
-0.406945
-0.403839
-0.40133
-0.399549
-0.398532
-0.398395
-0.398686
-0.400589
-0.735135
-0.711335
-0.683943
-0.655029
-0.625886
-0.597618
-0.571057
-0.546757
-0.525
-0.505889
-0.489323
-0.475205
-0.463178
-0.45335
-0.444586
-0.438136
-0.433419
-0.428524
-0.423933
-0.41945
-0.415134
-0.411051
-0.407325
-0.4041
-0.401519
-0.399704
-0.398685
-0.398574
-0.398903
-0.400927
-0.760071
-0.732526
-0.702103
-0.670727
-0.639609
-0.609759
-0.581903
-0.556505
-0.533781
-0.513783
-0.496394
-0.481486
-0.46872
-0.458136
-0.44872
-0.441539
-0.436054
-0.430529
-0.425406
-0.420493
-0.415839
-0.411498
-0.407579
-0.404217
-0.401544
-0.399678
-0.398643
-0.398547
-0.398904
-0.401005
-0.780227
-0.749989
-0.717441
-0.684355
-0.651849
-0.620845
-0.591989
-0.565685
-0.542114
-0.521305
-0.50314
-0.487478
-0.474003
-0.462698
-0.452666
-0.444785
-0.438526
-0.432391
-0.42675
-0.421419
-0.416429
-0.411824
-0.407701
-0.404185
-0.401404
-0.399472
-0.39841
-0.398324
-0.398706
-0.400839
-0.796617
-0.764609
-0.730675
-0.696447
-0.662967
-0.631093
-0.601421
-0.574324
-0.549971
-0.528391
-0.509477
-0.493088
-0.478928
-0.466938
-0.456332
-0.447789
-0.440776
-0.434066
-0.427935
-0.422205
-0.416888
-0.412018
-0.407682
-0.403999
-0.401095
-0.399085
-0.397991
-0.397914
-0.398332
-0.400455
-0.810185
-0.77712
-0.742329
-0.707343
-0.673153
-0.640578
-0.610194
-0.582366
-0.55727
-0.534945
-0.515304
-0.498213
-0.483398
-0.470761
-0.459624
-0.450473
-0.44275
-0.435515
-0.428932
-0.422832
-0.417205
-0.412074
-0.40752
-0.40366
-0.40062
-0.398522
-0.397394
-0.397336
-0.397813
-0.399903
-0.821727
-0.788085
-0.752759
-0.717234
-0.682472
-0.649281
-0.618234
-0.589705
-0.563888
-0.540841
-0.520497
-0.502734
-0.4873
-0.474065
-0.462445
-0.452754
-0.444398
-0.436702
-0.429722
-0.423291
-0.417376
-0.411993
-0.407219
-0.403173
-0.399987
-0.397793
-0.396632
-0.396607
-0.397184
-0.399255
-0.832766
-0.798777
-0.763009
-0.726971
-0.691624
-0.657778
-0.62602
-0.59674
-0.570155
-0.546346
-0.525268
-0.506815
-0.490756
-0.476937
-0.464848
-0.454663
-0.445755
-0.437656
-0.430323
-0.423585
-0.41739
-0.411746
-0.406731
-0.40247
-0.399109
-0.396796
-0.395595
-0.395628
-0.396387
-0.398577
-0.844474
-0.810174
-0.773882
-0.737231
-0.701195
-0.666593
-0.634026
-0.603908
-0.576479
-0.551839
-0.529967
-0.510777
-0.494053
-0.47964
-0.467062
-0.456385
-0.446965
-0.438474
-0.430801
-0.423756
-0.417266
-0.411332
-0.406035
-0.401514
-0.397934
-0.395468
-0.394212
-0.394325
-0.395357
-0.397945
0.22588
0.22581
0.225808
0.225799
0.225819
0.225851
0.225906
0.225982
0.226084
0.226211
0.226366
0.226547
0.226752
0.22698
0.227228
0.227493
0.227773
0.228067
0.228373
0.228689
0.229014
0.229348
0.22969
0.230039
0.226122
0.226051
0.226049
0.22604
0.226061
0.226096
0.226155
0.226236
0.226346
0.226482
0.226647
0.22684
0.227058
0.227298
0.22756
0.227838
0.228133
0.22844
0.22876
0.22909
0.22943
0.229778
0.230134
0.230498
0.226344
0.226272
0.226269
0.22626
0.226283
0.22632
0.226383
0.226471
0.226588
0.226734
0.22691
0.227115
0.227345
0.227599
0.227874
0.228167
0.228476
0.228798
0.229132
0.229476
0.22983
0.230193
0.230564
0.230942
0.226545
0.226472
0.22647
0.226461
0.226485
0.226524
0.226592
0.226686
0.226811
0.226967
0.227154
0.227371
0.227615
0.227883
0.228172
0.228479
0.228802
0.229138
0.229487
0.229846
0.230215
0.230593
0.230979
0.231372
0.226726
0.226653
0.22665
0.226641
0.226667
0.226709
0.226781
0.226882
0.227015
0.227181
0.22738
0.227609
0.227867
0.228149
0.228452
0.228774
0.229111
0.229463
0.229826
0.2302
0.230584
0.230977
0.231378
0.231787
0.226887
0.226814
0.226811
0.226802
0.226829
0.226874
0.226951
0.227058
0.227201
0.227377
0.227588
0.22783
0.228101
0.228397
0.228715
0.229051
0.229404
0.22977
0.230149
0.230538
0.230937
0.231346
0.231762
0.232187
0.227028
0.226955
0.226952
0.226944
0.226972
0.227021
0.227102
0.227217
0.227367
0.227555
0.227777
0.228032
0.228317
0.228628
0.22896
0.229312
0.229679
0.230061
0.230455
0.23086
0.231274
0.231698
0.232131
0.232571
0.22715
0.227077
0.227074
0.227067
0.227097
0.227148
0.227235
0.227356
0.227516
0.227714
0.227949
0.228218
0.228516
0.228841
0.229189
0.229555
0.229938
0.230335
0.230744
0.231164
0.231595
0.232034
0.232483
0.23294
0.227253
0.227181
0.227178
0.227172
0.227203
0.227258
0.22735
0.227479
0.227648
0.227857
0.228104
0.228386
0.228699
0.229038
0.2294
0.229782
0.23018
0.230592
0.231017
0.231452
0.231898
0.232354
0.232818
0.233291
0.227337
0.227267
0.227265
0.227259
0.227292
0.22735
0.227448
0.227584
0.227762
0.227982
0.228241
0.228537
0.228864
0.229218
0.229595
0.229992
0.230405
0.230832
0.231272
0.231723
0.232185
0.232656
0.233137
0.233627
0.227404
0.227336
0.227333
0.227329
0.227364
0.227426
0.227529
0.227672
0.22786
0.228091
0.228363
0.228671
0.229012
0.229381
0.229773
0.230184
0.230612
0.231055
0.23151
0.231976
0.232454
0.232941
0.233438
0.233944
0.227454
0.227388
0.227386
0.227383
0.22742
0.227486
0.227594
0.227745
0.227942
0.228184
0.228468
0.22879
0.229145
0.229528
0.229934
0.23036
0.230803
0.23126
0.23173
0.232212
0.232705
0.233208
0.233721
0.234244
0.227488
0.227424
0.227422
0.227421
0.22746
0.22753
0.227644
0.227802
0.228009
0.228261
0.228558
0.228893
0.229261
0.229658
0.230079
0.230519
0.230976
0.231448
0.231933
0.23243
0.232938
0.233457
0.233986
0.234525
0.227506
0.227445
0.227444
0.227444
0.227486
0.227559
0.227679
0.227845
0.228061
0.228324
0.228633
0.22898
0.229362
0.229773
0.230207
0.230661
0.231132
0.231618
0.232117
0.232629
0.233152
0.233686
0.234231
0.234787
0.227509
0.227451
0.227451
0.227453
0.227497
0.227575
0.2277
0.227874
0.228099
0.228373
0.228693
0.229053
0.229448
0.229871
0.230319
0.230786
0.231271
0.231771
0.232284
0.232809
0.233347
0.233896
0.234457
0.235029
0.227498
0.227443
0.227444
0.227449
0.227496
0.227577
0.227708
0.227889
0.228124
0.228408
0.22874
0.229112
0.229519
0.229954
0.230414
0.230895
0.231392
0.231905
0.232431
0.23297
0.233522
0.234086
0.234662
0.23525
0.227473
0.227423
0.227425
0.227432
0.227482
0.227568
0.227704
0.227893
0.228136
0.228431
0.228773
0.229156
0.229574
0.230022
0.230494
0.230986
0.231495
0.23202
0.232559
0.233112
0.233677
0.234255
0.234846
0.235449
0.227436
0.22739
0.227393
0.227404
0.227456
0.227546
0.227689
0.227885
0.228136
0.228441
0.228793
0.229187
0.229616
0.230074
0.230557
0.23106
0.231581
0.232117
0.232668
0.233232
0.23381
0.234402
0.235007
0.235626
0.227387
0.227346
0.227351
0.227364
0.22742
0.227515
0.227663
0.227866
0.228125
0.228439
0.2288
0.229204
0.229643
0.230111
0.230604
0.231117
0.231647
0.232194
0.232756
0.233332
0.233922
0.234527
0.235145
0.235778
0.227328
0.227291
0.227298
0.227315
0.227373
0.227473
0.227626
0.227836
0.228104
0.228425
0.228796
0.229208
0.229656
0.230132
0.230634
0.231156
0.231695
0.232252
0.232823