/*--------------------------------*- C++ -*----------------------------------*\
| =========                 |                                                 |
| \\      /  F ield         | OpenFOAM Extend Project: Open source CFD        |
|  \\    /   O peration     | Version:  1.6-ext                               |
|   \\  /    A nd           | Web:      www.extend-project.de                 |
|    \\/     M anipulation  |                                                 |
\*---------------------------------------------------------------------------*/
FoamFile
{
    version     2.0;
    format      ascii;
    class       surfaceScalarField;
    location    "0.5";
    object      phi;
}
// * * * * * * * * * * * * * * * * * * * * * * * * * * * * * * * * * * * * * //

dimensions      [0 3 -1 0 0 0 0];

internalField   nonuniform List<scalar> 
41420
(
-0.000125685
0.000397927
-0.000398587
0.000126344
-0.000124567
0.000379058
-0.000380175
-0.000123024
0.000360521
-0.000362064
-0.000121056
0.00034222
-0.000344189
-0.000118603
0.000324161
-0.000326614
-0.000115518
0.000306135
-0.000309219
-0.000111567
0.000287798
-0.00029175
-0.000106456
0.000268681
-0.000273791
-9.99098e-05
0.000248295
-0.000254841
-9.17659e-05
0.000226283
-0.000234427
-8.20694e-05
0.000202575
-0.000212271
-7.11184e-05
0.00017748
-0.000188431
-5.94347e-05
0.000151674
-0.000163358
-4.76735e-05
0.000126078
-0.000137839
-3.64944e-05
0.000101666
-0.000112845
-2.64526e-05
7.92856e-05
-8.93274e-05
-1.79276e-05
5.95296e-05
-6.80545e-05
-1.11111e-05
4.26976e-05
-4.95141e-05
-6.03072e-06
2.88218e-05
-3.39022e-05
-2.59653e-06
1.77315e-05
-2.11657e-05
-6.49353e-07
9.12797e-06
-1.10752e-05
2.65296e-06
-3.30231e-06
-0.000133347
0.00039711
0.000134164
-0.000132049
0.000377759
-0.000130287
0.000358759
-0.000128028
0.000339962
-0.000125161
0.000321294
-0.000121478
0.000302452
-0.000116696
0.000283016
-0.00011051
0.000262496
-0.000102695
0.000240479
-9.32005e-05
0.000216788
-8.22271e-05
0.000191601
-7.02253e-05
0.000165478
-5.78265e-05
0.000139275
-4.57204e-05
0.000113972
-3.45303e-05
9.0476e-05
-2.47226e-05
6.94778e-05
-1.65706e-05
5.13776e-05
-1.01672e-05
3.62942e-05
-5.46477e-06
2.41194e-05
-2.32625e-06
1.4593e-05
-5.69044e-07
7.37077e-06
2.08392e-06
-0.000148095
0.000395639
0.000149566
-0.000146117
0.00037578
-0.000143623
0.000356265
-0.000140528
0.000336866
-0.000136652
0.000317418
-0.000131722
0.000297521
-0.000125415
0.000276709
-0.000117452
0.000254533
-0.000107705
0.000230732
-9.62858e-05
0.000205369
-8.35811e-05
0.000178896
-7.02007e-05
0.000152097
-5.68638e-05
0.000125938
-4.42627e-05
0.00010137
-3.29513e-05
7.91646e-05
-2.3287e-05
5.98135e-05
-1.54279e-05
4.35185e-05
-9.36768e-06
3.02339e-05
-4.98686e-06
1.97386e-05
-2.10257e-06
1.17087e-05
-5.08207e-07
5.7764e-06
1.57571e-06
-0.000162242
0.000393542
0.00016434
-0.000159586
0.000373125
-0.000156319
0.000352998
-0.000152281
0.000332828
-0.000147218
0.000312355
-0.000140798
0.000291102
-0.000132702
0.000268613
-0.00012273
0.000244561
-0.000110914
0.000218916
-9.75709e-05
0.000192027
-8.32801e-05
0.000164605
-6.87773e-05
0.000137595
-5.48146e-05
0.000111975
-4.20294e-05
8.85853e-05
-3.08647e-05
6.79999e-05
-2.15493e-05
5.04981e-05
-1.41248e-05
3.6094e-05
-8.4959e-06
2.4605e-05
-4.48459e-06
1.57273e-05
-1.87579e-06
9.09988e-06
-4.4941e-07
4.35002e-06
1.1263e-06
-0.000175066
0.000390868
0.00017774
-0.000171742
0.000369801
-0.000167648
0.000348903
-0.000162535
0.000327715
-0.000156076
0.000305896
-0.000147917
0.000282943
-0.000137801
0.000258496
-0.00012568
0.000232441
-0.000111804
0.000205039
-9.67114e-05
0.000176934
-8.11454e-05
0.00014904
-6.59083e-05
0.000122358
-5.17156e-05
9.77828e-05
-3.90956e-05
7.59653e-05
-2.83513e-05
5.72556e-05
-1.95777e-05
4.17245e-05
-1.271e-05
2.92263e-05
-7.58105e-06
1.94761e-05
-3.97185e-06
1.21181e-05
-1.64966e-06
6.77769e-06
-3.92101e-07
3.09246e-06
7.34199e-07
-0.000186489
0.000387648
0.000189709
-0.000182458
0.000365771
-0.000177408
0.000343853
-0.000171002
0.000321309
-0.000162871
0.000297765
-0.0001527
0.000272773
-0.000140374
0.00024617
-0.00012607
0.000218137
-0.000110285
0.000189254
-9.37601e-05
0.000160409
-7.73407e-05
0.00013262
-6.18158e-05
0.000106833
-4.77976e-05
8.37646e-05
-3.56653e-05
6.38329e-05
-2.55709e-05
4.71613e-05
-1.7485e-05
3.36385e-05
-1.12557e-05
2.2997e-05
-6.66427e-06
1.48847e-05
-3.4686e-06
8.92244e-06
-1.43163e-06
4.74072e-06
-3.37783e-07
1.99861e-06
3.96416e-07
-0.000196299
0.000383847
0.0002001
-0.000191441
0.000360913
-0.00018522
0.000337631
-0.000177233
0.000313322
-0.000167128
0.000287661
-0.000154719
0.000260363
-0.000140114
0.000231566
-0.000123763
0.000201786
-0.000106399
0.00017189
-8.89047e-05
0.000142914
-7.21369e-05
0.000115852
-5.67912e-05
9.1487e-05
-4.33249e-05
7.02982e-05
-3.19507e-05
5.24588e-05
-2.26783e-05
3.78888e-05
-1.53747e-05
2.63349e-05
-9.82494e-06
1.74472e-05
-5.78031e-06
1.084e-05
-2.99139e-06
6.13352e-06
-1.22783e-06
2.97716e-06
-2.87727e-07
1.05851e-06
1.08689e-07
-0.000204287
0.000379386
0.000208747
-0.000198406
0.000355032
-0.000190721
0.000329946
-0.000180823
0.000303425
-0.000168473
0.000275311
-0.000153709
0.000245598
-0.000136931
0.000214788
-0.00011886
0.000183715
-0.00010041
0.00015344
-8.25024e-05
0.000125007
-6.59139e-05
9.92638e-05
-5.11804e-05
7.67535e-05
-3.85784e-05
5.76962e-05
-2.81601e-05
4.20405e-05
-1.98154e-05
2.95441e-05
-1.33362e-05
1.98557e-05
-8.46967e-06
1.25807e-05
-4.95629e-06
7.32665e-06
-2.5525e-06
3.72973e-06
-1.04262e-06
1.46728e-06
-2.42775e-07
2.58657e-07
-1.34087e-07
-0.00021009
0.000374045
0.000215431
-0.000202885
0.000347827
-0.000193396
0.000320458
-0.000181301
0.00029133
-0.000166573
0.000260582
-0.00014955
0.000228576
-0.000130938
0.000196176
-0.000111676
0.000164453
-9.27488e-05
0.000134513
-7.50167e-05
0.000107275
-5.90965e-05
8.33436e-05
-4.5331e-05
6.2988e-05
-3.3818e-05
4.61832e-05
-2.44731e-05
3.26956e-05
-1.70981e-05
2.21691e-05
-1.14391e-05
1.41966e-05
-7.22841e-06
8.37004e-06
-4.21142e-06
4.30966e-06
-2.16012e-06
1.67843e-06
-8.78624e-07
1.85792e-07
-2.03344e-07
-4.16623e-07
-3.37431e-07
-0.000213374
0.000367603
0.000219816
-0.000204519
0.000338972
-0.000192918
0.000308857
-0.000178452
0.000276864
-0.000161408
0.000243537
-0.000142456
0.000209624
-0.000122556
0.000176276
-0.000102755
0.000144651
-8.3995e-05
0.000115753
-6.69785e-05
9.02581e-05
-5.21205e-05
6.84856e-05
-3.95694e-05
5.04369e-05
-2.92702e-05
3.5884e-05
-2.10369e-05
2.44624e-05
-1.46163e-05
1.57485e-05
-9.73484e-06
9.31515e-06
-6.12851e-06
4.76371e-06
-3.55889e-06
1.74005e-06
-1.8197e-06
-6.07636e-08
-7.37561e-07
-8.96346e-07
-1.6972e-07
-9.84464e-07
-5.07151e-07
-0.000213601
0.000359626
0.000221578
-0.000202759
0.00032813
-0.000188861
0.000294958
-0.000172093
0.000260096
-0.000153084
0.000224529
-0.000132795
0.000189335
-0.000112326
0.000155808
-9.27036e-05
0.000125029
-7.47193e-05
9.77687e-05
-5.88663e-05
7.44052e-05
-4.53506e-05
5.49698e-05
-3.41526e-05
3.92389e-05
-2.51037e-05
2.68351e-05
-1.79549e-05
1.73136e-05
-1.24293e-05
1.02228e-05
-8.2552e-06
5.1411e-06
-5.18559e-06
1.69409e-06
-3.00552e-06
-4.40023e-07
-1.53365e-06
-1.53263e-06
-6.19934e-07
-1.81007e-06
-1.4185e-07
-1.46255e-06
-6.49001e-07
-0.000210685
0.000349981
0.00022033
-0.000197692
0.000315137
-0.000181521
0.000278787
-0.000162748
0.000241323
-0.000142324
0.000204105
-0.000121401
0.000168413
-0.000101087
0.000135494
-8.22713e-05
0.000106213
-6.553e-05
8.10275e-05
-5.11329e-05
6.0008e-05
-3.91003e-05
4.29373e-05
-2.92845e-05
2.94231e-05
-2.14438e-05
1.89945e-05
-1.53004e-05
1.11702e-05
-1.05776e-05
5.50001e-06
-7.0214e-06
1.58494e-06
-4.41015e-06
-9.17159e-07
-2.55625e-06
-2.29391e-06
-1.30426e-06
-2.78462e-06
-5.26759e-07
-2.58756e-06
-1.20109e-07
-1.8692e-06
-7.6911e-07
-0.000204082
0.000338149
0.000215914
-0.000188928
0.000299983
-0.000170807
0.000260667
-0.000150646
0.000221161
-0.000129602
0.00018306
-0.000108868
0.000147679
-8.94292e-05
0.000116055
-7.19603e-05
8.87436e-05
-5.68046e-05
6.58718e-05
-4.40324e-05
4.72358e-05
-3.35232e-05
3.2428e-05
-2.50468e-05
2.09467e-05
-1.83271e-05
1.22748e-05
-1.30846e-05
5.92768e-06
-9.0607e-06
1.47609e-06
-6.0288e-06
-1.44695e-06
-3.79727e-06
-3.1487e-06
-2.20736e-06
-3.88382e-06
-1.12916e-06
-3.86282e-06
-4.56763e-07
-3.25996e-06
-1.03942e-07
-2.22202e-06
-8.73052e-07
-0.000194423
0.000324642
0.00020793
-0.000177449
0.000283008
-0.000157885
0.000241103
-0.000137041
0.000200317
-0.000116124
0.000162143
-9.6253e-05
0.000127808
-7.81993e-05
9.80015e-05
-6.23946e-05
7.29389e-05
-4.89668e-05
5.2444e-05
-3.78295e-05
3.60985e-05
-2.87688e-05
2.33673e-05
-2.15134e-05
1.36913e-05
-1.57823e-05
6.54373e-06
-1.13129e-05
1.45824e-06
-7.87417e-06
-1.96264e-06
-5.27094e-06
-4.05019e-06
-3.34217e-06
-5.07746e-06
-1.95683e-06
-5.26916e-06
-1.00876e-06
-4.8109e-06
-4.11634e-07
-3.85708e-06
-9.48306e-08
-2.53882e-06
-9.67883e-07
-0.0001813
0.000308971
0.000196971
-0.000163056
0.000264765
-0.00014288
0.000220927
-0.000122233
0.000179671
-0.000102287
0.000142197
-8.39359e-05
0.000109456
-6.76946e-05
8.17601e-05
-5.3761e-05
5.90053e-05
-4.20979e-05
4.07809e-05
-3.25226e-05
2.65232e-05
-2.47809e-05
1.56257e-05
-1.85988e-05
7.50914e-06
-1.37138e-05
1.65881e-06
-9.89239e-06
-2.36321e-06
-6.93545e-06
-4.91958e-06
-4.679e-06
-6.30665e-06
-2.99044e-06
-6.76602e-06
-1.76377e-06
-6.49583e-06
-9.14196e-07
-5.66047e-06
-3.73123e-07
-4.39816e-06
-8.42383e-08
-2.82771e-06
-1.05212e-06
-0.000349762
0.000253392
0.000405341
-0.000294425
0.000209427
-0.00024192
0.000168423
-0.00019425
0.000132001
-0.000152583
0.00010053
-0.000117375
7.42486e-05
-8.84696e-05
5.28547e-05
-6.53231e-05
3.58588e-05
-4.71903e-05
2.26481e-05
-3.32694e-05
1.26024e-05
-2.27922e-05
5.14838e-06
-1.50713e-05
-2.1172e-07
-9.51873e-06
-3.89376e-06
-5.64514e-06
-6.2368e-06
-3.05047e-06
-7.51424e-06
-1.41073e-06
-7.94639e-06
-4.64382e-07
-7.71236e-06
-2.67735e-10
-6.95994e-06
1.52507e-07
-5.81325e-06
1.3256e-07
-4.37821e-06
5.19204e-08
-2.74707e-06
-1.0002e-06
-0.00029201
0.000195108
0.000350295
-0.00023793
0.000155347
-0.000189676
0.000120169
-0.000148116
9.0441e-05
-0.000113392
6.58062e-05
-8.51382e-05
4.59945e-05
-6.26692e-05
3.03857e-05
-4.51594e-05
1.8349e-05
-3.1768e-05
9.25671e-06
-2.17148e-05
2.54909e-06
-1.4316e-05
-2.25038e-06
-8.99518e-06
-5.53255e-06
-5.27795e-06
-7.61099e-06
-2.78017e-06
-8.73458e-06
-1.19343e-06
-9.10098e-06
-2.71019e-07
-8.8688e-06
1.84358e-07
-8.16774e-06
3.3069e-07
-7.10627e-06
2.94575e-07
-5.77713e-06
1.77209e-07
-4.26084e-06
5.85583e-08
-2.62842e-06
-9.41642e-07
-0.000229816
0.00014022
0.000284704
-0.000181614
0.000107144
-0.000140747
7.93026e-05
-0.000106992
5.66855e-05
-7.97974e-05
3.86118e-05
-5.83369e-05
2.4534e-05
-4.17218e-05
1.37707e-05
-2.90842e-05
5.71137e-06
-1.96431e-05
-1.84416e-07
-1.27271e-05
-4.3669e-06
-7.77771e-06
-7.19978e-06
-4.33993e-06
-8.97033e-06
-2.04812e-06
-9.90281e-06
-6.1063e-07
-1.01721e-05
2.04341e-07
-9.91595e-06
5.80895e-07
-9.24535e-06
6.65256e-07
-8.2521e-06
5.73465e-07
-7.01448e-06
3.9725e-07
-5.60092e-06
2.08531e-07
-4.07212e-06
6.25166e-08
-2.4824e-06
-8.79126e-07
-0.000170131
9.30216e-05
0.000217329
-0.000130476
6.74898e-05
-9.82048e-05
4.7031e-05
-7.24291e-05
3.09097e-05
-5.22811e-05
1.84638e-05
-3.68027e-05
9.05559e-06
-2.51218e-05
2.08983e-06
-1.64664e-05
-2.9441e-06
-1.01852e-05
-6.46559e-06
-5.74275e-06
-8.80934e-06
-2.70661e-06
-1.02359e-05
-7.31561e-07
-1.09454e-05
4.56226e-07
-1.10906e-05
1.07335e-06
-1.07892e-05
1.29102e-06
-1.01336e-05
1.24456e-06
-9.1989e-06
1.04076e-06
-8.0483e-06
7.63446e-07
-6.73717e-06
4.77647e-07
-5.31512e-06
2.32844e-07
-3.82732e-06
6.53313e-08
-2.31489e-06
-8.13794e-07
-0.000117246
5.54753e-05
0.000154792
-8.68835e-05
3.71276e-05
-6.29638e-05
2.31113e-05
-4.4418e-05
1.23639e-05
-3.03222e-05
4.36795e-06
-1.97963e-05
-1.47033e-06
-1.20954e-05
-5.611e-06
-6.5962e-06
-8.44333e-06
-2.7917e-06
-1.02701e-05
-2.75492e-07
-1.13256e-05
1.27506e-06
-1.17865e-05
2.11468e-06
-1.1785e-05
2.44402e-06
-1.14199e-05
2.42112e-06
-1.07663e-05
2.17042e-06
-9.88292e-06
1.78978e-06
-8.81826e-06
1.35585e-06
-7.61437e-06
9.27887e-07
-6.3092e-06
5.50764e-07
-4.938e-06
2.57134e-07
-3.53369e-06
6.91881e-08
-2.12694e-06
-7.44606e-07
-7.30547e-05
2.76578e-05
0.000100872
-5.13432e-05
1.54161e-05
-3.47305e-05
6.49867e-06
-2.22513e-05
-1.15288e-07
-1.30778e-05
-4.80556e-06
-6.49613e-06
-8.05199e-06
-1.92103e-06
-1.01861e-05
1.12054e-06
-1.14849e-05
3.00527e-06
-1.21548e-05
4.03064e-06
-1.23509e-05
4.43047e-06
-1.21863e-05
4.38827e-06
-1.17428e-05
4.048e-06
-1.10797e-05
3.52276e-06
-1.02411e-05
2.90131e-06
-9.26147e-06
2.25312e-06
-8.17007e-06
1.63183e-06
-6.99308e-06
1.07822e-06
-5.75559e-06
6.2192e-07
-4.4817e-06
2.83312e-07
-3.19508e-06
7.43964e-08
-1.91803e-06
-6.7021e-07
-3.7691e-05
8.4504e-06
5.68984e-05
-2.328e-05
1.00515e-06
-1.26476e-05
-4.13374e-06
-5.01534e-06
-7.74759e-06
2.87555e-07
-1.01085e-05
3.80136e-06
-1.15658e-05
5.96152e-06
-1.23463e-05
7.11169e-06
-1.26351e-05
7.5217e-06
-1.25648e-05
7.40221e-06
-1.22314e-05
6.91753e-06
-1.17016e-05
6.19586e-06
-1.10211e-05
5.33758e-06
-1.02214e-05
4.42125e-06
-9.32472e-06
3.50853e-06
-8.34875e-06
2.64718e-06
-7.30872e-06
1.87386e-06
-6.21977e-06
1.21534e-06
-5.09707e-06
6.90457e-07
-3.95681e-06
3.10484e-07
-2.81511e-06
8.05674e-08
-1.68811e-06
-5.89643e-07
-1.02796e-05
-3.66675e-06
2.23968e-05
-1.69734e-06
-7.57712e-06
4.22748e-06
-1.00586e-05
8.09597e-06
-1.16161e-05
1.04187e-05
-1.24312e-05
1.15871e-05
-1.27342e-05
1.19111e-05
-1.26702e-05
1.16296e-05
-1.23536e-05
1.09279e-05
-1.1863e-05
9.94826e-06
-1.12518e-05
8.80102e-06
-1.05544e-05
7.57159e-06
-9.7917e-06
6.3265e-06
-8.9763e-06
5.11794e-06
-8.11617e-06
3.98649e-06
-7.2173e-06
2.96376e-06
-6.28599e-06
2.07325e-06
-5.32926e-06
1.33214e-06
-4.35596e-06
7.51103e-07
-3.37577e-06
3.35849e-07
-2.39986e-06
8.67525e-08
-1.43901e-06
-5.0289e-07
1.02195e-05
-1.01507e-05
-3.73555e-06
1.42841e-05
-1.16418e-05
1.66032e-05
-1.23777e-05
1.76231e-05
-1.2636e-05
1.77114e-05
-1.25194e-05
1.71385e-05
-1.21614e-05
1.61126e-05
-1.16443e-05
1.47899e-05
-1.10309e-05
1.32885e-05
-1.03617e-05
1.16977e-05
-9.66111e-06
1.00857e-05
-8.94236e-06
8.50473e-06
-8.21071e-06
6.99547e-06
-7.46704e-06
5.58965e-06
-6.71034e-06
4.31221e-06
-5.93986e-06
3.1821e-06
-5.15588e-06
2.21373e-06
-4.36089e-06
1.41663e-06
-3.55887e-06
7.96764e-07
-2.7559e-06
3.55762e-07
-1.95886e-06
9.19506e-08
-1.1752e-06
-4.10939e-07
2.46106e-05
-1.22521e-05
-2.25093e-05
2.52554e-05
-1.22865e-05
2.49029e-05
-1.20252e-05
2.38558e-05
-1.15889e-05
2.23546e-05
-1.10182e-05
2.05692e-05
-1.0376e-05
1.86249e-05
-9.69995e-06
1.6612e-05
-9.01798e-06
1.45961e-05
-8.34582e-06
1.26256e-05
-7.69055e-06
1.07361e-05
-7.05289e-06
8.95494e-06
-6.42956e-06
7.30319e-06
-5.81529e-06
5.79752e-06
-5.20467e-06
4.45091e-06
-4.59325e-06
3.27361e-06
-3.97858e-06
2.2728e-06
-3.36007e-06
1.4535e-06
-2.73957e-06
8.17824e-07
-2.12023e-06
3.65878e-07
-1.50691e-06
9.49018e-08
-9.04227e-07
-3.16038e-07
3.32161e-05
-1.11362e-05
-3.43319e-05
3.14443e-05
-1.05147e-05
2.9277e-05
-9.85789e-06
2.68825e-05
-9.19433e-06
2.439e-05
-8.52575e-06
2.18857e-05
-7.87164e-06
1.94288e-05
-7.24314e-06
1.7059e-05
-6.64817e-06
1.48026e-05
-6.08935e-06
1.26772e-05
-5.5652e-06
1.06954e-05
-5.07109e-06
8.86636e-06
-4.6005e-06
7.19736e-06
-4.14629e-06
5.69437e-06
-3.70168e-06
4.36239e-06
-3.26128e-06
3.20518e-06
-2.82137e-06
2.2256e-06
-2.38049e-06
1.42499e-06
-1.93895e-06
8.03795e-07
-1.49904e-06
3.60916e-07
-1.06403e-06
9.41704e-08
-6.37481e-07
-2.21867e-07
3.5997e-05
-8.04581e-06
-3.90874e-05
3.28422e-05
-7.35998e-06
2.97204e-05
-6.73604e-06
2.66885e-05
-6.1625e-06
2.37892e-05
-5.62646e-06
2.10462e-05
-5.12857e-06
1.84719e-05
-4.66882e-06
1.60709e-05
-4.24717e-06
1.38433e-05
-3.86179e-06
1.17871e-05
-3.50896e-06
9.89948e-06
-3.18352e-06
8.17839e-06
-2.87941e-06
6.6224e-06
-2.5903e-06
5.23105e-06
-2.31033e-06
4.00433e-06
-2.03456e-06
2.94251e-06
-1.75954e-06
2.04545e-06
-1.48344e-06
1.31276e-06
-1.20626e-06
7.43336e-07
-9.29614e-07
3.35847e-07
-6.56542e-07
8.85357e-08
-3.9017e-07
-1.33332e-07
3.2878e-05
-4.33086e-06
-3.6593e-05
2.94218e-05
-3.90372e-06
2.62164e-05
-3.53065e-06
2.32503e-05
-3.19647e-06
2.05153e-05
-2.89147e-06
1.80003e-05
-2.61354e-06
1.56928e-05
-2.36135e-06
1.35796e-05
-2.13393e-06
1.16474e-05
-1.92964e-06
9.88443e-06
-1.74594e-06
8.28048e-06
-1.57957e-06
6.82782e-06
-1.42674e-06
5.521e-06
-1.28348e-06
4.35659e-06
-1.14592e-06
3.33269e-06
-1.01066e-06
2.44819e-06
-8.75051e-07
1.70226e-06
-7.375e-07
1.09366e-06
-5.9767e-07
6.2079e-07
-4.56741e-07
2.81658e-07
-3.1741e-07
7.47007e-08
-1.83213e-07
-5.8631e-08
2.40352e-05
-1.29443e-06
-2.70716e-05
2.12996e-05
-1.16806e-06
1.8824e-05
-1.05506e-06
1.65792e-05
-9.51709e-07
1.45439e-05
-8.56193e-07
1.26993e-05
-7.68917e-07
1.1028e-05
-6.90033e-07
9.51367e-06
-6.19602e-07
8.14131e-06
-5.5727e-07
6.89768e-06
-5.02317e-07
5.77182e-06
-4.53702e-07
4.75521e-06
-4.10139e-07
3.84192e-06
-3.70189e-07
3.02834e-06
-3.32342e-07
2.31278e-06
-2.9511e-07
1.69487e-06
-2.5714e-07
1.17473e-06
-2.17356e-07
7.52221e-07
-1.75162e-07
4.26258e-07
-1.30778e-07
1.94403e-07
-8.55561e-08
5.30383e-08
-4.18484e-08
-5.5927e-09
9.77614e-06
-1.10414e-05
8.63247e-06
7.59789e-06
6.6635e-06
5.82202e-06
5.06569e-06
4.38651e-06
3.77633e-06
3.22729e-06
2.73223e-06
2.28496e-06
1.88057e-06
1.51552e-06
1.1878e-06
8.9685e-07
6.43429e-07
4.29368e-07
2.57075e-07
1.28719e-07
4.50955e-08
4.63834e-09
0.000298308
2.63361e-05
4.07619e-07
-0.000325052
0.00027305
2.48064e-05
4.51489e-07
0.000249187
2.33714e-05
4.91895e-07
0.000226638
2.20205e-05
5.28348e-07
0.000205328
2.07498e-05
5.60733e-07
0.000185183
1.95559e-05
5.89044e-07
0.000166135
1.84345e-05
6.13335e-07
0.00014812
1.73815e-05
6.33724e-07
0.000131077
1.63926e-05
6.50364e-07
0.00011495
1.54634e-05
6.63409e-07
9.9688e-05
1.45888e-05
6.72918e-07
8.52486e-05
1.37607e-05
6.78638e-07
7.16045e-05
1.29644e-05
6.79666e-07
5.87564e-05
1.2174e-05
6.74137e-07
4.6748e-05
1.13493e-05
6.59149e-07
3.56788e-05
1.04381e-05
6.31099e-07
2.5708e-05
9.38434e-06
5.86407e-07
1.70453e-05
8.14037e-06
5.22374e-07
9.92822e-06
6.67917e-06
4.37905e-07
4.59184e-06
5.0025e-06
3.33874e-07
1.23614e-06
3.14262e-06
2.13081e-07
1.15643e-06
7.97125e-08
0.00029791
5.30024e-05
-0.000324576
0.000272722
4.99947e-05
0.000248919
4.71746e-05
0.000226421
4.45179e-05
0.000205154
4.20167e-05
0.000185046
3.96641e-05
0.000166029
3.74518e-05
0.000148039
3.53714e-05
0.000131016
3.34149e-05
0.000114906
3.15737e-05
9.96574e-05
2.98376e-05
8.52277e-05
2.81904e-05
7.15905e-05
2.66017e-05
5.87468e-05
2.50177e-05
4.6741e-05
2.33551e-05
3.56733e-05
2.15059e-05
2.57034e-05
1.93542e-05
1.70416e-05
1.68022e-05
9.92569e-06
1.37951e-05
4.5906e-06
1.03376e-05
1.23585e-06
6.49737e-06
2.39228e-06
0.000296667
7.94657e-05
-0.00032313
0.000271654
7.50074e-05
0.000248001
7.08273e-05
0.000225635
6.68846e-05
0.000204482
6.31694e-05
0.000184474
5.96722e-05
0.000165544
5.63812e-05
0.000147631
5.32845e-05
0.000130676
5.03702e-05
0.000114624
4.76259e-05
9.94251e-05
4.50364e-05
8.50381e-05
4.25774e-05
7.14368e-05
4.0203e-05
5.86231e-05
3.78313e-05
4.66422e-05
3.5336e-05
3.55955e-05
3.25526e-05
2.56439e-05
2.93058e-05
1.69985e-05
2.54475e-05
9.89765e-06
2.08959e-05
4.57572e-06
1.56595e-05
1.23099e-06
9.84211e-06
3.62327e-06
0.000294933
0.000105618
-0.000321086
0.000270191
9.97498e-05
0.000246768
9.42502e-05
0.000224598
8.90545e-05
0.000203614
8.41535e-05
0.00018375
7.9536e-05
0.000164944
7.5187e-05
0.000147137
7.10918e-05
0.000130272
6.72352e-05
0.000114296
6.36015e-05
9.91619e-05
6.01708e-05
8.48283e-05
5.6911e-05
7.12707e-05
5.37606e-05
5.8492e-05
5.061e-05
4.6539e-05
4.72889e-05
3.55146e-05
4.35771e-05
2.55817e-05
3.92386e-05
1.6953e-05
3.40762e-05
9.86779e-06
2.79812e-05
4.55991e-06
2.09674e-05
1.22592e-06
1.31761e-05
4.84919e-06
0.00029289
0.000131368
-0.00031864
0.000268496
0.000124145
0.000245366
0.000117379
0.000223447
0.000110974
0.000202675
0.000104925
0.000182992
9.92192e-05
0.000164339
9.38397e-05
0.000146661
8.87698e-05
0.000129904
8.39919e-05
0.000114019
7.94872e-05
9.89577e-05
7.52318e-05
8.46827e-05
7.1186e-05
7.117e-05
6.72734e-05
5.8424e-05
6.3356e-05
4.64929e-05
5.92201e-05
3.5482e-05
5.4588e-05
2.55569e-05
4.91637e-05
1.69336e-05
4.26996e-05
9.85318e-06
3.50616e-05
4.55094e-06
2.62696e-05
1.22243e-06
1.65046e-05
6.07163e-06
0.000290937
0.000156656
-0.000316225
0.000266936
0.000148146
0.000244135
0.00014018
0.000222491
0.000132618
0.00020195
0.000125466
0.000182459
0.00011871
0.000163965
0.000112334
0.000146417
0.000106318
0.000129764
0.000100644
0.000113961
9.52907e-05
9.89624e-05
9.02304e-05
8.47318e-05
8.54166e-05
7.1247e-05
8.07581e-05
5.85138e-05
7.60892e-05
4.65819e-05
7.1152e-05
3.55593e-05
6.56106e-05
2.56157e-05
5.91074e-05
1.69715e-05
5.13437e-05
9.87294e-06
4.21602e-05
4.55784e-06
3.15847e-05
1.22307e-06
1.98394e-05
7.2947e-06
0.000289287
0.000181442
-0.000314073
0.000265709
0.000171724
0.000243255
0.000162633
0.000221896
0.000153977
0.000201588
0.000145774
0.000182286
0.000138013
0.000163943
0.000130676
0.000146514
0.000123747
0.000129953
0.000117206
0.000114215
0.000111028
9.92602e-05
0.000105185
8.50527e-05
9.96241e-05
7.15718e-05
9.42391e-05
5.88236e-05
8.88374e-05
4.68599e-05
8.31156e-05
3.57912e-05
7.66793e-05
2.5793e-05
6.91056e-05
1.70922e-05
6.00445e-05
9.94288e-06
4.93095e-05
4.5888e-06
3.69388e-05
1.23032e-06
2.31979e-05
8.52501e-06
0.000288119
0.000205698
-0.000312375
0.000264981
0.000194862
0.000242882
0.000184732
0.00022181
0.000175049
0.000201731
0.000165853
0.000182607
0.000157136
0.0001644
0.000148884
0.000147069
0.000141078
0.000130574
0.000133701
0.000114874
0.000126728
9.99322e-05
0.000120128
8.57146e-05
0.000113842
7.22014e-05
0.000107752
5.94002e-05
0.000101639
4.73629e-05
9.5153e-05
3.62048e-05
8.78374e-05
2.61065e-05
7.92038e-05
1.73064e-05
6.88446e-05
1.00676e-05
5.65483e-05
4.64466e-06
4.23617e-05
1.2436e-06
2.65989e-05
9.76861e-06
0.000287565
0.000229408
-0.000311275
0.000264867
0.00021756
0.000243114
0.000206486
0.000222311
0.000195852
0.000202437
0.000185726
0.000183467
0.000176106
0.00016537
0.000166981
0.000148111
0.000158338
0.000131654
0.000150157
0.000115964
0.000142418
0.000101005
0.000135086
8.67457e-05
0.000128101
7.31667e-05
0.000121331
6.02742e-05
0.000114531
4.81221e-05
0.000107305
3.68274e-05
9.91321e-05
2.65811e-05
8.94501e-05
1.76321e-05
7.77937e-05
1.02608e-05
6.39196e-05
4.73345e-06
4.78891e-05
1.2666e-06
3.00658e-05
1.10352e-05
0.000287663
0.000252558
-0.000310813
0.000265411
0.000239811
0.000244005
0.000227892
0.000223466
0.000216391
0.000203784
0.000205408
0.000184945
0.000194946
0.000166926
0.000185
0.000149701
0.000175562
0.000133243
0.000166616
0.000117519
0.000158142
0.000102497
0.000150108
8.81492e-05
0.000142449
7.44557e-05
0.000135025
6.14235e-05
0.000127563
4.91056e-05
0.000119623
3.76252e-05
0.000110613
2.71812e-05
9.98941e-05
1.80398e-05
8.6935e-05
1.04976e-05
7.14618e-05
4.83939e-06
5.35473e-05
1.29178e-06
3.36134e-05
1.2327e-05
0.000288401
0.000275139
-0.000310982
0.000266574
0.000261638
0.000245482
0.000248983
0.000225173
0.0002367
0.000205653
0.000224928
0.000186919
0.000213681
0.000168956
0.000202963
0.000151745
0.000192772
0.000135263
0.000183098
0.000119482
0.000173922
0.000104375
0.000165215
8.99142e-05
0.00015691
7.60795e-05
0.00014886
6.28753e-05
0.000140768
5.03547e-05
0.000132144
3.86428e-05
0.000122324
2.79517e-05
0.000110585
1.85658e-05
9.63209e-05
1.08072e-05
7.92203e-05
4.9811e-06
5.93735e-05
1.32875e-06
3.72657e-05
1.36557e-05
0.000289802
0.00029712
-0.000311782
0.000268425
0.000283015
0.000247663
0.000269745
0.000227574
0.000256789
0.000208184
0.000244318
0.000189509
0.000232356
0.000171549
0.000220923
0.000154294
0.000210027
0.00013773
0.000199663
0.000121833
0.000189819
0.000106581
0.000180467
9.19479e-05
0.000171544
7.79136e-05
0.000162894
6.44822e-05
0.000154199
5.17066e-05
0.000144919
3.97188e-05
0.000134312
2.87439e-05
0.00012156
1.90892e-05
0.000105976
1.11006e-05
8.7209e-05
5.10505e-06
6.5369e-05
1.35498e-06
4.10158e-05
1.50107e-05
0.000291673
0.00031851
-0.000313063
0.000270674
0.000304013
0.000250198
0.000290222
0.000230308
0.000276678
0.000211044
0.000263582
0.000192429
0.000250971
0.000174474
0.000238879
0.000157176
0.000227324
0.000140527
0.000216312
0.000124512
0.000205834
0.000109109
0.000195869
9.42964e-05
0.000186357
8.00527e-05
0.000177138
6.63781e-05
0.000167874
5.33229e-05
0.000157974
4.10218e-05
0.000146613
2.97147e-05
0.000132867
1.97357e-05
0.000115955
1.14661e-05
9.54785e-05
5.26301e-06
7.15721e-05
1.3929e-06
4.48859e-05
1.64036e-05
0.000293912
0.000339093
-0.000314496
0.000273393
0.000324533
0.000253219
0.000310396
0.000233496
0.000296401
0.000214302
0.000282777
0.000195681
0.000269592
0.000177661
0.0002569
0.000160251
0.000244734
0.000143453
0.00023311
0.000127257
0.00022203
0.000111646
0.00021148
9.65989e-05
0.000201403
8.20959e-05
0.000191641
6.8135e-05
0.000181834
5.47656e-05
0.000171344
4.2129e-05
0.00015925
3.04845e-05
0.000144512
2.01985e-05
0.000126241
1.16866e-05
0.00010399
5.32908e-06
7.79296e-05
1.39405e-06
4.88209e-05
1.77977e-05
0.000296454
0.00035893
-0.000316291
0.000276274
0.000344713
0.000256405
0.000330264
0.000236887
0.000315919
0.000217808
0.000301856
0.000199226
0.000288174
0.000181177
0.000274948
0.000163682
0.000262228
0.00014675
0.000250042
0.000130378
0.000238403
0.000114553
0.000227305
9.92573e-05
0.000216699
8.44674e-05
0.00020643
7.01789e-05
0.000196123
5.64416e-05
0.000185081
4.34069e-05
0.000172285
3.13583e-05
0.00015656
2.06984e-05
0.000136901
1.1885e-05
0.000112804
5.33578e-06
8.44788e-05
1.34004e-06
5.28167e-05
1.91377e-05
1.23332e-05
0.000361408
-1.48106e-05
9.79155e-06
0.000347255
7.35917e-06
0.000332697
4.9461e-06
0.000318332
2.56263e-06
0.000304239
2.04113e-07
0.000290532
-2.12829e-06
0.000277281
-4.42953e-06
0.00026453
-6.69243e-06
0.000252305
-8.90534e-06
0.000240616
-1.10425e-05
0.000229442
-1.30409e-05
0.000218698
-1.47668e-05
0.000208156
-1.59939e-05
0.00019735
-1.64272e-05
0.000185514
-1.57888e-05
0.000171646
-1.39466e-05
0.000154718
-1.10254e-05
0.000133979
-7.44824e-06
0.000109227
-3.88682e-06
8.09174e-05
-1.14365e-06
5.00735e-05
1.79941e-05
7.17764e-06
0.000364193
-9.96295e-06
4.52579e-06
0.000349906
1.91313e-06
0.000335309
-6.42954e-07
0.000320888
-3.12617e-06
0.000306723
-5.53639e-06
0.000292942
-7.86838e-06
0.000279613
-1.0117e-05
0.000266778
-1.22749e-05
0.000254463
-1.43278e-05
0.000242669
-1.62397e-05
0.000231354
-1.79271e-05
0.000220385
-1.92299e-05
0.000209459
-1.99048e-05
0.000198025
-1.96673e-05
0.000185277
-1.82882e-05
0.000170267
-1.57107e-05
0.000152141
-1.21402e-05
0.000130409
-8.0597e-06
0.000105146
-4.16504e-06
7.70228e-05
-1.23674e-06
4.71452e-05
1.67573e-05
1.96741e-06
0.000367197
-4.97185e-06
-7.96967e-07
0.000352671
-3.51364e-06
0.000338026
-6.12336e-06
0.000323498
-8.62408e-06
0.000309223
-1.10125e-05
0.000295331
-1.32839e-05
0.000281884
-1.54339e-05
0.000268928
-1.74545e-05
0.000256484
-1.93256e-05
0.00024454
-2.09966e-05
0.000233025
-2.23589e-05
0.000221748
-2.32254e-05
0.000210326
-2.33389e-05
0.000198139
-2.24335e-05
0.000184371
-2.03331e-05
0.000168167
-1.70616e-05
0.000148869
-1.29047e-05
0.000126252
-8.40414e-06
0.000100646
-4.26902e-06
7.28876e-05
-1.24746e-06
4.41236e-05
1.55099e-05
-3.24669e-06
0.000370318
1.25727e-07
-6.11162e-06
0.000355536
-8.88404e-06
0.000340798
-1.15077e-05
0.000326121
-1.39892e-05
0.000311705
-1.63229e-05
0.000297665
-1.85056e-05
0.000284067
-2.05336e-05
0.000270956
-2.23964e-05
0.000258346
-2.40649e-05
0.000246208
-2.54687e-05
0.000234429
-2.64722e-05
0.000222751
-2.68624e-05
0.000210716
-2.63794e-05
0.000197656
-2.47855e-05
0.000182777
-2.1973e-05
0.000165354
-1.80487e-05
0.000144945
-1.33802e-05
0.000121583
-8.55156e-06
9.58169e-05
-4.26904e-06
6.86051e-05
-1.22578e-06
4.10804e-05
1.42841e-05
-8.5698e-06
0.000373496
5.39202e-06
-1.14939e-05
0.00035846
-1.42716e-05
0.000343576
-1.68678e-05
0.000328718
-1.92919e-05
0.000314129
-2.15385e-05
0.000299911
-2.36065e-05
0.000286135
-2.5491e-05
0.000272841
-2.71768e-05
0.000260032
-2.86205e-05
0.000247652
-2.97288e-05
0.000235537
-3.03362e-05
0.000223358
-3.02123e-05
0.000210592
-2.91007e-05
0.000196544
-2.68101e-05
0.000180487
-2.33028e-05
0.000161847
-1.87774e-05
0.00014042
-1.36661e-05
0.000116472
-8.58691e-06
9.07377e-05
-4.21917e-06
6.42374e-05
-1.19341e-06
3.80546e-05
1.30907e-05
-1.41396e-05
0.00037669
1.09457e-05
-1.70783e-05
0.000361399
-1.982e-05
0.000346318
-2.23529e-05
0.00033125
-2.46858e-05
0.000316462
-2.6816e-05
0.000302041
-2.87434e-05
0.000288062
-3.04613e-05
0.000274559
-3.19451e-05
0.000261516
-3.3134e-05
0.000248841
-3.3906e-05
0.000236309
-3.40702e-05
0.000223523
-3.33806e-05
0.000209902
-3.16039e-05
0.000194767
-2.85975e-05
0.00017748
-2.44124e-05
0.000157662
-1.9323e-05
0.00013533
-1.38286e-05
0.000110978
-8.55212e-06
8.54613e-05
-4.14274e-06
5.9828e-05
-1.15551e-06
3.50674e-05
1.19352e-05
-2.01066e-05
0.000379856
1.69407e-05
-2.30094e-05
0.000364301
-2.56736e-05
0.000348982
-2.81055e-05
0.000333682
-3.03133e-05
0.00031867
-3.22972e-05
0.000304025
-3.40573e-05
0.000289822
-3.55814e-05
0.000276083
-3.68327e-05
0.000262767
-3.77256e-05
0.000249734
-3.81102e-05
0.000236693
-3.7768e-05
0.000223181
-3.64546e-05
0.000208589
-3.39619e-05
0.000192274
-3.02218e-05
0.00017374
-2.53615e-05
0.000152802
-1.97453e-05
0.000129714
-1.39072e-05
0.00010514
-8.47779e-06
8.00319e-05
-4.05184e-06
5.54021e-05
-1.11634e-06
3.21319e-05
1.08188e-05
-2.66818e-05
0.000382953
2.35845e-05
-2.95007e-05
0.00036712
-3.20466e-05
0.000351528
-3.43385e-05
0.000335974
-3.63846e-05
0.000320716
-3.81883e-05
0.000305829
-3.97473e-05
0.000291381
-4.10416e-05
0.000277377
-4.20149e-05
0.000263741
-4.25548e-05
0.000250274
-4.24783e-05
0.000236617
-4.15512e-05
0.000222253
-3.95328e-05
0.000206571
-3.62671e-05
0.000189009
-3.17544e-05
0.000169228
-2.62208e-05
0.000147268
-2.0091e-05
0.000123584
-1.39433e-05
9.89919e-05
-8.38279e-06
7.44714e-05
-3.95793e-06
5.09772e-05
-1.07754e-06
2.92515e-05
9.74128e-06
-3.40611e-05
0.000385933
3.10815e-05
-3.67434e-05
0.000369803
-3.91256e-05
0.00035391
-4.12341e-05
0.000338083
-4.30784e-05
0.00032256
-4.4663e-05
0.000307414
-4.59808e-05
0.000292699
-4.69979e-05
0.000278394
-4.76342e-05
0.000264377
-4.77437e-05