/*--------------------------------*- C++ -*----------------------------------*\
| =========                 |                                                 |
| \\      /  F ield         | OpenFOAM Extend Project: Open source CFD        |
|  \\    /   O peration     | Version:  1.6-ext                               |
|   \\  /    A nd           | Web:      www.extend-project.de                 |
|    \\/     M anipulation  |                                                 |
\*---------------------------------------------------------------------------*/
FoamFile
{
    version     2.0;
    format      ascii;
    class       volVectorField;
    location    "0.5";
    object      U;
}
// * * * * * * * * * * * * * * * * * * * * * * * * * * * * * * * * * * * * * //

dimensions      [0 1 -1 0 0 0 0];

internalField   nonuniform List<vector> 
20940
(
(1.8541 0.392182 0)
(1.89435 0.412305 -2.49993e-21)
(1.9325 0.431743 2.5705e-21)
(1.96769 0.449446 8.78838e-21)
(1.99967 0.465636 1.04157e-21)
(2.02683 0.479209 -7.03509e-21)
(2.04624 0.489081 2.29497e-24)
(2.05314 0.493331 0)
(2.04112 0.489739 0)
(2.00305 0.476051 0)
(1.93254 0.450684 -1.03966e-20)
(1.82583 0.413335 0)
(1.68316 0.365359 -6.77245e-24)
(1.50924 0.309685 -2.34358e-20)
(1.31251 0.250293 1.67756e-20)
(1.10343 0.191449 0)
(0.892676 0.136992 -1.01654e-20)
(0.689496 0.0898701 -1.96431e-22)
(0.500874 0.0519451 1.71042e-20)
(0.331246 0.0240305 -1.18005e-20)
(0.182732 0.00663946 1.24673e-20)
(0.0556013 0.000484171 -1.02468e-20)
(1.88107 0.368131 -4.02637e-21)
(1.92009 0.387113 1.0268e-20)
(1.95669 0.404753 -2.2736e-21)
(1.98976 0.420695 -1.05422e-20)
(2.01854 0.434619 1.16295e-20)
(2.04055 0.445346 -1.63818e-20)
(2.05186 0.45149 2.03557e-20)
(2.04674 0.451039 1.24274e-20)
(2.01839 0.441921 0)
(1.9602 0.422423 -1.76302e-20)
(1.86749 0.391841 -1.1031e-20)
(1.73912 0.350916 2.2982e-20)
(1.57831 0.301905 -2.74557e-20)
(1.39229 0.24822 5.26301e-20)
(1.1909 0.193765 -3.2341e-20)
(0.984802 0.142232 3.61771e-20)
(0.783748 0.09658 -3.8021e-20)
(0.59549 0.0588084 0)
(0.425347 0.0299371 5.52338e-21)
(0.276289 0.0101478 0)
(0.149363 -0.000471788 0)
(0.0442183 -0.00145445 0)
(1.90581 0.34401 0)
(1.94328 0.361926 1.21839e-20)
(1.9778 0.377885 9.76365e-21)
(2.00792 0.392093 -4.03985e-20)
(2.03211 0.403668 0)
(2.04691 0.411349 1.55226e-20)
(2.04733 0.413509 2.00051e-20)
(2.02697 0.408194 -1.24004e-20)
(1.97919 0.393693 0)
(1.89866 0.369023 -1.88357e-20)
(1.78311 0.334445 8.12781e-20)
(1.63439 0.291637 -6.7962e-20)
(1.45852 0.243477 5.31245e-20)
(1.2646 0.19349 -7.02913e-20)
(1.06309 0.145177 0)
(0.864041 0.101464 -1.67455e-20)
(0.675802 0.0644044 -3.71036e-20)
(0.504411 0.0351485 5.79105e-20)
(0.353564 0.0140417 2.0187e-20)
(0.224924 0.000803591 0)
(0.118653 -0.00477892 3.44969e-20)
(0.03393 -0.00243511 -3.74926e-20)
(1.92941 0.320198 0)
(1.96487 0.33713 -2.4797e-20)
(1.99653 0.351462 2.80603e-21)
(2.02242 0.36386 2.33185e-20)
(2.04003 0.372875 2.95407e-20)
(2.04479 0.377198 -4.93961e-20)
(2.03082 0.375075 -2.07505e-20)
(1.99158 0.364814 7.78369e-20)
(1.92134 0.345286 -2.51482e-20)
(1.81694 0.316385 -6.56849e-20)
(1.67905 0.279312 -3.86712e-20)
(1.51256 0.236462 6.70984e-20)
(1.32578 0.190982 2.64595e-20)
(1.12883 0.14615 -5.34156e-20)
(0.931881 0.104813 0)
(0.743714 0.0690454 1.67215e-20)
(0.570934 0.0400561 3.42261e-20)
(0.417823 0.0182916 -9.42501e-20)
(0.286585 0.0035949 -2.07866e-21)
(0.177791 -0.00462138 1.02241e-19)
(0.0909122 -0.00675592 5.4425e-20)
(0.0248052 -0.00265722 -5.33287e-20)
(1.9516 0.29677 6.40637e-20)
(1.98443 0.31273 9.72446e-22)
(2.0121 0.325407 0)
(2.03196 0.335825 -2.34274e-20)
(2.04028 0.341993 2.70568e-20)
(2.03149 0.342639 0)
(1.99929 0.33606 -4.42853e-20)
(1.9377 0.321059 7.55766e-20)
(1.84289 0.297265 -2.73996e-20)
(1.71456 0.26549 1.04135e-19)
(1.55656 0.227707 -3.73691e-20)
(1.37642 0.186705 -4.41621e-20)
(1.18387 0.145523 2.45868e-20)
(0.98908 0.1069 1.12071e-21)
(0.801119 0.0729004 0)
(0.627039 0.0447743 0)
(0.471591 0.023019 3.31064e-20)
(0.337415 0.00755245 -1.41869e-19)
(0.225455 -0.0021175 1.1236e-19)
(0.135431 -0.00675057 -7.90652e-20)
(0.0663369 -0.00683683 0)
(0.0168496 -0.0022849 1.75831e-20)
(1.97188 0.273814 -2.19252e-20)
(2.00115 0.288771 -3.22053e-20)
(2.0232 0.299683 3.573e-20)
(2.0345 0.307847 -2.3349e-20)
(2.03009 0.310825 6.18802e-20)
(2.00378 0.307539 -6.80793e-20)
(1.94954 0.296561 -4.41874e-20)
(1.86298 0.277398 1.49828e-19)
(1.74301 0.250526 -5.4236e-20)
(1.59259 0.217562 -6.46998e-20)
(1.41851 0.180959 -3.79945e-20)
(1.23009 0.143522 -8.49871e-20)
(1.03742 0.10786 4.58021e-20)
(0.849785 0.0760039 2.5865e-20)
(0.674577 0.0492268 5.55376e-20)
(0.516928 0.0280722 -5.87186e-20)
(0.379821 0.0124982 0)
(0.264493 0.00206879 0)
(0.170909 -0.00389863 1.24813e-19)
(0.0981881 -0.00623094 -9.34619e-20)
(0.0450337 -0.0054435 0)
(0.0100637 -0.00146969 6.53481e-20)
(1.98989 0.251142 0)
(2.0141 0.26494 3.38746e-20)
(2.02814 0.273857 -3.75828e-20)
(2.02751 0.279441 0)
(2.00629 0.278961 0)
(1.95835 0.271728 0)
(1.87895 0.256807 0)
(1.7663 0.234536 -4.95494e-20)
(1.62258 0.206174 5.90332e-20)
(1.45394 0.173889 2.59801e-21)
(1.26928 0.140248 2.42947e-21)
(1.07861 0.107726 2.27206e-21)
(0.891357 0.0783035 -4.22459e-20)
(0.715185 0.0532614 -4.73565e-20)
(0.555539 0.0331824 0)
(0.415683 0.0180692 -5.86039e-20)
(0.297077 0.00751827 1.19808e-19)
(0.199861 0.000891206 3.13986e-20)
(0.123303 -0.00257263 -3.4735e-20)
(0.0661488 -0.0036941 -3.4786e-20)
(0.0269665 -0.00297283 0)
(0.00440426 -0.00034879 0)
(2.00418 0.22873 -4.93679e-20)
(2.02118 0.24116 -3.53668e-20)
(2.02403 0.247809 3.92383e-20)
(2.00744 0.250498 -5.28735e-20)
(1.96516 0.246442 1.19679e-19)
(1.89213 0.235562 0)
(1.78599 0.217579 8.42016e-20)
(1.64826 0.193642 0)
(1.48447 0.165577 9.7613e-22)
(1.30318 0.135752 0)
(1.11431 0.106493 0)
(0.927399 0.0797176 -7.58746e-20)
(0.750366 0.0567058 4.15903e-20)
(0.588916 0.0380708 1.40297e-19)
(0.446544 0.0238603 -9.90911e-20)
(0.324884 0.0137138 5.34972e-20)
(0.224196 0.00702141 -1.14243e-19)
(0.143841 0.00305991 -1.54536e-19)
(0.0826512 0.00106788 1.28449e-19)
(0.0391838 0.000275088 1.51916e-21)
(0.0119864 0.000218866 7.12017e-20)
(-0.00020389 0.000958647 1.48886e-20)
(2.01364 0.206022 0)
(2.0203 0.216736 -3.66577e-20)
(2.0079 0.220823 4.06691e-20)
(1.97091 0.22049 1.44787e-21)
(1.90371 0.213134 -5.81211e-20)
(1.80352 0.199425 0)
(1.67121 0.179756 -1.66734e-19)
(1.51178 0.155902 0)
(1.33347 0.129929 5.44757e-20)
(1.14615 0.10405 0)
(0.959467 0.0801038 -6.7978e-20)
(0.781583 0.0593608 2.21578e-19)
(0.618446 0.0424608 6.84312e-22)
(0.473752 0.0294966 -1.30946e-19)
(0.349277 0.0201565 -4.6945e-20)
(0.245368 0.013874 5.31271e-20)
(0.161433 0.009954 -1.09166e-19)
(0.0963376 0.00766912 2.86697e-20)
(0.048688 0.00630437 0)
(0.0169938 0.00516288 3.3122e-20)
(-0.000140396 0.00382677 0)
(-0.00385803 0.00235375 1.33454e-20)
(2.01489 0.183148 0)
(2.0075 0.191879 0)
(1.97554 0.193296 0)
(1.91422 0.190063 -1.23627e-21)
(1.81977 0.180027 -1.23219e-19)
(1.69266 0.164646 7.18101e-20)
(1.5373 0.144863 1.66363e-19)
(1.36171 0.122777 -9.18321e-20)
(1.17569 0.100348 0)
(0.989082 0.0793692 0)
(0.810275 0.0610794 -6.54473e-20)
(0.645471 0.0461407 -1.75455e-21)
(0.498562 0.0346869 -3.7182e-20)
(0.371452 0.0264573 8.47746e-20)
(0.264554 0.020936 4.66102e-20)
(0.177296 0.0174716 5.01518e-20)
(0.108546 0.0153656 1.05988e-19)
(0.056911 0.0139352 -1.3974e-19)
(0.0209285 0.0125355 -2.90361e-20)
(-0.000846569 0.010551 3.04653e-20)
(-0.00970772 0.00760856 0)
(-0.00667005 0.00376046 -2.80128e-20)
(2.00652 0.159054 5.80399e-20)
(1.98034 0.165555 -1.53088e-19)
(1.92458 0.16442 8.59399e-20)
(1.83606 0.158908 5.33303e-20)
(1.71404 0.147397 1.26316e-21)
(1.56268 0.131948 -1.42254e-19)
(1.38959 0.113793 -8.0903e-20)
(1.20465 0.095004 0)
(1.01787 0.0771748 5.0734e-20)
(0.837963 0.0615545 0)
(0.671388 0.0488077 0)
(0.52225 0.039112 0)
(0.392574 0.032258 7.60221e-20)
(0.282828 0.0277849 4.06628e-20)
(0.192448 0.0250934 -1.30692e-19)
(0.120286 0.0235296 0)
(0.0649238 0.0224416 -1.0169e-19)
(0.0248859 0.0212158 2.14827e-19)
(-0.00125383 0.0192863 -8.40026e-20)
(-0.0148387 0.0161186 -3.03495e-20)
(-0.0170418 0.0113828 0)
(-0.00875733 0.00512314 0)
(1.98244 0.134976 6.60701e-20)
(1.93412 0.139354 -7.77927e-20)
(1.85173 0.13617 4.09357e-20)
(1.73567 0.12923 1.04486e-19)
(1.58862 0.117483 -6.18396e-20)
(1.41828 0.103366 7.03488e-20)
(1.23437 0.0881328 7.98773e-20)
(1.04729 0.0735472 0)
(0.866063 0.0607078 5.02813e-20)
(0.697532 0.0503177 -1.09131e-19)
(0.546037 0.0425728 5.99854e-20)
(0.413751 0.0373117 0)
(0.301194 0.0341237 -1.27712e-21)
(0.207804 0.0324609 7.93027e-20)
(0.132401 0.0317178 -1.26408e-19)
(0.0735304 0.0312841 9.04305e-20)
(0.0296848 0.0305761 1.45786e-19)
(-0.000576532 0.029057 -1.02827e-19)
(-0.0185772 0.0262389 5.38412e-20)
(-0.0255317 0.0216635 -8.69011e-20)
(-0.0224905 0.0150423 1.19293e-19)
(-0.0102433 0.00641283 -1.02346e-19)
(1.94478 0.108814 0)
(1.86953 0.111361 -7.84997e-20)
(1.7594 0.107091 0)
(1.61733 0.10006 0)
(1.44977 0.0897648 6.09953e-20)
(1.26692 0.0785202 -7.044e-20)
(1.07925 0.0673892 7.73137e-20)
(0.896386 0.0576435 0)
(0.725536 0.0498923 -1.14432e-21)
(0.571379 0.044387 1.06104e-19)
(0.436259 0.0410027 -5.91805e-20)
(0.320768 0.0393834 0)
(0.224336 0.039034 -7.05666e-20)
(0.145744 0.0393991 7.53948e-20)
(0.0834866 0.0399135 1.21657e-19)
(0.0360093 0.0400318 4.34065e-20)
(0.00184025 0.0392448 -4.75301e-20)
(-0.0203537 0.0370902 1.00151e-19)
(-0.031761 0.0331521 -2.10411e-19)
(-0.0334592 0.0270434 -5.541e-20)
(-0.0263839 0.0185172 0)
(-0.0112407 0.00761114 0)
(1.88296 0.0851419 0)
(1.78309 0.0864921 1.58431e-19)
(1.64658 0.0818819 4.60008e-21)
(1.48345 0.0757163 -1.04376e-19)
(1.30216 0.0677181 0)
(1.11428 0.0599099 -6.85725e-20)
(0.92969 0.0530769 -7.66991e-20)
(0.756306 0.0479537 0)
(0.59919 0.0447378 -9.49706e-20)
(0.460963 0.0433434 0)
(0.342325 0.0434473 0)
(0.242727 0.0445998 -1.25095e-19)
(0.16091 0.0462899 6.74837e-20)
(0.0953068 0.0479924 -7.39631e-20)
(0.0443075 0.049196 3.83858e-20)
(0.00639538 0.0494186 -8.77241e-22)
(-0.0197882 0.0482158 1.35937e-19)
(-0.0354337 0.0451877 7.855e-22)
(-0.0415849 0.0399795 -4.99056e-20)
(-0.0391868 0.0322663 -8.02554e-20)
(-0.0290722 0.0218409 2.51368e-19)
(-0.0118757 0.00874553 -9.65401e-20)
(1.81374 0.0577145 -6.45041e-20)
(1.68321 0.0587318 8.06346e-20)
(1.5242 0.0559901 -2.75227e-19)
(1.34502 0.0518893 2.09278e-19)
(1.15642 0.0477178 0)
(0.969642 0.0443565 1.35444e-19)
(0.792998 0.0423513 8.86893e-22)
(0.632176 0.041881 0)
(0.490115 0.0428494 -9.25093e-20)
(0.367711 0.0449847 -2.05947e-22)
(0.264465 0.0479043 0)
(0.179093 0.0511707 0)
(0.109959 0.0543231 6.60096e-20)
(0.0553703 0.0568994 7.12097e-20)
(0.0137378 0.0584495 -7.73222e-20)
(-0.0163477 0.0585462 -4.14194e-20)
(-0.0361015 0.0567934 -8.77381e-20)
(-0.0465629 0.0528357 0)
(-0.0486338 0.046364 9.88375e-20)
(-0.0431358 0.0371051 -1.03346e-19)
(-0.0308095 0.0248915 -1.36046e-19)
(-0.012233 0.00977931 2.31547e-20)
(1.67087 0.0388869 -3.80054e-20)
(1.50832 0.0371432 1.96891e-21)
(1.32734 0.0362146 4.9132e-20)
(1.13927 0.0349994 -1.11652e-19)
(0.953943 0.0349452 0)
(0.779616 0.0359766 -2.76779e-22)
(0.621417 0.03825 7.85063e-20)
(0.482062 0.0415773 0)
(0.362215 0.0457095 0)
(0.261224 0.0503257 2.1073e-19)
(0.17767 0.0550686 -1.71225e-19)
(0.109815 0.0595575 -1.24909e-19)
(0.0558825 0.0633977 1.34209e-19)
(0.0142229 0.0661892 0)
(-0.0166074 0.0675379 -7.92154e-20)
(-0.0378331 0.0670667 1.66727e-19)
(-0.0504791 0.0644294 -4.36683e-20)
(-0.0554093 0.0593234 4.65469e-20)
(-0.0533711 0.0515012 4.89233e-20)
(-0.0450535 0.0407677 -5.1111e-20)
(-0.0310933 0.0270322 0)
(-0.0120071 0.010403 -2.34251e-20)
(1.42207 0.0178393 1.5496e-19)
(1.23872 0.0184182 0)
(1.05366 0.0218266 5.18838e-20)
(0.875272 0.0249491 1.75488e-19)
(0.710181 0.0294564 -6.56935e-20)
(0.562343 0.0344574 3.07908e-22)
(0.433445 0.0400581 0)
(0.32349 0.0459664 0)
(0.231399 0.0519821 9.73311e-20)
(0.155528 0.057856 0)
(0.0940327 0.0633183 1.74395e-19)
(0.0451139 0.0680708 -1.25344e-19)
(0.0071432 0.071792 -6.76277e-20)
(-0.0212791 0.0741465 0)
(-0.0413198 0.074798 -7.86536e-20)
(-0.0539372 0.0734259 8.3657e-20)
(-0.0599202 0.0697415 -8.82722e-20)
(-0.0599316 0.0635045 -4.70349e-20)
(-0.0545504 0.0545347 -9.79679e-20)
(-0.0443168 0.0427141 5.15195e-20)
(-0.0297355 0.0280233 -2.62331e-20)
(-0.0112256 0.0105996 1.13315e-19)
(1.13755 0.00651197 -8.35697e-20)
(0.956526 0.0100424 4.78849e-20)
(0.787843 0.0172984 -2.13339e-19)
(0.633444 0.0235733 -6.01787e-20)
(0.497269 0.0309302 6.69365e-20)
(0.379642 0.0381653 -1.49103e-19)
(0.280176 0.0454538 8.18491e-20)
(0.197413 0.0525319 -9.05946e-20)
(0.129587 0.0592701 3.80437e-23)
(0.0748195 0.0654828 -1.07565e-19)
(0.0313385 0.070963 -1.75877e-19)
(-0.00243184 0.0754675 2.53631e-19)
(-0.0278308 0.0787232 -6.77523e-20)
(-0.0459639 0.0804382 0)
(-0.0577277 0.0803172 0)
(-0.0638466 0.0780803 4.14547e-20)
(-0.0649133 0.0734814 4.38425e-20)
(-0.0614273 0.0663257 1.39135e-19)
(-0.0538291 0.0564819 -9.63146e-20)
(-0.042533 0.0438865 -2.50869e-20)
(-0.0279311 0.0285667 -7.82912e-20)
(-0.0103582 0.0106694 6.6509e-20)
(0.853667 0.0017076 8.49978e-20)
(0.692663 0.00881992 0)
(0.551857 0.0185396 -1.09894e-19)
(0.427433 0.0268918 0)
(0.321778 0.0356379 -6.86681e-20)
(0.232968 0.0437938 7.53977e-20)
(0.159748 0.0515663 0)
(0.100145 0.0587949 0)
(0.0523427 0.0654261 2.00596e-19)
(0.0146157 0.0713393 -5.44224e-20)
(-0.0145395 0.0763794 2.36654e-19)
(-0.0363964 0.080344 -2.55448e-19)
(-0.0520008 0.0829925 1.37167e-19)
(-0.062196 0.0840602 0)
(-0.0676552 0.0832766 -7.86169e-20)
(-0.0689174 0.0803857 -8.35532e-20)
(-0.0664221 0.075166 4.35709e-20)
(-0.0605402 0.0674475 4.59635e-20)
(-0.0515997 0.0571247 -4.77691e-20)
(-0.0399091 0.0441616 2.52229e-20)
(-0.0257633 0.0286052 0)
(-0.00942169 0.0105953 0)
(0.594988 0.00315821 0)
(0.46374 0.0129575 5.02579e-20)
(0.354154 0.0233202 5.61144e-20)
(0.259899 0.0323722 3.55021e-22)
(0.182292 0.0411351 -6.91083e-20)
(0.11857 0.0491013 -7.6939e-20)
(0.0673008 0.0564594 1.68846e-19)
(0.02656 0.063154 -9.23424e-20)
(-0.00522926 0.0691778 0)
(-0.0294945 0.0744516 -3.38004e-22)
(-0.0474268 0.0788484 -5.97112e-20)
(-0.0600099 0.0821876 -6.39508e-20)
(-0.0680369 0.0842466 0)
(-0.0721398 0.0847765 1.10534e-19)
(-0.0728193 0.0835214 -7.83875e-20)
(-0.0704749 0.0802397 4.4918e-22)
(-0.0654319 0.0747231 0)
(-0.0579644 0.0668135 -2.28111e-20)
(-0.0483131 0.0564144 7.19496e-20)
(-0.0367014 0.0434982 -1.23706e-19)
(-0.023345 0.0281095 0)
(-0.00843973 0.0103636 0)
(0.375505 0.008116 -8.95352e-20)
(0.276095 0.0189163 0)
(0.195781 0.0286994 5.70519e-20)
(0.128435 0.0373396 6.39627e-20)
(0.0745327 0.0452675 -6.99274e-20)
(0.0314119 0.0523764 0)
(-0.00224036 0.0588247 0)
(-0.0280479 0.0646318 0)
(-0.0472775 0.0698117 -5.07313e-20)
(-0.0610446 0.0743081 5.52698e-20)
(-0.0702607 0.0780088 -1.19482e-19)
(-0.0756686 0.0807462 6.46894e-20)
(-0.0778625 0.0823094 3.44136e-20)
(-0.0773136 0.0824608 -3.31113e-22)
(-0.0743947 0.0809554 0)
(-0.0694038 0.0775609 -4.12e-23)
(-0.0625832 0.0720761 1.74392e-19)
(-0.0541364 0.0643458 -1.36815e-19)
(-0.0442396 0.0542717 1.18751e-19)
(-0.0330504 0.0418203 1.22871e-19)
(-0.0207252 0.0270182 -1.00952e-19)
(-0.00741409 0.0099427 7.38391e-20)
(0.198889 0.014252 4.57687e-20)
(0.128419 0.0243128 5.15277e-20)
(0.0730767 0.03278 -1.14577e-19)
(0.0280709 0.040263 1.27156e-19)
(-0.00672564 0.0469027 -7.09523e-20)
(-0.0334863 0.0528135 7.78377e-20)
(-0.0533206 0.0581308 0)
(-0.0675007 0.0629123 4.72602e-20)
(-0.0770034 0.0671776 -5.08274e-20)
(-0.0826718 0.0708803 5.53285e-20)
(-0.0851882 0.0739158 0)
(-0.0851051 0.0761259 0)
(-0.0828638 0.0773108 -3.47342e-20)
(-0.0788148 0.0772446 3.67664e-20)
(-0.0732377 0.0756941 -1.56539e-19)
(-0.0663574 0.0724366 1.23741e-19)
(-0.058358 0.0672765 -8.67578e-20)
(-0.0493943 0.0600582 -2.27891e-20)
(-0.0395974 0.0506769 -2.34157e-20)
(-0.0290787 0.0390856 0)
(-0.0179557 0.0252844 0)
(-0.00635247 0.00930524 1.33558e-22)
(0.0626321 0.0197103 -4.61828e-20)
(0.0162297 0.0277864 5.1213e-20)
(-0.0188917 0.0344865 5.79414e-20)
(-0.0461269 0.0404208 -6.38866e-20)
(-0.0659589 0.0456063 -7.08799e-20)
(-0.0800253 0.0502204 0)
(-0.0892274 0.0543742 0)
(-0.0945179 0.0581332 -4.71227e-20)
(-0.0966276 0.0615132 5.13546e-20)
(-0.0961757 0.0644708 -5.58824e-20)
(-0.0936612 0.0669076 -2.99667e-20)
(-0.0894872 0.0686761 0)
(-0.0839775 0.0695904 -6.92363e-20)
(-0.0773923 0.0694405 1.47396e-19)
(-0.0699426 0.068009 -1.17308e-19)
(-0.0618017 0.0650865 8.23433e-20)
(-0.0531145 0.0604861 8.6382e-20)
(-0.044004 0.054054 -1.80195e-19)
(-0.0345736 0.0456793 4.68019e-20)
(-0.0249062 0.0353007 1.20392e-19)
(-0.0150993 0.0228901 0)
(-0.0052715 0.00843451 2.04242e-20)
(-0.0381832 0.0231341 0)
(-0.065383 0.02873 0)
(-0.0845802 0.033485 0)
(-0.0980697 0.0377628 6.46848e-20)
(-0.106462 0.0415156 -1.783e-19)
(-0.110936 0.0448875 7.84951e-20)
(-0.112188 0.047957 -1.29702e-19)
(-0.110903 0.0507761 9.43471e-20)
(-0.107603 0.0533515 5.1633e-20)
(-0.102726 0.0556406 5.58511e-20)
(-0.0966231 0.0575529 -2.99474e-20)
(-0.0895789 0.0589549 0)
(-0.0818261 0.0596797 0)
(-0.0735565 0.0595387 0)
(-0.0649306 0.0583361 -1.36532e-19)
(-0.0560854 0.0558819 8.21087e-20)
(-0.0471399 0.0520038 -8.6008e-20)
(-0.0381991 0.0465564 8.96461e-20)
(-0.0293517 0.0394283 -1.86358e-22)
(-0.0206672 0.0305491 -1.211e-20)
(-0.0122397 0.0198678 1.21894e-20)
(-0.0041992 0.00733325 -9.06905e-20)
(-0.107923 0.0235663 4.66336e-20)
(-0.120155 0.0268667 -5.16765e-20)
(-0.127139 0.0298354 2.9394e-20)
(-0.130357 0.0326091 -3.21267e-20)
(-0.130358 0.0351041 3.58938e-20)
(-0.127937 0.0373984 0)
(-0.123588 0.0395344 4.34532e-20)
(-0.117768 0.0415425 -4.74444e-20)
(-0.110824 0.04342 -1.53191e-22)
(-0.103042 0.0451266 2.79292e-20)
(-0.0946553 0.0465835 -3.0081e-20)
(-0.0858562 0.0476764 0)
(-0.0768062 0.0482625 1.72631e-20)
(-0.0676451 0.0481806 0)
(-0.0584959 0.0472621 9.99731e-23)
(-0.0494701 0.0453428 0)
(-0.0406697 0.0422727 -8.57194e-20)
(-0.0321897 0.0379226 1.78478e-19)
(-0.0241138 0.0321911 -1.1558e-19)
(-0.0165085 0.0250084 -1.1922e-20)
(-0.00947681 0.0163123 8.4835e-20)
(-0.00317245 0.006028 -1.59459e-19)
(-0.148914 0.0208043 0)
(-0.150103 0.0224041 0)
(-0.148332 0.0240117 2.9195e-20)
(-0.144467 0.025621 -3.24724e-20)
(-0.138879 0.0271371 3.57847e-20)
(-0.132039 0.028582 0)
(-0.124247 0.0299696 4.35098e-20)
(-0.11577 0.0313128 -4.73642e-20)
(-0.106811 0.0326043 -2.57913e-20)
(-0.0975393 0.0338111 8.40938e-20)
(-0.0880934 0.0348707 3.03719e-20)
(-0.0785947 0.0356929 9.45263e-23)
(-0.0691518 0.0361638 -6.92569e-20)
(-0.0598655 0.0361537 0)
(-0.0508315 0.0355261 -5.83161e-20)
(-0.0421425 0.0341475 6.14046e-20)
(-0.0338883 0.0318957 0)
(-0.0261576 0.0286665 0)
(-0.0190321 0.0243782 9.19509e-20)
(-0.0125807 0.0189756 -1.06499e-19)
(-0.00692016 0.0124015 0)
(-0.00223417 0.00457854 4.93162e-21)
(-0.161857 0.0154849 4.63474e-20)
(-0.156077 0.016104 0)
(-0.149064 0.0168737 0)
(-0.141239 0.0177212 0)
(-0.132757 0.0185641 -1.80614e-20)
(-0.123846 0.0193963 3.97403e-20)
(-0.114643 0.0202191 -4.33996e-20)
(-0.105276 0.0210383 0)
(-0.0958397 0.0218495 -5.1805e-20)
(-0.0864175 0.0226314 5.60176e-20)
(-0.0770822 0.023342 1.51194e-20)
(-0.0679032 0.0239182 0)
(-0.0589506 0.0242783 -2.43539e-23)
(-0.0502971 0.0243265 -7.36842e-20)
(-0.0420184 0.0239607 6.81168e-20)
(-0.0341926 0.0230796 -5.11034e-20)
(-0.0268995 0.0215918 8.55728e-20)
(-0.0202205 0.0194215 0)
(-0.0142335 0.0165149 0)
(-0.00900693 0.0128432 -4.12239e-20)
(-0.00466736 0.00837613 4.82544e-20)
(-0.0014241 0.00306406 -6.33918e-24)
(-0.147347 0.00917078 2.33756e-20)
(-0.138847 0.00938538 0)
(-0.130136 0.00974037 -1.47768e-20)
(-0.121376 0.0101533 3.23948e-20)
(-0.112565 0.0105724 -3.15299e-23)
(-0.103782 0.0109887 0)
(-0.095067 0.011404 1.0905e-20)
(-0.0864619 0.0118252 -5.97339e-20)
(-0.0779978 0.0122542 1.29829e-19)
(-0.0697036 0.0126828 -5.61758e-20)
(-0.0616087 0.0130902 -1.51739e-20)
(-0.0537475 0.0134406 0)
(-0.0461622 0.0136848 6.0861e-20)
(-0.0389041 0.0137619 -7.38108e-20)
(-0.0320329 0.0136038 -2.92538e-20)
(-0.0256146 0.0131413 -1.0235e-20)
(-0.0197192 0.0123108 4.81983e-20)
(-0.0144188 0.0110624 0)
(-0.00978188 0.00936831 -5.16772e-20)
(-0.00586849 0.00722922 1.19037e-20)
(-0.00279715 0.00465397 4.22209e-20)
(-0.000779744 0.00164914 -4.90541e-21)
(-0.107095 0.00356074 -5.85176e-20)
(-0.0997687 0.00367796 2.64081e-20)
(-0.0925564 0.0038305 -1.43905e-20)
(-0.0855509 0.00398034 -6.52204e-20)
(-0.0786972 0.00411513 1.79124e-20)
(-0.0720199 0.00423839 0)
(-0.0655213 0.00435704 -5.48111e-20)
(-0.0592079 0.00447928 5.96883e-20)
(-0.0530808 0.00461068 -6.51753e-21)
(-0.0471408 0.00475215 -5.65108e-20)
(-0.0413918 0.00489854 6.07655e-20)
(-0.035844 0.00503762 0)
(-0.0305173 0.00514965 -1.3077e-20)
(-0.025443 0.00520755 0)
(-0.0206636 0.00517793 0)
(-0.0162311 0.00502339 5.14754e-21)
(-0.0122041 0.00470653 -4.55668e-20)
(-0.00864397 0.00419631 4.18029e-20)
(-0.00560751 0.00347875 5.75179e-21)
(-0.00313839 0.0025694 -5.9063e-21)
(-0.00131796 0.00151418 9.05394e-21)
(-0.000311319 0.000412363 0)
(-0.0432999 0.000344338 -1.16051e-20)
(-0.0402111 0.000395513 2.54777e-20)
(-0.0371124 0.00043627 5.57575e-23)
(-0.0341228 0.000462786 0)
(-0.0312173 0.000478856 -6.8405e-23)
(-0.0284183 0.000489095 0)
(-0.0257274 0.000497365 2.11906e-20)
(-0.023145 0.000507172 -2.3001e-20)
(-0.0206657 0.000521299 6.25731e-21)
(-0.0182821 0.000541718 -2.64725e-23)
(-0.0159869 0.000569381 0)
(-0.0137751 0.000603895 0)
(-0.0116467 0.000643095 4.14476e-21)
(-0.00960875 0.000682489 0)
(-0.00767635 0.000714694 -9.12096e-24)
(-0.00587402 0.000729044 3.43169e-20)
(-0.00423528 0.000711771 -4.35261e-20)
(-0.00280173 0.000647557 2.64736e-21)
(-0.00161841 0.000524213 5.36514e-24)
(-0.000724637 0.000341171 -5.51282e-24)
(-0.000163269 0.000120217 -2.8777e-21)
(7.32285e-06 -5.95281e-05 0)
(1.13657 0.0270787 3.36051e-20)
(1.09053 0.0288575 0)
(1.04244 0.0306803 0)
(0.992202 0.0325485 -2.58455e-20)
(0.939924 0.0344679 0)
(0.88569 0.0364455 -3.31936e-20)
(0.829592 0.0384843 -3.80478e-20)
(0.771738 0.0405855 4.13517e-20)
(0.712245 0.0427488 -2.32104e-20)
(0.651245 0.0449714 -2.56515e-20)
(0.588881 0.0472455 1.07917e-25)
(0.525319 0.0495467 3.11623e-20)
(0.460777 0.0518103 -3.31843e-20)
(0.395588 0.0538909 5.41688e-20)
(0.330302 0.0555179 4.49655e-22)
(0.265821 0.0562674 -2.03138e-20)
(0.20351 0.0555718 0)
(0.145251 0.0527782 2.25724e-20)
(0.0933079 0.0472455 -2.33303e-20)
(0.0500812 0.0384535 0)
(0.0188127 0.0260696 -2.50382e-20)
(0.00354425 0.0100015 2.54553e-20)
(1.14112 0.0830319 0)
(1.09553 0.0889306 0)
(1.04806 0.0951005 4.59803e-20)
(0.998417 0.101512 2.76447e-20)
(0.94673 0.108157 -5.75454e-20)
(0.893089 0.115042 3.3185e-20)
(0.837585 0.122161 1.12293e-19)
(0.780326 0.129511 -8.20108e-20)
(0.72143 0.137082 6.89796e-20)
(0.661028 0.14486 2.45645e-20)
(0.599261 0.152812 5.54857e-20)
(0.536292 0.160849 0)
(0.472323 0.168742 0)
(0.407655 0.175991 1.73455e-20)
(0.34278 0.181682 -7.65485e-20)
(0.278507 0.184399 6.0054e-20)
(0.216077 0.182274 2.10115e-20)
(0.157227 0.173175 8.924e-20)
(0.104072 0.155028 -9.22391e-20)
(0.0588863 0.126163 7.23757e-20)
(0.0248217 0.0855256 -9.81871e-20)
(0.00587791 0.0328347 -8.59747e-20)
(1.14994 0.138975 6.59617e-20)
(1.10531 0.14901 7.88172e-20)
(1.05909 0.15945 4.71385e-22)
(1.01064 0.170285 0)
(0.960136 0.181507 0)
(0.907691 0.193126 0)
(0.85339 0.20514 -3.67649e-20)
(0.797345 0.217543 -8.03339e-20)
(0.739673 0.230322 -4.56939e-20)
(0.680503 0.243454 -1.51593e-19)
(0.619974 0.256886 1.62679e-19)
(0.558235 0.270467 -1.20694e-19)
(0.495461 0.283812 2.59074e-19)
(0.431883 0.296071 -2.42118e-19)
(0.367874 0.305698 -1.49493e-19)
(0.304052 0.310304 1.1821e-19)
(0.241402 0.306736 -1.87515e-19)
(0.181368 0.29141 1.73045e-19)
(0.125769 0.260845 0)
(0.0766293 0.212244 2.36137e-20)
(0.0369246 0.143855 0)
(0.0105764 0.0552222 5.95937e-20)
(1.1621 0.192169 -6.57215e-20)
(1.11903 0.206219 0)
(1.07477 0.220787 -8.71788e-20)
(1.02818 0.235928 -9.99203e-20)
(0.979534 0.251617 1.09692e-19)
(0.928942 0.267867 -1.23648e-19)
(0.876495 0.284676 0)
(0.822307 0.302032 8.00898e-20)
(0.766501 0.31992 0)
(0.709204 0.338306 0)
(0.650552 0.357117 -5.39132e-20)
(0.590678 0.376143 5.66518e-20)
(0.529712 0.39484 6.12583e-20)
(0.467789 0.412023 6.83895e-20)
(0.405097 0.425524 -7.01073e-20)
(0.341971 0.432005 3.86762e-20)
(0.279018 0.427061 0)
(0.217241 0.405702 0)
(0.158022 0.363092 -1.74044e-19)
(0.10301 0.29537 1.79038e-19)
(0.0549217 0.200137 -4.50416e-20)
(0.0175606 0.0767991 -1.14248e-19)
(1.17758 0.242744 -1.2265e-19)
(1.13658 0.26068 -1.42091e-19)
(1.09493 0.279178 0)
(1.0508 0.298419 1.92214e-19)
(1.00461 0.318359 -1.06157e-19)
(0.956472 0.339015 2.41399e-19)
(0.90648 0.360385 1.32677e-19)
(0.854755 0.382459 0)
(0.801422 0.405216 0)
(0.74661 0.428618 9.04214e-20)
(0.690449 0.452572 9.89955e-20)
(0.633052 0.476811 -1.71561e-19)
(0.57449 0.500645 1.76258e-19)
(0.514769 0.52256 0)
(0.453836 0.539793 4.10494e-19)
(0.391652 0.548085 1.75827e-21)
(0.328322 0.54183 -3.02915e-19)
(0.264272 0.514686 0)
(0.200308 0.460537 0)
(0.137594 0.374527 -4.11431e-20)
(0.0785109 0.253678 8.74348e-20)
(0.026709 0.0972983 -1.85644e-20)
(1.19594 0.289414 1.27237e-19)
(1.15754 0.311062 5.42866e-21)
(1.11911 0.333251 3.15227e-19)
(1.07804 0.35636 -1.77204e-19)
(1.03488 0.380312 -1.04268e-19)
(0.989782 0.405124 -3.50839e-19)
(0.942824 0.430802 1.22527e-19)
(0.89414 0.457334 -2.85123e-19)
(0.843857 0.484698 1.57558e-19)
(0.792108 0.51285 8.70564e-20)
(0.739017 0.541682 -3.81884e-19)
(0.684673 0.570877 1.77618e-21)
(0.629077 0.599607 2.47547e-21)
(0.572077 0.626051 -3.65678e-19)
(0.513326 0.646877 1.89535e-19)
(0.452321 0.656949 -2.71356e-19)
(0.388552 0.649513 5.68262e-19)
(0.321733 0.616949 -2.95996e-19)
(0.25197 0.551937 -3.07986e-19)
(0.179838 0.448713 3.94963e-20)
(0.107315 0.303798 2.44832e-19)
(0.0378698 0.116456 1.35364e-19)
(1.21673 0.331598 2.25622e-19)
(1.18144 0.35673 -1.27318e-19)
(1.1468 0.382313 -1.53168e-19)
(1.10929 0.408996 -1.7248e-19)
(1.0697 0.436658 3.75818e-19)
(1.02816 0.465325 0)
(0.984759 0.495003 0)
(0.939644 0.525683 8.39395e-21)
(0.89295 0.557341 1.44088e-19)
(0.844807 0.589929 0)
(0.795335 0.623326 1.78767e-19)
(0.744596 0.657172 2.02203e-19)
(0.692511 0.690514 -2.08181e-19)
(0.638742 0.721249 -3.40051e-19)
(0.582596 0.745515 2.36797e-19)
(0.523024 0.757348 -3.09775e-19)
(0.45879 0.748912 3.24016e-19)
(0.388772 0.711381 0)
(0.312254 0.636321 0)
(0.229132 0.517153 -2.92275e-19)
(0.140919 0.34998 3.67092e-20)
(0.0508785 0.13408 2.18333e-19)
(1.23929 0.368601 -8.2982e-22)
(1.20761 0.396969 1.15642e-20)
(1.17726 0.425631 -2.37011e-21)
(1.14383 0.455565 1.53411e-19)
(1.10829 0.486593 -3.66368e-19)
(1.07079 0.51875 1.98802e-19)
(1.03144 0.552051 0)
(0.990373 0.586491 2.49592e-19)
(0.947744 0.622051 -1.42954e-19)
(0.903686 0.658683 0)
(0.858316 0.69626 4.03687e-19)
(0.811668 0.734389 -2.6223e-19)
(0.76358 0.772013 9.14011e-20)
(0.713509 0.806776 0)
(0.660371 0.834331 1.02568e-19)
(0.6025 0.847945 5.94654e-20)
(0.537825 0.838765 -6.26558e-21)
(0.464269 0.796838 -3.03067e-19)
(0.380179 0.712704 5.08036e-19)
(0.284688 0.579063 -2.00274e-19)
(0.178794 0.391699 0)
(0.0655274 0.149968 2.28179e-19)
(1.26285 0.399854 0)
(1.23524 0.431129 3.37952e-19)
(1.2096 0.4625 -8.88923e-21)
(1.18063 0.495331 -1.51824e-19)
(1.14956 0.529374 1.6738e-19)
(1.11652 0.564673 -1.83293e-19)
(1.08162 0.601249 2.08598e-19)
(1.04505 0.639096 -5.76882e-19)
(1.00694 0.678194 1.29709e-19)
(0.967443 0.718499 0)
(0.92666 0.759878 -1.56608e-19)
(0.884601 0.801913 -1.53338e-19)
(0.841012 0.843466 -2.63299e-19)
(0.795129 0.881968 9.68521e-20)
(0.745439 0.912639 -1.01932e-19)
(0.689585 0.928045 0)
(0.624564 0.918389 -5.56408e-20)
(0.547228 0.872677 3.23942e-19)
(0.454883 0.780516 -2.23917e-19)
(0.345821 0.633983 -6.14204e-20)
(0.220481 0.428642 0)
(0.081639 0.164008 2.65065e-20)
(1.28652 0.425204 1.80396e-19)
(1.26348 0.4591 -4.70948e-21)
(1.24297 0.492828 -3.58628e-19)
(1.21888 0.528153 -1.36128e-19)
(1.19266 0.564757 1.49519e-19)
(1.16444 0.602708 0)
(1.13436 0.642046 0)
(1.1026 0.682777 -9.89082e-20)
(1.06933 0.724892 1.19229e-19)
(1.0347 0.768353 0)
(0.998834 0.813033 3.94951e-19)
(0.961711 0.858507 1.51411e-19)
(0.922993 0.90358 -3.06651e-19)
(0.881694 0.945514 1.02243e-20)
(0.835849 0.979154 0)
(0.782354 0.996429 0)
(0.717181 0.986667 0)
(0.635995 0.937907 -5.02136e-20)
(0.534948 0.838906 0)
(0.411417 0.681225 0)
(0.265244 0.460329 4.59972e-20)
(0.0989265 0.176007 0)
(1.30941 0.444165 0)
(1.29128 0.480232 0)
(1.27609 0.515933 3.18384e-19)
(1.2571 0.553428 -1.20995e-19)
(1.23601 0.592301 -1.38217e-19)
(1.21294 0.632621 1.51392e-19)
(1.18803 0.674427 0)
(1.16148 0.717724 -7.87587e-20)
(1.13347 0.762509 9.60264e-20)
(1.10415 0.80875 -2.19692e-19)
(1.07365 0.856325 1.11303e-19)
(1.04193 0.904812 2.50713e-19)
(1.00856 0.952984 -1.43854e-19)
(0.972336 0.997972 7.49122e-20)
(0.930804 1.03431 0)
(0.880057 1.05338 1.46791e-19)
(0.814952 1.04373 -4.13642e-21)
(0.729867 0.992523 -8.7044e-20)
(0.619714 0.88778 1.91567e-19)
(0.48091 0.720655 -1.61754e-19)
(0.312681 0.48664 -2.12451e-19)
(0.117229 0.185921 1.39179e-19)
(1.33058 0.457483 0)
(1.31797 0.495492 -8.62769e-21)
(1.30848 0.532737 -1.02728e-20)
(1.29492 0.571834 -1.11325e-19)
(1.27916 0.612328 4.72343e-21)
(1.26135 0.654333 -1.3e-19)
(1.24168 0.697913 1.50758e-19)
(1.2204 0.743089 9.65445e-21)
(1.1977 0.789868 8.34637e-20)
(1.17375 0.838232 -1.92682e-19)
(1.1487 0.888077 0)
(1.1225 0.939002 0)
(1.09466 0.989788 -2.27454e-19)
(1.06378 1.0375 -2.30936e-19)
(1.02694 1.07643 2.99625e-19)
(0.97939 1.09747 1.83831e-19)
(0.914805 1.08842 -2.50881e-19)
(0.826147 1.03562 5.15141e-20)
(0.706957 0.926415 -3.86868e-20)
(0.552607 0.751678 -2.51016e-19)
(0.361696 0.507119 2.57439e-19)
(0.136124 0.193546 -2.17545e-19)
(1.34907 0.464009 2.70637e-19)
(1.34207 0.503504 -5.69515e-21)
(1.33819 0.542187 -1.76266e-19)
(1.33026 0.582859 -8.9706e-20)
(1.32016 0.624957 6.13628e-21)
(1.30802 0.668596 2.49368e-19)
(1.29404 0.713848 1.25645e-19)
(1.27849 0.760744 -7.52755e-22)
(1.26157 0.809303 -3.10551e-19)
(1.24349 0.859517 2.8237e-21)
(1.22437 0.911294 1.77207e-19)
(1.20419 0.964249 1.80075e-19)
(1.18238 1.01717 -8.93629e-20)
(1.15732 1.06708 1.87701e-19)
(1.1256 1.10809 -6.55743e-20)