/*--------------------------------*- C++ -*----------------------------------*\
| =========                 |                                                 |
| \\      /  F ield         | OpenFOAM Extend Project: Open source CFD        |
|  \\    /   O peration     | Version:  1.6-ext                               |
|   \\  /    A nd           | Web:      www.extend-project.de                 |
|    \\/     M anipulation  |                                                 |
\*---------------------------------------------------------------------------*/
FoamFile
{
    version     2.0;
    format      ascii;
    class       volVectorField;
    location    "0.5";
    object      U_0;
}
// * * * * * * * * * * * * * * * * * * * * * * * * * * * * * * * * * * * * * //

dimensions      [0 1 -1 0 0 0 0];

internalField   nonuniform List<vector> 
20940
(
(1.8541 0.392138 0)
(1.89436 0.412261 -2.51583e-21)
(1.93251 0.431699 2.58811e-21)
(1.96771 0.449402 8.82771e-21)
(1.99969 0.465594 1.04168e-21)
(2.02686 0.479167 -7.05916e-21)
(2.04628 0.489041 2.30145e-24)
(2.05318 0.493294 0)
(2.04117 0.489706 0)
(2.00311 0.476023 0)
(1.93261 0.450661 -1.04157e-20)
(1.8259 0.413318 0)
(1.68324 0.365348 -6.78327e-24)
(1.50933 0.309679 -2.34716e-20)
(1.3126 0.25029 1.68009e-20)
(1.10352 0.191448 0)
(0.892753 0.136992 -1.01795e-20)
(0.689562 0.0898707 -1.96448e-22)
(0.500926 0.0519456 1.71273e-20)
(0.331283 0.0240308 -1.18164e-20)
(0.182755 0.00663939 1.24837e-20)
(0.0556089 0.000484088 -1.02603e-20)
(1.88108 0.368082 -4.05485e-21)
(1.9201 0.387064 1.03315e-20)
(1.95671 0.404705 -2.29117e-21)
(1.98979 0.420648 -1.05816e-20)
(2.01856 0.434573 1.1673e-20)
(2.04059 0.445301 -1.64301e-20)
(2.0519 0.451448 2.0409e-20)
(2.04679 0.451 1.24567e-20)
(2.01845 0.441887 0)
(1.96027 0.422393 -1.76652e-20)
(1.86757 0.391818 -1.10501e-20)
(1.73921 0.350899 2.30229e-20)
(1.57841 0.301893 -2.75e-20)
(1.39238 0.248212 5.2713e-20)
(1.19099 0.19376 -3.23914e-20)
(0.984889 0.142229 3.62306e-20)
(0.783825 0.0965782 -3.80772e-20)
(0.595555 0.0588071 0)
(0.425398 0.0299359 5.53103e-21)
(0.276325 0.0101467 0)
(0.149384 -0.000472736 0)
(0.0442254 -0.00145484 0)
(1.90582 0.343957 0)
(1.94329 0.361873 1.22473e-20)
(1.97781 0.377833 9.79921e-21)
(2.00794 0.392041 -4.05556e-20)
(2.03214 0.403617 0)
(2.04695 0.411301 1.55707e-20)
(2.04738 0.413464 2.00582e-20)
(2.02703 0.408153 -1.24296e-20)
(1.97925 0.393657 0)
(1.89874 0.368993 -1.88709e-20)
(1.7832 0.334422 8.14301e-20)
(1.63449 0.291619 -6.80851e-20)
(1.45862 0.243464 5.32132e-20)
(1.2647 0.193481 -7.04095e-20)
(1.06319 0.145171 0)
(0.864129 0.101459 -1.67722e-20)
(0.675878 0.0644007 -3.71598e-20)
(0.504474 0.0351453 5.79987e-20)
(0.353612 0.0140389 2.02176e-20)
(0.224958 0.000801237 0)
(0.118672 -0.0047806 3.45459e-20)
(0.0339365 -0.00243574 -3.75463e-20)
(1.92942 0.32014 0)
(1.96488 0.337073 -2.49234e-20)
(1.99654 0.351405 2.80641e-21)
(2.02245 0.363804 2.33972e-20)
(2.04006 0.372821 2.96281e-20)
(2.04482 0.377147 -4.95403e-20)
(2.03087 0.375028 -2.08035e-20)
(1.99164 0.364772 7.80126e-20)
(1.92142 0.34525 -2.52115e-20)
(1.81703 0.316356 -6.58241e-20)
(1.67915 0.279289 -3.87469e-20)
(1.51267 0.236445 6.72215e-20)
(1.32589 0.190969 2.65038e-20)
(1.12893 0.14614 -5.351e-20)
(0.931979 0.104805 0)
(0.743801 0.069039 1.67482e-20)
(0.571008 0.0400506 3.42821e-20)
(0.417883 0.0182868 -9.4397e-20)
(0.28663 0.00359076 -2.07877e-21)
(0.177822 -0.00462471 1.02399e-19)
(0.0909301 -0.00675818 5.45065e-20)
(0.024811 -0.00265802 -5.34093e-20)
(1.9516 0.296708 6.44023e-20)
(1.98444 0.312668 9.72696e-22)
(2.01212 0.325346 0)
(2.03199 0.335765 -2.35058e-20)
(2.04031 0.341936 2.71434e-20)
(2.03154 0.342586 0)
(1.99935 0.336012 -4.43917e-20)
(1.93778 0.321017 7.57517e-20)
(1.84298 0.29723 -2.74632e-20)
(1.71466 0.265461 1.04345e-19)
(1.55667 0.227685 -3.74445e-20)
(1.37654 0.186687 -4.4244e-20)
(1.18399 0.145509 2.46309e-20)
(0.989188 0.106889 1.12075e-21)
(0.801216 0.0728912 0)
(0.627124 0.0447663 0)
(0.471661 0.0230119 3.31623e-20)
(0.33747 0.00754628 -1.42103e-19)
(0.225496 -0.0021227 1.12543e-19)
(0.135459 -0.00675463 -7.91915e-20)
(0.0663527 -0.0068395 0)
(0.0168546 -0.00228582 1.761e-20)
(1.97189 0.273747 -2.20375e-20)
(2.00116 0.288705 -3.23311e-20)
(2.02323 0.299618 3.58696e-20)
(2.03453 0.307784 -2.34269e-20)
(2.03014 0.310766 6.20538e-20)
(2.00384 0.307485 -6.82703e-20)
(1.94961 0.296513 -4.42935e-20)
(1.86307 0.277356 1.50177e-19)
(1.74311 0.250492 -5.43628e-20)
(1.59271 0.217534 -6.48385e-20)
(1.41863 0.180937 -3.807e-20)
(1.23021 0.143504 -8.51505e-20)
(1.03754 0.107846 4.58897e-20)
(0.849893 0.0759917 2.59119e-20)
(0.674672 0.0492163 5.56376e-20)
(0.517008 0.0280629 -5.88243e-20)
(0.379886 0.0124899 0)
(0.264544 0.0020616 0)
(0.170947 -0.00390459 1.25026e-19)
(0.098213 -0.00623549 -9.36192e-20)
(0.0450475 -0.00544641 0)
(0.010068 -0.00147066 6.54555e-20)
(1.9899 0.25107 0)
(2.01412 0.264869 3.39996e-20)
(2.02817 0.273788 -3.77215e-20)
(2.02755 0.279375 0)
(2.00635 0.2789 0)
(1.95843 0.271673 0)
(1.87904 0.256759 0)
(1.7664 0.234495 -4.96651e-20)
(1.62271 0.206141 5.91602e-20)
(1.45407 0.173862 2.59857e-21)
(1.26941 0.140226 2.42995e-21)
(1.07874 0.107709 2.27246e-21)
(0.891474 0.0782884 -4.23329e-20)
(0.715289 0.0532484 -4.74497e-20)
(0.555629 0.0331708 0)
(0.415758 0.0180589 -5.87092e-20)
(0.297137 0.00750916 1.20029e-19)
(0.199906 0.000883379 3.14565e-20)
(0.123336 -0.00257902 -3.47956e-20)
(0.0661705 -0.00369888 -3.48486e-20)
(0.0269783 -0.00297583 0)
(0.00440785 -0.000349758 0)
(2.00419 0.228654 -4.95883e-20)
(2.0212 0.241085 -3.54908e-20)
(2.02406 0.247737 3.93759e-20)
(2.00749 0.25043 -5.30279e-20)
(1.96523 0.24638 1.20021e-19)
(1.89222 0.235508 0)
(1.7861 0.217532 8.4411e-20)
(1.64838 0.193603 0)
(1.4846 0.165546 9.76028e-22)
(1.30332 0.135726 0)
(1.11444 0.106471 0)
(0.927526 0.0796997 -7.60357e-20)
(0.75048 0.0566904 4.16768e-20)
(0.589015 0.0380572 1.40575e-19)
(0.446628 0.0238482 -9.92881e-20)
(0.324952 0.013703 5.36015e-20)
(0.22425 0.00701197 -1.14462e-19)
(0.143882 0.00305188 -1.54825e-19)
(0.0826799 0.0010614 1.28689e-19)
(0.0392024 0.000270311 1.51933e-21)
(0.0119964 0.000215934 7.13305e-20)
(-0.000200954 0.000957732 1.49154e-20)
(2.01365 0.205942 0)
(2.02032 0.216658 -3.67805e-20)
(2.00795 0.220748 4.08052e-20)
(1.97097 0.220421 1.44851e-21)
(1.9038 0.213072 -5.82899e-20)
(1.80364 0.199371 0)
(1.67134 0.17971 -1.6715e-19)
(1.51192 0.155864 0)
(1.33362 0.129898 5.46008e-20)
(1.14629 0.104025 0)
(0.959605 0.0800827 -6.8126e-20)
(0.781708 0.059343 2.22057e-19)
(0.618555 0.0424455 6.84377e-22)
(0.473844 0.0294831 -1.31221e-19)
(0.349353 0.0201446 -4.70426e-20)
(0.245429 0.0138635 5.32308e-20)
(0.16148 0.00994484 -1.09384e-19)
(0.0963725 0.00766139 2.87269e-20)
(0.0487125 0.00629818 0)
(0.0170094 0.00515836 3.31842e-20)
(-0.000132201 0.00382404 0)
(-0.0038557 0.00235293 1.33721e-20)
(2.01491 0.183065 0)
(2.00754 0.191798 0)
(1.97559 0.193219 0)
(1.91431 0.189993 -1.23614e-21)
(1.81989 0.179965 -1.23555e-19)
(1.69279 0.164593 7.19964e-20)
(1.53746 0.144818 1.66775e-19)
(1.36187 0.12274 -9.2058e-20)
(1.17585 0.100317 0)
(0.989232 0.0793443 0)
(0.810412 0.0610588 -6.55938e-20)
(0.645591 0.0461234 -1.75474e-21)
(0.498664 0.0346722 -3.72667e-20)
(0.371537 0.0264447 8.49563e-20)
(0.264622 0.0209251 4.67071e-20)
(0.177349 0.0174621 5.02545e-20)
(0.108586 0.0153574 1.06205e-19)
(0.0569406 0.0139283 -1.40024e-19)
(0.0209489 0.0125301 -2.90954e-20)
(-0.000833841 0.010547 3.05269e-20)
(-0.00970123 0.00760619 0)
(-0.00666828 0.00375977 -2.80664e-20)
(2.00654 0.158969 5.8252e-20)
(1.98039 0.165472 -1.53565e-19)
(1.92466 0.164342 8.62052e-20)
(1.83617 0.158837 5.34802e-20)
(1.71417 0.147335 1.26397e-21)
(1.56284 0.131894 -1.42622e-19)
(1.38976 0.113748 -8.11067e-20)
(1.20482 0.0949669 0)
(1.01804 0.0771444 5.08566e-20)
(0.838112 0.0615296 0)
(0.67152 0.0487873 0)
(0.522363 0.0390954 0)
(0.392668 0.0322444 7.61902e-20)
(0.282904 0.0277738 4.07526e-20)
(0.192509 0.0250841 -1.30979e-19)
(0.120332 0.0235219 0)
(0.0649584 0.0224351 -1.01904e-19)
(0.0249105 0.0212104 2.15278e-19)
(-0.00123731 0.0192821 -8.41791e-20)
(-0.0148288 0.0161156 -3.04108e-20)
(-0.017037 0.011381 0)
(-0.00875612 0.00512266 0)
(1.98248 0.134891 6.62799e-20)
(1.93419 0.139271 -7.80263e-20)
(1.85183 0.136093 4.10647e-20)
(1.73581 0.12916 1.04778e-19)
(1.58878 0.117421 -6.20029e-20)
(1.41846 0.103313 7.05307e-20)
(1.23455 0.0880873 8.00784e-20)
(1.04746 0.0735091 0)
(0.866226 0.0606765 5.04026e-20)
(0.697677 0.0502923 -1.09394e-19)
(0.546163 0.0425525 6.01282e-20)
(0.413856 0.0372956 0)
(0.30128 0.0341112 -1.27721e-21)
(0.207872 0.0324514 7.94803e-20)
(0.132453 0.0317106 -1.26692e-19)
(0.0735699 0.0312785 9.06312e-20)
(0.0297134 0.0305718 1.46104e-19)
(-0.000556737 0.0290537 -1.0305e-19)
(-0.0185644 0.0262364 5.39578e-20)
(-0.0255245 0.0216618 -8.70838e-20)
(-0.0224873 0.0150413 1.19545e-19)
(-0.0102426 0.00641264 -1.0256e-19)
(1.94484 0.10873 0)
(1.86962 0.111278 -7.87279e-20)
(1.75953 0.107012 0)
(1.61749 0.0999879 0)
(1.44996 0.0897001 6.11564e-20)
(1.26711 0.0784633 -7.06196e-20)
(1.07944 0.0673402 7.75108e-20)
(0.896563 0.057602 0)
(0.725695 0.0498578 -1.14472e-21)
(0.571517 0.044359 1.06364e-19)
(0.436375 0.0409805 -5.93215e-20)
(0.320863 0.0393664 0)
(0.224413 0.0390215 -7.07302e-20)
(0.145804 0.0393904 7.55699e-20)
(0.0835316 0.0399077 1.21937e-19)
(0.0360421 0.0400281 4.35054e-20)
(0.00186323 0.0392426 -4.7635e-20)
(-0.0203385 0.037089 1.00372e-19)
(-0.0317519 0.0331516 -2.10873e-19)
(-0.0334547 0.0270432 -5.55306e-20)
(-0.0263825 0.0185172 0)
(-0.0112406 0.00761136 0)
(1.88304 0.0850609 0)
(1.78321 0.0864104 1.58882e-19)
(1.64674 0.0818042 4.60347e-21)
(1.48363 0.075643 -1.04656e-19)
(1.30236 0.0676509 0)
(1.11448 0.0598492 -6.87472e-20)
(0.929876 0.0530232 -7.68928e-20)
(0.756475 0.0479071 0)
(0.599339 0.0446982 -9.52054e-20)
(0.461089 0.0433106 0)
(0.342429 0.043421 0)
(0.242811 0.0445795 -1.25394e-19)
(0.160975 0.0462751 6.7645e-20)
(0.0953571 0.0479823 -7.41355e-20)
(0.0443445 0.0491898 3.84774e-20)
(0.00642163 0.0494155 -8.77502e-22)
(-0.0197707 0.0482149 1.36247e-19)
(-0.0354231 0.0451882 7.85528e-22)
(-0.0415794 0.0399808 -5.00197e-20)
(-0.039185 0.0322678 -8.04344e-20)
(-0.0290724 0.0218421 2.51927e-19)
(-0.0118763 0.00874625 -9.67538e-20)
(1.81384 0.0576379 -6.4699e-20)
(1.68336 0.058651 8.0854e-20)
(1.52438 0.0559099 -2.7596e-19)
(1.34521 0.0518106 2.09824e-19)
(1.15662 0.0476428 0)
(0.969835 0.0442865 1.35788e-19)
(0.793175 0.0422875 8.88587e-22)
(0.632331 0.041824 0)
(0.490247 0.0427996 -9.27392e-20)
(0.36782 0.0449423 -2.05799e-22)
(0.264553 0.0478692 0)
(0.179162 0.0511428 0)
(0.110013 0.054302 6.61676e-20)
(0.0554104 0.0568845 7.13788e-20)
(0.0137666 0.05844 -7.75034e-20)
(-0.0163282 0.0585411 -4.15156e-20)
(-0.0360892 0.0567918 -8.79414e-20)
(-0.0465563 0.0528365 0)
(-0.0486315 0.0463662 9.90628e-20)
(-0.0431362 0.0371078 -1.03581e-19)
(-0.0308113 0.0248938 -1.36353e-19)
(-0.0122343 0.00978059 2.32078e-20)
(1.67101 0.0388162 -3.81062e-20)
(1.50849 0.0370673 1.97022e-21)
(1.32753 0.0361346 4.92616e-20)
(1.13946 0.0349184 -1.11939e-19)
(0.95413 0.034865 0)
(0.779786 0.0358994 -2.78064e-22)
(0.621565 0.0381775 7.87031e-20)
(0.482187 0.0415106 0)
(0.362318 0.0456494 0)
(0.261306 0.0502729 2.11251e-19)
(0.177735 0.0550234 -1.71648e-19)
(0.109865 0.05952 -1.25214e-19)
(0.0559195 0.0633678 1.34536e-19)
(0.0142498 0.0661668 0)
(-0.0165889 0.0675222 -7.94023e-20)
(-0.0378212 0.0670571 1.67121e-19)
(-0.0504726 0.0644247 -4.37724e-20)
(-0.0554068 0.0593225 4.66562e-20)
(-0.0533716 0.0515028 4.90375e-20)
(-0.0450558 0.0407707 -5.12299e-20)
(-0.0310963 0.0270352 0)
(-0.0120088 0.0104047 -2.34784e-20)
(1.42224 0.0177668 1.55371e-19)
(1.23891 0.0183365 0)
(1.05385 0.0217378 5.20111e-20)
(0.875443 0.0248579 1.75922e-19)
(0.710333 0.029365 -6.58558e-20)
(0.562472 0.0343687 3.07038e-22)
(0.43355 0.0399739 0)
(0.323574 0.0458879 0)
(0.231464 0.0519103 9.75724e-20)
(0.155577 0.0577916 0)
(0.0940698 0.0632618 1.74824e-19)
(0.045141 0.0680226 -1.25652e-19)
(0.0071626 0.0717524 -6.77925e-20)
(-0.0212657 0.0741153 0)
(-0.0413112 0.0747748 -7.88419e-20)
(-0.0539324 0.07341 8.38559e-20)
(-0.0599183 0.0697319 -8.84821e-20)
(-0.0599319 0.0635 -4.71453e-20)
(-0.0545525 0.0545341 -9.81979e-20)
(-0.0443199 0.042716 5.16393e-20)
(-0.0297387 0.0280261 -2.62947e-20)
(-0.0112274 0.0106014 1.1358e-19)
(1.13771 0.00643496 -8.3775e-20)
(0.956687 0.00995262 4.8002e-20)
(0.787985 0.0172003 -2.13863e-19)
(0.633566 0.0234715 -6.03282e-20)
(0.497368 0.0308272 6.7102e-20)
(0.37972 0.0380644 -1.49472e-19)
(0.280235 0.0453568 8.20512e-20)
(0.197455 0.0524402 -9.08188e-20)
(0.129617 0.0591849 3.79545e-23)
(0.0748398 0.065405 -1.07831e-19)
(0.0313522 0.0708934 -1.76309e-19)
(-0.00242279 0.0754067 2.54252e-19)
(-0.027825 0.0786717 -6.79185e-20)
(-0.0459603 0.0803961 0)
(-0.0577258 0.0802842 0)
(-0.063846 0.0780558 4.15545e-20)
(-0.0649137 0.0734647 4.39478e-20)
(-0.0614286 0.0663158 1.39467e-19)
(-0.0538311 0.0564775 -9.65447e-20)
(-0.0425355 0.043886 -2.51465e-20)
(-0.0279336 0.0285683 -7.84762e-20)
(-0.0103597 0.0106709 6.66663e-20)
(0.853793 0.00162485 8.52066e-20)
(0.692774 0.00872123 0)
(0.551944 0.0184321 -1.10156e-19)
(0.4275 0.0267791 0)
(0.321824 0.0355235 -6.88357e-20)
(0.232999 0.0436809 7.55817e-20)
(0.159766 0.0514566 0)
(0.100154 0.0586902 0)
(0.052346 0.0653277 2.0109e-19)
(0.0146156 0.0712482 -5.45566e-20)
(-0.0145412 0.0762967 2.37235e-19)
(-0.0363984 0.0802703 -2.56074e-19)
(-0.0520026 0.0829286 1.37502e-19)
(-0.0621973 0.0840064 0)
(-0.067656 0.0832328 -7.88073e-20)
(-0.0689177 0.0803515 -8.37543e-20)
(-0.0664222 0.0751408 4.36765e-20)
(-0.0605403 0.0674306 4.6074e-20)
(-0.0516001 0.0571148 -4.78844e-20)
(-0.0399099 0.0441574 2.52829e-20)
(-0.0257644 0.0286047 0)
(-0.00942255 0.0105961 0)
(0.595066 0.00307508 0)
(0.463798 0.012856 5.03768e-20)
(0.354191 0.0232089 5.62501e-20)
(0.25992 0.0322541 3.56892e-22)
(0.1823 0.0410144 -6.92745e-20)
(0.11857 0.0489807 -7.71265e-20)
(0.0672943 0.0563411 1.69258e-19)
(0.0265509 0.0630399 -9.25683e-20)
(-0.00523903 0.0690693 0)
(-0.0295033 0.07435 -3.39056e-22)
(-0.0474339 0.0787547 -5.98578e-20)
(-0.0600148 0.0821029 -6.41077e-20)
(-0.0680397 0.0841716 0)
(-0.0721406 0.0847117 1.10804e-19)
(-0.0728185 0.0834671 -7.85787e-20)
(-0.0704729 0.0801956 4.4971e-22)
(-0.0654292 0.074689 0)
(-0.0579614 0.0667886 -2.28665e-20)
(-0.0483105 0.056398 7.21229e-20)
(-0.0366995 0.0434891 -1.24004e-19)
(-0.0233441 0.028106 0)
(-0.00843976 0.0103633 0)
(0.375553 0.00804584 -8.9745e-20)
(0.276123 0.0188247 0)
(0.195794 0.0285949 5.71874e-20)
(0.128436 0.0372256 6.41166e-20)
(0.0745265 0.0451484 -7.00948e-20)
(0.0314019 0.0522552 0)
(-0.00225155 0.0587042 0)
(-0.0280582 0.0645138 0)
(-0.0472857 0.0696981 -5.08557e-20)
(-0.06105 0.0742003 5.54054e-20)
(-0.0702631 0.0779082 -1.19776e-19)
(-0.0756683 0.0806539 6.48481e-20)
(-0.0778598 0.0822262 3.44981e-20)
(-0.0773089 0.0823874 -3.31596e-22)
(-0.0743886 0.0808923 0)
(-0.0693967 0.0775081 -4.11635e-23)
(-0.0625757 0.0720336 1.74818e-19)
(-0.0541291 0.0643133 -1.37148e-19)
(-0.0442331 0.0542487 1.1904e-19)
(-0.0330453 0.041806 1.2317e-19)
(-0.0207221 0.0270113 -1.01197e-19)
(-0.00741323 0.00994115 7.40184e-20)
(0.19894 0.0142138 4.58755e-20)
(0.128449 0.024247 5.16493e-20)
(0.0730927 0.0326952 -1.14849e-19)
(0.0280781 0.0401639 1.2746e-19)
(-0.00672308 0.0467943 -7.11237e-20)
(-0.0334853 0.0526997 7.80257e-20)
(-0.0533191 0.0580149 0)
(-0.0674973 0.0627967 4.73759e-20)
(-0.0769977 0.0670646 -5.09517e-20)
(-0.0826636 0.0707715 5.54645e-20)
(-0.0851779 0.073813 0)
(-0.0850932 0.0760303 0)
(-0.0828507 0.0772233 -3.48195e-20)
(-0.078801 0.0771661 3.68569e-20)
(-0.0732237 0.0756251 -1.56924e-19)
(-0.0663435 0.0723775 1.24045e-19)
(-0.0583447 0.0672273 -8.69709e-20)
(-0.0493822 0.0600192 -2.28449e-20)
(-0.039587 0.050648 -2.34734e-20)
(-0.0290706 0.0390664 0)
(-0.0179505 0.0252741 0)
(-0.00635082 0.00930235 1.33638e-22)
(0.062704 0.0197187 -4.62929e-20)
(0.0162794 0.0277577 5.13351e-20)
(-0.0188543 0.0344305 5.80807e-20)
(-0.0460972 0.040344 -6.4039e-20)
(-0.0659326 0.0455152 -7.10512e-20)
(-0.08 0.0501198 0)
(-0.0892016 0.0542683 0)
(-0.0944912 0.0580253 -4.72387e-20)
(-0.0966 0.0614059 5.14803e-20)
(-0.0961476 0.0643662 -5.60198e-20)
(-0.0936331 0.0668075 -3.00407e-20)
(-0.0894598 0.0685819 0)
(-0.0839512 0.0695031 -6.94073e-20)
(-0.0773675 0.069361 1.4776e-19)
(-0.0699195 0.0679379 -1.17597e-19)
(-0.0617805 0.0650242 8.25467e-20)
(-0.0530953 0.060433 8.65955e-20)
(-0.0439873 0.0540106 -1.8064e-19)
(-0.0345597 0.045646 4.69174e-20)
(-0.0248956 0.0352776 1.2069e-19)
(-0.0150926 0.022877 0)
(-0.00526926 0.00843045 2.04747e-20)
(-0.0380991 0.0231883 0)
(-0.0653155 0.028738 0)
(-0.0845199 0.0334578 0)
(-0.0980134 0.037709 6.48431e-20)
(-0.106407 0.041443 -1.78737e-19)
(-0.110881 0.0448022 7.86876e-20)
(-0.112133 0.0478639 -1.30022e-19)
(-0.110849 0.0506792 9.45795e-20)
(-0.107551 0.0532538 5.17602e-20)
(-0.102676 0.0555443 5.59893e-20)
(-0.0965757 0.0574599 -3.00216e-20)
(-0.0895351 0.0588665 0)
(-0.0817862 0.0595969 0)
(-0.0735207 0.0594624 0)
(-0.0648988 0.0582668 -1.36871e-19)
(-0.0560575 0.0558201 8.23124e-20)
(-0.0471158 0.0519502 -8.62217e-20)
(-0.0381788 0.0465115 8.98688e-20)
(-0.0293354 0.0393929 -1.86483e-22)
(-0.0206551 0.0305238 -1.21398e-20)
(-0.0122322 0.0198528 1.22199e-20)
(-0.00419668 0.00732839 -9.09171e-20)
(-0.107849 0.0236464 4.67512e-20)
(-0.120082 0.0268965 -5.18068e-20)
(-0.127062 0.0298266 2.94663e-20)
(-0.130276 0.0325714 -3.22061e-20)
(-0.130274 0.035046 3.59823e-20)
(-0.127852 0.0373268 0)
(-0.123505 0.0394544 4.35605e-20)
(-0.117687 0.0414581 -4.7562e-20)
(-0.110747 0.0433342 -1.53626e-22)
(-0.102971 0.0450416 2.79983e-20)
(-0.0945904 0.046501 -3.01558e-20)
(-0.085798 0.0475976 0)
(-0.0767549 0.0481882 1.7306e-20)
(-0.0676003 0.0481113 0)
(-0.0584574 0.0471984 1.00096e-22)
(-0.0494374 0.0452852 0)
(-0.0406424 0.0422218 -8.59333e-20)
(-0.0321675 0.0378793 1.78924e-19)
(-0.0240965 0.0321563 -1.15869e-19)
(-0.0164962 0.0249829 -1.19518e-20)
(-0.00946938 0.0162968 8.50486e-20)
(-0.00316995 0.00602284 -1.5986e-19)
(-0.148859 0.0208822 0)
(-0.150027 0.0224349 0)
(-0.148238 0.0240066 2.92686e-20)
(-0.144363 0.0255898 -3.25537e-20)
(-0.138769 0.0270878 3.58751e-20)
(-0.131928 0.028521 0)
(-0.124139 0.0299017 4.36183e-20)
(-0.115667 0.0312414 -4.74823e-20)
(-0.106716 0.0325321 -2.58555e-20)
(-0.0974528 0.0337398 8.43029e-20)
(-0.0880163 0.0348015 3.04474e-20)
(-0.078527 0.0356267 9.48087e-23)
(-0.0690933 0.036101 -6.94293e-20)
(-0.0598157 0.0360948 0)
(-0.0507897 0.0354714 -5.84616e-20)
(-0.0421079 0.0340973 6.15578e-20)
(-0.0338602 0.0318508 0)
(-0.0261354 0.0286276 0)
(-0.0190154 0.0243464 9.21819e-20)
(-0.0125691 0.018952 -1.06767e-19)
(-0.00691344 0.012387 0)
(-0.00223197 0.00457361 4.94412e-21)
(-0.161797 0.0155341 4.6474e-20)
(-0.155984 0.0161167 0)
(-0.148948 0.0168596 0)
(-0.141111 0.0176884 0)
(-0.132625 0.0185189 -1.81066e-20)
(-0.123716 0.0193437 3.98402e-20)
(-0.11452 0.0201626 -4.35087e-20)
(-0.105161 0.0209804 0)
(-0.095736 0.0217918 -5.19342e-20)
(-0.0863254 0.0225749 5.61572e-20)
(-0.0770016 0.0232875 1.51569e-20)
(-0.0678337 0.0238661 0)
(-0.0588917 0.0242287 -2.44768e-23)
(-0.0502478 0.0242797 -7.38679e-20)
(-0.0419778 0.0239168 6.82865e-20)
(-0.0341597 0.0230389 -5.12312e-20)
(-0.0268735 0.0215548 8.57866e-20)
(-0.0202005 0.0193889 0)
(-0.0142188 0.0164878 0)
(-0.00899712 0.0128229 -4.1328e-20)
(-0.00466188 0.00836349 4.83761e-20)
(-0.00142235 0.00305979 -6.35526e-24)
(-0.147253 0.00918375 2.34405e-20)
(-0.138723 0.00937642 0)
(-0.129997 0.0097162 -1.48148e-20)
(-0.121231 0.0101194 3.24793e-20)
(-0.112424 0.0105328 -3.13929e-23)
(-0.103648 0.0109462 0)
(-0.0949443 0.0113605 1.09324e-20)
(-0.0863514 0.011782 -5.9883e-20)
(-0.0779002 0.0122119 1.30153e-19)
(-0.0696186 0.0126419 -5.63157e-20)
(-0.0615356 0.0130509 -1.52117e-20)
(-0.0536855 0.013403 0)
(-0.0461103 0.0136489 6.1012e-20)
(-0.0388613 0.0137276 -7.39941e-20)
(-0.0319981 0.0135712 -2.93266e-20)
(-0.025587 0.0131106 -1.02607e-20)
(-0.0196978 0.0122824 4.83184e-20)
(-0.0144028 0.0110369 0)
(-0.00977055 0.00934668 -5.18069e-20)
(-0.00586115 0.0072126 1.19332e-20)
(-0.00279317 0.00464351 4.23272e-20)
(-0.000778496 0.00164559 -4.91784e-21)
(-0.106968 0.00354305 -5.86819e-20)
(-0.0996304 0.00365356 2.64788e-20)
(-0.0924169 0.00380215 -1.44301e-20)
(-0.0854171 0.00395018 -6.539e-20)
(-0.0785727 0.00408446 1.79589e-20)
(-0.071907 0.00420801 0)
(-0.0654207 0.00432738 -5.49485e-20)
(-0.0591194 0.00445057 5.98377e-20)
(-0.0530039 0.00458298 -6.53367e-21)
(-0.0470747 0.00472546 -5.66508e-20)
(-0.0413355 0.0048728 6.09161e-20)
(-0.0357965 0.00501278 0)
(-0.0304778 0.00512565 -1.31093e-20)
(-0.0254106 0.00518435 0)
(-0.0206375 0.00515555 0)
(-0.0162106 0.00500193 5.16024e-21)
(-0.0121885 0.00468622 -4.56803e-20)
(-0.00863275 0.00417759 4.1907e-20)
(-0.00559992 0.00346229 5.76618e-21)
(-0.00313375 0.00255616 -5.92113e-21)
(-0.00131555 0.0015053 9.07671e-21)
(-0.000310551 0.000408995 0)
(-0.0431758 0.000324414 3.46292e-20)
(-0.040094 0.000375611 -2.55476e-20)
(-0.0370044 0.000416628 -5.5904e-23)
(-0.034025 0.000443586 -3.19042e-20)
(-0.0311298 0.00046013 3.49733e-20)
(-0.0283406 0.000470821 0)
(-0.025659 0.000479497 0)
(-0.023085 0.000489657 0)
(-0.0206134 0.000504091 6.29723e-21)
(-0.0182368 0.000524779 -2.65371e-23)
(-0.0159479 0.000552685 0)
(-0.0137417 0.000587433 1.53104e-23)
(-0.0116185 0.000626874 4.17122e-21)
(-0.00958518 0.000666537 3.54933e-20)
(-0.00765701 0.000699065 -3.74368e-20)
(-0.00585852 0.000713833 -4.42168e-20)
(-0.00422329 0.000697134 3.85123e-20)
(-0.0027929 0.000633741 4.52816e-20)
(-0.00161241 0.000511606 -4.40925e-20)
(-0.000721098 0.000330378 0)
(-0.000161655 0.00011222 4.33542e-20)
(7.97696e-06 -6.30484e-05 -2.69088e-23)
(1.13658 0.0270791 3.3578e-20)
(1.09053 0.0288577 0)
(1.04244 0.0306802 0)
(0.992205 0.0325482 -2.58271e-20)
(0.939926 0.0344673 0)
(0.885692 0.0364446 -3.31715e-20)
(0.829594 0.0384832 -3.80237e-20)
(0.77174 0.0405843 4.13256e-20)
(0.712248 0.0427473 -2.31963e-20)
(0.651247 0.0449697 -2.56362e-20)
(0.588883 0.0472436 1.07855e-25)
(0.525321 0.0495447 3.11448e-20)
(0.460779 0.0518081 -3.31657e-20)
(0.395589 0.0538886 5.41392e-20)
(0.330304 0.0555157 4.49659e-22)
(0.265823 0.0562652 -2.03029e-20)
(0.203511 0.0555698 0)
(0.145252 0.0527765 2.25605e-20)
(0.0933083 0.0472442 -2.3318e-20)
(0.0500814 0.0384527 0)
(0.0188127 0.0260692 -2.50253e-20)
(0.00354426 0.0100015 2.54422e-20)
(1.14112 0.0830322 0)
(1.09553 0.0889306 0)
(1.04806 0.0951002 4.59469e-20)
(0.998419 0.101511 2.76264e-20)
(0.946732 0.108157 -5.7505e-20)
(0.893092 0.115041 3.31629e-20)
(0.837588 0.12216 1.12221e-19)
(0.780328 0.12951 -8.19584e-20)
(0.721432 0.137081 6.89371e-20)
(0.66103 0.144858 2.45492e-20)
(0.599263 0.15281 5.54529e-20)
(0.536294 0.160847 0)
(0.472325 0.16874 0)
(0.407656 0.175989 1.73356e-20)
(0.342781 0.18168 -7.65067e-20)
(0.278508 0.184397 6.00211e-20)
(0.216078 0.182272 2.1e-20)
(0.157228 0.173173 8.91924e-20)
(0.104072 0.155027 -9.21899e-20)
(0.0588865 0.126163 7.23379e-20)
(0.0248217 0.0855256 -9.81354e-20)
(0.00587794 0.0328348 -8.593e-20)
(1.14994 0.138976 6.59073e-20)
(1.10532 0.14901 7.87567e-20)
(1.0591 0.159449 4.71336e-22)
(1.01064 0.170285 0)
(0.960138 0.181506 0)
(0.907693 0.193125 0)
(0.853393 0.205139 -3.67409e-20)
(0.797347 0.217542 -8.02816e-20)
(0.739675 0.23032 -4.56656e-20)
(0.680505 0.243453 -1.51501e-19)
(0.619976 0.256884 1.62581e-19)
(0.558237 0.270466 -1.20624e-19)
(0.495462 0.28381 2.58925e-19)
(0.431885 0.296069 -2.4198e-19)
(0.367876 0.305697 -1.4941e-19)
(0.304053 0.310303 1.18144e-19)
(0.241403 0.306735 -1.87412e-19)
(0.181369 0.291409 1.7295e-19)
(0.12577 0.260844 0)
(0.0766296 0.212244 2.36011e-20)
(0.0369248 0.143855 0)
(0.0105765 0.0552224 5.95621e-20)
(1.1621 0.192168 -6.56673e-20)
(1.11903 0.206219 0)
(1.07478 0.220787 -8.71122e-20)
(1.02818 0.235928 -9.98469e-20)
(0.979536 0.251617 1.09611e-19)
(0.928944 0.267866 -1.2356e-19)
(0.876497 0.284675 0)
(0.82231 0.302031 8.00376e-20)
(0.766503 0.319919 0)
(0.709206 0.338305 0)
(0.650554 0.357116 -5.38804e-20)
(0.590681 0.376141 5.66167e-20)
(0.529714 0.394839 6.1221e-20)
(0.46779 0.412021 6.83499e-20)
(0.405098 0.425523 -7.00655e-20)
(0.341972 0.432004 3.86543e-20)
(0.279019 0.42706 0)
(0.217242 0.405701 0)
(0.158022 0.363092 -1.73945e-19)
(0.10301 0.29537 1.78937e-19)
(0.0549219 0.200137 -4.50157e-20)
(0.0175607 0.0767994 -1.14185e-19)
(1.17758 0.242744 -1.22542e-19)
(1.13658 0.26068 -1.41971e-19)
(1.09493 0.279177 0)
(1.0508 0.298418 1.92067e-19)
(1.00461 0.318359 -1.06077e-19)
(0.956475 0.339014 2.41223e-19)
(0.906483 0.360384 1.32581e-19)
(0.854758 0.382458 0)
(0.801425 0.405215 0)
(0.746612 0.428617 9.03604e-20)
(0.690451 0.452571 9.893e-20)
(0.633054 0.47681 -1.71457e-19)
(0.574492 0.500644 1.76146e-19)
(0.514771 0.522559 0)
(0.453838 0.539792 4.10243e-19)
(0.391654 0.548084 1.75829e-21)
(0.328323 0.54183 -3.02732e-19)
(0.264273 0.514687 0)
(0.200308 0.460538 0)
(0.137595 0.374528 -4.11177e-20)
(0.0785113 0.253679 8.73829e-20)
(0.0267092 0.0972988 -1.85538e-20)
(1.19594 0.289413 1.27129e-19)
(1.15754 0.311061 5.42875e-21)
(1.11912 0.33325 3.14962e-19)
(1.07804 0.35636 -1.77058e-19)
(1.03489 0.380311 -1.04188e-19)
(0.989785 0.405123 -3.50576e-19)
(0.942827 0.430801 1.22432e-19)
(0.894143 0.457333 -2.84915e-19)
(0.84386 0.484697 1.57446e-19)
(0.792111 0.512849 8.69956e-20)
(0.73902 0.541681 -3.81623e-19)
(0.684675 0.570877 1.7762e-21)
(0.62908 0.599607 2.4755e-21)
(0.57208 0.626051 -3.65442e-19)
(0.513328 0.646877 1.8941e-19)
(0.452323 0.656949 -2.71181e-19)
(0.388553 0.649514 5.67895e-19)
(0.321735 0.61695 -2.95806e-19)
(0.251971 0.551938 -3.07789e-19)
(0.179839 0.448714 3.9471e-20)
(0.107316 0.303799 2.44676e-19)
(0.03787 0.116457 1.35279e-19)
(1.21674 0.331597 2.25408e-19)
(1.18145 0.356729 -1.27199e-19)
(1.1468 0.382312 -1.53036e-19)
(1.1093 0.408995 -1.72335e-19)
(1.06971 0.436657 3.755e-19)
(1.02816 0.465323 0)
(0.984762 0.495002 0)
(0.939648 0.525682 8.39415e-21)
(0.892953 0.55734 1.43976e-19)
(0.84481 0.589928 0)
(0.795338 0.623325 1.78637e-19)
(0.744599 0.657171 2.02064e-19)
(0.692514 0.690514 -2.08033e-19)
(0.638745 0.721249 -3.39815e-19)
(0.582598 0.745515 2.36631e-19)
(0.523027 0.757349 -3.09557e-19)
(0.458792 0.748913 3.23787e-19)
(0.388774 0.711383 0)
(0.312255 0.636323 0)
(0.229133 0.517155 -2.92071e-19)
(0.14092 0.349982 3.66831e-20)
(0.0508788 0.134081 2.18183e-19)
(1.23929 0.3686 -8.29904e-22)
(1.20761 0.396967 1.15644e-20)
(1.17726 0.42563 -2.37022e-21)
(1.14383 0.455564 1.53267e-19)
(1.10829 0.486592 -3.66053e-19)
(1.0708 0.518748 1.98629e-19)
(1.03144 0.55205 0)
(0.990377 0.58649 2.49386e-19)
(0.947748 0.62205 -1.42842e-19)
(0.90369 0.658683 0)
(0.858319 0.69626 4.03364e-19)
(0.811672 0.734389 -2.62022e-19)
(0.763584 0.772013 9.13271e-20)
(0.713512 0.806776 0)
(0.660374 0.834332 1.02485e-19)
(0.602503 0.847946 5.94218e-20)
(0.537827 0.838766 -6.2657e-21)
(0.464271 0.79684 -3.02829e-19)
(0.380181 0.712707 5.07641e-19)
(0.28469 0.579066 -2.00122e-19)
(0.178795 0.391701 0)
(0.0655279 0.149969 2.28007e-19)
(1.26285 0.399852 0)
(1.23525 0.431127 3.376e-19)
(1.20961 0.462498 -8.88943e-21)
(1.18064 0.495329 -1.51681e-19)
(1.14956 0.529372 1.67223e-19)
(1.11652 0.564671 -1.83121e-19)
(1.08163 0.601248 2.08411e-19)
(1.04506 0.639094 -5.76372e-19)
(1.00695 0.678193 1.29598e-19)
(0.967448 0.718499 0)
(0.926664 0.759877 -1.5648e-19)
(0.884605 0.801913 -1.532e-19)
(0.841016 0.843466 -2.63079e-19)
(0.795133 0.881969 9.67741e-20)
(0.745443 0.91264 -1.01849e-19)
(0.689588 0.928046 0)
(0.624567 0.918391 -5.55953e-20)
(0.547231 0.87268 3.23657e-19)
(0.454885 0.78052 -2.23719e-19)
(0.345823 0.633986 -6.13695e-20)
(0.220482 0.428645 0)
(0.0816397 0.164009 2.64849e-20)
(1.28652 0.425202 1.80187e-19)
(1.26348 0.459097 -4.70968e-21)
(1.24297 0.492826 -3.58244e-19)
(1.21888 0.52815 -1.35987e-19)
(1.19266 0.564755 1.49364e-19)
(1.16444 0.602706 0)
(1.13436 0.642045 0)
(1.1026 0.682775 -9.88071e-20)
(1.06933 0.724891 1.19119e-19)
(1.03471 0.768352 0)
(0.998839 0.813032 3.94568e-19)
(0.961716 0.858506 1.51274e-19)
(0.922998 0.90358 -3.06358e-19)
(0.881699 0.945515 1.02245e-20)
(0.835854 0.979156 0)
(0.782358 0.996431 0)
(0.717185 0.98667 0)
(0.635999 0.93791 -5.01662e-20)
(0.534951 0.83891 0)
(0.41142 0.681229 0)
(0.265246 0.460332 4.59447e-20)
(0.0989274 0.176009 0)
(1.30941 0.444162 0)
(1.29128 0.48023 0)
(1.27609 0.51593 3.18004e-19)
(1.2571 0.553426 -1.20855e-19)
(1.23602 0.592298 -1.38064e-19)
(1.21294 0.632618 1.51224e-19)
(1.18803 0.674424 0)
(1.16148 0.717722 -7.86585e-20)
(1.13347 0.762507 9.59179e-20)
(1.10416 0.808749 -2.19458e-19)
(1.07365 0.856325 1.11176e-19)
(1.04193 0.904812 2.50442e-19)
(1.00857 0.952984 -1.43709e-19)
(0.972342 0.997972 7.48351e-20)
(0.93081 1.03432 0)
(0.880063 1.05339 1.46618e-19)
(0.814957 1.04373 -4.13648e-21)
(0.729872 0.992528 -8.69494e-20)
(0.619719 0.887785 1.91321e-19)
(0.480914 0.72066 -1.6155e-19)
(0.312684 0.486644 -2.12189e-19)
(0.117231 0.185923 1.39004e-19)
(1.33058 0.45748 0)
(1.31798 0.495489 -8.62777e-21)
(1.30848 0.532734 -1.02729e-20)
(1.29492 0.571831 -1.11187e-19)
(1.27917 0.612325 4.72358e-21)
(1.26136 0.65433 -1.29834e-19)
(1.24169 0.697911 1.50576e-19)
(1.22041 0.743086 9.65463e-21)
(1.1977 0.789866 8.33565e-20)
(1.17376 0.83823 -1.9245e-19)
(1.1487 0.888076 0)
(1.1225 0.939002 0)
(1.09467 0.989789 -2.27166e-19)
(1.06379 1.0375 -2.3063e-19)
(1.02694 1.07643 2.99219e-19)
(0.979397 1.09747 1.83573e-19)
(0.914812 1.08842 -2.5052e-19)
(0.826153 1.03562 5.14195e-20)
(0.706963 0.92642 -3.86378e-20)
(0.552612 0.751684 -2.50608e-19)
(0.3617 0.507124 2.57018e-19)
(0.136125 0.193548 -2.17192e-19)
(1.34908 0.464005 2.70237e-19)
(1.34207 0.5035 -5.69535e-21)
(1.33819 0.542182 -1.7602e-19)
(1.33026 0.582855 -8.95703e-20)
(1.32017 0.624953 6.13635e-21)
(1.30803 0.668593 2.49041e-19)
(1.29405 0.713845 1.25466e-19)
(1.2785 0.760741 -7.52853e-22)
(1.26158 0.809301 -3.10129e-19)
(1.2435 0.859515 2.82381e-21)
(1.22438 0.911293 1.7696e-19)
(1.20419 0.964249 1.7981e-19)
(1.18239 1.01717 -8.92207e-20)
(1.15733 1.06708 1.87397e-19)
(1.1256 1.10809 -6.54941e-20)