/*--------------------------------*- C++ -*----------------------------------*\
| =========                 |                                                 |
| \\      /  F ield         | OpenFOAM Extend Project: Open source CFD        |
|  \\    /   O peration     | Version:  1.6-ext                               |
|   \\  /    A nd           | Web:      www.extend-project.de                 |
|    \\/     M anipulation  |                                                 |
\*---------------------------------------------------------------------------*/
FoamFile
{
    version     2.0;
    format      ascii;
    class       volScalarField::DimensionedInternalField;
    location    "0.5";
    object      V0;
}
// * * * * * * * * * * * * * * * * * * * * * * * * * * * * * * * * * * * * * //

dimensions      [0 3 0 0 0 0 0];

value           nonuniform List<scalar> 
20940
(
1.17105e-06
1.03802e-06
9.20985e-07
8.17949e-07
7.27177e-07
6.47151e-07
5.76547e-07
5.14205e-07
4.59114e-07
4.10391e-07
3.67261e-07
3.29048e-07
2.95161e-07
2.65081e-07
2.38355e-07
2.14582e-07
1.93415e-07
1.74546e-07
1.57708e-07
1.42665e-07
1.2921e-07
1.17162e-07
1.17121e-06
1.03816e-06
9.21105e-07
8.18056e-07
7.27273e-07
6.47238e-07
5.76627e-07
5.14282e-07
4.59188e-07
4.10462e-07
3.67329e-07
3.29112e-07
2.9522e-07
2.65135e-07
2.38402e-07
2.14625e-07
1.93455e-07
1.74584e-07
1.57745e-07
1.42701e-07
1.29245e-07
1.17196e-07
1.17378e-06
1.04044e-06
9.23127e-07
8.19853e-07
7.28872e-07
6.48665e-07
5.77901e-07
5.15421e-07
4.6021e-07
4.1138e-07
3.68156e-07
3.29859e-07
2.95895e-07
2.65744e-07
2.38952e-07
2.15121e-07
1.93902e-07
1.74989e-07
1.58112e-07
1.43035e-07
1.29551e-07
1.17477e-07
1.17804e-06
1.04421e-06
9.26481e-07
8.22834e-07
7.31527e-07
6.5103e-07
5.80012e-07
5.17306e-07
4.61896e-07
4.1289e-07
3.69511e-07
3.31078e-07
2.96993e-07
2.66736e-07
2.39848e-07
2.15931e-07
1.94634e-07
1.7565e-07
1.5871e-07
1.43577e-07
1.30044e-07
1.17926e-07
1.18328e-06
1.04889e-06
9.30667e-07
8.26586e-07
7.34895e-07
6.54059e-07
5.82739e-07
5.19765e-07
4.64114e-07
4.14894e-07
3.71323e-07
3.32718e-07
2.98481e-07
2.68088e-07
2.41079e-07
2.17054e-07
1.95659e-07
1.76586e-07
1.59564e-07
1.44357e-07
1.30756e-07
1.18577e-07
1.19009e-06
1.05499e-06
9.36133e-07
8.31494e-07
7.39311e-07
6.5804e-07
5.86335e-07
5.23018e-07
4.67062e-07
4.17567e-07
3.7375e-07
3.34923e-07
3.00487e-07
2.69914e-07
2.42744e-07
2.18574e-07
1.9705e-07
1.7786e-07
1.60732e-07
1.45427e-07
1.31735e-07
1.19473e-07
1.19842e-06
1.06249e-06
9.42891e-07
8.37585e-07
7.44805e-07
6.63003e-07
5.90827e-07
5.27093e-07
4.70766e-07
4.20941e-07
3.76827e-07
3.37732e-07
3.03052e-07
2.7226e-07
2.4489e-07
2.20539e-07
1.9885e-07
1.79512e-07
1.62249e-07
1.46822e-07
1.33018e-07
1.20653e-07
1.20832e-06
1.07145e-06
9.51004e-07
8.44937e-07
7.51471e-07
6.69049e-07
5.96314e-07
5.32078e-07
4.75303e-07
4.25078e-07
3.80608e-07
3.41194e-07
3.06226e-07
2.75172e-07
2.47565e-07
2.22996e-07
2.01108e-07
1.81588e-07
1.6416e-07
1.48583e-07
1.34643e-07
1.22154e-07
1.21971e-06
1.08181e-06
9.60438e-07
8.53541e-07
7.59323e-07
6.76218e-07
6.0286e-07
5.38055e-07
4.80761e-07
4.30065e-07
3.85169e-07
3.45373e-07
3.10064e-07
2.78702e-07
2.50816e-07
2.25993e-07
2.03873e-07
1.8414e-07
1.66516e-07
1.50759e-07
1.36655e-07
1.24016e-07
1.23249e-06
1.09349e-06
9.71131e-07
8.63338e-07
7.68312e-07
6.84474e-07
6.10449e-07
5.45033e-07
4.87176e-07
4.35962e-07
3.90587e-07
3.50351e-07
3.14641e-07
2.82916e-07
2.54702e-07
2.29583e-07
2.07193e-07
1.87213e-07
1.69361e-07
1.53394e-07
1.39096e-07
1.26277e-07
1.24645e-06
1.10632e-06
9.82932e-07
8.74207e-07
7.78332e-07
6.93722e-07
6.18992e-07
5.52933e-07
4.94486e-07
4.42728e-07
3.96849e-07
3.56144e-07
3.19995e-07
2.87862e-07
2.59273e-07
2.3381e-07
2.11108e-07
1.90842e-07
1.72729e-07
1.5652e-07
1.41998e-07
1.28972e-07
1.26202e-06
1.12069e-06
9.96197e-07
8.8646e-07
7.89656e-07
7.04195e-07
6.28687e-07
5.61914e-07
5.02814e-07
4.50456e-07
4.04025e-07
3.62809e-07
3.26186e-07
2.93609e-07
2.64602e-07
2.38748e-07
2.15683e-07
1.95083e-07
1.76664e-07
1.60175e-07
1.45395e-07
1.32131e-07
1.27843e-06
1.13595e-06
1.0104e-06
8.9967e-07
8.01943e-07
7.15623e-07
6.39315e-07
5.71801e-07
5.12014e-07
4.59021e-07
4.12005e-07
3.70248e-07
3.33122e-07
3.00079e-07
2.70636e-07
2.44371e-07
2.20917e-07
1.99951e-07
1.81191e-07
1.64385e-07
1.49313e-07
1.35779e-07
1.29573e-06
1.15216e-06
1.02557e-06
9.13872e-07
8.15236e-07
7.28061e-07
6.50947e-07
5.82672e-07
5.2217e-07
4.68505e-07
4.20861e-07
3.78519e-07
3.4085e-07
3.07301e-07
2.77389e-07
2.50686e-07
2.26821e-07
2.05467e-07
1.86338e-07
1.69185e-07
1.53787e-07
1.39948e-07
1.31368e-06
1.1691e-06
1.04154e-06
9.28919e-07
8.29402e-07
7.4139e-07
6.63483e-07
5.94456e-07
5.33239e-07
4.78893e-07
4.306e-07
3.87643e-07
3.49394e-07
3.15301e-07
2.84879e-07
2.57702e-07
2.33394e-07
2.11624e-07
1.92105e-07
1.7458e-07
1.5883e-07
1.44657e-07
1.24205e-06
1.10797e-06
9.89506e-07
8.8473e-07
7.91981e-07
7.09802e-07
6.36918e-07
5.72214e-07
5.14713e-07
4.63556e-07
4.17993e-07
3.77366e-07
3.411e-07
3.08692e-07
2.79698e-07
2.53729e-07
2.30443e-07
2.09535e-07
1.90738e-07
1.73817e-07
1.58565e-07
1.448e-07
1.21894e-06
1.08685e-06
9.70171e-07
8.6701e-07
7.75724e-07
6.9487e-07
6.23189e-07
5.5958e-07
5.03077e-07
4.52833e-07
4.08107e-07
3.68247e-07
3.32683e-07
3.00915e-07
2.72506e-07
2.47071e-07
2.24274e-07
2.03816e-07
1.85436e-07
1.68903e-07
1.5401e-07
1.40578e-07
1.19698e-06
1.06682e-06
9.51876e-07
8.50285e-07
7.60418e-07
6.80849e-07
6.10331e-07
5.47773e-07
4.92223e-07
4.42846e-07
3.98911e-07
3.59775e-07
3.24873e-07
2.93712e-07
2.65858e-07
2.4093e-07
2.18595e-07
1.9856e-07
1.80568e-07
1.64392e-07
1.49831e-07
1.36707e-07
1.17629e-06
1.04799e-06
9.34716e-07
8.34634e-07
7.46127e-07
6.67787e-07
5.9838e-07
5.36828e-07
4.82188e-07
4.33633e-07
3.90442e-07
3.51983e-07
3.17699e-07
2.87103e-07
2.59766e-07
2.35313e-07
2.13413e-07
1.93775e-07
1.76145e-07
1.60299e-07
1.4604e-07
1.33195e-07
1.15699e-06
1.03047e-06
9.18789e-07
8.20138e-07
7.32918e-07
6.55736e-07
5.87374e-07
5.26767e-07
4.72982e-07
4.25201e-07
3.82711e-07
3.44885e-07
3.11175e-07
2.81102e-07
2.54242e-07
2.30224e-07
2.08722e-07
1.8945e-07
1.72155e-07
1.56614e-07
1.42633e-07
1.30039e-07
1.13889e-06
1.01409e-06
9.03949e-07
8.06672e-07
7.20685e-07
6.44609e-07
5.7724e-07
5.17526e-07
4.64547e-07
4.17494e-07
3.75662e-07
3.38432e-07
3.05262e-07
2.75676e-07
2.49258e-07
2.25641e-07
2.04504e-07
1.85565e-07
1.68574e-07
1.53313e-07
1.39587e-07
1.27227e-07
1.12283e-06
9.99555e-07
8.90785e-07
7.94735e-07
7.09846e-07
6.34754e-07
5.68271e-07
5.09352e-07
4.57088e-07
4.10681e-07
3.69433e-07
3.3273e-07
3.00038e-07
2.70885e-07
2.44859e-07
2.21598e-07
2.00785e-07
1.82139e-07
1.65416e-07
1.50399e-07
1.36899e-07
1.24746e-07
1.10817e-06
9.86335e-07
8.78844e-07
7.83935e-07
7.00065e-07
6.25885e-07
5.60217e-07
5.02032e-07
4.50425e-07
4.0461e-07
3.63894e-07
3.27671e-07
2.95412e-07
2.66651e-07
2.4098e-07
2.18041e-07
1.97519e-07
1.79139e-07
1.62656e-07
1.47858e-07
1.34556e-07
1.22586e-07
1.09515e-06
9.74608e-07
8.68269e-07
7.74388e-07
6.91435e-07
6.18075e-07
5.5314e-07
4.9561e-07
4.44592e-07
3.99303e-07
3.5906e-07
3.23265e-07
2.9139e-07
2.62975e-07
2.37618e-07
2.14962e-07
1.94698e-07
1.7655e-07
1.60279e-07
1.45673e-07
1.32546e-07
1.20733e-07
1.08375e-06
9.64361e-07
8.59047e-07
7.66076e-07
6.83935e-07
6.11298e-07
5.4701e-07
4.90058e-07
4.39557e-07
3.94732e-07
3.54905e-07
3.19482e-07
2.87942e-07
2.5983e-07
2.34744e-07
2.12335e-07
1.92292e-07
1.74346e-07
1.58258e-07
1.43817e-07
1.30841e-07
1.19166e-07
1.07395e-06
9.55567e-07
8.51146e-07
7.58967e-07
6.77531e-07
6.05522e-07
5.41794e-07
4.85341e-07
4.35286e-07
3.90861e-07
3.51391e-07
3.16289e-07
2.85037e-07
2.57183e-07
2.3233e-07
2.1013e-07
1.90277e-07
1.72501e-07
1.56568e-07
1.42268e-07
1.29419e-07
1.17859e-07
1.06571e-06
9.48177e-07
8.44515e-07
7.53011e-07
6.72173e-07
6.00698e-07
5.37444e-07
4.81414e-07
4.31736e-07
3.87647e-07
3.48479e-07
3.13646e-07
2.82636e-07
2.54999e-07
2.30342e-07
2.08317e-07
1.88622e-07
1.70988e-07
1.55184e-07
1.41e-07
1.28257e-07
1.16793e-07
1.05895e-06
9.42129e-07
8.39092e-07
7.48145e-07
6.67801e-07
5.96765e-07
5.33902e-07
4.7822e-07
4.28853e-07
3.85041e-07
3.46121e-07
3.1151e-07
2.80698e-07
2.53239e-07
2.2874e-07
2.0686e-07
1.87292e-07
1.69776e-07
1.54075e-07
1.39987e-07
1.27328e-07
1.15943e-07
1.05368e-06
9.3741e-07
8.34862e-07
7.44348e-07
6.64389e-07
5.93696e-07
5.31138e-07
4.75728e-07
4.26604e-07
3.83009e-07
3.44283e-07
3.09845e-07
2.79188e-07
2.51868e-07
2.27494e-07
2.05725e-07
1.86259e-07
1.68832e-07
1.53213e-07
1.39197e-07
1.26605e-07
1.15279e-07
1.04932e-06
9.33523e-07
8.31396e-07
7.41255e-07
6.61626e-07
5.91224e-07
5.28924e-07
4.73743e-07
4.24821e-07
3.81406e-07
3.42839e-07
3.08543e-07
2.78014e-07
2.50807e-07
2.26534e-07
2.04856e-07
1.8547e-07
1.68116e-07
1.52562e-07
1.38605e-07
1.26064e-07
1.14771e-07
1.17426e-06
1.0468e-06
9.34189e-07
8.34615e-07
7.46494e-07
6.68442e-07
5.99245e-07
5.37842e-07
4.83301e-07
4.34809e-07
3.91649e-07
3.53196e-07
3.189e-07
2.88276e-07
2.60903e-07
2.36406e-07
2.14459e-07
1.94773e-07
1.77094e-07
1.61199e-07
1.46891e-07
1.33995e-07
1.17455e-06
1.04707e-06
9.34446e-07
8.34855e-07
7.46719e-07
6.68653e-07
5.99443e-07
5.38026e-07
4.83474e-07
4.3497e-07
3.918e-07
3.53337e-07
3.19031e-07
2.884e-07
2.61018e-07
2.36514e-07
2.1456e-07
1.94867e-07
1.77182e-07
1.61281e-07
1.46967e-07
1.34067e-07
1.1773e-06
1.04955e-06
9.36674e-07
8.36866e-07
7.48537e-07
6.70298e-07
6.00933e-07
5.39378e-07
4.84702e-07
4.36086e-07
3.92816e-07
3.54263e-07
3.19875e-07
2.8917e-07
2.61722e-07
2.37158e-07
2.1515e-07
1.95408e-07
1.77678e-07
1.61737e-07
1.47386e-07
1.34452e-07
1.18189e-06
1.05367e-06
9.40382e-07
8.40204e-07
7.51544e-07
6.7301e-07
6.03383e-07
5.41593e-07
4.86707e-07
4.37904e-07
3.94465e-07
3.55761e-07
3.21238e-07
2.90411e-07
2.62853e-07
2.3819e-07
2.16092e-07
1.96269e-07
1.78467e-07
1.62459e-07
1.48049e-07
1.3506e-07
1.18773e-06
1.05895e-06
9.45153e-07
8.44524e-07
7.55461e-07
6.76565e-07
6.06613e-07
5.44532e-07
4.89383e-07
4.40343e-07
3.96692e-07
3.57795e-07
3.23098e-07
2.92114e-07
2.64413e-07
2.39621e-07
2.17405e-07
1.97476e-07
1.79576e-07
1.6348e-07
1.48989e-07
1.35927e-07
1.19547e-06
1.06594e-06
9.5149e-07
8.50269e-07
7.60675e-07
6.81303e-07
6.10922e-07
5.48456e-07
4.92961e-07
4.43609e-07
3.99675e-07
3.60523e-07
3.25595e-07
2.94402e-07
2.66512e-07
2.41547e-07
2.19175e-07
1.99103e-07
1.81073e-07
1.64858e-07
1.50259e-07
1.37098e-07
1.2051e-06
1.07468e-06
9.59418e-07
8.57474e-07
7.6723e-07
6.87274e-07
6.16367e-07
5.53426e-07
4.97502e-07
4.47762e-07
4.03477e-07
3.64008e-07
3.28792e-07
2.97336e-07
2.69207e-07
2.44026e-07
2.21456e-07
2.01204e-07
1.83009e-07
1.66644e-07
1.51907e-07
1.3862e-07
1.21672e-06
1.08524e-06
9.69034e-07
8.66235e-07
7.75222e-07
6.94571e-07
6.23037e-07
5.59528e-07
5.0309e-07
4.52885e-07
4.08177e-07
3.68323e-07
3.32758e-07
3.00984e-07
2.72565e-07
2.47119e-07
2.24307e-07
2.03834e-07
1.85437e-07
1.68886e-07
1.53979e-07
1.40536e-07
1.23039e-06
1.0977e-06
9.80405e-07
8.76624e-07
7.84722e-07
7.03267e-07
6.31004e-07
5.66835e-07
5.09797e-07
4.59046e-07
4.13842e-07
3.73535e-07
3.37557e-07
3.05406e-07
2.76644e-07
2.50882e-07
2.27782e-07
2.07044e-07
1.88405e-07
1.71631e-07
1.56519e-07
1.42888e-07
1.24613e-06
1.11209e-06
9.93573e-07
8.88685e-07
7.95781e-07
7.13415e-07
6.40325e-07
5.75403e-07
5.17679e-07
4.66302e-07
4.20527e-07
3.79699e-07
3.43244e-07
3.10656e-07
2.81493e-07
2.55365e-07
2.31928e-07
2.1088e-07
1.91956e-07
1.74921e-07
1.59567e-07
1.45713e-07
1.26377e-06
1.12828e-06
1.00844e-06
9.02346e-07
8.08345e-07
7.2498e-07
6.50978e-07
5.85223e-07
5.26737e-07
4.74664e-07
4.2825e-07
3.86836e-07
3.49844e-07
3.16762e-07
2.87145e-07
2.60599e-07
2.36777e-07
2.15375e-07
1.96124e-07
1.78787e-07
1.63155e-07
1.49044e-07
1.28379e-06
1.14668e-06
1.02536e-06
9.17919e-07
8.22689e-07
7.38202e-07
6.63173e-07
5.96479e-07
5.37133e-07
4.8427e-07
4.37132e-07
3.95054e-07
3.57449e-07
3.23806e-07
2.93671e-07
2.66647e-07
2.42385e-07
2.20577e-07
2.00951e-07
1.83268e-07
1.67315e-07
1.52908e-07
1.30545e-06
1.16666e-06
1.04381e-06
9.34967e-07
8.38449e-07
7.52778e-07
6.76663e-07
6.08969e-07
5.48702e-07
4.94992e-07
4.47073e-07
4.04273e-07
3.66003e-07
3.31745e-07
3.01042e-07
2.73493e-07
2.48745e-07
2.26487e-07
2.06445e-07
1.88376e-07
1.72066e-07
1.57327e-07
1.32885e-06
1.18833e-06
1.06388e-06
9.53572e-07
8.55698e-07
7.68777e-07
6.91507e-07
6.22747e-07
5.61495e-07
5.06874e-07
4.58111e-07
4.14531e-07
3.75539e-07
3.4061e-07
3.09287e-07
2.81162e-07
2.55881e-07
2.33127e-07
2.12625e-07
1.94129e-07
1.77423e-07
1.62315e-07
1.35381e-06
1.21153e-06
1.08544e-06
9.73617e-07
8.74341e-07
7.86119e-07
7.07642e-07
6.37762e-07
5.7547e-07
5.19883e-07
4.70224e-07
4.2581e-07
3.86042e-07
3.50394e-07
3.184e-07
2.89653e-07
2.63792e-07
2.405e-07
2.19496e-07
2.00532e-07
1.83391e-07
1.67879e-07
1.35381e-06
1.21152e-06
1.08544e-06
9.73616e-07
8.7434e-07
7.86118e-07
7.07642e-07
6.37761e-07
5.7547e-07
5.19882e-07
4.70222e-07
4.25809e-07
3.86041e-07
3.50393e-07
3.184e-07
2.89653e-07
2.63792e-07
2.405e-07
2.19496e-07
2.00533e-07
1.83392e-07
1.6788e-07
1.32885e-06
1.18833e-06
1.06388e-06
9.53568e-07
8.55695e-07
7.68774e-07
6.91505e-07
6.22744e-07
5.61492e-07
5.06871e-07
4.58109e-07
4.14529e-07
3.75537e-07
3.4061e-07
3.09286e-07
2.81163e-07
2.55882e-07
2.33129e-07
2.12627e-07
1.94131e-07
1.77424e-07
1.62317e-07
1.30544e-06
1.16665e-06
1.0438e-06
9.3496e-07
8.38443e-07
7.52773e-07
6.76658e-07
6.08964e-07
5.48698e-07
4.94988e-07
4.47069e-07
4.0427e-07
3.66002e-07
3.31744e-07
3.01042e-07
2.73494e-07
2.48747e-07
2.26489e-07
2.06447e-07
1.88377e-07
1.72068e-07
1.57328e-07
1.28378e-06
1.14667e-06
1.02535e-06
9.17909e-07
8.2268e-07
7.38193e-07
6.63166e-07
5.96473e-07
5.37127e-07
4.84266e-07
4.37129e-07
3.95052e-07
3.57448e-07
3.23805e-07
2.9367e-07
2.66647e-07
2.42385e-07
2.20577e-07
2.00951e-07
1.83268e-07
1.67316e-07
1.52909e-07
1.26375e-06
1.12826e-06
1.00842e-06
9.02333e-07
8.08334e-07
7.24971e-07
6.5097e-07
5.85216e-07
5.26732e-07
4.7466e-07
4.28247e-07
3.86834e-07
3.49842e-07
3.16761e-07
2.87144e-07
2.60598e-07
2.36777e-07
2.15374e-07
1.96124e-07
1.78786e-07
1.63155e-07
1.49044e-07
1.24611e-06
1.11208e-06
9.93559e-07
8.88673e-07
7.9577e-07
7.13406e-07
6.40317e-07
5.75396e-07
5.17673e-07
4.66298e-07
4.20523e-07
3.79697e-07
3.43242e-07
3.10655e-07
2.81492e-07
2.55365e-07
2.31928e-07
2.1088e-07
1.91956e-07
1.74921e-07
1.59568e-07
1.45714e-07
1.23037e-06
1.09769e-06
9.80392e-07
8.76613e-07
7.84712e-07
7.03258e-07
6.30997e-07
5.66828e-07
5.09791e-07
4.59041e-07
4.13838e-07
3.73532e-07
3.37555e-07
3.05405e-07
2.76643e-07
2.50882e-07
2.27783e-07
2.07045e-07
1.88406e-07
1.71633e-07
1.5652e-07
1.42889e-07
1.21671e-06
1.08523e-06
9.69024e-07
8.66227e-07
7.75215e-07
6.94564e-07
6.23031e-07
5.59523e-07
5.03085e-07
4.52881e-07
4.08174e-07
3.68321e-07
3.32756e-07
3.00983e-07
2.72565e-07
2.47119e-07
2.24308e-07
2.03834e-07
1.85438e-07
1.68887e-07
1.5398e-07
1.40536e-07
1.20509e-06
1.07467e-06
9.59413e-07
8.5747e-07
7.67227e-07
6.87271e-07
6.16364e-07
5.53423e-07
4.97499e-07
4.47759e-07
4.03475e-07
3.64005e-07
3.28789e-07
2.97333e-07
2.69206e-07
2.44024e-07
2.21455e-07
2.01203e-07
1.83008e-07
1.66644e-07
1.51907e-07
1.3862e-07
1.19546e-06
1.06594e-06
9.51488e-07
8.50268e-07
7.60674e-07
6.81303e-07
6.10922e-07
5.48456e-07
4.9296e-07
4.43607e-07
3.99673e-07
3.60521e-07
3.25593e-07
2.94399e-07
2.66509e-07
2.41545e-07
2.19173e-07
1.99102e-07
1.81072e-07
1.64858e-07
1.50259e-07
1.37099e-07
1.18773e-06
1.05894e-06
9.45152e-07
8.44524e-07
7.55461e-07
6.76567e-07
6.06615e-07
5.44534e-07
4.89385e-07
4.40345e-07
3.96692e-07
3.57795e-07
3.23098e-07
2.92112e-07
2.64412e-07
2.39619e-07
2.17404e-07
1.97475e-07
1.79576e-07
1.6348e-07
1.4899e-07
1.35928e-07
1.18189e-06
1.05367e-06
9.40381e-07
8.40203e-07
7.51544e-07
6.73011e-07
6.03384e-07
5.41595e-07
4.8671e-07
4.37907e-07
3.94468e-07
3.55764e-07
3.2124e-07
2.90412e-07
2.62853e-07
2.3819e-07
2.16091e-07
1.96269e-07
1.78466e-07
1.62459e-07
1.4805e-07
1.35061e-07
1.1773e-06
1.04955e-06
9.36677e-07
8.36869e-07
7.48539e-07
6.70299e-07
6.00934e-07
5.39379e-07
4.84703e-07
4.36089e-07
3.92819e-07
3.54266e-07
3.19879e-07
2.89174e-07
2.61726e-07
2.37161e-07
2.15152e-07
1.95409e-07
1.77679e-07
1.61739e-07
1.47388e-07
1.34455e-07
1.17457e-06
1.04709e-06
9.34463e-07
8.3487e-07
7.46732e-07
6.68662e-07
5.99449e-07
5.38031e-07
4.83477e-07
4.34973e-07
3.91804e-07
3.53342e-07
3.19037e-07
2.88406e-07
2.61025e-07
2.36521e-07
2.14566e-07
1.94872e-07
1.77187e-07
1.61285e-07
1.46971e-07
1.3407e-07
1.17429e-06
1.04683e-06
9.34221e-07
8.34645e-07
7.46521e-07
6.68466e-07
5.99265e-07
5.37857e-07
4.83313e-07
4.34818e-07
3.91656e-07
3.53202e-07
3.18906e-07
2.88284e-07
2.60911e-07
2.36415e-07
2.14468e-07
1.94782e-07
1.77101e-07
1.61206e-07
1.46895e-07
1.33998e-07
1.17428e-06
1.04682e-06
9.34204e-07
8.34627e-07
7.46504e-07
6.68449e-07
5.99249e-07
5.37843e-07
4.83301e-07
4.34807e-07
3.91646e-07
3.53193e-07
3.18897e-07
2.88275e-07
2.60902e-07
2.36405e-07
2.14458e-07
1.94771e-07
1.77091e-07
1.61195e-07
1.46885e-07
1.33989e-07
1.17456e-06
1.04708e-06
9.34451e-07
8.34858e-07
7.4672e-07
6.68651e-07
5.99439e-07
5.38021e-07
4.83468e-07
4.34964e-07
3.91795e-07
3.53332e-07
3.19027e-07
2.88396e-07
2.61014e-07
2.3651e-07
2.14555e-07
1.94862e-07
1.77176e-07
1.61275e-07
1.46962e-07
1.34061e-07
1.17729e-06
1.04954e-06
9.3667e-07
8.36861e-07
7.4853e-07
6.7029e-07
6.00925e-07
5.3937e-07
4.84693e-07
4.36079e-07
3.92808e-07
3.54255e-07
3.19868e-07
2.89162e-07
2.61714e-07
2.3715e-07
2.15141e-07
1.95399e-07
1.7767e-07
1.61729e-07
1.4738e-07
1.34447e-07
1.18188e-06
1.05366e-06
9.40372e-07
8.40194e-07
7.51534e-07
6.73001e-07
6.03373e-07
5.41584e-07
4.86698e-07
4.37894e-07
3.94455e-07
3.5575e-07
3.21227e-07
2.90399e-07
2.62841e-07
2.38178e-07
2.16081e-07
1.96259e-07
1.78457e-07
1.62452e-07
1.48042e-07
1.35055e-07
1.18772e-06
1.05893e-06
9.45141e-07
8.44512e-07
7.55449e-07
6.76554e-07
6.06601e-07
5.4452e-07
4.89371e-07
4.40331e-07
3.96679e-07
3.57782e-07
3.23085e-07
2.92101e-07
2.644e-07
2.39609e-07
2.17394e-07
1.97466e-07
1.79567e-07
1.63472e-07
1.48983e-07
1.35921e-07
1.19545e-06
1.06593e-06
9.51474e-07
8.50253e-07
7.6066e-07
6.81288e-07
6.10908e-07
5.48442e-07
4.92946e-07
4.43594e-07
3.9966e-07
3.60509e-07
3.25582e-07
2.94388e-07
2.665e-07
2.41535e-07
2.19165e-07
1.99093e-07
1.81066e-07
1.64851e-07
1.50254e-07
1.37094e-07
1.20507e-06
1.07466e-06
9.59397e-07
8.57454e-07
7.67211e-07
6.87255e-07
6.16349e-07
5.53409e-07
4.97485e-07
4.47746e-07
4.03462e-07
3.63993e-07
3.28778e-07
2.97324e-07
2.69196e-07
2.44017e-07
2.21447e-07
2.01197e-07
1.83002e-07
1.6664e-07
1.51902e-07
1.38615e-07
1.21669e-06
1.08521e-06
9.69007e-07
8.66211e-07
7.75199e-07
6.94549e-07
6.23016e-07
5.59509e-07
5.03072e-07
4.52868e-07
4.08162e-07
3.6831e-07
3.32746e-07
3.00973e-07
2.72556e-07
2.47111e-07
2.24301e-07
2.03828e-07
1.85432e-07
1.68881e-07
1.53976e-07
1.40532e-07
1.23035e-06
1.09767e-06
9.80376e-07
8.76596e-07
7.84696e-07
7.03243e-07
6.30982e-07
5.66815e-07
5.09779e-07
4.5903e-07
4.13828e-07
3.73523e-07
3.37547e-07
3.05398e-07
2.76637e-07
2.50876e-07
2.27777e-07
2.07039e-07
1.884e-07
1.71628e-07
1.56516e-07
1.42885e-07
1.24609e-06
1.11206e-06
9.93543e-07
8.88658e-07
7.95755e-07
7.13391e-07
6.40303e-07
5.75384e-07
5.17662e-07
4.66288e-07
4.20514e-07
3.79689e-07
3.43235e-07
3.1065e-07
2.81487e-07
2.5536e-07
2.31923e-07
2.10877e-07
1.91953e-07
1.74918e-07
1.59564e-07
1.4571e-07
1.26374e-06
1.12825e-06
1.00841e-06
9.02319e-07
8.0832e-07
7.24957e-07
6.50958e-07
5.85205e-07
5.26721e-07
4.7465e-07
4.28238e-07
3.86826e-07
3.49835e-07
3.16755e-07
2.87139e-07
2.60594e-07
2.36773e-07
2.15372e-07
1.96122e-07
1.78785e-07
1.63153e-07
1.49042e-07
1.28377e-06
1.14665e-06
1.02533e-06
9.17895e-07
8.22667e-07
7.38181e-07
6.63155e-07
5.96462e-07
5.37118e-07
4.84257e-07
4.37121e-07
3.95044e-07
3.57441e-07
3.23798e-07
2.93664e-07
2.66642e-07
2.42381e-07
2.20574e-07
2.00948e-07
1.83266e-07
1.67314e-07
1.52907e-07
1.30543e-06
1.16664e-06
1.04379e-06
9.34947e-07
8.3843e-07
7.52761e-07
6.76647e-07
6.08954e-07
5.48689e-07
4.9498e-07
4.47063e-07
4.04264e-07
3.65996e-07
3.31738e-07
3.01036e-07
2.73488e-07
2.48742e-07
2.26484e-07
2.06443e-07
1.88374e-07
1.72065e-07
1.57327e-07
1.32884e-06
1.18832e-06
1.06387e-06
9.53556e-07
8.55683e-07
7.68763e-07
6.91495e-07
6.22735e-07
5.61485e-07
5.06864e-07
4.58103e-07
4.14524e-07
3.75533e-07
3.40606e-07
3.09283e-07
2.81159e-07
2.55878e-07
2.33126e-07
2.12624e-07
1.94128e-07
1.77422e-07
1.62315e-07
1.3538e-06
1.21151e-06
1.08543e-06
9.73605e-07
8.74329e-07
7.86108e-07
7.07632e-07
6.37753e-07
5.75462e-07
5.19875e-07
4.70217e-07
4.25804e-07
3.86038e-07
3.50391e-07
3.18398e-07
2.89651e-07
2.63791e-07
2.40499e-07
2.19495e-07
2.00532e-07
1.83391e-07
1.67878e-07
1.3538e-06
1.21151e-06
1.08543e-06
9.73607e-07
8.74331e-07
7.8611e-07
7.07634e-07
6.37754e-07
5.75463e-07
5.19876e-07
4.70218e-07
4.25805e-07
3.86039e-07
3.50391e-07
3.18399e-07
2.89652e-07
2.63791e-07
2.40499e-07
2.19495e-07
2.00532e-07
1.83391e-07
1.67878e-07
1.32884e-06
1.18832e-06
1.06387e-06
9.53562e-07
8.55688e-07
7.68768e-07
6.91499e-07
6.22739e-07
5.61488e-07
5.06867e-07
4.58106e-07
4.14526e-07
3.75535e-07
3.40607e-07
3.09284e-07
2.81161e-07
2.5588e-07
2.33127e-07
2.12625e-07
1.94129e-07
1.77422e-07
1.62315e-07
1.30544e-06
1.16665e-06
1.0438e-06
9.34957e-07
8.3844e-07
7.5277e-07
6.76655e-07
6.08961e-07
5.48695e-07
4.94985e-07
4.47067e-07
4.04268e-07
3.65999e-07
3.31741e-07
3.01039e-07
2.7349e-07
2.48743e-07
2.26486e-07
2.06444e-07
1.88375e-07
1.72066e-07
1.57327e-07
1.28378e-06
1.14667e-06
1.02535e-06
9.17911e-07
8.22681e-07
7.38194e-07
6.63166e-07
5.96472e-07
5.37126e-07
4.84264e-07
4.37127e-07
3.95049e-07
3.57445e-07
3.23801e-07
2.93667e-07
2.66644e-07
2.42382e-07
2.20575e-07
2.00949e-07
1.83266e-07
1.67315e-07
1.52908e-07
1.26376e-06
1.12827e-06
1.00843e-06
9.02339e-07
8.08339e-07
7.24974e-07
6.50972e-07
5.85218e-07
5.26732e-07
4.74659e-07
4.28246e-07
3.86832e-07
3.4984e-07
3.16759e-07
2.87142e-07
2.60596e-07
2.36775e-07
2.15373e-07
1.96122e-07
1.78785e-07
1.63154e-07
1.49043e-07
1.24612e-06
1.11209e-06
9.93569e-07
8.88681e-07
7.95777e-07
7.13411e-07
6.40321e-07
5.75399e-07
5.17675e-07
4.66299e-07
4.20524e-07
3.79697e-07
3.43241e-07
3.10654e-07
2.81491e-07
2.55363e-07
2.31926e-07
2.10879e-07
1.91954e-07
1.74919e-07
1.59566e-07
1.45712e-07
1.23039e-06
1.0977e-06
9.80402e-07
8.76621e-07
7.84719e-07
7.03264e-07
6.31002e-07
5.66833e-07
5.09795e-07
4.59044e-07
4.1384e-07
3.73534e-07
3.37556e-07
3.05405e-07
2.76642e-07
2.50881e-07
2.27781e-07
2.07043e-07
1.88404e-07
1.71631e-07
1.56519e-07
1.42887e-07
1.21672e-06
1.08524e-06
9.69032e-07
8.66234e-07
7.7522e-07
6.9457e-07
6.23035e-07
5.59527e-07
5.03089e-07
4.52884e-07
4.08176e-07
3.68322e-07
3.32757e-07
3.00983e-07
2.72565e-07
2.47118e-07
2.24307e-07
2.03833e-07
1.85437e-07
1.68886e-07
1.53979e-07
1.40535e-07
1.2051e-06
1.07468e-06
9.59416e-07
8.57473e-07
7.67229e-07
6.87273e-07
6.16366e-07
5.53426e-07
4.97501e-07
4.47762e-07
4.03477e-07
3.64007e-07
3.28791e-07
2.97336e-07
2.69207e-07
2.44026e-07
2.21456e-07
2.01204e-07
1.83009e-07
1.66644e-07
1.51907e-07
1.38619e-07
1.19547e-06
1.06594e-06
9.51488e-07
8.50267e-07
7.60673e-07
6.81302e-07
6.10922e-07
5.48456e-07
4.9296e-07
4.43608e-07
3.99674e-07
3.60523e-07
3.25595e-07
2.94401e-07
2.66512e-07
2.41547e-07
2.19175e-07
1.99103e-07
1.81073e-07
1.64858e-07
1.50259e-07
1.37098e-07
1.18773e-06
1.05894e-06
9.45151e-07
8.44522e-07
7.55459e-07
6.76564e-07
6.06612e-07
5.44531e-07
4.89382e-07
4.40343e-07
3.96691e-07
3.57795e-07
3.23098e-07
2.92114e-07
2.64413e-07
2.39621e-07
2.17405e-07
1.97476e-07
1.79576e-07
1.6348e-07
1.48989e-07
1.35927e-07
1.18189e-06
1.05367e-06
9.4038e-07
8.40202e-07
7.51543e-07
6.73009e-07
6.03382e-07
5.41592e-07
4.86706e-07
4.37903e-07
3.94465e-07
3.55761e-07
3.21238e-07
2.90411e-07
2.62853e-07
2.3819e-07
2.16092e-07
1.9627e-07
1.78467e-07
1.62459e-07
1.48049e-07
1.3506e-07
1.17729e-06
1.04954e-06
9.36672e-07
8.36865e-07
7.48536e-07
6.70297e-07
6.00932e-07
5.39378e-07
4.84701e-07
4.36086e-07
3.92816e-07
3.54262e-07
3.19875e-07
2.8917e-07
2.61722e-07
2.37158e-07
2.1515e-07
1.95408e-07
1.77678e-07
1.61737e-07
1.47386e-07
1.34453e-07
1.17455e-06
1.04707e-06
9.34445e-07
8.34854e-07
7.46719e-07
6.68652e-07
5.99442e-07
5.38026e-07
4.83474e-07
4.3497e-07
3.918e-07
3.53337e-07
3.19031e-07
2.884e-07
2.61018e-07
2.36514e-07
2.1456e-07
1.94867e-07
1.77182e-07
1.61281e-07
1.46968e-07
1.34067e-07
1.17426e-06
1.0468e-06
9.34189e-07
8.34614e-07
7.46494e-07
6.68442e-07
5.99245e-07
5.37842e-07
4.83301e-07
4.34809e-07
3.91649e-07
3.53196e-07
3.189e-07
2.88276e-07
2.60903e-07
2.36406e-07
2.14459e-07
1.94773e-07
1.77094e-07
1.61199e-07
1.46891e-07
1.33995e-07
1.17103e-06
1.17119e-06
1.17376e-06
1.17802e-06
1.18326e-06
1.19007e-06
1.19842e-06
1.20832e-06
1.21972e-06
1.23253e-06
1.24652e-06
1.26213e-06
1.27856e-06
1.29587e-06
1.31385e-06
1.24222e-06
1.21912e-06
1.19713e-06
1.17643e-06
1.15712e-06
1.13901e-06
1.12293e-06
1.10827e-06
1.09523e-06
1.08381e-06
1.074e-06
1.06574e-06
1.05897e-06
1.05369e-06
1.04956e-06
1.038e-06
1.03814e-06
1.04042e-06
1.04419e-06
1.04887e-06
1.05498e-06
1.06248e-06
1.07144e-06
1.08181e-06
1.09351e-06
1.10637e-06
1.12077e-06
1.13605e-06
1.15226e-06
1.16921e-06
1.10811e-06
1.08698e-06
1.06693e-06
1.04809e-06
1.03056e-06
1.01417e-06
9.99628e-07
9.864e-07
9.74661e-07
9.64402e-07
9.556e-07
9.48204e-07
9.42148e-07
9.37423e-07
9.33727e-07
9.20966e-07
9.21087e-07
9.2311e-07
9.26461e-07
9.30647e-07
9.36116e-07
9.42877e-07
9.5099e-07
9.60427e-07
9.71133e-07
9.8296e-07
9.96253e-07
1.01046e-06
1.02564e-06
1.04162e-06
9.89599e-07
9.70259e-07
9.51951e-07
9.34786e-07
9.18855e-07
9.04007e-07
8.90836e-07
8.78888e-07
8.68307e-07
8.59076e-07
8.51169e-07
8.44536e-07
8.39112e-07
8.34881e-07
8.31573e-07
8.17929e-07
8.18037e-07
8.19836e-07
8.22816e-07
8.26566e-07
8.31477e-07
8.37568e-07
8.4492e-07
8.53523e-07
8.63329e-07
8.74218e-07
8.86496e-07
8.99717e-07
9.13916e-07
9.28972e-07
8.84795e-07
8.67073e-07
8.50337e-07
8.34681e-07
8.20183e-07
8.06713e-07
7.9477e-07
7.83964e-07
7.74414e-07
7.66098e-07
7.58986e-07
7.5303e-07
7.48166e-07
7.44372e-07
7.41409e-07
7.27156e-07
7.27253e-07
7.28855e-07
7.3151e-07
7.34876e-07
7.39293e-07
7.44787e-07
7.51451e-07
7.59301e-07
7.68294e-07
7.78329e-07
7.89677e-07
8.01976e-07
8.15264e-07
8.29434e-07
7.92024e-07
7.75767e-07
7.60454e-07
7.46159e-07
7.32948e-07
7.20712e-07
7.0987e-07
7.00085e-07
6.91454e-07
6.83952e-07
6.77548e-07
6.72192e-07
6.67824e-07
6.64418e-07
6.61762e-07
6.4713e-07
6.47218e-07
6.48647e-07
6.51014e-07
6.54042e-07
6.58022e-07
6.62986e-07
6.69029e-07
6.76194e-07
6.84451e-07
6.93709e-07
7.04202e-07
7.15645e-07
7.28078e-07
7.41407e-07
7.09828e-07
6.94899e-07
6.80873e-07
6.67807e-07
6.55755e-07
6.44626e-07
6.34772e-07
6.259e-07
6.18089e-07
6.11313e-07
6.05538e-07
6.00717e-07
5.9679e-07
5.93728e-07
5.91344e-07
5.76526e-07
5.76606e-07
5.77883e-07
5.79997e-07
5.82723e-07
5.86318e-07
5.9081e-07
5.96294e-07
6.02836e-07
6.10423e-07
6.18973e-07
6.28683e-07
6.39328e-07
6.50958e-07
6.6349e-07
6.36932e-07
6.23208e-07
6.10347e-07
5.98392e-07
5.87386e-07
5.77251e-07
5.68283e-07
5.60229e-07
5.53152e-07
5.47024e-07
5.4181e-07
5.37463e-07
5.33929e-07
5.31173e-07
5.29031e-07
5.14186e-07
5.1426e-07
5.15402e-07
5.17291e-07
5.1975e-07
5.23001e-07
5.27076e-07
5.3206e-07
5.38032e-07
5.45007e-07
5.5291e-07
5.61903e-07
5.71806e-07
5.82681e-07
5.94458e-07
5.72219e-07
5.5959e-07
5.47784e-07
5.36835e-07
5.26773e-07
5.17533e-07
5.09361e-07
5.02042e-07
4.95621e-07
4.90072e-07
4.85358e-07
4.81434e-07
4.78249e-07
4.75766e-07
4.73839e-07
4.59097e-07
4.59167e-07
4.6019e-07
4.6188e-07
4.641e-07
4.67046e-07
4.70749e-07
4.75285e-07
4.8074e-07
4.87152e-07
4.94461e-07
5.02797e-07
5.12012e-07
5.22176e-07
5.33238e-07
5.14712e-07
5.0308e-07
4.92229e-07
4.82191e-07
4.72984e-07
4.6455e-07
4.57095e-07
4.50434e-07
4.44603e-07
4.39572e-07
4.35305e-07
4.31759e-07
4.28883e-07
4.26642e-07
4.24908e-07
4.10375e-07
4.10442e-07
4.1136e-07
4.12874e-07
4.1488e-07
4.17553e-07
4.20925e-07
4.25062e-07
4.30047e-07
4.35939e-07
4.42703e-07
4.50436e-07
4.59014e-07
4.68509e-07
4.78893e-07
4.63552e-07
4.52831e-07
4.42848e-07
4.33634e-07
4.25201e-07
4.17496e-07
4.10686e-07
4.04618e-07
3.99314e-07
3.94748e-07
3.9088e-07
3.87671e-07
3.85072e-07
3.83048e-07
3.81485e-07
3.67248e-07
3.67311e-07
3.68136e-07
3.69494e-07
3.71309e-07
3.73736e-07
3.76811e-07
3.80592e-07
3.85153e-07
3.90567e-07
3.96826e-07
4.04004e-07
4.11993e-07
4.20861e-07
4.30601e-07
4.17989e-07
4.08102e-07
3.98908e-07
3.90441e-07
3.82709e-07
3.75663e-07
3.69436e-07
3.63901e-07
3.59072e-07
3.54921e-07
3.51412e-07
3.48504e-07
3.46153e-07
3.44322e-07
3.42912e-07
3.29037e-07
3.29096e-07
3.2984e-07
3.31059e-07
3.32703e-07
3.34909e-07
3.37717e-07
3.41179e-07
3.4536e-07
3.50335e-07
3.56123e-07
3.62788e-07
3.70233e-07
3.78515e-07
3.87645e-07
3.77363e-07
3.6824e-07
3.59768e-07
3.51979e-07
3.44882e-07
3.38432e-07
3.32733e-07
3.27678e-07
3.23276e-07
3.19498e-07
3.1631e-07
3.13672e-07
3.11542e-07
3.09884e-07
3.0861e-07
2.95152e-07
2.95207e-07
2.95878e-07
2.96975e-07
2.98464e-07
3.00472e-07
3.03038e-07
3.06213e-07
3.10052e-07
3.14627e-07
3.19977e-07
3.26165e-07
3.33106e-07
3.40843e-07
3.49395e-07
3.41099e-07
3.32676e-07
3.24864e-07
3.17693e-07
3.11172e-07
3.05261e-07
3.0004e-07
2.95419e-07
2.91401e-07
2.87959e-07
2.85059e-07
2.82663e-07
2.80731e-07
2.79227e-07
2.78075e-07
2.65073e-07
2.65123e-07
2.6573e-07
2.66719e-07
2.68071e-07
2.69898e-07
2.72245e-07
2.75159e-07
2.78691e-07
2.82905e-07
2.87847e-07
2.9359e-07
3.00062e-07
3.07292e-07
3.153e-07
3.08691e-07
3.00908e-07
2.93701e-07
2.87095e-07
2.81098e-07
2.75675e-07
2.70886e-07
2.66657e-07
2.62986e-07
2.59846e-07
2.57205e-07
2.55026e-07
2.53272e-07
2.51906e-07
2.50864e-07
2.38346e-07
2.38393e-07
2.3894e-07
2.39833e-07
2.41062e-07
2.42727e-07
2.44875e-07
2.47552e-07
2.50807e-07
2.54693e-07
2.5926e-07
2.64585e-07
2.70619e-07
2.77377e-07
2.84875e-07
2.79696e-07
2.72499e-07
2.65846e-07
2.59757e-07
2.54237e-07
2.49256e-07
2.4486e-07
2.40985e-07
2.37628e-07
2.3476e-07
2.32351e-07
2.30369e-07
2.28773e-07
2.27532e-07
2.26587e-07
2.14574e-07
2.14617e-07
2.15112e-07
2.15919e-07
2.17038e-07
2.18557e-07
2.20523e-07
2.22984e-07
2.25985e-07
2.29576e-07
2.338e-07
2.38734e-07
2.44355e-07
2.50674e-07
2.57695e-07
2.53725e-07