/*--------------------------------*- C++ -*----------------------------------*\
| =========                 |                                                 |
| \\      /  F ield         | OpenFOAM Extend Project: Open source CFD        |
|  \\    /   O peration     | Version:  1.6-ext                               |
|   \\  /    A nd           | Web:      www.extend-project.de                 |
|    \\/     M anipulation  |                                                 |
\*---------------------------------------------------------------------------*/
FoamFile
{
    version     2.0;
    format      ascii;
    class       volScalarField;
    location    "1.4";
    object      p;
}
// * * * * * * * * * * * * * * * * * * * * * * * * * * * * * * * * * * * * * //

dimensions      [0 2 -2 0 0 0 0];

internalField   nonuniform List<scalar> 
284
(
0.245103
0.213647
0.202176
0.197206
0.195231
0.19502
0.195662
0.196758
0.199063
0.215892
0.206975
0.201536
0.198939
0.197945
0.197976
0.198518
0.199311
0.201795
0.204166
0.200697
0.198036
0.196762
0.196596
0.197159
0.197997
0.198868
0.2019
0.194967
0.193833
0.192691
0.192315
0.192705
0.193575
0.19453
0.195344
0.198777
0.187501
0.187126
0.186605
0.186443
0.186709
0.187216
0.187597
0.187602
0.19076
0.18082
0.18064
0.180171
0.179632
0.179058
0.178308
0.176979
0.174635
0.175517
0.174572
0.174375
0.173623
0.172287
0.170243
0.167236
0.162526
0.154663
0.148288
0.168792
0.168488
0.167259
0.164849
0.160879
0.154829
0.145293
0.130625
0.0867699
0.163723
0.163272
0.161463
0.157844
0.151575
0.141225
0.121261
0.083503
-0.00878237
0.159714
0.159066
0.156652
0.152021
0.144289
0.132157
0.111749
0.0804399
0.0286852
0.157193
0.156143
0.153007
0.147598
0.139377
0.127544
0.110397
0.0863521
0.0544162
0.156543
0.154662
0.150399
0.144179
0.135818
0.124704
0.110063
0.0903603
0.0671162
0.159388
0.154934
0.148655
0.141373
0.132891
0.122516
0.109708
0.09316
0.0745104
0.165889
0.156096
0.147216
0.13904
0.130688
0.12109
0.10958
0.0951317
0.07878
0.19429
0.162483
0.148269
0.139246
0.131163
0.122282
0.111492
0.0978025
0.0819483
-0.14029
-0.113307
-0.0400685
-0.0641455
0.00620233
-0.0220957
0.0355341
0.0118188
0.0523639
0.0325949
0.0606329
0.0432107
0.064369
0.0465152
-0.102954
-0.0878561
-0.065985
-0.0414442
-0.0212267
-0.00821175
-0.00159912
0.000876359
0.000405969
-0.0710864
-0.0643804
-0.0481598
-0.0294528
-0.0143222
-0.00488958
-0.000379465
0.00105532
9.23863e-07
-0.0329074
-0.0327516
-0.0255081
-0.0156124
-0.00717286
-0.0018916
0.000441089
0.000948711
-0.000385349
-0.00162239
-0.00737102
-0.00753588
-0.0048558
-0.00191252
-1.22816e-05
0.000631508
0.000532754
-0.000728938
0.0181475
0.00901716
0.0040597
0.00185469
0.00100583
0.000599996
0.000210171
-0.000114752
-0.000986413
0.0285746
0.0174081
0.00961919
0.00466203
0.00176341
0.000207539
-0.000556597
-0.000805562
-0.00110757
0.0305785
0.0177427
0.00847585
0.00259343
-0.000611205
-0.00201628
-0.00236559
-0.00211322
-0.00152359
-0.0211316
-0.019952
-0.0164617
-0.0119671
-0.00747429
-0.00376533
-0.00110076
0.000505558
0.00126575
-0.0223767
-0.0214749
-0.0182436
-0.0137265
-0.00914237
-0.00518158
-0.00222567
-0.000299349
0.000973362
-0.0257165
-0.0248313
-0.0209323
-0.0156096
-0.0103048
-0.00578241
-0.00246478
-0.000356343
0.00107611
-0.0313074
-0.0300988
-0.0253723
-0.018583
-0.0119925
-0.00649904
-0.0026093
-0.00027244
0.00119662
-0.0404259
-0.0379273
-0.0323366
-0.023206
-0.0144843
-0.00744895
-0.00271545
-8.67813e-05
0.00128408
-0.0554177
-0.0518471
-0.0427008
-0.0299051
-0.0178642
-0.00861201
-0.00278034
0.000171063
0.00128975
-0.0738526
-0.0657982
-0.054561
-0.0375295
-0.021464
-0.00968084
-0.00275523
0.00042603
0.00114473
-0.111777
-0.0868842
-0.0666409
-0.0436731
-0.0235914
-0.00989652
-0.00245537
0.000642063
0.000824177
)
;

boundaryField
{
    inlet
    {
        type            zeroGradient;
    }
    outlet
    {
        type            totalPressure;
        rho             none;
        psi             none;
        gamma           1;
        p0              uniform 0;
        value           uniform 0;
    }
    fixedWalls
    {
        type            zeroGradient;
    }
    frontAndBack
    {
        type            empty;
    }
}


// ************************************************************************* //
