/*--------------------------------*- C++ -*----------------------------------*\
| =========                 |                                                 |
| \\      /  F ield         | OpenFOAM Extend Project: Open source CFD        |
|  \\    /   O peration     | Version:  1.6-ext                               |
|   \\  /    A nd           | Web:      www.extend-project.de                 |
|    \\/     M anipulation  |                                                 |
\*---------------------------------------------------------------------------*/
FoamFile
{
    version     2.0;
    format      ascii;
    class       surfaceScalarField;
    location    "1.4";
    object      phi;
}
// * * * * * * * * * * * * * * * * * * * * * * * * * * * * * * * * * * * * * //

dimensions      [0 3 -1 0 0 0 0];

internalField   nonuniform List<scalar> 
525
(
0.000161066
3.89343e-05
0.000118102
4.29641e-05
8.38871e-05
3.42145e-05
5.85423e-05
2.53448e-05
3.9857e-05
1.86853e-05
2.49847e-05
1.48723e-05
1.22204e-05
1.27643e-05
2.52785e-06
9.69251e-06
2.52785e-06
0.000205258
3.36768e-05
0.000191419
5.68029e-05
0.000164928
6.07054e-05
0.000133753
5.652e-05
0.000101845
5.05924e-05
7.04404e-05
4.62774e-05
4.00039e-05
4.32008e-05
1.3514e-05
3.61824e-05
1.60418e-05
0.000208837
2.48395e-05
0.000208046
5.75946e-05
0.00019365
7.51009e-05
0.000168263
8.19068e-05
0.000135721
8.31343e-05
9.87567e-05
8.32422e-05
5.93158e-05
8.26417e-05
2.19572e-05
7.35411e-05
3.7999e-05
0.000205147
1.96927e-05
0.000207244
5.54971e-05
0.000199257
8.3088e-05
0.000180118
0.000101046
0.000151384
0.000111868
0.000114871
0.000119755
7.22091e-05
0.000125304
2.82974e-05
0.000117453
6.62965e-05
0.000202485
1.72075e-05
0.000204182
5.38005e-05
0.000199328
8.79419e-05
0.000185233
0.000115141
0.000161479
0.000135622
0.000128197
0.000153037
8.53276e-05
0.000168173
3.61728e-05
0.000166608
0.000102469
0.000201421
1.57866e-05
0.000203146
5.20749e-05
0.000201023
9.00654e-05
0.000191967
0.000124198
0.00017426
0.000153329
0.000146357
0.000180939
0.000105603
0.000208927
5.08083e-05
0.000221402
0.000153278
0.000201414
1.43729e-05
0.000204448
4.90407e-05
0.000206078
8.84352e-05
0.000203318
0.000126958
0.000193862
0.000162785
0.000175348
0.000199454
0.000141574
0.000242701
8.19519e-05
0.000281024
0.000235229
0.000201991
1.23814e-05
0.00020741
4.36221e-05
0.000214032
8.18132e-05
0.000219229
0.000121761
0.000220609
0.000161404
0.000215476
0.000204587
0.000193891
0.000264286
0.000133807
0.000341109
0.000369036
0.000202878
9.50365e-06
0.000211274
3.52258e-05
0.00022357
6.95171e-05
0.000237974
0.000107358
0.000254217
0.000145161
0.000275189
0.000183615
0.000310321
0.000229154
0.000378232
0.000273198
0.000336996
0.000410272
0.000204049
5.45507e-06
0.000215565
2.37095e-05
0.000232989
5.20931e-05
0.000254961
8.53853e-05
0.000282014
0.000118108
0.000317349
0.000148281
0.000365843
0.00018066
0.000444451
0.00019459
0.000251439
0.000530008
0.000205923
-4.67599e-07
0.000220595
9.03691e-06
0.000241681
3.10074e-05
0.000267869
5.9197e-05
0.000299295
8.66827e-05
0.000337756
0.00010982
0.000385696
0.00013272
0.000446927
0.000133358
0.000160514
0.000537853
0.00020908
-9.54762e-06
0.000226909
-8.79187e-06
0.000249473
8.44341e-06
0.000276374
3.22962e-05
0.000307903
5.51536e-05
0.000344983
7.27394e-05
0.0003898
8.79034e-05
0.000437842
8.5315e-05
9.23706e-05
0.000505986
0.00021395
-2.34974e-05
0.000231485
-2.63274e-05
0.000250703
-1.07741e-05
0.000273669
9.32986e-06
0.000301642
2.71808e-05
0.000334808
3.95737e-05
0.000374372
4.83385e-05
0.000413439
4.62487e-05
4.53899e-05
0.000460419
0.000211162
-3.46598e-05
0.000216192
-3.1357e-05
0.000222063
-1.66456e-05
0.000234203
-2.80983e-06
0.000254151
7.23261e-06
0.00028041
1.33147e-05
0.000311975
1.67736e-05
0.000342591
1.56328e-05
1.39911e-05
0.00037399
0.00016534
0.000133983
0.000117338
0.000114528
0.00012176
0.000135075
0.000151849
0.000167482
0.000181473
0.000273439
0.000136833
3.45615e-05
0.000238878
0.000522111
0.000144729
4.9058e-05
0.000507615
0.00057404
0.000108542
4.23216e-05
0.000580776
0.00054814
6.63878e-05
2.45706e-05
0.000565891
0.000495614
3.11934e-05
7.15258e-06
0.000513032
0.000397072
8.1115e-06
-1.67851e-06
0.000405903
0.000189584
0.000187906
0.000265408
-4.74967e-05
2.09666e-05
0.000296519
-0.000122705
9.15934e-05
0.000313116
-0.000182312
0.000165715
0.000314862
-0.000208557
0.000206811
0.000307534
-0.000201554
0.000208881
0.000296979
-0.000174067
0.000184622
0.000287044
-0.0001394
0.000149335
0.000279671
-0.000106412
0.000113785
-7.42682e-05
7.89303e-05
0.000492675
-3.25567e-05
0.000476023
-0.000106053
0.000450322
-0.00015661
0.000417199
-0.000175434
0.000382834
-0.000167189
0.000352481
-0.000143714
0.000328483
-0.000115401
0.000311084
-8.90127e-05
-6.31475e-05
0.000570576
-2.23564e-05
0.000544631
-8.01081e-05
0.000506183
-0.000118162
0.000462011
-0.000131262
0.000419105
-0.000124284
0.000381941
-0.00010655
0.000352275
-8.5735e-05
0.000329943
-6.66807e-05
-4.83108e-05
0.000563439
-1.99045e-05
0.000541674
-5.83435e-05
0.000505853
-8.23404e-05
0.000463556
-8.89654e-05
0.000421702
-8.24301e-05
0.000384658
-6.95052e-05
0.000354356
-5.54332e-05
0.000330796
-4.31202e-05
-3.21489e-05
0.000511305
-1.81775e-05
0.000491811
-3.88495e-05
0.000459243
-4.9773e-05
0.000420863
-5.05847e-05
0.000383111
-4.46785e-05
0.000349862
-3.62565e-05
0.00032265
-2.82214e-05
0.000301311
-2.17808e-05
-1.71351e-05
0.000398644
-1.09181e-05
0.000377056
-1.72614e-05
0.000346586
-1.93036e-05
0.000313743
-1.77419e-05
0.000283452
-1.43872e-05
0.00025807
-1.08746e-05
0.00023795
-8.10102e-06
0.000222434
-6.26546e-06
-5.77213e-06
0.000176987
0.000159726
0.000140422
0.000122681
0.000108293
9.74188e-05
8.93178e-05
8.30523e-05
-4.36147e-06
4.36147e-06
-6.62352e-06
2.26205e-06
-3.87173e-06
-2.7518e-06
2.66782e-06
-6.53956e-06
1.10769e-05
-8.40908e-06
1.9746e-05
-8.66911e-06
2.76069e-05
-7.86092e-06
3.42015e-05
-6.59453e-06
-5.76293e-06
-4.35621e-06
8.71768e-06
-3.75046e-06
1.6563e-06
5.28999e-06
-1.17922e-05
2.06582e-05
-2.19078e-05
3.8808e-05
-2.65589e-05
5.68087e-05
-2.66698e-05
7.27605e-05
-2.38127e-05
8.56222e-05
-1.94562e-05
-1.54101e-05
-5.34732e-06
1.4065e-05
-3.75467e-06
6.36542e-08
9.0477e-06
-2.45946e-05
3.01537e-05
-4.30138e-05
5.45397e-05
-5.09449e-05
7.82743e-05
-5.04044e-05
9.89707e-05
-4.45091e-05
0.000115437
-3.59231e-05
-2.73048e-05
-8.79902e-06
2.2864e-05
-8.39005e-06
-3.45305e-07
6.9899e-06
-3.99746e-05
3.30062e-05
-6.90301e-05
6.27886e-05
-8.07273e-05
9.11274e-05
-7.87432e-05
0.000115218
-6.85995e-05
0.000134014
-5.47188e-05
-4.05032e-05
-1.31823e-05
3.60463e-05
-1.25862e-05
-9.41437e-07
6.5774e-06
-5.91382e-05
3.80578e-05
-0.00010051
7.31194e-05
-0.000115789
0.000105349
-0.000110973
0.000131778
-9.50291e-05
0.000151835
-7.4775e-05
-5.41018e-05
-1.27969e-05
4.88433e-05
-5.90844e-06
-7.82994e-06
2.09106e-05
-8.59572e-05
5.78173e-05
-0.000137417
9.59093e-05
-0.000153881
0.000129201
-0.000144264
0.00015535
-0.000121179
0.000174608
-9.40323e-05
-6.66754e-05
6.32722e-06
4.25161e-05
3.30542e-05
-3.4557e-05
6.93711e-05
-0.000122274
0.000107464
-0.00017551
0.000141884
-0.000188301
0.000169556
-0.000171936
0.000190026
-0.000141649
0.00020465
-0.000108656
-7.5879e-05
6.34827e-05
0.000120519
0.00016396
0.000195261
0.000215841
0.000228527
0.000236213
0.000241342
)
;

boundaryField
{
    inlet
    {
        type            calculated;
        value           uniform -0.0002;
    }
    outlet
    {
        type            calculated;
        value           nonuniform List<scalar> 
15
(
3.99644e-05
9.52693e-05
0.000127332
0.000147212
0.000165433
0.000187181
0.000213853
0.000244393
0.000275008
0.000299963
0.000315106
0.000314634
0.000286297
0.000211071
7.72802e-05
)
;
    }
    fixedWalls
    {
        type            calculated;
        value           uniform 0;
    }
    frontAndBack
    {
        type            empty;
    }
}


// ************************************************************************* //
