/*--------------------------------*- C++ -*----------------------------------*\
| =========                 |                                                 |
| \\      /  F ield         | OpenFOAM Extend Project: Open source CFD        |
|  \\    /   O peration     | Version:  1.6-ext                               |
|   \\  /    A nd           | Web:      www.extend-project.de                 |
|    \\/     M anipulation  |                                                 |
\*---------------------------------------------------------------------------*/
FoamFile
{
    version     2.0;
    format      ascii;
    class       volVectorField;
    location    "1.4";
    object      U;
}
// * * * * * * * * * * * * * * * * * * * * * * * * * * * * * * * * * * * * * //

dimensions      [0 1 -1 0 0 0 0];

internalField   nonuniform List<vector> 
284
(
(0.163785 0.0265197 0)
(0.142266 0.0264634 0)
(0.100388 0.0186125 0)
(0.069671 0.0115217 0)
(0.0483371 0.00684404 0)
(0.0320415 0.00443222 0)
(0.0182341 0.00326078 0)
(0.00574939 0.00190702 0)
(-8.7797e-05 -0.000745361 0)
(0.200631 0.0429995 0)
(0.202625 0.0564174 0)
(0.181013 0.0511183 0)
(0.150146 0.0413216 0)
(0.117949 0.0326535 0)
(0.0862671 0.0272426 0)
(0.0549077 0.0240052 0)
(0.0240007 0.0189261 0)
(0.00444152 0.00656331 0)
(0.20315 0.0284636 0)
(0.211238 0.0581048 0)
(0.204322 0.0694198 0)
(0.183359 0.0704467 0)
(0.153509 0.0673409 0)
(0.118382 0.06442 0)
(0.0794112 0.061873 0)
(0.0376304 0.0533444 0)
(0.00823202 0.0258579 0)
(0.20158 0.0217088 0)
(0.207616 0.0563762 0)
(0.206131 0.0797624 0)
(0.192456 0.0925331 0)
(0.167997 0.0984361 0)
(0.135144 0.102005 0)
(0.0948531 0.103877 0)
(0.0475521 0.0947072 0)
(0.0113967 0.0511744 0)
(0.200612 0.0182184 0)
(0.204034 0.0545377 0)
(0.203873 0.0859817 0)
(0.194772 0.109031 0)
(0.175804 0.12481 0)
(0.147494 0.137241 0)
(0.109176 0.146965 0)
(0.0589661 0.141182 0)
(0.0160317 0.082981 0)
(0.200263 0.0164328 0)
(0.20259 0.0530489 0)
(0.203549 0.0896191 0)
(0.198516 0.120794 0)
(0.185479 0.145899 0)
(0.16344 0.168431 0)
(0.129751 0.189626 0)
(0.078416 0.193813 0)
(0.0254668 0.124962 0)
(0.200223 0.0151078 0)
(0.202873 0.0509027 0)
(0.206141 0.0901533 0)
(0.20619 0.127082 0)
(0.200644 0.160066 0)
(0.18787 0.192545 0)
(0.164298 0.227093 0)
(0.115347 0.246074 0)
(0.0455453 0.191373 0)
(0.20032 0.013464 0)
(0.204198 0.0468492 0)
(0.210984 0.0862698 0)
(0.217519 0.126223 0)
(0.22142 0.164806 0)
(0.221266 0.206226 0)
(0.211083 0.262034 0)
(0.188628 0.327729 0)
(0.0596883 0.279452 0)
(0.200486 0.0110745 0)
(0.206077 0.0400314 0)
(0.217048 0.0768828 0)
(0.231025 0.116472 0)
(0.246333 0.156084 0)
(0.266848 0.198368 0)
(0.289837 0.254234 0)
(0.349343 0.326817 0)
(0.395968 0.410744 0)
(0.200738 0.00768595 0)
(0.208359 0.0301324 0)
(0.223352 0.0619295 0)
(0.243608 0.0979658 0)
(0.267608 0.133805 0)
(0.300072 0.168922 0)
(0.33719 0.209223 0)
(0.402359 0.236641 0)
(0.483292 0.30634 0)
(0.201245 0.00302324 0)
(0.211541 0.0171231 0)
(0.229958 0.0424057 0)
(0.254041 0.0732322 0)
(0.282514 0.103443 0)
(0.317855 0.129987 0)
(0.359383 0.157228 0)
(0.412828 0.159545 0)
(0.488618 0.197029 0)
(0.202257 -0.00414163 0)
(0.216344 0.000710324 0)
(0.237115 0.0198047 0)
(0.262117 0.0456035 0)
(0.291274 0.0706875 0)
(0.325335 0.0907798 0)
(0.366308 0.109256 0)
(0.411356 0.106364 0)
(0.469062 0.11864 0)
(0.203985 -0.015043 0)
(0.221751 -0.0178344 0)
(0.240424 -0.00252932 0)
(0.261323 0.0192487 0)
(0.286788 0.0396673 0)
(0.317027 0.0547252 0)
(0.353959 0.0663713 0)
(0.392788 0.063957 0)
(0.435721 0.064332 0)
(0.201547 -0.0359319 0)
(0.214193 -0.0367407 0)
(0.218588 -0.0198961 0)
(0.226699 -0.0014352 0)
(0.242874 0.0135086 0)
(0.266061 0.0231565 0)
(0.295766 0.0290058 0)
(0.326836 0.0274217 0)
(0.358279 0.025072 0)
(0.164446 -0.0251101 0)
(0.150396 -0.0223542 0)
(0.12395 -0.0120056 0)
(0.113637 -0.00363591 0)
(0.116776 0.00188538 0)
(0.127644 0.0047947 0)
(0.143275 0.00601409 0)
(0.15965 0.00514028 0)
(0.174943 0.00382947 0)
(0.369504 0.156371 0)
(0.219937 0.0326273 0)
(0.545589 0.146815 0)
(0.516515 0.0455765 0)
(0.564836 0.128925 0)
(0.585683 0.0533001 0)
(0.530463 0.0849356 0)
(0.563222 0.0337264 0)
(0.479579 0.045294 0)
(0.508494 0.0139207 0)
(0.387141 0.0151592 0)
(0.404745 -0.000469221 0)
(0.186798 0.000646878 0)
(0.190543 -0.00343995 0)
(0.246144 -0.0505572 0)
(0.285685 -0.121979 0)
(0.312869 -0.185084 0)
(0.318735 -0.216289 0)
(0.311879 -0.212332 0)
(0.301152 -0.185082 0)
(0.290428 -0.148711 0)
(0.282473 -0.113233 0)
(0.274715 -0.0786046 0)
(0.500987 -0.0387932 0)
(0.490387 -0.115173 0)
(0.469426 -0.171686 0)
(0.43605 -0.195029 0)
(0.39874 -0.187437 0)
(0.365218 -0.161541 0)
(0.337858 -0.129554 0)
(0.318507 -0.099466 0)
(0.300825 -0.0699587 0)
(0.582033 -0.0221303 0)
(0.56419 -0.0899579 0)
(0.530437 -0.13576 0)
(0.485578 -0.152525 0)
(0.439187 -0.145449 0)
(0.398218 -0.12529 0)
(0.364497 -0.101046 0)
(0.340035 -0.0785152 0)
(0.31671 -0.0563419 0)
(0.571178 -0.0207405 0)
(0.558673 -0.068711 0)
(0.528082 -0.0994956 0)
(0.486212 -0.109286 0)
(0.441847 -0.102685 0)
(0.401462 -0.0876041 0)
(0.367288 -0.0703928 0)
(0.341804 -0.0548953 0)
(0.316657 -0.0403171 0)
(0.517574 -0.0202857 0)
(0.506625 -0.0490806 0)
(0.478872 -0.0657197 0)
(0.441193 -0.0688748 0)
(0.401406 -0.0623915 0)
(0.365148 -0.0516748 0)
(0.334492 -0.0407338 0)
(0.311373 -0.0315343 0)
(0.288432 -0.024045 0)
(0.406255 -0.0166905 0)
(0.391237 -0.0284755 0)
(0.363712 -0.0331633 0)
(0.330459 -0.0314422 0)
(0.297839 -0.0261623 0)
(0.269623 -0.0201759 0)
(0.246778 -0.0151683 0)
(0.229647 -0.0115925 0)
(0.213006 -0.00991399 0)
(0.184171 -0.006796 0)
(0.169428 -0.00826395 0)
(0.150345 -0.00777276 0)
(0.131228 -0.00612508 0)
(0.114912 -0.00427561 0)
(0.102286 -0.00281199 0)
(0.09291 -0.00192692 0)
(0.0859085 -0.00157597 0)
(0.0787191 -0.00196557 0)
(-0.00258312 0.00236211 0)
(-0.00648863 0.00181966 0)
(-0.00626398 -0.000186669 0)
(-0.00116459 -0.00173009 0)
(0.0067729 -0.00255622 0)
(0.0155587 -0.00276586 0)
(0.0238907 -0.00257269 0)
(0.0311603 -0.00225939 0)
(0.0385592 -0.00224007 0)
(-0.00304432 0.00664553 0)
(-0.00610493 0.00269008 0)
(-0.00106385 -0.00563557 0)
(0.0121474 -0.0119769 0)
(0.029687 -0.0150549 0)
(0.0481985 -0.0153781 0)
(0.0653475 -0.0138709 0)
(0.0798035 -0.0115013 0)
(0.0933064 -0.00961916 0)
(-0.00388339 0.0110053 0)
(-0.00736321 0.000719411 0)
(0.000223999 -0.0173639 0)
(0.0185653 -0.0311086 0)
(0.0423624 -0.0373136 0)
(0.0669907 -0.0372826 0)
(0.0894387 -0.0331797 0)
(0.107982 -0.0269689 0)
(0.125061 -0.0209042 0)
(-0.00603408 0.0177531 0)
(-0.0123295 -0.00048722 0)
(-0.00385908 -0.031248 0)
(0.0186718 -0.0545132 0)
(0.0480506 -0.0644077 0)
(0.0777904 -0.06348 0)
(0.104241 -0.0558226 0)
(0.125531 -0.0448585 0)
(0.144748 -0.0336714 0)
(-0.00904291 0.0290435 0)
(-0.0179969 0.000179431 0)
(-0.00670822 -0.0480945 0)
(0.0209463 -0.083239 0)
(0.0560564 -0.0970405 0)
(0.0903818 -0.0940644 0)
(0.119883 -0.0813904 0)
(0.142852 -0.0645485 0)
(0.162881 -0.0472893 0)
(-0.0100492 0.0418888 0)
(-0.015931 -0.00273835 0)
(0.00466713 -0.0713197 0)
(0.039045 -0.11861 0)
(0.077881 -0.135059 0)
(0.113916 -0.128096 0)
(0.143657 -0.108658 0)
(0.166021 -0.0848987 0)
(0.184697 -0.060834 0)
(0.000221938 0.0609255 0)
(0.013559 -0.0112873 0)
(0.0519623 -0.102192 0)
(0.0905507 -0.158342 0)
(0.12641 -0.174119 0)
(0.156931 -0.160993 0)
(0.180755 -0.133767 0)
(0.198036 -0.103077 0)
(0.211702 -0.0724702 0)
(0.0461621 0.013311 0)
(0.0893065 -0.06428 0)
(0.14739 -0.149298 0)
(0.184758 -0.197641 0)
(0.207668 -0.204953 0)
(0.222633 -0.18372 0)
(0.232281 -0.149699 0)
(0.238734 -0.114236 0)
(0.242965 -0.0793462 0)
)
;

boundaryField
{
    inlet
    {
        type            fixedValue;
        value           uniform (0.2 0 0);
    }
    outlet
    {
        type            zeroGradient;
    }
    fixedWalls
    {
        type            fixedValue;
        value           uniform (0 0 0);
    }
    frontAndBack
    {
        type            empty;
    }
}


// ************************************************************************* //
