/*--------------------------------*- C++ -*----------------------------------*\
| =========                 |                                                 |
| \\      /  F ield         | OpenFOAM Extend Project: Open source CFD        |
|  \\    /   O peration     | Version:  1.6-ext                               |
|   \\  /    A nd           | Web:      www.extend-project.de                 |
|    \\/     M anipulation  |                                                 |
\*---------------------------------------------------------------------------*/
FoamFile
{
    version     2.0;
    format      ascii;
    class       volScalarField;
    location    "2.8";
    object      p;
}
// * * * * * * * * * * * * * * * * * * * * * * * * * * * * * * * * * * * * * //

dimensions      [0 2 -2 0 0 0 0];

internalField   nonuniform List<scalar> 
72
(
-0.0329363
-0.0335572
-0.0315677
-0.0276815
-0.0222237
-0.0158054
-0.00922261
-0.00492345
0.00396731
-0.0324196
-0.0332616
-0.031685
-0.0284102
-0.0235234
-0.0173915
-0.0105799
-0.00628131
0.0029018
-0.0344645
-0.035537
-0.0341692
-0.0310021
-0.0259496
-0.0194033
-0.0121233
-0.00641686
0.00269285
-0.0387643
-0.0399083
-0.0387122
-0.0355024
-0.030061
-0.0226879
-0.0142078
-0.00705111
0.00235188
-0.0455343
-0.0463075
-0.0452866
-0.0419696
-0.0359897
-0.0272547
-0.0173744
-0.00831468
0.00154352
-0.0548303
-0.0542413
-0.0535521
-0.0504051
-0.0433409
-0.0329558
-0.0211618
-0.0100627
0.000201325
-0.0659658
-0.0618778
-0.0613896
-0.0578867
-0.0500442
-0.0381116
-0.0245296
-0.0117124
-0.00138271
-0.0871184
-0.0697456
-0.067659
-0.0627669
-0.0535851
-0.0403806
-0.0258632
-0.0123981
-0.00268187
)
;

boundaryField
{
    inlet
    {
        type            zeroGradient;
    }
    outlet
    {
        type            totalPressure;
        rho             none;
        psi             none;
        gamma           1;
        p0              uniform 0;
        value           uniform 0;
    }
    fixedWalls
    {
        type            zeroGradient;
    }
    frontAndBack
    {
        type            empty;
    }
    procBoundary0to1
    {
        type            processor;
        value           nonuniform List<scalar> 9(-0.0803353 -0.0721226 -0.0672162 -0.0609569 -0.0509732 -0.0376358 -0.023804 -0.0113586 -0.00338722);
    }
}


// ************************************************************************* //
