/*--------------------------------*- C++ -*----------------------------------*\
| =========                 |                                                 |
| \\      /  F ield         | OpenFOAM Extend Project: Open source CFD        |
|  \\    /   O peration     | Version:  1.6-ext                               |
|   \\  /    A nd           | Web:      www.extend-project.de                 |
|    \\/     M anipulation  |                                                 |
\*---------------------------------------------------------------------------*/
FoamFile
{
    version     2.0;
    format      ascii;
    class       surfaceScalarField;
    location    "2.8";
    object      phi;
}
// * * * * * * * * * * * * * * * * * * * * * * * * * * * * * * * * * * * * * //

dimensions      [0 3 -1 0 0 0 0];

internalField   nonuniform List<scalar> 
127
(
-5.00214e-06
5.00214e-06
-1.39329e-05
8.93073e-06
-2.14706e-05
7.53777e-06
-2.49898e-05
3.51913e-06
-2.37158e-05
-1.27393e-06
-1.80441e-05
-5.67178e-06
-9.02032e-06
-9.02373e-06
2.16734e-06
-1.11877e-05
-1.19394e-05
-9.71821e-06
1.47204e-05
-2.40376e-05
2.32501e-05
-3.44576e-05
1.79578e-05
-3.69862e-05
6.04768e-06
-3.08025e-05
-7.45761e-06
-1.72118e-05
-1.92625e-05
1.0069e-06
-2.72424e-05
2.15654e-05
-3.17461e-05
-3.2016e-05
-1.16049e-05
2.63253e-05
-2.75427e-05
3.91879e-05
-3.78979e-05
2.8313e-05
-3.82191e-05
6.36883e-06
-2.77735e-05
-1.79032e-05
-8.4232e-06
-3.86128e-05
1.63636e-05
-5.20293e-05
4.27173e-05
-5.80997e-05
-5.70032e-05
-1.26174e-05
3.89426e-05
-2.85855e-05
5.51561e-05
-3.76749e-05
3.74024e-05
-3.53321e-05
4.02596e-06
-2.1329e-05
-3.19062e-05
2.36435e-06
-6.23061e-05
3.17478e-05
-8.14127e-05
6.27129e-05
-8.90649e-05
-8.52803e-05
-1.23718e-05
5.13145e-05
-2.50101e-05
6.77944e-05
-2.9683e-05
4.20753e-05
-2.26446e-05
-3.01239e-06
-4.3103e-06
-5.02406e-05
2.26007e-05
-8.92171e-05
5.49214e-05
-0.000113733
8.83045e-05
-0.000122448
-0.000114677
-8.57481e-06
5.98893e-05
-1.07565e-05
6.9976e-05
-4.36323e-06
3.5682e-05
1.1268e-05
-1.86436e-05
3.50033e-05
-7.39758e-05
6.45263e-05
-0.00011874
9.6725e-05
-0.000145932
0.000128742
-0.000154465
-0.000141685
4.87126e-06
5.5018e-05
2.36948e-05
5.11525e-05
4.97782e-05
9.59864e-06
7.79965e-05
-4.68619e-05
0.000107461
-0.000103441
0.000136884
-0.000148163
0.000164582
-0.000173629
0.000189913
-0.000179796
-0.000161423
4.45372e-05
9.60652e-05
0.000142815
0.000182399
0.000214036
0.000238478
0.000256277
0.00026928
)
;

boundaryField
{
    inlet
    {
        type            calculated;
        value           nonuniform 0();
    }
    outlet
    {
        type            calculated;
        value           nonuniform List<scalar> 8(1.41067e-05 4.1642e-05 6.77044e-05 9.09901e-05 0.000117701 0.00015575 0.000209651 0.000276555);
    }
    fixedWalls
    {
        type            calculated;
        value           uniform 0;
    }
    frontAndBack
    {
        type            empty;
    }
    procBoundary0to1
    {
        type            processor;
        value           nonuniform List<scalar> 9(1.04808e-05 -3.75455e-07 -3.7151e-05 -8.64459e-05 -0.000135078 -0.000172606 -0.000191428 -0.0001928 -0.000168698);
    }
}


// ************************************************************************* //
