/*--------------------------------*- C++ -*----------------------------------*\
| =========                 |                                                 |
| \\      /  F ield         | OpenFOAM Extend Project: Open source CFD        |
|  \\    /   O peration     | Version:  1.6-ext                               |
|   \\  /    A nd           | Web:      www.extend-project.de                 |
|    \\/     M anipulation  |                                                 |
\*---------------------------------------------------------------------------*/
FoamFile
{
    version     2.0;
    format      ascii;
    class       surfaceScalarField;
    location    "0.5";
    object      phi;
}
// * * * * * * * * * * * * * * * * * * * * * * * * * * * * * * * * * * * * * //

dimensions      [0 3 -1 0 0 0 0];

internalField   nonuniform List<scalar> 
127
(
2.14681e-06
-2.14681e-06
1.21361e-05
-9.98931e-06
2.41727e-05
-1.20366e-05
3.57215e-05
-1.15488e-05
4.58382e-05
-1.01167e-05
5.41184e-05
-8.28021e-06
6.04189e-05
-6.30042e-06
6.47658e-05
-4.34693e-06
-2.79925e-06
7.42491e-06
-9.57173e-06
2.63824e-05
-2.89468e-05
4.78701e-05
-3.35243e-05
6.82167e-05
-3.18954e-05
8.59497e-05
-2.78498e-05
0.000100448
-2.2778e-05
0.000111492
-1.73444e-05
0.000119056
-1.19115e-05
-7.12885e-06
8.03067e-06
-1.76024e-05
3.02541e-05
-5.11702e-05
5.54549e-05
-5.87251e-05
7.90659e-05
-5.55064e-05
9.93385e-05
-4.81224e-05
0.000115681
-3.91201e-05
0.000128011
-2.96747e-05
0.000136424
-2.03244e-05
-1.18785e-05
6.40128e-06
-2.40037e-05
3.16305e-05
-7.63995e-05
6.06618e-05
-8.77563e-05
8.72211e-05
-8.20656e-05
0.000109235
-7.01358e-05
0.000126395
-5.62809e-05
0.000139027
-4.23067e-05
0.000147546
-2.88427e-05
-1.66381e-05
3.27562e-06
-2.72793e-05
3.33133e-05
-0.000106437
6.84051e-05
-0.000122848
9.89658e-05
-0.000112626
0.000122765
-9.39349e-05
0.000140305
-7.38214e-05
0.000152695
-5.46965e-05
0.000160887
-3.7034e-05
-2.11411e-05
2.32698e-06
-2.96063e-05
4.01174e-05
-0.000144228
8.30365e-05
-0.000165767
0.000117732
-0.000147322
0.000142479
-0.000118682
0.000159307
-9.06491e-05
0.000170499
-6.58885e-05
0.00017769
-4.42259e-05
-2.50122e-05
2.60912e-05
-5.56975e-05
6.963e-05
-0.000187766
0.000115094
-0.000211232
0.000149185
-0.000181412
0.000171041
-0.000140538
0.000184399
-0.000104007
0.000192576
-7.4065e-05
0.000197654
-4.93045e-05
-2.76882e-05
0.000100845
0.000152728
0.000185252
0.00020344
0.00021223
0.000216353
0.000218486
0.000219884
)
;

boundaryField
{
    inlet
    {
        type            calculated;
        value           nonuniform 0();
    }
    outlet
    {
        type            calculated;
        value           nonuniform List<scalar> 8(6.7565e-05 0.000123386 0.000141173 0.000152305 0.00016539 0.000181561 0.00020033 0.000220668);
    }
    fixedWalls
    {
        type            calculated;
        value           uniform 0;
    }
    frontAndBack
    {
        type            empty;
    }
    procBoundary0to1
    {
        type            processor;
        value           nonuniform List<scalar> 9(-0.000156543 -0.000239649 -0.000243756 -0.0001996 -0.000149328 -0.000108131 -7.6198e-05 -5.07021e-05 -2.84723e-05);
    }
}


// ************************************************************************* //
