/*--------------------------------*- C++ -*----------------------------------*\
| =========                 |                                                 |
| \\      /  F ield         | OpenFOAM Extend Project: Open source CFD        |
|  \\    /   O peration     | Version:  1.6-ext                               |
|   \\  /    A nd           | Web:      www.extend-project.de                 |
|    \\/     M anipulation  |                                                 |
\*---------------------------------------------------------------------------*/
FoamFile
{
    version     2.0;
    format      ascii;
    class       volVectorField;
    location    "0.5";
    object      U;
}
// * * * * * * * * * * * * * * * * * * * * * * * * * * * * * * * * * * * * * //

dimensions      [0 1 -1 0 0 0 0];

internalField   nonuniform List<vector> 
72
(
(-0.00047483 -5.24953e-05 0)
(0.00551639 -0.00351257 0)
(0.0181987 -0.00448298 0)
(0.0302309 -0.00433881 0)
(0.0411137 -0.00380077 0)
(0.0503435 -0.00309748 0)
(0.0576347 -0.00234042 0)
(0.0629723 -0.00161469 0)
(0.066812 -0.00112567 0)
(0.00157533 -0.00479288 0)
(0.0146493 -0.0176061 0)
(0.0372527 -0.0208375 0)
(0.0585836 -0.0199572 0)
(0.0777085 -0.0174946 0)
(0.0938737 -0.0143418 0)
(0.106651 -0.0109319 0)
(0.115946 -0.00752918 0)
(0.122469 -0.00467371 0)
(0.00131608 -0.0135691 0)
(0.0163188 -0.0393077 0)
(0.0431242 -0.0453026 0)
(0.0679821 -0.0430696 0)
(0.0899842 -0.0375706 0)
(0.108314 -0.0307014 0)
(0.12263 -0.0233685 0)
(0.132963 -0.0160345 0)
(0.140211 -0.00946841 0)
(-0.000610562 -0.0207362 0)
(0.0150832 -0.0627423 0)
(0.0467769 -0.0721362 0)
(0.0749667 -0.0680681 0)
(0.0992144 -0.0587753 0)
(0.118744 -0.0475788 0)
(0.133551 -0.0359791 0)
(0.144036 -0.0245962 0)
(0.151323 -0.0142793 0)
(-0.00417044 -0.0257134 0)
(0.0122775 -0.0898602 0)
(0.0523427 -0.103611 0)
(0.0852502 -0.096354 0)
(0.112151 -0.0816728 0)
(0.132616 -0.0650325 0)
(0.147378 -0.0486098 0)
(0.157507 -0.0330442 0)
(0.164415 -0.0189695 0)
(-0.00604389 -0.0320816 0)
(0.0125535 -0.122965 0)
(0.0644978 -0.142355 0)
(0.102683 -0.129086 0)
(0.131691 -0.106246 0)
(0.15208 -0.082554 0)
(0.16575 -0.06068 0)
(0.174712 -0.0409295 0)
(0.180649 -0.0232666 0)
(0.0174721 -0.0180306 0)
(0.0402465 -0.161114 0)
(0.0965039 -0.18979 0)
(0.134815 -0.166309 0)
(0.161576 -0.131266 0)
(0.178699 -0.0986383 0)
(0.189104 -0.0709412 0)
(0.195513 -0.047397 0)
(0.199572 -0.0267073 0)
(0.10279 -0.113823 0)
(0.120904 -0.230086 0)
(0.172046 -0.241822 0)
(0.19513 -0.200304 0)
(0.207748 -0.150719 0)
(0.214211 -0.109339 0)
(0.217355 -0.0769987 0)
(0.219156 -0.0510661 0)
(0.220185 -0.0286286 0)
)
;

boundaryField
{
    inlet
    {
        type            fixedValue;
        value           nonuniform 0();
    }
    outlet
    {
        type            zeroGradient;
    }
    fixedWalls
    {
        type            fixedValue;
        value           uniform (0 0 0);
    }
    frontAndBack
    {
        type            empty;
    }
    procBoundary0to1
    {
        type            processor;
        value           nonuniform List<vector> 9((0.385556 -0.175967 0) (0.373914 -0.242475 0) (0.328858 -0.237161 0) (0.293411 -0.193491 0) (0.270647 -0.145127 0) (0.256522 -0.105458 0) (0.2482 -0.0746469 0) (0.243675 -0.0499961 0) (0.240873 -0.0282352 0));
    }
}


// ************************************************************************* //
