/*--------------------------------*- C++ -*----------------------------------*\
| =========                 |                                                 |
| \\      /  F ield         | OpenFOAM Extend Project: Open source CFD        |
|  \\    /   O peration     | Version:  1.6-ext                               |
|   \\  /    A nd           | Web:      www.extend-project.de                 |
|    \\/     M anipulation  |                                                 |
\*---------------------------------------------------------------------------*/
FoamFile
{
    version     2.0;
    format      ascii;
    class       surfaceScalarField;
    location    "4";
    object      phi;
}
// * * * * * * * * * * * * * * * * * * * * * * * * * * * * * * * * * * * * * //

dimensions      [0 3 -1 0 0 0 0];

internalField   nonuniform List<scalar> 
123
(
0.000202632
1.13679e-05
0.000210265
3.45556e-05
0.000222161
6.08874e-05
0.000237725
9.23437e-05
0.000257022
0.000130729
0.000281978
0.000177026
0.000319522
0.000234124
0.00038461
0.000291616
0.000361804
0.000405547
0.000203917
7.45083e-06
0.000214634
2.38382e-05
0.000230977
4.45449e-05
0.000252726
7.05945e-05
0.000281282
0.000102173
0.000320094
0.000138214
0.000372922
0.000181296
0.000454646
0.000209893
0.000281496
0.000534954
0.000205986
1.46445e-06
0.000220237
9.58713e-06
0.000240154
2.46282e-05
0.000265194
4.5555e-05
0.000296543
7.08239e-05
0.000336854
9.7903e-05
0.000388274
0.000129876
0.000454755
0.000143412
0.000187327
0.000548923
0.000209422
-7.95711e-06
0.000227341
-8.33228e-06
0.000248859
3.10986e-06
0.000273827
2.05873e-05
0.000303577
4.10739e-05
0.00034021
6.12701e-05
0.000386555
8.353e-05
0.000438841
9.11267e-05
0.000111207
0.000514961
0.000214496
-2.24528e-05
0.000232302
-2.61382e-05
0.00025
-1.45886e-05
0.000269686
9.01248e-07
0.000293621
1.71389e-05
0.000323686
3.12056e-05
0.000362486
4.473e-05
0.000404243
4.93692e-05
5.64997e-05
0.00045895
0.000211666
-3.41189e-05
0.000216755
-3.12268e-05
0.000220417
-1.82512e-05
0.000227663
-6.34466e-06
0.000241622
3.18036e-06
0.000262869
9.95844e-06
0.000292174
1.5425e-05
0.000324483
1.70601e-05
1.85042e-05
0.000362478
0.000165881
0.000134654
0.000116403
0.000110058
0.000113239
0.000123197
0.000138622
0.000155682
0.000174187
0.000156806
0.000179961
0.000143942
9.36123e-05
4.81148e-05
1.47235e-05
)
;

boundaryField
{
    inlet
    {
        type            calculated;
        value           nonuniform List<scalar> 7(-0.0002 -0.0002 -0.0002 -0.0002 -0.0002 -0.0002 -0.0002);
    }
    outlet
    {
        type            calculated;
        value           nonuniform 0();
    }
    fixedWalls
    {
        type            calculated;
        value           uniform 0;
    }
    frontAndBack
    {
        type            empty;
    }
    procBoundary2to3
    {
        type            processor;
        value           nonuniform List<scalar> 9(-1.39995e-05 -4.21889e-05 -7.27834e-05 -0.000107908 -0.000150026 -0.000201981 -0.000271668 -0.000356704 -0.000382741);
    }
    procBoundary2to1
    {
        type            processor;
        value           nonuniform List<scalar> 7(0.000248741 0.000511798 0.000584942 0.000565291 0.000504448 0.00039587 0.00018891);
    }
}


// ************************************************************************* //
