/*--------------------------------*- C++ -*----------------------------------*\
| =========                 |                                                 |
| \\      /  F ield         | OpenFOAM Extend Project: Open source CFD        |
|  \\    /   O peration     | Version:  1.6-ext                               |
|   \\  /    A nd           | Web:      www.extend-project.de                 |
|    \\/     M anipulation  |                                                 |
\*---------------------------------------------------------------------------*/
FoamFile
{
    version     2.0;
    format      ascii;
    class       volScalarField;
    location    "0.7";
    object      p;
}
// * * * * * * * * * * * * * * * * * * * * * * * * * * * * * * * * * * * * * //

dimensions      [0 2 -2 0 0 0 0];

internalField   nonuniform List<scalar> 
284
(
0.251033
0.219683
0.208382
0.203248
0.200784
0.200026
0.200298
0.201286
0.204181
0.221943
0.21274
0.207317
0.204601
0.20328
0.20303
0.203508
0.204429
0.207473
0.210589
0.206619
0.203833
0.202376
0.201731
0.201883
0.202605
0.203618
0.207055
0.201538
0.199875
0.198557
0.197938
0.197734
0.198063
0.198773
0.199619
0.203244
0.194092
0.19322
0.192499
0.192087
0.191768
0.191722
0.19181
0.191783
0.194965
0.187361
0.186727
0.186033
0.185262
0.184201
0.183032
0.181532
0.179297
0.180059
0.181055
0.180438
0.179429
0.177857
0.175437
0.172212
0.167552
0.160143
0.153499
0.17527
0.174581
0.173057
0.170374
0.166083
0.160018
0.150877
0.138711
0.0927442
0.170316
0.169512
0.167377
0.163418
0.156757
0.146473
0.126486
0.0909283
-0.0048699
0.16659
0.165621
0.162878
0.157859
0.149654
0.137397
0.117261
0.0874115
0.0372921
0.164516
0.163201
0.159799
0.154009
0.145205
0.132891
0.115713
0.0921354
0.0623472
0.164501
0.162401
0.158045
0.151555
0.142525
0.130609
0.115415
0.0954969
0.0733791
0.167974
0.163578
0.157455
0.150049
0.140842
0.129377
0.115483
0.0982378
0.079759
0.174636
0.16508
0.156731
0.14883
0.139778
0.128876
0.115932
0.100453
0.083806
0.203448
0.172544
0.159203
0.150217
0.141094
0.13061
0.118147
0.103317
0.0870187
-0.141526
-0.119686
-0.0307874
-0.0545475
0.0146479
-0.0119074
0.0431437
0.0216993
0.0577633
0.0382806
0.0655326
0.0482221
0.0692241
0.0514856
-0.104218
-0.067785
-0.0331645
-0.0109825
-0.000364833
0.00372682
0.00446813
0.00343591
0.001203
-0.0582569
-0.0386216
-0.0168296
-0.00313963
0.00302017
0.00507822
0.00492576
0.00348762
0.00103487
-0.0178123
-0.0117616
-0.00274796
0.00342741
0.00600836
0.00629255
0.00525108
0.00343147
0.000864988
0.0103064
0.00715184
0.00776546
0.00855988
0.00825878
0.00703372
0.00525125
0.00317914
0.000664812
0.0256744
0.0183131
0.0142523
0.0116065
0.0093078
0.00705896
0.00484061
0.00271492
0.000443137
0.0343429
0.0243107
0.0174734
0.0127507
0.00924845
0.00645657
0.00411689
0.00212681
0.000255441
0.0362789
0.0246269
0.0164258
0.0109046
0.00716196
0.00451131
0.00253155
0.0010109
-0.000112768
-0.00826374
-0.00530973
-0.0022832
0.00052892
0.00251614
0.00350432
0.0035452
0.00280761
0.00141897
-0.0109638
-0.0078598
-0.0047789
-0.001687
0.000665934
0.0020236
0.00242997
0.00206792
0.00117636
-0.0146214
-0.0108551
-0.00706912
-0.0032198
-0.000291911
0.00144432
0.0020943
0.00189443
0.00116011
-0.0207772
-0.0156405
-0.0104651
-0.00517988
-0.00127424
0.00102181
0.00196077
0.00188297
0.00117676
-0.0277697
-0.0229494
-0.0153707
-0.00762881
-0.00221383
0.000826501
0.0020712
0.00204876
0.0012309
-0.0488079
-0.0349677
-0.0223615
-0.0106061
-0.00298067
0.000948773
0.00244501
0.00237132
0.00130246
-0.0649714
-0.0492702
-0.0305985
-0.0136949
-0.003398
0.00141559
0.00302229
0.00276858
0.00134236
-0.127877
-0.0719594
-0.0388273
-0.0155579
-0.00299873
0.00226701
0.00371242
0.00314447
0.00130703
)
;

boundaryField
{
    inlet
    {
        type            zeroGradient;
    }
    outlet
    {
        type            totalPressure;
        rho             none;
        psi             none;
        gamma           1;
        p0              uniform 0;
        value           uniform 0;
    }
    fixedWalls
    {
        type            zeroGradient;
    }
    frontAndBack
    {
        type            empty;
    }
}


// ************************************************************************* //
