/*--------------------------------*- C++ -*----------------------------------*\
| =========                 |                                                 |
| \\      /  F ield         | OpenFOAM Extend Project: Open source CFD        |
|  \\    /   O peration     | Version:  1.6-ext                               |
|   \\  /    A nd           | Web:      www.extend-project.de                 |
|    \\/     M anipulation  |                                                 |
\*---------------------------------------------------------------------------*/
FoamFile
{
    version     2.0;
    format      ascii;
    class       surfaceScalarField;
    location    "0.7";
    object      phi;
}
// * * * * * * * * * * * * * * * * * * * * * * * * * * * * * * * * * * * * * //

dimensions      [0 3 -1 0 0 0 0];

internalField   nonuniform List<scalar> 
525
(
0.000162087
3.79135e-05
0.000122313
3.97737e-05
9.20441e-05
3.02688e-05
6.9737e-05
2.23071e-05
5.18061e-05
1.79309e-05
3.55143e-05
1.62919e-05
1.96495e-05
1.58648e-05
5.61995e-06
1.40295e-05
5.61995e-06
0.000204818
3.30951e-05
0.000190886
5.37057e-05
0.000166371
5.47837e-05
0.00013842
5.02581e-05
0.000109288
4.70633e-05
7.89708e-05
4.66091e-05
4.74034e-05
4.74322e-05
1.73387e-05
4.40942e-05
2.29587e-05
0.000207156
2.59395e-05
0.000201857
5.90047e-05
0.00018444
7.22004e-05
0.000159447
7.52504e-05
0.000129838
7.66726e-05
9.65063e-05
7.99409e-05
5.98354e-05
8.41031e-05
2.30516e-05
8.0878e-05
4.60103e-05
0.000203434
2.25055e-05
0.000199582
6.28563e-05
0.00018606
8.5723e-05
0.000165026
9.62839e-05
0.000138194
0.000103505
0.000105903
0.000112232
6.80312e-05
0.000121975
2.7441e-05
0.000121468
7.34513e-05
0.000201245
2.12601e-05
0.00019772
6.63819e-05
0.000187166
9.62772e-05
0.000170181
0.000113269
0.000147163
0.000126522
0.000117419
0.000141976
7.95372e-05
0.000159857
3.46487e-05
0.000166357
0.0001081
0.000200722
2.05379e-05
0.00019862
6.84842e-05
0.000191671
0.000103226
0.000179529
0.000125411
0.000161608
0.000144443
0.000136105
0.000167479
9.95343e-05
0.000196428
4.92041e-05
0.000216687
0.000157304
0.00020121
1.93281e-05
0.000201835
6.78585e-05
0.000199751
0.00010531
0.000194
0.000131163
0.000183545
0.000154898
0.000166298
0.000184727
0.000135944
0.000226781
8.16977e-05
0.000270933
0.000239002
0.000202231
1.7097e-05
0.000206575
6.35142e-05
0.00021058
0.000101306
0.000212931
0.000128811
0.000212563
0.000155266
0.000207343
0.000189947
0.000187967
0.000246156
0.000134659
0.000324242
0.000373661
0.000203503
1.35944e-05
0.000212046
5.49704e-05
0.000222776
9.05761e-05
0.000234589
0.000116998
0.000248657
0.000141198
0.000268413
0.00017019
0.000306541
0.000208029
0.000384632
0.00024615
0.00032934
0.000428953
0.000204914
8.68086e-06
0.000217514
4.23695e-05
0.000234279
7.38115e-05
0.000253888
9.73892e-05
0.000277999
0.000117087
0.000310587
0.000137602
0.000358197
0.000160419
0.000435432
0.000168915
0.000238856
0.000525916
0.000206735
1.9459e-06
0.000222924
2.61806e-05
0.000244072
5.2663e-05
0.000268281
7.31805e-05
0.000296387
8.89808e-05
0.000331084
0.000102905
0.000375282
0.000116222
0.000429487
0.000114709
0.000147402
0.000520942
0.000209622
-7.67642e-06
0.000228968
6.83534e-06
0.000252507
2.91231e-05
0.000278387
4.73005e-05
0.000307108
6.02606e-05
0.000340293
6.97195e-05
0.000379428
7.70874e-05
0.000420373
7.37637e-05
8.32387e-05
0.000484536
0.000213973
-2.16497e-05
0.000234407
-1.35986e-05
0.000257077
6.45359e-06
0.000281621
2.27562e-05
0.000308716
3.31655e-05
0.000339002
3.94335e-05
0.000372967
4.31228e-05
0.000406108
4.06226e-05
4.06456e-05
0.000448701
0.000211857
-3.35064e-05
0.000222751
-2.44933e-05
0.0002369
-7.69501e-06
0.000255604
4.05275e-06
0.000278215
1.0554e-05
0.000303835
1.38136e-05
0.000331708
1.525e-05
0.000358291
1.40396e-05
1.27848e-05
0.000386151
0.000166494
0.000142
0.000134305
0.000138358
0.000148912
0.000162726
0.000177976
0.000192015
0.0002048
0.000308702
0.000120251
4.93808e-06
0.000303764
0.000530013
0.000116154
-1.44536e-08
0.000534966
0.000554828
8.22679e-05
2.84881e-06
0.000551965
0.000517314
4.94897e-05
-2.41033e-07
0.000520404
0.000475277
2.29138e-05
-3.01505e-06
0.000478051
0.000403199
5.86638e-06
-3.86354e-06
0.000404047
0.000210666
0.000206803
0.000333121
-0.000138797
0.00010944
0.000338791
-0.000210621
0.000204951
0.000319801
-0.000218183
0.000237172
0.000295091
-0.00018924
0.000213951
0.000275553
-0.000150118
0.000169655
0.000262627
-0.000113682
0.000126608
0.000254768
-8.32432e-05
9.11028e-05
0.000250472
-5.83338e-05
6.26301e-05
-3.58587e-05
3.79206e-05
0.000499326
-0.000103157
0.000446402
-0.000157698
0.000391321
-0.000163101
0.000346238
-0.000144157
0.000314519
-0.000118399
0.000293617
-9.27798e-05
0.00028016
-6.97865e-05
0.00027188
-5.00532e-05
-3.13244e-05
0.000514761
-6.59524e-05
0.000461228
-0.000104166
0.000410517
-0.000112389
0.00036943
-0.000103071
0.000338274
-8.72425e-05
0.000315588
-7.00943e-05
0.000299585
-5.37832e-05
0.00028884
-3.93089e-05
-2.50708e-05
0.00049521
-4.07579e-05
0.000456204
-6.51596e-05
0.000415886
-7.20717e-05
0.000380408
-6.75932e-05
0.000351321
-5.81547e-05
0.000328583
-4.73562e-05
0.000311575
-3.67758e-05
0.000299509
-2.72423e-05
-1.77792e-05
0.000461959
-2.46662e-05
0.000434075
-3.72754e-05
0.000402564
-4.05612e-05
0.00037269
-3.77189e-05
0.000346764
-3.22286e-05
0.00032553
-2.61224e-05
0.000309034
-2.02798e-05
0.000296902
-1.51107e-05
-1.02459e-05
0.000390734
-1.13527e-05
0.000368471
-1.50121e-05
0.000343103
-1.51935e-05
0.000318757
-1.33727e-05
0.000297457
-1.09286e-05
0.000279904
-8.56936e-06
0.000266157
-6.53272e-06
0.000255931
-4.88526e-06
-3.70899e-06
0.00019545
0.000180438
0.000165245
0.000151872
0.000140943
0.000132374
0.000125841
0.000120956
-6.19115e-07
6.19115e-07
5.85033e-06
-6.46944e-06
1.56871e-05
-9.83677e-06
2.60905e-05
-1.04034e-05
3.56956e-05
-9.60511e-06
4.38362e-05
-8.1406e-06
5.02326e-05
-6.39643e-06
5.48681e-05
-4.63547e-06
-3.34251e-06
3.36334e-06
-2.74422e-06
1.81351e-05
-2.12412e-05
3.77167e-05
-2.94184e-05
5.77738e-05
-3.04604e-05
7.60608e-05
-2.78921e-05
9.14904e-05
-2.35702e-05
0.0001036
-1.85056e-05
0.000112246
-1.32821e-05
-8.75674e-06
3.57999e-06
-6.32421e-06
2.14347e-05
-3.90959e-05
4.54101e-05
-5.33938e-05
6.98419e-05
-5.48923e-05
9.18218e-05
-4.98719e-05
0.000110103
-4.18516e-05
0.000124303
-3.27055e-05
0.000134388
-2.33674e-05
-1.49401e-05
9.0182e-07
-7.22603e-06
2.04806e-05
-5.86748e-05
4.85744e-05
-8.14875e-05
7.69908e-05
-8.33087e-05
0.000101768
-7.46495e-05
0.000121677
-6.17602e-05
0.000136723
-4.77516e-05
0.000147254
-3.38979e-05
-2.13025e-05
-3.25787e-06
-3.96816e-06
1.87001e-05
-8.06328e-05
5.3041e-05
-0.000115828
8.67707e-05
-0.000117038
0.000114605
-0.000102484
0.00013573
-8.28859e-05
0.00015098
-6.30009e-05
0.000161387
-4.43048e-05
-2.74544e-05
-7.17208e-06
3.20392e-06
2.31704e-05
-0.000110975
6.56361e-05
-0.000158294
0.000104618
-0.00015602
0.00013449
-0.000132355
0.000155532
-0.000103928
0.000169804
-7.7273e-05
0.000179217
-5.3718e-05
-3.28662e-05
2.1542e-05
-1.83381e-05
5.82679e-05
-0.000147701
0.000102272
-0.000202298
0.000139721
-0.000193469
0.000166123
-0.000158757
0.000183196
-0.000121001
0.000193956
-8.80335e-05
0.000200815
-6.05766e-05
-3.67064e-05
9.11017e-05
0.000148352
0.000183226
0.000203707
0.000214606
0.000220212
0.000223282
0.000225335
)
;

boundaryField
{
    inlet
    {
        type            calculated;
        value           uniform -0.0002;
    }
    outlet
    {
        type            calculated;
        value           nonuniform List<scalar> 
15
(
5.82106e-05
0.00011766
0.000140572
0.000153616
0.000167538
0.000184629
0.000204655
0.000226549
0.00024841
0.000267345
0.000282587
0.000292217
0.000289369
0.000249394
0.000117247
)
;
    }
    fixedWalls
    {
        type            calculated;
        value           uniform 0;
    }
    frontAndBack
    {
        type            empty;
    }
}


// ************************************************************************* //
