/*--------------------------------*- C++ -*----------------------------------*\
| =========                 |                                                 |
| \\      /  F ield         | OpenFOAM Extend Project: Open source CFD        |
|  \\    /   O peration     | Version:  1.6-ext                               |
|   \\  /    A nd           | Web:      www.extend-project.de                 |
|    \\/     M anipulation  |                                                 |
\*---------------------------------------------------------------------------*/
FoamFile
{
    version     2.0;
    format      ascii;
    class       volVectorField;
    location    "0.7";
    object      U;
}
// * * * * * * * * * * * * * * * * * * * * * * * * * * * * * * * * * * * * * //

dimensions      [0 1 -1 0 0 0 0];

internalField   nonuniform List<vector> 
284
(
(0.163307 0.0257717 0)
(0.144745 0.0243375 0)
(0.106606 0.0163755 0)
(0.0796877 0.0103215 0)
(0.0604045 0.00710092 0)
(0.0437058 0.00578835 0)
(0.0275554 0.00529484 0)
(0.010993 0.00430432 0)
(0.00129121 0.000755195 0)
(0.199282 0.041798 0)
(0.202706 0.0520744 0)
(0.181091 0.0449344 0)
(0.152598 0.0361686 0)
(0.124144 0.0308122 0)
(0.0947094 0.0288842 0)
(0.063472 0.0285396 0)
(0.030041 0.0257283 0)
(0.00643627 0.0117664 0)
(0.20144 0.0285525 0)
(0.208633 0.0565719 0)
(0.196227 0.0640914 0)
(0.172917 0.0632688 0)
(0.145545 0.0620946 0)
(0.114281 0.0631516 0)
(0.0789401 0.0652698 0)
(0.0391337 0.0616465 0)
(0.00912843 0.0337549 0)
(0.199781 0.023754 0)
(0.20459 0.0607864 0)
(0.195528 0.0794201 0)
(0.176654 0.0864775 0)
(0.152834 0.0907477 0)
(0.123606 0.0965175 0)
(0.0883408 0.103101 0)
(0.0458089 0.100707 0)
(0.0115044 0.0590397 0)
(0.198785 0.0217687 0)
(0.201844 0.0647696 0)
(0.194671 0.0915963 0)
(0.179684 0.105612 0)
(0.160057 0.115867 0)
(0.134284 0.12778 0)
(0.10067 0.141122 0)
(0.0560667 0.14311 0)
(0.0158866 0.089407 0)
(0.198413 0.0209237 0)
(0.201479 0.06783 0)
(0.196955 0.100576 0)
(0.186437 0.120438 0)
(0.172011 0.136706 0)
(0.151284 0.155937 0)
(0.121156 0.179138 0)
(0.075269 0.191665 0)
(0.0252613 0.130075 0)
(0.198351 0.0200386 0)
(0.202771 0.0687882 0)
(0.202201 0.105376 0)
(0.197466 0.129762 0)
(0.190088 0.151456 0)
(0.177527 0.178136 0)
(0.156162 0.212583 0)
(0.113416 0.237474 0)
(0.0464633 0.194576 0)
(0.198423 0.0183712 0)
(0.205023 0.0664584 0)
(0.209544 0.104646 0)
(0.211994 0.131814 0)
(0.21368 0.157588 0)
(0.21271 0.191334 0)
(0.200613 0.245313 0)
(0.189306 0.318193 0)
(0.0595613 0.285622 0)
(0.198561 0.0155335 0)
(0.207729 0.0600687 0)
(0.217915 0.097329 0)
(0.228541 0.124773 0)
(0.241476 0.15078 0)
(0.26087 0.183922 0)
(0.280649 0.234359 0)
(0.353544 0.302195 0)
(0.402103 0.411747 0)
(0.198769 0.0113682 0)
(0.21058 0.0494761 0)
(0.226007 0.0834315 0)
(0.243516 0.108735 0)
(0.265047 0.131026 0)
(0.294331 0.156352 0)
(0.329033 0.187529 0)
(0.395458 0.206867 0)
(0.475797 0.291831 0)
(0.199189 0.00573011 0)
(0.213816 0.0350086 0)
(0.233443 0.0641615 0)
(0.255412 0.0862565 0)
(0.281453 0.103959 0)
(0.312618 0.120915 0)
(0.351506 0.137828 0)
(0.397949 0.13704 0)
(0.471258 0.181447 0)
(0.200096 -0.0021819 0)
(0.218245 0.0169853 0)
(0.2408 0.041275 0)
(0.264736 0.0605193 0)
(0.292061 0.074737 0)
(0.322589 0.0860033 0)
(0.359587 0.0953962 0)
(0.396681 0.0917055 0)
(0.449889 0.107294 0)
(0.201654 -0.0129623 0)
(0.223587 -0.00260523 0)
(0.246105 0.0179258 0)
(0.268731 0.0347407 0)
(0.294548 0.0462409 0)
(0.323084 0.0538365 0)
(0.355826 0.0588659 0)
(0.388119 0.0558131 0)
(0.426442 0.0574663 0)
(0.199479 -0.0342445 0)
(0.217517 -0.0262273 0)
(0.230014 -0.00600042 0)
(0.24527 0.00954054 0)
(0.266125 0.01896 0)
(0.290473 0.0239804 0)
(0.317635 0.0263863 0)
(0.344509 0.0245489 0)
(0.372435 0.0227911 0)
(0.163247 -0.0245689 0)
(0.154064 -0.0192464 0)
(0.136809 -0.00811256 0)
(0.134728 -0.00059248 0)
(0.142851 0.00334623 0)
(0.155468 0.00503257 0)
(0.17028 0.00555432 0)
(0.184985 0.00482456 0)
(0.198962 0.0037658 0)
(0.399265 0.152424 0)
(0.261534 0.0208231 0)
(0.544633 0.117955 0)
(0.532725 -0.00658524 0)
(0.547088 0.0997973 0)
(0.565962 0.00604724 0)
(0.506257 0.0625184 0)
(0.527584 0.000400615 0)
(0.464911 0.033212 0)
(0.482094 -0.0013197 0)
(0.396828 0.0112458 0)
(0.407039 -0.00490654 0)
(0.20903 0.000408457 0)
(0.210327 -0.00353407 0)
(0.331015 -0.13962 0)
(0.351307 -0.219674 0)
(0.33163 -0.237816 0)
(0.303732 -0.210586 0)
(0.281851 -0.166383 0)
(0.266819 -0.124187 0)
(0.257271 -0.0895787 0)
(0.251862 -0.0619271 0)
(0.248253 -0.037687 0)
(0.531498 -0.125723 0)
(0.483349 -0.18794 0)
(0.41711 -0.19175 0)
(0.363131 -0.166273 0)
(0.32623 -0.13403 0)
(0.301468 -0.103613 0)
(0.285128 -0.0771958 0)
(0.27503 -0.0548869 0)
(0.267644 -0.0340855 0)
(0.544668 -0.0797132 0)
(0.492932 -0.125602 0)
(0.434683 -0.133881 0)
(0.386587 -0.121616 0)
(0.350982 -0.102133 0)
(0.324877 -0.081482 0)
(0.305979 -0.0621371 0)
(0.293253 -0.0451141 0)
(0.283236 -0.0285329 0)
(0.514964 -0.0528926 0)
(0.479485 -0.0829191 0)
(0.436373 -0.0903105 0)
(0.396627 -0.0839984 0)
(0.36406 -0.0720124 0)
(0.338394 -0.058509 0)
(0.318687 -0.0453392 0)
(0.30469 -0.0334706 0)
(0.293123 -0.0216062 0)
(0.474969 -0.0314657 0)
(0.450951 -0.0492695 0)
(0.41915 -0.0544487 0)
(0.38708 -0.0512716 0)
(0.358655 -0.0442958 0)
(0.335008 -0.0362052 0)
(0.316133 -0.0282409 0)
(0.302242 -0.0210547 0)
(0.290436 -0.0139857 0)
(0.400552 -0.0179731 0)
(0.381596 -0.0248468 0)
(0.35647 -0.0258842 0)
(0.330674 -0.0233379 0)
(0.307403 -0.0194552 0)
(0.28785 -0.0154799 0)
(0.272168 -0.0118914 0)
(0.260452 -0.00885953 0)
(0.250489 -0.00635466 0)
(0.202405 -0.00611391 0)
(0.188612 -0.00683887 0)
(0.17294 -0.00616984 0)
(0.158307 -0.0049111 0)
(0.146019 -0.00366623 0)
(0.136252 -0.00266504 0)
(0.128726 -0.00193138 0)
(0.12307 -0.00144124 0)
(0.118209 -0.0013057 0)
(-0.00185812 0.00125514 0)
(0.000875041 -0.00170826 0)
(0.010639 -0.00322523 0)
(0.0210689 -0.00354264 0)
(0.0311693 -0.00330217 0)
(0.0401006 -0.00279596 0)
(0.0473781 -0.00218694 0)
(0.0529279 -0.00160406 0)
(0.0573181 -0.00129588 0)
(-0.000638823 -0.000206172 0)
(0.00807839 -0.0119942 0)
(0.0277443 -0.0174487 0)
(0.048143 -0.0183076 0)
(0.0674862 -0.0168747 0)
(0.0844497 -0.0143106 0)
(0.098247 -0.0112552 0)
(0.108633 -0.00812009 0)
(0.116531 -0.00560545 0)
(-0.00113384 -0.00482719 0)
(0.00909748 -0.0295557 0)
(0.0332676 -0.0404462 0)
(0.0581815 -0.0417963 0)
(0.0815798 -0.0382245 0)
(0.101809 -0.0322717 0)
(0.118058 -0.0253263 0)
(0.130165 -0.0181469 0)
(0.139355 -0.0117585 0)
(-0.00359616 -0.00774398 0)
(0.00590995 -0.048054 0)
(0.0345134 -0.0661347 0)
(0.0636049 -0.06805 0)
(0.090374 -0.0616298 0)
(0.112754 -0.0515039 0)
(0.130162 -0.040114 0)
(0.142842 -0.0285903 0)
(0.152359 -0.0181208 0)
(-0.00710124 -0.00455494 0)
(0.0011448 -0.068273 0)
(0.0363484 -0.09675 0)
(0.0712193 -0.0987557 0)
(0.102052 -0.0878577 0)
(0.126442 -0.0721035 0)
(0.144419 -0.0553911 0)
(0.157033 -0.0391717 0)
(0.166279 -0.0244584 0)
(-0.0111498 -0.0054838 0)
(-0.000982289 -0.0943376 0)
(0.0460322 -0.1355 0)
(0.0871454 -0.135625 0)
(0.121254 -0.117225 0)
(0.146458 -0.0936515 0)
(0.163752 -0.0705237 0)
(0.17528 -0.0493445 0)
(0.183437 -0.0303989 0)
(0.0118458 0.0144219 0)
(0.0343906 -0.122836 0)
(0.0838092 -0.181751 0)
(0.12345 -0.177423 0)
(0.15439 -0.147792 0)
(0.175814 -0.114163 0)
(0.189376 -0.0838917 0)
(0.197901 -0.0579755 0)
(0.203653 -0.0352836 0)
(0.081385 -0.0620948 0)
(0.118196 -0.186644 0)
(0.170231 -0.231537 0)
(0.194791 -0.213519 0)
(0.209011 -0.170899 0)
(0.217257 -0.127945 0)
(0.221654 -0.0920541 0)
(0.224276 -0.0630702 0)
(0.225902 -0.0381124 0)
)
;

boundaryField
{
    inlet
    {
        type            fixedValue;
        value           uniform (0.2 0 0);
    }
    outlet
    {
        type            zeroGradient;
    }
    fixedWalls
    {
        type            fixedValue;
        value           uniform (0 0 0);
    }
    frontAndBack
    {
        type            empty;
    }
}


// ************************************************************************* //
