/*--------------------------------*- C++ -*----------------------------------*\
| =========                 |                                                 |
| \\      /  F ield         | OpenFOAM Extend Project: Open source CFD        |
|  \\    /   O peration     | Version:  1.6-ext                               |
|   \\  /    A nd           | Web:      www.extend-project.de                 |
|    \\/     M anipulation  |                                                 |
\*---------------------------------------------------------------------------*/
FoamFile
{
    version     2.0;
    format      ascii;
    class       volScalarField;
    location    "2.5";
    object      p;
}
// * * * * * * * * * * * * * * * * * * * * * * * * * * * * * * * * * * * * * //

dimensions      [0 2 -2 0 0 0 0];

internalField   nonuniform List<scalar> 
70
(
-0.0969874
-0.052778
-0.014162
0.0198369
0.0415614
0.0525235
0.0564836
-0.0853314
-0.0769217
-0.0710765
-0.0622286
-0.0490729
-0.033591
-0.0193843
-0.00826665
-0.00234836
-0.0592491
-0.059224
-0.0562541
-0.049375
-0.0385396
-0.0259569
-0.0148464
-0.00634878
-0.00268968
-0.0276326
-0.0326737
-0.0333271
-0.0301867
-0.023895
-0.016205
-0.00949235
-0.00430206
-0.00284116
0.00380109
-0.00587228
-0.0109841
-0.0123002
-0.0108503
-0.00799243
-0.00528383
-0.00290546
-0.00288852
0.0247674
0.0126718
0.00464512
-4.87033e-05
-0.00228222
-0.00294638
-0.00293202
-0.00231472
-0.00281864
0.0359846
0.0226349
0.0126635
0.00574465
0.00129345
-0.00126396
-0.0024528
-0.00249033
-0.00270739
0.0387241
0.0236983
0.0120245
0.00373309
-0.00151256
-0.00424094
-0.00506036
-0.00448761
-0.00345322
)
;

boundaryField
{
    inlet
    {
        type            zeroGradient;
    }
    outlet
    {
        type            totalPressure;
        rho             none;
        psi             none;
        gamma           1;
        p0              uniform 0;
        value           uniform 0;
    }
    fixedWalls
    {
        type            zeroGradient;
    }
    frontAndBack
    {
        type            empty;
    }
    procBoundary1to2
    {
        type            processor;
        value           nonuniform List<scalar> 7(-0.130501 -0.0307893 0.0156462 0.0455168 0.0628798 0.0711743 0.0753372);
    }
    procBoundary1to0
    {
        type            processor;
        value           nonuniform List<scalar> 9(-0.0923491 -0.0751743 -0.0716271 -0.0638895 -0.0514435 -0.0359662 -0.0210466 -0.00898797 -0.00155917);
    }
}


// ************************************************************************* //
