/*--------------------------------*- C++ -*----------------------------------*\
| =========                 |                                                 |
| \\      /  F ield         | OpenFOAM Extend Project: Open source CFD        |
|  \\    /   O peration     | Version:  1.6-ext                               |
|   \\  /    A nd           | Web:      www.extend-project.de                 |
|    \\/     M anipulation  |                                                 |
\*---------------------------------------------------------------------------*/
FoamFile
{
    version     2.0;
    format      ascii;
    class       vectorField;
    location    "0.45";
    object      accumulatedFluidInterfaceDisplacement;
}
// * * * * * * * * * * * * * * * * * * * * * * * * * * * * * * * * * * * * * //


338
(
(-1.15483e-06 9.1308e-07 8.18524e-28)
(-5.35715e-07 6.92159e-07 6.45518e-27)
(-3.62166e-06 1.80886e-05 -2.69667e-27)
(-3.56444e-06 1.79024e-05 1.85193e-26)
(-3.56693e-06 1.76527e-05 1.71889e-27)
(-3.56833e-06 1.74012e-05 -1.32785e-26)
(-3.56822e-06 1.71497e-05 7.61883e-28)
(-3.56621e-06 1.68987e-05 1.33686e-26)
(-3.56205e-06 1.66484e-05 9.99524e-27)
(-3.55552e-06 1.63984e-05 2.47395e-27)
(-3.54648e-06 1.61485e-05 -2.12485e-26)
(-3.53482e-06 1.58981e-05 -1.63548e-26)
(-3.52046e-06 1.56467e-05 1.59656e-28)
(-3.50333e-06 1.53938e-05 -2.14259e-27)
(-3.48338e-06 1.51387e-05 -3.92209e-27)
(-3.46058e-06 1.48808e-05 2.08611e-27)
(-3.4349e-06 1.46196e-05 9.85762e-27)
(-3.40628e-06 1.43545e-05 -3.47982e-27)
(-3.37469e-06 1.4085e-05 -1.00316e-27)
(-3.34008e-06 1.38107e-05 9.32398e-27)
(-3.30239e-06 1.35311e-05 2.25651e-27)
(-3.26157e-06 1.32459e-05 -1.94755e-27)
(-3.21754e-06 1.29548e-05 -7.03453e-27)
(-3.17026e-06 1.26575e-05 -1.2645e-26)
(-3.11967e-06 1.2354e-05 -3.45177e-27)
(-3.06573e-06 1.20441e-05 8.22551e-27)
(-3.0084e-06 1.17279e-05 1.16318e-26)
(-2.94771e-06 1.14055e-05 2.45949e-27)
(-2.88367e-06 1.10769e-05 -1.26383e-26)
(-2.81638e-06 1.07426e-05 -2.94063e-28)
(-2.74595e-06 1.04027e-05 1.08013e-26)
(-2.67258e-06 1.00578e-05 5.39126e-27)
(-2.5965e-06 9.70844e-06 1.35042e-27)
(-2.51802e-06 9.35509e-06 3.51763e-27)
(-2.43748e-06 8.99846e-06 -1.59879e-28)
(-2.3553e-06 8.63925e-06 -1.01372e-26)
(-2.27191e-06 8.27822e-06 -5.83833e-27)
(-2.1878e-06 7.91617e-06 -4.49375e-27)
(-2.10345e-06 7.55389e-06 -5.5221e-27)
(-2.01936e-06 7.19224e-06 -1.49958e-27)
(-1.93598e-06 6.83202e-06 -2.62231e-27)
(-1.85376e-06 6.47407e-06 -2.42493e-27)
(-1.77307e-06 6.11919e-06 1.7451e-27)
(-1.69425e-06 5.76818e-06 2.33549e-27)
(-1.61754e-06 5.4218e-06 1.06415e-27)
(-1.54312e-06 5.08079e-06 1.64652e-28)
(-1.47109e-06 4.74587e-06 -4.83447e-27)
(-1.40147e-06 4.41773e-06 -4.64193e-27)
(-1.33423e-06 4.09701e-06 2.87268e-27)
(-1.26924e-06 3.78434e-06 2.17636e-27)
(-1.20634e-06 3.48033e-06 -4.90526e-28)
(-1.14534e-06 3.18554e-06 3.95916e-28)
(-1.08599e-06 2.90051e-06 -1.22838e-27)
(-1.02805e-06 2.62575e-06 -1.14263e-27)
(-9.7126e-07 2.36175e-06 2.67067e-27)
(-9.15374e-07 2.10897e-06 1.61368e-27)
(-8.60162e-07 1.86783e-06 -6.45642e-27)
(-8.05419e-07 1.63875e-06 -1.70398e-27)
(-7.50972e-07 1.42212e-06 4.80135e-27)
(-6.96683e-07 1.21828e-06 3.52642e-28)
(-6.42452e-07 1.02761e-06 -1.99492e-27)
(-5.88214e-07 8.50419e-07 4.83906e-27)
(-4.04142e-06 1.8158e-05 -4.32228e-27)
(-3.80052e-06 1.81536e-05 -3.3118e-26)
(-4.47057e-06 1.80996e-05 -1.44171e-26)
(-4.28439e-06 1.81605e-05 -1.9826e-27)
(-1.26146e-06 1.06911e-06 8.35627e-27)
(-1.37047e-06 1.24402e-06 8.02139e-29)
(-1.47827e-06 1.43254e-06 4.6038e-28)
(-1.58488e-06 1.63445e-06 3.43423e-27)
(-1.69037e-06 1.8495e-06 -3.77905e-27)
(-1.7948e-06 2.07746e-06 -2.17062e-27)
(-1.89825e-06 2.31805e-06 2.42156e-27)
(-2.0008e-06 2.57097e-06 2.15401e-28)
(-2.10256e-06 2.83587e-06 -1.29359e-27)
(-2.20362e-06 3.11237e-06 -2.75028e-28)
(-2.30406e-06 3.4e-06 -3.89237e-27)
(-2.40396e-06 3.69823e-06 -4.74032e-27)
(-2.50337e-06 4.00647e-06 -4.68199e-28)
(-2.6023e-06 4.32405e-06 3.72564e-27)
(-2.70073e-06 4.65021e-06 3.3603e-27)
(-2.7986e-06 4.98413e-06 2.14606e-27)
(-2.89579e-06 5.32493e-06 1.28315e-27)
(-2.99215e-06 5.67166e-06 -1.87107e-28)
(-3.08744e-06 6.02333e-06 -2.95909e-27)
(-3.18142e-06 6.3789e-06 -2.63038e-27)
(-3.27377e-06 6.73735e-06 -7.65983e-28)
(-3.36417e-06 7.09764e-06 -1.00969e-27)
(-3.45226e-06 7.45876e-06 -7.20719e-27)
(-3.53767e-06 7.81972e-06 -8.62955e-27)
(-3.62004e-06 8.17962e-06 -2.35746e-27)
(-3.69905e-06 8.53759e-06 6.07651e-27)
(-3.77437e-06 8.89289e-06 -6.80777e-27)
(-3.84575e-06 9.24481e-06 -1.38667e-26)
(-3.91298e-06 9.59277e-06 -4.40882e-27)
(-3.9759e-06 9.93627e-06 3.37425e-27)
(-4.03444e-06 1.02749e-05 8.12856e-27)
(-4.08858e-06 1.06083e-05 4.85019e-27)
(-4.13836e-06 1.09362e-05 -1.27796e-27)
(-4.18387e-06 1.12584e-05 -1.62351e-27)
(-4.22529e-06 1.15749e-05 6.41285e-27)
(-4.26279e-06 1.18854e-05 4.98886e-27)
(-4.29663e-06 1.21901e-05 6.69879e-27)
(-4.32706e-06 1.2489e-05 1.0226e-26)
(-4.35436e-06 1.2782e-05 4.14985e-27)
(-4.37882e-06 1.30695e-05 9.83496e-28)
(-4.40072e-06 1.33515e-05 -3.83421e-27)
(-4.42036e-06 1.36282e-05 -1.93355e-27)
(-4.438e-06 1.39001e-05 -1.02128e-26)
(-4.45389e-06 1.41673e-05 -7.06945e-27)
(-4.46828e-06 1.44302e-05 2.04848e-27)
(-4.48135e-06 1.46894e-05 -1.148e-26)
(-4.49327e-06 1.49451e-05 -7.6955e-27)
(-4.50418e-06 1.51979e-05 1.15715e-27)
(-4.51415e-06 1.54483e-05 -3.41751e-27)
(-4.52322e-06 1.56968e-05 -8.06332e-27)
(-4.53137e-06 1.59439e-05 4.43161e-27)
(-4.53851e-06 1.61902e-05 1.63541e-26)
(-4.54447e-06 1.6436e-05 6.23123e-27)
(-4.54901e-06 1.66819e-05 -1.84936e-28)
(-4.55182e-06 1.6928e-05 1.27773e-27)
(-4.55251e-06 1.71745e-05 1.93105e-27)
(-4.55068e-06 1.74213e-05 -5.92538e-27)
(-4.546e-06 1.76681e-05 -9.84405e-27)
(-4.5387e-06 1.79147e-05 2.14206e-27)
(-7.84201e-08 4.62074e-08 7.6453e-27)
(-7.8542e-08 5.91358e-08 2.86231e-26)
(-8.21506e-08 8.21984e-08 3.38839e-26)
(-9.26351e-08 9.9707e-08 8.46116e-27)
(-1.0988e-07 1.12921e-07 -1.27911e-26)
(-1.32983e-07 1.23691e-07 -6.39907e-27)
(-1.60965e-07 1.33311e-07 -5.41096e-27)
(-1.93222e-07 1.42942e-07 -3.01992e-26)
(-2.29361e-07 1.53532e-07 1.29834e-26)
(-2.69181e-07 1.65935e-07 2.32626e-26)
(-3.12595e-07 1.80943e-07 1.2611e-26)
(-3.59604e-07 1.99332e-07 -3.7097e-27)
(-4.10262e-07 2.21887e-07 -1.65368e-26)
(-4.6467e-07 2.49436e-07 2.98047e-27)
(-5.22962e-07 2.8287e-07 -2.68451e-27)
(-5.85302e-07 3.23168e-07 1.17221e-26)
(-6.51876e-07 3.71423e-07 1.5091e-27)
(-7.22894e-07 4.28869e-07 -1.71534e-26)
(-7.98579e-07 4.96906e-07 -6.65344e-28)
(-8.79172e-07 5.77127e-07 8.45206e-27)
(-9.64923e-07 6.71357e-07 -4.83906e-27)
(-1.05609e-06 7.81676e-07 -7.13483e-27)
(-6.52394e-08 -3.2496e-08 1.74377e-26)
(-4.87593e-07 5.58763e-07 -8.50276e-28)
(-4.43595e-07 4.46689e-07 -1.05514e-26)
(-4.02602e-07 3.50899e-07 -5.25784e-30)
(-3.64438e-07 2.69294e-07 6.22856e-27)
(-3.28931e-07 2.00023e-07 -2.25903e-27)
(-2.95916e-07 1.41461e-07 -6.4071e-28)
(-2.65242e-07 9.21796e-08 -3.20824e-27)
(-2.36766e-07 5.09332e-08 -8.90883e-27)
(-2.10368e-07 1.66414e-08 -3.44532e-27)
(-1.85948e-07 -1.16212e-08 4.08894e-27)
(-1.63432e-07 -3.46332e-08 2.58608e-28)
(-1.42779e-07 -5.30312e-08 -1.12858e-26)
(-1.23987e-07 -6.73131e-08 1.41011e-26)
(-1.07099e-07 -7.78369e-08 1.41284e-26)
(-9.22199e-08 -8.48195e-08 -7.50538e-27)
(-7.95304e-08 -8.83217e-08 -1.28334e-27)
(-6.93312e-08 -8.82489e-08 9.53468e-27)
(-6.20434e-08 -8.42906e-08 -4.33149e-27)
(-5.83e-08 -7.59918e-08 -5.25527e-27)
(-5.85974e-08 -6.25122e-08 1.47575e-26)
(-6.25096e-08 -4.34098e-08 1.04232e-26)
(-1.15483e-06 9.1308e-07 8.18524e-28)
(-5.35715e-07 6.92159e-07 6.45518e-27)
(-3.62166e-06 1.80886e-05 -2.69667e-27)
(-3.56444e-06 1.79024e-05 1.85193e-26)
(-3.56693e-06 1.76527e-05 1.71889e-27)
(-3.56833e-06 1.74012e-05 -1.32785e-26)
(-3.56822e-06 1.71497e-05 7.61883e-28)
(-3.56621e-06 1.68987e-05 1.33686e-26)
(-3.56205e-06 1.66484e-05 9.99524e-27)
(-3.55552e-06 1.63984e-05 2.47395e-27)
(-3.54648e-06 1.61485e-05 -2.12485e-26)
(-3.53482e-06 1.58981e-05 -1.63548e-26)
(-3.52046e-06 1.56467e-05 1.59656e-28)
(-3.50333e-06 1.53938e-05 -2.14259e-27)
(-3.48338e-06 1.51387e-05 -3.92209e-27)
(-3.46058e-06 1.48808e-05 2.08611e-27)
(-3.4349e-06 1.46196e-05 9.85762e-27)
(-3.40628e-06 1.43545e-05 -3.47982e-27)
(-3.37469e-06 1.4085e-05 -1.00316e-27)
(-3.34008e-06 1.38107e-05 9.32398e-27)
(-3.30239e-06 1.35311e-05 2.25651e-27)
(-3.26157e-06 1.32459e-05 -1.94755e-27)
(-3.21754e-06 1.29548e-05 -7.03453e-27)
(-3.17026e-06 1.26575e-05 -1.2645e-26)
(-3.11967e-06 1.2354e-05 -3.45177e-27)
(-3.06573e-06 1.20441e-05 8.22551e-27)
(-3.0084e-06 1.17279e-05 1.16318e-26)
(-2.94771e-06 1.14055e-05 2.45949e-27)
(-2.88367e-06 1.10769e-05 -1.26383e-26)
(-2.81638e-06 1.07426e-05 -2.94063e-28)
(-2.74595e-06 1.04027e-05 1.08013e-26)
(-2.67258e-06 1.00578e-05 5.39126e-27)
(-2.5965e-06 9.70844e-06 1.35042e-27)
(-2.51802e-06 9.35509e-06 3.51763e-27)
(-2.43748e-06 8.99846e-06 -1.59879e-28)
(-2.3553e-06 8.63925e-06 -1.01372e-26)
(-2.27191e-06 8.27822e-06 -5.83833e-27)
(-2.1878e-06 7.91617e-06 -4.49375e-27)
(-2.10345e-06 7.55389e-06 -5.5221e-27)
(-2.01936e-06 7.19224e-06 -1.49958e-27)
(-1.93598e-06 6.83202e-06 -2.62231e-27)
(-1.85376e-06 6.47407e-06 -2.42493e-27)
(-1.77307e-06 6.11919e-06 1.7451e-27)
(-1.69425e-06 5.76818e-06 2.33549e-27)
(-1.61754e-06 5.4218e-06 1.06415e-27)
(-1.54312e-06 5.08079e-06 1.64652e-28)
(-1.47109e-06 4.74587e-06 -4.83447e-27)
(-1.40147e-06 4.41773e-06 -4.64193e-27)
(-1.33423e-06 4.09701e-06 2.87268e-27)
(-1.26924e-06 3.78434e-06 2.17636e-27)
(-1.20634e-06 3.48033e-06 -4.90526e-28)
(-1.14534e-06 3.18554e-06 3.95916e-28)
(-1.08599e-06 2.90051e-06 -1.22838e-27)
(-1.02805e-06 2.62575e-06 -1.14263e-27)
(-9.7126e-07 2.36175e-06 2.67067e-27)
(-9.15374e-07 2.10897e-06 1.61368e-27)
(-8.60162e-07 1.86783e-06 -6.45642e-27)
(-8.05419e-07 1.63875e-06 -1.70398e-27)
(-7.50972e-07 1.42212e-06 4.80135e-27)
(-6.96683e-07 1.21828e-06 3.52642e-28)
(-6.42452e-07 1.02761e-06 -1.99492e-27)
(-5.88214e-07 8.50419e-07 4.83906e-27)
(-4.04142e-06 1.8158e-05 -4.32228e-27)
(-3.80052e-06 1.81536e-05 -3.3118e-26)
(-4.47057e-06 1.80996e-05 -1.44171e-26)
(-4.28439e-06 1.81605e-05 -1.9826e-27)
(-1.26146e-06 1.06911e-06 8.35627e-27)
(-1.37047e-06 1.24402e-06 8.02139e-29)
(-1.47827e-06 1.43254e-06 4.6038e-28)
(-1.58488e-06 1.63445e-06 3.43423e-27)
(-1.69037e-06 1.8495e-06 -3.77905e-27)
(-1.7948e-06 2.07746e-06 -2.17062e-27)
(-1.89825e-06 2.31805e-06 2.42156e-27)
(-2.0008e-06 2.57097e-06 2.15401e-28)
(-2.10256e-06 2.83587e-06 -1.29359e-27)
(-2.20362e-06 3.11237e-06 -2.75028e-28)
(-2.30406e-06 3.4e-06 -3.89237e-27)
(-2.40396e-06 3.69823e-06 -4.74032e-27)
(-2.50337e-06 4.00647e-06 -4.68199e-28)
(-2.6023e-06 4.32405e-06 3.72564e-27)
(-2.70073e-06 4.65021e-06 3.3603e-27)
(-2.7986e-06 4.98413e-06 2.14606e-27)
(-2.89579e-06 5.32493e-06 1.28315e-27)
(-2.99215e-06 5.67166e-06 -1.87107e-28)
(-3.08744e-06 6.02333e-06 -2.95909e-27)
(-3.18142e-06 6.3789e-06 -2.63038e-27)
(-3.27377e-06 6.73735e-06 -7.65983e-28)
(-3.36417e-06 7.09764e-06 -1.00969e-27)
(-3.45226e-06 7.45876e-06 -7.20719e-27)
(-3.53767e-06 7.81972e-06 -8.62955e-27)
(-3.62004e-06 8.17962e-06 -2.35746e-27)
(-3.69905e-06 8.53759e-06 6.07651e-27)
(-3.77437e-06 8.89289e-06 -6.80777e-27)
(-3.84575e-06 9.24481e-06 -1.38667e-26)
(-3.91298e-06 9.59277e-06 -4.40882e-27)
(-3.9759e-06 9.93627e-06 3.37425e-27)
(-4.03444e-06 1.02749e-05 8.12856e-27)
(-4.08858e-06 1.06083e-05 4.85019e-27)
(-4.13836e-06 1.09362e-05 -1.27796e-27)
(-4.18387e-06 1.12584e-05 -1.62351e-27)
(-4.22529e-06 1.15749e-05 6.41285e-27)
(-4.26279e-06 1.18854e-05 4.98886e-27)
(-4.29663e-06 1.21901e-05 6.69879e-27)
(-4.32706e-06 1.2489e-05 1.0226e-26)
(-4.35436e-06 1.2782e-05 4.14985e-27)
(-4.37882e-06 1.30695e-05 9.83496e-28)
(-4.40072e-06 1.33515e-05 -3.83421e-27)
(-4.42036e-06 1.36282e-05 -1.93355e-27)
(-4.438e-06 1.39001e-05 -1.02128e-26)
(-4.45389e-06 1.41673e-05 -7.06945e-27)
(-4.46828e-06 1.44302e-05 2.04848e-27)
(-4.48135e-06 1.46894e-05 -1.148e-26)
(-4.49327e-06 1.49451e-05 -7.6955e-27)
(-4.50418e-06 1.51979e-05 1.15715e-27)
(-4.51415e-06 1.54483e-05 -3.41751e-27)
(-4.52322e-06 1.56968e-05 -8.06332e-27)
(-4.53137e-06 1.59439e-05 4.43161e-27)
(-4.53851e-06 1.61902e-05 1.63541e-26)
(-4.54447e-06 1.6436e-05 6.23123e-27)
(-4.54901e-06 1.66819e-05 -1.84936e-28)
(-4.55182e-06 1.6928e-05 1.27773e-27)
(-4.55251e-06 1.71745e-05 1.93105e-27)
(-4.55068e-06 1.74213e-05 -5.92538e-27)
(-4.546e-06 1.76681e-05 -9.84405e-27)
(-4.5387e-06 1.79147e-05 2.14206e-27)
(-7.84201e-08 4.62074e-08 7.6453e-27)
(-7.8542e-08 5.91358e-08 2.86231e-26)
(-8.21506e-08 8.21984e-08 3.38839e-26)
(-9.26351e-08 9.9707e-08 8.46116e-27)
(-1.0988e-07 1.12921e-07 -1.27911e-26)
(-1.32983e-07 1.23691e-07 -6.39907e-27)
(-1.60965e-07 1.33311e-07 -5.41096e-27)
(-1.93222e-07 1.42942e-07 -3.01992e-26)
(-2.29361e-07 1.53532e-07 1.29834e-26)
(-2.69181e-07 1.65935e-07 2.32626e-26)
(-3.12595e-07 1.80943e-07 1.2611e-26)
(-3.59604e-07 1.99332e-07 -3.7097e-27)
(-4.10262e-07 2.21887e-07 -1.65368e-26)
(-4.6467e-07 2.49436e-07 2.98047e-27)
(-5.22962e-07 2.8287e-07 -2.68451e-27)
(-5.85302e-07 3.23168e-07 1.17221e-26)
(-6.51876e-07 3.71423e-07 1.5091e-27)
(-7.22894e-07 4.28869e-07 -1.71534e-26)
(-7.98579e-07 4.96906e-07 -6.65344e-28)
(-8.79172e-07 5.77127e-07 8.45206e-27)
(-9.64923e-07 6.71357e-07 -4.83906e-27)
(-1.05609e-06 7.81676e-07 -7.13483e-27)
(-6.52394e-08 -3.2496e-08 1.74377e-26)
(-4.87593e-07 5.58763e-07 -8.50276e-28)
(-4.43595e-07 4.46689e-07 -1.05514e-26)
(-4.02602e-07 3.50899e-07 -5.25784e-30)
(-3.64438e-07 2.69294e-07 6.22856e-27)
(-3.28931e-07 2.00023e-07 -2.25903e-27)
(-2.95916e-07 1.41461e-07 -6.4071e-28)
(-2.65242e-07 9.21796e-08 -3.20824e-27)
(-2.36766e-07 5.09332e-08 -8.90883e-27)
(-2.10368e-07 1.66414e-08 -3.44532e-27)
(-1.85948e-07 -1.16212e-08 4.08894e-27)
(-1.63432e-07 -3.46332e-08 2.58608e-28)
(-1.42779e-07 -5.30312e-08 -1.12858e-26)
(-1.23987e-07 -6.73131e-08 1.41011e-26)
(-1.07099e-07 -7.78369e-08 1.41284e-26)
(-9.22199e-08 -8.48195e-08 -7.50538e-27)
(-7.95304e-08 -8.83217e-08 -1.28334e-27)
(-6.93312e-08 -8.82489e-08 9.53468e-27)
(-6.20434e-08 -8.42906e-08 -4.33149e-27)
(-5.83e-08 -7.59918e-08 -5.25527e-27)
(-5.85974e-08 -6.25122e-08 1.47575e-26)
(-6.25096e-08 -4.34098e-08 1.04232e-26)
)


// ************************************************************************* //
