/*--------------------------------*- C++ -*----------------------------------*\
| =========                 |                                                 |
| \\      /  F ield         | OpenFOAM Extend Project: Open source CFD        |
|  \\    /   O peration     | Version:  1.6-ext                               |
|   \\  /    A nd           | Web:      www.extend-project.de                 |
|    \\/     M anipulation  |                                                 |
\*---------------------------------------------------------------------------*/
FoamFile
{
    version     2.0;
    format      ascii;
    class       tetPointVectorField;
    location    "0.45";
    object      motionU;
}
// * * * * * * * * * * * * * * * * * * * * * * * * * * * * * * * * * * * * * //

dimensions      [0 1 -1 0 0 0 0];

internalField   nonuniform List<vector> 
147960
(
(0 0 0)
(-0.000135509 0.000379538 0)
(-0.00497487 0.00175063 -8.45755e-24)
(-0.00421448 0.000550431 3.8211e-24)
(-0.0209365 0.0141297 3.33898e-23)
(-0.0208798 0.0140123 9.45162e-24)
(-0.0208499 0.0138554 -3.92723e-24)
(-0.0208111 0.0136987 -8.8996e-25)
(-0.0207639 0.0135421 9.49e-24)
(-0.020708 0.0133854 -3.77178e-25)
(-0.0206434 0.0132284 4.29409e-25)
(-0.0205701 0.0130711 -5.86519e-25)
(-0.0204878 0.0129135 -1.51859e-23)
(-0.0203964 0.0127555 -6.77337e-24)
(-0.0202957 0.0125971 -2.2936e-24)
(-0.0201857 0.012438 5.62053e-24)
(-0.0200662 0.0122782 2.22626e-24)
(-0.0199369 0.0121174 3.24484e-24)
(-0.0197978 0.0119553 1.61049e-23)
(-0.0196487 0.0117916 1.66415e-23)
(-0.0194894 0.011626 4.53484e-24)
(-0.0193198 0.0114581 -1.75988e-24)
(-0.0191397 0.0112873 6.04418e-24)
(-0.0189489 0.0111134 -9.83742e-25)
(-0.0187474 0.0109358 2.31583e-24)
(-0.0185348 0.0107541 1.78954e-23)
(-0.0183112 0.0105677 1.05553e-23)
(-0.0180763 0.0103763 -1.57912e-23)
(-0.0178301 0.0101794 -1.22926e-24)
(-0.0175725 0.00997662 1.13892e-24)
(-0.0173034 0.00976755 -4.97452e-24)
(-0.0170229 0.00955188 -1.39602e-24)
(-0.016731 0.00932936 -6.90704e-25)
(-0.016428 0.00909979 -6.95157e-24)
(-0.0161139 0.00886305 -4.518e-24)
(-0.0157892 0.0086191 1.91037e-23)
(-0.0154543 0.00836797 9.7082e-26)
(-0.0151095 0.00810979 -1.10953e-23)
(-0.0147556 0.00784477 1.13377e-24)
(-0.0143931 0.00757317 -7.84496e-24)
(-0.0140228 0.00729537 -2.22717e-24)
(-0.0136454 0.00701178 9.49318e-24)
(-0.0132617 0.00672289 -2.98038e-25)
(-0.0128724 0.00642924 -1.33083e-24)
(-0.0124784 0.00613143 -3.14618e-25)
(-0.0120803 0.00583009 -9.03026e-25)
(-0.0116789 0.0055259 -1.05722e-24)
(-0.0112746 0.0052196 1.0771e-24)
(-0.010868 0.00491195 1.68373e-25)
(-0.0104596 0.00460375 -1.7077e-24)
(-0.0100496 0.00429585 -1.23803e-24)
(-0.0096384 0.0039891 -3.27055e-24)
(-0.00922605 0.00368442 2.09357e-24)
(-0.00881271 0.00338274 1.53076e-24)
(-0.00839843 0.00308501 -2.11483e-24)
(-0.00798322 0.00279221 2.59822e-24)
(-0.00756707 0.00250534 -4.18247e-24)
(-0.00714994 0.0022254 -3.43067e-24)
(-0.00673179 0.00195341 8.47874e-24)
(-0.00631259 0.00169037 1.89019e-25)
(-0.00589231 0.0014373 -6.90968e-25)
(-0.00547095 0.00119519 8.64818e-24)
(-0.00504852 0.000964987 -2.96361e-24)
(-0.00462506 0.000747636 -8.64347e-24)
(-0.02121 0.0141661 8.03195e-24)
(-0.0210588 0.014168 7.94571e-24)
(-0.0214469 0.0141309 5.40579e-24)
(-0.0213508 0.0141646 3.16274e-23)
(-0.0054389 0.00194049 -9.84558e-25)
(-0.00591442 0.00214989 6.42133e-24)
(-0.00638549 0.00237187 4.27511e-24)
(-0.00685198 0.00260563 -8.28835e-25)
(-0.00731375 0.00285035 4.44757e-24)
(-0.00777072 0.00310516 -2.85341e-24)
(-0.00822285 0.00336918 -6.94735e-24)
(-0.00867009 0.00364149 3.09067e-24)
(-0.00911244 0.00392115 -5.34977e-24)
(-0.00954989 0.00420719 6.08014e-25)
(-0.00998243 0.00449859 4.16197e-24)
(-0.01041 0.0047943 3.7546e-25)
(-0.0108326 0.00509326 1.95962e-24)
(-0.0112501 0.00539435 -1.23586e-24)
(-0.0116625 0.00569644 4.0922e-25)
(-0.0120694 0.0059984 -3.1966e-24)
(-0.0124707 0.00629909 -3.31905e-24)
(-0.0128661 0.00659739 -7.00577e-25)
(-0.0132552 0.00689224 -1.78254e-24)
(-0.0136378 0.0071826 1.34918e-24)
(-0.0140133 0.00746754 -1.95625e-24)
(-0.0143814 0.0077462 -8.90201e-24)
(-0.0147416 0.00801786 -2.7873e-24)
(-0.0150935 0.00828192 7.06169e-24)
(-0.0154367 0.00853791 8.94127e-24)
(-0.0157708 0.0087855 2.42842e-24)
(-0.0160955 0.00902451 -3.36423e-24)
(-0.0164105 0.00925488 -1.03948e-24)
(-0.0167155 0.0094767 1.9939e-24)
(-0.0170106 0.00969012 2.58555e-24)
(-0.0172954 0.00989543 2.004e-24)
(-0.0175701 0.010093 -2.11769e-24)
(-0.0178346 0.0102831 1.88107e-24)
(-0.018089 0.0104663 2.69917e-24)
(-0.0183334 0.0106431 -3.57039e-24)
(-0.0185679 0.0108138 6.70065e-25)
(-0.0187927 0.0109791 4.46295e-24)
(-0.0190078 0.0111393 4.77523e-24)
(-0.0192135 0.0112951 7.29678e-24)
(-0.0194099 0.0114469 -5.07829e-24)
(-0.019597 0.0115951 -7.34843e-24)
(-0.0197751 0.0117403 2.61095e-24)
(-0.0199443 0.0118827 3.10374e-24)
(-0.0201045 0.012023 2.55133e-24)
(-0.0202559 0.0121614 -5.1866e-24)
(-0.0203984 0.0122982 9.21111e-24)
(-0.0205322 0.0124339 3.34705e-24)
(-0.0206573 0.0125687 -9.62877e-24)
(-0.0207736 0.0127027 -4.36084e-24)
(-0.0208811 0.0128363 -1.23718e-23)
(-0.0209798 0.0129695 2.72319e-24)
(-0.0210699 0.0131024 9.57059e-24)
(-0.0211512 0.0132352 7.71677e-24)
(-0.0212239 0.0133679 9.94298e-24)
(-0.0212881 0.0135005 1.18888e-23)
(-0.0213439 0.013633 2.09335e-24)
(-0.0213915 0.0137656 -4.67156e-24)
(-0.021431 0.013898 4.30429e-24)
(-0.0214621 0.0140308 -5.14554e-26)
(-0.00881636 0.0119762 0)
(-0.0213991 0.0140604 0)
(-0.0213024 0.0140013 0)
(-0.0210662 0.0139295 0)
(-0.0207442 0.0138419 0)
(-0.0202998 0.0137391 0)
(-0.0197347 0.0136215 0)
(-0.0190273 0.0134892 0)
(-0.0182379 0.0133428 0)
(-0.017232 0.0131832 0)
(-0.0161738 0.0130103 0)
(-0.0150283 0.0128255 0)
(-0.0135897 0.0126289 0)
(-0.0121908 0.0124218 0)
(-0.0107119 0.012204 0)
(-0.00153638 0.00158159 0)
(-0.00181624 0.00172613 0)
(-0.00211749 0.00187986 0)
(-0.00243127 0.00204258 0)
(-0.00275112 0.00221465 0)
(-0.00307185 0.00239579 0)
(-0.00338868 0.00258506 0)
(-0.00370158 0.00278217 0)
(-0.00400983 0.00298663 0)
(-0.00431311 0.00319803 0)
(-0.00461228 0.00341595 0)
(-0.00490909 0.0036399 0)
(-0.00520498 0.00386937 0)
(-0.00549963 0.00410393 0)
(-0.00579026 0.00434298 0)
(-0.00607294 0.00458585 0)
(-0.00634464 0.00483187 0)
(-0.00660461 0.00508032 0)
(-0.00685454 0.00533047 0)
(-0.00709951 0.00558167 0)
(-0.00733958 0.00583355 0)
(-0.00757293 0.00608508 0)
(-0.00780306 0.00633513 0)
(-0.00802886 0.00658316 0)
(-0.0082506 0.0068287 0)
(-0.00846818 0.00707121 0)
(-0.00868131 0.00731023 0)
(-0.00889011 0.00754538 0)
(-0.00909498 0.00777639 0)
(-0.00929618 0.00800302 0)
(-0.00949332 0.00822508 0)
(-0.00968453 0.00844245 0)
(-0.00986676 0.00865498 0)
(-0.0100387 0.00886252 0)
(-0.0102029 0.00906507 0)
(-0.010365 0.00926247 0)
(-0.0105207 0.00945462 0)
(-0.0106686 0.00964151 0)
(-0.010816 0.00982302 0)
(-0.0109605 0.00999904 0)
(-0.0111023 0.0101696 0)
(-0.0112431 0.0103348 0)
(-0.0113839 0.0104942 0)
(-0.0115238 0.0106477 0)
(-0.01166 0.0107957 0)
(-0.0117875 0.0109381 0)
(-0.0118963 0.0110741 0)
(-0.0119706 0.0112032 0)
(-0.0119925 0.0113255 0)
(-0.0119528 0.011441 0)
(-0.0118596 0.0115493 0)
(-0.0117349 0.0116484 0)
(-0.0115994 0.0117372 0)
(-0.0114546 0.0118154 0)
(-0.0112849 0.0118825 0)
(-0.0110672 0.0119373 0)
(-0.0107817 0.0119788 0)
(-0.0104162 0.0120046 0)
(-0.00996694 0.0120136 0)
(-0.0094265 0.0120043 0)
(-0.00887421 0.0118662 0)
(-0.0106884 0.0120996 0)
(-0.012129 0.0123232 0)
(-0.0134049 0.0125347 0)
(-0.0147714 0.0127387 0)
(-0.0159365 0.0129307 0)
(-0.0168964 0.0131094 0)
(-0.0178518 0.0132776 0)
(-0.0186564 0.0134309 0)
(-0.019286 0.0135706 0)
(-0.0198482 0.0136966 0)
(-0.0202728 0.0138064 0)
(-0.0205717 0.0139019 0)
(-0.0207889 0.0139813 0)
(-0.020874 0.0140478 0)
(-0.000948485 0.00052001 0)
(-0.00416256 0.000538002 0)
(-0.00410333 0.000532108 0)
(-0.00401687 0.000530289 0)
(-0.00391077 0.000532326 0)
(-0.00377729 0.000536748 0)
(-0.00361708 0.000542797 0)
(-0.00343739 0.000547989 0)
(-0.00321538 0.000552896 0)
(-0.00297137 0.000555428 0)
(-0.00270878 0.000555283 0)
(-0.00240487 0.000551596 0)
(-0.00209614 0.000544469 0)
(-0.00174901 0.000537358 0)
(-0.00133155 0.000528478 0)
(-0.00944891 0.0118792 0)
(-0.00994896 0.0118714 0)
(-0.0103661 0.0118439 0)
(-0.0107066 0.0117986 0)
(-0.0109745 0.0117364 0)
(-0.0111767 0.0116595 0)
(-0.0113287 0.011569 0)
(-0.0114521 0.0114662 0)
(-0.011564 0.0113521 0)
(-0.0116656 0.0112268 0)
(-0.0117383 0.0110916 0)
(-0.0117609 0.0109481 0)
(-0.0117243 0.0107968 0)
(-0.0116357 0.0106384 0)
(-0.0115112 0.0104725 0)
(-0.0113658 0.0102997 0)
(-0.0112094 0.0101207 0)
(-0.0110474 0.00993571 0)
(-0.0108828 0.00974455 0)
(-0.0107166 0.00954744 0)
(-0.0105482 0.00934466 0)
(-0.010376 0.00913632 0)
(-0.0101997 0.00892256 0)
(-0.0100218 0.00870365 0)
(-0.00983573 0.00847987 0)
(-0.00964251 0.00825127 0)
(-0.00944669 0.00801809 0)
(-0.00924325 0.00778059 0)
(-0.00902965 0.00753884 0)
(-0.00880733 0.0072931 0)
(-0.00857957 0.00704368 0)
(-0.00834856 0.0067909 0)
(-0.00811497 0.00653515 0)
(-0.00787881 0.00627687 0)
(-0.00763992 0.00601636 0)
(-0.00739845 0.00575392 0)
(-0.00715493 0.00548995 0)
(-0.00690976 0.00522495 0)
(-0.00666287 0.00495935 0)
(-0.00641564 0.00469353 0)
(-0.00616482 0.00442852 0)
(-0.00591229 0.00416555 0)
(-0.00565807 0.00390516 0)
(-0.00539699 0.00364767 0)
(-0.00512692 0.00339335 0)
(-0.00484852 0.00314304 0)
(-0.00456499 0.00289796 0)
(-0.00428068 0.00265909 0)
(-0.0039987 0.00242687 0)
(-0.00371945 0.00220156 0)
(-0.00344115 0.00198395 0)
(-0.00316159 0.00177521 0)
(-0.00287946 0.00157638 0)
(-0.00259483 0.00138841 0)
(-0.00230834 0.00121241 0)
(-0.00201978 0.0010486 0)
(-0.00173315 0.00089713 0)
(-0.00145306 0.000758734 0)
(-0.00118569 0.000633581 0)
(-0.00162949 0.000649087 0)
(-0.00207612 0.000661852 0)
(-0.00242311 0.000677383 0)
(-0.00274741 0.000691769 0)
(-0.00307929 0.000700493 0)
(-0.00334814 0.000710282 0)
(-0.00360186 0.000714688 0)
(-0.0038414 0.000717623 0)
(-0.00402308 0.00072077 0)
(-0.00419457 0.00072067 0)
(-0.00433371 0.000723771 0)
(-0.00444088 0.000726214 0)
(-0.00452771 0.00073168 0)
(-0.00458507 0.000739143 0)
(-0.00194588 0.000782204 0)
(-0.00240161 0.000801877 0)
(-0.00275111 0.000825983 0)
(-0.00310766 0.000846588 0)
(-0.00345242 0.000862699 0)
(-0.00372617 0.000881307 0)
(-0.0039999 0.000892759 0)
(-0.00424456 0.000903845 0)
(-0.00443342 0.000914201 0)
(-0.00461432 0.00092061 0)
(-0.0047551 0.000929459 0)
(-0.00486508 0.000936215 0)
(-0.00495176 0.000944855 0)
(-0.00500658 0.000954087 0)
(-0.00226784 0.000928174 0)
(-0.00272582 0.000956127 0)
(-0.00308611 0.000988782 0)
(-0.00347389 0.00101598 0)
(-0.00382765 0.00104081 0)
(-0.00410922 0.00106687 0)
(-0.00440157 0.00108545 0)
(-0.00465036 0.00110544 0)
(-0.00484477 0.00112149 0)
(-0.00503425 0.00113409 0)
(-0.00517586 0.00114855 0)
(-0.00528754 0.00115923 0)
(-0.00537477 0.00117114 0)
(-0.00542908 0.0011827 0)
(-0.00259115 0.00108714 0)
(-0.00305112 0.00112367 0)
(-0.00342587 0.00116568 0)
(-0.00384452 0.00119975 0)
(-0.00420836 0.00123335 0)
(-0.00449609 0.00126773 0)
(-0.00480464 0.00129209 0)
(-0.00505972 0.00131956 0)
(-0.00525596 0.00134249 0)
(-0.00545285 0.00136013 0)
(-0.00559695 0.00138002 0)
(-0.00570895 0.00139462 0)
(-0.00579695 0.0014096 0)
(-0.00585078 0.00142344 0)
(-0.00291408 0.00125827 0)
(-0.00337884 0.00130416 0)
(-0.00376864 0.00135583 0)
(-0.00421797 0.00139704 0)
(-0.00459267 0.00143901 0)
(-0.00488374 0.00148103 0)
(-0.00520708 0.00151186 0)
(-0.00546992 0.00154646 0)
(-0.00566808 0.0015753 0)
(-0.00586981 0.00159818 0)
(-0.00601683 0.00162282 0)
(-0.00612993 0.0016414 0)
(-0.00621811 0.00165935 0)
(-0.00627131 0.00167522 0)
(-0.00323795 0.00144172 0)
(-0.00370998 0.00149696 0)
(-0.0041124 0.00155856 0)
(-0.00459134 0.00160644 0)
(-0.00497911 0.00165636 0)
(-0.00527158 0.0017069 0)
(-0.00560723 0.00174338 0)
(-0.00587977 0.00178453 0)
(-0.00608033 0.00181954 0)
(-0.00628609 0.00184702 0)
(-0.00643539 0.00187616 0)
(-0.00655004 0.00189836 0)
(-0.0066387 0.00191933 0)
(-0.00669098 0.00193715 0)
(-0.00356267 0.00163705 0)
(-0.00404455 0.00170086 0)
(-0.00445626 0.00177254 0)
(-0.00496221 0.00182762 0)
(-0.00536625 0.00188447 0)
(-0.00566113 0.00194316 0)
(-0.00600546 0.00198634 0)
(-0.00628762 0.00203302 0)
(-0.00649293 0.00207343 0)
(-0.00670193 0.00210557 0)
(-0.00685326 0.0021391 0)
(-0.00696918 0.00216486 0)
(-0.00705828 0.00218846 0)
(-0.00710965 0.0022081 0)
(-0.00388666 0.00184344 0)
(-0.00438214 0.00191527 0)
(-0.00480096 0.00199675 0)
(-0.0053295 0.00205912 0)
(-0.00575259 0.00212301 0)
(-0.00605294 0.0021891 0)
(-0.00640471 0.0022386 0)
(-0.006694 0.00229149 0)
(-0.00690478 0.00233669 0)
(-0.00711946 0.00237367 0)
(-0.00727198 0.0024113 0)
(-0.00738764 0.00243991 0)
(-0.00747675 0.00246589 0)
(-0.00752726 0.0024871 0)
(-0.00420799 0.00206041 0)
(-0.00472147 0.00213978 0)
(-0.0051478 0.00223058 0)
(-0.00569579 0.00230096 0)
(-0.00613732 0.0023716 0)
(-0.00644539 0.00244427 0)
(-0.00680582 0.00249948 0)
(-0.00710086 0.00255823 0)
(-0.00731542 0.00260853 0)
(-0.0075355 0.00264944 0)
(-0.00768969 0.00269082 0)
(-0.00780542 0.00272226 0)
(-0.0078943 0.00275051 0)
(-0.00794386 0.00277317 0)
(-0.00452549 0.00228716 0)
(-0.00505993 0.00237393 0)
(-0.00549649 0.00247286 0)
(-0.00606192 0.00255076 0)
(-0.00651825 0.00262844 0)
(-0.0068358 0.00270749 0)
(-0.00720729 0.0027681 0)
(-0.00750847 0.00283224 0)
(-0.00772556 0.00288729 0)
(-0.00794988 0.00293213 0)
(-0.00810587 0.00297694 0)
(-0.00822209 0.00301095 0)
(-0.0083109 0.00304125 0)
(-0.00835949 0.00306527 0)
(-0.00483969 0.00252194 0)
(-0.0053952 0.00261667 0)
(-0.00584523 0.00272302 0)
(-0.00642877 0.00280744 0)
(-0.00689738 0.0028923 0)
(-0.00722326 0.00297791 0)
(-0.00760707 0.00304346 0)
(-0.00791553 0.0031126 0)
(-0.0081353 0.00317193 0)
(-0.00836341 0.00322045 0)
(-0.00852087 0.00326864 0)
(-0.00863769 0.00330506 0)
(-0.00872655 0.00333722 0)
(-0.00877419 0.0033624 0)
(-0.00515313 0.00276321 0)
(-0.00572747 0.00286644 0)
(-0.00619203 0.00298022 0)
(-0.00679742 0.00307075 0)
(-0.00727739 0.00316217 0)
(-0.00760965 0.00325416 0)
(-0.00800472 0.00332458 0)
(-0.0083206 0.00339837 0)
(-0.00854363 0.00346165 0)
(-0.00877585 0.0035135 0)
(-0.00893482 0.00356484 0)
(-0.00905225 0.00360354 0)
(-0.00914124 0.0036374 0)
(-0.00918796 0.0036636 0)
(-0.00546803 0.00301025 0)
(-0.00605868 0.00312185 0)
(-0.00653761 0.00324412 0)
(-0.00716582 0.00334091 0)
(-0.00765777 0.00343772 0)
(-0.00799618 0.00353525 0)
(-0.00840115 0.00361024 0)
(-0.00872359 0.00368853 0)
(-0.00894998 0.00375558 0)
(-0.00918664 0.00381052 0)
(-0.00934737 0.00386468 0)
(-0.00946558 0.00390542 0)
(-0.00955483 0.00394081 0)
(-0.00960073 0.00396789 0)
(-0.00578349 0.00326262 0)
(-0.00638927 0.00338172 0)
(-0.00688124 0.00351216 0)
(-0.0075304 0.00361547 0)
(-0.00803624 0.003718 0)
(-0.00838179 0.00382061 0)
(-0.0087965 0.00389963 0)
(-0.00912524 0.00398205 0)
(-0.00935498 0.00405266 0)
(-0.0095961 0.00411051 0)
(-0.00975862 0.00416723 0)
(-0.00987764 0.00420978 0)
(-0.00996719 0.00424652 0)
(-0.0100123 0.00427435 0)
(-0.00609605 0.00351993 0)
(-0.00671746 0.00364547 0)
(-0.00722366 0.00378372 0)
(-0.00789263 0.00389346 0)
(-0.00841222 0.00400166 0)
(-0.00876519 0.00410928 0)
(-0.00919013 0.00419203 0)
(-0.00952571 0.00427813 0)
(-0.00975899 0.00435194 0)
(-0.0100044 0.00441243 0)
(-0.0101686 0.00447149 0)
(-0.0102884 0.00451566 0)
(-0.0103782 0.00455361 0)
(-0.0104226 0.00458205 0)
(-0.00640268 0.0037816 0)
(-0.00704327 0.0039141 0)
(-0.00756532 0.00405938 0)
(-0.00825349 0.00417423 0)
(-0.00878606 0.00428763 0)
(-0.0091462 0.00440007 0)
(-0.00958179 0.00448642 0)
(-0.00992459 0.00457593 0)
(-0.0101614 0.00465253 0)
(-0.0104111 0.00471537 0)
(-0.010577 0.00477657 0)
(-0.0106976 0.00482222 0)
(-0.0107876 0.0048612 0)
(-0.0108313 0.00489014 0)
(-0.00670147 0.00404629 0)
(-0.00736383 0.00418553 0)
(-0.00790264 0.00433726 0)
(-0.00861175 0.00445707 0)
(-0.00915727 0.00457524 0)
(-0.00952478 0.0046921 0)
(-0.0099713 0.00478183 0)
(-0.0103213 0.00487451 0)
(-0.0105611 0.00495331 0)
(-0.0108157 0.00501843 0)
(-0.0109833 0.00508173 0)
(-0.0111046 0.00512862 0)
(-0.0111951 0.00516845 0)
(-0.0112381 0.00519776 0)
(-0.00699197 0.00431282 0)
(-0.00767834 0.00445864 0)
(-0.00823478 0.00461662 0)
(-0.00896552 0.0047412 0)
(-0.00952455 0.00486381 0)
(-0.00990018 0.00498466 0)
(-0.010358 0.00507752 0)
(-0.0107154 0.00517323 0)
(-0.0109592 0.00525486 0)
(-0.0112182 0.00532174 0)
(-0.0113868 0.0053862 0)
(-0.011509 0.00543406 0)
(-0.0116 0.00547454 0)
(-0.0116426 0.0055041 0)
(-0.00727954 0.00458222 0)
(-0.00798888 0.00473387 0)
(-0.00856172 0.00489689 0)
(-0.0093139 0.00502577 0)
(-0.00988717 0.00515241 0)
(-0.0102718 0.00527693 0)
(-0.0107414 0.00537266 0)
(-0.0111061 0.00547111 0)
(-0.0113536 0.00555492 0)
(-0.0116168 0.00562335 0)
(-0.0117869 0.00568903 0)
(-0.0119102 0.00573769 0)
(-0.0120019 0.00577868 0)
(-0.0120441 0.00580839 0)
(-0.00756782 0.00485293 0)
(-0.00829582 0.00500974 0)
(-0.00888408 0.00517748 0)
(-0.00965749 0.00531006 0)
(-0.0102456 0.00544026 0)
(-0.0106398 0.00556807 0)
(-0.0111209 0.00566638 0)
(-0.011493 0.00576724 0)
(-0.0117441 0.00585293 0)
(-0.0120114 0.00592275 0)
(-0.0121835 0.00598949 0)
(-0.0123079 0.00603877 0)
(-0.0124003 0.00608014 0)
(-0.0124423 0.0061099 0)
(-0.00785315 0.00512457 0)
(-0.00859892 0.00528579 0)
(-0.00920244 0.00545774 0)
(-0.00999742 0.00559354 0)
(-0.0106006 0.00572685 0)
(-0.0110039 0.00585751 0)
(-0.0114962 0.00595806 0)
(-0.0118752 0.006061 0)
(-0.01213 0.0061483 0)
(-0.0124016 0.0062193 0)
(-0.0125758 0.0062869 0)
(-0.0127015 0.00633666 0)
(-0.0127948 0.00637825 0)
(-0.0128365 0.00640796 0)
(-0.00813387 0.00539534 0)
(-0.00889804 0.00556103 0)
(-0.00951748 0.0057369 0)
(-0.0103341 0.00587569 0)
(-0.0109516 0.00601174 0)
(-0.0113633 0.00614477 0)
(-0.0118661 0.00624716 0)
(-0.0122521 0.00635177 0)
(-0.0125109 0.00644034 0)
(-0.012787 0.00651232 0)
(-0.0129633 0.00658062 0)
(-0.0130904 0.0066307 0)
(-0.0131846 0.00667236 0)
(-0.013226 0.00670192 0)
(-0.00841152 0.00566497 0)
(-0.00919393 0.00583477 0)
(-0.00982924 0.00601425 0)
(-0.0106666 0.00615582 0)
(-0.0112973 0.00629429 0)
(-0.0117167 0.00642927 0)
(-0.01223 0.00653311 0)
(-0.0126231 0.00663894 0)
(-0.0128862 0.00672849 0)
(-0.0131669 0.00680125 0)
(-0.0133453 0.00687006 0)
(-0.0134737 0.00692031 0)
(-0.0135688 0.00696188 0)
(-0.0136099 0.00699119 0)
(-0.00868645 0.005933 0)
(-0.00948639 0.00610645 0)
(-0.0101367 0.00628913 0)
(-0.0109937 0.0064332 0)
(-0.0116369 0.00657381 0)
(-0.012064 0.00671043 0)
(-0.0125878 0.00681539 0)
(-0.0129876 0.00692179 0)
(-0.0132558 0.00701224 0)
(-0.0135411 0.00708568 0)
(-0.0137214 0.00715471 0)
(-0.0138508 0.00720492 0)
(-0.0139467 0.00724625 0)
(-0.0139875 0.0072752 0)
(-0.00895801 0.00619899 0)
(-0.00977439 0.00637557 0)
(-0.0104389 0.00656093 0)
(-0.011315 0.00670718 0)
(-0.0119704 0.00684964 0)
(-0.0124052 0.00698763 0)
(-0.0129395 0.00709363 0)
(-0.0133469 0.00720105 0)
(-0.0136199 0.00729191 0)
(-0.0139091 0.00736515 0)
(-0.014091 0.00743407 0)
(-0.0142211 0.00748404 0)
(-0.0143175 0.00752497 0)
(-0.014358 0.00755347 0)
(-0.00922546 0.00646253 0)
(-0.0100572 0.00664175 0)
(-0.0107354 0.00682924 0)
(-0.0116301 0.00697723 0)
(-0.0122974 0.00712116 0)
(-0.0127395 0.00726023 0)
(-0.0132842 0.00736708 0)
(-0.0136988 0.00747504 0)
(-0.013976 0.00756597 0)
(-0.0142696 0.00763905 0)
(-0.0144533 0.00770762 0)
(-0.0145841 0.0077572 0)
(-0.0146808 0.00779763 0)
(-0.0147207 0.00782558 0)
(-0.00948875 0.00672336 0)
(-0.0103349 0.00690475 0)
(-0.011026 0.0070938 0)
(-0.0119386 0.00724306 0)
(-0.0126173 0.00738801 0)
(-0.0130664 0.00752775 0)
(-0.0136211 0.00763515 0)
(-0.0140429 0.00774336 0)
(-0.014324 0.0078342 0)
(-0.0146216 0.00790697 0)
(-0.0148072 0.00797499 0)
(-0.0149388 0.00802402 0)
(-0.0150356 0.00806384 0)
(-0.015075 0.00809118 0)
(-0.00974838 0.00698118 0)
(-0.0106078 0.00716432 0)
(-0.0113111 0.00735444 0)
(-0.012241 0.00750454 0)
(-0.0129304 0.00765004 0)
(-0.0133861 0.00778993 0)
(-0.0139498 0.00789725 0)
(-0.0143794 0.00800572 0)
(-0.0146638 0.00809637 0)
(-0.0149649 0.00816863 0)
(-0.0151521 0.0082359 0)
(-0.0152845 0.00828422 0)
(-0.0153814 0.00832333 0)
(-0.01542 0.00834997 0)
(-0.0100049 0.00723553 0)
(-0.0108768 0.00741999 0)
(-0.0115914 0.00761076 0)
(-0.0125376 0.0077614 0)
(-0.013237 0.00790705 0)
(-0.0136987 0.00804677 0)
(-0.0142714 0.00815437 0)
(-0.0147081 0.00826262 0)
(-0.014995 0.00835228 0)
(-0.0152992 0.00842381 0)
(-0.0154877 0.00849014 0)
(-0.0156206 0.00853762 0)
(-0.0157175 0.00857588 0)
(-0.0157554 0.00860176 0)
(-0.0102579 0.00748598 0)
(-0.0111418 0.00767128 0)
(-0.011867 0.00786231 0)
(-0.0128284 0.00801321 0)
(-0.0135369 0.00815871 0)
(-0.0140038 0.0082979 0)
(-0.0145851 0.00840531 0)
(-0.0150271 0.0085129 0)
(-0.0153167 0.00860166 0)
(-0.0156241 0.00867231 0)
(-0.0158136 0.00873756 0)
(-0.0159467 0.00878407 0)
(-0.0160436 0.00882138 0)
(-0.0160806 0.00884641 0)
(-0.0105055 0.00773226 0)
(-0.0114012 0.00791797 0)
(-0.0121366 0.00810878 0)
(-0.0131126 0.00825964 0)
(-0.0138293 0.00840467 0)
(-0.0143005 0.00854273 0)
(-0.0148913 0.00864995 0)
(-0.015337 0.00875676 0)
(-0.0156287 0.00884446 0)
(-0.0159391 0.00891407 0)
(-0.0161294 0.00897807 0)
(-0.0162626 0.00902351 0)
(-0.0163592 0.00905975 0)
(-0.0163952 0.00908388 0)
(-0.0107442 0.0079742 0)
(-0.0116522 0.00815989 0)
(-0.0123982 0.00835 0)
(-0.0133889 0.00850048 0)
(-0.0141138 0.00864489 0)
(-0.0145898 0.00878228 0)
(-0.0151894 0.00888902 0)
(-0.0156378 0.00899428 0)
(-0.0159308 0.00908067 0)
(-0.0162437 0.0091491 0)
(-0.0164345 0.00921172 0)
(-0.0165677 0.00925595 0)
(-0.016664 0.00929103 0)
(-0.0166989 0.00931421 0)
(-0.0109726 0.00821153 0)
(-0.0118935 0.00839682 0)
(-0.0126507 0.00858577 0)
(-0.0136562 0.00873559 0)
(-0.0143889 0.00887894 0)
(-0.014871 0.00901569 0)
(-0.0154771 0.00912165 0)
(-0.0159287 0.00922539 0)
(-0.0162226 0.00931033 0)
(-0.0165372 0.00937748 0)
(-0.0167284 0.00943857 0)
(-0.0168617 0.0094815 0)
(-0.0169577 0.00951534 0)
(-0.0169914 0.00953752 0)
(-0.0111926 0.00844411 0)
(-0.0121261 0.00862853 0)
(-0.0128944 0.00881593 0)
(-0.0139138 0.00896478 0)
(-0.0146568 0.00910793 0)
(-0.0151439 0.00924366 0)
(-0.0157549 0.00934811 0)
(-0.0162091 0.00945014 0)
(-0.0165035 0.00953352 0)
(-0.0168196 0.0095993 0)
(-0.0170112 0.00965877 0)
(-0.0171444 0.00970032 0)
(-0.0172399 0.00973286 0)
(-0.0172725 0.00975398 0)
(-0.0114074 0.00867173 0)
(-0.0123518 0.00885491 0)
(-0.0131296 0.00904036 0)
(-0.0141659 0.00918921 0)
(-0.0149176 0.00933176 0)
(-0.0154069 0.0094654 0)
(-0.0160229 0.00956843 0)
(-0.016479 0.00966864 0)
(-0.0167736 0.00975036 0)
(-0.0170912 0.00981469 0)
(-0.0172828 0.00987249 0)
(-0.0174156 0.00991264 0)
(-0.0175106 0.00994382 0)
(-0.0175422 0.00996386 0)
(-0.0116162 0.00889391 0)
(-0.0125709 0.00907596 0)
(-0.0133595 0.00926036 0)
(-0.0144115 0.00940873 0)
(-0.0151685 0.00954951 0)
(-0.01566 0.00968114 0)
(-0.0162806 0.00978278 0)
(-0.0167385 0.00988111 0)
(-0.0170333 0.00996109 0)
(-0.017352 0.0100239 0)
(-0.0175431 0.01008 0)
(-0.0176752 0.0101187 0)
(-0.0177697 0.0101485 0)
(-0.0178004 0.0101675 0)
(-0.0118184 0.00911222 0)
(-0.0127843 0.00929318 0)
(-0.0135834 0.00947561 0)
(-0.0146467 0.00962234 0)
(-0.0154094 0.00976142 0)
(-0.0159033 0.00989107 0)
(-0.0165284 0.00999136 0)
(-0.016988 0.0100878 0)
(-0.0172825 0.010166 0)
(-0.0176017 0.0102273 0)
(-0.0177921 0.0102816 0)
(-0.0179236 0.0103189 0)
(-0.0180175 0.0103473 0)
(-0.0180472 0.0103652 0)
(-0.0120156 0.00932497 0)
(-0.0129911 0.00950464 0)
(-0.0137987 0.00968482 0)
(-0.0148736 0.00983016 0)
(-0.0156417 0.0099676 0)
(-0.0161375 0.0100953 0)
(-0.0167666 0.0101943 0)
(-0.0172271 0.0102889 0)
(-0.017521 0.0103654 0)
(-0.0178405 0.0104251 0)
(-0.0180302 0.0104776 0)
(-0.0181609 0.0105135 0)
(-0.0182542 0.0105406 0)
(-0.0182827 0.0105574 0)
(-0.0122069 0.00953222 0)
(-0.013191 0.0097105 0)
(-0.0140066 0.00988833 0)
(-0.0150924 0.0100323 0)
(-0.015865 0.0101682 0)
(-0.0163621 0.010294 0)
(-0.0169944 0.0103919 0)
(-0.0174557 0.0104847 0)
(-0.017749 0.0105596 0)
(-0.0180688 0.0106178 0)
(-0.0182577 0.0106686 0)
(-0.0183874 0.010703 0)
(-0.0184797 0.0107288 0)
(-0.018507 0.0107445 0)
(-0.0123924 0.00973392 0)
(-0.013384 0.00991076 0)
(-0.0142067 0.0100862 0)
(-0.0153025 0.010229 0)
(-0.0160788 0.0103634 0)
(-0.0165767 0.0104874 0)
(-0.0172122 0.0105843 0)
(-0.0176742 0.0106755 0)
(-0.0179668 0.0107488 0)
(-0.0182867 0.0108057 0)
(-0.0184744 0.0108548 0)
(-0.0186029 0.0108879 0)
(-0.0186941 0.0109123 0)
(-0.0187201 0.010927 0)
(-0.0125741 0.00992995 0)
(-0.0135718 0.0101054 0)
(-0.0144003 0.0102787 0)
(-0.0155048 0.0104205 0)
(-0.0162839 0.0105535 0)
(-0.016782 0.0106758 0)
(-0.0174201 0.0107718 0)
(-0.0178822 0.0108615 0)
(-0.0181736 0.0109335 0)
(-0.0184934 0.0109892 0)
(-0.0186799 0.0110366 0)
(-0.0188072 0.0110684 0)
(-0.0188974 0.0110916 0)
(-0.0189223 0.0111053 0)
(-0.0127531 0.0101202 0)
(-0.0137554 0.0102945 0)
(-0.014588 0.010466 0)
(-0.0156991 0.010607 0)
(-0.0164792 0.0107388 0)
(-0.016976 0.0108595 0)
(-0.0176155 0.0109547 0)
(-0.0180772 0.0110431 0)
(-0.0183676 0.0111139 0)
(-0.0186876 0.0111685 0)
(-0.0188735 0.0112146 0)
(-0.0190001 0.0112452 0)
(-0.0190897 0.0112672 0)
(-0.0191135 0.01128 0)
(-0.0129276 0.0103046 0)
(-0.013932 0.0104784 0)
(-0.014766 0.0106482 0)
(-0.0158807 0.0107886 0)
(-0.0166592 0.0109194 0)
(-0.0171535 0.0110388 0)
(-0.0177943 0.0111335 0)
(-0.0182566 0.0112207 0)
(-0.0185475 0.0112905 0)
(-0.0188691 0.0113442 0)
(-0.0190554 0.011389 0)
(-0.019182 0.0114186 0)
(-0.0192711 0.0114394 0)
(-0.0192941 0.0114513 0)
(-0.0130925 0.0104836 0)
(-0.0140948 0.0106568 0)
(-0.0149258 0.010825 0)
(-0.0160408 0.0109652 0)
(-0.0168167 0.0110954 0)
(-0.0173098 0.0112139 0)
(-0.0179547 0.0113083 0)
(-0.0184207 0.0113946 0)
(-0.0187144 0.0114636 0)
(-0.019039 0.0115166 0)
(-0.0192263 0.0115602 0)
(-0.0193531 0.011589 0)
(-0.019442 0.0116088 0)
(-0.0194642 0.0116199 0)
(-0.0132397 0.0106564 0)
(-0.0142337 0.0108292 0)
(-0.0150574 0.0109965 0)
(-0.0161718 0.011137 0)
(-0.0169483 0.0112672 0)
(-0.0174458 0.0113849 0)
(-0.0181001 0.0114794 0)
(-0.018573 0.011565 0)
(-0.0188708 0.0116334 0)
(-0.0191983 0.0116861 0)
(-0.0193866 0.0117288 0)
(-0.0195136 0.0117567 0)
(-0.0196024 0.0117757 0)
(-0.0196239 0.0117861 0)
(-0.0133572 0.0108225 0)
(-0.0143368 0.0109957 0)
(-0.0151534 0.0111626 0)
(-0.0162735 0.0113041 0)
(-0.01706 0.0114343 0)
(-0.0175696 0.0115518 0)
(-0.0182361 0.0116468 0)
(-0.0187152 0.0117322 0)
(-0.0190158 0.0118005 0)
(-0.0193459 0.0118529 0)
(-0.0195355 0.0118949 0)
(-0.0196633 0.0119223 0)
(-0.0197524 0.0119406 0)
(-0.0197734 0.0119503 0)
(-0.0134312 0.010982 0)
(-0.0143975 0.0111562 0)
(-0.0152173 0.0113234 0)
(-0.0163569 0.0114657 0)
(-0.0171628 0.0115965 0)
(-0.0176854 0.0117144 0)
(-0.0183597 0.0118108 0)
(-0.018842 0.0118964 0)
(-0.0191457 0.0119648 0)
(-0.0194805 0.0120174 0)
(-0.0196731 0.012059 0)
(-0.0198026 0.0120861 0)
(-0.0198922 0.0121038 0)
(-0.0199128 0.0121129 0)
(-0.0134546 0.0111347 0)
(-0.0144219 0.0113107 0)
(-0.0152642 0.0114779 0)
(-0.0164346 0.0116217 0)
(-0.0172568 0.011754 0)
(-0.0177828 0.0118734 0)
(-0.0184612 0.0119711 0)
(-0.0189508 0.0120573 0)
(-0.0192634 0.0121264 0)
(-0.0196053 0.0121797 0)
(-0.0198013 0.0122213 0)
(-0.0199322 0.0122483 0)
(-0.0200222 0.0122655 0)
(-0.0200424 0.0122742 0)
(-0.0134352 0.0112806 0)
(-0.0144282 0.0114579 0)
(-0.0153071 0.0116256 0)
(-0.0165006 0.0117721 0)
(-0.0173234 0.0119072 0)
(-0.0178506 0.0120275 0)
(-0.0185446 0.0121272 0)
(-0.0190513 0.0122149 0)
(-0.0193739 0.0122855 0)
(-0.0197204 0.01234 0)
(-0.0199183 0.0123818 0)
(-0.020051 0.0124091 0)
(-0.0201421 0.0124261 0)
(-0.0201621 0.0124345 0)
(-0.0133931 0.0114181 0)
(-0.0144305 0.0115968 0)
(-0.0153356 0.0117665 0)
(-0.0165302 0.0119171 0)
(-0.0173533 0.012054 0)
(-0.0179022 0.0121762 0)
(-0.0186247 0.0122793 0)
(-0.019144 0.0123693 0)
(-0.019469 0.012442 0)
(-0.0198187 0.0124979 0)
(-0.0200221 0.0125406 0)
(-0.0201595 0.0125686 0)
(-0.0202523 0.0125858 0)
(-0.0202723 0.0125939 0)
(-0.0133448 0.0115457 0)
(-0.0144177 0.0117275 0)
(-0.0153215 0.0119007 0)
(-0.0165152 0.0120541 0)
(-0.0173667 0.0121938 0)
(-0.017953 0.0123199 0)
(-0.0186917 0.0124266 0)
(-0.0192117 0.0125197 0)
(-0.0195407 0.0125949 0)
(-0.0199043 0.0126533 0)
(-0.0201194 0.0126979 0)
(-0.0202598 0.0127271 0)
(-0.0203529 0.0127446 0)
(-0.0203731 0.0127527 0)
(-0.013284 0.0116633 0)
(-0.0143617 0.0118498 0)
(-0.0152538 0.0120253 0)
(-0.0164764 0.0121827 0)
(-0.0173773 0.0123272 0)
(-0.0179855 0.0124566 0)
(-0.0187256 0.0125686 0)
(-0.0192508 0.0126653 0)
(-0.019603 0.0127439 0)
(-0.0199899 0.0128064 0)
(-0.0202074 0.0128534 0)
(-0.0203469 0.0128842 0)
(-0.0204431 0.0129026 0)
(-0.0204648 0.0129109 0)
(-0.0131872 0.0117705 0)
(-0.0142454 0.0119613 0)
(-0.0151468 0.0121401 0)
(-0.0164286 0.0123026 0)
(-0.0173696 0.0124513 0)
(-0.0179805 0.0125866 0)
(-0.0187228 0.0127039 0)
(-0.0192792 0.0128046 0)
(-0.0196704 0.0128892 0)
(-0.0200584 0.0129562 0)
(-0.0202712 0.0130061 0)
(-0.0204214 0.01304 0)
(-0.0205254 0.01306 0)
(-0.0205474 0.0130688 0)
(-0.013032 0.0118657 0)
(-0.0140706 0.0120616 0)
(-0.015017 0.0122437 0)
(-0.0163665 0.0124111 0)
(-0.0173241 0.0125672 0)
(-0.0179246 0.0127073 0)
(-0.0187002 0.0128298 0)
(-0.0193171 0.0129381 0)
(-0.019711 0.0130287 0)
(-0.020089 0.0131008 0)
(-0.0203264 0.0131561 0)
(-0.0204948 0.0131941 0)
(-0.0206001 0.0132165 0)
(-0.0206202 0.0132262 0)
(-0.0128072 0.0119482 0)
(-0.0138499 0.0121479 0)
(-0.0148708 0.0123337 0)
(-0.0162712 0.0125094 0)
(-0.0172143 0.0126706 0)
(-0.017834 0.0128156 0)
(-0.0186877 0.0129474 0)
(-0.0193212 0.0130624 0)
(-0.0197007 0.0131592 0)
(-0.0201164 0.0132398 0)
(-0.0203843 0.0133017 0)
(-0.0205558 0.0133453 0)
(-0.0206591 0.0133715 0)
(-0.0206838 0.0133831 0)
(-0.0125141 0.0120151 0)
(-0.0135943 0.0122192 0)
(-0.0146971 0.0124108 0)
(-0.0161123 0.0125923 0)
(-0.0170514 0.0127594 0)
(-0.0177383 0.0129124 0)
(-0.0186381 0.0130518 0)
(-0.0192682 0.0131738 0)
(-0.019682 0.0132803 0)
(-0.0201388 0.0133697 0)
(-0.0204196 0.0134398 0)
(-0.0205929 0.0134916 0)
(-0.020709 0.0135244 0)
(-0.020741 0.0135395 0)
(-0.0121578 0.0120655 0)
(-0.0133028 0.0122742 0)
(-0.0144734 0.0124706 0)
(-0.015888 0.0126593 0)