/*--------------------------------*- C++ -*----------------------------------*\
| =========                 |                                                 |
| \\      /  F ield         | OpenFOAM Extend Project: Open source CFD        |
|  \\    /   O peration     | Version:  1.6-ext                               |
|   \\  /    A nd           | Web:      www.extend-project.de                 |
|    \\/     M anipulation  |                                                 |
\*---------------------------------------------------------------------------*/
FoamFile
{
    version     2.0;
    format      ascii;
    class       volScalarField;
    location    "0.45";
    object      p;
}
// * * * * * * * * * * * * * * * * * * * * * * * * * * * * * * * * * * * * * //

dimensions      [0 2 -2 0 0 0 0];

internalField   nonuniform List<scalar> 
20940
(
-0.0647104
-0.108808
-0.155099
-0.203848
-0.254494
-0.307103
-0.36117
-0.416215
-0.471377
-0.52553
-0.577295
-0.625237
-0.668121
-0.705166
-0.736186
-0.761569
-0.782126
-0.798874
-0.812761
-0.824591
-0.835918
-0.847936
-0.0930573
-0.136012
-0.181337
-0.228504
-0.277279
-0.327494
-0.378617
-0.430036
-0.480804
-0.529779
-0.575701
-0.617415
-0.654097
-0.685414
-0.711549
-0.733098
-0.750894
-0.765823
-0.778623
-0.789856
-0.800818
-0.812504
-0.117743
-0.159334
-0.203402
-0.248735
-0.295374
-0.342911
-0.390783
-0.438257
-0.484352
-0.527983
-0.568094
-0.603871
-0.634897
-0.661214
-0.683256
-0.701706
-0.717326
-0.730833
-0.74275
-0.75343
-0.763929
-0.775065
-0.141075
-0.181094
-0.22364
-0.266873
-0.311076
-0.355598
-0.399851
-0.443015
-0.484139
-0.522283
-0.556673
-0.586862
-0.612801
-0.634808
-0.653448
-0.669387
-0.68326
-0.695598
-0.706734
-0.716853
-0.726816
-0.737307
-0.162706
-0.201061
-0.241927
-0.282904
-0.324472
-0.365741
-0.40612
-0.444747
-0.480786
-0.51352
-0.542504
-0.567643
-0.589177
-0.60759
-0.623473
-0.637401
-0.649858
-0.661198
-0.671601
-0.681125
-0.690476
-0.700246
-0.182915
-0.219551
-0.25861
-0.297187
-0.335927
-0.37372
-0.410015
-0.443982
-0.474982
-0.502578
-0.526657
-0.547413
-0.565274
-0.58078
-0.594469
-0.606789
-0.618068
-0.628514
-0.638194
-0.647077
-0.655744
-0.664723
-0.201841
-0.23671
-0.273848
-0.309906
-0.345661
-0.379822
-0.411935
-0.441277
-0.467471
-0.49038
-0.51018
-0.527266
-0.54215
-0.555347
-0.56729
-0.578293
-0.588549
-0.598156
-0.607098
-0.615292
-0.623218
-0.631356
-0.219753
-0.252911
-0.288076
-0.321519
-0.354143
-0.384549
-0.412455
-0.437322
-0.45907
-0.47784
-0.494019
-0.508107
-0.520614
-0.531971
-0.542496
-0.552379
-0.561706
-0.570495
-0.57868
-0.586148
-0.593295
-0.600563
-0.236563
-0.267963
-0.30104
-0.331787
-0.361214
-0.38789
-0.411756
-0.432501
-0.450331
-0.465601
-0.478826
-0.490524
-0.501146
-0.511025
-0.520364
-0.529256
-0.537712
-0.545694
-0.55311
-0.559833
-0.566186
-0.572582
-0.252603
-0.282388
-0.313367
-0.341361
-0.367526
-0.390512
-0.410543
-0.427554
-0.441991
-0.454344
-0.465171
-0.474949
-0.484044
-0.492685
-0.500986
-0.508966
-0.516583
-0.523768
-0.530414
-0.536391
-0.54196
-0.547504
-0.267268
-0.295264
-0.323965
-0.349235
-0.372282
-0.391917
-0.408604
-0.422492
-0.434184
-0.444233
-0.453181
-0.461439
-0.469287
-0.476873
-0.484244
-0.491372
-0.498184
-0.504591
-0.510485
-0.515738
-0.520556
-0.52529
-0.281323
-0.307765
-0.334293
-0.356864
-0.376859
-0.393349
-0.407029
-0.418226
-0.427625
-0.435779
-0.443175
-0.450149
-0.456903
-0.463526
-0.470018
-0.476323
-0.48235
-0.488001
-0.493168
-0.497729
-0.501843
-0.50583
-0.292658
-0.317278
-0.341326
-0.361565
-0.379031
-0.39313
-0.404597
-0.413872
-0.42164
-0.428427
-0.434661
-0.44062
-0.446459
-0.452233
-0.45792
-0.463454
-0.468739
-0.473677
-0.478164
-0.482087
-0.485561
-0.488878
-0.304671
-0.327553
-0.349473
-0.367388
-0.3824
-0.394247
-0.403686
-0.411245
-0.417565
-0.423126
-0.428291
-0.433287
-0.438231
-0.443153
-0.448025
-0.452775
-0.457309
-0.461532
-0.465348
-0.468653
-0.47153
-0.474243
-0.309062
-0.331599
-0.35067
-0.367265
-0.380838
-0.391667
-0.400231
-0.407068
-0.412729
-0.417656
-0.422176
-0.426505
-0.430761
-0.434988
-0.439169
-0.443248
-0.447144
-0.450768
-0.45403
-0.45683
-0.45922
-0.461431
-0.323992
-0.343049
-0.35932
-0.373519
-0.38485
-0.393776
-0.400744
-0.406281
-0.410869
-0.41488
-0.41858
-0.422136
-0.425639
-0.429117
-0.432554
-0.4359
-0.439087
-0.442036
-0.444673
-0.446917
-0.448795
-0.450493
-0.345162
-0.360359
-0.371972
-0.382162
-0.390133
-0.396587
-0.401788
-0.406115
-0.409841
-0.41318
-0.416281
-0.41924
-0.422109
-0.424904
-0.427612
-0.430198
-0.432614
-0.434806
-0.436724
-0.43832
-0.439627
-0.440785
-0.354544
-0.367723
-0.376663
-0.38505
-0.391471
-0.396852
-0.401221
-0.404903
-0.408071
-0.410886
-0.41346
-0.415871
-0.418166
-0.420364
-0.422461
-0.424434
-0.426248
-0.427867
-0.429256
-0.430382
-0.431267
-0.432004
-0.360902
-0.372573
-0.379442
-0.386545
-0.391801
-0.396386
-0.400113
-0.403287
-0.406006
-0.408394
-0.410537
-0.4125
-0.414323
-0.416028
-0.417617
-0.419077
-0.420388
-0.421523
-0.42246
-0.423183
-0.4237
-0.424071
-0.36403
-0.374437
-0.380095
-0.386392
-0.390961
-0.395046
-0.398355
-0.401168
-0.403546
-0.405595
-0.40739
-0.408988
-0.410429
-0.411737
-0.412919
-0.41397
-0.414876
-0.415621
-0.416192
-0.416581
-0.416784
-0.416833
-0.365538
-0.374712
-0.379752
-0.385408
-0.389529
-0.393225
-0.396213
-0.398734
-0.400839
-0.402619
-0.404139
-0.405453
-0.406597
-0.407596
-0.408459
-0.409186
-0.409769
-0.410198
-0.410466
-0.410571
-0.410494
-0.410243
-0.366187
-0.374133
-0.378855
-0.383936
-0.387733
-0.391101
-0.393833
-0.396121
-0.398013
-0.399588
-0.400904
-0.402006
-0.40293
-0.403696
-0.404317
-0.404794
-0.405124
-0.405298
-0.405315
-0.405178
-0.40485
-0.404319
-0.366533
-0.373339
-0.37779
-0.382328
-0.385838
-0.388913
-0.39143
-0.39353
-0.395262
-0.396688
-0.397857
-0.398811
-0.399577
-0.400176
-0.400618
-0.400907
-0.401039
-0.401011
-0.400822
-0.400481
-0.39993
-0.399141
-0.366863
-0.37265
-0.376773
-0.380807
-0.384043
-0.386863
-0.389202
-0.391159
-0.392776
-0.394102
-0.395176
-0.396032
-0.396694
-0.397177
-0.397492
-0.397642
-0.397626
-0.397441
-0.39709
-0.396581
-0.395841
-0.394828
-0.36723
-0.372154
-0.375918
-0.379518
-0.382509
-0.385122
-0.387326
-0.389184
-0.390728
-0.391995
-0.393016
-0.393815
-0.394413
-0.394822
-0.395052
-0.395106
-0.394985
-0.394687
-0.394216
-0.393583
-0.392698
-0.391509
-0.367804
-0.371997
-0.375402
-0.378638
-0.381416
-0.383867
-0.385969
-0.387761
-0.389264
-0.390504
-0.391501
-0.392274
-0.39284
-0.393209
-0.393388
-0.393384
-0.393198
-0.39283
-0.392286
-0.391579
-0.390607
-0.389309
-0.368436
-0.372075
-0.375188
-0.378154
-0.380774
-0.383114
-0.385154
-0.386914
-0.388405
-0.389644
-0.390643
-0.391418
-0.391979
-0.392335
-0.392496
-0.392467
-0.392254
-0.39186
-0.391294
-0.390571
-0.389586
-0.388271
-0.369502
-0.372681
-0.37552
-0.378257
-0.380738
-0.382989
-0.384987
-0.386735
-0.388236
-0.389497
-0.390524
-0.391326
-0.39191
-0.392283
-0.392453
-0.39243
-0.392224
-0.391843
-0.391304
-0.390624
-0.389713
-0.388501
-0.370218
-0.373155
-0.375839
-0.378451
-0.380861
-0.383074
-0.385065
-0.386827
-0.38836
-0.389661
-0.390733
-0.391579
-0.392202
-0.392607
-0.392803
-0.3928
-0.392617
-0.392271
-0.391794
-0.391218
-0.390489
-0.389546
-0.371677
-0.374308
-0.376815
-0.379314
-0.381684
-0.383907
-0.385949
-0.387798
-0.389442
-0.390876
-0.392095
-0.393093
-0.393864
-0.394402
-0.394705
-0.394772
-0.394617
-0.394265
-0.39376
-0.393173
-0.392571
-0.392029
1.309
1.35985
1.41063
1.46126
1.5113
1.56036
1.60802
1.65391
1.69761
1.73876
1.77699
1.81197
1.8434
1.87105
1.89479
1.91468
1.93106
1.94464
1.95639
1.96753
1.98094
1.99852
1.30032
1.35085
1.40098
1.45094
1.50028
1.54859
1.59548
1.64055
1.68342
1.72372
1.76108
1.79517
1.82571
1.85246
1.87532
1.89437
1.90997
1.92287
1.93409
1.94487
1.9581
1.97561
1.27964
1.32945
1.37827
1.42696
1.47497
1.52191
1.56738
1.61099
1.65235
1.6911
1.72688
1.75936
1.78826
1.81336
1.83458
1.85202
1.86613
1.87773
1.8879
1.89799
1.91084
1.92821
1.25016
1.2989
1.34574
1.39248
1.43846
1.48326
1.52651
1.56784
1.60685
1.64319
1.67651
1.70648
1.73284
1.75538
1.77405
1.78902
1.80083
1.8104
1.81898
1.82796
1.84021
1.85733
1.21123
1.25855
1.30279
1.34699
1.39033
1.43237
1.47277
1.51114
1.54711
1.58033
1.61044
1.63715
1.66018
1.67937
1.6947
1.70641
1.71517
1.72207
1.7285
1.73601
1.74743
1.76418
1.16457
1.2101
1.25118
1.29228
1.33238
1.37104
1.40792
1.44267
1.4749
1.50427
1.53045
1.55314
1.57208
1.58712
1.59831
1.60599
1.61096
1.61452
1.61827
1.62391
1.63425
1.65049
1.11115
1.15454
1.19194
1.22948
1.26584
1.30058
1.33342
1.36397
1.39187
1.41678
1.43838
1.45638
1.47053
1.48072
1.48704
1.48995
1.49041
1.48998
1.4905
1.49385
1.50284
1.51838
1.0527
1.09362
1.12692
1.16047
1.19263
1.22299
1.25127
1.27709
1.30011
1.31998
1.3364
1.34908
1.35779
1.36244
1.36319
1.36062
1.35589
1.35082
1.34756
1.34821
1.35554
1.37014
0.990754
1.02886
1.05774
1.08699
1.11463
1.14026
1.16362
1.18433
1.20204
1.21644
1.2272
1.23404
1.23676
1.23528
1.22983
1.22112
1.21052
1.20016
1.19254
1.19001
1.19532
1.20872
0.927276
0.962279
0.986503
1.0112
1.03401
1.05458
1.07266
1.08788
1.09989
1.10837
1.113
1.11352
1.10973
1.10157
1.08934
1.07386
1.05677
1.04052
1.02798
1.02182
1.02475
1.03662
0.863657
0.895218
0.914732
0.934812
0.952712
0.968146
0.980856
0.990456
0.996605
0.998973
0.997249
0.991158
0.980497
0.965241
0.945727
0.922931
0.898724
0.875922
0.857849
0.847516
0.847605
0.857555
0.802105
0.829925
0.844672
0.859963
0.872763
0.882843
0.889934
0.893645
0.893635
0.889574
0.881153
0.868096
0.850205
0.827468
0.800275
0.769734
0.737964
0.708165
0.684123
0.669229
0.666119
0.673728
0.742987
0.766732
0.777146
0.787924
0.795923
0.800951
0.802712
0.800803
0.794869
0.784563
0.769559
0.749564
0.724363
0.693938
0.658714
0.619919
0.579945
0.542428
0.511699
0.491622
0.484799
0.489603
0.689567
0.708238
0.714225
0.720246
0.723224
0.722946
0.719089
0.711247
0.699057
0.682171
0.660262
0.633043
0.600307
0.562056
0.518764
0.471785
0.42376
0.378717
0.341463
0.316268
0.305598
0.307116
0.639676
0.653233
0.656214
0.658145
0.65694
0.652245
0.643669
0.630784
0.613188
0.590493
0.56233
0.528361
0.488324
0.442173
0.390368
0.33435
0.277049
0.223062
0.177979
0.146786
0.131986
0.130278
0.601757
0.60352
0.603494
0.601097
0.594897
0.584891
0.570618
0.551674
0.527665
0.498205
0.462932
0.421522
0.373761
0.319698
0.259978
0.196337
0.132094
0.0722217
0.0225414
-0.011976
-0.0293728
-0.0337371
0.561576
0.55359
0.548563
0.538902
0.525327
0.50761
0.485285
0.458036
0.425524
0.387435
0.343494
0.2935
0.237431
0.175657
0.109288
0.0406013
-0.0266995
-0.087708
-0.137269
-0.171485
-0.189675
-0.19665
0.513867
0.498929
0.48908
0.472883
0.453046
0.428672
0.399455
0.365118
0.325364
0.279946
0.22867
0.171452
0.108454
0.0403247
-0.0314395
-0.10415
-0.173829
-0.23565
-0.284994
-0.318831
-0.337637
-0.346857
0.463342
0.442574
0.427465
0.404962
0.379083
0.348342
0.312684
0.271828
0.22553
0.173602
0.115922
0.0525237
-0.0162393
-0.0894233
-0.165154
-0.240381
-0.310957
-0.372273
-0.420349
-0.453069
-0.471926
-0.482704
0.410825
0.384933
0.364517
0.336199
0.304663
0.268037
0.226497
0.179745
0.127606
0.0699509
0.00675021
-0.0618169
-0.135168
-0.212034
-0.290172
-0.366245
-0.436099
-0.495528
-0.54133
-0.572308
-0.590801
-0.602654
0.357406
0.32704
0.301513
0.26798
0.23131
0.189449
0.142751
0.0909063
0.0338077
-0.0286069
-0.0962622
-0.168811
-0.245418
-0.324488
-0.403455
-0.478822
-0.546586
-0.603097
-0.645978
-0.674887
-0.692788
-0.705383
0.304276
0.270046
0.239769
0.201668
0.160462
0.114088
0.0630109
0.00692712
-0.0541983
-0.120355
-0.191346
-0.266634
-0.345117
-0.424892
-0.503155
-0.576379
-0.640882
-0.693672
-0.733207
-0.759869
-0.77705
-0.79014
0.252247
0.214757
0.180224
0.138254
0.0931942
0.0430944
-0.0115231
-0.0709356
-0.135108
-0.203944
-0.277106
-0.353849
-0.432804
-0.511806
-0.58791
-0.657715
-0.717998
-0.766498
-0.802449
-0.826821
-0.843229
-0.856641
0.202329
0.162172
0.123967
0.0788373
0.0306438
-0.0223764
-0.079682
-0.141506
-0.20774
-0.278187
-0.352352
-0.429269
-0.507319
-0.584144
-0.656784
-0.722109
-0.777469
-0.821346
-0.853663
-0.875808
-0.891452
-0.905057
0.154836
0.112597
0.0713585
0.0237967
-0.0267749
-0.0818881
-0.141008
-0.204308
-0.271599
-0.342572
-0.416552
-0.49236
-0.568164
-0.641506
-0.709543
-0.76955
-0.81952
-0.858646
-0.887415
-0.907472
-0.922389
-0.936085
0.110566
0.0668095
0.0231991
-0.0260947
-0.0783112
-0.134732
-0.194838
-0.258731
-0.326131
-0.396594
-0.469265
-0.542758
-0.615096
-0.683824
-0.746356
-0.800478
-0.844847
-0.879296
-0.904726
-0.922888
-0.937135
-0.950827
0.0691396
0.0243906
-0.0209348
-0.0712773
-0.124409
-0.181359
-0.241629
-0.30523
-0.371784
-0.440698
-0.510934
-0.580943
-0.648681
-0.711825
-0.768167
-0.816072
-0.854841
-0.884831
-0.907204
-0.923677
-0.937299
-0.950886
0.0313459
-0.0138914
-0.0602988
-0.111067
-0.164456
-0.221245
-0.280951
-0.343482
-0.408344
-0.474785
-0.541603
-0.607137
-0.66938
-0.726262
-0.776048
-0.817708
-0.851115
-0.87701
-0.896673
-0.911677
-0.92471
-0.938079
-0.00404936
-0.0493427
-0.0962524
-0.146863
-0.19988
-0.255837
-0.314258
-0.374931
-0.437235
-0.500264
-0.562686
-0.622814
-0.678793
-0.728923
-0.772008
-0.807593
-0.836015
-0.858247
-0.875551
-0.889276
-0.901718
-0.914728
-0.0356369
-0.0805644
-0.127438
-0.177378
-0.229482
-0.284045
-0.340581
-0.398747
-0.457792
-0.516675
-0.573994
-0.628131
-0.677496
-0.720834
-0.757487
-0.787492
-0.811504
-0.830582
-0.845866
-0.858437
-0.870191
-0.882577
-0.00273244
-0.0474497
-0.0942152
-0.144093
-0.196208
-0.250819
-0.307436
-0.365681
-0.424776
-0.483643
-0.540851
-0.59477
-0.643817
-0.686767
-0.723
-0.752588
-0.77621
-0.794934
-0.8099
-0.822185
-0.833652
-0.845724
0.0286822
-0.0164092
-0.0632164
-0.113741
-0.166737
-0.222697
-0.281145
-0.341842
-0.40414
-0.467096
-0.529344
-0.589177
-0.644742
-0.694368
-0.736904
-0.771945
-0.799867
-0.821661
-0.838591
-0.851996
-0.864128
-0.876802
0.0636601
0.0186186
-0.0277001
-0.0783632
-0.131706
-0.188456
-0.248141
-0.310644
-0.375447
-0.441764
-0.508354
-0.57353
-0.635275
-0.691544
-0.740651
-0.781629
-0.814408
-0.839763
-0.858982
-0.873628
-0.886334
-0.899354
0.100756
0.0561948
0.0109327
-0.0392952
-0.0923626
-0.149241
-0.209448
-0.272975
-0.339423
-0.408167
-0.478132
-0.547731
-0.614905
-0.677344
-0.732887
-0.779972
-0.817978
-0.847311
-0.869158
-0.885228
-0.898506
-0.91174
0.141188
0.0976117
0.0540291
0.00485071
-0.0472937
-0.103621
-0.163635
-0.227416
-0.294673
-0.364932
-0.437299
-0.510352
-0.582083
-0.65004
-0.711677
-0.764856
-0.808326
-0.841996
-0.866807
-0.884513
-0.8984
-0.911743
0.184168
0.142099
0.100841
0.0533834
0.00287885
-0.0521334
-0.111143
-0.174309
-0.241432
-0.312178
-0.385841
-0.461197
-0.536379
-0.608915
-0.675993
-0.73496
-0.78391
-0.822135
-0.850189
-0.869732
-0.884274
-0.897631
0.230084
0.190083
0.151801
0.106752
0.058608
0.00568144
-0.0515125
-0.113196
-0.179252
-0.249469
-0.323317
-0.399792
-0.477233
-0.553254
-0.624911
-0.689134
-0.743379
-0.786247
-0.817752
-0.839324
-0.854576
-0.867862
0.278176
0.24082
0.206143
0.164215
0.119173
0.0691424
0.0146207
-0.0446626
-0.108667
-0.177284
-0.250152
-0.326486
-0.404872
-0.483109
-0.558247
-0.626932
-0.686043
-0.73345
-0.768504
-0.792242
-0.808246
-0.821363
0.328167
0.294039
0.263544
0.225432
0.1842
0.137855
0.0868398
0.0308551
-0.0301316
-0.0961012
-0.166837
-0.241769
-0.319751
-0.398834
-0.476194
-0.548328
-0.611648
-0.663294
-0.701866
-0.727842
-0.744609
-0.757438
0.379114
0.348802
0.32298
0.289366
0.252613
0.210725
0.164039
0.112244
0.0552356
-0.00704329
-0.0745033
-0.14677
-0.222967
-0.301449
-0.379615
-0.453974
-0.520592
-0.575952
-0.617833
-0.646019
-0.663503
-0.675878
0.430264
0.404359
0.383572
0.35509
0.323404
0.286679
0.245085
0.198318
0.146202
0.0886134
0.0255303
-0.0428465
-0.115898
-0.192307
-0.269783
-0.344975
-0.413774
-0.472093
-0.516893
-0.547132
-0.565215
-0.576902
0.480509
0.459635
0.444084
0.42132
0.395215
0.364294
0.328502
0.28755
0.241194
0.189246
0.131589
0.0682736
-0.000317998
-0.0731959
-0.148434
-0.222948
-0.29261
-0.352909
-0.400026
-0.432018
-0.450488
-0.461164
0.528819
0.513649
0.503302
0.486738
0.466592
0.441951
0.412511
0.377987
0.33808
0.292543
0.241183
0.183928
0.120962
0.0529745
-0.0184853
-0.0906818
-0.159632
-0.22058
-0.269054
-0.302208
-0.320669
-0.329868
0.574438
0.566015
0.560448
0.550314
0.536342
0.518269
0.495628
0.468097
0.435332
0.397018
0.352879
0.302721
0.24654
0.184737
0.118474
0.0500828
-0.0167058
-0.0770261
-0.12585
-0.159462
-0.177371
-0.184419
0.612979
0.614012
0.613396
0.610424
0.603714
0.593248
0.57855
0.559212
0.534835
0.505029
0.46943
0.427717
0.379685
0.325408
0.265574
0.20198
0.137995
0.078585
0.0294726
-0.00455251
-0.0217494
-0.0262936
0.648885
0.661434
0.663806
0.66516
0.663398
0.658188
0.649121
0.635765
0.617716
0.594579
0.565985
0.531595
0.491158
0.444645
0.392559
0.336398
0.279149
0.225414
0.180707
0.149857
0.135148
0.133167
0.696383
0.713978
0.719356
0.724775
0.727154
0.726316
0.721914
0.713539
0.700825
0.683419
0.660995
0.633264
0.600029
0.561309
0.517615
0.470353
0.42221
0.377224
0.340145
0.315116
0.304414
0.305582
0.747589
0.770251
0.780023
0.790174
0.797539
0.801961
0.803125
0.800624
0.794097
0.783195
0.767592
0.746996
0.721197
0.690198
0.654454
0.615242
0.574997
0.537368
0.506644
0.486586
0.479626
0.484016
0.804514
0.83129
0.845376
0.860027
0.87217
0.881616
0.888072
0.891147
0.890495
0.885784
0.876704
0.862979
0.84442
0.821029
0.793227
0.762163
0.729996
0.699943
0.67576
0.660761
0.65743
0.664586
0.864121
0.894715
0.913557
0.932988
0.950217
0.964994
0.977042
0.985973
0.991441
0.993116
0.990686
0.983877
0.972492
0.956521
0.936327
0.912924
0.888219
0.865048
0.84672
0.836184
0.835993
0.845473
0.926041
0.960158
0.983709
1.00776
1.0299
1.04981
1.06722
1.08175
1.09307
1.10083
1.10474
1.10452
1.09997
1.09106
1.0781
1.06197
1.04431
1.0276
1.01473
1.0083
1.01091
1.02231
0.988168
1.02549
1.0537
1.08233
1.10931
1.13428
1.15698
1.17701
1.19403
1.20771
1.21774
1.22383
1.22579
1.22355
1.21737
1.20796
1.19676
1.1859
1.17788
1.17504
1.18001
1.19297
1.04913
1.08935
1.12203
1.15497
1.18651
1.21624
1.24388
1.26904
1.29139
1.31057
1.32628
1.33823
1.3462
1.35011
1.35013
1.34687
1.34152
1.33593
1.33224
1.33256
1.33955
1.35375
1.10699
1.14978
1.18661
1.22358
1.25936
1.29352
1.32576
1.35569
1.38296
1.40723
1.42816
1.44547
1.45892
1.46841
1.47404
1.47629
1.47615
1.4752
1.4753
1.47832
1.48699
1.50215
1.16023
1.20525
1.24581
1.28641
1.32599
1.36412
1.40047
1.43466
1.46632
1.4951
1.52068
1.54274
1.56105
1.57546
1.58601
1.59309
1.5975
1.60057
1.60392
1.60925
1.61931
1.63521
1.20708
1.25398
1.29779
1.34156
1.38445
1.42604
1.46597
1.50386
1.53934
1.57205
1.60164
1.62781
1.6503
1.66893
1.68371
1.6949
1.70316
1.70963
1.71571
1.72294
1.73411
1.75059
1.24654
1.29497
1.34145
1.38784
1.43346
1.47789
1.52077
1.56171
1.60032
1.63625
1.66914
1.69868
1.72459
1.74668
1.7649
1.77944
1.79084
1.80006
1.80834
1.81709
1.82914
1.84604
1.27684
1.32643
1.37499
1.42342
1.47117
1.51783
1.56303
1.60635
1.64742
1.68586
1.72133
1.75349
1.78206
1.80683
1.82771
1.84484
1.85865
1.86998
1.87993
1.88984
1.90254
1.91976
1.29856
1.34895
1.39892
1.44872
1.4979
1.54605
1.59276
1.63766
1.68036
1.72046
1.75763
1.79153
1.82186
1.84841
1.87107
1.88992
1.90533
1.91807
1.92915
1.93983
1.95296
1.97038
1.3084
1.35921
1.40993
1.46051
1.5105
1.55949
1.6071
1.65293
1.69657
1.73766
1.77582
1.81074
1.8421
1.86967
1.89335
1.91317
1.92949
1.94302
1.95472
1.96583
1.9792
1.99675
-0.0318607
-0.0604162
-0.0854429
-0.109204
-0.131303
-0.151985
-0.171362
-0.189666
-0.206807
-0.223086
-0.23793
-0.252067
-0.263489
-0.275476
-0.28006
-0.294928
-0.316308
-0.32604
-0.332676
-0.33597
-0.337523
-0.338115
-0.338325
-0.338466
-0.338615
-0.33895
-0.339352
-0.34019
-0.340754
-0.342047
-0.075739
-0.103148
-0.126801
-0.148985
-0.169415
-0.188376
-0.205984
-0.22258
-0.237967
-0.252644
-0.265719
-0.278341
-0.287979
-0.298308
-0.30251
-0.314015
-0.331653
-0.339296
-0.344379
-0.346401
-0.346739
-0.34613
-0.345226
-0.344375
-0.343691
-0.343328
-0.343208
-0.343622
-0.343968
-0.344987
-0.121924
-0.148377
-0.170784
-0.191459
-0.210223
-0.227389
-0.243088
-0.257721
-0.271031
-0.283627
-0.294443
-0.304925
-0.312109
-0.320357
-0.321733
-0.330506
-0.343537
-0.348481
-0.35145
-0.352205
-0.351881
-0.350934
-0.349766
-0.348608
-0.347589
-0.346896
-0.34651
-0.346678
-0.346887
-0.347756
-0.170637
-0.195535
-0.216132
-0.234729
-0.251254
-0.266035
-0.279224
-0.291253
-0.301875
-0.311734
-0.31984
-0.327649
-0.33251
-0.338461
-0.338483
-0.344887
-0.353871
-0.35695
-0.358587
-0.358515
-0.35755
-0.356042
-0.354352
-0.352715
-0.351288
-0.350257
-0.349628
-0.349593
-0.349694
-0.350473
-0.221328
-0.24439
-0.262882
-0.279067
-0.29298
-0.304948
-0.315163
-0.324072
-0.331506
-0.338115
-0.343112
-0.347881
-0.350211
-0.353715
-0.352268
-0.35643
-0.361996
-0.363478
-0.363913
-0.363125
-0.3617
-0.359869
-0.357904
-0.356012
-0.354361
-0.35314
-0.352374
-0.352222
-0.352267
-0.353024
-0.274031
-0.294742
-0.310591
-0.32379
-0.334471
-0.342979
-0.349574
-0.354735
-0.358443
-0.361368
-0.36301
-0.364631
-0.364551
-0.365788
-0.363286
-0.365524
-0.36854
-0.368904
-0.368513
-0.367213
-0.365399
-0.36325
-0.361007
-0.358877
-0.357039
-0.355675
-0.354817
-0.354596
-0.354615
-0.355397
-0.328227
-0.346037
-0.358671
-0.36828
-0.375109
-0.379547
-0.381968
-0.382927
-0.382594
-0.381678
-0.379962
-0.378557
-0.376237
-0.375422
-0.372012
-0.372624
-0.373807
-0.373307
-0.372254
-0.370527
-0.368392
-0.365994
-0.363547
-0.361253
-0.359296
-0.357847
-0.356942
-0.356694
-0.356717
-0.357563
-0.383404
-0.39763
-0.406356
-0.411683
-0.413996
-0.413789
-0.411591
-0.408075
-0.403613
-0.398946
-0.394084
-0.389961
-0.385688
-0.383127
-0.378967
-0.378249
-0.378168
-0.377004
-0.37543
-0.373337
-0.370914
-0.368289
-0.365666
-0.36324
-0.361196
-0.359696
-0.358772
-0.358526
-0.358573
-0.359515
-0.438667
-0.448542
-0.452632
-0.453018
-0.450269
-0.445037
-0.438038
-0.430072
-0.421678
-0.413595
-0.405961
-0.399514
-0.393583
-0.389547
-0.384709
-0.382893
-0.381914
-0.380179
-0.378148
-0.375714
-0.373019
-0.370188
-0.367411
-0.364881
-0.362775
-0.361245
-0.360321
-0.360096
-0.360182
-0.361244
-0.492857
-0.4976
-0.496388
-0.491323
-0.483189
-0.472835
-0.461152
-0.449038
-0.437126
-0.426102
-0.416139
-0.407771
-0.400451
-0.395168
-0.389685
-0.386936
-0.385263
-0.382997
-0.380535
-0.377762
-0.374801
-0.37177
-0.36885
-0.366227
-0.364071
-0.362523
-0.361607
-0.361413
-0.361546
-0.362748
-0.544573
-0.543526
-0.536555
-0.525809
-0.512299
-0.497055
-0.481095
-0.46535
-0.450466
-0.437023
-0.425161
-0.415223
-0.406728
-0.400366
-0.394233
-0.390652
-0.388369
-0.385573
-0.382679
-0.379558
-0.376325
-0.373092
-0.370031
-0.367319
-0.365115
-0.363551
-0.362646
-0.362487
-0.362671
-0.364025
-0.592371
-0.585163
-0.572315
-0.556028
-0.537499
-0.517887
-0.498259
-0.479507
-0.46222
-0.446842
-0.433448
-0.422216
-0.412703
-0.405374
-0.398575
-0.394217
-0.391332
-0.387988
-0.384645
-0.38116
-0.377643
-0.374201
-0.370995
-0.36819
-0.365935
-0.36435
-0.363452
-0.363327
-0.363559
-0.36507
-0.63503
-0.621698
-0.60326
-0.581934
-0.559031
-0.53576
-0.513158
-0.492023
-0.472844
-0.455932
-0.441288
-0.428964
-0.418539
-0.410317
-0.402837
-0.397724
-0.394206
-0.390289
-0.386475
-0.382608
-0.378794
-0.375133
-0.371771
-0.368864
-0.366549
-0.364937
-0.364039
-0.363942
-0.364217
-0.36588
-0.671791
-0.652815
-0.629444
-0.603854
-0.577384
-0.551221
-0.526313
-0.50334
-0.482682
-0.464536
-0.448842
-0.435562
-0.424297
-0.415231
-0.407064
-0.401205
-0.397008
-0.392496
-0.388189
-0.383925
-0.379802
-0.375909
-0.37238
-0.36936
-0.366973
-0.365324
-0.364417
-0.364339
-0.36465
-0.366451
-0.702497
-0.678717
-0.651315
-0.622363
-0.59316
-0.564816
-0.538171
-0.513786
-0.491951
-0.472777
-0.456166
-0.442019
-0.429963
-0.420092
-0.411245
-0.404647
-0.399726
-0.394604
-0.38979
-0.385119
-0.380676
-0.37654
-0.372834
-0.369686
-0.367217
-0.365519
-0.364595
-0.36453
-0.364867
-0.366778
-0.727561
-0.700017
-0.669565
-0.638135
-0.606944
-0.577006
-0.549057
-0.523565
-0.500755
-0.480685
-0.463238
-0.448286
-0.435474
-0.424832
-0.415326
-0.408001
-0.402325
-0.396591
-0.391266
-0.386184
-0.381417
-0.37703
-0.373134
-0.369848
-0.367283
-0.365528
-0.36458
-0.364522
-0.364881
-0.366865
-0.747808
-0.717556
-0.684967
-0.651816
-0.619228
-0.588131
-0.559178
-0.532777
-0.509115
-0.488227
-0.469995
-0.454275
-0.440738
-0.429358
-0.419225
-0.411197
-0.404756
-0.398424
-0.392594
-0.387107
-0.382016
-0.377375
-0.37328
-0.369845
-0.367174
-0.365353
-0.364378
-0.364326
-0.364708
-0.366724
-0.764259
-0.732228
-0.698244
-0.663947
-0.630382
-0.598413
-0.568642
-0.541447
-0.517002
-0.49534
-0.476353
-0.459895
-0.44566
-0.433578
-0.422857
-0.414161
-0.406967
-0.400064
-0.39375
-0.387873
-0.382464
-0.377566
-0.373268
-0.369674
-0.366888
-0.364995
-0.363992
-0.363952
-0.36437
-0.36638
-0.777865
-0.744773
-0.70993
-0.674873
-0.640597
-0.607928
-0.577445
-0.54952
-0.524332
-0.501924
-0.482206
-0.465039
-0.450139
-0.437398
-0.426131
-0.416816
-0.408908
-0.401476
-0.394711
-0.388467
-0.382753
-0.377603
-0.373097
-0.369338
-0.366429
-0.36446
-0.363433
-0.363417
-0.363895
-0.365879
-0.789431
-0.755761
-0.720384
-0.684788
-0.649942
-0.616658
-0.585514
-0.556889
-0.530982
-0.507852
-0.487429
-0.469588
-0.454062
-0.440713
-0.42895
-0.419082
-0.410529
-0.402628
-0.39546
-0.388881
-0.382883
-0.377489
-0.372775
-0.368846
-0.365809
-0.363761
-0.362714
-0.362739
-0.363318
-0.365291
-0.800488
-0.766473
-0.730655
-0.694548
-0.659119
-0.625183
-0.593329
-0.563954
-0.537281
-0.513389
-0.492234
-0.473703
-0.45755
-0.44361
-0.431366
-0.420989
-0.411866
-0.403544
-0.396008
-0.389114
-0.382835
-0.377187
-0.372248
-0.368125
-0.364938
-0.362797
-0.361731
-0.361825
-0.362584
-0.364684
-0.812213
-0.777891
-0.741552
-0.704835
-0.668719
-0.634027
-0.601366
-0.571155
-0.543637
-0.518918
-0.496973
-0.477708
-0.460894
-0.446358
-0.433615
-0.422726
-0.413062
-0.404319
-0.396417
-0.3892
-0.38262
-0.376691
-0.37149
-0.367137
-0.363767
-0.361509
-0.360417
-0.360606
-0.36163
-0.364132
0.257586
0.257526
0.25753
0.257528
0.257552
0.257585
0.257636
0.257703
0.257792
0.257903
0.258038
0.258196
0.258378
0.25858
0.258803
0.259042
0.259297
0.259567
0.259849
0.260142
0.260445
0.260758
0.261079
0.261409
0.258017
0.257955
0.257959
0.257957
0.257983
0.258019
0.258074
0.258147
0.258244
0.258364
0.258509
0.258679
0.258873
0.259089
0.259325
0.259579
0.259849
0.260133
0.26043
0.260738
0.261057
0.261386
0.261724
0.26207
0.258425
0.258361
0.258365
0.258363
0.258391
0.258429
0.258489
0.258569
0.258673
0.258803
0.258959
0.259141
0.259348
0.259578
0.259828
0.260097
0.260382
0.260682
0.260994
0.261319
0.261654
0.262
0.262354
0.262717
0.258809
0.258743
0.258747
0.258746
0.258775
0.258816
0.258881
0.258968
0.259081
0.25922
0.259388
0.259583
0.259804
0.260048
0.260313
0.260597
0.260898
0.261213
0.261542
0.261883
0.262235
0.262597
0.262969
0.263349
0.259168
0.2591
0.259105
0.259104
0.259135
0.25918
0.25925
0.259343
0.259465
0.259616
0.259795
0.260004
0.260239
0.260497
0.260778
0.261078
0.261395
0.261727
0.262072
0.26243
0.262799
0.263179
0.263568
0.263966
0.259503
0.259434
0.259438
0.259438
0.259471
0.259519
0.259595
0.259696
0.259827
0.259988
0.260181
0.260403
0.260652
0.260927
0.261223
0.261539
0.261873
0.262222
0.262585
0.26296
0.263347
0.263744
0.264151
0.264568
0.259813
0.259743
0.259747
0.259747
0.259782
0.259834
0.259915
0.260024
0.260165
0.260338
0.260544
0.26078
0.261045
0.261335
0.261648
0.261981
0.262332
0.262698
0.263078
0.263472
0.263876
0.264292
0.264718
0.265153
0.260098
0.260026
0.260031
0.260031
0.260069
0.260125
0.260212
0.260329
0.26048
0.260665
0.260884
0.261135
0.261416
0.261723
0.262053
0.262403
0.262771
0.263155
0.263554
0.263965
0.264388
0.264823
0.265268
0.265722
0.260357
0.260285
0.260289
0.260291
0.260331
0.26039
0.260484
0.260609
0.260771
0.260969
0.261202
0.261468
0.261765
0.262089
0.262436
0.262804
0.26319
0.263593
0.264009
0.264439
0.264882
0.265335
0.2658
0.266274
0.260591
0.260518
0.260523
0.260525
0.260567
0.260632
0.260732
0.260866
0.261038
0.261249
0.261497
0.261779
0.262092
0.262433
0.262798
0.263185
0.263589
0.26401
0.264446
0.264895
0.265356
0.26583
0.266314
0.266808
0.2608
0.260726
0.260732
0.260735
0.260779
0.260848
0.260955
0.261098
0.261282
0.261506
0.261769
0.262067
0.262397
0.262756
0.263139
0.263544
0.263967
0.264407
0.264862
0.26533
0.265812
0.266305
0.266809
0.267324
0.260983
0.26091
0.260915
0.26092
0.260967
0.26104
0.261154
0.261306
0.261502
0.26174
0.262018
0.262332
0.26268
0.263057
0.263459
0.263882
0.264324
0.264783
0.265258
0.265746
0.266247
0.266761
0.267285
0.267822
0.261141
0.261068
0.261074
0.26108
0.26113
0.261208
0.261329
0.261491
0.261699
0.26195
0.262244
0.262575
0.262941
0.263336
0.263756
0.264198
0.26466
0.265138
0.265632
0.266141
0.266662
0.267196
0.267742
0.2683
0.261274
0.261202
0.261208
0.261216
0.261269
0.261352
0.26148
0.261652
0.261872
0.262138
0.262447
0.262796
0.263179
0.263592
0.264031
0.264493
0.264974
0.265472
0.265986
0.266514
0.267056
0.267611
0.268179
0.268758
0.261382
0.261312
0.261318
0.261328
0.261383
0.261472
0.261608
0.26179
0.262022
0.262302
0.262627
0.262993
0.263395
0.263826
0.264285
0.264765
0.265266
0.265784
0.266318
0.266867
0.267429
0.268005
0.268594
0.269196
0.261466
0.261397
0.261405
0.261416
0.261475
0.261569
0.261712
0.261905
0.26215
0.262444
0.262786
0.263168
0.263588
0.264038
0.264515
0.265016
0.265536
0.266073
0.266627
0.267197
0.26778
0.268378
0.268988
0.269612
0.261526
0.26146
0.261468
0.261481
0.261543
0.261643
0.261794
0.261997
0.262255
0.262564
0.262921
0.263321
0.263759
0.264228
0.264724
0.265243
0.265783
0.26634
0.266914
0.267504
0.268109
0.268728
0.26936
0.270006
0.261563
0.261499
0.261508
0.261524
0.26159
0.261695
0.261854
0.262067
0.262338
0.262661
0.263035
0.263452
0.263907
0.264395
0.26491
0.265448
0.266007
0.266584
0.267178
0.267788
0.268414
0.269054
0.269709
0.270378
0.261577
0.261517
0.261527
0.261545
0.261614
0.261725
0.261892
0.262116
0.262399
0.262738
0.263127
0.263561
0.264034
0.264539
0.265073
0.26563
0.266208
0.266804
0.267418
0.268049
0.268695
0.269357
0.270033
0.270725
0.26157
0.261512
0.261524
0.261545
0.261618
0.261734
0.26191
0.262144
0.26244
0.262792
0.263197
0.263648
0.264138
0.264661
0.265213
0.265788