/*--------------------------------*- C++ -*----------------------------------*\
| =========                 |                                                 |
| \\      /  F ield         | OpenFOAM Extend Project: Open source CFD        |
|  \\    /   O peration     | Version:  1.6-ext                               |
|   \\  /    A nd           | Web:      www.extend-project.de                 |
|    \\/     M anipulation  |                                                 |
\*---------------------------------------------------------------------------*/
FoamFile
{
    version     2.0;
    format      ascii;
    class       surfaceScalarField;
    location    "0.45";
    object      phi;
}
// * * * * * * * * * * * * * * * * * * * * * * * * * * * * * * * * * * * * * //

dimensions      [0 3 -1 0 0 0 0];

internalField   nonuniform List<scalar> 
41420
(
-0.000125079
0.000398033
-0.000398661
0.000125707
-0.000123993
0.00037919
-0.000380276
-0.000122483
0.000360677
-0.000362188
-0.000120548
0.000342399
-0.000344333
-0.000118131
0.00032436
-0.000326778
-0.000115086
0.000306358
-0.000309403
-0.000111179
0.00028805
-0.000291957
-0.00010612
0.000268968
-0.000274027
-9.9631e-05
0.000248621
-0.00025511
-9.1548e-05
0.00022665
-0.000234733
-8.19119e-05
0.000202977
-0.000212613
-7.10162e-05
0.000177906
-0.000188801
-5.93785e-05
0.000152106
-0.000163744
-4.76516e-05
0.000126496
-0.000138223
-3.64946e-05
0.000102051
-0.000113208
-2.64643e-05
7.96233e-05
-8.96537e-05
-1.79428e-05
5.9811e-05
-6.83325e-05
-1.11246e-05
4.29195e-05
-4.97377e-05
-6.0401e-06
2.89855e-05
-3.407e-05
-2.60144e-06
1.78412e-05
-2.12799e-05
-6.5084e-07
9.18969e-06
-1.11403e-05
2.67298e-06
-3.32382e-06
-0.000132694
0.000397251
0.000133476
-0.000131431
0.000377927
-0.000129706
0.000358952
-0.000127486
0.000340179
-0.000124662
0.000321536
-0.000121027
0.000302724
-0.000116301
0.000283323
-0.000110178
0.000262845
-0.000102431
0.000240874
-9.30069e-05
0.000217225
-8.2099e-05
0.000192069
-7.01536e-05
0.00016596
-5.77981e-05
0.000139751
-4.57212e-05
0.000114419
-3.45473e-05
9.08775e-05
-2.47456e-05
6.98215e-05
-1.65926e-05
5.16581e-05
-1.01844e-05
3.65112e-05
-5.47584e-06
2.4277e-05
-2.33171e-06
1.46971e-05
-5.70592e-07
7.42857e-06
2.10239e-06
-0.000147396
0.00039582
0.000148828
-0.000145458
0.000375989
-0.000143007
0.000356501
-0.000139958
0.000337129
-0.000136135
0.000317713
-0.000131265
0.000297854
-0.000125027
0.000277086
-0.000117142
0.000254959
-0.000107474
0.000231207
-9.61328e-05
0.000205884
-8.34968e-05
0.000179433
-7.01707e-05
0.000152634
-5.68716e-05
0.000126451
-4.42921e-05
0.000101839
-3.29891e-05
7.95745e-05
-2.33238e-05
6.01563e-05
-1.54583e-05
4.37926e-05
-9.38942e-06
3.04424e-05
-5.00005e-06
1.98876e-05
-2.1088e-06
1.18058e-05
-5.09898e-07
5.82967e-06
1.59249e-06
-0.000161497
0.000393767
0.00016355
-0.000158888
0.00037338
-0.000155671
0.000353284
-0.00015169
0.000333148
-0.000146692
0.000312715
-0.000140349
0.00029151
-0.000132338
0.000269075
-0.000122457
0.000245079
-0.000110731
0.000219481
-9.74707e-05
0.000192623
-8.32473e-05
0.00016521
-6.87931e-05
0.00013818
-5.48597e-05
0.000112518
-4.2087e-05
8.90667e-05
-3.09222e-05
6.84097e-05
-2.15988e-05
5.0833e-05
-1.41627e-05
3.63564e-05
-8.52162e-06
2.48013e-05
-4.49959e-06
1.58656e-05
-1.88265e-06
9.1889e-06
-4.51217e-07
4.39823e-06
1.14128e-06
-0.000174276
0.000391143
0.0001769
-0.000171007
0.000370111
-0.000166973
0.00034925
-0.000161931
0.000328106
-0.000155556
0.00030634
-0.000147493
0.000283447
-0.00013748
0.000259062
-0.000125465
0.000233063
-0.000111686
0.000205702
-9.66749e-05
0.000177612
-8.11697e-05
0.000149704
-6.59708e-05
0.000122981
-5.1796e-05
9.83432e-05
-3.9178e-05
7.64487e-05
-2.84252e-05
5.76568e-05
-1.96373e-05
4.20451e-05
-1.27537e-05
2.94728e-05
-7.6097e-06
1.96573e-05
-3.98812e-06
1.2244e-05
-1.65692e-06
6.85771e-06
-3.93969e-07
3.13528e-06
7.47309e-07
-0.000185659
0.00038798
0.000188822
-0.000181694
0.000366145
-0.000176719
0.000344276
-0.000170403
0.00032179
-0.000162377
0.000298314
-0.000152323
0.000273393
-0.000140118
0.000246858
-0.000125929
0.000218875
-0.000110243
0.000190016
-9.37941e-05
0.000161163
-7.74238e-05
0.000133334
-6.19234e-05
0.000107481
-4.79097e-05
8.43295e-05
-3.57683e-05
6.43073e-05
-2.56572e-05
4.75457e-05
-1.75515e-05
3.39394e-05
-1.13028e-05
2.3224e-05
-6.69446e-06
1.5049e-05
-3.48539e-06
9.03491e-06
-1.43899e-06
4.8113e-06
-3.39639e-07
2.03593e-06
4.0767e-07
-0.000195436
0.000384247
0.00019917
-0.000190659
0.000361368
-0.000184534
0.000338151
-0.000176661
0.000313918
-0.000166687
0.000288339
-0.000154415
0.000261121
-0.000139945
0.000232387
-0.000123712
0.000202642
-0.000106441
0.000172746
-8.90096e-05
0.000143731
-7.22752e-05
0.0001166
-5.69384e-05
9.21439e-05
-4.34633e-05
7.08544e-05
-3.20698e-05
5.29138e-05
-2.27734e-05
3.82493e-05
-1.54455e-05
2.66115e-05
-9.87376e-06
1.76523e-05
-5.81092e-06
1.09861e-05
-3.00812e-06
6.23211e-06
-1.23506e-06
3.03823e-06
-2.89517e-07
1.09039e-06
1.18153e-07
-0.000203398
0.000379866
0.000207778
-0.000197618
0.000355587
-0.000190056
0.000330589
-0.000180303
0.000304165
-0.00016811
0.000276146
-0.000153502
0.000246513
-0.000136865
0.000215751
-0.000118909
0.000184686
-0.000100537
0.000154374
-8.26744e-05
0.000125868
-6.61008e-05
0.000100026
-5.13602e-05
7.74033e-05
-3.87373e-05
5.82315e-05
-2.82911e-05
4.24677e-05
-1.9917e-05
2.98751e-05
-1.341e-05
2.01046e-05
-8.5197e-06
1.2762e-05
-4.98718e-06
7.45363e-06
-2.56917e-06
3.8141e-06
-1.04973e-06
1.51879e-06
-2.44511e-07
2.85173e-07
-1.26358e-07
-0.000209191
0.000374622
0.000214435
-0.000202111
0.000348508
-0.000192776
0.000321253
-0.000180854
0.000292243
-0.000166306
0.000261598
-0.000149451
0.000229659
-0.00013098
0.000197279
-0.000111819
0.000165525
-9.29534e-05
0.000135509
-7.52462e-05
0.000108161
-5.93233e-05
8.41032e-05
-4.55367e-05
6.36168e-05
-3.39929e-05
4.66876e-05
-2.46138e-05
3.30886e-05
-1.72054e-05
2.24667e-05
-1.15163e-05
1.44155e-05
-7.28038e-06
8.52602e-06
-4.24338e-06
4.41662e-06
-2.17729e-06
1.74802e-06
-8.85908e-07
2.27413e-07
-2.05108e-07
-3.95627e-07
-3.31466e-07
-0.000212491
0.000368298
0.000218815
-0.00020379
0.000339807
-0.000192371
0.000309835
-0.000178104
0.000277976
-0.000161252
0.000244745
-0.000142467
0.000210875
-0.000122695
0.000177507
-0.000102977
0.000145806
-8.42583e-05
0.00011679
-6.72492e-05
9.1152e-05
-5.23749e-05
6.92289e-05
-3.97934e-05
5.10353e-05
-2.94573e-05
3.63515e-05
-2.11859e-05
2.48173e-05
-1.47295e-05
1.60103e-05
-9.81647e-06
9.50249e-06
-6.1837e-06
4.89325e-06
-3.59305e-06
1.82598e-06
-1.83819e-06
-6.84545e-09
-7.45453e-07
-8.65324e-07
-1.71639e-07
-9.69441e-07
-5.03104e-07
-0.000212778
0.000360462
0.000220614
-0.000202116
0.000329145
-0.000188421
0.00029614
-0.000171862
0.000261416
-0.000153043
0.000225926
-0.000132906
0.000190738
-0.000112543
0.000157144
-9.29793e-05
0.000126243
-7.50159e-05
9.88264e-05
-5.91557e-05
7.52918e-05
-4.56148e-05
5.5688e-05
-3.43821e-05
3.98026e-05
-2.52948e-05
2.72642e-05
-1.81078e-05
1.76303e-05
-1.25465e-05
1.0449e-05
-8.34085e-06
5.29683e-06
-5.24438e-06
1.79678e-06
-3.04254e-06
-3.75862e-07
-1.55408e-06
-1.49531e-06
-6.28827e-07
-1.79057e-06
-1.44064e-07
-1.4542e-06
-6.47169e-07
-0.000209966
0.000350976
0.000219452
-0.00019717
0.000316349
-0.000181211
0.000280181
-0.000162641
0.000242846
-0.000142388
0.000205673
-0.00012159
0.00016994
-0.000101352
0.000136906
-8.25692e-05
0.000107461
-6.58298e-05
8.2087e-05
-5.14141e-05
6.08761e-05
-3.93517e-05
4.36256e-05
-2.95012e-05
2.9952e-05
-2.16248e-05
1.93878e-05
-1.5447e-05
1.14524e-05
-1.06921e-05
5.69419e-06
-7.10707e-06
1.71178e-06
-4.47053e-06
-8.39758e-07
-2.59538e-06
-2.25101e-06
-1.32651e-06
-2.76418e-06
-5.36789e-07
-2.58029e-06
-1.2272e-07
-1.86827e-06
-7.69889e-07
-0.000203521
0.000339311
0.000215186
-0.000188559
0.000301387
-0.000170632
0.000262255
-0.000150643
0.000222857
-0.000129731
0.000184761
-0.000109083
0.000149292
-8.96863e-05
0.00011751
-7.22266e-05
9.00009e-05
-5.70587e-05
6.6919e-05
-4.42625e-05
4.80799e-05
-3.37248e-05
3.30879e-05
-2.52195e-05
2.14467e-05
-1.84726e-05
1.26409e-05
-1.32049e-05
6.18476e-06
-9.15775e-06
1.64701e-06
-6.10425e-06
-1.34172e-06
-3.85278e-06
-3.09123e-06
-2.24499e-06
-3.85881e-06
-1.15157e-06
-3.8576e-06
-4.67367e-07
-3.26449e-06
-1.06871e-07
-2.22877e-06
-8.7676e-07
-0.000194056
0.00032595
0.000207417
-0.000177239
0.00028457
-0.000157827
0.000242843
-0.000137103
0.000202132
-0.000116265
0.000163923
-9.64315e-05
0.000129458
-7.83843e-05
9.94627e-05
-6.25661e-05
7.41827e-05
-4.91155e-05
5.34685e-05
-3.7954e-05
3.69184e-05
-2.8872e-05
2.40059e-05
-2.15999e-05
1.41747e-05
-1.58565e-05
6.89747e-06
-1.13776e-05
1.70587e-06
-7.93068e-06
-1.79991e-06
-5.31914e-06
-3.95326e-06
-3.3812e-06
-5.02917e-06
-1.98583e-06
-5.25418e-06
-1.02758e-06
-4.81586e-06
-4.21297e-07
-3.87077e-06
-9.77442e-08
-2.55232e-06
-9.74505e-07
-0.000181167
0.000310385
0.000196733
-0.000163007
0.00026641
-0.0001429
0.000222736
-0.000122289
0.000181521
-0.000102349
0.000143983
-8.39807e-05
0.00011109
-6.77108e-05
8.31929e-05
-5.37472e-05
6.02191e-05
-4.20595e-05
4.17808e-05
-3.24692e-05
2.7328e-05
-2.47229e-05
1.62596e-05
-1.85452e-05
7.99696e-06
-1.36711e-05
2.02343e-06
-9.86382e-06
-2.10143e-06
-6.92122e-06
-4.7425e-06
-4.67677e-06
-6.19772e-06
-2.99627e-06
-6.70967e-06
-1.77317e-06
-6.47728e-06
-9.23161e-07
-5.66586e-06
-3.79022e-07
-4.41491e-06
-8.63871e-08
-2.84496e-06
-1.06089e-06
-0.000351114
0.000254919
0.00040658
-0.000295829
0.000211124
-0.000243267
0.000170174
-0.000195449
0.000133703
-0.000153577
0.000102111
-0.000118142
7.56551e-05
-8.90172e-05
5.40686e-05
-6.56802e-05
3.6882e-05
-4.73951e-05
2.34957e-05
-3.33618e-05
1.32948e-05
-2.28086e-05
5.70633e-06
-1.50419e-05
2.30334e-07
-9.46677e-06
-3.55174e-06
-5.58699e-06
-5.98121e-06
-2.99668e-06
-7.33281e-06
-1.36708e-06
-7.82732e-06
-4.33005e-07
-7.64374e-06
1.93831e-08
-6.92967e-06
1.62708e-07
-5.80919e-06
1.36438e-07
-4.38864e-06
5.26318e-08
-2.76115e-06
-1.00826e-06
-0.000293494
0.000196528
0.000351885
-0.000239254
0.000156884
-0.000190768
0.000121687
-0.000148949
9.18845e-05
-0.000113965
6.71264e-05
-8.54753e-05
4.71655e-05
-6.28113e-05
3.14046e-05
-4.51534e-05
1.92241e-05
-3.16599e-05
1.00023e-05
-2.15451e-05
3.17998e-06
-1.41177e-05
-1.72107e-06
-8.79305e-06
-5.09435e-06
-5.0892e-06
-7.25559e-06
-2.61557e-06
-8.45484e-06
-1.05854e-06
-8.88985e-06
-1.67368e-07
-8.71849e-06
2.58241e-07
-8.06935e-06
3.78441e-07
-7.04987e-06
3.21308e-07
-5.75206e-06
1.88904e-07
-4.25624e-06
6.14591e-08
-2.6337e-06
-9.46801e-07
-0.000231084
0.000141338
0.000286274
-0.000182563
0.000108363
-0.000141375
8.04995e-05
-0.000107331
5.78402e-05
-7.98892e-05
3.9685e-05
-5.8236e-05
2.55124e-05
-4.14829e-05
1.46515e-05
-2.87578e-05
6.49904e-06
-1.92721e-05
5.16553e-07
-1.23455e-05
-3.74666e-06
-7.41055e-06
-6.65602e-06
-4.00443e-06
-8.50046e-06
-1.7549e-06
-9.50512e-06
-3.65032e-07
-9.84471e-06
4.01077e-07
-9.65596e-06
7.30628e-07
-9.04804e-06
7.72153e-07
-8.11088e-06
6.43395e-07
-6.92111e-06
4.37316e-07
-5.54598e-06
2.26706e-07
-4.04563e-06
6.72898e-08
-2.47429e-06
-8.79511e-07
-0.000171013
9.3728e-05
0.000218622
-0.000130979
6.83291e-05
-9.83842e-05
4.79049e-05
-7.23502e-05
3.18062e-05
-5.20079e-05
1.93427e-05
-3.63969e-05
9.90131e-06
-2.4637e-05
2.89164e-06
-1.59467e-05
-2.19131e-06
-9.6648e-06
-5.76533e-06
-5.2466e-06
-8.16486e-06
-2.25174e-06
-9.65089e-06
-3.2855e-07
-1.04236e-05
8.01802e-07
-1.06355e-05
1.35975e-06
-1.04027e-05
1.51944e-06
-9.81564e-06
1.41846e-06
-8.94706e-06
1.16542e-06
-7.85784e-06
8.4561e-07
-6.6013e-06
5.25256e-07
-5.22562e-06
2.5479e-07
-3.77516e-06
7.12354e-08
-2.29073e-06
-8.08276e-07
-0.000117932
5.5722e-05
0.000155938
-8.71777e-05
3.75745e-05
-6.29554e-05
2.36826e-05
-4.41832e-05
1.30339e-05
-2.99314e-05
5.091e-06
-1.93094e-05
-7.20755e-07
-1.15606e-05
-4.85708e-06
-6.05057e-06
-7.70137e-06
-2.26225e-06
-9.55365e-06
2.19189e-07
-1.06463e-05
1.72306e-06
-1.11548e-05
2.50912e-06
-1.12097e-05
2.78175e-06
-1.09081e-05
2.70163e-06
-1.03226e-05
2.39528e-06
-9.50928e-06
1.96219e-06
-8.51398e-06
1.48049e-06
-7.37614e-06
1.01081e-06
-6.13161e-06
5.99299e-07
-4.81412e-06
2.7977e-07
-3.45563e-06
7.53713e-08
-2.08634e-06
-7.32904e-07
-7.40076e-05
2.73457e-05
0.000102384
-5.18463e-05
1.54132e-05
-3.48988e-05
6.73513e-06
-2.21755e-05
3.10649e-07
-1.28371e-05
-4.24739e-06
-6.15328e-06
-7.40462e-06
-1.52429e-06
-9.48607e-06
1.53583e-06
-1.07615e-05
3.4144e-06
-1.14322e-05
4.41724e-06
-1.16491e-05
4.78426e-06
-1.15218e-05
4.70324e-06
-1.11287e-05
4.321e-06
-1.05259e-05
3.75264e-06
-9.75418e-06
3.08834e-06
-8.84499e-06
2.39881e-06
-7.82445e-06
1.73891e-06
-6.71623e-06
1.15066e-06
-5.54336e-06
6.65044e-07
-4.3285e-06
3.03766e-07
-3.09435e-06
8.0087e-08
-1.86266e-06
-6.52817e-07
-3.92656e-05
7.39142e-06
5.92199e-05
-2.42804e-05
4.27992e-07
-1.32273e-05
-4.318e-06
-5.29392e-06
-7.62272e-06
2.13751e-07
-9.75506e-06
3.86005e-06
-1.10509e-05
6.09998e-06
-1.1726e-05
7.29323e-06
-1.19547e-05
7.72176e-06
-1.18608e-05
7.60495e-06
-1.15323e-05
7.11293e-06
-1.10298e-05
6.3776e-06
-1.03934e-05
5.50154e-06
-9.6498e-06
4.56467e-06
-8.81731e-06
3.62957e-06
-7.90989e-06
2.74485e-06
-6.93973e-06
1.9481e-06
-5.91948e-06
1.26723e-06
-4.86249e-06
7.22308e-07
-3.78358e-06
3.2605e-07
-2.6981e-06
8.50318e-08
-1.62164e-06
-5.67785e-07
-1.2334e-05
-5.6053e-06
2.53307e-05
-3.10132e-06
-8.80465e-06
3.28737e-06
-1.07067e-05
7.47943e-06
-1.18148e-05
1.00213e-05
-1.22969e-05
1.13354e-05
-1.2365e-05
1.1755e-05
-1.21456e-05
1.15366e-05
-1.17364e-05
1.08774e-05
-1.12015e-05
9.92749e-06
-1.05825e-05
8.80171e-06
-9.90398e-06
7.58785e-06
-9.1795e-06
6.35359e-06
-8.41553e-06
5.15152e-06
-7.61525e-06
4.0225e-06
-6.78087e-06
2.99847e-06
-5.9157e-06
2.10356e-06
-5.02457e-06
1.35579e-06
-4.11472e-06
7.67016e-07
-3.1948e-06
3.44256e-07
-2.27534e-06
8.93485e-08
-1.36673e-06
-4.78437e-07
8.31163e-06
-1.28329e-05
-1.08408e-06
1.28986e-05
-1.33916e-05
1.55739e-05
-1.3382e-05
1.6834e-05
-1.30749e-05
1.70844e-05
-1.25473e-05
1.66243e-05
-1.19049e-05
1.56817e-05
-1.12029e-05
1.44257e-05
-1.04804e-05
1.2982e-05
-9.75779e-06
1.14437e-05
-9.04417e-06
9.88024e-06
-8.34054e-06
8.34393e-06
-7.64319e-06
6.87472e-06
-6.94632e-06
5.50351e-06
-6.24404e-06
4.25463e-06
-5.53199e-06
3.14679e-06
-4.80787e-06
2.19457e-06
-4.07235e-06
1.4081e-06
-3.32825e-06
7.94222e-07
-2.58092e-06
3.55746e-07
-1.83686e-06
9.23006e-08
-1.10329e-06
-3.86136e-07
2.35055e-05
-1.52041e-05
-2.11343e-05
2.43052e-05
-1.41914e-05
2.40394e-05
-1.31162e-05
2.30456e-05
-1.20811e-05
2.15862e-05
-1.10879e-05
1.9844e-05
-1.01627e-05
1.79502e-05
-9.3092e-06
1.59968e-05
-8.5269e-06
1.4048e-05
-7.80901e-06
1.21493e-05
-7.14552e-06
1.03334e-05
-6.52457e-06
8.62415e-06
-5.93397e-06
7.04003e-06
-5.3622e-06
5.59557e-06
-4.79958e-06
4.30233e-06
-4.23875e-06
3.16976e-06
-3.6753e-06
2.20486e-06
-3.10745e-06
1.41292e-06
-2.53632e-06
7.96742e-07
-1.96474e-06
3.57293e-07
-1.39741e-06
9.29361e-08
-8.38929e-07
-2.932e-07
3.30768e-05
-1.37093e-05
-3.45716e-05
3.09936e-05
-1.21082e-05
2.85957e-05
-1.07183e-05
2.60512e-05
-9.5366e-06
2.34807e-05
-8.51739e-06
2.09575e-05
-7.63953e-06
1.85275e-05
-6.87916e-06
1.62171e-05
-6.21655e-06
1.40415e-05
-5.63343e-06
1.20091e-05
-5.11312e-06
1.01249e-05
-4.6404e-06
8.39254e-06
-4.20156e-06
6.81511e-06
-3.78477e-06
5.39576e-06
-3.38023e-06
4.13769e-06
-2.98068e-06
3.0437e-06
-2.5813e-06
2.11629e-06
-2.18005e-06
1.35697e-06
-1.77699e-06
7.66596e-07
-1.37437e-06
3.44773e-07
-9.75588e-07
9.01171e-08
-5.84273e-07
-2.03083e-07
3.63355e-05
-9.71954e-06
-4.03253e-05
3.25353e-05
-8.30799e-06
2.89853e-05
-7.16821e-06
2.56991e-05
-6.25043e-06
2.26776e-05
-5.49585e-06
1.99076e-05
-4.86961e-06
1.73718e-05
-4.34334e-06
1.50513e-05
-3.896e-06
1.29285e-05
-3.5107e-06
1.09888e-05
-3.17336e-06
9.22033e-06
-2.87196e-06
7.61487e-06
-2.5961e-06
6.16695e-06
-2.33685e-06
4.87355e-06
-2.08683e-06
3.73323e-06
-1.84036e-06
2.74556e-06
-1.59364e-06
1.91029e-06
-1.34477e-06
1.22718e-06
-1.09388e-06
6.95548e-07
-8.42741e-07
3.14547e-07
-5.94587e-07
8.29857e-08
-3.52713e-07
-1.20097e-07
3.28446e-05
-5.0017e-06
-3.75624e-05
2.87347e-05
-4.19818e-06
2.51442e-05
-3.5777e-06
2.19877e-05
-3.09391e-06
1.9197e-05
-2.70512e-06
1.67146e-05
-2.38726e-06
1.44942e-05
-2.12288e-06
1.24981e-05
-1.89996e-06
1.06969e-05
-1.70943e-06
9.06754e-06
-1.54402e-06
7.59315e-06
-1.39757e-06
6.2617e-06
-1.26466e-06
5.06535e-06
-1.14049e-06
3.99942e-06
-1.0209e-06
3.06152e-06
-9.02457e-07
2.25053e-06
-7.82647e-07
1.56585e-06
-6.6009e-07
1.00664e-06
-5.34682e-07
5.71729e-07
-4.07825e-07
2.59529e-07
-2.82387e-07
6.88428e-08
-1.62027e-07
-5.12546e-08
2.32119e-05
-1.33372e-06
-2.68798e-05
2.01295e-05
-1.11581e-06
1.75054e-05
-9.53569e-07
1.52412e-05
-8.29756e-07
1.3266e-05
-7.29912e-07
1.15261e-05
-6.47373e-07
9.98095e-06
-5.77738e-07
8.59936e-06
-5.18367e-07
7.35727e-06
-4.67338e-07
6.23633e-06
-4.2309e-07
5.22296e-06
-3.84198e-07
4.30757e-06
-3.49273e-07
3.48402e-06
-3.16941e-07
2.74896e-06
-2.8584e-07
2.10117e-06
-2.54666e-07
1.54079e-06
-2.22264e-07
1.06844e-06
-1.87745e-07
6.84449e-07
-1.50689e-07
3.88088e-07
-1.11465e-07
1.77228e-07
-7.15278e-08
4.85142e-08
-3.33128e-08
-2.74047e-09
8.77532e-06
-1.01163e-05
7.65105e-06
6.68833e-06
5.84906e-06
5.10954e-06
4.45262e-06
3.86555e-06
3.33814e-06
2.86211e-06
2.43073e-06
2.03866e-06
1.68195e-06
1.35802e-06
1.06567e-06
8.04966e-07
5.77177e-07
3.84451e-07
2.29374e-07
1.14179e-07
3.96639e-08
4.20426e-09
0.00029834
2.62896e-05
4.53786e-07
-0.000325083
0.000273082
2.47585e-05
4.9949e-07
0.000249218
2.33226e-05
5.41163e-07
0.000226668
2.19713e-05
5.78389e-07
0.000205357
2.07005e-05
6.11122e-07
0.00018521
1.95068e-05
6.39419e-07
0.000166161
1.8386e-05
6.63392e-07
0.000148144
1.73337e-05
6.83203e-07
0.000131099
1.63457e-05
6.99045e-07
0.000114971
1.54177e-05
7.11102e-07
9.97069e-05
1.45443e-05
7.19456e-07
8.52655e-05
1.37176e-05
7.23845e-07
7.16193e-05
1.29229e-05
7.23321e-07
5.87691e-05
1.21343e-05
7.15911e-07
4.67585e-05
1.1312e-05
6.98556e-07
3.56872e-05
1.04038e-05
6.67478e-07
2.57144e-05
9.35386e-06
6.18963e-07
1.70497e-05
8.11444e-06
5.50261e-07
9.93086e-06
6.65846e-06
4.60339e-07
4.59311e-06
4.98751e-06
3.50249e-07
1.2365e-06
3.13357e-06
2.23046e-07
1.15327e-06
8.32232e-08
0.000297941
5.29556e-05
-0.000324607
0.000272753
4.99469e-05
0.000248949
4.71262e-05
0.000226451
4.44694e-05
0.000205183
4.19684e-05
0.000185074
3.96163e-05
0.000166055
3.74047e-05
0.000148064
3.53253e-05
0.000131039
3.33699e-05
0.000114927
3.15299e-05
9.96764e-05
2.97951e-05
8.52447e-05
2.81493e-05
7.16054e-05
2.65622e-05
5.87596e-05
2.49801e-05
4.67517e-05
2.33199e-05
3.56818e-05
2.14738e-05
2.57099e-05
1.93258e-05
1.70461e-05
1.67782e-05
9.92841e-06
1.37761e-05
4.59191e-06
1.0324e-05
1.23622e-06
6.48926e-06
2.38949e-06
0.0002967
7.94185e-05
-0.000323163
0.000271687
7.49596e-05
0.000248034
7.07793e-05
0.000225666
6.68368e-05
0.000204513
6.31221e-05
0.000184503
5.96258e-05
0.000165572
5.63357e-05
0.000147657
5.32401e-05
0.0001307
5.0327e-05
0.000114646
4.7584e-05
9.94453e-05
4.49959e-05
8.50561e-05
4.25384e-05
7.14526e-05
4.01657e-05
5.86367e-05
3.7796e-05
4.66536e-05
3.53031e-05
3.56046e-05
3.25227e-05
2.56508e-05
2.92796e-05
1.70034e-05
2.54257e-05
9.9006e-06
2.08789e-05
4.57715e-06
1.56475e-05
1.23139e-06
9.83502e-06
3.62088e-06
0.000294968
0.000105571
-0.00032112
0.000270226
9.9702e-05
0.000246803
9.42026e-05
0.000224632
8.90075e-05
0.000203647
8.41074e-05
0.000183781
7.94909e-05
0.000164974
7.51431e-05
0.000147165
7.10492e-05
0.000130298
6.7194e-05
0.00011432
6.35617e-05
9.91836e-05
6.01325e-05
8.48477e-05
5.68742e-05
7.12878e-05
5.37256e-05
5.85068e-05
5.0577e-05
4.65515e-05
4.72584e-05
3.55246e-05
4.35496e-05
2.55894e-05
3.92148e-05
1.69584e-05
3.40567e-05
9.87106e-06
2.79662e-05
4.56149e-06
2.0957e-05
1.22637e-06
1.31701e-05
4.84725e-06
0.000292928
0.000131319
-0.000318677
0.000268533
0.000124097
0.000245404
0.000117332
0.000223483
0.000110928
0.00020271
0.00010488
0.000183026
9.91756e-05
0.000164371
9.37975e-05
0.000146691
8.87292e-05
0.000129933
8.39528e-05
0.000114045
7.94496e-05
9.89814e-05
7.51958e-05
8.4704e-05
7.11517e-05
7.11888e-05
6.72408e-05
5.84403e-05
6.33255e-05
4.65066e-05
5.91921e-05
3.54931e-05
5.45631e-05
2.55654e-05
4.91426e-05
1.69395e-05
4.26826e-05
9.85684e-06
3.50488e-05
4.55274e-06
2.62611e-05
1.22293e-06
1.64999e-05
6.07019e-06
0.000290978
0.000156607
-0.000316266
0.000266977
0.000148098
0.000244176
0.000140133
0.000222531
0.000132573
0.000201989
0.000125422
0.000182496
0.000118668
0.000164
0.000112293
0.00014645
0.00010628
0.000129796
0.000100607
0.00011399
9.52554e-05
9.89885e-05
9.01969e-05
8.47554e-05
8.53848e-05
7.1268e-05
8.07282e-05
5.8532e-05
7.60614e-05
4.65973e-05
7.11269e-05
3.55718e-05
6.55886e-05
2.56253e-05
5.90891e-05
1.69783e-05
5.13295e-05
9.87714e-06
4.21501e-05
4.55989e-06
3.15784e-05
1.22366e-06
1.98362e-05
7.29385e-06
0.000289331
0.000181393
-0.000314117
0.000265753
0.000171676
0.000243299
0.000162587
0.00022194
0.000153933
0.000201631
0.000145731
0.000182327
0.000137972
0.000163982
0.000130638
0.000146551
0.000123711
0.000129987
0.000117171
0.000114247
0.000110996
9.92895e-05
0.000105154
8.50792e-05
9.95951e-05
7.15954e-05
9.4212e-05
5.88442e-05
8.88126e-05
4.68775e-05
8.30936e-05
3.58054e-05
7.66606e-05
2.5804e-05
6.90905e-05
1.71e-05
6.00335e-05
9.94777e-06
4.93023e-05
4.59118e-06
3.6935e-05
1.231e-06
2.31963e-05
8.52485e-06
0.000288168
0.000205648
-0.000312423
0.00026503
0.000194814
0.000242931
0.000184686
0.000221858
0.000175005
0.000201778
0.000165812
0.000182653
0.000157097
0.000164444
0.000148847
0.00014711
0.000141044
0.000130613
0.000133669
0.00011491
0.000126698
9.99651e-05
0.0001201
8.57446e-05
0.000113816
7.22282e-05
0.000107728
5.94237e-05
0.000101617
4.73829e-05
9.51344e-05
3.62213e-05
8.78222e-05
2.61192e-05
7.91926e-05
1.73155e-05
6.88372e-05
1.00732e-05
5.65446e-05
4.64749e-06
4.23607e-05
1.2444e-06
2.65994e-05
9.76925e-06
0.000287619
0.000229356
-0.000311327
0.000264921
0.000217511
0.000243168
0.000206439
0.000222364
0.000195809
0.00020249
0.000185686
0.000183518
0.000176069
0.000165418
0.000166947
0.000148157
0.000158306
0.000131698
0.000150128
0.000116005
0.000142391
0.000101043
0.000135062
8.67799e-05
0.000128078
7.31974e-05
0.000121311
6.03012e-05
0.000114513
4.81453e-05
0.00010729
3.68465e-05
9.9121e-05
2.65961e-05
8.94429e-05
1.76428e-05
7.77906e-05
1.02676e-05
6.39198e-05
4.73676e-06
4.78915e-05
1.26758e-06
3.00686e-05
1.10368e-05
0.000287721
0.000252505
-0.000310869
0.000265471
0.000239761
0.000244065
0.000227845
0.000223525
0.000216348
0.000203843
0.000205369
0.000185001
0.00019491
0.00016698
0.000184968
0.000149753
0.000175532
0.000133292
0.00016659
0.000117565
0.000158118
0.00010254
0.000150087
8.81883e-05
0.00014243
7.4491e-05
0.000135008
6.14547e-05
0.00012755
4.91325e-05
0.000119612
3.76476e-05
0.000110606
2.71987e-05
9.98919e-05
1.80525e-05
8.69368e-05
1.05056e-05
7.14667e-05
4.84339e-06
5.35537e-05
1.29292e-06
3.36191e-05
1.23298e-05
0.000288464
0.000275084
-0.000311043
0.000266639
0.000261587
0.000245548
0.000248936
0.000225239
0.000236657
0.000205718
0.00022489
0.000186982
0.000213647
0.000169017
0.000202933
0.000151804
0.000192746
0.000135319
0.000183075
0.000119535
0.000173902
0.000104424
0.000165197
8.99592e-05
0.000156895
7.61202e-05
0.000148847
6.29116e-05
0.000140758
5.03862e-05
0.000132138
3.86692e-05
0.000122323
2.79725e-05
0.000110589
1.85809e-05
9.63284e-05
1.08168e-05
7.92308e-05
4.98589e-06
5.93846e-05
1.33016e-06
3.72748e-05
1.36599e-05
0.00028987
0.000297061
-0.000311848
0.000268496
0.000282961
0.000247735
0.000269697
0.000227646
0.000256746
0.000208256
0.00024428
0.00018958
0.000232323
0.000171617
0.000220895
0.000154361
0.000210003
0.000137793
0.000199642
0.000121893
0.000189802
0.000106637
0.000180453
9.19995e-05
0.000171533
7.79607e-05
0.000162886
6.45244e-05
0.000154194
5.17434e-05
0.000144919
3.97498e-05
0.000134317
2.87685e-05
0.00012157
1.91072e-05
0.00010599
1.1112e-05
8.72259e-05
5.1108e-06
6.53859e-05
1.35666e-06
4.1029e-05
1.50166e-05
0.000291747
0.000318448
-0.000313133
0.000270751
0.000303957
0.000250276
0.000290172
0.000230388
0.000276634
0.000211124
0.000263544
0.000192508
0.000250939
0.000174551
0.000238852
0.000157251
0.000227303
0.000140599
0.000216294
0.00012458
0.000205821
0.000109173
0.00019586
9.43558e-05
0.00018635
8.01071e-05
0.000177135
6.64271e-05
0.000167874
5.3366e-05
0.00015798
4.10583e-05
0.000146624
2.97438e-05
0.000132884
1.97571e-05
0.000115977
1.14799e-05
9.55031e-05
5.26997e-06
7.15958e-05
1.39495e-06
4.4904e-05
1.64115e-05
0.000293991
0.000339026
-0.000314569
0.000273474
0.000324473
0.000253303
0.000310343
0.000233583
0.000296355
0.000214389
0.000282738
0.000195768
0.00026956
0.000177746
0.000256874
0.000160335
0.000244714
0.000143534
0.000233095
0.000127334
0.000222021
0.000111718
0.000211475
9.66668e-05
0.000201402
8.21585e-05
0.000191643
6.81918e-05
0.000181841
5.48158e-05
0.000171356
4.21717e-05
0.000159269
3.05188e-05
0.000144537
2.02238e-05
0.000126272
1.17029e-05
0.000104024
5.33736e-06
7.79613e-05
1.39649e-06
4.88449e-05
1.7808e-05
0.000296536
0.000358857
-0.000316366
0.000276361
0.000344648
0.000256497
0.000330208
0.000236981
0.000315871
0.000217903
0.000301816
0.000199321
0.000288141
0.000181272
0.000274923
0.000163776
0.00026221
0.00014684
0.00025003
0.000130464
0.000238397
0.000114636
0.000227303
9.93349e-05
0.000216703
8.45394e-05
0.000206438
7.02445e-05
0.000196136
5.65e-05
0.0001851
4.3457e-05
0.000172312
3.13989e-05
0.000156595
2.07284e-05
0.000136942
1.19044e-05
0.000112848
5.3456e-06
8.45201e-05
1.34289e-06
5.28476e-05
1.91509e-05
1.24784e-05
0.000361335
-1.49564e-05
9.93475e-06
0.000347191
7.4991e-06
0.000332643
5.08174e-06
0.000318288
2.69317e-06
0.000304204
3.28918e-07
0.000290506
-2.00971e-06
0.000277262
-4.31757e-06
0.000264518
-6.58739e-06
0.0002523
-8.80745e-06
0.000240617
-1.09521e-05
0.000229448
-1.29582e-05
0.000218709
-1.46924e-05
0.000208173
-1.59287e-05
0.000197372
-1.63721e-05
0.000185544
-1.57447e-05
0.000171684
-1.39139e-05
0.000154764
-1.10033e-05
0.000134031
-7.43546e-06
0.00010928
-3.88102e-06
8.09657e-05
-1.14213e-06
5.01087e-05
1.80088e-05
7.33802e-06
0.000364122
-1.01251e-05
4.68324e-06
0.000349846
2.06645e-06
0.00033526
-4.94711e-07
0.000320849
-2.98379e-06
0.000306693
-5.40047e-06
0.000292922
-7.7394e-06
0.000279601
-9.99533e-06
0.000266774
-1.21609e-05
0.000254466
-1.42216e-05
0.000242677
-1.61416e-05
0.000231368
-1.78376e-05
0.000220405
-1.91497e-05
0.000209485
-1.98351e-05
0.000198058
-1.96089e-05
0.000185318
-1.82421e-05
0.000170317
-1.56769e-05
0.000152199
-1.2118e-05
0.000130472
-8.04706e-06
0.000105209
-4.1595e-06
7.70781e-05
-1.23535e-06
4.71845e-05
1.67734e-05
2.145e-06
0.000367129
-5.15208e-06
-6.23196e-07
0.000352614
-3.34487e-06
0.000337982
-5.96053e-06
0.000323465
-8.46797e-06
0.000309201
-1.08637e-05
0.000295318
-1.31429e-05
0.00028188
-1.53009e-05
0.000268932
-1.73299e-05
0.000256495
-1.92096e-05
0.000244557
-2.08897e-05
0.000233048
-2.22616e-05
0.000221777
-2.31388e-05
0.000210362
-2.3264e-05
0.000198183
-2.23717e-05
0.000184425
-2.02848e-05
0.00016823
-1.7027e-05
0.000148941
-1.28822e-05
0.000126328
-8.3917e-06
0.000100719
-4.26362e-06
7.295e-05
-1.24617e-06
4.41671e-05
1.55272e-05
-3.04994e-06
0.000370253
-7.46115e-08
-5.91967e-06
0.000355484
-8.69804e-06
0.00034076
-1.13286e-05
0.000326095
-1.38177e-05
0.00031169
-1.61596e-05
0.00029766
-1.83509e-05
0.000284072
-2.03879e-05
0.000270969
-2.22598e-05
0.000258367
-2.39379e-05
0.000246235
-2.53517e-05
0.000234462
-2.63662e-05
0.000222791
-2.67684e-05
0.000210764
-2.62992e-05
0.000197714
-2.47197e-05
0.000182846
-2.19227e-05
0.000165433
-1.80128e-05
0.000145031
-1.33576e-05
0.000121672
-8.53907e-06
9.59003e-05
-4.26385e-06
6.86748e-05
-1.22451e-06
4.11278e-05
1.43027e-05
-8.35177e-06
0.000373436
5.16939e-06
-1.12817e-05
0.000358414
-1.40664e-05
0.000343545
-1.66704e-05
0.000328699
-1.91032e-05
0.000314123
-2.1359e-05
0.000299916
-2.34364e-05
0.000286149
-2.53308e-05
0.000272863
-2.70268e-05
0.000260063
-2.84811e-05
0.000247689
-2.96009e-05
0.000235582
-3.02206e-05
0.000223411
-3.01109e-05
0.000210654
-2.90144e-05
0.000196617
-2.67408e-05
0.000180572
-2.325e-05
0.000161943
-1.8741e-05
0.000140522
-1.3643e-05
0.000116574
-8.57478e-06
9.08321e-05
-4.21399e-06
6.4314e-05
-1.19225e-06
3.8106e-05
1.31105e-05
-1.38979e-05
0.000376635
1.06983e-05
-1.68436e-05
0.00036136
-1.95934e-05
0.000346295
-2.21352e-05
0.000331241
-2.44779e-05
0.000316465
-2.66183e-05
0.000302056
-2.85562e-05
0.000288087
-3.0285e-05
0.000274592
-3.178e-05
0.000261558
-3.29809e-05
0.00024889
-3.37656e-05
0.000236366
-3.39445e-05
0.00022359
-3.32707e-05
0.000209981
-3.15122e-05
0.000194859
-2.85241e-05
0.000177584
-2.43583e-05
0.000157777
-1.92855e-05
0.00013545
-1.3806e-05
0.000111095
-8.53992e-06
8.5566e-05
-4.13794e-06
5.9912e-05
-1.15436e-06
3.51224e-05
1.19561e-05
-1.98388e-05
0.000379808
1.6666e-05
-2.27498e-05
0.000364271
-2.54234e-05
0.000348968
-2.78654e-05
0.000333683
-3.00841e-05
0.000318684
-3.20793e-05
0.000304051
-3.3851e-05
0.000289859
-3.53872e-05
0.000276128
-3.66511e-05
0.000262822
-3.75574e-05
0.000249797
-3.79569e-05
0.000236766
-3.76312e-05
0.000223264
-3.63368e-05
0.000208686
-3.38641e-05
0.000192386
-3.01458e-05
0.000173866
-2.53054e-05
0.000152936
-1.97081e-05
0.000129852
-1.38844e-05
0.000105271
-8.46637e-06
8.0148e-05
-4.04717e-06
5.54928e-05
-1.11535e-06
3.21906e-05
1.08408e-05
-2.63852e-05
0.000382914
2.32797e-05
-2.92137e-05
0.000367099
-3.17703e-05
0.000351525
-3.40737e-05
0.000335987
-3.61319e-05
0.000320742
-3.79482e-05
0.000305868
-3.95202e-05
0.000291431
-4.0828e-05
0.000277436
-4.18154e-05
0.000263809
-4.23707e-05
0.000250352
-4.23113e-05
0.000236707
-4.14039e-05
0.000222357
-3.9407e-05
0.000206689
-3.6165e-05
0.000189144
-3.16756e-05
0.000169377
-2.61647e-05
0.000147425
-2.00539e-05
0.000123741
-1.39218e-05
9.91391e-05
-8.3719e-06
7.45981e-05
-3.95378e-06
5.10747e-05
-1.07667e-06
2.93135e-05
9.7641e-06
-3.37329e-05
0.000385903
3.07435e-05
-3.64264e-05
0.000369793
-3.88207e-05
0.000353919
-4.09422e-05
0.000338108
-4.28e-05
0.0003226
-4.43986e-05
0.000307466
-4.57309e-05
0.000292763
-4.67631e-05
0.000278468
-4.74157e-05
0.000264461
-4.7543e-05
0.000250479