/*--------------------------------*- C++ -*----------------------------------*\
| =========                 |                                                 |
| \\      /  F ield         | OpenFOAM Extend Project: Open source CFD        |
|  \\    /   O peration     | Version:  1.6-ext                               |
|   \\  /    A nd           | Web:      www.extend-project.de                 |
|    \\/     M anipulation  |                                                 |
\*---------------------------------------------------------------------------*/
FoamFile
{
    version     2.0;
    format      ascii;
    class       volVectorField;
    location    "0.45";
    object      U;
}
// * * * * * * * * * * * * * * * * * * * * * * * * * * * * * * * * * * * * * //

dimensions      [0 1 -1 0 0 0 0];

internalField   nonuniform List<vector> 
20940
(
(1.85447 0.389876 0)
(1.89488 0.409997 -6.91606e-25)
(1.9332 0.429443 2.79096e-21)
(1.96857 0.447166 3.97002e-21)
(2.00074 0.463394 1.11041e-20)
(2.02812 0.477027 -6.68797e-21)
(2.04781 0.486996 1.77426e-20)
(2.05506 0.49139 -2.20381e-20)
(2.04348 0.487995 6.4824e-21)
(2.00592 0.474559 0)
(1.93596 0.449483 -9.85131e-21)
(1.82977 0.412439 5.6275e-24)
(1.6875 0.364753 1.35407e-20)
(1.51382 0.309326 7.12667e-22)
(1.31708 0.25012 -8.02531e-21)
(1.10779 0.191397 0)
(0.896606 0.137003 -9.49041e-21)
(0.692847 0.0899027 -5.05372e-21)
(0.50354 0.0519723 0)
(0.33317 0.0240413 0)
(0.183892 0.00663579 5.84883e-21)
(0.0559949 0.000479799 0)
(1.88144 0.365626 -8.13307e-22)
(1.92063 0.384605 -3.44885e-21)
(1.95741 0.402255 -2.78699e-21)
(1.99069 0.418221 5.34651e-21)
(2.01969 0.432193 -1.56452e-20)
(2.04198 0.442999 -7.05593e-21)
(2.05364 0.449268 -1.97658e-20)
(2.04896 0.448996 3.87912e-20)
(2.02115 0.440115 1.39913e-20)
(1.96355 0.420902 0)
(1.87144 0.390633 9.79208e-21)
(1.74358 0.350018 2.23192e-20)
(1.58312 0.301285 -3.88687e-20)
(1.39722 0.247823 -1.19507e-21)
(1.19571 0.193528 7.50652e-21)
(0.989275 0.142095 3.47604e-20)
(0.787699 0.0964957 -2.71018e-20)
(0.598793 0.0587443 -4.59415e-21)
(0.42793 0.0298771 -3.11635e-20)
(0.278125 0.0100893 4.37273e-20)
(0.150453 -0.000520399 -2.84788e-20)
(0.0445828 -0.00147453 0)
(1.90616 0.3413 6.93451e-21)
(1.94382 0.359213 -1.08648e-20)
(1.97854 0.375184 1.20527e-20)
(2.0089 0.389424 0)
(2.03337 0.401062 2.5832e-20)
(2.04852 0.408849 -1.20886e-20)
(2.04939 0.41117 -1.78942e-20)
(2.02959 0.406076 -1.15373e-20)
(1.98244 0.391853 -1.39627e-20)
(1.90258 0.367498 0)
(1.78764 0.333246 0)
(1.63938 0.290743 -2.2285e-20)
(1.46375 0.24284 8.7721e-20)
(1.26982 0.19305 -5.41072e-20)
(1.06806 0.144872 1.5442e-20)
(0.86855 0.101241 -3.32088e-20)
(0.679699 0.0642261 5.21256e-20)
(0.507608 0.0349938 4.75187e-20)
(0.356022 0.0139033 -4.86296e-20)
(0.226644 0.000685053 6.23305e-20)
(0.11966 -0.00486503 -7.64252e-20)
(0.0342614 -0.00246769 4.49485e-20)
(1.92973 0.317278 6.05268e-21)
(1.96541 0.334207 -2.2688e-20)
(1.9973 0.348556 -1.62157e-20)
(2.02349 0.361 1.79411e-20)
(2.04145 0.370103 0)
(2.04666 0.374568 0)
(2.03327 0.372651 -4.09526e-20)
(1.9947 0.362658 4.47526e-20)
(1.9252 0.343447 -5.81577e-20)
(1.8215 0.314884 2.92845e-20)
(1.68418 0.278138 3.65461e-20)
(1.51806 0.235576 0)
(1.33137 0.190327 -2.4345e-20)
(1.13425 0.145662 2.58643e-20)
(0.936908 0.104436 0)
(0.748166 0.0687379 0)
(0.574702 0.0397912 -1.71982e-20)
(0.420856 0.0180572 0)
(0.288879 0.00339037 -5.67339e-20)
(0.179372 -0.0047885 7.77491e-20)
(0.0918246 -0.00687118 -1.06069e-20)
(0.0251007 -0.00269898 -2.57299e-20)
(1.95189 0.29364 -1.8377e-20)
(1.98498 0.309598 -2.85633e-20)
(2.01294 0.322302 -3.81903e-20)
(2.03316 0.332787 6.03106e-20)
(2.04195 0.339077 -2.31193e-20)
(2.03376 0.339912 3.5933e-21)
(2.00227 0.33359 -7.85181e-20)
(1.94148 0.318903 4.4992e-20)
(1.84746 0.295458 -5.72357e-20)
(1.71981 0.264031 6.21136e-20)
(1.56229 0.226565 -1.10991e-19)
(1.38236 0.185826 1.21165e-19)
(1.18973 0.144844 9.1539e-20)
(0.994596 0.106362 -1.26697e-19)
(0.806093 0.0724558 5.43368e-20)
(0.631341 0.0443914 -6.00442e-20)
(0.475156 0.0226808 3.20555e-20)
(0.340232 0.00725379 0)
(0.227551 -0.00237287 -7.22308e-20)
(0.136854 -0.00695324 1.31265e-19)
(0.0671464 -0.00697226 2.02372e-20)
(0.0171075 -0.00233247 -6.44722e-20)
(1.97216 0.270474 3.96458e-20)
(2.00172 0.285434 -2.72345e-20)
(2.02415 0.29639 6.39326e-20)
(2.03593 0.304651 0)
(2.03215 0.307798 2.86551e-20)
(2.0066 0.304755 -9.53111e-20)
(1.95321 0.294087 -4.10939e-20)
(1.86754 0.275279 1.39744e-19)
(1.74837 0.248776 -5.26522e-20)
(1.59855 0.216157 6.39844e-20)
(1.42478 0.179851 -3.32862e-20)
(1.23637 0.142647 -4.03261e-20)
(1.04342 0.107157 -1.82328e-21)
(0.855266 0.0754199 0)
(0.679391 0.048725 -5.28572e-20)
(0.520996 0.0276301 1.12865e-19)
(0.383124 0.0121057 -5.84412e-20)
(0.267057 0.00172528 0)
(0.172786 -0.00418732 0)
(0.0994426 -0.0064552 -3.48399e-20)
(0.0457364 -0.00558998 -9.55744e-22)
(0.0102838 -0.00151983 6.33194e-20)
(1.99017 0.247605 -2.31192e-20)
(2.01476 0.261413 2.56913e-20)
(2.0293 0.270398 3.63947e-20)
(2.02931 0.27612 4.52561e-20)
(2.00889 0.275861 5.39107e-20)
(1.9619 0.268927 3.27921e-20)
(1.88348 0.254366 0)
(1.77174 0.232479 -9.20759e-20)
(1.62876 0.204491 -5.4542e-20)
(1.46055 0.172537 1.19029e-19)
(1.27598 0.139167 6.93595e-20)
(1.08509 0.106852 -3.74573e-20)
(0.897347 0.0775796 -4.27517e-20)
(0.720508 0.0526443 0)
(0.560099 0.032643 0)
(0.419451 0.0175915 -1.08184e-19)
(0.300076 0.00709621 2.01177e-19)
(0.202146 0.000525931 9.45745e-22)
(0.124948 -0.00287523 -9.56639e-20)
(0.0672311 -0.00392548 3.47883e-20)
(0.0275631 -0.0031215 -1.81634e-20)
(0.00458783 -0.000398576 2.97685e-20)
(2.0045 0.225014 0)
(2.022 0.237464 0)
(2.02551 0.244216 4.10082e-20)
(2.00978 0.24709 -8.83429e-20)
(1.96852 0.243311 0)
(1.89659 0.232782 0)
(1.7915 0.215194 8.06263e-20)
(1.65464 0.191655 -4.26523e-20)
(1.49141 0.163958 1.04345e-19)
(1.31032 0.134445 -1.74833e-19)
(1.12129 0.105434 0)
(0.933917 0.0788473 -3.70387e-20)
(0.756215 0.0559748 8.08408e-20)
(0.593977 0.0374431 -1.29131e-19)
(0.450775 0.0233124 -1.41857e-19)
(0.328305 0.0132322 -1.77049e-21)
(0.226866 0.00660064 2.18341e-19)
(0.145838 0.00270003 -8.68857e-20)
(0.0840628 0.000773032 3.14574e-20)
(0.0400962 5.18726e-05 -6.48944e-20)
(0.0124803 7.68047e-05 6.69331e-20)
(-5.49257e-05 0.000911913 4.21492e-20)
(2.01407 0.202169 0)
(2.02141 0.212914 3.27341e-20)
(2.00991 0.217138 -1.53305e-19)
(1.97401 0.217033 -4.23517e-21)
(1.90803 0.210002 1.12326e-19)
(1.80905 0.19668 4.31525e-21)
(1.67776 0.177424 -1.54585e-19)
(1.51904 0.153969 2.21827e-19)
(1.34106 0.128351 -2.52642e-19)
(1.15365 0.102769 1.69005e-19)
(0.966548 0.0790593 0)
(0.787994 0.0585005 -6.85752e-20)
(0.624038 0.0417425 0)
(0.478469 0.0288886 4.24972e-20)
(0.353131 0.0196363 1.37092e-19)
(0.248418 0.0134267 -9.63742e-20)
(0.163763 0.00957067 0)
(0.0980444 0.00734598 8.31464e-20)
(0.049869 0.00604195 -1.16245e-19)
(0.0177404 0.00496489 1.2361e-19)
(0.000254201 0.00370079 1.44454e-21)
(-0.00374203 0.00231285 -8.12655e-20)
(2.01556 0.179208 4.82951e-20)
(2.00908 0.18798 0)
(1.97827 0.189569 -2.61891e-21)
(1.91829 0.186597 9.38918e-20)
(1.82522 0.176916 1.47941e-21)
(1.69932 0.161935 -6.4302e-20)
(1.54486 0.142565 7.79948e-20)
(1.36974 0.120865 -2.1762e-19)
(1.18374 0.0987792 9.6548e-20)
(0.99676 0.0780911 1.10933e-19)
(0.81729 0.0600411 -1.20111e-19)
(0.651641 0.0452978 2.01448e-19)
(0.50381 0.0340022 -4.50812e-22)
(0.375776 0.0259001 8.03699e-20)
(0.268007 0.0204809 -1.72508e-19)
(0.179966 0.0170982 4.65141e-20)
(0.110537 0.0150583 -5.12726e-20)
(0.0583311 0.0136833 1.04998e-19)
(0.0218824 0.0123335 2.74147e-20)
(-0.000263459 0.0103982 0)
(-0.00941125 0.00751006 -1.23208e-19)
(-0.00658657 0.00372888 7.67954e-20)
(2.00761 0.155124 -5.70382e-20)
(1.98261 0.161656 1.33041e-19)
(1.92828 0.160702 -7.73199e-20)
(1.84129 0.155449 -4.87451e-20)
(1.72069 0.144288 1.11278e-19)
(1.57045 0.129223 0)
(1.39802 0.111462 0)
(1.21324 0.0930449 1.70827e-19)
(1.02617 0.0755529 -9.40639e-20)
(0.845621 0.0602301 0)
(0.678187 0.0477422 -1.18198e-19)
(0.52808 0.0382692 6.22612e-20)
(0.397417 0.0316041 -7.13871e-20)
(0.286729 0.0272877 -7.70224e-20)
(0.195493 0.0247222 1.6533e-19)
(0.12258 0.0232559 -8.68334e-20)
(0.0665827 0.0222398 -1.44251e-19)
(0.0260256 0.0210651 4.85528e-20)
(-0.000523543 0.019172 7.91483e-20)
(-0.0144188 0.0160325 2.76204e-20)
(-0.016845 0.0113253 1.1796e-19)
(-0.00870753 0.00510556 -9.94863e-20)
(1.98417 0.131149 5.80209e-21)
(1.93729 0.135525 -6.54937e-20)
(1.85654 0.132511 0)
(1.7421 0.125795 -4.80687e-20)
(1.5964 0.114359 0)
(1.42695 0.100583 0)
(1.24339 0.0857036 7.3682e-20)
(1.05614 0.0714642 -8.35243e-20)
(0.87434 0.0589548 9.36047e-20)
(0.704959 0.0488732 -5.08515e-20)
(0.552469 0.0414132 1.70066e-19)
(0.419145 0.036411 -2.48047e-19)
(0.305582 0.0334533 1.34337e-19)
(0.211262 0.031989 -7.40065e-20)
(0.135034 0.0314093 7.8891e-20)
(0.0754552 0.031102 -4.25908e-20)
(0.0310219 0.0304838 9.08267e-20)
(0.000291468 0.0290207 -9.73209e-20)
(-0.0180661 0.0262305 0)
(-0.025275 0.0216627 -1.62526e-19)
(-0.0223964 0.01504 8.46082e-20)
(-0.0102296 0.00641524 -1.20188e-19)
(1.94738 0.10525 0)
(1.8738 0.107707 0)
(1.76543 0.103521 -8.54553e-20)
(1.62492 0.096609 1.44318e-19)
(1.45849 0.0865276 -5.4941e-20)
(1.2762 0.0755401 0)
(1.08852 0.0647033 6.46327e-22)
(0.905165 0.0552699 -8.02273e-20)
(0.733497 0.0478401 9.08876e-20)
(0.578339 0.0426575 -1.49041e-19)
(0.442151 0.0395904 -5.52713e-20)
(0.325609 0.0382764 0)
(0.228199 0.0382127 0)
(0.148726 0.038836 0)
(0.0856994 0.0395728 3.78366e-20)
(0.0375708 0.0398706 -4.06458e-20)
(0.0028681 0.0392153 -4.34429e-20)
(-0.0197443 0.0371437 -9.27076e-20)
(-0.0314592 0.0332432 9.84941e-20)
(-0.0333611 0.0271335 7.84287e-22)
(-0.0263927 0.01858 1.09896e-19)
(-0.0112653 0.00763956 -6.93822e-20)
(1.88667 0.0819501 -6.1644e-20)
(1.78847 0.0830934 1.41619e-19)
(1.65364 0.0784555 -7.90661e-20)
(1.49182 0.072278 -9.49969e-20)
(1.31132 0.0643584 0)
(1.12361 0.0566878 6.31459e-20)
(0.938656 0.050051 1.42765e-19)
(0.764521 0.045172 1.33394e-21)
(0.606427 0.0422388 1.31176e-22)
(0.46713 0.0411568 -9.74775e-20)
(0.347433 0.0415935 5.2892e-20)
(0.246844 0.0430894 5.75942e-20)
(0.164134 0.045122 0)
(0.0977475 0.0471534 0)
(0.0460736 0.0486581 -1.10521e-19)
(0.00759359 0.0491399 7.94419e-20)
(-0.0190537 0.0481422 4.29708e-20)
(-0.0350602 0.0452569 4.57322e-20)
(-0.04147 0.0401266 0)
(-0.0392302 0.0324291 2.54589e-20)
(-0.0291748 0.0219674 5.25224e-20)
(-0.0119374 0.00880337 0)
(1.81854 0.0551254 -5.74511e-20)
(1.68962 0.0557263 -7.19306e-20)
(1.5321 0.0526943 -1.18776e-21)
(1.35386 0.0483401 -4.88246e-20)
(1.1656 0.04402 5.38262e-20)
(0.978554 0.0406239 -1.24241e-19)
(0.801204 0.0386892 -1.39749e-19)
(0.639408 0.0383848 -5.45645e-22)
(0.496265 0.0395972 -8.58981e-20)
(0.37279 0.0420393 0)
(0.268556 0.0453143 5.18469e-20)
(0.182312 0.0489713 -5.66216e-20)
(0.112427 0.0525356 0)
(0.0571994 0.0555284 0)
(0.0150268 0.0574811 7.20658e-20)
(-0.0155114 0.0579458 3.8246e-20)
(-0.0356364 0.0565063 -1.63818e-19)
(-0.0463881 0.0527902 8.67875e-20)
(-0.0486655 0.0464768 0)
(-0.0432851 0.0372879 9.72422e-20)
(-0.030982 0.02506 -2.51976e-20)
(-0.0123243 0.00986366 -1.54841e-19)
(1.67734 0.0368144 6.81343e-20)
(1.516 0.0346013 1.54947e-19)
(1.33571 0.0330855 1.33917e-19)
(1.14779 0.0314253 -1.54064e-19)
(0.962112 0.0310151 0)
(0.787031 0.031852 -4.05533e-22)
(0.627849 0.0340646 -7.29908e-20)
(0.487432 0.0374576 8.03225e-20)
(0.366563 0.0417613 8.90209e-20)
(0.264658 0.0466387 2.51804e-22)
(0.180331 0.0517181 5.30868e-20)
(0.111841 0.0566058 5.76978e-20)
(0.0573928 0.0608926 0)
(0.0153136 0.0641611 0)
(-0.0158643 0.0659949 -7.22973e-20)
(-0.0373815 0.0659915 7.80549e-20)
(-0.050271 0.0637772 -8.24497e-20)
(-0.0553958 0.0590237 -4.34206e-20)
(-0.0534969 0.0514625 -1.38017e-19)
(-0.0452534 0.040884 1.43804e-19)
(-0.0312905 0.0271913 -2.47701e-20)
(-0.0121086 0.0104964 -2.19162e-20)
(1.42947 0.016051 -6.92118e-20)
(1.2466 0.0157926 -8.04536e-20)
(1.06122 0.0183457 0)
(0.882266 0.0208663 2.12824e-19)
(0.716288 0.024895 0)
(0.567433 0.0296379 2.01416e-19)
(0.437504 0.0351347 3.65391e-22)
(0.326609 0.041083 -8.21864e-20)
(0.233724 0.0472551 9.04104e-20)
(0.157223 0.0533851 -4.90821e-20)
(0.0952551 0.0591899 -1.61278e-19)
(0.0459919 0.0643601 -5.86381e-20)
(0.00777211 0.0685615 0)
(-0.0208367 0.0714418 -6.76358e-20)
(-0.0410272 0.0726427 1.90845e-22)
(-0.0537738 0.0718164 -4.51171e-22)
(-0.0598718 0.0686447 -4.38254e-22)
(-0.0599825 0.0628574 1.30696e-19)
(-0.0546768 0.0542478 9.22969e-20)
(-0.0444833 0.0426769 -1.43155e-19)
(-0.0298933 0.0281103 2.49362e-20)
(-0.0113099 0.010676 8.47107e-20)
(1.14434 0.00489996 0)
(0.962982 0.00729324 1.29679e-19)
(0.793274 0.0135616 -4.8032e-20)
(0.63796 0.0190999 6.23566e-22)
(0.500739 0.0258968 4.13536e-22)
(0.38217 0.0328027 -1.35817e-19)
(0.281886 0.0399271 -1.51341e-19)
(0.198484 0.046992 8.30361e-20)
(0.1302 0.0538415 -9.18123e-20)
(0.0751374 0.0602757 1.99508e-19)
(0.0314923 0.0660768 -1.09021e-19)
(-0.00234974 0.0709924 1.76041e-19)
(-0.0277655 0.0747384 1.26883e-19)
(-0.0458922 0.0770068 6.83842e-20)
(-0.0576489 0.0774806 3.62448e-20)
(-0.0637728 0.0758522 7.77395e-20)
(-0.0648604 0.0718444 -8.19328e-20)
(-0.0614079 0.0652303 8.65742e-20)
(-0.0538477 0.0558484 -1.3529e-19)
(-0.0425828 0.0436092 1.88244e-19)
(-0.0279934 0.0285183 -9.72559e-20)
(-0.0104026 0.0107023 0)
(0.858867 0.000512305 0)
(0.696955 0.00622456 -1.32465e-19)
(0.554956 0.0148635 -5.03412e-20)
(0.429605 0.0223282 -1.11849e-19)
(0.323061 0.030427 1.87889e-19)
(0.233571 0.0381582 7.02316e-20)
(0.159845 0.0456834 6.59834e-22)
(0.099925 0.0528202 9.61042e-23)
(0.051967 0.0594919 0)
(0.0142126 0.0655651 -5.05859e-20)
(-0.0148803 0.070876 1.09805e-19)
(-0.0366232 0.075215 -5.89187e-20)
(-0.0520956 0.0783323 -2.55191e-19)
(-0.0621669 0.0799489 -4.89617e-22)
(-0.0675278 0.0797738 -3.66583e-20)
(-0.068726 0.0775244 0)
(-0.0662029 0.0729486 0)
(-0.060326 0.0658441 1.28531e-19)
(-0.0514169 0.0560739 -8.9533e-20)
(-0.039775 0.043574 0)
(-0.0256877 0.0283652 0)
(-0.0094096 0.0105597 -2.01271e-20)
(0.599055 0.00311767 1.19571e-19)
(0.466598 0.0112842 -4.45716e-20)
(0.355922 0.0204067 1.01398e-19)
(0.26084 0.0283794 0)
(0.182559 0.0363377 2.77235e-22)
(0.118388 0.0437177 -6.99913e-20)
(0.0668487 0.050681 0)
(0.0260051 0.0571464 -8.55099e-20)
(-0.00575871 0.0630869 0)
(-0.0299063 0.0684112 0)
(-0.0476669 0.0729845 0)
(-0.0600577 0.0766198 5.92092e-20)
(-0.0678995 0.0790859 3.18079e-20)
(-0.0718443 0.0801206 0)
(-0.0724051 0.0794489 3.62053e-20)
(-0.0699872 0.0768046 0)
(-0.0649165 0.0719507 4.03912e-20)
(-0.0574648 0.0646984 -4.28997e-20)
(-0.0478689 0.0549211 0)
(-0.036347 0.0425633 1.14865e-19)
(-0.0231126 0.0276419 -2.3486e-20)
(-0.00836452 0.0102419 -5.95281e-20)
(0.380143 0.0104459 -3.96897e-20)
(0.279227 0.019273 4.63825e-20)
(0.197803 0.0274718 0)
(0.129606 0.0347226 0)
(0.0750982 0.0415622 0)
(0.0316043 0.0478247 7.13301e-20)
(-0.00223372 0.0536485 -1.95658e-19)
(-0.028075 0.0590238 8.56913e-20)
(-0.0472311 0.0639445 -9.41245e-20)
(-0.0608574 0.0683394 1.01932e-19)
(-0.069902 0.0720858 1.65901e-19)
(-0.0751369 0.075007 -1.48943e-19)
(-0.0771783 0.076882 -3.19817e-20)
(-0.0765116 0.0774597 -1.70733e-19)
(-0.0735178 0.076477 3.60601e-20)
(-0.0684976 0.0736793 0)
(-0.0616936 0.0688398 -6.07658e-20)
(-0.0533083 0.0617762 -2.10171e-20)
(-0.0435165 0.0523635 0)
(-0.0324748 0.0405428 -2.29166e-20)
(-0.0203427 0.026315 3.39943e-22)
(-0.00727952 0.009728 8.7814e-20)
(0.205448 0.0201909 -4.06957e-20)
(0.133033 0.0277011 -4.62478e-20)
(0.0763622 0.034032 -5.17578e-20)
(0.0303628 0.0396661 -5.80969e-20)
(-0.00508261 0.0448136 -6.49828e-20)
(-0.0322293 0.0495344 2.14518e-19)
(-0.0522469 0.0539379 -1.57408e-19)
(-0.0664677 0.0580461 1.29273e-19)
(-0.0759224 0.0618506 9.45413e-20)
(-0.0814981 0.0652822 -5.12548e-20)
(-0.0839115 0.0682184 -5.56793e-20)
(-0.0837391 0.070486 2.99877e-20)
(-0.0814374 0.0718709 3.18726e-20)
(-0.0773652 0.0721323 3.43062e-20)
(-0.0718048 0.0710193 -7.25222e-20)
(-0.0649808 0.0682893 7.64907e-20)
(-0.0570764 0.0637252 2.02115e-20)
(-0.0482455 0.0571494 2.11183e-20)
(-0.0386204 0.0484353 0)
(-0.0283146 0.0375156 0)
(-0.0174522 0.0243692 2.32708e-20)
(-0.00617131 0.00900335 -9.6647e-21)
(0.0703544 0.0296764 0)
(0.0218001 0.0344899 0)
(-0.0146786 0.0384167 -5.24962e-20)
(-0.0428622 0.0419851 2.4006e-22)
(-0.0632482 0.0452484 0)
(-0.0776115 0.048327 -7.22165e-20)
(-0.086934 0.0512913 3.97423e-20)
(-0.0922446 0.0541581 -4.35478e-20)
(-0.09433 0.0569019 0)
(-0.0938491 0.0594437 -5.15866e-20)
(-0.0913263 0.061657 2.76833e-20)
(-0.0871784 0.0633711 0)
(-0.0817341 0.0643809 6.37963e-20)
(-0.0752529 0.064459 -6.81397e-20)
(-0.0679421 0.0633711 1.0832e-19)
(-0.0599699 0.0608906 -7.62095e-20)
(-0.0514777 0.0568138 -6.00553e-20)
(-0.0425872 0.0509707 6.26517e-20)
(-0.0334032 0.0432352 2.15255e-20)
(-0.0240124 0.0335321 -8.91344e-20)
(-0.0145211 0.0218186 1.71444e-19)
(-0.00506296 0.00806444 -8.50033e-20)
(-0.0321078 0.0361901 -4.21168e-20)
(-0.0608185 0.037958 4.73711e-20)
(-0.0807467 0.0394465 5.3071e-20)
(-0.0946409 0.040974 5.91949e-20)
(-0.103149 0.0425032 9.84667e-20)
(-0.107602 0.0441148 -3.60119e-20)
(-0.108776 0.0458289 3.9689e-20)
(-0.107416 0.047634 -1.30741e-19)
(-0.104085 0.0494802 1.42306e-19)
(-0.0992363 0.0512768 1.56188e-22)
(-0.0932271 0.0528951 -8.34647e-20)
(-0.0863384 0.0541713 -8.96691e-20)
(-0.0787932 0.0549153 9.58373e-20)
(-0.0707712 0.0549198 -6.80634e-20)
(-0.062421 0.0539732 -3.62041e-20)
(-0.0538694 0.051872 0)
(-0.045228 0.0484321 -1.99861e-20)
(-0.0365986 0.043498 -6.20673e-20)
(-0.0280707 0.0369501 -2.14832e-20)
(-0.0197174 0.0287112 1.11568e-20)
(-0.0116412 0.0187228 9.07389e-20)
(-0.00398542 0.00692557 -6.51391e-20)
(-0.106234 0.0376086 -5.45532e-23)
(-0.118332 0.0369105 -9.56161e-20)
(-0.124727 0.036478 -8.03193e-20)
(-0.127342 0.0364314 5.91536e-20)
(-0.126744 0.0366727 -3.29907e-20)
(-0.123835 0.03721 -3.64186e-20)
(-0.119141 0.0380125 3.18128e-24)
(-0.113132 0.039036 2.10657e-22)
(-0.106152 0.0402112 0)
(-0.0984702 0.0414424 2.57542e-20)
(-0.0902945 0.0426068 -5.57646e-20)
(-0.0817918 0.043557 8.97941e-20)
(-0.0730987 0.0441258 0)
(-0.0643318 0.0441342 8.50542e-20)
(-0.0555952 0.0434007 -7.19934e-20)
(-0.046985 0.0417516 -1.89073e-20)
(-0.0385929 0.03903 0)
(-0.0305084 0.0351029 9.28137e-20)
(-0.0228139 0.0298666 -7.48347e-20)
(-0.0155788 0.0232512 -1.10289e-20)
(-0.00891144 0.0151943 1.12789e-20)
(-0.00297453 0.00562116 -7.36733e-20)
(-0.15193 0.0334353 8.6215e-20)
(-0.150905 0.0313346 2.70007e-22)
(-0.147048 0.029838 2.68862e-20)
(-0.141546 0.0289326 5.99787e-20)
(-0.134707 0.0284796 -9.91227e-20)
(-0.127015 0.0284239 7.29634e-20)
(-0.11872 0.0286989 -3.99676e-20)
(-0.110039 0.0292395 0)
(-0.101115 0.0299714 0)
(-0.092063 0.0308063 -2.59117e-20)
(-0.0829721 0.0316398 5.58651e-20)
(-0.07392 0.032351 -7.48339e-20)
(-0.064979 0.0328046 0)
(-0.0562205 0.0328567 -1.70517e-20)
(-0.0477171 0.0323617 -7.19788e-20)
(-0.0395444 0.0311809 1.89262e-19)
(-0.0317806 0.0291902 -1.58339e-19)
(-0.0245072 0.0262859 7.20638e-20)
(-0.0178033 0.0223893 -1.06686e-20)
(-0.0117387 0.0174493 -8.74034e-20)
(-0.00643198 0.0114143 1.78768e-19)
(-0.00206888 0.00421355 -7.77557e-20)
(-0.166791 0.0246382 -4.36016e-20)
(-0.157294 0.0223248 4.82776e-20)
(-0.147302 0.0207072 -2.71412e-20)
(-0.13735 0.0196905 2.99162e-20)
(-0.127429 0.0191212 0)
(-0.117662 0.0189143 0)
(-0.108065 0.0189942 0)
(-0.0986542 0.0192983 -6.60402e-20)
(-0.0894328 0.0197653 4.77757e-20)
(-0.0804056 0.0203297 1.29642e-20)
(-0.0715836 0.0209167 0)
(-0.0629878 0.0214404 -4.50646e-20)
(-0.0546508 0.0218041 6.4091e-20)
(-0.0466169 0.0219036 5.11267e-20)
(-0.0389408 0.021632 -7.20147e-20)
(-0.0316855 0.0208871 -1.89512e-20)
(-0.0249204 0.0195789 7.91071e-20)
(-0.0187203 0.017635 1.01815e-20)
(-0.01316 0.0150074 -4.26044e-20)
(-0.00830731 0.0116734 -5.5548e-21)
(-0.00428644 0.00761051 -5.70654e-21)
(-0.00130164 0.00277858 -3.18698e-20)
(-0.149837 0.0141221 -2.1973e-20)
(-0.137571 0.0124574 1.21035e-20)
(-0.126168 0.0113582 2.72985e-20)
(-0.115687 0.0107004 -4.51845e-20)
(-0.105887 0.010352 0)
(-0.0966777 0.0102362 0)
(-0.0879408 0.0102956 0)
(-0.079596 0.0104888 1.10396e-20)
(-0.0715794 0.0107804 3.61101e-20)
(-0.0638483 0.0111345 -1.17102e-19)
(-0.0563796 0.0115105 -1.30782e-22)
(-0.0491697 0.0118601 6.01732e-20)
(-0.0422337 0.0121266 8.04231e-21)
(-0.0356033 0.0122457 8.53737e-21)
(-0.0293247 0.0121491 0)
(-0.0234542 0.0117688 9.48594e-21)
(-0.0180553 0.0110448 0)
(-0.0131957 0.00993155 -1.54438e-20)
(-0.00894106 0.00840694 0)
(-0.00535015 0.00647743 5.46028e-21)
(-0.0025367 0.00415868 5.57353e-21)
(-0.000702143 0.00146487 2.27279e-21)
(-0.104846 0.0046282 -3.29603e-20)
(-0.0952593 0.00404334 1.22671e-20)
(-0.0866758 0.00371118 0)
(-0.0790019 0.00355178 5.31651e-20)
(-0.0719615 0.00349559 -3.34245e-20)
(-0.0654311 0.00350983 0)
(-0.0592928 0.00357392 3.55565e-20)
(-0.0534681 0.00367663 -7.75155e-20)
(-0.0478979 0.00380983 5.83988e-21)
(-0.0425423 0.00396513 5.21357e-20)
(-0.0373779 0.00413148 0)
(-0.0323976 0.00429342 0)
(-0.0276102 0.00443005 -4.03279e-20)
(-0.0230398 0.00451466 4.27947e-20)
(-0.0187245 0.00451541 0)
(-0.0147129 0.00439732 2.85043e-20)
(-0.0110613 0.00412614 -8.19002e-20)
(-0.00782867 0.00367458 4.64211e-20)
(-0.00506997 0.00303264 0)
(-0.00282743 0.00221961 0)
(-0.00117735 0.00128503 4.46197e-20)
(-0.000273819 0.000330403 -3.86691e-20)
(-0.039154 8.66967e-05 3.24609e-20)
(-0.0357832 8.1072e-05 -2.39444e-20)
(-0.0327107 0.000103612 -2.68113e-20)
(-0.0299412 0.000137983 2.20506e-20)
(-0.0273551 0.000171789 -1.63587e-20)
(-0.0249232 0.000203029 3.58171e-20)
(-0.0226118 0.000231878 4.9905e-21)
(-0.0204006 0.000260209 -2.1317e-20)
(-0.0182732 0.000290132 5.79334e-21)
(-0.0162167 0.00032345 0)
(-0.0142221 0.000361237 -2.63831e-23)
(-0.0122851 0.000403436 -1.41353e-23)
(-0.010407 0.000448397 3.09073e-20)
(-0.00859633 0.000492331 -6.55004e-20)
(-0.00686962 0.00052876 6.91306e-20)
(-0.00525207 0.000548165 -3.62993e-20)
(-0.00377725 0.000538209 4.02573e-20)
(-0.00248596 0.000485339 -3.93938e-20)
(-0.00142186 0.000379396 0)
(-0.000622831 0.000221968 5.10242e-24)
(-0.000127506 3.76157e-05 -4.26919e-20)
(1.54928e-05 -9.06385e-05 3.51759e-20)
(1.13668 0.0268625 -5.37105e-25)
(1.09064 0.0286179 0)
(1.04255 0.030418 -2.37535e-20)
(0.99232 0.0322641 5.26479e-20)
(0.940042 0.0341621 -3.00782e-20)
(0.885808 0.0361188 0)
(0.829708 0.0381374 5.79936e-20)
(0.771851 0.0402189 -8.57213e-20)
(0.712354 0.0423631 2.33248e-20)
(0.651348 0.0445672 -8.02616e-25)
(0.588976 0.0468235 0)
(0.525407 0.0491082 -3.1787e-20)
(0.460856 0.0513572 3.38485e-20)
(0.395657 0.0534272 -1.12012e-24)
(0.330361 0.0550503 0)
(0.265869 0.0558062 -4.17886e-20)
(0.203546 0.0551312 5.45374e-20)
(0.145276 0.0523757 -2.29964e-20)
(0.0933225 0.0469005 2.37693e-20)
(0.0500872 0.0381858 -7.51886e-25)
(0.0188131 0.0258972 3.87135e-25)
(0.00354355 0.00993922 3.17759e-25)
(1.14122 0.0828081 6.86848e-20)
(1.09564 0.0886848 0)
(1.04817 0.0948336 0)
(0.998526 0.101225 -8.022e-20)
(0.946839 0.107851 2.81215e-20)
(0.893197 0.114716 -2.07876e-21)
(0.837691 0.121818 5.58908e-20)
(0.780427 0.12915 0)
(0.721526 0.136704 7.04895e-20)
(0.661116 0.144466 5.16562e-20)
(0.599342 0.152402 0)
(0.536364 0.160425 -3.0893e-20)
(0.472385 0.168306 3.34481e-20)
(0.407706 0.175547 1.09121e-19)
(0.342821 0.181237 -3.75286e-20)
(0.278537 0.183963 7.49782e-22)
(0.216096 0.18186 -1.02497e-20)
(0.157236 0.1728 -9.03708e-20)
(0.104073 0.15471 9.45295e-20)
(0.0588813 0.125919 6.03855e-22)
(0.0248149 0.0853702 -7.52459e-20)
(0.00587454 0.0327792 -8.23915e-20)
(1.15004 0.138744 -7.00658e-20)
(1.10541 0.148758 -8.1471e-20)
(1.0592 0.159179 -3.21542e-21)
(1.01074 0.169996 -4.43639e-22)
(0.960239 0.181201 0)
(0.907792 0.192803 6.55406e-20)
(0.853488 0.204801 -7.56468e-20)
(0.797438 0.217189 3.29374e-23)
(0.739759 0.229953 -4.66987e-20)
(0.680582 0.243072 5.17078e-20)
(0.620044 0.256491 -1.66175e-19)
(0.558296 0.270061 3.08475e-20)
(0.495511 0.283395 -2.31684e-19)
(0.431922 0.295649 1.05278e-19)
(0.367902 0.305278 3.83515e-20)
(0.304068 0.309896 3.95163e-20)
(0.241408 0.306353 0)
(0.181365 0.291066 -4.34489e-20)
(0.12576 0.260556 0)
(0.0766162 0.212025 0)
(0.0369126 0.143718 -2.47861e-20)
(0.0105712 0.0551742 1.00218e-19)
(1.1622 0.191929 -4.79451e-21)
(1.11912 0.205961 2.30144e-19)
(1.07487 0.220512 9.00623e-20)
(1.02828 0.235636 2.86987e-21)
(0.979634 0.25131 0)
(0.92904 0.267546 1.92366e-19)
(0.876589 0.284341 -1.4282e-19)
(0.822396 0.301685 1.61305e-19)
(0.766583 0.319561 0)
(0.709278 0.337936 -9.70944e-20)
(0.650616 0.356737 5.50757e-20)
(0.590732 0.375753 0)
(0.529755 0.394444 2.5624e-19)
(0.467819 0.411624 -1.36476e-19)
(0.405116 0.425131 0)
(0.341979 0.431625 3.63019e-20)
(0.279015 0.426709 0)
(0.217231 0.405391 2.14279e-19)
(0.158006 0.362836 -1.76697e-19)
(0.102992 0.29518 0)
(0.0549069 0.20002 -1.89519e-19)
(0.0175545 0.0767594 -2.04573e-20)
(1.17767 0.242495 -4.06857e-21)
(1.13667 0.260414 -5.59817e-21)
(1.09503 0.278897 1.67742e-19)
(1.0509 0.298124 0)
(1.00471 0.318051 0)
(0.95657 0.338695 -2.47601e-19)
(0.906574 0.360054 -1.3606e-19)
(0.854844 0.382118 -2.3616e-19)
(0.801504 0.404867 1.70186e-19)
(0.746683 0.428261 9.67417e-20)
(0.690512 0.452207 -3.10874e-19)
(0.633104 0.47644 3.34411e-19)
(0.57453 0.50027 -6.24004e-20)
(0.514797 0.522186 0)
(0.453852 0.539427 -6.78071e-20)
(0.391657 0.547737 -7.56048e-20)
(0.328317 0.541512 0)
(0.26426 0.514411 0)
(0.200291 0.460316 4.06957e-20)
(0.137576 0.374368 0)
(0.0784961 0.253584 0)
(0.0267032 0.0972678 3.57203e-20)
(1.19603 0.289154 1.204e-19)
(1.15764 0.310787 -1.45462e-19)
(1.11922 0.332963 1.65581e-19)
(1.07814 0.35606 -1.82328e-19)
(1.03499 0.380001 0)
(0.989885 0.404805 -1.18705e-19)
(0.942923 0.430475 6.64444e-19)
(0.894233 0.457 -1.47975e-19)
(0.843943 0.484357 0)
(0.792185 0.512504 0)
(0.739084 0.541332 -1.89036e-21)
(0.684728 0.570524 1.02374e-19)
(0.62912 0.599254 0)
(0.572108 0.625702 -1.19259e-19)
(0.513345 0.64654 6.7591e-20)
(0.452329 0.656634 -6.67833e-20)
(0.38855 0.649232 0)
(0.321725 0.616713 3.0344e-19)
(0.251957 0.551754 -3.54708e-19)
(0.179825 0.448587 0)
(0.107304 0.303729 2.96427e-19)
(0.0378655 0.116436 -1.72866e-19)
(1.21683 0.331326 -2.34744e-19)
(1.18155 0.356444 0)
(1.14691 0.382015 0)
(1.10941 0.408689 0)
(1.06981 0.436344 0)
(1.02827 0.465004 -1.07883e-19)
(0.984866 0.494677 0)
(0.939747 0.525353 -2.76406e-19)
(0.893045 0.557008 -1.48024e-19)
(0.844894 0.589594 3.32011e-19)
(0.795412 0.62299 -2.77087e-19)
(0.744661 0.656837 0)
(0.692564 0.690183 2.15175e-19)
(0.638782 0.720926 -1.09701e-19)
(0.582624 0.745208 0)
(0.523042 0.757068 -1.8968e-19)
(0.458799 0.748669 4.72154e-19)
(0.388775 0.711186 -2.79076e-19)
(0.312252 0.636179 0)
(0.229128 0.517064 0)
(0.140915 0.349938 4.01664e-20)
(0.0508774 0.134071 3.03516e-20)
(1.23939 0.368313 2.12695e-19)
(1.20772 0.396669 0)
(1.17738 0.425322 1.46502e-19)
(1.14395 0.455249 -1.61341e-19)
(1.10841 0.486272 8.46645e-21)
(1.07092 0.518425 -2.98233e-19)
(1.03156 0.551724 -3.45729e-19)
(0.990489 0.586164 5.11353e-19)
(0.947853 0.621723 -1.39075e-19)
(0.903787 0.658358 1.47563e-19)
(0.858407 0.695937 -3.40471e-19)
(0.811749 0.73407 2.77071e-19)
(0.763648 0.771702 0)
(0.713565 0.806478 0)
(0.660416 0.834054 1.05484e-19)
(0.602535 0.8477 -1.10505e-19)
(0.537852 0.838562 -2.36271e-19)
(0.464291 0.796686 3.12221e-19)
(0.380196 0.712606 0)
(0.2847 0.579015 0)
(0.178802 0.391687 2.79052e-19)
(0.0655313 0.149971 -5.64322e-20)
(1.26296 0.399548 -6.16196e-19)
(1.23536 0.430813 1.2319e-19)
(1.20973 0.462177 1.33187e-19)
(1.18076 0.495003 -4.49771e-19)
(1.14969 0.529043 1.72726e-19)
(1.11665 0.564341 1.00251e-20)
(1.08176 0.600918 3.21722e-19)
(1.04518 0.638768 -1.22675e-19)
(1.00707 0.67787 0)
(0.967565 0.71818 1.35748e-19)
(0.926772 0.759565 0)
(0.884703 0.801609 -8.77002e-20)
(0.841102 0.843174 3.55313e-19)
(0.795208 0.881694 1.88351e-19)
(0.745508 0.912392 -4.08441e-19)
(0.689646 0.927835 4.16209e-19)
(0.624618 0.918227 -4.39048e-20)
(0.547278 0.872571 -1.11439e-19)
(0.454927 0.780465 0)
(0.345857 0.633978 -5.50846e-20)
(0.220506 0.428662 0)
(0.0816502 0.164025 7.47489e-20)
(1.28664 0.424877 -2.61736e-21)
(1.26361 0.458764 4.40112e-19)
(1.24311 0.492486 -2.46966e-19)
(1.21902 0.527808 1.44649e-19)
(1.19281 0.564412 -7.75371e-21)
(1.16459 0.602365 3.55277e-19)
(1.13451 0.641707 0)
(1.10275 0.682444 3.18053e-19)
(1.06948 0.724567 -4.6997e-19)
(1.03485 0.768037 1.20842e-19)
(0.998973 0.812727 0)
(0.961841 0.858214 -5.93703e-19)
(0.923112 0.903304 3.16829e-19)
(0.881804 0.945261 0)
(0.83595 0.978934 8.04613e-20)
(0.782449 0.996253 -2.7994e-19)
(0.717272 0.986547 1.3824e-20)
(0.636082 0.937848 5.1871e-20)
(0.535028 0.838905 1.51699e-19)
(0.411485 0.681266 -1.48652e-19)
(0.265292 0.460385 0)
(0.0989477 0.176039 -7.44764e-21)
(1.30953 0.443814 -1.79853e-19)
(1.29142 0.479874 0)
(1.27624 0.51557 -2.14162e-19)
(1.25726 0.553064 1.2584e-19)
(1.23618 0.591939 -1.48431e-19)
(1.21311 0.632263 3.10991e-19)
(1.18821 0.674076 -1.74199e-19)
(1.16166 0.717382 -2.84423e-19)
(1.13365 0.762178 0)
(1.10433 0.808433 -2.27822e-19)
(1.07382 0.856023 1.29928e-19)
(1.04209 0.904528 1.38896e-19)
(1.00872 0.952721 0)
(0.972484 0.997738 6.73057e-20)
(0.930946 1.03412 -2.97138e-19)
(0.880196 1.05324 3.13446e-19)
(0.81509 1.04365 1.40399e-20)
(0.730002 0.992513 0)
(0.619843 0.887831 2.08319e-19)
(0.481021 0.720746 -1.68813e-19)
(0.312761 0.486734 0)
(0.117264 0.185969 -4.03467e-20)
(1.33071 0.457104 2.88043e-21)
(1.31812 0.495106 4.62914e-21)
(1.30864 0.532347 1.02744e-20)
(1.29509 0.571444 0)
(1.27935 0.611941 0)
(1.26155 0.653954 -2.84928e-19)
(1.24189 0.697544 1.4903e-19)
(1.22061 0.742732 1.80638e-19)
(1.19791 0.789526 9.79151e-21)
(1.17396 0.837907 -2.94919e-19)
(1.14891 0.887771 1.13973e-19)
(1.1227 0.938719 -1.1836e-19)
(1.09486 0.989533 3.49117e-19)
(1.06398 1.03728 -6.65574e-20)
(1.02713 1.07626 0)
(0.979582 1.09736 0)
(0.915 1.08838 7.15487e-20)
(0.826342 1.03566 0)
(0.707144 0.926518 5.69486e-20)
(0.552771 0.75182 0)
(0.361815 0.507253 1.06923e-19)
(0.136175 0.193612 -2.29689e-19)
(1.34921 0.463599 -2.8651e-19)
(1.34222 0.503088 3.31152e-19)
(1.33836 0.541768 1.81012e-19)
(1.33045 0.582441 -2.06271e-19)
(1.32037 0.624544 0)