/*--------------------------------*- C++ -*----------------------------------*\
| =========                 |                                                 |
| \\      /  F ield         | OpenFOAM Extend Project: Open source CFD        |
|  \\    /   O peration     | Version:  1.6-ext                               |
|   \\  /    A nd           | Web:      www.extend-project.de                 |
|    \\/     M anipulation  |                                                 |
\*---------------------------------------------------------------------------*/
FoamFile
{
    version     2.0;
    format      ascii;
    class       volVectorField;
    location    "0.45";
    object      U_0;
}
// * * * * * * * * * * * * * * * * * * * * * * * * * * * * * * * * * * * * * //

dimensions      [0 1 -1 0 0 0 0];

internalField   nonuniform List<vector> 
20940
(
(1.85447 0.389828 0)
(1.89489 0.409949 -6.70705e-25)
(1.93321 0.429396 2.74357e-21)
(1.96858 0.447119 3.91767e-21)
(2.00076 0.463348 1.09888e-20)
(2.02814 0.476983 -6.62459e-21)
(2.04784 0.486953 1.76039e-20)
(2.05509 0.49135 -2.18867e-20)
(2.04353 0.48796 6.44124e-21)
(2.00598 0.474528 0)
(1.93603 0.449458 -9.80335e-21)
(1.82984 0.412421 5.60231e-24)
(1.68759 0.36474 1.34857e-20)
(1.51391 0.309318 7.12774e-22)
(1.31718 0.250116 -7.99414e-21)
(1.10788 0.191396 0)
(0.896685 0.137004 -9.45601e-21)
(0.692914 0.0899035 -5.03578e-21)
(0.503593 0.051973 0)
(0.333208 0.0240415 0)
(0.183915 0.00663573 5.829e-21)
(0.056003 0.000479708 0)
(1.88144 0.365575 -7.36156e-22)
(1.92064 0.384554 -3.36334e-21)
(1.95742 0.402204 -2.73967e-21)
(1.9907 0.418171 5.29441e-21)
(2.01971 0.432143 -1.54726e-20)
(2.042 0.442951 -6.99279e-21)
(2.05367 0.449223 -1.96279e-20)
(2.049 0.448954 3.85278e-20)
(2.0212 0.440078 1.39097e-20)
(1.96362 0.420871 0)
(1.87152 0.390609 9.74441e-21)
(1.74367 0.35 2.22171e-20)
(1.58322 0.301273 -3.87049e-20)
(1.39732 0.247816 -1.19526e-21)
(1.19581 0.193524 7.47559e-21)
(0.989365 0.142093 3.46303e-20)
(0.787778 0.0964943 -2.69993e-20)
(0.598859 0.0587432 -4.57631e-21)
(0.427982 0.0298761 -3.10522e-20)
(0.278162 0.0100882 4.35738e-20)
(0.150475 -0.000521373 -2.838e-20)
(0.0445903 -0.00147494 0)
(1.90616 0.341246 6.78106e-21)
(1.94382 0.359159 -1.06946e-20)
(1.97855 0.375129 1.1864e-20)
(2.00891 0.38937 0)
(2.03339 0.401009 2.5603e-20)
(2.04855 0.408799 -1.19624e-20)
(2.04943 0.411123 -1.77565e-20)
(2.02964 0.406033 -1.14623e-20)
(1.9825 0.391816 -1.38813e-20)
(1.90265 0.367468 0)
(1.78773 0.333223 0)
(1.63948 0.290725 -2.21829e-20)
(1.46386 0.242828 8.73396e-20)
(1.26993 0.193042 -5.38748e-20)
(1.06816 0.144866 1.53804e-20)
(0.86864 0.101236 -3.30788e-20)
(0.679777 0.0642229 5.19208e-20)
(0.507671 0.0349909 4.73403e-20)
(0.356071 0.0139007 -4.84441e-20)
(0.226679 0.00068274 6.21003e-20)
(0.11968 -0.00486676 -7.61489e-20)
(0.0342682 -0.00246836 4.4786e-20)
(1.92974 0.31722 5.89956e-21)
(1.96542 0.334149 -2.23488e-20)
(1.99732 0.348498 -1.60281e-20)
(2.02351 0.360943 1.77335e-20)
(2.04147 0.370048 0)
(2.0467 0.374516 0)
(2.03332 0.372602 -4.06791e-20)
(1.99476 0.362615 4.44537e-20)
(1.92527 0.34341 -5.78338e-20)
(1.82159 0.314854 2.91084e-20)
(1.68429 0.278115 3.63567e-20)
(1.51817 0.235559 0)
(1.33148 0.190314 -2.42363e-20)
(1.13436 0.145653 2.57485e-20)
(0.937008 0.10443 0)
(0.748255 0.0687324 0)
(0.574777 0.0397864 -1.713e-20)
(0.420916 0.0180528 0)
(0.288924 0.00338649 -5.65116e-20)
(0.179403 -0.00479176 7.74424e-20)
(0.091843 -0.00687349 -1.05674e-20)
(0.0251068 -0.00269984 -2.56324e-20)
(1.9519 0.293578 -1.80726e-20)
(1.98498 0.309536 -2.82261e-20)
(2.01296 0.322241 -3.78174e-20)
(2.03319 0.332726 5.96915e-20)
(2.04198 0.339019 -2.28918e-20)
(2.0338 0.339858 3.59395e-21)
(2.00233 0.333541 -7.79732e-20)
(1.94155 0.31886 4.46946e-20)
(1.84755 0.295422 -5.69134e-20)
(1.71992 0.264002 6.17638e-20)
(1.56241 0.226543 -1.10426e-19)
(1.38248 0.185809 1.20557e-19)
(1.18985 0.144831 9.11057e-20)
(0.994707 0.106352 -1.2612e-19)
(0.806193 0.0724478 5.40916e-20)
(0.631426 0.0443846 -5.97853e-20)
(0.475227 0.0226747 3.19193e-20)
(0.340288 0.00724831 0)
(0.227593 -0.00237768 -7.19347e-20)
(0.136882 -0.00695715 1.30729e-19)
(0.0671625 -0.00697495 2.01584e-20)
(0.0171128 -0.00233345 -6.42119e-20)
(1.97216 0.270409 3.90407e-20)
(2.00173 0.285369 -2.68989e-20)
(2.02417 0.296325 6.3189e-20)
(2.03596 0.304588 0)
(2.03218 0.307738 2.84299e-20)
(2.00665 0.3047 -9.45678e-20)
(1.95328 0.294038 -4.08235e-20)
(1.86763 0.275237 1.38859e-19)
(1.74847 0.248741 -5.2331e-20)
(1.59867 0.216129 6.36373e-20)
(1.42491 0.179829 -3.30985e-20)
(1.23649 0.14263 -4.01245e-20)
(1.04354 0.107144 -1.8232e-21)
(0.855376 0.0754095 0)
(0.679488 0.0487162 -5.26128e-20)
(0.521077 0.0276223 1.12348e-19)
(0.383189 0.0120988 -5.81695e-20)
(0.267107 0.0017191 0)
(0.172822 -0.00419265 0)
(0.0994673 -0.00645946 -3.46868e-20)
(0.0457504 -0.00559287 -9.55756e-22)
(0.0102883 -0.00152087 6.30587e-20)
(1.99017 0.247537 -2.28188e-20)
(2.01477 0.261344 2.53575e-20)
(2.02932 0.270331 3.60256e-20)
(2.02934 0.276055 4.48488e-20)
(2.00894 0.2758 5.34625e-20)
(1.96196 0.268872 3.25462e-20)
(1.88357 0.254317 0)
(1.77185 0.232438 -9.14897e-20)
(1.62888 0.204458 -5.42238e-20)
(1.46068 0.172511 1.18338e-19)
(1.27612 0.139146 6.89871e-20)
(1.08522 0.106836 -3.72566e-20)
(0.897468 0.0775665 -4.25368e-20)
(0.720615 0.0526334 0)
(0.56019 0.0326337 0)
(0.419526 0.0175834 -1.0767e-19)
(0.300135 0.007089 2.00229e-19)
(0.202191 0.000519591 9.45834e-22)
(0.12498 -0.00288063 -9.52211e-20)
(0.0672521 -0.00392976 3.46355e-20)
(0.0275749 -0.00312438 -1.80846e-20)
(0.00459159 -0.00039961 2.96379e-20)
(2.0045 0.224943 0)
(2.02201 0.237394 0)
(2.02554 0.244147 4.06424e-20)
(2.00982 0.247023 -8.75342e-20)
(1.96858 0.24325 0)
(1.89668 0.232728 0)
(1.79161 0.215147 8.00939e-20)
(1.65476 0.191616 -4.23609e-20)
(1.49155 0.163927 1.03713e-19)
(1.31046 0.134419 -1.73805e-19)
(1.12143 0.105414 0)
(0.93405 0.0788313 -3.68395e-20)
(0.756333 0.0559619 8.04138e-20)
(0.594078 0.0374324 -1.28447e-19)
(0.45086 0.0233033 -1.4113e-19)
(0.328373 0.0132245 -1.77066e-21)
(0.226918 0.00659388 2.17262e-19)
(0.145877 0.00269418 -8.64617e-20)
(0.0840897 0.000768096 3.13102e-20)
(0.0401136 4.79477e-05 -6.45892e-20)
(0.0124898 7.41409e-05 6.66184e-20)
(-5.18949e-05 0.000910948 4.19529e-20)
(2.01408 0.202097 0)
(2.02143 0.212842 3.24064e-20)
(2.00994 0.217069 -1.51852e-19)
(1.97406 0.216967 -4.23652e-21)
(1.90812 0.209942 1.11445e-19)
(1.80916 0.196626 4.31703e-21)
(1.67789 0.177378 -1.53528e-19)
(1.51919 0.15393 2.20387e-19)
(1.34121 0.12832 -2.51076e-19)
(1.1538 0.102744 1.67985e-19)
(0.966692 0.0790394 0)
(0.788124 0.0584847 -6.81801e-20)
(0.624152 0.0417299 0)
(0.478564 0.0288785 4.22707e-20)
(0.353208 0.0196282 1.3637e-19)
(0.248478 0.0134201 -9.58641e-20)
(0.163808 0.00956519 0)
(0.0980765 0.00734138 8.27242e-20)
(0.0498908 0.00603808 -1.15658e-19)
(0.0177541 0.00496176 1.23001e-19)
(0.000261544 0.00369859 1.44474e-21)
(-0.00373972 0.00231203 -8.08719e-20)
(2.01558 0.179137 4.77079e-20)
(2.0091 0.187909 0)
(1.97832 0.1895 -2.61931e-21)
(1.91837 0.186531 9.30971e-20)
(1.82532 0.176856 1.48066e-21)
(1.69945 0.161882 -6.38228e-20)
(1.54501 0.142519 7.74731e-20)
(1.3699 0.120827 -2.16195e-19)
(1.1839 0.0987477 9.59274e-20)
(0.996917 0.0780655 1.10261e-19)
(0.817433 0.0600207 -1.19384e-19)
(0.651767 0.0452818 2.00273e-19)
(0.503916 0.03399 -4.50601e-22)
(0.375863 0.0258909 7.99206e-20)
(0.268075 0.0204743 -1.71551e-19)
(0.180018 0.0170934 4.62607e-20)
(0.110574 0.0150548 -5.10056e-20)
(0.058357 0.0136806 1.04437e-19)
(0.0218992 0.0123314 2.72685e-20)
(-0.000253484 0.0103963 0)
(-0.00940616 0.00750862 -1.22581e-19)
(-0.006585 0.0037283 7.64007e-20)
(2.00762 0.155056 -5.64573e-20)
(1.98265 0.161587 1.31753e-19)
(1.92835 0.160635 -7.66059e-20)
(1.84139 0.155385 -4.83539e-20)
(1.72082 0.144228 1.10413e-19)
(1.5706 0.12917 0)
(1.39819 0.111416 0)
(1.21341 0.0930046 1.697e-19)
(1.02634 0.0755189 -9.34502e-20)
(0.845777 0.0602021 0)
(0.678326 0.0477198 -1.1748e-19)
(0.528199 0.0382519 6.18737e-20)
(0.397516 0.0315913 -7.0971e-20)
(0.286808 0.027279 -7.65774e-20)
(0.195553 0.0247168 1.64382e-19)
(0.122624 0.023253 -8.63308e-20)
(0.0666132 0.0222386 -1.43456e-19)
(0.0260454 0.0210648 4.82743e-20)
(-0.000511792 0.0191721 7.87118e-20)
(-0.0144126 0.0160324 2.74691e-20)
(-0.0168423 0.0113249 1.17334e-19)
(-0.00870678 0.00510534 -9.89587e-20)
(1.9842 0.131086 5.80197e-21)
(1.93735 0.13546 -6.48549e-20)
(1.85663 0.132447 0)
(1.74223 0.125733 -4.76801e-20)
(1.59655 0.1143 0)
(1.42712 0.100528 0)
(1.24357 0.0856536 7.31703e-20)
(1.05632 0.0714195 -8.29677e-20)
(0.874506 0.0589158 9.30004e-20)
(0.705109 0.0488401 -5.05227e-20)
(0.552599 0.0413861 1.69002e-19)
(0.419254 0.0363897 -2.46517e-19)
(0.30567 0.0334377 1.33514e-19)
(0.211331 0.0319785 -7.35665e-20)
(0.135085 0.0314034 7.84219e-20)
(0.0754914 0.0310998 -4.23418e-20)
(0.0310456 0.0304841 9.03008e-20)
(0.000305338 0.0290225 -9.67678e-20)
(-0.0180592 0.0262328 0)
(-0.0252725 0.0216647 -1.61623e-19)
(-0.0223961 0.0150411 8.41404e-20)
(-0.0102298 0.00641554 -1.19526e-19)
(1.94743 0.105199 0)
(1.87388 0.107652 0)
(1.76554 0.103463 -8.47569e-20)
(1.62506 0.0965495 1.43161e-19)
(1.45866 0.0864677 -5.45167e-20)
(1.27637 0.0754811 0)
(1.0887 0.0646466 6.47064e-22)
(0.905336 0.0552168 -7.96758e-20)
(0.733654 0.0477916 9.0291e-20)
(0.578476 0.0426146 -1.48069e-19)
(0.442267 0.0395538 -5.49212e-20)
(0.325705 0.0382464 0)
(0.228274 0.0381896 0)
(0.148784 0.0388197 0)
(0.0857413 0.0395628 3.76048e-20)
(0.037599 0.039866 -4.03996e-20)
(0.00288515 0.039215 -4.31824e-20)
(-0.0197359 0.0371463 -9.21591e-20)
(-0.0314568 0.033247 9.79196e-20)
(-0.033362 0.0271371 7.84339e-22)
(-0.0263947 0.0185825 1.09275e-19)
(-0.0112664 0.00764046 -6.89843e-20)
(1.88675 0.081911 -6.10805e-20)
(1.78857 0.0830484 1.40369e-19)
(1.65377 0.0784048 -7.83698e-20)
(1.49197 0.0722215 -9.42318e-20)
(1.31149 0.0642973 0)
(1.12378 0.0566237 6.26864e-20)
(0.938824 0.0499858 1.41767e-19)
(0.764675 0.0451077 1.3369e-21)
(0.606562 0.0421773 1.31291e-22)
(0.467246 0.0410998 -9.68397e-20)
(0.347528 0.0415424 5.25464e-20)
(0.246921 0.0430454 5.72217e-20)
(0.164194 0.045086 0)
(0.0977922 0.0471258 0)
(0.0461052 0.0486389 -1.09834e-19)
(0.00761392 0.0491286 7.89552e-20)
(-0.0190428 0.0481376 4.27131e-20)
(-0.0350564 0.0452573 4.54607e-20)
(-0.0414711 0.04013 0)
(-0.0392338 0.0324334 2.53102e-20)
(-0.0291785 0.0219709 5.22134e-20)
(-0.0119391 0.00880484 0)
(1.81864 0.0551079 -5.68978e-20)
(1.68974 0.0556992 -7.13103e-20)
(1.53225 0.0526546 -1.18457e-21)
(1.35401 0.0482876 -4.8447e-20)
(1.16576 0.0439559 5.34099e-20)
(0.978712 0.0405509 -1.23334e-19)
(0.801349 0.0386104 -1.38764e-19)
(0.639535 0.0383036 -5.46399e-22)
(0.496372 0.0395164 -8.53175e-20)
(0.372877 0.0419617 0)
(0.268626 0.0452422 5.15073e-20)
(0.182366 0.0489067 -5.62554e-20)
(0.112468 0.0524801 0)
(0.0572298 0.0554832 0)
(0.0150477 0.0574467 7.16149e-20)
(-0.0154986 0.0579221 3.80059e-20)
(-0.0356304 0.0564924 -1.628e-19)
(-0.0463876 0.0527844 8.62506e-20)
(-0.0486687 0.0464767 0)
(-0.04329 0.037291 9.66522e-20)
(-0.0309865 0.0250635 -2.50441e-20)
(-0.0123264 0.00986546 -1.53909e-19)
(1.67747 0.0368138 6.7544e-20)
(1.51615 0.0345896 1.53635e-19)
(1.33586 0.0330546 1.32829e-19)
(1.14793 0.0313768 -1.52861e-19)
(0.962248 0.0309496 0)
(0.787152 0.0317731 -4.04106e-22)
(0.627951 0.033976 -7.24701e-20)
(0.487515 0.0373632 7.97569e-20)
(0.366628 0.0416647 8.84103e-20)
(0.264708 0.0465434 2.52997e-22)
(0.180368 0.0516269 5.2731e-20)
(0.111868 0.0565214 5.73152e-20)
(0.0574132 0.0608174 0)
(0.0153284 0.0640969 0)
(-0.0158541 0.0659431 -7.18299e-20)
(-0.0373755 0.0659526 7.75592e-20)
(-0.0502688 0.0637508 -8.19261e-20)
(-0.0553968 0.0590084 -4.31452e-20)
(-0.0535002 0.051456 -1.37152e-19)
(-0.0452578 0.0408833 1.42905e-19)
(-0.0312943 0.0271933 -2.46149e-20)
(-0.0121105 0.0104979 -2.17825e-20)
(1.42961 0.0160693 -6.86122e-20)
(1.24674 0.0157886 -7.97849e-20)
(1.06134 0.0183148 0)
(0.882375 0.020812 2.11188e-19)
(0.716378 0.0248195 0)
(0.567504 0.0295464 1.99953e-19)
(0.437556 0.0350316 3.6772e-22)
(0.326645 0.0409729 -8.16115e-20)
(0.233748 0.0471418 8.97883e-20)
(0.157238 0.0532722 -4.87448e-20)
(0.0952645 0.0590807 -1.6019e-19)
(0.0459982 0.0642575 -5.82493e-20)
(0.00777699 0.0684682 0)
(-0.0208325 0.0713601 -6.71903e-20)
(-0.0410234 0.0725743 1.91014e-22)
(-0.0537708 0.0717624 -4.51197e-22)
(-0.0598701 0.0686051 -4.38172e-22)
(-0.059982 0.0628311 1.29861e-19)
(-0.0546776 0.0542328 9.17151e-20)
(-0.0444848 0.0426704 -1.42248e-19)
(-0.0298948 0.028109 2.47799e-20)
(-0.0113107 0.0106765 8.41753e-20)
(1.14447 0.00493703 0)
(0.963091 0.00729945 1.28649e-19)
(0.793357 0.0135367 -4.76521e-20)
(0.638023 0.0190472 6.21747e-22)
(0.500782 0.0258202 4.15561e-22)
(0.382195 0.0327077 -1.34816e-19)
(0.281898 0.0398184 -1.50258e-19)
(0.198486 0.0468741 8.24471e-20)
(0.130196 0.0537183 -9.11793e-20)
(0.0751309 0.0601511 1.98137e-19)
(0.0314859 0.0659541 -1.08285e-19)
(-0.0023541 0.0708749 1.74852e-19)
(-0.0277671 0.0746292 1.26036e-19)
(-0.0458908 0.0769088 6.79328e-20)
(-0.0576452 0.0773961 3.60046e-20)
(-0.0637677 0.0757827 7.72311e-20)
(-0.0648549 0.0717905 -8.13969e-20)
(-0.0614028 0.0651915 8.60121e-20)
(-0.0538435 0.0558231 -1.3441e-19)
(-0.0425796 0.043595 1.87026e-19)
(-0.0279913 0.0285123 -9.66271e-20)
(-0.010402 0.0107011 0)
(0.858978 0.000582491 0)
(0.697038 0.0062567 -1.31415e-19)
(0.555012 0.0148607 -4.99543e-20)
(0.42964 0.0222927 -1.10997e-19)
(0.323079 0.0303641 1.86494e-19)
(0.233575 0.0380731 6.97284e-20)
(0.159841 0.0455809 6.64049e-22)
(0.0999151 0.052705 9.85797e-23)
(0.0519554 0.0593681 0)
(0.0142022 0.0654367 -5.02381e-20)
(-0.0148874 0.0707466 1.09058e-19)
(-0.0366258 0.0750883 -5.8515e-20)
(-0.0520935 0.0782119 -2.53472e-19)
(-0.0621605 0.0798381 -4.90054e-22)
(-0.067518 0.0796755 -3.64153e-20)
(-0.0687141 0.0774408 0)
(-0.0661902 0.0728809 0)
(-0.0603136 0.0657925 1.27681e-19)
(-0.0514058 0.0560375 -8.89426e-20)
(-0.0397658 0.0435511 0)
(-0.0256814 0.0283535 0)
(-0.00940733 0.0105564 -1.99936e-20)
(0.599185 0.00324842 1.18615e-19)
(0.466692 0.0113698 -4.42169e-20)
(0.355988 0.0204511 1.00611e-19)
(0.260883 0.0283842 0)
(0.182585 0.0363089 2.79615e-22)
(0.118401 0.0436603 -6.94747e-20)
(0.066853 0.0506004 0)
(0.0260051 0.0570475 -8.49041e-20)
(-0.00575955 0.0629741 0)
(-0.0299053 0.0682889 0)
(-0.0476623 0.072857 0)
(-0.0600486 0.0764912 5.88029e-20)
(-0.0678859 0.0789604 3.15908e-20)
(-0.0718267 0.080002 0)
(-0.0723847 0.0793408 3.59602e-20)
(-0.0699653 0.0767098 0)
(-0.0648944 0.0718712 4.0119e-20)
(-0.0574438 0.0646351 -4.26146e-20)
(-0.0478503 0.054874 0)
(-0.0363317 0.0425315 1.14097e-19)
(-0.0231021 0.0276241 -2.33284e-20)
(-0.00836057 0.0102361 -5.91291e-20)
(0.38034 0.0106733 -3.93665e-20)
(0.279375 0.019444 4.60285e-20)
(0.197914 0.0275897 0)
(0.129686 0.0347903 0)
(0.075155 0.0415861 0)
(0.0316443 0.0478108 7.08126e-20)
(-0.00220472 0.0536028 -1.94248e-19)
(-0.028052 0.0589521 8.50779e-20)
(-0.0472103 0.0638523 -9.34649e-20)
(-0.0608361 0.0682317 1.01218e-19)
(-0.0698783 0.0719677 1.64753e-19)
(-0.0751102 0.0748834 -1.47915e-19)
(-0.0771485 0.0767576 -3.17615e-20)
(-0.0764795 0.0773389 -1.69567e-19)
(-0.0734844 0.0763639 3.58129e-20)
(-0.0684643 0.0735774 0)
(-0.0616616 0.0687517 -6.0355e-20)
(-0.0532788 0.0617036 -2.08742e-20)
(-0.0434908 0.0523072 0)
(-0.0324541 0.040503 -2.27625e-20)
(-0.0203286 0.0262914 3.39616e-22)
(-0.00727419 0.00971986 8.72179e-20)
(0.20572 0.0205412 -4.03775e-20)
(0.133236 0.0279777 -4.58845e-20)
(0.0765158 0.0342389 -5.13613e-20)
(0.0304767 0.0398084 -5.76639e-20)
(-0.0049972 0.0448991 -6.45062e-20)
(-0.0321636 0.0495708 2.12956e-19)
(-0.0521935 0.053933 -1.56275e-19)
(-0.066421 0.0580069 1.2835e-19)
(-0.0758785 0.061784 9.38768e-20)
(-0.0814544 0.0651942 -5.08936e-20)
(-0.0838668 0.068115 -5.52927e-20)
(-0.083693 0.0703727 2.97806e-20)
(-0.0813902 0.071753 3.16523e-20)
(-0.0773178 0.0720146 3.40713e-20)
(-0.0717583 0.0709064 -7.20254e-20)
(-0.0649365 0.068185 7.59667e-20)
(-0.0570353 0.0636327 2.0074e-20)
(-0.0482089 0.057071 2.09747e-20)
(-0.0385892 0.0483726 0)
(-0.0282899 0.0374697 0)
(-0.0174356 0.0243409 2.31123e-20)
(-0.00616506 0.00899319 -9.59875e-21)
(0.0706285 0.0301432 0)
(0.022 0.0348646 0)
(-0.0145294 0.0387049 -5.21059e-20)
(-0.0427501 0.0421944 2.32682e-22)
(-0.0631599 0.0453886 0)
(-0.0775377 0.048408 -7.16919e-20)
(-0.0868678 0.0513227 3.94568e-20)
(-0.0921814 0.0541488 -4.32379e-20)
(-0.0942672 0.0568598 0)
(-0.0937856 0.059376 -5.1225e-20)
(-0.091262 0.0615702 2.749e-20)
(-0.0871139 0.0632712 0)
(-0.0816705 0.0642734 6.33541e-20)
(-0.0751914 0.064349 -6.76682e-20)
(-0.0678839 0.0632631 1.07572e-19)
(-0.0599163 0.0607887 -7.56841e-20)
(-0.0514295 0.0567214 -5.9642e-20)
(-0.0425453 0.0508906 6.22206e-20)
(-0.0333684 0.0431696 2.13768e-20)
(-0.0239856 0.0334828 -8.85189e-20)
(-0.0145034 0.0217873 1.70259e-19)
(-0.00505636 0.0080529 -8.44148e-20)
(-0.0319498 0.0367293 -4.18075e-20)
(-0.060711 0.0383927 4.70245e-20)
(-0.0806658 0.0397837 5.26764e-20)
(-0.0945749 0.0412231 5.87595e-20)
(-0.103087 0.0426761 9.77565e-20)
(-0.107539 0.0442232 -3.57499e-20)
(-0.108709 0.0458838 3.94066e-20)
(-0.107344 0.0476453 -1.29816e-19)
(-0.104008 0.0494567 1.41302e-19)
(-0.0991558 0.0512263 1.56658e-22)
(-0.0931453 0.0528242 -8.28808e-20)
(-0.0862573 0.054086 -8.90449e-20)
(-0.0787148 0.0548209 9.51709e-20)
(-0.0706974 0.0548212 -6.75908e-20)
(-0.0623531 0.0538748 -3.59538e-20)
(-0.0538085 0.0517776 0)
(-0.045175 0.048345 -1.98481e-20)
(-0.036554 0.0434211 -6.16368e-20)
(-0.0280346 0.0368858 -2.1334e-20)
(-0.0196904 0.0286619 1.10803e-20)
(-0.0116239 0.0186908 9.01088e-20)
(-0.00397903 0.00691347 -6.46845e-20)
(-0.106282 0.0381523 -6.26259e-23)
(-0.118377 0.0373472 -9.49245e-20)
(-0.124751 0.0368158 -7.97415e-20)
(-0.127343 0.0366813 5.8727e-20)
(-0.12672 0.0368473 -3.2753e-20)
(-0.123788 0.0373218 -3.61579e-20)
(-0.119074 0.0380731 4.72981e-24)
(-0.113051 0.0390554 2.09169e-22)
(-0.106061 0.0401983 0)
(-0.0983732 0.0414044 2.5574e-20)
(-0.0901961 0.0425499 -5.53755e-20)
(-0.0816955 0.0434866 8.91678e-20)
(-0.0730074 0.0440467 0)
(-0.0642477 0.0440505 8.44633e-20)
(-0.0555198 0.0433161 -7.14933e-20)
(-0.0469193 0.0416695 -1.8776e-20)
(-0.0385374 0.0389533 0)
(-0.0304631 0.0350342 9.21684e-20)
(-0.0227787 0.0298083 -7.43145e-20)
(-0.0155533 0.0232056 -1.09522e-20)
(-0.00889569 0.015164 1.12003e-20)
(-0.00296884 0.00560951 -7.31573e-20)
(-0.152185 0.0339155 8.56028e-20)
(-0.151088 0.0317153 2.63668e-22)
(-0.147159 0.0301288 2.66938e-20)
(-0.141594 0.0291452 5.95541e-20)
(-0.134702 0.0286265 -9.84214e-20)
(-0.126969 0.0285174 7.24486e-20)
(-0.118644 0.0287494 -3.96859e-20)
(-0.109941 0.0292563 0)
(-0.101006 0.029962 0)
(-0.0919481 0.0307769 -2.57304e-20)
(-0.0828575 0.0315956 5.54759e-20)
(-0.0738102 0.032296 -7.43127e-20)
(-0.0648771 0.0327426 0)
(-0.0561288 0.0327909 -1.69332e-20)
(-0.047637 0.0322949 -7.14787e-20)
(-0.0394765 0.0311157 1.87947e-19)
(-0.0317249 0.0291289 -1.57239e-19)
(-0.0244634 0.0262304 7.15626e-20)
(-0.0177706 0.0223414 -1.05943e-20)
(-0.0117162 0.0174112 -8.67928e-20)
(-0.00641875 0.0113886 1.77517e-19)
(-0.00206427 0.00420339 -7.72112e-20)
(-0.16715 0.024998 -4.33009e-20)
(-0.157528 0.0226033 4.79446e-20)
(-0.147429 0.0209147 -2.6952e-20)
(-0.137392 0.0198385 2.97076e-20)
(-0.127405 0.0192209 0)
(-0.117592 0.0189757 0)
(-0.107963 0.0190258 0)
(-0.0985332 0.0193069 -6.55803e-20)
(-0.0893027 0.0197566 4.74427e-20)
(-0.0802741 0.0203079 1.28742e-20)
(-0.0714564 0.0208854 0)
(-0.0628691 0.0214023 -4.47518e-20)
(-0.0545434 0.0217616 6.3646e-20)
(-0.0465226 0.0218586 5.07717e-20)
(-0.0388604 0.0215864 -7.1515e-20)
(-0.0316191 0.0208427 -1.88196e-20)
(-0.0248675 0.0195369 7.85572e-20)
(-0.0186802 0.0175968 1.01101e-20)
(-0.0131314 0.0149741 -4.23084e-20)
(-0.00828872 0.0116465 -5.51666e-21)
(-0.00427634 0.00759183 -5.66744e-21)
(-0.00129833 0.002771 -3.16469e-20)
(-0.150137 0.014338 -2.1825e-20)
(-0.137735 0.0126183 1.20218e-20)
(-0.126225 0.0114734 2.71114e-20)
(-0.115666 0.0107795 -4.48751e-20)
(-0.105812 0.010403 0)
(-0.0965671 0.010266 0)
(-0.0878094 0.0103095 0)
(-0.0794552 0.010491 1.09624e-20)
(-0.0714376 0.010774 3.58599e-20)
(-0.0637116 0.011122 -1.16291e-19)
(-0.0562521 0.0114935 -1.29974e-22)
(-0.0490542 0.0118401 5.97568e-20)
(-0.0421318 0.0121046 7.98676e-21)
(-0.0355159 0.0122228 8.47803e-21)
(-0.0292518 0.0121261 0)
(-0.0233955 0.0117465 9.42032e-21)
(-0.0180098 0.0110238 0)
(-0.0131622 0.00991252 -1.53366e-20)
(-0.00891818 0.00839031 0)
(-0.00533628 0.00646376 5.42224e-21)
(-0.00252995 0.00414892 5.53463e-21)
(-0.000700165 0.00146075 2.25694e-21)
(-0.104965 0.00470481 -3.2746e-20)
(-0.0952848 0.00409673 1.21847e-20)
(-0.0866347 0.00374732 0)
(-0.0789171 0.00357567 5.28032e-20)
(-0.0718502 0.00351082 -3.31968e-20)
(-0.0653062 0.00351905 0)
(-0.0591635 0.00357905 3.53117e-20)
(-0.053341 0.00367903 -7.69823e-20)
(-0.0477774 0.00381042 5.79949e-21)
(-0.0424312 0.00396454 5.17765e-20)
(-0.0372779 0.00413009 0)
(-0.0323096 0.00429151 0)
(-0.0275345 0.00442782 -4.00496e-20)
(-0.0229764 0.00451229 4.24994e-20)
(-0.0186727 0.0045131 0)
(-0.014672 0.00439525 2.83073e-20)
(-0.0110303 0.00412445 -8.13339e-20)
(-0.00780651 0.00367337 4.60998e-20)
(-0.0050554 0.00303189 0)
(-0.00281917 0.00221921 0)
(-0.00117389 0.00128486 4.43093e-20)
(-0.000273015 0.000330463 -3.84001e-20)
(-0.0391489 0.000101847 1.08475e-20)
(-0.0357526 9.32751e-05 1.61001e-22)
(-0.0326659 0.000114308 -2.64079e-20)
(-0.02989 0.000148115 -7.34913e-21)
(-0.0273023 0.000181791 -1.62167e-20)
(-0.024872 0.000213106 1.77559e-20)
(-0.0225638 0.000242104 4.8966e-21)
(-0.020357 0.00027059 2.12464e-20)
(-0.0182343 0.000300634 -1.72247e-20)
(-0.0161827 0.000334018 0)
(-0.0141929 0.000371806 -2.6203e-23)
(-0.0122604 0.000413932 0)
(-0.0103866 0.000458746 -1.49704e-23)
(-0.00857997 0.000502464 3.25593e-20)
(-0.00685696 0.000538616 -3.43253e-20)
(-0.00524276 0.000557685 0)
(-0.00377087 0.000547326 2.34721e-21)
(-0.00248203 0.00049395 9.5475e-24)
(-0.00141986 0.000387322 0)
(-0.00062219 0.000228882 0)
(-0.000127631 4.29265e-05 0)
(1.51617e-05 -8.81096e-05 0)
(1.13668 0.0268529 -5.38291e-25)
(1.09064 0.0286076 0)
(1.04256 0.030407 -2.38013e-20)
(0.992322 0.0322524 5.27531e-20)
(0.940045 0.0341498 -3.0136e-20)
(0.88581 0.0361059 0)
(0.829711 0.0381238 5.8097e-20)
(0.771853 0.0402048 -8.58712e-20)
(0.712356 0.0423483 2.33653e-20)
(0.65135 0.0445519 -8.03951e-25)
(0.588978 0.0468077 0)
(0.525409 0.0490919 -3.18373e-20)
(0.460858 0.0513405 3.3902e-20)
(0.395658 0.0534101 -1.12185e-24)
(0.330362 0.0550331 0)
(0.26587 0.0557892 -4.18515e-20)
(0.203547 0.0551149 5.46195e-20)
(0.145277 0.0523606 -2.30305e-20)
(0.0933227 0.0468874 2.38045e-20)
(0.0500872 0.0381754 -7.52993e-25)
(0.0188131 0.0258904 3.877e-25)
(0.00354351 0.0099367 3.18219e-25)
(1.14122 0.0827983 6.88404e-20)
(1.09564 0.0886744 0)
(1.04817 0.0948225 0)
(0.998528 0.101213 -8.03778e-20)
(0.946841 0.107838 2.81793e-20)
(0.893199 0.114703 -2.07877e-21)
(0.837692 0.121805 5.59942e-20)
(0.780429 0.129136 0)
(0.721527 0.13669 7.06112e-20)
(0.661118 0.144451 5.17437e-20)
(0.599343 0.152387 0)
(0.536365 0.160409 -3.09433e-20)
(0.472386 0.16829 3.35016e-20)
(0.407707 0.175531 1.09291e-19)
(0.342821 0.18122 -3.75885e-20)
(0.278537 0.183947 7.49795e-22)
(0.216096 0.181845 -1.02661e-20)
(0.157236 0.172786 -9.05073e-20)
(0.104072 0.154698 9.46707e-20)
(0.0588808 0.125909 6.03861e-22)
(0.0248145 0.0853638 -7.53573e-20)
(0.00587438 0.0327769 -8.25123e-20)
(1.15004 0.138734 -7.02209e-20)
(1.10542 0.148748 -8.16438e-20)
(1.0592 0.159168 -3.21543e-21)
(1.01074 0.169984 -4.43655e-22)
(0.96024 0.181188 0)
(0.907793 0.19279 6.56668e-20)
(0.853489 0.204788 -7.57844e-20)
(0.797439 0.217175 3.29162e-23)
(0.73976 0.229939 -4.67798e-20)
(0.680583 0.243057 5.17952e-20)
(0.620045 0.256476 -1.66457e-19)
(0.558296 0.270045 3.08978e-20)
(0.495511 0.283379 -2.32058e-19)
(0.431922 0.295633 1.05449e-19)
(0.367901 0.305262 3.84113e-20)
(0.304067 0.30988 3.95792e-20)
(0.241407 0.306338 0)
(0.181364 0.291053 -4.35172e-20)
(0.125759 0.260545 0)
(0.0766154 0.212016 0)
(0.036912 0.143712 -2.48232e-20)
(0.0105709 0.055172 1.00369e-19)
(1.1622 0.191919 -4.79451e-21)
(1.11913 0.20595 2.30661e-19)
(1.07487 0.2205 9.02524e-20)
(1.02828 0.235624 2.86987e-21)
(0.979635 0.251298 0)
(0.929041 0.267533 1.92743e-19)
(0.87659 0.284328 -1.43095e-19)
(0.822397 0.301672 1.61603e-19)
(0.766583 0.319547 0)
(0.709278 0.337922 -9.72688e-20)
(0.650617 0.356722 5.51694e-20)
(0.590732 0.375738 0)
(0.529755 0.394429 2.56667e-19)
(0.467819 0.411609 -1.36702e-19)
(0.405115 0.425115 0)
(0.341978 0.43161 3.63648e-20)
(0.279014 0.426695 0)
(0.217229 0.405378 2.1462e-19)
(0.158005 0.362825 -1.76979e-19)
(0.102991 0.295171 0)
(0.054906 0.200015 -1.89817e-19)
(0.0175541 0.0767574 -2.04875e-20)
(1.17768 0.242485 -4.06856e-21)
(1.13667 0.260404 -5.59818e-21)
(1.09503 0.278885 1.68121e-19)
(1.0509 0.298112 0)
(1.00471 0.318039 0)
(0.956571 0.338682 -2.48102e-19)
(0.906575 0.360041 -1.36334e-19)
(0.854844 0.382105 -2.36605e-19)
(0.801504 0.404853 1.70508e-19)
(0.746683 0.428247 9.69155e-20)
(0.690512 0.452193 -3.11434e-19)
(0.633104 0.476425 3.35011e-19)
(0.57453 0.500255 -6.25069e-20)
(0.514796 0.522171 0)
(0.453851 0.539412 -6.79264e-20)
(0.391655 0.547723 -7.57302e-20)
(0.328315 0.541499 0)
(0.264258 0.514399 0)
(0.200289 0.460306 4.07663e-20)
(0.137575 0.37436 0)
(0.0784951 0.253579 0)
(0.0267028 0.097266 3.5781e-20)
(1.19603 0.289144 1.20706e-19)
(1.15764 0.310776 -1.45803e-19)
(1.11922 0.332952 1.65958e-19)
(1.07814 0.356049 -1.82743e-19)
(1.03499 0.379989 0)
(0.989886 0.404792 -1.18955e-19)
(0.942923 0.430462 6.65803e-19)
(0.894233 0.456986 -1.4827e-19)
(0.843944 0.484344 0)
(0.792186 0.512491 0)
(0.739084 0.541318 -1.89042e-21)
(0.684728 0.57051 1.02573e-19)
(0.62912 0.59924 0)
(0.572107 0.625688 -1.19484e-19)
(0.513343 0.646526 6.77099e-20)
(0.452327 0.65662 -6.69083e-20)
(0.388549 0.64922 0)
(0.321723 0.616701 3.03985e-19)
(0.251956 0.551744 -3.55342e-19)
(0.179823 0.44858 0)
(0.107303 0.303724 2.96947e-19)
(0.0378651 0.116434 -1.73171e-19)
(1.21683 0.331315 -2.35352e-19)
(1.18155 0.356433 0)
(1.14691 0.382004 0)
(1.10941 0.408677 0)
(1.06982 0.436332 0)
(1.02827 0.464991 -1.0813e-19)
(0.984866 0.494665 0)
(0.939747 0.52534 -2.76994e-19)
(0.893045 0.556995 -1.48342e-19)
(0.844894 0.589581 3.32699e-19)
(0.795411 0.622977 -2.77642e-19)
(0.74466 0.656823 0)
(0.692563 0.690169 2.15598e-19)
(0.638781 0.720913 -1.09925e-19)
(0.582622 0.745195 0)
(0.52304 0.757055 -1.90054e-19)
(0.458797 0.748658 4.73067e-19)
(0.388773 0.711176 -2.79619e-19)
(0.31225 0.636171 0)
(0.229126 0.517058 0)
(0.140914 0.349935 4.02407e-20)
(0.050877 0.13407 3.04126e-20)
(1.2394 0.368302 2.13297e-19)
(1.20772 0.396658 0)
(1.17738 0.425311 1.46872e-19)
(1.14395 0.455237 -1.61749e-19)
(1.10841 0.48626 8.46651e-21)
(1.07092 0.518412 -2.98969e-19)
(1.03156 0.551712 -3.46532e-19)
(0.990489 0.586151 5.12518e-19)
(0.947854 0.621711 -1.39391e-19)
(0.903788 0.658345 1.47904e-19)
(0.858407 0.695924 -3.41205e-19)
(0.811748 0.734057 2.77661e-19)
(0.763647 0.771689 0)
(0.713564 0.806465 0)
(0.660414 0.834041 1.0572e-19)
(0.602533 0.847688 -1.10753e-19)
(0.53785 0.838551 -2.36791e-19)
(0.464289 0.796677 3.12898e-19)
(0.380194 0.712599 0)
(0.284699 0.57901 0)
(0.178801 0.391684 2.79646e-19)
(0.0655309 0.14997 -5.65544e-20)
(1.26296 0.399537 -6.17983e-19)
(1.23537 0.430801 1.23522e-19)
(1.20973 0.462166 1.33554e-19)
(1.18077 0.494991 -4.50981e-19)
(1.14969 0.529031 1.73169e-19)
(1.11665 0.564329 1.00252e-20)
(1.08176 0.600906 3.22517e-19)
(1.04519 0.638755 -1.22963e-19)
(1.00707 0.677858 0)
(0.967565 0.718168 1.36086e-19)
(0.926772 0.759552 0)
(0.884703 0.801596 -8.78954e-20)
(0.841101 0.843162 3.56146e-19)
(0.795207 0.881682 1.88794e-19)
(0.745506 0.91238 -4.09379e-19)
(0.689644 0.927824 4.17195e-19)
(0.624617 0.918218 -4.4034e-20)
(0.547276 0.872563 -1.11709e-19)
(0.454925 0.780459 0)
(0.345856 0.633974 -5.5229e-20)
(0.220505 0.42866 0)
(0.08165 0.164025 7.49328e-20)
(1.28664 0.424866 -2.61737e-21)
(1.26361 0.458752 4.41423e-19)
(1.24311 0.492475 -2.4769e-19)
(1.21902 0.527796 1.45047e-19)
(1.19281 0.5644 -7.75378e-21)
(1.1646 0.602353 3.56237e-19)
(1.13451 0.641695 0)
(1.10275 0.682431 3.18908e-19)
(1.06948 0.724554 -4.71207e-19)
(1.03485 0.768025 1.21177e-19)
(0.998973 0.812715 0)
(0.961841 0.858202 -5.95248e-19)
(0.923112 0.903293 3.17655e-19)
(0.881803 0.94525 0)
(0.835949 0.978924 8.06938e-20)
(0.782448 0.996243 -2.80675e-19)
(0.717271 0.986538 1.38241e-20)
(0.636081 0.937841 5.20052e-20)
(0.535028 0.8389 1.52117e-19)
(0.411484 0.681263 -1.49084e-19)
(0.265292 0.460383 0)
(0.0989476 0.176039 -7.4477e-21)
(1.30953 0.443802 -1.80434e-19)
(1.29142 0.479862 0)
(1.27624 0.515558 -2.14876e-19)
(1.25726 0.553052 1.26233e-19)
(1.23618 0.591926 -1.48863e-19)
(1.21311 0.632251 3.11937e-19)
(1.18821 0.674063 -1.74716e-19)
(1.16166 0.71737 -2.85267e-19)
(1.13365 0.762166 0)
(1.10433 0.80842 -2.28482e-19)
(1.07382 0.856011 1.30284e-19)
(1.04209 0.904516 1.39278e-19)
(1.00872 0.952709 0)
(0.972484 0.997727 6.75229e-20)
(0.930946 1.03411 -2.98059e-19)
(0.880196 1.05323 3.14418e-19)
(0.81509 1.04364 1.40401e-20)
(0.730002 0.992507 0)
(0.619843 0.887828 2.09013e-19)
(0.481021 0.720744 -1.69387e-19)
(0.312761 0.486733 0)
(0.117264 0.18597 -4.04701e-20)
(1.33071 0.457092 2.88035e-21)
(1.31812 0.495094 4.62909e-21)
(1.30864 0.532334 1.02744e-20)
(1.29509 0.571431 0)
(1.27935 0.611928 0)
(1.26155 0.653941 -2.8586e-19)
(1.24189 0.697531 1.49538e-19)
(1.22061 0.742719 1.81192e-19)
(1.19791 0.789513 9.79169e-21)
(1.17397 0.837895 -2.95895e-19)
(1.14891 0.88776 1.14324e-19)
(1.1227 0.938708 -1.18737e-19)
(1.09486 0.989522 3.50326e-19)
(1.06398 1.03727 -6.67722e-20)
(1.02713 1.07625 0)
(0.979582 1.09735 0)
(0.915001 1.08837 7.18018e-20)
(0.826343 1.03565 0)
(0.707145 0.926516 5.7224e-20)
(0.552772 0.75182 0)
(0.361816 0.507254 1.07365e-19)
(0.136175 0.193612 -2.30679e-19)
(1.34921 0.463587 -2.87635e-19)
(1.34222 0.503075 3.32405e-19)
(1.33836 0.541755 1.81703e-19)
(1.33045 0.582428 -2.07032e-19)
(1.32037 0.624531 0)
(1.30824 0.668179 2.55242e-19)
(1.29428 0.713443 -1.47953e-20)