/*--------------------------------*- C++ -*----------------------------------*\
| =========                 |                                                 |
| \\      /  F ield         | OpenFOAM Extend Project: Open source CFD        |
|  \\    /   O peration     | Version:  1.6-ext                               |
|   \\  /    A nd           | Web:      www.extend-project.de                 |
|    \\/     M anipulation  |                                                 |
\*---------------------------------------------------------------------------*/
FoamFile
{
    version     2.0;
    format      ascii;
    class       volScalarField::DimensionedInternalField;
    location    "0.45";
    object      V0;
}
// * * * * * * * * * * * * * * * * * * * * * * * * * * * * * * * * * * * * * //

dimensions      [0 3 0 0 0 0 0];

value           nonuniform List<scalar> 
20940
(
1.17103e-06
1.038e-06
9.20969e-07
8.17935e-07
7.27164e-07
6.47139e-07
5.76535e-07
5.14195e-07
4.59106e-07
4.10384e-07
3.67255e-07
3.29043e-07
2.95158e-07
2.65079e-07
2.38352e-07
2.1458e-07
1.93413e-07
1.74544e-07
1.57706e-07
1.42663e-07
1.29207e-07
1.1716e-07
1.17119e-06
1.03814e-06
9.2109e-07
8.18041e-07
7.27259e-07
6.47226e-07
5.76616e-07
5.14271e-07
4.59179e-07
4.10454e-07
3.67322e-07
3.29106e-07
2.95215e-07
2.65131e-07
2.38399e-07
2.14623e-07
1.93453e-07
1.74583e-07
1.57743e-07
1.42699e-07
1.29243e-07
1.17194e-07
1.17376e-06
1.04042e-06
9.23113e-07
8.1984e-07
7.2886e-07
6.48653e-07
5.77891e-07
5.15411e-07
4.602e-07
4.11372e-07
3.68148e-07
3.29852e-07
2.95889e-07
2.65739e-07
2.38948e-07
2.15118e-07
1.939e-07
1.74987e-07
1.58111e-07
1.43034e-07
1.2955e-07
1.17476e-07
1.17802e-06
1.0442e-06
9.26465e-07
8.22821e-07
7.31515e-07
6.5102e-07
5.80003e-07
5.17298e-07
4.61888e-07
4.12883e-07
3.69504e-07
3.31071e-07
2.96987e-07
2.6673e-07
2.39843e-07
2.15927e-07
1.94631e-07
1.75648e-07
1.58708e-07
1.43576e-07
1.30043e-07
1.17926e-07
1.18326e-06
1.04887e-06
9.30647e-07
8.26569e-07
7.3488e-07
6.54047e-07
5.82729e-07
5.19757e-07
4.64108e-07
4.14888e-07
3.71317e-07
3.32713e-07
2.98475e-07
2.68082e-07
2.41074e-07
2.1705e-07
1.95656e-07
1.76583e-07
1.59563e-07
1.44356e-07
1.30755e-07
1.18577e-07
1.19006e-06
1.05497e-06
9.36112e-07
8.31475e-07
7.39293e-07
6.58025e-07
5.86322e-07
5.23008e-07
4.67054e-07
4.17562e-07
3.73746e-07
3.3492e-07
3.00483e-07
2.6991e-07
2.42741e-07
2.18571e-07
1.97047e-07
1.77857e-07
1.6073e-07
1.45425e-07
1.31734e-07
1.19472e-07
1.19842e-06
1.06249e-06
9.42881e-07
8.37572e-07
7.44791e-07
6.62988e-07
5.90813e-07
5.2708e-07
4.70755e-07
4.20933e-07
3.76821e-07
3.37728e-07
3.0305e-07
2.72257e-07
2.44888e-07
2.20537e-07
1.98848e-07
1.79509e-07
1.62246e-07
1.46819e-07
1.33015e-07
1.2065e-07
1.20834e-06
1.07147e-06
9.51016e-07
8.44946e-07
7.51474e-07
6.69047e-07
5.96308e-07
5.32069e-07
4.75292e-07
4.25068e-07
3.80598e-07
3.41186e-07
3.06221e-07
2.75168e-07
2.47562e-07
2.22994e-07
2.01106e-07
1.81586e-07
1.64157e-07
1.4858e-07
1.3464e-07
1.2215e-07
1.21973e-06
1.08183e-06
9.60462e-07
8.53565e-07
7.59344e-07
6.76235e-07
6.02872e-07
5.38061e-07
4.80761e-07
4.30061e-07
3.85162e-07
3.45365e-07
3.10056e-07
2.78695e-07
2.5081e-07
2.25989e-07
2.0387e-07
1.84137e-07
1.66513e-07
1.50756e-07
1.36652e-07
1.24013e-07
1.23249e-06
1.09349e-06
9.71131e-07
8.63346e-07
7.68326e-07
6.84493e-07
6.10469e-07
5.45051e-07
4.87191e-07
4.35971e-07
3.90591e-07
3.5035e-07
3.14636e-07
2.82909e-07
2.54695e-07
2.29577e-07
2.07188e-07
1.87209e-07
1.69359e-07
1.53393e-07
1.39095e-07
1.26276e-07
1.24639e-06
1.10627e-06
9.82884e-07
8.74169e-07
7.78306e-07
6.93708e-07
6.1899e-07
5.5294e-07
4.94499e-07
4.42742e-07
3.96863e-07
3.56155e-07
3.20001e-07
2.87864e-07
2.59271e-07
2.33806e-07
2.11103e-07
1.90837e-07
1.72725e-07
1.56518e-07
1.41997e-07
1.28971e-07
1.26194e-06
1.12061e-06
9.96119e-07
8.86387e-07
7.89591e-07
7.0414e-07
6.28643e-07
5.61885e-07
5.02798e-07
4.50452e-07
4.0403e-07
3.62819e-07
3.26197e-07
2.93619e-07
2.64609e-07
2.38751e-07
2.15682e-07
1.9508e-07
1.7666e-07
1.60171e-07
1.45392e-07
1.32128e-07
1.27835e-06
1.13588e-06
1.01032e-06
8.99598e-07
8.01874e-07
7.15556e-07
6.39252e-07
5.71745e-07
5.11967e-07
4.58986e-07
4.11982e-07
3.70237e-07
3.33121e-07
3.00084e-07
2.70644e-07
2.44379e-07
2.20922e-07
1.99954e-07
1.8119e-07
1.64382e-07
1.49309e-07
1.35775e-07
1.29566e-06
1.15209e-06
1.0255e-06
9.13812e-07
8.1518e-07
7.28007e-07
6.50895e-07
5.82621e-07
5.2212e-07
4.68458e-07
4.20818e-07
3.78484e-07
3.40825e-07
3.07287e-07
2.77383e-07
2.50686e-07
2.26825e-07
2.05471e-07
1.86341e-07
1.69185e-07
1.53784e-07
1.39944e-07
1.3136e-06
1.16902e-06
1.04147e-06
9.28857e-07
8.29347e-07
7.41342e-07
6.63441e-07
5.94418e-07
5.33203e-07
4.78857e-07
4.30563e-07
3.87606e-07
3.49359e-07
3.15271e-07
2.84856e-07
2.57686e-07
2.33385e-07
2.11621e-07
1.92105e-07
1.74582e-07
1.5883e-07
1.44656e-07
1.24196e-06
1.1079e-06
9.89434e-07
8.84666e-07
7.91924e-07
7.09753e-07
6.36876e-07
5.72179e-07
5.14683e-07
4.6353e-07
4.17968e-07
3.7734e-07
3.41073e-07
3.08664e-07
2.79671e-07
2.53705e-07
2.30423e-07
2.09521e-07
1.90731e-07
1.73815e-07
1.58567e-07
1.44803e-07
1.21885e-06
1.08677e-06
9.70097e-07
8.66944e-07
7.75666e-07
6.94819e-07
6.23146e-07
5.59543e-07
5.03046e-07
4.52808e-07
4.08086e-07
3.68229e-07
3.32665e-07
3.00897e-07
2.72487e-07
2.47052e-07
2.24255e-07
2.038e-07
1.85425e-07
1.68897e-07
1.5401e-07
1.40583e-07
1.19689e-06
1.06674e-06
9.51801e-07
8.50219e-07
7.60361e-07
6.80799e-07
6.10287e-07
5.47735e-07
4.92191e-07
4.42819e-07
3.98889e-07
3.59757e-07
3.2486e-07
2.93701e-07
2.65848e-07
2.40921e-07
2.18586e-07
1.98552e-07
1.80561e-07
1.64386e-07
1.49828e-07
1.36707e-07
1.17619e-06
1.0479e-06
9.34641e-07
8.34569e-07
7.46071e-07
6.67738e-07
5.98337e-07
5.36791e-07
4.82155e-07
4.33605e-07
3.90419e-07
3.51965e-07
3.17685e-07
2.87093e-07
2.5976e-07
2.35309e-07
2.1341e-07
1.93773e-07
1.76142e-07
1.60295e-07
1.46035e-07
1.33189e-07
1.15689e-06
1.03038e-06
9.18716e-07
8.20074e-07
7.32863e-07
6.55688e-07
5.87332e-07
5.26731e-07
4.72951e-07
4.25175e-07
3.82688e-07
3.44866e-07
3.1116e-07
2.8109e-07
2.54233e-07
2.30217e-07
2.08718e-07
1.89447e-07
1.72152e-07
1.5661e-07
1.42628e-07
1.30034e-07
1.1388e-06
1.014e-06
9.03874e-07
8.06607e-07
7.20628e-07
6.4456e-07
5.77198e-07
5.17491e-07
4.64517e-07
4.17469e-07
3.75641e-07
3.38414e-07
3.05247e-07
2.75663e-07
2.49247e-07
2.25632e-07
2.04496e-07
1.85558e-07
1.68569e-07
1.53309e-07
1.39584e-07
1.27225e-07
1.12273e-06
9.9947e-07
8.90711e-07
7.9467e-07
7.09789e-07
6.34705e-07
5.68229e-07
5.09316e-07
4.57058e-07
4.10656e-07
3.69411e-07
3.32713e-07
3.00023e-07
2.70872e-07
2.44848e-07
2.21589e-07
2.00777e-07
1.82132e-07
1.65411e-07
1.50395e-07
1.36897e-07
1.24745e-07
1.10808e-06
9.86252e-07
8.78771e-07
7.83871e-07
7.00009e-07
6.25837e-07
5.60176e-07
5.01996e-07
4.50395e-07
4.04584e-07
3.63872e-07
3.27653e-07
2.95397e-07
2.66639e-07
2.4097e-07
2.18033e-07
1.97513e-07
1.79133e-07
1.62651e-07
1.47854e-07
1.34553e-07
1.22583e-07
1.09506e-06
9.74526e-07
8.68198e-07
7.74326e-07
6.91381e-07
6.18029e-07
5.531e-07
4.95575e-07
4.44562e-07
3.99277e-07
3.59038e-07
3.23246e-07
2.91374e-07
2.62962e-07
2.37607e-07
2.14953e-07
1.9469e-07
1.76544e-07
1.60274e-07
1.45668e-07
1.32542e-07
1.2073e-07
1.08366e-06
9.64283e-07
8.58979e-07
7.66017e-07
6.83883e-07
6.11253e-07
5.46971e-07
4.90024e-07
4.39528e-07
3.94707e-07
3.54883e-07
3.19463e-07
2.87926e-07
2.59816e-07
2.34733e-07
2.12325e-07
1.92284e-07
1.74339e-07
1.58252e-07
1.43813e-07
1.30838e-07
1.19163e-07
1.07387e-06
9.55495e-07
8.51082e-07
7.58912e-07
6.77483e-07
6.0548e-07
5.41757e-07
4.85309e-07
4.35258e-07
3.90836e-07
3.5137e-07
3.1627e-07
2.85021e-07
2.57169e-07
2.32318e-07
2.1012e-07
1.90268e-07
1.72494e-07
1.56562e-07
1.42264e-07
1.29416e-07
1.17857e-07
1.06563e-06
9.48111e-07
8.44457e-07
7.5296e-07
6.72129e-07
6.00659e-07
5.37409e-07
4.81383e-07
4.31709e-07
3.87623e-07
3.48458e-07
3.13628e-07
2.8262e-07
2.54985e-07
2.3033e-07
2.08306e-07
1.88613e-07
1.70981e-07
1.55178e-07
1.40995e-07
1.28253e-07
1.1679e-07
1.05889e-06
9.4207e-07
8.39041e-07
7.481e-07
6.67761e-07
5.9673e-07
5.33871e-07
4.78193e-07
4.28829e-07
3.8502e-07
3.46102e-07
3.11493e-07
2.80683e-07
2.53226e-07
2.28729e-07
2.06849e-07
1.87283e-07
1.69768e-07
1.54068e-07
1.3998e-07
1.27323e-07
1.15939e-07
1.05363e-06
9.3736e-07
8.34818e-07
7.44309e-07
6.64355e-07
5.93666e-07
5.31111e-07
4.75705e-07
4.26583e-07
3.8299e-07
3.44266e-07
3.09829e-07
2.79175e-07
2.51856e-07
2.27483e-07
2.05715e-07
1.8625e-07
1.68825e-07
1.53206e-07
1.39191e-07
1.26598e-07
1.15272e-07
1.04916e-06
9.33383e-07
8.31274e-07
7.41148e-07
6.61532e-07
5.91141e-07
5.2885e-07
4.73677e-07
4.24762e-07
3.81353e-07
3.42791e-07
3.085e-07
2.77975e-07
2.50772e-07
2.26503e-07
2.04827e-07
1.85445e-07
1.68094e-07
1.52544e-07
1.3859e-07
1.26053e-07
1.14749e-07
1.17426e-06
1.0468e-06
9.34189e-07
8.34614e-07
7.46494e-07
6.68442e-07
5.99245e-07
5.37842e-07
4.83301e-07
4.34809e-07
3.91649e-07
3.53196e-07
3.18899e-07
2.88276e-07
2.60903e-07
2.36406e-07
2.14459e-07
1.94773e-07
1.77094e-07
1.61199e-07
1.4689e-07
1.33995e-07
1.17455e-06
1.04707e-06
9.34445e-07
8.34854e-07
7.46719e-07
6.68652e-07
5.99442e-07
5.38026e-07
4.83474e-07
4.3497e-07
3.918e-07
3.53337e-07
3.19031e-07
2.884e-07
2.61018e-07
2.36514e-07
2.14559e-07
1.94867e-07
1.77182e-07
1.61281e-07
1.46967e-07
1.34067e-07
1.17729e-06
1.04954e-06
9.36673e-07
8.36866e-07
7.48537e-07
6.70297e-07
6.00932e-07
5.39378e-07
4.84701e-07
4.36086e-07
3.92816e-07
3.54262e-07
3.19875e-07
2.8917e-07
2.61722e-07
2.37158e-07
2.1515e-07
1.95407e-07
1.77678e-07
1.61737e-07
1.47386e-07
1.34452e-07
1.18189e-06
1.05367e-06
9.40381e-07
8.40203e-07
7.51543e-07
6.73009e-07
6.03382e-07
5.41593e-07
4.86706e-07
4.37903e-07
3.94465e-07
3.5576e-07
3.21237e-07
2.9041e-07
2.62853e-07
2.3819e-07
2.16092e-07
1.96269e-07
1.78466e-07
1.62459e-07
1.48048e-07
1.3506e-07
1.18773e-06
1.05895e-06
9.45152e-07
8.44523e-07
7.5546e-07
6.76564e-07
6.06612e-07
5.44531e-07
4.89382e-07
4.40343e-07
3.96691e-07
3.57794e-07
3.23097e-07
2.92113e-07
2.64413e-07
2.39621e-07
2.17405e-07
1.97476e-07
1.79576e-07
1.6348e-07
1.48989e-07
1.35926e-07
1.19547e-06
1.06594e-06
9.51488e-07
8.50267e-07
7.60673e-07
6.81301e-07
6.10921e-07
5.48455e-07
4.9296e-07
4.43608e-07
3.99674e-07
3.60522e-07
3.25595e-07
2.94401e-07
2.66511e-07
2.41546e-07
2.19175e-07
1.99102e-07
1.81073e-07
1.64858e-07
1.50259e-07
1.37098e-07
1.2051e-06
1.07468e-06
9.59416e-07
8.57472e-07
7.67229e-07
6.87272e-07
6.16366e-07
5.53425e-07
4.97501e-07
4.47761e-07
4.03476e-07
3.64007e-07
3.28791e-07
2.97335e-07
2.69207e-07
2.44026e-07
2.21456e-07
2.01203e-07
1.83009e-07
1.66644e-07
1.51906e-07
1.38619e-07
1.21672e-06
1.08524e-06
9.69032e-07
8.66233e-07
7.7522e-07
6.94569e-07
6.23035e-07
5.59527e-07
5.03089e-07
4.52883e-07
4.08176e-07
3.68322e-07
3.32757e-07
3.00983e-07
2.72565e-07
2.47118e-07
2.24307e-07
2.03833e-07
1.85437e-07
1.68886e-07
1.53979e-07
1.40535e-07
1.23039e-06
1.0977e-06
9.80403e-07
8.76621e-07
7.8472e-07
7.03265e-07
6.31002e-07
5.66833e-07
5.09795e-07
4.59044e-07
4.1384e-07
3.73534e-07
3.37556e-07
3.05405e-07
2.76643e-07
2.50881e-07
2.27782e-07
2.07044e-07
1.88404e-07
1.71631e-07
1.56519e-07
1.42888e-07
1.24612e-06
1.11209e-06
9.9357e-07
8.88683e-07
7.95778e-07
7.13413e-07
6.40323e-07
5.75401e-07
5.17677e-07
4.66301e-07
4.20526e-07
3.79698e-07
3.43243e-07
3.10655e-07
2.81492e-07
2.55364e-07
2.31927e-07
2.1088e-07
1.91955e-07
1.7492e-07
1.59567e-07
1.45713e-07
1.26377e-06
1.12828e-06
1.00843e-06
9.02343e-07
8.08342e-07
7.24978e-07
6.50976e-07
5.85221e-07
5.26735e-07
4.74662e-07
4.28248e-07
3.86835e-07
3.49842e-07
3.16761e-07
2.87144e-07
2.60598e-07
2.36776e-07
2.15374e-07
1.96123e-07
1.78786e-07
1.63154e-07
1.49043e-07
1.28379e-06
1.14667e-06
1.02535e-06
9.17916e-07
8.22686e-07
7.38199e-07
6.63171e-07
5.96476e-07
5.3713e-07
4.84268e-07
4.3713e-07
3.95052e-07
3.57448e-07
3.23804e-07
2.93669e-07
2.66646e-07
2.42384e-07
2.20576e-07
2.0095e-07
1.83267e-07
1.67315e-07
1.52908e-07
1.30544e-06
1.16666e-06
1.04381e-06
9.34963e-07
8.38445e-07
7.52775e-07
6.7666e-07
6.08966e-07
5.487e-07
4.94989e-07
4.47071e-07
4.04271e-07
3.66002e-07
3.31743e-07
3.01041e-07
2.73492e-07
2.48744e-07
2.26486e-07
2.06444e-07
1.88375e-07
1.72065e-07
1.57326e-07
1.32885e-06
1.18833e-06
1.06388e-06
9.53568e-07
8.55694e-07
7.68773e-07
6.91504e-07
6.22744e-07
5.61492e-07
5.06871e-07
4.58109e-07
4.14529e-07
3.75537e-07
3.40609e-07
3.09285e-07
2.81161e-07
2.55879e-07
2.33126e-07
2.12624e-07
1.94128e-07
1.77422e-07
1.62314e-07
1.35381e-06
1.21152e-06
1.08544e-06
9.73613e-07
8.74336e-07
7.86115e-07
7.07638e-07
6.37758e-07
5.75467e-07
5.1988e-07
4.70221e-07
4.25807e-07
3.8604e-07
3.50392e-07
3.18398e-07
2.89651e-07
2.6379e-07
2.40498e-07
2.19494e-07
2.00531e-07
1.8339e-07
1.67878e-07
1.3538e-06
1.21152e-06
1.08544e-06
9.73611e-07
8.74335e-07
7.86114e-07
7.07637e-07
6.37757e-07
5.75466e-07
5.19879e-07
4.70219e-07
4.25806e-07
3.86039e-07
3.50391e-07
3.18398e-07
2.89651e-07
2.63791e-07
2.40498e-07
2.19495e-07
2.00532e-07
1.83391e-07
1.67879e-07
1.32884e-06
1.18832e-06
1.06387e-06
9.53562e-07
8.55689e-07
7.68769e-07
6.915e-07
6.2274e-07
5.61488e-07
5.06867e-07
4.58105e-07
4.14526e-07
3.75534e-07
3.40607e-07
3.09284e-07
2.81161e-07
2.5588e-07
2.33127e-07
2.12625e-07
1.94129e-07
1.77423e-07
1.62315e-07
1.30543e-06
1.16665e-06
1.04379e-06
9.34954e-07
8.38436e-07
7.52767e-07
6.76652e-07
6.08959e-07
5.48693e-07
4.94984e-07
4.47065e-07
4.04267e-07
3.65998e-07
3.31741e-07
3.01039e-07
2.73491e-07
2.48744e-07
2.26487e-07
2.06445e-07
1.88376e-07
1.72066e-07
1.57327e-07
1.28377e-06
1.14666e-06
1.02534e-06
9.17902e-07
8.22673e-07
7.38187e-07
6.6316e-07
5.96467e-07
5.37122e-07
4.84261e-07
4.37125e-07
3.95048e-07
3.57444e-07
3.23802e-07
2.93667e-07
2.66644e-07
2.42383e-07
2.20575e-07
2.00949e-07
1.83266e-07
1.67314e-07
1.52907e-07
1.26374e-06
1.12825e-06
1.00841e-06
9.02325e-07
8.08326e-07
7.24963e-07
6.50963e-07
5.8521e-07
5.26726e-07
4.74654e-07
4.28242e-07
3.8683e-07
3.49838e-07
3.16757e-07
2.87141e-07
2.60595e-07
2.36774e-07
2.15372e-07
1.96121e-07
1.78784e-07
1.63153e-07
1.49043e-07
1.2461e-06
1.11207e-06
9.93549e-07
8.88663e-07
7.95761e-07
7.13397e-07
6.40309e-07
5.75389e-07
5.17667e-07
4.66292e-07
4.20518e-07
3.79692e-07
3.43237e-07
3.10651e-07
2.81489e-07
2.55362e-07
2.31925e-07
2.10878e-07
1.91954e-07
1.74919e-07
1.59566e-07
1.45712e-07
1.23036e-06
1.09768e-06
9.80381e-07
8.76602e-07
7.84702e-07
7.03249e-07
6.30988e-07
5.6682e-07
5.09784e-07
4.59034e-07
4.13832e-07
3.73527e-07
3.3755e-07
3.05401e-07
2.76639e-07
2.50879e-07
2.2778e-07
2.07042e-07
1.88403e-07
1.71631e-07
1.56518e-07
1.42887e-07
1.21669e-06
1.08522e-06
9.69012e-07
8.66216e-07
7.75204e-07
6.94554e-07
6.23021e-07
5.59514e-07
5.03078e-07
4.52873e-07
4.08167e-07
3.68315e-07
3.3275e-07
3.00978e-07
2.7256e-07
2.47115e-07
2.24304e-07
2.03831e-07
1.85435e-07
1.68884e-07
1.53978e-07
1.40534e-07
1.20508e-06
1.07466e-06
9.594e-07
8.57458e-07
7.67216e-07
6.8726e-07
6.16354e-07
5.53414e-07
4.97491e-07
4.47752e-07
4.03467e-07
3.63998e-07
3.28783e-07
2.97328e-07
2.69201e-07
2.4402e-07
2.21451e-07
2.01199e-07
1.83005e-07
1.66641e-07
1.51904e-07
1.38618e-07
1.19545e-06
1.06593e-06
9.51475e-07
8.50256e-07
7.60663e-07
6.81292e-07
6.10913e-07
5.48447e-07
4.92952e-07
4.43599e-07
3.99665e-07
3.60514e-07
3.25587e-07
2.94393e-07
2.66504e-07
2.4154e-07
2.19169e-07
1.99098e-07
1.81069e-07
1.64856e-07
1.50257e-07
1.37097e-07
1.18771e-06
1.05893e-06
9.45139e-07
8.44512e-07
7.55451e-07
6.76557e-07
6.06605e-07
5.44525e-07
4.89377e-07
4.40337e-07
3.96685e-07
3.57788e-07
3.23091e-07
2.92107e-07
2.64407e-07
2.39614e-07
2.174e-07
1.97471e-07
1.79573e-07
1.63477e-07
1.48987e-07
1.35926e-07
1.18187e-06
1.05365e-06
9.40368e-07
8.40191e-07
7.51534e-07
6.73001e-07
6.03375e-07
5.41588e-07
4.86702e-07
4.379e-07
3.94462e-07
3.55757e-07
3.21234e-07
2.90406e-07
2.62848e-07
2.38185e-07
2.16087e-07
1.96265e-07
1.78463e-07
1.62456e-07
1.48047e-07
1.35059e-07
1.17728e-06
1.04953e-06
9.36664e-07
8.36857e-07
7.48529e-07
6.7029e-07
6.00926e-07
5.39372e-07
4.84697e-07
4.36083e-07
3.92814e-07
3.54261e-07
3.19874e-07
2.89169e-07
2.61721e-07
2.37156e-07
2.15147e-07
1.95405e-07
1.77676e-07
1.61735e-07
1.47384e-07
1.34452e-07
1.17455e-06
1.04708e-06
9.34448e-07
8.34857e-07
7.4672e-07
6.68652e-07
5.9944e-07
5.38024e-07
4.83471e-07
4.34968e-07
3.91799e-07
3.53338e-07
3.19033e-07
2.88402e-07
2.61021e-07
2.36517e-07
2.14562e-07
1.94868e-07
1.77184e-07
1.61281e-07
1.46968e-07
1.34067e-07
1.17427e-06
1.04682e-06
9.34205e-07
8.3463e-07
7.46508e-07
6.68454e-07
5.99255e-07
5.37849e-07
4.83306e-07
4.34812e-07
3.91652e-07
3.53198e-07
3.18903e-07
2.8828e-07
2.60908e-07
2.36412e-07
2.14465e-07
1.94779e-07
1.77098e-07
1.61202e-07
1.46892e-07
1.33995e-07
1.17429e-06
1.04683e-06
9.34212e-07
8.34634e-07
7.46511e-07
6.68455e-07
5.99255e-07
5.37849e-07
4.83305e-07
4.34811e-07
3.9165e-07
3.53196e-07
3.189e-07
2.88277e-07
2.60904e-07
2.36408e-07
2.1446e-07
1.94774e-07
1.77094e-07
1.61198e-07
1.46888e-07
1.33991e-07
1.17457e-06
1.04709e-06
9.34457e-07
8.34864e-07
7.46725e-07
6.68656e-07
5.99443e-07
5.38025e-07
4.83471e-07
4.34967e-07
3.91797e-07
3.53335e-07
3.19029e-07
2.88398e-07
2.61017e-07
2.36513e-07
2.14558e-07
1.94865e-07
1.77179e-07
1.61278e-07
1.46964e-07
1.34064e-07
1.1773e-06
1.04955e-06
9.36674e-07
8.36865e-07
7.48534e-07
6.70293e-07
6.00928e-07
5.39373e-07
4.84696e-07
4.36081e-07
3.92811e-07
3.54258e-07
3.1987e-07
2.89165e-07
2.61717e-07
2.37153e-07
2.15144e-07
1.95402e-07
1.77673e-07
1.61732e-07
1.47382e-07
1.34449e-07
1.18189e-06
1.05366e-06
9.40375e-07
8.40197e-07
7.51537e-07
6.73003e-07
6.03376e-07
5.41586e-07
4.867e-07
4.37897e-07
3.94458e-07
3.55753e-07
3.2123e-07
2.90402e-07
2.62844e-07
2.38181e-07
2.16084e-07
1.96262e-07
1.7846e-07
1.62454e-07
1.48044e-07
1.35058e-07
1.18772e-06
1.05894e-06
9.45143e-07
8.44514e-07
7.55452e-07
6.76556e-07
6.06604e-07
5.44523e-07
4.89374e-07
4.40334e-07
3.96681e-07
3.57785e-07
3.23087e-07
2.92103e-07
2.64403e-07
2.39611e-07
2.17396e-07
1.97468e-07
1.79569e-07
1.63474e-07
1.48985e-07
1.35923e-07
1.19545e-06
1.06593e-06
9.51476e-07
8.50256e-07
7.60662e-07
6.81291e-07
6.10911e-07
5.48445e-07
4.92949e-07
4.43597e-07
3.99663e-07
3.60511e-07
3.25585e-07
2.94391e-07
2.66503e-07
2.41538e-07
2.19168e-07
1.99096e-07
1.81068e-07
1.64854e-07
1.50256e-07
1.37096e-07
1.20508e-06
1.07466e-06
9.594e-07
8.57457e-07
7.67214e-07
6.87258e-07
6.16352e-07
5.53412e-07
4.97488e-07
4.47749e-07
4.03465e-07
3.63996e-07
3.28781e-07
2.97327e-07
2.69199e-07
2.44019e-07
2.2145e-07
2.012e-07
1.83004e-07
1.66642e-07
1.51903e-07
1.38617e-07
1.21669e-06
1.08522e-06
9.69011e-07
8.66214e-07
7.75202e-07
6.94553e-07
6.2302e-07
5.59513e-07
5.03076e-07
4.52872e-07
4.08165e-07
3.68313e-07
3.32748e-07
3.00976e-07
2.72559e-07
2.47113e-07
2.24303e-07
2.0383e-07
1.85434e-07
1.68883e-07
1.53978e-07
1.40534e-07
1.23036e-06
1.09768e-06
9.8038e-07
8.766e-07
7.847e-07
7.03247e-07
6.30986e-07
5.66819e-07
5.09783e-07
4.59033e-07
4.13831e-07
3.73526e-07
3.3755e-07
3.054e-07
2.76639e-07
2.50878e-07
2.27779e-07
2.07041e-07
1.88402e-07
1.7163e-07
1.56517e-07
1.42887e-07
1.2461e-06
1.11206e-06
9.93547e-07
8.88662e-07
7.95759e-07
7.13396e-07
6.40307e-07
5.75387e-07
5.17665e-07
4.66291e-07
4.20518e-07
3.79692e-07
3.43238e-07
3.10652e-07
2.81489e-07
2.55363e-07
2.31925e-07
2.10879e-07
1.91954e-07
1.74919e-07
1.59566e-07
1.45712e-07
1.26374e-06
1.12825e-06
1.00841e-06
9.02323e-07
8.08324e-07
7.24962e-07
6.50962e-07
5.85209e-07
5.26725e-07
4.74653e-07
4.28241e-07
3.86829e-07
3.49838e-07
3.16757e-07
2.87142e-07
2.60596e-07
2.36776e-07
2.15373e-07
1.96123e-07
1.78786e-07
1.63155e-07
1.49043e-07
1.28377e-06
1.14666e-06
1.02534e-06
9.179e-07
8.22671e-07
7.38186e-07
6.63159e-07
5.96466e-07
5.37121e-07
4.84261e-07
4.37124e-07
3.95047e-07
3.57443e-07
3.23801e-07
2.93666e-07
2.66644e-07
2.42382e-07
2.20576e-07
2.0095e-07
1.83267e-07
1.67315e-07
1.52908e-07
1.30543e-06
1.16664e-06
1.04379e-06
9.34952e-07
8.38435e-07
7.52766e-07
6.76651e-07
6.08958e-07
5.48693e-07
4.94984e-07
4.47066e-07
4.04267e-07
3.65998e-07
3.31741e-07
3.01039e-07
2.7349e-07
2.48743e-07
2.26486e-07
2.06444e-07
1.88375e-07
1.72066e-07
1.57328e-07
1.32884e-06
1.18832e-06
1.06387e-06
9.5356e-07
8.55687e-07
7.68768e-07
6.91499e-07
6.22739e-07
5.61488e-07
5.06867e-07
4.58106e-07
4.14527e-07
3.75535e-07
3.40608e-07
3.09285e-07
2.81161e-07
2.5588e-07
2.33127e-07
2.12625e-07
1.94129e-07
1.77423e-07
1.62316e-07
1.3538e-06
1.21152e-06
1.08544e-06
9.7361e-07
8.74333e-07
7.86112e-07
7.07636e-07
6.37756e-07
5.75465e-07
5.19879e-07
4.7022e-07
4.25807e-07
3.86041e-07
3.50393e-07
3.184e-07
2.89653e-07
2.63793e-07
2.405e-07
2.19496e-07
2.00533e-07
1.83392e-07
1.67879e-07
1.3538e-06
1.21152e-06
1.08544e-06
9.73612e-07
8.74335e-07
7.86114e-07
7.07637e-07
6.37757e-07
5.75466e-07
5.19879e-07
4.7022e-07
4.25808e-07
3.86041e-07
3.50393e-07
3.184e-07
2.89654e-07
2.63793e-07
2.40501e-07
2.19497e-07
2.00533e-07
1.83392e-07
1.67879e-07
1.32885e-06
1.18833e-06
1.06388e-06
9.53566e-07
8.55692e-07
7.68772e-07
6.91502e-07
6.22742e-07
5.61491e-07
5.0687e-07
4.58108e-07
4.14529e-07
3.75537e-07
3.40609e-07
3.09286e-07
2.81162e-07
2.55881e-07
2.33128e-07
2.12626e-07
1.9413e-07
1.77423e-07
1.62316e-07
1.30544e-06
1.16666e-06
1.0438e-06
9.34962e-07
8.38444e-07
7.52773e-07
6.76658e-07
6.08964e-07
5.48698e-07
4.94988e-07
4.47069e-07
4.0427e-07
3.66001e-07
3.31743e-07
3.0104e-07
2.73492e-07
2.48745e-07
2.26487e-07
2.06445e-07
1.88376e-07
1.72067e-07
1.57328e-07
1.28379e-06
1.14667e-06
1.02535e-06
9.17915e-07
8.22685e-07
7.38197e-07
6.63169e-07
5.96475e-07
5.37129e-07
4.84266e-07
4.37129e-07
3.95051e-07
3.57447e-07
3.23803e-07
2.93668e-07
2.66645e-07
2.42384e-07
2.20576e-07
2.0095e-07
1.83267e-07
1.67315e-07
1.52908e-07
1.26377e-06
1.12828e-06
1.00843e-06
9.02343e-07
8.08342e-07
7.24977e-07
6.50975e-07
5.8522e-07
5.26734e-07
4.74661e-07
4.28247e-07
3.86834e-07
3.49841e-07
3.1676e-07
2.87144e-07
2.60597e-07
2.36776e-07
2.15374e-07
1.96123e-07
1.78786e-07
1.63154e-07
1.49043e-07
1.24613e-06
1.11209e-06
9.93572e-07
8.88684e-07
7.95779e-07
7.13414e-07
6.40323e-07
5.75401e-07
5.17677e-07
4.66301e-07
4.20526e-07
3.79698e-07
3.43243e-07
3.10656e-07
2.81492e-07
2.55364e-07
2.31927e-07
2.1088e-07
1.91955e-07
1.7492e-07
1.59567e-07
1.45713e-07
1.23039e-06
1.0977e-06
9.80405e-07
8.76624e-07
7.84722e-07
7.03267e-07
6.31004e-07
5.66835e-07
5.09796e-07
4.59045e-07
4.13841e-07
3.73535e-07
3.37557e-07
3.05406e-07
2.76643e-07
2.50882e-07
2.27782e-07
2.07044e-07
1.88405e-07
1.71631e-07
1.56519e-07
1.42888e-07
1.21672e-06
1.08524e-06
9.69035e-07
8.66236e-07
7.75223e-07
6.94572e-07
6.23037e-07
5.59529e-07
5.03091e-07
4.52885e-07
4.08177e-07
3.68323e-07
3.32758e-07
3.00984e-07
2.72566e-07
2.47119e-07
2.24308e-07
2.03834e-07
1.85437e-07
1.68886e-07
1.53979e-07
1.40536e-07
1.2051e-06
1.07468e-06
9.59419e-07
8.57475e-07
7.67231e-07
6.87275e-07
6.16368e-07
5.53427e-07
4.97503e-07
4.47763e-07
4.03478e-07
3.64008e-07
3.28792e-07
2.97336e-07
2.69208e-07
2.44026e-07
2.21456e-07
2.01204e-07
1.83009e-07
1.66644e-07
1.51907e-07
1.3862e-07
1.19547e-06
1.06594e-06
9.5149e-07
8.50269e-07
7.60675e-07
6.81303e-07
6.10923e-07
5.48457e-07
4.92961e-07
4.43609e-07
3.99675e-07
3.60523e-07
3.25596e-07
2.94402e-07
2.66512e-07
2.41547e-07
2.19175e-07
1.99103e-07
1.81073e-07
1.64859e-07
1.50259e-07
1.37098e-07
1.18773e-06
1.05895e-06
9.45153e-07
8.44524e-07
7.55461e-07
6.76565e-07
6.06613e-07
5.44532e-07
4.89383e-07
4.40344e-07
3.96692e-07
3.57795e-07
3.23098e-07
2.92114e-07
2.64414e-07
2.39621e-07
2.17406e-07
1.97476e-07
1.79576e-07
1.6348e-07
1.48989e-07
1.35927e-07
1.18189e-06
1.05367e-06
9.40382e-07
8.40203e-07
7.51544e-07
6.7301e-07
6.03382e-07
5.41593e-07
4.86707e-07
4.37904e-07
3.94465e-07
3.55761e-07
3.21238e-07
2.90411e-07
2.62853e-07
2.3819e-07
2.16092e-07
1.9627e-07
1.78467e-07
1.6246e-07
1.48049e-07
1.35061e-07
1.1773e-06
1.04955e-06
9.36673e-07
8.36866e-07
7.48537e-07
6.70298e-07
6.00933e-07
5.39378e-07
4.84702e-07
4.36086e-07
3.92816e-07
3.54263e-07
3.19876e-07
2.8917e-07
2.61723e-07
2.37158e-07
2.1515e-07
1.95408e-07
1.77678e-07
1.61737e-07
1.47386e-07
1.34453e-07
1.17455e-06
1.04707e-06
9.34445e-07
8.34855e-07
7.46719e-07
6.68653e-07
5.99442e-07
5.38026e-07
4.83474e-07
4.3497e-07
3.918e-07
3.53337e-07
3.19031e-07
2.884e-07
2.61018e-07
2.36514e-07
2.1456e-07
1.94867e-07
1.77182e-07
1.61281e-07
1.46968e-07
1.34067e-07
1.17426e-06
1.0468e-06
9.34189e-07
8.34614e-07
7.46494e-07
6.68442e-07
5.99245e-07
5.37842e-07
4.83301e-07
4.34809e-07
3.91649e-07
3.53196e-07
3.189e-07
2.88276e-07
2.60903e-07
2.36406e-07
2.14459e-07
1.94773e-07
1.77094e-07
1.61199e-07
1.46891e-07
1.33995e-07
1.17104e-06
1.1712e-06
1.17377e-06
1.17803e-06
1.18327e-06
1.19008e-06
1.19844e-06
1.20837e-06
1.21978e-06
1.23256e-06
1.24651e-06
1.2621e-06
1.27853e-06
1.29585e-06
1.31382e-06
1.2422e-06
1.21909e-06
1.19711e-06
1.1764e-06
1.1571e-06
1.13898e-06
1.1229e-06
1.10823e-06
1.09519e-06
1.08377e-06
1.07395e-06
1.06568e-06
1.05891e-06
1.05361e-06
1.04943e-06
1.03801e-06
1.03815e-06
1.04043e-06
1.04421e-06
1.04888e-06
1.05498e-06
1.0625e-06
1.07149e-06
1.08186e-06
1.09354e-06
1.10636e-06
1.12073e-06
1.13602e-06
1.15224e-06
1.1692e-06
1.10808e-06
1.08695e-06
1.0669e-06
1.04806e-06
1.03054e-06
1.01414e-06
9.99596e-07
9.86365e-07
9.74622e-07
9.64359e-07
9.55552e-07
9.48149e-07
9.42086e-07
9.37353e-07
9.33603e-07
9.20975e-07
9.21099e-07
9.23123e-07
9.26474e-07
9.30655e-07
9.36124e-07
9.42894e-07
9.51029e-07
9.60481e-07
9.71168e-07
9.82952e-07
9.96218e-07
1.01044e-06
1.02562e-06
1.0416e-06
9.89579e-07
9.70238e-07
9.51929e-07
9.34765e-07
9.18833e-07
9.03981e-07
8.90807e-07
8.78855e-07
8.6827e-07
8.59036e-07
8.51125e-07
8.44486e-07
8.39056e-07
8.34818e-07
8.31456e-07
8.17938e-07
8.18048e-07
8.19849e-07
8.22829e-07
8.26576e-07
8.31484e-07
8.37582e-07
8.44953e-07
8.53574e-07
8.63368e-07
8.74216e-07
8.86462e-07
8.99686e-07
9.13899e-07
9.28958e-07
8.84778e-07
8.67054e-07
8.50318e-07
8.34662e-07
8.20163e-07
8.06688e-07
7.94743e-07
7.83934e-07
7.7438e-07
7.66061e-07
7.58945e-07
7.52985e-07
7.48115e-07
7.44316e-07
7.41299e-07
7.27165e-07
7.27263e-07
7.28868e-07
7.31523e-07
7.34886e-07
7.39299e-07
7.44797e-07
7.51478e-07
7.59346e-07
7.68336e-07
7.78335e-07
7.89646e-07
8.01943e-07
8.15247e-07
8.29422e-07
7.9201e-07
7.7575e-07
7.60437e-07
7.46141e-07
7.32929e-07
7.2069e-07
7.09845e-07
7.00057e-07
6.91422e-07
6.83918e-07
6.7751e-07
6.7215e-07
6.67778e-07
6.64368e-07
6.61659e-07
6.47139e-07
6.47228e-07
6.48659e-07
6.51027e-07
6.54052e-07
6.58029e-07
6.62993e-07
6.69048e-07
6.76233e-07
6.84495e-07
6.93724e-07
7.04179e-07
7.15611e-07
7.2806e-07
7.41397e-07
7.09816e-07
6.94885e-07
6.80857e-07
6.67791e-07
6.55738e-07
6.44606e-07
6.34748e-07
6.25874e-07
6.18061e-07
6.11282e-07
6.05503e-07
6.00679e-07
5.96748e-07
5.93682e-07
5.91248e-07
5.76534e-07
5.76615e-07
5.77894e-07
5.80009e-07
5.82734e-07
5.86324e-07
5.90815e-07
5.96307e-07
6.02867e-07
6.10465e-07
6.18996e-07
6.28668e-07
6.39294e-07
6.50937e-07
6.63481e-07
6.36923e-07
6.23196e-07
6.10332e-07
5.98377e-07
5.8737e-07
5.77233e-07
5.68261e-07
5.60205e-07
5.53126e-07
5.46995e-07
5.41778e-07
5.37428e-07
5.33891e-07
5.31132e-07
5.28942e-07
5.14193e-07
5.14268e-07
5.15412e-07
5.17302e-07
5.1976e-07
5.23009e-07
5.2708e-07
5.32068e-07
5.38056e-07
5.45045e-07
5.52939e-07
5.61898e-07
5.71776e-07
5.82656e-07
5.94448e-07
5.72212e-07
5.5958e-07
5.47771e-07
5.36821e-07
5.26759e-07
5.17517e-07
5.09341e-07
5.0202e-07
4.95597e-07
4.90046e-07
4.85329e-07
4.81403e-07
4.78214e-07
4.75728e-07
4.73757e-07
4.59103e-07
4.59174e-07
4.60198e-07
4.6189e-07
4.6411e-07
4.67054e-07
4.70753e-07
4.7529e-07
4.80756e-07
4.87183e-07
4.94494e-07
5.02803e-07
5.11989e-07
5.22149e-07
5.33227e-07
5.14707e-07
5.03073e-07
4.92218e-07
4.82179e-07
4.72971e-07
4.64536e-07
4.57077e-07
4.50414e-07
4.44581e-07
4.39547e-07
4.35278e-07
4.31729e-07
4.28851e-07
4.26609e-07
4.24832e-07
4.10381e-07
4.10448e-07
4.11368e-07
4.12882e-07
4.14889e-07
4.1756e-07
4.20929e-07
4.25065e-07
4.30057e-07
4.35964e-07
4.42735e-07
4.50451e-07
4.58999e-07
4.68482e-07
4.78878e-07
4.63547e-07
4.52826e-07
4.42839e-07
4.33623e-07
4.25189e-07
4.17483e-07
4.10671e-07
4.046e-07
3.99294e-07
3.94725e-07
3.90855e-07
3.87644e-07
3.85044e-07
3.83018e-07
3.81415e-07
3.67252e-07
3.67316e-07
3.68143e-07
3.69501e-07
3.71317e-07
3.73743e-07
3.76816e-07
3.80595e-07
3.85159e-07
3.90585e-07
3.96855e-07
4.04025e-07
4.11988e-07
4.20837e-07
4.30583e-07
4.17982e-07
4.08098e-07
3.98902e-07
3.90432e-07
3.82699e-07
3.75651e-07
3.69423e-07
3.63885e-07
3.59054e-07
3.549e-07
3.51389e-07
3.4848e-07
3.46127e-07
3.44294e-07
3.42847e-07
3.29041e-07
3.29101e-07
3.29846e-07
3.31066e-07
3.32709e-07
3.34916e-07
3.37722e-07
3.41182e-07
3.45363e-07
3.50347e-07
3.56147e-07
3.62812e-07
3.70238e-07
3.78497e-07
3.87624e-07
3.77353e-07
3.68237e-07
3.59764e-07
3.51972e-07
3.44873e-07
3.38422e-07
3.32721e-07
3.27664e-07
3.2326e-07
3.1948e-07
3.16289e-07
3.1365e-07
3.11518e-07
3.09859e-07
3.08551e-07
2.95155e-07
2.95211e-07
2.95883e-07
2.96981e-07
2.9847e-07
3.00477e-07
3.03043e-07
3.06216e-07
3.10054e-07
3.14635e-07
3.19995e-07
3.26189e-07
3.33118e-07
3.40833e-07
3.49375e-07
3.41085e-07
3.32671e-07
3.24861e-07
3.17688e-07
3.11165e-07
3.05252e-07
3.0003e-07
2.95407e-07
2.91386e-07
2.87942e-07
2.8504e-07
2.82643e-07
2.80709e-07
2.79204e-07
2.78022e-07
2.65075e-07
2.65127e-07
2.65734e-07
2.66724e-07
2.68075e-07
2.69903e-07
2.72249e-07
2.75163e-07
2.78694e-07
2.82909e-07
2.87859e-07
2.93611e-07
3.00079e-07
3.0729e-07
3.15283e-07
3.08675e-07
3.009e-07
2.937e-07
2.87092e-07
2.81092e-07
2.75667e-07
2.70877e-07
2.66647e-07
2.62974e-07
2.59831e-07
2.57188e-07
2.55008e-07
2.53252e-07
2.51886e-07
2.50815e-07
2.38349e-07
2.38395e-07
2.38944e-07
2.39838e-07
2.41066e-07
2.42731e-07
2.44879e-07
2.47556e-07
2.50809e-07
2.54696e-07
2.59268e-07
2.64602e-07
2.70638e-07
2.77383e-07
2.84863e-07
2.79679e-07
2.72489e-07
2.65844e-07
2.59756e-07
2.54232e-07
2.49249e-07
2.44852e-07
2.40976e-07
2.37617e-07
2.34747e-07
2.32337e-07
2.30352e-07
2.28755e-07
2.27514e-07
2.26543e-07
2.14576e-07
2.14619e-07
2.15114e-07
2.15922e-07
2.17041e-07
2.1856e-07
2.20526e-07
2.22988e-07
2.25988e-07
2.29578e-07
2.33805e-07
2.38746e-07
2.44373e-07
2.50685e-07
2.5769e-07
2.5371e-07
2.47052e-07
2.40916e-07