/*--------------------------------*- C++ -*----------------------------------*\
| =========                 |                                                 |
| \\      /  F ield         | OpenFOAM Extend Project: Open source CFD        |
|  \\    /   O peration     | Version:  1.6-ext                               |
|   \\  /    A nd           | Web:      www.extend-project.de                 |
|    \\/     M anipulation  |                                                 |
\*---------------------------------------------------------------------------*/
FoamFile
{
    version     2.0;
    format      ascii;
    class       volSymmTensorField;
    location    "0.5";
    object      DSigma;
}
// * * * * * * * * * * * * * * * * * * * * * * * * * * * * * * * * * * * * * //

dimensions      [1 -1 -2 0 0 0 0];

internalField   nonuniform List<symmTensor> 
328
(
(-0.0988204 -0.0202094 -4.53922e-25 -0.0350938 2.62918e-21 -0.0535657)
(-0.0917182 -0.0103495 0 -0.0518044 0 -0.057409)
(-0.097186 0.00863807 0 -0.0542786 0 -0.0605858)
(-0.11987 0.0222038 -3.41537e-25 -0.042649 3.15909e-21 -0.0650074)
(-0.0916456 -0.0140921 -1.01419e-25 -0.0207317 6.76356e-22 -0.0449509)
(-0.0919326 -0.00839763 -3.69966e-24 -0.0365812 -1.92892e-24 -0.0514055)
(-0.0973627 0.00742597 3.95688e-24 -0.0374581 -1.78884e-24 -0.0539283)
(-0.111981 0.0153119 -6.90773e-24 -0.0259599 -1.11199e-20 -0.0551763)
(-0.0895879 -0.0089335 -2.2523e-24 -0.0121929 1.68594e-20 -0.0407123)
(-0.0968616 -0.00635476 3.44957e-24 -0.0276817 1.79853e-24 -0.0498173)
(-0.102698 0.0059032 9.5631e-24 -0.0278359 -4.0129e-24 -0.0522135)
(-0.110024 0.00962192 6.31371e-24 -0.0161882 2.90201e-21 -0.0504848)
(-0.0871748 -0.00518311 3.52484e-23 -0.00624133 -8.42506e-23 -0.0373664)
(-0.0981881 -0.0043081 -1.73663e-24 -0.0193658 1.14018e-26 -0.0470216)
(-0.10401 0.00418666 -9.9461e-24 -0.0189313 4.66105e-24 -0.0491766)
(-0.10747 0.00554858 -7.47224e-25 -0.0094325 7.0492e-21 -0.0467611)
(-0.0861919 -0.00266952 -3.2718e-23 -0.00274871 -1.85585e-20 -0.0355763)
(-0.099735 -0.00256088 4.59481e-24 -0.0136679 1.43226e-24 -0.0453611)
(-0.105576 0.00262638 -2.43435e-23 -0.0129271 7.01001e-24 -0.0474011)
(-0.106471 0.00285774 1.07808e-24 -0.00552368 -9.1656e-21 -0.0447978)
(-0.0856622 -0.00105095 3.97248e-24 -0.000651031 1.40834e-20 -0.0345253)
(-0.100143 -0.00118131 0 -0.00923348 0 -0.0437506)
(-0.105906 0.00135677 2.05551e-23 -0.00828522 -6.49172e-24 -0.0456765)
(-0.105891 0.00115123 6.46522e-23 -0.00320419 -2.2257e-20 -0.0436381)
(-0.0856861 -8.32899e-05 -7.9035e-25 0.000456981 5.10716e-21 -0.0340916)
(-0.100267 -0.000205797 -6.77432e-24 -0.00618972 3.07492e-25 -0.0425828)
(-0.105953 0.000443385 6.77441e-24 -0.00512704 -3.075e-25 -0.044432)
(-0.105874 0.000148056 -6.95337e-23 -0.00199776 2.33579e-20 -0.0431488)
(-0.085987 0.000441755 1.00254e-23 0.000983 -1.61756e-20 -0.0340016)
(-0.0999835 0.000414825 6.62671e-23 -0.00407656 8.12088e-24 -0.041624)
(-0.105577 -0.000139352 0 -0.00294141 0 -0.0434074)
(-0.106118 -0.000384917 -1.34088e-24 -0.00143238 7.98594e-21 -0.0430201)
(-0.0864723 0.000671669 1.73408e-23 0.0011499 -7.72042e-21 -0.034129)
(-0.0995475 0.000745398 -7.93072e-23 -0.00273306 -6.36055e-24 -0.0409122)
(-0.105055 -0.000445391 1.75202e-23 -0.00155586 -1.21135e-24 -0.0426444)
(-0.106532 -0.000609633 -1.8795e-23 -0.00125419 -9.81208e-21 -0.0431144)
(-0.0870199 0.000719401 -2.07158e-24 0.0011218 9.9699e-21 -0.0343592)
(-0.0990114 0.000866501 -1.8079e-22 -0.00192213 -5.83505e-24 -0.0403734)
(-0.104437 -0.000548826 1.91663e-22 -0.000718774 -3.84337e-23 -0.0420624)
(-0.10699 -0.000647523 -6.1004e-26 -0.0012799 2.9561e-22 -0.0433078)
(-0.0875599 0.000664079 -5.75219e-23 0.000996374 -2.55217e-21 -0.0346254)
(-0.0984718 0.000850742 1.90113e-22 -0.00149011 1.26959e-23 -0.0399848)
(-0.103823 -0.00051992 -1.60691e-22 -0.000271687 3.43674e-23 -0.0416378)
(-0.107421 -0.000582141 4.19387e-25 -0.00140321 -1.85653e-21 -0.0435297)
(-0.0880399 0.000561168 2.58447e-22 0.000836521 -4.53238e-21 -0.0348814)
(-0.0979667 0.000759547 -2.28794e-22 -0.00129884 -1.02695e-24 -0.0397062)
(-0.103248 -0.000419231 -2.46978e-22 -7.24919e-05 5.5924e-23 -0.0413284)
(-0.107773 -0.000471104 -1.13784e-22 -0.00155738 2.98517e-21 -0.0437323)
(-0.0884335 0.000446179 -1.63223e-22 0.000677732 -1.05841e-21 -0.0351023)
(-0.0975243 0.000637853 -2.36799e-23 -0.00125162 5.98912e-24 -0.0395104)
(-0.102741 -0.000291692 1.85329e-22 -2.28771e-05 -3.85151e-23 -0.0411056)
(-0.108021 -0.000350764 4.23322e-22 -0.00170604 -2.61079e-21 -0.0438909)
(-0.08873 0.000340035 -4.57649e-23 0.000538566 5.40759e-21 -0.0352766)
(-0.0971487 0.000515409 1.84141e-22 -0.00127777 -8.34308e-24 -0.0393706)
(-0.102304 -0.000167029 0 -5.09678e-05 0 -0.0409419)
(-0.108155 -0.000242115 -2.10225e-22 -0.00183094 3.5125e-21 -0.0439943)
(-0.0889311 0.000252745 -2.0518e-22 0.000425834 6.34739e-21 -0.0354021)
(-0.0968338 0.000408683 0 -0.0013327 0 -0.0392666)
(-0.101929 -6.14361e-05 -1.12863e-22 -0.000111457 3.19294e-23 -0.040816)
(-0.108178 -0.000154825 1.14711e-22 -0.00192608 -6.16744e-21 -0.0440415)
(-0.0890449 0.000187107 1.92843e-22 0.000339265 -1.04076e-20 -0.0354823)
(-0.0965643 0.000324433 2.25922e-22 -0.00139042 -2.81455e-23 -0.0391819)
(-0.101599 1.90505e-05 -1.17567e-22 -0.000177778 3.34229e-23 -0.0407109)
(-0.108099 -9.1058e-05 1.16426e-22 -0.00199256 3.56301e-21 -0.0440365)
(-0.0890824 0.000141556 -2.57576e-24 0.000274562 7.69737e-21 -0.0355231)
(-0.0963218 0.000263033 -2.10649e-22 -0.00143891 2.62429e-23 -0.0391043)
(-0.101297 7.5162e-05 0 -0.00023741 0 -0.0406137)
(-0.10793 -4.84741e-05 1.28497e-22 -0.00203529 1.82082e-21 -0.0439862)
(-0.0890539 0.000112465 3.32525e-24 0.000225737 -9.55369e-21 -0.0355313)
(-0.0960873 0.000221455 -2.37196e-22 -0.00147489 4.96616e-23 -0.0390249)
(-0.101001 0.000111243 7.5094e-22 -0.000286705 -1.83403e-22 -0.040515)
(-0.107683 -2.26188e-05 -2.63223e-22 -0.0020606 -9.81595e-21 -0.0438973)
(-0.0889673 9.56273e-05 4.48255e-22 0.000186527 4.33037e-21 -0.0355123)
(-0.0958432 0.000195357 7.25984e-22 -0.00150006 -1.35896e-22 -0.0389373)
(-0.100693 0.000132889 -4.79012e-22 -0.000326989 1.247e-22 -0.0404079)
(-0.107363 -8.54283e-06 5.56547e-22 -0.00207472 8.44146e-21 -0.0437751)
(-0.0888276 8.71966e-05 -1.96781e-22 0.000151296 -3.83979e-21 -0.0354705)
(-0.0955738 0.000180374 -1.45902e-21 -0.00151826 3.19053e-22 -0.0388368)
(-0.100357 0.000145282 5.17066e-22 -0.000361909 -1.48168e-22 -0.0402874)
(-0.106975 -1.8793e-06 -1.64244e-21 -0.00208298 -1.17514e-21 -0.0436231)
(-0.0886357 8.38493e-05 -1.48409e-24 0.000115197 3.99662e-21 -0.0354082)
(-0.0952656 0.000172649 7.31968e-22 -0.0015337 -1.8101e-22 -0.0387197)
(-0.0999775 0.000152422 -5.29398e-22 -0.000395479 1.618e-22 -0.0401492)
(-0.106516 9.09882e-07 1.38992e-21 -0.00208979 9.13391e-21 -0.0434424)
(-0.0883908 8.3063e-05 2.53204e-22 7.4344e-05 -2.78623e-21 -0.0353266)
(-0.0949076 0.000168945 2.46534e-22 -0.00155072 -6.16532e-23 -0.0385833)
(-0.0995438 0.000156682 2.78256e-22 -0.000431932 -9.75806e-23 -0.0399903)
(-0.105984 2.07314e-06 -8.21935e-22 -0.00209837 -7.62799e-21 -0.043233)
(-0.0880725 8.24633e-05 3.32251e-24 2.52499e-05 8.2928e-21 -0.0352189)
(-0.0944699 0.000165812 0 -0.00157186 0 -0.0384167)
(-0.0990222 0.00015849 5.38991e-22 -0.00047494 -1.95658e-22 -0.0397988)
(-0.105346 2.756e-06 1.21361e-24 -0.00211184 -3.33619e-21 -0.0429833)
(-0.0876847 8.16892e-05 -9.92974e-22 -3.58816e-05 -6.54306e-21 -0.0350882)
(-0.0939578 0.000164357 5.14176e-22 -0.00160258 -1.66169e-22 -0.0382241)
(-0.0984207 0.000161355 -1.12602e-21 -0.000529151 4.24107e-22 -0.0395799)
(-0.104618 5.74787e-06 6.2057e-22 -0.0021352 -6.32881e-23 -0.0427013)
(-0.0872482 7.8772e-05 1.08159e-21 -0.000103308 -1.93595e-21 -0.0349406)
(-0.0933985 0.000161716 3.51799e-23 -0.00163932 -2.96343e-23 -0.0380151)
(-0.0977727 0.000163571 -6.34822e-22 -0.000589106 2.63464e-22 -0.0393447)
(-0.103843 1.08592e-05 6.87491e-24 -0.00216468 2.63634e-21 -0.0424029)
(-0.0867653 7.34291e-05 -5.64041e-22 -0.000177704 -2.4795e-23 -0.0347772)
(-0.0927952 0.000157701 -3.21693e-22 -0.00168327 1.35622e-22 -0.0377914)
(-0.0970821 0.000165639 -3.41043e-22 -0.000656166 1.50747e-22 -0.0390953)
(-0.103027 1.84357e-05 7.14542e-22 -0.00220248 -5.22111e-22 -0.0420917)
(-0.0862363 6.56017e-05 -6.41915e-25 -0.000256553 2.26312e-21 -0.0345971)
(-0.0921486 0.000153074 6.65674e-22 -0.00173254 -2.91451e-22 -0.0375524)
(-0.09635 0.000168706 -3.86232e-22 -0.000728417 1.88554e-22 -0.0388314)
(-0.102173 2.9326e-05 3.64204e-22 -0.00224656 2.93683e-21 -0.0417677)
(-0.0856641 5.57308e-05 -3.43632e-22 -0.000338905 -2.08607e-21 -0.0344012)
(-0.0914613 0.000149023 -3.43982e-22 -0.00178602 1.55829e-22 -0.0372989)
(-0.0955791 0.000174047 3.64524e-22 -0.000804802 -1.70823e-22 -0.0385535)
(-0.101283 4.40561e-05 2.4893e-23 -0.00229611 -1.87121e-21 -0.0414318)
(-0.085052 4.41687e-05 -2.07803e-23 -0.000422338 1.03555e-22 -0.0341897)
(-0.0907356 0.000146756 -3.88017e-22 -0.00184116 1.99778e-22 -0.0370307)
(-0.0947707 0.000182931 0 -0.000882873 0 -0.0382614)
(-0.10036 6.32371e-05 -4.08204e-22 -0.00234819 -7.69937e-22 -0.0410831)
(-0.0844051 3.1425e-05 1.43406e-24 -0.000504817 9.8822e-22 -0.033964)
(-0.0899743 0.000147299 1.83145e-22 -0.00189535 -8.804e-23 -0.0367479)
(-0.0939267 0.000196285 0 -0.000960193 0 -0.0379548)
(-0.0994013 8.70858e-05 -4.33988e-22 -0.00239985 2.77433e-21 -0.0407205)
(-0.0837286 1.79132e-05 -1.91763e-22 -0.000583534 1.08738e-21 -0.0337249)
(-0.0891803 0.000151316 2.04872e-22 -0.00194518 -1.11738e-22 -0.0364502)
(-0.0930482 0.000214623 0 -0.00103358 0 -0.0376327)
(-0.0984074 0.000115595 2.47138e-25 -0.00244711 -2.07782e-21 -0.0403418)
(-0.0830283 4.08094e-06 -5.32836e-23 -0.000655535 1.77899e-22 -0.0334735)
(-0.0883563 0.000159113 0 -0.00198693 0 -0.0361373)
(-0.0921361 0.000237982 0 -0.00109963 0 -0.0372943)
(-0.0973761 0.000148371 -8.29459e-26 -0.00248572 1.22419e-21 -0.0399447)
(-0.0823093 -9.63184e-06 8.26295e-23 -0.000717407 4.80561e-22 -0.0332107)
(-0.0875048 0.000170677 0 -0.0020165 0 -0.0358085)
(-0.091191 0.000265996 -6.2609e-23 -0.00115455 3.94137e-23 -0.0369382)
(-0.0963054 0.000184737 -9.3879e-26 -0.002511 -9.79168e-22 -0.0395266)
(-0.0815762 -2.27162e-05 -5.58437e-23 -0.00076557 -1.48404e-21 -0.0329367)
(-0.0866277 0.000185781 0 -0.00202967 0 -0.035463)
(-0.0902133 0.000297986 6.2609e-23 -0.00119441 -3.94137e-23 -0.0365631)
(-0.0951931 0.000223724 -3.29342e-23 -0.00251824 1.25741e-21 -0.0390845)
(-0.0808326 -3.45862e-05 4.88229e-22 -0.000796342 8.98074e-22 -0.0326516)
(-0.0857267 0.000204072 -7.60447e-22 -0.00202224 5.2682e-22 -0.0350996)
(-0.0892028 0.000333068 0 -0.00121529 0 -0.0361673)
(-0.0940369 0.000264158 8.12959e-26 -0.00250277 7.67922e-22 -0.0386159)
(-0.0800809 -4.45612e-05 2.37516e-22 -0.000806204 1.15537e-22 -0.0323548)
(-0.0848024 0.000225149 5.15224e-22 -0.00199028 -3.58325e-22 -0.0347171)
(-0.0881593 0.000370234 5.65798e-22 -0.00121347 -4.02018e-22 -0.0357491)
(-0.0928345 0.000304698 -5.99359e-22 -0.00246029 6.83401e-23 -0.0381179)
(-0.0793223 -5.18893e-05 -3.39382e-25 -0.000792021 -1.4629e-21 -0.0320457)
(-0.083855 0.000248593 0 -0.00193037 0 -0.0343142)
(-0.0870818 0.000408417 2.11251e-23 -0.0011857 -3.08663e-23 -0.035307)
(-0.0915835 0.000343903 6.21279e-22 -0.00238707 -3.28433e-21 -0.0375882)
(-0.0785568 -5.57842e-05 3.75853e-25 -0.000751304 1.25644e-21 -0.0317233)
(-0.0828838 0.000273975 -1.16335e-21 -0.00183983 8.83708e-22 -0.0338895)
(-0.085969 0.000446519 3.01807e-21 -0.00112939 -2.29134e-21 -0.0348393)
(-0.0902814 0.000380286 -1.22593e-21 -0.00228018 1.31895e-21 -0.0370246)
(-0.077783 -5.54819e-05 -2.26483e-21 -0.00068244 -4.07318e-22 -0.0313862)
(-0.0818873 0.000300843 2.33013e-21 -0.00171696 -1.89077e-21 -0.0334417)
(-0.0848191 0.00048343 -1.21556e-21 -0.0010429 9.29345e-22 -0.0343448)
(-0.0889257 0.00041237 1.32087e-21 -0.00213778 -3.29323e-21 -0.0364254)
(-0.0769984 -5.02994e-05 1.12635e-21 -0.000584887 2.00886e-21 -0.0310333)
(-0.0808633 0.000328698 -2.42155e-21 -0.00156124 2.00393e-21 -0.0329698)
(-0.0836299 0.000518045 1.31011e-21 -0.000925693 -1.0415e-21 -0.0338223)
(-0.0875138 0.000438747 -2.6313e-21 -0.0019593 3.15423e-21 -0.0357893)
(-0.0761993 -3.96918e-05 -2.4162e-21 -0.00045932 9.99101e-23 -0.0306634)
(-0.0798089 0.000356991 2.44575e-21 -0.00137347 -2.09287e-21 -0.0324729)
(-0.082399 0.00054929 0 -0.000778487 0 -0.033271)
(-0.0860434 0.000458148 -2.82385e-21 -0.00174558 2.57787e-21 -0.0351156)
(-0.0753809 -2.3299e-05 3.63728e-21 -0.000307702 -2.29303e-22 -0.0302754)
(-0.0787207 0.000385119 -1.25311e-21 -0.00115584 1.12698e-21 -0.0319506)
(-0.0811235 0.000576154 0 -0.000603361 0 -0.0326908)
(-0.0845123 0.000469499 1.40517e-21 -0.001499 -1.63395e-21 -0.0344045)
(-0.0745377 -9.78744e-07 2.43714e-21 -0.000133285 -2.42958e-21 -0.0298684)
(-0.0775948 0.00041244 2.68941e-21 -0.000911947 -2.49295e-21 -0.0314027)
(-0.0798006 0.000597728 2.86317e-21 -0.000403734 -2.49769e-21 -0.0320817)
(-0.0829187 0.000471985 1.09941e-22 -0.00122348 -3.57705e-23 -0.0336569)
(-0.0736632 2.71727e-05 9.55831e-25 5.94703e-05 1.32601e-21 -0.0294415)
(-0.0764269 0.000438301 -2.68941e-21 -0.000646707 2.49295e-21 -0.0308294)
(-0.0784273 0.000613254 -2.90829e-21 -0.000184296 2.68858e-21 -0.0314446)
(-0.0812615 0.00046509 -6.02426e-21 -0.000924341 6.12651e-21 -0.0328743)
(-0.0727508 6.08135e-05 -2.58112e-21 0.000265042 8.91882e-23 -0.0289943)
(-0.0752128 0.000462052 0 -0.000366181 0 -0.0302316)
(-0.0770011 0.000622149 5.89193e-21 4.91523e-05 -5.52457e-21 -0.0307808)
(-0.07954 0.000448636 6.21758e-21 -0.000608186 -2.86408e-21 -0.0320593)
(-0.0717936 9.93601e-05 4.69542e-25 0.000477073 5.45764e-22 -0.0285266)
(-0.0739483 0.000483072 -2.94725e-21 -7.73544e-05 2.88578e-21 -0.0296103)
(-0.0755194 0.000624033 -3.13078e-21 0.000289935 2.88563e-21 -0.0300918)
(-0.0777545 0.000422788 3.09392e-21 -0.000282606 -3.31301e-21 -0.0312149)
(-0.0707846 0.000142001 -9.11182e-25 0.000688649 -9.81423e-22 -0.0280384)
(-0.0726295 0.000500777 -3.0198e-21 0.000212167 3.03634e-21 -0.0289669)
(-0.0739806 0.000618733 3.01975e-21 0.000530788 -3.03629e-21 -0.0293799)
(-0.075906 0.00038805 -1.51346e-24 4.41323e-05 -1.61691e-21 -0.0303448)
(-0.0697174 0.00018772 -2.78933e-21 0.000892622 6.9309e-22 -0.0275299)
(-0.0712527 0.000514626 3.05043e-21 0.000494491 -3.24154e-21 -0.0283033)
(-0.0723831 0.000606269 6.4429e-21 0.000764197 -6.52518e-21 -0.0286476)
(-0.0739964 0.000345235 1.53556e-22 0.000363455 3.33174e-21 -0.0294532)
(-0.068586 0.000235332 -4.24333e-23 0.00108196 4.23391e-22 -0.0270016)
(-0.0698152 0.000524128 -3.16101e-21 0.000761804 3.34196e-21 -0.0276213)
(-0.0707266 0.000586842 -3.20162e-21 0.000982749 3.28869e-21 -0.0278975)
(-0.0720285 0.000295431 -2.16792e-24 0.000666864 -2.03073e-21 -0.0285447)
(-0.067385 0.000283526 3.03413e-21 0.0012501 -1.65892e-21 -0.026454)
(-0.0683148 0.000528849 4.29378e-23 0.00100673 5.4703e-23 -0.0269232)
(-0.0690111 0.000560812 6.72147e-21 0.00117949 -7.13903e-21 -0.0271326)
(-0.070006 0.000239942 -3.38348e-21 0.000946327 2.03685e-21 -0.0276239)
(-0.0661101 0.00033092 -3.05514e-21 0.00139127 1.89845e-21 -0.0258875)
(-0.0667501 0.00052843 3.36249e-21 0.00122266 -3.80728e-21 -0.026211)
(-0.0672376 0.000528683 -3.33958e-21 0.00134827 3.59653e-21 -0.0263557)
(-0.0679335 0.000180238 -7.20958e-21 0.00119463 3.8317e-21 -0.0266955)
(-0.0647578 0.000376125 1.26207e-20 0.00150077 -7.27152e-21 -0.0253028)
(-0.0651208 0.000522614 -6.28636e-21 0.00140408 7.21346e-21 -0.0254867)
(-0.0654082 0.000491088 0 0.001484 0 -0.0255697)
(-0.0658163 0.000117896 -1.46003e-20 0.0014057 4.65076e-21 -0.0257642)
(-0.0633256 0.000417815 -6.4551e-21 0.0015752 3.885e-21 -0.0247002)
(-0.0634274 0.000511275 -6.63414e-21 0.00154675 7.72628e-21 -0.0247523)
(-0.0635255 0.000448791 0 0.0015829 0 -0.024777)
(-0.0636607 5.45362e-05 7.25741e-21 0.00157485 -9.98093e-22 -0.0248344)
(-0.0618123 0.000454784 6.45639e-21 0.00161258 -3.08294e-21 -0.0240799)
(-0.0616713 0.000494452 -6.88257e-21 0.00164789 8.35189e-21 -0.0240094)
(-0.0615929 0.000402676 -7.19054e-21 0.00164264 8.43459e-21 -0.0239801)
(-0.0614734 -8.22668e-06 7.60107e-21 0.00169892 -1.07832e-21 -0.0239098)
(-0.0602176 0.000486018 -6.701e-21 0.00161237 2.31414e-21 -0.0234421)
(-0.0598547 0.000472377 6.88257e-21 0.00170626 -8.35189e-21 -0.0232594)
(-0.0596147 0.000353743 7.19055e-21 0.00166236 -8.4346e-21 -0.0231809)
(-0.0592612 -6.88411e-05 -3.22691e-26 0.0017764 -2.2985e-23 -0.0229939)
(-0.0585425 0.000510729 1.3513e-20 0.00157546 -8.96764e-21 -0.0227868)
(-0.0579809 0.000445481 -7.11702e-21 0.00172209 8.97544e-21 -0.0225035)
(-0.0575955 0.00030309 0 0.0016427 0 -0.0223811)
(-0.0570313 -0.000125868 7.73517e-21 0.00180741 -4.69763e-21 -0.0220896)
(-0.0567893 0.000528392 -6.81323e-21 0.00150398 5.72667e-21 -0.0221141)
(-0.0560535 0.000414391 1.43456e-20 0.00169703 -1.8261e-20 -0.0217426)
(-0.0555404 0.00025188 0 0.0015856 0 -0.0215819)
(-0.0547907 -0.000178026 -7.73478e-21 0.00179356 5.10124e-21 -0.0211988)
(-0.0549614 0.00053875 -6.82832e-21 0.00140116 5.61338e-21 -0.0214241)
(-0.0540772 0.000379887 -7.22861e-21 0.00163393 9.28554e-21 -0.0209773)
(-0.0534545 0.00020129 -7.64029e-21 0.00149419 9.66622e-21 -0.0207841)
(-0.0525456 -0.000224238 7.94571e-21 0.00173787 -7.81879e-21 -0.0203231)
(-0.0530633 0.0005418 -7.1448e-21 0.00127102 3.84809e-21 -0.0207169)
(-0.0520567 0.000342856 0 0.00153666 0 -0.020208)
(-0.0513431 0.000152453 -2.02965e-22 0.00137249 1.87155e-22 -0.0199882)
(-0.050302 -0.00026366 -9.9694e-23 0.00164443 -1.29088e-22 -0.019463)
(-0.0511003 0.000537771 7.14549e-21 0.00111815 -3.54003e-21 -0.0199929)
(-0.0499973 0.000304219 0 0.00140981 0 -0.019435)
(-0.0492113 0.000106389 -7.94212e-21 0.00122523 1.01547e-20 -0.0191944)
(-0.0480648 -0.000295714 8.0527e-21 0.00151821 -5.59622e-21 -0.0186186)
(-0.0490788 0.000527077 -1.02475e-22 0.000947452 5.00904e-22 -0.0192525)
(-0.0479044 0.000264859 -3.00785e-22 0.00125846 6.54149e-23 -0.0186584)
(-0.0470641 6.39403e-05 7.7375e-21 0.00105748 -1.039e-20 -0.0184026)
(-0.0458381 -0.000320099 1.63853e-20 0.00136473 -1.07427e-20 -0.0177893)
(-0.0470052 0.000510275 -7.34281e-21 0.000763856 4.76696e-21 -0.0184966)
(-0.0457834 0.000225556 1.55541e-20 0.00108787 -2.14993e-20 -0.0178782)
(-0.0449058 2.57191e-05 -7.93421e-21 0.000874466 1.0572e-20 -0.0176125)
(-0.0436251 -0.000336794 -8.5381e-21 0.00118975 3.38167e-21 -0.0169741)
(-0.0448867 0.000488018 -7.62798e-21 0.000572156 6.24231e-21 -0.0177258)
(-0.0436395 0.000186938 1.25808e-24 0.000903272 -3.631e-25 -0.0170945)
(-0.0427407 -7.92067e-06 -7.7266e-21 0.000681297 1.08115e-20 -0.0168238)
(-0.0414283 -0.000346039 -1.66263e-20 0.000999016 1.25831e-20 -0.0161717)
(-0.0427299 0.000461019 7.71354e-21 0.000376829 -6.24293e-21 -0.0169412)
(-0.0414777 0.000149461 -7.78661e-21 0.000709648 1.15236e-20 -0.0163072)
(-0.0405724 -3.68844e-05 0 0.000482788 0 -0.0160358)
(-0.0392495 -0.000348307 8.41339e-21 0.000798003 -2.4379e-21 -0.0153806)
(-0.0405415 0.000430018 7.68756e-21 0.000181922 -5.53324e-21 -0.0161438)
(-0.0393024 0.000113418 7.89255e-21 0.000511573 -1.14035e-20 -0.0155163)
(-0.038404 -6.13058e-05 -8.26037e-21 0.000283304 1.17475e-20 -0.0152483)
(-0.0370898 -0.000344257 -4.06851e-24 0.000591722 -2.35904e-21 -0.0145992)
(-0.0383274 0.000395769 7.44355e-23 -9.02826e-06 -3.68391e-22 -0.0153346)
(-0.0371178 7.89712e-05 0 0.000313095 0 -0.0147219)
(-0.0362382 -8.14883e-05 8.26038e-21 8.6659e-05 -1.17475e-20 -0.0144606)
(-0.03495 -0.000334675 3.90821e-26 0.000384576 2.24431e-23 -0.0138262)
(-0.036093 0.000359025 -7.75885e-21 -0.000193033 7.79507e-21 -0.0145144)
(-0.0349274 4.62144e-05 0 0.000117674 0 -0.0139239)
(-0.0340774 -9.78262e-05 -8.39712e-21 -0.000103944 1.2322e-20 -0.0136725)
(-0.0328307 -0.000320413 8.69356e-21 0.000180283 -5.43082e-21 -0.0130602)
(-0.0338429 0.000320547 -1.03948e-24 -0.000367662 -5.85217e-22 -0.0136842)
(-0.0327342 1.52399e-05 0 -7.18455e-05 0 -0.0131224)
(-0.0319234 -0.000110717 8.39713e-21 -0.000285927 -1.2322e-20 -0.0128837)
(-0.030732 -0.000302323 -8.69268e-21 -1.815e-05 5.99103e-21 -0.0123001)
(-0.0315813 0.000281096 7.95793e-21 -0.000531042 -6.95434e-21 -0.0128449)
(-0.0305408 -1.37967e-05 -8.34656e-21 -0.000253216 1.27282e-20 -0.0123176)
(-0.0297777 -0.000120477 1.69758e-20 -0.000457331 -2.54947e-20 -0.012094)
(-0.028654 -0.000281199 2.85071e-22 -0.000208408 2.45121e-21 -0.011545)
(-0.0293115 0.000241438 -7.95953e-21 -0.000681813 6.09804e-21 -0.0119973)
(-0.0283494 -4.06249e-05 -1.15024e-22 -0.000424732 -1.23313e-22 -0.0115097)
(-0.0276413 -0.000127281 1.70858e-20 -0.000616753 -2.60573e-20 -0.0113032)
(-0.0265963 -0.000257737 -8.69553e-21 -0.000388775 6.21274e-21 -0.010794)
(-0.0270371 0.000202324 8.06701e-21 -0.000819124 -6.65596e-21 -0.0111425)
(-0.0261618 -6.48439e-05 -1.67413e-20 -0.00058517 2.64265e-20 -0.0106988)
(-0.0255149 -0.000131126 -1.63509e-22 -0.000763302 1.5545e-22 -0.0105113)
(-0.0245581 -0.000232495 -1.43262e-24 -0.000558069 -7.98416e-22 -0.0100465)
(-0.0247612 0.000164481 -8.067e-21 -0.00094254 6.68456e-21 -0.0102815)
(-0.0239796 -8.59373e-05 0 -0.000733697 0 -0.00988531)
(-0.0233992 -0.00013184 1.73961e-20 -0.000896509 -2.70485e-20 -0.00971827)
(-0.0225383 -0.000205906 -2.68103e-20 -0.000715473 1.86341e-20 -0.00930152)
(-0.0224873 0.000128547 1.64338e-20 -0.00105199 -1.35912e-20 -0.00941571)
(-0.0218043 -0.000103348 -1.68078e-20 -0.000869703 2.76723e-20 -0.0090696)
(-0.0212939 -0.000129125 8.54358e-21 -0.00101616 -1.38498e-20 -0.00892404)
(-0.0205348 -0.000178258 8.94958e-21 -0.000860418 -6.9164e-21 -0.0085581)
(-0.0202191 9.50486e-05 3.85602e-23 -0.00114781 2.46207e-22 -0.00854675)
(-0.0196377 -0.000116569 1.70426e-20 -0.000992951 -2.83802e-20 -0.00825227)
(-0.0191995 -0.000122638 2.75362e-22 -0.00112245 -2.33376e-23 -0.00812876)
(-0.0185454 -0.000149748 -2.70385e-20 -0.000992561 1.99846e-20 -0.00781517)
(-0.0179597 6.42868e-05 -8.194e-21 -0.00123006 7.32812e-21 -0.00767591)
(-0.0174806 -0.000125318 -8.4607e-21 -0.00110263 1.42535e-20 -0.0074333)
(-0.0171147 -0.000112026 -8.8903e-21 -0.00121503 1.4423e-20 -0.00733188)
(-0.016566 -0.000120464 1.79244e-20 -0.00111115 -1.56617e-20 -0.00707086)
(-0.0157148 3.62634e-05 1.63595e-20 -0.00129998 -1.51422e-20 -0.00680589)
(-0.0153368 -0.000129629 0 -0.00119949 0 -0.00661453)
(-0.0150415 -9.70527e-05 0 -0.00129509 0 -0.00653463)
(-0.0145945 -9.0393e-05 3.64984e-25 -0.00121637 2.01463e-22 -0.00632435)
(-0.0134829 1.04396e-05 -1.27043e-22 -0.00135572 -6.09079e-22 -0.00593545)
(-0.0132031 -0.000130269 8.54468e-21 -0.00127973 -1.50823e-20 -0.00579315)
(-0.0129748 -7.72174e-05 -1.25088e-22 -0.00135929 -1.29046e-22 -0.00573362)
(-0.012622 -5.92046e-05 -2.71204e-22 -0.00130528 -6.1852e-22 -0.00557093)
(-0.0112774 -1.39628e-05 -8.58021e-21 -0.00140133 6.94797e-21 -0.00507148)
(-0.0110968 -0.000128081 -8.82038e-21 -0.00135002 1.50947e-20 -0.00497874)
(-0.0109297 -5.24529e-05 -8.96461e-21 -0.00141467 1.52382e-20 -0.00493776)
(-0.0106537 -2.64807e-05 9.24951e-21 -0.00138065 -6.9465e-21 -0.00481373)
(-0.00906805 -3.9375e-05 1.30982e-22 -0.00142386 4.58584e-22 -0.00419677)
(-0.00898572 -0.000125517 8.70974e-21 -0.00138983 -1.54999e-20 -0.00415022)
(-0.00887315 -2.06302e-05 1.2836e-22 -0.00144121 1.31443e-22 -0.00412574)
(-0.00865427 1.02593e-05 -9.13761e-21 -0.00142882 7.70268e-21 -0.00403324)
(-0.0069311 -6.25087e-05 8.46203e-21 -0.00145103 -7.82023e-21 -0.00335285)
(-0.00697441 -0.000119618 -8.44752e-21 -0.00145622 1.57667e-20 -0.00337225)
(-0.00690674 1.32947e-05 8.8642e-21 -0.00149496 -1.59129e-20 -0.00336068)
(-0.00668766 4.66481e-05 -1.40921e-22 -0.00147166 -2.82534e-22 -0.00326373)
(-0.00465093 -8.66459e-05 -8.47128e-21 -0.00142424 8.0693e-21 -0.00243006)
(-0.00480178 -0.000109887 8.45678e-21 -0.00144252 -1.60431e-20 -0.00249772)
(-0.0047731 5.11245e-05 6.93262e-24 -0.00147187 -2.72205e-22 -0.00249799)
(-0.00454631 8.92176e-05 -9.2873e-21 -0.00145732 7.64206e-21 -0.00240145)
(-0.0028475 -5.32768e-05 -4.04395e-21 -0.0015889 8.21242e-21 -0.00177456)
(-0.00314919 -5.54472e-05 -4.11935e-21 -0.00181422 1.64501e-20 -0.00198536)
(-0.00314219 4.92618e-05 -4.46459e-21 -0.00183395 1.61772e-20 -0.00199045)
(-0.00281431 6.70523e-05 -4.4383e-21 -0.00160765 8.47998e-21 -0.00176878)
)
;

boundaryField
{
    plateFix
    {
        type            calculated;
        value           nonuniform List<symmTensor> 4((-0.0998644 -0.0259611 -3.63391e-25 -0.0357914 2.62918e-21 -0.0542623) (-0.0863433 -0.0110733 0 -0.0482211 0 -0.0538257) (-0.0912005 0.00866656 0 -0.0502882 0 -0.0565955) (-0.12072 0.0284983 -2.0451e-25 -0.043215 3.15909e-21 -0.0655741));
    }
    plate
    {
        type            calculated;
        value           nonuniform List<symmTensor> 
168
(
(-0.0760705 -1.32563e-05 -8.88749e-25 -0.000951534 5.14775e-21 -0.0308088)
(-0.0921432 3.391e-06 -6.81609e-25 -0.00107145 6.30463e-21 -0.0372858)
(-0.0784614 -1.21933e-05 -2.03198e-25 -0.00094485 1.35511e-21 -0.0317625)
(-0.0953788 1.1171e-06 -3.94554e-24 -0.00106475 -2.23927e-20 -0.0385774)
(-0.0820905 -1.14966e-05 -4.50423e-24 -0.000940806 3.3716e-20 -0.0332125)
(-0.0999356 -2.48728e-06 4.95255e-24 -0.00106069 5.83095e-21 -0.0403985)
(-0.0836413 -1.0585e-05 3.52616e-23 -0.000937869 -1.88173e-22 -0.0338317)
(-0.101885 -5.53221e-06 -1.50788e-24 -0.00105753 1.42251e-20 -0.041177)
(-0.0849843 -1.00559e-05 -3.03029e-23 -0.000935489 -3.69692e-20 -0.0343679)
(-0.10349 -8.24428e-06 2.17188e-24 -0.00105479 -1.84649e-20 -0.0418181)
(-0.085851 -9.8737e-06 2.20906e-24 -0.000933473 2.79264e-20 -0.0347138)
(-0.104456 -1.078e-05 6.76307e-23 -0.00105234 -4.47359e-20 -0.0422033)
(-0.0866119 -1.02251e-05 -1.57855e-24 -0.00093174 1.02004e-20 -0.0350175)
(-0.105242 -1.34421e-05 -7.30845e-23 -0.00105008 4.69148e-20 -0.042517)
(-0.0872622 -1.09974e-05 1.2702e-23 -0.000930204 -3.22341e-20 -0.035277)
(-0.105862 -1.62538e-05 -2.68178e-24 -0.00104793 1.5972e-20 -0.0427639)
(-0.0878577 -1.20678e-05 1.86041e-23 -0.000928815 -1.54601e-20 -0.0355146)
(-0.106393 -1.9221e-05 -1.68063e-23 -0.00104587 -1.95292e-20 -0.0429757)
(-0.0883856 -1.32804e-05 -4.1275e-24 -0.000927544 1.98644e-20 -0.0357253)
(-0.106833 -2.23047e-05 -1.01554e-25 -0.00104391 4.92105e-22 -0.0431506)
(-0.0888412 -1.45176e-05 -5.6789e-23 -0.000926393 -5.02275e-21 -0.035907)
(-0.107181 -2.54844e-05 8.37181e-25 -0.00104209 -3.70602e-21 -0.0432891)
(-0.0892141 -1.56822e-05 2.59323e-22 -0.000925396 -9.18986e-21 -0.0360558)
(-0.107429 -2.87348e-05 -1.14694e-22 -0.00104052 5.84287e-21 -0.0433879)
(-0.0895014 -1.67123e-05 -1.62968e-22 -0.000924627 -2.01847e-21 -0.0361704)
(-0.107577 -3.20445e-05 4.23952e-22 -0.00103934 -4.99387e-21 -0.0434465)
(-0.0897049 -1.75605e-05 -4.71444e-23 -0.000924216 1.07746e-20 -0.0362516)
(-0.107627 -3.53934e-05 -2.11182e-22 -0.00103877 6.8924e-21 -0.0434663)
(-0.0898309 -1.81985e-05 -2.07098e-22 -0.000924371 1.2691e-20 -0.0363021)
(-0.107586 -3.87567e-05 1.16575e-22 -0.00103908 -1.23607e-20 -0.0434502)
(-0.0898878 -1.86097e-05 1.96139e-22 -0.000925402 -2.07305e-20 -0.0363253)
(-0.107464 -4.2086e-05 1.15266e-22 -0.00104062 7.21566e-21 -0.0434019)
(-0.0898838 -1.88006e-05 -5.1651e-24 -0.000927748 1.54353e-20 -0.0363246)
(-0.107269 -4.53028e-05 1.27875e-22 -0.00104389 3.68205e-21 -0.0433253)
(-0.0898255 -1.88061e-05 6.67167e-24 -0.000931998 -1.91682e-20 -0.036303)
(-0.107009 -4.82845e-05 -2.59857e-22 -0.00104947 -1.96256e-20 -0.0432232)
(-0.0897175 -1.87277e-05 4.46536e-22 -0.000938971 8.7484e-21 -0.0362626)
(-0.106685 -5.08217e-05 5.53484e-22 -0.00105818 1.70171e-20 -0.0430974)
(-0.0895613 -1.86936e-05 -1.95329e-22 -0.000949536 -7.79518e-21 -0.0362044)
(-0.1063 -5.26656e-05 -1.64186e-21 -0.00107084 -2.92717e-21 -0.0429483)
(-0.0893558 -1.90799e-05 -2.98584e-24 -0.000965205 8.04077e-21 -0.0361284)
(-0.105849 -5.32864e-05 1.38633e-21 -0.00108894 1.88574e-20 -0.0427752)
(-0.0890981 -2.01897e-05 2.54231e-22 -0.000986709 -5.55222e-21 -0.0360339)
(-0.105327 -5.22078e-05 -8.18977e-22 -0.00111321 -1.56394e-20 -0.0425761)
(-0.0887669 -2.25278e-05 9.44197e-26 -0.00101666 1.66518e-20 -0.0359134)
(-0.104703 -4.87171e-05 2.45139e-24 -0.00114635 -6.73884e-21 -0.0423396)
(-0.0883661 -2.68821e-05 -9.90374e-22 -0.00105825 -1.3394e-20 -0.0357697)
(-0.103989 -4.17998e-05 6.20476e-22 -0.00119173 2.05035e-22 -0.0420723)
(-0.0879167 -3.37931e-05 1.08195e-21 -0.00110633 -3.56286e-21 -0.0356092)
(-0.103229 -3.09977e-05 5.99384e-24 -0.0012439 5.27346e-21 -0.041789)
(-0.0874215 -4.32799e-05 -5.63778e-22 -0.0011622 -2.54937e-22 -0.0354335)
(-0.102428 -1.63674e-05 7.14669e-22 -0.00130431 -7.46879e-22 -0.0414929)
(-0.0868806 -5.58572e-05 -1.2927e-24 -0.00122324 4.55752e-21 -0.0352416)
(-0.101588 2.54621e-06 3.63297e-22 -0.00137028 6.07744e-21 -0.0411835)
(-0.0862971 -7.15248e-05 -3.43062e-22 -0.00128864 -4.36618e-21 -0.0350343)
(-0.100713 2.56417e-05 2.53427e-23 -0.00144098 -3.68457e-21 -0.0408617)
(-0.0856741 -9.04417e-05 -2.0797e-23 -0.00135557 1.82528e-22 -0.0348119)
(-0.099803 5.29921e-05 -4.08006e-22 -0.00151341 -1.75171e-21 -0.0405266)
(-0.0850162 -0.000112413 1.39046e-24 -0.00142157 1.94621e-21 -0.0345751)
(-0.098858 8.42919e-05 -4.34417e-22 -0.00158494 5.35398e-21 -0.0401772)
(-0.0843283 -0.000137173 -1.91825e-22 -0.0014832 2.12554e-21 -0.0343246)
(-0.0978772 0.000119163 5.0211e-25 -0.00165183 -4.22151e-21 -0.0398116)
(-0.0836158 -0.000164194 -5.32938e-23 -0.00153689 3.24572e-22 -0.0340611)
(-0.0968591 0.000156951 -1.66093e-25 -0.00171025 2.45134e-21 -0.0394277)
(-0.0828834 -0.00019278 8.26311e-23 -0.00157859 9.98151e-22 -0.0337848)
(-0.0958019 0.000196827 -8.03294e-26 -0.00175584 -1.9732e-21 -0.0390231)
(-0.0821353 -0.000222023 -5.59088e-23 -0.0016042 -3.00258e-21 -0.0334958)
(-0.0947037 0.000237739 -3.28781e-23 -0.00178419 2.50671e-21 -0.0385952)
(-0.0813748 -0.00025085 4.88358e-22 -0.00160961 2.15233e-21 -0.0331938)
(-0.0935623 0.000278464 1.64434e-25 -0.00179091 1.55324e-21 -0.0381413)
(-0.0806042 -0.000278046 2.37372e-22 -0.00159097 3.94967e-22 -0.0328781)
(-0.0923755 0.000317634 -5.99406e-22 -0.00177189 -2.73232e-22 -0.037659)
(-0.0798245 -0.000302309 -6.75851e-25 -0.00154494 -2.91325e-21 -0.0325478)
(-0.0911411 0.000353791 6.20595e-22 -0.00172358 -6.15902e-21 -0.0371459)
(-0.0790355 -0.000322309 7.51864e-25 -0.00146895 2.5134e-21 -0.0322018)