/*--------------------------------*- C++ -*----------------------------------*\
| =========                 |                                                 |
| \\      /  F ield         | OpenFOAM Extend Project: Open source CFD        |
|  \\    /   O peration     | Version:  1.6-ext                               |
|   \\  /    A nd           | Web:      www.extend-project.de                 |
|    \\/     M anipulation  |                                                 |
\*---------------------------------------------------------------------------*/
FoamFile
{
    version     2.0;
    format      ascii;
    class       volVectorField;
    location    "0.5";
    object      DU;
}
// * * * * * * * * * * * * * * * * * * * * * * * * * * * * * * * * * * * * * //

dimensions      [0 1 0 0 0 0 0];

internalField   nonuniform List<vector> 
328
(
(-2.28007e-09 -4.68142e-09 0)
(-1.62597e-09 -1.13488e-09 0)
(-1.73026e-09 9.23235e-10 0)
(-2.75738e-09 5.17241e-09 0)
(-6.93316e-09 -1.19993e-08 0)
(-5.36716e-09 -3.18678e-09 0)
(-5.72973e-09 2.8249e-09 0)
(-8.41357e-09 1.32834e-08 0)
(-1.23219e-08 -1.73711e-08 0)
(-1.03635e-08 -4.98661e-09 0)
(-1.10948e-08 4.76414e-09 0)
(-1.49739e-08 1.93909e-08 0)
(-1.81947e-08 -2.10564e-08 0)
(-1.62207e-08 -6.37804e-09 0)
(-1.7376e-08 6.59878e-09 0)
(-2.21316e-08 2.3867e-08 0)
(-2.46321e-08 -2.34078e-08 0)
(-2.30219e-08 -7.29678e-09 0)
(-2.46593e-08 8.28467e-09 0)
(-2.99766e-08 2.71767e-08 0)
(-3.1609e-08 -2.46899e-08 0)
(-3.06388e-08 -7.70645e-09 0)
(-3.28006e-08 9.82613e-09 0)
(-3.8474e-08 2.96843e-08 0)
(-3.91672e-08 -2.51134e-08 0)
(-3.90557e-08 -7.60867e-09 0)
(-4.17829e-08 1.12782e-08 0)
(-4.76685e-08 3.16956e-08 0)
(-4.73371e-08 -2.48245e-08 0)
(-4.82248e-08 -7.01458e-09 0)
(-5.15549e-08 1.27211e-08 0)
(-5.75918e-08 3.34505e-08 0)
(-5.61634e-08 -2.39238e-08 0)
(-5.8135e-08 -5.93941e-09 0)
(-6.21065e-08 1.4253e-08 0)
(-6.82939e-08 3.51479e-08 0)
(-6.56909e-08 -2.24698e-08 0)
(-6.87821e-08 -4.38941e-09 0)
(-7.34346e-08 1.59787e-08 0)
(-7.98246e-08 3.69527e-08 0)
(-7.59672e-08 -2.04864e-08 0)
(-8.01827e-08 -2.35695e-09 0)
(-8.5558e-08 1.8005e-08 0)
(-9.2238e-08 3.90071e-08 0)
(-8.70408e-08 -1.79659e-08 0)
(-9.23668e-08 1.84503e-10 0)
(-9.85093e-08 2.04377e-08 0)
(-1.05589e-07 4.14378e-08 0)
(-9.89618e-08 -1.48725e-08 0)
(-1.05379e-07 3.28208e-09 0)
(-1.12336e-07 2.33819e-08 0)
(-1.19935e-07 4.43616e-08 0)
(-1.11782e-07 -1.11441e-08 0)
(-1.19276e-07 7.00439e-09 0)
(-1.27097e-07 2.69437e-08 0)
(-1.35336e-07 4.78913e-08 0)
(-1.25558e-07 -6.6944e-09 0)
(-1.34123e-07 1.14414e-08 0)
(-1.42861e-07 3.12337e-08 0)
(-1.51854e-07 5.21411e-08 0)
(-1.40347e-07 -1.41377e-09 0)
(-1.49992e-07 1.67041e-08 0)
(-1.59704e-07 3.63711e-08 0)
(-1.69556e-07 5.72315e-08 0)
(-1.56213e-07 4.8297e-09 0)
(-1.66961e-07 2.29249e-08 0)
(-1.77704e-07 4.24876e-08 0)
(-1.88513e-07 6.32944e-08 0)
(-1.73223e-07 1.21905e-08 0)
(-1.85111e-07 3.02574e-08 0)
(-1.96948e-07 4.97321e-08 0)
(-2.08801e-07 7.04779e-08 0)
(-1.91448e-07 2.08466e-08 0)
(-2.04525e-07 3.88786e-08 0)
(-2.1752e-07 5.82745e-08 0)
(-2.30499e-07 7.89506e-08 0)
(-2.10965e-07 3.10012e-08 0)
(-2.25288e-07 4.89901e-08 0)
(-2.39509e-07 6.83094e-08 0)
(-2.53692e-07 8.89055e-08 0)
(-2.31853e-07 4.28851e-08 0)
(-2.47487e-07 6.08209e-08 0)
(-2.63004e-07 8.00598e-08 0)
(-2.78468e-07 1.00563e-07 0)
(-2.54194e-07 5.67595e-08 0)
(-2.7121e-07 7.46304e-08 0)
(-2.88096e-07 9.37799e-08 0)
(-3.04914e-07 1.14176e-07 0)
(-2.78985e-07 7.35356e-08 0)
(-2.97513e-07 9.13245e-08 0)
(-3.15896e-07 1.10367e-07 0)
(-3.34198e-07 1.30635e-07 0)
(-3.05401e-07 9.3101e-08 0)
(-3.25516e-07 1.1079e-07 0)
(-3.45471e-07 1.29709e-07 0)
(-3.6533e-07 1.49827e-07 0)
(-3.3168e-07 1.14241e-07 0)
(-3.53351e-07 1.3182e-07 0)
(-3.74847e-07 1.50603e-07 0)
(-3.96231e-07 1.70561e-07 0)
(-3.57807e-07 1.36924e-07 0)
(-3.81003e-07 1.54381e-07 0)
(-4.04009e-07 1.73018e-07 0)
(-4.26886e-07 1.92805e-07 0)
(-3.83765e-07 1.61116e-07 0)
(-4.08458e-07 1.7844e-07 0)
(-4.32943e-07 1.96922e-07 0)
(-4.57282e-07 2.16529e-07 0)
(-4.09541e-07 1.86786e-07 0)
(-4.35702e-07 2.03969e-07 0)
(-4.61636e-07 2.22286e-07 0)
(-4.87406e-07 2.41705e-07 0)
(-4.35122e-07 2.13905e-07 0)
(-4.62721e-07 2.30938e-07 0)
(-4.90076e-07 2.49083e-07 0)
(-5.17247e-07 2.68305e-07 0)
(-4.60495e-07 2.42444e-07 0)
(-4.89505e-07 2.59322e-07 0)
(-5.18251e-07 2.77288e-07 0)
(-5.46794e-07 2.96307e-07 0)
(-4.85652e-07 2.72377e-07 0)
(-5.16043e-07 2.89095e-07 0)
(-5.4615e-07 3.06876e-07 0)
(-5.76036e-07 3.25686e-07 0)
(-5.10584e-07 3.03675e-07 0)
(-5.42327e-07 3.2023e-07 0)
(-5.73765e-07 3.37822e-07 0)
(-6.04965e-07 3.56419e-07 0)
(-5.35288e-07 3.3631e-07 0)
(-5.6835e-07 3.527e-07 0)
(-6.01087e-07 3.70101e-07 0)
(-6.3357e-07 3.88482e-07 0)
(-5.5976e-07 3.70248e-07 0)
(-5.94107e-07 3.86476e-07 0)
(-6.28109e-07 4.03685e-07 0)
(-6.61842e-07 4.21847e-07 0)
(-5.84e-07 4.05458e-07 0)
(-6.19594e-07 4.21525e-07 0)
(-6.54824e-07 4.38543e-07 0)
(-6.89772e-07 4.56483e-07 0)
(-6.08008e-07 4.419e-07 0)
(-6.44808e-07 4.57811e-07 0)
(-6.81225e-07 4.74639e-07 0)
(-7.17351e-07 4.92358e-07 0)
(-6.31787e-07 4.79534e-07 0)
(-6.69748e-07 4.95295e-07 0)
(-7.07309e-07 5.11935e-07 0)
(-7.44571e-07 5.29433e-07 0)
(-6.55339e-07 5.18314e-07 0)
(-6.94411e-07 5.33932e-07 0)
(-7.33069e-07 5.50387e-07 0)
(-7.71423e-07 5.67664e-07 0)
(-6.78669e-07 5.58192e-07 0)
(-7.18797e-07 5.73672e-07 0)
(-7.58501e-07 5.89947e-07 0)
(-7.97897e-07 6.07002e-07 0)
(-7.01778e-07 5.99114e-07 0)
(-7.42905e-07 6.14463e-07 0)
(-7.83598e-07 6.30559e-07 0)
(-8.23985e-07 6.47394e-07 0)
(-7.24668e-07 6.41024e-07 0)
(-7.66731e-07 6.56246e-07 0)
(-8.08356e-07 6.72166e-07 0)
(-8.49676e-07 6.8878e-07 0)
(-7.4734e-07 6.83859e-07 0)
(-7.90274e-07 6.98959e-07 0)
(-8.32766e-07 7.14704e-07 0)
(-8.74959e-07 7.31094e-07 0)
(-7.69793e-07 7.27556e-07 0)
(-8.13527e-07 7.42535e-07 0)
(-8.5682e-07 7.58103e-07 0)
(-8.99822e-07 7.74267e-07 0)
(-7.92021e-07 7.72045e-07 0)
(-8.36483e-07 7.86902e-07 0)
(-8.80508e-07 8.02292e-07 0)
(-9.2425e-07 8.18224e-07 0)
(-8.14018e-07 8.17256e-07 0)
(-8.59134e-07 8.31987e-07 0)
(-9.03818e-07 8.47193e-07 0)
(-9.4823e-07 8.62886e-07 0)
(-8.35773e-07 8.63115e-07 0)
(-8.81466e-07 8.77713e-07 0)
(-9.26735e-07 8.92726e-07 0)
(-9.71743e-07 9.08171e-07 0)
(-8.57272e-07 9.09546e-07 0)
(-9.03464e-07 9.24e-07 0)
(-9.49244e-07 9.3881e-07 0)
(-9.94772e-07 9.53994e-07 0)
(-8.78499e-07 9.56472e-07 0)
(-9.25113e-07 9.70768e-07 0)
(-9.71326e-07 9.85362e-07 0)
(-1.0173e-06 1.00027e-06 0)
(-8.99432e-07 1.00382e-06 0)
(-9.4639e-07 1.01794e-06 0)
(-9.92961e-07 1.0323e-06 0)
(-1.0393e-06 1.04691e-06 0)
(-9.20048e-07 1.0515e-06 0)
(-9.67275e-07 1.06542e-06 0)
(-1.01413e-06 1.07953e-06 0)
(-1.06076e-06 1.09384e-06 0)
(-9.4032e-07 1.09944e-06 0)
(-9.87743e-07 1.11315e-06 0)
(-1.0348e-06 1.12699e-06 0)
(-1.08165e-06 1.14096e-06 0)
(-9.6022e-07 1.14757e-06 0)
(-1.00777e-06 1.16104e-06 0)
(-1.05497e-06 1.17458e-06 0)
(-1.10196e-06 1.18821e-06 0)
(-9.79718e-07 1.19582e-06 0)
(-1.02732e-06 1.20902e-06 0)
(-1.07459e-06 1.22224e-06 0)
(-1.12166e-06 1.2355e-06 0)
(-9.98782e-07 1.24411e-06 0)
(-1.04638e-06 1.25701e-06 0)
(-1.09366e-06 1.26989e-06 0)
(-1.14073e-06 1.28276e-06 0)
(-1.01738e-06 1.29237e-06 0)
(-1.06492e-06 1.30495e-06 0)
(-1.11214e-06 1.31747e-06 0)
(-1.15916e-06 1.32993e-06 0)
(-1.03548e-06 1.34055e-06 0)
(-1.0829e-06 1.35279e-06 0)
(-1.13002e-06 1.36492e-06 0)
(-1.17693e-06 1.37694e-06 0)
(-1.05306e-06 1.3886e-06 0)
(-1.10032e-06 1.40045e-06 0)
(-1.14728e-06 1.41217e-06 0)
(-1.19402e-06 1.42376e-06 0)
(-1.07007e-06 1.43645e-06 0)
(-1.11713e-06 1.44791e-06 0)
(-1.16389e-06 1.4592e-06 0)
(-1.21043e-06 1.47033e-06 0)
(-1.0865e-06 1.48407e-06 0)
(-1.13333e-06 1.49511e-06 0)
(-1.17986e-06 1.50596e-06 0)
(-1.22616e-06 1.51661e-06 0)
(-1.10232e-06 1.53142e-06 0)
(-1.14889e-06 1.54202e-06 0)
(-1.19516e-06 1.55242e-06 0)
(-1.24118e-06 1.56259e-06 0)
(-1.11751e-06 1.57848e-06 0)
(-1.16379e-06 1.58863e-06 0)
(-1.20978e-06 1.59855e-06 0)
(-1.25551e-06 1.60823e-06 0)
(-1.13205e-06 1.62522e-06 0)
(-1.17803e-06 1.6349e-06 0)
(-1.22372e-06 1.64434e-06 0)
(-1.26913e-06 1.65353e-06 0)
(-1.14591e-06 1.67163e-06 0)
(-1.19159e-06 1.68082e-06 0)
(-1.23696e-06 1.68978e-06 0)
(-1.28205e-06 1.69848e-06 0)
(-1.1591e-06 1.7177e-06 0)
(-1.20446e-06 1.7264e-06 0)
(-1.24952e-06 1.73487e-06 0)
(-1.29428e-06 1.74307e-06 0)
(-1.17159e-06 1.76342e-06 0)
(-1.21665e-06 1.77163e-06 0)
(-1.26139e-06 1.7796e-06 0)
(-1.30581e-06 1.78731e-06 0)
(-1.18338e-06 1.8088e-06 0)
(-1.22813e-06 1.81651e-06 0)
(-1.27256e-06 1.82399e-06 0)
(-1.31665e-06 1.83121e-06 0)
(-1.19446e-06 1.85385e-06 0)
(-1.23892e-06 1.86106e-06 0)
(-1.28305e-06 1.86804e-06 0)
(-1.32681e-06 1.87478e-06 0)
(-1.20483e-06 1.89857e-06 0)
(-1.24901e-06 1.90528e-06 0)
(-1.29285e-06 1.91177e-06 0)
(-1.3363e-06 1.91803e-06 0)
(-1.21449e-06 1.94298e-06 0)
(-1.25841e-06 1.94919e-06 0)
(-1.30196e-06 1.9552e-06 0)
(-1.34512e-06 1.96098e-06 0)
(-1.22344e-06 1.9871e-06 0)
(-1.26711e-06 1.99281e-06 0)
(-1.3104e-06 1.99833e-06 0)
(-1.35328e-06 2.00365e-06 0)
(-1.23168e-06 2.03094e-06 0)
(-1.27512e-06 2.03616e-06 0)
(-1.31817e-06 2.04121e-06 0)
(-1.3608e-06 2.04606e-06 0)
(-1.23921e-06 2.07454e-06 0)
(-1.28244e-06 2.07927e-06 0)
(-1.32528e-06 2.08385e-06 0)
(-1.36767e-06 2.08824e-06 0)
(-1.24603e-06 2.11792e-06 0)
(-1.28908e-06 2.12216e-06 0)
(-1.33172e-06 2.12627e-06 0)
(-1.3739e-06 2.13022e-06 0)
(-1.25214e-06 2.1611e-06 0)
(-1.29504e-06 2.16486e-06 0)
(-1.33751e-06 2.16851e-06 0)
(-1.37951e-06 2.17202e-06 0)
(-1.25756e-06 2.20411e-06 0)
(-1.30033e-06 2.2074e-06 0)
(-1.34266e-06 2.2106e-06 0)
(-1.3845e-06 2.21367e-06 0)
(-1.26229e-06 2.24699e-06 0)
(-1.30495e-06 2.24982e-06 0)
(-1.34716e-06 2.25256e-06 0)
(-1.38887e-06 2.25521e-06 0)
(-1.26633e-06 2.28977e-06 0)
(-1.30891e-06 2.29213e-06 0)
(-1.35103e-06 2.29443e-06 0)
(-1.39263e-06 2.29666e-06 0)
(-1.26969e-06 2.33246e-06 0)
(-1.31222e-06 2.33437e-06 0)
(-1.35426e-06 2.33624e-06 0)
(-1.39578e-06 2.33804e-06 0)
(-1.27239e-06 2.3751e-06 0)
(-1.31489e-06 2.37656e-06 0)
(-1.35688e-06 2.37801e-06 0)
(-1.39833e-06 2.3794e-06 0)
(-1.27442e-06 2.4177e-06 0)
(-1.31691e-06 2.41873e-06 0)
(-1.35886e-06 2.41976e-06 0)
(-1.40026e-06 2.42074e-06 0)
(-1.27582e-06 2.4603e-06 0)
(-1.31834e-06 2.4609e-06 0)
(-1.36028e-06 2.46151e-06 0)
(-1.40161e-06 2.46207e-06 0)
(-1.27648e-06 2.50294e-06 0)
(-1.31906e-06 2.50309e-06 0)
(-1.36099e-06 2.50326e-06 0)
(-1.40226e-06 2.5034e-06 0)
)
;

boundaryField
{
    plateFix
    {
        type            fixedDisplacement;
        value           uniform (0 0 0);
    }
    plate
    {
        type            solidTraction;
        nonLinear       updatedLagrangian;
        traction        nonuniform List<vector> 
168
(
(2.56741e-05 6.74302e-05 -9.92983e-22)
(2.90067e-05 -6.94613e-05 0)
(-0.000125442 -8.47212e-05 0)
(-0.000119199 8.18968e-05 -2.49092e-21)
(-0.000600028 -0.00026328 -2.2334e-21)
(-0.000588931 0.000260033 -4.6547e-24)
(-0.00132295 -0.000402626 -3.39931e-20)
(-0.00130608 0.000399321 4.41351e-24)
(-0.00223699 -0.00048734 2.99909e-20)
(-0.00221397 0.000484089 2.11914e-21)
(-0.00329142 -0.000521424 -7.31481e-24)
(-0.00326213 0.000518156 -3.38674e-20)
(-0.00443457 -0.00051781 -3.4724e-21)
(-0.00439897 0.000514331 2.59249e-20)
(-0.00562143 -0.000490734 0)
(-0.00557943 0.000486782 -6.68283e-24)
(-0.00681664 -0.000452007 -1.15257e-23)
(-0.006768 0.000447302 0)
(-0.00799447 -0.000410081 0)
(-0.00793876 0.000404354 2.84538e-21)
(-0.0091379 -0.000370271 2.43176e-21)
(-0.00907447 0.000363275 0)
(-0.0102371 -0.000335374 2.19005e-20)
(-0.0101651 0.000326887 0)
(-0.0112877 -0.00030635 -1.57365e-20)
(-0.011206 0.000296176 -1.63387e-23)
(-0.0122885 -0.00028292 0)
(-0.0121959 0.000270882 3.71787e-21)
(-0.0132398 -0.000264015 -3.08727e-21)
(-0.013135 0.000249951 -1.31422e-20)
(-0.0141421 -0.000248095 2.12402e-23)
(-0.0140236 0.000231863 1.16297e-20)
(-0.014994 -0.000233369 -1.42093e-20)
(-0.0148606 0.00021486 0)
(-0.0157918 -0.000217902 4.1734e-21)
(-0.0156425 0.000197066 -3.45188e-23)
(-0.0165311 -0.000199839 -3.60666e-21)
(-0.0163654 0.000176738 0)
(-0.0171983 -0.000177229 1.22297e-20)
(-0.0170169 0.000152105 2.57509e-23)
(-0.0178029 -0.000148626 -1.06347e-20)
(-0.017608 0.000122118 1.12365e-20)
(-0.0182897 -0.000116301 4.42037e-21)
(-0.0180873 8.91487e-05 -4.88313e-21)
(-0.0188873 -6.30242e-05 -1.50294e-20)
(-0.0186791 3.80776e-05 -8.01748e-21)
(-0.0195381 -8.6375e-06 7.44497e-21)
(-0.0193273 -1.39272e-05 8.03804e-21)
(-0.0201201 -2.38999e-06 7.26837e-21)
(-0.0199213 -1.84605e-05 0)
(-0.0207587 -3.81371e-07 -1.18101e-22)
(-0.0205841 -1.77442e-05 0)
(-0.0214415 -1.60059e-05 -7.10767e-21)
(-0.0213081 1.36693e-06 0)
(-0.0222331 -3.83875e-05 6.8868e-21)
(-0.0221593 2.82553e-05 7.49789e-21)
(-0.0231421 -7.20095e-05 -9.68934e-23)
(-0.0231493 6.74078e-05 -7.49169e-21)
(-0.0242024 -0.000113573 -1.61623e-22)
(-0.0243142 0.000115591 7.33311e-21)
(-0.0254239 -0.000163393 -6.6874e-21)
(-0.0256661 0.00017316 -7.32695e-21)
(-0.0268184 -0.000219266 -6.37684e-24)
(-0.0272184 0.000237921 3.15287e-23)
(-0.0283832 -0.000279482 0)
(-0.0289692 0.00030815 -1.73278e-24)
(-0.030108 -0.000341275 1.53964e-24)
(-0.0309085 0.000381009 0)
(-0.0319695 -0.000401637 -3.04634e-21)
(-0.0330126 0.000453357 3.41326e-21)
(-0.0339335 -0.00045701 6.03137e-21)
(-0.0352455 0.00052143 -7.43912e-23)
(-0.0359539 -0.000503622 -7.90122e-23)
(-0.0375587 0.000581171 -6.59306e-21)
(-0.0379742 -0.000537581 -2.89119e-21)
(-0.0398916 0.000628324 3.24438e-21)
(-0.0399283 -0.000555162 -2.13615e-23)
(-0.0421735 0.000658725 -3.11257e-21)
(-0.0417431 -0.000553037 -2.03784e-23)
(-0.0443258 0.000668564 1.62123e-22)
(-0.043341 -0.000528562 1.98512e-23)
(-0.0462646 0.000654678 2.95224e-21)
(-0.0446434 -0.000480006 -2.18654e-21)
(-0.0479041 0.000614822 -4.17953e-23)
(-0.0455732 -0.000406752 4.22265e-21)
(-0.0491603 0.000547891 1.16366e-22)
(-0.0460591 -0.00030941 -3.7622e-21)
(-0.0499544 0.000454069 2.06347e-21)
(-0.0460379 -0.000189855 1.79815e-21)
(-0.0502166 0.000334883 -2.13707e-21)
(-0.0454582 -5.11605e-05 -1.26046e-21)
(-0.0498888 0.000193168 -2.73929e-23)
(-0.044282 0.000102542 1.29536e-21)
(-0.0489274 3.29294e-05 0)
(-0.0424871 0.000266291 0)
(-0.0473053 -0.00014087 0)
(-0.0400675 0.000434569 -4.24553e-22)
(-0.0450128 -0.000322588 0)
(-0.0370341 0.000601612 4.34104e-22)
(-0.0420582 -0.000506226 -2.5819e-23)
(-0.0334143 0.000761731 -2.88008e-25)
(-0.0384675 -0.000685753 0)
(-0.0292505 0.000909616 0)
(-0.0342831 -0.000855439 -3.17204e-24)
(-0.024599 0.0010406 7.85537e-22)
(-0.0295623 -0.00101014 2.86587e-23)
(-0.0195271 0.00115088 -1.86199e-21)
(-0.0243747 -0.00114553 -2.3742e-23)
(-0.0141112 0.00123767 2.44711e-21)
(-0.0187997 -0.00125831 0)
(-0.00843334 0.00129928 2.80417e-22)
(-0.0129234 -0.00134627 0)
(-0.00257892 0.00133511 -1.61276e-21)
(-0.00683568 -0.00140836 -1.50661e-24)
(0.00336653 0.00134563 -3.00295e-23)
(-0.000626919 -0.0014446 0)
(0.00931986 0.00133225 3.32617e-23)
(0.00561462 -0.00145605 6.84101e-23)
(0.0152026 0.00129714 -7.34685e-23)
(0.0118055 -0.00144459 7.34721e-23)
(0.0209432 0.00124312 -1.36221e-21)
(0.0178691 -0.00141278 -1.32094e-21)
(0.0264781 0.00117338 1.20282e-21)
(0.0237376 -0.00136367 -6.56653e-23)
(0.0317535 0.00109136 0)
(0.0293528 -0.00130058 3.71133e-23)
(0.0367255 0.00100053 1.41986e-21)
(0.0346673 -0.00122694 -1.29627e-22)
(0.0413607 0.000904267 -1.42027e-21)
(0.0396448 -0.00114611 1.48415e-21)
(0.0456363 0.000805723 1.44915e-21)
(0.0442596 -0.00106128 0)
(0.0495394 0.000707733 -2.89882e-21)
(0.0484968 -0.000975359 0)
(0.0530665 0.000612789 1.18164e-23)
(0.0523515 -0.000890943 -1.5182e-21)
(0.0562232 0.000522989 1.4387e-21)
(0.0558283 -0.00081027 1.52e-21)
(0.0590231 0.000440117 -8.7552e-23)
(0.05894 -0.000735291 8.29822e-22)
(0.0614871 0.000365622 5.92728e-22)
(0.0617075 -0.000667653 -1.45675e-21)
(0.0636431 0.000300847 -1.88244e-22)
(0.064159 -0.000608938 8.08694e-22)
(0.0655257 0.000247037 -6.5845e-22)
(0.0663298 -0.000560669 0)
(0.0671762 0.000205984 5.30321e-22)
(0.0682626 -0.000524994 -8.24811e-23)
(0.0686457 0.000180193 1.18867e-22)
(0.0700105 -0.000504863 -5.34954e-22)
(0.0699933 0.000175859 -8.53118e-22)
(0.0716355 -0.000507178 3.99349e-22)
(0.0713106 0.000203324 -1.15353e-22)
(0.0732341 -0.000543261 2.90149e-22)
(0.0726896 0.000300799 2.56847e-22)
(0.0749034 -0.000653891 0)
(0.0744176 0.000520419 -5.70329e-23)
(0.0769493 -0.000893571 -1.19817e-22)
(0.076578 0.00118567 0)
(0.0794504 -0.00160339 1.01649e-22)
(0.0809957 0.00255837 4.82845e-24)
(0.0843657 -0.0030324 -1.0174e-22)
(0.08611 0.00864577 4.5374e-23)
(0.0162153 0.00749616 0)
(-0.00122763 -0.00500448 0)
(-0.00102575 0.00578173 -1.04838e-23)
(0.0171016 -0.0078097 2.72378e-23)
(0.0899302 -0.00940094 3.90685e-23)
)
;
        pressure        nonuniform List<scalar> 
168
(
-0.397945
-0.423515
-0.398577
-0.424144
-0.399255
-0.424822
-0.399903
-0.425471
-0.400455
-0.426028
-0.400839
-0.426418
-0.401005
-0.426593
-0.400927
-0.426526
-0.400589
-0.426203
-0.399987
-0.425617
-0.399116
-0.424766
-0.397975
-0.423647
-0.396555
-0.422256
-0.394845
-0.42058
-0.392828
-0.418605
-0.39048
-0.416308
-0.387775
-0.413666
-0.384682
-0.410652
-0.381179
-0.407248
-0.37723
-0.403422
-0.372878
-0.399223
-0.367976
-0.394512
-0.36284
-0.389606
-0.356844
-0.38392
-0.351117
-0.378539
-0.345312
-0.373133
-0.339723
-0.36799
-0.334218
-0.362977
-0.328875
-0.35817
-0.323613
-0.353481
-0.318392
-0.348862
-0.313104
-0.344194
-0.307628
-0.339342
-0.301804
-0.334128
-0.295449
-0.328349
-0.288358
-0.321778
-0.280311
-0.314168
-0.271085
-0.305271
-0.260461
-0.294839
-0.248239
-0.282645
-0.234247
-0.268493
-0.218357
-0.25223
-0.200487
-0.233757
-0.18062
-0.213041
-0.1588
-0.190121
-0.13514
-0.165108
-0.109822
-0.138189
-0.0830887
-0.109622
-0.0552406
-0.0797253
-0.0266231
-0.048872
0.00238439
-0.017473
0.031383
0.0140366
0.0599689
0.0452138
0.0877475
0.0756233
0.114347
0.104853
0.139432
0.132527
0.16271
0.158316
0.183939
0.181946
0.202935
0.203204
0.219568
0.221935
0.233766
0.238049
0.245506
0.25151
0.254814
0.262334
0.261755
0.270582
0.266426
0.27635
0.26895
0.279763
0.269466
0.280967
0.268126
0.280118
0.265084
0.277381
0.260493
0.272915
0.254499
0.266876
0.247236
0.259407
0.238824
0.250634
0.229365
0.240665
0.218937
0.229581
0.207585
0.217427
0.195336
0.204228
0.18208
0.189856
0.167851
0.174339
0.15159
0.156522
0.13467
0.137896
0.106499
0.0511415
0.0907678
0.0903938
0.0473555
0.106931
)
;
        value           nonuniform List<vector> 
168
(
(-2.28042e-08 -1.21471e-08 -2.62905e-27)
(-2.54707e-08 1.42249e-08 3.15923e-27)
(-2.17965e-08 -1.97046e-08 -6.7632e-28)
(-2.50658e-08 2.26609e-08 -1.11332e-26)
(-2.22235e-08 -2.54394e-08 -1.68582e-26)
(-2.65374e-08 2.92249e-08 2.91269e-27)
(-2.43546e-08 -2.92799e-08 1.20946e-28)
(-3.0063e-08 3.38967e-08 7.04971e-27)
(-2.80971e-08 -3.17656e-08 1.8521e-26)
(-3.55008e-08 3.73675e-08 -9.16629e-27)
(-3.31357e-08 -3.31345e-08 -1.40761e-26)
(-4.24723e-08 3.99721e-08 -2.22146e-26)
(-3.92965e-08 -3.36342e-08 -5.10667e-27)
(-5.07723e-08 4.20624e-08 2.33114e-26)
(-4.64408e-08 -3.34104e-08 1.61793e-26)
(-6.02412e-08 4.38796e-08 7.98649e-27)
(-5.44943e-08 -3.25694e-08 7.7292e-27)
(-7.07969e-08 4.56304e-08 -9.82602e-27)
(-6.3413e-08 -3.11682e-08 -9.96903e-27)
(-8.23941e-08 4.74793e-08 2.95628e-28)
(-7.31812e-08 -2.92303e-08 2.53877e-27)
(-9.5021e-08 4.95687e-08 -1.85664e-27)
(-8.38012e-08 -2.67472e-08 4.57999e-27)
(-1.08686e-07 5.20243e-08 2.94354e-27)
(-9.52903e-08 -2.36825e-08 1.02931e-27)
(-1.23416e-07 5.49628e-08 -2.45423e-27)
(-1.07678e-07 -1.99744e-08 -5.41542e-27)
(-1.39248e-07 5.84974e-08 3.43695e-27)
(-1.21005e-07 -1.55371e-08 -6.35334e-27)
(-1.56234e-07 6.27429e-08 -6.13571e-27)
(-1.35319e-07 -1.02618e-08 1.04129e-26)
(-1.74433e-07 6.78205e-08 3.59652e-27)
(-1.50679e-07 -4.01736e-09 -7.69698e-27)
(-1.93914e-07 7.38631e-08 1.87004e-27)
(-1.67147e-07 3.35011e-09 9.55327e-27)
(-2.14753e-07 8.10194e-08 -9.91668e-27)
(-1.84796e-07 1.20183e-08 -4.36916e-27)
(-2.37031e-07 8.94581e-08 8.63543e-27)
(-2.03698e-07 2.21903e-08 3.85209e-27)
(-2.60835e-07 9.93723e-08 -1.75218e-27)
(-2.23933e-07 3.40974e-08 -3.99653e-27)
(-2.86254e-07 1.10982e-07 9.63066e-27)
(-2.45583e-07 4.80009e-08 2.72667e-27)
(-3.13378e-07 1.24539e-07 -7.9265e-27)
(-2.69616e-07 6.48148e-08 -8.29316e-27)
(-3.43401e-07 1.4093e-07 -3.3361e-27)
(-2.95235e-07 8.44266e-08 6.84685e-27)
(-3.75307e-07 1.60044e-07 1.97813e-28)
(-3.20732e-07 1.05619e-07 1.56327e-27)
(-4.06965e-07 1.80694e-07 2.63685e-27)
(-3.46091e-07 1.2836e-07 2.34024e-28)
(-4.38359e-07 2.02849e-07 -1.9147e-28)
(-3.71297e-07 1.52614e-07 -2.26317e-27)
(-4.69477e-07 2.26479e-07 3.10726e-27)
(-3.96334e-07 1.78352e-07 2.24942e-27)
(-5.00309e-07 2.51556e-07 -1.84998e-27)
(-4.21188e-07 2.05543e-07 -8.08765e-29)
(-5.30842e-07 2.78055e-07 -9.74219e-28)
(-4.45847e-07 2.34158e-07 -9.83383e-28)
(-5.61068e-07 3.05952e-07 2.54406e-27)
(-4.70301e-07 2.64168e-07 -9.79776e-28)
(-5.90976e-07 3.35224e-07 -2.07764e-27)
(-4.94545e-07 2.95545e-07 -1.45307e-28)
(-6.20556e-07 3.65847e-07 1.22407e-27)
(-5.18573e-07 3.28258e-07 -5.3246e-28)
(-6.49799e-07 3.97798e-07 -9.78698e-28)
(-5.42387e-07 3.62274e-07 1.52012e-27)
(-6.78694e-07 4.31049e-07 1.23664e-27)
(-5.65986e-07 3.97559e-07 -1.2393e-27)
(-7.07232e-07 4.65572e-07 7.6784e-28)
(-5.89374e-07 4.34074e-07 -2.9668e-28)
(-7.35401e-07 5.01332e-07 -3.40184e-28)
(-6.12556e-07 4.71778e-07 1.463e-27)
(-7.63192e-07 5.38292e-07 -2.84532e-27)
(-6.35537e-07 5.10624e-07 -1.25652e-27)
(-7.90594e-07 5.76408e-07 4.07749e-28)
(-6.58323e-07 5.50565e-07 2.27318e-27)
(-8.17596e-07 6.15631e-07 -2.27069e-27)
(-6.8092e-07 5.91546e-07 -2.95228e-27)
(-8.44187e-07 6.55908e-07 1.09036e-27)
(-7.03331e-07 6.33511e-07 2.03733e-27)
(-8.70354e-07 6.97177e-07 2.84383e-28)
(-7.2556e-07 6.764e-07 -3.08028e-27)
(-8.96083e-07 7.39375e-07 -4.76771e-28)
(-7.47607e-07 7.20149e-07 8.18543e-29)
(-9.21362e-07 7.82428e-07 6.22122e-29)
(-7.69469e-07 7.6469e-07 -1.32609e-27)
(-9.46172e-07 8.26263e-07 7.90778e-28)
(-7.91141e-07 8.09956e-07 2.55148e-27)
(-9.70498e-07 8.70799e-07 2.71423e-27)
(-8.12612e-07 8.55872e-07 -5.45795e-28)
(-9.94321e-07 9.15952e-07 -3.7768e-28)
(-8.33869e-07 9.02366e-07 9.81475e-28)
(-1.01762e-06 9.61637e-07 -1.6167e-27)
(-8.54895e-07 9.49362e-07 2.40201e-27)
(-1.04038e-06 1.00777e-06 3.38004e-27)
(-8.75669e-07 9.96784e-07 -4.78117e-28)
(-1.06257e-06 1.05426e-06 -2.03047e-27)
(-8.96166e-07 1.04456e-06 -1.84688e-27)
(-1.08418e-06 1.10102e-06 -1.50534e-27)
(-9.16358e-07 1.0926e-06 1.82041e-27)
(-1.10519e-06 1.14797e-06 -3.65222e-27)
(-9.36216e-07 1.14085e-06 -7.58027e-27)
(-1.12557e-06 1.19504e-06 -1.10399e-26)
(-9.55705e-07 1.18922e-06 4.06936e-27)
(-1.1453e-06 1.24213e-06 6.90194e-27)
(-9.74793e-07 1.23765e-06 -4.8714e-27)
(-1.16437e-06 1.28919e-06 7.32591e-27)
(-9.93445e-07 1.28607e-06 6.26938e-27)
(-1.18277e-06 1.33615e-06 -2.29823e-29)
(-1.01163e-06 1.33442e-06 -8.51296e-27)
(-1.20047e-06 1.38294e-06 4.43174e-27)
(-1.0293e-06 1.38265e-06 3.17045e-27)
(-1.21748e-06 1.42953e-06 -4.02821e-27)
(-1.04644e-06 1.43069e-06 3.7148e-27)
(-1.23377e-06 1.47586e-06 1.91804e-27)
(-1.063e-06 1.47852e-06 5.98244e-27)
(-1.24936e-06 1.52191e-06 -1.29302e-29)
(-1.07897e-06 1.52609e-06 -6.29046e-27)
(-1.26423e-06 1.56764e-06 4.44205e-27)
(-1.09431e-06 1.57338e-06 -6.20198e-28)
(-1.27839e-06 1.61304e-06 1.02259e-26)
(-1.10901e-06 1.62035e-06 5.67704e-27)
(-1.29184e-06 1.65809e-06 -7.31039e-27)
(-1.12304e-06 1.667e-06 4.6866e-27)
(-1.30458e-06 1.70279e-06 -9.68058e-27)
(-1.13638e-06 1.71331e-06 -4.98471e-27)
(-1.31662e-06 1.74713e-06 8.78054e-27)
(-1.14903e-06 1.75928e-06 -6.11203e-27)
(-1.32797e-06 1.79113e-06 -2.35886e-27)
(-1.16098e-06 1.80491e-06 7.35997e-29)
(-1.33863e-06 1.83478e-06 2.24415e-29)
(-1.17221e-06 1.85021e-06 4.14501e-27)
(-1.34861e-06 1.8781e-06 6.93301e-27)
(-1.18272e-06 1.89519e-06 5.85201e-28)
(-1.35793e-06 1.92112e-06 -6.37289e-27)
(-1.19251e-06 1.93985e-06 -5.85749e-27)
(-1.36659e-06 1.96383e-06 2.48852e-27)
(-1.20158e-06 1.98422e-06 6.71375e-27)
(-1.3746e-06 2.00627e-06 -6.83318e-27)
(-1.20993e-06 2.02831e-06 -6.72766e-27)
(-1.38197e-06 2.04846e-06 -7.98378e-28)
(-1.21755e-06 2.07216e-06 6.69907e-27)
(-1.38871e-06 2.09041e-06 -2.23471e-26)
(-1.22446e-06 2.11578e-06 -1.41805e-26)
(-1.39483e-06 2.13217e-06 6.8354e-27)
(-1.23064e-06 2.1592e-06 -5.27198e-28)
(-1.40034e-06 2.17375e-06 -2.26346e-26)
(-1.23612e-06 2.20246e-06 6.90225e-27)
(-1.40524e-06 2.21519e-06 1.30581e-26)
(-1.24089e-06 2.24558e-06 -1.42883e-26)
(-1.40954e-06 2.25651e-06 2.01457e-28)
(-1.24496e-06 2.28858e-06 4.77362e-28)
(-1.41325e-06 2.29775e-06 -6.32904e-28)
(-1.24834e-06 2.3315e-06 8.41094e-27)
(-1.41636e-06 2.33893e-06 8.30313e-27)
(-1.25104e-06 2.37437e-06 -3.2435e-28)
(-1.41888e-06 2.38008e-06 -7.94561e-27)
(-1.25306e-06 2.41718e-06 -7.94636e-27)
(-1.42079e-06 2.42123e-06 -4.20456e-28)
(-1.25444e-06 2.46002e-06 7.97365e-27)
(-1.42212e-06 2.46234e-06 -8.41223e-27)
(-1.25501e-06 2.50285e-06 8.23886e-27)
(-1.27661e-06 2.5244e-06 4.30108e-27)
(-1.31921e-06 2.52426e-06 4.48885e-27)
(-1.36114e-06 2.5241e-06 4.4136e-27)
(-1.40238e-06 2.52393e-06 4.72716e-27)
(-1.42269e-06 2.50349e-06 -7.96726e-27)
)
;
    }
    frontAndBackPlanes
    {
        type            empty;
    }
}


// ************************************************************************* //
