/*--------------------------------*- C++ -*----------------------------------*\
| =========                 |                                                 |
| \\      /  F ield         | OpenFOAM Extend Project: Open source CFD        |
|  \\    /   O peration     | Version:  1.6-ext                               |
|   \\  /    A nd           | Web:      www.extend-project.de                 |
|    \\/     M anipulation  |                                                 |
\*---------------------------------------------------------------------------*/
FoamFile
{
    version     2.0;
    format      ascii;
    class       volVectorField;
    location    "0.5";
    object      DU_0;
}
// * * * * * * * * * * * * * * * * * * * * * * * * * * * * * * * * * * * * * //

dimensions      [0 1 0 0 0 0 0];

internalField   nonuniform List<vector> 
328
(
(-1.46832e-09 -3.07822e-09 0)
(-1.08399e-09 -7.92312e-10 0)
(-1.18575e-09 5.95763e-10 0)
(-1.93512e-09 3.56751e-09 0)
(-4.46086e-09 -7.88309e-09 0)
(-3.57466e-09 -2.18809e-09 0)
(-3.92847e-09 1.86632e-09 0)
(-5.90804e-09 9.1682e-09 0)
(-7.92488e-09 -1.13835e-08 0)
(-6.89563e-09 -3.36949e-09 0)
(-7.60932e-09 3.20646e-09 0)
(-1.05165e-08 1.34093e-08 0)
(-1.16991e-08 -1.37383e-08 0)
(-1.07893e-08 -4.22951e-09 0)
(-1.19168e-08 4.52194e-09 0)
(-1.5545e-08 1.65583e-08 0)
(-1.58365e-08 -1.51688e-08 0)
(-1.53114e-08 -4.72245e-09 0)
(-1.69094e-08 5.78538e-09 0)
(-2.10558e-08 1.89454e-08 0)
(-2.03218e-08 -1.58391e-08 0)
(-2.03778e-08 -4.81842e-09 0)
(-2.24874e-08 7.00512e-09 0)
(-2.70239e-08 2.08307e-08 0)
(-2.51825e-08 -1.58778e-08 0)
(-2.59782e-08 -4.51135e-09 0)
(-2.86395e-08 8.22553e-09 0)
(-3.34798e-08 2.24342e-08 0)
(-3.04389e-08 -1.53703e-08 0)
(-3.20809e-08 -3.79923e-09 0)
(-3.53306e-08 9.51017e-09 0)
(-4.04456e-08 2.39309e-08 0)
(-3.61203e-08 -1.43703e-08 0)
(-3.86782e-08 -2.68066e-09 0)
(-4.25542e-08 1.09371e-08 0)
(-4.79559e-08 2.54688e-08 0)
(-4.22556e-08 -1.29019e-08 0)
(-4.57672e-08 -1.1456e-09 0)
(-5.03085e-08 1.25909e-08 0)
(-5.60456e-08 2.71745e-08 0)
(-4.88756e-08 -1.09632e-08 0)
(-5.33586e-08 8.28087e-10 0)
(-5.86068e-08 1.45608e-08 0)
(-6.47527e-08 2.91617e-08 0)
(-5.60113e-08 -8.52865e-09 0)
(-6.14724e-08 3.27857e-09 0)
(-6.74717e-08 1.69382e-08 0)
(-7.41161e-08 3.15361e-08 0)
(-6.36947e-08 -5.54977e-09 0)
(-7.0138e-08 6.26162e-09 0)
(-7.6936e-08 1.98178e-08 0)
(-8.41763e-08 3.44005e-08 0)
(-7.19591e-08 -1.95641e-09 0)
(-7.93926e-08 9.85178e-09 0)
(-8.70401e-08 2.32996e-08 0)
(-9.49756e-08 3.78594e-08 0)
(-8.08395e-08 2.34282e-09 0)
(-8.92795e-08 1.41429e-08 0)
(-9.78308e-08 2.74913e-08 0)
(-1.06558e-07 4.20226e-08 0)
(-9.03737e-08 7.46033e-09 0)
(-9.98469e-08 1.92487e-08 0)
(-1.0936e-07 3.25119e-08 0)
(-1.18971e-07 4.70098e-08 0)
(-1.00602e-07 1.35297e-08 0)
(-1.11146e-07 2.53029e-08 0)
(-1.21682e-07 3.8495e-08 0)
(-1.32265e-07 5.29547e-08 0)
(-1.11568e-07 2.07062e-08 0)
(-1.23231e-07 3.24608e-08 0)
(-1.34854e-07 4.55923e-08 0)
(-1.46491e-07 6.00082e-08 0)
(-1.23319e-07 2.91683e-08 0)
(-1.36158e-07 4.09e-08 0)
(-1.48934e-07 5.39769e-08 0)
(-1.61705e-07 6.8342e-08 0)
(-1.35904e-07 3.91189e-08 0)
(-1.49982e-07 5.08227e-08 0)
(-1.63983e-07 6.38462e-08 0)
(-1.77964e-07 7.81524e-08 0)
(-1.49376e-07 5.07879e-08 0)
(-1.64763e-07 6.24577e-08 0)
(-1.80061e-07 7.54248e-08 0)
(-1.95329e-07 8.96622e-08 0)
(-1.6379e-07 6.44352e-08 0)
(-1.80559e-07 7.60634e-08 0)
(-1.97229e-07 8.89676e-08 0)
(-2.13858e-07 1.03125e-07 0)
(-1.79789e-07 8.09609e-08 0)
(-1.98072e-07 9.25363e-08 0)
(-2.16245e-07 1.05366e-07 0)
(-2.34368e-07 1.19427e-07 0)
(-1.96843e-07 1.00261e-07 0)
(-2.16718e-07 1.11772e-07 0)
(-2.36471e-07 1.24513e-07 0)
(-2.56161e-07 1.38462e-07 0)
(-2.13815e-07 1.21138e-07 0)
(-2.35253e-07 1.32577e-07 0)
(-2.56555e-07 1.45223e-07 0)
(-2.77783e-07 1.59053e-07 0)
(-2.30694e-07 1.43564e-07 0)
(-2.53666e-07 1.54923e-07 0)
(-2.76489e-07 1.67466e-07 0)
(-2.99223e-07 1.8117e-07 0)
(-2.4747e-07 1.67507e-07 0)
(-2.71947e-07 1.7878e-07 0)
(-2.96262e-07 1.91214e-07 0)
(-3.20474e-07 2.04785e-07 0)
(-2.64133e-07 1.92941e-07 0)
(-2.90089e-07 2.04121e-07 0)
(-3.15866e-07 2.16441e-07 0)
(-3.41525e-07 2.29873e-07 0)
(-2.80677e-07 2.19837e-07 0)
(-3.08083e-07 2.30921e-07 0)
(-3.35294e-07 2.43122e-07 0)
(-3.62371e-07 2.56409e-07 0)
(-2.97097e-07 2.48169e-07 0)
(-3.25923e-07 2.59154e-07 0)
(-3.54537e-07 2.71231e-07 0)
(-3.83002e-07 2.84371e-07 0)
(-3.13388e-07 2.77906e-07 0)
(-3.43605e-07 2.88791e-07 0)
(-3.73589e-07 3.00743e-07 0)
(-4.03411e-07 3.13731e-07 0)
(-3.29551e-07 3.09017e-07 0)
(-3.61124e-07 3.19805e-07 0)
(-3.92446e-07 3.3163e-07 0)
(-4.23592e-07 3.44464e-07 0)
(-3.45585e-07 3.41469e-07 0)
(-3.78479e-07 3.52161e-07 0)
(-4.11103e-07 3.6386e-07 0)
(-4.43538e-07 3.76539e-07 0)
(-3.61494e-07 3.75225e-07 0)
(-3.95669e-07 3.85825e-07 0)
(-4.29556e-07 3.97401e-07 0)
(-4.63242e-07 4.09925e-07 0)
(-3.77282e-07 4.10244e-07 0)
(-4.12695e-07 4.20759e-07 0)
(-4.47802e-07 4.32214e-07 0)
(-4.827e-07 4.44584e-07 0)
(-3.92954e-07 4.46481e-07 0)
(-4.29558e-07 4.56919e-07 0)
(-4.65841e-07 4.68257e-07 0)
(-5.01906e-07 4.80476e-07 0)
(-4.08517e-07 4.8389e-07 0)
(-4.4626e-07 4.94259e-07 0)
(-4.8367e-07 5.05486e-07 0)
(-5.20855e-07 5.17555e-07 0)
(-4.23977e-07 5.22419e-07 0)
(-4.62805e-07 5.32728e-07 0)
(-5.01288e-07 5.43849e-07 0)
(-5.39544e-07 5.55772e-07 0)
(-4.39342e-07 5.62013e-07 0)
(-4.79195e-07 5.72269e-07 0)
(-5.18695e-07 5.83291e-07 0)
(-5.57967e-07 5.95072e-07 0)
(-4.54617e-07 6.02612e-07 0)
(-4.95432e-07 6.12824e-07 0)
(-5.35888e-07 6.23753e-07 0)
(-5.76119e-07 6.35394e-07 0)
(-4.69808e-07 6.44153e-07 0)
(-5.11518e-07 6.54329e-07 0)
(-5.52867e-07 6.65168e-07 0)
(-5.93995e-07 6.76672e-07 0)
(-4.84916e-07 6.86571e-07 0)
(-5.27451e-07 6.96716e-07 0)
(-5.69627e-07 7.07469e-07 0)
(-6.11589e-07 7.18836e-07 0)
(-4.99942e-07 7.29796e-07 0)
(-5.43231e-07 7.39913e-07 0)
(-5.86164e-07 7.50582e-07 0)
(-6.28891e-07 7.61812e-07 0)
(-5.14883e-07 7.73758e-07 0)
(-5.58851e-07 7.83847e-07 0)
(-6.02471e-07 7.9443e-07 0)
(-6.45895e-07 8.05522e-07 0)
(-5.29734e-07 8.18384e-07 0)
(-5.74307e-07 8.28442e-07 0)
(-6.1854e-07 8.38937e-07 0)
(-6.62589e-07 8.49885e-07 0)
(-5.44485e-07 8.63601e-07 0)
(-5.89587e-07 8.73622e-07 0)
(-6.34361e-07 8.84022e-07 0)
(-6.78962e-07 8.9482e-07 0)
(-5.59123e-07 9.09335e-07 0)
(-6.04679e-07 9.19309e-07 0)
(-6.4992e-07 9.29605e-07 0)
(-6.95002e-07 9.40244e-07 0)
(-5.73632e-07 9.55512e-07 0)
(-6.19567e-07 9.65426e-07 0)
(-6.65204e-07 9.75606e-07 0)
(-7.10692e-07 9.86074e-07 0)
(-5.87991e-07 1.00206e-06 0)
(-6.34235e-07 1.0119e-06 0)
(-6.80195e-07 1.02195e-06 0)
(-7.26018e-07 1.03223e-06 0)
(-6.02178e-07 1.04891e-06 0)
(-6.48661e-07 1.05865e-06 0)
(-6.94876e-07 1.06855e-06 0)
(-7.40963e-07 1.07863e-06 0)
(-6.16169e-07 1.09599e-06 0)
(-6.62824e-07 1.10561e-06 0)
(-7.09226e-07 1.11535e-06 0)
(-7.55509e-07 1.12521e-06 0)
(-6.29936e-07 1.14323e-06 0)
(-6.767e-07 1.15271e-06 0)
(-7.23226e-07 1.16226e-06 0)
(-7.69639e-07 1.17189e-06 0)
(-6.43451e-07 1.19057e-06 0)
(-6.90264e-07 1.19989e-06 0)
(-7.36854e-07 1.20922e-06 0)
(-7.83335e-07 1.2186e-06 0)
(-6.56684e-07 1.23795e-06 0)
(-7.03492e-07 1.24708e-06 0)
(-7.50089e-07 1.25618e-06 0)
(-7.96581e-07 1.26528e-06 0)
(-6.69606e-07 1.28531e-06 0)
(-7.1636e-07 1.29422e-06 0)
(-7.62913e-07 1.30307e-06 0)
(-8.09361e-07 1.31187e-06 0)
(-6.82189e-07 1.3326e-06 0)
(-7.28843e-07 1.34127e-06 0)
(-7.75307e-07 1.34984e-06 0)
(-8.21662e-07 1.35834e-06 0)
(-6.94404e-07 1.37977e-06 0)
(-7.4092e-07 1.38817e-06 0)
(-7.87253e-07 1.39646e-06 0)
(-8.33473e-07 1.40462e-06 0)
(-7.06225e-07 1.42678e-06 0)
(-7.5257e-07 1.43489e-06 0)
(-7.98737e-07 1.44287e-06 0)
(-8.44785e-07 1.4507e-06 0)
(-7.17628e-07 1.47359e-06 0)
(-7.63774e-07 1.4814e-06 0)
(-8.09746e-07 1.48905e-06 0)
(-8.5559e-07 1.49653e-06 0)
(-7.28592e-07 1.52018e-06 0)
(-7.74517e-07 1.52766e-06 0)
(-8.20271e-07 1.53497e-06 0)
(-8.65886e-07 1.5421e-06 0)
(-7.39097e-07 1.56651e-06 0)
(-7.84786e-07 1.57366e-06 0)
(-8.30303e-07 1.58062e-06 0)
(-8.7567e-07 1.58738e-06 0)
(-7.49128e-07 1.61258e-06 0)
(-7.94571e-07 1.61938e-06 0)
(-8.39838e-07 1.62599e-06 0)
(-8.84943e-07 1.63238e-06 0)
(-7.58672e-07 1.65837e-06 0)
(-8.03862e-07 1.66482e-06 0)
(-8.48873e-07 1.67106e-06 0)
(-8.93707e-07 1.67709e-06 0)
(-7.67719e-07 1.70388e-06 0)
(-8.12656e-07 1.70996e-06 0)
(-8.57408e-07 1.71584e-06 0)
(-9.01967e-07 1.72151e-06 0)
(-7.76263e-07 1.74911e-06 0)
(-8.2095e-07 1.75482e-06 0)
(-8.65443e-07 1.76034e-06 0)
(-9.0973e-07 1.76564e-06 0)
(-7.84299e-07 1.79406e-06 0)
(-8.28742e-07 1.7994e-06 0)
(-8.72982e-07 1.80456e-06 0)
(-9.17e-07 1.8095e-06 0)
(-7.91825e-07 1.83873e-06 0)
(-8.36034e-07 1.84371e-06 0)
(-8.8003e-07 1.8485e-06 0)
(-9.23787e-07 1.8531e-06 0)
(-7.98843e-07 1.88314e-06 0)
(-8.42829e-07 1.88776e-06 0)
(-8.86591e-07 1.8922e-06 0)
(-9.30099e-07 1.89644e-06 0)
(-8.05352e-07 1.92731e-06 0)
(-8.49131e-07 1.93156e-06 0)
(-8.92673e-07 1.93565e-06 0)
(-9.35944e-07 1.93956e-06 0)
(-8.11357e-07 1.97124e-06 0)
(-8.54944e-07 1.97513e-06 0)
(-8.98281e-07 1.97888e-06 0)
(-9.41332e-07 1.98246e-06 0)
(-8.16862e-07 2.01496e-06 0)
(-8.60274e-07 2.0185e-06 0)
(-9.03423e-07 2.02191e-06 0)
(-9.46272e-07 2.02516e-06 0)
(-8.21871e-07 2.05848e-06 0)
(-8.65127e-07 2.06168e-06 0)
(-9.08107e-07 2.06475e-06 0)
(-9.50771e-07 2.06769e-06 0)
(-8.26388e-07 2.10183e-06 0)
(-8.69508e-07 2.10468e-06 0)
(-9.12338e-07 2.10744e-06 0)
(-9.54839e-07 2.11006e-06 0)
(-8.30421e-07 2.14503e-06 0)
(-8.73424e-07 2.14755e-06 0)
(-9.16125e-07 2.14998e-06 0)
(-9.58483e-07 2.1523e-06 0)
(-8.33975e-07 2.1881e-06 0)
(-8.76882e-07 2.19029e-06 0)
(-9.19473e-07 2.19241e-06 0)
(-9.6171e-07 2.19444e-06 0)
(-8.37057e-07 2.23107e-06 0)
(-8.79888e-07 2.23294e-06 0)
(-9.22388e-07 2.23475e-06 0)
(-9.64524e-07 2.23649e-06 0)
(-8.39675e-07 2.27395e-06 0)
(-8.82449e-07 2.27551e-06 0)
(-9.24878e-07 2.27703e-06 0)
(-9.66932e-07 2.27848e-06 0)
(-8.41836e-07 2.31678e-06 0)
(-8.84572e-07 2.31803e-06 0)
(-9.26948e-07 2.31926e-06 0)
(-9.68935e-07 2.32044e-06 0)
(-8.43552e-07 2.35956e-06 0)
(-8.86273e-07 2.36052e-06 0)
(-9.2861e-07 2.36147e-06 0)
(-9.7054e-07 2.36237e-06 0)
(-8.44819e-07 2.40231e-06 0)
(-8.87549e-07 2.40298e-06 0)
(-9.29861e-07 2.40367e-06 0)
(-9.71736e-07 2.40431e-06 0)
(-8.45677e-07 2.44508e-06 0)
(-8.88447e-07 2.44546e-06 0)
(-9.30745e-07 2.44587e-06 0)
(-9.72551e-07 2.44623e-06 0)
(-8.46031e-07 2.4879e-06 0)
(-8.88867e-07 2.48796e-06 0)
(-9.31161e-07 2.48804e-06 0)
(-9.72889e-07 2.48809e-06 0)
)
;

boundaryField
{
    plateFix
    {
        type            fixedDisplacement;
        value           uniform (0 0 0);
    }
    plate
    {
        type            solidTraction;
        nonLinear       updatedLagrangian;
        traction        uniform (0 0 0);
        pressure        uniform 0;
        value           nonuniform List<vector> 
168
(
(-1.49572e-08 -7.87399e-09 -1.18765e-26)
(-1.76047e-08 9.91245e-09 -1.39018e-26)
(-1.41928e-08 -1.28286e-08 1.14931e-27)
(-1.74288e-08 1.57446e-08 2.51547e-26)
(-1.43321e-08 -1.65606e-08 4.03621e-27)
(-1.85837e-08 2.03072e-08 -1.68869e-26)
(-1.55692e-08 -1.90146e-08 -2.1588e-26)
(-2.11767e-08 2.35937e-08 5.43034e-27)
(-1.78487e-08 -2.05323e-08 1.59956e-26)
(-2.51049e-08 2.60929e-08 2.6382e-26)
(-2.09682e-08 -2.12601e-08 1.02468e-26)
(-3.01031e-08 2.80448e-08 -1.2233e-27)
(-2.48154e-08 -2.13501e-08 1.26653e-27)
(-3.60276e-08 2.97018e-08 -2.00485e-27)
(-2.92995e-08 -2.08869e-08 -1.17279e-26)
(-4.2768e-08 3.124e-08 -5.66816e-27)
(-3.4371e-08 -1.99278e-08 -1.75723e-26)
(-5.02685e-08 3.28134e-08 -1.54163e-26)
(-3.99994e-08 -1.84956e-08 1.62198e-26)
(-5.84994e-08 3.45482e-08 1.27335e-26)
(-4.61726e-08 -1.65883e-08 8.40012e-27)
(-6.74546e-08 3.65585e-08 -9.38407e-27)
(-5.28898e-08 -1.41792e-08 -4.83932e-27)
(-7.71423e-08 3.89493e-08 7.07231e-27)
(-6.016e-08 -1.12198e-08 -7.24452e-27)
(-8.75825e-08 4.18234e-08 8.84571e-27)
(-6.80004e-08 -7.64009e-09 4.17273e-27)
(-9.88045e-08 4.52853e-08 -8.47619e-27)
(-7.64352e-08 -3.34908e-09 1.0673e-26)
(-1.10845e-07 4.94452e-08 -5.51949e-27)
(-8.54949e-08 1.76495e-09 -1.65681e-26)
(-1.23747e-07 5.44234e-08 6.7126e-27)
(-9.52155e-08 7.83495e-09 7.45186e-27)
(-1.3756e-07 6.03537e-08 2.58302e-27)
(-1.05638e-07 1.50157e-08 -6.80795e-27)
(-1.52336e-07 6.73873e-08 3.64219e-27)
(-1.16809e-07 2.34852e-08 1.15744e-26)
(-1.68132e-07 7.56961e-08 -7.0157e-27)
(-1.28776e-07 3.34464e-08 -5.09795e-27)
(-1.85005e-07 8.54758e-08 6.83858e-27)
(-1.41593e-07 4.51295e-08 -1.14465e-27)
(-2.03018e-07 9.69491e-08 -9.79772e-27)
(-1.55314e-07 5.87945e-08 2.21e-27)
(-2.2223e-07 1.10369e-07 4.16541e-27)
(-1.70554e-07 7.53435e-08 1.80799e-27)
(-2.43484e-07 1.26619e-07 1.59089e-27)
(-1.86809e-07 9.46724e-08 5.71818e-28)
(-2.66058e-07 1.45595e-07 5.00797e-27)
(-2.02997e-07 1.15583e-07 -2.60348e-27)
(-2.88443e-07 1.66123e-07 -5.80988e-27)
(-2.19105e-07 1.38046e-07 1.8575e-27)
(-3.10631e-07 1.88173e-07 -2.05412e-27)
(-2.35122e-07 1.6203e-07 -2.65152e-27)
(-3.32614e-07 2.11718e-07 -5.44378e-28)
(-2.51038e-07 1.87507e-07 2.19291e-28)
(-3.54384e-07 2.36732e-07 9.75322e-28)
(-2.66848e-07 2.14449e-07 -3.90607e-30)
(-3.75933e-07 2.63194e-07 -2.04629e-27)
(-2.82546e-07 2.42827e-07 -2.54187e-27)
(-3.97254e-07 2.91077e-07 3.03147e-27)
(-2.98129e-07 2.7261e-07 2.70003e-27)
(-4.18339e-07 3.20358e-07 -2.62375e-28)
(-3.13598e-07 3.03768e-07 2.22345e-29)
(-4.39179e-07 3.5101e-07 -3.06912e-27)
(-3.28956e-07 3.36264e-07 -1.42502e-27)
(-4.59768e-07 3.83004e-07 3.03809e-27)
(-3.44208e-07 3.7006e-07 -6.97857e-29)
(-4.80098e-07 4.16308e-07 1.52634e-28)
(-3.59359e-07 4.05117e-07 -2.76222e-28)
(-5.00162e-07 4.50886e-07 -1.2586e-27)
(-3.74419e-07 4.41388e-07 2.6484e-27)
(-5.19954e-07 4.86697e-07 -5.16193e-28)
(-3.89396e-07 4.78826e-07 -2.05125e-27)
(-5.39468e-07 5.23697e-07 6.85491e-28)
(-4.043e-07 5.17378e-07 -3.09506e-28)
(-5.58696e-07 5.61836e-07 4.39398e-28)
(-4.19139e-07 5.56991e-07 1.1083e-29)
(-5.77633e-07 6.01059e-07 -6.45187e-29)
(-4.33922e-07 5.97604e-07 1.91114e-27)
(-5.96272e-07 6.41305e-07 -2.0469e-27)
(-4.48657e-07 6.39155e-07 -7.39377e-28)
(-6.14605e-07 6.82509e-07 -2.12377e-27)
(-4.63347e-07 6.8158e-07 1.95354e-27)
(-6.32623e-07 7.24599e-07 3.57033e-27)
(-4.77995e-07 7.24811e-07 -2.94182e-27)
(-6.50318e-07 7.67501e-07 -2.84186e-27)
(-4.92599e-07 7.68778e-07 -6.70043e-28)
(-6.67679e-07 8.11135e-07 -4.82682e-27)
(-5.07153e-07 8.13411e-07 1.23922e-27)
(-6.84694e-07 8.5542e-07 -1.59667e-28)
(-5.21648e-07 8.58638e-07 -2.13179e-27)
(-7.01353e-07 9.00272e-07 1.04186e-27)
(-5.3607e-07 9.04387e-07 2.11292e-28)
(-7.1764e-07 9.45609e-07 6.0232e-27)
(-5.50403e-07 9.50586e-07 -1.28286e-28)
(-7.33541e-07 9.91347e-07 -6.64883e-27)
(-5.64624e-07 9.97165e-07 -3.80554e-27)
(-7.49041e-07 1.0374e-06 -4.66808e-29)
(-5.78711e-07 1.04405e-06 1.7762e-27)
(-7.64122e-07 1.0837e-06 -3.05422e-28)
(-5.92635e-07 1.09118e-06 3.69153e-27)
(-7.78769e-07 1.13016e-06 -3.29084e-27)
(-6.06368e-07 1.13849e-06 -3.64666e-27)
(-7.92965e-07 1.17671e-06 -7.65759e-27)
(-6.19879e-07 1.18591e-06 4.03456e-27)
(-8.06694e-07 1.22329e-06 -3.7012e-27)
(-6.33137e-07 1.23338e-06 -3.45952e-27)
(-8.19941e-07 1.26982e-06 8.11542e-27)
(-6.46108e-07 1.28084e-06 -1.74226e-27)
(-8.32694e-07 1.31627e-06 6.92214e-28)
(-6.58761e-07 1.32825e-06 8.62621e-28)
(-8.44942e-07 1.36257e-06 7.11017e-27)
(-6.71065e-07 1.37555e-06 5.77843e-27)
(-8.56675e-07 1.40869e-06 -4.07982e-27)
(-6.8299e-07 1.4227e-06 7.1284e-28)
(-8.67889e-07 1.45459e-06 8.17007e-27)
(-6.9451e-07 1.46966e-06 -4.95788e-27)
(-8.7858e-07 1.50024e-06 2.23835e-27)
(-7.05598e-07 1.51641e-06 -4.2139e-27)
(-8.88746e-07 1.54563e-06 1.02081e-26)
(-7.16234e-07 1.56291e-06 1.40116e-27)
(-8.98391e-07 1.59074e-06 2.39881e-27)
(-7.26399e-07 1.60915e-06 -7.55618e-29)
(-9.07518e-07 1.63555e-06 1.49478e-28)
(-7.36076e-07 1.65513e-06 -4.48455e-27)
(-9.16131e-07 1.68007e-06 -5.62731e-27)
(-7.45255e-07 1.70082e-06 -5.51705e-27)
(-9.24239e-07 1.72431e-06 -1.35816e-26)
(-7.53927e-07 1.74623e-06 5.38394e-27)
(-9.31849e-07 1.76826e-06 1.68306e-26)
(-7.62086e-07 1.79136e-06 -1.05295e-26)
(-9.3897e-07 1.81194e-06 -2.81367e-27)
(-7.69728e-07 1.83622e-06 6.87751e-28)
(-9.45613e-07 1.85536e-06 -5.43601e-27)
(-7.76854e-07 1.88082e-06 -8.67905e-27)
(-9.51786e-07 1.89853e-06 -6.56826e-27)
(-7.83464e-07 1.92516e-06 7.98135e-29)
(-9.575e-07 1.94148e-06 -1.03826e-27)
(-7.8956e-07 1.96927e-06 -6.36397e-27)
(-9.62765e-07 1.98421e-06 5.38264e-27)
(-7.95146e-07 2.01317e-06 6.57278e-27)
(-9.67592e-07 2.02676e-06 -6.49729e-27)
(-8.00225e-07 2.05687e-06 -6.69965e-27)
(-9.71989e-07 2.06913e-06 1.5503e-26)
(-8.04804e-07 2.10039e-06 7.00268e-27)
(-9.75965e-07 2.11135e-06 -8.08739e-27)
(-8.08886e-07 2.14376e-06 -1.30841e-26)
(-9.7953e-07 2.15344e-06 1.28689e-26)
(-8.12479e-07 2.18699e-06 2.02492e-28)
(-9.8269e-07 2.19543e-06 9.17617e-27)
(-8.15589e-07 2.23012e-06 5.50679e-28)
(-9.8545e-07 2.23734e-06 1.76441e-28)
(-8.18226e-07 2.27317e-06 -7.28385e-27)
(-9.87817e-07 2.2792e-06 8.11913e-27)
(-8.20396e-07 2.31615e-06 -3.91797e-28)
(-9.8979e-07 2.32101e-06 9.20229e-28)
(-8.22115e-07 2.35908e-06 7.12295e-27)
(-9.91375e-07 2.36281e-06 -1.51953e-26)
(-8.23372e-07 2.40198e-06 5.62337e-29)
(-9.92549e-07 2.40462e-06 -1.54359e-28)
(-8.24198e-07 2.4449e-06 5.32196e-29)
(-9.93326e-07 2.44639e-06 1.59064e-26)
(-8.24433e-07 2.48785e-06 8.08408e-27)
(-8.46075e-07 2.50949e-06 2.84593e-27)
(-8.88928e-07 2.50928e-06 -3.02225e-27)
(-9.3122e-07 2.50908e-06 -6.31358e-27)
(-9.7293e-07 2.50883e-06 6.41485e-27)
(-9.93536e-07 2.48814e-06 -1.64598e-26)
)
;
    }
    frontAndBackPlanes
    {
        type            empty;
    }
}


// ************************************************************************* //
