/*--------------------------------*- C++ -*----------------------------------*\
| =========                 |                                                 |
| \\      /  F ield         | OpenFOAM Extend Project: Open source CFD        |
|  \\    /   O peration     | Version:  1.6-ext                               |
|   \\  /    A nd           | Web:      www.extend-project.de                 |
|    \\/     M anipulation  |                                                 |
\*---------------------------------------------------------------------------*/
FoamFile
{
    version     2.0;
    format      ascii;
    class       volVectorField;
    location    "0.5";
    object      DV;
}
// * * * * * * * * * * * * * * * * * * * * * * * * * * * * * * * * * * * * * //

dimensions      [0 1 -1 0 0 0 0];

internalField   nonuniform List<vector> 
328
(
(-7.84688e-07 -1.55294e-06 0)
(-5.22103e-07 -3.33646e-07 0)
(-5.23683e-07 3.14366e-07 0)
(-7.90792e-07 1.54967e-06 0)
(-2.38965e-06 -3.99027e-06 0)
(-1.72724e-06 -9.75196e-07 0)
(-1.73307e-06 9.17871e-07 0)
(-2.40972e-06 3.97079e-06 0)
(-4.24965e-06 -5.80973e-06 0)
(-3.343e-06 -1.58302e-06 0)
(-3.35551e-06 1.48788e-06 0)
(-4.28824e-06 5.76709e-06 0)
(-6.27718e-06 -7.10862e-06 0)
(-5.23704e-06 -2.10934e-06 0)
(-5.25763e-06 1.97813e-06 0)
(-6.33801e-06 7.03995e-06 0)
(-8.49871e-06 -8.01368e-06 0)
(-7.43594e-06 -2.53595e-06 0)
(-7.46617e-06 2.37254e-06 0)
(-8.58619e-06 7.91951e-06 0)
(-1.09047e-05 -8.6218e-06 0)
(-9.89685e-06 -2.8562e-06 0)
(-9.93798e-06 2.66745e-06 0)
(-1.10233e-05 8.50643e-06 0)
(-1.35085e-05 -9.0117e-06 0)
(-1.26146e-05 -3.07695e-06 0)
(-1.26678e-05 2.87369e-06 0)
(-1.36629e-05 8.88428e-06 0)
(-1.63198e-05 -9.24137e-06 0)
(-1.55734e-05 -3.21017e-06 0)
(-1.56399e-05 3.00791e-06 0)
(-1.65148e-05 9.11642e-06 0)
(-1.93535e-05 -9.35515e-06 0)
(-1.87699e-05 -3.27103e-06 0)
(-1.88507e-05 3.09067e-06 0)
(-1.95937e-05 9.25289e-06 0)
(-2.26245e-05 -9.38554e-06 0)
(-2.22026e-05 -3.2743e-06 0)
(-2.22987e-05 3.14222e-06 0)
(-2.29139e-05 9.33166e-06 0)
(-2.61493e-05 -9.3564e-06 0)
(-2.5877e-05 -3.233e-06 0)
(-2.59893e-05 3.18088e-06 0)
(-2.64911e-05 9.38164e-06 0)
(-2.99446e-05 -9.28452e-06 0)
(-2.9803e-05 -3.15745e-06 0)
(-2.9932e-05 3.22146e-06 0)
(-3.03405e-05 9.42378e-06 0)
(-3.40283e-05 -9.1814e-06 0)
(-3.39952e-05 -3.05527e-06 0)
(-3.4141e-05 3.27476e-06 0)
(-3.44782e-05 9.47249e-06 0)
(-3.84189e-05 -9.05458e-06 0)
(-3.8472e-05 -2.93181e-06 0)
(-3.86341e-05 3.34739e-06 0)
(-3.89204e-05 9.53647e-06 0)
(-4.31362e-05 -8.90896e-06 0)
(-4.32548e-05 -2.79088e-06 0)
(-4.34319e-05 3.44214e-06 0)
(-4.36845e-05 9.61975e-06 0)
(-4.82011e-05 -8.7479e-06 0)
(-4.83671e-05 -2.63546e-06 0)
(-4.85574e-05 3.55858e-06 0)
(-4.8789e-05 9.72259e-06 0)
(-5.36357e-05 -8.57397e-06 0)
(-5.38344e-05 -2.46834e-06 0)
(-5.40353e-05 3.69382e-06 0)
(-5.42542e-05 9.84246e-06 0)
(-5.94633e-05 -8.38944e-06 0)
(-5.96828e-05 -2.29231e-06 0)
(-5.98912e-05 3.84345e-06 0)
(-6.0102e-05 9.97512e-06 0)
(-6.57079e-05 -8.19626e-06 0)
(-6.59395e-05 -2.11005e-06 0)
(-6.61521e-05 4.0026e-06 0)
(-6.63564e-05 1.01157e-05 0)
(-7.23945e-05 -7.99575e-06 0)
(-7.26318e-05 -1.92369e-06 0)
(-7.28456e-05 4.16694e-06 0)
(-7.30432e-05 1.02596e-05 0)
(-7.95487e-05 -7.78808e-06 0)
(-7.97874e-05 -1.73413e-06 0)
(-7.99997e-05 4.3336e-06 0)
(-8.01899e-05 1.04036e-05 0)
(-8.71966e-05 -7.57192e-06 0)
(-8.74343e-05 -1.54065e-06 0)
(-8.7643e-05 4.5017e-06 0)
(-8.78251e-05 1.05462e-05 0)
(-9.56767e-05 -7.33573e-06 0)
(-9.59122e-05 -1.33327e-06 0)
(-9.61157e-05 4.67877e-06 0)
(-9.62887e-05 1.06928e-05 0)
(-0.000104705 -7.08455e-06 0)
(-0.000104938 -1.11673e-06 0)
(-0.000105135 4.85981e-06 0)
(-0.000105298 1.08382e-05 0)
(-0.00011368 -6.83292e-06 0)
(-0.000113908 -9.03199e-07 0)
(-0.000114098 5.03451e-06 0)
(-0.000114252 1.09738e-05 0)
(-0.000122595 -6.58158e-06 0)
(-0.000122819 -6.9322e-07 0)
(-0.000123001 5.20235e-06 0)
(-0.000123144 1.10991e-05 0)
(-0.000131448 -6.33335e-06 0)
(-0.000131665 -4.89636e-07 0)
(-0.000131838 5.36054e-06 0)
(-0.000131969 1.12114e-05 0)
(-0.000140233 -6.09199e-06 0)
(-0.000140442 -2.96326e-07 0)
(-0.000140605 5.5053e-06 0)
(-0.000140722 1.13074e-05 0)
(-0.000148945 -5.8608e-06 0)
(-0.000149145 -1.16767e-07 0)
(-0.000149297 5.63327e-06 0)
(-0.0001494 1.13841e-05 0)
(-0.000157577 -5.64165e-06 0)
(-0.000157768 4.70775e-08 0)
(-0.00015791 5.74255e-06 0)
(-0.000158 1.14397e-05 0)
(-0.000166124 -5.43434e-06 0)
(-0.000166308 1.95377e-07 0)
(-0.000166441 5.83341e-06 0)
(-0.000166518 1.14749e-05 0)
(-0.00017458 -5.23658e-06 0)
(-0.000174759 3.30507e-07 0)
(-0.000174886 5.90828e-06 0)
(-0.000174953 1.14919e-05 0)
(-0.000182939 -5.04427e-06 0)
(-0.000183116 4.56726e-07 0)
(-0.00018324 5.97147e-06 0)
(-0.000183303 1.14952e-05 0)
(-0.000191195 -4.85202e-06 0)
(-0.000191376 5.79646e-07 0)
(-0.000191502 6.02865e-06 0)
(-0.000191563 1.14903e-05 0)
(-0.000199344 -4.65363e-06 0)
(-0.000199534 7.05668e-07 0)
(-0.000199666 6.08629e-06 0)
(-0.000199731 1.14836e-05 0)
(-0.000207382 -4.44261e-06 0)
(-0.000207586 8.41541e-07 0)
(-0.00020773 6.15116e-06 0)
(-0.000207805 1.14817e-05 0)
(-0.000215304 -4.21236e-06 0)
(-0.000215528 9.94062e-07 0)
(-0.00021569 6.23015e-06 0)
(-0.00021578 1.14913e-05 0)
(-0.000223107 -3.9564e-06 0)
(-0.000223356 1.16993e-06 0)
(-0.000223541 6.33002e-06 0)
(-0.000223652 1.15193e-05 0)
(-0.000230788 -3.66842e-06 0)
(-0.000231068 1.37568e-06 0)
(-0.000231281 6.45737e-06 0)
(-0.000231418 1.15721e-05 0)
(-0.000238344 -3.34237e-06 0)
(-0.00023866 1.61759e-06 0)
(-0.000238906 6.61857e-06 0)
(-0.000239074 1.16561e-05 0)
(-0.000245772 -2.97261e-06 0)
(-0.000246128 1.90156e-06 0)
(-0.000246412 6.81962e-06 0)
(-0.000246615 1.17771e-05 0)
(-0.000253071 -2.55409e-06 0)
(-0.000253471 2.23286e-06 0)
(-0.000253795 7.06589e-06 0)
(-0.000254038 1.19407e-05 0)
(-0.000260238 -2.08271e-06 0)
(-0.000260685 2.61585e-06 0)
(-0.000261052 7.36183e-06 0)
(-0.000261337 1.2151e-05 0)
(-0.000267272 -1.5556e-06 0)
(-0.000267767 3.05362e-06 0)
(-0.000268179 7.71066e-06 0)
(-0.000268508 1.24114e-05 0)
(-0.000274173 -9.71437e-07 0)
(-0.000274716 3.54767e-06 0)
(-0.000275173 8.11395e-06 0)
(-0.000275546 1.27234e-05 0)
(-0.00028094 -3.30668e-07 0)
(-0.00028153 4.09768e-06 0)
(-0.00028203 8.57148e-06 0)
(-0.000282447 1.3087e-05 0)
(-0.000287572 3.64395e-07 0)
(-0.000288207 4.70139e-06 0)
(-0.000288748 9.08108e-06 0)
(-0.000289204 1.34998e-05 0)
(-0.000294069 1.10962e-06 0)
(-0.000294744 5.35464e-06 0)
(-0.000295322 9.63864e-06 0)
(-0.000295814 1.39582e-05 0)
(-0.00030043 1.89923e-06 0)
(-0.000301139 6.05158e-06 0)
(-0.000301749 1.02384e-05 0)
(-0.000302273 1.44564e-05 0)
(-0.000306654 2.72611e-06 0)
(-0.000307391 6.78495e-06 0)
(-0.000308027 1.08731e-05 0)
(-0.000308576 1.49873e-05 0)
(-0.000312739 3.58216e-06 0)
(-0.000313498 7.54649e-06 0)
(-0.000314153 1.15344e-05 0)
(-0.00031472 1.5543e-05 0)
(-0.000318685 4.45872e-06 0)
(-0.000319457 8.32732e-06 0)
(-0.000320124 1.22136e-05 0)
(-0.000320702 1.61148e-05 0)
(-0.000324488 5.3469e-06 0)
(-0.000325267 9.11835e-06 0)
(-0.000325938 1.29015e-05 0)
(-0.000326519 1.66936e-05 0)
(-0.000330147 6.23792e-06 0)
(-0.000330924 9.91061e-06 0)
(-0.000331592 1.3589e-05 0)
(-0.000332168 1.72705e-05 0)
(-0.000335658 7.12336e-06 0)
(-0.000336426 1.06955e-05 0)
(-0.000337084 1.42676e-05 0)
(-0.000337648 1.7837e-05 0)
(-0.000341019 7.99529e-06 0)
(-0.00034177 1.14649e-05 0)
(-0.000342411 1.4929e-05 0)
(-0.000342956 1.83849e-05 0)
(-0.000346227 8.84639e-06 0)
(-0.000346955 1.22114e-05 0)
(-0.000347571 1.55656e-05 0)
(-0.00034809 1.89067e-05 0)
(-0.000351277 9.66993e-06 0)
(-0.000351975 1.2928e-05 0)
(-0.000352561 1.61706e-05 0)
(-0.000353048 1.93952e-05 0)
(-0.000356166 1.04598e-05 0)
(-0.00035683 1.36086e-05 0)
(-0.00035738 1.67376e-05 0)
(-0.000357829 1.98443e-05 0)
(-0.000360891 1.12103e-05 0)
(-0.000361515 1.42474e-05 0)
(-0.000362023 1.72608e-05 0)
(-0.000362429 2.02479e-05 0)
(-0.000365448 1.19166e-05 0)
(-0.000366027 1.48393e-05 0)
(-0.00036649 1.7735e-05 0)
(-0.000366848 2.06009e-05 0)
(-0.000369833 1.25739e-05 0)
(-0.000370362 1.53796e-05 0)
(-0.000370776 1.81554e-05 0)
(-0.000371082 2.08984e-05 0)
(-0.000374041 1.31784e-05 0)
(-0.000374519 1.58643e-05 0)
(-0.000374879 1.85179e-05 0)
(-0.00037513 2.11366e-05 0)
(-0.000378069 1.37267e-05 0)
(-0.000378492 1.62899e-05 0)
(-0.000378797 1.88192e-05 0)
(-0.00037899 2.13118e-05 0)
(-0.000381912 1.42161e-05 0)
(-0.000382278 1.66539e-05 0)
(-0.000382526 1.90566e-05 0)
(-0.000382659 2.14217e-05 0)
(-0.000385566 1.46448e-05 0)
(-0.000385875 1.69543e-05 0)
(-0.000386064 1.92284e-05 0)
(-0.000386137 2.14645e-05 0)
(-0.000389026 1.50121e-05 0)
(-0.000389278 1.71905e-05 0)
(-0.000389409 1.93339e-05 0)
(-0.000389421 2.14398e-05 0)
(-0.00039229 1.53179e-05 0)
(-0.000392484 1.73628e-05 0)
(-0.000392558 1.93736e-05 0)
(-0.000392511 2.13482e-05 0)
(-0.000395352 1.55638e-05 0)
(-0.000395491 1.74728e-05 0)
(-0.00039551 1.93493e-05 0)
(-0.000395406 2.11916e-05 0)
(-0.000398209 1.57521e-05 0)
(-0.000398296 1.75232e-05 0)
(-0.000398262 1.9264e-05 0)
(-0.000398103 2.09732e-05 0)
(-0.000400859 1.58862e-05 0)
(-0.000400897 1.75179e-05 0)
(-0.000400814 1.91218e-05 0)
(-0.000400605 2.06972e-05 0)
(-0.000403299 1.59703e-05 0)
(-0.000403292 1.74615e-05 0)
(-0.000403164 1.89277e-05 0)
(-0.000402908 2.03687e-05 0)
(-0.000405527 1.60095e-05 0)
(-0.000405479 1.73593e-05 0)
(-0.000405311 1.86872e-05 0)
(-0.000405014 1.99935e-05 0)
(-0.000407543 1.60088e-05 0)
(-0.000407459 1.7217e-05 0)
(-0.000407255 1.84064e-05 0)
(-0.000406922 1.95774e-05 0)
(-0.000409345 1.59735e-05 0)
(-0.000409231 1.70402e-05 0)
(-0.000408996 1.80908e-05 0)
(-0.000408632 1.91262e-05 0)
(-0.000410934 1.59087e-05 0)
(-0.000410793 1.68339e-05 0)
(-0.000410533 1.77456e-05 0)
(-0.000410144 1.8645e-05 0)
(-0.00041231 1.58194e-05 0)
(-0.000412148 1.66031e-05 0)
(-0.000411866 1.73753e-05 0)
(-0.000411456 1.8138e-05 0)
(-0.000413471 1.57108e-05 0)
(-0.000413292 1.63529e-05 0)
(-0.000412994 1.69845e-05 0)
(-0.000412569 1.76097e-05 0)
(-0.000414418 1.55894e-05 0)
(-0.000414226 1.60891e-05 0)
(-0.000413917 1.65781e-05 0)
(-0.000413483 1.7064e-05 0)
(-0.000415149 1.5461e-05 0)
(-0.000414946 1.5819e-05 0)
(-0.000414629 1.61647e-05 0)
(-0.000414195 1.65102e-05 0)
(-0.000415673 1.53348e-05 0)
(-0.000415459 1.55513e-05 0)
(-0.000415136 1.57569e-05 0)
(-0.000414711 1.59626e-05 0)
(-0.00041597 1.51823e-05 0)
(-0.000415748 1.52851e-05 0)
(-0.000415421 1.53787e-05 0)
(-0.00041501 1.54797e-05 0)
)
;

boundaryField
{
    plateFix
    {
        type            calculated;
        value           uniform (0 0 0);
    }
    plate
    {
        type            calculated;
        value           nonuniform List<vector> 
168
(
(-7.60404e-06 -4.13467e-06 3.37391e-23)
(-7.58743e-06 4.16897e-06 4.62428e-23)
(-7.37144e-06 -6.65848e-06 -1.27703e-23)
(-7.35458e-06 6.68099e-06 -7.26459e-23)
(-7.65138e-06 -8.60449e-06 -2.68882e-23)
(-7.64987e-06 8.60874e-06 4.48523e-23)
(-8.5168e-06 -9.95671e-06 4.56933e-23)
(-8.54033e-06 9.93881e-06 1.05712e-24)
(-9.93114e-06 -1.09065e-05 -1.22034e-23)
(-9.98857e-06 1.08668e-05 -8.20019e-23)
(-1.17846e-05 -1.15421e-05 -4.23349e-23)
(-1.18862e-05 1.14842e-05 -3.22089e-23)
(-1.40169e-05 -1.1955e-05 -1.5023e-23)
(-1.41741e-05 1.18879e-05 3.33061e-23)
(-1.65816e-05 -1.22037e-05 5.93995e-23)
(-1.68051e-05 1.21411e-05 3.55173e-23)
(-1.94547e-05 -1.23345e-05 4.58181e-23)
(-1.9754e-05 1.2296e-05 2.12723e-23)
(-2.26232e-05 -1.23799e-05 -5.13592e-23)
(-2.30054e-05 1.23902e-05 -3.02783e-23)
(-2.60842e-05 -1.23637e-05 -1.76483e-23)
(-2.65534e-05 1.24524e-05 1.63477e-23)
(-2.98409e-05 -1.23025e-05 2.01815e-23)
(-3.0398e-05 1.25033e-05 -9.31007e-24)
(-3.39017e-05 -1.22079e-05 1.59928e-23)
(-3.45437e-05 1.25572e-05 -2.52307e-23)
(-3.82794e-05 -1.20874e-05 -1.64075e-23)
(-3.89992e-05 1.26229e-05 2.88626e-23)
(-4.299e-05 -1.1946e-05 -3.62178e-23)
(-4.37766e-05 1.27048e-05 5.00801e-24)
(-4.80524e-05 -1.17871e-05 5.55454e-23)
(-4.88913e-05 1.28037e-05 -1.36722e-23)
(-5.34876e-05 -1.16134e-05 -2.81948e-23)
(-5.43622e-05 1.29176e-05 -4.60885e-24)
(-5.93179e-05 -1.14271e-05 2.78875e-23)
(-6.0211e-05 1.30426e-05 -1.58325e-23)
(-6.55668e-05 -1.12299e-05 -3.27318e-23)
(-6.64625e-05 1.31743e-05 2.30082e-23)
(-7.22582e-05 -1.10231e-05 1.85238e-23)
(-7.31438e-05 1.33083e-05 -1.89563e-23)
(-7.94169e-05 -1.08066e-05 -3.21968e-24)
(-8.02838e-05 1.34413e-05 3.87303e-23)
(-8.70682e-05 -1.05791e-05 -9.5093e-25)
(-8.79123e-05 1.35714e-05 -2.22502e-23)
(-9.55504e-05 -1.03284e-05 -1.58568e-23)
(-9.637e-05 1.37033e-05 -1.07369e-23)
(-0.00010458 -1.00598e-05 7.22575e-24)
(-0.000105374 1.38312e-05 -9.03347e-24)
(-0.000113554 -9.78921e-06 9.24137e-24)
(-0.000114323 1.39474e-05 1.72647e-23)
(-0.000122472 -9.51739e-06 -6.197e-24)
(-0.00012321 1.40514e-05 5.09299e-24)
(-0.000131328 -9.24709e-06 3.13107e-24)
(-0.000132028 1.41408e-05 4.14347e-24)
(-0.000140117 -8.98192e-06 4.85789e-24)
(-0.000140772 1.42125e-05 -9.34553e-25)
(-0.000148835 -8.72503e-06 -1.56392e-26)
(-0.000149441 1.42636e-05 3.03354e-25)
(-0.000157474 -8.47818e-06 5.15694e-24)
(-0.00015803 1.42927e-05 -3.54035e-24)
(-0.000166027 -8.24115e-06 -8.72864e-24)
(-0.000166539 1.43003e-05 -3.35164e-24)
(-0.000174488 -8.0117e-06 -1.44517e-25)
(-0.000174967 1.4289e-05 1.0575e-23)
(-0.000182849 -7.78586e-06 2.06914e-24)
(-0.00018331 1.4263e-05 -9.26966e-24)
(-0.000191104 -7.55836e-06 3.30872e-24)
(-0.000191568 1.42277e-05 7.29778e-25)
(-0.000199249 -7.32318e-06 -2.80596e-24)
(-0.000199737 1.41894e-05 4.55126e-24)
(-0.00020728 -7.07394e-06 -5.62294e-24)
(-0.000207815 1.41548e-05 8.5426e-25)
(-0.000215191 -6.8042e-06 6.73826e-24)
(-0.000215796 1.41305e-05 -6.72976e-24)
(-0.000222981 -6.5076e-06 4.39881e-25)
(-0.000223679 1.41232e-05 1.23259e-24)
(-0.000230645 -6.17794e-06 2.13985e-24)
(-0.000231459 1.41393e-05 -3.24664e-24)
(-0.00023818 -5.80933e-06 -7.81829e-24)
(-0.000239131 1.41852e-05 6.35963e-24)
(-0.000245586 -5.39624e-06 3.58441e-24)
(-0.000246692 1.42668e-05 4.82036e-24)
(-0.000252859 -4.9338e-06 -8.16332e-24)
(-0.000254136 1.43893e-05 -1.04063e-23)
(-0.000259999 -4.41805e-06 4.299e-24)
(-0.000261459 1.45571e-05 1.03482e-23)
(-0.000267006 -3.84626e-06 5.55208e-25)
(-0.000268654 1.47734e-05 1.08028e-23)
(-0.000273878 -3.21721e-06 1.87391e-24)
(-0.000275717 1.50397e-05 3.96715e-24)
(-0.000280617 -2.53142e-06 2.96014e-24)
(-0.000282642 1.5356e-05 -1.91284e-24)
(-0.000287223 -1.79121e-06 1.86533e-25)
(-0.000289422 1.57201e-05 -1.08445e-23)
(-0.000293697 -1.00071e-06 3.96392e-24)
(-0.000296053 1.61282e-05 1.73599e-23)
(-0.000300037 -1.65609e-07 7.35136e-24)
(-0.000302529 1.65749e-05 -2.14815e-25)
(-0.000306245 7.07076e-07 -4.93333e-24)
(-0.000308846 1.70532e-05 -7.39991e-25)
(-0.000312318 1.60938e-06 -2.81444e-24)
(-0.000315 1.75552e-05 3.35754e-25)
(-0.000318256 2.53276e-06 -5.93513e-24)
(-0.000320987 1.80723e-05 -4.79998e-24)
(-0.000324056 3.46846e-06 -1.81588e-24)
(-0.000326805 1.85956e-05 1.45513e-23)
(-0.000329715 4.40784e-06 1.4137e-24)
(-0.000332452 1.91163e-05 -5.67924e-24)
(-0.000335232 5.34259e-06 1.08021e-23)
(-0.000337924 1.96259e-05 1.60339e-26)
(-0.000340602 6.26487e-06 -8.1669e-24)
(-0.000343221 2.01162e-05 -1.03122e-23)
(-0.000345822 7.16745e-06 -9.38966e-24)
(-0.000348341 2.05797e-05 5.73956e-24)
(-0.000350887 8.04367e-06 9.17054e-24)
(-0.000353282 2.10093e-05 -1.36505e-23)
(-0.000355796 8.88745e-06 2.33811e-23)
(-0.000358042 2.13987e-05 -8.31418e-25)
(-0.000360542 9.69328e-06 -3.22924e-24)
(-0.00036262 2.17419e-05 -7.06599e-24)
(-0.000365122 1.04561e-05 -4.68963e-24)
(-0.000367013 2.20338e-05 6.70365e-24)
(-0.000369533 1.11715e-05 9.04395e-24)
(-0.000371219 2.22695e-05 -1.15285e-23)
(-0.000373768 1.18356e-05 1.59742e-23)
(-0.000375238 2.24451e-05 -9.27002e-24)
(-0.000377825 1.24449e-05 6.72356e-24)
(-0.000379066 2.25571e-05 4.00164e-23)
(-0.000381698 1.29968e-05 -2.22094e-23)
(-0.000382704 2.2603e-05 -4.39711e-23)
(-0.000385383 1.34896e-05 1.76092e-23)
(-0.000386149 2.25814e-05 1.69064e-23)
(-0.000388875 1.39224e-05 7.81743e-24)
(-0.0003894 2.24917e-05 1.7687e-23)
(-0.000392168 1.42952e-05 1.00851e-23)
(-0.000392458 2.23348e-05 5.30859e-25)
(-0.00039526 1.46091e-05 -9.22675e-24)
(-0.000395321 2.21124e-05 1.2392e-23)
(-0.000398145 1.48666e-05 1.92753e-23)
(-0.00039799 2.18279e-05 -2.33721e-23)
(-0.000400821 1.50706e-05 -2.30537e-23)
(-0.000400464 2.14855e-05 1.1812e-23)
(-0.000403285 1.52253e-05 2.27729e-23)
(-0.000402743 2.10904e-05 -6.91978e-23)
(-0.000405535 1.53353e-05 -3.23603e-23)
(-0.000404827 2.06482e-05 2.99063e-23)
(-0.000407569 1.54055e-05 1.83855e-23)
(-0.000406716 2.01648e-05 -5.56697e-23)
(-0.000409388 1.5441e-05 9.92833e-24)
(-0.00040841 1.96458e-05 4.30488e-24)
(-0.00041099 1.54468e-05 -2.25148e-23)
(-0.000409907 1.90964e-05 -4.12769e-24)
(-0.000412376 1.5428e-05 1.12075e-23)
(-0.000411208 1.85208e-05 -1.71487e-23)
(-0.000413545 1.53898e-05 1.75307e-23)
(-0.000412313 1.79234e-05 2.73312e-24)
(-0.000414496 1.5339e-05 -1.8569e-23)
(-0.000413221 1.73079e-05 1.49353e-23)
(-0.000415226 1.52805e-05 -1.2024e-23)
(-0.000413935 1.6685e-05 -2.83003e-25)
(-0.000415753 1.5227e-05 3.89117e-24)
(-0.000414471 1.60658e-05 -4.83742e-23)
(-0.000416069 1.51368e-05 2.00634e-25)
(-0.000416048 1.50757e-05 1.40014e-24)
(-0.000415827 1.51503e-05 1.42344e-23)
(-0.0004155 1.51996e-05 1.93743e-23)
(-0.000415087 1.53002e-05 -5.73635e-24)
(-0.000414823 1.55212e-05 2.09674e-23)
)
;
    }
    frontAndBackPlanes
    {
        type            empty;
    }
}


// ************************************************************************* //
