/*--------------------------------*- C++ -*----------------------------------*\
| =========                 |                                                 |
| \\      /  F ield         | OpenFOAM Extend Project: Open source CFD        |
|  \\    /   O peration     | Version:  1.6-ext                               |
|   \\  /    A nd           | Web:      www.extend-project.de                 |
|    \\/     M anipulation  |                                                 |
\*---------------------------------------------------------------------------*/
FoamFile
{
    version     2.0;
    format      ascii;
    class       volVectorField;
    location    "0.5";
    object      DV_0;
}
// * * * * * * * * * * * * * * * * * * * * * * * * * * * * * * * * * * * * * //

dimensions      [0 1 -1 0 0 0 0];

internalField   nonuniform List<vector> 
328
(
(-8.51066e-07 -1.69303e-06 0)
(-5.70315e-07 -3.64996e-07 0)
(-5.75561e-07 3.3956e-07 0)
(-8.70253e-07 1.68044e-06 0)
(-2.59189e-06 -4.34363e-06 0)
(-1.8863e-06 -1.05894e-06 0)
(-1.90315e-06 9.99344e-07 0)
(-2.65198e-06 4.31295e-06 0)
(-4.61054e-06 -6.31135e-06 0)
(-3.6496e-06 -1.70652e-06 0)
(-3.68037e-06 1.63181e-06 0)
(-4.71656e-06 6.27501e-06 0)
(-6.81205e-06 -7.70157e-06 0)
(-5.71608e-06 -2.25521e-06 0)
(-5.76205e-06 2.18693e-06 0)
(-6.96765e-06 7.67639e-06 0)
(-9.22575e-06 -8.6523e-06 0)
(-8.11458e-06 -2.68521e-06 0)
(-8.17698e-06 2.64726e-06 0)
(-9.43417e-06 8.65913e-06 0)
(-1.18417e-05 -9.27002e-06 0)
(-1.07984e-05 -2.98995e-06 0)
(-1.08781e-05 3.00856e-06 0)
(-1.21053e-05 9.33291e-06 0)
(-1.46752e-05 -9.64261e-06 0)
(-1.37619e-05 -3.17832e-06 0)
(-1.38595e-05 3.28163e-06 0)
(-1.49953e-05 9.78783e-06 0)
(-1.77374e-05 -9.83589e-06 0)
(-1.69884e-05 -3.26549e-06 0)
(-1.71041e-05 3.48297e-06 0)
(-1.81141e-05 1.00911e-05 0)
(-2.10452e-05 -9.90122e-06 0)
(-2.04742e-05 -3.27083e-06 0)
(-2.06081e-05 3.63239e-06 0)
(-2.14775e-05 1.02947e-05 0)
(-2.46156e-05 -9.87713e-06 0)
(-2.42187e-05 -3.21368e-06 0)
(-2.43701e-05 3.74877e-06 0)
(-2.51008e-05 1.04367e-05 0)
(-2.84669e-05 -9.79277e-06 0)
(-2.82281e-05 -3.11181e-06 0)
(-2.83961e-05 3.84832e-06 0)
(-2.90008e-05 1.0545e-05 0)
(-3.26175e-05 -9.66945e-06 0)
(-3.25138e-05 -2.98005e-06 0)
(-3.26969e-05 3.94328e-06 0)
(-3.31946e-05 1.06387e-05 0)
(-3.70866e-05 -9.52236e-06 0)
(-3.70921e-05 -2.82997e-06 0)
(-3.72884e-05 4.04175e-06 0)
(-3.77003e-05 1.07299e-05 0)
(-4.18938e-05 -9.36171e-06 0)
(-4.19828e-05 -2.6699e-06 0)
(-4.21902e-05 4.14807e-06 0)
(-4.25368e-05 1.08255e-05 0)
(-4.70594e-05 -9.19379e-06 0)
(-4.72092e-05 -2.50527e-06 0)
(-4.74254e-05 4.26368e-06 0)
(-4.77243e-05 1.09282e-05 0)
(-5.2605e-05 -9.02176e-06 0)
(-5.27966e-05 -2.33903e-06 0)
(-5.30193e-05 4.38824e-06 0)
(-5.32846e-05 1.10384e-05 0)
(-5.8553e-05 -8.84631e-06 0)
(-5.87721e-05 -2.17199e-06 0)
(-5.8999e-05 4.52071e-06 0)
(-5.92414e-05 1.11553e-05 0)
(-6.49273e-05 -8.66614e-06 0)
(-6.51637e-05 -2.00314e-06 0)
(-6.53931e-05 4.66039e-06 0)
(-6.56198e-05 1.12778e-05 0)
(-7.17532e-05 -8.4784e-06 0)
(-7.20002e-05 -1.82992e-06 0)
(-7.22307e-05 4.80753e-06 0)
(-7.24467e-05 1.14059e-05 0)
(-7.90576e-05 -8.27911e-06 0)
(-7.93111e-05 -1.64865e-06 0)
(-7.95415e-05 4.96351e-06 0)
(-7.975e-05 1.15402e-05 0)
(-8.68692e-05 -8.06391e-06 0)
(-8.71266e-05 -1.45518e-06 0)
(-8.73559e-05 5.13053e-06 0)
(-8.75583e-05 1.16821e-05 0)
(-9.52179e-05 -7.82898e-06 0)
(-9.54772e-05 -1.24594e-06 0)
(-9.57041e-05 5.31058e-06 0)
(-9.59006e-05 1.18327e-05 0)
(-0.000104476 -7.56247e-06 0)
(-0.000104734 -1.01056e-06 0)
(-0.000104957 5.51154e-06 0)
(-0.000105146 1.19976e-05 0)
(-0.000114335 -7.27478e-06 0)
(-0.000114589 -7.59209e-07 0)
(-0.000114804 5.7232e-06 0)
(-0.000114982 1.21671e-05 0)
(-0.000124138 -6.99103e-06 0)
(-0.000124384 -5.15108e-07 0)
(-0.000124588 5.92453e-06 0)
(-0.000124752 1.23229e-05 0)
(-0.000133882 -6.71839e-06 0)
(-0.000134116 -2.85735e-07 0)
(-0.000134305 6.10802e-06 0)
(-0.000134451 1.24581e-05 0)
(-0.000143558 -6.46274e-06 0)
(-0.000143777 -7.73266e-08 0)
(-0.00014395 6.26742e-06 0)
(-0.000144076 1.25668e-05 0)
(-0.000153161 -6.2276e-06 0)
(-0.000153364 1.06384e-07 0)
(-0.000153519 6.39899e-06 0)
(-0.000153624 1.26455e-05 0)
(-0.000162683 -6.01358e-06 0)
(-0.00016287 2.64679e-07 0)
(-0.000163008 6.50199e-06 0)
(-0.000163092 1.26936e-05 0)
(-0.000172117 -5.81865e-06 0)
(-0.000172291 3.99648e-07 0)
(-0.000172413 6.57848e-06 0)
(-0.000172478 1.2713e-05 0)
(-0.000181456 -5.63865e-06 0)
(-0.00018162 5.15551e-07 0)
(-0.00018173 6.63268e-06 0)
(-0.000181778 1.27078e-05 0)
(-0.000190695 -5.46813e-06 0)
(-0.000190852 6.18029e-07 0)
(-0.000190955 6.67022e-06 0)
(-0.000190991 1.26834e-05 0)
(-0.000199827 -5.30094e-06 0)
(-0.000199983 7.1339e-07 0)
(-0.000200082 6.69736e-06 0)
(-0.000200111 1.26458e-05 0)
(-0.000208847 -5.13076e-06 0)
(-0.000209007 8.08128e-07 0)
(-0.000209108 6.72061e-06 0)
(-0.000209135 1.26014e-05 0)
(-0.00021775 -4.95127e-06 0)
(-0.00021792 9.08696e-07 0)
(-0.000218027 6.74641e-06 0)
(-0.000218059 1.25566e-05 0)
(-0.00022653 -4.75624e-06 0)
(-0.000226716 1.02147e-06 0)
(-0.000226836 6.78118e-06 0)
(-0.000226878 1.25176e-05 0)
(-0.000235183 -4.53945e-06 0)
(-0.000235391 1.15281e-06 0)
(-0.000235529 6.83134e-06 0)
(-0.000235586 1.24908e-05 0)
(-0.000243705 -4.29464e-06 0)
(-0.00024394 1.30914e-06 0)
(-0.000244102 6.90335e-06 0)
(-0.00024418 1.24827e-05 0)
(-0.000252091 -4.0156e-06 0)
(-0.000252359 1.4969e-06 0)
(-0.000252551 7.00377e-06 0)
(-0.000252655 1.24997e-05 0)
(-0.000260338 -3.69623e-06 0)
(-0.000260644 1.7224e-06 0)
(-0.000260869 7.139e-06 0)
(-0.000261006 1.25484e-05 0)
(-0.000268442 -3.33084e-06 0)
(-0.00026879 1.99161e-06 0)
(-0.000269054 7.31513e-06 0)
(-0.000269227 1.26347e-05 0)
(-0.0002764 -2.91442e-06 0)
(-0.000276794 2.3098e-06 0)
(-0.000277101 7.53758e-06 0)
(-0.000277314 1.2764e-05 0)
(-0.00028421 -2.44297e-06 0)
(-0.000284653 2.68126e-06 0)
(-0.000285004 7.81078e-06 0)
(-0.000285261 1.29408e-05 0)
(-0.000291869 -1.9137e-06 0)
(-0.000292363 3.10902e-06 0)
(-0.000292761 8.13789e-06 0)
(-0.000293062 1.31683e-05 0)
(-0.000299377 -1.32528e-06 0)
(-0.000299921 3.59462e-06 0)
(-0.000300366 8.52062e-06 0)
(-0.000300713 1.34484e-05 0)
(-0.000306731 -6.77927e-07 0)
(-0.000307325 4.13805e-06 0)
(-0.000307816 8.95908e-06 0)
(-0.000308208 1.37811e-05 0)
(-0.00031393 2.65866e-08 0)
(-0.000314572 4.73765e-06 0)
(-0.000315107 9.45178e-06 0)
(-0.000315542 1.41652e-05 0)
(-0.000320974 7.84923e-07 0)
(-0.000321659 5.39019e-06 0)
(-0.000322234 9.99561e-06 0)
(-0.00032271 1.45977e-05 0)
(-0.00032786 1.59227e-06 0)
(-0.000328585 6.0909e-06 0)
(-0.000329196 1.05859e-05 0)
(-0.000329707 1.50741e-05 0)
(-0.000334589 2.44244e-06 0)
(-0.000335347 6.8336e-06 0)
(-0.000335988 1.12166e-05 0)
(-0.000336528 1.55886e-05 0)
(-0.00034116 3.32801e-06 0)
(-0.000341943 7.61085e-06 0)
(-0.000342608 1.18804e-05 0)
(-0.000343171 1.6134e-05 0)
(-0.00034757 4.24049e-06 0)
(-0.000348371 8.41408e-06 0)
(-0.000349052 1.25687e-05 0)
(-0.00034963 1.6702e-05 0)
(-0.000353819 5.17057e-06 0)
(-0.00035463 9.23386e-06 0)
(-0.000355319 1.32723e-05 0)
(-0.000355904 1.72836e-05 0)
(-0.000359904 6.10835e-06 0)
(-0.000360717 1.00602e-05 0)
(-0.000361406 1.3981e-05 0)
(-0.00036199 1.7869e-05 0)
(-0.000365825 7.04371e-06 0)
(-0.00036663 1.08827e-05 0)
(-0.00036731 1.46848e-05 0)
(-0.000367884 1.8448e-05 0)
(-0.000371579 7.96663e-06 0)
(-0.000372367 1.16914e-05 0)
(-0.00037303 1.53733e-05 0)
(-0.000373587 1.90109e-05 0)
(-0.000377163 8.86753e-06 0)
(-0.000377926 1.24764e-05 0)
(-0.000378565 1.6037e-05 0)
(-0.000379095 1.95479e-05 0)
(-0.000382574 9.73762e-06 0)
(-0.000383306 1.32288e-05 0)
(-0.000383912 1.66669e-05 0)
(-0.000384409 2.00504e-05 0)
(-0.000387809 1.05691e-05 0)
(-0.000388503 1.39407e-05 0)
(-0.00038907 1.7255e-05 0)
(-0.000389527 2.05104e-05 0)
(-0.000392866 1.13555e-05 0)
(-0.000393515 1.46056e-05 0)
(-0.000394038 1.77947e-05 0)
(-0.000394449 2.09212e-05 0)
(-0.000397741 1.20913e-05 0)
(-0.00039834 1.52179e-05 0)
(-0.000398815 1.82806e-05 0)
(-0.000399175 2.12775e-05 0)
(-0.00040243 1.27724e-05 0)
(-0.000402976 1.57735e-05 0)
(-0.000403398 1.87083e-05 0)
(-0.000403703 2.15748e-05 0)
(-0.00040693 1.33955e-05 0)
(-0.000407421 1.62691e-05 0)
(-0.000407786 1.90746e-05 0)
(-0.000408033 2.18097e-05 0)
(-0.000411239 1.39585e-05 0)
(-0.000411671 1.67024e-05 0)
(-0.000411977 1.9377e-05 0)
(-0.000412164 2.19796e-05 0)
(-0.000415352 1.44595e-05 0)
(-0.000415724 1.70717e-05 0)
(-0.000415969 1.96137e-05 0)
(-0.000416094 2.20826e-05 0)
(-0.000419267 1.48976e-05 0)
(-0.000419578 1.73757e-05 0)
(-0.000419761 1.97833e-05 0)
(-0.000419822 2.21172e-05 0)
(-0.00042298 1.52719e-05 0)
(-0.000423229 1.76137e-05 0)
(-0.00042335 1.9885e-05 0)
(-0.000423346 2.20823e-05 0)
(-0.000426488 1.55821e-05 0)
(-0.000426675 1.7785e-05 0)
(-0.000426733 1.99181e-05 0)
(-0.000426664 2.19776e-05 0)
(-0.000429786 1.58286e-05 0)
(-0.000429912 1.78901e-05 0)
(-0.000429908 1.98828e-05 0)
(-0.000429775 2.18029e-05 0)
(-0.00043287 1.60123e-05 0)
(-0.000432938 1.79296e-05 0)
(-0.000432873 1.97799e-05 0)
(-0.000432676 2.15592e-05 0)
(-0.000435738 1.61352e-05 0)
(-0.000435748 1.79055e-05 0)
(-0.000435625 1.96113e-05 0)
(-0.000435368 2.12487e-05 0)
(-0.000438384 1.62004e-05 0)
(-0.00043834 1.7821e-05 0)
(-0.000438162 1.93803e-05 0)
(-0.000437847 2.08748e-05 0)
(-0.000440805 1.62122e-05 0)
(-0.000440711 1.76806e-05 0)
(-0.000440481 1.90916e-05 0)
(-0.000440114 2.04423e-05 0)
(-0.000442997 1.61762e-05 0)
(-0.000442858 1.74902e-05 0)
(-0.000442582 1.87514e-05 0)
(-0.000442167 1.99579e-05 0)
(-0.000444959 1.60991e-05 0)
(-0.00044478 1.72568e-05 0)
(-0.000444462 1.83672e-05 0)
(-0.000444006 1.94293e-05 0)
(-0.000446688 1.59879e-05 0)
(-0.000446475 1.69883e-05 0)
(-0.000446121 1.79471e-05 0)
(-0.000445631 1.88649e-05 0)
(-0.000448185 1.58498e-05 0)
(-0.000447943 1.66923e-05 0)
(-0.00044756 1.74993e-05 0)
(-0.000447041 1.82732e-05 0)
(-0.000449449 1.56908e-05 0)
(-0.000449183 1.63755e-05 0)
(-0.000448776 1.70307e-05 0)
(-0.000448237 1.76614e-05 0)
(-0.000450484 1.55155e-05 0)
(-0.000450197 1.60427e-05 0)
(-0.000449772 1.6546e-05 0)
(-0.00044922 1.70338e-05 0)
(-0.000451287 1.5325e-05 0)
(-0.000450982 1.5696e-05 0)
(-0.000450545 1.60485e-05 0)
(-0.000449987 1.63941e-05 0)
(-0.000451868 1.51191e-05 0)
(-0.000451547 1.53352e-05 0)
(-0.000451103 1.55404e-05 0)
(-0.000450547 1.57436e-05 0)
(-0.000452204 1.48582e-05 0)
(-0.000451872 1.49518e-05 0)
(-0.000451427 1.50366e-05 0)
(-0.000450878 1.51264e-05 0)
)
;

boundaryField
{
    plateFix
    {
        type            calculated;
        value           uniform (0 0 0);
    }
    plate
    {
        type            calculated;
        value           nonuniform List<vector> 
168
(
(-8.26287e-06 -4.50767e-06 -8.96357e-23)
(-8.2662e-06 4.51253e-06 -7.08486e-23)
(-7.98698e-06 -7.25282e-06 5.00198e-23)
(-8.05044e-06 7.24291e-06 6.2097e-23)
(-8.26844e-06 -9.35927e-06 -2.87335e-23)
(-8.4066e-06 9.34616e-06 -5.91627e-23)
(-9.18823e-06 -1.08091e-05 -4.24422e-23)
(-9.40993e-06 1.08075e-05 -1.40204e-23)
(-1.07085e-05 -1.18106e-05 6.37206e-23)
(-1.10197e-05 1.184e-05 1.15071e-22)
(-1.27127e-05 -1.24607e-05 1.29035e-23)
(-1.31156e-05 1.25437e-05 6.05957e-24)
(-1.51371e-05 -1.28613e-05 3.17289e-23)
(-1.56309e-05 1.30231e-05 2.44193e-23)
(-1.79316e-05 -1.30786e-05 -7.64583e-23)
(-1.85129e-05 1.33456e-05 -6.8959e-23)
(-2.10703e-05 -1.31661e-05 -1.20512e-23)
(-2.17331e-05 1.35655e-05 -3.9366e-23)
(-2.45389e-05 -1.31621e-05 4.08702e-23)
(-2.52751e-05 1.37207e-05 4.49496e-23)
(-2.83336e-05 -1.30953e-05 2.70557e-23)
(-2.91329e-05 1.38392e-05 -9.66085e-24)
(-3.24569e-05 -1.29867e-05 -2.52791e-23)
(-3.33077e-05 1.39399e-05 1.0025e-24)
(-3.69168e-05 -1.28512e-05 -4.1703e-24)
(-3.78067e-05 1.40352e-05 2.81794e-23)
(-4.17252e-05 -1.26989e-05 2.91865e-24)
(-4.26417e-05 1.41319e-05 -4.28754e-23)
(-4.68971e-05 -1.25361e-05 3.74566e-23)
(-4.78291e-05 1.42334e-05 -2.13903e-23)
(-5.24506e-05 -1.23661e-05 -5.47715e-23)
(-5.33886e-05 1.43402e-05 3.53534e-23)
(-5.8406e-05 -1.21898e-05 2.07448e-23)
(-5.93435e-05 1.4452e-05 1.51298e-23)
(-6.47858e-05 -1.2006e-05 -1.01886e-23)
(-6.57196e-05 1.45679e-05 -2.61283e-23)
(-7.16147e-05 -1.18123e-05 2.95551e-23)
(-7.25441e-05 1.46878e-05 9.2404e-24)
(-7.89196e-05 -1.16048e-05 -1.79043e-23)
(-7.98456e-05 1.48121e-05 1.80526e-23)
(-8.67296e-05 -1.13794e-05 -3.69075e-24)
(-8.76529e-05 1.49418e-05 -3.18089e-23)
(-9.50759e-05 -1.11323e-05 3.86024e-24)
(-9.59941e-05 1.50777e-05 1.49506e-23)
(-0.000104332 -1.08511e-05 4.88149e-24)
(-0.000105237 1.52244e-05 1.48706e-23)
(-0.000114192 -1.05462e-05 7.07263e-24)
(-0.000115068 1.53722e-05 4.21041e-24)
(-0.000124 -1.02436e-05 -1.04174e-23)
(-0.00012483 1.55047e-05 -1.69785e-23)
(-0.00013375 -9.95009e-06 1.56309e-23)
(-0.000134518 1.56151e-05 -8.32291e-24)
(-0.000143437 -9.6714e-06 -1.04486e-23)
(-0.000144129 1.56979e-05 7.30462e-24)
(-0.000153051 -9.41085e-06 -7.84253e-24)
(-0.000153662 1.575e-05 -1.55216e-23)
(-0.000162583 -9.16904e-06 -2.23611e-25)
(-0.000163115 1.57706e-05 6.49611e-24)
(-0.000172027 -8.94397e-06 -8.54941e-24)
(-0.000172488 1.57616e-05 7.60605e-24)
(-0.000181373 -8.73161e-06 8.67841e-24)
(-0.000181778 1.57271e-05 5.53458e-24)
(-0.000190616 -8.52663e-06 9.58543e-25)
(-0.000190982 1.56721e-05 -1.62339e-23)
(-0.000199749 -8.32304e-06 -1.31376e-24)
(-0.000200097 1.56027e-05 1.16028e-23)
(-0.000208766 -8.1146e-06 -4.6662e-24)
(-0.00020912 1.5525e-05 3.74646e-24)
(-0.000217663 -7.89509e-06 7.05749e-24)
(-0.000218044 1.54453e-05 -5.67785e-24)
(-0.000226435 -7.65835e-06 2.1896e-24)
(-0.000226867 1.537e-05 -2.29403e-24)
(-0.000235076 -7.39823e-06 -4.15701e-24)
(-0.000235583 1.53054e-05 6.10887e-24)
(-0.000243583 -7.10858e-06 -8.85222e-24)
(-0.000244188 1.52578e-05 -6.59812e-24)
(-0.000251951 -6.78329e-06 5.71295e-24)
(-0.000252676 1.52338e-05 9.77908e-25)
(-0.000260177 -6.4164e-06 1.93102e-24)
(-0.000261043 1.52398e-05 -5.95848e-24)
(-0.000268257 -6.0024e-06 2.71048e-24)
(-0.000269284 1.52817e-05 -4.47705e-24)
(-0.000276189 -5.53644e-06 7.03713e-25)
(-0.000277393 1.53649e-05 1.67704e-23)
(-0.000283971 -5.01466e-06 2.10062e-24)
(-0.000285363 1.5494e-05 -2.3223e-23)
(-0.000291601 -4.43442e-06 -5.76318e-24)
(-0.00029319 1.5672e-05 -6.71123e-24)
(-0.000299079 -3.79452e-06 -1.37554e-25)
(-0.000300866 1.59008e-05 4.56185e-25)
(-0.000306404 -3.09526e-06 -2.98042e-24)
(-0.000308386 1.61807e-05 -2.18476e-24)
(-0.000313575 -2.33849e-06 4.8171e-24)
(-0.000315744 1.65104e-05 -7.28663e-24)
(-0.000320593 -1.52759e-06 -1.65737e-24)
(-0.000322934 1.6887e-05 -5.16398e-24)
(-0.000327457 -6.67376e-07 -7.55736e-24)
(-0.000329951 1.73062e-05 -1.27021e-23)
(-0.000334167 2.35966e-07 -2.61981e-24)
(-0.000336789 1.77621e-05 -4.09755e-24)
(-0.000340721 1.17505e-06 -1.75342e-24)
(-0.000343445 1.82478e-05 1.65593e-24)
(-0.000347121 2.14145e-06 2.38361e-24)
(-0.000349913 1.87551e-05 9.8799e-24)
(-0.000353363 3.12592e-06 3.25342e-24)
(-0.000356191 1.9275e-05 1.0728e-23)
(-0.000359448 4.11867e-06 -1.0256e-23)
(-0.000362276 1.9798e-05 1.21003e-23)
(-0.000365373 5.10968e-06 5.90984e-24)
(-0.000368166 2.0314e-05 -6.03278e-24)
(-0.000371135 6.08904e-06 -2.71681e-23)
(-0.000373858 2.08133e-05 2.09539e-23)
(-0.000376733 7.04728e-06 2.42777e-23)
(-0.000379352 2.12865e-05 -2.02688e-23)
(-0.000382162 7.97569e-06 -1.9726e-23)
(-0.000384647 2.17246e-05 1.30175e-23)
(-0.000387418 8.86657e-06 -2.54554e-23)
(-0.000389743 2.21201e-05 -1.58216e-23)
(-0.000392499 9.71336e-06 1.22684e-25)
(-0.00039464 2.24662e-05 -7.01433e-24)
(-0.0003974 1.05107e-05 9.09266e-24)
(-0.000399338 2.27573e-05 1.17317e-23)
(-0.000402118 1.12544e-05 2.62968e-24)
(-0.000403837 2.29891e-05 2.18868e-24)
(-0.000406648 1.19413e-05 -6.30078e-24)
(-0.000408136 2.31581e-05 1.59269e-23)
(-0.000410988 1.25691e-05 -2.18757e-23)
(-0.000412235 2.32616e-05 -2.30755e-23)
(-0.000415132 1.31362e-05 2.19184e-23)
(-0.000416132 2.32975e-05 5.22607e-23)
(-0.000419079 1.36413e-05 -3.45724e-24)
(-0.000419826 2.32645e-05 -5.60212e-23)
(-0.000422824 1.40839e-05 -7.6666e-24)
(-0.000423316 2.31614e-05 8.03433e-24)
(-0.000426364 1.44637e-05 1.36035e-23)
(-0.0004266 2.29876e-05 2.28915e-24)
(-0.000429693 1.47812e-05 1.0687e-24)
(-0.000429677 2.27434e-05 -2.7899e-23)
(-0.000432809 1.50373e-05 5.09481e-24)
(-0.000432546 2.24297e-05 1.75032e-23)
(-0.000435706 1.52342e-05 1.21901e-23)
(-0.000435205 2.20488e-05 -5.70871e-24)
(-0.00043838 1.53749e-05 -7.05995e-24)
(-0.000437654 2.16042e-05 4.59571e-23)
(-0.000440827 1.54637e-05 -1.12204e-23)
(-0.000439893 2.1101e-05 -2.27976e-23)
(-0.000443041 1.5506e-05 8.36202e-24)
(-0.000441922 2.0546e-05 2.79932e-24)
(-0.000445022 1.55082e-05 3.63752e-25)
(-0.000443741 1.9947e-05 -2.1686e-24)
(-0.000446767 1.54772e-05 7.63613e-24)
(-0.00044535 1.93126e-05 2.41895e-23)
(-0.000448276 1.54199e-05 -4.93462e-24)
(-0.000446749 1.86512e-05 8.03327e-24)
(-0.000449549 1.53415e-05 -9.97175e-24)
(-0.000447936 1.79701e-05 3.66364e-23)
(-0.000450591 1.5247e-05 2.28664e-23)
(-0.000448912 1.72731e-05 -1.61616e-23)
(-0.0004514 1.51358e-05 -7.68375e-24)
(-0.000449674 1.6565e-05 -4.23232e-24)
(-0.000451997 1.50117e-05 3.19125e-23)
(-0.000450241 1.58427e-05 3.96325e-23)
(-0.000452367 1.48198e-05 -3.92279e-24)
(-0.000452294 1.46866e-05 1.64294e-24)
(-0.000451965 1.47561e-05 -1.03583e-23)
(-0.00045152 1.47892e-05 -9.92318e-24)
(-0.000450969 1.48615e-05 9.59446e-24)
(-0.000450605 1.51622e-05 -2.46843e-23)
)
;
    }
    frontAndBackPlanes
    {
        type            empty;
    }
}


// ************************************************************************* //
