/*--------------------------------*- C++ -*----------------------------------*\
| =========                 |                                                 |
| \\      /  F ield         | OpenFOAM Extend Project: Open source CFD        |
|  \\    /   O peration     | Version:  1.6-ext                               |
|   \\  /    A nd           | Web:      www.extend-project.de                 |
|    \\/     M anipulation  |                                                 |
\*---------------------------------------------------------------------------*/
FoamFile
{
    version     2.0;
    format      ascii;
    class       surfaceScalarField;
    location    "0.5";
    object      meshPhi;
}
// * * * * * * * * * * * * * * * * * * * * * * * * * * * * * * * * * * * * * //

dimensions      [0 3 -1 0 0 0 0];

internalField   nonuniform List<scalar> 
570
(
-1.30918e-10
-3.32257e-09
-3.59579e-12
-9.5298e-10
1.38432e-10
-1.02845e-09
-3.77196e-09
-3.93743e-10
-3.87618e-09
-7.84645e-12
-2.1158e-09
4.20057e-10
-2.27969e-09
-4.51764e-09
-6.33123e-10
-4.7351e-09
-4.37103e-12
-3.52517e-09
6.8764e-10
-3.79176e-09
-5.63321e-09
-8.40986e-10
-5.89413e-09
9.20166e-12
-5.14242e-09
9.38899e-10
-5.52277e-09
-7.10117e-09
-1.01442e-09
-7.32842e-09
3.5802e-11
-6.96545e-09
1.17825e-09
-7.47023e-09
-8.88923e-09
-1.15153e-09
-9.00258e-09
7.94335e-11
-8.98011e-09
1.41308e-09
-9.61917e-09
-1.09551e-08
-1.24983e-09
-1.08971e-08
1.45466e-10
-1.11826e-08
1.65261e-09
-1.19658e-08
-1.32761e-08
-1.30577e-09
-1.29988e-08
2.40929e-10
-1.35695e-08
1.90803e-09
-1.45069e-08
-1.58373e-08
-1.31411e-09
-1.53027e-08
3.74904e-10
-1.61422e-08
2.19274e-09
-1.72441e-08
-1.86333e-08
-1.26721e-09
-1.78081e-08
5.59e-10
-1.89049e-08
2.52262e-09
-2.01821e-08
-2.16642e-08
-1.15429e-09
-2.05186e-08
8.07951e-10
-2.18651e-08
2.91652e-09
-2.3329e-08
-2.4935e-08
-9.60413e-10
-2.34411e-08
1.14036e-09
-2.50331e-08
3.39682e-09
-2.66958e-08
-2.84538e-08
-6.65435e-10
-2.65848e-08
1.57961e-09
-2.8422e-08
3.99019e-09
-3.0296e-08
-3.22317e-08
-2.42715e-10
-2.99614e-08
2.15505e-09
-3.20468e-08
4.72871e-09
-3.41454e-08
-3.62823e-08
3.42341e-10
-3.35845e-08
2.90336e-09
-3.59243e-08
5.6512e-09
-3.82615e-08
-4.06211e-08
1.13402e-09
-3.74693e-08
3.87039e-09
-4.00728e-08
6.80501e-09
-4.26633e-08
-4.52656e-08
2.18841e-09
-4.16327e-08
5.11326e-09
-4.45116e-08
8.24835e-09
-4.73707e-08
-5.02347e-08
3.57594e-09
-4.60928e-08
6.70307e-09
-4.9261e-08
1.0053e-08
-5.24047e-08
-5.55487e-08
5.38453e-09
-5.08686e-08
8.72815e-09
-5.43417e-08
1.23076e-08
-5.77868e-08
-6.12289e-08
7.72349e-09
-5.59804e-08
1.1298e-08
-5.97753e-08
1.5122e-08
-6.35392e-08
-6.72974e-08
1.07283e-08
-6.14489e-08
1.45483e-08
-6.55835e-08
1.86317e-08
-6.96843e-08
-7.37768e-08
1.45661e-08
-6.72945e-08
1.86462e-08
-7.17887e-08
2.30041e-08
-7.62449e-08
-8.06914e-08
2.10453e-08
-7.40026e-08
2.57197e-08
-7.88999e-08
3.07082e-08
-8.3758e-08
-8.86008e-08
2.59967e-08
-8.0676e-08
3.0643e-08
-8.59707e-08
3.55971e-08
-9.12227e-08
-9.64559e-08
3.13456e-08
-8.73129e-08
3.5961e-08
-9.29974e-08
4.0878e-08
-9.86353e-08
-1.04251e-07
3.70836e-08
-9.39095e-08
4.16654e-08
-9.99762e-08
4.65427e-08
-1.05992e-07
-1.11982e-07
4.32025e-08
-1.00462e-07
4.77481e-08
-1.06904e-07
5.25832e-08
-1.1329e-07
-1.19646e-07
4.96944e-08
-1.06967e-07
5.42016e-08
-1.13776e-07
5.89923e-08
-1.20526e-07
-1.2724e-07
5.65519e-08
-1.13422e-07
6.10187e-08
-1.20591e-07
6.5763e-08
-1.27697e-07
-1.34762e-07
6.37681e-08
-1.19823e-07
6.81928e-08
-1.27346e-07
7.2889e-08
-1.348e-07
-1.42209e-07
7.1336e-08
-1.26169e-07
7.57174e-08
-1.34039e-07
8.03641e-08
-1.41833e-07
-1.49579e-07
7.92488e-08
-1.32459e-07
8.35859e-08
-1.40667e-07
8.81821e-08
-1.48794e-07
-1.56869e-07
8.74991e-08
-1.38691e-07
9.17915e-08
-1.4723e-07
9.63364e-08
-1.55682e-07
-1.64078e-07
9.60792e-08
-1.44866e-07
1.00327e-07
-1.53726e-07
1.0482e-07
-1.62493e-07
-1.71203e-07
1.04981e-07
-1.50983e-07
1.09184e-07
-1.60155e-07
1.13625e-07
-1.69228e-07
-1.78241e-07
1.14194e-07
-1.57043e-07
1.18354e-07
-1.66516e-07
1.22743e-07
-1.75884e-07
-1.85191e-07
1.23709e-07
-1.63047e-07
1.27826e-07
-1.72808e-07
1.32164e-07
-1.82461e-07
-1.92051e-07
1.33515e-07
-1.68996e-07
1.3759e-07
-1.79032e-07
1.41876e-07
-1.88957e-07
-1.98818e-07
1.43598e-07
-1.7489e-07
1.47633e-07
-1.85188e-07
1.51869e-07
-1.95371e-07
-2.0549e-07
1.53946e-07
-1.80731e-07
1.57942e-07
-1.91275e-07
1.62127e-07
-2.01701e-07
-2.12065e-07
1.64544e-07
-1.86518e-07
1.68502e-07
-1.97291e-07
1.72636e-07
-2.07946e-07
-2.1854e-07
1.75377e-07
-1.92252e-07
1.79296e-07
-2.03237e-07
1.83379e-07
-2.14103e-07
-2.24911e-07
1.86427e-07
-1.97931e-07
1.90308e-07
-2.09111e-07
1.9434e-07
-2.20171e-07
-2.31176e-07
1.97677e-07
-2.03555e-07
2.0152e-07
-2.14909e-07
2.05499e-07
-2.26146e-07
-2.37331e-07
2.0911e-07
-2.0912e-07
2.12912e-07
-2.20631e-07
2.16837e-07
-2.32025e-07
-2.43372e-07
2.20705e-07
-2.14624e-07
2.24465e-07
-2.26271e-07
2.28334e-07
-2.37805e-07
-2.49294e-07
2.32443e-07
-2.20063e-07
2.36159e-07
-2.31826e-07
2.39969e-07
-2.43479e-07
-2.55092e-07
2.44306e-07
-2.25432e-07
2.47973e-07
-2.37291e-07
2.5172e-07
-2.49045e-07
-2.60761e-07
2.56271e-07
-2.30725e-07
2.59887e-07
-2.4266e-07
2.63566e-07
-2.54495e-07
-2.66295e-07
2.68321e-07
-2.35935e-07
2.71879e-07
-2.47928e-07
2.75486e-07
-2.59825e-07
-2.7169e-07
2.80434e-07
-2.41056e-07
2.83929e-07
-2.53088e-07
2.87459e-07
-2.65029e-07
-2.7694e-07
2.92592e-07
-2.46079e-07
2.96018e-07
-2.58133e-07
2.99465e-07
-2.701e-07
-2.82039e-07
3.04776e-07
-2.50997e-07
3.08127e-07
-2.63056e-07
3.11486e-07
-2.75032e-07
-2.86981e-07
3.16969e-07
-2.55802e-07
3.20238e-07
-2.6785e-07
3.23503e-07
-2.7982e-07
-2.91764e-07
3.29153e-07
-2.60485e-07
3.32334e-07
-2.72508e-07
3.355e-07
-2.84458e-07
-2.9638e-07
3.41313e-07
-2.65038e-07
3.444e-07
-2.77024e-07
3.47462e-07
-2.88941e-07
-3.00829e-07
3.53436e-07
-2.69453e-07
3.56422e-07
-2.81392e-07
3.59375e-07
-2.93264e-07
-3.05105e-07
3.65508e-07
-2.73723e-07
3.68389e-07
-2.85605e-07
3.71229e-07
-2.97422e-07
-3.09206e-07
3.77521e-07
-2.77842e-07
3.80291e-07
-2.89659e-07
3.83014e-07
-3.01414e-07
-3.13131e-07
3.89464e-07
-2.81802e-07
3.9212e-07
-2.93548e-07
3.94723e-07
-3.05234e-07
-3.16879e-07
4.01331e-07
-2.85599e-07
4.03869e-07
-2.9727e-07
4.0635e-07
-3.08882e-07
-3.20448e-07
4.13117e-07
-2.89227e-07
4.15534e-07
-3.00821e-07
4.17891e-07
-3.12355e-07
-3.23839e-07
4.24819e-07
-2.92684e-07
4.27112e-07
-3.04199e-07
4.29344e-07
-3.15653e-07
-3.27053e-07
4.36434e-07
-2.95965e-07
4.38602e-07
-3.07401e-07
4.40708e-07
-3.18775e-07
-3.30089e-07
4.47963e-07
-2.99069e-07
4.50004e-07
-3.10427e-07
4.51984e-07
-3.21721e-07
-3.3295e-07
4.59405e-07
-3.01993e-07
4.6132e-07
-3.13275e-07
4.63174e-07
-3.24491e-07
-3.35637e-07
4.70763e-07
-3.04737e-07
4.72551e-07
-3.15946e-07
4.7428e-07
-3.27086e-07
-3.38151e-07
4.82039e-07
-3.073e-07
4.83701e-07
-3.1844e-07
4.85307e-07
-3.29508e-07
-3.40495e-07
4.93238e-07
-3.09682e-07
4.94774e-07
-3.20756e-07
4.96257e-07
-3.31756e-07
-3.4267e-07
5.04364e-07
-3.11883e-07
5.05775e-07
-3.22897e-07
5.07137e-07
-3.33833e-07
-3.44679e-07
5.15421e-07
-3.13902e-07
5.16709e-07
-3.24862e-07
5.17951e-07
-3.35741e-07
-3.46523e-07
5.26418e-07
-3.15742e-07
5.27583e-07
-3.26653e-07
5.28706e-07
-3.3748e-07
-3.48205e-07
5.37359e-07
-3.17402e-07
5.38402e-07
-3.28271e-07
5.3941e-07
-3.39052e-07
-3.49727e-07
5.48251e-07
-3.18884e-07
5.49175e-07
-3.29717e-07
5.50068e-07
-3.40459e-07
-3.51091e-07
5.59104e-07
-3.2019e-07
5.59909e-07
-3.30994e-07
5.60689e-07
-3.41702e-07
-3.52298e-07
5.69922e-07
-3.2132e-07
5.70612e-07
-3.32101e-07
5.71279e-07
-3.42783e-07
-3.53349e-07
5.80715e-07
-3.22278e-07
5.8129e-07
-3.33042e-07
5.81847e-07
-3.43703e-07
-3.54246e-07
5.91488e-07
-3.23065e-07
5.9195e-07
-3.33818e-07
5.924e-07
-3.44464e-07
-3.54989e-07
6.02248e-07
-3.23682e-07
6.026e-07
-3.34431e-07
6.02944e-07
-3.45067e-07
-3.55579e-07
6.13001e-07
-3.24134e-07
6.13244e-07
-3.34886e-07
6.13483e-07
-3.45517e-07
-3.56017e-07
6.23757e-07
-3.24407e-07
6.23889e-07
-3.35174e-07
6.2402e-07
-3.45804e-07
-3.56292e-07
6.34533e-07
6.34539e-07
6.34544e-07
)
;

boundaryField
{
    plateFix
    {
        type            calculated;
        value           nonuniform List<scalar> 4(2.59973e-09 -5.27275e-14 3.94519e-14 2.87713e-09);
    }
    plate
    {
        type            calculated;
        value           nonuniform List<scalar> 
168
(
5.892e-10
6.93022e-10
1.0398e-09
1.19919e-09
1.45034e-09
1.67023e-09
1.80574e-09
2.09572e-09
2.10872e-09
2.48717e-09
2.36566e-09
2.86201e-09
2.57949e-09
3.23602e-09
2.751e-09
3.62565e-09
2.8778e-09
4.04773e-09
2.95431e-09
4.52056e-09
2.97113e-09
5.06463e-09
2.9144e-09
5.70351e-09
2.76485e-09
6.46484e-09
2.49663e-09
7.38153e-09
2.0759e-09
8.49318e-09
1.45912e-09
9.84793e-09
5.90902e-10
1.15047e-08
-5.98508e-10
1.35359e-08
-2.19643e-09
1.60309e-08
-4.31165e-09
1.90999e-08
-7.07917e-09
2.28789e-08
-1.0666e-08
2.75351e-08
-1.65741e-08
3.58925e-08
-2.15496e-08
4.07432e-08
-2.69255e-08
4.59829e-08
-3.26933e-08
5.16037e-08
-3.88446e-08
5.7598e-08
-4.53713e-08
6.39588e-08
-5.22656e-08
7.06793e-08
-5.95203e-08
7.77534e-08
-6.71278e-08
8.51752e-08
-7.50808e-08
9.29387e-08
-8.33715e-08
1.01038e-07
-9.19917e-08
1.09465e-07
-1.00932e-07
1.18214e-07
-1.10184e-07
1.27275e-07
-1.19736e-07
1.36638e-07
-1.29576e-07
1.46294e-07
-1.39693e-07
1.56229e-07
-1.50073e-07
1.6643e-07
-1.60701e-07
1.76881e-07
-1.71563e-07
1.87567e-07
-1.82642e-07
1.98468e-07
-1.93921e-07
2.09567e-07
-2.05384e-07
2.20842e-07
-2.17011e-07
2.32273e-07
-2.28785e-07
2.43839e-07
-2.40686e-07
2.55518e-07
-2.52695e-07
2.67287e-07
-2.64792e-07
2.79126e-07
-2.7696e-07
2.91013e-07
-2.89178e-07
3.02928e-07
-3.0143e-07
3.14852e-07
-3.13696e-07
3.26768e-07
-3.25961e-07
3.38658e-07
-3.3821e-07
3.50509e-07
-3.50427e-07
3.62307e-07
-3.62601e-07
3.74042e-07
-3.7472e-07
3.85706e-07
-3.86775e-07
3.97291e-07
-3.98758e-07
4.08792e-07
-4.10664e-07
4.20207e-07
-4.22489e-07
4.31533e-07
-4.34229e-07
4.42771e-07
-4.45884e-07
4.53921e-07
-4.57453e-07
4.64986e-07
-4.68939e-07
4.75969e-07
-4.80344e-07
4.86872e-07
-4.9167e-07
4.97702e-07
-5.02923e-07
5.08463e-07
-5.14108e-07
5.1916e-07
-5.25229e-07
5.29801e-07
-5.36294e-07
5.4039e-07
-5.4731e-07
5.50937e-07
-5.58283e-07
5.61448e-07
-5.69222e-07
5.7193e-07
-5.80132e-07
5.82391e-07
-5.91021e-07
5.92838e-07
-6.01895e-07
6.03277e-07
-6.12762e-07
6.13712e-07
-6.23631e-07
6.24147e-07
-6.34507e-07
-3.24535e-07
-3.35315e-07
-3.45946e-07
-3.56425e-07
6.34572e-07
)
;
    }
    frontAndBackPlanes
    {
        type            empty;
    }
}


// ************************************************************************* //
