/*--------------------------------*- C++ -*----------------------------------*\
| =========                 |                                                 |
| \\      /  F ield         | OpenFOAM Extend Project: Open source CFD        |
|  \\    /   O peration     | Version:  1.6-ext                               |
|   \\  /    A nd           | Web:      www.extend-project.de                 |
|    \\/     M anipulation  |                                                 |
\*---------------------------------------------------------------------------*/
FoamFile
{
    version     2.0;
    format      ascii;
    class       volSymmTensorField;
    location    "0.5";
    object      sigma;
}
// * * * * * * * * * * * * * * * * * * * * * * * * * * * * * * * * * * * * * //

dimensions      [1 -1 -2 0 0 0 0];

internalField   nonuniform List<symmTensor> 
328
(
(3.00479 0.378911 -5.80755e-22 1.26505 8.07934e-20 1.70644)
(1.32104 0.133729 1.20209e-24 0.742574 5.35595e-23 0.824388)
(0.327941 0.0891109 4.75308e-23 0.307165 -5.63751e-23 0.253005)
(-1.28571 0.278165 -1.86891e-22 -0.271523 -1.05998e-19 -0.624298)
(2.86388 0.282931 2.52105e-21 0.984156 -1.53623e-19 1.5377)
(1.31475 0.203052 1.95425e-22 0.55207 -9.46227e-24 0.745589)
(0.33313 0.165418 2.40739e-23 0.421615 1.19175e-22 0.30078)
(-1.18311 0.212947 1.39859e-21 -0.0656396 -3.19632e-20 -0.500927)
(2.81013 0.214461 -2.94335e-21 0.826686 -2.92302e-20 1.45316)
(1.36184 0.249634 -2.30735e-22 0.46454 1.28869e-22 0.729308)
(0.312632 0.219929 6.91658e-22 0.468324 1.65028e-22 0.31116)
(-1.13897 0.169607 -4.79542e-21 0.0494251 1.23982e-19 -0.437304)
(2.73057 0.170389 7.75047e-22 0.720272 3.82645e-20 1.37871)
(1.35637 0.27595 3.50075e-22 0.392256 -1.01534e-22 0.69808)
(0.324574 0.254779 -1.09924e-21 0.501855 -6.83897e-22 0.329227)
(-1.07164 0.14317 4.42606e-21 0.127052 4.70782e-20 -0.379378)
(2.66363 0.144133 -9.14038e-23 0.659276 4.39012e-20 1.32749)
(1.35267 0.287761 1.03439e-22 0.354677 8.0432e-23 0.681461)
(0.336618 0.27405 3.70173e-22 0.514235 -6.95932e-22 0.33889)
(-1.00915 0.127861 1.10746e-21 0.172209 -1.04736e-19 -0.336369)
(2.592 0.129215 2.64687e-21 0.621771 -5.23074e-20 1.2838)
(1.33482 0.291939 1.04249e-23 0.330042 -3.19714e-23 0.664383)
(0.356881 0.284089 -1.60113e-21 0.519334 9.41219e-22 0.348948)
(-0.939558 0.119085 -1.80573e-21 0.20073 1.84235e-20 -0.297155)
(2.51978 0.121336 -4.11157e-21 0.599258 1.00222e-19 1.2459)
(1.31458 0.2917 7.50236e-22 0.317938 1.04467e-22 0.651383)
(0.378538 0.287849 7.44126e-22 0.518307 -6.09833e-22 0.357138)
(-0.86626 0.11395 2.29449e-21 0.218846 2.08206e-20 -0.26061)
(2.44377 0.117475 2.96783e-21 0.584151 -2.84571e-20 1.20944)
(1.29034 0.289432 -2.4483e-21 0.312078 -1.60714e-22 0.639303)
(0.402441 0.287908 -2.81335e-22 0.514906 -3.63432e-22 0.365298)
(-0.787448 0.110598 -2.92639e-21 0.231929 -5.56642e-20 -0.223862)
(2.36391 0.1158 -4.23645e-21 0.572611 5.72564e-20 1.17288)
(1.26486 0.286233 2.94544e-21 0.310863 1.35967e-22 0.628605)
(0.427262 0.285663 9.00709e-22 0.509959 6.32626e-22 0.373225)
(-0.703464 0.108008 2.34937e-21 0.242649 8.90806e-20 -0.185984)
(2.27932 0.115168 2.18669e-21 0.562183 -9.04453e-20 1.13488)
(1.23823 0.282688 1.2631e-21 0.312269 -4.40251e-22 0.618505)
(0.453199 0.282085 -6.8363e-22 0.504299 -8.04232e-22 0.381326)
(-0.61401 0.105635 3.08645e-21 0.252622 -7.18536e-20 -0.146213)
(2.1897 0.114933 2.33849e-21 0.55163 6.44059e-20 1.09482)
(1.21105 0.278972 -5.73552e-21 0.315443 2.71901e-22 0.608902)
(0.480172 0.2777 3.11648e-21 0.498053 5.67377e-22 0.389616)
(-0.519078 0.103242 -4.88932e-21 0.262598 1.33231e-20 -0.104247)
(2.09471 0.114727 -2.38753e-21 0.540298 -8.88522e-20 1.05229)
(1.18333 0.275102 4.79168e-21 0.319681 6.96315e-22 0.599518)
(0.508384 0.272826 4.6916e-22 0.491265 5.47146e-23 0.398189)
(-0.418558 0.100743 -1.99434e-21 0.272918 2.74887e-20 -0.0599076)
(1.99416 0.114358 4.62338e-21 0.527894 6.30966e-20 1.00712)
(1.15513 0.271009 -1.82586e-21 0.324604 -7.50836e-22 0.590215)
(0.537975 0.26761 -6.65028e-21 0.48385 3.14137e-22 0.407066)
(-0.312367 0.0981217 8.10545e-21 0.283688 1.19025e-20 -0.013118)
(1.88793 0.113734 -5.6253e-21 0.514298 -6.33724e-22 0.959204)
(1.12634 0.26661 1.1136e-21 0.329944 8.74569e-22 0.580844)
(0.569099 0.262115 6.99584e-22 0.47573 4.14765e-22 0.416275)
(-0.200391 0.0953861 -1.99794e-21 0.294921 -3.51313e-20 0.0361712)
(1.77596 0.112811 1.57992e-21 0.499477 -1.02323e-20 0.908497)
(1.09686 0.261829 -6.81101e-21 0.335536 -1.41561e-21 0.571297)
(0.601865 0.256344 6.07343e-22 0.466835 6.48148e-22 0.425832)
(-0.082533 0.092541 6.73003e-21 0.30659 7.2408e-21 0.0879878)
(1.65822 0.111578 3.10239e-21 0.483431 -5.84616e-21 0.854997)
(1.06656 0.256602 4.37076e-22 0.341265 -8.64967e-22 0.561479)
(0.636351 0.250267 -7.00267e-21 0.457122 7.44912e-22 0.435749)
(0.0412912 0.0895861 1.88891e-22 0.318654 -1.77029e-20 0.14235)
(1.53477 0.110032 -2.94526e-21 0.466176 -2.58003e-20 0.798728)
(1.03535 0.250882 -5.83707e-21 0.347056 -1.19688e-21 0.551319)
(0.6726 0.243835 5.59698e-21 0.446567 -6.87924e-22 0.446034)
(0.171119 0.0865122 -4.04291e-21 0.331075 2.64246e-20 0.199255)
(1.40569 0.108173 2.26997e-20 0.44773 1.98521e-20 0.73973)
(1.00314 0.244627 1.81465e-21 0.35285 2.39922e-21 0.540761)
(0.710618 0.236994 4.16335e-21 0.435158 -8.28115e-22 0.456686)
(0.306926 0.0833074 -4.21025e-21 0.343806 -6.37338e-20 0.258677)
(1.27116 0.106001 -7.9937e-21 0.428126 1.27758e-20 0.67809)
(0.969892 0.237804 -1.85599e-20 0.358606 -1.69806e-21 0.529775)
(0.750386 0.22969 6.95385e-21 0.422904 -7.50724e-22 0.467698)
(0.448599 0.079957 -3.00987e-22 0.356806 4.98965e-20 0.320553)
(1.13134 0.103509 -2.92672e-20 0.407357 -1.89415e-20 0.613867)
(0.935575 0.23037 1.62228e-20 0.364269 2.59769e-21 0.518324)
(0.791833 0.22186 1.4127e-20 0.409809 1.14381e-21 0.479047)
(0.595941 0.0764514 4.20249e-21 0.370025 -1.90086e-21 0.384784)
(0.986745 0.100707 3.9296e-20 0.385545 1.52533e-20 0.547318)
(0.900287 0.222309 -5.75106e-21 0.369832 -1.68501e-21 0.506444)
(0.834858 0.213462 -4.96171e-21 0.395928 -2.27557e-21 0.490713)
(0.748534 0.0727675 9.28784e-21 0.383437 2.34418e-20 0.451192)
(0.837235 0.0974865 1.08287e-20 0.362449 -1.403e-20 0.47829)
(0.863933 0.213474 -4.42593e-21 0.37514 1.39058e-21 0.494038)
(0.879338 0.204352 -2.55134e-20 0.381284 1.5134e-23 0.502657)
(0.906175 0.0688659 1.60914e-20 0.397033 4.24294e-21 0.519693)
(0.679255 0.0934711 1.157e-21 0.338245 1.5201e-20 0.405431)
(0.825577 0.202728 2.11315e-20 0.38072 -1.07939e-22 0.480941)
(0.926674 0.193319 2.73105e-20 0.365332 3.11446e-21 0.515221)
(1.07311 0.0640441 9.35549e-21 0.41095 -2.10859e-20 0.592041)
(0.518605 0.0902034 -5.29414e-20 0.313107 -2.88142e-20 0.331132)
(0.786555 0.193452 -6.50466e-21 0.38593 -5.11563e-21 0.46743)
(0.974931 0.183745 -8.01612e-21 0.348612 9.20894e-22 0.527848)
(1.2428 0.0599044 -7.84066e-20 0.424412 4.22001e-20 0.665307)
(0.365595 0.0869324 -2.61422e-21 0.288811 3.21024e-20 0.260224)
(0.749618 0.184294 -6.25755e-21 0.390632 -2.28123e-21 0.45455)
(1.02098 0.174304 2.64141e-20 0.332675 2.90264e-21 0.539905)
(1.40479 0.0558463 7.74289e-20 0.437498 -5.69453e-20 0.735345)
(0.220362 0.0836571 5.51612e-21 0.265357 -2.39393e-20 0.192763)
(0.714636 0.175085 4.81297e-20 0.394779 3.8358e-21 0.442231)
(1.06472 0.164781 3.03271e-21 0.317304 -5.40638e-21 0.551264)
(1.55852 0.0516757 -2.27673e-20 0.449673 2.29329e-20 0.801713)
(0.0830861 0.0803807 3.33252e-20 0.243025 -2.44974e-20 0.128933)
(0.681717 0.1658 -6.15956e-20 0.398556 -7.127e-21 0.430588)
(1.10629 0.15515 4.42234e-21 0.302643 1.18103e-20 0.562038)
(1.7042 0.0474055 -6.52214e-20 0.461147 -4.22508e-20 0.864578)
(-0.0461678 0.0771517 -5.23561e-20 0.221737 3.15543e-20 0.0687288)
(0.650865 0.156431 -3.46308e-20 0.401902 2.69855e-22 0.4196)
(1.14564 0.145372 2.06569e-20 0.288635 -3.43607e-21 0.572189)
(1.84166 0.0429794 4.5309e-20 0.47179 6.30848e-20 0.923823)
(-0.167175 0.0739749 6.7865e-20 0.201572 -7.00553e-21 0.0122721)
(0.622204 0.146966 1.47359e-20 0.404852 -3.92499e-21 0.40933)
(1.18286 0.13543 -2.07555e-20 0.275329 -7.09334e-21 0.581765)
(1.97095 0.03838 7.78834e-20 0.481656 -4.57624e-20 0.979489)
(-0.279777 0.0708722 -6.78557e-20 0.182472 9.56064e-21 -0.0403968)
(0.595814 0.137396 -1.66547e-20 0.40734 2.07212e-21 0.399783)
(1.21797 0.125298 -1.01614e-19 0.262669 1.03796e-20 0.590755)
(2.092 0.033571 3.33955e-20 0.490656 1.04443e-21 1.03151)
(-0.383735 0.0678483 1.15068e-20 0.164414 1.14129e-21 -0.0891914)
(0.571824 0.12771 -5.7663e-20 0.409312 1.5636e-20 0.39099)
(1.25103 0.114958 5.33439e-20 0.250615 -1.51778e-20 0.599169)
(2.20481 0.0285344 6.4941e-21 0.498731 2.92129e-20 1.07987)
(-0.478826 0.0649096 -4.19362e-20 0.147312 -5.08686e-21 -0.134058)
(0.550353 0.117899 3.81707e-20 0.410657 -1.97136e-20 0.382953)
(1.28209 0.104397 -1.51247e-19 0.23907 -1.02009e-20 0.606986)
(2.30934 0.0232532 -1.80259e-20 0.505751 1.20385e-20 1.1245)
(-0.5648 0.0620529 -1.34e-19 0.131064 2.97151e-20 -0.174935)
(0.531534 0.107955 1.69124e-19 0.411247 6.72747e-21 0.375676)
(1.31121 0.0936059 1.48748e-20 0.227917 -1.41176e-20 0.614186)
(2.40555 0.0177235 9.72469e-20 0.511571 3.30777e-21 1.16531)
(-0.641416 0.059271 7.94228e-20 0.115533 -3.54788e-20 -0.211783)
(0.515495 0.0978737 2.56721e-20 0.410915 4.44887e-21 0.369141)
(1.33845 0.0825868 9.13431e-20 0.217002 6.86257e-21 0.620728)
(2.49341 0.0119507 -6.24167e-20 0.516002 -7.63073e-21 1.20223)
(-0.708438 0.0565489 -1.10705e-19 0.100557 2.30495e-20 -0.244571)
(0.502357 0.0876545 4.74577e-20 0.409472 -7.92214e-21 0.363322)
(1.36385 0.0713504 8.14219e-20 0.206147 2.39348e-20 0.626559)
(2.57286 0.00595383 -2.82361e-20 0.518832 6.65881e-22 1.23515)
(-0.765656 0.0538657 1.52503e-19 0.0859495 7.54205e-21 -0.273289)
(0.492223 0.0773019 1.85667e-20 0.406704 6.30775e-21 0.358176)
(1.38745 0.0599182 -9.98886e-20 0.195145 -1.55683e-20 0.631611)
(2.64385 -0.000235223 2.15707e-20 0.519819 -2.26893e-20 1.26395)
(-0.812895 0.0511938 -8.33988e-20 0.0715082 1.52876e-21 -0.29795)
(0.485177 0.0668264 -4.26631e-20 0.402384 2.47103e-20 0.353643)
(1.40927 0.0483239 -1.33423e-20 0.183778 3.0456e-21 0.635804)
(2.70631 -0.00657032 -4.42956e-20 0.518712 -5.20071e-21 1.28849)
(-0.850031 0.0485001 -5.9234e-20 0.057022 -3.30077e-20 -0.318586)
(0.481268 0.056245 1.18437e-19 0.396281 9.72912e-21 0.349652)
(1.42931 0.0366131 -7.22237e-20 0.171817 -4.26096e-21 0.639047)
(2.76016 -0.0129918 1.25159e-19 0.51525 8.41793e-21 1.30866)
(-0.877 0.0457474 5.13133e-20 0.042281 -4.29124e-21 -0.335257)
(0.48051 0.0455821 1.29115e-19 0.388169 -4.1902e-20 0.346118)
(1.44755 0.0248437 -2.41469e-19 0.159035 4.01065e-20 0.641242)
(2.80532 -0.0194271 4.56431e-20 0.509182 -6.01739e-21 1.32431)
(-0.893818 0.0428956 9.94888e-20 0.027087 1.28245e-20 -0.348048)
(0.482871 0.0348698 -9.09572e-20 0.377843 3.47188e-20 0.342946)
(1.46394 0.0130855 1.02061e-19 0.145219 2.32377e-20 0.642283)
(2.84173 -0.0257928 -2.09652e-19 0.500277 -6.5139e-21 1.33532)
(-0.900583 0.0399039 -3.99208e-20 0.0112642 2.00339e-20 -0.357069)
(0.48827 0.0241484 1.38114e-19 0.365126 -1.76334e-20 0.340033)
(1.47841 0.00141886 7.31456e-20 0.130182 -4.49311e-20 0.642068)
(2.86931 -0.0319962 -1.20289e-19 0.488339 1.2561e-20 1.34158)
(-0.897492 0.0367329 -1.99585e-19 -0.00532938 2.46377e-20 -0.362455)
(0.496573 0.0134663 1.21672e-20 0.349885 -2.3761e-20 0.337273)
(1.49086 -0.0100664 7.51947e-20 0.113774 -2.63326e-21 0.640498)
(2.888 -0.0379389 1.42465e-19 0.47322 4.33495e-21 1.34302)
(-0.884841 0.0333469 2.60829e-19 -0.022793 -2.54491e-20 -0.364364)
(0.507588 0.00287968 -2.36971e-19 0.332043 -3.05085e-21 0.334557)
(1.50117 -0.0212734 -2.29308e-21 0.0958923 -3.54938e-20 0.637483)
(2.89774 -0.04352 -1.05953e-19 0.454834 2.36283e-20 1.33958)
(-0.863033 0.0297162 2.5791e-19 -0.0411748 -2.66241e-21 -0.362977)
(0.52107 -0.00754838 -3.22981e-19 0.311584 5.17794e-20 0.331781)
(1.50919 -0.0321003 2.26084e-19 0.0764913 -6.80647e-20 0.632947)
(2.89854 -0.0486393 1.01509e-19 0.433164 7.55338e-20 1.33124)
(-0.832576 0.0258188 1.43717e-19 -0.0604664 1.2883e-21 -0.358494)
(0.536721 -0.0177488 6.78318e-20 0.288561 -2.4363e-20 0.328847)
(1.51478 -0.0424435 -9.61392e-20 0.0555871 -1.37473e-20 0.626832)
(2.8904 -0.0532014 -1.29667e-19 0.408274 -2.51225e-20 1.31804)
(-0.794079 0.0216426 -5.2459e-20 -0.0806003 -9.69919e-21 -0.351132)
(0.554192 -0.0276481 1.50762e-23 0.263103 -2.8057e-22 0.325667)
(1.51775 -0.0522001 -1.83484e-19 0.033262 9.693e-20 0.619103)
(2.87338 -0.0571189 -1.45946e-19 0.38031 1.16053e-20 1.30007)
(-0.748251 0.0171861 3.77577e-19 -0.10145 -1.631e-20 -0.341123)
(0.57309 -0.0371701 -7.34664e-20 0.235408 7.31267e-20 0.322163)
(1.51792 -0.0612716 7.70967e-20 0.00966405 -2.00104e-20 0.609748)
(2.8476 -0.060316 4.50451e-19 0.349498 -1.02829e-20 1.27745)
(-0.695884 0.0124591 -1.88442e-21 -0.122834 -5.42975e-21 -0.328712)
(0.59299 -0.0462379 -8.20363e-20 0.205745 1.0577e-20 0.318272)
(1.51513 -0.0695664 -8.12824e-20 -0.0149966 -6.53239e-20 0.598782)
(2.81322 -0.0627313 -3.50001e-19 0.316146 -4.03632e-20 1.25037)
(-0.637845 0.00748329 8.53951e-20 -0.144523 -4.19833e-20 -0.314155)
(0.613436 -0.0547761 -1.92631e-19 0.174444 6.79733e-20 0.313945)
(1.5092 -0.077003 5.69807e-20 -0.0404539 9.19464e-20 0.586243)
(2.77047 -0.0643197 -2.89611e-20 0.280631 -1.10925e-20 1.21908)
(-0.575064 0.0022912 -2.03728e-20 -0.166246 -4.14254e-21 -0.297715)
(0.633957 -0.0627131 -1.4118e-20 0.141888 6.51133e-20 0.309146)
(1.49999 -0.0835123 8.82521e-20 -0.0663963 -3.02619e-20 0.572195)
(2.71963 -0.0650543 -1.81404e-19 0.24339 3.0746e-20 1.18387)
(-0.508511 -0.00307432 -2.00727e-20 -0.187707 3.10607e-20 -0.279661)
(0.654077 -0.0699829 2.73437e-19 0.108497 6.47286e-20 0.303852)
(1.48736 -0.0890399 -2.89998e-19 -0.092478 -1.17465e-19 0.556726)
(2.66108 -0.0649271 1.09553e-20 0.204909 -6.59103e-21 1.14508)
(-0.439185 -0.00856175 -2.78074e-20 -0.208593 3.69996e-20 -0.260269)
(0.673324 -0.0765275 -1.36763e-19 0.0747183 -1.28972e-19 0.298053)
(1.47121 -0.0935471 2.12609e-19 -0.118333 1.32744e-20 0.53994)
(2.59523 -0.0639487 1.02651e-19 0.165699 2.68207e-20 1.10307)
(-0.368093 -0.0141127 3.37065e-19 -0.22859 -2.07582e-20 -0.239814)
(0.691241 -0.082298 -8.0623e-20 0.0410054 1.25845e-19 0.291749)
(1.45148 -0.0970125 -1.37657e-19 -0.143589 -7.98084e-21 0.521961)
(2.52255 -0.0621482 1.08169e-19 0.126288 -1.66868e-21 1.05826)
(-0.296232 -0.0196639 -1.16988e-20 -0.247395 -9.13523e-22 -0.218576)
(0.707395 -0.0872565 4.99808e-20 0.00780803 -9.50889e-20 0.284945)
(1.42813 -0.0994317 -7.68124e-20 -0.167883 3.90159e-20 0.50292)
(2.44361 -0.0595711 -3.90258e-19 0.0871978 4.13229e-20 1.01107)
(-0.224572 -0.0251496 8.74499e-20 -0.264729 -3.63278e-20 -0.196831)
(0.721386 -0.0913767 2.25948e-19 -0.0244454 1.16222e-19 0.277654)
(1.40118 -0.100817 3.73414e-19 -0.190873 3.05791e-20 0.482958)
(2.35897 -0.0562775 1.86541e-19 0.0489298 -5.8285e-20 0.961925)
(-0.154045 -0.0305039 -3.10798e-19 -0.280346 -6.24132e-20 -0.174852)
(0.732856 -0.0946446 -7.12436e-20 -0.0553596 -5.82491e-20 0.269889)
(1.37067 -0.101197 -6.16991e-19 -0.212251 2.48537e-21 0.462217)
(2.26928 -0.0523398 3.25802e-19 0.0119503 6.87211e-21 0.911278)
(-0.0855229 -0.035663 -8.0023e-20 -0.294044 -2.00727e-20 -0.152909)
(0.741492 -0.0970585 -1.06719e-19 -0.0845832 1.32172e-19 0.261667)
(1.33669 -0.100613 1.70014e-19 -0.231754 4.54407e-20 0.440839)
(2.17519 -0.0478392 -2.14836e-19 -0.0233218 7.60768e-23 0.859555)
(-0.0198146 -0.0405671 5.38764e-20 -0.305668 4.45359e-20 -0.131262)
(0.747032 -0.0986287 2.05465e-19 -0.111817 2.50496e-21 0.253003)
(1.29936 -0.0991218 -2.95792e-19 -0.249166 -7.56117e-21 0.418961)
(2.07739 -0.0428636 -4.81489e-20 -0.0565247 -5.49218e-20 0.807176)
(0.0423493 -0.0451623 -3.34438e-19 -0.315115 2.24689e-21 -0.110162)
(0.749265 -0.0993769 1.58666e-19 -0.136818 -2.17928e-20 0.243909)
(1.25886 -0.0967885 2.42916e-19 -0.264328 3.64136e-20 0.396712)
(1.97658 -0.0375037 4.06725e-19 -0.0873588 -4.58551e-20 0.75454)
(0.10032 -0.0494025 2.25511e-19 -0.322334 -1.68286e-20 -0.0898485)
(0.748034 -0.0993353 -2.5621e-19 -0.159403 9.88446e-20 0.234395)
(1.21538 -0.0936872 1.12473e-19 -0.277136 -1.37594e-19 0.374212)
(1.87345 -0.0318508 -3.48585e-19 -0.115591 3.84174e-21 0.702018)
(0.153537 -0.0532498 -8.46201e-20 -0.32732 7.61796e-20 -0.0705441)
(0.743234 -0.0985455 -4.31493e-20 -0.179447 -2.0675e-19 0.22447)
(1.16914 -0.0898978 3.08274e-19 -0.28754 1.80844e-19 0.351569)
(1.7687 -0.0259938 -2.16922e-19 -0.141052 8.68037e-21 0.649955)
(0.201527 -0.0566757 -2.08579e-19 -0.330119 -2.61196e-20 -0.0524551)
(0.734808 -0.0970572 2.41277e-19 -0.196881 2.66314e-19 0.214139)
(1.12038 -0.0855041 -1.86711e-19 -0.29554 -1.76807e-19 0.328883)
(1.663 -0.020017 2.11241e-20 -0.163637 1.46275e-20 0.598661)
(0.243907 -0.0596615 -3.46513e-19 -0.330811 -2.63511e-20 -0.0357679)
(0.722749 -0.0949265 -1.04443e-20 -0.211687 -1.86783e-20 0.203406)
(1.06937 -0.0805918 -1.31787e-19 -0.301181 2.18176e-19 0.306237)
(1.55699 -0.0139988 1.68845e-19 -0.183298 -5.48321e-20 0.548413)
(0.28038 -0.0621981 -9.47713e-20 -0.329513 1.22796e-20 -0.0206472)
(0.707088 -0.092215 3.6625e-20 -0.223891 -1.04379e-19 0.192274)
(1.01638 -0.0752464 4.68447e-19 -0.304549 -2.65232e-20 0.283709)
(1.45128 -0.00800943 1.76827e-19 -0.200038 -2.52554e-21 0.499455)
(0.310732 -0.0642858 -8.68514e-20 -0.326363 5.43514e-20 -0.00723463)
(0.687896 -0.088988 -2.42173e-19 -0.233556 -4.96761e-20 0.180744)
(0.961678 -0.0695518 2.97384e-20 -0.305757 3.68093e-20 0.261362)
(1.34645 -0.0021109 -1.74153e-19 -0.213903 -4.55979e-20 0.451996)
(0.334828 -0.0659336 -3.94658e-20 -0.321522 3.73795e-20 0.00435252)
(0.665276 -0.0853133 1.7347e-19 -0.240778 -7.18252e-20 0.168821)
(0.905549 -0.0635892 -1.31788e-19 -0.304944 -4.38391e-21 0.239251)
(1.24301 0.00364414 -9.36125e-20 -0.224977 6.79451e-20 0.406211)
(0.352605 -0.0671588 -3.29894e-19 -0.315156 -5.12372e-20 0.014022)
(0.639358 -0.0812603 7.99771e-21 -0.245672 1.32984e-19 0.156509)
(0.84826 -0.0574355 3.69646e-20 -0.302262 -2.38608e-19 0.217423)
(1.14144 0.00921238 4.82591e-19 -0.233368 1.51683e-20 0.362244)
(0.364067 -0.0679858 -5.21902e-20 -0.307437 2.37516e-20 0.0217065)
(0.610292 -0.0768986 -1.47571e-19 -0.248371 -1.54617e-20 0.143816)
(0.790072 -0.0511631 -2.19628e-19 -0.297875 3.67473e-20 0.195918)
(1.04215 0.0145598 -2.84559e-19 -0.239206 -1.39853e-20 0.320211)
(0.369278 -0.0684456 -2.93223e-19 -0.298533 5.82385e-21 0.0273645)
(0.578246 -0.0722974 4.13325e-19 -0.249014 -4.13202e-20 0.130754)
(0.731229 -0.0448393 5.3074e-19 -0.291943 7.4872e-20 0.174769)
(0.945504 0.0196613 -2.78356e-19 -0.242632 -3.42286e-20 0.280197)
(0.368354 -0.068575 1.07157e-19 -0.288605 4.10844e-21 0.0309784)
(0.543399 -0.0675251 -1.94121e-19 -0.247744 4.12812e-20 0.117336)
(0.671961 -0.0385254 -2.38284e-19 -0.284625 -8.38869e-21 0.154003)
(0.851791 0.0245005 2.33041e-20 -0.243793 -1.36307e-20 0.242264)
(0.361461 -0.068416 -1.0906e-19 -0.277798 7.12215e-20 0.032556)
(0.505936 -0.0626494 4.16819e-19 -0.2447 -2.71021e-19 0.103582)
(0.612471 -0.032277 -2.33329e-19 -0.276068 1.41572e-19 0.133644)
(0.761253 0.0290696 -1.20203e-19 -0.242835 -6.50027e-20 0.206448)
(0.348805 -0.0680166 -4.32276e-19 -0.266241 2.53438e-20 0.0321284)
(0.466043 -0.0577385 -2.0437e-19 -0.240011 8.80669e-20 0.0895127)
(0.552937 -0.0261428 5.41836e-19 -0.266402 9.84677e-20 0.113711)
(0.674069 0.0333692 -5.33598e-19 -0.239898 2.13073e-20 0.172764)
(0.330637 -0.0674327 -1.05468e-19 -0.254037 -6.6555e-20 0.0297547)
(0.423901 -0.0528642 1.55589e-19 -0.233787 1.87132e-19 0.0751575)
(0.49351 -0.0201624 -1.45569e-19 -0.255733 -5.36457e-21 0.0942205)
(0.590364 0.0374109 -2.25107e-19 -0.235107 -2.81569e-20 0.141212)
(0.307246 -0.0667325 6.67461e-19 -0.241259 -1.74288e-20 0.0255205)
(0.379656 -0.0481083 -3.49661e-19 -0.226118 -3.68926e-20 0.0605391)
(0.434277 -0.0143613 5.68792e-19 -0.244138 1.28655e-19 0.0751777)
(0.510204 0.0412204 3.20855e-19 -0.228566 -9.22422e-20 0.111777)
(0.279006 -0.0660143 6.55102e-21 -0.227925 -5.72138e-20 0.0195691)
(0.333448 -0.0435825 -1.51762e-19 -0.217025 -8.93703e-20 0.0457044)
(0.375294 -0.00873376 -4.62021e-20 -0.231619 9.87729e-20 0.056604)
(0.433652 0.0448549 -3.30404e-19 -0.220332 4.222e-20 0.0844622)
(0.246342 -0.0654213 -2.31992e-19 -0.213981 3.89672e-20 0.0120913)
(0.285188 -0.0394493 1.50967e-19 -0.206504 1.13195e-19 0.0306191)
(0.316364 -0.00322454 -2.20075e-20 -0.218145 -2.15562e-19 0.0384323)
(0.360735 0.0484167 2.68365e-19 -0.2104 -2.19179e-20 0.0592791)
(0.210099 -0.065236 3.6268e-19 -0.19917 2.37754e-20 0.00352829)
(0.234872 -0.0360034 -3.55828e-19 -0.19426 1.83497e-19 0.0154003)
(0.257346 0.00234962 -3.41206e-19 -0.20339 7.25118e-20 0.0207377)
(0.291793 0.0521478 -1.45774e-19 -0.198566 3.18588e-22 0.0364464)
(0.171049 -0.0658347 -2.86413e-19 -0.183036 1.38953e-20 -0.0056295)
(0.181097 -0.0336305 2.77115e-19 -0.18031 -1.04122e-19 -0.00052094)
(0.196665 0.00825078 5.62523e-19 -0.187328 1.29119e-19 0.00289892)
(0.227029 0.0563813 -1.0434e-19 -0.184416 -2.4167e-20 0.0162098)
(0.132286 -0.0679361 1.08541e-19 -0.164328 -7.48599e-20 -0.0136437)
(0.124283 -0.0328726 4.00424e-19 -0.16368 -7.23091e-20 -0.0165866)
(0.134506 0.0148834 -1.17145e-19 -0.168946 1.08837e-19 -0.014604)
(0.168786 0.0617961 3.00385e-19 -0.166763 -6.39736e-20 -1.7804e-05)
(0.0932252 -0.0705798 -1.70707e-19 -0.143057 7.62091e-20 -0.0207527)
(0.0571216 -0.0329044 3.06217e-19 -0.149549 1.33444e-19 -0.0377922)
(0.0632859 0.0212278 -2.71623e-20 -0.153368 -1.30379e-19 -0.036854)
(0.115833 0.0673397 -2.4822e-19 -0.145552 1.19212e-19 -0.0127077)
(0.0647179 -0.0698703 4.52508e-19 -0.12429 -6.92863e-21 -0.0246426)
(-0.00374407 -0.0309335 -6.04906e-19 -0.145646 2.76394e-19 -0.060572)
(-0.000787729 0.0243699 -1.13537e-19 -0.148495 3.1297e-20 -0.060529)
(0.0776501 0.0689316 -7.908e-19 -0.126262 -9.96761e-20 -0.0202587)
(0.00535575 -0.0467319 -1.84656e-19 -0.159615 -4.62293e-20 -0.0625146)
(-0.0844309 -0.0194793 9.6099e-20 -0.227234 8.85087e-20 -0.125481)
(-0.0834877 0.0176886 -2.3201e-19 -0.230556 6.7426e-20 -0.126432)
(0.0128759 0.0467469 3.34537e-19 -0.161709 3.62929e-20 -0.0603442)
)
;

boundaryField
{
    plateFix
    {
        type            calculated;
        value           nonuniform List<symmTensor> 4((3.01706 0.448755 -1.3436e-21 1.27366 8.05246e-20 1.71462) (1.24706 0.0653958 1.19676e-24 0.693242 5.35491e-23 0.77504) (0.370139 0.0191971 4.75423e-23 0.335284 -5.63653e-23 0.281102) (-1.29459 0.319831 -1.37325e-21 -0.277046 -1.05493e-19 -0.63022));
    }
    plate
    {
        type            calculated;
        value           nonuniform List<symmTensor> 
168
(
(2.42017 0.000340791 -2.75538e-22 0.397884 5.85858e-21 1.1256)
(-0.831717 -8.36924e-05 -4.00008e-22 0.42344 5.98612e-22 -0.164861)
(2.46969 0.000455677 1.90529e-21 0.398667 -1.05293e-22 1.1457)
(-0.86212 -0.000225507 1.61245e-21 0.42422 3.57793e-21 -0.176731)
(2.52309 0.000905775 -3.31448e-21 0.399524 2.34621e-21 1.16736)
(-0.891822 -0.000696171 -5.14474e-21 0.425076 -6.4419e-22 -0.188303)
(2.51612 0.00161567 7.65278e-22 0.40031 3.32438e-20 1.16487)
(-0.874121 -0.00141892 4.38454e-21 0.425866 -5.55982e-21 -0.180922)
(2.4909 0.00253455 -1.14612e-22 0.400947 -3.48964e-20 1.15503)
(-0.840398 -0.00233903 1.09969e-21 0.426508 7.98452e-21 -0.167187)
(2.44493 0.00360209 2.63438e-21 0.401364 1.01734e-20 1.13681)
(-0.788992 -0.00340085 -1.80765e-21 0.426933 -2.22051e-20 -0.14646)
(2.38803 0.00476363 -4.1002e-21 0.401526 4.07522e-21 1.11411)
(-0.72737 -0.00455109 2.29547e-21 0.427104 1.51829e-20 -0.121747)
(2.32212 0.00597038 2.96484e-21 0.40142 -5.47013e-21 1.0877)
(-0.657203 -0.00574279 -2.93421e-21 0.42701 1.50785e-24 -0.0937197)
(2.24973 0.00718496 -4.22527e-21 0.401044 2.55965e-22 1.0586)
(-0.580555 -0.0069395 2.36125e-21 0.426648 -4.63804e-21 -0.0632067)
(2.17167 0.00838001 2.16691e-21 0.400399 3.30225e-21 1.02712)
(-0.498164 -0.00811451 3.06749e-21 0.426019 7.20748e-21 -0.0305022)
(2.08846 0.00953741 2.35531e-21 0.399489 -5.28345e-21 0.993478)
(-0.410495 -0.00925003 -4.88002e-21 0.425127 -3.1419e-22 0.00420929)
(2.00022 0.0106465 -2.41298e-21 0.398312 -1.87716e-20 0.957716)
(-0.31765 -0.0103355 -1.98752e-21 0.423972 3.59126e-21 0.0408871)
(1.90696 0.011702 4.63416e-21 0.396863 1.26884e-20 0.919839)
(-0.219613 -0.0113659 8.10626e-21 0.42255 -3.14267e-21 0.0795358)
(1.80862 0.0127022 -5.62967e-21 0.39513 2.34243e-21 0.879819)
(-0.116281 -0.0123395 -2.01201e-21 0.420849 6.22529e-21 0.120192)
(1.70516 0.0136469 1.57881e-21 0.393095 3.52743e-21 0.837629)
(-0.00754822 -0.0132562 6.73624e-21 0.418852 -1.06049e-20 0.162891)
(1.59653 0.014536 3.10142e-21 0.390731 -3.99527e-21 0.793246)
(0.10668 -0.0141161 1.82964e-22 0.416537 9.15876e-21 0.207662)
(1.48277 0.0153681 -2.95928e-21 0.388012 1.24172e-20 0.746664)
(0.226449 -0.0149181 -4.03392e-21 0.413877 2.74995e-22 0.254511)
(1.36391 0.0161391 2.27075e-20 0.384904 -1.4846e-21 0.69789)
(0.351746 -0.0156589 -4.22691e-21 0.410845 -4.6019e-21 0.303423)
(1.2401 0.0168449 -7.99319e-21 0.381384 1.1413e-21 0.646971)
(0.482469 -0.0163352 -2.84001e-22 0.40742 2.63306e-21 0.354349)
(1.11147 0.0174722 -2.92711e-20 0.377413 -7.69945e-21 0.593944)
(0.61843 -0.0169356 4.20565e-21 0.403569 2.38966e-23 0.407199)
(0.978496 0.0180312 3.92975e-20 0.373033 8.55796e-21 0.539015)
(0.759261 -0.0174724 9.28639e-21 0.39934 7.16002e-21 0.461846)
(0.841088 0.0184678 1.08257e-20 0.368099 -2.68862e-21 0.482092)
(0.904672 -0.0178963 1.60901e-20 0.394595 -1.14815e-21 0.518119)
(0.695775 0.0190107 1.15812e-21 0.36291 1.20305e-20 0.421906)
(1.05902 -0.0184327 9.34248e-21 0.389637 -5.08916e-21 0.577882)
(0.54784 0.0196064 -5.29484e-20 0.356859 -7.27074e-21 0.360327)
(1.2159 -0.0190312 -7.83923e-20 0.383899 4.90797e-21 0.638347)
(0.407194 0.0201389 -2.614e-21 0.351126 -4.401e-21 0.30179)
(1.36558 -0.0195875 7.74076e-20 0.378514 1.78147e-23 0.696067)
(0.273713 0.0207356 5.51672e-21 0.345318 -2.00938e-22 0.246088)
(1.50758 -0.0202268 -2.27669e-20 0.373109 2.06223e-21 0.750712)
(0.147596 0.0213856 3.33189e-20 0.339745 5.74269e-21 0.193425)
(1.64218 -0.0209431 -6.52232e-20 0.367985 -1.82968e-21 0.802509)
(0.0288652 0.0221548 -5.23507e-20 0.334262 -5.54938e-21 0.143752)
(1.76922 -0.0218036 4.53233e-20 0.363 5.89436e-21 0.851332)
(-0.0822523 0.0230526 6.7856e-20 0.328952 1.95312e-22 0.0971934)
(1.88874 -0.0228209 7.78616e-20 0.358233 -7.57896e-21 0.897239)
(-0.185616 0.0241135 -6.78527e-20 0.32373 1.05216e-21 0.053771)
(2.00069 -0.0240313 3.33965e-20 0.353592 5.77848e-21 0.940166)
(-0.280996 0.0253475 1.14948e-20 0.318559 3.99813e-21 0.0135616)
(2.10507 -0.0254471 6.47841e-21 0.349032 -4.4251e-21 0.980098)
(-0.368188 0.0267664 -4.19415e-20 0.313325 -5.69717e-23 -0.0233971)
(2.20184 -0.0270812 -1.80251e-20 0.34443 -1.02087e-22 1.01697)
(-0.446953 0.0283667 -1.33984e-19 0.307909 6.32722e-22 -0.0570588)
(2.29098 -0.0289313 9.72293e-20 0.339649 6.36157e-22 1.05072)
(-0.517068 0.0301372 7.94107e-20 0.302144 -7.26302e-23 -0.0873994)
(2.37245 -0.0309866 -6.242e-20 0.33451 -5.51208e-22 1.08126)
(-0.578312 0.0320534 -1.10704e-19 0.295848 2.39808e-21 -0.114404)
(2.44621 -0.0332221 -2.82296e-20 0.328806 2.64909e-21 1.10848)
(-0.630491 0.0340796 1.52502e-19 0.288809 -4.95405e-21 -0.13808)
(2.5122 -0.0356007 2.15903e-20 0.322305 -6.74082e-22 1.13229)
(-0.673443 0.0361677 -8.33968e-20 0.280807 -4.5777e-22 -0.158449)
(2.57036 -0.0380722 -4.42866e-20 0.314758 -4.62011e-21 1.15254)
(-0.707053 0.0382589 -5.92344e-20 0.271611 2.88776e-21 -0.175559)
(2.62062 -0.0405746 1.25153e-19 0.305911 3.12434e-21 1.16911)
(-0.731269 0.0402847 5.13202e-20 0.261001 -4.49176e-22 -0.189476)
(2.6629 -0.0430352 4.56348e-20 0.295513 -3.61048e-21 1.18187)
(-0.746106 0.0421696 9.94839e-20 0.248774 3.31384e-22 -0.200288)
(2.69713 -0.0453736 -2.09631e-19 0.283333 8.07374e-22 1.1907)
(-0.751664 0.0438333 -3.99331e-20 0.234754 2.48619e-23 -0.208105)
(2.72323 -0.0475039 -1.20296e-19 0.269172 3.645e-22 1.19549)
(-0.748131 0.0451943 -1.99601e-19 0.218811 2.23586e-21 -0.213053)
(2.74113 -0.0493382 1.42458e-19 0.252873 3.98039e-22 1.19614)
(-0.735791 0.0461732 2.60853e-19 0.200865 -1.49864e-21 -0.21528)
(2.75079 -0.0507903 -1.05974e-19 0.234338 -1.91727e-22 1.1926)
(-0.715028 0.0466962 2.5789e-19 0.180896 2.54085e-21 -0.214946)
(2.75217 -0.0517794 1.01441e-19 0.213533 1.90327e-21 1.18484)
(-0.686324 0.0466982 1.43717e-19 0.158953 -2.54366e-21 -0.212225)
(2.74527 -0.0522333 -1.29641e-19 0.190497 1.62512e-21 1.17288)
(-0.650257 0.0461261 -5.24774e-20 0.135152 1.04345e-21 -0.207301)
(2.73014 -0.0520917 -1.45962e-19 0.165346 -1.74408e-22 1.15679)
(-0.607494 0.0449407 3.776e-19 0.109678 -1.61984e-21 -0.200368)
(2.70686 -0.0513088 4.50461e-19 0.13827 -1.39811e-22 1.13666)
(-0.558785 0.043119 -1.87473e-21 0.0827799 -9.25803e-22 -0.191626)
(2.67557 -0.0498552 -3.49937e-19 0.10953 3.61692e-21 1.11267)
(-0.504948 0.0406551 8.54676e-20 0.0547632 2.6454e-22 -0.18128)
(2.63646 -0.0477192 -2.89393e-20 0.0794532 2.02987e-23 1.08501)
(-0.446856 0.0375603 -2.03718e-20 0.0259796 2.8951e-22 -0.169539)
(2.58978 -0.044907 -1.81407e-19 0.0484161 1.8305e-22 1.05394)
(-0.385423 0.0338629 -2.01148e-20 -0.00318593 1.23373e-23 -0.156615)
(2.53584 -0.0414428 1.09676e-20 0.0168362 -6.53782e-21 1.01975)
(-0.321587 0.029607 -2.7836e-20 -0.0323292 -1.54461e-23 -0.142721)
(2.47502 -0.0373674 1.02607e-19 -0.0148457 -6.56803e-21 0.982773)
(-0.256291 0.0248506 3.37052e-19 -0.0610415 -9.99909e-22 -0.128072)
(2.40775 -0.0327365 1.08176e-19 -0.0461815 -1.71144e-22 0.943351)
(-0.19047 0.0196636 -1.17151e-20 -0.0889248 1.53272e-21 -0.112881)
(2.33451 -0.0276189 -3.90299e-19 -0.0767316 6.88841e-21 0.901856)
(-0.125032 0.0141248 8.74998e-20 -0.115605 -2.10503e-21 -0.097363)
(2.25583 -0.022093 1.86626e-19 -0.10608 -2.77219e-22 0.858667)
(-0.0608451 0.00831917 -3.10716e-19 -0.140744 1.85431e-22 -0.0817292)
(2.17229 -0.0162446 3.25783e-19 -0.13385 -4.77978e-22 0.814165)
(0.00127678 0.00233484 -7.99644e-20 -0.164048 1.44893e-21 -0.0661884)
(2.08449 -0.0101635 -2.14849e-19 -0.159709 3.44405e-22 0.768721)
(0.0605832 -0.00373982 5.38354e-20 -0.185279 9.74717e-22 -0.0509447)
(1.99305 -0.00394034 -4.8056e-20 -0.183385 2.68606e-22 0.722698)
(0.116397 -0.00981897 -3.34409e-19 -0.204252 1.35343e-22 -0.0361954)