/*--------------------------------*- C++ -*----------------------------------*\
| =========                 |                                                 |
| \\      /  F ield         | OpenFOAM Extend Project: Open source CFD        |
|  \\    /   O peration     | Version:  1.6-ext                               |
|   \\  /    A nd           | Web:      www.extend-project.de                 |
|    \\/     M anipulation  |                                                 |
\*---------------------------------------------------------------------------*/
FoamFile
{
    version     2.0;
    format      ascii;
    class       volScalarField;
    location    "0.5";
    object      sigmaEq;
}
// * * * * * * * * * * * * * * * * * * * * * * * * * * * * * * * * * * * * * //

dimensions      [1 -1 -2 0 0 0 0];

internalField   nonuniform List<scalar> 
328
(
1.69834
0.589607
0.168263
1.01359
1.74339
0.771508
0.306314
1.043
1.79497
0.908092
0.411798
1.07567
1.79953
0.978077
0.474723
1.07134
1.7852
1.01245
0.506419
1.05
1.75095
1.02035
0.519482
1.01141
1.70553
1.01362
0.52111
0.962303
1.6516
0.997634
0.516604
0.904958
1.59186
0.976596
0.508957
0.841616
1.5274
0.952553
0.500165
0.773275
1.45883
0.926755
0.491418
0.700583
1.38635
0.89976
0.483581
0.623874
1.31002
0.871818
0.477311
0.543458
1.22983
0.842988
0.473199
0.459804
1.14576
0.813246
0.471792
0.373941
1.05784
0.782537
0.473614
0.288427
0.966152
0.750802
0.479144
0.210547
0.870826
0.717994
0.488785
0.162135
0.772124
0.684096
0.502845
0.179576
0.670395
0.649093
0.521489
0.255844
0.566374
0.61306
0.544736
0.359214
0.460816
0.575893
0.57238
0.475444
0.35228
0.535401
0.604607
0.60303
0.251516
0.496753
0.642984
0.735805
0.177707
0.46033
0.68207
0.863496
0.158189
0.425848
0.721085
0.985461
0.199331
0.393198
0.759531
1.10145
0.268421
0.362356
0.797031
1.21128
0.344125
0.333295
0.833333
1.31485
0.418799
0.306002
0.868283
1.41213
0.489469
0.280452
0.901811
1.50313
0.55469
0.256619
0.933917
1.5879
0.61358
0.23447
0.964662
1.66653
0.665496
0.213983
0.994155
1.73912
0.70991
0.195177
1.02254
1.8058
0.746364
0.178173
1.04999
1.86673
0.774455
0.163288
1.07667
1.92205
0.793843
0.151164
1.10276
1.97192
0.804256
0.142868
1.12841
2.01648
0.805511
0.139863
1.15374
2.05584
0.797527
0.143644
1.17882
2.09011
0.780338
0.155146
1.20364
2.11935
0.754111
0.174373
1.22817
2.14357
0.719153
0.20058
1.25225
2.16278
0.675916
0.23271
1.2757
2.17691
0.625001
0.269682
1.29823
2.18589
0.567151
0.310492
1.31952
2.18961
0.503248
0.354202
1.33917
2.18795
0.434312
0.399919
1.35676
2.18078
0.361504
0.44677
1.37186
2.16798
0.286182
0.493895
1.38401
2.14945
0.210112
0.540451
1.39279
2.12513
0.13645
0.585624
1.3978
2.09499
0.0760455
0.628638
1.39868
2.05908
0.0734414
0.668777
1.39513
2.0175
0.128641
0.705391
1.38695
1.97039
0.194386
0.737917
1.37398
1.91801
0.259253
0.76588
1.35617
1.86065
0.320378
0.788903
1.33353
1.79867
0.376493
0.806706
1.30616
1.7325
0.426839
0.819107
1.27422
1.6626
0.470916
0.826014
1.23796
1.58948
0.508393
0.827422
1.19765
1.51367
0.539071
0.823398
1.15362
1.43571
0.562864
0.814075
1.10623
1.35613
0.579779
0.799639
1.05585
1.27548
0.589899
0.780317
1.00288
1.19426
0.593378
0.75637
0.947677
1.11295
0.590421
0.728077
0.890622
1.03198
0.581277
0.695729
0.832057
0.951756
0.566231
0.659619
0.772299
0.872619
0.545595
0.62003
0.711626
0.794863
0.519709
0.57723
0.650271
0.718732
0.488936
0.53144
0.588387
0.644419
0.453699
0.482826
0.52604
0.572102
0.414463
0.431353
0.463055
0.501928
0.372017
0.376867
0.399079
0.434281
0.327162
0.318363
0.33286
0.369497
0.282554
0.255819
0.264072
0.309681
0.238399
0.188026
0.191372
0.254657
0.20363
0.134805
0.13544
0.213205
0.164853
0.131735
0.134522
0.172086
)
;

boundaryField
{
    plateFix
    {
        type            calculated;
        value           nonuniform List<scalar> 4(1.75193 0.530037 0.0845264 1.05244);
    }
    plate
    {
        type            calculated;
        value           nonuniform List<scalar> 
168
(
1.77414
1.08771
1.81661
1.1148
1.86241
1.14136
1.85568
1.12665
1.83319
1.0979
1.79281
1.05361
1.74313
1.00024
1.68583
0.939252
1.62313
0.872454
1.55573
0.800509
1.48408
0.723854
1.40828
0.642631
1.32837
0.55691
1.24429
0.466763
1.15603
0.372449
1.06361
0.274802
0.967057
0.176988
0.866477
0.0970528
0.762051
0.115032
0.653988
0.215079
0.542784
0.334468
0.428741
0.461943
0.309396
0.598767
0.192293
0.739162
0.0977784
0.873407
0.0956995
1.00123
0.177729
1.12251
0.269912
1.23719
0.359298
1.34521
0.443343
1.44658
0.521109
1.54132
0.592039
1.62951
0.655691
1.71122
0.711659
1.78659
0.759552
1.85572
0.798995
1.91878
0.82964
1.97592
0.85118
2.02728
0.863367
2.07301
0.866034
2.11322
0.859107
2.14802
0.842629
2.17747
0.816769
2.20161
0.781837
2.22044
0.738282
2.23391
0.686701
2.24197
0.627827
2.24453
0.562524
2.24148
0.491768
2.23272
0.416636
2.21816
0.338289
2.19773
0.257981
2.17139
0.177145
2.13914
0.0980443
2.10105
0.0345274
2.05723
0.0732047
2.00787
0.144037
1.95324
0.213326
1.89364
0.278317
1.82946
0.337987
1.76115
0.391695
1.68917
0.438988
1.61405
0.479558
1.53634
0.513213
1.45657
0.539866
1.3753
0.559519
1.29308
0.572255
1.21041
0.578221
1.12778
0.577624
1.04563
0.570714
0.964375
0.557782
0.884355
0.539151
0.805877
0.515174
0.729196
0.486238
0.654521
0.452797
0.582057
0.415346
0.511979
0.374711
0.444711
0.331656
0.380558
0.288796
0.321577
0.246596
0.267689
0.218822
0.232235
0.198243
0.133897
0.125921
0.12936
0.140823
0.20817
)
;
    }
    frontAndBackPlanes
    {
        type            empty;
    }
}


// ************************************************************************* //
