/*--------------------------------*- C++ -*----------------------------------*\
| =========                 |                                                 |
| \\      /  F ield         | OpenFOAM Extend Project: Open source CFD        |
|  \\    /   O peration     | Version:  1.6-ext                               |
|   \\  /    A nd           | Web:      www.extend-project.de                 |
|    \\/     M anipulation  |                                                 |
\*---------------------------------------------------------------------------*/
FoamFile
{
    version     2.0;
    format      ascii;
    class       volVectorField;
    location    "0.5";
    object      Usolid;
}
// * * * * * * * * * * * * * * * * * * * * * * * * * * * * * * * * * * * * * //

dimensions      [0 1 0 0 0 0 0];

internalField   nonuniform List<vector> 
328
(
(6.51258e-08 8.81443e-08 0)
(2.35466e-08 9.91294e-09 0)
(4.41824e-09 4.43749e-09 0)
(-3.3118e-08 6.18343e-08 0)
(1.99313e-07 2.41172e-07 0)
(7.74692e-08 5.8657e-08 0)
(1.06705e-08 4.26128e-08 0)
(-1.00997e-07 1.73633e-07 0)
(3.50654e-07 3.8611e-07 0)
(1.46539e-07 1.39692e-07 0)
(1.17394e-08 1.13623e-07 0)
(-1.78664e-07 2.88006e-07 0)
(5.12692e-07 5.34462e-07 0)
(2.2417e-07 2.53466e-07 0)
(1.21407e-08 2.18748e-07 0)
(-2.60893e-07 4.14889e-07 0)
(6.85753e-07 6.97759e-07 0)
(3.10607e-07 4.01107e-07 0)
(1.22609e-08 3.59417e-07 0)
(-3.47418e-07 5.63479e-07 0)
(8.68035e-07 8.85763e-07 0)
(4.03749e-07 5.85549e-07 0)
(1.37119e-08 5.38634e-07 0)
(-4.3638e-07 7.41687e-07 0)
(1.05903e-06 1.10726e-06 0)
(5.03182e-07 8.10736e-07 0)
(1.71001e-08 7.60163e-07 0)
(-5.2679e-07 9.56784e-07 0)
(1.25798e-06 1.37021e-06 0)
(6.08205e-07 1.0817e-06 0)
(2.31879e-08 1.02877e-06 0)
(-6.17415e-07 1.21563e-06 0)
(1.46437e-06 1.68227e-06 0)
(7.18583e-07 1.40429e-06 0)
(3.25222e-08 1.34995e-06 0)
(-7.07115e-07 1.52501e-06 0)
(1.67757e-06 2.05098e-06 0)
(8.341e-07 1.78506e-06 0)
(4.57169e-08 1.72996e-06 0)
(-7.946e-07 1.89185e-06 0)
(1.89689e-06 2.48399e-06 0)
(9.54671e-07 2.23114e-06 0)
(6.34188e-08 2.17565e-06 0)
(-8.78441e-07 2.32334e-06 0)
(2.12149e-06 2.98918e-06 0)
(1.08023e-06 2.75016e-06 0)
(8.63893e-08 2.69442e-06 0)
(-9.56983e-07 2.827e-06 0)
(2.35031e-06 3.57459e-06 0)
(1.21071e-06 3.35007e-06 0)
(1.15515e-07 3.29405e-06 0)
(-1.02831e-06 3.41066e-06 0)
(2.58208e-06 4.24842e-06 0)
(1.34604e-06 4.03904e-06 0)
(1.51837e-07 3.9826e-06 0)
(-1.09019e-06 4.08235e-06 0)
(2.81528e-06 5.01884e-06 0)
(1.48609e-06 4.82523e-06 0)
(1.96564e-07 4.76817e-06 0)
(-1.14003e-06 4.85016e-06 0)
(3.04805e-06 5.89374e-06 0)
(1.63071e-06 5.71654e-06 0)
(2.51089e-07 5.65863e-06 0)
(-1.17483e-06 5.72192e-06 0)
(3.27825e-06 6.8804e-06 0)
(1.77964e-06 6.72026e-06 0)
(3.17004e-07 6.66128e-06 0)
(-1.19112e-06 6.70489e-06 0)
(3.50332e-06 7.98503e-06 0)
(1.93255e-06 7.8426e-06 0)
(3.96117e-07 7.7823e-06 0)
(-1.18496e-06 7.80527e-06 0)
(3.72034e-06 9.21216e-06 0)
(2.08904e-06 9.08807e-06 0)
(4.9047e-07 9.02624e-06 0)
(-1.15182e-06 9.02759e-06 0)
(3.92597e-06 1.05639e-05 0)
(2.2486e-06 1.04587e-05 0)
(6.02356e-07 1.03952e-05 0)
(-1.0866e-06 1.03739e-05 0)
(4.11634e-06 1.20388e-05 0)
(2.41061e-06 1.19531e-05 0)
(7.34335e-07 1.18877e-05 0)
(-9.83544e-07 1.1843e-05 0)
(4.28724e-06 1.3631e-05 0)
(2.57438e-06 1.35653e-05 0)
(8.89237e-07 1.34977e-05 0)
(-8.36303e-07 1.34288e-05 0)
(4.43925e-06 1.53928e-05 0)
(2.74534e-06 1.53483e-05 0)
(1.07711e-06 1.52783e-05 0)
(-6.30075e-07 1.51835e-05 0)
(4.55767e-06 1.72353e-05 0)
(2.91513e-06 1.72122e-05 0)
(1.29637e-06 1.71398e-05 0)
(-3.60115e-07 1.70185e-05 0)
(4.63389e-06 1.9004e-05 0)
(3.07248e-06 1.90013e-05 0)
(1.53299e-06 1.89263e-05 0)
(-4.30502e-08 1.87798e-05 0)
(4.67008e-06 2.06698e-05 0)
(3.21811e-06 2.06863e-05 0)
(1.78614e-06 2.06089e-05 0)
(3.1877e-07 2.04384e-05 0)
(4.66843e-06 2.22051e-05 0)
(3.35271e-06 2.22396e-05 0)
(2.05504e-06 2.21598e-05 0)
(7.2311e-07 2.19666e-05 0)
(4.63109e-06 2.35836e-05 0)
(3.47697e-06 2.3635e-05 0)
(2.3389e-06 2.35529e-05 0)
(1.16766e-06 2.33382e-05 0)
(4.5603e-06 2.47807e-05 0)
(3.59163e-06 2.48479e-05 0)
(2.63692e-06 2.47635e-05 0)
(1.65014e-06 2.45286e-05 0)
(4.45834e-06 2.57732e-05 0)
(3.69742e-06 2.5855e-05 0)
(2.94834e-06 2.57684e-05 0)
(2.16823e-06 2.55144e-05 0)
(4.32754e-06 2.65396e-05 0)
(3.79515e-06 2.66347e-05 0)
(3.2724e-06 2.65458e-05 0)
(2.71964e-06 2.62739e-05 0)
(4.17032e-06 2.70597e-05 0)
(3.88566e-06 2.71668e-05 0)
(3.60836e-06 2.70755e-05 0)
(3.30208e-06 2.6787e-05 0)
(3.98919e-06 2.73153e-05 0)
(3.96985e-06 2.74329e-05 0)
(3.95554e-06 2.73391e-05 0)
(3.91327e-06 2.70351e-05 0)
(3.78674e-06 2.72893e-05 0)
(4.04869e-06 2.74161e-05 0)
(4.31329e-06 2.73196e-05 0)
(4.55095e-06 2.7001e-05 0)
(3.56569e-06 2.69666e-05 0)
(4.12321e-06 2.71009e-05 0)
(4.681e-06 2.70014e-05 0)
(5.2129e-06 2.66694e-05 0)
(3.32883e-06 2.63338e-05 0)
(4.19454e-06 2.64739e-05 0)
(5.05811e-06 2.63711e-05 0)
(5.8969e-06 2.60265e-05 0)
(3.07906e-06 2.5379e-05 0)
(4.26385e-06 2.55231e-05 0)
(5.44413e-06 2.54165e-05 0)
(6.60078e-06 2.50602e-05 0)
(2.81936e-06 2.4092e-05 0)
(4.3324e-06 2.42384e-05 0)
(5.83858e-06 2.41275e-05 0)
(7.32239e-06 2.37603e-05 0)
(2.55279e-06 2.24647e-05 0)
(4.40149e-06 2.26113e-05 0)
(6.24106e-06 2.24955e-05 0)
(8.0596e-06 2.21182e-05 0)
(2.28246e-06 2.04902e-05 0)
(4.47245e-06 2.06351e-05 0)
(6.65118e-06 2.05138e-05 0)
(8.81033e-06 2.01271e-05 0)
(2.01147e-06 1.81639e-05 0)
(4.54667e-06 1.8305e-05 0)
(7.06859e-06 1.81776e-05 0)
(9.5725e-06 1.77821e-05 0)
(1.74296e-06 1.54826e-05 0)
(4.6255e-06 1.56179e-05 0)
(7.49292e-06 1.54836e-05 0)
(1.0344e-05 1.50801e-05 0)
(1.47997e-06 1.24451e-05 0)
(4.71028e-06 1.25725e-05 0)
(7.92382e-06 1.24307e-05 0)
(1.11229e-05 1.20196e-05 0)
(1.22549e-06 9.05161e-06 0)
(4.8023e-06 9.16929e-06 0)
(8.3609e-06 9.01931e-06 0)
(1.1907e-05 8.60126e-06 0)
(9.82366e-07 5.30436e-06 0)
(4.90276e-06 5.41043e-06 0)
(8.80375e-06 5.25165e-06 0)
(1.26944e-05 4.8273e-06 0)
(7.53261e-07 1.20705e-06 0)
(5.01273e-06 1.2998e-06 0)
(9.25187e-06 1.1317e-06 0)
(1.34829e-05 7.01728e-07 0)
(5.40631e-07 -3.235e-06 0)
(5.13317e-06 -3.15711e-06 0)
(9.70471e-06 -3.33494e-06 0)
(1.42704e-05 -3.76981e-06 0)
(3.46676e-07 -8.01495e-06 0)
(5.26485e-06 -7.95325e-06 0)
(1.01616e-05 -8.14109e-06 0)
(1.5055e-05 -8.58006e-06 0)
(1.73307e-07 -1.31245e-05 0)
(5.40836e-06 -1.30801e-05 0)
(1.06219e-05 -1.32781e-05 0)
(1.58344e-05 -1.37203e-05 0)
(2.21143e-08 -1.85542e-05 0)
(5.56405e-06 -1.85279e-05 0)
(1.10846e-05 -1.87359e-05 0)
(1.66067e-05 -1.91804e-05 0)
(-1.05651e-07 -2.4293e-05 0)
(5.7321e-06 -2.42855e-05 0)
(1.15489e-05 -2.45034e-05 0)
(1.73697e-05 -2.49491e-05 0)
(-2.09093e-07 -3.03292e-05 0)
(5.91243e-06 -3.03406e-05 0)
(1.20137e-05 -3.0568e-05 0)
(1.81213e-05 -3.10138e-05 0)
(-2.87681e-07 -3.66498e-05 0)
(6.10473e-06 -3.66803e-05 0)
(1.24777e-05 -3.69166e-05 0)
(1.88595e-05 -3.73612e-05 0)
(-3.41243e-07 -4.32413e-05 0)
(6.30848e-06 -4.32905e-05 0)
(1.29399e-05 -4.35348e-05 0)
(1.95824e-05 -4.39771e-05 0)
(-3.69961e-07 -5.00891e-05 0)
(6.52295e-06 -5.01565e-05 0)
(1.33989e-05 -5.04081e-05 0)
(2.0288e-05 -5.08466e-05 0)
(-3.74355e-07 -5.71784e-05 0)
(6.7472e-06 -5.72632e-05 0)
(1.38532e-05 -5.75209e-05 0)
(2.09746e-05 -5.79544e-05 0)
(-3.55259e-07 -6.44939e-05 0)
(6.98012e-06 -6.45951e-05 0)
(1.43016e-05 -6.48578e-05 0)
(2.16403e-05 -6.52849e-05 0)
(-3.13791e-07 -7.202e-05 0)
(7.22047e-06 -7.21365e-05 0)
(1.47425e-05 -7.2403e-05 0)
(2.22836e-05 -7.28222e-05 0)
(-2.51329e-07 -7.97413e-05 0)
(7.46687e-06 -7.98716e-05 0)
(1.51747e-05 -8.01405e-05 0)
(2.29031e-05 -8.05506e-05 0)
(-1.69469e-07 -8.7642e-05 0)
(7.71784e-06 -8.77847e-05 0)
(1.55967e-05 -8.80546e-05 0)
(2.34975e-05 -8.84543e-05 0)
(-6.99953e-08 -9.57068e-05 0)
(7.97184e-06 -9.58603e-05 0)
(1.60072e-05 -9.61298e-05 0)
(2.40657e-05 -9.6518e-05 0)
(4.51602e-08 -0.000103921 0)
(8.22728e-06 -0.000104083 0)
(1.64049e-05 -0.000104351 0)
(2.46067e-05 -0.000104726 0)
(1.73949e-07 -0.000112269 0)
(8.48257e-06 -0.000112439 0)
(1.67886e-05 -0.000112703 0)
(2.51198e-05 -0.000113065 0)
(3.14243e-07 -0.000120737 0)
(8.73611e-06 -0.000120913 0)
(1.71574e-05 -0.000121173 0)
(2.56044e-05 -0.00012152 0)
(4.63862e-07 -0.000129312 0)
(8.98632e-06 -0.000129492 0)
(1.75101e-05 -0.000129746 0)
(2.60602e-05 -0.000130078 0)
(6.20605e-07 -0.000137981 0)
(9.23168e-06 -0.000138163 0)
(1.7846e-05 -0.00013841 0)
(2.64869e-05 -0.000138726 0)
(7.82273e-07 -0.000146731 0)
(9.47071e-06 -0.000146914 0)
(1.81642e-05 -0.000147153 0)
(2.68846e-05 -0.000147453 0)
(9.46695e-07 -0.000155552 0)
(9.70202e-06 -0.000155733 0)
(1.84641e-05 -0.000155964 0)
(2.72532e-05 -0.000156247 0)
(1.11174e-06 -0.000164433 0)
(9.92426e-06 -0.000164611 0)
(1.87453e-05 -0.000164832 0)
(2.75932e-05 -0.000165098 0)
(1.27535e-06 -0.000173364 0)
(1.01362e-05 -0.000173538 0)
(1.90071e-05 -0.000173748 0)
(2.79049e-05 -0.000173996 0)
(1.43551e-06 -0.000182336 0)
(1.03367e-05 -0.000182505 0)
(1.92494e-05 -0.000182704 0)
(2.81887e-05 -0.000182934 0)
(1.59032e-06 -0.000191342 0)
(1.05246e-05 -0.000191504 0)
(1.94718e-05 -0.000191691 0)
(2.84453e-05 -0.000191904 0)
(1.73795e-06 -0.000200375 0)
(1.06989e-05 -0.000200529 0)
(1.96742e-05 -0.000200703 0)
(2.86753e-05 -0.000200898 0)
(1.87668e-06 -0.000209428 0)
(1.08587e-05 -0.000209573 0)
(1.98564e-05 -0.000209734 0)
(2.88795e-05 -0.000209912 0)
(2.00489e-06 -0.000218498 0)
(1.10031e-05 -0.000218632 0)
(2.00183e-05 -0.00021878 0)
(2.90586e-05 -0.00021894 0)
(2.12107e-06 -0.000227578 0)
(1.11313e-05 -0.000227702 0)
(2.01598e-05 -0.000227834 0)
(2.92133e-05 -0.000227977 0)
(2.22384e-06 -0.000236666 0)
(1.12423e-05 -0.000236778 0)
(2.02807e-05 -0.000236895 0)
(2.93444e-05 -0.000237021 0)
(2.3121e-06 -0.00024576 0)
(1.13351e-05 -0.000245859 0)
(2.03806e-05 -0.000245959 0)
(2.94528e-05 -0.000246067 0)
(2.38474e-06 -0.000254858 0)
(1.1408e-05 -0.000254942 0)
(2.04584e-05 -0.000255023 0)
(2.95391e-05 -0.000255115 0)
(2.44202e-06 -0.000263958 0)
(1.14598e-05 -0.000264026 0)
(2.05134e-05 -0.000264088 0)
(2.96052e-05 -0.000264161 0)
(2.48249e-06 -0.000273051 0)
(1.14863e-05 -0.000273108 0)
(2.05418e-05 -0.000273154 0)
(2.96511e-05 -0.000273214 0)
(2.51506e-06 -0.000282112 0)
(1.14997e-05 -0.000282176 0)
(2.05561e-05 -0.000282231 0)
(2.96864e-05 -0.000282299 0)
)
;

boundaryField
{
    plateFix
    {
        type            fixedDisplacement;
        value           uniform (0 0 0);
    }
    plate
    {
        type            solidTraction;
        nonLinear       updatedLagrangian;
        traction        uniform (0 0 0);
        pressure        uniform 0;
        value           nonuniform List<vector> 
168
(
(4.69151e-07 2.72924e-07 -8.44987e-26)
(-3.23584e-07 2.0499e-07 -1.09838e-25)
(5.4616e-07 4.30696e-07 1.59558e-25)
(-3.65215e-07 3.19991e-07 -3.26619e-26)
(6.6846e-07 5.80906e-07 2.51951e-26)
(-4.41028e-07 4.37354e-07 1.23895e-25)
(8.26953e-07 7.28482e-07 -3.46926e-26)
(-5.4008e-07 5.62533e-07 4.11468e-26)
(1.01548e-06 8.89215e-07 -4.93769e-26)
(-6.56368e-07 7.07786e-07 -9.06346e-26)
(1.22591e-06 1.07261e-06 5.6491e-26)
(-7.83355e-07 8.80873e-07 1.20842e-26)
(1.45339e-06 1.28844e-06 -1.05825e-25)
(-9.1699e-07 1.0898e-06 2.10917e-26)
(1.69411e-06 1.54487e-06 3.10774e-26)
(-1.05398e-06 1.34158e-06 -5.69598e-26)
(1.94557e-06 1.84979e-06 -5.9321e-26)
(-1.19187e-06 1.64322e-06 9.18653e-26)
(2.20579e-06 2.21084e-06 9.14293e-26)
(-1.3285e-06 2.0017e-06 -7.0622e-26)
(2.47313e-06 2.63572e-06 -6.07367e-26)
(-1.46184e-06 2.42428e-06 1.09571e-26)
(2.74597e-06 3.1323e-06 8.71498e-26)
(-1.58968e-06 2.91847e-06 2.62992e-26)
(3.02258e-06 3.70864e-06 -6.41249e-26)
(-1.70961e-06 3.49211e-06 1.47893e-26)
(3.301e-06 4.37293e-06 1.10781e-27)
(-1.81879e-06 4.15323e-06 -3.65719e-26)
(3.57894e-06 5.13334e-06 8.5454e-27)
(-1.91396e-06 4.90987e-06 8.09751e-27)
(3.8537e-06 5.99775e-06 8.35552e-27)
(-1.9913e-06 5.76988e-06 -1.40648e-26)
(4.12217e-06 6.97346e-06 2.47872e-26)
(-2.04642e-06 6.74051e-06 2.15403e-26)
(4.38071e-06 8.06669e-06 -1.59374e-26)
(-2.07425e-06 7.82794e-06 -6.21774e-26)
(4.62514e-06 9.28198e-06 -1.36367e-26)
(-2.06904e-06 9.03672e-06 4.84522e-26)
(4.85069e-06 1.06214e-05 1.44741e-26)
(-2.02423e-06 1.0369e-05 -4.94254e-28)
(5.05189e-06 1.20837e-05 -1.46642e-26)
(-1.93249e-06 1.18234e-05 2.63086e-26)
(5.22271e-06 1.36629e-05 1.28995e-26)
(-1.7856e-06 1.3394e-05 1.90348e-27)
(5.36068e-06 1.54109e-05 -1.13508e-26)
(-1.56591e-06 1.51326e-05 -1.75636e-26)
(5.44956e-06 1.72395e-05 2.26804e-26)
(-1.26706e-06 1.69511e-05 3.72546e-26)
(5.48141e-06 1.89949e-05 -2.88341e-26)
(-9.06267e-07 1.86968e-05 -4.8163e-26)
(5.45903e-06 2.06483e-05 3.1783e-26)
(-4.86579e-07 2.03404e-05 2.10481e-26)
(5.38532e-06 2.21717e-05 2.23159e-26)
(-1.09664e-08 2.18545e-05 -3.98288e-26)
(5.26319e-06 2.35391e-05 -2.97487e-26)
(5.17497e-07 2.32128e-05 6.80759e-26)
(5.09561e-06 2.47258e-05 -1.57812e-27)
(1.09578e-06 2.43906e-05 -5.0874e-26)
(4.88561e-06 2.57088e-05 -8.3344e-28)
(1.7208e-06 2.53646e-05 -2.81047e-27)
(4.63629e-06 2.64663e-05 5.09858e-28)
(2.38951e-06 2.61131e-05 2.7534e-26)
(4.35085e-06 2.69785e-05 -1.69788e-27)
(3.09883e-06 2.6616e-05 -1.97534e-27)
(4.03261e-06 2.72269e-05 -1.16444e-27)
(3.84571e-06 2.68544e-05 -8.16364e-27)
(3.68498e-06 2.71948e-05 4.19837e-27)
(4.62708e-06 2.68115e-05 -3.66304e-26)
(3.31151e-06 2.6867e-05 -1.79022e-26)
(5.4399e-06 2.64717e-05 4.5821e-26)
(2.91585e-06 2.62299e-05 1.78583e-26)
(6.28115e-06 2.58213e-05 -1.50061e-26)
(2.50179e-06 2.5272e-05 7.19049e-27)
(7.14783e-06 2.48481e-05 2.78245e-27)
(2.07319e-06 2.39831e-05 -4.33579e-26)
(8.03693e-06 2.35419e-05 1.48541e-26)
(1.63402e-06 2.23549e-05 2.83773e-26)
(8.94549e-06 2.1894e-05 -1.91365e-26)
(1.1883e-06 2.03809e-05 -1.50584e-26)
(9.87054e-06 1.98977e-05 1.37004e-26)
(7.40066e-07 1.80561e-05 1.15727e-26)
(1.08092e-05 1.75479e-05 -1.3058e-26)
(2.9335e-07 1.53777e-05 4.23197e-26)
(1.17584e-05 1.48416e-05 -2.54053e-26)
(-1.47877e-07 1.23441e-05 -2.56528e-26)
(1.27154e-05 1.17773e-05 -1.02526e-26)
(-5.79751e-07 8.9558e-06 -1.21663e-26)
(1.36772e-05 8.35568e-06 -5.39158e-26)
(-9.98562e-07 5.2148e-06 -1.30802e-26)
(1.46409e-05 4.57888e-06 1.23003e-26)
(-1.40081e-06 1.12477e-06 1.18994e-26)
(1.56036e-05 4.50961e-07 -3.34088e-27)
(-1.78324e-06 -3.30908e-06 -5.22046e-26)
(1.65625e-05 -4.02241e-06 3.78492e-27)
(-2.14291e-06 -8.08001e-06 1.04413e-26)
(1.75147e-05 -8.83395e-06 4.43701e-26)
(-2.47722e-06 -1.31799e-05 -8.46046e-27)
(1.84575e-05 -1.39749e-05 7.41979e-27)
(-2.78396e-06 -1.85993e-05 -3.06834e-26)
(1.9388e-05 -1.94351e-05 -2.98147e-26)
(-3.06129e-06 -2.43275e-05 2.42728e-26)
(2.03037e-05 -2.52033e-05 -3.11691e-26)
(-3.30785e-06 -3.03528e-05 3.53166e-26)
(2.12018e-05 -3.12668e-05 6.11318e-27)
(-3.52267e-06 -3.66625e-05 -1.0814e-26)
(2.208e-05 -3.76123e-05 1.42165e-26)
(-3.70525e-06 -4.3243e-05 1.05232e-26)
(2.29358e-05 -4.42256e-05 -6.15055e-26)
(-3.85551e-06 -5.00801e-05 -4.8272e-26)
(2.3767e-05 -5.10917e-05 1.07036e-25)
(-3.97377e-06 -5.71591e-05 -7.03219e-26)
(2.45715e-05 -5.81955e-05 -5.17925e-26)
(-4.06076e-06 -6.44648e-05 -1.00704e-26)
(2.53474e-05 -6.55211e-05 6.48262e-27)
(-4.11757e-06 -7.19818e-05 4.0235e-26)
(2.60932e-05 -7.3053e-05 5.67661e-26)
(-4.14559e-06 -7.96945e-05 1.09025e-26)
(2.68073e-05 -8.07752e-05 4.23612e-26)
(-4.14652e-06 -8.75875e-05 1.1491e-27)
(2.74885e-05 -8.86721e-05 7.52299e-27)
(-4.1223e-06 -9.56454e-05 5.79333e-26)
(2.81358e-05 -9.67284e-05 -2.5277e-26)
(-4.07508e-06 -0.000103853 -3.6511e-26)
(2.87484e-05 -0.000104929 -4.92743e-27)
(-4.00716e-06 -0.000112196 -1.71451e-26)
(2.93259e-05 -0.00011326 6.64497e-26)
(-3.92098e-06 -0.000120661 1.20821e-26)
(2.98679e-05 -0.000121706 -8.83831e-27)
(-3.81905e-06 -0.000129232 5.61101e-26)
(3.03744e-05 -0.000130255 4.83212e-26)
(-3.70394e-06 -0.000137899 4.84292e-26)
(3.08456e-05 -0.000138894 -7.6611e-26)
(-3.57824e-06 -0.000146648 -6.49481e-26)
(3.12817e-05 -0.000147611 -1.28269e-26)
(-3.44454e-06 -0.000155468 1.7587e-26)
(3.16834e-05 -0.000156395 1.19011e-26)
(-3.30539e-06 -0.000164349 1.37226e-26)
(3.20513e-05 -0.000165236 4.79065e-26)
(-3.1633e-06 -0.000173281 -2.46462e-27)
(3.23863e-05 -0.000174125 1.47366e-26)
(-3.02068e-06 -0.000182255 7.68164e-26)
(3.26893e-05 -0.000183053 6.24677e-26)
(-2.8799e-06 -0.000191264 2.45702e-26)
(3.29613e-05 -0.000192013 -2.74037e-26)
(-2.7432e-06 -0.0002003 -7.07555e-26)
(3.32034e-05 -0.000200999 2.67746e-26)
(-2.61272e-06 -0.000209358 -1.93097e-26)
(3.34169e-05 -0.000210003 8.8841e-26)
(-2.49051e-06 -0.000218432 -4.52062e-26)
(3.36028e-05 -0.000219022 -4.06515e-26)
(-2.37847e-06 -0.000227517 2.28574e-26)
(3.37623e-05 -0.00022805 2.5528e-26)
(-2.2784e-06 -0.000236611 3.19347e-26)
(3.38965e-05 -0.000237085 -4.28316e-28)
(-2.19176e-06 -0.000245711 1.38429e-26)
(3.40067e-05 -0.000246123 2.36869e-26)
(-2.11973e-06 -0.000254815 -7.02945e-26)
(3.40941e-05 -0.000255162 6.16823e-26)
(-2.06032e-06 -0.000263922 7.35459e-26)
(3.41629e-05 -0.0002642 -1.20763e-25)
(-2.00782e-06 -0.00027302 -6.71104e-27)
(3.42209e-05 -0.000273246 1.00217e-25)
(-1.93723e-06 -0.000282086 -4.60647e-26)
(2.52458e-06 -0.000286587 1.85194e-25)
(1.15052e-05 -0.000286696 -9.60876e-26)
(2.05619e-05 -0.000286782 2.32529e-25)
(2.96969e-05 -0.000286897 -3.345e-25)
(3.42948e-05 -0.000282325 -3.6086e-26)
)
;
    }
    frontAndBackPlanes
    {
        type            empty;
    }
}


// ************************************************************************* //
