/*--------------------------------*- C++ -*----------------------------------*\
| =========                 |                                                 |
| \\      /  F ield         | OpenFOAM Extend Project: Open source CFD        |
|  \\    /   O peration     | Version:  1.6-ext                               |
|   \\  /    A nd           | Web:      www.extend-project.de                 |
|    \\/     M anipulation  |                                                 |
\*---------------------------------------------------------------------------*/
FoamFile
{
    version     2.0;
    format      ascii;
    class       volScalarField::DimensionedInternalField;
    location    "0.5";
    object      V0;
}
// * * * * * * * * * * * * * * * * * * * * * * * * * * * * * * * * * * * * * //

dimensions      [0 3 0 0 0 0 0];

value           nonuniform List<scalar> 
328
(
2.53352e-07
2.53353e-07
2.53341e-07
2.53337e-07
2.71717e-07
2.7172e-07
2.7171e-07
2.71706e-07
2.91421e-07
2.91419e-07
2.91412e-07
2.91405e-07
3.12552e-07
3.12547e-07
3.12541e-07
3.12532e-07
3.35215e-07
3.35208e-07
3.35202e-07
3.35191e-07
3.59521e-07
3.59511e-07
3.59506e-07
3.59494e-07
3.85587e-07
3.85577e-07
3.85572e-07
3.8556e-07
4.13544e-07
4.13533e-07
4.13527e-07
4.13515e-07
4.43527e-07
4.43515e-07
4.4351e-07
4.43498e-07
4.75684e-07
4.75672e-07
4.75667e-07
4.75654e-07
5.10173e-07
5.1016e-07
5.10155e-07
5.10143e-07
5.47161e-07
5.47149e-07
5.47144e-07
5.47131e-07
5.86832e-07
5.86819e-07
5.86814e-07
5.86802e-07
6.29378e-07
6.29366e-07
6.29361e-07
6.2935e-07
6.75009e-07
6.74998e-07
6.74993e-07
6.74982e-07
7.23948e-07
7.23938e-07
7.23933e-07
7.23923e-07
7.76435e-07
7.76426e-07
7.76422e-07
7.76413e-07
8.32728e-07
8.3272e-07
8.32717e-07
8.32709e-07
8.93102e-07
8.93096e-07
8.93093e-07
8.93087e-07
9.57853e-07
9.57848e-07
9.57847e-07
9.57843e-07
1.0273e-06
1.0273e-06
1.0273e-06
1.02729e-06
1.10178e-06
1.10178e-06
1.10178e-06
1.10178e-06
1.26872e-06
1.26873e-06
1.26873e-06
1.26873e-06
1.26872e-06
1.26872e-06
1.26873e-06
1.26874e-06
1.26871e-06
1.26872e-06
1.26873e-06
1.26874e-06
1.26871e-06
1.26872e-06
1.26873e-06
1.26875e-06
1.2687e-06
1.26872e-06
1.26873e-06
1.26875e-06
1.2687e-06
1.26872e-06
1.26873e-06
1.26875e-06
1.26869e-06
1.26872e-06
1.26873e-06
1.26876e-06
1.26869e-06
1.26872e-06
1.26873e-06
1.26876e-06
1.26869e-06
1.26872e-06
1.26873e-06
1.26876e-06
1.26869e-06
1.26872e-06
1.26873e-06
1.26877e-06
1.26868e-06
1.26872e-06
1.26873e-06
1.26877e-06
1.26868e-06
1.26872e-06
1.26873e-06
1.26877e-06
1.26868e-06
1.26872e-06
1.26873e-06
1.26877e-06
1.26868e-06
1.26872e-06
1.26874e-06
1.26878e-06
1.26868e-06
1.26872e-06
1.26874e-06
1.26878e-06
1.26867e-06
1.26872e-06
1.26874e-06
1.26878e-06
1.26867e-06
1.26872e-06
1.26874e-06
1.26878e-06
1.26867e-06
1.26872e-06
1.26874e-06
1.26878e-06
1.26867e-06
1.26872e-06
1.26874e-06
1.26878e-06
1.26867e-06
1.26872e-06
1.26874e-06
1.26878e-06
1.26867e-06
1.26872e-06
1.26874e-06
1.26878e-06
1.26867e-06
1.26872e-06
1.26873e-06
1.26878e-06
1.26867e-06
1.26872e-06
1.26873e-06
1.26878e-06
1.26867e-06
1.26872e-06
1.26873e-06
1.26878e-06
1.26867e-06
1.26871e-06
1.26873e-06
1.26878e-06
1.26867e-06
1.26871e-06
1.26873e-06
1.26877e-06
1.26867e-06
1.26871e-06
1.26873e-06
1.26877e-06
1.26868e-06
1.26871e-06
1.26873e-06
1.26877e-06
1.26868e-06
1.26871e-06
1.26873e-06
1.26877e-06
1.26868e-06
1.26871e-06
1.26873e-06
1.26876e-06
1.26868e-06
1.26871e-06
1.26873e-06
1.26876e-06
1.26868e-06
1.26871e-06
1.26873e-06
1.26876e-06
1.26868e-06
1.26871e-06
1.26873e-06
1.26876e-06
1.26868e-06
1.26871e-06
1.26872e-06
1.26875e-06
1.26868e-06
1.26871e-06
1.26872e-06
1.26875e-06
1.26869e-06
1.26871e-06
1.26872e-06
1.26875e-06
1.26869e-06
1.26871e-06
1.26872e-06
1.26874e-06
1.26869e-06
1.26871e-06
1.26872e-06
1.26874e-06
1.26869e-06
1.26871e-06
1.26872e-06
1.26874e-06
1.26869e-06
1.26871e-06
1.26871e-06
1.26873e-06
1.26869e-06
1.26871e-06
1.26871e-06
1.26873e-06
1.26869e-06
1.26871e-06
1.26871e-06
1.26873e-06
1.26869e-06
1.26871e-06
1.26871e-06
1.26872e-06
1.26869e-06
1.2687e-06
1.26871e-06
1.26872e-06
1.2687e-06
1.2687e-06
1.26871e-06
1.26872e-06
1.2687e-06
1.2687e-06
1.26871e-06
1.26871e-06
1.2687e-06
1.2687e-06
1.2687e-06
1.26871e-06
1.2687e-06
1.2687e-06
1.2687e-06
1.26871e-06
1.2687e-06
1.2687e-06
1.2687e-06
1.26871e-06
1.2687e-06
1.2687e-06
1.2687e-06
1.2687e-06
1.2687e-06
1.2687e-06
1.2687e-06
1.2687e-06
1.2687e-06
1.2687e-06
1.2687e-06
1.2687e-06
1.26869e-06
1.2687e-06
1.2687e-06
1.2687e-06
1.26869e-06
1.2687e-06
1.2687e-06
1.2687e-06
1.26869e-06
1.26869e-06
1.26869e-06
1.2687e-06
1.26869e-06
1.26869e-06
1.26869e-06
1.26869e-06
1.26869e-06
1.26869e-06
1.26869e-06
1.26869e-06
1.26869e-06
1.26869e-06
1.26869e-06
1.26869e-06
1.26869e-06
1.26869e-06
1.26869e-06
1.26869e-06
1.26869e-06
1.26868e-06
1.26868e-06
1.26869e-06
)
;


// ************************************************************************* //
