/*--------------------------------*- C++ -*----------------------------------*\
| =========                 |                                                 |
| \\      /  F ield         | OpenFOAM Extend Project: Open source CFD        |
|  \\    /   O peration     | Version:  1.6-ext                               |
|   \\  /    A nd           | Web:      www.extend-project.de                 |
|    \\/     M anipulation  |                                                 |
\*---------------------------------------------------------------------------*/
FoamFile
{
    version     2.0;
    format      ascii;
    class       volVectorField;
    location    "0.5";
    object      Vs;
}
// * * * * * * * * * * * * * * * * * * * * * * * * * * * * * * * * * * * * * //

dimensions      [0 1 -1 0 0 0 0];

internalField   nonuniform List<vector> 
328
(
(-2.2972e-06 -1.12709e-05 0)
(-5.40877e-07 -2.51467e-06 0)
(-6.47544e-07 2.32003e-06 0)
(-2.79078e-06 1.18041e-05 0)
(-6.89798e-06 -2.88625e-05 0)
(-2.55842e-06 -7.19354e-06 0)
(-2.92979e-06 6.89079e-06 0)
(-8.42702e-06 3.02634e-05 0)
(-1.28242e-05 -4.18236e-05 0)
(-7.07799e-06 -1.14542e-05 0)
(-7.82791e-06 1.13424e-05 0)
(-1.55601e-05 4.40297e-05 0)
(-1.94127e-05 -5.08505e-05 0)
(-1.30985e-05 -1.49447e-05 0)
(-1.42835e-05 1.53368e-05 0)
(-2.34696e-05 5.39161e-05 0)
(-2.68175e-05 -5.68554e-05 0)
(-2.0773e-05 -1.75333e-05 0)
(-2.24523e-05 1.87622e-05 0)
(-3.23188e-05 6.09505e-05 0)
(-3.493e-05 -6.05325e-05 0)
(-2.97452e-05 -1.91665e-05 0)
(-3.19613e-05 2.16061e-05 0)
(-4.19883e-05 6.59292e-05 0)
(-4.38036e-05 -6.24434e-05 0)
(-3.9931e-05 -1.98876e-05 0)
(-4.27249e-05 2.3966e-05 0)
(-5.25338e-05 6.95117e-05 0)
(-5.34603e-05 -6.29949e-05 0)
(-5.11664e-05 -1.97712e-05 0)
(-5.45753e-05 2.59862e-05 0)
(-6.39786e-05 7.22005e-05 0)
(-6.39554e-05 -6.24884e-05 0)
(-6.3374e-05 -1.89096e-05 0)
(-6.74359e-05 2.78434e-05 0)
(-7.63821e-05 7.43969e-05 0)
(-7.53394e-05 -6.11308e-05 0)
(-7.64893e-05 -1.73834e-05 0)
(-8.1243e-05 2.97172e-05 0)
(-8.97999e-05 7.64155e-05 0)
(-8.76674e-05 -5.90561e-05 0)
(-9.04935e-05 -1.52506e-05 0)
(-9.59798e-05 3.17811e-05 0)
(-0.000104293 7.85096e-05 0)
(-0.000100992 -5.63345e-05 0)
(-0.000105395 -1.25368e-05 0)
(-0.000111657 3.41929e-05 0)
(-0.000119919 8.08837e-05 0)
(-0.000115366 -5.29831e-05 0)
(-0.000121233 -9.23279e-06 0)
(-0.000128317 3.70956e-05 0)
(-0.000136739 8.37077e-05 0)
(-0.000130844 -4.89732e-05 0)
(-0.000138068 -5.29464e-06 0)
(-0.000146022 4.06189e-05 0)
(-0.000154812 8.71268e-05 0)
(-0.000147481 -4.42375e-05 0)
(-0.000155977 -6.46412e-07 0)
(-0.000164852 4.4886e-05 0)
(-0.000174201 9.12726e-05 0)
(-0.000165338 -3.8675e-05 0)
(-0.000175048 4.81678e-06 0)
(-0.000184899 5.00197e-05 0)
(-0.000194976 9.62722e-05 0)
(-0.00018448 -3.21561e-05 0)
(-0.000195378 1.12259e-05 0)
(-0.000206261 5.61505e-05 0)
(-0.000217209 0.000102257 0)
(-0.000204979 -2.45251e-05 0)
(-0.000217067 1.87363e-05 0)
(-0.000229042 6.34229e-05 0)
(-0.00024098 0.000109372 0)
(-0.000226913 -1.56009e-05 0)
(-0.000240213 2.75275e-05 0)
(-0.000253344 7.20017e-05 0)
(-0.000266376 0.00011778 0)
(-0.000250363 -5.17723e-06 0)
(-0.00026492 3.78039e-05 0)
(-0.000279273 8.20771e-05 0)
(-0.000293488 0.000127669 0)
(-0.000275418 6.98002e-06 0)
(-0.000291288 4.97973e-05 0)
(-0.000306931 9.38686e-05 0)
(-0.000322413 0.000139256 0)
(-0.00030217 2.1135e-05 0)
(-0.000319418 6.37697e-05 0)
(-0.000336424 0.000107629 0)
(-0.00035325 0.00015279 0)
(-0.000331801 3.82129e-05 0)
(-0.000350556 8.06355e-05 0)
(-0.000369052 0.000124255 0)
(-0.000387355 0.000169158 0)
(-0.000363316 5.80927e-05 0)
(-0.00038365 0.000100277 0)
(-0.000403712 0.000143633 0)
(-0.000423564 0.000188247 0)
(-0.000394614 7.95396e-05 0)
(-0.000416496 0.000121475 0)
(-0.000438091 0.000164558 0)
(-0.000459462 0.000208875 0)
(-0.000425681 0.00010252 0)
(-0.00044908 0.000144197 0)
(-0.000472178 0.000186998 0)
(-0.000495036 0.000231007 0)
(-0.000456504 0.000127 0)
(-0.000481391 0.00016841 0)
(-0.000505961 0.000210921 0)
(-0.000530274 0.000254614 0)
(-0.00048707 0.000152949 0)
(-0.000513416 0.000194083 0)
(-0.000539428 0.000236295 0)
(-0.000565166 0.000279665 0)
(-0.000517367 0.000180336 0)
(-0.000545144 0.000221187 0)
(-0.000572569 0.000263093 0)
(-0.000599702 0.000306134 0)
(-0.000547384 0.000209134 0)
(-0.000576563 0.000249695 0)
(-0.000605373 0.00029129 0)
(-0.000633872 0.000333996 0)
(-0.00057711 0.000239316 0)
(-0.000607665 0.000279583 0)
(-0.000637831 0.000320862 0)
(-0.000667669 0.000363228 0)
(-0.000606538 0.000270855 0)
(-0.000638441 0.000310827 0)
(-0.000669935 0.000351785 0)
(-0.000701083 0.000393809 0)
(-0.000635663 0.000303726 0)
(-0.000668883 0.000343401 0)
(-0.000701675 0.000384038 0)
(-0.000734104 0.000425714 0)
(-0.000664481 0.0003379 0)
(-0.000698987 0.000377279 0)
(-0.000733044 0.000417593 0)
(-0.000766725 0.000458921 0)
(-0.000692991 0.000373345 0)
(-0.000728747 0.000412432 0)
(-0.000764036 0.000452424 0)
(-0.000798935 0.000493402 0)
(-0.000721192 0.000410029 0)
(-0.000758161 0.000448826 0)
(-0.000794643 0.000488498 0)
(-0.000830726 0.000529126 0)
(-0.000749086 0.000447912 0)
(-0.000787224 0.000486427 0)
(-0.00082486 0.00052578 0)
(-0.000862088 0.000566058 0)
(-0.000776675 0.000486954 0)
(-0.000815936 0.000525191 0)
(-0.00085468 0.000564229 0)
(-0.000893011 0.000604157 0)
(-0.00080396 0.000527108 0)
(-0.000844293 0.000565075 0)
(-0.000884097 0.0006038 0)
(-0.000923485 0.000643377 0)
(-0.000830944 0.000568325 0)
(-0.000872293 0.000606026 0)
(-0.000913104 0.000644441 0)
(-0.000953498 0.000683668 0)
(-0.000857626 0.000610549 0)
(-0.000899932 0.000647991 0)
(-0.000941692 0.000686098 0)
(-0.000983038 0.000724972 0)
(-0.000884007 0.000653724 0)
(-0.000927205 0.000690909 0)
(-0.000969854 0.000728708 0)
(-0.00101209 0.000767228 0)
(-0.000910083 0.000697785 0)
(-0.000954105 0.000734715 0)
(-0.000997577 0.000772205 0)
(-0.00104065 0.000810366 0)
(-0.000935849 0.000742666 0)
(-0.000980623 0.00077934 0)
(-0.00102485 0.000816517 0)
(-0.00106868 0.000854313 0)
(-0.000961296 0.000788297 0)
(-0.00100675 0.00082471 0)
(-0.00105166 0.000861569 0)
(-0.00109618 0.000898991 0)
(-0.000986413 0.000834605 0)
(-0.00103247 0.000870749 0)
(-0.00107798 0.000907281 0)
(-0.00112312 0.000944317 0)
(-0.00101118 0.000881511 0)
(-0.00105776 0.000917377 0)
(-0.0011038 0.000953569 0)
(-0.00114949 0.000990207 0)
(-0.00103559 0.000928938 0)
(-0.00108261 0.000964511 0)
(-0.00112911 0.00100035 0)
(-0.00117525 0.00103657 0)
(-0.00105961 0.000976806 0)
(-0.00110699 0.00101207 0)
(-0.00115386 0.00104753 0)
(-0.00120039 0.00108332 0)
(-0.00108321 0.00102503 0)
(-0.00113088 0.00105996 0)
(-0.00117804 0.00109504 0)
(-0.00122488 0.00113037 0)
(-0.00110637 0.00107354 0)
(-0.00115425 0.00110811 0)
(-0.00120163 0.00114277 0)
(-0.00124869 0.00117764 0)
(-0.00112906 0.00112225 0)
(-0.00117706 0.00115644 0)
(-0.0012246 0.00119066 0)
(-0.0012718 0.00122503 0)
(-0.00115123 0.00117108 0)
(-0.0011993 0.00120486 0)
(-0.00124691 0.00123861 0)
(-0.00129418 0.00127246 0)
(-0.00117286 0.00121996 0)
(-0.00122093 0.00125329 0)
(-0.00126854 0.00128656 0)
(-0.00131582 0.00131987 0)
(-0.00119391 0.00126881 0)
(-0.00124191 0.00130168 0)
(-0.00128946 0.00133443 0)
(-0.00133668 0.00136717 0)
(-0.00121433 0.00131758 0)
(-0.00126221 0.00134995 0)
(-0.00130965 0.00138216 0)
(-0.00135674 0.00141431 0)
(-0.0012341 0.00136621 0)
(-0.00128181 0.00139804 0)
(-0.00132908 0.00142969 0)
(-0.00137599 0.00146123 0)
(-0.00125316 0.00141463 0)
(-0.00130066 0.00144591 0)
(-0.00134772 0.00147696 0)
(-0.00139441 0.00150789 0)
(-0.0012715 0.00146282 0)
(-0.00131875 0.0014935 0)
(-0.00136556 0.00152395 0)
(-0.00141198 0.00155423 0)
(-0.00128907 0.00151072 0)
(-0.00133604 0.00154079 0)
(-0.00138257 0.00157061 0)
(-0.00142869 0.00160023 0)
(-0.00130584 0.00155831 0)
(-0.00135251 0.00158775 0)
(-0.00139873 0.00161691 0)
(-0.00144452 0.00164587 0)
(-0.00132177 0.00160556 0)
(-0.00136813 0.00163435 0)
(-0.00141402 0.00166285 0)
(-0.00145947 0.00169112 0)
(-0.00133684 0.00165247 0)
(-0.00138287 0.00168058 0)
(-0.00142843 0.0017084 0)
(-0.00147351 0.00173598 0)
(-0.00135102 0.00169902 0)
(-0.00139672 0.00172644 0)
(-0.00144193 0.00175356 0)
(-0.00148665 0.00178044 0)
(-0.00136428 0.0017452 0)
(-0.00140966 0.00177192 0)
(-0.00145452 0.00179833 0)
(-0.00149886 0.00182451 0)
(-0.0013766 0.00179104 0)
(-0.00142165 0.00181702 0)
(-0.00146617 0.00184272 0)
(-0.00151014 0.00186818 0)
(-0.00138794 0.00183652 0)
(-0.00143268 0.00186176 0)
(-0.00147687 0.00188673 0)
(-0.00152046 0.00191146 0)
(-0.00139829 0.00188167 0)
(-0.00144273 0.00190615 0)
(-0.00148659 0.00193037 0)
(-0.00152983 0.00195437 0)
(-0.0014076 0.00192649 0)
(-0.00145177 0.00195021 0)
(-0.00149532 0.00197367 0)
(-0.00153822 0.00199692 0)
(-0.00141586 0.00197103 0)
(-0.00145977 0.00199395 0)
(-0.00150303 0.00201665 0)
(-0.00154561 0.00203914 0)
(-0.00142303 0.00201529 0)
(-0.00146671 0.00203741 0)
(-0.0015097 0.00205931 0)
(-0.00155197 0.00208103 0)
(-0.00142908 0.00205931 0)
(-0.00147255 0.0020806 0)
(-0.0015153 0.0021017 0)
(-0.00155728 0.00212263 0)
(-0.00143396 0.00210313 0)
(-0.00147726 0.00212357 0)
(-0.00151979 0.00214384 0)
(-0.00156151 0.00216395 0)
(-0.00143764 0.00214678 0)
(-0.00148079 0.00216633 0)
(-0.00152313 0.00218575 0)
(-0.00156462 0.00220503 0)
(-0.00144006 0.00219029 0)
(-0.0014831 0.00220894 0)
(-0.00152529 0.00222747 0)
(-0.00156656 0.00224589 0)
(-0.00144118 0.00223371 0)
(-0.00148415 0.00225142 0)
(-0.0015262 0.00226903 0)
(-0.00156729 0.00228655 0)
(-0.00144095 0.00227708 0)
(-0.00148386 0.0022938 0)
(-0.0015258 0.00231047 0)
(-0.00156673 0.00232704 0)
(-0.00143928 0.00232043 0)
(-0.00148217 0.00233614 0)
(-0.00152403 0.00235179 0)
(-0.00156482 0.00236739 0)
(-0.00143612 0.00236382 0)
(-0.00147901 0.00237845 0)
(-0.00152081 0.00239304 0)
(-0.00156149 0.00240759 0)
(-0.00143135 0.00240727 0)
(-0.00147425 0.00242077 0)
(-0.00151601 0.00243423 0)
(-0.00155662 0.00244768 0)
(-0.00142497 0.00245082 0)
(-0.00146788 0.00246312 0)
(-0.00150963 0.00247539 0)
(-0.00155019 0.00248766 0)
(-0.00141664 0.00249428 0)
(-0.00145956 0.00250547 0)
(-0.00150129 0.0025166 0)
(-0.00154184 0.00252777 0)
)
;

boundaryField
{
    plateFix
    {
        type            calculated;
        value           uniform (0 0 0);
    }
    plate
    {
        type            calculated;
        value           nonuniform List<vector> 
168
(
(-5.16786e-05 -2.98504e-05 -3.4241e-24)
(-5.45604e-05 3.2037e-05 1.61782e-23)
(-4.26872e-05 -4.80556e-05 -1.54426e-24)
(-4.61778e-05 5.1195e-05 -2.81265e-23)
(-3.68666e-05 -6.19195e-05 -3.22198e-23)
(-4.14203e-05 6.59574e-05 1.02025e-23)
(-3.4755e-05 -7.13252e-05 1.6515e-23)
(-4.07308e-05 7.62606e-05 8.42054e-24)
(-3.60504e-05 -7.76493e-05 1.97839e-23)
(-4.37554e-05 8.36378e-05 -2.69014e-23)
(-3.99193e-05 -8.15217e-05 -2.25175e-23)
(-4.95949e-05 8.88185e-05 -3.2568e-23)
(-4.58801e-05 -8.35971e-05 -1.12831e-23)
(-5.77346e-05 9.25644e-05 3.51075e-23)
(-5.35398e-05 -8.42821e-05 2.93612e-23)
(-6.77592e-05 9.53796e-05 1.47812e-23)
(-6.26635e-05 -8.38928e-05 2.37447e-23)
(-7.94244e-05 9.76829e-05 -3.27711e-24)
(-7.30896e-05 -8.2634e-05 -2.53077e-23)
(-9.2566e-05 9.97872e-05 -5.98262e-24)
(-8.4723e-05 -8.06389e-05 -6.92306e-25)
(-0.000107092 0.000101946 1.90334e-24)
(-9.75089e-05 -7.79757e-05 8.69127e-24)
(-0.000122951 0.000104362 -5.44301e-24)
(-0.000111425 -7.46612e-05 3.10955e-24)
(-0.000140131 0.000107204 -4.09909e-24)
(-0.000126475 -7.06675e-05 -1.04292e-23)
(-0.000158641 0.00011062 8.62279e-24)
(-0.000142682 -6.5929e-05 -1.07137e-23)
(-0.000178514 0.000114742 -6.24327e-24)
(-0.000160087 -6.0347e-05 2.24299e-23)
(-0.000199803 0.0001197 1.64709e-24)
(-0.000178744 -5.37941e-05 -1.38339e-23)
(-0.000222574 0.000125629 1.9861e-25)
(-0.00019872 -4.61166e-05 1.43577e-23)
(-0.000246905 0.000132674 -1.53664e-23)
(-0.00022009 -3.71348e-05 -9.76213e-24)
(-0.000272885 0.000141001 1.62364e-23)
(-0.000242937 -2.66431e-05 9.01031e-24)
(-0.000300608 0.000150797 -5.86897e-24)
(-0.000267347 -1.44076e-05 -6.01842e-24)
(-0.000330175 0.00016228 1.99555e-23)
(-0.000293413 -1.64297e-07 4.84099e-24)
(-0.000361688 0.0001757 -1.3374e-23)
(-0.000322292 1.7017e-05 -1.52276e-23)
(-0.000396529 0.000191934 -7.23526e-24)
(-0.000353014 3.70135e-05 1.01595e-23)
(-0.000433511 0.000210875 6.6823e-25)
(-0.000383534 5.85822e-05 5.03174e-24)
(-0.000470163 0.000231349 5.4239e-24)
(-0.000413838 8.16893e-05 -1.84626e-24)
(-0.000506474 0.000253323 7.32522e-25)
(-0.000443914 0.000106301 -3.19302e-24)
(-0.000542432 0.000276767 4.64802e-24)
(-0.000473746 0.000132386 4.67776e-24)
(-0.000578027 0.000301653 -1.85556e-24)
(-0.000503322 0.000159913 1.29107e-24)
(-0.000613252 0.000327953 -3.26888e-24)
(-0.000532629 0.000188853 -1.7778e-24)
(-0.000648097 0.000355643 4.29651e-24)
(-0.000561657 0.00021918 -3.10036e-24)
(-0.000682556 0.000384702 -2.57152e-24)
(-0.0005904 0.000250865 -1.43841e-26)
(-0.000716619 0.000415106 3.36209e-24)
(-0.000618852 0.000283882 6.46888e-26)
(-0.000750277 0.000446835 -3.47568e-24)
(-0.000647011 0.000318201 1.95078e-24)
(-0.000783521 0.000479864 7.97e-25)
(-0.000674879 0.00035379 -1.72025e-24)
(-0.00081634 0.000514166 2.7492e-24)
(-0.000702457 0.000390614 -1.55865e-24)
(-0.000848724 0.000549711 1.5561e-25)
(-0.000729749 0.000428635 3.08847e-24)
(-0.000880661 0.000586462 -5.28324e-24)
(-0.00075676 0.00046781 -1.72972e-24)
(-0.00091214 0.000624381 -3.73089e-25)
(-0.000783494 0.000508094 2.85741e-24)
(-0.000943149 0.000663421 -3.29841e-24)
(-0.000809955 0.000549437 -4.82904e-24)
(-0.000973674 0.000703531 2.94041e-24)
(-0.000836148 0.000591785 4.38389e-24)
(-0.0010037 0.000744654 2.64446e-24)
(-0.000862073 0.000635081 -7.16981e-24)
(-0.00103321 0.000786726 -2.30755e-24)
(-0.000887731 0.000679262 2.13882e-24)
(-0.00106219 0.000829678 6.97601e-25)
(-0.000913117 0.000724263 -8.38027e-25)
(-0.00109062 0.000873435 4.20488e-24)
(-0.000938224 0.000770017 3.40404e-24)
(-0.00111848 0.000917918 3.62101e-24)
(-0.000963043 0.000816449 -1.29111e-24)
(-0.00114574 0.000963044 -6.20499e-25)
(-0.000987558 0.000863487 2.03964e-24)
(-0.00117239 0.00100873 -5.98642e-24)
(-0.00101175 0.000911053 4.18293e-24)
(-0.00119839 0.00105488 9.1486e-24)
(-0.0010356 0.000959068 1.32779e-24)
(-0.00122373 0.0011014 -3.83579e-24)
(-0.00105907 0.00100745 -4.249e-24)
(-0.00124838 0.00114822 -2.03691e-24)
(-0.00108215 0.00105613 9.59583e-25)
(-0.00127231 0.00119524 -3.90824e-24)
(-0.00110478 0.00110502 -9.16298e-24)
(-0.00129549 0.00124237 -1.25987e-23)
(-0.00112695 0.00115405 3.62132e-24)
(-0.00131791 0.00128953 1.18759e-23)
(-0.0011486 0.00120314 -6.29679e-24)
(-0.00133955 0.00133666 7.20074e-24)
(-0.0011697 0.00125223 1.034e-23)
(-0.00136037 0.00138368 -4.55066e-25)
(-0.0011902 0.00130125 -1.18235e-23)
(-0.00138036 0.00143052 3.09252e-24)
(-0.00121007 0.00135013 1.04771e-24)
(-0.00139951 0.00147713 -4.32587e-24)
(-0.00122927 0.00139883 5.25216e-24)
(-0.0014178 0.00152346 -8.56666e-25)
(-0.00124775 0.00144731 1.18077e-23)
(-0.00143522 0.00156948 -7.77941e-25)
(-0.00126547 0.00149551 -7.68686e-24)
(-0.00145176 0.00161515 1.19728e-24)
(-0.0012824 0.00154342 -1.56094e-24)
(-0.00146741 0.00166045 1.41451e-23)
(-0.0012985 0.001591 8.19787e-24)
(-0.00148216 0.00170536 -1.10554e-23)
(-0.00131375 0.00163825 9.56454e-24)
(-0.001496 0.00174987 -1.1738e-23)
(-0.0013281 0.00168514 -4.7491e-24)
(-0.00150893 0.00179398 1.99616e-23)
(-0.00134152 0.00173169 -1.18961e-23)
(-0.00152094 0.00183768 -1.19562e-23)
(-0.001354 0.00177789 5.12286e-24)
(-0.001532 0.00188099 1.76244e-24)
(-0.0013655 0.00182374 6.19302e-24)
(-0.00154213 0.00192391 1.28044e-23)
(-0.00137599 0.00186927 5.21475e-24)
(-0.0015513 0.00196645 -6.20888e-24)
(-0.00138544 0.00191449 -8.94902e-24)
(-0.00155949 0.00200863 4.20475e-24)
(-0.00139382 0.00195942 1.34112e-23)
(-0.00156669 0.00205047 -1.29835e-23)
(-0.00140109 0.00200409 -1.32445e-23)
(-0.00157288 0.00209198 2.10198e-24)
(-0.00140723 0.00204854 1.32266e-23)
(-0.00157804 0.00213318 -4.13065e-23)
(-0.00141219 0.00209278 -2.46226e-23)
(-0.00158212 0.0021741 1.42968e-23)
(-0.00141592 0.00213687 5.59252e-24)
(-0.00158509 0.00221476 -4.05572e-23)
(-0.00141839 0.00218084 1.00705e-23)
(-0.00158691 0.00225519 1.50146e-23)
(-0.00141953 0.00222474 -2.14459e-23)
(-0.00158753 0.0022954 3.70294e-25)
(-0.00141929 0.0022686 4.20035e-24)
(-0.00158687 0.00233542 -5.02648e-24)
(-0.0014176 0.00231248 1.28132e-23)
(-0.00158488 0.00237527 1.19342e-23)
(-0.0014144 0.00235641 -3.97e-24)
(-0.00158147 0.00241495 -4.27381e-24)
(-0.00140957 0.00240042 -1.19477e-23)
(-0.00157653 0.0024545 -5.22996e-25)
(-0.00140318 0.0024446 1.19298e-23)
(-0.00157009 0.00249387 -2.05717e-23)
(-0.00139488 0.00248863 8.32031e-24)
(-0.00141184 0.00251596 5.03726e-24)
(-0.00145477 0.00252667 8.23579e-24)
(-0.0014965 0.00253722 9.78662e-24)
(-0.00153703 0.00254791 3.8739e-24)
(-0.00156181 0.00253343 -3.7269e-24)
)
;
    }
    frontAndBackPlanes
    {
        type            empty;
    }
}


// ************************************************************************* //
