/*--------------------------------*- C++ -*----------------------------------*\
| =========                 |                                                 |
| \\      /  F ield         | OpenFOAM Extend Project: Open source CFD        |
|  \\    /   O peration     | Version:  1.6-ext                               |
|   \\  /    A nd           | Web:      www.extend-project.de                 |
|    \\/     M anipulation  |                                                 |
\*---------------------------------------------------------------------------*/
FoamFile
{
    version     2.0;
    format      ascii;
    class       volVectorField;
    location    "2.1";
    object      U;
}
// * * * * * * * * * * * * * * * * * * * * * * * * * * * * * * * * * * * * * //

dimensions      [0 1 -1 0 0 0 0];

internalField   nonuniform List<vector> 
72
(
(-0.00231401 0.00227306 0)
(-0.00885014 0.00331247 0)
(-0.0148989 0.0021242 0)
(-0.01591 0.000270918 0)
(-0.0120983 -0.00143681 0)
(-0.00480111 -0.00256431 0)
(0.00417557 -0.00304459 0)
(0.0130598 -0.00326059 0)
(0.0250181 -0.00355271 0)
(-0.00384072 0.00881668 0)
(-0.0133231 0.0111865 0)
(-0.0201557 0.00514291 0)
(-0.0177964 -0.00318923 0)
(-0.00695951 -0.010387 0)
(0.00969481 -0.014713 0)
(0.0285419 -0.0161913 0)
(0.046451 -0.015738 0)
(0.0672623 -0.014887 0)
(-0.00473361 0.0178769 0)
(-0.0157091 0.0204929 0)
(-0.0223508 0.00623367 0)
(-0.017042 -0.0122771 0)
(-0.000853642 -0.0277742 0)
(0.0223938 -0.0366843 0)
(0.0478823 -0.0391354 0)
(0.0716952 -0.0366553 0)
(0.0983912 -0.0322722 0)
(-0.00609414 0.0287679 0)
(-0.019211 0.0308677 0)
(-0.0259366 0.00628936 0)
(-0.0181628 -0.0246094 0)
(0.0024809 -0.0499711 0)
(0.0311507 -0.0641133 0)
(0.0619326 -0.0672386 0)
(0.0903096 -0.0620098 0)
(0.121344 -0.0527222 0)
(-0.00755635 0.0420535 0)
(-0.0216611 0.0421088 0)
(-0.0257121 0.00494853 0)
(-0.0136775 -0.0409847 0)
(0.0117468 -0.0771798 0)
(0.0449705 -0.0967134 0)
(0.0794733 -0.0998915 0)
(0.11079 -0.0910069 0)
(0.143903 -0.0753254 0)
(-0.00715982 0.0552016 0)
(-0.0160601 0.0490185 0)
(-0.00994141 -0.00261726 0)
(0.0103588 -0.0630657 0)
(0.0411073 -0.109253 0)
(0.0762965 -0.132931 0)
(0.110994 -0.134922 0)
(0.141747 -0.121489 0)
(0.172753 -0.0982417 0)
(0.000452259 0.0698344 0)
(0.00901714 0.0474805 0)
(0.0376196 -0.0206482 0)
(0.0699343 -0.0917525 0)
(0.103563 -0.143777 0)
(0.135812 -0.168277 0)
(0.164445 -0.167214 0)
(0.188788 -0.148817 0)
(0.211294 -0.117944 0)
(0.0369893 0.0321587 0)
(0.0730553 0.00325748 0)
(0.129654 -0.0630764 0)
(0.172544 -0.129757 0)
(0.203526 -0.176617 0)
(0.225443 -0.195806 0)
(0.240219 -0.189291 0)
(0.251447 -0.166325 0)
(0.258444 -0.129575 0)
)
;

boundaryField
{
    inlet
    {
        type            fixedValue;
        value           nonuniform 0();
    }
    outlet
    {
        type            zeroGradient;
    }
    fixedWalls
    {
        type            fixedValue;
        value           uniform (0 0 0);
    }
    frontAndBack
    {
        type            empty;
    }
    procBoundary0to1
    {
        type            processor;
        value           nonuniform List<vector> 9((0.216404 -0.0208206 0) (0.251663 -0.0588614 0) (0.292651 -0.110983 0) (0.320637 -0.161793 0) (0.332809 -0.195735 0) (0.333529 -0.205677 0) (0.32683 -0.193112 0) (0.319984 -0.16735 0) (0.30717 -0.128748 0));
    }
}


// ************************************************************************* //
