/*--------------------------------*- C++ -*----------------------------------*\
| =========                 |                                                 |
| \\      /  F ield         | OpenFOAM Extend Project: Open source CFD        |
|  \\    /   O peration     | Version:  1.6-ext                               |
|   \\  /    A nd           | Web:      www.extend-project.de                 |
|    \\/     M anipulation  |                                                 |
\*---------------------------------------------------------------------------*/
FoamFile
{
    version     2.0;
    format      ascii;
    class       volScalarField;
    location    "4.2";
    object      p;
}
// * * * * * * * * * * * * * * * * * * * * * * * * * * * * * * * * * * * * * //

dimensions      [0 2 -2 0 0 0 0];

internalField   nonuniform List<scalar> 
284
(
0.284598
0.253122
0.241656
0.236676
0.234775
0.234749
0.235629
0.236881
0.238903
0.255386
0.246508
0.241157
0.238633
0.237671
0.237704
0.238246
0.23904
0.241207
0.243429
0.240027
0.237466
0.236311
0.236308
0.237048
0.238018
0.238983
0.241939
0.233955
0.232888
0.231851
0.231653
0.232371
0.233698
0.235119
0.236324
0.240032
0.226146
0.225838
0.225442
0.225516
0.226256
0.227485
0.228691
0.229457
0.23329
0.219051
0.218931
0.218606
0.218362
0.218366
0.218504
0.218244
0.21694
0.218742
0.212312
0.212162
0.211566
0.210575
0.209183
0.207125
0.203535
0.196676
0.191255
0.205955
0.205683
0.204603
0.202562
0.199285
0.194167
0.185616
0.171295
0.126838
0.200228
0.199789
0.198094
0.194811
0.189215
0.179688
0.160447
0.122415
0.0288581
0.195498
0.194841
0.192471
0.188061
0.180843
0.169315
0.149207
0.117322
0.0637076
0.192231
0.191162
0.187967
0.182576
0.174582
0.163075
0.146114
0.121768
0.0885657
0.190934
0.188988
0.184542
0.178083
0.169572
0.15844
0.143858
0.124032
0.100281
0.19323
0.188711
0.182141
0.174391
0.165379
0.154628
0.141681
0.125052
0.106209
0.199329
0.189526
0.180316
0.171463
0.162317
0.152108
0.140321
0.125825
0.109394
0.227567
0.195679
0.180919
0.171011
0.162082
0.15265
0.141788
0.12836
0.112716
-0.104289
-0.0690349
-0.0058028
-0.0269291
0.0387439
0.00863145
0.0667827
0.0402389
0.0828379
0.0606275
0.0903914
0.0708335
0.09462
0.0752267
-0.0566475
-0.0476719
-0.0440651
-0.0422383
-0.0399507
-0.0352511
-0.0278013
-0.0172864
-0.00582537
-0.03281
-0.0332311
-0.0333706
-0.0331644
-0.0315092
-0.0273651
-0.0211781
-0.0127196
-0.00489949
-0.00575835
-0.0125415
-0.0162729
-0.0181977
-0.0181976
-0.0159223
-0.0122935
-0.00708718
-0.0037027
0.0230075
0.0116796
0.0035843
-0.00158184
-0.004224
-0.00466891
-0.00407059
-0.00228171
-0.00276513
0.0425599
0.0286216
0.0181673
0.0107642
0.00589266
0.00306662
0.00128058
0.000534717
-0.00227826
0.0530953
0.0381398
0.0262138
0.0172056
0.0107237
0.00628871
0.00316211
0.00112675
-0.00222091
0.0564988
0.0400886
0.0265915
0.0161241
0.00847806
0.00327251
-2.62946e-05
-0.00179304
-0.00366809
-0.0269347
-0.0281054
-0.027579
-0.0256822
-0.0222694
-0.0173067
-0.0112549
-0.00576846
0.0043074
-0.025691
-0.0269451
-0.0265557
-0.0251424
-0.0224495
-0.0182268
-0.0127343
-0.00766958
0.00320446
-0.0265857
-0.0280353
-0.0279294
-0.026948
-0.0246734
-0.0206229
-0.0149526
-0.0095673
0.00284345
-0.0293223
-0.0306824
-0.0308673
-0.0303615
-0.0285127
-0.0245888
-0.0183873
-0.0119625
0.00248045
-0.0338901
-0.0346024
-0.0349304
-0.0348812
-0.0334655
-0.0296938
-0.0229247
-0.0150052
0.00059001
-0.0400571
-0.0390393
-0.0392604
-0.0395239
-0.0384385
-0.0346876
-0.0276872
-0.0176947
-0.00237077
-0.0473084
-0.0427788
-0.0426857
-0.0427724
-0.041804
-0.0379965
-0.0306457
-0.0195976
-0.00476937
-0.0643253
-0.0470707
-0.0447288
-0.044032
-0.0426058
-0.038444
-0.0308636
-0.019616
-0.00591771
)
;

boundaryField
{
    inlet
    {
        type            zeroGradient;
    }
    outlet
    {
        type            totalPressure;
        rho             none;
        psi             none;
        gamma           1;
        p0              uniform 0;
        value           nonuniform List<scalar> 
15
(
-6.50756e-05
-0.000434248
-0.00130456
0
0
0
0
0
0
0
0
0
0
0
0
)
;
    }
    fixedWalls
    {
        type            zeroGradient;
    }
    frontAndBack
    {
        type            empty;
    }
}


// ************************************************************************* //
