/*--------------------------------*- C++ -*----------------------------------*\
| =========                 |                                                 |
| \\      /  F ield         | OpenFOAM Extend Project: Open source CFD        |
|  \\    /   O peration     | Version:  1.6-ext                               |
|   \\  /    A nd           | Web:      www.extend-project.de                 |
|    \\/     M anipulation  |                                                 |
\*---------------------------------------------------------------------------*/
FoamFile
{
    version     2.0;
    format      ascii;
    class       surfaceScalarField;
    location    "4.2";
    object      phi;
}
// * * * * * * * * * * * * * * * * * * * * * * * * * * * * * * * * * * * * * //

dimensions      [0 3 -1 0 0 0 0];

internalField   nonuniform List<scalar> 
525
(
0.000160822
3.91782e-05
0.000117026
4.37962e-05
8.13609e-05
3.56648e-05
5.4205e-05
2.71559e-05
3.41364e-05
2.00686e-05
1.91515e-05
1.49849e-05
7.94801e-06
1.12035e-05
8.97622e-07
7.05039e-06
8.97622e-07
0.000204944
3.42344e-05
0.000190238
5.85016e-05
0.000162103
6.38001e-05
0.000128453
6.08057e-05
9.40116e-05
5.45101e-05
6.1545e-05
4.74516e-05
3.27456e-05
4.00028e-05
1.02054e-05
2.95907e-05
1.1103e-05
0.000208655
2.55797e-05
0.000208067
5.90893e-05
0.000194078
7.77893e-05
0.00016832
8.65636e-05
0.000134228
8.86026e-05
9.55183e-05
8.61608e-05
5.57209e-05
7.98002e-05
1.9978e-05
6.53336e-05
3.1081e-05
0.000205056
2.05234e-05
0.000208181
5.59644e-05
0.000202637
8.33339e-05
0.000185915
0.000103286
0.000157846
0.000116671
0.000119855
0.000124152
7.48226e-05
0.000124833
2.90879e-05
0.000111068
6.01689e-05
0.00020238
1.81432e-05
0.000205269
5.3076e-05
0.000203745
8.4857e-05
0.00019392
0.000113111
0.00017297
0.000137621
0.000139319
0.000157803
9.31356e-05
0.000171016
3.94531e-05
0.000164751
9.9622e-05
0.000201254
1.68891e-05
0.000203805
5.05254e-05
0.000204731
8.39312e-05
0.000200432
0.00011741
0.000186931
0.000151121
0.000160134
0.000184601
0.000116382
0.000214767
5.57813e-05
0.000225352
0.000155403
0.000201178
1.57112e-05
0.000204433
4.72706e-05
0.000208088
8.02763e-05
0.00020943
0.000116067
0.000204647
0.000155904
0.000188664
0.000200584
0.000153177
0.000250255
8.78421e-05
0.000290687
0.000243245
0.000201719
1.39926e-05
0.000206761
4.22282e-05
0.000214119
7.29182e-05
0.000222063
0.000108123
0.000227727
0.00015024
0.000226208
0.000202103
0.000204839
0.000271624
0.000139073
0.000356452
0.000382319
0.000202632
1.1361e-05
0.000210261
3.45992e-05
0.000222141
6.10381e-05
0.00023767
9.25935e-05
0.000256917
0.000130994
0.000281819
0.000177201
0.000319289
0.000234153
0.000384219
0.000291522
0.000361558
0.00040498
0.000203916
7.44533e-06
0.00021463
2.38852e-05
0.000230963
4.47047e-05
0.000252687
7.08695e-05
0.000281192
0.000102488
0.000319936
0.000138457
0.00037268
0.00018141
0.000454287
0.000209915
0.000281417
0.000534428
0.000205984
1.46172e-06
0.000220233
9.63626e-06
0.000240152
2.47848e-05
0.000265192
4.583e-05
0.000296524
7.11564e-05
0.000336793
9.8188e-05
0.00038815
0.000130053
0.000454566
0.000143498
0.000187355
0.000548629
0.000209418
-7.95646e-06
0.00022734
-8.28507e-06
0.000248879
3.24569e-06
0.000273881
2.08272e-05
0.000303669
4.1369e-05
0.00034032
6.15372e-05
0.000386656
8.37162e-05
0.000438925
9.12297e-05
0.000111267
0.000515012
0.000214494
-2.24503e-05
0.000232312
-2.61032e-05
0.000250052
-1.44946e-05
0.00026981
1.06984e-06
0.000293839
1.73399e-05
0.000323983
3.13926e-05
0.000362834
4.48658e-05
0.000404617
4.94467e-05
5.65498e-05
0.000459334
0.000211668
-3.41181e-05
0.000216777
-3.1212e-05
0.000220494
-1.82118e-05
0.000227841
-6.27718e-06
0.000241919
3.26137e-06
0.000263276
1.00359e-05
0.000292659
1.54832e-05
0.00032501
1.70952e-05
1.85301e-05
0.00036303
0.000165882
0.00013467
0.000116458
0.000110181
0.000113442
0.000123478
0.000138961
0.000156057
0.000174587
0.000248123
0.000156856
5.77268e-05
0.000190397
0.000511115
0.000180169
9.18028e-05
0.000477039
0.000584597
0.000144202
8.50909e-05
0.000591309
0.000565388
9.38261e-05
5.87502e-05
0.000591728
0.000504902
4.82581e-05
2.8642e-05
0.00053501
0.000396503
1.47855e-05
6.833e-06
0.000418312
0.000189372
0.000196205
0.000195664
5.15315e-06
-1.04206e-05
0.000227401
-1.95358e-05
-1.22012e-05
0.000265299
-4.12137e-05
3.31618e-06
0.000302427
-6.54517e-05
2.83235e-05
0.000334336
-9.29233e-05
6.10142e-05
0.000359121
-0.00012194
9.71547e-05
0.00037544
-0.00014646
0.000130141
0.000383769
-0.000166598
0.000158268
-0.000167678
0.000168484
0.000452936
2.92563e-05
0.000446666
-1.32654e-05
0.000452284
-4.68318e-05
0.000462959
-7.61263e-05
0.000473082
-0.000103047
0.000478691
-0.000127549
0.000477743
-0.000145512
0.000469571
-0.000158425
-0.000152359
0.000586365
3.41999e-05
0.000580066
-6.96632e-06
0.000575329
-4.20949e-05
0.000570203
-7.10003e-05
0.000562453
-9.52968e-05
0.000549673
-0.000114769
0.000531206
-0.000127045
0.000506181
-0.000133401
-0.000123935
0.00060366
2.22687e-05
0.000606552
-9.85831e-06
0.000601659
-3.72024e-05
0.000590247
-5.95881e-05
0.000572112
-7.71621e-05
0.000546723
-8.93795e-05
0.000515227
-9.55487e-05
0.000477895
-9.60685e-05
-8.70292e-05
0.000550773
6.50575e-06
0.000554115
-1.31999e-05
0.00054646
-2.95477e-05
0.000528884
-4.20124e-05
0.00050233
-5.06078e-05
0.000468022
-5.50711e-05
0.000428411
-5.59382e-05
0.000385742
-5.33991e-05
-4.84419e-05
0.00042705
-2.23272e-06
0.000423317
-9.46658e-06
0.000408528
-1.4759e-05
0.000384505
-1.79893e-05
0.000353299
-1.94015e-05
0.000317474
-1.92461e-05
0.00027983
-1.8295e-05
0.000243306
-1.68744e-05
-1.68088e-05
0.000193972
0.000184506
0.000169747
0.000151758
0.000132356
0.00011311
9.4815e-05
7.79406e-05
-3.39369e-06
3.39369e-06
-1.189e-05
8.49635e-06
-2.1702e-05
9.81194e-06
-3.02862e-05
8.58418e-06
-3.58901e-05
5.60394e-06
-3.70898e-05
1.19965e-06
-3.28777e-05
-4.21205e-06
-2.31956e-05
-9.68215e-06
-1.57049e-05
-9.31505e-06
1.27087e-05
-2.61832e-05
2.53645e-05
-4.36376e-05
2.72664e-05
-5.72764e-05
2.22229e-05
-6.43074e-05
1.2635e-05
-6.31081e-05
3.10378e-10
-5.30658e-05
-1.42544e-05
-3.52309e-05
-2.7517e-05
-3.87784e-05
-1.17189e-05
2.44276e-05
-3.12074e-05
4.4853e-05
-5.01592e-05
4.62182e-05
-6.37077e-05
3.57714e-05
-6.90699e-05
1.79972e-05
-6.5003e-05
-4.06661e-06
-5.14493e-05
-2.78081e-05
-2.96004e-05
-4.93659e-05
-6.37754e-05
-1.14936e-05
3.59212e-05
-2.92343e-05
6.25937e-05
-4.53794e-05
6.23633e-05
-5.56064e-05
4.59984e-05
-5.75801e-05
1.99709e-05
-5.06077e-05
-1.1039e-05
-3.49824e-05
-4.34334e-05
-1.13529e-05
-7.29954e-05
-8.83366e-05
-9.44401e-06
4.53652e-05
-2.10489e-05
7.41985e-05
-2.97904e-05
7.11049e-05
-3.27866e-05
4.89946e-05
-2.86257e-05
1.581e-05
-1.73504e-05
-2.23143e-05
-2.98998e-07
-6.04848e-05
2.38212e-05
-9.71156e-05
-0.000113765
-5.6442e-06
5.10094e-05
-5.71834e-06
7.42727e-05
-1.19274e-06
6.65792e-05
8.35801e-06
3.94439e-05
2.25706e-05
1.59734e-06
4.05828e-05
-4.03264e-05
6.18642e-05
-8.17662e-05
8.37582e-05
-0.00011901
-0.000137964
4.31495e-06
4.66944e-05
2.21456e-05
5.64421e-05
4.658e-05
4.21448e-05
7.30098e-05
1.30141e-05
9.94177e-05
-2.48105e-05
0.000125483
-6.63922e-05
0.000149629
-0.000105912
0.000170946
-0.000140327
-0.000157324
3.62739e-05
8.05147e-05
0.000125976
0.000167313
0.000203517
0.000234279
0.000258509
0.00027645
)
;

boundaryField
{
    inlet
    {
        type            calculated;
        value           uniform -0.0002;
    }
    outlet
    {
        type            calculated;
        value           nonuniform List<scalar> 
15
(
-7.49066e-06
-1.21575e-05
-4.60342e-06
1.32084e-05
4.92496e-05
0.000107958
0.000190306
0.00028761
0.000382963
0.000454252
0.000477757
0.000440989
0.000347154
0.000211673
6.11318e-05
)
;
    }
    fixedWalls
    {
        type            calculated;
        value           uniform 0;
    }
    frontAndBack
    {
        type            empty;
    }
}


// ************************************************************************* //
