/*--------------------------------*- C++ -*----------------------------------*\
| =========                 |                                                 |
| \\      /  F ield         | OpenFOAM Extend Project: Open source CFD        |
|  \\    /   O peration     | Version:  1.6-ext                               |
|   \\  /    A nd           | Web:      www.extend-project.de                 |
|    \\/     M anipulation  |                                                 |
\*---------------------------------------------------------------------------*/
FoamFile
{
    version     2.0;
    format      ascii;
    class       volVectorField;
    location    "4.2";
    object      U;
}
// * * * * * * * * * * * * * * * * * * * * * * * * * * * * * * * * * * * * * //

dimensions      [0 1 -1 0 0 0 0];

internalField   nonuniform List<vector> 
284
(
(0.16378 0.0266035 0)
(0.141785 0.0268371 0)
(0.0987054 0.0192633 0)
(0.0662254 0.0122053 0)
(0.0430867 0.00724427 0)
(0.0258774 0.00429951 0)
(0.0128082 0.00253396 0)
(0.00284091 0.000888473 0)
(-0.000715587 -0.00120986 0)
(0.200598 0.0434035 0)
(0.202037 0.057777 0)
(0.179231 0.0536011 0)
(0.146287 0.0444698 0)
(0.11125 0.0351592 0)
(0.0773089 0.027577 0)
(0.0460724 0.0213884 0)
(0.018568 0.0143061 0)
(0.00297681 0.00339821 0)
(0.203093 0.0291705 0)
(0.210984 0.0599747 0)
(0.204494 0.0728928 0)
(0.183965 0.0756407 0)
(0.153151 0.0725478 0)
(0.115888 0.0665231 0)
(0.0754279 0.0584251 0)
(0.0345185 0.0452442 0)
(0.00725654 0.0193489 0)
(0.201523 0.0225013 0)
(0.207593 0.0574886 0)
(0.207856 0.0816324 0)
(0.197321 0.0966296 0)
(0.17487 0.104217 0)
(0.141415 0.105997 0)
(0.0986633 0.102024 0)
(0.0489531 0.0867542 0)
(0.0116448 0.0440416 0)
(0.200563 0.0190928 0)
(0.203984 0.0543736 0)
(0.205906 0.0846261 0)
(0.201348 0.109428 0)
(0.186704 0.128668 0)
(0.15983 0.14219 0)
(0.119293 0.14819 0)
(0.0643902 0.13676 0)
(0.0174226 0.0781393 0)
(0.200233 0.017439 0)
(0.20236 0.0517856 0)
(0.204907 0.0848305 0)
(0.20435 0.116357 0)
(0.196654 0.146024 0)
(0.177829 0.172983 0)
(0.14317 0.194133 0)
(0.0864836 0.194749 0)
(0.0277307 0.124253 0)
(0.200217 0.0163165 0)
(0.20243 0.0490903 0)
(0.206371 0.0827103 0)
(0.209811 0.118 0)
(0.209374 0.155566 0)
(0.200895 0.195306 0)
(0.178202 0.234239 0)
(0.124475 0.253385 0)
(0.0485542 0.196868 0)
(0.200345 0.0149322 0)
(0.203608 0.0451352 0)
(0.2101 0.0774257 0)
(0.218468 0.11359 0)
(0.226366 0.155625 0)
(0.230776 0.205794 0)
(0.22397 0.269968 0)
(0.197941 0.339535 0)
(0.0603445 0.286865 0)
(0.200547 0.0128139 0)
(0.205484 0.0389496 0)
(0.215432 0.0679437 0)
(0.22968 0.101875 0)
(0.247377 0.143054 0)
(0.271362 0.193896 0)
(0.299281 0.260897 0)
(0.357971 0.345133 0)
(0.399016 0.429269 0)
(0.20084 0.009632 0)
(0.207967 0.0299225 0)
(0.221683 0.0538701 0)
(0.241119 0.0830042 0)
(0.265878 0.118458 0)
(0.300465 0.160468 0)
(0.342611 0.2122 0)
(0.410829 0.255178 0)
(0.492171 0.337953 0)
(0.201385 0.00499305 0)
(0.211563 0.0176105 0)
(0.228987 0.0355852 0)
(0.251801 0.0590419 0)
(0.279623 0.0874037 0)
(0.315493 0.118694 0)
(0.360186 0.155908 0)
(0.417768 0.172317 0)
(0.498385 0.227971 0)
(0.202452 -0.0023728 0)
(0.21693 0.00137928 0)
(0.237176 0.0140465 0)
(0.260628 0.0328297 0)
(0.287803 0.0553719 0)
(0.320491 0.0784905 0)
(0.36211 0.105018 0)
(0.409688 0.113685 0)
(0.473702 0.141376 0)
(0.204209 -0.0136778 0)
(0.22273 -0.0175143 0)
(0.24091 -0.00734339 0)
(0.25929 0.00887041 0)
(0.280889 0.0270395 0)
(0.307326 0.0440959 0)
(0.342288 0.0616632 0)
(0.381726 0.0677968 0)
(0.430015 0.0787038 0)
(0.20175 -0.0351355 0)
(0.215147 -0.0365806 0)
(0.21869 -0.0225504 0)
(0.223042 -0.00701071 0)
(0.23351 0.0067285 0)
(0.250926 0.0175395 0)
(0.276887 0.0266636 0)
(0.307527 0.0296479 0)
(0.343254 0.032459 0)
(0.164656 -0.0248745 0)
(0.151328 -0.0222535 0)
(0.12434 -0.0125707 0)
(0.111233 -0.00487429 0)
(0.110341 0.000375134 0)
(0.11735 0.00367018 0)
(0.130586 0.00581015 0)
(0.147005 0.00611186 0)
(0.165342 0.00601891 0)
(0.354555 0.166903 0)
(0.184605 0.0441386 0)
(0.544559 0.178028 0)
(0.498304 0.0819252 0)
(0.576413 0.1672 0)
(0.596985 0.099644 0)
(0.543462 0.117695 0)
(0.584669 0.0746555 0)
(0.483176 0.0673755 0)
(0.523407 0.0419088 0)
(0.380614 0.0264424 0)
(0.409833 0.0133844 0)
(0.1828 0.00366265 0)
(0.194271 -0.000287049 0)
(0.186223 -0.00626034 0)
(0.207003 -0.015946 0)
(0.24439 -0.0306661 0)
(0.283783 -0.0532088 0)
(0.319099 -0.0818186 0)
(0.349577 -0.11347 0)
(0.36867 -0.141651 0)
(0.384849 -0.165616 0)
(0.382968 -0.171321 0)
(0.464262 0.0182863 0)
(0.446592 -0.0205482 0)
(0.446486 -0.0497135 0)
(0.456722 -0.0764333 0)
(0.46814 -0.102963 0)
(0.478885 -0.129092 0)
(0.478507 -0.149804 0)
(0.480334 -0.166262 0)
(0.45591 -0.163498 0)
(0.593288 0.0412701 0)
(0.584178 -0.00483936 0)
(0.577291 -0.0417387 0)
(0.573198 -0.072945 0)
(0.56694 -0.0999933 0)
(0.559259 -0.122952 0)
(0.540002 -0.138618 0)
(0.526135 -0.148748 0)
(0.480851 -0.140764 0)
(0.602472 0.0308142 0)
(0.607742 -0.00726553 0)
(0.605769 -0.0390708 0)
(0.598062 -0.0656465 0)
(0.58293 -0.087463 0)
(0.562738 -0.103936 0)
(0.530633 -0.113504 0)
(0.503486 -0.116914 0)
(0.445287 -0.106949 0)
(0.546615 0.0135201 0)
(0.555686 -0.0122839 0)
(0.553095 -0.0343635 0)
(0.540483 -0.0522147 0)
(0.517933 -0.065611 0)
(0.487931 -0.0738791 0)
(0.448157 -0.0769971 0)
(0.411865 -0.0749851 0)
(0.352077 -0.0671197 0)
(0.425651 -0.00116628 0)
(0.428155 -0.0139664 0)
(0.418634 -0.023893 0)
(0.39892 -0.0306169 0)
(0.370694 -0.0342563 0)
(0.336763 -0.0349255 0)
(0.298457 -0.0336135 0)
(0.263607 -0.0307496 0)
(0.216298 -0.0288888 0)
(0.196699 -0.00390183 0)
(0.190679 -0.0064095 0)
(0.178219 -0.00764948 0)
(0.161482 -0.00778203 0)
(0.142405 -0.00716085 0)
(0.122807 -0.00615722 0)
(0.103775 -0.00534729 0)
(0.087137 -0.00497818 0)
(0.0642728 -0.00598678 0)
(-0.000781515 0.000666847 0)
(-0.00661997 0.00282302 0)
(-0.016915 0.0036325 0)
(-0.0265891 0.00349076 0)
(-0.033964 0.00265026 0)
(-0.0374197 0.00111772 0)
(-0.0356401 -0.00102371 0)
(-0.0323889 -0.00343275 0)
(-0.00928194 -0.00665139 0)
(-0.00327803 0.00679373 0)
(-0.0163279 0.0152012 0)
(-0.0355191 0.0170847 0)
(-0.0520154 0.0146086 0)
(-0.0627645 0.00915535 0)
(-0.065521 0.00143147 0)
(-0.0591965 -0.0077292 0)
(-0.0501807 -0.0167148 0)
(-0.0143857 -0.0257339 0)
(-0.00440869 0.0183945 0)
(-0.0201234 0.0349648 0)
(-0.0417202 0.0368057 0)
(-0.0590257 0.0292977 0)
(-0.0688295 0.0158215 0)
(-0.0691489 -0.00140759 0)
(-0.0591708 -0.0203643 0)
(-0.0472626 -0.0377396 0)
(-0.00607134 -0.0507116 0)
(-0.0045421 0.0304548 0)
(-0.0194277 0.0544418 0)
(-0.0386249 0.0552071 0)
(-0.0527615 0.0418078 0)
(-0.059086 0.0198101 0)
(-0.0562173 -0.00695125 0)
(-0.0433373 -0.0354307 0)
(-0.0297572 -0.0611687 0)
(0.0107138 -0.0758795 0)
(-0.00420441 0.0411826 0)
(-0.0152341 0.0700113 0)
(-0.0269442 0.0687258 0)
(-0.0334247 0.0493761 0)
(-0.0328844 0.0194638 0)
(-0.0248665 -0.0157474 0)
(-0.00862835 -0.0519009 0)
(0.00777404 -0.0856329 0)
(0.0450207 -0.101665 0)
(-0.00344999 0.0491012 0)
(-0.00715833 0.0772468 0)
(-0.00477176 0.0723752 0)
(0.00211431 0.0474202 0)
(0.014044 0.0113734 0)
(0.0307192 -0.0299354 0)
(0.0509839 -0.0708992 0)
(0.0709366 -0.108834 0)
(0.103418 -0.127269 0)
(0.000726859 0.0565193 0)
(0.00920309 0.0723964 0)
(0.0332964 0.0602114 0)
(0.0588334 0.0308366 0)
(0.085645 -0.00834865 0)
(0.112831 -0.0517881 0)
(0.138352 -0.0936124 0)
(0.161238 -0.130473 0)
(0.186717 -0.149465 0)
(0.0272565 0.0289787 0)
(0.0521668 0.037952 0)
(0.102947 0.0229753 0)
(0.146842 -0.00541266 0)
(0.185899 -0.0419473 0)
(0.220724 -0.0818483 0)
(0.24796 -0.11891 0)
(0.270804 -0.150798 0)
(0.285765 -0.165232 0)
)
;

boundaryField
{
    inlet
    {
        type            fixedValue;
        value           uniform (0.2 0 0);
    }
    outlet
    {
        type            zeroGradient;
    }
    fixedWalls
    {
        type            fixedValue;
        value           uniform (0 0 0);
    }
    frontAndBack
    {
        type            empty;
    }
}


// ************************************************************************* //
