/*--------------------------------*- C++ -*----------------------------------*\
| =========                 |                                                 |
| \\      /  F ield         | OpenFOAM Extend Project: Open source CFD        |
|  \\    /   O peration     | Version:  1.6-ext                               |
|   \\  /    A nd           | Web:      www.extend-project.de                 |
|    \\/     M anipulation  |                                                 |
\*---------------------------------------------------------------------------*/
FoamFile
{
    version     2.0;
    format      ascii;
    class       surfaceScalarField;
    location    "3.4";
    object      phi;
}
// * * * * * * * * * * * * * * * * * * * * * * * * * * * * * * * * * * * * * //

dimensions      [0 3 -1 0 0 0 0];

internalField   nonuniform List<scalar> 
127
(
-4.38315e-06
4.38315e-06
-1.35996e-05
9.21646e-06
-2.28981e-05
9.29844e-06
-2.94431e-05
6.54505e-06
-3.17679e-05
2.32481e-06
-2.92804e-05
-2.48747e-06
-2.20165e-05
-7.26392e-06
-1.11905e-05
-1.0826e-05
-1.45556e-05
-9.93863e-06
1.43218e-05
-2.6358e-05
2.56358e-05
-4.11751e-05
2.41156e-05
-4.98032e-05
1.51731e-05
-5.01665e-05
2.68807e-06
-4.20263e-05
-1.06277e-05
-2.65652e-05
-2.27249e-05
-5.5253e-06
-3.18659e-05
-3.64507e-05
-1.20562e-05
2.63779e-05
-3.0589e-05
4.41686e-05
-4.61508e-05
3.96774e-05
-5.37267e-05
2.2749e-05
-5.11696e-05
1.30984e-07
-3.86934e-05
-2.31039e-05
-1.79828e-05
-4.34355e-05
8.6372e-06
-5.8486e-05
-6.32282e-05
-1.22846e-05
3.86625e-05
-2.98179e-05
6.17019e-05
-4.33898e-05
5.32493e-05
-4.82686e-05
2.76278e-05
-4.2552e-05
-5.58554e-06
-2.6773e-05
-3.88829e-05
-3.02359e-06
-6.71849e-05
2.7044e-05
-8.85536e-05
-9.32612e-05
-1.08636e-05
4.95261e-05
-2.34367e-05
7.4275e-05
-3.11108e-05
6.09235e-05
-3.01915e-05
2.67086e-05
-1.96271e-05
-1.615e-05
9.29715e-08
-5.8603e-05
2.64579e-05
-9.35498e-05
5.6739e-05
-0.000118835
-0.000123888
-6.80572e-06
5.63319e-05
-8.03962e-06
7.55089e-05
-3.31469e-06
5.61985e-05
8.538e-06
1.48559e-05
2.67233e-05
-3.43353e-05
5.03772e-05
-8.22568e-05
7.80703e-05
-0.000121243
0.00010695
-0.000147714
-0.000151524
5.01105e-06
5.13208e-05
2.36014e-05
5.69185e-05
4.87668e-05
3.10331e-05
7.60558e-05
-1.24331e-05
0.000103917
-6.21969e-05
0.000131704
-0.000110043
0.000158049
-0.000147588
0.000182387
-0.000172052
-0.00017192
4.04267e-05
8.86406e-05
0.000135834
0.00017718
0.00021202
0.000240281
0.000261637
0.000277193
)
;

boundaryField
{
    inlet
    {
        type            calculated;
        value           nonuniform 0();
    }
    outlet
    {
        type            calculated;
        value           nonuniform List<scalar> 8(3.36511e-06 1.63698e-05 3.54147e-05 5.7077e-05 8.73657e-05 0.000134586 0.000202783 0.000286055);
    }
    fixedWalls
    {
        type            calculated;
        value           uniform 0;
    }
    frontAndBack
    {
        type            empty;
    }
    procBoundary0to1
    {
        type            processor;
        value           nonuniform List<scalar> 9(1.08941e-05 8.70461e-06 -1.61603e-05 -5.37788e-05 -9.70376e-05 -0.000138304 -0.000168944 -0.000187608 -0.000180783);
    }
}


// ************************************************************************* //
