/*--------------------------------*- C++ -*----------------------------------*\
| =========                 |                                                 |
| \\      /  F ield         | OpenFOAM Extend Project: Open source CFD        |
|  \\    /   O peration     | Version:  1.6-ext                               |
|   \\  /    A nd           | Web:      www.extend-project.de                 |
|    \\/     M anipulation  |                                                 |
\*---------------------------------------------------------------------------*/
FoamFile
{
    version     2.0;
    format      ascii;
    class       volScalarField;
    location    "3.6";
    object      p;
}
// * * * * * * * * * * * * * * * * * * * * * * * * * * * * * * * * * * * * * //

dimensions      [0 2 -2 0 0 0 0];

internalField   nonuniform List<scalar> 
72
(
-0.0305481
-0.0315836
-0.0305251
-0.0278108
-0.0234271
-0.0175426
-0.0107212
-0.00575053
0.00603542
-0.0295045
-0.0306736
-0.0298857
-0.0277609
-0.0241063
-0.0188274
-0.0122228
-0.00748127
0.0053278
-0.0308478
-0.0322382
-0.0317582
-0.0300169
-0.0266217
-0.0212957
-0.0141303
-0.00890744
0.00517153
-0.0342229
-0.0355842
-0.0354204
-0.0340767
-0.0308562
-0.0253559
-0.017597
-0.011076
0.00405963
-0.0396411
-0.0404513
-0.0405241
-0.0396154
-0.0365527
-0.0308135
-0.0222463
-0.0133752
0.00160278
-0.046901
-0.0460884
-0.0462868
-0.0457937
-0.0429906
-0.0367457
-0.0273545
-0.0159671
-0.00128258
-0.0554255
-0.0510734
-0.0512125
-0.0506258
-0.0478612
-0.0412748
-0.0310497
-0.0181475
-0.00376945
-0.0735553
-0.0564503
-0.0545727
-0.0532736
-0.0497519
-0.0425714
-0.0319204
-0.0185809
-0.00518817
)
;

boundaryField
{
    inlet
    {
        type            zeroGradient;
    }
    outlet
    {
        type            totalPressure;
        rho             none;
        psi             none;
        gamma           1;
        p0              uniform 0;
        value           nonuniform List<scalar> 8(-1.98101e-05 0 0 0 0 0 0 0);
    }
    fixedWalls
    {
        type            zeroGradient;
    }
    frontAndBack
    {
        type            empty;
    }
    procBoundary0to1
    {
        type            processor;
        value           nonuniform List<scalar> 9(-0.0660145 -0.0573466 -0.0538749 -0.0513002 -0.0469327 -0.0393057 -0.0290128 -0.0166148 -0.00539931);
    }
}


// ************************************************************************* //
