/*--------------------------------*- C++ -*----------------------------------*\
| =========                 |                                                 |
| \\      /  F ield         | OpenFOAM Extend Project: Open source CFD        |
|  \\    /   O peration     | Version:  1.6-ext                               |
|   \\  /    A nd           | Web:      www.extend-project.de                 |
|    \\/     M anipulation  |                                                 |
\*---------------------------------------------------------------------------*/
FoamFile
{
    version     2.0;
    format      ascii;
    class       surfaceScalarField;
    location    "3.6";
    object      phi;
}
// * * * * * * * * * * * * * * * * * * * * * * * * * * * * * * * * * * * * * //

dimensions      [0 3 -1 0 0 0 0];

internalField   nonuniform List<scalar> 
127
(
-4.13967e-06
4.13967e-06
-1.32603e-05
9.12062e-06
-2.28503e-05
9.58996e-06
-3.01119e-05
7.26162e-06
-3.34521e-05
3.34023e-06
-3.20187e-05
-1.4334e-06
-2.55544e-05
-6.46424e-06
-1.502e-05
-1.05344e-05
-1.49299e-05
-9.85719e-06
1.39969e-05
-2.65927e-05
2.58561e-05
-4.23723e-05
2.53695e-05
-5.25982e-05
1.74875e-05
-5.48998e-05
5.64185e-06
-4.86763e-05
-7.65689e-06
-3.4584e-05
-2.05566e-05
-1.4617e-05
-3.05015e-05
-3.78469e-05
-1.20495e-05
2.60464e-05
-3.10355e-05
4.48421e-05
-4.77691e-05
4.21031e-05
-5.7201e-05
2.69194e-05
-5.69176e-05
5.35845e-06
-4.66947e-05
-1.78798e-05
-2.77144e-05
-3.95369e-05
-9.32697e-07
-5.72832e-05
-6.36038e-05
-1.21061e-05
3.81525e-05
-2.98355e-05
6.25715e-05
-4.4341e-05
5.66086e-05
-5.09666e-05
3.35451e-05
-4.7442e-05
1.83387e-06
-3.40798e-05
-3.1242e-05
-1.23009e-05
-6.13159e-05
1.63649e-05
-8.5949e-05
-9.31833e-05
-1.0436e-05
4.85885e-05
-2.27955e-05
7.4931e-05
-3.09388e-05
6.4752e-05
-3.13444e-05
3.39506e-05
-2.2821e-05
-6.68954e-06
-5.53621e-06
-4.85268e-05
1.85466e-05
-8.53987e-05
4.7305e-05
-0.000114707
-0.000123301
-6.38663e-06
5.49751e-05
-7.26479e-06
7.58091e-05
-2.68498e-06
6.01722e-05
8.38617e-06
2.28794e-05
2.52292e-05
-2.35325e-05
4.73239e-05
-7.06215e-05
7.32977e-05
-0.000111372
0.000100499
-0.000141909
-0.000150491
4.90801e-06
5.00671e-05
2.33712e-05
5.73459e-05
4.83379e-05
3.52055e-05
7.55053e-05
-4.28801e-06
0.000102952
-5.09793e-05
0.000130296
-9.7965e-05
0.000156105
-0.000137182
0.000179785
-0.00016559
-0.000170797
3.92549e-05
8.64478e-05
0.00013338
0.000174884
0.000210382
0.000239581
0.000261918
0.000278242
)
;

boundaryField
{
    inlet
    {
        type            calculated;
        value           nonuniform 0();
    }
    outlet
    {
        type            calculated;
        value           nonuniform List<scalar> 8(-9.00827e-08 8.3e-06 2.48242e-05 4.59444e-05 7.74223e-05 0.000127689 0.000200092 0.000287717);
    }
    fixedWalls
    {
        type            calculated;
        value           uniform 0;
    }
    frontAndBack
    {
        type            empty;
    }
    procBoundary0to1
    {
        type            processor;
        value           nonuniform List<scalar> 9(1.08122e-05 1.0153e-05 -1.17266e-05 -4.57921e-05 -8.64773e-05 -0.000127164 -0.000159518 -0.000181914 -0.000180272);
    }
}


// ************************************************************************* //
