/*--------------------------------*- C++ -*----------------------------------*\
| =========                 |                                                 |
| \\      /  F ield         | OpenFOAM Extend Project: Open source CFD        |
|  \\    /   O peration     | Version:  1.6-ext                               |
|   \\  /    A nd           | Web:      www.extend-project.de                 |
|    \\/     M anipulation  |                                                 |
\*---------------------------------------------------------------------------*/
FoamFile
{
    version     2.0;
    format      ascii;
    class       vectorField;
    location    "1.15";
    object      accumulatedFluidInterfaceDisplacement;
}
// * * * * * * * * * * * * * * * * * * * * * * * * * * * * * * * * * * * * * //


338
(
(3.96499e-09 -2.82956e-07 9.1184e-27)
(-1.90547e-07 -3.08147e-07 1.08241e-26)
(-1.05353e-06 -1.68901e-05 -3.33818e-27)
(-1.1587e-06 -1.65851e-05 -1.59365e-26)
(-1.16437e-06 -1.61772e-05 -1.53781e-26)
(-1.16855e-06 -1.57682e-05 -3.44925e-26)
(-1.17117e-06 -1.53593e-05 -2.89542e-26)
(-1.17265e-06 -1.49512e-05 5.73318e-27)
(-1.17337e-06 -1.45443e-05 2.64023e-26)
(-1.17364e-06 -1.41384e-05 3.58997e-26)
(-1.17371e-06 -1.37335e-05 1.04673e-26)
(-1.17369e-06 -1.33293e-05 -1.37986e-26)
(-1.17364e-06 -1.29255e-05 -1.36868e-26)
(-1.17353e-06 -1.25218e-05 2.65781e-26)
(-1.17327e-06 -1.2118e-05 2.60534e-26)
(-1.17275e-06 -1.17139e-05 -1.36444e-26)
(-1.17181e-06 -1.13096e-05 -3.69324e-26)
(-1.17029e-06 -1.09052e-05 -2.80899e-26)
(-1.16799e-06 -1.05008e-05 1.22157e-26)
(-1.16475e-06 -1.00967e-05 1.53533e-26)
(-1.16039e-06 -9.69331e-06 4.536e-28)
(-1.15473e-06 -9.29113e-06 -2.91244e-26)
(-1.14762e-06 -8.89075e-06 -2.33328e-26)
(-1.13893e-06 -8.49285e-06 -2.87614e-27)
(-1.12853e-06 -8.09815e-06 5.09101e-28)
(-1.11633e-06 -7.70748e-06 8.75568e-27)
(-1.10227e-06 -7.32166e-06 5.17553e-27)
(-1.08629e-06 -6.94159e-06 -5.22853e-27)
(-1.06839e-06 -6.56816e-06 -1.25076e-26)
(-1.04857e-06 -6.20227e-06 -3.94415e-27)
(-1.02688e-06 -5.8448e-06 7.02025e-27)
(-1.00339e-06 -5.4966e-06 1.51672e-26)
(-9.78189e-07 -5.15849e-06 1.24359e-26)
(-9.51407e-07 -4.83122e-06 8.14066e-27)
(-9.23186e-07 -4.51547e-06 1.97417e-28)
(-8.9369e-07 -4.21186e-06 -4.39711e-27)
(-8.63101e-07 -3.92087e-06 5.931e-28)
(-8.31614e-07 -3.64294e-06 3.35628e-27)
(-7.99435e-07 -3.37835e-06 8.77707e-28)
(-7.66773e-07 -3.12732e-06 -3.40516e-27)
(-7.33842e-07 -2.88992e-06 5.33873e-27)
(-7.00853e-07 -2.66612e-06 3.8898e-27)
(-6.68008e-07 -2.4558e-06 -1.17778e-27)
(-6.35503e-07 -2.25871e-06 -1.31113e-27)
(-6.03516e-07 -2.07452e-06 -8.77322e-27)
(-5.7221e-07 -1.90282e-06 -5.70524e-27)
(-5.41728e-07 -1.74309e-06 5.65708e-27)
(-5.1219e-07 -1.59477e-06 -1.79453e-28)
(-4.83692e-07 -1.45724e-06 -8.1491e-27)
(-4.56303e-07 -1.32986e-06 -2.50063e-27)
(-4.30069e-07 -1.21192e-06 3.60966e-28)
(-4.05006e-07 -1.10273e-06 4.27585e-27)
(-3.81108e-07 -1.00161e-06 4.74982e-27)
(-3.58342e-07 -9.07878e-07 -6.28451e-27)
(-3.36654e-07 -8.2088e-07 3.20987e-27)
(-3.15969e-07 -7.4001e-07 5.72266e-27)
(-2.96195e-07 -6.64709e-07 -2.22784e-27)
(-2.77223e-07 -5.94475e-07 1.74954e-26)
(-2.58935e-07 -5.28874e-07 8.10634e-27)
(-2.41203e-07 -4.67538e-07 1.0753e-27)
(-2.23892e-07 -4.10175e-07 -2.55436e-27)
(-2.06869e-07 -3.56568e-07 -1.25541e-26)
(-3.51933e-07 -1.69903e-05 -4.23636e-27)
(-7.51274e-07 -1.69916e-05 2.02987e-27)
(3.46445e-07 -1.68817e-05 -2.4008e-26)
(4.67847e-08 -1.69866e-05 -4.94847e-27)
(2.5992e-09 -3.31433e-07 1.04167e-26)
(1.46273e-09 -3.85102e-07 1.13359e-27)
(7.51886e-10 -4.4253e-07 -4.07366e-27)
(6.12199e-10 -5.03935e-07 -7.54959e-27)
(1.18829e-09 -5.69608e-07 -3.63742e-27)
(2.61963e-09 -6.39914e-07 -3.23266e-27)
(5.03771e-09 -7.15289e-07 7.88788e-27)
(8.56259e-09 -7.96231e-07 5.33801e-27)
(1.32999e-08 -8.83301e-07 -1.49497e-26)
(1.93378e-08 -9.77104e-07 -2.81094e-27)
(2.67446e-08 -1.07829e-06 -4.22655e-27)
(3.55662e-08 -1.18753e-06 -8.33397e-27)
(4.58244e-08 -1.30553e-06 8.86769e-27)
(5.75155e-08 -1.43297e-06 6.48691e-27)
(7.06098e-08 -1.57054e-06 3.12769e-27)
(8.50512e-08 -1.7189e-06 7.15641e-27)
(1.00758e-07 -1.87867e-06 -3.71716e-27)
(1.17622e-07 -2.05042e-06 3.36146e-27)
(1.35515e-07 -2.23464e-06 1.29526e-26)
(1.54286e-07 -2.43176e-06 8.06247e-28)
(1.73767e-07 -2.64212e-06 -1.80271e-27)
(1.93773e-07 -2.86595e-06 8.34051e-27)
(2.1411e-07 -3.10339e-06 2.54301e-27)
(2.34576e-07 -3.35448e-06 -1.06128e-26)
(2.54966e-07 -3.61912e-06 -5.76803e-28)
(2.75075e-07 -3.89713e-06 -2.45934e-28)
(2.94702e-07 -4.18819e-06 -3.67502e-27)
(3.13656e-07 -4.49191e-06 -1.67769e-26)
(3.31759e-07 -4.80777e-06 -1.7774e-26)
(3.48848e-07 -5.13517e-06 -1.09525e-27)
(3.64779e-07 -5.47344e-06 -5.23784e-27)
(3.79432e-07 -5.82181e-06 -5.96689e-27)
(3.92709e-07 -6.17949e-06 -6.59439e-27)
(4.04541e-07 -6.5456e-06 -5.17392e-28)
(4.14886e-07 -6.91929e-06 -1.53758e-26)
(4.23728e-07 -7.29963e-06 -1.32376e-26)
(4.31084e-07 -7.68574e-06 -8.8699e-27)
(4.36995e-07 -8.07675e-06 -5.69811e-27)
(4.41533e-07 -8.47179e-06 -7.41084e-27)
(4.44792e-07 -8.87007e-06 -8.95545e-27)
(4.46892e-07 -9.27085e-06 1.42077e-28)
(4.47975e-07 -9.67345e-06 -6.5874e-27)
(4.48199e-07 -1.00773e-05 1.81977e-26)
(4.4774e-07 -1.04819e-05 1.85656e-26)
(4.46782e-07 -1.08868e-05 4.3806e-27)
(4.45517e-07 -1.12917e-05 3.98201e-27)
(4.44136e-07 -1.16965e-05 1.2729e-26)
(4.42825e-07 -1.21011e-05 2.19735e-26)
(4.41752e-07 -1.25055e-05 2.23945e-28)
(4.41064e-07 -1.29098e-05 -2.79452e-26)
(4.40866e-07 -1.33143e-05 -4.8596e-27)
(4.41215e-07 -1.37191e-05 2.95027e-26)
(4.42098e-07 -1.41247e-05 1.5473e-26)
(4.43419e-07 -1.45312e-05 -1.05302e-26)
(4.44988e-07 -1.4939e-05 7.38935e-28)
(4.46516e-07 -1.53479e-05 4.58956e-28)
(4.47633e-07 -1.57576e-05 3.76947e-28)
(4.47892e-07 -1.61675e-05 3.62057e-26)
(4.47129e-07 -1.65758e-05 2.16408e-27)
(-5.39011e-10 -2.07654e-10 9.32068e-26)
(6.53786e-11 -1.64515e-10 -1.11945e-26)
(1.38119e-09 -3.28216e-10 -7.97041e-26)
(2.79591e-09 -1.04655e-09 -6.21573e-26)
(4.15837e-09 -2.40877e-09 2.92189e-26)
(5.42015e-09 -4.4846e-09 8.74251e-26)
(6.56134e-09 -7.34442e-09 -2.12681e-26)
(7.57154e-09 -1.10639e-08 -3.58746e-26)
(8.44623e-09 -1.57302e-08 1.58897e-26)
(9.18278e-09 -2.14449e-08 3.55244e-27)
(9.77886e-09 -2.83282e-08 -2.94717e-26)
(1.02309e-08 -3.65211e-08 6.16521e-29)
(1.05334e-08 -4.61881e-08 1.37081e-26)
(1.06788e-08 -5.75189e-08 2.53049e-27)
(1.06577e-08 -7.0731e-08 1.1759e-26)
(1.046e-08 -8.60718e-08 1.64802e-26)
(1.00758e-08 -1.03821e-07 -1.28526e-26)
(9.49733e-09 -1.24297e-07 -2.0213e-26)
(8.72189e-09 -1.47857e-07 3.91096e-27)
(7.755e-09 -1.74911e-07 3.9779e-27)
(6.61496e-09 -2.05928e-07 2.30337e-29)
(5.33921e-09 -2.41454e-07 -4.5953e-27)
(-1.51383e-08 -8.7914e-09 -7.20552e-26)
(-1.75616e-07 -2.66691e-07 1.46313e-26)
(-1.61906e-07 -2.31205e-07 6.89677e-27)
(-1.49012e-07 -2.00223e-07 -1.48214e-26)
(-1.36847e-07 -1.73204e-07 -4.22442e-27)
(-1.25339e-07 -1.49678e-07 2.79887e-26)
(-1.14436e-07 -1.2924e-07 -7.77476e-27)
(-1.04096e-07 -1.11531e-07 -2.21861e-26)
(-9.42851e-08 -9.62346e-08 -1.67636e-27)
(-8.49769e-08 -8.30672e-08 -1.50256e-27)
(-7.61511e-08 -7.17742e-08 -1.13063e-26)
(-6.77931e-08 -6.21249e-08 2.28068e-26)
(-5.98936e-08 -5.39073e-08 -1.66237e-26)
(-5.24509e-08 -4.69246e-08 -1.62853e-26)
(-4.54723e-08 -4.09895e-08 2.85129e-26)
(-3.89805e-08 -3.59185e-08 -2.0943e-26)
(-3.30193e-08 -3.15225e-08 -5.97554e-28)
(-2.76683e-08 -2.76004e-08 4.63306e-26)
(-2.30495e-08 -2.39154e-08 2.39447e-26)
(-1.93586e-08 -2.0206e-08 -5.20468e-26)
(-1.67957e-08 -1.61082e-08 3.02286e-26)
(-1.54766e-08 -1.13474e-08 4.04066e-26)
(3.96499e-09 -2.82956e-07 9.1184e-27)
(-1.90547e-07 -3.08147e-07 1.08241e-26)
(-1.05353e-06 -1.68901e-05 -3.33818e-27)
(-1.1587e-06 -1.65851e-05 -1.59365e-26)
(-1.16437e-06 -1.61772e-05 -1.53781e-26)
(-1.16855e-06 -1.57682e-05 -3.44925e-26)
(-1.17117e-06 -1.53593e-05 -2.89542e-26)
(-1.17265e-06 -1.49512e-05 5.73318e-27)
(-1.17337e-06 -1.45443e-05 2.64023e-26)
(-1.17364e-06 -1.41384e-05 3.58997e-26)
(-1.17371e-06 -1.37335e-05 1.04673e-26)
(-1.17369e-06 -1.33293e-05 -1.37986e-26)
(-1.17364e-06 -1.29255e-05 -1.36868e-26)
(-1.17353e-06 -1.25218e-05 2.65781e-26)
(-1.17327e-06 -1.2118e-05 2.60534e-26)
(-1.17275e-06 -1.17139e-05 -1.36444e-26)
(-1.17181e-06 -1.13096e-05 -3.69324e-26)
(-1.17029e-06 -1.09052e-05 -2.80899e-26)
(-1.16799e-06 -1.05008e-05 1.22157e-26)
(-1.16475e-06 -1.00967e-05 1.53533e-26)
(-1.16039e-06 -9.69331e-06 4.536e-28)
(-1.15473e-06 -9.29113e-06 -2.91244e-26)
(-1.14762e-06 -8.89075e-06 -2.33328e-26)
(-1.13893e-06 -8.49285e-06 -2.87614e-27)
(-1.12853e-06 -8.09815e-06 5.09101e-28)
(-1.11633e-06 -7.70748e-06 8.75568e-27)
(-1.10227e-06 -7.32166e-06 5.17553e-27)
(-1.08629e-06 -6.94159e-06 -5.22853e-27)
(-1.06839e-06 -6.56816e-06 -1.25076e-26)
(-1.04857e-06 -6.20227e-06 -3.94415e-27)
(-1.02688e-06 -5.8448e-06 7.02025e-27)
(-1.00339e-06 -5.4966e-06 1.51672e-26)
(-9.78189e-07 -5.15849e-06 1.24359e-26)
(-9.51407e-07 -4.83122e-06 8.14066e-27)
(-9.23186e-07 -4.51547e-06 1.97417e-28)
(-8.9369e-07 -4.21186e-06 -4.39711e-27)
(-8.63101e-07 -3.92087e-06 5.931e-28)
(-8.31614e-07 -3.64294e-06 3.35628e-27)
(-7.99435e-07 -3.37835e-06 8.77707e-28)
(-7.66773e-07 -3.12732e-06 -3.40516e-27)
(-7.33842e-07 -2.88992e-06 5.33873e-27)
(-7.00853e-07 -2.66612e-06 3.8898e-27)
(-6.68008e-07 -2.4558e-06 -1.17778e-27)
(-6.35503e-07 -2.25871e-06 -1.31113e-27)
(-6.03516e-07 -2.07452e-06 -8.77322e-27)
(-5.7221e-07 -1.90282e-06 -5.70524e-27)
(-5.41728e-07 -1.74309e-06 5.65708e-27)
(-5.1219e-07 -1.59477e-06 -1.79453e-28)
(-4.83692e-07 -1.45724e-06 -8.1491e-27)
(-4.56303e-07 -1.32986e-06 -2.50063e-27)
(-4.30069e-07 -1.21192e-06 3.60966e-28)
(-4.05006e-07 -1.10273e-06 4.27585e-27)
(-3.81108e-07 -1.00161e-06 4.74982e-27)
(-3.58342e-07 -9.07878e-07 -6.28451e-27)
(-3.36654e-07 -8.2088e-07 3.20987e-27)
(-3.15969e-07 -7.4001e-07 5.72266e-27)
(-2.96195e-07 -6.64709e-07 -2.22784e-27)
(-2.77223e-07 -5.94475e-07 1.74954e-26)
(-2.58935e-07 -5.28874e-07 8.10634e-27)
(-2.41203e-07 -4.67538e-07 1.0753e-27)
(-2.23892e-07 -4.10175e-07 -2.55436e-27)
(-2.06869e-07 -3.56568e-07 -1.25541e-26)
(-3.51933e-07 -1.69903e-05 -4.23636e-27)
(-7.51274e-07 -1.69916e-05 2.02987e-27)
(3.46445e-07 -1.68817e-05 -2.4008e-26)
(4.67847e-08 -1.69866e-05 -4.94847e-27)
(2.5992e-09 -3.31433e-07 1.04167e-26)
(1.46273e-09 -3.85102e-07 1.13359e-27)
(7.51886e-10 -4.4253e-07 -4.07366e-27)
(6.12199e-10 -5.03935e-07 -7.54959e-27)
(1.18829e-09 -5.69608e-07 -3.63742e-27)
(2.61963e-09 -6.39914e-07 -3.23266e-27)
(5.03771e-09 -7.15289e-07 7.88788e-27)
(8.56259e-09 -7.96231e-07 5.33801e-27)
(1.32999e-08 -8.83301e-07 -1.49497e-26)
(1.93378e-08 -9.77104e-07 -2.81094e-27)
(2.67446e-08 -1.07829e-06 -4.22655e-27)
(3.55662e-08 -1.18753e-06 -8.33397e-27)
(4.58244e-08 -1.30553e-06 8.86769e-27)
(5.75155e-08 -1.43297e-06 6.48691e-27)
(7.06098e-08 -1.57054e-06 3.12769e-27)
(8.50512e-08 -1.7189e-06 7.15641e-27)
(1.00758e-07 -1.87867e-06 -3.71716e-27)
(1.17622e-07 -2.05042e-06 3.36146e-27)
(1.35515e-07 -2.23464e-06 1.29526e-26)
(1.54286e-07 -2.43176e-06 8.06247e-28)
(1.73767e-07 -2.64212e-06 -1.80271e-27)
(1.93773e-07 -2.86595e-06 8.34051e-27)
(2.1411e-07 -3.10339e-06 2.54301e-27)
(2.34576e-07 -3.35448e-06 -1.06128e-26)
(2.54966e-07 -3.61912e-06 -5.76803e-28)
(2.75075e-07 -3.89713e-06 -2.45934e-28)
(2.94702e-07 -4.18819e-06 -3.67502e-27)
(3.13656e-07 -4.49191e-06 -1.67769e-26)
(3.31759e-07 -4.80777e-06 -1.7774e-26)
(3.48848e-07 -5.13517e-06 -1.09525e-27)
(3.64779e-07 -5.47344e-06 -5.23784e-27)
(3.79432e-07 -5.82181e-06 -5.96689e-27)
(3.92709e-07 -6.17949e-06 -6.59439e-27)
(4.04541e-07 -6.5456e-06 -5.17392e-28)
(4.14886e-07 -6.91929e-06 -1.53758e-26)
(4.23728e-07 -7.29963e-06 -1.32376e-26)
(4.31084e-07 -7.68574e-06 -8.8699e-27)
(4.36995e-07 -8.07675e-06 -5.69811e-27)
(4.41533e-07 -8.47179e-06 -7.41084e-27)
(4.44792e-07 -8.87007e-06 -8.95545e-27)
(4.46892e-07 -9.27085e-06 1.42077e-28)
(4.47975e-07 -9.67345e-06 -6.5874e-27)
(4.48199e-07 -1.00773e-05 1.81977e-26)
(4.4774e-07 -1.04819e-05 1.85656e-26)
(4.46782e-07 -1.08868e-05 4.3806e-27)
(4.45517e-07 -1.12917e-05 3.98201e-27)
(4.44136e-07 -1.16965e-05 1.2729e-26)
(4.42825e-07 -1.21011e-05 2.19735e-26)
(4.41752e-07 -1.25055e-05 2.23945e-28)
(4.41064e-07 -1.29098e-05 -2.79452e-26)
(4.40866e-07 -1.33143e-05 -4.8596e-27)
(4.41215e-07 -1.37191e-05 2.95027e-26)
(4.42098e-07 -1.41247e-05 1.5473e-26)
(4.43419e-07 -1.45312e-05 -1.05302e-26)
(4.44988e-07 -1.4939e-05 7.38935e-28)
(4.46516e-07 -1.53479e-05 4.58956e-28)
(4.47633e-07 -1.57576e-05 3.76947e-28)
(4.47892e-07 -1.61675e-05 3.62057e-26)
(4.47129e-07 -1.65758e-05 2.16408e-27)
(-5.39011e-10 -2.07654e-10 9.32068e-26)
(6.53786e-11 -1.64515e-10 -1.11945e-26)
(1.38119e-09 -3.28216e-10 -7.97041e-26)
(2.79591e-09 -1.04655e-09 -6.21573e-26)
(4.15837e-09 -2.40877e-09 2.92189e-26)
(5.42015e-09 -4.4846e-09 8.74251e-26)
(6.56134e-09 -7.34442e-09 -2.12681e-26)
(7.57154e-09 -1.10639e-08 -3.58746e-26)
(8.44623e-09 -1.57302e-08 1.58897e-26)
(9.18278e-09 -2.14449e-08 3.55244e-27)
(9.77886e-09 -2.83282e-08 -2.94717e-26)
(1.02309e-08 -3.65211e-08 6.16521e-29)
(1.05334e-08 -4.61881e-08 1.37081e-26)
(1.06788e-08 -5.75189e-08 2.53049e-27)
(1.06577e-08 -7.0731e-08 1.1759e-26)
(1.046e-08 -8.60718e-08 1.64802e-26)
(1.00758e-08 -1.03821e-07 -1.28526e-26)
(9.49733e-09 -1.24297e-07 -2.0213e-26)
(8.72189e-09 -1.47857e-07 3.91096e-27)
(7.755e-09 -1.74911e-07 3.9779e-27)
(6.61496e-09 -2.05928e-07 2.30337e-29)
(5.33921e-09 -2.41454e-07 -4.5953e-27)
(-1.51383e-08 -8.7914e-09 -7.20552e-26)
(-1.75616e-07 -2.66691e-07 1.46313e-26)
(-1.61906e-07 -2.31205e-07 6.89677e-27)
(-1.49012e-07 -2.00223e-07 -1.48214e-26)
(-1.36847e-07 -1.73204e-07 -4.22442e-27)
(-1.25339e-07 -1.49678e-07 2.79887e-26)
(-1.14436e-07 -1.2924e-07 -7.77476e-27)
(-1.04096e-07 -1.11531e-07 -2.21861e-26)
(-9.42851e-08 -9.62346e-08 -1.67636e-27)
(-8.49769e-08 -8.30672e-08 -1.50256e-27)
(-7.61511e-08 -7.17742e-08 -1.13063e-26)
(-6.77931e-08 -6.21249e-08 2.28068e-26)
(-5.98936e-08 -5.39073e-08 -1.66237e-26)
(-5.24509e-08 -4.69246e-08 -1.62853e-26)
(-4.54723e-08 -4.09895e-08 2.85129e-26)
(-3.89805e-08 -3.59185e-08 -2.0943e-26)
(-3.30193e-08 -3.15225e-08 -5.97554e-28)
(-2.76683e-08 -2.76004e-08 4.63306e-26)
(-2.30495e-08 -2.39154e-08 2.39447e-26)
(-1.93586e-08 -2.0206e-08 -5.20468e-26)
(-1.67957e-08 -1.61082e-08 3.02286e-26)
(-1.54766e-08 -1.13474e-08 4.04066e-26)
)


// ************************************************************************* //
