/*--------------------------------*- C++ -*----------------------------------*\
| =========                 |                                                 |
| \\      /  F ield         | OpenFOAM Extend Project: Open source CFD        |
|  \\    /   O peration     | Version:  1.6-ext                               |
|   \\  /    A nd           | Web:      www.extend-project.de                 |
|    \\/     M anipulation  |                                                 |
\*---------------------------------------------------------------------------*/
FoamFile
{
    version     2.0;
    format      ascii;
    class       tetPointVectorField;
    location    "1.15";
    object      motionU;
}
// * * * * * * * * * * * * * * * * * * * * * * * * * * * * * * * * * * * * * //

dimensions      [0 1 -1 0 0 0 0];

internalField   nonuniform List<vector> 
147960
(
(0 0 0)
(7.98659e-05 -0.000267337 0)
(-0.000997053 -0.000427783 3.28161e-25)
(-0.00139243 -0.000741217 -6.60164e-24)
(-0.00628421 -0.0242302 7.21248e-24)
(-0.00641424 -0.0238333 -1.11541e-23)
(-0.00640897 -0.0233039 3.5635e-23)
(-0.0064017 -0.0227749 3.73036e-23)
(-0.00639255 -0.0222456 -2.05768e-23)
(-0.0063814 -0.0217158 2.84619e-23)
(-0.00636823 -0.0211851 2.96176e-23)
(-0.00635296 -0.0206534 1.16843e-24)
(-0.00633552 -0.0201203 3.26103e-23)
(-0.00631581 -0.0195857 -9.71612e-24)
(-0.00629372 -0.0190495 -1.87745e-23)
(-0.00626913 -0.0185115 1.86783e-23)
(-0.00624189 -0.0179716 5.31846e-23)
(-0.00621186 -0.0174301 3.24373e-23)
(-0.00617885 -0.016887 -1.1533e-23)
(-0.0061427 -0.0163425 3.00598e-23)
(-0.00610323 -0.0157971 -5.90462e-24)
(-0.00606025 -0.0152511 -2.00376e-23)
(-0.00601361 -0.0147052 -3.02516e-25)
(-0.00596313 -0.0141599 -1.9925e-23)
(-0.00590866 -0.0136161 1.12206e-23)
(-0.00585008 -0.0130745 1.22222e-23)
(-0.00578727 -0.0125362 -1.22982e-23)
(-0.00572015 -0.0120021 -1.49761e-23)
(-0.00564866 -0.0114732 -1.9023e-23)
(-0.00557278 -0.0109506 -6.89136e-25)
(-0.00549252 -0.0104354 1.30584e-24)
(-0.00540792 -0.0099287 -9.57355e-25)
(-0.00531904 -0.00943157 9.9944e-24)
(-0.00522599 -0.00894508 2.19507e-23)
(-0.00512891 -0.00847023 8.81899e-24)
(-0.00502797 -0.00800795 -4.40372e-25)
(-0.00492336 -0.00755911 5.80143e-24)
(-0.00481529 -0.00712448 3.31025e-24)
(-0.004704 -0.00670472 -9.00529e-24)
(-0.00458976 -0.00630039 -7.21612e-24)
(-0.00447282 -0.00591192 2.53883e-24)
(-0.00435346 -0.00553962 -6.77392e-24)
(-0.00423197 -0.00518368 2.99097e-25)
(-0.00410862 -0.00484415 -5.47691e-24)
(-0.00398368 -0.00452097 -2.39296e-24)
(-0.00385741 -0.00421395 1.57118e-23)
(-0.00373007 -0.0039228 4.42796e-24)
(-0.00360188 -0.00364711 4.53909e-27)
(-0.00347305 -0.0033864 -1.35105e-24)
(-0.00334377 -0.0031401 2.05468e-24)
(-0.00321418 -0.00290758 1.01102e-23)
(-0.00308442 -0.00268818 -4.14028e-24)
(-0.00295459 -0.00248118 -8.6345e-24)
(-0.00282475 -0.00228588 2.86988e-24)
(-0.00269493 -0.00210155 9.26706e-25)
(-0.00256515 -0.00192751 -2.57411e-24)
(-0.00243539 -0.00176309 1.02631e-23)
(-0.00230558 -0.0016077 -8.99107e-25)
(-0.00217568 -0.00146079 -1.32893e-23)
(-0.00204558 -0.0013219 8.39831e-24)
(-0.00191517 -0.00119065 4.63173e-24)
(-0.00178435 -0.00106677 -5.01806e-24)
(-0.00165298 -0.000950069 -7.06096e-24)
(-0.00152093 -0.000840468 7.83521e-24)
(-0.00535459 -0.0243583 9.5463e-24)
(-0.00588663 -0.0243609 2.83998e-24)
(-0.004419 -0.0242201 -1.98007e-23)
(-0.00482051 -0.0243558 5.25244e-24)
(-0.0010963 -0.000528531 9.52316e-25)
(-0.00119835 -0.000639826 -3.61567e-25)
(-0.00129961 -0.000758374 1.06211e-23)
(-0.00139981 -0.000884251 1.23212e-23)
(-0.00149873 -0.00101764 6.56986e-24)
(-0.00159613 -0.00115882 1.13755e-23)
(-0.00169177 -0.00130817 3.39746e-24)
(-0.00178545 -0.00146614 -6.26786e-24)
(-0.00187699 -0.00163327 4.59937e-24)
(-0.00196622 -0.00181017 -4.52267e-24)
(-0.002053 -0.00199749 -1.52848e-23)
(-0.00213723 -0.00219591 8.08488e-24)
(-0.00221882 -0.00240616 1.44894e-23)
(-0.00229774 -0.00262895 -8.13455e-24)
(-0.00237396 -0.00286498 -5.88654e-24)
(-0.0024475 -0.00311492 5.89917e-24)
(-0.00251841 -0.00337939 -2.1121e-24)
(-0.00258677 -0.00365897 -5.65812e-24)
(-0.00265269 -0.00395414 1.75311e-24)
(-0.00271628 -0.0042653 1.14812e-24)
(-0.0027777 -0.00459274 -2.59749e-24)
(-0.00283711 -0.00493665 6.54755e-24)
(-0.0028947 -0.00529709 -5.22142e-24)
(-0.00295064 -0.00567402 -3.43112e-24)
(-0.00300513 -0.00606724 8.41801e-24)
(-0.00305836 -0.00647645 7.97671e-24)
(-0.00311052 -0.00690121 5.7869e-25)
(-0.00316178 -0.00734097 4.44816e-24)
(-0.00321231 -0.00779506 9.96974e-24)
(-0.00326225 -0.00826271 -1.73607e-23)
(-0.00331173 -0.00874306 -2.04954e-23)
(-0.00336084 -0.00923516 -1.42998e-23)
(-0.00340967 -0.00973801 -2.19806e-24)
(-0.00345825 -0.0102506 1.35877e-24)
(-0.0035066 -0.0107717 -1.68897e-23)
(-0.00355471 -0.0113004 1.88748e-23)
(-0.00360253 -0.0118355 2.46715e-23)
(-0.00364999 -0.0123759 -2.07282e-23)
(-0.00369699 -0.0129206 9.35664e-24)
(-0.00374339 -0.0134686 2.16282e-23)
(-0.00378905 -0.014019 -5.90348e-24)
(-0.0038338 -0.0145709 -3.43879e-23)
(-0.00387745 -0.0151236 9.32338e-24)
(-0.0039198 -0.0156763 5.85579e-24)
(-0.00396066 -0.0162286 -3.43818e-23)
(-0.00399982 -0.01678 1.633e-23)
(-0.00403707 -0.0173301 -1.65039e-23)
(-0.00407223 -0.0178786 -3.26658e-23)
(-0.00410511 -0.0184255 8.22936e-24)
(-0.00413554 -0.0189706 8.73712e-24)
(-0.00416339 -0.0195139 -3.25663e-23)
(-0.00418853 -0.0200556 -1.4206e-23)
(-0.00421085 -0.0205958 2.85324e-23)
(-0.00423029 -0.0211346 1.52084e-23)
(-0.00424678 -0.0216723 6.0996e-24)
(-0.00426031 -0.0222092 2.03806e-23)
(-0.00427084 -0.0227455 4.2025e-23)
(-0.00427849 -0.0232816 4.41804e-23)
(-0.0042833 -0.0238176 4.37438e-24)
(-0.00114271 -0.0204314 0)
(-0.00437621 -0.0239495 0)
(-0.00437771 -0.023769 0)
(-0.00433104 -0.02358 0)
(-0.00425681 -0.0233785 0)
(-0.00414693 -0.0231663 0)
(-0.00400351 -0.0229441 0)
(-0.00382021 -0.0227123 0)
(-0.00361496 -0.0224701 0)
(-0.00335127 -0.0222172 0)
(-0.00307295 -0.0219532 0)
(-0.00277332 -0.0216766 0)
(-0.00239441 -0.0213874 0)
(-0.00202642 -0.0210843 0)
(-0.0016407 -0.0207656 0)
(-8.62729e-05 -0.000674067 0)
(-0.000136452 -0.0007557 0)
(-0.000192237 -0.00084525 0)
(-0.00025119 -0.000942953 0)
(-0.000311403 -0.00104941 0)
(-0.000371442 -0.0011647 0)
(-0.00043009 -0.00128881 0)
(-0.000487362 -0.00142188 0)
(-0.000543067 -0.00156422 0)
(-0.000597127 -0.0017161 0)
(-0.000649807 -0.00187788 0)
(-0.000701623 -0.00204994 0)
(-0.000752985 -0.00223261 0)
(-0.000803757 -0.00242632 0)
(-0.000853087 -0.00263147 0)
(-0.000899798 -0.0028485 0)
(-0.00094302 -0.00307784 0)
(-0.000982563 -0.00331986 0)
(-0.00101899 -0.00357497 0)
(-0.00105386 -0.00384334 0)
(-0.00108724 -0.00412611 0)
(-0.00111869 -0.00442355 0)
(-0.00114944 -0.00473473 0)
(-0.0011793 -0.00506002 0)
(-0.00120846 -0.00539956 0)
(-0.00123705 -0.00575336 0)
(-0.00126512 -0.00612127 0)
(-0.00129285 -0.00650307 0)
(-0.00132052 -0.00689839 0)
(-0.00134834 -0.00730674 0)
(-0.00137634 -0.00772757 0)
(-0.00140413 -0.0081603 0)
(-0.00143098 -0.00860416 0)
(-0.00145661 -0.00905834 0)
(-0.0014818 -0.00952204 0)
(-0.00150815 -0.00999387 0)
(-0.00153451 -0.0104743 0)
(-0.00156052 -0.0109629 0)
(-0.00158813 -0.0114564 0)
(-0.0016167 -0.0119535 0)
(-0.00164626 -0.0124532 0)
(-0.00167725 -0.012954 0)
(-0.00170988 -0.0134548 0)
(-0.00174382 -0.0139543 0)
(-0.00177824 -0.0144511 0)
(-0.00181159 -0.0149439 0)
(-0.00184093 -0.0154309 0)
(-0.00186173 -0.0159105 0)
(-0.00186909 -0.0163807 0)
(-0.00186086 -0.0168398 0)
(-0.00183976 -0.0172857 0)
(-0.00181221 -0.017716 0)
(-0.0017838 -0.018128 0)
(-0.00175451 -0.0185189 0)
(-0.00171965 -0.0188858 0)
(-0.00167286 -0.0192258 0)
(-0.00160885 -0.0195362 0)
(-0.00152451 -0.0198142 0)
(-0.00141887 -0.0200573 0)
(-0.00128989 -0.0202636 0)
(-0.00263592 -0.0202757 0)
(-0.00317248 -0.0206383 0)
(-0.00360265 -0.0209819 0)
(-0.00398303 -0.0213074 0)
(-0.00439017 -0.021615 0)
(-0.00474047 -0.0219074 0)
(-0.0050305 -0.0221853 0)
(-0.00531889 -0.0224489 0)
(-0.00556399 -0.0227002 0)
(-0.00575833 -0.0229393 0)
(-0.00593303 -0.0231667 0)
(-0.00606868 -0.023383 0)
(-0.00616919 -0.0235872 0)
(-0.00624932 -0.0237781 0)
(-0.00630045 -0.0239596 0)
(-0.000451733 -0.000887882 0)
(-0.00137563 -0.000734992 0)
(-0.00135608 -0.000732597 0)
(-0.00132842 -0.000733673 0)
(-0.00129479 -0.000738036 0)
(-0.00125348 -0.00074519 0)
(-0.00120484 -0.000755196 0)
(-0.00115088 -0.00076753 0)
(-0.00108572 -0.000781461 0)
(-0.00101493 -0.00079708 0)
(-0.000939517 -0.000813442 0)
(-0.000853566 -0.000830943 0)
(-0.00076672 -0.000848152 0)
(-0.000670306 -0.000864214 0)
(-0.000556128 -0.000878269 0)
(-0.00283098 -0.0201141 0)
(-0.00300326 -0.0199139 0)
(-0.00315002 -0.0196769 0)
(-0.00327297 -0.019405 0)
(-0.00337339 -0.0191008 0)
(-0.00345349 -0.0187671 0)
(-0.00351794 -0.0184068 0)
(-0.00357295 -0.0180228 0)
(-0.00362311 -0.0176179 0)
(-0.00366831 -0.0171949 0)
(-0.00370323 -0.0167566 0)
(-0.00372214 -0.0163053 0)
(-0.00372302 -0.0158431 0)
(-0.0037083 -0.0153717 0)
(-0.00368271 -0.0148931 0)
(-0.0036505 -0.014409 0)
(-0.0036144 -0.0139209 0)
(-0.00357586 -0.0134304 0)
(-0.00353568 -0.0129387 0)
(-0.00349419 -0.012447 0)
(-0.00345114 -0.0119566 0)
(-0.00340605 -0.0114689 0)
(-0.00335883 -0.0109848 0)
(-0.00331026 -0.0105059 0)
(-0.00325831 -0.010035 0)
(-0.00320336 -0.00957269 0)
(-0.00314674 -0.00911853 0)
(-0.00308701 -0.00867389 0)
(-0.00302348 -0.00823955 0)
(-0.00295659 -0.00781631 0)
(-0.00288737 -0.00740491 0)
(-0.00281649 -0.00700596 0)
(-0.00274421 -0.00661999 0)
(-0.00267059 -0.00624745 0)
(-0.00259565 -0.00588869 0)
(-0.0025195 -0.00554391 0)
(-0.00244233 -0.00521316 0)
(-0.00236432 -0.00489637 0)
(-0.0022855 -0.00459334 0)
(-0.00220631 -0.00430371 0)
(-0.00212594 -0.00402836 0)
(-0.00204494 -0.00376701 0)
(-0.00196337 -0.00351856 0)
(-0.00187984 -0.00328274 0)
(-0.00179383 -0.00305916 0)
(-0.00170553 -0.00284749 0)
(-0.00161579 -0.00264732 0)
(-0.00152574 -0.00245811 0)
(-0.00143617 -0.00227927 0)
(-0.00134714 -0.00211026 0)
(-0.00125816 -0.00195074 0)
(-0.00116863 -0.00180037 0)
(-0.0010782 -0.00165893 0)
(-0.000986891 -0.00152612 0)
(-0.00089486 -0.00140144 0)
(-0.000802052 -0.00128449 0)
(-0.000709611 -0.00117513 0)
(-0.000618801 -0.0010732 0)
(-0.000531273 -0.000977642 0)
(-0.00065231 -0.0009673 0)
(-0.000774924 -0.000953409 0)
(-0.000872044 -0.00093897 0)
(-0.000963604 -0.00092275 0)
(-0.00105752 -0.000906154 0)
(-0.00113516 -0.000891619 0)
(-0.00120898 -0.000876652 0)
(-0.00127904 -0.000863599 0)
(-0.00133373 -0.000852923 0)
(-0.0013854 -0.00084353 0)
(-0.00142812 -0.000837764 0)
(-0.00146181 -0.000834062 0)
(-0.00148929 -0.000833842 0)
(-0.00150802 -0.000836482 0)
(-0.000753453 -0.001063 0)
(-0.00087917 -0.00105009 0)
(-0.000977609 -0.00103722 0)
(-0.00107826 -0.00102168 0)
(-0.0011761 -0.00100685 0)
(-0.00125553 -0.000993418 0)
(-0.00133497 -0.000979303 0)
(-0.00140661 -0.000967899 0)
(-0.00146332 -0.000957827 0)
(-0.00151745 -0.000949883 0)
(-0.00156047 -0.000944809 0)
(-0.00159466 -0.000941869 0)
(-0.00162181 -0.000942156 0)
(-0.0016396 -0.00094514 0)
(-0.00085595 -0.00116545 0)
(-0.000982963 -0.00115436 0)
(-0.00108493 -0.00114255 0)
(-0.00119434 -0.00112837 0)
(-0.00129502 -0.00111517 0)
(-0.00137697 -0.00110266 0)
(-0.0014616 -0.00108991 0)
(-0.0015345 -0.00107972 0)
(-0.00159275 -0.00107074 0)
(-0.00164907 -0.00106356 0)
(-0.00169216 -0.00105932 0)
(-0.00172658 -0.00105691 0)
(-0.00175363 -0.00105781 0)
(-0.0017711 -0.00106133 0)
(-0.000958698 -0.00127567 0)
(-0.00108692 -0.00126623 0)
(-0.00119337 -0.00125581 0)
(-0.00131141 -0.0012428 0)
(-0.00141523 -0.00123167 0)
(-0.00149923 -0.00122022 0)
(-0.00158832 -0.00120846 0)
(-0.001663 -0.00119956 0)
(-0.00172179 -0.00119126 0)
(-0.00177997 -0.00118498 0)
(-0.00182358 -0.00118136 0)
(-0.00185789 -0.00117951 0)
(-0.00188495 -0.00118085 0)
(-0.00190213 -0.00118484 0)
(-0.00106115 -0.0013937 0)
(-0.00119134 -0.00138604 0)
(-0.00130245 -0.00137685 0)
(-0.00142905 -0.00136546 0)
(-0.00153616 -0.00135601 0)
(-0.00162143 -0.00134581 0)
(-0.00171462 -0.00133513 0)
(-0.00179146 -0.00132728 0)
(-0.0018508 -0.00131997 0)
(-0.00191019 -0.00131418 0)
(-0.00195444 -0.00131112 0)
(-0.00198888 -0.00130977 0)
(-0.00201582 -0.00131149 0)
(-0.00203269 -0.00131579 0)
(-0.00116364 -0.00151962 0)
(-0.00129649 -0.00151395 0)
(-0.0014116 -0.00150639 0)
(-0.00154647 -0.00149628 0)
(-0.00165744 -0.00148853 0)
(-0.00174347 -0.00147972 0)
(-0.00184011 -0.00147017 0)
(-0.00191963 -0.00146321 0)
(-0.00197965 -0.00145672 0)
(-0.00204006 -0.00145163 0)
(-0.00208483 -0.00144884 0)
(-0.00211955 -0.00144792 0)
(-0.00214648 -0.00144992 0)
(-0.00216299 -0.00145446 0)
(-0.00126617 -0.00165402 0)
(-0.00140235 -0.00165024 0)
(-0.00152061 -0.00164445 0)
(-0.00166306 -0.00163592 0)
(-0.00177874 -0.00162942 0)
(-0.00186579 -0.00162215 0)
(-0.00196495 -0.0016139 0)
(-0.00204715 -0.00160777 0)
(-0.00210849 -0.001602 0)
(-0.00216971 -0.00159733 0)
(-0.00221498 -0.00159488 0)
(-0.00224997 -0.00159434 0)
(-0.0022769 -0.0015965 0)
(-0.00229309 -0.0016012 0)
(-0.00136832 -0.00179713 0)
(-0.00150884 -0.00179536 0)
(-0.00162965 -0.00179143 0)
(-0.00177855 -0.00178443 0)
(-0.00189971 -0.00177921 0)
(-0.00198859 -0.0017735 0)
(-0.00208997 -0.00176669 0)
(-0.00217423 -0.00176136 0)
(-0.00223711 -0.00175632 0)
(-0.00229989 -0.00175242 0)
(-0.00234545 -0.00175002 0)
(-0.00238029 -0.00174952 0)
(-0.00240715 -0.00175168 0)
(-0.00242305 -0.00175645 0)
(-0.00146962 -0.00194949 0)
(-0.00161565 -0.00194946 0)
(-0.00173913 -0.00194776 0)
(-0.00189372 -0.00194305 0)
(-0.00202024 -0.00193886 0)
(-0.00211151 -0.00193434 0)
(-0.00221544 -0.00192891 0)
(-0.00230143 -0.00192442 0)
(-0.00236545 -0.00192002 0)
(-0.00242972 -0.00191656 0)
(-0.00247574 -0.00191424 0)
(-0.00251057 -0.00191382 0)
(-0.00253734 -0.00191597 0)
(-0.00255295 -0.00192075 0)
(-0.00156979 -0.00211146 0)
(-0.00172214 -0.00211325 0)
(-0.00184898 -0.00211353 0)
(-0.00200876 -0.00211124 0)
(-0.0021397 -0.00210847 0)
(-0.00223385 -0.00210504 0)
(-0.00234101 -0.00210097 0)
(-0.00242886 -0.00209725 0)
(-0.00249371 -0.00209351 0)
(-0.00255922 -0.00209043 0)
(-0.00260576 -0.00208817 0)
(-0.00264074 -0.0020878 0)
(-0.00266749 -0.0020899 0)
(-0.00268284 -0.00209469 0)
(-0.00166897 -0.00228336 0)
(-0.0018277 -0.00228713 0)
(-0.00195876 -0.00228936 0)
(-0.00212393 -0.00228935 0)
(-0.00225866 -0.00228832 0)
(-0.00235542 -0.0022862 0)
(-0.00246618 -0.00228337 0)
(-0.00255622 -0.00228037 0)
(-0.00262196 -0.00227724 0)
(-0.00268862 -0.0022746 0)
(-0.00273565 -0.00227241 0)
(-0.00277084 -0.0022721 0)
(-0.00279764 -0.00227413 0)
(-0.00281275 -0.00227891 0)
(-0.00176786 -0.00246561 0)
(-0.0019324 -0.00247158 0)
(-0.00206794 -0.00247561 0)
(-0.00223957 -0.00247793 0)
(-0.00237786 -0.00247883 0)
(-0.00247672 -0.0024782 0)
(-0.00259083 -0.00247672 0)
(-0.00268314 -0.00247438 0)
(-0.00274995 -0.00247187 0)
(-0.00281789 -0.00246965 0)
(-0.00286544 -0.00246758 0)
(-0.00290088 -0.00246734 0)
(-0.00292778 -0.00246931 0)
(-0.00294268 -0.0024741 0)
(-0.00186707 -0.00265848 0)
(-0.00203678 -0.00266715 0)
(-0.00217681 -0.00267367 0)
(-0.0023552 -0.0026783 0)
(-0.00249719 -0.00268071 0)
(-0.00259808 -0.00268149 0)
(-0.00271523 -0.00268149 0)
(-0.00280961 -0.00267988 0)
(-0.00287753 -0.00267801 0)
(-0.00294687 -0.00267625 0)
(-0.00299504 -0.00267432 0)
(-0.0030308 -0.0026742 0)
(-0.00305786 -0.00267615 0)
(-0.00307258 -0.00268097 0)
(-0.00196638 -0.00286241 0)
(-0.00214095 -0.00287393 0)
(-0.00228512 -0.00288298 0)
(-0.0024698 -0.00289025 0)
(-0.00261605 -0.0028944 0)
(-0.00271922 -0.00289667 0)
(-0.0028394 -0.00289817 0)
(-0.0029358 -0.0028974 0)
(-0.00300486 -0.00289625 0)
(-0.00307563 -0.00289501 0)
(-0.00312446 -0.00289328 0)
(-0.00316057 -0.00289334 0)
(-0.00318781 -0.00289532 0)
(-0.0032024 -0.00290021 0)
(-0.00206492 -0.00307793 0)
(-0.00224442 -0.00309215 0)
(-0.00239306 -0.00310386 0)
(-0.00258378 -0.00311437 0)
(-0.00273427 -0.00312043 0)
(-0.0028398 -0.00312428 0)
(-0.00296315 -0.00312737 0)
(-0.00306175 -0.00312748 0)
(-0.003132 -0.00312714 0)
(-0.00320421 -0.00312652 0)
(-0.00325369 -0.0031251 0)
(-0.00329014 -0.00312543 0)
(-0.00331758 -0.00312752 0)
(-0.00333202 -0.00313253 0)
(-0.00216188 -0.00330572 0)
(-0.00234729 -0.00332339 0)
(-0.00250078 -0.00333781 0)
(-0.00269738 -0.00335115 0)
(-0.00285193 -0.00335923 0)
(-0.00295974 -0.0033648 0)
(-0.00308642 -0.00336961 0)
(-0.00318732 -0.0033707 0)
(-0.00325878 -0.00337124 0)
(-0.00333243 -0.00337132 0)
(-0.00338257 -0.00337039 0)
(-0.00341939 -0.00337112 0)
(-0.00344702 -0.0033734 0)
(-0.00346133 -0.0033786 0)
(-0.00225673 -0.00354605 0)
(-0.00244871 -0.00356703 0)
(-0.00260726 -0.00358448 0)
(-0.00281026 -0.00360097 0)
(-0.00296886 -0.00361124 0)
(-0.003079 -0.00361872 0)
(-0.00320911 -0.00362539 0)
(-0.00331232 -0.00362763 0)
(-0.00338479 -0.00362893 0)
(-0.0034601 -0.00362987 0)
(-0.00351092 -0.00362979 0)
(-0.00354813 -0.00363102 0)
(-0.00357599 -0.00363358 0)
(-0.00359018 -0.00363904 0)
(-0.0023493 -0.00379893 0)
(-0.00254848 -0.00382347 0)
(-0.00271227 -0.00384449 0)
(-0.00292189 -0.00386433 0)
(-0.00308471 -0.00387694 0)
(-0.00319735 -0.00388649 0)
(-0.00333101 -0.00389524 0)
(-0.0034366 -0.00389893 0)
(-0.00351042 -0.00390194 0)
(-0.00358725 -0.00390363 0)
(-0.00363852 -0.00390392 0)
(-0.00367611 -0.00390568 0)
(-0.00370425 -0.00390862 0)
(-0.00371837 -0.00391441 0)
(-0.00244105 -0.00406585 0)
(-0.00264712 -0.00409414 0)
(-0.00281578 -0.00411834 0)
(-0.00303198 -0.0041416 0)
(-0.00319921 -0.00415674 0)
(-0.00331459 -0.00416854 0)
(-0.0034519 -0.00417951 0)
(-0.00355989 -0.00418483 0)
(-0.00363497 -0.00418931 0)
(-0.00371323 -0.00419211 0)
(-0.00376514 -0.00419312 0)
(-0.00380317 -0.00419557 0)
(-0.00383161 -0.004199 0)
(-0.00384571 -0.00420521 0)
(-0.00253289 -0.00434599 0)
(-0.00274463 -0.00437847 0)
(-0.00291788 -0.0044062 0)
(-0.00314064 -0.00443305 0)
(-0.00331245 -0.00445091 0)
(-0.00343068 -0.00446516 0)
(-0.00357165 -0.00447849 0)
(-0.00368199 -0.00448557 0)
(-0.0037583 -0.00449164 0)
(-0.00383801 -0.00449577 0)
(-0.00389064 -0.00449775 0)
(-0.00392914 -0.00450104 0)
(-0.00395791 -0.00450509 0)
(-0.00397197 -0.00451181 0)
(-0.00262378 -0.00464068 0)
(-0.0028409 -0.00467689 0)
(-0.00301868 -0.00470829 0)
(-0.00324811 -0.00473889 0)
(-0.00342455 -0.00475968 0)
(-0.00354553 -0.00477657 0)
(-0.00369002 -0.00479241 0)
(-0.00380265 -0.00480142 0)
(-0.00388021 -0.00480927 0)
(-0.00396141 -0.00481493 0)
(-0.0040148 -0.00481809 0)
(-0.0040538 -0.0048224 0)
(-0.00408292 -0.00482722 0)
(-0.00409693 -0.00483454 0)
(-0.00271315 -0.00494899 0)
(-0.00293582 -0.00498942 0)
(-0.00311829 -0.00502475 0)
(-0.00335444 -0.00505926 0)
(-0.00353531 -0.00508321 0)
(-0.00365881 -0.00510293 0)
(-0.00380669 -0.00512143 0)
(-0.0039216 -0.00513257 0)
(-0.00400047 -0.00514238 0)
(-0.00408321 -0.00514979 0)
(-0.00413737 -0.00515436 0)
(-0.0041769 -0.00515984 0)
(-0.00420637 -0.00516556 0)
(-0.00422031 -0.00517357 0)
(-0.00280137 -0.00527122 0)
(-0.00302954 -0.00531616 0)
(-0.00321668 -0.00535567 0)
(-0.00345931 -0.00539425 0)
(-0.00364431 -0.00542157 0)
(-0.00377015 -0.00544433 0)
(-0.0039214 -0.00546563 0)
(-0.00403863 -0.00547904 0)
(-0.00411889 -0.005491 0)
(-0.0042032 -0.00550044 0)
(-0.00425812 -0.00550663 0)
(-0.00429814 -0.00551346 0)
(-0.00432796 -0.0055202 0)
(-0.00434184 -0.00552898 0)
(-0.00288847 -0.00560753 0)
(-0.00312194 -0.0056572 0)
(-0.00331351 -0.00570109 0)
(-0.00356233 -0.00574388 0)
(-0.00375127 -0.00577477 0)
(-0.00387944 -0.00580081 0)
(-0.00403407 -0.00582506 0)
(-0.00415347 -0.00584062 0)
(-0.00423535 -0.00585497 0)
(-0.00432124 -0.00586692 0)
(-0.00437685 -0.00587491 0)
(-0.00441726 -0.0058832 0)
(-0.0044474 -0.00589108 0)
(-0.00446124 -0.00590071 0)
(-0.00297421 -0.00595798 0)
(-0.00321267 -0.00601255 0)
(-0.00340844 -0.00606098 0)
(-0.0036633 -0.00610808 0)
(-0.00385611 -0.00614278 0)
(-0.0039866 -0.00617232 0)
(-0.00414462 -0.00619987 0)
(-0.00426648 -0.00621881 0)
(-0.0043499 -0.00623546 0)
(-0.00443713 -0.00624923 0)
(-0.00449336 -0.00625907 0)
(-0.00453407 -0.00626893 0)
(-0.00456447 -0.00627806 0)
(-0.00457822 -0.0062886 0)
(-0.00305831 -0.00632248 0)
(-0.00330146 -0.00638213 0)
(-0.00350129 -0.00643525 0)
(-0.00376206 -0.00648675 0)
(-0.00395865 -0.00652543 0)
(-0.00409136 -0.00655864 0)
(-0.00425271 -0.00658958 0)
(-0.00437694 -0.00661161 0)
(-0.00446171 -0.00663092 0)
(-0.00455044 -0.00664696 0)
(-0.00460732 -0.00665881 0)
(-0.00464834 -0.00667036 0)
(-0.0046789 -0.00668082 0)
(-0.00469253 -0.00669233 0)
(-0.0031407 -0.00670082 0)
(-0.00338826 -0.00676571 0)
(-0.00359196 -0.00682368 0)
(-0.00385847 -0.00687962 0)
(-0.00405865 -0.0069224 0)
(-0.00419351 -0.00695938 0)
(-0.00435812 -0.00699369 0)
(-0.00448466 -0.00701889 0)
(-0.00457069 -0.00704116 0)
(-0.00466081 -0.00705973 0)
(-0.00471838 -0.00707375 0)
(-0.00475974 -0.00708709 0)
(-0.00479042 -0.00709897 0)
(-0.00480389 -0.00711148 0)
(-0.00322144 -0.00709265 0)
(-0.00347314 -0.00716296 0)
(-0.00368049 -0.0072259 0)
(-0.00395251 -0.00728635 0)
(-0.00415615 -0.00733336 0)
(-0.00429305 -0.00737419 0)
(-0.00446057 -0.00741154 0)
(-0.00458962 -0.00744015 0)
(-0.00467679 -0.00746591 0)
(-0.00476812 -0.00748711 0)
(-0.00482629 -0.00750341 0)
(-0.00486798 -0.00751861 0)
(-0.00489875 -0.00753196 0)
(-0.00491205 -0.00754551 0)
(-0.0033006 -0.00749749 0)
(-0.00355622 -0.00757337 0)
(-0.00376701 -0.00764144 0)
(-0.00404429 -0.00770646 0)
(-0.00425118 -0.00775788 0)
(-0.00438995 -0.00780288 0)
(-0.00456041 -0.00784452 0)
(-0.00469178 -0.00787642 0)
(-0.00477979 -0.00790477 0)
(-0.00487224 -0.00792855 0)
(-0.00493089 -0.00794718 0)
(-0.00497282 -0.00796429 0)
(-0.00500367 -0.00797916 0)
(-0.00501678 -0.00799376 0)
(-0.00337805 -0.00791478 0)
(-0.00363745 -0.00799638 0)
(-0.00385148 -0.00806972 0)
(-0.00413371 -0.00813937 0)
(-0.00434355 -0.00819531 0)
(-0.00448401 -0.0082445 0)
(-0.00465731 -0.00828997 0)
(-0.00479044 -0.00832551 0)
(-0.00487938 -0.00835691 0)
(-0.00497295 -0.00838334 0)
(-0.00503201 -0.00840436 0)
(-0.0050741 -0.0084234 0)
(-0.005105 -0.00843982 0)
(-0.00511787 -0.00845547 0)
(-0.00345311 -0.00834394 0)
(-0.00371629 -0.00843137 0)
(-0.00393349 -0.00851008 0)
(-0.00422047 -0.0085844 0)
(-0.00443305 -0.00864491 0)
(-0.00457489 -0.00869789 0)
(-0.0047513 -0.0087473 0)
(-0.00488577 -0.00878702 0)
(-0.00497542 -0.00882158 0)
(-0.00507005 -0.00885072 0)
(-0.00512945 -0.00887417 0)
(-0.00517164 -0.00889514 0)
(-0.00520253 -0.0089131 0)
(-0.00521512 -0.00892979 0)
(-0.0035248 -0.00878426 0)
(-0.00379192 -0.00887766 0)
(-0.00401243 -0.00896182 0)
(-0.00430416 -0.00904083 0)
(-0.00451947 -0.00910616 0)
(-0.00466291 -0.00916427 0)
(-0.00484218 -0.0092175 0)
(-0.00497765 -0.00926041 0)
(-0.00506784 -0.00929803 0)
(-0.00516332 -0.00932985 0)
(-0.00522296 -0.00935571 0)
(-0.00526524 -0.0093786 0)
(-0.0052961 -0.00939809 0)
(-0.00530836 -0.00941578 0)
(-0.00359257 -0.00923497 0)
(-0.00386386 -0.00933443 0)
(-0.0040879 -0.0094241 0)
(-0.00438439 -0.00950777 0)
(-0.00460235 -0.0095776 0)
(-0.00474778 -0.00964062 0)
(-0.00492923 -0.00969819 0)
(-0.00506582 -0.00974468 0)
(-0.00515642 -0.00978534 0)
(-0.00525255 -0.00981982 0)
(-0.0053124 -0.00984807 0)
(-0.00535475 -0.00987284 0)
(-0.00538552 -0.0098938 0)
(-0.00539744 -0.00991245 0)
(-0.00365702 -0.00969516 0)
(-0.00393242 -0.00980082 0)
(-0.00415998 -0.00989608 0)
(-0.00446098 -0.00998426 0)
(-0.00468229 -0.0100602 0)
(-0.00482943 -0.0101282 0)
(-0.00501258 -0.0101889 0)
(-0.00515011 -0.0102389 0)
(-0.00524096 -0.0102826 0)
(-0.00533767 -0.0103196 0)
(-0.00539768 -0.0103503 0)
(-0.00544003 -0.0103768 0)
(-0.00547067 -0.0103992 0)
(-0.00548225 -0.0104188 0)
(-0.00371899 -0.0101639 0)
(-0.00399805 -0.0102759 0)
(-0.00422873 -0.0103768 0)
(-0.00453511 -0.0104712 0)
(-0.00475932 -0.0105528 0)
(-0.00490732 -0.0106246 0)
(-0.00509214 -0.0106887 0)
(-0.00523044 -0.0107421 0)
(-0.00532148 -0.0107887 0)
(-0.0054187 -0.0108283 0)
(-0.00547875 -0.0108612 0)
(-0.00552099 -0.0108896 0)
(-0.00555147 -0.0109133 0)
(-0.00556272 -0.0109336 0)
(-0.00377827 -0.01064 0)
(-0.00406084 -0.0107587 0)
(-0.00429504 -0.0108671 0)
(-0.00460644 -0.0109672 0)
(-0.00483254 -0.0110531 0)
(-0.00498143 -0.0111289 0)
(-0.00516784 -0.0111964 0)
(-0.00530683 -0.0112532 0)
(-0.00539802 -0.0113027 0)
(-0.00549561 -0.0113448 0)
(-0.00555555 -0.0113799 0)
(-0.0055976 -0.0114099 0)
(-0.00562789 -0.0114349 0)
(-0.00563882 -0.011456 0)
(-0.00383465 -0.0111262 0)
(-0.00412105 -0.0112518 0)
(-0.00435873 -0.0113656 0)
(-0.00467382 -0.0114697 0)
(-0.00490194 -0.0115601 0)
(-0.00505182 -0.0116401 0)
(-0.00523975 -0.011711 0)
(-0.00537936 -0.0117712 0)
(-0.00547057 -0.0118235 0)
(-0.00556835 -0.0118681 0)
(-0.00562808 -0.0119054 0)
(-0.0056699 -0.0119369 0)
(-0.00569998 -0.011963 0)
(-0.00571055 -0.0119847 0)
(-0.00388859 -0.0116171 0)
(-0.00417841 -0.0117494 0)
(-0.00441901 -0.011869 0)
(-0.00473785 -0.0119776 0)
(-0.00496792 -0.0120728 0)
(-0.00511864 -0.012157 0)
(-0.0053079 -0.0122314 0)
(-0.00544794 -0.0122951 0)
(-0.00553905 -0.0123502 0)
(-0.00563695 -0.0123971 0)
(-0.00569644 -0.0124364 0)
(-0.00573798 -0.0124694 0)
(-0.00576776 -0.0124965 0)
(-0.00577792 -0.0125187 0)
(-0.00393986 -0.0121117 0)
(-0.00423284 -0.0122508 0)
(-0.00447624 -0.0123764 0)
(-0.00479863 -0.01249 0)
(-0.00503038 -0.0125902 0)
(-0.00518176 -0.0126787 0)
(-0.00537216 -0.0127567 0)
(-0.00551255 -0.0128238 0)
(-0.00560357 -0.0128817 0)
(-0.00570155 -0.0129309 0)
(-0.00576074 -0.0129721 0)
(-0.0058019 -0.0130064 0)
(-0.0058313 -0.0130344 0)
(-0.005841 -0.0130571 0)
(-0.00398851 -0.012609 0)
(-0.00428434 -0.0127551 0)
(-0.00453033 -0.012887 0)
(-0.00485597 -0.0130057 0)
(-0.00508919 -0.0131111 0)
(-0.00524114 -0.0132042 0)
(-0.00543263 -0.0132858 0)
(-0.00557335 -0.0133564 0)
(-0.00566423 -0.0134171 0)
(-0.0057622 -0.0134685 0)
(-0.00582099 -0.0135115 0)
(-0.00586169 -0.013547 0)
(-0.00589064 -0.0135758 0)
(-0.00589985 -0.0135987 0)
(-0.00403511 -0.0131078 0)
(-0.00433341 -0.0132613 0)
(-0.00458166 -0.0133996 0)
(-0.00491018 -0.0135238 0)
(-0.00514461 -0.0136346 0)
(-0.00529697 -0.0137324 0)
(-0.00548937 -0.0138178 0)
(-0.00563024 -0.0138919 0)
(-0.00572086 -0.0139554 0)
(-0.00581872 -0.0140089 0)
(-0.00587708 -0.0140536 0)
(-0.00591732 -0.0140902 0)
(-0.00594584 -0.0141196 0)
(-0.00595459 -0.0141427 0)
(-0.00408002 -0.0136071 0)
(-0.00438042 -0.0137681 0)
(-0.00463044 -0.0139133 0)
(-0.00496126 -0.0140432 0)
(-0.00519638 -0.0141596 0)
(-0.00534876 -0.0142622 0)
(-0.00554173 -0.0143516 0)
(-0.0056826 -0.0144294 0)
(-0.00577297 -0.0144956 0)
(-0.00587083 -0.0145513 0)
(-0.00592892 -0.0145977 0)
(-0.00596884 -0.0146352 0)
(-0.005997 -0.0146651 0)
(-0.00600533 -0.0146882 0)
(-0.00412275 -0.0141056 0)
(-0.0044246 -0.0142745 0)
(-0.00467564 -0.0144268 0)
(-0.00500789 -0.0145629 0)
(-0.00524302 -0.0146851 0)
(-0.00539506 -0.0147928 0)
(-0.00558855 -0.0148864 0)
(-0.00572969 -0.0149679 0)
(-0.00582025 -0.015037 0)
(-0.0059185 -0.0150949 0)
(-0.00597662 -0.0151428 0)
(-0.00601638 -0.0151812 0)
(-0.00604429 -0.0152115 0)
(-0.00605223 -0.0152345 0)
(-0.00416193 -0.014602 0)
(-0.00446406 -0.0147792 0)
(-0.00471495 -0.014939 0)
(-0.00504765 -0.0150815 0)
(-0.00528245 -0.0152099 0)
(-0.00543448 -0.015323 0)
(-0.00562928 -0.015421 0)
(-0.00577159 -0.0155065 0)
(-0.00586306 -0.0155787 0)
(-0.00596213 -0.0156388 0)
(-0.00602049 -0.0156883 0)
(-0.0060602 -0.0157275 0)
(-0.00608787 -0.0157581 0)
(-0.00609544 -0.0157809 0)
(-0.00419534 -0.015095 0)
(-0.00449597 -0.0152808 0)
(-0.00474543 -0.0154485 0)
(-0.00507831 -0.0155979 0)
(-0.00531363 -0.0157329 0)
(-0.00546726 -0.0158518 0)
(-0.0056649 -0.0159547 0)
(-0.00580937 -0.0160444 0)
(-0.00590218 -0.0161199 0)
(-0.00600214 -0.0161824 0)
(-0.00606074 -0.0162336 0)
(-0.00610042 -0.0162736 0)
(-0.00612791 -0.0163043 0)
(-0.00613515 -0.0163268 0)
(-0.00421959 -0.0155829 0)
(-0.00451697 -0.0157778 0)
(-0.00476493 -0.0159539 0)
(-0.00509961 -0.0161108 0)
(-0.00533808 -0.0162529 0)
(-0.0054956 -0.0163782 0)
(-0.00569705 -0.0164864 0)
(-0.00584364 -0.0165807 0)
(-0.00593749 -0.0166598 0)
(-0.00603825 -0.016725 0)
(-0.00609724 -0.0167779 0)
(-0.00613709 -0.0168188 0)
(-0.00616453 -0.0168497 0)
(-0.00617151 -0.0168719 0)
(-0.00423067 -0.016064 0)
(-0.00452491 -0.0162686 0)
(-0.00477409 -0.0164537 0)
(-0.00511444 -0.0166188 0)
(-0.00535898 -0.0167686 0)
(-0.00552088 -0.0169007 0)
(-0.00572509 -0.0170149 0)
(-0.00587296 -0.0171145 0)
(-0.005968 -0.0171976 0)
(-0.00607019 -0.0172659 0)
(-0.00613011 -0.0173209 0)
(-0.00617044 -0.0173628 0)
(-0.00619795 -0.0173939 0)
(-0.00620471 -0.0174156 0)
(-0.00422628 -0.0165367 0)
(-0.00452114 -0.0167516 0)
(-0.00477696 -0.0169464 0)
(-0.00512652 -0.0171203 0)
(-0.00537658 -0.0172785 0)
(-0.00554034 -0.0174183 0)
(-0.00574619 -0.0175393 0)
(-0.00589649 -0.0176447 0)
(-0.0059944 -0.0177327 0)
(-0.0060989 -0.0178045 0)
(-0.00615997 -0.017862 0)
(-0.00620077 -0.0179052 0)
(-0.00622837 -0.0179366 0)
(-0.00623493 -0.0179579 0)
(-0.00420813 -0.0169992 0)
(-0.00451056 -0.0172248 0)
(-0.00477744 -0.0174299 0)
(-0.00513447 -0.0176134 0)
(-0.00538576 -0.0177809 0)
(-0.00555052 -0.0179294 0)
(-0.00576113 -0.0180581 0)
(-0.00591685 -0.0181703 0)
(-0.00601821 -0.0182639 0)
(-0.00612449 -0.0183402 0)
(-0.00618641 -0.0184008 0)
(-0.00622788 -0.0184456 0)
(-0.00625582 -0.0184775 0)
(-0.00626231 -0.0184984 0)
(-0.00418166 -0.0174491 0)
(-0.00449737 -0.0176861 0)
(-0.00477292 -0.017902 0)
(-0.00513132 -0.0180962 0)
(-0.00538332 -0.018274 0)
(-0.0055547 -0.0184321 0)
(-0.00577405 -0.0185696 0)
(-0.00593428 -0.0186898 0)
(-0.00603723 -0.0187903 0)
(-0.00614495 -0.0188722 0)
(-0.00620888 -0.0189366 0)
(-0.00625196 -0.0189838 0)
(-0.0062805 -0.0190166 0)
(-0.006287 -0.0190372 0)
(-0.00415173 -0.0178841 0)
(-0.0044789 -0.0181328 0)
(-0.00475542 -0.0183605 0)
(-0.00511403 -0.0185663 0)
(-0.00537433 -0.0187554 0)
(-0.00555718 -0.0189241 0)
(-0.00578237 -0.0190718 0)
(-0.00594397 -0.0192016 0)
(-0.00604887 -0.0193105 0)
(-0.00616119 -0.0193992 0)
(-0.00622914 -0.0194689 0)
(-0.00627362 -0.0195194 0)
(-0.00630255 -0.0195536 0)
(-0.00630918 -0.0195742 0)
(-0.00411696 -0.0183013 0)
(-0.0044472 -0.0185624 0)
(-0.00472106 -0.0188026 0)
(-0.00508773 -0.0190209 0)
(-0.00536275 -0.0192219 0)
(-0.00555329 -0.0194026 0)
(-0.00578022 -0.0195623 0)
(-0.00594422 -0.0197032 0)