/*--------------------------------*- C++ -*----------------------------------*\
| =========                 |                                                 |
| \\      /  F ield         | OpenFOAM Extend Project: Open source CFD        |
|  \\    /   O peration     | Version:  1.6-ext                               |
|   \\  /    A nd           | Web:      www.extend-project.de                 |
|    \\/     M anipulation  |                                                 |
\*---------------------------------------------------------------------------*/
FoamFile
{
    version     2.0;
    format      ascii;
    class       volScalarField;
    location    "1.15";
    object      p;
}
// * * * * * * * * * * * * * * * * * * * * * * * * * * * * * * * * * * * * * //

dimensions      [0 2 -2 0 0 0 0];

internalField   nonuniform List<scalar> 
20940
(
-0.166095
-0.208874
-0.253787
-0.301097
-0.350249
-0.401311
-0.453776
-0.507171
-0.560639
-0.613077
-0.663145
-0.709461
-0.750856
-0.786607
-0.81657
-0.841144
-0.86112
-0.877476
-0.891112
-0.902783
-0.913991
-0.925889
-0.194157
-0.235733
-0.279619
-0.325292
-0.372522
-0.421143
-0.470623
-0.520357
-0.569415
-0.616685
-0.660953
-0.701126
-0.736438
-0.766603
-0.791823
-0.812688
-0.829998
-0.844597
-0.857174
-0.868253
-0.879084
-0.890627
-0.21861
-0.258764
-0.301334
-0.345119
-0.390163
-0.436061
-0.482253
-0.528021
-0.572408
-0.614369
-0.652902
-0.687252
-0.717052
-0.742368
-0.763638
-0.781518
-0.796734
-0.809957
-0.821672
-0.832196
-0.84255
-0.853523
-0.241701
-0.280227
-0.321216
-0.36285
-0.405411
-0.448254
-0.490804
-0.532258
-0.571702
-0.608246
-0.641171
-0.670079
-0.694953
-0.716117
-0.73412
-0.749592
-0.763127
-0.775216
-0.78616
-0.796118
-0.80592
-0.816232
-0.263103
-0.299906
-0.339156
-0.37848
-0.41836
-0.457916
-0.496576
-0.533511
-0.56793
-0.599169
-0.626833
-0.650858
-0.671498
-0.689221
-0.704588
-0.718135
-0.730304
-0.741418
-0.751632
-0.760987
-0.770165
-0.779739
-0.283094
-0.318116
-0.355494
-0.39236
-0.429363
-0.465413
-0.499992
-0.532312
-0.561786
-0.588027
-0.610956
-0.630779
-0.647913
-0.662869
-0.676144
-0.688148
-0.699174
-0.709408
-0.718897
-0.727603
-0.736086
-0.74486
-0.301826
-0.335015
-0.370402
-0.404684
-0.438652
-0.471048
-0.501465
-0.529233
-0.554026
-0.575746
-0.594579
-0.610911
-0.625223
-0.637987
-0.649597
-0.660332
-0.67036
-0.67976
-0.688508
-0.696518
-0.704253
-0.71218
-0.319565
-0.350967
-0.384294
-0.415887
-0.446672
-0.475303
-0.501557
-0.524954
-0.545456
-0.563218
-0.578617
-0.592119
-0.604187
-0.61521
-0.625464
-0.635114
-0.644228
-0.652813
-0.660801
-0.66808
-0.675032
-0.68209
-0.336258
-0.365817
-0.396966
-0.42578
-0.453315
-0.478213
-0.50049
-0.519887
-0.536635
-0.551078
-0.563695
-0.574952
-0.585248
-0.594868
-0.603985
-0.61267
-0.620924
-0.628705
-0.635922
-0.642453
-0.648613
-0.654801
-0.352227
-0.380064
-0.409003
-0.434969
-0.459192
-0.480416
-0.49894
-0.51474
-0.52826
-0.539957
-0.550328
-0.559789
-0.568649
-0.577096
-0.585215
-0.593011
-0.600439
-0.607428
-0.613878
-0.619665
-0.625044
-0.630384
-0.366936
-0.39288
-0.419443
-0.442591
-0.46365
-0.481536
-0.496789
-0.509583
-0.520495
-0.53002
-0.538629
-0.546664
-0.554349
-0.561792
-0.569017
-0.575986
-0.582624
-0.588846
-0.594551
-0.59962
-0.604252
-0.608789
-0.381111
-0.405374
-0.429647
-0.449997
-0.46796
-0.482723
-0.495042
-0.505249
-0.51398
-0.521715
-0.528863
-0.535688
-0.54234
-0.548869
-0.555255
-0.561431
-0.567308
-0.572792
-0.577784
-0.582172
-0.586108
-0.589901
-0.392764
-0.415146
-0.436889
-0.454839
-0.470228
-0.482586
-0.492705
-0.501022
-0.508161
-0.51457
-0.520596
-0.526447
-0.532223
-0.537941
-0.543558
-0.548997
-0.554163
-0.558958
-0.563291
-0.567055
-0.570362
-0.573491
-0.405114
-0.425729
-0.445263
-0.460826
-0.473711
-0.483802
-0.4919
-0.498518
-0.504231
-0.509438
-0.514422
-0.519341
-0.524257
-0.529163
-0.534006
-0.538701
-0.543153
-0.547268
-0.550956
-0.554124
-0.55685
-0.559385
-0.410009
-0.430562
-0.447349
-0.461638
-0.47304
-0.482034
-0.489151
-0.494938
-0.499891
-0.504381
-0.508661
-0.51288
-0.5171
-0.521321
-0.525498
-0.529556
-0.533405
-0.536955
-0.54012
-0.542809
-0.545071
-0.547119
-0.424962
-0.442345
-0.456312
-0.468229
-0.477389
-0.484493
-0.490025
-0.494517
-0.498394
-0.50196
-0.505411
-0.508851
-0.512317
-0.515799
-0.519249
-0.522597
-0.525764
-0.52867
-0.531241
-0.533404
-0.535185
-0.536754
-0.445309
-0.458832
-0.468095
-0.476251
-0.482294
-0.487202
-0.491187
-0.494628
-0.497742
-0.500687
-0.503557
-0.506398
-0.509221
-0.512009
-0.514725
-0.517316
-0.519724
-0.521892
-0.523773
-0.525322
-0.52657
-0.527648
-0.454697
-0.46636
-0.47299
-0.479506
-0.484092
-0.488022
-0.491224
-0.494042
-0.496592
-0.498991
-0.501302
-0.503563
-0.505783
-0.507952
-0.510042
-0.512015
-0.513828
-0.515438
-0.516811
-0.517918
-0.518782
-0.51949
-0.461527
-0.471596
-0.47624
-0.481535
-0.485028
-0.488217
-0.490806
-0.493122
-0.495208
-0.497153
-0.498999
-0.500773
-0.502485
-0.50413
-0.50569
-0.507138
-0.508443
-0.509577
-0.510516
-0.511243
-0.511772
-0.512164
-0.465328
-0.473954
-0.477518
-0.482008
-0.484875
-0.487585
-0.489767
-0.491711
-0.493434
-0.495007
-0.496466
-0.497837
-0.49913
-0.500346
-0.501473
-0.502495
-0.503389
-0.504135
-0.504717
-0.505127
-0.505368
-0.505477
-0.467199
-0.474486
-0.477582
-0.481449
-0.48395
-0.486308
-0.4882
-0.489863
-0.491309
-0.492597
-0.493757
-0.494815
-0.495782
-0.496662
-0.497449
-0.498131
-0.498692
-0.499119
-0.4994
-0.499536
-0.499512
-0.499346
-0.46744
-0.473578
-0.476573
-0.479985
-0.482311
-0.484441
-0.486158
-0.487639
-0.488901
-0.489993
-0.490946
-0.491781
-0.492511
-0.493142
-0.493671
-0.49409
-0.494388
-0.494553
-0.494582
-0.494475
-0.494203
-0.493763
-0.466432
-0.471706
-0.474768
-0.477893
-0.480169
-0.482184
-0.483823
-0.485212
-0.486378
-0.487361
-0.488188
-0.488881
-0.489453
-0.48991
-0.490252
-0.490472
-0.490564
-0.490519
-0.490333
-0.490013
-0.489509
-0.488799
-0.464567
-0.469277
-0.472468
-0.475463
-0.477779
-0.479781
-0.481427
-0.482807
-0.483951
-0.484897
-0.48567
-0.486289
-0.486767
-0.487113
-0.487325
-0.487402
-0.487338
-0.487125
-0.486765
-0.486262
-0.485549
-0.484587
-0.462274
-0.466688
-0.47003
-0.473021
-0.47544
-0.477507
-0.479223
-0.480657
-0.481839
-0.482804
-0.483576
-0.484173
-0.484609
-0.484892
-0.485023
-0.485003
-0.484827
-0.48449
-0.483995
-0.483349
-0.482464
-0.481289
-0.459993
-0.464313
-0.467816
-0.47089
-0.47345
-0.475632
-0.47746
-0.478987
-0.480246
-0.481268
-0.482075
-0.482688
-0.483118
-0.483374
-0.483463
-0.483384
-0.483139
-0.482722
-0.482139
-0.4814
-0.4804
-0.479077
-0.458011
-0.462376
-0.466041
-0.469245
-0.471962
-0.474284
-0.476245
-0.477889
-0.479248
-0.48035
-0.48122
-0.481873
-0.482325
-0.482586
-0.482663
-0.482561
-0.482285
-0.481834
-0.481218
-0.480447
-0.479413
-0.478041
-0.456663
-0.461152
-0.464974
-0.468327
-0.4712
-0.473668
-0.475765
-0.477533
-0.479002
-0.480199
-0.481147
-0.481862
-0.482359
-0.482648
-0.482739
-0.482643
-0.482368
-0.481924
-0.481325
-0.48059
-0.479617
-0.478334
-0.455792
-0.460418
-0.464362
-0.467839
-0.470839
-0.473429
-0.475643
-0.477521
-0.479092
-0.480383
-0.481413
-0.482197
-0.482748
-0.483076
-0.483195
-0.483117
-0.482862
-0.482449
-0.481909
-0.481276
-0.480492
-0.479489
-0.455874
-0.460649
-0.464751
-0.468384
-0.471541
-0.474282
-0.476648
-0.478679
-0.480406
-0.481855
-0.483043
-0.483982
-0.484677
-0.485128
-0.485339
-0.485314
-0.485067
-0.484626
-0.484039
-0.483379
-0.482715
-0.482123
1.19835
1.2492
1.29997
1.35059
1.40061
1.44964
1.49727
1.54312
1.58678
1.62789
1.66608
1.70102
1.73241
1.76002
1.78374
1.80361
1.81998
1.83355
1.84528
1.85642
1.86981
1.88737
1.1901
1.24064
1.29078
1.34075
1.39009
1.43839
1.48527
1.53034
1.57319
1.61348
1.65082
1.68491
1.71544
1.74219
1.76505
1.78411
1.79973
1.81265
1.82387
1.83467
1.84788
1.86538
1.16985
1.21969
1.26854
1.31726
1.3653
1.41225
1.45773
1.50136
1.54274
1.5815
1.6173
1.64981
1.67873
1.70387
1.72512
1.74261
1.75676
1.7684
1.77862
1.78872
1.80157
1.81892
1.14081
1.1896
1.23649
1.28327
1.3293
1.37414
1.41744
1.45881
1.49787
1.53425
1.56762
1.59765
1.62407
1.64668
1.66542
1.68047
1.69236
1.70201
1.71064
1.71966
1.73192
1.74902
1.10231
1.14968
1.19401
1.23828
1.28169
1.32381
1.36427
1.40272
1.43877
1.47206
1.50226
1.52906
1.55219
1.57148
1.58692
1.59875
1.60762
1.61463
1.62115
1.62871
1.64015
1.65689
1.05607
1.10167
1.14285
1.18406
1.22426
1.26301
1.3
1.33485
1.36719
1.39668
1.42298
1.44579
1.46487
1.48006
1.4914
1.49924
1.50436
1.50806
1.51192
1.51763
1.528
1.54422
1.00304
1.04653
1.08406
1.12173
1.15821
1.19309
1.22606
1.25675
1.2848
1.30986
1.33162
1.34978
1.36411
1.37449
1.381
1.38411
1.38477
1.38451
1.38518
1.38863
1.39765
1.41317
0.944958
0.986004
1.01947
1.05317
1.0855
1.11602
1.14447
1.17047
1.19367
1.21374
1.23035
1.24324
1.25217
1.25706
1.25805
1.25572
1.25123
1.24638
1.24329
1.24406
1.25143
1.26602
0.883348
0.921609
0.950678
0.980123
1.00795
1.03378
1.05735
1.07828
1.09622
1.11084
1.12185
1.12895
1.13193
1.13074
1.12558
1.11716
1.10686
1.09676
1.08935
1.08696
1.09233
1.10571
0.820171
0.855357
0.879808
0.904737
0.927774
0.948587
0.966919
0.982392
0.994669
1.00342
1.00835
1.00918
1.0057
0.997877
0.985987
0.970866
0.954117
0.938172
0.925888
0.919902
0.922898
0.934757
0.756813
0.788587
0.80836
0.828703
0.846872
0.862586
0.875586
0.885487
0.891949
0.894644
0.893262
0.887528
0.877242
0.862376
0.843268
0.820884
0.79708
0.774646
0.756878
0.74675
0.746928
0.756865
0.695477
0.72355
0.738593
0.754187
0.767299
0.777703
0.785129
0.789188
0.789542
0.78586
0.777834
0.765191
0.747733
0.725449
0.698726
0.668663
0.637362
0.607995
0.584308
0.569659
0.566657
0.574258
0.636522
0.660549
0.671287
0.682402
0.690751
0.696144
0.698287
0.696777
0.691258
0.681387
0.666838
0.647319
0.622617
0.592714
0.558032
0.519793
0.480366
0.443356
0.413049
0.393264
0.386576
0.391376
0.583228
0.602233
0.608585
0.614986
0.618357
0.618491
0.615065
0.607672
0.595952
0.579558
0.558166
0.531489
0.499321
0.461664
0.418991
0.372645
0.325247
0.280786
0.24402
0.219166
0.208658
0.21018
0.533375
0.547279
0.55065
0.552995
0.552225
0.547988
0.539893
0.527512
0.510446
0.488308
0.46073
0.427375
0.387984
0.342511
0.291415
0.236128
0.179559
0.126257
0.0817529
0.0509695
0.0363651
0.0346686
0.495586
0.497743
0.498137
0.496187
0.490462
0.48096
0.467217
0.448832
0.425413
0.396573
0.361953
0.321231
0.274195
0.220894
0.16197
0.0991507
0.0357247
-0.0233849
-0.0724256
-0.106494
-0.123676
-0.128026
0.455754
0.448263
0.443709
0.434555
0.421513
0.404357
0.382623
0.355996
0.324139
0.286739
0.243522
0.194288
0.139018
0.0780797
0.0125792
-0.0552245
-0.121661
-0.18188
-0.230793
-0.264562
-0.282541
-0.289498
0.408375
0.393979
0.384643
0.369008
0.349762
0.326012
0.297454
0.263809
0.224784
0.180132
0.129659
0.0732839
0.0111676
-0.0560417
-0.126858
-0.198613
-0.26737
-0.328365
-0.377043
-0.410432
-0.429028
-0.438227
0.358194
0.33802
0.323477
0.301595
0.276368
0.246315
0.211382
0.171289
0.125795
0.0747083
0.0179114
-0.0445614
-0.112357
-0.184536
-0.259237
-0.333436
-0.403036
-0.463491
-0.510889
-0.543163
-0.561816
-0.572571
0.30603
0.280785
0.260992
0.233358
0.202539
0.16667
0.125928
0.0800159
0.0287576
-0.0279736
-0.0902064
-0.157761
-0.230057
-0.305831
-0.382857
-0.457835
-0.526664
-0.585209
-0.63033
-0.660872
-0.67917
-0.691002
0.252966
0.223302
0.198459
0.165676
0.129791
0.0887611
0.042937
-0.00799004
-0.0641254
-0.125531
-0.192131
-0.263577
-0.339038
-0.416927
-0.494704
-0.568913
-0.635614
-0.691226
-0.733434
-0.761922
-0.77964
-0.792215
0.200188
0.166716
0.137189
0.0999068
0.0595586
0.0140901
-0.0360347
-0.0911187
-0.151196
-0.216257
-0.286102
-0.360195
-0.43744
-0.515948
-0.592947
-0.664959
-0.728371
-0.780261
-0.819137
-0.845399
-0.86241
-0.875482
0.14851
0.111836
0.0781226
0.0370403
-0.00708742
-0.0562041
-0.109789
-0.168118
-0.231156
-0.298808
-0.370733
-0.446189
-0.523815
-0.601468
-0.676242
-0.744794
-0.803973
-0.851584
-0.886901
-0.910898
-0.927151
-0.940544
0.0989285
0.0596495
0.0223342
-0.0218349
-0.0690205
-0.120979
-0.17717
-0.237827
-0.302841
-0.372014
-0.444851
-0.520389
-0.597025
-0.672427
-0.743684
-0.807731
-0.86199
-0.905002
-0.936718
-0.958518
-0.97402
-0.987605
0.0517672
0.0104687
-0.0298075
-0.0763362
-0.125824
-0.179797
-0.237721
-0.299771
-0.365758
-0.435369
-0.507933
-0.582277
-0.656589
-0.728446
-0.795065
-0.853789
-0.90268
-0.940981
-0.969192
-0.988935
-1.00372
-1.01739
0.00780919
-0.0349439
-0.0775192
-0.125707
-0.176764
-0.231967
-0.290799
-0.353361
-0.419373
-0.48839
-0.55956
-0.631511
-0.702291
-0.769492
-0.830593
-0.883449
-0.926782
-0.96046
-0.985381
-1.00326
-1.01739
-1.03105
-0.0333096
-0.0769911
-0.121209
-0.170374
-0.222272
-0.277929
-0.336849
-0.399042
-0.46413
-0.53152
-0.600181
-0.668582
-0.734716
-0.796315
-0.85124
-0.897925
-0.935723
-0.965007
-0.986926
-1.00315
-1.01666
-1.0302
-0.0708223
-0.114928
-0.160157
-0.209677
-0.261762
-0.317187
-0.37547
-0.43652
-0.499843
-0.564689
-0.629868
-0.693747
-0.754363
-0.80971
-0.858124
-0.898635
-0.931153
-0.956419
-0.975685
-0.99047
-1.0034
-1.01671
-0.10593
-0.150028
-0.19569
-0.244985
-0.296629
-0.351156
-0.408088
-0.467214
-0.527915
-0.589292
-0.65003
-0.708481
-0.762843
-0.811486
-0.853278
-0.887814
-0.915445
-0.937132
-0.954094
-0.967627
-0.979962
-0.992892
-0.137267
-0.180935
-0.226494
-0.275054
-0.325722
-0.378792
-0.433779
-0.49034
-0.547728
-0.604915
-0.660527
-0.712994
-0.760787
-0.802718
-0.838186
-0.867257
-0.890585
-0.909199
-0.924192
-0.936593
-0.948238
-0.960526
-0.118944
-0.162998
-0.209054
-0.258176
-0.309488
-0.36325
-0.418966
-0.476258
-0.53434
-0.59214
-0.648241
-0.701044
-0.74901
-0.790971
-0.826355
-0.855267
-0.878393
-0.896786
-0.911553
-0.923733
-0.935143
-0.947168
-0.0874568
-0.131957
-0.178127
-0.227971
-0.280241
-0.335431
-0.39306
-0.452887
-0.514259
-0.57623
-0.637443
-0.696208
-0.750712
-0.799333
-0.840976
-0.875281
-0.902643
-0.924054
-0.940753
-0.954041
-0.966123
-0.978768
-0.0524226
-0.0969436
-0.142697
-0.192756
-0.24545
-0.301511
-0.36046
-0.42218
-0.486148
-0.551572
-0.617213
-0.681394
-0.742127
-0.797408
-0.845607
-0.885809
-0.917981
-0.942906
-0.961861
-0.976376
-0.989036
-1.00205
-0.0152607
-0.0593689
-0.104135
-0.153834
-0.20633
-0.2626
-0.322157
-0.38499
-0.450697
-0.518646
-0.58776
-0.656457
-0.722693
-0.784194
-0.838848
-0.885148
-0.922516
-0.951384
-0.972939
-0.988862
-1.0021
-1.01534
0.0252291
-0.0179587
-0.0611136
-0.109836
-0.161485
-0.217285
-0.276733
-0.33991
-0.406521
-0.476084
-0.547705
-0.619957
-0.690844
-0.757937
-0.818731
-0.87114
-0.913965
-0.947149
-0.971645
-0.989189
-1.00303
-1.0164
0.0682727
0.0265316
-0.014363
-0.0614348
-0.111518
-0.166082
-0.224609
-0.287259
-0.35383
-0.423982
-0.497004
-0.571668
-0.646112
-0.717876
-0.784181
-0.84242
-0.890739
-0.928474
-0.956198
-0.975568
-0.990066
-1.00346
0.114251
0.0745207
0.0365421
-0.00818741
-0.0559809
-0.108534
-0.165327
-0.226581
-0.292176
-0.361896
-0.435209
-0.511102
-0.587914
-0.663268
-0.734239
-0.797796
-0.851446
-0.893834
-0.925007
-0.946398
-0.961606
-0.974934
0.16241
0.125273
0.0908456
0.0491749
0.00441751
-0.0453114
-0.0995083
-0.158444
-0.222075
-0.290291
-0.362723
-0.438583
-0.516452
-0.59413
-0.668681
-0.736781
-0.795349
-0.842303
-0.877033
-0.90059
-0.916549
-0.929716
0.212472
0.178517
0.148222
0.110313
0.069304
0.0231941
-0.0275676
-0.0832815
-0.143978
-0.209634
-0.28003
-0.354591
-0.432164
-0.510798
-0.587675
-0.659314
-0.722157
-0.773392
-0.81166
-0.83746
-0.854184
-0.867069
0.263498
0.233319
0.207654
0.174194
0.137609
0.0958966
0.0493982
-0.00219672
-0.0589905
-0.121038
-0.188247
-0.260239
-0.336129
-0.414269
-0.492058
-0.566016
-0.632236
-0.687239
-0.728845
-0.756867
-0.774312
-0.78675
0.314735
0.288929
0.268262
0.23989
0.208326
0.171724
0.130259
0.0836285
0.0316585
-0.0257741
-0.088687
-0.156876
-0.229716
-0.305883
-0.383085
-0.457973
-0.526458
-0.584482
-0.629046
-0.65914
-0.677192
-0.688948
0.365076
0.344274
0.328812
0.306124
0.280099
0.249255
0.213542
0.172671
0.1264
0.074541
0.0169823
-0.0462238
-0.114689
-0.187418
-0.262479
-0.336785
-0.406219
-0.466292
-0.513219
-0.545091
-0.56354
-0.574292
0.413492
0.398372
0.388088
0.371574
0.351473
0.326872
0.297467
0.262976
0.2231
0.177595
0.12627
0.0690552
0.00613891
-0.061782
-0.133152
-0.205231
-0.274037
-0.334832
-0.383167
-0.416232
-0.434685
-0.443966
0.459224
0.45084
0.445315
0.435211
0.421257
0.403193
0.380552
0.353014
0.320237
0.281906
0.237747
0.187571
0.131374
0.0695647
0.00331329
-0.0650431
-0.13177
-0.192008
-0.24075
-0.274308
-0.292224
-0.299363
0.497866
0.498944
0.498356
0.495402
0.488694
0.478217
0.463494
0.44412
0.419696
0.389834
0.35417
0.312389
0.264285
0.209939
0.150045
0.0864103
0.0224098
-0.0369887
-0.0860751
-0.120082
-0.137304
-0.141946
0.533901
0.54651
0.548888
0.550241
0.548461
0.543216
0.534099
0.520678
0.502549
0.479322
0.450626
0.416126
0.375573
0.328943
0.276745
0.220487
0.163165
0.109385
0.0646557
0.0337895
0.0190373
0.016957
0.581565
0.599203
0.604566
0.609964
0.612301
0.611402
0.606924
0.598455
0.585632
0.568105
0.545548
0.517675
0.48429
0.445418
0.401576
0.354177
0.305919
0.260844
0.223702
0.198625
0.187865
0.188936
0.63293
0.655623
0.665364
0.675476
0.682781
0.687123
0.688189
0.685572
0.678914
0.667867
0.652106
0.63134
0.605366
0.574186
0.538265
0.498885
0.458493
0.420744
0.389928
0.369801
0.362773
0.36707
0.690034
0.716825
0.730867
0.745462
0.757527
0.766874
0.773214
0.776155
0.775353
0.770478
0.76122
0.747309
0.728555
0.704965
0.676967
0.645715
0.61338
0.583186
0.558891
0.543809
0.540404
0.547475
0.749829
0.780426
0.799212
0.818574
0.835712
0.850379
0.862298
0.871081
0.876387
0.877885
0.875267
0.868259
0.856668
0.840486
0.820084
0.796481
0.771595
0.748268
0.729817
0.719189
0.718924
0.728325
0.811961
0.846069
0.869554
0.893529
0.915564
0.935353
0.952627
0.967006
0.978148
0.985729
0.989441
0.989014
0.984254
0.975134
0.961963
0.945625
0.92778
0.910912
0.897905
0.89138
0.893915
0.905252
0.874318
0.911619
0.939767
0.968303
0.995178
1.02003
1.04258
1.06245
1.0793
1.0928
1.10263
1.10852
1.11027
1.10782
1.10142
1.09181
1.08042
1.0694
1.06125
1.05831
1.06322
1.07611
0.935539
0.975738
1.00834
1.04119
1.07262
1.10223
1.12972
1.15473
1.1769
1.1959
1.21142
1.22317
1.23094
1.23464
1.23446
1.231
1.22548
1.21972
1.21591
1.21614
1.22307
1.2372
0.993687
1.03645
1.0732
1.11008
1.14576
1.1798
1.21189
1.24167
1.26878
1.29287
1.31362
1.33074
1.344
1.35329
1.35872
1.36079
1.36048
1.35938
1.35936
1.3623
1.37091
1.38602
1.04724
1.09223
1.13271
1.17323
1.21271
1.25072
1.28694
1.32098
1.35249
1.38111
1.40651
1.4284
1.44653
1.46075
1.47113
1.47804
1.4823
1.48523
1.48848
1.49372
1.50373
1.51959
1.09442
1.1413
1.18504
1.22873
1.27153
1.31301
1.35282
1.39058
1.42592
1.45847
1.48791
1.51392
1.53624
1.55472
1.56933
1.58037
1.5885
1.59485
1.60083
1.60799
1.61911
1.63555
1.13425
1.18265
1.22907
1.27539
1.32093
1.36526
1.40803
1.44885
1.48734
1.52313
1.55589
1.58529
1.61106
1.63301
1.65109
1.6655
1.67678
1.6859
1.6941
1.70279
1.7148
1.73167
1.16493
1.2145
1.26301
1.31138
1.35906
1.40564
1.45074
1.49397
1.53493
1.57326
1.60861
1.64065
1.6691
1.69376
1.71453
1.73155
1.74526
1.75651
1.7664
1.77626
1.78892
1.80611
1.18705
1.23743
1.28736
1.33712
1.38625
1.43432
1.48097
1.52578
1.56839
1.60841
1.64548
1.67928
1.70952
1.73598
1.75855
1.77732
1.79267
1.80535
1.81637
1.82702
1.84012
1.85752
1.19732
1.24811
1.29882
1.34936
1.39931
1.44826
1.49582
1.54158
1.58516
1.62618
1.66428
1.69912
1.73042
1.75793
1.78155
1.80132
1.8176
1.83109
1.84276
1.85384
1.8672
1.88473
-0.148142
-0.176742
-0.201837
-0.225659
-0.247822
-0.268572
-0.28803
-0.306429
-0.323705
-0.340157
-0.355265
-0.369732
-0.381638
-0.394144
-0.399321
-0.414439
-0.435207
-0.445001
-0.452109
-0.456086
-0.458072
-0.458398
-0.457448
-0.455609
-0.453317
-0.451016
-0.449009
-0.447642
-0.446757
-0.446868
-0.191285
-0.218662
-0.24231
-0.264478
-0.284896
-0.303842
-0.321447
-0.338041
-0.353458
-0.36818
-0.381391
-0.394192
-0.40422
-0.414998
-0.420034
-0.432025
-0.448983
-0.456812
-0.462283
-0.464817
-0.46548
-0.464669
-0.462861
-0.460461
-0.457872
-0.455478
-0.453516
-0.452274
-0.451531
-0.451793
-0.236688
-0.263036
-0.285365
-0.30595
-0.324625
-0.341695
-0.357302
-0.371829
-0.385058
-0.397564
-0.40839
-0.418902
-0.426389
-0.43496
-0.437213
-0.446381
-0.458637
-0.463784
-0.467214
-0.468609
-0.468757
-0.467813
-0.466052
-0.463772
-0.461331
-0.459098
-0.4573
-0.456218
-0.455597
-0.456018
-0.284571
-0.309292
-0.329738
-0.348171
-0.364532
-0.379135
-0.392144
-0.403965
-0.414396
-0.42404
-0.432028
-0.439731
-0.444789
-0.450959
-0.451874
-0.458649
-0.467059
-0.470485
-0.472647
-0.473215
-0.472731
-0.471329
-0.469278
-0.466865
-0.464419
-0.46227
-0.460603
-0.459673
-0.459179
-0.459756
-0.334385
-0.357199
-0.375469
-0.391422
-0.405097
-0.416812
-0.426768
-0.435387
-0.442543
-0.44885
-0.453643
-0.458222
-0.460667
-0.4643
-0.463674
-0.46817
-0.473369
-0.47528
-0.476306
-0.476218
-0.475348
-0.473755
-0.471643
-0.469265
-0.466919
-0.464912
-0.463404
-0.462633
-0.462267
-0.462999
-0.386164
-0.406556
-0.422112
-0.435011
-0.445391
-0.453583
-0.45986
-0.464681
-0.468067
-0.470658
-0.472068
-0.473476
-0.473465
-0.474784
-0.473008
-0.475568
-0.478468
-0.479352
-0.479604
-0.479021
-0.47779
-0.475962
-0.47373
-0.471335
-0.469054
-0.467162
-0.465797
-0.465173
-0.464929
-0.465813
-0.439384
-0.456805
-0.469081
-0.478331
-0.484805
-0.48889
-0.490969
-0.491585
-0.490944
-0.489729
-0.48781
-0.486226
-0.48396
-0.483207
-0.480408
-0.481336
-0.482607
-0.482673
-0.482291
-0.481286
-0.479756
-0.477746
-0.47543
-0.473038
-0.470827
-0.469047
-0.467817
-0.46733
-0.467205
-0.46824
-0.493531
-0.5073
-0.51561
-0.520533
-0.522464
-0.5219
-0.519382
-0.515574
-0.510875
-0.505997
-0.501009
-0.496776
-0.492568
-0.490069
-0.486409
-0.486001
-0.486162
-0.485582
-0.484682
-0.483298
-0.48148
-0.479281
-0.47687
-0.474466
-0.472307
-0.470622
-0.469509
-0.469147
-0.469134
-0.47032
-0.547709
-0.557069
-0.560701
-0.560664
-0.557539
-0.551989
-0.544739
-0.53658
-0.528063
-0.519892
-0.512234
-0.505764
-0.499921
-0.495958
-0.491519
-0.490005
-0.489362
-0.488204
-0.486832
-0.485078
-0.482977
-0.48059
-0.478078
-0.475651
-0.473529
-0.471921
-0.470909
-0.470658
-0.470748
-0.472089
-0.60077
-0.604958
-0.603271
-0.597797
-0.589335
-0.578742
-0.566917
-0.554741
-0.542842
-0.531865
-0.521984
-0.513678
-0.506477
-0.501286
-0.49612
-0.493662
-0.492374
-0.490663
-0.48883
-0.4867
-0.484309
-0.481721
-0.479096
-0.47663
-0.474526
-0.472975
-0.472045
-0.47189
-0.472074
-0.473572
-0.651335
-0.649721
-0.642292
-0.63119
-0.617435
-0.602066
-0.586095
-0.57043
-0.555694
-0.542422
-0.53074
-0.520942
-0.5126
-0.506351
-0.500481
-0.49718
-0.495298
-0.493026
-0.490722
-0.488201
-0.485507
-0.482708
-0.479954
-0.47743
-0.475325
-0.47381
-0.472942
-0.472867
-0.473134
-0.47479
-0.698003
-0.690249
-0.676997
-0.660437
-0.641775
-0.622165
-0.60266
-0.584119
-0.567098
-0.551995
-0.538861
-0.527836
-0.518511
-0.511324
-0.504757
-0.500672
-0.498185
-0.495331
-0.492539
-0.48961
-0.486598
-0.483572
-0.480673
-0.478073
-0.475945
-0.474445
-0.473619
-0.473605
-0.473942
-0.475752
-0.7396
-0.72578
-0.70702
-0.685527
-0.662611
-0.639466
-0.617105
-0.596288
-0.577468
-0.560909
-0.546588
-0.534524
-0.524323
-0.516276
-0.509022
-0.504181
-0.50105
-0.497592
-0.494289
-0.490938
-0.487596
-0.484329
-0.481268
-0.478572
-0.4764
-0.474894
-0.47409
-0.474121
-0.474512
-0.476466
-0.775423
-0.756039
-0.732444
-0.706797
-0.680427
-0.654496
-0.629922
-0.607345
-0.587109
-0.56937
-0.554044
-0.541068
-0.530063
-0.52121
-0.513279
-0.507701
-0.503877
-0.499799
-0.49597
-0.492186
-0.488504
-0.484983
-0.481745
-0.478936
-0.476699
-0.475166
-0.474366
-0.474425
-0.474857
-0.476934
-0.805352
-0.781256
-0.753726
-0.724816
-0.695804
-0.667771
-0.641523
-0.617586
-0.596211
-0.577478
-0.561265
-0.547458
-0.535695
-0.526075
-0.517488
-0.511185
-0.50663
-0.501926
-0.497565
-0.493344
-0.489318
-0.485535
-0.482106
-0.479165
-0.476845
-0.475268
-0.474456
-0.474529
-0.474987
-0.477157
-0.829817
-0.802042
-0.771546
-0.740233
-0.709298
-0.679723
-0.652209
-0.627191
-0.604861
-0.58525
-0.568222
-0.553634
-0.541146
-0.530791
-0.521577
-0.514568
-0.509257
-0.503935
-0.499046
-0.494396
-0.490025
-0.485975
-0.482345
-0.479257
-0.476838
-0.475201
-0.474364
-0.474441
-0.474918
-0.477141
-0.849636
-0.819222
-0.786648
-0.753665
-0.721371
-0.690662
-0.662161
-0.636244
-0.61307
-0.592648
-0.574847
-0.559512
-0.546324
-0.535265
-0.525457
-0.51777
-0.511701
-0.505783
-0.500384
-0.495319
-0.490612
-0.486295
-0.482455
-0.479208
-0.476674
-0.474964
-0.474094
-0.474172
-0.474667
-0.476899
-0.865805
-0.833656
-0.799723
-0.765619
-0.732363
-0.700791
-0.671475
-0.644764
-0.620806
-0.599611
-0.581061
-0.565002
-0.551137
-0.539405
-0.529039
-0.520712
-0.513906
-0.507428
-0.50155
-0.496094
-0.491064
-0.486482
-0.482427
-0.479009
-0.476348
-0.474555
-0.473649
-0.473731
-0.474256
-0.476459
-0.87924
-0.84605
-0.81127
-0.776413
-0.742447
-0.710171
-0.680138
-0.65269
-0.627984
-0.606042
-0.586764
-0.570006
-0.555492
-0.543123
-0.53224
-0.52332
-0.515824
-0.508836
-0.502521
-0.496704
-0.491371
-0.486532
-0.482259
-0.478662
-0.475863
-0.473979
-0.473036
-0.473133
-0.473715
-0.47587
-0.890707
-0.85694
-0.821624
-0.78622
-0.751675
-0.718775
-0.688072
-0.659917
-0.634487
-0.611821
-0.59184
-0.574413
-0.559284
-0.546324
-0.534967
-0.525521
-0.517408
-0.509977
-0.503279
-0.497143
-0.491531
-0.486446
-0.481957
-0.478174
-0.475226
-0.473244
-0.472266
-0.472395
-0.473078
-0.475206
-0.901697
-0.867573
-0.831802
-0.795873
-0.760731
-0.727167
-0.695744
-0.666834
-0.640634
-0.617206
-0.596494
-0.578381
-0.56263
-0.549093
-0.537272
-0.527343
-0.518694
-0.510875
-0.50384
-0.497414
-0.491535
-0.486198
-0.481472
-0.477475
-0.474351
-0.472248
-0.47123
-0.471417
-0.472287
-0.474535
-0.913354
-0.8789
-0.842589
-0.806032
-0.770189
-0.735857
-0.70362
-0.673869
-0.646824
-0.62257
-0.601069
-0.582222
-0.565812
-0.551682
-0.539375
-0.528963
-0.519817
-0.511623
-0.504268
-0.497556
-0.491399
-0.485786
-0.480786
-0.476531
-0.473187
-0.470929
-0.469854
-0.470125
-0.471272
-0.473933
0.0411454
0.0410651
0.0409394
0.0407591
0.040552
0.040332
0.0401282
0.039966
0.0398758
0.0398857
0.0400229
0.040311
0.0407693
0.041412
0.0422478
0.0432796
0.0445046
0.0459149
0.0474974
0.0492349
0.0511059
0.0530857
0.0551455
0.0572554
0.0399628
0.0398982
0.0397834
0.03962
0.0394294
0.0392284
0.0390437
0.0389016
0.0388314
0.0388612
0.039018
0.039325
0.0398018
0.0404625
0.0413162
0.0423661
0.0436101
0.0450404
0.0466447
0.0484059
0.0503029
0.0523114
0.0544028
0.0565472
0.038841
0.0387912
0.0386876
0.0385412
0.0383678
0.0381863
0.0380216
0.0379
0.0378502
0.0379
0.038076
0.0384014
0.0388957
0.0395734
0.0404437
0.0415105
0.0427719
0.0442209
0.0458455
0.047629
0.0495509
0.0515869
0.0537088
0.0558869
0.0377768
0.0377408
0.0376484
0.0375192
0.0373635
0.037202
0.0370578
0.0369571
0.0369279
0.0369977
0.0371926
0.0375359
0.0380469
0.0387405
0.0396263
0.0407087
0.0419865
0.043453
0.0450966
0.0469015
0.0488471
0.0509097
0.0530613
0.0552722
0.0367664
0.036743
0.036662
0.0365499
0.0364122
0.0362711
0.0361478
0.0360684
0.0360599
0.0361496
0.0363631
0.0367235
0.0372505
0.0379592
0.0388596
0.0399567
0.0412497
0.0427327
0.0443946
0.0462198
0.0481884
0.050277
0.0524577
0.054701
0.0358056
0.0357937
0.035724
0.0356288
0.0355094
0.0353889
0.0352867
0.0352288
0.0352411
0.0353504
0.0355822
0.0359594
0.0365017
0.0372246
0.0381388
0.0392497
0.0405573
0.042056
0.0437355
0.0455806
0.0475717
0.0496858
0.0518953
0.0541707
0.0348899
0.0348883
0.0348297
0.0347512
0.0346502
0.0345504
0.0344695
0.0344331
0.034466
0.0345948
0.0348444
0.0352378
0.0357949
0.0365316
0.037459
0.0385831
0.0399047
0.0414188
0.0431154
0.04498
0.0469935
0.049133
0.0513711
0.0536787
0.0340145
0.0340219
0.0339744
0.033912
0.0338293
0.0337502
0.0336905
0.0336755
0.033729
0.033877
0.0341441
0.0345533
0.0351247
0.0358746
0.0368147
0.0379518
0.0392871
0.0408164
0.0425301
0.0444143
0.0464501
0.0486151
0.0508821
0.053222
0.0331745
0.0331897
0.0331528
0.0331062
0.0330415
0.0329827
0.0329442
0.0329504
0.0330241
0.033191
0.0334752
0.0338999
0.0344852
0.0352481
0.0362008
0.0373508
0.0386998
0.0402444
0.0419754
0.0438794
0.0459378
0.0481288
0.0504251
0.0527979
0.0323646
0.0323863
0.0323598
0.0323281
0.0322812
0.0322425
0.0322248
0.0322517
0.0323454
0.0325308
0.0328318
0.0332716
0.0338707
0.0346464
0.0356118
0.0367748
0.0381379
0.039698
0.0414469
0.0433712
0.045453
0.0476705
0.0499969
0.0524033
0.0315795
0.0316066
0.0315899
0.0315726
0.0315429
0.0315236
0.0315262
0.0315736
0.0316868
0.0318903
0.0322078
0.0326625
0.0332752
0.0340639
0.0350422
0.0362186
0.0375963
0.0391728
0.0409402
0.0428857
0.0449917
0.0472367
0.0495941
0.0520351
0.030814
0.0308452
0.0308378
0.0308339
0.0308209
0.0308204
0.0308428
0.03091
0.0310422
0.0312634
0.0315971
0.0320666
0.0326931
0.0334951
0.0344867
0.0356772
0.0370703
0.038664
0.040451
0.0424188
0.0445501
0.0468238
0.0492134
0.0516902
0.0300626
0.0300967
0.0300982
0.0301068
0.0301097
0.0301271
0.0301687
0.030255
0.0304057
0.0306443
0.0309939
0.0314782
0.0321187
0.0329344
0.03394
0.0351455
0.0365551
0.0381672
0.0399751
0.0419665
0.0441245
0.0464283
0.0488515
0.0513655
0.0293201
0.0293561
0.0293657
0.0293859
0.0294038
0.0294384
0.0294982
0.029603
0.0297716
0.030027
0.0303925
0.0308917
0.0315465
0.0323766
0.0333972
0.0346187
0.036046
0.037678
0.0395082
0.0415249
0.0437112
0.0460467
0.0485051
0.0510578
0.0285814
0.0286183
0.0286354
0.0286661
0.0286981
0.0287488
0.028826
0.0289484
0.0291342
0.0294062
0.0297874
0.0303016
0.0309714
0.0318166
0.0328532
0.0340922
0.0355387
0.0371922
0.0390465
0.0410901
0.0433066
0.0456756
0.0481709
0.0507641
0.0278415
0.0278784
0.0279022
0.0279424
0.0279876
0.0280533
0.0281469
0.028286
0.0284885
0.0287767
0.0291735
0.0297031
0.0303884
0.0312498
0.0323037
0.0335616
0.035029
0.0367058
0.038586
0.0406585
0.0429071
0.0453116
0.0478458
0.0504813
0.0270956
0.0271317
0.0271616
0.0272103
0.0272674
0.0273471
0.027456
0.0276111
0.0278296
0.0281335
0.0285461
0.0290915
0.0297931
0.0306717
0.0317444
0.0330228
0.0345129
0.036215
0.0381232
0.0402267
0.0425095
0.0449515
0.0475266
0.0502065
0.0263395
0.026374
0.0264092
0.0264653
0.0265334
0.0266258
0.026749
0.0269191
0.027153
0.0274725
0.0279008
0.0284625
0.0291812
0.0300784
0.0311713
0.0324721