/*--------------------------------*- C++ -*----------------------------------*\
| =========                 |                                                 |
| \\      /  F ield         | OpenFOAM Extend Project: Open source CFD        |
|  \\    /   O peration     | Version:  1.6-ext                               |
|   \\  /    A nd           | Web:      www.extend-project.de                 |
|    \\/     M anipulation  |                                                 |
\*---------------------------------------------------------------------------*/
FoamFile
{
    version     2.0;
    format      ascii;
    class       surfaceScalarField;
    location    "1.15";
    object      phi;
}
// * * * * * * * * * * * * * * * * * * * * * * * * * * * * * * * * * * * * * //

dimensions      [0 3 -1 0 0 0 0];

internalField   nonuniform List<scalar> 
41420
(
-0.000127304
0.000396783
-0.000397551
0.000128072
-0.000126078
0.000377838
-0.000379065
-0.000124424
0.000359242
-0.000360895
-0.000122345
0.000340894
-0.000342973
-0.000119776
0.000322791
-0.00032536
-0.000116566
0.000304718
-0.000307929
-0.000112475
0.000286324
-0.000290415
-0.000107209
0.000267137
-0.000272403
-0.000100494
0.000246672
-0.000253387
-9.21761e-05
0.000224589
-0.000232906
-8.23146e-05
0.000200835
-0.000210697
-7.12212e-05
0.000175741
-0.000186835
-5.94289e-05
0.000149997
-0.000161789
-4.75979e-05
0.000124523
-0.000136355
-3.63857e-05
0.000100287
-0.000111499
-2.634e-05
7.81171e-05
-8.81627e-05
-1.78307e-05
5.85862e-05
-6.70955e-05
-1.10396e-05
4.19761e-05
-4.87673e-05
-5.98622e-06
2.83055e-05
-3.33588e-05
-2.57505e-06
1.73957e-05
-2.08069e-05
-6.43287e-07
8.94512e-06
-1.08769e-05
2.59593e-06
-3.23921e-06
-0.000135142
0.000395838
0.000136087
-0.000133716
0.000376412
-0.000131826
0.000357351
-0.000129434
0.000338502
-0.000126424
0.000319782
-0.000122585
0.000300879
-0.000117627
0.000281366
-0.000111249
0.000260758
-0.000103231
0.000238654
-9.35377e-05
0.000214896
-8.23861e-05
0.000189684
-7.02415e-05
0.000163597
-5.77436e-05
0.000137499
-4.55829e-05
0.000112363
-3.43765e-05
8.90809e-05
-2.45801e-05
6.83207e-05
-1.64559e-05
5.0462e-05
-1.00863e-05
3.56065e-05
-5.41627e-06
2.36354e-05
-2.30356e-06
1.4283e-05
-5.62945e-07
7.2045e-06
2.03298e-06
-0.000150046
0.000394217
0.000151667
-0.000147917
0.000374283
-0.000145271
0.000354704
-0.000142013
0.000335245
-0.000137962
0.00031573
-0.000132834
0.000295751
-0.000126309
0.000274841
-0.000118112
0.000252561
-0.000108128
0.00022867
-9.64904e-05
0.000203258
-8.36037e-05
0.000176797
-7.00914e-05
0.000150084
-5.66762e-05
0.000124084
-4.40456e-05
9.97321e-05
-3.27418e-05
7.77771e-05
-2.3109e-05
5.86878e-05
-1.52923e-05
4.26454e-05
-9.27592e-06
2.95901e-05
-4.93346e-06
1.9293e-05
-2.07825e-06
1.14278e-05
-5.01831e-07
5.62808e-06
1.53115e-06
-0.000164345
0.000391942
0.000166619
-0.000161511
0.000371449
-0.000158059
0.000351252
-0.000153821
0.000331007
-0.000148535
0.000310445
-0.000141868
0.000289084
-0.000133503
0.000266476
-0.000123255
0.000242313
-0.000111175
0.000216591
-9.76062e-05
0.000189689
-8.31435e-05
0.000162334
-6.85319e-05
0.000135473
-5.45208e-05
0.000110073
-4.17359e-05
8.69472e-05
-3.06048e-05
6.6646e-05
-2.13406e-05
4.94236e-05
-1.39724e-05
3.52771e-05
-8.39581e-06
2.40136e-05
-4.42773e-06
1.53249e-05
-1.85038e-06
8.85046e-06
-4.42865e-07
4.22057e-06
1.08829e-06
-0.000177317
0.00038906
0.0001802
-0.000173779
0.000367911
-0.000169455
0.000346928
-0.000164089
0.000325642
-0.000157348
0.000303704
-0.000148881
0.000280616
-0.000138442
0.000256037
-0.000126008
0.00022988
-0.000111855
0.000202438
-9.65456e-05
0.000174379
-8.08348e-05
0.000146624
-6.55254e-05
0.000120163
-5.13217e-05
9.58688e-05
-3.87348e-05
7.43603e-05
-2.80495e-05
5.59606e-05
-1.93451e-05
4.07192e-05
-1.25452e-05
2.84773e-05
-7.47549e-06
1.89438e-05
-3.91305e-06
1.17625e-05
-1.6238e-06
6.56122e-06
-3.85547e-07
2.98231e-06
7.02739e-07
-0.00018888
0.000385589
0.000192351
-0.000184585
0.000363615
-0.000179243
0.000341587
-0.000172514
0.000318912
-0.000164026
0.000295217
-0.000153479
0.000270069
-0.000140781
0.000243339
-0.000126141
0.000215239
-0.000110084
0.000186382
-9.33725e-05
0.000157667
-7.68526e-05
0.000130104
-6.13029e-05
0.000104614
-4.73163e-05
8.18822e-05
-3.52505e-05
6.22945e-05
-2.52387e-05
4.59488e-05
-1.7237e-05
3.27175e-05
-1.10842e-05
2.23245e-05
-6.55645e-06
1.44161e-05
-3.40944e-06
8.61545e-06
-1.40596e-06
4.55774e-06
-3.31362e-07
1.90771e-06
3.71376e-07
-0.000198811
0.000381482
0.000202918
-0.000193621
0.000358425
-0.000187028
0.000334994
-0.000178629
0.000310513
-0.000168083
0.000284671
-0.000155231
0.000257217
-0.000140219
0.000228326
-0.000123531
0.000198551
-0.000105927
0.000168778
-8.82953e-05
0.000140035
-7.1484e-05
0.000113292
-5.61664e-05
8.92961e-05
-4.27745e-05
6.84903e-05
-3.14978e-05
5.10178e-05
-2.23279e-05
3.67789e-05
-1.512e-05
2.55096e-05
-9.65235e-06
1.68569e-05
-5.67347e-06
1.04372e-05
-2.93348e-06
5.87547e-06
-1.20297e-06
2.82722e-06
-2.81575e-07
9.86317e-07
8.98013e-08
-0.00020688
0.000376638
0.000211723
-0.000200572
0.000352118
-0.000192413
0.000326835
-0.000182003
0.000300103
-0.000169129
0.000271798
-0.000153873
0.000241961
-0.000136681
0.000211133
-0.000118305
0.000180175
-9.967e-05
0.000150144
-8.16919e-05
0.000122057
-6.5123e-05
9.67235e-05
-5.04698e-05
7.46429e-05
-3.79805e-05
5.60009e-05
-2.76848e-05
4.07222e-05
-1.94575e-05
2.85516e-05
-1.30815e-05
1.91336e-05
-8.30009e-06
1.20754e-05
-4.85276e-06
6.98987e-06
-2.49702e-06
3.51973e-06
-1.01903e-06
1.34923e-06
-2.36995e-07
2.04285e-07
-1.47193e-07
-0.000212696
0.000370812
0.000218522
-0.000204946
0.000344368
-0.000194861
0.00031675
-0.000182151
0.000287393
-0.000166835
0.000256482
-0.000149304
0.000224431
-0.000130308
0.000192137
-0.000110802
0.00016067
-9.17692e-05
0.00013111
-7.40416e-05
0.00010433
-5.82036e-05
8.08854e-05
-4.45643e-05
6.10036e-05
-3.31943e-05
4.4631e-05
-2.39901e-05
3.1518e-05
-1.67417e-05
2.13032e-05
-1.11895e-05
1.35814e-05
-7.0644e-06
7.95032e-06
-4.11241e-06
4.03788e-06
-2.10758e-06
1.51489e-06
-8.5648e-07
9.81354e-08
-1.97976e-07
-4.54219e-07
-3.45169e-07
-0.000215885
0.00036375
0.000222947
-0.000206344
0.000334826
-0.000194022
0.000304429
-0.000178855
0.000272226
-0.000161194
0.000238821
-0.000141764
0.000205
-0.000121549
0.000171922
-0.000101595
0.000140716
-8.28182e-05
0.000112334
-6.58818e-05
8.73932e-05
-5.11616e-05
6.61653e-05
-3.87736e-05
4.86155e-05
-2.86389e-05
3.44963e-05
-2.0557e-05
2.34361e-05
-1.42671e-05
1.50133e-05
-9.49304e-06
8.80729e-06
-5.97102e-06
4.4283e-06
-3.46457e-06
1.53143e-06
-1.77003e-06
-1.79656e-07
-7.16797e-07
-9.55094e-07
-1.64744e-07
-1.00627e-06
-5.09913e-07
-0.000215896
0.000354995
0.000224651
-0.00020422
0.00032315
-0.000189492
0.000289701
-0.000171976
0.00025471
-0.000152368
0.000219212
-0.00013167
0.000184302
-0.000110985
0.000151237
-9.1312e-05
0.000121043
-7.33987e-05
9.44203e-05
-5.76919e-05
7.16864e-05
-4.43575e-05
5.2831e-05
-3.33479e-05
3.7606e-05
-2.44762e-05
2.56245e-05
-1.74836e-05
1.64435e-05
-1.20891e-05
9.61882e-06
-8.02097e-06
4.73915e-06
-5.03367e-06
1.441e-06
-2.91489e-06
-5.87349e-07
-1.48615e-06
-1.60839e-06
-6.00215e-07
-1.84103e-06
-1.37182e-07
-1.4693e-06
-6.47095e-07
-0.000212621
0.000344398
0.000223219
-0.000198659
0.000309188
-0.00018159
0.000272632
-0.000162076
0.000235196
-0.000141124
0.000198259
-0.000119897
0.000163075
-9.94801e-05
0.000130821
-8.07129e-05
0.000102276
-6.41177e-05
7.78251e-05
-4.99171e-05
5.74858e-05
-3.80955e-05
4.10094e-05
-2.84825e-05
2.7993e-05
-2.08243e-05
1.79663e-05
-1.48373e-05
1.04565e-05
-1.02439e-05
5.02542e-06
-6.79146e-06
1.28674e-06
-4.26072e-06
-1.08974e-06
-2.4669e-06
-2.38117e-06
-1.25733e-06
-2.81795e-06
-5.07277e-07
-2.59109e-06
-1.15515e-07
-1.86107e-06
-7.6261e-07
-0.000205533
0.000331459
0.000218473
-0.000189326
0.000292981
-0.000170303
0.00025361
-0.000149468
0.00021436
-0.000128006
0.000176797
-0.000107091
0.000142161
-8.76567e-05
0.000111386
-7.03171e-05
8.4936e-05
-5.536e-05
6.2868e-05
-4.28129e-05
4.49386e-05
-3.25273e-05
3.07239e-05
-2.42567e-05
1.97223e-05
-1.77173e-05
1.14269e-05
-1.26275e-05
5.36672e-06
-8.7295e-06
1.1274e-06
-5.79882e-06
-1.64394e-06
-3.64642e-06
-3.24214e-06
-2.11623e-06
-3.91136e-06
-1.08079e-06
-3.85339e-06
-4.3647e-07
-3.23541e-06
-9.91088e-08
-2.19843e-06
-8.61719e-07
-0.00019525
0.00031672
0.000209989
-0.000177203
0.000274934
-0.000156803
0.000233209
-0.000135409
0.000192967
-0.000114218
0.000155606
-9.42971e-05
0.00012224
-7.63479e-05
9.3437e-05
-6.07363e-05
6.93244e-05
-4.75406e-05
4.96723e-05
-3.66402e-05
3.40382e-05
-2.78021e-05
2.18858e-05
-2.07456e-05
1.26657e-05
-1.51862e-05
5.86752e-06
-1.08618e-05
1.04228e-06
-7.54326e-06
-2.19111e-06
-5.03785e-06
-4.14935e-06
-3.18687e-06
-5.09312e-06
-1.8614e-06
-5.23683e-06
-9.5717e-07
-4.75763e-06
-3.89532e-07
-3.80305e-06
-8.94161e-08
-2.49854e-06
-9.51135e-07
-0.000181534
0.00029975
0.000198504
-0.000162253
0.000255653
-0.00014136
0.000212316
-0.000120317
0.000171924
-0.000100239
0.000135528
-8.19444e-05
0.000103945
-6.58748e-05
7.73674e-05
-5.21686e-05
5.56182e-05
-4.07472e-05
3.8251e-05
-3.14038e-05
2.46948e-05
-2.38719e-05
1.43538e-05
-1.7873e-05
6.6668e-06
-1.31449e-05
1.13947e-06
-9.45602e-06
-2.64661e-06
-6.61008e-06
-5.03705e-06
-4.44555e-06
-6.31388e-06
-2.83182e-06
-6.70685e-06
-1.66432e-06
-6.40433e-06
-8.59328e-07
-5.56261e-06
-3.49131e-07
-4.31325e-06
-7.82392e-08
-2.76943e-06
-1.02937e-06
-0.000341882
0.000243487
0.000398146
-0.000286435
0.000200206
-0.000234372
0.000160252
-0.000187514
0.000125066
-0.000146843
9.48574e-05
-0.000112667
6.97692e-05
-8.47258e-05
4.94265e-05
-6.24221e-05
3.33144e-05
-4.4991e-05
2.08199e-05
-3.16339e-05
1.13377e-05
-2.1597e-05
4.31696e-06
-1.42129e-05
-7.17307e-07
-8.91339e-06
-4.16008e-06
-5.2271e-06
-6.3329e-06
-2.76924e-06
-7.49492e-06
-1.228e-06
-7.85511e-06
-3.51383e-07
-7.58347e-06
6.46049e-08
-6.82031e-06
1.85504e-07
-5.68351e-06
1.45963e-07
-4.27371e-06
5.50557e-08
-2.67853e-06
-9.74319e-07
-0.00028297
0.000185438
0.000341018
-0.00022961
0.000146846
-0.000182415
0.000113058
-0.000142038
8.46884e-05
-0.00010848
6.13003e-05
-8.12822e-05
4.25709e-05
-5.97152e-05
2.78595e-05
-4.29426e-05
1.65419e-05
-3.01342e-05
8.01146e-06
-2.05301e-05
1.73358e-06
-1.34702e-05
-2.74294e-06
-8.40062e-06
-5.78687e-06
-4.8669e-06
-7.6938e-06
-2.50136e-06
-8.69844e-06
-1.00869e-06
-8.98759e-06
-1.5232e-07
-8.71148e-06
2.57372e-07
-7.99316e-06
3.72707e-07
-6.93565e-06
3.16199e-07
-5.62701e-06
1.86195e-07
-4.1437e-06
6.07365e-08
-2.55307e-06
-9.13582e-07
-0.000220876
0.000131641
0.000274673
-0.000173994
9.99638e-05
-0.00013451
7.35736e-05
-0.000102046
5.22251e-05
-7.59876e-05
3.52416e-05
-5.54722e-05
2.20556e-05
-3.96133e-05
1.20006e-05
-2.75617e-05
4.49025e-06
-1.8563e-05
-9.87198e-07
-1.1974e-05
-4.85544e-06
-7.2617e-06
-7.45526e-06
-3.99282e-06
-9.05576e-06
-1.81928e-06
-9.86733e-06
-4.63154e-07
-1.00546e-05
2.96938e-07
-9.74768e-06
6.37248e-07
-9.05179e-06
6.98213e-07
-8.05413e-06
5.91672e-07
-6.82911e-06
4.06404e-07
-5.44174e-06
2.12333e-07
-3.94963e-06
6.34614e-08
-2.4042e-06
-8.50121e-07
-0.000162388
8.60418e-05
0.000207987
-0.000124298
6.18736e-05
-9.34301e-05
4.2706e-05
-6.88429e-05
2.76379e-05
-4.96593e-05
1.6058e-05
-3.49336e-05
7.32978e-06
-2.38223e-05
8.893e-07
-1.55863e-05
-3.74575e-06
-9.60638e-06
-6.9671e-06
-5.37516e-06
-9.08666e-06
-2.48333e-06
-1.03471e-05
-6.03966e-07
-1.09351e-05
5.22736e-07
-1.0994e-05
1.10285e-06
-1.06347e-05
1.29982e-06
-9.94465e-06
1.24327e-06
-8.99523e-06
1.03585e-06
-7.84671e-06
7.58488e-07
-6.55174e-06
4.74197e-07
-5.15745e-06
2.31156e-07
-3.70659e-06
6.48859e-08
-2.23793e-06
-7.85235e-07
-0.000111368
5.01921e-05
0.000147218
-8.24876e-05
3.29929e-05
-5.97747e-05
1.99931e-05
-4.21806e-05
1.00438e-05
-2.8807e-05
2.68445e-06
-1.88122e-05
-2.66507e-06
-1.14903e-05
-6.43261e-06
-6.25333e-06
-8.9827e-06
-2.62426e-06
-1.05962e-05
-2.20397e-07
-1.14905e-05
1.26257e-06
-1.18301e-05
2.06568e-06
-1.17382e-05
2.3795e-06
-1.13078e-05
2.35468e-06
-1.06099e-05
2.11033e-06
-9.7003e-06
1.74046e-06
-8.62536e-06
1.31893e-06
-7.42519e-06
9.03029e-07
-6.13584e-06
5.36302e-07
-4.79072e-06
2.50534e-07
-3.42082e-06
6.74595e-08
-2.05485e-06
-7.17775e-07
-6.91591e-05
2.38668e-05
9.54844e-05
-4.86496e-05
1.24834e-05
-3.29464e-05
4.28997e-06
-2.11396e-05
-1.76299e-06
-1.24437e-05
-6.01148e-06
-6.19002e-06
-8.9187e-06
-1.8312e-06
-1.07914e-05
1.0749e-06
-1.18888e-05
2.8812e-06
-1.24025e-05
3.86751e-06
-1.24768e-05
4.25483e-06
-1.22174e-05
4.21749e-06
-1.17009e-05
3.89295e-06
-1.09833e-05
3.38962e-06
-1.01065e-05
2.79287e-06
-9.10355e-06
2.16971e-06
-8.00219e-06
1.57189e-06
-6.82738e-06
1.03889e-06
-5.60284e-06
5.99366e-07
-4.35119e-06
2.73082e-07
-3.09454e-06
7.17063e-08
-1.85348e-06
-6.46069e-07
-3.54168e-05
5.83678e-06
5.34468e-05
-2.18861e-05
-1.04731e-06
-1.18762e-05
-5.71996e-06
-4.67273e-06
-8.96645e-06
3.48655e-07
-1.10329e-05
3.68669e-06
-1.22567e-05
5.74538e-06
-1.28501e-05
6.84469e-06
-1.29881e-05
7.23756e-06
-1.27953e-05
7.12292e-06
-1.23622e-05
6.657e-06
-1.17515e-05
5.96257e-06
-1.10065e-05
5.1362e-06
-1.01569e-05
4.25377e-06
-9.22411e-06
3.37488e-06
-8.22466e-06
2.54563e-06
-7.17294e-06
1.80141e-06
-6.08315e-06
1.16793e-06
-4.96936e-06
6.63253e-07
-3.84652e-06
2.98099e-07
-2.72938e-06
7.72918e-08
-1.63267e-06
-5.68777e-07
-9.04193e-06
-5.3901e-06
2.02688e-05
-1.0764e-06
-9.01284e-06
4.44177e-06
-1.12381e-05
8.05152e-06
-1.25762e-05
1.02197e-05
-1.3201e-05
1.13033e-05
-1.33404e-05
1.15884e-05
-1.31352e-05
1.12976e-05
-1.26973e-05
1.06051e-05
-1.21028e-05
9.64635e-06
-1.14035e-05
8.52721e-06
-1.06323e-05
7.33017e-06
-9.80941e-06
6.1197e-06
-8.94648e-06
4.94641e-06
-8.05081e-06
3.8495e-06
-7.12775e-06
2.85939e-06
-6.18283e-06
1.99848e-06
-5.22224e-06
1.28296e-06
-4.25384e-06
7.22712e-07
-3.28627e-06
3.22835e-07
-2.32951e-06
8.32832e-08
-1.39312e-06
-4.85494e-07
1.09469e-05
-1.1228e-05
-5.10903e-06
1.45907e-05
-1.26567e-05
1.66472e-05
-1.32946e-05
1.75086e-05
-1.34376e-05
1.75064e-05
-1.31988e-05
1.6886e-05
-1.272e-05
1.58396e-05
-1.20887e-05
1.45133e-05
-1.1371e-05
1.30194e-05
-1.06089e-05
1.14437e-05
-9.82781e-06
9.85226e-06
-9.04086e-06
8.29581e-06
-8.25297e-06
6.81384e-06
-7.46451e-06
5.43687e-06
-6.67384e-06
4.18864e-06
-5.87952e-06
3.08687e-06
-5.08107e-06
2.14479e-06
-4.28016e-06
1.37088e-06
-3.47993e-06
7.70136e-07
-2.68553e-06
3.43472e-07
-1.90284e-06
8.86537e-08
-1.1383e-06
-3.9684e-07
2.51669e-05
-1.2929e-05
-2.34658e-05
2.55536e-05
-1.30433e-05
2.50358e-05
-1.27768e-05
2.38809e-05
-1.22827e-05
2.23078e-05
-1.16258e-05
2.04733e-05
-1.08855e-05
1.84954e-05
-1.01108e-05
1.64605e-05
-9.33606e-06
1.44322e-05
-8.58065e-06
1.24575e-05
-7.85313e-06
1.05712e-05
-7.15456e-06
8.79956e-06
-6.4813e-06
7.16245e-06
-5.82739e-06
5.67523e-06
-5.18662e-06
4.34943e-06
-4.55372e-06
3.19381e-06
-3.92545e-06
2.21412e-06
-3.30047e-06
1.41408e-06
-2.67989e-06
7.94682e-07
-2.06613e-06
3.55127e-07
-1.46329e-06
9.20095e-08
-8.75181e-07
-3.04831e-07
3.38281e-05
-1.16451e-05
-3.5112e-05
3.19234e-05
-1.11386e-05
2.96441e-05
-1.04976e-05
2.7151e-05
-9.78958e-06
2.45711e-05
-9.04584e-06
2.19903e-05
-8.30478e-06
1.94689e-05
-7.5894e-06
1.7047e-05
-6.9141e-06
1.47509e-05
-6.28457e-06
1.25981e-05
-5.70033e-06
1.06e-05
-5.1565e-06
8.76452e-06
-4.64579e-06
7.09724e-06
-4.16011e-06
5.60229e-06
-3.69168e-06
4.28284e-06
-3.23427e-06
3.14076e-06
-2.78337e-06
2.17721e-06
-2.33693e-06
1.39197e-06
-1.89465e-06
7.84204e-07
-1.45836e-06
3.51755e-07
-1.03084e-06
9.16984e-08
-6.15125e-07
-2.13132e-07
3.68519e-05
-8.51347e-06
-3.99836e-05
3.36049e-05
-7.89155e-06
3.03628e-05
-7.2555e-06
2.72008e-05
-6.62756e-06
2.41745e-05
-6.01955e-06
2.13162e-05
-5.44646e-06
1.8643e-05
-4.91621e-06
1.61613e-05
-4.43246e-06
1.38714e-05
-3.99462e-06
1.17697e-05
-3.59867e-06
9.85179e-06
-3.23859e-06
8.11318e-06
-2.90718e-06
6.5501e-06
-2.59703e-06
5.15977e-06
-2.30135e-06
3.93991e-06
-2.0144e-06
2.88871e-06
-1.73217e-06
2.00412e-06
-1.45234e-06
1.28412e-06
-1.17464e-06
7.26138e-07
-9.00385e-07
3.27746e-07
-6.32446e-07
8.63405e-08
-3.73719e-07
-1.26792e-07
3.40409e-05
-4.70982e-06
-3.78446e-05
3.0428e-05
-4.27866e-06
2.70394e-05
-3.86681e-06
2.38904e-05
-3.47865e-06
2.09885e-05
-3.1176e-06
1.833e-05
-2.78794e-06
1.59049e-05
-2.49113e-06
1.36992e-05
-2.22679e-06
1.16975e-05
-1.99286e-06
9.88463e-06
-1.78584e-06
8.24744e-06
-1.6014e-06
6.77504e-06
-1.43477e-06
5.45915e-06
-1.28114e-06
4.2938e-06
-1.136e-06
3.27483e-06
-9.95436e-07
2.39913e-06
-8.56465e-07
1.66407e-06
-7.17281e-07
1.06685e-06
-5.7742e-07
6.04497e-07
-4.38035e-07
2.73882e-07
-3.01831e-07
7.2556e-08
-1.72393e-07
-5.42359e-08
2.52322e-05
-1.45838e-06
-2.84836e-05
2.22629e-05
-1.3094e-06
1.95649e-05
-1.16885e-06
1.71246e-05
-1.03833e-06
1.49263e-05
-9.19262e-07
1.29511e-05
-8.12756e-07
1.11788e-05
-7.18823e-07
9.58896e-06
-6.36942e-07
8.16217e-06
-5.6608e-07
6.88121e-06
-5.04874e-07
5.73155e-06
-4.51735e-07
4.70171e-06
-4.04941e-07
3.7833e-06
-3.62728e-07
2.97065e-06
-3.23347e-07
2.26036e-06
-2.85151e-07
1.65059e-06
-2.46691e-07
1.14015e-06
-2.06848e-07
7.27766e-07
-1.65032e-07
4.1125e-07
-1.21519e-07
1.87175e-07
-7.77562e-08
5.10378e-08
-3.62558e-08
-3.1981e-09
1.03804e-05
-1.18414e-05
9.06892e-06
7.89838e-06
6.8586e-06
5.93806e-06
5.12414e-06
4.40421e-06
3.76622e-06
3.19913e-06
2.69327e-06
2.24058e-06
1.83471e-06
1.47108e-06
1.14688e-06
8.60914e-07
6.13461e-07
4.05912e-07
2.40252e-07
1.1819e-07
3.99942e-08
3.41847e-09
0.000298208
2.56485e-05
1.09684e-06
-0.000324954
0.00027295
2.41282e-05
1.13003e-06
0.000249088
2.27048e-05
1.15753e-06
0.000226541
2.13675e-05
1.17924e-06
0.000205234
2.0112e-05
1.19541e-06
0.000185093
1.89345e-05
1.20638e-06
0.00016605
1.78305e-05
1.21249e-06
0.00014804
1.67957e-05
1.21408e-06
0.000131003
1.58256e-05
1.21148e-06
0.000114883
1.49156e-05
1.20502e-06
9.96273e-05
1.40604e-05
1.19483e-06
8.51946e-05
1.3252e-05
1.18061e-06
7.15574e-05
1.24762e-05
1.1611e-06
5.87162e-05
1.17077e-05
1.13356e-06
4.67147e-05
1.09078e-05
1.09367e-06
3.56524e-05
1.00266e-05
1.03577e-06
2.56883e-05
9.00989e-06
9.54173e-07
1.70317e-05
7.8123e-06
8.4428e-07
9.92006e-06
6.40762e-06
7.04027e-07
4.58795e-06
4.79767e-06
5.34449e-07
1.23506e-06
3.01316e-06
3.39726e-07
1.10855e-06
1.26506e-07
0.000297794
5.23165e-05
-0.000324462
0.000272606
4.93165e-05
0.000248804
4.65066e-05
0.000226309
4.38622e-05
0.000205046
4.1375e-05
0.000184943
3.90379e-05
0.000165931
3.68422e-05
0.000147947
3.47794e-05
0.000130932
3.28411e-05
0.000114829
3.10186e-05
9.95874e-05
2.93016e-05
8.51655e-05
2.7674e-05
7.15361e-05
2.61055e-05
5.87004e-05
2.45434e-05
4.67026e-05
2.29056e-05
3.56427e-05
2.10865e-05
2.56806e-05
1.8972e-05
1.7026e-05
1.64669e-05
9.91628e-06
1.35173e-05
4.58621e-06
1.01277e-05
1.23459e-06
6.36478e-06
2.34314e-06
0.000296544
7.87817e-05
-0.000323009
0.000271531
7.43295e-05
0.00024788
7.0158e-05
0.000225516
6.62262e-05
0.000204367
6.25238e-05
0.000184364
5.90411e-05
0.00016544
5.57658e-05
0.000147534
5.26858e-05
0.000130586
4.97892e-05
0.000114541
4.70631e-05
9.93503e-05
4.44925e-05
8.49717e-05
4.20526e-05
7.13786e-05
3.96986e-05
5.85737e-05
3.73483e-05
4.6601e-05
3.48782e-05
3.55632e-05
3.21243e-05
2.56195e-05
2.89157e-05
1.69821e-05
2.51044e-05
9.88777e-06
2.06116e-05
4.57096e-06
1.54445e-05
1.22982e-06
9.70593e-06
3.57296e-06
0.0002948
0.000104936
-0.000320954
0.000270057
9.90723e-05
0.000246635
9.35796e-05
0.000224468
8.83932e-05
0.000203488
8.35038e-05
0.00018363
7.88995e-05
0.00016483
7.45652e-05
0.00014703
7.0486e-05
0.000130173
6.66463e-05
0.000114206
6.30304e-05
9.90801e-05
5.96181e-05
8.47553e-05
5.63775e-05
7.12072e-05
5.32468e-05
5.84374e-05
5.01181e-05
4.64944e-05
4.68212e-05
3.54786e-05
4.314e-05
2.55556e-05
3.88388e-05
1.69346e-05
3.37253e-05
9.85716e-06
2.76891e-05
4.55476e-06
2.07469e-05
1.22451e-06
1.30362e-05
4.79747e-06
0.000292741
0.000130688
-0.000318493
0.000268346
0.000123467
0.000245218
0.000116707
0.000223301
0.00011031
0.000202534
0.000104271
0.000182857
9.85767e-05
0.000164212
9.32109e-05
0.000146541
8.81561e-05
0.000129793
8.33944e-05
0.000113917
7.89068e-05
9.88657e-05
7.46694e-05
8.46007e-05
7.06425e-05
7.10981e-05
6.67494e-05
5.83627e-05
6.28535e-05
4.64419e-05
5.8742e-05
3.54419e-05
5.41401e-05
2.55266e-05
4.87541e-05
1.69133e-05
4.23386e-05
9.84061e-06
3.47618e-05
4.54541e-06
2.60421e-05
1.22069e-06
1.63609e-05
6.01816e-06
0.000290766
0.000155979
-0.000316058
0.000266765
0.000147469
0.000243966
0.000139506
0.000222326
0.00013195
0.00020179
0.000124806
0.000182306
0.000118061
0.00016382
0.000111697
0.00014628
0.000105695
0.000129638
0.000100037
0.000113845
9.46998e-05
9.88568e-05
8.96573e-05
8.46379e-05
8.48614e-05
7.11643e-05
8.0223e-05
5.84435e-05
7.55742e-05
4.65228e-05
7.06627e-05
3.55131e-05
6.51498e-05
2.55805e-05
5.86867e-05
1.69479e-05
5.09712e-05
9.85868e-06
4.1851e-05
4.55096e-06
3.13499e-05
1.22145e-06
1.96904e-05
7.23961e-06
0.000289091
0.000180768
-0.00031388
0.000265512
0.000171047
0.00024306
0.000161958
0.000221706
0.000153305
0.000201404
0.000145108
0.000182109
0.000137356
0.000163776
0.000130031
0.000146357
0.000123115
0.000129806
0.000116587
0.00011408
0.000110426
9.91384e-05
0.000104599
8.4943e-05
9.90568e-05
7.14764e-05
9.36896e-05
5.87403e-05
8.83104e-05
4.67924e-05
8.26106e-05
3.57353e-05
7.62069e-05
2.57531e-05
6.86689e-05
1.7063e-05
5.96613e-05
9.92662e-06
4.89874e-05
4.58054e-06
3.66959e-05
1.22811e-06
2.30428e-05
8.46772e-06
0.000287894
0.000205028
-0.000312153
0.000264755
0.000194186
0.000242658
0.000184054
0.000221591
0.000174372
0.000201518
0.000165181
0.000182403
0.000156471
0.000164206
0.000148228
0.000146887
0.000140434
0.000130404
0.00013307
0.000114718
0.000126111
9.97898e-05
0.000119528
8.55879e-05
0.000113259
7.20884e-05
0.000107189
5.93048e-05
0.000101094
4.72808e-05
9.46346e-05
3.6142e-05
8.73456e-05
2.60562e-05
7.87546e-05
1.72745e-05
6.8443e-05
1.00463e-05
5.62156e-05
4.6358e-06
4.21064e-05
1.24077e-06
2.64379e-05
9.70849e-06
0.000287307
0.000228742
-0.00031102
0.000264608
0.000216885
0.000242857
0.000205805
0.000222059
0.00019517
0.000202193
0.000185047
0.000183232
0.000175431
0.000165146
0.000166314
0.000147899
0.00015768
0.000131457
0.000149512
0.000115782
0.000141787
0.00010084
0.00013447
8.65961e-05
0.000127502
7.30359e-05
0.000120749
6.01592e-05
0.000113971
4.80281e-05
0.000106766
3.6749e-05
9.86248e-05
2.65249e-05
8.89787e-05
1.75903e-05
7.73776e-05
1.02378e-05
6.35681e-05
4.7211e-06
4.76231e-05
1.26375e-06
2.98952e-05
1.09722e-05
0.000287368
0.000251897
-0.000310523
0.000265115
0.000239138
0.000243711
0.00022721
0.000223177
0.000215704
0.000203503
0.00020472
0.000184674
0.000194261
0.000166668
0.00018432
0.000149458
0.00017489
0.000133015
0.000165955
0.000117309
0.000157493
0.000102305
0.000149474
8.79766e-05
0.00014183
7.43016e-05
0.000134424
6.12914e-05
0.000126981
4.89926e-05
0.000119064
3.75363e-05
0.000110081
2.71113e-05
9.94037e-05
1.79935e-05
8.64954e-05
1.04678e-05
7.10938e-05
4.82628e-06
5.32647e-05
1.28771e-06
3.34338e-05
1.226e-05
0.000288069
0.000274484
-0.000310656
0.00026624
0.000260967
0.00024515
0.0002483
0.000224845
0.000236008
0.000205333
0.000224232
0.000186609
0.000212985
0.00016866
0.00020227
0.000151465
0.000192085
0.000135
0.000182419
0.000119239
0.000173255
0.000104152
0.00016456
8.9712e-05
0.000156271
7.59003e-05
0.000148236
6.27182e-05
0.000140163
5.02231e-05
0.00013156
3.85347e-05
0.000121769
2.78707e-05
0.000110068
1.85079e-05
9.58583e-05
1.0773e-05
7.88287e-05
4.96397e-06
5.90737e-05
1.32429e-06
3.70735e-05
1.35842e-05
0.00028943
0.000296474
-0.000311419
0.00026805
0.000282347
0.000247289
0.000269061
0.000227205
0.000256092
0.000207824
0.000243613
0.00018916
0.000231648
0.000171214
0.000220216
0.000153977
0.000209322
0.000137431
0.000198965
0.000121556
0.00018913
0.000106326
0.00017979
9.17164e-05
0.00017088
7.77065e-05
0.000162246
6.43018e-05
0.000153568
5.15528e-05
0.000144309
3.95945e-05
0.000133728
2.86479e-05
0.000121014
1.90227e-05
0.000105484
1.10594e-05
8.67919e-05
5.0856e-06
6.50475e-05
1.34946e-06
4.08096e-05
1.49337e-05
0.000291265
0.000317874
-0.000312665
0.00027026
0.000303353
0.000249781
0.000289539
0.000229894
0.000275979
0.000210638
0.00026287
0.000192034
0.000250252
0.000174094
0.000238156
0.000156814
0.000226602
0.000140186
0.000215593
0.000124193
0.000205123
0.000108816
0.000195168
9.40285e-05
0.000185667
7.98126e-05
0.000176462
6.61669e-05
0.000167213
5.31431e-05
0.000157332
4.08742e-05
0.000145997
2.96013e-05
0.000132287
1.96554e-05
0.000115429
1.14171e-05
9.50303e-05
5.23916e-06
7.12255e-05
1.38631e-06
4.46625e-05
1.632e-05
0.000293467
0.00033847
-0.000314063
0.000272941
0.000323879
0.000252765
0.000309715
0.000233045
0.000295699
0.000213856
0.000282059
0.000195246
0.000268862
0.00017724
0.000256162
0.000159849
0.000243993
0.000143072
0.00023237
0.0001269
0.000221295
0.000111315
0.000210753
9.62963e-05
0.000200686
8.18233e-05
0.000190935
6.78945e-05
0.000181142
5.45592e-05
0.000170668
4.19593e-05
0.000158597
3.0353e-05
0.000143893
2.01057e-05
0.000125677
1.16294e-05
0.000103507
5.30151e-06
7.75533e-05
1.38637e-06
4.85776e-05
1.77064e-05
0.000295971
0.00035833
-0.00031583
0.000275778
0.000344071
0.000255904
0.000329589
0.000236386
0.000315217
0.000217313
0.000301132
0.000198741
0.000287434
0.000180707
0.000274196
0.000163231
0.000261469
0.000146321
0.00024928
0.000129974
0.000237642
0.000114178
0.000226549
9.89124e-05
0.000215951
8.41557e-05
0.000205692
6.99025e-05
0.000195395
5.62036e-05
0.000184367
4.32103e-05
0.00017159
3.12057e-05
0.000155898
2.05901e-05
0.000136292
1.18185e-05
0.000112278
5.3039e-06
8.40679e-05
1.33149e-06
5.255e-05
1.90379e-05
1.23176e-05
0.000360807
-1.47947e-05
9.77689e-06
0.000346612
7.34635e-06
0.00033202
4.93596e-06
0.000317627
2.5555e-06
0.000303513
1.99952e-07
0.000289789
-2.12965e-06
0.000276526
-4.42837e-06
0.000263768
-6.68904e-06
0.000251541
-8.90001e-06
0.000239853
-1.10353e-05
0.000228684
-1.30317e-05
0.000217948
-1.47549e-05
0.000207415
-1.59787e-05
0.000196619
-1.64082e-05
0.000184796
-1.57669e-05
0.000170949
-1.39238e-05
0.000154055
-1.10047e-05
0.000133373
-7.43256e-06
0.000108706
-3.8779e-06
8.05132e-05
-1.14089e-06
4.9813e-05
1.7897e-05
7.10073e-06
0.000363588
-9.88217e-06
4.45296e-06
0.00034926
1.845e-06
0.000334628
-7.05866e-07
0.000320178
-3.18365e-06
0.000305991
-5.58841e-06
0.000292194
-7.91508e-06
0.000278853
-1.01586e-05
0.000266011
-1.23116e-05
0.000253694
-1.43598e-05
0.000241901
-1.62668e-05
0.000230591
-1.79488e-05
0.00021963
-1.92453e-05
0.000208711
-1.99127e-05
0.000197286
-1.96672e-05
0.000184551
-1.82807e-05
0.000169562
-1.56982e-05
0.000151472
-1.2126e-05
0.000129801
-8.04758e-06
0.000104628
-4.15746e-06
7.66231e-05
-1.23417e-06
4.68897e-05
1.66628e-05
1.82152e-06
0.000366587
-4.82019e-06
-9.36812e-07
0.000352018
-3.64643e-06
0.000337337
-6.24832e-06
0.00032278
-8.74071e-06
0.000308483
-1.11206e-05
0.000294574
-1.33835e-05
0.000281116
-1.5525e-05
0.000268153
-1.75373e-05
0.000255706
-1.94001e-05
0.000243764
-2.10624e-05
0.000232253
-2.24151e-05
0.000220982
-2.32704e-05
0.000209567
-2.33715e-05
0.000197388
-2.24527e-05
0.000183632
-2.034e-05
0.000167449
-1.70588e-05
0.000148191
-1.28968e-05
0.000125639
-8.39527e-06
0.000100126
-4.26299e-06
7.24908e-05
-1.24524e-06
4.3872e-05
1.54176e-05
-3.46812e-06
0.0003697
3.55014e-07
-6.32433e-06
0.000354875
-9.08675e-06
0.0003401
-1.16995e-05
0.000325393
-1.41694e-05
0.000310953
-1.64911e-05
0.000296896
-1.86618e-05
0.000283286
-2.06778e-05
0.000270169
-2.25286e-05
0.000257557
-2.41849e-05
0.00024542
-2.55757e-05
0.000233644
-2.65646e-05
0.000221971
-2.69385e-05
0.000209941
-2.6437e-05
0.000196886
-2.48243e-05
0.000182019
-2.19938e-05
0.000164619
-1.80558e-05
0.000144253
-1.33781e-05
0.000120961
-8.5463e-06
9.52945e-05
-4.2645e-06
6.8209e-05
-1.22405e-06
4.08315e-05
1.41935e-05
-8.87379e-06
0.000372867
5.70634e-06
-1.1786e-05
0.000357787
-1.45503e-05
0.000342864
-1.7132e-05
0.000327975
-1.95408e-05
0.000313362
-2.17717e-05
0.000299126
-2.38237e-05
0.000285338
-2.56922e-05
0.000272037
-2.73618e-05
0.000259227
-2.87887e-05
0.000246847
-2.98789e-05
0.000234734
-3.04662e-05
0.000222559
-3.03194e-05
0.000209794
-2.91832e-05
0.00019575
-2.68671e-05
0.000179703
-2.3337e-05
0.000161089
-1.87927e-05
0.000139709
-1.36695e-05
0.000115838
-8.5843e-06
9.02092e-05
-4.21607e-06
6.38408e-05
-1.19198e-06
3.78074e-05
1.30015e-05
-1.45331e-05
0.000376048
1.13527e-05
-1.74564e-05
0.00036071
-2.01809e-05
0.000345589
-2.26952e-05
0.000330489
-2.50086e-05
0.000315675
-2.71188e-05
0.000301237
-2.90259e-05
0.000287245
-3.07232e-05
0.000273735
-3.21861e-05
0.000260689
-3.33528e-05
0.000248014
-3.41008e-05
0.000235482
-3.42379e-05
0.000222696
-3.35186e-05
0.000209075
-3.17094e-05
0.000193941
-2.86715e-05
0.000176665
-2.44572e-05
0.000156875
-1.93455e-05
0.000134597
-1.38356e-05
0.000110328
-8.55181e-06
8.49254e-05
-4.14042e-06
5.94294e-05
-1.15436e-06
3.48214e-05
1.18472e-05
-2.05968e-05
0.000379197
1.74479e-05
-2.348e-05
0.000363593
-2.61226e-05
0.000348231
-2.85315e-05
0.000332898
-3.07153e-05
0.000317859
-3.26745e-05
0.000303196
-3.44094e-05
0.00028898
-3.59081e-05
0.000275233
-3.71329e-05
0.000261914
-3.79976e-05
0.000248879
-3.83508e-05
0.000235836
-3.79738e-05
0.000222319
-3.66217e-05
0.000207722
-3.4089e-05
0.000191408
-3.03095e-05
0.000172886
-2.54153e-05
0.00015198
-1.97721e-05
0.000128954
-1.39169e-05
0.000104473
-8.47835e-06
7.94869e-05
-4.05004e-06
5.50011e-05
-1.11525e-06
3.18866e-05
1.07319e-05
-2.72753e-05
0.000382273
2.41995e-05
-3.00699e-05
0.000366388
-3.25893e-05
0.000350751
-3.48531e-05
0.000335162
-3.68701e-05
0.000319876
-3.8644e-05
0.00030497
-4.01728e-05
0.000290509
-4.1436e-05
0.000276497
-4.23767e-05
0.000262855
-4.2881e-05
0.000249383
-4.27652e-05
0.00023572
-4.17937e-05
0.000221347
-3.97276e-05
0.000205656
-3.64123e-05
0.000188093
-3.18536e-05
0.000168327
-2.62797e-05
0.000146406
-2.01204e-05
0.000122795
-1.39531e-05
9.83056e-05
-8.38354e-06
7.39173e-05
-3.95581e-06
5.05733e-05
-1.07646e-06
2.90072e-05
9.65547e-06
-3.47653e-05
0.000385226
3.18121e-05
-3.74179e-05
0.00036904
-3.9768e-05
0.000353101
-4.18429e-05
0.000337236
-4.36523e-05
0.000321685
-4.52015e-05
0.000306519
-4.64831e-05
0.000291791
-4.74628e-05
0.000277476
-4.80592e-05
0.000263451
-4.81249e-05
0.000249449