/*--------------------------------*- C++ -*----------------------------------*\
| =========                 |                                                 |
| \\      /  F ield         | OpenFOAM Extend Project: Open source CFD        |
|  \\    /   O peration     | Version:  1.6-ext                               |
|   \\  /    A nd           | Web:      www.extend-project.de                 |
|    \\/     M anipulation  |                                                 |
\*---------------------------------------------------------------------------*/
FoamFile
{
    version     2.0;
    format      ascii;
    class       volVectorField;
    location    "1.15";
    object      U;
}
// * * * * * * * * * * * * * * * * * * * * * * * * * * * * * * * * * * * * * //

dimensions      [0 1 -1 0 0 0 0];

internalField   nonuniform List<vector> 
20940
(
(1.84888 0.398852 3.93331e-21)
(1.88837 0.418884 5.69145e-24)
(1.92576 0.438194 9.04299e-21)
(1.9602 0.455733 -5.11264e-21)
(1.9914 0.47171 7.63742e-21)
(2.0177 0.484997 7.74781e-22)
(2.03611 0.494481 -1.17916e-20)
(2.04181 0.498211 1.28662e-20)
(2.02841 0.49395 0)
(1.98883 0.479462 9.71904e-21)
(1.91684 0.453213 -1.17195e-20)
(1.80891 0.414984 2.60798e-20)
(1.66551 0.366223 -7.07739e-21)
(1.49156 0.309934 -1.63018e-23)
(1.29553 0.250132 0)
(1.08788 0.19108 0)
(0.879118 0.136578 2.11481e-23)
(0.678311 0.0895219 1.127e-23)
(0.492251 0.0517159 5.87509e-21)
(0.325217 0.0239262 -1.26281e-20)
(0.179217 0.00662569 1.29871e-20)
(0.0544553 0.00049217 0)
(1.87574 0.375676 -1.51737e-20)
(1.91395 0.394554 6.44581e-21)
(1.94974 0.41205 5.63454e-21)
(1.98199 0.427801 -2.34061e-20)
(2.00987 0.441466 -1.6086e-20)
(2.03086 0.451838 8.54847e-21)
(2.04095 0.457497 2.32233e-20)
(2.03439 0.456406 0)
(2.00441 0.446496 1.6549e-20)
(1.94453 0.42609 -2.90172e-20)
(1.85029 0.394562 -4.54727e-20)
(1.72082 0.352743 2.49187e-20)
(1.55956 0.302977 6.94804e-21)
(1.37387 0.248733 -1.68059e-20)
(1.17359 0.193925 5.17976e-20)
(0.969275 0.142222 -3.84724e-20)
(0.770476 0.0965326 4.04337e-20)
(0.584741 0.0588004 1.06407e-20)
(0.417202 0.029995 1.72395e-20)
(0.270686 0.0102589 -2.38813e-20)
(0.146147 -0.000352826 0)
(0.0431892 -0.00140286 1.02176e-20)
(1.90038 0.352472 -2.51676e-20)
(1.93698 0.370264 1.42725e-20)
(1.97061 0.386051 0)
(1.9998 0.400023 -1.3628e-20)
(2.02294 0.411269 0)
(2.0365 0.418496 -7.97861e-22)
(2.03542 0.420044 -7.92663e-22)
(2.01333 0.413948 0)
(1.96366 0.398524 -5.08971e-20)
(1.88133 0.372852 5.6611e-20)
(1.76431 0.337286 2.22748e-20)
(1.61474 0.293598 -2.47644e-20)
(1.43881 0.244738 7.04996e-20)
(1.24568 0.194258 -7.66459e-20)
(1.04572 0.145648 -1.61549e-20)
(0.848792 0.101791 -1.82517e-20)
(0.663032 0.0646888 3.9516e-20)
(0.494264 0.0354375 -5.19551e-20)
(0.34601 0.0143411 -2.14983e-20)
(0.219816 0.00108892 0)
(0.115772 -0.00455724 -4.82975e-20)
(0.0330266 -0.00235195 2.95479e-20)
(1.92386 0.32961 1.2288e-20)
(1.95838 0.346385 0)
(1.98905 0.3605 0)
(2.01385 0.372591 2.579e-20)
(2.03017 0.381175 -3.4383e-20)
(2.03338 0.384908 1.82728e-20)
(2.01758 0.382016 -4.96746e-20)
(1.97628 0.370819 5.42849e-20)
(1.90397 0.350243 0)
(1.79775 0.320272 -3.91419e-20)
(1.65862 0.282205 -2.08549e-21)
(1.49169 0.238522 7.24892e-20)
(1.30536 0.192413 -2.75483e-20)
(1.10971 0.147158 0)
(0.914749 0.10557 9.87279e-20)
(0.729014 0.069672 -1.21507e-19)
(0.558879 0.0406222 -3.89019e-20)
(0.408429 0.018822 7.90455e-20)
(0.279721 0.0040816 -6.30975e-20)
(0.173232 -0.00420768 2.16871e-20)
(0.0883891 -0.00646303 4.56044e-20)
(0.024032 -0.00255433 0)
(1.9459 0.307166 -3.0018e-20)
(1.97768 0.322918 3.33667e-20)
(2.0042 0.335307 -4.55415e-20)
(2.02272 0.345312 0)
(2.02942 0.350904 -3.51356e-20)
(2.01869 0.350787 -1.9967e-21)
(1.98426 0.343258 0)
(1.92035 0.327164 0)
(1.82339 0.302222 3.24656e-20)
(1.69343 0.269343 0)
(1.5346 0.230599 0)
(1.35457 0.188835 0)
(1.16308 0.147104 1.63348e-21)
(0.970131 0.108121 -5.65424e-20)
(0.784555 0.0739016 3.23289e-20)
(0.613149 0.0456452 3.54141e-20)
(0.460441 0.0238032 -1.07657e-19)
(0.328898 0.00825879 -7.66071e-20)
(0.219352 -0.00150362 1.60487e-19)
(0.131458 -0.00625709 2.25346e-20)
(0.0641848 -0.00650481 -8.71314e-20)
(0.0162079 -0.00217391 0)
(1.96598 0.285205 3.8411e-21)
(1.99402 0.299876 -3.54193e-20)
(2.01466 0.310392 9.26104e-20)
(2.02426 0.317991 0)
(2.01779 0.320207 7.13498e-20)
(1.98909 0.315955 -3.80669e-20)
(1.93225 0.30384 4.80987e-20)
(1.84321 0.28345 -5.75124e-20)
(1.72121 0.255368 3.03457e-20)
(1.56957 0.221315 7.22712e-20)
(1.39527 0.183817 -4.04787e-20)
(1.20765 0.145703 0)
(1.01668 0.109568 -1.1677e-21)
(0.831389 0.0773982 5.4718e-20)
(0.658894 0.0504164 9.03891e-20)
(0.504078 0.0291188 -1.27995e-19)
(0.369726 0.0134271 6.78853e-20)
(0.256943 0.00288016 -7.31401e-20)
(0.165612 -0.00321958 7.61444e-20)
(0.0948161 -0.00570599 8.08039e-20)
(0.0432531 -0.00510335 -6.2761e-20)
(0.00955063 -0.00136141 5.29205e-20)
(1.98364 0.263536 3.35253e-20)
(2.00635 0.276934 2.78165e-21)
(2.01859 0.285301 -4.70027e-20)
(2.01576 0.290119 0)
(1.99196 0.288649 -7.00082e-20)
(1.94116 0.28023 8.47362e-20)
(1.85893 0.264 -1.8863e-19)
(1.74385 0.240407 0)
(1.59851 0.210825 6.43097e-20)
(1.4293 0.177505 -1.41707e-19)
(1.24519 0.143053 3.80704e-20)
(1.05608 0.109939 8.68057e-20)
(0.871125 0.0801016 -4.91455e-20)
(0.697715 0.0547742 -5.25625e-20)
(0.541011 0.0344899 1.68728e-19)
(0.404052 0.0192132 -6.00343e-20)
(0.28814 0.00851341 0)
(0.193323 0.00173584 0)
(0.118822 -0.00188852 -3.58862e-20)
(0.063371 -0.00318291 -3.76048e-20)
(0.0255461 -0.00265277 -6.17521e-20)
(0.00401343 -0.000252701 8.38879e-20)
(1.99738 0.242088 -6.3095e-20)
(2.01245 0.253951 4.3281e-20)
(2.01294 0.259842 1.30506e-21)
(1.99354 0.261518 -5.69786e-20)
(1.9481 0.256226 6.94578e-20)
(1.87187 0.243953 0)
(1.76288 0.224532 4.75154e-20)
(1.6231 0.199235 -5.41393e-20)
(1.45837 0.169988 0)
(1.27737 0.139208 6.83652e-20)
(1.08992 0.109226 -1.29931e-22)
(0.905292 0.0819269 -8.37907e-20)
(0.731086 0.0585401 4.56555e-20)
(0.572703 0.0396297 0)
(0.433385 0.025203 -1.09202e-19)
(0.314589 0.0148701 -5.83122e-20)
(0.216467 0.00800302 1.24343e-19)
(0.138322 0.00386857 0)
(0.0789698 0.00170152 7.0193e-20)
(0.036975 0.000732275 3.75338e-20)
(0.0109046 0.000494584 -3.91304e-20)
(-0.000481975 0.00103476 6.43842e-20)
(2.00586 0.220298 0)
(2.00998 0.230227 -8.22392e-20)
(1.99452 0.2333 1.0102e-19)
(1.95404 0.231676 0)
(1.88321 0.222839 7.25036e-20)
(1.77971 0.207564 4.02706e-21)
(1.64488 0.186381 -8.99574e-20)
(1.48413 0.161178 -5.12445e-20)
(1.30585 0.134088 0)
(1.1198 0.107338 -6.78201e-20)
(0.935392 0.0827392 0)
(0.760422 0.0615161 -8.05912e-20)
(0.600501 0.044258 4.46562e-20)
(0.459044 0.0310145 -4.84384e-20)
(0.337625 0.0214425 5.32901e-20)
(0.236468 0.0149546 1.13253e-19)
(0.154914 0.0108438 1.5487e-21)
(0.0918093 0.00837696 -2.8632e-19)
(0.045766 0.00683779 9.94896e-20)
(0.015315 0.00553158 0)
(-0.0009124 0.0040383 0)
(-0.00403495 0.00240393 3.04022e-20)
(2.0056 0.198203 6.88508e-20)
(1.99484 0.205875 -4.48807e-20)
(1.959 0.205987 -9.83887e-22)
(1.89358 0.201188 -6.24104e-20)
(1.79528 0.189466 6.88872e-20)
(1.66512 0.172411 0)
(1.508 0.1511 1.87225e-19)
(1.33211 0.127713 -2.07395e-19)
(1.14722 0.104242 1.18569e-19)
(0.96288 0.0824596 -6.435e-20)
(0.787095 0.0635625 7.24892e-20)
(0.625688 0.048163 8.11765e-20)
(0.482231 0.0363507 -4.33478e-22)
(0.358401 0.0278308 -4.738e-20)
(0.254466 0.0220641 -1.01432e-19)
(0.169784 0.0183845 -1.38675e-21)
(0.103197 0.0160853 -1.38439e-21)
(0.0533192 0.01448 2.76327e-19)
(0.0187105 0.0129231 -1.28676e-19)
(-0.00204253 0.0108011 0)
(-0.0102022 0.00773969 -1.41972e-19)
(-0.00675818 0.00378026 8.86264e-20)
(1.99478 0.174779 -7.69738e-20)
(1.9643 0.179926 -5.9e-21)
(1.90391 0.177194 1.5511e-19)
(1.81093 0.169872 -5.94918e-20)
(1.68525 0.156522 -7.0883e-20)
(1.53159 0.13934 0)
(1.35784 0.119671 9.11867e-20)
(1.17384 0.0996301 -1.02723e-19)
(0.989317 0.0808076 1.71646e-19)
(0.812551 0.0644157 -1.89167e-19)
(0.649581 0.0510719 0)
(0.504147 0.0409089 -1.52167e-19)
(0.378011 0.0336818 -1.62781e-21)
(0.271479 0.0289039 0)
(0.183902 0.0259588 0)
(0.114103 0.0241815 0)
(0.0606716 0.0229133 0)
(0.0221568 0.0215366 5.82606e-20)
(-0.00283218 0.0194842 0)
(-0.0156018 0.0162224 1.31242e-19)
(-0.0172911 0.0114195 -2.72592e-19)
(-0.00876863 0.00510918 1.15393e-19)
(1.96738 0.151123 0)
(1.91378 0.153836 0)
(1.82622 0.148796 0)
(1.70575 0.139871 0)
(1.55573 0.126211 1.4145e-19)
(1.38424 0.110361 -7.86693e-20)
(1.20101 0.0936516 -3.70463e-22)
(1.01612 0.077855 1.00818e-19)
(0.838156 0.0640466 -5.62184e-20)
(0.673452 0.0528869 1.22059e-19)
(0.525941 0.04453 0)
(0.397492 0.0387786 1.47689e-19)
(0.288437 0.0351957 0)
(0.198115 0.0332146 0)
(0.125311 0.0322168 0)
(0.0685766 0.0315826 0)
(0.0264317 0.0307216 0)
(-0.00252694 0.0290919 -2.28802e-19)
(-0.0195823 0.0262017 2.40791e-19)
(-0.0259091 0.0215918 -9.46853e-20)
(-0.022523 0.0149698 -3.24946e-20)
(-0.0101876 0.00636145 -8.4771e-20)
(1.92508 0.125303 0)
(1.84386 0.125945 -9.20608e-20)
(1.72847 0.119612 1.07085e-19)
(1.58262 0.110486 0)
(1.41329 0.0982355 0)
(1.23075 0.0852566 0)
(1.04518 0.0726585 -8.84191e-20)
(0.865667 0.0616981 0)
(0.698879 0.0529557 0)
(0.549011 0.0466436 -1.20326e-19)
(0.418059 0.0426036 1.95545e-19)
(0.306393 0.0404528 -2.16142e-19)
(0.213331 0.0396769 7.65623e-20)
(0.13761 0.0397066 8.38093e-20)
(0.0777293 0.0399661 4.50028e-20)
(0.0321634 0.0399017 0)
(-0.00051975 0.0389966 0)
(-0.0216104 0.0367817 -5.49539e-20)
(-0.032255 0.032835 1.16119e-19)
(-0.0334916 0.0267651 -6.12253e-20)
(-0.0262214 0.0183183 1.60352e-19)
(-0.0111246 0.00751742 -1.10082e-19)
(1.85785 0.101628 0)
(1.75175 0.100881 8.9116e-20)
(1.61046 0.0941003 1.07288e-19)
(1.44469 0.0858075 6.39581e-20)
(1.26314 0.0758828 -2.76429e-19)
(1.0771 0.0663754 -7.90425e-20)
(0.895888 0.0580964 -1.29178e-21)
(0.726778 0.0517523 9.46519e-20)
(0.574267 0.047515 1.05555e-19)
(0.440561 0.0452685 -1.17201e-19)
(0.326103 0.0446665 6.28304e-20)
(0.230205 0.0452411 0)
(0.151558 0.0464683 1.51867e-19)
(0.088601 0.0478135 -2.44917e-19)
(0.0397521 0.0487578 -4.52178e-20)
(0.00353821 0.0488122 9.40555e-20)
(-0.0213542 0.0475249 -1.51154e-19)
(-0.0360723 0.0444886 1.59664e-19)
(-0.0416198 0.0393404 -5.59654e-20)
(-0.0389049 0.0317481 3.00213e-20)
(-0.0287285 0.0214943 0)
(-0.011702 0.00860163 -6.31596e-22)
(1.78238 0.0745375 8.02637e-20)
(1.64594 0.0731982 -9.12252e-20)
(1.48319 0.0682552 0)
(1.30301 0.062032 -2.41554e-19)
(1.11589 0.0559544 2.04779e-19)
(0.93246 0.0508821 8.21491e-22)
(0.760286 0.0473865 0)
(0.604398 0.0456259 -9.42188e-20)
(0.467242 0.0454919 6.40858e-22)
(0.349404 0.0466936 -1.1297e-19)
(0.250221 0.0488323 1.86354e-19)
(0.168345 0.0514565 -1.34545e-19)
(0.102146 0.0540949 -1.47227e-19)
(0.0499641 0.0562776 2.37497e-19)
(0.0102593 0.057549 -1.70742e-19)
(-0.0183277 0.0574767 9.12017e-20)
(-0.0369655 0.0556591 4.93037e-20)
(-0.0466532 0.0517339 -5.23924e-20)
(-0.0482572 0.0453834 5.53824e-20)
(-0.0425669 0.0363257 1.15477e-19)
(-0.0302956 0.0243797 -1.20171e-19)
(-0.0120026 0.00957726 -1.31389e-19)
(1.63092 0.0543849 3.55824e-21)
(1.4646 0.0505266 -5.05299e-20)
(1.28279 0.0476341 1.7083e-19)
(1.09646 0.0444774 -1.98771e-21)
(0.914772 0.0426623 -1.45033e-19)
(0.745218 0.0420735 8.09069e-20)
(0.592246 0.042909 -8.86384e-20)
(0.458059 0.0449728 0)
(0.343002 0.0480127 2.16283e-19)
(0.246253 0.0516948 -1.17552e-19)
(0.16634 0.0556486 -1.28615e-19)
(0.101533 0.0594819 0)
(0.0501024 0.0627918 0)
(0.010458 0.0651742 0)
(-0.0187863 0.0662333 -8.6892e-20)
(-0.0388033 0.0655916 4.63705e-20)
(-0.0505755 0.0629015 0)
(-0.0549319 0.0578571 0)
(-0.0525919 0.0502047 5.5648e-20)
(-0.0442192 0.0397406 -1.14748e-19)
(-0.0304301 0.0263597 1.19554e-19)
(-0.0117289 0.0101433 -1.03052e-19)
(1.37549 0.0319347 -1.83037e-19)
(1.19215 0.0306499 1.05797e-19)
(1.00997 0.0322254 -1.16985e-19)
(0.835943 0.0334942 1.31969e-19)
(0.676151 0.0363427 1.47691e-19)
(0.533832 0.0398095 0)
(0.410234 0.0440625 9.13011e-20)
(0.305078 0.048794 -9.97282e-20)
(0.217164 0.0537965 -1.09519e-19)
(0.14482 0.0588026 1.2007e-19)
(0.0862445 0.0635271 -6.46398e-20)
(0.0397014 0.0676599 0)
(0.00363637 0.0708736 0)
(-0.0232822 0.0728315 8.21517e-20)
(-0.0421637 0.0732002 6.06517e-22)
(-0.0539216 0.0716633 -4.696e-20)
(-0.0593105 0.0679355 0)
(-0.0589681 0.0617776 5.19027e-20)
(-0.0534545 0.0530069 7.54141e-22)
(-0.0432934 0.0414997 0)
(-0.0289771 0.027224 0)
(-0.0109195 0.0102927 1.01406e-19)
(1.0904 0.0192196 -9.24109e-23)
(0.912786 0.0210964 -1.62362e-19)
(0.749475 0.0266348 6.18276e-20)
(0.600712 0.0312308 0)
(0.470287 0.0370871 -1.52208e-19)
(0.357971 0.0429436 1.68052e-19)
(0.263218 0.0490238 -2.77886e-19)
(0.184469 0.0550414 -5.51521e-22)
(0.119978 0.060856 2.22467e-19)
(0.0679267 0.0662639 0)
(0.0266264 0.071045 0)
(-0.00541204 0.0749481 7.17963e-20)
(-0.0294511 0.0776989 -1.53266e-19)
(-0.0465335 0.0790093 1.64659e-19)
(-0.0575077 0.0785915 -8.78381e-20)
(-0.0630637 0.0761745 0)
(-0.0637704 0.07152 0)
(-0.0601112 0.0644384 -1.56629e-19)
(-0.0525156 0.0547995 2.17716e-19)
(-0.0413892 0.0425373 0)
(-0.0271184 0.0276696 1.17188e-19)
(-0.0100379 0.010324 -9.96251e-20)
(0.811561 0.0132224 1.9819e-19)
(0.656062 0.0189392 5.58948e-20)
(0.521497 0.0270652 -1.24615e-19)
(0.402778 0.0339475 7.00501e-20)
(0.302387 0.0413475 1.92522e-22)
(0.218078 0.0482789 0)
(0.148627 0.0549693 1.88561e-19)
(0.0920832 0.0612385 -2.06093e-19)
(0.0467252 0.0670197 5.62917e-20)
(0.0109223 0.0721765 -6.12477e-20)
(-0.0167315 0.0765434 0)
(-0.0374265 0.0799137 7.20804e-20)
(-0.0521412 0.0820496 0)
(-0.0616684 0.0826943 -4.1866e-20)
(-0.0666459 0.0815885 0)
(-0.0675891 0.0784888 -1.40353e-19)
(-0.0649231 0.0731852 -2.36352e-22)
(-0.0590104 0.0655166 1.03629e-19)
(-0.0501746 0.0553823 -1.62865e-19)
(-0.038721 0.0427473 1.12336e-19)
(-0.0249434 0.0276531 0)
(-0.00910383 0.0102262 0)
(0.561672 0.0136155 -2.0144e-19)
(0.436474 0.0222459 -5.66669e-20)
(0.332687 0.0312016 0)
(0.243358 0.038998 0)
(0.169968 0.0465847 -7.88599e-20)
(0.109649 0.0534831 -4.33341e-22)
(0.0610913 0.0598815 9.52125e-20)
(0.0224592 0.0657099 1.0466e-19)
(-0.00770882 0.0709482 -5.71219e-20)
(-0.0307404 0.075505 6.21159e-20)
(-0.0477402 0.079247 0)
(-0.0596237 0.0819936 0)
(-0.0671338 0.0835282 3.87276e-20)
(-0.0708671 0.083613 8.28716e-20)
(-0.0713017 0.0820063 -8.83138e-20)
(-0.0688238 0.0784816 4.70234e-20)
(-0.0637515 0.0728448 4.9079e-20)
(-0.0563562 0.0649492 1.03396e-19)
(-0.0468784 0.0547064 -2.15334e-19)
(-0.0355416 0.0420926 1.11514e-19)
(-0.0225627 0.0271509 1.14924e-19)
(-0.00814041 0.00998872 -9.65271e-20)
(0.352063 0.0175093 1.02996e-19)
(0.258055 0.0273524 0)
(0.182381 0.0359911 -6.5004e-20)
(0.118776 0.0435985 7.17349e-20)
(0.0678779 0.0505376 7.95282e-20)
(0.0270629 0.056735 0)
(-0.00483592 0.0623422 0)
(-0.0293382 0.06737 0)
(-0.0476045 0.0718239 0)
(-0.0606668 0.0756407 6.23121e-20)
(-0.069371 0.0787064 0)
(-0.0744123 0.0808568 0)
(-0.0763521 0.0818899 -3.91447e-20)
(-0.0756408 0.0815812 8.30558e-20)
(-0.0726395 0.0797011 1.30243e-22)
(-0.06764 0.076034 -1.87078e-19)
(-0.0608829 0.0703938 -4.95164e-20)
(-0.0525721 0.0626387 1.02863e-19)
(-0.042885 0.0526804 0)
(-0.031981 0.0404914 -1.38258e-19)
(-0.0200177 0.0261001 2.27699e-19)
(-0.00714648 0.00958042 1.18043e-20)
(0.183972 0.0223101 -5.20782e-20)
(0.11773 0.0317062 0)
(0.0657297 0.0393617 1.31084e-19)
(0.0232894 0.0460679 -7.21756e-20)
(-0.009569 0.0519313 -8.02163e-20)
(-0.0349133 0.0570962 -1.76904e-19)
(-0.053722 0.0616961 0)
(-0.0671723 0.0657888 -1.06529e-19)
(-0.0761589 0.0693923 1.15729e-19)
(-0.0814657 0.0724597 -6.30174e-20)
(-0.0837324 0.0748898 0)
(-0.0834831 0.0765311 0)
(-0.0811418 0.0771945 3.92917e-20)
(-0.0770495 0.076668 -1.25206e-19)
(-0.0714812 0.0747342 0)
(-0.0646603 0.0711865 -4.65345e-20)
(-0.0567716 0.0658451 9.81103e-20)
(-0.047971 0.058568 -1.79386e-19)
(-0.0383909 0.0492615 2.64983e-20)
(-0.0281439 0.0378859 1.37529e-19)
(-0.0173475 0.0244451 -1.12791e-19)
(-0.00612495 0.00897116 8.19938e-20)
(0.0536401 0.0259835 5.27971e-20)
(0.010298 0.0338469 -5.95299e-20)
(-0.0225784 0.0401413 -6.66021e-20)
(-0.0481774 0.0456005 1.4697e-19)
(-0.066844 0.050246 -8.08699e-20)
(-0.0800945 0.0542905 1.78904e-19)
(-0.0887269 0.0578574 -9.77706e-20)
(-0.093621 0.0610241 5.33765e-20)
(-0.0954536 0.0638145 0)
(-0.0948084 0.0661926 0)
(-0.0921624 0.068068 -3.39923e-20)
(-0.0879061 0.0693028 0)
(-0.0823568 0.0697228 3.93149e-20)
(-0.0757723 0.0691317 -8.35046e-20)
(-0.0683629 0.0673267 8.84293e-20)
(-0.0603021 0.0641137 1.40077e-19)
(-0.051735 0.0593202 -1.71237e-19)
(-0.0427851 0.0528059 7.64161e-20)
(-0.0335556 0.0444706 -1.58712e-19)
(-0.024129 0.0342612 1.09171e-19)
(-0.0146011 0.0221546 0)
(-0.00508704 0.00813934 0)
(-0.0436984 0.0273722 -5.28575e-20)
(-0.0688624 0.0332919 -5.93957e-20)
(-0.0866629 0.0380677 0)
(-0.0991692 0.042179 7.39372e-20)
(-0.106879 0.045622 0)
(-0.110867 0.0485921 -4.4761e-20)
(-0.111764 0.0511994 0)
(-0.110209 0.0535221 5.37528e-20)
(-0.1067 0.0555854 -1.16836e-19)
(-0.10166 0.057361 0)
(-0.0954333 0.0587704 3.42702e-20)
(-0.088304 0.0596914 0)
(-0.0805043 0.0599684 -1.17691e-19)
(-0.0722264 0.0594251 1.25159e-19)
(-0.0636308 0.0578783 6.63769e-20)
(-0.0548537 0.0551512 -9.31219e-20)
(-0.0460126 0.0510843 -2.44711e-20)
(-0.0372104 0.0455441 0)
(-0.0285338 0.0384297 1.31668e-19)
(-0.0200498 0.0296787 -1.08525e-19)
(-0.0118489 0.0192455 0)
(-0.00405588 0.00708163 -9.14396e-20)
(-0.111656 0.0260579 0)
(-0.122799 0.0301011 0)
(-0.12905 0.0334109 0)
(-0.131712 0.0362456 3.69438e-20)
(-0.131279 0.038598 0)
(-0.128488 0.0406153 4.51565e-20)
(-0.123815 0.0423883 9.87848e-20)
(-0.117702 0.0439844 -5.38761e-20)
(-0.110499 0.0454268 5.87457e-20)
(-0.102496 0.0466935 -6.34997e-20)
(-0.0939282 0.0477189 0)
(-0.0849926 0.0483994 7.36108e-20)
(-0.0758525 0.0486017 -3.9184e-20)
(-0.0666474 0.0481741 -2.10234e-20)
(-0.0574987 0.0469581 2.21561e-20)
(-0.0485142 0.0447997 9.30227e-20)
(-0.0397917 0.0415595 -9.73963e-20)
(-0.0314214 0.0371188 1.13948e-19)
(-0.023482 0.0313856 -1.0495e-19)
(-0.016036 0.0242981 1.07841e-19)
(-0.0091811 0.0157997 -1.10513e-19)
(-0.00306493 0.00581911 -9.0567e-20)
(-0.152169 0.0222775 0)
(-0.153043 0.0247563 3.03571e-20)
(-0.150968 0.0268106 -6.67178e-20)
(-0.146742 0.0285567 3.72781e-20)
(-0.140758 0.0299946 -8.19102e-20)
(-0.133497 0.0312234 -4.5297e-20)
(-0.125284 0.0323119 7.42248e-20)
(-0.116406 0.0333126 -5.40525e-20)
(-0.107083 0.0342446 -5.8938e-20)
(-0.0974955 0.0350915 6.36841e-20)
(-0.0877919 0.0358022 0)
(-0.0780963 0.036294 0)
(-0.0685169 0.0364593 -1.96708e-20)
(-0.0591512 0.0361743 -2.09525e-20)
(-0.0500896 0.0353092 0)
(-0.0414179 0.0337378 2.32371e-20)
(-0.0332185 0.031346 0)
(-0.0255724 0.0280383 -1.26718e-20)
(-0.0185545 0.0237416 -1.30678e-20)
(-0.0122274 0.0184086 0)
(-0.00670215 0.0119887 0)
(-0.00215576 0.0044087 0)
(-0.165845 0.0166627 8.11085e-20)
(-0.160072 0.0179769 2.95469e-22)
(-0.152814 0.0190729 0)
(-0.144549 0.0199872 0)
(-0.135528 0.0207298 0)
(-0.126036 0.021362 0)
(-0.116265 0.021932 -2.48993e-20)
(-0.106372 0.0224768 -5.43947e-20)
(-0.0964749 0.023011 -1.51022e-22)
(-0.086667 0.0235241 1.27882e-19)
(-0.0770246 0.0239802 -1.37827e-19)
(-0.0676157 0.0243196 7.3883e-20)
(-0.0585053 0.0244628 -5.91985e-20)
(-0.0497584 0.0243167 8.38087e-20)
(-0.041442 0.0237823 -8.85718e-20)
(-0.0336244 0.022763 5.8178e-20)
(-0.0263758 0.0211728 9.72722e-20)
(-0.0197681 0.018943 -1.01203e-19)
(-0.0138706 0.0160275 1.10665e-23)
(-0.00874458 0.0124055 0)
(-0.00450964 0.00805401 0)
(-0.00136852 0.00292977 0)
(-0.152706 0.0103178 9.86915e-23)
(-0.143933 0.0108735 -6.03419e-20)
(-0.13467 0.0113342 -1.68271e-20)
(-0.125201 0.0116973 0)
(-0.115638 0.0119793 0)
(-0.106126 0.0122153 0)
(-0.0967485 0.0124354 0)
(-0.0875681 0.0126629 0)
(-0.078625 0.0129083 0)
(-0.0699476 0.0131672 0)
(-0.0615599 0.0134193 -6.92134e-20)
(-0.053488 0.0136287 7.41233e-20)
(-0.0457646 0.0137455 7.91909e-20)
(-0.0384304 0.0137087 3.24327e-23)
(-0.0315348 0.0134513 -8.87904e-20)
(-0.0251333 0.0129059 5.82953e-20)
(-0.0192857 0.0120124 -4.87553e-20)
(-0.0140547 0.0107259 -5.06116e-20)
(-0.00949966 0.00902505 6.54335e-20)
(-0.00567297 0.00691785 5.3692e-20)
(-0.00268557 0.00442138 -5.4938e-20)
(-0.000742096 0.00155029 0)
(-0.112706 0.0043003 5.42019e-20)
(-0.104635 0.00444605 -3.01507e-20)
(-0.0965747 0.00454948 1.68942e-20)
(-0.0887225 0.00460736 -9.37764e-21)
(-0.0810884 0.00463662 -4.15737e-20)
(-0.0737273 0.00465504 3.41123e-20)
(-0.0666533 0.00467693 0)
(-0.0598715 0.00471323 0)
(-0.0533754 0.0047697 7.4447e-21)
(-0.0471551 0.00484618 6.44601e-20)
(-0.0412029 0.0049359 -3.45914e-20)
(-0.0355181 0.00502504 -7.44024e-20)
(-0.03011 0.00509257 3.96801e-20)
(-0.0250005 0.00511062 0)
(-0.0202234 0.00504562 0)
(-0.0158227 0.00486077 0)
(-0.0118491 0.00452019 4.57614e-20)
(-0.00835654 0.00399554 -5.07581e-20)
(-0.00539443 0.00327684 3.28282e-21)
(-0.00299949 0.00238518 -5.37876e-20)
(-0.00124527 0.00137381 1.09935e-19)
(-0.000288628 0.000350897 -4.47957e-20)
(-0.0462244 0.000446493 5.30003e-20)
(-0.0424761 0.000472981 -2.94229e-20)
(-0.0387815 0.000486109 0)
(-0.0352893 0.000485921 9.1068e-21)
(-0.0319755 0.000480184 0)
(-0.0288546 0.000473586 3.32061e-20)
(-0.0259168 0.00046936 -2.41398e-20)
(-0.02315 0.000470044 2.64261e-20)
(-0.0205375 0.000477481 -3.57281e-20)
(-0.0180621 0.000492843 -3.08589e-20)
(-0.0157081 0.000516431 -7.92269e-24)
(-0.0134643 0.000547361 7.12174e-20)
(-0.0113253 0.000583111 -3.7966e-20)
(-0.00929397 0.00061897 4.0302e-20)
(-0.00738222 0.000647476 -4.25081e-20)
(-0.00561165 0.000658061 4.46196e-20)
(-0.00401316 0.00063731 2.87269e-21)
(-0.0026256 0.000570658 -5.16302e-23)
(-0.00149107 0.000447281 -1.03125e-19)
(-0.000645605 0.00026892 5.14379e-20)
(-0.000126275 6.16313e-05 -5.25082e-20)
(1.8302e-05 -8.75462e-05 4.32139e-20)
(1.13609 0.0238986 3.34726e-20)
(1.09002 0.0254979 -3.66845e-20)
(1.04191 0.0271442 0)
(0.99166 0.0288389 5.99761e-24)
(0.939372 0.0305878 6.1497e-22)
(0.885133 0.0323974 -3.11718e-20)
(0.829036 0.0342708 0)
(0.771187 0.0362089 -9.75591e-24)
(0.711705 0.0382115 0)
(0.65072 0.0402759 0)
(0.588375 0.0423945 4.12753e-22)
(0.524836 0.0445453 5.82526e-22)
(0.460322 0.0466683 -3.17947e-20)
(0.395163 0.0486314 0)
(0.329914 0.0501865 -3.71382e-20)
(0.265473 0.0509466 3.89922e-20)
(0.203208 0.0503912 0)
(0.145001 0.0479222 -1.07458e-20)
(0.0931139 0.04295 0)
(0.0499457 0.0349954 2.33435e-20)
(0.0187347 0.0237485 -1.1967e-20)
(0.0035176 0.00911525 -2.40007e-24)
(1.14049 0.0798904 6.40607e-20)
(1.09487 0.0856046 -3.6419e-20)
(1.04736 0.0915924 -4.22944e-20)
(0.997693 0.0978241 -4.97191e-20)
(0.945985 0.104293 2.74151e-20)
(0.89233 0.111002 -6.2292e-20)
(0.836817 0.117949 0)
(0.779553 0.125129 0)
(0.720659 0.132531 0)
(0.660262 0.140143 -4.9401e-20)
(0.598506 0.147932 8.00187e-20)
(0.535552 0.155811 -8.81079e-20)
(0.471602 0.163556 1.26984e-19)
(0.406958 0.170679 -1.02884e-19)
(0.342114 0.17629 1.09963e-19)
(0.277882 0.17901 -3.88133e-20)
(0.215505 0.177018 0)
(0.156722 0.168241 1.07448e-20)
(0.103651 0.150658 8.91581e-20)
(0.0585671 0.12264 -9.16733e-20)
(0.0246191 0.0831583 5.98854e-20)
(0.00580297 0.0319298 -1.45635e-19)
(1.14915 0.13589 -1.25326e-19)
(1.10448 0.145735 0)
(1.05822 0.155988 -4.31455e-20)
(1.00972 0.166638 9.39657e-20)
(0.95919 0.177677 5.49131e-20)
(0.906719 0.189114 1.22937e-19)
(0.852399 0.200948 0)
(0.796339 0.213173 0)
(0.738658 0.225776 0)
(0.679485 0.238735 -9.66558e-20)
(0.618957 0.251996 5.2169e-20)
(0.557224 0.265412 1.44522e-19)
(0.494461 0.2786 -1.87137e-19)
(0.430901 0.290725 9.88465e-20)
(0.366918 0.300264 1.79497e-19)
(0.303136 0.304863 -1.88842e-19)
(0.240546 0.301422 0)
(0.180596 0.286413 0)
(0.125111 0.256411 4.24947e-20)
(0.0761177 0.208666 0)
(0.036592 0.141448 -6.94139e-20)
(0.0104512 0.0543017 1.23248e-19)
(1.16115 0.189154 6.17762e-20)
(1.11802 0.20301 0)
(1.07371 0.217387 0)
(1.02707 0.232337 1.85857e-19)
(0.978379 0.247837 -1.03861e-19)
(0.92775 0.263898 -1.82012e-19)
(0.875272 0.28052 1.32471e-19)
(0.82106 0.297692 0)
(0.765234 0.315397 0)
(0.707924 0.333603 9.05505e-20)
(0.649263 0.352236 5.15394e-20)
(0.589386 0.371088 0)
(0.528422 0.389621 -6.09184e-20)
(0.466509 0.406661 -6.29401e-20)
(0.403839 0.420064 -2.05258e-19)
(0.340753 0.426529 1.45054e-19)
(0.277866 0.421703 0)
(0.216191 0.400655 0)
(0.157116 0.358609 -4.24658e-20)
(0.102298 0.291747 1.30949e-19)
(0.0544538 0.197698 -1.33703e-19)
(0.0173831 0.0758663 -1.27508e-19)
(1.17646 0.239818 2.30221e-19)
(1.1354 0.257556 -1.33449e-19)
(1.09368 0.275857 1.59293e-19)
(1.04949 0.294903 -8.45329e-20)
(1.00324 0.314648 -1.99491e-19)
(0.955053 0.335109 -1.16443e-19)
(0.905018 0.356286 1.19666e-21)
(0.853257 0.378168 -1.40571e-19)
(0.799893 0.400735 -7.80378e-20)
(0.745057 0.423949 8.83683e-20)
(0.688877 0.447717 -1.9194e-19)
(0.631467 0.471775 -1.02692e-19)
(0.572899 0.495436 0)
(0.51318 0.5172 3.09238e-19)
(0.452265 0.534325 -1.93206e-19)
(0.39012 0.54259 0)
(0.326862 0.536443 1.45697e-19)
(0.262932 0.509603 -3.03641e-19)
(0.199144 0.456015 1.57386e-19)
(0.136674 0.370868 4.18992e-20)
(0.0779022 0.251212 8.51878e-20)
(0.026477 0.096354 -1.37977e-19)
(1.19466 0.286594 -4.4737e-19)
(1.15618 0.30804 2.59902e-19)
(1.11767 0.33003 -2.96371e-19)
(1.07652 0.352938 1.66811e-19)
(1.03329 0.376689 -9.37011e-20)
(0.988131 0.401302 1.05738e-19)
(0.941117 0.42678 2.5414e-19)
(0.892384 0.453113 2.90803e-21)
(0.84206 0.48028 7.76394e-20)
(0.790275 0.508237 8.76399e-20)
(0.737154 0.536876 9.15866e-20)
(0.682787 0.565881 -2.9514e-19)
(0.627176 0.59443 1.09668e-19)
(0.57017 0.620712 -2.31036e-19)
(0.51143 0.641419 2.43981e-19)
(0.450463 0.651451 0)
(0.386773 0.644112 0)
(0.320092 0.611842 0)
(0.250538 0.547384 0)
(0.178701 0.445024 0)
(0.10656 0.301309 4.05776e-20)
(0.0375814 0.115503 1.60475e-19)
(1.21529 0.328906 1.08123e-19)
(1.17991 0.353832 1.18882e-19)
(1.14516 0.379212 1.43818e-19)
(1.10757 0.40569 1.62244e-19)
(1.06789 0.433146 -7.66296e-20)
(1.02627 0.461606 -4.04842e-19)
(0.982802 0.491079 1.17841e-19)
(0.937626 0.521553 -1.31488e-19)
(0.890877 0.553006 -1.3628e-19)
(0.842686 0.585391 8.03353e-20)
(0.793173 0.618587 -6.14587e-21)
(0.7424 0.652235 1.85571e-19)
(0.690289 0.685387 -9.47569e-20)
(0.636505 0.715949 0)
(0.580363 0.740082 0)
(0.520827 0.751863 0)
(0.456678 0.743508 -2.49094e-19)
(0.386816 0.706259 -4.12938e-23)
(0.310541 0.631744 3.3234e-19)
(0.227767 0.513438 6.57751e-20)
(0.140011 0.347471 0)
(0.050531 0.133119 -3.10741e-20)
(1.23769 0.366056 0)
(1.2059 0.394216 -3.44743e-19)
(1.17543 0.422673 1.28452e-19)
(1.14189 0.452398 1.50848e-19)
(1.10626 0.483216 8.0435e-21)
(1.06867 0.515161 8.84097e-20)
(1.02923 0.548251 2.0923e-19)
(0.988089 0.582479 1.1317e-19)
(0.945392 0.617826 1.02833e-20)
(0.901274 0.654248 0)
(0.85585 0.691615 -8.11944e-20)
(0.809157 0.729537 0)
(0.761031 0.76696 0)
(0.710935 0.801538 0)
(0.657793 0.828946 0)
(0.599954 0.84249 1.01565e-19)
(0.535369 0.833374 0)
(0.461985 0.791711 -5.46981e-20)
(0.378174 0.708112 -6.35939e-20)
(0.283085 0.575327 -6.56817e-20)
(0.177724 0.389171 -2.57738e-19)
(0.0651172 0.148997 4.00678e-19)
(1.2611 0.397478 0)
(1.23337 0.428543 1.96844e-21)
(1.2076 0.459707 1.12253e-19)
(1.1785 0.492325 1.34777e-19)
(1.14731 0.526152 0)
(1.11416 0.561234 -1.80391e-19)
(1.07916 0.597591 0)
(1.0425 0.635218 -9.36983e-21)
(1.00431 0.674098 1.23749e-19)
(0.964731 0.714184 -2.60736e-19)
(0.923881 0.755344 1.46753e-19)
(0.881763 0.797163 0)
(0.838123 0.838504 7.68616e-20)
(0.792204 0.876808 1.72392e-19)
(0.7425 0.907316 -1.82382e-19)
(0.686673 0.922632 -1.01011e-19)
(0.621745 0.913019 1.04577e-19)
(0.544598 0.867553 -1.50416e-19)
(0.452565 0.77591 0)
(0.343963 0.630225 0)
(0.219238 0.426094 2.24829e-19)
(0.0811623 0.163029 -1.60843e-19)
(1.28463 0.423018 1.60493e-19)
(1.26144 0.456704 -1.04289e-20)
(1.24078 0.490224 -2.92827e-21)
(1.21655 0.525336 1.26376e-19)
(1.1902 0.561723 -1.38808e-19)
(1.16185 0.599453 0)
(1.13165 0.638567 -9.69512e-21)
(1.09978 0.679072 -1.04264e-19)
(1.06641 0.72096 2.11367e-19)
(1.0317 0.764193 0)
(0.995748 0.808646 2.65188e-19)
(0.958551 0.853893 -2.69183e-19)
(0.919768 0.898743 -7.61761e-20)
(0.878419 0.940463 0)
(0.832548 0.973921 0)
(0.779071 0.991082 -7.57839e-20)
(0.71399 0.981337 9.14237e-20)
(0.633006 0.932796 -3.96557e-20)
(0.532305 0.834293 -4.0462e-20)
(0.409292 0.677449 -4.14086e-20)
(0.263819 0.457761 -1.47098e-19)
(0.0983787 0.175019 1.5768e-19)
(1.3074 0.44219 -3.0421e-19)
(1.2891 0.478048 -1.83896e-19)
(1.27374 0.513538 2.05389e-19)
(1.25459 0.550815 -2.19048e-19)
(1.23334 0.589465 0)
(1.21012 0.629559 2.76487e-19)
(1.18507 0.671135 -4.6843e-19)
(1.15839 0.7142 0)
(1.13026 0.758751 -8.87594e-20)
(1.10084 0.804757 0)
(1.07024 0.852096 2.19692e-19)
(1.03842 0.900347 0)
(1.00498 0.948282 -1.14633e-19)
(0.968687 0.993042 0)
(0.927114 1.02918 6.13518e-20)
(0.876374 1.04811 7.51964e-20)
(0.811359 1.03845 0)
(0.726488 0.987432 3.94323e-20)
(0.616717 0.883162 4.02805e-20)
(0.478492 0.716859 8.6672e-21)
(0.311055 0.48405 -4.25636e-20)
(0.116603 0.184921 2.83608e-20)
(1.32846 0.455735 1.43672e-19)
(1.31567 0.493542 1.61151e-19)
(1.30598 0.530583 -1.77914e-19)
(1.29224 0.569468 1.55021e-20)
(1.27631 0.60974 -1.1197e-19)
(1.25833 0.651517 -1.32213e-19)
(1.23851 0.694863 1.56069e-20)
(1.21708 0.7398 1.42465e-19)
(1.19424 0.786337 8.74911e-20)
(1.17016 0.834457 -2.58537e-19)
(1.14499 0.884057 1.75921e-19)
(1.11868 0.934735 0)
(1.09075 0.985271 1.13262e-19)
(1.05978 1.03274 9.7886e-20)
(1.02287 1.07144 -1.10226e-19)
(0.975316 1.09231 -4.94331e-20)
(0.910811 1.08321 -2.1746e-19)
(0.822371 1.03056 2.75588e-19)
(0.703591 0.9218 0)
(0.549881 0.747864 1.68245e-19)
(0.359856 0.504506 -1.15462e-19)
(0.135414 0.192534 -1.26616e-19)
(1.34688 0.462508 1.26346e-19)
(1.33966 0.501797 -2.77596e-19)
(1.33556 0.540271 -1.62017e-19)
(1.32741 0.580727 3.6772e-19)
(1.31712 0.622601 0)
(1.30478 0.666011 -6.30629e-21)
(1.29062 0.711026 4.83768e-19)
(1.2749 0.757679 -5.25677e-19)
(1.25782 0.805991 1.42109e-19)
(1.23959 0.855954 1.14309e-20)
(1.22033 0.907477 -3.16562e-19)
(1.20001 0.960175 5.70509e-21)
(1.17809 1.01284 1.74458e-19)
(1.15292 1.06248 -2.65139e-19)
(1.12111 1.10324 6.02956e-20)
(1.07706 1.12562 2.26002e-19)
(1.0132 1.1169 1.5969e-19)
(0.921085 1.06285 -2.14978e-19)
(0.792939 0.950417 4.50517e-20)
(0.623182 0.770427 -8.75915e-20)