/*--------------------------------*- C++ -*----------------------------------*\
| =========                 |                                                 |
| \\      /  F ield         | OpenFOAM Extend Project: Open source CFD        |
|  \\    /   O peration     | Version:  1.6-ext                               |
|   \\  /    A nd           | Web:      www.extend-project.de                 |
|    \\/     M anipulation  |                                                 |
\*---------------------------------------------------------------------------*/
FoamFile
{
    version     2.0;
    format      ascii;
    class       volVectorField;
    location    "1.15";
    object      U_0;
}
// * * * * * * * * * * * * * * * * * * * * * * * * * * * * * * * * * * * * * //

dimensions      [0 1 -1 0 0 0 0];

internalField   nonuniform List<vector> 
20940
(
(1.84888 0.398847 3.92537e-21)
(1.88837 0.41888 5.68282e-24)
(1.92576 0.438189 9.03319e-21)
(1.9602 0.455728 -5.10721e-21)
(1.9914 0.471705 7.63144e-21)
(2.01769 0.484992 7.74776e-22)
(2.0361 0.494477 -1.17844e-20)
(2.04181 0.498207 1.28583e-20)
(2.02841 0.493946 0)
(1.98883 0.479458 9.7144e-21)
(1.91684 0.45321 -1.17145e-20)
(1.80891 0.414982 2.6069e-20)
(1.66552 0.366221 -7.07451e-21)
(1.49156 0.309932 -1.62958e-23)
(1.29554 0.250131 0)
(1.08789 0.191079 0)
(0.879123 0.136578 2.1141e-23)
(0.678316 0.0895217 1.12663e-23)
(0.492255 0.0517158 5.87313e-21)
(0.32522 0.0239261 -1.26241e-20)
(0.179219 0.00662566 1.29829e-20)
(0.054456 0.000492159 0)
(1.87574 0.375671 -1.51498e-20)
(1.91395 0.394549 6.43697e-21)
(1.94974 0.412045 5.62965e-21)
(1.98198 0.427796 -2.33845e-20)
(2.00986 0.441461 -1.60741e-20)
(2.03086 0.451833 8.54191e-21)
(2.04095 0.457493 2.32089e-20)
(2.03439 0.456402 0)
(2.00441 0.446492 1.65405e-20)
(1.94453 0.426087 -2.90033e-20)
(1.85029 0.394559 -4.54528e-20)
(1.72083 0.35274 2.4908e-20)
(1.55957 0.302975 6.94518e-21)
(1.37387 0.248731 -1.67998e-20)
(1.1736 0.193925 5.17782e-20)
(0.969281 0.142221 -3.84587e-20)
(0.770482 0.0965321 4.04193e-20)
(0.584747 0.0588001 1.06369e-20)
(0.417206 0.0299948 1.72337e-20)
(0.270689 0.0102587 -2.38732e-20)
(0.146149 -0.000352932 0)
(0.0431899 -0.0014029 1.02142e-20)
(1.90038 0.352467 -2.51359e-20)
(1.93698 0.370259 1.42548e-20)
(1.97061 0.386046 0)
(1.9998 0.400018 -1.36172e-20)
(2.02294 0.411264 0)
(2.0365 0.418491 -7.97871e-22)
(2.03542 0.420039 -7.92673e-22)
(2.01333 0.413943 0)
(1.96366 0.39852 -5.08716e-20)
(1.88133 0.372848 5.65834e-20)
(1.76432 0.337283 2.22649e-20)
(1.61475 0.293596 -2.47537e-20)
(1.43881 0.244736 7.04711e-20)
(1.24568 0.194257 -7.66154e-20)
(1.04572 0.145647 -1.61484e-20)
(0.848798 0.101791 -1.82449e-20)
(0.663038 0.0646882 3.95017e-20)
(0.494269 0.0354371 -5.19364e-20)
(0.346014 0.0143408 -2.14905e-20)
(0.219819 0.00108866 0)
(0.115773 -0.00455742 -4.82809e-20)
(0.0330272 -0.00235201 2.95377e-20)
(1.92386 0.329605 1.22721e-20)
(1.95838 0.34638 0)
(1.98904 0.360494 0)
(2.01385 0.372586 2.57685e-20)
(2.03017 0.38117 -3.43593e-20)
(2.03337 0.384903 1.82597e-20)
(2.01758 0.382011 -4.96461e-20)
(1.97628 0.370815 5.42537e-20)
(1.90397 0.35024 0)
(1.79776 0.320268 -3.91235e-20)
(1.65863 0.282202 -2.08551e-21)
(1.49169 0.238519 7.24573e-20)
(1.30536 0.192412 -2.75369e-20)
(1.10972 0.147157 0)
(0.914756 0.105569 9.86892e-20)
(0.729021 0.0696712 -1.21459e-19)
(0.558885 0.0406216 -3.88876e-20)
(0.408434 0.0188215 7.90156e-20)
(0.279725 0.00408115 -6.30741e-20)
(0.173235 -0.00420804 2.1679e-20)
(0.0883908 -0.00646327 4.55878e-20)
(0.0240326 -0.00255442 0)
(1.94589 0.30716 -2.99864e-20)
(1.97767 0.322912 3.33316e-20)
(2.00419 0.335301 -4.55026e-20)
(2.02271 0.345306 0)
(2.02941 0.350899 -3.51119e-20)
(2.01869 0.350782 -1.99671e-21)
(1.98426 0.343253 0)
(1.92035 0.32716 0)
(1.8234 0.302218 3.24487e-20)
(1.69343 0.26934 0)
(1.5346 0.230597 0)
(1.35458 0.188833 0)
(1.16309 0.147103 1.63349e-21)
(0.970138 0.10812 -5.65181e-20)
(0.784562 0.0739006 3.2316e-20)
(0.613156 0.0456443 3.54005e-20)
(0.460447 0.0238025 -1.07614e-19)
(0.328903 0.00825814 -7.65771e-20)
(0.219356 -0.00150417 1.60425e-19)
(0.131461 -0.00625752 2.25266e-20)
(0.0641864 -0.0065051 -8.70982e-20)
(0.0162084 -0.002174 0)
(1.96597 0.285199 3.84114e-21)
(1.99401 0.29987 -3.53843e-20)
(2.01465 0.310386 9.25331e-20)
(2.02425 0.317985 0)
(2.01779 0.320202 7.13028e-20)
(1.98909 0.315949 -3.8041e-20)
(1.93225 0.303835 4.80704e-20)
(1.84321 0.283445 -5.74816e-20)
(1.72122 0.255365 3.03288e-20)
(1.56958 0.221312 7.22347e-20)
(1.39528 0.183815 -4.0459e-20)
(1.20766 0.145701 0)
(1.01669 0.109567 -1.16771e-21)
(0.831396 0.077397 5.46938e-20)
(0.658901 0.0504153 9.03506e-20)
(0.504084 0.0291179 -1.27941e-19)
(0.369732 0.0134263 6.78568e-20)
(0.256947 0.00287942 -7.31102e-20)
(0.165615 -0.0032202 7.61133e-20)
(0.0948185 -0.00570648 8.07717e-20)
(0.0432545 -0.00510367 -6.27361e-20)
(0.0095511 -0.00136152 5.29e-20)
(1.98364 0.26353 3.34941e-20)
(2.00635 0.276928 2.78166e-21)
(2.01859 0.285294 -4.69643e-20)
(2.01576 0.290113 0)
(1.99196 0.288644 -6.99614e-20)
(1.94116 0.280225 8.46849e-20)
(1.85893 0.263996 -1.88517e-19)
(1.74385 0.240403 0)
(1.59852 0.210822 6.42763e-20)
(1.4293 0.177502 -1.41634e-19)
(1.2452 0.143051 3.80508e-20)
(1.05608 0.109937 8.67636e-20)
(0.871133 0.0801002 -4.91229e-20)
(0.697723 0.054773 -5.25384e-20)
(0.541018 0.0344889 1.68651e-19)
(0.404058 0.0192122 -6.00072e-20)
(0.288146 0.00851252 0)
(0.193327 0.00173505 0)
(0.118825 -0.00188919 -3.58706e-20)
(0.0633732 -0.00318343 -3.75887e-20)
(0.0255474 -0.00265311 -6.17272e-20)
(0.00401384 -0.000252817 8.38536e-20)
(1.99737 0.242082 -6.30328e-20)
(2.01245 0.253945 4.32466e-20)
(2.01294 0.259836 1.30511e-21)
(1.99354 0.261512 -5.69364e-20)
(1.94811 0.25622 6.94114e-20)
(1.87187 0.243949 0)
(1.76288 0.224528 4.74875e-20)
(1.6231 0.199232 -5.41088e-20)
(1.45838 0.169985 0)
(1.27738 0.139206 6.83292e-20)
(1.08993 0.109224 -1.29921e-22)
(0.905301 0.0819253 -8.37487e-20)
(0.731095 0.0585387 4.5633e-20)
(0.57271 0.0396285 0)
(0.433392 0.0252019 -1.09151e-19)
(0.314595 0.0148691 -5.82852e-20)
(0.216472 0.00800211 1.24286e-19)
(0.138326 0.00386776 0)
(0.0789726 0.00170084 7.0162e-20)
(0.036977 0.000731742 3.75178e-20)
(0.0109057 0.00049424 -3.91138e-20)
(-0.000481621 0.00103464 6.43566e-20)
(2.00585 0.220291 0)
(2.00997 0.230221 -8.2171e-20)
(1.99452 0.233294 1.00944e-19)
(1.95404 0.23167 0)
(1.88322 0.222833 7.24576e-20)
(1.77971 0.20756 4.02715e-21)
(1.64489 0.186377 -8.9902e-20)
(1.48414 0.161175 -5.12142e-20)
(1.30586 0.134086 0)
(1.11981 0.107336 -6.77844e-20)
(0.935402 0.0827375 0)
(0.760432 0.0615146 -8.05496e-20)
(0.60051 0.0442566 4.46339e-20)
(0.459051 0.0310134 -4.84145e-20)
(0.337632 0.0214414 5.32648e-20)
(0.236473 0.0149536 1.13199e-19)
(0.154918 0.0108429 1.54872e-21)
(0.0918126 0.00837617 -2.86187e-19)
(0.0457684 0.00683712 9.94432e-20)
(0.0153167 0.00553106 0)
(-0.000911449 0.00403796 0)
(-0.00403465 0.00240381 3.03884e-20)
(2.0056 0.198197 6.87896e-20)
(1.99484 0.205868 -4.48469e-20)
(1.959 0.20598 -9.83942e-22)
(1.89358 0.201182 -6.23691e-20)
(1.79528 0.189461 6.88416e-20)
(1.66513 0.172407 0)
(1.508 0.151096 1.87116e-19)
(1.33213 0.127711 -2.07275e-19)
(1.14723 0.104239 1.18504e-19)
(0.96289 0.0824576 -6.43146e-20)
(0.787105 0.0635609 7.24509e-20)
(0.625697 0.0481616 8.11353e-20)
(0.482239 0.0363494 -4.33478e-22)
(0.358408 0.0278297 -4.73563e-20)
(0.254472 0.0220631 -1.01381e-19)
(0.169789 0.0183835 -1.38677e-21)
(0.103201 0.0160845 -1.38441e-21)
(0.0533221 0.0144793 2.76195e-19)
(0.0187126 0.0129225 -1.28614e-19)
(-0.00204111 0.0108006 0)
(-0.0102014 0.00773938 -1.41906e-19)
(-0.00675793 0.00378015 8.85848e-20)
(1.99478 0.174772 -7.69134e-20)
(1.9643 0.17992 -5.90018e-21)
(1.90392 0.177188 1.54999e-19)
(1.81093 0.169866 -5.94508e-20)
(1.68525 0.156517 -7.08379e-20)
(1.5316 0.139336 0)
(1.35785 0.119668 9.11325e-20)
(1.17385 0.0996274 -1.02664e-19)
(0.989329 0.0808054 1.71549e-19)
(0.812561 0.0644138 -1.89062e-19)
(0.649591 0.0510703 0)
(0.504155 0.0409075 -1.52085e-19)
(0.378019 0.0336806 -1.62783e-21)
(0.271485 0.0289029 0)
(0.183908 0.0259579 0)
(0.114107 0.0241807 0)
(0.0606747 0.0229125 0)
(0.0221592 0.021536 5.82313e-20)
(-0.00283044 0.0194836 0)
(-0.0156006 0.016222 1.31178e-19)
(-0.0172905 0.0114192 -2.7246e-19)
(-0.00876842 0.00510908 1.15337e-19)
(1.96737 0.151116 0)
(1.91378 0.15383 0)
(1.82622 0.14879 0)
(1.70576 0.139866 0)
(1.55574 0.126206 1.41361e-19)
(1.38425 0.110358 -7.86204e-20)
(1.20102 0.0936485 -3.70473e-22)
(1.01613 0.0778524 1.0076e-19)
(0.838168 0.0640444 -5.61865e-20)
(0.673463 0.0528851 1.21989e-19)
(0.525951 0.0445284 0)
(0.3975 0.0387772 1.47608e-19)
(0.288444 0.0351945 0)
(0.198121 0.0332136 0)
(0.125315 0.032216 0)
(0.0685802 0.0315819 0)
(0.0264344 0.030721 0)
(-0.00252495 0.0290913 -2.28685e-19)
(-0.0195809 0.0262012 2.40669e-19)
(-0.0259082 0.0215914 -9.46377e-20)
(-0.0225225 0.0149696 -3.24782e-20)
(-0.0101874 0.00636137 -8.47292e-20)
(1.92508 0.125296 0)
(1.84386 0.125939 -9.19953e-20)
(1.72848 0.119606 1.07012e-19)
(1.58263 0.110481 0)
(1.41331 0.0982313 0)
(1.23076 0.085253 0)
(1.04519 0.0726554 -8.83663e-20)
(0.865679 0.0616955 0)
(0.698891 0.0529534 0)
(0.549022 0.0466418 -1.20258e-19)
(0.418067 0.042602 1.95434e-19)
(0.3064 0.0404515 -2.16022e-19)
(0.213337 0.0396759 7.65194e-20)
(0.137615 0.0397058 8.37634e-20)
(0.0777332 0.0399654 4.49783e-20)
(0.0321664 0.0399011 0)
(-0.000517537 0.0389961 0)
(-0.0216088 0.0367813 -5.4925e-20)
(-0.0322539 0.0328347 1.16059e-19)
(-0.0334908 0.0267648 -6.11937e-20)
(-0.0262211 0.0183181 1.6027e-19)
(-0.0111245 0.00751735 -1.10026e-19)
(1.85786 0.101621 0)
(1.75176 0.100875 8.90513e-20)
(1.61047 0.094095 1.07217e-19)
(1.4447 0.0858029 6.39189e-20)
(1.26316 0.0758787 -2.76256e-19)
(1.07712 0.0663719 -7.89951e-20)
(0.895902 0.0580934 -1.29187e-21)
(0.72679 0.0517497 9.4595e-20)
(0.574278 0.0475127 1.05493e-19)
(0.440571 0.0452666 -1.17134e-19)
(0.326111 0.0446649 6.27939e-20)
(0.230211 0.0452398 0)
(0.151564 0.0464672 1.51782e-19)
(0.0886053 0.0478127 -2.44781e-19)
(0.0397554 0.0487572 -4.51936e-20)
(0.00354067 0.0488117 9.40041e-20)
(-0.0213524 0.0475246 -1.51072e-19)
(-0.0360711 0.0444883 1.59578e-19)
(-0.041619 0.0393401 -5.59354e-20)
(-0.0389044 0.0317479 3.00056e-20)
(-0.0287282 0.0214942 0)
(-0.0117019 0.00860158 -6.31601e-22)
(1.78239 0.0745312 8.02059e-20)
(1.64595 0.0731924 -9.11615e-20)
(1.48321 0.06825 0)
(1.30302 0.0620273 -2.41399e-19)
(1.11591 0.0559502 2.04651e-19)
(0.932475 0.0508784 8.21568e-22)
(0.7603 0.0473833 0)
(0.60441 0.0456232 -9.41629e-20)
(0.467253 0.0454895 6.4089e-22)
(0.349413 0.0466916 -1.12904e-19)
(0.250228 0.0488306 1.86247e-19)
(0.168351 0.0514551 -1.34467e-19)
(0.102151 0.0540938 -1.47144e-19)
(0.0499678 0.0562768 2.37364e-19)
(0.010262 0.0575484 -1.70646e-19)
(-0.0183257 0.0574763 9.1151e-20)
(-0.0369641 0.0556589 4.92769e-20)
(-0.0466522 0.0517337 -5.23641e-20)
(-0.0482566 0.0453833 5.53527e-20)
(-0.0425665 0.0363255 1.15415e-19)
(-0.0302954 0.0243797 -1.20106e-19)
(-0.0120026 0.00957722 -1.31319e-19)
(1.63093 0.054379 3.55829e-21)
(1.46461 0.0505212 -5.04963e-20)
(1.28281 0.0476291 1.70719e-19)
(1.09647 0.0444728 -1.98779e-21)
(0.914787 0.0426582 -1.44944e-19)
(0.745232 0.0420699 8.08578e-20)
(0.592259 0.0429058 -8.85847e-20)
(0.45807 0.04497 0)
(0.343011 0.0480103 2.16156e-19)
(0.246261 0.0516928 -1.17483e-19)
(0.166346 0.055647 -1.2854e-19)
(0.101538 0.0594806 0)
(0.0501063 0.0627908 0)
(0.0104609 0.0651735 0)
(-0.0187841 0.0662328 -8.68427e-20)
(-0.0388018 0.0655913 4.63443e-20)
(-0.0505745 0.0629013 0)
(-0.0549313 0.0578571 0)
(-0.0525915 0.0502047 5.56176e-20)
(-0.0442191 0.0397406 -1.14685e-19)
(-0.0304301 0.0263597 1.19488e-19)
(-0.0117288 0.0101433 -1.02995e-19)
(1.3755 0.0319292 -1.82913e-19)
(1.19216 0.0306446 1.05728e-19)
(1.00998 0.0322206 -1.1691e-19)
(0.835959 0.0334897 1.31886e-19)
(0.676165 0.0363387 1.476e-19)
(0.533844 0.039806 0)
(0.410245 0.0440594 9.12465e-20)
(0.305087 0.0487913 -9.96685e-20)
(0.217171 0.0537942 -1.09454e-19)
(0.144826 0.0588007 1.19999e-19)
(0.0862494 0.0635256 -6.46018e-20)
(0.0397051 0.0676588 0)
(0.00363927 0.0708727 0)
(-0.02328 0.0728309 8.21047e-20)
(-0.0421622 0.0731999 6.06523e-22)
(-0.0539205 0.0716631 -4.69335e-20)
(-0.0593098 0.0679355 0)
(-0.0589678 0.0617776 5.18734e-20)
(-0.0534543 0.053007 7.5414e-22)
(-0.0432933 0.0414997 0)
(-0.0289771 0.027224 0)
(-0.0109195 0.0102927 1.0135e-19)
(1.09041 0.0192142 -9.23395e-23)
(0.912802 0.0210913 -1.62258e-19)
(0.74949 0.0266301 6.17894e-20)
(0.600726 0.0312266 0)
(0.470299 0.0370833 -1.52116e-19)
(0.357981 0.0429403 1.6795e-19)
(0.263227 0.0490209 -2.77719e-19)
(0.184476 0.0550389 -5.5159e-22)
(0.119984 0.0608539 2.22335e-19)
(0.0679313 0.0662622 0)
(0.0266301 0.0710436 0)
(-0.00540918 0.0749471 7.17548e-20)
(-0.029449 0.0776982 -1.53177e-19)
(-0.0465319 0.0790088 1.64564e-19)
(-0.0575066 0.0785913 -8.77875e-20)
(-0.063063 0.0761744 0)
(-0.06377 0.0715201 0)
(-0.060111 0.0644385 -1.56541e-19)
(-0.0525155 0.0547997 2.17593e-19)
(-0.0413893 0.0425374 0)
(-0.0271184 0.0276697 1.17122e-19)
(-0.0100379 0.0103241 -9.95689e-20)
(0.811577 0.0132173 1.98062e-19)
(0.656076 0.0189343 5.58594e-20)
(0.52151 0.0270607 -1.24537e-19)
(0.402789 0.0339435 7.00072e-20)
(0.302397 0.0413439 1.92562e-22)
(0.218086 0.0482758 0)
(0.148634 0.0549667 1.88448e-19)
(0.0920888 0.0612362 -2.0597e-19)
(0.0467296 0.0670178 5.62582e-20)
(0.0109259 0.072175 -6.12114e-20)
(-0.0167287 0.0765422 0)
(-0.0374243 0.0799128 7.20382e-20)
(-0.0521396 0.082049 0)
(-0.0616673 0.082694 -4.18419e-20)
(-0.0666452 0.0815884 0)
(-0.0675887 0.0784889 -1.40271e-19)
(-0.0649229 0.0731854 -2.36363e-22)
(-0.0590104 0.0655169 1.03569e-19)
(-0.0501747 0.0553825 -1.62771e-19)
(-0.0387211 0.0427475 1.12272e-19)
(-0.0249435 0.0276532 0)
(-0.00910385 0.0102262 0)
(0.561687 0.0136107 -2.0131e-19)
(0.436486 0.0222414 -5.6631e-20)
(0.332698 0.0311975 0)
(0.243368 0.0389943 0)
(0.169976 0.0465815 -7.8812e-20)
(0.109655 0.0534803 -4.33423e-22)
(0.0610966 0.0598792 9.5155e-20)
(0.0224636 0.0657079 1.04598e-19)
(-0.0077053 0.0709466 -5.7088e-20)
(-0.0307376 0.0755037 6.20791e-20)
(-0.047738 0.079246 0)
(-0.0596221 0.0819929 0)
(-0.0671325 0.0835278 3.87048e-20)
(-0.0708662 0.0836128 8.28229e-20)
(-0.0713012 0.0820064 -8.82621e-20)
(-0.0688235 0.0784818 4.69961e-20)
(-0.0637514 0.0728451 4.90503e-20)
(-0.0563563 0.0649495 1.03336e-19)
(-0.0468786 0.0547067 -2.15209e-19)
(-0.0355418 0.0420928 1.11449e-19)
(-0.0225628 0.027151 1.14857e-19)
(-0.00814044 0.00998875 -9.64712e-20)
(0.352075 0.0175049 1.0293e-19)
(0.258065 0.0273483 0)
(0.18239 0.0359874 -6.49638e-20)
(0.118784 0.0435952 7.16906e-20)
(0.0678842 0.0505348 7.94796e-20)
(0.0270681 0.0567326 0)
(-0.00483164 0.0623401 0)
(-0.0293347 0.0673683 0)
(-0.0476017 0.0718226 0)
(-0.0606645 0.0756397 6.22749e-20)
(-0.0693692 0.0787057 0)
(-0.0744109 0.0808563 0)
(-0.0763511 0.0818897 -3.91217e-20)
(-0.0756401 0.0815812 8.30067e-20)
(-0.0726391 0.0797013 1.30258e-22)
(-0.0676398 0.0760343 -1.86968e-19)
(-0.0608829 0.0703942 -4.94875e-20)
(-0.0525722 0.0626391 1.02802e-19)
(-0.0428852 0.0526808 0)
(-0.0319812 0.0404917 -1.38177e-19)
(-0.0200178 0.0261003 2.27566e-19)
(-0.00714651 0.00958046 1.17974e-20)
(0.183981 0.0223062 -5.20448e-20)
(0.117738 0.0317026 0)
(0.0657368 0.0393585 1.31003e-19)
(0.0232954 0.0460651 -7.21307e-20)
(-0.00956393 0.0519288 -8.01669e-20)
(-0.0349091 0.0570941 -1.76797e-19)
(-0.0537185 0.0616944 0)
(-0.0671693 0.0657874 -1.06465e-19)
(-0.0761566 0.0693912 1.15659e-19)
(-0.0814638 0.072459 -6.29797e-20)
(-0.0837309 0.0748893 0)
(-0.083482 0.0765309 0)
(-0.081141 0.0771945 3.92684e-20)
(-0.077049 0.0766682 -1.25131e-19)
(-0.0714809 0.0747345 0)
(-0.0646603 0.071187 -4.65068e-20)
(-0.0567717 0.0658456 9.80522e-20)
(-0.0479712 0.0585686 -1.7928e-19)
(-0.0383911 0.049262 2.64826e-20)
(-0.0281441 0.0378862 1.37448e-19)
(-0.0173477 0.0244453 -1.12724e-19)
(-0.00612498 0.0089712 8.19452e-20)
(0.053648 0.0259801 5.27633e-20)
(0.0103048 0.0338438 -5.94926e-20)
(-0.0225726 0.0401385 -6.65609e-20)
(-0.0481725 0.045598 1.4688e-19)
(-0.0668398 0.0502439 -8.082e-20)
(-0.080091 0.0542887 1.78794e-19)
(-0.0887239 0.057856 -9.7711e-20)
(-0.0936185 0.061023 5.33441e-20)
(-0.0954515 0.0638137 0)
(-0.0948068 0.066192 0)
(-0.0921611 0.0680677 -3.39719e-20)
(-0.0879051 0.0693028 0)
(-0.0823561 0.069723 3.92914e-20)
(-0.0757719 0.0691321 -8.34548e-20)
(-0.0683627 0.0673273 8.83765e-20)
(-0.0603021 0.0641144 1.39993e-19)
(-0.0517351 0.0593209 -1.71135e-19)
(-0.0427853 0.0528066 7.63705e-20)
(-0.0335558 0.0444712 -1.58618e-19)
(-0.0241292 0.0342617 1.09106e-19)
(-0.0146012 0.0221548 0)
(-0.00508707 0.0081394 0)
(-0.0436921 0.0273692 -5.28232e-20)
(-0.068857 0.0332892 -5.9358e-20)
(-0.0866582 0.0380653 0)
(-0.0991651 0.0421769 7.38914e-20)
(-0.106876 0.0456203 0)
(-0.110864 0.0485906 -4.47335e-20)
(-0.111761 0.0511983 0)
(-0.110207 0.0535213 5.37201e-20)
(-0.106698 0.0555849 -1.16765e-19)
(-0.101658 0.0573608 0)
(-0.0954321 0.0587704 3.42496e-20)
(-0.0883031 0.0596916 0)
(-0.0805037 0.0599688 -1.17621e-19)
(-0.072226 0.0594257 1.25084e-19)
(-0.0636306 0.0578791 6.63371e-20)
(-0.0548536 0.0551521 -9.3066e-20)
(-0.0460127 0.0510852 -2.44565e-20)
(-0.0372106 0.0455449 0)
(-0.028534 0.0384304 1.31589e-19)
(-0.02005 0.0296793 -1.0846e-19)
(-0.0118491 0.0192458 0)
(-0.00405592 0.0070817 -9.13845e-20)
(-0.111651 0.0260551 0)
(-0.122795 0.0300986 0)
(-0.129046 0.0334087 0)
(-0.131709 0.0362438 3.69207e-20)
(-0.131276 0.0385965 0)
(-0.128486 0.0406142 4.51287e-20)
(-0.123812 0.0423875 9.87243e-20)
(-0.1177 0.0439839 -5.38431e-20)
(-0.110498 0.0454266 5.871e-20)
(-0.102494 0.0466935 -6.34611e-20)
(-0.0939271 0.0477191 0)
(-0.0849916 0.0483998 7.35663e-20)
(-0.0758518 0.0486024 -3.91602e-20)
(-0.0666469 0.048175 -2.10108e-20)
(-0.0574985 0.0469591 2.21428e-20)
(-0.0485142 0.0448008 9.29666e-20)
(-0.0397918 0.0415607 -9.73377e-20)
(-0.0314216 0.0371199 1.1388e-19)
(-0.0234823 0.0313865 -1.04887e-19)
(-0.0160362 0.0242987 1.07776e-19)
(-0.00918125 0.0158001 -1.10446e-19)
(-0.00306498 0.00581921 -9.0512e-20)
(-0.152165 0.0222749 0)
(-0.15304 0.024754 3.03379e-20)
(-0.150965 0.0268086 -6.66755e-20)
(-0.146739 0.028555 3.72549e-20)
(-0.140755 0.0299933 -8.18591e-20)
(-0.133495 0.0312224 -4.52691e-20)
(-0.125282 0.0323113 7.4179e-20)
(-0.116404 0.0333123 -5.40193e-20)
(-0.107081 0.0342445 -5.89021e-20)
(-0.097494 0.0350918 6.36453e-20)
(-0.0877907 0.0358027 0)
(-0.0780953 0.0362947 0)
(-0.0685161 0.0364602 -1.96589e-20)
(-0.0591506 0.0361754 -2.09399e-20)
(-0.0500893 0.0353105 0)
(-0.0414177 0.0337391 2.32231e-20)
(-0.0332185 0.0313474 0)
(-0.0255726 0.0280396 -1.26642e-20)
(-0.0185547 0.0237428 -1.30599e-20)
(-0.0122276 0.0184095 0)
(-0.00670231 0.0119892 0)
(-0.00215581 0.00440883 0)
(-0.165842 0.01666 8.10561e-20)
(-0.160069 0.0179745 2.95519e-22)
(-0.152811 0.0190708 0)
(-0.144546 0.0199856 0)
(-0.135525 0.0207285 0)
(-0.126034 0.0213611 0)
(-0.116262 0.0219315 -2.48839e-20)
(-0.10637 0.0224767 -5.43614e-20)
(-0.096473 0.0230111 -1.51058e-22)
(-0.0866654 0.0235245 1.27804e-19)
(-0.0770232 0.0239809 -1.37743e-19)
(-0.0676146 0.0243205 7.38381e-20)
(-0.0585044 0.024464 -5.91627e-20)
(-0.0497577 0.0243181 8.3758e-20)
(-0.0414415 0.0237839 -8.85182e-20)
(-0.0336242 0.0227647 5.81428e-20)
(-0.0263758 0.0211745 9.72133e-20)
(-0.0197682 0.0189446 -1.01142e-19)
(-0.0138708 0.0160289 1.10596e-23)
(-0.00874479 0.0124065 0)
(-0.0045098 0.00805464 0)
(-0.00136858 0.00292996 0)
(-0.152703 0.0103151 9.87263e-23)
(-0.14393 0.0108712 -6.03031e-20)
(-0.134667 0.0113322 -1.68164e-20)
(-0.125198 0.0116957 0)
(-0.115635 0.0119781 0)
(-0.106124 0.0122145 0)
(-0.096746 0.012435 0)
(-0.0875659 0.0126629 0)
(-0.078623 0.0129087 0)
(-0.0699458 0.0131679 0)
(-0.0615583 0.0134203 -6.91714e-20)
(-0.0534867 0.01363 7.40784e-20)
(-0.0457636 0.013747 7.9143e-20)
(-0.0384297 0.0137104 3.24487e-23)
(-0.0315343 0.0134531 -8.87368e-20)
(-0.025133 0.0129078 5.82601e-20)
(-0.0192856 0.0120144 -4.87259e-20)
(-0.0140547 0.0107279 -5.0581e-20)
(-0.00949977 0.00902679 6.53939e-20)
(-0.00567313 0.00691921 5.36594e-20)
(-0.00268573 0.00442224 -5.49047e-20)
(-0.000742163 0.00155057 0)
(-0.112704 0.00429683 5.41667e-20)
(-0.104633 0.00444304 -3.01312e-20)
(-0.0965728 0.00454698 1.68835e-20)
(-0.0887206 0.0046054 -9.37176e-21)
(-0.0810866 0.00463521 -4.15479e-20)
(-0.0737257 0.00465416 3.40911e-20)
(-0.0666519 0.00467655 0)
(-0.0598703 0.00471332 0)
(-0.0533744 0.00477021 7.44017e-21)
(-0.0471543 0.00484706 6.44211e-20)
(-0.0412024 0.00493711 -3.45703e-20)
(-0.0355177 0.00502653 -7.43575e-20)
(-0.0301098 0.00509431 3.96562e-20)
(-0.0250004 0.00511256 0)
(-0.0202234 0.00504771 0)
(-0.0158228 0.00486297 0)
(-0.0118492 0.00452243 4.57338e-20)
(-0.00835671 0.00399773 -5.07275e-20)
(-0.00539461 0.00327886 3.28084e-21)
(-0.00299966 0.00238687 -5.3755e-20)
(-0.00124542 0.00137499 1.09869e-19)
(-0.000288696 0.000351368 -4.47685e-20)
(-0.0462309 0.000443225 -2.83702e-22)
(-0.0424821 0.000470139 2.94041e-20)
(-0.0387871 0.00048375 0)
(-0.0352945 0.000484078 8.81654e-21)
(-0.0319804 0.000478859 0)
(-0.0288591 0.000472764 1.10361e-20)
(-0.025921 0.000469015 0)
(-0.0231539 0.000470142 1.02971e-22)
(-0.0205411 0.000477983 -7.14331e-21)
(-0.0180654 0.000493708 -3.10819e-20)
(-0.0157111 0.000517617 3.32928e-20)
(-0.0134669 0.000548823 0)
(-0.0113276 0.000584804 3.79879e-20)
(-0.00929603 0.000620848 -1.22223e-23)
(-0.007384 0.000649493 -4.24413e-20)
(-0.00561316 0.000660167 2.17797e-23)
(-0.0040144 0.000639451 2.90437e-21)
(-0.00262658 0.000572768 -4.83446e-20)
(-0.00149179 0.000449274 9.68301e-20)
(-0.000646071 0.000270675 -5.13945e-20)
(-0.000126518 6.29652e-05 -1.28198e-23)
(1.81891e-05 -8.69426e-05 4.21918e-23)
(1.13609 0.023895 3.34802e-20)
(1.09002 0.0254942 -3.6693e-20)
(1.04191 0.0271403 0)
(0.99166 0.0288349 5.99886e-24)
(0.939372 0.0305835 6.14962e-22)
(0.885133 0.0323929 -3.11779e-20)
(0.829036 0.034266 0)
(0.771187 0.0362039 -9.75769e-24)
(0.711705 0.0382062 0)
(0.65072 0.0402704 0)
(0.588375 0.0423888 4.12744e-22)
(0.524836 0.0445394 5.82528e-22)
(0.460322 0.0466623 -3.17999e-20)
(0.395163 0.0486252 0)
(0.329913 0.0501802 -3.7144e-20)
(0.265473 0.0509404 3.89983e-20)
(0.203208 0.0503851 0)
(0.145001 0.0479166 -1.07474e-20)
(0.0931138 0.0429451 0)
(0.0499456 0.0349915 2.33471e-20)
(0.0187346 0.0237459 -1.19688e-20)
(0.00351758 0.00911424 -2.40043e-24)
(1.14049 0.0798869 6.4076e-20)
(1.09487 0.0856009 -3.64275e-20)
(1.04736 0.0915886 -4.23038e-20)
(0.997693 0.09782 -4.97294e-20)
(0.945985 0.104288 2.74207e-20)
(0.89233 0.110998 -6.23044e-20)
(0.836817 0.117945 0)
(0.779553 0.125124 0)
(0.720658 0.132526 0)
(0.660262 0.140138 -4.94096e-20)
(0.598506 0.147927 8.00326e-20)
(0.535551 0.155805 -8.81226e-20)
(0.471602 0.16355 1.27005e-19)
(0.406958 0.170673 -1.02901e-19)
(0.342114 0.176284 1.09981e-19)
(0.277882 0.179004 -3.88194e-20)
(0.215504 0.177012 0)
(0.156722 0.168235 1.07464e-20)
(0.103651 0.150653 8.9172e-20)
(0.0585668 0.122636 -9.16875e-20)
(0.0246189 0.0831557 5.98944e-20)
(0.00580289 0.0319288 -1.45657e-19)
(1.14915 0.135887 -1.25357e-19)
(1.10448 0.145732 0)
(1.05822 0.155984 -4.31549e-20)
(1.00972 0.166634 9.39863e-20)
(0.95919 0.177672 5.49244e-20)
(0.906719 0.189109 1.22962e-19)
(0.852399 0.200943 0)
(0.796339 0.213168 0)
(0.738658 0.225771 0)
(0.679484 0.23873 -9.6673e-20)
(0.618956 0.251991 5.21782e-20)
(0.557224 0.265406 1.44547e-19)
(0.49446 0.278594 -1.87169e-19)
(0.4309 0.290719 9.88633e-20)
(0.366918 0.300258 1.79527e-19)
(0.303135 0.304857 -1.88873e-19)
(0.240545 0.301416 0)
(0.180595 0.286407 0)
(0.125111 0.256407 4.25017e-20)
(0.0761172 0.208662 0)
(0.0365917 0.141445 -6.94249e-20)
(0.0104511 0.0543007 1.23267e-19)
(1.16115 0.18915 6.17914e-20)
(1.11802 0.203006 0)
(1.07371 0.217383 0)
(1.02707 0.232333 1.85898e-19)
(0.978378 0.247832 -1.03883e-19)
(0.927749 0.263894 -1.82049e-19)
(0.875271 0.280516 1.32498e-19)
(0.821059 0.297687 0)
(0.765233 0.315392 0)
(0.707923 0.333597 9.05677e-20)
(0.649262 0.35223 5.15486e-20)
(0.589385 0.371082 0)
(0.528422 0.389615 -6.09289e-20)
(0.466508 0.406655 -6.29513e-20)
(0.403838 0.420058 -2.05293e-19)
(0.340752 0.426523 1.45078e-19)
(0.277865 0.421697 0)
(0.21619 0.40065 0)
(0.157115 0.358604 -4.24727e-20)
(0.102297 0.291744 1.3097e-19)
(0.0544533 0.197695 -1.33725e-19)
(0.0173829 0.0758654 -1.27529e-19)
(1.17646 0.239815 2.30282e-19)
(1.13539 0.257552 -1.33483e-19)
(1.09368 0.275854 1.5933e-19)
(1.04949 0.294899 -8.45534e-20)
(1.00324 0.314644 -1.99536e-19)
(0.955052 0.335104 -1.16468e-19)
(0.905017 0.356281 1.19662e-21)
(0.853256 0.378163 -1.406e-19)
(0.799893 0.40073 -7.80537e-20)
(0.745056 0.423944 8.83855e-20)
(0.688876 0.447712 -1.91977e-19)
(0.631466 0.47177 -1.02712e-19)
(0.572898 0.495431 0)
(0.513179 0.517194 3.09294e-19)
(0.452263 0.534319 -1.93241e-19)
(0.390118 0.542584 0)
(0.326861 0.536437 1.45723e-19)
(0.26293 0.509598 -3.03695e-19)
(0.199143 0.45601 1.57414e-19)
(0.136673 0.370864 4.19063e-20)
(0.0779017 0.251209 8.52025e-20)
(0.0264767 0.0963531 -1.38001e-19)
(1.19465 0.286591 -4.47491e-19)
(1.15618 0.308037 2.59969e-19)
(1.11767 0.330026 -2.96446e-19)
(1.07652 0.352935 1.66852e-19)
(1.03329 0.376685 -9.37236e-20)
(0.98813 0.401297 1.05763e-19)
(0.941116 0.426776 2.54194e-19)
(0.892383 0.453108 2.90805e-21)
(0.842059 0.480275 7.76553e-20)
(0.790274 0.508232 8.7657e-20)
(0.737153 0.53687 9.16051e-20)
(0.682786 0.565876 -2.95199e-19)
(0.627174 0.594425 1.09689e-19)
(0.570169 0.620706 -2.31081e-19)
(0.511429 0.641413 2.44029e-19)
(0.450462 0.651446 0)
(0.386772 0.644107 0)
(0.320091 0.611836 0)
(0.250537 0.54738 0)
(0.1787 0.44502 0)
(0.10656 0.301307 4.0585e-20)
(0.0375811 0.115502 1.60505e-19)
(1.21529 0.328903 1.08154e-19)
(1.17991 0.353828 1.18916e-19)
(1.14516 0.379208 1.43855e-19)
(1.10757 0.405686 1.62284e-19)
(1.06789 0.433142 -7.6652e-20)
(1.02627 0.461602 -4.0494e-19)
(0.982801 0.491074 1.17868e-19)
(0.937625 0.521548 -1.31517e-19)
(0.890875 0.553001 -1.36312e-19)
(0.842685 0.585386 8.03524e-20)
(0.793172 0.618582 -6.14582e-21)
(0.742399 0.65223 1.85611e-19)
(0.690287 0.685381 -9.4778e-20)
(0.636504 0.715944 0)
(0.580361 0.740076 0)
(0.520826 0.751858 0)
(0.456676 0.743502 -2.49146e-19)
(0.386815 0.706254 -4.13263e-23)
(0.31054 0.63174 3.3241e-19)
(0.227766 0.513435 6.57896e-20)
(0.14001 0.347469 0)
(0.0505307 0.133118 -3.10802e-20)
(1.23769 0.366053 0)
(1.2059 0.394213 -3.44843e-19)
(1.17543 0.422669 1.28489e-19)
(1.14189 0.452395 1.50888e-19)
(1.10626 0.483212 8.04346e-21)
(1.06867 0.515157 8.84341e-20)
(1.02923 0.548246 2.09283e-19)
(0.988088 0.582474 1.13199e-19)
(0.94539 0.617821 1.02832e-20)
(0.901272 0.654243 0)
(0.855848 0.69161 -8.12126e-20)
(0.809155 0.729532 0)
(0.76103 0.766954 0)
(0.710933 0.801532 0)
(0.657791 0.82894 0)
(0.599952 0.842484 1.0159e-19)
(0.535367 0.833368 0)
(0.461984 0.791706 -5.47117e-20)
(0.378173 0.708107 -6.36079e-20)
(0.283084 0.575324 -6.56962e-20)
(0.177723 0.389169 -2.57797e-19)
(0.0651168 0.148997 4.0077e-19)
(1.2611 0.397475 0)
(1.23337 0.42854 1.9684e-21)
(1.20759 0.459703 1.1229e-19)
(1.1785 0.492321 1.34818e-19)
(1.1473 0.526148 0)
(1.11415 0.56123 -1.8044e-19)
(1.07916 0.597587 0)
(1.0425 0.635214 -9.36977e-21)
(1.00431 0.674093 1.2378e-19)
(0.96473 0.714179 -2.60803e-19)
(0.923879 0.755339 1.46789e-19)
(0.881761 0.797158 0)
(0.838121 0.838499 7.68825e-20)
(0.792202 0.876803 1.72436e-19)
(0.742498 0.90731 -1.82429e-19)
(0.686671 0.922627 -1.01036e-19)
(0.621742 0.913014 1.04603e-19)
(0.544596 0.867548 -1.50457e-19)
(0.452564 0.775906 0)
(0.343962 0.630222 0)
(0.219237 0.426091 2.24889e-19)
(0.081162 0.163028 -1.60886e-19)
(1.28463 0.423015 1.60552e-19)
(1.26144 0.4567 -1.04288e-20)
(1.24078 0.490221 -2.92828e-21)
(1.21655 0.525332 1.26416e-19)
(1.19019 0.561719 -1.38852e-19)
(1.16185 0.599449 0)
(1.13165 0.638563 -9.69509e-21)
(1.09978 0.679067 -1.04292e-19)
(1.06641 0.720955 2.11429e-19)
(1.0317 0.764189 0)
(0.995746 0.808641 2.6526e-19)
(0.958548 0.853888 -2.6926e-19)
(0.919766 0.898738 -7.61968e-20)
(0.878417 0.940458 0)
(0.832545 0.973916 0)
(0.779068 0.991077 -7.58086e-20)
(0.713988 0.981332 9.14496e-20)
(0.633004 0.932792 -3.96692e-20)
(0.532303 0.83429 -4.04761e-20)
(0.40929 0.677446 -4.14232e-20)
(0.263818 0.457759 -1.47143e-19)
(0.0983784 0.175018 1.5773e-19)
(1.30739 0.442187 -3.04326e-19)
(1.2891 0.478045 -1.83961e-19)
(1.27374 0.513535 2.05461e-19)
(1.25459 0.550812 -2.19126e-19)
(1.23334 0.589461 0)
(1.21012 0.629555 2.76582e-19)
(1.18507 0.671131 -4.68585e-19)
(1.15839 0.714196 0)
(1.13026 0.758747 -8.87901e-20)
(1.10084 0.804752 0)
(1.07023 0.852092 2.19764e-19)
(1.03842 0.900342 0)
(1.00498 0.948277 -1.14674e-19)
(0.968685 0.993037 0)
(0.927112 1.02918 6.13751e-20)
(0.876372 1.04811 7.52209e-20)
(0.811357 1.03844 0)
(0.726486 0.987428 3.94458e-20)
(0.616715 0.883159 4.02945e-20)
(0.478491 0.716856 8.66716e-21)
(0.311054 0.484048 -4.25786e-20)
(0.116603 0.18492 2.83733e-20)
(1.32846 0.455732 1.43729e-19)
(1.31567 0.493539 1.61215e-19)
(1.30598 0.53058 -1.77984e-19)
(1.29224 0.569464 1.55021e-20)
(1.27631 0.609736 -1.12013e-19)
(1.25833 0.651513 -1.3226e-19)
(1.23851 0.694859 1.56068e-20)
(1.21708 0.739796 1.42521e-19)
(1.19423 0.786333 8.75213e-20)
(1.17016 0.834453 -2.58635e-19)
(1.14499 0.884052 1.75992e-19)
(1.11868 0.93473 0)
(1.09074 0.985267 1.13302e-19)
(1.05978 1.03273 9.79294e-20)
(1.02287 1.07144 -1.10272e-19)
(0.975313 1.0923 -4.94575e-20)
(0.910809 1.0832 -2.17563e-19)
(0.822369 1.03056 2.75722e-19)
(0.703589 0.921796 0)
(0.549879 0.747862 1.68332e-19)
(0.359855 0.504504 -1.15522e-19)
(0.135413 0.192534 -1.26678e-19)
(1.34688 0.462505 1.26403e-19)
(1.33966 0.501794 -2.77721e-19)
(1.33556 0.540267 -1.62086e-19)
(1.32741 0.580723 3.67872e-19)
(1.31712 0.622598 0)
(1.30478 0.666007 -6.30627e-21)
(1.29062 0.711022 4.83969e-19)
(1.2749 0.757675 -5.25896e-19)
(1.25782 0.805987 1.42169e-19)
(1.23958 0.85595 1.14309e-20)
(1.22033 0.907473 -3.16702e-19)
(1.20001 0.96017 5.705e-21)
(1.17809 1.01283 1.74538e-19)
(1.15292 1.06248 -2.65267e-19)
(1.12111 1.10323 6.03182e-20)
(1.07706 1.12561 2.26122e-19)
(1.0132 1.1169 1.59792e-19)
(0.921083 1.06285 -2.15111e-19)
(0.792937 0.950414 4.50795e-20)
(0.62318 0.770425 -8.76492e-20)