/*--------------------------------*- C++ -*----------------------------------*\
| =========                 |                                                 |
| \\      /  F ield         | OpenFOAM Extend Project: Open source CFD        |
|  \\    /   O peration     | Version:  1.6-ext                               |
|   \\  /    A nd           | Web:      www.extend-project.de                 |
|    \\/     M anipulation  |                                                 |
\*---------------------------------------------------------------------------*/
FoamFile
{
    version     2.0;
    format      ascii;
    class       volScalarField::DimensionedInternalField;
    location    "1.15";
    object      V0;
}
// * * * * * * * * * * * * * * * * * * * * * * * * * * * * * * * * * * * * * //

dimensions      [0 3 0 0 0 0 0];

value           nonuniform List<scalar> 
20940
(
1.17123e-06
1.0382e-06
9.21152e-07
8.18106e-07
7.27322e-07
6.47285e-07
5.76669e-07
5.14317e-07
4.59217e-07
4.10484e-07
3.67346e-07
3.29127e-07
2.95234e-07
2.65148e-07
2.38416e-07
2.14638e-07
1.93466e-07
1.74593e-07
1.5775e-07
1.42703e-07
1.29244e-07
1.17193e-07
1.17141e-06
1.03835e-06
9.21282e-07
8.18221e-07
7.27425e-07
6.47379e-07
5.76756e-07
5.14399e-07
4.59295e-07
4.10559e-07
3.67417e-07
3.29193e-07
2.95294e-07
2.65202e-07
2.38464e-07
2.14682e-07
1.93506e-07
1.74631e-07
1.57788e-07
1.4274e-07
1.2928e-07
1.17228e-07
1.17399e-06
1.04064e-06
9.23314e-07
8.20025e-07
7.29031e-07
6.48809e-07
5.78033e-07
5.15541e-07
4.60319e-07
4.11479e-07
3.68246e-07
3.2994e-07
2.95968e-07
2.6581e-07
2.39012e-07
2.15176e-07
1.93952e-07
1.75034e-07
1.58154e-07
1.43074e-07
1.29586e-07
1.17508e-07
1.17827e-06
1.04443e-06
9.26677e-07
8.23014e-07
7.31691e-07
6.5118e-07
5.80147e-07
5.17428e-07
4.62006e-07
4.12989e-07
3.69601e-07
3.31158e-07
2.97066e-07
2.66801e-07
2.39907e-07
2.15984e-07
1.94682e-07
1.75693e-07
1.5875e-07
1.43614e-07
1.30078e-07
1.17957e-07
1.18352e-06
1.04912e-06
9.30872e-07
8.26774e-07
7.35066e-07
6.54214e-07
5.82879e-07
5.1989e-07
4.64227e-07
4.14995e-07
3.71413e-07
3.32799e-07
2.98554e-07
2.68153e-07
2.41138e-07
2.17107e-07
1.95706e-07
1.76629e-07
1.59603e-07
1.44392e-07
1.30789e-07
1.18608e-07
1.19034e-06
1.05523e-06
9.36352e-07
8.31694e-07
7.39491e-07
6.58202e-07
5.8648e-07
5.23148e-07
4.67178e-07
4.17672e-07
3.73843e-07
3.35007e-07
3.00561e-07
2.69981e-07
2.42805e-07
2.18629e-07
1.97099e-07
1.77904e-07
1.60772e-07
1.45463e-07
1.31768e-07
1.19504e-07
1.19871e-06
1.06276e-06
9.43134e-07
8.37804e-07
7.45e-07
6.63176e-07
5.9098e-07
5.27229e-07
4.70887e-07
4.21049e-07
3.76924e-07
3.37819e-07
3.0313e-07
2.7233e-07
2.44953e-07
2.20596e-07
1.98902e-07
1.79559e-07
1.62292e-07
1.46861e-07
1.33054e-07
1.20685e-07
1.20863e-06
1.07174e-06
9.51274e-07
8.45184e-07
7.51691e-07
6.69244e-07
5.96484e-07
5.32226e-07
4.75432e-07
4.25192e-07
3.80708e-07
3.41284e-07
3.06307e-07
2.75245e-07
2.4763e-07
2.23055e-07
2.01162e-07
1.81637e-07
1.64205e-07
1.48624e-07
1.34681e-07
1.22188e-07
1.22001e-06
1.08209e-06
9.60707e-07
8.53791e-07
7.59554e-07
6.76428e-07
6.03048e-07
5.38221e-07
4.80905e-07
4.30189e-07
3.85276e-07
3.45466e-07
3.10146e-07
2.78775e-07
2.50881e-07
2.26052e-07
2.03926e-07
1.84187e-07
1.66559e-07
1.50799e-07
1.36691e-07
1.24049e-07
1.23276e-06
1.09374e-06
9.71359e-07
8.63552e-07
7.68514e-07
6.84665e-07
6.10629e-07
5.452e-07
4.87328e-07
4.36096e-07
3.90704e-07
3.50452e-07
3.14727e-07
2.8299e-07
2.54766e-07
2.2964e-07
2.07244e-07
1.87259e-07
1.69403e-07
1.53432e-07
1.3913e-07
1.26309e-07
1.2467e-06
1.10655e-06
9.83137e-07
8.74388e-07
7.78493e-07
6.9387e-07
6.19132e-07
5.53067e-07
4.94617e-07
4.42852e-07
3.96966e-07
3.5625e-07
3.20089e-07
2.87943e-07
2.59342e-07
2.3387e-07
2.11159e-07
1.90887e-07
1.7277e-07
1.56558e-07
1.42033e-07
1.29004e-07
1.26232e-06
1.12096e-06
9.96442e-07
8.86671e-07
7.89833e-07
7.04341e-07
6.28807e-07
5.62018e-07
5.02908e-07
4.50546e-07
4.04115e-07
3.629e-07
3.26274e-07
2.93691e-07
2.64677e-07
2.38814e-07
2.1574e-07
1.95132e-07
1.76707e-07
1.60214e-07
1.45431e-07
1.32164e-07
1.27877e-06
1.13628e-06
1.01069e-06
8.99933e-07
8.02173e-07
7.15818e-07
6.39475e-07
5.71928e-07
5.12113e-07
4.591e-07
4.12071e-07
3.7031e-07
3.33186e-07
3.00145e-07
2.70702e-07
2.44436e-07
2.20978e-07
2.00006e-07
1.81239e-07
1.64428e-07
1.49352e-07
1.35815e-07
1.29609e-06
1.15248e-06
1.02587e-06
9.14142e-07
8.15479e-07
7.28279e-07
6.5114e-07
5.8284e-07
5.22309e-07
4.68615e-07
4.20944e-07
3.78582e-07
3.409e-07
3.07347e-07
2.77435e-07
2.50736e-07
2.26873e-07
2.0552e-07
1.86389e-07
1.69231e-07
1.53828e-07
1.39985e-07
1.31403e-06
1.16942e-06
1.04183e-06
9.29176e-07
8.29627e-07
7.4159e-07
6.63661e-07
5.94616e-07
5.33385e-07
4.79022e-07
4.30712e-07
3.87734e-07
3.49464e-07
3.15354e-07
2.8492e-07
2.57737e-07
2.33429e-07
2.11662e-07
1.92145e-07
1.74622e-07
1.58869e-07
1.44694e-07
1.24239e-06
1.10829e-06
9.89793e-07
8.84983e-07
7.92199e-07
7.09988e-07
6.37076e-07
5.7235e-07
5.14832e-07
4.63664e-07
4.18093e-07
3.77457e-07
3.41181e-07
3.08758e-07
2.79749e-07
2.53767e-07
2.30471e-07
2.09559e-07
1.90763e-07
1.73845e-07
1.58595e-07
1.44831e-07
1.21932e-06
1.08719e-06
9.70466e-07
8.67268e-07
7.75946e-07
6.95059e-07
6.23347e-07
5.5971e-07
5.03185e-07
4.52925e-07
4.08187e-07
3.68321e-07
3.32752e-07
3.00979e-07
2.72561e-07
2.47116e-07
2.24307e-07
2.0384e-07
1.85455e-07
1.6892e-07
1.5403e-07
1.40602e-07
1.19735e-06
1.06715e-06
9.52161e-07
8.5053e-07
7.60629e-07
6.8103e-07
6.10485e-07
5.47903e-07
4.92331e-07
4.42934e-07
3.98983e-07
3.59835e-07
3.24926e-07
2.93761e-07
2.65904e-07
2.40974e-07
2.18634e-07
1.98592e-07
1.80593e-07
1.64411e-07
1.49846e-07
1.36722e-07
1.17665e-06
1.0483e-06
9.34986e-07
8.34864e-07
7.46321e-07
6.6795e-07
5.98519e-07
5.36946e-07
4.82287e-07
4.33716e-07
3.9051e-07
3.52038e-07
3.17744e-07
2.87141e-07
2.598e-07
2.35345e-07
2.13444e-07
1.93805e-07
1.76173e-07
1.60322e-07
1.46057e-07
1.33205e-07
1.15735e-06
1.03077e-06
9.19047e-07
8.20355e-07
7.33099e-07
6.55885e-07
5.87495e-07
5.26866e-07
4.73064e-07
4.2527e-07
3.82768e-07
3.44932e-07
3.11214e-07
2.81132e-07
2.54266e-07
2.30243e-07
2.08739e-07
1.89465e-07
1.7217e-07
1.56628e-07
1.42644e-07
1.30047e-07
1.13923e-06
1.01437e-06
9.04186e-07
8.06868e-07
7.20846e-07
6.44738e-07
5.77344e-07
5.17609e-07
4.64612e-07
4.17546e-07
3.75704e-07
3.38466e-07
3.05289e-07
2.75698e-07
2.49274e-07
2.25653e-07
2.04511e-07
1.85568e-07
1.68575e-07
1.53313e-07
1.39588e-07
1.27231e-07
1.12314e-06
9.99814e-07
8.90998e-07
7.94907e-07
7.09984e-07
6.34864e-07
5.68356e-07
5.09418e-07
4.57138e-07
4.10718e-07
3.6946e-07
3.3275e-07
3.00052e-07
2.70895e-07
2.44866e-07
2.21603e-07
2.00788e-07
1.82139e-07
1.65415e-07
1.50396e-07
1.36896e-07
1.24745e-07
1.10845e-06
9.86561e-07
8.79025e-07
7.8408e-07
7.00179e-07
6.25974e-07
5.60284e-07
5.0208e-07
4.5046e-07
4.04633e-07
3.63908e-07
3.27679e-07
2.95415e-07
2.66652e-07
2.40979e-07
2.18039e-07
1.97518e-07
1.79137e-07
1.62654e-07
1.47856e-07
1.34553e-07
1.22581e-07
1.09538e-06
9.74792e-07
8.68414e-07
7.745e-07
6.91519e-07
6.18136e-07
5.53183e-07
4.95638e-07
4.44609e-07
3.99311e-07
3.59061e-07
3.2326e-07
2.91381e-07
2.62965e-07
2.37606e-07
2.14951e-07
1.94687e-07
1.7654e-07
1.6027e-07
1.45664e-07
1.32537e-07
1.20724e-07
1.08393e-06
9.64498e-07
8.5915e-07
7.66151e-07
6.83986e-07
6.11331e-07
5.47028e-07
4.90064e-07
4.39553e-07
3.94722e-07
3.54889e-07
3.19463e-07
2.87921e-07
2.59808e-07
2.34722e-07
2.12313e-07
1.92272e-07
1.74327e-07
1.58241e-07
1.43802e-07
1.30827e-07
1.19153e-07
1.07406e-06
9.55646e-07
8.51198e-07
7.58998e-07
6.77546e-07
6.05524e-07
5.41785e-07
4.85324e-07
4.35262e-07
3.90832e-07
3.5136e-07
3.16256e-07
2.85003e-07
2.5715e-07
2.32298e-07
2.101e-07
1.90249e-07
1.72476e-07
1.56546e-07
1.42248e-07
1.29402e-07
1.17844e-07
1.06573e-06
9.48182e-07
8.44504e-07
7.52989e-07
6.72142e-07
6.00661e-07
5.37402e-07
4.81369e-07
4.3169e-07
3.87599e-07
3.48431e-07
3.13599e-07
2.8259e-07
2.54954e-07
2.30299e-07
2.08277e-07
1.88585e-07
1.70955e-07
1.55155e-07
1.40975e-07
1.28235e-07
1.16774e-07
1.05888e-06
9.4205e-07
8.39013e-07
7.48065e-07
6.67721e-07
5.96686e-07
5.33824e-07
4.78145e-07
4.28781e-07
3.84972e-07
3.46055e-07
3.11447e-07
2.80638e-07
2.53183e-07
2.28687e-07
2.0681e-07
1.87246e-07
1.69734e-07
1.54037e-07
1.39953e-07
1.27299e-07
1.15919e-07
1.05349e-06
9.37236e-07
8.347e-07
7.44197e-07
6.6425e-07
5.93567e-07
5.31018e-07
4.75618e-07
4.26503e-07
3.82916e-07
3.44197e-07
3.09765e-07
2.79115e-07
2.518e-07
2.27431e-07
2.05667e-07
1.86205e-07
1.68783e-07
1.53168e-07
1.39155e-07
1.26566e-07
1.15242e-07
1.04915e-06
9.33364e-07
8.31237e-07
7.41099e-07
6.61476e-07
5.91081e-07
5.28789e-07
4.73617e-07
4.24703e-07
3.81296e-07
3.42738e-07
3.0845e-07
2.77928e-07
2.50728e-07
2.26462e-07
2.04789e-07
1.8541e-07
1.68062e-07
1.52513e-07
1.38561e-07
1.26024e-07
1.147e-07
1.17427e-06
1.04681e-06
9.34195e-07
8.3462e-07
7.46499e-07
6.68447e-07
5.9925e-07
5.37846e-07
4.83305e-07
4.34812e-07
3.91653e-07
3.53199e-07
3.18903e-07
2.88278e-07
2.60906e-07
2.36408e-07
2.14461e-07
1.94774e-07
1.77095e-07
1.61201e-07
1.46891e-07
1.33997e-07
1.17456e-06
1.04708e-06
9.34455e-07
8.34863e-07
7.46727e-07
6.6866e-07
5.99449e-07
5.38033e-07
4.8348e-07
4.34976e-07
3.91805e-07
3.53342e-07
3.19034e-07
2.88404e-07
2.6102e-07
2.36518e-07
2.14561e-07
1.9487e-07
1.77184e-07
1.61282e-07
1.4697e-07
1.34067e-07
1.17731e-06
1.04956e-06
9.36686e-07
8.36878e-07
7.48548e-07
6.70308e-07
6.00942e-07
5.39386e-07
4.84709e-07
4.36093e-07
3.92822e-07
3.54268e-07
3.19881e-07
2.89174e-07
2.61727e-07
2.37161e-07
2.15154e-07
1.9541e-07
1.77681e-07
1.61738e-07
1.47388e-07
1.34454e-07
1.18191e-06
1.05369e-06
9.40398e-07
8.40218e-07
7.51558e-07
6.73023e-07
6.03394e-07
5.41604e-07
4.86716e-07
4.37912e-07
3.94473e-07
3.55768e-07
3.21244e-07
2.90416e-07
2.62858e-07
2.38194e-07
2.16096e-07
1.96273e-07
1.78469e-07
1.62463e-07
1.48049e-07
1.35063e-07
1.18775e-06
1.05897e-06
9.45172e-07
8.44542e-07
7.55477e-07
6.7658e-07
6.06626e-07
5.44544e-07
4.89394e-07
4.40354e-07
3.967e-07
3.57804e-07
3.23105e-07
2.92121e-07
2.64418e-07
2.39627e-07
2.17409e-07
1.97481e-07
1.79579e-07
1.63483e-07
1.48992e-07
1.35929e-07
1.19549e-06
1.06597e-06
9.51512e-07
8.50289e-07
7.60694e-07
6.8132e-07
6.10938e-07
5.48471e-07
4.92974e-07
4.4362e-07
3.99686e-07
3.60532e-07
3.25605e-07
2.94408e-07
2.6652e-07
2.41551e-07
2.19182e-07
1.99106e-07
1.81079e-07
1.64861e-07
1.50263e-07
1.371e-07
1.20513e-06
1.07471e-06
9.59444e-07
8.57498e-07
7.67252e-07
6.87294e-07
6.16386e-07
5.53443e-07
4.97517e-07
4.47776e-07
4.0349e-07
3.6402e-07
3.28801e-07
2.97346e-07
2.69215e-07
2.44034e-07
2.21461e-07
2.01211e-07
1.83013e-07
1.6665e-07
1.51909e-07
1.38624e-07
1.21675e-06
1.08527e-06
9.69063e-07
8.66262e-07
7.75247e-07
6.94594e-07
6.23058e-07
5.59548e-07
5.03108e-07
4.52901e-07
4.08192e-07
3.68336e-07
3.3277e-07
3.00994e-07
2.72575e-07
2.47127e-07
2.24315e-07
2.0384e-07
1.85443e-07
1.68891e-07
1.53985e-07
1.4054e-07
1.23042e-06
1.09774e-06
9.80438e-07
8.76654e-07
7.8475e-07
7.03293e-07
6.31028e-07
5.66857e-07
5.09817e-07
4.59064e-07
4.13858e-07
3.7355e-07
3.37571e-07
3.05418e-07
2.76655e-07
2.50892e-07
2.27792e-07
2.07052e-07
1.88412e-07
1.71637e-07
1.56525e-07
1.42893e-07
1.24617e-06
1.11213e-06
9.93609e-07
8.8872e-07
7.95813e-07
7.13445e-07
6.40352e-07
5.75428e-07
5.17702e-07
4.66323e-07
4.20546e-07
3.79717e-07
3.43259e-07
3.10671e-07
2.81505e-07
2.55377e-07
2.31937e-07
2.1089e-07
1.91963e-07
1.74929e-07
1.59573e-07
1.4572e-07
1.26381e-06
1.12832e-06
1.00848e-06
9.02384e-07
8.08381e-07
7.25014e-07
6.51009e-07
5.85251e-07
5.26763e-07
4.74687e-07
4.28272e-07
3.86856e-07
3.49862e-07
3.16778e-07
2.8716e-07
2.60611e-07
2.3679e-07
2.15385e-07
1.96134e-07
1.78795e-07
1.63163e-07
1.4905e-07
1.28384e-06
1.14672e-06
1.0254e-06
9.17962e-07
8.22729e-07
7.38239e-07
6.63208e-07
5.96511e-07
5.37162e-07
4.84297e-07
4.37157e-07
3.95076e-07
3.5747e-07
3.23824e-07
2.93687e-07
2.66663e-07
2.42398e-07
2.2059e-07
2.00962e-07
1.83278e-07
1.67324e-07
1.52917e-07
1.3055e-06
1.16671e-06
1.04386e-06
9.35014e-07
8.38493e-07
7.5282e-07
6.76702e-07
6.09004e-07
5.48735e-07
4.95022e-07
4.47101e-07
4.04299e-07
3.66027e-07
3.31766e-07
3.01061e-07
2.7351e-07
2.48761e-07
2.26502e-07
2.06458e-07
1.88387e-07
1.72077e-07
1.57336e-07
1.32891e-06
1.18839e-06
1.06394e-06
9.53623e-07
8.55747e-07
7.68823e-07
6.9155e-07
6.22787e-07
5.61532e-07
5.06908e-07
4.58143e-07
4.1456e-07
3.75565e-07
3.40635e-07
3.09309e-07
2.81182e-07
2.55899e-07
2.33144e-07
2.1264e-07
1.94142e-07
1.77435e-07
1.62326e-07
1.35387e-06
1.21158e-06
1.0855e-06
9.73673e-07
8.74394e-07
7.86169e-07
7.0769e-07
6.37806e-07
5.75512e-07
5.19921e-07
4.70259e-07
4.25842e-07
3.86072e-07
3.50421e-07
3.18425e-07
2.89676e-07
2.63813e-07
2.40518e-07
2.19513e-07
2.00548e-07
1.83405e-07
1.67892e-07
1.35387e-06
1.21159e-06
1.0855e-06
9.73676e-07
8.74398e-07
7.86173e-07
7.07693e-07
6.3781e-07
5.75515e-07
5.19924e-07
4.70261e-07
4.25844e-07
3.86074e-07
3.50423e-07
3.18427e-07
2.89678e-07
2.63815e-07
2.40521e-07
2.19515e-07
2.0055e-07
1.83407e-07
1.67894e-07
1.32892e-06
1.1884e-06
1.06395e-06
9.53633e-07
8.55757e-07
7.68834e-07
6.91561e-07
6.22797e-07
5.61541e-07
5.06916e-07
4.5815e-07
4.14567e-07
3.75572e-07
3.40641e-07
3.09316e-07
2.81189e-07
2.55906e-07
2.33151e-07
2.12647e-07
1.94148e-07
1.7744e-07
1.62331e-07
1.30552e-06
1.16673e-06
1.04387e-06
9.35031e-07
8.3851e-07
7.52837e-07
6.76718e-07
6.0902e-07
5.4875e-07
4.95036e-07
4.47114e-07
4.04311e-07
3.66039e-07
3.31778e-07
3.01073e-07
2.73522e-07
2.48772e-07
2.26512e-07
2.06467e-07
1.88396e-07
1.72084e-07
1.57343e-07
1.28386e-06
1.14675e-06
1.02542e-06
9.17985e-07
8.22752e-07
7.38262e-07
6.6323e-07
5.96532e-07
5.37183e-07
4.84317e-07
4.37177e-07
3.95095e-07
3.57487e-07
3.23841e-07
2.93703e-07
2.66676e-07
2.42412e-07
2.20601e-07
2.00973e-07
1.83287e-07
1.67333e-07
1.52924e-07
1.26384e-06
1.12835e-06
1.00851e-06
9.02413e-07
8.0841e-07
7.25043e-07
6.51038e-07
5.8528e-07
5.26791e-07
4.74714e-07
4.28297e-07
3.8688e-07
3.49883e-07
3.16799e-07
2.87178e-07
2.60629e-07
2.36804e-07
2.15399e-07
1.96146e-07
1.78806e-07
1.63173e-07
1.4906e-07
1.2462e-06
1.11217e-06
9.93646e-07
8.88757e-07
7.9585e-07
7.13481e-07
6.40388e-07
5.75462e-07
5.17734e-07
4.66354e-07
4.20575e-07
3.79744e-07
3.43285e-07
3.10694e-07
2.81528e-07
2.55396e-07
2.31956e-07
2.10906e-07
1.91979e-07
1.74942e-07
1.59586e-07
1.45731e-07
1.23047e-06
1.09778e-06
9.80485e-07
8.76701e-07
7.84796e-07
7.03337e-07
6.3107e-07
5.66897e-07
5.09854e-07
4.59099e-07
4.13891e-07
3.73581e-07
3.37599e-07
3.05445e-07
2.76679e-07
2.50915e-07
2.27812e-07
2.07072e-07
1.8843e-07
1.71654e-07
1.5654e-07
1.42907e-07
1.21681e-06
1.08533e-06
9.69122e-07
8.66321e-07
7.75303e-07
6.94648e-07
6.23108e-07
5.59594e-07
5.03151e-07
4.52941e-07
4.08229e-07
3.68371e-07
3.32801e-07
3.01024e-07
2.72602e-07
2.47153e-07
2.24339e-07
2.03862e-07
1.85463e-07
1.6891e-07
1.54001e-07
1.40556e-07
1.2052e-06
1.07478e-06
9.59516e-07
8.57569e-07
7.67321e-07
6.87359e-07
6.16446e-07
5.53499e-07
4.97569e-07
4.47823e-07
4.03533e-07
3.64058e-07
3.28837e-07
2.97378e-07
2.69246e-07
2.44062e-07
2.21488e-07
2.01234e-07
1.83036e-07
1.6667e-07
1.5193e-07
1.38642e-07
1.19558e-06
1.06605e-06
9.51598e-07
8.50373e-07
7.60774e-07
6.81396e-07
6.11009e-07
5.48537e-07
4.93035e-07
4.43676e-07
3.99736e-07
3.60579e-07
3.25646e-07
2.94448e-07
2.66554e-07
2.41586e-07
2.19211e-07
1.99136e-07
1.81104e-07
1.64887e-07
1.50286e-07
1.37123e-07
1.18785e-06
1.05907e-06
9.45269e-07
8.44635e-07
7.55567e-07
6.76665e-07
6.06707e-07
5.44619e-07
4.89464e-07
4.40418e-07
3.9676e-07
3.57858e-07
3.23155e-07
2.92166e-07
2.64461e-07
2.39664e-07
2.17445e-07
1.97513e-07
1.79611e-07
1.63512e-07
1.4902e-07
1.35955e-07
1.18202e-06
1.0538e-06
9.40506e-07
8.40322e-07
7.51656e-07
6.73116e-07
6.03482e-07
5.41686e-07
4.86793e-07
4.37984e-07
3.94539e-07
3.55829e-07
3.213e-07
2.90467e-07
2.62904e-07
2.38237e-07
2.16134e-07
1.96309e-07
1.78502e-07
1.62493e-07
1.4808e-07
1.3509e-07
1.17744e-06
1.04969e-06
9.36812e-07
8.36997e-07
7.48659e-07
6.70411e-07
6.01038e-07
5.39476e-07
4.84792e-07
4.3617e-07
3.92894e-07
3.54334e-07
3.19941e-07
2.8923e-07
2.61778e-07
2.37208e-07
2.15196e-07
1.9545e-07
1.77717e-07
1.61773e-07
1.4742e-07
1.34486e-07
1.17472e-06
1.04724e-06
9.34608e-07
8.35007e-07
7.46861e-07
6.68782e-07
5.99561e-07
5.38134e-07
4.83572e-07
4.35061e-07
3.91884e-07
3.53415e-07
3.19104e-07
2.88467e-07
2.61081e-07
2.36572e-07
2.14614e-07
1.94916e-07
1.77228e-07
1.61322e-07
1.47006e-07
1.34102e-07
1.17446e-06
1.047e-06
9.34378e-07
8.34793e-07
7.4666e-07
6.68595e-07
5.99384e-07
5.37968e-07
4.83415e-07
4.34911e-07
3.91743e-07
3.53282e-07
3.1898e-07
2.88351e-07
2.60974e-07
2.36473e-07
2.14521e-07
1.9483e-07
1.77146e-07
1.61246e-07
1.46932e-07
1.34031e-07
1.17413e-06
1.04667e-06
9.3406e-07
8.34488e-07
7.46371e-07
6.68323e-07
5.99132e-07
5.37733e-07
4.83199e-07
4.34712e-07
3.91559e-07
3.53113e-07
3.18823e-07
2.88207e-07
2.6084e-07
2.36349e-07
2.14406e-07
1.94724e-07
1.77048e-07
1.61155e-07
1.46849e-07
1.33956e-07
1.17442e-06
1.04694e-06
9.34315e-07
8.34726e-07
7.46594e-07
6.68532e-07
5.99328e-07
5.37918e-07
4.83373e-07
4.34876e-07
3.91714e-07
3.53258e-07
3.18959e-07
2.88334e-07
2.60958e-07
2.36459e-07
2.14509e-07
1.94819e-07
1.77138e-07
1.61239e-07
1.46929e-07
1.3403e-07
1.17717e-06
1.04941e-06
9.36543e-07
8.36739e-07
7.48414e-07
6.70181e-07
6.00822e-07
5.39275e-07
4.84605e-07
4.35997e-07
3.92734e-07
3.54187e-07
3.19805e-07
2.89105e-07
2.61662e-07
2.37102e-07
2.15098e-07
1.9536e-07
1.77634e-07
1.61696e-07
1.47348e-07
1.34417e-07
1.18177e-06
1.05354e-06
9.40257e-07
8.40082e-07
7.51428e-07
6.729e-07
6.03279e-07
5.41496e-07
4.86616e-07
4.37819e-07
3.94386e-07
3.55686e-07
3.21168e-07
2.90345e-07
2.62791e-07
2.38132e-07
2.16039e-07
1.96221e-07
1.78421e-07
1.62419e-07
1.48011e-07
1.35028e-07
1.18761e-06
1.05883e-06
9.45035e-07
8.4441e-07
7.55352e-07
6.76461e-07
6.06515e-07
5.44439e-07
4.89296e-07
4.40261e-07
3.96614e-07
3.57722e-07
3.23029e-07
2.92049e-07
2.64352e-07
2.39565e-07
2.17353e-07
1.97428e-07
1.79532e-07
1.6344e-07
1.48954e-07
1.35895e-07
1.19535e-06
1.06583e-06
9.51377e-07
8.50159e-07
7.6057e-07
6.81203e-07
6.10828e-07
5.48367e-07
4.92877e-07
4.4353e-07
3.99601e-07
3.60454e-07
3.25531e-07
2.94342e-07
2.66457e-07
2.41495e-07
2.19129e-07
1.99059e-07
1.81035e-07
1.64823e-07
1.50228e-07
1.3707e-07
1.20499e-06
1.07457e-06
9.59308e-07
8.57368e-07
7.67129e-07
6.87177e-07
6.16276e-07
5.5334e-07
4.97422e-07
4.47688e-07
4.03408e-07
3.63944e-07
3.28733e-07
2.97282e-07
2.69158e-07
2.43982e-07
2.21415e-07
2.01168e-07
1.82975e-07
1.66615e-07
1.51878e-07
1.38595e-07
1.21661e-06
1.08513e-06
9.68926e-07
8.66131e-07
7.75123e-07
6.94477e-07
6.22948e-07
5.59446e-07
5.03014e-07
4.52814e-07
4.08112e-07
3.68264e-07
3.32704e-07
3.00935e-07
2.72521e-07
2.47079e-07
2.24272e-07
2.03801e-07
1.85408e-07
1.68859e-07
1.53955e-07
1.40513e-07
1.23028e-06
1.0976e-06
9.803e-07
8.76523e-07
7.84626e-07
7.03176e-07
6.30919e-07
5.66756e-07
5.09724e-07
4.58979e-07
4.13781e-07
3.7348e-07
3.37508e-07
3.05362e-07
2.76604e-07
2.50846e-07
2.2775e-07
2.07015e-07
1.88379e-07
1.71607e-07
1.56497e-07
1.42868e-07
1.24602e-06
1.11199e-06
9.93472e-07
8.88589e-07
7.95689e-07
7.13328e-07
6.40244e-07
5.75328e-07
5.1761e-07
4.66239e-07
4.2047e-07
3.79648e-07
3.43197e-07
3.10615e-07
2.81456e-07
2.55332e-07
2.31898e-07
2.10854e-07
1.91932e-07
1.74899e-07
1.59547e-07
1.45695e-07
1.26367e-06
1.12818e-06
1.00834e-06
9.02255e-07
8.08258e-07
7.24898e-07
6.50902e-07
5.85152e-07
5.26673e-07
4.74604e-07
4.28196e-07
3.86788e-07
3.498e-07
3.16723e-07
2.8711e-07
2.60567e-07
2.3675e-07
2.1535e-07
1.96102e-07
1.78767e-07
1.63138e-07
1.49028e-07
1.2837e-06
1.14659e-06
1.02527e-06
9.17835e-07
8.22609e-07
7.38127e-07
6.63103e-07
5.96414e-07
5.37073e-07
4.84215e-07
4.37082e-07
3.95008e-07
3.57408e-07
3.23769e-07
2.93637e-07
2.66617e-07
2.42358e-07
2.20554e-07
2.0093e-07
1.8325e-07
1.673e-07
1.52894e-07
1.30537e-06
1.16658e-06
1.04373e-06
9.34891e-07
8.38377e-07
7.52711e-07
6.766e-07
6.0891e-07
5.48648e-07
4.94942e-07
4.47027e-07
4.04232e-07
3.65966e-07
3.31711e-07
3.01011e-07
2.73466e-07
2.48721e-07
2.26466e-07
2.06426e-07
1.88359e-07
1.72052e-07
1.57314e-07
1.32878e-06
1.18826e-06
1.06381e-06
9.53504e-07
8.55633e-07
7.68716e-07
6.91451e-07
6.22694e-07
5.61447e-07
5.06829e-07
4.58071e-07
4.14494e-07
3.75505e-07
3.40581e-07
3.0926e-07
2.81139e-07
2.5586e-07
2.33109e-07
2.12608e-07
1.94114e-07
1.77409e-07
1.62303e-07
1.35375e-06
1.21146e-06
1.08538e-06
9.73557e-07
8.74283e-07
7.86065e-07
7.07591e-07
6.37714e-07
5.75426e-07
5.19843e-07
4.70187e-07
4.25777e-07
3.86013e-07
3.50368e-07
3.18377e-07
2.89633e-07
2.63774e-07
2.40483e-07
2.19481e-07
2.00519e-07
1.83379e-07
1.67868e-07
1.35375e-06
1.21147e-06
1.08539e-06
9.73562e-07
8.74288e-07
7.86069e-07
7.07596e-07
6.37719e-07
5.7543e-07
5.19847e-07
4.70191e-07
4.2578e-07
3.86016e-07
3.50371e-07
3.1838e-07
2.89635e-07
2.63776e-07
2.40486e-07
2.19483e-07
2.00521e-07
1.83381e-07
1.6787e-07
1.3288e-06
1.18828e-06
1.06383e-06
9.5352e-07
8.55649e-07
7.68731e-07
6.91465e-07
6.22708e-07
5.61459e-07
5.06841e-07
4.58081e-07
4.14505e-07
3.75515e-07
3.4059e-07
3.09268e-07
2.81147e-07
2.55867e-07
2.33115e-07
2.12614e-07
1.9412e-07
1.77414e-07
1.62308e-07
1.30539e-06
1.16661e-06
1.04376e-06
9.34919e-07
8.38404e-07
7.52736e-07
6.76624e-07
6.08933e-07
5.48669e-07
4.94962e-07
4.47046e-07
4.04249e-07
3.65982e-07
3.31726e-07
3.01025e-07
2.73478e-07
2.48733e-07
2.26476e-07
2.06436e-07
1.88367e-07
1.72059e-07
1.57321e-07
1.28374e-06
1.14663e-06
1.02531e-06
9.17876e-07
8.22648e-07
7.38164e-07
6.63138e-07
5.96447e-07
5.37103e-07
4.84244e-07
4.37108e-07
3.95032e-07
3.5743e-07
3.23789e-07
2.93655e-07
2.66634e-07
2.42373e-07
2.20567e-07
2.00942e-07
1.83261e-07
1.67309e-07
1.52903e-07
1.26373e-06
1.12824e-06
1.0084e-06
9.02308e-07
8.0831e-07
7.24947e-07
6.50948e-07
5.85195e-07
5.26712e-07
4.74641e-07
4.2823e-07
3.86818e-07
3.49828e-07
3.16747e-07
2.87133e-07
2.60587e-07
2.36768e-07
2.15366e-07
1.96117e-07
1.7878e-07
1.6315e-07
1.49038e-07
1.24609e-06
1.11206e-06
9.93539e-07
8.88653e-07
7.95751e-07
7.13388e-07
6.403e-07
5.7538e-07
5.17658e-07
4.66284e-07
4.2051e-07
3.79685e-07
3.43231e-07
3.10645e-07
2.81483e-07
2.55357e-07
2.31919e-07
2.10874e-07
1.91949e-07
1.74916e-07
1.59562e-07
1.4571e-07
1.23036e-06
1.09767e-06
9.80376e-07
8.76597e-07
7.84697e-07
7.03244e-07
6.30984e-07
5.66817e-07
5.0978e-07
4.59031e-07
4.13828e-07
3.73524e-07
3.37547e-07
3.05397e-07
2.76636e-07
2.50875e-07
2.27777e-07
2.07038e-07
1.88401e-07
1.71627e-07
1.56516e-07
1.42885e-07
1.21669e-06
1.08522e-06
9.6901e-07
8.66213e-07
7.75202e-07
6.94553e-07
6.2302e-07
5.59514e-07
5.03077e-07
4.52873e-07
4.08167e-07
3.68314e-07
3.3275e-07
3.00976e-07
2.72559e-07
2.47113e-07
2.24303e-07
2.03829e-07
1.85434e-07
1.68883e-07
1.53977e-07
1.40533e-07
1.20508e-06
1.07466e-06
9.59398e-07
8.57456e-07
7.67214e-07
6.87259e-07
6.16354e-07
5.53415e-07
4.97491e-07
4.47753e-07
4.03469e-07
3.64001e-07
3.28785e-07
2.97331e-07
2.69202e-07
2.44023e-07
2.21451e-07
2.01202e-07
1.83005e-07
1.66643e-07
1.51904e-07
1.38619e-07
1.19545e-06
1.06593e-06
9.51473e-07
8.50253e-07
7.60661e-07
6.81291e-07
6.10912e-07
5.48447e-07
4.92953e-07
4.43601e-07
3.99669e-07
3.60517e-07
3.25592e-07
2.94397e-07
2.6651e-07
2.41542e-07
2.19174e-07
1.99099e-07
1.81073e-07
1.64856e-07
1.50258e-07
1.37096e-07
1.18771e-06
1.05893e-06
9.4514e-07
8.44512e-07
7.5545e-07
6.76556e-07
6.06605e-07
5.44525e-07
4.89377e-07
4.40338e-07
3.96687e-07
3.57792e-07
3.23094e-07
2.92112e-07
2.6441e-07
2.3962e-07
2.17403e-07
1.97475e-07
1.79575e-07
1.63479e-07
1.48989e-07
1.35925e-07
1.18188e-06
1.05366e-06
9.40373e-07
8.40195e-07
7.51537e-07
6.73004e-07
6.03377e-07
5.41588e-07
4.86703e-07
4.379e-07
3.94462e-07
3.55758e-07
3.21236e-07
2.90409e-07
2.62852e-07
2.38189e-07
2.16091e-07
1.96269e-07
1.78465e-07
1.6246e-07
1.48047e-07
1.35061e-07
1.17729e-06
1.04954e-06
9.36668e-07
8.36861e-07
7.48533e-07
6.70294e-07
6.0093e-07
5.39375e-07
4.84699e-07
4.36084e-07
3.92815e-07
3.54261e-07
3.19875e-07
2.89169e-07
2.61723e-07
2.37157e-07
2.15151e-07
1.95407e-07
1.77679e-07
1.61737e-07
1.47386e-07
1.34453e-07
1.17455e-06
1.04707e-06
9.34444e-07
8.34854e-07
7.46718e-07
6.68652e-07
5.99442e-07
5.38026e-07
4.83474e-07
4.3497e-07
3.918e-07
3.53338e-07
3.19031e-07
2.88401e-07
2.61018e-07
2.36515e-07
2.14559e-07
1.94868e-07
1.77182e-07
1.61281e-07
1.46969e-07
1.34067e-07
1.17426e-06
1.0468e-06
9.34191e-07
8.34617e-07
7.46496e-07
6.68444e-07
5.99247e-07
5.37844e-07
4.83303e-07
4.3481e-07
3.91651e-07
3.53197e-07
3.18901e-07
2.88277e-07
2.60905e-07
2.36407e-07
2.1446e-07
1.94774e-07
1.77094e-07
1.61201e-07
1.4689e-07
1.33996e-07
1.17088e-06
1.17103e-06
1.17358e-06
1.17783e-06
1.18306e-06
1.18986e-06
1.1982e-06
1.2081e-06
1.21947e-06
1.23221e-06
1.24615e-06
1.26174e-06
1.27816e-06
1.29545e-06
1.3134e-06
1.24178e-06
1.21865e-06
1.19666e-06
1.17596e-06
1.15665e-06
1.13854e-06
1.12249e-06
1.10785e-06
1.09485e-06
1.08349e-06
1.07374e-06
1.06557e-06
1.0589e-06
1.05373e-06
1.04952e-06
1.03785e-06
1.03798e-06
1.04025e-06
1.04401e-06
1.04868e-06
1.05477e-06
1.06227e-06
1.07123e-06
1.08157e-06
1.09321e-06
1.10602e-06
1.1204e-06
1.13567e-06
1.15186e-06
1.1688e-06
1.1077e-06
1.08655e-06
1.0665e-06
1.04767e-06
1.03015e-06
1.01377e-06
9.99248e-07
9.86049e-07
9.74348e-07
9.64134e-07
9.55388e-07
9.48065e-07
9.42092e-07
9.37463e-07
9.33705e-07
9.20819e-07
9.20935e-07
9.22949e-07
9.26288e-07
9.30459e-07
9.35918e-07
9.42678e-07
9.50793e-07
9.60206e-07
9.70851e-07
9.82629e-07
9.95916e-07
1.01012e-06
1.02527e-06
1.04124e-06
9.89227e-07
9.69881e-07
9.51574e-07
9.34421e-07
9.18499e-07
9.03664e-07
8.90515e-07
8.78594e-07
8.68047e-07
8.58855e-07
8.50998e-07
8.44426e-07
8.39071e-07
8.34922e-07
8.31571e-07
8.17788e-07
8.17892e-07
8.19685e-07
8.22655e-07
8.26393e-07
8.31292e-07
8.37382e-07
8.44738e-07
8.53326e-07
8.63079e-07
8.73916e-07
8.86186e-07
8.99409e-07
9.1359e-07
9.28631e-07
8.84464e-07
8.6674e-07
8.50011e-07
8.34367e-07
8.19879e-07
8.06423e-07
7.94502e-07
7.83719e-07
7.74199e-07
7.65917e-07
7.58848e-07
7.52944e-07
7.48139e-07
7.44415e-07
7.41419e-07
7.27023e-07
7.27117e-07
7.28715e-07
7.31362e-07
7.34717e-07
7.39123e-07
7.44614e-07
7.51283e-07
7.59127e-07
7.68077e-07
7.78059e-07
7.89393e-07
8.01701e-07
8.14977e-07
8.29133e-07
7.91733e-07
7.75477e-07
7.60172e-07
7.45891e-07
7.3269e-07
7.20468e-07
7.09646e-07
6.99881e-07
6.91277e-07
6.83806e-07
6.77437e-07
6.72126e-07
6.67808e-07
6.64462e-07
6.6178e-07
6.47005e-07
6.47091e-07
6.48518e-07
6.50879e-07
6.53897e-07
6.57867e-07
6.62825e-07
6.68873e-07
6.7604e-07
6.84267e-07
6.93474e-07
7.03945e-07
7.15398e-07
7.27827e-07
7.41141e-07
7.09573e-07
6.94649e-07
6.80631e-07
6.6758e-07
6.55539e-07
6.44423e-07
6.34586e-07
6.25732e-07
6.17946e-07
6.11196e-07
6.05451e-07
6.00667e-07
5.96782e-07
5.93771e-07
5.91368e-07
5.76409e-07
5.76488e-07
5.77764e-07
5.79873e-07
5.82592e-07
5.86177e-07
5.90663e-07
5.9615e-07
6.02697e-07
6.10268e-07
6.18772e-07
6.28452e-07
6.39105e-07
6.50739e-07
6.63259e-07
6.3671e-07
6.22994e-07
6.1014e-07
5.98199e-07
5.87205e-07
5.77082e-07
5.68129e-07
5.60092e-07
5.53036e-07
5.46931e-07
5.41741e-07
5.37426e-07
5.33929e-07
5.31215e-07
5.29059e-07
5.14077e-07
5.1415e-07
5.15292e-07
5.17179e-07
5.19632e-07
5.22875e-07
5.26942e-07
5.31926e-07
5.37906e-07
5.44875e-07
5.52743e-07
5.617e-07
5.71604e-07
5.82489e-07
5.9426e-07
5.72027e-07
5.59407e-07
5.47609e-07
5.36672e-07
5.26623e-07
5.17393e-07
5.09235e-07
5.01931e-07
4.95528e-07
4.89998e-07
4.85306e-07
4.81408e-07
4.78254e-07
4.75806e-07
4.73869e-07
4.58996e-07
4.59065e-07
4.60089e-07
4.61779e-07
4.63995e-07
4.66933e-07
4.70628e-07
4.75162e-07
4.80624e-07
4.87038e-07
4.94324e-07
5.02623e-07
5.11829e-07
5.22006e-07
5.33067e-07
5.14547e-07
5.02923e-07
4.92081e-07
4.82054e-07
4.7286e-07
4.64436e-07
4.56992e-07
4.50345e-07
4.44528e-07
4.39515e-07
4.35266e-07
4.31742e-07
4.28892e-07
4.26681e-07
4.24939e-07
4.10282e-07
4.10347e-07
4.11267e-07
4.12782e-07
4.14786e-07
4.17452e-07
4.20816e-07
4.24949e-07
4.29939e-07
4.35839e-07
4.42591e-07
4.5029e-07
4.5885e-07
4.68356e-07
4.78748e-07
4.63412e-07
4.52698e-07
4.42722e-07
4.33519e-07
4.25098e-07
4.17402e-07
4.10602e-07
4.04546e-07
3.99256e-07
3.94704e-07
3.90852e-07
3.87661e-07
3.85085e-07
3.83085e-07
3.81516e-07
3.67161e-07
3.67223e-07
3.6805e-07
3.6941e-07
3.71224e-07
3.73646e-07
3.76714e-07
3.8049e-07
3.85053e-07
3.90476e-07
3.96733e-07
4.03885e-07
4.11851e-07
4.20722e-07
4.30475e-07
4.1787e-07
4.07989e-07
3.98802e-07
3.90345e-07
3.82623e-07
3.75587e-07
3.69368e-07
3.63844e-07
3.59027e-07
3.54889e-07
3.51393e-07
3.48501e-07
3.46167e-07
3.44357e-07
3.42942e-07
3.28958e-07
3.29015e-07
3.29761e-07
3.30983e-07
3.32626e-07
3.34829e-07
3.3763e-07
3.41086e-07
3.45267e-07
3.5025e-07
3.56042e-07
3.62692e-07
3.70113e-07
3.7839e-07
3.87532e-07
3.77262e-07
3.68145e-07
3.59678e-07
3.51898e-07
3.44811e-07
3.3837e-07
3.32679e-07
3.27633e-07
3.23242e-07
3.19475e-07
3.16298e-07
3.13674e-07
3.11559e-07
3.09917e-07
3.08639e-07
2.95079e-07
2.95132e-07
2.95804e-07
2.96905e-07
2.98395e-07
3.004e-07
3.0296e-07
3.06129e-07
3.09968e-07
3.14548e-07
3.19904e-07
3.26087e-07
3.33008e-07
3.40732e-07
3.49293e-07
3.41011e-07
3.32596e-07
3.24789e-07
3.17625e-07
3.11113e-07
3.0521e-07
2.99997e-07
2.95384e-07
2.91375e-07
2.87943e-07
2.85053e-07
2.82668e-07
2.80748e-07
2.79259e-07
2.78103e-07
2.65006e-07
2.65055e-07
2.65662e-07
2.66654e-07
2.68008e-07
2.69833e-07
2.72176e-07
2.75085e-07
2.78615e-07
2.82831e-07
2.87779e-07
2.93524e-07
2.99983e-07
3.07198e-07
3.15206e-07
3.08612e-07
3.0084e-07
2.93639e-07
2.87038e-07
2.81048e-07
2.75633e-07
2.70853e-07
2.6663e-07
2.62967e-07
2.59835e-07
2.57203e-07
2.55034e-07
2.53291e-07
2.51937e-07
2.50891e-07
2.38285e-07
2.3833e-07
2.38878e-07
2.39774e-07
2.41005e-07
2.42669e-07
2.44813e-07
2.47486e-07
2.50738e-07
2.54625e-07
2.59196e-07
2.64526e-07
2.70556e-07
2.773e-07
2.84792e-07
2.79623e-07
2.72439e-07
2.65794e-07
2.5971e-07
2.54195e-07
2.49222e-07
2.44833e-07
2.40965e-07
2.37614e-07
2.34753e-07
2.32353e-07
2.30379e-07
2.28792e-07
2.27562e-07
2.26613e-07
2.14518e-07
2.14559e-07
2.15054e-07
2.15863e-07
2.16985e-07
2.18504e-07
2.20466e-07
2.22924e-07
2.25923e-07
2.29513e-07
2.33739e-07
2.3868e-07
2.44304e-07
2.50613e-07
2.57623e-07
2.53657e-07
2.47008e-07
2.40874e-07
2.35265e-07