/*--------------------------------*- C++ -*----------------------------------*\
| =========                 |                                                 |
| \\      /  F ield         | OpenFOAM Extend Project: Open source CFD        |
|  \\    /   O peration     | Version:  1.6-ext                               |
|   \\  /    A nd           | Web:      www.extend-project.de                 |
|    \\/     M anipulation  |                                                 |
\*---------------------------------------------------------------------------*/
FoamFile
{
    version     2.0;
    format      ascii;
    class       surfaceScalarField;
    location    "2.3";
    object      phi;
}
// * * * * * * * * * * * * * * * * * * * * * * * * * * * * * * * * * * * * * //

dimensions      [0 3 -1 0 0 0 0];

internalField   nonuniform List<scalar> 
123
(
0.000202681
1.05839e-05
0.000210575
3.22206e-05
0.000222927
5.89359e-05
0.000238746
9.31428e-05
0.000257497
0.000134766
0.000280998
0.000182175
0.000316993
0.000237165
0.0003816
0.000290237
0.000355087
0.000405687
0.000203918
6.66571e-06
0.000214744
2.13943e-05
0.000231471
4.22093e-05
0.000253759
7.08547e-05
0.000282487
0.000106038
0.000320565
0.000144097
0.00037187
0.000185859
0.000451425
0.000210682
0.000274182
0.000532329
0.000205942
7.23537e-07
0.000220049
7.28751e-06
0.000240016
2.22427e-05
0.000265483
4.53874e-05
0.000297397
7.41245e-05
0.000337826
0.000103668
0.000388551
0.000135134
0.00045327
0.000145963
0.000182089
0.000545364
0.000209285
-8.56102e-06
0.000226819
-1.02474e-05
0.000247945
1.11726e-06
0.000273024
2.03078e-05
0.000303462
4.36873e-05
0.00034097
6.61593e-05
0.000387666
8.84387e-05
0.000439476
9.41527e-05
0.00010844
0.000513124
0.00021432
-2.28811e-05
0.000231492
-2.74192e-05
0.000248529
-1.59198e-05
0.000268127
7.10158e-07
0.000292922
1.88915e-05
0.000324561
3.45212e-05
0.000364803
4.81961e-05
0.000407369
5.15868e-05
5.50798e-05
0.00046073
0.000211446
-3.43269e-05
0.000215825
-3.17985e-05
0.000218741
-1.88356e-05
0.000225899
-6.44799e-06
0.000240941
3.84976e-06
0.000264203
1.12594e-05
0.000295606
1.67926e-05
0.000329322
1.78711e-05
1.7802e-05
0.0003666
0.000165673
0.000133875
0.000115039
0.000108591
0.000112441
0.0001237
0.000140493
0.000158364
0.000176166
0.000149195
0.000167175
0.000131391
8.40782e-05
4.18941e-05
1.21766e-05
)
;

boundaryField
{
    inlet
    {
        type            calculated;
        value           nonuniform List<scalar> 7(-0.0002 -0.0002 -0.0002 -0.0002 -0.0002 -0.0002 -0.0002);
    }
    outlet
    {
        type            calculated;
        value           nonuniform 0();
    }
    fixedWalls
    {
        type            calculated;
        value           uniform 0;
    }
    frontAndBack
    {
        type            empty;
    }
    procBoundary2to3
    {
        type            processor;
        value           nonuniform List<scalar> 9(-1.32646e-05 -4.01148e-05 -7.12876e-05 -0.000108962 -0.000153518 -0.000205676 -0.000273159 -0.000354843 -0.000379174);
    }
    procBoundary2to1
    {
        type            processor;
        value           nonuniform List<scalar> 7(0.000256493 0.000514349 0.000581148 0.000560437 0.000502914 0.000396317 0.000188342);
    }
}


// ************************************************************************* //
