/*--------------------------------*- C++ -*----------------------------------*\
| =========                 |                                                 |
| \\      /  F ield         | OpenFOAM Extend Project: Open source CFD        |
|  \\    /   O peration     | Version:  1.6-ext                               |
|   \\  /    A nd           | Web:      www.extend-project.de                 |
|    \\/     M anipulation  |                                                 |
\*---------------------------------------------------------------------------*/
FoamFile
{
    version     2.0;
    format      ascii;
    class       surfaceScalarField;
    location    "4.9";
    object      phi;
}
// * * * * * * * * * * * * * * * * * * * * * * * * * * * * * * * * * * * * * //

dimensions      [0 3 -1 0 0 0 0];

internalField   nonuniform List<scalar> 
123
(
0.000202632
1.13276e-05
0.000210258
3.46006e-05
0.000222117
6.12315e-05
0.000237584
9.30697e-05
0.000256709
0.000131684
0.000281424
0.000177905
0.000318557
0.000234636
0.00038278
0.000291727
0.000360959
0.000402858
0.000203913
7.41498e-06
0.000214618
2.38956e-05
0.000230934
4.49156e-05
0.000252612
7.13914e-05
0.00028101
0.000103286
0.000319565
0.00013935
0.000372018
0.000182183
0.000453095
0.000210651
0.0002816
0.000532453
0.000205977
1.43844e-06
0.000220211
9.66095e-06
0.000240124
2.50026e-05
0.000265159
4.63563e-05
0.000296462
7.19837e-05
0.000336644
9.91682e-05
0.000387831
0.000130996
0.000454024
0.000144457
0.000188071
0.000547554
0.000209408
-7.96962e-06
0.000227317
-8.24811e-06
0.000248873
3.44717e-06
0.000273933
2.12963e-05
0.000303811
4.21051e-05
0.000340546
6.24339e-05
0.000386909
8.46332e-05
0.000439215
9.2151e-05
0.000112099
0.000515186
0.000214486
-2.24557e-05
0.000232308
-2.60697e-05
0.000250104
-1.43488e-05
0.000269995
1.40519e-06
0.00029425
1.78495e-05
0.000324662
3.20223e-05
0.000363765
4.55298e-05
0.000405809
5.01068e-05
5.71786e-05
0.00046073
0.000211666
-3.41218e-05
0.000216795
-3.11991e-05
0.000220599
-1.81519e-05
0.000228146
-6.14258e-06
0.000242529
3.46674e-06
0.000264256
1.02959e-05
0.000294021
1.57641e-05
0.000326751
1.73769e-05
1.88049e-05
0.000365125
0.000165878
0.000134679
0.000116527
0.000110385
0.000113851
0.000124147
0.000139911
0.000157288
0.000176093
0.000156903
0.000180892
0.000145323
9.49216e-05
4.90449e-05
1.5116e-05
)
;

boundaryField
{
    inlet
    {
        type            calculated;
        value           nonuniform List<scalar> 7(-0.0002 -0.0002 -0.0002 -0.0002 -0.0002 -0.0002 -0.0002);
    }
    outlet
    {
        type            calculated;
        value           nonuniform 0();
    }
    fixedWalls
    {
        type            calculated;
        value           uniform 0;
    }
    frontAndBack
    {
        type            empty;
    }
    procBoundary2to3
    {
        type            processor;
        value           nonuniform List<scalar> 9(-1.39598e-05 -4.22263e-05 -7.30902e-05 -0.000108538 -0.000150809 -0.00020262 -0.000271769 -0.000355951 -0.000381037);
    }
    procBoundary2to1
    {
        type            processor;
        value           nonuniform List<scalar> 7(0.000245955 0.000508463 0.000583124 0.000565588 0.000506607 0.000399054 0.000191209);
    }
}


// ************************************************************************* //
