/*--------------------------------*- C++ -*----------------------------------*\
| =========                 |                                                 |
| \\      /  F ield         | OpenFOAM Extend Project: Open source CFD        |
|  \\    /   O peration     | Version:  1.6-ext                               |
|   \\  /    A nd           | Web:      www.extend-project.de                 |
|    \\/     M anipulation  |                                                 |
\*---------------------------------------------------------------------------*/
FoamFile
{
    version     2.0;
    format      ascii;
    class       volScalarField;
    location    "0.7";
    object      p;
}
// * * * * * * * * * * * * * * * * * * * * * * * * * * * * * * * * * * * * * //

dimensions      [0 2 -2 0 0 0 0];

internalField   nonuniform List<scalar> 
72
(
-0.00826374
-0.00530973
-0.0022832
0.00052892
0.00251614
0.00350432
0.0035452
0.00280761
0.00141897
-0.0109638
-0.0078598
-0.0047789
-0.001687
0.000665934
0.0020236
0.00242997
0.00206792
0.00117636
-0.0146214
-0.0108551
-0.00706912
-0.0032198
-0.000291911
0.00144432
0.0020943
0.00189443
0.00116011
-0.0207772
-0.0156405
-0.0104651
-0.00517988
-0.00127424
0.00102181
0.00196077
0.00188297
0.00117676
-0.0277697
-0.0229494
-0.0153707
-0.00762881
-0.00221383
0.000826501
0.0020712
0.00204876
0.0012309
-0.0488079
-0.0349677
-0.0223615
-0.0106061
-0.00298067
0.000948773
0.00244501
0.00237132
0.00130246
-0.0649714
-0.0492702
-0.0305985
-0.0136949
-0.003398
0.00141559
0.00302229
0.00276858
0.00134236
-0.127877
-0.0719594
-0.0388273
-0.0155579
-0.00299873
0.00226701
0.00371242
0.00314447
0.00130703
)
;

boundaryField
{
    inlet
    {
        type            zeroGradient;
    }
    outlet
    {
        type            totalPressure;
        rho             none;
        psi             none;
        gamma           1;
        p0              uniform 0;
        value           uniform 0;
    }
    fixedWalls
    {
        type            zeroGradient;
    }
    frontAndBack
    {
        type            empty;
    }
    procBoundary0to1
    {
        type            processor;
        value           nonuniform List<scalar> 9(-0.104218 -0.067785 -0.0331645 -0.0109825 -0.000364833 0.00372682 0.00446813 0.00343591 0.001203);
    }
}


// ************************************************************************* //
