/*--------------------------------*- C++ -*----------------------------------*\
| =========                 |                                                 |
| \\      /  F ield         | OpenFOAM Extend Project: Open source CFD        |
|  \\    /   O peration     | Version:  1.6-ext                               |
|   \\  /    A nd           | Web:      www.extend-project.de                 |
|    \\/     M anipulation  |                                                 |
\*---------------------------------------------------------------------------*/
FoamFile
{
    version     2.0;
    format      ascii;
    class       surfaceScalarField;
    location    "0.7";
    object      phi;
}
// * * * * * * * * * * * * * * * * * * * * * * * * * * * * * * * * * * * * * //

dimensions      [0 3 -1 0 0 0 0];

internalField   nonuniform List<scalar> 
127
(
-6.19115e-07
6.19115e-07
5.85033e-06
-6.46944e-06
1.56871e-05
-9.83677e-06
2.60905e-05
-1.04034e-05
3.56956e-05
-9.60511e-06
4.38362e-05
-8.1406e-06
5.02326e-05
-6.39643e-06
5.48681e-05
-4.63547e-06
-3.34251e-06
3.36334e-06
-2.74422e-06
1.81351e-05
-2.12412e-05
3.77167e-05
-2.94184e-05
5.77738e-05
-3.04604e-05
7.60608e-05
-2.78921e-05
9.14904e-05
-2.35702e-05
0.0001036
-1.85056e-05
0.000112246
-1.32821e-05
-8.75674e-06
3.57999e-06
-6.32421e-06
2.14347e-05
-3.90959e-05
4.54101e-05
-5.33938e-05
6.98419e-05
-5.48923e-05
9.18218e-05
-4.98719e-05
0.000110103
-4.18516e-05
0.000124303
-3.27055e-05
0.000134388
-2.33674e-05
-1.49401e-05
9.0182e-07
-7.22603e-06
2.04806e-05
-5.86748e-05
4.85744e-05
-8.14875e-05
7.69908e-05
-8.33087e-05
0.000101768
-7.46495e-05
0.000121677
-6.17602e-05
0.000136723
-4.77516e-05
0.000147254
-3.38979e-05
-2.13025e-05
-3.25787e-06
-3.96816e-06
1.87001e-05
-8.06328e-05
5.3041e-05
-0.000115828
8.67707e-05
-0.000117038
0.000114605
-0.000102484
0.00013573
-8.28859e-05
0.00015098
-6.30009e-05
0.000161387
-4.43048e-05
-2.74544e-05
-7.17208e-06
3.20392e-06
2.31704e-05
-0.000110975
6.56361e-05
-0.000158294
0.000104618
-0.00015602
0.00013449
-0.000132355
0.000155532
-0.000103928
0.000169804
-7.7273e-05
0.000179217
-5.3718e-05
-3.28662e-05
2.1542e-05
-1.83381e-05
5.82679e-05
-0.000147701
0.000102272
-0.000202298
0.000139721
-0.000193469
0.000166123
-0.000158757
0.000183196
-0.000121001
0.000193956
-8.80335e-05
0.000200815
-6.05766e-05
-3.67064e-05
9.11017e-05
0.000148352
0.000183226
0.000203707
0.000214606
0.000220212
0.000223282
0.000225335
)
;

boundaryField
{
    inlet
    {
        type            calculated;
        value           nonuniform 0();
    }
    outlet
    {
        type            calculated;
        value           nonuniform List<scalar> 8(5.82106e-05 0.00011766 0.000140572 0.000153616 0.000167538 0.000184629 0.000204655 0.000226549);
    }
    fixedWalls
    {
        type            calculated;
        value           uniform 0;
    }
    frontAndBack
    {
        type            empty;
    }
    procBoundary0to1
    {
        type            processor;
        value           nonuniform List<scalar> 9(-0.00010944 -0.000204951 -0.000237172 -0.000213951 -0.000169655 -0.000126608 -9.11028e-05 -6.26301e-05 -3.79206e-05);
    }
}


// ************************************************************************* //
