/*--------------------------------*- C++ -*----------------------------------*\
| =========                 |                                                 |
| \\      /  F ield         | OpenFOAM Extend Project: Open source CFD        |
|  \\    /   O peration     | Version:  1.6-ext                               |
|   \\  /    A nd           | Web:      www.extend-project.de                 |
|    \\/     M anipulation  |                                                 |
\*---------------------------------------------------------------------------*/
FoamFile
{
    version     2.0;
    format      ascii;
    class       volVectorField;
    location    "0.7";
    object      U;
}
// * * * * * * * * * * * * * * * * * * * * * * * * * * * * * * * * * * * * * //

dimensions      [0 1 -1 0 0 0 0];

internalField   nonuniform List<vector> 
72
(
(-0.00185812 0.00125514 0)
(0.000875041 -0.00170826 0)
(0.010639 -0.00322523 0)
(0.0210689 -0.00354264 0)
(0.0311693 -0.00330217 0)
(0.0401006 -0.00279596 0)
(0.0473781 -0.00218694 0)
(0.0529279 -0.00160406 0)
(0.0573181 -0.00129588 0)
(-0.000638823 -0.000206172 0)
(0.00807839 -0.0119942 0)
(0.0277443 -0.0174487 0)
(0.048143 -0.0183076 0)
(0.0674862 -0.0168747 0)
(0.0844497 -0.0143106 0)
(0.098247 -0.0112552 0)
(0.108633 -0.00812009 0)
(0.116531 -0.00560545 0)
(-0.00113384 -0.00482719 0)
(0.00909748 -0.0295557 0)
(0.0332676 -0.0404462 0)
(0.0581815 -0.0417963 0)
(0.0815798 -0.0382245 0)
(0.101809 -0.0322717 0)
(0.118058 -0.0253263 0)
(0.130165 -0.0181469 0)
(0.139355 -0.0117585 0)
(-0.00359616 -0.00774398 0)
(0.00590995 -0.048054 0)
(0.0345134 -0.0661347 0)
(0.0636049 -0.06805 0)
(0.090374 -0.0616298 0)
(0.112754 -0.0515039 0)
(0.130162 -0.040114 0)
(0.142842 -0.0285903 0)
(0.152359 -0.0181208 0)
(-0.00710124 -0.00455494 0)
(0.0011448 -0.068273 0)
(0.0363484 -0.09675 0)
(0.0712193 -0.0987557 0)
(0.102052 -0.0878577 0)
(0.126442 -0.0721035 0)
(0.144419 -0.0553911 0)
(0.157033 -0.0391717 0)
(0.166279 -0.0244584 0)
(-0.0111498 -0.0054838 0)
(-0.000982289 -0.0943376 0)
(0.0460322 -0.1355 0)
(0.0871454 -0.135625 0)
(0.121254 -0.117225 0)
(0.146458 -0.0936515 0)
(0.163752 -0.0705237 0)
(0.17528 -0.0493445 0)
(0.183437 -0.0303989 0)
(0.0118458 0.0144219 0)
(0.0343906 -0.122836 0)
(0.0838092 -0.181751 0)
(0.12345 -0.177423 0)
(0.15439 -0.147792 0)
(0.175814 -0.114163 0)
(0.189376 -0.0838917 0)
(0.197901 -0.0579755 0)
(0.203653 -0.0352836 0)
(0.081385 -0.0620948 0)
(0.118196 -0.186644 0)
(0.170231 -0.231537 0)
(0.194791 -0.213519 0)
(0.209011 -0.170899 0)
(0.217257 -0.127945 0)
(0.221654 -0.0920541 0)
(0.224276 -0.0630702 0)
(0.225902 -0.0381124 0)
)
;

boundaryField
{
    inlet
    {
        type            fixedValue;
        value           nonuniform 0();
    }
    outlet
    {
        type            zeroGradient;
    }
    fixedWalls
    {
        type            fixedValue;
        value           uniform (0 0 0);
    }
    frontAndBack
    {
        type            empty;
    }
    procBoundary0to1
    {
        type            processor;
        value           nonuniform List<vector> 9((0.331015 -0.13962 0) (0.351307 -0.219674 0) (0.33163 -0.237816 0) (0.303732 -0.210586 0) (0.281851 -0.166383 0) (0.266819 -0.124187 0) (0.257271 -0.0895787 0) (0.251862 -0.0619271 0) (0.248253 -0.037687 0));
    }
}


// ************************************************************************* //
