/*--------------------------------*- C++ -*----------------------------------*\
| =========                 |                                                 |
| \\      /  F ield         | OpenFOAM Extend Project: Open source CFD        |
|  \\    /   O peration     | Version:  1.6-ext                               |
|   \\  /    A nd           | Web:      www.extend-project.de                 |
|    \\/     M anipulation  |                                                 |
\*---------------------------------------------------------------------------*/
FoamFile
{
    version     2.0;
    format      ascii;
    class       vectorField;
    location    "0.1";
    object      accumulatedFluidInterfaceDisplacement;
}
// * * * * * * * * * * * * * * * * * * * * * * * * * * * * * * * * * * * * * //


338
(
(1.91987e-06 5.95379e-07 -7.38914e-27)
(1.79903e-06 -1.88983e-07 -8.34119e-27)
(1.56243e-05 -4.49532e-06 1.77835e-28)
(1.54745e-05 -4.43094e-06 4.92501e-28)
(1.53067e-05 -4.29382e-06 -1.42443e-27)
(1.51248e-05 -4.15582e-06 7.65531e-28)
(1.49324e-05 -4.01971e-06 1.93702e-27)
(1.47307e-05 -3.88656e-06 -5.1206e-28)
(1.45209e-05 -3.7572e-06 6.23528e-28)
(1.43038e-05 -3.63196e-06 2.18991e-27)
(1.40802e-05 -3.51091e-06 -5.98009e-28)
(1.3851e-05 -3.39395e-06 -4.03638e-27)
(1.36166e-05 -3.2809e-06 1.10658e-27)
(1.33779e-05 -3.17156e-06 3.40569e-28)
(1.31353e-05 -3.0657e-06 4.15196e-27)
(1.28893e-05 -2.96314e-06 1.13169e-27)
(1.26405e-05 -2.86372e-06 -4.32824e-27)
(1.23893e-05 -2.7673e-06 -6.96693e-28)
(1.2136e-05 -2.67377e-06 2.00192e-28)
(1.1881e-05 -2.58305e-06 3.8094e-27)
(1.16246e-05 -2.49506e-06 -9.24513e-27)
(1.13672e-05 -2.40973e-06 -4.95791e-27)
(1.11088e-05 -2.32698e-06 5.35196e-27)
(1.08498e-05 -2.24674e-06 -6.53829e-27)
(1.05903e-05 -2.16893e-06 -1.1334e-29)
(1.03305e-05 -2.09344e-06 7.40258e-27)
(1.00707e-05 -2.02018e-06 4.47985e-27)
(9.81088e-06 -1.94902e-06 3.19258e-27)
(9.55135e-06 -1.87984e-06 -8.91611e-27)
(9.29223e-06 -1.81252e-06 7.63225e-27)
(9.03367e-06 -1.74692e-06 -1.03086e-26)
(8.77583e-06 -1.68291e-06 -1.22764e-26)
(8.51887e-06 -1.62037e-06 9.45522e-27)
(8.26295e-06 -1.55917e-06 1.04059e-27)
(8.00821e-06 -1.49921e-06 9.46027e-27)
(7.7548e-06 -1.44038e-06 -7.77461e-27)
(7.50288e-06 -1.38258e-06 9.86682e-27)
(7.25257e-06 -1.32574e-06 1.18302e-26)
(7.00401e-06 -1.26978e-06 -1.7323e-26)
(6.75734e-06 -1.21464e-06 1.27227e-26)
(6.51267e-06 -1.16027e-06 -1.641e-27)
(6.27011e-06 -1.10664e-06 -1.36264e-26)
(6.02977e-06 -1.05371e-06 -4.34315e-27)
(5.79174e-06 -1.00146e-06 -1.8595e-27)
(5.55613e-06 -9.49867e-07 2.6128e-26)
(5.323e-06 -8.98936e-07 -1.56442e-27)
(5.09243e-06 -8.48663e-07 -3.16999e-26)
(4.8645e-06 -7.99059e-07 2.92871e-27)
(4.63927e-06 -7.50143e-07 1.91897e-26)
(4.41678e-06 -7.01946e-07 -1.77016e-26)
(4.1971e-06 -6.54514e-07 9.22624e-27)
(3.98027e-06 -6.07908e-07 1.59213e-27)
(3.76633e-06 -5.62206e-07 9.91393e-27)
(3.55531e-06 -5.17503e-07 1.50949e-27)
(3.34724e-06 -4.73914e-07 -2.73731e-26)
(3.14214e-06 -4.31577e-07 9.13458e-27)
(2.94004e-06 -3.90649e-07 3.5156e-26)
(2.74096e-06 -3.51315e-07 2.08215e-26)
(2.54494e-06 -3.1379e-07 -4.18654e-26)
(2.35204e-06 -2.7834e-07 3.46765e-27)
(2.16234e-06 -2.45286e-07 1.53543e-26)
(1.97599e-06 -2.15058e-07 -8.75817e-27)
(1.58599e-05 -4.24436e-06 2.77897e-28)
(1.57518e-05 -4.40979e-06 -7.1995e-28)
(1.59916e-05 -3.92667e-06 -7.39337e-28)
(1.59581e-05 -4.0752e-06 -2.67493e-28)
(2.1118e-06 5.58779e-07 -3.55502e-26)
(2.31142e-06 5.17751e-07 -9.35652e-27)
(2.51252e-06 4.73952e-07 -1.6792e-26)
(2.7153e-06 4.27725e-07 -1.58359e-26)
(2.91994e-06 3.79358e-07 4.92962e-28)
(3.12658e-06 3.29093e-07 1.16382e-26)
(3.33534e-06 2.77144e-07 -5.80287e-27)
(3.5463e-06 2.23702e-07 4.86129e-27)
(3.75956e-06 1.68939e-07 1.92963e-26)
(3.97516e-06 1.1301e-07 6.45853e-27)
(4.19318e-06 5.60502e-08 1.62139e-27)
(4.41366e-06 -1.82011e-09 -5.14177e-27)
(4.63661e-06 -6.04997e-08 -6.61919e-27)
(4.86207e-06 -1.19903e-07 -9.21797e-28)
(5.09004e-06 -1.7996e-07 -4.2159e-28)
(5.32052e-06 -2.40614e-07 2.58238e-27)
(5.55349e-06 -3.0182e-07 -6.80675e-27)
(5.78893e-06 -3.63545e-07 -9.99971e-27)
(6.02679e-06 -4.25765e-07 -3.19231e-28)
(6.26704e-06 -4.88465e-07 6.57717e-27)
(6.50961e-06 -5.51638e-07 7.00349e-27)
(6.75446e-06 -6.15285e-07 -4.61033e-27)
(7.00151e-06 -6.79419e-07 8.58265e-27)
(7.25068e-06 -7.44059e-07 1.77373e-26)
(7.5019e-06 -8.09237e-07 -2.22335e-26)
(7.75508e-06 -8.74996e-07 -1.4037e-26)
(8.01013e-06 -9.4139e-07 -8.37182e-28)
(8.26695e-06 -1.00848e-06 -2.34724e-27)
(8.52543e-06 -1.07636e-06 1.2124e-26)
(8.78545e-06 -1.1451e-06 1.06438e-26)
(9.0469e-06 -1.2148e-06 -2.02286e-26)
(9.30963e-06 -1.28558e-06 -1.32084e-26)
(9.57351e-06 -1.35753e-06 1.94919e-26)
(9.83837e-06 -1.43077e-06 -1.08613e-27)
(1.01041e-05 -1.50542e-06 -1.79133e-27)
(1.03704e-05 -1.58158e-06 1.06097e-26)
(1.06372e-05 -1.65936e-06 1.80074e-28)
(1.09042e-05 -1.73885e-06 -4.39675e-27)
(1.11712e-05 -1.82012e-06 3.1266e-27)
(1.14381e-05 -1.90325e-06 -7.03296e-28)
(1.17044e-05 -1.98828e-06 1.36167e-27)
(1.19701e-05 -2.07526e-06 -2.92226e-27)
(1.22348e-05 -2.16419e-06 -8.51068e-27)
(1.24981e-05 -2.25509e-06 1.77339e-27)
(1.27599e-05 -2.34796e-06 -4.73789e-28)
(1.30197e-05 -2.4428e-06 4.60836e-27)
(1.32772e-05 -2.53963e-06 7.07169e-27)
(1.3532e-05 -2.63844e-06 -6.54608e-27)
(1.37835e-05 -2.73925e-06 -3.03595e-27)
(1.40311e-05 -2.84206e-06 4.73309e-27)
(1.42742e-05 -2.94688e-06 4.63257e-28)
(1.45119e-05 -3.05365e-06 -3.19113e-27)
(1.47431e-05 -3.16226e-06 4.19038e-27)
(1.49666e-05 -3.27243e-06 2.90876e-27)
(1.51808e-05 -3.3837e-06 -7.71655e-28)
(1.5384e-05 -3.49525e-06 5.02878e-28)
(1.55739e-05 -3.60588e-06 -1.22146e-27)
(1.57485e-05 -3.71334e-06 -9.25724e-28)
(1.59047e-05 -3.81495e-06 4.30464e-28)
(-2.90788e-07 1.75114e-07 1.675e-25)
(-2.33995e-07 2.32756e-07 -2.62137e-27)
(-1.26178e-07 3.3717e-07 -2.02421e-25)
(-3.07671e-08 4.19526e-07 -2.54377e-27)
(5.25295e-08 4.8312e-07 6.05777e-26)
(1.27354e-07 5.33162e-07 9.57635e-26)
(1.97744e-07 5.729e-07 1.42017e-25)
(2.66546e-07 6.04975e-07 -1.80069e-25)
(3.35945e-07 6.31132e-07 -1.342e-25)
(4.07522e-07 6.52591e-07 4.71766e-26)
(4.82502e-07 6.70117e-07 8.91994e-26)
(5.61856e-07 6.84162e-07 5.63156e-26)
(6.46396e-07 6.94932e-07 -5.74547e-26)
(7.36824e-07 7.02457e-07 -2.17199e-26)
(8.33768e-07 7.06645e-07 -1.02923e-26)
(9.37812e-07 7.07325e-07 -1.90114e-26)
(1.04952e-06 7.04289e-07 2.99785e-26)
(1.16947e-06 6.97316e-07 -2.83145e-26)
(1.29825e-06 6.86189e-07 -2.63704e-27)
(1.43654e-06 6.70703e-07 5.78742e-26)
(1.58509e-06 6.50652e-07 3.44049e-26)
(1.74476e-06 6.25824e-07 5.89149e-26)
(-1.40174e-07 -1.12572e-07 1.21691e-25)
(1.6399e-06 -1.68402e-07 -7.70859e-27)
(1.49714e-06 -1.53003e-07 -1.53204e-26)
(1.36661e-06 -1.42165e-07 2.66862e-26)
(1.24727e-06 -1.3569e-07 1.95206e-26)
(1.1381e-06 -1.33353e-07 -2.25215e-26)
(1.03812e-06 -1.34892e-07 -2.36311e-27)
(9.46352e-07 -1.39997e-07 1.17212e-26)
(8.61804e-07 -1.48304e-07 3.14871e-26)
(7.83497e-07 -1.59377e-07 -3.52891e-26)
(7.10442e-07 -1.72695e-07 2.40376e-27)
(6.41644e-07 -1.87631e-07 5.69862e-26)
(5.76094e-07 -2.03424e-07 -9.42698e-26)
(5.1275e-07 -2.19158e-07 -5.91096e-26)
(4.50518e-07 -2.33722e-07 1.52545e-25)
(3.88186e-07 -2.45777e-07 2.16118e-26)
(3.24371e-07 -2.53674e-07 -1.03698e-26)
(2.57337e-07 -2.55436e-07 -4.15016e-26)
(1.85001e-07 -2.48497e-07 -1.99957e-25)
(1.0452e-07 -2.29995e-07 -3.61991e-26)
(1.36079e-08 -1.95699e-07 1.03249e-25)
(-8.73821e-08 -1.43226e-07 1.16491e-25)
(1.91987e-06 5.95379e-07 -7.38914e-27)
(1.79903e-06 -1.88983e-07 -8.34119e-27)
(1.56243e-05 -4.49532e-06 1.77835e-28)
(1.54745e-05 -4.43094e-06 4.92501e-28)
(1.53067e-05 -4.29382e-06 -1.42443e-27)
(1.51248e-05 -4.15582e-06 7.65531e-28)
(1.49324e-05 -4.01971e-06 1.93702e-27)
(1.47307e-05 -3.88656e-06 -5.1206e-28)
(1.45209e-05 -3.7572e-06 6.23528e-28)
(1.43038e-05 -3.63196e-06 2.18991e-27)
(1.40802e-05 -3.51091e-06 -5.98009e-28)
(1.3851e-05 -3.39395e-06 -4.03638e-27)
(1.36166e-05 -3.2809e-06 1.10658e-27)
(1.33779e-05 -3.17156e-06 3.40569e-28)
(1.31353e-05 -3.0657e-06 4.15196e-27)
(1.28893e-05 -2.96314e-06 1.13169e-27)
(1.26405e-05 -2.86372e-06 -4.32824e-27)
(1.23893e-05 -2.7673e-06 -6.96693e-28)
(1.2136e-05 -2.67377e-06 2.00192e-28)
(1.1881e-05 -2.58305e-06 3.8094e-27)
(1.16246e-05 -2.49506e-06 -9.24513e-27)
(1.13672e-05 -2.40973e-06 -4.95791e-27)
(1.11088e-05 -2.32698e-06 5.35196e-27)
(1.08498e-05 -2.24674e-06 -6.53829e-27)
(1.05903e-05 -2.16893e-06 -1.1334e-29)
(1.03305e-05 -2.09344e-06 7.40258e-27)
(1.00707e-05 -2.02018e-06 4.47985e-27)
(9.81088e-06 -1.94902e-06 3.19258e-27)
(9.55135e-06 -1.87984e-06 -8.91611e-27)
(9.29223e-06 -1.81252e-06 7.63225e-27)
(9.03367e-06 -1.74692e-06 -1.03086e-26)
(8.77583e-06 -1.68291e-06 -1.22764e-26)
(8.51887e-06 -1.62037e-06 9.45522e-27)
(8.26295e-06 -1.55917e-06 1.04059e-27)
(8.00821e-06 -1.49921e-06 9.46027e-27)
(7.7548e-06 -1.44038e-06 -7.77461e-27)
(7.50288e-06 -1.38258e-06 9.86682e-27)
(7.25257e-06 -1.32574e-06 1.18302e-26)
(7.00401e-06 -1.26978e-06 -1.7323e-26)
(6.75734e-06 -1.21464e-06 1.27227e-26)
(6.51267e-06 -1.16027e-06 -1.641e-27)
(6.27011e-06 -1.10664e-06 -1.36264e-26)
(6.02977e-06 -1.05371e-06 -4.34315e-27)
(5.79174e-06 -1.00146e-06 -1.8595e-27)
(5.55613e-06 -9.49867e-07 2.6128e-26)
(5.323e-06 -8.98936e-07 -1.56442e-27)
(5.09243e-06 -8.48663e-07 -3.16999e-26)
(4.8645e-06 -7.99059e-07 2.92871e-27)
(4.63927e-06 -7.50143e-07 1.91897e-26)
(4.41678e-06 -7.01946e-07 -1.77016e-26)
(4.1971e-06 -6.54514e-07 9.22624e-27)
(3.98027e-06 -6.07908e-07 1.59213e-27)
(3.76633e-06 -5.62206e-07 9.91393e-27)
(3.55531e-06 -5.17503e-07 1.50949e-27)
(3.34724e-06 -4.73914e-07 -2.73731e-26)
(3.14214e-06 -4.31577e-07 9.13458e-27)
(2.94004e-06 -3.90649e-07 3.5156e-26)
(2.74096e-06 -3.51315e-07 2.08215e-26)
(2.54494e-06 -3.1379e-07 -4.18654e-26)
(2.35204e-06 -2.7834e-07 3.46765e-27)
(2.16234e-06 -2.45286e-07 1.53543e-26)
(1.97599e-06 -2.15058e-07 -8.75817e-27)
(1.58599e-05 -4.24436e-06 2.77897e-28)
(1.57518e-05 -4.40979e-06 -7.1995e-28)
(1.59916e-05 -3.92667e-06 -7.39337e-28)
(1.59581e-05 -4.0752e-06 -2.67493e-28)
(2.1118e-06 5.58779e-07 -3.55502e-26)
(2.31142e-06 5.17751e-07 -9.35652e-27)
(2.51252e-06 4.73952e-07 -1.6792e-26)
(2.7153e-06 4.27725e-07 -1.58359e-26)
(2.91994e-06 3.79358e-07 4.92962e-28)
(3.12658e-06 3.29093e-07 1.16382e-26)
(3.33534e-06 2.77144e-07 -5.80287e-27)
(3.5463e-06 2.23702e-07 4.86129e-27)
(3.75956e-06 1.68939e-07 1.92963e-26)
(3.97516e-06 1.1301e-07 6.45853e-27)
(4.19318e-06 5.60502e-08 1.62139e-27)
(4.41366e-06 -1.82011e-09 -5.14177e-27)
(4.63661e-06 -6.04997e-08 -6.61919e-27)
(4.86207e-06 -1.19903e-07 -9.21797e-28)
(5.09004e-06 -1.7996e-07 -4.2159e-28)
(5.32052e-06 -2.40614e-07 2.58238e-27)
(5.55349e-06 -3.0182e-07 -6.80675e-27)
(5.78893e-06 -3.63545e-07 -9.99971e-27)
(6.02679e-06 -4.25765e-07 -3.19231e-28)
(6.26704e-06 -4.88465e-07 6.57717e-27)
(6.50961e-06 -5.51638e-07 7.00349e-27)
(6.75446e-06 -6.15285e-07 -4.61033e-27)
(7.00151e-06 -6.79419e-07 8.58265e-27)
(7.25068e-06 -7.44059e-07 1.77373e-26)
(7.5019e-06 -8.09237e-07 -2.22335e-26)
(7.75508e-06 -8.74996e-07 -1.4037e-26)
(8.01013e-06 -9.4139e-07 -8.37182e-28)
(8.26695e-06 -1.00848e-06 -2.34724e-27)
(8.52543e-06 -1.07636e-06 1.2124e-26)
(8.78545e-06 -1.1451e-06 1.06438e-26)
(9.0469e-06 -1.2148e-06 -2.02286e-26)
(9.30963e-06 -1.28558e-06 -1.32084e-26)
(9.57351e-06 -1.35753e-06 1.94919e-26)
(9.83837e-06 -1.43077e-06 -1.08613e-27)
(1.01041e-05 -1.50542e-06 -1.79133e-27)
(1.03704e-05 -1.58158e-06 1.06097e-26)
(1.06372e-05 -1.65936e-06 1.80074e-28)
(1.09042e-05 -1.73885e-06 -4.39675e-27)
(1.11712e-05 -1.82012e-06 3.1266e-27)
(1.14381e-05 -1.90325e-06 -7.03296e-28)
(1.17044e-05 -1.98828e-06 1.36167e-27)
(1.19701e-05 -2.07526e-06 -2.92226e-27)
(1.22348e-05 -2.16419e-06 -8.51068e-27)
(1.24981e-05 -2.25509e-06 1.77339e-27)
(1.27599e-05 -2.34796e-06 -4.73789e-28)
(1.30197e-05 -2.4428e-06 4.60836e-27)
(1.32772e-05 -2.53963e-06 7.07169e-27)
(1.3532e-05 -2.63844e-06 -6.54608e-27)
(1.37835e-05 -2.73925e-06 -3.03595e-27)
(1.40311e-05 -2.84206e-06 4.73309e-27)
(1.42742e-05 -2.94688e-06 4.63257e-28)
(1.45119e-05 -3.05365e-06 -3.19113e-27)
(1.47431e-05 -3.16226e-06 4.19038e-27)
(1.49666e-05 -3.27243e-06 2.90876e-27)
(1.51808e-05 -3.3837e-06 -7.71655e-28)
(1.5384e-05 -3.49525e-06 5.02878e-28)
(1.55739e-05 -3.60588e-06 -1.22146e-27)
(1.57485e-05 -3.71334e-06 -9.25724e-28)
(1.59047e-05 -3.81495e-06 4.30464e-28)
(-2.90788e-07 1.75114e-07 1.675e-25)
(-2.33995e-07 2.32756e-07 -2.62137e-27)
(-1.26178e-07 3.3717e-07 -2.02421e-25)
(-3.07671e-08 4.19526e-07 -2.54377e-27)
(5.25295e-08 4.8312e-07 6.05777e-26)
(1.27354e-07 5.33162e-07 9.57635e-26)
(1.97744e-07 5.729e-07 1.42017e-25)
(2.66546e-07 6.04975e-07 -1.80069e-25)
(3.35945e-07 6.31132e-07 -1.342e-25)
(4.07522e-07 6.52591e-07 4.71766e-26)
(4.82502e-07 6.70117e-07 8.91994e-26)
(5.61856e-07 6.84162e-07 5.63156e-26)
(6.46396e-07 6.94932e-07 -5.74547e-26)
(7.36824e-07 7.02457e-07 -2.17199e-26)
(8.33768e-07 7.06645e-07 -1.02923e-26)
(9.37812e-07 7.07325e-07 -1.90114e-26)
(1.04952e-06 7.04289e-07 2.99785e-26)
(1.16947e-06 6.97316e-07 -2.83145e-26)
(1.29825e-06 6.86189e-07 -2.63704e-27)
(1.43654e-06 6.70703e-07 5.78742e-26)
(1.58509e-06 6.50652e-07 3.44049e-26)
(1.74476e-06 6.25824e-07 5.89149e-26)
(-1.40174e-07 -1.12572e-07 1.21691e-25)
(1.6399e-06 -1.68402e-07 -7.70859e-27)
(1.49714e-06 -1.53003e-07 -1.53204e-26)
(1.36661e-06 -1.42165e-07 2.66862e-26)
(1.24727e-06 -1.3569e-07 1.95206e-26)
(1.1381e-06 -1.33353e-07 -2.25215e-26)
(1.03812e-06 -1.34892e-07 -2.36311e-27)
(9.46352e-07 -1.39997e-07 1.17212e-26)
(8.61804e-07 -1.48304e-07 3.14871e-26)
(7.83497e-07 -1.59377e-07 -3.52891e-26)
(7.10442e-07 -1.72695e-07 2.40376e-27)
(6.41644e-07 -1.87631e-07 5.69862e-26)
(5.76094e-07 -2.03424e-07 -9.42698e-26)
(5.1275e-07 -2.19158e-07 -5.91096e-26)
(4.50518e-07 -2.33722e-07 1.52545e-25)
(3.88186e-07 -2.45777e-07 2.16118e-26)
(3.24371e-07 -2.53674e-07 -1.03698e-26)
(2.57337e-07 -2.55436e-07 -4.15016e-26)
(1.85001e-07 -2.48497e-07 -1.99957e-25)
(1.0452e-07 -2.29995e-07 -3.61991e-26)
(1.36079e-08 -1.95699e-07 1.03249e-25)
(-8.73821e-08 -1.43226e-07 1.16491e-25)
)


// ************************************************************************* //
