/*--------------------------------*- C++ -*----------------------------------*\
| =========                 |                                                 |
| \\      /  F ield         | OpenFOAM Extend Project: Open source CFD        |
|  \\    /   O peration     | Version:  1.6-ext                               |
|   \\  /    A nd           | Web:      www.extend-project.de                 |
|    \\/     M anipulation  |                                                 |
\*---------------------------------------------------------------------------*/
FoamFile
{
    version     2.0;
    format      ascii;
    class       tetPointVectorField;
    location    "0.1";
    object      motionU;
}
// * * * * * * * * * * * * * * * * * * * * * * * * * * * * * * * * * * * * * //

dimensions      [0 1 -1 0 0 0 0];

internalField   nonuniform List<vector> 
147960
(
(0 0 0)
(0.000501032 0.000209559 0)
(0.00235932 0.00163984 -7.13241e-23)
(0.00188555 -0.00313121 1.83084e-23)
(0.0232173 -0.0123105 -7.81353e-25)
(0.0226784 -0.0123568 -2.60031e-24)
(0.0220388 -0.0122018 2.60128e-24)
(0.0214105 -0.0120527 3.57391e-24)
(0.0207966 -0.0119031 -2.69365e-24)
(0.0201986 -0.0117519 -8.55508e-24)
(0.0196163 -0.0115993 -8.10603e-24)
(0.0190492 -0.0114454 -3.13334e-25)
(0.0184968 -0.0112907 1.3137e-23)
(0.0179589 -0.0111354 1.75637e-23)
(0.0174348 -0.0109797 -4.68606e-24)
(0.0169242 -0.010824 -8.36375e-24)
(0.0164267 -0.0106685 6.75019e-24)
(0.0159418 -0.0105132 -1.7004e-23)
(0.0154692 -0.0103585 2.18558e-24)
(0.0150085 -0.0102042 -7.62102e-25)
(0.0145593 -0.0100505 1.69858e-23)
(0.0141212 -0.00989738 1.27575e-23)
(0.0136939 -0.00974481 -5.68842e-23)
(0.0132769 -0.00959273 -1.39652e-23)
(0.01287 -0.00944105 2.19088e-23)
(0.0124728 -0.00928966 4.8143e-23)
(0.0120849 -0.00913843 -5.86759e-24)
(0.0117061 -0.00898723 -2.23039e-23)
(0.011336 -0.0088359 8.77668e-24)
(0.0109743 -0.00868429 -2.66955e-23)
(0.0106206 -0.00853224 -4.25262e-23)
(0.0102748 -0.00837959 2.24374e-23)
(0.00993637 -0.00822618 5.21733e-23)
(0.00960517 -0.00807186 -8.83359e-23)
(0.00928087 -0.00791649 -4.84113e-24)
(0.00896321 -0.00775991 1.0025e-22)
(0.00865193 -0.00760202 -5.33625e-23)
(0.00834677 -0.0074427 9.45526e-24)
(0.0080475 -0.00728188 3.59173e-23)
(0.00775391 -0.00711949 -7.6545e-23)
(0.00746578 -0.00695551 2.16368e-23)
(0.00718293 -0.00678994 5.75881e-23)
(0.00690517 -0.00662281 -5.0575e-23)
(0.00663235 -0.00645421 -1.72199e-24)
(0.00636431 -0.00628425 6.47318e-23)
(0.00610092 -0.0061131 -4.22005e-23)
(0.00584207 -0.00594095 1.35485e-23)
(0.00558763 -0.00576806 4.62821e-23)
(0.00533752 -0.00559471 -6.25355e-23)
(0.00509164 -0.00542123 1.57773e-23)
(0.00484992 -0.00524798 8.60883e-23)
(0.00461228 -0.00507539 -1.06393e-22)
(0.00437867 -0.00490388 -5.26735e-23)
(0.00414904 -0.00473393 1.02232e-22)
(0.00392333 -0.00456604 -2.11435e-24)
(0.00370152 -0.00440074 6.07923e-23)
(0.00348357 -0.00423858 3.45102e-23)
(0.00326947 -0.00408014 -1.60708e-22)
(0.0030592 -0.00392601 -3.97806e-23)
(0.00285278 -0.00377681 8.28544e-23)
(0.0026502 -0.00363316 2.80922e-23)
(0.00245152 -0.00349573 1.69369e-23)
(0.00225679 -0.00336518 1.19736e-23)
(0.0020661 -0.00324225 -4.27792e-23)
(0.0237143 -0.0111107 4.88925e-25)
(0.0235283 -0.0118248 5.04756e-25)
(0.0238571 -0.00982278 -1.25776e-24)
(0.0238947 -0.0103975 1.88709e-25)
(0.00257126 0.00150964 1.47236e-23)
(0.00279226 0.00136764 1.36125e-22)
(0.00301503 0.00121858 -6.34186e-23)
(0.00323943 0.00106291 -1.76457e-22)
(0.00346541 0.00090113 7.89515e-23)
(0.00369293 0.000733792 4.56002e-23)
(0.003922 0.000561441 4.03173e-25)
(0.00415266 0.000384629 5.94542e-23)
(0.00438496 0.000203898 6.20498e-24)
(0.004619 1.97809e-05 5.6946e-24)
(0.00485488 -0.000167209 -3.86799e-23)
(0.00509275 -0.000356576 -3.60871e-23)
(0.00533274 -0.000547852 -3.98039e-23)
(0.00557504 -0.000740596 -2.78073e-23)
(0.00581982 -0.000934396 6.88323e-23)
(0.0060673 -0.00112888 4.22298e-23)
(0.00631769 -0.0013237 1.05351e-23)
(0.00657126 -0.00151857 -2.18816e-23)
(0.00682824 -0.00171323 -3.63112e-23)
(0.00708892 -0.00190745 5.80106e-23)
(0.00735357 -0.00210107 4.25584e-23)
(0.00762249 -0.00229396 -7.17712e-23)
(0.00789598 -0.00248602 -1.87683e-23)
(0.00817436 -0.0026772 -1.73681e-23)
(0.00845795 -0.00286748 8.09757e-25)
(0.00874705 -0.00305689 1.01838e-22)
(0.009042 -0.00324548 -9.59861e-24)
(0.00934311 -0.00343332 -4.76656e-23)
(0.00965072 -0.00362051 9.30002e-24)
(0.00996514 -0.00380717 -1.24092e-23)
(0.0102867 -0.00399344 -4.7831e-23)
(0.0106157 -0.00417946 2.78254e-23)
(0.0109525 -0.00436538 4.62472e-23)
(0.0112973 -0.00455137 -2.46825e-23)
(0.0116506 -0.00473759 -2.35032e-23)
(0.0120125 -0.00492421 -1.59451e-23)
(0.0123835 -0.00511137 1.63494e-23)
(0.0127637 -0.00529925 7.132e-26)
(0.0131535 -0.00548798 -1.90782e-23)
(0.0135532 -0.0056777 -1.00405e-23)
(0.013963 -0.00586855 3.65696e-23)
(0.0143833 -0.00606064 2.26338e-23)
(0.0148142 -0.00625404 -3.31457e-23)
(0.0152561 -0.00644884 -7.48194e-24)
(0.0157092 -0.00664506 1.42766e-24)
(0.0161737 -0.00684272 2.52796e-23)
(0.01665 -0.00704179 1.52627e-24)
(0.0171382 -0.00724223 -2.02577e-23)
(0.0176388 -0.00744393 -1.40155e-24)
(0.018152 -0.00764679 5.84546e-24)
(0.0186781 -0.00785067 7.8785e-25)
(0.0192176 -0.00805544 -1.09048e-24)
(0.0197709 -0.008261 -6.1227e-24)
(0.0203387 -0.00846727 1.76047e-24)
(0.0209216 -0.00867429 3.1679e-24)
(0.0215202 -0.00888226 -1.92471e-24)
(0.022135 -0.00909137 7.60662e-25)
(0.0227651 -0.00930104 1.35837e-24)
(0.0234073 -0.00950605 6.01958e-25)
(0.0193334 -0.00831264 0)
(0.0235359 -0.00968393 0)
(0.0233159 -0.00964601 0)
(0.023089 -0.00958875 0)
(0.022852 -0.00951975 0)
(0.0226033 -0.00944161 0)
(0.0223442 -0.00935629 0)
(0.0220707 -0.00926367 0)
(0.0217876 -0.00916601 0)
(0.0214849 -0.0090599 0)
(0.0211703 -0.00895022 0)
(0.0208437 -0.00883555 0)
(0.020489 -0.00871135 0)
(0.0201257 -0.0085873 0)
(0.0197488 -0.00845612 0)
(0.00140838 0.000912072 0)
(0.00157595 0.000889896 0)
(0.00175254 0.00085269 0)
(0.00193592 0.000800002 0)
(0.00212486 0.000731781 0)
(0.00231812 0.000648783 0)
(0.00251421 0.000552157 0)
(0.00271323 0.000443077 0)
(0.00291509 0.00032265 0)
(0.00311979 0.000192026 0)
(0.00332763 5.23774e-05 0)
(0.00353913 -9.51752e-05 0)
(0.00375483 -0.000249685 0)
(0.0039749 -0.000410433 0)
(0.00419891 -0.000576798 0)
(0.00442622 -0.000748127 0)
(0.00465639 -0.000923676 0)
(0.00488948 -0.00110268 0)
(0.00512619 -0.0012846 0)
(0.00536777 -0.0014689 0)
(0.00561509 -0.00165581 0)
(0.00586803 -0.00184494 0)
(0.00612685 -0.00203512 0)
(0.00639172 -0.00222614 0)
(0.00666304 -0.00241771 0)
(0.00694109 -0.00260951 0)
(0.00722609 -0.00280129 0)
(0.00751831 -0.00299287 0)
(0.00781806 -0.00318412 0)
(0.00812562 -0.00337496 0)
(0.00844113 -0.00356538 0)
(0.00876446 -0.00375535 0)
(0.00909525 -0.00394467 0)
(0.00943342 -0.00413307 0)
(0.00977955 -0.0043205 0)
(0.0101342 -0.00450687 0)
(0.0104977 -0.00469278 0)
(0.0108703 -0.00487831 0)
(0.0112514 -0.00506252 0)
(0.0116403 -0.00524533 0)
(0.0120367 -0.00542673 0)
(0.0124404 -0.00560668 0)
(0.0128509 -0.00578509 0)
(0.0132674 -0.00596187 0)
(0.0136886 -0.00613712 0)
(0.0141132 -0.00631106 0)
(0.0145394 -0.00648384 0)
(0.0149651 -0.00665515 0)
(0.0153877 -0.00682398 0)
(0.0158054 -0.0069891 0)
(0.0162166 -0.00714929 0)
(0.0166202 -0.00730413 0)
(0.0170144 -0.00745367 0)
(0.0173957 -0.00759729 0)
(0.0177596 -0.00773397 0)
(0.018101 -0.00786186 0)
(0.0184155 -0.0079792 0)
(0.0186987 -0.00808421 0)
(0.0189477 -0.00817552 0)
(0.0191595 -0.00825155 0)
(0.0187251 -0.0106434 0)
(0.0191465 -0.0108107 0)
(0.019531 -0.010962 0)
(0.019893 -0.0110976 0)
(0.0202479 -0.0112359 0)
(0.0205789 -0.0113667 0)
(0.0208881 -0.0114848 0)
(0.0211877 -0.0116014 0)
(0.0214698 -0.0117115 0)
(0.0217351 -0.0118121 0)
(0.02199 -0.0119097 0)
(0.0222312 -0.0120015 0)
(0.0224593 -0.012088 0)
(0.0226743 -0.0121734 0)
(0.0228771 -0.0122633 0)
(0.00101573 -0.00259278 0)
(0.0018668 -0.00312432 0)
(0.00184782 -0.00311827 0)
(0.00182206 -0.00310669 0)
(0.00179105 -0.00308774 0)
(0.00175278 -0.00305911 0)
(0.00170736 -0.00302124 0)
(0.00165629 -0.00297561 0)
(0.00159495 -0.00292183 0)
(0.00152715 -0.00286571 0)
(0.00145618 -0.00281008 0)
(0.0013758 -0.00275525 0)
(0.0012947 -0.00270661 0)
(0.00120873 -0.00266232 0)
(0.00110816 -0.00262214 0)
(0.0185348 -0.0106708 0)
(0.0183071 -0.0106813 0)
(0.0180435 -0.0106747 0)
(0.0177473 -0.0106518 0)
(0.0174217 -0.0106136 0)
(0.0170705 -0.0105617 0)
(0.016698 -0.0104979 0)
(0.016309 -0.0104244 0)
(0.0159078 -0.0103425 0)
(0.015498 -0.0102525 0)
(0.0150815 -0.0101544 0)
(0.0146595 -0.0100486 0)
(0.0142336 -0.00993686 0)
(0.0138055 -0.0098208 0)
(0.0133772 -0.00970187 0)
(0.0129509 -0.00958046 0)
(0.012528 -0.00945631 0)
(0.0121098 -0.00932907 0)
(0.0116974 -0.00919858 0)
(0.0112918 -0.00906497 0)
(0.0108933 -0.00892847 0)
(0.0105023 -0.00878919 0)
(0.0101189 -0.0086472 0)
(0.00974398 -0.00850271 0)
(0.00937797 -0.00835635 0)
(0.00902073 -0.00820818 0)
(0.00867197 -0.00805783 0)
(0.00833119 -0.00790528 0)
(0.00799786 -0.00775059 0)
(0.00767208 -0.00759411 0)
(0.00735432 -0.00743608 0)
(0.00704481 -0.00727647 0)
(0.0067435 -0.00711516 0)
(0.00645024 -0.00695214 0)
(0.00616481 -0.00678738 0)
(0.00588703 -0.00662093 0)
(0.00561682 -0.00645288 0)
(0.005354 -0.00628341 0)
(0.00509831 -0.00611271 0)
(0.0048497 -0.00594093 0)
(0.00460795 -0.00576902 0)
(0.00437323 -0.00559755 0)
(0.00414482 -0.00542638 0)
(0.00392141 -0.0052558 0)
(0.00370224 -0.00508593 0)
(0.00348724 -0.00491687 0)
(0.00327697 -0.00474866 0)
(0.00307225 -0.00458142 0)
(0.0028736 -0.00441531 0)
(0.00268089 -0.00425036 0)
(0.00249345 -0.0040864 0)
(0.0023106 -0.00392299 0)
(0.00213188 -0.00375965 0)
(0.0019572 -0.00359596 0)
(0.00178658 -0.00343165 0)
(0.00161977 -0.00326621 0)
(0.00145792 -0.00309965 0)
(0.00130204 -0.00293165 0)
(0.00115324 -0.00276224 0)
(0.00126199 -0.00279584 0)
(0.00137084 -0.00283935 0)
(0.00145855 -0.00288119 0)
(0.00154479 -0.00292513 0)
(0.00163217 -0.00297596 0)
(0.00170437 -0.00302383 0)
(0.0017748 -0.00307089 0)
(0.00183978 -0.00311609 0)
(0.00189023 -0.00315202 0)
(0.00193865 -0.00318278 0)
(0.00197704 -0.00320574 0)
(0.00200815 -0.00322109 0)
(0.00203374 -0.00323136 0)
(0.00205228 -0.00323748 0)
(0.00142412 -0.00296882 0)
(0.00153621 -0.00301152 0)
(0.00162653 -0.0030487 0)
(0.00172151 -0.00308992 0)
(0.00181154 -0.00313547 0)
(0.00188536 -0.00317597 0)
(0.00196038 -0.00321696 0)
(0.00202581 -0.00325464 0)
(0.00207826 -0.0032839 0)
(0.00212799 -0.00331001 0)
(0.00216682 -0.00332912 0)
(0.00219839 -0.00334264 0)
(0.00222389 -0.00335251 0)
(0.0022418 -0.00335893 0)
(0.00159113 -0.00313858 0)
(0.00170501 -0.00317876 0)
(0.00179994 -0.0032118 0)
(0.00190291 -0.00325048 0)
(0.00199472 -0.00329079 0)
(0.0020709 -0.00332541 0)
(0.00215032 -0.00336188 0)
(0.00221611 -0.00339377 0)
(0.00226983 -0.00341851 0)
(0.00232164 -0.00344153 0)
(0.00236014 -0.00345826 0)
(0.00239235 -0.00347104 0)
(0.00241811 -0.00348119 0)
(0.00243619 -0.00348849 0)
(0.00176274 -0.00330605 0)
(0.00187806 -0.00334281 0)
(0.00197814 -0.00337206 0)
(0.00208907 -0.0034086 0)
(0.00218314 -0.0034448 0)
(0.00226119 -0.00347437 0)
(0.00234435 -0.00350727 0)
(0.00241114 -0.00353528 0)
(0.00246535 -0.00355645 0)
(0.00251869 -0.0035778 0)
(0.00255791 -0.00359346 0)
(0.00259023 -0.00360602 0)
(0.00261642 -0.00361685 0)
(0.0026347 -0.00362509 0)
(0.00193832 -0.00347156 0)
(0.00205562 -0.00350504 0)
(0.00216096 -0.00353073 0)
(0.0022797 -0.00356544 0)
(0.00237609 -0.0035983 0)
(0.00245536 -0.00362372 0)
(0.0025422 -0.00365406 0)
(0.00261032 -0.00367967 0)
(0.00266506 -0.00369862 0)
(0.00271965 -0.00371881 0)
(0.0027594 -0.00373427 0)
(0.00279228 -0.00374721 0)
(0.00281871 -0.00375883 0)
(0.0028371 -0.00376798 0)
(0.00211842 -0.00363604 0)
(0.00223805 -0.00366653 0)
(0.00234789 -0.00368862 0)
(0.00247435 -0.00372182 0)
(0.0025735 -0.00375232 0)
(0.00265338 -0.00377444 0)
(0.0027435 -0.003803 0)
(0.00281368 -0.00382731 0)
(0.00286882 -0.00384494 0)
(0.00292448 -0.0038647 0)
(0.00296487 -0.00388027 0)
(0.00299827 -0.00389397 0)
(0.00302504 -0.00390654 0)
(0.00304344 -0.00391653 0)
(0.00230312 -0.00379998 0)
(0.00242556 -0.003828 0)
(0.00253892 -0.00384657 0)
(0.00267244 -0.00387836 0)
(0.00277528 -0.00390756 0)
(0.0028559 -0.00392735 0)
(0.00294834 -0.00395451 0)
(0.00302076 -0.00397827 0)
(0.00307701 -0.00399542 0)
(0.00313323 -0.00401503 0)
(0.00317421 -0.00403109 0)
(0.00320824 -0.00404574 0)
(0.00323528 -0.0040593 0)
(0.00325366 -0.00407008 0)
(0.00249229 -0.00396368 0)
(0.00261823 -0.00398998 0)
(0.00273437 -0.0040054 0)
(0.00287383 -0.00403567 0)
(0.00298103 -0.00406425 0)
(0.00306328 -0.00408293 0)
(0.00315763 -0.00410913 0)
(0.00323165 -0.0041325 0)
(0.00328936 -0.00414978 0)
(0.0033471 -0.00417018 0)
(0.00338821 -0.00418674 0)
(0.00342221 -0.00420204 0)
(0.00344938 -0.00421649 0)
(0.00346772 -0.004228 0)
(0.00268557 -0.00412739 0)
(0.00281605 -0.00415279 0)
(0.00293482 -0.00416579 0)
(0.00307964 -0.00419505 0)
(0.00319117 -0.00422314 0)
(0.00327527 -0.00424103 0)
(0.0033717 -0.00426695 0)
(0.00344694 -0.00429014 0)
(0.00350566 -0.0043076 0)
(0.0035647 -0.00432884 0)
(0.00360613 -0.00434617 0)
(0.00364019 -0.00436228 0)
(0.00366738 -0.00437755 0)
(0.00368565 -0.00438971 0)
(0.00288277 -0.00429144 0)
(0.00301853 -0.00431641 0)
(0.00314044 -0.0043278 0)
(0.0032897 -0.00435611 0)
(0.00340474 -0.00438375 0)
(0.0034913 -0.00440132 0)
(0.00359026 -0.00442753 0)
(0.00366676 -0.00445097 0)
(0.00372612 -0.00446864 0)
(0.00378609 -0.00449066 0)
(0.00382788 -0.00450886 0)
(0.0038621 -0.00452582 0)
(0.00388931 -0.00454189 0)
(0.00390745 -0.00455463 0)
(0.00308411 -0.00445614 0)
(0.00322521 -0.00448071 0)
(0.00335091 -0.00449108 0)
(0.00350452 -0.00451898 0)
(0.00362236 -0.00454631 0)
(0.00371114 -0.00456365 0)
(0.00381296 -0.00459046 0)
(0.00389089 -0.00461446 0)
(0.00395084 -0.00463256 0)
(0.00401155 -0.00465537 0)
(0.00405358 -0.00467437 0)
(0.00408795 -0.00469214 0)
(0.00411518 -0.00470896 0)
(0.00413317 -0.0047222 0)
(0.00329029 -0.00462189 0)
(0.00343618 -0.00464583 0)
(0.00356579 -0.00465537 0)
(0.00372448 -0.0046835 0)
(0.00384492 -0.00471098 0)
(0.00393535 -0.00472809 0)
(0.00403971 -0.00475551 0)
(0.00411907 -0.00478018 0)
(0.00417967 -0.00479885 0)
(0.00424112 -0.00482251 0)
(0.00428334 -0.00484225 0)
(0.0043178 -0.00486074 0)
(0.00434502 -0.00487823 0)
(0.00436285 -0.0048919 0)
(0.00350209 -0.004789 0)
(0.00365208 -0.00481227 0)
(0.0037859 -0.00482139 0)
(0.00394976 -0.00484997 0)
(0.00407251 -0.00487757 0)
(0.00416439 -0.00489456 0)
(0.00427081 -0.00492253 0)
(0.00435132 -0.00494784 0)
(0.00441254 -0.00496705 0)
(0.00447473 -0.00499153 0)
(0.00451715 -0.00501195 0)
(0.00455168 -0.0050311 0)
(0.00457887 -0.00504919 0)
(0.00459651 -0.00506322 0)
(0.00371949 -0.00495741 0)
(0.00387313 -0.00498005 0)
(0.00401054 -0.00498837 0)
(0.00417909 -0.00501745 0)
(0.00430465 -0.00504553 0)
(0.00439815 -0.0050626 0)
(0.00450646 -0.0050912 0)
(0.00458794 -0.00511712 0)
(0.0046497 -0.0051368 0)
(0.00471255 -0.005162 0)
(0.0047551 -0.00518302 0)
(0.00478965 -0.00520276 0)
(0.00481677 -0.00522137 0)
(0.00483422 -0.00523568 0)
(0.00394188 -0.00512689 0)
(0.004099 -0.0051489 0)
(0.00424013 -0.00515637 0)
(0.00441307 -0.00518606 0)
(0.00454132 -0.00521461 0)
(0.00463645 -0.00523176 0)
(0.00474664 -0.00526103 0)
(0.00482909 -0.00528757 0)
(0.00489132 -0.00530766 0)
(0.00495471 -0.0053335 0)
(0.0049973 -0.00535504 0)
(0.00503181 -0.00537528 0)
(0.00505881 -0.00539433 0)
(0.00507603 -0.00540884 0)
(0.00416885 -0.00529736 0)
(0.00433056 -0.00531938 0)
(0.00447558 -0.00532602 0)
(0.0046522 -0.00535585 0)
(0.00478279 -0.00538466 0)
(0.00487936 -0.00540179 0)
(0.00499138 -0.00543172 0)
(0.00507478 -0.00545882 0)
(0.00513737 -0.0054792 0)
(0.00520119 -0.0055056 0)
(0.00524379 -0.00552763 0)
(0.00527822 -0.0055483 0)
(0.00530505 -0.00556768 0)
(0.005322 -0.00558229 0)
(0.00440004 -0.00546852 0)
(0.00456658 -0.00549034 0)
(0.00471562 -0.00549633 0)
(0.00489631 -0.00552645 0)
(0.00502913 -0.00555545 0)
(0.00512706 -0.00557253 0)
(0.00524083 -0.00560303 0)
(0.00532507 -0.00563055 0)
(0.00538766 -0.00565096 0)
(0.00545198 -0.00567791 0)
(0.00549467 -0.00570046 0)
(0.00552894 -0.00572145 0)
(0.00555555 -0.00574104 0)
(0.00557223 -0.00575567 0)
(0.00463544 -0.00563995 0)
(0.00480714 -0.0056615 0)
(0.00496044 -0.00566711 0)
(0.0051452 -0.00569754 0)
(0.00528022 -0.00572672 0)
(0.00537958 -0.0057437 0)
(0.00549508 -0.00577467 0)
(0.0055802 -0.00580258 0)
(0.0056434 -0.0058234 0)
(0.00570787 -0.00585065 0)
(0.00575001 -0.00587322 0)
(0.00578401 -0.00589436 0)
(0.00581039 -0.00591406 0)
(0.00582679 -0.00592864 0)
(0.00487723 -0.00581223 0)
(0.00505365 -0.00583341 0)
(0.00521036 -0.0058382 0)
(0.00539886 -0.00586887 0)
(0.0055361 -0.00589818 0)
(0.00563699 -0.00591499 0)
(0.00575418 -0.0059463 0)
(0.00584007 -0.00597447 0)
(0.00590349 -0.00599539 0)
(0.00596801 -0.00602289 0)
(0.00600982 -0.00604553 0)
(0.00604354 -0.00606672 0)
(0.00606966 -0.00608644 0)
(0.00608579 -0.0061009 0)
(0.00512564 -0.00598445 0)
(0.00530582 -0.00600533 0)
(0.00546569 -0.00600932 0)
(0.00565765 -0.00604016 0)
(0.00579709 -0.00606956 0)
(0.0058995 -0.00608609 0)
(0.0060182 -0.00611763 0)
(0.00610467 -0.00614593 0)
(0.00616818 -0.00616683 0)
(0.00623271 -0.00619451 0)
(0.00627424 -0.00621714 0)
(0.00630767 -0.00623828 0)
(0.00633351 -0.00625792 0)
(0.00634934 -0.00627221 0)
(0.00538081 -0.00615672 0)
(0.00556398 -0.00617696 0)
(0.00572676 -0.00618013 0)
(0.00592203 -0.00621118 0)
(0.00606355 -0.00624061 0)
(0.00616729 -0.00625677 0)
(0.00628722 -0.00628842 0)
(0.00637411 -0.00631676 0)
(0.00643765 -0.00633756 0)
(0.00650217 -0.00636533 0)
(0.00654341 -0.00638786 0)
(0.00657653 -0.00640884 0)
(0.00660207 -0.00642832 0)
(0.00661756 -0.00644236 0)
(0.00564191 -0.00632799 0)
(0.00582822 -0.00634785 0)
(0.0059939 -0.00635037 0)
(0.00619229 -0.00638163 0)
(0.00633562 -0.00641103 0)
(0.00644038 -0.00642675 0)
(0.00656131 -0.00645844 0)
(0.00664851 -0.00648676 0)
(0.00671205 -0.00650739 0)
(0.00677654 -0.00653515 0)
(0.00681746 -0.00655749 0)
(0.00685026 -0.00657823 0)
(0.00687547 -0.00659746 0)
(0.0068906 -0.00661119 0)
(0.00590959 -0.00649814 0)
(0.00609892 -0.00651779 0)
(0.00626737 -0.00651977 0)
(0.0064685 -0.00655124 0)
(0.00661327 -0.00658055 0)
(0.00671885 -0.00659581 0)
(0.00684059 -0.00662749 0)
(0.00692801 -0.0066557 0)
(0.00699155 -0.00667609 0)
(0.007056 -0.0067038 0)
(0.00709658 -0.00672587 0)
(0.00712898 -0.00674629 0)
(0.00715382 -0.00676521 0)
(0.00716858 -0.00677857 0)
(0.00618421 -0.00666701 0)
(0.00637628 -0.00668658 0)
(0.00654721 -0.00668809 0)
(0.00675067 -0.00671978 0)
(0.00689662 -0.00674902 0)
(0.00700292 -0.00676386 0)
(0.00712535 -0.00679551 0)
(0.00721263 -0.00682338 0)
(0.0072763 -0.00684351 0)
(0.00734085 -0.0068712 0)
(0.00738099 -0.0068929 0)
(0.00741287 -0.00691292 0)
(0.00743729 -0.00693147 0)
(0.00745168 -0.00694444 0)
(0.00646587 -0.00683439 0)
(0.00666035 -0.006854 0)
(0.00683346 -0.00685519 0)
(0.00703894 -0.00688718 0)
(0.00718592 -0.00691643 0)
(0.00729288 -0.00693091 0)
(0.00741602 -0.00696256 0)
(0.00750386 -0.00699047 0)
(0.00756741 -0.00701013 0)
(0.00763133 -0.00703733 0)
(0.00767089 -0.00705855 0)
(0.00770217 -0.00707809 0)
(0.00772609 -0.0070962 0)
(0.00774006 -0.00710873 0)
(0.00675465 -0.00700015 0)
(0.00695121 -0.00701994 0)
(0.00712627 -0.00702097 0)
(0.00733353 -0.00705338 0)
(0.00748137 -0.0070827 0)
(0.00758887 -0.00709682 0)
(0.00771255 -0.00712841 0)
(0.00780056 -0.00715608 0)
(0.0078639 -0.00717525 0)
(0.00792744 -0.00720206 0)
(0.00796642 -0.00722277 0)
(0.00799707 -0.00724176 0)
(0.00802041 -0.00725938 0)
(0.00803393 -0.00727144 0)
(0.00705074 -0.00716424 0)
(0.0072491 -0.00718433 0)
(0.00742589 -0.00718534 0)
(0.00763464 -0.00721825 0)
(0.00778314 -0.00724765 0)
(0.00789103 -0.00726142 0)
(0.00801503 -0.00729286 0)
(0.00810306 -0.00732022 0)
(0.0081662 -0.00733892 0)
(0.0082293 -0.00736533 0)
(0.0082677 -0.00738551 0)
(0.00829774 -0.00740396 0)
(0.00832046 -0.00742103 0)
(0.00833349 -0.0074326 0)
(0.00735446 -0.00732662 0)
(0.00755435 -0.00734707 0)
(0.00773261 -0.0073482 0)
(0.00794256 -0.00738166 0)
(0.00809157 -0.00741121 0)
(0.0081997 -0.00742468 0)
(0.00832347 -0.00745582 0)
(0.00841162 -0.00748292 0)
(0.00847469 -0.00750125 0)
(0.00853722 -0.00752719 0)
(0.00857496 -0.00754681 0)
(0.00860435 -0.00756469 0)
(0.00862643 -0.00758121 0)
(0.00863896 -0.00759227 0)
(0.00766609 -0.0074873 0)
(0.0078673 -0.00750816 0)
(0.00804681 -0.0075095 0)
(0.00825768 -0.00754359 0)
(0.008407 -0.00757338 0)
(0.00851535 -0.00758669 0)
(0.00863952 -0.00761798 0)
(0.00872746 -0.00764474 0)
(0.0087897 -0.00766235 0)
(0.0088515 -0.00768774 0)
(0.00888849 -0.00770676 0)
(0.00891716 -0.00772404 0)
(0.00893856 -0.00773999 0)
(0.00895057 -0.00775052 0)
(0.00798578 -0.00764639 0)
(0.00818815 -0.00766769 0)
(0.00836871 -0.00766931 0)
(0.00858019 -0.00770406 0)
(0.00872959 -0.00773411 0)
(0.00883796 -0.00774731 0)
(0.00896211 -0.0077786 0)
(0.00904964 -0.00780507 0)
(0.00911128 -0.00782216 0)
(0.00917235 -0.00784703 0)
(0.00920854 -0.00786543 0)
(0.00923642 -0.00788209 0)
(0.00925712 -0.00789746 0)
(0.00926859 -0.00790746 0)
(0.00831331 -0.00780399 0)
(0.0085168 -0.00782577 0)
(0.00869831 -0.00782771 0)
(0.00891018 -0.00786311 0)
(0.00905947 -0.00789343 0)
(0.00916736 -0.00790642 0)
(0.00929162 -0.00793783 0)
(0.00937878 -0.00796414 0)
(0.00943973 -0.00798075 0)
(0.00950001 -0.00800514 0)
(0.00953537 -0.00802291 0)
(0.00956241 -0.00803895 0)
(0.00958238 -0.00805375 0)
(0.00959326 -0.00806321 0)
(0.00864827 -0.00795998 0)
(0.00885296 -0.00798237 0)
(0.00903546 -0.00798473 0)
(0.00924765 -0.00802081 0)
(0.00939691 -0.0080515 0)
(0.00950522 -0.0080648 0)
(0.00962931 -0.00809629 0)
(0.00971529 -0.00812216 0)
(0.00977538 -0.00813828 0)
(0.00983473 -0.00816215 0)
(0.00986918 -0.00817929 0)
(0.00989538 -0.00819474 0)
(0.00991459 -0.00820896 0)
(0.00992487 -0.0082179 0)
(0.00899052 -0.00811407 0)
(0.00919653 -0.0081373 0)
(0.00938012 -0.00814028 0)
(0.00959256 -0.00817711 0)
(0.00974149 -0.00820812 0)
(0.00985027 -0.00822171 0)
(0.00997413 -0.0082535 0)
(0.0100592 -0.00827915 0)
(0.0101184 -0.00829482 0)
(0.0101767 -0.00831818 0)
(0.0102102 -0.00833473 0)
(0.0102356 -0.00834959 0)
(0.010254 -0.00836324 0)
(0.0102637 -0.00837166 0)
(0.00934052 -0.00826611 0)
(0.00954784 -0.00829047 0)
(0.00973251 -0.00829434 0)
(0.00994493 -0.00833198 0)
(0.0100949 -0.00836394 0)
(0.0102041 -0.00837797 0)
(0.0103268 -0.00840974 0)
(0.0104109 -0.00843521 0)
(0.010469 -0.00845049 0)
(0.0105262 -0.00847339 0)
(0.0105588 -0.00848939 0)
(0.0105833 -0.00850365 0)
(0.0106009 -0.00851673 0)
(0.01061 -0.00852466 0)
(0.0096988 -0.0084162 0)
(0.00990726 -0.00844189 0)
(0.0100928 -0.00844689 0)
(0.0103067 -0.00848607 0)
(0.0104573 -0.00851894 0)
(0.0105657 -0.00853316 0)
(0.0106874 -0.00856507 0)
(0.0107704 -0.00859043 0)
(0.0108275 -0.00860544 0)
(0.0108837 -0.00862794 0)
(0.0109153 -0.00864341 0)
(0.0109388 -0.00865709 0)
(0.0109556 -0.00866961 0)
(0.010964 -0.00867706 0)
(0.0100651 -0.00856425 0)
(0.0102749 -0.00859151 0)
(0.0104628 -0.0085984 0)
(0.0106777 -0.00863916 0)
(0.0108275 -0.00867264 0)
(0.0109354 -0.0086873 0)
(0.0110561 -0.0087195 0)
(0.0111381 -0.00874489 0)
(0.0111943 -0.00875976 0)
(0.0112493 -0.00878193 0)
(0.0112799 -0.0087969 0)
(0.0113025 -0.00881004 0)
(0.0113184 -0.00882203 0)
(0.0113262 -0.00882901 0)
(0.010442 -0.00871128 0)
(0.0106533 -0.0087404 0)
(0.0108421 -0.00874874 0)
(0.0110564 -0.00879069 0)
(0.0112057 -0.00882508 0)
(0.0113134 -0.00884044 0)
(0.0114331 -0.0088731 0)
(0.0115142 -0.00889867 0)
(0.0115695 -0.00891352 0)
(0.0116233 -0.00893545 0)
(0.0116529 -0.00895002 0)
(0.0116745 -0.00896268 0)
(0.0116896 -0.00897415 0)
(0.0116968 -0.00898068 0)
(0.0108264 -0.00885586 0)
(0.0110392 -0.00888707 0)
(0.011229 -0.00889729 0)
(0.011443 -0.00894081 0)
(0.0115922 -0.00897635 0)
(0.0116997 -0.00899263 0)
(0.0118187 -0.00902592 0)
(0.0118989 -0.00905182 0)
(0.0119534 -0.00906681 0)
(0.0120061 -0.00908862 0)
(0.0120347 -0.0091029 0)
(0.0120554 -0.00911514 0)
(0.0120696 -0.00912613 0)
(0.0120761 -0.00913222 0)
(0.0112183 -0.00899791 0)
(0.0114326 -0.00903154 0)
(0.0116237 -0.00904405 0)
(0.0118377 -0.00908945 0)
(0.0119869 -0.0091264 0)
(0.0120946 -0.00914386 0)
(0.0122129 -0.00917801 0)
(0.0122924 -0.00920445 0)
(0.0123463 -0.00921977 0)
(0.012398 -0.00924159 0)
(0.0124257 -0.00925567 0)
(0.0124454 -0.00926755 0)
(0.0124587 -0.0092781 0)
(0.0124645 -0.00928376 0)
(0.0116175 -0.00913741 0)
(0.0118335 -0.00917379 0)
(0.012026 -0.00918899 0)
(0.0122403 -0.00923657 0)
(0.0123898 -0.00927527 0)
(0.0124979 -0.00929426 0)
(0.0126158 -0.00932952 0)
(0.012695 -0.00935671 0)
(0.0127484 -0.00937252 0)
(0.0127992 -0.00939446 0)
(0.0128261 -0.00940842 0)
(0.0128449 -0.00942001 0)
(0.0128572 -0.00943017 0)
(0.0128623 -0.00943546 0)
(0.012024 -0.00927436 0)
(0.0122418 -0.00931389 0)
(0.0124361 -0.00933221 0)
(0.0126509 -0.00938235 0)
(0.0128011 -0.00942315 0)
(0.0129099 -0.009444 0)
(0.0130278 -0.00948059 0)
(0.0131069 -0.0095087 0)
(0.01316 -0.00952512 0)
(0.0132101 -0.00954727 0)
(0.0132361 -0.00956122 0)
(0.013254 -0.00957262 0)
(0.0132655 -0.00958247 0)
(0.0132698 -0.00958743 0)
(0.0124374 -0.00940865 0)
(0.0126574 -0.00945186 0)
(0.0128538 -0.00947382 0)
(0.0130693 -0.00952693 0)
(0.0132206 -0.00957017 0)
(0.0133306 -0.00959315 0)
(0.0134488 -0.00963123 0)
(0.013528 -0.00966037 0)
(0.0135811 -0.00967756 0)
(0.0136307 -0.00970007 0)
(0.0136561 -0.00971416 0)
(0.0136732 -0.00972549 0)
(0.0136838 -0.0097351 0)
(0.0136873 -0.00973979 0)
(0.0128569 -0.00954023 0)
(0.0130796 -0.0095877 0)
(0.0132784 -0.00961387 0)
(0.0134951 -0.00967032 0)
(0.0136479 -0.00971625 0)
(0.0137596 -0.00974156 0)
(0.0138784 -0.00978127 0)
(0.0139583 -0.00981164 0)
(0.0140119 -0.00982981 0)
(0.0140612 -0.00985289 0)
(0.0140863 -0.00986729 0)
(0.0141027 -0.00987869 0)
(0.0141124 -0.00988815 0)
(0.0141153 -0.00989261 0)
(0.0132814 -0.00966928 0)
(0.0135071 -0.00972162 0)
(0.0137089 -0.00975242 0)
(0.0139273 -0.00981241 0)
(0.0140822 -0.00986116 0)
(0.0141963 -0.00988895 0)
(0.0143166 -0.00993051 0)
(0.0143977 -0.00996239 0)
(0.0144524 -0.00998187 0)
(0.0145019 -0.0100058 0)
(0.0145269 -0.0100207 0)
(0.0145429 -0.0100323 0)
(0.0145519 -0.0100417 0)
(0.014554 -0.010046 0)
(0.0137096 -0.00979617 0)
(0.0139388 -0.00985374 0)
(0.0141442 -0.00988927 0)
(0.014365 -0.00995278 0)
(0.014523 -0.0100044 0)
(0.0146406 -0.010035 0)
(0.0147633 -0.0100788 0)
(0.0148466 -0.0101127 0)
(0.0149029 -0.0101338 0)
(0.0149531 -0.0101588 0)
(0.0149784 -0.0101744 0)
(0.0149941 -0.0101863 0)
(0.0150025 -0.0101957 0)
(0.0150039 -0.0101999 0)
(0.0141399 -0.00992084 0)
(0.0143733 -0.0099835 0)
(0.0145833 -0.0100237 0)
(0.0148077 -0.0100906 0)
(0.0149703 -0.0101455 0)
(0.0150927 -0.0101796 0)
(0.0152187 -0.0102263 0)
(0.0153049 -0.0102625 0)
(0.0153635 -0.0102855 0)
(0.0154149 -0.0103118 0)
(0.015441 -0.0103283 0)
(0.0154566 -0.0103407 0)
(0.0154645 -0.0103502 0)
(0.0154653 -0.0103543 0)
(0.0145707 -0.0100423 0)
(0.0148094 -0.0101098 0)
(0.0150255 -0.0101545 0)
(0.0152552 -0.0102255 0)
(0.0154239 -0.0102846 0)
(0.0155521 -0.0103228 0)
(0.0156822 -0.0103726 0)
(0.0157721 -0.0104113 0)
(0.015834 -0.0104366 0)
(0.0158873 -0.0104644 0)
(0.0159147 -0.0104822 0)
(0.0159309 -0.0104953 0)
(0.0159385 -0.0105052 0)
(0.0159386 -0.0105093 0)
(0.0150004 -0.010159 0)
(0.0152462 -0.0102311 0)
(0.0154705 -0.0102812 0)
(0.0157071 -0.0103576 0)
(0.0158826 -0.0104215 0)
(0.0160174 -0.0104639 0)
(0.0161527 -0.0105169 0)
(0.0162477 -0.0105586 0)
(0.0163141 -0.0105867 0)
(0.0163705 -0.0106167 0)
(0.0164 -0.010636 0)
(0.016417 -0.0106501 0)
(0.0164246 -0.0106604 0)
(0.0164242 -0.0106646 0)
(0.0154279 -0.0102694 0)
(0.0156832 -0.0103471 0)
(0.0159173 -0.0104042 0)
(0.0161613 -0.0104863 0)
(0.0163444 -0.0105548 0)
(0.016487 -0.0106014 0)
(0.0166295 -0.0106584 0)
(0.0167315 -0.0107041 0)
(0.0168037 -0.0107358 0)
(0.0168642 -0.0107683 0)
(0.0168967 -0.0107895 0)
(0.0169153 -0.0108049 0)
(0.0169232 -0.0108159 0)
(0.0169225 -0.0108203 0)
(0.0158522 -0.010373 0)
(0.0161187 -0.0104582 0)
(0.0163628 -0.0105227 0)
(0.0166147 -0.01061 0)
(0.0168067 -0.0106828 0)
(0.01696 -0.0107348 0)
(0.0171118 -0.0107971 0)
(0.0172221 -0.0108474 0)
(0.0173016 -0.010883 0)
(0.0173676 -0.0109184 0)
(0.0174046 -0.0109421 0)
(0.0174259 -0.0109594 0)
(0.0174347 -0.0109713 0)
(0.0174338 -0.0109761 0)
(0.0162716 -0.0104702 0)
(0.0165493 -0.0105634 0)
(0.0168036 -0.0106345 0)
(0.0170644 -0.0107264 0)
(0.0172685 -0.0108051 0)
(0.0174347 -0.0108639 0)
(0.0175969 -0.010932 0)
(0.0177171 -0.0109871 0)
(0.017806 -0.0110268 0)
(0.0178802 -0.0110664 0)
(0.0179236 -0.0110937 0)
(0.0179488 -0.0111133 0)
(0.0179594 -0.0111264 0)
(0.0179587 -0.0111317 0)
(0.0166823 -0.0105601 0)
(0.0169709 -0.0106607 0)
(0.0172358 -0.0107375 0)
(0.0175085 -0.0108352 0)
(0.0177272 -0.0109212 0)
(0.0179069 -0.0109874 0)
(0.0180811 -0.0110612 0)
(0.0182139 -0.011121 0)
(0.0183157 -0.0111669 0)
(0.018401 -0.0112122 0)
(0.0184527 -0.0112435 0)
(0.0184836 -0.0112659 0)
(0.0184973 -0.0112809 0)
(0.0184974 -0.011287 0)
(0.0170802 -0.0106413 0)
(0.0173789 -0.0107476 0)
(0.0176568 -0.0108303 0)
(0.017944 -0.0109355 0)
(0.0181775 -0.0110297 0)
(0.0183721 -0.0111029 0)
(0.0185606 -0.0111816 0)
(0.0187098 -0.0112488 0)
(0.0188283 -0.0113029 0)
(0.0189265 -0.0113537 0)
(0.0189895 -0.0113897 0)
(0.0190297 -0.0114165 0)
(0.0190487 -0.0114344 0)
(0.0190503 -0.0114417 0)
(0.0174601 -0.0107112 0)
(0.01777 -0.0108223 0)
(0.0180632 -0.0109123 0)
(0.0183654 -0.0110264 0)
(0.0186141 -0.0111282 0)
(0.0188244 -0.0112065 0)
(0.0190309 -0.0112927 0)
(0.0192008 -0.0113698 0)
(0.0193371 -0.0114307 0)
(0.0194517 -0.0114879 0)
(0.0195323 -0.0115316 0)
(0.0195858 -0.0115645 0)
(0.0196129 -0.0115863 0)
(0.0196178 -0.0115953 0)
(0.017818 -0.0107678 0)
(0.0181405 -0.0108838 0)
(0.0184502 -0.0109828 0)
(0.0187669 -0.0111055 0)
(0.0190297 -0.0112122 0)
(0.0192587 -0.0112976 0)
(0.0194872 -0.0113938 0)
(0.0196772 -0.0114783 0)
(0.0198338 -0.0115469 0)
(0.019973 -0.0116139 0)
(0.0200758 -0.0116667 0)
(0.0201478 -0.0117077 0)
(0.0201884 -0.0117352 0)
(0.0201999 -0.0117475 0)
(0.0181499 -0.0108095 0)
(0.0184862 -0.0109315 0)
(0.0188121 -0.01104 0)