/*--------------------------------*- C++ -*----------------------------------*\
| =========                 |                                                 |
| \\      /  F ield         | OpenFOAM Extend Project: Open source CFD        |
|  \\    /   O peration     | Version:  1.6-ext                               |
|   \\  /    A nd           | Web:      www.extend-project.de                 |
|    \\/     M anipulation  |                                                 |
\*---------------------------------------------------------------------------*/
FoamFile
{
    version     2.0;
    format      ascii;
    class       volScalarField;
    location    "0.1";
    object      p;
}
// * * * * * * * * * * * * * * * * * * * * * * * * * * * * * * * * * * * * * //

dimensions      [0 2 -2 0 0 0 0];

internalField   nonuniform List<scalar> 
20940
(
1.02022
0.978358
0.933224
0.884143
0.831522
0.775031
0.714925
0.651387
0.584947
0.516449
0.447187
0.378907
0.313715
0.253839
0.201284
0.15747
0.122952
0.0973391
0.0794476
0.0675367
0.0589974
0.0513019
1.00619
0.964948
0.920021
0.871391
0.819099
0.763009
0.70334
0.640357
0.574663
0.507203
0.439365
0.372957
0.310077
0.25285
0.203085
0.161949
0.129747
0.105895
0.0891205
0.0777041
0.0691118
0.0609785
0.998006
0.957597
0.913234
0.865335
0.813658
0.758238
0.699264
0.637078
0.572354
0.506127
0.439866
0.375421
0.314863
0.260206
0.21307
0.174388
0.144253
0.121927
0.106088
0.0950642
0.086433
0.0780185
0.993781
0.954363
0.910878
0.863966
0.813179
0.758701
0.700694
0.63958
0.576095
0.511361
0.446911
0.384621
0.326515
0.274479
0.229939
0.193613
0.165399
0.144439
0.129384
0.11863
0.109874
0.101113
0.994046
0.955725
0.913389
0.867665
0.817991
0.76467
0.707842
0.648009
0.585967
0.522912
0.460432
0.400407
0.3448
0.295359
0.253321
0.219201
0.192732
0.172963
0.15854
0.147942
0.138979
0.129799
0.998636
0.961566
0.920679
0.876368
0.828046
0.7761
0.720662
0.662301
0.601873
0.540636
0.480218
0.422494
0.369351
0.322402
0.282705
0.250597
0.225669
0.206906
0.192968
0.182425
0.173192
0.163546
1.00723
0.971558
0.93241
0.889732
0.843007
0.792663
0.738827
0.68213
0.623471
0.564164
0.505864
0.450426
0.399664
0.355058
0.317508
0.287195
0.263603
0.245669
0.232084
0.221512
0.211968
0.20183
1.01957
0.985465
0.948337
0.907509
0.862604
0.814058
0.761998
0.707109
0.650326
0.593008
0.536824
0.483607
0.435096
0.392653
0.357038
0.328306
0.305856
0.288597
0.275259
0.264601
0.254727
0.244092
1.03501
1.00268
0.96785
0.92912
0.886299
0.839795
0.789731
0.736826
0.68204
0.626762
0.572668
0.521569
0.475138
0.434639
0.400721
0.373341
0.351836
0.335106
0.321922
0.311134
0.300931
0.289814
1.05308
1.02276
0.990483
0.954067
0.913534
0.869246
0.821325
0.770516
0.717791
0.664557
0.612497
0.563397
0.518876
0.480121
0.447693
0.421477
0.400769
0.384469
0.371388
0.360465
0.349964
0.338405
1.07291
1.0449
1.01545
0.981664
0.943744
0.901987
0.856482
0.807978
0.757439
0.706281
0.656184
0.608921
0.566082
0.528805
0.497601
0.472313
0.452218
0.436226
0.423188
0.412121
0.401359
0.389417
1.09386
1.06843
1.04192
1.01092
0.975735
0.936624
0.893644
0.847534
0.799239
0.750171
0.702002
0.656495
0.61522
0.579287
0.549179
0.524716
0.505171
0.489471
0.4765
0.465348
0.454413
0.442176
1.1151
1.09279
1.06958
1.04186
1.00989
0.973878
0.933816
0.890397
0.84452
0.797575
0.751226
0.707243
0.667213
0.632268
0.602907
0.578969
0.559746
0.544188
0.531211
0.519962
0.508906
0.496467
1.13538
1.11631
1.09612
1.07153
1.04264
1.00968
0.972557
0.931901
0.888554
0.843866
0.799476
0.757151
0.718488
0.684637
0.656121
0.632802
0.614004
0.598709
0.585868
0.574684
0.563694
0.551221
1.15545
1.14103
1.12457
1.10402
1.07901
1.04979
1.01616
0.978657
0.938029
0.895554
0.852852
0.811719
0.773828
0.740429
0.712148
0.688931
0.670154
0.654829
0.641913
0.630645
0.619635
0.607114
1.16936
1.15872
1.14417
1.12626
1.10403
1.07767
1.04691
1.01225
0.974392
0.934597
0.894451
0.855715
0.820014
0.788545
0.761891
0.739978
0.7222
0.707617
0.695252
0.684425
0.673905
0.661991
1.17917
1.17002
1.15581
1.13859
1.11703
1.09157
1.06208
1.02924
0.993901
0.957362
0.921118
0.886697
0.855385
0.828034
0.804949
0.785916
0.77033
0.757374
0.746254
0.736449
0.726905
0.716208
1.19305
1.18581
1.17304
1.15747
1.13756
1.11384
1.08628
1.05563
1.02281
0.989132
0.955997
0.924774
0.896548
0.871974
0.851228
0.83405
0.819877
0.807994
0.79774
0.788689
0.779928
0.770312
1.20886
1.20339
1.19213
1.17824
1.16005
1.13817
1.11265
1.08428
1.05399
1.02304
0.992747
0.964319
0.938682
0.916365
0.897469
0.881736
0.868663
0.857641
0.848122
0.83976
0.831765
0.823202
1.22628
1.22259
1.213
1.20087
1.18446
1.16445
1.14096
1.11478
1.08686
1.05839
1.0306
1.00456
0.981073
0.960581
0.943149
0.928545
0.916339
0.906017
0.897128
0.889387
0.882105
0.874508
1.24505
1.24313
1.23532
1.22503
1.21046
1.19235
1.17085
1.14675
1.12099
1.09471
1.06902
1.04492
1.02313
1.00402
0.987678
0.973909
0.962357
0.952596
0.944249
0.937072
0.930462
0.923767
1.26458
1.26438
1.25845
1.24998
1.23726
1.22101
1.20141
1.17923
1.15539
1.13097
1.10702
1.08446
1.06395
1.04589
1.03034
1.01719
1.00614
0.996845
0.988978
0.982324
0.976354
0.970505
1.28426
1.28571
1.28167
1.27498
1.26404
1.24955
1.2317
1.21125
1.18907
1.16621
1.14365
1.12228
1.10274
1.08543
1.07047
1.05778
1.04713
1.03823
1.0308
1.02464
1.01929
1.01424
1.30341
1.30639
1.3042
1.29918
1.28992
1.27705
1.26077
1.24181
1.22104
1.19944
1.17798
1.15752
1.1387
1.12193
1.10739
1.09505
1.08474
1.07621
1.0692
1.06353
1.05877
1.05449
1.32122
1.32558
1.32507
1.32154
1.31378
1.30234
1.28744
1.26978
1.25018
1.22962
1.20903
1.18926
1.17098
1.15463
1.14042
1.12838
1.11838
1.11021
1.10364
1.09847
1.09432
1.09078
1.33703
1.34259
1.34353
1.34127
1.33481
1.3246
1.31088
1.29431
1.27571
1.25601
1.23613
1.21692
1.19906
1.18303
1.16908
1.1573
1.1476
1.13981
1.13369
1.12905
1.12554
1.12278
1.34973
1.35617
1.35817
1.35689
1.35146
1.34227
1.32958
1.31401
1.29634
1.27746
1.25827
1.23961
1.22216
1.20642
1.19272
1.18117
1.17175
1.16433
1.15869
1.15463
1.15188
1.15003
1.35922
1.36643
1.36933
1.36896
1.36452
1.35636
1.34471
1.33016
1.31343
1.29538
1.27685
1.25866
1.24148
1.22587
1.21217
1.20059
1.19118
1.18388
1.17853
1.17498
1.17303
1.17235
1.36355
1.371
1.37433
1.37451
1.37081
1.36353
1.35287
1.33936
1.32367
1.30654
1.28879
1.27115
1.25431
1.23882
1.22509
1.2134
1.20391
1.19664
1.19154
1.18846
1.1874
1.18809
1.36906
1.37751
1.38271
1.38484
1.38327
1.37804
1.36927
1.35734
1.3428
1.32631
1.30863
1.29047
1.27254
1.25545
1.23971
1.22576
1.21393
1.2045
1.19765
1.19346
1.19218
1.19362
2.08296
2.1128
2.14241
2.17199
2.20129
2.23014
2.25832
2.28558
2.31169
2.33638
2.35941
2.38056
2.39961
2.41643
2.43096
2.4433
2.45373
2.46278
2.47108
2.47941
2.48969
2.50315
2.07571
2.10541
2.13462
2.16381
2.19271
2.22112
2.24884
2.27562
2.30122
2.32539
2.3479
2.36849
2.38699
2.40326
2.41724
2.42906
2.43902
2.44767
2.45567
2.46379
2.47396
2.48737
2.05889
2.0883
2.11668
2.14512
2.17321
2.20078
2.22763
2.2535
2.27816
2.30137
2.32287
2.34245
2.35991
2.37512
2.38807
2.39889
2.40794
2.4158
2.42319
2.4309
2.44085
2.45416
2.03429
2.06324
2.09037
2.11765
2.14451
2.17079
2.19628
2.22075
2.24396
2.26567
2.28563
2.30362
2.31947
2.33307
2.34442
2.3537
2.36133
2.36798
2.37442
2.38149
2.39109
2.40422
2.00223
2.03051
2.05597
2.08171
2.10694
2.1315
2.15521
2.17783
2.19913
2.21885
2.23677
2.25268
2.26641
2.27786
2.28708
2.29431
2.30006
2.30509
2.31026
2.31647
2.32557
2.33846
1.96397
1.99133
2.01472
2.03854
2.06172
2.08416
2.10565
2.12597
2.14488
2.16215
2.17755
2.19087
2.20195
2.21074
2.21732
2.222
2.2254
2.22839
2.23195
2.23706
2.24551
2.25806
1.92073
1.94691
1.96783
1.98939
2.01017
2.03009
2.04897
2.06658
2.08269
2.09706
2.10947
2.11972
2.12768
2.13329
2.13672
2.13836
2.13893
2.13945
2.14107
2.14481
2.15245
2.16454
1.87407
1.89873
1.91682
1.93576
1.95374
1.97076
1.98664
2.00113
2.01401
2.02506
2.03405
2.04079
2.04515
2.04712
2.04691
2.04501
2.04228
2.03992
2.03923
2.04134
2.04796
2.05947
1.82539
1.8482
1.8632
1.87928
1.89419
1.90802
1.92058
1.93162
1.94093
1.94828
1.95344
1.95624
1.95656
1.95442
1.95008
1.94414
1.93763
1.93192
1.92851
1.92868
1.93406
1.9448
1.77647
1.797
1.80857
1.82142
1.83291
1.8432
1.8521
1.85936
1.86475
1.86804
1.86902
1.86751
1.86338
1.85671
1.8478
1.83737
1.8266
1.81711
1.81061
1.80851
1.81242
1.8222
1.72835
1.74633
1.75447
1.76405
1.77203
1.77866
1.78372
1.78698
1.78821
1.78718
1.78366
1.77748
1.76853
1.75689
1.74294
1.72751
1.71197
1.69817
1.68809
1.68335
1.68546
1.69404
1.68288
1.69764
1.70201
1.70791
1.71203
1.71471
1.71568
1.71469
1.71151
1.7059
1.69762
1.6865
1.67243
1.65552
1.63619
1.6154
1.5947
1.57621
1.56219
1.55449
1.55455
1.56168
1.64033
1.6519
1.65307
1.65552
1.65597
1.65478
1.65167
1.64641
1.63873
1.62841
1.61521
1.59891
1.57943
1.55686
1.53168
1.50496
1.47847
1.45463
1.43608
1.42491
1.42253
1.42789
1.60257
1.60933
1.60685
1.60538
1.6019
1.59663
1.58927
1.57956
1.56722
1.552
1.53366
1.512
1.48693
1.45856
1.42744
1.39474
1.36243
1.33324
1.3101
1.29539
1.29042
1.29367
1.56969
1.57207
1.56729
1.56229
1.55527
1.54626
1.53496
1.52108
1.50435
1.48446
1.46113
1.43412
1.40328
1.36871
1.33096
1.29131
1.25199
1.21616
1.1873
1.16827
1.16043
1.16162
1.54209
1.53586
1.52888
1.52038
1.50947
1.4963
1.48053
1.46191
1.44014
1.41493
1.38602
1.35318
1.31631
1.27559
1.23172
1.1862
1.14155
1.10117
1.06873
1.04711
1.03734
1.03682
1.50889
1.49414
1.48366
1.46966
1.45353
1.43489
1.41341
1.38884
1.36092
1.32939
1.29405
1.25478
1.21164
1.16509
1.11615
1.06669
1.0194
0.977615
0.944591
0.922603
0.911986
0.909615
1.47125
1.45134
1.43767
1.41869
1.39798
1.3743
1.34758
1.31756
1.28401
1.24672
1.20554
1.16046
1.11169
1.05991
1.0064
0.953285
0.903434
0.86013
0.826353
0.803922
0.792512
0.788518
1.43104
1.40667
1.38918
1.36536
1.34013
1.31157
1.27986
1.24469
1.20587
1.16323
1.11669
1.06633
1.01255
0.956215
0.898903
0.842956
0.791363
0.747303
0.713424
0.691056
0.679273
0.674161
1.3891
1.36096
1.33955
1.31128
1.28171
1.24847
1.21201
1.17196
1.12817
1.08053
1.02903
0.973884
0.91566
0.855481
0.795163
0.737244
0.684751
0.640675
0.607266
0.585353
0.573492
0.567605
1.34626
1.31489
1.28959
1.25726
1.22358
1.18602
1.14517
1.10063
1.05231
1.00013
0.944203
0.884859
0.822868
0.759581
0.697043
0.637928
0.58523
0.541688
0.509132
0.487914
0.476165
0.469747
1.30339
1.26924
1.24022
1.20426
1.16679
1.12529
1.08044
1.03182
0.979421
0.923219
0.863407
0.800482
0.735405
0.66975
0.605748
0.546155
0.493861
0.451308
0.419895
0.399541
0.388037
0.381268
1.26119
1.22469
1.19224
1.15308
1.11217
1.06717
1.01875
0.966535
0.910546
0.850845
0.787731
0.721858
0.654383
0.587079
0.522328
0.462901
0.41153
0.370322
0.340259
0.320872
0.309697
0.302699
1.22053
1.1821
1.14657
1.10466
1.06073
1.01268
0.961154
0.905817
0.846747
0.784086
0.718251
0.650057
0.580848
0.512574
0.447717
0.389011
0.338978
0.299378
0.270793
0.252423
0.241618
0.234468
1.18183
1.14187
1.10367
1.05946
1.01296
0.962336
0.908184
0.850231
0.78861
0.723547
0.655588
0.585705
0.51542
0.446827
0.382461
0.324968
0.276623
0.238832
0.211809
0.194475
0.184056
0.176801
1.14601
1.1049
1.06447
1.01841
0.969792
0.917069
0.860769
0.800692
0.737028
0.670098
0.600578
0.529599
0.458839
0.390507
0.327144
0.271264
0.22487
0.189016
0.163584
0.147269
0.137226
0.129885
1.11302
1.07113
1.02888
0.981413
0.93113
0.876777
0.818815
0.75712
0.691941
0.623703
0.55321
0.481745
0.411125
0.343632
0.281771
0.227882
0.183678
0.149874
0.126055
0.110739
0.101057
0.0936367
1.08397
1.04164
0.998044
0.949583
0.898085
0.842554
0.78339
0.720543
0.65433
0.585279
0.514328
0.442899
0.372926
0.306732
0.246749
0.195113
0.153239
0.121521
0.0992872
0.0849223
0.0755668
0.0680579
1.05806
1.01556
0.971008
0.921933
0.869634
0.813353
0.753436
0.689914
0.623173
0.553852
0.483016
0.412218
0.343478
0.279119
0.221456
0.172391
0.133034
0.103477
0.0828279
0.0693838
0.0603321
0.0527294
1.03716
0.994823
0.949761
0.900486
0.847814
0.791212
0.730977
0.667216
0.600385
0.53123
0.460935
0.391164
0.323997
0.261732
0.206545
0.160101
0.123226
0.0957501
0.0766122
0.0640671
0.0554026
0.0479131
1.0365
0.994195
0.949173
0.899941
0.84732
0.790783
0.730625
0.666956
0.600236
0.531208
0.461058
0.391443
0.324438
0.262329
0.207282
0.160956
0.124175
0.0967731
0.0776964
0.0652073
0.0566067
0.0491963
1.05817
1.01563
0.971042
0.921943
0.869631
0.813352
0.753452
0.689966
0.623282
0.554043
0.483313
0.412645
0.344052
0.279849
0.222338
0.173412
0.134174
0.104715
0.0841467
0.0707737
0.0617979
0.0542864
1.08488
1.0424
0.9987
0.950138
0.898553
0.842953
0.783738
0.720862
0.654645
0.585621
0.514728
0.443392
0.373544
0.307498
0.247674
0.196195
0.154465
0.12287
0.100738
0.0864602
0.0771928
0.0697867
1.11471
1.07257
1.03013
0.982476
0.932024
0.877524
0.819436
0.757639
0.692388
0.624113
0.553623
0.482205
0.411677
0.344315
0.282613
0.228894
0.184855
0.151199
0.127505
0.112294
0.102712
0.0954045
1.14843
1.10698
1.06625
1.01992
0.97104
0.918085
0.861578
0.801322
0.737511
0.670474
0.600892
0.529904
0.459194
0.390965
0.327752
0.272048
0.225837
0.190155
0.164872
0.148678
0.138746
0.131527
1.18493
1.1445
1.1059
1.06132
1.01447
0.963522
0.909076
0.850861
0.789013
0.723767
0.655675
0.585719
0.51543
0.446902
0.382665
0.325345
0.277196
0.239597
0.212743
0.195548
0.185251
0.178123
1.22418
1.18518
1.14914
1.10676
1.06238
1.01391
0.962003
0.906319
0.84694
0.784015
0.71797
0.649631
0.580354
0.512095
0.447333
0.388786
0.338951
0.299558
0.271162
0.252946
0.242271
0.235251
1.26527
1.2281
1.19502
1.15528
1.11382
1.06831
1.01942
0.966772
0.910389
0.850339
0.786934
0.720838
0.653222
0.585871
0.521167
0.461871
0.410689
0.369695
0.339834
0.320614
0.309575
0.302705
1.30776
1.27282
1.24307
1.20643
1.1683
1.1262
1.08079
1.03165
0.978771
0.922136
0.861948
0.798716
0.733417
0.667639
0.603624
0.544119
0.491991
0.449647
0.418443
0.398264
0.386897
0.38025
1.35074
1.31849
1.29235
1.25924
1.22482
1.18657
1.14507
1.09992
1.05103
0.998338
0.941944
0.882205
0.819904
0.756411
0.693784
0.634698
0.582127
0.538776
0.506425
0.485384
0.473768
0.467459
1.39354
1.36443
1.34208
1.31292
1.28253
1.24851
1.21132
1.17058
1.12614
1.0779
1.02585
0.970222
0.911597
0.851118
0.790623
0.732658
0.680235
0.636314
0.603094
0.581351
0.569613
0.563814
1.43528
1.40986
1.39133
1.36655
1.34042
1.31099
1.27847
1.24254
1.203
1.15968
1.11251
1.06157
1.00729
0.950561
0.892974
0.836889
0.785291
0.741333
0.70761
0.685394
0.673715
0.668661
1.47516
1.45412
1.43935
1.41932
1.39763
1.37303
1.34542
1.31457
1.28022
1.24217
1.20028
1.15454
1.10518
1.0529
0.999013
0.945656
0.895709
0.852434
0.818765
0.796455
0.78512
0.781143
1.51232
1.4963
1.48467
1.46956
1.45241
1.43279
1.41037
1.38491
1.35613
1.32379
1.28767
1.24766
1.20385
1.1567
1.10728
1.05747
1.00998
0.968134
0.935152
0.913239
0.902659
0.900253
1.54525
1.53766
1.52951
1.51984
1.50784
1.49363
1.47686
1.45727
1.43457
1.40847
1.3787
1.34504
1.30739
1.26596
1.22148
1.17548
1.1305
1.08994
1.05745
1.03584
1.02606
1.02544
1.57156
1.57252
1.5666
1.56048
1.55238
1.54233
1.53002
1.51518
1.49751
1.4767
1.45249
1.42462
1.39297
1.35764
1.31922
1.27902
1.2393
1.20321
1.17423
1.15515
1.14724
1.14828
1.60257
1.60787
1.60432
1.60178
1.59726
1.591
1.58268
1.57202
1.55876
1.54264
1.52343
1.50093
1.47505
1.44593
1.41413
1.38086
1.34812
1.31862
1.29531
1.28049
1.2754
1.27845
1.63854
1.64875
1.64893
1.65038
1.64985
1.6477
1.64366
1.63748
1.62891
1.61771
1.60364
1.58651
1.56621
1.54288
1.517
1.48968
1.46272
1.43853
1.41974
1.40841
1.40587
1.41098
1.67925
1.69276
1.69621
1.70118
1.70439
1.70617
1.70626
1.7044
1.70036
1.6939
1.6848
1.67286
1.658
1.64034
1.62032
1.59892
1.57772
1.55885
1.54456
1.53666
1.53652
1.54336
1.72305
1.73994
1.74726
1.756
1.76313
1.76893
1.77317
1.77562
1.77603
1.77419
1.76988
1.76291
1.7532
1.74083
1.7262
1.71016
1.6941
1.6799
1.66951
1.66453
1.66641
1.67471
1.76971
1.78932
1.80014
1.81225
1.82298
1.83252
1.84066
1.84716
1.8518
1.85434
1.85458
1.85232
1.84747
1.84009
1.83053
1.8195
1.80822
1.79831
1.79148
1.78914
1.7928
1.80228
1.81752
1.83958
1.85393
1.86935
1.88359
1.89675
1.90863
1.91899
1.92761
1.93427
1.93874
1.94085
1.94049
1.93769
1.93272
1.92622
1.9192
1.91307
1.90933
1.90924
1.91437
1.92482
1.86549
1.88956
1.90709
1.92547
1.94287
1.9593
1.97458
1.98846
2.00073
2.01116
2.01952
2.02563
2.02937
2.03074
2.02994
2.02751
2.0243
2.02154
2.02051
2.02237
2.02875
2.03997
1.91191
1.93764
1.9581
1.9792
1.99948
2.0189
2.03726
2.05434
2.06991
2.08373
2.09559
2.10528
2.11268
2.11776
2.12066
2.1218
2.12193
2.12207
2.12338
2.12688
2.13428
2.14611
1.9554
1.98245
2.00545
2.02889
2.05167
2.07368
2.09474
2.11461
2.13307
2.14987
2.16479
2.17763
2.18823
2.19654
2.20265
2.20691
2.20991
2.21255
2.21584
2.22072
2.22896
2.24128
1.99441
2.02247
2.04763
2.07307
2.09798
2.1222
2.14556
2.16782
2.18874
2.20807
2.2256
2.24111
2.25443
2.26548
2.27431
2.28118
2.28659
2.29131
2.29624
2.30225
2.31118
2.32387
2.02767
2.05647
2.08339
2.11043
2.13705
2.16307
2.1883
2.21249
2.2354
2.25681
2.27646
2.29414
2.30967
2.32295
2.33398
2.34296
2.35032
2.35673
2.36297
2.36989
2.37934
2.39231
2.05386
2.08318
2.11141
2.13969
2.16761
2.195
2.22166
2.24733
2.27178
2.29477
2.31605
2.3354
2.35263
2.36762
2.38034
2.39094
2.39978
2.40747
2.41471
2.4223
2.43215
2.44534
2.07257
2.10222
2.13134
2.16044
2.18924
2.21754
2.24514
2.27181
2.29728
2.32133
2.34369
2.36416
2.38252
2.39864
2.41249
2.42417
2.43401
2.44255
2.45045
2.4585
2.46861
2.48195
2.08189
2.11171
2.1413
2.17084
2.20012
2.22893
2.25707
2.28429
2.31036
2.33501
2.358
2.37909
2.3981
2.41487
2.42936
2.44165
2.45204
2.46105
2.46933
2.47763
2.48789
2.50132
1.01884
1.00415
0.995393
0.990687
0.990563
0.994856
1.00324
1.01543
1.03079
1.04883
1.06867
1.08965
1.11093
1.13127
1.15138
1.16538
1.17534
1.18934
1.20526
1.22279
1.24166
1.26126
1.28102
1.30022
1.31808
1.33393
1.34665
1.35617
1.36051
1.36601
0.977076
0.963072
0.955191
0.951505
0.952496
0.958043
0.967815
0.981569
0.998683
1.01872
1.04084
1.06438
1.08877
1.11234
1.1371
1.15488
1.16633
1.18223
1.19992
1.21922
1.23984
1.26116
1.28254
1.30328
1.32251
1.33955
1.35315
1.36343
1.36802
1.37451
0.932039
0.91829
0.91101
0.908228
0.910383
0.917387
0.928899
0.944668
0.964074
0.986646
1.01158
1.03806
1.06572
1.09231
1.12077
1.14045
1.15223
1.16956
1.18875
1.2097
1.23211
1.2553
1.27857
1.30115
1.32205
1.34054
1.3552
1.36638
1.37138
1.37975
0.88306
0.86981
0.863301
0.861533
0.864893
0.873318
0.886463
0.904076
0.925568
0.950439
0.977989
1.00723
1.03816
1.06786
1.10035
1.12266
1.13512
1.15409
1.17495
1.19766
1.22188
1.24689
1.27194
1.29617
1.31856
1.33832
1.35396
1.36604
1.37159
1.38191
0.830547
0.817673
0.811814
0.810963
0.815455
0.82524
0.839983
0.859411
0.882978
0.910121
0.940269
0.972227
1.00636
1.03912
1.07548
1.10056
1.11367
1.13428
1.15684
1.18132
1.20738
1.23422
1.26104
1.28695
1.31083
1.33188
1.34854
1.36161
1.3679
1.38035
0.774173
0.761746
0.756594
0.756711
0.762375
0.773546
0.789892
0.811112
0.83671
0.866057
0.898717
0.933303
0.970517
1.00631
1.0464
1.07432
1.08832
1.11065
1.13504
1.16138
1.18932
1.21801
1.24659
1.27411
1.29942
1.32169
1.33938
1.35346
1.36063
1.37514
0.714195
0.702249
0.697825
0.698935
0.705796
0.718364
0.736313
0.759303
0.786887
0.818363
0.853423
0.890514
0.930627
0.969341
1.01291
1.04368
1.05893
1.08318
1.10959
1.13794
1.16786
1.19844
1.22876
1.25785
1.28453
1.30798
1.32669
1.34182
1.34998
1.36637
0.650799
0.639448
0.635853
0.638057
0.646213
0.660261
0.679873
0.704665
0.734223
0.76778
0.805129
0.844595
0.88738
0.928837
0.97554
1.00914
1.02619
1.05261
1.08128
1.1118
1.14379
1.17629
1.20832
1.23891
1.26688
1.29142
1.31112
1.32727
1.33647
1.35444
0.584513
0.573944
0.571347
0.57481
0.58442
0.600085
0.621465
0.648126
0.679669
0.715272
0.754791
0.796483
0.841669
0.885637
0.935041
0.971393
0.990936
1.01986
1.05104
1.08392
1.11806
1.15247
1.18616
1.21814
1.24729
1.27282
1.29345
1.31055
1.32077
1.3399
0.516181
0.50668
0.505338
0.510307
0.521603
0.539087
0.562392
0.591033
0.624603
0.662237
0.703816
0.747582
0.794875
0.841081
0.892686
0.931699
0.954473
0.986234
1.02014
1.05548
1.0918
1.12806
1.1633
1.19654
1.22673
1.25312
1.27457
1.29249
1.30365
1.32341
0.447093
0.439037
0.439286
0.446074
0.459341
0.478883
0.504298
0.535045
0.570694
0.610347
0.653876
0.699556
0.748655
0.796806
0.850087
0.89164
0.918293
0.953146
0.989878
1.02771
1.06613
1.10412
1.14075
1.17509
1.20614
1.23324
1.25538
1.27396
1.28589
1.30572
0.378988
0.372815
0.375032
0.383976
0.399504
0.421338
0.44903
0.481987
0.519742
0.561382
0.606738
0.654163
0.704776
0.754575
0.809039
0.852974
0.883922
0.921962
0.961477
1.00169
1.04205
1.08157
1.11939
1.15463
1.18637
1.21404
1.23672
1.25577
1.26826
1.28757
0.313963
0.310104
0.31464
0.326029
0.344046
0.368335
0.398396
0.433592
0.473417
0.516959
0.563988
0.61297
0.664822
0.71598
0.771211
0.817325
0.852649
0.893764
0.935862
0.978227
1.02026
1.06108
1.09986
1.13581
1.1681
1.19618
1.21927
1.23859
1.25142
1.26964
0.254237
0.253019
0.260115
0.274113
0.294713
0.321482
0.353876
0.391226
0.432987
0.478267
0.526769
0.577091
0.629927
0.682176
0.737858
0.785894
0.825325
0.869213
0.913563
0.957748
1.00117
1.04302
1.08255
1.11905
1.15175
1.18014
1.20354
1.22298
1.23593
1.25255
0.201809
0.203365
0.213075
0.229655
0.252744
0.281843
0.316374
0.355653
0.399106
0.445872
0.495597
0.547012
0.600596
0.653688
0.709606
0.759265
0.80226
0.848484
0.894681
0.940329
0.984833
1.02748
1.0676
1.10452
1.13754
1.1662
1.18984
1.20928
1.2222
1.23681
0.158092
0.162309
0.174458
0.193379
0.218663
0.249764
0.286084
0.326938
0.371741
0.419669
0.470321
0.522563
0.576673
0.630385
0.686406
0.737369
0.78324
0.831318
0.878959
0.925734
0.971073
1.01434
1.05491
1.09218
1.1255
1.15442
1.17829
1.1977
1.21052
1.22287
0.123648
0.130163
0.144363
0.165193
0.192213
0.224849
0.262498
0.304491
0.350237
0.398962
0.450228
0.503021
0.557455
0.611594
0.667639
0.7196
0.767663
0.817153
0.865894
0.913535
0.959527
1.0033
1.04427
1.08187
1.11551
1.14473
1.16888
1.1883
1.20102
1.21104
0.09809
0.106351
0.122065
0.144252
0.172454
0.20609
0.244566
0.287231
0.333505
0.382659
0.434234
0.487319
0.541898
0.596301
0.652318
0.705022
0.754711
0.805275
0.854877
0.903218
0.94977
0.994001
1.03537
1.07334
1.10734
1.13693
1.16145
1.181
1.19376
1.20162
0.0802445
0.0896101
0.10625
0.129213
0.158043
0.192159
0.230984
0.273894
0.320319
0.369576
0.421193
0.474345
0.528918
0.583457
0.639401
0.692657
0.743592
0.795022
0.84536
0.894331
0.941426
0.986137
1.02795
1.06634
1.10078
1.13082
1.15582
1.17566
1.18865
1.19476
0.0683785
0.0782294
0.0952547
0.118482
0.147463
0.181629
0.220421
0.263241
0.309534
0.358653
0.410124
0.463189
0.517665
0.57227
0.62813
0.681828
0.733783
0.785968
0.836996
0.886589
0.934248
0.979483
1.02179
1.06067
1.09561
1.12618
1.15176
1.1721
1.18558
1.19058
0.0598936
0.0696835
0.0866626
0.109758
0.138525
0.172416
0.210892
0.253378
0.299336
0.348153
0.39936
0.45225
0.506603
0.561273
0.617113
0.671302
0.724233
0.777202
0.828997
0.879304
0.927637
0.973512
1.01644
1.05591
1.09146
1.12267
1.14901
1.17015
1.18452
1.18929
0.052267
0.0616099
0.078299
0.101039
0.129379
0.162797
0.200773
0.242755
0.288226
0.336596
0.387413
0.440005
0.494154
0.548787
0.604579
0.659374
0.713524
0.767575
0.820424
0.8717
0.920936
0.96766
1.01139
1.05163
1.08792
1.11992
1.14717
1.16947
1.18521
1.19073
0.772289
0.772295
0.772299
0.772309
0.772319
0.772332
0.772346
0.772363
0.77238
0.772399
0.772418
0.772439
0.772461
0.772483
0.772506
0.77253
0.772554
0.772579
0.772604
0.772628
0.772653
0.772678
0.772702
0.772726
0.774751
0.774758
0.774762
0.774773
0.774784
0.774798
0.774813
0.774831
0.774849
0.77487
0.774891
0.774913
0.774936
0.77496
0.774985
0.775011
0.775037
0.775063
0.77509
0.775116
0.775143
0.775169
0.775195
0.775221
0.777212
0.777219
0.777224
0.777235
0.777247
0.777262
0.777279
0.777298
0.777318
0.777339
0.777362
0.777386
0.777411
0.777437
0.777464
0.777491
0.777519
0.777547
0.777576
0.777604
0.777633
0.777661
0.777689
0.777717
0.779671
0.779679
0.779684
0.779696
0.779709
0.779725
0.779743
0.779763
0.779785
0.779808
0.779832
0.779858
0.779885
0.779913
0.779941
0.779971
0.780001
0.780031
0.780061
0.780092
0.780123
0.780153
0.780183
0.780213
0.782128
0.782136
0.782142
0.782155
0.782168
0.782186
0.782205
0.782227
0.78225
0.782275
0.782301
0.782329
0.782358
0.782388
0.782418
0.78245
0.782482
0.782514
0.782547
0.78258
0.782613
0.782646
0.782678
0.78271
0.784582
0.784591
0.784597
0.784611
0.784626
0.784645
0.784666
0.784689
0.784714
0.784741
0.784769
0.784799
0.78483
0.784862
0.784894
0.784928
0.784963
0.784997
0.785033
0.785068
0.785103
0.785138
0.785173
0.785207
0.787035
0.787044
0.787051
0.787066
0.787081
0.787102
0.787124
0.78715
0.787176
0.787205
0.787235
0.787267
0.7873
0.787335
0.78737
0.787406
0.787443
0.78748
0.787518
0.787556
0.787594
0.787631
0.787668
0.787705
0.789484
0.789494
0.789501
0.789518
0.789535
0.789557
0.789581
0.789608
0.789637
0.789667
0.7897
0.789734
0.78977
0.789806
0.789844
0.789883
0.789923
0.789963
0.790003
0.790044
0.790084
0.790125
0.790165
0.790204
0.791931
0.791941
0.79195
0.791967
0.791985
0.792009
0.792035
0.792064
0.792095
0.792128
0.792163
0.7922
0.792238
0.792277
0.792318
0.792359
0.792402
0.792445
0.792488
0.792532
0.792575
0.792619
0.792661
0.792704
0.794375
0.794386
0.794395
0.794414
0.794434
0.794459
0.794487
0.794518
0.794551
0.794587
0.794624
0.794664
0.794704
0.794747
0.79479
0.794835
0.79488
0.794926
0.794973
0.79502
0.795066
0.795113
0.795159
0.795204
0.796816
0.796828
0.796838
0.796858
0.796879
0.796907
0.796937
0.79697
0.797006
0.797044
0.797084
0.797126
0.79717
0.797215
0.797262
0.79731
0.797358
0.797408
0.797458
0.797508
0.797558
0.797607
0.797657
0.797705
0.799253
0.799266
0.799277
0.799298
0.799322
0.799351
0.799383
0.799419
0.799457
0.799498
0.799541
0.799587
0.799633
0.799682
0.799732
0.799783
0.799836
0.799888
0.799942
0.799995
0.800049
0.800103
0.800155
0.800208
0.801687
0.801701
0.801713
0.801736
0.801761
0.801793
0.801827
0.801866
0.801907
0.801951
0.801997
0.802045
0.802096
0.802148
0.802201
0.802256
0.802312
0.802369
0.802426
0.802483
0.802541
0.802598
0.802655
0.802711
0.804118
0.804133
0.804145
0.80417
0.804197
0.804231
0.804268
0.80431
0.804354
0.804401
0.80445
0.804502
0.804556
0.804611
0.804669
0.804728
0.804787
0.804848
0.80491
0.804971
0.805033
0.805094
0.805155
0.805215
0.806544
0.80656
0.806574
0.806601
0.80663
0.806666
0.806706
0.806751
0.806798
0.806848
0.806901
0.806956
0.807014
0.807074
0.807135
0.807198
0.807262
0.807327
0.807393
0.807459
0.807525
0.807591
0.807656
0.807721
0.808966
0.808984
0.808998
0.809027
0.809058
0.809098
0.809141
0.809188
0.809239
0.809293
0.809349
0.809409
0.80947
0.809534
0.8096
0.809667
0.809736
0.809805
0.809876
0.809947
0.810017
0.810088
0.810158
0.810227
0.811384
0.811403
0.811419
0.81145
0.811483
0.811526
0.811571
0.811622
0.811676
0.811734
0.811795
0.811858
0.811924
0.811993
0.812063
0.812135
0.812208
0.812283
0.812358
0.812434
0.81251
0.812586
0.812661
0.812735
0.813797
0.813818
0.813835
0.813868
0.813904
0.813949
0.813999
0.814053
0.814111
0.814173
0.814238
0.814305
0.814376
0.814449
0.814524
0.814601
0.81468
0.81476
0.81484
0.814921
0.815003
0.815084
0.815164
0.815244
0.816205
0.816227
0.816246
0.816281
0.81632
0.816369
0.816422
0.81648
0.816542
0.816608
0.816677
0.81675
0.816825
0.816903
0.816984
0.817066
0.81715
0.817235
0.817322
0.817409
0.817496
0.817583
0.817669
0.817754
0.818608
0.818632
0.818652
0.81869
0.818732
0.818784
0.81884
0.818903
0.818969
0.81904
0.819114
0.819191
0.819272
0.819355
0.819441
0.819529
0.819619
0.81971
0.819802
0.819895
0.819989
0.820082
0.820174
0.820266
0.821005
0.821031
0.821052
0.821093
0.821138
0.821194
0.821255
0.821321
0.821392
0.821467
0.821546
0.821629
0.821715
0.821804
0.821896
0.82199
0.822086
0.822183
0.822282
0.822382
0.822482
0.822582
0.822681
0.822779
0.823396
0.823424
0.823448
0.823491
0.82354
0.823599
0.823664
0.823735
0.823811
0.823891
0.823976
0.824064
0.824156
0.82425
0.824348
0.824449
0.824551
0.824655
0.824761
0.824868
0.824975
0.825082
0.825188
0.825294
0.825781
0.825812
0.825837
0.825884
0.825935
0.825999
0.826068
0.826145
0.826225
0.826311
0.826401
0.826495
0.826593
0.826694
0.826798
0.826905
0.827014
0.827126
0.827239
0.827353
0.827467
0.827582
0.827696
0.82781
0.82816
0.828193
0.82822
0.82827
0.828325
0.828394
0.828467
0.828549
0.828635
0.828726
0.828822
0.828922
0.829026
0.829134
0.829245
0.829359
0.829476
0.829595
0.829715
0.829837
0.82996
0.830083
0.830205
0.830327
0.830532
0.830567
0.830596
0.83065
0.830709
0.830782
0.830861
0.830948
0.831039
0.831136
0.831238
0.831345
0.831455
0.83157
0.831689
0.83181
0.831935
0.832062
0.83219
0.832321
0.832452
0.832584
0.832715
0.832846
0.832897
0.832935
0.832966
0.833024
0.833087
0.833165
0.833249
0.833341
0.833438
0.833541
0.83365
0.833763
0.833881
0.834003
0.834129
0.834258
0.834391
0.834526
0.834664
0.834803
0.834944
0.835085
0.835225
0.835366
0.835254
0.835295
0.835328
0.83539
0.835458
0.835541
0.83563
0.835728
0.835831
0.835941
0.836056
0.836176
0.836302
0.836431
0.836565
0.836703
0.836844
0.836988
0.837135
0.837284
0.837434
0.837585
0.837736
0.837887
0.837603
0.837648
0.837683
0.837749
0.837821
0.83791
0.838005
0.838109
0.838219
0.838335
0.838457
0.838585
0.838717
0.838855
0.838997
0.839144
0.839294
0.839448
0.839604
0.839763
0.839924
0.840086
0.840248
0.840409
0.839945
0.839993
0.840031
0.840101
0.840178
0.840272
0.840373
0.840483
0.8406
0.840723
0.840852
0.840987
0.841128
0.841274
0.841425
0.841581
0.84174
0.841904
0.842071
0.84224
0.842412
0.842585
0.842759
0.842933
0.842278
0.842329
0.84237
0.842445
0.842527
0.842627
0.842734
0.842851
0.842974
0.843104
0.843241
0.843384
0.843533
0.843688
0.843848
0.844013
0.844182
0.844356
0.844534
0.844715
0.844898
0.845084
0.84527
0.845456
0.844602
0.844658
0.844701
0.844781
0.844868
0.844974
0.845087
0.845211
0.845341
0.845479
0.845623
0.845775
0.845932
0.846095
0.846265
0.84644
0.84662
0.846805
0.846994
0.847186
0.847382
0.847581
0.84778
0.847981
0.846917
0.846977
0.847023
0.847108
0.8472
0.847313
0.847433
0.847563
0.847701
0.847846
0.847999
0.848158
0.848324
0.848497
0.848676
0.848861
0.849052
0.849248
0.849449
0.849654
0.849864
0.850076
0.85029
0.850505
0.849223
0.849288
0.849337
0.849427
0.849525
0.849644
0.84977
0.849908
0.850053
0.850206
0.850366
0.850534
0.850709
0.850891
0.85108
0.851276
0.851478
0.851686
0.851899
0.852118
0.852341
0.852568
0.852797