/*--------------------------------*- C++ -*----------------------------------*\
| =========                 |                                                 |
| \\      /  F ield         | OpenFOAM Extend Project: Open source CFD        |
|  \\    /   O peration     | Version:  1.6-ext                               |
|   \\  /    A nd           | Web:      www.extend-project.de                 |
|    \\/     M anipulation  |                                                 |
\*---------------------------------------------------------------------------*/
FoamFile
{
    version     2.0;
    format      ascii;
    class       surfaceScalarField;
    location    "0.1";
    object      phi;
}
// * * * * * * * * * * * * * * * * * * * * * * * * * * * * * * * * * * * * * //

dimensions      [0 3 -1 0 0 0 0];

internalField   nonuniform List<scalar> 
41420
(
-4.16652e-05
0.000327311
-0.000328032
4.23856e-05
-4.09469e-05
0.000311888
-0.000312606
-4.02217e-05
0.00029753
-0.000298255
-3.94908e-05
0.000283941
-0.000284672
-3.8746e-05
0.000271005
-0.00027175
-3.79578e-05
0.000258523
-0.000259311
-3.70692e-05
0.000246285
-0.000247174
-3.59949e-05
0.000234018
-0.000235092
-3.46306e-05
0.000221391
-0.000222755
-3.28696e-05
0.000208039
-0.0002098
-3.06269e-05
0.000193616
-0.000195858
-2.78652e-05
0.000177865
-0.000180627
-2.4614e-05
0.000160698
-0.00016395
-2.09766e-05
0.000142238
-0.000145875
-1.71203e-05
0.000122825
-0.000126682
-1.32539e-05
0.000102977
-0.000106843
-9.5968e-06
8.33045e-05
-8.69615e-05
-6.35102e-06
6.44231e-05
-6.76689e-05
-3.67939e-06
4.68703e-05
-4.95419e-05
-1.69551e-06
3.10509e-05
-3.30348e-05
-4.62864e-07
1.72139e-05
-1.84466e-05
5.45477e-06
-5.91763e-06
-4.16603e-05
0.00032635
4.26217e-05
-4.07427e-05
0.00031097
-3.98575e-05
0.000296645
-3.89989e-05
0.000283082
-3.81494e-05
0.000270155
-3.72706e-05
0.000257644
-3.62979e-05
0.000245313
-3.51422e-05
0.000232862
-3.36993e-05
0.000219948
-3.18682e-05
0.000206208
-2.95742e-05
0.000191322
-2.67925e-05
0.000175084
-2.35636e-05
0.000157469
-1.99962e-05
0.000138671
-1.62551e-05
0.000119084
-1.25379e-05
9.92598e-05
-9.04724e-06
7.98138e-05
-5.96584e-06
6.13417e-05
-3.43955e-06
4.4344e-05
-1.57011e-06
2.91815e-05
-4.16026e-07
1.60598e-05
5.03875e-06
-4.72153e-05
0.000324726
4.88392e-05
-4.57023e-05
0.000309457
-4.42816e-05
0.000295224
-4.29365e-05
0.000281737
-4.16379e-05
0.000268857
-4.03346e-05
0.000256341
-3.89522e-05
0.00024393
-3.73942e-05
0.000231304
-3.55545e-05
0.000218108
-3.3336e-05
0.00020399
-3.06744e-05
0.00018866
-2.75586e-05
0.000171968
-2.40436e-05
0.000153955
-2.02492e-05
0.000134876
-1.63448e-05
0.00011518
-1.25252e-05
9.54402e-05
-8.98391e-06
7.62725e-05
-5.89062e-06
5.82484e-05
-3.37699e-06
4.18304e-05
-1.53165e-06
2.73362e-05
-4.01855e-07
1.493e-05
4.63689e-06
-5.19715e-05
0.000322472
5.4226e-05
-4.98955e-05
0.000307382
-4.79698e-05
0.000293298
-4.61688e-05
0.000279936
-4.44518e-05
0.00026714
-4.27561e-05
0.000254645
-4.09977e-05
0.000242172
-3.90743e-05
0.000229381
-3.68795e-05
0.000215914
-3.43219e-05
0.000201432
-3.13475e-05
0.000185686
-2.79587e-05
0.000168579
-2.42225e-05
0.000150218
-2.0266e-05
0.00013092
-1.62596e-05
0.000111173
-1.2392e-05
9.15726e-05
-8.84531e-06
7.27259e-05
-5.7751e-06
5.51782e-05
-3.29861e-06
3.93539e-05
-1.49141e-06
2.5529e-05
-3.90345e-07
1.3829e-05
4.24654e-06
-5.54902e-05
0.000319655
5.83065e-05
-5.29172e-05
0.000304808
-5.05474e-05
0.000290928
-4.83479e-05
0.000277737
-4.62688e-05
0.000265061
-4.42377e-05
0.000252614
-4.21632e-05
0.000240097
-3.99398e-05
0.000227158
-3.74621e-05
0.000213436
-3.46453e-05
0.000198615
-3.14455e-05
0.000182486
-2.78759e-05
0.000165009
-2.40116e-05
0.000146354
-1.99828e-05
0.000126891
-1.59561e-05
0.000107147
-1.21107e-05
8.77271e-05
-8.6149e-06
6.92301e-05
-5.60948e-06
5.21728e-05
-3.19766e-06
3.6942e-05
-1.44405e-06
2.37753e-05
-3.77926e-07
1.27629e-05
3.86862e-06
-5.78129e-05
0.000316336
6.11323e-05
-5.47985e-05
0.000301794
-5.2038e-05
0.000288168
-4.94936e-05
0.000275192
-4.71067e-05
0.000262674
-4.47978e-05
0.000250305
-4.24701e-05
0.00023777
-4.00159e-05
0.000224703
-3.73329e-05
0.000210753
-3.43424e-05
0.000195625
-3.10089e-05
0.000179152
-2.73528e-05
0.000161353
-2.34534e-05
0.000142455
-1.9439e-05
0.000122877
-1.54684e-05
0.000103176
-1.17081e-05
8.39668e-05
-8.31193e-06
6.58339e-05
-5.40555e-06
4.92664e-05
-3.08009e-06
3.46166e-05
-1.39156e-06
2.20868e-05
-3.64881e-07
1.17362e-05
3.50374e-06
-5.90389e-05
0.000312579
6.27955e-05
-5.56418e-05
0.000298397
-5.2542e-05
0.000285068
-4.96996e-05
0.00027235
-4.70512e-05
0.000260025
-4.45133e-05
0.000247767
-4.19871e-05
0.000235243
-3.9366e-05
0.000222082
-3.6551e-05
0.000207938
-3.34693e-05
0.000192543
-3.00912e-05
0.000175774
-2.64405e-05
0.000157703
-2.25949e-05
0.000138609
-1.86761e-05
0.000118958
-1.4831e-05
9.93311e-05
-1.12115e-05
8.03472e-05
-7.9555e-06
6.25779e-05
-5.17548e-06
4.64864e-05
-2.95237e-06
3.23935e-05
-1.33661e-06
2.04711e-05
-3.51778e-07
1.07514e-05
3.15196e-06
-5.92832e-05
0.000308424
6.34381e-05
-5.55393e-05
0.000294653
-5.21377e-05
0.000281667
-4.90374e-05
0.00026925
-4.6172e-05
0.00025716
-4.34555e-05
0.000245051
-4.07886e-05
0.000232576
-3.80664e-05
0.00021936
-3.51939e-05
0.000205066
-3.21024e-05
0.000189452
-2.87652e-05
0.000172437
-2.5205e-05
0.000154142
-2.14941e-05
0.000134898
-1.77426e-05
0.000115206
-1.40828e-05
9.56712e-05
-1.06497e-05
7.69142e-05
-7.56628e-06
5.94945e-05
-4.93259e-06
4.38527e-05
-2.82216e-06
3.0283e-05
-1.28273e-06
1.89316e-05
-3.39637e-07
9.80826e-06
2.81232e-06
-5.8758e-05
0.000303933
6.32497e-05
-5.47132e-05
0.000290608
-5.10436e-05
0.000277997
-4.77108e-05
0.000265917
-4.46519e-05
0.000254101
-4.17841e-05
0.000242183
-3.90121e-05
0.000229804
-3.62351e-05
0.000216583
-3.33626e-05
0.000202193
-3.03285e-05
0.000186417
-2.71047e-05
0.000169213
-2.37087e-05
0.000150746
-2.02014e-05
0.000131391
-1.6678e-05
0.000111683
-1.32529e-05
9.22461e-05
-1.00437e-05
7.37049e-05
-7.15789e-06
5.66087e-05
-4.68514e-06
4.138e-05
-2.69372e-06
2.82916e-05
-1.23157e-06
1.74695e-05
-3.28673e-07
8.90537e-06
2.48365e-06
-5.76079e-05
0.000299111
6.24292e-05
-5.32703e-05
0.000286271
-4.93517e-05
0.000274078
-4.58133e-05
0.000262378
-4.25938e-05
0.000250882
-3.96128e-05
0.000239202
-3.67797e-05
0.000226971
-3.39981e-05
0.000213802
-3.1181e-05
0.000199376
-2.82636e-05
0.0001835
-2.52143e-05
0.000166164
-2.20414e-05
0.000147573
-1.87915e-05
0.000128141
-1.55415e-05
0.000108433
-1.23862e-05
8.90908e-05
-9.42506e-06
7.07438e-05
-6.7516e-06
5.39353e-05
-4.44643e-06
3.90748e-05
-2.57473e-06
2.64199e-05
-1.18695e-06
1.60817e-05
-3.20247e-07
8.03866e-06
2.1634e-06
-5.61304e-05
0.000294035
6.1207e-05
-5.15351e-05
0.000281675
-4.7375e-05
0.000269918
-4.3622e-05
0.000258625
-4.02301e-05
0.00024749
-3.71295e-05
0.000236102
-3.42389e-05
0.000224081
-3.14692e-05
0.000211032
-2.87362e-05
0.000196643
-2.59735e-05
0.000180737
-2.31424e-05
0.000163333
-2.02378e-05
0.000144669
-1.72878e-05
0.000125191
-1.43479e-05
0.000105493
-1.1491e-05
8.6234e-05
-8.79805e-06
6.80508e-05
-6.34851e-06
5.14857e-05
-4.21557e-06
3.69418e-05
-2.46332e-06
2.46677e-05
-1.14695e-06
1.47653e-05
-3.13127e-07
7.20484e-06
1.85027e-06
-5.44311e-05
0.00028868
5.97858e-05
-4.95736e-05
0.000276818
-4.51931e-05
0.000265538
-4.12528e-05
0.000254685
-3.77144e-05
0.000243951
-3.45173e-05
0.000232904
-3.15903e-05
0.000221154
-2.88529e-05
0.000208294
-2.62258e-05
0.000194016
-2.36405e-05
0.000178152
-2.10499e-05
0.000160742
-1.84334e-05
0.000142052
-1.57992e-05
0.000122557
-1.31803e-05
0.000102874
-1.06284e-05
8.3682e-05
-8.20538e-06
6.56278e-05
-5.97784e-06
4.92582e-05
-4.01203e-06
3.4976e-05
-2.37198e-06
2.30276e-05
-1.11889e-06
1.35122e-05
-3.10534e-07
6.39648e-06
1.53974e-06
-5.2867e-05
0.000283144
5.84035e-05
-4.77579e-05
0.000271709
-4.31188e-05
0.000260899
-3.89371e-05
0.000250503
-3.51961e-05
0.00024021
-3.1854e-05
0.000229562
-2.88541e-05
0.000218154
-2.6126e-05
0.000205566
-2.35954e-05
0.000191485
-2.11914e-05
0.000175748
-1.88554e-05
0.000158406
-1.65481e-05
0.000139745
-1.42532e-05
0.000120262
-1.19773e-05
0.000100598
-9.7475e-06
8.14522e-05
-7.60644e-06
6.34868e-05
-5.60755e-06
4.72593e-05
-3.8113e-06
3.31798e-05
-2.28288e-06
2.14992e-05
-1.09104e-06
1.23204e-05
-3.06702e-07
5.61214e-06
1.23304e-06
-5.13789e-05
0.000277473
5.70496e-05
-4.60973e-05
0.000266427
-4.13015e-05
0.000256103
-3.69566e-05
0.000246159
-3.30618e-05
0.000236315
-2.95962e-05
0.000226097
-2.65217e-05
0.000215079
-2.37842e-05
0.000202829
-2.13183e-05
0.000189019
-1.9055e-05
0.000173485
-1.69289e-05
0.00015628
-1.48857e-05
0.000137702
-1.28884e-05
0.000118265
-1.09193e-05
9.86292e-05
-8.9815e-06
7.95144e-05
-7.09728e-06
6.16025e-05
-5.30594e-06
4.5468e-05
-3.66123e-06
3.15351e-05
-2.22894e-06
2.00669e-05
-1.08492e-06
1.11764e-05
-3.12537e-07
4.83976e-06
9.20503e-07
-5.02604e-05
0.000271701
5.6032e-05
-4.46351e-05
0.000260802
-3.95339e-05
0.000251002
-3.49239e-05
0.000241549
-3.07934e-05
0.000232185
-2.71434e-05
0.000222447
-2.39526e-05
0.000211889
-2.11835e-05
0.00020006
-1.878e-05
0.000186616
-1.66728e-05
0.000171377
-1.47854e-05
0.000154392
-1.30434e-05
0.00013596
-1.13825e-05
0.000116604
-9.75602e-06
9.70027e-05
-8.13955e-06
7.78979e-05
-6.53308e-06
5.99961e-05
-4.96161e-06
4.38965e-05
-3.47398e-06
3.00474e-05
-2.14034e-06
1.87333e-05
-1.04821e-06
1.00842e-05
-2.98583e-07
4.09013e-06
6.2192e-07
-0.000238234
0.0002543
0.000255635
-0.000221777
0.000244345
-0.000206044
0.000235268
-0.000190833
0.000226338
-0.000175896
0.000217248
-0.00016101
0.00020756
-0.000145972
0.000196851
-0.000130666
0.000184754
-0.000115095
0.000171045
-9.93987e-05
0.000155681
-8.38499e-05
0.000138844
-6.88172e-05
0.000120927
-5.47084e-05
0.000102495
-4.19069e-05
8.42013e-05
-3.07186e-05
6.67096e-05
-2.1337e-05
5.06145e-05
-1.38323e-05
3.63918e-05
-8.15857e-06
2.43737e-05
-4.17349e-06
1.47482e-05
-1.66276e-06
7.5735e-06
-3.65722e-07
2.79309e-06
2.56198e-07
-0.00023159
0.000236951
0.00024894
-0.00021508
0.000227834
-0.000199202
0.000219391
-0.000183749
0.000210885
-0.000168486
0.000201985
-0.000153233
0.000192307
-0.000137847
0.000181465
-0.000122293
0.000169201
-0.000106652
0.000155403
-9.11243e-05
0.000140154
-7.60138e-05
0.000123733
-6.16777e-05
0.000106591
-4.84743e-05
8.92913e-05
-3.67111e-05
7.24382e-05
-2.66069e-05
5.66053e-05
-1.82721e-05
4.22797e-05
-1.17084e-05
2.98281e-05
-6.82164e-06
1.94869e-05
-3.44223e-06
1.13688e-05
-1.34794e-06
5.47922e-06
-2.86846e-07
1.732e-06
-3.06484e-08
-0.000224648
0.00021943
0.000242168
-0.000207946
0.000211133
-0.000191803
0.000203248
-0.000176006
0.000195087
-0.00016037
0.000186349
-0.000144761
0.000176699
-0.000129106
0.00016581
-0.00011344
0.000153534
-9.79027e-05
0.000139866
-8.27335e-05
0.000124985
-6.82358e-05
0.000109235
-5.47334e-05
9.30888e-05
-4.25232e-05
7.70811e-05
-3.1835e-05
6.175e-05
-2.28074e-05
4.75777e-05
-1.54795e-05
3.49519e-05
-9.79811e-06
2.41467e-05
-5.63332e-06
1.53222e-05
-2.79929e-06
8.53476e-06
-1.07447e-06
3.7544e-06
-2.20658e-07
8.78188e-07
-2.51307e-07
-0.000217482
0.000201668
0.000235244
-0.0002005
0.000194151
-0.000184003
0.000186751
-0.000167814
0.000178899
-0.000151806
0.000170341
-0.000135889
0.000160782
-0.00012006
0.000149981
-0.000104414
0.000137888
-8.91327e-05
0.000124584
-7.44691e-05
0.000110321
-6.07076e-05
9.5474e-05
-4.81241e-05
8.05052e-05
-3.69472e-05
6.59042e-05
-2.73312e-05
5.21341e-05
-1.9343e-05
3.95894e-05
-1.29623e-05
2.85712e-05
-8.0936e-06
1.9278e-05
-4.58288e-06
1.18114e-05
-2.23647e-06
6.18836e-06
-8.38351e-07
2.35628e-06
-1.6537e-07
2.05206e-07
-4.16677e-07
-0.000210192
0.000183601
0.000228259
-0.000192836
0.000176795
-0.000175918
0.000169833
-0.000159322
0.000162303
-0.000142968
0.000153986
-0.000126817
0.000144632
-0.00011093
0.000134094
-9.54415e-05
0.000122399
-8.05572e-05
0.0001097
-6.65218e-05
9.62855e-05
-5.35849e-05
8.25371e-05
-4.19656e-05
6.88859e-05
-3.18241e-05
5.57627e-05
-2.32455e-05
4.35554e-05
-1.62353e-05
3.25793e-05
-1.07265e-05
2.30623e-05
-6.59267e-06
1.51442e-05
-3.66502e-06
8.8838e-06
-1.74826e-06
4.27159e-06
-6.3508e-07
1.2431e-06
-1.18204e-07
-3.1167e-07
-5.34881e-07
-0.000202854
0.000165159
0.000221296
-0.000185053
0.000158994
-0.000167688
0.000152468
-0.000150702
0.000145316
-0.000134054
0.000137338
-0.000117763
0.000128341
-0.000101934
0.000118265
-8.67298e-05
0.000107194
-7.23567e-05
9.53269e-05
-5.90361e-05
8.29649e-05
-4.69719e-05
7.04729e-05
-3.63235e-05
5.82375e-05
-2.71867e-05
4.66259e-05
-1.9586e-05
3.59548e-05
-1.34774e-05
2.64706e-05
-8.75791e-06
1.83428e-05
-5.28009e-06
1.16664e-05
-2.86695e-06
6.47066e-06
-1.32587e-06
2.73051e-06
-4.59987e-07
3.77218e-07
-7.77233e-08
-6.93934e-07
-6.12604e-07
-0.000195768
0.000146258
0.000214669
-0.000177467
0.000140694
-0.000159644
0.000134644
-0.000142286
0.000127959
-0.000125398
0.00012045
-0.000109048
0.000111991
-9.33692e-05
0.000102587
-7.85355e-05
9.23608e-05
-6.47405e-05
8.15319e-05
-5.21703e-05
7.03947e-05
-4.09782e-05
5.92809e-05
-3.12651e-05
4.85244e-05
-2.30689e-05
3.84297e-05
-1.63636e-05
2.92495e-05
-1.10658e-05
2.11729e-05
-7.04651e-06
1.43235e-05
-4.14433e-06
8.76418e-06
-2.17897e-06
4.5053e-06
-9.62737e-07
1.51428e-06
-3.09687e-07
-2.75832e-07
-4.29298e-08
-9.60691e-07
-6.55534e-07
-0.000189017
0.000126848
0.000208427
-0.000170202
0.000121879
-0.000151939
0.000116381
-0.000134253
0.000110273
-0.000117192
0.000103388
-0.000100861
9.566e-05
-8.541e-05
8.71359e-05
-7.10081e-05
7.79589e-05
-5.78247e-05
6.83485e-05
-4.60047e-05
5.85747e-05
-3.56506e-05
4.89268e-05
-2.68099e-05
3.96836e-05
-1.94708e-05
3.10907e-05
-1.35667e-05
2.33454e-05
-8.98433e-06
1.65905e-05
-5.57596e-06
1.09151e-05
-3.17181e-06
6.36003e-06
-1.59145e-06
2.92494e-06
-6.53235e-07
5.76063e-07
-1.81708e-07
-7.47359e-07
-1.32578e-08
-1.12914e-06
-6.68792e-07
-0.000182873
0.000106895
0.000202826
-0.000163544
0.00010255
-0.000144864
9.77013e-05
-0.00012689
9.2299e-05
-0.00010971
8.62077e-05
-9.34523e-05
7.94025e-05
-7.82704e-05
7.1954e-05
-6.43185e-05
6.4007e-05
-5.17345e-05
5.57646e-05
-4.06213e-05
4.74615e-05
-3.10338e-05
3.93393e-05
-2.29732e-05
3.16231e-05
-1.6388e-05
2.45055e-05
-1.11797e-05
1.8137e-05
-7.21297e-06
1.26238e-05
-4.32716e-06
8.02933e-06
-2.34733e-06
4.38021e-06
-1.09407e-06
1.67168e-06
-3.91597e-07
-1.26412e-07
-7.36867e-08
-1.06527e-06
1.17854e-08
-1.21461e-06
-6.57006e-07
-0.000177507
8.63918e-05
0.00019801
-0.000157681
8.2724e-05
-0.000138616
7.86358e-05
-0.000120394
7.40775e-05
-0.000103135
6.89485e-05
-8.69793e-05
6.32467e-05
-7.2073e-05
5.70477e-05
-5.85495e-05
5.04834e-05
-4.65132e-05
4.37283e-05
-3.60275e-05
3.69758e-05
-2.71067e-05
3.04185e-05
-1.97151e-05
2.42314e-05
-1.37699e-05
1.85603e-05
-9.14953e-06
1.35166e-05
-5.70265e-06
9.17691e-06
-3.25928e-06
5.58595e-06
-1.64035e-06
2.76128e-06
-6.66883e-07
6.9821e-07
-1.66993e-07
-6.26302e-07
1.86541e-08
-1.25092e-06
3.29208e-08
-1.22888e-06
-6.24085e-07
-0.0001726
6.53912e-05
0.0001936
-0.000152349
6.24735e-05
-0.000132972
5.92586e-05
-0.000114573
5.56784e-05
-9.72902e-05
5.16657e-05
-8.12672e-05
4.72237e-05
-6.66378e-05
4.24183e-05
-5.35122e-05
3.73578e-05
-4.19644e-05
3.21805e-05
-3.20243e-05
2.70357e-05
-2.36744e-05
2.20686e-05
-1.68508e-05
1.74079e-05
-1.14488e-05
1.31583e-05
-7.32993e-06
9.39776e-06
-4.33155e-06
6.17854e-06
-2.27596e-06
3.53037e-06
-9.79744e-07
1.46506e-06
-2.61966e-07
-1.95684e-08
4.86536e-08
-9.36921e-07
1.08253e-07
-1.31052e-06
5.36784e-08
-1.17431e-06
-5.70407e-07
-0.000165958
4.42047e-05
0.000187145
-0.000145613
4.21276e-05
-0.000126237
3.98833e-05
-0.000107948
3.73888e-05
-9.08866e-05
3.46047e-05
-7.51934e-05
3.15304e-05
-6.09883e-05
2.82132e-05
-4.83611e-05
2.47307e-05
-3.73616e-05
2.1181e-05
-2.79947e-05
1.76688e-05
-2.02201e-05
1.4294e-05
-1.39552e-05
1.1143e-05
-9.0808e-06
8.28385e-06
-5.44831e-06
5.76527e-06
-2.88813e-06
3.61835e-06
-1.21784e-06
1.86008e-06
-2.50433e-07
4.97657e-07
1.97979e-07
-4.6798e-07
3.01067e-07
-1.04001e-06
2.16161e-07
-1.22561e-06
7.91347e-08
-1.03728e-06
-4.91272e-07
-0.000151345
2.39265e-05
0.000171623
-0.000132
2.27826e-05
-0.000113656
2.15395e-05
-9.64263e-05
2.0159e-05
-8.04396e-05
1.8618e-05
-6.58248e-05
1.69157e-05
-5.26885e-05
1.50769e-05
-4.11047e-05
1.31468e-05
-3.11063e-05
1.11825e-05
-2.26824e-05
9.24497e-06
-1.57797e-05
7.39128e-06
-1.03061e-05
5.66943e-06
-6.13772e-06
4.11546e-06
-3.12568e-06
2.75323e-06
-1.10357e-06
1.59624e-06
1.0566e-07
6.5085e-07
6.83414e-07
-8.00975e-08
8.0938e-07
-5.93946e-07
6.55622e-07
-8.86252e-07
3.808e-07
-9.50787e-07
1.2412e-07
-7.80599e-07
-3.67152e-07
-0.000117161
7.40248e-06
0.000133685
-0.000101507
7.12908e-06
-8.67219e-05
6.7544e-06
-7.28894e-05
6.32653e-06
-6.01069e-05
5.83546e-06
-4.8478e-05
5.28673e-06
-3.80889e-05
4.6879e-06
-2.89978e-05
4.0557e-06
-2.12264e-05
3.41113e-06
-1.4758e-05
2.7766e-06
-9.53944e-06
2.17269e-06
-5.48588e-06
1.61588e-06
-2.4879e-06
1.11748e-06
-4.1834e-07
6.83673e-07
8.61355e-07
3.16546e-07
1.49636e-06
1.58458e-08
1.63509e-06
-2.18829e-07
1.42693e-06
-3.85787e-07
1.02015e-06
-4.79468e-07
5.58899e-07
-4.89538e-07
1.78166e-07
-3.99866e-07
-1.88986e-07
-5.05894e-05
5.80346e-05
-4.34177e-05
-3.66215e-05
-3.02541e-05
-2.43791e-05
-1.90542e-05
-1.43298e-05
-1.02392e-05
-6.79483e-06
-3.98671e-06
-1.78423e-06
-1.40273e-07
1.00354e-06
1.71179e-06
2.05109e-06
2.08779e-06
1.88778e-06
1.51859e-06
1.05326e-06
5.75068e-07
1.83382e-07
0.000253014
2.21039e-05
2.94214e-06
-0.00027806
0.000229905
2.05246e-05
2.58473e-06
0.000208493
1.91275e-05
2.28409e-06
0.000188588
1.78743e-05
2.03037e-06
0.00017003
1.67433e-05
1.81554e-06
0.00015268
1.57162e-05
1.63292e-06
0.000136426
1.47779e-05
1.47702e-06
0.000121166
1.39162e-05
1.34331e-06
0.000106817
1.31208e-05
1.22808e-06
9.33067e-05
1.23822e-05
1.12822e-06
8.05754e-05
1.16903e-05
1.04107e-06
6.85796e-05
1.10317e-05
9.64117e-07
5.72975e-05
1.03873e-05
8.94782e-07
4.67367e-05
9.73068e-06
8.30107e-07
3.69419e-05
9.02818e-06
7.66614e-07
2.79985e-05
8.24299e-06
7.0038e-07
2.00298e-05
7.34132e-06
6.27387e-07
1.31861e-05
6.29963e-06
5.44075e-07
7.62777e-06
5.11042e-06
4.47933e-07
3.50479e-06
3.78503e-06
3.37943e-07
9.37148e-07
2.35289e-06
2.14754e-07
8.5669e-07
8.04579e-08
0.000252375
4.70128e-05
-0.000277284
0.000229379
4.35208e-05
0.00020806
4.04464e-05
0.000188232
3.77021e-05
0.000169737
3.52378e-05
0.000152442
3.30113e-05
0.000136233
3.09874e-05
0.000121011
2.91376e-05
0.000106694
2.74378e-05
9.32102e-05
2.58663e-05
8.05004e-05
2.44001e-05
6.85219e-05
2.30102e-05
5.72533e-05
2.16559e-05
4.67031e-05
2.0281e-05
3.69163e-05
1.88149e-05
2.79793e-05
1.718e-05
2.00157e-05
1.53049e-05
1.31764e-05
1.3139e-05
7.62179e-06
1.0665e-05
3.50188e-06
7.90494e-06
9.36315e-07
4.91846e-06
1.793e-06
0.000250714
7.15797e-05
-0.000275281
0.000228002
6.62328e-05
0.000206917
6.15313e-05
0.000187283
5.73357e-05
0.000168951
5.35707e-05
0.000151791
5.01713e-05
0.000135694
4.70835e-05
0.000120568
4.42636e-05
0.000106332
4.16746e-05
9.29151e-05
3.92829e-05
8.02618e-05
3.70534e-05
6.83305e-05
3.49416e-05
5.7101e-05
3.28853e-05
4.65829e-05
3.0799e-05
3.68228e-05
2.8575e-05
2.79079e-05
2.6095e-05
1.99629e-05
2.32498e-05
1.31396e-05
1.99623e-05
7.59872e-06
1.62059e-05
3.49008e-06
1.20136e-05
9.3259e-07
7.47595e-06
2.7256e-06
0.000248351
9.56419e-05
-0.000272414
0.000226059
8.85255e-05
0.000205319
8.2271e-05
0.000185972
7.66831e-05
0.000167876
7.16658e-05
0.000150914
6.71334e-05
0.000134983
6.30149e-05
0.000119994
5.92525e-05
0.000105871
5.57973e-05
9.25491e-05
5.26051e-05
7.99735e-05
4.9629e-05
6.81054e-05
4.68096e-05
5.69269e-05
4.40638e-05
4.64494e-05
4.12765e-05
3.67213e-05
3.83031e-05
2.78317e-05
3.49846e-05
1.99072e-05
3.11743e-05
1.31008e-05
2.67687e-05
7.57436e-06
2.17323e-05
3.4776e-06
1.61103e-05
9.28661e-07
1.00249e-05
3.65426e-06
0.000245528
0.000119063
-0.000268949
0.000223766
0.000110287
0.000203462
0.000102575
0.000184475
9.56702e-05
0.000166678
8.94629e-05
0.000149963
8.38486e-05
0.000134236
7.87419e-05
0.000119416
7.40727e-05
0.000105431
6.97817e-05
9.22215e-05
6.58149e-05
7.9736e-05
6.21145e-05
6.79387e-05
5.8607e-05
5.68141e-05
5.51884e-05
4.63758e-05
5.17147e-05
3.66747e-05
4.80043e-05
2.78023e-05
4.3857e-05
1.98881e-05
3.90885e-05
1.30879e-05
3.35689e-05
7.56561e-06
2.72546e-05
3.47238e-06
2.02036e-05
9.26565e-07
1.25707e-05
4.58082e-06
0.000242674
0.000141761
-0.000265372
0.000221508
0.000131453
0.00020169
0.000122394
0.000183101
0.000114259
0.00016563
0.000106934
0.000149181
0.000100297
0.000133671
9.4252e-05
0.000119026
8.87176e-05
0.000105182
8.3626e-05
9.20819e-05
7.89145e-05
7.96804e-05
7.45159e-05
6.79443e-05
7.03431e-05
5.68605e-05
6.62722e-05
4.6445e-05
6.21302e-05
3.67511e-05
5.76982e-05
2.78736e-05
5.27345e-05
1.9946e-05
4.70161e-05
1.31284e-05
4.03865e-05
7.58899e-06
3.2794e-05
3.48222e-06
2.43103e-05
9.28405e-07
1.51245e-05
5.50923e-06
0.000240061
0.000163695
-0.000261996
0.000219519
0.000151995
0.000200206
0.000141707
0.000182028
0.000132437
0.000164892
0.00012407
0.000148715
0.000116475
0.000133422
0.000109544
0.000118949
0.00010319
0.000105238
9.73372e-05
9.22376e-05
9.19152e-05
7.99053e-05
8.68482e-05
6.82116e-05
8.20369e-05
5.7146e-05
7.73378e-05
4.67267e-05
7.25495e-05
3.70097e-05
6.74152e-05
2.80939e-05
6.16504e-05
2.01179e-05
5.49921e-05
1.32485e-05
4.72559e-05
7.66086e-06
3.83817e-05
3.51534e-06
2.84558e-05
9.36719e-07
1.77031e-05
6.44594e-06
0.000237948
0.000184851
-0.000259104
0.00021804
0.000171903
0.000199235
0.000160513
0.000181464
0.000150208
0.00016465
0.000140884
0.000148725
0.0001324
0.000133628
0.000124641
0.000119304
0.000117515
0.0001057
0.000110941
9.27723e-05
0.000104843
8.04817e-05
9.91387e-05
6.88014e-05
9.37172e-05
5.77224e-05
8.84167e-05
4.72647e-05
8.30072e-05
3.74867e-05
7.71932e-05
2.84915e-05
7.06456e-05
2.04246e-05
6.30589e-05
1.3462e-05
5.42185e-05
7.78864e-06
4.40551e-05
3.57449e-06
3.267e-05
9.51701e-07
2.03259e-05
7.39765e-06
0.000236494
0.000205262
-0.000256904
0.000217182
0.000191215
0.000198851
0.000178843
0.000181463
0.000167596
0.000164955
0.000157393
0.00014927
0.000148085
0.000134355
0.000139556
0.000120161
0.000131709
0.000106644
0.000124458
9.37624e-05
0.000117724
8.14836e-05
0.000111418
6.97828e-05
0.000105418
5.86529e-05
9.95466e-05
4.81153e-05
9.35449e-05
3.82305e-05
8.7078e-05
2.91066e-05
7.97694e-05
2.0898e-05
7.12676e-05
1.3792e-05
6.13244e-05
7.98777e-06
4.98593e-05
3.66834e-06
3.69894e-05
9.76699e-07
2.30176e-05
8.37434e-06
0.000235873
0.000224941
-0.000255552
0.000217143
0.000209944
0.000199263
0.000196723
0.000182214
0.000184646
0.000165953
0.000173653
0.000150448
0.000163591
0.000135658
0.000154346
0.000121545
0.000145822
0.000108071
0.000137933
9.51974e-05
0.000130597
8.28937e-05
0.000123721
7.11358e-05
0.000117176
5.99168e-05
0.000110766
4.92579e-05
0.000104204
3.92218e-05
9.71142e-05
2.99217e-05
8.90695e-05
2.15221e-05
7.96672e-05
1.42252e-05
6.86213e-05
8.24734e-06
5.58372e-05
3.7891e-06
4.14477e-05
1.00778e-06
2.57989e-05
9.38212e-06
0.000236001
0.000244
-0.000255059
0.000217754
0.000228191
0.000200274
0.000214203
0.000183554
0.000201366
0.000167553
0.000189654
0.000152235
0.000178909
0.000137565
0.000169015
0.000123514
0.000159873
0.000110053
0.000151394
9.71518e-05
0.000143498
8.47844e-05
0.000136089
7.29292e-05
0.000129031
6.1579e-05
0.000122116
5.0754e-05
0.000115029
4.05172e-05
0.000107351
3.0987e-05
9.85997e-05
2.23392e-05
8.8315e-05
1.47944e-05
7.61661e-05
8.59103e-06
6.20406e-05
3.95175e-06
4.60869e-05
1.05179e-06
2.86989e-05
1.04339e-05
0.000237185
0.000262398
-0.000255583
0.000219394
0.000245982
0.000202209
0.000231387
0.000185673
0.000217902
0.000169796
0.000205531
0.000154565
0.000194141
0.00013995
0.00018363
0.000125919
0.000173904
0.00011244
0.000164874
9.94822e-05
0.000156455
8.70205e-05
0.00014855
7.50339e-05
0.000141018
6.35148e-05
0.000133635
5.24828e-05
0.000126061
4.20024e-05
0.000117831
3.21985e-05
0.000108404
2.32604e-05
9.72531e-05
1.54292e-05
8.39973e-05
8.96836e-06
6.85014e-05
4.12527e-06
5.093e-05
1.09552e-06
3.17286e-05
1.15294e-05
0.000238926
0.000280334
-0.000256862
0.000221543
0.000263364
0.000204746
0.000248185
0.000188486
0.000234162
0.000172766
0.000221251
0.000157598
0.000209308
0.000142984
0.000198243
0.000128913
0.000187975
0.000115362
0.000178425
0.000102304
0.000169514
8.97117e-05
0.000161142
7.75626e-05
0.000153167
6.58451e-05
0.000145352
5.4574e-05
0.000137332
4.38111e-05
0.000128594
3.36848e-05
0.00011853
2.43984e-05
0.000106539
1.62181e-05
9.21776e-05
9.44037e-06
7.52792e-05
4.34571e-06
5.60247e-05
1.15438e-06
3.49199e-05
1.26838e-05
0.000241536
0.000297727
-0.000258929
0.000224274
0.000280626
0.000207581
0.000264878
0.000191459
0.000250283
0.000175874
0.000236836
0.000160794
0.000224388
0.000146206
0.000212831
0.000132102
0.000202079
0.000118469
0.000192058
0.000105288
0.000182694
9.25379e-05
0.000173893
8.01946e-05
0.00016551
6.82446e-05
0.000157302
5.66997e-05
0.000148877
4.56209e-05
0.000139673
3.51431e-05
0.000129008
2.54876e-05
0.000116195
1.6949e-05
0.000100716
9.85788e-06
8.23704e-05
4.52586e-06
6.13567e-05
1.19427e-06
3.82515e-05
1.38781e-05
0.000245124
0.00031425
-0.000261647
0.00022817
0.00029758
0.000211527
0.000281521
0.000195354
0.000266457
0.000179718
0.000252471
0.0001646
0.000239506
0.000149966
0.000227465
0.000135791
0.000216254
0.000122055
0.000205794
0.000108736
0.000196012
9.58123e-05
0.000186817
8.32567e-05
0.000178066
7.10508e-05
0.000169508
5.92005e-05
0.000160727
4.77644e-05
0.000151109
3.68825e-05
0.000139889
2.67926e-05
0.000126285
1.782e-05
0.000109689
1.03371e-05
8.98532e-05
4.70395e-06
6.69899e-05
1.20608e-06
4.17494e-05
1.50842e-05
5.78689e-07
0.000311892
1.77898e-06
1.88904e-06
0.00029627
2.48771e-06
0.000280922
2.45462e-06
0.00026649
1.96471e-06
0.000252961
1.116e-06
0.000240355
-1.73286e-08
0.000228599
-1.37609e-06
0.000217613
-2.90641e-06
0.000207325
-4.5509e-06
0.000197657
-6.23647e-06
0.000188503
-7.85748e-06
0.000179687
-9.26187e-06
0.000170913
-1.02539e-05
0.000161719
-1.06262e-05
0.000151481
-1.02195e-05
0.000139483
-8.99195e-06
0.000125057
-7.06783e-06
0.000107765
-4.7456e-06
8.7531e-05
-2.46023e-06
6.47045e-05
-7.15912e-07
4.00051e-05
1.43682e-05
2.97526e-07
0.000310616
9.78913e-07
9.45687e-07
0.000295622
9.36157e-07
0.000280932
4.32867e-07
0.000266993
-4.2245e-07
0.000253817
-1.54357e-06
0.000241476
-2.86549e-06
0.000229921
-4.33826e-06
0.000219086
-5.9137e-06
0.0002089
-7.53528e-06
0.000199278
-9.12479e-06
0.000190092
-1.05681e-05
0.00018113
-1.17074e-05
0.000172052
-1.23531e-05
0.000162365
-1.23214e-05
0.00015145
-1.14928e-05
0.000138654
-9.87028e-06
0.000123435
-7.6164e-06
0.000105511
-5.05078e-06
8.49654e-05
-2.6096e-06
6.22633e-05
-7.7531e-07
3.81708e-05
1.35929e-05
6.31046e-08
0.000310217
3.35598e-07
1.27528e-07
0.000295557
-3.57816e-07
0.000281417
-1.22021e-06
0.000267856
-2.36044e-06
0.000254957
-3.69568e-06
0.000242811
-5.16729e-06
0.000231392
-6.72984e-06
0.000220648
-8.33726e-06
0.000210508
-9.93084e-06
0.000200872
-1.14259e-05
0.000191587
-1.26999e-05
0.000182404
-1.35917e-05
0.000172944
-1.39202e-05
0.000162693
-1.3527e-05
0.000151057
-1.23308e-05
0.000137458
-1.0378e-05
0.000121482
-7.86669e-06
0.000102999
-5.13583e-06
8.22345e-05
-2.61724e-06
5.97448e-05
-7.67501e-07
3.63211e-05
1.28254e-05
-9.63785e-08
0.00031051
-1.96208e-07
-5.76454e-07
0.000296037
-1.4664e-06
0.000282307
-2.63177e-06
0.000269021
-4.00606e-06
0.000256331
-5.51277e-06
0.000244318
-7.10041e-06
0.00023298
-8.72665e-06
0.000222274
-1.03456e-05
0.000212127
-1.18952e-05
0.000202421
-1.32831e-05
0.000192975
-1.43802e-05
0.000183501
-1.50252e-05
0.000173589
-1.50507e-05
0.000162719
-1.43264e-05
0.000150332
-1.28112e-05
0.000135943
-1.0592e-05
0.000119263
-7.89842e-06
0.000100306
-5.07924e-06
7.94153e-05
-2.5526e-06
5.72181e-05
-7.38088e-07
3.45065e-05
1.20873e-05
-2.53619e-07
0.000311362
-5.98867e-07
-1.20334e-06
0.000296987
-2.42005e-06
0.000283524
-3.8283e-06
0.000270429
-5.38429e-06
0.000257887
-7.02179e-06
0.000245956
-8.69497e-06
0.000234653
-1.03624e-05
0.000223942
-1.19766e-05
0.000213741
-1.34696e-05
0.000203914
-1.47427e-05
0.000194248
-1.56615e-05
0.00018442
-1.60692e-05
0.000173996
-1.58146e-05
0.000162464
-1.47992e-05
0.000149317
-1.30189e-05
0.000134162
-1.05987e-05
0.000116843
-7.78945e-06
9.74967e-05
-4.94307e-06
7.65689e-05
-2.45379e-06
5.47288e-05
-7.01307e-07
3.27541e-05
1.1386e-05
-5.0421e-07
0.000312673
-8.06891e-07
-1.84434e-06
0.000298327
-3.32321e-06
0.000285003
-4.92081e-06
0.000272027
-6.6102e-06
0.000259576
-8.33887e-06
0.000247684
-1.00656e-05
0.00023638
-1.17492e-05
0.000225625
-1.33383e-05
0.00021533
-1.47592e-05
0.000205335
-1.5906e-05
0.000195395
-1.66431e-05
0.000185157
-1.68197e-05
0.000174173
-1.63065e-05
0.000161951
-1.50338e-05
0.000148044
-1.30367e-05
0.000132165
-1.04674e-05
0.000114273
-7.59534e-06
9.46246e-05
-4.76293e-06
7.37365e-05
-2.33954e-06
5.23055e-05
-6.6187e-07
3.10764e-05
1.07242e-05
-9.7197e-07
0.000314351
-7.0559e-07
-2.61906e-06
0.000299974
-4.297e-06
0.000286681
-6.02813e-06
0.000273758
-7.80079e-06
0.000261349
-9.57773e-06
0.000249461
-1.13222e-05
0.000238124
-1.2992e-05
0.000227295
-1.45314e-05
0.000216869
-1.58597e-05
0.000206664
-1.68661e-05
0.000196401
-1.74141e-05
0.000185705
-1.73649e-05
0.000174124
-1.66089e-05
0.000161195
-1.51106e-05
0.000146546
-1.29333e-05
0.000129988
-1.02582e-05
0.000111598
-7.35803e-06
9.17245e-05
-4.56722e-06
7.09457e-05
-2.22239e-06
4.99606e-05
-6.23594e-07
2.94776e-05
1.01006e-05
-1.81408e-06
0.000316304
-1.3867e-07
-3.68292e-06
0.000301843
-5.49586e-06
0.000288494
-7.30311e-06
0.000275565
-9.10757e-06
0.000263154
-1.08871e-05
0.000251241
-1.26091e-05
0.000239846
-1.42303e-05
0.000228916
-1.56893e-05
0.000218328
-1.68991e-05
0.000207874
-1.7744e-05
0.000197246
-1.80912e-05
0.000186052
-1.78125e-05
0.000173845
-1.68242e-05
0.000160207
-1.51168e-05
0.000144839
-1.27862e-05
0.000127657
-1.00272e-05
0.000108839
-7.11978e-06
8.8817e-05
-4.37822e-06
6.82042e-05
-2.11371e-06
4.76961e-05
-5.88815e-07
2.79527e-05
9.51176e-06
-3.20575e-06
0.000318425
1.08473e-06
-5.19908e-06
0.000303836
-7.07276e-06
0.000290367
-8.89152e-06
0.000277384
-1.06709e-05
0.000264933
-1.24016e-05
0.000252971
-1.40551e-05
0.0002415
-1.5586e-05
0.000230447
-1.69276e-05
0.00021967
-1.79861e-05
0.000208932
-1.86434e-05
0.000197904
-1.87698e-05
0.000186179
-1.82534e-05