/*--------------------------------*- C++ -*----------------------------------*\
| =========                 |                                                 |
| \\      /  F ield         | OpenFOAM Extend Project: Open source CFD        |
|  \\    /   O peration     | Version:  1.6-ext                               |
|   \\  /    A nd           | Web:      www.extend-project.de                 |
|    \\/     M anipulation  |                                                 |
\*---------------------------------------------------------------------------*/
FoamFile
{
    version     2.0;
    format      ascii;
    class       volVectorField;
    location    "0.1";
    object      U;
}
// * * * * * * * * * * * * * * * * * * * * * * * * * * * * * * * * * * * * * //

dimensions      [0 1 -1 0 0 0 0];

internalField   nonuniform List<vector> 
20940
(
(1.51858 0.0977199 -6.7548e-24)
(1.55085 0.102353 -4.34195e-20)
(1.58565 0.107495 7.84596e-22)
(1.62183 0.112178 3.28632e-20)
(1.65908 0.117042 -1.67779e-20)
(1.6964 0.121666 0)
(1.73245 0.126027 0)
(1.76502 0.129696 0)
(1.79081 0.132159 -8.02406e-21)
(1.80535 0.132723 1.6325e-20)
(1.8031 0.130656 -8.22983e-21)
(1.77815 0.125319 -6.36111e-21)
(1.725 0.11634 6.8149e-21)
(1.63968 0.103762 0)
(1.52063 0.0881217 0)
(1.36912 0.0704198 2.28677e-25)
(1.18922 0.0519974 1.35946e-21)
(0.987167 0.0343594 -1.42027e-21)
(0.77047 0.0189618 0)
(0.546919 0.00703303 -5.0536e-22)
(0.323745 -0.000164382 0)
(0.106995 -0.00114915 0)
(1.52286 0.0560514 0)
(1.55515 0.058167 -2.84681e-20)
(1.5899 0.0602582 0)
(1.626 0.0621012 1.48963e-20)
(1.66306 0.0639592 -1.64245e-20)
(1.69993 0.0655845 6.78925e-20)
(1.735 0.0669183 -6.85998e-20)
(1.76575 0.0676233 3.58361e-20)
(1.78856 0.067309 1.66841e-20)
(1.79868 0.0654897 3.08718e-20)
(1.79057 0.0617106 -1.0993e-21)
(1.75852 0.0556608 1.24702e-20)
(1.69764 0.0472992 -2.43562e-20)
(1.60476 0.0369371 2.1225e-20)
(1.47928 0.0252517 -1.4695e-20)
(1.3234 0.0132173 -3.94153e-21)
(1.14188 0.0019793 0)
(0.941403 -0.0072899 0)
(0.729577 -0.0135475 0)
(0.51407 -0.0159948 -6.92894e-22)
(0.301863 -0.0137365 0)
(0.0987419 -0.00554754 0)
(1.52153 0.0147203 0)
(1.55365 0.0141534 5.74295e-20)
(1.58813 0.0131637 6.04615e-20)
(1.62392 0.0120963 6.34298e-20)
(1.66054 0.0109049 -9.65653e-20)
(1.69664 0.00951639 1.03647e-19)
(1.73037 0.00785989 3.25539e-20)
(1.75891 0.00572017 -3.55712e-20)
(1.77835 0.00286029 -8.12356e-20)
(1.78378 -0.000975007 -1.41221e-20)
(1.76969 -0.00595657 -1.49553e-20)
(1.7307 -0.0120882 0)
(1.66251 -0.0191347 0)
(1.56283 -0.0265977 -1.96971e-20)
(1.43193 -0.0337517 3.53376e-20)
(1.27283 -0.0397332 3.93749e-21)
(1.09089 -0.0436544 6.52682e-21)
(0.893095 -0.0447062 -1.0248e-20)
(0.687094 -0.0422609 -5.36846e-21)
(0.480388 -0.0359354 9.70411e-21)
(0.279684 -0.0252003 3.27548e-21)
(0.0904903 -0.00913015 -3.84703e-21)
(1.51578 -0.0257902 0)
(1.54754 -0.0291752 5.54684e-20)
(1.5815 -0.0332601 -2.9858e-21)
(1.61675 -0.0372944 -1.28025e-19)
(1.6526 -0.0415572 6.5801e-20)
(1.68758 -0.0459491 -1.01266e-19)
(1.71956 -0.0505256 -6.85456e-20)
(1.74545 -0.0553537 0)
(1.76109 -0.0604908 3.32513e-20)
(1.76148 -0.0659456 2.94848e-20)
(1.74123 -0.0716086 -6.32102e-20)
(1.69538 -0.0772074 0)
(1.62029 -0.0822889 -2.34191e-20)
(1.51449 -0.0862471 4.59335e-20)
(1.3791 -0.0883928 -5.07327e-20)
(1.21786 -0.0880477 3.00183e-21)
(1.03663 -0.0846335 3.27685e-20)
(0.84258 -0.077729 -2.24173e-20)
(0.643326 -0.0671228 -2.4762e-21)
(0.446136 -0.0528328 7.05337e-21)
(0.257405 -0.0346709 1.39641e-21)
(0.0823251 -0.0119733 0)
(1.50522 -0.0648352 1.06095e-19)
(1.53641 -0.0711617 1.13664e-19)
(1.56966 -0.0783262 5.70363e-20)
(1.60414 -0.0853703 -1.90826e-19)
(1.63896 -0.0927125 -6.13894e-20)
(1.6725 -0.100084 1.37192e-19)
(1.70238 -0.107493 -9.671e-22)
(1.72526 -0.114831 0)
(1.7368 -0.121955 0)
(1.73197 -0.128619 -2.90193e-20)
(1.70559 -0.134446 9.70179e-20)
(1.65316 -0.138929 0)
(1.57173 -0.141462 0)
(1.46063 -0.141407 1.28451e-20)
(1.32176 -0.13819 1.18326e-20)
(1.15948 -0.131378 0)
(0.980018 -0.120741 0)
(0.790651 -0.106258 -2.1047e-20)
(0.598883 -0.0881267 2.1507e-20)
(0.411709 -0.0667414 -1.21525e-20)
(0.235202 -0.0422204 2.07411e-20)
(0.0742589 -0.0141135 0)
(1.49014 -0.101841 -1.05516e-19)
(1.52052 -0.111232 -2.23919e-19)
(1.55278 -0.121458 1.19255e-19)
(1.58619 -0.131543 -2.53289e-19)
(1.61968 -0.141948 1.36062e-19)
(1.65145 -0.152245 0)
(1.6789 -0.162363 7.26984e-20)
(1.69848 -0.172 7.27751e-20)
(1.70573 -0.180799 0)
(1.69566 -0.188258 -6.34454e-20)
(1.66335 -0.19376 6.85731e-20)
(1.60481 -0.196606 0)
(1.51777 -0.1961 0)
(1.40231 -0.191645 -6.28191e-20)
(1.26102 -0.182842 1.49159e-20)
(1.09877 -0.169554 0)
(0.922037 -0.151923 -1.19658e-20)
(0.73814 -0.130329 0)
(0.554408 -0.10536 0)
(0.377548 -0.0777626 0)
(0.213322 -0.0479289 -4.43543e-21)
(0.0663667 -0.015585 -1.53791e-20)
(1.47052 -0.136079 -1.09216e-19)
(1.49981 -0.148589 -1.15809e-19)
(1.53087 -0.16182 2.12818e-21)
(1.56298 -0.174961 1.26182e-19)
(1.59487 -0.188411 -2.67146e-19)
(1.62461 -0.201592 1.42737e-19)
(1.64939 -0.214318 -6.99414e-20)
(1.6655 -0.226075 -6.82735e-20)
(1.66841 -0.236277 2.1471e-19)
(1.65324 -0.244179 -7.34117e-20)
(1.61538 -0.248946 0)
(1.55135 -0.249736 9.48098e-20)
(1.45954 -0.245822 -6.5551e-20)
(1.34071 -0.236711 -5.53662e-20)
(1.19804 -0.222231 8.51286e-20)
(1.0368 -0.202574 0)
(0.863639 -0.178264 5.06119e-20)
(0.685823 -0.15008 -3.96016e-20)
(0.510486 -0.118981 3.75872e-20)
(0.344046 -0.0860387 -2.49723e-20)
(0.191982 -0.0518953 -1.32488e-20)
(0.0587146 -0.0164274 0)
(1.44702 -0.167047 1.06994e-19)
(1.47489 -0.182745 4.14661e-21)
(1.5044 -0.198938 1.03753e-21)
(1.53487 -0.215121 2.54506e-19)
(1.56485 -0.231557 -1.52699e-21)
(1.59228 -0.247531 0)
(1.61418 -0.262721 0)
(1.62672 -0.276394 0)
(1.62537 -0.287737 -1.42477e-19)
(1.60539 -0.29577 1.51343e-19)
(1.56251 -0.299472 0)
(1.49376 -0.2979 -3.34519e-20)
(1.39812 -0.290346 0)
(1.27694 -0.276463 2.74592e-20)
(1.13391 -0.256345 -6.52574e-20)
(0.974563 -0.23053 0)
(0.805658 -0.199932 -4.57652e-20)
(0.634367 -0.165714 2.94547e-20)
(0.46761 -0.129188 -1.34507e-20)
(0.311531 -0.0917333 1.58265e-20)
(0.171358 -0.054227 4.15075e-20)
(0.0513533 -0.0166804 -5.28543e-20)
(1.41964 -0.193933 2.10664e-19)
(1.4458 -0.212741 -1.21143e-19)
(1.47359 -0.231804 -1.24506e-19)
(1.50219 -0.251019 1.34063e-19)
(1.53007 -0.27043 3.9747e-21)
(1.55502 -0.289184 -1.46835e-19)
(1.57395 -0.30679 1.43696e-19)
(1.58296 -0.322283 -1.57137e-19)
(1.57756 -0.334621 6.81525e-20)
(1.55318 -0.342605 -2.33761e-19)
(1.50591 -0.345051 0)
(1.43325 -0.340955 -7.71136e-20)
(1.33473 -0.329666 0)
(1.21219 -0.311023 3.37013e-20)
(1.06969 -0.285408 -3.67579e-20)
(0.912999 -0.253717 0)
(0.748877 -0.21725 3.17824e-20)
(0.584383 -0.177547 -3.4027e-20)
(0.426222 -0.136259 1.83197e-20)
(0.28029 -0.0950598 -1.57879e-20)
(0.151607 -0.0550568 4.84461e-20)
(0.0443275 -0.0163917 -4.9534e-20)
(1.38967 -0.216539 2.12473e-19)
(1.41366 -0.238422 -2.36522e-19)
(1.43928 -0.26026 0)
(1.4656 -0.282391 1.35501e-19)
(1.49101 -0.304642 4.43727e-21)
(1.51324 -0.326038 1.45313e-19)
(1.5291 -0.345919 0)
(1.53466 -0.363092 -9.41062e-21)
(1.5255 -0.376294 -2.40936e-19)
(1.49725 -0.384115 1.66709e-19)
(1.44634 -0.385232 0)
(1.37067 -0.3786 7.64153e-20)
(1.27025 -0.363646 0)
(1.14731 -0.340409 -7.48956e-20)
(1.00621 -0.309567 1.90883e-19)
(0.852814 -0.272372 -3.84046e-20)
(0.69388 -0.230503 0)
(0.536321 -0.185865 1.81361e-20)
(0.386643 -0.140444 -1.82448e-20)
(0.250526 -0.0962064 -2.112e-20)
(0.13283 -0.0544978 1.83891e-20)
(0.0376621 -0.0155984 0)
(1.35692 -0.23393 4.59751e-21)
(1.37858 -0.258614 6.48525e-21)
(1.40195 -0.283144 2.57544e-19)
(1.42588 -0.308189 1.37067e-19)
(1.44873 -0.333333 -2.88764e-19)
(1.46818 -0.357443 0)
(1.48099 -0.379673 -1.61374e-19)
(1.48327 -0.398592 3.26148e-19)
(1.47069 -0.412715 0)
(1.43911 -0.420434 -8.6971e-20)
(1.38525 -0.420302 0)
(1.3074 -0.411248 8.17855e-20)
(1.20594 -0.392797 -8.78419e-20)
(1.08342 -0.365198 0)
(0.944382 -0.329428 0)
(0.794767 -0.287095 -4.04012e-20)
(0.641258 -0.240247 -4.56713e-20)
(0.490622 -0.191156 3.97181e-20)
(0.349183 -0.142137 -8.99935e-20)
(0.222441 -0.0954568 2.10388e-20)
(0.115138 -0.0527179 0)
(0.0313905 -0.0143584 0)
(1.32349 -0.246609 -4.36473e-19)
(1.34211 -0.273851 2.40635e-19)
(1.36259 -0.300785 2.60744e-19)
(1.38355 -0.328379 -1.36115e-19)
(1.40341 -0.356097 0)
(1.41983 -0.382667 1.5167e-19)
(1.42953 -0.407077 8.67481e-22)
(1.42869 -0.427669 -1.55375e-19)
(1.41309 -0.442744 1.78508e-19)
(1.37879 -0.450496 8.5866e-20)
(1.32278 -0.44935 0)
(1.24366 -0.438202 0)
(1.14208 -0.416659 -8.82992e-20)
(1.02082 -0.385155 2.79751e-19)
(0.88452 -0.344948 -1.85759e-19)
(0.739129 -0.297979 9.61298e-20)
(0.591235 -0.246661 4.52946e-20)
(0.447457 -0.193623 9.07174e-20)
(0.313961 -0.141524 -1.00551e-19)
(0.196105 -0.0929486 0)
(0.098558 -0.0497913 0)
(0.0255087 -0.0126882 8.43262e-20)
(1.28874 -0.253372 0)
(1.30459 -0.282796 2.42707e-19)
(1.32238 -0.312265 6.60331e-21)
(1.34048 -0.342548 0)
(1.35738 -0.373047 0)
(1.37077 -0.40229 -1.5586e-19)
(1.37744 -0.429104 -1.56428e-19)
(1.37365 -0.451607 1.78828e-19)
(1.35534 -0.467884 -3.60899e-19)
(1.31875 -0.475934 1.90721e-19)
(1.26113 -0.474057 2.81086e-19)
(1.18133 -0.461116 -4.84065e-19)
(1.08022 -0.436796 3.01835e-19)
(0.960736 -0.401719 1.04805e-19)
(0.82756 -0.357414 -1.02998e-19)
(0.686597 -0.306153 0)
(0.544317 -0.250702 5.50044e-20)
(0.40719 -0.194055 1.07371e-19)
(0.281236 -0.13922 -1.08654e-19)
(0.1717 -0.0891227 -2.70923e-20)
(0.0832096 -0.0459866 1.15052e-19)
(0.0200696 -0.0106899 0)
(1.25528 -0.255727 -4.45107e-19)
(1.26717 -0.286451 5.22661e-21)
(1.28129 -0.317534 6.60188e-21)
(1.29581 -0.349616 0)
(1.30919 -0.382177 -1.50117e-19)
(1.31923 -0.41358 -1.60141e-19)
(1.32274 -0.442497 3.42966e-19)
(1.31612 -0.466846 -1.83796e-19)
(1.29544 -0.484499 1.82522e-19)
(1.25716 -0.493257 -1.8794e-19)
(1.1987 -0.491259 1.07453e-19)
(1.11909 -0.477286 1.90404e-19)
(1.01931 -0.451033 -3.1213e-19)
(0.902343 -0.413238 -1.01626e-19)
(0.772863 -0.365643 2.1884e-19)
(0.636678 -0.310809 -1.12827e-19)
(0.500121 -0.251845 -5.44064e-20)
(0.36952 -0.192113 -1.71561e-19)
(0.250775 -0.134999 1.8434e-19)
(0.149047 -0.0838134 2.92898e-20)
(0.0689616 -0.0411729 0)
(0.0149985 -0.00828507 -2.77198e-20)
(1.22314 -0.252612 -2.20048e-21)
(1.23186 -0.285059 -2.37396e-19)
(1.24283 -0.318759 5.24403e-21)
(1.25417 -0.353201 1.4269e-19)
(1.26425 -0.388303 -3.92196e-21)
(1.27107 -0.42228 -5.41184e-21)
(1.27154 -0.453664 0)
(1.26221 -0.480177 0)
(1.23931 -0.499474 3.88152e-19)
(1.19947 -0.509148 -2.06383e-19)
(1.1403 -0.507183 0)
(1.06099 -0.492284 1.03383e-19)
(0.962631 -0.464178 0)
(0.848241 -0.423741 1.16302e-19)
(0.722435 -0.372943 -1.11109e-19)
(0.590898 -0.314641 0)
(0.459805 -0.252281 -1.21273e-19)
(0.335319 -0.189589 1.27957e-19)
(0.223223 -0.130318 5.57695e-21)
(0.128616 -0.0781553 1.32643e-19)
(0.0561271 -0.0361271 -1.73761e-19)
(0.0104345 -0.0057858 1.13707e-19)
(1.19414 -0.257344 -6.93253e-23)
(1.20101 -0.288131 -1.2942e-19)
(1.20807 -0.322864 -1.43364e-19)
(1.2153 -0.358136 0)
(1.22043 -0.394124 0)
(1.22175 -0.428817 0)
(1.21612 -0.460564 0)
(1.20037 -0.486914 -5.60314e-21)
(1.17111 -0.505402 -2.41952e-21)
(1.12556 -0.513576 -2.23777e-19)
(1.06196 -0.509475 0)
(0.980142 -0.491956 0)
(0.881653 -0.46097 -2.3645e-19)
(0.769721 -0.417652 5.39475e-21)
(0.648898 -0.364235 0)
(0.524568 -0.303817 0)
(0.402438 -0.240054 0)
(0.288133 -0.176853 -1.38809e-19)
(0.186893 -0.118122 7.79917e-21)
(0.103294 -0.0676741 2.29876e-21)
(0.0414856 -0.0286785 1.87499e-19)
(0.0057746 -0.00285168 -2.628e-21)
(1.16719 -0.271884 -4.88161e-19)
(1.1714 -0.303976 1.33091e-19)
(1.17442 -0.34037 -1.47184e-19)
(1.17698 -0.376801 0)
(1.17603 -0.413239 0)
(1.17004 -0.447394 0)
(1.15582 -0.477322 0)
(1.13064 -0.500442 4.16365e-19)
(1.09178 -0.514354 -2.1622e-19)
(1.03741 -0.516876 2.23775e-19)
(0.966848 -0.506529 -2.42065e-19)
(0.880867 -0.482769 1.16085e-19)
(0.781727 -0.446166 -2.59907e-19)
(0.672953 -0.398383 -1.22824e-21)
(0.558964 -0.342018 2.74105e-19)
(0.44463 -0.280335 -1.43455e-19)
(0.334869 -0.21698 -6.97095e-20)
(0.234356 -0.155716 7.446e-20)
(0.147322 -0.100225 -7.53339e-20)
(0.0773725 -0.0540364 0)
(0.0277683 -0.0200679 -1.6197e-19)
(0.00195567 1.47997e-05 -1.61344e-21)
(1.13638 -0.282159 0)
(1.13665 -0.315462 -1.41004e-19)
(1.13476 -0.352546 -1.5196e-19)
(1.13132 -0.389163 -1.63112e-19)
(1.12329 -0.424893 3.5933e-19)
(1.1092 -0.457391 0)
(1.08613 -0.484438 0)
(1.05192 -0.503528 -4.27313e-19)
(1.00463 -0.512439 2.3209e-19)
(0.943325 -0.509376 1.21961e-19)
(0.868197 -0.493367 0)
(0.780719 -0.46442 1.27877e-19)
(0.683524 -0.423599 1.33892e-19)
(0.58014 -0.372933 -2.87892e-19)
(0.474633 -0.315212 0)
(0.371238 -0.253727 0)
(0.27406 -0.19202 -7.65153e-20)
(0.186888 -0.133657 3.25135e-19)
(0.113071 -0.0820786 -2.02855e-21)
(0.0554092 -0.0405417 -3.44894e-19)
(0.0164504 -0.0117277 2.22472e-19)
(-0.00106128 0.00273244 7.38849e-20)
(1.10183 -0.288425 -1.29044e-19)
(1.09761 -0.322681 4.26006e-19)
(1.09013 -0.359887 1.55288e-19)
(1.07999 -0.395991 -2.33268e-21)
(1.0645 -0.430264 -5.51662e-19)
(1.0422 -0.460325 3.97174e-19)
(1.01066 -0.483821 -5.16278e-21)
(0.968354 -0.498458 -2.2911e-19)
(0.914118 -0.502285 1.21517e-19)
(0.847826 -0.493963 -1.23847e-19)
(0.770347 -0.473014 1.34565e-19)
(0.683594 -0.439927 -2.72332e-19)
(0.590322 -0.396145 1.44636e-19)
(0.493854 -0.343926 6.9671e-20)
(0.39777 -0.28613 -1.54998e-19)
(0.305625 -0.225979 1.64018e-19)
(0.220745 -0.166839 0)
(0.14612 -0.112039 -1.68535e-19)
(0.0843362 -0.0647621 1.80854e-19)
(0.03752 -0.0279882 0)
(0.00761686 -0.00417537 1.41851e-19)
(-0.00323435 0.00510082 -2.37196e-19)
(1.0639 -0.289887 0)
(1.05457 -0.324495 0)
(1.04075 -0.361061 0)
(1.02351 -0.395866 -1.78175e-19)
(1.0004 -0.427974 0)
(0.970115 -0.454953 -2.09069e-19)
(0.930873 -0.474506 5.5563e-21)
(0.881742 -0.484607 2.3879e-19)
(0.822294 -0.483652 -1.23295e-19)
(0.753033 -0.470755 0)
(0.675294 -0.445884 5.14108e-21)
(0.591194 -0.409912 1.48621e-19)
(0.503409 -0.364537 2.99954e-19)
(0.414916 -0.312127 -8.30822e-20)
(0.328745 -0.255504 -8.49965e-20)
(0.247781 -0.197738 0)
(0.174635 -0.141971 1.78354e-19)
(0.111596 -0.0912739 -3.24597e-19)
(0.0606078 -0.0485622 -1.9049e-19)
(0.0232311 -0.0165524 1.65668e-21)
(0.000911613 0.0025087 2.01365e-19)
(-0.00471706 0.00711624 -2.40022e-21)
(1.02314 -0.285588 -1.37146e-19)
(1.00805 -0.319772 -1.54342e-19)
(0.987433 -0.354897 0)
(0.962971 -0.387681 1.80801e-19)
(0.932368 -0.41701 0)
(0.894665 -0.440462 -4.87822e-22)
(0.848741 -0.455951 -2.23106e-19)
(0.794228 -0.461753 3.73627e-19)
(0.731317 -0.456647 -2.58501e-19)
(0.660961 -0.440158 1.47285e-19)
(0.584762 -0.412623 4.40224e-19)
(0.504852 -0.375178 -5.38456e-19)
(0.423676 -0.329655 2.41107e-19)
(0.343783 -0.278413 -2.95806e-21)
(0.267639 -0.224148 -2.65315e-19)
(0.197498 -0.169721 9.05712e-20)
(0.135338 -0.118017 1.40216e-19)
(0.0828444 -0.0718368 -4.19939e-21)
(0.041417 -0.0338333 -1.65832e-21)
(0.0121499 -0.0064717 -2.08437e-19)
(-0.00392906 0.00819555 0)
(-0.00560762 0.0087395 -1.10554e-19)
(0.980402 -0.274713 0)
(0.959015 -0.307615 3.10358e-19)
(0.931482 -0.340536 0)
(0.899922 -0.370686 0)
(0.862231 -0.396779 -4.1194e-19)
(0.817947 -0.416523 -1.18832e-21)
(0.766529 -0.428126 2.37218e-19)
(0.708119 -0.430176 -1.31413e-19)
(0.643375 -0.421823 -1.44151e-19)
(0.573539 -0.402938 -5.81448e-19)
(0.500304 -0.374122 -1.55234e-19)
(0.425672 -0.33666 1.60659e-19)
(0.351771 -0.292402 8.44724e-20)
(0.280688 -0.243604 -3.53357e-19)
(0.214347 -0.192769 2.55994e-21)
(0.154432 -0.142508 2.87378e-19)
(0.102368 -0.0954297 4.87967e-20)
(0.0593299 -0.0540652 2.56058e-19)
(0.0262612 -0.0208114 -2.13559e-19)
(0.00386768 0.00210313 0)
(-0.00717275 0.0128059 0)
(-0.00600252 0.00994543 -2.24758e-20)
(0.936792 -0.256513 2.9143e-19)
(0.908835 -0.287272 -1.59403e-19)
(0.874544 -0.317317 7.50734e-22)
(0.836219 -0.344341 -1.36299e-21)
(0.792086 -0.366934 2.10228e-19)
(0.742206 -0.38305 2.27758e-19)
(0.686527 -0.391207 1.20549e-19)
(0.625613 -0.390299 -3.97197e-19)
(0.560442 -0.379803 4.26279e-19)
(0.492395 -0.359844 1.48366e-19)
(0.423125 -0.331183 -9.97473e-22)
(0.354414 -0.295144 2.53137e-19)
(0.28803 -0.253496 -3.52631e-19)
(0.225607 -0.20832 9.22002e-20)
(0.16857 -0.161874 0)
(0.118105 -0.116493 0)
(0.0751598 -0.074503 5.31056e-20)
(0.0404795 -0.0381653 -5.49547e-20)
(0.014625 -0.00963115 0)
(-0.00202285 0.00909329 5.81308e-20)
(-0.00908153 0.0163025 0)
(-0.00599519 0.0107227 -2.447e-20)
(0.893818 -0.230504 1.50015e-19)
(0.859292 -0.258324 -3.29311e-19)
(0.81861 -0.284951 -1.84054e-19)
(0.774029 -0.308502 6.00939e-19)
(0.724256 -0.327541 -2.1982e-19)
(0.669802 -0.340333 -3.56362e-19)
(0.611018 -0.345687 3.85162e-19)
(0.548785 -0.342783 -2.25964e-21)
(0.484266 -0.331349 -2.9654e-19)
(0.418869 -0.311675 -7.91273e-20)
(0.354119 -0.284577 1.63901e-19)
(0.291534 -0.251325 -1.75886e-19)
(0.232521 -0.213529 0)
(0.178296 -0.173036 9.44938e-20)
(0.129846 -0.131826 0)
(0.0879263 -0.091938 -2.08055e-19)
(0.0530822 -0.0554119 3.80876e-19)
(0.02569 -0.024243 -1.70211e-19)
(0.00598606 -0.000346271 2.30621e-19)
(-0.00592389 0.0144805 -5.938e-20)
(-0.00991054 0.0186863 -4.53626e-19)
(-0.00567616 0.011074 4.22743e-19)
(0.852911 -0.196543 -1.53209e-19)
(0.812092 -0.220695 0)
(0.765544 -0.243478 1.85762e-19)
(0.715369 -0.263346 -2.04186e-19)
(0.660821 -0.278954 2.24103e-19)
(0.602762 -0.288887 -1.24556e-19)
(0.541857 -0.292216 -1.31239e-19)
(0.479199 -0.288356 2.11717e-19)
(0.416034 -0.27721 -1.50468e-19)
(0.35372 -0.259141 8.45009e-22)
(0.293612 -0.234935 1.72343e-19)
(0.236965 -0.205728 9.12276e-20)
(0.184854 -0.172913 0)
(0.138133 -0.13806 0)
(0.0974165 -0.102842 2.06544e-19)
(0.0630923 -0.0689869 -2.72186e-19)
(0.0353592 -0.0382409 0)
(0.0142727 -0.0123346 0)
(-0.0002172 0.00704521 2.38569e-19)
(-0.00824746 0.0182936 -2.45844e-19)
(-0.0099118 0.0199964 -2.80805e-19)
(-0.00513422 0.0110222 4.10843e-19)
(0.813689 -0.155489 1.53355e-19)
(0.767187 -0.17536 1.73018e-19)
(0.715512 -0.194001 -1.03465e-22)
(0.660601 -0.210096 -2.10803e-19)
(0.60222 -0.222505 -1.17841e-21)
(0.541483 -0.230104 -1.25822e-19)
(0.479287 -0.232188 -1.3467e-19)
(0.416854 -0.228354 7.41759e-20)
(0.355446 -0.218604 1.56984e-19)
(0.296337 -0.203304 8.2087e-20)
(0.240712 -0.183143 -8.869e-20)
(0.189589 -0.159067 -9.17223e-20)
(0.143767 -0.132209 -1.93786e-19)
(0.103797 -0.103831 4.09178e-19)
(0.069982 -0.0752714 -4.81518e-19)
(0.0423988 -0.0479262 2.7861e-19)
(0.0209404 -0.0232277 2.59359e-19)
(0.00536987 -0.00263197 -2.09461e-19)
(-0.0046305 0.0124013 3.10895e-20)
(-0.00942698 0.0204455 2.51905e-19)
(-0.00932441 0.0201981 -2.58002e-19)
(-0.00444649 0.0105637 1.33321e-20)
(0.767749 -0.109688 1.57153e-19)
(0.716984 -0.124642 0)
(0.661629 -0.138772 9.77655e-20)
(0.603563 -0.150917 1.07721e-19)
(0.542904 -0.160238 1.16703e-19)
(0.480936 -0.165871 -6.42483e-20)
(0.418709 -0.167302 -1.37483e-19)
(0.357506 -0.164256 1.49683e-19)
(0.29857 -0.156776 -1.5808e-19)
(0.243085 -0.145171 1.70827e-19)
(0.192081 -0.129986 -8.93129e-20)
(0.146377 -0.11194 1.43395e-19)
(0.106549 -0.0918762 0)
(0.0729025 -0.0707155 -2.08104e-19)
(0.0454871 -0.0494358 2.74059e-19)
(0.0241188 -0.0290647 0)
(0.00842541 -0.0106863 2.06327e-19)
(-0.00209556 0.00455025 -2.7534e-19)
(-0.00801698 0.0154329 -3.11207e-20)
(-0.0099341 0.0207114 0)
(-0.00837648 0.0191653 1.15082e-19)
(-0.00367746 0.00967172 -1.21089e-19)
(0.689142 -0.0646917 8.01898e-20)
(0.637805 -0.0744521 -8.88981e-20)
(0.582479 -0.0838229 3.88096e-22)
(0.525106 -0.0918811 -1.62622e-19)
(0.465924 -0.098106 0)
(0.406285 -0.101906 1.93847e-19)
(0.347286 -0.102934 -1.41189e-19)
(0.290201 -0.101016 -1.50401e-19)
(0.236212 -0.0961984 4.28382e-20)
(0.186386 -0.0887076 3.45348e-19)
(0.141599 -0.0789193 -2.63311e-21)
(0.102495 -0.0673115 -1.46807e-19)
(0.0694525 -0.0544243 -2.55713e-20)
(0.0425877 -0.0408312 -2.38889e-19)
(0.0217598 -0.0271293 3.06894e-19)
(0.00660059 -0.0139499 -8.7369e-20)
(-0.00344715 -0.00198543 0)
(-0.00907822 0.00797772 0)
(-0.0110645 0.0150338 1.60989e-20)
(-0.0102014 0.0181565 1.31273e-19)
(-0.00726458 0.016226 -1.34582e-19)
(-0.00287145 0.00806252 0)
(0.527482 -0.02581 -1.61294e-19)
(0.483916 -0.0303174 -3.47612e-22)
(0.437233 -0.0344151 9.94555e-20)
(0.389279 -0.0379267 -5.47708e-20)
(0.340241 -0.0405952 0)
(0.291304 -0.0421786 -3.29521e-20)
(0.243439 -0.0425054 -1.59185e-19)
(0.197741 -0.0415049 1.34531e-19)
(0.155197 -0.03921 -4.08415e-20)
(0.116663 -0.0357435 1.73597e-19)
(0.0827967 -0.0312939 -1.86723e-19)
(0.054033 -0.0260873 0)
(0.0305735 -0.0203625 2.56363e-20)
(0.0123944 -0.0143546 4.0459e-20)
(-0.000734753 -0.00829213 1.2612e-19)
(-0.00922632 -0.00241161 -1.61883e-19)
(-0.0136491 0.00301111 0)
(-0.0147013 0.00761602 -7.88939e-21)
(-0.0131734 0.0109112 -1.61059e-20)
(-0.00991493 0.0122361 0)
(-0.00587672 0.0107277 1.68757e-20)
(-0.0020068 0.00531036 0)
(0.226666 -0.002789 0)
(0.205942 -0.00389605 1.72402e-22)
(0.183622 -0.00468452 -9.54113e-23)
(0.160645 -0.00537719 1.07533e-19)
(0.137212 -0.00593139 -1.17892e-19)
(0.113947 -0.00632218 -3.20289e-20)
(0.0913837 -0.00650502 8.68988e-20)
(0.0701018 -0.00645693 1.85559e-20)
(0.050612 -0.00617461 -7.94458e-20)
(0.0333326 -0.00567503 8.55701e-20)
(0.0185588 -0.00498941 -8.94793e-20)
(0.00645451 -0.00415556 9.56495e-20)
(-0.00294094 -0.00321024 -9.90241e-20)
(-0.00969507 -0.00218324 -1.15846e-20)
(-0.0139605 -0.00109558 1.22744e-19)
(-0.0159554 3.64846e-05 1.40188e-20)
(-0.0159532 0.0011888 -1.42368e-23)
(-0.0142856 0.00230617 -1.12436e-19)
(-0.0113491 0.00326967 1.24032e-19)
(-0.00762841 0.00385426 -1.26798e-19)
(-0.00386976 0.00364758 1.29846e-19)
(-0.00114378 0.0019576 -1.07027e-19)
(0.96763 0.0161132 -1.11534e-19)
(0.921127 0.0176336 -3.18326e-20)
(0.874574 0.0192788 3.51399e-20)
(0.827557 0.0210227 0)
(0.77994 0.022857 0)
(0.731586 0.0247746 0)
(0.682406 0.0267683 2.68307e-20)
(0.632349 0.0288314 5.9502e-20)
(0.581399 0.0309569 -3.18609e-20)
(0.529573 0.0331343 -3.51345e-20)
(0.476923 0.0353418 3.84909e-20)
(0.423553 0.0375323 -4.11733e-20)
(0.369653 0.0396129 6.66861e-20)
(0.315554 0.0414204 -4.72253e-20)
(0.261805 0.0427049 0)
(0.209242 0.0431301 2.64528e-20)
(0.159031 0.0422966 -1.38724e-20)
(0.112668 0.039788 2.90747e-20)
(0.0718498 0.0352309 -4.50574e-20)
(0.0382911 0.0283535 -1.54797e-20)
(0.0142742 0.019011 -1.58994e-20)
(0.00265954 0.00720434 0)
(0.970803 0.0746623 -5.52491e-20)
(0.92471 0.0775738 6.34239e-20)
(0.878702 0.0811071 1.66123e-22)
(0.832189 0.0851539 -7.83049e-20)
(0.785077 0.0896685 0)
(0.737232 0.0946118 -1.07346e-21)
(0.688563 0.0999445 1.32896e-19)
(0.639023 0.105631 0)
(0.588594 0.111633 0)
(0.53729 0.117905 -7.06319e-20)
(0.485161 0.124361 1.52459e-19)
(0.432301 0.13084 -1.22824e-19)
(0.378879 0.137027 -2.21314e-20)
(0.325195 0.142379 9.45182e-20)
(0.271743 0.146065 -9.97163e-20)
(0.219285 0.146966 2.68465e-20)
(0.168899 0.143742 -9.65449e-20)
(0.121983 0.134991 1.15565e-19)
(0.080139 0.119433 -1.04459e-19)
(0.0450054 0.0961135 1.54793e-20)
(0.0188139 0.0644901 -1.42736e-19)
(0.00440426 0.0245023 -2.68823e-22)
(0.977043 0.132188 1.10902e-19)
(0.931885 0.136541 0)
(0.887067 0.141965 -7.00324e-20)
(0.841644 0.148304 -7.85264e-20)
(0.795609 0.155469 4.32119e-19)
(0.748828 0.163388 -9.3958e-20)
(0.701216 0.171992 -2.63672e-19)
(0.65273 0.181219 0)
(0.603355 0.191004 0)
(0.553107 0.201266 -6.88977e-20)
(0.502026 0.211865 7.46966e-20)
(0.450189 0.222525 4.08452e-20)
(0.397729 0.232718 0)
(0.344875 0.241529 0)
(0.292013 0.247557 -1.97828e-19)
(0.239755 0.248909 -4.16065e-23)
(0.188994 0.243327 2.17887e-19)
(0.140931 0.228432 0)
(0.0969824 0.202061 0)
(0.0586343 0.162589 0)
(0.0280191 0.109093 -1.24913e-19)
(0.00794001 0.0414578 1.79225e-19)
(0.985707 0.187222 2.18636e-19)
(0.942012 0.193011 -1.20228e-19)
(0.899023 0.200262 -1.36407e-19)
(0.85528 0.208828 1.51794e-19)
(0.810902 0.218569 -2.56943e-19)
(0.765758 0.229385 6.09385e-22)
(0.719768 0.241179 0)
(0.672896 0.253863 3.43211e-19)
(0.625131 0.267346 -2.49067e-19)
(0.576487 0.281513 2.03642e-19)
(0.526998 0.29617 -7.45035e-20)
(0.476713 0.31093 7.88202e-20)
(0.425709 0.325054 0)
(0.374113 0.337264 0)
(0.322148 0.345602 -9.55273e-20)
(0.270203 0.347424 -1.52804e-19)
(0.218899 0.339573 2.13458e-19)
(0.16914 0.318732 0)
(0.122063 0.281885 -5.70031e-20)
(0.0789319 0.226776 -2.38992e-19)
(0.0417296 0.15213 9.02064e-20)
(0.0132048 0.0578015 7.62386e-23)
(0.9968 0.238932 4.22848e-19)
(0.955068 0.246189 3.17466e-21)
(0.914502 0.255226 -2.62763e-19)
(0.872982 0.265966 -4.49019e-19)
(0.830801 0.278209 0)
(0.787826 0.291829 3.71463e-19)
(0.743985 0.306704 -1.26102e-21)
(0.699252 0.322721 -1.12805e-19)
(0.653621 0.339767 0)
(0.607103 0.357699 -2.65789e-19)
(0.559721 0.376267 0)
(0.511492 0.394983 -2.3706e-19)
(0.462417 0.412906 4.96409e-19)
(0.412489 0.428408 -8.74895e-20)
(0.361716 0.438996 3.79721e-19)
(0.310193 0.441301 -3.96175e-19)
(0.258178 0.431303 -2.08132e-19)
(0.20619 0.404788 4.33384e-19)
(0.155001 0.357931 -3.92478e-19)
(0.105582 0.28789 2.31562e-19)
(0.0597247 0.193075 -6.04193e-20)
(0.02011 0.0733331 -2.32766e-20)
(1.01016 0.286467 -2.08408e-19)
(0.970879 0.295194 -2.31805e-19)
(0.933283 0.305924 2.64542e-19)
(0.894488 0.318729 0)
(0.855004 0.33334 0)
(0.814687 0.349615 -1.83485e-19)
(0.773483 0.367409 -1.61154e-21)
(0.731374 0.386592 2.17935e-19)
(0.688361 0.407029 -2.36131e-19)
(0.644456 0.42855 1.30706e-19)
(0.599667 0.450858 -1.3751e-19)
(0.55397 0.473366 -4.54324e-19)
(0.507275 0.494944 3.16554e-19)
(0.459407 0.513634 8.7177e-20)
(0.410114 0.526432 9.23954e-20)
(0.359123 0.529276 0)
(0.30625 0.517328 4.0166e-19)
(0.251536 0.485519 -4.17921e-19)
(0.195308 0.429268 0)
(0.138184 0.345195 -4.48365e-19)
(0.0817294 0.23144 5.15616e-19)
(0.0285457 0.0878672 2.83855e-19)
(1.02552 0.328909 2.03921e-19)
(0.989116 0.339113 2.30093e-19)
(0.954963 0.351458 -2.50604e-19)
(0.919338 0.36624 0)
(0.883005 0.383104 0)
(0.845807 0.401892 -1.75678e-19)
(0.807701 0.422443 1.93598e-19)
(0.768683 0.444606 2.14473e-19)
(0.728756 0.468233 -9.15065e-19)
(0.687929 0.493133 4.95802e-19)
(0.646196 0.518968 1.36711e-19)
(0.603484 0.545065 2.90145e-19)
(0.5596 0.570125 -4.67109e-19)
(0.514175 0.591883 0)
(0.466644 0.606856 1.78396e-19)
(0.416306 0.610332 1.85907e-22)
(0.362453 0.596694 -3.84598e-19)
(0.304565 0.560069 0)
(0.242447 0.495171 0)
(0.176307 0.39813 4.29381e-19)
(0.107452 0.266861 -4.42669e-19)
(0.0383982 0.101273 -4.64664e-20)
(1.04257 0.365802 -5.81262e-19)
(1.00949 0.377435 2.22533e-19)
(0.979209 0.391234 2.50758e-19)
(0.947151 0.407796 -2.7133e-19)
(0.914355 0.426682 0)
(0.880642 0.447741 6.69418e-21)
(0.846 0.470801 -5.46332e-19)
(0.810442 0.495701 8.05897e-19)
(0.773982 0.522278 2.59971e-21)
(0.73663 0.550319 -7.19473e-19)
(0.698361 0.579452 1.03018e-18)
(0.659051 0.60893 -5.52976e-19)
(0.618387 0.637301 1.44851e-19)
(0.575778 0.662024 0)
(0.53031 0.679176 7.58432e-21)
(0.480786 0.683436 0)
(0.425896 0.668458 -3.6568e-19)
(0.364476 0.627611 3.80999e-19)
(0.295733 0.554953 0)
(0.219414 0.446171 -4.08023e-19)
(0.136538 0.299 -5.56209e-20)
(0.04953 0.113424 6.93437e-19)
(1.06068 0.396368 7.59266e-19)
(1.03125 0.409396 2.11376e-19)
(1.00514 0.424587 0)
(0.97698 0.442865 2.57901e-19)
(0.9481 0.463669 2.85271e-19)
(0.918283 0.486843 4.18008e-21)
(0.887525 0.512203 1.76607e-19)
(0.855847 0.539585 1.87791e-19)
(0.823264 0.568827 0)
(0.789788 0.599711 -6.86928e-19)
(0.75538 0.631847 9.80814e-19)
(0.719864 0.664432 -5.26262e-19)
(0.682806 0.69589 -6.52756e-21)
(0.643378 0.723439 1.4553e-19)
(0.600275 0.742762 1.61485e-19)
(0.551751 0.747975 1.60894e-19)
(0.495818 0.732048 -5.12868e-19)
(0.430583 0.687641 8.39078e-22)
(0.354584 0.608198 3.72422e-19)
(0.267054 0.489007 -3.84687e-19)
(0.168694 0.327663 3.95035e-19)
(0.0618311 0.124259 0)
(1.07959 0.420801 7.17866e-19)
(1.05424 0.435056 -4.12805e-19)
(1.03261 0.451304 0)
(1.00857 0.470899 -2.50071e-19)
(0.983758 0.493217 -5.58309e-19)
(0.957961 0.518141 0)
(0.931238 0.545482 3.35707e-19)
(0.903636 0.575061 -7.32016e-19)
(0.875183 0.606699 2.02643e-19)
(0.845884 0.640162 0)
(0.815674 0.675041 0)
(0.78432 0.710496 0)
(0.751255 0.744855 -6.69315e-21)
(0.715399 0.77514 -1.4434e-19)
(0.675025 0.796686 -2.95517e-19)
(0.627783 0.803098 -1.58051e-19)
(0.570934 0.786711 3.34846e-19)
(0.501772 0.739514 0)
(0.418082 0.654379 -8.40949e-20)
(0.318531 0.526235 0)
(0.203475 0.352585 -3.71208e-19)
(0.0751335 0.133676 3.08468e-19)
(1.09817 0.438198 -9.39532e-21)
(1.07699 0.453723 -3.84832e-19)
(1.05996 0.471196 2.09384e-19)
(1.04042 0.492255 4.78292e-19)
(1.02018 0.51609 2.63892e-19)
(0.998914 0.542603 0)
(0.976663 0.571631 -3.12395e-19)
(0.953497 0.603033 3.40324e-19)
(0.929473 0.636659 1.9262e-19)
(0.904623 0.672293 -4.07164e-19)
(0.878889 0.709525 4.38679e-19)
(0.851994 0.747494 -4.67519e-19)
(0.823249 0.784461 3.71767e-19)
(0.791312 0.817289 6.53036e-19)
(0.754007 0.841019 -1.3903e-19)
(0.708328 0.848801 -4.41868e-19)
(0.650708 0.832385 3.10513e-19)
(0.577545 0.783139 -4.64519e-19)
(0.485797 0.693399 8.37208e-20)
(0.373508 0.557773 4.13723e-19)
(0.240662 0.373713 -3.43342e-19)
(0.0893571 0.141665 6.93336e-20)
(1.11677 0.450042 -9.99483e-19)
(1.10029 0.466283 1.03941e-20)
(1.08771 0.484121 -4.13347e-19)
(1.07228 0.505845 -9.17492e-19)
(1.05617 0.530615 2.51361e-19)
(1.03918 0.558334 0)
(1.02138 0.588776 1.16134e-20)
(1.0028 0.621754 -6.57254e-19)
(0.983443 0.657101 0)
(0.963325 0.694607 0)
(0.942365 0.733882 0)
(0.920246 0.774077 0)
(0.896169 0.813435 0)
(0.868546 0.848718 3.61698e-19)
(0.834752 0.874732 1.26663e-19)
(0.791092 0.88422 -5.49616e-19)
(0.733101 0.868379 1.44478e-19)
(0.656179 0.817974 1.49684e-19)
(0.556354 0.724834 -1.42707e-19)
(0.430976 0.583285 -3.86363e-19)
(0.279625 0.3908 6.32678e-19)
(0.104268 0.148118 -6.0286e-19)
(1.13305 0.454279 6.43908e-19)
(1.12148 0.472054 3.64065e-19)
(1.11416 0.491183 -3.83676e-19)
(1.10394 0.514042 0)
(1.09273 0.539737 2.39328e-19)
(1.08035 0.568343 -2.62181e-19)
(1.06709 0.599757 5.71737e-19)
(1.05308 0.633857 -2.9679e-19)
(1.03843 0.670496 3.36089e-19)
(1.02315 0.709467 0)
(1.00714 0.750385 -1.88062e-19)
(0.990056 0.792408 0)
(0.970961 0.833772 -2.10702e-19)
(0.948008 0.871175 4.52384e-19)
(0.918089 0.899242 -4.80368e-19)
(0.876767 0.910385 -1.28338e-19)
(0.818608 0.895335 0)
(0.737941 0.844341 0)