/*--------------------------------*- C++ -*----------------------------------*\
| =========                 |                                                 |
| \\      /  F ield         | OpenFOAM Extend Project: Open source CFD        |
|  \\    /   O peration     | Version:  1.6-ext                               |
|   \\  /    A nd           | Web:      www.extend-project.de                 |
|    \\/     M anipulation  |                                                 |
\*---------------------------------------------------------------------------*/
FoamFile
{
    version     2.0;
    format      ascii;
    class       volVectorField;
    location    "0.1";
    object      U_0;
}
// * * * * * * * * * * * * * * * * * * * * * * * * * * * * * * * * * * * * * //

dimensions      [0 1 -1 0 0 0 0];

internalField   nonuniform List<vector> 
20940
(
(1.51632 0.0955101 -1.45261e-23)
(1.54845 0.099948 -9.64957e-20)
(1.58316 0.104921 7.7995e-22)
(1.61927 0.109423 7.63649e-20)
(1.65648 0.114118 -4.07916e-20)
(1.69383 0.118574 0)
(1.72998 0.12278 0)
(1.76275 0.126319 0)
(1.78891 0.128693 -2.53143e-20)
(1.80402 0.129233 5.3856e-20)
(1.80264 0.127225 -2.85068e-20)
(1.77887 0.122043 -2.81813e-20)
(1.72721 0.11332 3.01917e-20)
(1.6436 0.101086 0)
(1.52631 0.0858545 0)
(1.3764 0.0685906 1.93375e-24)
(1.19769 0.0506005 1.60084e-20)
(0.996187 0.0333586 -1.67254e-20)
(0.779222 0.0182996 0)
(0.554466 0.00664216 -8.71313e-21)
(0.329093 -0.000355366 0)
(0.10915 -0.0012104 0)
(1.52036 0.0538888 0)
(1.5525 0.0558349 -6.35986e-20)
(1.58716 0.0577243 0)
(1.62318 0.0593728 3.65488e-20)
(1.66022 0.0610406 -4.03787e-20)
(1.69712 0.0624787 1.73182e-19)
(1.73232 0.0636381 -1.84066e-19)
(1.76333 0.0641934 9.89234e-20)
(1.78659 0.0637715 5.09911e-20)
(1.79742 0.0619058 1.05332e-19)
(1.79033 0.0581585 -1.14632e-21)
(1.75966 0.0522292 5.57397e-20)
(1.70044 0.0440773 -1.17019e-19)
(1.60942 0.0340035 1.19978e-19)
(1.48579 0.0226645 -9.323e-20)
(1.33153 0.0110097 -3.15462e-20)
(1.15116 0.000160044 0)
(0.951128 -0.00873167 0)
(0.738885 -0.0146338 0)
(0.522004 -0.0167504 -8.81553e-21)
(0.307429 -0.0141865 0)
(0.100961 -0.00571508 0)
(1.51877 0.0126316 0)
(1.55073 0.0119252 1.27738e-19)
(1.58512 0.0107008 1.38288e-19)
(1.62084 0.00942707 1.49595e-19)
(1.65743 0.00802268 -2.39506e-19)
(1.69358 0.00642618 2.60772e-19)
(1.72747 0.0045729 9.00362e-20)
(1.75633 0.00225967 -9.83816e-20)
(1.77632 -0.000734689 -2.5221e-19)
(1.7826 -0.00464894 -5.11826e-20)
(1.7697 -0.00963987 -5.50772e-20)
(1.73227 -0.0157031 0)
(1.66593 -0.0226028 0)
(1.56823 -0.0298484 -1.1807e-19)
(1.43927 -0.0367273 2.17977e-19)
(1.2818 -0.0423911 3.15138e-20)
(1.10095 -0.0459652 6.43794e-20)
(0.903479 -0.0466493 -1.00926e-19)
(0.696914 -0.0438187 -6.82379e-20)
(0.488671 -0.0370879 1.23496e-19)
(0.285441 -0.025926 5.34854e-20)
(0.092763 -0.00940823 -5.89461e-20)
(1.51276 -0.0277721 0)
(1.54435 -0.0312644 1.25249e-19)
(1.57821 -0.0356165 -3.16015e-21)
(1.61338 -0.0398679 -2.99641e-19)
(1.64921 -0.0443675 1.60363e-19)
(1.68425 -0.0489897 -2.57515e-19)
(1.71643 -0.053789 -1.82723e-19)
(1.74271 -0.0588201 0)
(1.75902 -0.0641275 1.01379e-19)
(1.76041 -0.0697061 1.03477e-19)
(1.74153 -0.0754348 -2.2264e-19)
(1.69742 -0.0810339 0)
(1.62434 -0.0860479 -1.15298e-19)
(1.52064 -0.0898726 2.41856e-19)
(1.38725 -0.0918226 -3.10634e-19)
(1.22763 -0.0912236 3.04371e-21)
(1.04741 -0.0874992 2.63364e-19)
(0.85357 -0.0802276 -2.03207e-19)
(0.653605 -0.0691939 -3.37649e-20)
(0.454725 -0.0544102 7.19012e-20)
(0.263326 -0.0356873 1.8101e-20)
(0.0846418 -0.0123658 0)
(1.50193 -0.0666717 2.30225e-19)
(1.53295 -0.0730702 2.52012e-19)
(1.56607 -0.0805323 1.33898e-19)
(1.60046 -0.0878022 -4.46343e-19)
(1.63527 -0.0954047 -1.55616e-19)
(1.66889 -0.103031 3.44367e-19)
(1.69902 -0.110692 -6.98533e-22)
(1.72237 -0.11827 0)
(1.7347 -0.125611 0)
(1.73102 -0.132458 -1.02339e-19)
(1.7062 -0.138424 3.35056e-19)
(1.65568 -0.142994 0)
(1.57641 -0.145554 0)
(1.46752 -0.145462 6.15343e-20)
(1.33068 -0.142135 6.35038e-20)
(1.17 -0.135134 0)
(0.991466 -0.124218 0)
(0.802188 -0.10936 -1.71162e-19)
(0.609565 -0.0907471 1.77704e-19)
(0.420559 -0.0687675 -1.09096e-19)
(0.241257 -0.0435402 1.8712e-19)
(0.0766086 -0.0146236 0)
(1.48659 -0.103489 -2.28968e-19)
(1.51678 -0.112914 -4.98961e-19)
(1.5489 -0.123466 2.72055e-19)
(1.58222 -0.133784 -5.91303e-19)
(1.61569 -0.144473 3.22652e-19)
(1.64757 -0.155049 0)
(1.67532 -0.165455 1.85428e-19)
(1.69546 -0.175377 1.9605e-19)
(1.70362 -0.18445 0)
(1.69486 -0.192167 -2.09251e-19)
(1.66428 -0.197898 2.26163e-19)
(1.60782 -0.200934 0)
(1.52307 -0.200566 0)
(1.40991 -0.19618 -3.05147e-19)
(1.27067 -0.187359 6.64531e-20)
(1.10998 -0.173946 0)
(0.934084 -0.156062 -6.90555e-20)
(0.750154 -0.134075 0)
(0.565433 -0.10856 0)
(0.386611 -0.0802572 0)
(0.219479 -0.0495621 -3.76614e-20)
(0.0687386 -0.016215 -1.25197e-19)
(1.46673 -0.137492 -2.30879e-19)
(1.49582 -0.149992 -2.51842e-19)
(1.5267 -0.163572 2.26353e-21)
(1.55871 -0.176947 2.93858e-19)
(1.59059 -0.190703 -6.37102e-19)
(1.62046 -0.20419 3.46363e-19)
(1.64559 -0.217243 -1.81855e-19)
(1.66235 -0.229338 -1.90568e-19)
(1.6663 -0.239887 6.14308e-19)
(1.65259 -0.248136 -2.18046e-19)
(1.61663 -0.25324 0)
(1.55483 -0.254341 3.47273e-19)
(1.46544 -0.250691 -2.46049e-19)
(1.34897 -0.241766 -2.47902e-19)
(1.20836 -0.227364 3.92058e-19)
(1.04862 -0.207644 0)
(0.876205 -0.183104 2.78003e-19)
(0.698238 -0.154502 -2.18074e-19)
(0.521788 -0.122784 2.23446e-19)
(0.353273 -0.0890166 -1.53398e-19)
(0.198212 -0.0538495 -7.93775e-20)
(0.0610983 -0.0171786 0)
(1.44302 -0.16818 2.28052e-19)
(1.47068 -0.183822 3.99619e-21)
(1.49999 -0.200383 1.16985e-21)
(1.53034 -0.2168 5.86274e-19)
(1.5603 -0.233562 -1.67026e-21)
(1.58789 -0.249869 0)
(1.61019 -0.26543 0)
(1.62348 -0.279501 0)
(1.62329 -0.291272 -4.06646e-19)
(1.60492 -0.299756 4.37869e-19)
(1.56408 -0.303919 0)
(1.49769 -0.302794 -1.17017e-19)
(1.40456 -0.295639 0)
(1.28579 -0.282067 1.23069e-19)
(1.14481 -0.262127 -2.68374e-19)
(0.98691 -0.236313 0)
(0.818655 -0.205502 -2.15262e-19)
(0.647103 -0.170835 1.47846e-19)
(0.479123 -0.133611 -7.52005e-20)
(0.320873 -0.0952053 7.97376e-20)
(0.177633 -0.0565073 2.39542e-19)
(0.0537388 -0.0175536 -2.99871e-19)
(1.41547 -0.194742 4.49586e-19)
(1.44139 -0.213432 -2.53978e-19)
(1.46894 -0.232872 -2.72175e-19)
(1.49742 -0.252308 2.978e-19)
(1.52527 -0.27206 3.54705e-21)
(1.55041 -0.291173 -3.45993e-19)
(1.5698 -0.309196 3.62691e-19)
(1.57964 -0.325157 -3.96618e-19)
(1.5755 -0.338019 1.98929e-19)
(1.55286 -0.346572 -6.59445e-19)
(1.50777 -0.349618 0)
(1.43758 -0.346121 -2.42333e-19)
(1.34164 -0.335382 0)
(1.22154 -0.317184 1.28526e-19)
(1.08108 -0.291852 -1.37395e-19)
(0.925769 -0.260227 0)
(0.762211 -0.223566 1.44159e-19)
(0.597357 -0.18338 -1.51718e-19)
(0.43788 -0.141311 7.96458e-20)
(0.289699 -0.0990315 -7.95429e-20)
(0.157896 -0.057666 2.45825e-19)
(0.0467057 -0.0173869 -2.41752e-19)
(1.3854 -0.216994 4.4835e-19)
(1.40915 -0.238702 -4.99099e-19)
(1.4345 -0.260926 0)
(1.46067 -0.283263 2.97039e-19)
(1.48605 -0.305865 4.01824e-21)
(1.50848 -0.327641 3.42406e-19)
(1.52484 -0.347984 0)
(1.53129 -0.365694 -9.09869e-21)
(1.52349 -0.379517 -6.27918e-19)
(1.4971 -0.388032 4.47079e-19)
(1.44845 -0.389897 0)
(1.37535 -0.384022 2.40138e-19)
(1.27756 -0.369776 0)
(1.15708 -0.347125 -2.62487e-19)
(1.01797 -0.316675 6.90002e-19)
(0.8659 -0.279613 -1.44225e-19)
(0.70745 -0.237566 0)
(0.549447 -0.192413 7.66353e-20)
(0.398376 -0.146128 -7.93203e-20)
(0.259954 -0.100679 -8.4466e-20)
(0.139106 -0.0574363 8.39683e-20)
(0.0400239 -0.0167152 0)
(1.35258 -0.233991 4.28437e-21)
(1.37397 -0.258413 6.08901e-21)
(1.39704 -0.283313 5.45239e-19)
(1.4208 -0.308533 2.96271e-19)
(1.44362 -0.33403 -6.41327e-19)
(1.46329 -0.358537 0)
(1.47664 -0.381276 -3.74404e-19)
(1.47987 -0.400808 7.93043e-19)
(1.46874 -0.41566 0)
(1.43908 -0.424212 -2.25249e-19)
(1.38758 -0.424988 0)
(1.31235 -0.416864 2.43369e-19)
(1.21355 -0.399291 -2.6139e-19)
(1.09348 -0.37243 0)
(0.956408 -0.33717 0)
(0.808058 -0.295044 -1.4519e-19)
(0.654962 -0.248044 -1.56064e-19)
(0.503813 -0.198409 1.55809e-19)
(0.360925 -0.148445 -3.32507e-19)
(0.231841 -0.100427 8.4141e-20)
(0.121375 -0.0559838 0)
(0.0337277 -0.0155958 0)
(1.31924 -0.246308 -8.94528e-19)
(1.33759 -0.273227 4.95652e-19)
(1.35772 -0.300519 5.4387e-19)
(1.3785 -0.328253 -2.9337e-19)
(1.39831 -0.356312 0)
(1.41493 -0.38328 3.42993e-19)
(1.42518 -0.408228 8.65508e-22)
(1.42533 -0.429493 -3.85756e-19)
(1.41122 -0.445391 4.29325e-19)
(1.3789 -0.454104 2.22386e-19)
(1.32529 -0.454019 0)
(1.24882 -0.443971 0)
(1.14991 -0.423473 -2.59559e-19)
(1.03107 -0.39286 8.29451e-19)
(0.896695 -0.353285 -5.76326e-19)
(0.752511 -0.306603 3.03332e-19)
(0.60497 -0.255163 1.54776e-19)
(0.460627 -0.20156 3.20903e-19)
(0.325645 -0.148442 -3.4126e-19)
(0.20543 -0.0984082 0)
(0.104728 -0.0533806 0)
(0.0278134 -0.0140449 3.04754e-19)
(1.28445 -0.252632 0)
(1.30007 -0.281613 4.93587e-19)
(1.3175 -0.311393 5.89844e-21)
(1.33541 -0.34177 0)
(1.35225 -0.372589 0)
(1.36586 -0.402234 -3.44055e-19)
(1.37309 -0.42962 -3.63487e-19)
(1.37032 -0.452864 4.04935e-19)
(1.35352 -0.470069 -8.54586e-19)
(1.31895 -0.47922 4.59153e-19)
(1.26375 -0.478573 7.17455e-19)
(1.18662 -0.466914 -1.2691e-18)
(1.08817 -0.443824 8.08236e-19)
(0.97107 -0.409805 2.85323e-19)
(0.839767 -0.366269 -2.95811e-19)
(0.699959 -0.315388 0)
(0.557983 -0.259859 1.63154e-19)
(0.420254 -0.202638 3.35181e-19)
(0.292795 -0.146723 -3.47326e-19)
(0.180904 -0.0950558 -8.92838e-20)
(0.0892861 -0.0498919 3.73271e-19)
(0.0223336 -0.0121637 0)
(1.25136 -0.254752 -8.88085e-19)
(1.26301 -0.285005 4.54934e-21)
(1.27671 -0.316333 5.8903e-21)
(1.29102 -0.348449 0)
(1.30431 -0.381269 -3.17989e-19)
(1.31453 -0.413037 -3.44976e-19)
(1.31858 -0.442515 7.48918e-19)
(1.31295 -0.467629 -4.05948e-19)
(1.29378 -0.486272 4.25372e-19)
(1.25749 -0.49623 -4.51979e-19)
(1.20143 -0.495594 2.50331e-19)
(1.12444 -0.483059 4.99641e-19)
(1.02728 -0.458201 -8.10867e-19)
(0.912658 -0.421624 -2.79846e-19)
(0.784998 -0.374935 5.98853e-19)
(0.649916 -0.320582 -3.14874e-19)
(0.513624 -0.261595 -1.6138e-19)
(0.382398 -0.201294 -5.09599e-19)
(0.262147 -0.143054 5.3884e-19)
(0.158086 -0.0901988 9.1033e-20)
(0.0749193 -0.045384 0)
(0.0172142 -0.00987345 -8.28856e-20)
(1.21891 -0.251134 -1.7849e-21)
(1.22772 -0.282975 -4.81173e-19)
(1.23828 -0.316822 4.64491e-21)
(1.24944 -0.351261 2.9205e-19)
(1.25944 -0.386577 -3.64379e-21)
(1.26645 -0.420906 -5.05094e-21)
(1.26746 -0.452863 0)
(1.25911 -0.480191 0)
(1.23771 -0.500567 8.64723e-19)
(1.19985 -0.511569 -4.65559e-19)
(1.14305 -0.511127 0)
(1.06633 -0.497848 2.55361e-19)
(0.97054 -0.471326 0)
(0.858434 -0.432285 2.91443e-19)
(0.73439 -0.382546 -2.98372e-19)
(0.60391 -0.324841 0)
(0.473051 -0.26253 -3.3215e-19)
(0.347931 -0.19929 3.50455e-19)
(0.234345 -0.138861 5.45069e-21)
(0.137446 -0.0849483 3.77023e-19)
(0.0619392 -0.0406169 -4.91643e-19)
(0.0125928 -0.00747913 3.34478e-19)
(1.19073 -0.255726 1.26599e-22)
(1.1974 -0.28617 -2.57332e-19)
(1.20404 -0.320781 -2.84791e-19)
(1.21111 -0.356018 0)
(1.21619 -0.392153 0)
(1.21774 -0.427172 0)
(1.21273 -0.459497 0)
(1.19804 -0.486698 -5.3549e-21)
(1.17032 -0.506332 -2.42349e-21)
(1.12676 -0.515923 -4.9327e-19)
(1.06549 -0.513449 0)
(0.986135 -0.497655 0)
(0.890033 -0.468346 -5.75052e-19)
(0.780168 -0.426497 5.38734e-21)
(0.66088 -0.374187 0)
(0.537397 -0.314387 0)
(0.415336 -0.250667 0)
(0.300294 -0.186886 -3.66494e-19)
(0.197531 -0.126947 7.68622e-21)
(0.11168 -0.0746791 2.29133e-21)
(0.0469713 -0.0332978 5.08206e-19)
(0.00779851 -0.00458449 -2.57152e-21)
(1.16406 -0.269603 -9.56129e-19)
(1.16778 -0.30142 2.62987e-19)
(1.17054 -0.337644 -2.90835e-19)
(1.17303 -0.374116 0)
(1.17219 -0.410751 0)
(1.16666 -0.445348 0)
(1.15327 -0.475999 0)
(1.12937 -0.500147 8.78639e-19)
(1.09221 -0.515393 -4.68292e-19)
(1.0399 -0.519509 4.97598e-19)
(0.971608 -0.510929 -5.38266e-19)
(0.887921 -0.48898 2.75981e-19)
(0.790885 -0.454077 -6.03128e-19)
(0.683827 -0.407728 -1.1184e-21)
(0.571004 -0.352391 6.65228e-19)
(0.457178 -0.291222 -3.50841e-19)
(0.347221 -0.227802 -1.79181e-19)
(0.245807 -0.165862 1.89451e-19)
(0.157205 -0.109087 -1.95478e-19)
(0.08508 -0.0610324 0)
(0.0327668 -0.0246603 -4.19987e-19)
(0.00378705 -0.00169781 -1.56449e-21)
(1.13361 -0.279469 0)
(1.13335 -0.312512 -2.72623e-19)
(1.1314 -0.349423 -2.98014e-19)
(1.12799 -0.386132 -3.24891e-19)
(1.12025 -0.422111 7.15519e-19)
(1.1068 -0.455162 0)
(1.08475 -0.483066 0)
(1.05196 -0.50334 -8.97484e-19)
(1.00643 -0.513735 4.87953e-19)
(0.947147 -0.512391 2.60891e-19)
(0.874135 -0.498229 0)
(0.788691 -0.471116 2.90042e-19)
(0.693264 -0.431966 3.07866e-19)
(0.591225 -0.38266 -6.59685e-19)
(0.486525 -0.325866 0)
(0.383333 -0.264787 0)
(0.285739 -0.202915 -1.87043e-19)
(0.19755 -0.143797 7.88685e-19)
(0.12216 -0.090883 -2.03126e-21)
(0.0624263 -0.0474585 -8.46993e-19)
(0.0209625 -0.0162493 5.46365e-19)
(0.000579632 0.00105599 1.84041e-19)
(1.09944 -0.285276 -2.49928e-19)
(1.09479 -0.319283 8.28002e-19)
(1.08743 -0.356356 3.03952e-19)
(1.07745 -0.392608 -2.02138e-21)
(1.06245 -0.42722 -1.09488e-18)
(1.04095 -0.457962 7.9531e-19)
(1.01058 -0.482456 -4.82813e-21)
(0.969771 -0.498421 -4.67471e-19)
(0.917291 -0.503856 2.51361e-19)
(0.852896 -0.497338 -2.64923e-19)
(0.777308 -0.478271 2.86958e-19)
(0.692279 -0.446999 -6.00802e-19)
(0.600416 -0.404823 3.20801e-19)
(0.504927 -0.353869 1.63847e-19)
(0.409318 -0.296893 -3.54952e-19)
(0.317114 -0.237046 3.7561e-19)
(0.231645 -0.177657 0)
(0.15593 -0.122046 -4.02056e-19)
(0.0926036 -0.0734087 4.24149e-19)
(0.043843 -0.0347548 0)
(0.0116504 -0.00858449 3.36821e-19)
(-0.00177752 0.00347355 -5.66668e-19)
(1.06204 -0.286335 0)
(1.05246 -0.320713 0)
(1.03891 -0.357198 0)
(1.02198 -0.392208 -3.44678e-19)
(0.999538 -0.424759 0)
(0.970192 -0.452539 -4.10914e-19)
(0.932202 -0.473216 5.27593e-21)
(0.884571 -0.48476 4.80481e-19)
(0.826786 -0.485495 -2.55036e-19)
(0.759228 -0.47444 0)
(0.683098 -0.451438 4.99337e-21)
(0.600383 -0.417222 3.14711e-19)
(0.513644 -0.37336 6.56227e-19)
(0.425784 -0.322105 -1.78041e-19)
(0.339793 -0.266192 -1.85874e-19)
(0.258549 -0.208638 0)
(0.184683 -0.152558 4.02767e-19)
(0.120521 -0.101019 -7.35612e-19)
(0.0680467 -0.0569515 -4.34964e-19)
(0.0288691 -0.023099 1.65894e-21)
(0.00448067 -0.00174739 4.61987e-19)
(-0.00343607 0.00555058 -2.35879e-21)
(1.022 -0.281715 -2.61409e-19)
(1.00684 -0.315696 -2.92145e-19)
(0.986648 -0.350799 0)
(0.962649 -0.383853 3.49756e-19)
(0.932857 -0.413729 0)
(0.896184 -0.438085 -5.59963e-22)
(0.851532 -0.454796 -4.47838e-19)
(0.798447 -0.462111 7.40832e-19)
(0.737032 -0.458727 -5.25261e-19)
(0.668127 -0.444065 2.91521e-19)
(0.593221 -0.418336 9.0853e-19)
(0.514342 -0.382552 -1.12622e-18)
(0.433862 -0.338425 5.10889e-19)
(0.354286 -0.28822 -2.93378e-21)
(0.278065 -0.234562 -5.70525e-19)
(0.207465 -0.180271 1.98061e-19)
(0.144492 -0.128213 3.096e-19)
(0.0908685 -0.0811884 -4.16449e-21)
(0.0480334 -0.0418631 -1.66217e-21)
(0.0171191 -0.012727 -4.62283e-19)
(-0.000807687 0.00413385 0)
(-0.00449405 0.00724829 -2.46855e-19)
(0.980144 -0.270641 0)
(0.958892 -0.303372 5.89489e-19)
(0.931923 -0.336329 0)
(0.900974 -0.366811 0)
(0.864189 -0.393538 -7.88792e-19)
(0.820967 -0.414258 -1.26703e-21)
(0.770774 -0.427138 4.64244e-19)
(0.713654 -0.430719 -2.54983e-19)
(0.650186 -0.424064 -2.78535e-19)
(0.58151 -0.406939 -1.16555e-18)
(0.509233 -0.379825 -3.1285e-19)
(0.435287 -0.343897 3.30167e-19)
(0.361754 -0.300904 1.75167e-19)
(0.290704 -0.253023 -7.39901e-19)
(0.224068 -0.202702 2.54326e-21)
(0.163552 -0.15252 6.11758e-19)
(0.110612 -0.105072 1.05565e-19)
(0.0664597 -0.0628889 5.524e-19)
(0.0320738 -0.028378 -4.59804e-19)
(0.0081909 -0.00378813 0)
(-0.00447984 0.00898098 0)
(-0.00504776 0.00854213 -4.96457e-20)
(0.93758 -0.252399 5.45424e-19)
(0.909952 -0.283017 -3.00517e-19)
(0.876351 -0.31315 4.25411e-22)
(0.838753 -0.340554 -1.44376e-21)
(0.795573 -0.363837 4.00724e-19)
(0.746731 -0.380959 4.37088e-19)
(0.692169 -0.390393 2.35375e-19)
(0.632357 -0.390978 -7.72513e-19)
(0.568203 -0.382099 8.34332e-19)
(0.501008 -0.363783 2.95835e-19)
(0.432363 -0.336683 -9.85058e-22)
(0.364011 -0.302028 5.09423e-19)
(0.297698 -0.261504 -7.18182e-19)
(0.235061 -0.217127 1.89501e-19)
(0.177545 -0.171115 0)
(0.126365 -0.125776 0)
(0.0825045 -0.0834258 1.10088e-19)
(0.0467403 -0.0463237 -1.14408e-19)
(0.0196645 -0.0166277 0)
(0.00168336 0.00364185 1.2181e-19)
(-0.00679586 0.012759 0)
(-0.00519052 0.00942184 -5.15243e-20)
(0.895774 -0.226524 2.78118e-19)
(0.861758 -0.254231 -6.14018e-19)
(0.821868 -0.280982 -3.41774e-19)
(0.778094 -0.304937 1.12428e-18)
(0.729269 -0.324677 -4.11819e-19)
(0.675781 -0.338454 -6.7323e-19)
(0.617961 -0.34503 7.31872e-19)
(0.556609 -0.343521 -2.08555e-21)
(0.492832 -0.333571 -5.70739e-19)
(0.42798 -0.315378 -1.53389e-19)
(0.363541 -0.28967 3.24204e-19)
(0.301017 -0.257633 -3.47911e-19)
(0.241812 -0.220814 0)
(0.187162 -0.181008 1.92383e-19)
(0.13808 -0.140164 0)
(0.0953554 -0.1003 -4.26371e-19)
(0.0595684 -0.0634456 7.81256e-19)
(0.0311274 -0.0315932 -3.49091e-19)
(0.0102958 -0.00665949 4.77942e-19)
(-0.00279934 0.00955045 -1.2317e-19)
(-0.00800874 0.0154731 -9.44046e-19)
(-0.00501272 0.00989185 8.81203e-19)
(0.856092 -0.19291 -2.82391e-19)
(0.815943 -0.216963 0)
(0.770261 -0.239881 3.44941e-19)
(0.720934 -0.260139 -3.80083e-19)
(0.667293 -0.276409 4.18026e-19)
(0.610092 -0.287249 -2.30723e-19)
(0.549973 -0.291684 -2.47839e-19)
(0.487964 -0.289066 4.02358e-19)
(0.425271 -0.279221 -2.88714e-19)
(0.363216 -0.262435 7.38499e-22)
(0.303138 -0.23942 3.33531e-19)
(0.24629 -0.211245 1.77751e-19)
(0.193764 -0.179254 0)
(0.146438 -0.144978 0)
(0.10496 -0.110067 4.14662e-19)
(0.069755 -0.076232 -5.46026e-19)
(0.0410572 -0.0452094 0)
(0.0189534 -0.018724 0)
(0.00341951 0.00154003 4.8625e-19)
(-0.00566241 0.0139774 -5.01081e-19)
(-0.00836837 0.0171705 -5.75042e-19)
(-0.00460307 0.00997859 8.40955e-19)
(0.818046 -0.152416 2.83473e-19)
(0.772349 -0.172186 3.17797e-19)
(0.721587 -0.19094 2.36985e-22)
(0.667537 -0.207367 -3.87665e-19)
(0.609998 -0.220347 -1.0467e-21)
(0.549998 -0.22872 -2.32837e-19)
(0.488412 -0.23174 -2.52023e-19)
(0.42641 -0.228945 1.37953e-19)
(0.365231 -0.220275 2.95869e-19)
(0.306133 -0.206029 1.5732e-19)
(0.250298 -0.186838 -1.69723e-19)
(0.198756 -0.163598 -1.78714e-19)
(0.152331 -0.137406 -3.79589e-19)
(0.111606 -0.109494 8.04054e-19)
(0.0769203 -0.0811855 -9.51346e-19)
(0.04839 -0.0538627 5.53259e-19)
(0.0259442 -0.0289504 5.18106e-19)
(0.00937865 -0.00789741 -4.18987e-19)
(-0.00159793 0.00784345 6.20823e-20)
(-0.00733257 0.0168512 5.07248e-19)
(-0.00811162 0.0178292 -5.19527e-19)
(-0.00403857 0.00968433 2.67339e-20)
(0.773141 -0.107412 2.88144e-19)
(0.723264 -0.122249 0)
(0.668835 -0.136443 1.78332e-19)
(0.611615 -0.148823 1.96731e-19)
(0.551723 -0.158573 2.1482e-19)
(0.490377 -0.164795 -1.18085e-19)
(0.4286 -0.166942 -2.55465e-19)
(0.367643 -0.16469 2.78135e-19)
(0.308737 -0.158029 -2.9783e-19)
(0.253059 -0.147221 3.21847e-19)
(0.201652 -0.132764 -1.70765e-19)
(0.155356 -0.115344 2.74302e-19)
(0.114775 -0.095774 0)
(0.0802547 -0.0749599 -4.06214e-19)
(0.0518826 -0.053868 5.35781e-19)
(0.029515 -0.0335187 0)
(0.0128171 -0.0149902 4.07951e-19)
(0.00132018 0.000575167 -5.45094e-19)
(-0.00552104 0.011974 -6.21448e-20)
(-0.00828081 0.0179659 0)
(-0.00746617 0.0173429 2.29463e-19)
(-0.00338402 0.0089939 -2.41441e-19)
(0.69535 -0.0632918 1.46078e-19)
(0.644875 -0.072927 -1.61942e-19)
(0.590405 -0.082308 4.51362e-22)
(0.533806 -0.0904935 -2.96782e-19)
(0.475288 -0.0969841 0)
(0.416148 -0.101164 3.56273e-19)
(0.357455 -0.102662 -2.59487e-19)
(0.300461 -0.101269 -2.79596e-19)
(0.246342 -0.0969933 7.76899e-20)
(0.19617 -0.0900269 6.48689e-19)
(0.150842 -0.0807149 -2.47189e-21)
(0.111026 -0.0695119 -2.78109e-19)
(0.0771401 -0.0569421 -4.89391e-20)
(0.0493372 -0.0435696 -4.62336e-19)
(0.0275181 -0.0299868 5.95438e-19)
(0.0113539 -0.0168225 -1.70098e-19)
(0.000323746 -0.00476595 0)
(-0.00623493 0.00540163 0)
(-0.0090675 0.0127823 3.16232e-20)
(-0.00894848 0.0163601 2.59037e-19)
(-0.0066263 0.0150297 -2.65325e-19)
(-0.00268105 0.00762528 0)
(0.533954 -0.0253463 -2.93579e-19)
(0.49102 -0.0297708 -5.07014e-22)
(0.444952 -0.0338542 1.80738e-19)
(0.397561 -0.0374044 -9.97146e-20)
(0.348985 -0.0401803 0)
(0.300365 -0.0419288 -6.01036e-20)
(0.252643 -0.0424661 -2.92995e-19)
(0.206894 -0.0417029 2.47795e-19)
(0.164106 -0.0396527 -7.60199e-20)
(0.125145 -0.03642 3.25829e-19)
(0.0906912 -0.0321781 -3.50466e-19)
(0.0612099 -0.0271428 0)
(0.0369381 -0.0215466 4.90639e-20)
(0.0178886 -0.0156224 7.77712e-20)
(0.00386721 -0.00959865 2.44396e-19)
(-0.00550526 -0.00371261 -3.13784e-19)
(-0.0107677 0.00176058 0)
(-0.0125922 0.00646406 -1.53996e-20)
(-0.0117482 0.00991174 -3.16369e-20)
(-0.00907058 0.0114505 0)
(-0.00548706 0.0102259 3.3217e-20)
(-0.00190315 0.00516073 0)
(0.231109 -0.0027153 1.44508e-19)
(0.21059 -0.00379936 -1.59697e-19)
(0.188471 -0.00457527 0)
(0.165683 -0.00526351 -1.94994e-19)
(0.142396 -0.00582762 2.13568e-19)
(0.119205 -0.00624177 -5.8346e-20)
(0.096625 -0.00645968 3.20215e-20)
(0.0752239 -0.00645448 1.71499e-19)
(0.0555131 -0.0062185 0)
(0.0379199 -0.00576438 -1.57473e-19)
(0.0227551 -0.00511979 1.69026e-19)
(0.0102027 -0.00432017 0)
(0.000323592 -0.00340107 -1.88339e-19)
(-0.00692919 -0.00239221 1.74842e-19)
(-0.0116897 -0.00131507 2.34e-19)
(-0.0141604 -0.000186423 2.60075e-20)
(-0.014601 0.000969807 -2.26856e-19)
(-0.0133306 0.00210017 -2.19478e-19)
(-0.0107333 0.00308909 4.69792e-22)
(-0.00728742 0.00371415 2.48633e-19)
(-0.00373182 0.00356309 2.54372e-19)
(-0.00110283 0.00194842 -2.09782e-19)
(0.963878 0.0161318 -1.78818e-19)
(0.917673 0.0176523 -5.04965e-20)
(0.871397 0.0192987 5.57431e-20)
(0.824636 0.0210437 0)
(0.777258 0.0228789 0)
(0.729128 0.024797 0)
(0.68016 0.0267906 4.16115e-20)
(0.630304 0.0288533 9.15958e-20)
(0.579547 0.030978 -4.9249e-20)
(0.527906 0.0331542 -5.38661e-20)
(0.475436 0.0353598 5.85934e-20)
(0.422241 0.0375476 -6.26769e-20)
(0.368514 0.0396242 1.01012e-19)
(0.314587 0.0414269 -7.14824e-20)
(0.261011 0.0427067 0)
(0.208617 0.0431286 3.98762e-20)
(0.158568 0.0422947 -2.08816e-20)
(0.112354 0.0397896 4.364e-20)
(0.0716623 0.035239 -6.76402e-20)
(0.0382009 0.0283686 -2.32194e-20)
(0.0142465 0.0190291 -2.38158e-20)
(0.0026565 0.00721606 0)
(0.967063 0.0743295 -8.88553e-20)
(0.92126 0.0772581 1.00738e-19)
(0.875526 0.0808074 1.33744e-22)
(0.829265 0.084867 -1.23557e-19)
(0.78239 0.0893912 0)
(0.734767 0.0943412 -1.05312e-21)
(0.686308 0.099678 2.06798e-19)
(0.636968 0.105366 0)
(0.58673 0.111368 0)
(0.535611 0.117636 -1.08061e-19)
(0.483661 0.124087 2.3286e-19)
(0.430974 0.130556 -1.87308e-19)
(0.377725 0.136729 -3.3572e-20)
(0.324211 0.142065 1.43005e-19)
(0.270929 0.145736 -1.5087e-19)
(0.218641 0.146629 4.02644e-20)
(0.168417 0.143414 -1.45605e-19)
(0.12165 0.134692 1.73815e-19)
(0.0799352 0.119188 -1.57146e-19)
(0.044903 0.09594 2.32187e-20)
(0.0187791 0.0643965 -2.13978e-19)
(0.00439935 0.0244802 -2.68053e-22)
(0.973342 0.131445 1.77982e-19)
(0.928465 0.135837 0)
(0.883916 0.141297 -1.11104e-19)
(0.838741 0.147668 -1.23623e-19)
(0.792938 0.154858 6.79662e-19)
(0.746374 0.162796 -1.4819e-19)
(0.698967 0.171414 -4.11179e-19)
(0.650676 0.180649 0)
(0.601489 0.190438 0)
(0.55142 0.200699 -1.06263e-19)
(0.500513 0.211292 1.14822e-19)
(0.448846 0.221938 6.23043e-20)
(0.396552 0.23211 0)
(0.343863 0.240894 0)
(0.291166 0.246899 -2.9999e-19)
(0.239072 0.248242 -1.8752e-23)
(0.188472 0.242678 3.29926e-19)
(0.14056 0.227841 0)
(0.0967445 0.201571 0)
(0.0585054 0.162235 0)
(0.0279681 0.108894 -1.88229e-19)
(0.00793045 0.0414045 2.69457e-19)
(0.982073 0.186112 3.51986e-19)
(0.93864 0.19196 -1.94608e-19)
(0.895913 0.199266 -2.18283e-19)
(0.852408 0.207878 2.41746e-19)
(0.808254 0.217656 -4.04887e-19)
(0.763319 0.2285 6.81534e-22)
(0.717527 0.240314 0)
(0.670843 0.25301 5.34695e-19)
(0.623259 0.266499 -3.87323e-19)
(0.574788 0.280666 3.1541e-19)
(0.525466 0.295314 -1.14526e-19)
(0.475343 0.310056 1.21615e-19)
(0.424498 0.324151 0)
(0.373059 0.336325 0)
(0.321252 0.344633 -1.46507e-19)
(0.269465 0.346444 -2.33099e-19)
(0.218317 0.338623 3.25337e-19)
(0.16871 0.317868 0)
(0.121774 0.281168 -8.70641e-20)
(0.0787637 0.226258 -3.62705e-19)
(0.0416547 0.151838 1.37685e-19)
(0.0131885 0.0577221 7.98553e-23)
(0.993259 0.237451 6.88633e-19)
(0.951766 0.244791 2.96355e-21)
(0.911451 0.253901 -4.25772e-19)
(0.870156 0.264703 -7.1776e-19)
(0.828187 0.276996 0)
(0.785411 0.290655 5.86173e-19)
(0.741758 0.305557 -1.33711e-21)
(0.697205 0.321592 -1.76387e-19)
(0.651744 0.338649 0)
(0.605391 0.356581 -4.14231e-19)
(0.558167 0.37514 0)
(0.510091 0.393834 -3.65009e-19)
(0.461165 0.411722 7.6903e-19)
(0.411383 0.427182 -1.35661e-19)
(0.360757 0.437734 5.8313e-19)
(0.309384 0.440029 -6.09854e-19)
(0.257522 0.430075 -3.19784e-19)
(0.205688 0.403675 6.65606e-19)
(0.154649 0.357012 -6.02685e-19)
(0.105365 0.28723 3.55186e-19)
(0.059621 0.192706 -9.20636e-20)
(0.020086 0.0732344 -3.619e-20)
(1.00674 0.284642 -3.40331e-19)
(0.967665 0.293476 -3.78491e-19)
(0.930307 0.304296 4.2638e-19)
(0.891721 0.317177 0)
(0.852434 0.33185 0)
(0.812304 0.348171 -2.90136e-19)
(0.771275 0.366 -1.51173e-21)
(0.729334 0.385206 3.44305e-19)
(0.686482 0.405657 -3.73052e-19)
(0.64273 0.427181 2.04553e-19)
(0.598088 0.44948 -2.16829e-19)
(0.552532 0.471963 -7.09031e-19)
(0.505973 0.493501 4.975e-19)
(0.45824 0.512144 1.35176e-19)
(0.409082 0.524902 1.43079e-19)
(0.358231 0.527741 0)
(0.305507 0.515852 6.24385e-19)
(0.250951 0.484189 -6.49663e-19)
(0.194884 0.428178 0)
(0.137914 0.34442 -6.95348e-19)
(0.0815955 0.231013 8.00237e-19)
(0.0285147 0.0877576 4.39137e-19)
(1.02224 0.326759 3.3493e-19)
(0.986009 0.337094 3.75697e-19)
(0.952077 0.349546 -4.11043e-19)
(0.916642 0.364419 0)
(0.880491 0.381356 0)
(0.843464 0.400201 -2.81611e-19)
(0.80552 0.420792 3.09106e-19)
(0.766656 0.442984 3.39933e-19)
(0.726876 0.466628 -1.45878e-18)
(0.686191 0.491533 7.89243e-19)
(0.644592 0.517358 2.15569e-19)
(0.602008 0.54343 4.58926e-19)
(0.558247 0.568448 -7.371e-19)
(0.51294 0.590154 0)
(0.465532 0.605087 2.793e-19)
(0.415325 0.608564 1.59601e-22)
(0.361617 0.595003 -6.06597e-19)
(0.303892 0.558557 0)
(0.241949 0.493945 0)
(0.175986 0.397273 6.76017e-19)
(0.107291 0.266401 -6.95499e-19)
(0.0383625 0.101162 -7.24051e-20)
(1.03945 0.363358 -9.70089e-19)
(1.0065 0.375143 3.66739e-19)
(0.976427 0.389063 4.09585e-19)
(0.944538 0.405728 -4.46284e-19)
(0.911903 0.424696 0)
(0.878344 0.445819 6.68952e-21)
(0.843848 0.468927 -8.89676e-19)
(0.808429 0.493861 1.30341e-18)
(0.772103 0.520459 2.44623e-21)
(0.734879 0.548508 -1.156e-18)
(0.696732 0.577634 1.65601e-18)
(0.657535 0.607087 -8.88197e-19)
(0.616978 0.635415 2.34193e-19)
(0.574475 0.660085 0)
(0.529114 0.677199 7.64231e-21)
(0.479712 0.68147 0)
(0.424966 0.666589 -5.86727e-19)
(0.363716 0.625955 6.11306e-19)
(0.295165 0.553628 0)
(0.219047 0.445264 -6.54199e-19)
(0.136357 0.298532 -8.71972e-20)
(0.0494942 0.113323 1.10939e-18)
(1.05775 0.393658 1.27205e-18)
(1.0284 0.406862 3.53645e-19)
(1.00247 0.422187 0)
(0.974457 0.440582 4.30724e-19)
(0.945722 0.461479 4.74894e-19)
(0.916041 0.484724 4.34735e-21)
(0.885414 0.510137 2.90028e-19)
(0.853859 0.537557 3.1093e-19)
(0.821395 0.566822 0)
(0.788033 0.597717 -1.11915e-18)
(0.753731 0.629847 1.60086e-18)
(0.718314 0.662407 -8.5855e-19)
(0.681347 0.693822 -6.59136e-21)
(0.642008 0.72132 2.39689e-19)
(0.598999 0.740609 2.61163e-19)
(0.550587 0.745844 2.6578e-19)
(0.494797 0.730038 -8.42681e-19)
(0.429743 0.685879 8.45876e-22)
(0.353957 0.606812 6.10333e-19)
(0.266653 0.488085 -6.3026e-19)
(0.168504 0.327212 6.47214e-19)
(0.0618018 0.124178 0)
(1.07685 0.417861 1.22412e-18)
(1.05154 0.432309 -6.94309e-19)
(1.03007 0.448695 0)
(1.00615 0.468413 -4.20835e-19)
(0.981457 0.490829 -9.33069e-19)
(0.955775 0.515831 0)
(0.929162 0.543233 5.59247e-19)
(0.901669 0.572856 -1.21847e-18)
(0.873319 0.604523 3.34621e-19)
(0.844119 0.638002 0)
(0.814003 0.67288 0)
(0.782734 0.708314 0)
(0.749746 0.742634 -6.76597e-21)
(0.713964 0.772871 -2.3773e-19)
(0.673671 0.79439 -4.93183e-19)
(0.626535 0.800839 -2.62237e-19)
(0.569832 0.784597 5.53453e-19)
(0.500864 0.737685 0)
(0.417412 0.65297 -1.43295e-19)
(0.318116 0.525332 0)
(0.203294 0.352178 -6.22873e-19)
(0.0751195 0.133627 5.17597e-19)
(1.09563 0.435054 -9.69712e-21)
(1.07444 0.4508 -6.6198e-19)
(1.05755 0.468429 3.62193e-19)
(1.03811 0.489627 8.14902e-19)
(1.01798 0.513569 4.48585e-19)
(0.996805 0.540163 0)
(0.97465 0.56925 -5.32756e-19)
(0.951576 0.600695 5.80077e-19)
(0.92764 0.634351 3.22759e-19)
(0.902874 0.67 -6.88289e-19)
(0.877217 0.707232 7.41563e-19)
(0.850391 0.745182 -7.92386e-19)
(0.821706 0.782112 6.32191e-19)
(0.789826 0.814898 1.11489e-18)
(0.752589 0.838609 -2.36922e-19)
(0.707009 0.846445 -7.51758e-19)
(0.64954 0.830201 5.27485e-19)
(0.576588 0.781278 -8.0441e-19)
(0.485105 0.692002 1.42658e-19)
(0.373102 0.556921 7.18453e-19)
(0.240511 0.373374 -5.94297e-19)
(0.0893697 0.141658 1.2174e-19)
(1.11447 0.446745 -1.736e-18)
(1.09792 0.4632 1.07305e-20)
(1.08545 0.481175 -7.14352e-19)
(1.07007 0.503034 -1.57963e-18)
(1.05404 0.527916 4.33054e-19)
(1.03712 0.555727 0)
(1.01939 0.58624 1.18593e-20)
(1.00088 0.619273 -1.1295e-18)
(0.981605 0.65466 0)
(0.961562 0.692191 0)
(0.940671 0.731473 0)
(0.918613 0.771657 0)
(0.894586 0.810984 0)
(0.86701 0.846232 6.35446e-19)
(0.833276 0.872239 2.23487e-19)
(0.789714 0.881799 -9.58674e-19)
(0.731884 0.866158 2.51999e-19)
(0.655196 0.816114 2.62176e-19)
(0.555669 0.723481 -2.59711e-19)
(0.43061 0.582513 -6.89586e-19)
(0.279532 0.390551 1.13271e-18)
(0.10432 0.148163 -1.07597e-18)
(1.13091 0.450825 1.12635e-18)
(1.11925 0.468889 6.32039e-19)
(1.11206 0.488188 -6.7904e-19)
(1.1019 0.511194 0)
(1.09075 0.536994 4.17677e-19)
(1.07844 0.565679 -4.57559e-19)
(1.06522 0.597154 9.98121e-19)
(1.05126 0.631298 -5.28517e-19)
(1.03666 0.667971 5.88015e-19)
(1.02143 0.706964 0)
(1.00548 0.747888 -3.34848e-19)
(0.988429 0.789902 0)
(0.969367 0.831239 -3.79491e-19)
(0.946445 0.868614 8.1249e-19)
(0.916577 0.896685 -8.6275e-19)
(0.87535 0.907918 -2.2945e-19)
(0.817363 0.893098 0)
(0.736958 0.842505 0)
(0.629168 0.747504 1.15748e-21)
(0.490568 0.602098 6.48495e-19)