/*--------------------------------*- C++ -*----------------------------------*\
| =========                 |                                                 |
| \\      /  F ield         | OpenFOAM Extend Project: Open source CFD        |
|  \\    /   O peration     | Version:  1.6-ext                               |
|   \\  /    A nd           | Web:      www.extend-project.de                 |
|    \\/     M anipulation  |                                                 |
\*---------------------------------------------------------------------------*/
FoamFile
{
    version     2.0;
    format      ascii;
    class       volScalarField::DimensionedInternalField;
    location    "0.1";
    object      V0;
}
// * * * * * * * * * * * * * * * * * * * * * * * * * * * * * * * * * * * * * //

dimensions      [0 3 0 0 0 0 0];

value           nonuniform List<scalar> 
20940
(
1.17098e-06
1.03796e-06
9.2092e-07
8.17885e-07
7.27115e-07
6.47091e-07
5.76488e-07
5.14149e-07
4.59062e-07
4.10343e-07
3.67218e-07
3.2901e-07
2.95127e-07
2.65051e-07
2.38326e-07
2.14555e-07
1.9339e-07
1.74523e-07
1.57687e-07
1.42647e-07
1.29196e-07
1.17151e-07
1.17114e-06
1.03809e-06
9.21041e-07
8.17992e-07
7.27211e-07
6.47179e-07
5.7657e-07
5.14226e-07
4.59134e-07
4.1041e-07
3.67279e-07
3.29066e-07
2.95178e-07
2.65098e-07
2.3837e-07
2.14596e-07
1.93429e-07
1.74561e-07
1.57724e-07
1.42683e-07
1.2923e-07
1.17185e-07
1.17373e-06
1.04038e-06
9.23071e-07
8.19796e-07
7.28815e-07
6.48608e-07
5.77846e-07
5.15368e-07
4.60159e-07
4.11332e-07
3.6811e-07
3.29815e-07
2.95853e-07
2.65706e-07
2.38919e-07
2.15092e-07
1.93878e-07
1.74969e-07
1.58095e-07
1.43021e-07
1.29538e-07
1.17466e-07
1.17802e-06
1.04419e-06
9.26449e-07
8.22797e-07
7.31485e-07
6.50986e-07
5.79966e-07
5.17261e-07
4.61852e-07
4.12849e-07
3.69473e-07
3.31042e-07
2.9696e-07
2.66704e-07
2.3982e-07
2.15906e-07
1.94613e-07
1.75633e-07
1.58696e-07
1.43566e-07
1.30033e-07
1.17916e-07
1.18332e-06
1.04892e-06
9.30682e-07
8.26589e-07
7.34887e-07
6.54042e-07
5.82715e-07
5.19736e-07
4.64083e-07
4.14862e-07
3.71292e-07
3.32689e-07
2.98455e-07
2.68064e-07
2.41057e-07
2.17033e-07
1.9564e-07
1.76569e-07
1.59549e-07
1.44344e-07
1.30744e-07
1.18566e-07
1.19019e-06
1.05508e-06
9.36205e-07
8.31552e-07
7.39352e-07
6.58066e-07
5.86347e-07
5.23018e-07
4.67052e-07
4.1755e-07
3.73729e-07
3.349e-07
3.00462e-07
2.6989e-07
2.42722e-07
2.18554e-07
1.9703e-07
1.7784e-07
1.60713e-07
1.45409e-07
1.31719e-07
1.1946e-07
1.19856e-06
1.06261e-06
9.42992e-07
8.37675e-07
7.44884e-07
6.63069e-07
5.90879e-07
5.27129e-07
4.70787e-07
4.20948e-07
3.76822e-07
3.37719e-07
3.03034e-07
2.72237e-07
2.44867e-07
2.20516e-07
1.98828e-07
1.7949e-07
1.62229e-07
1.46802e-07
1.33e-07
1.20637e-07
1.20844e-06
1.07155e-06
9.51086e-07
8.45012e-07
7.51542e-07
6.69118e-07
5.96379e-07
5.32136e-07
4.75351e-07
4.25114e-07
3.8063e-07
3.41204e-07
3.06225e-07
2.75163e-07
2.47549e-07
2.22977e-07
2.01088e-07
1.81568e-07
1.64141e-07
1.48564e-07
1.34625e-07
1.22136e-07
1.2198e-06
1.08188e-06
9.6049e-07
8.5358e-07
7.59356e-07
6.76251e-07
6.02896e-07
5.38095e-07
4.80804e-07
4.30109e-07
3.85209e-07
3.45406e-07
3.10086e-07
2.78713e-07
2.50818e-07
2.25987e-07
2.03861e-07
1.84124e-07
1.66498e-07
1.50741e-07
1.36637e-07
1.23998e-07
1.23258e-06
1.09355e-06
9.71165e-07
8.63359e-07
7.68322e-07
6.84478e-07
6.1045e-07
5.45036e-07
4.87185e-07
4.35977e-07
3.9061e-07
3.50379e-07
3.14668e-07
2.82939e-07
2.54718e-07
2.2959e-07
2.07192e-07
1.87205e-07
1.69348e-07
1.53378e-07
1.39078e-07
1.26259e-07
1.24651e-06
1.10635e-06
9.82947e-07
8.7421e-07
7.78327e-07
6.93712e-07
6.18978e-07
5.52917e-07
4.94469e-07
4.42712e-07
3.96838e-07
3.5614e-07
3.19999e-07
2.87873e-07
2.59286e-07
2.33822e-07
2.11115e-07
1.90843e-07
1.72724e-07
1.5651e-07
1.41984e-07
1.28955e-07
1.26206e-06
1.1207e-06
9.96192e-07
8.86441e-07
7.89629e-07
7.04165e-07
6.28656e-07
5.61885e-07
5.02786e-07
4.50428e-07
4.03998e-07
3.62784e-07
3.26164e-07
2.93593e-07
2.64594e-07
2.38747e-07
2.15686e-07
1.95087e-07
1.76665e-07
1.60173e-07
1.45388e-07
1.3212e-07
1.2785e-06
1.13599e-06
1.0104e-06
8.99656e-07
8.01915e-07
7.15584e-07
6.39271e-07
5.71756e-07
5.11972e-07
4.58984e-07
4.11971e-07
3.70216e-07
3.33092e-07
3.00051e-07
2.70611e-07
2.44352e-07
2.20905e-07
1.99946e-07
1.8119e-07
1.64386e-07
1.49313e-07
1.35777e-07
1.29584e-06
1.15223e-06
1.02561e-06
9.13893e-07
8.15238e-07
7.28047e-07
6.5092e-07
5.82636e-07
5.22128e-07
4.68463e-07
4.2082e-07
3.78482e-07
3.40818e-07
3.07272e-07
2.77362e-07
2.50662e-07
2.268e-07
2.0545e-07
1.86328e-07
1.6918e-07
1.53786e-07
1.39949e-07
1.31382e-06
1.16919e-06
1.04161e-06
9.28965e-07
8.29432e-07
7.41406e-07
6.63488e-07
5.94451e-07
5.33224e-07
4.78869e-07
4.3057e-07
3.87611e-07
3.49363e-07
3.15273e-07
2.84855e-07
2.5768e-07
2.33374e-07
2.11607e-07
1.92089e-07
1.74568e-07
1.58822e-07
1.44654e-07
1.24218e-06
1.10807e-06
9.89575e-07
8.8478e-07
7.92017e-07
7.09828e-07
6.36937e-07
5.72228e-07
5.1472e-07
4.63557e-07
4.17986e-07
3.77353e-07
3.41083e-07
3.08672e-07
2.79679e-07
2.53713e-07
2.30428e-07
2.09521e-07
1.90725e-07
1.73805e-07
1.58554e-07
1.44791e-07
1.21907e-06
1.08695e-06
9.70243e-07
8.67064e-07
7.75763e-07
6.94899e-07
6.23212e-07
5.59598e-07
5.03092e-07
4.52845e-07
4.08116e-07
3.68251e-07
3.32682e-07
3.0091e-07
2.72497e-07
2.47062e-07
2.24264e-07
2.03807e-07
1.85428e-07
1.68895e-07
1.54002e-07
1.40571e-07
1.19711e-06
1.06692e-06
9.51952e-07
8.50345e-07
7.60464e-07
6.80884e-07
6.10358e-07
5.47795e-07
4.92241e-07
4.42862e-07
3.98925e-07
3.59787e-07
3.24883e-07
2.93719e-07
2.65861e-07
2.4093e-07
2.18593e-07
1.98557e-07
1.80564e-07
1.64388e-07
1.49827e-07
1.36703e-07
1.17642e-06
1.04809e-06
9.34796e-07
8.34698e-07
7.4618e-07
6.67829e-07
5.98415e-07
5.36856e-07
4.82211e-07
4.33652e-07
3.90459e-07
3.51998e-07
3.17713e-07
2.87115e-07
2.59776e-07
2.3532e-07
2.13417e-07
1.93776e-07
1.76144e-07
1.60297e-07
1.46038e-07
1.33192e-07
1.15712e-06
1.03057e-06
9.18875e-07
8.20209e-07
7.32977e-07
6.55786e-07
5.87417e-07
5.26803e-07
4.73012e-07
4.25226e-07
3.82731e-07
3.44902e-07
3.1119e-07
2.81114e-07
2.54252e-07
2.30232e-07
2.08728e-07
1.89454e-07
1.72156e-07
1.56613e-07
1.4263e-07
1.30035e-07
1.13902e-06
1.01419e-06
9.04037e-07
8.06747e-07
7.20749e-07
6.44664e-07
5.77288e-07
5.17569e-07
4.64584e-07
4.17526e-07
3.7569e-07
3.38455e-07
3.0528e-07
2.7569e-07
2.49269e-07
2.25649e-07
2.0451e-07
1.85568e-07
1.68576e-07
1.53312e-07
1.39585e-07
1.27223e-07
1.12296e-06
9.9966e-07
8.90874e-07
7.94812e-07
7.09912e-07
6.34813e-07
5.68323e-07
5.09399e-07
4.5713e-07
4.10719e-07
3.69466e-07
3.32759e-07
3.00062e-07
2.70904e-07
2.44874e-07
2.2161e-07
2.00793e-07
1.82144e-07
1.65419e-07
1.504e-07
1.36899e-07
1.24746e-07
1.1083e-06
9.86444e-07
8.78937e-07
7.84016e-07
7.00136e-07
6.25949e-07
5.60275e-07
5.02084e-07
4.50473e-07
4.04653e-07
3.63932e-07
3.27706e-07
2.95443e-07
2.66677e-07
2.41002e-07
2.18059e-07
1.97533e-07
1.79149e-07
1.62663e-07
1.47864e-07
1.3456e-07
1.22589e-07
1.09528e-06
9.74716e-07
8.68364e-07
7.74472e-07
6.91511e-07
6.18144e-07
5.53204e-07
4.95668e-07
4.44646e-07
3.99353e-07
3.59106e-07
3.23306e-07
2.91426e-07
2.63008e-07
2.37646e-07
2.14986e-07
1.94717e-07
1.76566e-07
1.60291e-07
1.45682e-07
1.32552e-07
1.20738e-07
1.08387e-06
9.64467e-07
8.59142e-07
7.66162e-07
6.84014e-07
6.11371e-07
5.47079e-07
4.90122e-07
4.39617e-07
3.94789e-07
3.54957e-07
3.19529e-07
2.87986e-07
2.59869e-07
2.34779e-07
2.12364e-07
1.92317e-07
1.74366e-07
1.58274e-07
1.4383e-07
1.3085e-07
1.19172e-07
1.07407e-06
9.55674e-07
8.51243e-07
7.59057e-07
6.77614e-07
6.056e-07
5.41867e-07
4.8541e-07
4.35352e-07
3.90922e-07
3.5145e-07
3.16343e-07
2.85088e-07
2.5723e-07
2.32372e-07
2.10167e-07
1.90309e-07
1.72529e-07
1.5659e-07
1.42286e-07
1.29433e-07
1.1787e-07
1.06583e-06
9.48287e-07
8.44615e-07
7.53105e-07
6.72261e-07
6.00781e-07
5.37521e-07
4.81487e-07
4.31806e-07
3.87713e-07
3.48542e-07
3.13706e-07
2.82693e-07
2.55052e-07
2.30391e-07
2.08362e-07
1.88663e-07
1.71024e-07
1.55215e-07
1.41026e-07
1.28277e-07
1.16809e-07
1.05907e-06
9.42241e-07
8.39197e-07
7.48244e-07
6.67895e-07
5.96854e-07
5.33987e-07
4.783e-07
4.28929e-07
3.85113e-07
3.46189e-07
3.11574e-07
2.80759e-07
2.53297e-07
2.28795e-07
2.0691e-07
1.8734e-07
1.6982e-07
1.54116e-07
1.40023e-07
1.27359e-07
1.15966e-07
1.0538e-06
9.37526e-07
8.34973e-07
7.44454e-07
6.64491e-07
5.93793e-07
5.3123e-07
4.75816e-07
4.26686e-07
3.83086e-07
3.44355e-07
3.09913e-07
2.79252e-07
2.51929e-07
2.27551e-07
2.05778e-07
1.86308e-07
1.6888e-07
1.53259e-07
1.39244e-07
1.26654e-07
1.15327e-07
1.04948e-06
9.33655e-07
8.3151e-07
7.41353e-07
6.61711e-07
5.91298e-07
5.28989e-07
4.73801e-07
4.24873e-07
3.81453e-07
3.42882e-07
3.08582e-07
2.7805e-07
2.50841e-07
2.26566e-07
2.04885e-07
1.85498e-07
1.68143e-07
1.52589e-07
1.38633e-07
1.26098e-07
1.1489e-07
1.17425e-06
1.04679e-06
9.34178e-07
8.34605e-07
7.46485e-07
6.68433e-07
5.99237e-07
5.37834e-07
4.83294e-07
4.34802e-07
3.91643e-07
3.53191e-07
3.18894e-07
2.88272e-07
2.60898e-07
2.36402e-07
2.14455e-07
1.94769e-07
1.77091e-07
1.61196e-07
1.46888e-07
1.33993e-07
1.17454e-06
1.04706e-06
9.34435e-07
8.34845e-07
7.46709e-07
6.68644e-07
5.99434e-07
5.38018e-07
4.83467e-07
4.34963e-07
3.91794e-07
3.53332e-07
3.19026e-07
2.88395e-07
2.61014e-07
2.3651e-07
2.14556e-07
1.94864e-07
1.77179e-07
1.61278e-07
1.46965e-07
1.34065e-07
1.17728e-06
1.04953e-06
9.36662e-07
8.36856e-07
7.48527e-07
6.70288e-07
6.00924e-07
5.3937e-07
4.84694e-07
4.36079e-07
3.92809e-07
3.54257e-07
3.1987e-07
2.89165e-07
2.61718e-07
2.37154e-07
2.15146e-07
1.95404e-07
1.77675e-07
1.61734e-07
1.47384e-07
1.3445e-07
1.18188e-06
1.05366e-06
9.4037e-07
8.40192e-07
7.51534e-07
6.73e-07
6.03373e-07
5.41585e-07
4.86699e-07
4.37896e-07
3.94458e-07
3.55755e-07
3.21232e-07
2.90406e-07
2.62848e-07
2.38186e-07
2.16088e-07
1.96266e-07
1.78463e-07
1.62456e-07
1.48046e-07
1.35058e-07
1.18772e-06
1.05893e-06
9.45141e-07
8.44512e-07
7.5545e-07
6.76555e-07
6.06603e-07
5.44523e-07
4.89375e-07
4.40336e-07
3.96685e-07
3.57789e-07
3.23092e-07
2.92108e-07
2.64408e-07
2.39616e-07
2.17401e-07
1.97472e-07
1.79573e-07
1.63477e-07
1.48986e-07
1.35924e-07
1.19546e-06
1.06593e-06
9.51478e-07
8.50257e-07
7.60664e-07
6.81292e-07
6.10913e-07
5.48447e-07
4.92953e-07
4.43601e-07
3.99668e-07
3.60517e-07
3.25589e-07
2.94396e-07
2.66507e-07
2.41542e-07
2.19171e-07
1.99099e-07
1.81069e-07
1.64855e-07
1.50256e-07
1.37095e-07
1.20509e-06
1.07467e-06
9.59406e-07
8.57462e-07
7.67219e-07
6.87263e-07
6.16357e-07
5.53417e-07
4.97493e-07
4.47754e-07
4.0347e-07
3.64001e-07
3.28785e-07
2.9733e-07
2.69202e-07
2.44021e-07
2.21452e-07
2.012e-07
1.83005e-07
1.66641e-07
1.51904e-07
1.38617e-07
1.21671e-06
1.08523e-06
9.69021e-07
8.66223e-07
7.7521e-07
6.9456e-07
6.23026e-07
5.59518e-07
5.03081e-07
4.52876e-07
4.08169e-07
3.68316e-07
3.32751e-07
3.00977e-07
2.72559e-07
2.47114e-07
2.24303e-07
2.03829e-07
1.85433e-07
1.68883e-07
1.53976e-07
1.40533e-07
1.23038e-06
1.09769e-06
9.80392e-07
8.76611e-07
7.84709e-07
7.03254e-07
6.30992e-07
5.66824e-07
5.09786e-07
4.59036e-07
4.13832e-07
3.73527e-07
3.37549e-07
3.05399e-07
2.76637e-07
2.50876e-07
2.27777e-07
2.07039e-07
1.884e-07
1.71628e-07
1.56516e-07
1.42885e-07
1.24611e-06
1.11208e-06
9.93559e-07
8.88671e-07
7.95766e-07
7.13401e-07
6.40311e-07
5.7539e-07
5.17667e-07
4.66291e-07
4.20517e-07
3.7969e-07
3.43235e-07
3.10649e-07
2.81486e-07
2.55358e-07
2.31922e-07
2.10875e-07
1.91951e-07
1.74916e-07
1.59563e-07
1.4571e-07
1.26376e-06
1.12826e-06
1.00842e-06
9.0233e-07
8.08329e-07
7.24965e-07
6.50963e-07
5.85209e-07
5.26724e-07
4.74651e-07
4.28239e-07
3.86826e-07
3.49834e-07
3.16753e-07
2.87137e-07
2.60592e-07
2.36771e-07
2.15369e-07
1.96119e-07
1.78782e-07
1.63151e-07
1.4904e-07
1.28378e-06
1.14666e-06
1.02534e-06
9.17902e-07
8.22673e-07
7.38186e-07
6.63158e-07
5.96464e-07
5.37119e-07
4.84257e-07
4.3712e-07
3.95043e-07
3.57439e-07
3.23796e-07
2.93662e-07
2.66639e-07
2.42378e-07
2.20571e-07
2.00946e-07
1.83263e-07
1.67311e-07
1.52905e-07
1.30543e-06
1.16665e-06
1.04379e-06
9.34951e-07
8.38432e-07
7.52763e-07
6.76648e-07
6.08954e-07
5.48688e-07
4.94979e-07
4.47061e-07
4.04262e-07
3.65993e-07
3.31736e-07
3.01033e-07
2.73486e-07
2.48739e-07
2.26482e-07
2.0644e-07
1.88371e-07
1.72062e-07
1.57323e-07
1.32884e-06
1.18832e-06
1.06387e-06
9.53556e-07
8.55682e-07
7.68762e-07
6.91493e-07
6.22733e-07
5.61482e-07
5.06861e-07
4.58099e-07
4.1452e-07
3.75529e-07
3.40602e-07
3.09279e-07
2.81155e-07
2.55874e-07
2.33122e-07
2.1262e-07
1.94124e-07
1.77418e-07
1.62311e-07
1.3538e-06
1.21151e-06
1.08543e-06
9.73603e-07
8.74326e-07
7.86104e-07
7.07628e-07
6.37748e-07
5.75457e-07
5.1987e-07
4.70212e-07
4.25799e-07
3.86033e-07
3.50385e-07
3.18393e-07
2.89646e-07
2.63786e-07
2.40494e-07
2.1949e-07
2.00527e-07
1.83386e-07
1.67874e-07
1.3538e-06
1.21151e-06
1.08543e-06
9.73602e-07
8.74325e-07
7.86104e-07
7.07627e-07
6.37747e-07
5.75456e-07
5.1987e-07
4.70211e-07
4.25799e-07
3.86032e-07
3.50385e-07
3.18392e-07
2.89646e-07
2.63785e-07
2.40493e-07
2.19489e-07
2.00527e-07
1.83386e-07
1.67873e-07
1.32884e-06
1.18832e-06
1.06387e-06
9.53554e-07
8.5568e-07
7.6876e-07
6.9149e-07
6.22731e-07
5.6148e-07
5.06859e-07
4.58098e-07
4.14519e-07
3.75527e-07
3.406e-07
3.09277e-07
2.81154e-07
2.55873e-07
2.3312e-07
2.12618e-07
1.94123e-07
1.77417e-07
1.62309e-07
1.30543e-06
1.16664e-06
1.04379e-06
9.34947e-07
8.38429e-07
7.52759e-07
6.76644e-07
6.08951e-07
5.48685e-07
4.94976e-07
4.47057e-07
4.04259e-07
3.6599e-07
3.31733e-07
3.01031e-07
2.73483e-07
2.48736e-07
2.26479e-07
2.06437e-07
1.88369e-07
1.7206e-07
1.57321e-07
1.28377e-06
1.14666e-06
1.02534e-06
9.17897e-07
8.22667e-07
7.3818e-07
6.63152e-07
5.96459e-07
5.37114e-07
4.84252e-07
4.37115e-07
3.95038e-07
3.57435e-07
3.23792e-07
2.93658e-07
2.66636e-07
2.42374e-07
2.20567e-07
2.00942e-07
1.8326e-07
1.67308e-07
1.52902e-07
1.26375e-06
1.12826e-06
1.00841e-06
9.02323e-07
8.08322e-07
7.24957e-07
6.50956e-07
5.85202e-07
5.26717e-07
4.74644e-07
4.28232e-07
3.8682e-07
3.49828e-07
3.16748e-07
2.87132e-07
2.60586e-07
2.36766e-07
2.15364e-07
1.96114e-07
1.78778e-07
1.63147e-07
1.49036e-07
1.24611e-06
1.11207e-06
9.93552e-07
8.88664e-07
7.95759e-07
7.13393e-07
6.40303e-07
5.75381e-07
5.17658e-07
4.66282e-07
4.20508e-07
3.79682e-07
3.43227e-07
3.10641e-07
2.81479e-07
2.55352e-07
2.31916e-07
2.10869e-07
1.91946e-07
1.74911e-07
1.59559e-07
1.45705e-07
1.23037e-06
1.09769e-06
9.80386e-07
8.76603e-07
7.84701e-07
7.03246e-07
6.30983e-07
5.66814e-07
5.09776e-07
4.59026e-07
4.13822e-07
3.73517e-07
3.3754e-07
3.0539e-07
2.76629e-07
2.50869e-07
2.2777e-07
2.07033e-07
1.88394e-07
1.71622e-07
1.56511e-07
1.4288e-07
1.2167e-06
1.08522e-06
9.69014e-07
8.66215e-07
7.75201e-07
6.9455e-07
6.23016e-07
5.59508e-07
5.0307e-07
4.52865e-07
4.08158e-07
3.68305e-07
3.3274e-07
3.00967e-07
2.7255e-07
2.47104e-07
2.24294e-07
2.03822e-07
1.85426e-07
1.68876e-07
1.5397e-07
1.40528e-07
1.20508e-06
1.07466e-06
9.59395e-07
8.57451e-07
7.67208e-07
6.87252e-07
6.16346e-07
5.53406e-07
4.97482e-07
4.47743e-07
4.03459e-07
3.6399e-07
3.28774e-07
2.97319e-07
2.69192e-07
2.44011e-07
2.21442e-07
2.01191e-07
1.82997e-07
1.66634e-07
1.51897e-07
1.38611e-07
1.19544e-06
1.06592e-06
9.51462e-07
8.50241e-07
7.60648e-07
6.81277e-07
6.10898e-07
5.48434e-07
4.9294e-07
4.43589e-07
3.99656e-07
3.60505e-07
3.25579e-07
2.94386e-07
2.66496e-07
2.41532e-07
2.19161e-07
1.9909e-07
1.81061e-07
1.64848e-07
1.50249e-07
1.37089e-07
1.1877e-06
1.05891e-06
9.4512e-07
8.44491e-07
7.55429e-07
6.76535e-07
6.06585e-07
5.44505e-07
4.89359e-07
4.40321e-07
3.96671e-07
3.57777e-07
3.23081e-07
2.92098e-07
2.64398e-07
2.39607e-07
2.17392e-07
1.97463e-07
1.79564e-07
1.63469e-07
1.48979e-07
1.35918e-07
1.18185e-06
1.05363e-06
9.40343e-07
8.40165e-07
7.51508e-07
6.72976e-07
6.0335e-07
5.41563e-07
4.86679e-07
4.37879e-07
3.94442e-07
3.55741e-07
3.2122e-07
2.90395e-07
2.62839e-07
2.38177e-07
2.1608e-07
1.96258e-07
1.78456e-07
1.62449e-07
1.48039e-07
1.35052e-07
1.17725e-06
1.0495e-06
9.36631e-07
8.36824e-07
7.48497e-07
6.70259e-07
6.00897e-07
5.39345e-07
4.84671e-07
4.36058e-07
3.92791e-07
3.5424e-07
3.19856e-07
2.89153e-07
2.61708e-07
2.37145e-07
2.15139e-07
1.95398e-07
1.77669e-07
1.61728e-07
1.47377e-07
1.34444e-07
1.17451e-06
1.04703e-06
9.34405e-07
8.34814e-07
7.46679e-07
6.68613e-07
5.99405e-07
5.37991e-07
4.83441e-07
4.3494e-07
3.91773e-07
3.53313e-07
3.1901e-07
2.88381e-07
2.61002e-07
2.365e-07
2.14548e-07
1.94857e-07
1.77173e-07
1.61272e-07
1.46959e-07
1.34058e-07
1.17423e-06
1.04677e-06
9.34156e-07
8.34581e-07
7.4646e-07
6.68407e-07
5.9921e-07
5.37807e-07
4.83268e-07
4.34777e-07
3.9162e-07
3.5317e-07
3.18876e-07
2.88256e-07
2.60885e-07
2.3639e-07
2.14445e-07
1.9476e-07
1.77083e-07
1.61189e-07
1.46881e-07
1.33986e-07
1.17426e-06
1.0468e-06
9.34184e-07
8.34608e-07
7.46487e-07
6.68434e-07
5.99236e-07
5.37832e-07
4.83292e-07
4.348e-07
3.91641e-07
3.53188e-07
3.18892e-07
2.8827e-07
2.60897e-07
2.36401e-07
2.14454e-07
1.94768e-07
1.77089e-07
1.61194e-07
1.46886e-07
1.33991e-07
1.17454e-06
1.04707e-06
9.34436e-07
8.34844e-07
7.46708e-07
6.68641e-07
5.99431e-07
5.38015e-07
4.83463e-07
4.3496e-07
3.91791e-07
3.53329e-07
3.19024e-07
2.88393e-07
2.61012e-07
2.36509e-07
2.14555e-07
1.94863e-07
1.77179e-07
1.61278e-07
1.46964e-07
1.34063e-07
1.17729e-06
1.04953e-06
9.36662e-07
8.36854e-07
7.48525e-07
6.70285e-07
6.00921e-07
5.39366e-07
4.8469e-07
4.36076e-07
3.92806e-07
3.54253e-07
3.19867e-07
2.89163e-07
2.61716e-07
2.37153e-07
2.15145e-07
1.95403e-07
1.77674e-07
1.61733e-07
1.47382e-07
1.34448e-07
1.18188e-06
1.05366e-06
9.4037e-07
8.40191e-07
7.51532e-07
6.72998e-07
6.0337e-07
5.41581e-07
4.86695e-07
4.37892e-07
3.94455e-07
3.55751e-07
3.21229e-07
2.90403e-07
2.62846e-07
2.38183e-07
2.16086e-07
1.96264e-07
1.78461e-07
1.62454e-07
1.48043e-07
1.35055e-07
1.18772e-06
1.05894e-06
9.45142e-07
8.44512e-07
7.55449e-07
6.76553e-07
6.06601e-07
5.4452e-07
4.89372e-07
4.40333e-07
3.96682e-07
3.57786e-07
3.23089e-07
2.92105e-07
2.64405e-07
2.39613e-07
2.17398e-07
1.97469e-07
1.79569e-07
1.63473e-07
1.48983e-07
1.35921e-07
1.19546e-06
1.06594e-06
9.5148e-07
8.50258e-07
7.60664e-07
6.81292e-07
6.10912e-07
5.48446e-07
4.92951e-07
4.43599e-07
3.99665e-07
3.60514e-07
3.25586e-07
2.94392e-07
2.66503e-07
2.41538e-07
2.19166e-07
1.99094e-07
1.81066e-07
1.64852e-07
1.50253e-07
1.37093e-07
1.2051e-06
1.07467e-06
9.5941e-07
8.57465e-07
7.67221e-07
6.87264e-07
6.16357e-07
5.53416e-07
4.97492e-07
4.47752e-07
4.03467e-07
3.63998e-07
3.28781e-07
2.97326e-07
2.69198e-07
2.44017e-07
2.21447e-07
2.01196e-07
1.83002e-07
1.66638e-07
1.51901e-07
1.38615e-07
1.21672e-06
1.08524e-06
9.69027e-07
8.66227e-07
7.75213e-07
6.94561e-07
6.23027e-07
5.59518e-07
5.03079e-07
4.52874e-07
4.08166e-07
3.68312e-07
3.32747e-07
3.00973e-07
2.72555e-07
2.4711e-07
2.24299e-07
2.03826e-07
1.8543e-07
1.6888e-07
1.53973e-07
1.40531e-07
1.23038e-06
1.0977e-06
9.80397e-07
8.76615e-07
7.84712e-07
7.03256e-07
6.30993e-07
5.66823e-07
5.09785e-07
4.59034e-07
4.1383e-07
3.73524e-07
3.37546e-07
3.05396e-07
2.76634e-07
2.50873e-07
2.27774e-07
2.07037e-07
1.88398e-07
1.71625e-07
1.56514e-07
1.42883e-07
1.24612e-06
1.11208e-06
9.93563e-07
8.88674e-07
7.95769e-07
7.13403e-07
6.40312e-07
5.7539e-07
5.17666e-07
4.6629e-07
4.20515e-07
3.79688e-07
3.43233e-07
3.10647e-07
2.81484e-07
2.55357e-07
2.3192e-07
2.10873e-07
1.91949e-07
1.74915e-07
1.59562e-07
1.45708e-07
1.26376e-06
1.12827e-06
1.00842e-06
9.02333e-07
8.08331e-07
7.24966e-07
6.50964e-07
5.8521e-07
5.26724e-07
4.74651e-07
4.28238e-07
3.86825e-07
3.49833e-07
3.16753e-07
2.87137e-07
2.60591e-07
2.3677e-07
2.15368e-07
1.96118e-07
1.78781e-07
1.6315e-07
1.49039e-07
1.28378e-06
1.14667e-06
1.02534e-06
9.17906e-07
8.22676e-07
7.38188e-07
6.6316e-07
5.96466e-07
5.37121e-07
4.84259e-07
4.37121e-07
3.95044e-07
3.5744e-07
3.23797e-07
2.93662e-07
2.6664e-07
2.42378e-07
2.20571e-07
2.00945e-07
1.83262e-07
1.67311e-07
1.52904e-07
1.30544e-06
1.16665e-06
1.0438e-06
9.34955e-07
8.38437e-07
7.52767e-07
6.76651e-07
6.08958e-07
5.48692e-07
4.94982e-07
4.47063e-07
4.04264e-07
3.65995e-07
3.31737e-07
3.01035e-07
2.73487e-07
2.48739e-07
2.26482e-07
2.0644e-07
1.88371e-07
1.72062e-07
1.57323e-07
1.32885e-06
1.18833e-06
1.06388e-06
9.53562e-07
8.55688e-07
7.68767e-07
6.91497e-07
6.22737e-07
5.61486e-07
5.06865e-07
4.58103e-07
4.14524e-07
3.75532e-07
3.40604e-07
3.09281e-07
2.81157e-07
2.55876e-07
2.33123e-07
2.12621e-07
1.94125e-07
1.77419e-07
1.62312e-07
1.35381e-06
1.21152e-06
1.08544e-06
9.7361e-07
8.74333e-07
7.86111e-07
7.07634e-07
6.37753e-07
5.75462e-07
5.19875e-07
4.70216e-07
4.25803e-07
3.86036e-07
3.50389e-07
3.18396e-07
2.89649e-07
2.63788e-07
2.40496e-07
2.19492e-07
2.00529e-07
1.83388e-07
1.67875e-07
1.35381e-06
1.21152e-06
1.08544e-06
9.7361e-07
8.74333e-07
7.86111e-07
7.07634e-07
6.37754e-07
5.75462e-07
5.19875e-07
4.70216e-07
4.25803e-07
3.86037e-07
3.50389e-07
3.18396e-07
2.89649e-07
2.63789e-07
2.40496e-07
2.19492e-07
2.00529e-07
1.83388e-07
1.67876e-07
1.32885e-06
1.18833e-06
1.06388e-06
9.53563e-07
8.55689e-07
7.68768e-07
6.91498e-07
6.22738e-07
5.61487e-07
5.06865e-07
4.58104e-07
4.14524e-07
3.75532e-07
3.40605e-07
3.09282e-07
2.81158e-07
2.55877e-07
2.33124e-07
2.12622e-07
1.94126e-07
1.7742e-07
1.62313e-07
1.30544e-06
1.16665e-06
1.0438e-06
9.34957e-07
8.38438e-07
7.52768e-07
6.76653e-07
6.08959e-07
5.48693e-07
4.94983e-07
4.47064e-07
4.04265e-07
3.65996e-07
3.31739e-07
3.01036e-07
2.73488e-07
2.48741e-07
2.26484e-07
2.06442e-07
1.88373e-07
1.72064e-07
1.57325e-07
1.28378e-06
1.14667e-06
1.02535e-06
9.17908e-07
8.22678e-07
7.38191e-07
6.63163e-07
5.96469e-07
5.37123e-07
4.84261e-07
4.37124e-07
3.95046e-07
3.57442e-07
3.23799e-07
2.93664e-07
2.66642e-07
2.4238e-07
2.20573e-07
2.00947e-07
1.83264e-07
1.67313e-07
1.52906e-07
1.26376e-06
1.12827e-06
1.00843e-06
9.02335e-07
8.08334e-07
7.24969e-07
6.50968e-07
5.85213e-07
5.26728e-07
4.74655e-07
4.28242e-07
3.86829e-07
3.49836e-07
3.16756e-07
2.87139e-07
2.60594e-07
2.36772e-07
2.15371e-07
1.9612e-07
1.78784e-07
1.63152e-07
1.49041e-07
1.24612e-06
1.11208e-06
9.93564e-07
8.88676e-07
7.95771e-07
7.13405e-07
6.40315e-07
5.75394e-07
5.1767e-07
4.66294e-07
4.2052e-07
3.79692e-07
3.43238e-07
3.10651e-07
2.81488e-07
2.5536e-07
2.31924e-07
2.10876e-07
1.91952e-07
1.74917e-07
1.59564e-07
1.45711e-07
1.23038e-06
1.09769e-06
9.80396e-07
8.76615e-07
7.84713e-07
7.03258e-07
6.30996e-07
5.66827e-07
5.09789e-07
4.59038e-07
4.13835e-07
3.73529e-07
3.37551e-07
3.05401e-07
2.76639e-07
2.50878e-07
2.27778e-07
2.07041e-07
1.88402e-07
1.71629e-07
1.56517e-07
1.42886e-07
1.21671e-06
1.08523e-06
9.69025e-07
8.66227e-07
7.75214e-07
6.94563e-07
6.23029e-07
5.59521e-07
5.03083e-07
4.52878e-07
4.08171e-07
3.68318e-07
3.32752e-07
3.00979e-07
2.72561e-07
2.47115e-07
2.24304e-07
2.03831e-07
1.85434e-07
1.68884e-07
1.53977e-07
1.40534e-07
1.20509e-06
1.07467e-06
9.59409e-07
8.57465e-07
7.67222e-07
6.87266e-07
6.1636e-07
5.53419e-07
4.97495e-07
4.47756e-07
4.03472e-07
3.64002e-07
3.28787e-07
2.97331e-07
2.69203e-07
2.44022e-07
2.21453e-07
2.012e-07
1.83006e-07
1.66641e-07
1.51904e-07
1.38617e-07
1.19546e-06
1.06593e-06
9.51481e-07
8.5026e-07
7.60666e-07
6.81295e-07
6.10915e-07
5.48449e-07
4.92954e-07
4.43603e-07
3.99669e-07
3.60518e-07
3.25591e-07
2.94397e-07
2.66508e-07
2.41543e-07
2.19171e-07
1.991e-07
1.8107e-07
1.64856e-07
1.50256e-07
1.37096e-07
1.18772e-06
1.05894e-06
9.45143e-07
8.44515e-07
7.55452e-07
6.76557e-07
6.06605e-07
5.44525e-07
4.89376e-07
4.40337e-07
3.96686e-07
3.5779e-07
3.23093e-07
2.92109e-07
2.64409e-07
2.39617e-07
2.17402e-07
1.97473e-07
1.79573e-07
1.63477e-07
1.48986e-07
1.35924e-07
1.18188e-06
1.05366e-06
9.40372e-07
8.40194e-07
7.51535e-07
6.73002e-07
6.03375e-07
5.41586e-07
4.867e-07
4.37898e-07
3.9446e-07
3.55756e-07
3.21233e-07
2.90407e-07
2.62849e-07
2.38186e-07
2.16089e-07
1.96266e-07
1.78464e-07
1.62457e-07
1.48046e-07
1.35058e-07
1.17728e-06
1.04953e-06
9.36664e-07
8.36857e-07
7.48528e-07
6.70289e-07
6.00925e-07
5.39371e-07
4.84695e-07
4.3608e-07
3.9281e-07
3.54257e-07
3.19871e-07
2.89166e-07
2.61718e-07
2.37155e-07
2.15146e-07
1.95405e-07
1.77675e-07
1.61734e-07
1.47384e-07
1.3445e-07
1.17454e-06
1.04706e-06
9.34435e-07
8.34845e-07
7.4671e-07
6.68644e-07
5.99435e-07
5.38019e-07
4.83467e-07
4.34964e-07
3.91795e-07
3.53332e-07
3.19027e-07
2.88395e-07
2.61014e-07
2.3651e-07
2.14556e-07
1.94864e-07
1.77179e-07
1.61279e-07
1.46965e-07
1.34065e-07
1.17425e-06
1.04679e-06
9.34179e-07
8.34605e-07
7.46485e-07
6.68433e-07
5.99237e-07
5.37834e-07
4.83294e-07
4.34802e-07
3.91643e-07
3.53191e-07
3.18894e-07
2.88272e-07
2.60899e-07
2.36402e-07
2.14455e-07
1.9477e-07
1.77091e-07
1.61196e-07
1.46888e-07
1.33993e-07
1.17101e-06
1.17117e-06
1.17375e-06
1.17804e-06
1.18334e-06
1.1902e-06
1.19856e-06
1.20842e-06
1.21977e-06
1.23255e-06
1.24651e-06
1.26208e-06
1.27851e-06
1.29584e-06
1.31382e-06
1.2422e-06
1.21911e-06
1.19715e-06
1.17646e-06
1.15717e-06
1.13907e-06
1.12301e-06
1.10835e-06
1.09532e-06
1.08391e-06
1.0741e-06
1.06584e-06
1.05907e-06
1.05378e-06
1.04955e-06
1.03798e-06
1.03812e-06
1.04041e-06
1.04421e-06
1.04894e-06
1.0551e-06
1.06262e-06
1.07154e-06
1.08186e-06
1.09353e-06
1.10636e-06
1.12073e-06
1.13601e-06
1.15224e-06
1.16921e-06
1.1081e-06
1.08699e-06
1.06696e-06
1.04813e-06
1.03062e-06
1.01424e-06
9.99709e-07
9.86488e-07
9.74754e-07
9.64499e-07
9.55695e-07
9.48295e-07
9.42233e-07
9.375e-07
9.33728e-07
9.20945e-07
9.21068e-07
9.23099e-07
9.26476e-07
9.30707e-07
9.36229e-07
9.4301e-07
9.5109e-07
9.60483e-07
9.7116e-07
9.82961e-07
9.96227e-07
1.01044e-06
1.02563e-06
1.04163e-06
9.89614e-07
9.70286e-07
9.51993e-07
9.34841e-07
9.18923e-07
9.04082e-07
8.90918e-07
8.78975e-07
8.68396e-07
8.59168e-07
8.51259e-07
8.4462e-07
8.39188e-07
8.34946e-07
8.31579e-07
8.1791e-07
8.18018e-07
8.19823e-07
8.22824e-07
8.26615e-07
8.31577e-07
8.37697e-07
8.45023e-07
8.53581e-07
8.63359e-07
8.74226e-07
8.86478e-07
8.99695e-07
9.13919e-07
9.28995e-07
8.84821e-07
8.67108e-07
8.50385e-07
8.3474e-07
8.20252e-07
8.06787e-07
7.9485e-07
7.84048e-07
7.74499e-07
7.66184e-07
7.59069e-07
7.53106e-07
7.48233e-07
7.44427e-07
7.41417e-07
7.27138e-07
7.27235e-07
7.28842e-07
7.31512e-07
7.34912e-07
7.39378e-07
7.44908e-07
7.51558e-07
7.59363e-07
7.68326e-07
7.78342e-07
7.89666e-07
8.01956e-07
8.15268e-07
8.29462e-07
7.92057e-07
7.75807e-07
7.60503e-07
7.46218e-07
7.33016e-07
7.20784e-07
7.09945e-07
7.00163e-07
6.91532e-07
6.8403e-07
6.77622e-07
6.72259e-07
6.67882e-07
6.64464e-07
6.6177e-07
6.47113e-07
6.47201e-07
6.48633e-07
6.51012e-07
6.54066e-07
6.5809e-07
6.63094e-07
6.69137e-07
6.76262e-07
6.84484e-07
6.93725e-07
7.04198e-07
7.15626e-07
7.28079e-07
7.41436e-07
7.09866e-07
6.94941e-07
6.80921e-07
6.67864e-07
6.5582e-07
6.44694e-07
6.34841e-07
6.25972e-07
6.1816e-07
6.11383e-07
6.05604e-07
6.00776e-07
5.96839e-07
5.93766e-07
5.91352e-07
5.7651e-07
5.7659e-07
5.77869e-07
5.7999e-07
5.82738e-07
5.86369e-07
5.90902e-07
5.964e-07
6.0291e-07
6.10459e-07
6.1899e-07
6.28684e-07
6.39312e-07
6.50954e-07
6.63516e-07
6.36971e-07
6.23251e-07
6.10393e-07
5.98445e-07
5.87446e-07
5.77315e-07
5.68345e-07
5.60293e-07
5.53216e-07
5.47086e-07
5.41868e-07
5.37515e-07
5.3397e-07
5.31203e-07
5.29037e-07
5.14171e-07
5.14245e-07
5.15389e-07
5.17284e-07
5.19758e-07
5.23038e-07
5.27151e-07
5.32158e-07
5.38112e-07
5.45047e-07
5.52927e-07
5.61907e-07
5.71793e-07
5.82672e-07
5.94478e-07
5.72256e-07
5.59632e-07
5.47828e-07
5.36884e-07
5.26828e-07
5.17591e-07
5.09418e-07
5.02098e-07
4.95677e-07
4.90126e-07
4.85408e-07
4.81478e-07
4.78283e-07
4.75789e-07
4.73843e-07
4.59083e-07
4.59152e-07
4.60177e-07
4.61872e-07
4.64103e-07
4.67071e-07
4.70806e-07
4.75372e-07
4.80822e-07
4.87198e-07
4.9448e-07
5.02803e-07
5.12004e-07
5.22164e-07
5.3325e-07
5.14745e-07
5.03121e-07
4.92272e-07
4.82236e-07
4.73033e-07
4.64602e-07
4.57145e-07
4.50484e-07
4.44651e-07
4.39617e-07
4.35347e-07
4.31796e-07
4.28911e-07
4.2666e-07
4.24909e-07
4.10363e-07
4.10428e-07
4.11348e-07
4.12867e-07
4.14881e-07
4.17568e-07
4.20965e-07
4.25134e-07
4.30128e-07
4.35992e-07
4.42723e-07
4.50441e-07
4.59009e-07
4.68496e-07
4.78897e-07
4.63579e-07
4.5287e-07
4.42889e-07
4.33675e-07
4.25244e-07
4.17541e-07
4.1073e-07
4.04661e-07
3.99356e-07
3.94786e-07
3.90915e-07
3.87701e-07
3.85095e-07
3.83061e-07
3.81484e-07
3.67237e-07
3.67297e-07
3.68125e-07
3.69488e-07
3.71309e-07
3.73745e-07
3.76838e-07
3.80648e-07
3.85228e-07
3.90626e-07
3.9685e-07
4.04008e-07
4.1199e-07
4.2085e-07
4.30599e-07
4.18008e-07
4.08137e-07
3.98948e-07
3.9048e-07
3.82747e-07
3.75702e-07
3.69475e-07
3.63938e-07
3.59107e-07
3.54953e-07
3.51441e-07
3.48529e-07
3.46171e-07
3.44331e-07
3.42907e-07
3.29028e-07
3.29083e-07
3.29829e-07
3.31055e-07
3.32704e-07
3.34915e-07
3.37734e-07
3.4122e-07
3.45424e-07
3.50396e-07
3.56153e-07
3.62793e-07
3.70231e-07
3.78507e-07
3.87639e-07
3.77375e-07
3.6827e-07
3.59807e-07
3.52017e-07
3.44917e-07
3.38465e-07
3.32766e-07
3.27709e-07
3.23305e-07
3.19524e-07
3.16333e-07
3.13692e-07
3.11556e-07
3.09889e-07
3.08603e-07
2.95144e-07
2.95195e-07
2.95868e-07
2.96972e-07
2.98467e-07
3.00476e-07
3.03047e-07
3.0624e-07
3.10104e-07
3.14686e-07
3.20012e-07
3.26173e-07
3.33104e-07
3.40837e-07
3.49389e-07
3.41105e-07
3.327e-07
3.249e-07
3.17729e-07
3.11203e-07
3.05289e-07
3.00067e-07
2.95444e-07
2.91424e-07
2.8798e-07
2.85077e-07
2.82678e-07
2.8074e-07
2.79229e-07
2.78065e-07
2.65066e-07
2.65114e-07
2.65721e-07
2.66716e-07
2.68074e-07
2.69902e-07
2.7225e-07
2.75176e-07
2.7873e-07
2.82957e-07
2.87887e-07
2.93603e-07
3.0006e-07
3.07288e-07
3.15296e-07
3.08695e-07
3.00928e-07
2.93734e-07
2.87129e-07
2.81126e-07
2.75699e-07
2.70909e-07
2.66678e-07
2.63005e-07
2.59862e-07
2.57219e-07
2.55037e-07
2.53278e-07
2.51906e-07
2.50851e-07
2.3834e-07
2.38385e-07
2.38933e-07
2.39831e-07
2.41067e-07
2.42732e-07
2.44878e-07
2.47562e-07
2.50833e-07
2.54735e-07
2.59301e-07
2.64604e-07
2.7062e-07
2.77374e-07
2.84874e-07
2.797e-07
2.72516e-07
2.65875e-07
2.59788e-07
2.54262e-07
2.49276e-07
2.44878e-07
2.41002e-07
2.37642e-07
2.34772e-07
2.32361e-07
2.30376e-07
2.28776e-07
2.27529e-07
2.26573e-07
2.14567e-07
2.1461e-07
2.15106e-07
2.15918e-07
2.17042e-07
2.18561e-07
2.20525e-07
2.22989e-07
2.26002e-07
2.29606e-07
2.33836e-07
2.38758e-07
2.44361e-07
2.50672e-07
2.57696e-07
2.53732e-07
2.4708e-07
2.40944e-07