/*--------------------------------*- C++ -*----------------------------------*\
| =========                 |                                                 |
| \\      /  F ield         | OpenFOAM Extend Project: Open source CFD        |
|  \\    /   O peration     | Version:  1.6-ext                               |
|   \\  /    A nd           | Web:      www.extend-project.de                 |
|    \\/     M anipulation  |                                                 |
\*---------------------------------------------------------------------------*/
FoamFile
{
    version     2.0;
    format      ascii;
    class       volVectorField;
    location    "1.3";
    object      U;
}
// * * * * * * * * * * * * * * * * * * * * * * * * * * * * * * * * * * * * * //

dimensions      [0 1 -1 0 0 0 0];

internalField   nonuniform List<vector> 
70
(
(0.223251 0.0316795 0)
(0.517614 0.0423174 0)
(0.583754 0.0498946 0)
(0.560292 0.0311045 0)
(0.506648 0.0124152 0)
(0.405071 -0.00105828 0)
(0.19146 -0.00354475 0)
(0.252665 -0.0586496 0)
(0.292529 -0.135082 0)
(0.316014 -0.196226 0)
(0.317677 -0.220545 0)
(0.308201 -0.209483 0)
(0.296362 -0.177905 0)
(0.285447 -0.140205 0)
(0.277688 -0.105142 0)
(0.270631 -0.0719679 0)
(0.503923 -0.0465172 0)
(0.491695 -0.12587 0)
(0.465645 -0.179457 0)
(0.427861 -0.196218 0)
(0.388807 -0.182791 0)
(0.355543 -0.154013 0)
(0.329404 -0.121641 0)
(0.311349 -0.0923152 0)
(0.295458 -0.0641668 0)
(0.579773 -0.0286875 0)
(0.558891 -0.0973858 0)
(0.520597 -0.139634 0)
(0.4729 -0.151282 0)
(0.426324 -0.140563 0)
(0.386791 -0.119043 0)
(0.355122 -0.0949795 0)
(0.33247 -0.0731882 0)
(0.311443 -0.0519619 0)
(0.56698 -0.0249931 0)
(0.551572 -0.0726219 0)
(0.517907 -0.100592 0)
(0.474606 -0.107167 0)
(0.430792 -0.0986504 0)
(0.392106 -0.0831611 0)
(0.360018 -0.066384 0)
(0.336295 -0.0515109 0)
(0.313372 -0.0374632 0)
(0.514407 -0.0222807 0)
(0.501391 -0.0503221 0)
(0.472015 -0.0651881 0)
(0.434105 -0.0667479 0)
(0.395405 -0.0596011 0)
(0.360848 -0.049051 0)
(0.331972 -0.0385984 0)
(0.310273 -0.0298483 0)
(0.289052 -0.0225483 0)
(0.405642 -0.0172676 0)
(0.389643 -0.0285197 0)
(0.361803 -0.0324414 0)
(0.329191 -0.0302299 0)
(0.297846 -0.0249181 0)
(0.271016 -0.0191889 0)
(0.249372 -0.0144662 0)
(0.233129 -0.0110739 0)
(0.217502 -0.00936617 0)
(0.184725 -0.00684278 0)
(0.169796 -0.0081729 0)
(0.150938 -0.00755491 0)
(0.132418 -0.00587028 0)
(0.116823 -0.00406733 0)
(0.104816 -0.00267853 0)
(0.0958842 -0.00184584 0)
(0.0891853 -0.00150845 0)
(0.082398 -0.00185317 0)
)
;

boundaryField
{
    inlet
    {
        type            fixedValue;
        value           nonuniform 0();
    }
    outlet
    {
        type            zeroGradient;
    }
    fixedWalls
    {
        type            fixedValue;
        value           uniform (0 0 0);
    }
    frontAndBack
    {
        type            empty;
    }
    procBoundary1to2
    {
        type            processor;
        value           nonuniform List<vector> 7((0.372157 0.155909 0) (0.546296 0.144409 0) (0.563302 0.126477 0) (0.52812 0.0831483 0) (0.478342 0.0442255 0) (0.388025 0.0147079 0) (0.188015 0.00055636 0));
    }
    procBoundary1to0
    {
        type            processor;
        value           nonuniform List<vector> 9((0.0485628 0.00749746 0) (0.0929753 -0.0786453 0) (0.151089 -0.162964 0) (0.18688 -0.204497 0) (0.208339 -0.204115 0) (0.222258 -0.177702 0) (0.231068 -0.141675 0) (0.236863 -0.106267 0) (0.240675 -0.07266 0));
    }
}


// ************************************************************************* //
