/*--------------------------------*- C++ -*----------------------------------*\
| =========                 |                                                 |
| \\      /  F ield         | OpenFOAM Extend Project: Open source CFD        |
|  \\    /   O peration     | Version:  1.6-ext                               |
|   \\  /    A nd           | Web:      www.extend-project.de                 |
|    \\/     M anipulation  |                                                 |
\*---------------------------------------------------------------------------*/
FoamFile
{
    version     2.0;
    format      ascii;
    class       volVectorField;
    location    "4.1";
    object      U;
}
// * * * * * * * * * * * * * * * * * * * * * * * * * * * * * * * * * * * * * //

dimensions      [0 1 -1 0 0 0 0];

internalField   nonuniform List<vector> 
72
(
(-0.000841868 0.000735791 0)
(-0.00682197 0.00290956 0)
(-0.0172111 0.00368246 0)
(-0.0268224 0.00347683 0)
(-0.0339701 0.00256584 0)
(-0.0370788 0.000980499 0)
(-0.0348134 -0.00117763 0)
(-0.0314916 -0.00352611 0)
(-0.00784661 -0.00676708 0)
(-0.00334242 0.00698488 0)
(-0.0165083 0.0153842 0)
(-0.0356712 0.0170709 0)
(-0.051857 0.0143216 0)
(-0.0620403 0.00861509 0)
(-0.0640839 0.000761728 0)
(-0.0568857 -0.00836386 0)
(-0.0477141 -0.0170904 0)
(-0.010995 -0.0259909 0)
(-0.00445882 0.0186741 0)
(-0.0202501 0.0351401 0)
(-0.0417506 0.0365379 0)
(-0.0586456 0.0284684 0)
(-0.0677556 0.0145036 0)
(-0.0672355 -0.00293215 0)
(-0.0562133 -0.021713 0)
(-0.0440859 -0.0385623 0)
(-0.00202456 -0.0508464 0)
(-0.00459859 0.0308209 0)
(-0.0195998 0.0546144 0)
(-0.0387709 0.0546978 0)
(-0.0525736 0.0404448 0)
(-0.0582495 0.0176895 0)
(-0.0545241 -0.00943902 0)
(-0.0405046 -0.0376798 0)
(-0.0262758 -0.0629685 0)
(0.0156212 -0.0763318 0)
(-0.00426587 0.0416753 0)
(-0.0154689 0.0702711 0)
(-0.0272738 0.0681032 0)
(-0.0335743 0.0476133 0)
(-0.0325276 0.0166606 0)
(-0.0237334 -0.0192208 0)
(-0.00666808 -0.0553261 0)
(0.0107347 -0.0885309 0)
(0.0493797 -0.103191 0)
(-0.00347002 0.0497297 0)
(-0.00729303 0.0776499 0)
(-0.00501153 0.07175 0)
(0.00197539 0.0453923 0)
(0.0142022 0.00799133 0)
(0.0313823 -0.0342386 0)
(0.052304 -0.0754084 0)
(0.0731066 -0.112601 0)
(0.106534 -0.129773 0)
(0.000798084 0.0571758 0)
(0.00939156 0.0728577 0)
(0.0335736 0.0596039 0)
(0.059231 0.028705 0)
(0.0862525 -0.0120243 0)
(0.11371 -0.0565278 0)
(0.139457 -0.0986679 0)
(0.162738 -0.13497 0)
(0.188454 -0.15251 0)
(0.027506 0.0293098 0)
(0.0528553 0.0380733 0)
(0.104022 0.022103 0)
(0.148142 -0.00769429 0)
(0.187295 -0.0456476 0)
(0.222097 -0.0865921 0)
(0.249096 -0.123974 0)
(0.271806 -0.155422 0)
(0.286182 -0.168291 0)
)
;

boundaryField
{
    inlet
    {
        type            fixedValue;
        value           nonuniform 0();
    }
    outlet
    {
        type            zeroGradient;
    }
    fixedWalls
    {
        type            fixedValue;
        value           uniform (0 0 0);
    }
    frontAndBack
    {
        type            empty;
    }
    procBoundary0to1
    {
        type            processor;
        value           nonuniform List<vector> 9((0.186826 -0.00643445 0) (0.208067 -0.0163913 0) (0.245934 -0.031913 0) (0.28561 -0.0555997 0) (0.320908 -0.0853553 0) (0.351054 -0.117824 0) (0.369495 -0.146203 0) (0.385055 -0.169726 0) (0.381956 -0.173884 0));
    }
}


// ************************************************************************* //
