/*--------------------------------*- C++ -*----------------------------------*\
| =========                 |                                                 |
| \\      /  F ield         | OpenFOAM Extend Project: Open source CFD        |
|  \\    /   O peration     | Version:  1.6-ext                               |
|   \\  /    A nd           | Web:      www.extend-project.de                 |
|    \\/     M anipulation  |                                                 |
\*---------------------------------------------------------------------------*/
FoamFile
{
    version     2.0;
    format      ascii;
    class       volScalarField;
    location    "4";
    object      p;
}
// * * * * * * * * * * * * * * * * * * * * * * * * * * * * * * * * * * * * * //

dimensions      [0 2 -2 0 0 0 0];

internalField   nonuniform List<scalar> 
70
(
-0.0718054
-0.0294841
0.00635962
0.0382232
0.0587654
0.0690423
0.0734251
-0.059447
-0.0505674
-0.0470506
-0.0450953
-0.0422898
-0.036773
-0.0284583
-0.0172716
-0.00575932
-0.0354334
-0.0359366
-0.0360607
-0.035627
-0.0334519
-0.0285856
-0.0216964
-0.0127344
-0.00490782
-0.0080189
-0.0147398
-0.0183634
-0.0200319
-0.0195972
-0.0167912
-0.0126819
-0.0071662
-0.00378833
0.0210678
0.00983863
0.00193778
-0.00295937
-0.00525976
-0.00534646
-0.00444139
-0.00246891
-0.0029118
0.0408224
0.0270414
0.0167939
0.00963353
0.00502504
0.0024432
0.000863582
0.000252962
-0.00244529
0.0514463
0.0366637
0.0249361
0.0161422
0.00987471
0.00563256
0.00268016
0.000792508
-0.00237632
0.0548212
0.0385546
0.0252256
0.0149485
0.0075108
0.00252166
-0.000557989
-0.00211556
-0.00378877
)
;

boundaryField
{
    inlet
    {
        type            zeroGradient;
    }
    outlet
    {
        type            totalPressure;
        rho             none;
        psi             none;
        gamma           1;
        p0              uniform 0;
        value           uniform 0;
    }
    fixedWalls
    {
        type            zeroGradient;
    }
    frontAndBack
    {
        type            empty;
    }
    procBoundary1to2
    {
        type            processor;
        value           nonuniform List<scalar> 7(-0.10707 -0.00826793 0.0365008 0.0647128 0.080875 0.0884808 0.0927135);
    }
    procBoundary1to0
    {
        type            processor;
        value           nonuniform List<scalar> 9(-0.0670873 -0.0498699 -0.0477111 -0.0469198 -0.0449916 -0.0399869 -0.0314799 -0.0195022 -0.00575533);
    }
}


// ************************************************************************* //
