/*--------------------------------*- C++ -*----------------------------------*\
| =========                 |                                                 |
| \\      /  F ield         | OpenFOAM Extend Project: Open source CFD        |
|  \\    /   O peration     | Version:  1.6-ext                               |
|   \\  /    A nd           | Web:      www.extend-project.de                 |
|    \\/     M anipulation  |                                                 |
\*---------------------------------------------------------------------------*/
FoamFile
{
    version     2.0;
    format      ascii;
    class       surfaceScalarField;
    location    "4";
    object      phi;
}
// * * * * * * * * * * * * * * * * * * * * * * * * * * * * * * * * * * * * * //

dimensions      [0 3 -1 0 0 0 0];

internalField   nonuniform List<scalar> 
123
(
5.73701e-05
0.000191371
9.1149e-05
0.000478019
8.44071e-05
0.000591684
5.81912e-05
0.000591507
2.82706e-05
0.000534369
6.67135e-06
0.000417469
0.000195581
0.000197416
4.51485e-06
0.000230149
-2.09304e-05
0.000268777
-4.40787e-05
0.00030599
-7.03851e-05
0.000337385
-9.98892e-05
0.000361122
-0.000130206
0.000376083
-0.000154818
0.000382966
-0.000173775
-0.000171719
0.000454471
2.80628e-05
0.000448828
-1.52873e-05
0.000454809
-5.00593e-05
0.000465256
-8.08318e-05
0.000474484
-0.000109118
0.000478584
-0.000134306
0.000475757
-0.000151991
0.000465517
-0.000163534
-0.000154762
0.000586786
3.2961e-05
0.000580592
-9.09319e-06
0.000575642
-4.51094e-05
0.000569842
-7.50321e-05
0.00056086
-0.000100136
0.00054634
-0.000119786
0.000525833
-0.000131484
0.00049869
-0.000136391
-0.000124862
0.000603256
2.12119e-05
0.000605713
-1.15503e-05
0.000600167
-3.95633e-05
0.000587699
-6.25637e-05
0.00056805
-8.04874e-05
0.000540808
-9.25439e-05
0.00050733
-9.80067e-05
0.000468235
-9.72951e-05
-8.69745e-05
0.000549775
5.80515e-06
0.000552501
-1.42756e-05
0.00054393
-3.0993e-05
0.000525081
-4.37139e-05
0.000496925
-5.23315e-05
0.00046089
-5.65093e-05
0.0004197
-5.68168e-05
0.00037598
-5.35751e-05
-4.80601e-05
0.000425784
-2.51039e-06
0.000421384
-9.87484e-06
0.00040565
-1.52588e-05
0.000380448
-1.8512e-05
0.000347969
-1.98527e-05
0.000311006
-1.95468e-05
0.000272587
-1.83974e-05
0.000235811
-1.67995e-05
-1.65902e-05
0.000193071
0.000183196
0.000167937
0.000149425
0.000129573
0.000110026
9.16285e-05
7.4829e-05
)
;

boundaryField
{
    inlet
    {
        type            calculated;
        value           nonuniform 0();
    }
    outlet
    {
        type            calculated;
        value           nonuniform List<scalar> 7(0.00038086 0.00044856 0.000468789 0.000430348 0.000337066 0.000204341 5.82388e-05);
    }
    fixedWalls
    {
        type            calculated;
        value           uniform 0;
    }
    frontAndBack
    {
        type            empty;
    }
    procBoundary1to2
    {
        type            processor;
        value           nonuniform List<scalar> 7(-0.000248741 -0.000511798 -0.000584942 -0.000565291 -0.000504448 -0.00039587 -0.00018891);
    }
    procBoundary1to0
    {
        type            processor;
        value           nonuniform List<scalar> 9(-1.05601e-05 -1.18022e-05 5.44988e-06 3.31726e-05 6.84941e-05 0.00010647 0.000139856 0.000166893 0.000173824);
    }
}


// ************************************************************************* //
