/*--------------------------------*- C++ -*----------------------------------*\
| =========                 |                                                 |
| \\      /  F ield         | OpenFOAM Extend Project: Open source CFD        |
|  \\    /   O peration     | Version:  1.6-ext                               |
|   \\  /    A nd           | Web:      www.extend-project.de                 |
|    \\/     M anipulation  |                                                 |
\*---------------------------------------------------------------------------*/
FoamFile
{
    version     2.0;
    format      ascii;
    class       volVectorField;
    location    "4";
    object      U;
}
// * * * * * * * * * * * * * * * * * * * * * * * * * * * * * * * * * * * * * //

dimensions      [0 1 -1 0 0 0 0];

internalField   nonuniform List<vector> 
70
(
(0.1853 0.0439599 0)
(0.499112 0.0813787 0)
(0.597342 0.0989481 0)
(0.584525 0.0739999 0)
(0.522887 0.0414363 0)
(0.409132 0.0131244 0)
(0.193753 -0.000366311 0)
(0.18746 -0.00663106 0)
(0.209184 -0.0169008 0)
(0.247534 -0.0332991 0)
(0.287468 -0.0581963 0)
(0.3227 -0.0891132 0)
(0.352432 -0.122342 0)
(0.370153 -0.150801 0)
(0.385005 -0.173704 0)
(0.380672 -0.176157 0)
(0.465436 0.0172759 0)
(0.448375 -0.0223069 0)
(0.448884 -0.0527561 0)
(0.459324 -0.0811913 0)
(0.470314 -0.1094 0)
(0.479805 -0.136544 0)
(0.47762 -0.157207 0)
(0.477472 -0.172445 0)
(0.450225 -0.166733 0)
(0.593669 0.0399741 0)
(0.58463 -0.00693943 0)
(0.577777 -0.04492 0)
(0.573328 -0.0773583 0)
(0.56624 -0.105481 0)
(0.556952 -0.128862 0)
(0.535805 -0.144101 0)
(0.519665 -0.152792 0)
(0.471994 -0.142359 0)
(0.602169 0.0295878 0)
(0.607156 -0.0091856 0)
(0.604707 -0.0418199 0)
(0.59616 -0.069219 0)
(0.579824 -0.0916065 0)
(0.557794 -0.108061 0)
(0.523832 -0.116943 0)
(0.494461 -0.118919 0)
(0.434772 -0.107231 0)
(0.545837 0.0126292 0)
(0.554447 -0.0137034 0)
(0.551127 -0.0363178 0)
(0.537417 -0.0546004 0)
(0.513442 -0.0681485 0)
(0.481623 -0.0761307 0)
(0.440234 -0.0785259 0)
(0.402278 -0.0754681 0)
(0.342061 -0.0667169 0)
(0.424654 -0.00164356 0)
(0.426629 -0.0146881 0)
(0.416309 -0.0248127 0)
(0.395507 -0.0316205 0)
(0.366014 -0.0351621 0)
(0.330771 -0.0355578 0)
(0.291518 -0.0338592 0)
(0.255979 -0.0306326 0)
(0.208964 -0.0285221 0)
(0.195968 -0.00402692 0)
(0.189602 -0.00656388 0)
(0.176678 -0.00780252 0)
(0.159409 -0.00790079 0)
(0.139824 -0.0072234 0)
(0.119826 -0.00616706 0)
(0.100599 -0.00531553 0)
(0.0839208 -0.00492545 0)
(0.0613244 -0.00589375 0)
)
;

boundaryField
{
    inlet
    {
        type            fixedValue;
        value           nonuniform 0();
    }
    outlet
    {
        type            zeroGradient;
    }
    fixedWalls
    {
        type            fixedValue;
        value           uniform (0 0 0);
    }
    frontAndBack
    {
        type            empty;
    }
    procBoundary1to2
    {
        type            processor;
        value           nonuniform List<vector> 7((0.355187 0.167008 0) (0.545143 0.177863 0) (0.576726 0.166947 0) (0.543407 0.117446 0) (0.48278 0.0671951 0) (0.380045 0.0263373 0) (0.182386 0.00362261 0));
    }
    procBoundary1to0
    {
        type            processor;
        value           nonuniform List<vector> 9((0.0277681 0.029649 0) (0.0535698 0.0381398 0) (0.105121 0.0210731 0) (0.149446 -0.0102225 0) (0.188664 -0.0496334 0) (0.223394 -0.0915741 0) (0.250106 -0.129151 0) (0.272618 -0.159969 0) (0.286378 -0.171086 0));
    }
}


// ************************************************************************* //
