/*--------------------------------*- C++ -*----------------------------------*\
| =========                 |                                                 |
| \\      /  F ield         | OpenFOAM Extend Project: Open source CFD        |
|  \\    /   O peration     | Version:  1.6-ext                               |
|   \\  /    A nd           | Web:      www.extend-project.de                 |
|    \\/     M anipulation  |                                                 |
\*---------------------------------------------------------------------------*/
FoamFile
{
    version     2.0;
    format      ascii;
    class       surfaceScalarField;
    location    "1.4";
    object      phi;
}
// * * * * * * * * * * * * * * * * * * * * * * * * * * * * * * * * * * * * * //

dimensions      [0 3 -1 0 0 0 0];

internalField   nonuniform List<scalar> 
127
(
-4.36147e-06
4.36147e-06
-6.62352e-06
2.26205e-06
-3.87173e-06
-2.7518e-06
2.66782e-06
-6.53956e-06
1.10769e-05
-8.40908e-06
1.9746e-05
-8.66911e-06
2.76069e-05
-7.86092e-06
3.42015e-05
-6.59453e-06
-5.76293e-06
-4.35621e-06
8.71768e-06
-3.75046e-06
1.6563e-06
5.28999e-06
-1.17922e-05
2.06582e-05
-2.19078e-05
3.8808e-05
-2.65589e-05
5.68087e-05
-2.66698e-05
7.27605e-05
-2.38127e-05
8.56222e-05
-1.94562e-05
-1.54101e-05
-5.34732e-06
1.4065e-05
-3.75467e-06
6.36542e-08
9.0477e-06
-2.45946e-05
3.01537e-05
-4.30138e-05
5.45397e-05
-5.09449e-05
7.82743e-05
-5.04044e-05
9.89707e-05
-4.45091e-05
0.000115437
-3.59231e-05
-2.73048e-05
-8.79902e-06
2.2864e-05
-8.39005e-06
-3.45305e-07
6.9899e-06
-3.99746e-05
3.30062e-05
-6.90301e-05
6.27886e-05
-8.07273e-05
9.11274e-05
-7.87432e-05
0.000115218
-6.85995e-05
0.000134014
-5.47188e-05
-4.05032e-05
-1.31823e-05
3.60463e-05
-1.25862e-05
-9.41437e-07
6.5774e-06
-5.91382e-05
3.80578e-05
-0.00010051
7.31194e-05
-0.000115789
0.000105349
-0.000110973
0.000131778
-9.50291e-05
0.000151835
-7.4775e-05
-5.41018e-05
-1.27969e-05
4.88433e-05
-5.90844e-06
-7.82994e-06
2.09106e-05
-8.59572e-05
5.78173e-05
-0.000137417
9.59093e-05
-0.000153881
0.000129201
-0.000144264
0.00015535
-0.000121179
0.000174608
-9.40323e-05
-6.66754e-05
6.32722e-06
4.25161e-05
3.30542e-05
-3.4557e-05
6.93711e-05
-0.000122274
0.000107464
-0.00017551
0.000141884
-0.000188301
0.000169556
-0.000171936
0.000190026
-0.000141649
0.00020465
-0.000108656
-7.5879e-05
6.34827e-05
0.000120519
0.00016396
0.000195261
0.000215841
0.000228527
0.000236213
0.000241342
)
;

boundaryField
{
    inlet
    {
        type            calculated;
        value           nonuniform 0();
    }
    outlet
    {
        type            calculated;
        value           nonuniform List<scalar> 8(3.99644e-05 9.52693e-05 0.000127332 0.000147212 0.000165433 0.000187181 0.000213853 0.000244393);
    }
    fixedWalls
    {
        type            calculated;
        value           uniform 0;
    }
    frontAndBack
    {
        type            empty;
    }
    procBoundary0to1
    {
        type            processor;
        value           nonuniform List<scalar> 9(-2.09666e-05 -9.15934e-05 -0.000165715 -0.000206811 -0.000208881 -0.000184622 -0.000149335 -0.000113785 -7.89303e-05);
    }
}


// ************************************************************************* //
