/*--------------------------------*- C++ -*----------------------------------*\
| =========                 |                                                 |
| \\      /  F ield         | OpenFOAM Extend Project: Open source CFD        |
|  \\    /   O peration     | Version:  1.6-ext                               |
|   \\  /    A nd           | Web:      www.extend-project.de                 |
|    \\/     M anipulation  |                                                 |
\*---------------------------------------------------------------------------*/
FoamFile
{
    version     2.0;
    format      ascii;
    class       volVectorField;
    location    "1.4";
    object      U;
}
// * * * * * * * * * * * * * * * * * * * * * * * * * * * * * * * * * * * * * //

dimensions      [0 1 -1 0 0 0 0];

internalField   nonuniform List<vector> 
72
(
(-0.00258312 0.00236211 0)
(-0.00648863 0.00181966 0)
(-0.00626398 -0.000186669 0)
(-0.00116459 -0.00173009 0)
(0.0067729 -0.00255622 0)
(0.0155587 -0.00276586 0)
(0.0238907 -0.00257269 0)
(0.0311603 -0.00225939 0)
(0.0385592 -0.00224007 0)
(-0.00304432 0.00664553 0)
(-0.00610493 0.00269008 0)
(-0.00106385 -0.00563557 0)
(0.0121474 -0.0119769 0)
(0.029687 -0.0150549 0)
(0.0481985 -0.0153781 0)
(0.0653475 -0.0138709 0)
(0.0798035 -0.0115013 0)
(0.0933064 -0.00961916 0)
(-0.00388339 0.0110053 0)
(-0.00736321 0.000719411 0)
(0.000223999 -0.0173639 0)
(0.0185653 -0.0311086 0)
(0.0423624 -0.0373136 0)
(0.0669907 -0.0372826 0)
(0.0894387 -0.0331797 0)
(0.107982 -0.0269689 0)
(0.125061 -0.0209042 0)
(-0.00603408 0.0177531 0)
(-0.0123295 -0.00048722 0)
(-0.00385908 -0.031248 0)
(0.0186718 -0.0545132 0)
(0.0480506 -0.0644077 0)
(0.0777904 -0.06348 0)
(0.104241 -0.0558226 0)
(0.125531 -0.0448585 0)
(0.144748 -0.0336714 0)
(-0.00904291 0.0290435 0)
(-0.0179969 0.000179431 0)
(-0.00670822 -0.0480945 0)
(0.0209463 -0.083239 0)
(0.0560564 -0.0970405 0)
(0.0903818 -0.0940644 0)
(0.119883 -0.0813904 0)
(0.142852 -0.0645485 0)
(0.162881 -0.0472893 0)
(-0.0100492 0.0418888 0)
(-0.015931 -0.00273835 0)
(0.00466713 -0.0713197 0)
(0.039045 -0.11861 0)
(0.077881 -0.135059 0)
(0.113916 -0.128096 0)
(0.143657 -0.108658 0)
(0.166021 -0.0848987 0)
(0.184697 -0.060834 0)
(0.000221938 0.0609255 0)
(0.013559 -0.0112873 0)
(0.0519623 -0.102192 0)
(0.0905507 -0.158342 0)
(0.12641 -0.174119 0)
(0.156931 -0.160993 0)
(0.180755 -0.133767 0)
(0.198036 -0.103077 0)
(0.211702 -0.0724702 0)
(0.0461621 0.013311 0)
(0.0893065 -0.06428 0)
(0.14739 -0.149298 0)
(0.184758 -0.197641 0)
(0.207668 -0.204953 0)
(0.222633 -0.18372 0)
(0.232281 -0.149699 0)
(0.238734 -0.114236 0)
(0.242965 -0.0793462 0)
)
;

boundaryField
{
    inlet
    {
        type            fixedValue;
        value           nonuniform 0();
    }
    outlet
    {
        type            zeroGradient;
    }
    fixedWalls
    {
        type            fixedValue;
        value           uniform (0 0 0);
    }
    frontAndBack
    {
        type            empty;
    }
    procBoundary0to1
    {
        type            processor;
        value           nonuniform List<vector> 9((0.246144 -0.0505572 0) (0.285685 -0.121979 0) (0.312869 -0.185084 0) (0.318735 -0.216289 0) (0.311879 -0.212332 0) (0.301152 -0.185082 0) (0.290428 -0.148711 0) (0.282473 -0.113233 0) (0.274715 -0.0786046 0));
    }
}


// ************************************************************************* //
