/*--------------------------------*- C++ -*----------------------------------*\
| =========                 |                                                 |
| \\      /  F ield         | OpenFOAM Extend Project: Open source CFD        |
|  \\    /   O peration     | Version:  1.6-ext                               |
|   \\  /    A nd           | Web:      www.extend-project.de                 |
|    \\/     M anipulation  |                                                 |
\*---------------------------------------------------------------------------*/
FoamFile
{
    version     2.0;
    format      ascii;
    class       volScalarField;
    location    "3.3";
    object      p;
}
// * * * * * * * * * * * * * * * * * * * * * * * * * * * * * * * * * * * * * //

dimensions      [0 2 -2 0 0 0 0];

internalField   nonuniform List<scalar> 
70
(
-0.0834081
-0.040253
-0.00325654
0.0296833
0.0509052
0.0615225
0.0658434
-0.0713382
-0.0628112
-0.0591658
-0.0556832
-0.049644
-0.0400525
-0.0282291
-0.0153032
-0.0048484
-0.0464315
-0.0471338
-0.0467088
-0.0445351
-0.0394222
-0.0311836
-0.0216044
-0.0114571
-0.00446125
-0.0174811
-0.0237678
-0.026572
-0.0267069
-0.0240724
-0.0189692
-0.01311
-0.0068804
-0.0038285
0.0129005
0.00218313
-0.00475961
-0.00835061
-0.00911206
-0.00775357
-0.00573242
-0.00320358
-0.0033069
0.0334568
0.0203246
0.0109466
0.00479949
0.00124718
-0.000399138
-0.00117177
-0.00116873
-0.00296562
0.044441
0.0303096
0.0193403
0.0113619
0.00591045
0.00242589
0.000236531
-0.000873929
-0.00284182
0.0476598
0.0319163
0.0192403
0.00974506
0.00319669
-0.000843498
-0.00293638
-0.00351583
-0.004011
)
;

boundaryField
{
    inlet
    {
        type            zeroGradient;
    }
    outlet
    {
        type            totalPressure;
        rho             none;
        psi             none;
        gamma           1;
        p0              uniform 0;
        value           uniform 0;
    }
    fixedWalls
    {
        type            zeroGradient;
    }
    frontAndBack
    {
        type            empty;
    }
    procBoundary1to2
    {
        type            processor;
        value           nonuniform List<scalar> 7(-0.118473 -0.018739 0.0269033 0.0559101 0.0726305 0.0805359 0.0848);
    }
    procBoundary1to0
    {
        type            processor;
        value           nonuniform List<scalar> 9(-0.0787174 -0.0617016 -0.0598639 -0.0576616 -0.0524814 -0.0432476 -0.0309192 -0.016967 -0.00444906);
    }
}


// ************************************************************************* //
