/*--------------------------------*- C++ -*----------------------------------*\
| =========                 |                                                 |
| \\      /  F ield         | OpenFOAM Extend Project: Open source CFD        |
|  \\    /   O peration     | Version:  1.6-ext                               |
|   \\  /    A nd           | Web:      www.extend-project.de                 |
|    \\/     M anipulation  |                                                 |
\*---------------------------------------------------------------------------*/
FoamFile
{
    version     2.0;
    format      ascii;
    class       surfaceScalarField;
    location    "3.8";
    object      phi;
}
// * * * * * * * * * * * * * * * * * * * * * * * * * * * * * * * * * * * * * //

dimensions      [0 3 -1 0 0 0 0];

internalField   nonuniform List<scalar> 
123
(
0.000202632
1.1368e-05
0.000210273
3.44744e-05
0.000222191
6.06748e-05
0.0002378
9.20443e-05
0.00025715
0.000130467
0.000282144
0.00017692
0.000319733
0.00023419
0.000384931
0.000291794
0.000362034
0.000406034
0.000203919
7.44951e-06
0.00021464
2.37533e-05
0.000230994
4.43205e-05
0.000252776
7.02621e-05
0.00028139
0.000101853
0.00032027
0.00013804
0.000373165
0.000181295
0.000454957
0.000210002
0.000281605
0.000535385
0.000205989
1.46048e-06
0.000220239
9.50293e-06
0.000240149
2.44109e-05
0.000265189
4.52222e-05
0.000296563
7.04797e-05
0.000336922
9.768e-05
0.000388404
0.000129814
0.000454932
0.000143474
0.000187381
0.000549157
0.000209424
-7.96368e-06
0.000227336
-8.40873e-06
0.000248822
2.92488e-06
0.000273746
2.02984e-05
0.000303458
4.07674e-05
0.000340084
6.10537e-05
0.000386452
8.34457e-05
0.000438768
9.11579e-05
0.000111245
0.000514904
0.000214496
-2.24598e-05
0.00023228
-2.61929e-05
0.00024992
-1.47147e-05
0.000269519
6.99066e-07
0.000293355
1.69317e-05
0.000323355
3.10536e-05
0.000362135
4.46661e-05
0.000403907
4.93853e-05
5.6524e-05
0.000458628
0.000211662
-3.41218e-05
0.000216719
-3.12503e-05
0.000220309
-1.83044e-05
0.000227433
-6.42528e-06
0.000241268
3.09667e-06
0.000262427
9.89493e-06
0.000291697
1.53963e-05
0.000324019
1.70629e-05
1.85083e-05
0.000362035
0.000165878
0.000134628
0.000116323
0.000109898
0.000112995
0.00012289
0.000138286
0.000155349
0.000173857
0.000156692
0.000179693
0.000143664
9.34129e-05
4.79897e-05
1.46681e-05
)
;

boundaryField
{
    inlet
    {
        type            calculated;
        value           nonuniform List<scalar> 7(-0.0002 -0.0002 -0.0002 -0.0002 -0.0002 -0.0002 -0.0002);
    }
    outlet
    {
        type            calculated;
        value           nonuniform 0();
    }
    fixedWalls
    {
        type            calculated;
        value           uniform 0;
    }
    frontAndBack
    {
        type            empty;
    }
    procBoundary2to3
    {
        type            processor;
        value           nonuniform List<scalar> 9(-1.40003e-05 -4.21147e-05 -7.25936e-05 -0.000107653 -0.000149818 -0.000201914 -0.000271778 -0.000356992 -0.000383136);
    }
    procBoundary2to1
    {
        type            processor;
        value           nonuniform List<scalar> 7(0.000249342 0.000512384 0.000585186 0.000565155 0.000504051 0.000395357 0.000188525);
    }
}


// ************************************************************************* //
