/*--------------------------------*- C++ -*----------------------------------*\
| =========                 |                                                 |
| \\      /  F ield         | OpenFOAM Extend Project: Open source CFD        |
|  \\    /   O peration     | Version:  1.6-ext                               |
|   \\  /    A nd           | Web:      www.extend-project.de                 |
|    \\/     M anipulation  |                                                 |
\*---------------------------------------------------------------------------*/
FoamFile
{
    version     2.0;
    format      ascii;
    class       surfaceScalarField;
    location    "3";
    object      phi;
}
// * * * * * * * * * * * * * * * * * * * * * * * * * * * * * * * * * * * * * //

dimensions      [0 3 -1 0 0 0 0];

internalField   nonuniform List<scalar> 
123
(
0.000202644
1.11903e-05
0.00021036
3.35692e-05
0.00022246
5.92582e-05
0.000238296
9.09509e-05
0.000257718
0.000130499
0.000282462
0.000178116
0.000319651
0.000235718
0.000384665
0.000292713
0.000361365
0.00040662
0.000203922
7.2687e-06
0.000214663
2.28282e-05
0.00023112
4.28012e-05
0.000253129
6.89413e-05
0.000281988
0.000101641
0.000320903
0.000139201
0.000373565
0.000183056
0.000454791
0.000211487
0.00028088
0.000535276
0.000205986
1.28317e-06
0.00022018
8.63421e-06
0.000240033
2.29478e-05
0.000265138
4.38362e-05
0.000296723
7.00561e-05
0.000337291
9.86331e-05
0.000388806
0.00013154
0.000455035
0.000145258
0.000187223
0.000548692
0.000209403
-8.11954e-06
0.000227181
-9.14402e-06
0.000248415
1.71395e-06
0.000273161
1.90899e-05
0.000302895
4.03225e-05
0.00033976
6.1768e-05
0.000386375
8.49256e-05
0.000438819
9.28135e-05
0.000111579
0.000514463
0.000214459
-2.25787e-05
0.000232008
-2.66927e-05
0.000249245
-1.55233e-05
0.000268471
-1.35819e-07
0.000292158
1.66352e-05
0.000322404
3.15218e-05
0.000361644
4.56861e-05
0.000403924
5.05329e-05
5.6886e-05
0.000458617
0.000211599
-3.4178e-05
0.000216376
-3.14694e-05
0.000219503
-1.86503e-05
0.000226131
-6.76381e-06
0.000239797
2.96948e-06
0.000261248
1.00703e-05
0.000291137
1.57977e-05
0.000324165
1.75048e-05
1.862e-05
0.000362431
0.000165822
0.000134353
0.000115702
0.000108938
0.000111908
0.000121978
0.000137776
0.000155281
0.000173901
0.00015468
0.000176465
0.000140709
9.13927e-05
4.67485e-05
1.41426e-05
)
;

boundaryField
{
    inlet
    {
        type            calculated;
        value           nonuniform List<scalar> 7(-0.0002 -0.0002 -0.0002 -0.0002 -0.0002 -0.0002 -0.0002);
    }
    outlet
    {
        type            calculated;
        value           nonuniform 0();
    }
    fixedWalls
    {
        type            calculated;
        value           uniform 0;
    }
    frontAndBack
    {
        type            empty;
    }
    procBoundary2to3
    {
        type            processor;
        value           nonuniform List<scalar> 9(-1.38343e-05 -4.12855e-05 -7.13578e-05 -0.000106787 -0.000149921 -0.000202861 -0.000272906 -0.000357727 -0.00038332);
    }
    procBoundary2to1
    {
        type            processor;
        value           nonuniform List<scalar> 7(0.00025194 0.000513491 0.000584449 0.000563779 0.000503262 0.000395037 0.000188043);
    }
}


// ************************************************************************* //
