/*--------------------------------*- C++ -*----------------------------------*\
| =========                 |                                                 |
| \\      /  F ield         | OpenFOAM Extend Project: Open source CFD        |
|  \\    /   O peration     | Version:  1.6-ext                               |
|   \\  /    A nd           | Web:      www.extend-project.de                 |
|    \\/     M anipulation  |                                                 |
\*---------------------------------------------------------------------------*/
FoamFile
{
    version     2.0;
    format      ascii;
    class       surfaceScalarField;
    location    "0.2";
    object      phi;
}
// * * * * * * * * * * * * * * * * * * * * * * * * * * * * * * * * * * * * * //

dimensions      [0 3 -1 0 0 0 0];

internalField   nonuniform List<scalar> 
127
(
0.000170024
2.99757e-05
0.000142279
2.77452e-05
0.000120167
2.21123e-05
0.000100618
1.95483e-05
8.117e-05
1.94485e-05
6.07506e-05
2.04194e-05
3.895e-05
2.18006e-05
1.64001e-05
2.25499e-05
1.64001e-05
0.000198152
3.18236e-05
0.000182242
4.36553e-05
0.000161393
4.29611e-05
0.000138315
4.26261e-05
0.000113307
4.44566e-05
8.59458e-05
4.77809e-05
5.60484e-05
5.1698e-05
2.45405e-05
5.40578e-05
4.09406e-05
0.000196984
3.48399e-05
0.000183604
5.70353e-05
0.000165398
6.11671e-05
0.000144121
6.39022e-05
0.000119911
6.86671e-05
9.23726e-05
7.53193e-05
6.12205e-05
8.28501e-05
2.72618e-05
8.80165e-05
6.82024e-05
0.000195567
3.92724e-05
0.000183695
6.89082e-05
0.000167937
7.69251e-05
0.000149042
8.27969e-05
0.000126606
9.1103e-05
9.98341e-05
0.000102091
6.79381e-05
0.000114746
3.1162e-05
0.000124793
9.93644e-05
0.00019577
4.35026e-05
0.000185987
7.86906e-05
0.000173113
8.97991e-05
0.000157201
9.87093e-05
0.000137332
0.000110972
0.000112069
0.000127355
7.96193e-05
0.000147196
3.86731e-05
0.000165739
0.000138037
0.00019707
4.64327e-05
0.000190327
8.54338e-05
0.000181222
9.89042e-05
0.00016937
0.000110561
0.000153482
0.000126861
0.000131381
0.000149455
9.96744e-05
0.000178902
5.37267e-05
0.000211687
0.000191764
0.0001991
4.73331e-05
0.000196333
8.82007e-05
0.000192071
0.000103166
0.000185763
0.000116868
0.0001761
0.000136524
0.000160643
0.000164911
0.000134811
0.000204735
8.81644e-05
0.000258333
0.000279929
0.00020159
0.000203513
0.00020505
0.000205846
0.000205005
0.000199853
0.000182604
0.000135021
)
;

boundaryField
{
    inlet
    {
        type            calculated;
        value           nonuniform List<scalar> 8(-0.0002 -0.0002 -0.0002 -0.0002 -0.0002 -0.0002 -0.0002 -0.0002);
    }
    outlet
    {
        type            calculated;
        value           nonuniform 0();
    }
    fixedWalls
    {
        type            calculated;
        value           uniform 0;
    }
    frontAndBack
    {
        type            empty;
    }
    procBoundary3to2
    {
        type            processor;
        value           nonuniform List<scalar> 9(4.57428e-05 8.62777e-05 0.00010163 0.000116072 0.000137365 0.000170063 0.000221984 0.000305916 0.00041495);
    }
}


// ************************************************************************* //
