/*--------------------------------*- C++ -*----------------------------------*\
| =========                 |                                                 |
| \\      /  F ield         | OpenFOAM Extend Project: Open source CFD        |
|  \\    /   O peration     | Version:  1.6-ext                               |
|   \\  /    A nd           | Web:      www.extend-project.de                 |
|    \\/     M anipulation  |                                                 |
\*---------------------------------------------------------------------------*/
FoamFile
{
    version     2.0;
    format      ascii;
    class       surfaceScalarField;
    location    "4.4";
    object      phi;
}
// * * * * * * * * * * * * * * * * * * * * * * * * * * * * * * * * * * * * * //

dimensions      [0 3 -1 0 0 0 0];

internalField   nonuniform List<scalar> 
127
(
0.000160823
3.91769e-05
0.000117027
4.37957e-05
8.13602e-05
3.56672e-05
5.41986e-05
2.71615e-05
3.41227e-05
2.00759e-05
1.91329e-05
1.49898e-05
7.93333e-06
1.11996e-05
8.94266e-07
7.03907e-06
8.94266e-07
0.000204944
3.42328e-05
0.000190234
5.85054e-05
0.000162086
6.38159e-05
0.000128414
6.08336e-05
9.39476e-05
5.4542e-05
6.14674e-05
4.747e-05
3.26803e-05
3.99866e-05
1.01771e-05
2.95423e-05
1.10714e-05
0.000208655
2.55775e-05
0.000208063
5.90977e-05
0.000194057
7.78223e-05
0.000168268
8.66221e-05
0.00013414
8.867e-05
9.54088e-05
8.62013e-05
5.56243e-05
7.97711e-05
1.99318e-05
6.52348e-05
3.10032e-05
0.000205058
2.052e-05
0.00020818
5.59756e-05
0.00020262
8.33816e-05
0.00018587
0.000103372
0.000157767
0.000116773
0.000119751
0.000124217
7.47265e-05
0.000124796
2.90389e-05
0.000110922
6.0042e-05
0.000202382
1.8138e-05
0.000205269
5.30881e-05
0.000203735
8.49157e-05
0.000193887
0.00011322
0.000172911
0.000137749
0.000139239
0.000157889
9.30567e-05
0.000170978
3.9409e-05
0.00016457
9.94511e-05
0.000201256
1.6882e-05
0.000203806
5.05379e-05
0.000204723
8.3999e-05
0.000200406
0.000117537
0.000186886
0.00015127
0.000160073
0.000184702
0.000116316
0.000214735
5.57341e-05
0.000225152
0.000155185
0.00020118
1.57024e-05
0.000204434
4.72838e-05
0.000208079
8.03537e-05
0.000209403
0.000116213
0.000204599
0.000156073
0.000188597
0.000200704
0.000153093
0.000250239
8.77551e-05
0.00029049
0.00024294
0.00020172
0.000206761
0.000214108
0.000222029
0.000227663
0.000226116
0.000204725
0.000138966
)
;

boundaryField
{
    inlet
    {
        type            calculated;
        value           nonuniform List<scalar> 8(-0.0002 -0.0002 -0.0002 -0.0002 -0.0002 -0.0002 -0.0002 -0.0002);
    }
    outlet
    {
        type            calculated;
        value           nonuniform 0();
    }
    fixedWalls
    {
        type            calculated;
        value           uniform 0;
    }
    frontAndBack
    {
        type            empty;
    }
    procBoundary3to2
    {
        type            processor;
        value           nonuniform List<scalar> 9(1.39828e-05 4.22429e-05 7.30065e-05 0.000108293 0.000150439 0.000202251 0.00027163 0.000356249 0.000381906);
    }
}


// ************************************************************************* //
