/*--------------------------------*- C++ -*----------------------------------*\
| =========                 |                                                 |
| \\      /  F ield         | OpenFOAM Extend Project: Open source CFD        |
|  \\    /   O peration     | Version:  1.6-ext                               |
|   \\  /    A nd           | Web:      www.extend-project.de                 |
|    \\/     M anipulation  |                                                 |
\*---------------------------------------------------------------------------*/
FoamFile
{
    version     2.0;
    format      ascii;
    class       volSymmTensorField;
    location    "0.4";
    object      DSigma;
}
// * * * * * * * * * * * * * * * * * * * * * * * * * * * * * * * * * * * * * //

dimensions      [1 -1 -2 0 0 0 0];

internalField   nonuniform List<symmTensor> 
328
(
(-0.258044 -0.0515327 1.29034e-24 -0.091249 -1.39035e-20 -0.139717)
(-0.234511 -0.0242416 -1.12069e-24 -0.132097 -6.38997e-25 -0.146643)
(-0.243759 0.0241163 0 -0.136185 0 -0.151978)
(-0.296083 0.0564657 2.84299e-24 -0.104849 -2.84381e-20 -0.160373)
(-0.239746 -0.0356849 1.93328e-24 -0.0538574 1.65274e-20 -0.117441)
(-0.23505 -0.0195565 5.78648e-24 -0.0926943 2.88111e-24 -0.131098)
(-0.244216 0.020741 0 -0.0939798 0 -0.135278)
(-0.27601 0.039177 -3.06758e-28 -0.0631629 3.41468e-24 -0.135669)
(-0.23483 -0.0223676 4.24577e-23 -0.0317125 -3.02783e-20 -0.106617)
(-0.247786 -0.0145611 -4.54391e-24 -0.0697321 -3.71848e-24 -0.127007)
(-0.257621 0.0166533 -3.30514e-24 -0.0697777 1.75978e-24 -0.130959)
(-0.270696 0.0248617 -3.98717e-23 -0.038682 1.53373e-20 -0.123751)
(-0.228924 -0.012713 -3.28692e-23 -0.0163104 4.22444e-22 -0.098094)
(-0.251195 -0.00949022 2.0693e-23 -0.0483037 6.74596e-24 -0.119799)
(-0.26093 0.0121383 -5.0788e-24 -0.0473591 4.0619e-24 -0.123316)
(-0.263948 0.0145878 1.04593e-22 -0.0217326 -1.45765e-20 -0.114272)
(-0.226726 -0.0062614 6.26519e-23 -0.00731606 1.29807e-20 -0.0936169)
(-0.255187 -0.00513176 -1.34648e-23 -0.0336501 -6.51618e-24 -0.115535)
(-0.26486 0.00807169 -5.82932e-24 -0.0322228 2.26275e-25 -0.118833)
(-0.261093 0.00778138 -4.93463e-23 -0.0118912 2.54498e-23 -0.109194)
(-0.225684 -0.00212148 -5.16597e-23 -0.00194683 -1.28534e-20 -0.0910523)
(-0.256252 -0.00168349 -6.40454e-23 -0.0222528 -1.3372e-23 -0.111402)
(-0.26567 0.00477179 -7.49659e-23 -0.0205204 2.44822e-23 -0.114476)
(-0.259303 0.00344934 7.97089e-24 -0.00602774 -7.80626e-23 -0.106132)
(-0.22607 0.000342335 -8.717e-24 0.000854606 1.66462e-22 -0.0900862)
(-0.256603 0.000752059 5.97157e-23 -0.0144336 1.2468e-23 -0.108415)
(-0.265749 0.00239567 6.24723e-23 -0.0125629 -1.85788e-23 -0.111325)
(-0.258926 0.000889845 1.23527e-24 -0.00295448 -1.25939e-20 -0.104752)
(-0.227171 0.00166968 -1.7185e-22 0.00214977 2.14974e-20 -0.0900084)
(-0.255916 0.00229205 -1.04861e-22 -0.00900237 -9.12134e-24 -0.105967)
(-0.264748 0.000870063 -1.41332e-24 -0.00706818 7.94335e-24 -0.108726)
(-0.259201 -0.000481354 2.2519e-23 -0.00149344 -1.25225e-20 -0.104278)
(-0.228751 0.00224146 1.60865e-22 0.00251707 -1.9298e-20 -0.0904938)
(-0.254851 0.00309841 -1.31714e-22 -0.00554514 -1.2369e-23 -0.104158)
(-0.263362 5.43864e-05 0 -0.00360156 0 -0.106785)
(-0.259896 -0.00107091 -2.48082e-24 -0.00100972 2.1888e-20 -0.104362)
(-0.2305 0.00234833 -4.88644e-23 0.00238077 1.82078e-20 -0.0912478)
(-0.25354 0.00337455 2.00342e-22 -0.00345299 2.01118e-23 -0.102797)
(-0.26172 -0.000241757 0 -0.00152848 0 -0.1053)
(-0.26069 -0.00118456 2.02102e-22 -0.0010439 -3.4521e-22 -0.104694)
(-0.232241 0.00219336 5.15432e-23 0.00199195 -1.67679e-20 -0.0920995)
(-0.252229 0.00330513 0 -0.00233305 0 -0.101825)
(-0.260076 -0.000197425 0 -0.000447723 0 -0.10421)
(-0.261404 -0.00103299 -2.15092e-22 -0.0013284 9.23147e-21 -0.105093)
(-0.233841 0.00191837 -5.47811e-23 0.00151131 1.46285e-20 -0.092932)
(-0.251015 0.00304654 0 -0.00183223 0 -0.101139)
(-0.258523 3.32964e-05 0 4.64352e-07 0 -0.103409)
(-0.261901 -0.000761862 -3.90462e-26 -0.00169465 2.90657e-22 -0.105438)
(-0.235237 0.00161385 -5.51515e-23 0.00102859 -6.48785e-21 -0.0936833)
(-0.249969 0.00271333 -6.08456e-23 -0.00170377 6.0192e-24 -0.100669)
(-0.257129 0.000336255 -2.03072e-22 6.53867e-05 4.3196e-23 -0.102826)
(-0.262115 -0.000463167 -6.51048e-23 -0.00205003 -7.67348e-21 -0.105666)
(-0.236403 0.00133261 1.25302e-22 0.000590045 -1.21571e-20 -0.0943253)
(-0.249102 0.00238093 4.85077e-24 -0.00176732 -2.02442e-23 -0.100348)
(-0.255904 0.000635584 1.1768e-22 -7.08221e-05 -3.20568e-23 -0.10239)
(-0.262018 -0.000190271 -2.89622e-22 -0.00234767 6.68307e-21 -0.105746)
(-0.237348 0.00109937 1.27132e-22 0.000211985 1.63099e-20 -0.0948545)
(-0.248398 0.00209049 -1.29528e-22 -0.00190897 -3.07343e-24 -0.100123)
(-0.254828 0.000889427 0 -0.00029335 0 -0.102048)
(-0.261618 3.20976e-05 4.15278e-22 -0.00257158 -5.80394e-21 -0.105676)
(-0.238096 0.000920141 1.28888e-22 -0.000107002 4.68716e-21 -0.0952813)
(-0.247819 0.0018578 0 -0.00206208 0 -0.0999525)
(-0.253861 0.00108121 0 -0.000534839 0 -0.101758)
(-0.260936 0.000198059 1.51041e-22 -0.0027238 -4.40309e-23 -0.105464)
(-0.238677 0.000789624 1.51433e-22 -0.000377997 -1.26436e-20 -0.0956221)
(-0.24732 0.00168201 -1.60643e-22 -0.0021953 2.32303e-23 -0.0998061)
(-0.252956 0.00121117 3.11819e-22 -0.000763479 -5.9858e-23 -0.101488)
(-0.260003 0.000313122 -1.55039e-22 -0.00281615 -8.90801e-21 -0.105128)
(-0.23912 0.000697176 -2.71834e-22 -0.000615566 1.09568e-20 -0.0958942)
(-0.246852 0.00155336 1.30147e-22 -0.00229921 -2.97364e-24 -0.0996606)
(-0.252063 0.00128857 -1.40291e-22 -0.000969386 3.37764e-23 -0.101213)
(-0.258848 0.000388158 -1.09811e-24 -0.00286384 7.84598e-21 -0.104685)
(-0.239445 0.000630847 1.5889e-22 -0.000833834 3.17293e-24 -0.0961117)
(-0.246373 0.00145896 1.49632e-22 -0.00237636 -1.02582e-23 -0.0994998)
(-0.251139 0.00132603 0 -0.00115482 0 -0.100918)
(-0.257492 0.000435403 3.5956e-26 -0.00288172 -2.72725e-22 -0.10415)
(-0.239666 0.000579902 2.99414e-23 -0.00104407 -5.66204e-21 -0.0962841)
(-0.245844 0.00138647 0 -0.00243398 0 -0.0993112)
(-0.250145 0.00133575 -3.38625e-22 -0.00132654 7.09055e-23 -0.100589)
(-0.25595 0.000465891 1.70339e-22 -0.00288141 -5.83618e-21 -0.103533)
(-0.239784 0.000535626 -2.9501e-22 -0.00125368 -4.72485e-21 -0.0964151)
(-0.245233 0.00132594 0 -0.00247889 0 -0.0990847)
(-0.249049 0.00132786 4.88786e-22 -0.00149108 -1.03609e-22 -0.100216)
(-0.254228 0.000488731 3.56585e-22 -0.00287122 1.38581e-22 -0.10284)
(-0.239797 0.000491985 -6.81539e-25 -0.00146584 8.31394e-21 -0.0965051)
(-0.244513 0.00126969 0 -0.00251586 0 -0.0988117)
(-0.247825 0.00130878 -1.61354e-22 -0.00165216 3.49618e-23 -0.0997907)
(-0.252322 0.000509474 -5.14794e-22 -0.00285275 8.89817e-21 -0.10207)
(-0.239675 0.000440427 1.81016e-25 -0.0016827 -3.41674e-21 -0.0965431)
(-0.243622 0.00120597 1.58478e-22 -0.00254318 -3.18425e-23 -0.0984661)
(-0.246393 0.00127715 -1.16414e-22 -0.00181485 2.2033e-23 -0.0992832)
(-0.250151 0.000531084 3.2536e-22 -0.00282787 3.99943e-23 -0.101191)
(-0.239405 0.000390444 -1.25138e-22 -0.00189203 -2.45443e-23 -0.0965186)
(-0.242566 0.00115345 1.7342e-22 -0.00255742 -3.07811e-23 -0.0980492)
(-0.244781 0.00125551 -4.20625e-23 -0.00196873 9.80927e-24 -0.0986998)
(-0.247774 0.000563278 6.30929e-26 -0.00279029 -3.99195e-21 -0.100226)
(-0.239 0.000338591 -2.66295e-24 -0.00207137 -3.45023e-21 -0.0964284)
(-0.241401 0.00110183 1.95413e-22 -0.00254664 -3.85658e-23 -0.0975791)
(-0.243082 0.00123413 -1.01447e-22 -0.00209096 2.35375e-23 -0.0980692)
(-0.245339 0.000599017 -1.95367e-22 -0.00272825 3.89971e-21 -0.0992271)
(-0.238462 0.000285408 -6.02339e-22 -0.00220859 3.53563e-21 -0.0962682)
(-0.240132 0.00104954 2.07565e-22 -0.00250179 -4.49838e-23 -0.0970536)
(-0.241301 0.00121181 -4.86503e-24 -0.00217349 -2.23655e-24 -0.0973899)
(-0.242855 0.000636296 -2.59111e-25 -0.00263356 -3.62764e-21 -0.0981954)
(-0.237791 0.000233469 8.47848e-22 -0.00229319 1.4643e-22 -0.0960338)
(-0.238759 0.000997095 4.24526e-22 -0.00241265 -8.57462e-23 -0.0964687)
(-0.239439 0.00118808 9.08813e-22 -0.00220623 -2.39656e-22 -0.0966579)
(-0.240323 0.00067268 -4.85485e-25 -0.00249655 -3.98611e-21 -0.0971278)
(-0.236985 0.000185524 -8.66377e-22 -0.00231455 6.77032e-21 -0.09572)
(-0.237281 0.000945617 0 -0.00226965 0 -0.0958203)
(-0.237494 0.00116269 5.77998e-23 -0.00217952 -2.12633e-23 -0.0958694)
(-0.237744 0.000705715 7.36931e-25 -0.0023073 4.18195e-21 -0.0960206)
(-0.236041 0.00014497 -8.47515e-25 -0.00226453 -3.68575e-21 -0.0953221)
(-0.235696 0.000896792 0 -0.00206494 0 -0.0951044)
(-0.235466 0.00113555 -9.66611e-22 -0.0020854 2.60919e-22 -0.0950205)
(-0.235117 0.000732543 -8.97657e-25 -0.00205778 -3.8304e-21 -0.0948698)
(-0.234952 0.00011516 -1.00149e-21 -0.00213728 -3.85169e-21 -0.0948359)
(-0.234 0.000852423 0 -0.00179288 0 -0.0943172)
(-0.23335 0.00110676 1.06246e-21 -0.00191819 -3.11487e-22 -0.0941074)
(-0.232435 0.000750431 -1.0602e-21 -0.00174191 7.85018e-21 -0.0936709)
(-0.233716 9.9321e-05 -2.15751e-21 -0.00193069 -1.07577e-22 -0.0942585)
(-0.232188 0.000814174 2.15722e-21 -0.00145114 -5.15027e-22 -0.0934558)
(-0.231142 0.00107628 -3.63253e-23 -0.00167556 -1.65178e-23 -0.0931269)
(-0.229692 0.000756667 -2.27487e-21 -0.00135687 -3.0526e-21 -0.0924197)
(-0.232324 0.00010012 -2.27125e-21 -0.0016466 -1.29868e-21 -0.0935882)
(-0.230254 0.000783246 4.61713e-21 -0.00104112 -1.17188e-21 -0.0925182)
(-0.228832 0.00104387 2.27415e-21 -0.00135897 -6.48043e-22 -0.0920764)
(-0.226877 0.000748797 -7.69972e-23 -0.000903522 -3.97127e-21 -0.0911123)
(-0.23077 0.000119481 4.76229e-21 -0.00129141 5.56797e-22 -0.0928247)
(-0.22819 0.000760192 -4.76878e-21 -0.000568537 1.28712e-21 -0.0915035)
(-0.226413 0.00100896 2.42201e-21 -0.000974235 -6.72219e-22 -0.0909549)
(-0.223978 0.000724707 2.49958e-21 -0.00038712 1.94312e-21 -0.0897461)
(-0.229047 0.000158347 -2.41953e-21 -0.000875981 -6.15143e-23 -0.0919694)
(-0.225988 0.000744832 0 -4.3503e-05 0 -0.0904125)
(-0.223875 0.00097071 0 -0.000531578 0 -0.0897625)
(-0.220982 0.00068283 2.19875e-24 0.000182519 3.87211e-21 -0.08832)
(-0.227147 0.000216602 1.04976e-20 -0.000415543 1.21583e-21 -0.0910249)
(-0.223638 0.000736296 -1.58522e-20 0.000519502 4.31938e-21 -0.0892473)
(-0.221208 0.000928076 5.28421e-21 -4.55784e-05 -1.50036e-21 -0.0885012)
(-0.217878 0.000622301 -1.81222e-24 0.000790944 -2.82984e-21 -0.0868349)
(-0.22506 0.000293018 -5.3572e-21 7.09187e-05 1.60621e-21 -0.0899955)
(-0.221131 0.000733153 1.07878e-20 0.00110213 -2.8939e-21 -0.0880117)
(-0.218402 0.000880046 5.56999e-21 0.000465341 -1.71711e-21 -0.0871746)
(-0.214655 0.000543138 -5.56936e-21 0.00141952 2.30979e-21 -0.0852941)
(-0.222777 0.000385302 -5.79414e-21 0.000561466 -1.11089e-22 -0.0888863)
(-0.21846 0.000733596 5.64841e-21 0.00168293 -1.50076e-21 -0.0867109)
(-0.215449 0.000825819 7.26592e-23 0.000979703 3.68769e-23 -0.0857879)
(-0.211304 0.000446357 1.1631e-20 0.00204617 6.54047e-22 -0.083703)
(-0.220292 0.000490187 5.64977e-21 0.00103241 6.74691e-22 -0.0877039)
(-0.215617 0.000735629 1.3803e-22 0.00223854 -1.04184e-22 -0.0853514)
(-0.212344 0.000764996 1.35909e-22 0.00147414 -1.02461e-22 -0.0843478)
(-0.20782 0.000334044 1.33324e-22 0.00264662 7.38985e-22 -0.0820692)
(-0.217598 0.000603596 1.81725e-20 0.00145973 -2.99841e-21 -0.0864552)
(-0.212596 0.000737242 2.69864e-22 0.0027451 -2.03414e-22 -0.0839405)
(-0.20908 0.0006977 6.32727e-21 0.00192483 -2.01255e-21 -0.082862)
(-0.2042 0.000209312 -2.49011e-20 0.00319583 1.70901e-21 -0.0804017)
(-0.21469 0.000720849 6.36703e-21 0.00182079 -1.67801e-22 -0.0851479)
(-0.209395 0.000736554 -1.25002e-20 0.00317992 3.43021e-21 -0.082486)
(-0.205656 0.00062462 -1.27408e-20 0.00230912 3.80466e-21 -0.0813388)
(-0.200446 7.61844e-05 1.28475e-20 0.00366987 -3.98463e-21 -0.0787106)
(-0.211569 0.000836928 1.01735e-25 0.00209594 9.53388e-23 -0.0837892)
(-0.206012 0.000731913 -6.54734e-21 0.00352318 1.88925e-21 -0.0809957)
(-0.202074 0.000546984 1.96163e-20 0.00260725 -5.84313e-21 -0.0797865)
(-0.196563 -6.06385e-05 -1.30521e-20 0.00404766 7.20802e-22 -0.0770061)
(-0.208235 0.000946781 -5.03022e-25 0.00227011 -4.41608e-22 -0.0823859)
(-0.202451 0.000721972 6.82401e-21 0.00375948 -1.89569e-21 -0.0794768)
(-0.198336 0.000466448 0 0.00280383 0 -0.0782129)
(-0.192557 -0.000196085 -1.35602e-20 0.00431269 5.26119e-22 -0.0752977)
(-0.204694 0.00104564 1.3722e-20 0.00233401 -5.75644e-23 -0.0809439)
(-0.198718 0.00070573 -6.82401e-21 0.00387904 1.89568e-21 -0.0779355)
(-0.194451 0.000384942 0 0.0028891 0 -0.0766247)
(-0.188438 -0.000325073 -1.4057e-20 0.00445438 -1.68115e-21 -0.0735935)
(-0.200954 0.00112935 2.77734e-25 0.00228481 2.17122e-22 -0.0794678)
(-0.19482 0.000682559 -1.44289e-20 0.00387845 3.95755e-21 -0.0763766)
(-0.190427 0.000304488 0 0.0028596 0 -0.075027)
(-0.184219 -0.000442889 1.44224e-20 0.00446885 9.13542e-22 -0.0719001)
(-0.197028 0.00119461 1.17434e-24 0.00212617 8.72001e-22 -0.0779607)
(-0.19077 0.000652207 2.92365e-20 0.00376073 -7.98292e-21 -0.0748035)
(-0.186277 0.000227012 -1.47127e-20 0.00271834 4.36842e-21 -0.0734233)
(-0.179913 -0.000545529 2.96398e-20 0.00435905 -2.69199e-21 -0.0702214)
(-0.192928 0.00123918 -1.49176e-20 0.00186774 -8.52259e-22 -0.076424)
(-0.18658 0.000614786 2.13442e-22 0.00353489 -1.5448e-22 -0.0732179)
(-0.182013 0.000154187 -1.51737e-20 0.00247422 4.08359e-21 -0.0718156)
(-0.175533 -0.000629969 -2.99964e-20 0.00413428 4.73225e-21 -0.0685595)
(-0.188669 0.001262 -3.07976e-20 0.00152401 3.46341e-21 -0.0748581)
(-0.182265 0.000570738 -1.55388e-20 0.00321485 4.1294e-21 -0.0716202)
(-0.177651 8.73163e-05 1.52247e-20 0.0021411 -4.32582e-21 -0.070204)
(-0.171095 -0.000694339 -1.54765e-20 0.00380908 -6.16966e-21 -0.0669143)
(-0.184269 0.00126318 3.13613e-20 0.0011129 -7.1692e-21 -0.0732624)
(-0.177842 0.000520792 3.14297e-20 0.00281807 -8.29474e-21 -0.0700095)
(-0.173206 2.72651e-05 -1.54363e-22 0.00173635 -1.00674e-22 -0.0685877)
(-0.166612 -0.000737975 -1.57658e-20 0.00340172 2.20803e-21 -0.0652841)
(-0.179743 0.00124388 3.58137e-22 0.00065415 3.22397e-21 -0.0716354)
(-0.173324 0.000465902 1.64178e-20 0.00236401 -4.31908e-21 -0.0683842)
(-0.168691 -2.5547e-05 -1.64071e-20 0.00127931 4.31216e-21 -0.0669646)
(-0.162097 -0.000761362 -1.92483e-25 0.0029326 -1.20286e-22 -0.0636659)
(-0.175106 0.0012062 -1.63789e-20 0.000167781 2.22945e-21 -0.0699754)
(-0.168728 0.000407185 -1.62209e-20 0.00187261 3.96678e-21 -0.0667421)
(-0.164121 -7.11092e-05 3.28298e-20 0.000789809 -9.05013e-21 -0.0653323)
(-0.157563 -0.00076598 -3.28514e-20 0.00242256 1.13838e-21 -0.0620561)
(-0.170375 0.00115288 3.34558e-20 -0.000327228 -3.60476e-21 -0.0682808)
(-0.164066 0.000345861 1.67307e-20 0.00136297 -4.31566e-21 -0.065081)
(-0.159507 -0.000109746 3.11066e-22 0.0002868 -2.05104e-22 -0.0636881)
(-0.153019 -0.000754088 -3.36111e-20 0.00189153 4.65773e-21 -0.0604508)
(-0.165561 0.00108715 1.72222e-20 -0.000813939 -2.30472e-21 -0.0665501)
(-0.159349 0.000283189 -1.70518e-20 0.000852342 4.10099e-21 -0.0633987)
(-0.154861 -0.000142023 3.03149e-22 -0.000212635 1.40428e-23 -0.0620293)
(-0.148473 -0.000728478 -1.46523e-22 0.00135747 -3.28651e-21 -0.0588461)
(-0.160678 0.00101241 1.47304e-23 -0.00127811 -3.33284e-22 -0.0647823)
(-0.154589 0.000220423 -1.41355e-22 0.000355444 9.17793e-23 -0.0616933)
(-0.15019 -0.000168649 -1.70313e-20 -0.000693971 4.5135e-21 -0.0603535)
(-0.143932 -0.000692223 1.74849e-20 0.000835647 3.0908e-23 -0.0572384)
(-0.155734 0.000932074 4.02095e-24 -0.00170851 2.1804e-21 -0.0629768)
(-0.149792 0.00015876 3.53062e-20 -0.000115889 -8.34093e-21 -0.0599631)
(-0.145501 -0.000190387 2.83631e-22 -0.00114559 3.45885e-23 -0.0586587)
(-0.1394 -0.000648448 -3.50408e-20 0.000338313 -7.5209e-22 -0.0556245)
(-0.150737 0.000849349 1.79965e-20 -0.002097 -3.80158e-21 -0.0611336)
(-0.144965 9.93071e-05 -3.5883e-20 -0.000552796 8.27602e-21 -0.0582072)
(-0.140799 -0.000207982 -1.7765e-20 -0.00155887 4.34446e-21 -0.0569432)
(-0.134879 -0.000600139 -4.38144e-24 -0.000125344 -2.32907e-21 -0.0540016)
(-0.145694 0.000767101 -3.66573e-20 -0.00243837 3.97915e-21 -0.0592529)
(-0.140113 4.30412e-05 3.63275e-20 -0.000949272 -8.12534e-21 -0.0564249)
(-0.136087 -0.000222112 -1.83031e-20 -0.00192804 4.24605e-21 -0.0552059)
(-0.130369 -0.000549995 -6.03516e-24 -0.000549059 -3.14606e-21 -0.0523673)
(-0.14061 0.000687749 -1.59963e-22 -0.00273007 2.37514e-21 -0.0573359)
(-0.135238 -9.21647e-06 0 -0.0013019 0 -0.054616)
(-0.131365 -0.000233361 5.52619e-20 -0.00224996 -1.27273e-20 -0.0534461)
(-0.12587 -0.000500327 -1.84126e-20 -0.000929195 -1.80663e-21 -0.0507198)
(-0.135488 0.000613201 -3.51645e-24 -0.00297185 -1.76592e-21 -0.0553838)
(-0.130342 -5.68229e-05 -1.88733e-20 -0.00160954 3.95098e-21 -0.0527806)
(-0.126635 -0.000242208 -3.72041e-20 -0.00252373 8.41033e-21 -0.0516633)
(-0.121379 -0.000452996 -1.86666e-20 -0.00126438 -3.35566e-21 -0.0490573)
(-0.130331 0.00054484 -1.91039e-20 -0.00316531 2.45718e-21 -0.0533983)
(-0.125425 -9.93244e-05 1.88733e-20 -0.00187286 -3.95098e-21 -0.0509192)
(-0.121894 -0.000249028 1.90381e-20 -0.00275034 -4.03069e-21 -0.0498576)
(-0.116891 -0.000409395 1.87323e-20 -0.00155511 -1.04052e-21 -0.0473786)
(-0.125141 0.000483543 2.11373e-24 -0.00331354 1.0319e-21 -0.0513818)
(-0.120488 -0.000136457 0 -0.00209405 0 -0.0490329)
(-0.117141 -0.000254101 -1.90381e-20 -0.00293226 4.03069e-21 -0.0480291)
(-0.112404 -0.000370468 -3.82062e-20 -0.00180334 -4.10681e-22 -0.0456828)
(-0.11992 0.000429732 1.96654e-20 -0.00342064 -1.79414e-21 -0.0493364)
(-0.11553 -0.000168139 0 -0.00227632 0 -0.0471226)
(-0.112373 -0.000257636 1.94803e-20 -0.00307303 -3.84667e-21 -0.0461786)
(-0.107911 -0.000336751 1.91773e-20 -0.0020121 -1.06163e-21 -0.0439692)
(-0.114671 0.000383444 6.50629e-23 -0.00349139 -1.02289e-21 -0.0472648)
(-0.110551 -0.00019445 -1.95759e-20 -0.00242361 3.70759e-21 -0.0451897)
(-0.10759 -0.000259786 1.54243e-22 -0.00317693 1.17993e-22 -0.0443066)
(-0.103408 -0.000308434 1.94318e-20 -0.00218517 -2.15213e-21 -0.0422371)
(-0.109393 0.000344411 1.84136e-24 -0.00353089 8.7037e-22 -0.0451697)
(-0.105549 -0.000215614 2.03679e-22 -0.00254026 1.02815e-22 -0.0432356)
(-0.102787 -0.000260672 1.98845e-20 -0.00324866 -3.63445e-21 -0.0424142)
(-0.0988894 -0.000285433 3.94033e-20 -0.0023267 -1.82963e-21 -0.0404865)
(-0.10409 0.000312141 -2.00986e-20 -0.00354431 2.47523e-21 -0.0430538)
(-0.100524 -0.00023197 1.51168e-22 -0.00263071 1.16996e-22 -0.0412618)
(-0.0979627 -0.000260404 -1.98846e-20 -0.00329304 3.63445e-21 -0.0405023)
(-0.0943517 -0.000267466 -3.95846e-20 -0.00244102 2.73248e-21 -0.0387171)
(-0.0987633 0.000285993 -6.12252e-20 -0.00353665 4.72706e-21 -0.04092)
(-0.0954759 -0.000243947 -2.02217e-20 -0.00269937 3.40129e-21 -0.0392701)
(-0.0931156 -0.000259093 2.02216e-20 -0.00331484 -3.40128e-21 -0.0385722)
(-0.0897903 -0.000254119 -2.01358e-20 -0.00253242 -1.0826e-21 -0.0369291)
(-0.0934141 0.000265241 4.11446e-20 -0.00351258 -3.96987e-21 -0.0387707)
(-0.0904044 -0.00025203 0 -0.00275038 0 -0.0372619)
(-0.0882437 -0.000256855 0 -0.00331857 0 -0.0366249)
(-0.0852018 -0.000244903 4.04231e-20 -0.00260498 -3.484e-21 -0.0351227)
(-0.0880448 0.000249137 -2.06614e-20 -0.00347634 2.03934e-21 -0.0366085)
(-0.0853097 -0.000256722 1.41917e-22 -0.00278754 1.15238e-22 -0.0352389)
(-0.0833459 -0.00025381 4.11431e-20 -0.00330839 -6.29552e-21 -0.0346617)
(-0.0805833 -0.000239298 1.4944e-22 -0.00266246 -2.28604e-21 -0.0332983)
(-0.0826573 0.00023696 -1.36712e-22 -0.00343167 4.01737e-22 -0.0344356)
(-0.080192 -0.000258497 -6.24133e-20 -0.00281427 8.87747e-21 -0.0332025)
(-0.0784215 -0.00025005 8.99355e-24 -0.00328806 1.97056e-23 -0.0326838)
(-0.0759326 -0.000236777 -2.05873e-20 -0.00270829 1.5238e-21 -0.0314563)
(-0.0772538 0.000228056 -1.37534e-22 -0.00338184 6.05096e-22 -0.0322542)
(-0.075052 -0.000257757 2.08599e-20 -0.00283356 -2.91118e-21 -0.0311542)
(-0.0734702 -0.000245615 2.07308e-20 -0.00326089 -2.98022e-21 -0.0306925)
(-0.071248 -0.000236821 -1.41443e-22 -0.00274548 6.71883e-22 -0.0295974)
(-0.0718363 0.000221873 1.5324e-25 -0.00332959 6.9553e-23 -0.0300664)
(-0.0698907 -0.000254774 2.11371e-20 -0.00284794 -2.64277e-21 -0.0290955)
(-0.0684921 -0.000240455 0 -0.00322974 0 -0.0286887)
(-0.0665286 -0.000238919 -2.07235e-20 -0.00277665 2.55705e-22 -0.0277221)
(-0.0664073 0.000217982 2.14011e-20 -0.00327725 -2.23733e-21 -0.0278738)
(-0.0647093 -0.000249661 -2.11371e-20 -0.00285956 2.64277e-21 -0.0270275)
(-0.0634873 -0.000234395 -2.11194e-20 -0.00319707 2.57798e-21 -0.0266737)
(-0.0617735 -0.000242563 -2.08467e-20 -0.00280399 -9.35409e-22 -0.025831)
(-0.0609695 0.000216092 2.25528e-24 -0.00322685 1.01822e-21 -0.0256785)
(-0.0595092 -0.000242347 0 -0.00287027 0 -0.0249518)
(-0.0584566 -0.000227132 2.12471e-20 -0.00316502 -2.46904e-21 -0.0246486)
(-0.0569822 -0.000247251 2.11051e-20 -0.0028294 -1.32436e-21 -0.0239246)
(-0.0555259 0.000216048 -1.37265e-22 -0.00318003 -5.83045e-23 -0.0234824)
(-0.0542919 -0.000232597 -2.14967e-20 -0.00288143 2.25855e-21 -0.0228693)
(-0.0534004 -0.000218258 -2.12302e-20 -0.00313529 2.42998e-21 -0.0226143)
(-0.052154 -0.000252511 7.29921e-25 -0.00285425 3.30196e-22 -0.0220033)
(-0.0500804 0.0002178 2.15991e-20 -0.00313867 -4.71759e-22 -0.0212876)
(-0.04906 -0.000220036 -2.62213e-23 -0.00289469 4.3647e-23 -0.0207819)
(-0.0483201 -0.000207354 0 -0.00310985 0 -0.020572)
(-0.0472887 -0.000257912 -1.19578e-22 -0.00288001 7.87807e-22 -0.0200675)
(-0.0446364 0.000221445 1.59391e-25 -0.00310384 7.16335e-23 -0.0190961)
(-0.043814 -0.000204242 2.16213e-20 -0.00291054 -1.87968e-21 -0.0186898)
(-0.0432151 -0.000194076 -2.1539e-20 -0.00308953 2.02626e-21 -0.0185218)
(-0.0423843 -0.00026317 -8.00248e-23 -0.00290719 -3.56811e-22 -0.0181166)
(-0.0392012 0.000227235 2.17637e-20 -0.00307871 -8.33044e-22 -0.016912)
(-0.0385591 -0.0001846 -6.50286e-20 -0.00293227 5.63454e-21 -0.0165965)
(-0.038089 -0.000178517 4.31895e-20 -0.00307795 -3.69578e-21 -0.0164668)
(-0.0374427 -0.000268265 4.26567e-20 -0.00293811 -1.53679e-21 -0.0161523)
(-0.0337741 0.000235505 -3.77261e-25 -0.00306293 -1.69305e-22 -0.0147348)
(-0.033288 -0.000160746 4.34673e-20 -0.002957 -3.35557e-21 -0.014498)
(-0.0329332 -0.000160902 -4.32559e-20 -0.00307257 3.54429e-21 -0.0144023)
(-0.0324575 -0.000273391 -2.13714e-20 -0.0029716 5.37903e-22 -0.0141716)
(-0.0283794 0.000247992 2.19827e-20 -0.00306648 -7.57974e-22 -0.0125783)
(-0.0280227 -0.000131043 -2.17853e-20 -0.00299894 1.63138e-21 -0.0124087)
(-0.0277684 -0.000143106 0 -0.00308791 0 -0.0123425)
(-0.0274469 -0.000280243 -1.02749e-22 -0.00301663 4.02624e-22 -0.0121854)
(-0.0229808 0.000262489 -2.2073e-20 -0.00308031 7.11676e-22 -0.0104244)
(-0.0227012 -9.77841e-05 -2.19321e-20 -0.00302815 1.39624e-21 -0.0102917)
(-0.0225319 -0.000123413 0 -0.00309449 0 -0.0102506)
(-0.0223702 -0.000286734 2.15291e-20 -0.00306321 -7.64487e-22 -0.0101734)
(-0.0177141 0.000282261 -2.20575e-20 -0.00314425 9.33129e-22 -0.00834333)
(-0.0174824 -5.9942e-05 4.37874e-20 -0.0031158 -2.51754e-21 -0.00823929)
(-0.0173818 -0.000103459 -1.55059e-22 -0.00316377 -1.61305e-23 -0.00821823)
(-0.017357 -0.000295928 -2.16658e-20 -0.00314952 6.3644e-22 -0.00820261)
(-0.0122246 0.000246468 6.3619e-23 -0.00312491 -3.17335e-22 -0.0061398)
(-0.0119493 -4.75349e-05 4.37728e-20 -0.00297781 -2.14928e-21 -0.00597084)
(-0.0119031 -5.30877e-05 -1.551e-22 -0.00301416 -9.27951e-24 -0.0059669)
(-0.0120534 -0.000248713 -2.16909e-20 -0.00314389 6.01187e-22 -0.00607893)
(-0.00747496 0.000131216 2.21133e-20 -0.00302379 -1.18753e-21 -0.0041995)
(-0.0073856 -2.35544e-05 -3.28193e-20 -0.0029467 2.80947e-21 -0.00413292)
(-0.00737175 1.07018e-06 9.9361e-23 -0.00298589 3.55101e-24 -0.00414306)
(-0.00740549 -0.000126358 7.48733e-23 -0.00305694 2.24437e-22 -0.00418497)
)
;

boundaryField
{
    plateFix
    {
        type            calculated;
        value           nonuniform List<symmTensor> 4((-0.260487 -0.0663706 9.66329e-25 -0.0928798 -1.39035e-20 -0.141347) (-0.220582 -0.0258204 -1.12069e-24 -0.12281 -6.38997e-25 -0.137357) (-0.228754 0.0244547 0 -0.126182 0 -0.141974) (-0.298475 0.0723138 2.25067e-24 -0.10644 -2.84413e-20 -0.161966));
    }
    plate
    {
        type            calculated;
        value           nonuniform List<symmTensor> 
168
(
(-0.198334 -2.21469e-05 2.57885e-24 -0.00166028 -2.77873e-20 -0.0799978)
(-0.227223 -2.45802e-05 5.6902e-24 -0.00158678 -5.69184e-20 -0.091524)
(-0.204954 -1.97612e-05 2.66001e-24 -0.00165314 3.3029e-20 -0.0826427)
(-0.234943 -2.52955e-05 -6.09972e-28 -0.00157965 6.78992e-24 -0.0946091)
(-0.214793 -1.57154e-05 4.61278e-23 -0.00164803 -6.06268e-20 -0.0865765)
(-0.245951 -2.87238e-05 -4.11604e-23 -0.00157458 3.06756e-20 -0.0990103)
(-0.219151 -1.04915e-05 -3.29046e-23 -0.00164513 8.64237e-22 -0.0883185)
(-0.250504 -3.35395e-05 1.07306e-22 -0.00157169 -2.90871e-20 -0.10083)
(-0.222947 -5.5816e-06 6.2167e-23 -0.00164475 2.59458e-20 -0.0898367)
(-0.254211 -3.99977e-05 -4.93442e-23 -0.00157127 1.09338e-24 -0.102313)
(-0.225485 -8.8551e-07 -5.05038e-23 -0.0016471 -2.56996e-20 -0.0908527)
(-0.256333 -4.70414e-05 7.97581e-24 -0.00157349 -1.31914e-22 -0.103162)
(-0.227741 3.26329e-06 -8.7072e-24 -0.00165233 3.57651e-22 -0.0917574)
(-0.258009 -5.42391e-05 2.47416e-24 -0.00157849 -2.52248e-20 -0.103835)
(-0.22971 6.75304e-06 -1.74125e-22 -0.00166053 4.30895e-20 -0.0925484)
(-0.259263 -6.1099e-05 2.38388e-23 -0.00158635 -2.50191e-20 -0.10434)
(-0.231543 9.459e-06 1.63391e-22 -0.00167188 -3.87065e-20 -0.0932861)
(-0.260288 -6.7311e-05 -4.96345e-24 -0.0015972 4.37921e-20 -0.104754)
(-0.233211 1.13072e-05 -5.07589e-23 -0.00168662 3.64581e-20 -0.093959)
(-0.261069 -7.26067e-05 2.02283e-22 -0.0016113 -5.90656e-22 -0.105072)
(-0.234705 1.22182e-05 5.31489e-23 -0.00170514 -3.35679e-20 -0.0945639)
(-0.261605 -7.67489e-05 -2.16261e-22 -0.00162902 1.83687e-20 -0.105293)
(-0.236 1.20892e-05 -5.63116e-23 -0.00172793 2.93075e-20 -0.0950911)
(-0.261872 -7.94793e-05 -7.6493e-26 -0.00165086 5.69409e-22 -0.105409)
(-0.237092 1.07644e-05 -5.38871e-23 -0.00175563 -1.29798e-20 -0.0955391)
(-0.261867 -8.0488e-05 -6.39461e-23 -0.00167746 -1.53652e-20 -0.105418)
(-0.237989 8.01353e-06 1.27059e-22 -0.00178897 -2.43206e-20 -0.095911)
(-0.261593 -7.93846e-05 -2.90569e-22 -0.00170958 1.32726e-20 -0.105321)
(-0.238708 3.51337e-06 1.24736e-22 -0.00182877 3.26167e-20 -0.0962148)
(-0.261069 -7.56774e-05 4.16148e-22 -0.00174805 -1.14741e-20 -0.105127)
(-0.239275 -3.16457e-06 1.27869e-22 -0.00187588 9.36436e-21 -0.0964603)
(-0.260316 -6.87556e-05 1.51135e-22 -0.00179376 -3.39678e-23 -0.104844)
(-0.239712 -1.2564e-05 1.53274e-22 -0.00193114 -2.53018e-20 -0.0966574)
(-0.259357 -5.78781e-05 -1.53865e-22 -0.00184757 -1.78762e-20 -0.104482)
(-0.240039 -2.53399e-05 -2.73378e-22 -0.00199521 2.1929e-20 -0.0968138)
(-0.258212 -4.21719e-05 -2.19702e-24 -0.00191019 1.56977e-20 -0.104049)
(-0.240268 -4.22835e-05 1.58889e-22 -0.00206849 6.93682e-24 -0.0969347)
(-0.256892 -2.06062e-05 7.06006e-26 -0.00198206 -5.35504e-22 -0.10355)
(-0.240404 -6.4185e-05 3.06227e-23 -0.00215055 -1.13157e-20 -0.0970216)
(-0.255404 7.87122e-06 1.71156e-22 -0.00206275 -1.16273e-20 -0.102987)
(-0.240442 -9.21478e-05 -2.94516e-22 -0.00224061 -9.48105e-21 -0.097073)
(-0.253748 4.46611e-05 3.56562e-22 -0.00215155 3.69431e-22 -0.10236)
(-0.240375 -0.000126397 -1.36359e-24 -0.00233395 1.66341e-20 -0.0970838)
(-0.251916 9.03032e-05 -5.15506e-22 -0.0022437 1.7665e-20 -0.101664)
(-0.240173 -0.000169572 3.62308e-25 -0.00242999 -6.83871e-21 -0.0970413)
(-0.249824 0.000148368 3.25431e-22 -0.00233863 1.70685e-22 -0.100865)
(-0.23982 -0.000218766 -1.25107e-22 -0.00251573 -6.18313e-23 -0.0969344)
(-0.24753 0.000215817 1.26096e-25 -0.00242329 -7.9782e-21 -0.0999812)
(-0.239335 -0.000270515 -2.80804e-24 -0.00257399 -6.91052e-21 -0.0967635)
(-0.245175 0.000288004 -1.95301e-22 -0.00248077 7.74842e-21 -0.0990621)
(-0.238718 -0.000322363 -6.02101e-22 -0.00259254 6.96819e-21 -0.0965242)
(-0.242765 0.000362328 -5.1903e-25 -0.00249871 -7.2666e-21 -0.0981056)
(-0.23797 -0.000370854 8.47882e-22 -0.00256141 4.36019e-22 -0.0962128)
(-0.240304 0.000435128 -9.70259e-25 -0.00246714 -7.96639e-21 -0.0971083)
(-0.237089 -0.000412685 -8.65234e-22 -0.00247001 1.33881e-20 -0.0958238)
(-0.23779 0.000502878 1.47283e-24 -0.0023753 8.35802e-21 -0.096066)
(-0.236072 -0.000444025 -1.69511e-24 -0.00231047 -7.37184e-21 -0.0953529)
(-0.235222 0.000561506 -1.79658e-24 -0.00221513 -7.66618e-21 -0.0949748)
(-0.234913 -0.000461291 -1.0022e-21 -0.00207714 -7.90212e-21 -0.094796)
(-0.232595 0.00060717 -1.05797e-21 -0.00198067 1.53914e-20 -0.0938302)
(-0.233608 -0.000461091 -2.15773e-21 -0.0017681 -7.35113e-22 -0.0941504)
(-0.229901 0.000636198 -2.276e-21 -0.00166969 -6.74995e-21 -0.0926283)
(-0.23215 -0.000440656 -2.27203e-21 -0.00138542 -3.15674e-21 -0.0934143)
(-0.227131 0.000645526 -7.88881e-23 -0.00128384 -8.002e-21 -0.0913659)
(-0.230534 -0.000397982 4.76226e-21 -0.000935742 2.22264e-21 -0.0925879)
(-0.224273 0.000632837 2.5011e-21 -0.000829445 4.70715e-21 -0.090041)
(-0.228751 -0.000332091 -2.41989e-21 -0.000430285 -7.06173e-22 -0.0916726)
(-0.221316 0.000596829 4.39865e-24 -0.000317426 7.74622e-21 -0.0886533)
(-0.226794 -0.000243151 1.05e-20 0.000115237 5.10393e-21 -0.0906715)
(-0.218248 0.000537329 -3.62837e-24 0.000236672 -5.66584e-21 -0.0872045)
(-0.224654 -0.000132584 -5.35849e-21 0.000681216 1.74642e-21 -0.089589)
(-0.215059 0.000455418 -5.56893e-21 0.000813262 2.9065e-21 -0.0856983)
(-0.222323 -3.06656e-06 -5.79674e-21 0.00124499 -1.82886e-21 -0.088431)
(-0.211742 0.000353426 1.16347e-20 0.00138953 5.02057e-21 -0.0841409)
(-0.219793 0.000141537 5.65161e-21 0.0017821 2.85236e-21 -0.0872045)
(-0.208291 0.000234879 1.34049e-22 0.00194068 1.57976e-21 -0.0825399)
(-0.21706 0.000296347 1.81741e-20 0.00226783 -1.24044e-21 -0.0859169)
(-0.204703 0.00010434 -2.49073e-20 0.00244146 -4.50893e-21 -0.0809048)
(-0.214119 0.000455715 6.36764e-21 0.00267894 1.31924e-21 -0.0845761)
(-0.200981 -3.28292e-05 1.28476e-20 0.00286795 -3.89534e-21 -0.0792454)
(-0.21097 0.000613565 2.03857e-25 0.00299544 1.9104e-22 -0.0831898)
(-0.197129 -0.000170789 -1.30561e-20 0.00319934 -2.6886e-21 -0.0775718)