/*--------------------------------*- C++ -*----------------------------------*\
| =========                 |                                                 |
| \\      /  F ield         | OpenFOAM Extend Project: Open source CFD        |
|  \\    /   O peration     | Version:  1.6-ext                               |
|   \\  /    A nd           | Web:      www.extend-project.de                 |
|    \\/     M anipulation  |                                                 |
\*---------------------------------------------------------------------------*/
FoamFile
{
    version     2.0;
    format      ascii;
    class       volVectorField;
    location    "0.4";
    object      DU;
}
// * * * * * * * * * * * * * * * * * * * * * * * * * * * * * * * * * * * * * //

dimensions      [0 1 0 0 0 0 0];

internalField   nonuniform List<vector> 
328
(
(-5.95711e-09 -1.19678e-08 0)
(-4.16138e-09 -2.66299e-09 0)
(-4.33898e-09 2.57871e-09 0)
(-6.82593e-09 1.31292e-08 0)
(-1.8134e-08 -3.06204e-08 0)
(-1.37482e-08 -7.52751e-09 0)
(-1.43681e-08 7.78297e-09 0)
(-2.08077e-08 3.37709e-08 0)
(-3.22601e-08 -4.4283e-08 0)
(-2.65733e-08 -1.18408e-08 0)
(-2.78262e-08 1.29917e-08 0)
(-3.70083e-08 4.93409e-08 0)
(-4.76759e-08 -5.36608e-08 0)
(-4.16121e-08 -1.52131e-08 0)
(-4.35877e-08 1.78344e-08 0)
(-5.46644e-08 6.07434e-08 0)
(-6.45943e-08 -5.96972e-08 0)
(-5.90789e-08 -1.74922e-08 0)
(-6.18687e-08 2.2187e-08 0)
(-7.3997e-08 6.91177e-08 0)
(-8.29517e-08 -6.31087e-08 0)
(-7.86418e-08 -1.86064e-08 0)
(-8.23054e-08 2.60396e-08 0)
(-9.49156e-08 7.53492e-08 0)
(-1.0286e-07 -6.44747e-08 0)
(-1.00262e-07 -1.85873e-08 0)
(-1.04853e-07 2.95049e-08 0)
(-1.17527e-07 8.01741e-08 0)
(-1.24403e-07 -6.42122e-08 0)
(-1.23817e-07 -1.74992e-08 0)
(-1.2938e-07 3.2751e-08 0)
(-1.41906e-07 8.41583e-08 0)
(-1.47702e-07 -6.26271e-08 0)
(-1.49282e-07 -1.54248e-08 0)
(-1.55856e-07 3.59841e-08 0)
(-1.68168e-07 8.7758e-08 0)
(-1.72879e-07 -5.9925e-08 0)
(-1.76647e-07 -1.24343e-08 0)
(-1.8427e-07 3.94167e-08 0)
(-1.96432e-07 9.13356e-08 0)
(-2.00066e-07 -5.62333e-08 0)
(-2.05958e-07 -8.57309e-09 0)
(-2.14665e-07 4.32556e-08 0)
(-2.26821e-07 9.51872e-08 0)
(-2.29397e-07 -5.16114e-08 0)
(-2.37294e-07 -3.85177e-09 0)
(-2.47117e-07 4.76921e-08 0)
(-2.59463e-07 9.95556e-08 0)
(-2.61013e-07 -4.60621e-08 0)
(-2.70772e-07 1.75585e-09 0)
(-2.81742e-07 5.28998e-08 0)
(-2.94488e-07 1.04644e-07 0)
(-2.95062e-07 -3.95402e-08 0)
(-3.06541e-07 8.31176e-09 0)
(-3.18683e-07 5.90364e-08 0)
(-3.32029e-07 1.10628e-07 0)
(-3.31698e-07 -3.19618e-08 0)
(-3.44769e-07 1.59093e-08 0)
(-3.58104e-07 6.62481e-08 0)
(-3.72226e-07 1.17661e-07 0)
(-3.71092e-07 -2.3212e-08 0)
(-3.85648e-07 2.46676e-08 0)
(-4.0019e-07 7.46744e-08 0)
(-4.15226e-07 1.25887e-07 0)
(-4.13424e-07 -1.3153e-08 0)
(-4.29379e-07 3.47256e-08 0)
(-4.45135e-07 8.44536e-08 0)
(-4.61186e-07 1.35446e-07 0)
(-4.5889e-07 -1.63089e-09 0)
(-4.76176e-07 4.62361e-08 0)
(-4.93143e-07 9.57264e-08 0)
(-5.1027e-07 1.46475e-07 0)
(-5.07698e-07 1.15182e-08 0)
(-5.2626e-07 5.93608e-08 0)
(-5.44421e-07 1.08638e-07 0)
(-5.62652e-07 1.59119e-07 0)
(-5.60074e-07 2.64631e-08 0)
(-5.79856e-07 7.42656e-08 0)
(-5.99183e-07 1.23337e-07 0)
(-6.18512e-07 1.73523e-07 0)
(-6.16254e-07 4.33727e-08 0)
(-6.37198e-07 9.11164e-08 0)
(-6.57646e-07 1.39976e-07 0)
(-6.78041e-07 1.89837e-07 0)
(-6.76488e-07 6.24106e-08 0)
(-6.98524e-07 1.10074e-07 0)
(-7.20029e-07 1.58704e-07 0)
(-7.41431e-07 2.08209e-07 0)
(-7.435e-07 8.45419e-08 0)
(-7.66578e-07 1.32097e-07 0)
(-7.89093e-07 1.80464e-07 0)
(-8.11453e-07 2.29562e-07 0)
(-8.15125e-07 1.09192e-07 0)
(-8.39119e-07 1.5661e-07 0)
(-8.62515e-07 2.04685e-07 0)
(-8.85707e-07 2.5334e-07 0)
(-8.86608e-07 1.34606e-07 0)
(-9.11324e-07 1.8187e-07 0)
(-9.35411e-07 2.29642e-07 0)
(-9.59246e-07 2.77849e-07 0)
(-9.57915e-07 1.6059e-07 0)
(-9.83168e-07 2.07687e-07 0)
(-1.00776e-06 2.55147e-07 0)
(-1.03206e-06 3.02906e-07 0)
(-1.02902e-06 1.86957e-07 0)
(-1.05463e-06 2.33877e-07 0)
(-1.07955e-06 2.81022e-07 0)
(-1.10414e-06 3.28334e-07 0)
(-1.09988e-06 2.13533e-07 0)
(-1.12568e-06 2.60267e-07 0)
(-1.15077e-06 3.07094e-07 0)
(-1.17549e-06 3.53965e-07 0)
(-1.17049e-06 2.40149e-07 0)
(-1.1963e-06 2.86693e-07 0)
(-1.2214e-06 3.33202e-07 0)
(-1.2461e-06 3.79638e-07 0)
(-1.2408e-06 2.66649e-07 0)
(-1.26648e-06 3.12998e-07 0)
(-1.29143e-06 3.59191e-07 0)
(-1.31596e-06 4.052e-07 0)
(-1.3108e-06 2.9289e-07 0)
(-1.33619e-06 3.39038e-07 0)
(-1.36086e-06 3.84915e-07 0)
(-1.38508e-06 4.30505e-07 0)
(-1.38045e-06 3.18738e-07 0)
(-1.40541e-06 3.64677e-07 0)
(-1.42966e-06 4.10237e-07 0)
(-1.45345e-06 4.55413e-07 0)
(-1.44972e-06 3.44067e-07 0)
(-1.47412e-06 3.89788e-07 0)
(-1.49782e-06 4.35028e-07 0)
(-1.52106e-06 4.7979e-07 0)
(-1.51858e-06 3.68765e-07 0)
(-1.54229e-06 4.14252e-07 0)
(-1.56531e-06 4.59162e-07 0)
(-1.58789e-06 5.03506e-07 0)
(-1.58698e-06 3.92724e-07 0)
(-1.60989e-06 4.37957e-07 0)
(-1.63212e-06 4.82521e-07 0)
(-1.65392e-06 5.26438e-07 0)
(-1.65488e-06 4.15847e-07 0)
(-1.67687e-06 4.60795e-07 0)
(-1.69821e-06 5.04992e-07 0)
(-1.71913e-06 5.48462e-07 0)
(-1.72222e-06 4.38039e-07 0)
(-1.74319e-06 4.82667e-07 0)
(-1.76354e-06 5.26466e-07 0)
(-1.78348e-06 5.69463e-07 0)
(-1.78894e-06 4.59215e-07 0)
(-1.80879e-06 5.03476e-07 0)
(-1.82806e-06 5.46838e-07 0)
(-1.84692e-06 5.89327e-07 0)
(-1.85497e-06 4.79291e-07 0)
(-1.87362e-06 5.23132e-07 0)
(-1.89171e-06 5.6601e-07 0)
(-1.90941e-06 6.07948e-07 0)
(-1.92025e-06 4.98191e-07 0)
(-1.93762e-06 5.4155e-07 0)
(-1.95445e-06 5.83891e-07 0)
(-1.9709e-06 6.25227e-07 0)
(-1.98468e-06 5.15842e-07 0)
(-2.0007e-06 5.58653e-07 0)
(-2.01621e-06 6.00394e-07 0)
(-2.03133e-06 6.41075e-07 0)
(-2.04819e-06 5.32177e-07 0)
(-2.0628e-06 5.74368e-07 0)
(-2.07691e-06 6.15446e-07 0)
(-2.09064e-06 6.55411e-07 0)
(-2.11069e-06 5.47134e-07 0)
(-2.12384e-06 5.88631e-07 0)
(-2.1365e-06 6.28979e-07 0)
(-2.14876e-06 6.6817e-07 0)
(-2.1721e-06 5.60657e-07 0)
(-2.18375e-06 6.01387e-07 0)
(-2.1949e-06 6.4094e-07 0)
(-2.20565e-06 6.79296e-07 0)
(-2.23233e-06 5.72693e-07 0)
(-2.24245e-06 6.12587e-07 0)
(-2.25206e-06 6.51282e-07 0)
(-2.26125e-06 6.88749e-07 0)
(-2.29132e-06 5.83199e-07 0)
(-2.29987e-06 6.22194e-07 0)
(-2.30792e-06 6.59974e-07 0)
(-2.31551e-06 6.965e-07 0)
(-2.34899e-06 5.92138e-07 0)
(-2.35597e-06 6.30177e-07 0)
(-2.36243e-06 6.66991e-07 0)
(-2.36839e-06 7.02535e-07 0)
(-2.40529e-06 5.99482e-07 0)
(-2.41068e-06 6.36517e-07 0)
(-2.41553e-06 6.72323e-07 0)
(-2.41985e-06 7.06849e-07 0)
(-2.46016e-06 6.0521e-07 0)
(-2.46396e-06 6.41202e-07 0)
(-2.46721e-06 6.75967e-07 0)
(-2.46988e-06 7.09449e-07 0)
(-2.51356e-06 6.0931e-07 0)
(-2.51578e-06 6.44229e-07 0)
(-2.51742e-06 6.77929e-07 0)
(-2.51845e-06 7.1035e-07 0)
(-2.56545e-06 6.11783e-07 0)
(-2.56611e-06 6.45607e-07 0)
(-2.56616e-06 6.78225e-07 0)
(-2.56555e-06 7.09575e-07 0)
(-2.61581e-06 6.12634e-07 0)
(-2.61492e-06 6.4535e-07 0)
(-2.6134e-06 6.76878e-07 0)
(-2.61118e-06 7.07154e-07 0)
(-2.66462e-06 6.11882e-07 0)
(-2.66222e-06 6.43482e-07 0)
(-2.65915e-06 6.73918e-07 0)
(-2.65534e-06 7.03124e-07 0)
(-2.71186e-06 6.09551e-07 0)
(-2.70798e-06 6.40035e-07 0)
(-2.7034e-06 6.6938e-07 0)
(-2.69803e-06 6.97524e-07 0)
(-2.75754e-06 6.05677e-07 0)
(-2.75221e-06 6.35047e-07 0)
(-2.74616e-06 6.63308e-07 0)
(-2.73928e-06 6.90401e-07 0)
(-2.80163e-06 6.00302e-07 0)
(-2.7949e-06 6.28562e-07 0)
(-2.78742e-06 6.55748e-07 0)
(-2.77908e-06 6.81804e-07 0)
(-2.84414e-06 5.93475e-07 0)
(-2.83606e-06 6.20632e-07 0)
(-2.8272e-06 6.46753e-07 0)
(-2.81745e-06 6.71787e-07 0)
(-2.88507e-06 5.85251e-07 0)
(-2.87569e-06 6.11313e-07 0)
(-2.86551e-06 6.36381e-07 0)
(-2.85439e-06 6.60406e-07 0)
(-2.92441e-06 5.75692e-07 0)
(-2.91379e-06 6.00667e-07 0)
(-2.90234e-06 6.24691e-07 0)
(-2.88993e-06 6.47721e-07 0)
(-2.96217e-06 5.64862e-07 0)
(-2.95036e-06 5.88757e-07 0)
(-2.93771e-06 6.11748e-07 0)
(-2.92408e-06 6.33796e-07 0)
(-2.99834e-06 5.52831e-07 0)
(-2.98541e-06 5.75653e-07 0)
(-2.97162e-06 5.97619e-07 0)
(-2.95683e-06 6.18696e-07 0)
(-3.03292e-06 5.39671e-07 0)
(-3.01893e-06 5.61425e-07 0)
(-3.00407e-06 5.82374e-07 0)
(-2.98819e-06 6.02486e-07 0)
(-3.06591e-06 5.25454e-07 0)
(-3.05094e-06 5.46145e-07 0)
(-3.03507e-06 5.66082e-07 0)
(-3.01817e-06 5.85238e-07 0)
(-3.09731e-06 5.10256e-07 0)
(-3.08141e-06 5.29886e-07 0)
(-3.06461e-06 5.48815e-07 0)
(-3.04676e-06 5.67019e-07 0)
(-3.12711e-06 4.94152e-07 0)
(-3.11036e-06 5.12724e-07 0)
(-3.0927e-06 5.30647e-07 0)
(-3.07397e-06 5.479e-07 0)
(-3.15532e-06 4.77217e-07 0)
(-3.13779e-06 4.94731e-07 0)
(-3.11932e-06 5.11648e-07 0)
(-3.09979e-06 5.27952e-07 0)
(-3.18192e-06 4.59524e-07 0)
(-3.16367e-06 4.7598e-07 0)
(-3.14449e-06 4.91892e-07 0)
(-3.12422e-06 5.07245e-07 0)
(-3.20691e-06 4.41146e-07 0)
(-3.18802e-06 4.56543e-07 0)
(-3.16817e-06 4.71448e-07 0)
(-3.14724e-06 4.85847e-07 0)
(-3.2303e-06 4.22154e-07 0)
(-3.21082e-06 4.3649e-07 0)
(-3.19039e-06 4.50385e-07 0)
(-3.16886e-06 4.63827e-07 0)
(-3.25207e-06 4.02616e-07 0)
(-3.23207e-06 4.15889e-07 0)
(-3.21111e-06 4.28772e-07 0)
(-3.18906e-06 4.41252e-07 0)
(-3.27222e-06 3.82599e-07 0)
(-3.25177e-06 3.94808e-07 0)
(-3.23035e-06 4.06673e-07 0)
(-3.20783e-06 4.18186e-07 0)
(-3.29076e-06 3.62168e-07 0)
(-3.26991e-06 3.73309e-07 0)
(-3.24808e-06 3.84153e-07 0)
(-3.22516e-06 3.94692e-07 0)
(-3.30766e-06 3.41383e-07 0)
(-3.28648e-06 3.51455e-07 0)
(-3.26431e-06 3.61274e-07 0)
(-3.24104e-06 3.70832e-07 0)
(-3.32294e-06 3.20305e-07 0)
(-3.30148e-06 3.29306e-07 0)
(-3.27902e-06 3.38094e-07 0)
(-3.25547e-06 3.46664e-07 0)
(-3.3366e-06 2.9899e-07 0)
(-3.3149e-06 3.06917e-07 0)
(-3.29221e-06 3.14669e-07 0)
(-3.26841e-06 3.22244e-07 0)
(-3.34862e-06 2.7749e-07 0)
(-3.32674e-06 2.84342e-07 0)
(-3.30386e-06 2.91054e-07 0)
(-3.27988e-06 2.97625e-07 0)
(-3.35902e-06 2.55855e-07 0)
(-3.337e-06 2.6163e-07 0)
(-3.31397e-06 2.67295e-07 0)
(-3.28985e-06 2.72854e-07 0)
(-3.36779e-06 2.34129e-07 0)
(-3.34566e-06 2.38827e-07 0)
(-3.32252e-06 2.43438e-07 0)
(-3.2983e-06 2.47975e-07 0)
(-3.37494e-06 2.12356e-07 0)
(-3.35274e-06 2.15972e-07 0)
(-3.32952e-06 2.19518e-07 0)
(-3.30524e-06 2.23022e-07 0)
(-3.38046e-06 1.90553e-07 0)
(-3.35819e-06 1.93094e-07 0)
(-3.33493e-06 1.95575e-07 0)
(-3.31063e-06 1.98041e-07 0)
(-3.38443e-06 1.68748e-07 0)
(-3.3621e-06 1.70213e-07 0)
(-3.33881e-06 1.71639e-07 0)
(-3.31452e-06 1.73059e-07 0)
(-3.38666e-06 1.46712e-07 0)
(-3.36428e-06 1.47285e-07 0)
(-3.34098e-06 1.47797e-07 0)
(-3.31672e-06 1.48336e-07 0)
)
;

boundaryField
{
    plateFix
    {
        type            fixedDisplacement;
        value           uniform (0 0 0);
    }
    plate
    {
        type            solidTraction;
        nonLinear       updatedLagrangian;
        traction        nonuniform List<vector> 
168
(
(6.82113e-05 8.25999e-05 -8.76214e-22)
(7.56716e-05 -8.70881e-05 -2.87786e-20)
(-1.31854e-05 -2.06877e-05 -4.72127e-23)
(1.05948e-06 1.38078e-05 -4.3031e-24)
(-0.000324449 -0.00015322 6.43203e-20)
(-0.000298681 0.000144994 3.57535e-20)
(-0.000818481 -0.000262439 4.31109e-23)
(-0.000778961 0.000254108 -3.18604e-20)
(-0.00145831 -0.000332146 -5.57283e-20)
(-0.00140441 0.00032438 -1.87367e-21)
(-0.00220844 -0.000362661 5.21692e-20)
(-0.00214037 0.000355679 0)
(-0.00303093 -0.000362353 -2.42562e-20)
(-0.00294944 0.000356063 -2.61586e-20)
(-0.00389192 -0.000341437 -2.24221e-20)
(-0.00379794 0.00033557 -6.8352e-24)
(-0.00476456 -0.000308843 4.11759e-20)
(-0.00465902 0.00030306 2.2202e-20)
(-0.00562974 -0.000271277 -3.75838e-20)
(-0.00551339 0.00026524 2.52298e-21)
(-0.00647609 -0.000233247 3.40924e-20)
(-0.00634948 0.000226666 1.83837e-20)
(-0.00729959 -0.000197468 -3.07518e-20)
(-0.00716309 0.000190111 -1.66079e-20)
(-0.00810298 -0.000165359 1.03613e-20)
(-0.00795684 0.000157057 0)
(-0.0088952 -0.000137515 1.53644e-20)
(-0.0087397 0.00012815 9.97044e-21)
(-0.00969105 -0.000114118 -1.09257e-20)
(-0.0095266 0.000103611 -1.18138e-20)
(-0.010511 -9.53356e-05 -1.20632e-20)
(-0.0103384 8.36462e-05 0)
(-0.011382 -8.17794e-05 1.27411e-20)
(-0.0112026 6.89134e-05 -9.20289e-21)
(-0.0123371 -7.51013e-05 -1.49081e-20)
(-0.0121531 6.11536e-05 8.06259e-21)
(-0.0134223 -7.91876e-05 -7.31371e-24)
(-0.0132375 6.44269e-05 1.41032e-20)
(-0.014683 -0.000100705 1.13199e-20)
(-0.0145031 8.57205e-05 -1.22649e-20)
(-0.0162196 -0.000154112 9.83851e-21)
(-0.016054 0.000140135 -1.06806e-20)
(-0.0180544 -0.000253424 -4.27623e-21)
(-0.0179177 0.000242137 1.84901e-20)
(-0.020566 -0.000425485 0)
(-0.0204735 0.000421409 -7.82558e-21)
(-0.0236836 -0.000556442 0)
(-0.0236501 0.000558888 1.93294e-24)
(-0.0272471 -0.000720937 -1.7873e-24)
(-0.0272996 0.000730339 7.99061e-21)
(-0.0312733 -0.000887938 3.58911e-24)
(-0.0314373 0.0009065 -1.59621e-20)
(-0.0356832 -0.00105676 -3.57255e-23)
(-0.0359889 0.00108678 8.02589e-21)
(-0.040409 -0.00121229 -7.2961e-21)
(-0.0408877 0.00125637 0)
(-0.0453235 -0.00134457 7.28871e-21)
(-0.0460079 0.00140521 -7.9747e-21)
(-0.0502867 -0.00144029 1.39381e-23)
(-0.0512085 0.00151971 7.92198e-21)
(-0.0551257 -0.00148796 0)
(-0.0563146 0.00158783 0)
(-0.0596552 -0.00147695 3.2335e-21)
(-0.061137 0.00159815 -3.57714e-21)
(-0.0636789 -0.0013996 -3.23652e-21)
(-0.0654741 0.00154204 3.61025e-21)
(-0.0670031 -0.00125176 2.7405e-21)
(-0.069125 0.00141418 3.0851e-21)
(-0.0694448 -0.00103382 -2.72483e-21)
(-0.0718986 0.00121376 -6.01015e-21)
(-0.0708431 -0.000750923 0)
(-0.0736251 0.000944717 2.74215e-21)
(-0.0710684 -0.000413012 0)
(-0.0741652 0.000615924 0)
(-0.0700311 -3.42586e-05 -1.20937e-21)
(-0.0734197 0.000240653 1.55724e-21)
(-0.0676874 0.000367868 1.2372e-21)
(-0.0713353 -0.000164262 -1.58757e-21)
(-0.0640429 0.000773929 0)
(-0.0679092 -0.000579697 0)
(-0.0591535 0.00116402 -2.47195e-22)
(-0.06319 -0.000985727 0)
(-0.0531229 0.00151938 2.39529e-22)
(-0.0572757 -0.00136321 -5.04858e-22)
(-0.0460969 0.00182383 0)
(-0.0503084 -0.00169526 -5.34068e-22)
(-0.0382553 0.00206495 -1.80746e-21)
(-0.0424662 -0.00196853 -5.16038e-22)
(-0.029802 0.00223486 -3.66159e-22)
(-0.0339535 -0.00217403 3.6048e-21)
(-0.0209536 0.00233056 2.14625e-21)
(-0.0249895 -0.00230749 -1.97964e-21)
(-0.011928 0.00235365 8.89995e-23)
(-0.0157965 -0.00236934 0)
(-0.00293424 0.00230984 3.3616e-21)
(-0.00658927 -0.00236412 1.92098e-22)
(0.00583704 0.00220798 -3.31105e-21)
(0.00243445 -0.00229968 3.58819e-21)
(0.0142205 0.00205904 -5.82427e-23)
(0.0111016 -0.00218614 -3.70864e-21)
(0.0220809 0.00187497 0)
(0.0192688 -0.00203482 0)
(0.0293154 0.00166779 1.28601e-22)
(0.0268252 -0.00185727 0)
(0.0358544 0.00144871 1.32496e-22)
(0.0336929 -0.0016644 0)
(0.0416591 0.00122754 -4.23509e-21)
(0.0398259 -0.00146591 -2.73396e-22)
(0.0467195 0.0010124 4.23772e-21)
(0.0452071 -0.00126993 -1.38933e-22)
(0.0510497 0.000809496 0)
(0.0498446 -0.00108281 1.39566e-22)
(0.0546835 0.000623223 0)
(0.0537671 -0.00090918 4.16651e-22)
(0.0576696 0.000456288 -1.35447e-22)
(0.0570196 -0.000752047 0)
(0.0600671 0.00030997 1.33431e-22)
(0.0596582 -0.000613047 -2.71981e-22)
(0.061941 0.000184411 -2.20107e-21)
(0.0617465 -0.000492694 0)
(0.0633584 7.88965e-05 1.94463e-21)
(0.0633511 -0.000390647 0)
(0.0643862 -7.87197e-06 0)
(0.0645394 -0.00030596 0)
(0.0650882 -7.75483e-05 1.21386e-22)
(0.0653766 -0.000237304 0)
(0.0655242 -0.000131952 -1.61924e-21)
(0.0659242 -0.000183146 0)
(0.0657486 -0.000172931 1.8571e-21)
(0.0662389 -0.000141885 0)
(0.0658104 -0.000202246 1.73673e-21)
(0.0663723 -0.000111971 0)
(0.0657534 -0.000221514 -9.0009e-22)
(0.0663707 -9.19619e-05 -1.61384e-21)
(0.065616 -0.000232135 -8.39646e-22)
(0.066275 -8.06027e-05 1.10578e-21)
(0.0654324 -0.000235288 0)
(0.0661217 -7.68366e-05 8.31993e-22)
(0.0652329 -0.000231864 0)
(0.0659437 -7.98802e-05 -7.70689e-22)
(0.0650454 -0.000222485 -9.21386e-23)
(0.0657706 -8.92067e-05 7.71419e-22)
(0.0648958 -0.000207373 -6.93902e-22)
(0.0656302 -0.000104699 0)
(0.0648101 -0.000186353 6.09637e-22)
(0.0655504 -0.000126635 6.81815e-22)
(0.0648154 -0.000158387 0)
(0.0655596 -0.00015621 -2.72809e-22)
(0.0649445 -0.000121434 -7.80644e-23)
(0.0656921 -0.000195644 -1.67085e-22)
(0.0652355 -6.97503e-05 0)
(0.0659877 -0.000251019 -2.96721e-22)
(0.0657543 6.52983e-06 7.10033e-23)
(0.0665136 -0.000332644 4.37774e-22)
(0.0665714 0.000143786 -6.71952e-23)
(0.0673431 -0.000477854 -7.24503e-23)
(0.0679322 0.000394118 6.33432e-23)
(0.0687234 -0.000739994 6.22123e-23)
(0.0699203 0.00106484 5.9262e-23)
(0.0707422 -0.00142976 -6.22649e-23)
(0.0742162 0.0024485 5.4788e-23)
(0.0750852 -0.00283967 5.53214e-23)
(0.0794877 0.00835686 0)
(0.0150358 0.00619992 -3.52126e-23)
(-0.00126985 -0.00522998 -2.80615e-23)
(-0.00121972 0.00505136 4.51709e-23)
(0.0153328 -0.00669888 -3.28758e-23)
(0.0804784 -0.00881785 9.59767e-23)
)
;
        pressure        nonuniform List<scalar> 
168
(
-0.346469
-0.373664
-0.346938
-0.374127
-0.347474
-0.374661
-0.348022
-0.375214
-0.34853
-0.375734
-0.348944
-0.376166
-0.349229
-0.376476
-0.349369
-0.37665
-0.349363
-0.376684
-0.349218
-0.376588
-0.348952
-0.376381
-0.348588
-0.376088
-0.348156
-0.375738
-0.347689
-0.375369
-0.347226
-0.375021
-0.346811
-0.374742
-0.346495
-0.374588
-0.346335
-0.374618
-0.346403
-0.37491
-0.346736
-0.375507
-0.347476
-0.376556
-0.348402
-0.377842
-0.350058
-0.379916
-0.351833
-0.382204
-0.353568
-0.384477
-0.35467
-0.386152
-0.354771
-0.38684
-0.35325
-0.385908
-0.349551
-0.382778
-0.343049
-0.376799
-0.333169
-0.367367
-0.319379
-0.353916
-0.301246
-0.335983
-0.278468
-0.313228
-0.250903
-0.285477
-0.218591
-0.252743
-0.181776
-0.215245
-0.140903
-0.173413
-0.0966073
-0.127876
-0.0496955
-0.0794442
-0.00110481
-0.0290695
0.048143
0.0222012
0.0969959
0.0732811
0.144428
0.123101
0.189494
0.170668
0.231371
0.215108
0.269398
0.255708
0.30309
0.291936
0.332146
0.323447
0.356443
0.350083
0.376018
0.371849
0.39104
0.388893
0.401788
0.401478
0.408617
0.40995
0.41193
0.41471
0.412159
0.416187
0.409736
0.414821
0.405083
0.411041
0.398597
0.405253
0.390641
0.397833
0.381539
0.38912
0.371575
0.379411
0.360991
0.368963
0.34999
0.357995
0.338738
0.346685
0.327365
0.335179
0.315974
0.32359
0.304638
0.312003
0.293409
0.30048
0.282316
0.289058
0.271373
0.277758
0.260577
0.26658
0.24991
0.255511
0.239338
0.24452
0.228814
0.23356
0.218265
0.222559
0.20761
0.21143
0.196656
0.19998
0.185335
0.188127
0.172616
0.174832
0.159687
0.161261
0.136614
0.0928527
0.130967
0.130888
0.0917556
0.137435
)
;
        value           nonuniform List<vector> 
168
(
(-5.83653e-08 -3.15536e-08 1.39031e-26)
(-6.45617e-08 3.56104e-08 -2.84388e-26)
(-5.59912e-08 -5.08687e-08 -1.65239e-26)
(-6.32317e-08 5.70263e-08 3.41479e-30)
(-5.74545e-08 -6.55155e-08 3.03257e-26)
(-6.64913e-08 7.36987e-08 1.52909e-26)
(-6.34094e-08 -7.53292e-08 -4.62793e-28)
(-7.48253e-08 8.55575e-08 -1.44653e-26)
(-7.3607e-08 -8.17449e-08 -1.2925e-26)
(-8.78836e-08 9.4303e-08 -2.45118e-29)
(-8.72265e-08 -8.54095e-08 1.28088e-26)
(-1.04718e-07 1.00746e-07 -7.35094e-29)
(-1.0382e-07 -8.70003e-08 -1.73746e-28)
(-1.24809e-07 1.05738e-07 -1.25944e-26)
(-1.23032e-07 -8.69333e-08 -2.15759e-26)
(-1.47749e-07 1.09847e-07 -1.25138e-26)
(-1.44679e-07 -8.55297e-08 1.93646e-26)
(-1.73321e-07 1.13547e-07 2.18888e-26)
(-1.68657e-07 -8.2992e-08 -1.82235e-26)
(-2.01401e-07 1.17201e-07 -2.59848e-28)
(-1.94939e-07 -7.94469e-08 1.67876e-26)
(-2.31944e-07 1.21103e-07 9.13727e-27)
(-2.23543e-07 -7.4951e-08 -1.4646e-26)
(-2.64954e-07 1.25495e-07 2.90664e-28)
(-2.54531e-07 -6.95068e-08 6.47244e-27)
(-3.00478e-07 1.30579e-07 -7.70238e-27)
(-2.87997e-07 -6.30696e-08 1.21634e-26)
(-3.38591e-07 1.3653e-07 6.58949e-27)
(-3.24067e-07 -5.55572e-08 -1.63068e-26)
(-3.79394e-07 1.43505e-07 -5.66169e-27)
(-3.62891e-07 -4.68569e-08 -4.67044e-27)
(-4.23011e-07 1.51649e-07 1.01195e-29)
(-4.04644e-07 -3.68334e-08 1.26523e-26)
(-4.69582e-07 1.61103e-07 -8.96161e-27)
(-4.49524e-07 -2.53345e-08 -1.09617e-26)
(-5.19264e-07 1.72008e-07 7.8459e-27)
(-4.97745e-07 -1.21974e-08 -3.758e-30)
(-5.72223e-07 1.84509e-07 -2.72721e-28)
(-5.49539e-07 2.7461e-09 5.6536e-27)
(-6.28635e-07 1.98752e-07 -5.78241e-27)
(-6.05155e-07 1.96652e-08 4.74242e-27)
(-6.88682e-07 2.14887e-07 2.38573e-28)
(-6.64852e-07 3.87234e-08 -8.31426e-27)
(-7.52551e-07 2.33062e-07 8.75344e-27)
(-7.31351e-07 6.08889e-08 3.4169e-27)
(-8.23015e-07 2.54192e-07 1.36223e-28)
(-8.02519e-07 8.55869e-08 4.24462e-29)
(-8.9765e-07 2.77729e-07 -3.99175e-27)
(-8.7364e-07 1.11057e-07 3.45523e-27)
(-9.71475e-07 3.01994e-07 3.84287e-27)
(-9.4468e-07 1.37105e-07 -3.42751e-27)
(-1.04448e-06 3.26807e-07 -3.62741e-27)
(-1.01561e-06 1.63542e-07 -2.94724e-28)
(-1.11668e-06 3.51994e-07 -3.98583e-27)
(-1.08639e-06 1.90191e-07 -6.6076e-27)
(-1.18805e-06 3.77388e-07 4.18163e-27)
(-1.15699e-06 2.16884e-07 3.68603e-27)
(-1.25862e-06 4.02829e-07 -3.83008e-27)
(-1.22739e-06 2.43464e-07 4.05045e-27)
(-1.32837e-06 4.28165e-07 7.53804e-27)
(-1.29755e-06 2.69789e-07 6.22672e-28)
(-1.39732e-06 4.53247e-07 -3.70002e-27)
(-1.36743e-06 2.95723e-07 1.85584e-27)
(-1.46545e-06 4.77937e-07 -4.02788e-27)
(-1.43701e-06 3.21147e-07 -1.66141e-27)
(-1.53277e-06 5.02097e-07 2.76121e-27)
(-1.50624e-06 3.45946e-07 6.42552e-28)
(-1.59926e-06 5.25595e-07 3.87169e-27)
(-1.57507e-06 3.70019e-07 -3.88825e-27)
(-1.66491e-06 5.48303e-07 -2.82952e-27)
(-1.64346e-06 3.9327e-07 -1.41324e-28)
(-1.72968e-06 5.70096e-07 5.92677e-28)
(-1.71135e-06 4.15611e-07 1.71967e-27)
(-1.79354e-06 5.90851e-07 4.36586e-27)
(-1.77867e-06 4.36958e-07 -2.17686e-27)
(-1.85645e-06 6.10453e-07 8.38482e-28)
(-1.84534e-06 4.57234e-07 -1.75891e-27)
(-1.91837e-06 6.28791e-07 -6.2148e-27)
(-1.9113e-06 4.76367e-07 -1.4868e-27)
(-1.97924e-06 6.45762e-07 8.92916e-29)
(-1.97645e-06 4.94286e-07 -9.53445e-29)
(-2.039e-06 6.61273e-07 -3.40866e-27)
(-2.0407e-06 5.10926e-07 4.41632e-28)
(-2.0976e-06 6.75245e-07 -3.7877e-27)
(-2.10397e-06 5.26226e-07 -3.37371e-27)
(-2.15499e-06 6.87609e-07 -6.16326e-27)
(-2.16616e-06 5.40129e-07 -2.17132e-28)
(-2.21111e-06 6.98311e-07 5.46552e-27)
(-2.2272e-06 5.52582e-07 -8.72034e-28)
(-2.26591e-06 7.07313e-07 6.19108e-27)
(-2.28699e-06 5.63537e-07 4.52677e-27)
(-2.31935e-06 7.14589e-07 -4.20471e-27)
(-2.34547e-06 5.72955e-07 4.15725e-27)
(-2.37139e-06 7.20128e-07 -1.08631e-26)
(-2.40258e-06 5.80802e-07 -6.42976e-28)
(-2.42201e-06 7.2393e-07 -2.28753e-27)
(-2.45825e-06 5.87054e-07 -3.25607e-27)
(-2.47118e-06 7.26006e-07 -1.2027e-28)
(-2.51245e-06 5.91694e-07 1.6242e-27)
(-2.51889e-06 7.26375e-07 -8.12184e-27)
(-2.56513e-06 5.94716e-07 -4.36777e-27)
(-2.56514e-06 7.25065e-07 -4.48402e-27)
(-2.61626e-06 5.96125e-07 -1.69151e-27)
(-2.60993e-06 7.22109e-07 -3.37569e-27)
(-2.66583e-06 5.95934e-07 5.40288e-28)
(-2.65326e-06 7.17546e-07 4.40703e-27)
(-2.71381e-06 5.94166e-07 -2.1804e-27)
(-2.69514e-06 7.11419e-07 -9.95506e-27)
(-2.7602e-06 5.90853e-07 -5.0804e-29)
(-2.7356e-06 7.03775e-07 -2.3288e-27)
(-2.80499e-06 5.86037e-07 3.91866e-27)
(-2.77463e-06 6.94665e-07 -3.14572e-27)
(-2.84817e-06 5.79766e-07 -2.48675e-27)
(-2.81227e-06 6.84142e-07 -6.10426e-27)
(-2.88974e-06 5.72095e-07 1.76589e-27)
(-2.84851e-06 6.72264e-07 -7.77484e-27)
(-2.92969e-06 5.63084e-07 1.21409e-27)
(-2.88338e-06 6.59089e-07 3.2235e-27)
(-2.96804e-06 5.528e-07 -1.03188e-27)
(-2.91689e-06 6.44681e-07 -8.69602e-27)
(-3.00476e-06 5.41311e-07 -1.76735e-27)
(-2.94904e-06 6.29102e-07 3.02108e-27)
(-3.03986e-06 5.2869e-07 9.94856e-28)
(-2.97984e-06 6.1242e-07 1.84055e-27)
(-3.07334e-06 5.15012e-07 -8.70354e-28)
(-3.0093e-06 5.94701e-07 5.80345e-27)
(-3.10519e-06 5.0035e-07 9.03469e-28)
(-3.03742e-06 5.76014e-07 -4.77887e-27)
(-3.13542e-06 4.84782e-07 4.87446e-27)
(-3.06418e-06 5.56429e-07 -4.58945e-27)
(-3.16401e-06 4.68382e-07 -2.25037e-27)
(-3.0896e-06 5.36014e-07 3.39754e-27)
(-3.19096e-06 4.51225e-07 1.01433e-27)
(-3.11366e-06 5.1484e-07 -2.42317e-27)
(-3.21627e-06 4.33383e-07 -5.13835e-28)
(-3.13635e-06 4.92973e-07 -1.62006e-27)
(-3.23994e-06 4.14928e-07 -7.14109e-28)
(-3.15767e-06 4.70483e-07 7.59064e-28)
(-3.26197e-06 3.95928e-07 -6.95516e-29)
(-3.17761e-06 4.47434e-07 -2.66133e-27)
(-3.28234e-06 3.7645e-07 -2.17018e-28)
(-3.19615e-06 4.23891e-07 -3.69892e-27)
(-3.30106e-06 3.56558e-07 -1.0182e-27)
(-3.21329e-06 3.99917e-07 1.21452e-27)
(-3.31813e-06 3.36314e-07 -7.57908e-30)
(-3.22901e-06 3.75574e-07 3.30186e-28)
(-3.33354e-06 3.15778e-07 -1.64584e-27)
(-3.2433e-06 3.50918e-07 8.9513e-28)
(-3.3473e-06 2.95005e-07 -7.16324e-29)
(-3.25614e-06 3.26007e-07 -1.9694e-28)
(-3.3594e-06 2.74047e-07 -9.9841e-28)
(-3.26752e-06 3.00891e-07 2.44551e-27)
(-3.36986e-06 2.52955e-07 1.69303e-28)
(-3.27743e-06 2.75619e-07 -1.259e-27)
(-3.37866e-06 2.3177e-07 -6.97457e-28)
(-3.28584e-06 2.50235e-07 4.987e-28)
(-3.38584e-06 2.1054e-07 6.6089e-28)
(-3.29276e-06 2.24769e-07 7.7084e-28)
(-3.39136e-06 1.89272e-07 2.38024e-28)
(-3.29815e-06 1.99279e-07 -6.4663e-28)
(-3.39539e-06 1.68021e-07 2.50232e-28)
(-3.30211e-06 1.73761e-07 -5.22411e-28)
(-3.39776e-06 1.4646e-07 -7.46855e-28)
(-3.38723e-06 1.35528e-07 -2.21504e-26)
(-3.36487e-06 1.35846e-07 3.2959e-26)
(-3.34156e-06 1.35896e-07 -5.57743e-29)
(-3.31729e-06 1.36152e-07 -1.19004e-30)
(-3.30448e-06 1.48575e-07 3.02111e-28)
)
;
    }
    frontAndBackPlanes
    {
        type            empty;
    }
}


// ************************************************************************* //
