/*--------------------------------*- C++ -*----------------------------------*\
| =========                 |                                                 |
| \\      /  F ield         | OpenFOAM Extend Project: Open source CFD        |
|  \\    /   O peration     | Version:  1.6-ext                               |
|   \\  /    A nd           | Web:      www.extend-project.de                 |
|    \\/     M anipulation  |                                                 |
\*---------------------------------------------------------------------------*/
FoamFile
{
    version     2.0;
    format      ascii;
    class       volVectorField;
    location    "0.4";
    object      DU_0;
}
// * * * * * * * * * * * * * * * * * * * * * * * * * * * * * * * * * * * * * //

dimensions      [0 1 0 0 0 0 0];

internalField   nonuniform List<vector> 
328
(
(-5.73254e-09 -1.15332e-08 0)
(-4.00848e-09 -2.57427e-09 0)
(-4.18426e-09 2.48009e-09 0)
(-6.58958e-09 1.26665e-08 0)
(-1.74498e-08 -2.95081e-08 0)
(-1.32432e-08 -7.2719e-09 0)
(-1.38565e-08 7.49148e-09 0)
(-2.0088e-08 3.25812e-08 0)
(-3.10429e-08 -4.2672e-08 0)
(-2.55981e-08 -1.14317e-08 0)
(-2.68371e-08 1.25136e-08 0)
(-3.57293e-08 4.76058e-08 0)
(-4.5877e-08 -5.17023e-08 0)
(-4.00863e-08 -1.46776e-08 0)
(-4.20396e-08 1.71894e-08 0)
(-5.27766e-08 5.86144e-08 0)
(-6.21571e-08 -5.75065e-08 0)
(-5.69144e-08 -1.68623e-08 0)
(-5.96727e-08 2.13998e-08 0)
(-7.1443e-08 6.67075e-08 0)
(-7.98221e-08 -6.07732e-08 0)
(-7.57625e-08 -1.79158e-08 0)
(-7.93852e-08 2.5136e-08 0)
(-9.16411e-08 7.27404e-08 0)
(-9.89798e-08 -6.20596e-08 0)
(-9.65932e-08 -1.78675e-08 0)
(-1.01134e-07 2.85077e-08 0)
(-1.13474e-07 7.74249e-08 0)
(-1.1971e-07 -6.17657e-08 0)
(-1.19289e-07 -1.6778e-08 0)
(-1.24792e-07 3.16783e-08 0)
(-1.37013e-07 8.13082e-08 0)
(-1.42131e-07 -6.01848e-08 0)
(-1.43824e-07 -1.47258e-08 0)
(-1.5033e-07 3.48482e-08 0)
(-1.62372e-07 8.48322e-08 0)
(-1.66359e-07 -5.75131e-08 0)
(-1.70191e-07 -1.17763e-08 0)
(-1.77738e-07 3.82241e-08 0)
(-1.89662e-07 8.83485e-08 0)
(-1.92521e-07 -5.3871e-08 0)
(-1.98432e-07 -7.97112e-09 0)
(-2.07056e-07 4.20079e-08 0)
(-2.19006e-07 9.2145e-08 0)
(-2.20748e-07 -4.9313e-08 0)
(-2.28625e-07 -3.31767e-09 0)
(-2.38359e-07 4.63868e-08 0)
(-2.50525e-07 9.64586e-08 0)
(-2.51172e-07 -4.38385e-08 0)
(-2.60882e-07 2.21265e-09 0)
(-2.71758e-07 5.15316e-08 0)
(-2.84345e-07 1.01489e-07 0)
(-2.83937e-07 -3.73999e-08 0)
(-2.95345e-07 8.68369e-09 0)
(-3.07391e-07 5.75984e-08 0)
(-3.20596e-07 1.07409e-07 0)
(-3.19193e-07 -2.99111e-08 0)
(-3.32179e-07 1.61904e-08 0)
(-3.45418e-07 6.47331e-08 0)
(-3.59413e-07 1.14372e-07 0)
(-3.57101e-07 -2.12555e-08 0)
(-3.71566e-07 2.48537e-08 0)
(-3.86016e-07 7.30764e-08 0)
(-4.00938e-07 1.22523e-07 0)
(-3.97837e-07 -1.12929e-08 0)
(-4.13701e-07 3.48148e-08 0)
(-4.29372e-07 8.2769e-08 0)
(-4.45323e-07 1.32004e-07 0)
(-4.41587e-07 1.33492e-10 0)
(-4.58791e-07 4.62299e-08 0)
(-4.75684e-07 9.39552e-08 0)
(-4.92727e-07 1.42956e-07 0)
(-4.88554e-07 1.31922e-08 0)
(-5.07048e-07 5.92653e-08 0)
(-5.25152e-07 1.06785e-07 0)
(-5.43318e-07 1.55529e-07 0)
(-5.38955e-07 2.80578e-08 0)
(-5.5869e-07 7.40932e-08 0)
(-5.77982e-07 1.21416e-07 0)
(-5.97272e-07 1.69876e-07 0)
(-5.93018e-07 4.49068e-08 0)
(-6.13944e-07 9.08873e-08 0)
(-6.34384e-07 1.38007e-07 0)
(-6.5477e-07 1.86154e-07 0)
(-6.50986e-07 6.39115e-08 0)
(-6.73039e-07 1.09818e-07 0)
(-6.94571e-07 1.56718e-07 0)
(-7.16e-07 2.04522e-07 0)
(-7.15483e-07 8.60477e-08 0)
(-7.38622e-07 1.31854e-07 0)
(-7.61205e-07 1.78504e-07 0)
(-7.83636e-07 2.25916e-07 0)
(-7.84432e-07 1.10758e-07 0)
(-8.08535e-07 1.5644e-07 0)
(-8.32048e-07 2.02811e-07 0)
(-8.55362e-07 2.49796e-07 0)
(-8.53257e-07 1.36286e-07 0)
(-8.78133e-07 1.8183e-07 0)
(-9.02387e-07 2.27913e-07 0)
(-9.26396e-07 2.74466e-07 0)
(-9.21929e-07 1.6244e-07 0)
(-9.47393e-07 2.07834e-07 0)
(-9.72205e-07 2.53623e-07 0)
(-9.9673e-07 2.99745e-07 0)
(-9.90424e-07 1.89034e-07 0)
(-1.01629e-06 2.3427e-07 0)
(-1.04149e-06 2.79762e-07 0)
(-1.06636e-06 3.25455e-07 0)
(-1.05871e-06 2.15889e-07 0)
(-1.08482e-06 2.60963e-07 0)
(-1.11022e-06 3.06157e-07 0)
(-1.13527e-06 3.51426e-07 0)
(-1.12678e-06 2.42836e-07 0)
(-1.15294e-06 2.87745e-07 0)
(-1.1784e-06 3.32643e-07 0)
(-1.20347e-06 3.77495e-07 0)
(-1.19459e-06 2.69718e-07 0)
(-1.22065e-06 3.14458e-07 0)
(-1.246e-06 3.59062e-07 0)
(-1.27094e-06 4.03505e-07 0)
(-1.26213e-06 2.96382e-07 0)
(-1.28794e-06 3.40951e-07 0)
(-1.31303e-06 3.85263e-07 0)
(-1.3377e-06 4.29304e-07 0)
(-1.32937e-06 3.22686e-07 0)
(-1.35477e-06 3.67079e-07 0)
(-1.37946e-06 4.11099e-07 0)
(-1.40372e-06 4.54743e-07 0)
(-1.39628e-06 3.48497e-07 0)
(-1.42113e-06 3.92705e-07 0)
(-1.44528e-06 4.36429e-07 0)
(-1.469e-06 4.79676e-07 0)
(-1.46283e-06 3.73686e-07 0)
(-1.48699e-06 4.17695e-07 0)
(-1.51047e-06 4.61115e-07 0)
(-1.53353e-06 5.03961e-07 0)
(-1.52898e-06 3.98132e-07 0)
(-1.55232e-06 4.41922e-07 0)
(-1.575e-06 4.85023e-07 0)
(-1.59727e-06 5.27458e-07 0)
(-1.59468e-06 4.21722e-07 0)
(-1.61707e-06 4.65263e-07 0)
(-1.63884e-06 5.08023e-07 0)
(-1.66021e-06 5.50028e-07 0)
(-1.65988e-06 4.44347e-07 0)
(-1.68121e-06 4.87602e-07 0)
(-1.70195e-06 5.2999e-07 0)
(-1.7223e-06 5.71539e-07 0)
(-1.72451e-06 4.65906e-07 0)
(-1.74469e-06 5.08829e-07 0)
(-1.76428e-06 5.50807e-07 0)
(-1.78351e-06 5.91865e-07 0)
(-1.78852e-06 4.86305e-07 0)
(-1.80743e-06 5.28841e-07 0)
(-1.82579e-06 5.70361e-07 0)
(-1.8438e-06 6.10887e-07 0)
(-1.85181e-06 5.05457e-07 0)
(-1.86937e-06 5.47543e-07 0)
(-1.88641e-06 5.8855e-07 0)
(-1.9031e-06 6.28494e-07 0)
(-1.91432e-06 5.23279e-07 0)
(-1.93045e-06 5.64848e-07 0)
(-1.94609e-06 6.05282e-07 0)
(-1.96137e-06 6.4459e-07 0)
(-1.97595e-06 5.39698e-07 0)
(-1.9906e-06 5.80676e-07 0)
(-2.00475e-06 6.20472e-07 0)
(-2.01855e-06 6.59087e-07 0)
(-2.03662e-06 5.54646e-07 0)
(-2.04972e-06 5.9496e-07 0)
(-2.06234e-06 6.34052e-07 0)
(-2.07459e-06 6.71913e-07 0)
(-2.09625e-06 5.68062e-07 0)
(-2.10775e-06 6.07638e-07 0)
(-2.11878e-06 6.45961e-07 0)
(-2.12942e-06 6.83012e-07 0)
(-2.15476e-06 5.79891e-07 0)
(-2.16463e-06 6.1866e-07 0)
(-2.17402e-06 6.56152e-07 0)
(-2.18301e-06 6.92339e-07 0)
(-2.21206e-06 5.90087e-07 0)
(-2.22028e-06 6.27985e-07 0)
(-2.22801e-06 6.64591e-07 0)
(-2.2353e-06 6.99866e-07 0)
(-2.2681e-06 5.98612e-07 0)
(-2.27464e-06 6.35584e-07 0)
(-2.28068e-06 6.71253e-07 0)
(-2.28625e-06 7.05575e-07 0)
(-2.32281e-06 6.05437e-07 0)
(-2.32766e-06 6.41435e-07 0)
(-2.33201e-06 6.76127e-07 0)
(-2.33584e-06 7.09463e-07 0)
(-2.37613e-06 6.10542e-07 0)
(-2.37931e-06 6.45527e-07 0)
(-2.38195e-06 6.79212e-07 0)
(-2.38404e-06 7.11538e-07 0)
(-2.42804e-06 6.13919e-07 0)
(-2.42954e-06 6.47863e-07 0)
(-2.43049e-06 6.80515e-07 0)
(-2.43084e-06 7.11816e-07 0)
(-2.47848e-06 6.1557e-07 0)
(-2.47834e-06 6.4845e-07 0)
(-2.47761e-06 6.80056e-07 0)
(-2.47623e-06 7.10324e-07 0)
(-2.52744e-06 6.15506e-07 0)
(-2.52567e-06 6.4731e-07 0)
(-2.52329e-06 6.77862e-07 0)
(-2.52021e-06 7.07097e-07 0)
(-2.5749e-06 6.13752e-07 0)
(-2.57153e-06 6.44472e-07 0)
(-2.56753e-06 6.73968e-07 0)
(-2.56279e-06 7.02176e-07 0)
(-2.62083e-06 6.10341e-07 0)
(-2.61592e-06 6.39976e-07 0)
(-2.61033e-06 6.68419e-07 0)
(-2.60397e-06 6.95608e-07 0)
(-2.66524e-06 6.05315e-07 0)
(-2.65882e-06 6.33867e-07 0)
(-2.6517e-06 6.61264e-07 0)
(-2.64376e-06 6.87447e-07 0)
(-2.70811e-06 5.98727e-07 0)
(-2.70024e-06 6.262e-07 0)
(-2.69164e-06 6.52561e-07 0)
(-2.68218e-06 6.77751e-07 0)
(-2.74944e-06 5.90636e-07 0)
(-2.74017e-06 6.17037e-07 0)
(-2.73015e-06 6.42371e-07 0)
(-2.71923e-06 6.66584e-07 0)
(-2.78923e-06 5.81108e-07 0)
(-2.77863e-06 6.06445e-07 0)
(-2.76724e-06 6.30763e-07 0)
(-2.75494e-06 6.54013e-07 0)
(-2.82748e-06 5.70215e-07 0)
(-2.8156e-06 5.94496e-07 0)
(-2.80293e-06 6.17808e-07 0)
(-2.78931e-06 6.40108e-07 0)
(-2.86417e-06 5.58034e-07 0)
(-2.8511e-06 5.81264e-07 0)
(-2.83721e-06 6.0358e-07 0)
(-2.82234e-06 6.24942e-07 0)
(-2.89933e-06 5.44643e-07 0)
(-2.88513e-06 5.6683e-07 0)
(-2.87009e-06 5.88157e-07 0)
(-2.85405e-06 6.0859e-07 0)
(-2.93293e-06 5.30124e-07 0)
(-2.91767e-06 5.51272e-07 0)
(-2.90157e-06 5.71617e-07 0)
(-2.88444e-06 5.91129e-07 0)
(-2.96498e-06 5.1456e-07 0)
(-2.94875e-06 5.34673e-07 0)
(-2.93164e-06 5.54041e-07 0)
(-2.91351e-06 5.72637e-07 0)
(-2.99547e-06 4.98033e-07 0)
(-2.97834e-06 5.17114e-07 0)
(-2.96032e-06 5.35508e-07 0)
(-2.94125e-06 5.53191e-07 0)
(-3.02441e-06 4.80626e-07 0)
(-3.00645e-06 4.98677e-07 0)
(-2.98759e-06 5.16099e-07 0)
(-2.96767e-06 5.3287e-07 0)
(-3.05179e-06 4.62422e-07 0)
(-3.03308e-06 4.79443e-07 0)
(-3.01345e-06 4.95892e-07 0)
(-2.99276e-06 5.1175e-07 0)
(-3.07761e-06 4.43498e-07 0)
(-3.05822e-06 4.59489e-07 0)
(-3.0379e-06 4.74965e-07 0)
(-3.0165e-06 4.89907e-07 0)
(-3.10186e-06 4.23933e-07 0)
(-3.08186e-06 4.38894e-07 0)
(-3.06092e-06 4.53394e-07 0)
(-3.0389e-06 4.67417e-07 0)
(-3.12455e-06 4.03802e-07 0)
(-3.104e-06 4.17731e-07 0)
(-3.08251e-06 4.31252e-07 0)
(-3.05994e-06 4.4435e-07 0)
(-3.14566e-06 3.83175e-07 0)
(-3.12464e-06 3.96071e-07 0)
(-3.10267e-06 4.08609e-07 0)
(-3.07961e-06 4.20776e-07 0)
(-3.1652e-06 3.62119e-07 0)
(-3.14377e-06 3.73981e-07 0)
(-3.12137e-06 3.85532e-07 0)
(-3.09789e-06 3.96761e-07 0)
(-3.18316e-06 3.407e-07 0)
(-3.16138e-06 3.51525e-07 0)
(-3.13862e-06 3.62084e-07 0)
(-3.11478e-06 3.72367e-07 0)
(-3.19954e-06 3.18976e-07 0)
(-3.17746e-06 3.28762e-07 0)
(-3.1544e-06 3.38324e-07 0)
(-3.13026e-06 3.47654e-07 0)
(-3.21435e-06 2.97002e-07 0)
(-3.19202e-06 3.05748e-07 0)
(-3.16871e-06 3.14308e-07 0)
(-3.14431e-06 3.22677e-07 0)
(-3.22757e-06 2.7483e-07 0)
(-3.20505e-06 2.82534e-07 0)
(-3.18153e-06 2.90087e-07 0)
(-3.15693e-06 2.97486e-07 0)
(-3.23921e-06 2.52507e-07 0)
(-3.21654e-06 2.59167e-07 0)
(-3.19286e-06 2.65709e-07 0)
(-3.1681e-06 2.72128e-07 0)
(-3.24928e-06 2.30075e-07 0)
(-3.22649e-06 2.35691e-07 0)
(-3.20268e-06 2.41214e-07 0)
(-3.17781e-06 2.46644e-07 0)
(-3.25777e-06 2.07573e-07 0)
(-3.23489e-06 2.12143e-07 0)
(-3.21099e-06 2.1664e-07 0)
(-3.18603e-06 2.21074e-07 0)
(-3.26469e-06 1.85036e-07 0)
(-3.24174e-06 1.88556e-07 0)
(-3.21779e-06 1.92019e-07 0)
(-3.19277e-06 1.95444e-07 0)
(-3.27002e-06 1.62476e-07 0)
(-3.24703e-06 1.64952e-07 0)
(-3.22303e-06 1.67382e-07 0)
(-3.198e-06 1.69795e-07 0)
(-3.27384e-06 1.3992e-07 0)
(-3.2508e-06 1.41349e-07 0)
(-3.22678e-06 1.4275e-07 0)
(-3.20176e-06 1.4414e-07 0)
(-3.27597e-06 1.17157e-07 0)
(-3.2529e-06 1.17702e-07 0)
(-3.22887e-06 1.18195e-07 0)
(-3.20386e-06 1.18709e-07 0)
)
;

boundaryField
{
    plateFix
    {
        type            fixedDisplacement;
        value           uniform (0 0 0);
    }
    plate
    {
        type            solidTraction;
        nonLinear       updatedLagrangian;
        traction        uniform (0 0 0);
        pressure        uniform 0;
        value           nonuniform List<vector> 
168
(
(-5.6233e-08 -3.03921e-08 -2.73491e-26)
(-6.22878e-08 3.43737e-08 1.39767e-26)
(-5.39267e-08 -4.90039e-08 3.18374e-26)
(-6.10182e-08 5.50366e-08 6.18615e-28)
(-5.53116e-08 -6.31147e-08 -1.47366e-26)
(-6.41826e-08 7.11262e-08 4.55039e-28)
(-6.10196e-08 -7.25642e-08 -5.38443e-28)
(-7.22465e-08 8.25757e-08 -4.48178e-28)
(-7.08118e-08 -7.87333e-08 -1.354e-26)
(-8.48709e-08 9.10274e-08 -1.45523e-26)
(-8.38984e-08 -8.22438e-08 1.24094e-26)
(-1.01141e-07 9.72652e-08 1.32851e-26)
(-9.98476e-08 -8.37465e-08 -1.11239e-26)
(-1.20554e-07 1.02111e-07 -1.05401e-28)
(-1.18318e-07 -8.36409e-08 -2.44306e-28)
(-1.42718e-07 1.06114e-07 1.25811e-26)
(-1.39133e-07 -8.22348e-08 9.92593e-27)
(-1.67424e-07 1.09736e-07 -4.48726e-28)
(-1.6219e-07 -7.97215e-08 3.91944e-28)
(-1.94551e-07 1.13325e-07 -9.80509e-27)
(-1.87464e-07 -7.62205e-08 -2.94302e-28)
(-2.24057e-07 1.17171e-07 8.92434e-27)
(-2.14973e-07 -7.17838e-08 -7.48381e-27)
(-2.55948e-07 1.21507e-07 -1.63884e-26)
(-2.44774e-07 -6.64103e-08 6.71184e-27)
(-2.90266e-07 1.26533e-07 7.48635e-27)
(-2.76959e-07 -6.00528e-08 -6.24643e-27)
(-3.27087e-07 1.32422e-07 2.46706e-28)
(-3.11646e-07 -5.26272e-08 5.73229e-27)
(-3.66509e-07 1.3933e-07 -2.12329e-28)
(-3.48982e-07 -4.4019e-08 9.57173e-27)
(-4.08651e-07 1.47402e-07 8.70495e-30)
(-3.89133e-07 -3.40903e-08 -1.28511e-26)
(-4.53651e-07 1.56783e-07 4.30679e-27)
(-4.32289e-07 -2.26859e-08 3.74616e-27)
(-5.01659e-07 1.67616e-07 -3.86526e-27)
(-4.78658e-07 -9.63874e-09 -2.06756e-30)
(-5.52837e-07 1.80052e-07 7.43077e-27)
(-5.28462e-07 5.22518e-09 5.52661e-27)
(-6.07356e-07 1.94244e-07 -3.24337e-28)
(-5.81943e-07 2.20823e-08 -9.9034e-27)
(-6.65391e-07 2.10349e-07 -5.10117e-27)
(-6.39352e-07 4.11048e-08 8.30743e-27)
(-7.27122e-07 2.28527e-07 -8.70971e-29)
(-7.03311e-07 6.32711e-08 2.66709e-28)
(-7.95227e-07 2.49706e-07 -7.66678e-27)
(-7.71774e-07 8.80226e-08 1.09285e-28)
(-8.67361e-07 2.73352e-07 7.71344e-27)
(-8.40209e-07 1.13601e-07 -7.27529e-27)
(-9.38711e-07 2.97787e-07 -7.44602e-29)
(-9.08587e-07 1.3981e-07 3.6331e-27)
(-1.00927e-06 3.22831e-07 -3.90805e-27)
(-9.76878e-07 1.66462e-07 1.4954e-28)
(-1.07903e-06 3.48308e-07 1.14416e-26)
(-1.04506e-06 1.93379e-07 3.18984e-27)
(-1.14801e-06 3.74051e-07 -1.22636e-26)
(-1.11309e-06 2.20391e-07 -1.78814e-28)
(-1.21619e-06 3.99896e-07 3.74018e-27)
(-1.18097e-06 2.47338e-07 -7.81027e-27)
(-1.28358e-06 4.25688e-07 -7.85767e-27)
(-1.24865e-06 2.74069e-07 1.24076e-27)
(-1.35018e-06 4.51273e-07 6.8119e-27)
(-1.3161e-06 3.00444e-07 1.28693e-27)
(-1.41599e-06 4.76501e-07 2.77602e-27)
(-1.38331e-06 3.2633e-07 -2.53715e-27)
(-1.48099e-06 5.01224e-07 -2.00886e-28)
(-1.45023e-06 3.51602e-07 1.2622e-27)
(-1.54518e-06 5.25298e-07 -5.05364e-27)
(-1.51682e-06 3.76143e-07 5.92976e-28)
(-1.60853e-06 5.48578e-07 1.42122e-27)
(-1.58303e-06 3.99842e-07 2.40954e-27)
(-1.67101e-06 5.70923e-07 -1.26276e-28)
(-1.6488e-06 4.22596e-07 -1.81433e-27)
(-1.7326e-06 5.92197e-07 -2.02578e-27)
(-1.71406e-06 4.4431e-07 6.19045e-28)
(-1.79326e-06 6.12268e-07 -4.65083e-29)
(-1.77874e-06 4.64892e-07 1.48774e-27)
(-1.85293e-06 6.31014e-07 4.46874e-28)
(-1.84275e-06 4.84259e-07 -4.69382e-28)
(-1.91158e-06 6.48322e-07 2.96009e-27)
(-1.90602e-06 5.02333e-07 3.19892e-29)
(-1.96914e-06 6.64091e-07 -2.59851e-27)
(-1.96844e-06 5.19042e-07 -1.32007e-27)
(-2.02558e-06 6.78233e-07 -1.40878e-27)
(-2.02993e-06 5.34318e-07 1.26662e-27)
(-2.08083e-06 6.90676e-07 -2.17968e-27)
(-2.09039e-06 5.48099e-07 -4.20809e-27)
(-2.13485e-06 7.01363e-07 -4.30058e-28)
(-2.14974e-06 5.6033e-07 -1.23466e-27)
(-2.18758e-06 7.10252e-07 4.21935e-27)
(-2.2079e-06 5.70961e-07 1.37669e-27)
(-2.239e-06 7.17316e-07 -3.23314e-27)
(-2.2648e-06 5.7995e-07 -3.31745e-27)
(-2.28906e-06 7.22545e-07 6.63221e-28)
(-2.32037e-06 5.87264e-07 -5.86045e-27)
(-2.33775e-06 7.25937e-07 -2.41516e-27)
(-2.37455e-06 5.92878e-07 2.26877e-27)
(-2.38505e-06 7.27504e-07 1.70704e-27)
(-2.4273e-06 5.96779e-07 2.02389e-28)
(-2.43094e-06 7.2727e-07 -5.68947e-30)
(-2.47857e-06 5.98965e-07 3.88922e-28)
(-2.47543e-06 7.25263e-07 7.55796e-29)
(-2.52835e-06 5.99444e-07 -2.00159e-27)
(-2.51853e-06 7.21521e-07 5.73396e-27)
(-2.5766e-06 5.98235e-07 -2.02027e-27)
(-2.56023e-06 7.16089e-07 -6.42354e-27)
(-2.62331e-06 5.95371e-07 2.99568e-27)
(-2.60056e-06 7.09016e-07 4.43862e-27)
(-2.66847e-06 5.90892e-07 -2.1921e-27)
(-2.63953e-06 7.00357e-07 2.19508e-27)
(-2.71206e-06 5.84849e-07 7.03632e-29)
(-2.67715e-06 6.90172e-07 1.10702e-26)
(-2.75409e-06 5.77299e-07 -1.01824e-27)
(-2.71345e-06 6.78524e-07 6.11882e-27)
(-2.79454e-06 5.6831e-07 8.86627e-28)
(-2.74844e-06 6.65479e-07 7.06815e-27)
(-2.83341e-06 5.57952e-07 2.78169e-27)
(-2.78212e-06 6.51107e-07 -6.00972e-27)
(-2.8707e-06 5.46302e-07 -2.74951e-27)
(-2.81451e-06 6.35481e-07 7.99061e-29)
(-2.9064e-06 5.3344e-07 3.67786e-27)
(-2.84562e-06 6.18674e-07 -4.47043e-30)
(-2.94052e-06 5.19447e-07 -2.98956e-27)
(-2.87545e-06 6.00761e-07 5.02561e-27)
(-2.97305e-06 5.04408e-07 -1.53647e-27)
(-2.90401e-06 5.8182e-07 -2.08162e-27)
(-3.00399e-06 4.88404e-07 -1.68343e-28)
(-2.93128e-06 5.61927e-07 -2.64811e-27)
(-3.03334e-06 4.7152e-07 9.11826e-28)
(-2.95727e-06 5.41159e-07 4.36022e-27)
(-3.06109e-06 4.53837e-07 1.86051e-29)
(-2.98197e-06 5.19592e-07 1.52458e-27)
(-3.08724e-06 4.35436e-07 1.65292e-30)
(-3.00537e-06 4.97301e-07 3.11514e-27)
(-3.11178e-06 4.16393e-07 5.00333e-29)
(-3.02746e-06 4.74359e-07 3.49131e-27)
(-3.13473e-06 3.96784e-07 -5.77278e-29)
(-3.04823e-06 4.50837e-07 2.51266e-27)
(-3.15606e-06 3.7668e-07 1.33616e-27)
(-3.06766e-06 4.26806e-07 -1.6693e-27)
(-3.1758e-06 3.56149e-07 -6.70801e-28)
(-3.08574e-06 4.02329e-07 2.92924e-27)
(-3.19392e-06 3.35254e-07 6.408e-28)
(-3.10246e-06 3.77469e-07 -3.14417e-28)
(-3.21044e-06 3.14054e-07 2.43698e-28)
(-3.11779e-06 3.52286e-07 -8.04114e-28)
(-3.22536e-06 2.92606e-07 -2.47164e-27)
(-3.13173e-06 3.26833e-07 -8.63085e-28)
(-3.23867e-06 2.7096e-07 1.81621e-27)
(-3.14426e-06 3.01162e-07 2.50794e-27)
(-3.25038e-06 2.49162e-07 1.12869e-28)
(-3.15536e-06 2.7532e-07 -1.0402e-27)
(-3.26049e-06 2.27257e-07 -1.41748e-28)
(-3.16502e-06 2.49347e-07 1.5739e-27)
(-3.269e-06 2.05279e-07 -6.78562e-28)
(-3.17321e-06 2.23283e-07 -1.13373e-30)
(-3.27594e-06 1.8327e-07 6.77097e-28)
(-3.17994e-06 1.97152e-07 3.32896e-29)
(-3.28128e-06 1.61229e-07 3.55767e-29)
(-3.18516e-06 1.71004e-07 -5.53154e-28)
(-3.28515e-06 1.39212e-07 3.1894e-28)
(-3.18898e-06 1.44825e-07 5.07099e-28)
(-3.28739e-06 1.16912e-07 2.50455e-28)
(-3.27651e-06 1.05651e-07 -8.18252e-30)
(-3.25345e-06 1.05908e-07 -4.57293e-29)
(-3.22942e-06 1.05922e-07 -1.05836e-26)
(-3.20439e-06 1.06123e-07 1.04362e-26)
(-3.19121e-06 1.18942e-07 -8.37923e-28)
)
;
    }
    frontAndBackPlanes
    {
        type            empty;
    }
}


// ************************************************************************* //
