/*--------------------------------*- C++ -*----------------------------------*\
| =========                 |                                                 |
| \\      /  F ield         | OpenFOAM Extend Project: Open source CFD        |
|  \\    /   O peration     | Version:  1.6-ext                               |
|   \\  /    A nd           | Web:      www.extend-project.de                 |
|    \\/     M anipulation  |                                                 |
\*---------------------------------------------------------------------------*/
FoamFile
{
    version     2.0;
    format      ascii;
    class       volVectorField;
    location    "0.4";
    object      DV;
}
// * * * * * * * * * * * * * * * * * * * * * * * * * * * * * * * * * * * * * //

dimensions      [0 1 -1 0 0 0 0];

internalField   nonuniform List<vector> 
328
(
(-1.21249e-07 -2.2319e-07 0)
(-8.50524e-08 -4.32845e-08 0)
(-8.64602e-08 5.68942e-08 0)
(-1.32334e-07 2.56952e-07 0)
(-3.69697e-07 -5.69804e-07 0)
(-2.79831e-07 -1.2349e-07 0)
(-2.85345e-07 1.68978e-07 0)
(-4.02729e-07 6.61531e-07 0)
(-6.57262e-07 -8.22602e-07 0)
(-5.37562e-07 -1.95672e-07 0)
(-5.49911e-07 2.78472e-07 0)
(-7.14652e-07 9.66463e-07 0)
(-9.71263e-07 -9.95809e-07 0)
(-8.38552e-07 -2.52752e-07 0)
(-8.58715e-07 3.77954e-07 0)
(-1.05367e-06 1.18868e-06 0)
(-1.31599e-06 -1.10823e-06 0)
(-1.18699e-06 -2.92182e-07 0)
(-1.21581e-06 4.64737e-07 0)
(-1.42394e-06 1.34973e-06 0)
(-1.69034e-06 -1.17417e-06 0)
(-1.57657e-06 -3.13013e-07 0)
(-1.61427e-06 5.38284e-07 0)
(-1.82378e-06 1.46632e-06 0)
(-2.09667e-06 -1.20519e-06 0)
(-2.0067e-06 -3.16269e-07 0)
(-2.05323e-06 6.00391e-07 0)
(-2.2552e-06 1.55224e-06 0)
(-2.53673e-06 -1.2097e-06 0)
(-2.47516e-06 -3.03637e-07 0)
(-2.53023e-06 6.53857e-07 0)
(-2.7196e-06 1.61788e-06 0)
(-3.0131e-06 -1.19404e-06 0)
(-2.9816e-06 -2.77208e-07 0)
(-3.04471e-06 7.0214e-07 0)
(-3.21914e-06 1.67147e-06 0)
(-3.52837e-06 -1.16272e-06 0)
(-3.52601e-06 -2.38924e-07 0)
(-3.59649e-06 7.48693e-07 0)
(-3.75597e-06 1.71926e-06 0)
(-4.08538e-06 -1.11898e-06 0)
(-4.10944e-06 -1.90428e-07 0)
(-4.18641e-06 7.96687e-07 0)
(-4.3323e-06 1.76606e-06 0)
(-4.68713e-06 -1.06498e-06 0)
(-4.73361e-06 -1.32945e-07 0)
(-4.81594e-06 8.48733e-07 0)
(-4.95033e-06 1.8154e-06 0)
(-5.33679e-06 -1.00222e-06 0)
(-5.40098e-06 -6.73652e-08 0)
(-5.48723e-06 9.0674e-07 0)
(-5.61221e-06 1.86967e-06 0)
(-6.03778e-06 -9.31768e-07 0)
(-6.11462e-06 5.59779e-09 0)
(-6.20296e-06 9.71806e-07 0)
(-6.32007e-06 1.93025e-06 0)
(-6.79384e-06 -8.54628e-07 0)
(-6.87808e-06 8.51398e-08 0)
(-6.96619e-06 1.04412e-06 0)
(-7.07607e-06 1.99745e-06 0)
(-7.60899e-06 -7.72098e-07 0)
(-7.69529e-06 1.70045e-07 0)
(-7.78031e-06 1.12285e-06 0)
(-7.88236e-06 2.07049e-06 0)
(-8.48762e-06 -6.86161e-07 0)
(-8.57048e-06 2.58312e-07 0)
(-8.64887e-06 1.20597e-06 0)
(-8.74122e-06 2.14737e-06 0)
(-9.43437e-06 -5.99882e-07 0)
(-9.50805e-06 3.46759e-07 0)
(-9.57558e-06 1.29003e-06 0)
(-9.65504e-06 2.22469e-06 0)
(-1.04541e-05 -5.17789e-07 0)
(-1.05125e-05 4.3066e-07 0)
(-1.05643e-05 1.36997e-06 0)
(-1.06264e-05 2.29739e-06 0)
(-1.15517e-05 -4.46149e-07 0)
(-1.15884e-05 5.03463e-07 0)
(-1.16188e-05 1.43884e-06 0)
(-1.16582e-05 2.35864e-06 0)
(-1.27319e-05 -3.93066e-07 0)
(-1.27403e-05 5.56701e-07 0)
(-1.27432e-05 1.48785e-06 0)
(-1.27537e-05 2.39972e-06 0)
(-1.39989e-05 -3.68294e-07 0)
(-1.39724e-05 5.802e-07 0)
(-1.39416e-05 1.50649e-06 0)
(-1.39167e-05 2.4102e-06 0)
(-1.54085e-05 -3.83403e-07 0)
(-1.5339e-05 5.61835e-07 0)
(-1.52669e-05 1.48215e-06 0)
(-1.51989e-05 2.37728e-06 0)
(-1.69118e-05 -4.54949e-07 0)
(-1.67936e-05 4.84508e-07 0)
(-1.66743e-05 1.39754e-06 0)
(-1.65573e-05 2.28383e-06 0)
(-1.84055e-05 -5.82158e-07 0)
(-1.82378e-05 3.49324e-07 0)
(-1.80701e-05 1.25412e-06 0)
(-1.79031e-05 2.1318e-06 0)
(-1.98863e-05 -7.63639e-07 0)
(-1.96697e-05 1.57852e-07 0)
(-1.9454e-05 1.05342e-06 0)
(-1.92373e-05 1.92249e-06 0)
(-2.13515e-05 -9.97469e-07 0)
(-2.10876e-05 -8.78412e-08 0)
(-2.08251e-05 7.97527e-07 0)
(-2.05602e-05 1.65789e-06 0)
(-2.27985e-05 -1.28176e-06 0)
(-2.24897e-05 -3.858e-07 0)
(-2.21831e-05 4.88433e-07 0)
(-2.18723e-05 1.34e-06 0)
(-2.42245e-05 -1.61459e-06 0)
(-2.38745e-05 -7.34097e-07 0)
(-2.35274e-05 1.28143e-07 0)
(-2.3174e-05 9.71005e-07 0)
(-2.56267e-05 -1.99333e-06 0)
(-2.52404e-05 -1.13012e-06 0)
(-2.48577e-05 -2.80633e-07 0)
(-2.44664e-05 5.53827e-07 0)
(-2.7002e-05 -2.41372e-06 0)
(-2.65858e-05 -1.56959e-06 0)
(-2.6174e-05 -7.33495e-07 0)
(-2.5751e-05 9.31047e-08 0)
(-2.83471e-05 -2.8691e-06 0)
(-2.79092e-05 -2.0457e-06 0)
(-2.74763e-05 -1.2235e-06 0)
(-2.70297e-05 -4.04045e-07 0)
(-2.96588e-05 -3.34996e-06 0)
(-2.92092e-05 -2.54868e-06 0)
(-2.87648e-05 -1.7407e-06 0)
(-2.83044e-05 -9.27625e-07 0)
(-3.09346e-05 -3.84407e-06 0)
(-3.04846e-05 -3.06587e-06 0)
(-3.00398e-05 -2.27228e-06 0)
(-2.9577e-05 -1.46489e-06 0)
(-3.21727e-05 -4.33706e-06 0)
(-3.17346e-05 -3.58241e-06 0)
(-3.13013e-05 -2.80323e-06 0)
(-3.08486e-05 -2.001e-06 0)
(-3.3372e-05 -4.81342e-06 0)
(-3.29588e-05 -4.08222e-06 0)
(-3.25493e-05 -3.31729e-06 0)
(-3.21197e-05 -2.51996e-06 0)
(-3.45329e-05 -5.25748e-06 0)
(-3.41569e-05 -4.54911e-06 0)
(-3.37835e-05 -3.79817e-06 0)
(-3.33898e-05 -3.00576e-06 0)
(-3.56561e-05 -5.65449e-06 0)
(-3.53293e-05 -4.9679e-06 0)
(-3.50034e-05 -4.23059e-06 0)
(-3.46577e-05 -3.44339e-06 0)
(-3.67435e-05 -5.9913e-06 0)
(-3.64762e-05 -5.32518e-06 0)
(-3.62083e-05 -4.60112e-06 0)
(-3.59215e-05 -3.81967e-06 0)
(-3.77968e-05 -6.25687e-06 0)
(-3.75982e-05 -5.60977e-06 0)
(-3.73973e-05 -4.89863e-06 0)
(-3.71788e-05 -4.12365e-06 0)
(-3.88181e-05 -6.44234e-06 0)
(-3.86956e-05 -5.81288e-06 0)
(-3.85693e-05 -5.11442e-06 0)
(-3.84269e-05 -4.34684e-06 0)
(-3.98094e-05 -6.54094e-06 0)
(-3.97687e-05 -5.92796e-06 0)
(-3.97233e-05 -5.2421e-06 0)
(-3.96632e-05 -4.48298e-06 0)
(-4.0772e-05 -6.5477e-06 0)
(-4.08177e-05 -5.95032e-06 0)
(-4.08577e-05 -5.27723e-06 0)
(-4.08847e-05 -4.52779e-06 0)
(-4.17069e-05 -6.45908e-06 0)
(-4.18422e-05 -5.87679e-06 0)
(-4.19712e-05 -5.21689e-06 0)
(-4.20888e-05 -4.47851e-06 0)
(-4.26149e-05 -6.27265e-06 0)
(-4.28419e-05 -5.70531e-06 0)
(-4.30622e-05 -5.05926e-06 0)
(-4.32726e-05 -4.33349e-06 0)
(-4.34962e-05 -5.98689e-06 0)
(-4.38161e-05 -5.43464e-06 0)
(-4.41289e-05 -4.80336e-06 0)
(-4.44334e-05 -4.09189e-06 0)
(-4.43507e-05 -5.60099e-06 0)
(-4.47638e-05 -5.0642e-06 0)
(-4.51695e-05 -4.44878e-06 0)
(-4.55686e-05 -3.75346e-06 0)
(-4.51784e-05 -5.1149e-06 0)
(-4.56842e-05 -4.59408e-06 0)
(-4.61823e-05 -3.99572e-06 0)
(-4.66754e-05 -3.31851e-06 0)
(-4.59793e-05 -4.52941e-06 0)
(-4.65763e-05 -4.02507e-06 0)
(-4.71654e-05 -3.44502e-06 0)
(-4.7751e-05 -2.7879e-06 0)
(-4.67534e-05 -3.84627e-06 0)
(-4.74393e-05 -3.35885e-06 0)
(-4.81169e-05 -2.79831e-06 0)
(-4.87928e-05 -2.16327e-06 0)
(-4.75012e-05 -3.06834e-06 0)
(-4.82726e-05 -2.59817e-06 0)
(-4.90353e-05 -2.05823e-06 0)
(-4.9798e-05 -1.44714e-06 0)
(-4.82233e-05 -2.19976e-06 0)
(-4.90757e-05 -1.74699e-06 0)
(-4.99192e-05 -1.22858e-06 0)
(-5.07642e-05 -6.43158e-07 0)
(-4.89205e-05 -1.24599e-06 0)
(-4.98485e-05 -8.10586e-07 0)
(-5.07673e-05 -3.14422e-07 0)
(-5.16891e-05 2.43852e-07 0)
(-4.95939e-05 -2.13772e-07 0)
(-5.05911e-05 2.04454e-07 0)
(-5.15788e-05 6.77876e-07 0)
(-5.25709e-05 1.20781e-06 0)
(-5.02447e-05 8.88936e-07 0)
(-5.13037e-05 1.29032e-06 0)
(-5.23531e-05 1.74074e-06 0)
(-5.3408e-05 2.24148e-06 0)
(-5.0874e-05 2.05318e-06 0)
(-5.19868e-05 2.43817e-06 0)
(-5.309e-05 2.86554e-06 0)
(-5.41996e-05 3.33657e-06 0)
(-5.14831e-05 3.26927e-06 0)
(-5.2641e-05 3.63836e-06 0)
(-5.37895e-05 4.04287e-06 0)
(-5.49452e-05 4.48402e-06 0)
(-5.2073e-05 4.52706e-06 0)
(-5.32671e-05 4.88081e-06 0)
(-5.44521e-05 5.2628e-06 0)
(-5.56449e-05 5.67422e-06 0)
(-5.26447e-05 5.81627e-06 0)
(-5.3866e-05 6.1552e-06 0)
(-5.50784e-05 6.51516e-06 0)
(-5.62991e-05 6.89731e-06 0)
(-5.31991e-05 7.1267e-06 0)
(-5.44383e-05 7.45133e-06 0)
(-5.56693e-05 7.78987e-06 0)
(-5.69088e-05 8.14343e-06 0)
(-5.37367e-05 8.44851e-06 0)
(-5.4985e-05 8.7593e-06 0)
(-5.62259e-05 9.07709e-06 0)
(-5.74753e-05 9.40294e-06 0)
(-5.42579e-05 9.77233e-06 0)
(-5.55069e-05 1.00697e-05 0)
(-5.67493e-05 1.03674e-05 0)
(-5.8e-05 1.06666e-05 0)
(-5.4763e-05 1.10893e-05 0)
(-5.60046e-05 1.13735e-05 0)
(-5.72406e-05 1.16519e-05 0)
(-5.84846e-05 1.19254e-05 0)
(-5.52521e-05 1.23913e-05 0)
(-5.64789e-05 1.26625e-05 0)
(-5.77011e-05 1.29222e-05 0)
(-5.8931e-05 1.31714e-05 0)
(-5.5725e-05 1.36708e-05 0)
(-5.69302e-05 1.3929e-05 0)
(-5.81319e-05 1.41706e-05 0)
(-5.93409e-05 1.43966e-05 0)
(-5.61813e-05 1.49208e-05 0)
(-5.7359e-05 1.5166e-05 0)
(-5.85343e-05 1.53901e-05 0)
(-5.97164e-05 1.55942e-05 0)
(-5.66204e-05 1.61353e-05 0)
(-5.77655e-05 1.63672e-05 0)
(-5.89094e-05 1.65744e-05 0)
(-6.00594e-05 1.67578e-05 0)
(-5.70415e-05 1.73092e-05 0)
(-5.81498e-05 1.75274e-05 0)
(-5.92584e-05 1.77181e-05 0)
(-6.03723e-05 1.78822e-05 0)
(-5.74434e-05 1.84384e-05 0)
(-5.8512e-05 1.86425e-05 0)
(-5.95824e-05 1.88171e-05 0)
(-6.06573e-05 1.89631e-05 0)
(-5.78249e-05 1.95202e-05 0)
(-5.88521e-05 1.97096e-05 0)
(-5.98826e-05 1.98685e-05 0)
(-6.09168e-05 1.9998e-05 0)
(-5.81844e-05 2.05537e-05 0)
(-5.91698e-05 2.07278e-05 0)
(-6.01602e-05 2.08714e-05 0)
(-6.11533e-05 2.09856e-05 0)
(-5.85206e-05 2.15394e-05 0)
(-5.94652e-05 2.16976e-05 0)
(-6.04162e-05 2.18262e-05 0)
(-6.13693e-05 2.19264e-05 0)
(-5.88321e-05 2.24796e-05 0)
(-5.9738e-05 2.26214e-05 0)
(-6.06517e-05 2.27354e-05 0)
(-6.1567e-05 2.28229e-05 0)
(-5.9118e-05 2.33781e-05 0)
(-5.99884e-05 2.35032e-05 0)
(-6.08676e-05 2.36029e-05 0)
(-6.17483e-05 2.36785e-05 0)
(-5.93774e-05 2.42398e-05 0)
(-6.02162e-05 2.43479e-05 0)
(-6.10648e-05 2.44336e-05 0)
(-6.19147e-05 2.44981e-05 0)
(-5.961e-05 2.50702e-05 0)
(-6.04215e-05 2.51612e-05 0)
(-6.12436e-05 2.52328e-05 0)
(-6.20673e-05 2.52868e-05 0)
(-5.98155e-05 2.58751e-05 0)
(-6.06043e-05 2.59488e-05 0)
(-6.14045e-05 2.60062e-05 0)
(-6.22069e-05 2.605e-05 0)
(-5.9994e-05 2.66604e-05 0)
(-6.07644e-05 2.67167e-05 0)
(-6.15474e-05 2.67592e-05 0)
(-6.23341e-05 2.67927e-05 0)
(-6.01453e-05 2.74325e-05 0)
(-6.09008e-05 2.74712e-05 0)
(-6.16712e-05 2.74976e-05 0)
(-6.24485e-05 2.75204e-05 0)
(-6.02711e-05 2.81977e-05 0)
(-6.10133e-05 2.82189e-05 0)
(-6.17756e-05 2.82284e-05 0)
(-6.25512e-05 2.82397e-05 0)
(-6.03707e-05 2.89582e-05 0)
(-6.10992e-05 2.89649e-05 0)
(-6.18569e-05 2.89616e-05 0)
(-6.26396e-05 2.89632e-05 0)
(-6.04535e-05 2.9699e-05 0)
(-6.11681e-05 2.97091e-05 0)
(-6.19242e-05 2.97117e-05 0)
(-6.27194e-05 2.97193e-05 0)
)
;

boundaryField
{
    plateFix
    {
        type            calculated;
        value           uniform (0 0 0);
    }
    plate
    {
        type            calculated;
        value           nonuniform List<vector> 
168
(
(-1.10016e-06 -5.96889e-07 7.5539e-23)
(-1.26736e-06 6.84364e-07 -7.68378e-23)
(-1.07344e-06 -9.57459e-07 -9.53053e-23)
(-1.23792e-06 1.10291e-06 5.06351e-24)
(-1.12311e-06 -1.23035e-06 8.16466e-23)
(-1.29442e-06 1.42798e-06 2.21031e-23)
(-1.26192e-06 -1.41287e-06 6.25649e-25)
(-1.44736e-06 1.65805e-06 -1.99732e-23)
(-1.48481e-06 -1.5334e-06 7.33636e-24)
(-1.69043e-06 1.82533e-06 3.64578e-23)
(-1.77559e-06 -1.60494e-06 1.67058e-25)
(-2.0055e-06 1.9452e-06 -3.34844e-23)
(-2.12555e-06 -1.64095e-06 1.10645e-23)
(-2.38247e-06 2.0336e-06 -1.92324e-23)
(-2.52795e-06 -1.64987e-06 -1.65602e-23)
(-2.81339e-06 2.10098e-06 -4.27646e-23)
(-2.9795e-06 -1.63834e-06 -8.33348e-26)
(-3.29391e-06 2.15588e-06 2.77313e-23)
(-3.47859e-06 -1.61086e-06 -2.83275e-23)
(-3.82136e-06 2.20452e-06 2.34678e-23)
(-4.02519e-06 -1.57066e-06 2.53554e-23)
(-4.39455e-06 2.25166e-06 -8.06751e-24)
(-4.62033e-06 -1.51992e-06 -2.79984e-24)
(-5.01311e-06 2.30073e-06 4.092e-23)
(-5.266e-06 -1.46013e-06 -7.06005e-24)
(-5.67731e-06 2.3541e-06 -2.97842e-23)
(-5.96497e-06 -1.39242e-06 2.7781e-23)
(-6.38786e-06 2.4131e-06 9.27458e-24)
(-6.72075e-06 -1.31783e-06 -2.79164e-23)
(-7.14577e-06 2.47807e-06 -7.95939e-24)
(-7.53753e-06 -1.2377e-06 -3.36651e-23)
(-7.95232e-06 2.54828e-06 -2.30001e-24)
(-8.42006e-06 -1.15402e-06 4.52314e-23)
(-8.809e-06 2.62177e-06 -1.99378e-23)
(-9.37352e-06 -1.06982e-06 -2.22954e-23)
(-9.71752e-06 2.69522e-06 1.94226e-23)
(-1.04033e-05 -9.89532e-07 3.99953e-25)
(-1.06799e-05 2.7637e-06 -1.84677e-23)
(-1.15148e-05 -9.19278e-07 -5.68007e-24)
(-1.16986e-05 2.82048e-06 -2.56885e-24)
(-1.27128e-05 -8.66939e-07 3.14903e-23)
(-1.27769e-05 2.85697e-06 8.19134e-24)
(-1.40016e-05 -8.42033e-07 -3.08904e-23)
(-1.39186e-05 2.86288e-06 1.33674e-23)
(-1.54373e-05 -8.55834e-07 2.90252e-24)
(-1.51749e-05 2.82539e-06 1.77463e-23)
(-1.69693e-05 -9.24582e-07 1.22184e-24)
(-1.6505e-05 2.72741e-06 -2.33598e-23)
(-1.84913e-05 -1.04773e-06 2.16103e-23)
(-1.78226e-05 2.57111e-06 5.65969e-24)
(-1.99996e-05 -1.22404e-06 -1.40294e-23)
(-1.91293e-05 2.35761e-06 2.2187e-24)
(-2.1491e-05 -1.4517e-06 -1.02534e-24)
(-2.04256e-05 2.08881e-06 -3.07559e-23)
(-2.2963e-05 -1.72887e-06 -1.62463e-23)
(-2.17118e-05 1.76673e-06 3.50932e-23)
(-2.44127e-05 -2.05359e-06 4.60947e-24)
(-2.29888e-05 1.39366e-06 -1.37602e-23)
(-2.58367e-05 -2.42314e-06 2.394e-23)
(-2.4258e-05 9.72706e-07 2.78883e-23)
(-2.72308e-05 -2.83326e-06 -9.15538e-25)
(-2.55222e-05 5.08677e-07 -2.01606e-23)
(-2.85904e-05 -3.27731e-06 1.22246e-25)
(-2.67844e-05 8.80281e-09 -1.24633e-23)
(-2.99111e-05 -3.74594e-06 2.86183e-24)
(-2.80483e-05 -5.16898e-07 4.78213e-24)
(-3.1189e-05 -4.22718e-06 -9.00345e-25)
(-2.93167e-05 -1.05576e-06 1.55824e-23)
(-3.24216e-05 -4.70701e-06 -6.14049e-24)
(-3.05917e-05 -1.5931e-06 -8.34524e-24)
(-3.36077e-05 -5.17026e-06 -7.31845e-24)
(-3.18741e-05 -2.11314e-06 1.2074e-24)
(-3.47478e-05 -5.60163e-06 6.93861e-24)
(-3.31633e-05 -2.60008e-06 1.0499e-23)
(-3.58435e-05 -5.98664e-06 -4.42704e-24)
(-3.44575e-05 -3.03913e-06 2.33492e-24)
(-3.68975e-05 -6.31233e-06 -5.37627e-24)
(-3.57539e-05 -3.41726e-06 -1.021e-23)
(-3.79127e-05 -6.56771e-06 -1.36892e-24)
(-3.70489e-05 -3.72365e-06 -5.42606e-24)
(-3.88925e-05 -6.7439e-06 3.78827e-26)
(-3.83389e-05 -3.94989e-06 -3.2545e-25)
(-3.98396e-05 -6.83401e-06 4.29445e-24)
(-3.96199e-05 -4.08979e-06 -1.71619e-24)
(-4.07563e-05 -6.83286e-06 -8.43553e-24)
(-4.08884e-05 -4.13911e-06 -2.31891e-24)
(-4.16443e-05 -6.7367e-06 8.03005e-24)
(-4.21409e-05 -4.09516e-06 1.32646e-23)
(-4.25046e-05 -6.54292e-06 3.13307e-24)
(-4.3374e-05 -3.95635e-06 -3.5128e-24)
(-4.33378e-05 -6.24979e-06 1.34734e-24)
(-4.45848e-05 -3.72191e-06 1.20759e-24)
(-4.41442e-05 -5.85641e-06 1.30977e-23)
(-4.577e-05 -3.39166e-06 -1.10254e-23)
(-4.49241e-05 -5.36267e-06 1.09442e-23)
(-4.69267e-05 -2.96595e-06 2.62127e-24)
(-4.56777e-05 -4.76934e-06 -8.42533e-24)
(-4.80516e-05 -2.44569e-06 -3.5384e-24)
(-4.64056e-05 -4.07823e-06 7.87119e-25)
(-4.91414e-05 -1.83252e-06 -1.54792e-23)
(-4.71088e-05 -3.29227e-06 -7.39399e-24)
(-5.0193e-05 -1.12892e-06 -8.51931e-24)
(-4.77884e-05 -2.41569e-06 1.12806e-24)
(-5.12033e-05 -3.38449e-07 -2.08046e-23)
(-4.84459e-05 -1.45404e-06 5.63887e-24)
(-5.21694e-05 5.34185e-07 1.8653e-23)
(-4.90829e-05 -4.14151e-07 -1.22023e-23)
(-5.30887e-05 1.48306e-06 -2.37363e-23)
(-4.97013e-05 6.95976e-07 7.83795e-24)
(-5.39593e-05 2.50111e-06 -7.46403e-24)
(-5.03027e-05 1.86735e-06 4.21811e-24)
(-5.47797e-05 3.58025e-06 -3.01782e-23)
(-5.08885e-05 3.09027e-06 -4.59394e-24)
(-5.55492e-05 4.71162e-06 -2.25664e-23)
(-5.14601e-05 4.3546e-06 2.86783e-24)
(-5.62678e-05 5.88579e-06 -2.42232e-23)
(-5.20184e-05 5.65008e-06 -4.68872e-24)
(-5.69358e-05 7.09308e-06 2.0302e-23)
(-5.25643e-05 6.96656e-06 3.90508e-24)
(-5.75544e-05 8.32378e-06 -1.61172e-23)
(-5.30982e-05 8.29422e-06 -1.08458e-23)
(-5.81249e-05 9.56834e-06 2.19073e-24)
(-5.36202e-05 9.62375e-06 7.11605e-24)
(-5.86492e-05 1.08176e-05 -4.45703e-24)
(-5.41304e-05 1.09464e-05 1.34026e-24)
(-5.91291e-05 1.20627e-05 1.34923e-23)
(-5.46285e-05 1.2254e-05 1.97419e-24)
(-5.95667e-05 1.32955e-05 -1.87025e-24)
(-5.51141e-05 1.35391e-05 4.53574e-24)
(-5.99643e-05 1.45083e-05 -1.38036e-23)
(-5.55863e-05 1.4795e-05 -2.9917e-24)
(-6.03242e-05 1.56942e-05 1.10268e-24)
(-5.60443e-05 1.60155e-05 2.59514e-24)
(-6.06488e-05 1.68469e-05 -9.87154e-24)
(-5.64866e-05 1.71957e-05 2.71735e-25)
(-6.09409e-05 1.79611e-05 -8.06204e-24)
(-5.69114e-05 1.83317e-05 -2.88581e-24)
(-6.12035e-05 1.90328e-05 -3.79738e-24)
(-5.73166e-05 1.94207e-05 -2.43347e-24)
(-6.14397e-05 2.00592e-05 1.47369e-24)
(-5.77001e-05 2.04618e-05 1.14164e-24)
(-6.16528e-05 2.10392e-05 -1.04964e-23)
(-5.80596e-05 2.14555e-05 -3.33371e-24)
(-6.18462e-05 2.19732e-05 2.79438e-24)
(-5.83929e-05 2.24042e-05 -8.2108e-25)
(-6.20227e-05 2.28635e-05 2.98085e-24)
(-5.86984e-05 2.33115e-05 2.73332e-24)
(-6.21849e-05 2.37137e-05 4.34317e-24)
(-5.89749e-05 2.41822e-05 -4.21406e-24)
(-6.23349e-05 2.45282e-05 -5.60351e-24)
(-5.92218e-05 2.50217e-05 -2.42259e-24)
(-6.24737e-05 2.53121e-05 5.38798e-24)
(-5.94386e-05 2.58357e-05 8.0617e-25)
(-6.26022e-05 2.60707e-05 -6.11582e-24)
(-5.96255e-05 2.66302e-05 -1.87849e-25)
(-6.27209e-05 2.6809e-05 4.76781e-25)
(-5.9782e-05 2.74113e-05 -4.07753e-25)
(-6.283e-05 2.75322e-05 1.59996e-24)
(-5.99112e-05 2.81852e-05 4.41402e-25)
(-6.29325e-05 2.8247e-05 -2.8976e-25)
(-6.00174e-05 2.89535e-05 -4.16585e-25)
(-6.30307e-05 2.89661e-05 -1.47209e-24)
(-6.01266e-05 2.97004e-05 -1.49742e-24)
(-6.04864e-05 3.00302e-05 -2.81876e-23)
(-6.11995e-05 3.00764e-05 4.95484e-23)
(-6.1955e-05 3.01026e-05 2.60361e-23)
(-6.27512e-05 3.01438e-05 -2.56847e-23)
(-6.3144e-05 2.97178e-05 2.50647e-24)
)
;
    }
    frontAndBackPlanes
    {
        type            empty;
    }
}


// ************************************************************************* //
