/*--------------------------------*- C++ -*----------------------------------*\
| =========                 |                                                 |
| \\      /  F ield         | OpenFOAM Extend Project: Open source CFD        |
|  \\    /   O peration     | Version:  1.6-ext                               |
|   \\  /    A nd           | Web:      www.extend-project.de                 |
|    \\/     M anipulation  |                                                 |
\*---------------------------------------------------------------------------*/
FoamFile
{
    version     2.0;
    format      ascii;
    class       volVectorField;
    location    "0.4";
    object      DV_0;
}
// * * * * * * * * * * * * * * * * * * * * * * * * * * * * * * * * * * * * * //

dimensions      [0 1 -1 0 0 0 0];

internalField   nonuniform List<vector> 
328
(
(-3.36934e-07 -6.72948e-07 0)
(-2.26528e-07 -1.44107e-07 0)
(-2.29284e-07 1.38041e-07 0)
(-3.49781e-07 6.78578e-07 0)
(-1.02602e-06 -1.72485e-06 0)
(-7.49476e-07 -4.16447e-07 0)
(-7.58624e-07 4.07682e-07 0)
(-1.06555e-06 1.74245e-06 0)
(-1.82556e-06 -2.50302e-06 0)
(-1.4508e-06 -6.68622e-07 0)
(-1.46815e-06 6.68024e-07 0)
(-1.89457e-06 2.53759e-06 0)
(-2.69782e-06 -3.04968e-06 0)
(-2.27301e-06 -8.79725e-07 0)
(-2.29949e-06 8.99031e-07 0)
(-2.79799e-06 3.10868e-06 0)
(-3.65462e-06 -3.42e-06 0)
(-3.22769e-06 -1.04187e-06 0)
(-3.26415e-06 1.09371e-06 0)
(-3.78736e-06 3.51302e-06 0)
(-4.69215e-06 -3.65631e-06 0)
(-4.29627e-06 -1.15232e-06 0)
(-4.34318e-06 1.25041e-06 0)
(-4.85823e-06 3.79472e-06 0)
(-5.81658e-06 -3.79325e-06 0)
(-5.4766e-06 -1.21442e-06 0)
(-5.53419e-06 1.37356e-06 0)
(-6.01621e-06 3.99009e-06 0)
(-7.03248e-06 -3.85653e-06 0)
(-6.76194e-06 -1.23387e-06 0)
(-6.83017e-06 1.47e-06 0)
(-7.26515e-06 4.1263e-06 0)
(-8.34667e-06 -3.86598e-06 0)
(-8.15089e-06 -1.21792e-06 0)
(-8.22944e-06 1.54803e-06 0)
(-8.61108e-06 4.22453e-06 0)
(-9.76596e-06 -3.83636e-06 0)
(-9.64302e-06 -1.17373e-06 0)
(-9.73123e-06 1.6157e-06 0)
(-1.00599e-05 4.30057e-06 0)
(-1.12977e-05 -3.77867e-06 0)
(-1.12408e-05 -1.1078e-06 0)
(-1.13377e-05 1.68012e-06 0)
(-1.1618e-05 4.36616e-06 0)
(-1.29495e-05 -3.70093e-06 0)
(-1.29486e-05 -1.0255e-06 0)
(-1.30527e-05 1.74675e-06 0)
(-1.32915e-05 4.42951e-06 0)
(-1.47293e-05 -3.60892e-06 0)
(-1.47727e-05 -9.31076e-07 0)
(-1.48822e-05 1.8193e-06 0)
(-1.50871e-05 4.49589e-06 0)
(-1.66451e-05 -3.50679e-06 0)
(-1.6721e-05 -8.27858e-07 0)
(-1.68336e-05 1.89955e-06 0)
(-1.70113e-05 4.56803e-06 0)
(-1.87056e-05 -3.39775e-06 0)
(-1.88027e-05 -7.18655e-07 0)
(-1.89154e-05 1.98749e-06 0)
(-1.90709e-05 4.6464e-06 0)
(-2.09201e-05 -3.28467e-06 0)
(-2.10279e-05 -6.06237e-07 0)
(-2.11372e-05 2.08142e-06 0)
(-2.12733e-05 4.72952e-06 0)
(-2.32981e-05 -3.17064e-06 0)
(-2.34071e-05 -4.93814e-07 0)
(-2.35088e-05 2.17799e-06 0)
(-2.36263e-05 4.81416e-06 0)
(-2.58498e-05 -3.05946e-06 0)
(-2.59513e-05 -3.8545e-07 0)
(-2.60408e-05 2.27242e-06 0)
(-2.61381e-05 4.89549e-06 0)
(-2.85854e-05 -2.95591e-06 0)
(-2.86718e-05 -2.86308e-07 0)
(-2.87438e-05 2.35851e-06 0)
(-2.88176e-05 4.96725e-06 0)
(-3.15157e-05 -2.86587e-06 0)
(-3.15797e-05 -2.027e-07 0)
(-3.16283e-05 2.42894e-06 0)
(-3.16743e-05 5.022e-06 0)
(-3.46512e-05 -2.79616e-06 0)
(-3.46859e-05 -1.41948e-07 0)
(-3.47053e-05 2.47547e-06 0)
(-3.47183e-05 5.05134e-06 0)
(-3.80021e-05 -2.75442e-06 0)
(-3.80012e-05 -1.12151e-07 0)
(-3.79854e-05 2.48923e-06 0)
(-3.79597e-05 5.04612e-06 0)
(-4.17151e-05 -2.74883e-06 0)
(-4.16711e-05 -1.22549e-07 0)
(-4.16124e-05 2.45962e-06 0)
(-4.15407e-05 4.99469e-06 0)
(-4.56629e-05 -2.79425e-06 0)
(-4.55696e-05 -1.8819e-07 0)
(-4.54618e-05 2.37147e-06 0)
(-4.53383e-05 4.88202e-06 0)
(-4.95792e-05 -2.89236e-06 0)
(-4.94348e-05 -3.09515e-07 0)
(-4.92758e-05 2.22563e-06 0)
(-4.90985e-05 4.71041e-06 0)
(-5.34602e-05 -3.04522e-06 0)
(-5.32634e-05 -4.88593e-07 0)
(-5.30521e-05 2.02002e-06 0)
(-5.28198e-05 4.4779e-06 0)
(-5.73012e-05 -3.25537e-06 0)
(-5.7052e-05 -7.28085e-07 0)
(-5.67886e-05 1.75202e-06 0)
(-5.6501e-05 4.18213e-06 0)
(-6.10976e-05 -3.52469e-06 0)
(-6.07974e-05 -1.03004e-06 0)
(-6.04835e-05 1.41967e-06 0)
(-6.01418e-05 3.82147e-06 0)
(-6.48437e-05 -3.85301e-06 0)
(-6.4496e-05 -1.39437e-06 0)
(-6.41352e-05 1.02314e-06 0)
(-6.37428e-05 3.39641e-06 0)
(-6.85337e-05 -4.23688e-06 0)
(-6.81444e-05 -1.81762e-06 0)
(-6.77425e-05 5.66018e-07 0)
(-6.73051e-05 2.9108e-06 0)
(-7.2162e-05 -4.669e-06 0)
(-7.17394e-05 -2.29225e-06 0)
(-7.13044e-05 5.59847e-08 0)
(-7.08302e-05 2.37239e-06 0)
(-7.57232e-05 -5.13835e-06 0)
(-7.52779e-05 -2.80681e-06 0)
(-7.48198e-05 -4.95318e-07 0)
(-7.43192e-05 1.7928e-06 0)
(-7.92132e-05 -5.6309e-06 0)
(-7.87573e-05 -3.34668e-06 0)
(-7.82878e-05 -1.07307e-06 0)
(-7.7773e-05 1.18667e-06 0)
(-8.26288e-05 -6.13075e-06 0)
(-8.21755e-05 -3.89528e-06 0)
(-8.17071e-05 -1.66047e-06 0)
(-8.11916e-05 5.70574e-07 0)
(-8.5968e-05 -6.62137e-06 0)
(-8.55309e-05 -4.43541e-06 0)
(-8.50766e-05 -2.24008e-06 0)
(-8.45739e-05 -3.82712e-08 0)
(-8.92301e-05 -7.0867e-06 0)
(-8.88222e-05 -4.95041e-06 0)
(-8.83949e-05 -2.79503e-06 0)
(-8.79185e-05 -6.23179e-07 0)
(-9.24152e-05 -7.51199e-06 0)
(-9.20487e-05 -5.42501e-06 0)
(-9.16605e-05 -3.30987e-06 0)
(-9.12231e-05 -1.16883e-06 0)
(-9.55239e-05 -7.88421e-06 0)
(-9.521e-05 -5.84586e-06 0)
(-9.4872e-05 -3.77111e-06 0)
(-9.44852e-05 -1.66179e-06 0)
(-9.85573e-05 -8.19218e-06 0)
(-9.83057e-05 -6.20161e-06 0)
(-9.80279e-05 -4.16729e-06 0)
(-9.7702e-05 -2.09066e-06 0)
(-0.000101516 -8.42647e-06 0)
(-0.000101336 -6.4828e-06 0)
(-0.000101127 -4.48897e-06 0)
(-0.000100871 -2.44599e-06 0)
(-0.000104402 -8.5791e-06 0)
(-0.000104299 -6.68155e-06 0)
(-0.000104167 -4.72833e-06 0)
(-0.000103988 -2.72007e-06 0)
(-0.000107215 -8.64331e-06 0)
(-0.000107197 -6.7913e-06 0)
(-0.000107147 -4.87894e-06 0)
(-0.000107053 -2.90657e-06 0)
(-0.000109956 -8.6133e-06 0)
(-0.000110027 -6.80648e-06 0)
(-0.000110065 -4.93548e-06 0)
(-0.00011006 -3.00034e-06 0)
(-0.000112626 -8.48413e-06 0)
(-0.00011279 -6.72243e-06 0)
(-0.00011292 -4.8935e-06 0)
(-0.000113009 -2.9972e-06 0)
(-0.000115223 -8.25172e-06 0)
(-0.000115483 -6.53531e-06 0)
(-0.000115709 -4.74944e-06 0)
(-0.000115894 -2.89383e-06 0)
(-0.000117749 -7.91292e-06 0)
(-0.000118107 -6.24219e-06 0)
(-0.00011843 -4.50062e-06 0)
(-0.000118714 -2.68782e-06 0)
(-0.000120202 -7.46568e-06 0)
(-0.00012066 -5.84118e-06 0)
(-0.00012108 -4.14532e-06 0)
(-0.000121465 -2.37769e-06 0)
(-0.000122584 -6.90926e-06 0)
(-0.00012314 -5.3316e-06 0)
(-0.000123658 -3.683e-06 0)
(-0.000124142 -1.96305e-06 0)
(-0.000124893 -6.24431e-06 0)
(-0.000125547 -4.71412e-06 0)
(-0.000126161 -3.11439e-06 0)
(-0.000126743 -1.44471e-06 0)
(-0.00012713 -5.4731e-06 0)
(-0.000127878 -3.99095e-06 0)
(-0.000128586 -2.44165e-06 0)
(-0.000129263 -8.24809e-07 0)
(-0.000129296 -4.59947e-06 0)
(-0.000130134 -3.16585e-06 0)
(-0.000130931 -1.66844e-06 0)
(-0.000131699 -1.06877e-07 0)
(-0.00013139 -3.62892e-06 0)
(-0.000132314 -2.24418e-06 0)
(-0.000133194 -7.99956e-07 0)
(-0.000134048 7.04118e-07 0)
(-0.000133414 -2.56851e-06 0)
(-0.000134415 -1.23285e-06 0)
(-0.000135373 1.57131e-07 0)
(-0.000136305 1.6018e-06 0)
(-0.000135368 -1.4267e-06 0)
(-0.00013644 -1.40157e-07 0)
(-0.000137467 1.19476e-06 0)
(-0.00013847 2.57847e-06 0)
(-0.000137252 -2.13181e-07 0)
(-0.000138386 1.02434e-06 0)
(-0.000139475 2.30366e-06 0)
(-0.00014054 3.62529e-06 0)
(-0.000139069 1.06139e-06 0)
(-0.000140256 2.25011e-06 0)
(-0.000141396 3.47359e-06 0)
(-0.000142514 4.73244e-06 0)
(-0.000140818 2.38567e-06 0)
(-0.000142047 3.52594e-06 0)
(-0.00014323 4.6936e-06 0)
(-0.000144392 5.88942e-06 0)
(-0.000142501 3.74798e-06 0)
(-0.000143763 4.8402e-06 0)
(-0.000144978 5.95235e-06 0)
(-0.000146173 7.08533e-06 0)
(-0.000144119 5.13658e-06 0)
(-0.000145402 6.18126e-06 0)
(-0.00014664 7.23843e-06 0)
(-0.000147858 8.30916e-06 0)
(-0.000145671 6.54003e-06 0)
(-0.000146966 7.5377e-06 0)
(-0.000148217 8.54063e-06 0)
(-0.000149449 9.55006e-06 0)
(-0.000147159 7.94743e-06 0)
(-0.000148457 8.89866e-06 0)
(-0.000149712 9.84826e-06 0)
(-0.000150947 1.07976e-05 0)
(-0.000148583 9.34864e-06 0)
(-0.000149874 1.0254e-05 0)
(-0.000151124 1.11513e-05 0)
(-0.000152354 1.2042e-05 0)
(-0.000149943 1.07344e-05 0)
(-0.00015122 1.15944e-05 0)
(-0.000152457 1.24406e-05 0)
(-0.000153674 1.32743e-05 0)
(-0.00015124 1.20964e-05 0)
(-0.000152495 1.29117e-05 0)
(-0.000153712 1.37077e-05 0)
(-0.000154908 1.44862e-05 0)
(-0.000152475 1.34274e-05 0)
(-0.000153701 1.41983e-05 0)
(-0.000154891 1.49454e-05 0)
(-0.00015606 1.56703e-05 0)
(-0.000153647 1.47209e-05 0)
(-0.000154838 1.54479e-05 0)
(-0.000155995 1.61471e-05 0)
(-0.000157132 1.68202e-05 0)
(-0.000154756 1.59714e-05 0)
(-0.000155908 1.66547e-05 0)
(-0.000157028 1.73071e-05 0)
(-0.000158128 1.79301e-05 0)
(-0.000155802 1.71744e-05 0)
(-0.000156912 1.78141e-05 0)
(-0.000157991 1.84206e-05 0)
(-0.000159048 1.89951e-05 0)
(-0.000156786 1.83261e-05 0)
(-0.000157849 1.89223e-05 0)
(-0.000158884 1.94836e-05 0)
(-0.000159898 2.00113e-05 0)
(-0.000157705 1.9424e-05 0)
(-0.000158721 1.99763e-05 0)
(-0.000159711 2.04932e-05 0)
(-0.000160678 2.09757e-05 0)
(-0.00015856 2.04666e-05 0)
(-0.000159528 2.09748e-05 0)
(-0.000160472 2.14478e-05 0)
(-0.000161393 2.18867e-05 0)
(-0.000159348 2.1454e-05 0)
(-0.00016027 2.19176e-05 0)
(-0.00016117 2.23474e-05 0)
(-0.000162045 2.27441e-05 0)
(-0.00016007 2.23883e-05 0)
(-0.000160947 2.28068e-05 0)
(-0.000161804 2.31937e-05 0)
(-0.000162636 2.35497e-05 0)
(-0.000160723 2.3273e-05 0)
(-0.00016156 2.36462e-05 0)
(-0.000162378 2.39906e-05 0)
(-0.00016317 2.43072e-05 0)
(-0.000161307 2.4114e-05 0)
(-0.000162108 2.44416e-05 0)
(-0.000162891 2.47439e-05 0)
(-0.000163648 2.50221e-05 0)
(-0.000161822 2.49183e-05 0)
(-0.000162591 2.52004e-05 0)
(-0.000163345 2.54609e-05 0)
(-0.000164073 2.57014e-05 0)
(-0.000162267 2.5694e-05 0)
(-0.000163011 2.59308e-05 0)
(-0.00016374 2.61494e-05 0)
(-0.000164445 2.63527e-05 0)
(-0.000162643 2.6449e-05 0)
(-0.000163367 2.66409e-05 0)
(-0.000164077 2.68173e-05 0)
(-0.000164765 2.69834e-05 0)
(-0.000162952 2.71906e-05 0)
(-0.000163659 2.73378e-05 0)
(-0.000164355 2.74711e-05 0)
(-0.000165033 2.75997e-05 0)
(-0.000163196 2.79236e-05 0)
(-0.000163887 2.80268e-05 0)
(-0.000164574 2.81165e-05 0)
(-0.000165249 2.82074e-05 0)
(-0.000163376 2.86477e-05 0)
(-0.000164051 2.871e-05 0)
(-0.000164732 2.87612e-05 0)
(-0.000165414 2.88165e-05 0)
(-0.000163498 2.93407e-05 0)
(-0.000164157 2.93856e-05 0)
(-0.000164836 2.9421e-05 0)
(-0.000165531 2.94612e-05 0)
)
;

boundaryField
{
    plateFix
    {
        type            calculated;
        value           uniform (0 0 0);
    }
    plate
    {
        type            calculated;
        value           nonuniform List<vector> 
168
(
(-3.2826e-06 -1.79047e-06 -2.92892e-23)
(-3.34682e-06 1.82289e-06 5.22861e-23)
(-3.1622e-06 -2.88069e-06 7.1204e-23)
(-3.25975e-06 2.926e-06 -2.19621e-23)
(-3.26468e-06 -3.71488e-06 -5.05545e-23)
(-3.40325e-06 3.77765e-06 2.95438e-25)
(-3.62303e-06 -4.28599e-06 3.25847e-24)
(-3.80648e-06 4.37236e-06 -7.4071e-24)
(-4.22177e-06 -4.67729e-06 -2.11336e-23)
(-4.45266e-06 4.79609e-06 -4.39768e-23)
(-5.01379e-06 -4.92727e-06 -8.01999e-24)
(-5.29324e-06 5.08912e-06 4.71435e-23)
(-5.97341e-06 -5.07622e-06 3.3486e-23)
(-6.30152e-06 5.29354e-06 -3.70221e-24)
(-7.08054e-06 -5.14987e-06 -6.95429e-23)
(-7.4563e-06 5.43658e-06 1.88589e-23)
(-8.32493e-06 -5.16896e-06 5.64407e-23)
(-8.74614e-06 5.54036e-06 2.58317e-23)
(-9.70099e-06 -5.14809e-06 3.03714e-24)
(-1.01641e-05 5.62057e-06 -3.61677e-23)
(-1.12075e-05 -5.09822e-06 3.25508e-24)
(-1.17074e-05 5.68891e-06 3.0012e-23)
(-1.28458e-05 -5.02721e-06 -3.11298e-23)
(-1.33757e-05 5.75347e-06 -5.90884e-23)
(-1.46198e-05 -4.9408e-06 2.69103e-23)
(-1.51708e-05 5.8195e-06 2.88452e-23)
(-1.6535e-05 -4.84312e-06 6.53783e-24)
(-1.70958e-05 5.88974e-06 -3.47379e-25)
(-1.85984e-05 -4.73744e-06 -3.25898e-23)
(-1.91554e-05 5.96479e-06 -1.69029e-24)
(-2.08187e-05 -4.62665e-06 4.79929e-23)
(-2.13554e-05 6.04333e-06 1.32004e-23)
(-2.32052e-05 -4.51388e-06 -1.84959e-23)
(-2.37027e-05 6.12228e-06 -7.15399e-24)
(-2.57681e-05 -4.40286e-06 -2.57874e-24)
(-2.62051e-05 6.19698e-06 -4.06653e-24)
(-2.85179e-05 -4.29829e-06 -3.12804e-24)
(-2.88713e-05 6.26129e-06 2.70026e-23)
(-3.14651e-05 -4.20588e-06 2.11092e-23)
(-3.1711e-05 6.30786e-06 -2.97661e-23)
(-3.46203e-05 -4.13229e-06 -3.28061e-23)
(-3.47347e-05 6.3283e-06 4.06625e-24)
(-3.79932e-05 -4.08498e-06 2.08414e-23)
(-3.7953e-05 6.31339e-06 -2.96009e-25)
(-4.17314e-05 -4.07167e-06 5.10413e-24)
(-4.15076e-05 6.25093e-06 -1.99443e-23)
(-4.57067e-05 -4.10718e-06 -6.08723e-24)
(-4.52764e-05 6.1259e-06 2.00062e-23)
(-4.96512e-05 -4.19381e-06 -1.84815e-23)
(-4.90069e-05 5.94132e-06 1.84206e-24)
(-5.35612e-05 -4.33362e-06 1.35726e-23)
(-5.26973e-05 5.6953e-06 -4.46538e-24)
(-5.74323e-05 -4.52903e-06 1.53788e-24)
(-5.63466e-05 5.38569e-06 2.20921e-23)
(-6.12588e-05 -4.78174e-06 4.64763e-24)
(-5.99551e-05 5.01111e-06 -3.44723e-23)
(-6.50339e-05 -5.09144e-06 6.17527e-24)
(-6.35246e-05 4.57232e-06 6.47966e-24)
(-6.87499e-05 -5.45467e-06 -1.93787e-23)
(-6.70582e-05 4.07332e-06 -1.34949e-23)
(-7.23993e-05 -5.86427e-06 -3.6892e-24)
(-7.05591e-05 3.52192e-06 1.31802e-23)
(-7.59752e-05 -6.30948e-06 2.65843e-24)
(-7.40303e-05 2.92964e-06 7.58342e-24)
(-7.94722e-05 -6.77666e-06 -4.65857e-24)
(-7.7474e-05 2.31098e-06 -1.68186e-24)
(-8.28864e-05 -7.25035e-06 -2.13732e-24)
(-8.08906e-05 1.68229e-06 -4.98741e-24)
(-8.62161e-05 -7.71447e-06 -2.74541e-24)
(-8.42795e-05 1.06059e-06 7.72836e-24)
(-8.9461e-05 -8.15335e-06 1.32989e-23)
(-8.76386e-05 4.62395e-07 -1.1716e-24)
(-9.26219e-05 -8.5525e-06 -6.3196e-24)
(-9.09649e-05 -9.7086e-08 -1.25651e-24)
(-9.57005e-05 -8.89911e-06 -1.34225e-26)
(-9.42551e-05 -6.04474e-07 -4.57632e-24)
(-9.86989e-05 -9.18208e-06 2.79132e-24)
(-9.75055e-05 -1.04839e-06 -1.77538e-25)
(-0.000101619 -9.39197e-06 -1.41022e-24)
(-0.000100712 -1.41942e-06 4.18036e-24)
(-0.000104462 -9.52074e-06 -4.8342e-25)
(-0.000103872 -1.70983e-06 -1.67252e-24)
(-0.000107231 -9.5615e-06 -5.44566e-24)
(-0.000106982 -1.91337e-06 -5.65235e-24)
(-0.000109924 -9.50832e-06 4.99016e-24)
(-0.000110038 -2.02497e-06 -1.38196e-23)
(-0.000112544 -9.35611e-06 -7.86109e-24)
(-0.000113036 -2.04057e-06 -1.8168e-23)
(-0.000115091 -9.10067e-06 -7.50662e-24)
(-0.000115974 -1.95699e-06 2.37378e-23)
(-0.000117564 -8.73874e-06 1.35828e-23)
(-0.000118848 -1.77196e-06 -7.9217e-24)
(-0.000119966 -8.26823e-06 -5.72357e-24)
(-0.000121652 -1.48414e-06 -2.8923e-23)
(-0.000122294 -7.68834e-06 -9.88713e-24)
(-0.000124384 -1.09322e-06 -1.08464e-23)
(-0.000124552 -6.99977e-06 -9.44431e-25)
(-0.000127038 -6.00071e-07 7.13054e-24)
(-0.000126739 -6.20477e-06 6.98798e-24)
(-0.000129609 -6.80593e-09 1.6305e-23)
(-0.000128856 -5.30728e-06 1.85088e-24)
(-0.000132095 6.83105e-07 1.03421e-23)
(-0.000130905 -4.31285e-06 -2.25984e-24)
(-0.00013449 1.46481e-06 2.43735e-23)
(-0.000132887 -3.22859e-06 -7.07492e-24)
(-0.00013679 2.3321e-06 -9.97542e-24)
(-0.000134804 -2.06304e-06 1.77571e-23)
(-0.000138993 3.27749e-06 7.42204e-24)
(-0.000136656 -8.25943e-07 -1.91832e-23)
(-0.000141097 4.29235e-06 4.88731e-24)
(-0.000138445 4.72011e-07 6.48986e-24)
(-0.000143099 5.36712e-06 2.90922e-23)
(-0.000140173 1.81945e-06 1.07795e-23)
(-0.000144999 6.49156e-06 1.63385e-23)
(-0.000141839 3.20467e-06 -7.55349e-24)
(-0.000146796 7.65499e-06 2.5991e-24)
(-0.000143446 4.61595e-06 8.25298e-24)
(-0.000148493 8.84665e-06 -2.55746e-23)
(-0.000144993 6.04184e-06 -4.1598e-24)
(-0.000150089 1.00559e-05 1.23535e-23)
(-0.000146481 7.47146e-06 1.05794e-23)
(-0.000151588 1.12724e-05 1.08038e-23)
(-0.00014791 8.89466e-06 -3.38791e-24)
(-0.000152991 1.24866e-05 -4.18238e-24)
(-0.00014928 1.03022e-05 1.59606e-24)
(-0.000154302 1.36895e-05 -4.83456e-24)
(-0.000150591 1.16859e-05 -2.22428e-24)
(-0.000155525 1.4873e-05 -3.61893e-24)
(-0.000151842 1.30383e-05 4.43427e-24)
(-0.000156661 1.60296e-05 -1.45631e-24)
(-0.000153034 1.43532e-05 -5.87612e-25)
(-0.000157714 1.7153e-05 7.81955e-24)
(-0.000154165 1.56251e-05 -4.33758e-24)
(-0.000158688 1.82373e-05 5.03502e-24)
(-0.000155236 1.68495e-05 -4.7798e-24)
(-0.000159585 1.92776e-05 1.72066e-26)
(-0.000156246 1.80228e-05 7.75234e-24)
(-0.000160409 2.02701e-05 2.56973e-24)
(-0.000157192 1.91425e-05 7.68427e-25)
(-0.000161164 2.12117e-05 -1.314e-23)
(-0.000158075 2.02072e-05 -1.02439e-24)
(-0.000161852 2.21008e-05 1.02915e-24)
(-0.00015889 2.12171e-05 3.07969e-24)
(-0.000162477 2.29373e-05 -3.19158e-24)
(-0.000159638 2.21741e-05 2.21048e-24)
(-0.000163044 2.37229e-05 -4.74523e-24)
(-0.000160314 2.30821e-05 -5.69814e-24)
(-0.000163555 2.44612e-05 -7.67036e-24)
(-0.000160918 2.39464e-05 3.95541e-24)
(-0.000164014 2.51575e-05 4.49732e-24)
(-0.000161449 2.47741e-05 2.62454e-24)
(-0.000164424 2.58187e-05 -1.02224e-25)
(-0.000161906 2.5573e-05 -9.56916e-25)
(-0.000164784 2.64521e-05 6.64502e-24)
(-0.000162291 2.6351e-05 6.57534e-25)
(-0.000165096 2.7065e-05 1.16971e-24)
(-0.000162606 2.71151e-05 1.21499e-24)
(-0.000165359 2.76635e-05 -1.78014e-24)
(-0.000162855 2.787e-05 -5.7958e-25)
(-0.000165574 2.82535e-05 6.55172e-25)
(-0.000163045 2.86153e-05 9.84562e-25)
(-0.000165749 2.8845e-05 -7.80489e-25)
(-0.000163198 2.93261e-05 -5.12849e-26)
(-0.000163537 2.96441e-05 -1.10938e-23)
(-0.000164196 2.97206e-05 -4.61995e-24)
(-0.000164874 2.97686e-05 -3.57445e-23)
(-0.000165569 2.98355e-05 3.48233e-23)
(-0.000165903 2.94745e-05 -2.9125e-24)
)
;
    }
    frontAndBackPlanes
    {
        type            empty;
    }
}


// ************************************************************************* //
