/*--------------------------------*- C++ -*----------------------------------*\
| =========                 |                                                 |
| \\      /  F ield         | OpenFOAM Extend Project: Open source CFD        |
|  \\    /   O peration     | Version:  1.6-ext                               |
|   \\  /    A nd           | Web:      www.extend-project.de                 |
|    \\/     M anipulation  |                                                 |
\*---------------------------------------------------------------------------*/
FoamFile
{
    version     2.0;
    format      ascii;
    class       surfaceScalarField;
    location    "0.4";
    object      meshPhi;
}
// * * * * * * * * * * * * * * * * * * * * * * * * * * * * * * * * * * * * * //

dimensions      [0 3 -1 0 0 0 0];

internalField   nonuniform List<scalar> 
570
(
-3.29024e-10
-8.53253e-09
1.01865e-12
-2.4437e-09
3.56995e-10
-2.57881e-09
-9.51493e-09
-9.8897e-10
-1.00062e-08
1.04629e-11
-5.42676e-09
1.08362e-09
-5.71827e-09
-1.13237e-08
-1.58952e-09
-1.22849e-08
3.72262e-11
-9.04347e-09
1.77407e-09
-9.51427e-09
-1.40453e-08
-2.11201e-09
-1.53517e-08
8.58703e-11
-1.31944e-08
2.42062e-09
-1.38609e-08
-1.76388e-08
-2.55158e-09
-1.91414e-08
1.61877e-10
-1.78742e-08
3.03199e-09
-1.87516e-08
-2.20235e-08
-2.9068e-09
-2.35625e-08
2.72526e-10
-2.3047e-08
3.62355e-09
-2.41478e-08
-2.70926e-08
-3.17588e-09
-2.85653e-08
4.27333e-10
-2.87033e-08
4.21418e-09
-3.00394e-08
-3.27878e-08
-3.35583e-09
-3.41171e-08
6.3847e-10
-3.48348e-08
4.8264e-09
-3.64172e-08
-3.907e-08
-3.44122e-09
-4.02063e-08
9.213e-10
-4.14457e-08
5.48622e-09
-4.32846e-08
-4.59236e-08
-3.42317e-09
-4.68335e-08
1.29501e-09
-4.85471e-08
6.22354e-09
-5.06524e-08
-5.33465e-08
-3.28804e-09
-5.40105e-08
1.78337e-09
-5.61589e-08
7.07241e-09
-5.854e-08
-6.13477e-08
-3.016e-09
-6.17573e-08
2.41562e-09
-6.43085e-08
8.07153e-09
-6.69737e-08
-6.99446e-08
-2.57959e-09
-7.01012e-08
3.22758e-09
-7.30296e-08
9.26491e-09
-7.59864e-08
-7.91612e-08
-1.94217e-09
-7.90757e-08
4.26283e-09
-8.23616e-08
1.07029e-08
-8.56164e-08
-8.90273e-08
-1.05641e-09
-8.87199e-08
5.57414e-09
-9.23488e-08
1.24435e-08
-9.59062e-08
-9.9577e-08
1.37261e-10
-9.90778e-08
7.22513e-09
-1.03039e-07
1.4554e-08
-1.06902e-07
-1.10849e-07
1.71222e-09
-1.10198e-07
9.29201e-09
-1.14483e-07
1.71133e-08
-1.18651e-07
-1.22884e-07
3.75737e-09
-1.22134e-07
1.18656e-08
-1.26734e-07
2.02136e-08
-1.31206e-07
-1.35726e-07
6.37891e-09
-1.3494e-07
1.50534e-08
-1.39847e-07
2.39634e-08
-1.44617e-07
-1.49423e-07
9.70228e-09
-1.48677e-07
1.89819e-08
-1.5388e-07
2.84897e-08
-1.58939e-07
-1.64022e-07
1.38741e-08
-1.63408e-07
2.37985e-08
-1.68892e-07
3.39405e-08
-1.74225e-07
-1.79572e-07
1.90641e-08
-1.79197e-07
2.96739e-08
-1.84944e-07
4.04867e-08
-1.90533e-07
-1.96124e-07
2.7556e-08
-1.9736e-07
3.97263e-08
-2.0336e-07
5.20927e-08
-2.09195e-07
-2.15018e-07
3.37742e-08
-2.1549e-07
4.58904e-08
-2.21695e-07
5.81638e-08
-2.27728e-07
-2.33735e-07
4.01817e-08
-2.33581e-07
5.22402e-08
-2.39943e-07
6.44189e-08
-2.46125e-07
-2.52271e-07
4.67299e-08
-2.51624e-07
5.87281e-08
-2.58097e-07
7.08108e-08
-2.64384e-07
-2.70623e-07
5.3372e-08
-2.69612e-07
6.53079e-08
-2.76152e-07
7.72944e-08
-2.825e-07
-2.88789e-07
6.00634e-08
-2.87539e-07
7.19359e-08
-2.94102e-07
8.38264e-08
-3.0047e-07
-3.0677e-07
6.67621e-08
-3.05398e-07
7.85703e-08
-3.11943e-07
9.03657e-08
-3.18291e-07
-3.24565e-07
7.34286e-08
-3.2318e-07
8.51719e-08
-3.2967e-07
9.68732e-08
-3.35961e-07
-3.42173e-07
8.0026e-08
-3.4088e-07
9.17038e-08
-3.47276e-07
1.03312e-07
-3.53476e-07
-3.59593e-07
8.65201e-08
-3.5849e-07
9.81311e-08
-3.64758e-07
1.09646e-07
-3.70833e-07
-3.76823e-07
9.28791e-08
-3.76e-07
1.04421e-07
-3.82107e-07
1.15843e-07
-3.88025e-07
-3.9386e-07
9.90733e-08
-3.934e-07
1.10544e-07
-3.99315e-07
1.21871e-07
-4.05048e-07
-4.10699e-07
1.05075e-07
-4.1068e-07
1.16469e-07
-4.16374e-07
1.27698e-07
-4.21893e-07
-4.27334e-07
1.10858e-07
-4.27826e-07
1.22169e-07
-4.33272e-07
1.33294e-07
-4.38551e-07
-4.43756e-07
1.16399e-07
-4.44824e-07
1.27618e-07
-4.49996e-07
1.38632e-07
-4.5501e-07
-4.59955e-07
1.21673e-07
-4.61657e-07
1.3279e-07
-4.66533e-07
1.43684e-07
-4.71259e-07
-4.7592e-07
1.2666e-07
-4.78307e-07
1.37662e-07
-4.82865e-07
1.48424e-07
-4.87282e-07
-4.91637e-07
1.31339e-07
-4.94754e-07
1.42211e-07
-4.98975e-07
1.52829e-07
-5.03063e-07
-5.07093e-07
1.35691e-07
-5.10978e-07
1.46417e-07
-5.14845e-07
1.56876e-07
-5.18587e-07
-5.22272e-07
1.39699e-07
-5.26956e-07
1.50263e-07
-5.30456e-07
1.60546e-07
-5.33836e-07
-5.37159e-07
1.43347e-07
-5.42667e-07
1.5373e-07
-5.45788e-07
1.63824e-07
-5.48794e-07
-5.5174e-07
1.46621e-07
-5.58091e-07
1.56807e-07
-5.60823e-07
1.66694e-07
-5.63443e-07
-5.65999e-07
1.4951e-07
-5.73207e-07
1.59481e-07
-5.75543e-07
1.69147e-07
-5.77769e-07
-5.79924e-07
1.52002e-07
-5.87998e-07
1.61744e-07
-5.89933e-07
1.71176e-07
-5.91757e-07
-5.93504e-07
1.5409e-07
-6.02446e-07
1.63589e-07
-6.03977e-07
1.72774e-07
-6.05396e-07
-6.0673e-07
1.55768e-07
-6.16538e-07
1.65012e-07
-6.17664e-07
1.73942e-07
-6.18676e-07
-6.19592e-07
1.57031e-07
-6.30261e-07
1.66013e-07
-6.30984e-07
1.74679e-07
-6.31589e-07
-6.32087e-07
1.5788e-07
-6.43606e-07
1.66591e-07
-6.43929e-07
1.74988e-07
-6.44129e-07
-6.44211e-07
1.58314e-07
-6.56565e-07
1.6675e-07
-6.56493e-07
1.74875e-07
-6.56292e-07
-6.55961e-07
1.58336e-07
-6.69132e-07
1.66494e-07
-6.68671e-07
1.74346e-07
-6.68076e-07
-6.67337e-07
1.57953e-07
-6.81303e-07
1.65832e-07
-6.80462e-07
1.73409e-07
-6.79479e-07
-6.78342e-07
1.57171e-07
-6.93076e-07
1.6477e-07
-6.91863e-07
1.72076e-07
-6.90502e-07
-6.88975e-07
1.56e-07
-7.04449e-07
1.63321e-07
-7.02875e-07
1.70356e-07
-7.01147e-07
-6.99241e-07
1.54451e-07
-7.15419e-07
1.61495e-07
-7.13497e-07
1.68263e-07
-7.11413e-07
-7.09142e-07
1.52536e-07
-7.25988e-07
1.59306e-07
-7.23729e-07
1.6581e-07
-7.21304e-07
-7.18682e-07
1.50271e-07
-7.36154e-07
1.56769e-07
-7.33573e-07
1.63011e-07
-7.30821e-07
-7.27862e-07
1.4767e-07
-7.45917e-07
1.53898e-07
-7.43029e-07
1.59881e-07
-7.39965e-07
-7.36686e-07
1.4475e-07
-7.55278e-07
1.5071e-07
-7.52098e-07
1.56438e-07
-7.48737e-07
-7.45155e-07
1.41528e-07
-7.64236e-07
1.47222e-07
-7.6078e-07
1.52697e-07
-7.5714e-07
-7.53272e-07
1.38023e-07
-7.7279e-07
1.43452e-07
-7.69075e-07
1.48676e-07
-7.65173e-07
-7.61038e-07
1.34252e-07
-7.8094e-07
1.39419e-07
-7.76984e-07
1.44393e-07
-7.72836e-07
-7.68452e-07
1.30235e-07
-7.88685e-07
1.3514e-07
-7.84505e-07
1.39865e-07
-7.8013e-07
-7.75515e-07
1.25991e-07
-7.96025e-07
1.30633e-07
-7.91638e-07
1.35111e-07
-7.87054e-07
-7.82226e-07
1.21537e-07
-8.02959e-07
1.25919e-07
-7.98382e-07
1.30148e-07
-7.93606e-07
-7.88584e-07
1.16894e-07
-8.09486e-07
1.21013e-07
-8.04736e-07
1.24995e-07
-7.99786e-07
-7.94587e-07
1.12078e-07
-8.15605e-07
1.15936e-07
-8.107e-07
1.19668e-07
-8.05591e-07
-8.00234e-07
1.07109e-07
-8.21315e-07
1.10704e-07
-8.16271e-07
1.14187e-07
-8.11021e-07
-8.05522e-07
1.02002e-07
-8.26615e-07
1.05334e-07
-8.21448e-07
1.08566e-07
-8.16074e-07
-8.10449e-07
9.67752e-08
-8.31504e-07
9.9843e-08
-8.2623e-07
1.02824e-07
-8.20747e-07
-8.15013e-07
9.14446e-08
-8.35982e-07
9.42476e-08
-8.30616e-07
9.69752e-08
-8.25038e-07
-8.1921e-07
8.60257e-08
-8.40048e-07
8.8563e-08
-8.34603e-07
9.10362e-08
-8.28947e-07
-8.23039e-07
8.05335e-08
-8.43701e-07
8.28042e-08
-8.38192e-07
8.50214e-08
-8.32469e-07
-8.26496e-07
7.49822e-08
-8.46941e-07
7.69854e-08
-8.41381e-07
7.8945e-08
-8.35604e-07
-8.29579e-07
6.93851e-08
-8.49769e-07
7.112e-08
-8.44169e-07
7.28202e-08
-8.3835e-07
-8.32283e-07
6.37546e-08
-8.52184e-07
6.52203e-08
-8.46554e-07
6.66592e-08
-8.40703e-07
-8.34606e-07
5.81021e-08
-8.54188e-07
5.92973e-08
-8.48537e-07
6.04728e-08
-8.42663e-07
-8.36546e-07
5.24371e-08
-8.5578e-07
5.33608e-08
-8.50114e-07
5.42708e-08
-8.44225e-07
-8.38096e-07
4.6767e-08
-8.56971e-07
4.7419e-08
-8.5129e-07
4.80622e-08
-8.45391e-07
-8.39264e-07
4.1089e-08
-8.57753e-07
4.14787e-08
-8.5205e-07
4.18629e-08
-8.46147e-07
-8.40036e-07
3.53901e-08
3.55454e-08
3.56949e-08
)
;

boundaryField
{
    plateFix
    {
        type            calculated;
        value           nonuniform List<scalar> 4(6.63849e-09 -7.47106e-14 8.98754e-14 7.31344e-09);
    }
    plate
    {
        type            calculated;
        value           nonuniform List<scalar> 
168
(
1.53172e-09
1.73399e-09
2.68515e-09
3.01721e-09
3.73592e-09
4.21131e-09
4.64695e-09
5.28849e-09
5.42831e-09
6.27493e-09
6.1004e-09
7.21085e-09
6.6757e-09
8.13129e-09
7.16269e-09
9.07166e-09
7.56355e-09
1.00664e-08
7.87486e-09
1.11511e-08
8.08674e-09
1.23638e-08
8.18231e-09
1.37459e-08
8.13654e-09
1.53436e-08
7.91506e-09
1.72089e-08
7.47273e-09
1.94015e-08
6.7522e-09
2.19904e-08
5.68226e-09
2.50557e-08
4.17617e-09
2.86912e-08
2.12982e-09
3.30064e-08
-5.80218e-10
3.81295e-08
-4.09864e-09
4.42093e-08
-8.59329e-09
5.14173e-08
-1.55211e-08
6.45721e-08
-2.17684e-08
7.05269e-08
-2.82094e-08
7.66639e-08
-3.47947e-08
8.29378e-08
-4.14767e-08
8.93041e-08
-4.82101e-08
9.57204e-08
-5.49525e-08
1.02146e-07
-6.16641e-08
1.08542e-07
-6.83083e-08
1.14871e-07
-7.48512e-08
1.21098e-07
-8.1262e-08
1.27187e-07
-8.75121e-08
1.33106e-07
-9.35755e-08
1.38822e-07
-9.9428e-08
1.44303e-07
-1.05047e-07
1.49518e-07
-1.10412e-07
1.54439e-07
-1.15504e-07
1.59037e-07
-1.20303e-07
1.63287e-07
-1.24793e-07
1.67166e-07
-1.28957e-07
1.70653e-07
-1.3278e-07
1.73733e-07
-1.36247e-07
1.7639e-07
-1.39347e-07
1.78617e-07
-1.42066e-07
1.80406e-07
-1.44396e-07
1.81756e-07
-1.46328e-07
1.82665e-07
-1.47856e-07
1.83138e-07
-1.48976e-07
1.83178e-07
-1.49687e-07
1.82794e-07
-1.49991e-07
1.81994e-07
-1.49891e-07
1.80788e-07
-1.49392e-07
1.79186e-07
-1.48505e-07
1.77201e-07
-1.47238e-07
1.74847e-07
-1.45604e-07
1.72136e-07
-1.43617e-07
1.69083e-07
-1.41292e-07
1.65703e-07
-1.38647e-07
1.62012e-07
-1.35699e-07
1.58027e-07
-1.32466e-07
1.53764e-07
-1.28966e-07
1.4924e-07
-1.2522e-07
1.44473e-07
-1.21245e-07
1.39479e-07
-1.17062e-07
1.34278e-07
-1.12688e-07
1.28885e-07
-1.08143e-07
1.23319e-07
-1.03444e-07
1.17596e-07
-9.86083e-08
1.11734e-07
-9.36532e-08
1.05748e-07
-8.85948e-08
9.96538e-08
-8.34486e-08
9.34676e-08
-7.82296e-08
8.72037e-08
-7.29518e-08
8.08762e-08
-6.76286e-08
7.44981e-08
-6.22722e-08
6.80815e-08
-5.6894e-08
6.1637e-08
-5.15029e-08
5.51747e-08
-4.61072e-08
4.87029e-08
-4.06952e-08
4.22457e-08
-3.52026e-08
-8.58173e-07
-8.52455e-07
-8.4655e-07
-8.40451e-07
3.58735e-08
)
;
    }
    frontAndBackPlanes
    {
        type            empty;
    }
}


// ************************************************************************* //
