/*--------------------------------*- C++ -*----------------------------------*\
| =========                 |                                                 |
| \\      /  F ield         | OpenFOAM Extend Project: Open source CFD        |
|  \\    /   O peration     | Version:  1.6-ext                               |
|   \\  /    A nd           | Web:      www.extend-project.de                 |
|    \\/     M anipulation  |                                                 |
\*---------------------------------------------------------------------------*/
FoamFile
{
    version     2.0;
    format      ascii;
    class       volScalarField;
    location    "0.4";
    object      sigmaEq;
}
// * * * * * * * * * * * * * * * * * * * * * * * * * * * * * * * * * * * * * //

dimensions      [1 -1 -2 0 0 0 0];

internalField   nonuniform List<scalar> 
328
(
0.721906
0.302382
0.359381
0.904288
0.721902
0.378055
0.45765
0.898428
0.717075
0.43079
0.533766
0.90489
0.693437
0.461113
0.574759
0.889043
0.66049
0.475831
0.593208
0.863718
0.618997
0.480961
0.595611
0.826569
0.572031
0.479853
0.588399
0.782007
0.5209
0.475049
0.575099
0.731249
0.466871
0.468021
0.558274
0.675771
0.410908
0.459844
0.539347
0.616177
0.35417
0.451224
0.519202
0.552929
0.298461
0.442723
0.498336
0.486365
0.247186
0.434775
0.477069
0.41699
0.207085
0.427763
0.455651
0.345755
0.189451
0.422013
0.43435
0.274785
0.204137
0.417823
0.413501
0.209345
0.248659
0.415453
0.393552
0.163243
0.313035
0.415126
0.375085
0.161724
0.389483
0.417014
0.358836
0.210947
0.473644
0.421204
0.345662
0.2894
0.562906
0.427691
0.336531
0.381792
0.655642
0.436174
0.332295
0.482056
0.753323
0.446021
0.33304
0.590637
0.850987
0.459157
0.34365
0.702887
0.940883
0.471433
0.360511
0.810846
1.02207
0.481603
0.382693
0.914567
1.09379
0.4886
0.409691
1.01442
1.15518
0.491382
0.441201
1.11082
1.20544
0.48898
0.477106
1.20421
1.24385
0.480521
0.517393
1.29501
1.26976
0.465261
0.562076
1.38358
1.28271
0.442623
0.611133
1.47016
1.2824
0.412231
0.664446
1.55486
1.26877
0.373946
0.721759
1.63762
1.24202
0.327895
0.782645
1.71817
1.20264
0.274512
0.846494
1.79609
1.1514
0.214599
0.912506
1.87075
1.08937
0.149556
0.979704
1.94137
1.01788
0.0828367
1.04696
2.00704
0.93848
0.0403046
1.11302
2.06674
0.852923
0.0896013
1.17658
2.11944
0.763074
0.163
1.23632
2.16412
0.67087
0.238323
1.29097
2.19985
0.578271
0.312033
1.33936
2.22583
0.487237
0.382315
1.38052
2.24144
0.399763
0.447841
1.41367
2.24629
0.318046
0.507596
1.43826
2.24023
0.244928
0.560839
1.454
2.22337
0.18497
0.607096
1.46087
2.19604
0.146085
0.646135
1.45904
2.15879
0.136978
0.677943
1.44891
2.11238
0.15477
0.702696
1.43103
2.05768
0.18604
0.720716
1.40608
1.99567
0.220775
0.732441
1.37484
1.9274
0.254356
0.73838
1.3381
1.85394
0.28491
0.739089
1.29669
1.77634
0.311741
0.735135
1.25142
1.6956
0.33468
0.727082
1.20306
1.61269
0.353795
0.715464
1.15232
1.52846
0.369267
0.700781
1.09986
1.44371
0.381317
0.683486
1.04626
1.35913
0.390177
0.663981
0.992019
1.27531
0.396067
0.642616
0.937577
1.19275
0.399189
0.619692
0.883294
1.11188
0.39972
0.59546
0.82947
1.03304
0.397812
0.570126
0.776343
0.956489
0.393596
0.543858
0.724096
0.882436
0.387179
0.516784
0.672866
0.811027
0.37865
0.489002
0.622749
0.742363
0.368083
0.460581
0.573802
0.676504
0.355539
0.431563
0.526049
0.613476
0.341069
0.401964
0.479484
0.55328
0.324725
0.371776
0.434067
0.495901
0.306558
0.340944
0.389705
0.441314
0.286669
0.309372
0.346248
0.389526
0.265182
0.276792
0.303353
0.34056
0.242541
0.242878
0.260568
0.294741
0.219149
0.206561
0.216648
0.252366
0.197171
0.167917
0.171451
0.21556
0.175752
0.125772
0.123923
0.183735
0.161305
0.0967883
0.0930605
0.163894
0.138091
0.107036
0.107683
0.140414
)
;

boundaryField
{
    plateFix
    {
        type            calculated;
        value           nonuniform List<scalar> 4(0.734215 0.247389 0.293536 0.964008);
    }
    plate
    {
        type            calculated;
        value           nonuniform List<scalar> 
168
(
0.735222
0.903201
0.733781
0.913845
0.726317
0.927105
0.698151
0.907983
0.660803
0.878766
0.614605
0.837678
0.562586
0.789739
0.505768
0.735773
0.445136
0.677007
0.381206
0.613777
0.314416
0.546338
0.2453
0.474783
0.175145
0.399265
0.108839
0.320097
0.0725316
0.238131
0.112234
0.156186
0.188677
0.0886197
0.275742
0.0971643
0.368216
0.17743
0.464511
0.276045
0.563583
0.381563
0.664752
0.491575
0.770177
0.608376
0.874514
0.727492
0.970286
0.841323
1.0567
0.950197
1.13309
1.05462
1.19869
1.15507
1.25274
1.25206
1.29454
1.34602
1.32347
1.43734
1.33906
1.52627
1.34102
1.61291
1.3293
1.69722
1.30407
1.77895
1.26583
1.85769
1.21533
1.93282
1.15362
2.00358
1.08201
2.06909
1.00204
2.12836
0.915435
2.18038
0.824011
2.22416
0.729646
2.25879
0.634201
2.28349
0.539461
2.29767
0.447113
2.30096
0.358758
2.29322
0.276035
2.27457
0.201039
2.24538
0.137706
2.2062
0.0961223
2.15779
0.0931659
2.10105
0.122068
2.03698
0.160617
1.96663
0.198984
1.89109
0.234199
1.81142
0.265394
1.72865
0.292405
1.64373
0.315336
1.55755
0.334396
1.4709
0.349831
1.38449
0.361886
1.29892
0.370795
1.2147
0.376769
1.13227
0.379991
1.05196
0.380624
0.974062
0.378803
0.898772
0.374647
0.82625
0.368254
0.756601
0.35971
0.689894
0.349092
0.626165
0.336468
0.565426
0.321912
0.507679
0.305502
0.45292
0.287367
0.401184
0.267655
0.35252
0.246811
0.307272
0.22515
0.265655
0.204678
0.22959
0.184986
0.198575
0.1776
0.18404
0.172801
0.110954
0.103298
0.105298
0.114616
0.176524
)
;
    }
    frontAndBackPlanes
    {
        type            empty;
    }
}


// ************************************************************************* //
