/*--------------------------------*- C++ -*----------------------------------*\
| =========                 |                                                 |
| \\      /  F ield         | OpenFOAM Extend Project: Open source CFD        |
|  \\    /   O peration     | Version:  1.6-ext                               |
|   \\  /    A nd           | Web:      www.extend-project.de                 |
|    \\/     M anipulation  |                                                 |
\*---------------------------------------------------------------------------*/
FoamFile
{
    version     2.0;
    format      ascii;
    class       volSymmTensorField;
    location    "0.4";
    object      sigma;
}
// * * * * * * * * * * * * * * * * * * * * * * * * * * * * * * * * * * * * * //

dimensions      [1 -1 -2 0 0 0 0];

internalField   nonuniform List<symmTensor> 
328
(
(1.40034 0.163308 -6.18843e-22 0.672204 7.97023e-20 0.827685)
(0.486259 0.1382 -5.08344e-24 0.293382 5.00354e-23 0.310852)
(-0.0349963 0.200744 4.16858e-23 0.0698163 -5.43825e-23 0.0129209)
(-1.04554 0.301634 -1.09746e-22 -0.205317 -1.20134e-19 -0.501682)
(1.33572 0.13818 2.49092e-21 0.581545 -1.55034e-19 0.765548)
(0.4805 0.184164 2.38736e-22 0.262977 1.17379e-23 0.296309)
(-0.0325769 0.235878 3.89242e-24 0.204611 1.2542e-22 0.0677293)
(-0.934567 0.234157 1.29772e-21 -0.0152035 -3.49154e-20 -0.381274)
(1.29163 0.123766 -2.90994e-21 0.530467 -6.26113e-20 0.727425)
(0.481013 0.218323 -2.69279e-22 0.259109 1.0504e-22 0.294873)
(-0.0643408 0.257932 8.2785e-22 0.271989 1.00566e-22 0.0818783)
(-0.877514 0.184053 -4.57688e-21 0.0963561 1.41772e-19 -0.313885)
(1.23509 0.116101 7.55583e-22 0.495772 2.26677e-20 0.690875)
(0.468975 0.241276 3.31173e-22 0.260919 -9.81739e-23 0.290665)
(-0.0607649 0.268294 -1.19494e-21 0.328447 -6.24907e-22 0.105776)
(-0.80531 0.150318 4.17537e-21 0.173674 3.43945e-20 -0.254136)
(1.17733 0.112462 9.3496e-22 0.474461 8.91133e-20 0.659197)
(0.456003 0.254856 6.25692e-23 0.26948 8.82861e-23 0.288799)
(-0.0570775 0.270802 4.38493e-22 0.360671 -7.17046e-22 0.120039)
(-0.740976 0.12875 1.49322e-21 0.22078 -1.10595e-19 -0.209607)
(1.11388 0.110928 7.96423e-22 0.459667 -8.4402e-20 0.627867)
(0.439853 0.262426 -2.88298e-22 0.279289 -9.437e-23 0.286179)
(-0.0428079 0.269424 -1.37033e-21 0.382597 8.72208e-22 0.134434)
(-0.673534 0.115123 -1.23035e-21 0.251527 2.93766e-20 -0.170364)
(1.04619 0.110279 -3.29456e-21 0.448502 1.11275e-19 0.596307)
(0.422915 0.265587 2.83165e-22 0.28948 3.29543e-23 0.283421)
(-0.0256213 0.266074 2.63683e-22 0.39446 -5.07253e-22 0.145994)
(-0.605135 0.106649 1.104e-21 0.271528 2.18863e-21 -0.135023)
(0.973812 0.10982 3.47521e-21 0.438704 -1.60883e-20 0.563426)
(0.40497 0.265856 -2.27496e-21 0.298779 -1.47207e-22 0.279924)
(-0.00456849 0.26203 -1.29741e-22 0.400506 -4.75578e-22 0.156794)
(-0.533466 0.101292 -2.69408e-21 0.285809 -5.56283e-20 -0.100654)
(0.897027 0.109216 -5.11122e-21 0.429161 3.89135e-20 0.528891)
(0.386361 0.26413 3.70001e-21 0.307053 2.84615e-22 0.275767)
(0.0184289 0.25782 1.02894e-21 0.402012 6.39959e-22 0.166574)
(-0.4582 0.0977674 -1.03945e-21 0.29703 1.01968e-19 -0.0660631)
(0.815885 0.108349 2.28262e-21 0.419272 -7.36573e-20 0.492478)
(0.366942 0.261098 1.5537e-21 0.314318 -4.61955e-22 0.270896)
(0.0432035 0.253638 6.91235e-23 0.400571 -7.97126e-22 0.175898)
(-0.378556 0.0952243 4.75003e-21 0.306951 -7.43744e-20 -0.030238)
(0.730476 0.107214 1.60344e-21 0.408795 5.00279e-20 0.454124)
(0.346638 0.257184 -5.78878e-21 0.320842 3.20231e-22 0.265382)
(0.0692508 0.249454 2.0082e-21 0.396995 6.83044e-22 0.184885)
(-0.294155 0.0931392 -2.50753e-21 0.316518 2.15386e-20 0.00735137)
(0.640825 0.105856 -2.91376e-22 0.39766 -6.43919e-20 0.413813)
(0.32533 0.252676 6.97259e-21 0.326915 9.88649e-22 0.259292)
(0.0964898 0.24516 -6.03921e-22 0.391974 -1.6287e-23 0.193777)
(-0.204652 0.0911887 -4.39889e-21 0.326279 1.87922e-20 0.0470596)
(0.546933 0.104322 1.52336e-21 0.38588 5.14158e-20 0.371548)
(0.30295 0.247731 -2.25989e-21 0.332819 -9.23821e-22 0.252708)
(0.124852 0.240621 -4.7277e-21 0.385935 1.84287e-22 0.202712)
(-0.109857 0.0891787 2.51754e-21 0.336512 1.42006e-20 0.0890749)
(0.448775 0.102651 -2.56695e-21 0.373496 -9.3606e-21 0.327336)
(0.27947 0.242432 -1.43939e-21 0.338784 6.88126e-22 0.245709)
(0.154391 0.235723 -1.25067e-22 0.379195 3.40221e-22 0.21184)
(-0.00964327 0.0869963 3.08416e-21 0.347366 -3.41978e-20 0.133507)
(0.346342 0.100861 2.11225e-21 0.360559 -6.83823e-21 0.281192)
(0.254912 0.236798 -5.26007e-21 0.344981 -1.54947e-21 0.238373)
(0.185183 0.230369 1.18423e-21 0.371966 5.15537e-22 0.221273)
(0.096026 0.0845739 4.60987e-21 0.358915 7.14191e-21 0.180399)
(0.239648 0.0989616 -9.47334e-22 0.34712 1.81661e-21 0.233144)
(0.229339 0.230809 2.40773e-21 0.35153 -4.61733e-22 0.23077)
(0.217332 0.224493 -4.82765e-21 0.364396 2.49499e-22 0.231113)
(0.207133 0.0818716 3.44113e-22 0.371196 -2.28306e-20 0.22976)
(0.128783 0.096951 -1.78495e-21 0.333239 -3.79713e-20 0.183251)
(0.202853 0.224425 -5.50412e-21 0.358512 -9.59739e-22 0.222977)
(0.250942 0.218042 1.20287e-21 0.356597 -1.69495e-22 0.241445)
(0.323597 0.0788586 -4.06004e-21 0.384235 2.21919e-20 0.281567)
(0.0139124 0.0948282 1.296e-20 0.318981 2.63921e-20 0.131605)
(0.175591 0.217592 5.74484e-21 0.365983 1.70831e-21 0.215068)
(0.286106 0.21097 1.08122e-21 0.348653 -4.72402e-22 0.252341)
(0.445279 0.0755067 1.20898e-21 0.398046 -5.76993e-20 0.335769)
(-0.104633 0.0926006 -3.80973e-21 0.304445 1.27146e-20 0.0783778)
(0.14775 0.210258 -2.15562e-20 0.373989 -9.4342e-22 0.207142)
(0.322914 0.203236 5.02306e-21 0.340658 -9.9911e-22 0.263874)
(0.571981 0.0717774 -4.95198e-21 0.412653 5.5226e-20 0.392299)
(-0.226484 0.0902783 -2.53094e-20 0.289689 -2.02393e-20 0.0237409)
(0.119535 0.202366 1.51242e-20 0.382539 1.21167e-21 0.199284)
(0.36142 0.194789 1.60214e-20 0.332683 7.81417e-22 0.276095)
(0.703435 0.0676281 7.08398e-21 0.428054 -7.6687e-21 0.451046)
(-0.350783 0.0879217 3.63948e-20 0.274928 5.97834e-21 -0.031877)
(0.0913432 0.193889 -5.105e-21 0.39169 -1.04272e-21 0.191676)
(0.401707 0.185579 -4.9515e-21 0.324854 -1.30507e-21 0.289088)
(0.839252 0.062973 5.95593e-21 0.444292 1.41856e-20 0.511874)
(-0.477224 0.0854746 1.35407e-20 0.259924 -1.02341e-20 -0.0884488)
(0.0634052 0.184686 -6.27397e-21 0.401276 8.11839e-23 0.184345)
(0.443844 0.175465 -2.02457e-20 0.317195 4.25822e-22 0.302888)
(0.979218 0.0577246 2.05089e-20 0.461291 1.36539e-20 0.574666)
(-0.607861 0.082706 -3.43641e-22 0.245187 9.02632e-21 -0.146591)
(0.0356148 0.173722 2.90073e-20 0.412009 2.57152e-21 0.177533)
(0.489502 0.163292 2.45089e-20 0.309523 1.46485e-21 0.318094)
(1.1272 0.0511132 8.63624e-21 0.479425 -2.20764e-20 0.641119)
(-0.7369 0.0809735 -5.00774e-20 0.230638 -2.51782e-20 -0.20402)
(0.00955594 0.163951 -9.78378e-21 0.422968 -4.86396e-21 0.171505)
(0.537243 0.151991 -7.08959e-21 0.302031 3.38055e-22 0.334205)
(1.27752 0.0445113 -8.3153e-20 0.497741 3.98574e-20 0.708582)
(-0.855436 0.0796271 -8.78171e-22 0.216853 3.39794e-20 -0.25694)
(-0.0124321 0.154307 -5.69806e-21 0.433168 -2.79288e-21 0.166802)
(0.584247 0.140584 2.83223e-20 0.295162 2.8415e-21 0.350272)
(1.42093 0.0375095 7.24204e-20 0.515264 -5.21412e-20 0.772959)
(-0.962991 0.0785987 2.63204e-21 0.20352 -2.29219e-20 -0.305289)
(-0.0302117 0.14463 4.66947e-20 0.442182 3.93326e-21 0.163308)
(0.630656 0.128915 -4.54205e-22 0.288356 -4.68862e-21 0.366124)
(1.5572 0.0300097 -1.86906e-20 0.531213 1.35993e-20 0.833852)
(-1.05918 0.077844 3.21337e-20 0.190301 -2.70285e-20 -0.349045)
(-0.0435084 0.134883 -6.00747e-20 0.449617 -7.09894e-21 0.160976)
(0.676722 0.116977 4.00983e-21 0.281187 1.08092e-20 0.381695)
(1.68657 0.022069 -6.49937e-20 0.545157 -3.68435e-20 0.891184)
(-1.1437 0.0773149 -5.29586e-20 0.176626 3.73226e-20 -0.388312)
(-0.0521386 0.125039 -3.0018e-20 0.454893 2.52336e-22 0.159647)
(0.722559 0.104772 1.51405e-20 0.273084 -3.28723e-21 0.3968)
(1.80902 0.0137333 4.56607e-20 0.556454 5.9196e-20 0.944688)
(-1.21622 0.0769168 6.8294e-20 0.161958 -1.03856e-20 -0.423182)
(-0.0559114 0.115066 1.34168e-20 0.457444 -3.35173e-21 0.159171)
(0.768283 0.0923286 -1.19861e-20 0.263491 -4.39535e-21 0.411265)
(1.92458 0.00509491 7.14947e-20 0.564513 -4.6118e-20 0.994141)
(-1.27657 0.0765431 -6.53565e-20 0.145692 9.03737e-21 -0.453818)
(-0.0547281 0.104938 -1.04813e-20 0.456651 2.65989e-21 0.15934)
(0.813918 0.0796824 -1.01493e-19 0.251801 9.23371e-21 0.424854)
(2.03316 -0.00373758 3.30968e-20 0.568672 2.13841e-21 1.03924)
(-1.32461 0.0760625 6.34209e-21 0.127267 -8.35217e-22 -0.480393)
(-0.0485495 0.0946261 -5.6047e-20 0.451933 1.6204e-20 0.159937)
(0.859435 0.0668878 6.45024e-20 0.237437 -1.623e-20 0.437326)
(2.1346 -0.0126234 -5.41217e-21 0.568311 3.31211e-20 1.07968)
(-1.36034 0.0753348 -3.97755e-20 0.106158 -5.12084e-21 -0.503117)
(-0.0374367 0.0841099 4.20019e-20 0.442748 -1.954e-20 0.160721)
(0.904712 0.0540129 -1.50378e-19 0.219862 -1.24763e-20 0.448417)
(2.22868 -0.0214035 -1.99055e-20 0.562845 1.13196e-20 1.11513)
(-1.38387 0.0742124 -1.23076e-19 0.0819361 2.87099e-20 -0.522208)
(-0.0215452 0.0733769 1.47628e-19 0.428654 5.2543e-21 0.161453)
(0.949545 0.041141 1.9439e-20 0.198631 -1.85847e-20 0.457869)
(2.31507 -0.029901 9.89095e-20 0.551792 6.51049e-21 1.14527)
(-1.39548 0.0725515 9.08117e-20 0.0542906 -3.81916e-20 -0.537896)
(-0.00113908 0.0624268 4.95162e-20 0.40933 2.79655e-21 0.161899)
(0.993641 0.0283684 7.04707e-20 0.173418 8.86161e-21 0.465432)
(2.39342 -0.0379316 -7.10728e-20 0.534794 -6.28207e-21 1.16981)
(-1.39556 0.0702186 -1.32093e-19 0.0230666 2.1754e-20 -0.550403)
(0.0234124 0.0512734 6.2488e-20 0.384614 8.1315e-22 0.161847)
(1.03663 0.0158021 7.65046e-20 0.144053 8.70274e-21 0.47089)
(2.46327 -0.0453103 -4.70128e-20 0.511662 2.33428e-21 1.1885)
(-1.38465 0.0670998 1.27437e-19 -0.0117145 5.19919e-21 -0.559939)
(0.051637 0.0399471 4.99464e-20 0.35453 7.86777e-21 0.161116)
(1.07805 0.00355655 -8.82272e-20 0.110539 -1.08086e-20 0.474064)
(2.52416 -0.051861 -1.9258e-20 0.482399 -1.85429e-20 1.20116)
(-1.36345 0.0631085 -4.33757e-20 -0.0498388 8.84658e-21 -0.566694)
(0.0829694 0.0284952 -4.96029e-20 0.319301 2.28749e-20 0.159571)
(1.11741 -0.00824973 1.55719e-21 0.0730793 7.73742e-21 0.474832)
(2.57562 -0.0574256 -3.79708e-20 0.44722 -3.88319e-21 1.20768)
(-1.33277 0.058192 -4.41739e-20 -0.0908981 -2.17323e-20 -0.570829)
(0.116766 0.0169825 1.18139e-19 0.279353 1.63032e-20 0.157123)
(1.15414 -0.019499 -6.85093e-20 0.0320701 -6.58996e-21 0.473132)
(2.61718 -0.0618722 1.26795e-19 0.40656 1.08396e-20 1.20804)
(-1.29352 0.0523363 7.33179e-20 -0.134299 -6.34946e-21 -0.572474)
(0.152322 0.00548991 9.81009e-20 0.235312 -1.25026e-20 0.153742)
(1.18769 -0.0300789 -2.37718e-19 -0.0119006 4.96111e-20 0.468972)
(2.64843 -0.0651028 1.33922e-20 0.361063 -1.69775e-20 1.20235)
(-1.24672 0.045569 1.26433e-19 -0.179288 2.19644e-20 -0.571731)
(0.188896 -0.00588762 -7.15719e-20 0.187974 1.1706e-21 0.14945)
(1.21748 -0.0398869 1.30769e-19 -0.0580779 1.66061e-20 0.462427)
(2.66903 -0.0670588 -1.53798e-19 0.311565 -8.33247e-21 1.1908)
(-1.19343 0.0379597 -4.03792e-20 -0.224986 2.17702e-21 -0.568675)
(0.225734 -0.0170443 1.24797e-19 0.138277 1.76511e-21 0.144319)
(1.24298 -0.0488347 4.93312e-20 -0.105574 -3.34117e-20 0.453638)
(2.67873 -0.0677251 -1.07493e-19 0.259055 1.46986e-20 1.17368)
(-1.13474 0.0296173 -1.34486e-19 -0.270436 2.71433e-20 -0.563365)
(0.262096 -0.0278674 -4.75198e-20 0.0872494 -1.07145e-20 0.138466)
(1.2637 -0.0568523 7.99381e-20 -0.153415 -1.57511e-20 0.4428)
(2.67742 -0.0671306 1.87721e-19 0.204627 -9.10816e-21 1.1514)
(-1.07177 0.0206849 1.30524e-19 -0.314658 -2.56173e-20 -0.555848)
(0.297278 -0.0382423 -2.42778e-19 0.0359627 -1.8e-22 0.132037)
(1.27924 -0.0638903 8.68876e-20 -0.200591 -4.89857e-20 0.430155)
(2.66512 -0.0653466 -1.3986e-19 0.149427 2.731e-20 1.12441)
(-1.00559 0.0113324 2.96129e-19 -0.3567 9.80652e-21 -0.546177)
(0.330641 -0.0480572 -2.93751e-19 -0.0145286 2.66402e-20 0.125198)
(1.28928 -0.0699215 3.28556e-19 -0.246114 -9.29819e-21 0.415971)
(2.642 -0.0624822 3.48346e-20 0.094592 3.87708e-20 1.09324)
(-0.937242 0.00174727 2.16688e-19 -0.395697 1.33084e-20 -0.534418)
(0.361624 -0.0572081 5.90604e-20 -0.0632378 -2.36404e-20 0.118121)
(1.29361 -0.0749409 -7.54225e-20 -0.289067 1.63697e-20 0.400533)
(2.60837 -0.0586774 -1.616e-19 0.0411932 -3.24025e-20 1.05844)
(-0.86768 -0.00787578 -3.63534e-20 -0.430906 -3.595e-20 -0.520661)
(0.389765 -0.0656033 -1.65814e-20 -0.109293 -4.56348e-21 0.110968)
(1.29214 -0.0789648 -1.90636e-19 -0.328653 1.71437e-20 0.384122)
(2.56469 -0.0540944 6.33818e-20 -0.0098137 2.04362e-20 1.02058)
(-0.797785 -0.0173447 2.11913e-19 -0.461749 1.68132e-20 -0.505024)
(0.414702 -0.0731668 5.88125e-22 -0.15197 3.60013e-20 0.103884)
(1.28489 -0.0820279 1.19954e-19 -0.364226 2.90535e-20 0.367007)
(2.51157 -0.0489078 1.78597e-19 -0.0576266 -2.229e-20 0.980224)
(-0.728335 -0.0264799 4.95465e-20 -0.487821 -9.83869e-21 -0.487657)
(0.436184 -0.0798413 -1.07724e-19 -0.190717 -1.70944e-20 0.096991)
(1.272 -0.0841805 -9.35415e-20 -0.395313 -1.65666e-20 0.349431)
(2.44971 -0.043295 -2.27812e-19 -0.101621 7.37813e-21 0.937901)
(-0.660007 -0.0351215 7.02795e-20 -0.508903 -3.96503e-20 -0.468743)
(0.454063 -0.0855892 -2.68046e-19 -0.225162 2.01707e-20 0.0903775)
(1.25372 -0.0854844 2.023e-21 -0.421623 9.72367e-21 0.331607)
(2.37993 -0.0374273 -3.29255e-20 -0.141362 -2.08648e-20 0.89411)
(-0.593372 -0.0431361 4.10412e-20 -0.524948 3.73531e-20 -0.448493)
(0.468287 -0.090393 1.93395e-19 -0.255104 7.16172e-21 0.084103)
(1.23036 -0.0860095 -1.21355e-19 -0.443038 -3.97915e-21 0.313713)
(2.3031 -0.0314621 -2.05003e-19 -0.176595 4.82535e-20 0.849305)
(-0.5289 -0.0504197 -7.76188e-20 -0.536067 5.79376e-22 -0.427136)
(0.478891 -0.0942541 1.99763e-19 -0.280507 3.54791e-20 0.0781969)
(1.20234 -0.0858297 -2.18251e-19 -0.459601 -8.11647e-20 0.295893)
(2.22015 -0.0255374 2.32258e-19 -0.207236 -1.7592e-20 0.803892)
(-0.466965 -0.0568993 4.53004e-20 -0.542498 3.40589e-21 -0.404921)
(0.485983 -0.0971918 5.59511e-20 -0.301467 -1.92702e-20 0.0726626)
(1.1701 -0.0850201 1.27515e-19 -0.471487 -2.21873e-20 0.27826)
(2.13205 -0.0197683 -1.13132e-19 -0.233348 2.95218e-20 0.758228)
(-0.407859 -0.062533 1.07588e-19 -0.544586 -1.85915e-20 -0.382099)
(0.489726 -0.0992406 -1.59111e-19 -0.318194 8.35528e-20 0.0674821)
(1.13414 -0.0836544 2.88118e-20 -0.478983 1.50871e-20 0.260894)
(2.03975 -0.0142451 -1.22737e-19 -0.255109 -7.3103e-21 0.712628)
(-0.351797 -0.0673072 3.07835e-19 -0.542744 -1.72973e-20 -0.358924)
(0.490326 -0.100448 -1.79019e-20 -0.330982 -9.69238e-20 0.0626204)
(1.09497 -0.0818033 -1.41075e-19 -0.482454 7.08681e-20 0.243854)
(1.9442 -0.00903376 -2.54386e-19 -0.272787 2.60908e-20 0.66736)
(-0.298933 -0.0712335 -3.1869e-20 -0.537432 4.83794e-21 -0.33564)
(0.488016 -0.100871 1.46119e-19 -0.340178 8.84445e-20 0.0580314)
(1.05311 -0.0795329 2.91618e-19 -0.482316 -4.38292e-20 0.227179)
(1.84631 -0.00417688 2.55489e-19 -0.286712 -1.21458e-20 0.622655)
(-0.249371 -0.0743452 -1.08443e-19 -0.52913 -3.93009e-21 -0.312481)
(0.483043 -0.100575 -7.31472e-20 -0.346164 -1.67097e-20 0.0536613)
(1.00904 -0.0769045 -4.10761e-19 -0.479014 4.01642e-21 0.210891)
(1.74693 0.000303298 -4.60612e-20 -0.29725 -1.25302e-20 0.57871)
(-0.203176 -0.0766921 -2.72255e-20 -0.518316 3.82698e-21 -0.289665)
(0.475659 -0.0996285 3.50172e-20 -0.349333 8.17313e-20 0.0494532)
(0.963257 -0.0739741 3.25036e-19 -0.472999 -3.31692e-20 0.194999)
(1.64686 0.00440198 -2.11972e-19 -0.304782 -5.98694e-21 0.535691)
(-0.160379 -0.0783364 1.40149e-19 -0.505453 2.61931e-20 -0.267388)
(0.466108 -0.0981052 1.26136e-19 -0.350073 -1.77662e-20 0.0453499)
(0.916195 -0.0707924 -3.53447e-19 -0.464712 2.4201e-21 0.179505)
(1.54683 0.00812834 -8.8254e-20 -0.309687 -3.0544e-21 0.493735)
(-0.120992 -0.0793485 -5.98889e-19 -0.490972 -1.54304e-20 -0.245828)
(0.454622 -0.0960771 2.70549e-19 -0.348755 8.82033e-21 0.0412961)
(0.868264 -0.0674048 8.21848e-20 -0.454569 6.14531e-21 0.164406)
(1.44747 0.0115021 4.49109e-19 -0.312328 -3.76819e-20 0.452958)
(-0.0850084 -0.0798026 2.05724e-19 -0.47527 -1.27521e-20 -0.225141)
(0.441417 -0.0936156 -2.34216e-19 -0.345721 -3.5759e-21 0.0372404)
(0.819827 -0.0638523 3.65736e-19 -0.442956 -2.39494e-20 0.149692)
(1.34937 0.0145505 -4.57747e-19 -0.313043 6.76384e-20 0.413451)
(-0.0524102 -0.0797742 -1.35838e-20 -0.458697 3.55513e-20 -0.20546)
(0.426686 -0.0907891 -2.20296e-19 -0.341284 -6.32862e-20 0.0331361)
(0.771203 -0.0601709 1.91425e-19 -0.430219 4.33786e-20 0.135353)
(1.25301 0.017305 -3.59319e-19 -0.312142 7.29015e-22 0.375288)
(-0.0231708 -0.0793365 -7.61383e-20 -0.441561 -1.41744e-20 -0.186898)
(0.410602 -0.0876617 2.60866e-19 -0.335717 2.94028e-20 0.0289423)
(0.72267 -0.0563925 -6.55993e-20 -0.416664 -3.5694e-20 0.121377)
(1.15882 0.0197998 1.38894e-19 -0.309899 1.64638e-20 0.338526)
(0.00274245 -0.0785594 -1.27048e-19 -0.424125 3.96618e-21 -0.169546)
(0.393316 -0.0842928 -7.26042e-20 -0.329258 -1.48327e-20 0.0246238)
(0.67446 -0.0525452 -8.13814e-21 -0.402555 5.4923e-20 0.107751)
(1.06713 0.0220689 5.81675e-20 -0.306551 -2.02519e-20 0.303208)
(0.0253666 -0.0775073 -5.237e-20 -0.406606 8.97115e-21 -0.153477)
(0.374954 -0.0807364 1.06108e-19 -0.322109 -6.42748e-20 0.0201515)
(0.626767 -0.0486532 1.21213e-19 -0.388115 3.81408e-20 0.0944639)
(0.978232 0.0241459 -4.66496e-22 -0.302303 -1.08018e-20 0.269365)
(0.044742 -0.0762391 -8.69195e-20 -0.389183 3.11686e-20 -0.138746)
(0.355628 -0.0770407 -4.5479e-20 -0.314437 -6.72615e-20 0.015502)
(0.579746 -0.0447376 1.73712e-19 -0.373529 7.46993e-20 0.0815048)
(0.892338 0.0260621 -1.79085e-19 -0.297324 -8.02103e-21 0.237015)
(0.0609114 -0.0748073 -1.93006e-19 -0.371997 1.9287e-20 -0.125392)
(0.335425 -0.0732486 -8.40238e-20 -0.306377 6.99626e-20 0.0106574)
(0.533523 -0.040816 -1.97563e-19 -0.358943 -8.90642e-20 0.0688635)
(0.809615 0.0278467 2.12958e-20 -0.291754 -6.57458e-21 0.20617)
(0.0739194 -0.0732584 -1.39297e-19 -0.355156 -3.40676e-20 -0.11344)
(0.314421 -0.0693973 3.15623e-20 -0.298035 4.32156e-20 0.00560476)
(0.488189 -0.0369036 7.6013e-20 -0.344473 -8.13945e-20 0.0565315)
(0.730181 0.0295261 2.35815e-19 -0.285703 -1.10286e-20 0.176832)
(0.083812 -0.0716335 9.53344e-20 -0.338737 -3.27853e-21 -0.102904)
(0.292673 -0.0655191 -1.15047e-19 -0.289491 4.97226e-20 0.000335587)
(0.443813 -0.0330127 -9.44096e-20 -0.330206 6.92773e-21 0.0445013)
(0.654113 0.0311246 1.80562e-21 -0.279255 -3.7557e-20 0.148998)
(0.0906363 -0.0699684 -3.18248e-19 -0.322792 1.66376e-21 -0.0937846)
(0.270228 -0.061642 3.72638e-19 -0.280801 1.60978e-20 -0.00515445)
(0.400439 -0.0291532 3.85072e-19 -0.3162 -6.31405e-21 0.0327671)
(0.581451 0.0326639 -3.14377e-19 -0.272473 -4.01245e-21 0.12266)
(0.0944399 -0.0682949 5.89839e-20 -0.307351 2.52949e-20 -0.0860755)
(0.247118 -0.0577898 -5.6821e-20 -0.272001 -7.55214e-20 -0.0108664)
(0.358093 -0.0253324 -1.91526e-19 -0.302494 1.3227e-19 0.0213237)
(0.512205 0.0341645 -3.61034e-20 -0.265399 -3.19362e-20 0.0978053)
(0.0952713 -0.0666418 -5.09631e-20 -0.292423 -1.86068e-20 -0.0797604)
(0.223368 -0.0539838 3.7508e-19 -0.263108 -1.40797e-19 -0.0167976)
(0.316781 -0.0215549 -2.40429e-19 -0.289101 1.59846e-19 0.0101681)
(0.446362 0.035646 -7.96837e-20 -0.258054 2.42246e-21 0.0744185)
(0.0931786 -0.0650366 -5.15282e-19 -0.277998 -2.94125e-21 -0.0748165)
(0.198987 -0.0502437 -1.088e-19 -0.254121 1.35179e-19 -0.0229443)
(0.276491 -0.0178219 3.9595e-19 -0.276019 3.13451e-21 -0.000703354)
(0.383883 0.0371285 -5.03465e-19 -0.250446 -2.01075e-20 0.0524824)
(0.0882171 -0.0635091 -1.05334e-19 -0.264046 -2.42436e-20 -0.0712096)
(0.173975 -0.0465918 3.20347e-19 -0.245018 3.55414e-20 -0.0292969)
(0.237197 -0.0141282 -3.72388e-20 -0.263219 4.7172e-20 -0.0112898)
(0.324721 0.0386363 -2.91799e-19 -0.242561 1.7001e-20 0.0319833)
(0.0804425 -0.0620962 6.44726e-19 -0.250515 2.02774e-20 -0.068897)
(0.148291 -0.0430581 -2.10258e-19 -0.235755 1.58472e-19 -0.0358552)
(0.198826 -0.0104581 2.95144e-19 -0.250652 1.06631e-20 -0.0216007)
(0.268812 0.0402014 3.18654e-19 -0.234365 -4.41115e-20 0.0129093)
(0.0699682 -0.0608592 -7.11998e-20 -0.237312 -5.69443e-20 -0.0677956)
(0.121893 -0.0396991 -3.71475e-19 -0.226229 -2.08279e-20 -0.0425938)
(0.161301 -0.00676871 1.86248e-19 -0.238205 -1.09719e-20 -0.0316216)
(0.216138 0.0418808 -3.26605e-19 -0.22578 5.58373e-20 -0.00471632)
(0.0569083 -0.0598973 -2.39654e-19 -0.224294 -8.23469e-21 -0.0678032)
(0.0945088 -0.036615 2.22503e-19 -0.216325 5.78898e-21 -0.0495767)
(0.124311 -0.00297374 3.2254e-20 -0.225755 -2.17727e-19 -0.0414281)
(0.166666 0.0437694 1.08982e-19 -0.216682 5.21197e-21 -0.0208563)
(0.0417729 -0.059436 4.10075e-19 -0.211128 1.08202e-19 -0.0685826)
(0.0660039 -0.0340258 -3.98025e-19 -0.205644 4.81538e-20 -0.0566974)
(0.087676 0.00112941 -2.25137e-19 -0.212892 -3.62934e-20 -0.0509279)
(0.120742 0.0460866 -2.14233e-19 -0.206754 5.13511e-20 -0.0352459)
(0.0248582 -0.0597794 -1.7103e-19 -0.197362 -7.58976e-20 -0.0698341)
(0.0348256 -0.0322257 2.64937e-19 -0.194154 -8.49811e-20 -0.0645651)
(0.0497871 0.00581207 6.09531e-19 -0.199572 1.98647e-19 -0.0607477)
(0.0785013 0.0491304 -3.3659e-19 -0.195552 -3.80911e-20 -0.0476532)
(0.00883794 -0.0615597 2.28136e-19 -0.181728 6.64811e-21 -0.0699814)
(0.00147477 -0.0316647 2.39666e-19 -0.180719 -8.941e-20 -0.0725242)
(0.0110552 0.0114879 -3.88642e-20 -0.184652 1.83328e-20 -0.0702653)
(0.0423879 0.0535196 3.55285e-19 -0.181817 -2.16034e-20 -0.056597)
(-0.00782987 -0.063865 -7.13884e-20 -0.164391 3.39147e-20 -0.0697074)
(-0.041611 -0.0315342 1.36021e-19 -0.170299 4.19758e-20 -0.0855844)
(-0.0361693 0.0172802 5.87477e-20 -0.173073 9.52493e-20 -0.0845175)
(0.0107689 0.0583215 -2.3385e-19 -0.165637 7.27045e-20 -0.0627663)
(-0.0140256 -0.0633683 1.48029e-19 -0.149336 1.43259e-20 -0.066158)
(-0.077566 -0.0294064 -4.66663e-19 -0.168543 1.20379e-19 -0.0992591)
(-0.0753006 0.0206696 6.42761e-20 -0.170613 -1.42576e-19 -0.099181)
(-0.00582428 0.0600349 -6.88455e-19 -0.151093 -1.45835e-21 -0.0635803)
(-0.052408 -0.0429705 -7.30852e-20 -0.184104 -7.8475e-20 -0.0954158)
(-0.136018 -0.0187258 4.95145e-20 -0.245622 -1.77811e-20 -0.153471)
(-0.135445 0.0153575 -2.03871e-19 -0.247875 8.03496e-20 -0.154143)
(-0.0490745 0.0411485 2.86732e-19 -0.186285 -2.61699e-20 -0.0949546)
)
;

boundaryField
{
    plateFix
    {
        type            calculated;
        value           nonuniform List<symmTensor> 4((1.4146 0.175187 -1.38277e-21 0.682107 7.94203e-20 0.8372) (0.47099 0.0981504 -5.09098e-24 0.283175 5.00262e-23 0.300629) (0.0124531 0.163372 4.16971e-23 0.101429 -5.43715e-23 0.0445136) (-1.06714 0.353111 -1.2981e-21 -0.219331 -1.19599e-19 -0.516085));
    }
    plate
    {
        type            calculated;
        value           nonuniform List<symmTensor> 
168
(
(1.17656 -8.1016e-05 -3.28943e-22 0.346383 1.47191e-23 0.607688)
(-0.668844 -0.000117327 -3.25961e-22 0.37358 -2.69264e-20 -0.119604)
(1.17544 1.16421e-05 1.88591e-21 0.346955 1.05077e-21 0.607454)
(-0.680536 -0.000165451 1.53874e-21 0.374144 -2.40247e-24 -0.124072)
(1.16747 0.000333006 -3.26303e-21 0.347623 -6.33495e-20 0.604505)
(-0.695139 -0.00044702 -4.92269e-21 0.37481 3.36478e-20 -0.129676)
(1.13562 0.000835325 7.50589e-22 0.34828 8.81439e-22 0.592016)
(-0.672471 -0.000913814 4.12783e-21 0.375472 -2.99152e-20 -0.120356)
(1.09309 0.00148287 9.03403e-22 0.348859 5.39551e-20 0.575225)
(-0.638247 -0.00153181 1.49139e-21 0.376061 -1.88034e-21 -0.106441)
(1.04018 0.002239 7.87935e-22 0.349304 -5.05365e-20 0.554233)
(-0.590462 -0.00226293 -1.23577e-21 0.376524 -8.64979e-22 -0.0871478)
(0.980324 0.00306564 -3.28931e-21 0.34959 2.35054e-20 0.530401)
(-0.53491 -0.00306846 1.10727e-21 0.376834 -2.45418e-20 -0.0648069)
(0.914653 0.00392872 3.47214e-21 0.34971 2.17268e-20 0.504178)
(-0.472526 -0.00391328 -2.69824e-21 0.376986 -7.50722e-22 -0.0397952)
(0.844236 0.00480138 -5.1055e-21 0.349672 -3.92374e-20 0.475993)
(-0.404694 -0.0047697 -1.03463e-21 0.376986 2.1513e-20 -0.0126637)
(0.769561 0.00566453 2.26723e-21 0.34949 3.64306e-20 0.44605)
(-0.331753 -0.00561783 4.73966e-21 0.376852 1.93847e-21 0.0164584)
(0.690913 0.0065068 1.61686e-21 0.349187 -3.35747e-20 0.414469)
(-0.253916 -0.00644578 -2.50048e-21 0.376606 1.83788e-20 0.0474945)
(0.608393 0.00732422 -3.09943e-22 0.348788 2.93214e-20 0.381302)
(-0.171171 -0.00724914 -4.39343e-21 0.376275 -1.60845e-20 0.0804613)
(0.522018 0.00811958 1.53062e-21 0.348324 -9.50238e-21 0.346568)
(-0.0834825 -0.00803053 2.51632e-21 0.375893 -4.08277e-22 0.115386)
(0.431764 0.00890196 -2.57049e-21 0.34783 -1.53639e-20 0.31027)
(0.00920446 -0.00879903 3.07649e-21 0.375494 9.96781e-21 0.152304)
(0.337611 0.00968638 2.11372e-21 0.347343 1.09287e-20 0.272418)
(0.106907 -0.00956985 4.61408e-21 0.375122 -1.15133e-20 0.19124)
(0.239572 0.0104938 -9.48719e-22 0.346909 1.18015e-20 0.233032)
(0.209614 -0.0103643 3.42666e-22 0.374823 -5.07972e-23 0.232207)
(0.13773 0.0113516 -1.78717e-21 0.34658 -1.24771e-20 0.192168)
(0.317263 -0.0112104 -4.05451e-21 0.374654 -8.88e-21 0.275204)
(0.0322442 0.0122938 1.29618e-20 0.346413 1.44436e-20 0.149912)
(0.429747 -0.0121431 1.20284e-21 0.374676 7.80832e-21 0.320212)
(-0.0765719 0.0133677 -3.81149e-21 0.346485 6.53193e-24 0.106419)
(0.546904 -0.0132111 -4.94568e-21 0.374972 1.36649e-20 0.367199)
(-0.188358 0.0146199 -2.53088e-20 0.346839 -1.1317e-20 0.0618519)
(0.6685 -0.0144631 7.08887e-21 0.37559 -1.18759e-20 0.41609)
(-0.302297 0.0161531 3.63959e-20 0.347632 -9.22523e-21 0.0165993)
(0.794224 -0.0160052 5.95209e-21 0.376694 -1.034e-20 0.466827)
(-0.418063 0.0179919 1.35397e-20 0.348657 4.01146e-21 -0.029291)
(0.923779 -0.0178671 2.05049e-20 0.378083 1.79107e-20 0.519211)
(-0.53767 0.0205182 -3.43455e-22 0.350484 2.26295e-22 -0.0763962)
(1.06117 -0.0204313 8.62877e-21 0.380336 -7.54253e-21 0.575074)
(-0.655752 0.0236646 -5.00778e-20 0.35239 -2.52001e-22 -0.122859)
(1.2009 -0.0236303 -8.31508e-20 0.382763 -2.46382e-22 0.631942)
(-0.763845 0.0272706 -8.91253e-22 0.354288 2.81656e-22 -0.16533)
(1.33424 -0.0273167 7.242e-20 0.385208 7.70704e-21 0.686265)
(-0.861679 0.0313533 2.64188e-21 0.355556 -2.30913e-22 -0.203949)
(1.46111 -0.0315068 -1.86988e-20 0.387061 -1.54581e-20 0.737758)
(-0.948889 0.035833 3.21397e-20 0.355824 2.57521e-22 -0.238719)
(1.58175 -0.0361271 -6.49794e-20 0.387931 7.78264e-21 0.786371)
(-1.02521 0.0406407 -5.29676e-20 0.354455 6.84862e-21 -0.269786)
(1.69616 -0.0411111 4.56512e-20 0.387171 2.43943e-22 0.831836)
(-1.09035 0.0456474 6.82887e-20 0.350885 -7.29533e-21 -0.29726)
(1.80436 -0.0463334 7.14902e-20 0.384194 -7.74772e-21 0.873929)
(-1.14413 0.0507108 -6.53583e-20 0.344475 -5.31317e-22 -0.321328)
(1.90625 -0.0516531 3.31011e-20 0.378334 7.78856e-21 0.912346)
(-1.18645 0.0556549 6.33356e-21 0.334638 2.12832e-22 -0.34218)
(2.00169 -0.0568953 -5.44332e-21 0.368975 8.24439e-22 0.946784)
(-1.21731 0.0602914 -3.97776e-20 0.32083 -3.11613e-21 -0.360036)
(2.09046 -0.0618709 -1.99121e-20 0.355541 -4.47298e-21 0.976919)
(-1.23684 0.0644203 -1.23076e-19 0.302615 4.20492e-21 -0.375123)
(2.17223 -0.0663776 9.8892e-20 0.337558 4.53573e-21 1.00244)
(-1.2453 0.067844 9.08163e-20 0.279683 -2.69692e-21 -0.387667)
(2.24666 -0.0702142 -7.1071e-20 0.314682 3.02867e-21 1.02307)
(-1.24308 0.0703759 -1.32101e-19 0.251893 2.8084e-21 -0.397882)
(2.31331 -0.0731885 -4.70099e-20 0.286737 -5.70378e-21 1.03855)
(-1.23071 0.0718514 1.27437e-19 0.219292 2.01074e-21 -0.405961)
(2.37172 -0.0751291 -1.92234e-20 0.253741 2.58029e-21 1.04872)
(-1.20886 0.072138 -4.33734e-20 0.182134 1.90421e-21 -0.412067)
(2.42142 -0.0758953 -3.79611e-20 0.21592 2.76184e-21 1.05348)
(-1.1783 0.0711432 -4.41588e-20 0.140877 1.20883e-21 -0.416329)
(2.46197 -0.075385 1.2678e-19 0.173718 1.3503e-21 1.05282)
(-1.1399 0.0688211 7.33345e-20 0.0961764 -1.2643e-21 -0.418835)
(2.49293 -0.0735423 1.33969e-20 0.12778 -4.49592e-21 1.04684)
(-1.09464 0.0651765 1.26413e-19 0.048857 1.41365e-21 -0.419639)
(2.51398 -0.070361 -1.53778e-19 0.0789353 1.54655e-22 1.03573)
(-1.04352 0.0602648 -4.03814e-20 -0.000123263 2.74407e-22 -0.418766)
(2.52485 -0.0658857 -1.07513e-19 0.0281549 -3.11267e-21 1.01977)
(-0.987586 0.0541903 -1.34521e-19 -0.0497239 -7.92889e-23 -0.416216)
(2.52542 -0.0602103 1.8772e-19 -0.0234951 -4.03456e-21 0.999347)
(-0.927889 0.0471001 1.30567e-19 -0.0988765 1.9367e-21 -0.41198)
(2.51566 -0.0534725 -1.39903e-19 -0.074911 -7.17764e-21 0.974889)
(-0.865448 0.0391762 2.961e-19 -0.146543 1.33318e-21 -0.406053)
(2.49572 -0.0458462 3.47812e-20 -0.125011 6.38125e-21 0.946884)
(-0.801238 0.030625 2.16666e-19 -0.19177 6.18471e-23 -0.398443)
(2.46586 -0.0375318 -1.61534e-19 -0.172791 3.75865e-21 0.915842)
(-0.736167 0.021666 -3.63272e-20 -0.233732 -3.13918e-21 -0.389183)
(2.42649 -0.0287444 6.33454e-20 -0.217375 -2.00474e-21 0.882277)
(-0.671059 0.0125206 2.11891e-19 -0.27177 -9.33655e-22 -0.378339)
(2.37815 -0.0197035 1.78622e-19 -0.258048 -7.36053e-21 0.846689)
(-0.606643 0.00340091 4.95633e-20 -0.305405 -3.32409e-21 -0.36601)
(2.32149 -0.0106213 -2.27814e-19 -0.294284 3.4917e-22 0.809548)
(-0.543547 -0.00549939 7.03707e-20 -0.334345 3.10228e-21 -0.352333)
(2.25725 -0.00169363 -3.28796e-20 -0.325744 3.52122e-21 0.771285)
(-0.4823 -0.0140121 4.09698e-20 -0.358479 -1.23467e-22 -0.337473)
(2.18624 0.00690733 -2.05082e-19 -0.352281 -1.01969e-20 0.732286)
(-0.42333 -0.0219995 -7.76228e-20 -0.377855 1.37049e-22 -0.32162)
(2.10932 0.0150384 2.32293e-19 -0.373909 -3.99181e-22 0.692889)
(-0.366973 -0.0293568 4.53111e-20 -0.392657 -7.69809e-22 -0.304984)
(2.02739 0.0225882 -1.1319e-19 -0.39079 -6.46903e-21 0.653386)
(-0.313485 -0.0360125 1.07593e-19 -0.403172 -1.06842e-21 -0.287781)
(1.94134 0.0294776 -1.22728e-19 -0.403196 -6.52825e-21 0.614027)
(-0.263048 -0.0419267 3.07846e-19 -0.409767 3.66191e-21 -0.27023)
(1.85206 0.0356589 -2.54436e-19 -0.411482 -6.08593e-21 0.575025)
(-0.215786 -0.0470885 -3.19033e-20 -0.412854 -5.219e-21 -0.252547)
(1.76041 0.0411129 2.55507e-19 -0.416057 -7.47243e-22 0.536557)
(-0.171772 -0.0515113 -1.08452e-19 -0.412869 1.39795e-22 -0.234934)
(1.6672 0.0458452 -4.60348e-20 -0.417358 2.92748e-22 0.498773)