/*--------------------------------*- C++ -*----------------------------------*\
| =========                 |                                                 |
| \\      /  F ield         | OpenFOAM Extend Project: Open source CFD        |
|  \\    /   O peration     | Version:  1.6-ext                               |
|   \\  /    A nd           | Web:      www.extend-project.de                 |
|    \\/     M anipulation  |                                                 |
\*---------------------------------------------------------------------------*/
FoamFile
{
    version     2.0;
    format      ascii;
    class       volVectorField;
    location    "0.4";
    object      Usolid;
}
// * * * * * * * * * * * * * * * * * * * * * * * * * * * * * * * * * * * * * //

dimensions      [0 1 0 0 0 0 0];

internalField   nonuniform List<vector> 
328
(
(2.88965e-08 3.71834e-08 0)
(8.46981e-09 1.16823e-08 0)
(-1.63146e-09 1.78149e-08 0)
(-2.74404e-08 6.63294e-08 0)
(8.78587e-08 1.08605e-07 0)
(2.70915e-08 5.2371e-08 0)
(-8.27884e-09 7.02264e-08 0)
(-8.26797e-08 1.83383e-07 0)
(1.51929e-07 1.85491e-07 0)
(4.84916e-08 1.13101e-07 0)
(-2.28292e-08 1.42014e-07 0)
(-1.45209e-07 2.94361e-07 0)
(2.18677e-07 2.72682e-07 0)
(7.08838e-08 1.94607e-07 0)
(-4.08413e-08 2.33068e-07 0)
(-2.10715e-07 4.06091e-07 0)
(2.87552e-07 3.74546e-07 0)
(9.39097e-08 2.97519e-07 0)
(-6.23101e-08 3.43713e-07 0)
(-2.79047e-07 5.25217e-07 0)
(3.57385e-07 4.9479e-07 0)
(1.16933e-07 4.23169e-07 0)
(-8.55856e-08 4.75177e-07 0)
(-3.48681e-07 6.57146e-07 0)
(4.27311e-07 6.36652e-07 0)
(1.3968e-07 5.73103e-07 0)
(-1.10062e-07 6.29151e-07 0)
(-4.18802e-07 8.06537e-07 0)
(4.9635e-07 8.03006e-07 0)
(1.61865e-07 7.49194e-07 0)
(-1.34883e-07 8.07754e-07 0)
(-4.88353e-07 9.77341e-07 0)
(5.63505e-07 9.96455e-07 0)
(1.83265e-07 9.53449e-07 0)
(-1.59452e-07 1.01331e-06 0)
(-5.5632e-07 1.17302e-06 0)
(6.27656e-07 1.21939e-06 0)
(2.03622e-07 1.18794e-06 0)
(-1.83136e-07 1.2482e-06 0)
(-6.21525e-07 1.39662e-06 0)
(6.87551e-07 1.47393e-06 0)
(2.22628e-07 1.45467e-06 0)
(-2.0535e-07 1.51472e-06 0)
(-6.82639e-07 1.65076e-06 0)
(7.41749e-07 1.76191e-06 0)
(2.39896e-07 1.75541e-06 0)
(-2.25467e-07 1.81486e-06 0)
(-7.38108e-07 1.93762e-06 0)
(7.88599e-07 2.08465e-06 0)
(2.54955e-07 2.09147e-06 0)
(-2.42819e-07 2.15012e-06 0)
(-7.86135e-07 2.25878e-06 0)
(8.26191e-07 2.44277e-06 0)
(2.67232e-07 2.46349e-06 0)
(-2.5666e-07 2.52125e-06 0)
(-8.24634e-07 2.61504e-06 0)
(8.52335e-07 2.83587e-06 0)
(2.76055e-07 2.87111e-06 0)
(-2.66149e-07 2.92795e-06 0)
(-8.51205e-07 3.00612e-06 0)
(8.64517e-07 3.26215e-06 0)
(2.80649e-07 3.31252e-06 0)
(-2.70323e-07 3.36846e-06 0)
(-8.63095e-07 3.43025e-06 0)
(8.59878e-07 3.71789e-06 0)
(2.80132e-07 3.78401e-06 0)
(-2.68081e-07 3.83906e-06 0)
(-8.57168e-07 3.88375e-06 0)
(8.35177e-07 4.19681e-06 0)
(2.73515e-07 4.27929e-06 0)
(-2.58163e-07 4.33346e-06 0)
(-8.29871e-07 4.36035e-06 0)
(7.8678e-07 4.68933e-06 0)
(2.59701e-07 4.78874e-06 0)
(-2.3913e-07 4.84203e-06 0)
(-7.772e-07 4.85045e-06 0)
(7.1065e-07 5.18161e-06 0)
(2.37497e-07 5.29848e-06 0)
(-2.09346e-07 5.35084e-06 0)
(-6.94666e-07 5.34019e-06 0)
(6.02311e-07 5.65439e-06 0)
(2.05604e-07 5.78913e-06 0)
(-1.66961e-07 5.84053e-06 0)
(-5.77266e-07 5.81024e-06 0)
(4.57015e-07 6.08165e-06 0)
(1.62702e-07 6.23455e-06 0)
(-1.09886e-07 6.28487e-06 0)
(-4.19491e-07 6.23444e-06 0)
(2.62254e-07 6.44198e-06 0)
(1.05258e-07 6.61388e-06 0)
(-3.29102e-08 6.66294e-06 0)
(-2.07309e-07 6.59116e-06 0)
(1.64526e-08 6.65996e-06 0)
(3.30135e-08 6.85061e-06 0)
(6.54301e-08 6.89809e-06 0)
(6.21249e-08 6.80457e-06 0)
(-2.63798e-07 6.68473e-06 0)
(-4.86618e-08 6.8924e-06 0)
(1.793e-07 6.93795e-06 0)
(3.71956e-07 6.82368e-06 0)
(-5.75385e-07 6.49227e-06 0)
(-1.38356e-07 6.71506e-06 0)
(3.08406e-07 6.75817e-06 0)
(7.20241e-07 6.62393e-06 0)
(-9.15027e-07 6.06021e-06 0)
(-2.34499e-07 6.29606e-06 0)
(4.52641e-07 6.33601e-06 0)
(1.10525e-06 6.1824e-06 0)
(-1.27925e-06 5.36793e-06 0)
(-3.35359e-07 5.61454e-06 0)
(6.1203e-07 5.65044e-06 0)
(1.52535e-06 5.47786e-06 0)
(-1.66436e-06 4.3965e-06 0)
(-4.3903e-07 4.65137e-06 0)
(7.86754e-07 4.68211e-06 0)
(1.97905e-06 4.49077e-06 0)
(-2.06649e-06 3.12874e-06 0)
(-5.43444e-07 3.38914e-06 0)
(9.77127e-07 3.41342e-06 0)
(2.46496e-06 3.20336e-06 0)
(-2.4816e-06 1.54922e-06 0)
(-6.46391e-07 1.81223e-06 0)
(1.18358e-06 1.82857e-06 0)
(2.9818e-06 1.59966e-06 0)
(-2.90551e-06 -3.55753e-07 0)
(-7.45554e-07 -9.32119e-08 0)
(1.40665e-06 -8.64417e-08 0)
(3.52834e-06 -3.34457e-07 0)
(-3.33398e-06 -2.59808e-06 0)
(-8.38547e-07 -2.33919e-06 0)
(1.64689e-06 -2.34372e-06 0)
(4.10338e-06 -2.61119e-06 0)
(-3.76274e-06 -5.18791e-06 0)
(-9.2297e-07 -4.9359e-06 0)
(1.90488e-06 -4.9535e-06 0)
(4.7057e-06 -5.2408e-06 0)
(-4.18757e-06 -8.13358e-06 0)
(-9.9647e-07 -7.89164e-06 0)
(2.18116e-06 -7.92408e-06 0)
(5.334e-06 -8.23155e-06 0)
(-4.60439e-06 -1.14417e-05 0)
(-1.05681e-06 -1.12129e-05 0)
(2.47612e-06 -1.12618e-05 0)
(5.98689e-06 -1.15897e-05 0)
(-5.00932e-06 -1.51169e-05 0)
(-1.10192e-06 -1.49042e-05 0)
(2.79004e-06 -1.49711e-05 0)
(6.66277e-06 -1.53196e-05 0)
(-5.39878e-06 -1.91624e-05 0)
(-1.13e-06 -1.89683e-05 0)
(3.12293e-06 -1.90545e-05 0)
(7.35988e-06 -1.94234e-05 0)
(-5.76953e-06 -2.35793e-05 0)
(-1.13954e-06 -2.34061e-05 0)
(3.47456e-06 -2.35125e-05 0)
(8.07619e-06 -2.39014e-05 0)
(-6.11878e-06 -2.83671e-05 0)
(-1.12941e-06 -2.82166e-05 0)
(3.84439e-06 -2.83439e-05 0)
(8.80942e-06 -2.87521e-05 0)
(-6.4442e-06 -3.35236e-05 0)
(-1.09885e-06 -3.33973e-05 0)
(4.23153e-06 -3.35455e-05 0)
(9.557e-06 -3.3972e-05 0)
(-6.74397e-06 -3.90451e-05 0)
(-1.04756e-06 -3.89438e-05 0)
(4.63478e-06 -3.91128e-05 0)
(1.03161e-05 -3.9556e-05 0)
(-7.01683e-06 -4.49261e-05 0)
(-9.75642e-07 -4.48502e-05 0)
(5.05258e-06 -4.50393e-05 0)
(1.10837e-05 -4.54975e-05 0)
(-7.26199e-06 -5.11597e-05 0)
(-8.8363e-07 -5.1109e-05 0)
(5.48306e-06 -5.13172e-05 0)
(1.18565e-05 -5.17884e-05 0)
(-7.47921e-06 -5.77376e-05 0)
(-7.72435e-07 -5.77116e-05 0)
(5.9241e-06 -5.79374e-05 0)
(1.26311e-05 -5.84191e-05 0)
(-7.66867e-06 -6.46502e-05 0)
(-6.43312e-07 -6.46479e-05 0)
(6.37334e-06 -6.48896e-05 0)
(1.34039e-05 -6.53793e-05 0)
(-7.83101e-06 -7.18868e-05 0)
(-4.97795e-07 -7.19069e-05 0)
(6.82828e-06 -7.21625e-05 0)
(1.41716e-05 -7.26574e-05 0)
(-7.96715e-06 -7.94355e-05 0)
(-3.3764e-07 -7.94764e-05 0)
(7.28635e-06 -7.97438e-05 0)
(1.49306e-05 -8.02412e-05 0)
(-8.07834e-06 -8.72838e-05 0)
(-1.64747e-07 -8.73438e-05 0)
(7.74493e-06 -8.76206e-05 0)
(1.56776e-05 -8.81177e-05 0)
(-8.16602e-06 -9.54182e-05 0)
(1.8898e-08 -9.54954e-05 0)
(8.20148e-06 -9.57794e-05 0)
(1.64095e-05 -9.62735e-05 0)
(-8.23178e-06 -0.000103825 0)
(2.11288e-07 -0.000103917 0)
(8.65354e-06 -0.000104206 0)
(1.71234e-05 -0.000104695 0)
(-8.27728e-06 -0.00011249 0)
(4.10449e-07 -0.000112595 0)
(9.09884e-06 -0.000112887 0)
(1.78167e-05 -0.000113368 0)
(-8.30425e-06 -0.000121397 0)
(6.14484e-07 -0.000121514 0)
(9.53528e-06 -0.000121807 0)
(1.8487e-05 -0.000122278 0)
(-8.31439e-06 -0.000130534 0)
(8.21605e-07 -0.00013066 0)
(9.96098e-06 -0.000130952 0)
(1.91326e-05 -0.000131411 0)
(-8.30937e-06 -0.000139884 0)
(1.03016e-06 -0.000140019 0)
(1.03743e-05 -0.000140307 0)
(1.97516e-05 -0.000140752 0)
(-8.29081e-06 -0.000149434 0)
(1.23864e-06 -0.000149574 0)
(1.07739e-05 -0.000149859 0)
(2.0343e-05 -0.000150289 0)
(-8.26023e-06 -0.000159168 0)
(1.44571e-06 -0.000159313 0)
(1.11585e-05 -0.000159593 0)
(2.09057e-05 -0.000160007 0)
(-8.2191e-06 -0.000169073 0)
(1.65017e-06 -0.000169222 0)
(1.15273e-05 -0.000169494 0)
(2.1439e-05 -0.000169892 0)
(-8.16879e-06 -0.000179134 0)
(1.85097e-06 -0.000179286 0)
(1.18795e-05 -0.000179551 0)
(2.19428e-05 -0.000179931 0)
(-8.11058e-06 -0.00018934 0)
(2.04721e-06 -0.000189493 0)
(1.22147e-05 -0.00018975 0)
(2.24168e-05 -0.000190112 0)
(-8.04568e-06 -0.000199676 0)
(2.23813e-06 -0.000199829 0)
(1.25324e-05 -0.000200078 0)
(2.28612e-05 -0.000200422 0)
(-7.97523e-06 -0.000210131 0)
(2.42304e-06 -0.000210284 0)
(1.28326e-05 -0.000210523 0)
(2.32762e-05 -0.000210849 0)
(-7.9003e-06 -0.000220692 0)
(2.60141e-06 -0.000220844 0)
(1.31151e-05 -0.000221074 0)
(2.36625e-05 -0.000221382 0)
(-7.82189e-06 -0.000231349 0)
(2.77274e-06 -0.0002315 0)
(1.33801e-05 -0.00023172 0)
(2.40206e-05 -0.00023201 0)
(-7.74096e-06 -0.000242092 0)
(2.93663e-06 -0.00024224 0)
(1.36276e-05 -0.00024245 0)
(2.43512e-05 -0.000242722 0)
(-7.65844e-06 -0.00025291 0)
(3.09275e-06 -0.000253055 0)
(1.3858e-05 -0.000253255 0)
(2.46552e-05 -0.00025351 0)
(-7.57519e-06 -0.000263794 0)
(3.24078e-06 -0.000263935 0)
(1.40714e-05 -0.000264126 0)
(2.49335e-05 -0.000264364 0)
(-7.49206e-06 -0.000274735 0)
(3.38048e-06 -0.000274873 0)
(1.42683e-05 -0.000275053 0)
(2.5187e-05 -0.000275276 0)
(-7.40988e-06 -0.000285726 0)
(3.51161e-06 -0.00028586 0)
(1.4449e-05 -0.00028603 0)
(2.54166e-05 -0.000286237 0)
(-7.32944e-06 -0.00029676 0)
(3.63395e-06 -0.000296889 0)
(1.46138e-05 -0.000297049 0)
(2.56233e-05 -0.000297241 0)
(-7.25153e-06 -0.000307829 0)
(3.74732e-06 -0.000307953 0)
(1.47633e-05 -0.000308103 0)
(2.58082e-05 -0.00030828 0)
(-7.17691e-06 -0.000318927 0)
(3.85151e-06 -0.000319046 0)
(1.48976e-05 -0.000319186 0)
(2.59722e-05 -0.000319349 0)
(-7.10635e-06 -0.000330049 0)
(3.94633e-06 -0.000330162 0)
(1.50173e-05 -0.000330293 0)
(2.61163e-05 -0.000330441 0)
(-7.04059e-06 -0.00034119 0)
(4.03157e-06 -0.000341297 0)
(1.51227e-05 -0.000341418 0)
(2.62413e-05 -0.000341553 0)
(-6.98038e-06 -0.000352345 0)
(4.10699e-06 -0.000352446 0)
(1.52141e-05 -0.000352557 0)
(2.63483e-05 -0.00035268 0)
(-6.92645e-06 -0.000363512 0)
(4.17231e-06 -0.000363605 0)
(1.52918e-05 -0.000363706 0)
(2.64381e-05 -0.000363817 0)
(-6.87954e-06 -0.000374686 0)
(4.22708e-06 -0.000374772 0)
(1.53557e-05 -0.000374862 0)
(2.65115e-05 -0.000374961 0)
(-6.8402e-06 -0.000385866 0)
(4.27077e-06 -0.000385943 0)
(1.5406e-05 -0.000386022 0)
(2.65696e-05 -0.000386109 0)
(-6.80917e-06 -0.000397048 0)
(4.30198e-06 -0.000397117 0)
(1.54416e-05 -0.000397184 0)
(2.6613e-05 -0.000397258 0)
(-6.78591e-06 -0.000408233 0)
(4.32e-06 -0.000408292 0)
(1.54624e-05 -0.000408344 0)
(2.66436e-05 -0.000408407 0)
(-6.77202e-06 -0.000419411 0)
(4.32085e-06 -0.000419464 0)
(1.54647e-05 -0.000419507 0)
(2.66613e-05 -0.000419562 0)
(-6.75856e-06 -0.000430559 0)
(4.31637e-06 -0.000430623 0)
(1.54607e-05 -0.000430678 0)
(2.6676e-05 -0.000430744 0)
)
;

boundaryField
{
    plateFix
    {
        type            fixedDisplacement;
        value           uniform (0 0 0);
    }
    plate
    {
        type            solidTraction;
        nonLinear       updatedLagrangian;
        traction        uniform (0 0 0);
        pressure        uniform 0;
        value           nonuniform List<vector> 
168
(
(2.07219e-07 1.0534e-07 -8.34622e-26)
(-3.3549e-07 1.85726e-07 -1.23835e-25)
(2.59889e-07 1.76485e-07 1.60927e-25)
(-3.49385e-07 3.04071e-07 -3.58033e-26)
(3.29291e-07 2.5254e-07 5.86177e-26)
(-3.87745e-07 4.16499e-07 1.41963e-25)
(4.09075e-07 3.36489e-07 -1.90997e-26)
(-4.44961e-07 5.26009e-07 2.81652e-26)
(4.95913e-07 4.34067e-07 -9.37037e-26)
(-5.16609e-07 6.41743e-07 -9.61433e-26)
(5.86422e-07 5.49e-07 8.71406e-26)
(-5.97058e-07 7.68923e-07 2.34233e-26)
(6.78204e-07 6.8488e-07 -1.16227e-25)
(-6.82646e-07 9.12771e-07 1.60379e-27)
(7.69217e-07 8.44692e-07 1.89134e-26)
(-7.70216e-07 1.07733e-06 -5.67532e-26)
(8.57723e-07 1.03115e-06 -4.13085e-26)
(-8.57284e-07 1.26621e-06 1.03135e-25)
(9.42046e-07 1.24668e-06 7.47726e-26)
(-9.41564e-07 1.48248e-06 -7.23531e-26)
(1.02044e-06 1.49344e-06 -4.67183e-26)
(-1.02085e-06 1.72879e-06 2.00769e-26)
(1.09098e-06 1.77326e-06 6.33555e-26)
(-1.09281e-06 2.00733e-06 1.67995e-26)
(1.15144e-06 2.08746e-06 -5.33257e-26)
(-1.15491e-06 2.31968e-06 1.56483e-26)
(1.19928e-06 2.43665e-06 1.05248e-26)
(-1.20429e-06 2.66663e-06 -3.43887e-26)
(1.23155e-06 2.82042e-06 5.10149e-27)
(-1.23772e-06 3.04791e-06 7.51036e-27)
(1.24486e-06 3.23697e-06 -7.90144e-29)
(-1.25154e-06 3.46176e-06 -1.95363e-26)
(1.23531e-06 3.68258e-06 3.67987e-26)
(-1.24159e-06 3.90451e-06 1.79926e-26)
(1.19852e-06 4.15097e-06 -2.4331e-26)
(-1.20317e-06 4.36991e-06 -5.58677e-26)
(1.12955e-06 4.6326e-06 -1.2074e-26)
(-1.13101e-06 4.8484e-06 5.36606e-26)
(1.02289e-06 5.11363e-06 1.6202e-26)
(-1.0192e-06 5.32613e-06 -5.78928e-27)
(8.72445e-07 5.57488e-06 -5.66671e-27)
(-8.61175e-07 5.78385e-06 1.71364e-26)
(6.71672e-07 5.99039e-06 1.00077e-26)
(-6.49662e-07 6.19538e-06 1.23667e-26)
(4.02962e-07 6.33846e-06 -6.35024e-27)
(-3.65828e-07 6.53878e-06 -1.92228e-26)
(6.55091e-08 6.54432e-06 2.0514e-26)
(-7.44079e-09 6.73867e-06 3.39821e-26)
(-3.18978e-07 6.55797e-06 -3.26804e-26)
(4.0369e-07 6.7449e-06 -4.50488e-26)
(-7.46617e-07 6.35552e-06 3.27795e-26)
(8.64875e-07 6.53282e-06 1.33551e-26)
(-1.21324e-06 5.91469e-06 2.55625e-26)
(1.37359e-06 6.07943e-06 -3.61599e-26)
(-1.71447e-06 5.21497e-06 -3.68255e-26)
(1.9274e-06 5.3634e-06 6.60083e-26)
(-2.24571e-06 4.23756e-06 2.33409e-27)
(2.524e-06 4.3651e-06 -5.01215e-26)
(-2.80213e-06 2.9654e-06 3.79539e-28)
(3.1612e-06 3.06666e-06 -1.46537e-27)
(-3.37873e-06 1.38315e-06 2.8054e-27)
(3.83687e-06 1.45203e-06 2.80098e-26)
(-3.97038e-06 -5.228e-07 1.18494e-27)
(4.54896e-06 -4.92963e-07 -4.78799e-27)
(-4.57183e-06 -2.7643e-06 -5.83755e-27)
(5.29539e-06 -2.78057e-06 -8.06504e-27)
(-5.17783e-06 -5.35147e-06 4.03772e-27)
(6.07406e-06 -5.42107e-06 -3.41542e-26)
(-5.78319e-06 -8.29268e-06 -1.96543e-26)
(6.88278e-06 -8.42272e-06 3.53368e-26)
(-6.38284e-06 -1.15945e-05 8.54951e-27)
(7.71922e-06 -1.17917e-05 -1.53971e-26)
(-6.97195e-06 -1.52619e-05 1.22503e-26)
(8.58089e-06 -1.55323e-05 8.61254e-27)
(-7.54601e-06 -1.9298e-05 -3.05141e-26)
(9.46507e-06 -1.96465e-05 1.05912e-26)
(-8.1009e-06 -2.37042e-05 2.71456e-26)
(1.03688e-05 -2.41347e-05 -9.01679e-27)
(-8.63296e-06 -2.84803e-05 -6.87014e-27)
(1.12889e-05 -2.89949e-05 1.49027e-26)
(-9.13905e-06 -3.36242e-05 -6.60312e-27)
(1.22218e-05 -3.42236e-05 -1.87379e-26)
(-9.61663e-06 -3.91325e-05 4.70845e-26)
(1.31639e-05 -3.98156e-05 -1.62831e-26)
(-1.00637e-05 -4.5e-05 -2.92042e-26)
(1.41113e-05 -4.5764e-05 -2.10718e-26)
(-1.04789e-05 -5.122e-05 1.44674e-27)
(1.506e-05 -5.20605e-05 -1.27732e-26)
(-1.08613e-05 -5.77845e-05 -3.61869e-27)
(1.60059e-05 -5.86956e-05 2.18868e-26)
(-1.12108e-05 -6.46842e-05 -1.01384e-26)
(1.69448e-05 -6.56587e-05 -1.40327e-26)
(-1.15273e-05 -7.19083e-05 -1.9789e-26)
(1.78727e-05 -7.29383e-05 8.55156e-27)
(-1.18116e-05 -7.94454e-05 8.49775e-27)
(1.87856e-05 -8.0522e-05 -6.56754e-27)
(-1.20646e-05 -8.72828e-05 -9.01784e-27)
(1.96799e-05 -8.83969e-05 2.05674e-26)
(-1.22874e-05 -9.54074e-05 1.136e-26)
(2.05521e-05 -9.65498e-05 -5.75924e-26)
(-1.24816e-05 -0.000103805 -6.66856e-27)
(2.13991e-05 -0.000104967 -1.39322e-26)
(-1.26485e-05 -0.000112462 2.73645e-27)
(2.22181e-05 -0.000113634 3.21679e-27)
(-1.279e-05 -0.000121362 -8.53271e-27)
(2.30068e-05 -0.000122537 1.38644e-26)
(-1.29076e-05 -0.000130493 -7.99333e-27)
(2.37632e-05 -0.000131663 -5.95936e-26)
(-1.30031e-05 -0.000139838 -4.23747e-27)
(2.44857e-05 -0.000140996 6.05353e-26)
(-1.30782e-05 -0.000149383 -1.15394e-26)
(2.51732e-05 -0.000150524 -3.15104e-26)
(-1.31345e-05 -0.000159113 1.39156e-26)
(2.58248e-05 -0.000160232 1.30002e-26)
(-1.31736e-05 -0.000169015 2.28378e-26)
(2.64402e-05 -0.000170107 -8.72825e-28)
(-1.31971e-05 -0.000179074 -9.20893e-27)
(2.70191e-05 -0.000180137 3.38745e-26)
(-1.32064e-05 -0.000189277 3.79093e-27)
(2.75617e-05 -0.000190307 -6.64546e-26)
(-1.3203e-05 -0.000199612 2.00793e-26)
(2.80684e-05 -0.000200607 -1.54009e-26)
(-1.31883e-05 -0.000210066 -2.52704e-26)
(2.85398e-05 -0.000211023 1.98032e-27)
(-1.31636e-05 -0.000220627 1.37483e-26)
(2.89767e-05 -0.000221546 3.63361e-26)
(-1.31301e-05 -0.000231284 4.47345e-27)
(2.938e-05 -0.000232164 -4.23955e-27)
(-1.30892e-05 -0.000242026 3.46132e-26)
(2.97507e-05 -0.000242867 9.64826e-27)
(-1.30419e-05 -0.000252845 3.02307e-26)
(3.00901e-05 -0.000253645 -2.03418e-27)
(-1.29896e-05 -0.000263729 -4.60072e-26)
(3.03993e-05 -0.00026449 1.19318e-26)
(-1.29333e-05 -0.000274672 -9.97884e-27)
(3.06795e-05 -0.000275393 4.00182e-26)
(-1.28741e-05 -0.000285665 6.63153e-27)
(3.0932e-05 -0.000286345 1.67665e-26)
(-1.28132e-05 -0.000296699 1.85462e-26)
(3.11582e-05 -0.00029734 2.92675e-26)
(-1.27515e-05 -0.00030777 -1.18878e-26)
(3.13594e-05 -0.000308372 -5.23859e-27)
(-1.26903e-05 -0.00031887 -4.60224e-27)
(3.15367e-05 -0.000319433 1.60918e-26)
(-1.26304e-05 -0.000329995 -2.85408e-26)
(3.16915e-05 -0.000330518 -1.72989e-26)
(-1.2573e-05 -0.000341138 1.81577e-26)
(3.1825e-05 -0.000341623 4.41577e-26)
(-1.25191e-05 -0.000352297 -4.51631e-26)
(3.19383e-05 -0.000352743 -5.37916e-26)
(-1.24697e-05 -0.000363466 -2.53241e-26)
(3.20327e-05 -0.000363873 -6.60015e-28)
(-1.24258e-05 -0.000374644 1.15422e-25)
(3.21092e-05 -0.000375011 -5.05742e-26)
(-1.23883e-05 -0.000385827 -7.71563e-26)
(3.21691e-05 -0.000386153 3.77192e-26)
(-1.23578e-05 -0.000397013 1.25893e-26)
(3.22134e-05 -0.000397297 1.92169e-26)
(-1.23324e-05 -0.000408202 3.08385e-26)
(3.22463e-05 -0.000408441 -7.34384e-26)
(-1.23072e-05 -0.000419383 1.46694e-26)
(3.22745e-05 -0.000419591 2.93033e-27)
(-1.22588e-05 -0.000430534 -7.77382e-26)
(-6.75613e-06 -0.000436084 7.31057e-26)
(4.31476e-06 -0.00043619 -4.97832e-26)
(1.54593e-05 -0.000436274 2.04467e-25)
(2.66789e-05 -0.000436383 -2.86952e-25)
(3.23231e-05 -0.00043077 2.64092e-26)
)
;
    }
    frontAndBackPlanes
    {
        type            empty;
    }
}


// ************************************************************************* //
