/*--------------------------------*- C++ -*----------------------------------*\
| =========                 |                                                 |
| \\      /  F ield         | OpenFOAM Extend Project: Open source CFD        |
|  \\    /   O peration     | Version:  1.6-ext                               |
|   \\  /    A nd           | Web:      www.extend-project.de                 |
|    \\/     M anipulation  |                                                 |
\*---------------------------------------------------------------------------*/
FoamFile
{
    version     2.0;
    format      ascii;
    class       volScalarField::DimensionedInternalField;
    location    "0.4";
    object      V0;
}
// * * * * * * * * * * * * * * * * * * * * * * * * * * * * * * * * * * * * * //

dimensions      [0 3 0 0 0 0 0];

value           nonuniform List<scalar> 
328
(
2.53347e-07
2.53346e-07
2.53339e-07
2.53339e-07
2.71714e-07
2.71714e-07
2.71709e-07
2.71709e-07
2.91416e-07
2.91414e-07
2.91409e-07
2.91407e-07
3.12546e-07
3.12542e-07
3.12538e-07
3.12535e-07
3.35207e-07
3.35202e-07
3.35199e-07
3.35195e-07
3.59511e-07
3.59506e-07
3.59503e-07
3.59498e-07
3.85577e-07
3.85571e-07
3.85569e-07
3.85564e-07
4.13532e-07
4.13527e-07
4.13524e-07
4.13519e-07
4.43514e-07
4.43509e-07
4.43507e-07
4.43502e-07
4.7567e-07
4.75665e-07
4.75663e-07
4.75659e-07
5.10158e-07
5.10153e-07
5.10151e-07
5.10147e-07
5.47145e-07
5.47141e-07
5.4714e-07
5.47136e-07
5.86815e-07
5.86811e-07
5.8681e-07
5.86807e-07
6.2936e-07
6.29358e-07
6.29357e-07
6.29355e-07
6.7499e-07
6.74989e-07
6.74988e-07
6.74987e-07
7.23928e-07
7.23928e-07
7.23928e-07
7.23929e-07
7.76414e-07
7.76416e-07
7.76417e-07
7.76419e-07
8.32705e-07
8.32709e-07
8.32711e-07
8.32715e-07
8.93078e-07
8.93084e-07
8.93087e-07
8.93093e-07
9.57827e-07
9.57836e-07
9.5784e-07
9.57849e-07
1.02727e-06
1.02728e-06
1.02729e-06
1.0273e-06
1.10175e-06
1.10177e-06
1.10177e-06
1.10179e-06
1.26869e-06
1.26871e-06
1.26872e-06
1.26874e-06
1.26869e-06
1.26871e-06
1.26872e-06
1.26874e-06
1.26868e-06
1.26871e-06
1.26872e-06
1.26875e-06
1.26868e-06
1.26871e-06
1.26872e-06
1.26875e-06
1.26868e-06
1.26871e-06
1.26872e-06
1.26876e-06
1.26867e-06
1.26871e-06
1.26872e-06
1.26876e-06
1.26867e-06
1.26871e-06
1.26872e-06
1.26876e-06
1.26867e-06
1.26871e-06
1.26873e-06
1.26876e-06
1.26867e-06
1.26871e-06
1.26873e-06
1.26877e-06
1.26867e-06
1.26871e-06
1.26873e-06
1.26877e-06
1.26866e-06
1.26871e-06
1.26873e-06
1.26877e-06
1.26866e-06
1.26871e-06
1.26873e-06
1.26877e-06
1.26866e-06
1.26871e-06
1.26873e-06
1.26877e-06
1.26866e-06
1.26871e-06
1.26873e-06
1.26877e-06
1.26866e-06
1.26871e-06
1.26873e-06
1.26878e-06
1.26866e-06
1.26871e-06
1.26873e-06
1.26878e-06
1.26866e-06
1.26871e-06
1.26873e-06
1.26877e-06
1.26866e-06
1.26871e-06
1.26873e-06
1.26877e-06
1.26866e-06
1.26871e-06
1.26873e-06
1.26877e-06
1.26866e-06
1.26871e-06
1.26873e-06
1.26877e-06
1.26866e-06
1.26871e-06
1.26873e-06
1.26877e-06
1.26866e-06
1.26871e-06
1.26872e-06
1.26877e-06
1.26866e-06
1.26871e-06
1.26872e-06
1.26877e-06
1.26866e-06
1.2687e-06
1.26872e-06
1.26876e-06
1.26867e-06
1.2687e-06
1.26872e-06
1.26876e-06
1.26867e-06
1.2687e-06
1.26872e-06
1.26876e-06
1.26867e-06
1.2687e-06
1.26872e-06
1.26875e-06
1.26867e-06
1.2687e-06
1.26872e-06
1.26875e-06
1.26867e-06
1.2687e-06
1.26872e-06
1.26875e-06
1.26867e-06
1.2687e-06
1.26871e-06
1.26874e-06
1.26867e-06
1.2687e-06
1.26871e-06
1.26874e-06
1.26867e-06
1.2687e-06
1.26871e-06
1.26874e-06
1.26868e-06
1.2687e-06
1.26871e-06
1.26874e-06
1.26868e-06
1.2687e-06
1.26871e-06
1.26873e-06
1.26868e-06
1.2687e-06
1.26871e-06
1.26873e-06
1.26868e-06
1.2687e-06
1.26871e-06
1.26873e-06
1.26868e-06
1.2687e-06
1.26871e-06
1.26872e-06
1.26868e-06
1.2687e-06
1.26871e-06
1.26872e-06
1.26868e-06
1.2687e-06
1.2687e-06
1.26872e-06
1.26868e-06
1.2687e-06
1.2687e-06
1.26872e-06
1.26869e-06
1.2687e-06
1.2687e-06
1.26871e-06
1.26869e-06
1.2687e-06
1.2687e-06
1.26871e-06
1.26869e-06
1.2687e-06
1.2687e-06
1.26871e-06
1.26869e-06
1.2687e-06
1.2687e-06
1.26871e-06
1.26869e-06
1.2687e-06
1.2687e-06
1.26871e-06
1.26869e-06
1.26869e-06
1.2687e-06
1.2687e-06
1.26869e-06
1.26869e-06
1.2687e-06
1.2687e-06
1.26869e-06
1.26869e-06
1.2687e-06
1.2687e-06
1.26869e-06
1.26869e-06
1.2687e-06
1.2687e-06
1.26869e-06
1.26869e-06
1.26869e-06
1.2687e-06
1.26869e-06
1.26869e-06
1.26869e-06
1.2687e-06
1.26869e-06
1.26869e-06
1.26869e-06
1.26869e-06
1.26869e-06
1.26869e-06
1.26869e-06
1.26869e-06
1.26869e-06
1.26869e-06
1.26869e-06
1.26869e-06
1.26869e-06
1.26869e-06
1.26869e-06
1.26869e-06
1.26869e-06
1.26869e-06
1.26869e-06
1.26869e-06
1.26869e-06
1.26869e-06
1.26869e-06
1.26869e-06
1.26869e-06
1.26869e-06
1.26869e-06
1.26869e-06
1.26869e-06
1.26869e-06
1.26869e-06
1.26869e-06
1.26869e-06
1.26868e-06
1.26868e-06
1.26869e-06
)
;


// ************************************************************************* //
