/*--------------------------------*- C++ -*----------------------------------*\
| =========                 |                                                 |
| \\      /  F ield         | OpenFOAM Extend Project: Open source CFD        |
|  \\    /   O peration     | Version:  1.6-ext                               |
|   \\  /    A nd           | Web:      www.extend-project.de                 |
|    \\/     M anipulation  |                                                 |
\*---------------------------------------------------------------------------*/
FoamFile
{
    version     2.0;
    format      ascii;
    class       volVectorField;
    location    "0.4";
    object      Vs;
}
// * * * * * * * * * * * * * * * * * * * * * * * * * * * * * * * * * * * * * //

dimensions      [0 1 -1 0 0 0 0];

internalField   nonuniform List<vector> 
328
(
(-5.68065e-06 -1.7973e-05 0)
(-2.88174e-06 -3.91586e-06 0)
(-3.06137e-06 3.86109e-06 0)
(-6.56637e-06 1.91899e-05 0)
(-1.72048e-05 -4.59816e-05 0)
(-1.02957e-05 -1.11627e-05 0)
(-1.09234e-05 1.15153e-05 0)
(-1.99282e-05 4.92881e-05 0)
(-3.11724e-05 -6.65472e-05 0)
(-2.20413e-05 -1.77043e-05 0)
(-2.33112e-05 1.90302e-05 0)
(-3.60052e-05 7.18564e-05 0)
(-4.65455e-05 -8.07751e-05 0)
(-3.6537e-05 -2.29732e-05 0)
(-3.85397e-05 2.58565e-05 0)
(-5.36531e-05 8.82026e-05 0)
(-6.36004e-05 -9.01207e-05 0)
(-5.40569e-05 -2.67565e-05 0)
(-5.68846e-05 3.18084e-05 0)
(-7.31558e-05 9.99809e-05 0)
(-8.21938e-05 -9.56936e-05 0)
(-7.40573e-05 -2.89678e-05 0)
(-7.77698e-05 3.68608e-05 0)
(-9.43421e-05 0.000108472 0)
(-0.000102444 -9.83945e-05 0)
(-9.64328e-05 -2.96776e-05 0)
(-0.000101083 4.11649e-05 0)
(-0.000117325 0.000114734 0)
(-0.000124423 -9.88787e-05 0)
(-0.000120951 -2.90087e-05 0)
(-0.000126582 4.49471e-05 0)
(-0.000142165 0.000119573 0)
(-0.000148258 -9.7636e-05 0)
(-0.000147521 -2.71152e-05 0)
(-0.000154173 4.84845e-05 0)
(-0.000168986 0.00012363 0)
(-0.00017407 -9.5008e-05 0)
(-0.000176075 -2.41354e-05 0)
(-0.000183782 5.20576e-05 0)
(-0.000197902 0.000127403 0)
(-0.000201993 -9.12227e-05 0)
(-0.000206619 -2.01752e-05 0)
(-0.000215415 5.59334e-05 0)
(-0.000229041 0.000131288 0)
(-0.000232159 -8.64106e-05 0)
(-0.000239209 -1.52931e-05 0)
(-0.000249126 6.03501e-05 0)
(-0.000262526 0.000135599 0)
(-0.000264705 -8.06231e-05 0)
(-0.000273951 -9.49765e-06 0)
(-0.000285015 6.55155e-05 0)
(-0.000298483 0.000140587 0)
(-0.000299773 -7.38457e-05 0)
(-0.000310988 -2.74953e-06 0)
(-0.000323224 7.16086e-05 0)
(-0.000337041 0.000146457 0)
(-0.000337515 -6.60117e-05 0)
(-0.000350496 5.03174e-06 0)
(-0.000363922 7.87866e-05 0)
(-0.000378332 0.000153378 0)
(-0.000378091 -5.70144e-05 0)
(-0.000392672 1.39595e-05 0)
(-0.000407301 8.71923e-05 0)
(-0.000422498 0.000161499 0)
(-0.00042168 -4.67188e-05 0)
(-0.000437728 2.4171e-05 0)
(-0.000453563 9.69625e-05 0)
(-0.00046969 0.00017096 0)
(-0.00046847 -3.49708e-05 0)
(-0.000485885 3.58198e-05 0)
(-0.00050292 0.000108233 0)
(-0.000520066 0.000181894 0)
(-0.000518671 -2.16055e-05 0)
(-0.000537371 4.90681e-05 0)
(-0.000555588 0.000121142 0)
(-0.000573798 0.000194439 0)
(-0.000572502 -6.45389e-06 0)
(-0.000592419 6.40819e-05 0)
(-0.000611785 0.000135833 0)
(-0.000631064 0.000208733 0)
(-0.000630199 1.0652e-05 0)
(-0.000651264 8.10258e-05 0)
(-0.000671733 0.000152451 0)
(-0.000692052 0.00022492 0)
(-0.000692013 2.98735e-05 0)
(-0.000714149 0.000100058 0)
(-0.000735653 0.00017114 0)
(-0.000756955 0.00024314 0)
(-0.000760727 5.2179e-05 0)
(-0.00078388 0.000122135 0)
(-0.000806367 0.000192831 0)
(-0.000828602 0.000264304 0)
(-0.000834109 7.69813e-05 0)
(-0.000858147 0.000146673 0)
(-0.000881489 0.000216949 0)
(-0.000904529 0.00028785 0)
(-0.000907285 0.000102513 0)
(-0.000932016 0.000171924 0)
(-0.000956021 0.000241771 0)
(-0.000979678 0.0003121 0)
(-0.000980225 0.00012858 0)
(-0.00100546 0.000197701 0)
(-0.00102995 0.000267113 0)
(-0.00105405 0.00033687 0)
(-0.0010529 0.000155 0)
(-0.00107847 0.00022382 0)
(-0.00110326 0.000292796 0)
(-0.00112763 0.000361986 0)
(-0.00112529 0.000181596 0)
(-0.00115102 0.00025011 0)
(-0.00117595 0.000318649 0)
(-0.00120042 0.000387279 0)
(-0.00119736 0.000208203 0)
(-0.00122308 0.000276407 0)
(-0.001248 0.000344511 0)
(-0.00127243 0.000412591 0)
(-0.0012691 0.000234667 0)
(-0.00129466 0.000302557 0)
(-0.00131941 0.000370229 0)
(-0.00134365 0.000437769 0)
(-0.00134046 0.000260847 0)
(-0.00136572 0.000328419 0)
(-0.00139017 0.000395661 0)
(-0.00141409 0.00046267 0)
(-0.00141143 0.000286614 0)
(-0.00143625 0.000353861 0)
(-0.00146027 0.000420673 0)
(-0.00148375 0.000487159 0)
(-0.00148197 0.000311849 0)
(-0.00150622 0.000378761 0)
(-0.00152968 0.000445142 0)
(-0.00155261 0.000511108 0)
(-0.00155205 0.000336444 0)
(-0.0015756 0.000403009 0)
(-0.0015984 0.00046895 0)
(-0.00162066 0.000534393 0)
(-0.00162162 0.000360301 0)
(-0.00164437 0.000426498 0)
(-0.00166639 0.000491986 0)
(-0.00168788 0.000556897 0)
(-0.00169064 0.000383329 0)
(-0.00171249 0.00044913 0)
(-0.00173363 0.000514145 0)
(-0.00175425 0.000578506 0)
(-0.00175905 0.000405443 0)
(-0.0017799 0.000470813 0)
(-0.00180007 0.000535324 0)
(-0.00181973 0.000599111 0)
(-0.00182681 0.000426561 0)
(-0.00184657 0.000491457 0)
(-0.00186567 0.000555426 0)
(-0.00188428 0.000618605 0)
(-0.00189383 0.00044661 0)
(-0.00191242 0.000510978 0)
(-0.00193037 0.000574361 0)
(-0.00194785 0.000636888 0)
(-0.00196005 0.000465516 0)
(-0.00197739 0.000529297 0)
(-0.00199412 0.00059204 0)
(-0.00201038 0.000653868 0)
(-0.00202539 0.000483213 0)
(-0.00204142 0.000546341 0)
(-0.00205686 0.000608383 0)
(-0.00207183 0.000669456 0)
(-0.00208976 0.000499637 0)
(-0.00210442 0.000562041 0)
(-0.00211851 0.000623319 0)
(-0.00213212 0.000683578 0)
(-0.00215309 0.000514727 0)
(-0.00216633 0.000576336 0)
(-0.00217901 0.000636784 0)
(-0.00219121 0.000696169 0)
(-0.00221528 0.000528431 0)
(-0.00222707 0.000589171 0)
(-0.00223829 0.000648724 0)
(-0.00224902 0.000707175 0)
(-0.00227626 0.000540699 0)
(-0.00228656 0.000600502 0)
(-0.00229628 0.000659096 0)
(-0.0023055 0.000716558 0)
(-0.00233595 0.000551487 0)
(-0.00234473 0.00061029 0)
(-0.00235294 0.000667868 0)
(-0.0023606 0.000724289 0)
(-0.00239428 0.000560761 0)
(-0.00240153 0.000618505 0)
(-0.0024082 0.000675016 0)
(-0.00241428 0.000730353 0)
(-0.00245119 0.000568491 0)
(-0.00245691 0.000625129 0)
(-0.00246201 0.00068053 0)
(-0.00246651 0.000734746 0)
(-0.00250663 0.000574658 0)
(-0.00251081 0.00063015 0)
(-0.00251435 0.000684406 0)
(-0.00251724 0.000737473 0)
(-0.00256054 0.000579249 0)
(-0.00256319 0.000633564 0)
(-0.00256517 0.00068665 0)
(-0.00256647 0.000738549 0)
(-0.00261291 0.000582261 0)
(-0.00261403 0.000635377 0)
(-0.00261447 0.000687276 0)
(-0.00261417 0.000737995 0)
(-0.00266369 0.000583701 0)
(-0.00266331 0.000635603 0)
(-0.00266222 0.000686303 0)
(-0.00266034 0.000735838 0)
(-0.00271286 0.000583582 0)
(-0.00271101 0.000634261 0)
(-0.0027084 0.000683759 0)
(-0.00270498 0.000732111 0)
(-0.00276041 0.000581928 0)
(-0.00275711 0.00063138 0)
(-0.00275303 0.000679675 0)
(-0.00274808 0.00072685 0)
(-0.00280632 0.000578768 0)
(-0.00280161 0.000626994 0)
(-0.00279609 0.000674092 0)
(-0.00278966 0.000720098 0)
(-0.00285059 0.000574142 0)
(-0.00284451 0.000621144 0)
(-0.00283759 0.000667049 0)
(-0.00282971 0.000711897 0)
(-0.00289321 0.000568092 0)
(-0.0028858 0.000613875 0)
(-0.00287752 0.000658596 0)
(-0.00286825 0.000702297 0)
(-0.00293416 0.000560672 0)
(-0.00292547 0.000605239 0)
(-0.00291588 0.000648783 0)
(-0.00290528 0.000691349 0)
(-0.00297344 0.000551936 0)
(-0.00296353 0.000595292 0)
(-0.00295269 0.000637666 0)
(-0.00294079 0.000679105 0)
(-0.00301105 0.000541945 0)
(-0.00299996 0.000584094 0)
(-0.00298793 0.000625303 0)
(-0.00297481 0.000665624 0)
(-0.00304696 0.000530765 0)
(-0.00303477 0.000571707 0)
(-0.0030216 0.000611756 0)
(-0.00300731 0.000650964 0)
(-0.00308118 0.000518465 0)
(-0.00306794 0.000558199 0)
(-0.00305369 0.000597087 0)
(-0.00303831 0.000635186 0)
(-0.00311369 0.000505113 0)
(-0.00309946 0.000543636 0)
(-0.0030842 0.000581364 0)
(-0.00306779 0.000618352 0)
(-0.00314446 0.000490783 0)
(-0.00312931 0.000528091 0)
(-0.00311311 0.000564654 0)
(-0.00309573 0.000600528 0)
(-0.0031735 0.000475547 0)
(-0.00315749 0.000511632 0)
(-0.00314041 0.000547023 0)
(-0.00312213 0.000581777 0)
(-0.00320076 0.000459479 0)
(-0.00318396 0.00049433 0)
(-0.00316608 0.00052854 0)
(-0.00314697 0.000562165 0)
(-0.00322624 0.000442653 0)
(-0.00320872 0.000476257 0)
(-0.00319009 0.000509274 0)
(-0.00317022 0.000541756 0)
(-0.0032499 0.00042514 0)
(-0.00323172 0.000457483 0)
(-0.00321242 0.00048929 0)
(-0.00319185 0.000520614 0)
(-0.00327171 0.000407012 0)
(-0.00325295 0.000438076 0)
(-0.00323303 0.000468656 0)
(-0.00321183 0.000498802 0)
(-0.00329165 0.000388341 0)
(-0.00327237 0.000418105 0)
(-0.00325191 0.000447437 0)
(-0.00323013 0.000476382 0)
(-0.00330968 0.000369196 0)
(-0.00328994 0.000397637 0)
(-0.00326899 0.000425696 0)
(-0.00324671 0.000453415 0)
(-0.00332576 0.000349645 0)
(-0.00330562 0.000376737 0)
(-0.00328425 0.000403496 0)
(-0.00326152 0.000429959 0)
(-0.00333984 0.000329758 0)
(-0.00331938 0.00035547 0)
(-0.00329764 0.000380898 0)
(-0.00327451 0.000406073 0)
(-0.00335188 0.000309599 0)
(-0.00333114 0.000333899 0)
(-0.0033091 0.000357961 0)
(-0.00328564 0.00038181 0)
(-0.00336182 0.000289236 0)
(-0.00334088 0.000312086 0)
(-0.00331858 0.000334742 0)
(-0.00329483 0.000357222 0)
(-0.00336961 0.00026873 0)
(-0.00334851 0.000290089 0)
(-0.003326 0.000311294 0)
(-0.00330201 0.000332359 0)
(-0.00337518 0.000248144 0)
(-0.00335397 0.000267965 0)
(-0.00333131 0.000287665 0)
(-0.00330712 0.00030726 0)
(-0.00337846 0.000227537 0)
(-0.00335717 0.000245767 0)
(-0.0033344 0.000263899 0)
(-0.00331006 0.000281963 0)
(-0.00337938 0.00020697 0)
(-0.00335805 0.000223545 0)
(-0.00333519 0.000240029 0)
(-0.00331074 0.000256488 0)
(-0.00337782 0.00018647 0)
(-0.00335644 0.000201332 0)
(-0.00333353 0.000216096 0)
(-0.00330904 0.000230884 0)
(-0.0033738 0.000166066 0)
(-0.00335234 0.000179148 0)
(-0.0033294 0.000192142 0)
(-0.00330495 0.00020518 0)
(-0.00336693 0.000145314 0)
(-0.00334537 0.000156881 0)
(-0.00332242 0.000168326 0)
(-0.00329805 0.000179861 0)
)
;

boundaryField
{
    plateFix
    {
        type            calculated;
        value           uniform (0 0 0);
    }
    plate
    {
        type            calculated;
        value           nonuniform List<vector> 
168
(
(-8.43825e-05 -4.7701e-05 2.91104e-23)
(-9.08554e-05 5.18847e-05 -4.51581e-23)
(-7.41125e-05 -7.67141e-05 -4.06596e-23)
(-8.16319e-05 8.30973e-05 8.46491e-25)
(-6.92234e-05 -9.87567e-05 4.79423e-23)
(-7.85517e-05 0.000107259 2.00989e-23)
(-7.0612e-05 -0.000113624 5.11456e-24)
(-8.23394e-05 0.000124261 -2.09127e-23)
(-7.78337e-05 -0.000123518 -1.26173e-23)
(-9.24466e-05 0.000136574 7.27842e-24)
(-8.95905e-05 -0.000129442 1.67286e-23)
(-0.000107445 0.00014537 -6.61058e-24)
(-0.000105149 -0.000132448 2.31152e-24)
(-0.000126526 0.000151874 -1.9701e-23)
(-0.000123917 -0.000133189 -3.30135e-23)
(-0.000149045 0.000156893 -2.50938e-23)
(-0.00014556 -0.00013218 2.74487e-23)
(-0.000174633 0.000161097 3.68114e-23)
(-0.000169861 -0.000129757 -2.97754e-23)
(-0.000203051 0.000164981 4.45344e-24)
(-0.000196713 -0.000126148 2.50281e-23)
(-0.000234174 0.000168941 9.24001e-24)
(-0.00022608 -0.000121479 -1.88254e-23)
(-0.000267951 0.000173288 2.308e-24)
(-0.000257979 -0.000115802 4.29607e-24)
(-0.000304382 0.000178273 -1.12916e-23)
(-0.000292475 -0.000109104 2.11486e-23)
(-0.000343514 0.0001841 8.99015e-24)
(-0.00032967 -0.00010132 -2.31735e-23)
(-0.000385424 0.000190943 -8.18582e-24)
(-0.000369701 -9.23478e-05 -1.32651e-23)
(-0.000430219 0.000198953 -3.80565e-25)
(-0.000412734 -8.20556e-05 2.68415e-23)
(-0.000478032 0.000208274 -1.69107e-23)
(-0.000458959 -7.02927e-05 -2.16917e-23)
(-0.00052901 0.000219043 1.50312e-23)
(-0.000508589 -5.68963e-05 2.57422e-24)
(-0.000583319 0.000231399 -4.34912e-24)
(-0.000561856 -4.16988e-05 6.4003e-24)
(-0.000641132 0.000245483 -8.33286e-24)
(-0.000619005 -2.45323e-05 1.14694e-23)
(-0.000702631 0.000261438 3.51912e-24)
(-0.000680297 -5.23578e-06 -1.47691e-23)
(-0.000768002 0.000279405 1.37721e-23)
(-0.000748516 1.71644e-05 3.10814e-24)
(-0.000840079 0.000300285 2.60206e-24)
(-0.000821458 4.20788e-05 1.84193e-25)
(-0.000916373 0.000323524 -6.96885e-24)
(-0.00089429 6.77307e-05 1.02056e-23)
(-0.000991794 0.000347466 4.36522e-24)
(-0.00096698 9.39251e-05 -8.22636e-24)
(-0.00106634 0.000371931 -3.49442e-24)
(-0.0010395 0.000120476 -1.64088e-24)
(-0.00114002 0.000396745 -1.19846e-23)
(-0.00111182 0.000147207 -1.0093e-23)
(-0.00121283 0.000421742 1.38113e-23)
(-0.0011839 0.000173952 7.02889e-24)
(-0.00128479 0.000446763 -1.04459e-23)
(-0.00125573 0.000200557 8.40714e-24)
(-0.00135589 0.000471657 1.72321e-23)
(-0.00132727 0.000226881 3.29508e-26)
(-0.00142615 0.00049628 -8.54223e-24)
(-0.00139848 0.000252794 2.35499e-24)
(-0.00149556 0.000520496 -7.43841e-24)
(-0.00146932 0.000278182 -1.07267e-24)
(-0.00156413 0.000544174 3.75367e-24)
(-0.00153977 0.000302938 -3.15603e-26)
(-0.00163184 0.000567188 7.3527e-24)
(-0.00160978 0.000326966 -6.12828e-24)
(-0.00169867 0.000589417 -3.98676e-24)
(-0.00167928 0.00035018 -1.20619e-24)
(-0.00176461 0.000610742 1.35994e-24)
(-0.00174824 0.000372498 3.35502e-24)
(-0.00182962 0.000631051 6.88917e-24)
(-0.00181657 0.000393845 -3.57451e-24)
(-0.00189365 0.000650233 5.15963e-25)
(-0.00188422 0.000414148 -3.92906e-24)
(-0.00195666 0.000668183 -9.47027e-24)
(-0.00195111 0.000433341 -1.44056e-24)
(-0.0020186 0.000684804 -1.06469e-24)
(-0.00201714 0.000451358 7.99201e-25)
(-0.0020794 0.000700007 -2.65774e-24)
(-0.00208224 0.000468139 -2.50137e-25)
(-0.00213902 0.000713714 -4.78438e-24)
(-0.0021463 0.000483625 -5.14875e-24)
(-0.00219738 0.00072586 -8.97169e-24)
(-0.00220926 0.000497761 2.59443e-24)
(-0.00225445 0.000736393 9.01861e-24)
(-0.00227101 0.000510496 -4.94286e-25)
(-0.00231016 0.000745274 6.64678e-24)
(-0.00233148 0.000521785 4.5635e-24)
(-0.00236447 0.000752479 -4.22355e-24)
(-0.0023906 0.000531589 8.56768e-24)
(-0.00241734 0.000757996 -1.71761e-23)
(-0.0024483 0.000539875 2.48154e-24)
(-0.00246874 0.000761824 -1.46959e-24)
(-0.00250451 0.000546617 -5.87629e-24)
(-0.00251864 0.000763974 -1.84736e-24)
(-0.0025592 0.000551799 1.74453e-24)
(-0.00256704 0.000764464 -1.21115e-23)
(-0.00261233 0.000555415 -6.67138e-24)
(-0.00261391 0.00076332 -6.83916e-24)
(-0.00266386 0.000557466 -1.15237e-24)
(-0.00265926 0.000760571 -7.79805e-24)
(-0.00271377 0.000557962 1.35512e-24)
(-0.00270308 0.000756253 9.49476e-24)
(-0.00276203 0.000556925 -5.48787e-24)
(-0.00274539 0.000750407 -1.68823e-23)
(-0.00280865 0.000554383 1.08465e-24)
(-0.0027862 0.000743073 -4.66523e-24)
(-0.00285359 0.000550373 7.2201e-24)
(-0.0028255 0.000734297 -1.02537e-23)
(-0.00289686 0.000544938 -4.03975e-24)
(-0.00286331 0.000724129 -1.25393e-23)
(-0.00293845 0.00053813 2.24191e-24)
(-0.00289963 0.000712617 -1.4845e-23)
(-0.00297834 0.000530005 7.854e-25)
(-0.00293449 0.000699817 8.20074e-24)
(-0.00301652 0.000520624 -5.31196e-25)
(-0.00296787 0.000685783 -1.34458e-23)
(-0.00305298 0.000510054 -4.42002e-24)
(-0.00299977 0.000670573 4.53951e-24)
(-0.00308772 0.000498363 2.6316e-24)
(-0.0030302 0.000654246 2.32895e-25)
(-0.00312071 0.000485624 -2.44938e-25)
(-0.00305915 0.000636865 9.71522e-24)
(-0.00315194 0.000471909 1.40882e-24)
(-0.0030866 0.000618491 -5.84426e-24)
(-0.00318139 0.000457292 6.81967e-24)
(-0.00311255 0.000599187 -9.06687e-24)
(-0.00320904 0.000441849 -3.63715e-24)
(-0.00313696 0.000579016 4.65597e-24)
(-0.00323487 0.000425653 1.84005e-24)
(-0.00315982 0.000558042 -5.50546e-24)
(-0.00325885 0.000408778 -7.98348e-25)
(-0.0031811 0.000536327 -4.10942e-24)
(-0.00328095 0.000391299 -1.16518e-24)
(-0.00320076 0.000513932 -1.64888e-25)
(-0.00330114 0.000373285 -6.13815e-25)
(-0.00321877 0.000490918 -3.19975e-24)
(-0.00331938 0.00035481 1.43297e-25)
(-0.00323509 0.000467343 -6.96209e-24)
(-0.00333564 0.000335943 -2.01955e-24)
(-0.00324968 0.000443264 1.9447e-24)
(-0.00334987 0.000316754 1.6322e-26)
(-0.00326247 0.000418737 8.97336e-25)
(-0.00336203 0.00029731 -1.39167e-24)
(-0.00327343 0.000393815 1.60343e-24)
(-0.00337206 0.00027768 -1.19721e-24)
(-0.00328247 0.000368547 -1.53393e-24)
(-0.00337991 0.000257928 -1.29205e-24)
(-0.00328954 0.000342978 4.3447e-24)
(-0.0033855 0.000238119 1.6721e-25)
(-0.00329454 0.000317146 -2.693e-24)
(-0.00338878 0.000218312 -7.06048e-25)
(-0.00329739 0.000291087 6.88221e-25)
(-0.00338968 0.000198579 7.30788e-25)
(-0.00329801 0.000264812 1.18656e-24)
(-0.00338808 0.00017893 3.39248e-25)
(-0.00329626 0.000238383 -6.62859e-25)
(-0.00338413 0.000159443 2.11839e-25)
(-0.00329224 0.000211782 -1.03732e-24)
(-0.00337754 0.000139515 -1.24145e-24)
(-0.00336255 0.000134567 -3.3213e-23)
(-0.003341 0.000145731 4.94527e-23)
(-0.00331804 0.000156488 5.21759e-24)
(-0.00329366 0.00016759 -5.22929e-24)
(-0.00328565 0.000185651 8.66216e-25)
)
;
    }
    frontAndBackPlanes
    {
        type            empty;
    }
}


// ************************************************************************* //
