/*--------------------------------*- C++ -*----------------------------------*\
| =========                 |                                                 |
| \\      /  F ield         | OpenFOAM Extend Project: Open source CFD        |
|  \\    /   O peration     | Version:  1.6-ext                               |
|   \\  /    A nd           | Web:      www.extend-project.de                 |
|    \\/     M anipulation  |                                                 |
\*---------------------------------------------------------------------------*/
FoamFile
{
    version     2.0;
    format      ascii;
    class       volScalarField;
    location    "4.9";
    object      p;
}
// * * * * * * * * * * * * * * * * * * * * * * * * * * * * * * * * * * * * * //

dimensions      [0 2 -2 0 0 0 0];

internalField   nonuniform List<scalar> 
284
(
0.291684
0.260206
0.248737
0.24375
0.241835
0.24179
0.242652
0.243889
0.245897
0.262473
0.253595
0.248242
0.245713
0.244737
0.244748
0.245264
0.246037
0.248185
0.250518
0.247116
0.244553
0.243394
0.243378
0.244093
0.245033
0.245972
0.248905
0.241048
0.23998
0.238941
0.238739
0.239443
0.240746
0.242136
0.243314
0.247001
0.233243
0.232935
0.232536
0.232605
0.233333
0.234539
0.235718
0.236465
0.240286
0.226156
0.226035
0.225707
0.225458
0.22545
0.225568
0.225288
0.223979
0.2258
0.219426
0.219276
0.218677
0.217679
0.216277
0.214202
0.210603
0.203771
0.198435
0.21308
0.212808
0.211726
0.209679
0.206392
0.201258
0.192706
0.178386
0.134348
0.207365
0.206926
0.20523
0.201945
0.196342
0.186807
0.167616
0.129716
0.0368753
0.202648
0.201991
0.199623
0.195212
0.187991
0.176458
0.156381
0.124569
0.0712052
0.199393
0.198325
0.195133
0.189746
0.181752
0.170238
0.153271
0.128936
0.0957437
0.198105
0.19616
0.19172
0.185267
0.176759
0.165619
0.151009
0.131142
0.107288
0.200406
0.195889
0.189324
0.181579
0.172573
0.161813
0.148825
0.132114
0.113109
0.206507
0.196704
0.187496
0.17865
0.169508
0.159288
0.147455
0.132854
0.116237
0.234748
0.202862
0.18811
0.178215
0.169297
0.159856
0.148944
0.135404
0.119569
-0.0952792
-0.0600505
0.00217279
-0.0186369
0.0460878
0.0160917
0.0736872
0.0469996
0.0895052
0.0669918
0.0969569
0.0770301
0.101201
0.0814648
-0.0475639
-0.038289
-0.0341988
-0.0324097
-0.0311189
-0.0284236
-0.0234825
-0.0155357
-0.00533969
-0.0242766
-0.0244117
-0.0244205
-0.0245607
-0.0240335
-0.0217719
-0.0177325
-0.0113296
-0.00436773
0.00170277
-0.00523941
-0.00911288
-0.0115934
-0.0126821
-0.0119234
-0.00987939
-0.00605779
-0.0031268
0.029569
0.0179938
0.00932787
0.00341066
-0.000219201
-0.00180777
-0.00231015
-0.00138517
-0.0021338
0.0485417
0.0341131
0.0229993
0.0148228
0.00908017
0.00537689
0.00279675
0.00146194
-0.00163716
0.0588299
0.0433019
0.0307072
0.0209568
0.013701
0.00853244
0.00474097
0.00216262
-0.00160802
0.0623099
0.0453988
0.0313154
0.0201873
0.0118235
0.00587368
0.00182464
-0.000656125
-0.00308284
-0.0218502
-0.02304
-0.0228991
-0.0216858
-0.0191993
-0.0153264
-0.010403
-0.00515685
0.00289907
-0.0205495
-0.0217875
-0.0216584
-0.0207738
-0.0188998
-0.015761
-0.0115595
-0.00677413
0.0017757
-0.0210725
-0.0224792
-0.0225685
-0.0220765
-0.0206724
-0.0178762
-0.0137523
-0.008795
0.000903597
-0.023233
-0.0245068
-0.0248064
-0.0247361
-0.0238247
-0.0213284
-0.0170624
-0.0116352
-8.10693e-05
-0.0270577
-0.0276297
-0.0279486
-0.0281976
-0.027718
-0.0254453
-0.0209032
-0.0146544
-0.000906841
-0.0323673
-0.0311846
-0.0311871
-0.0315374
-0.031375
-0.0294717
-0.0246985
-0.0168833
-0.00326371
-0.0387395
-0.0341139
-0.0335912
-0.0336138
-0.0334508
-0.0315555
-0.0267222
-0.0182235
-0.00498142
-0.0551289
-0.0378384
-0.0349176
-0.0340664
-0.0335187
-0.031333
-0.0263746
-0.017862
-0.00563819
)
;

boundaryField
{
    inlet
    {
        type            zeroGradient;
    }
    outlet
    {
        type            totalPressure;
        rho             none;
        psi             none;
        gamma           1;
        p0              uniform 0;
        value           nonuniform List<scalar> 
15
(
-0.0001632
-0.000807175
-0.00151523
-0.00241729
0
0
0
0
0
0
0
0
0
0
0
)
;
    }
    fixedWalls
    {
        type            zeroGradient;
    }
    frontAndBack
    {
        type            empty;
    }
}


// ************************************************************************* //
