/*--------------------------------*- C++ -*----------------------------------*\
| =========                 |                                                 |
| \\      /  F ield         | OpenFOAM Extend Project: Open source CFD        |
|  \\    /   O peration     | Version:  1.6-ext                               |
|   \\  /    A nd           | Web:      www.extend-project.de                 |
|    \\/     M anipulation  |                                                 |
\*---------------------------------------------------------------------------*/
FoamFile
{
    version     2.0;
    format      ascii;
    class       surfaceScalarField;
    location    "4.9";
    object      phi;
}
// * * * * * * * * * * * * * * * * * * * * * * * * * * * * * * * * * * * * * //

dimensions      [0 3 -1 0 0 0 0];

internalField   nonuniform List<scalar> 
525
(
0.000160826
3.9174e-05
0.000117034
4.3792e-05
8.13672e-05
3.56667e-05
5.4201e-05
2.71662e-05
3.41163e-05
2.00847e-05
1.91191e-05
1.49972e-05
7.92243e-06
1.11966e-05
8.946e-07
7.02783e-06
8.946e-07
0.000204946
3.42282e-05
0.000190235
5.85028e-05
0.000162073
6.3829e-05
0.000128372
6.08674e-05
9.3869e-05
5.45872e-05
6.13656e-05
4.75007e-05
3.25925e-05
3.99697e-05
1.014e-05
2.94804e-05
1.10346e-05
0.000208657
2.55711e-05
0.000208062
5.90975e-05
0.000194036
7.78555e-05
0.000168203
8.67004e-05
0.000134017
8.87734e-05
9.52446e-05
8.62729e-05
5.54753e-05
7.9739e-05
1.98603e-05
6.50953e-05
3.08949e-05
0.00020506
2.05107e-05
0.000208183
5.59749e-05
0.000202607
8.34319e-05
0.000185812
0.000103495
0.000157646
0.000116939
0.000119581
0.000124339
7.4562e-05
0.000124758
2.89535e-05
0.000110704
5.98484e-05
0.000202386
1.8125e-05
0.000205277
5.30837e-05
0.000203732
8.49768e-05
0.000193849
0.000113378
0.000172818
0.00013797
0.000139094
0.000158062
9.29039e-05
0.000170948
3.93207e-05
0.000164287
9.91691e-05
0.00020126
1.68651e-05
0.000203815
5.05283e-05
0.000204725
8.40671e-05
0.000200381
0.000117722
0.000186815
0.000151536
0.000159951
0.000184926
0.000116169
0.00021473
5.56249e-05
0.000224831
0.000154794
0.000201183
1.56819e-05
0.000204442
4.72696e-05
0.00020808
8.04285e-05
0.000209377
0.000116426
0.000204526
0.000156386
0.00018846
0.000200993
0.000152895
0.000250295
8.75454e-05
0.00029018
0.000242339
0.000201722
1.39598e-05
0.000206766
4.22263e-05
0.000214104
7.30902e-05
0.000221992
0.000108538
0.000227569
0.000150809
0.000225942
0.00020262
0.000204468
0.000271769
0.000138698
0.000355951
0.000381037
0.000202632
1.13276e-05
0.000210258
3.46006e-05
0.000222117
6.12315e-05
0.000237584
9.30697e-05
0.000256709
0.000131684
0.000281424
0.000177905
0.000318557
0.000234636
0.00038278
0.000291727
0.000360959
0.000402858
0.000203913
7.41498e-06
0.000214618
2.38956e-05
0.000230934
4.49156e-05
0.000252612
7.13914e-05
0.00028101
0.000103286
0.000319565
0.00013935
0.000372018
0.000182183
0.000453095
0.000210651
0.0002816
0.000532453
0.000205977
1.43844e-06
0.000220211
9.66095e-06
0.000240124
2.50026e-05
0.000265159
4.63563e-05
0.000296462
7.19837e-05
0.000336644
9.91682e-05
0.000387831
0.000130996
0.000454024
0.000144457
0.000188071
0.000547554
0.000209408
-7.96962e-06
0.000227317
-8.24811e-06
0.000248873
3.44717e-06
0.000273933
2.12963e-05
0.000303811
4.21051e-05
0.000340546
6.24339e-05
0.000386909
8.46332e-05
0.000439215
9.2151e-05
0.000112099
0.000515186
0.000214486
-2.24557e-05
0.000232308
-2.60697e-05
0.000250104
-1.43488e-05
0.000269995
1.40519e-06
0.00029425
1.78495e-05
0.000324662
3.20223e-05
0.000363765
4.55298e-05
0.000405809
5.01068e-05
5.71786e-05
0.00046073
0.000211666
-3.41218e-05
0.000216795
-3.11991e-05
0.000220599
-1.81519e-05
0.000228146
-6.14258e-06
0.000242529
3.46674e-06
0.000264256
1.02959e-05
0.000294021
1.57641e-05
0.000326751
1.73769e-05
1.88049e-05
0.000365125
0.000165878
0.000134679
0.000116527
0.000110385
0.000113851
0.000124147
0.000139911
0.000157288
0.000176093
0.000245955
0.000156903
5.85481e-05
0.000187407
0.000508463
0.000180892
9.3539e-05
0.000473473
0.000583124
0.000145323
8.71144e-05
0.000589548
0.000565588
9.49216e-05
6.05536e-05
0.000592148
0.000506607
4.90449e-05
2.9883e-05
0.000537277
0.000399054
1.5116e-05
7.35519e-06
0.000421582
0.000191209
0.000198564
0.000190635
6.74073e-06
-9.96813e-06
0.000219271
-1.62876e-05
-1.23487e-05
0.000254466
-3.43825e-05
-8.12303e-07
0.000290316
-5.30132e-05
1.71636e-05
0.000322549
-7.40615e-05
4.18282e-05
0.00034919
-9.75987e-05
7.09578e-05
0.000368518
-0.000119298
9.99696e-05
0.000380528
-0.000139338
0.000127329
-0.000147136
0.000143898
0.000447855
3.23588e-05
0.000439676
-8.10912e-06
0.000443791
-3.84979e-05
0.000454284
-6.3506e-05
0.000465994
-8.57708e-05
0.000475044
-0.000106649
0.000478929
-0.000123184
0.000476743
-0.000137152
-0.000137524
0.000584379
3.75283e-05
0.000577475
-1.20532e-06
0.000573018
-3.40407e-05
0.0005693
-5.97884e-05
0.000564517
-8.09877e-05
0.000556376
-9.85077e-05
0.000543799
-0.000110607
0.00052571
-0.000119063
-0.000114989
0.000604443
2.52333e-05
0.000608483
-5.24461e-06
0.000605189
-3.07466e-05
0.00059652
-5.11199e-05
0.000582533
-6.70008e-05
0.000562604
-7.85781e-05
0.000537468
-8.54719e-05
0.000506802
-8.83968e-05
-8.29828e-05
0.000554025
8.48536e-06
0.00055905
-1.02694e-05
0.000553859
-2.55555e-05
0.000539813
-3.7074e-05
0.000517944
-4.51318e-05
0.000489142
-4.97765e-05
0.000455286
-5.16156e-05
0.000417601
-5.07116e-05
-4.73865e-05
0.00043153
-1.46304e-06
0.000429621
-8.36002e-06
0.000417434
-1.33684e-05
0.000396791
-1.6431e-05
0.00036954
-1.78817e-05
0.000337751
-1.79866e-05
0.000303608
-1.74733e-05
0.000269383
-1.64866e-05
-1.67713e-05
0.000197101
0.000188741
0.000175373
0.000158942
0.00014106
0.000123074
0.0001056
8.91138e-05
-2.62022e-06
2.62022e-06
-1.01065e-05
7.48628e-06
-1.94117e-05
9.30518e-06
-2.83518e-05
8.94014e-06
-3.5266e-05
6.91415e-06
-3.8514e-05
3.248e-06
-3.66508e-05
-1.86316e-06
-2.8818e-05
-7.83284e-06
-1.38082e-05
-8.37723e-06
1.09975e-05
-2.4392e-05
2.3501e-05
-4.21017e-05
2.70149e-05
-5.75383e-05
2.43768e-05
-6.78453e-05
1.72211e-05
-7.08046e-05
6.20731e-06
-6.50353e-05
-7.63238e-06
-5.07802e-05
-2.2088e-05
-3.4359e-05
-1.09645e-05
2.19619e-05
-2.99306e-05
4.24672e-05
-4.96186e-05
4.67028e-05
-6.55702e-05
4.03283e-05
-7.49398e-05
2.65908e-05
-7.5857e-05
7.12443e-06
-6.74925e-05
-1.59968e-05
-5.05577e-05
-3.90228e-05
-5.69444e-05
-1.07499e-05
3.27119e-05
-2.78661e-05
5.95833e-05
-4.44882e-05
6.3325e-05
-5.67654e-05
5.26056e-05
-6.2527e-05
3.23524e-05
-6.0624e-05
5.22137e-06
-5.07532e-05
-2.58676e-05
-3.30684e-05
-5.67076e-05
-7.86049e-05
-8.74151e-06
4.14534e-05
-1.95582e-05
7.04001e-05
-2.82053e-05
7.1972e-05
-3.24928e-05
5.68931e-05
-3.13984e-05
3.1258e-05
-2.47478e-05
-1.42918e-06
-1.335e-05
-3.72655e-05
3.97105e-06
-7.40286e-05
-9.59269e-05
-5.48089e-06
4.69343e-05
-5.20049e-06
7.01197e-05
-5.90371e-07
6.73619e-05
8.13423e-06
4.81685e-05
2.02407e-05
1.91515e-05
3.4753e-05
-1.59415e-05
5.09753e-05
-5.34877e-05
6.74599e-05
-9.05132e-05
-0.000114751
3.34386e-06
4.35904e-05
1.9951e-05
5.35125e-05
4.33726e-05
4.39403e-05
6.87355e-05
2.28056e-05
9.40973e-05
-6.21031e-06
0.000118324
-4.01683e-05
0.000140126
-7.52893e-05
0.000158493
-0.00010888
-0.000131721
3.36223e-05
7.47861e-05
0.000117914
0.000157883
0.000193501
0.000224291
0.000248971
0.00026742
)
;

boundaryField
{
    inlet
    {
        type            calculated;
        value           uniform -0.0002;
    }
    outlet
    {
        type            calculated;
        value           nonuniform List<scalar> 
15
(
-1.50098e-05
-3.02294e-05
-2.79723e-05
-1.14079e-05
2.1293e-05
8.62843e-05
0.000175462
0.000279596
0.000383766
0.000467131
0.000503175
0.000474796
0.000382004
0.000238768
7.23426e-05
)
;
    }
    fixedWalls
    {
        type            calculated;
        value           uniform 0;
    }
    frontAndBack
    {
        type            empty;
    }
}


// ************************************************************************* //
