/*--------------------------------*- C++ -*----------------------------------*\
| =========                 |                                                 |
| \\      /  F ield         | OpenFOAM Extend Project: Open source CFD        |
|  \\    /   O peration     | Version:  1.6-ext                               |
|   \\  /    A nd           | Web:      www.extend-project.de                 |
|    \\/     M anipulation  |                                                 |
\*---------------------------------------------------------------------------*/
FoamFile
{
    version     2.0;
    format      ascii;
    class       volVectorField;
    location    "4.9";
    object      U;
}
// * * * * * * * * * * * * * * * * * * * * * * * * * * * * * * * * * * * * * //

dimensions      [0 1 -1 0 0 0 0];

internalField   nonuniform List<vector> 
284
(
(0.163781 0.0266012 0)
(0.141792 0.0268332 0)
(0.0987153 0.0192603 0)
(0.0662288 0.0122038 0)
(0.0430745 0.00724557 0)
(0.0258462 0.00430319 0)
(0.0127716 0.00253612 0)
(0.00282902 0.0008904 0)
(-0.000711239 -0.00119899 0)
(0.200598 0.0433981 0)
(0.202041 0.0577733 0)
(0.179224 0.0536106 0)
(0.146239 0.0444948 0)
(0.111136 0.0351927 0)
(0.0771304 0.027599 0)
(0.0458819 0.021371 0)
(0.0184559 0.0142551 0)
(0.00295154 0.00337951 0)
(0.203094 0.0291632 0)
(0.210988 0.0599796 0)
(0.204483 0.0729393 0)
(0.183899 0.0757366 0)
(0.152987 0.0726661 0)
(0.115622 0.0665967 0)
(0.0751321 0.0583725 0)
(0.034327 0.0450697 0)
(0.0072035 0.019226 0)
(0.201524 0.0224909 0)
(0.207601 0.0574991 0)
(0.207855 0.0817164 0)
(0.19727 0.0968048 0)
(0.174722 0.104438 0)
(0.141157 0.106145 0)
(0.0983573 0.101951 0)
(0.0487407 0.0864456 0)
(0.0115798 0.0437853 0)
(0.200565 0.0190775 0)
(0.203994 0.0543835 0)
(0.205913 0.0847371 0)
(0.201318 0.10967 0)
(0.186596 0.128982 0)
(0.159626 0.142416 0)
(0.119032 0.148116 0)
(0.0641911 0.13634 0)
(0.0173523 0.0777472 0)
(0.200234 0.0174178 0)
(0.202371 0.0517911 0)
(0.204918 0.0849589 0)
(0.204331 0.116648 0)
(0.196571 0.146409 0)
(0.177668 0.173277 0)
(0.142946 0.194073 0)
(0.0862793 0.194236 0)
(0.0276353 0.123724 0)
(0.200218 0.0162897 0)
(0.202441 0.0490909 0)
(0.206381 0.0828537 0)
(0.209788 0.118333 0)
(0.209286 0.15601 0)
(0.200724 0.195665 0)
(0.177937 0.234236 0)
(0.124167 0.252919 0)
(0.048345 0.196122 0)
(0.200346 0.0149009 0)
(0.203615 0.0451332 0)
(0.210104 0.0775872 0)
(0.218434 0.113973 0)
(0.226253 0.156141 0)
(0.230549 0.206237 0)
(0.223666 0.270009 0)
(0.197365 0.338868 0)
(0.0603206 0.285832 0)
(0.200547 0.0127803 0)
(0.205486 0.0389487 0)
(0.215428 0.0681271 0)
(0.229636 0.102322 0)
(0.247244 0.143681 0)
(0.271038 0.194497 0)
(0.298795 0.261197 0)
(0.356815 0.344935 0)
(0.397467 0.428012 0)
(0.200839 0.00959944 0)
(0.207961 0.0299278 0)
(0.221668 0.0540754 0)
(0.241075 0.0835122 0)
(0.265766 0.119215 0)
(0.300182 0.16128 0)
(0.342139 0.212835 0)
(0.409897 0.255715 0)
(0.490689 0.337761 0)
(0.201383 0.00496624 0)
(0.211549 0.0176279 0)
(0.228963 0.0358058 0)
(0.251772 0.0595831 0)
(0.279584 0.0882462 0)
(0.315401 0.119671 0)
(0.359963 0.156809 0)
(0.417374 0.173237 0)
(0.497591 0.22856 0)
(0.20245 -0.00239046 0)
(0.216912 0.00141165 0)
(0.237154 0.014267 0)
(0.260643 0.0333484 0)
(0.287898 0.0561919 0)
(0.320693 0.0794811 0)
(0.362352 0.106012 0)
(0.41 0.114684 0)
(0.473927 0.142253 0)
(0.204207 -0.0136856 0)
(0.222717 -0.0174732 0)
(0.240916 -0.0071552 0)
(0.259391 0.0092829 0)
(0.281178 0.0276898 0)
(0.307881 0.0448967 0)
(0.343097 0.0625027 0)
(0.382814 0.068632 0)
(0.431303 0.0794947 0)
(0.201748 -0.0351396 0)
(0.215144 -0.036557 0)
(0.218729 -0.0224493 0)
(0.223224 -0.00679409 0)
(0.233956 0.00707424 0)
(0.251725 0.0179719 0)
(0.278066 0.027128 0)
(0.309094 0.0301126 0)
(0.345168 0.0329116 0)
(0.164653 -0.024877 0)
(0.151323 -0.02225 0)
(0.124363 -0.0125474 0)
(0.111355 -0.00482069 0)
(0.110639 0.000462947 0)
(0.117889 0.00378061 0)
(0.131399 0.00593008 0)
(0.1481 0.00623362 0)
(0.166705 0.00614296 0)
(0.35219 0.166377 0)
(0.182325 0.0444441 0)
(0.542258 0.178489 0)
(0.495226 0.0832638 0)
(0.575158 0.168211 0)
(0.595354 0.101598 0)
(0.54361 0.118908 0)
(0.584938 0.0767142 0)
(0.484676 0.0683786 0)
(0.525328 0.0435026 0)
(0.382889 0.0270042 0)
(0.412662 0.014245 0)
(0.184441 0.00382239 0)
(0.196315 -5.51604e-05 0)
(0.182554 -0.00534179 0)
(0.200689 -0.0139822 0)
(0.234973 -0.0248197 0)
(0.272014 -0.0410889 0)
(0.306541 -0.0625318 0)
(0.33773 -0.0879058 0)
(0.35989 -0.112606 0)
(0.378435 -0.135912 0)
(0.384193 -0.148215 0)
(0.460114 0.0207841 0)
(0.44078 -0.0161817 0)
(0.43876 -0.0420509 0)
(0.447774 -0.0639563 0)
(0.459535 -0.0850303 0)
(0.472581 -0.10657 0)
(0.476919 -0.125061 0)
(0.48328 -0.141792 0)
(0.468664 -0.145641 0)
(0.591426 0.0446571 0)
(0.581971 0.000565573 0)
(0.574747 -0.0333788 0)
(0.571245 -0.0608788 0)
(0.566832 -0.0840782 0)
(0.563008 -0.104273 0)
(0.549237 -0.119123 0)
(0.541499 -0.130842 0)
(0.505811 -0.128947 0)
(0.603043 0.0342009 0)
(0.609002 -0.00216223 0)
(0.608245 -0.0316354 0)
(0.602668 -0.055591 0)
(0.5907 -0.0750156 0)
(0.575572 -0.0902471 0)
(0.549289 -0.100161 0)
(0.529106 -0.106061 0)
(0.478529 -0.100819 0)
(0.549267 0.0160606 0)
(0.559609 -0.00839127 0)
(0.558981 -0.0289693 0)
(0.549353 -0.045351 0)
(0.530787 -0.0577035 0)
(0.506221 -0.0658827 0)
(0.471963 -0.0700755 0)
(0.441845 -0.0703936 0)
(0.386492 -0.0651733 0)
(0.429387 0.000175888 0)
(0.433359 -0.0120029 0)
(0.426003 -0.0213405 0)
(0.409306 -0.027646 0)
(0.384795 -0.0312394 0)
(0.355137 -0.0323322 0)
(0.320589 -0.031856 0)
(0.289128 -0.0299254 0)
(0.243222 -0.0287651 0)
(0.199366 -0.00356802 0)
(0.194281 -0.00599491 0)
(0.183079 -0.00721058 0)
(0.167859 -0.00739571 0)
(0.150368 -0.00689924 0)
(0.132237 -0.00603662 0)
(0.114235 -0.0053414 0)
(0.0982118 -0.004997 0)
(0.0755715 -0.00604207 0)
(-0.000436456 0.000279825 0)
(-0.00531405 0.00225389 0)
(-0.0147046 0.00320245 0)
(-0.0242854 0.00337422 0)
(-0.032511 0.00293583 0)
(-0.0377108 0.0017772 0)
(-0.0386884 -0.000136576 0)
(-0.036097 -0.0027306 0)
(-0.0171699 -0.00573606 0)
(-0.00282382 0.00553523 0)
(-0.014809 0.013662 0)
(-0.0334675 0.0164755 0)
(-0.0509998 0.0155042 0)
(-0.0643823 0.0116517 0)
(-0.0710433 0.00509481 0)
(-0.0698922 -0.00368046 0)
(-0.0624624 -0.0134829 0)
(-0.0332286 -0.0226608 0)
(-0.0040326 0.0162992 0)
(-0.0189016 0.0328304 0)
(-0.0403526 0.0369044 0)
(-0.0592582 0.0326092 0)
(-0.072392 0.0223037 0)
(-0.0773682 0.00711154 0)
(-0.0736213 -0.0114693 0)
(-0.0639939 -0.0303136 0)
(-0.0309465 -0.0455632 0)
(-0.00419711 0.027639 0)
(-0.0181914 0.0518299 0)
(-0.0370356 0.0560651 0)
(-0.0524414 0.0475315 0)
(-0.0618078 0.0303685 0)
(-0.063412 0.00680308 0)
(-0.0570628 -0.0209411 0)
(-0.0471727 -0.0483102 0)
(-0.013448 -0.0682068 0)
(-0.00392453 0.0376078 0)
(-0.0140002 0.0666651 0)
(-0.024972 0.0697971 0)
(-0.0320236 0.0568412 0)
(-0.0337732 0.0335613 0)
(-0.0295263 0.00330081 0)
(-0.0193891 -0.0313143 0)
(-0.00900021 -0.0658819 0)
(0.0188907 -0.087732 0)
(-0.00346419 0.0449238 0)
(-0.00680628 0.0731318 0)
(-0.00397399 0.0732251 0)
(0.00264452 0.0559222 0)
(0.0130537 0.0280095 0)
(0.0267277 -0.00653838 0)
(0.042648 -0.0444535 0)
(0.0574842 -0.0824134 0)
(0.0829727 -0.106029 0)
(0.000203239 0.0525068 0)
(0.00762303 0.0683221 0)
(0.0307387 0.0611481 0)
(0.0552734 0.0399895 0)
(0.0808491 0.00989881 0)
(0.106265 -0.0257782 0)
(0.129726 -0.0631934 0)
(0.149631 -0.0995139 0)
(0.172882 -0.124115 0)
(0.0257981 0.0270819 0)
(0.0480319 0.0363003 0)
(0.0960702 0.0259359 0)
(0.137993 0.00517982 0)
(0.175872 -0.0226298 0)
(0.210008 -0.0550065 0)
(0.237833 -0.0876903 0)
(0.260379 -0.118629 0)
(0.278523 -0.139256 0)
)
;

boundaryField
{
    inlet
    {
        type            fixedValue;
        value           uniform (0.2 0 0);
    }
    outlet
    {
        type            zeroGradient;
    }
    fixedWalls
    {
        type            fixedValue;
        value           uniform (0 0 0);
    }
    frontAndBack
    {
        type            empty;
    }
}


// ************************************************************************* //
