/*--------------------------------*- C++ -*----------------------------------*\
| =========                 |                                                 |
| \\      /  F ield         | OpenFOAM Extend Project: Open source CFD        |
|  \\    /   O peration     | Version:  1.6-ext                               |
|   \\  /    A nd           | Web:      www.extend-project.de                 |
|    \\/     M anipulation  |                                                 |
\*---------------------------------------------------------------------------*/
FoamFile
{
    version     2.0;
    format      ascii;
    class       volSymmTensorField;
    location    "0.45";
    object      DSigma;
}
// * * * * * * * * * * * * * * * * * * * * * * * * * * * * * * * * * * * * * //

dimensions      [1 -1 -2 0 0 0 0];

internalField   nonuniform List<symmTensor> 
328
(
(0.202912 0.0384776 -2.04182e-24 0.0725656 -2.28643e-20 0.110191)
(0.173084 0.0163329 -9.73337e-26 0.0972253 2.84903e-27 0.108124)
(0.170729 -0.0179539 -2.01361e-24 0.0961349 1.63701e-24 0.106745)
(0.194647 -0.0380775 -3.25495e-24 0.069612 1.53476e-20 0.105704)
(0.189254 0.026587 -7.545e-24 0.0440897 1.52282e-20 0.0933374)
(0.173433 0.0136268 0 0.0679666 0 0.09656)
(0.171086 -0.0149436 1.52177e-24 0.0675396 -8.87419e-25 0.0954503)
(0.181105 -0.0264782 9.7956e-24 0.0420331 -2.37996e-20 0.0892552)
(0.185752 0.0166964 3.62593e-23 0.027338 4.86998e-22 0.0852362)
(0.182793 0.0105145 -1.08063e-24 0.0510942 1.61523e-26 0.0935549)
(0.18026 -0.0116165 1.08066e-24 0.0509791 -1.61515e-26 0.0924955)
(0.177357 -0.0167859 -5.50343e-23 0.0257391 1.29586e-20 0.0812383)
(0.181344 0.00957865 -2.34001e-23 0.0157269 1.71043e-20 0.0788285)
(0.185187 0.00718649 3.02048e-23 0.0354225 7.65546e-24 0.0882437)
(0.182631 -0.00815002 2.69251e-23 0.0355703 -1.08367e-23 0.0872807)
(0.1728 -0.00978655 4.54833e-23 0.0144229 -8.13678e-21 0.0748892)
(0.179665 0.00485447 -8.7296e-23 0.00898375 -1.66458e-20 0.0754596)
(0.188019 0.004241 -3.26776e-23 0.0247902 -9.65779e-24 0.0851237)
(0.18542 -0.00512496 -2.38737e-23 0.0250868 1.01079e-23 0.0842026)
(0.170906 -0.0051245 8.59282e-23 0.00781769 -7.61756e-21 0.0714894)
(0.178775 0.00184453 8.27227e-23 0.00497315 4.96089e-22 0.0734994)
(0.188694 0.00187439 0 0.0165477 0 0.0820965)
(0.186083 -0.00271056 -8.22408e-23 0.0169533 1.79019e-23 0.0812144)
(0.169801 -0.0021424 -1.90886e-22 0.00386569 1.02785e-20 0.0694669)
(0.178905 6.75048e-05 -1.35694e-23 0.00288564 4.91283e-21 0.0727163)
(0.188861 0.000184702 1.2946e-23 0.0109184 5.78738e-24 0.0799118)
(0.186232 -0.000992509 1.95214e-22 0.0113942 -4.52309e-23 0.0790503)
(0.169696 -0.000372453 8.17916e-23 0.00178391 -1.53868e-20 0.068592)
(0.179527 -0.000879976 -1.46873e-22 0.00191399 -9.33157e-21 0.0725765)
(0.188281 -0.00089041 0 0.00701459 0 0.0781183)
(0.185632 0.000102102 -1.01205e-22 0.00754296 2.15631e-23 0.0772699)
(0.170072 0.000579298 -3.45651e-24 0.000791211 2.23959e-20 0.0683454)
(0.180479 -0.00127997 2.02687e-22 0.00162158 -1.54574e-21 0.0728401)
(0.187439 -0.00145556 1.7231e-22 0.00453277 3.32526e-23 0.0767885)
(0.18476 0.000683335 -1.05369e-22 0.0051008 1.00592e-23 0.0759442)
(0.170764 0.000989555 -2.94242e-23 0.000463471 -1.43898e-20 0.068491)
(0.181534 -0.00134555 1.42779e-22 0.00169078 6.76491e-21 0.0732899)
(0.186426 -0.00164859 -9.4011e-23 0.00302851 -1.07516e-23 0.0757817)
(0.183709 0.000892698 1.2791e-22 0.00362957 -1.88051e-23 0.0749354)
(0.171548 0.00106829 -3.36626e-22 0.000491133 4.80303e-21 0.0688156)
(0.182567 -0.00122426 -2.95607e-22 0.00193544 1.40219e-21 0.0738011)
(0.185421 -0.00159757 -3.89846e-23 0.00221875 -9.74157e-24 0.0750557)
(0.182656 0.00086012 3.24178e-22 0.00284843 -3.21218e-23 0.0742017)
(0.172298 0.000961543 2.80967e-22 0.000691812 -1.9253e-21 0.0691959)
(0.183485 -0.00101842 8.56872e-23 0.00223736 -2.90939e-21 0.0742888)
(0.18449 -0.00141206 -3.52218e-22 0.00184924 -4.11846e-23 0.0745358)
(0.181669 0.000696267 -3.02262e-22 0.00250506 2.99503e-23 0.0736695)
(0.17292 0.000770983 -8.16587e-23 0.000949137 8.93168e-21 0.0695476)
(0.184239 -0.000792925 -4.69024e-22 0.00253087 -2.25125e-21 0.0747079)
(0.183685 -0.00117292 4.17065e-22 0.00174304 5.62036e-23 0.0741711)
(0.180798 0.000482542 2.81063e-22 0.00242335 -9.40677e-24 0.0732887)
(0.173368 0.000561345 2.76677e-24 0.00119807 -7.00115e-21 0.0698264)
(0.184812 -0.000585593 -4.53548e-23 0.00278197 2.36431e-21 0.0750376)
(0.18301 -0.000933677 -4.84162e-22 0.00177047 -4.27762e-23 0.0739123)
(0.180052 0.000272788 -2.50244e-22 0.00247428 2.39546e-23 0.0730106)
(0.173625 0.000370482 8.74987e-23 0.00140479 6.051e-21 0.0700118)
(0.185208 -0.000414185 4.72022e-22 0.00297811 -4.94687e-21 0.0752746)
(0.182454 -0.000723772 2.67953e-22 0.00184925 2.09996e-23 0.0737213)
(0.179419 9.65928e-05 -9.45995e-23 0.00257591 1.05204e-23 0.0727979)
(0.173696 0.000216257 9.67596e-23 0.00155673 -8.91172e-21 0.0701012)
(0.185444 -0.000283263 -1.63432e-24 0.00311926 6.42592e-21 0.0754252)
(0.181988 -0.000554767 0 0.00193056 0 0.0735675)
(0.178871 -3.44179e-05 -6.16345e-22 0.00267965 2.68383e-23 0.0726204)
(0.1736 0.000103331 4.14928e-22 0.00165386 1.84226e-21 0.0701016)
(0.185538 -0.000189519 4.70754e-25 0.00321204 -1.7994e-21 0.0755)
(0.181578 -0.000426423 0 0.00199065 0 0.0734276)
(0.178377 -0.000120469 -2.47664e-22 0.00276182 1.01697e-23 0.0724557)
(0.173359 2.84493e-05 -6.06226e-22 0.00170291 1.19761e-21 0.0700248)
(0.185509 -0.000126023 2.22827e-22 0.00326547 -1.04102e-22 0.0755098)
(0.18119 -0.00033221 0 0.00202132 0 0.0732844)
(0.177903 -0.000168113 4.04773e-22 0.00281418 -3.71474e-24 0.0722868)
(0.172995 -1.53072e-05 3.97444e-22 0.00171306 -5.02329e-24 0.0698831)
(0.185369 -8.51351e-05 1.49168e-24 0.00328817 -5.56944e-21 0.0754628)
(0.180789 -0.000263365 4.69303e-22 0.00202298 4.74672e-23 0.0731247)
(0.177416 -0.000186137 2.17488e-22 0.00283701 -7.95432e-24 0.0721014)
(0.172523 -3.56124e-05 -2.19259e-22 0.00169333 6.67879e-21 0.0696866)
(0.185123 -6.02154e-05 4.71479e-22 0.00328723 2.21155e-21 0.075364)
(0.180346 -0.000211466 -8.92788e-22 0.00199996 -7.2553e-23 0.0729386)
(0.176891 -0.000182903 4.5521e-22 0.00283429 2.82947e-23 0.0718899)
(0.171955 -3.91583e-05 6.21666e-25 0.00165116 -2.36267e-21 0.0694424)
(0.184766 -4.645e-05 3.21379e-25 0.00326702 -1.24149e-21 0.0752133)
(0.179836 -0.000169722 2.63253e-23 0.00195662 2.1318e-23 0.072717)
(0.1763 -0.000165055 4.92122e-22 0.00281005 5.37403e-23 0.0716442)
(0.171293 -3.07902e-05 4.57264e-22 0.00159168 -2.36145e-22 0.0691537)
(0.18429 -4.07249e-05 4.93772e-22 0.00323152 4.31575e-21 0.0750087)
(0.179234 -0.000133033 -4.59282e-22 0.00189817 -5.05178e-23 0.072453)
(0.175625 -0.000136902 -4.50416e-22 0.00276874 -1.78039e-23 0.0713576)
(0.170534 -1.34499e-05 -4.57651e-22 0.00151919 5.17422e-22 0.0688213)
(0.183647 -4.07868e-05 9.35139e-22 0.00317777 -1.62052e-21 0.0747297)
(0.178485 -9.61452e-05 -9.16809e-22 0.00182226 -1.10371e-22 0.072123)
(0.17481 -9.91167e-05 4.53886e-22 0.0027084 4.08597e-23 0.0710074)
(0.169637 1.23051e-05 4.35946e-22 0.00143213 -1.92413e-21 0.0684276)
(0.182829 -4.71518e-05 -1.45001e-25 0.00310861 7.18644e-22 0.0743749)
(0.177588 -6.02309e-05 0 0.00173681 0 0.07173)
(0.173861 -5.56271e-05 0 0.00263439 0 0.070598)
(0.168618 4.45098e-05 -9.77809e-22 0.00133509 -6.60322e-22 0.0679813)
(0.181874 -5.86402e-05 -5.61245e-22 0.00303377 -1.14153e-21 0.0739629)
(0.176584 -2.40187e-05 5.39232e-22 0.00165132 6.10715e-23 0.0712942)
(0.172826 -7.33755e-06 -2.61975e-22 0.00255502 -3.45655e-23 0.0701522)
(0.16754 8.27566e-05 5.00913e-22 0.00124106 5.18605e-21 0.0675124)
(0.180776 -7.36724e-05 -8.02645e-24 0.00295505 1.05004e-21 0.0734924)
(0.175471 1.38901e-05 -3.04488e-22 0.0015703 -4.65689e-23 0.0708167)
(0.171704 4.55695e-05 -5.6184e-22 0.00247455 -4.9232e-23 0.0696713)
(0.166404 0.000126129 8.55284e-22 0.00115313 -5.96272e-21 0.0670227)
(0.17953 -9.18813e-05 4.63085e-22 0.00287799 -1.00452e-21 0.0729632)
(0.174246 5.39667e-05 -1.39477e-23 0.00149937 -1.03111e-23 0.0702982)
(0.170493 0.000103103 4.64445e-22 0.00239834 4.89976e-23 0.0691567)
(0.165211 0.00017453 -4.41035e-22 0.00107831 2.91608e-21 0.0665157)
(0.17813 -0.000112449 3.39936e-22 0.00280662 -3.50403e-21 0.0723746)
(0.172905 9.62344e-05 0 0.00144379 0 0.0697395)
(0.169193 0.000164624 -1.38171e-22 0.00233138 -1.68141e-23 0.0686099)
(0.163963 0.000227012 -3.14806e-22 0.00102203 -2.34775e-21 0.0659942)
(0.176571 -0.000134832 -2.24756e-23 0.00274693 8.40832e-21 0.0717271)
(0.171447 0.000140145 2.25666e-23 0.00140994 4.4509e-24 0.0691426)
(0.167804 0.000229036 -2.01022e-22 0.00227984 -3.02712e-23 0.0680334)
(0.162663 0.000282473 1.97659e-27 0.000991516 1.35517e-22 0.065462)
(0.17485 -0.00015825 -5.92135e-22 0.00270459 -3.54768e-21 0.071022)
(0.169869 0.000184819 0 0.00140398 0 0.0685093)
(0.166324 0.000294698 -3.828e-22 0.00224978 -6.18869e-23 0.0674294)
(0.161312 0.000339223 -1.88605e-22 0.000993357 -2.63643e-21 0.0649222)
(0.172968 -0.000181892 3.96757e-22 0.00268593 1.93074e-22 0.0702616)
(0.168173 0.000229127 4.23334e-22 0.00143223 9.65462e-23 0.0678421)
(0.164754 0.000359646 7.74045e-22 0.00224754 1.37254e-22 0.0668006)
(0.159911 0.0003953 -4.09944e-22 0.00103434 1.91268e-21 0.064378)
(0.170926 -0.00020474 -1.72462e-25 0.00269685 -9.02295e-22 0.0694491)
(0.16636 0.000271895 -8.17568e-22 0.00150037 -1.70683e-22 0.067144)
(0.163095 0.000421737 0 0.002279 0 0.0661498)
(0.15846 0.000448441 1.57268e-21 0.00112036 -2.82659e-22 0.0638321)
(0.168729 -0.000225649 2.74254e-21 0.00274284 8.37753e-22 0.0685887)
(0.164431 0.000312031 1.79614e-21 0.00161331 4.17687e-22 0.0664179)
(0.16135 0.00047885 2.6057e-21 0.00234937 5.25978e-22 0.0654796)
(0.15696 0.000496298 8.39075e-22 0.00125636 2.10266e-21 0.0632864)
(0.166385 -0.000243335 -3.75125e-21 0.00282827 -6.42882e-22 0.0676854)
(0.162393 0.000348629 -1.79614e-21 0.00177455 -4.17686e-22 0.0656671)
(0.159519 0.000529024 -1.69776e-21 0.00246264 -3.19606e-22 0.0647926)
(0.15541 0.000536517 9.16458e-22 0.00144573 -6.88796e-22 0.0627423)
(0.163904 -0.000256474 -7.95855e-23 0.00295604 -7.09953e-22 0.0667441)
(0.16025 0.000381003 -1.89337e-21 0.00198593 -4.54034e-22 0.0648945)
(0.157606 0.000570552 1.96969e-21 0.00262125 4.97267e-22 0.0640911)
(0.153811 0.000566899 -1.86765e-21 0.00169004 -1.98797e-21 0.0622003)
(0.161299 -0.000263784 2.01298e-21 0.00312713 2.35774e-21 0.0657703)
(0.15801 0.000408675 1.96993e-21 0.00224726 4.9767e-22 0.0641028)
(0.155616 0.00060203 -3.88021e-21 0.0028257 -9.48365e-22 0.0633767)
(0.152162 0.00058549 1.80896e-21 0.00198867 2.5844e-21 0.0616603)
(0.158582 -0.00026415 -2.07332e-21 0.00334038 -6.68147e-22 0.0647689)
(0.15568 0.000431322 0 0.00255606 0 0.0632944)
(0.153552 0.000622362 0 0.00307433 0 0.0626506)
(0.150464 0.000590685 -1.44516e-23 0.00233862 -1.50916e-21 0.0611211)
(0.155769 -0.000256725 -8.75084e-21 0.00359228 -9.13005e-22 0.0637444)
(0.15327 0.000448706 -2.82038e-23 0.00290748 1.99743e-24 0.0624708)
(0.15142 0.00063075 0 0.00336312 0 0.0619133)
(0.148717 0.000581305 -4.17053e-21 0.0027344 7.16919e-22 0.0605807)
(0.152875 -0.000241033 -4.5978e-21 0.00387701 -2.18861e-21 0.0627009)
(0.150788 0.000460617 8.74355e-21 0.00329433 2.54588e-21 0.0616331)
(0.149226 0.000626673 -4.38509e-21 0.00368576 -1.27278e-21 0.0611646)
(0.146922 0.000556656 -1.41665e-22 0.00316805 2.60966e-22 0.0600359)
(0.149918 -0.000217028 4.59733e-21 0.00418658 1.51373e-21 0.0616417)
(0.148246 0.000466829 -4.64685e-21 0.00370722 -1.46406e-21 0.0607814)
(0.146974 0.000609882 -4.43261e-21 0.00403379 -1.27752e-21 0.0604032)
(0.145078 0.000516576 8.74405e-21 0.00362935 -3.93915e-23 0.0594828)
(0.146912 -0.000185136 -4.85907e-21 0.00451116 3.74232e-22 0.0605692)
(0.145653 0.000467085 -2.25883e-23 0.00413492 -3.26631e-24 0.0599151)
(0.144671 0.000580403 9.72688e-23 0.00439687 8.99374e-23 0.0596273)
(0.143185 0.000461466 -4.4913e-21 0.00410609 -8.64944e-22 0.0589164)
(0.143874 -0.000146245 4.90351e-21 0.00483951 8.05189e-22 0.0594852)
(0.143018 0.000461122 -5.02062e-21 0.00456482 -1.74865e-21 0.059033)
(0.142322 0.000538555 -9.63394e-21 0.00476328 -3.13887e-21 0.0588343)
(0.141242 0.000392304 -1.34243e-22 0.00458462 1.18576e-21 0.0583308)
(0.140818 -0.000101674 3.67715e-25 0.0051596 3.65092e-22 0.0583909)
(0.14035 0.000448702 4.92408e-21 0.00498349 1.65996e-21 0.0581334)
(0.139932 0.00048498 4.82644e-21 0.00512045 1.57252e-21 0.0580209)
(0.139249 0.000310633 9.58436e-21 0.00505039 1.19842e-21 0.0577196)
(0.137758 -5.31015e-05 -5.26748e-21 0.00545923 3.58569e-22 0.0572868)
(0.137657 0.000429675 0 0.00537737 0 0.0572138)
(0.137503 0.000420667 5.0915e-21 0.00545565 1.77464e-21 0.0571835)
(0.137201 0.000218528 -4.85897e-21 0.00548871 -8.75466e-22 0.0570757)
(0.134705 -2.47471e-06 9.35706e-23 0.00572674 -2.41438e-21 0.0561728)
(0.134946 0.000404035 5.30301e-21 0.0057335 1.94869e-21 0.0562716)
(0.135039 0.000346962 -5.0915e-21 0.00575665 -1.77464e-21 0.0563181)
(0.135095 0.000118535 -4.99996e-21 0.00588551 1.67328e-21 0.0563923)
(0.13167 4.81004e-05 -1.10773e-20 0.00595172 -2.13928e-21 0.0550488)
(0.13222 0.000371968 -1.06658e-20 0.00604024 -3.93264e-21 0.0553043)
(0.13254 0.000265562 -2.66856e-23 0.00601251 -1.99679e-23 0.0554211)
(0.132928 1.35724e-05 1.02603e-20 0.00622812 1.53845e-21 0.0556623)
(0.12866 9.64807e-05 1.10772e-20 0.00612562 2.18612e-21 0.0539141)
(0.129485 0.000333881 1.09148e-20 0.00628794 4.13133e-21 0.0543092)
(0.130008 0.000178467 -2.223e-22 0.00621414 -1.78715e-22 0.0544887)
(0.130693 -9.31892e-05 1.05105e-20 0.006506 1.57595e-21 0.0548797)
(0.125678 0.000140608 1.15589e-20 0.00624224 2.02304e-21 0.0527681)
(0.126741 0.000290419 0 0.00646945 0 0.053284)
(0.12744 8.79163e-05 0 0.00635491 0 0.0535178)
(0.128387 -0.000198477 -1.09825e-20 0.00671134 -4.55614e-21 0.0540392)
(0.122728 0.000178627 2.33662e-22 0.00629811 1.02393e-21 0.0516103)
(0.123987 0.000242445 2.11951e-22 0.00658055 1.70092e-22 0.0522269)
(0.124834 -3.70885e-06 2.25979e-20 0.00643094 8.89689e-21 0.0525059)
(0.126002 -0.000299075 -1.14357e-20 0.00683949 -2.02105e-21 0.0531365)
(0.119807 0.000208984 -2.36047e-20 0.00629261 -4.75485e-21 0.0504399)
(0.121221 0.000191014 1.2046e-20 0.00662008 5.05055e-21 0.0511365)
(0.122187 -9.39967e-05 -1.16485e-20 0.00644132 -4.73911e-21 0.0514513)
(0.123533 -0.000391988 2.24445e-20 0.00688915 -2.75151e-22 0.052169)
(0.116913 0.000230511 -1.22184e-20 0.00622789 -2.02267e-21 0.0492564)
(0.11844 0.000137323 -1.18376e-20 0.00658988 -4.88313e-21 0.0500121)
(0.119495 -0.000180621 1.16486e-20 0.00638801 4.73911e-21 0.0503532)
(0.120976 -0.000474587 -2.31412e-20 0.00686231 -2.50713e-21 0.0511355)
(0.11404 0.000242473 1.24322e-20 0.00610858 4.19326e-22 0.0480593)
(0.115639 8.26529e-05 0 0.00649456 0 0.0488535)
(0.116753 -0.000261448 0 0.0062756 0 0.0492115)
(0.118327 -0.000544732 2.358e-20 0.00676396 5.2067e-21 0.0500362)
(0.111179 0.000244599 1.24705e-20 0.00594141 1.86832e-21 0.0468483)
(0.112811 2.83154e-05 -2.47722e-20 0.00634105 -1.06895e-20 0.047661)
(0.113956 -0.000334629 2.44063e-20 0.00611088 1.04186e-20 0.0480269)
(0.11558 -0.000600855 -2.40086e-20 0.00660164 -6.10932e-21 0.0488728)
(0.108322 0.000237066 -1.2847e-20 0.00573456 5.27835e-22 0.0456227)
(0.109951 -2.44076e-05 0 0.00613803 0 0.0464354)
(0.1111 -0.000398666 0 0.00590224 0 0.0468008)
(0.112735 -0.000642003 1.23335e-20 0.00638483 3.65169e-21 0.047648)
(0.105458 0.000220469 2.59478e-20 0.00549715 3.30142e-21 0.0443822)
(0.107049 -7.43128e-05 -1.28888e-20 0.00589529 -5.76466e-21 0.0451779)
(0.108179 -0.00045245 1.27262e-20 0.00565911 5.66098e-21 0.0455351)
(0.10979 -0.000667838 -2.48692e-20 0.0061242 -4.64951e-21 0.0463657)
(0.102577 0.000195756 -3.95772e-20 0.00523855 -7.91297e-21 0.0431261)
(0.104101 -0.000120319 1.30996e-20 0.00562313 5.96033e-21 0.0438897)
(0.105189 -0.000495276 -2.54631e-20 0.00539129 -1.13468e-20 0.044232)
(0.106744 -0.000678599 -1.56892e-23 0.00583099 1.92218e-21 0.0450302)
(0.0996659 0.000164155 -1.34518e-20 0.00496789 -3.32505e-21 0.0418535)
(0.101099 -0.000161504 -1.31106e-20 0.00533175 -5.98435e-21 0.0425722)
(0.102127 -0.000526831 0 0.00510844 0 0.042894)
(0.1036 -0.000675033 -1.94381e-22 0.00551636 7.48502e-22 0.0436464)
(0.0967154 0.00012708 1.36245e-20 0.0046936 3.55223e-21 0.0405636)
(0.0980367 -0.000197132 1.3291e-20 0.00503078 6.12987e-21 0.041227)
(0.0989897 -0.000547172 -1.33073e-20 0.00481954 -6.18014e-21 0.0415237)
(0.100358 -0.000658307 1.29347e-20 0.0051908 2.10051e-21 0.0422196)
(0.0937149 8.60472e-05 1.38039e-20 0.00442306 3.54651e-21 0.0392552)
(0.0949095 -0.000226674 -2.71411e-20 0.00472888 -1.27841e-20 0.0398553)
(0.0957761 -0.000556683 2.67913e-20 0.00453261 1.25025e-20 0.0401235)
(0.0970228 -0.000629906 1.33104e-20 0.00486381 3.24635e-21 0.0407547)
(0.0906554 4.25806e-05 2.78031e-20 0.00416244 6.20096e-21 0.0379271)
(0.091713 -0.000249817 -1.68887e-22 0.00443354 -1.36818e-22 0.0384586)
(0.0924851 -0.000556036 1.36653e-20 0.00425443 6.51503e-21 0.0386958)
(0.0935981 -0.000591532 1.75777e-22 0.00454359 -8.49575e-22 0.0392567)
(0.087529 -1.85701e-06 -2.79741e-20 0.00391665 -6.74783e-21 0.0365783)
(0.0884441 -0.000266468 1.39962e-20 0.00415095 6.7585e-21 0.037038)
(0.0891171 -0.000546132 -2.7332e-20 0.00399049 -1.30585e-20 0.037243)
(0.090089 -0.000545005 2.73167e-20 0.00423691 5.19402e-21 0.0377304)
(0.0843293 -4.59251e-05 2.22372e-24 0.00368933 1.09761e-21 0.0352075)
(0.0851007 -0.000276736 1.41613e-20 0.00388599 6.94493e-21 0.0355947)
(0.0856729 -0.000528044 -1.38339e-20 0.00374501 -6.70966e-21 0.0357672)
(0.086501 -0.000492173 1.67051e-22 0.00394912 -5.41904e-22 0.03618)
(0.0810514 -8.84444e-05 -3.24269e-24 0.00348304 -1.58129e-21 0.0338138)
(0.0816821 -0.000280907 -1.41613e-20 0.00364233 -6.94493e-21 0.0341298)
(0.0821547 -0.00050296 2.81496e-20 0.003521 1.38805e-20 0.0342703)
(0.08284 -0.000434838 -1.39829e-20 0.0036842 -1.24019e-21 0.0346097)
(0.077692 -0.000128417 1.51957e-22 0.0032994 9.46782e-22 0.0323966)
(0.0781883 -0.000279408 1.44708e-20 0.00342255 7.22938e-21 0.0326443)
(0.0785649 -0.000472115 1.49924e-22 0.00332046 1.61585e-22 0.0327541)
(0.0791122 -0.000374689 1.41341e-20 0.00344497 4.87123e-21 0.0330229)
(0.0742494 -0.000165033 -2.93678e-20 0.00313926 -7.09286e-21 0.0309555)
(0.0746205 -0.000272757 -1.46082e-20 0.00322833 -7.4171e-21 0.0311395)
(0.0749069 -0.000436733 -1.4305e-20 0.00314454 -7.1674e-21 0.0312206)
(0.0753239 -0.000313259 -2.84103e-20 0.0032332 -9.11412e-21 0.0314229)
(0.0707233 -0.000197659 2.95015e-20 0.00300291 7.34395e-21 0.0294905)
(0.0709807 -0.000261525 -1.46574e-22 0.00306062 -1.21169e-22 0.0296165)
(0.0711843 -0.000397977 0 0.00299373 0 0.0296712)
(0.0714813 -0.000251893 1.42756e-20 0.00304989 3.9964e-21 0.0298125)
(0.0671148 -0.000225835 1.5031e-20 0.00289023 4.23269e-21 0.028002)
(0.0672717 -0.000246299 1.47298e-20 0.00291977 7.61021e-21 0.0280766)
(0.0674013 -0.000356914 -1.47298e-20 0.00286803 -7.61019e-21 0.0281077)
(0.0675903 -0.000191736 -3.35681e-25 0.00289539 -1.58342e-22 0.0281943)
(0.0634261 -0.000249258 -5.04414e-26 0.00280071 -2.35984e-23 0.0264907)
(0.0634969 -0.00022766 1.48547e-20 0.00280567 7.76825e-21 0.026521)
(0.0635622 -0.0003145 -2.95474e-20 0.00276705 -1.54593e-20 0.0265317)
(0.0636569 -0.000133727 1.46827e-20 0.00276957 2.9901e-21 0.0265706)
(0.0596605 -0.000267775 1.5252e-20 0.0027336 4.25085e-21 0.0249576)
(0.0596601 -0.000206187 1.49721e-20 0.00271782 7.9263e-21 0.0249512)
(0.0596716 -0.000271583 -1.49721e-20 0.00269013 -7.92628e-21 0.0249447)
(0.0596866 -7.86169e-05 -3.29193e-24 0.00267194 -1.53582e-21 0.0249434)
(0.055822 -0.000281385 -3.07638e-20 0.00268789 -9.4682e-21 0.0234039)
(0.0557659 -0.000182466 -1.52384e-20 0.00265538 -8.15167e-21 0.0233685)
(0.0557341 -0.000228925 0 0.00263634 0 0.0233482)
(0.0556847 -2.69822e-05 7.01809e-25 0.00260166 3.26033e-22 0.0233145)
(0.0519153 -0.000290225 -1.25906e-22 0.00266234 1.86353e-22 0.0218311)
(0.0518186 -0.000157111 0 0.00261718 0 0.0217743)
(0.0517545 -0.000187231 0 0.00260456 0 0.0217436)
(0.0516562 2.07432e-05 -1.49783e-20 0.00255763 -3.98937e-21 0.0216855)
(0.0479459 -0.000294586 -1.14755e-24 0.00265557 -5.28374e-22 0.0202406)
(0.0478233 -0.00013079 1.54018e-20 0.00260184 8.50829e-21 0.02017)
(0.0477373 -0.00014717 -1.52424e-20 0.00259353 -8.45404e-21 0.0201323)
(0.0476055 6.42565e-05 3.00463e-20 0.0025385 7.89078e-21 0.0200576)
(0.0439192 -0.000294882 -1.55503e-20 0.00266594 -4.82995e-21 0.0186341)
(0.0437846 -0.00010423 -1.53641e-20 0.00260765 -8.56082e-21 0.0185569)
(0.0436869 -0.000109397 3.04458e-20 0.00260172 1.69632e-20 0.0185154)
(0.0435363 0.000103353 -4.54114e-20 0.00254261 -1.17721e-20 0.0184316)
(0.039842 -0.000291668 7.4237e-23 0.00269201 -1.39991e-22 0.0170136)
(0.0397081 -7.826e-05 -7.46962e-23 0.00263306 -1.56919e-22 0.0169365)
(0.0396078 -7.4536e-05 1.53995e-20 0.00262789 8.77829e-21 0.0168943)
(0.0394522 0.00013793 1.51505e-20 0.00256837 4.14049e-21 0.0168082)
(0.03572 -0.000285639 1.57298e-20 0.00273177 5.0752e-21 0.0153807)
(0.0355976 -5.37928e-05 -1.12532e-22 0.00267562 -9.89865e-23 0.0153093)
(0.0355028 -4.32048e-05 -1.53995e-20 0.00266989 -8.77829e-21 0.0152691)
(0.0353549 0.000167984 -1.52907e-20 0.00261344 -4.3427e-21 0.0151873)
(0.031563 -0.000277689 1.5832e-20 0.00278502 4.71696e-21 0.0137392)
(0.0314607 -3.20451e-05 -3.13114e-20 0.00273533 -1.81155e-20 0.0136784)
(0.0313782 -1.58521e-05 5.288e-23 0.00272819 -6.394e-23 0.0136426)
(0.0312488 0.000193652 1.52907e-20 0.00267721 4.3665e-21 0.0135704)
(0.0273732 -0.000268853 9.98301e-23 0.00284835 -1.53778e-22 0.0120886)
(0.0272941 -1.4221e-05 1.57887e-20 0.00280659 9.23022e-21 0.0120403)
(0.0272287 6.94771e-06 1.55242e-20 0.00279764 9.10401e-21 0.0120105)
(0.0271293 0.00021519 -4.0685e-26 0.00275555 -1.86511e-23 0.0119539)
(0.023176 -0.00026115 -3.18566e-20 0.00292832 -9.29223e-21 0.0104417)
(0.023121 -2.75053e-06 1.56773e-20 0.0028994 9.36104e-21 0.0104081)
(0.0230754 2.55574e-05 -3.11916e-20 0.00288883 -1.8698e-20 0.0103857)
(0.0230139 0.00023366 -1.5272e-20 0.00285435 -4.23071e-21 0.0103473)
(0.0189425 -0.000253895 1.53923e-22 0.00301223 2.16896e-22 0.0087819)
(0.0188909 2.87515e-06 1.57482e-22 0.00298421 1.84523e-23 0.00875003)
(0.0188649 3.75247e-05 1.57149e-20 0.00297286 9.52174e-21 0.0087351)
(0.0188632 0.000247769 1.544e-20 0.00295959 4.68174e-21 0.00872911)
(0.0147978 -0.000250036 -1.6045e-20 0.0031368 -5.0736e-21 0.00717386)
(0.0147466 1.41381e-08 9.06478e-23 0.00312446 8.52799e-23 0.00714844)
(0.0147367 4.29989e-05 1.57441e-20 0.00311386 9.68246e-21 0.00714023)
(0.0147912 0.000258795 3.63959e-26 0.00310734 1.66721e-23 0.00715941)
(0.0104408 -0.000206574 -6.5155e-26 0.00318337 -2.98235e-23 0.00544967)
(0.0103309 1.08042e-05 -3.16001e-20 0.00308043 -1.96109e-20 0.00536454)
(0.0103308 1.97445e-05 1.57653e-20 0.00307182 9.84312e-21 0.00536107)
(0.010482 0.000224668 -1.05555e-25 0.00317372 -4.82765e-23 0.00546231)
(0.00671454 -0.00011183 8.01045e-21 0.00321634 5.20024e-21 0.00397236)
(0.00672836 1.07157e-05 1.58921e-20 0.00318766 2.01216e-20 0.00396641)
(0.00672777 -1.42262e-06 -1.58482e-20 0.00317298 -2.01221e-20 0.0039603)
(0.00675615 0.000125677 7.87146e-21 0.00321024 5.05557e-21 0.00398656)
)
;

boundaryField
{
    plateFix
    {
        type            calculated;
        value           nonuniform List<symmTensor> 4((0.20453 0.0494572 -2.81381e-24 0.0736446 -2.28643e-20 0.11127) (0.162701 0.0168724 -9.73337e-26 0.0903036 2.84903e-27 0.101202) (0.160598 -0.0187748 -2.01361e-24 0.0893811 1.63701e-24 0.0999916) (0.196464 -0.0488536 -2.61066e-24 0.070819 1.53476e-20 0.106913));
    }
    plate
    {
        type            calculated;
        value           nonuniform List<symmTensor> 
168
(
(0.156391 1.80887e-05 -1.71052e-24 0.00278078 -4.62827e-20 0.0636687)
(0.150024 3.94428e-05 -7.05093e-24 0.00272275 3.09516e-20 0.0610985)
(0.161715 1.80345e-05 -8.00153e-24 0.00277805 3.08143e-20 0.0657974)
(0.154879 3.34249e-05 1.78143e-23 0.00272056 -4.78927e-20 0.0630397)
(0.169381 1.89414e-05 3.62485e-23 0.00277695 7.08804e-22 0.0688632)
(0.162001 2.63609e-05 -5.71349e-23 0.00272013 2.5498e-20 0.0658886)
(0.172713 2.23885e-05 -2.46327e-23 0.00277611 3.49699e-20 0.0701955)
(0.164993 2.05679e-05 4.56064e-23 0.0027198 -1.59146e-20 0.0670852)
(0.175528 2.77379e-05 -8.57784e-23 0.00277519 -3.37082e-20 0.0713211)
(0.167504 1.71924e-05 8.70135e-23 0.00271923 -1.54551e-20 0.0680895)
(0.17731 3.39874e-05 8.27035e-23 0.00277395 6.73984e-22 0.0720335)
(0.169035 1.47286e-05 -1.92329e-22 0.00271811 2.0682e-20 0.0687014)
(0.17883 4.06677e-05 -1.4222e-23 0.00277223 1.00591e-20 0.0726407)
(0.170317 1.28573e-05 8.39792e-23 0.00271627 -3.09408e-20 0.0692135)
(0.180098 4.74748e-05 -1.45356e-22 0.00276989 -1.88201e-20 0.073147)
(0.171354 1.11908e-05 -6.98055e-24 0.00271356 4.52294e-20 0.0696271)
(0.181241 5.42388e-05 2.03278e-22 0.00276679 -2.79816e-21 0.0736033)
(0.172262 9.58884e-06 -2.69578e-23 0.00270985 -2.924e-20 0.0699888)
(0.182248 6.08702e-05 1.41586e-22 0.00276275 1.34771e-20 0.0740042)
(0.173024 7.97721e-06 -3.37213e-22 0.00270498 9.6923e-21 0.0702917)
(0.183115 6.73107e-05 -2.95546e-22 0.00275759 2.78309e-21 0.0743489)
(0.173636 6.32314e-06 2.81322e-22 0.00269875 -3.7671e-21 0.0705341)
(0.183826 7.35288e-05 8.5835e-23 0.00275101 -6.10568e-21 0.0746309)
(0.174082 4.62815e-06 -8.3103e-23 0.0026909 1.7695e-20 0.070709)
(0.184379 7.94642e-05 -4.68628e-22 0.00274266 -4.03894e-21 0.0748488)
(0.174357 2.88966e-06 4.52062e-24 0.00268105 -1.38786e-20 0.0708152)
(0.184778 8.5031e-05 -4.58841e-23 0.00273204 4.62811e-21 0.0750041)
(0.174468 1.14084e-06 8.59399e-23 0.00266873 1.21285e-20 0.0708546)
(0.185035 9.00768e-05 4.73267e-22 0.00271855 -1.00292e-20 0.0751014)
(0.174428 -5.64164e-07 9.8943e-23 0.00265333 -1.7913e-20 0.0708323)
(0.185165 9.43818e-05 -3.25252e-24 0.00270144 1.27885e-20 0.0751465)
(0.174254 -2.10558e-06 4.14557e-22 0.00263412 3.61232e-21 0.0707551)
(0.185183 9.76245e-05 9.18856e-25 0.00267979 -3.51221e-21 0.0751451)
(0.173964 -3.30028e-06 -6.06582e-22 0.0026102 2.57287e-21 0.0706297)
(0.1851 9.93717e-05 2.22773e-22 0.00265259 -4.25404e-22 0.0751011)
(0.173573 -3.86895e-06 3.97455e-22 0.00258055 -4.57131e-23 0.0704614)
(0.184922 9.90302e-05 2.91887e-24 0.00261864 -1.08981e-20 0.0750164)
(0.17309 -3.40276e-06 -2.21063e-22 0.00254398 1.34774e-20 0.0702536)
(0.184649 9.58584e-05 4.70748e-22 0.00257683 4.33037e-21 0.0748903)
(0.17252 -1.3725e-06 1.27609e-24 0.00249936 -4.84981e-21 0.0700078)
(0.184272 8.87878e-05 6.46369e-25 0.00252572 -2.49693e-21 0.074719)
(0.171862 3.05522e-06 4.57365e-22 0.00244527 -6.30662e-22 0.0697227)
(0.183779 7.66664e-05 4.92639e-22 0.00246527 8.46045e-21 0.0744978)
(0.171109 1.07538e-05 -4.57813e-22 0.00238168 1.08547e-21 0.0693963)
(0.183123 5.78317e-05 9.35466e-22 0.00239187 -3.40914e-21 0.0742058)
(0.170219 2.28588e-05 4.3636e-22 0.00230483 -3.7227e-21 0.0690094)
(0.182293 3.19754e-05 -2.91577e-25 0.00230547 1.44509e-21 0.0738395)
(0.169205 3.94978e-05 -9.77665e-22 0.00221473 -1.36224e-21 0.0685678)
(0.181331 -8.95521e-07 -5.61022e-22 0.00221938 -2.17975e-21 0.07342)
(0.168129 6.13056e-05 5.00037e-22 0.00212521 1.04345e-20 0.0681019)
(0.180229 -3.96533e-05 -8.17938e-24 0.00213432 2.10331e-21 0.0729452)
(0.166993 8.72913e-05 8.56073e-22 0.00203714 -1.21899e-20 0.067612)
(0.178983 -8.39391e-05 4.63183e-22 0.00205722 -2.09905e-21 0.0724161)
(0.165797 0.000117277 -4.41307e-22 0.00195766 6.07175e-21 0.0671019)
(0.177587 -0.000132512 3.40088e-22 0.0019925 -7.08205e-21 0.0718318)
(0.164543 0.000150215 -3.14699e-22 0.00189149 -4.73863e-21 0.0665738)
(0.176038 -0.000184173 -2.23844e-23 0.00194697 1.67753e-20 0.0711938)
(0.163233 0.000185083 3.9386e-27 0.00184572 2.70035e-22 0.0660315)
(0.174332 -0.000237201 -5.92372e-22 0.0019267 -6.84302e-21 0.0705034)
(0.161868 0.000220335 -1.88787e-22 0.00182669 -5.18916e-21 0.0654777)
(0.172469 -0.000289718 3.96759e-22 0.0019383 2.07004e-22 0.0697631)
(0.160449 0.000254255 -4.09687e-22 0.00184126 3.86399e-21 0.064916)
(0.170453 -0.000339557 -3.39841e-25 0.00198763 -1.77799e-21 0.0689762)
(0.158976 0.000284828 1.57244e-21 0.0018955 -8.27607e-22 0.0643488)
(0.168287 -0.000384464 2.74271e-21 0.00207984 9.62908e-22 0.0681467)
(0.157452 0.000309942 8.39451e-22 0.0019947 4.10572e-21 0.0637785)
(0.165979 -0.000422141 -3.75113e-21 0.00221868 -2.7667e-22 0.0672789)
(0.155874 0.000327439 9.16149e-22 0.00214272 -1.61401e-21 0.0632068)
(0.163538 -0.000450414 -7.98724e-23 0.00240622 -1.42976e-21 0.0663775)
(0.154245 0.000335274 -1.8683e-21 0.00234163 -3.57835e-21 0.0626346)
(0.160975 -0.000467334 2.01353e-21 0.00264243 4.21969e-21 0.065447)
(0.152564 0.000331629 1.80961e-21 0.00259136 4.79269e-21 0.062062)
(0.158304 -0.000471318 -2.07337e-21 0.00292498 -7.66884e-22 0.0644918)
(0.150831 0.00031505 -1.48422e-23 0.00288944 -3.01806e-21 0.0614881)
(0.15554 -0.000461246 -8.75041e-21 0.00324911 8.41551e-22 0.0635155)
(0.149048 0.000284548 -4.16937e-21 0.00323091 2.54193e-21 0.0609114)
(0.152695 -0.000436554 -4.59832e-21 0.0036077 -2.93927e-21 0.0625212)
(0.147215 0.000239688 -1.41407e-22 0.00360833 6.23808e-22 0.0603291)
(0.149787 -0.000397288 4.59737e-21 0.00399141 1.57015e-21 0.0615114)
(0.145332 0.000180643 8.74209e-21 0.00401198 -2.52085e-21 0.0597376)
(0.14683 -0.000344126 -4.85786e-21 0.00438906 2.3978e-21 0.0604876)
(0.1434 0.00010822 -4.48979e-21 0.00443023 -4.54548e-22 0.0591321)
(0.143839 -0.000278375 4.90272e-21 0.00478811 -4.45505e-23 0.0594508)
(0.141418 2.38472e-05 -1.33015e-22 0.00485 2.48477e-21 0.0585073)
(0.140828 -0.000201922 7.35146e-25 0.00517526 7.29901e-22 0.0584012)
(0.139385 -7.04702e-05 9.58243e-21 0.00525738 -6.89151e-22 0.057857)
(0.137809 -0.000117157 -5.26521e-21 0.00553713 2.64802e-21 0.0573386)
(0.137299 -0.000172226 -4.85818e-21 0.00563836 -1.63587e-22 0.0571749)
(0.134795 -2.68713e-05 9.07683e-23 0.00586101 -4.90679e-21 0.0562623)
(0.135156 -0.000278521 -4.99472e-21 0.00597962 5.04826e-21 0.0564544)
(0.131793 6.58793e-05 -1.10747e-20 0.00613559 -8.99238e-24 0.0551714)
(0.132954 -0.000386194 1.02551e-20 0.00626924 -5.33761e-22 0.0556891)
(0.128811 0.000157924 1.10745e-20 0.00635164 1.02101e-22 0.0540649)
(0.130686 -0.000491975 1.0505e-20 0.00649744 -6.68715e-22 0.0548733)