/*--------------------------------*- C++ -*----------------------------------*\
| =========                 |                                                 |
| \\      /  F ield         | OpenFOAM Extend Project: Open source CFD        |
|  \\    /   O peration     | Version:  1.6-ext                               |
|   \\  /    A nd           | Web:      www.extend-project.de                 |
|    \\/     M anipulation  |                                                 |
\*---------------------------------------------------------------------------*/
FoamFile
{
    version     2.0;
    format      ascii;
    class       volVectorField;
    location    "0.45";
    object      DU;
}
// * * * * * * * * * * * * * * * * * * * * * * * * * * * * * * * * * * * * * //

dimensions      [0 1 0 0 0 0 0];

internalField   nonuniform List<vector> 
328
(
(4.66315e-09 8.95088e-09 0)
(3.07492e-09 1.76887e-09 0)
(3.03013e-09 -1.94755e-09 0)
(4.4779e-09 -8.84182e-09 0)
(1.42153e-08 2.29502e-08 0)
(1.01649e-08 5.21113e-09 0)
(1.00099e-08 -5.64375e-09 0)
(1.36332e-08 -2.27004e-08 0)
(2.52907e-08 3.33679e-08 0)
(1.96476e-08 8.51134e-09 0)
(1.9335e-08 -9.09413e-09 0)
(2.42309e-08 -3.30066e-08 0)
(3.73749e-08 4.07971e-08 0)
(3.07505e-08 1.14036e-08 0)
(3.02545e-08 -1.2026e-08 0)
(3.5778e-08 -4.03091e-08 0)
(5.06257e-08 4.59994e-08 0)
(4.36278e-08 1.37948e-08 0)
(4.29203e-08 -1.43366e-08 0)
(4.84254e-08 -4.53241e-08 0)
(6.49889e-08 4.95638e-08 0)
(5.80311e-08 1.56658e-08 0)
(5.70892e-08 -1.59879e-08 0)
(6.21198e-08 -4.85991e-08 0)
(8.05456e-08 5.19784e-08 0)
(7.39319e-08 1.70805e-08 0)
(7.27318e-08 -1.70182e-08 0)
(7.69373e-08 -5.05799e-08 0)
(9.7355e-08 5.36138e-08 0)
(9.12413e-08 1.81384e-08 0)
(8.97592e-08 -1.74932e-08 0)
(9.29319e-08 -5.15932e-08 0)
(1.15507e-07 5.47651e-08 0)
(1.09942e-07 1.89634e-08 0)
(1.08152e-07 -1.74941e-08 0)
(1.10186e-07 -5.1885e-08 0)
(1.35092e-07 5.56616e-08 0)
(1.30029e-07 1.96818e-08 0)
(1.27902e-07 -1.70952e-08 0)
(1.28783e-07 -5.16293e-08 0)
(1.56206e-07 5.64864e-08 0)
(1.51537e-07 2.04149e-08 0)
(1.49042e-07 -1.63544e-08 0)
(1.48809e-07 -5.09439e-08 0)
(1.78952e-07 5.73853e-08 0)
(1.74526e-07 2.12722e-08 0)
(1.71627e-07 -1.53052e-08 0)
(1.70353e-07 -4.98979e-08 0)
(2.03431e-07 5.84777e-08 0)
(1.99082e-07 2.23519e-08 0)
(1.9574e-07 -1.39546e-08 0)
(1.9351e-07 -4.85191e-08 0)
(2.29755e-07 5.98642e-08 0)
(2.25314e-07 2.37426e-08 0)
(2.21484e-07 -1.22821e-08 0)
(2.18373e-07 -4.67995e-08 0)
(2.58038e-07 6.16355e-08 0)
(2.53346e-07 2.55282e-08 0)
(2.48979e-07 -1.02415e-08 0)
(2.45046e-07 -4.46998e-08 0)
(2.88404e-07 6.38795e-08 0)
(2.83317e-07 2.77936e-08 0)
(2.78359e-07 -7.76272e-09 0)
(2.73636e-07 -4.21534e-08 0)
(3.20987e-07 6.66891e-08 0)
(3.15376e-07 3.06309e-08 0)
(3.09767e-07 -4.75369e-09 0)
(3.0426e-07 -3.90693e-08 0)
(3.55928e-07 7.01684e-08 0)
(3.49679e-07 3.41452e-08 0)
(3.43352e-07 -1.10091e-09 0)
(3.37042e-07 -3.53341e-08 0)
(3.9338e-07 7.44393e-08 0)
(3.86388e-07 3.846e-08 0)
(3.79271e-07 3.33086e-09 0)
(3.72116e-07 -3.08112e-08 0)
(4.33502e-07 7.96463e-08 0)
(4.25669e-07 4.37224e-08 0)
(4.17683e-07 8.7004e-09 0)
(4.09624e-07 -2.53403e-08 0)
(4.76465e-07 8.59611e-08 0)
(4.67693e-07 5.01074e-08 0)
(4.58753e-07 1.5193e-08 0)
(4.49714e-07 -1.8734e-08 0)
(5.22443e-07 9.35877e-08 0)
(5.12633e-07 5.78224e-08 0)
(5.02647e-07 2.30248e-08 0)
(4.92545e-07 -1.07738e-08 0)
(5.7349e-07 1.03116e-07 0)
(5.62498e-07 6.74662e-08 0)
(5.51326e-07 3.28067e-08 0)
(5.4002e-07 -8.40166e-10 0)
(6.27921e-07 1.14615e-07 0)
(6.15638e-07 7.91107e-08 0)
(6.03175e-07 4.46132e-08 0)
(5.90562e-07 1.114e-08 0)
(6.82099e-07 1.27429e-07 0)
(6.6851e-07 9.20954e-08 0)
(6.54742e-07 5.77779e-08 0)
(6.40808e-07 2.44917e-08 0)
(7.35985e-07 1.4157e-07 0)
(7.21081e-07 1.06434e-07 0)
(7.06001e-07 7.23161e-08 0)
(6.90741e-07 3.92313e-08 0)
(7.89535e-07 1.57041e-07 0)
(7.73317e-07 1.22131e-07 0)
(7.56927e-07 8.82357e-08 0)
(7.40342e-07 5.53684e-08 0)
(8.42704e-07 1.73837e-07 0)
(8.25182e-07 1.39185e-07 0)
(8.07491e-07 1.05536e-07 0)
(7.8959e-07 7.2904e-08 0)
(8.95442e-07 1.91943e-07 0)
(8.76636e-07 1.57584e-07 0)
(8.57664e-07 1.24207e-07 0)
(8.38466e-07 9.18296e-08 0)
(9.47699e-07 2.11334e-07 0)
(9.27639e-07 1.77303e-07 0)
(9.07416e-07 1.44228e-07 0)
(8.86948e-07 1.12126e-07 0)
(9.99422e-07 2.31973e-07 0)
(9.7815e-07 1.9831e-07 0)
(9.56714e-07 1.65565e-07 0)
(9.35014e-07 1.33761e-07 0)
(1.05056e-06 2.53812e-07 0)
(1.02813e-06 2.20556e-07 0)
(1.00553e-06 1.88174e-07 0)
(9.8264e-07 1.56693e-07 0)
(1.10105e-06 2.76794e-07 0)
(1.07752e-06 2.43985e-07 0)
(1.05382e-06 2.11998e-07 0)
(1.0298e-06 1.80866e-07 0)
(1.15085e-06 3.00848e-07 0)
(1.1263e-06 2.68527e-07 0)
(1.10156e-06 2.36969e-07 0)
(1.07648e-06 2.06213e-07 0)
(1.19991e-06 3.25898e-07 0)
(1.17441e-06 2.94104e-07 0)
(1.14871e-06 2.63008e-07 0)
(1.12264e-06 2.32655e-07 0)
(1.24817e-06 3.51859e-07 0)
(1.22182e-06 3.20628e-07 0)
(1.19524e-06 2.90026e-07 0)
(1.16826e-06 2.60103e-07 0)
(1.2956e-06 3.78638e-07 0)
(1.26848e-06 3.48006e-07 0)
(1.24112e-06 3.17927e-07 0)
(1.21332e-06 2.8846e-07 0)
(1.34215e-06 4.0614e-07 0)
(1.31437e-06 3.76136e-07 0)
(1.28632e-06 3.46609e-07 0)
(1.25778e-06 3.17622e-07 0)
(1.38779e-06 4.34264e-07 0)
(1.35945e-06 4.04914e-07 0)
(1.3308e-06 3.75963e-07 0)
(1.30163e-06 3.47477e-07 0)
(1.43249e-06 4.62908e-07 0)
(1.4037e-06 4.34233e-07 0)
(1.37456e-06 4.05877e-07 0)
(1.34485e-06 3.77911e-07 0)
(1.47624e-06 4.91969e-07 0)
(1.44709e-06 4.63984e-07 0)
(1.41756e-06 4.36238e-07 0)
(1.38742e-06 4.08805e-07 0)
(1.51901e-06 5.21345e-07 0)
(1.48962e-06 4.94057e-07 0)
(1.45979e-06 4.66931e-07 0)
(1.42932e-06 4.40043e-07 0)
(1.5608e-06 5.50936e-07 0)
(1.53126e-06 5.24347e-07 0)
(1.50124e-06 4.97846e-07 0)
(1.47053e-06 4.71509e-07 0)
(1.60162e-06 5.80645e-07 0)
(1.57202e-06 5.54749e-07 0)
(1.54189e-06 5.28872e-07 0)
(1.51104e-06 5.03088e-07 0)
(1.64145e-06 6.10377e-07 0)
(1.61189e-06 5.85165e-07 0)
(1.58175e-06 5.59907e-07 0)
(1.55085e-06 5.34675e-07 0)
(1.68033e-06 6.40047e-07 0)
(1.65088e-06 6.15503e-07 0)
(1.62081e-06 5.90855e-07 0)
(1.58995e-06 5.6617e-07 0)
(1.71826e-06 6.69572e-07 0)
(1.689e-06 6.45678e-07 0)
(1.65907e-06 6.21628e-07 0)
(1.62833e-06 5.97483e-07 0)
(1.75526e-06 6.98882e-07 0)
(1.72625e-06 6.75614e-07 0)
(1.69653e-06 6.52147e-07 0)
(1.66597e-06 6.28535e-07 0)
(1.79136e-06 7.27911e-07 0)
(1.76265e-06 7.05248e-07 0)
(1.73319e-06 6.82348e-07 0)
(1.70289e-06 6.59259e-07 0)
(1.82657e-06 7.56606e-07 0)
(1.79821e-06 7.34524e-07 0)
(1.76906e-06 7.12175e-07 0)
(1.73905e-06 6.89603e-07 0)
(1.86091e-06 7.84922e-07 0)
(1.83293e-06 7.63399e-07 0)
(1.80413e-06 7.41588e-07 0)
(1.77446e-06 7.19525e-07 0)
(1.89441e-06 8.12827e-07 0)
(1.86683e-06 7.91843e-07 0)
(1.83841e-06 7.70558e-07 0)
(1.8091e-06 7.49e-07 0)
(1.92708e-06 8.40296e-07 0)
(1.89991e-06 8.19836e-07 0)
(1.87188e-06 7.99068e-07 0)
(1.84296e-06 7.78015e-07 0)
(1.95893e-06 8.67318e-07 0)
(1.93218e-06 8.47369e-07 0)
(1.90454e-06 8.27113e-07 0)
(1.87602e-06 8.06567e-07 0)
(1.98997e-06 8.93889e-07 0)
(1.96362e-06 8.74445e-07 0)
(1.93638e-06 8.547e-07 0)
(1.90826e-06 8.34666e-07 0)
(2.02019e-06 9.20016e-07 0)
(1.99424e-06 9.01075e-07 0)
(1.96738e-06 8.81845e-07 0)
(1.93965e-06 8.62332e-07 0)
(2.0496e-06 9.45714e-07 0)
(2.02402e-06 9.27278e-07 0)
(1.99753e-06 9.0857e-07 0)
(1.97018e-06 8.89592e-07 0)
(2.07819e-06 9.71006e-07 0)
(2.05296e-06 9.53082e-07 0)
(2.02681e-06 9.34907e-07 0)
(1.99981e-06 9.16478e-07 0)
(2.10594e-06 9.9592e-07 0)
(2.08102e-06 9.7852e-07 0)
(2.05519e-06 9.60891e-07 0)
(2.02852e-06 9.43029e-07 0)
(2.13283e-06 1.02049e-06 0)
(2.1082e-06 1.00363e-06 0)
(2.08265e-06 9.86562e-07 0)
(2.05627e-06 9.69286e-07 0)
(2.15884e-06 1.04475e-06 0)
(2.13446e-06 1.02844e-06 0)
(2.10917e-06 1.01196e-06 0)
(2.08305e-06 9.95292e-07 0)
(2.18395e-06 1.06874e-06 0)
(2.15978e-06 1.05301e-06 0)
(2.13472e-06 1.03713e-06 0)
(2.10882e-06 1.02109e-06 0)
(2.20814e-06 1.0925e-06 0)
(2.18414e-06 1.07737e-06 0)
(2.15926e-06 1.06211e-06 0)
(2.13356e-06 1.04672e-06 0)
(2.23136e-06 1.11607e-06 0)
(2.20751e-06 1.10156e-06 0)
(2.18278e-06 1.08695e-06 0)
(2.15724e-06 1.07223e-06 0)
(2.2536e-06 1.13949e-06 0)
(2.22986e-06 1.12562e-06 0)
(2.20525e-06 1.11168e-06 0)
(2.17983e-06 1.09765e-06 0)
(2.27482e-06 1.16279e-06 0)
(2.25116e-06 1.14959e-06 0)
(2.22664e-06 1.13634e-06 0)
(2.20132e-06 1.12302e-06 0)
(2.295e-06 1.18601e-06 0)
(2.27139e-06 1.1735e-06 0)
(2.24693e-06 1.16095e-06 0)
(2.22168e-06 1.14837e-06 0)
(2.3141e-06 1.20917e-06 0)
(2.29052e-06 1.19738e-06 0)
(2.2661e-06 1.18556e-06 0)
(2.24089e-06 1.17372e-06 0)
(2.33209e-06 1.2323e-06 0)
(2.30853e-06 1.22124e-06 0)
(2.28413e-06 1.21017e-06 0)
(2.25893e-06 1.19909e-06 0)
(2.34895e-06 1.25543e-06 0)
(2.32539e-06 1.24512e-06 0)
(2.30099e-06 1.23482e-06 0)
(2.27579e-06 1.22452e-06 0)
(2.36466e-06 1.27856e-06 0)
(2.34108e-06 1.26903e-06 0)
(2.31668e-06 1.25951e-06 0)
(2.29146e-06 1.25e-06 0)
(2.37919e-06 1.30171e-06 0)
(2.35559e-06 1.29297e-06 0)
(2.33116e-06 1.28425e-06 0)
(2.30592e-06 1.27554e-06 0)
(2.39251e-06 1.3249e-06 0)
(2.36888e-06 1.31697e-06 0)
(2.34443e-06 1.30905e-06 0)
(2.31916e-06 1.30116e-06 0)
(2.40461e-06 1.34812e-06 0)
(2.38096e-06 1.34101e-06 0)
(2.35648e-06 1.33392e-06 0)
(2.33118e-06 1.32685e-06 0)
(2.41548e-06 1.37137e-06 0)
(2.3918e-06 1.3651e-06 0)
(2.36729e-06 1.35885e-06 0)
(2.34196e-06 1.35261e-06 0)
(2.42509e-06 1.39466e-06 0)
(2.40138e-06 1.38924e-06 0)
(2.37685e-06 1.38383e-06 0)
(2.35149e-06 1.37843e-06 0)
(2.43343e-06 1.41798e-06 0)
(2.40971e-06 1.41341e-06 0)
(2.38516e-06 1.40885e-06 0)
(2.35977e-06 1.40431e-06 0)
(2.4405e-06 1.44132e-06 0)
(2.41677e-06 1.43761e-06 0)
(2.39221e-06 1.43391e-06 0)
(2.3668e-06 1.43022e-06 0)
(2.44629e-06 1.46466e-06 0)
(2.42255e-06 1.46182e-06 0)
(2.39798e-06 1.45899e-06 0)
(2.37257e-06 1.45617e-06 0)
(2.45078e-06 1.488e-06 0)
(2.42703e-06 1.48603e-06 0)
(2.40246e-06 1.48408e-06 0)
(2.37706e-06 1.48212e-06 0)
(2.45403e-06 1.51133e-06 0)
(2.43027e-06 1.51024e-06 0)
(2.4057e-06 1.50915e-06 0)
(2.38033e-06 1.50806e-06 0)
(2.45588e-06 1.53483e-06 0)
(2.43211e-06 1.53448e-06 0)
(2.40755e-06 1.53415e-06 0)
(2.3822e-06 1.5338e-06 0)
)
;

boundaryField
{
    plateFix
    {
        type            fixedDisplacement;
        value           uniform (0 0 0);
    }
    plate
    {
        type            solidTraction;
        nonLinear       updatedLagrangian;
        traction        nonuniform List<vector> 
168
(
(-2.65399e-05 5.24043e-05 5.79097e-20)
(-2.43471e-05 -5.47345e-05 3.11793e-20)
(-0.000155026 -7.25355e-05 -3.43277e-20)
(-0.000147304 6.67514e-05 -3.69559e-20)
(-0.000581232 -0.000238369 0)
(-0.000563269 0.000230682 4.30774e-24)
(-0.00124075 -0.000369589 -3.1109e-20)
(-0.00121 0.000361172 0)
(-0.00208041 -0.000449367 2.92723e-20)
(-0.00203562 0.000440911 -3.15354e-20)
(-0.00305101 -0.000480885 0)
(-0.00299158 0.0004727 3.13256e-20)
(-0.00410244 -0.000476157 -3.17697e-21)
(-0.00402824 0.000468262 -2.74239e-20)
(-0.00519099 -0.00044861 2.05914e-20)
(-0.00510211 0.000440844 5.06481e-20)
(-0.00628223 -0.00040941 -1.89218e-20)
(-0.00617878 0.000401518 -4.64816e-20)
(-0.007351 -0.000366525 0)
(-0.00723299 0.000358228 2.12188e-20)
(-0.00838065 -0.000324921 -8.70649e-24)
(-0.00824791 0.000315958 -9.37619e-24)
(-0.00936171 -0.000287172 1.60287e-20)
(-0.00921387 0.000277317 -1.68897e-23)
(-0.0102902 -0.000254126 -1.43964e-20)
(-0.0101268 0.000243202 0)
(-0.0111662 -0.000225503 1.24866e-23)
(-0.0109866 0.000213375 3.44233e-21)
(-0.0119924 -0.000200344 1.12859e-20)
(-0.0117959 0.000186925 -1.21805e-20)
(-0.0127728 -0.000177372 -1.00061e-20)
(-0.0125592 0.00016262 2.73896e-21)
(-0.0135129 -0.000155284 -4.35433e-21)
(-0.0132823 0.000139219 1.88594e-20)
(-0.0142186 -0.000133039 1.51354e-20)
(-0.0139717 0.000115775 -8.2543e-21)
(-0.0149007 -0.000110499 -1.32285e-20)
(-0.0146395 9.2313e-05 1.06501e-20)
(-0.015565 -8.84422e-05 -1.13167e-20)
(-0.0152933 6.98626e-05 -1.23814e-20)
(-0.0162544 -7.1717e-05 7.36561e-21)
(-0.0159791 5.38591e-05 -1.05609e-20)
(-0.0169493 -6.62693e-05 4.15602e-21)
(-0.0166816 5.03436e-05 1.36595e-20)
(-0.0179211 -7.84962e-05 0)
(-0.0176697 6.86633e-05 0)
(-0.0191473 -8.81994e-05 5.42395e-23)
(-0.0189222 8.39189e-05 -2.95954e-23)
(-0.020535 -0.000140396 0)
(-0.0203587 0.000140637 7.56658e-21)
(-0.0221861 -0.000204321 4.68335e-23)
(-0.0220782 0.000210291 -1.5089e-20)
(-0.0240999 -0.000287178 0)
(-0.0240854 0.000299764 1.50532e-20)
(-0.0263167 -0.000379657 6.78828e-21)
(-0.0264211 0.000400269 -7.54259e-21)
(-0.0288272 -0.000481478 -6.79814e-21)
(-0.0290789 0.000511512 -5.8135e-23)
(-0.0316244 -0.000586777 -6.69327e-21)
(-0.0320529 0.00062778 0)
(-0.0346719 -0.000691258 6.72555e-21)
(-0.0353073 0.00074475 -5.75025e-23)
(-0.0379194 -0.000788563 0)
(-0.0387913 0.000855979 5.69571e-23)
(-0.0412944 -0.000872337 0)
(-0.0424309 0.000954886 3.58589e-21)
(-0.044708 -0.000935619 1.2277e-23)
(-0.0461341 0.00103416 -3.57593e-21)
(-0.0480549 -0.00097175 -5.94867e-24)
(-0.0497917 0.00108666 -3.40188e-21)
(-0.0512183 -0.000974652 -2.84214e-21)
(-0.0532815 0.0011057 3.35307e-21)
(-0.0540741 -0.000939489 2.82589e-21)
(-0.0564732 0.00108577 -3.05759e-21)
(-0.0564962 -0.000863114 5.04916e-24)
(-0.0592337 0.00102299 3.06118e-21)
(-0.0583626 -0.000744506 2.2184e-21)
(-0.0614333 0.000915597 2.68478e-21)
(-0.0595611 -0.000585016 -2.2287e-21)
(-0.062952 0.000764257 -3.261e-22)
(-0.0599948 -0.00038844 0)
(-0.0636852 0.000572167 -2.31706e-21)
(-0.0595872 -0.00016089 0)
(-0.0635489 0.00034496 1.64188e-21)
(-0.0582864 8.95303e-05 2.66501e-23)
(-0.0624845 9.04189e-05 -1.69081e-21)
(-0.0560674 0.000353214 0)
(-0.0604611 -0.000181995 -1.81958e-23)
(-0.0529343 0.000619658 5.54e-24)
(-0.0574783 -0.000461741 0)
(-0.0489199 0.000878138 -1.56695e-24)
(-0.0535653 -0.00073788 8.65469e-24)
(-0.0440846 0.0011184 0)
(-0.0487806 -0.000999777 -4.39006e-22)
(-0.0385137 0.0013313 0)
(-0.0432091 -0.00123776 -4.32287e-22)
(-0.0323134 0.00150934 -1.45703e-21)
(-0.0369579 -0.00144371 8.70925e-22)
(-0.0256062 0.00164705 1.45836e-21)
(-0.0301517 -0.00161145 0)
(-0.0185254 0.00174123 0)
(-0.0229273 -0.00173706 1.16353e-22)
(-0.0112095 0.00179099 2.49881e-21)
(-0.0154275 -0.00181892 0)
(-0.00379653 0.0017976 2.85984e-22)
(-0.0077955 -0.00185763 2.74321e-21)
(0.00358089 0.00176425 -5.83046e-21)
(-0.000169188 -0.00185577 -2.9257e-21)
(0.0108003 0.00169563 3.04362e-21)
(0.00732326 -0.00181751 3.07466e-21)
(0.0177529 0.00159751 0)
(0.0145674 -0.00174817 -1.744e-21)
(0.024346 0.00147625 0)
(0.0214653 -0.00165381 3.02125e-22)
(0.030505 0.00133838 -2.27076e-22)
(0.0279372 -0.00154069 6.31385e-23)
(0.0361736 0.00119021 -1.1603e-22)
(0.0339224 -0.00141499 -1.918e-22)
(0.0413137 0.00103748 1.79132e-21)
(0.0393788 -0.00128239 -1.93629e-21)
(0.0459049 0.000885206 1.26928e-22)
(0.0442825 -0.0011479 -1.85779e-21)
(0.0499422 0.000737521 -4.95908e-24)
(0.0486254 -0.0010157 3.96761e-21)
(0.0534346 0.000597651 -2.54839e-22)
(0.0524142 -0.00088912 -2.2329e-21)
(0.0564032 0.000467954 -2.60413e-23)
(0.0556677 -0.000770626 1.95342e-21)
(0.0588785 0.000350011 -3.84157e-21)
(0.0584146 -0.000661935 -4.12104e-21)
(0.0608986 0.000244758 1.847e-21)
(0.0606916 -0.00056413 -7.87966e-23)
(0.0625072 0.000152615 -1.11548e-22)
(0.0625413 -0.000477784 3.72763e-21)
(0.0637519 7.36393e-05 2.16879e-22)
(0.0640103 -0.000403129 -2.18274e-21)
(0.0646826 7.62734e-06 1.05164e-22)
(0.0651481 -0.000340145 0)
(0.0653504 -4.57238e-05 6.95782e-22)
(0.0660057 -0.000288746 -1.06602e-22)
(0.0658067 -8.6791e-05 -1.46722e-21)
(0.0666345 -0.00024879 7.03008e-22)
(0.0661028 -0.000115764 3.20774e-23)
(0.067087 -0.000220363 -8.06714e-22)
(0.06629 -0.000132732 1.43991e-21)
(0.0674154 -0.000203679 0)
(0.0664205 -0.00013696 -7.04258e-22)
(0.0676738 -0.000199841 0)
(0.0665494 -0.000127077 -6.37951e-22)
(0.0679199 -0.00021064 0)
(0.0667359 -9.79059e-05 6.38568e-22)
(0.0682161 -0.000241862 3.16911e-22)
(0.0670644 -4.06984e-05 0)
(0.0686512 -0.000303054 -3.17278e-22)
(0.0676148 7.97752e-05 -2.6772e-22)
(0.0693107 -0.00043118 2.79432e-22)
(0.0686569 0.00031275 2.67987e-22)
(0.0704765 -0.000677635 -3.46968e-22)
(0.0702344 0.000963838 0)
(0.0721957 -0.00135857 5.94319e-23)
(0.0741181 0.00230475 0)
(0.076316 -0.00274432 -2.55786e-22)
(0.07872 0.00811022 1.10895e-23)
(0.0142678 0.00527343 5.424e-23)
(-0.00210005 -0.00527267 -2.86536e-23)
(-0.00196427 0.00552628 -1.21038e-22)
(0.0147971 -0.00573132 0)
(0.0811896 -0.00875628 3.68187e-24)
)
;
        pressure        nonuniform List<scalar> 
168
(
-0.364132
-0.392029
-0.364684
-0.392571
-0.365291
-0.393173
-0.365879
-0.39376
-0.36638
-0.394265
-0.366724
-0.394617
-0.366865
-0.394772
-0.366778
-0.394705
-0.366451
-0.394402
-0.36588
-0.393864
-0.36507
-0.393093
-0.364025
-0.392095
-0.362748
-0.390876
-0.361244
-0.389442
-0.359515
-0.387798
-0.357563
-0.385949
-0.355397
-0.383907
-0.353024
-0.381684
-0.350473
-0.379314
-0.347756
-0.376815
-0.344987
-0.374308
-0.342047
-0.371677
-0.339384
-0.36938
-0.336534
-0.366992
-0.334173
-0.365125
-0.331977
-0.363473
-0.330018
-0.362089
-0.328042
-0.360717
-0.325898
-0.359192
-0.323294
-0.35721
-0.319942
-0.354463
-0.315488
-0.350577
-0.309569
-0.345161
-0.301803
-0.337808
-0.291822
-0.32812
-0.279285
-0.315726
-0.263905
-0.300308
-0.245462
-0.281621
-0.223828
-0.259513
-0.198978
-0.233939
-0.171001
-0.204978
-0.140104
-0.17283
-0.106611
-0.137822
-0.0709518
-0.100396
-0.0336502
-0.0610946
0.00469913
-0.0205391
0.0434544
0.0205947
0.0819544
0.0616067
0.119547
0.101802
0.155618
0.140522
0.189612
0.177168
0.221055
0.211223
0.249566
0.24227
0.274867
0.269996
0.296783
0.294198
0.315237
0.314779
0.330242
0.331736
0.341889
0.345153
0.350334
0.355178
0.355782
0.362019
0.35847
0.365916
0.35866
0.367136
0.35662
0.365955
0.352619
0.362653
0.34692
0.357498
0.33977
0.350748
0.3314
0.34264
0.322023
0.333393
0.311829
0.323204
0.300987
0.312247
0.289645
0.300673
0.277926
0.288611
0.26593
0.276163
0.253733
0.263411
0.241384
0.250405
0.228897
0.237163
0.21627
0.223681
0.203356
0.20981
0.190208
0.195596
0.175706
0.179875
0.161428
0.164268
0.136969
0.0945717
0.132022
0.131797
0.0921243
0.137878
)
;
        value           nonuniform List<vector> 
168
(
(4.39162e-08 2.41733e-08 2.28597e-26)
(4.33181e-08 -2.34324e-08 1.53491e-26)
(4.28091e-08 3.87055e-08 -1.52372e-26)
(4.19573e-08 -3.77782e-08 -2.37963e-26)
(4.47895e-08 4.989e-08 -4.41795e-28)
(4.34921e-08 -4.87982e-08 1.28948e-26)
(5.0243e-08 5.76525e-08 -1.71315e-26)
(4.83477e-08 -5.64008e-08 -8.08295e-27)
(5.89511e-08 6.31363e-08 1.65716e-26)
(5.63203e-08 -6.16675e-08 -7.54602e-27)
(7.0278e-08 6.6879e-08 -4.27456e-28)
(6.67928e-08 -6.50961e-08 1.01351e-26)
(8.38789e-08 6.94458e-08 -4.9185e-27)
(7.94257e-08 -6.72057e-08 -1.53334e-26)
(9.9484e-08 7.12084e-08 9.25255e-27)
(9.39505e-08 -6.83231e-08 2.23984e-26)
(1.16955e-07 7.24745e-08 1.64135e-27)
(1.10224e-07 -6.87064e-08 -1.44015e-26)
(1.36216e-07 7.34723e-08 -6.71323e-27)
(1.28163e-07 -6.85277e-08 4.67339e-27)
(1.57249e-07 7.43846e-08 -1.52491e-27)
(1.47737e-07 -6.79045e-08 -1.82151e-27)
(1.80072e-07 7.53558e-08 2.94501e-27)
(1.6895e-07 -6.69042e-08 8.90093e-27)
(2.04733e-07 7.65049e-08 2.12925e-27)
(1.91836e-07 -6.55545e-08 -7.01691e-27)
(2.31305e-07 7.79331e-08 -2.36693e-27)
(2.16449e-07 -6.38478e-08 6.07774e-27)
(2.5988e-07 7.97322e-08 5.05668e-27)
(2.42863e-07 -6.17463e-08 -8.90191e-27)
(2.9057e-07 8.1992e-08 -6.4261e-27)
(2.7117e-07 -5.91854e-08 1.87603e-27)
(3.23505e-07 8.48068e-08 1.79946e-27)
(3.01475e-07 -5.6076e-08 1.10849e-27)
(3.58827e-07 8.82821e-08 1.58919e-28)
(3.33899e-07 -5.23061e-08 4.1255e-29)
(3.96691e-07 9.25405e-08 5.5697e-27)
(3.68571e-07 -4.77404e-08 6.67118e-27)
(4.37263e-07 9.77266e-08 -2.10617e-27)
(4.05632e-07 -4.22192e-08 -2.36277e-27)
(4.80716e-07 1.04012e-07 1.24157e-27)
(4.45229e-07 -3.55551e-08 -2.3437e-28)
(5.2723e-07 1.11598e-07 -4.2113e-27)
(4.87518e-07 -2.75292e-08 4.91599e-28)
(5.78888e-07 1.21072e-07 1.78885e-27)
(5.34378e-07 -1.7518e-08 -1.90989e-27)
(6.33983e-07 1.32501e-07 -7.18705e-28)
(5.8425e-07 -5.44981e-09 -6.50252e-28)
(6.88836e-07 1.45231e-07 1.02326e-27)
(6.33821e-07 7.9962e-09 5.17153e-27)
(7.43403e-07 1.59275e-07 -1.04608e-27)
(6.83073e-07 2.28365e-08 -6.01398e-27)
(7.97636e-07 1.74633e-07 1.08865e-27)
(7.31992e-07 3.90817e-08 2.95149e-27)
(8.51485e-07 1.91299e-07 3.57711e-27)
(7.80563e-07 5.67332e-08 -2.32307e-27)
(9.04895e-07 2.09256e-07 -8.41374e-27)
(8.2877e-07 7.57835e-08 1.35513e-28)
(9.57808e-07 2.28479e-07 3.41121e-27)
(8.76595e-07 9.62139e-08 -2.61235e-27)
(1.01017e-06 2.48929e-07 -1.02762e-28)
(9.24022e-07 1.17994e-07 1.98085e-27)
(1.06191e-06 2.70559e-07 9.02411e-28)
(9.71034e-07 1.41083e-07 -5.15957e-28)
(1.11298e-06 2.93309e-07 -1.27937e-28)
(1.01761e-06 1.65424e-07 1.9701e-27)
(1.16331e-06 3.17111e-07 -3.38751e-28)
(1.06373e-06 1.90952e-07 -8.92186e-28)
(1.21285e-06 3.41888e-07 6.68467e-28)
(1.10937e-06 2.17587e-07 -1.58631e-27)
(1.26155e-06 3.67556e-07 -1.80937e-27)
(1.15452e-06 2.45243e-07 2.23001e-27)
(1.30937e-06 3.94024e-07 7.27925e-29)
(1.19914e-06 2.73819e-07 -1.5098e-27)
(1.35624e-06 4.21199e-07 -1.73548e-27)
(1.24322e-06 3.03212e-07 1.8008e-27)
(1.40215e-06 4.48984e-07 7.26295e-28)
(1.28673e-06 3.33308e-07 3.59201e-28)
(1.44707e-06 4.77278e-07 -5.13259e-29)
(1.32967e-06 3.63992e-07 -2.49894e-27)
(1.49097e-06 5.05983e-07 -2.02401e-27)
(1.372e-06 3.95144e-07 4.29286e-28)
(1.53384e-06 5.34999e-07 8.50043e-28)
(1.41371e-06 4.26645e-07 1.28784e-27)
(1.57567e-06 5.64229e-07 -3.65134e-28)
(1.45479e-06 4.58375e-07 -1.87559e-27)
(1.61648e-06 5.9358e-07 -2.29392e-27)
(1.49523e-06 4.90222e-07 7.12936e-28)
(1.65626e-06 6.22961e-07 2.49676e-27)
(1.53501e-06 5.22076e-07 3.3748e-27)
(1.69504e-06 6.52288e-07 -2.13034e-27)
(1.57412e-06 5.53835e-07 -2.07208e-27)
(1.73283e-06 6.81482e-07 2.08349e-27)
(1.61256e-06 5.8541e-07 -2.24043e-27)
(1.76966e-06 7.10472e-07 2.62859e-27)
(1.6503e-06 6.16721e-07 -3.58193e-28)
(1.80556e-06 7.39195e-07 -8.3581e-28)
(1.68735e-06 6.477e-07 2.55111e-27)
(1.84056e-06 7.67597e-07 -4.94621e-27)
(1.72367e-06 6.78295e-07 -9.09345e-27)
(1.87467e-06 7.95632e-07 -3.16511e-27)
(1.75926e-06 7.08468e-07 6.89821e-27)
(1.90794e-06 8.23266e-07 4.9487e-27)
(1.79411e-06 7.38191e-07 -4.55773e-27)
(1.94037e-06 8.50474e-07 3.54393e-27)
(1.82818e-06 7.67455e-07 4.00908e-27)
(1.97198e-06 8.77242e-07 -6.24777e-27)
(1.86145e-06 7.96258e-07 -1.69827e-27)
(2.00279e-06 9.03563e-07 8.37707e-27)
(1.89391e-06 8.24613e-07 6.23199e-27)
(2.03281e-06 9.29443e-07 -1.0143e-26)
(1.92551e-06 8.5254e-07 1.97361e-27)
(2.06202e-06 9.54892e-07 -2.92462e-27)
(1.95625e-06 8.80067e-07 9.24932e-28)
(2.09042e-06 9.79932e-07 2.83701e-27)
(1.98607e-06 9.0723e-07 -3.78671e-27)
(2.11801e-06 1.00459e-06 3.00347e-27)
(2.01495e-06 9.34066e-07 -2.98731e-27)
(2.14476e-06 1.02889e-06 7.13044e-27)
(2.04287e-06 9.60619e-07 -1.01987e-27)
(2.17066e-06 1.05288e-06 -6.74351e-27)
(2.06979e-06 9.86932e-07 -7.95226e-27)
(2.19567e-06 1.07659e-06 -1.09761e-27)
(2.09569e-06 1.01305e-06 -6.78249e-28)
(2.21978e-06 1.10005e-06 1.5813e-27)
(2.12053e-06 1.03901e-06 5.63405e-27)
(2.24295e-06 1.12332e-06 -8.23132e-28)
(2.14429e-06 1.06486e-06 -2.20225e-27)
(2.26514e-06 1.14642e-06 -7.76565e-27)
(2.16695e-06 1.09062e-06 5.1984e-27)
(2.28634e-06 1.16939e-06 7.69977e-27)
(2.18849e-06 1.11635e-06 -3.24264e-27)
(2.3065e-06 1.19226e-06 3.54079e-27)
(2.20888e-06 1.14206e-06 -1.58335e-28)
(2.3256e-06 1.21507e-06 2.35982e-29)
(2.2281e-06 1.16779e-06 -4.70076e-27)
(2.34361e-06 1.23784e-06 3.85906e-27)
(2.24616e-06 1.19355e-06 -1.53576e-27)
(2.36049e-06 1.26058e-06 -6.9696e-27)
(2.26301e-06 1.21937e-06 3.26023e-28)
(2.37621e-06 1.28333e-06 -2.92852e-28)
(2.27867e-06 1.24524e-06 4.2436e-27)
(2.39076e-06 1.30609e-06 5.28369e-28)
(2.29311e-06 1.27119e-06 -8.74199e-27)
(2.40411e-06 1.32887e-06 -3.73258e-27)
(2.30633e-06 1.29722e-06 1.37038e-26)
(2.41624e-06 1.35168e-06 2.91499e-28)
(2.31832e-06 1.32332e-06 -4.42661e-27)
(2.42712e-06 1.37451e-06 3.99731e-27)
(2.32908e-06 1.3495e-06 4.56029e-27)
(2.43675e-06 1.39738e-06 4.45203e-27)
(2.33859e-06 1.37574e-06 -4.53651e-27)
(2.4451e-06 1.42027e-06 2.44744e-28)
(2.34686e-06 1.40204e-06 -1.86509e-29)
(2.45217e-06 1.44317e-06 -9.43824e-27)
(2.35387e-06 1.42838e-06 5.15469e-27)
(2.45796e-06 1.46607e-06 -1.98417e-28)
(2.35964e-06 1.45475e-06 -4.72773e-27)
(2.46244e-06 1.48898e-06 -4.63443e-27)
(2.36413e-06 1.48113e-06 1.6672e-29)
(2.46572e-06 1.51187e-06 2.98232e-29)
(2.36745e-06 1.50752e-06 -4.82761e-29)
(2.46766e-06 1.53498e-06 4.82513e-27)
(2.45638e-06 1.54667e-06 -8.081e-27)
(2.43262e-06 1.54658e-06 -1.5771e-26)
(2.40806e-06 1.54665e-06 1.56545e-26)
(2.38271e-06 1.54653e-06 -7.66484e-27)
(2.36944e-06 1.53364e-06 -5.04458e-27)
)
;
    }
    frontAndBackPlanes
    {
        type            empty;
    }
}


// ************************************************************************* //
