/*--------------------------------*- C++ -*----------------------------------*\
| =========                 |                                                 |
| \\      /  F ield         | OpenFOAM Extend Project: Open source CFD        |
|  \\    /   O peration     | Version:  1.6-ext                               |
|   \\  /    A nd           | Web:      www.extend-project.de                 |
|    \\/     M anipulation  |                                                 |
\*---------------------------------------------------------------------------*/
FoamFile
{
    version     2.0;
    format      ascii;
    class       volVectorField;
    location    "0.45";
    object      DU_0;
}
// * * * * * * * * * * * * * * * * * * * * * * * * * * * * * * * * * * * * * //

dimensions      [0 1 0 0 0 0 0];

internalField   nonuniform List<vector> 
328
(
(4.06067e-09 7.77816e-09 0)
(2.66598e-09 1.52425e-09 0)
(2.61669e-09 -1.6924e-09 0)
(3.84966e-09 -7.62168e-09 0)
(1.23795e-08 1.9946e-08 0)
(8.81427e-09 4.50443e-09 0)
(8.64321e-09 -4.89074e-09 0)
(1.17194e-08 -1.95654e-08 0)
(2.2025e-08 2.90093e-08 0)
(1.70392e-08 7.37688e-09 0)
(1.66937e-08 -7.86108e-09 0)
(2.08291e-08 -2.84388e-08 0)
(3.25486e-08 3.54879e-08 0)
(2.6669e-08 9.91207e-09 0)
(2.61214e-08 -1.03667e-08 0)
(3.07552e-08 -3.47106e-08 0)
(4.40875e-08 4.00472e-08 0)
(3.78373e-08 1.20305e-08 0)
(3.70576e-08 -1.23179e-08 0)
(4.16278e-08 -3.89942e-08 0)
(5.65938e-08 4.32029e-08 0)
(5.0328e-08 1.37175e-08 0)
(4.92927e-08 -1.36795e-08 0)
(5.34016e-08 -4.17581e-08 0)
(7.01379e-08 4.53823e-08 0)
(6.41165e-08 1.50313e-08 0)
(6.28015e-08 -1.4482e-08 0)
(6.61423e-08 -4.33832e-08 0)
(8.4771e-08 4.69109e-08 0)
(7.91256e-08 1.60614e-08 0)
(7.7507e-08 -1.47788e-08 0)
(7.98969e-08 -4.41474e-08 0)
(1.00571e-07 4.80489e-08 0)
(9.53402e-08 1.69191e-08 0)
(9.33925e-08 -1.46362e-08 0)
(9.4737e-08 -4.42591e-08 0)
(1.17615e-07 4.89999e-08 0)
(1.12756e-07 1.77182e-08 0)
(1.10452e-07 -1.41138e-08 0)
(1.10733e-07 -4.38637e-08 0)
(1.3599e-07 4.99277e-08 0)
(1.31404e-07 1.85691e-08 0)
(1.28712e-07 -1.32566e-08 0)
(1.27962e-07 -4.30578e-08 0)
(1.5578e-07 5.09646e-08 0)
(1.51335e-07 1.95726e-08 0)
(1.48221e-07 -1.20876e-08 0)
(1.465e-07 -4.18951e-08 0)
(1.77077e-07 5.22206e-08 0)
(1.72624e-07 2.08201e-08 0)
(1.69052e-07 -1.06062e-08 0)
(1.66428e-07 -4.03933e-08 0)
(1.99974e-07 5.37902e-08 0)
(1.95365e-07 2.23958e-08 0)
(1.91292e-07 -8.78735e-09 0)
(1.87829e-07 -3.85378e-08 0)
(2.24574e-07 5.57603e-08 0)
(2.19666e-07 2.43805e-08 0)
(2.15046e-07 -6.58277e-09 0)
(2.10791e-07 -3.62864e-08 0)
(2.50982e-07 5.82162e-08 0)
(2.45647e-07 2.68571e-08 0)
(2.40431e-07 -3.92271e-09 0)
(2.35407e-07 -3.35723e-08 0)
(2.79314e-07 6.12487e-08 0)
(2.73439e-07 2.99154e-08 0)
(2.67569e-07 -7.17107e-10 0)
(2.61779e-07 -3.03065e-08 0)
(3.09694e-07 6.49598e-08 0)
(3.03175e-07 3.36581e-08 0)
(2.96591e-07 3.14383e-09 0)
(2.90014e-07 -2.6379e-08 0)
(3.42254e-07 6.94682e-08 0)
(3.34996e-07 3.82053e-08 0)
(3.27632e-07 7.79034e-09 0)
(3.20228e-07 -2.16585e-08 0)
(3.77134e-07 7.49141e-08 0)
(3.69047e-07 4.36994e-08 0)
(3.60829e-07 1.33749e-08 0)
(3.52543e-07 -1.59911e-08 0)
(4.14481e-07 8.1464e-08 0)
(4.05476e-07 5.03095e-08 0)
(3.96326e-07 2.00757e-08 0)
(3.87088e-07 -9.1968e-09 0)
(4.54449e-07 8.93149e-08 0)
(4.44433e-07 5.82358e-08 0)
(4.34268e-07 2.81003e-08 0)
(4.23997e-07 -1.06572e-09 0)
(4.98824e-07 9.90569e-08 0)
(4.87662e-07 6.80762e-08 0)
(4.76347e-07 3.80571e-08 0)
(4.64913e-07 9.01767e-09 0)
(5.4614e-07 1.10738e-07 0)
(5.33731e-07 7.98809e-08 0)
(5.21169e-07 4.99989e-08 0)
(5.08476e-07 2.11052e-08 0)
(5.93239e-07 1.23685e-07 0)
(5.7957e-07 9.29746e-08 0)
(5.65749e-07 6.32455e-08 0)
(5.51786e-07 3.45097e-08 0)
(6.40083e-07 1.3791e-07 0)
(6.25148e-07 1.0737e-07 0)
(6.10065e-07 7.78114e-08 0)
(5.94828e-07 4.92464e-08 0)
(6.86635e-07 1.53415e-07 0)
(6.70435e-07 1.23071e-07 0)
(6.54093e-07 9.37035e-08 0)
(6.37585e-07 6.53239e-08 0)
(7.3285e-07 1.70192e-07 0)
(7.15398e-07 1.40074e-07 0)
(6.97808e-07 1.1092e-07 0)
(6.8004e-07 8.27418e-08 0)
(7.78686e-07 1.88226e-07 0)
(7.60002e-07 1.58365e-07 0)
(7.41184e-07 1.29449e-07 0)
(7.22174e-07 1.0149e-07 0)
(8.24095e-07 2.07489e-07 0)
(8.04209e-07 1.7792e-07 0)
(7.84193e-07 1.49267e-07 0)
(7.63968e-07 1.21548e-07 0)
(8.69029e-07 2.27945e-07 0)
(8.47981e-07 1.98703e-07 0)
(8.26805e-07 1.70342e-07 0)
(8.05402e-07 1.42884e-07 0)
(9.13439e-07 2.49547e-07 0)
(8.9128e-07 2.20668e-07 0)
(8.6899e-07 1.9263e-07 0)
(8.46454e-07 1.65456e-07 0)
(9.57277e-07 2.72238e-07 0)
(9.34066e-07 2.43761e-07 0)
(9.10718e-07 2.16075e-07 0)
(8.871e-07 1.89211e-07 0)
(1.00049e-06 2.95956e-07 0)
(9.76299e-07 2.67917e-07 0)
(9.51955e-07 2.40615e-07 0)
(9.27318e-07 2.14086e-07 0)
(1.04305e-06 3.20628e-07 0)
(1.01794e-06 2.93065e-07 0)
(9.92672e-07 2.66178e-07 0)
(9.67081e-07 2.4001e-07 0)
(1.08489e-06 3.46177e-07 0)
(1.05895e-06 3.19124e-07 0)
(1.03284e-06 2.92682e-07 0)
(1.00637e-06 2.66901e-07 0)
(1.12598e-06 3.72521e-07 0)
(1.0993e-06 3.4601e-07 0)
(1.07242e-06 3.20041e-07 0)
(1.04515e-06 2.94671e-07 0)
(1.16628e-06 3.99573e-07 0)
(1.13896e-06 3.73631e-07 0)
(1.1114e-06 3.48161e-07 0)
(1.08341e-06 3.23224e-07 0)
(1.20577e-06 4.27242e-07 0)
(1.1779e-06 4.01894e-07 0)
(1.14975e-06 3.76944e-07 0)
(1.12113e-06 3.52458e-07 0)
(1.24442e-06 4.55435e-07 0)
(1.21609e-06 4.30699e-07 0)
(1.18744e-06 4.06287e-07 0)
(1.15829e-06 3.82269e-07 0)
(1.28221e-06 4.84058e-07 0)
(1.25352e-06 4.59946e-07 0)
(1.22447e-06 4.36085e-07 0)
(1.19488e-06 4.12547e-07 0)
(1.31913e-06 5.13016e-07 0)
(1.29017e-06 4.89535e-07 0)
(1.26082e-06 4.66232e-07 0)
(1.23088e-06 4.4318e-07 0)
(1.35517e-06 5.42214e-07 0)
(1.32604e-06 5.19364e-07 0)
(1.29647e-06 4.96621e-07 0)
(1.26628e-06 4.7406e-07 0)
(1.39033e-06 5.71561e-07 0)
(1.36112e-06 5.49335e-07 0)
(1.33143e-06 5.2715e-07 0)
(1.30108e-06 5.05078e-07 0)
(1.42463e-06 6.00967e-07 0)
(1.39543e-06 5.79354e-07 0)
(1.36569e-06 5.57719e-07 0)
(1.33526e-06 5.36131e-07 0)
(1.45807e-06 6.30349e-07 0)
(1.42895e-06 6.09331e-07 0)
(1.39926e-06 5.88235e-07 0)
(1.36884e-06 5.67124e-07 0)
(1.49068e-06 6.59626e-07 0)
(1.46171e-06 6.39183e-07 0)
(1.43213e-06 6.18611e-07 0)
(1.4018e-06 5.97968e-07 0)
(1.52246e-06 6.88727e-07 0)
(1.49372e-06 6.68836e-07 0)
(1.46432e-06 6.48771e-07 0)
(1.43414e-06 6.28584e-07 0)
(1.55346e-06 7.17586e-07 0)
(1.52498e-06 6.98224e-07 0)
(1.49582e-06 6.78649e-07 0)
(1.46586e-06 6.58907e-07 0)
(1.58367e-06 7.46149e-07 0)
(1.55552e-06 7.2729e-07 0)
(1.52664e-06 7.08187e-07 0)
(1.49695e-06 6.8888e-07 0)
(1.61314e-06 7.74367e-07 0)
(1.58533e-06 7.55989e-07 0)
(1.55678e-06 7.37343e-07 0)
(1.52741e-06 7.18461e-07 0)
(1.64187e-06 8.02202e-07 0)
(1.61445e-06 7.84284e-07 0)
(1.58625e-06 7.66082e-07 0)
(1.55723e-06 7.47619e-07 0)
(1.66989e-06 8.29624e-07 0)
(1.64286e-06 8.12151e-07 0)
(1.61504e-06 7.94382e-07 0)
(1.5864e-06 7.76335e-07 0)
(1.6972e-06 8.56615e-07 0)
(1.67058e-06 8.39574e-07 0)
(1.64315e-06 8.22232e-07 0)
(1.6149e-06 8.04601e-07 0)
(1.72382e-06 8.83164e-07 0)
(1.6976e-06 8.66546e-07 0)
(1.67056e-06 8.49629e-07 0)
(1.64272e-06 8.32419e-07 0)
(1.74974e-06 9.09269e-07 0)
(1.72392e-06 8.93072e-07 0)
(1.69728e-06 8.76581e-07 0)
(1.66983e-06 8.598e-07 0)
(1.77497e-06 9.34936e-07 0)
(1.74953e-06 9.19161e-07 0)
(1.72327e-06 9.03103e-07 0)
(1.69621e-06 8.86763e-07 0)
(1.79949e-06 9.60179e-07 0)
(1.77442e-06 9.44832e-07 0)
(1.74853e-06 9.29217e-07 0)
(1.72184e-06 9.13331e-07 0)
(1.8233e-06 9.85018e-07 0)
(1.79858e-06 9.70109e-07 0)
(1.77302e-06 9.5495e-07 0)
(1.74669e-06 9.39536e-07 0)
(1.84638e-06 1.00948e-06 0)
(1.82197e-06 9.95021e-07 0)
(1.79674e-06 9.80334e-07 0)
(1.77074e-06 9.65409e-07 0)
(1.86871e-06 1.03359e-06 0)
(1.84459e-06 1.0196e-06 0)
(1.81965e-06 1.0054e-06 0)
(1.79396e-06 9.90989e-07 0)
(1.89027e-06 1.05739e-06 0)
(1.86641e-06 1.04389e-06 0)
(1.84173e-06 1.0302e-06 0)
(1.81631e-06 1.01631e-06 0)
(1.91104e-06 1.08091e-06 0)
(1.8874e-06 1.06791e-06 0)
(1.86296e-06 1.05475e-06 0)
(1.83778e-06 1.04141e-06 0)
(1.93099e-06 1.10419e-06 0)
(1.90755e-06 1.09171e-06 0)
(1.88331e-06 1.0791e-06 0)
(1.85834e-06 1.06633e-06 0)
(1.9501e-06 1.12725e-06 0)
(1.92682e-06 1.11532e-06 0)
(1.90275e-06 1.10328e-06 0)
(1.87796e-06 1.09111e-06 0)
(1.96834e-06 1.15015e-06 0)
(1.94519e-06 1.13878e-06 0)
(1.92126e-06 1.12733e-06 0)
(1.89662e-06 1.11577e-06 0)
(1.98568e-06 1.1729e-06 0)
(1.96263e-06 1.16212e-06 0)
(1.93883e-06 1.15128e-06 0)
(1.9143e-06 1.14035e-06 0)
(2.0021e-06 1.19554e-06 0)
(1.97914e-06 1.18537e-06 0)
(1.95542e-06 1.17515e-06 0)
(1.93099e-06 1.16487e-06 0)
(2.01757e-06 1.21809e-06 0)
(1.99467e-06 1.20856e-06 0)
(1.97102e-06 1.19898e-06 0)
(1.94666e-06 1.18936e-06 0)
(2.03207e-06 1.24059e-06 0)
(2.00921e-06 1.2317e-06 0)
(1.98561e-06 1.22278e-06 0)
(1.96131e-06 1.21383e-06 0)
(2.04558e-06 1.26304e-06 0)
(2.02275e-06 1.25482e-06 0)
(1.99918e-06 1.24658e-06 0)
(1.97491e-06 1.23832e-06 0)
(2.05807e-06 1.28547e-06 0)
(2.03526e-06 1.27793e-06 0)
(2.01171e-06 1.27038e-06 0)
(1.98745e-06 1.26282e-06 0)
(2.06953e-06 1.3079e-06 0)
(2.04673e-06 1.30105e-06 0)
(2.02319e-06 1.29421e-06 0)
(1.99893e-06 1.28735e-06 0)
(2.07994e-06 1.33033e-06 0)
(2.05714e-06 1.32419e-06 0)
(2.0336e-06 1.31805e-06 0)
(2.00934e-06 1.31192e-06 0)
(2.08928e-06 1.35276e-06 0)
(2.06648e-06 1.34735e-06 0)
(2.04294e-06 1.34193e-06 0)
(2.01867e-06 1.33653e-06 0)
(2.09755e-06 1.37521e-06 0)
(2.07474e-06 1.37053e-06 0)
(2.0512e-06 1.36584e-06 0)
(2.02692e-06 1.36117e-06 0)
(2.10473e-06 1.39767e-06 0)
(2.08192e-06 1.39373e-06 0)
(2.05837e-06 1.38979e-06 0)
(2.03408e-06 1.38585e-06 0)
(2.1108e-06 1.42015e-06 0)
(2.08799e-06 1.41695e-06 0)
(2.06444e-06 1.41375e-06 0)
(2.04014e-06 1.41056e-06 0)
(2.11578e-06 1.44263e-06 0)
(2.09296e-06 1.44018e-06 0)
(2.06941e-06 1.43773e-06 0)
(2.04511e-06 1.43529e-06 0)
(2.11963e-06 1.46512e-06 0)
(2.09682e-06 1.46342e-06 0)
(2.07326e-06 1.46172e-06 0)
(2.04897e-06 1.46003e-06 0)
(2.12241e-06 1.48759e-06 0)
(2.0996e-06 1.48665e-06 0)
(2.07605e-06 1.48571e-06 0)
(2.05177e-06 1.48477e-06 0)
(2.12398e-06 1.51019e-06 0)
(2.10117e-06 1.50991e-06 0)
(2.07762e-06 1.50964e-06 0)
(2.05335e-06 1.50936e-06 0)
)
;

boundaryField
{
    plateFix
    {
        type            fixedDisplacement;
        value           uniform (0 0 0);
    }
    plate
    {
        type            solidTraction;
        nonLinear       updatedLagrangian;
        traction        uniform (0 0 0);
        pressure        uniform 0;
        value           nonuniform List<vector> 
168
(
(3.81879e-08 2.10384e-08 -6.0082e-29)
(3.73148e-08 -2.01622e-08 -1.68115e-27)
(3.72536e-08 3.36714e-08 -1.72593e-27)
(3.61092e-08 -3.25243e-08 1.20953e-26)
(3.90137e-08 4.34025e-08 7.10245e-27)
(3.73871e-08 -4.20118e-08 -4.95151e-27)
(4.37996e-08 5.01706e-08 1.81227e-26)
(4.15194e-08 -4.85423e-08 -3.04284e-27)
(5.1419e-08 5.4974e-08 -2.3408e-26)
(4.8333e-08 -5.30436e-08 6.36803e-27)
(6.1317e-08 5.82834e-08 -8.95533e-27)
(5.72982e-08 -5.59411e-08 -5.15509e-27)
(7.31927e-08 6.05936e-08 4.34843e-27)
(6.81234e-08 -5.76786e-08 2.95844e-27)
(8.6811e-08 6.22311e-08 -6.14013e-27)
(8.05779e-08 -5.85344e-08 -6.57027e-27)
(1.02051e-07 6.34672e-08 -2.29159e-28)
(9.45386e-08 -5.87269e-08 1.03697e-27)
(1.18848e-07 6.45044e-08 2.04271e-26)
(1.09933e-07 -5.83999e-08 1.11767e-26)
(1.37185e-07 6.55065e-08 -1.48599e-27)
(1.26737e-07 -5.76498e-08 -2.43568e-28)
(1.57077e-07 6.66043e-08 -6.46213e-27)
(1.44953e-07 -5.65289e-08 -1.84167e-26)
(1.78567e-07 6.79077e-08 3.36856e-27)
(1.6461e-07 -5.50545e-08 1.12247e-26)
(2.01717e-07 6.95117e-08 -4.53123e-27)
(1.85756e-07 -5.32127e-08 -1.08094e-26)
(2.26608e-07 7.15043e-08 8.04219e-29)
(2.08454e-07 -5.09625e-08 9.55347e-27)
(2.53338e-07 7.39724e-08 1.17342e-27)
(2.32784e-07 -4.82386e-08 3.83049e-28)
(2.82017e-07 7.70082e-08 -2.96588e-27)
(2.58838e-07 -4.49536e-08 -1.8329e-28)
(3.1277e-07 8.07148e-08 1.4986e-28)
(2.86719e-07 -4.0999e-08 -5.91468e-28)
(3.45733e-07 8.52116e-08 -4.96108e-29)
(3.16539e-07 -3.62444e-08 -2.4164e-27)
(3.8105e-07 9.06391e-08 -7.11741e-27)
(3.4842e-07 -3.05362e-08 -7.56833e-28)
(4.18872e-07 9.71633e-08 1.81718e-27)
(3.82488e-07 -2.36946e-08 -1.6336e-27)
(4.59358e-07 1.0498e-07 6.22859e-27)
(4.18876e-07 -1.55092e-08 2.42374e-27)
(5.04322e-07 1.14676e-07 -1.46099e-27)
(4.59201e-07 -5.36107e-09 -3.12833e-27)
(5.52279e-07 1.26297e-07 -2.42152e-27)
(5.02122e-07 6.80033e-09 7.14468e-27)
(6.00027e-07 1.39174e-07 5.12765e-27)
(5.44784e-07 2.02843e-08 -8.46412e-27)
(6.47528e-07 1.53315e-07 -2.13783e-27)
(5.87173e-07 3.51063e-08 5.96575e-27)
(6.94736e-07 1.68721e-07 1.96969e-28)
(6.29278e-07 5.12756e-08 -3.11149e-29)
(7.41605e-07 1.85384e-07 -2.58731e-27)
(6.71085e-07 6.87925e-08 4.33438e-29)
(7.88084e-07 2.03286e-07 4.82148e-27)
(7.1258e-07 8.76478e-08 1.58e-27)
(8.34122e-07 2.224e-07 -4.16458e-27)
(7.53749e-07 1.07822e-07 -3.80315e-28)
(8.79663e-07 2.42688e-07 2.559e-28)
(7.94575e-07 1.29284e-07 -3.13854e-27)
(9.24653e-07 2.64102e-07 3.24135e-28)
(8.35041e-07 1.51994e-07 2.77506e-27)
(9.69037e-07 2.86585e-07 -1.44899e-28)
(8.75127e-07 1.75898e-07 2.57862e-28)
(1.01276e-06 3.10075e-07 1.14423e-28)
(9.14814e-07 2.00935e-07 -1.69982e-27)
(1.05578e-06 3.345e-07 -1.02641e-28)
(9.54081e-07 2.27032e-07 -3.27406e-29)
(1.09805e-06 3.59784e-07 1.43881e-27)
(9.92907e-07 2.54109e-07 -2.01444e-27)
(1.13951e-06 3.85847e-07 1.96246e-27)
(1.03127e-06 2.82077e-07 6.85498e-28)
(1.18014e-06 4.12602e-07 -5.67766e-29)
(1.06915e-06 3.10838e-07 6.59571e-28)
(1.2199e-06 4.39963e-07 -1.8147e-27)
(1.10654e-06 3.4029e-07 9.19297e-28)
(1.25876e-06 4.67839e-07 -9.82028e-28)
(1.14341e-06 3.70326e-07 6.22639e-28)
(1.29671e-06 4.96138e-07 -4.88493e-28)
(1.17976e-06 4.00834e-07 -1.90855e-28)
(1.33373e-06 5.24769e-07 2.10761e-27)
(1.21556e-06 4.31702e-07 -6.60484e-28)
(1.36983e-06 5.53642e-07 3.13845e-27)
(1.25082e-06 4.62818e-07 -1.92067e-28)
(1.405e-06 5.82667e-07 -1.13592e-28)
(1.28553e-06 4.94071e-07 3.9469e-28)
(1.43926e-06 6.11758e-07 -4.29915e-27)
(1.31967e-06 5.25358e-07 -4.21896e-27)
(1.47262e-06 6.40833e-07 -8.42241e-29)
(1.35324e-06 5.56581e-07 -3.93017e-27)
(1.50511e-06 6.69816e-07 2.78822e-27)
(1.38624e-06 5.8765e-07 -4.46036e-27)
(1.53675e-06 6.98634e-07 -2.15376e-27)
(1.41867e-06 6.18487e-07 4.67555e-27)
(1.56756e-06 7.27226e-07 5.56916e-28)
(1.4505e-06 6.49024e-07 -4.6651e-28)
(1.59758e-06 7.55533e-07 -2.90896e-27)
(1.48174e-06 6.79208e-07 1.58814e-28)
(1.62683e-06 7.83509e-07 2.86874e-27)
(1.51237e-06 7.08997e-07 3.23834e-27)
(1.65535e-06 8.11112e-07 -3.23688e-27)
(1.54238e-06 7.3836e-07 -3.464e-27)
(1.68314e-06 8.38313e-07 -3.75476e-27)
(1.57175e-06 7.6728e-07 -2.23132e-27)
(1.71022e-06 8.65089e-07 1.78155e-27)
(1.60046e-06 7.95752e-07 -2.34973e-28)
(1.73661e-06 8.91428e-07 -1.11981e-27)
(1.6285e-06 8.23779e-07 -2.95596e-28)
(1.76232e-06 9.17324e-07 -4.11234e-27)
(1.65583e-06 8.51373e-07 3.24837e-27)
(1.78734e-06 9.42783e-07 7.15736e-27)
(1.68242e-06 8.78556e-07 4.74229e-27)
(1.81168e-06 9.67816e-07 -3.56338e-27)
(1.70826e-06 9.05352e-07 -6.86154e-28)
(1.83531e-06 9.9244e-07 4.20865e-27)
(1.73331e-06 9.31794e-07 1.5108e-27)
(1.85823e-06 1.01668e-06 4.1405e-27)
(1.75754e-06 9.57914e-07 1.51701e-27)
(1.88042e-06 1.04056e-06 -3.34066e-27)
(1.78092e-06 9.83751e-07 5.81372e-30)
(1.90187e-06 1.06412e-06 -6.1794e-27)
(1.80342e-06 1.00934e-06 -7.11605e-27)
(1.92253e-06 1.08739e-06 -5.17157e-27)
(1.82502e-06 1.03472e-06 -1.10705e-26)
(1.9424e-06 1.11041e-06 7.74565e-27)
(1.84569e-06 1.05993e-06 4.60346e-27)
(1.96144e-06 1.13321e-06 7.33804e-27)
(1.86541e-06 1.08501e-06 -9.46304e-28)
(1.97962e-06 1.15582e-06 -3.04454e-28)
(1.88415e-06 1.10997e-06 3.94165e-29)
(1.99692e-06 1.17828e-06 3.23253e-27)
(1.9019e-06 1.13487e-06 4.63944e-27)
(2.01331e-06 1.20061e-06 2.62252e-28)
(1.91863e-06 1.15972e-06 1.9604e-28)
(2.02877e-06 1.22286e-06 1.98395e-28)
(1.93434e-06 1.18454e-06 5.31805e-27)
(2.04326e-06 1.24503e-06 3.27892e-27)
(1.949e-06 1.20936e-06 8.77803e-27)
(2.05676e-06 1.26715e-06 4.26238e-27)
(1.96261e-06 1.23419e-06 4.37698e-28)
(2.06926e-06 1.28924e-06 3.71515e-27)
(1.97516e-06 1.25904e-06 -8.39652e-27)
(2.08073e-06 1.31132e-06 5.65892e-28)
(1.98664e-06 1.28393e-06 -4.17961e-27)
(2.09114e-06 1.33339e-06 -4.21762e-27)
(1.99704e-06 1.30886e-06 -3.33065e-28)
(2.1005e-06 1.35547e-06 -8.11289e-27)
(2.00636e-06 1.33382e-06 4.50659e-27)
(2.10877e-06 1.37755e-06 -3.5442e-28)
(2.0146e-06 1.35883e-06 4.06306e-27)
(2.11595e-06 1.39965e-06 3.98668e-27)
(2.02174e-06 1.38388e-06 1.55045e-28)
(2.12203e-06 1.42175e-06 -4.3416e-27)
(2.02779e-06 1.40896e-06 -9.14616e-27)
(2.127e-06 1.44385e-06 -4.66328e-27)
(2.03276e-06 1.43407e-06 4.64127e-27)
(2.13085e-06 1.46597e-06 -4.74308e-27)
(2.03662e-06 1.45917e-06 -1.4466e-29)
(2.13365e-06 1.48806e-06 -2.55225e-28)
(2.03945e-06 1.4843e-06 1.1184e-29)
(2.13527e-06 1.51032e-06 5.14862e-27)
(2.1244e-06 1.52155e-06 -6.91257e-27)
(2.1016e-06 1.52152e-06 -6.8474e-27)
(2.07805e-06 1.52162e-06 3.10929e-29)
(2.05377e-06 1.52158e-06 6.641e-27)
(2.04111e-06 1.50923e-06 4.94182e-27)
)
;
    }
    frontAndBackPlanes
    {
        type            empty;
    }
}


// ************************************************************************* //
