/*--------------------------------*- C++ -*----------------------------------*\
| =========                 |                                                 |
| \\      /  F ield         | OpenFOAM Extend Project: Open source CFD        |
|  \\    /   O peration     | Version:  1.6-ext                               |
|   \\  /    A nd           | Web:      www.extend-project.de                 |
|    \\/     M anipulation  |                                                 |
\*---------------------------------------------------------------------------*/
FoamFile
{
    version     2.0;
    format      ascii;
    class       volVectorField;
    location    "0.45";
    object      DV;
}
// * * * * * * * * * * * * * * * * * * * * * * * * * * * * * * * * * * * * * //

dimensions      [0 1 -1 0 0 0 0];

internalField   nonuniform List<vector> 
328
(
(5.40262e-07 1.05217e-06 0)
(3.67129e-07 2.19733e-07 0)
(3.71416e-07 -2.30428e-07 0)
(5.6607e-07 -1.10303e-06 0)
(1.64627e-06 2.69577e-06 0)
(1.21262e-06 6.34418e-07 0)
(1.2282e-06 -6.80412e-07 0)
(1.72429e-06 -2.83376e-06 0)
(2.92882e-06 3.91188e-06 0)
(2.34217e-06 1.01797e-06 0)
(2.37473e-06 -1.11459e-06 0)
(3.06513e-06 -4.12828e-06 0)
(4.32876e-06 4.76598e-06 0)
(3.66538e-06 1.33767e-06 0)
(3.7169e-06 -1.50044e-06 0)
(4.52576e-06 -5.05929e-06 0)
(5.8649e-06 5.34341e-06 0)
(5.20092e-06 1.58128e-06 0)
(5.27316e-06 -1.82646e-06 0)
(6.12474e-06 -5.72009e-06 0)
(7.5313e-06 5.70976e-06 0)
(6.91955e-06 1.74436e-06 0)
(7.01312e-06 -2.09007e-06 0)
(7.85491e-06 -6.18253e-06 0)
(9.33773e-06 5.91908e-06 0)
(8.81791e-06 1.83197e-06 0)
(8.93311e-06 -2.2986e-06 0)
(9.72545e-06 -6.50557e-06 0)
(1.12914e-05 6.01158e-06 0)
(1.08854e-05 1.85272e-06 0)
(1.10221e-05 -2.4634e-06 0)
(1.17428e-05 -6.73342e-06 0)
(1.34032e-05 6.01836e-06 0)
(1.31198e-05 1.81767e-06 0)
(1.32776e-05 -2.59825e-06 0)
(1.39169e-05 -6.90055e-06 0)
(1.56839e-05 5.9624e-06 0)
(1.55206e-05 1.73758e-06 0)
(1.56986e-05 -2.71665e-06 0)
(1.62576e-05 -7.03284e-06 0)
(1.81453e-05 5.86072e-06 0)
(1.80918e-05 1.62213e-06 0)
(1.8289e-05 -2.83063e-06 0)
(1.87755e-05 -7.14972e-06 0)
(2.07994e-05 5.72536e-06 0)
(2.08406e-05 1.47904e-06 0)
(2.10553e-05 -2.94982e-06 0)
(2.14812e-05 -7.26514e-06 0)
(2.36589e-05 5.56463e-06 0)
(2.37774e-05 1.31408e-06 0)
(2.40075e-05 -3.08114e-06 0)
(2.43856e-05 -7.38859e-06 0)
(2.67369e-05 5.38394e-06 0)
(2.6915e-05 1.13127e-06 0)
(2.71578e-05 -3.2288e-06 0)
(2.75003e-05 -7.52576e-06 0)
(3.00474e-05 5.18684e-06 0)
(3.02685e-05 9.33412e-07 0)
(3.05206e-05 -3.39452e-06 0)
(3.0837e-05 -7.67922e-06 0)
(3.36052e-05 4.97582e-06 0)
(3.38545e-05 7.2275e-07 0)
(3.41119e-05 -3.57784e-06 0)
(3.44086e-05 -7.84894e-06 0)
(3.74262e-05 4.75316e-06 0)
(3.76906e-05 5.01589e-07 0)
(3.79485e-05 -3.7764e-06 0)
(3.82287e-05 -8.03274e-06 0)
(4.1527e-05 4.52158e-06 0)
(4.17953e-05 2.72903e-07 0)
(4.20484e-05 -3.98615e-06 0)
(4.23122e-05 -8.22662e-06 0)
(4.59255e-05 4.28481e-06 0)
(4.61877e-05 4.07829e-08 0)
(4.643e-05 -4.20156e-06 0)
(4.66749e-05 -8.425e-06 0)
(5.06399e-05 4.04788e-06 0)
(5.08872e-05 -1.89283e-07 0)
(5.11122e-05 -4.41568e-06 0)
(5.13338e-05 -8.62082e-06 0)
(5.56892e-05 3.81721e-06 0)
(5.59136e-05 -4.10356e-07 0)
(5.61145e-05 -4.62031e-06 0)
(5.63072e-05 -8.80574e-06 0)
(6.10928e-05 3.6005e-06 0)
(6.12867e-05 -6.1425e-07 0)
(6.14568e-05 -4.80624e-06 0)
(6.16145e-05 -8.97035e-06 0)
(6.70904e-05 3.39891e-06 0)
(6.72457e-05 -7.9864e-07 0)
(6.73769e-05 -4.96956e-06 0)
(6.74917e-05 -9.10962e-06 0)
(7.34815e-05 3.23395e-06 0)
(7.35919e-05 -9.41957e-07 0)
(7.36776e-05 -5.08861e-06 0)
(7.37434e-05 -9.20219e-06 0)
(7.98381e-05 3.11971e-06 0)
(7.99017e-05 -1.03159e-06 0)
(7.99397e-05 -5.1521e-06 0)
(7.99548e-05 -9.23818e-06 0)
(8.61559e-05 3.05521e-06 0)
(8.61717e-05 -1.06893e-06 0)
(8.61607e-05 -5.16139e-06 0)
(8.61242e-05 -9.21868e-06 0)
(9.24313e-05 3.03943e-06 0)
(9.23986e-05 -1.05524e-06 0)
(9.2338e-05 -5.11776e-06 0)
(9.22495e-05 -9.14477e-06 0)
(9.86609e-05 3.07206e-06 0)
(9.85794e-05 -9.90996e-07 0)
(9.84688e-05 -5.02173e-06 0)
(9.83281e-05 -9.01693e-06 0)
(0.000104842 3.15363e-06 0)
(0.000104711 -8.75704e-07 0)
(0.00010455 -4.87285e-06 0)
(0.000104358 -8.83475e-06 0)
(0.00011097 3.28519e-06 0)
(0.000110791 -7.08235e-07 0)
(0.00011058 -4.67003e-06 0)
(0.000110336 -8.59731e-06 0)
(0.000117042 3.46769e-06 0)
(0.000116815 -4.87514e-07 0)
(0.000116556 -4.41222e-06 0)
(0.00011626 -8.30376e-06 0)
(0.000123055 3.70122e-06 0)
(0.000122781 -2.13327e-07 0)
(0.000122475 -4.09925e-06 0)
(0.000122131 -7.95409e-06 0)
(0.000129003 3.98433e-06 0)
(0.000128685 1.1297e-07 0)
(0.000128336 -3.73249e-06 0)
(0.000127945 -7.54981e-06 0)
(0.000134882 4.31361e-06 0)
(0.000134525 4.87999e-07 0)
(0.000134136 -3.31532e-06 0)
(0.000133703 -7.09432e-06 0)
(0.000140688 4.68363e-06 0)
(0.000140296 9.06248e-07 0)
(0.000139873 -2.85326e-06 0)
(0.000139405 -6.59304e-06 0)
(0.000146416 5.08711e-06 0)
(0.000145997 1.36029e-06 0)
(0.000145546 -2.35371e-06 0)
(0.000145048 -6.0532e-06 0)
(0.000152062 5.51537e-06 0)
(0.000151623 1.84128e-06 0)
(0.000151151 -1.82549e-06 0)
(0.000150631 -5.48338e-06 0)
(0.000157625 5.95896e-06 0)
(0.000157172 2.33953e-06 0)
(0.000156687 -1.27825e-06 0)
(0.000156153 -4.89292e-06 0)
(0.000163099 6.40826e-06 0)
(0.000162642 2.84523e-06 0)
(0.000162151 -7.21768e-07 0)
(0.00016161 -4.29131e-06 0)
(0.000168485 6.85407e-06 0)
(0.00016803 3.34897e-06 0)
(0.00016754 -1.65397e-07 0)
(0.000167 -3.68763e-06 0)
(0.000173779 7.28802e-06 0)
(0.000173333 3.84225e-06 0)
(0.000172851 3.82383e-07 0)
(0.000172318 -3.09014e-06 0)
(0.000178981 7.70285e-06 0)
(0.00017855 4.3177e-06 0)
(0.000178081 9.14249e-07 0)
(0.000177563 -2.506e-06 0)
(0.000184089 8.09258e-06 0)
(0.000183679 4.76927e-06 0)
(0.000183228 1.42415e-06 0)
(0.000182728 -1.94116e-06 0)
(0.000189103 8.45249e-06 0)
(0.000188716 5.19217e-06 0)
(0.000188288 1.90731e-06 0)
(0.00018781 -1.40035e-06 0)
(0.00019402 8.77908e-06 0)
(0.000193661 5.58287e-06 0)
(0.000193258 2.36017e-06 0)
(0.000192806 -8.87136e-07 0)
(0.000198841 9.07003e-06 0)
(0.000198511 5.93896e-06 0)
(0.000198135 2.78027e-06 0)
(0.00019771 -4.04007e-07 0)
(0.000203565 9.32408e-06 0)
(0.000203265 6.25912e-06 0)
(0.000202917 3.16621e-06 0)
(0.00020252 4.75699e-08 0)
(0.00020819 9.54107e-06 0)
(0.000207921 6.54307e-06 0)
(0.0002076 3.51765e-06 0)
(0.000207231 4.67143e-07 0)
(0.000212717 9.72192e-06 0)
(0.000212476 6.79165e-06 0)
(0.000212183 3.83528e-06 0)
(0.000211839 8.55309e-07 0)
(0.000217144 9.86871e-06 0)
(0.000216931 7.00681e-06 0)
(0.000216661 4.12096e-06 0)
(0.000216342 1.21378e-06 0)
(0.000221473 9.98471e-06 0)
(0.000221282 7.19175e-06 0)
(0.000221034 4.37776e-06 0)
(0.000220735 1.54547e-06 0)
(0.000225701 1.00744e-05 0)
(0.00022553 7.35089e-06 0)
(0.000225298 4.60998e-06 0)
(0.000225015 1.85452e-06 0)
(0.000229829 1.01434e-05 0)
(0.000229671 7.48986e-06 0)
(0.000229451 4.82318e-06 0)
(0.000229179 2.14628e-06 0)
(0.000233856 1.01984e-05 0)
(0.000233706 7.61542e-06 0)
(0.000233491 5.02402e-06 0)
(0.000233224 2.42721e-06 0)
(0.000237781 1.0247e-05 0)
(0.000237633 7.73518e-06 0)
(0.000237417 5.22008e-06 0)
(0.000237147 2.70469e-06 0)
(0.000241603 1.02973e-05 0)
(0.000241449 7.8574e-06 0)
(0.000241226 5.41956e-06 0)
(0.000240947 2.98672e-06 0)
(0.000245321 1.03575e-05 0)
(0.000245155 7.99056e-06 0)
(0.000244917 5.63096e-06 0)
(0.000244622 3.28161e-06 0)
(0.000248933 1.04358e-05 0)
(0.000248747 8.14307e-06 0)
(0.000248488 5.8627e-06 0)
(0.000248171 3.59763e-06 0)
(0.000252436 1.05402e-05 0)
(0.000252224 8.32288e-06 0)
(0.000251938 6.12276e-06 0)
(0.000251591 3.94262e-06 0)
(0.000255829 1.06775e-05 0)
(0.000255584 8.5372e-06 0)
(0.000255265 6.41838e-06 0)
(0.000254883 4.32375e-06 0)
(0.000259107 1.08539e-05 0)
(0.000258825 8.79227e-06 0)
(0.000258468 6.75584e-06 0)
(0.000258046 4.74722e-06 0)
(0.000262268 1.10744e-05 0)
(0.000261944 9.09323e-06 0)
(0.000261545 7.14033e-06 0)
(0.000261078 5.21821e-06 0)
(0.000265309 1.13431e-05 0)
(0.00026494 9.44411e-06 0)
(0.000264495 7.5759e-06 0)
(0.000263981 5.74077e-06 0)
(0.000268227 1.16627e-05 0)
(0.00026781 9.84786e-06 0)
(0.000267317 8.06553e-06 0)
(0.000266752 6.3179e-06 0)
(0.000271018 1.20353e-05 0)
(0.000270551 1.03064e-05 0)
(0.000270009 8.61119e-06 0)
(0.000269393 6.9516e-06 0)
(0.000273679 1.2462e-05 0)
(0.000273162 1.08209e-05 0)
(0.000272569 9.21398e-06 0)
(0.000271901 7.64297e-06 0)
(0.000276208 1.29429e-05 0)
(0.000275641 1.13916e-05 0)
(0.000274997 9.87415e-06 0)
(0.000274276 8.39229e-06 0)
(0.0002786 1.34776e-05 0)
(0.000277983 1.20179e-05 0)
(0.000277291 1.05912e-05 0)
(0.000276519 9.19906e-06 0)
(0.000280853 1.40647e-05 0)
(0.000280189 1.26985e-05 0)
(0.000279448 1.13637e-05 0)
(0.000278627 1.00619e-05 0)
(0.000282964 1.4702e-05 0)
(0.000282255 1.34311e-05 0)
(0.000281469 1.21895e-05 0)
(0.000280601 1.09787e-05 0)
(0.00028493 1.53864e-05 0)
(0.000284179 1.42125e-05 0)
(0.000283351 1.30653e-05 0)
(0.00028244 1.19463e-05 0)
(0.000286748 1.61137e-05 0)
(0.000285959 1.50386e-05 0)
(0.000285093 1.39871e-05 0)
(0.000284143 1.29606e-05 0)
(0.000288414 1.68791e-05 0)
(0.000287592 1.59043e-05 0)
(0.000286694 1.49498e-05 0)
(0.000285709 1.40166e-05 0)
(0.000289928 1.76768e-05 0)
(0.000289078 1.6804e-05 0)
(0.000288151 1.59476e-05 0)
(0.000287137 1.51088e-05 0)
(0.000291287 1.85008e-05 0)
(0.000290414 1.77311e-05 0)
(0.000289464 1.69742e-05 0)
(0.000288426 1.6231e-05 0)
(0.000292489 1.93445e-05 0)
(0.000291599 1.86791e-05 0)
(0.00029063 1.8023e-05 0)
(0.000289574 1.73765e-05 0)
(0.000293533 2.02009e-05 0)
(0.00029263 1.96407e-05 0)
(0.000291649 1.90872e-05 0)
(0.000290579 1.8539e-05 0)
(0.000294418 2.10635e-05 0)
(0.000293507 2.06091e-05 0)
(0.000292517 2.01599e-05 0)
(0.000291441 1.97116e-05 0)
(0.000295145 2.19252e-05 0)
(0.000294228 2.15775e-05 0)
(0.000293233 2.12352e-05 0)
(0.000292156 2.0889e-05 0)
(0.000295714 2.27829e-05 0)
(0.000294789 2.25416e-05 0)
(0.000293793 2.23072e-05 0)
(0.000292722 2.20645e-05 0)
(0.000296131 2.36385e-05 0)
(0.000295195 2.3501e-05 0)
(0.000294198 2.33702e-05 0)
(0.00029314 2.32303e-05 0)
(0.000296387 2.45302e-05 0)
(0.000295438 2.44666e-05 0)
(0.000294441 2.44103e-05 0)
(0.0002934 2.43428e-05 0)
)
;

boundaryField
{
    plateFix
    {
        type            calculated;
        value           uniform (0 0 0);
    }
    plate
    {
        type            calculated;
        value           nonuniform List<vector> 
168
(
(5.12652e-06 2.81229e-06 4.14273e-23)
(5.43651e-06 -2.95754e-06 3.67738e-23)
(4.97361e-06 4.51671e-06 -2.2482e-23)
(5.29043e-06 -4.75032e-06 -6.70948e-23)
(5.17331e-06 5.82187e-06 -1.41661e-23)
(5.5169e-06 -6.1347e-06 3.62548e-23)
(5.77273e-06 6.71553e-06 -7.56303e-23)
(6.16563e-06 -7.1027e-06 -1.05249e-23)
(6.74899e-06 7.32702e-06 8.97332e-23)
(7.20833e-06 -7.79393e-06 -2.6727e-23)
(8.03016e-06 7.71574e-06 9.5627e-24)
(8.56567e-06 -8.2741e-06 2.15585e-23)
(9.57717e-06 7.94457e-06 -4.36388e-24)
(1.0194e-05 -8.61147e-06 -1.742e-23)
(1.13591e-05 8.05379e-06 1.73798e-23)
(1.20592e-05 -8.85037e-06 3.77841e-23)
(1.33602e-05 8.07593e-06 9.92572e-24)
(1.41428e-05 -9.02677e-06 -2.01151e-23)
(1.55718e-05 8.03379e-06 -6.0863e-23)
(1.64341e-05 -9.16636e-06 -1.94711e-23)
(1.79919e-05 7.94435e-06 6.30385e-25)
(1.8929e-05 -9.28853e-06 -1.74867e-24)
(2.06229e-05 7.81946e-06 2.02525e-23)
(2.16276e-05 -9.40703e-06 5.28408e-23)
(2.34706e-05 7.66735e-06 -6.06407e-24)
(2.45334e-05 -9.53131e-06 -3.35828e-23)
(2.65439e-05 7.49346e-06 7.75021e-24)
(2.76528e-05 -9.66716e-06 3.32481e-23)
(2.98541e-05 7.30146e-06 6.90871e-24)
(3.09941e-05 -9.81732e-06 -3.47084e-23)
(3.34147e-05 7.09396e-06 -1.2086e-23)
(3.45681e-05 -9.98202e-06 2.03803e-24)
(3.72409e-05 6.87335e-06 1.02552e-23)
(3.83871e-05 -1.01593e-05 3.21718e-24)
(4.13497e-05 6.64242e-06 1.68532e-24)
(4.24653e-05 -1.03456e-05 -2.77446e-24)
(4.57589e-05 6.40487e-06 5.13466e-24)
(4.68182e-05 -1.05353e-05 1.75742e-23)
(5.04872e-05 6.16564e-06 1.30691e-23)
(5.14629e-05 -1.07216e-05 -2.6299e-24)
(5.55536e-05 5.93099e-06 -3.49322e-24)
(5.64179e-05 -1.08962e-05 3.44871e-24)
(6.09773e-05 5.70842e-06 -2.00452e-23)
(6.17029e-05 -1.10498e-05 -4.05994e-24)
(6.69986e-05 5.49857e-06 6.73436e-24)
(6.75539e-05 -1.11769e-05 6.53206e-24)
(7.34155e-05 5.32293e-06 7.27581e-24)
(7.37771e-05 -1.12561e-05 -1.98036e-23)
(7.97976e-05 5.1964e-06 -1.49866e-23)
(7.99601e-05 -1.12784e-05 2.84887e-23)
(8.61405e-05 5.11829e-06 6.07159e-24)
(8.61018e-05 -1.12445e-05 -2.34691e-23)
(9.24406e-05 5.08777e-06 2.4068e-25)
(9.21997e-05 -1.11555e-05 4.15799e-24)
(9.86949e-05 5.10464e-06 1.07318e-23)
(9.82509e-05 -1.10118e-05 -2.84657e-24)
(0.000104901 5.1694e-06 -2.26635e-23)
(0.000104253 -1.0813e-05 -4.13124e-24)
(0.000111055 5.28304e-06 1.38504e-23)
(0.000110203 -1.05583e-05 -2.3453e-24)
(0.000117154 5.4464e-06 4.42565e-25)
(0.000116099 -1.0247e-05 1.01709e-23)
(0.000123192 5.65943e-06 -1.1339e-25)
(0.000121942 -9.87922e-06 -7.44881e-24)
(0.000129165 5.92062e-06 3.73157e-25)
(0.00012773 -9.45661e-06 1.84368e-24)
(0.000135067 6.22654e-06 -2.75073e-25)
(0.000133465 -8.98257e-06 2.71886e-24)
(0.000140892 6.5718e-06 4.52005e-25)
(0.000139145 -8.46244e-06 -2.97731e-24)
(0.000146636 6.94922e-06 -5.35679e-24)
(0.000144772 -7.90334e-06 8.87154e-24)
(0.000152294 7.35028e-06 -3.91444e-24)
(0.000150343 -7.31365e-06 -3.92572e-24)
(0.000157862 7.76567e-06 -4.43434e-24)
(0.000155858 -6.70253e-06 3.4718e-25)
(0.000163339 8.18594e-06 5.48275e-24)
(0.000161313 -6.07927e-06 -3.23395e-25)
(0.000168722 8.602e-06 1.99167e-24)
(0.000166704 -5.45277e-06 -4.8903e-24)
(0.00017401 9.00559e-06 -7.97852e-25)
(0.000172029 -4.83115e-06 2.54307e-24)
(0.000179202 9.38951e-06 -4.38851e-24)
(0.000177282 -4.22148e-06 3.20101e-24)
(0.000184298 9.74784e-06 -7.84094e-24)
(0.00018246 -3.62965e-06 -3.16717e-24)
(0.000189297 1.00759e-05 -3.05955e-24)
(0.000187556 -3.06035e-06 1.45103e-25)
(0.000194198 1.03701e-05 1.33224e-23)
(0.000192567 -2.51717e-06 1.40798e-23)
(0.000199001 1.06284e-05 -2.00586e-24)
(0.000197487 -2.00262e-06 4.72891e-24)
(0.000203707 1.08493e-05 -7.01221e-24)
(0.000202313 -1.5182e-06 4.52664e-24)
(0.000208314 1.10329e-05 1.15429e-23)
(0.000207041 -1.0644e-06 -8.05632e-24)
(0.000212824 1.118e-05 -3.10464e-24)
(0.000211665 -6.40701e-07 6.28105e-24)
(0.000217235 1.12929e-05 8.87935e-25)
(0.000216181 -2.45439e-07 -1.13941e-23)
(0.000221548 1.13749e-05 -1.08743e-23)
(0.000220587 1.24208e-07 -6.43167e-25)
(0.000225764 1.14304e-05 1.53969e-23)
(0.000224876 4.72288e-07 2.04933e-24)
(0.000229882 1.14651e-05 1.21657e-23)
(0.000229047 8.04044e-07 1.10358e-23)
(0.000233903 1.14856e-05 -1.44043e-23)
(0.000233095 1.12582e-06 -2.55693e-24)
(0.000237827 1.14994e-05 1.57008e-23)
(0.000237018 1.44485e-06 7.83949e-24)
(0.000241651 1.15145e-05 -3.84008e-24)
(0.000240814 1.76902e-06 -1.22863e-24)
(0.000245375 1.15391e-05 -1.96303e-23)
(0.00024448 2.10652e-06 -1.15699e-23)
(0.000248997 1.15812e-05 8.82254e-24)
(0.000248015 2.46548e-06 -6.0047e-24)
(0.000252514 1.16486e-05 -4.62191e-24)
(0.000251419 2.85369e-06 -6.69199e-24)
(0.000255924 1.17481e-05 2.38502e-24)
(0.000254691 3.27821e-06 -4.0288e-24)
(0.000259222 1.18858e-05 -5.04298e-24)
(0.000257831 3.74525e-06 -5.31213e-24)
(0.000262406 1.20666e-05 1.06493e-23)
(0.000260839 4.25994e-06 1.52802e-23)
(0.000265472 1.22946e-05 1.31345e-23)
(0.000263715 4.82635e-06 2.81115e-23)
(0.000268415 1.25725e-05 -1.68289e-23)
(0.000266459 5.44748e-06 -1.76426e-23)
(0.000271233 1.29023e-05 -3.0133e-23)
(0.000269071 6.12535e-06 1.72964e-23)
(0.000273922 1.32852e-05 1.42144e-23)
(0.000271551 6.86108e-06 -5.21047e-24)
(0.000276477 1.37213e-05 -2.78436e-24)
(0.000273898 7.65497e-06 -1.14966e-23)
(0.000278896 1.42102e-05 -4.48103e-25)
(0.000276112 8.50652e-06 -7.50988e-24)
(0.000281175 1.47504e-05 7.27832e-24)
(0.000278194 9.4144e-06 -1.27612e-23)
(0.000283311 1.53399e-05 -1.89673e-23)
(0.000280143 1.03764e-05 -2.1741e-23)
(0.000285299 1.59754e-05 -1.28395e-23)
(0.000281958 1.13895e-05 7.46406e-24)
(0.000287137 1.66529e-05 -6.47528e-24)
(0.00028364 1.24496e-05 3.93557e-24)
(0.000288822 1.73676e-05 -4.80169e-24)
(0.000285187 1.35518e-05 2.42007e-23)
(0.00029035 1.8114e-05 8.73713e-24)
(0.0002866 1.46906e-05 -3.50857e-24)
(0.00029172 1.88859e-05 2.41687e-23)
(0.000287877 1.586e-05 -4.29619e-24)
(0.00029293 1.96769e-05 5.48277e-24)
(0.000289016 1.70533e-05 -1.4691e-23)
(0.000293978 2.04805e-05 -1.20072e-23)
(0.000290016 1.82642e-05 -2.94665e-24)
(0.000294865 2.12899e-05 -5.55896e-24)
(0.000290875 1.94862e-05 2.62107e-23)
(0.000295591 2.20985e-05 8.95891e-24)
(0.00029159 2.07138e-05 -1.17359e-23)
(0.000296159 2.2904e-05 5.02733e-24)
(0.000292159 2.19399e-05 -2.27181e-24)
(0.000296585 2.37064e-05 -3.98114e-24)
(0.000292594 2.31582e-05 -7.13544e-26)
(0.000296875 2.45528e-05 1.69288e-24)
(0.000296462 2.50215e-05 -3.84941e-24)
(0.000295514 2.49549e-05 -7.16947e-24)
(0.000294517 2.49174e-05 2.33857e-23)
(0.000293476 2.48383e-05 -2.74466e-23)
(0.000292901 2.43165e-05 -2.00081e-23)
)
;
    }
    frontAndBackPlanes
    {
        type            empty;
    }
}


// ************************************************************************* //
