/*--------------------------------*- C++ -*----------------------------------*\
| =========                 |                                                 |
| \\      /  F ield         | OpenFOAM Extend Project: Open source CFD        |
|  \\    /   O peration     | Version:  1.6-ext                               |
|   \\  /    A nd           | Web:      www.extend-project.de                 |
|    \\/     M anipulation  |                                                 |
\*---------------------------------------------------------------------------*/
FoamFile
{
    version     2.0;
    format      ascii;
    class       volVectorField;
    location    "0.45";
    object      DV_0;
}
// * * * * * * * * * * * * * * * * * * * * * * * * * * * * * * * * * * * * * //

dimensions      [0 1 -1 0 0 0 0];

internalField   nonuniform List<vector> 
328
(
(6.74836e-07 1.31515e-06 0)
(4.57986e-07 2.75472e-07 0)
(4.63357e-07 -2.80696e-07 0)
(7.00974e-07 -1.34802e-06 0)
(2.05607e-06 3.36807e-06 0)
(1.51241e-06 7.956e-07 0)
(1.53051e-06 -8.28824e-07 0)
(2.13559e-06 -3.46456e-06 0)
(3.65721e-06 4.88414e-06 0)
(2.91992e-06 1.2765e-06 0)
(2.95486e-06 -1.35809e-06 0)
(3.79538e-06 -5.04987e-06 0)
(5.40409e-06 5.94641e-06 0)
(4.56764e-06 1.67743e-06 0)
(4.6213e-06 -1.82862e-06 0)
(5.60375e-06 -6.19193e-06 0)
(7.32005e-06 6.66323e-06 0)
(6.4786e-06 1.98328e-06 0)
(6.55271e-06 -2.22626e-06 0)
(7.58369e-06 -7.00372e-06 0)
(9.39766e-06 7.11785e-06 0)
(8.61645e-06 2.1891e-06 0)
(8.7119e-06 -2.54737e-06 0)
(9.72662e-06 -7.57221e-06 0)
(1.16491e-05 7.37871e-06 0)
(1.09771e-05 2.30186e-06 0)
(1.10944e-05 -2.80034e-06 0)
(1.20439e-05 -7.96877e-06 0)
(1.40835e-05 7.49684e-06 0)
(1.35476e-05 2.33321e-06 0)
(1.36868e-05 -2.99824e-06 0)
(1.45437e-05 -8.24668e-06 0)
(1.67144e-05 7.51177e-06 0)
(1.63254e-05 2.29783e-06 0)
(1.64862e-05 -3.1571e-06 0)
(1.72382e-05 -8.44736e-06 0)
(1.95551e-05 7.45288e-06 0)
(1.93099e-05 2.2101e-06 0)
(1.94914e-05 -3.2925e-06 0)
(2.01399e-05 -8.60174e-06 0)
(2.26204e-05 7.342e-06 0)
(2.25063e-05 2.08294e-06 0)
(2.27073e-05 -3.41834e-06 0)
(2.32621e-05 -8.73294e-06 0)
(2.59251e-05 7.19476e-06 0)
(2.59236e-05 1.92676e-06 0)
(2.61423e-05 -3.54562e-06 0)
(2.66183e-05 -8.85743e-06 0)
(2.94847e-05 7.02199e-06 0)
(2.95748e-05 1.74935e-06 0)
(2.9809e-05 -3.68222e-06 0)
(3.02225e-05 -8.98635e-06 0)
(3.33155e-05 6.83083e-06 0)
(3.34759e-05 1.55613e-06 0)
(3.37229e-05 -3.8329e-06 0)
(3.40894e-05 -9.12638e-06 0)
(3.74346e-05 6.62578e-06 0)
(3.76457e-05 1.35071e-06 0)
(3.79021e-05 -3.99968e-06 0)
(3.82345e-05 -9.28064e-06 0)
(4.18601e-05 6.40973e-06 0)
(4.21049e-05 1.1356e-06 0)
(4.2367e-05 -4.18226e-06 0)
(4.26743e-05 -9.44939e-06 0)
(4.66117e-05 6.18486e-06 0)
(4.68757e-05 9.12942e-07 0)
(4.7139e-05 -4.37848e-06 0)
(4.74269e-05 -9.63071e-06 0)
(5.17099e-05 5.95331e-06 0)
(5.19812e-05 6.85083e-07 0)
(5.22409e-05 -4.58472e-06 0)
(5.25115e-05 -9.82103e-06 0)
(5.71769e-05 5.71771e-06 0)
(5.74455e-05 4.54989e-07 0)
(5.76964e-05 -4.79629e-06 0)
(5.79489e-05 -1.00155e-05 0)
(6.30359e-05 5.48147e-06 0)
(6.32934e-05 2.26445e-07 0)
(6.35298e-05 -5.00763e-06 0)
(6.37614e-05 -1.02084e-05 0)
(6.93112e-05 5.24875e-06 0)
(6.95503e-05 4.06322e-09 0)
(6.97663e-05 -5.21262e-06 0)
(6.99727e-05 -1.03934e-05 0)
(7.6028e-05 5.02454e-06 0)
(7.6242e-05 -2.06785e-07 0)
(7.64315e-05 -5.40466e-06 0)
(7.66076e-05 -1.05633e-05 0)
(8.34866e-05 4.80662e-06 0)
(8.36679e-05 -4.07258e-07 0)
(8.38234e-05 -5.58314e-06 0)
(8.39621e-05 -1.07162e-05 0)
(9.14414e-05 4.61403e-06 0)
(9.15832e-05 -5.7831e-07 0)
(9.16975e-05 -5.7288e-06 0)
(9.1792e-05 -1.08331e-05 0)
(9.93627e-05 4.46417e-06 0)
(9.94609e-05 -7.03931e-07 0)
(9.953e-05 -5.82692e-06 0)
(9.95766e-05 -1.09006e-05 0)
(0.000107247 4.36017e-06 0)
(0.000107298 -7.81074e-07 0)
(0.000107318 -5.87438e-06 0)
(0.000107313 -1.09156e-05 0)
(0.00011509 4.3062e-06 0)
(0.00011509 -8.05518e-07 0)
(0.000115058 -5.86693e-06 0)
(0.000114998 -1.08739e-05 0)
(0.000122887 4.30695e-06 0)
(0.000122834 -7.72417e-07 0)
(0.000122747 -5.79973e-06 0)
(0.000122629 -1.0771e-05 0)
(0.000130635 4.36674e-06 0)
(0.000130526 -6.77229e-07 0)
(0.000130382 -5.66825e-06 0)
(0.000130204 -1.06024e-05 0)
(0.000138327 4.4886e-06 0)
(0.000138161 -5.1673e-07 0)
(0.000137961 -5.46927e-06 0)
(0.000137722 -1.03652e-05 0)
(0.000145958 4.67347e-06 0)
(0.000145736 -2.89839e-07 0)
(0.00014548 -5.20171e-06 0)
(0.000145181 -1.00585e-05 0)
(0.000153522 4.91976e-06 0)
(0.000153247 1.90387e-09 0)
(0.000152937 -4.86709e-06 0)
(0.000152581 -9.68369e-06 0)
(0.000161013 5.22327e-06 0)
(0.000160689 3.54256e-07 0)
(0.000160329 -4.46965e-06 0)
(0.000159921 -9.24502e-06 0)
(0.000168424 5.57746e-06 0)
(0.000168057 7.60561e-07 0)
(0.000167653 -4.01598e-06 0)
(0.000167199 -8.74883e-06 0)
(0.000175752 5.97398e-06 0)
(0.000175348 1.21229e-06 0)
(0.000174908 -3.51456e-06 0)
(0.000174414 -8.20331e-06 0)
(0.00018299 6.40327e-06 0)
(0.000182558 1.69969e-06 0)
(0.000182088 -2.97506e-06 0)
(0.000181563 -7.61778e-06 0)
(0.000190135 6.85521e-06 0)
(0.000189683 2.21249e-06 0)
(0.000189191 -2.40767e-06 0)
(0.000188642 -7.00209e-06 0)
(0.000197183 7.3197e-06 0)
(0.000196719 2.74043e-06 0)
(0.000196213 -1.82256e-06 0)
(0.000195649 -6.36608e-06 0)
(0.000204129 7.78705e-06 0)
(0.000203662 3.2737e-06 0)
(0.00020315 -1.22945e-06 0)
(0.00020258 -5.71916e-06 0)
(0.000210972 8.24824e-06 0)
(0.000210508 3.80322e-06 0)
(0.000209998 -6.37313e-07 0)
(0.000209428 -5.07009e-06 0)
(0.000217707 8.69513e-06 0)
(0.000217254 4.3208e-06 0)
(0.000216753 -5.42999e-08 0)
(0.000216191 -4.42681e-06 0)
(0.000224332 9.12046e-06 0)
(0.000223897 4.81912e-06 0)
(0.00022341 5.12337e-07 0)
(0.000222861 -3.79645e-06 0)
(0.000230844 9.51787e-06 0)
(0.000230431 5.29178e-06 0)
(0.000229965 1.05622e-06 0)
(0.000229435 -3.18528e-06 0)
(0.00023724 9.88196e-06 0)
(0.000236855 5.7333e-06 0)
(0.000236413 1.57185e-06 0)
(0.000235907 -2.59876e-06 0)
(0.000243519 1.02083e-05 0)
(0.000243164 6.13911e-06 0)
(0.000242751 2.05462e-06 0)
(0.000242272 -2.04147e-06 0)
(0.000249677 1.04935e-05 0)
(0.000249356 6.5057e-06 0)
(0.000248973 2.50093e-06 0)
(0.000248524 -1.51704e-06 0)
(0.000255713 1.07353e-05 0)
(0.000255427 6.83069e-06 0)
(0.000255076 2.90829e-06 0)
(0.000254658 -1.02804e-06 0)
(0.000261624 1.09329e-05 0)
(0.000261374 7.113e-06 0)
(0.000261055 3.27546e-06 0)
(0.000260668 -5.758e-07 0)
(0.000267411 1.10869e-05 0)
(0.000267195 7.353e-06 0)
(0.000266906 3.60265e-06 0)
(0.00026655 -1.60284e-07 0)
(0.000273071 1.11992e-05 0)
(0.000272887 7.55259e-06 0)
(0.000272627 3.89155e-06 0)
(0.000272298 2.2002e-07 0)
(0.000278603 1.12736e-05 0)
(0.000278447 7.71522e-06 0)
(0.000278213 4.14545e-06 0)
(0.000277908 5.68158e-07 0)
(0.000284007 1.13151e-05 0)
(0.000283875 7.8459e-06 0)
(0.00028366 4.36915e-06 0)
(0.000283375 8.88682e-07 0)
(0.000289281 1.13301e-05 0)
(0.000289166 7.95101e-06 0)
(0.000288967 4.5689e-06 0)
(0.000288695 1.18754e-06 0)
(0.000294424 1.13262e-05 0)
(0.000294321 8.03812e-06 0)
(0.000294129 4.75212e-06 0)
(0.000293865 1.47191e-06 0)
(0.000299436 1.13118e-05 0)
(0.000299336 8.11572e-06 0)
(0.000299146 4.92721e-06 0)
(0.00029888 1.7499e-06 0)
(0.000304314 1.12959e-05 0)
(0.000304209 8.19294e-06 0)
(0.000304013 5.10321e-06 0)
(0.000303739 2.03032e-06 0)
(0.000309056 1.12877e-05 0)
(0.000308939 8.27916e-06 0)
(0.000308729 5.28951e-06 0)
(0.000308439 2.32232e-06 0)
(0.00031366 1.12965e-05 0)
(0.000313524 8.38377e-06 0)
(0.000313291 5.49547e-06 0)
(0.000312978 2.63511e-06 0)
(0.000318124 1.13311e-05 0)
(0.00031796 8.51582e-06 0)
(0.000317699 5.73018e-06 0)
(0.000317355 2.97762e-06 0)
(0.000322445 1.13998e-05 0)
(0.000322246 8.68375e-06 0)
(0.000321949 6.00211e-06 0)
(0.000321567 3.35819e-06 0)
(0.000326618 1.15099e-05 0)
(0.000326379 8.89513e-06 0)
(0.000326041 6.31889e-06 0)
(0.000325614 3.7844e-06 0)
(0.000330641 1.16678e-05 0)
(0.000330356 9.15649e-06 0)
(0.000329971 6.6871e-06 0)
(0.000329496 4.26274e-06 0)
(0.00033451 1.18788e-05 0)
(0.000334175 9.47314e-06 0)
(0.000333739 7.11207e-06 0)
(0.00033321 4.79855e-06 0)
(0.00033822 1.21466e-05 0)
(0.000337832 9.84904e-06 0)
(0.000337343 7.59783e-06 0)
(0.000336757 5.39581e-06 0)
(0.000341768 1.2474e-05 0)
(0.000341324 1.02868e-05 0)
(0.00034078 8.147e-06 0)
(0.000340136 6.05717e-06 0)
(0.00034515 1.28621e-05 0)
(0.00034465 1.07878e-05 0)
(0.000344049 8.76086e-06 0)
(0.000343346 6.78393e-06 0)
(0.000348361 1.33111e-05 0)
(0.000347805 1.13519e-05 0)
(0.000347148 9.43942e-06 0)
(0.000346387 7.5761e-06 0)
(0.000351398 1.38198e-05 0)
(0.000350787 1.1978e-05 0)
(0.000350075 1.01815e-05 0)
(0.000349257 8.43253e-06 0)
(0.000354257 1.4386e-05 0)
(0.000353594 1.26638e-05 0)
(0.000352829 1.09848e-05 0)
(0.000351956 9.351e-06 0)
(0.000356934 1.50066e-05 0)
(0.000356222 1.34062e-05 0)
(0.000355407 1.18461e-05 0)
(0.000354483 1.03283e-05 0)
(0.000359426 1.56776e-05 0)
(0.000358669 1.42009e-05 0)
(0.000357808 1.27612e-05 0)
(0.000356837 1.13604e-05 0)
(0.000361731 1.63941e-05 0)
(0.000360932 1.50431e-05 0)
(0.000360031 1.37252e-05 0)
(0.000359017 1.24422e-05 0)
(0.000363844 1.71503e-05 0)
(0.00036301 1.59268e-05 0)
(0.000362072 1.47321e-05 0)
(0.000361021 1.35682e-05 0)
(0.000365764 1.79402e-05 0)
(0.0003649 1.68457e-05 0)
(0.000363931 1.57757e-05 0)
(0.000362848 1.4732e-05 0)
(0.000367488 1.8757e-05 0)
(0.0003666 1.7793e-05 0)
(0.000365606 1.68493e-05 0)
(0.000364497 1.59271e-05 0)
(0.000369015 1.95943e-05 0)
(0.000368108 1.87621e-05 0)
(0.000367094 1.79461e-05 0)
(0.000365965 1.7147e-05 0)
(0.000370343 2.04455e-05 0)
(0.000369422 1.97463e-05 0)
(0.000368393 1.906e-05 0)
(0.00036725 1.83856e-05 0)
(0.00037147 2.13046e-05 0)
(0.00037054 2.07394e-05 0)
(0.000369502 2.01848e-05 0)
(0.00036835 1.9637e-05 0)
(0.000372398 2.2165e-05 0)
(0.000371461 2.1735e-05 0)
(0.000370417 2.13149e-05 0)
(0.000369263 2.08961e-05 0)
(0.000373125 2.3023e-05 0)
(0.00037218 2.2728e-05 0)
(0.000371134 2.24434e-05 0)
(0.000369986 2.21549e-05 0)
(0.000373658 2.38778e-05 0)
(0.000372702 2.37156e-05 0)
(0.000371657 2.35625e-05 0)
(0.000370522 2.34038e-05 0)
(0.000373986 2.47742e-05 0)
(0.000373017 2.47105e-05 0)
(0.000371972 2.46574e-05 0)
(0.000370853 2.45958e-05 0)
)
;

boundaryField
{
    plateFix
    {
        type            calculated;
        value           uniform (0 0 0);
    }
    plate
    {
        type            calculated;
        value           nonuniform List<vector> 
168
(
(6.4454e-06 3.5139e-06 -3.50839e-23)
(6.62106e-06 -3.61337e-06 -5.37767e-23)
(6.24479e-06 5.64238e-06 2.25793e-23)
(6.46683e-06 -5.80651e-06 4.57846e-23)
(6.48417e-06 7.26879e-06 3.84863e-25)
(6.76969e-06 -7.50275e-06 -4.39316e-23)
(7.22689e-06 8.37933e-06 9.38415e-23)
(7.58818e-06 -8.69116e-06 2.42683e-23)
(8.4429e-06 9.13753e-06 -1.18552e-22)
(8.88901e-06 -9.5413e-06 2.17589e-23)
(1.00407e-05 9.61907e-06 2.4101e-23)
(1.0576e-05 -1.01325e-05 1.32758e-23)
(1.19706e-05 9.90345e-06 -4.90531e-23)
(1.25962e-05 -1.05475e-05 -5.36505e-23)
(1.41937e-05 1.00418e-05 4.05413e-23)
(1.49081e-05 -1.08397e-05 3.15698e-23)
(1.66897e-05 1.00753e-05 -4.29773e-23)
(1.74897e-05 -1.10525e-05 -1.58427e-23)
(1.94477e-05 1.00332e-05 7.70387e-23)
(2.03282e-05 -1.12166e-05 3.72666e-23)
(2.24649e-05 9.9372e-06 -3.16038e-24)
(2.34195e-05 -1.13551e-05 -2.35735e-24)
(2.57439e-05 9.8026e-06 -2.18989e-23)
(2.67642e-05 -1.14843e-05 -3.6709e-23)
(2.92918e-05 9.64016e-06 1.53211e-23)
(3.03675e-05 -1.16153e-05 1.71558e-23)
(3.31191e-05 9.45702e-06 -1.66139e-23)
(3.4238e-05 -1.17549e-05 -2.59592e-23)
(3.72396e-05 9.25785e-06 3.48874e-24)
(3.83872e-05 -1.19066e-05 2.232e-23)
(4.16694e-05 9.04572e-06 1.40275e-24)
(4.28293e-05 -1.20708e-05 2.05052e-24)
(4.64273e-05 8.82298e-06 -1.12529e-23)
(4.7581e-05 -1.22461e-05 -3.55134e-24)
(5.15337e-05 8.59191e-06 -6.23189e-24)
(5.26609e-05 -1.2429e-05 1.63627e-23)
(5.70107e-05 8.3552e-06 1.48624e-23)
(5.80899e-05 -1.2615e-05 -1.67367e-23)
(6.28816e-05 8.11624e-06 -1.85024e-23)
(6.38905e-05 -1.27985e-05 1.16691e-24)
(6.91707e-05 7.87915e-06 1.0108e-23)
(7.00868e-05 -1.29731e-05 -5.34275e-24)
(7.59032e-05 7.64882e-06 1.36224e-23)
(7.67038e-05 -1.31316e-05 3.67307e-24)
(8.33802e-05 7.42262e-06 -5.96243e-24)
(8.40371e-05 -1.32715e-05 -1.9435e-23)
(9.13557e-05 7.21968e-06 -2.04679e-23)
(9.18432e-05 -1.33735e-05 3.09111e-23)
(9.9299e-05 7.0581e-06 3.48628e-23)
(9.96025e-05 -1.34253e-05 -2.94011e-23)
(0.000107207 6.9411e-06 -1.75063e-23)
(0.000107312 -1.34236e-05 2.16413e-23)
(0.000115076 6.87279e-06 4.81752e-24)
(0.000114967 -1.33645e-05 5.34492e-25)
(0.000122902 6.85771e-06 -3.92319e-24)
(0.000122567 -1.32433e-05 -2.76811e-24)
(0.000130681 6.90003e-06 8.54321e-24)
(0.000130108 -1.3056e-05 6.28643e-24)
(0.000138404 7.00261e-06 -7.54581e-24)
(0.000137592 -1.27997e-05 -3.4483e-24)
(0.000146067 7.16629e-06 -5.10114e-24)
(0.000145017 -1.24735e-05 -8.40168e-24)
(0.000153661 7.38944e-06 4.37159e-24)
(0.000152384 -1.20792e-05 8.48758e-24)
(0.00016118 7.66791e-06 -1.13274e-24)
(0.000159693 -1.16206e-05 2.97965e-24)
(0.000168616 7.99525e-06 -1.86021e-24)
(0.000166945 -1.1104e-05 -4.77443e-24)
(0.000175963 8.36324e-06 3.27224e-24)
(0.000174138 -1.05374e-05 3.08528e-24)
(0.000183216 8.76247e-06 5.83893e-25)
(0.000181269 -9.92986e-06 -9.81432e-24)
(0.000190372 9.18297e-06 3.05848e-24)
(0.000188337 -9.29108e-06 1.54975e-24)
(0.000197424 9.61474e-06 9.15962e-24)
(0.000195337 -8.63065e-06 6.10966e-24)
(0.000204372 1.00482e-05 -6.30388e-24)
(0.000202265 -7.95782e-06 -2.48581e-24)
(0.000211211 1.04743e-05 -1.94746e-24)
(0.000209115 -7.28119e-06 6.94161e-25)
(0.000217939 1.0885e-05 -7.18442e-24)
(0.000215883 -6.60861e-06 -7.38694e-24)
(0.000224553 1.12731e-05 9.43832e-24)
(0.000222563 -5.94713e-06 -1.63589e-24)
(0.000231051 1.16323e-05 8.81918e-24)
(0.000229148 -5.30296e-06 4.73804e-24)
(0.000237431 1.19571e-05 -8.66539e-25)
(0.000235635 -4.68154e-06 1.01663e-24)
(0.000243691 1.22432e-05 -1.07712e-23)
(0.000242015 -4.08743e-06 -6.80559e-24)
(0.000249829 1.24873e-05 -3.79599e-24)
(0.000248285 -3.52426e-06 -5.74094e-24)
(0.000255844 1.26874e-05 2.14096e-23)
(0.000254437 -2.99463e-06 -2.36909e-24)
(0.000261734 1.28426e-05 -1.96787e-23)
(0.000260465 -2.4999e-06 -2.77335e-25)
(0.0002675 1.29536e-05 4.55052e-24)
(0.000266365 -2.04013e-06 -6.90326e-24)
(0.00027314 1.30226e-05 -1.23583e-23)
(0.00027213 -1.61389e-06 -1.15591e-23)
(0.000278655 1.30531e-05 5.19391e-24)
(0.000277754 -1.21826e-06 2.49953e-23)
(0.000284043 1.30505e-05 -1.13729e-23)
(0.000283232 -8.48822e-07 -1.36305e-23)
(0.000289306 1.30211e-05 7.3732e-25)
(0.000288561 -4.99793e-07 -5.72771e-24)
(0.000294442 1.29723e-05 9.3008e-24)
(0.000293735 -1.64168e-07 4.64906e-24)
(0.00029945 1.29127e-05 -5.46263e-24)
(0.00029875 1.66022e-07 4.74165e-24)
(0.000304328 1.2851e-05 -1.99784e-23)
(0.000303605 4.99424e-07 -8.26229e-24)
(0.000309076 1.27965e-05 1.20108e-23)
(0.000308296 8.45058e-07 1.64269e-23)
(0.000313691 1.27582e-05 6.12015e-24)
(0.000312822 1.212e-06 8.92929e-24)
(0.000318169 1.27448e-05 9.26947e-24)
(0.00031718 1.60908e-06 -9.18649e-25)
(0.000322508 1.27644e-05 4.6412e-24)
(0.000321371 2.04459e-06 -2.85316e-25)
(0.000326704 1.28245e-05 -2.13839e-25)
(0.000325394 2.526e-06 -3.04703e-23)
(0.000330752 1.29311e-05 -1.06137e-23)
(0.000329248 3.0598e-06 -1.83942e-23)
(0.000334648 1.30895e-05 -1.14334e-23)
(0.000332933 3.65128e-06 -7.76787e-24)
(0.000338387 1.33036e-05 1.21146e-23)
(0.000336448 4.30442e-06 2.91043e-23)
(0.000341965 1.35758e-05 2.79832e-23)
(0.000339795 5.02187e-06 -3.67524e-23)
(0.000345377 1.39075e-05 -6.83231e-24)
(0.000342973 5.80494e-06 -2.64533e-24)
(0.000348619 1.42987e-05 5.68363e-24)
(0.000345982 6.65368e-06 1.7128e-23)
(0.000351685 1.47484e-05 3.96187e-24)
(0.000348821 7.56694e-06 8.34493e-25)
(0.000354572 1.52544e-05 -6.96001e-24)
(0.00035149 8.54254e-06 6.95217e-24)
(0.000357276 1.58137e-05 1.27065e-23)
(0.00035399 9.57731e-06 2.98896e-23)
(0.000359792 1.64222e-05 2.36777e-23)
(0.000356318 1.06672e-05 -7.16852e-24)
(0.000362118 1.70752e-05 2.84404e-24)
(0.000358475 1.18073e-05 -1.54526e-23)
(0.00036425 1.77671e-05 -5.078e-24)
(0.00036046 1.2992e-05 1.45222e-23)
(0.000366185 1.84917e-05 -7.84857e-24)
(0.000362271 1.42152e-05 -1.26451e-23)
(0.000367922 1.92426e-05 -1.58625e-23)
(0.000363906 1.54703e-05 1.96596e-23)
(0.000369457 2.00132e-05 7.03818e-24)
(0.000365364 1.67509e-05 5.17468e-24)
(0.00037079 2.07973e-05 2.38046e-23)
(0.000366642 1.8051e-05 1.33094e-23)
(0.00037192 2.1589e-05 -6.05211e-24)
(0.000367738 1.93647e-05 -1.70185e-23)
(0.000372848 2.23817e-05 -6.69481e-24)
(0.000368651 2.06873e-05 -1.38845e-23)
(0.000373573 2.31729e-05 -1.73081e-23)
(0.000369377 2.20096e-05 9.40179e-24)
(0.000374116 2.39595e-05 1.99982e-23)
(0.000369931 2.33248e-05 6.96303e-24)
(0.000374484 2.47978e-05 -1.35772e-23)
(0.000374083 2.5278e-05 1.38547e-23)
(0.000373115 2.52155e-05 -2.14485e-23)
(0.00037207 2.51963e-05 2.25996e-25)
(0.00037095 2.51383e-05 1.86533e-23)
(0.000370305 2.45745e-05 1.5371e-23)
)
;
    }
    frontAndBackPlanes
    {
        type            empty;
    }
}


// ************************************************************************* //
