/*--------------------------------*- C++ -*----------------------------------*\
| =========                 |                                                 |
| \\      /  F ield         | OpenFOAM Extend Project: Open source CFD        |
|  \\    /   O peration     | Version:  1.6-ext                               |
|   \\  /    A nd           | Web:      www.extend-project.de                 |
|    \\/     M anipulation  |                                                 |
\*---------------------------------------------------------------------------*/
FoamFile
{
    version     2.0;
    format      ascii;
    class       surfaceScalarField;
    location    "0.45";
    object      meshPhi;
}
// * * * * * * * * * * * * * * * * * * * * * * * * * * * * * * * * * * * * * //

dimensions      [0 3 -1 0 0 0 0];

internalField   nonuniform List<scalar> 
570
(
2.42381e-10
6.47815e-09
-3.82246e-12
1.81531e-09
-2.44035e-10
1.78538e-09
6.35697e-09
7.32445e-10
7.70278e-09
-1.09851e-11
4.02496e-09
-7.3695e-10
3.95902e-09
7.50133e-09
1.18945e-09
9.55214e-09
-1.62144e-11
6.69688e-09
-1.19513e-09
6.58809e-09
9.24178e-09
1.60508e-09
1.20036e-08
-1.87018e-11
9.75783e-09
-1.60823e-09
9.60052e-09
1.15603e-08
1.98206e-09
1.50047e-08
-1.74028e-11
1.32038e-08
-1.9763e-09
1.29922e-08
1.44064e-08
2.32713e-09
1.84845e-08
-1.08138e-11
1.70086e-08
-2.30254e-09
1.67368e-08
1.77107e-08
2.6487e-09
2.2405e-08
3.18232e-12
2.11657e-08
-2.59073e-09
2.08277e-08
2.14351e-08
2.95678e-09
2.67413e-08
2.74805e-11
2.56693e-08
-2.84477e-09
2.52585e-08
2.55544e-08
3.26274e-09
3.14848e-08
6.59815e-11
3.0523e-08
-3.06798e-09
3.00321e-08
3.00584e-08
3.57938e-09
3.66365e-08
1.23877e-10
3.57351e-08
-3.26258e-09
3.51562e-08
3.49459e-08
3.92091e-09
4.22055e-08
2.08025e-10
4.13206e-08
-3.42895e-09
4.06448e-08
4.02237e-08
4.30316e-09
4.82069e-08
3.27425e-10
4.72994e-08
-3.56479e-09
4.6517e-08
4.59042e-08
4.74391e-09
5.46614e-08
4.93842e-10
5.36966e-08
-3.66427e-09
5.27966e-08
5.20047e-08
5.2635e-09
6.15939e-08
7.22594e-10
6.05409e-08
-3.71699e-09
5.95113e-08
5.85467e-08
5.88578e-09
6.90332e-08
1.03357e-09
6.78648e-08
-3.70697e-09
6.66922e-08
6.55553e-08
6.63946e-09
7.70118e-08
1.45251e-09
7.57032e-08
-3.61136e-09
7.4373e-08
7.30589e-08
7.55994e-09
8.55653e-08
2.01266e-09
8.40934e-08
-3.39897e-09
8.25895e-08
8.10886e-08
8.69151e-09
9.47318e-08
2.75683e-09
9.30746e-08
-3.02844e-09
9.13792e-08
8.96781e-08
1.00902e-08
1.04552e-07
3.74005e-09
1.02687e-07
-2.44575e-09
1.00781e-07
9.88631e-08
1.18275e-08
1.15068e-07
5.03283e-09
1.12974e-07
-1.58117e-09
1.10836e-07
1.08681e-07
1.3994e-08
1.26325e-07
6.72532e-09
1.23977e-07
-3.4518e-10
1.21585e-07
1.19172e-07
1.67052e-08
1.38368e-07
8.93251e-09
1.35741e-07
1.37668e-09
1.33071e-07
1.30375e-07
2.16895e-08
1.52187e-07
1.27718e-08
1.49234e-07
4.10829e-09
1.46238e-07
1.43214e-07
2.46273e-08
1.65948e-07
1.57492e-08
1.62664e-07
7.12851e-09
1.59337e-07
1.55979e-07
2.79035e-08
1.79641e-07
1.90701e-08
1.76021e-07
1.04963e-08
1.72361e-07
1.68666e-07
3.15211e-08
1.93253e-07
2.27385e-08
1.89297e-07
1.42158e-08
1.85303e-07
1.81271e-07
3.54814e-08
2.06775e-07
2.6756e-08
2.02484e-07
1.82893e-08
1.98157e-07
1.93789e-07
3.97835e-08
2.20194e-07
3.11224e-08
2.15571e-07
2.27171e-08
2.10915e-07
2.06214e-07
4.44239e-08
2.33496e-07
3.58349e-08
2.28548e-07
2.74966e-08
2.23569e-07
2.18541e-07
4.93965e-08
2.46669e-07
4.08877e-08
2.41404e-07
3.26228e-08
2.36112e-07
2.30765e-07
5.46924e-08
2.59699e-07
4.62724e-08
2.5413e-07
3.80876e-08
2.48534e-07
2.42879e-07
6.02996e-08
2.72572e-07
5.19775e-08
2.66713e-07
4.38799e-08
2.60828e-07
2.54878e-07
6.62035e-08
2.85274e-07
5.79885e-08
2.79143e-07
4.99854e-08
2.72985e-07
2.66756e-07
7.23866e-08
2.97793e-07
6.4288e-08
2.91408e-07
5.63871e-08
2.84996e-07
2.78505e-07
7.88292e-08
3.10114e-07
7.08561e-08
3.03499e-07
6.30649e-08
2.96853e-07
2.9012e-07
8.55094e-08
3.22227e-07
7.76705e-08
3.15405e-07
6.99964e-08
3.08547e-07
3.01594e-07
9.24036e-08
3.34121e-07
8.47069e-08
3.27116e-07
7.71571e-08
3.2007e-07
3.1292e-07
9.94867e-08
3.45786e-07
9.19396e-08
3.38625e-07
8.45204e-08
3.31415e-07
3.24092e-07
1.06733e-07
3.57214e-07
9.93416e-08
3.49925e-07
9.20588e-08
3.42577e-07
3.35105e-07
1.14115e-07
3.68401e-07
1.06885e-07
3.61009e-07
9.97432e-08
3.53548e-07
3.45954e-07
1.21607e-07
3.7934e-07
1.14541e-07
3.71874e-07
1.07544e-07
3.64325e-07
3.56635e-07
1.29182e-07
3.90031e-07
1.22282e-07
3.82515e-07
1.15433e-07
3.74905e-07
3.67143e-07
1.36812e-07
4.00471e-07
1.3008e-07
3.92931e-07
1.2338e-07
3.85284e-07
3.77475e-07
1.44473e-07
4.10662e-07
1.37908e-07
4.03121e-07
1.31356e-07
3.9546e-07
3.87629e-07
1.5214e-07
4.20606e-07
1.4574e-07
4.13087e-07
1.39336e-07
4.05434e-07
3.97603e-07
1.5979e-07
4.30308e-07
1.53552e-07
4.22829e-07
1.47295e-07
4.15205e-07
4.07395e-07
1.67403e-07
4.39771e-07
1.61322e-07
4.32351e-07
1.55209e-07
4.24772e-07
4.17003e-07
1.74958e-07
4.49e-07
1.69031e-07
4.41654e-07
1.63058e-07
4.34137e-07
4.26425e-07
1.8244e-07
4.58003e-07
1.76661e-07
4.50743e-07
1.70827e-07
4.433e-07
4.3566e-07
1.89835e-07
4.66784e-07
1.84199e-07
4.59619e-07
1.785e-07
4.52262e-07
4.44705e-07
1.97131e-07
4.75348e-07
1.91634e-07
4.68285e-07
1.86067e-07
4.61022e-07
4.53557e-07
2.0432e-07
4.837e-07
1.98958e-07
4.76744e-07
1.93522e-07
4.69579e-07
4.62213e-07
2.11397e-07
4.91844e-07
2.06166e-07
4.84996e-07
2.00859e-07
4.77933e-07
4.70668e-07
2.18358e-07
4.99783e-07
2.13257e-07
4.93041e-07
2.08079e-07
4.8608e-07
4.78919e-07
2.25204e-07
5.07516e-07
2.20231e-07
5.00878e-07
2.15183e-07
4.94018e-07
4.86958e-07
2.31936e-07
5.15044e-07
2.27092e-07
5.08506e-07
2.22174e-07
5.01742e-07
4.94782e-07
2.38558e-07
5.22366e-07
2.33844e-07
5.1592e-07
2.2906e-07
5.09248e-07
5.02382e-07
2.45077e-07
5.29478e-07
2.40496e-07
5.23118e-07
2.35848e-07
5.16531e-07
5.09753e-07
2.51501e-07
5.36377e-07
2.47054e-07
5.30093e-07
2.42548e-07
5.23584e-07
5.16887e-07
2.57837e-07
5.43058e-07
2.5353e-07
5.36841e-07
2.49169e-07
5.30402e-07
5.23776e-07
2.64096e-07
5.49514e-07
2.59933e-07
5.43356e-07
2.55722e-07
5.36977e-07
5.30415e-07
2.70288e-07
5.5574e-07
2.66273e-07
5.4963e-07
2.62218e-07
5.43303e-07
5.36795e-07
2.76422e-07
5.61727e-07
2.72562e-07
5.55657e-07
2.68667e-07
5.49374e-07
5.4291e-07
2.82509e-07
5.67469e-07
2.78808e-07
5.6143e-07
2.7508e-07
5.55181e-07
5.48754e-07
2.88558e-07
5.72958e-07
2.85023e-07
5.66942e-07
2.81467e-07
5.6072e-07
5.54321e-07
2.94578e-07
5.78186e-07
2.91215e-07
5.72186e-07
2.87835e-07
5.65983e-07
5.59605e-07
3.00579e-07
5.83145e-07
2.97392e-07
5.77155e-07
2.94194e-07
5.70966e-07
5.646e-07
3.06566e-07
5.8783e-07
3.03561e-07
5.81843e-07
3.0055e-07
5.75661e-07
5.69303e-07
3.12546e-07
5.92231e-07
3.09729e-07
5.86244e-07
3.06909e-07
5.80065e-07
5.73709e-07
3.18525e-07
5.96343e-07
3.159e-07
5.90352e-07
3.13275e-07
5.84172e-07
5.77814e-07
3.24506e-07
6.00159e-07
3.22079e-07
5.94162e-07
3.19653e-07
5.87978e-07
5.81615e-07
3.30494e-07
6.03674e-07
3.28268e-07
5.97669e-07
3.26044e-07
5.91479e-07
5.85108e-07
3.3649e-07
6.06882e-07
3.34468e-07
6.00869e-07
3.32451e-07
5.94671e-07
5.88292e-07
3.42495e-07
6.09779e-07
3.40682e-07
6.03757e-07
3.38873e-07
5.97552e-07
5.91164e-07
3.48509e-07
6.1236e-07
3.46907e-07
6.06331e-07
3.4531e-07
6.00119e-07
5.93722e-07
3.54532e-07
6.14621e-07
3.53144e-07
6.08587e-07
3.5176e-07
6.02369e-07
5.95965e-07
3.60561e-07
6.16561e-07
3.5939e-07
6.10522e-07
3.58221e-07
6.043e-07
5.9789e-07
3.66595e-07
6.18176e-07
3.65642e-07
6.12136e-07
3.64691e-07
6.05911e-07
5.99497e-07
3.72631e-07
6.19465e-07
3.71898e-07
6.13424e-07
3.71166e-07
6.07197e-07
6.00782e-07
3.78665e-07
6.20435e-07
3.78153e-07
6.14389e-07
3.77642e-07
6.08162e-07
6.01753e-07
3.84703e-07
6.21077e-07
3.84406e-07
6.15021e-07
3.84109e-07
6.08793e-07
6.02396e-07
3.90754e-07
3.90653e-07
3.90552e-07
)
;

boundaryField
{
    plateFix
    {
        type            calculated;
        value           nonuniform List<scalar> 4(-4.97217e-09 1.14849e-14 -1.42908e-13 -4.92001e-09);
    }
    plate
    {
        type            calculated;
        value           nonuniform List<scalar> 
168
(
-1.17586e-09
-1.13917e-09
-2.0461e-09
-1.99643e-09
-2.8486e-09
-2.78528e-09
-3.5611e-09
-3.48216e-09
-4.19812e-09
-4.09838e-09
-4.78336e-09
-4.65334e-09
-5.33632e-09
-5.16138e-09
-5.87594e-09
-5.63482e-09
-6.41947e-09
-6.08253e-09
-6.98391e-09
-6.51063e-09
-7.58636e-09
-6.92214e-09
-8.24485e-09
-7.31676e-09
-8.97897e-09
-7.69027e-09
-9.81072e-09
-8.03375e-09
-1.07656e-08
-8.33264e-09
-1.18738e-08
-8.56553e-09
-1.31724e-08
-8.70268e-09
-1.47072e-08
-8.7041e-09
-1.65358e-08
-8.51717e-09
-1.87309e-08
-8.07344e-09
-2.13843e-08
-7.28456e-09
-2.46122e-08
-6.03699e-09
-3.07656e-08
-4.38974e-09
-3.36669e-08
-1.32521e-09
-3.68999e-08
2.09028e-09
-4.04673e-08
5.86106e-09
-4.43697e-08
9.98976e-09
-4.86055e-08
1.44769e-08
-5.31706e-08
1.93205e-08
-5.80585e-08
2.45159e-08
-6.32596e-08
3.00555e-08
-6.87616e-08
3.59285e-08
-7.45498e-08
4.21211e-08
-8.06068e-08
4.86164e-08
-8.69131e-08
5.53946e-08
-9.34475e-08
6.24331e-08
-1.00187e-07
6.97071e-08
-1.07108e-07
7.71897e-08
-1.14185e-07
8.48526e-08
-1.21393e-07
9.26661e-08
-1.28707e-07
1.006e-07
-1.36102e-07
1.08624e-07
-1.43553e-07
1.16707e-07
-1.51036e-07
1.24822e-07
-1.58528e-07
1.32939e-07
-1.66007e-07
1.41033e-07
-1.73453e-07
1.49082e-07
-1.80848e-07
1.57064e-07
-1.88176e-07
1.64964e-07
-1.95423e-07
1.72766e-07
-2.02577e-07
1.80461e-07
-2.09629e-07
1.88042e-07
-2.16574e-07
1.95507e-07
-2.23406e-07
2.02854e-07
-2.30124e-07
2.10087e-07
-2.3673e-07
2.17211e-07
-2.43226e-07
2.24232e-07
-2.49617e-07
2.31159e-07
-2.55909e-07
2.38002e-07
-2.6211e-07
2.44772e-07
-2.6823e-07
2.5148e-07
-2.74277e-07
2.58135e-07
-2.80261e-07
2.64749e-07
-2.86192e-07
2.71333e-07
-2.9208e-07
2.77895e-07
-2.97932e-07
2.84444e-07
-3.03759e-07
2.90988e-07
-3.09566e-07
2.97533e-07
-3.15361e-07
3.04086e-07
-3.21149e-07
3.10649e-07
-3.26935e-07
3.17228e-07
-3.32723e-07
3.23823e-07
-3.38514e-07
3.30436e-07
-3.44311e-07
3.37067e-07
-3.50113e-07
3.43715e-07
-3.55921e-07
3.50378e-07
-3.61734e-07
3.57054e-07
-3.67548e-07
3.63741e-07
-3.73364e-07
3.70434e-07
-3.79178e-07
3.7713e-07
-3.85001e-07
3.83813e-07
-3.90881e-07
6.2143e-07
6.15366e-07
6.09138e-07
6.0275e-07
3.90426e-07
)
;
    }
    frontAndBackPlanes
    {
        type            empty;
    }
}


// ************************************************************************* //
