/*--------------------------------*- C++ -*----------------------------------*\
| =========                 |                                                 |
| \\      /  F ield         | OpenFOAM Extend Project: Open source CFD        |
|  \\    /   O peration     | Version:  1.6-ext                               |
|   \\  /    A nd           | Web:      www.extend-project.de                 |
|    \\/     M anipulation  |                                                 |
\*---------------------------------------------------------------------------*/
FoamFile
{
    version     2.0;
    format      ascii;
    class       volScalarField;
    location    "0.45";
    object      sigmaEq;
}
// * * * * * * * * * * * * * * * * * * * * * * * * * * * * * * * * * * * * * //

dimensions      [1 -1 -2 0 0 0 0];

internalField   nonuniform List<scalar> 
328
(
0.508864
0.0884351
0.650325
1.84696
0.510514
0.236034
0.894333
1.8698
0.500627
0.366777
1.09265
1.92402
0.476387
0.473018
1.20702
1.93362
0.443554
0.554885
1.27618
1.92667
0.404368
0.616912
1.30749
1.89761
0.361795
0.662114
1.31575
1.85576
0.318994
0.694321
1.30721
1.80347
0.280268
0.71698
1.28795
1.74369
0.251808
0.733338
1.26132
1.67746
0.241254
0.746108
1.22987
1.60545
0.254312
0.757448
1.19506
1.5278
0.290673
0.76891
1.1578
1.44458
0.34545
0.781504
1.11854
1.3558
0.413462
0.795777
1.07744
1.26148
0.491075
0.811932
1.03447
1.1617
0.576036
0.829938
0.989515
1.05661
0.666947
0.84963
0.942449
0.946395
0.762839
0.870774
0.89315
0.831366
0.862997
0.893116
0.841538
0.711955
0.966634
0.91637
0.78762
0.588937
1.07323
0.940204
0.731313
0.463264
1.1854
0.964769
0.669884
0.333163
1.29825
0.990541
0.608234
0.211728
1.4039
1.01409
0.548913
0.135978
1.50192
1.03509
0.491552
0.16306
1.59205
1.05325
0.436
0.253395
1.67384
1.06821
0.382118
0.356136
1.74686
1.07955
0.329822
0.458692
1.8106
1.08684
0.279125
0.557938
1.86456
1.08962
0.230305
0.652974
1.90822
1.08741
0.184257
0.743594
1.94107
1.07976
0.143397
0.829854
1.96268
1.06625
0.113732
0.911908
1.97267
1.04653
0.106059
0.989934
1.97075
1.02031
0.125622
1.06409
1.9568
0.987437
0.163917
1.13449
1.93083
0.947894
0.211795
1.20115
1.89303
0.901811
0.26465
1.26404
1.84378
0.849491
0.320297
1.32302
1.78369
0.791416
0.377477
1.37785
1.71353
0.728253
0.435269
1.42823
1.63429
0.660854
0.492855
1.47377
1.54709
0.590252
0.549437
1.51403
1.45323
0.517671
0.604214
1.54856
1.3541
0.444551
0.656384
1.57688
1.25116
0.372631
0.705162
1.59855
1.14591
0.304154
0.749802
1.61319
1.03983
0.242341
0.789626
1.62047
0.934337
0.192319
0.824048
1.62019
0.83079
0.161834
0.852598
1.61224
0.730434
0.157519
0.874934
1.59667
0.634401
0.176188
0.890856
1.57362
0.543719
0.207226
0.900305
1.5434
0.45934
0.242056
0.903359
1.50642
0.382205
0.276046
0.900224
1.4632
0.313356
0.306933
0.891214
1.41436
0.254122
0.333649
0.876739
1.36056
0.206353
0.355743
0.857278
1.30254
0.172441
0.373108
0.833359
1.24104
0.154377
0.385834
0.805544
1.17683
0.151496
0.394136
0.774402
1.11065
0.159598
0.398301
0.7405
1.04322
0.173384
0.398654
0.704386
0.975221
0.188835
0.395539
0.66658
0.90728
0.203562
0.389297
0.627566
0.839976
0.216292
0.380265
0.587785
0.773826
0.226399
0.368759
0.547637
0.709289
0.233609
0.355072
0.507471
0.646761
0.237842
0.339474
0.467592
0.586578
0.239126
0.322203
0.428254
0.529019
0.237551
0.303466
0.389662
0.474309
0.233251
0.283437
0.351965
0.422626
0.226385
0.262236
0.31524
0.374104
0.217179
0.239931
0.279479
0.328878
0.205896
0.21642
0.244464
0.287066
0.193129
0.191555
0.209855
0.24906
0.179422
0.16448
0.174532
0.21518
0.167005
0.135549
0.138557
0.187512
0.154741
0.103849
0.101151
0.164933
0.14795
0.0843162
0.0803555
0.153165
0.129906
0.0993767
0.100912
0.134632
)
;

boundaryField
{
    plateFix
    {
        type            calculated;
        value           nonuniform List<scalar> 4(0.503564 0.057149 0.561123 1.96578);
    }
    plate
    {
        type            calculated;
        value           nonuniform List<scalar> 
168
(
0.54401
1.88443
0.539116
1.93228
0.520569
1.9934
0.485217
1.99197
0.439254
1.97475
0.3845
1.93724
0.323396
1.88969
0.257763
1.83334
0.189723
1.77048
0.123667
1.70153
0.0778217
1.6268
0.0992783
1.54626
0.168105
1.45988
0.250844
1.36761
0.340061
1.2695
0.434003
1.1656
0.532089
1.05605
0.634038
0.941043
0.739591
0.820835
0.848492
0.695775
0.960222
0.566495
1.07452
0.433535
1.19427
0.294539
1.31406
0.159999
1.42608
0.0820442
1.52992
0.156294
1.62537
0.270842
1.71204
0.385509
1.78951
0.495768
1.8573
0.600765
1.91492
0.700403
1.96186
0.794819
1.99763
0.884236
2.02178
0.968901
2.03394
1.04905
2.03385
1.12487
2.02134
1.19651
1.99645
1.26402
1.95937
1.32737
1.91047
1.38645
1.85036
1.44106
1.7798
1.49092
1.69979
1.53566
1.61147
1.57488
1.51611
1.60815
1.41513
1.63503
1.30999
1.6551
1.20218
1.668
1.09319
1.67344
0.984449
1.67122
0.877289
1.66128
0.772942
1.64366
0.672502
1.61854
0.576931
1.58623
0.487069
1.54716
0.403676
1.50187
0.327503
1.45097
0.259454
1.39515
0.200892
1.33516
0.154215
1.27174
0.123436
1.20569
0.11248
1.13773
0.119417
1.06861
0.136347
0.999016
0.156356
0.929582
0.17575
0.860895
0.192853
0.793483
0.206957
0.727812
0.217808
0.664287
0.225367
0.603256
0.229711
0.545009
0.230976
0.489784
0.229336
0.437775
0.224994
0.389136
0.218211
0.344025
0.209269
0.30257
0.198726
0.265143
0.186988
0.231906
0.176022
0.204599
0.165274
0.182242
0.165504
0.175439
0.166204
0.103465
0.0966861
0.09959
0.109098
0.173189
)
;
    }
    frontAndBackPlanes
    {
        type            empty;
    }
}


// ************************************************************************* //
