/*--------------------------------*- C++ -*----------------------------------*\
| =========                 |                                                 |
| \\      /  F ield         | OpenFOAM Extend Project: Open source CFD        |
|  \\    /   O peration     | Version:  1.6-ext                               |
|   \\  /    A nd           | Web:      www.extend-project.de                 |
|    \\/     M anipulation  |                                                 |
\*---------------------------------------------------------------------------*/
FoamFile
{
    version     2.0;
    format      ascii;
    class       volSymmTensorField;
    location    "0.45";
    object      sigma;
}
// * * * * * * * * * * * * * * * * * * * * * * * * * * * * * * * * * * * * * //

dimensions      [1 -1 -2 0 0 0 0];

internalField   nonuniform List<symmTensor> 
328
(
(1.12942 0.0585036 -6.0088e-22 0.589469 6.15419e-20 0.686209)
(-0.108129 0.0422349 -1.94482e-24 -0.0534773 5.14167e-23 -0.0656597)
(-0.925182 0.261698 4.38447e-23 -0.408858 -5.43873e-23 -0.534655)
(-2.50616 0.547296 -1.11402e-22 -0.713599 -9.54329e-20 -1.28938)
(1.10195 0.0650234 2.52954e-21 0.560542 -1.44122e-19 0.663625)
(-0.11669 0.121968 2.23848e-22 0.00431074 4.81773e-24 -0.0460472)
(-0.923173 0.304398 6.29075e-24 -0.0972009 1.25696e-22 -0.409273)
(-2.3076 0.403728 1.42864e-21 -0.328215 -4.66825e-20 -1.05581)
(1.07144 0.0802249 -2.8981e-21 0.549144 -2.625e-20 0.646802)
(-0.14775 0.185256 -2.58735e-22 0.0572024 1.11936e-22 -0.0374153)
(-1.00822 0.326038 8.45084e-22 0.0665469 9.77779e-23 -0.377902)
(-2.23084 0.293315 -4.95099e-21 -0.104838 1.3301e-19 -0.935817)
(1.0255 0.0955325 4.39684e-22 0.543162 2.08652e-20 0.625976)
(-0.171785 0.23265 4.33432e-22 0.114219 -7.49317e-23 -0.024343)
(-1.01442 0.329657 -1.18158e-21 0.210115 -6.34402e-22 -0.323077)
(-2.12808 0.217612 4.64421e-21 0.0488373 4.2398e-20 -0.833302)
(0.969174 0.108151 4.41873e-22 0.539568 5.83319e-20 0.601959)
(-0.197997 0.264638 5.62465e-23 0.1631 6.58677e-23 -0.0153817)
(-1.02315 0.323148 3.16815e-22 0.298633 -6.76774e-22 -0.291269)
(-2.04869 0.168979 1.35176e-21 0.139325 -1.18327e-19 -0.765396)
(0.902381 0.117633 1.90551e-21 0.535653 -5.2996e-20 0.573643)
(-0.220441 0.285627 -1.87709e-22 0.205127 -8.19867e-23 -0.00763489)
(-1.00858 0.313205 -1.61338e-21 0.363164 9.41761e-22 -0.259717)
(-1.96858 0.138556 -1.81939e-21 0.195518 4.01075e-20 -0.710903)
(0.826776 0.123904 -3.65232e-21 0.530146 9.60818e-20 0.541177)
(-0.241479 0.297657 3.44307e-22 0.238235 3.54113e-23 -0.00286968)
(-0.988569 0.30302 8.70455e-22 0.40307 -6.43108e-22 -0.235811)
(-1.89209 0.120366 1.81223e-21 0.228687 4.06956e-21 -0.667058)
(0.743581 0.127395 3.08055e-21 0.52259 -3.14094e-20 0.504865)
(-0.260638 0.303246 -2.19959e-21 0.263708 -8.95873e-23 -0.000385839)
(-0.960662 0.294259 -6.13648e-22 0.428045 -3.02073e-22 -0.214697)
(-1.81381 0.109864 -3.19148e-21 0.249309 -3.99617e-20 -0.627501)
(0.65392 0.128648 -5.17717e-21 0.512946 5.81188e-20 0.465137)
(-0.279191 0.304126 3.29727e-21 0.282449 2.17137e-22 -0.000333979)
(-0.929567 0.287302 3.4416e-22 0.44106 7.43432e-22 -0.197075)
(-1.73272 0.104096 8.40781e-22 0.262888 7.88031e-20 -0.589635)
(0.558724 0.128277 2.35778e-21 0.501481 -9.20945e-20 0.422471)
(-0.297745 0.301837 1.59748e-21 0.296072 -4.08397e-22 -0.00231736)
(-0.895833 0.281922 -4.7065e-22 0.446116 -8.31978e-22 -0.181566)
(-1.64687 0.101015 3.85552e-21 0.273154 -6.97536e-20 -0.551185)
(0.458636 0.126826 5.78489e-22 0.48852 6.99868e-20 0.377252)
(-0.3171 0.297492 -6.65677e-21 0.30598 1.68669e-22 -0.00609817)
(-0.860858 0.277596 3.84121e-21 0.445438 4.39086e-22 -0.167847)
(-1.55528 0.0993154 -3.38463e-21 0.282144 1.31104e-20 -0.510946)
(0.354062 0.124745 -5.31737e-22 0.474385 -8.19557e-20 0.32977)
(-0.337728 0.291925 7.04516e-21 0.313492 8.72259e-22 -0.0113414)
(-0.824992 0.273762 -1.64221e-21 0.44096 2.26713e-22 -0.155285)
(-1.45713 0.0981542 -2.76391e-21 0.291041 2.89065e-20 -0.468117)
(0.245183 0.122351 5.10051e-21 0.459315 5.6969e-20 0.280192)
(-0.359958 0.28568 -2.60487e-21 0.319628 -7.78426e-22 -0.0177733)
(-0.788507 0.269931 -5.70486e-21 0.433938 2.71772e-22 -0.143491)
(-1.35197 0.0970251 5.3843e-21 0.300446 1.08907e-20 -0.422285)
(0.132015 0.119841 -6.29937e-21 0.443465 2.46897e-22 0.228587)
(-0.383907 0.279084 1.77742e-21 0.325147 8.9744e-22 -0.0251382)
(-0.751336 0.265746 6.47565e-22 0.42528 3.61127e-22 -0.132076)
(-1.23959 0.0956436 -1.00079e-21 0.310641 -3.67371e-20 -0.373243)
(0.0144769 0.117309 3.98174e-21 0.426907 -1.69688e-20 0.174952)
(-0.409555 0.272282 -7.37983e-21 0.330544 -1.56881e-21 -0.0332315)
(-0.713314 0.260977 5.35006e-22 0.415553 6.12911e-22 -0.120748)
(-1.11994 0.093872 5.97626e-21 0.321714 8.73459e-21 -0.320942)
(-0.107545 0.114773 -1.29553e-21 0.409659 2.05067e-21 0.119247)
(-0.436775 0.265299 2.26443e-21 0.336108 -7.00731e-22 -0.0418868)
(-0.674183 0.255501 -7.3456e-21 0.405099 5.37597e-22 -0.109266)
(-0.993104 0.0916663 3.13734e-21 0.333654 -1.9217e-20 -0.265418)
(-0.234125 0.112204 9.86894e-22 0.391705 -3.10714e-20 0.061437)
(-0.465376 0.258082 -8.85399e-21 0.341976 -1.47716e-21 -0.0509734)
(-0.633676 0.249266 2.60399e-21 0.394098 -5.32823e-22 -0.0974539)
(-0.859243 0.0890327 -8.92792e-21 0.346397 3.01866e-20 -0.206764)
(-0.36527 0.109548 1.53147e-20 0.373025 1.54453e-20 0.00150995)
(-0.49514 0.250535 6.53772e-21 0.348184 2.42474e-21 -0.0603889)
(-0.59155 0.242259 3.01481e-21 0.38263 -4.17601e-22 -0.0851804)
(-0.718595 0.0860006 2.66151e-21 0.359861 -6.37784e-20 -0.145106)
(-0.500823 0.106751 -3.88372e-21 0.353627 1.39255e-20 -0.0604671)
(-0.525812 0.242552 -2.05036e-20 0.354728 -1.72252e-21 -0.0700333)
(-0.547602 0.234483 6.79844e-21 0.370738 -1.13784e-21 -0.0723475)
(-0.571454 0.0825992 -4.95835e-21 0.373973 5.09965e-20 -0.0805921)
(-0.640577 0.103758 -2.664e-20 0.3335 -9.45913e-21 -0.124417)
(-0.557162 0.234022 1.38267e-20 0.361558 1.42857e-21 -0.0798341)
(-0.501707 0.225928 1.58294e-20 0.358443 1.36312e-21 -0.058896)
(-0.418164 0.0788528 6.06182e-21 0.388661 -5.50664e-21 -0.0133872)
(-0.783846 0.100561 3.86748e-20 0.312799 7.54602e-21 -0.190001)
(-0.588824 0.224873 -6.84127e-21 0.368682 -1.23721e-21 -0.0896408)
(-0.453781 0.216589 -5.70491e-21 0.345826 -1.628e-21 -0.0447614)
(-0.259243 0.0747493 4.51432e-21 0.403909 1.83924e-20 0.0562933)
(-0.930543 0.0970428 1.35167e-20 0.291307 -1.33248e-20 -0.257274)
(-0.620639 0.214914 -6.15369e-21 0.375952 9.82049e-22 -0.0994506)
(-0.403781 0.206338 -1.75816e-20 0.332934 3.67164e-23 -0.0299054)
(-0.0949482 0.0702458 1.98177e-20 0.419706 9.46795e-21 0.128343)
(-1.08361 0.0928164 7.62706e-22 0.269379 8.78383e-21 -0.32727)
(-0.653007 0.202936 2.85312e-20 0.384033 1.70491e-21 -0.109155)
(-0.349883 0.193921 2.27742e-20 0.319372 1.96211e-21 -0.0137575)
(0.0791726 0.0646013 1.01831e-20 0.436307 -2.09471e-20 0.204646)
(-1.23685 0.0894752 -5.11239e-20 0.24727 -2.49154e-20 -0.397404)
(-0.684406 0.192368 -1.03416e-20 0.39225 -5.25302e-21 -0.118417)
(-0.293992 0.182763 -4.54136e-21 0.305712 3.74578e-22 0.00315)
(0.256369 0.0594073 -8.72225e-20 0.452972 4.15549e-20 0.282205)
(-1.3801 0.0863013 -3.31552e-21 0.226401 3.41275e-20 -0.46305)
(-0.712346 0.181911 -5.70973e-21 0.400144 -2.13814e-21 -0.126424)
(-0.239615 0.171609 2.86988e-20 0.293187 2.83766e-21 0.0199058)
(0.425634 0.0540761 7.34893e-20 0.469348 -5.38882e-20 0.356473)
(-1.51303 0.0832758 4.01025e-21 0.206773 -2.3116e-20 -0.52407)
(-0.736822 0.171398 4.74967e-20 0.407607 3.72035e-21 -0.133217)
(-0.186738 0.160259 3.38669e-22 0.281526 -5.0587e-21 0.0364069)
(0.586521 0.0484347 -1.69054e-20 0.484892 1.81166e-20 0.427058)
(-1.63534 0.0804135 3.31878e-20 0.188473 -2.71879e-20 -0.580309)
(-0.757634 0.160808 -5.9221e-20 0.414649 -7.10766e-21 -0.138713)
(-0.135162 0.148691 3.20765e-21 0.270699 1.14226e-20 0.0527208)
(0.739243 0.0424874 -6.50804e-20 0.499596 -3.77477e-20 0.494039)
(-1.74678 0.0777488 -5.1644e-20 0.171304 3.06226e-20 -0.631747)
(-0.774653 0.150134 -3.69569e-20 0.421062 1.78041e-22 -0.142943)
(-0.0848238 0.136881 2.03731e-20 0.260511 -3.05529e-21 0.0687949)
(0.883729 0.0361983 4.21691e-20 0.513197 5.75134e-20 0.557284)
(-1.84701 0.0752777 6.79871e-20 0.155128 -2.78992e-21 -0.678305)
(-0.787669 0.139371 1.63462e-20 0.426669 -4.21383e-21 -0.145894)
(-0.0355826 0.124826 -1.61581e-20 0.250795 -5.94832e-21 0.0846193)
(1.02006 0.0295664 7.50874e-20 0.525515 -4.27025e-20 0.616752)
(-1.93576 0.0729967 -7.1243e-20 0.139683 9.39953e-21 -0.719976)
(-0.796518 0.128515 -1.46301e-20 0.431192 2.94022e-21 -0.147612)
(0.0126553 0.112525 -1.03579e-19 0.241288 1.04815e-20 0.100125)
(1.14823 0.0225909 3.6696e-20 0.536243 -3.5393e-21 0.67232)
(-2.01272 0.0708811 1.46975e-20 0.124702 -2.08923e-21 -0.756749)
(-0.80102 0.117559 -5.63266e-20 0.434333 1.58583e-20 -0.148144)
(0.0599992 0.0999875 5.25081e-20 0.231701 -1.62354e-20 0.115242)
(1.26826 0.0152966 7.24792e-21 0.545064 3.17718e-20 0.723871)
(-2.07766 0.0688971 -3.84496e-20 0.109854 -5.32439e-21 -0.788657)
(-0.801032 0.106501 3.41299e-20 0.435742 -2.04896e-20 -0.147572)
(0.106526 0.0872354 -1.48936e-19 0.221694 -9.30885e-21 0.129863)
(1.38015 0.00772307 -1.79161e-20 0.551597 1.2677e-20 0.771247)
(-2.13036 0.0669953 -1.43777e-19 0.0947925 2.92035e-20 -0.815753)
(-0.796435 0.0953409 1.63001e-19 0.435049 8.32544e-21 -0.145997)
(0.152294 0.0743026 1.45745e-20 0.210904 -1.45208e-20 0.143868)
(1.48387 -6.78368e-05 9.37693e-20 0.555445 5.5032e-21 0.814282)
(-2.17068 0.0651155 8.13893e-20 0.0791502 -3.63151e-20 -0.838126)
(-0.787157 0.0840823 3.20296e-20 0.431872 2.43458e-21 -0.143543)
(0.197323 0.0612367 7.79191e-20 0.198949 5.90349e-21 0.157111)
(1.57937 -0.00799567 -6.52805e-20 0.556193 -8.23187e-21 0.852788)
(-2.19854 0.0631873 -1.11054e-19 0.0625674 2.41634e-20 -0.855893)
(-0.77318 0.0727353 4.35498e-20 0.425838 -8.54078e-21 -0.140351)
(0.241598 0.0480989 8.7082e-20 0.185456 2.18364e-20 0.169436)
(1.66656 -0.015961 -2.20511e-20 0.553436 -2.65898e-21 0.886571)
(-2.21398 0.061133 1.52443e-19 0.0447052 8.1809e-21 -0.869202)
(-0.754549 0.0613162 3.83156e-20 0.416602 1.28736e-20 -0.136579)
(0.285053 0.0349638 -1.08596e-19 0.170073 -1.92752e-20 0.180678)
(1.74535 -0.0238487 2.72022e-20 0.546801 -2.19538e-20 0.915441)
(-2.21713 0.0588712 -8.12308e-20 0.0252693 3.5992e-21 -0.878224)
(-0.73138 0.0498494 -2.90421e-20 0.403869 2.11043e-20 -0.13239)
(0.327577 0.0219178 -2.33296e-20 0.152494 1.35051e-20 0.190668)
(1.81561 -0.0315317 -3.3489e-20 0.535966 -6.85988e-21 0.939217)
(-2.20825 0.0563213 -2.55481e-20 0.00402785 -3.02788e-20 -0.883152)
(-0.703865 0.0383672 9.61263e-20 0.387416 1.10563e-20 -0.12795)
(0.369008 0.00905754 -6.33471e-20 0.13248 -8.91908e-21 0.199248)
(1.87718 -0.0388748 1.22067e-19 0.520688 1.20954e-20 0.957745)
(-2.18771 0.0534072 4.85306e-20 -0.01917 -9.7288e-21 -0.884197)
(-0.672273 0.0269107 1.05855e-19 0.367112 -3.8205e-20 -0.123419)
(0.409137 -0.00351251 -2.06808e-19 0.109874 5.34242e-20 0.20627)
(1.92993 -0.0457407 4.25977e-20 0.500821 -6.49992e-21 0.970906)
(-2.15601 0.0500619 1.00474e-19 -0.0443795 1.1869e-20 -0.881582)
(-0.636951 0.0155301 -8.38941e-20 0.342929 3.87266e-20 -0.118947)
(0.447711 -0.0156831 1.0691e-19 0.0846207 1.81173e-20 0.211611)
(1.97369 -0.0519953 -2.26169e-19 0.476335 -1.7575e-20 0.978626)
(-2.11377 0.0462317 -1.79571e-20 -0.0715509 1.92736e-20 -0.875537)
(-0.598316 0.00428368 8.72481e-20 0.314959 -1.7046e-20 -0.114665)
(0.48444 -0.0273435 1.17352e-19 0.0567737 -5.58083e-20 0.215176)
(2.00834 -0.0575131 -1.23641e-19 0.447324 2.28758e-20 0.980889)
(-2.06174 0.0418799 -2.06904e-19 -0.100524 2.85453e-20 -0.866293)
(-0.556853 -0.00676278 -7.42499e-21 0.283415 -8.68203e-21 -0.110681)
(0.519007 -0.0383847 4.86369e-20 0.0265023 -7.20762e-21 0.216907)
(2.03375 -0.0621829 1.59913e-19 0.414018 5.49955e-21 0.977743)
(-2.00076 0.0369891 1.99932e-19 -0.131032 -1.74187e-20 -0.854083)
(-0.5131 -0.0175372 -2.31781e-19 0.248629 -4.20377e-21 -0.107077)
(0.551078 -0.0487032 4.06282e-20 -0.00590983 -2.26031e-20 0.216784)
(2.04986 -0.0659129 -1.14893e-19 0.376778 2.21028e-20 0.969303)
(-1.93177 0.0315635 2.83134e-19 -0.162707 -4.11404e-21 -0.839133)
(-0.467635 -0.0279634 -3.31032e-19 0.211047 3.96966e-20 -0.103907)
(0.580314 -0.0582048 2.63316e-19 -0.0400728 -5.37016e-20 0.214826)
(2.05666 -0.0686342 9.36652e-20 0.336091 5.35598e-20 0.955758)
(-1.85577 0.0256294 2.02662e-19 -0.195095 4.57998e-21 -0.821666)
(-0.421064 -0.0379625 3.23127e-20 0.171216 -3.88559e-20 -0.101194)
(0.606387 -0.0668073 -7.72901e-20 -0.0755044 1.82182e-20 0.211095)
(2.05418 -0.0703043 -1.01637e-19 0.292552 -1.5401e-20 0.937365)
(-1.77383 0.0192347 -5.27031e-20 -0.227678 -6.98626e-21 -0.801899)
(-0.374005 -0.0474564 7.96418e-20 0.129757 2.95333e-20 -0.0989378)
(0.628988 -0.0744436 -2.33791e-19 -0.11165 6.71038e-20 0.205691)
(2.04256 -0.0709087 -1.52222e-19 0.246842 6.88572e-21 0.914446)
(-1.68703 0.0124474 3.02558e-19 -0.259896 -2.54004e-20 -0.780045)
(-0.327068 -0.0563693 -5.38092e-20 0.0873456 7.5552e-20 -0.097111)
(0.647847 -0.081064 1.24202e-19 -0.147905 -2.40119e-21 0.198745)
(2.02199 -0.0704616 3.88748e-19 0.199708 -6.93684e-22 0.88738)
(-1.59648 0.00535293 1.3638e-19 -0.291172 -9.33158e-22 -0.756312)
(-0.280843 -0.0646312 -1.47339e-19 0.0446843 -9.77704e-21 -0.0956693)
(0.662735 -0.0866376 -1.26911e-19 -0.183646 -6.61758e-20 0.190418)
(1.99277 -0.0690046 -2.46604e-19 0.151924 -2.81248e-20 0.856594)
(-1.50326 -0.00194966 -1.86284e-20 -0.320942 -3.95085e-20 -0.730909)
(-0.235882 -0.0721793 -2.04692e-19 0.00247042 6.78335e-20 -0.0945543)
(0.673484 -0.0911526 -7.21433e-20 -0.218255 7.4339e-20 0.180887)
(1.95528 -0.0666046 -6.69384e-20 0.104266 -3.76331e-20 0.822548)
(-1.40841 -0.00935166 -3.52998e-20 -0.348681 -1.58829e-20 -0.704046)
(-0.192686 -0.078961 8.39236e-20 -0.0386295 7.6247e-20 -0.0937003)
(0.679984 -0.0946166 7.76879e-20 -0.251149 -7.05125e-20 0.170343)
(1.90996 -0.0633507 -2.15745e-19 0.0574787 6.54213e-20 0.785723)
(-1.31294 -0.0167396 -5.5e-20 -0.373923 3.25715e-20 -0.675934)
(-0.151696 -0.084935 2.37713e-19 -0.0780056 -4.11806e-22 -0.0930398)
(0.682195 -0.0970551 -3.04463e-19 -0.2818 -1.0199e-19 0.158981)
(1.85737 -0.0593489 2.60871e-19 0.0122488 3.85815e-21 0.74661)
(-1.21777 -0.0239997 -4.27003e-21 -0.396283 3.33264e-20 -0.646789)
(-0.113285 -0.0900723 -4.55817e-20 -0.115125 -1.08036e-19 -0.0925083)
(0.680145 -0.0985098 1.5676e-19 -0.309762 -1.15989e-20 0.14699)
(1.7981 -0.054718 1.80424e-20 -0.0308178 4.86104e-20 0.705693)
(-1.12374 -0.031023 3.04329e-19 -0.415466 -3.71095e-20 -0.616831)
(-0.0777512 -0.0943572 -1.64568e-19 -0.149547 1.20817e-19 -0.092049)
(0.673931 -0.0990359 -6.40067e-21 -0.334679 2.70883e-20 0.134551)
(1.73282 -0.0495835 1.92666e-20 -0.0712132 -1.83038e-20 0.663442)
(-1.0316 -0.0377087 1.09435e-19 -0.431276 -2.73329e-21 -0.586283)
(-0.0453176 -0.0977867 3.00401e-20 -0.180931 -1.32579e-19 -0.0916151)
(0.663712 -0.0986994 -1.8309e-19 -0.356294 4.38499e-20 0.121832)
(1.66225 -0.0440728 -3.84022e-19 -0.108537 4.0799e-20 0.620301)
(-0.942016 -0.0439678 1.81767e-19 -0.443617 -1.31336e-20 -0.555367)
(-0.0161335 -0.10037 2.25466e-19 -0.209041 1.11835e-19 -0.0911718)
(0.649706 -0.0975743 2.3593e-19 -0.374452 -2.62167e-20 0.108981)
(1.58712 -0.0383099 3.077e-19 -0.142502 -1.23875e-20 0.576684)
(-0.855537 -0.0497257 -1.99998e-19 -0.452484 -2.36195e-20 -0.524306)
(0.00972215 -0.102129 -7.49503e-20 -0.233742 -2.48623e-20 -0.0906963)
(0.632183 -0.095739 -5.31687e-19 -0.389097 6.86662e-21 0.0961274)
(1.50821 -0.0324114 1.89809e-19 -0.172926 -7.35978e-22 0.53297)
(-0.772629 -0.0549239 -3.5729e-20 -0.457958 -4.15698e-20 -0.493316)
(0.0322342 -0.103094 -1.16074e-19 -0.25499 1.07974e-19 -0.0901775)
(0.61145 -0.0932738 1.72899e-19 -0.400261 2.841e-20 0.083383)
(1.4263 -0.0264829 -2.59477e-19 -0.199731 -1.80711e-20 0.4895)
(-0.693664 -0.0595201 6.57496e-20 -0.460194 5.6002e-20 -0.462609)
(0.0514441 -0.103303 1.66979e-19 -0.272825 -3.52546e-20 -0.0896143)
(0.587849 -0.0902585 -3.20906e-19 -0.408055 -2.52612e-20 0.0708396)
(1.34214 -0.0206169 -1.53347e-19 -0.222926 -2.28065e-21 0.446577)
(-0.618929 -0.0634889 -4.56647e-19 -0.459402 -4.27495e-20 -0.432384)
(0.0674409 -0.102804 2.6804e-19 -0.287352 4.22123e-20 -0.0890137)
(0.561743 -0.08677 2.52427e-19 -0.412651 -1.25071e-20 0.0585729)
(1.25649 -0.0148911 4.50561e-19 -0.242594 -5.34939e-20 0.404467)
(-0.548635 -0.0668202 2.21918e-19 -0.455835 -3.28608e-21 -0.402826)
(0.0803525 -0.101648 -3.19834e-19 -0.298734 5.19608e-21 -0.0883889)
(0.533506 -0.0828812 1.70326e-19 -0.414272 -4.93724e-20 0.0466436)
(1.17007 -0.00936753 -3.08786e-19 -0.25888 6.60007e-20 0.363404)
(-0.482927 -0.0695186 -8.04351e-20 -0.449778 6.39182e-20 -0.374106)
(0.0903359 -0.0998882 -4.8441e-20 -0.30717 -7.77884e-20 -0.0877572)
(0.503514 -0.0786595 2.23726e-19 -0.413174 3.57702e-20 0.0351001)
(1.08357 -0.00409339 -2.49855e-19 -0.27197 5.91801e-21 0.323587)
(-0.421893 -0.0716014 -1.63126e-19 -0.441528 -2.54034e-20 -0.346379)
(0.0975691 -0.0975829 8.85581e-20 -0.312886 1.05282e-19 -0.087138)
(0.472139 -0.0741663 -2.14811e-19 -0.409635 -5.25157e-20 0.0239801)
(0.997645 0.000898599 1.79093e-19 -0.282082 1.73243e-20 0.285188)
(-0.365571 -0.0730965 -2.024e-19 -0.431386 -1.11912e-20 -0.319781)
(0.102243 -0.0947899 2.48324e-20 -0.316124 -4.5775e-20 -0.0865511)
(0.439741 -0.0694571 -8.0582e-20 -0.403939 7.82182e-20 0.0133131)
(0.912884 0.00558867 1.16319e-19 -0.28945 -2.26205e-20 0.248353)
(-0.313963 -0.0740407 -7.2511e-20 -0.419652 4.03925e-21 -0.294431)
(0.104553 -0.0915671 2.30165e-20 -0.317128 -7.67425e-20 -0.0860161)
(0.40666 -0.0645812 3.89754e-19 -0.39637 5.17781e-20 0.003122)
(0.829835 0.00996839 1.12417e-19 -0.294313 2.08654e-20 0.213205)
(-0.267037 -0.0744777 -9.32531e-20 -0.406608 4.98652e-20 -0.27043)
(0.104696 -0.087972 -1.76192e-19 -0.316139 -5.03989e-20 -0.0855514)
(0.373215 -0.0595825 3.51625e-20 -0.387205 3.85335e-21 -0.0065763)
(0.74899 0.0140389 -2.88387e-19 -0.296911 -3.53462e-20 0.179844)
(-0.22474 -0.0744564 -1.24796e-19 -0.392524 3.18747e-20 -0.247865)
(0.102861 -0.0840611 5.92619e-20 -0.313392 -7.74325e-21 -0.0851737)
(0.339696 -0.0544999 -1.22747e-19 -0.376703 -6.28035e-20 -0.0157695)
(0.670783 0.0178091 -3.39754e-20 -0.297473 1.96888e-20 0.148351)
(-0.186999 -0.0740293 -3.73465e-19 -0.377644 -6.22313e-20 -0.226805)
(0.099232 -0.0798895 5.18661e-20 -0.309103 1.00565e-19 -0.0848979)
(0.306366 -0.0493679 8.85664e-20 -0.365106 -1.01076e-19 -0.0244495)
(0.595591 0.0212939 4.14774e-19 -0.296218 4.73653e-21 0.118791)
(-0.153728 -0.0732509 1.73162e-19 -0.362194 2.25746e-20 -0.207304)
(0.0939766 -0.0755106 -9.2137e-20 -0.303477 8.59417e-20 -0.0847376)
(0.273456 -0.0442174 -2.1516e-19 -0.352634 -5.39744e-20 -0.0326121)
(0.523731 0.0245128 -2.32872e-19 -0.293348 -2.16477e-20 0.0912097)
(-0.124828 -0.0721771 -3.05569e-19 -0.34637 9.30127e-21 -0.189403)
(0.0872511 -0.0709764 4.69362e-19 -0.296698 -1.64162e-20 -0.0847042)
(0.241165 -0.0390764 3.88272e-19 -0.339486 3.44248e-20 -0.0402568)
(0.455465 0.0274884 -2.95305e-19 -0.289048 -3.49762e-20 0.0656372)
(-0.100196 -0.0708642 1.18053e-19 -0.330348 -6.38234e-21 -0.17313)
(0.0791953 -0.0663376 -1.95932e-19 -0.288932 -1.06714e-19 -0.0848081)
(0.209658 -0.0339702 -1.92507e-19 -0.325836 8.43465e-20 -0.0473867)
(0.390996 0.030246 4.88563e-20 -0.283484 8.15362e-21 0.0420881)
(-0.0797173 -0.0693685 -1.12249e-19 -0.314275 7.78007e-21 -0.158497)
(0.0699337 -0.0616438 4.50463e-19 -0.280322 -1.38907e-19 -0.0850573)
(0.179071 -0.0289212 -3.52288e-19 -0.311831 1.98736e-19 -0.0540074)
(0.330474 0.0328124 -1.52446e-19 -0.276806 7.95158e-22 0.0205633)
(-0.0632736 -0.0677472 -4.84859e-19 -0.298271 -2.14004e-20 -0.145507)
(0.05957 -0.0569449 -1.5843e-19 -0.270992 1.75652e-19 -0.0854597)
(0.149502 -0.0239491 4.74824e-19 -0.297595 -5.10156e-20 -0.0601295)
(0.273994 0.0352171 -4.67231e-19 -0.269141 4.1307e-22 0.00104938)
(-0.0507309 -0.06606 -9.97934e-20 -0.282426 -8.43063e-21 -0.134141)
(0.0481924 -0.0522939 1.92064e-19 -0.261036 5.82241e-20 -0.0860173)
(0.121015 -0.0190677 3.49483e-20 -0.283218 5.1905e-20 -0.0657621)
(0.221606 0.0374934 -4.40057e-19 -0.260592 3.44528e-20 -0.0164744)
(-0.0419477 -0.0643739 7.09411e-19 -0.266797 -2.88052e-20 -0.124366)
(0.0358409 -0.047752 -2.7971e-19 -0.250521 1.70885e-19 -0.0867417)
(0.093615 -0.014281 4.80137e-19 -0.268761 2.94938e-20 -0.0709285)
(0.173312 0.039683 3.221e-19 -0.251237 -8.55218e-20 -0.0320391)
(-0.0367156 -0.0627785 3.05102e-20 -0.251384 -6.50786e-20 -0.116098)
(0.022549 -0.0434064 -1.56222e-19 -0.239445 -4.23201e-20 -0.0876179)
(0.0672819 -0.00956655 -8.89759e-20 -0.254207 -1.30133e-21 -0.0756298)
(0.129122 0.0418512 -3.23133e-19 -0.241102 3.25807e-20 -0.045651)
(-0.0348151 -0.0613988 -3.83416e-19 -0.236128 3.44039e-20 -0.109226)
(0.00811668 -0.0393869 1.75372e-19 -0.227786 6.41684e-21 -0.0887181)
(0.0417467 -0.00486019 -9.42989e-20 -0.239521 -2.06685e-19 -0.07996)
(0.0890006 0.044099 1.31267e-19 -0.230158 -1.55455e-23 -0.0573126)
(-0.0356276 -0.0604843 4.83706e-19 -0.220771 1.08616e-19 -0.1034)
(-0.00751879 -0.0359418 -3.37326e-19 -0.215232 9.82203e-20 -0.089942)
(0.0168582 1.81301e-05 -2.27926e-19 -0.224369 1.95888e-20 -0.083846)
(0.0532464 0.0466518 -8.05385e-20 -0.218186 3.62208e-20 -0.0668167)
(-0.0387289 -0.0603504 -3.09898e-19 -0.20491 -4.50048e-20 -0.0982882)
(-0.0258418 -0.0333884 3.52728e-19 -0.201828 -1.01979e-19 -0.0919016)
(-0.00897957 0.00530995 4.69539e-19 -0.208773 1.88496e-19 -0.0879349)
(0.0219283 0.049801 -2.01255e-19 -0.204809 -5.17641e-20 -0.0739851)
(-0.0413227 -0.0616614 1.54111e-19 -0.187375 -9.48064e-21 -0.0923046)
(-0.0462278 -0.0322119 3.11116e-19 -0.186498 -1.1059e-19 -0.0939169)
(-0.0353079 0.0114122 -6.20797e-20 -0.191637 -4.50879e-20 -0.0916046)
(-0.00264595 0.0541848 4.20615e-19 -0.188896 -1.17182e-20 -0.0774424)
(-0.0448659 -0.0635023 -6.47402e-20 -0.1683 3.68428e-21 -0.0860854)
(-0.0762913 -0.0316402 2.14849e-19 -0.174231 1.48667e-19 -0.10103)
(-0.0699207 0.0174207 1.19332e-19 -0.177914 1.01288e-19 -0.0999544)
(-0.0222878 0.0588359 -2.90733e-19 -0.170508 8.05205e-20 -0.0779375)
(-0.0377276 -0.0628156 2.38552e-19 -0.15159 3.26492e-20 -0.0765402)
(-0.0986965 -0.0293655 -5.89289e-19 -0.170269 1.1862e-19 -0.108402)
(-0.0958629 0.0209235 -1.12497e-19 -0.173011 -1.62695e-19 -0.108365)
(-0.026383 0.0605086 -7.54695e-19 -0.153817 -1.92374e-21 -0.0728932)
(-0.0632424 -0.0426745 -1.5263e-19 -0.18348 -5.19658e-20 -0.0995)
(-0.144909 -0.0186356 1.35897e-19 -0.244127 -3.33259e-20 -0.156429)
(-0.144099 0.0157761 -2.3738e-19 -0.247176 9.07949e-20 -0.157325)
(-0.0576385 0.0416744 3.70423e-19 -0.186016 -7.84102e-21 -0.0982726)
)
;

boundaryField
{
    plateFix
    {
        type            calculated;
        value           nonuniform List<symmTensor> 4((1.13323 0.0360738 -1.36481e-21 0.592403 6.12662e-20 0.688751) (-0.0933728 -0.020433 -1.95243e-24 -0.0436624 5.14072e-23 -0.055863) (-0.813771 0.207934 4.38555e-23 -0.334597 -5.43771e-23 -0.460413) (-2.53304 0.664207 -1.29805e-21 -0.73107 -9.49141e-20 -1.30729));
    }
    plate
    {
        type            calculated;
        value           nonuniform List<symmTensor> 
168
(
(0.972559 6.13071e-05 -3.0827e-22 0.36409 -3.33243e-20 0.533156)
(-1.77823 -0.000501473 -3.39786e-22 0.391964 1.99235e-20 -0.556108)
(0.967523 0.000197576 1.92039e-21 0.364765 1.89702e-20 0.531394)
(-1.83251 -0.000553146 1.66047e-21 0.392629 -2.37295e-20 -0.577576)
(0.946755 0.000632714 -3.26334e-21 0.365537 9.67921e-21 0.523366)
(-1.90192 -0.000911295 -5.29602e-21 0.393396 1.55899e-20 -0.605073)
(0.906419 0.00129957 4.34781e-22 0.366255 -1.19511e-21 0.507506)
(-1.89959 -0.00151494 4.60467e-21 0.394115 -1.34881e-20 -0.603865)
(0.853525 0.00214393 4.13909e-22 0.366835 -7.67205e-21 0.486569)
(-1.87923 -0.00232463 1.34896e-21 0.3947 -1.86802e-20 -0.595499)
(0.789981 0.0031159 1.8939e-21 0.36721 1.09807e-20 0.461295)
(-1.83579 -0.00327868 -1.82524e-21 0.395086 1.9476e-20 -0.577972)
(0.718342 0.00416509 -3.64263e-21 0.367345 -6.84633e-21 0.432689)
(-1.78104 -0.00432343 1.81575e-21 0.395237 -1.78165e-20 -0.556012)
(0.640206 0.00524773 3.07854e-21 0.36723 -1.02037e-20 0.401385)
(-1.71643 -0.00541003 -3.20161e-21 0.395142 3.14212e-20 -0.530204)
(0.556765 0.00632935 -5.17117e-21 0.366862 1.81149e-21 0.367858)
(-1.64457 -0.00650106 8.53414e-22 0.394801 -2.66863e-20 -0.501595)
(0.468802 0.00738488 2.34163e-21 0.366249 4.10587e-23 0.332425)
(-1.56595 -0.00756881 3.83965e-21 0.39422 1.14649e-20 -0.470375)
(0.376768 0.00839771 5.92075e-22 0.365397 6.36281e-21 0.295269)
(-1.48091 -0.0085948 -3.37443e-21 0.393407 8.88995e-22 -0.436681)
(0.280871 0.00935843 -5.5533e-22 0.364314 -5.02141e-21 0.256476)
(-1.3894 -0.00956806 -2.75851e-21 0.392371 5.6261e-21 -0.400486)
(0.18114 0.0102632 5.11066e-21 0.363004 -6.28408e-22 0.216059)
(-1.29138 -0.0104835 5.38551e-21 0.391118 -6.44976e-21 -0.361771)
(0.0774937 0.0111121 -6.30412e-21 0.361471 4.52065e-21 0.173988)
(-1.18679 -0.0113403 -1.0119e-21 0.389654 3.72731e-21 -0.320512)
(-0.0301937 0.0119082 3.98413e-21 0.359717 -1.01472e-20 0.130213)
(-1.07565 -0.0121406 5.9816e-21 0.387983 -7.78121e-21 -0.276715)
(-0.142046 0.012656 -1.29829e-21 0.357743 1.27922e-20 0.0846842)
(-0.958032 -0.0128885 3.13354e-21 0.38611 6.95183e-21 -0.230403)
(-0.258128 0.0133615 9.78645e-22 0.355554 5.45525e-22 0.0373782)
(-0.83405 -0.0135896 -8.92174e-21 0.384044 7.11614e-21 -0.181625)
(-0.378426 0.0140317 1.53211e-20 0.35316 -8.20987e-21 -0.0116962)
(-0.703877 -0.0142507 2.64958e-21 0.381798 -4.64813e-21 -0.130441)
(-0.502771 0.0146788 -3.88449e-21 0.350586 2.63294e-21 -0.0624612)
(-0.567739 -0.0148844 -4.94628e-21 0.379404 5.02775e-21 -0.0769308)
(-0.630942 0.0153103 -2.66447e-20 0.347847 1.02546e-20 -0.114823)
(-0.425923 -0.0154991 6.0665e-21 0.376882 -6.90238e-21 -0.0211999)
(-0.762277 0.0159717 3.86769e-20 0.345062 -6.74203e-21 -0.168467)
(-0.27885 -0.016142 4.5131e-21 0.374358 -3.51276e-21 0.0366332)
(-0.896623 0.0166459 1.35151e-20 0.342116 -1.75834e-21 -0.223381)
(-0.126844 -0.0167996 1.9814e-20 0.371724 1.00355e-20 0.0963954)
(-1.03686 0.0176081 7.64697e-22 0.339466 -5.05669e-22 -0.280533)
(0.0346839 -0.0177421 1.01727e-20 0.369445 -4.71716e-21 0.160109)
(-1.17726 0.018841 -5.11284e-20 0.336625 -4.07345e-22 -0.337828)
(0.199185 -0.0189532 -8.72134e-20 0.367073 2.10574e-21 0.224974)
(-1.30816 0.0202539 -3.322e-21 0.334316 1.24683e-21 -0.391107)
(0.35632 -0.0203582 7.34779e-20 0.365263 4.19144e-21 0.287117)
(-1.42944 0.0219497 4.0157e-21 0.332184 -6.78221e-22 -0.44047)
(0.505784 -0.022058 -1.6909e-20 0.363681 -5.69528e-21 0.346282)
(-1.54082 0.023928 3.3188e-20 0.330307 2.65582e-22 -0.485767)
(0.647833 -0.024059 -6.50749e-20 0.362387 6.06153e-21 0.402595)
(-1.64209 0.0262288 -5.16465e-20 0.328423 -6.91142e-21 -0.527022)
(0.782398 -0.0264031 4.21722e-20 0.361117 -4.53804e-21 0.455923)
(-1.73291 0.028842 6.79798e-20 0.326378 8.82764e-21 -0.564165)
(0.909566 -0.0290847 7.50746e-20 0.359704 -1.51812e-23 0.506235)
(-1.81304 0.0317595 -7.12422e-20 0.323878 1.79812e-21 -0.597213)
(1.02933 -0.0320983 3.66978e-20 0.357841 -2.62554e-21 0.553405)
(-1.8822 0.034943 1.46856e-20 0.320628 -2.81917e-21 -0.62617)
(1.14173 -0.0354083 7.22405e-21 0.355213 1.24176e-21 0.597322)
(-1.94016 0.0383399 -3.84534e-20 0.316269 -1.16477e-21 -0.651089)
(1.24674 -0.0389637 -1.79186e-20 0.35144 1.10639e-21 0.637826)
(-1.98672 0.0418749 -1.43769e-19 0.31043 -6.37999e-22 -0.672039)
(1.34435 -0.0426902 9.37515e-20 0.346127 1.8479e-21 0.674752)
(-2.02175 0.0454558 8.13872e-20 0.302724 -1.24781e-21 -0.689124)
(1.4345 -0.0464954 -6.52815e-20 0.338858 -2.1018e-21 0.707912)
(-2.04519 0.0489736 -1.1106e-19 0.292774 2.3111e-21 -0.70247)
(1.51711 -0.0502693 -2.20445e-20 0.329227 -3.21522e-21 0.737112)
(-2.05708 0.0523079 1.52441e-19 0.280236 2.06131e-21 -0.712229)
(1.59208 -0.0538889 2.72298e-20 0.316857 3.5772e-21 0.762159)
(-2.05755 0.0553302 -8.12309e-20 0.264814 -1.63997e-21 -0.718573)
(1.65927 -0.0572229 -3.34799e-20 0.301426 -2.3005e-21 0.782872)
(-2.04685 0.0579105 -2.55368e-20 0.246289 2.3111e-21 -0.721687)
(1.71855 -0.0601369 1.22055e-19 0.282682 1.92122e-21 0.799091)
(-2.02534 0.0599227 4.85455e-20 0.224531 -1.17726e-21 -0.721769)
(1.76974 -0.0624998 4.25941e-20 0.260472 2.49499e-21 0.810693)
(-1.9935 0.0612508 1.00464e-19 0.199515 1.92655e-21 -0.719019)
(1.81269 -0.0641901 -2.26137e-19 0.234754 -9.21407e-22 0.817595)
(-1.95192 0.0617946 -1.79709e-20 0.171337 2.91011e-21 -0.713639)
(1.84725 -0.065101 -1.2366e-19 0.205606 6.17323e-22 0.819771)
(-1.90131 0.0614747 -2.06934e-19 0.140208 1.8034e-22 -0.705826)
(1.8733 -0.0651468 1.59901e-19 0.173236 1.00209e-21 0.817253)
(-1.84247 0.0602368 1.99961e-19 0.106461 -2.13598e-22 -0.695767)
(1.89075 -0.0642661 -1.1492e-19 0.137978 -1.04987e-21 0.81014)
(-1.77629 0.0580548 2.8312e-19 0.070536 2.34828e-21 -0.683643)
(1.89955 -0.0624257 9.3589e-20 0.100282 -7.2631e-23 0.798596)
(-1.70372 0.0549318 2.0265e-19 0.0329673 -2.7204e-21 -0.669621)
(1.89974 -0.0596221 -1.01613e-19 0.0607024 2.4674e-21 0.782849)
(-1.62578 0.0509008 -5.27225e-20 -0.00563955 6.43372e-23 -0.653862)
(1.89138 -0.0558818 -1.52244e-19 0.0198704 -4.64046e-21 0.763189)
(-1.54348 0.0460232 3.02597e-19 -0.0446323 -3.645e-22 -0.636516)
(1.87466 -0.0512605 3.88739e-19 -0.0215274 -5.72403e-21 0.739955)
(-1.45786 0.0403858 1.36384e-19 -0.0833408 -2.15678e-22 -0.617731)
(1.84982 -0.0458398 -2.4655e-19 -0.0627813 8.55245e-23 0.71353)
(-1.36995 0.0340972 -1.85435e-20 -0.121106 1.4246e-21 -0.597651)
(1.81717 -0.0397244 -6.6871e-20 -0.103189 6.0291e-22 0.684326)
(-1.28074 0.0272826 -3.52825e-20 -0.157306 -6.79667e-22 -0.576423)
(1.77714 -0.0330365 -2.15825e-19 -0.142084 -4.3341e-21 0.65277)
(-1.19114 0.0200783 -5.50547e-20 -0.191384 1.85024e-21 -0.554196)
(1.7302 -0.0259107 2.60874e-19 -0.178865 4.2427e-21 0.619298)
(-1.10204 0.0126264 -4.31359e-21 -0.222866 -2.64329e-21 -0.531129)
(1.67689 -0.0184881 1.79628e-20 -0.213012 4.6723e-23 0.584334)
(-1.01422 0.00506815 3.04358e-19 -0.251372 -1.5475e-21 -0.507383)
(1.61783 -0.0109107 1.93039e-20 -0.244109 6.25387e-22 0.548289)
(-0.928375 -0.00246045 1.09428e-19 -0.276627 5.71461e-21 -0.483129)
(1.55367 -0.00331582 -3.84081e-19 -0.271846 -1.65719e-22 0.511546)