/*--------------------------------*- C++ -*----------------------------------*\
| =========                 |                                                 |
| \\      /  F ield         | OpenFOAM Extend Project: Open source CFD        |
|  \\    /   O peration     | Version:  1.6-ext                               |
|   \\  /    A nd           | Web:      www.extend-project.de                 |
|    \\/     M anipulation  |                                                 |
\*---------------------------------------------------------------------------*/
FoamFile
{
    version     2.0;
    format      ascii;
    class       volVectorField;
    location    "0.45";
    object      Usolid;
}
// * * * * * * * * * * * * * * * * * * * * * * * * * * * * * * * * * * * * * //

dimensions      [0 1 0 0 0 0 0];

internalField   nonuniform List<vector> 
328
(
(2.2246e-08 1.31534e-08 0)
(-1.92607e-09 2.93942e-10 0)
(-1.76995e-08 2.34406e-08 0)
(-6.11908e-08 1.23837e-07 0)
(6.81511e-08 4.89945e-08 0)
(-6.92469e-09 2.67556e-08 0)
(-6.20674e-08 9.43075e-08 0)
(-1.86013e-07 3.32943e-07 0)
(1.16905e-07 1.05285e-07 0)
(-1.68496e-08 8.26689e-08 0)
(-1.28115e-07 1.92181e-07 0)
(-3.29237e-07 5.18238e-07 0)
(1.66791e-07 1.87366e-07 0)
(-3.15587e-08 1.70326e-07 0)
(-2.06331e-07 3.1604e-07 0)
(-4.82624e-07 6.92283e-07 0)
(2.16736e-07 2.993e-07 0)
(-5.20536e-08 2.9128e-07 0)
(-2.97445e-07 4.66231e-07 0)
(-6.46896e-07 8.68184e-07 0)
(2.65463e-07 4.44876e-07 0)
(-7.83093e-08 4.48011e-07 0)
(-3.9819e-07 6.4486e-07 0)
(-8.19895e-07 1.05663e-06 0)
(3.11743e-07 6.27724e-07 0)
(-1.10526e-07 6.43173e-07 0)
(-5.0774e-07 8.55195e-07 0)
(-1.00113e-06 1.26693e-06 0)
(3.5429e-07 8.51562e-07 0)
(-1.48695e-07 8.7999e-07 0)
(-6.24677e-07 1.10146e-06 0)
(-1.18971e-06 1.50706e-06 0)
(3.91742e-07 1.12026e-06 0)
(-1.92955e-07 1.16207e-06 0)
(-7.48275e-07 1.3885e-06 0)
(-1.385e-06 1.78422e-06 0)
(4.22625e-07 1.43795e-06 0)
(-2.43532e-07 1.49347e-06 0)
(-8.77829e-07 1.72161e-06 0)
(-1.5862e-06 2.10501e-06 0)
(4.45311e-07 1.809e-06 0)
(-3.00846e-07 1.87855e-06 0)
(-1.01288e-06 2.10626e-06 0)
(-1.79238e-06 2.47565e-06 0)
(4.57973e-07 2.23796e-06 0)
(-3.65503e-07 2.32195e-06 0)
(-1.15303e-06 2.54794e-06 0)
(-2.00239e-06 2.90203e-06 0)
(4.58544e-07 2.72943e-06 0)
(-4.38314e-07 2.82834e-06 0)
(-1.29795e-06 3.052e-06 0)
(-2.21481e-06 3.38966e-06 0)
(4.44664e-07 3.28789e-06 0)
(-5.20283e-07 3.40226e-06 0)
(-1.44734e-06 3.62337e-06 0)
(-2.42794e-06 3.94359e-06 0)
(4.13641e-07 3.91734e-06 0)
(-6.12595e-07 4.04776e-06 0)
(-1.60084e-06 4.26636e-06 0)
(-2.63972e-06 4.56813e-06 0)
(3.62399e-07 4.62098e-06 0)
(-7.16604e-07 4.76806e-06 0)
(-1.75799e-06 4.98427e-06 0)
(-2.84775e-06 5.2666e-06 0)
(2.87444e-07 5.40067e-06 0)
(-8.33818e-07 5.56504e-06 0)
(-1.91824e-06 5.77897e-06 0)
(-3.04921e-06 6.04089e-06 0)
(1.8482e-07 6.25633e-06 0)
(-9.65893e-07 6.43861e-06 0)
(-2.08085e-06 6.65033e-06 0)
(-3.24083e-06 6.89086e-06 0)
(5.00811e-08 7.18518e-06 0)
(-1.11463e-06 7.38596e-06 0)
(-2.24493e-06 7.59546e-06 0)
(-3.41887e-06 7.81365e-06 0)
(-1.21727e-07 8.18076e-06 0)
(-1.28197e-06 8.40059e-06 0)
(-2.40935e-06 8.6078e-06 0)
(-3.57905e-06 8.80272e-06 0)
(-3.36124e-07 9.23182e-06 0)
(-1.47e-06 9.47114e-06 0)
(-2.57277e-06 9.67594e-06 0)
(-3.71654e-06 9.84674e-06 0)
(-5.99046e-07 1.03209e-05 0)
(-1.68091e-06 1.058e-05 0)
(-2.73362e-06 1.07822e-05 0)
(-3.82597e-06 1.09281e-05 0)
(-9.29391e-07 1.14642e-05 0)
(-1.9261e-06 1.17443e-05 0)
(-2.89602e-06 1.19436e-05 0)
(-3.90404e-06 1.20629e-05 0)
(-1.32596e-06 1.25727e-05 0)
(-2.20025e-06 1.28736e-05 0)
(-3.05007e-06 1.30698e-05 0)
(-3.93671e-06 1.31621e-05 0)
(-1.76281e-06 1.35355e-05 0)
(-2.48497e-06 1.38558e-05 0)
(-3.18502e-06 1.40487e-05 0)
(-3.92072e-06 1.41153e-05 0)
(-2.23713e-06 1.43236e-05 0)
(-2.77916e-06 1.46618e-05 0)
(-3.30155e-06 1.48514e-05 0)
(-3.85847e-06 1.48935e-05 0)
(-2.74602e-06 1.491e-05 0)
(-3.08167e-06 1.52645e-05 0)
(-3.40024e-06 1.54505e-05 0)
(-3.75227e-06 1.54693e-05 0)
(-3.28654e-06 1.52693e-05 0)
(-3.39129e-06 1.56385e-05 0)
(-3.48162e-06 1.58206e-05 0)
(-3.60439e-06 1.58173e-05 0)
(-3.85558e-06 1.53778e-05 0)
(-3.70672e-06 1.57599e-05 0)
(-3.54616e-06 1.59379e-05 0)
(-3.41707e-06 1.59135e-05 0)
(-4.44992e-06 1.52138e-05 0)
(-4.02656e-06 1.56069e-05 0)
(-3.59428e-06 1.57804e-05 0)
(-3.19248e-06 1.57357e-05 0)
(-5.06621e-06 1.47574e-05 0)
(-4.34929e-06 1.51595e-05 0)
(-3.62627e-06 1.53277e-05 0)
(-2.93274e-06 1.52638e-05 0)
(-5.70096e-06 1.39904e-05 0)
(-4.6733e-06 1.43993e-05 0)
(-3.64237e-06 1.45617e-05 0)
(-2.63988e-06 1.44791e-05 0)
(-6.35052e-06 1.28967e-05 0)
(-4.99686e-06 1.331e-05 0)
(-3.64271e-06 1.34657e-05 0)
(-2.31589e-06 1.33651e-05 0)
(-7.01115e-06 1.14618e-05 0)
(-5.31813e-06 1.18771e-05 0)
(-3.62734e-06 1.20252e-05 0)
(-1.96266e-06 1.19071e-05 0)
(-7.67898e-06 9.67339e-06 0)
(-5.63519e-06 1.00882e-05 0)
(-3.59624e-06 1.02275e-05 0)
(-1.58204e-06 1.00923e-05 0)
(-8.35007e-06 7.52096e-06 0)
(-5.94605e-06 7.9325e-06 0)
(-3.54932e-06 8.0619e-06 0)
(-1.17582e-06 7.90991e-06 0)
(-9.02044e-06 4.99592e-06 0)
(-6.24868e-06 5.40147e-06 0)
(-3.48646e-06 5.51974e-06 0)
(-7.45754e-07 5.35116e-06 0)
(-9.68613e-06 2.09158e-06 0)
(-6.54104e-06 2.48838e-06 0)
(-3.40752e-06 2.59426e-06 0)
(-2.93594e-07 2.40927e-06 0)
(-1.03432e-05 -1.19681e-06 0)
(-6.82113e-06 -8.1149e-07 0)
(-3.31237e-06 -7.19279e-07 0)
(1.78914e-07 -9.20508e-07 0)
(-1.09879e-05 -4.87213e-06 0)
(-7.08703e-06 -4.50096e-06 0)
(-3.20095e-06 -4.42364e-06 0)
(6.69993e-07 -4.64092e-06 0)
(-1.16165e-05 -8.93543e-06 0)
(-7.33692e-06 -8.58093e-06 0)
(-3.07326e-06 -8.51962e-06 0)
(1.17782e-06 -8.7527e-06 0)
(-1.22257e-05 -1.33859e-05 0)
(-7.56917e-06 -1.30504e-05 0)
(-2.92942e-06 -1.30061e-05 0)
(1.70049e-06 -1.32547e-05 0)
(-1.28122e-05 -1.82211e-05 0)
(-7.78234e-06 -1.79067e-05 0)
(-2.7697e-06 -1.78802e-05 0)
(2.23602e-06 -1.81437e-05 0)
(-1.33734e-05 -2.34367e-05 0)
(-7.97524e-06 -2.31452e-05 0)
(-2.59451e-06 -2.31372e-05 0)
(2.78234e-06 -2.3415e-05 0)
(-1.39067e-05 -2.90269e-05 0)
(-8.14696e-06 -2.87598e-05 0)
(-2.40448e-06 -2.87705e-05 0)
(3.33727e-06 -2.90619e-05 0)
(-1.44102e-05 -3.49843e-05 0)
(-8.29688e-06 -3.47427e-05 0)
(-2.20042e-06 -3.47723e-05 0)
(3.89852e-06 -3.50762e-05 0)
(-1.48822e-05 -4.13002e-05 0)
(-8.42471e-06 -4.10849e-05 0)
(-1.98335e-06 -4.11332e-05 0)
(4.46371e-06 -4.14483e-05 0)
(-1.53216e-05 -4.79645e-05 0)
(-8.53047e-06 -4.77757e-05 0)
(-1.75448e-06 -4.78422e-05 0)
(5.0304e-06 -4.81673e-05 0)
(-1.57277e-05 -5.49658e-05 0)
(-8.61448e-06 -5.48036e-05 0)
(-1.51521e-06 -5.48875e-05 0)
(5.59608e-06 -5.5221e-05 0)
(-1.61002e-05 -6.22918e-05 0)
(-8.67737e-06 -6.21559e-05 0)
(-1.2671e-06 -6.22562e-05 0)
(6.15823e-06 -6.25963e-05 0)
(-1.64393e-05 -6.99292e-05 0)
(-8.72003e-06 -6.98188e-05 0)
(-1.01183e-06 -6.99343e-05 0)
(6.71431e-06 -7.02792e-05 0)
(-1.67454e-05 -7.78639e-05 0)
(-8.74358e-06 -7.77781e-05 0)
(-7.51186e-07 -7.79074e-05 0)
(7.26187e-06 -7.82552e-05 0)
(-1.70193e-05 -8.60813e-05 0)
(-8.74935e-06 -8.60189e-05 0)
(-4.87013e-07 -8.61604e-05 0)
(7.7985e-06 -8.65091e-05 0)
(-1.72623e-05 -9.45661e-05 0)
(-8.7388e-06 -9.45257e-05 0)
(-2.21174e-07 -9.46777e-05 0)
(8.32194e-06 -9.50254e-05 0)
(-1.74755e-05 -0.000103303 0)
(-8.71354e-06 -0.000103283 0)
(4.44884e-08 -0.000103444 0)
(8.83008e-06 -0.000103788 0)
(-1.76607e-05 -0.000112276 0)
(-8.6752e-06 -0.000112274 0)
(3.08185e-07 -0.000112442 0)
(9.32098e-06 -0.000112782 0)
(-1.78195e-05 -0.000121469 0)
(-8.62547e-06 -0.000121484 0)
(5.68217e-07 -0.000121658 0)
(9.79292e-06 -0.000121991 0)
(-1.79536e-05 -0.000130866 0)
(-8.56603e-06 -0.000130897 0)
(8.22997e-07 -0.000131074 0)
(1.02444e-05 -0.0001314 0)
(-1.80648e-05 -0.000140453 0)
(-8.49851e-06 -0.000140497 0)
(1.07108e-06 -0.000140676 0)
(1.06742e-05 -0.000140993 0)
(-1.81552e-05 -0.000150213 0)
(-8.42449e-06 -0.000150269 0)
(1.31117e-06 -0.000150448 0)
(1.10812e-05 -0.000150754 0)
(-1.82265e-05 -0.000160131 0)
(-8.34547e-06 -0.000160197 0)
(1.54213e-06 -0.000160376 0)
(1.14648e-05 -0.00016067 0)
(-1.82806e-05 -0.000170193 0)
(-8.26285e-06 -0.000170268 0)
(1.763e-06 -0.000170445 0)
(1.18244e-05 -0.000170727 0)
(-1.83193e-05 -0.000180385 0)
(-8.17792e-06 -0.000180467 0)
(1.97299e-06 -0.000180641 0)
(1.21597e-05 -0.00018091 0)
(-1.83442e-05 -0.000190694 0)
(-8.09186e-06 -0.000190781 0)
(2.17146e-06 -0.000190952 0)
(1.24707e-05 -0.000191207 0)
(-1.83572e-05 -0.000201106 0)
(-8.00577e-06 -0.000201198 0)
(2.35793e-06 -0.000201363 0)
(1.27574e-05 -0.000201605 0)
(-1.83598e-05 -0.00021161 0)
(-7.92061e-06 -0.000211704 0)
(2.53207e-06 -0.000211865 0)
(1.30203e-05 -0.000212092 0)
(-1.83536e-05 -0.000222193 0)
(-7.83726e-06 -0.00022229 0)
(2.69368e-06 -0.000222445 0)
(1.32599e-05 -0.000222657 0)
(-1.834e-05 -0.000232846 0)
(-7.75649e-06 -0.000232944 0)
(2.84268e-06 -0.000233092 0)
(1.34766e-05 -0.000233291 0)
(-1.83204e-05 -0.000243559 0)
(-7.679e-06 -0.000243657 0)
(2.97909e-06 -0.000243798 0)
(1.36714e-05 -0.000243983 0)
(-1.82962e-05 -0.000254321 0)
(-7.60541e-06 -0.000254419 0)
(3.10303e-06 -0.000254553 0)
(1.38451e-05 -0.000254724 0)
(-1.82687e-05 -0.000265126 0)
(-7.53625e-06 -0.000265222 0)
(3.21469e-06 -0.000265348 0)
(1.39986e-05 -0.000265506 0)
(-1.8239e-05 -0.000275965 0)
(-7.47201e-06 -0.000276059 0)
(3.31432e-06 -0.000276178 0)
(1.4133e-05 -0.000276323 0)
(-1.82083e-05 -0.000286832 0)
(-7.41314e-06 -0.000286923 0)
(3.40222e-06 -0.000287034 0)
(1.42492e-05 -0.000287167 0)
(-1.81777e-05 -0.000297721 0)
(-7.36001e-06 -0.000297807 0)
(3.47872e-06 -0.000297911 0)
(1.43485e-05 -0.000298032 0)
(-1.81482e-05 -0.000308626 0)
(-7.31303e-06 -0.000308708 0)
(3.54413e-06 -0.000308804 0)
(1.44317e-05 -0.000308913 0)
(-1.81209e-05 -0.000319543 0)
(-7.27257e-06 -0.000319621 0)
(3.59874e-06 -0.000319708 0)
(1.45001e-05 -0.000319806 0)
(-1.80967e-05 -0.000330468 0)
(-7.23916e-06 -0.000330541 0)
(3.64271e-06 -0.00033062 0)
(1.45547e-05 -0.000330707 0)
(-1.80762e-05 -0.000341399 0)
(-7.21336e-06 -0.000341466 0)
(3.67609e-06 -0.000341535 0)
(1.45967e-05 -0.000341613 0)
(-1.80604e-05 -0.000352334 0)
(-7.19657e-06 -0.000352394 0)
(3.69805e-06 -0.000352452 0)
(1.4627e-05 -0.00035252 0)
(-1.80487e-05 -0.000363271 0)
(-7.1894e-06 -0.000363323 0)
(3.70849e-06 -0.000363369 0)
(1.46476e-05 -0.000363427 0)
(-1.80429e-05 -0.000374201 0)
(-7.19587e-06 -0.000374249 0)
(3.70385e-06 -0.000374288 0)
(1.46585e-05 -0.000374339 0)
(-1.80336e-05 -0.000385102 0)
(-7.20396e-06 -0.000385164 0)
(3.6965e-06 -0.000385215 0)
(1.46698e-05 -0.000385279 0)
)
;

boundaryField
{
    plateFix
    {
        type            fixedDisplacement;
        value           uniform (0 0 0);
    }
    plate
    {
        type            solidTraction;
        nonLinear       updatedLagrangian;
        traction        uniform (0 0 0);
        pressure        uniform 0;
        value           nonuniform List<vector> 
168
(
(9.75013e-08 5.82593e-08 -6.52807e-26)
(-6.24162e-07 3.56916e-07 -9.91325e-26)
(1.74006e-07 9.34139e-08 1.50069e-25)
(-6.47473e-07 5.71598e-07 -4.73726e-26)
(2.65598e-07 1.47578e-07 2.22681e-26)
(-7.20887e-07 7.63848e-07 1.32714e-25)
(3.61446e-07 2.25561e-07 -1.76309e-26)
(-8.37987e-07 9.37719e-07 3.66877e-26)
(4.5771e-07 3.32174e-07 -6.33088e-26)
(-9.91845e-07 1.11161e-06 -1.04017e-25)
(5.51999e-07 4.71388e-07 5.66279e-26)
(-1.17203e-06 1.29573e-06 3.37181e-26)
(6.4249e-07 6.47101e-07 -1.0135e-25)
(-1.37228e-06 1.50054e-06 4.00295e-27)
(7.2767e-07 8.6319e-07 3.40714e-26)
(-1.58743e-06 1.73417e-06 -4.13622e-26)
(8.06101e-07 1.12365e-06 -6.05466e-26)
(-1.81396e-06 2.00407e-06 8.08565e-26)
(8.76291e-07 1.43268e-06 9.32237e-26)
(-2.04898e-06 2.31689e-06 -6.80828e-26)
(9.36547e-07 1.79469e-06 -6.68424e-26)
(-2.29003e-06 2.6789e-06 1.1288e-26)
(9.84873e-07 2.21425e-06 8.08357e-26)
(-2.53474e-06 3.09596e-06 2.73977e-26)
(1.01888e-06 2.69599e-06 -5.78007e-26)
(-2.78066e-06 3.57361e-06 1.29851e-26)
(1.03574e-06 3.24434e-06 -5.62659e-29)
(-3.02509e-06 4.11687e-06 -3.78688e-26)
(1.03207e-06 3.86331e-06 1.5527e-26)
(-3.26502e-06 4.73006e-06 9.5797e-27)
(1.00396e-06 4.55607e-06 -3.50809e-28)
(-3.49701e-06 5.41652e-06 -1.52547e-26)
(9.46879e-07 5.32448e-06 3.09006e-26)
(-3.71712e-06 6.17814e-06 2.47416e-26)
(8.55674e-07 6.16847e-06 -1.28958e-26)
(-3.92086e-06 7.0148e-06 -6.17003e-26)
(7.24502e-07 7.08527e-06 -1.36101e-26)
(-4.1031e-06 7.92366e-06 4.91739e-26)
(5.46844e-07 8.06843e-06 5.49574e-27)
(-4.25803e-06 8.89823e-06 -3.33074e-27)
(3.15414e-07 9.10676e-06 -7.29389e-27)
(-4.37909e-06 9.92723e-06 2.05114e-26)
(2.22993e-08 1.01828e-05 1.27706e-26)
(-4.45896e-06 1.09931e-05 7.93095e-27)
(-3.55804e-07 1.13125e-05 -5.21754e-27)
(-4.49016e-06 1.21115e-05 -1.76613e-26)
(-8.18153e-07 1.24073e-05 1.99263e-26)
(-4.45816e-06 1.31939e-05 3.51377e-26)
(-1.33566e-06 1.33573e-05 -3.25271e-26)
(-4.36276e-06 1.41312e-05 -4.66762e-26)
(-1.90475e-06 1.41336e-05 3.28608e-26)
(-4.20719e-06 1.48943e-05 1.81596e-26)
(-2.52167e-06 1.47091e-05 2.56139e-26)
(-3.9946e-06 1.54559e-05 -3.66966e-26)
(-3.18259e-06 1.50585e-05 -3.00567e-26)
(-3.72815e-06 1.57903e-05 6.32603e-26)
(-3.88352e-06 1.51582e-05 -5.86216e-27)
(-3.41094e-06 1.58736e-05 -4.63398e-26)
(-4.62031e-06 1.49866e-05 -1.69233e-27)
(-3.04604e-06 1.56837e-05 -6.68029e-27)
(-5.38868e-06 1.45237e-05 4.50741e-27)
(-2.63644e-06 1.52002e-05 3.03711e-26)
(-6.18416e-06 1.37516e-05 -1.05009e-27)
(-2.18509e-06 1.44045e-05 -9.46068e-28)
(-7.00216e-06 1.2654e-05 -4.15989e-28)
(-1.69487e-06 1.328e-05 -9.22831e-27)
(-7.83792e-06 1.12168e-05 4.34589e-27)
(-1.16859e-06 1.18119e-05 -3.77543e-26)
(-8.68657e-06 9.42764e-06 -1.66257e-26)
(-6.09017e-07 9.9874e-06 4.30598e-26)
(-9.54316e-06 7.27595e-06 1.17039e-26)
(-1.88776e-08 7.79565e-06 -1.11158e-26)
(-1.04027e-05 4.75323e-06 1.03997e-26)
(5.99132e-07 5.22784e-06 6.71002e-27)
(-1.12602e-05 1.85282e-06 -4.01106e-26)
(1.24233e-06 2.27717e-06 9.96023e-27)
(-1.21107e-05 -1.43006e-06 2.36044e-26)
(1.90802e-06 -1.06112e-06 -1.25798e-26)
(-1.29494e-05 -5.09834e-06 -1.75307e-26)
(2.59349e-06 -4.78976e-06 2.31056e-26)
(-1.37718e-05 -9.15314e-06 7.97023e-27)
(3.29598e-06 -8.90947e-06 -2.31466e-26)
(-1.45734e-05 -1.35938e-05 4.82048e-26)
(4.01269e-06 -1.3419e-05 -2.58939e-26)
(-1.53503e-05 -1.84178e-05 -1.88934e-26)
(4.74073e-06 -1.83152e-05 -9.74374e-27)
(-1.60988e-05 -2.36213e-05 -1.34313e-26)
(5.47718e-06 -2.35932e-05 -3.39636e-26)
(-1.68157e-05 -2.91984e-05 -9.61618e-27)
(6.21903e-06 -2.92462e-05 3.54508e-27)
(-1.74983e-05 -3.51421e-05 1.56139e-26)
(6.96321e-06 -3.52659e-05 -3.11809e-27)
(-1.81443e-05 -4.14437e-05 -6.25702e-26)
(7.70664e-06 -4.16428e-05 -1.13502e-26)
(-1.8752e-05 -4.80934e-05 1.42389e-26)
(8.4462e-06 -4.83656e-05 2.8586e-26)
(-1.93202e-05 -5.50801e-05 -7.1205e-27)
(9.1788e-06 -5.54223e-05 3.45318e-26)
(-1.98481e-05 -6.23915e-05 -4.14294e-26)
(9.90138e-06 -6.27996e-05 -6.90074e-26)
(-2.03355e-05 -7.00147e-05 2.38702e-26)
(1.0611e-05 -7.04835e-05 -3.08504e-26)
(-2.07827e-05 -7.79356e-05 3.42915e-26)
(1.13048e-05 -7.84595e-05 -9.03994e-27)
(-2.11902e-05 -8.61398e-05 -2.65127e-26)
(1.19801e-05 -8.67123e-05 3.17038e-26)
(-2.15591e-05 -9.46121e-05 4.41331e-27)
(1.26344e-05 -9.52265e-05 -6.8163e-26)
(-2.18905e-05 -0.000103337 -2.26643e-26)
(1.32655e-05 -0.000103986 6.27496e-26)
(-2.21861e-05 -0.000112299 -3.36448e-26)
(1.38714e-05 -0.000112976 -4.02482e-26)
(-2.24475e-05 -0.000121482 -3.0218e-26)
(1.44503e-05 -0.000122181 2.50223e-26)
(-2.26767e-05 -0.00013087 5.29631e-26)
(1.50007e-05 -0.000131583 4.23656e-27)
(-2.28755e-05 -0.000140449 -3.55703e-26)
(1.55217e-05 -0.00014117 4.97859e-26)
(-2.30461e-05 -0.000150201 1.63433e-26)
(1.60123e-05 -0.000150925 -6.14599e-26)
(-2.31906e-05 -0.000160113 4.65875e-26)
(1.64719e-05 -0.000160834 -2.56573e-26)
(-2.3311e-05 -0.00017017 -3.7521e-26)
(1.69003e-05 -0.000170882 -1.98255e-27)
(-2.34093e-05 -0.000180357 -6.02349e-28)
(1.72975e-05 -0.000181057 3.34743e-26)
(-2.34877e-05 -0.000190661 2.16195e-27)
(1.76637e-05 -0.000191346 -3.03739e-26)
(-2.35481e-05 -0.00020107 5.13356e-26)
(1.79995e-05 -0.000201735 3.38635e-26)
(-2.35925e-05 -0.000211571 4.17252e-26)
(1.83054e-05 -0.000212214 -2.75503e-26)
(-2.36228e-05 -0.000222153 -7.47466e-26)
(1.85824e-05 -0.000222772 -8.70303e-28)
(-2.36407e-05 -0.000232804 1.70776e-26)
(1.88315e-05 -0.000233397 1.91025e-26)
(-2.3648e-05 -0.000243516 1.58276e-26)
(1.90538e-05 -0.000244081 4.40442e-26)
(-2.36465e-05 -0.000254278 -1.13603e-26)
(1.92506e-05 -0.000254814 -7.55307e-27)
(-2.36378e-05 -0.000265083 1.28058e-26)
(1.94232e-05 -0.000265589 -1.31625e-27)
(-2.36234e-05 -0.000275922 -2.22177e-26)
(1.95731e-05 -0.000276399 -5.3564e-27)
(-2.3605e-05 -0.00028679 -1.05881e-26)
(1.97017e-05 -0.000287236 -3.48808e-26)
(-2.35838e-05 -0.000297679 -3.09748e-26)
(1.98105e-05 -0.000298094 8.39624e-26)
(-2.35614e-05 -0.000308586 -5.33453e-26)
(1.99009e-05 -0.00030897 -3.03674e-26)
(-2.35391e-05 -0.000319505 1.66265e-26)
(1.99744e-05 -0.000319857 3.60391e-27)
(-2.35183e-05 -0.000330433 1.15789e-25)
(2.00323e-05 -0.000330752 -3.5262e-26)
(-2.34999e-05 -0.000341366 -4.59369e-26)
(2.00761e-05 -0.000341652 5.13049e-26)
(-2.34849e-05 -0.000352304 -4.23195e-27)
(2.01074e-05 -0.000352555 8.94164e-27)
(-2.34713e-05 -0.000363243 1.73554e-27)
(2.01302e-05 -0.000363457 -8.10836e-26)
(-2.34547e-05 -0.000374175 3.25798e-26)
(2.01514e-05 -0.000374367 3.28464e-27)
(-2.34118e-05 -0.000385078 -5.22499e-26)
(-1.80319e-05 -0.000390505 1.52885e-25)
(-7.2062e-06 -0.000390607 -1.36341e-25)
(3.69457e-06 -0.00039069 2.37812e-25)
(1.46723e-05 -0.000390797 -3.70656e-25)
(2.01961e-05 -0.000385304 7.81488e-27)
)
;
    }
    frontAndBackPlanes
    {
        type            empty;
    }
}


// ************************************************************************* //
