/*--------------------------------*- C++ -*----------------------------------*\
| =========                 |                                                 |
| \\      /  F ield         | OpenFOAM Extend Project: Open source CFD        |
|  \\    /   O peration     | Version:  1.6-ext                               |
|   \\  /    A nd           | Web:      www.extend-project.de                 |
|    \\/     M anipulation  |                                                 |
\*---------------------------------------------------------------------------*/
FoamFile
{
    version     2.0;
    format      ascii;
    class       volScalarField::DimensionedInternalField;
    location    "0.45";
    object      V0;
}
// * * * * * * * * * * * * * * * * * * * * * * * * * * * * * * * * * * * * * //

dimensions      [0 3 0 0 0 0 0];

value           nonuniform List<scalar> 
328
(
2.53346e-07
2.53337e-07
2.53327e-07
2.53333e-07
2.71717e-07
2.71705e-07
2.71698e-07
2.71708e-07
2.91418e-07
2.91405e-07
2.91399e-07
2.91404e-07
3.12546e-07
3.12533e-07
3.12528e-07
3.12529e-07
3.35206e-07
3.35194e-07
3.35189e-07
3.35186e-07
3.59509e-07
3.59497e-07
3.59492e-07
3.59488e-07
3.85573e-07
3.85562e-07
3.85558e-07
3.85551e-07
4.13528e-07
4.13517e-07
4.13513e-07
4.13505e-07
4.4351e-07
4.43499e-07
4.43495e-07
4.43487e-07
4.75665e-07
4.75655e-07
4.75651e-07
4.75642e-07
5.10151e-07
5.10142e-07
5.10138e-07
5.10129e-07
5.47138e-07
5.47129e-07
5.47126e-07
5.47117e-07
5.86807e-07
5.86799e-07
5.86795e-07
5.86787e-07
6.29351e-07
6.29344e-07
6.29341e-07
6.29333e-07
6.7498e-07
6.74974e-07
6.74971e-07
6.74964e-07
7.23917e-07
7.23912e-07
7.2391e-07
7.23904e-07
7.76402e-07
7.76398e-07
7.76397e-07
7.76393e-07
8.32693e-07
8.3269e-07
8.3269e-07
8.32687e-07
8.93064e-07
8.93064e-07
8.93064e-07
8.93064e-07
9.57812e-07
9.57814e-07
9.57816e-07
9.57818e-07
1.02725e-06
1.02726e-06
1.02726e-06
1.02727e-06
1.10173e-06
1.10174e-06
1.10174e-06
1.10175e-06
1.26867e-06
1.26868e-06
1.26869e-06
1.2687e-06
1.26866e-06
1.26868e-06
1.26869e-06
1.26871e-06
1.26866e-06
1.26868e-06
1.26869e-06
1.26871e-06
1.26865e-06
1.26868e-06
1.26869e-06
1.26872e-06
1.26865e-06
1.26868e-06
1.26869e-06
1.26872e-06
1.26865e-06
1.26868e-06
1.26869e-06
1.26872e-06
1.26864e-06
1.26868e-06
1.26869e-06
1.26873e-06
1.26864e-06
1.26868e-06
1.26869e-06
1.26873e-06
1.26864e-06
1.26868e-06
1.2687e-06
1.26874e-06
1.26864e-06
1.26868e-06
1.2687e-06
1.26874e-06
1.26864e-06
1.26868e-06
1.2687e-06
1.26874e-06
1.26863e-06
1.26868e-06
1.2687e-06
1.26874e-06
1.26863e-06
1.26868e-06
1.2687e-06
1.26875e-06
1.26863e-06
1.26868e-06
1.2687e-06
1.26875e-06
1.26863e-06
1.26868e-06
1.2687e-06
1.26875e-06
1.26863e-06
1.26868e-06
1.2687e-06
1.26875e-06
1.26863e-06
1.26868e-06
1.2687e-06
1.26875e-06
1.26863e-06
1.26868e-06
1.2687e-06
1.26875e-06
1.26863e-06
1.26868e-06
1.2687e-06
1.26875e-06
1.26863e-06
1.26868e-06
1.2687e-06
1.26875e-06
1.26863e-06
1.26868e-06
1.2687e-06
1.26875e-06
1.26864e-06
1.26868e-06
1.2687e-06
1.26875e-06
1.26864e-06
1.26868e-06
1.2687e-06
1.26875e-06
1.26864e-06
1.26868e-06
1.2687e-06
1.26875e-06
1.26864e-06
1.26868e-06
1.2687e-06
1.26875e-06
1.26864e-06
1.26868e-06
1.2687e-06
1.26874e-06
1.26864e-06
1.26868e-06
1.2687e-06
1.26874e-06
1.26864e-06
1.26868e-06
1.2687e-06
1.26874e-06
1.26865e-06
1.26868e-06
1.2687e-06
1.26874e-06
1.26865e-06
1.26868e-06
1.2687e-06
1.26873e-06
1.26865e-06
1.26868e-06
1.2687e-06
1.26873e-06
1.26865e-06
1.26868e-06
1.2687e-06
1.26873e-06
1.26865e-06
1.26868e-06
1.2687e-06
1.26873e-06
1.26866e-06
1.26868e-06
1.2687e-06
1.26872e-06
1.26866e-06
1.26868e-06
1.2687e-06
1.26872e-06
1.26866e-06
1.26868e-06
1.26869e-06
1.26872e-06
1.26866e-06
1.26868e-06
1.26869e-06
1.26872e-06
1.26867e-06
1.26868e-06
1.26869e-06
1.26871e-06
1.26867e-06
1.26868e-06
1.26869e-06
1.26871e-06
1.26867e-06
1.26869e-06
1.26869e-06
1.26871e-06
1.26867e-06
1.26869e-06
1.26869e-06
1.26871e-06
1.26867e-06
1.26869e-06
1.26869e-06
1.2687e-06
1.26867e-06
1.26869e-06
1.26869e-06
1.2687e-06
1.26868e-06
1.26869e-06
1.26869e-06
1.2687e-06
1.26868e-06
1.26869e-06
1.26869e-06
1.2687e-06
1.26868e-06
1.26869e-06
1.26869e-06
1.2687e-06
1.26868e-06
1.26869e-06
1.26869e-06
1.2687e-06
1.26868e-06
1.26869e-06
1.26869e-06
1.26869e-06
1.26868e-06
1.26869e-06
1.26869e-06
1.26869e-06
1.26868e-06
1.26869e-06
1.26869e-06
1.26869e-06
1.26868e-06
1.26869e-06
1.26869e-06
1.26869e-06
1.26868e-06
1.26869e-06
1.26869e-06
1.26869e-06
1.26868e-06
1.26869e-06
1.26869e-06
1.26869e-06
1.26869e-06
1.26869e-06
1.26869e-06
1.26869e-06
1.26869e-06
1.26869e-06
1.26869e-06
1.26869e-06
1.26869e-06
1.26869e-06
1.26869e-06
1.26869e-06
1.26869e-06
1.26869e-06
1.26869e-06
1.26869e-06
1.26869e-06
1.26869e-06
1.26869e-06
1.26869e-06
1.26869e-06
1.26869e-06
1.26869e-06
1.26869e-06
1.26869e-06
1.26868e-06
1.26868e-06
1.26868e-06
)
;


// ************************************************************************* //
