/*--------------------------------*- C++ -*----------------------------------*\
| =========                 |                                                 |
| \\      /  F ield         | OpenFOAM Extend Project: Open source CFD        |
|  \\    /   O peration     | Version:  1.6-ext                               |
|   \\  /    A nd           | Web:      www.extend-project.de                 |
|    \\/     M anipulation  |                                                 |
\*---------------------------------------------------------------------------*/
FoamFile
{
    version     2.0;
    format      ascii;
    class       volVectorField;
    location    "0.45";
    object      Vs;
}
// * * * * * * * * * * * * * * * * * * * * * * * * * * * * * * * * * * * * * //

dimensions      [0 1 -1 0 0 0 0];

internalField   nonuniform List<vector> 
328
(
(5.35314e-06 3.74939e-06 0)
(4.63547e-06 6.82668e-07 0)
(4.59182e-06 -8.42067e-07 0)
(5.16976e-06 -3.62263e-06 0)
(1.64045e-05 9.64719e-06 0)
(1.45452e-05 2.05707e-06 0)
(1.43938e-05 -2.43366e-06 0)
(1.58294e-05 -9.34555e-06 0)
(2.86199e-05 1.40885e-05 0)
(2.59713e-05 3.41958e-06 0)
(2.56653e-05 -3.91124e-06 0)
(2.75743e-05 -1.36425e-05 0)
(4.18178e-05 1.73167e-05 0)
(3.86291e-05 4.65692e-06 0)
(3.81431e-05 -5.15593e-06 0)
(4.02446e-05 -1.67136e-05 0)
(5.61073e-05 1.96473e-05 0)
(5.26273e-05 5.72768e-06 0)
(5.19337e-05 -6.11815e-06 0)
(5.39424e-05 -1.8831e-05 0)
(7.15091e-05 2.1327e-05 0)
(6.79067e-05 6.62384e-06 0)
(6.69832e-05 -6.77263e-06 0)
(6.86897e-05 -2.02014e-05 0)
(8.81055e-05 2.25642e-05 0)
(8.45031e-05 7.37474e-06 0)
(8.33267e-05 -7.12494e-06 0)
(8.45638e-05 -2.09928e-05 0)
(0.000105973 2.3522e-05 0)
(0.00010243 8.02794e-06 0)
(0.000100977 -7.19065e-06 0)
(0.000101636 -2.13259e-05 0)
(0.000125205 2.43353e-05 0)
(0.000121732 8.64477e-06 0)
(0.000119978 -6.99068e-06 0)
(0.000119992 -2.12886e-05 0)
(0.000145899 2.51154e-05 0)
(0.000142465 9.29156e-06 0)
(0.000140382 -6.54121e-06 0)
(0.000139721 -2.09382e-05 0)
(0.00016816 2.59575e-05 0)
(0.000164705 1.00366e-05 0)
(0.000162261 -5.84933e-06 0)
(0.00016092 -2.03072e-05 0)
(0.000192101 2.69456e-05 0)
(0.00018854 1.09477e-05 0)
(0.000185701 -4.9086e-06 0)
(0.000183686 -1.94041e-05 0)
(0.000217838 2.8157e-05 0)
(0.000214078 1.20927e-05 0)
(0.000210804 -3.69715e-06 0)
(0.000208126 -1.82165e-05 0)
(0.000245495 2.9666e-05 0)
(0.000241438 1.35407e-05 0)
(0.000237684 -2.17626e-06 0)
(0.00023435 -1.67109e-05 0)
(0.000275207 3.15487e-05 0)
(0.000270754 1.5365e-05 0)
(0.00026647 -2.89805e-07 0)
(0.000262474 -1.48343e-05 0)
(0.000307112 3.38871e-05 0)
(0.000302168 1.76468e-05 0)
(0.0002973 2.03625e-06 0)
(0.000292623 -1.2514e-05 0)
(0.000341362 3.67734e-05 0)
(0.000335835 2.04787e-05 0)
(0.000330319 4.89454e-06 0)
(0.000324928 -9.6577e-06 0)
(0.000378116 4.0315e-05 0)
(0.000371915 2.39693e-05 0)
(0.000365685 8.39756e-06 0)
(0.000359532 -6.1523e-06 0)
(0.000417543 4.46382e-05 0)
(0.000410578 2.8247e-05 0)
(0.000403558 1.26795e-05 0)
(0.000396581 -1.86253e-06 0)
(0.000459819 4.98927e-05 0)
(0.000452 3.34641e-05 0)
(0.000444108 1.78992e-05 0)
(0.000436233 3.37178e-06 0)
(0.00050513 5.6256e-05 0)
(0.000496362 3.98012e-05 0)
(0.00048751 2.4243e-05 0)
(0.000478652 9.73911e-06 0)
(0.000553666 6.39373e-05 0)
(0.00054385 4.74714e-05 0)
(0.000533943 3.19296e-05 0)
(0.00052401 1.74603e-05 0)
(0.000607605 7.35351e-05 0)
(0.000596593 5.70781e-05 0)
(0.000585485 4.15686e-05 0)
(0.000574332 2.71495e-05 0)
(0.000665174 8.51246e-05 0)
(0.000652856 6.87027e-05 0)
(0.000640438 5.32466e-05 0)
(0.000627955 3.88951e-05 0)
(0.000722528 9.8047e-05 0)
(0.000708884 8.16896e-05 0)
(0.00069514 6.6309e-05 0)
(0.000681312 5.20419e-05 0)
(0.000779618 0.000112315 0)
(0.00076464 9.60533e-05 0)
(0.00074956 8.07725e-05 0)
(0.00073438 6.66077e-05 0)
(0.000836395 0.000127934 0)
(0.000820081 0.000111801 0)
(0.000803667 9.66461e-05 0)
(0.000787132 8.26031e-05 0)
(0.000892806 0.0001449 0)
(0.000875165 0.000128931 0)
(0.000857425 0.00011393 0)
(0.000839545 0.00010003 0)
(0.000948797 0.000163199 0)
(0.000929849 0.000147433 0)
(0.000910802 0.000132615 0)
(0.000891595 0.00011888 0)
(0.00100431 0.000182808 0)
(0.000984086 0.000167284 0)
(0.000963761 0.000152681 0)
(0.000943255 0.000139136 0)
(0.00105929 0.000203689 0)
(0.00103783 0.00018845 0)
(0.00101627 0.000174096 0)
(0.000994499 0.000160765 0)
(0.00111368 0.000225795 0)
(0.00109104 0.000210885 0)
(0.00106828 0.000196813 0)
(0.0010453 0.000183724 0)
(0.00116742 0.000249067 0)
(0.00114365 0.000234528 0)
(0.00111977 0.000220775 0)
(0.00109564 0.000207955 0)
(0.00122045 0.000273434 0)
(0.00119564 0.00025931 0)
(0.0011707 0.000245911 0)
(0.00114548 0.00023339 0)
(0.00127271 0.000298815 0)
(0.00124694 0.000285147 0)
(0.00122103 0.000272138 0)
(0.00119479 0.000259946 0)
(0.00132416 0.00032512 0)
(0.00129752 0.00031195 0)
(0.00127072 0.000299365 0)
(0.00124355 0.000287531 0)
(0.00137475 0.000352254 0)
(0.00134734 0.000339618 0)
(0.00131974 0.00032749 0)
(0.00129174 0.000316041 0)
(0.00142443 0.000380116 0)
(0.00139635 0.000368046 0)
(0.00136805 0.000356406 0)
(0.00133932 0.000345368 0)
(0.00147317 0.000408601 0)
(0.00144453 0.000397126 0)
(0.00141564 0.000385998 0)
(0.00138626 0.000375396 0)
(0.00152094 0.000437603 0)
(0.00149185 0.000426744 0)
(0.00146246 0.000416151 0)
(0.00143255 0.000406005 0)
(0.00156772 0.000467015 0)
(0.00153829 0.000456788 0)
(0.00150851 0.000446747 0)
(0.00147817 0.000437073 0)
(0.0016135 0.00049673 0)
(0.00158382 0.000487146 0)
(0.00155376 0.000477668 0)
(0.00152309 0.00046848 0)
(0.00165825 0.000526647 0)
(0.00162844 0.000517707 0)
(0.00159819 0.000508799 0)
(0.00156729 0.000500104 0)
(0.001702 0.000556664 0)
(0.00167214 0.000548366 0)
(0.0016418 0.000540028 0)
(0.00161078 0.000531831 0)
(0.00174473 0.000586687 0)
(0.00171492 0.000579021 0)
(0.00168458 0.000571251 0)
(0.00165352 0.000563552 0)
(0.00178646 0.000616628 0)
(0.00175679 0.00060958 0)
(0.00172653 0.000602368 0)
(0.00169552 0.000595165 0)
(0.00182722 0.000646405 0)
(0.00179774 0.000639956 0)
(0.00176764 0.000633292 0)
(0.00173676 0.000626579 0)
(0.001867 0.000675946 0)
(0.0018378 0.000670075 0)
(0.00180792 0.000663945 0)
(0.00177724 0.000657714 0)
(0.00190585 0.000705187 0)
(0.00187697 0.000699871 0)
(0.00184736 0.000694259 0)
(0.00181695 0.000688504 0)
(0.00194379 0.000734077 0)
(0.00191526 0.000729292 0)
(0.00188598 0.000724183 0)
(0.00185588 0.000718897 0)
(0.00198082 0.000762572 0)
(0.00195269 0.000758296 0)
(0.00192377 0.000753677 0)
(0.00189402 0.000748852 0)
(0.00201699 0.000790642 0)
(0.00198926 0.000786854 0)
(0.00196073 0.000782712 0)
(0.00193136 0.000778346 0)
(0.0020523 0.000818268 0)
(0.00202499 0.000814951 0)
(0.00199685 0.000811277 0)
(0.00196788 0.000807367 0)
(0.00208677 0.00084544 0)
(0.00205987 0.000842582 0)
(0.00203214 0.000839369 0)
(0.00200356 0.000835917 0)
(0.0021204 0.000872161 0)
(0.00209392 0.000869752 0)
(0.00206658 0.000866998 0)
(0.0020384 0.000864009 0)
(0.00215322 0.000898441 0)
(0.00212712 0.000896477 0)
(0.00210016 0.000894184 0)
(0.00207238 0.000891665 0)
(0.00218521 0.000924301 0)
(0.00215948 0.000922783 0)
(0.00213287 0.000920955 0)
(0.00210546 0.000918915 0)
(0.00221637 0.000949768 0)
(0.00219097 0.0009487 0)
(0.0021647 0.000947346 0)
(0.00213764 0.000945798 0)
(0.00224669 0.000974876 0)
(0.00222159 0.000974265 0)
(0.00219563 0.000973395 0)
(0.00216888 0.000972353 0)
(0.00227617 0.000999662 0)
(0.00225134 0.000999519 0)
(0.00222564 0.000999146 0)
(0.00219917 0.000998625 0)
(0.00230479 0.00102417 0)
(0.00228018 0.00102451 0)
(0.00225472 0.00102464 0)
(0.0022285 0.00102466 0)
(0.00233253 0.00104844 0)
(0.0023081 0.00104927 0)
(0.00228284 0.00104993 0)
(0.00225683 0.0010505 0)
(0.00235937 0.00107251 0)
(0.00233509 0.00107386 0)
(0.00231 0.00107506 0)
(0.00228416 0.00107619 0)
(0.00238531 0.00109643 0)
(0.00236114 0.00109831 0)
(0.00233617 0.00110006 0)
(0.00231047 0.00110177 0)
(0.00241031 0.00112024 0)
(0.00238622 0.00112266 0)
(0.00236134 0.00112498 0)
(0.00233576 0.00112729 0)
(0.00243438 0.00114398 0)
(0.00241033 0.00114695 0)
(0.00238552 0.00114986 0)
(0.00236001 0.00115276 0)
(0.00245749 0.00116768 0)
(0.00243345 0.00117122 0)
(0.00240868 0.00117471 0)
(0.00238322 0.00117822 0)
(0.00247964 0.00119138 0)
(0.00245559 0.00119549 0)
(0.00243083 0.00119958 0)
(0.0024054 0.00120369 0)
(0.00250081 0.00121509 0)
(0.00247674 0.00121979 0)
(0.00245197 0.00122447 0)
(0.00242655 0.0012292 0)
(0.00252102 0.00123885 0)
(0.0024969 0.00124414 0)
(0.00247212 0.00124942 0)
(0.00244669 0.00125475 0)
(0.00254026 0.00126268 0)
(0.00251608 0.00126855 0)
(0.00249127 0.00127442 0)
(0.00246583 0.00128035 0)
(0.00255854 0.00128658 0)
(0.0025343 0.00129303 0)
(0.00250945 0.00129949 0)
(0.00248399 0.00130601 0)
(0.00257589 0.00131057 0)
(0.00255158 0.00131759 0)
(0.00252668 0.00132463 0)
(0.0025012 0.00133172 0)
(0.00259232 0.00133466 0)
(0.00256793 0.00134223 0)
(0.00254299 0.00134983 0)
(0.0025175 0.00135747 0)
(0.00260787 0.00135885 0)
(0.00258341 0.00136696 0)
(0.00255843 0.00137508 0)
(0.00253293 0.00138325 0)
(0.00262257 0.00138314 0)
(0.00259804 0.00139175 0)
(0.00257303 0.00140038 0)
(0.00254753 0.00140905 0)
(0.00263649 0.00140753 0)
(0.0026119 0.00141662 0)
(0.00258686 0.00142571 0)
(0.00256137 0.00143484 0)
(0.00264969 0.00143203 0)
(0.00262503 0.00144154 0)
(0.00259998 0.00145106 0)
(0.00257451 0.00146059 0)
(0.00266224 0.00145662 0)
(0.00263753 0.00146651 0)
(0.00261247 0.00147639 0)
(0.00258703 0.00148628 0)
(0.00267422 0.00148132 0)
(0.00264948 0.00149151 0)
(0.00262441 0.00150168 0)
(0.00259901 0.00151188 0)
(0.00268575 0.00150611 0)
(0.002661 0.00151654 0)
(0.00263594 0.00152693 0)
(0.00261056 0.00153737 0)
(0.0026969 0.00153097 0)
(0.00267218 0.00154157 0)
(0.00264712 0.00155214 0)
(0.00262173 0.00156273 0)
)
;

boundaryField
{
    plateFix
    {
        type            calculated;
        value           uniform (0 0 0);
    }
    plate
    {
        type            calculated;
        value           nonuniform List<vector> 
168
(
(2.18294e-05 1.01741e-05 2.89008e-23)
(2.1163e-05 -9.41151e-06 2.83527e-23)
(2.84979e-05 1.63096e-05 -2.19479e-23)
(2.75879e-05 -1.53291e-05 -4.05914e-23)
(3.698e-05 2.1093e-05 -9.12843e-24)
(3.56386e-05 -1.99178e-05 1.92079e-23)
(4.7457e-05 2.44806e-05 -2.92191e-23)
(4.55373e-05 -2.31176e-05 -1.00419e-23)
(5.9888e-05 2.69505e-05 3.65616e-23)
(5.72573e-05 -2.53466e-05 -1.4464e-23)
(7.40586e-05 2.87268e-05 7.5566e-24)
(7.06021e-05 -2.67909e-05 1.79224e-23)
(8.98789e-05 3.00511e-05 -1.25418e-23)
(8.54869e-05 -2.76476e-05 -2.53413e-23)
(0.000107292 3.10871e-05 1.61772e-23)
(0.000101856 -2.80372e-05 3.68502e-23)
(0.000126299 3.19754e-05 5.94135e-24)
(0.000119704 -2.80523e-05 -1.8367e-23)
(0.00014693 3.28267e-05 -2.25277e-23)
(0.000139053 -2.77492e-05 1.36242e-24)
(0.000169244 3.37362e-05 -1.84477e-24)
(0.000159949 -2.71598e-05 -2.61421e-24)
(0.000193318 3.4787e-05 7.05021e-24)
(0.000182456 -2.6292e-05 1.62376e-23)
(0.000219246 3.60561e-05 -5.47084e-25)
(0.000206651 -2.51328e-05 -1.21326e-23)
(0.00024714 3.76177e-05 -1.50446e-24)
(0.000232625 -2.3649e-05 1.37506e-23)
(0.000277122 3.95483e-05 1.16976e-23)
(0.000260481 -2.17879e-05 -1.7929e-23)
(0.000309331 4.193e-05 -1.16994e-23)
(0.000290334 -1.94774e-05 2.23113e-24)
(0.000343915 4.48554e-05 5.61964e-24)
(0.00032231 -1.66259e-05 4.39442e-25)
(0.000381037 4.84319e-05 -3.21271e-24)
(0.000356545 -1.31207e-05 1.68736e-24)
(0.000420869 5.27854e-05 1.09582e-23)
(0.000393183 -8.82684e-06 1.09903e-23)
(0.000463591 5.8065e-05 1.08266e-24)
(0.000432379 -3.58406e-06 -2.98715e-24)
(0.000509393 6.44468e-05 3.57807e-25)
(0.000474296 2.79654e-06 1.07593e-24)
(0.00055847 7.21387e-05 -7.57527e-24)
(0.000519102 1.05366e-05 1.23968e-25)
(0.000613026 8.17362e-05 1.52991e-24)
(0.000568796 2.02524e-05 -2.73633e-24)
(0.000671268 9.33121e-05 3.07867e-25)
(0.000621736 3.20324e-05 -1.67222e-24)
(0.000729306 0.000106205 3.56174e-25)
(0.000674401 4.52215e-05 1.0553e-23)
(0.000787087 0.000120428 -1.76875e-24)
(0.000726772 5.98377e-05 -1.20112e-23)
(0.000844558 0.000135983 4.10462e-25)
(0.000778827 7.58925e-05 4.15773e-24)
(0.000901661 0.000152867 8.07261e-24)
(0.000830546 9.33883e-05 -2.0992e-24)
(0.000958336 0.000171063 -1.36209e-23)
(0.000881909 0.000112318 -3.41743e-24)
(0.00101452 0.000190547 5.62545e-24)
(0.000932896 0.000132664 -1.73221e-24)
(0.00107015 0.000211282 -5.62772e-25)
(0.000983485 0.000154395 4.9543e-24)
(0.00112516 0.000233219 1.40624e-24)
(0.00103366 0.000177468 -2.17004e-24)
(0.00117948 0.000256298 3.14124e-26)
(0.00108339 0.000201828 2.33763e-24)
(0.00123305 0.000280449 -9.29626e-25)
(0.00113266 0.000227405 -1.47002e-24)
(0.00128581 0.000305591 1.05461e-24)
(0.00118145 0.000254116 -1.39495e-24)
(0.0013377 0.000331638 -3.22289e-24)
(0.00122972 0.00028187 4.76003e-24)
(0.00138868 0.000358494 -1.00369e-24)
(0.00127747 0.000310564 -3.27996e-24)
(0.00143869 0.000386061 -2.57453e-24)
(0.00132465 0.000340086 1.60641e-24)
(0.0014877 0.000414236 1.44997e-24)
(0.00137126 0.000370321 1.54525e-25)
(0.00153569 0.000442918 9.68975e-25)
(0.00141726 0.000401147 -3.77831e-24)
(0.00158262 0.000472001 -1.83356e-24)
(0.00146265 0.000432441 1.89535e-24)
(0.00162848 0.000501384 -1.35136e-24)
(0.00150739 0.000464079 2.45478e-24)
(0.00167328 0.000530967 -1.5718e-24)
(0.00155147 0.00049594 -3.534e-24)
(0.001717 0.000560654 -2.568e-24)
(0.00159488 0.000527905 1.47736e-24)
(0.00175967 0.000590352 6.09115e-24)
(0.0016376 0.000559865 6.6415e-24)
(0.0018013 0.000619976 -4.69172e-24)
(0.00167963 0.000591716 -6.7609e-25)
(0.0018419 0.000649447 2.40419e-24)
(0.00172094 0.000623366 -1.68023e-24)
(0.00188151 0.000678694 5.53554e-24)
(0.00176152 0.000654735 -2.12094e-24)
(0.00192016 0.000707655 -1.38997e-24)
(0.00180137 0.000685755 3.24649e-24)
(0.00195786 0.000736277 -6.55541e-24)
(0.00184047 0.000716375 -1.36512e-23)
(0.00199467 0.000764517 -6.1073e-24)
(0.0018788 0.000746556 8.6528e-24)
(0.00203059 0.000792343 9.42559e-24)
(0.00191634 0.000776275 -4.97213e-24)
(0.00206566 0.000819735 6.72782e-24)
(0.00195308 0.000805521 6.80172e-24)
(0.00209989 0.000846681 -1.09819e-23)
(0.00198899 0.000834297 -2.16034e-24)
(0.0021333 0.00087318 1.31903e-23)
(0.00202405 0.000862619 9.4213e-24)
(0.0021659 0.000899243 -1.17811e-23)
(0.00205823 0.000890509 1.33622e-24)
(0.0021977 0.000924885 -8.78436e-24)
(0.00209152 0.000918 -1.30722e-24)
(0.00222869 0.000950133 6.07359e-24)
(0.00212389 0.000945129 -4.98568e-24)
(0.00225886 0.000975017 2.756e-24)
(0.0021553 0.000971939 -4.87573e-24)
(0.00228821 0.000999575 8.26728e-24)
(0.00218575 0.000998474 -2.65008e-24)
(0.00231673 0.00102385 -8.375e-24)
(0.00221521 0.00102478 -1.19256e-23)
(0.00234439 0.00104787 1.08781e-24)
(0.00224366 0.0010509 2.52553e-24)
(0.00237117 0.00107169 5.25009e-24)
(0.00227108 0.00107688 1.39555e-23)
(0.00239707 0.00109536 -5.13808e-24)
(0.00229747 0.00110275 -5.60511e-24)
(0.00242206 0.0011189 -1.53536e-23)
(0.00232282 0.00112856 8.26817e-24)
(0.00244612 0.00114237 1.14496e-23)
(0.00234711 0.00115433 -4.56173e-24)
(0.00246925 0.00116579 4.0143e-24)
(0.00237035 0.0011801 -2.87035e-24)
(0.00249142 0.0011892 -9.83067e-26)
(0.00239255 0.00120588 -7.08284e-24)
(0.00251263 0.00121262 5.56651e-24)
(0.00241371 0.00123169 -5.00982e-24)
(0.00253288 0.00123609 -1.19353e-23)
(0.00243384 0.00125754 -3.9424e-24)
(0.00255217 0.00125963 -2.43704e-24)
(0.00245297 0.00128344 6.19745e-24)
(0.0025705 0.00128324 -1.23687e-24)
(0.00247112 0.00130939 -8.94901e-24)
(0.0025879 0.00130695 -5.73228e-24)
(0.00248832 0.00133538 2.26456e-23)
(0.00260438 0.00133076 2.38734e-24)
(0.00250461 0.00136141 -6.64419e-24)
(0.00261999 0.00135469 9.87076e-24)
(0.00252004 0.00138745 4.6026e-24)
(0.00263474 0.00137873 7.11726e-24)
(0.00253465 0.00141349 -8.67996e-24)
(0.00264871 0.00140289 -1.78384e-24)
(0.00254851 0.00143951 -1.23061e-25)
(0.00266195 0.00142717 -1.19857e-23)
(0.00256167 0.00146546 1.22447e-23)
(0.00267455 0.00145158 2.11202e-24)
(0.00257424 0.00149133 -9.36529e-24)
(0.00268657 0.00147613 -4.58011e-24)
(0.00258627 0.00151708 6.27501e-26)
(0.00269814 0.00150079 1.68308e-25)
(0.00259787 0.00154268 -7.81633e-26)
(0.00270927 0.00152559 4.66745e-24)
(0.00270241 0.00154334 -8.65662e-24)
(0.00267772 0.00155403 -2.02414e-23)
(0.00265266 0.00156477 2.34757e-23)
(0.00262725 0.00157544 -1.48272e-23)
(0.00260906 0.00156811 -1.00437e-23)
)
;
    }
    frontAndBackPlanes
    {
        type            empty;
    }
}


// ************************************************************************* //
