/*--------------------------------*- C++ -*----------------------------------*\
| =========                 |                                                 |
| \\      /  F ield         | OpenFOAM Extend Project: Open source CFD        |
|  \\    /   O peration     | Version:  1.6-ext                               |
|   \\  /    A nd           | Web:      www.extend-project.de                 |
|    \\/     M anipulation  |                                                 |
\*---------------------------------------------------------------------------*/
FoamFile
{
    version     2.0;
    format      ascii;
    class       volScalarField;
    location    "3.8";
    object      p;
}
// * * * * * * * * * * * * * * * * * * * * * * * * * * * * * * * * * * * * * //

dimensions      [0 2 -2 0 0 0 0];

internalField   nonuniform List<scalar> 
72
(
-0.0296554
-0.030756
-0.0299051
-0.0274956
-0.0234605
-0.017879
-0.0112767
-0.00603892
0.00534855
-0.0285221
-0.0297371
-0.0291107
-0.0272605
-0.0239611
-0.019048
-0.0128124
-0.0078893
0.00493163
-0.0296956
-0.0311238
-0.0308037
-0.0293672
-0.026396
-0.0215315
-0.0149084
-0.00945006
0.00470463
-0.0328329
-0.0342096
-0.0342059
-0.0332149
-0.0305248
-0.025564
-0.0183128
-0.0118877
0.00382355
-0.0379303
-0.0387164
-0.0389208
-0.0383875
-0.0359692
-0.0308825
-0.0228702
-0.0143337
0.00131766
-0.0447677
-0.0438825
-0.0441369
-0.0439744
-0.0418446
-0.036515
-0.0279277
-0.0169074
-0.00169238
-0.0527814
-0.0483587
-0.0484655
-0.0482164
-0.0461611
-0.0406257
-0.0313996
-0.0190074
-0.00421286
-0.0704412
-0.0532748
-0.0512649
-0.050251
-0.0476212
-0.0416048
-0.0320356
-0.0192864
-0.00556041
)
;

boundaryField
{
    inlet
    {
        type            zeroGradient;
    }
    outlet
    {
        type            totalPressure;
        rho             none;
        psi             none;
        gamma           1;
        p0              uniform 0;
        value           nonuniform List<scalar> 8(-2.83498e-05 -0.000314251 0 0 0 0 0 0);
    }
    fixedWalls
    {
        type            zeroGradient;
    }
    frontAndBack
    {
        type            empty;
    }
    procBoundary0to1
    {
        type            processor;
        value           nonuniform List<scalar> 9(-0.0627999 -0.0540264 -0.0505501 -0.0483307 -0.0448277 -0.0383205 -0.0290208 -0.0171469 -0.00565153);
    }
}


// ************************************************************************* //
