/*--------------------------------*- C++ -*----------------------------------*\
| =========                 |                                                 |
| \\      /  F ield         | OpenFOAM Extend Project: Open source CFD        |
|  \\    /   O peration     | Version:  1.6-ext                               |
|   \\  /    A nd           | Web:      www.extend-project.de                 |
|    \\/     M anipulation  |                                                 |
\*---------------------------------------------------------------------------*/
FoamFile
{
    version     2.0;
    format      ascii;
    class       surfaceScalarField;
    location    "3.8";
    object      phi;
}
// * * * * * * * * * * * * * * * * * * * * * * * * * * * * * * * * * * * * * //

dimensions      [0 3 -1 0 0 0 0];

internalField   nonuniform List<scalar> 
127
(
-3.89313e-06
3.89313e-06
-1.28558e-05
8.96263e-06
-2.26205e-05
9.76479e-06
-3.0458e-05
7.83741e-06
-3.46873e-05
4.22935e-06
-3.42115e-05
-4.75851e-07
-2.84886e-05
-5.72287e-06
-1.80598e-05
-1.04288e-05
-1.56856e-05
-9.72314e-06
1.36163e-05
-2.66294e-05
2.58689e-05
-4.31603e-05
2.62957e-05
-5.47531e-05
1.94302e-05
-5.8845e-05
8.32121e-06
-5.44611e-05
-4.8597e-06
-4.17872e-05
-1.83968e-05
-2.23876e-05
-2.98284e-05
-3.79449e-05
-1.19884e-05
2.56047e-05
-3.12741e-05
4.51546e-05
-4.89511e-05
4.39727e-05
-5.99958e-05
3.04749e-05
-6.18274e-05
1.01528e-05
-5.38466e-05
-1.28405e-05
-3.68099e-05
-3.54335e-05
-1.20995e-05
-5.45388e-05
-6.42327e-05
-1.19139e-05
3.75186e-05
-2.97329e-05
6.29736e-05
-4.49569e-05
5.91967e-05
-5.30086e-05
3.85266e-05
-5.15605e-05
8.70467e-06
-4.04826e-05
-2.39184e-05
-2.07504e-05
-5.51657e-05
6.97306e-06
-8.22623e-05
-9.21997e-05
-1.0062e-05
4.75805e-05
-2.21838e-05
7.50954e-05
-3.06603e-05
6.76731e-05
-3.21859e-05
4.00523e-05
-2.51661e-05
1.68492e-06
-1.01341e-05
-3.89504e-05
1.16222e-05
-7.69219e-05
3.87958e-05
-0.000109436
-0.000121214
-6.05798e-06
5.36385e-05
-6.61349e-06
7.5651e-05
-2.07438e-06
6.3134e-05
8.41999e-06
2.95579e-05
2.4057e-05
-1.39521e-05
4.47508e-05
-5.96442e-05
6.91102e-05
-0.000101281
9.4585e-05
-0.000134911
-0.000147656
4.74919e-06
4.88893e-05
2.30402e-05
5.73599e-05
4.78225e-05
3.83518e-05
7.48464e-05
2.53392e-06
0.000101916
-4.1022e-05
0.000128838
-8.6566e-05
0.000154116
-0.000126559
0.000177079
-0.000157874
-0.000167763
3.81833e-05
8.43816e-05
0.00013093
0.000172426
0.00020837
0.000238301
0.000261457
0.00027846
)
;

boundaryField
{
    inlet
    {
        type            calculated;
        value           nonuniform 0();
    }
    outlet
    {
        type            calculated;
        value           nonuniform List<scalar> 8(-2.37418e-06 -1.28337e-07 1.41884e-05 3.494e-05 6.78106e-05 0.000121026 0.000197187 0.000288549);
    }
    fixedWalls
    {
        type            calculated;
        value           uniform 0;
    }
    frontAndBack
    {
        type            empty;
    }
    procBoundary0to1
    {
        type            processor;
        value           nonuniform List<scalar> 9(1.0706e-05 1.11616e-05 -8.19633e-06 -3.89628e-05 -7.6966e-05 -0.000116496 -0.000149716 -0.000174877 -0.000177852);
    }
}


// ************************************************************************* //
