/*--------------------------------*- C++ -*----------------------------------*\
| =========                 |                                                 |
| \\      /  F ield         | OpenFOAM Extend Project: Open source CFD        |
|  \\    /   O peration     | Version:  1.6-ext                               |
|   \\  /    A nd           | Web:      www.extend-project.de                 |
|    \\/     M anipulation  |                                                 |
\*---------------------------------------------------------------------------*/
FoamFile
{
    version     2.0;
    format      ascii;
    class       surfaceScalarField;
    location    "4.4";
    object      phi;
}
// * * * * * * * * * * * * * * * * * * * * * * * * * * * * * * * * * * * * * //

dimensions      [0 3 -1 0 0 0 0];

internalField   nonuniform List<scalar> 
127
(
-3.15743e-06
3.15743e-06
-1.13798e-05
8.22241e-06
-2.11079e-05
9.72807e-06
-2.99019e-05
8.79401e-06
-3.60149e-05
6.11294e-06
-3.79134e-05
1.89859e-06
-3.44245e-05
-3.48897e-06
-2.51691e-05
-9.2554e-06
-1.5367e-05
-9.06686e-06
1.22243e-05
-2.57727e-05
2.49283e-05
-4.34517e-05
2.74071e-05
-5.78144e-05
2.31567e-05
-6.60154e-05
1.43139e-05
-6.61842e-05
2.06737e-06
-5.74319e-05
-1.22413e-05
-4.04956e-05
-2.61916e-05
-3.80606e-05
-1.15319e-05
2.37562e-05
-3.09659e-05
4.43622e-05
-5.02975e-05
4.67387e-05
-6.47665e-05
3.76257e-05
-7.1547e-05
2.10945e-05
-6.91115e-05
-3.68062e-07
-5.71642e-05
-2.41886e-05
-3.65508e-05
-4.68051e-05
-6.30511e-05
-1.1279e-05
3.50352e-05
-2.88901e-05
6.19733e-05
-4.52952e-05
6.31438e-05
-5.63103e-05
4.86408e-05
-5.96352e-05
2.44193e-05
-5.44432e-05
-5.56007e-06
-4.08543e-05
-3.77775e-05
-1.9558e-05
-6.81014e-05
-8.56546e-05
-9.19772e-06
4.4233e-05
-2.05542e-05
7.33298e-05
-2.93139e-05
7.19036e-05
-3.28071e-05
5.21339e-05
-2.97234e-05
2.13357e-05
-2.00069e-05
-1.52766e-05
-4.64571e-06
-5.31386e-05
1.74179e-05
-9.0165e-05
-0.000109001
-5.53578e-06
4.97687e-05
-5.44371e-06
7.32377e-05
-8.78884e-07
6.73388e-05
8.39414e-06
4.28608e-05
2.18666e-05
7.86332e-06
3.87726e-05
-3.21826e-05
5.84433e-05
-7.28094e-05
7.88503e-05
-0.000110572
-0.000131792
4.05314e-06
4.57156e-05
2.15762e-05
5.57146e-05
4.57662e-05
4.31488e-05
7.18858e-05
1.67413e-05
9.80522e-05
-1.83031e-05
0.000123589
-5.7719e-05
0.000147071
-9.62922e-05
0.00016759
-0.000131091
-0.000150584
3.54324e-05
7.87411e-05
0.000123594
0.000164629
0.000200794
0.000231712
0.000256222
0.000274455
)
;

boundaryField
{
    inlet
    {
        type            calculated;
        value           nonuniform 0();
    }
    outlet
    {
        type            calculated;
        value           nonuniform List<scalar> 8(-9.80204e-06 -1.78021e-05 -1.15602e-05 3.0455e-06 4.07643e-05 0.000101641 0.000186382 0.00028602);
    }
    fixedWalls
    {
        type            calculated;
        value           uniform 0;
    }
    frontAndBack
    {
        type            empty;
    }
    procBoundary0to1
    {
        type            processor;
        value           nonuniform List<scalar> 9(1.02832e-05 1.2406e-05 -1.70365e-06 -2.42939e-05 -5.44681e-05 -8.86377e-05 -0.000120801 -0.000149325 -0.000162148);
    }
}


// ************************************************************************* //
