/*--------------------------------*- C++ -*----------------------------------*\
| =========                 |                                                 |
| \\      /  F ield         | OpenFOAM Extend Project: Open source CFD        |
|  \\    /   O peration     | Version:  1.6-ext                               |
|   \\  /    A nd           | Web:      www.extend-project.de                 |
|    \\/     M anipulation  |                                                 |
\*---------------------------------------------------------------------------*/
FoamFile
{
    version     2.0;
    format      ascii;
    class       volVectorField;
    location    "4.4";
    object      U;
}
// * * * * * * * * * * * * * * * * * * * * * * * * * * * * * * * * * * * * * //

dimensions      [0 1 -1 0 0 0 0];

internalField   nonuniform List<vector> 
72
(
(-0.00067025 0.000540514 0)
(-0.00622809 0.00265361 0)
(-0.0163039 0.00352255 0)
(-0.0260417 0.00349395 0)
(-0.0337875 0.00278533 0)
(-0.037863 0.0013569 0)
(-0.0370053 -0.0007393 0)
(-0.0338664 -0.00326602 0)
(-0.0117794 -0.00645245 0)
(-0.00314848 0.00642023 0)
(-0.0159343 0.0148019 0)
(-0.0350937 0.0170284 0)
(-0.0520807 0.0150568 0)
(-0.0638178 0.0100988 0)
(-0.0678872 0.00266867 0)
(-0.0632499 -0.00649219 0)
(-0.0545564 -0.0159587 0)
(-0.020408 -0.0252111 0)
(-0.00430517 0.0178168 0)
(-0.0198281 0.0345021 0)
(-0.0415188 0.0371326 0)
(-0.0594985 0.0306763 0)
(-0.0705221 0.0181694 0)
(-0.0723952 0.00144303 0)
(-0.0644758 -0.0176819 0)
(-0.0530988 -0.035976 0)
(-0.0138038 -0.0501967 0)
(-0.00443468 0.0296892 0)
(-0.0190762 0.0539235 0)
(-0.0382572 0.0559069 0)
(-0.0529311 0.0441033 0)
(-0.0603801 0.0236051 0)
(-0.0590723 -0.00229923 0)
(-0.0484882 -0.0308719 0)
(-0.0362632 -0.0575783 0)
(0.00181308 -0.0743775 0)
(-0.00409896 0.0401765 0)
(-0.0148078 0.0692981 0)
(-0.0263088 0.0695753 0)
(-0.0330476 0.0523378 0)
(-0.0333511 0.0245004 0)
(-0.0266285 -0.00933426 0)
(-0.0124627 -0.0453241 0)
(0.00208869 -0.079672 0)
(0.0370316 -0.097883 0)
(-0.00342897 0.0478621 0)
(-0.00695653 0.0762658 0)
(-0.00438302 0.0731807 0)
(0.0024072 0.0507765 0)
(0.0137777 0.0172688 0)
(0.0294575 -0.0221079 0)
(0.0483667 -0.0625091 0)
(0.0667533 -0.100954 0)
(0.0974301 -0.121616 0)
(0.000578939 0.0552697 0)
(0.00878703 0.0713499 0)
(0.0326553 0.0609961 0)
(0.0579162 0.0343879 0)
(0.0843716 -0.00193052 0)
(0.11106 -0.0431241 0)
(0.136014 -0.0840018 0)
(0.158081 -0.121326 0)
(0.183072 -0.14274 0)
(0.0267904 0.0283676 0)
(0.0508615 0.0376006 0)
(0.100864 0.0243327 0)
(0.144258 -0.00148577 0)
(0.183062 -0.0352666 0)
(0.217827 -0.0730382 0)
(0.2454 -0.109163 0)
(0.268359 -0.141397 0)
(0.28442 -0.158432 0)
)
;

boundaryField
{
    inlet
    {
        type            fixedValue;
        value           nonuniform 0();
    }
    outlet
    {
        type            zeroGradient;
    }
    fixedWalls
    {
        type            fixedValue;
        value           uniform (0 0 0);
    }
    frontAndBack
    {
        type            empty;
    }
    procBoundary0to1
    {
        type            processor;
        value           nonuniform List<vector> 9((0.185085 -0.00594762 0) (0.205017 -0.0151986 0) (0.241463 -0.0285173 0) (0.280229 -0.0489667 0) (0.315468 -0.0753482 0) (0.34641 -0.105262 0) (0.366631 -0.132753 0) (0.383813 -0.157121 0) (0.384304 -0.165458 0));
    }
}


// ************************************************************************* //
