/*--------------------------------*- C++ -*----------------------------------*\
| =========                 |                                                 |
| \\      /  F ield         | OpenFOAM Extend Project: Open source CFD        |
|  \\    /   O peration     | Version:  1.6-ext                               |
|   \\  /    A nd           | Web:      www.extend-project.de                 |
|    \\/     M anipulation  |                                                 |
\*---------------------------------------------------------------------------*/
FoamFile
{
    version     2.0;
    format      ascii;
    class       volScalarField;
    location    "1.9";
    object      p;
}
// * * * * * * * * * * * * * * * * * * * * * * * * * * * * * * * * * * * * * //

dimensions      [0 2 -2 0 0 0 0];

internalField   nonuniform List<scalar> 
284
(
0.25118
0.21972
0.208249
0.203292
0.201407
0.201355
0.202158
0.203349
0.205541
0.221961
0.213074
0.207677
0.205126
0.204198
0.204306
0.204912
0.20574
0.208106
0.21012
0.2067
0.204088
0.202884
0.202854
0.203586
0.204548
0.205482
0.208513
0.200792
0.199711
0.198621
0.198344
0.198945
0.200101
0.201309
0.202288
0.205844
0.193168
0.192845
0.192389
0.192349
0.192877
0.193752
0.194485
0.19475
0.198141
0.186302
0.186167
0.185775
0.185384
0.185093
0.184723
0.183759
0.181681
0.182819
0.179836
0.179677
0.179013
0.17785
0.1761
0.173428
0.168991
0.161235
0.15501
0.173801
0.173526
0.172389
0.170175
0.166506
0.160723
0.151288
0.136158
0.0918813
0.168437
0.168002
0.166276
0.162854
0.15689
0.14673
0.126757
0.0882131
-0.00475936
0.164097
0.163451
0.161092
0.156624
0.14916
0.137179
0.116645
0.084602
0.031734
0.161238
0.160173
0.157039
0.151717
0.143693
0.132034
0.114905
0.0905626
0.0578625
0.160272
0.15836
0.154031
0.147782
0.139501
0.128573
0.114138
0.0945466
0.0711676
0.162874
0.158375
0.151968
0.144533
0.135987
0.12577
0.113296
0.0971268
0.0786877
0.169232
0.159423
0.150375
0.141899
0.133374
0.12391
0.112805
0.0988695
0.0828611
0.197537
0.165644
0.151123
0.141734
0.133555
0.124923
0.114683
0.101622
0.0861279
-0.136912
-0.106115
-0.0376631
-0.0604211
0.00885791
-0.0203193
0.0387878
0.0138977
0.0561133
0.0353043
0.064476
0.0462507
0.0683043
0.0496148
-0.0952015
-0.0854442
-0.0738142
-0.0567109
-0.0372179
-0.0203644
-0.00879395
-0.0023197
-0.000527738
-0.0674942
-0.0654448
-0.0572664
-0.0436721
-0.0281978
-0.0150352
-0.0063407
-0.0016512
-0.00104399
-0.0326727
-0.0357528
-0.0330395
-0.0258896
-0.016939
-0.00909805
-0.00399032
-0.00124186
-0.00148149
-0.000971834
-0.00909362
-0.0118627
-0.0107845
-0.00778378
-0.00467099
-0.0025589
-0.00127308
-0.00180051
0.0194814
0.0088258
0.00236868
-0.000915147
-0.0021453
-0.00231032
-0.00212124
-0.00163961
-0.00195684
0.0304613
0.0182058
0.00937949
0.00349045
-6.85302e-05
-0.00187713
-0.00247645
-0.00219478
-0.00197053
0.0327451
0.0188392
0.00839455
0.0013663
-0.00267743
-0.00441163
-0.00457331
-0.00374286
-0.00248323
-0.0276511
-0.0272902
-0.0241818
-0.0194747
-0.0140078
-0.00872229
-0.00433946
-0.00110218
0.00154273
-0.0281511
-0.0280685
-0.0253903
-0.0210588
-0.01563
-0.0102569
-0.00564103
-0.00206036
0.00113094
-0.0310698
-0.0311118
-0.0282626
-0.0234898
-0.0171651
-0.0111885
-0.00605515
-0.00215512
0.00128525
-0.0363636
-0.0364104
-0.033067
-0.027419
-0.0198072
-0.0126212
-0.00658348
-0.00218271
0.00144097
-0.0448675
-0.0445778
-0.0405964
-0.0334778
-0.023959
-0.0148383
-0.00740679
-0.00225745
0.0014569
-0.0575069
-0.0559689
-0.0512442
-0.0417553
-0.0295673
-0.0177968
-0.00851293
-0.00241163
0.00124417
-0.0729435
-0.0681658
-0.0627432
-0.0509187
-0.0354563
-0.0207677
-0.0095826
-0.00261241
0.000776049
-0.102816
-0.0840243
-0.0737895
-0.0581602
-0.039275
-0.0222358
-0.00992384
-0.00267741
0.000132361
)
;

boundaryField
{
    inlet
    {
        type            zeroGradient;
    }
    outlet
    {
        type            totalPressure;
        rho             none;
        psi             none;
        gamma           1;
        p0              uniform 0;
        value           uniform 0;
    }
    fixedWalls
    {
        type            zeroGradient;
    }
    frontAndBack
    {
        type            empty;
    }
}


// ************************************************************************* //
