/*--------------------------------*- C++ -*----------------------------------*\
| =========                 |                                                 |
| \\      /  F ield         | OpenFOAM Extend Project: Open source CFD        |
|  \\    /   O peration     | Version:  1.6-ext                               |
|   \\  /    A nd           | Web:      www.extend-project.de                 |
|    \\/     M anipulation  |                                                 |
\*---------------------------------------------------------------------------*/
FoamFile
{
    version     2.0;
    format      ascii;
    class       surfaceScalarField;
    location    "1.9";
    object      phi;
}
// * * * * * * * * * * * * * * * * * * * * * * * * * * * * * * * * * * * * * //

dimensions      [0 3 -1 0 0 0 0];

internalField   nonuniform List<scalar> 
525
(
0.00016094
3.906e-05
0.000117536
4.34037e-05
8.2534e-05
3.50023e-05
5.62493e-05
2.62847e-05
3.69614e-05
1.92879e-05
2.21799e-05
1.47815e-05
1.02404e-05
1.19395e-05
1.77818e-06
8.46226e-06
1.77818e-06
0.000205146
3.39144e-05
0.000191074
5.74755e-05
0.00016398
6.20961e-05
0.000131745
5.85198e-05
9.87449e-05
5.22878e-05
6.69103e-05
4.66161e-05
3.71306e-05
4.17192e-05
1.22064e-05
3.33865e-05
1.39845e-05
0.00020883
2.50845e-05
0.00020859
5.77156e-05
0.00019498
7.57056e-05
0.000169813
8.36874e-05
0.000136655
8.54459e-05
9.87397e-05
8.4531e-05
5.87385e-05
8.17204e-05
2.15268e-05
7.05983e-05
3.55113e-05
0.000205192
1.98921e-05
0.000208362
5.45457e-05
0.000202323
8.17451e-05
0.000184784
0.000101226
0.000156325
0.000113905
0.000118755
0.000122101
7.44504e-05
0.000126025
2.90991e-05
0.00011595
6.46105e-05
0.000202516
1.73761e-05
0.000205343
5.17189e-05
0.000202826
8.42619e-05
0.000191083
0.000112969
0.00016836
0.000136628
0.000134315
0.000156147
8.93708e-05
0.000170969
3.78035e-05
0.000167517
0.000102414
0.000201404
1.59721e-05
0.000203987
4.91355e-05
0.000203959
8.42904e-05
0.000197371
0.000119556
0.000181172
0.000152828
0.00015301
0.000184309
0.000110352
0.000213627
5.28327e-05
0.000225036
0.000155247
0.000201337
1.46349e-05
0.000204819
4.56533e-05
0.000207971
8.11389e-05
0.000207395
0.000120132
0.000199682
0.00016054
0.000181454
0.000202537
0.000146272
0.000248809
8.40615e-05
0.000287246
0.000239308
0.000201865
1.27695e-05
0.000207311
4.02073e-05
0.000214767
7.36835e-05
0.000221651
0.000113248
0.000224839
0.000157352
0.00022057
0.000206807
0.000198312
0.000271067
0.000135408
0.00035015
0.000374716
0.000202732
1.00378e-05
0.000210808
3.2131e-05
0.000223257
6.12342e-05
0.000238716
9.77889e-05
0.000256545
0.000139523
0.000278936
0.000184416
0.00031427
0.000235733
0.000379405
0.000285015
0.000348047
0.000406074
0.000203935
6.10295e-06
0.000214936
2.11296e-05
0.000231953
4.42175e-05
0.000254297
7.54451e-05
0.000282544
0.000111276
0.000319607
0.000147354
0.000369672
0.000185668
0.000448251
0.000206436
0.000265884
0.000530414
0.00020592
1.83378e-07
0.000220085
6.96435e-06
0.000240389
2.39137e-05
0.000266245
4.95892e-05
0.00029822
7.92997e-05
0.000338122
0.000107452
0.000387794
0.000135997
0.000451031
0.000143198
0.00017455
0.000542365
0.000209159
-8.97571e-06
0.000226646
-1.05228e-05
0.000248109
2.45051e-06
0.000273877
2.38216e-05
0.000304999
4.81778e-05
0.000342716
6.97348e-05
0.000388959
8.9753e-05
0.000439658
9.25003e-05
0.000102809
0.000511398
0.000214174
-2.31499e-05
0.000231241
-2.759e-05
0.000248707
-1.50155e-05
0.000269373
3.15611e-06
0.000295566
2.19842e-05
0.000328229
3.70727e-05
0.000368733
4.92481e-05
0.000410644
5.05902e-05
5.15193e-05
0.000461934
0.000211315
-3.44644e-05
0.000215616
-3.18919e-05
0.000219075
-1.84739e-05
0.000227696
-5.46476e-06
0.000244598
5.08137e-06
0.000269388
1.22827e-05
0.000301449
1.71878e-05
0.000334645
1.73943e-05
1.63293e-05
0.000369835
0.000165536
0.000133644
0.00011517
0.000109705
0.000114786
0.000127069
0.000144257
0.000161651
0.00017798
0.000261926
0.000144148
4.23364e-05
0.000219589
0.000516553
0.000158009
6.22445e-05
0.000496645
0.000578743
0.000121631
5.4369e-05
0.000586619
0.000556948
7.60816e-05
3.34056e-05
0.000577911
0.000501229
3.67862e-05
1.21133e-05
0.000522521
0.000396417
1.02039e-05
-7.66906e-08
0.000408607
0.000188184
0.000188108
0.00024309
-2.24479e-05
-1.05258e-06
0.000279743
-7.67024e-05
4.00491e-05
0.000307707
-0.000133249
0.000105285
0.000322448
-0.000178661
0.00016392
0.000325652
-0.000200604
0.0001974
0.00032114
-0.000197254
0.000201766
0.00031298
-0.000175049
0.000183209
0.000304635
-0.000144956
0.000153301
-0.000107917
0.0001147
0.000483401
-9.20367e-06
0.000477604
-7.09057e-05
0.000468218
-0.000123863
0.000450628
-0.000161071
0.000425869
-0.000175845
0.000397742
-0.000169127
0.000370514
-0.000147821
0.00034712
-0.000121562
-9.08722e-05
0.000581852
-4.43687e-06
0.000568545
-5.75987e-05
0.000545348
-0.000100666
0.000512792
-0.000128515
0.00047421
-0.000137263
0.000434325
-0.000129242
0.000397563
-0.000111059
0.000366372
-9.03708e-05
-6.82021e-05
0.000582493
-9.01856e-06
0.000571363
-4.64685e-05
0.000546604
-7.59074e-05
0.000510821
-9.27315e-05
0.000468877
-9.53199e-05
0.0004263
-8.66646e-05
0.000387651
-7.24103e-05
0.000355041
-5.77601e-05
-4.43389e-05
0.000526371
-1.28687e-05
0.000514288
-3.43853e-05
0.000487796
-4.94153e-05
0.000450841
-5.57759e-05
0.000409287
-5.37663e-05
0.000368878
-4.62554e-05
0.000333529
-3.70619e-05
0.000304578
-2.88087e-05
-2.31188e-05
0.000405089
-9.35056e-06
0.000387195
-1.64912e-05
0.000357995
-2.02156e-05
0.000322588
-2.03685e-05
0.000286673
-1.78517e-05
0.000254587
-1.41694e-05
0.000228267
-1.07416e-05
0.000207723
-8.26516e-06
-7.69238e-06
0.000178757
0.000162266
0.00014205
0.000121682
0.00010383
8.96607e-05
7.89191e-05
7.06539e-05
-5.12342e-06
5.12342e-06
-1.10213e-05
5.89787e-06
-1.29508e-05
1.92949e-06
-1.00279e-05
-2.92285e-06
-3.33989e-06
-6.68804e-06
5.22174e-06
-8.56163e-06
1.41783e-05
-8.9566e-06
2.25925e-05
-8.41414e-06
-7.98966e-06
-7.3155e-06
1.24389e-05
-1.39331e-05
1.25155e-05
-1.31317e-05
1.12811e-06
-3.80145e-06
-1.22531e-05
1.16081e-05
-2.20975e-05
2.9912e-05
-2.68656e-05
4.81753e-05
-2.72199e-05
6.43357e-05
-2.45745e-05
-2.13063e-05
-8.77443e-06
2.12133e-05
-1.5778e-05
1.95191e-05
-1.26991e-05
-1.95081e-06
1.3037e-06
-2.62559e-05
2.2949e-05
-4.37429e-05
4.78581e-05
-5.17747e-05
7.22142e-05
-5.15759e-05
9.34128e-05
-4.57731e-05
-3.80381e-05
-1.14943e-05
3.27076e-05
-1.99054e-05
2.79302e-05
-1.54248e-05
-6.43135e-06
2.45827e-06
-4.4139e-05
2.935e-05
-7.06346e-05
5.96892e-05
-8.21138e-05
8.88237e-05
-8.07105e-05
0.000113824
-7.07735e-05
-5.71411e-05
-1.41121e-05
4.68197e-05
-2.207e-05
3.5888e-05
-1.4405e-05
-1.40964e-05
8.10831e-06
-6.66523e-05
3.99247e-05
-0.000102451
7.46021e-05
-0.000116791
0.000107032
-0.000113141
0.000134343
-9.8084e-05
-7.7281e-05
-1.20792e-05
5.8899e-05
-1.20137e-05
3.58225e-05
3.9987e-06
-3.01088e-05
3.23784e-05
-9.5032e-05
6.75573e-05
-0.00013763
0.000103481
-0.000152715
0.000135718
-0.000145378
0.000162221
-0.000124587
-9.61155e-05
4.15261e-06
5.47464e-05
2.57834e-05
1.41917e-05
5.60148e-05
-6.03402e-05
9.00295e-05
-0.000129047
0.000124131
-0.000171731
0.000155207
-0.000183791
0.000181082
-0.000171253
0.000201537
-0.000145042
-0.000109967
5.36938e-05
0.000107935
0.000152879
0.000187753
0.000213422
0.000231397
0.000243352
0.000251611
)
;

boundaryField
{
    inlet
    {
        type            calculated;
        value           uniform -0.0002;
    }
    outlet
    {
        type            calculated;
        value           nonuniform List<scalar> 
15
(
3.05821e-05
7.76523e-05
0.000110145
0.000132927
0.000154483
0.000181056
0.000215389
0.000256345
0.000297852
0.000330075
0.000343702
0.000331177
0.000283358
0.000192297
6.29615e-05
)
;
    }
    fixedWalls
    {
        type            calculated;
        value           uniform 0;
    }
    frontAndBack
    {
        type            empty;
    }
}


// ************************************************************************* //
