/*--------------------------------*- C++ -*----------------------------------*\
| =========                 |                                                 |
| \\      /  F ield         | OpenFOAM Extend Project: Open source CFD        |
|  \\    /   O peration     | Version:  1.6-ext                               |
|   \\  /    A nd           | Web:      www.extend-project.de                 |
|    \\/     M anipulation  |                                                 |
\*---------------------------------------------------------------------------*/
FoamFile
{
    version     2.0;
    format      ascii;
    class       volVectorField;
    location    "1.9";
    object      U;
}
// * * * * * * * * * * * * * * * * * * * * * * * * * * * * * * * * * * * * * //

dimensions      [0 1 -1 0 0 0 0];

internalField   nonuniform List<vector> 
284
(
(0.163785 0.026573 0)
(0.142018 0.0266955 0)
(0.099488 0.0190044 0)
(0.0678192 0.0118973 0)
(0.0456125 0.00699631 0)
(0.0290135 0.00426965 0)
(0.0156922 0.00282744 0)
(0.00441856 0.00137407 0)
(-0.00037363 -0.000998749 0)
(0.200621 0.0431953 0)
(0.202427 0.0570943 0)
(0.180457 0.0524185 0)
(0.148786 0.0429251 0)
(0.115352 0.0337637 0)
(0.0827165 0.0271989 0)
(0.0514079 0.0226791 0)
(0.0218489 0.0168392 0)
(0.00386316 0.00515919 0)
(0.203126 0.028739 0)
(0.211307 0.0586914 0)
(0.205198 0.0707832 0)
(0.185067 0.0727385 0)
(0.155019 0.0695866 0)
(0.118858 0.0652262 0)
(0.078915 0.0604451 0)
(0.036972 0.0501546 0)
(0.00799812 0.0233208 0)
(0.201556 0.0219332 0)
(0.207841 0.0560311 0)
(0.207984 0.0795934 0)
(0.19662 0.0937951 0)
(0.173306 0.100845 0)
(0.139874 0.103905 0)
(0.0979359 0.103665 0)
(0.0489021 0.0922282 0)
(0.0116951 0.0488645 0)
(0.200598 0.0183935 0)
(0.204235 0.0529828 0)
(0.205842 0.0834692 0)
(0.199673 0.108121 0)
(0.182737 0.126465 0)
(0.154491 0.140056 0)
(0.114482 0.148709 0)
(0.061669 0.140803 0)
(0.0166893 0.0820292 0)
(0.200263 0.0165987 0)
(0.20266 0.0504527 0)
(0.205034 0.0847823 0)
(0.202801 0.117357 0)
(0.192133 0.146224 0)
(0.170756 0.17177 0)
(0.135815 0.193405 0)
(0.081746 0.196026 0)
(0.0263101 0.125838 0)
(0.200238 0.015321 0)
(0.202775 0.047641 0)
(0.206886 0.0834667 0)
(0.209187 0.121264 0)
(0.205958 0.158744 0)
(0.194306 0.195909 0)
(0.170158 0.232656 0)
(0.1187 0.251358 0)
(0.0464889 0.194616 0)
(0.200352 0.0137806 0)
(0.203949 0.0433555 0)
(0.210963 0.0783923 0)
(0.219022 0.118431 0)
(0.224978 0.161669 0)
(0.226281 0.209009 0)
(0.216806 0.268553 0)
(0.191598 0.33458 0)
(0.0597819 0.282843 0)
(0.200538 0.0115327 0)
(0.205738 0.0367061 0)
(0.216383 0.0685203 0)
(0.231089 0.107275 0)
(0.248022 0.151177 0)
(0.269832 0.200001 0)
(0.294773 0.2612 0)
(0.352033 0.337746 0)
(0.395764 0.418496 0)
(0.200818 0.00827825 0)
(0.208045 0.0272577 0)
(0.222328 0.0537247 0)
(0.242583 0.0880366 0)
(0.267574 0.12744 0)
(0.301256 0.168898 0)
(0.340857 0.215253 0)
(0.406162 0.249539 0)
(0.486283 0.321054 0)
(0.20136 0.00372527 0)
(0.211406 0.0148219 0)
(0.22896 0.0348328 0)
(0.252439 0.0632618 0)
(0.281056 0.0961346 0)
(0.317309 0.128224 0)
(0.360783 0.161426 0)
(0.416034 0.170813 0)
(0.493221 0.212822 0)
(0.20239 -0.00347341 0)
(0.216438 -0.00113729 0)
(0.23631 0.0131305 0)
(0.260087 0.036262 0)
(0.288384 0.063129 0)
(0.322572 0.0877437 0)
(0.364631 0.111661 0)
(0.411677 0.11491 0)
(0.472605 0.131167 0)
(0.20416 -0.0145855 0)
(0.222045 -0.0194379 0)
(0.239474 -0.0080201 0)
(0.258103 0.0114878 0)
(0.281362 0.0330385 0)
(0.310443 0.0514861 0)
(0.347565 0.0674512 0)
(0.388224 0.0695527 0)
(0.434969 0.0724628 0)
(0.201712 -0.0356621 0)
(0.214394 -0.0376442 0)
(0.217086 -0.022933 0)
(0.221884 -0.00567553 0)
(0.234575 0.00984385 0)
(0.255422 0.0213643 0)
(0.284617 0.0296063 0)
(0.317294 0.0302887 0)
(0.352166 0.0289413 0)
(0.164604 -0.0250143 0)
(0.150648 -0.0225347 0)
(0.122944 -0.0126853 0)
(0.110102 -0.00457691 0)
(0.110667 0.0010913 0)
(0.119894 0.00449923 0)
(0.135246 0.00632834 0)
(0.152809 0.00594589 0)
(0.170268 0.00476437 0)
(0.360885 0.159573 0)
(0.205782 0.036384 0)
(0.542922 0.158693 0)
(0.509797 0.0577656 0)
(0.569238 0.143338 0)
(0.591346 0.0672728 0)
(0.537509 0.096847 0)
(0.573624 0.044756 0)
(0.483228 0.0528198 0)
(0.515858 0.0206391 0)
(0.384794 0.0185702 0)
(0.405595 0.00249601 0)
(0.184379 0.00141911 0)
(0.189926 -0.00278401 0)
(0.223161 -0.0263822 0)
(0.259942 -0.0723435 0)
(0.298395 -0.129681 0)
(0.321206 -0.179384 0)
(0.328 -0.205798 0)
(0.324758 -0.205461 0)
(0.316331 -0.184252 0)
(0.30868 -0.153381 0)
(0.297262 -0.114353 0)
(0.488996 -0.0151305 0)
(0.481091 -0.0756013 0)
(0.476866 -0.131047 0)
(0.464162 -0.172721 0)
(0.440827 -0.191467 0)
(0.412023 -0.186585 0)
(0.382214 -0.164608 0)
(0.358469 -0.136049 0)
(0.33133 -0.101447 0)
(0.588913 -0.00118717 0)
(0.578538 -0.0606002 0)
(0.561163 -0.110554 0)
(0.533038 -0.144416 0)
(0.495335 -0.156997 0)
(0.454085 -0.150039 0)
(0.413706 -0.130416 0)
(0.381793 -0.106957 0)
(0.346086 -0.0803374 0)
(0.585481 -0.00637566 0)
(0.581455 -0.0516285 0)
(0.563456 -0.0881686 0)
(0.532215 -0.110723 0)
(0.491306 -0.116458 0)
(0.447313 -0.108039 0)
(0.404884 -0.0916852 0)
(0.371266 -0.0739066 0)
(0.33411 -0.0561144 0)
(0.529092 -0.0124169 0)
(0.524909 -0.0417341 0)
(0.505041 -0.063634 0)
(0.471972 -0.0746758 0)
(0.430838 -0.0742598 0)
(0.388443 -0.0655188 0)
(0.349334 -0.0533993 0)
(0.318745 -0.0418037 0)
(0.286337 -0.0325738 0)
(0.410593 -0.0138468 0)
(0.399739 -0.0268792 0)
(0.375268 -0.034523 0)
(0.341505 -0.0359691 0)
(0.304414 -0.0323433 0)
(0.269582 -0.0261592 0)
(0.239972 -0.0199984 0)
(0.217456 -0.015214 0)
(0.194885 -0.0131994 0)
(0.185231 -0.00639739 0)
(0.171839 -0.00835165 0)
(0.152781 -0.00849545 0)
(0.131796 -0.00729333 0)
(0.112236 -0.00551106 0)
(0.0960923 -0.003829 0)
(0.0837258 -0.00267237 0)
(0.0745297 -0.00215162 0)
(0.0647483 -0.00265072 0)
(-0.00243447 0.00235412 0)
(-0.00845576 0.00302297 0)
(-0.0130303 0.0015875 0)
(-0.0123822 -0.000309105 0)
(-0.00723774 -0.00187941 0)
(0.000775327 -0.00267685 0)
(0.00975407 -0.00296583 0)
(0.0182902 -0.0029733 0)
(0.0288036 -0.00315717 0)
(-0.00370866 0.008456 0)
(-0.0117086 0.00928477 0)
(-0.0156201 0.00235947 0)
(-0.0102663 -0.0058499 0)
(0.00295528 -0.0121126 0)
(0.0206811 -0.0152331 0)
(0.0393341 -0.0157506 0)
(0.056485 -0.0145506 0)
(0.0750577 -0.0132953 0)
(-0.00459646 0.0164691 0)
(-0.0138884 0.0158802 0)
(-0.0170473 -2.78989e-05 0)
(-0.00800289 -0.0180924 0)
(0.0110253 -0.0313677 0)
(0.035408 -0.0377269 0)
(0.0605406 -0.0379758 0)
(0.0831914 -0.0340175 0)
(0.107041 -0.0288701 0)
(-0.00619577 0.0265317 0)
(-0.0179447 0.0236193 0)
(-0.0211714 -0.00358382 0)
(-0.00922625 -0.033933 0)
(0.0147229 -0.0557222 0)
(0.0446607 -0.06558 0)
(0.0749857 -0.0650316 0)
(0.101837 -0.0574348 0)
(0.129469 -0.0470839 0)
(-0.00807214 0.0396141 0)
(-0.0214046 0.0326656 0)
(-0.0222797 -0.00896445 0)
(-0.00592276 -0.0541748 0)
(0.0231193 -0.0855228 0)
(0.0576953 -0.0986794 0)
(0.0917839 -0.096395 0)
(0.121374 -0.0840721 0)
(0.150829 -0.0671091 0)
(-0.00803158 0.05305 0)
(-0.0169091 0.0376265 0)
(-0.00777357 -0.020325 0)
(0.0164082 -0.0802397 0)
(0.0500781 -0.120358 0)
(0.0864514 -0.135506 0)
(0.120713 -0.130109 0)
(0.149763 -0.112068 0)
(0.177439 -0.0873902 0)
(-6.9672e-05 0.0694107 0)
(0.00921057 0.0357855 0)
(0.0400819 -0.0409152 0)
(0.074196 -0.112057 0)
(0.108901 -0.156907 0)
(0.141228 -0.171203 0)
(0.169148 -0.161178 0)
(0.191975 -0.137197 0)
(0.212179 -0.104873 0)
(0.038708 0.0293644 0)
(0.0761792 -0.0105767 0)
(0.133107 -0.0845782 0)
(0.175238 -0.150709 0)
(0.204324 -0.189725 0)
(0.224342 -0.19798 0)
(0.237805 -0.181946 0)
(0.247753 -0.153099 0)
(0.254086 -0.115203 0)
)
;

boundaryField
{
    inlet
    {
        type            fixedValue;
        value           uniform (0.2 0 0);
    }
    outlet
    {
        type            zeroGradient;
    }
    fixedWalls
    {
        type            fixedValue;
        value           uniform (0 0 0);
    }
    frontAndBack
    {
        type            empty;
    }
}


// ************************************************************************* //
