/*--------------------------------*- C++ -*----------------------------------*\
| =========                 |                                                 |
| \\      /  F ield         | OpenFOAM Extend Project: Open source CFD        |
|  \\    /   O peration     | Version:  1.6-ext                               |
|   \\  /    A nd           | Web:      www.extend-project.de                 |
|    \\/     M anipulation  |                                                 |
\*---------------------------------------------------------------------------*/
FoamFile
{
    version     2.0;
    format      ascii;
    class       volScalarField;
    location    "0.6";
    object      p;
}
// * * * * * * * * * * * * * * * * * * * * * * * * * * * * * * * * * * * * * //

dimensions      [0 2 -2 0 0 0 0];

internalField   nonuniform List<scalar> 
284
(
0.256908
0.225572
0.214337
0.209086
0.206447
0.205543
0.205741
0.206734
0.20982
0.227904
0.218522
0.213132
0.210352
0.208894
0.208557
0.20903
0.21002
0.213259
0.216651
0.212404
0.209593
0.208071
0.207277
0.207342
0.208064
0.209156
0.212762
0.207586
0.205634
0.204274
0.203587
0.20323
0.203468
0.204171
0.20509
0.208855
0.200052
0.198911
0.198149
0.197682
0.197228
0.197104
0.19719
0.19724
0.200526
0.193202
0.192316
0.191587
0.190781
0.189617
0.188397
0.186919
0.184803
0.185611
0.186766
0.185914
0.184873
0.183282
0.180787
0.17753
0.172903
0.165677
0.158941
0.180862
0.179955
0.178398
0.175698
0.171346
0.165264
0.156143
0.144725
0.0976158
0.175821
0.174815
0.17264
0.168652
0.161911
0.151577
0.131477
0.0962823
-0.00126135
0.172058
0.170904
0.168115
0.163054
0.154756
0.142421
0.122346
0.0927623
0.0430014
0.170008
0.168529
0.165085
0.159246
0.15032
0.137891
0.120747
0.0972837
0.068143
0.170122
0.16786
0.163478
0.156941
0.147746
0.135664
0.120387
0.100477
0.0785682
0.173738
0.169237
0.163144
0.155705
0.146276
0.134567
0.120465
0.103117
0.0845745
0.180427
0.170921
0.162768
0.154811
0.145471
0.134243
0.121
0.105311
0.0884419
0.20936
0.178774
0.165618
0.156458
0.146998
0.13613
0.123313
0.108213
0.0916238
-0.140406
-0.12042
-0.0249393
-0.0477124
0.0204793
-0.00506045
0.0483087
0.0269876
0.0624099
0.0430922
0.0698428
0.052298
0.0734777
0.0555289
-0.102721
-0.0614476
-0.0263651
-0.00636706
0.0023221
0.00524766
0.00531152
0.00385114
0.00133877
-0.0518107
-0.0313745
-0.01082
0.000813056
0.00541345
0.00655533
0.00582403
0.00396763
0.00121951
-0.011352
-0.00591022
0.00196294
0.00680223
0.00828786
0.00781599
0.00623453
0.00398542
0.00109365
0.0155747
0.0118722
0.0116634
0.0115607
0.0104617
0.00860822
0.00632274
0.00380945
0.00093166
0.0300577
0.0222734
0.017684
0.0144286
0.0115219
0.00872075
0.0060078
0.00341768
0.00073601
0.0382011
0.0279037
0.0206993
0.0155145
0.0114992
0.00818842
0.00534738
0.00287231
0.000551418
0.0401375
0.0282538
0.0197135
0.0137417
0.00948018
0.00629459
0.00379652
0.00178261
0.000186386
-0.00706969
-0.0034198
-0.000589197
0.00192893
0.00359773
0.00426953
0.00402471
0.00303811
0.00143806
-0.0101718
-0.00636862
-0.00331715
-0.000434235
0.00164868
0.00272376
0.00287188
0.00228461
0.00119137
-0.0138922
-0.00942239
-0.00566201
-0.00201168
0.000651384
0.00210782
0.00250579
0.00209096
0.00115997
-0.0198856
-0.0141421
-0.00898572
-0.0039038
-0.000290443
0.00169742
0.00236923
0.00207274
0.0011694
-0.0288639
-0.0214542
-0.0135781
-0.00607843
-0.00106529
0.00157905
0.00250872
0.00224643
0.00122552
-0.0483408
-0.0322418
-0.0195417
-0.00838248
-0.00148943
0.00185269
0.00294425
0.00259191
0.00130938
-0.0628252
-0.0450286
-0.0263282
-0.0105341
-0.0014396
0.00252699
0.00361372
0.0030317
0.00137639
-0.129892
-0.0669705
-0.0333564
-0.0114792
-0.000577343
0.00360317
0.00442292
0.00347389
0.00138606
)
;

boundaryField
{
    inlet
    {
        type            zeroGradient;
    }
    outlet
    {
        type            totalPressure;
        rho             none;
        psi             none;
        gamma           1;
        p0              uniform 0;
        value           uniform 0;
    }
    fixedWalls
    {
        type            zeroGradient;
    }
    frontAndBack
    {
        type            empty;
    }
}


// ************************************************************************* //
