/*--------------------------------*- C++ -*----------------------------------*\
| =========                 |                                                 |
| \\      /  F ield         | OpenFOAM Extend Project: Open source CFD        |
|  \\    /   O peration     | Version:  1.6-ext                               |
|   \\  /    A nd           | Web:      www.extend-project.de                 |
|    \\/     M anipulation  |                                                 |
\*---------------------------------------------------------------------------*/
FoamFile
{
    version     2.0;
    format      ascii;
    class       surfaceScalarField;
    location    "0.6";
    object      phi;
}
// * * * * * * * * * * * * * * * * * * * * * * * * * * * * * * * * * * * * * //

dimensions      [0 3 -1 0 0 0 0];

internalField   nonuniform List<scalar> 
525
(
0.000162624
3.73764e-05
0.000124116
3.8508e-05
9.50104e-05
2.91052e-05
7.33249e-05
2.16854e-05
5.53456e-05
1.79793e-05
3.85535e-05
1.67921e-05
2.1874e-05
1.66795e-05
6.67455e-06
1.51994e-05
6.67455e-06
0.00020444
3.29361e-05
0.000190343
5.26058e-05
0.000166338
5.31094e-05
0.000139106
4.89183e-05
0.000110553
4.65314e-05
8.05381e-05
4.68074e-05
4.8941e-05
4.82767e-05
1.82956e-05
4.58447e-05
2.49702e-05
0.000206282
2.66537e-05
0.00019963
5.92577e-05
0.000181725
7.10153e-05
0.000157113
7.35302e-05
0.000128306
7.53378e-05
9.58594e-05
7.92542e-05
5.99531e-05
8.4183e-05
2.34385e-05
8.23594e-05
4.84087e-05
0.00020267
2.3984e-05
0.000197318
6.46095e-05
0.000182981
8.53519e-05
0.000162039
9.44722e-05
0.00013587
0.000101507
0.000104505
0.000110619
6.76121e-05
0.000121075
2.76147e-05
0.000122357
7.60233e-05
0.000200715
2.32692e-05
0.000195986
6.93388e-05
0.000184652
9.66858e-05
0.000167598
0.000111526
0.000145028
0.000124077
0.000116035
0.000139613
7.9064e-05
0.000158046
3.48192e-05
0.000166602
0.000110842
0.000200395
2.28738e-05
0.000197416
7.23182e-05
0.000189809
0.000104293
0.000177508
0.000123827
0.000159845
0.00014174
0.000134878
0.000164579
9.90459e-05
0.000193878
4.9387e-05
0.000216261
0.000160229
0.00020105
2.18235e-05
0.00020108
7.22889e-05
0.000198443
0.000106929
0.000192449
0.000129821
0.00018207
0.00015212
0.000165134
0.000181516
0.00013543
0.000223582
8.24046e-05
0.000269286
0.000242634
0.000202227
1.95962e-05
0.000206223
6.82932e-05
0.000209747
0.000103405
0.000211749
0.000127819
0.000211257
0.000152613
0.000206077
0.000186696
0.000187279
0.00024238
0.000135354
0.000321211
0.000377988
0.000203647
1.59491e-05
0.000212066
5.98739e-05
0.000222362
9.31095e-05
0.000233716
0.000116464
0.00024749
0.000138839
0.000267234
0.000166951
0.000306085
0.000203529
0.000385592
0.000241704
0.000329681
0.000433899
0.000205173
1.07758e-05
0.000217821
4.72258e-05
0.000234162
7.67694e-05
0.000253152
9.74737e-05
0.000276665
0.000115326
0.000308789
0.000134827
0.000355923
0.000156395
0.000431424
0.000166203
0.00023624
0.000524865
0.000207023
3.75241e-06
0.000223347
3.0902e-05
0.000244069
5.60479e-05
0.000267536
7.40066e-05
0.000294832
8.80295e-05
0.000328698
0.000100961
0.000371815
0.000113278
0.000424785
0.000113233
0.000143698
0.000517327
0.000209841
-6.08816e-06
0.000229326
1.14162e-05
0.000252489
3.28856e-05
0.000277643
4.88517e-05
0.000305521
6.01516e-05
0.000337773
6.87101e-05
0.000375712
7.53391e-05
0.000416072
7.28725e-05
8.05404e-05
0.000479229
0.000214123
-2.02109e-05
0.000234985
-9.44566e-06
0.000257636
1.02337e-05
0.000281795
2.46931e-05
0.000308252
3.3695e-05
0.000337734
3.92274e-05
0.000370626
4.24473e-05
0.000403208
4.02907e-05
3.94737e-05
0.000444275
0.00021231
-3.25209e-05
0.000224727
-2.18626e-05
0.000240294
-5.33311e-06
0.000259651
5.3364e-06
0.000282254
1.10913e-05
0.000307511
1.39706e-05
0.000334733
1.5225e-05
0.00036089
1.41343e-05
1.26476e-05
0.000387716
0.000167479
0.000145616
0.000140283
0.00014562
0.000156711
0.000170682
0.000185907
0.000200041
0.000212689
0.000320485
0.000113414
-4.03729e-06
0.000324522
0.000533376
0.000104903
-1.13843e-05
0.000540723
0.000548806
7.34242e-05
-5.09157e-06
0.000542514
0.000508356
4.42974e-05
-3.78287e-06
0.000507048
0.000467674
2.08977e-05
-4.11175e-06
0.000468003
0.000403109
5.50441e-06
-3.81631e-06
0.000402814
0.000218193
0.000214377
0.000349685
-0.000156314
0.000131151
0.000345918
-0.000218625
0.000222393
0.000318208
-0.000213993
0.000241702
0.000289975
-0.000179581
0.000207815
0.000270051
-0.000139927
0.000159851
0.000257679
-0.000104952
0.000117324
0.000250419
-7.62376e-05
8.3498e-05
0.000246546
-5.26493e-05
5.65224e-05
-3.12906e-05
3.30895e-05
0.000496483
-0.000112074
0.000435864
-0.000158007
0.000378601
-0.00015673
0.000334753
-0.000135733
0.000305291
-0.000110465
0.000286369
-8.60304e-05
0.000274344
-6.42121e-05
0.000267046
-4.53521e-05
-2.74091e-05
0.000499759
-6.93194e-05
0.000444422
-0.000102669
0.000395251
-0.000107559
0.000356769
-9.72514e-05
0.000328106
-8.18027e-05
0.000307486
-6.54097e-05
0.000293099
-4.98254e-05
0.000283602
-3.58551e-05
-2.20559e-05
0.000479494
-4.17661e-05
0.000440311
-6.34862e-05
0.000401625
-6.88731e-05
0.000368443
-6.4069e-05
0.000341619
-5.49785e-05
0.000320868
-4.46591e-05
0.000305514
-3.4471e-05
0.000294808
-2.51493e-05
-1.57963e-05
0.000450588
-2.43504e-05
0.000422994
-3.58922e-05
0.000392888
-3.87678e-05
0.000364861
-3.60422e-05
0.000340771
-3.0888e-05
0.000321187
-2.50749e-05
0.000306108
-1.93918e-05
0.000295199
-1.42407e-05
-9.25089e-06
0.00038935
-1.08866e-05
0.000367817
-1.43599e-05
0.000343659
-1.46094e-05
0.000320609
-1.29918e-05
0.000300467
-1.07467e-05
0.000283892
-8.49969e-06
0.000270979
-6.47822e-06
0.000261508
-4.76976e-06
-3.4224e-06
0.00020349
0.00018913
0.000174521
0.000161529
0.000150782
0.000142283
0.000135804
0.000131035
5.94102e-07
-5.94102e-07
8.72751e-06
-8.13341e-06
1.96342e-05
-1.09067e-05
3.05789e-05
-1.09447e-05
4.0402e-05
-9.82312e-06
4.85753e-05
-8.17322e-06
5.48929e-05
-6.31764e-06
5.93633e-05
-4.47043e-06
-3.06422e-06
5.18991e-06
-5.78401e-06
2.21226e-05
-2.50661e-05
4.27599e-05
-3.15441e-05
6.30267e-05
-3.12115e-05
8.10681e-05
-2.78645e-05
9.60436e-05
-2.31487e-05
0.000107623
-1.78965e-05
0.000115727
-1.25745e-05
-7.93441e-06
5.59243e-06
-1.13764e-05
2.57524e-05
-4.52261e-05
5.04992e-05
-5.62909e-05
7.46178e-05
-5.533e-05
9.57888e-05
-4.90356e-05
0.000113116
-4.04757e-05
0.000126382
-3.11628e-05
0.000135625
-2.18179e-05
-1.33929e-05
3.33359e-06
-1.471e-05
2.59005e-05
-6.7793e-05
5.46844e-05
-8.50748e-05
8.22939e-05
-8.29395e-05
0.000105727
-7.24684e-05
0.000124258
-5.90076e-05
0.000138081
-4.49856e-05
0.000147587
-3.13231e-05
-1.89365e-05
-3.98348e-07
-1.43117e-05
2.56682e-05
-9.38595e-05
6.07296e-05
-0.000120136
9.30745e-05
-0.000115284
0.000118936
-9.83296e-05
0.000138248
-7.83199e-05
0.000152034
-5.87711e-05
0.000161302
-4.05915e-05
-2.424e-05
-2.8004e-06
-1.15113e-05
3.10209e-05
-0.000127681
7.41673e-05
-0.000163283
0.000111332
-0.000152449
0.000138733
-0.000125731
0.000157649
-9.72356e-05
0.000170339
-7.14611e-05
0.000178605
-4.88582e-05
-2.88554e-05
2.33052e-05
-3.48165e-05
6.33552e-05
-0.000167731
0.000108339
-0.000208266
0.000144465
-0.000188575
0.000168744
-0.000150009
0.000183973
-0.000112465
0.000193416
-8.0904e-05
0.000199358
-5.4801e-05
-3.20943e-05
9.63343e-05
0.000150997
0.000184433
0.000203672
0.000213514
0.000218374
0.000220968
0.000222689
)
;

boundaryField
{
    inlet
    {
        type            calculated;
        value           uniform -0.0002;
    }
    outlet
    {
        type            calculated;
        value           nonuniform List<scalar> 
15
(
6.24275e-05
0.000120597
0.000141084
0.00015313
0.000166605
0.000183221
0.000202597
0.000223684
0.000244747
0.000263165
0.000278249
0.000288548
0.000288653
0.000255679
0.000127612
)
;
    }
    fixedWalls
    {
        type            calculated;
        value           uniform 0;
    }
    frontAndBack
    {
        type            empty;
    }
}


// ************************************************************************* //
