/*--------------------------------*- C++ -*----------------------------------*\
| =========                 |                                                 |
| \\      /  F ield         | OpenFOAM Extend Project: Open source CFD        |
|  \\    /   O peration     | Version:  1.6-ext                               |
|   \\  /    A nd           | Web:      www.extend-project.de                 |
|    \\/     M anipulation  |                                                 |
\*---------------------------------------------------------------------------*/
FoamFile
{
    version     2.0;
    format      ascii;
    class       volVectorField;
    location    "0.6";
    object      U;
}
// * * * * * * * * * * * * * * * * * * * * * * * * * * * * * * * * * * * * * //

dimensions      [0 1 -1 0 0 0 0];

internalField   nonuniform List<vector> 
284
(
(0.162974 0.0253264 0)
(0.14611 0.0234274 0)
(0.109005 0.0156691 0)
(0.0830488 0.0100907 0)
(0.0640773 0.00730988 0)
(0.0470642 0.00625225 0)
(0.0302425 0.00591071 0)
(0.0126866 0.00506134 0)
(0.00184224 0.00135733 0)
(0.198256 0.0412336 0)
(0.202702 0.0504446 0)
(0.180605 0.0431649 0)
(0.152735 0.0351085 0)
(0.125158 0.0306979 0)
(0.0961695 0.0294647 0)
(0.0650941 0.0296378 0)
(0.0314683 0.0274382 0)
(0.00703626 0.0134204 0)
(0.200156 0.0288109 0)
(0.207643 0.0560515 0)
(0.193474 0.0625486 0)
(0.170043 0.0616666 0)
(0.143544 0.061146 0)
(0.113161 0.0629434 0)
(0.0787003 0.0658097 0)
(0.0396151 0.0633605 0)
(0.00949987 0.036023 0)
(0.19848 0.0248986 0)
(0.203687 0.0618422 0)
(0.192618 0.0786369 0)
(0.173249 0.0846656 0)
(0.150066 0.0890324 0)
(0.121664 0.0953383 0)
(0.0874071 0.102692 0)
(0.0459272 0.101918 0)
(0.0117955 0.0615533 0)
(0.197506 0.0235518 0)
(0.201341 0.0671843 0)
(0.192387 0.0916283 0)
(0.1768 0.103801 0)
(0.157583 0.113595 0)
(0.132417 0.125748 0)
(0.0996737 0.139755 0)
(0.0561647 0.143692 0)
(0.0161765 0.0920561 0)
(0.197153 0.0231236 0)
(0.201346 0.0712748 0)
(0.195339 0.101324 0)
(0.184205 0.11874 0)
(0.170013 0.134078 0)
(0.149664 0.153246 0)
(0.120196 0.176922 0)
(0.0753717 0.191651 0)
(0.0255083 0.133072 0)
(0.197104 0.0224794 0)
(0.202946 0.0729608 0)
(0.201156 0.106718 0)
(0.195785 0.128254 0)
(0.188483 0.148649 0)
(0.176074 0.175 0)
(0.155118 0.209676 0)
(0.113953 0.236275 0)
(0.0471389 0.197615 0)
(0.19719 0.0208924 0)
(0.20548 0.0710971 0)
(0.209008 0.106493 0)
(0.210769 0.130592 0)
(0.212365 0.154804 0)
(0.211322 0.188059 0)
(0.198848 0.241858 0)
(0.190433 0.316683 0)
(0.0593167 0.289691 0)
(0.19734 0.0179809 0)
(0.208451 0.0649363 0)
(0.217846 0.099622 0)
(0.227712 0.123939 0)
(0.240459 0.148178 0)
(0.259507 0.180598 0)
(0.279468 0.230158 0)
(0.354524 0.297321 0)
(0.402517 0.415445 0)
(0.197556 0.0136049 0)
(0.211515 0.0543671 0)
(0.226301 0.0861428 0)
(0.242935 0.108431 0)
(0.264057 0.128854 0)
(0.292474 0.153207 0)
(0.327467 0.182965 0)
(0.392114 0.202986 0)
(0.472669 0.289681 0)
(0.197967 0.00764799 0)
(0.214836 0.0397823 0)
(0.233904 0.0672982 0)
(0.254917 0.0866548 0)
(0.280327 0.102534 0)
(0.310544 0.118465 0)
(0.348963 0.134179 0)
(0.393192 0.135264 0)
(0.467359 0.177169 0)
(0.198857 -0.000581451 0)
(0.219209 0.0216226 0)
(0.241244 0.0448675 0)
(0.264247 0.0617307 0)
(0.290891 0.0742217 0)
(0.320589 0.0845329 0)
(0.356532 0.0930762 0)
(0.392403 0.0906122 0)
(0.445706 0.103922 0)
(0.200423 -0.0113504 0)
(0.224621 0.00212243 0)
(0.246956 0.0219079 0)
(0.269005 0.0366457 0)
(0.294406 0.0465569 0)
(0.32231 0.0533071 0)
(0.353991 0.0577422 0)
(0.385463 0.0551803 0)
(0.423167 0.0556155 0)
(0.198443 -0.0328761 0)
(0.219255 -0.022409 0)
(0.232957 -0.00262001 0)
(0.248973 0.0115134 0)
(0.270234 0.0197528 0)
(0.294428 0.0241607 0)
(0.320971 0.0262431 0)
(0.347359 0.0245792 0)
(0.374654 0.022411 0)
(0.162833 -0.024065 0)
(0.156497 -0.0179021 0)
(0.141812 -0.00693597 0)
(0.141482 0.000137463 0)
(0.150478 0.00368987 0)
(0.163401 0.00520519 0)
(0.178223 0.00567572 0)
(0.192982 0.00501345 0)
(0.206929 0.00390182 0)
(0.408123 0.150616 0)
(0.276803 0.0189878 0)
(0.545333 0.106087 0)
(0.539477 -0.0223226 0)
(0.543181 0.0892101 0)
(0.559035 -0.00379148 0)
(0.499731 0.0555205 0)
(0.516197 -0.00525542 0)
(0.459145 0.0299529 0)
(0.472971 -0.00361291 0)
(0.397575 0.010533 0)
(0.406165 -0.00499863 0)
(0.216683 0.000542647 0)
(0.217782 -0.00326265 0)
(0.355692 -0.157166 0)
(0.363091 -0.231608 0)
(0.331317 -0.238607 0)
(0.299064 -0.202965 0)
(0.276405 -0.156066 0)
(0.261715 -0.11476 0)
(0.252757 -0.0819563 0)
(0.247797 -0.0558195 0)
(0.24461 -0.0328559 0)
(0.534942 -0.141285 0)
(0.475161 -0.19156 0)
(0.40353 -0.184843 0)
(0.350578 -0.156156 0)
(0.316118 -0.124577 0)
(0.293489 -0.0957554 0)
(0.278801 -0.0708299 0)
(0.269798 -0.0496122 0)
(0.263414 -0.0297711 0)
(0.531713 -0.0849396 0)
(0.475827 -0.124357 0)
(0.417929 -0.128263 0)
(0.372594 -0.114707 0)
(0.339796 -0.0955953 0)
(0.315941 -0.0758091 0)
(0.298856 -0.0573515 0)
(0.287453 -0.0409883 0)
(0.278801 -0.025018 0)
(0.499638 -0.0548583 0)
(0.462996 -0.0811554 0)
(0.420918 -0.0862716 0)
(0.383467 -0.0793876 0)
(0.35335 -0.0677636 0)
(0.329821 -0.0548507 0)
(0.311937 -0.0422144 0)
(0.299342 -0.0306832 0)
(0.289328 -0.0190859 0)
(0.463727 -0.0315423 0)
(0.439305 -0.0476506 0)
(0.408538 -0.0520057 0)
(0.378282 -0.0487842 0)
(0.351807 -0.0421517 0)
(0.329925 -0.0344307 0)
(0.312599 -0.0267213 0)
(0.299938 -0.0196296 0)
(0.289584 -0.0125275 0)
(0.398953 -0.0172877 0)
(0.380363 -0.0237374 0)
(0.356327 -0.0247802 0)
(0.331882 -0.0225108 0)
(0.309887 -0.0189468 0)
(0.291408 -0.0151781 0)
(0.27663 -0.0116519 0)
(0.265652 -0.0085636 0)
(0.256654 -0.00584226 0)
(0.210136 -0.00575092 0)
(0.196957 -0.00653201 0)
(0.181948 -0.00601772 0)
(0.167814 -0.00492216 0)
(0.155801 -0.00378556 0)
(0.146146 -0.00281902 0)
(0.138669 -0.00205872 0)
(0.133088 -0.00149916 0)
(0.128494 -0.00123615 0)
(-0.00133257 0.000721347 0)
(0.00290074 -0.00253182 0)
(0.0141486 -0.00380909 0)
(0.0253469 -0.00389958 0)
(0.0357986 -0.00351201 0)
(0.0448407 -0.00291214 0)
(0.0520906 -0.00223656 0)
(0.057509 -0.00159151 0)
(0.0616058 -0.00120453 0)
(0.000295404 -0.00219534 0)
(0.0111301 -0.0146992 0)
(0.0324324 -0.0191288 0)
(0.0533784 -0.0191072 0)
(0.0726532 -0.017144 0)
(0.0892371 -0.0142821 0)
(0.10253 -0.0110557 0)
(0.112371 -0.00779887 0)
(0.119577 -0.00513173 0)
(-0.0001124 -0.00874388 0)
(0.0124698 -0.0344494 0)
(0.0382169 -0.0430148 0)
(0.0632211 -0.0425139 0)
(0.0859798 -0.0379182 0)
(0.105286 -0.031475 0)
(0.120575 -0.0243252 0)
(0.131793 -0.0170701 0)
(0.139999 -0.0106043 0)
(-0.00240535 -0.0133332 0)
(0.0101313 -0.0555473 0)
(0.0406691 -0.0694589 0)
(0.0694514 -0.0682467 0)
(0.0950153 -0.0602652 0)
(0.115981 -0.0495372 0)
(0.132076 -0.038017 0)
(0.143641 -0.0265594 0)
(0.152016 -0.0161772 0)
(-0.0063583 -0.0142263 0)
(0.00583175 -0.0793616 0)
(0.0442949 -0.100774 0)
(0.0784054 -0.097886 0)
(0.107351 -0.0848622 0)
(0.129779 -0.0685505 0)
(0.146115 -0.0519453 0)
(0.157455 -0.0360486 0)
(0.165494 -0.0216697 0)
(-0.00910151 -0.0174388 0)
(0.00498133 -0.108835 0)
(0.0549779 -0.13991 0)
(0.0949806 -0.132921 0)
(0.126706 -0.111879 0)
(0.149523 -0.0880549 0)
(0.164964 -0.0655043 0)
(0.175168 -0.0450424 0)
(0.182173 -0.0267623 0)
(0.014165 0.000261838 0)
(0.0366551 -0.142061 0)
(0.0895992 -0.187259 0)
(0.128991 -0.17285 0)
(0.158096 -0.139809 0)
(0.177444 -0.106345 0)
(0.18941 -0.0772789 0)
(0.196847 -0.0525564 0)
(0.20172 -0.0308996 0)
(0.0916175 -0.0855083 0)
(0.120512 -0.208252 0)
(0.171385 -0.238167 0)
(0.194987 -0.208155 0)
(0.208444 -0.16125 0)
(0.215829 -0.118624 0)
(0.219595 -0.08438 0)
(0.221799 -0.056923 0)
(0.22312 -0.0332615 0)
)
;

boundaryField
{
    inlet
    {
        type            fixedValue;
        value           uniform (0.2 0 0);
    }
    outlet
    {
        type            zeroGradient;
    }
    fixedWalls
    {
        type            fixedValue;
        value           uniform (0 0 0);
    }
    frontAndBack
    {
        type            empty;
    }
}


// ************************************************************************* //
