/*--------------------------------*- C++ -*----------------------------------*\
| =========                 |                                                 |
| \\      /  F ield         | OpenFOAM Extend Project: Open source CFD        |
|  \\    /   O peration     | Version:  1.6-ext                               |
|   \\  /    A nd           | Web:      www.extend-project.de                 |
|    \\/     M anipulation  |                                                 |
\*---------------------------------------------------------------------------*/
FoamFile
{
    version     2.0;
    format      ascii;
    class       surfaceScalarField;
    location    "1.7";
    object      phi;
}
// * * * * * * * * * * * * * * * * * * * * * * * * * * * * * * * * * * * * * //

dimensions      [0 3 -1 0 0 0 0];

internalField   nonuniform List<scalar> 
127
(
0.00016098
3.90204e-05
0.000117703
4.32769e-05
8.29309e-05
3.47717e-05
5.69409e-05
2.59901e-05
3.7867e-05
1.90739e-05
2.30826e-05
1.47843e-05
1.08867e-05
1.21959e-05
2.02415e-06
8.86255e-06
2.02415e-06
0.000205193
3.38278e-05
0.000191221
5.72482e-05
0.000164333
6.16603e-05
0.000132444
5.78785e-05
9.98135e-05
5.17048e-05
6.81304e-05
4.64674e-05
3.81216e-05
4.22047e-05
1.26549e-05
3.43293e-05
1.4679e-05
0.000208855
2.4973e-05
0.00020851
5.75931e-05
0.0001947
7.54699e-05
0.000169466
8.31131e-05
0.000136488
8.46829e-05
9.88559e-05
8.40991e-05
5.90011e-05
8.20596e-05
2.16991e-05
7.16314e-05
3.63781e-05
0.000205203
1.97704e-05
0.000208113
5.46824e-05
0.000201497
8.20865e-05
0.000183404
0.000101206
0.000154778
0.000113309
0.000117493
0.000121383
7.36996e-05
0.000125853
2.88225e-05
0.000116508
6.52006e-05
0.000202528
1.72426e-05
0.000205064
5.21465e-05
0.000201818
8.53321e-05
0.000189232
0.000113792
0.000166043
0.000136498
0.000132162
0.000155264
8.78953e-05
0.00017012
3.71881e-05
0.000167216
0.000102389
0.000201425
1.58173e-05
0.000203788
4.97842e-05
0.000203092
8.60275e-05
0.000195604
0.00012128
0.000178756
0.000153346
0.000150573
0.000183447
0.000108547
0.000212147
5.20304e-05
0.000223732
0.000154419
0.000201371
1.44462e-05
0.000204751
4.64044e-05
0.000207425
8.33531e-05
0.000206057
0.000122648
0.00019762
0.000161783
0.00017917
0.000201897
0.000144432
0.000246884
8.31673e-05
0.000284997
0.000237586
0.000201909
0.000207377
0.000214593
0.000220888
0.000223358
0.000218669
0.000196593
0.000134691
)
;

boundaryField
{
    inlet
    {
        type            calculated;
        value           nonuniform List<scalar> 8(-0.0002 -0.0002 -0.0002 -0.0002 -0.0002 -0.0002 -0.0002 -0.0002);
    }
    outlet
    {
        type            calculated;
        value           nonuniform 0();
    }
    fixedWalls
    {
        type            calculated;
        value           uniform 0;
    }
    frontAndBack
    {
        type            empty;
    }
    procBoundary3to2
    {
        type            processor;
        value           nonuniform List<scalar> 9(1.25371e-05 4.09366e-05 7.61367e-05 0.000116353 0.000159313 0.000206586 0.000268961 0.000346899 0.000372277);
    }
}


// ************************************************************************* //
