/*--------------------------------*- C++ -*----------------------------------*\
| =========                 |                                                 |
| \\      /  F ield         | OpenFOAM Extend Project: Open source CFD        |
|  \\    /   O peration     | Version:  1.6-ext                               |
|   \\  /    A nd           | Web:      www.extend-project.de                 |
|    \\/     M anipulation  |                                                 |
\*---------------------------------------------------------------------------*/
FoamFile
{
    version     2.0;
    format      ascii;
    class       vectorField;
    location    "0.95";
    object      accumulatedFluidInterfaceDisplacement;
}
// * * * * * * * * * * * * * * * * * * * * * * * * * * * * * * * * * * * * * //


338
(
(-2.90985e-07 3.80066e-07 8.14853e-27)
(-9.25317e-09 3.41745e-07 -1.99948e-26)
(-6.32056e-07 7.95497e-06 2.47258e-26)
(-6.10286e-07 7.89623e-06 7.22904e-27)
(-6.06141e-07 7.8172e-06 1.52322e-26)
(-6.02255e-07 7.73748e-06 8.81177e-27)
(-5.9837e-07 7.65776e-06 1.36324e-26)
(-5.9413e-07 7.57822e-06 7.08603e-27)
(-5.89243e-07 7.49874e-06 1.64091e-26)
(-5.83468e-07 7.41903e-06 5.93344e-27)
(-5.76622e-07 7.33867e-06 -1.59524e-26)
(-5.68582e-07 7.25717e-06 6.0855e-27)
(-5.59275e-07 7.174e-06 -2.45606e-27)
(-5.48676e-07 7.08861e-06 -2.16777e-27)
(-5.36794e-07 7.00047e-06 4.35174e-27)
(-5.23671e-07 6.90908e-06 -2.84102e-29)
(-5.09374e-07 6.81395e-06 5.383e-27)
(-4.9399e-07 6.71467e-06 -5.09904e-27)
(-4.77619e-07 6.61086e-06 4.21653e-27)
(-4.60377e-07 6.5022e-06 2.26307e-26)
(-4.42387e-07 6.38844e-06 2.95243e-27)
(-4.2378e-07 6.26939e-06 -5.56373e-27)
(-4.04691e-07 6.14492e-06 -7.77455e-27)
(-3.85258e-07 6.01499e-06 -4.0901e-27)
(-3.65621e-07 5.8796e-06 1.56569e-26)
(-3.45916e-07 5.73884e-06 -1.5151e-28)
(-3.26276e-07 5.59285e-06 -2.78816e-26)
(-3.06831e-07 5.44185e-06 -1.16647e-26)
(-2.87702e-07 5.2861e-06 3.67172e-27)
(-2.69003e-07 5.12594e-06 2.9056e-27)
(-2.50837e-07 4.96174e-06 1.47316e-26)
(-2.33296e-07 4.79394e-06 2.02621e-26)
(-2.16459e-07 4.623e-06 1.25505e-26)
(-2.00395e-07 4.44942e-06 1.1401e-26)
(-1.85155e-07 4.27372e-06 1.29924e-26)
(-1.70779e-07 4.09647e-06 -2.08141e-27)
(-1.57292e-07 3.91821e-06 2.54161e-27)
(-1.44704e-07 3.73951e-06 2.00014e-27)
(-1.33014e-07 3.56094e-06 -8.46244e-29)
(-1.22208e-07 3.38304e-06 4.67502e-27)
(-1.1226e-07 3.20636e-06 3.22353e-28)
(-1.03134e-07 3.03142e-06 5.27858e-27)
(-9.47865e-08 2.85869e-06 -2.36104e-27)
(-8.71648e-08 2.68866e-06 -1.84282e-27)
(-8.02125e-08 2.52175e-06 1.10057e-26)
(-7.38685e-08 2.35835e-06 7.48456e-28)
(-6.80696e-08 2.19882e-06 -4.29885e-27)
(-6.27519e-08 2.04348e-06 -5.0417e-27)
(-5.78523e-08 1.89263e-06 -6.94697e-27)
(-5.33098e-08 1.74649e-06 2.77114e-27)
(-4.90669e-08 1.6053e-06 5.85074e-27)
(-4.50705e-08 1.46922e-06 2.85703e-27)
(-4.12731e-08 1.33842e-06 -1.00242e-26)
(-3.76332e-08 1.21301e-06 -7.83176e-27)
(-3.41168e-08 1.09309e-06 1.0791e-28)
(-3.06971e-08 9.78751e-07 8.89459e-27)
(-2.73559e-08 8.70056e-07 1.48278e-26)
(-2.40838e-08 7.67063e-07 -5.96151e-27)
(-2.08814e-08 6.69819e-07 -6.02188e-27)
(-1.776e-08 5.78375e-07 9.27225e-27)
(-1.47422e-08 4.92783e-07 7.65436e-27)
(-1.18631e-08 4.1311e-07 3.93844e-27)
(-7.63724e-07 7.97604e-06 2.78636e-26)
(-6.89126e-07 7.97526e-06 1.30152e-26)
(-8.95457e-07 7.95522e-06 -3.28202e-26)
(-8.3861e-07 7.97571e-06 -6.37532e-27)
(-3.17312e-07 4.51157e-07 3.57158e-27)
(-3.4426e-07 5.30524e-07 -9.92034e-27)
(-3.70971e-07 6.15788e-07 -1.36117e-26)
(-3.97472e-07 7.06882e-07 -3.48192e-27)
(-4.23774e-07 8.03754e-07 7.64588e-27)
(-4.49879e-07 9.06356e-07 -2.15413e-26)
(-4.75776e-07 1.01464e-06 -1.93399e-26)
(-5.01448e-07 1.12855e-06 7.33192e-28)
(-5.26865e-07 1.24802e-06 9.21559e-27)
(-5.5199e-07 1.37297e-06 3.54641e-27)
(-5.7678e-07 1.5033e-06 -1.18838e-26)
(-6.01183e-07 1.63888e-06 -8.01295e-27)
(-6.2514e-07 1.77957e-06 3.74679e-27)
(-6.48589e-07 1.92519e-06 -4.95384e-27)
(-6.71461e-07 2.07553e-06 -5.13558e-27)
(-6.93685e-07 2.23034e-06 4.77577e-27)
(-7.15186e-07 2.38933e-06 5.97148e-27)
(-7.35889e-07 2.55219e-06 -6.70129e-27)
(-7.55721e-07 2.71857e-06 -1.22742e-26)
(-7.74607e-07 2.88806e-06 -3.27446e-27)
(-7.92479e-07 3.06024e-06 7.15288e-29)
(-8.09273e-07 3.23465e-06 -3.79976e-28)
(-8.24931e-07 3.4108e-06 4.03678e-27)
(-8.39403e-07 3.58816e-06 3.49312e-27)
(-8.5265e-07 3.76621e-06 -8.32039e-27)
(-8.64642e-07 3.94438e-06 -1.05475e-26)
(-8.75362e-07 4.12212e-06 -7.94415e-28)
(-8.84805e-07 4.29885e-06 -4.99568e-27)
(-8.92978e-07 4.47402e-06 -1.44632e-27)
(-8.99903e-07 4.64707e-06 1.27616e-26)
(-9.05614e-07 4.81749e-06 1.48382e-26)
(-9.10159e-07 4.98475e-06 1.1929e-26)
(-9.13599e-07 5.1484e-06 -7.19524e-27)
(-9.16005e-07 5.30801e-06 -8.86794e-28)
(-9.17461e-07 5.46318e-06 1.52822e-26)
(-9.18058e-07 5.61359e-06 -8.24742e-28)
(-9.17899e-07 5.75896e-06 -8.43957e-27)
(-9.17091e-07 5.89908e-06 -1.66697e-26)
(-9.15749e-07 6.0338e-06 -1.46994e-26)
(-9.13989e-07 6.16304e-06 -4.22822e-28)
(-9.1193e-07 6.28677e-06 6.44345e-27)
(-9.09695e-07 6.40506e-06 1.08385e-26)
(-9.07401e-07 6.51802e-06 7.13055e-27)
(-9.05164e-07 6.62584e-06 -2.80493e-27)
(-9.03096e-07 6.72879e-06 2.95852e-27)
(-9.01301e-07 6.82716e-06 2.75036e-26)
(-8.99871e-07 6.92134e-06 1.81533e-26)
(-8.98889e-07 7.01176e-06 -1.45496e-26)
(-8.98419e-07 7.09889e-06 -1.28392e-26)
(-8.98505e-07 7.18325e-06 -6.19558e-28)
(-8.99163e-07 7.26536e-06 1.64575e-26)
(-9.00376e-07 7.34579e-06 1.61296e-26)
(-9.02087e-07 7.42506e-06 -5.34834e-27)
(-9.0419e-07 7.50367e-06 1.44801e-26)
(-9.06527e-07 7.58205e-06 1.31495e-26)
(-9.08888e-07 7.66048e-06 1.17854e-29)
(-9.11033e-07 7.73909e-06 2.56809e-26)
(-9.12726e-07 7.81776e-06 1.90384e-28)
(-9.13998e-07 7.8961e-06 -8.0714e-27)
(-1.19954e-08 8.54628e-09 4.54678e-28)
(-1.26594e-08 1.04848e-08 -6.56295e-26)
(-1.4806e-08 1.3944e-08 -6.01737e-26)
(-1.85448e-08 1.65996e-08 4.45235e-26)
(-2.37753e-08 1.87621e-08 6.60518e-26)
(-3.03185e-08 2.08686e-08 -5.66797e-26)
(-3.79885e-08 2.32512e-08 -1.03565e-25)
(-4.66732e-08 2.62289e-08 1.24104e-27)
(-5.62997e-08 3.00915e-08 2.78761e-26)
(-6.68298e-08 3.51248e-08 1.08373e-26)
(-7.82457e-08 4.16174e-08 5.70242e-26)
(-9.05438e-08 4.98715e-08 -1.00222e-26)
(-1.0373e-07 6.02102e-08 -5.86259e-26)
(-1.17816e-07 7.29839e-08 3.42864e-26)
(-1.32821e-07 8.85776e-08 1.63529e-26)
(-1.48769e-07 1.07418e-07 3.84427e-27)
(-1.65691e-07 1.29979e-07 -1.57255e-27)
(-1.83626e-07 1.56795e-07 -1.18248e-26)
(-2.02621e-07 1.88467e-07 1.38961e-26)
(-2.22733e-07 2.25677e-07 -2.56528e-27)
(-2.44032e-07 2.69201e-07 -1.19492e-26)
(-2.66597e-07 3.19926e-07 -1.00349e-26)
(-1.24438e-08 -4.76787e-09 -1.43571e-25)
(-7.06116e-09 2.81372e-07 -1.1726e-26)
(-5.27114e-09 2.30449e-07 1.14887e-26)
(-3.8249e-09 1.86751e-07 6.4195e-27)
(-2.70299e-09 1.49388e-07 -9.73189e-27)
(-1.87965e-09 1.17578e-07 1.58691e-28)
(-1.32438e-09 9.0634e-08 9.62623e-27)
(-1.0036e-09 6.79518e-08 -2.83034e-26)
(-8.82801e-10 4.8997e-08 -3.1055e-27)
(-9.28659e-10 3.32979e-08 1.72266e-27)
(-1.11113e-09 2.04386e-08 3.26859e-26)
(-1.40527e-09 1.00545e-08 1.13961e-26)
(-1.79275e-09 1.82781e-09 -3.77469e-26)
(-2.26326e-09 -4.51464e-09 7.42096e-26)
(-2.81566e-09 -9.20406e-09 2.76221e-26)
(-3.45996e-09 -1.24316e-08 -4.07957e-26)
(-4.21894e-09 -1.43486e-08 -4.38944e-26)
(-5.13336e-09 -1.50685e-08 4.14787e-26)
(-6.26175e-09 -1.46616e-08 -2.1095e-26)
(-7.68853e-09 -1.31646e-08 5.10811e-26)
(-9.46872e-09 -1.05594e-08 9.08803e-26)
(-1.14458e-08 -6.86979e-09 -1.41905e-25)
(-2.90985e-07 3.80066e-07 8.14853e-27)
(-9.25317e-09 3.41745e-07 -1.99948e-26)
(-6.32056e-07 7.95497e-06 2.47258e-26)
(-6.10286e-07 7.89623e-06 7.22904e-27)
(-6.06141e-07 7.8172e-06 1.52322e-26)
(-6.02255e-07 7.73748e-06 8.81177e-27)
(-5.9837e-07 7.65776e-06 1.36324e-26)
(-5.9413e-07 7.57822e-06 7.08603e-27)
(-5.89243e-07 7.49874e-06 1.64091e-26)
(-5.83468e-07 7.41903e-06 5.93344e-27)
(-5.76622e-07 7.33867e-06 -1.59524e-26)
(-5.68582e-07 7.25717e-06 6.0855e-27)
(-5.59275e-07 7.174e-06 -2.45606e-27)
(-5.48676e-07 7.08861e-06 -2.16777e-27)
(-5.36794e-07 7.00047e-06 4.35174e-27)
(-5.23671e-07 6.90908e-06 -2.84102e-29)
(-5.09374e-07 6.81395e-06 5.383e-27)
(-4.9399e-07 6.71467e-06 -5.09904e-27)
(-4.77619e-07 6.61086e-06 4.21653e-27)
(-4.60377e-07 6.5022e-06 2.26307e-26)
(-4.42387e-07 6.38844e-06 2.95243e-27)
(-4.2378e-07 6.26939e-06 -5.56373e-27)
(-4.04691e-07 6.14492e-06 -7.77455e-27)
(-3.85258e-07 6.01499e-06 -4.0901e-27)
(-3.65621e-07 5.8796e-06 1.56569e-26)
(-3.45916e-07 5.73884e-06 -1.5151e-28)
(-3.26276e-07 5.59285e-06 -2.78816e-26)
(-3.06831e-07 5.44185e-06 -1.16647e-26)
(-2.87702e-07 5.2861e-06 3.67172e-27)
(-2.69003e-07 5.12594e-06 2.9056e-27)
(-2.50837e-07 4.96174e-06 1.47316e-26)
(-2.33296e-07 4.79394e-06 2.02621e-26)
(-2.16459e-07 4.623e-06 1.25505e-26)
(-2.00395e-07 4.44942e-06 1.1401e-26)
(-1.85155e-07 4.27372e-06 1.29924e-26)
(-1.70779e-07 4.09647e-06 -2.08141e-27)
(-1.57292e-07 3.91821e-06 2.54161e-27)
(-1.44704e-07 3.73951e-06 2.00014e-27)
(-1.33014e-07 3.56094e-06 -8.46244e-29)
(-1.22208e-07 3.38304e-06 4.67502e-27)
(-1.1226e-07 3.20636e-06 3.22353e-28)
(-1.03134e-07 3.03142e-06 5.27858e-27)
(-9.47865e-08 2.85869e-06 -2.36104e-27)
(-8.71648e-08 2.68866e-06 -1.84282e-27)
(-8.02125e-08 2.52175e-06 1.10057e-26)
(-7.38685e-08 2.35835e-06 7.48456e-28)
(-6.80696e-08 2.19882e-06 -4.29885e-27)
(-6.27519e-08 2.04348e-06 -5.0417e-27)
(-5.78523e-08 1.89263e-06 -6.94697e-27)
(-5.33098e-08 1.74649e-06 2.77114e-27)
(-4.90669e-08 1.6053e-06 5.85074e-27)
(-4.50705e-08 1.46922e-06 2.85703e-27)
(-4.12731e-08 1.33842e-06 -1.00242e-26)
(-3.76332e-08 1.21301e-06 -7.83176e-27)
(-3.41168e-08 1.09309e-06 1.0791e-28)
(-3.06971e-08 9.78751e-07 8.89459e-27)
(-2.73559e-08 8.70056e-07 1.48278e-26)
(-2.40838e-08 7.67063e-07 -5.96151e-27)
(-2.08814e-08 6.69819e-07 -6.02188e-27)
(-1.776e-08 5.78375e-07 9.27225e-27)
(-1.47422e-08 4.92783e-07 7.65436e-27)
(-1.18631e-08 4.1311e-07 3.93844e-27)
(-7.63724e-07 7.97604e-06 2.78636e-26)
(-6.89126e-07 7.97526e-06 1.30152e-26)
(-8.95457e-07 7.95522e-06 -3.28202e-26)
(-8.3861e-07 7.97571e-06 -6.37532e-27)
(-3.17312e-07 4.51157e-07 3.57158e-27)
(-3.4426e-07 5.30524e-07 -9.92034e-27)
(-3.70971e-07 6.15788e-07 -1.36117e-26)
(-3.97472e-07 7.06882e-07 -3.48192e-27)
(-4.23774e-07 8.03754e-07 7.64588e-27)
(-4.49879e-07 9.06356e-07 -2.15413e-26)
(-4.75776e-07 1.01464e-06 -1.93399e-26)
(-5.01448e-07 1.12855e-06 7.33192e-28)
(-5.26865e-07 1.24802e-06 9.21559e-27)
(-5.5199e-07 1.37297e-06 3.54641e-27)
(-5.7678e-07 1.5033e-06 -1.18838e-26)
(-6.01183e-07 1.63888e-06 -8.01295e-27)
(-6.2514e-07 1.77957e-06 3.74679e-27)
(-6.48589e-07 1.92519e-06 -4.95384e-27)
(-6.71461e-07 2.07553e-06 -5.13558e-27)
(-6.93685e-07 2.23034e-06 4.77577e-27)
(-7.15186e-07 2.38933e-06 5.97148e-27)
(-7.35889e-07 2.55219e-06 -6.70129e-27)
(-7.55721e-07 2.71857e-06 -1.22742e-26)
(-7.74607e-07 2.88806e-06 -3.27446e-27)
(-7.92479e-07 3.06024e-06 7.15288e-29)
(-8.09273e-07 3.23465e-06 -3.79976e-28)
(-8.24931e-07 3.4108e-06 4.03678e-27)
(-8.39403e-07 3.58816e-06 3.49312e-27)
(-8.5265e-07 3.76621e-06 -8.32039e-27)
(-8.64642e-07 3.94438e-06 -1.05475e-26)
(-8.75362e-07 4.12212e-06 -7.94415e-28)
(-8.84805e-07 4.29885e-06 -4.99568e-27)
(-8.92978e-07 4.47402e-06 -1.44632e-27)
(-8.99903e-07 4.64707e-06 1.27616e-26)
(-9.05614e-07 4.81749e-06 1.48382e-26)
(-9.10159e-07 4.98475e-06 1.1929e-26)
(-9.13599e-07 5.1484e-06 -7.19524e-27)
(-9.16005e-07 5.30801e-06 -8.86794e-28)
(-9.17461e-07 5.46318e-06 1.52822e-26)
(-9.18058e-07 5.61359e-06 -8.24742e-28)
(-9.17899e-07 5.75896e-06 -8.43957e-27)
(-9.17091e-07 5.89908e-06 -1.66697e-26)
(-9.15749e-07 6.0338e-06 -1.46994e-26)
(-9.13989e-07 6.16304e-06 -4.22822e-28)
(-9.1193e-07 6.28677e-06 6.44345e-27)
(-9.09695e-07 6.40506e-06 1.08385e-26)
(-9.07401e-07 6.51802e-06 7.13055e-27)
(-9.05164e-07 6.62584e-06 -2.80493e-27)
(-9.03096e-07 6.72879e-06 2.95852e-27)
(-9.01301e-07 6.82716e-06 2.75036e-26)
(-8.99871e-07 6.92134e-06 1.81533e-26)
(-8.98889e-07 7.01176e-06 -1.45496e-26)
(-8.98419e-07 7.09889e-06 -1.28392e-26)
(-8.98505e-07 7.18325e-06 -6.19558e-28)
(-8.99163e-07 7.26536e-06 1.64575e-26)
(-9.00376e-07 7.34579e-06 1.61296e-26)
(-9.02087e-07 7.42506e-06 -5.34834e-27)
(-9.0419e-07 7.50367e-06 1.44801e-26)
(-9.06527e-07 7.58205e-06 1.31495e-26)
(-9.08888e-07 7.66048e-06 1.17854e-29)
(-9.11033e-07 7.73909e-06 2.56809e-26)
(-9.12726e-07 7.81776e-06 1.90384e-28)
(-9.13998e-07 7.8961e-06 -8.0714e-27)
(-1.19954e-08 8.54628e-09 4.54678e-28)
(-1.26594e-08 1.04848e-08 -6.56295e-26)
(-1.4806e-08 1.3944e-08 -6.01737e-26)
(-1.85448e-08 1.65996e-08 4.45235e-26)
(-2.37753e-08 1.87621e-08 6.60518e-26)
(-3.03185e-08 2.08686e-08 -5.66797e-26)
(-3.79885e-08 2.32512e-08 -1.03565e-25)
(-4.66732e-08 2.62289e-08 1.24104e-27)
(-5.62997e-08 3.00915e-08 2.78761e-26)
(-6.68298e-08 3.51248e-08 1.08373e-26)
(-7.82457e-08 4.16174e-08 5.70242e-26)
(-9.05438e-08 4.98715e-08 -1.00222e-26)
(-1.0373e-07 6.02102e-08 -5.86259e-26)
(-1.17816e-07 7.29839e-08 3.42864e-26)
(-1.32821e-07 8.85776e-08 1.63529e-26)
(-1.48769e-07 1.07418e-07 3.84427e-27)
(-1.65691e-07 1.29979e-07 -1.57255e-27)
(-1.83626e-07 1.56795e-07 -1.18248e-26)
(-2.02621e-07 1.88467e-07 1.38961e-26)
(-2.22733e-07 2.25677e-07 -2.56528e-27)
(-2.44032e-07 2.69201e-07 -1.19492e-26)
(-2.66597e-07 3.19926e-07 -1.00349e-26)
(-1.24438e-08 -4.76787e-09 -1.43571e-25)
(-7.06116e-09 2.81372e-07 -1.1726e-26)
(-5.27114e-09 2.30449e-07 1.14887e-26)
(-3.8249e-09 1.86751e-07 6.4195e-27)
(-2.70299e-09 1.49388e-07 -9.73189e-27)
(-1.87965e-09 1.17578e-07 1.58691e-28)
(-1.32438e-09 9.0634e-08 9.62623e-27)
(-1.0036e-09 6.79518e-08 -2.83034e-26)
(-8.82801e-10 4.8997e-08 -3.1055e-27)
(-9.28659e-10 3.32979e-08 1.72266e-27)
(-1.11113e-09 2.04386e-08 3.26859e-26)
(-1.40527e-09 1.00545e-08 1.13961e-26)
(-1.79275e-09 1.82781e-09 -3.77469e-26)
(-2.26326e-09 -4.51464e-09 7.42096e-26)
(-2.81566e-09 -9.20406e-09 2.76221e-26)
(-3.45996e-09 -1.24316e-08 -4.07957e-26)
(-4.21894e-09 -1.43486e-08 -4.38944e-26)
(-5.13336e-09 -1.50685e-08 4.14787e-26)
(-6.26175e-09 -1.46616e-08 -2.1095e-26)
(-7.68853e-09 -1.31646e-08 5.10811e-26)
(-9.46872e-09 -1.05594e-08 9.08803e-26)
(-1.14458e-08 -6.86979e-09 -1.41905e-25)
)


// ************************************************************************* //
