/*--------------------------------*- C++ -*----------------------------------*\
| =========                 |                                                 |
| \\      /  F ield         | OpenFOAM Extend Project: Open source CFD        |
|  \\    /   O peration     | Version:  1.6-ext                               |
|   \\  /    A nd           | Web:      www.extend-project.de                 |
|    \\/     M anipulation  |                                                 |
\*---------------------------------------------------------------------------*/
FoamFile
{
    version     2.0;
    format      ascii;
    class       volScalarField;
    location    "0.95";
    object      p;
}
// * * * * * * * * * * * * * * * * * * * * * * * * * * * * * * * * * * * * * //

dimensions      [0 2 -2 0 0 0 0];

internalField   nonuniform List<scalar> 
20940
(
-0.158659
-0.201434
-0.246345
-0.293655
-0.342809
-0.393874
-0.446347
-0.499752
-0.553237
-0.605699
-0.655795
-0.702145
-0.743576
-0.779363
-0.809357
-0.833955
-0.853949
-0.870316
-0.883957
-0.89563
-0.906838
-0.918737
-0.186691
-0.228271
-0.272162
-0.317842
-0.36508
-0.413712
-0.463208
-0.512962
-0.562046
-0.609347
-0.65365
-0.693861
-0.729213
-0.759412
-0.784662
-0.805549
-0.822874
-0.837482
-0.850064
-0.861145
-0.871978
-0.883524
-0.211116
-0.251281
-0.293862
-0.337661
-0.382721
-0.428637
-0.474853
-0.520649
-0.565069
-0.607067
-0.645641
-0.680032
-0.70987
-0.73522
-0.756515
-0.774414
-0.789643
-0.802874
-0.814593
-0.82512
-0.835477
-0.846454
-0.23418
-0.272724
-0.313731
-0.355385
-0.397969
-0.440838
-0.483418
-0.524907
-0.564391
-0.600978
-0.633946
-0.662894
-0.687804
-0.708998
-0.727023
-0.742511
-0.756056
-0.768152
-0.7791
-0.789062
-0.798868
-0.809185
-0.255557
-0.292385
-0.331659
-0.37101
-0.410919
-0.450508
-0.489205
-0.526182
-0.560645
-0.591929
-0.619635
-0.643699
-0.664371
-0.682119
-0.697505
-0.711064
-0.723242
-0.734362
-0.744581
-0.753941
-0.763123
-0.772704
-0.275525
-0.310578
-0.347987
-0.384886
-0.421925
-0.458015
-0.492637
-0.525003
-0.554524
-0.580809
-0.603778
-0.623636
-0.640797
-0.655773
-0.669063
-0.681077
-0.692112
-0.702351
-0.711846
-0.720557
-0.729046
-0.737827
-0.294237
-0.327464
-0.362888
-0.39721
-0.43122
-0.463663
-0.494127
-0.521943
-0.546783
-0.568544
-0.587414
-0.603775
-0.618108
-0.630889
-0.64251
-0.653254
-0.663289
-0.672695
-0.681449
-0.689465
-0.697207
-0.705142
-0.311958
-0.343403
-0.376775
-0.408415
-0.439249
-0.46793
-0.494235
-0.517681
-0.538227
-0.556027
-0.571456
-0.584982
-0.597067
-0.608102
-0.618366
-0.628023
-0.637144
-0.645735
-0.65373
-0.661015
-0.667975
-0.675042
-0.328636
-0.358245
-0.389445
-0.418312
-0.445902
-0.470855
-0.493183
-0.512627
-0.529415
-0.54389
-0.556532
-0.567807
-0.578116
-0.587747
-0.596871
-0.605563
-0.613824
-0.621611
-0.628835
-0.635373
-0.641541
-0.647738
-0.344595
-0.372488
-0.401486
-0.427511
-0.451793
-0.473073
-0.491647
-0.507489
-0.521044
-0.532767
-0.543158
-0.552633
-0.561504
-0.569959
-0.578084
-0.585887
-0.593321
-0.600316
-0.606773
-0.612568
-0.617954
-0.623304
-0.359297
-0.385303
-0.411931
-0.435144
-0.456264
-0.474205
-0.489506
-0.502337
-0.513278
-0.522824
-0.531448
-0.539495
-0.547187
-0.554637
-0.561869
-0.568843
-0.575488
-0.581717
-0.587429
-0.592504
-0.597144
-0.601689
-0.373471
-0.397805
-0.422149
-0.442566
-0.460591
-0.475406
-0.487767
-0.498006
-0.50676
-0.514512
-0.52167
-0.528504
-0.535163
-0.541697
-0.548089
-0.554271
-0.560154
-0.565644
-0.570643
-0.575037
-0.57898
-0.582782
-0.385128
-0.407585
-0.429403
-0.447421
-0.46287
-0.475277
-0.485434
-0.493778
-0.500935
-0.507357
-0.513391
-0.519248
-0.525029
-0.530752
-0.536375
-0.54182
-0.546991
-0.551793
-0.556131
-0.559902
-0.563216
-0.566352
-0.397493
-0.418186
-0.437798
-0.453427
-0.466369
-0.476504
-0.484634
-0.491273
-0.497
-0.502216
-0.507206
-0.512129
-0.517049
-0.52196
-0.526807
-0.531508
-0.535965
-0.540085
-0.54378
-0.546954
-0.549686
-0.552227
-0.402408
-0.423033
-0.439896
-0.454247
-0.4657
-0.474734
-0.481879
-0.487685
-0.49265
-0.497147
-0.501433
-0.505656
-0.50988
-0.514104
-0.518285
-0.522348
-0.526202
-0.529757
-0.532927
-0.535622
-0.537889
-0.539943
-0.417411
-0.434857
-0.448893
-0.460864
-0.470069
-0.477205
-0.482759
-0.487264
-0.49115
-0.494721
-0.498175
-0.501618
-0.505087
-0.508571
-0.512024
-0.515377
-0.518548
-0.521458
-0.524034
-0.526202
-0.527987
-0.529561
-0.437853
-0.451428
-0.460745
-0.468934
-0.475005
-0.47993
-0.483926
-0.487375
-0.490493
-0.493441
-0.496313
-0.499156
-0.501982
-0.504772
-0.507491
-0.510085
-0.512496
-0.514668
-0.516553
-0.518105
-0.519357
-0.520439
-0.447306
-0.458999
-0.46567
-0.472206
-0.476811
-0.480752
-0.483961
-0.486784
-0.489337
-0.491737
-0.494051
-0.496313
-0.498535
-0.500706
-0.502798
-0.504773
-0.506589
-0.508202
-0.509578
-0.510688
-0.511555
-0.512266
-0.454175
-0.464264
-0.468936
-0.474244
-0.47775
-0.480945
-0.483539
-0.485858
-0.487946
-0.489892
-0.491739
-0.493514
-0.495228
-0.496874
-0.498436
-0.499886
-0.501193
-0.502329
-0.50327
-0.504
-0.504532
-0.504926
-0.457994
-0.466636
-0.470219
-0.474719
-0.477595
-0.480309
-0.482494
-0.48444
-0.486164
-0.487739
-0.489198
-0.490569
-0.491863
-0.49308
-0.494209
-0.495232
-0.496128
-0.496875
-0.497459
-0.497871
-0.498115
-0.498225
-0.459871
-0.467173
-0.470282
-0.474157
-0.476664
-0.479026
-0.48092
-0.482584
-0.484031
-0.485319
-0.48648
-0.487538
-0.488505
-0.489386
-0.490173
-0.490856
-0.491419
-0.491847
-0.49213
-0.492267
-0.492245
-0.492081
-0.460112
-0.466264
-0.469268
-0.472687
-0.475017
-0.47715
-0.478869
-0.48035
-0.481612
-0.482705
-0.483658
-0.484493
-0.485223
-0.485854
-0.486383
-0.486803
-0.487102
-0.487268
-0.487298
-0.487192
-0.486922
-0.486483
-0.4591
-0.464386
-0.467455
-0.470587
-0.472866
-0.474883
-0.476523
-0.477913
-0.479078
-0.480061
-0.480888
-0.481581
-0.482153
-0.48261
-0.482952
-0.483173
-0.483265
-0.483221
-0.483036
-0.482717
-0.482214
-0.481505
-0.457227
-0.461949
-0.465146
-0.468147
-0.470465
-0.472468
-0.474115
-0.475495
-0.476639
-0.477585
-0.478357
-0.478976
-0.479454
-0.479799
-0.480012
-0.48009
-0.480026
-0.479814
-0.479454
-0.478952
-0.47824
-0.477279
-0.454927
-0.45935
-0.462698
-0.465693
-0.468114
-0.470182
-0.471899
-0.473332
-0.474514
-0.475479
-0.47625
-0.476847
-0.477282
-0.477565
-0.477696
-0.477676
-0.477501
-0.477165
-0.47667
-0.476025
-0.475141
-0.473966
-0.452638
-0.456966
-0.460474
-0.46355
-0.466111
-0.468294
-0.470122
-0.471649
-0.472908
-0.473929
-0.474736
-0.475347
-0.475777
-0.476033
-0.476122
-0.476044
-0.475798
-0.475382
-0.4748
-0.474061
-0.473062
-0.471739
-0.45065
-0.45502
-0.458689
-0.461895
-0.464612
-0.466935
-0.468895
-0.470538
-0.471896
-0.472997
-0.473866
-0.474519
-0.47497
-0.475231
-0.475308
-0.475207
-0.47493
-0.47448
-0.473865
-0.473094
-0.47206
-0.470689
-0.449296
-0.453789
-0.457613
-0.460966
-0.46384
-0.466307
-0.468402
-0.470168
-0.471635
-0.472832
-0.473778
-0.474493
-0.474989
-0.475278
-0.475369
-0.475273
-0.474999
-0.474555
-0.473958
-0.473222
-0.472251
-0.470968
-0.448422
-0.45305
-0.456995
-0.460472
-0.46347
-0.466057
-0.468269
-0.470145
-0.471714
-0.473003
-0.474031
-0.474814
-0.475364
-0.475693
-0.475812
-0.475735
-0.47548
-0.475069
-0.47453
-0.473897
-0.473113
-0.47211
-0.448502
-0.453277
-0.457378
-0.461008
-0.46416
-0.466898
-0.46926
-0.471286
-0.473009
-0.474455
-0.475641
-0.476578
-0.477271
-0.477723
-0.477933
-0.477909
-0.477664
-0.477225
-0.47664
-0.475983
-0.475322
-0.47473
1.20364
1.25449
1.30527
1.35589
1.40592
1.45496
1.5026
1.54845
1.59213
1.63324
1.67144
1.70639
1.73779
1.76541
1.78913
1.80901
1.82539
1.83896
1.8507
1.86184
1.87524
1.8928
1.19554
1.24609
1.29624
1.34622
1.39557
1.44389
1.49079
1.53586
1.57874
1.61904
1.6564
1.69051
1.72106
1.74783
1.77071
1.78979
1.80542
1.81835
1.82959
1.84039
1.85361
1.87111
1.17544
1.22529
1.27416
1.32289
1.37095
1.41792
1.46343
1.50707
1.54848
1.58727
1.6231
1.65563
1.68459
1.70975
1.73103
1.74855
1.76273
1.77439
1.78462
1.79474
1.8076
1.82495
1.14654
1.19533
1.24225
1.28906
1.33511
1.37998
1.42331
1.46471
1.5038
1.54022
1.57363
1.60369
1.63015
1.6528
1.67158
1.68667
1.69859
1.70827
1.71693
1.72597
1.73823
1.75534
1.10817
1.15556
1.19991
1.24421
1.28766
1.3298
1.37031
1.40879
1.44488
1.47822
1.50846
1.53531
1.55849
1.57783
1.59331
1.6052
1.61411
1.62115
1.62771
1.63529
1.64674
1.66348
1.06206
1.10768
1.14889
1.19013
1.23036
1.26916
1.30619
1.34109
1.37348
1.40302
1.42937
1.45224
1.47137
1.48662
1.49802
1.50591
1.51109
1.51483
1.51874
1.52447
1.53486
1.55108
1.00915
1.05266
1.09023
1.12793
1.16446
1.19938
1.2324
1.26314
1.29124
1.31637
1.33819
1.35641
1.37081
1.38125
1.38783
1.39101
1.39173
1.39152
1.39223
1.39571
1.40475
1.42028
0.95118
0.992248
1.02575
1.0595
1.09187
1.12244
1.15095
1.177
1.20026
1.2204
1.23708
1.25004
1.25904
1.264
1.26507
1.26282
1.2584
1.25361
1.25057
1.25137
1.25876
1.27337
0.88967
0.927955
0.957065
0.986556
1.01444
1.04032
1.06395
1.08494
1.10294
1.11764
1.12872
1.1359
1.13896
1.13785
1.13278
1.12444
1.11421
1.10418
1.09683
1.09448
1.09987
1.11327
0.826584
0.861795
0.886291
0.911267
0.934357
0.955228
0.973623
0.989164
1.00151
1.01035
1.01535
1.01626
1.01287
1.00514
0.99334
0.978308
0.961644
0.945774
0.933551
0.927606
0.930628
0.942501
0.763305
0.795106
0.814925
0.835317
0.853541
0.869317
0.882383
0.892356
0.898894
0.90167
0.900373
0.894729
0.884536
0.869766
0.850755
0.828468
0.804755
0.782402
0.764698
0.754616
0.754823
0.764775
0.702037
0.730139
0.745231
0.760876
0.774045
0.784512
0.792007
0.796142
0.796575
0.792978
0.785042
0.772493
0.755133
0.73295
0.706329
0.676368
0.645164
0.615883
0.592265
0.577666
0.574693
0.582311
0.643142
0.667198
0.677984
0.68915
0.697557
0.703015
0.705229
0.703795
0.698359
0.688575
0.674119
0.654698
0.630098
0.600301
0.565727
0.527594
0.488269
0.451349
0.421116
0.401383
0.394727
0.399547
0.589898
0.608935
0.615337
0.62179
0.625221
0.62542
0.622065
0.61475
0.603114
0.586811
0.565513
0.538936
0.506873
0.469325
0.426762
0.380527
0.333233
0.288865
0.252174
0.227374
0.216899
0.218443
0.540085
0.554019
0.557437
0.559834
0.559122
0.554951
0.546928
0.534625
0.517644
0.495597
0.468115
0.434862
0.395578
0.350217
0.299235
0.244061
0.1876
0.134395
0.0899686
0.0592404
0.0446701
0.0429969
0.502339
0.504534
0.504974
0.503076
0.49741
0.487973
0.474303
0.455996
0.432661
0.403913
0.369388
0.328769
0.281839
0.228649
0.16984
0.107132
0.0438128
-0.015203
-0.0641689
-0.0981853
-0.115334
-0.119661
0.46257
0.455131
0.450625
0.441527
0.428548
0.41146
0.3898
0.363253
0.331481
0.294171
0.251049
0.201916
0.146749
0.0859171
0.0205234
-0.0471767
-0.113518
-0.173655
-0.222505
-0.25623
-0.27418
-0.281116
0.415253
0.400911
0.391624
0.376047
0.356865
0.333184
0.3047
0.271135
0.232194
0.187631
0.137251
0.0809731
0.0189565
-0.0481518
-0.118868
-0.190529
-0.259202
-0.320126
-0.368751
-0.402103
-0.420675
-0.429853
0.365133
0.345015
0.330521
0.308699
0.283534
0.25355
0.21869
0.178675
0.133261
0.0822608
0.025553
-0.0368278
-0.10453
-0.176616
-0.251226
-0.325341
-0.394867
-0.455264
-0.502619
-0.534863
-0.553496
-0.564232
0.313026
0.287838
0.268094
0.240519
0.209763
0.17396
0.133289
0.0874512
0.0362708
-0.0203792
-0.0825283
-0.149998
-0.222207
-0.297896
-0.374842
-0.449749
-0.518519
-0.577017
-0.622104
-0.652624
-0.670905
-0.68272
0.260018
0.230408
0.205614
0.172889
0.137064
0.0960978
0.0503409
-0.000515885
-0.0565782
-0.117908
-0.184431
-0.2558
-0.331183
-0.408998
-0.486708
-0.560858
-0.627513
-0.683091
-0.725275
-0.753746
-0.771451
-0.784009
0.207291
0.173872
0.144392
0.107165
0.0668731
0.0214649
-0.0285975
-0.0836166
-0.143627
-0.208619
-0.278395
-0.35242
-0.429598
-0.508045
-0.584989
-0.656957
-0.720336
-0.772202
-0.811063
-0.837313
-0.854314
-0.867371
0.15566
0.119036
0.0853675
0.0443371
0.000261498
-0.0487999
-0.102328
-0.160599
-0.223577
-0.291168
-0.363033
-0.438431
-0.516003
-0.593607
-0.668341
-0.736863
-0.796021
-0.843618
-0.878928
-0.902917
-0.919161
-0.932541
0.106123
0.0668896
0.029616
-0.0145058
-0.0616443
-0.113553
-0.169694
-0.2303
-0.295262
-0.364384
-0.437171
-0.512663
-0.589256
-0.664624
-0.735855
-0.799885
-0.854135
-0.897142
-0.928856
-0.950652
-0.966147
-0.97972
0.0590028
0.017745
-0.0224936
-0.0689804
-0.118427
-0.172357
-0.230238
-0.292245
-0.358189
-0.427758
-0.500284
-0.574593
-0.648877
-0.720714
-0.787321
-0.846041
-0.894932
-0.933236
-0.961449
-0.98119
-0.995973
-1.00963
0.0150828
-0.0276348
-0.0701774
-0.11833
-0.169351
-0.224519
-0.283316
-0.345843
-0.411822
-0.480808
-0.551952
-0.623881
-0.694646
-0.761841
-0.822942
-0.875805
-0.919147
-0.952832
-0.977758
-0.995638
-1.00976
-1.02341
-0.0260004
-0.0696521
-0.113843
-0.162978
-0.214849
-0.270478
-0.329371
-0.391539
-0.456604
-0.523973
-0.59262
-0.661013
-0.727146
-0.788751
-0.843688
-0.890387
-0.9282
-0.957495
-0.97942
-0.995646
-1.00915
-1.02269
-0.0634792
-0.107561
-0.152769
-0.202267
-0.254331
-0.309736
-0.368001
-0.429035
-0.492345
-0.557182
-0.622359
-0.686242
-0.74687
-0.802234
-0.850669
-0.891201
-0.923737
-0.949016
-0.968288
-0.983075
-0.995999
-1.0093
-0.0985546
-0.142635
-0.188282
-0.237562
-0.289194
-0.343709
-0.400631
-0.45975
-0.520449
-0.581828
-0.642576
-0.701043
-0.755427
-0.804096
-0.845916
-0.880476
-0.908127
-0.929826
-0.946795
-0.96033
-0.972663
-0.985589
-0.12986
-0.173519
-0.219068
-0.267621
-0.318283
-0.371349
-0.426335
-0.482898
-0.540294
-0.597494
-0.653127
-0.70562
-0.753443
-0.795407
-0.830905
-0.860002
-0.88335
-0.901976
-0.916976
-0.929378
-0.941022
-0.953309
-0.116214
-0.160442
-0.206679
-0.255991
-0.3075
-0.361467
-0.417394
-0.474902
-0.533206
-0.591228
-0.64755
-0.700564
-0.748727
-0.790859
-0.826385
-0.855407
-0.878613
-0.897061
-0.911863
-0.924064
-0.935489
-0.947528
-0.0846804
-0.12935
-0.175695
-0.225725
-0.278187
-0.333577
-0.391413
-0.451454
-0.513045
-0.57524
-0.636676
-0.695661
-0.750371
-0.799178
-0.840979
-0.875411
-0.902868
-0.924344
-0.941084
-0.954397
-0.966494
-0.979152
-0.0495939
-0.0942787
-0.140202
-0.190441
-0.243323
-0.299579
-0.358732
-0.420662
-0.484846
-0.550492
-0.616357
-0.680761
-0.741708
-0.797186
-0.845559
-0.885904
-0.918183
-0.943185
-0.96219
-0.976732
-0.989408
-1.00243
-0.0123795
-0.0566464
-0.101577
-0.15145
-0.204128
-0.260589
-0.320344
-0.383383
-0.449302
-0.51747
-0.586806
-0.655727
-0.722182
-0.783888
-0.838727
-0.885182
-0.922672
-0.951628
-0.97324
-0.989195
-1.00245
-1.0157
0.0281677
-0.0151736
-0.0584854
-0.107377
-0.159202
-0.215187
-0.274828
-0.338205
-0.405023
-0.474802
-0.546642
-0.619117
-0.690224
-0.757528
-0.818515
-0.871091
-0.91405
-0.947332
-0.971894
-0.989475
-1.00334
-1.01671
0.0712709
0.0293817
-0.011663
-0.0588976
-0.109151
-0.163893
-0.222607
-0.285452
-0.352225
-0.422586
-0.495824
-0.570707
-0.64537
-0.717348
-0.783852
-0.842267
-0.890731
-0.928575
-0.956372
-0.975785
-0.990303
-1.0037
0.117313
0.0774408
0.0393192
-0.00556659
-0.0535231
-0.106249
-0.163221
-0.224663
-0.290455
-0.360378
-0.433901
-0.510009
-0.587039
-0.662606
-0.73378
-0.79752
-0.851324
-0.89383
-0.925085
-0.946524
-0.961755
-0.975093
0.16554
0.128266
0.0937032
0.0518831
0.00696985
-0.0429241
-0.0972941
-0.156411
-0.220232
-0.288644
-0.36128
-0.43735
-0.515432
-0.593322
-0.668078
-0.736365
-0.795094
-0.842176
-0.876996
-0.900607
-0.916592
-0.929769
0.215674
0.181587
0.151165
0.113113
0.071956
0.0256883
-0.025239
-0.0811269
-0.142005
-0.207851
-0.278444
-0.353209
-0.43099
-0.509834
-0.586915
-0.658743
-0.721754
-0.773124
-0.811489
-0.83735
-0.854103
-0.867
0.266774
0.23647
0.210685
0.17709
0.140365
0.098502
0.0518456
8.44208e-05
-0.0568836
-0.119114
-0.186512
-0.258701
-0.334793
-0.413138
-0.49113
-0.565279
-0.631671
-0.686815
-0.728526
-0.756614
-0.774092
-0.786543
0.318089
0.292164
0.271384
0.242886
0.211188
0.174444
0.132829
0.0860406
0.0339045
-0.0237024
-0.0867972
-0.155175
-0.228211
-0.304578
-0.381979
-0.457059
-0.525719
-0.58389
-0.628565
-0.658731
-0.676819
-0.688588
0.368508
0.347594
0.332028
0.309221
0.283071
0.252094
0.216239
0.175218
0.128789
0.0767641
0.0190317
-0.0443558
-0.11301
-0.185932
-0.261188
-0.335683
-0.405294
-0.465519
-0.512563
-0.544512
-0.563001
-0.573768
0.417003
0.40178
0.391399
0.374774
0.354556
0.329829
0.300291
0.265658
0.225633
0.179971
0.12848
0.0710916
0.0079947
-0.0601127
-0.131672
-0.203938
-0.272921
-0.333869
-0.382327
-0.415474
-0.43397
-0.443266
0.462814
0.454334
0.448717
0.438511
0.424449
0.406268
0.383503
0.355833
0.322915
0.284436
0.240122
0.189781
0.133412
0.0714247
0.00499015
-0.0635494
-0.130451
-0.190846
-0.239714
-0.273358
-0.291321
-0.298475
0.501538
0.502541
0.50187
0.498826
0.492019
0.481434
0.466597
0.4471
0.422544
0.392543
0.356733
0.314795
0.266528
0.21201
0.151938
0.0881231
0.0239467
-0.0356124
-0.0848309
-0.11893
-0.136201
-0.140859
0.537614
0.550159
0.552457
0.553725
0.551851
0.546504
0.537279
0.523742
0.50549
0.482133
0.453299
0.418653
0.377946
0.331157
0.278792
0.222365
0.164877
0.110945
0.0660896
0.0351346
0.0203354
0.0182394
0.585305
0.60288
0.608165
0.613481
0.615729
0.614735
0.610155
0.601578
0.588641
0.570992
0.548306
0.520299
0.486773
0.447753
0.403758
0.356206
0.307798
0.262587
0.225333
0.200176
0.189374
0.190432
0.636715
0.659353
0.669023
0.679059
0.686281
0.690536
0.691507
0.688789
0.682024
0.670865
0.654985
0.634095
0.60799
0.576674
0.540612
0.501092
0.460562
0.422688
0.391771
0.371571
0.364506
0.368791
0.693874
0.720615
0.734588
0.749112
0.761101
0.770366
0.776619
0.779467
0.778567
0.773588
0.764222
0.750196
0.731322
0.707609
0.679483
0.648103
0.615645
0.585339
0.560953
0.545807
0.54237
0.549431
0.753738
0.78429
0.803014
0.822312
0.839381
0.853972
0.865811
0.874511
0.879727
0.881131
0.878414
0.871302
0.859603
0.843308
0.82279
0.799072
0.774074
0.750647
0.732115
0.72143
0.721136
0.73053
0.81595
0.850019
0.873448
0.897364
0.919335
0.939057
0.956259
0.970561
0.981623
0.989119
0.992741
0.992222
0.987364
0.978143
0.964869
0.948427
0.930483
0.913526
0.900446
0.893872
0.896382
0.907713
0.878401
0.915668
0.943765
0.972249
0.999067
1.02386
1.04635
1.06615
1.08293
1.09635
1.1061
1.11191
1.11357
1.11103
1.10454
1.09484
1.08336
1.07226
1.06405
1.06107
1.06596
1.07884
0.939726
0.979896
1.01245
1.04526
1.07664
1.10619
1.13363
1.15858
1.18069
1.19963
1.21507
1.22675
1.23444
1.23806
1.2378
1.23427
1.22866
1.22284
1.21898
1.21916
1.22608
1.24021
0.997989
1.04073
1.07744
1.11428
1.14992
1.18391
1.21596
1.24569
1.27274
1.29677
1.31746
1.33452
1.34771
1.35694
1.3623
1.3643
1.36393
1.36277
1.36271
1.36561
1.37421
1.38931
1.05166
1.09663
1.13709
1.17757
1.21702
1.25499
1.29117
1.32517
1.35663
1.3852
1.41056
1.43239
1.45047
1.46464
1.47496
1.48181
1.48601
1.4889
1.4921
1.49732
1.50731
1.52318
1.09898
1.14584
1.18956
1.23322
1.27599
1.31744
1.35722
1.39495
1.43025
1.46277
1.49217
1.51813
1.54042
1.55884
1.57341
1.5844
1.59249
1.5988
1.60475
1.61188
1.623
1.63944
1.13895
1.18734
1.23374
1.28004
1.32556
1.36987
1.41262
1.45341
1.49187
1.52764
1.56036
1.58973
1.61547
1.63738
1.65543
1.66981
1.68105
1.69014
1.69831
1.70699
1.71899
1.73586
1.16977
1.21933
1.26783
1.31619
1.36386
1.41043
1.45551
1.49872
1.53966
1.57797
1.6133
1.64533
1.67375
1.69838
1.71913
1.73612
1.74981
1.76104
1.77091
1.78076
1.79342
1.81061
1.19204
1.24242
1.29234
1.3421
1.39121
1.43928
1.48592
1.53073
1.57332
1.61333
1.6504
1.68419
1.71442
1.74086
1.76342
1.78217
1.79751
1.81017
1.82119
1.83183
1.84493
1.86233
1.20246
1.25325
1.30396
1.3545
1.40445
1.4534
1.50096
1.54672
1.5903
1.63132
1.66942
1.70426
1.73556
1.76307
1.78668
1.80645
1.82272
1.83621
1.84788
1.85896
1.87232
1.88985
-0.145458
-0.174108
-0.199248
-0.223116
-0.245325
-0.266122
-0.285629
-0.304079
-0.32141
-0.337922
-0.353094
-0.367635
-0.379615
-0.392214
-0.397482
-0.412753
-0.433778
-0.443733
-0.450934
-0.454947
-0.456933
-0.457237
-0.456245
-0.45435
-0.451987
-0.44961
-0.447523
-0.446085
-0.445137
-0.445181
-0.188779
-0.216212
-0.239908
-0.262126
-0.282594
-0.301591
-0.319248
-0.335896
-0.351371
-0.366156
-0.379432
-0.392309
-0.402409
-0.413277
-0.418381
-0.430512
-0.447678
-0.455606
-0.461132
-0.463682
-0.464338
-0.463503
-0.461655
-0.459201
-0.456547
-0.454084
-0.45205
-0.450746
-0.449946
-0.450148
-0.234368
-0.260776
-0.283158
-0.303797
-0.322526
-0.339651
-0.355313
-0.3699
-0.383189
-0.395763
-0.406654
-0.417243
-0.424794
-0.433446
-0.43575
-0.445015
-0.457427
-0.462634
-0.466091
-0.467484
-0.467615
-0.466643
-0.464843
-0.462513
-0.460011
-0.457716
-0.455852
-0.454713
-0.454042
-0.454409
-0.282445
-0.30723
-0.327732
-0.346223
-0.36264
-0.3773
-0.390365
-0.402247
-0.412738
-0.422446
-0.430494
-0.438265
-0.443375
-0.449607
-0.450551
-0.457399
-0.46591
-0.469363
-0.471531
-0.472089
-0.471585
-0.470154
-0.468065
-0.465604
-0.463102
-0.460895
-0.45917
-0.458189
-0.457649
-0.458177
-0.33246
-0.355341
-0.373669
-0.389681
-0.403415
-0.415188
-0.425201
-0.433878
-0.44109
-0.447454
-0.452297
-0.456929
-0.459407
-0.463082
-0.462465
-0.467006
-0.472259
-0.474175
-0.475195
-0.47509
-0.474197
-0.472575
-0.470425
-0.468002
-0.465604
-0.463543
-0.461983
-0.461165
-0.460758
-0.461446
-0.384447
-0.404907
-0.420524
-0.433483
-0.44392
-0.452169
-0.458499
-0.463372
-0.466805
-0.46944
-0.470882
-0.472322
-0.472324
-0.473663
-0.471879
-0.474459
-0.47738
-0.478254
-0.478493
-0.47789
-0.476635
-0.474778
-0.472509
-0.47007
-0.46774
-0.465799
-0.464386
-0.463719
-0.463439
-0.464282
-0.43788
-0.45537
-0.467708
-0.477016
-0.483546
-0.487682
-0.489806
-0.490462
-0.489853
-0.488662
-0.486757
-0.485181
-0.482909
-0.482154
-0.479333
-0.480263
-0.481531
-0.481579
-0.481178
-0.480152
-0.478598
-0.476557
-0.474206
-0.471772
-0.469515
-0.46769
-0.466414
-0.465889
-0.465731
-0.466727
-0.492244
-0.506084
-0.514453
-0.519431
-0.521411
-0.520888
-0.518402
-0.514618
-0.50993
-0.505056
-0.500059
-0.495812
-0.491579
-0.489062
-0.485368
-0.484949
-0.485092
-0.48449
-0.483569
-0.482162
-0.480319
-0.47809
-0.475643
-0.473199
-0.470996
-0.469268
-0.468114
-0.467717
-0.467674
-0.468824
-0.546644
-0.556071
-0.559758
-0.559768
-0.556681
-0.551157
-0.543922
-0.535766
-0.527239
-0.519049
-0.511361
-0.504858
-0.498975
-0.49498
-0.490501
-0.488965
-0.488296
-0.487114
-0.485719
-0.483941
-0.481815
-0.479396
-0.476849
-0.474383
-0.472219
-0.470571
-0.469521
-0.469237
-0.4693
-0.470607
-0.599925
-0.604174
-0.602534
-0.597094
-0.588655
-0.57807
-0.566239
-0.554043
-0.542113
-0.531095
-0.521168
-0.512814
-0.505563
-0.500329
-0.495117
-0.49263
-0.491313
-0.489576
-0.487719
-0.485564
-0.483146
-0.480527
-0.477867
-0.475362
-0.473218
-0.471629
-0.470664
-0.470478
-0.470637
-0.472103
-0.650705
-0.649142
-0.641747
-0.630662
-0.616911
-0.601528
-0.585529
-0.569823
-0.555037
-0.541708
-0.529965
-0.520108
-0.511708
-0.50541
-0.49949
-0.496156
-0.494243
-0.491943
-0.489614
-0.487067
-0.484345
-0.481514
-0.478724
-0.476163
-0.474019
-0.472467
-0.471566
-0.471462
-0.471705
-0.473332
-0.697574
-0.689858
-0.676621
-0.660061
-0.64138
-0.621736
-0.602182
-0.583582
-0.566494
-0.551322
-0.538119
-0.527027
-0.517639
-0.510398
-0.50378
-0.499657
-0.497139
-0.494256
-0.491436
-0.488479
-0.485438
-0.482379
-0.479444
-0.476806
-0.474641
-0.473105
-0.472248
-0.472207
-0.472521
-0.474305
-0.739353
-0.725551
-0.706789
-0.685275
-0.662319
-0.639121
-0.616694
-0.595804
-0.576905
-0.560269
-0.545872
-0.533737
-0.52347
-0.515366
-0.508058
-0.503178
-0.500014
-0.496525
-0.493193
-0.489812
-0.486439
-0.483137
-0.48004
-0.477307
-0.475098
-0.473557
-0.472723
-0.472728
-0.473099
-0.475028
-0.77533
-0.755947
-0.73233
-0.706642
-0.680215
-0.654214
-0.629561
-0.606901
-0.58658
-0.568758
-0.553352
-0.540302
-0.529229
-0.520317
-0.512331
-0.50671
-0.502852
-0.498742
-0.494882
-0.491065
-0.48735
-0.483794
-0.480519
-0.477672
-0.475399
-0.473833
-0.473003
-0.473037
-0.473449
-0.475503
-0.805383
-0.781269
-0.753701
-0.724734
-0.695651
-0.667537
-0.641201
-0.617173
-0.59571
-0.57689
-0.560596
-0.546713
-0.53488
-0.5252
-0.516557
-0.51021
-0.505618
-0.500879
-0.496484
-0.49223
-0.488168
-0.484349
-0.480882
-0.477903
-0.475547
-0.473937
-0.473095
-0.473145
-0.473585
-0.475733
-0.829942
-0.802135
-0.771585
-0.740205
-0.709188
-0.679524
-0.651917
-0.626806
-0.604384
-0.584684
-0.567574
-0.55291
-0.540352
-0.529935
-0.520663
-0.513609
-0.508259
-0.5029
-0.497975
-0.493289
-0.488881
-0.484793
-0.481124
-0.477998
-0.475541
-0.473871
-0.473006
-0.47306
-0.473519
-0.475722
-0.849829
-0.81937
-0.786734
-0.753675
-0.721294
-0.690493
-0.661896
-0.635883
-0.612616
-0.592105
-0.574221
-0.558809
-0.54555
-0.534428
-0.524561
-0.516827
-0.510717
-0.504759
-0.499322
-0.494219
-0.489473
-0.485116
-0.481236
-0.47795
-0.475379
-0.473636
-0.472738
-0.472793
-0.473272
-0.475485
-0.866044
-0.833842
-0.799841
-0.765657
-0.732313
-0.700646
-0.671233
-0.644425
-0.620374
-0.59909
-0.580455
-0.564319
-0.550383
-0.538586
-0.528162
-0.519784
-0.512935
-0.506415
-0.500497
-0.495001
-0.48993
-0.485307
-0.481211
-0.477753
-0.475054
-0.473228
-0.472293
-0.472353
-0.472863
-0.475049
-0.879508
-0.846263
-0.811412
-0.776473
-0.742418
-0.710048
-0.679918
-0.652373
-0.627573
-0.605542
-0.586179
-0.569343
-0.554756
-0.542322
-0.531379
-0.522407
-0.514865
-0.507834
-0.501476
-0.495619
-0.490243
-0.485361
-0.481046
-0.477408
-0.474569
-0.472651
-0.471679
-0.471754
-0.472322
-0.474463
-0.890994
-0.857172
-0.821785
-0.7863
-0.751666
-0.718671
-0.687871
-0.659621
-0.634097
-0.611341
-0.591275
-0.573768
-0.558566
-0.54554
-0.534121
-0.524622
-0.516461
-0.508984
-0.502242
-0.496064
-0.490408
-0.48528
-0.480747
-0.47692
-0.473933
-0.471915
-0.470907
-0.471015
-0.471684
-0.473801
-0.902
-0.86782
-0.83198
-0.795971
-0.760741
-0.727084
-0.695564
-0.666558
-0.640264
-0.616746
-0.595948
-0.577754
-0.561929
-0.548323
-0.53644
-0.526456
-0.517757
-0.509891
-0.502812
-0.496341
-0.490418
-0.485036
-0.480264
-0.476223
-0.473056
-0.470916
-0.469868
-0.470033
-0.47089
-0.473131
-0.913672
-0.879165
-0.842786
-0.80615
-0.770221
-0.735797
-0.703464
-0.673617
-0.646477
-0.622131
-0.600543
-0.581614
-0.565127
-0.550927
-0.538556
-0.528087
-0.51889
-0.510649
-0.503248
-0.496491
-0.490289
-0.484629
-0.479581
-0.475279
-0.47189
-0.469592
-0.468486
-0.468735
-0.46987
-0.47253
0.10557
0.104908
0.104702
0.104322
0.104055
0.103727
0.103409
0.103062
0.102717
0.102382
0.102086
0.101853
0.10171
0.10168
0.101784
0.102037
0.102449
0.103024
0.103762
0.104656
0.105692
0.106855
0.108121
0.109462
0.102123
0.10146
0.101243
0.10085
0.100566
0.100223
0.0998917
0.0995366
0.0991908
0.0988643
0.0985879
0.0983862
0.0982877
0.0983161
0.0984922
0.0988309
0.099342
0.100029
0.100889
0.101915
0.103092
0.104401
0.105817
0.107311
0.0986116
0.0979501
0.0977231
0.0973173
0.0970176
0.0966586
0.0963145
0.0959518
0.0956058
0.0952886
0.0950324
0.0948634
0.0948109
0.0948993
0.0951494
0.0955761
0.0961882
0.0969883
0.0979729
0.0991322
0.100451
0.101907
0.103475
0.105122
0.0950454
0.0943872
0.0941504
0.0937324
0.0934167
0.0930425
0.0926857
0.0923159
0.0919702
0.0916631
0.0914284
0.0912934
0.0912886
0.0914387
0.0917646
0.092281
0.0929959
0.093911
0.0950212
0.0963155
0.0977766
0.0993816
0.101101
0.102902
0.0914328
0.0907801
0.0905337
0.0901043
0.0897729
0.0893839
0.0890147
0.0886383
0.0882937
0.0879976
0.0877854
0.0876858
0.0877301
0.0879435
0.088347
0.0889547
0.089774
0.0908053
0.0920423
0.0934725
0.0950768
0.0968306
0.0987027
0.100658
0.087783
0.0871379
0.0868824
0.0864425
0.0860956
0.0856922
0.0853112
0.0849287
0.0845861
0.0843019
0.0841134
0.0840505
0.0841453
0.0844236
0.0849062
0.0856066
0.0865315
0.0876801
0.0890447
0.0906113
0.092359
0.0942618
0.0962863
0.0983961
0.0841057
0.0834704
0.0832062
0.0827567
0.0823948
0.0819777
0.0815854
0.0811976
0.0808576
0.0805865
0.0804227
0.0803979
0.0805446
0.0808891
0.0814521
0.0822464
0.0832779
0.0845445
0.0860372
0.0877402
0.0896313
0.0916825
0.093859
0.0961222
0.0804108
0.0797876
0.0795152
0.0790572
0.0786809
0.0782508
0.0778478
0.0774555
0.0771191
0.0768619
0.0767242
0.0767386
0.0769386
0.0773505
0.077995
0.0788842
0.0800229
0.0814079
0.0830286
0.0848678
0.0869016
0.0891005
0.0914279
0.0938436
0.0767087
0.0760998
0.0758198
0.0753544
0.0749645
0.0745222
0.0741094
0.0737134
0.0733816
0.0731395
0.0730289
0.0730837
0.0733381
0.0738186
0.0745454
0.0755301
0.0767764
0.0782797
0.0800281
0.0820028
0.0841783
0.0865236
0.0890003
0.0915668
0.0730099
0.0724175
0.0721307
0.0716593
0.0712565
0.070803
0.0703812
0.0699826
0.0696564
0.0694305
0.0693482
0.0694446
0.0697544
0.0703043
0.0711141
0.0721947
0.0735485
0.0751697
0.077045
0.0791539
0.0814696
0.0839594
0.0865835
0.0892988
0.069325
0.0687514
0.0684587
0.0679825
0.0675679
0.0671044
0.0666747
0.0662746
0.0659551
0.0657466
0.0656936
0.0658326
0.0661987
0.0668187
0.0677118
0.0688882
0.0703492
0.0720875
0.0740883
0.0763298
0.0787836
0.0814156
0.0841846
0.087046
0.065665
0.0651123
0.0648145
0.0643352
0.0639099
0.0634376
0.0630012
0.0626009
0.0622893
0.0620994
0.0620769
0.0622594
0.0626825
0.0633729
0.0643495
0.0656213
0.0671885
0.0690426
0.0711672
0.0735391
0.0761284
0.0788998
0.0818107
0.0848153
0.0620406
0.0615109
0.0612091
0.0607283
0.0602936
0.0598141
0.0593723
0.0589731
0.0586708
0.0585005
0.0585096
0.0587364
0.059217
0.059978
0.0610376
0.0624041
0.0640763
0.0660443
0.0682905
0.0707901
0.0735119
0.0764194
0.0794687
0.0826128
0.0584625
0.0579578
0.0576532
0.0571726
0.05673
0.0562448
0.0557992
0.0554027
0.0551109
0.0549616
0.0550031
0.055275
0.0558134
0.0566448
0.0577869
0.0592468
0.0610222
0.063102
0.0654669
0.068091
0.0709418
0.0739815
0.0771653
0.0804448
0.0549412
0.0544636
0.0541572
0.0536787
0.0532299
0.0527409
0.0522932
0.0519008
0.051621
0.0514939
0.0515688
0.0518862
0.0524825
0.0533839
0.0546074
0.0561591
0.0580356
0.0602243
0.0627047
0.0654496
0.0684253
0.0715929
0.0749066
0.0783172
0.0514869
0.0510381
0.0507314
0.0502569
0.0498038
0.0493129
0.0488649
0.0484784
0.0482122
0.0481083
0.0482174
0.0485807
0.0492347
0.0502053
0.0515088
0.0531503
0.0551252
0.0574196
0.0600117
0.0628732
0.0659692
0.06926
0.0726986
0.0762353
0.0481094
0.0476911
0.0473855
0.0469172
0.0464617
0.045971
0.0455246
0.045146
0.0448947
0.0448154
0.0449594
0.0453688
0.04608
0.0471187
0.0485003
0.0502291
0.0522992
0.0546956
0.0573952
0.0603685
0.0635798
0.0669885
0.0705469
0.0742042
0.0448178
0.0444317
0.0441286
0.0436686
0.0432129
0.0427247
0.0422821
0.0419131
0.0416785
0.0416249
0.0418044
0.0422598
0.0430275
0.0441328
0.0455904