/*--------------------------------*- C++ -*----------------------------------*\
| =========                 |                                                 |
| \\      /  F ield         | OpenFOAM Extend Project: Open source CFD        |
|  \\    /   O peration     | Version:  1.6-ext                               |
|   \\  /    A nd           | Web:      www.extend-project.de                 |
|    \\/     M anipulation  |                                                 |
\*---------------------------------------------------------------------------*/
FoamFile
{
    version     2.0;
    format      ascii;
    class       surfaceScalarField;
    location    "0.95";
    object      phi;
}
// * * * * * * * * * * * * * * * * * * * * * * * * * * * * * * * * * * * * * //

dimensions      [0 3 -1 0 0 0 0];

internalField   nonuniform List<scalar> 
41420
(
-0.000127042
0.000396637
-0.000397393
0.000127798
-0.000125828
0.000377709
-0.000378923
-0.000124188
0.000359128
-0.000360768
-0.000122122
0.000340795
-0.00034286
-0.000119568
0.000322706
-0.00032526
-0.000116373
0.000304647
-0.000307842
-0.000112298
0.000286268
-0.000290342
-0.000107051
0.000267098
-0.000272345
-0.000100357
0.000246653
-0.000253347
-9.20622e-05
0.000224591
-0.000232886
-8.22239e-05
0.000200858
-0.000210696
-7.1153e-05
0.000175783
-0.000186854
-5.93809e-05
0.000150052
-0.000161824
-4.75666e-05
0.000124587
-0.000136401
-3.6367e-05
0.000100353
-0.000111553
-2.63303e-05
7.81803e-05
-8.8217e-05
-1.78265e-05
5.86428e-05
-6.71465e-05
-1.10384e-05
4.20234e-05
-4.88115e-05
-5.98634e-06
2.83422e-05
-3.33942e-05
-2.5754e-06
1.74214e-05
-2.08324e-05
-6.4348e-07
8.96019e-06
-1.08921e-05
2.60104e-06
-3.24452e-06
-0.000134864
0.000395706
0.000135794
-0.000133452
0.000376298
-0.000131576
0.000357252
-0.000129199
0.000338418
-0.000126207
0.000319713
-0.000122386
0.000300825
-0.000117449
0.000281331
-0.000111094
0.000260743
-0.000103101
0.00023866
-9.34335e-05
0.000214924
-8.2307e-05
0.000189732
-7.01851e-05
0.000163661
-5.77065e-05
0.000137573
-4.55609e-05
0.000112441
-3.43653e-05
8.91575e-05
-2.45757e-05
6.83907e-05
-1.64552e-05
5.05223e-05
-1.00871e-05
3.56553e-05
-5.41729e-06
2.36724e-05
-2.30426e-06
1.43084e-05
-5.6318e-07
7.21912e-06
2.03786e-06
-0.00014975
0.000394102
0.000151355
-0.000147637
0.000374185
-0.000145007
0.000354622
-0.000141768
0.000335179
-0.000137735
0.000315681
-0.00013263
0.00029572
-0.00012613
0.000274831
-0.000117961
0.000252574
-0.000108007
0.000228706
-9.63984e-05
0.000203315
-8.35387e-05
0.000176872
-7.0049e-05
0.000150171
-5.66516e-05
0.000124176
-4.40335e-05
9.98232e-05
-3.27378e-05
7.78618e-05
-2.31093e-05
5.87623e-05
-1.52946e-05
4.27075e-05
-9.27839e-06
2.96392e-05
-4.93535e-06
1.93293e-05
-2.07927e-06
1.14523e-05
-5.02143e-07
5.64199e-06
1.53572e-06
-0.000164035
0.000391846
0.00016629
-0.00016122
0.00037137
-0.000157787
0.000351189
-0.00015357
0.000330961
-0.000148307
0.000310418
-0.000141666
0.000289079
-0.00013333
0.000266495
-0.000123114
0.000242357
-0.000111067
0.00021666
-9.75293e-05
0.000189777
-8.30939e-05
0.000162437
-6.85041e-05
0.000135581
-5.45085e-05
0.00011018
-4.17335e-05
8.70482e-05
-3.06076e-05
6.67359e-05
-2.13455e-05
4.95002e-05
-1.39773e-05
3.53393e-05
-8.3998e-06
2.40617e-05
-4.43035e-06
1.53599e-05
-1.8517e-06
8.87368e-06
-4.43245e-07
4.23354e-06
1.09247e-06
-0.000176997
0.000388986
0.000179857
-0.00017348
0.000367854
-0.000169179
0.000346889
-0.000163839
0.000325621
-0.000157127
0.000303706
-0.000148691
0.000280643
-0.000138286
0.00025609
-0.000125888
0.000229959
-0.000111769
0.000202541
-9.64893e-05
0.000174498
-8.08037e-05
0.000146751
-6.5513e-05
0.000120291
-5.13217e-05
9.59889e-05
-3.87416e-05
7.44681e-05
-2.8059e-05
5.60532e-05
-1.93544e-05
4.07956e-05
-1.25529e-05
2.85378e-05
-7.48095e-06
1.89897e-05
-3.91635e-06
1.17953e-05
-1.62537e-06
6.58269e-06
-3.85975e-07
2.99415e-06
7.06498e-07
-0.00018855
0.000385542
0.000191994
-0.000184282
0.000363586
-0.000178969
0.000341576
-0.000172272
0.000318924
-0.00016382
0.000295254
-0.000153311
0.000270134
-0.000140652
0.000243431
-0.00012605
0.000215357
-0.000110027
0.000186518
-9.33428e-05
0.000157813
-7.68433e-05
0.000130251
-6.13071e-05
0.000104754
-4.73281e-05
8.20099e-05
-3.52653e-05
6.24054e-05
-2.52534e-05
4.60413e-05
-1.72497e-05
3.27918e-05
-1.10939e-05
2.2382e-05
-6.563e-06
1.44588e-05
-3.41324e-06
8.64551e-06
-1.40769e-06
4.57714e-06
-3.31816e-07
1.91827e-06
3.74683e-07
-0.000198473
0.000381465
0.000202549
-0.000193316
0.000358429
-0.00018676
0.00033502
-0.000178401
0.000310564
-0.000167899
0.000284752
-0.000155092
0.000257327
-0.000140124
0.000228463
-0.000123474
0.000198708
-0.000105902
0.000168946
-8.82934e-05
0.000140205
-7.14966e-05
0.000113455
-5.61866e-05
8.94445e-05
-4.27969e-05
6.86203e-05
-3.15191e-05
5.11276e-05
-2.23462e-05
3.68684e-05
-1.51344e-05
2.558e-05
-9.66287e-06
1.69105e-05
-5.68039e-06
1.04763e-05
-2.93744e-06
5.90255e-06
-1.20474e-06
2.84445e-06
-2.82032e-07
9.95566e-07
9.26505e-08
-0.000206538
0.000376659
0.000211345
-0.000200271
0.000352162
-0.000192157
0.000326906
-0.000181797
0.000300204
-0.000168974
0.00027193
-0.000153769
0.000242121
-0.000136621
0.000211315
-0.000118283
0.000180369
-9.96753e-05
0.000150339
-8.17146e-05
0.000122244
-6.51544e-05
9.68944e-05
-5.05032e-05
7.47933e-05
-3.80116e-05
5.61287e-05
-2.77113e-05
4.08274e-05
-1.94786e-05
2.86356e-05
-1.30972e-05
1.91987e-05
-8.311e-06
1.21243e-05
-4.85971e-06
7.02506e-06
-2.50091e-06
3.54375e-06
-1.02075e-06
1.36429e-06
-2.37435e-07
2.12252e-07
-1.44785e-07
-0.000212357
0.000370879
0.000218136
-0.000204657
0.000344463
-0.000194628
0.000316877
-0.000181977
0.000287552
-0.000166718
0.000256671
-0.000149239
0.000224643
-0.000130286
0.000192362
-0.000110813
0.000160896
-9.18005e-05
0.000131326
-7.40836e-05
0.000104527
-5.82484e-05
8.10593e-05
-4.46067e-05
6.11515e-05
-3.32311e-05
4.47531e-05
-2.40199e-05
3.16162e-05
-1.67645e-05
2.13802e-05
-1.1206e-05
1.36401e-05
-7.07551e-06
7.99382e-06
-4.11933e-06
4.06887e-06
-2.11137e-06
1.53579e-06
-8.58144e-07
1.11063e-07
-1.984e-07
-4.47491e-07
-3.43185e-07
-0.000215557
0.000363875
0.000222562
-0.000206079
0.000334984
-0.000193823
0.000304621
-0.000178721
0.00027245
-0.00016112
0.00023907
-0.00014174
0.000205263
-0.000121563
0.000172185
-0.000101634
0.000140967
-8.28702e-05
0.000112563
-6.59375e-05
8.75944e-05
-5.12148e-05
6.63366e-05
-3.88205e-05
4.87572e-05
-2.86779e-05
3.46105e-05
-2.05877e-05
2.3526e-05
-1.42901e-05
1.50826e-05
-9.50938e-06
8.85938e-06
-5.98192e-06
4.46636e-06
-3.47126e-06
1.55821e-06
-1.77366e-06
-1.61815e-07
-7.18373e-07
-9.44221e-07
-1.65142e-07
-1.00072e-06
-5.08327e-07
-0.000215593
0.00035519
0.000224277
-0.000203991
0.000323382
-0.000189338
0.000289968
-0.000171891
0.000255003
-0.00015234
0.00021952
-0.000131687
0.000184609
-0.000111031
0.00015153
-9.13736e-05
0.000121309
-7.34653e-05
9.46542e-05
-5.7756e-05
7.18852e-05
-4.44147e-05
5.29953e-05
-3.33961e-05
3.77385e-05
-2.45149e-05
2.57293e-05
-1.75133e-05
1.65245e-05
-1.2111e-05
9.68027e-06
-8.03635e-06
4.7847e-06
-5.04382e-06
1.47383e-06
-2.92105e-06
-5.64559e-07
-1.48944e-06
-1.59342e-06
-6.01617e-07
-1.83205e-06
-1.37528e-07
-1.46481e-06
-6.45855e-07
-0.000212354
0.000344678
0.000222866
-0.000198477
0.000309506
-0.000181488
0.000272979
-0.000162043
0.000235557
-0.000141142
0.000198619
-0.00011995
0.000163417
-9.95521e-05
0.000131132
-8.07912e-05
0.000102548
-6.41934e-05
7.80565e-05
-4.99851e-05
5.76768e-05
-3.81533e-05
4.11635e-05
-2.85296e-05
2.81148e-05
-2.08611e-05
1.80608e-05
-1.4865e-05
1.05285e-05
-1.0264e-05
5.07925e-06
-6.80542e-06
1.3261e-06
-4.26983e-06
-1.06176e-06
-2.47237e-06
-2.36202e-06
-1.26022e-06
-2.80556e-06
-5.08488e-07
-2.58378e-06
-1.15808e-07
-1.85749e-06
-7.61662e-07
-0.000205312
0.000331836
0.000218154
-0.000189197
0.00029339
-0.000170255
0.000254036
-0.000149481
0.000214784
-0.000128062
0.0001772
-0.000107172
0.000142527
-8.77459e-05
0.000111706
-7.04047e-05
8.5207e-05
-5.54395e-05
6.30912e-05
-4.2881e-05
4.51183e-05
-3.25833e-05
3.08658e-05
-2.4301e-05
1.98325e-05
-1.77513e-05
1.15111e-05
-1.26528e-05
5.43e-06
-8.74767e-06
1.17408e-06
-5.81132e-06
-1.61025e-06
-3.65456e-06
-3.21853e-06
-2.12112e-06
-3.89546e-06
-1.08338e-06
-3.8433e-06
-4.37562e-07
-3.22961e-06
-9.93736e-08
-2.19568e-06
-8.61036e-07
-0.000195087
0.000317205
0.000209718
-0.000177133
0.000275436
-0.000156807
0.00023371
-0.000135465
0.000193442
-0.000114304
0.000156038
-9.4395e-05
0.000122618
-7.64457e-05
9.37568e-05
-6.08262e-05
6.95875e-05
-4.76187e-05
4.98837e-05
-3.67051e-05
3.42048e-05
-2.78543e-05
2.2015e-05
-2.07862e-05
1.27644e-05
-1.5217e-05
5.9419e-06
-1.08845e-05
1.09747e-06
-7.55951e-06
-2.15089e-06
-5.04905e-06
-4.12072e-06
-3.19421e-06
-5.07337e-06
-1.86587e-06
-5.2238e-06
-9.59581e-07
-4.74959e-06
-3.90573e-07
-3.79861e-06
-8.9677e-08
-2.49658e-06
-9.50713e-07
-0.00018143
0.00030035
0.000198286
-0.00016224
0.000256246
-0.00014141
0.00021288
-0.000120405
0.000172437
-0.000100344
0.000135977
-8.20514e-05
0.000104326
-6.59745e-05
7.76799e-05
-5.2256e-05
5.58689e-05
-4.08206e-05
3.84484e-05
-3.14635e-05
2.48476e-05
-2.3919e-05
1.44705e-05
-1.79092e-05
6.7547e-06
-1.31722e-05
1.20484e-06
-9.47603e-06
-2.59868e-06
-6.62437e-06
-5.00255e-06
-4.45542e-06
-6.28967e-06
-2.83833e-06
-6.69046e-06
-1.66833e-06
-6.3938e-06
-8.61531e-07
-5.55639e-06
-3.501e-07
-4.31004e-06
-7.84862e-08
-2.76819e-06
-1.0292e-06
-0.000342343
0.000244154
0.000398538
-0.000286921
0.000200824
-0.000234843
0.000160802
-0.000187943
0.000125537
-0.000147215
9.52496e-05
-0.000112977
7.00874e-05
-8.49762e-05
4.96793e-05
-6.2619e-05
3.35118e-05
-4.51424e-05
2.09718e-05
-3.17481e-05
1.14533e-05
-2.16816e-05
4.40394e-06
-1.42743e-05
-6.5253e-07
-8.9571e-06
-4.11239e-06
-5.25748e-06
-6.2983e-06
-2.78974e-06
-7.47029e-06
-1.24133e-06
-7.83808e-06
-3.59611e-07
-7.57218e-06
5.98996e-08
-6.81331e-06
1.83126e-07
-5.67962e-06
1.4501e-07
-4.27193e-06
5.48407e-08
-2.67802e-06
-9.74359e-07
-0.000283546
0.000186103
0.000341597
-0.000230149
0.000147427
-0.000182892
0.000113546
-0.000142443
8.50879e-05
-0.000108814
6.16202e-05
-8.15485e-05
4.28223e-05
-5.99233e-05
2.80541e-05
-4.31022e-05
1.66907e-05
-3.02546e-05
8.12416e-06
-2.06194e-05
1.81816e-06
-1.35355e-05
-2.67999e-06
-8.44757e-06
-5.74047e-06
-4.89998e-06
-7.65998e-06
-2.52411e-06
-8.67417e-06
-1.02385e-06
-8.97055e-06
-1.62014e-07
-8.69991e-06
2.51518e-07
-7.98571e-06
3.69451e-07
-6.93124e-06
3.1461e-07
-5.62478e-06
1.85583e-07
-4.1429e-06
6.06062e-08
-2.55304e-06
-9.13752e-07
-0.000221481
0.00013224
0.000275345
-0.000174517
0.000100462
-0.000134945
7.39737e-05
-0.000102399
5.25417e-05
-7.62663e-05
3.54878e-05
-5.56885e-05
2.22445e-05
-3.97785e-05
1.21441e-05
-2.76861e-05
4.59834e-06
-1.86556e-05
-9.06371e-07
-1.2042e-05
-4.79541e-06
-7.31099e-06
-7.41102e-06
-4.028e-06
-9.02346e-06
-1.84391e-06
-9.84406e-06
-4.79974e-07
-1.00381e-05
2.85829e-07
-9.73635e-06
6.30241e-07
-9.04432e-06
6.94068e-07
-8.04954e-06
5.8944e-07
-6.82661e-06
4.05364e-07
-5.4407e-06
2.1196e-07
-3.9495e-06
6.33902e-08
-2.40447e-06
-8.50362e-07
-0.000162952
8.65358e-05
0.000208656
-0.000124759
6.22688e-05
-9.3798e-05
4.30131e-05
-6.91309e-05
2.78747e-05
-4.98812e-05
1.6238e-05
-3.51022e-05
7.4655e-06
-2.3949e-05
9.90904e-07
-1.56805e-05
-3.67012e-06
-9.67579e-06
-6.91112e-06
-5.42574e-06
-9.04547e-06
-2.51974e-06
-1.0317e-05
-6.2979e-07
-1.09134e-05
5.04754e-07
-1.09786e-05
1.09063e-06
-1.0624e-05
1.29178e-06
-9.9375e-06
1.2382e-06
-8.99075e-06
1.03286e-06
-7.8442e-06
7.56882e-07
-6.55063e-06
4.73458e-07
-5.15728e-06
2.30896e-07
-3.70694e-06
6.484e-08
-2.23842e-06
-7.85522e-07
-0.000111849
5.05694e-05
0.000147816
-8.28659e-05
3.32854e-05
-6.0068e-05
2.02152e-05
-4.24048e-05
1.02115e-05
-2.89767e-05
2.80981e-06
-1.89393e-05
-2.57185e-06
-1.15847e-05
-6.36365e-06
-6.32297e-06
-8.9319e-06
-2.67515e-06
-1.05589e-05
-2.57216e-07
-1.14634e-05
1.23625e-06
-1.18105e-05
2.04714e-06
-1.17243e-05
2.36668e-06
-1.12981e-05
2.34603e-06
-1.06033e-05
2.10466e-06
-9.69614e-06
1.7369e-06
-8.62298e-06
1.31681e-06
-7.42411e-06
9.01867e-07
-6.13569e-06
5.35744e-07
-4.79115e-06
2.50328e-07
-3.42152e-06
6.7418e-08
-2.05551e-06
-7.18104e-07
-6.95429e-05
2.41354e-05
9.59769e-05
-4.89437e-05
1.26861e-05
-3.31697e-05
4.44121e-06
-2.13075e-05
-1.65071e-06
-1.2569e-05
-5.9287e-06
-6.28293e-06
-8.8579e-06
-1.89963e-06
-1.07469e-05
1.02486e-06
-1.18564e-05
2.8449e-06
-1.2379e-05
3.84144e-06
-1.24599e-05
4.23635e-06
-1.22054e-05
4.2046e-06
-1.16925e-05
3.88414e-06
-1.09777e-05
3.38375e-06
-1.01029e-05
2.78909e-06
-9.10148e-06
2.16737e-06
-8.00126e-06
1.57053e-06
-6.82727e-06
1.03815e-06
-5.60331e-06
5.9901e-07
-4.35201e-06
2.72944e-07
-3.09545e-06
7.16769e-08
-1.85424e-06
-6.46427e-07
-3.57066e-05
6.01454e-06
5.38275e-05
-2.21042e-05
-9.1625e-07
-1.20392e-05
-5.62383e-06
-4.79368e-06
-8.89622e-06
2.59399e-07
-1.09818e-05
3.6212e-06
-1.22197e-05
5.69761e-06
-1.28234e-05
6.81009e-06
-1.29689e-05
7.2127e-06
-1.27816e-05
7.10526e-06
-1.23525e-05
6.64464e-06
-1.17448e-05
5.95407e-06
-1.1002e-05
5.1305e-06
-1.01541e-05
4.25006e-06
-9.22251e-06
3.37257e-06
-8.22398e-06
2.54426e-06
-7.17295e-06
1.80065e-06
-6.08366e-06
1.16756e-06
-4.97022e-06
6.63093e-07
-3.84755e-06
2.98047e-07
-2.73041e-06
7.72824e-08
-1.63347e-06
-5.69145e-07
-9.24902e-06
-5.28258e-06
2.05461e-05
-1.22987e-06
-8.9354e-06
4.32867e-06
-1.11824e-05
7.96865e-06
-1.25362e-05
1.01593e-05
-1.31724e-05
1.12595e-05
-1.332e-05
1.15569e-05
-1.31207e-05
1.12751e-05
-1.26871e-05
1.05892e-05
-1.20957e-05
9.63528e-06
-1.13986e-05
8.51965e-06
-1.06291e-05
7.32513e-06
-9.80746e-06
6.11646e-06
-8.94544e-06
4.94441e-06
-8.05046e-06
3.84834e-06
-7.12791e-06
2.85878e-06
-6.18338e-06
1.99819e-06
-5.22308e-06
1.28286e-06
-4.25488e-06
7.22693e-07
-3.28739e-06
3.22841e-07
-2.33056e-06
8.32884e-08
-1.39392e-06
-4.85856e-07
1.08088e-05
-1.11709e-05
-4.92045e-06
1.449e-05
-1.26166e-05
1.65741e-05
-1.32665e-05
1.74559e-05
-1.34179e-05
1.74686e-05
-1.31851e-05
1.68591e-05
-1.27105e-05
1.58206e-05
-1.20822e-05
1.45001e-05
-1.13666e-05
1.30104e-05
-1.0606e-05
1.14377e-05
-9.82599e-06
9.84844e-06
-9.03983e-06
8.29351e-06
-8.25252e-06
6.81257e-06
-7.4645e-06
5.43626e-06
-6.67415e-06
4.18843e-06
-5.88008e-06
3.08688e-06
-5.08184e-06
2.14489e-06
-4.28109e-06
1.37099e-06
-3.48098e-06
7.70222e-07
-2.68662e-06
3.43518e-07
-1.90385e-06
8.86671e-08
-1.13907e-06
-3.97189e-07
2.50835e-05
-1.2905e-05
-2.33494e-05
2.5494e-05
-1.30271e-05
2.49935e-05
-1.2766e-05
2.38511e-05
-1.22755e-05
2.2287e-05
-1.16211e-05
2.0459e-05
-1.08825e-05
1.84858e-05
-1.0109e-05
1.64543e-05
-9.33502e-06
1.44284e-05
-8.58013e-06
1.24554e-05
-7.85299e-06
1.05703e-05
-7.1547e-06
8.79939e-06
-6.48162e-06
7.16274e-06
-5.82784e-06
5.67576e-06
-5.18717e-06
4.35004e-06
-4.55436e-06
3.19439e-06
-3.92618e-06
2.21459e-06
-3.3013e-06
1.41441e-06
-2.6808e-06
7.94883e-07
-2.06709e-06
3.55219e-07
-1.46419e-06
9.20332e-08
-8.75885e-07
-3.05156e-07
3.37848e-05
-1.16399e-05
-3.50498e-05
3.18934e-05
-1.11358e-05
2.96237e-05
-1.04963e-05
2.71373e-05
-9.78919e-06
2.45623e-05
-9.04598e-06
2.1985e-05
-8.30525e-06
1.9466e-05
-7.59001e-06
1.70458e-05
-6.91476e-06
1.47509e-05
-6.28524e-06
1.25989e-05
-5.70097e-06
1.06013e-05
-5.1571e-06
8.76598e-06
-4.64634e-06
7.09875e-06
-4.16061e-06
5.60374e-06
-3.69216e-06
4.28412e-06
-3.23474e-06
3.14182e-06
-2.78388e-06
2.17802e-06
-2.3375e-06
1.39253e-06
-1.89531e-06
7.84531e-07
-1.45909e-06
3.51905e-07
-1.03156e-06
9.17369e-08
-6.15717e-07
-2.13419e-07
3.68346e-05
-8.51732e-06
-3.99572e-05
3.35939e-05
-7.89508e-06
3.03563e-05
-7.25864e-06
2.71975e-05
-6.63034e-06
2.41734e-05
-6.02193e-06
2.13166e-05
-5.44845e-06
1.86444e-05
-4.91785e-06
1.61635e-05
-4.43377e-06
1.38739e-05
-3.99564e-06
1.17723e-05
-3.59946e-06
9.85442e-06
-3.23917e-06
8.11569e-06
-2.9076e-06
6.55241e-06
-2.59734e-06
5.16182e-06
-2.30156e-06
3.94165e-06
-2.01458e-06
2.89012e-06
-1.73235e-06
2.0052e-06
-1.45258e-06
1.28486e-06
-1.17497e-06
7.26586e-07
-9.00813e-07
3.27955e-07
-6.32929e-07
8.63957e-08
-3.74157e-07
-1.27023e-07
3.40372e-05
-4.71729e-06
-3.78372e-05
3.04269e-05
-4.28479e-06
2.70401e-05
-3.87179e-06
2.38924e-05
-3.48264e-06
2.09912e-05
-3.12074e-06
1.83331e-05
-2.79036e-06
1.59082e-05
-2.49294e-06
1.37025e-05
-2.22811e-06
1.17007e-05
-1.99378e-06
9.88767e-06
-1.78644e-06
8.25025e-06
-1.60175e-06
6.77759e-06
-1.43494e-06
5.46143e-06
-1.28118e-06
4.2958e-06
-1.13593e-06
3.27655e-06
-9.95327e-07
2.40055e-06
-8.56355e-07
1.66519e-06
-7.17216e-07
1.06766e-06
-5.77442e-07
6.05016e-07
-4.38165e-07
2.74143e-07
-3.02055e-07
7.26322e-08
-1.72647e-07
-5.4391e-08
2.52297e-05
-1.46741e-06
-2.84796e-05
2.22616e-05
-1.3167e-06
1.95644e-05
-1.17464e-06
1.71246e-05
-1.04286e-06
1.49266e-05
-9.22729e-07
1.29516e-05
-8.15364e-07
1.11794e-05
-7.20738e-07
9.58963e-06
-6.38307e-07
8.16286e-06
-5.67015e-07
6.8819e-06
-5.0548e-07
5.73224e-06
-4.52092e-07
4.70242e-06
-4.05115e-07
3.78401e-06
-3.62769e-07
2.97137e-06
-3.23297e-07
2.26109e-06
-2.85044e-07
1.6513e-06
-2.4656e-07
1.1408e-06
-2.06725e-07
7.28308e-07
-1.64947e-07
4.11639e-07
-1.21495e-07
1.87388e-07
-7.78048e-08
5.11013e-08
-3.63598e-08
-3.28969e-09
1.03615e-05
-1.1819e-05
9.0529e-06
7.88477e-06
6.84704e-06
5.92827e-06
5.11587e-06
4.3973e-06
3.76048e-06
3.19442e-06
2.68946e-06
2.23755e-06
1.83237e-06
1.46934e-06
1.14565e-06
8.60121e-07
6.13032e-07
4.05767e-07
2.40301e-07
1.18336e-07
4.01381e-08
3.48914e-09
0.000298226
2.54195e-05
1.32601e-06
-0.000324971
0.000272967
2.39039e-05
1.35465e-06
0.000249104
2.24857e-05
1.377e-06
0.000226557
2.11543e-05
1.39302e-06
0.000205249
1.9905e-05
1.4031e-06
0.000185107
1.87339e-05
1.4077e-06
0.000166063
1.76367e-05
1.40723e-06
0.000148053
1.66086e-05
1.40212e-06
0.000131015
1.56452e-05
1.39276e-06
0.000114893
1.47421e-05
1.37952e-06
9.96369e-05
1.38937e-05
1.36256e-06
8.52032e-05
1.30921e-05
1.34156e-06
7.15649e-05
1.23231e-05
1.31517e-06
5.87226e-05
1.15619e-05
1.28038e-06
4.67201e-05
1.07701e-05
1.23242e-06
3.56567e-05
9.89839e-06
1.16502e-06
2.56916e-05
8.89336e-06
1.07177e-06
1.7034e-05
7.71016e-06
9.47414e-07
9.92145e-06
6.32304e-06
7.895e-07
4.58862e-06
4.73378e-06
5.99053e-07
1.23524e-06
2.97272e-06
3.80652e-07
1.09356e-06
1.41684e-07
0.000297807
5.20876e-05
-0.000324475
0.000272618
4.90925e-05
0.000248816
4.62879e-05
0.000226321
4.36494e-05
0.000205058
4.11686e-05
0.000184953
3.8838e-05
0.000165941
3.6649e-05
0.000147957
3.4593e-05
0.000130941
3.26615e-05
0.000114837
3.08459e-05
9.95947e-05
2.91357e-05
8.5172e-05
2.75148e-05
7.15419e-05
2.59533e-05
5.87054e-05
2.43984e-05
4.67068e-05
2.27687e-05
3.56461e-05
2.0959e-05
2.56832e-05
1.88563e-05
1.70278e-05
1.63656e-05
9.91741e-06
1.34334e-05
4.58674e-06
1.00644e-05
1.23476e-06
6.32471e-06
2.32832e-06
0.000296557
7.8553e-05
-0.000323023
0.000271544
7.41058e-05
0.000247892
6.99398e-05
0.000225528
6.60139e-05
0.000204378
6.23179e-05
0.000184375
5.88417e-05
0.00016545
5.55732e-05
0.000147543
5.25001e-05
0.000130594
4.96103e-05
0.000114549
4.6891e-05
9.93576e-05
4.43273e-05
8.49781e-05
4.18943e-05
7.13843e-05
3.95471e-05
5.85786e-05
3.72041e-05
4.66053e-05
3.4742e-05
3.55666e-05
3.19977e-05
2.56222e-05
2.88007e-05
1.69839e-05
2.50038e-05
9.88895e-06
2.05284e-05
4.57157e-06
1.53818e-05
1.22996e-06
9.66631e-06
3.55828e-06
0.000294812
0.000104708
-0.000320967
0.000270069
9.8849e-05
0.000246647
9.33617e-05
0.00022448
8.81815e-05
0.000203499
8.32984e-05
0.00018364
7.87008e-05
0.00016484
7.43733e-05
0.000147039
7.03009e-05
0.000130181
6.64681e-05
0.000114213
6.28591e-05
9.90871e-05
5.94536e-05
8.47617e-05
5.62197e-05
7.12128e-05
5.3096e-05
5.84424e-05
4.99745e-05
4.64985e-05
4.66859e-05
3.54822e-05
4.30141e-05
2.55582e-05
3.87247e-05
1.69367e-05
3.36253e-05
9.85837e-06
2.76067e-05
4.5554e-06
2.06848e-05
1.2247e-06
1.2997e-05
4.78298e-06
0.000292753
0.00013046
-0.000318505
0.000268357
0.000123245
0.000245229
0.00011649
0.000223312
0.000110099
0.000202545
0.000104066
0.000182867
9.83785e-05
0.000164221
9.30195e-05
0.00014655
8.79716e-05
0.000129801
8.32168e-05
0.000113924
7.87361e-05
9.88724e-05
7.45056e-05
8.46067e-05
7.04854e-05
7.11035e-05
6.65992e-05
5.83675e-05
6.27106e-05
4.64461e-05
5.86073e-05
3.54453e-05
5.40149e-05
2.55294e-05
4.86406e-05
1.69152e-05
4.22395e-05
9.84197e-06
3.468e-05
4.54601e-06
2.59807e-05
1.22093e-06
1.63221e-05
6.00391e-06
0.000290777
0.000155752
-0.000316069
0.000266775
0.000147246
0.000243976
0.000139289
0.000222335
0.000131739
0.000201799
0.000124602
0.000182314
0.000117863
0.000163828
0.000111506
0.000146288
0.000105511
0.000129645
9.98598e-05
0.000113851
9.45296e-05
9.8863e-05
8.94939e-05
8.46435e-05
8.47049e-05
7.11694e-05
8.00733e-05
5.84479e-05
7.5432e-05
4.65269e-05
7.05283e-05
3.55164e-05
6.50254e-05
2.55833e-05
5.85737e-05
1.69499e-05
5.08729e-05
9.86001e-06
4.17698e-05
4.55168e-06
3.12891e-05
1.22161e-06
1.96522e-05
7.22552e-06
0.000289099
0.000180541
-0.000313889
0.000265521
0.000170825
0.000243069
0.000161741
0.000221714
0.000153094
0.000201412
0.000144904
0.000182117
0.000137158
0.000163783
0.00012984
0.000146363
0.000122931
0.000129813
0.00011641
0.000114086
0.000110256
9.91438e-05
0.000104436
8.49482e-05
9.89005e-05
7.14809e-05
9.35406e-05
5.87447e-05
8.81683e-05
4.67959e-05
8.24771e-05
3.57388e-05
7.60825e-05
2.57555e-05
6.85569e-05
1.70653e-05
5.95632e-05
9.92783e-06
4.89073e-05
4.58132e-06
3.66356e-05
1.22833e-06
2.30051e-05
8.45385e-06
0.0002879
0.0002048
-0.000312159
0.000264761
0.000193964
0.000242664
0.000183837
0.000221597
0.000174162
0.000201524
0.000164977
0.000182409
0.000156274
0.000164212
0.000148037
0.000146892
0.00014025
0.000130409
0.000132893
0.000114723
0.000125942
9.97946e-05
0.000119365
8.55922e-05
0.000113103
7.20928e-05
0.00010704
5.93084e-05
0.000100953
4.72846e-05
9.45009e-05
3.61448e-05
8.72223e-05
2.60593e-05
7.86425e-05
1.72762e-05
6.83462e-05
1.0048e-05
5.61355e-05
4.63641e-06
4.20471e-05
1.24107e-06
2.64005e-05
9.69492e-06
0.00028731
0.000228514
-0.000311023
0.000264611
0.000216663
0.00024286
0.000205588
0.000222062
0.00019496
0.000202196
0.000184842
0.000183236
0.000175234
0.00016515
0.000166123
0.000147903
0.000157497
0.000131461
0.000149335
0.000115786
0.000141617
0.000100844
0.000134308
8.66e-05
0.000127346
7.30393e-05
0.000120601
6.01629e-05
0.000113829
4.80311e-05
0.000106633
3.67524e-05
9.85011e-05
2.65272e-05
8.88677e-05
1.75928e-05
7.72806e-05
1.0239e-05
6.34893e-05
4.72208e-06
4.75641e-05
1.26394e-06
2.98586e-05
1.09589e-05
0.000287367
0.000251669
-0.000310522
0.000265115
0.000238915
0.000243711
0.000226992
0.000223178
0.000215493
0.000203505
0.000204516
0.000184676
0.000194063
0.00016667
0.000184129
0.000149461
0.000174706
0.000133018
0.000165778
0.000117312
0.000157324
0.000102308
0.000149311
8.79799e-05
0.000141675
7.43052e-05
0.000134275
6.12946e-05
0.00012684
4.89962e-05
0.000118931
3.75393e-05
0.000109958
2.71145e-05
9.92924e-05
1.79956e-05
8.63995e-05
1.04697e-05
7.10152e-05
4.82708e-06
5.32067e-05
1.28808e-06
3.33976e-05
1.22469e-05
0.000288065
0.000274255
-0.000310651
0.000266237
0.000260743
0.000245147
0.000248081
0.000224844
0.000235796
0.000205333
0.000224027
0.000186609
0.000212786
0.00016866
0.000202078
0.000151466
0.000191901
0.000135002
0.000182242
0.000119241
0.000173085
0.000104155
0.000164397
8.97148e-05
0.000156115
7.59032e-05
0.000148087
6.27215e-05
0.000140021
5.02263e-05
0.000131426
3.85382e-05
0.000121646
2.78736e-05
0.000109957
1.85106e-05
9.57625e-05
1.07747e-05
7.87511e-05
4.96509e-06
5.90163e-05
1.32459e-06
3.70381e-05
1.35715e-05
0.000289422
0.000296244
-0.00031141
0.000268043
0.000282122
0.000247283
0.000268841
0.000227201
0.000255879
0.000207821
0.000243407
0.000189158
0.000231449
0.000171213
0.000220023
0.000153977
0.000209137
0.000137432
0.000198787
0.000121557
0.000188959
0.000106328
0.000179626
9.17192e-05
0.000170724
7.77098e-05
0.000162096
6.43054e-05
0.000153426
5.15568e-05
0.000144175
3.95983e-05
0.000133605
2.86517e-05
0.000120904
1.90257e-05
0.000105388
1.10617e-05
8.6715e-05
5.08686e-06
6.49912e-05
1.34991e-06
4.07751e-05
1.49214e-05
0.000291253
0.000317642
-0.000312652
0.000270249
0.000303126
0.000249772
0.000289318
0.000229887
0.000275764
0.000210632
0.000262662
0.00019203
0.00025005
0.000174091
0.000237962
0.000156813
0.000226416
0.000140186
0.000215414
0.000124194
0.000204951
0.000108817
0.000195003
9.40311e-05
0.00018551
7.98159e-05
0.000176312
6.61708e-05
0.000167071
5.31473e-05
0.000157199
4.08786e-05
0.000145873
2.96054e-05
0.000132177
1.96591e-05
0.000115335
1.14197e-05
9.49544e-05
5.24071e-06
7.11702e-05
1.38682e-06
4.4629e-05
1.63083e-05
0.000293451
0.000338236
-0.000314044
0.000272927
0.000323649
0.000252754
0.000309492
0.000233036
0.000295482
0.000213849
0.000281848
0.000195241
0.000268659
0.000177237
0.000255967
0.000159848
0.000243805
0.000143072
0.00023219
0.000126901
0.000221122
0.000111317
0.000210587
9.62997e-05
0.000200527
8.18275e-05
0.000190784
6.78994e-05
0.000180999
5.45646e-05
0.000170533
4.19648e-05
0.000158473
3.03583e-05
0.000143783
2.01102e-05
0.000125583
1.16327e-05
0.000103432
5.30345e-06
7.74995e-05
1.38703e-06
4.85454e-05
1.76953e-05
0.000295949
0.000358094
-0.000315806
0.000275759
0.000343839
0.000255888
0.000329362
0.000236373
0.000314997
0.000217302
0.000300919
0.000198733
0.000287228
0.000180702
0.000273998
0.000163228
0.000261279
0.00014632
0.000249098
0.000129975
0.000237467
0.00011418
0.000226381
9.89163e-05
0.000215791
8.41607e-05
0.00020554
6.99085e-05
0.000195251
5.62103e-05
0.000184232
4.32172e-05
0.000171466
3.12123e-05
0.000155788
2.05959e-05
0.000136199
1.18227e-05
0.000112205
5.30637e-06
8.40159e-05
1.33233e-06
5.25194e-05
1.90276e-05
1.24817e-05
0.000360575
-1.4963e-05
9.93603e-06
0.000346385
7.49962e-06
0.000331799
5.08284e-06
0.000317414
2.69555e-06
0.000303307
3.32804e-07
0.00028959
-2.00428e-06
0.000276335
-4.31069e-06
0.000263585
-6.57921e-06
0.000251366
-8.79814e-06
0.000239686
-1.09415e-05
0.000228525
-1.29461e-05
0.000217796
-1.46777e-05
0.000207271
-1.59105e-05
0.000196484
-1.63496e-05
0.000184671
-1.57187e-05
0.000170835
-1.38865e-05
0.000153956
-1.09783e-05
0.000133291
-7.41641e-06
0.000108643
-3.87013e-06
8.04696e-05
-1.13874e-06
4.97881e-05
1.78889e-05
7.2636e-06
0.00036336
-1.00491e-05
4.6108e-06
0.000349038
1.99703e-06
0.000334413
-5.60183e-07
0.000319971
-3.04477e-06
0.000305791
-5.45667e-06
0.000292002
-7.79075e-06
0.000278669
-1.00418e-05
0.000265836
-1.22027e-05
0.000253527
-1.42586e-05
0.000241742
-1.61737e-05
0.00023044
-1.78638e-05
0.000219486
-1.91688e-05
0.000208576
-1.98453e-05
0.00019716
-1.96098e-05
0.000184435
-1.82338e-05
0.000169459
-1.56623e-05
0.000151385
-1.2101e-05
0.00012973
-8.03244e-06
0.000104574
-4.15025e-06
7.65874e-05
-1.2322e-06
4.687e-05
1.66567e-05
1.98319e-06
0.000366363
-4.98602e-06
-7.80355e-07
0.000351801
-3.49581e-06
0.000337128
-6.10407e-06
0.000322579
-8.60323e-06
0.00030829
-1.09902e-05
0.000294389
-1.32603e-05
0.00028094
-1.54094e-05
0.000267985
-1.74292e-05
0.000255547
-1.92997e-05
0.000243613
-2.09698e-05
0.00023211
-2.23307e-05
0.000220847
-2.31945e-05
0.00020944
-2.33049e-05
0.000197271
-2.23961e-05
0.000183526
-2.02944e-05
0.000167357
-1.70242e-05
0.000148114
-1.2873e-05
0.000125579
-8.38101e-06
0.000100083
-4.25632e-06
7.24627e-05
-1.24343e-06
4.38571e-05
1.54133e-05
-3.30724e-06
0.000369481
1.89848e-07
-6.16869e-06
0.000354663
-8.93695e-06
0.000339896
-1.1556e-05
0.000325198
-1.40327e-05
0.000310767
-1.63615e-05
0.000296718
-1.85394e-05
0.000283118
-2.05627e-05
0.000270009
-2.2421e-05
0.000257405
-2.40847e-05
0.000245276
-2.54834e-05
0.000233509
-2.64803e-05
0.000221844
-2.6863e-05
0.000209823
-2.6371e-05
0.000196779
-2.47688e-05
0.000181924
-2.19492e-05
0.000164538
-1.80225e-05
0.000144188
-1.33554e-05
0.000120911
-8.533e-06
9.52602e-05
-4.2583e-06
6.8188e-05
-1.22243e-06
4.08212e-05
1.41908e-05
-8.71297e-06
0.000372652
5.54116e-06
-1.16304e-05
0.00035758
-1.44006e-05
0.000342666
-1.69886e-05
0.000327786
-1.94042e-05
0.000313182
-2.1642e-05
0.000298956
-2.37011e-05
0.000285177
-2.5577e-05
0.000271884
-2.72539e-05
0.000259082
-2.86885e-05
0.000246711
-2.97864e-05
0.000234606
-3.03821e-05
0.00022244
-3.02441e-05
0.000209685
-2.91179e-05
0.000195652
-2.68122e-05
0.000179619
-2.32937e-05
0.000161019
-1.87605e-05
0.000139654
-1.36481e-05
0.000115799
-8.57171e-06
9.01837e-05
-4.21041e-06
6.38267e-05
-1.19047e-06
3.78013e-05
1.30004e-05
-1.43713e-05
0.000375837
1.11864e-05
-1.72998e-05
0.000360509
-2.00302e-05
0.000345397
-2.25508e-05
0.000330307
-2.4871e-05
0.000315503
-2.69882e-05
0.000301073
-2.89024e-05
0.000287091
-3.0607e-05
0.000273589
-3.20773e-05
0.000260552
-3.32517e-05
0.000247885
-3.40077e-05
0.000235363
-3.41533e-05
0.000222585
-3.34435e-05
0.000208975
-3.16445e-05
0.000193853
-2.86179e-05
0.000176592
-2.44149e-05
0.000156816
-1.93149e-05
0.000134554
-1.38151e-05
0.000110299
-8.54021e-06
8.49089e-05
-4.13511e-06
5.94216e-05
-1.15303e-06
3.48192e-05
1.18473e-05
-2.04329e-05
0.000378991
1.72795e-05
-2.33214e-05
0.000363397
-2.597e-05
0.000348045
-2.83852e-05
0.000332722
-3.05756e-05
0.000317693
-3.25418e-05
0.000303039
-3.42839e-05
0.000288833
-3.57899e-05
0.000275095
-3.70222e-05
0.000261785
-3.78948e-05
0.000248758
-3.82563e-05
0.000235724
-3.78886e-05
0.000222217
-3.65464e-05
0.000207633
-3.40249e-05
0.000191332
-3.02569e-05
0.000172824
-2.53748e-05
0.000151934
-1.97427e-05
0.000128922
-1.38979e-05
0.000104454
-8.46754e-06
7.94785e-05
-4.04529e-06
5.49993e-05
-1.11405e-06
3.1888e-05
1.07333e-05
-2.71081e-05
0.000382071
2.40276e-05
-2.9908e-05
0.000366197
-3.24335e-05
0.000350571
-3.47037e-05
0.000334992
-3.67275e-05
0.000319717
-3.85085e-05
0.00030482
-4.00444e-05
0.000290369
-4.1315e-05
0.000276366
-4.22633e-05
0.000262733
-4.27758e-05
0.00024927
-4.26688e-05
0.000235617
-4.17073e-05
0.000221256
-3.96521e-05
0.000205578
-3.63488e-05
0.000188028
-3.18024e-05
0.000168278
-2.62409e-05
0.000146373
-2.00931e-05
0.000122775
-1.39357e-05
9.82972e-05
-8.37382e-06
7.39166e-05
-3.95167e-06
5.05772e-05
-1.07538e-06
2.90117e-05
9.6579e-06
-3.45931e-05
0.000385029
3.16351e-05
-3.72512e-05
0.000368855
-3.96076e-05
0.000352927
-4.16891e-05
0.000337074
-4.35055e-05
0.000321533
-4.50618e-05
0.000306377
-4.63509e-05
0.000291658
-4.73382e-05
0.000277353
-4.79426e-05
0.000263337