/*--------------------------------*- C++ -*----------------------------------*\
| =========                 |                                                 |
| \\      /  F ield         | OpenFOAM Extend Project: Open source CFD        |
|  \\    /   O peration     | Version:  1.6-ext                               |
|   \\  /    A nd           | Web:      www.extend-project.de                 |
|    \\/     M anipulation  |                                                 |
\*---------------------------------------------------------------------------*/
FoamFile
{
    version     2.0;
    format      ascii;
    class       volVectorField;
    location    "0.95";
    object      U;
}
// * * * * * * * * * * * * * * * * * * * * * * * * * * * * * * * * * * * * * //

dimensions      [0 1 -1 0 0 0 0];

internalField   nonuniform List<vector> 
20940
(
(1.84809 0.397981 5.76745e-21)
(1.88761 0.418007 -2.34793e-21)
(1.92503 0.437314 -7.73197e-22)
(1.9595 0.454855 1.05896e-20)
(1.99072 0.470839 7.48655e-21)
(2.01707 0.484142 7.66386e-22)
(2.03554 0.493653 0)
(2.04133 0.497425 -1.28361e-23)
(2.02806 0.493225 8.45605e-21)
(1.98864 0.478816 4.44703e-22)
(1.91684 0.452664 1.1638e-20)
(1.80911 0.414541 -2.53377e-20)
(1.66591 0.365886 0)
(1.49212 0.309694 1.61523e-23)
(1.29621 0.249973 9.16905e-21)
(1.08861 0.190983 -1.96467e-20)
(0.879839 0.136524 1.01289e-20)
(0.678973 0.089495 2.24981e-20)
(0.492812 0.0517035 -1.18058e-20)
(0.325645 0.0239202 -1.86328e-20)
(0.179488 0.00662217 1.28849e-20)
(0.0545525 0.000490659 0)
(1.87494 0.374782 -4.63682e-21)
(1.91318 0.393655 7.90418e-21)
(1.949 0.41115 9.80517e-21)
(1.98129 0.426906 -1.64505e-20)
(2.00921 0.440583 0)
(2.03027 0.450976 9.74974e-21)
(2.04045 0.456672 -2.28618e-20)
(2.03401 0.455634 0)
(2.00419 0.445798 -1.7006e-20)
(1.9445 0.425483 -1.09876e-20)
(1.85048 0.394057 2.148e-20)
(1.72123 0.352344 3.78582e-20)
(1.56016 0.302679 -1.40856e-20)
(1.3746 0.248522 0)
(1.1744 0.193783 0)
(0.9701 0.14213 -1.8494e-20)
(0.77126 0.0964733 -1.03141e-20)
(0.585438 0.0587614 -3.22608e-20)
(0.417776 0.0299676 -3.15699e-22)
(0.271114 0.0102387 2.97617e-20)
(0.146413 -0.000366766 0)
(0.0432826 -0.0014084 -1.01346e-20)
(1.89957 0.351551 -1.24347e-20)
(1.93621 0.36934 2.26454e-22)
(1.96988 0.38513 -3.81533e-20)
(1.99912 0.39911 2.6408e-20)
(2.02232 0.410374 -2.91327e-20)
(2.03596 0.417632 1.39976e-21)
(2.03501 0.419227 2.50466e-20)
(2.01307 0.413198 -2.53838e-20)
(1.96361 0.397859 -3.1461e-20)
(1.8815 0.372287 -3.79079e-20)
(1.76472 0.336828 -2.33039e-20)
(1.61536 0.293243 7.41181e-20)
(1.43959 0.244474 1.6217e-20)
(1.24656 0.194069 1.93832e-21)
(1.04664 0.145515 -6.60918e-20)
(0.84969 0.101697 1.84783e-20)
(0.663855 0.0646192 -2.0165e-20)
(0.494973 0.0353839 9.30948e-20)
(0.346581 0.0142982 -2.1956e-20)
(0.220233 0.00105515 -4.59528e-20)
(0.116026 -0.00458062 3.56545e-20)
(0.0331142 -0.00236094 1.01389e-20)
(1.92305 0.328662 0)
(1.95761 0.345436 3.30093e-20)
(1.98832 0.359557 -2.1453e-20)
(2.01319 0.371663 -2.02059e-21)
(2.0296 0.380273 0)
(2.03293 0.384049 0)
(2.01729 0.381218 0)
(1.9762 0.370102 -3.00964e-20)
(1.90412 0.349623 1.30241e-19)
(1.79816 0.319757 -7.25585e-20)
(1.65926 0.281794 -2.16392e-20)
(1.49252 0.238206 -4.92102e-20)
(1.30631 0.192177 1.07277e-19)
(1.11073 0.146983 -2.92282e-20)
(0.915758 0.105438 0)
(0.729958 0.0695704 -7.00302e-20)
(0.559717 0.0405401 5.4647e-20)
(0.409132 0.0187534 -7.95001e-20)
(0.280274 0.00402417 -2.24078e-20)
(0.173629 -0.00425347 8.67422e-20)
(0.0886266 -0.00649435 5.74047e-20)
(0.0241125 -0.00256608 -3.77316e-20)
(1.94508 0.306187 0)
(1.97691 0.321942 3.56311e-20)
(2.0035 0.334344 -1.62245e-21)
(2.02211 0.344371 1.05865e-19)
(2.02893 0.350003 -6.59012e-20)
(2.01837 0.349943 3.79967e-20)
(1.98415 0.342491 0)
(1.92049 0.326491 0)
(1.8238 0.301653 -3.4271e-20)
(1.69409 0.268881 1.09175e-19)
(1.53547 0.230235 1.26503e-19)
(1.35561 0.188555 -1.86819e-19)
(1.16419 0.146889 1.52668e-19)
(0.971246 0.107954 -1.13993e-19)
(0.785615 0.0737679 3.0743e-20)
(0.614109 0.045534 -6.68965e-20)
(0.461269 0.0237079 1.05049e-19)
(0.329578 0.00817633 -7.58828e-20)
(0.219876 -0.00157351 7.89688e-20)
(0.131826 -0.00631254 0)
(0.0644018 -0.00654218 0)
(0.0162801 -0.0021876 0)
(1.96516 0.284196 -3.01235e-20)
(1.99327 0.298876 3.36439e-21)
(2.01401 0.309413 -1.33692e-19)
(2.02373 0.317047 0)
(2.01743 0.319317 0)
(1.98895 0.315138 -4.16927e-20)
(1.93238 0.303115 4.57284e-20)
(1.84362 0.282829 5.49713e-20)
(1.7219 0.254856 3.31121e-20)
(1.5705 0.220904 -7.05696e-20)
(1.39638 0.183494 -1.23555e-19)
(1.20886 0.14545 2.24705e-19)
(1.01791 0.109367 -1.48726e-19)
(0.832565 0.0772333 2.76918e-20)
(0.659971 0.0502768 3.00527e-20)
(0.505023 0.0289972 0)
(0.370521 0.0133198 -3.46189e-20)
(0.257581 0.00278624 0)
(0.166094 -0.00329893 -3.71315e-20)
(0.0951499 -0.00576823 8.0026e-20)
(0.0434468 -0.00514461 -1.02707e-19)
(0.00961398 -0.0013762 6.93897e-20)
(1.98285 0.262497 3.35813e-20)
(2.00565 0.275913 -7.6749e-20)
(2.01802 0.284313 9.08299e-20)
(2.01537 0.289182 5.77252e-20)
(1.99179 0.287784 0)
(1.94127 0.279454 -8.34534e-20)
(1.85933 0.263329 -5.55208e-21)
(1.74456 0.239845 5.15397e-20)
(1.59949 0.210367 0)
(1.43048 0.177139 0)
(1.24649 0.142762 -7.74198e-20)
(1.05741 0.109704 -4.41686e-20)
(0.872419 0.0799071 9.64606e-20)
(0.698912 0.0546077 -1.03008e-19)
(0.542073 0.0343434 0)
(0.404958 0.0190824 0)
(0.288885 0.00839682 0)
(0.193908 0.00163401 6.91636e-20)
(0.119257 -0.00197374 -3.49864e-20)
(0.0636668 -0.00324882 0)
(0.0257149 -0.00269577 2.02548e-20)
(0.00406769 -0.000267788 0)
(1.99662 0.241024 6.15022e-20)
(2.01183 0.252917 0)
(2.0125 0.258858 0)
(1.99334 0.260602 -1.17614e-19)
(1.94819 0.255399 6.66058e-20)
(1.87227 0.24323 8.31725e-20)
(1.76361 0.22392 -9.12624e-20)
(1.62412 0.198731 -1.62895e-19)
(1.45962 0.16958 5.90718e-20)
(1.27877 0.138879 0)
(1.09136 0.108958 7.69305e-20)
(0.9067 0.081703 -8.24701e-20)
(0.7324 0.0583475 0)
(0.573879 0.0394597 4.90353e-20)
(0.434401 0.0250505 5.29862e-20)
(0.315437 0.0147329 0)
(0.217149 0.00788096 0)
(0.138849 0.00376287 0)
(0.0793542 0.00161419 1.39527e-19)
(0.037232 0.000665725 -1.09012e-19)
(0.0110488 0.00045186 -7.62121e-20)
(-0.00043654 0.0010201 1.27119e-19)
(2.00519 0.219213 0)
(2.00949 0.229189 0)
(1.99428 0.232331 0)
(1.9541 0.230794 0)
(1.88362 0.222062 6.97855e-20)
(1.78047 0.206901 -8.07694e-20)
(1.64596 0.185829 -1.87014e-19)
(1.48546 0.160726 1.03943e-19)
(1.30733 0.13372 9.62338e-22)
(1.12135 0.107036 6.70026e-20)
(0.936912 0.0824855 -7.25237e-20)
(0.761848 0.0612975 1.61445e-19)
(0.601787 0.0440649 0)
(0.460164 0.0308413 -1.45272e-19)
(0.338571 0.0212863 -8.83805e-22)
(0.237241 0.0148145 0)
(0.155526 0.0107203 -5.8375e-20)
(0.0922737 0.00827134 0)
(0.0460994 0.00675181 -1.3373e-19)
(0.015534 0.0054671 1.03202e-19)
(-0.000791917 0.00399759 0)
(-0.00399785 0.00239029 0)
(2.00506 0.197109 7.19763e-20)
(1.99456 0.204847 0)
(1.95905 0.205047 5.22925e-20)
(1.89399 0.200354 -1.19239e-19)
(1.79606 0.188748 -1.33393e-21)
(1.66626 0.171809 -2.84108e-22)
(1.50941 0.150603 9.1556e-20)
(1.3337 0.127306 -1.55523e-19)
(1.14888 0.103904 1.7244e-19)
(0.964517 0.0821756 0)
(0.788635 0.0633177 0)
(0.627081 0.0479471 -7.88792e-20)
(0.48345 0.0361574 8.55712e-20)
(0.359437 0.0276565 -2.29813e-19)
(0.255323 0.0219074 9.8253e-20)
(0.170473 0.0182452 5.35165e-20)
(0.103733 0.0159642 1.84326e-21)
(0.0537198 0.014378 0)
(0.0189935 0.0128414 0)
(-0.00186 0.010741 0)
(-0.010104 0.00770243 0)
(-0.00672878 0.00376814 2.90535e-20)
(1.99446 0.173686 -7.11933e-20)
(1.96432 0.178921 0)
(1.90432 0.176296 0)
(1.81175 0.169092 6.15058e-20)
(1.68645 0.155862 -6.78885e-20)
(1.53309 0.138792 -1.95379e-22)
(1.35954 0.119219 8.98413e-20)
(1.17563 0.0992545 1.01589e-19)
(0.991082 0.0804908 -1.13732e-19)
(0.814213 0.0641429 1.23624e-19)
(0.651087 0.0508323 0)
(0.505467 0.0406952 0)
(0.379137 0.0334898 -8.25155e-20)
(0.272415 0.0287315 1.33335e-19)
(0.184662 0.0258052 -4.86416e-20)
(0.114703 0.0240468 5.22473e-20)
(0.0611309 0.0227979 1.12117e-19)
(0.0224949 0.0214411 1.19548e-21)
(-0.00259731 0.0194091 -2.46278e-19)
(-0.0154532 0.0161682 1.28633e-19)
(-0.0172131 0.0113866 0)
(-0.00874606 0.00509885 -2.91316e-20)
(1.96735 0.150047 0)
(1.91418 0.15287 0)
(1.82706 0.147951 0)
(1.70701 0.13915 0)
(1.55733 0.125607 0)
(1.38606 0.10986 1.57135e-19)
(1.20293 0.0932337 -8.87062e-20)
(1.01803 0.0775023 0)
(0.839954 0.0637435 -1.10702e-19)
(0.675082 0.0526219 2.42455e-19)
(0.527371 0.0442949 -1.32271e-19)
(0.398713 0.0385685 -1.46528e-19)
(0.289455 0.0350077 7.9029e-20)
(0.198945 0.0330473 -1.38934e-21)
(0.125972 0.0320696 9.20829e-20)
(0.0690905 0.0314555 -9.99333e-20)
(0.026819 0.0306145 1.59355e-19)
(-0.00224661 0.0290049 1.13174e-19)
(-0.0193911 0.0261347 9.76134e-22)
(-0.0257907 0.0215445 -1.24307e-19)
(-0.0224626 0.0149418 3.20934e-20)
(-0.0101708 0.00635304 -1.11153e-19)
(1.92545 0.124252 -7.71996e-20)
(1.84473 0.12502 9.04011e-20)
(1.7298 0.118816 -1.06528e-19)
(1.58434 0.109815 1.17843e-19)
(1.41526 0.097674 1.38393e-19)
(1.23283 0.0847869 -1.54074e-19)
(1.04724 0.0722617 -8.76801e-20)
(0.867615 0.0613581 -5.39003e-22)
(0.700646 0.0526599 -1.07783e-19)
(0.550562 0.0463833 1.17197e-19)
(0.419383 0.0423726 0)
(0.307499 0.0402476 0)
(0.214235 0.0394951 7.74954e-20)
(0.138335 0.0395469 -8.39701e-20)
(0.0782975 0.0398278 -4.43999e-20)
(0.0325982 0.0397841 0)
(-0.000197125 0.0388994 1.03094e-19)
(-0.0213809 0.0367044 5.48144e-20)
(-0.0321017 0.0327769 -2.30107e-19)
(-0.033399 0.0267252 2.11688e-19)
(-0.0261759 0.0182955 -1.57633e-19)
(-0.0111127 0.00751097 0)
(1.85872 0.100616 7.61605e-20)
(1.75313 0.100007 -8.91573e-20)
(1.61227 0.0933563 -1.06734e-19)
(1.4468 0.0851825 5.71334e-20)
(1.26539 0.0753568 -6.48476e-22)
(1.07934 0.0659304 -7.72329e-20)
(0.898004 0.0577152 8.56079e-20)
(0.728697 0.051422 8.56538e-22)
(0.575951 0.0472259 -1.05176e-19)
(0.441999 0.0450141 2.2992e-19)
(0.327303 0.044442 -2.51683e-19)
(0.231188 0.0450436 1.3657e-19)
(0.152349 0.0462956 -2.23791e-19)
(0.0892252 0.047664 2.40573e-19)
(0.0402349 0.0486304 -4.23445e-20)
(0.00390249 0.0487059 -4.61937e-20)
(-0.0210882 0.0474389 0)
(-0.0358866 0.0444219 -5.33893e-20)
(-0.0414987 0.0392917 -5.52272e-20)
(-0.0388343 0.0317159 2.96373e-20)
(-0.0286955 0.0214768 0)
(-0.0116941 0.00859723 -2.61513e-20)
(1.78379 0.0735446 0)
(1.64784 0.0723616 -1.83426e-19)
(1.48545 0.0675434 1.01899e-19)
(1.30544 0.0614311 0)
(1.11833 0.0554421 0)
(0.93477 0.0504435 -3.88978e-22)
(0.762384 0.0470078 8.31244e-20)
(0.606237 0.0452973 0)
(0.468813 0.0452056 0)
(0.350715 0.046444 0)
(0.251294 0.048615 -6.09223e-20)
(0.16921 0.0512681 -1.3375e-19)
(0.102831 0.0539328 2.16767e-19)
(0.0504976 0.0561396 -2.34991e-19)
(0.0106665 0.0574335 1.68746e-19)
(-0.0180248 0.0573823 4.5543e-20)
(-0.0367479 0.0555845 0)
(-0.0465045 0.0516777 0)
(-0.0481631 0.045344 -1.81479e-22)
(-0.0425146 0.0363011 1.13425e-19)
(-0.0302731 0.0243675 0)
(-0.0119982 0.00957489 -5.17008e-20)
(1.6331 0.0534974 0)
(1.46711 0.0497745 9.64374e-20)
(1.28544 0.0469847 1.13084e-19)
(1.09908 0.0439224 1.2759e-19)
(0.917229 0.0421836 0)
(0.747432 0.0416612 -7.90115e-20)
(0.594177 0.0425529 8.7714e-20)
(0.459699 0.0446653 9.72089e-20)
(0.344366 0.0477472 -1.05883e-19)
(0.247367 0.0514659 -5.73027e-22)
(0.167235 0.055452 1.26584e-19)
(0.102243 0.0593138 0)
(0.0506568 0.0626493 0)
(0.0108838 0.0650549 8.06266e-20)
(-0.0184658 0.0661353 0)
(-0.0385687 0.0655132 9.22168e-20)
(-0.0504102 0.0628413 -9.74122e-20)
(-0.054822 0.0578136 0)
(-0.0525251 0.050176 5.40529e-20)
(-0.0441846 0.0397244 -1.69464e-19)
(-0.0304173 0.0263529 2.91998e-20)
(-0.0117274 0.0101429 -2.57035e-20)
(1.37831 0.0311598 1.34893e-19)
(1.19502 0.0299807 2.07139e-19)
(1.01272 0.0316452 -1.14001e-19)
(0.838468 0.032998 -3.26362e-19)
(0.678384 0.0359157 0)
(0.535753 0.0394442 0)
(0.411849 0.0437499 0)
(0.30641 0.0485268 3.88233e-22)
(0.218246 0.0535683 -1.07713e-19)
(0.145688 0.058608 -1.77011e-19)
(0.0869321 0.0633617 1.93029e-19)
(0.0402393 0.0675203 -6.93805e-20)
(0.00405155 0.0707567 0)
(-0.022967 0.0727352 0)
(-0.0419296 0.0731226 -4.30334e-20)
(-0.0537527 0.0716028 -1.38191e-19)
(-0.059194 0.0678908 9.74614e-20)
(-0.058893 0.061747 0)
(-0.0534112 0.0529886 0)
(-0.0432732 0.0414911 -5.59869e-20)
(-0.0289716 0.027222 8.70874e-20)
(-0.01092 0.010294 7.52126e-20)
(1.09344 0.0185443 1.71648e-21)
(0.915643 0.0205089 -1.06079e-19)
(0.752026 0.0261303 0)
(0.602936 0.0308007 6.64231e-20)
(0.472172 0.0367201 7.44132e-20)
(0.35954 0.0426321 -8.30741e-20)
(0.264503 0.0487596 1.8221e-19)
(0.185507 0.0548178 -2.12901e-22)
(0.120808 0.0606669 2.18917e-19)
(0.0685831 0.0661044 5.98823e-20)
(0.0271405 0.0709111 -6.47721e-20)
(-0.00501406 0.0748365 -3.99204e-22)
(-0.0291472 0.0776071 0)
(-0.0463054 0.0789351 -1.62303e-19)
(-0.0573407 0.0785332 1.73359e-19)
(-0.0629455 0.0761307 4.63599e-20)
(-0.063691 0.0714893 0)
(-0.0600621 0.0644192 0)
(-0.0524895 0.0547901 0)
(-0.0413793 0.0425351 0)
(-0.0271178 0.0276715 1.15557e-19)
(-0.0100397 0.0103265 -7.34672e-20)
(0.814461 0.0126439 -1.44713e-19)
(0.65862 0.0184337 0)
(0.523678 0.0266385 0)
(0.404609 0.033586 0)
(0.303894 0.041043 -7.64941e-20)
(0.219303 0.0480234 -5.04836e-22)
(0.149611 0.0547552 -2.78781e-22)
(0.0928664 0.0610592 0)
(0.0473433 0.0668699 -5.58227e-20)
(0.0114061 0.0720517 0)
(-0.0163565 0.0764399 1.31151e-19)
(-0.0371389 0.0798288 -2.12965e-19)
(-0.051924 0.0819811 1.52134e-19)
(-0.0615075 0.0826403 4.12701e-20)
(-0.06653 0.0815475 -4.3685e-20)
(-0.067509 0.0784597 9.2413e-20)
(-0.0648713 0.0731666 -9.72862e-20)
(-0.0589805 0.0655072 0)
(-0.0501608 0.0553803 8.03076e-20)
(-0.0387181 0.0427503 1.37824e-22)
(-0.0249461 0.0276581 -2.28703e-19)
(-0.00910639 0.0102296 9.66504e-20)
(0.564185 0.0131369 -9.98242e-20)
(0.438593 0.0218314 1.12619e-19)
(0.334437 0.0308572 0)
(0.244787 0.0387092 0)
(0.17112 0.0463449 0)
(0.110568 0.0532841 0)
(0.0618201 0.0597166 9.4191e-20)
(0.0230327 0.0655733 -1.02761e-19)
(-0.00726073 0.0708354 -2.26244e-22)
(-0.0303931 0.0754121 0)
(-0.0474735 0.0791712 -1.98746e-19)
(-0.0594214 0.0819325 1.42437e-19)
(-0.0669828 0.0834801 0)
(-0.0707571 0.0835765 -9.3993e-23)
(-0.0712242 0.0819802 1.74251e-19)
(-0.068772 0.0784648 -9.21687e-20)
(-0.0637199 0.0728363 4.89045e-20)
(-0.05634 0.0649478 -1.01771e-19)
(-0.0468734 0.0547105 1.06468e-19)
(-0.0355436 0.0420999 -2.47228e-19)
(-0.0225676 0.0271584 1.13235e-19)
(-0.00814345 0.00999289 2.36412e-20)
(0.354085 0.0171329 5.01601e-20)
(0.259707 0.0270333 -5.75882e-20)
(0.183716 0.0357288 0)
(0.119844 0.0433814 0)
(0.0687249 0.0503595 -7.83228e-20)
(0.0277306 0.0565887 8.67034e-20)
(-0.00431282 0.0622222 -9.48571e-20)
(-0.0289308 0.0672718 0)
(-0.0472893 0.0717437 -1.70337e-19)
(-0.0604249 0.0755757 6.15613e-20)
(-0.0691873 0.0786543 -6.63747e-20)
(-0.0742748 0.0808159 0)
(-0.0762512 0.0818589 3.83103e-20)
(-0.0755689 0.081559 -1.23324e-19)
(-0.0725905 0.079687 8.7123e-20)
(-0.067609 0.0760271 9.22294e-20)
(-0.0608659 0.0703934 -1.45169e-19)
(-0.0525656 0.0626437 7.61289e-20)
(-0.042886 0.0526894 -5.27452e-20)
(-0.0319863 0.0405022 1.0939e-19)
(-0.020024 0.0261097 2.78984e-20)
(-0.00714979 0.00958531 8.17793e-20)
(0.185503 0.022032 0)
(0.118953 0.0314773 -5.77919e-20)
(0.0667007 0.0391756 6.47184e-20)
(0.024054 0.0459159 -7.14064e-20)
(-0.00897023 0.0518077 -4.83558e-23)
(-0.0344469 0.0569957 8.71228e-20)
(-0.0533606 0.0616145 4.81882e-20)
(-0.0668939 0.0657227 -1.56898e-19)
(-0.075946 0.069339 0)
(-0.0813044 0.0724173 6.20808e-20)
(-0.0836117 0.0748567 1.34667e-22)
(-0.0833946 0.0765062 -1.15925e-22)
(-0.0810785 0.0771768 3.83523e-20)
(-0.0770059 0.0766568 8.22176e-20)
(-0.0714531 0.074729 -1.74355e-19)
(-0.0646443 0.0711869 1.84056e-19)
(-0.0567649 0.0658504 -9.66179e-20)
(-0.0479711 0.0585776 -5.04616e-20)
(-0.0383957 0.0492739 7.8502e-20)
(-0.0281511 0.0378991 2.72115e-20)
(-0.0173544 0.0244562 -2.79467e-20)
(-0.00612833 0.00897657 -1.16107e-20)
(0.0547334 0.0257938 -5.19609e-20)
(0.0111555 0.0336951 5.85219e-20)
(-0.0219079 0.0400194 3.87966e-22)
(-0.047657 0.0455022 -7.19797e-20)
(-0.0664417 0.0501668 0)
(-0.0797852 0.0542266 8.80702e-20)
(-0.0884903 0.0578059 -4.79461e-20)
(-0.0934412 0.0609829 5.28362e-20)
(-0.0953182 0.0637818 -5.72215e-20)
(-0.0947079 0.0661672 6.22481e-20)
(-0.092089 0.068049 -1.00792e-19)
(-0.0878539 0.0692894 7.21144e-20)
(-0.0823212 0.0697145 0)
(-0.0757495 0.0691281 0)
(-0.06835 0.0673276 0)
(-0.0602967 0.0641187 0)
(-0.0517353 0.0593291 -2.40079e-20)
(-0.0427895 0.052818 7.52523e-20)
(-0.0335626 0.0444849 -1.30228e-19)
(-0.024137 0.0342758 1.07454e-19)
(-0.0146081 0.0221665 -1.10287e-19)
(-0.00509029 0.00814506 1.1341e-20)
(-0.0429705 0.0272556 5.21432e-20)
(-0.0683015 0.0332002 -1.21807e-22)
(-0.0862313 0.037995 6.55766e-20)
(-0.0988393 0.0421211 -7.27974e-20)
(-0.106628 0.0455757 8.00592e-20)
(-0.110677 0.0485549 4.4449e-20)
(-0.111621 0.0511698 3.08165e-22)
(-0.110103 0.0534987 -2.64552e-19)
(-0.106622 0.0555672 1.7281e-19)
(-0.101604 0.0573474 6.2462e-20)
(-0.0953948 0.0587609 -6.57202e-23)
(-0.0882787 0.0596857 8.24029e-23)
(-0.080489 0.0599661 -7.72815e-20)
(-0.0722187 0.0594261 -8.22853e-20)
(-0.0636287 0.0578825 6.53551e-20)
(-0.0548557 0.0551585 0)
(-0.0460176 0.0510946 2.41052e-20)
(-0.0372175 0.0455571 -1.00078e-19)
(-0.028542 0.0384446 2.33448e-19)
(-0.0200579 0.0296936 -1.36316e-22)
(-0.0118556 0.0192577 -1.09482e-19)
(-0.00405889 0.00708747 -9.01497e-20)
(-0.111216 0.0259953 -5.28467e-20)
(-0.122467 0.0300519 1.18357e-19)
(-0.128799 0.0333721 -1.31375e-19)
(-0.131524 0.0362148 7.26791e-20)
(-0.131139 0.0385735 -1.20961e-19)
(-0.128386 0.0405958 2.21872e-19)
(-0.12374 0.0423729 -1.45835e-19)
(-0.11765 0.0439724 1.06302e-19)
(-0.110463 0.0454178 5.78516e-20)
(-0.102473 0.0466871 -3.12873e-20)
(-0.093915 0.047715 3.37198e-20)
(-0.0849866 0.0483978 -7.24177e-20)
(-0.0758518 0.0486023 0)
(-0.0666504 0.0481768 2.05459e-20)
(-0.0575043 0.046963 -6.52537e-20)
(-0.0485214 0.0448069 1.93369e-23)
(-0.0397998 0.0415693 9.59236e-20)
(-0.0314299 0.0371311 9.97685e-20)
(-0.0234905 0.0313996 -1.03362e-19)
(-0.0160438 0.0243123 1.3261e-20)
(-0.00918715 0.0158116 0)
(-0.0030676 0.00582487 -1.00377e-19)
(-0.151938 0.0222497 5.31669e-20)
(-0.152874 0.0247339 -5.88933e-20)
(-0.150844 0.0267926 0)
(-0.146653 0.0285424 -7.33524e-20)
(-0.140695 0.0299833 2.02024e-19)
(-0.133454 0.0312144 -4.44081e-20)
(-0.125257 0.0323049 -4.88898e-20)
(-0.11639 0.0333073 7.98422e-20)
(-0.107076 0.0342406 0)
(-0.0974953 0.0350889 -3.14389e-20)
(-0.0877964 0.0358009 -1.01525e-19)
(-0.078104 0.0362938 7.25726e-20)
(-0.0685266 0.0364602 0)
(-0.0591618 0.0361764 -4.12191e-20)
(-0.0501005 0.0353127 2.17611e-20)
(-0.0414285 0.033743 9.1589e-20)
(-0.0332284 0.0313534 -9.58389e-20)
(-0.0255816 0.028048 0)
(-0.0185627 0.0237533 -1.02965e-19)
(-0.0122344 0.0184211 1.98594e-19)
(-0.00670736 0.0119995 -1.08391e-19)
(-0.00215801 0.00441411 0)
(-0.16575 0.016655 2.62943e-20)
(-0.160006 0.0179702 0)
(-0.152771 0.0190674 0)
(-0.144523 0.019983 1.49321e-22)
(-0.135514 0.0207265 -8.10489e-20)
(-0.126032 0.0213595 0)
(-0.116268 0.02193 -2.44703e-20)
(-0.10638 0.0224752 5.93062e-23)
(-0.096487 0.0230097 -5.80754e-20)
(-0.0866815 0.023523 0)
(-0.0770404 0.0239794 3.39633e-20)
(-0.0676319 0.024319 -5.46376e-20)
(-0.0585212 0.0244625 7.76831e-20)
(-0.0497735 0.0243168 2.06553e-20)
(-0.0414558 0.0237831 -1.09218e-20)
(-0.0336368 0.0227649 0)
(-0.0263867 0.0211764 0)
(-0.0197774 0.0189488 1.24526e-20)
(-0.0138783 0.0160355 5.14315e-20)
(-0.00875067 0.0124149 6.51123e-21)
(-0.00451388 0.00806288 -5.40825e-20)
(-0.0013703 0.00293453 0)
(-0.152682 0.0103225 5.32116e-20)
(-0.143922 0.0108774 0)
(-0.134668 0.0113377 3.3269e-20)
(-0.125206 0.0117004 -3.67488e-20)
(-0.115649 0.011982 4.05643e-20)
(-0.106141 0.0122174 4.49113e-20)
(-0.0967656 0.0124368 -1.21692e-20)
(-0.0875865 0.0126636 8.06072e-20)
(-0.0786438 0.0129083 -5.82808e-20)
(-0.0699661 0.0131665 -1.58007e-20)
(-0.0615777 0.013418 0)
(-0.0535048 0.0136269 -9.1275e-21)
(-0.0457801 0.0137432 -8.77287e-20)
(-0.0384446 0.0137062 9.3107e-20)
(-0.0315475 0.0134488 3.27868e-20)
(-0.0251445 0.0129039 -1.82239e-23)
(-0.0192954 0.0120116 -4.80102e-20)
(-0.0140627 0.0107269 3.73704e-20)
(-0.00950614 0.00902829 -4.51087e-20)
(-0.00567783 0.00692307 5.60432e-24)
(-0.00268874 0.00442722 -5.3965e-20)
(-0.000743357 0.00155384 4.68356e-20)
(-0.112695 0.00432004 -1.33551e-20)
(-0.104629 0.0044638 7.45463e-21)
(-0.0965727 0.00456504 0)
(-0.0887233 0.00462066 0)
(-0.081091 0.00464767 0)
(-0.073731 0.00466393 0)
(-0.0666575 0.00468378 -1.23266e-20)
(-0.0598759 0.00471823 0)
(-0.0533798 0.00477305 0)
(-0.0471595 0.00484808 1.58468e-20)
(-0.0412073 0.00493657 0)
(-0.0355224 0.00502468 -4.58124e-20)
(-0.0301143 0.00509137 5.37389e-20)
(-0.0250049 0.00510877 -1.03719e-20)
(-0.020228 0.00504338 4.38298e-20)
(-0.0158274 0.00485847 -4.60456e-20)
(-0.0118538 0.0045183 0)
(-0.00836108 0.0039946 0)
(-0.00539844 0.00327738 -6.44691e-21)
(-0.00300262 0.0023874 -3.30095e-21)
(-0.00124727 0.00137713 0)
(-0.000289393 0.000353372 -2.75054e-21)
(-0.0461495 0.000485414 -1.3442e-20)
(-0.042409 0.000506652 -7.27297e-21)
(-0.0387215 0.000514622 0)
(-0.0352356 0.000509577 3.57246e-20)
(-0.0319274 0.00049938 -5.90183e-20)
(-0.0288117 0.000488767 2.15316e-20)
(-0.0258789 0.000480986 1.8612e-22)
(-0.0231168 0.000478564 2.62226e-20)
(-0.0205087 0.000483325 -2.81407e-20)
(-0.0180374 0.000496411 0)
(-0.0156874 0.000518091 -3.28114e-20)
(-0.0134471 0.000547443 3.50691e-20)
(-0.0113115 0.000581912 -4.66719e-21)
(-0.00928337 0.000616756 -3.97263e-20)
(-0.00737452 0.000644498 4.18599e-20)
(-0.00560658 0.000654576 -2.14604e-23)
(-0.00401038 0.000633611 0)
(-0.00262467 0.000567101 0)
(-0.00149144 0.000444293 0)
(-0.000646579 0.00026695 -3.15589e-21)
(-0.000127167 6.09712e-05 0)
(1.79814e-05 -8.7185e-05 2.0785e-23)
(1.13612 0.0228362 5.30602e-22)
(1.09004 0.0243824 4.59062e-22)
(1.04194 0.0259766 -4.26748e-20)
(0.991684 0.0276206 0)
(0.939394 0.0293199 0)
(0.885154 0.031081 0)
(0.829055 0.0329067 -1.78483e-20)
(0.771204 0.034798 -9.78904e-24)
(0.711719 0.0367544 0)
(0.65073 0.0387734 -1.20591e-23)
(0.588381 0.0408475 -5.45075e-20)
(0.524838 0.0429551 -5.75468e-22)
(0.460319 0.045038 1.58772e-20)
(0.395155 0.0469673 -3.48863e-20)
(0.3299 0.0485023 3.68004e-20)
(0.265456 0.0492669 3.94923e-20)
(0.203187 0.0487555 -4.12439e-20)
(0.144977 0.0463877 -1.07838e-20)
(0.0930888 0.0415906 1.12105e-20)
(0.0499228 0.0338991 -1.18165e-20)
(0.0187176 0.0230108 2.39455e-20)
(0.00351057 0.00883266 0)
(1.14047 0.0788282 -9.5306e-20)
(1.09484 0.0844899 1.87163e-20)
(1.04734 0.0904265 -2.09817e-20)
(0.997662 0.0966083 0)
(0.945951 0.103028 0)
(0.892291 0.10969 0)
(0.836773 0.116591 1.78349e-20)
(0.779505 0.123724 3.94094e-20)
(0.720604 0.131082 0)
(0.660202 0.138649 0)
(0.598439 0.146395 2.70386e-20)
(0.535477 0.154232 0)
(0.471521 0.161938 4.75256e-20)
(0.40687 0.169029 6.9052e-20)
(0.34202 0.17462 -7.28426e-20)
(0.277782 0.177346 0)
(0.215403 0.175399 -8.22337e-20)
(0.156622 0.166723 9.6219e-20)
(0.103559 0.149315 7.82272e-20)
(0.0584893 0.121558 -1.03555e-19)
(0.0245646 0.0824307 2.34562e-20)
(0.0057814 0.0316514 -7.80336e-20)
(1.14908 0.134833 -6.18854e-20)
(1.10441 0.144626 0)
(1.05814 0.154828 4.23882e-20)
(1.00964 0.16543 0)
(0.959101 0.176421 -1.11237e-19)
(0.906623 0.187811 1.21727e-19)
(0.852295 0.1996 -7.07011e-20)
(0.796227 0.21178 3.75095e-20)
(0.738538 0.22434 8.54595e-20)
(0.679355 0.237255 0)
(0.618818 0.250474 0)
(0.557077 0.263849 0)
(0.494304 0.277 9.40488e-20)
(0.430735 0.289093 -1.98966e-19)
(0.366744 0.298614 -1.79083e-19)
(0.302957 0.303221 3.40815e-19)
(0.240366 0.299825 -1.59243e-19)
(0.180422 0.284917 1.67726e-19)
(0.124953 0.255089 -1.73393e-19)
(0.0759866 0.207602 0)
(0.0365013 0.140733 -1.16558e-19)
(0.0104155 0.0540285 1.70652e-19)
(1.16104 0.188104 0)
(1.11791 0.201909 -7.26251e-20)
(1.07359 0.216237 1.60448e-19)
(1.02694 0.231139 1.867e-19)
(0.978237 0.246593 -1.28726e-22)
(0.927598 0.26261 0)
(0.87511 0.279187 0)
(0.820887 0.296316 0)
(0.76505 0.313978 -8.52107e-20)
(0.707729 0.332142 9.09156e-20)
(0.649056 0.350734 -9.9752e-20)
(0.589168 0.369546 -5.43518e-20)
(0.528192 0.388043 0)
(0.466268 0.405053 -6.42964e-20)
(0.403588 0.41844 1.72363e-19)
(0.340497 0.424913 -1.08571e-19)
(0.277611 0.420134 -3.75079e-20)
(0.215946 0.399188 0)
(0.156895 0.357313 -4.07064e-20)
(0.102116 0.290706 0)
(0.0543284 0.196999 -1.79068e-19)
(0.017334 0.0755996 -1.9385e-20)
(1.17631 0.23878 -4.63035e-21)
(1.13524 0.256468 4.08172e-19)
(1.09351 0.274721 -2.34177e-19)
(1.04931 0.29372 -9.12698e-20)
(1.00305 0.313421 -1.03743e-19)
(0.954848 0.333838 1.16964e-19)
(0.904801 0.354972 -1.18755e-21)
(0.853026 0.376812 1.41203e-19)
(0.79965 0.399338 0)
(0.7448 0.422512 -9.0585e-20)
(0.688606 0.446241 4.65082e-21)
(0.631182 0.47026 5.41779e-20)
(0.572599 0.493887 0)
(0.512867 0.515622 0)
(0.451941 0.532732 -6.36537e-20)
(0.389791 0.541006 7.12007e-20)
(0.326536 0.534907 3.74449e-20)
(0.26262 0.508169 -2.26476e-19)
(0.198863 0.45475 3.99791e-20)
(0.136443 0.369853 2.02871e-19)
(0.0777441 0.250533 0)
(0.0264153 0.0960954 3.36272e-20)
(1.19447 0.285571 -1.14885e-19)
(1.15598 0.306967 -1.32696e-19)
(1.11746 0.328911 0)
(1.07629 0.351774 0)
(1.03305 0.375482 0)
(0.987876 0.400052 -1.06273e-19)
(0.940847 0.425489 -1.2572e-19)
(0.892099 0.451782 -7.43604e-21)
(0.841759 0.478909 0)
(0.789959 0.506827 0)
(0.736822 0.535428 1.83181e-19)
(0.682438 0.564398 -2.0102e-19)
(0.62681 0.592913 3.18391e-19)
(0.56979 0.619168 0)
(0.511038 0.639862 2.50852e-19)
(0.450065 0.649905 -3.21684e-19)
(0.386379 0.642615 0)
(0.319717 0.610445 7.35898e-20)
(0.250202 0.546155 0)
(0.178426 0.44404 -3.45562e-19)
(0.106372 0.300653 3.1349e-19)
(0.037508 0.115253 9.63582e-20)
(1.21506 0.3279 0)
(1.17967 0.352777 9.36533e-22)
(1.14491 0.378112 1.38484e-19)
(1.1073 0.404547 -1.63128e-19)
(1.06761 0.431962 3.55339e-19)
(1.02597 0.460381 1.05525e-19)
(0.982484 0.489814 1.11186e-19)
(0.937291 0.520249 -2.55935e-19)
(0.890523 0.551664 1.49846e-19)
(0.842315 0.584013 -3.09692e-19)
(0.792783 0.617173 -2.60396e-19)
(0.741992 0.650786 1.84263e-19)
(0.689862 0.683906 -1.03604e-19)
(0.636062 0.714444 -1.02362e-19)
(0.579906 0.738566 -4.94734e-20)
(0.520365 0.750359 6.22677e-20)
(0.456222 0.742053 -5.96028e-20)
(0.386382 0.704905 -2.60664e-19)
(0.310152 0.630556 2.05883e-19)
(0.227449 0.512489 -2.79857e-19)
(0.139794 0.34684 2.86857e-19)
(0.0504468 0.132879 0)
(1.23743 0.36507 1.91603e-19)
(1.20563 0.393183 1.17055e-19)
(1.17514 0.421596 -2.5618e-19)
(1.14158 0.45128 1.44241e-19)
(1.10593 0.482057 -3.17076e-21)
(1.06833 0.513963 -1.87788e-19)
(1.02887 0.547015 -1.10254e-19)
(0.987707 0.581206 8.96446e-21)
(0.94499 0.616518 1.0268e-20)
(0.900852 0.652904 -2.89623e-19)
(0.855408 0.690238 -3.73799e-21)
(0.808694 0.728127 3.37838e-19)
(0.760548 0.765521 0)
(0.710434 0.800076 9.3607e-21)
(0.657278 0.827475 1.07913e-19)
(0.599433 0.841033 -1.0218e-19)
(0.534855 0.831967 -1.65708e-19)
(0.461498 0.790404 1.79452e-19)
(0.377738 0.706968 -1.78154e-19)
(0.28273 0.574417 -5.93725e-20)
(0.177482 0.388567 5.162e-19)
(0.0650237 0.14877 1.18372e-21)
(1.26081 0.396514 3.56081e-19)
(1.23307 0.427533 -2.0871e-19)
(1.20727 0.458655 8.83164e-21)
(1.17816 0.491232 -3.07922e-21)
(1.14694 0.525021 -3.02726e-19)
(1.11377 0.560065 0)
(1.07876 0.596387 -1.86654e-19)
(1.04207 0.633979 1.12729e-19)
(1.00386 0.672824 1.24469e-19)
(0.964264 0.712877 0)
(0.923391 0.754005 0)
(0.88125 0.795794 -1.44985e-19)
(0.837589 0.837109 -2.41064e-19)
(0.79165 0.875392 2.6575e-19)
(0.741931 0.905892 -1.82444e-19)
(0.686098 0.921225 2.93732e-19)
(0.621179 0.911662 -9.26054e-20)
(0.544062 0.866297 3.07186e-19)
(0.452087 0.774814 -2.12338e-19)
(0.343575 0.629357 8.05786e-21)
(0.218974 0.42552 5.19279e-20)
(0.0810606 0.162814 0)
(1.28432 0.422078 -1.28576e-20)
(1.26111 0.455719 -1.98271e-19)
(1.24043 0.489199 3.34311e-19)
(1.21617 0.524272 0)
(1.1898 0.560621 1.4756e-19)
(1.16143 0.598316 0)
(1.13121 0.637397 1.74806e-19)
(1.09932 0.677869 -2.73517e-21)
(1.06593 0.719725 1.1124e-19)
(1.03119 0.762928 -1.10465e-19)
(0.995217 0.807351 0)
(0.957995 0.85257 -1.27109e-19)
(0.91919 0.897395 2.98218e-19)
(0.877819 0.939097 -3.02833e-19)
(0.831932 0.972549 3.20637e-19)
(0.778449 0.989728 -1.63991e-19)
(0.713379 0.980036 2.64087e-19)
(0.632429 0.931595 -4.74559e-20)
(0.531791 0.83325 4.08341e-20)
(0.408875 0.676626 5.0233e-20)
(0.263537 0.457221 -5.18552e-20)
(0.0982705 0.174817 0)
(1.30705 0.441275 -1.5966e-19)
(1.28875 0.477089 -1.70621e-19)
(1.27336 0.51254 -1.92701e-19)
(1.25418 0.54978 0)
(1.23292 0.588394 1.28739e-19)
(1.20967 0.628454 -1.41011e-19)
(1.1846 0.669998 -3.24473e-19)
(1.1579 0.713032 1.72669e-19)
(1.12974 0.757553 1.08133e-20)
(1.1003 0.80353 1.09128e-19)
(1.06967 0.850843 0)
(1.03783 0.899068 0)
(1.00436 0.946981 1.82589e-19)
(0.968045 0.991724 0)
(0.926456 1.02786 -6.19519e-20)
(0.875711 1.04681 -6.31622e-20)
(0.810708 1.0372 -1.39746e-19)
(0.725874 0.986287 1.46017e-19)
(0.616172 0.882173 -7.31381e-20)
(0.478052 0.716083 0)
(0.310759 0.483544 0)
(0.11649 0.184734 0)
(1.3281 0.454845 1.41775e-19)
(1.31529 0.49261 3.26727e-19)
(1.30558 0.529614 2.03981e-20)
(1.29181 0.568463 -2.01827e-19)
(1.27586 0.608701 1.14689e-19)
(1.25786 0.650446 -1.25633e-19)
(1.23801 0.693762 0)
(1.21656 0.73867 0)
(1.19369 0.785181 8.82178e-20)
(1.16959 0.833275 0)
(1.14439 0.882849 -1.88886e-19)
(1.11805 0.933504 1.09843e-19)
(1.0901 0.984021 1.89516e-19)
(1.05911 1.03147 -7.27008e-21)
(1.02218 1.07018 -3.82679e-19)
(0.97462 1.09107 1.22839e-19)
(0.910129 1.08202 6.01156e-20)
(0.82173 1.02948 1.19996e-19)
(0.703023 0.920867 9.89387e-20)
(0.549425 0.747138 -8.94482e-20)
(0.35955 0.504037 2.34697e-19)
(0.135298 0.192362 -1.98439e-19)
(1.3465 0.461646 -1.20035e-19)
(1.33926 0.500893 -1.51483e-19)
(1.33513 0.539328 1.70311e-19)
(1.32696 0.579749 0)
(1.31665 0.621591 9.5733e-20)
(1.30428 0.66497 0)
(1.2901 0.709957 0)
(1.27435 0.756583 0)
(1.25725 0.80487 0)
(1.23899 0.854809 -1.50945e-19)
(1.2197 0.90631 1.62793e-19)
(1.19936 0.958987 9.16805e-20)
(1.17741 1.01163 -1.73458e-19)
(1.15222 1.06127 -7.8442e-20)
(1.12039 1.10203 0)
(1.07633 1.12443 -1.79055e-19)
(1.01249 1.11577 1.26531e-19)
(0.920422 1.06183 3.3601e-20)
(0.792354 0.949543 4.79406e-20)