/*--------------------------------*- C++ -*----------------------------------*\
| =========                 |                                                 |
| \\      /  F ield         | OpenFOAM Extend Project: Open source CFD        |
|  \\    /   O peration     | Version:  1.6-ext                               |
|   \\  /    A nd           | Web:      www.extend-project.de                 |
|    \\/     M anipulation  |                                                 |
\*---------------------------------------------------------------------------*/
FoamFile
{
    version     2.0;
    format      ascii;
    class       volVectorField;
    location    "0.95";
    object      U_0;
}
// * * * * * * * * * * * * * * * * * * * * * * * * * * * * * * * * * * * * * //

dimensions      [0 1 -1 0 0 0 0];

internalField   nonuniform List<vector> 
20940
(
(1.84809 0.397976 5.75514e-21)
(1.88761 0.418003 -2.34109e-21)
(1.92503 0.437309 -7.73194e-22)
(1.9595 0.454851 1.05728e-20)
(1.99073 0.470835 7.47733e-21)
(2.01707 0.484137 7.66392e-22)
(2.03554 0.493649 0)
(2.04134 0.497422 -1.28243e-23)
(2.02806 0.493222 8.44946e-21)
(1.98864 0.478814 4.44695e-22)
(1.91685 0.452662 1.16303e-20)
(1.80912 0.414539 -2.53212e-20)
(1.66592 0.365885 0)
(1.49213 0.309693 1.61431e-23)
(1.29621 0.249973 9.16404e-21)
(1.08862 0.190983 -1.96361e-20)
(0.879845 0.136524 1.01234e-20)
(0.678979 0.089495 2.24865e-20)
(0.492816 0.0517035 -1.17998e-20)
(0.325648 0.0239202 -1.86234e-20)
(0.17949 0.00662216 1.28785e-20)
(0.054553 0.000490653 0)
(1.87494 0.374777 -4.6245e-21)
(1.91318 0.39365 7.89049e-21)
(1.949 0.411145 9.79004e-21)
(1.98129 0.426901 -1.64254e-20)
(2.00921 0.440578 0)
(2.03027 0.450972 9.73962e-21)
(2.04045 0.456668 -2.28397e-20)
(2.03401 0.455631 0)
(2.00419 0.445794 -1.69929e-20)
(1.94451 0.42548 -1.09806e-20)
(1.85049 0.394054 2.14646e-20)
(1.72123 0.352342 3.78335e-20)
(1.56016 0.302678 -1.40768e-20)
(1.37461 0.248521 0)
(1.17441 0.193783 0)
(0.970108 0.142129 -1.84835e-20)
(0.771267 0.0964731 -1.03085e-20)
(0.585443 0.0587612 -3.22435e-20)
(0.41778 0.0299675 -3.157e-22)
(0.271116 0.0102386 2.97462e-20)
(0.146414 -0.000366836 0)
(0.043283 -0.00140842 -1.01294e-20)
(1.89957 0.351546 -1.24101e-20)
(1.93621 0.369335 2.26454e-22)
(1.96988 0.385125 -3.80928e-20)
(1.99912 0.399105 2.63746e-20)
(2.02232 0.410369 -2.90959e-20)
(2.03597 0.417627 1.39977e-21)
(2.03501 0.419223 2.50246e-20)
(2.01308 0.413194 -2.53597e-20)
(1.96362 0.397856 -3.14348e-20)
(1.88151 0.372285 -3.78796e-20)
(1.76473 0.336825 -2.32886e-20)
(1.61537 0.293241 7.40688e-20)
(1.4396 0.244473 1.62083e-20)
(1.24657 0.194068 1.93835e-21)
(1.04665 0.145514 -6.6052e-20)
(0.849698 0.101696 1.84678e-20)
(0.663861 0.0646188 -2.0154e-20)
(0.494978 0.0353836 9.30429e-20)
(0.346584 0.014298 -2.1944e-20)
(0.220235 0.00105496 -4.5928e-20)
(0.116027 -0.00458074 3.56354e-20)
(0.0331146 -0.00236098 1.01337e-20)
(1.92305 0.328656 0)
(1.95761 0.34543 3.29549e-20)
(1.98833 0.359551 -2.14228e-20)
(2.01319 0.371657 -2.02062e-21)
(2.0296 0.380268 0)
(2.03293 0.384044 0)
(2.01729 0.381213 0)
(1.9762 0.370098 -3.00725e-20)
(1.90413 0.34962 1.30137e-19)
(1.79817 0.319754 -7.25019e-20)
(1.65927 0.281792 -2.1624e-20)
(1.49253 0.238205 -4.91774e-20)
(1.30632 0.192176 1.07207e-19)
(1.11074 0.146982 -2.92094e-20)
(0.915766 0.105438 0)
(0.729965 0.0695698 -6.99882e-20)
(0.559723 0.0405395 5.46139e-20)
(0.409137 0.018753 -7.9454e-20)
(0.280278 0.0040238 -2.23958e-20)
(0.173631 -0.00425374 8.66926e-20)
(0.0886279 -0.00649452 5.73727e-20)
(0.0241129 -0.00256613 -3.77105e-20)
(1.94508 0.306181 0)
(1.97691 0.321936 3.55768e-20)
(2.0035 0.334338 -1.62254e-21)
(2.02211 0.344365 1.05732e-19)
(2.02893 0.349997 -6.58282e-20)
(2.01837 0.349938 3.79566e-20)
(1.98416 0.342486 0)
(1.9205 0.326487 0)
(1.82381 0.30165 -3.4245e-20)
(1.6941 0.268878 1.09091e-19)
(1.53548 0.230233 1.26412e-19)
(1.35562 0.188553 -1.86688e-19)
(1.1642 0.146888 1.52562e-19)
(0.971255 0.107953 -1.13919e-19)
(0.785623 0.073767 3.07232e-20)
(0.614116 0.0455332 -6.68546e-20)
(0.461275 0.0237072 1.04983e-19)
(0.329582 0.00817573 -7.58367e-20)
(0.219879 -0.00157398 7.89209e-20)
(0.131828 -0.00631288 0)
(0.064403 -0.00654238 0)
(0.0162804 -0.00218765 0)
(1.96516 0.284189 -3.00748e-20)
(1.99327 0.298869 3.36444e-21)
(2.01401 0.309406 -1.33513e-19)
(2.02373 0.317041 0)
(2.01744 0.319311 0)
(1.98895 0.315133 -4.16529e-20)
(1.93238 0.303111 4.56847e-20)
(1.84363 0.282826 5.49237e-20)
(1.72191 0.254852 3.30862e-20)
(1.57051 0.220901 -7.05134e-20)
(1.39639 0.183492 -1.23464e-19)
(1.20887 0.145448 2.24542e-19)
(1.01792 0.109365 -1.48621e-19)
(0.832574 0.0772321 2.76731e-20)
(0.659979 0.0502756 3.00329e-20)
(0.50503 0.0289962 0)
(0.370527 0.013319 -3.45969e-20)
(0.257585 0.00278553 0)
(0.166097 -0.00329949 -3.71075e-20)
(0.0951519 -0.00576862 7.99764e-20)
(0.0434478 -0.00514484 -1.02643e-19)
(0.00961426 -0.00137626 6.93474e-20)
(1.98285 0.26249 3.3533e-20)
(2.00565 0.275906 -7.66417e-20)
(2.01802 0.284307 9.0711e-20)
(2.01537 0.289176 5.76596e-20)
(1.99179 0.287778 0)
(1.94127 0.279449 -8.33742e-20)
(1.85934 0.263324 -5.55226e-21)
(1.74457 0.239841 5.14923e-20)
(1.5995 0.210364 0)
(1.43049 0.177137 0)
(1.2465 0.14276 -7.73594e-20)
(1.05742 0.109702 -4.41361e-20)
(0.872429 0.0799055 9.6391e-20)
(0.698921 0.0546063 -1.02933e-19)
(0.54208 0.0343422 0)
(0.404964 0.0190813 0)
(0.28889 0.00839585 0)
(0.193912 0.0016332 6.91177e-20)
(0.11926 -0.00197436 -3.49625e-20)
(0.0636685 -0.00324926 0)
(0.0257159 -0.00269601 2.0242e-20)
(0.00406794 -0.000267853 0)
(1.99662 0.241016 6.14058e-20)
(2.01183 0.252909 0)
(2.01251 0.258851 0)
(1.99335 0.260596 -1.17484e-19)
(1.9482 0.255393 6.65341e-20)
(1.87228 0.243225 8.30939e-20)
(1.76362 0.223916 -9.11762e-20)
(1.62413 0.198728 -1.62754e-19)
(1.45963 0.169577 5.90206e-20)
(1.27878 0.138877 0)
(1.09137 0.108956 7.68705e-20)
(0.90671 0.0817011 -8.24055e-20)
(0.732409 0.0583459 0)
(0.573888 0.0394582 4.89983e-20)
(0.434408 0.0250491 5.29469e-20)
(0.315443 0.0147316 0)
(0.217154 0.0078799 0)
(0.138852 0.00376199 0)
(0.0793566 0.0016135 1.39431e-19)
(0.0372335 0.000665253 -1.08938e-19)
(0.0110496 0.0004516 -7.6161e-20)
(-0.000436327 0.00102003 1.27034e-19)
(2.00519 0.219205 0)
(2.0095 0.229181 0)
(1.99429 0.232323 0)
(1.95411 0.230788 0)
(1.88363 0.222056 6.97145e-20)
(1.78048 0.206896 -8.06914e-20)
(1.64597 0.185824 -1.86843e-19)
(1.48547 0.160723 1.0385e-19)
(1.30735 0.133718 9.6235e-22)
(1.12136 0.107033 6.69475e-20)
(0.936924 0.0824833 -7.24641e-20)
(0.761858 0.0612955 1.61317e-19)
(0.601796 0.0440632 0)
(0.460171 0.0308397 -1.45161e-19)
(0.338577 0.0212848 -8.83819e-22)
(0.237246 0.0148132 0)
(0.15553 0.0107191 -5.83314e-20)
(0.0922768 0.0082704 0)
(0.0461016 0.00675108 -1.33635e-19)
(0.0155354 0.0054666 1.03128e-19)
(-0.000791193 0.00399732 0)
(-0.00399766 0.00239023 0)
(2.00506 0.197101 7.18817e-20)
(1.99457 0.204839 0)
(1.95905 0.20504 5.22347e-20)
(1.894 0.200347 -1.19112e-19)
(1.79608 0.188742 -1.33402e-21)
(1.66627 0.171804 -2.84098e-22)
(1.50942 0.150599 9.14715e-20)
(1.33372 0.127302 -1.55384e-19)
(1.1489 0.103901 1.72289e-19)
(0.964529 0.082173 0)
(0.788647 0.0633154 0)
(0.627091 0.0479451 -7.88156e-20)
(0.483459 0.0361556 8.55028e-20)
(0.359444 0.0276549 -2.2963e-19)
(0.255329 0.0219059 9.81753e-20)
(0.170477 0.0182439 5.34754e-20)
(0.103737 0.015963 1.8433e-21)
(0.0537225 0.0143771 0)
(0.0189955 0.0128407 0)
(-0.00185873 0.0107404 0)
(-0.0101033 0.00770214 0)
(-0.00672862 0.00376807 2.90321e-20)
(1.99446 0.173677 -7.10998e-20)
(1.96433 0.178913 0)
(1.90433 0.176288 0)
(1.81176 0.169085 6.14428e-20)
(1.68646 0.155857 -6.78189e-20)
(1.53311 0.138787 -1.95364e-22)
(1.35956 0.119215 8.97577e-20)
(1.17564 0.0992509 1.01498e-19)
(0.991096 0.0804878 -1.13632e-19)
(0.814225 0.0641403 1.23516e-19)
(0.651098 0.0508299 0)
(0.505477 0.0406931 0)
(0.379145 0.0334879 -8.24478e-20)
(0.272421 0.0287298 1.33227e-19)
(0.184667 0.0258037 -4.86031e-20)
(0.114707 0.0240454 5.22064e-20)
(0.0611341 0.0227967 1.1203e-19)
(0.0224973 0.0214401 1.1955e-21)
(-0.00259555 0.0194083 -2.46089e-19)
(-0.015452 0.0161676 1.28535e-19)
(-0.0172125 0.0113863 0)
(-0.00874591 0.00509878 -2.91101e-20)
(1.96735 0.150038 0)
(1.91419 0.152862 0)
(1.82707 0.147943 0)
(1.70703 0.139144 0)
(1.55735 0.125602 0)
(1.38608 0.109855 1.56985e-19)
(1.20295 0.0932296 -8.86237e-20)
(1.01804 0.0774987 0)
(0.839967 0.0637404 -1.10604e-19)
(0.675094 0.0526191 2.42241e-19)
(0.527381 0.0442924 -1.32156e-19)
(0.398721 0.0385663 -1.46404e-19)
(0.289462 0.0350057 7.8962e-20)
(0.19895 0.0330456 -1.38936e-21)
(0.125976 0.032068 9.20065e-20)
(0.0690941 0.0314541 -9.98522e-20)
(0.0268218 0.0306133 1.59227e-19)
(-0.00224446 0.0290038 1.13084e-19)
(-0.0193895 0.0261339 9.76144e-22)
(-0.0257897 0.0215439 -1.24209e-19)
(-0.022462 0.0149415 3.2068e-20)
(-0.0101707 0.00635297 -1.11067e-19)
(1.92546 0.124244 -7.71082e-20)
(1.84474 0.125012 9.03e-20)
(1.72981 0.118809 -1.06416e-19)
(1.58435 0.109808 1.17719e-19)
(1.41528 0.0976683 1.38258e-19)
(1.23285 0.0847819 -1.53925e-19)
(1.04726 0.0722573 -8.75987e-20)
(0.867629 0.0613543 -5.39057e-22)
(0.700658 0.0526565 -1.07687e-19)
(0.550573 0.0463803 1.17092e-19)
(0.419392 0.04237 0)
(0.307506 0.0402452 0)
(0.214241 0.0394931 7.74293e-20)
(0.138339 0.0395451 -8.38993e-20)
(0.0783014 0.0398261 -4.43621e-20)
(0.0326013 0.0397827 0)
(-0.000194683 0.0388981 1.03009e-19)
(-0.021379 0.0367033 5.47698e-20)
(-0.0321002 0.032776 -2.2992e-19)
(-0.0333981 0.0267245 2.11518e-19)
(-0.0261753 0.0182951 -1.57507e-19)
(-0.0111125 0.00751088 0)
(1.85873 0.100607 7.60703e-20)
(1.75314 0.0999992 -8.90576e-20)
(1.61228 0.0933492 -1.06624e-19)
(1.44682 0.0851762 5.70724e-20)
(1.26541 0.0753512 -6.48579e-22)
(1.07936 0.0659254 -7.71596e-20)
(0.89802 0.0577107 8.55277e-20)
(0.728711 0.051418 8.56623e-22)
(0.575962 0.0472223 -1.05081e-19)
(0.442009 0.0450109 2.29712e-19)
(0.327311 0.0444392 -2.51458e-19)
(0.231194 0.0450411 1.36448e-19)
(0.152354 0.0462934 -2.23595e-19)
(0.0892293 0.0476621 2.40363e-19)
(0.0402382 0.0486287 -4.23072e-20)
(0.00390512 0.0487043 -4.61541e-20)
(-0.0210861 0.0474375 0)
(-0.0358849 0.0444207 -5.33451e-20)
(-0.0414974 0.0392907 -5.51808e-20)
(-0.0388334 0.0317152 2.96131e-20)
(-0.028695 0.0214764 0)
(-0.011694 0.00859712 -2.61296e-20)
(1.78381 0.0735356 0)
(1.64786 0.0723535 -1.83229e-19)
(1.48547 0.0675361 1.0179e-19)
(1.30546 0.0614245 0)
(1.11835 0.0554362 0)
(0.934787 0.0504382 -3.89068e-22)
(0.762398 0.0470029 8.30453e-20)
(0.60625 0.0452929 0)
(0.468823 0.0452017 0)
(0.350723 0.0464405 0)
(0.251301 0.0486118 -6.0867e-20)
(0.169215 0.0512653 -1.3363e-19)
(0.102835 0.0539303 2.16574e-19)
(0.0505011 0.0561375 -2.34784e-19)
(0.0106693 0.0574316 1.68599e-19)
(-0.0180225 0.0573806 4.55039e-20)
(-0.0367461 0.055583 0)
(-0.046503 0.0516764 0)
(-0.0481619 0.045343 -1.81479e-22)
(-0.0425137 0.0363003 1.13329e-19)
(-0.0302725 0.024367 0)
(-0.011998 0.00957477 -5.16575e-20)
(1.63312 0.0534891 0)
(1.46713 0.0497669 9.63334e-20)
(1.28546 0.0469777 1.1297e-19)
(1.0991 0.043916 1.27464e-19)
(0.917246 0.0421777 0)
(0.747447 0.0416558 -7.89357e-20)
(0.59419 0.0425481 8.76311e-20)
(0.45971 0.0446609 9.71186e-20)
(0.344374 0.0477432 -1.05785e-19)
(0.247374 0.0514623 -5.73072e-22)
(0.167241 0.0554487 1.26469e-19)
(0.102247 0.0593109 0)
(0.0506603 0.0626467 0)
(0.0108866 0.0650527 8.05552e-20)
(-0.0184636 0.0661332 0)
(-0.0385669 0.0655114 9.2136e-20)
(-0.0504087 0.0628397 -9.73269e-20)
(-0.0548206 0.0578122 0)
(-0.0525239 0.0501748 5.4006e-20)
(-0.0441837 0.0397235 -1.69318e-19)
(-0.0304168 0.0263524 2.91746e-20)
(-0.0117272 0.0101428 -2.56818e-20)
(1.37833 0.0311519 1.34749e-19)
(1.19504 0.0299733 2.06928e-19)
(1.01274 0.0316384 -1.13884e-19)
(0.838485 0.0329916 -3.26042e-19)
(0.678399 0.0359098 0)
(0.535765 0.0394388 0)
(0.411859 0.043745 0)
(0.306419 0.0485223 3.88299e-22)
(0.218253 0.0535642 -1.07613e-19)
(0.145694 0.0586043 -1.76848e-19)
(0.0869363 0.0633584 1.92853e-19)
(0.0402426 0.0675173 -6.93173e-20)
(0.00405417 0.0707541 0)
(-0.0229649 0.0727328 0)
(-0.0419278 0.0731205 -4.29949e-20)
(-0.0537512 0.0716009 -1.38068e-19)
(-0.0591926 0.067889 9.73752e-20)
(-0.0588918 0.0617454 0)
(-0.0534101 0.0529872 0)
(-0.0432723 0.0414901 -5.59377e-20)
(-0.028971 0.0272214 8.70112e-20)
(-0.0109198 0.0102938 7.51474e-20)
(1.09346 0.0185368 1.71659e-21)
(0.915662 0.0205018 -1.05972e-19)
(0.752042 0.0261237 0)
(0.60295 0.0307945 6.63577e-20)
(0.472184 0.0367144 7.43414e-20)
(0.35955 0.0426269 -8.29955e-20)
(0.264511 0.0487548 1.82038e-19)
(0.185513 0.0548133 -2.12952e-22)
(0.120813 0.0606628 2.18713e-19)
(0.0685869 0.0661007 5.98271e-20)
(0.0271435 0.0709077 -6.47124e-20)
(-0.00501168 0.0748334 -3.99209e-22)
(-0.0291453 0.0776043 0)
(-0.0463038 0.0789325 -1.62156e-19)
(-0.0573393 0.0785309 1.73202e-19)
(-0.0629442 0.0761285 4.63186e-20)
(-0.0636898 0.0714873 0)
(-0.060061 0.0644175 0)
(-0.0524884 0.0547886 0)
(-0.0413784 0.0425339 0)
(-0.0271172 0.0276708 1.15455e-19)
(-0.0100395 0.0103262 -7.3402e-20)
(0.814479 0.0126369 -1.44565e-19)
(0.658636 0.018427 0)
(0.523691 0.0266323 0)
(0.404619 0.0335801 0)
(0.303902 0.0410376 -7.64212e-20)
(0.21931 0.0480183 -5.04977e-22)
(0.149616 0.0547504 -2.7885e-22)
(0.0928706 0.0610548 0)
(0.0473466 0.0668658 -5.5771e-20)
(0.0114087 0.0720479 0)
(-0.0163543 0.0764365 1.3103e-19)
(-0.0371372 0.0798256 -2.12769e-19)
(-0.0519225 0.0819781 1.51995e-19)
(-0.0615063 0.0826375 4.12329e-20)
(-0.0665288 0.081545 -4.36455e-20)
(-0.0675079 0.0784573 9.23294e-20)
(-0.0648701 0.0731644 -9.71982e-20)
(-0.0589793 0.0655052 0)
(-0.0501597 0.0553785 8.02356e-20)
(-0.0387172 0.042749 1.37819e-22)
(-0.0249454 0.0276572 -2.28498e-19)
(-0.00910616 0.0102293 9.65637e-20)
(0.5642 0.0131304 -9.97238e-20)
(0.438605 0.0218251 1.12508e-19)
(0.334447 0.0308513 0)
(0.244795 0.0387037 0)
(0.171126 0.0463397 0)
(0.110573 0.0532792 0)
(0.0618239 0.059712 9.41023e-20)
(0.0230357 0.065569 -1.02665e-19)
(-0.00725837 0.0708313 -2.26241e-22)
(-0.0303912 0.0754083 0)
(-0.0474719 0.0791677 -1.98563e-19)
(-0.0594201 0.0819292 1.42306e-19)
(-0.0669817 0.083477 0)
(-0.070756 0.0835736 -9.40019e-23)
(-0.0712232 0.0819775 1.74092e-19)
(-0.0687709 0.0784623 -9.20843e-20)
(-0.0637187 0.0728339 4.88601e-20)
(-0.0563388 0.0649456 -1.01678e-19)
(-0.0468722 0.0547086 1.06371e-19)
(-0.0355426 0.0420984 -2.47003e-19)
(-0.0225669 0.0271574 1.13132e-19)
(-0.00814319 0.00999255 2.36196e-20)
(0.354097 0.017127 5.0109e-20)
(0.259716 0.0270276 -5.75319e-20)
(0.183723 0.0357234 0)
(0.119849 0.0433762 0)
(0.0687292 0.0503545 -7.82475e-20)
(0.027734 0.0565841 8.6621e-20)
(-0.00431015 0.0622178 -9.47669e-20)
(-0.0289287 0.0672675 0)
(-0.0472876 0.0717397 -1.70177e-19)
(-0.0604235 0.0755718 6.15037e-20)
(-0.0691861 0.0786507 -6.63126e-20)
(-0.0742737 0.0808125 0)
(-0.0762502 0.0818557 3.82746e-20)
(-0.0755679 0.0815559 -1.2321e-19)
(-0.0725894 0.0796841 8.70425e-20)
(-0.0676079 0.0760243 9.21444e-20)
(-0.0608647 0.0703907 -1.45035e-19)
(-0.0525644 0.0626412 7.60589e-20)
(-0.0428848 0.0526872 -5.26967e-20)
(-0.0319852 0.0405005 1.09289e-19)
(-0.0200232 0.0261086 2.78726e-20)
(-0.00714951 0.0095849 8.17039e-20)
(0.185511 0.0220269 0)
(0.118959 0.0314722 -5.77348e-20)
(0.0667057 0.0391707 6.46554e-20)
(0.0240579 0.0459111 -7.13369e-20)
(-0.00896715 0.0518031 -4.84339e-23)
(-0.0344445 0.0569913 8.70392e-20)
(-0.0533586 0.0616102 4.81426e-20)
(-0.0668922 0.0657186 -1.56749e-19)
(-0.0759446 0.069335 0)
(-0.0813032 0.0724135 6.20225e-20)
(-0.0836106 0.0748531 1.34629e-22)
(-0.0833935 0.0765027 -1.15972e-22)
(-0.0810775 0.0771734 3.83163e-20)
(-0.0770049 0.0766536 8.21411e-20)
(-0.071452 0.0747259 -1.74193e-19)
(-0.0646432 0.0711839 1.83885e-19)
(-0.0567637 0.0658475 -9.65282e-20)
(-0.0479699 0.0585748 -5.04148e-20)
(-0.0383944 0.0492714 7.8429e-20)
(-0.02815 0.0378971 2.71863e-20)
(-0.0173536 0.0244549 -2.79209e-20)
(-0.00612803 0.0089761 -1.16e-20)
(0.0547392 0.0257894 -5.19086e-20)
(0.01116 0.0336906 5.8464e-20)
(-0.0219044 0.040015 3.8803e-22)
(-0.0476542 0.0454978 -7.19093e-20)
(-0.0664394 0.0501625 0)
(-0.0797833 0.0542224 8.79858e-20)
(-0.0884887 0.0578018 -4.79e-20)
(-0.0934398 0.0609789 5.2786e-20)
(-0.095317 0.0637779 -5.71671e-20)
(-0.0947067 0.0661634 6.21894e-20)
(-0.0920879 0.0680453 -1.00698e-19)
(-0.0878529 0.0692859 7.20465e-20)
(-0.0823202 0.0697111 0)
(-0.0757485 0.0691248 0)
(-0.0683489 0.0673244 0)
(-0.0602956 0.0641155 0)
(-0.0517341 0.059326 -2.39854e-20)
(-0.0427883 0.0528151 7.51818e-20)
(-0.0335614 0.0444823 -1.30107e-19)
(-0.0241359 0.0342736 1.07353e-19)
(-0.0146073 0.0221651 -1.10184e-19)
(-0.00508998 0.00814451 1.13303e-20)
(-0.0429665 0.0272517 5.20902e-20)
(-0.0682984 0.0331962 -1.21867e-22)
(-0.0862287 0.0379909 6.55121e-20)
(-0.0988372 0.042117 -7.27265e-20)
(-0.106626 0.0455716 7.99812e-20)
(-0.110675 0.0485509 4.44064e-20)
(-0.11162 0.0511658 3.08322e-22)
(-0.110101 0.0534948 -2.64299e-19)
(-0.106621 0.0555634 1.72645e-19)
(-0.101603 0.0573437 6.24028e-20)
(-0.0953937 0.0587573 -6.56277e-23)
(-0.0882775 0.0596821 8.24603e-23)
(-0.0804879 0.0599627 -7.72086e-20)
(-0.0722176 0.0594227 -8.22078e-20)
(-0.0636275 0.0578791 6.52936e-20)
(-0.0548545 0.0551552 0)
(-0.0460163 0.0510914 2.40826e-20)
(-0.0372162 0.045554 -9.99841e-20)
(-0.0285407 0.0384417 2.33228e-19)
(-0.0200568 0.0296913 -1.36325e-22)
(-0.0118548 0.0192561 -1.09379e-19)
(-0.00405857 0.00708685 -9.00645e-20)
(-0.111213 0.0259917 -5.27933e-20)
(-0.122465 0.0300482 1.18239e-19)
(-0.128797 0.0333682 -1.31245e-19)
(-0.131522 0.0362109 7.26074e-20)
(-0.131137 0.0385696 -1.20843e-19)
(-0.128384 0.0405919 2.21657e-19)
(-0.123739 0.042369 -1.45694e-19)
(-0.117648 0.0439686 1.062e-19)
(-0.110462 0.045414 5.77964e-20)
(-0.102471 0.0466834 -3.12575e-20)
(-0.0939137 0.0477114 3.36877e-20)
(-0.0849854 0.0483942 -7.2349e-20)
(-0.0758506 0.0485988 0)
(-0.0666493 0.0481734 2.05265e-20)
(-0.0575031 0.0469596 -6.5192e-20)
(-0.0485202 0.0448036 1.93097e-23)
(-0.0397986 0.0415659 9.58331e-20)
(-0.0314286 0.0371278 9.96743e-20)
(-0.0234893 0.0313966 -1.03264e-19)
(-0.0160427 0.0243098 1.32485e-20)
(-0.00918636 0.0158098 0)
(-0.00306729 0.00582418 -1.00281e-19)
(-0.151936 0.0222462 5.31131e-20)
(-0.152872 0.0247303 -5.88337e-20)
(-0.150843 0.0267889 0)
(-0.146651 0.0285386 -7.32803e-20)
(-0.140693 0.0299794 2.01826e-19)
(-0.133453 0.0312106 -4.43647e-20)
(-0.125255 0.0323011 -4.88427e-20)
(-0.116389 0.0333035 7.97652e-20)
(-0.107074 0.0342369 0)
(-0.0974939 0.0350853 -3.14089e-20)
(-0.0877952 0.0357973 -1.01428e-19)
(-0.0781028 0.0362903 7.25036e-20)
(-0.0685254 0.0364568 0)
(-0.0591607 0.0361731 -4.11801e-20)
(-0.0500994 0.0353093 2.17406e-20)
(-0.0414273 0.0337396 9.15024e-20)
(-0.0332273 0.0313499 -9.57483e-20)
(-0.0255804 0.0280446 0)
(-0.0185616 0.0237501 -1.02868e-19)
(-0.0122334 0.0184184 1.98406e-19)
(-0.00670661 0.0119976 -1.08288e-19)
(-0.00215771 0.00441336 0)
(-0.165749 0.0166512 2.62671e-20)
(-0.160004 0.0179663 0)
(-0.152769 0.0190635 0)
(-0.144521 0.0199791 1.49368e-22)
(-0.135512 0.0207226 -8.09691e-20)
(-0.126031 0.0213556 0)
(-0.116267 0.0219262 -2.44465e-20)
(-0.106379 0.0224715 5.93525e-23)
(-0.0964859 0.023006 -5.80196e-20)
(-0.0866804 0.0235194 0)
(-0.0770394 0.0239758 3.3931e-20)
(-0.067631 0.0243155 -5.45858e-20)
(-0.0585203 0.024459 7.76094e-20)
(-0.0497726 0.0243134 2.06358e-20)
(-0.0414549 0.0237797 -1.09114e-20)
(-0.0336359 0.0227614 0)
(-0.0263857 0.0211729 0)
(-0.0197763 0.0189452 1.24408e-20)
(-0.0138773 0.0160322 5.13827e-20)
(-0.00874975 0.0124121 6.50496e-21)
(-0.00451319 0.00806084 -5.40311e-20)
(-0.00137002 0.00293371 0)
(-0.152681 0.0103187 5.31569e-20)
(-0.143921 0.0108736 0)
(-0.134668 0.0113338 3.32358e-20)
(-0.125206 0.0116966 -3.67122e-20)
(-0.115649 0.0119781 4.05242e-20)
(-0.106141 0.0122136 4.48676e-20)
(-0.0967653 0.0124331 -1.21572e-20)
(-0.0875863 0.0126599 8.05297e-20)
(-0.0786437 0.0129047 -5.82248e-20)
(-0.0699661 0.0131629 -1.57857e-20)
(-0.0615776 0.0134144 0)
(-0.0535047 0.0136234 -9.11883e-21)
(-0.0457799 0.0137397 -8.76458e-20)
(-0.0384443 0.0137027 9.3019e-20)
(-0.031547 0.0134453 3.27559e-20)
(-0.0251439 0.0129003 -1.82012e-23)
(-0.0192947 0.012008 -4.79649e-20)
(-0.014062 0.0107233 3.73352e-20)
(-0.00950535 0.00902485 -4.50662e-20)
(-0.00567708 0.00692006 5.62221e-24)
(-0.00268814 0.00442504 -5.39138e-20)
(-0.000743107 0.00155295 4.67911e-20)
(-0.112697 0.00431581 -1.33414e-20)
(-0.104631 0.00445963 7.44703e-21)
(-0.0965746 0.00456094 0)
(-0.0887252 0.00461661 0)
(-0.0810929 0.00464366 0)
(-0.0737328 0.00465994 0)
(-0.0666593 0.0046798 -1.23147e-20)
(-0.0598776 0.00471424 0)
(-0.0533813 0.00476903 0)
(-0.0471607 0.00484405 1.58317e-20)
(-0.0412083 0.00493251 0)
(-0.0355231 0.00502061 -4.57691e-20)
(-0.0301148 0.00508729 5.36882e-20)
(-0.0250051 0.00510469 -1.03621e-20)
(-0.0202279 0.00503929 4.37886e-20)
(-0.0158271 0.00485439 -4.60023e-20)
(-0.0118534 0.00451423 0)
(-0.0083605 0.0039906 0)
(-0.00539783 0.00327356 -6.44083e-21)
(-0.00300205 0.00238399 -3.29782e-21)
(-0.00124681 0.00137452 0)
(-0.000289187 0.000352171 -2.74793e-21)
(-0.0461504 0.00048094 -3.93335e-20)
(-0.0424098 0.000502297 -7.26552e-21)
(-0.0387218 0.000510371 0)
(-0.0352356 0.00050541 -2.80009e-22)
(-0.0319271 0.00049528 1.98399e-20)
(-0.0288112 0.000484717 -2.18502e-20)
(-0.0258781 0.000476969 2.40399e-20)
(-0.0231157 0.000474565 -5.18867e-20)
(-0.0205075 0.000479333 2.81139e-20)
(-0.018036 0.000492417 -1.18895e-22)
(-0.0156859 0.000514093 0)
(-0.0134455 0.000543444 0)
(-0.0113099 0.000577919 -4.66282e-21)
(-0.0092817 0.000612784 3.87124e-23)
(-0.00737284 0.000640566 0)
(-0.00560492 0.000650709 0)
(-0.00400879 0.000629841 -4.58284e-20)
(-0.00262322 0.000563472 4.76419e-20)
(-0.0014902 0.000440879 0)
(-0.000645656 0.000263886 -5.36747e-20)
(-0.000126619 5.85348e-05 1.03366e-19)
(1.82335e-05 -8.83897e-05 -4.66497e-24)
(1.13612 0.0228345 5.30613e-22)
(1.09004 0.0243807 4.59055e-22)
(1.04194 0.025975 -4.26894e-20)
(0.991684 0.027619 0)
(0.939395 0.0293183 0)
(0.885154 0.0310793 0)
(0.829055 0.032905 -1.78535e-20)
(0.771204 0.0347963 -9.79181e-24)
(0.711719 0.0367526 0)
(0.65073 0.0387715 -1.20624e-23)
(0.588381 0.0408456 -5.45217e-20)
(0.524838 0.0429531 -5.75469e-22)
(0.460319 0.0450359 1.58813e-20)
(0.395156 0.0469652 -3.48949e-20)
(0.329901 0.0485002 3.68094e-20)
(0.265456 0.0492647 3.95018e-20)
(0.203187 0.0487533 -4.12538e-20)
(0.144977 0.0463855 -1.07864e-20)
(0.0930888 0.0415885 1.12132e-20)
(0.0499228 0.0338972 -1.18192e-20)
(0.0187176 0.0230094 2.39511e-20)
(0.00351055 0.00883208 0)
(1.14047 0.0788265 -9.53415e-20)
(1.09484 0.0844882 1.87228e-20)
(1.04734 0.0904249 -2.09889e-20)
(0.997663 0.0966066 0)
(0.945952 0.103027 0)
(0.892292 0.109688 0)
(0.836774 0.116589 1.78401e-20)
(0.779505 0.123722 3.94208e-20)
(0.720605 0.13108 0)
(0.660202 0.138648 0)
(0.598439 0.146393 2.70457e-20)
(0.535478 0.15423 0)
(0.471521 0.161936 4.75378e-20)
(0.40687 0.169027 6.90692e-20)
(0.34202 0.174618 -7.28608e-20)
(0.277782 0.177344 0)
(0.215403 0.175397 -8.22537e-20)
(0.156622 0.166721 9.62423e-20)
(0.103559 0.149313 7.8246e-20)
(0.0584892 0.121556 -1.03579e-19)
(0.0245645 0.0824294 2.34619e-20)
(0.00578136 0.0316508 -7.8052e-20)
(1.14908 0.134831 -6.19091e-20)
(1.10441 0.144624 0)
(1.05814 0.154827 4.24027e-20)
(1.00964 0.165428 0)
(0.959101 0.176419 -1.11272e-19)
(0.906623 0.18781 1.21766e-19)
(0.852295 0.199599 -7.07221e-20)
(0.796227 0.211779 3.75209e-20)
(0.738538 0.224338 8.54842e-20)
(0.679356 0.237254 0)
(0.618819 0.250473 0)
(0.557077 0.263847 0)
(0.494304 0.276998 9.40733e-20)
(0.430735 0.289091 -1.99018e-19)
(0.366744 0.298612 -1.79128e-19)
(0.302957 0.303219 3.40902e-19)
(0.240366 0.299823 -1.59283e-19)
(0.180422 0.284915 1.67767e-19)
(0.124953 0.255087 -1.73436e-19)
(0.0759864 0.2076 0)
(0.0365011 0.140732 -1.16586e-19)
(0.0104155 0.054028 1.70693e-19)
(1.16104 0.188102 0)
(1.11791 0.201908 -7.26514e-20)
(1.07359 0.216235 1.60506e-19)
(1.02694 0.231138 1.86764e-19)
(0.978237 0.246591 -1.28693e-22)
(0.927598 0.262608 0)
(0.87511 0.279186 0)
(0.820887 0.296314 0)
(0.76505 0.313976 -8.52353e-20)
(0.707729 0.33214 9.09422e-20)
(0.649056 0.350732 -9.97806e-20)
(0.589168 0.369545 -5.43671e-20)
(0.528192 0.388041 0)
(0.466268 0.405051 -6.43137e-20)
(0.403588 0.418438 1.72409e-19)
(0.340497 0.424911 -1.086e-19)
(0.277611 0.420132 -3.75179e-20)
(0.215946 0.399186 0)
(0.156895 0.357311 -4.07172e-20)
(0.102116 0.290704 0)
(0.0543282 0.196998 -1.79113e-19)
(0.0173339 0.0755991 -1.93896e-20)
(1.17631 0.238778 -4.63035e-21)
(1.13524 0.256466 4.08329e-19)
(1.09351 0.27472 -2.34264e-19)
(1.04931 0.293719 -9.13016e-20)
(1.00305 0.313419 -1.03778e-19)
(0.954848 0.333836 1.17002e-19)
(0.904801 0.35497 -1.18751e-21)
(0.853027 0.37681 1.41248e-19)
(0.79965 0.399336 0)
(0.7448 0.42251 -9.06115e-20)
(0.688606 0.446239 4.65076e-21)
(0.631182 0.470259 5.41931e-20)
(0.572599 0.493885 0)
(0.512867 0.51562 0)
(0.451941 0.53273 -6.3672e-20)
(0.38979 0.541004 7.12198e-20)
(0.326536 0.534905 3.74549e-20)
(0.26262 0.508167 -2.26538e-19)
(0.198863 0.454748 3.99898e-20)
(0.136443 0.369852 2.02927e-19)
(0.0777438 0.250532 0)
(0.0264152 0.096095 3.36365e-20)
(1.19447 0.285569 -1.14932e-19)
(1.15598 0.306966 -1.32748e-19)
(1.11746 0.328909 0)
(1.07629 0.351773 0)
(1.03305 0.37548 0)
(0.987876 0.40005 -1.06312e-19)
(0.940847 0.425487 -1.25762e-19)
(0.892099 0.45178 -7.43596e-21)
(0.841759 0.478907 0)
(0.789959 0.506825 0)
(0.736821 0.535426 1.83238e-19)
(0.682438 0.564396 -2.0108e-19)
(0.62681 0.592911 3.18488e-19)
(0.56979 0.619166 0)
(0.511038 0.63986 2.50925e-19)
(0.450065 0.649904 -3.2178e-19)
(0.386379 0.642613 0)
(0.319717 0.610443 7.36106e-20)
(0.250201 0.546154 0)
(0.178425 0.444039 -3.45662e-19)
(0.106371 0.300652 3.13581e-19)
(0.0375078 0.115253 9.63861e-20)
(1.21506 0.327898 0)
(1.17967 0.352776 9.36488e-22)
(1.14491 0.378111 1.38541e-19)
(1.1073 0.404546 -1.63192e-19)
(1.06761 0.43196 3.55478e-19)
(1.02597 0.460379 1.05563e-19)
(0.982484 0.489812 1.11227e-19)
(0.937291 0.520248 -2.56025e-19)
(0.890523 0.551663 1.49895e-19)
(0.842315 0.584011 -3.09797e-19)
(0.792783 0.617171 -2.60481e-19)
(0.741991 0.650785 1.84324e-19)
(0.689862 0.683905 -1.03636e-19)
(0.636061 0.714442 -1.02396e-19)
(0.579906 0.738564 -4.94916e-20)
(0.520365 0.750357 6.22867e-20)
(0.456221 0.742052 -5.96228e-20)
(0.386382 0.704903 -2.60747e-19)
(0.310152 0.630555 2.05948e-19)
(0.227449 0.512488 -2.79946e-19)
(0.139793 0.346839 2.86948e-19)
(0.0504467 0.132879 0)
(1.23743 0.365068 1.91696e-19)
(1.20563 0.393181 1.17106e-19)
(1.17514 0.421594 -2.56294e-19)
(1.14158 0.451278 1.44303e-19)
(1.10593 0.482056 -3.1707e-21)
(1.06833 0.513962 -1.87863e-19)
(1.02887 0.547014 -1.10295e-19)
(0.987707 0.581205 8.96439e-21)
(0.94499 0.616516 1.02679e-20)
(0.900852 0.652903 -2.89728e-19)
(0.855408 0.690236 -3.73801e-21)
(0.808694 0.728126 3.37959e-19)
(0.760548 0.765519 0)
(0.710434 0.800074 9.36065e-21)
(0.657278 0.827473 1.07949e-19)
(0.599433 0.841031 -1.02218e-19)
(0.534855 0.831965 -1.65768e-19)
(0.461498 0.790403 1.79514e-19)
(0.377738 0.706967 -1.78219e-19)
(0.28273 0.574416 -5.93947e-20)
(0.177482 0.388566 5.16382e-19)
(0.0650235 0.148769 1.18372e-21)
(1.26081 0.396513 3.56264e-19)
(1.23307 0.427532 -2.08812e-19)
(1.20727 0.458653 8.83155e-21)
(1.17816 0.491231 -3.07917e-21)
(1.14694 0.52502 -3.02863e-19)
(1.11377 0.560064 0)
(1.07876 0.596385 -1.86736e-19)
(1.04207 0.633977 1.12773e-19)
(1.00386 0.672823 1.24517e-19)
(0.964264 0.712876 0)
(0.92339 0.754004 0)
(0.88125 0.795793 -1.45045e-19)
(0.837589 0.837107 -2.4116e-19)
(0.791649 0.875391 2.65852e-19)
(0.74193 0.905891 -1.82516e-19)
(0.686098 0.921223 2.93845e-19)
(0.621178 0.911661 -9.26451e-20)
(0.544062 0.866296 3.07311e-19)
(0.452087 0.774813 -2.12424e-19)
(0.343574 0.629355 8.05782e-21)
(0.218974 0.425519 5.19507e-20)
(0.0810604 0.162813 0)
(1.28432 0.422076 -1.28575e-20)
(1.26111 0.455717 -1.98372e-19)
(1.24043 0.489197 3.34479e-19)
(1.21617 0.52427 0)
(1.1898 0.56062 1.47627e-19)
(1.16143 0.598315 0)
(1.13121 0.637395 1.74887e-19)
(1.09932 0.677867 -2.73517e-21)
(1.06593 0.719723 1.11288e-19)
(1.03119 0.762926 -1.10517e-19)
(0.995216 0.807349 0)
(0.957995 0.852568 -1.27168e-19)
(0.919189 0.897393 2.98345e-19)
(0.877819 0.939095 -3.02968e-19)
(0.831932 0.972548 3.2078e-19)
(0.778449 0.989727 -1.64067e-19)
(0.713379 0.980035 2.64206e-19)
(0.632429 0.931594 -4.74765e-20)
(0.531791 0.833248 4.08555e-20)
(0.408875 0.676625 5.02551e-20)
(0.263536 0.45722 -5.1878e-20)
(0.0982704 0.174817 0)
(1.30705 0.441273 -1.59749e-19)
(1.28875 0.477087 -1.70721e-19)
(1.27336 0.512538 -1.92812e-19)
(1.25418 0.549778 0)
(1.23292 0.588392 1.28806e-19)
(1.20967 0.628452 -1.41084e-19)
(1.1846 0.669996 -3.24632e-19)
(1.1579 0.71303 1.72756e-19)
(1.12974 0.757552 1.08133e-20)
(1.1003 0.803529 1.09179e-19)
(1.06967 0.850841 0)
(1.03783 0.899066 0)
(1.00436 0.946979 1.82683e-19)
(0.968045 0.991723 0)
(0.926456 1.02786 -6.19874e-20)
(0.87571 1.04681 -6.31997e-20)
(0.810707 1.0372 -1.39824e-19)
(0.725874 0.986286 1.46099e-19)
(0.616171 0.882172 -7.31809e-20)
(0.478052 0.716082 0)
(0.310759 0.483543 0)
(0.11649 0.184734 0)
(1.3281 0.454843 1.41863e-19)
(1.31529 0.492608 3.26924e-19)
(1.30558 0.529612 2.03979e-20)
(1.29181 0.568461 -2.01946e-19)
(1.27586 0.6087 1.14755e-19)
(1.25786 0.650445 -1.25705e-19)
(1.23801 0.693761 0)
(1.21656 0.738669 0)
(1.19369 0.785179 8.82643e-20)
(1.16959 0.833273 0)
(1.14439 0.882848 -1.88994e-19)
(1.11805 0.933503 1.09901e-19)
(1.0901 0.98402 1.89641e-19)
(1.05911 1.03147 -7.27006e-21)
(1.02218 1.07018 -3.82926e-19)
(0.97462 1.09107 1.22913e-19)
(0.910129 1.08202 6.01547e-20)
(0.82173 1.02948 1.20078e-19)
(0.703023 0.920866 9.90026e-20)
(0.549424 0.747138 -8.95144e-20)
(0.35955 0.504037 2.34879e-19)
(0.135298 0.192362 -1.98592e-19)
(1.3465 0.461644 -1.20122e-19)
(1.33926 0.500891 -1.5158e-19)
(1.33513 0.539327 1.70418e-19)
(1.32696 0.579748 0)
(1.31664 0.621589 9.57978e-20)
(1.30428 0.664968 0)
(1.2901 0.709955 0)
(1.27435 0.756581 0)
(1.25725 0.804868 0)
(1.23899 0.854808 -1.51044e-19)
(1.2197 0.906308 1.629e-19)
(1.19936 0.958986 9.1738e-20)
(1.17741 1.01163 -1.73581e-19)
(1.15222 1.06127 -7.85076e-20)
(1.12039 1.10202 0)
(1.07633 1.12443 -1.79202e-19)
(1.01249 1.11577 1.26647e-19)