/*--------------------------------*- C++ -*----------------------------------*\
| =========                 |                                                 |
| \\      /  F ield         | OpenFOAM Extend Project: Open source CFD        |
|  \\    /   O peration     | Version:  1.6-ext                               |
|   \\  /    A nd           | Web:      www.extend-project.de                 |
|    \\/     M anipulation  |                                                 |
\*---------------------------------------------------------------------------*/
FoamFile
{
    version     2.0;
    format      ascii;
    class       surfaceScalarField;
    location    "2.9";
    object      phi;
}
// * * * * * * * * * * * * * * * * * * * * * * * * * * * * * * * * * * * * * //

dimensions      [0 3 -1 0 0 0 0];

internalField   nonuniform List<scalar> 
123
(
5.2746e-05
0.000199614
8.29322e-05
0.000483357
7.61241e-05
0.000590931
5.15013e-05
0.000588082
2.37897e-05
0.000530958
4.69246e-06
0.000414278
0.00019278
0.000212855
-2.58363e-06
0.00025088
-3.62059e-05
0.000290764
-7.25575e-05
0.000323306
-0.00011253
0.000345523
-0.000150348
0.000357289
-0.000178801
0.000360002
-0.000191345
0.000356392
-0.000189867
-0.000164282
0.000464935
1.58387e-05
0.000463258
-3.45287e-05
0.000468675
-7.79752e-05
0.000472796
-0.00011665
0.000470674
-0.000148227
0.000460467
-0.000168594
0.000443145
-0.000174023
0.000420708
-0.00016743
-0.00014138
0.000586625
2.01445e-05
0.000580409
-2.83125e-05
0.000571963
-6.95297e-05
0.000558525
-0.000103212
0.000538149
-0.000127851
0.000510431
-0.000140876
0.000477385
-0.000140977
0.000441124
-0.00013117
-0.000108631
0.000597945
1.02814e-05
0.000596355
-2.67224e-05
0.000584714
-5.78884e-05
0.000563347
-8.18454e-05
0.00053269
-9.71934e-05
0.000494453
-0.000102638
0.000452252
-9.87769e-05
0.000409262
-8.81792e-05
-7.22144e-05
0.000542671
-1.43167e-06
0.000539759
-2.38108e-05
0.00052355
-4.16791e-05
0.00049545
-5.37454e-05
0.000457767
-5.95106e-05
0.000414161
-5.90326e-05
0.000369297
-5.39123e-05
0.000327134
-4.60167e-05
-3.83636e-05
0.000418207
-5.36103e-06
0.000407748
-1.33516e-05
0.000384758
-1.8689e-05
0.000352199
-2.11864e-05
0.000313861
-2.11722e-05
0.000274102
-1.92738e-05
0.000236764
-1.65749e-05
0.000204599
-1.38511e-05
-1.29238e-05
0.000187419
0.000174068
0.000155379
0.000134192
0.00011302
9.37463e-05
7.71714e-05
6.33203e-05
)
;

boundaryField
{
    inlet
    {
        type            calculated;
        value           nonuniform 0();
    }
    outlet
    {
        type            calculated;
        value           nonuniform List<scalar> 7(0.000348443 0.000397806 0.000408375 0.000372845 0.000293283 0.000179159 5.03965e-05);
    }
    fixedWalls
    {
        type            calculated;
        value           uniform 0;
    }
    frontAndBack
    {
        type            empty;
    }
    procBoundary1to2
    {
        type            processor;
        value           nonuniform List<scalar> 7(-0.00025236 -0.000513543 -0.000584123 -0.000563459 -0.000503246 -0.000395181 -0.000188088);
    }
    procBoundary1to0
    {
        type            processor;
        value           nonuniform List<scalar> 9(-1.06577e-05 -1.81908e-06 3.26744e-05 7.99877e-05 0.000128131 0.000167034 0.000188633 0.000193477 0.00017223);
    }
}


// ************************************************************************* //
