/*--------------------------------*- C++ -*----------------------------------*\
| =========                 |                                                 |
| \\      /  F ield         | OpenFOAM Extend Project: Open source CFD        |
|  \\    /   O peration     | Version:  1.6-ext                               |
|   \\  /    A nd           | Web:      www.extend-project.de                 |
|    \\/     M anipulation  |                                                 |
\*---------------------------------------------------------------------------*/
FoamFile
{
    version     2.0;
    format      ascii;
    class       surfaceScalarField;
    location    "2";
    object      phi;
}
// * * * * * * * * * * * * * * * * * * * * * * * * * * * * * * * * * * * * * //

dimensions      [0 3 -1 0 0 0 0];

internalField   nonuniform List<scalar> 
127
(
0.000160923
3.90765e-05
0.00011747
4.34539e-05
8.2378e-05
3.50916e-05
5.59757e-05
2.64023e-05
3.6595e-05
1.93807e-05
2.18064e-05
1.47886e-05
9.96907e-06
1.18374e-05
1.67395e-06
8.29512e-06
1.67395e-06
0.000205123
3.39534e-05
0.000191
5.75769e-05
0.000163815
6.22765e-05
0.000131435
5.87829e-05
9.82784e-05
5.2537e-05
6.63774e-05
4.66895e-05
3.66976e-05
4.15171e-05
1.20099e-05
3.29829e-05
1.36838e-05
0.000208814
2.51395e-05
0.000208592
5.77987e-05
0.00019504
7.58284e-05
0.000169891
8.39318e-05
0.000136662
8.57657e-05
9.864e-05
8.4712e-05
5.85935e-05
8.15637e-05
2.14394e-05
7.0137e-05
3.51232e-05
0.000205182
1.99579e-05
0.000208427
5.45535e-05
0.000202595
8.16606e-05
0.000185283
0.000101244
0.000156914
0.000114135
0.000119249
0.000122376
7.47508e-05
0.000126062
2.92112e-05
0.000115677
6.43344e-05
0.000202505
1.74528e-05
0.000205422
5.16362e-05
0.000203181
8.39019e-05
0.000191798
0.000112627
0.000169308
0.000136625
0.000135232
0.000156452
9.00197e-05
0.000171275
3.8081e-05
0.000167615
0.000102415
0.00020139
1.60624e-05
0.000204041
4.89852e-05
0.00020427
8.36738e-05
0.000198073
0.000118823
0.000182195
0.000152502
0.000154089
0.000184558
0.000111179
0.000214185
5.32132e-05
0.000225581
0.000155629
0.00020132
1.47423e-05
0.000204827
4.54782e-05
0.000208159
8.0342e-05
0.000207926
0.000119056
0.000200567
0.000159862
0.000182488
0.000202637
0.000147141
0.000249532
8.45078e-05
0.000288215
0.000240136
0.000201847
0.000207272
0.000214809
0.00022194
0.000225468
0.000221432
0.00019913
0.000135787
)
;

boundaryField
{
    inlet
    {
        type            calculated;
        value           nonuniform List<scalar> 8(-0.0002 -0.0002 -0.0002 -0.0002 -0.0002 -0.0002 -0.0002 -0.0002);
    }
    outlet
    {
        type            calculated;
        value           nonuniform 0();
    }
    fixedWalls
    {
        type            calculated;
        value           uniform 0;
    }
    frontAndBack
    {
        type            empty;
    }
    procBoundary3to2
    {
        type            processor;
        value           nonuniform List<scalar> 9(1.28958e-05 4.00524e-05 7.28056e-05 0.000111925 0.000156334 0.000206672 0.000271834 0.000351558 0.000375923);
    }
}


// ************************************************************************* //
