/*--------------------------------*- C++ -*----------------------------------*\
| =========                 |                                                 |
| \\      /  F ield         | OpenFOAM Extend Project: Open source CFD        |
|  \\    /   O peration     | Version:  1.6-ext                               |
|   \\  /    A nd           | Web:      www.extend-project.de                 |
|    \\/     M anipulation  |                                                 |
\*---------------------------------------------------------------------------*/
FoamFile
{
    version     2.0;
    format      ascii;
    class       volVectorField;
    location    "4.8";
    object      U;
}
// * * * * * * * * * * * * * * * * * * * * * * * * * * * * * * * * * * * * * //

dimensions      [0 1 -1 0 0 0 0];

internalField   nonuniform List<vector> 
72
(
(-0.00047744 0.000324984 0)
(-0.00548509 0.00232921 0)
(-0.0150216 0.00326878 0)
(-0.0246624 0.00340969 0)
(-0.0328372 0.00292578 0)
(-0.0378621 0.00171666 0)
(-0.038537 -0.000236401 0)
(-0.0358402 -0.00283621 0)
(-0.0162578 -0.00589121 0)
(-0.002887 0.00570219 0)
(-0.0150414 0.0138969 0)
(-0.0338366 0.016621 0)
(-0.0513254 0.0154797 0)
(-0.0644624 0.0114275 0)
(-0.0706843 0.00469555 0)
(-0.0689304 -0.00418134 0)
(-0.061241 -0.0139799 0)
(-0.0310253 -0.0232299 0)
(-0.00408706 0.016601 0)
(-0.0191 0.0332041 0)
(-0.0406411 0.0370445 0)
(-0.0594335 0.0323698 0)
(-0.0722345 0.0216541 0)
(-0.0766701 0.00613621 0)
(-0.0721928 -0.0126101 0)
(-0.0622254 -0.0314382 0)
(-0.0280015 -0.046609 0)
(-0.00424073 0.0280508 0)
(-0.0183647 0.0523122 0)
(-0.0373007 0.0561791 0)
(-0.0526179 0.047071 0)
(-0.0616875 0.029296 0)
(-0.0627777 0.00526206 0)
(-0.0556746 -0.0227589 0)
(-0.0453604 -0.0501606 0)
(-0.0104123 -0.0696407 0)
(-0.00395052 0.038113 0)
(-0.0141331 0.0672567 0)
(-0.0252048 0.0699227 0)
(-0.0322167 0.0562189 0)
(-0.0337255 0.0321043 0)
(-0.0290684 0.00113061 0)
(-0.018245 -0.0338741 0)
(-0.00709042 -0.0685974 0)
(0.0220882 -0.0899796 0)
(-0.00344929 0.0454809 0)
(-0.00680313 0.0738036 0)
(-0.00399652 0.0733824 0)
(0.0026571 0.0551965 0)
(0.013219 0.0262567 0)
(0.0272503 -0.00925128 0)
(0.0437185 -0.0477514 0)
(0.0591916 -0.0859951 0)
(0.085679 -0.109297 0)
(0.000278009 0.0530092 0)
(0.00785884 0.0689444 0)
(0.0311486 0.0612539 0)
(0.0558449 0.0391714 0)
(0.0815893 0.00795398 0)
(0.107254 -0.0287908 0)
(0.131009 -0.0669877 0)
(0.151327 -0.103706 0)
(0.174948 -0.127955 0)
(0.0259792 0.027313 0)
(0.0485346 0.0365979 0)
(0.096982 0.025798 0)
(0.139232 0.00415681 0)
(0.17731 -0.0247463 0)
(0.211604 -0.0581814 0)
(0.239426 -0.0916357 0)
(0.262101 -0.123018 0)
(0.279897 -0.143219 0)
)
;

boundaryField
{
    inlet
    {
        type            fixedValue;
        value           nonuniform 0();
    }
    outlet
    {
        type            zeroGradient;
    }
    fixedWalls
    {
        type            fixedValue;
        value           uniform (0 0 0);
    }
    frontAndBack
    {
        type            empty;
    }
    procBoundary0to1
    {
        type            processor;
        value           nonuniform List<vector> 9((0.183037 -0.00544719 0) (0.201505 -0.014167 0) (0.236187 -0.0253846 0) (0.273556 -0.0423893 0) (0.308278 -0.0647462 0) (0.339504 -0.0910223 0) (0.361361 -0.116357 0) (0.379736 -0.140051 0) (0.384525 -0.151831 0));
    }
}


// ************************************************************************* //
