/*--------------------------------*- C++ -*----------------------------------*\
| =========                 |                                                 |
| \\      /  F ield         | OpenFOAM Extend Project: Open source CFD        |
|  \\    /   O peration     | Version:  1.6-ext                               |
|   \\  /    A nd           | Web:      www.extend-project.de                 |
|    \\/     M anipulation  |                                                 |
\*---------------------------------------------------------------------------*/
FoamFile
{
    version     2.0;
    format      ascii;
    class       volSymmTensorField;
    location    "0.1";
    object      DSigma;
}
// * * * * * * * * * * * * * * * * * * * * * * * * * * * * * * * * * * * * * //

dimensions      [1 -1 -2 0 0 0 0];

internalField   nonuniform List<symmTensor> 
328
(
(0.908299 -0.157636 7.32561e-23 0.860595 -9.2381e-20 0.707558)
(1.02423 -0.0695357 -1.67238e-24 0.756718 2.81841e-24 0.71238)
(1.02877 0.0706081 -8.00431e-24 0.758722 -3.75433e-24 0.714996)
(0.925987 0.155658 -5.41848e-23 0.866821 4.57537e-20 0.717123)
(0.964194 -0.109005 9.02947e-23 0.976058 -1.12518e-19 0.776101)
(1.02283 -0.0580706 -4.64584e-24 0.875716 6.9033e-24 0.759417)
(1.02734 0.0585411 7.46333e-24 0.876341 3.50063e-24 0.761472)
(0.981263 0.107745 -1.9571e-23 0.980277 -5.38893e-20 0.784616)
(0.978937 -0.0684771 -1.24033e-22 1.04392 -2.39446e-21 0.809141)
(0.984794 -0.0450377 2.0215e-24 0.944242 2.86672e-30 0.771614)
(0.989663 0.045102 -2.02147e-24 0.944263 5.85869e-30 0.773571)
(0.996073 0.06772 -3.54901e-23 1.04709 -1.57564e-19 0.817266)
(0.997278 -0.0392525 4.0216e-23 1.09082 9.71e-20 0.83524)
(0.975138 -0.0312091 0 1.00781 0 0.79318)
(0.979987 0.031028 8.89868e-23 1.00735 4.30333e-23 0.794935)
(1.01427 0.0388016 -1.28954e-22 1.09334 5.05612e-20 0.843044)
(1.00456 -0.0197814 -2.02199e-24 1.11794 4.8631e-20 0.849)
(0.963721 -0.0190185 0 1.05081 0 0.805812)
(0.96858 0.018709 -1.82384e-22 1.05011 -8.63826e-23 0.807476)
(1.02151 0.0194989 1.23122e-22 1.12013 4.2772e-20 0.856658)
(1.00866 -0.00728198 -4.10874e-23 1.13392 -4.47305e-20 0.857032)
(0.961109 -0.00923655 -5.58706e-23 1.08401 2.75706e-23 0.818047)
(0.965892 0.00885611 8.11517e-23 1.08315 3.13882e-23 0.819618)
(1.02554 0.00708378 3.92082e-23 1.13595 8.75002e-20 0.864596)
(1.00868 0.000208556 4.08747e-23 1.14203 3.58837e-22 0.860285)
(0.960582 -0.00224572 4.94835e-23 1.10649 -2.28982e-23 0.826831)
(0.965292 0.00182732 1.26046e-23 1.10556 1.14647e-23 0.82834)
(1.02549 -0.00037122 1.91296e-22 1.144 -3.72645e-21 0.867795)
(1.00676 0.00433084 -1.36795e-23 1.14554 -4.02202e-20 0.860919)
(0.963124 0.00222545 1.4068e-23 1.12186 -2.09139e-25 0.833995)
(0.967748 -0.00266853 -1.40679e-23 1.12088 2.09192e-25 0.835451)
(1.02349 -0.0044837 -2.19476e-22 1.14748 -4.09359e-20 0.868386)
(1.00357 0.00622705 -1.07482e-22 1.14618 7.35209e-20 0.8599)
(0.966762 0.00461351 0 1.13133 0 0.839236)
(0.971304 -0.00507639 2.87592e-23 1.13032 2.05453e-23 0.840649)
(1.0202 -0.00638299 -3.53595e-23 1.14812 -6.56659e-20 0.867326)
(1.00003 0.00675564 3.38016e-22 1.14521 -7.1961e-20 0.858099)
(0.971123 0.00548636 0 1.13668 0 0.84312)
(0.975586 -0.00596893 -2.90732e-22 1.13565 -9.3456e-23 0.844496)
(1.01654 -0.00692015 3.35038e-23 1.14715 3.01413e-20 0.865474)
(0.996651 0.00650598 -4.17477e-22 1.14337 -2.40666e-20 0.856007)
(0.975486 0.00536737 2.34478e-22 1.13904 -6.38201e-23 0.845809)
(0.979872 -0.00587096 2.42831e-22 1.13801 6.93622e-23 0.847152)
(1.01301 -0.00668095 3.62201e-24 1.1453 3.14439e-20 0.863322)
(0.993796 0.00588278 3.0265e-22 1.1411 5.32874e-20 0.853958)
(0.979572 0.00470182 -2.47132e-22 1.13942 7.76443e-23 0.847596)
(0.983884 -0.00522782 -6.61294e-23 1.13839 -3.20337e-23 0.848911)
(1.00997 -0.00606821 -1.06961e-23 1.14302 -8.20389e-20 0.861198)
(0.991644 0.00513893 -1.83657e-24 1.13866 8.90489e-23 0.85212)
(0.983172 0.00381622 1.3403e-22 1.13853 -3.70674e-23 0.84868)
(0.987408 -0.00436541 -1.36598e-22 1.13751 -2.65097e-23 0.849967)
(1.00761 -0.00533407 3.69215e-22 1.14056 7.49493e-20 0.859271)
(0.990245 0.00441922 -4.03865e-30 1.13618 -2.74804e-26 0.850568)
(0.986243 0.00292546 0 1.13688 0 0.849251)
(0.990402 -0.00349778 -3.68563e-22 1.13587 -7.17299e-23 0.85051)
(1.00597 -0.00462299 -2.03068e-22 1.13806 -2.36237e-20 0.857614)
(0.989555 0.0037903 -6.22945e-24 1.13371 -3.85216e-20 0.849306)
(0.988815 0.00214678 -6.01076e-22 1.13482 1.40662e-22 0.849452)
(0.992892 -0.00274151 2.77348e-22 1.13382 4.23981e-23 0.850685)
(1.00501 -0.0040016 -7.04545e-24 1.13557 -4.33698e-20 0.85623)
(0.989477 0.00326968 9.53536e-24 1.13128 5.39274e-20 0.848301)
(0.990972 0.00152591 7.09154e-22 1.13254 -1.39333e-22 0.849403)
(0.994961 -0.00214196 -1.48712e-22 1.13156 8.18018e-24 0.850607)
(1.00462 -0.0034876 6.43552e-22 1.1331 1.51881e-20 0.855086)
(0.989891 0.0028477 -2.99703e-22 1.12887 -1.70761e-20 0.847503)
(0.992816 0.00106214 -3.07158e-24 1.13016 -4.67655e-23 0.84919)
(0.99671 -0.00169852 1.52858e-22 1.1292 -9.3587e-24 0.850364)
(1.00468 -0.00307164 2.21237e-22 1.13065 6.73856e-21 0.854133)
(0.990681 0.00250471 3.37105e-22 1.12648 -1.04262e-21 0.846863)
(0.994447 0.000730782 0 1.12774 0 0.848875)
(0.998236 -0.00138702 0 1.1268 0 0.850017)
(1.00509 -0.00273452 -3.05889e-22 1.12821 -8.4065e-20 0.85332)
(0.991752 0.00222092 -2.79869e-22 1.12409 9.08551e-23 0.846339)
(0.995953 0.000499262 -3.1559e-22 1.12531 1.04065e-22 0.848503)
(0.999627 -0.00117579 3.27879e-22 1.1244 5.55638e-23 0.84961)
(1.00573 -0.00245699 2.16705e-23 1.12578 7.18345e-20 0.852604)
(0.99303 0.00198227 6.70522e-22 1.12171 -5.7436e-22 0.845898)
(0.997399 0.000337235 -6.83504e-22 1.12286 1.32398e-22 0.848105)
(1.00095 -0.00103554 3.35762e-22 1.12199 4.67663e-23 0.849174)
(1.00653 -0.00222553 -3.35758e-22 1.12334 -4.42848e-23 0.851951)
(0.994479 0.00178215 7.13949e-22 1.11933 1.63607e-20 0.845525)
(0.998846 0.000221922 1.31153e-21 1.12041 -1.8328e-22 0.847704)
(1.00226 -0.000944376 1.26361e-23 1.11957 1.3628e-22 0.848732)
(1.00746 -0.00203395 -1.37751e-21 1.1209 3.60625e-20 0.851344)
(0.996055 0.00161026 -6.43422e-22 1.11693 -1.36327e-20 0.845192)
(1.00032 0.000136172 -1.40329e-21 1.11794 2.01582e-22 0.847304)
(1.00358 -0.000885104 6.89084e-22 1.11713 -6.63316e-23 0.848286)
(1.00846 -0.00187188 -7.48511e-22 1.11842 -3.06891e-20 0.850752)
(0.997866 0.00149851 -1.30947e-21 1.11444 -1.41661e-20 0.844921)
(1.00195 7.83674e-05 6.20223e-22 1.11534 -1.17453e-22 0.846918)
(1.00504 -0.000852795 6.95738e-22 1.11458 -2.06049e-23 0.847847)
(1.0096 -0.0017697 1.32427e-21 1.11586 -1.21508e-21 0.850183)
(0.999831 0.00143949 2.0762e-21 1.11179 3.97412e-20 0.844649)
(1.0037 3.73201e-05 0 1.11263 0 0.846531)
(1.00659 -0.000845651 -6.95739e-22 1.11192 2.06048e-23 0.847401)
(1.01083 -0.00172476 -1.12309e-23 1.11312 -3.91936e-20 0.849582)
(1.00189 0.00139827 -8.06847e-22 1.10926 -2.49716e-20 0.84446)
(1.00549 8.20678e-06 0 1.11001 0 0.8462)
(1.00818 -0.000845408 0 1.10934 0 0.84701)
(1.01213 -0.00169595 4.23578e-24 1.11049 1.41996e-20 0.849049)
(1.004 0.00138135 5.85311e-21 1.10675 2.63633e-22 0.844298)
(1.00732 -7.17953e-06 -3.3818e-21 1.10742 6.48864e-22 0.845895)
(1.0098 -0.000849172 -1.81489e-21 1.1068 -8.49591e-23 0.846643)
(1.01345 -0.00168783 3.54954e-21 1.10788 8.55707e-23 0.848533)
(1.00616 0.0013778 -1.72001e-21 1.10426 2.61188e-20 0.844171)
(1.00919 -1.19869e-05 1.83835e-21 1.10486 -2.47828e-22 0.845621)
(1.01147 -0.000850654 -5.21302e-23 1.10429 1.20794e-22 0.846305)
(1.01482 -0.00168816 -3.75994e-21 1.1053 2.48755e-20 0.848047)
(1.00837 0.00138566 1.85563e-23 1.10178 -3.74245e-20 0.84406)
(1.01111 -6.26247e-06 -1.94257e-21 1.1023 4.88447e-22 0.845364)
(1.01318 -0.000847679 4.06222e-21 1.10178 -2.61946e-22 0.845985)
(1.01623 -0.0016941 -6.1132e-23 1.10272 -2.60732e-20 0.847578)
(1.0106 0.001401 8.07044e-23 1.0993 -1.22293e-20 0.84396)
(1.01307 8.88821e-06 -2.16309e-21 1.09974 4.31294e-22 0.845122)
(1.01493 -0.000838379 -2.05755e-21 1.09927 1.91303e-22 0.845682)
(1.01769 -0.0017014 8.66535e-24 1.10013 2.63911e-20 0.847128)
(1.01286 0.00142199 8.48097e-23 1.0968 -1.30357e-22 0.843863)
(1.01505 3.2566e-05 2.24939e-21 1.09717 -3.45035e-22 0.844889)
(1.01672 -0.000822429 0 1.09675 0 0.84539)
(1.0192 -0.0017084 4.28246e-24 1.09754 1.29077e-20 0.846695)
(1.01512 0.00144677 -2.40033e-21 1.09429 2.48927e-20 0.843762)
(1.01706 6.3388e-05 8.69294e-23 1.0946 8.49379e-23 0.84466)
(1.01855 -0.000800236 -2.38894e-21 1.09422 3.79343e-22 0.845105)
(1.02076 -0.00171395 -4.75909e-24 1.09494 -1.42627e-20 0.846278)
(1.01737 0.00147395 2.40502e-21 1.09176 -1.12659e-20 0.84365)
(1.01907 9.97306e-05 -5.43213e-23 1.09201 1.18178e-22 0.844432)
(1.0204 -0.000772909 3.51261e-23 1.09167 2.0114e-22 0.844826)
(1.02236 -0.00171771 -2.56615e-21 1.09233 1.07135e-22 0.845876)
(1.0196 0.00150217 -2.63326e-21 1.08921 1.86923e-20 0.843523)
(1.0211 0.000139751 7.9545e-21 1.0894 -1.75083e-21 0.8442)
(1.02227 -0.00074192 0 1.0891 0 0.844548)
(1.02401 -0.00171967 2.80778e-21 1.08971 1.7153e-20 0.845488)
(1.0218 0.00153029 -6.22089e-24 1.08664 -1.8216e-20 0.843376)
(1.02311 0.000181576 -2.72972e-21 1.08679 5.67927e-22 0.84396)
(1.02415 -0.000708896 -2.91244e-21 1.08652 4.07042e-22 0.844268)
(1.02569 -0.00172005 -5.75966e-21 1.08708 -2.4483e-20 0.845111)
(1.02395 0.00155732 3.61019e-24 1.08406 1.06903e-20 0.843204)
(1.02511 0.000223475 0 1.08417 0 0.843709)
(1.02603 -0.000675392 -9.24901e-23 1.08393 -7.86844e-23 0.843982)
(1.02741 -0.00171916 9.05471e-21 1.08445 4.66369e-21 0.844742)
(1.02606 0.00158251 3.93205e-24 1.08146 1.18188e-20 0.843005)
(1.02708 0.000264017 -3.17397e-21 1.08153 6.76701e-22 0.843444)
(1.0279 -0.000642732 0 1.08132 0 0.843687)
(1.02914 -0.00171736 -3.09482e-21 1.0818 1.18536e-20 0.844376)
(1.0281 0.00160538 3.28221e-21 1.07884 -1.91012e-20 0.842775)
(1.02902 0.000302181 -9.42541e-23 1.07888 -7.7494e-23 0.84316)
(1.02976 -0.000611886 3.26823e-21 1.07869 -5.99208e-22 0.843379)
(1.03087 -0.00171493 3.39618e-21 1.07915 -1.85167e-20 0.84401)
(1.03007 0.00162571 -3.28654e-21 1.07621 5.94709e-21 0.842512)
(1.03091 0.000337405 0 1.07623 0 0.842854)
(1.03158 -0.000583413 3.45936e-21 1.07606 -4.47569e-22 0.843054)
(1.0326 -0.00171207 1.9733e-22 1.0765 1.55002e-20 0.843638)
(1.03197 0.00164348 1.80216e-21 1.07356 1.26141e-20 0.842212)
(1.03274 0.000369569 -1.81724e-21 1.07357 3.94505e-22 0.842522)
(1.03336 -0.000557461 0 1.07341 0 0.842707)
(1.0343 -0.00170886 -3.55627e-21 1.07383 1.28168e-22 0.843254)
(1.03378 0.00165888 -5.45669e-21 1.07091 -1.20431e-20 0.841874)
(1.0345 0.000398927 1.81725e-21 1.0709 -3.94505e-22 0.84216)
(1.03509 -0.000533821 -1.91524e-21 1.07075 3.20883e-22 0.842335)
(1.03597 -0.00170526 -1.97008e-21 1.07116 -1.75842e-20 0.842855)
(1.03549 0.00167218 -3.88126e-21 1.06824 4.97997e-22 0.841494)
(1.03619 0.000425998 1.92552e-21 1.06822 -4.69266e-22 0.841764)
(1.03675 -0.000512025 3.8799e-21 1.06808 -6.05739e-22 0.841932)
(1.03759 -0.00170113 1.90677e-21 1.06849 5.56669e-21 0.842434)
(1.0371 0.00168374 3.98968e-21 1.06557 -6.56587e-21 0.841068)
(1.03778 0.00045144 -2.02486e-21 1.06554 3.96708e-22 0.841331)
(1.03833 -0.000491469 2.02487e-21 1.06541 -3.96709e-22 0.841495)
(1.03915 -0.00169629 -2.30489e-27 1.06581 -8.48901e-24 0.841986)
(1.0386 0.00169389 -2.03251e-21 1.06288 1.20798e-20 0.840592)
(1.03928 0.000475918 0 1.06286 0 0.840855)
(1.03982 -0.000471535 -2.12548e-21 1.06273 3.2622e-22 0.841019)
(1.04063 -0.00169054 4.27234e-21 1.06313 5.32557e-21 0.841507)
(1.03996 0.00170293 -2.14864e-21 1.06019 -6.05029e-21 0.840063)
(1.04066 0.000499987 4.40507e-21 1.06017 -9.27645e-22 0.840333)
(1.04121 -0.000451711 -2.15592e-21 1.06004 3.81556e-22 0.8405)
(1.04203 -0.00168372 2.20566e-21 1.06045 -6.1277e-21 0.840992)
(1.04119 0.00171106 2.17151e-23 1.0575 6.0102e-21 0.839476)
(1.04192 0.000523999 -2.19792e-21 1.05748 5.79826e-22 0.83976)
(1.04249 -0.000431681 -4.50742e-21 1.05734 8.58695e-22 0.839933)
(1.04332 -0.00167577 -2.34122e-21 1.05777 2.32247e-22 0.840437)
(1.04227 0.00171836 -2.3637e-21 1.0548 -6.08874e-22 0.838826)
(1.04304 0.000548045 0 1.05479 0 0.839132)
(1.04364 -0.000411386 -2.40426e-21 1.05464 4.43406e-22 0.839314)
(1.04451 -0.00166669 4.73257e-21 1.05508 -6.95989e-21 0.839837)
(1.04318 0.00172482 -5.07786e-23 1.05209 5.24382e-21 0.838109)
(1.04402 0.000571925 2.41536e-21 1.05209 -5.84344e-22 0.838444)
(1.04466 -0.000391052 2.43621e-21 1.05194 -4.97313e-22 0.838639)
(1.04557 -0.00165664 2.45635e-21 1.0524 -7.61781e-22 0.839188)
(1.04392 0.00173028 -2.44795e-21 1.04938 -5.64467e-21 0.83732)
(1.04483 0.000595157 -2.07019e-23 1.0494 -8.62593e-23 0.837692)
(1.04552 -0.000371183 -2.50905e-21 1.04924 3.78182e-22 0.837903)
(1.0465 -0.00164586 -5.1792e-23 1.04971 5.92952e-21 0.838487)
(1.04448 0.00173449 5.17711e-23 1.04666 -5.22871e-21 0.836457)
(1.04548 0.00061701 2.09166e-23 1.0467 8.5495e-23 0.836872)
(1.04623 -0.000352531 -2.63757e-21 1.04653 5.91869e-22 0.837102)
(1.04729 -0.0016347 -3.21879e-23 1.04703 4.10174e-23 0.837728)
(1.04484 0.00173713 2.66969e-21 1.04394 1.88177e-22 0.835514)
(1.04595 0.00063656 2.11504e-23 1.044 8.47599e-23 0.835981)
(1.04677 -0.000336035 2.71213e-21 1.04381 -4.74959e-22 0.836232)
(1.04792 -0.00162357 1.88873e-24 1.04435 1.12257e-20 0.836907)
(1.04501 0.00173781 -2.75309e-24 1.04122 -1.68786e-20 0.83449)
(1.04623 0.000652762 0 1.04131 0 0.835013)
(1.04712 -0.000322755 -2.74439e-21 1.0411 5.27934e-22 0.835289)
(1.04838 -0.00161297 -1.71777e-24 1.04166 -1.11363e-20 0.836019)
(1.04497 0.00173613 1.67587e-24 1.03849 1.12446e-20 0.833382)
(1.04631 0.000664534 0 1.03861 0 0.833967)
(1.04729 -0.000313785 0 1.03839 0 0.834269)
(1.04866 -0.00160338 -2.94026e-21 1.03898 -5.4348e-21 0.835058)
(1.04471 0.00173173 1.45391e-21 1.03576 5.6831e-21 0.832189)
(1.04618 0.000670852 1.47521e-21 1.03591 -3.11838e-22 0.832838)
(1.04725 -0.000310158 1.09108e-23 1.03567 4.12565e-23 0.833168)
(1.04874 -0.00159527 2.95159e-21 1.0363 1.10151e-20 0.834019)
(1.04424 0.0017243 -1.49517e-21 1.03303 1.10312e-20 0.83091)
(1.04585 0.000670849 1.53528e-21 1.03321 -3.48804e-22 0.831624)
(1.047 -0.000312751 0 1.03295 0 0.831982)
(1.04862 -0.00158905 1.55632e-21 1.03362 -1.13017e-20 0.832897)
(1.04356 0.00171363 1.53883e-21 1.0303 -1.10851e-20 0.829544)
(1.04529 0.000663916 -3.0981e-21 1.03051 6.82751e-22 0.830322)
(1.04653 -0.00032218 1.56282e-21 1.03024 -3.33947e-22 0.830708)
(1.04827 -0.00158503 -1.54027e-21 1.03094 5.96473e-21 0.831686)
(1.04266 0.00169965 2.02816e-27 1.02757 2.15065e-23 0.828092)
(1.04451 0.000649796 -1.62315e-21 1.02782 3.71172e-22 0.828931)
(1.04583 -0.000338708 1.61824e-21 1.02752 -3.04886e-22 0.829343)
(1.04769 -0.00158338 -3.20332e-21 1.02826 3.34082e-22 0.83038)
(1.04154 0.00168249 -1.62782e-21 1.02484 -5.45427e-21 0.826555)
(1.0435 0.00062866 1.62315e-21 1.02512 -3.71172e-22 0.827449)
(1.0449 -0.00036217 0 1.02481 0 0.827883)
(1.04686 -0.00158411 -3.33671e-21 1.02558 4.56746e-22 0.828973)
(1.04021 0.00166246 8.50009e-22 1.02212 5.34534e-21 0.824933)
(1.04226 0.00060116 1.70332e-21 1.02242 -3.81433e-22 0.825873)
(1.04372 -0.000391919 -8.47621e-22 1.0221 1.84244e-22 0.826327)
(1.04576 -0.00158702 1.69059e-21 1.02289 -2.11831e-22 0.827461)
(1.03867 0.00164005 -1.71332e-21 1.0194 2.24497e-22 0.823227)
(1.04079 0.000568422 -1.73959e-21 1.01972 3.80436e-22 0.824203)
(1.04229 -0.000426832 8.69769e-22 1.01939 -1.90212e-22 0.824672)
(1.0444 -0.00159173 -1.33113e-25 1.0202 -2.74823e-21 0.825841)
(1.03691 0.00161595 8.79415e-22 1.01669 -8.47611e-23 0.821438)
(1.03908 0.000531997 8.77806e-22 1.01702 -2.03163e-22 0.822437)
(1.04061 -0.000465362 0 1.01668 0 0.822917)
(1.04277 -0.0015977 -9.79159e-26 1.0175 -2.65297e-21 0.824108)
(1.03494 0.00159097 2.25087e-22 1.01398 2.67034e-21 0.819567)
(1.03713 0.000493732 -4.53891e-22 1.01431 1.11113e-22 0.820577)
(1.03868 -0.000505668 0 1.01398 0 0.821061)
(1.04085 -0.00160426 2.08883e-25 1.0148 8.05683e-21 0.822261)
(1.03276 0.00156597 -2.32788e-22 1.01127 -2.73562e-21 0.817613)
(1.03494 0.000455587 0 1.01161 0 0.81862)
(1.03648 -0.000545793 0 1.01128 0 0.819103)
(1.03865 -0.00161069 -7.1551e-22 1.0121 2.83085e-21 0.820299)
(1.03036 0.00154177 1.1822e-22 1.00858 -2.65549e-21 0.815575)
(1.03251 0.00041941 2.37953e-22 1.00891 -5.87079e-23 0.816567)
(1.03403 -0.000583893 -1.20592e-22 1.00858 2.44658e-23 0.817044)
(1.03617 -0.00161634 1.20981e-21 1.00939 -8.0802e-21 0.818223)
(1.02776 0.00151907 2.46316e-22 1.00588 1.05692e-20 0.813454)
(1.02985 0.000386708 0 1.0062 0 0.814419)
(1.03133 -0.000618468 3.08408e-23 1.00588 -6.32276e-24 0.814884)
(1.03341 -0.00162068 -4.58268e-22 1.00667 -1.86667e-23 0.816035)
(1.02493 0.00149832 -2.453e-22 1.00319 -7.93686e-21 0.811248)
(1.02695 0.000358446 -1.27204e-22 1.00349 3.18294e-23 0.812176)
(1.02838 -0.000648558 -1.25302e-22 1.00318 2.85554e-23 0.812625)
(1.03039 -0.00162341 -7.6619e-28 1.00395 6.44729e-23 0.813738)
(1.0219 0.00147977 -2.52578e-22 1.00049 -2.55251e-21 0.808957)
(1.02382 0.000334946 2.52506e-22 1.00078 -6.03847e-23 0.809839)
(1.02519 -0.000673854 -2.57758e-22 1.00048 5.39576e-23 0.810269)
(1.02711 -0.00162451 2.57604e-22 1.00123 7.80094e-21 0.811336)
(1.01865 0.00146337 -1.56268e-21 0.997803 8.00659e-21 0.80658)
(1.02047 0.000315891 0 0.998062 0 0.807411)
(1.02176 -0.000694685 -5.26479e-22 0.997784 1.1136e-22 0.807818)
(1.02358 -0.00162421 5.26411e-22 0.9985 2.48796e-21 0.808831)
(1.01519 0.00144891 -1.07871e-21 0.99511 -2.57585e-21 0.804119)
(1.01689 0.00030048 -7.18059e-24 0.995343 -3.09892e-24 0.804892)
(1.0181 -0.00071188 5.37388e-22 0.995084 -1.14849e-22 0.805275)
(1.01981 -0.00162299 -1.07768e-21 0.995767 -1.29682e-20 0.80623)
(1.01152 0.00143607 5.16091e-22 0.992413 6.30438e-23 0.801575)
(1.0131 0.000287669 1.63436e-21 0.99262 -4.00444e-22 0.802286)
(1.01422 -0.000726504 0 0.992381 0 0.802642)
(1.01581 -0.00162142 5.55033e-22 0.993027 7.84869e-21 0.803536)
(1.00766 0.00142466 1.08974e-21 0.989711 -7.89405e-21 0.79895)
(1.0091 0.00027652 -2.20777e-21 0.98989 5.32537e-22 0.799596)
(1.01014 -0.000739584 1.11103e-21 0.989673 -2.63213e-22 0.799924)
(1.0116 -0.00162011 -2.24628e-21 0.990281 4.7306e-23 0.800752)
(1.00362 0.00141457 -2.25735e-21 0.987003 9.10633e-21 0.796248)
(1.00491 0.000266447 2.25745e-21 0.987151 -5.60226e-22 0.796825)
(1.00585 -0.000751791 7.06944e-24 0.986958 1.93396e-23 0.797123)
(1.00718 -0.00161951 -5.73216e-22 0.987526 -2.39458e-21 0.797883)
(0.999394 0.00140622 -1.40044e-23 0.984286 -6.24987e-21 0.793472)
(1.00054 0.000257523 1.14621e-21 0.984402 -2.97091e-22 0.793976)
(1.00138 -0.000763388 0 0.984233 0 0.794244)
(1.00257 -0.00162015 1.33664e-25 0.984759 -2.54705e-21 0.794933)
(0.995007 0.00140013 2.32655e-21 0.981556 2.1841e-21 0.790625)
(0.995995 0.000250489 -2.34853e-21 0.981639 6.02862e-22 0.791053)
(0.996728 -0.000774177 -1.18176e-21 0.981494 2.65648e-22 0.791289)
(0.997783 -0.00162221 1.77949e-21 0.981977 2.34905e-21 0.791904)
(0.990469 0.00139806 1.19436e-21 0.97881 2.28855e-21 0.787712)
(0.991297 0.000247095 1.18135e-21 0.978857 -2.98421e-22 0.788062)
(0.991922 -0.000784039 0 0.978737 0 0.788264)
(0.99283 -0.00162675 6.18694e-22 0.979177 -6.56269e-23 0.788803)
(0.985788 0.00140197 1.22147e-21 0.976039 -2.55626e-21 0.784731)
(0.986459 0.000250317 -1.21611e-21 0.976047 2.99842e-22 0.785002)
(0.986973 -0.000793442 1.21611e-21 0.975951 -2.99842e-22 0.78517)
(0.987726 -0.00163484 2.06201e-23 0.976348 3.50445e-23 0.78563)
(0.980978 0.00141744 2.02121e-23 0.973237 2.3662e-21 0.781686)
(0.981507 0.000265615 1.23659e-21 0.973201 -3.07308e-22 0.781883)
(0.981911 -0.000804833 1.25773e-21 0.973129 -2.81839e-22 0.782016)
(0.982491 -0.00165099 -1.23011e-21 0.973486 1.07761e-22 0.782391)
(0.976025 0.00145325 -3.74623e-21 0.970374 -6.67272e-22 0.77856)
(0.976455 0.000303605 -1.2632e-21 0.970289 3.28313e-22 0.778698)
(0.976752 -0.000825257 -2.52108e-21 0.970239 6.10107e-22 0.778797)
(0.977122 -0.00168279 -7.26942e-26 0.970562 1.13486e-21 0.779074)
(0.970939 0.0015262 2.51096e-21 0.96743 -3.17773e-22 0.775348)
(0.971395 0.000379312 1.2632e-21 0.967305 -3.28313e-22 0.77548)
(0.971591 -0.0008649 1.27064e-21 0.967274 -3.08798e-22 0.775546)
(0.971643 -0.00174524 -1.29131e-21 0.967557 -9.67227e-22 0.77568)
(0.965598 0.00166725 -2.57049e-21 0.964314 -2.52363e-21 0.771965)
(0.966297 0.000517381 1.28926e-21 0.964159 -3.49386e-22 0.772183)
(0.966404 -0.000943214 1.31046e-21 0.964143 -3.23822e-22 0.772219)
(0.965953 -0.00186843 1.0224e-28 0.964382 -1.53543e-24 0.772134)
(0.9601 0.00183908 -3.93854e-21 0.960998 2.19759e-21 0.768439)
(0.961569 0.000683756 -1.36979e-23 0.961051 -6.04016e-24 0.769048)
(0.961605 -0.00101937 1.34172e-23 0.961042 6.03674e-24 0.769059)
(0.960177 -0.00201081 -1.32379e-21 0.961009 -9.3858e-22 0.768475)
(0.953869 0.00192894 -3.8634e-23 0.957535 4.60089e-25 0.764562)
(0.956355 0.000782593 4.00091e-21 0.958077 -1.05414e-21 0.765773)
(0.956341 -0.000991671 -1.33617e-21 0.958064 3.44852e-22 0.765762)
(0.95377 -0.0020591 -7.84377e-26 0.957493 1.33872e-21 0.764505)
(0.948999 0.000985418 9.73413e-22 0.955746 -3.68174e-22 0.761898)
(0.952399 0.000412771 -2.68177e-22 0.958447 3.58504e-22 0.764338)
(0.952366 -0.000485972 -4.52915e-23 0.958438 -1.34756e-23 0.764322)
(0.948898 -0.00106072 5.94013e-22 0.955716 -4.13642e-22 0.761846)
)
;

boundaryField
{
    plateFix
    {
        type            calculated;
        value           nonuniform List<symmTensor> 4((0.901381 -0.202619 7.55432e-23 0.855956 -9.2381e-20 0.702935) (1.06647 -0.0720675 -1.67378e-24 0.784874 2.81891e-24 0.740536) (1.07047 0.073719 -8.00432e-24 0.786522 -3.75433e-24 0.742796) (0.918927 0.200128 -5.50179e-23 0.86208 4.57537e-20 0.712403));
    }
    plate
    {
        type            calculated;
        value           nonuniform List<symmTensor> 
168
(
(1.09774 4.11792e-05 1.46563e-22 1.14503 -1.84774e-19 0.897107)
(1.11115 -8.59578e-05 -1.12106e-22 1.14494 9.14792e-20 0.902438)
(1.07636 0.000102577 9.38693e-23 1.14445 -2.24797e-19 0.888325)
(1.09054 -0.000140711 -3.91447e-23 1.14439 -1.07786e-19 0.89397)
(1.04564 0.000255135 -1.23568e-22 1.14403 -5.12679e-21 0.875867)
(1.06061 -0.000292502 -6.16454e-23 1.14398 -3.15102e-19 0.881836)
(1.03251 0.000473414 3.09674e-23 1.14368 1.94334e-19 0.870475)
(1.04778 -0.000508877 -1.19434e-22 1.14365 1.01419e-19 0.876575)
(1.02151 0.0007363 -4.04457e-24 1.14336 9.72761e-20 0.865947)
(1.03697 -0.000765878 1.33083e-22 1.14334 8.53194e-20 0.872126)
(1.01472 0.00103223 -4.1011e-23 1.14299 -8.95502e-20 0.863084)
(1.03023 -0.00105492 4.78649e-23 1.14298 1.74942e-19 0.869286)
(1.00902 0.00134513 4.08873e-23 1.14255 7.96468e-22 0.860629)
(1.02452 -0.0013605 1.90886e-22 1.14255 -7.71562e-21 0.866828)
(1.0044 0.00166135 -1.59977e-23 1.142 -8.04777e-20 0.858557)
(1.01983 -0.00166964 -2.23922e-22 1.142 -8.15675e-20 0.864733)
(1.00033 0.00196841 -1.02213e-22 1.14131 1.4693e-19 0.856655)
(1.01567 -0.00196985 -4.19599e-23 1.14132 -1.3131e-19 0.862795)
(0.996869 0.00225394 3.31677e-22 1.14047 -1.4357e-19 0.854934)
(1.01209 -0.00224875 3.67119e-23 1.14048 6.02593e-20 0.861028)
(0.994033 0.00250551 -4.19509e-22 1.13944 -4.8534e-20 0.85339)
(1.00911 -0.00249381 7.24477e-24 1.13946 6.28943e-20 0.859427)
(0.991876 0.00271116 3.09733e-22 1.13822 1.0686e-19 0.852038)
(1.00678 -0.00269309 -2.17961e-23 1.13824 -1.64049e-19 0.858008)
(0.990401 0.00286054 -1.31844e-24 1.13679 2.12584e-22 0.850877)
(1.00511 -0.00283626 3.79472e-22 1.13681 1.49694e-19 0.85677)
(0.989572 0.00294619 -7.57667e-30 1.13517 -5.15543e-26 0.849895)
(1.00406 -0.00291595 -2.06581e-22 1.13519 -4.71111e-20 0.855698)
(0.989316 0.00296486 -1.24594e-23 1.13335 -7.70461e-20 0.849068)
(1.00355 -0.00292898 -1.40912e-23 1.13338 -8.67411e-20 0.85477)
(0.989544 0.00291844 1.9072e-23 1.13138 1.07862e-19 0.848368)
(1.00349 -0.00287736 6.46175e-22 1.1314 3.01194e-20 0.853956)
(0.990157 0.00281418 -3.03028e-22 1.12927 -3.43153e-20 0.847769)
(1.00378 -0.00276841 2.22598e-22 1.12929 1.33996e-20 0.853229)
(0.991069 0.00266455 3.37011e-22 1.12706 -1.97406e-21 0.847251)
(1.00434 -0.00261465 -3.22864e-22 1.12709 -1.68062e-19 0.852569)
(0.992209 0.00248507 -2.79889e-22 1.12478 7.15477e-25 0.846795)
(1.00508 -0.00243166 3.72526e-23 1.12481 1.43592e-19 0.851956)
(0.993525 0.00229317 6.70452e-22 1.12246 -8.6813e-22 0.846392)
(1.00596 -0.00223687 -3.35757e-22 1.12249 -4.18079e-23 0.851379)
(0.994991 0.00210654 7.17874e-22 1.1201 3.30632e-20 0.846037)
(1.00695 -0.00204798 -1.36859e-21 1.12013 7.2411e-20 0.850832)
(0.996575 0.00192819 -6.47162e-22 1.11771 -2.75142e-20 0.845712)
(1.008 -0.00186803 -7.56432e-22 1.11774 -6.12618e-20 0.850294)
(0.998408 0.00181112 -1.31339e-21 1.11525 -2.8863e-20 0.845463)
(1.00922 -0.00175013 1.32389e-21 1.11528 -2.67939e-21 0.849799)
(1.00036 0.00175681 2.08778e-21 1.11258 8.03193e-20 0.845174)
(1.01049 -0.001696 -2.24612e-23 1.11261 -7.83854e-20 0.849239)
(1.0024 0.00171746 -8.14675e-22 1.11002 -5.02044e-20 0.844967)
(1.01183 -0.00165752 8.47107e-24 1.11004 2.83976e-20 0.848749)
(1.00448 0.00170177 5.85328e-21 1.10747 2.4153e-21 0.844778)
(1.01319 -0.00164338 3.54954e-21 1.10749 9.34986e-23 0.848271)
(1.00662 0.00169774 -1.71161e-21 1.10494 5.16879e-20 0.844623)
(1.01459 -0.00164142 -3.75202e-21 1.10496 4.98861e-20 0.847821)
(1.00879 0.00170329 6.46116e-24 1.10242 -7.50618e-20 0.844482)
(1.01604 -0.00164948 -6.96016e-23 1.10243 -5.22687e-20 0.847388)
(1.011 0.001714 7.70276e-23 1.09988 -2.45444e-20 0.844352)
(1.01753 -0.00166305 1.73312e-23 1.0999 5.27836e-20 0.846972)
(1.01322 0.00172811 8.47354e-23 1.09734 -3.46964e-22 0.844226)
(1.01907 -0.00168029 8.5654e-24 1.09735 2.58167e-20 0.84657)
(1.01545 0.00174396 -2.39198e-21 1.09479 4.90829e-20 0.844097)
(1.02066 -0.00169949 -9.51867e-24 1.0948 -2.85269e-20 0.846183)
(1.01768 0.0017606 2.40138e-21 1.09222 -2.18307e-20 0.843961)
(1.02229 -0.00171964 -2.56619e-21 1.09223 8.88896e-25 0.845809)
(1.01989 0.00177725 -2.62705e-21 1.08964 3.6735e-20 0.843812)
(1.02397 -0.0017399 2.81355e-21 1.08965 3.44779e-20 0.845446)
(1.02207 0.00179337 -1.24418e-23 1.08705 -3.64319e-20 0.843645)
(1.02567 -0.00175969 -5.76789e-21 1.08705 -4.93494e-20 0.84509)
(1.02421 0.0018086 7.22013e-24 1.08444 2.13799e-20 0.843457)
(1.02741 -0.00177863 9.05649e-21 1.08444 1.01181e-20 0.84474)
(1.0263 0.00182274 7.86409e-24 1.08182 2.36376e-20 0.843245)
(1.02915 -0.00179646 -3.09108e-21 1.08183 2.34564e-20 0.844391)
(1.02833 0.00183574 3.27627e-21 1.07918 -3.72966e-20 0.843005)
(1.0309 -0.00181311 3.39043e-21 1.0792 -3.67005e-20 0.844039)
(1.0303 0.00184761 -3.28493e-21 1.07654 1.09884e-20 0.842735)
(1.03264 -0.00182856 2.01885e-22 1.07656 3.08512e-20 0.843678)
(1.03219 0.00185845 1.80624e-21 1.07389 2.57164e-20 0.842431)
(1.03435 -0.00184287 -3.55634e-21 1.07391 -1.17044e-22 0.843305)
(1.034 0.00186837 -5.46046e-21 1.07123 -2.56621e-20 0.84209)
(1.03603 -0.00185612 -1.97542e-21 1.07125 -3.54525e-20 0.842914)
(1.03571 0.00187748 -3.8814e-21 1.06856 2.13348e-24 0.841709)
(1.03766 -0.0018684 1.90839e-21 1.06859 1.13046e-20 0.842499)
(1.03732 0.00188589 3.98813e-21 1.06589 -1.20654e-20 0.841284)
(1.03922 -0.00187981 -4.79175e-27 1.06592 -1.76482e-23 0.842057)
(1.03882 0.00189371 -2.0294e-21 1.06321 2.36184e-20 0.840811)
(1.04071 -0.00189043 4.27371e-21 1.06325 1.12147e-20 0.841582)
(1.04019 0.00190103 -2.1502e-21 1.06053 -1.27169e-20 0.840286)
(1.04211 -0.00190032 2.20423e-21 1.06057 -1.19097e-20 0.84107)
(1.04142 0.00190793 2.33277e-23 1.05784 1.19322e-20 0.839705)
(1.0434 -0.00190956 -2.34124e-21 1.05789 1.29936e-22 0.840516)
(1.0425 0.00191447 -2.36398e-21 1.05515 -1.83736e-21 0.839062)
(1.04459 -0.00191821 4.73095e-21 1.0552 -1.32851e-20 0.839916)
(1.04343 0.00192071 -4.96236e-23 1.05246 1.05222e-20 0.838354)
(1.04565 -0.0019263 2.45627e-21 1.05251 -1.11253e-21 0.839265)
(1.04418 0.00192669 -2.44908e-21 1.04976 -1.19261e-20 0.837576)
(1.04658 -0.0019339 -5.06233e-23 1.04982 1.18925e-20 0.83856)
(1.04475 0.00193246 5.07647e-23 1.04706 -1.0491e-20 0.836725)
(1.04736 -0.00194103 -3.21903e-23 1.04713 2.78039e-23 0.837796)
(1.04513 0.00193804 2.66984e-21 1.04436 1.02061e-21 0.835796)
(1.04798 -0.00194775 3.77737e-24 1.04444 2.24508e-20 0.836968)
(1.0453 0.00194345 -5.50627e-24 1.04166 -3.37576e-20 0.834787)
(1.04843 -0.00195408 -3.43556e-24 1.04174 -2.22727e-20 0.836071)
(1.04528 0.00194872 3.35173e-24 1.03896 2.24891e-20 0.833695)
(1.0487 -0.00196007 -2.94109e-21 1.03905 -1.13583e-20 0.8351)
(1.04504 0.00195384 1.45464e-21 1.03625 1.17614e-20 0.832518)
(1.04878 -0.00196574 2.95289e-21 1.03635 2.2479e-20 0.83405)
(1.04459 0.00195883 -1.49379e-21 1.03355 2.16566e-20 0.831255)
(1.04864 -0.00197112 1.55508e-21 1.03365 -2.23363e-20 0.832916)
(1.04392 0.0019637 1.53758e-21 1.03084 -2.1754e-20 0.829906)
(1.04828 -0.00197624 -1.53954e-21 1.03095 1.16885e-20 0.831693)
(1.04304 0.00196843 4.05629e-27 1.02814 4.30128e-23 0.828469)
(1.04768 -0.00198114 -3.20318e-21 1.02825 1.10511e-22 0.830375)
(1.04193 0.00197304 -1.62818e-21 1.02543 -1.13453e-20 0.826945)
(1.04684 -0.00198583 -3.33672e-21 1.02556 3.20762e-22 0.828958)
(1.04061 0.00197751 8.50392e-22 1.02272 1.09072e-20 0.825334)
(1.04574 -0.00199035 1.69059e-21 1.02285 -1.22226e-22 0.827438)
(1.03907 0.00198184 -1.71333e-21 1.02002 2.16657e-23 0.823636)
(1.04437 -0.00199471 -2.66213e-25 1.02015 -5.49617e-21 0.82581)
(1.03732 0.00198605 8.79346e-22 1.01731 6.64594e-23 0.821852)
(1.04273 -0.00199895 -1.95844e-25 1.01745 -5.30627e-21 0.824072)
(1.03535 0.00199011 2.2518e-22 1.0146 5.39297e-21 0.819982)
(1.04081 -0.00200307 4.17759e-25 1.01475 1.61134e-20 0.822223)
(1.03317 0.00199405 -2.3281e-22 1.01189 -5.5365e-21 0.818025)
(1.03861 -0.00200711 -7.15448e-22 1.01204 5.52852e-21 0.820261)
(1.03077 0.00199786 1.18161e-22 1.00919 -5.27508e-21 0.815982)
(1.03613 -0.00201108 1.20976e-21 1.00934 -1.59285e-20 0.818188)
(1.02815 0.00200157 2.46353e-22 1.00648 2.12039e-20 0.813852)
(1.03338 -0.002015 -4.58273e-22 1.00663 -1.26875e-22 0.816004)
(1.02532 0.00200519 -2.45269e-22 1.00377 -1.59376e-20 0.811635)
(1.03037 -0.00201891 -1.53242e-27 1.00392 1.28949e-22 0.813713)
(1.02227 0.00200875 -2.5252e-22 1.00105 -5.17383e-21 0.80933)
(1.02709 -0.00202283 2.57449e-22 1.0012 1.56565e-20 0.811318)
(1.01901 0.00201229 -1.56276e-21 0.998339 1.55983e-20 0.806938)