/*--------------------------------*- C++ -*----------------------------------*\
| =========                 |                                                 |
| \\      /  F ield         | OpenFOAM Extend Project: Open source CFD        |
|  \\    /   O peration     | Version:  1.6-ext                               |
|   \\  /    A nd           | Web:      www.extend-project.de                 |
|    \\/     M anipulation  |                                                 |
\*---------------------------------------------------------------------------*/
FoamFile
{
    version     2.0;
    format      ascii;
    class       volVectorField;
    location    "0.1";
    object      DU;
}
// * * * * * * * * * * * * * * * * * * * * * * * * * * * * * * * * * * * * * //

dimensions      [0 1 0 0 0 0 0];

internalField   nonuniform List<vector> 
328
(
(9.92702e-09 -3.66655e-08 0)
(1.62968e-08 -7.52967e-09 0)
(1.63844e-08 7.67052e-09 0)
(1.03327e-08 3.6194e-08 0)
(3.09757e-08 -9.40105e-08 0)
(4.71551e-08 -2.20854e-08 0)
(4.74611e-08 2.22776e-08 0)
(3.2234e-08 9.27722e-08 0)
(5.02201e-08 -1.36653e-07 0)
(7.26129e-08 -3.59539e-08 0)
(7.3233e-08 3.59534e-08 0)
(5.24734e-08 1.34717e-07 0)
(7.00638e-08 -1.67008e-07 0)
(9.61345e-08 -4.80399e-08 0)
(9.71141e-08 4.7592e-08 0)
(7.34051e-08 1.64342e-07 0)
(9.02139e-08 -1.88167e-07 0)
(1.17435e-07 -5.79546e-08 0)
(1.18822e-07 5.67881e-08 0)
(9.47439e-08 1.84637e-07 0)
(1.11263e-07 -2.02505e-07 0)
(1.37896e-07 -6.55995e-08 0)
(1.39725e-07 6.34084e-08 0)
(1.17073e-07 1.97886e-07 0)
(1.33285e-07 -2.11971e-07 0)
(1.58031e-07 -7.12082e-08 0)
(1.60333e-07 6.76407e-08 0)
(1.40469e-07 2.05955e-07 0)
(1.56476e-07 -2.18021e-07 0)
(1.7863e-07 -7.51467e-08 0)
(1.81436e-07 6.97919e-08 0)
(1.65128e-07 2.10222e-07 0)
(1.80943e-07 -2.21791e-07 0)
(2.00226e-07 -7.78673e-08 0)
(2.03566e-07 7.02436e-08 0)
(1.9116e-07 2.11741e-07 0)
(2.06833e-07 -2.24138e-07 0)
(2.23338e-07 -7.98175e-08 0)
(2.27243e-07 6.93598e-08 0)
(2.18716e-07 2.11277e-07 0)
(2.34301e-07 -2.25714e-07 0)
(2.48366e-07 -8.14076e-08 0)
(2.52868e-07 6.74543e-08 0)
(2.47956e-07 2.09385e-07 0)
(2.63542e-07 -2.27004e-07 0)
(2.75649e-07 -8.29814e-08 0)
(2.80784e-07 6.47601e-08 0)
(2.79077e-07 2.06437e-07 0)
(2.94778e-07 -2.28365e-07 0)
(3.05467e-07 -8.48135e-08 0)
(3.11268e-07 6.14254e-08 0)
(3.12304e-07 2.02664e-07 0)
(3.28262e-07 -2.30058e-07 0)
(3.38058e-07 -8.71138e-08 0)
(3.44563e-07 5.75162e-08 0)
(3.47892e-07 1.98185e-07 0)
(3.64271e-07 -2.32276e-07 0)
(3.73643e-07 -9.0042e-08 0)
(3.80889e-07 5.30294e-08 0)
(3.86121e-07 1.9303e-07 0)
(4.03102e-07 -2.35167e-07 0)
(4.12441e-07 -9.37242e-08 0)
(4.20465e-07 4.79072e-08 0)
(4.27289e-07 1.87162e-07 0)
(4.4507e-07 -2.38857e-07 0)
(4.5468e-07 -9.827e-08 0)
(4.63521e-07 4.20518e-08 0)
(4.71708e-07 1.80502e-07 0)
(4.90506e-07 -2.43468e-07 0)
(5.00614e-07 -1.03787e-07 0)
(5.10309e-07 3.53374e-08 0)
(5.19708e-07 1.72938e-07 0)
(5.39755e-07 -2.49125e-07 0)
(5.50526e-07 -1.1039e-07 0)
(5.61111e-07 2.76184e-08 0)
(5.7163e-07 1.64336e-07 0)
(5.93183e-07 -2.55965e-07 0)
(6.04733e-07 -1.18209e-07 0)
(6.16242e-07 1.87339e-08 0)
(6.27833e-07 1.54541e-07 0)
(6.51179e-07 -2.64142e-07 0)
(6.6359e-07 -1.27394e-07 0)
(6.76054e-07 8.50913e-09 0)
(6.88698e-07 1.43383e-07 0)
(7.14166e-07 -2.73818e-07 0)
(7.27495e-07 -1.3811e-07 0)
(7.40941e-07 -3.24547e-09 0)
(7.54635e-07 1.30673e-07 0)
(7.85205e-07 -2.8561e-07 0)
(7.99534e-07 -1.51016e-07 0)
(8.1402e-07 -1.7246e-08 0)
(8.28799e-07 1.15654e-07 0)
(8.62359e-07 -2.9936e-07 0)
(8.77715e-07 -1.65948e-07 0)
(8.93248e-07 -3.33207e-08 0)
(9.091e-07 9.85038e-08 0)
(9.4064e-07 -3.14167e-07 0)
(9.5696e-07 -1.81924e-07 0)
(9.73471e-07 -5.0417e-08 0)
(9.9032e-07 8.03487e-08 0)
(1.02005e-06 -3.29936e-07 0)
(1.03727e-06 -1.9886e-07 0)
(1.05469e-06 -6.84688e-08 0)
(1.07245e-06 6.12411e-08 0)
(1.1006e-06 -3.4658e-07 0)
(1.11865e-06 -2.16675e-07 0)
(1.1369e-06 -8.74008e-08 0)
(1.15551e-06 4.12511e-08 0)
(1.1823e-06 -3.64013e-07 0)
(1.20111e-06 -2.35286e-07 0)
(1.22012e-06 -1.07135e-07 0)
(1.2395e-06 2.04516e-08 0)
(1.26517e-06 -3.82152e-07 0)
(1.28466e-06 -2.5461e-07 0)
(1.30437e-06 -1.27591e-07 0)
(1.32443e-06 -1.08003e-09 0)
(1.34921e-06 -4.00917e-07 0)
(1.36932e-06 -2.74568e-07 0)
(1.38965e-06 -1.4869e-07 0)
(1.41033e-06 -2.3266e-08 0)
(1.43444e-06 -4.20234e-07 0)
(1.45509e-06 -2.95083e-07 0)
(1.47598e-06 -1.70355e-07 0)
(1.49721e-06 -4.60304e-08 0)
(1.52084e-06 -4.40034e-07 0)
(1.54199e-06 -3.16086e-07 0)
(1.56337e-06 -1.92516e-07 0)
(1.58509e-06 -6.93014e-08 0)
(1.60843e-06 -4.60256e-07 0)
(1.63002e-06 -3.37512e-07 0)
(1.65183e-06 -2.15107e-07 0)
(1.67398e-06 -9.30132e-08 0)
(1.6972e-06 -4.80846e-07 0)
(1.71917e-06 -3.59307e-07 0)
(1.74137e-06 -2.3807e-07 0)
(1.7639e-06 -1.17107e-07 0)
(1.78714e-06 -5.01759e-07 0)
(1.80945e-06 -3.81422e-07 0)
(1.83199e-06 -2.61356e-07 0)
(1.85485e-06 -1.41531e-07 0)
(1.87824e-06 -5.22957e-07 0)
(1.90086e-06 -4.03817e-07 0)
(1.92371e-06 -2.84924e-07 0)
(1.94685e-06 -1.66241e-07 0)
(1.97048e-06 -5.44411e-07 0)
(1.99338e-06 -4.26462e-07 0)
(2.0165e-06 -3.08739e-07 0)
(2.0399e-06 -1.91201e-07 0)
(2.06386e-06 -5.66098e-07 0)
(2.08701e-06 -4.49331e-07 0)
(2.11038e-06 -3.32773e-07 0)
(2.13401e-06 -2.1638e-07 0)
(2.15835e-06 -5.88001e-07 0)
(2.18173e-06 -4.72405e-07 0)
(2.20532e-06 -3.57005e-07 0)
(2.22916e-06 -2.41754e-07 0)
(2.25392e-06 -6.10108e-07 0)
(2.27753e-06 -4.9567e-07 0)
(2.30133e-06 -3.81418e-07 0)
(2.32536e-06 -2.67303e-07 0)
(2.35056e-06 -6.32413e-07 0)
(2.37438e-06 -5.19117e-07 0)
(2.39838e-06 -4.06001e-07 0)
(2.42258e-06 -2.93013e-07 0)
(2.44823e-06 -6.54911e-07 0)
(2.47226e-06 -5.42739e-07 0)
(2.49645e-06 -4.30745e-07 0)
(2.52082e-06 -3.18872e-07 0)
(2.54691e-06 -6.77603e-07 0)
(2.57114e-06 -5.66534e-07 0)
(2.59553e-06 -4.55644e-07 0)
(2.62006e-06 -3.44872e-07 0)
(2.64655e-06 -7.00491e-07 0)
(2.671e-06 -5.90502e-07 0)
(2.69557e-06 -4.80697e-07 0)
(2.72026e-06 -3.71008e-07 0)
(2.74713e-06 -7.23582e-07 0)
(2.77179e-06 -6.14648e-07 0)
(2.79656e-06 -5.05904e-07 0)
(2.82141e-06 -3.97279e-07 0)
(2.84859e-06 -7.46885e-07 0)
(2.87348e-06 -6.38978e-07 0)
(2.89845e-06 -5.3127e-07 0)
(2.92347e-06 -4.23687e-07 0)
(2.95089e-06 -7.70413e-07 0)
(2.97603e-06 -6.63503e-07 0)
(3.00121e-06 -5.56804e-07 0)
(3.0264e-06 -4.50238e-07 0)
(3.05399e-06 -7.94185e-07 0)
(3.07938e-06 -6.88238e-07 0)
(3.10479e-06 -5.82518e-07 0)
(3.13017e-06 -4.76942e-07 0)
(3.15782e-06 -8.18221e-07 0)
(3.1835e-06 -7.13203e-07 0)
(3.20915e-06 -6.0843e-07 0)
(3.23474e-06 -5.03814e-07 0)
(3.26234e-06 -8.42547e-07 0)
(3.28832e-06 -7.38422e-07 0)
(3.31424e-06 -6.3456e-07 0)
(3.34006e-06 -5.30873e-07 0)
(3.36749e-06 -8.67194e-07 0)
(3.3938e-06 -7.63921e-07 0)
(3.42002e-06 -6.60935e-07 0)
(3.44609e-06 -5.58142e-07 0)
(3.4732e-06 -8.92193e-07 0)
(3.49987e-06 -7.89734e-07 0)
(3.52641e-06 -6.87585e-07 0)
(3.55276e-06 -5.85648e-07 0)
(3.57941e-06 -9.17583e-07 0)
(3.60648e-06 -8.15895e-07 0)
(3.63337e-06 -7.14542e-07 0)
(3.66003e-06 -6.13423e-07 0)
(3.68606e-06 -9.43401e-07 0)
(3.71356e-06 -8.42442e-07 0)
(3.74083e-06 -7.41843e-07 0)
(3.76782e-06 -6.41499e-07 0)
(3.79309e-06 -9.69687e-07 0)
(3.82104e-06 -8.69414e-07 0)
(3.84873e-06 -7.69524e-07 0)
(3.87609e-06 -6.69911e-07 0)
(3.90042e-06 -9.9648e-07 0)
(3.92887e-06 -8.96849e-07 0)
(3.95699e-06 -7.97623e-07 0)
(3.98475e-06 -6.98694e-07 0)
(4.008e-06 -1.02382e-06 0)
(4.03697e-06 -9.24783e-07 0)
(4.06556e-06 -8.26174e-07 0)
(4.09373e-06 -7.27881e-07 0)
(4.11575e-06 -1.05173e-06 0)
(4.14527e-06 -9.5325e-07 0)
(4.17435e-06 -8.5521e-07 0)
(4.20297e-06 -7.57502e-07 0)
(4.22362e-06 -1.08025e-06 0)
(4.2537e-06 -9.82277e-07 0)
(4.2833e-06 -8.84759e-07 0)
(4.31238e-06 -7.87583e-07 0)
(4.33154e-06 -1.1094e-06 0)
(4.3622e-06 -1.01189e-06 0)
(4.39232e-06 -9.1484e-07 0)
(4.42188e-06 -8.18144e-07 0)
(4.43944e-06 -1.13918e-06 0)
(4.47069e-06 -1.04209e-06 0)
(4.50133e-06 -9.45468e-07 0)
(4.53138e-06 -8.49197e-07 0)
(4.54725e-06 -1.16962e-06 0)
(4.57909e-06 -1.0729e-06 0)
(4.61027e-06 -9.76647e-07 0)
(4.64081e-06 -8.80748e-07 0)
(4.65493e-06 -1.20069e-06 0)
(4.68735e-06 -1.10431e-06 0)
(4.71906e-06 -1.00838e-06 0)
(4.75007e-06 -9.12794e-07 0)
(4.76239e-06 -1.2324e-06 0)
(4.79538e-06 -1.1363e-06 0)
(4.82761e-06 -1.04064e-06 0)
(4.8591e-06 -9.45326e-07 0)
(4.86957e-06 -1.26473e-06 0)
(4.90312e-06 -1.16886e-06 0)
(4.93585e-06 -1.07343e-06 0)
(4.96779e-06 -9.78327e-07 0)
(4.97641e-06 -1.29764e-06 0)
(5.0105e-06 -1.20197e-06 0)
(5.04371e-06 -1.10672e-06 0)
(5.07609e-06 -1.01178e-06 0)
(5.08285e-06 -1.33112e-06 0)
(5.11745e-06 -1.2356e-06 0)
(5.15111e-06 -1.14048e-06 0)
(5.18391e-06 -1.04565e-06 0)
(5.18882e-06 -1.36512e-06 0)
(5.22389e-06 -1.26972e-06 0)
(5.25799e-06 -1.17468e-06 0)
(5.29118e-06 -1.07992e-06 0)
(5.29426e-06 -1.39962e-06 0)
(5.32978e-06 -1.30429e-06 0)
(5.36428e-06 -1.2093e-06 0)
(5.39782e-06 -1.11456e-06 0)
(5.3991e-06 -1.43458e-06 0)
(5.43504e-06 -1.33928e-06 0)
(5.46991e-06 -1.2443e-06 0)
(5.50379e-06 -1.14954e-06 0)
(5.5033e-06 -1.46996e-06 0)
(5.53962e-06 -1.37466e-06 0)
(5.57482e-06 -1.27964e-06 0)
(5.609e-06 -1.18483e-06 0)
(5.6068e-06 -1.50572e-06 0)
(5.64345e-06 -1.41039e-06 0)
(5.67897e-06 -1.31531e-06 0)
(5.71342e-06 -1.22041e-06 0)
(5.70955e-06 -1.54182e-06 0)
(5.7465e-06 -1.44642e-06 0)
(5.78228e-06 -1.35125e-06 0)
(5.81697e-06 -1.25623e-06 0)
(5.81151e-06 -1.57822e-06 0)
(5.84872e-06 -1.48273e-06 0)
(5.88473e-06 -1.38744e-06 0)
(5.91962e-06 -1.29227e-06 0)
(5.91263e-06 -1.61487e-06 0)
(5.95006e-06 -1.51927e-06 0)
(5.98626e-06 -1.42384e-06 0)
(6.02132e-06 -1.3285e-06 0)
(6.01288e-06 -1.65171e-06 0)
(6.0505e-06 -1.55599e-06 0)
(6.08685e-06 -1.4604e-06 0)
(6.12204e-06 -1.36488e-06 0)
(6.11224e-06 -1.68869e-06 0)
(6.15e-06 -1.59283e-06 0)
(6.18647e-06 -1.4971e-06 0)
(6.22174e-06 -1.40139e-06 0)
(6.21066e-06 -1.72573e-06 0)
(6.24857e-06 -1.62973e-06 0)
(6.28512e-06 -1.53391e-06 0)
(6.3204e-06 -1.43801e-06 0)
(6.30814e-06 -1.76275e-06 0)
(6.34622e-06 -1.66665e-06 0)
(6.38283e-06 -1.57078e-06 0)
(6.41801e-06 -1.47473e-06 0)
(6.4046e-06 -1.79969e-06 0)
(6.44298e-06 -1.70351e-06 0)
(6.47961e-06 -1.6077e-06 0)
(6.51452e-06 -1.51153e-06 0)
(6.5001e-06 -1.83677e-06 0)
(6.53905e-06 -1.74041e-06 0)
(6.57568e-06 -1.64447e-06 0)
(6.61001e-06 -1.54811e-06 0)
(6.5942e-06 -1.87486e-06 0)
(6.63386e-06 -1.77764e-06 0)
(6.67049e-06 -1.68076e-06 0)
(6.70408e-06 -1.58353e-06 0)
)
;

boundaryField
{
    plateFix
    {
        type            fixedDisplacement;
        value           uniform (0 0 0);
    }
    plate
    {
        type            solidTraction;
        nonLinear       updatedLagrangian;
        traction        nonuniform List<vector> 
168
(
(-0.000893989 -0.00163599 4.62218e-23)
(-0.00089705 0.00163781 -9.49047e-20)
(-0.00327196 -0.00302647 -6.96023e-21)
(-0.00327558 0.00302673 1.12384e-19)
(-0.00641327 -0.00309049 -6.65092e-21)
(-0.00641662 0.00308966 -1.07051e-19)
(-0.00935011 -0.00250539 -6.19645e-24)
(-0.00935257 0.00250364 1.0203e-19)
(-0.011485 -0.00165045 -9.64302e-20)
(-0.0114858 0.00164808 -9.00146e-20)
(-0.0124924 -0.000724254 9.01686e-20)
(-0.0124907 0.000721534 -1.10797e-23)
(-0.0121586 0.000173771 0)
(-0.0121537 -0.000176691 1.05927e-20)
(-0.0103554 0.00100128 7.98545e-20)
(-0.0103468 -0.00100437 8.99436e-20)
(-0.00702807 0.00174282 -1.4761e-19)
(-0.00701571 -0.00174618 -8.22235e-21)
(-0.00218601 0.00239056 1.28097e-19)
(-0.00217004 -0.00239439 -6.79957e-20)
(0.0040977 0.00293509 -5.46096e-20)
(0.00411665 -0.00293972 6.34633e-20)
(0.0116825 0.0033634 2.81124e-23)
(0.0117034 -0.00336924 -5.72976e-20)
(0.0203583 0.00366101 0)
(0.0203797 -0.00366861 5.28184e-20)
(0.0298484 0.00381624 0)
(0.0298685 -0.00382622 -4.7213e-20)
(0.0398215 0.00382463 -4.16015e-23)
(0.0398384 -0.0038377 1.06043e-20)
(0.0499117 0.00369222 -3.81757e-20)
(0.0499234 -0.00370912 4.76988e-20)
(0.0597484 0.003437 3.36211e-20)
(0.059753 -0.00345846 -1.68664e-20)
(0.0689783 0.00308625 5.79317e-23)
(0.0689744 -0.00311292 -5.94907e-20)
(0.0773266 0.00267518 0)
(0.0773134 -0.00270759 5.19391e-20)
(0.084527 0.00222567 -4.39604e-23)
(0.0845044 -0.00226416 -4.40623e-23)
(0.090555 0.0017649 3.86492e-20)
(0.0905236 -0.00180957 7.60392e-23)
(0.0950942 0.00120421 -3.3367e-20)
(0.0950544 -0.00125502 0)
(0.0991276 0.000483838 2.79132e-20)
(0.0990819 -0.000540881 -5.47342e-23)
(0.102778 8.03907e-05 -2.79637e-20)
(0.10273 -0.000143428 -2.76223e-20)
(0.105068 -0.000151638 -5.36536e-23)
(0.105017 8.3492e-05 2.75977e-20)
(0.106684 -0.000265749 -1.06269e-22)
(0.106632 0.000193343 1.06547e-22)
(0.107754 -0.000319065 -5.26026e-23)
(0.107703 0.000243131 2.10977e-22)
(0.108493 -0.000337907 2.64783e-20)
(0.108444 0.000259104 0)
(0.108995 -0.000338558 -2.65587e-20)
(0.108949 0.000257453 -2.0704e-22)
(0.109344 -0.000329842 -5.11531e-23)
(0.109302 0.000246935 2.62353e-20)
(0.109587 -0.000316505 1.01399e-22)
(0.10955 0.000232244 -2.61598e-20)
(0.109763 -0.000301235 0)
(0.109731 0.000216022 0)
(0.109893 -0.000285523 -1.27151e-20)
(0.109868 0.000199731 1.2855e-20)
(0.109994 -0.000270211 1.26297e-20)
(0.109976 0.000184185 -2.56277e-20)
(0.110076 -0.000255735 0)
(0.110065 0.000169798 1.28713e-20)
(0.110146 -0.000242275 4.88233e-23)
(0.110142 0.000156731 0)
(0.110207 -0.000229851 -1.24587e-20)
(0.110211 0.000144988 1.22073e-20)
(0.110261 -0.000218395 1.23751e-20)
(0.110273 0.000134486 -1.24147e-20)
(0.11031 -0.000207789 4.78363e-23)
(0.110331 0.000125096 0)
(0.110356 -0.000197908 0)
(0.110386 0.000116677 1.21687e-20)
(0.110399 -0.000188623 0)
(0.110438 0.000109092 -1.21813e-20)
(0.110439 -0.000179822 1.19381e-20)
(0.110488 0.000102212 -4.71289e-23)
(0.110479 -0.000171402 -2.38666e-20)
(0.110538 9.59267e-05 1.19529e-20)
(0.110518 -0.000163277 1.18817e-20)
(0.110587 9.01346e-05 -1.19653e-20)
(0.110557 -0.000155372 -1.17799e-20)
(0.110636 8.47496e-05 -2.31611e-22)
(0.110597 -0.000147622 2.35063e-20)
(0.110687 7.96928e-05 -1.17484e-20)
(0.110639 -0.000139968 -1.17264e-20)
(0.110739 7.4895e-05 3.28382e-23)
(0.110683 -0.000132359 -1.16294e-20)
(0.110794 7.02917e-05 1.15119e-20)
(0.110731 -0.000124747 1.17319e-20)
(0.110853 6.58224e-05 0)
(0.110783 -0.000117084 0)
(0.110917 6.14302e-05 0)
(0.110841 -0.000109325 1.13041e-20)
(0.110985 5.7058e-05 -1.79095e-22)
(0.110905 -0.000101423 -7.52173e-23)
(0.111061 5.26497e-05 -1.13559e-20)
(0.110977 -9.33294e-05 -1.13428e-20)
(0.111144 4.81463e-05 2.26586e-20)
(0.111058 -8.49905e-05 0)
(0.111236 4.34862e-05 -7.67013e-23)
(0.11115 -7.63481e-05 -2.1837e-23)
(0.111338 3.86015e-05 -1.14126e-20)
(0.111253 -6.73369e-05 0)
(0.111452 3.34175e-05 0)
(0.111371 -5.78828e-05 0)
(0.11158 2.78494e-05 1.10286e-20)
(0.111504 -4.78969e-05 -1.07336e-22)
(0.111723 2.17982e-05 -1.10508e-20)
(0.111656 -3.72799e-05 0)
(0.111885 1.51509e-05 5.4362e-21)
(0.111829 -2.59039e-05 8.48503e-23)
(0.112067 7.7675e-06 -5.4525e-21)
(0.112026 -1.36271e-05 -5.471e-21)
(0.112273 -5.10076e-07 -5.38266e-21)
(0.112252 -2.54316e-07 5.2982e-21)
(0.112506 -9.89153e-06 5.3777e-21)
(0.11251 1.4425e-05 5.30677e-21)
(0.112772 -2.06037e-05 -5.38569e-21)
(0.112806 3.07285e-05 -1.05833e-20)
(0.113074 -3.29796e-05 1.25013e-22)
(0.113146 4.89801e-05 5.27587e-21)
(0.11342 -4.73559e-05 -3.79861e-23)
(0.113539 6.97267e-05 5.19514e-21)
(0.113817 -6.42908e-05 5.31315e-21)
(0.113992 9.3483e-05 -5.20084e-21)
(0.114275 -8.43062e-05 5.14748e-21)
(0.114519 0.000121243 -5.11342e-21)
(0.114804 -0.000108401 -5.07263e-21)
(0.115133 0.000153866 1.01886e-20)
(0.11542 -0.000137434 -5.05407e-21)
(0.115855 0.000193267 -5.19005e-23)
(0.116142 -0.000173319 1.00756e-20)
(0.116706 0.000241022 -7.51583e-21)
(0.116991 -0.000217627 -5.09445e-21)
(0.11772 0.0003011 2.48976e-21)
(0.118003 -0.000274317 0)
(0.118936 0.000376923 0)
(0.119214 -0.000346804 0)
(0.120418 0.000477772 -9.44745e-24)
(0.120689 -0.000444348 0)
(0.12224 0.000612942 0)
(0.122502 -0.000576228 -7.42517e-23)
(0.124525 0.00081069 -1.46727e-22)
(0.124774 -0.000770648 -9.14506e-24)
(0.12748 0.00109878 -2.1401e-21)
(0.127714 -0.00105513 2.27491e-21)
(0.131273 0.00161967 2.27797e-21)
(0.131486 -0.00157227 -2.28603e-21)
(0.136913 0.00239519 1.21374e-21)
(0.1371 -0.0023412 -8.58762e-24)
(0.143653 0.00457115 -1.21077e-21)
(0.143792 -0.00450896 -9.76941e-22)
(0.158893 0.00714453 0)
(0.158971 -0.00705891 1.53342e-21)
(0.170547 0.0177851 0)
(0.0358442 0.0165505 -2.006e-22)
(-0.006035 -0.0139183 9.18851e-23)
(-0.00606128 0.014285 1.02627e-22)
(0.0358698 -0.0161694 6.2706e-24)
(0.170497 -0.0176297 -4.89549e-22)
)
;
        pressure        nonuniform List<scalar> 
168
(
1.19073
1.19362
1.18929
1.19218
1.19058
1.19346
1.19476
1.19765
1.20162
1.2045
1.21104
1.21393
1.22287
1.22576
1.23681
1.23971
1.25255
1.25545
1.26964
1.27254
1.28757
1.29047
1.30572
1.30863
1.32341
1.32631
1.3399
1.3428
1.35444
1.35734
1.36637
1.36927
1.37514
1.37804
1.38035
1.38327
1.38191
1.38484
1.37975
1.38271
1.37451
1.37751
1.36601
1.36906
1.3559
1.35902
1.34121
1.34441
1.32659
1.32988
1.31165
1.31504
1.29716
1.30064
1.28316
1.28673
1.26977
1.27343
1.25701
1.26076
1.24487
1.2487
1.23331
1.23721
1.22228
1.22626
1.21175
1.21579
1.20167
1.20576
1.19198
1.19612
1.18265
1.18682
1.17363
1.17784
1.1649
1.16912
1.15641
1.16064
1.14814
1.15237
1.14007
1.14429
1.13217
1.13637
1.12443
1.12859
1.11682
1.12093
1.10933
1.11339
1.10194
1.10593
1.09464
1.09855
1.08742
1.09123
1.08026
1.08397
1.07315
1.07674
1.06608
1.06954
1.05904
1.06236
1.05202
1.05517
1.045
1.04799
1.03797
1.04078
1.03092
1.03354
1.02384
1.02625
1.0167
1.01891
1.0095
1.0115
1.00222
1.00399
0.994832
0.996381
0.987322
0.988644
0.979664
0.980758
0.97183
0.972696
0.96379
0.96443
0.955505
0.955923
0.946935
0.947135
0.938025
0.938013
0.92872
0.928504
0.918935
0.918526
0.908592
0.908001
0.897556
0.896797
0.885702
0.884793
0.872807
0.871769
0.858626
0.857485
0.842813
0.841602
0.824583
0.823336
0.803954
0.802729
0.775963
0.774815
0.748566
0.747629
0.678764
0.594462
0.704468
0.70455
0.594722
0.678151
)
;
        value           nonuniform List<vector> 
168
(
(-1.5094e-07 -9.86639e-08 9.24015e-26)
(-1.48437e-07 9.68432e-08 4.57013e-26)
(-8.62163e-08 -1.5805e-07 1.12257e-25)
(-8.32539e-08 1.55388e-07 -5.3887e-26)
(-2.97023e-08 -2.03692e-07 2.73193e-27)
(-2.5908e-08 2.00254e-07 -1.57504e-25)
(1.73072e-08 -2.35303e-07 -9.72191e-26)
(2.2248e-08 2.31105e-07 5.08419e-26)
(5.6088e-08 -2.57511e-07 -4.86268e-26)
(6.24448e-08 2.52429e-07 4.25446e-26)
(8.96327e-08 -2.72472e-07 4.47976e-26)
(9.7611e-08 2.66297e-07 8.74234e-26)
(1.19775e-07 -2.82439e-07 -4.28206e-28)
(1.29548e-07 2.7487e-07 -3.99308e-27)
(1.48068e-07 -2.88869e-07 4.02377e-26)
(1.59788e-07 2.79523e-07 -4.06233e-26)
(1.75559e-07 -2.92943e-07 -7.33811e-26)
(1.8937e-07 2.81356e-07 -6.56307e-26)
(2.0308e-07 -2.95509e-07 7.15854e-26)
(2.19123e-07 2.81123e-07 3.01154e-26)
(2.31269e-07 -2.97215e-07 2.44633e-26)
(2.49686e-07 2.79375e-07 3.14367e-26)
(2.60659e-07 -2.98536e-07 -5.35639e-26)
(2.81598e-07 2.76477e-07 -8.19867e-26)
(2.91712e-07 -2.99831e-07 -1.20583e-28)
(3.15319e-07 2.72658e-07 7.47263e-26)
(3.24837e-07 -3.01363e-07 2.74761e-32)
(3.51264e-07 2.6804e-07 -2.34798e-26)
(3.6041e-07 -3.03334e-07 3.85155e-26)
(3.8981e-07 2.62664e-07 -4.33598e-26)
(3.98784e-07 -3.05906e-07 -5.39189e-26)
(4.3131e-07 2.56506e-07 1.49219e-26)
(4.40299e-07 -3.09218e-07 1.72324e-26)
(4.76104e-07 2.49501e-07 6.66343e-27)
(4.85292e-07 -3.13406e-07 9.31336e-28)
(5.24526e-07 2.41551e-07 -8.39765e-26)
(5.34105e-07 -3.18607e-07 9.0125e-29)
(5.76914e-07 2.32532e-07 7.17395e-26)
(5.87097e-07 -3.24968e-07 2.93719e-28)
(6.33617e-07 2.22301e-07 2.48044e-30)
(6.44649e-07 -3.32644e-07 -1.67018e-26)
(6.95006e-07 2.10692e-07 3.63432e-26)
(7.07183e-07 -3.41803e-07 1.38827e-26)
(7.61485e-07 1.97517e-07 -3.05666e-26)
(7.77728e-07 -3.53043e-07 1.46899e-26)
(8.36208e-07 1.82008e-07 -1.46394e-27)
(8.54364e-07 -3.66197e-07 -4.05699e-26)
(9.17054e-07 1.6433e-07 -3.91858e-26)
(9.32161e-07 -3.80416e-07 2.523e-26)
(9.98782e-07 1.45656e-07 1.41968e-26)
(1.01112e-06 -3.95594e-07 -2.15299e-27)
(1.08138e-06 1.2603e-07 7.91235e-30)
(1.09126e-06 -4.11646e-07 -2.55633e-26)
(1.16486e-06 1.0552e-07 2.50047e-26)
(1.17258e-06 -4.28482e-07 3.76284e-26)
(1.24923e-06 8.41971e-08 -2.61895e-26)
(1.25511e-06 -4.46021e-07 1.23162e-26)
(1.3345e-06 6.21362e-08 2.63866e-26)
(1.33886e-06 -4.64182e-07 2.18008e-28)
(1.4207e-06 3.94148e-08 1.29055e-26)
(1.42381e-06 -4.82893e-07 -2.41878e-26)
(1.50784e-06 1.61085e-08 -1.42604e-26)
(1.50998e-06 -5.02086e-07 1.05631e-26)
(1.59595e-06 -7.71088e-09 -1.0623e-28)
(1.59737e-06 -5.217e-07 -1.80393e-26)
(1.68503e-06 -3.1977e-08 1.73216e-26)
(1.68596e-06 -5.41683e-07 1.82132e-26)
(1.77512e-06 -5.66303e-08 -2.48613e-26)
(1.77573e-06 -5.6199e-07 -1.06887e-26)
(1.86622e-06 -8.16181e-08 5.45289e-27)
(1.86669e-06 -5.82586e-07 -1.1817e-26)
(1.95834e-06 -1.06896e-07 1.16011e-26)
(1.95881e-06 -6.03442e-07 1.81933e-26)
(2.05151e-06 -1.32424e-07 -1.8182e-26)
(2.05206e-06 -6.24536e-07 -5.04123e-27)
(2.14571e-06 -1.58173e-07 1.53496e-26)
(2.14644e-06 -6.45853e-07 -1.31004e-26)
(2.24095e-06 -1.84115e-07 -2.45187e-28)
(2.24191e-06 -6.67381e-07 1.36172e-26)
(2.33722e-06 -2.1023e-07 -1.78673e-26)
(2.33844e-06 -6.89114e-07 4.95796e-28)
(2.43452e-06 -2.36502e-07 5.73782e-27)
(2.43601e-06 -7.11051e-07 5.49745e-27)
(2.53282e-06 -2.62917e-07 -8.48802e-30)
(2.53459e-06 -7.33192e-07 -1.15351e-26)
(2.63212e-06 -2.89466e-07 5.88704e-27)
(2.63413e-06 -7.55541e-07 6.66512e-27)
(2.73239e-06 -3.16143e-07 -5.77998e-27)
(2.7346e-06 -7.78105e-07 -5.92053e-27)
(2.8336e-06 -3.42946e-07 -1.02297e-28)
(2.83595e-06 -8.00897e-07 1.22702e-27)
(2.93572e-06 -3.69875e-07 -6.32322e-27)
(2.93813e-06 -8.23929e-07 -5.27708e-27)
(3.03873e-06 -3.96935e-07 -3.51359e-28)
(3.0411e-06 -8.47222e-07 6.28136e-27)
(3.14258e-06 -4.24135e-07 5.96101e-27)
(3.14479e-06 -8.70796e-07 5.26101e-27)
(3.24723e-06 -4.51489e-07 -1.25663e-29)
(3.24915e-06 -8.9468e-07 -8.32334e-28)
(3.35265e-06 -4.79014e-07 1.12246e-26)
(3.35413e-06 -9.18904e-07 1.68764e-26)
(3.45878e-06 -5.06732e-07 -1.11353e-26)
(3.45965e-06 -9.43501e-07 -1.12432e-26)
(3.56558e-06 -5.34669e-07 -5.92291e-27)
(3.56566e-06 -9.68509e-07 -6.07702e-27)
(3.67298e-06 -5.62855e-07 1.14615e-26)
(3.67208e-06 -9.93967e-07 -1.06248e-26)
(3.78094e-06 -5.91322e-07 -1.10335e-26)
(3.77886e-06 -1.01991e-06 1.06682e-26)
(3.88937e-06 -6.20103e-07 5.72321e-27)
(3.88593e-06 -1.04639e-06 -2.1504e-29)
(3.99823e-06 -6.49231e-07 -2.23548e-28)
(3.99322e-06 -1.07343e-06 5.89103e-27)
(4.10742e-06 -6.78738e-07 -1.3658e-28)
(4.10068e-06 -1.10107e-06 -5.56192e-27)
(4.21688e-06 -7.08654e-07 9.08217e-29)
(4.20824e-06 -1.12934e-06 2.02811e-28)
(4.32652e-06 -7.39003e-07 -2.74801e-27)
(4.31584e-06 -1.15825e-06 -1.51226e-28)
(4.43626e-06 -7.69804e-07 -2.65277e-27)
(4.42341e-06 -1.18783e-06 -2.72236e-27)
(4.546e-06 -8.01071e-07 8.05623e-27)
(4.53091e-06 -1.21808e-06 2.80062e-27)
(4.65568e-06 -8.32807e-07 2.69686e-27)
(4.63826e-06 -1.24899e-06 2.61934e-27)
(4.76519e-06 -8.65011e-07 -7.84712e-27)
(4.74541e-06 -1.28056e-06 -1.06335e-26)
(4.87445e-06 -8.97674e-07 -1.08202e-28)
(4.85229e-06 -1.31276e-06 7.99972e-27)
(4.98337e-06 -9.3078e-07 6.44684e-29)
(4.95884e-06 -1.34557e-06 2.62082e-27)
(5.09188e-06 -9.6431e-07 7.85436e-27)
(5.065e-06 -1.37896e-06 -7.59076e-27)
(5.1999e-06 -9.98239e-07 2.59915e-27)
(5.17072e-06 -1.41291e-06 2.86075e-27)
(5.30736e-06 -1.03254e-06 -1.31873e-26)
(5.27591e-06 -1.44737e-06 -2.03408e-28)
(5.41418e-06 -1.06719e-06 7.9635e-27)
(5.38054e-06 -1.4823e-06 7.60471e-27)
(5.52031e-06 -1.10216e-06 -4.11487e-28)
(5.48453e-06 -1.51768e-06 -8.51273e-27)
(5.62567e-06 -1.13742e-06 -2.52659e-27)
(5.58785e-06 -1.55345e-06 6.24335e-27)
(5.73021e-06 -1.17295e-06 -2.54689e-27)
(5.69044e-06 -1.58958e-06 -2.81224e-27)
(5.83388e-06 -1.20871e-06 2.74435e-27)
(5.79226e-06 -1.62602e-06 -2.61369e-27)
(5.93663e-06 -1.24467e-06 7.15515e-29)
(5.89326e-06 -1.66272e-06 2.20984e-27)
(6.03841e-06 -1.28081e-06 4.24397e-29)
(5.99343e-06 -1.69962e-06 -2.37358e-27)
(6.13918e-06 -1.3171e-06 -1.86097e-28)
(6.09272e-06 -1.73666e-06 1.70321e-27)
(6.23893e-06 -1.35351e-06 1.1348e-27)
(6.19112e-06 -1.77377e-06 -3.77926e-28)
(6.33762e-06 -1.39003e-06 -1.25039e-27)
(6.28859e-06 -1.81087e-06 3.24183e-27)
(6.43525e-06 -1.42664e-06 -1.53535e-30)
(6.385e-06 -1.84788e-06 -1.09966e-27)
(6.53169e-06 -1.46335e-06 -1.2563e-27)
(6.48012e-06 -1.88508e-06 1.48554e-29)
(6.62673e-06 -1.4998e-06 1.33865e-27)
(6.57279e-06 -1.92317e-06 -3.88271e-28)
(6.64085e-06 -1.89614e-06 -1.69738e-27)
(6.68063e-06 -1.79681e-06 1.07561e-27)
(6.71725e-06 -1.69827e-06 -5.14777e-29)
(6.75072e-06 -1.59892e-06 -7.69832e-28)
(6.71927e-06 -1.53522e-06 -8.1064e-29)
)
;
    }
    frontAndBackPlanes
    {
        type            empty;
    }
}


// ************************************************************************* //
