/*--------------------------------*- C++ -*----------------------------------*\
| =========                 |                                                 |
| \\      /  F ield         | OpenFOAM Extend Project: Open source CFD        |
|  \\    /   O peration     | Version:  1.6-ext                               |
|   \\  /    A nd           | Web:      www.extend-project.de                 |
|    \\/     M anipulation  |                                                 |
\*---------------------------------------------------------------------------*/
FoamFile
{
    version     2.0;
    format      ascii;
    class       volVectorField;
    location    "0.1";
    object      DU_0;
}
// * * * * * * * * * * * * * * * * * * * * * * * * * * * * * * * * * * * * * //

dimensions      [0 1 0 0 0 0 0];

internalField   nonuniform List<vector> 
328
(
(9.27425e-09 -3.72936e-08 0)
(1.57705e-08 -7.65608e-09 0)
(1.58622e-08 7.80943e-09 0)
(9.69682e-09 3.68189e-08 0)
(2.89563e-08 -9.58125e-08 0)
(4.54833e-08 -2.25096e-08 0)
(4.58029e-08 2.27239e-08 0)
(3.02683e-08 9.45575e-08 0)
(4.66164e-08 -1.3952e-07 0)
(6.95449e-08 -3.6706e-08 0)
(7.01912e-08 3.67198e-08 0)
(4.8967e-08 1.37542e-07 0)
(6.47183e-08 -1.70777e-07 0)
(9.14592e-08 -4.91206e-08 0)
(9.24797e-08 4.86603e-08 0)
(6.82052e-08 1.68028e-07 0)
(8.29455e-08 -1.92678e-07 0)
(1.10917e-07 -5.93441e-08 0)
(1.12362e-07 5.8119e-08 0)
(8.76743e-08 1.89009e-07 0)
(1.01895e-07 -2.07615e-07 0)
(1.2931e-07 -6.72653e-08 0)
(1.31215e-07 6.49488e-08 0)
(1.07961e-07 2.02785e-07 0)
(1.21631e-07 -2.17559e-07 0)
(1.47148e-07 -7.31132e-08 0)
(1.49546e-07 6.93317e-08 0)
(1.29131e-07 2.11242e-07 0)
(1.42341e-07 -2.2399e-07 0)
(1.65225e-07 -7.72547e-08 0)
(1.68148e-07 7.15748e-08 0)
(1.51371e-07 2.15779e-07 0)
(1.64121e-07 -2.28066e-07 0)
(1.84075e-07 -8.01478e-08 0)
(1.87554e-07 7.20642e-08 0)
(1.7478e-07 2.1747e-07 0)
(1.87105e-07 -2.30664e-07 0)
(2.04214e-07 -8.22478e-08 0)
(2.0828e-07 7.11709e-08 0)
(1.99497e-07 2.171e-07 0)
(2.11438e-07 -2.32454e-07 0)
(2.26037e-07 -8.39739e-08 0)
(2.30724e-07 6.92167e-08 0)
(2.25667e-07 2.15241e-07 0)
(2.37297e-07 -2.33937e-07 0)
(2.49879e-07 -8.56787e-08 0)
(2.55221e-07 6.64421e-08 0)
(2.53475e-07 2.12277e-07 0)
(2.64892e-07 -2.35483e-07 0)
(2.76006e-07 -8.76449e-08 0)
(2.82039e-07 6.30014e-08 0)
(2.8313e-07 2.08453e-07 0)
(2.94459e-07 -2.37364e-07 0)
(3.04645e-07 -9.00891e-08 0)
(3.11406e-07 5.8965e-08 0)
(3.14873e-07 2.03894e-07 0)
(3.26258e-07 -2.39782e-07 0)
(3.35998e-07 -9.31771e-08 0)
(3.43525e-07 5.43315e-08 0)
(3.48965e-07 1.98633e-07 0)
(3.60566e-07 -2.42892e-07 0)
(3.70264e-07 -9.70405e-08 0)
(3.78597e-07 4.90426e-08 0)
(3.85687e-07 1.92638e-07 0)
(3.97678e-07 -2.46827e-07 0)
(4.0765e-07 -1.01795e-07 0)
(4.16827e-07 4.29976e-08 0)
(4.25331e-07 1.85827e-07 0)
(4.37901e-07 -2.51716e-07 0)
(4.48385e-07 -1.07552e-07 0)
(4.58445e-07 3.60656e-08 0)
(4.68204e-07 1.78083e-07 0)
(4.81554e-07 -2.57691e-07 0)
(4.92723e-07 -1.14436e-07 0)
(5.03703e-07 2.80943e-08 0)
(5.14623e-07 1.69266e-07 0)
(5.28977e-07 -2.64898e-07 0)
(5.40952e-07 -1.22583e-07 0)
(5.52889e-07 1.89146e-08 0)
(5.6492e-07 1.59216e-07 0)
(5.80528e-07 -2.73494e-07 0)
(5.93397e-07 -1.32151e-07 0)
(6.06322e-07 8.34292e-09 0)
(6.19442e-07 1.47753e-07 0)
(6.36601e-07 -2.83654e-07 0)
(6.50422e-07 -1.43311e-07 0)
(6.64362e-07 -3.81827e-09 0)
(6.78565e-07 1.34679e-07 0)
(6.99938e-07 -2.96017e-07 0)
(7.14794e-07 -1.56751e-07 0)
(7.29808e-07 -1.83099e-08 0)
(7.45129e-07 1.19216e-07 0)
(7.68844e-07 -3.10417e-07 0)
(7.84757e-07 -1.72292e-07 0)
(8.00848e-07 -3.49502e-08 0)
(8.17271e-07 1.0155e-07 0)
(8.38871e-07 -3.25901e-07 0)
(8.55772e-07 -1.88907e-07 0)
(8.72864e-07 -5.26421e-08 0)
(8.90303e-07 8.28485e-08 0)
(9.10017e-07 -3.42364e-07 0)
(9.27833e-07 -2.065e-07 0)
(9.45846e-07 -7.13082e-08 0)
(9.64216e-07 6.31755e-08 0)
(9.82295e-07 -3.59709e-07 0)
(1.00095e-06 -2.24979e-07 0)
(1.0198e-06 -9.08619e-08 0)
(1.03902e-06 4.26121e-08 0)
(1.05571e-06 -3.77841e-07 0)
(1.07512e-06 -2.44251e-07 0)
(1.09473e-06 -1.11215e-07 0)
(1.11471e-06 2.12418e-08 0)
(1.13027e-06 -3.9667e-07 0)
(1.15036e-06 -2.64226e-07 0)
(1.17066e-06 -1.32279e-07 0)
(1.19132e-06 -8.49538e-10 0)
(1.20598e-06 -4.1611e-07 0)
(1.22667e-06 -2.84818e-07 0)
(1.24758e-06 -1.53968e-07 0)
(1.26885e-06 -2.35772e-08 0)
(1.28283e-06 -4.36083e-07 0)
(1.30406e-06 -3.05946e-07 0)
(1.32551e-06 -1.76201e-07 0)
(1.34731e-06 -4.68603e-08 0)
(1.36084e-06 -4.56516e-07 0)
(1.38254e-06 -3.27537e-07 0)
(1.40446e-06 -1.98903e-07 0)
(1.42672e-06 -7.0624e-08 0)
(1.43998e-06 -4.77348e-07 0)
(1.46209e-06 -3.49527e-07 0)
(1.48443e-06 -2.22009e-07 0)
(1.5071e-06 -9.48004e-08 0)
(1.52026e-06 -4.98524e-07 0)
(1.54273e-06 -3.71859e-07 0)
(1.56544e-06 -2.4546e-07 0)
(1.58845e-06 -1.1933e-07 0)
(1.60165e-06 -5.2e-07 0)
(1.62445e-06 -3.94485e-07 0)
(1.64747e-06 -2.69206e-07 0)
(1.67079e-06 -1.4416e-07 0)
(1.68416e-06 -5.41736e-07 0)
(1.70724e-06 -4.17367e-07 0)
(1.73053e-06 -2.93206e-07 0)
(1.75411e-06 -1.69248e-07 0)
(1.76775e-06 -5.63704e-07 0)
(1.79108e-06 -4.40472e-07 0)
(1.81462e-06 -3.17425e-07 0)
(1.83842e-06 -1.94555e-07 0)
(1.85241e-06 -5.85879e-07 0)
(1.87596e-06 -4.63774e-07 0)
(1.89972e-06 -3.41835e-07 0)
(1.92372e-06 -2.2005e-07 0)
(1.93811e-06 -6.08243e-07 0)
(1.96187e-06 -4.87251e-07 0)
(1.98582e-06 -3.66412e-07 0)
(2.01e-06 -2.45709e-07 0)
(2.02484e-06 -6.30781e-07 0)
(2.04879e-06 -5.10889e-07 0)
(2.07292e-06 -3.91139e-07 0)
(2.09724e-06 -2.71509e-07 0)
(2.11257e-06 -6.53481e-07 0)
(2.1367e-06 -5.34674e-07 0)
(2.16098e-06 -4.15999e-07 0)
(2.18544e-06 -2.97433e-07 0)
(2.20127e-06 -6.76337e-07 0)
(2.22556e-06 -5.58596e-07 0)
(2.24999e-06 -4.40981e-07 0)
(2.27458e-06 -3.23467e-07 0)
(2.2909e-06 -6.99342e-07 0)
(2.31535e-06 -5.82647e-07 0)
(2.33993e-06 -4.66076e-07 0)
(2.36463e-06 -3.49598e-07 0)
(2.38144e-06 -7.22493e-07 0)
(2.40605e-06 -6.06823e-07 0)
(2.43076e-06 -4.91276e-07 0)
(2.45557e-06 -3.75819e-07 0)
(2.47284e-06 -7.45791e-07 0)
(2.49761e-06 -6.31122e-07 0)
(2.52246e-06 -5.16579e-07 0)
(2.54737e-06 -4.02125e-07 0)
(2.56507e-06 -7.69238e-07 0)
(2.59e-06 -6.55545e-07 0)
(2.61499e-06 -5.41983e-07 0)
(2.64001e-06 -4.28512e-07 0)
(2.65808e-06 -7.92842e-07 0)
(2.68319e-06 -6.80098e-07 0)
(2.70832e-06 -5.67493e-07 0)
(2.73346e-06 -4.54984e-07 0)
(2.75184e-06 -8.16612e-07 0)
(2.77713e-06 -7.04789e-07 0)
(2.80242e-06 -5.93115e-07 0)
(2.82768e-06 -4.81546e-07 0)
(2.84629e-06 -8.40562e-07 0)
(2.87178e-06 -7.29631e-07 0)
(2.89724e-06 -6.18861e-07 0)
(2.92264e-06 -5.08208e-07 0)
(2.9414e-06 -8.64712e-07 0)
(2.9671e-06 -7.54641e-07 0)
(2.99275e-06 -6.44749e-07 0)
(3.0183e-06 -5.34986e-07 0)
(3.0371e-06 -8.89083e-07 0)
(3.06304e-06 -7.79842e-07 0)
(3.0889e-06 -6.70797e-07 0)
(3.11462e-06 -5.61899e-07 0)
(3.13335e-06 -9.13703e-07 0)
(3.15956e-06 -8.05259e-07 0)
(3.18565e-06 -6.97032e-07 0)
(3.21157e-06 -5.8897e-07 0)
(3.2301e-06 -9.38601e-07 0)
(3.2566e-06 -8.30923e-07 0)
(3.28295e-06 -7.23483e-07 0)
(3.30909e-06 -6.16228e-07 0)
(3.32731e-06 -9.63811e-07 0)
(3.35413e-06 -8.56865e-07 0)
(3.38077e-06 -7.50181e-07 0)
(3.40716e-06 -6.43704e-07 0)
(3.42491e-06 -9.89368e-07 0)
(3.45208e-06 -8.83122e-07 0)
(3.47904e-06 -7.77161e-07 0)
(3.50571e-06 -6.71429e-07 0)
(3.52286e-06 -1.01531e-06 0)
(3.55042e-06 -9.0973e-07 0)
(3.57772e-06 -8.0446e-07 0)
(3.60471e-06 -6.99441e-07 0)
(3.62111e-06 -1.04167e-06 0)
(3.64908e-06 -9.36727e-07 0)
(3.67677e-06 -8.32114e-07 0)
(3.7041e-06 -7.27775e-07 0)
(3.71962e-06 -1.06849e-06 0)
(3.74803e-06 -9.64148e-07 0)
(3.77612e-06 -8.6016e-07 0)
(3.80382e-06 -7.56464e-07 0)
(3.81833e-06 -1.09579e-06 0)
(3.84722e-06 -9.92028e-07 0)
(3.87574e-06 -8.8863e-07 0)
(3.90383e-06 -7.85543e-07 0)
(3.91721e-06 -1.12362e-06 0)
(3.94658e-06 -1.0204e-06 0)
(3.97555e-06 -9.17556e-07 0)
(4.00407e-06 -8.15041e-07 0)
(4.0162e-06 -1.15198e-06 0)
(4.04609e-06 -1.04928e-06 0)
(4.07552e-06 -9.46963e-07 0)
(4.10447e-06 -8.44981e-07 0)
(4.11528e-06 -1.18091e-06 0)
(4.14568e-06 -1.07869e-06 0)
(4.17559e-06 -9.76867e-07 0)
(4.20499e-06 -8.75382e-07 0)
(4.21439e-06 -1.2104e-06 0)
(4.24531e-06 -1.10864e-06 0)
(4.2757e-06 -1.00728e-06 0)
(4.30555e-06 -9.06253e-07 0)
(4.31351e-06 -1.24047e-06 0)
(4.34494e-06 -1.13914e-06 0)
(4.37581e-06 -1.0382e-06 0)
(4.4061e-06 -9.37597e-07 0)
(4.41258e-06 -1.27109e-06 0)
(4.44452e-06 -1.17017e-06 0)
(4.47585e-06 -1.06962e-06 0)
(4.50658e-06 -9.69405e-07 0)
(4.51158e-06 -1.30225e-06 0)
(4.54401e-06 -1.20171e-06 0)
(4.57579e-06 -1.10153e-06 0)
(4.60694e-06 -1.00166e-06 0)
(4.61047e-06 -1.33392e-06 0)
(4.64336e-06 -1.23374e-06 0)
(4.67556e-06 -1.13389e-06 0)
(4.70712e-06 -1.03435e-06 0)
(4.70921e-06 -1.36607e-06 0)
(4.74253e-06 -1.26622e-06 0)
(4.77514e-06 -1.16669e-06 0)
(4.80707e-06 -1.06743e-06 0)
(4.80776e-06 -1.39867e-06 0)
(4.84149e-06 -1.29913e-06 0)
(4.87446e-06 -1.19988e-06 0)
(4.90674e-06 -1.10088e-06 0)
(4.90609e-06 -1.43168e-06 0)
(4.94018e-06 -1.33242e-06 0)
(4.9735e-06 -1.23342e-06 0)
(5.00609e-06 -1.13466e-06 0)
(5.00416e-06 -1.46505e-06 0)
(5.03858e-06 -1.36605e-06 0)
(5.0722e-06 -1.26729e-06 0)
(5.10507e-06 -1.16873e-06 0)
(5.10193e-06 -1.49873e-06 0)
(5.13665e-06 -1.39998e-06 0)
(5.17054e-06 -1.30143e-06 0)
(5.20367e-06 -1.20307e-06 0)
(5.19938e-06 -1.5327e-06 0)
(5.23435e-06 -1.43417e-06 0)
(5.26849e-06 -1.33583e-06 0)
(5.30183e-06 -1.23764e-06 0)
(5.29648e-06 -1.56691e-06 0)
(5.33167e-06 -1.46859e-06 0)
(5.36601e-06 -1.37043e-06 0)
(5.39954e-06 -1.2724e-06 0)
(5.39319e-06 -1.60131e-06 0)
(5.42857e-06 -1.5032e-06 0)
(5.46308e-06 -1.40522e-06 0)
(5.49677e-06 -1.30734e-06 0)
(5.48951e-06 -1.63586e-06 0)
(5.52505e-06 -1.53795e-06 0)
(5.5597e-06 -1.44015e-06 0)
(5.59351e-06 -1.34242e-06 0)
(5.58541e-06 -1.67051e-06 0)
(5.62108e-06 -1.5728e-06 0)
(5.65584e-06 -1.4752e-06 0)
(5.68974e-06 -1.37764e-06 0)
(5.68088e-06 -1.7052e-06 0)
(5.71668e-06 -1.60771e-06 0)
(5.75153e-06 -1.51036e-06 0)
(5.78544e-06 -1.41297e-06 0)
(5.7759e-06 -1.73987e-06 0)
(5.8119e-06 -1.64262e-06 0)
(5.8468e-06 -1.5456e-06 0)
(5.88063e-06 -1.44842e-06 0)
(5.87045e-06 -1.77446e-06 0)
(5.90675e-06 -1.67751e-06 0)
(5.94169e-06 -1.58091e-06 0)
(5.97527e-06 -1.484e-06 0)
(5.96457e-06 -1.80923e-06 0)
(6.00143e-06 -1.71248e-06 0)
(6.03638e-06 -1.61611e-06 0)
(6.06943e-06 -1.51937e-06 0)
(6.05789e-06 -1.84516e-06 0)
(6.09543e-06 -1.74786e-06 0)
(6.13038e-06 -1.65084e-06 0)
(6.16274e-06 -1.55351e-06 0)
)
;

boundaryField
{
    plateFix
    {
        type            fixedDisplacement;
        value           uniform (0 0 0);
    }
    plate
    {
        type            solidTraction;
        nonLinear       updatedLagrangian;
        traction        uniform (0 0 0);
        pressure        uniform 0;
        value           nonuniform List<vector> 
168
(
(-1.54218e-07 -1.00055e-07 -9.03914e-26)
(-1.51672e-07 9.82077e-08 4.40093e-26)
(-9.07451e-08 -1.60942e-07 -1.07902e-25)
(-8.76746e-08 1.58227e-07 -5.08628e-26)
(-3.53731e-08 -2.07875e-07 5.75453e-27)
(-3.14013e-08 2.0435e-07 1.03956e-25)
(1.03389e-08 -2.40529e-07 2.42832e-25)
(1.55298e-08 2.36199e-07 1.47859e-25)
(4.75783e-08 -2.63598e-07 -1.36463e-25)
(5.42611e-08 2.58327e-07 -2.3468e-25)
(7.9333e-08 -2.79251e-07 -1.65901e-27)
(8.77162e-08 2.72813e-07 -8.94122e-26)
(1.07428e-07 -2.89776e-07 -1.16501e-25)
(1.17688e-07 2.81853e-07 1.15709e-25)
(1.33418e-07 -2.96653e-07 1.09032e-25)
(1.45708e-07 2.86844e-07 -1.49557e-25)
(1.58351e-07 -3.01091e-07 1.02799e-25)
(1.72816e-07 2.88908e-07 7.2692e-26)
(1.83057e-07 -3.03958e-07 -8.99383e-26)
(1.99837e-07 2.88822e-07 2.99057e-26)
(2.08169e-07 -3.05921e-07 -6.22331e-26)
(2.27408e-07 2.87152e-07 1.72997e-28)
(2.34218e-07 -3.07474e-07 5.17873e-26)
(2.5606e-07 2.84278e-07 5.28481e-26)
(2.61653e-07 -3.08987e-07 1.91641e-27)
(2.86248e-07 2.80443e-07 -4.73203e-26)
(2.90874e-07 -3.10737e-07 -6.84263e-28)
(3.18374e-07 2.75776e-07 1.65067e-28)
(3.22241e-07 -3.12935e-07 -3.9522e-26)
(3.52805e-07 2.70322e-07 3.45346e-26)
(3.56091e-07 -3.15751e-07 3.57102e-26)
(3.89878e-07 2.64062e-07 -5.38046e-26)
(3.92744e-07 -3.19333e-07 5.6889e-28)
(4.29914e-07 2.5693e-07 6.33104e-27)
(4.32513e-07 -3.23823e-07 -2.144e-27)
(4.73227e-07 2.48823e-07 5.27752e-26)
(4.75717e-07 -3.29365e-07 9.45521e-28)
(5.20129e-07 2.39613e-07 -4.62341e-26)
(5.22686e-07 -3.36114e-07 -3.31216e-28)
(5.70944e-07 2.29149e-07 -8.00489e-28)
(5.73773e-07 -3.44232e-07 8.53342e-26)
(6.26008e-07 2.17257e-07 -3.4582e-26)
(6.29372e-07 -3.53894e-07 -7.49984e-26)
(6.85693e-07 2.03743e-07 7.49004e-26)
(6.92193e-07 -3.65726e-07 3.80338e-26)
(7.52834e-07 1.87815e-07 -3.59567e-26)
(7.60562e-07 -3.79551e-07 -1.17916e-26)
(8.25537e-07 1.69648e-07 6.25874e-26)
(8.30092e-07 -3.94466e-07 -2.47086e-26)
(8.99088e-07 1.50455e-07 -3.63394e-26)
(9.0078e-07 -4.10357e-07 -1.87959e-27)
(9.73472e-07 1.3029e-07 1.77859e-27)
(9.72642e-07 -4.27129e-07 -9.3889e-27)
(1.0487e-06 1.09234e-07 -6.14643e-26)
(1.04568e-06 -4.44684e-07 1.41158e-26)
(1.12477e-06 8.73653e-08 2.63239e-26)
(1.11991e-06 -4.62933e-07 -2.54706e-26)
(1.20171e-06 6.47706e-08 1.05581e-26)
(1.19532e-06 -4.8179e-07 6.53404e-29)
(1.27952e-06 4.15332e-08 6.06021e-28)
(1.27192e-06 -5.01179e-07 5.084e-27)
(1.35824e-06 1.77339e-08 1.24592e-27)
(1.3497e-06 -5.21028e-07 2.65405e-26)
(1.43786e-06 -6.55219e-09 1.2319e-27)
(1.42865e-06 -5.41276e-07 -4.19389e-27)
(1.51842e-06 -3.12567e-08 -1.08424e-26)
(1.50876e-06 -5.61871e-07 -1.17659e-26)
(1.59993e-06 -5.63189e-08 2.83096e-26)
(1.59001e-06 -5.82767e-07 1.02594e-26)
(1.68239e-06 -8.16859e-08 -1.68577e-26)
(1.67238e-06 -6.03929e-07 9.69049e-27)
(1.76583e-06 -1.07312e-07 -3.05513e-26)
(1.75586e-06 -6.25326e-07 -2.69187e-26)
(1.85023e-06 -1.33159e-07 5.80702e-26)
(1.84041e-06 -6.46937e-07 2.90895e-26)
(1.93561e-06 -1.59194e-07 -5.74128e-26)
(1.92602e-06 -6.68743e-07 -2.10917e-26)
(2.02196e-06 -1.85389e-07 3.42575e-28)
(2.01266e-06 -6.9073e-07 5.354e-27)
(2.10926e-06 -2.11723e-07 4.04728e-26)
(2.1003e-06 -7.12888e-07 1.70009e-26)
(2.19751e-06 -2.38177e-07 -1.15258e-26)
(2.18892e-06 -7.3521e-07 4.39927e-28)
(2.28669e-06 -2.64734e-07 -7.36841e-28)
(2.27847e-06 -7.57693e-07 -1.02986e-27)
(2.37678e-06 -2.91382e-07 2.16846e-29)
(2.36893e-06 -7.80332e-07 -3.28799e-26)
(2.46776e-06 -3.18112e-07 5.21068e-29)
(2.46026e-06 -8.03131e-07 1.67741e-26)
(2.5596e-06 -3.44918e-07 -1.65939e-26)
(2.55241e-06 -8.26091e-07 1.10997e-26)
(2.65228e-06 -3.71797e-07 3.44925e-26)
(2.64534e-06 -8.49222e-07 -3.09737e-28)
(2.74577e-06 -3.98749e-07 -1.67578e-26)
(2.739e-06 -8.72533e-07 5.02167e-27)
(2.84003e-06 -4.25781e-07 -9.65952e-29)
(2.83336e-06 -8.9604e-07 -1.61221e-26)
(2.93504e-06 -4.52903e-07 7.30229e-28)
(2.92835e-06 -9.19762e-07 1.67547e-26)
(3.03076e-06 -4.80127e-07 -2.7982e-26)
(3.02393e-06 -9.43722e-07 -2.89276e-26)
(3.12715e-06 -5.07474e-07 2.80152e-26)
(3.12005e-06 -9.67946e-07 2.79574e-26)
(3.22418e-06 -5.34966e-07 3.15631e-28)
(3.21665e-06 -9.92466e-07 -6.65172e-29)
(3.3218e-06 -5.6263e-07 -4.51442e-28)
(3.31369e-06 -1.01731e-06 -5.45786e-27)
(3.41998e-06 -5.90497e-07 -5.07588e-27)
(3.4111e-06 -1.04252e-06 -1.12948e-26)
(3.51867e-06 -6.18599e-07 -1.15695e-26)
(3.50885e-06 -1.06813e-06 -1.75428e-28)
(3.61781e-06 -6.4697e-07 1.68609e-26)
(3.60688e-06 -1.09418e-06 -5.27464e-27)
(3.71737e-06 -6.75646e-07 5.52191e-27)
(3.70515e-06 -1.1207e-06 5.62487e-27)
(3.81727e-06 -7.04661e-07 -1.35703e-26)
(3.80361e-06 -1.14772e-06 7.34738e-30)
(3.91748e-06 -7.34046e-07 1.33745e-26)
(3.90222e-06 -1.17528e-06 7.7191e-27)
(4.01793e-06 -7.63832e-07 3.50122e-29)
(4.00094e-06 -1.20339e-06 -7.81845e-27)
(4.11856e-06 -7.94041e-07 -1.08438e-26)
(4.09973e-06 -1.23207e-06 4.72793e-29)
(4.2193e-06 -8.24691e-07 -5.62652e-29)
(4.19856e-06 -1.26133e-06 -3.91771e-29)
(4.32009e-06 -8.55792e-07 5.4371e-27)
(4.29739e-06 -1.29118e-06 5.33733e-27)
(4.42088e-06 -8.87346e-07 -2.62455e-29)
(4.39619e-06 -1.32159e-06 -5.3701e-27)
(4.52158e-06 -9.19346e-07 4.21511e-29)
(4.49492e-06 -1.35256e-06 -7.45614e-30)
(4.62216e-06 -9.51778e-07 -1.30965e-26)
(4.59356e-06 -1.38405e-06 5.30911e-27)
(4.72254e-06 -9.84619e-07 -1.6864e-28)
(4.69206e-06 -1.41604e-06 -5.41069e-27)
(4.82268e-06 -1.01784e-06 1.08013e-26)
(4.7904e-06 -1.44848e-06 -2.72944e-27)
(4.92252e-06 -1.05142e-06 -2.68427e-27)
(4.88853e-06 -1.48134e-06 1.92326e-28)
(5.02202e-06 -1.08531e-06 5.05847e-27)
(4.98643e-06 -1.51457e-06 8.92018e-27)
(5.12114e-06 -1.11949e-06 -3.75197e-27)
(5.08405e-06 -1.54813e-06 -1.2949e-26)
(5.21986e-06 -1.15392e-06 6.46862e-27)
(5.18137e-06 -1.58198e-06 6.31596e-27)
(5.31812e-06 -1.18857e-06 -2.76016e-27)
(5.27835e-06 -1.61608e-06 -1.68918e-27)
(5.41592e-06 -1.22342e-06 -3.83286e-27)
(5.37498e-06 -1.65037e-06 1.6138e-27)
(5.51323e-06 -1.25843e-06 3.85683e-27)
(5.47122e-06 -1.68482e-06 6.03389e-28)
(5.61002e-06 -1.29358e-06 2.03896e-27)
(5.56708e-06 -1.71937e-06 1.74978e-27)
(5.7063e-06 -1.32887e-06 -1.86966e-27)
(5.66253e-06 -1.75396e-06 -1.11956e-27)
(5.80205e-06 -1.36428e-06 1.8773e-27)
(5.75756e-06 -1.78852e-06 -2.1361e-27)
(5.89727e-06 -1.39981e-06 -3.43345e-27)
(5.85204e-06 -1.82299e-06 3.78382e-28)
(5.99185e-06 -1.43548e-06 1.5963e-27)
(5.94574e-06 -1.85768e-06 2.4189e-28)
(6.08555e-06 -1.47092e-06 -5.0654e-28)
(6.03757e-06 -1.89346e-06 1.07364e-29)
(6.10436e-06 -1.86539e-06 4.08748e-29)
(6.14196e-06 -1.76609e-06 -1.41475e-27)
(6.17689e-06 -1.66761e-06 7.02533e-28)
(6.2092e-06 -1.56827e-06 -2.21373e-28)
(6.17732e-06 -1.50521e-06 4.55815e-28)
)
;
    }
    frontAndBackPlanes
    {
        type            empty;
    }
}


// ************************************************************************* //
