/*--------------------------------*- C++ -*----------------------------------*\
| =========                 |                                                 |
| \\      /  F ield         | OpenFOAM Extend Project: Open source CFD        |
|  \\    /   O peration     | Version:  1.6-ext                               |
|   \\  /    A nd           | Web:      www.extend-project.de                 |
|    \\/     M anipulation  |                                                 |
\*---------------------------------------------------------------------------*/
FoamFile
{
    version     2.0;
    format      ascii;
    class       volVectorField;
    location    "0.1";
    object      DV;
}
// * * * * * * * * * * * * * * * * * * * * * * * * * * * * * * * * * * * * * //

dimensions      [0 1 -1 0 0 0 0];

internalField   nonuniform List<vector> 
328
(
(6.57198e-07 8.18444e-08 0)
(6.11713e-07 1.20902e-08 0)
(6.0733e-07 -4.02462e-08 0)
(6.42945e-07 -1.05017e-07 0)
(2.06478e-06 5.88275e-07 0)
(1.89612e-06 1.34399e-07 0)
(1.88229e-06 -2.01009e-07 0)
(2.01731e-06 -6.37635e-07 0)
(3.70583e-06 1.33833e-06 0)
(3.36449e-06 3.3016e-07 0)
(3.33886e-06 -4.14907e-07 0)
(3.61619e-06 -1.3893e-06 0)
(5.52119e-06 2.13528e-06 0)
(5.0359e-06 5.77226e-07 0)
(4.99618e-06 -6.57133e-07 0)
(5.38335e-06 -2.16555e-06 0)
(7.53943e-06 2.8991e-06 0)
(6.93739e-06 8.49176e-07 0)
(6.88114e-06 -8.99387e-07 0)
(7.34703e-06 -2.88669e-06 0)
(9.75772e-06 3.59143e-06 0)
(9.07971e-06 1.12552e-06 0)
(9.00485e-06 -1.11945e-06 0)
(9.5057e-06 -3.51353e-06 0)
(1.21878e-05 4.19893e-06 0)
(1.14724e-05 1.39102e-06 0)
(1.13772e-05 -1.3007e-06 0)
(1.18719e-05 -4.03114e-06 0)
(1.48375e-05 4.72204e-06 0)
(1.41199e-05 1.6372e-06 0)
(1.40028e-05 -1.43363e-06 0)
(1.44546e-05 -4.4383e-06 0)
(1.77178e-05 5.16939e-06 0)
(1.70255e-05 1.86132e-06 0)
(1.68856e-05 -1.51485e-06 0)
(1.72659e-05 -4.74234e-06 0)
(2.08405e-05 5.55356e-06 0)
(2.01922e-05 2.06517e-06 0)
(2.00288e-05 -1.54593e-06 0)
(2.03185e-05 -4.95502e-06 0)
(2.42186e-05 5.88853e-06 0)
(2.36239e-05 2.25338e-06 0)
(2.34365e-05 -1.53172e-06 0)
(2.36261e-05 -5.08998e-06 0)
(2.78659e-05 6.18798e-06 0)
(2.73267e-05 2.43202e-06 0)
(2.7115e-05 -1.47864e-06 0)
(2.72031e-05 -5.16076e-06 0)
(3.17969e-05 6.46441e-06 0)
(3.1309e-05 2.60748e-06 0)
(3.10729e-05 -1.3933e-06 0)
(3.10642e-05 -5.17957e-06 0)
(3.60274e-05 6.72871e-06 0)
(3.55824e-05 2.78582e-06 0)
(3.53216e-05 -1.28123e-06 0)
(3.52246e-05 -5.15628e-06 0)
(4.05742e-05 6.9903e-06 0)
(4.0161e-05 2.9727e-06 0)
(3.98751e-05 -1.14607e-06 0)
(3.97002e-05 -5.09793e-06 0)
(4.54553e-05 7.25752e-06 0)
(4.50622e-05 3.17359e-06 0)
(4.47503e-05 -9.89007e-07 0)
(4.45075e-05 -5.00827e-06 0)
(5.06903e-05 7.53819e-06 0)
(5.03053e-05 3.39428e-06 0)
(4.99664e-05 -8.08432e-07 0)
(4.96643e-05 -4.88768e-06 0)
(5.63002e-05 7.84024e-06 0)
(5.59123e-05 3.6414e-06 0)
(5.55444e-05 -5.99891e-07 0)
(5.51898e-05 -4.73321e-06 0)
(6.23075e-05 8.17213e-06 0)
(6.19065e-05 3.92287e-06 0)
(6.15074e-05 -3.5623e-07 0)
(6.11047e-05 -4.53878e-06 0)
(6.87356e-05 8.54305e-06 0)
(6.83129e-05 4.24789e-06 0)
(6.78803e-05 -6.80644e-08 0)
(6.7432e-05 -4.29577e-06 0)
(7.56088e-05 8.96271e-06 0)
(7.51575e-05 4.62665e-06 0)
(7.46891e-05 2.75433e-07 0)
(7.41968e-05 -3.99385e-06 0)
(8.29519e-05 9.44129e-06 0)
(8.24674e-05 5.06962e-06 0)
(8.1962e-05 6.85211e-07 0)
(8.14271e-05 -3.62274e-06 0)
(9.10891e-05 1.00094e-05 0)
(9.05683e-05 5.60615e-06 0)
(9.00249e-05 1.18938e-06 0)
(8.94479e-05 -3.15673e-06 0)
(9.97482e-05 1.06598e-05 0)
(9.91936e-05 6.22891e-06 0)
(9.86154e-05 1.78127e-06 0)
(9.80006e-05 -2.60247e-06 0)
(0.000108355 1.13425e-05 0)
(0.000107774 6.8895e-06 0)
(0.000107169 2.41475e-06 0)
(0.000106525 -2.00344e-06 0)
(0.000116907 1.2046e-05 0)
(0.00011631 7.57493e-06 0)
(0.000115686 3.07629e-06 0)
(0.000115024 -1.37347e-06 0)
(0.000125408 1.27573e-05 0)
(0.000124803 8.27124e-06 0)
(0.000124171 3.7515e-06 0)
(0.000123499 -7.27034e-07 0)
(0.000133858 1.34643e-05 0)
(0.000133255 8.9651e-06 0)
(0.000132624 4.42654e-06 0)
(0.000131953 -7.80746e-08 0)
(0.000142261 1.4156e-05 0)
(0.000141669 9.64481e-06 0)
(0.000141046 5.08927e-06 0)
(0.000140384 5.61147e-07 0)
(0.000150621 1.48239e-05 0)
(0.000150046 1.0301e-05 0)
(0.000149439 5.72991e-06 0)
(0.000148794 1.18068e-06 0)
(0.000158942 1.54617e-05 0)
(0.00015839 1.0927e-05 0)
(0.000157803 6.3414e-06 0)
(0.000157181 1.77319e-06 0)
(0.000167229 1.60658e-05 0)
(0.000166704 1.15189e-05 0)
(0.000166141 6.91939e-06 0)
(0.000165545 2.33395e-06 0)
(0.000175486 1.66347e-05 0)
(0.000174989 1.2075e-05 0)
(0.000174454 7.46199e-06 0)
(0.000173887 2.86054e-06 0)
(0.000183717 1.71691e-05 0)
(0.00018325 1.25959e-05 0)
(0.000182744 7.96923e-06 0)
(0.000182207 3.35243e-06 0)
(0.000191927 1.76707e-05 0)
(0.000191489 1.30831e-05 0)
(0.000191012 8.44245e-06 0)
(0.000190506 3.81038e-06 0)
(0.000200119 1.81418e-05 0)
(0.000199709 1.35391e-05 0)
(0.000199262 8.88366e-06 0)
(0.000198788 4.23578e-06 0)
(0.000208295 1.85847e-05 0)
(0.000207914 1.3966e-05 0)
(0.000207497 9.29481e-06 0)
(0.000207055 4.6301e-06 0)
(0.000216458 1.90008e-05 0)
(0.000216106 1.43654e-05 0)
(0.000215721 9.67734e-06 0)
(0.000215311 4.99437e-06 0)
(0.000224612 1.93907e-05 0)
(0.00022429 1.47379e-05 0)
(0.000223936 1.00317e-05 0)
(0.00022356 5.32879e-06 0)
(0.000232757 1.97535e-05 0)
(0.000232467 1.50828e-05 0)
(0.000232148 1.0357e-05 0)
(0.000231807 5.63246e-06 0)
(0.000240895 2.00867e-05 0)
(0.00024064 1.53977e-05 0)
(0.000240358 1.06513e-05 0)
(0.000240056 5.90334e-06 0)
(0.000249028 2.03866e-05 0)
(0.000248812 1.5679e-05 0)
(0.000248571 1.0911e-05 0)
(0.00024831 6.1382e-06 0)
(0.000257156 2.06479e-05 0)
(0.000256984 1.59218e-05 0)
(0.000256788 1.11315e-05 0)
(0.000256574 6.33283e-06 0)
(0.000265281 2.08644e-05 0)
(0.000265158 1.612e-05 0)
(0.000265012 1.13072e-05 0)
(0.000264849 6.48219e-06 0)
(0.000273401 2.10288e-05 0)
(0.000273335 1.62669e-05 0)
(0.000273245 1.1432e-05 0)
(0.000273137 6.58068e-06 0)
(0.000281518 2.11334e-05 0)
(0.000281513 1.63552e-05 0)
(0.000281485 1.14991e-05 0)
(0.000281439 6.62242e-06 0)
(0.000289628 2.11702e-05 0)
(0.000289693 1.63774e-05 0)
(0.000289732 1.15018e-05 0)
(0.000289753 6.60143e-06 0)
(0.000297731 2.1131e-05 0)
(0.000297871 1.63259e-05 0)
(0.000297984 1.14332e-05 0)
(0.000298077 6.51187e-06 0)
(0.000305822 2.10076e-05 0)
(0.000306046 1.61934e-05 0)
(0.000306237 1.12869e-05 0)
(0.000306407 6.34814e-06 0)
(0.000313899 2.07922e-05 0)
(0.000314211 1.59727e-05 0)
(0.000314486 1.10566e-05 0)
(0.000314737 6.10503e-06 0)
(0.000321955 2.04774e-05 0)
(0.000322361 1.56572e-05 0)
(0.000322726 1.07364e-05 0)
(0.000323062 5.77781e-06 0)
(0.000329985 2.00564e-05 0)
(0.00033049 1.52406e-05 0)
(0.000330947 1.03213e-05 0)
(0.000331371 5.36237e-06 0)
(0.000337981 1.9523e-05 0)
(0.00033859 1.47176e-05 0)
(0.000339141 9.80676e-06 0)
(0.000339655 4.85547e-06 0)
(0.000345935 1.88724e-05 0)
(0.000346649 1.40843e-05 0)
(0.000347296 9.18972e-06 0)
(0.000347902 4.25498e-06 0)
(0.000353839 1.81015e-05 0)
(0.000354659 1.33381e-05 0)
(0.000355402 8.46855e-06 0)
(0.000356097 3.56034e-06 0)
(0.000361681 1.72093e-05 0)
(0.000362606 1.24787e-05 0)
(0.000363443 7.64376e-06 0)
(0.000364225 2.77294e-06 0)
(0.000369452 1.61972e-05 0)
(0.000370479 1.15084e-05 0)
(0.000371405 6.71839e-06 0)
(0.00037227 1.89661e-06 0)
(0.000377139 1.50698e-05 0)
(0.000378262 1.04324e-05 0)
(0.000379273 5.69838e-06 0)
(0.000380214 9.37843e-07 0)
(0.000384729 1.38344e-05 0)
(0.000385941 9.25905e-06 0)
(0.000387029 4.59262e-06 0)
(0.000388038 -9.41525e-08 0)
(0.000392207 1.25014e-05 0)
(0.0003935 7.99934e-06 0)
(0.000394656 3.4126e-06 0)
(0.000395724 -1.18776e-06 0)
(0.000399556 1.10827e-05 0)
(0.000400921 6.66627e-06 0)
(0.000402137 2.17172e-06 0)
(0.000403253 -2.32968e-06 0)
(0.000406759 9.59144e-06 0)
(0.000408187 5.27369e-06 0)
(0.000409454 8.84093e-07 0)
(0.000410609 -3.50604e-06 0)
(0.000413797 8.0402e-06 0)
(0.000415278 3.83483e-06 0)
(0.000416589 -4.36866e-07 0)
(0.000417775 -4.70377e-06 0)
(0.000420648 6.43962e-06 0)
(0.000422177 2.36082e-06 0)
(0.000423525 -1.77999e-06 0)
(0.000424734 -5.91201e-06 0)
(0.000427292 4.7972e-06 0)
(0.000428863 8.59328e-07 0)
(0.000430244 -3.13763e-06 0)
(0.000431471 -7.12334e-06 0)
(0.000433706 3.11647e-06 0)
(0.000435318 -6.66234e-07 0)
(0.000436728 -4.5065e-06 0)
(0.000437973 -8.33457e-06 0)
(0.00043987 1.39695e-06 0)
(0.000441522 -2.2168e-06 0)
(0.000442961 -5.88772e-06 0)
(0.000444223 -9.54673e-06 0)
(0.000445764 -3.65264e-07 0)
(0.000447457 -3.79693e-06 0)
(0.000448926 -7.28611e-06 0)
(0.000450207 -1.07644e-05 0)
(0.000451369 -2.17607e-06 0)
(0.000453106 -5.41337e-06 0)
(0.000454606 -8.70869e-06 0)
(0.000455907 -1.19944e-05 0)
(0.000456669 -4.0417e-06 0)
(0.000458451 -7.07321e-06 0)
(0.000459984 -1.01629e-05 0)
(0.000461309 -1.32437e-05 0)
(0.00046165 -5.96694e-06 0)
(0.000463477 -8.78203e-06 0)
(0.000465043 -1.16545e-05 0)
(0.000466392 -1.4518e-05 0)
(0.000466298 -7.95394e-06 0)
(0.00046817 -1.05426e-05 0)
(0.000469768 -1.31867e-05 0)
(0.000471141 -1.58203e-05 0)
(0.0004706 -1.00016e-05 0)
(0.000472514 -1.23541e-05 0)
(0.000474141 -1.47589e-05 0)
(0.000475535 -1.71502e-05 0)
(0.000474546 -1.21058e-05 0)
(0.000476497 -1.42127e-05 0)
(0.000478148 -1.63672e-05 0)
(0.000479559 -1.85037e-05 0)
(0.000478124 -1.42601e-05 0)
(0.000480106 -1.61115e-05 0)
(0.000481775 -1.80047e-05 0)
(0.000483195 -1.98741e-05 0)
(0.000481324 -1.64563e-05 0)
(0.000483328 -1.80416e-05 0)
(0.000485006 -1.96621e-05 0)
(0.000486427 -2.12518e-05 0)
(0.000484132 -1.86852e-05 0)
(0.000486151 -1.99917e-05 0)
(0.000487829 -2.13267e-05 0)
(0.00048924 -2.26233e-05 0)
(0.000486537 -2.09356e-05 0)
(0.00048856 -2.19473e-05 0)
(0.000490229 -2.29831e-05 0)
(0.000491619 -2.39722e-05 0)
(0.000488519 -2.31958e-05 0)
(0.000490542 -2.38908e-05 0)
(0.000492195 -2.46139e-05 0)
(0.000493551 -2.5279e-05 0)
(0.000490052 -2.54389e-05 0)
(0.000492078 -2.57953e-05 0)
(0.000493711 -2.62072e-05 0)
(0.000495017 -2.65365e-05 0)
(0.000491105 -2.76313e-05 0)
(0.000493179 -2.7638e-05 0)
(0.000494798 -2.77657e-05 0)
(0.00049601 -2.77703e-05 0)
(0.000491619 -2.96579e-05 0)
(0.000493836 -2.93907e-05 0)
(0.000495458 -2.93014e-05 0)
(0.000496497 -2.90614e-05 0)
)
;

boundaryField
{
    plateFix
    {
        type            calculated;
        value           uniform (0 0 0);
    }
    plate
    {
        type            calculated;
        value           nonuniform List<vector> 
168
(
(5.94539e-07 -3.44511e-07 4.0545e-22)
(6.88017e-07 3.10073e-07 -1.78186e-22)
(3.27768e-06 7.76718e-07 3.82869e-22)
(3.25947e-06 -8.13911e-07 2.09772e-22)
(5.20962e-06 1.86954e-06 8.09938e-23)
(5.09344e-06 -1.89457e-06 -5.56388e-22)
(6.9906e-06 2.89486e-06 -8.9511e-22)
(6.78122e-06 -2.89049e-06 -1.98957e-22)
(8.84142e-06 3.85269e-06 2.60205e-22)
(8.53947e-06 -3.79924e-06 5.12057e-22)
(1.08513e-05 4.70421e-06 1.55518e-22)
(1.04555e-05 -4.58134e-06 3.97276e-22)
(1.30783e-05 5.44784e-06 2.93003e-22)
(1.25871e-05 -5.23302e-06 -2.82789e-22)
(1.55501e-05 6.0867e-06 -1.43593e-22)
(1.49631e-05 -5.75549e-06 3.57765e-22)
(1.82846e-05 6.63405e-06 -4.32118e-22)
(1.76028e-05 -6.16031e-06 -2.49287e-22)
(2.12929e-05 7.1051e-06 3.2038e-22)
(2.05188e-05 -6.46149e-06 -1.15315e-22)
(2.45842e-05 7.51602e-06 1.1053e-22)
(2.37215e-05 -6.67447e-06 1.0276e-22)
(2.81674e-05 7.88212e-06 -1.3282e-22)
(2.72195e-05 -6.81403e-06 -2.13898e-22)
(3.20521e-05 8.21727e-06 -3.76905e-24)
(3.1022e-05 -6.8934e-06 1.59206e-22)
(3.62498e-05 8.53361e-06 7.2353e-25)
(3.51387e-05 -6.92337e-06 -3.68901e-23)
(4.07742e-05 8.84168e-06 1.46622e-22)
(3.95808e-05 -6.91184e-06 -8.94223e-23)
(4.56414e-05 9.15078e-06 -1.77581e-22)
(4.43608e-05 -6.86346e-06 1.60386e-22)
(5.08698e-05 9.4695e-06 5.34502e-23)
(4.94936e-05 -6.77945e-06 2.00252e-24)
(5.64799e-05 9.80627e-06 -2.9483e-23)
(5.4996e-05 -6.6576e-06 -2.811e-22)
(6.24936e-05 1.01698e-05 4.00622e-23)
(6.08876e-05 -6.49256e-06 2.43943e-22)
(6.89339e-05 1.05692e-05 1.08377e-24)
(6.71904e-05 -6.27625e-06 1.93018e-24)
(7.58238e-05 1.10137e-05 -2.21844e-22)
(7.39299e-05 -5.99874e-06 1.21873e-22)
(8.31874e-05 1.15135e-05 1.93843e-22)
(8.11349e-05 -5.65024e-06 -1.89124e-22)
(9.13473e-05 1.20998e-05 -9.65873e-23)
(8.91308e-05 -5.20645e-06 6.45714e-23)
(0.000100027 1.27662e-05 3.85101e-24)
(9.76608e-05 -4.6746e-06 -2.02221e-22)
(0.000108648 1.34615e-05 8.61626e-23)
(0.000106168 -4.09629e-06 1.35294e-22)
(0.00011721 1.41751e-05 -2.03426e-23)
(0.000114657 -3.48548e-06 -4.56241e-24)
(0.000125712 1.4895e-05 1.96841e-23)
(0.000123129 -2.85668e-06 1.78541e-22)
(0.000134157 1.56096e-05 1.03059e-23)
(0.000131585 -2.22382e-06 -9.04175e-23)
(0.000142551 1.63086e-05 7.03671e-23)
(0.000140025 -1.59918e-06 -2.3253e-23)
(0.000150897 1.69836e-05 -8.89049e-25)
(0.000148446 -9.92753e-07 1.81703e-23)
(0.000159203 1.76287e-05 -5.93122e-23)
(0.000156849 -4.12018e-07 -2.30752e-23)
(0.000167473 1.82404e-05 -3.39103e-23)
(0.00016523 1.38086e-07 -4.40949e-24)
(0.000175712 1.88175e-05 -2.2704e-23)
(0.00017359 6.54878e-07 4.88362e-23)
(0.000183927 1.93603e-05 7.35421e-23)
(0.000181927 1.13749e-06 -1.03314e-22)
(0.000192121 1.98708e-05 -4.78463e-23)
(0.000190244 1.58631e-06 5.08938e-23)
(0.000200297 2.03511e-05 -3.65251e-23)
(0.000198542 2.00242e-06 8.80395e-23)
(0.00020846 2.08034e-05 9.4674e-23)
(0.000206825 2.38698e-06 -1.60832e-22)
(0.00021661 2.12292e-05 -8.46894e-23)
(0.000215097 2.74079e-06 1.55408e-22)
(0.00022475 2.16289e-05 3.86362e-23)
(0.000223362 3.06391e-06 1.00389e-23)
(0.00023288 2.20015e-05 7.40795e-25)
(0.000231625 3.35538e-06 -1.26987e-22)
(0.000241003 2.23446e-05 -5.35792e-23)
(0.000239892 3.61319e-06 3.14976e-23)
(0.000249118 2.26542e-05 7.68172e-24)
(0.000248167 3.83426e-06 -9.61495e-24)
(0.000257226 2.29251e-05 -3.45061e-24)
(0.000256452 4.01457e-06 1.99488e-23)
(0.000265326 2.31507e-05 9.23909e-23)
(0.000264753 4.14938e-06 -8.5112e-24)
(0.000273419 2.33239e-05 -5.02975e-23)
(0.000273069 4.23342e-06 4.0948e-23)
(0.000281504 2.34365e-05 -2.08505e-23)
(0.000281401 4.26122e-06 -8.5164e-23)
(0.000289579 2.34803e-05 -7.82001e-24)
(0.000289749 4.22722e-06 4.19243e-23)
(0.000297641 2.34469e-05 -8.92747e-24)
(0.00029811 4.12604e-06 -1.34981e-23)
(0.000305689 2.33278e-05 4.89907e-23)
(0.000306479 3.95259e-06 9.20299e-24)
(0.000313718 2.31148e-05 -4.22845e-23)
(0.000314852 3.70217e-06 8.10026e-23)
(0.000321724 2.28001e-05 9.20156e-23)
(0.000323221 3.37059e-06 -9.14601e-23)
(0.000329699 2.23766e-05 -8.11871e-23)
(0.000331577 2.95432e-06 8.0445e-25)
(0.000337639 2.18378e-05 -8.71421e-24)
(0.000339908 2.45066e-06 2.95601e-23)
(0.000345534 2.11787e-05 -7.38386e-24)
(0.000348203 1.85806e-06 -8.96665e-24)
(0.000353378 2.03957e-05 5.9936e-23)
(0.000356446 1.17649e-06 3.13864e-23)
(0.000361161 1.94876e-05 -2.1061e-23)
(0.000364621 4.07827e-07 -4.20014e-23)
(0.000368874 1.84553e-05 1.89515e-23)
(0.00037271 -4.43727e-07 -1.14819e-23)
(0.000376506 1.73032e-05 -8.96927e-24)
(0.000380694 -1.37141e-06 3.12436e-23)
(0.000384045 1.60381e-05 4.29002e-25)
(0.000388553 -2.36586e-06 -2.95211e-23)
(0.000391477 1.46698e-05 -1.96885e-23)
(0.000396268 -3.4155e-06 -4.07165e-24)
(0.000398788 1.32098e-05 1.55423e-23)
(0.00040382 -4.50716e-06 2.33279e-23)
(0.000405958 1.16706e-05 4.05792e-24)
(0.000411191 -5.62722e-06 9.31796e-24)
(0.000412969 1.00645e-05 9.22077e-24)
(0.000418366 -6.76287e-06 -2.27315e-23)
(0.000419798 8.4017e-06 -3.19349e-23)
(0.00042533 -7.90349e-06 -1.84554e-25)
(0.000426423 6.68956e-06 1.7377e-23)
(0.00043207 -9.04186e-06 -5.12689e-24)
(0.000432818 4.93167e-06 9.02122e-24)
(0.000438573 -1.01748e-05 4.19885e-23)
(0.000438962 3.12782e-06 -2.1694e-23)
(0.000444826 -1.13032e-05 9.34517e-24)
(0.000444833 1.27455e-06 1.5086e-23)
(0.000450815 -1.24315e-05 -4.12236e-23)
(0.000450413 -6.335e-07 9.18285e-24)
(0.000456526 -1.35661e-05 1.34433e-23)
(0.000455684 -2.602e-06 7.27544e-24)
(0.000461939 -1.47137e-05 -1.08032e-23)
(0.000460635 -4.63526e-06 -3.53966e-23)
(0.000467038 -1.588e-05 6.24612e-25)
(0.000465251 -6.73506e-06 4.17756e-23)
(0.000471801 -1.70677e-05 -1.61845e-23)
(0.000469524 -8.90012e-06 -1.90969e-23)
(0.00047621 -1.82763e-05 1.24783e-23)
(0.000473443 -1.11263e-05 3.9033e-24)
(0.000480245 -1.9502e-05 6.95242e-24)
(0.000476997 -1.34074e-05 -4.38854e-24)
(0.000483888 -2.07381e-05 -9.79753e-24)
(0.000480177 -1.57357e-05 -1.49725e-24)
(0.000487122 -2.19747e-05 -2.72791e-24)
(0.000482971 -1.81032e-05 -7.7155e-24)
(0.00048993 -2.3198e-05 6.52471e-24)
(0.000485365 -2.05008e-05 5.04847e-24)
(0.000492295 -2.4391e-05 -6.45454e-24)
(0.000487346 -2.29213e-05 7.93877e-24)
(0.000494206 -2.55322e-05 9.92039e-24)
(0.000488894 -2.53403e-05 -1.46844e-24)
(0.000495659 -2.66138e-05 -6.62804e-24)
(0.000489985 -2.77351e-05 -1.61948e-24)
(0.000496664 -2.76654e-05 2.72283e-24)
(0.000490519 -2.98994e-05 1.25843e-24)
(0.00049168 -3.07342e-05 -2.45583e-24)
(0.000494054 -3.03115e-05 4.54209e-24)
(0.00049569 -3.00084e-05 -1.45249e-24)
(0.000496549 -2.96553e-05 -7.57827e-25)
(0.000497163 -2.88299e-05 -1.31167e-24)
)
;
    }
    frontAndBackPlanes
    {
        type            empty;
    }
}


// ************************************************************************* //
