/*--------------------------------*- C++ -*----------------------------------*\
| =========                 |                                                 |
| \\      /  F ield         | OpenFOAM Extend Project: Open source CFD        |
|  \\    /   O peration     | Version:  1.6-ext                               |
|   \\  /    A nd           | Web:      www.extend-project.de                 |
|    \\/     M anipulation  |                                                 |
\*---------------------------------------------------------------------------*/
FoamFile
{
    version     2.0;
    format      ascii;
    class       volVectorField;
    location    "0.1";
    object      DV_0;
}
// * * * * * * * * * * * * * * * * * * * * * * * * * * * * * * * * * * * * * //

dimensions      [0 1 -1 0 0 0 0];

internalField   nonuniform List<vector> 
328
(
(7.1095e-07 2.31498e-06 0)
(3.2567e-07 4.77506e-07 0)
(3.21856e-07 -4.47611e-07 0)
(6.85534e-07 -2.24384e-06 0)
(2.10557e-06 5.62564e-06 0)
(1.17544e-06 1.33586e-06 0)
(1.1614e-06 -1.23424e-06 0)
(2.03155e-06 -5.43593e-06 0)
(3.70361e-06 7.80179e-06 0)
(2.50621e-06 2.10904e-06 0)
(2.47711e-06 -1.92236e-06 0)
(3.57946e-06 -7.50723e-06 0)
(5.43387e-06 9.18477e-06 0)
(4.1032e-06 2.73991e-06 0)
(4.05789e-06 -2.45694e-06 0)
(5.25926e-06 -8.78871e-06 0)
(7.30766e-06 1.00224e-05 0)
(5.98837e-06 3.22098e-06 0)
(5.92557e-06 -2.83237e-06 0)
(7.0827e-06 -9.52318e-06 0)
(9.31334e-06 1.0485e-05 0)
(8.08895e-06 3.55808e-06 0)
(8.00844e-06 -3.0557e-06 0)
(9.03859e-06 -9.87825e-06 0)
(1.14603e-05 1.07003e-05 0)
(1.03895e-05 3.77482e-06 0)
(1.0291e-05 -3.15135e-06 0)
(1.11362e-05 -9.98001e-06 0)
(1.37564e-05 1.07574e-05 0)
(1.28617e-05 3.8984e-06 0)
(1.27453e-05 -3.14687e-06 0)
(1.33833e-05 -9.91666e-06 0)
(1.62142e-05 1.07211e-05 0)
(1.54961e-05 3.9578e-06 0)
(1.53616e-05 -3.07101e-06 0)
(1.57917e-05 -9.75196e-06 0)
(1.88461e-05 1.06369e-05 0)
(1.82866e-05 3.97877e-06 0)
(1.81337e-05 -2.94844e-06 0)
(1.83731e-05 -9.52984e-06 0)
(2.16657e-05 1.05367e-05 0)
(2.12368e-05 3.983e-06 0)
(2.10648e-05 -2.79873e-06 0)
(2.11399e-05 -9.28014e-06 0)
(2.46869e-05 1.04429e-05 0)
(2.43557e-05 3.98737e-06 0)
(2.41636e-05 -2.63518e-06 0)
(2.41046e-05 -9.0216e-06 0)
(2.79247e-05 1.0371e-05 0)
(2.76579e-05 4.00459e-06 0)
(2.74443e-05 -2.46522e-06 0)
(2.72809e-05 -8.76467e-06 0)
(3.13954e-05 1.03321e-05 0)
(3.11626e-05 4.04416e-06 0)
(3.09258e-05 -2.29105e-06 0)
(3.06839e-05 -8.51333e-06 0)
(3.51174e-05 1.03344e-05 0)
(3.48928e-05 4.11349e-06 0)
(3.46306e-05 -2.11062e-06 0)
(3.43305e-05 -8.26671e-06 0)
(3.91113e-05 1.03845e-05 0)
(3.88742e-05 4.21888e-06 0)
(3.85843e-05 -1.91873e-06 0)
(3.82407e-05 -8.02039e-06 0)
(4.34004e-05 1.04882e-05 0)
(4.31353e-05 4.36628e-06 0)
(4.28152e-05 -1.70803e-06 0)
(4.24377e-05 -7.76747e-06 0)
(4.8011e-05 1.06512e-05 0)
(4.77072e-05 4.56156e-06 0)
(4.73547e-05 -1.46997e-06 0)
(4.69485e-05 -7.49958e-06 0)
(5.29722e-05 1.08785e-05 0)
(5.26232e-05 4.81062e-06 0)
(5.22365e-05 -1.19578e-06 0)
(5.18042e-05 -7.20783e-06 0)
(5.83165e-05 1.11752e-05 0)
(5.79193e-05 5.11901e-06 0)
(5.74976e-05 -8.77216e-07 0)
(5.70403e-05 -6.88365e-06 0)
(6.408e-05 1.15456e-05 0)
(6.36347e-05 5.49149e-06 0)
(6.31784e-05 -5.0742e-07 0)
(6.26967e-05 -6.5198e-06 0)
(7.03027e-05 1.19923e-05 0)
(6.98126e-05 5.93117e-06 0)
(6.93234e-05 -8.14956e-08 0)
(6.88186e-05 -6.11069e-06 0)
(7.72859e-05 1.25341e-05 0)
(7.67547e-05 6.45772e-06 0)
(7.6235e-05 4.2172e-07 0)
(7.57085e-05 -5.63435e-06 0)
(8.48341e-05 1.31504e-05 0)
(8.42699e-05 7.05216e-06 0)
(8.37253e-05 9.8586e-07 0)
(8.31816e-05 -5.10476e-06 0)
(9.24607e-05 1.37897e-05 0)
(9.18736e-05 7.66477e-06 0)
(9.13119e-05 1.56412e-06 0)
(9.07576e-05 -4.56535e-06 0)
(0.000100172 1.44417e-05 0)
(9.95701e-05 8.28509e-06 0)
(9.89985e-05 2.14624e-06 0)
(9.84402e-05 -4.0259e-06 0)
(0.000107974 1.50988e-05 0)
(0.000107364 8.90517e-06 0)
(0.000106789 2.72414e-06 0)
(0.000106233 -3.49423e-06 0)
(0.000115873 1.57555e-05 0)
(0.000115261 9.51941e-06 0)
(0.000114687 3.29191e-06 0)
(0.000114138 -2.97641e-06 0)
(0.000123877 1.64086e-05 0)
(0.000123267 1.01244e-05 0)
(0.000122698 3.84572e-06 0)
(0.000122159 -2.47666e-06 0)
(0.000131993 1.70565e-05 0)
(0.000131387 1.07184e-05 0)
(0.000130827 4.38344e-06 0)
(0.000130302 -1.99756e-06 0)
(0.000140229 1.76987e-05 0)
(0.000139628 1.13008e-05 0)
(0.000139079 4.90415e-06 0)
(0.00013857 -1.54053e-06 0)
(0.00014859 1.83353e-05 0)
(0.000147996 1.18717e-05 0)
(0.000147461 5.4075e-06 0)
(0.00014697 -1.10637e-06 0)
(0.000157085 1.89659e-05 0)
(0.0001565 1.24307e-05 0)
(0.000155979 5.89314e-06 0)
(0.000155509 -6.95777e-07 0)
(0.000165719 1.95898e-05 0)
(0.000165146 1.29773e-05 0)
(0.000164642 6.36023e-06 0)
(0.000164195 -3.09804e-07 0)
(0.000174501 2.02051e-05 0)
(0.000173941 1.35096e-05 0)
(0.000173457 6.80717e-06 0)
(0.000173035 4.99081e-08 0)
(0.000183435 2.08092e-05 0)
(0.000182892 1.40252e-05 0)
(0.000182431 7.23149e-06 0)
(0.000182036 3.81032e-07 0)
(0.00019253 2.13979e-05 0)
(0.000192006 1.45204e-05 0)
(0.000191571 7.6299e-06 0)
(0.000191207 6.80631e-07 0)
(0.000201789 2.19668e-05 0)
(0.00020129 1.49909e-05 0)
(0.000200884 7.99857e-06 0)
(0.000200554 9.45361e-07 0)
(0.000211219 2.25105e-05 0)
(0.000210748 1.5432e-05 0)
(0.000210377 8.33332e-06 0)
(0.000210083 1.17172e-06 0)
(0.000220824 2.30233e-05 0)
(0.000220387 1.58387e-05 0)
(0.000220052 8.62996e-06 0)
(0.000219799 1.3563e-06 0)
(0.000230608 2.34998e-05 0)
(0.000230209 1.62062e-05 0)
(0.000229916 8.88448e-06 0)
(0.000229706 1.496e-06 0)
(0.000240573 2.39343e-05 0)
(0.000240217 1.65298e-05 0)
(0.000239969 9.09322e-06 0)
(0.000239805 1.58814e-06 0)
(0.00025072 2.43213e-05 0)
(0.000250413 1.68052e-05 0)
(0.000250213 9.25287e-06 0)
(0.000250098 1.63049e-06 0)
(0.000261049 2.46557e-05 0)
(0.000260794 1.70282e-05 0)
(0.000260647 9.3605e-06 0)
(0.000260584 1.62126e-06 0)
(0.000271558 2.4932e-05 0)
(0.00027136 1.71949e-05 0)
(0.000271269 9.41336e-06 0)
(0.00027126 1.55893e-06 0)
(0.000282241 2.51449e-05 0)
(0.000282106 1.73012e-05 0)
(0.000282075 9.40877e-06 0)
(0.000282122 1.4421e-06 0)
(0.000293092 2.52889e-05 0)
(0.000293026 1.7343e-05 0)
(0.000293058 9.34397e-06 0)
(0.000293164 1.26938e-06 0)
(0.000304103 2.5358e-05 0)
(0.00030411 1.73158e-05 0)
(0.00030421 9.21593e-06 0)
(0.000304378 1.03917e-06 0)
(0.000315264 2.53458e-05 0)
(0.00031535 1.72146e-05 0)
(0.000315521 9.02124e-06 0)
(0.000315753 7.49597e-07 0)
(0.00032656 2.52455e-05 0)
(0.000326731 1.70342e-05 0)
(0.000326979 8.7561e-06 0)
(0.000327276 3.98423e-07 0)
(0.000337978 2.50498e-05 0)
(0.00033824 1.67687e-05 0)
(0.000338567 8.4163e-06 0)
(0.000338934 -1.69128e-08 0)
(0.0003495 2.47513e-05 0)
(0.000349858 1.64121e-05 0)
(0.000350269 7.99733e-06 0)
(0.000350708 -4.99223e-07 0)
(0.000361107 2.43425e-05 0)
(0.000361567 1.59582e-05 0)
(0.000362065 7.4946e-06 0)
(0.000362578 -1.05139e-06 0)
(0.000372779 2.38161e-05 0)
(0.000373345 1.54011e-05 0)
(0.000373934 6.90367e-06 0)
(0.000374522 -1.6761e-06 0)
(0.000384492 2.31654e-05 0)
(0.000385168 1.47354e-05 0)
(0.000385849 6.22074e-06 0)
(0.000386514 -2.37546e-06 0)
(0.000396223 2.23852e-05 0)
(0.000397011 1.3957e-05 0)
(0.000397786 5.44305e-06 0)
(0.000398527 -3.15057e-06 0)
(0.000407946 2.14717e-05 0)
(0.000408847 1.30633e-05 0)
(0.000409714 4.56952e-06 0)
(0.000410529 -4.00101e-06 0)
(0.000419633 2.04237e-05 0)
(0.000420647 1.20543e-05 0)
(0.000421603 3.60123e-06 0)
(0.000422489 -4.92432e-06 0)
(0.000431256 1.92426e-05 0)
(0.000432378 1.09325e-05 0)
(0.00043342 2.54195e-06 0)
(0.000434371 -5.9156e-06 0)
(0.000442784 1.7933e-05 0)
(0.00044401 9.70355e-06 0)
(0.00044513 1.3984e-06 0)
(0.000446139 -6.96728e-06 0)
(0.000454185 1.65025e-05 0)
(0.000455506 8.37637e-06 0)
(0.000456699 1.80247e-07 0)
(0.000457756 -8.0691e-06 0)
(0.000465425 1.49618e-05 0)
(0.000466834 6.96246e-06 0)
(0.000468089 -1.10029e-06 0)
(0.000469186 -9.2086e-06 0)
(0.000476468 1.33232e-05 0)
(0.000477955 5.47527e-06 0)
(0.000479264 -2.42927e-06 0)
(0.000480389 -1.03719e-05 0)
(0.000487276 1.16e-05 0)
(0.000488832 3.92893e-06 0)
(0.000490186 -3.79231e-06 0)
(0.000491331 -1.15449e-05 0)
(0.000497811 9.80501e-06 0)
(0.000499427 2.33667e-06 0)
(0.000500819 -5.17612e-06 0)
(0.000501974 -1.27147e-05 0)
(0.000508033 7.94876e-06 0)
(0.000509702 7.09295e-07 0)
(0.000511125 -6.5701e-06 0)
(0.000512285 -1.38714e-05 0)
(0.0005179 6.03848e-06 0)
(0.000519618 -9.46228e-07 0)
(0.00052107 -7.96768e-06 0)
(0.000522231 -1.5009e-05 0)
(0.000527374 4.07727e-06 0)
(0.000529139 -2.62753e-06 0)
(0.000530616 -9.36715e-06 0)
(0.000531778 -1.61262e-05 0)
(0.000536417 2.06414e-06 0)
(0.000538228 -4.33681e-06 0)
(0.000539731 -1.07716e-05 0)
(0.000540894 -1.72268e-05 0)
(0.000544992 -5.08682e-09 0)
(0.00054685 -6.07982e-06 0)
(0.00054838 -1.21878e-05 0)
(0.000549548 -1.8318e-05 0)
(0.000553066 -2.13599e-06 0)
(0.000554973 -7.86401e-06 0)
(0.000556532 -1.36245e-05 0)
(0.000557709 -1.94092e-05 0)
(0.000560611 -4.33346e-06 0)
(0.000562567 -9.69626e-06 0)
(0.000564155 -1.50901e-05 0)
(0.000565344 -2.05097e-05 0)
(0.0005676 -6.59963e-06 0)
(0.000569602 -1.15808e-05 0)
(0.00057122 -1.65901e-05 0)
(0.000572424 -2.16263e-05 0)
(0.000574008 -8.9326e-06 0)
(0.000576054 -1.35177e-05 0)
(0.000577701 -1.81266e-05 0)
(0.000578919 -2.27627e-05 0)
(0.000579816 -1.13263e-05 0)
(0.000581899 -1.55031e-05 0)
(0.000583571 -1.96974e-05 0)
(0.000584803 -2.39191e-05 0)
(0.000585004 -1.37708e-05 0)
(0.000587115 -1.753e-05 0)
(0.000588808 -2.12976e-05 0)
(0.000590053 -2.50935e-05 0)
(0.000589558 -1.62544e-05 0)
(0.000591684 -1.959e-05 0)
(0.000593392 -2.29206e-05 0)
(0.000594649 -2.6283e-05 0)
(0.000593466 -1.87619e-05 0)
(0.000595588 -2.16743e-05 0)
(0.000597303 -2.45592e-05 0)
(0.000598577 -2.74869e-05 0)
(0.000596731 -2.12778e-05 0)
(0.000598817 -2.37724e-05 0)
(0.000600532 -2.62009e-05 0)
(0.000601835 -2.86989e-05 0)
(0.000599341 -2.37807e-05 0)
(0.000601343 -2.58728e-05 0)
(0.000603049 -2.78298e-05 0)
(0.000604417 -2.99163e-05 0)
(0.000601373 -2.62282e-05 0)
(0.00060318 -2.79425e-05 0)
(0.000604868 -2.94132e-05 0)
(0.00060639 -3.11139e-05 0)
(0.000602751 -2.8502e-05 0)
(0.000604225 -2.99251e-05 0)
(0.000605889 -3.09547e-05 0)
(0.000607735 -3.23463e-05 0)
)
;

boundaryField
{
    plateFix
    {
        type            calculated;
        value           uniform (0 0 0);
    }
    plate
    {
        type            calculated;
        value           nonuniform List<vector> 
168
(
(1.16641e-05 6.61027e-06 -4.6188e-22)
(1.12495e-05 -6.43259e-06 8.84468e-22)
(8.83263e-06 9.46249e-06 -1.49219e-22)
(8.46883e-06 -9.18569e-06 -1.06432e-21)
(7.80738e-06 1.15819e-05 -4.57488e-22)
(7.43827e-06 -1.12083e-05 5.897e-22)
(7.84255e-06 1.28944e-05 1.60964e-21)
(7.44558e-06 -1.2427e-05 1.40901e-22)
(8.65112e-06 1.36637e-05 -5.58728e-22)
(8.21546e-06 -1.31006e-05 -4.84202e-23)
(9.99631e-06 1.40546e-05 -2.11998e-22)
(9.51735e-06 -1.33911e-05 -6.77187e-22)
(1.17485e-05 1.42062e-05 -4.26797e-22)
(1.12242e-05 -1.34355e-05 2.6714e-22)
(1.38206e-05 1.42062e-05 -5.41169e-23)
(1.32498e-05 -1.33206e-05 -6.19762e-22)
(1.61634e-05 1.41196e-05 6.91337e-22)
(1.55445e-05 -1.311e-05 1.31011e-22)
(1.87477e-05 1.399e-05 -1.97199e-22)
(1.80779e-05 -1.28459e-05 5.11156e-22)
(2.15601e-05 1.38484e-05 2.88415e-23)
(2.08344e-05 -1.25572e-05 -2.7984e-22)
(2.4597e-05 1.37164e-05 -5.39949e-23)
(2.38083e-05 -1.22621e-05 7.69911e-23)
(2.78629e-05 1.36093e-05 -5.70866e-23)
(2.70013e-05 -1.19708e-05 1.74479e-22)
(3.13677e-05 1.35385e-05 6.56884e-24)
(3.04211e-05 -1.16878e-05 -4.4764e-23)
(3.51263e-05 1.35123e-05 -5.41942e-23)
(3.40809e-05 -1.14128e-05 -1.6801e-22)
(3.91578e-05 1.35378e-05 1.11633e-22)
(3.79987e-05 -1.11422e-05 -1.98519e-22)
(4.34847e-05 1.36211e-05 -1.07541e-22)
(4.21975e-05 -1.08697e-05 -6.74352e-24)
(4.81328e-05 1.37679e-05 1.84587e-22)
(4.6705e-05 -1.05876e-05 2.65269e-22)
(5.3131e-05 1.39834e-05 -2.04282e-22)
(5.15535e-05 -1.02872e-05 -2.33805e-22)
(5.85112e-05 1.42725e-05 -4.43865e-23)
(5.67801e-05 -9.95994e-06 4.50745e-23)
(6.43083e-05 1.46394e-05 2.71673e-22)
(6.24262e-05 -9.59869e-06 -8.72838e-23)
(7.05607e-05 1.50871e-05 -2.02947e-22)
(6.8538e-05 -9.19771e-06 5.95563e-23)
(7.75682e-05 1.5634e-05 2.46486e-22)
(7.54184e-05 -8.73448e-06 -3.7296e-23)
(8.51348e-05 1.62582e-05 -2.02869e-22)
(8.28848e-05 -8.22169e-06 1.93883e-22)
(9.27733e-05 1.69083e-05 -3.15739e-23)
(9.04586e-05 -7.70133e-06 -2.43029e-22)
(0.000100491 1.75741e-05 9.95532e-23)
(9.81426e-05 -7.18292e-06 9.02065e-24)
(0.000108296 1.82479e-05 -1.91274e-22)
(0.00010594 -6.67406e-06 -1.93007e-22)
(0.000116196 1.89244e-05 9.24648e-23)
(0.000113852 -6.18089e-06 5.92766e-23)
(0.000124199 1.96004e-05 -4.06902e-23)
(0.000121882 -5.70778e-06 2.33092e-22)
(0.000132313 2.02744e-05 -2.36373e-23)
(0.000130033 -5.25756e-06 -5.38198e-23)
(0.000140547 2.09457e-05 8.18505e-23)
(0.000138311 -4.83191e-06 2.4999e-23)
(0.000148906 2.16143e-05 4.48377e-23)
(0.000146722 -4.43188e-06 9.83626e-24)
(0.000157399 2.22799e-05 8.59446e-24)
(0.000155272 -4.05835e-06 -3.64493e-23)
(0.000166031 2.29416e-05 -1.30051e-22)
(0.000163969 -3.71249e-06 8.10849e-23)
(0.000174808 2.35976e-05 7.17657e-23)
(0.000172821 -3.39596e-06 -5.93359e-23)
(0.000183738 2.42447e-05 -7.80752e-25)
(0.000181836 -3.11101e-06 -8.42947e-23)
(0.000192824 2.48792e-05 -9.3914e-23)
(0.000191022 -2.86039e-06 1.583e-22)
(0.000202073 2.5496e-05 1.30525e-22)
(0.000200387 -2.64717e-06 -1.44182e-22)
(0.000211491 2.60896e-05 -9.44891e-23)
(0.000209935 -2.47451e-06 -4.08732e-23)
(0.00022108 2.66543e-05 3.16682e-23)
(0.000219671 -2.34539e-06 1.34211e-22)
(0.000230846 2.71839e-05 1.44235e-22)
(0.0002296 -2.26247e-06 -1.6699e-23)
(0.00024079 2.76724e-05 -1.22982e-24)
(0.000239723 -2.22792e-06 4.12202e-23)
(0.000250914 2.81139e-05 -7.37126e-23)
(0.00025004 -2.24345e-06 -4.15194e-23)
(0.000261217 2.85025e-05 -1.15732e-22)
(0.000260551 -2.31028e-06 -2.47792e-24)
(0.000271696 2.88322e-05 4.25984e-23)
(0.000271253 -2.42935e-06 -5.51023e-23)
(0.000282348 2.9097e-05 3.26015e-23)
(0.000282142 -2.60141e-06 6.56025e-23)
(0.000293165 2.92906e-05 1.85444e-24)
(0.000293212 -2.8272e-06 -5.97926e-23)
(0.000304139 2.94063e-05 4.16222e-23)
(0.000304454 -3.1076e-06 1.25586e-22)
(0.000315258 2.9437e-05 -6.04915e-23)
(0.000315858 -3.44374e-06 -6.57829e-23)
(0.000326511 2.93752e-05 5.43418e-23)
(0.000327413 -3.83707e-06 -7.47015e-23)
(0.000337881 2.92129e-05 -6.46156e-23)
(0.000339102 -4.28931e-06 1.39991e-22)
(0.000349351 2.8942e-05 7.52326e-23)
(0.00035091 -4.80243e-06 -6.49681e-23)
(0.000360903 2.85542e-05 -2.28253e-24)
(0.000362815 -5.37843e-06 -5.6687e-23)
(0.000372516 2.80418e-05 -1.15339e-24)
(0.000374795 -6.01908e-06 1.31076e-23)
(0.000384168 2.73975e-05 -1.10565e-22)
(0.000386825 -6.72563e-06 -2.80927e-24)
(0.000395835 2.66154e-05 9.32747e-23)
(0.000398874 -7.49832e-06 4.39839e-23)
(0.000407492 2.56914e-05 -1.10789e-23)
(0.000410913 -8.33592e-06 9.51191e-24)
(0.000419114 2.46235e-05 -3.815e-23)
(0.000422907 -9.23529e-06 -3.5643e-23)
(0.000430674 2.34127e-05 -2.40032e-25)
(0.00043482 -1.01909e-05 8.82997e-24)
(0.000442141 2.20631e-05 2.13927e-23)
(0.000446615 -1.11949e-05 5.32303e-25)
(0.000453486 2.05817e-05 -2.15397e-23)
(0.000458254 -1.22367e-05 3.56468e-23)
(0.000464676 1.89784e-05 -2.84956e-25)
(0.000469698 -1.33038e-05 -2.58768e-23)
(0.000475675 1.72652e-05 -2.59959e-23)
(0.000480909 -1.43824e-05 8.48164e-24)
(0.000486446 1.54548e-05 3.45145e-23)
(0.000491851 -1.54588e-05 4.06325e-25)
(0.00049695 1.35594e-05 1.86939e-23)
(0.000502489 -1.65204e-05 2.6212e-23)
(0.000507144 1.15896e-05 -2.49325e-23)
(0.000512791 -1.75576e-05 -3.61908e-23)
(0.000516988 9.55265e-06 -3.13414e-25)
(0.000522725 -1.85648e-05 -1.96354e-23)
(0.000526438 7.45194e-06 -1.65986e-24)
(0.000532261 -1.95411e-05 9.27645e-24)
(0.000535456 5.28717e-06 -2.68361e-23)
(0.000541369 -2.04902e-05 1.13935e-23)
(0.000544003 3.0551e-06 2.20857e-23)
(0.000550019 -2.14197e-05 7.95837e-24)
(0.000552048 7.51218e-07 3.54662e-23)
(0.00055818 -2.23389e-05 8.46621e-24)
(0.000559561 -1.62821e-06 -4.81517e-23)
(0.000565819 -2.32575e-05 8.19125e-24)
(0.000566518 -4.08425e-06 1.82517e-23)
(0.000572904 -2.41829e-05 -1.80182e-23)
(0.000572898 -6.61388e-06 -2.28974e-23)
(0.000579405 -2.51196e-05 1.47623e-25)
(0.00057868 -9.20997e-06 2.27768e-23)
(0.000585294 -2.60689e-05 1.43769e-23)
(0.000583849 -1.18611e-05 -1.45304e-23)
(0.000590546 -2.70305e-05 -5.7745e-24)
(0.000588391 -1.45537e-05 3.48615e-23)
(0.000595142 -2.80038e-05 -7.06013e-24)
(0.000592294 -1.72681e-05 -1.78666e-23)
(0.000599064 -2.8992e-05 7.47196e-24)
(0.000595568 -1.99857e-05 1.6331e-24)
(0.000602308 -2.99918e-05 -1.83451e-23)
(0.000598197 -2.26739e-05 -3.12326e-24)
(0.00060486 -3.10133e-05 8.27516e-24)
(0.000600322 -2.52864e-05 6.46452e-24)
(0.000606794 -3.20354e-05 4.34777e-25)
(0.000601917 -2.77475e-05 -9.44899e-24)
(0.000603243 -2.92934e-05 -1.12822e-24)
(0.000604472 -3.08276e-05 -2.04595e-24)
(0.000606108 -3.17251e-05 2.14628e-25)
(0.000608256 -3.31101e-05 8.31578e-25)
(0.000608173 -3.31111e-05 8.46821e-25)
)
;
    }
    frontAndBackPlanes
    {
        type            empty;
    }
}


// ************************************************************************* //
