/*--------------------------------*- C++ -*----------------------------------*\
| =========                 |                                                 |
| \\      /  F ield         | OpenFOAM Extend Project: Open source CFD        |
|  \\    /   O peration     | Version:  1.6-ext                               |
|   \\  /    A nd           | Web:      www.extend-project.de                 |
|    \\/     M anipulation  |                                                 |
\*---------------------------------------------------------------------------*/
FoamFile
{
    version     2.0;
    format      ascii;
    class       surfaceScalarField;
    location    "0.1";
    object      meshPhi;
}
// * * * * * * * * * * * * * * * * * * * * * * * * * * * * * * * * * * * * * //

dimensions      [0 3 -1 0 0 0 0];

internalField   nonuniform List<scalar> 
570
(
-9.99092e-10
-1.18544e-08
2.09485e-12
7.20873e-09
9.90504e-10
7.27235e-09
-1.14467e-08
-3.01967e-09
-1.10068e-09
3.6348e-12
1.3871e-08
2.9907e-09
1.40095e-08
-5.37809e-10
-4.90287e-09
8.25232e-09
-1.5883e-12
1.97883e-08
4.84544e-09
2.00135e-08
9.02595e-09
-6.61302e-09
1.63796e-08
-1.55601e-11
2.53435e-08
6.51418e-09
2.56643e-08
1.741e-08
-8.15918e-09
2.35902e-08
-4.07565e-11
3.06434e-08
7.99964e-09
3.10686e-08
2.4916e-08
-9.56559e-09
3.02739e-08
-8.05766e-11
3.58922e-08
9.31807e-09
3.64297e-08
3.19271e-08
-1.08618e-08
3.66945e-08
-1.39586e-10
4.1221e-08
1.0489e-08
4.18787e-08
3.87035e-08
-1.20816e-08
4.30692e-08
-2.23758e-10
4.67661e-08
1.15337e-08
4.7552e-08
4.54608e-08
-1.32618e-08
4.95584e-08
-3.40793e-10
5.26356e-08
1.24732e-08
5.35579e-08
5.23589e-08
-1.44413e-08
5.6294e-08
-5.00518e-10
5.89265e-08
1.33266e-08
5.99938e-08
5.95298e-08
-1.56605e-08
6.33849e-08
-7.15369e-10
6.57206e-08
1.41092e-08
6.69416e-08
6.70832e-08
-1.69606e-08
7.09268e-08
-1.001e-09
7.309e-08
1.4831e-08
7.4474e-08
7.51153e-08
-1.83831e-08
7.90064e-08
-1.37702e-09
8.10991e-08
1.54942e-08
8.26554e-08
8.37134e-08
-1.99707e-08
8.77047e-08
-1.86789e-09
8.98085e-08
1.60925e-08
9.15468e-08
9.29591e-08
-2.17678e-08
9.71e-08
-2.50403e-09
9.92781e-08
1.66098e-08
1.01208e-07
1.02931e-07
-2.38225e-08
1.0727e-07
-3.32312e-09
1.0957e-07
1.70187e-08
1.11701e-07
1.13706e-07
-2.61891e-08
1.18292e-07
-4.37172e-09
1.2075e-07
1.72806e-08
1.23092e-07
1.25363e-07
-2.89307e-08
1.30249e-07
-5.70717e-09
1.3289e-07
1.7344e-08
1.35453e-07
1.37983e-07
-3.21225e-08
1.43226e-07
-7.39987e-09
1.46071e-07
1.71433e-08
1.48862e-07
1.51649e-07
-3.58547e-08
1.57315e-07
-9.53599e-09
1.60378e-07
1.65968e-08
1.63407e-07
1.66453e-07
-4.02364e-08
1.72617e-07
-1.22206e-08
1.7591e-07
1.56036e-08
1.79184e-07
1.82491e-07
-4.53988e-08
1.89238e-07
-1.55811e-08
1.92772e-07
1.404e-08
1.96298e-07
1.99869e-07
-5.54163e-08
2.08644e-07
-2.13626e-08
2.12444e-07
1.24769e-08
2.16243e-07
2.20095e-07
-5.90424e-08
2.28332e-07
-2.52838e-08
2.32385e-07
8.27397e-09
2.36441e-07
2.40554e-07
-6.29337e-08
2.48305e-07
-2.94665e-08
2.52595e-07
3.81357e-09
2.5689e-07
2.61245e-07
-6.70691e-08
2.68567e-07
-3.3892e-08
2.73075e-07
-8.87946e-10
2.77591e-07
2.82169e-07
-7.14271e-08
2.89119e-07
-3.85405e-08
2.93828e-07
-5.81289e-09
2.98546e-07
3.03328e-07
-7.59863e-08
3.09965e-07
-4.33918e-08
3.14857e-07
-1.09422e-08
3.19759e-07
3.24725e-07
-8.0726e-08
3.31107e-07
-4.84255e-08
3.36164e-07
-1.62561e-08
3.41232e-07
3.46364e-07
-8.56261e-08
3.52548e-07
-5.36216e-08
3.57753e-07
-2.1735e-08
3.6297e-07
3.68248e-07
-9.06676e-08
3.74289e-07
-5.8961e-08
3.79625e-07
-2.73598e-08
3.84975e-07
3.90383e-07
-9.5833e-08
3.9633e-07
-6.44258e-08
4.01782e-07
-3.31124e-08
4.07249e-07
4.12773e-07
-1.01107e-07
4.18669e-07
-6.99999e-08
4.24224e-07
-3.89765e-08
4.29796e-07
4.3542e-07
-1.06475e-07
4.41306e-07
-7.56691e-08
4.46953e-07
-4.49372e-08
4.52617e-07
4.58329e-07
-1.11926e-07
4.64238e-07
-8.14209e-08
4.69966e-07
-5.09819e-08
4.75712e-07
4.81502e-07
-1.17449e-07
4.87462e-07
-8.72452e-08
4.93263e-07
-5.70998e-08
4.99083e-07
5.04941e-07
-1.23038e-07
5.10974e-07
-9.31335e-08
5.16842e-07
-6.32817e-08
5.22727e-07
5.28646e-07
-1.28686e-07
5.34769e-07
-9.90792e-08
5.40698e-07
-6.95204e-08
5.46644e-07
5.52618e-07
-1.34389e-07
5.58843e-07
-1.05077e-07
5.64829e-07
-7.58101e-08
5.7083e-07
5.76854e-07
-1.40143e-07
5.83189e-07
-1.11124e-07
5.8923e-07
-8.21462e-08
5.95283e-07
6.01353e-07
-1.45946e-07
6.078e-07
-1.17216e-07
6.13894e-07
-8.85252e-08
6.19997e-07
6.26111e-07
-1.51797e-07
6.3267e-07
-1.23351e-07
6.38815e-07
-9.49445e-08
6.44967e-07
6.51123e-07
-1.57695e-07
6.57789e-07
-1.2953e-07
6.63987e-07
-1.01403e-07
6.70187e-07
6.76384e-07
-1.63642e-07
6.83148e-07
-1.35751e-07
6.89399e-07
-1.07898e-07
6.95649e-07
7.01887e-07
-1.69638e-07
7.08737e-07
-1.42015e-07
7.15044e-07
-1.14432e-07
7.21344e-07
7.27624e-07
-1.75685e-07
7.34545e-07
-1.48324e-07
7.4091e-07
-1.21005e-07
7.47263e-07
7.53588e-07
-1.81787e-07
7.6056e-07
-1.5468e-07
7.66988e-07
-1.27618e-07
7.73397e-07
7.79769e-07
-1.87947e-07
7.86769e-07
-1.61087e-07
7.93264e-07
-1.34274e-07
7.99733e-07
8.06156e-07
-1.94171e-07
8.13158e-07
-1.67549e-07
8.19725e-07
-1.40978e-07
8.26261e-07
8.3274e-07
-2.00465e-07
8.39712e-07
-1.74072e-07
8.46359e-07
-1.47735e-07
8.52966e-07
8.59507e-07
-2.06837e-07
8.66417e-07
-1.80662e-07
8.73151e-07
-1.5455e-07
8.79837e-07
8.86446e-07
-2.13294e-07
8.93257e-07
-1.87329e-07
9.00086e-07
-1.61431e-07
9.06858e-07
9.13542e-07
-2.19845e-07
9.20216e-07
-1.94079e-07
9.27148e-07
-1.68386e-07
9.34013e-07
9.40781e-07
-2.265e-07
9.47277e-07
-2.00922e-07
9.54321e-07
-1.75423e-07
9.61287e-07
9.68147e-07
-2.33269e-07
9.74425e-07
-2.07868e-07
9.81589e-07
-1.82552e-07
9.88664e-07
9.95622e-07
-2.40161e-07
1.00164e-06
-2.14926e-07
1.00893e-06
-1.89781e-07
1.01612e-06
1.02319e-06
-2.47186e-07
1.02891e-06
-2.22105e-07
1.03634e-06
-1.97119e-07
1.04365e-06
1.05083e-06
-2.54351e-07
1.05622e-06
-2.29413e-07
1.06379e-06
-2.04573e-07
1.07123e-06
1.07852e-06
-2.61664e-07
1.08355e-06
-2.36857e-07
1.09126e-06
-2.12151e-07
1.09883e-06
1.10625e-06
-2.6913e-07
1.11088e-06
-2.44442e-07
1.11874e-06
-2.19857e-07
1.12645e-06
1.13399e-06
-2.76752e-07
1.13819e-06
-2.52171e-07
1.14621e-06
-2.27694e-07
1.15405e-06
1.16172e-06
-2.84532e-07
1.16548e-06
-2.60046e-07
1.17365e-06
-2.35663e-07
1.18162e-06
1.18942e-06
-2.92469e-07
1.19273e-06
-2.68066e-07
1.20104e-06
-2.43765e-07
1.20915e-06
1.21707e-06
-3.0056e-07
1.21991e-06
-2.76228e-07
1.22836e-06
-2.51995e-07
1.2366e-06
1.24464e-06
-3.08801e-07
1.24702e-06
-2.84528e-07
1.25561e-06
-2.60351e-07
1.26397e-06
1.27213e-06
-3.17185e-07
1.27403e-06
-2.9296e-07
1.28275e-06
-2.68826e-07
1.29124e-06
1.2995e-06
-3.25705e-07
1.30093e-06
-3.01516e-07
1.30978e-06
-2.77415e-07
1.31837e-06
1.32674e-06
-3.34353e-07
1.32771e-06
-3.1019e-07
1.33667e-06
-2.86109e-07
1.34537e-06
1.35384e-06
-3.43121e-07
1.35434e-06
-3.18974e-07
1.36341e-06
-2.94902e-07
1.37221e-06
1.38077e-06
-3.52e-07
1.38082e-06
-3.27858e-07
1.38999e-06
-3.03785e-07
1.39888e-06
1.40752e-06
-3.60981e-07
1.40713e-06
-3.36835e-07
1.41639e-06
-3.12752e-07
1.42536e-06
1.43407e-06
-3.70053e-07
1.43325e-06
-3.45896e-07
1.44259e-06
-3.21793e-07
1.45163e-06
1.46041e-06
-3.79208e-07
1.45918e-06
-3.55031e-07
1.46859e-06
-3.30901e-07
1.4777e-06
1.48653e-06
-3.88433e-07
1.48491e-06
-3.6423e-07
1.49437e-06
-3.40068e-07
1.50353e-06
1.51241e-06
-3.97718e-07
1.51042e-06
-3.73484e-07
1.51993e-06
-3.49283e-07
1.52914e-06
1.53806e-06
-4.07048e-07
1.5357e-06
-3.82781e-07
1.54526e-06
-3.58539e-07
1.5545e-06
1.56344e-06
-4.1641e-07
1.56076e-06
-3.9211e-07
1.57035e-06
-3.67829e-07
1.57961e-06
1.58857e-06
-4.25787e-07
1.58559e-06
-4.0146e-07
1.5952e-06
-3.77145e-07
1.60448e-06
1.61344e-06
-4.35163e-07
1.61017e-06
-4.10818e-07
1.61982e-06
-3.86482e-07
1.62911e-06
1.63805e-06
-4.44536e-07
1.63448e-06
-4.20174e-07
1.64422e-06
-3.95818e-07
1.65351e-06
1.66236e-06
-4.53966e-07
1.65842e-06
-4.29519e-07
1.66835e-06
-4.05075e-07
1.67765e-06
1.6863e-06
-4.63687e-07
-4.38846e-07
-4.14008e-07
)
;

boundaryField
{
    plateFix
    {
        type            calculated;
        value           nonuniform List<scalar> 4(2.03777e-08 7.5332e-13 9.93826e-13 2.01122e-08);
    }
    plate
    {
        type            calculated;
        value           nonuniform List<scalar> 
168
(
4.7943e-09
4.70328e-09
8.35141e-09
8.20853e-09
1.16279e-08
1.14295e-08
1.45323e-08
1.42707e-08
1.71211e-08
1.67806e-08
1.94866e-08
1.9042e-08
2.1702e-08
2.11171e-08
2.38358e-08
2.30611e-08
2.5947e-08
2.49167e-08
2.80894e-08
2.67177e-08
3.03128e-08
2.84887e-08
3.26647e-08
3.02459e-08
3.51915e-08
3.19967e-08
3.79404e-08
3.37393e-08
4.09601e-08
3.54619e-08
4.43039e-08
3.71426e-08
4.80314e-08
3.87483e-08
5.22117e-08
4.02337e-08
5.69262e-08
4.15398e-08
6.22715e-08
4.25916e-08
6.83624e-08
4.32944e-08
7.53349e-08
4.35303e-08
8.96053e-08
4.61798e-08
9.29329e-08
4.17084e-08
9.65258e-08
3.69808e-08
1.00363e-07
3.20133e-08
1.04422e-07
2.68216e-08
1.08681e-07
2.14238e-08
1.13118e-07
1.58387e-08
1.17714e-07
1.00858e-08
1.2245e-07
4.18394e-09
1.27308e-07
-1.84885e-09
1.32275e-07
-7.99587e-09
1.37337e-07
-1.42421e-08
1.42482e-07
-2.05742e-08
1.47701e-07
-2.69809e-08
1.52987e-07
-3.34525e-08
1.58335e-07
-3.99809e-08
1.63741e-07
-4.65596e-08
1.69201e-07
-5.31832e-08
1.74714e-07
-5.98476e-08
1.8028e-07
-6.65495e-08
1.85899e-07
-7.32865e-08
1.91572e-07
-8.00571e-08
1.973e-07
-8.68607e-08
2.03087e-07
-9.36974e-08
2.08937e-07
-1.00569e-07
2.14853e-07
-1.07476e-07
2.20842e-07
-1.14424e-07
2.26911e-07
-1.21417e-07
2.33067e-07
-1.28459e-07
2.39318e-07
-1.35558e-07
2.45675e-07
-1.42721e-07
2.52146e-07
-1.49956e-07
2.58742e-07
-1.57271e-07
2.65472e-07
-1.64674e-07
2.72345e-07
-1.72174e-07
2.79371e-07
-1.79777e-07
2.86555e-07
-1.87491e-07
2.93903e-07
-1.95318e-07
3.01419e-07
-2.03263e-07
3.09104e-07
-2.11327e-07
3.16957e-07
-2.19509e-07
3.24975e-07
-2.27807e-07
3.33153e-07
-2.36217e-07
3.41486e-07
-2.44733e-07
3.49965e-07
-2.5335e-07
3.58584e-07
-2.62062e-07
3.67332e-07
-2.7086e-07
3.76201e-07
-2.7974e-07
3.8518e-07
-2.88692e-07
3.9426e-07
-2.97711e-07
4.03429e-07
-3.06788e-07
4.12675e-07
-3.15917e-07
4.21985e-07
-3.2509e-07
4.31346e-07
-3.34299e-07
4.4074e-07
-3.4354e-07
4.50151e-07
-3.52808e-07
4.59559e-07
-3.62101e-07
4.68969e-07
-3.71394e-07
4.78468e-07
-3.80585e-07
4.88407e-07
1.68207e-06
1.69215e-06
1.70144e-06
1.70995e-06
-3.89294e-07
)
;
    }
    frontAndBackPlanes
    {
        type            empty;
    }
}


// ************************************************************************* //
