/*--------------------------------*- C++ -*----------------------------------*\
| =========                 |                                                 |
| \\      /  F ield         | OpenFOAM Extend Project: Open source CFD        |
|  \\    /   O peration     | Version:  1.6-ext                               |
|   \\  /    A nd           | Web:      www.extend-project.de                 |
|    \\/     M anipulation  |                                                 |
\*---------------------------------------------------------------------------*/
FoamFile
{
    version     2.0;
    format      ascii;
    class       volSymmTensorField;
    location    "0.1";
    object      sigma;
}
// * * * * * * * * * * * * * * * * * * * * * * * * * * * * * * * * * * * * * //

dimensions      [1 -1 -2 0 0 0 0];

internalField   nonuniform List<symmTensor> 
328
(
(1.4215 0.709303 -3.0305e-22 -0.0709573 7.86894e-20 0.539337)
(1.59955 0.389977 -6.20355e-24 0.730775 3.47593e-23 0.931386)
(2.10938 -0.355321 3.83451e-23 0.956994 -4.55367e-23 1.22578)
(3.49803 -0.967178 -3.82773e-22 0.673412 -1.55725e-19 1.66748)
(1.16984 0.493014 1.96736e-21 -0.568231 -1.49882e-19 0.239705)
(1.60869 0.2927 1.47739e-22 0.175003 -4.38454e-23 0.712674)
(2.11399 -0.330021 2.54795e-23 0.247339 1.14561e-22 0.943687)
(3.15361 -0.673122 8.25958e-22 -0.0575272 1.87852e-20 1.23729)
(1.09985 0.3081 -2.72893e-21 -0.867888 -2.74152e-20 0.0917936)
(1.7941 0.198406 -2.42949e-22 -0.156126 1.44067e-22 0.654333)
(2.33675 -0.285674 1.22966e-21 -0.152063 8.6232e-23 0.872957)
(3.06726 -0.434386 -4.21281e-21 -0.484026 7.26869e-20 1.03208)
(1.02353 0.172766 6.04816e-22 -1.07995 2.33275e-20 -0.0236196)
(1.84938 0.10962 2.81094e-22 -0.470114 -1.16712e-22 0.550756)
(2.3874 -0.22758 -1.8406e-21 -0.520921 -5.26463e-22 0.74557)
(2.95049 -0.265653 4.69748e-21 -0.780084 9.89208e-20 0.866889)
(1.00163 0.0817021 1.93433e-22 -1.20812 1.08877e-19 -0.0836952)
(1.91362 0.0369018 8.19106e-23 -0.690439 1.70935e-22 0.488243)
(2.44929 -0.171063 5.72822e-22 -0.768375 -7.21566e-22 0.671257)
(2.8988 -0.155531 5.89988e-22 -0.953964 -1.51292e-19 0.776612)
(0.99968 0.022688 1.16556e-21 -1.28922 -1.02521e-19 -0.116946)
(1.93642 -0.0190474 -3.83004e-22 -0.865892 -1.23586e-22 0.427113)
(2.45951 -0.123387 -5.48332e-22 -0.961254 5.17962e-22 0.59812)
(2.86263 -0.0862634 -1.78866e-21 -1.06142 3.01349e-20 0.719129)
(1.02028 -0.0131724 -8.02489e-22 -1.33726 9.81432e-20 -0.127938)
(1.94895 -0.0577639 1.67524e-22 -0.991347 8.86338e-25 0.38189)
(2.45871 -0.0880138 -3.97132e-23 -1.09499 -8.6733e-23 0.544246)
(2.84871 -0.0453884 1.76771e-21 -1.12354 1.95663e-20 0.688694)
(1.05302 -0.0335999 3.02593e-22 -1.36639 -6.78551e-20 -0.126511)
(1.94653 -0.0819991 -4.58343e-22 -1.08358 2.7744e-23 0.343988)
(2.44079 -0.0646091 -2.21703e-22 -1.19141 -6.18327e-22 0.498476)
(2.8441 -0.0227657 -1.19425e-21 -1.16084 -1.08609e-20 0.671917)
(1.09389 -0.0441248 -1.29594e-21 -1.38431 1.33989e-19 -0.117336)
(1.93851 -0.0947541 3.99104e-22 -1.14849 -8.63763e-23 0.314798)
(2.41718 -0.0513653 -1.6393e-22 -1.25752 7.54643e-22 0.462565)
(2.84507 -0.0114708 -1.20101e-21 -1.18409 8.7976e-20 0.663004)
(1.13795 -0.0490036 6.8201e-22 -1.39656 -1.57851e-19 -0.104613)
(1.92675 -0.0994934 5.97345e-22 -1.19476 -4.95503e-22 0.291569)
(2.38956 -0.0455608 -4.58692e-22 -1.30344 -5.76924e-22 0.433138)
(2.84617 -0.00643064 -9.3802e-23 -1.20076 -1.10005e-19 0.656774)
(1.1822 -0.0512065 -1.30174e-21 -1.40624 9.4392e-20 -0.0907894)
(1.91465 -0.0992176 -2.25015e-22 -1.22793 5.38201e-22 0.273453)
(2.36167 -0.0445301 2.3701e-21 -1.33518 5.08976e-22 0.409281)
(2.84428 -0.00426272 -3.03109e-22 -1.21487 4.16399e-20 0.650376)
(1.22433 -0.0527597 4.31254e-22 -1.4151 -7.88083e-20 -0.0774859)
(1.90338 -0.0963982 -6.06297e-22 -1.25281 2.35835e-22 0.258991)
(2.33451 -0.0459621 -3.29251e-22 -1.3579 -8.44632e-23 0.389326)
(2.83692 -0.00273823 2.33679e-21 -1.22859 -1.08985e-21 0.641945)
(1.26303 -0.0548697 3.66167e-22 -1.42379 5.65413e-20 -0.0654808)
(1.89368 -0.0927885 4.50186e-22 -1.27252 -3.64946e-22 0.247225)
(2.30872 -0.0481537 -1.64454e-21 -1.3749 -1.08934e-22 0.372217)
(2.82265 -0.000571881 -6.57615e-22 -1.24272 4.13043e-20 0.63059)
(1.29763 -0.0581152 4.25478e-22 -1.43222 -2.05522e-21 -0.0550154)
(1.88533 -0.0894933 -1.28546e-21 -1.28908 8.80906e-22 0.237263)
(2.28393 -0.0500049 1.42966e-21 -1.38828 2.02677e-22 0.356953)
(2.8007 0.00284 5.30835e-22 -1.25725 -6.21167e-20 0.616004)
(1.32798 -0.0625958 9.83732e-22 -1.43989 -1.14811e-20 -0.0459395)
(1.87773 -0.0870568 1.49407e-21 -1.30347 -9.1618e-22 0.228472)
(2.25937 -0.0509557 -2.20243e-22 -1.39907 5.63057e-22 0.34282)
(2.7708 0.00759575 8.48607e-22 -1.27164 1.88521e-20 0.598294)
(1.35426 -0.0680886 -6.46226e-22 -1.44603 1.50114e-20 -0.0378873)
(1.86997 -0.0856126 -1.00223e-21 -1.31593 1.79312e-22 0.220388)
(2.23401 -0.0508489 6.13936e-22 -1.40757 2.36616e-23 0.329279)
(2.73297 0.0134649 -4.82907e-22 -1.28511 2.08263e-21 0.577784)
(1.37676 -0.0741878 4.15363e-22 -1.44987 -4.8611e-20 -0.0304212)
(1.86109 -0.0850299 2.29636e-22 -1.32627 -5.70969e-22 0.2127)
(2.20673 -0.0497897 -1.99854e-21 -1.41361 -9.26685e-23 0.31596)
(2.68743 0.0200335 3.45764e-21 -1.29686 1.56789e-20 0.554874)
(1.39589 -0.0804175 2.22145e-21 -1.4507 1.78196e-20 -0.0231019)
(1.85022 -0.0850415 -1.78741e-22 -1.3341 3.71459e-22 0.205225)
(2.17658 -0.0480172 -3.77366e-23 -1.41681 -9.03928e-23 0.302629)
(2.63444 0.0268217 -4.10439e-21 -1.30619 -8.99214e-20 0.529959)
(1.41194 -0.0863472 -4.19243e-21 -1.44813 1.29961e-20 -0.0156522)
(1.83662 -0.0853517 -4.64617e-21 -1.33907 7.24752e-22 0.197802)
(2.14273 -0.0457983 5.74081e-22 -1.41684 1.55867e-22 0.289086)
(2.57419 0.0333982 -1.19879e-21 -1.31267 7.18875e-20 0.503281)
(1.4254 -0.0915862 -2.6411e-22 -1.44185 -1.28267e-20 -0.00775382)
(1.8199 -0.0856823 4.79148e-21 -1.34089 -8.84141e-22 0.190392)
(2.10473 -0.0433735 3.26707e-21 -1.41342 4.96422e-22 0.27526)
(2.50707 0.0393775 3.56225e-21 -1.31601 -1.24862e-21 0.475111)
(1.4362 -0.0959849 4.1344e-21 -1.43223 -9.81644e-21 0.000421277)
(1.79961 -0.0858577 8.15639e-22 -1.33972 1.58444e-22 0.182754)
(2.06208 -0.0408854 -6.48974e-21 -1.40671 -3.24477e-22 0.260897)
(2.43301 0.0446165 -2.41179e-21 -1.31655 2.19529e-20 0.445287)
(1.44534 -0.0992473 -2.03057e-21 -1.41886 3.82083e-21 0.00942973)
(1.77597 -0.0856962 -1.28525e-21 -1.33533 1.1994e-21 0.175061)
(2.01495 -0.0384135 1.88127e-21 -1.39653 -5.93589e-22 0.24613)
(2.35276 0.0488691 -3.60442e-22 -1.31399 3.69569e-21 0.41423)
(1.4521 -0.101856 -5.30515e-21 -1.40268 -5.32491e-21 0.0186078)
(1.7473 -0.0849455 -3.38487e-22 -1.32835 1.80962e-22 0.16639)
(1.96082 -0.0355709 -5.12128e-21 -1.38317 2.70532e-22 0.229836)
(2.26287 0.0529137 4.44133e-21 -1.30931 -1.75017e-20 0.380163)
(1.45702 -0.104239 2.29484e-21 -1.3825 -8.55161e-21 0.0286581)
(1.71515 -0.0844898 4.94437e-21 -1.31813 5.0464e-22 0.15763)
(1.90213 -0.0333719 -2.86641e-21 -1.36627 1.06816e-22 0.21314)
(2.16713 0.0562913 -5.46347e-21 -1.30103 2.30188e-20 0.3452)
(1.45924 -0.105511 1.1721e-21 -1.36229 3.52128e-20 0.0376371)
(1.68137 -0.0837079 -2.20561e-21 -1.30734 -1.14828e-21 0.148445)
(1.84245 -0.0314496 -1.97645e-21 -1.34902 5.84281e-22 0.196181)
(2.0708 0.058591 7.05673e-21 -1.29266 -3.72082e-20 0.310035)
(1.46 -0.106189 8.53203e-21 -1.34189 -2.64758e-20 0.0461058)
(1.64692 -0.0826776 3.90805e-21 -1.29609 1.25321e-21 0.139177)
(1.78277 -0.0295934 7.86862e-21 -1.33149 -1.87039e-21 0.179335)
(1.97547 0.0603949 -6.83938e-21 -1.28384 2.07068e-20 0.275455)
(1.4591 -0.106382 -7.26546e-21 -1.32202 -2.60624e-20 0.0537026)
(1.6118 -0.0814193 -7.49614e-21 -1.28503 -6.19454e-22 0.129561)
(1.72309 -0.027773 -2.36103e-21 -1.31432 5.92173e-22 0.162344)
(1.88106 0.0618038 -8.76635e-21 -1.27525 -4.01259e-20 0.241144)
(1.4569 -0.106263 -1.63245e-20 -1.30275 1.93093e-20 0.0605364)
(1.57633 -0.0799787 2.93815e-21 -1.27427 2.4501e-21 0.119689)
(1.66379 -0.025935 1.02849e-20 -1.29763 6.39215e-22 0.145314)
(1.78808 0.0629892 2.84085e-21 -1.26693 6.15248e-20 0.207298)
(1.45335 -0.105914 6.23151e-21 -1.28424 9.17404e-21 0.0665264)
(1.54057 -0.0783809 -2.05061e-21 -1.26396 -1.50439e-21 0.109515)
(1.60495 -0.0240587 -6.05793e-21 -1.28158 2.8093e-21 0.128211)
(1.69664 0.0640291 4.00372e-21 -1.25902 -4.3728e-20 0.173904)
(1.4485 -0.105403 2.68188e-21 -1.2665 5.51763e-21 0.0716903)
(1.50461 -0.0766493 -4.83644e-21 -1.25413 1.38524e-21 0.0990762)
(1.54672 -0.022127 1.09616e-20 -1.2662 -1.58383e-21 0.111085)
(1.60697 0.0649896 1.29152e-20 -1.25152 8.73529e-21 0.141053)
(1.44233 -0.104774 -6.42751e-21 -1.24956 1.36125e-21 0.0760083)
(1.46848 -0.0748007 2.22099e-22 -1.24476 9.43372e-22 0.0883805)
(1.48917 -0.0201327 1.08947e-21 -1.25151 -1.31626e-21 0.093954)
(1.51918 0.065908 -1.15257e-20 -1.24441 1.79114e-20 0.108793)
(1.43481 -0.104057 4.79891e-22 -1.23337 -2.59306e-21 0.0794795)
(1.43222 -0.0728497 1.97174e-20 -1.23585 -5.9524e-21 0.0774514)
(1.43235 -0.0180725 -3.63241e-21 -1.23747 1.73351e-21 0.076854)
(1.43338 0.066811 -9.45544e-21 -1.23766 6.6553e-21 0.0771864)
(1.42589 -0.103274 -1.19449e-20 -1.21792 2.22396e-20 0.082096)
(1.39582 -0.0708084 -1.98533e-21 -1.22734 -8.64069e-22 0.0663058)
(1.37632 -0.0159468 -1.1312e-20 -1.22407 1.85525e-21 0.0598122)
(1.34965 0.0677144 9.41604e-21 -1.23123 1.96204e-21 0.0462855)
(1.41552 -0.10244 1.21223e-20 -1.20317 -2.73521e-20 0.083854)
(1.35929 -0.0686874 8.68678e-21 -1.21919 2.31697e-22 0.0549627)
(1.32109 -0.0137582 -4.11757e-21 -1.21126 2.05308e-21 0.0428571)
(1.26808 0.068628 -5.57099e-21 -1.22506 -3.38726e-20 0.0161411)
(1.40365 -0.101567 5.38236e-21 -1.18909 1.81225e-20 0.0847487)
(1.32262 -0.0664959 -2.79494e-20 -1.21135 4.30762e-21 0.0434382)
(1.26671 -0.0115104 4.87593e-21 -1.19901 -1.37292e-21 0.0260137)
(1.18873 0.0695567 9.47797e-21 -1.21909 2.73721e-20 -0.0132016)
(1.39023 -0.100661 -8.74556e-21 -1.17562 -2.63712e-21 0.0847767)
(1.2858 -0.0642421 7.29024e-21 -1.20378 -4.06327e-21 0.0317478)
(1.21317 -0.00920824 1.16951e-20 -1.18727 -2.54638e-21 0.00930535)
(1.11164 0.0705026 -1.29292e-20 -1.21328 -1.74234e-20 -0.0417009)
(1.37523 -0.0997287 2.07013e-20 -1.16274 2.09481e-21 0.0839347)
(1.24883 -0.0619333 -1.56078e-20 -1.19643 3.07105e-21 0.019905)
(1.1605 -0.0068569 2.7342e-21 -1.17601 -1.25471e-22 -0.00724706)
(1.03687 0.0714658 -7.05527e-21 -1.20758 7.14778e-21 -0.0693195)
(1.3586 -0.0987738 -5.4513e-21 -1.1504 -2.00987e-21 0.0822198)
(1.21168 -0.0595762 -2.10438e-20 -1.18926 6.45352e-21 0.00792227)
(1.1087 -0.00446169 3.8632e-20 -1.16518 -6.24638e-21 -0.0236249)
(0.964446 0.0724453 -7.71119e-22 -1.20195 3.17888e-21 -0.0960243)
(1.34029 -0.0977998 1.24185e-20 -1.13859 -1.59448e-20 0.0796294)
(1.17435 -0.057177 -1.95873e-20 -1.18223 2.98138e-21 -0.00418979)
(1.05779 -0.00202804 -1.60286e-20 -1.15476 1.99239e-21 -0.0398118)
(0.894408 0.0734395 -4.22435e-21 -1.19634 -1.03218e-20 -0.121786)
(1.32028 -0.0968098 -9.03694e-21 -1.12727 1.44667e-20 0.076161)
(1.13684 -0.0547419 4.04954e-21 -1.17532 -3.8451e-21 -0.0164217)
(1.00777 0.000438575 1.30682e-21 -1.14471 -2.14227e-21 -0.0557934)
(0.826783 0.0744465 5.5876e-22 -1.19072 9.57705e-21 -0.146579)
(1.29854 -0.0958066 -1.2162e-20 -1.11642 6.45861e-21 0.0718131)
(1.09912 -0.0522769 5.92649e-21 -1.16848 -2.43298e-21 -0.0287651)
(0.958641 0.00293253 -6.14243e-21 -1.13502 3.0984e-21 -0.0715573)
(0.761596 0.0754644 3.60565e-21 -1.18506 -7.23282e-21 -0.170381)
(1.27505 -0.0947935 -5.39992e-21 -1.10601 -1.44932e-20 0.0665845)
(1.0612 -0.0497883 1.55879e-20 -1.16169 -6.11242e-21 -0.0412129)
(0.910412 0.00544793 9.8258e-22 -1.12565 5.50289e-22 -0.0870925)
(0.698864 0.0764908 4.74927e-21 -1.17934 -1.30527e-20 -0.193175)
(1.24978 -0.0937734 -4.59818e-21 -1.09603 1.51161e-20 0.0604753)
(1.02306 -0.0472829 3.56996e-21 -1.15494 -3.32428e-21 -0.0537584)
(0.863081 0.00797851 -2.51093e-20 -1.11658 5.90864e-21 -0.10239)
(0.638601 0.0775235 7.7144e-21 -1.17352 1.35545e-20 -0.214944)
(1.22271 -0.0927498 9.96972e-21 -1.08646 -9.75849e-22 0.053487)
(0.984696 -0.044768 9.02757e-21 -1.14819 -3.59109e-21 -0.0663957)
(0.81665 0.0105175 6.59136e-21 -1.1078 -3.50271e-21 -0.117442)
(0.580814 0.0785601 1.24913e-21 -1.16759 2.87025e-21 -0.235676)
(1.19385 -0.0917265 -9.67215e-21 -1.07727 1.54089e-20 0.045623)
(0.946111 -0.0422513 1.26806e-21 -1.14143 -2.11432e-21 -0.0791193)
(0.771115 0.0130574 -9.34222e-21 -1.09929 3.72125e-21 -0.132242)
(0.525505 0.0795979 -5.34209e-21 -1.16152 -7.90531e-21 -0.255365)
(1.16318 -0.0907073 3.50514e-21 -1.06846 -2.4072e-20 0.0368887)
(0.907297 -0.0397414 -1.76937e-20 -1.13465 1.23602e-20 -0.091924)
(0.726473 0.0155903 1.89718e-20 -1.09103 -2.34152e-21 -0.146786)
(0.472668 0.080634 -5.31993e-21 -1.1553 -3.67823e-22 -0.274005)
(1.13072 -0.0896966 4.7402e-21 -1.06001 2.22851e-20 0.0272925)
(0.868253 -0.0372475 8.54586e-22 -1.12783 -2.20199e-21 -0.104804)
(0.682718 0.0181073 8.07952e-21 -1.083 -3.89708e-21 -0.161068)
(0.422291 0.0816654 -6.8539e-21 -1.14892 -4.67055e-21 -0.291595)
(1.09647 -0.088699 -1.28492e-21 -1.0519 -1.6277e-21 0.0168453)
(0.828979 -0.0347797 2.54909e-21 -1.12095 -1.19228e-22 -0.117755)
(0.63984 0.020599 -2.46018e-21 -1.07519 -1.95398e-23 -0.175087)
(0.374353 0.0826886 -4.49616e-21 -1.14236 6.41152e-21 -0.30814)
(1.06045 -0.0877195 -7.83914e-21 -1.04411 -2.13331e-20 0.00556185)
(0.789478 -0.0323484 -9.36178e-22 -1.11401 -9.80914e-22 -0.130771)
(0.59783 0.0230554 -7.38033e-21 -1.06758 3.5669e-21 -0.18884)
(0.328823 0.0837003 4.70395e-21 -1.13562 -1.50213e-21 -0.323646)
(1.0227 -0.0867632 8.48337e-21 -1.03663 1.07896e-20 -0.00653983)
(0.749753 -0.0299649 -3.75687e-22 -1.10699 2.34427e-21 -0.143846)
(0.556672 0.0254658 -3.01066e-21 -1.06016 -3.58656e-23 -0.202328)
(0.285664 0.0846967 -2.21482e-21 -1.12867 7.42196e-22 -0.338125)
(0.983254 -0.0858357 -2.75099e-21 -1.02945 -8.04868e-22 -0.0194376)
(0.709812 -0.0276409 2.3137e-21 -1.09989 -1.2795e-21 -0.156975)
(0.51635 0.0278191 1.27816e-20 -1.05291 -1.49654e-21 -0.215551)
(0.244826 0.0856741 -3.69952e-21 -1.12153 -1.60387e-20 -0.351595)
(0.942154 -0.0849427 2.06311e-21 -1.02254 1.06377e-21 -0.0331051)
(0.669662 -0.0253885 -1.82508e-21 -1.0927 -2.0914e-21 -0.170149)
(0.476845 0.0301037 -2.9793e-21 -1.04582 2.90689e-22 -0.228511)
(0.20625 0.0866286 -4.75528e-21 -1.11417 1.45567e-20 -0.364077)
(0.899461 -0.0840901 -2.42445e-21 -1.01588 6.9219e-22 -0.0475118)
(0.629314 -0.0232202 3.39677e-21 -1.0854 4.34666e-22 -0.183363)
(0.438133 0.032308 -1.44971e-21 -1.03888 -4.22994e-23 -0.241211)
(0.169864 0.0875563 4.3594e-21 -1.1066 1.71601e-20 -0.375597)
(0.855242 -0.0832838 -1.111e-21 -1.00946 -5.91051e-21 -0.0626226)
(0.58878 -0.0211486 5.77425e-21 -1.078 -2.15366e-21 -0.196608)
(0.400187 0.03442 -3.84046e-21 -1.03206 1.08077e-21 -0.253654)
(0.135589 0.0884533 -4.07084e-22 -1.09882 -1.33468e-20 -0.386188)
(0.809575 -0.0825301 1.43332e-21 -1.00325 6.70484e-21 -0.0783976)
(0.548075 -0.0191862 -3.9587e-21 -1.07048 1.47838e-21 -0.209877)
(0.362978 0.0364279 5.63368e-21 -1.02534 -1.29138e-21 -0.265846)
(0.10333 0.0893161 -3.63374e-21 -1.09082 1.81984e-20 -0.395885)
(0.762546 -0.081835 1.28724e-21 -0.997227 4.68795e-21 -0.0947926)
(0.507215 -0.0173454 -2.24233e-21 -1.06285 -1.1472e-22 -0.22316)
(0.326471 0.0383204 -8.62691e-22 -1.01872 3.77522e-22 -0.277793)
(0.0729854 0.0901411 -1.23302e-21 -1.0826 -2.10998e-20 -0.404729)
(0.714252 -0.0812048 -5.15266e-21 -0.991367 -5.47576e-21 -0.111759)
(0.466219 -0.015638 4.71667e-21 -1.05509 -1.1258e-21 -0.236447)
(0.290631 0.0400865 1.96587e-22 -1.01217 -1.20904e-22 -0.289502)
(0.0444385 0.0909254 -2.71165e-21 -1.07416 8.88729e-21 -0.412768)
(0.664796 -0.0806453 2.7497e-22 -0.985642 1.60999e-21 -0.129244)
(0.425106 -0.0140753 -3.40166e-22 -1.04719 9.32695e-22 -0.249728)
(0.255415 0.0417161 -1.11076e-21 -1.00566 -6.92962e-22 -0.300981)
(0.0175642 0.0916664 1.48876e-21 -1.06551 -4.92742e-21 -0.420052)
(0.614292 -0.0801624 1.49871e-21 -0.980022 -4.46544e-21 -0.14719)
(0.383897 -0.0126674 2.64218e-21 -1.03916 -4.24424e-22 -0.262993)
(0.22078 0.0432004 -8.90153e-22 -0.999183 1.30287e-21 -0.312238)
(-0.00777327 0.0923622 7.83182e-22 -1.05664 9.67786e-22 -0.426635)
(0.562859 -0.0797618 -4.57388e-21 -0.974475 -8.34173e-21 -0.165537)
(0.342613 -0.0114232 1.01494e-21 -1.03098 -3.61219e-23 -0.27623)
(0.186678 0.0445316 -8.88329e-21 -0.992709 1.66631e-21 -0.323284)
(-0.0317185 0.0930118 4.94061e-21 -1.04756 -4.93735e-22 -0.432576)
(0.510619 -0.0794487 2.81663e-21 -0.968966 1.08788e-20 -0.184222)
(0.301276 -0.0103506 5.82268e-21 -1.02265 -2.73459e-21 -0.289426)
(0.153059 0.0457039 1.85442e-21 -0.986212 2.11706e-22 -0.334128)
(-0.0544242 0.0936151 1.19912e-21 -1.03827 -9.97651e-21 -0.437936)
(0.457702 -0.0792284 -2.02717e-21 -0.963459 3.01008e-21 -0.20318)
(0.259907 -0.0094557 6.42969e-22 -1.01416 3.08445e-22 -0.302569)
(0.119868 0.0467128 -2.03637e-21 -0.979665 -6.43861e-22 -0.34478)
(-0.07605 0.094173 -2.75038e-21 -1.02876 1.04576e-20 -0.442778)
(0.404236 -0.0791059 1.13022e-20 -0.957914 -8.87004e-21 -0.222341)
(0.218527 -0.0087436 -3.53409e-21 -1.00549 1.24321e-21 -0.315647)
(0.08705 0.0475556 1.14759e-21 -0.973036 -1.41961e-21 -0.35525)
(-0.096761 0.0946876 -3.82325e-21 -1.01903 3.93845e-21 -0.447168)
(0.350352 -0.0790867 4.43653e-21 -0.952288 4.84406e-21 -0.241638)
(0.177154 -0.00821821 -4.2792e-21 -0.996624 -1.93804e-23 -0.328646)
(0.0545438 0.0482311 -7.9107e-21 -0.966292 3.08954e-21 -0.365551)
(-0.116728 0.0951623 8.39301e-21 -1.00909 -6.44347e-21 -0.451172)
(0.296179 -0.0791764 -4.17297e-21 -0.946536 -4.54297e-21 -0.261)
(0.135805 -0.00788265 -7.4008e-21 -0.987553 1.6323e-21 -0.341551)
(0.0222873 0.0487392 -2.31472e-21 -0.959396 -4.41093e-22 -0.37569)
(-0.136123 0.0956016 -1.93122e-21 -0.998911 1.06133e-22 -0.454856)
(0.241841 -0.0793819 7.67002e-21 -0.940609 -8.2058e-21 -0.280358)
(0.0944941 -0.00773978 8.07758e-21 -0.978253 -1.21078e-21 -0.35435)
(-0.00978657 0.0490814 6.88503e-21 -0.952307 2.07263e-21 -0.385679)
(-0.155127 0.0960117 -5.55842e-21 -0.988494 -1.21745e-21 -0.458286)
(0.187466 -0.0797106 -1.0206e-20 -0.934448 8.69257e-21 -0.299638)
(0.0532306 -0.00779238 -5.6525e-21 -0.968693 9.92453e-22 -0.367026)
(-0.0417472 0.0492594 -3.79697e-22 -0.944975 -9.32918e-23 -0.395525)
(-0.17392 0.0963999 -1.15285e-20 -0.977815 4.3653e-21 -0.461527)
(0.133168 -0.080173 -2.595e-21 -0.927995 6.44538e-21 -0.318769)
(0.0120187 -0.00804393 1.0826e-20 -0.958841 -1.72054e-21 -0.379564)
(-0.0736713 0.0492762 3.84165e-21 -0.93735 -3.88375e-22 -0.40524)
(-0.19269 0.0967763 4.90853e-21 -0.966854 -3.46683e-21 -0.464647)
(0.0790655 -0.0807804 -6.35488e-21 -0.921175 -7.30839e-21 -0.337676)
(-0.0291406 -0.00849849 -2.68475e-21 -0.948652 7.76035e-22 -0.391947)
(-0.105638 0.0491355 -9.38539e-21 -0.929364 4.84998e-21 -0.414828)
(-0.211627 0.0971523 9.46074e-22 -0.955573 1.1697e-21 -0.467705)
(0.0252609 -0.0815501 3.65351e-21 -0.913912 3.81186e-21 -0.356287)
(-0.0702597 -0.00916197 -1.519e-20 -0.938074 2.93362e-22 -0.404158)
(-0.137741 0.0488432 8.65047e-21 -0.920948 -5.71542e-21 -0.424298)
(-0.230934 0.097545 2.45067e-21 -0.943935 4.95304e-21 -0.470768)
(-0.028139 -0.0825017 -3.88122e-21 -0.906103 -5.27395e-23 -0.374517)
(-0.111355 -0.0100422 8.75709e-21 -0.927031 -1.42588e-21 -0.416173)
(-0.170076 0.0484074 8.51336e-22 -0.912006 1.76435e-21 -0.43365)
(-0.250811 0.0979741 -1.73324e-21 -0.931874 -2.67057e-21 -0.47389)
(-0.0810515 -0.0836675 1.02422e-20 -0.89764 -1.30862e-21 -0.392292)
(-0.152471 -0.0111526 -2.743e-20 -0.915436 5.02744e-21 -0.427977)
(-0.20277 0.0478431 2.69446e-20 -0.902431 -3.40485e-21 -0.442893)
(-0.271483 0.0984724 -1.78219e-20 -0.919322 -1.24074e-21 -0.477133)
(-0.133375 -0.0850897 -6.22794e-21 -0.888361 2.37755e-21 -0.409504)
(-0.193666 -0.0125171 9.90469e-21 -0.903147 -3.70483e-21 -0.439534)
(-0.235959 0.0471778 -9.20943e-21 -0.892063 1.56603e-21 -0.452016)
(-0.293153 0.0990836 9.14973e-21 -0.906154 -2.03295e-21 -0.480529)
(-0.185035 -0.0868461 2.33039e-20 -0.878089 -1.35135e-21 -0.426054)
(-0.23509 -0.0141842 -1.24064e-20 -0.889995 3.62952e-21 -0.450838)
(-0.269873 0.0464657 1.77776e-20 -0.880712 5.75748e-22 -0.461037)
(-0.316048 0.0998873 8.77785e-21 -0.892233 -1.94497e-21 -0.484115)
(-0.235856 -0.0890711 -1.52921e-20 -0.866505 -4.63123e-21 -0.441744)
(-0.276929 -0.016264 -6.38887e-21 -0.875643 4.73349e-22 -0.461827)
(-0.304773 0.0458256 8.02192e-21 -0.868027 -3.44612e-21 -0.469918)
(-0.34029 0.101021 -2.14499e-20 -0.877281 3.10874e-21 -0.487826)
(-0.285621 -0.0920115 6.46263e-21 -0.853182 8.38756e-21 -0.456316)
(-0.31983 -0.0189714 2.59998e-20 -0.859693 -2.57441e-21 -0.472603)
(-0.341383 0.0454844 -1.572e-20 -0.853589 2.21174e-21 -0.478782)
(-0.365948 0.102736 1.21161e-20 -0.860908 3.67077e-22 -0.491536)
(-0.333508 -0.0962247 1.26008e-20 -0.837266 -3.2504e-21 -0.469099)
(-0.364388 -0.0228051 5.28294e-22 -0.841138 -4.84725e-22 -0.483)
(-0.380365 0.0459573 -1.34991e-20 -0.836375 4.51148e-21 -0.487485)
(-0.392478 0.105595 8.96379e-21 -0.842301 1.86577e-21 -0.494701)
(-0.37848 -0.102428 1.69095e-20 -0.817265 -4.034e-21 -0.479084)
(-0.413927 -0.0284244 2.81135e-21 -0.819388 1.92113e-21 -0.494111)
(-0.425105 0.047926 -3.32416e-21 -0.815779 6.18195e-23 -0.497139)
(-0.419102 0.110321 -9.43234e-21 -0.820006 -1.44916e-21 -0.496428)
(-0.416091 -0.112453 -2.34943e-21 -0.790588 -2.46486e-21 -0.483453)
(-0.468614 -0.0369924 1.00149e-20 -0.792009 -2.68299e-21 -0.50503)
(-0.475811 0.0525837 -3.16385e-21 -0.78935 1.13888e-21 -0.506846)
(-0.441602 0.118755 1.26356e-20 -0.791484 -1.49491e-21 -0.494016)
(-0.446674 -0.123774 -2.13177e-21 -0.754732 1.36312e-21 -0.48134)
(-0.544326 -0.0466052 7.15724e-21 -0.767779 -6.16333e-22 -0.52562)
(-0.548399 0.0580846 -1.46651e-20 -0.765858 1.13054e-21 -0.526481)
(-0.460553 0.128376 7.08373e-21 -0.754285 -8.56709e-22 -0.486713)
(-0.451787 -0.131726 -1.79968e-22 -0.721943 3.57937e-22 -0.470265)
(-0.608244 -0.0525714 1.88058e-20 -0.761522 -4.00475e-21 -0.548682)
(-0.609955 0.0597748 -5.82352e-21 -0.760062 -2.6095e-21 -0.548783)
(-0.457513 0.134593 2.4212e-21 -0.720686 7.53115e-22 -0.472053)
(-0.514916 -0.0912779 6.26555e-21 -0.782204 -2.77659e-21 -0.519621)
(-0.723331 -0.0393899 4.10461e-21 -0.922614 -5.86901e-22 -0.659157)
(-0.723729 0.0420566 -3.15926e-22 -0.92109 1.97722e-21 -0.658707)
(-0.516452 0.0927078 -7.42351e-21 -0.780294 8.76357e-22 -0.519471)
)
;

boundaryField
{
    plateFix
    {
        type            calculated;
        value           nonuniform List<symmTensor> 4((1.46104 0.919126 -1.0651e-21 -0.0441688 7.84469e-20 0.565748) (1.40255 0.438048 -6.20505e-24 0.599389 3.47491e-23 0.799979) (1.85306 -0.335556 3.83389e-23 0.786067 -4.55311e-23 1.05484) (3.53107 -1.23147 -1.56629e-21 0.695971 -1.55263e-19 1.68957));
    }
    plate
    {
        type            calculated;
        value           nonuniform List<symmTensor> 
168
(
(0.670495 0.00160649 -1.53464e-23 -1.18909 -5.25825e-22 -0.208567)
(2.24655 -0.00222695 -7.64361e-22 -1.19199 -9.54962e-20 0.420516)
(0.75447 0.00380348 1.31073e-21 -1.18626 7.20215e-21 -0.173844)
(2.39436 -0.00435261 1.1214e-21 -1.18916 1.12382e-19 0.480761)
(0.884777 0.00676306 -3.10814e-21 -1.18748 6.65032e-21 -0.12221)
(2.5934 -0.00723912 -4.5974e-21 -1.19038 -1.0666e-19 0.559866)
(0.947631 0.0095445 5.90935e-22 -1.19225 6.27132e-24 -0.0989793)
(2.67219 -0.00995399 4.66452e-21 -1.19514 1.0178e-19 0.589463)
(1.00662 0.011569 1.54133e-22 -1.19996 9.5961e-20 -0.0784736)
(2.73208 -0.0119561 5.97562e-22 -1.20285 -8.94299e-20 0.610327)
(1.05219 0.0124926 1.15877e-21 -1.21032 -8.95111e-20 -0.0643907)
(2.76114 -0.0128853 -1.79896e-21 -1.21321 -3.40254e-22 0.617802)
(1.09652 0.0120941 -8.06552e-22 -1.22304 -4.11649e-22 -0.0517496)
(2.78041 -0.0125181 1.76691e-21 -1.22593 1.03842e-20 0.620415)
(1.13892 0.010237 3.0126e-22 -1.23782 -7.93684e-20 -0.0407043)
(2.79093 -0.010711 -1.18588e-21 -1.24071 9.02309e-20 0.61871)
(1.18078 0.00686147 -1.29664e-21 -1.25429 1.46892e-19 -0.0305543)
(2.79646 -0.00740096 -1.21186e-21 -1.25719 -8.22456e-21 0.614328)
(1.22119 0.00197359 6.81081e-22 -1.27203 -1.27599e-19 -0.021492)
(2.79684 -0.00259042 -9.18883e-23 -1.27493 -6.78296e-20 0.607384)
(1.25956 -0.00435555 -1.30319e-21 -1.2905 5.47722e-20 -0.013538)
(2.79202 0.00365195 -2.96685e-22 -1.29341 6.31538e-20 0.598063)
(1.29518 -0.0119866 4.3778e-22 -1.30909 2.80607e-22 -0.00672825)
(2.78138 0.0111887 2.32565e-21 -1.31199 -5.65709e-20 0.586374)
(1.32764 -0.02071 3.62393e-22 -1.32707 1.65216e-22 -0.000940789)
(2.76452 0.019812 -6.55532e-22 -1.32998 5.26897e-20 0.572436)
(1.35675 -0.0302491 4.24213e-22 -1.34371 -2.12586e-25 0.00404401)
(2.74113 0.0292466 5.35079e-22 -1.34662 -4.7098e-20 0.556429)
(1.38249 -0.0402724 9.85935e-22 -1.35826 1.45051e-22 0.00852057)
(2.7111 0.0391625 8.49324e-22 -1.36118 1.07086e-20 0.538599)
(1.40498 -0.0504134 -6.43175e-22 -1.37005 3.78982e-20 0.012798)
(2.67438 0.0491948 -4.75087e-22 -1.37298 4.74202e-20 0.519198)
(1.42436 -0.060301 4.18322e-22 -1.37856 -3.3921e-20 0.0171434)
(2.63099 0.058974 3.45088e-21 -1.38151 -1.73275e-20 0.498439)
(1.44079 -0.0695809 2.21852e-21 -1.38343 -9.28679e-22 0.021773)
(2.58096 0.0681478 -4.09832e-21 -1.38639 -6.04992e-20 0.476485)
(1.45436 -0.0779778 -4.19527e-21 -1.38457 9.4121e-25 0.0267443)
(2.52426 0.0764427 -1.20281e-21 -1.38757 5.07487e-20 0.453347)
(1.46537 -0.0852247 -2.61283e-22 -1.38196 4.39158e-23 0.0321934)
(2.46108 0.0835939 3.56117e-21 -1.385 -4.47356e-23 0.429117)
(1.47356 -0.0912966 4.12794e-21 -1.37625 -3.71346e-20 0.0377566)
(2.39116 0.0895782 -2.41889e-21 -1.37934 1.96332e-21 0.403429)
(1.47983 -0.0958765 -2.02258e-21 -1.36718 3.32058e-20 0.0438959)
(2.31521 0.0940798 -3.61368e-22 -1.37034 -5.96779e-25 0.376669)
(1.48301 -0.0999486 -5.30963e-21 -1.35635 -2.88534e-20 0.0495083)
(2.22936 0.0980832 4.44578e-21 -1.35959 -1.44606e-21 0.346651)
(1.48453 -0.103634 2.30444e-21 -1.34126 3.01712e-20 0.0561611)
(2.13811 0.101715 -5.47923e-21 -1.34458 -2.76888e-20 0.316172)
(1.48319 -0.105951 1.16391e-21 -1.3264 -1.36492e-23 0.0615715)
(2.04605 0.103995 7.07871e-21 -1.32983 2.76623e-20 0.28527)
(1.48037 -0.107588 8.54063e-21 -1.31135 2.41468e-21 0.06647)
(1.95481 0.10561 -6.84796e-21 -1.31488 1.08085e-22 0.254775)
(1.47592 -0.108674 -7.25481e-21 -1.29681 -1.05816e-23 0.070516)
(1.86431 0.106688 -8.75418e-21 -1.30043 1.47479e-22 0.22437)
(1.47022 -0.109425 -1.63382e-20 -1.28278 -2.85553e-20 0.0738518)
(1.77507 0.107442 2.82134e-21 -1.2865 6.39755e-23 0.194265)
(1.46324 -0.109933 6.2374e-21 -1.2694 2.42333e-20 0.0764224)
(1.68723 0.107965 4.01897e-21 -1.27321 -2.73612e-22 0.164461)
(1.45507 -0.110283 2.68233e-21 -1.25664 -1.29137e-23 0.0782624)
(1.601 0.108341 1.29215e-20 -1.26055 2.61669e-20 0.135052)
(1.44569 -0.110524 -6.4275e-21 -1.24451 -3.53877e-23 0.0793666)
(1.5165 0.108617 -1.15402e-20 -1.2485 -2.6092e-20 0.106088)
(1.43507 -0.110693 4.8115e-22 -1.23297 -2.72933e-25 0.079745)
(1.43385 0.108828 -9.45631e-21 -1.23703 3.21648e-24 0.0776315)
(1.42318 -0.110813 -1.19478e-20 -1.22196 1.26886e-20 0.079399)
(1.35314 0.108998 9.41888e-21 -1.22609 1.28204e-20 0.0497333)
(1.40998 -0.110899 1.21274e-20 -1.21144 -1.26336e-20 0.0783321)
(1.27442 0.109141 -5.56818e-21 -1.21564 -2.55638e-20 0.0224422)
(1.39543 -0.110963 5.3765e-21 -1.20137 2.89878e-23 0.0765461)
(1.19777 0.109268 9.47274e-21 -1.20562 1.28372e-20 -0.00419913)
(1.37948 -0.111012 -8.74378e-21 -1.1917 -4.58761e-23 0.0740428)
(1.12323 0.109384 -1.29215e-20 -1.196 4.21206e-24 -0.0301515)
(1.3621 -0.111048 2.07043e-20 -1.18238 1.24213e-20 0.0708232)
(1.05085 0.109492 -7.0546e-21 -1.18671 1.21795e-20 -0.0553805)
(1.34324 -0.111075 -5.45559e-21 -1.17338 -1.23429e-20 0.066888)
(0.980654 0.109595 -7.78142e-22 -1.17773 -1.41737e-20 -0.0798555)
(1.32288 -0.111095 1.24239e-20 -1.16466 -5.1574e-23 0.0622378)
(0.912683 0.109694 -4.22169e-21 -1.16903 1.06162e-24 -0.10355)
(1.30097 -0.111109 -9.04128e-21 -1.15618 -1.97467e-21 0.0568728)
(0.846962 0.109789 5.5874e-22 -1.16056 1.12664e-20 -0.12644)
(1.2775 -0.111118 -1.21632e-20 -1.14792 3.7077e-24 0.0507934)
(0.783511 0.109882 3.60409e-21 -1.15229 -1.21522e-20 -0.148506)
(1.25244 -0.111123 -5.39906e-21 -1.13986 -1.18784e-20 0.0440005)
(0.722346 0.109972 4.75418e-21 -1.14422 -1.89572e-23 -0.169732)
(1.22577 -0.111126 -4.59576e-21 -1.13197 2.37808e-20 0.0364954)
(0.663481 0.11006 7.71449e-21 -1.1363 1.11215e-20 -0.190103)
(1.19748 -0.111127 9.96648e-21 -1.12424 -1.27945e-20 0.0282808)
(0.606921 0.110146 1.24558e-21 -1.12853 -1.19073e-20 -0.209608)
(1.16755 -0.111128 -9.67355e-21 -1.11663 1.08276e-20 0.0193605)
(0.552667 0.110232 -5.34031e-21 -1.12088 -2.30187e-22 -0.228241)
(1.136 -0.111129 3.5053e-21 -1.10915 -2.34496e-20 0.00973995)
(0.500715 0.110318 -5.32329e-21 -1.11333 -1.23967e-20 -0.245996)
(1.10282 -0.111132 4.73806e-21 -1.10177 1.16967e-20 -0.000573119)
(0.451052 0.110404 -6.85238e-21 -1.10588 5.56224e-24 -0.262872)
(1.06802 -0.111137 -1.28229e-21 -1.09448 1.07188e-20 -0.0115688)
(0.403658 0.110491 -4.49474e-21 -1.0985 1.14561e-20 -0.278871)
(1.03162 -0.111147 -7.83755e-21 -1.08727 -1.1702e-20 -0.0232344)
(0.358506 0.110581 4.70439e-21 -1.09119 2.75477e-23 -0.294)
(0.993654 -0.111161 8.48155e-21 -1.08012 -1.52962e-24 -0.0355544)
(0.315559 0.110673 -2.21507e-21 -1.08393 2.83242e-23 -0.308267)
(0.954147 -0.111182 -2.75263e-21 -1.07302 -1.1276e-20 -0.04851)
(0.274771 0.110769 -3.69644e-21 -1.0767 -1.78801e-22 -0.321685)
(0.913146 -0.111211 2.06312e-21 -1.06596 7.47155e-23 -0.0620792)
(0.236087 0.11087 -4.75964e-21 -1.0695 -1.13553e-20 -0.334273)
(0.870703 -0.111248 -2.42321e-21 -1.05893 1.17158e-20 -0.0762363)
(0.199442 0.110977 4.36034e-21 -1.06232 2.23108e-20 -0.346052)
(0.82688 -0.111296 -1.11009e-21 -1.05192 -3.64261e-22 -0.0909521)
(0.164761 0.111091 -4.05128e-22 -1.05514 -7.64869e-23 -0.357048)
(0.781747 -0.111357 1.43257e-21 -1.04491 3.76947e-22 -0.106194)
(0.131957 0.111213 -3.63721e-21 -1.04796 -1.11346e-20 -0.36729)
(0.735383 -0.111431 1.28675e-21 -1.03789 -1.28211e-25 -0.121925)
(0.100933 0.111347 -1.23034e-21 -1.04075 2.70906e-22 -0.376812)
(0.687876 -0.111521 -5.15227e-21 -1.03085 -3.89961e-22 -0.138104)
(0.0715839 0.111492 -2.71209e-21 -1.03352 1.10021e-20 -0.385652)
(0.639321 -0.111628 2.74981e-22 -1.02378 1.33927e-22 -0.154689)