/*--------------------------------*- C++ -*----------------------------------*\
| =========                 |                                                 |
| \\      /  F ield         | OpenFOAM Extend Project: Open source CFD        |
|  \\    /   O peration     | Version:  1.6-ext                               |
|   \\  /    A nd           | Web:      www.extend-project.de                 |
|    \\/     M anipulation  |                                                 |
\*---------------------------------------------------------------------------*/
FoamFile
{
    version     2.0;
    format      ascii;
    class       volScalarField;
    location    "0.1";
    object      sigmaEq;
}
// * * * * * * * * * * * * * * * * * * * * * * * * * * * * * * * * * * * * * //

dimensions      [1 -1 -2 0 0 0 0];

internalField   nonuniform List<scalar> 
328
(
1.7884
1.03777
1.21213
2.99418
1.73164
1.35304
1.73095
3.0314
1.78587
1.7314
2.2223
3.17681
1.84609
2.02246
2.55624
3.27067
1.91903
2.25945
2.80739
3.35317
1.98283
2.42951
2.97401
3.40645
2.04204
2.55018
3.08444
3.44536
2.09629
2.62945
3.15009
3.47275
2.14772
2.67965
3.18578
3.49343
2.19673
2.70982
3.2011
3.50869
2.24351
2.72787
3.20418
3.51918
2.28771
2.73924
3.20024
3.52457
2.32883
2.74745
3.1926
3.52432
2.36629
2.75416
3.1827
3.51774
2.39952
2.75974
3.17074
3.50414
2.428
2.76363
3.15605
3.48291
2.45131
2.7648
3.13753
3.45353
2.46916
2.76213
3.11404
3.41564
2.48141
2.75467
3.08459
3.36904
2.48817
2.74179
3.04854
3.31378
2.48969
2.72321
3.00564
3.2501
2.48642
2.69893
2.95585
3.17837
2.47861
2.668
2.89723
3.09646
2.46572
2.63129
2.83164
3.00638
2.45037
2.59264
2.76489
2.91568
2.4335
2.553
2.69791
2.82546
2.41561
2.51292
2.63125
2.73624
2.39706
2.47278
2.56533
2.6485
2.37798
2.43276
2.50038
2.56247
2.35842
2.39296
2.43654
2.47835
2.33839
2.35343
2.37388
2.39623
2.31783
2.31415
2.31244
2.31617
2.29669
2.2751
2.25223
2.23822
2.27489
2.23624
2.19325
2.1624
2.25237
2.19754
2.13548
2.08871
2.22904
2.15893
2.07891
2.01716
2.20483
2.12038
2.02351
1.94775
2.17969
2.08184
1.96926
1.88048
2.15355
2.04327
1.91615
1.81534
2.12637
2.00463
1.86415
1.75232
2.09808
1.96589
1.81325
1.69142
2.06866
1.92703
1.76343
1.63264
2.03808
1.88801
1.71467
1.57595
2.0063
1.84882
1.66696
1.52136
1.9733
1.80944
1.62029
1.46883
1.93907
1.76985
1.57463
1.41836
1.90359
1.73004
1.52997
1.36992
1.86688
1.69
1.4863
1.32348
1.82893
1.64972
1.44357
1.27899
1.78976
1.6092
1.40178
1.23642
1.74938
1.56844
1.3609
1.19572
1.70784
1.52744
1.32089
1.15682
1.66515
1.4862
1.28172
1.11966
1.62137
1.44473
1.24335
1.08416
1.57655
1.40304
1.20575
1.05024
1.53075
1.36114
1.16886
1.0178
1.48403
1.31904
1.13263
0.98675
1.43647
1.27675
1.09702
0.956971
1.38814
1.23429
1.06196
0.928349
1.33912
1.19167
1.02739
0.900759
1.28951
1.14891
0.993236
0.874072
1.23938
1.10601
0.959438
0.848152
1.18884
1.06299
0.925916
0.822859
1.13795
1.01985
0.89259
0.798048
1.08682
0.9766
0.859376
0.773572
1.03552
0.933236
0.826184
0.749278
0.984141
0.88975
0.792917
0.725009
0.932747
0.846125
0.759469
0.700606
0.881413
0.802335
0.725726
0.675899
0.830203
0.75834
0.691558
0.650719
0.779173
0.714081
0.656816
0.624882
0.728377
0.66947
0.621327
0.598205
0.677863
0.624377
0.584871
0.570501
0.627695
0.578581
0.547152
0.5416
0.577984
0.531732
0.507749
0.511387
0.528943
0.48311
0.465901
0.479855
0.481279
0.431708
0.420605
0.447503
0.435872
0.375154
0.369545
0.414988
0.396858
0.313431
0.312785
0.386179
0.362467
0.246936
0.250313
0.358776
0.346972
0.210862
0.214885
0.346397
0.308549
0.247539
0.247626
0.307587
)
;

boundaryField
{
    plateFix
    {
        type            calculated;
        value           nonuniform List<scalar> 4(2.06252 1.04874 1.12327 3.27988);
    }
    plate
    {
        type            calculated;
        value           nonuniform List<scalar> 
168
(
1.61125
2.97977
1.68126
3.10582
1.7949
3.27993
1.85341
3.35257
1.91114
3.41131
1.95956
3.4455
2.00894
3.4732
2.05841
3.49506
2.10888
3.51402
2.1592
3.5296
2.20843
3.54132
2.25545
3.54812
2.29933
3.54906
2.33925
3.54326
2.37459
3.52999
2.40484
3.50862
2.42965
3.47872
2.44882
3.43997
2.46231
3.39228
2.47029
3.33572
2.47309
3.27064
2.4712
3.19737
2.46509
3.11401
2.45383
3.02232
2.44014
2.93004
2.42494
2.83828
2.4087
2.74757
2.39177
2.65839
2.37427
2.57098
2.35626
2.48552
2.33773
2.40211
2.31862
2.32082
2.29888
2.24169
2.27843
2.16474
2.25719
2.08999
2.23509
2.01743
2.21205
1.94708
2.18801
1.87893
2.16291
1.81296
2.13669
1.74919
2.10932
1.68761
2.08075
1.6282
2.05094
1.57095
2.01987
1.51587
1.98752
1.46292
1.95387
1.41209
1.91891
1.36336
1.88265
1.3167
1.84509
1.27206
1.80625
1.2294
1.76614
1.18868
1.72481
1.14983
1.68228
1.11278
1.63861
1.07746
1.59385
1.04378
1.54806
1.01166
1.50132
0.980977
1.45369
0.951632
1.40527
0.923506
1.35615
0.896473
1.30641
0.870401
1.25615
0.845155
1.20547
0.820592
1.15446
0.79657
1.10322
0.772939
1.05184
0.749548
1.00042
0.726245
0.949044
0.702872
0.8978
0.679269
0.846772
0.655274
0.796038
0.630719
0.745686
0.605444
0.695798
0.579284
0.646489
0.552112
0.597922
0.523849
0.550364
0.494523
0.504508
0.464591
0.460998
0.434463
0.423544
0.407628
0.390372
0.382159
0.387376
0.38388
0.378433
0.259421
0.240396
0.239211
0.257033
0.376932
)
;
    }
    frontAndBackPlanes
    {
        type            empty;
    }
}


// ************************************************************************* //
