/*--------------------------------*- C++ -*----------------------------------*\
| =========                 |                                                 |
| \\      /  F ield         | OpenFOAM Extend Project: Open source CFD        |
|  \\    /   O peration     | Version:  1.6-ext                               |
|   \\  /    A nd           | Web:      www.extend-project.de                 |
|    \\/     M anipulation  |                                                 |
\*---------------------------------------------------------------------------*/
FoamFile
{
    version     2.0;
    format      ascii;
    class       volVectorField;
    location    "0.1";
    object      Usolid;
}
// * * * * * * * * * * * * * * * * * * * * * * * * * * * * * * * * * * * * * //

dimensions      [0 1 0 0 0 0 0];

internalField   nonuniform List<vector> 
328
(
(4.48776e-08 1.65508e-07 0)
(3.01231e-08 4.44059e-08 0)
(3.99233e-08 -3.69876e-08 0)
(9.22504e-08 -2.2659e-07 0)
(1.35181e-07 4.20799e-07 0)
(1.06183e-07 1.1639e-07 0)
(1.40391e-07 -1.21832e-07 0)
(2.81248e-07 -5.85721e-07 0)
(2.45973e-07 6.00254e-07 0)
(2.24443e-07 1.69318e-07 0)
(2.93609e-07 -2.17727e-07 0)
(5.05913e-07 -8.64345e-07 0)
(3.68789e-07 7.11149e-07 0)
(3.70602e-07 1.96713e-07 0)
(4.79765e-07 -3.1928e-07 0)
(7.52159e-07 -1.08065e-06 0)
(5.06531e-07 7.64634e-07 0)
(5.47696e-07 1.95644e-07 0)
(7.02024e-07 -4.25154e-07 0)
(1.02339e-06 -1.25651e-06 0)
(6.58494e-07 7.68768e-07 0)
(7.50923e-07 1.63776e-07 0)
(9.53876e-07 -5.36473e-07 0)
(1.31753e-06 -1.40929e-06 0)
(8.26301e-07 7.29584e-07 0)
(9.79576e-07 9.99889e-08 0)
(1.23432e-06 -6.56671e-07 0)
(1.63599e-06 -1.55373e-06 0)
(1.01118e-06 6.50586e-07 0)
(1.23175e-06 3.17716e-09 0)
(1.54095e-06 -7.90511e-07 0)
(1.97966e-06 -1.70168e-06 0)
(1.21489e-06 5.33386e-07 0)
(1.50689e-06 -1.2791e-07 0)
(1.87309e-06 -9.43732e-07 0)
(2.35017e-06 -1.86325e-06 0)
(1.43912e-06 3.77752e-07 0)
(1.80472e-06 -2.95193e-07 0)
(2.23032e-06 -1.12258e-06 0)
(2.74912e-06 -2.04716e-06 0)
(1.68568e-06 1.81854e-07 0)
(2.12571e-06 -5.01441e-07 0)
(2.61311e-06 -1.3336e-06 0)
(3.17818e-06 -2.26131e-06 0)
(1.95636e-06 -5.76552e-08 0)
(2.47082e-06 -7.50462e-07 0)
(3.02234e-06 -1.58354e-06 0)
(3.63896e-06 -2.51307e-06 0)
(2.25291e-06 -3.45519e-07 0)
(2.84148e-06 -1.04716e-06 0)
(3.45939e-06 -1.87932e-06 0)
(4.13296e-06 -2.80958e-06 0)
(2.57709e-06 -6.87774e-07 0)
(3.23942e-06 -1.39752e-06 0)
(3.92591e-06 -2.22814e-06 0)
(4.66154e-06 -3.15798e-06 0)
(2.93065e-06 -1.09163e-06 0)
(3.66657e-06 -1.80863e-06 0)
(4.42369e-06 -2.63755e-06 0)
(5.22593e-06 -3.56565e-06 0)
(3.31532e-06 -1.56537e-06 0)
(4.12493e-06 -2.28854e-06 0)
(4.9545e-06 -3.11561e-06 0)
(5.82714e-06 -4.04042e-06 0)
(3.73279e-06 -2.11815e-06 0)
(4.61642e-06 -2.84621e-06 0)
(5.51999e-06 -3.67101e-06 0)
(6.46599e-06 -4.5907e-06 0)
(4.1848e-06 -2.75999e-06 0)
(5.14284e-06 -3.49146e-06 0)
(6.12161e-06 -4.31314e-06 0)
(7.14305e-06 -5.2257e-06 0)
(4.67303e-06 -3.50153e-06 0)
(5.70581e-06 -4.23482e-06 0)
(6.76052e-06 -5.05216e-06 0)
(7.85864e-06 -5.95542e-06 0)
(5.1992e-06 -4.35403e-06 0)
(6.30674e-06 -5.08752e-06 0)
(7.43758e-06 -5.89901e-06 0)
(8.61276e-06 -6.79073e-06 0)
(5.76511e-06 -5.3292e-06 0)
(6.94691e-06 -6.06129e-06 0)
(8.1534e-06 -6.86527e-06 0)
(9.40516e-06 -7.74328e-06 0)
(6.3725e-06 -6.43917e-06 0)
(7.62739e-06 -7.16836e-06 0)
(8.90826e-06 -7.96307e-06 0)
(1.02352e-05 -8.82522e-06 0)
(7.04831e-06 -7.74404e-06 0)
(8.37678e-06 -8.46881e-06 0)
(9.73254e-06 -9.25217e-06 0)
(1.11351e-05 -1.00958e-05 0)
(7.76967e-06 -9.21655e-06 0)
(9.16757e-06 -9.93538e-06 0)
(1.0594e-05 -1.07056e-05 0)
(1.20681e-05 -1.15286e-05 0)
(8.48783e-06 -1.07545e-05 0)
(9.94612e-06 -1.14668e-05 0)
(1.14341e-05 -1.22234e-05 0)
(1.29702e-05 -1.30256e-05 0)
(9.20231e-06 -1.23485e-05 0)
(1.07121e-05 -1.30539e-05 0)
(1.22525e-05 -1.37967e-05 0)
(1.38417e-05 -1.4578e-05 0)
(9.91262e-06 -1.3989e-05 0)
(1.14652e-05 -1.46874e-05 0)
(1.30494e-05 -1.54164e-05 0)
(1.46826e-05 -1.61771e-05 0)
(1.06185e-05 -1.56673e-05 0)
(1.22055e-05 -1.63585e-05 0)
(1.38248e-05 -1.70739e-05 0)
(1.54935e-05 -1.78143e-05 0)
(1.13196e-05 -1.73748e-05 0)
(1.29328e-05 -1.80588e-05 0)
(1.45791e-05 -1.87607e-05 0)
(1.62748e-05 -1.94812e-05 0)
(1.20158e-05 -1.91031e-05 0)
(1.36473e-05 -1.97799e-05 0)
(1.53125e-05 -2.04686e-05 0)
(1.70273e-05 -2.11696e-05 0)
(1.27069e-05 -2.08443e-05 0)
(1.43489e-05 -2.1514e-05 0)
(1.60253e-05 -2.21896e-05 0)
(1.77515e-05 -2.28716e-05 0)
(1.33924e-05 -2.25908e-05 0)
(1.50377e-05 -2.32533e-05 0)
(1.6718e-05 -2.39161e-05 0)
(1.8448e-05 -2.45795e-05 0)
(1.40723e-05 -2.43353e-05 0)
(1.57138e-05 -2.49905e-05 0)
(1.73909e-05 -2.56407e-05 0)
(1.91176e-05 -2.62861e-05 0)
(1.47463e-05 -2.60707e-05 0)
(1.63771e-05 -2.67187e-05 0)
(1.80443e-05 -2.73564e-05 0)
(1.9761e-05 -2.79842e-05 0)
(1.54139e-05 -2.77905e-05 0)
(1.70278e-05 -2.84311e-05 0)
(1.86786e-05 -2.90567e-05 0)
(2.03788e-05 -2.96673e-05 0)
(1.6075e-05 -2.94883e-05 0)
(1.76658e-05 -3.01215e-05 0)
(1.92942e-05 -3.0735e-05 0)
(2.09718e-05 -3.1329e-05 0)
(1.67291e-05 -3.11582e-05 0)
(1.82912e-05 -3.17839e-05 0)
(1.98914e-05 -3.23856e-05 0)
(2.15408e-05 -3.29634e-05 0)
(1.73758e-05 -3.27947e-05 0)
(1.89039e-05 -3.34128e-05 0)
(2.04706e-05 -3.40027e-05 0)
(2.20863e-05 -3.45647e-05 0)
(1.80149e-05 -3.43926e-05 0)
(1.95039e-05 -3.50028e-05 0)
(2.10322e-05 -3.55812e-05 0)
(2.26092e-05 -3.61279e-05 0)
(1.86458e-05 -3.5947e-05 0)
(2.00912e-05 -3.65493e-05 0)
(2.15765e-05 -3.71163e-05 0)
(2.31102e-05 -3.76481e-05 0)
(1.92681e-05 -3.74535e-05 0)
(2.06658e-05 -3.80477e-05 0)
(2.21038e-05 -3.86034e-05 0)
(2.359e-05 -3.91208e-05 0)
(1.98815e-05 -3.89082e-05 0)
(2.12275e-05 -3.9494e-05 0)
(2.26145e-05 -4.00386e-05 0)
(2.40494e-05 -4.0542e-05 0)
(2.04855e-05 -4.03072e-05 0)
(2.17764e-05 -4.08846e-05 0)
(2.31088e-05 -4.14181e-05 0)
(2.4489e-05 -4.19079e-05 0)
(2.10796e-05 -4.16475e-05 0)
(2.23124e-05 -4.22161e-05 0)
(2.35873e-05 -4.27387e-05 0)
(2.49096e-05 -4.32154e-05 0)
(2.16633e-05 -4.2926e-05 0)
(2.28354e-05 -4.34858e-05 0)
(2.40501e-05 -4.39976e-05 0)
(2.53119e-05 -4.44615e-05 0)
(2.22362e-05 -4.41405e-05 0)
(2.33453e-05 -4.46912e-05 0)
(2.44975e-05 -4.51923e-05 0)
(2.56966e-05 -4.56438e-05 0)
(2.27979e-05 -4.52889e-05 0)
(2.38421e-05 -4.58302e-05 0)
(2.493e-05 -4.63207e-05 0)
(2.60645e-05 -4.67603e-05 0)
(2.33477e-05 -4.63695e-05 0)
(2.43257e-05 -4.69013e-05 0)
(2.53478e-05 -4.73812e-05 0)
(2.64162e-05 -4.78093e-05 0)
(2.38854e-05 -4.7381e-05 0)
(2.4796e-05 -4.79031e-05 0)
(2.57512e-05 -4.83726e-05 0)
(2.67524e-05 -4.87895e-05 0)
(2.44104e-05 -4.83227e-05 0)
(2.52529e-05 -4.88348e-05 0)
(2.61406e-05 -4.9294e-05 0)
(2.70739e-05 -4.97001e-05 0)
(2.49222e-05 -4.91941e-05 0)
(2.56964e-05 -4.96961e-05 0)
(2.65161e-05 -5.01449e-05 0)
(2.73813e-05 -5.05406e-05 0)
(2.54204e-05 -4.99951e-05 0)
(2.61262e-05 -5.04867e-05 0)
(2.68781e-05 -5.09253e-05 0)
(2.76752e-05 -5.1311e-05 0)
(2.59046e-05 -5.0726e-05 0)
(2.65425e-05 -5.1207e-05 0)
(2.72269e-05 -5.16354e-05 0)
(2.79563e-05 -5.20114e-05 0)
(2.63743e-05 -5.13874e-05 0)
(2.69451e-05 -5.18577e-05 0)
(2.75628e-05 -5.2276e-05 0)
(2.82252e-05 -5.26426e-05 0)
(2.68291e-05 -5.19805e-05 0)
(2.73338e-05 -5.24397e-05 0)
(2.78859e-05 -5.28481e-05 0)
(2.84824e-05 -5.32056e-05 0)
(2.72687e-05 -5.25065e-05 0)
(2.77087e-05 -5.29545e-05 0)
(2.81965e-05 -5.33529e-05 0)
(2.87285e-05 -5.37016e-05 0)
(2.76927e-05 -5.2967e-05 0)
(2.80697e-05 -5.34038e-05 0)
(2.84948e-05 -5.37922e-05 0)
(2.8964e-05 -5.41324e-05 0)
(2.81007e-05 -5.3364e-05 0)
(2.84166e-05 -5.37893e-05 0)
(2.87811e-05 -5.41679e-05 0)
(2.91895e-05 -5.44998e-05 0)
(2.84925e-05 -5.36998e-05 0)
(2.87496e-05 -5.41135e-05 0)
(2.90555e-05 -5.44821e-05 0)
(2.94053e-05 -5.4806e-05 0)
(2.88677e-05 -5.39768e-05 0)
(2.90684e-05 -5.43787e-05 0)
(2.93182e-05 -5.47375e-05 0)
(2.96118e-05 -5.50535e-05 0)
(2.92261e-05 -5.41977e-05 0)
(2.9373e-05 -5.45876e-05 0)
(2.95693e-05 -5.49367e-05 0)
(2.98094e-05 -5.52449e-05 0)
(2.95675e-05 -5.43654e-05 0)
(2.96634e-05 -5.47433e-05 0)
(2.98091e-05 -5.50825e-05 0)
(2.99984e-05 -5.53832e-05 0)
(2.98917e-05 -5.44829e-05 0)
(2.99396e-05 -5.48486e-05 0)
(3.00375e-05 -5.5178e-05 0)
(3.0179e-05 -5.54713e-05 0)
(3.01985e-05 -5.45534e-05 0)
(3.02015e-05 -5.49069e-05 0)
(3.02547e-05 -5.52265e-05 0)
(3.03516e-05 -5.55123e-05 0)
(3.04879e-05 -5.45803e-05 0)
(3.04491e-05 -5.49214e-05 0)
(3.04607e-05 -5.52312e-05 0)
(3.05161e-05 -5.55097e-05 0)
(3.07596e-05 -5.45669e-05 0)
(3.06823e-05 -5.48956e-05 0)
(3.06556e-05 -5.51955e-05 0)
(3.06728e-05 -5.54666e-05 0)
(3.10137e-05 -5.45166e-05 0)
(3.09012e-05 -5.48329e-05 0)
(3.08394e-05 -5.51228e-05 0)
(3.08216e-05 -5.53865e-05 0)
(3.12501e-05 -5.4433e-05 0)
(3.11056e-05 -5.47367e-05 0)
(3.1012e-05 -5.50166e-05 0)
(3.09626e-05 -5.52728e-05 0)
(3.14688e-05 -5.43195e-05 0)
(3.12955e-05 -5.46106e-05 0)
(3.11733e-05 -5.48803e-05 0)
(3.10956e-05 -5.5129e-05 0)
(3.16697e-05 -5.41796e-05 0)
(3.14709e-05 -5.44579e-05 0)
(3.13234e-05 -5.47174e-05 0)
(3.12206e-05 -5.49583e-05 0)
(3.18529e-05 -5.40166e-05 0)
(3.16318e-05 -5.42822e-05 0)
(3.14619e-05 -5.45312e-05 0)
(3.13372e-05 -5.4764e-05 0)
(3.20184e-05 -5.38339e-05 0)
(3.17779e-05 -5.40866e-05 0)
(3.15888e-05 -5.43249e-05 0)
(3.14452e-05 -5.45494e-05 0)
(3.21663e-05 -5.36348e-05 0)
(3.19091e-05 -5.38743e-05 0)
(3.17037e-05 -5.41017e-05 0)
(3.15443e-05 -5.43175e-05 0)
(3.22964e-05 -5.34222e-05 0)
(3.20254e-05 -5.36485e-05 0)
(3.18063e-05 -5.38645e-05 0)
(3.16339e-05 -5.40712e-05 0)
(3.24088e-05 -5.31993e-05 0)
(3.21263e-05 -5.3412e-05 0)
(3.18961e-05 -5.3616e-05 0)
(3.17135e-05 -5.38129e-05 0)
(3.25036e-05 -5.29689e-05 0)
(3.22114e-05 -5.31677e-05 0)
(3.19725e-05 -5.33587e-05 0)
(3.17824e-05 -5.35452e-05 0)
(3.25806e-05 -5.27341e-05 0)
(3.228e-05 -5.29183e-05 0)
(3.20343e-05 -5.30947e-05 0)
(3.18398e-05 -5.32696e-05 0)
(3.26399e-05 -5.24978e-05 0)
(3.23307e-05 -5.26666e-05 0)
(3.20802e-05 -5.28253e-05 0)
(3.18852e-05 -5.29874e-05 0)
(3.26817e-05 -5.2263e-05 0)
(3.23606e-05 -5.2415e-05 0)
(3.21067e-05 -5.25519e-05 0)
(3.19175e-05 -5.26994e-05 0)
(3.27075e-05 -5.20319e-05 0)
(3.23672e-05 -5.21652e-05 0)
(3.21113e-05 -5.22757e-05 0)
(3.19378e-05 -5.24063e-05 0)
(3.27163e-05 -5.17905e-05 0)
(3.23415e-05 -5.19116e-05 0)
(3.20844e-05 -5.20048e-05 0)
(3.19436e-05 -5.21243e-05 0)
(3.27258e-05 -5.14918e-05 0)
(3.2307e-05 -5.16382e-05 0)
(3.20495e-05 -5.17568e-05 0)
(3.19521e-05 -5.19022e-05 0)
)
;

boundaryField
{
    plateFix
    {
        type            fixedDisplacement;
        value           uniform (0 0 0);
    }
    plate
    {
        type            solidTraction;
        nonLinear       updatedLagrangian;
        traction        uniform (0 0 0);
        pressure        uniform 0;
        value           nonuniform List<vector> 
168
(
(7.652e-07 4.13343e-07 -8.21701e-26)
(1.0902e-06 -6.33496e-07 -1.59232e-25)
(6.42654e-07 6.76567e-07 1.55102e-25)
(1.02532e-06 -1.00697e-06 1.73376e-26)
(5.60451e-07 8.69308e-07 2.39617e-26)
(1.04236e-06 -1.30578e-06 7.32007e-26)
(5.32439e-07 9.87244e-07 -1.99158e-26)
(1.14595e-06 -1.53071e-06 9.31873e-26)
(5.56706e-07 1.04783e-06 -1.14125e-25)
(1.3287e-06 -1.71377e-06 -1.37854e-25)
(6.22644e-07 1.05812e-06 1.05521e-25)
(1.57324e-06 -1.87104e-06 2.42578e-26)
(7.24297e-07 1.02532e-06 -1.01437e-25)
(1.86989e-06 -2.01935e-06 1.8955e-26)
(8.56826e-07 9.5282e-07 6.87997e-26)
(2.21111e-06 -2.17059e-06 -1.03905e-26)
(1.01761e-06 8.42317e-07 -1.34001e-25)
(2.59276e-06 -2.33519e-06 8.8592e-26)
(1.20505e-06 6.93423e-07 1.57681e-25)
(3.01232e-06 -2.52181e-06 -1.10338e-25)
(1.41856e-06 5.04169e-07 -9.20987e-26)
(3.46863e-06 -2.73826e-06 4.16376e-26)
(1.65813e-06 2.7104e-07 7.75013e-26)
(3.96123e-06 -2.99174e-06 -1.13091e-27)
(1.92429e-06 -1.08511e-08 -5.86892e-26)
(4.4902e-06 -3.28926e-06 4.16816e-26)
(2.21794e-06 -3.47677e-07 3.87575e-27)
(5.05588e-06 -3.6378e-06 -6.28128e-26)
(2.54028e-06 -7.46761e-07 9.7531e-27)
(5.65876e-06 -4.04464e-06 1.88962e-26)
(2.89277e-06 -1.21646e-06 -1.2346e-26)
(6.29936e-06 -4.51748e-06 3.91423e-27)
(3.27705e-06 -1.76602e-06 4.76552e-26)
(6.97812e-06 -5.06467e-06 1.36272e-26)
(3.69491e-06 -2.40548e-06 -1.63989e-26)
(7.69531e-06 -5.69536e-06 -8.94149e-26)
(4.14826e-06 -3.14549e-06 -1.29957e-26)
(8.45096e-06 -6.41954e-06 7.20496e-26)
(4.63907e-06 -3.99728e-06 1.25907e-26)
(9.24479e-06 -7.2481e-06 -9.46828e-28)
(5.16953e-06 -4.97248e-06 5.32455e-27)
(1.00762e-05 -8.19276e-06 2.27033e-26)
(5.74169e-06 -6.0832e-06 -2.57945e-27)
(1.09441e-05 -9.26569e-06 4.29778e-27)
(6.38218e-06 -7.38938e-06 5.93628e-27)
(1.18818e-05 -1.0526e-05 -1.85529e-26)
(7.07013e-06 -8.86402e-06 7.44858e-27)
(1.28508e-05 -1.19473e-05 2.36924e-26)
(7.75914e-06 -1.04044e-05 -3.00367e-26)
(1.3784e-05 -1.34329e-05 -3.78117e-26)
(8.44884e-06 -1.20009e-05 2.46518e-26)
(1.46817e-05 -1.49739e-05 2.02184e-26)
(9.13863e-06 -1.36441e-05 2.81252e-26)
(1.55443e-05 -1.65617e-05 -3.93296e-26)
(9.82818e-06 -1.53251e-05 -1.78182e-26)
(1.63725e-05 -1.81878e-05 6.20569e-26)
(1.05171e-05 -1.70352e-05 -1.19504e-26)
(1.71669e-05 -1.98438e-05 -4.41146e-26)
(1.1205e-05 -1.87663e-05 -4.25843e-27)
(1.79283e-05 -2.15216e-05 8.49005e-27)
(1.18916e-05 -2.05103e-05 5.6646e-27)
(1.86575e-05 -2.32133e-05 1.6983e-26)
(1.25765e-05 -2.22596e-05 1.82862e-27)
(1.93552e-05 -2.49112e-05 4.85653e-27)
(1.32592e-05 -2.4007e-05 -2.13628e-26)
(2.00225e-05 -2.66079e-05 3.99466e-27)
(1.39394e-05 -2.57453e-05 2.35539e-26)
(2.06601e-05 -2.82966e-05 -3.41728e-26)
(1.46165e-05 -2.74681e-05 -1.86942e-26)
(2.12688e-05 -2.99704e-05 2.76559e-26)
(1.529e-05 -2.9169e-05 2.49029e-27)
(2.18497e-05 -3.16231e-05 -1.74872e-26)
(1.59594e-05 -3.08421e-05 -5.17361e-27)
(2.24037e-05 -3.32488e-05 5.44817e-27)
(1.66242e-05 -3.24819e-05 2.02713e-27)
(2.29315e-05 -3.48417e-05 2.92177e-27)
(1.72837e-05 -3.40831e-05 1.73634e-26)
(2.34342e-05 -3.63967e-05 -1.07931e-26)
(1.79374e-05 -3.56411e-05 -1.18103e-26)
(2.39126e-05 -3.7909e-05 8.36634e-27)
(1.85847e-05 -3.71512e-05 -1.59853e-27)
(2.43678e-05 -3.9374e-05 -4.9988e-27)
(1.92249e-05 -3.86096e-05 1.83072e-26)
(2.48005e-05 -4.07878e-05 -8.80924e-27)
(1.98575e-05 -4.00125e-05 -1.18608e-26)
(2.52117e-05 -4.21466e-05 1.1138e-26)
(2.04816e-05 -4.13568e-05 5.80372e-27)
(2.56025e-05 -4.34472e-05 3.83732e-27)
(2.10968e-05 -4.26396e-05 -1.1477e-26)
(2.59736e-05 -4.46867e-05 -7.25245e-27)
(2.17022e-05 -4.38584e-05 2.06961e-26)
(2.6326e-05 -4.58626e-05 -2.33615e-27)
(2.22973e-05 -4.50112e-05 -2.75932e-26)
(2.66606e-05 -4.6973e-05 -2.59213e-27)
(2.28813e-05 -4.60964e-05 3.50171e-27)
(2.69783e-05 -4.8016e-05 4.79195e-27)
(2.34536e-05 -4.71128e-05 2.3631e-26)
(2.72801e-05 -4.89906e-05 -7.54205e-28)
(2.40136e-05 -4.80594e-05 -1.46263e-26)
(2.75667e-05 -4.98958e-05 -9.88602e-28)
(2.45606e-05 -4.89358e-05 3.73038e-27)
(2.78391e-05 -5.0731e-05 -1.52753e-26)
(2.50939e-05 -4.9742e-05 -1.33834e-27)
(2.80981e-05 -5.14964e-05 1.3592e-26)
(2.56129e-05 -5.04783e-05 -1.88701e-27)
(2.83445e-05 -5.2192e-05 1.88974e-26)
(2.6117e-05 -5.11452e-05 7.26806e-27)
(2.85791e-05 -5.28187e-05 -1.49724e-26)
(2.66058e-05 -5.17439e-05 -7.36516e-27)
(2.88027e-05 -5.33772e-05 1.88267e-26)
(2.70785e-05 -5.22756e-05 -3.24106e-27)
(2.90159e-05 -5.3869e-05 -2.1205e-26)
(2.75347e-05 -5.2742e-05 6.28758e-27)
(2.92193e-05 -5.42957e-05 8.0147e-27)
(2.79739e-05 -5.31451e-05 -2.1685e-27)
(2.94138e-05 -5.46592e-05 -4.26313e-27)
(2.83957e-05 -5.34869e-05 4.48939e-27)
(2.95997e-05 -5.49616e-05 1.56568e-27)
(2.87997e-05 -5.37701e-05 9.46179e-27)
(2.97777e-05 -5.52054e-05 3.78965e-28)
(2.91855e-05 -5.39972e-05 -1.14733e-26)
(2.99481e-05 -5.53933e-05 -1.10595e-26)
(2.95528e-05 -5.41712e-05 -2.69179e-27)
(3.01114e-05 -5.55281e-05 9.48075e-27)
(2.99014e-05 -5.42951e-05 5.97694e-27)
(3.0268e-05 -5.56128e-05 2.42946e-27)
(3.0231e-05 -5.43721e-05 -6.98899e-27)
(3.0418e-05 -5.56505e-05 -4.60436e-27)
(3.05414e-05 -5.44055e-05 4.16136e-27)
(3.05617e-05 -5.56445e-05 1.49545e-27)
(3.08326e-05 -5.43986e-05 7.14142e-27)
(3.06993e-05 -5.55981e-05 -1.9572e-27)
(3.11045e-05 -5.4355e-05 -7.32445e-27)
(3.08307e-05 -5.55147e-05 3.33183e-27)
(3.13569e-05 -5.4278e-05 -4.74384e-27)
(3.0956e-05 -5.53977e-05 -2.45877e-27)
(3.15899e-05 -5.41711e-05 9.94048e-27)
(3.10751e-05 -5.52504e-05 2.21142e-27)
(3.18036e-05 -5.40379e-05 -3.2437e-27)
(3.11879e-05 -5.50761e-05 5.6644e-27)
(3.19979e-05 -5.38817e-05 -1.94728e-27)
(3.1294e-05 -5.48783e-05 -4.19435e-27)
(3.21729e-05 -5.37057e-05 1.3485e-27)
(3.13931e-05 -5.46598e-05 -3.56357e-27)
(3.23288e-05 -5.35134e-05 -1.31583e-27)
(3.14848e-05 -5.44239e-05 1.6937e-28)
(3.24656e-05 -5.33077e-05 -4.7351e-27)
(3.15686e-05 -5.41733e-05 1.23201e-27)
(3.25834e-05 -5.30918e-05 7.32641e-27)
(3.16438e-05 -5.39106e-05 -1.69155e-27)
(3.26823e-05 -5.28685e-05 -8.34077e-27)
(3.17095e-05 -5.36379e-05 3.52808e-27)
(3.27622e-05 -5.26408e-05 7.7971e-28)
(3.17648e-05 -5.33572e-05 1.19278e-27)
(3.28235e-05 -5.24119e-05 -2.544e-27)
(3.18089e-05 -5.30693e-05 -2.75663e-27)
(3.28668e-05 -5.21843e-05 4.17491e-27)
(3.18414e-05 -5.27754e-05 -1.02763e-28)
(3.28977e-05 -5.19609e-05 -2.16543e-27)
(3.18665e-05 -5.24757e-05 -1.39718e-27)
(3.2931e-05 -5.17244e-05 -2.44251e-28)
(3.18977e-05 -5.21898e-05 7.04469e-28)
(3.30149e-05 -5.14328e-05 -2.31929e-27)
(3.27233e-05 -5.12338e-05 -6.33351e-27)
(3.22919e-05 -5.14759e-05 -4.31294e-27)
(3.20342e-05 -5.16607e-05 4.51468e-28)
(3.19493e-05 -5.19007e-05 7.62599e-27)
(3.19816e-05 -5.19608e-05 -6.00675e-28)
)
;
    }
    frontAndBackPlanes
    {
        type            empty;
    }
}


// ************************************************************************* //
