/*--------------------------------*- C++ -*----------------------------------*\
| =========                 |                                                 |
| \\      /  F ield         | OpenFOAM Extend Project: Open source CFD        |
|  \\    /   O peration     | Version:  1.6-ext                               |
|   \\  /    A nd           | Web:      www.extend-project.de                 |
|    \\/     M anipulation  |                                                 |
\*---------------------------------------------------------------------------*/
FoamFile
{
    version     2.0;
    format      ascii;
    class       volScalarField::DimensionedInternalField;
    location    "0.1";
    object      V0;
}
// * * * * * * * * * * * * * * * * * * * * * * * * * * * * * * * * * * * * * //

dimensions      [0 3 0 0 0 0 0];

value           nonuniform List<scalar> 
328
(
2.53319e-07
2.53346e-07
2.53351e-07
2.53326e-07
2.71669e-07
2.7171e-07
2.71714e-07
2.71674e-07
2.91372e-07
2.91408e-07
2.91411e-07
2.9138e-07
3.12504e-07
3.12533e-07
3.12536e-07
3.12515e-07
3.35168e-07
3.35191e-07
3.35194e-07
3.35181e-07
3.59474e-07
3.59492e-07
3.59494e-07
3.59488e-07
3.85541e-07
3.85555e-07
3.85558e-07
3.85556e-07
4.13497e-07
4.13508e-07
4.13511e-07
4.13513e-07
4.43479e-07
4.43488e-07
4.43491e-07
4.43496e-07
4.75634e-07
4.75643e-07
4.75646e-07
4.75652e-07
5.10121e-07
5.10129e-07
5.10132e-07
5.10139e-07
5.47107e-07
5.47115e-07
5.47118e-07
5.47127e-07
5.86775e-07
5.86783e-07
5.86787e-07
5.86795e-07
6.29319e-07
6.29327e-07
6.29331e-07
6.2934e-07
6.74948e-07
6.74956e-07
6.7496e-07
6.74969e-07
7.23885e-07
7.23893e-07
7.23897e-07
7.23907e-07
7.7637e-07
7.76379e-07
7.76383e-07
7.76392e-07
8.3266e-07
8.32669e-07
8.32673e-07
8.32683e-07
8.93032e-07
8.93041e-07
8.93045e-07
8.93055e-07
9.57781e-07
9.57791e-07
9.57795e-07
9.57804e-07
1.02723e-06
1.02723e-06
1.02724e-06
1.02725e-06
1.1017e-06
1.10171e-06
1.10172e-06
1.10173e-06
1.26864e-06
1.26865e-06
1.26865e-06
1.26866e-06
1.26864e-06
1.26865e-06
1.26865e-06
1.26866e-06
1.26864e-06
1.26865e-06
1.26865e-06
1.26866e-06
1.26864e-06
1.26865e-06
1.26865e-06
1.26866e-06
1.26864e-06
1.26865e-06
1.26865e-06
1.26865e-06
1.26864e-06
1.26865e-06
1.26865e-06
1.26865e-06
1.26864e-06
1.26865e-06
1.26865e-06
1.26865e-06
1.26864e-06
1.26865e-06
1.26865e-06
1.26865e-06
1.26864e-06
1.26864e-06
1.26865e-06
1.26865e-06
1.26864e-06
1.26864e-06
1.26864e-06
1.26864e-06
1.26864e-06
1.26864e-06
1.26864e-06
1.26864e-06
1.26864e-06
1.26864e-06
1.26864e-06
1.26864e-06
1.26864e-06
1.26864e-06
1.26864e-06
1.26864e-06
1.26864e-06
1.26864e-06
1.26864e-06
1.26864e-06
1.26864e-06
1.26864e-06
1.26864e-06
1.26863e-06
1.26864e-06
1.26864e-06
1.26864e-06
1.26863e-06
1.26864e-06
1.26864e-06
1.26864e-06
1.26863e-06
1.26864e-06
1.26864e-06
1.26864e-06
1.26863e-06
1.26864e-06
1.26864e-06
1.26863e-06
1.26863e-06
1.26864e-06
1.26864e-06
1.26863e-06
1.26863e-06
1.26864e-06
1.26864e-06
1.26863e-06
1.26863e-06
1.26864e-06
1.26864e-06
1.26863e-06
1.26862e-06
1.26864e-06
1.26863e-06
1.26863e-06
1.26862e-06
1.26864e-06
1.26863e-06
1.26863e-06
1.26862e-06
1.26864e-06
1.26863e-06
1.26863e-06
1.26862e-06
1.26864e-06
1.26863e-06
1.26863e-06
1.26862e-06
1.26864e-06
1.26863e-06
1.26863e-06
1.26862e-06
1.26864e-06
1.26863e-06
1.26863e-06
1.26862e-06
1.26864e-06
1.26863e-06
1.26863e-06
1.26862e-06
1.26864e-06
1.26863e-06
1.26863e-06
1.26862e-06
1.26864e-06
1.26863e-06
1.26862e-06
1.26862e-06
1.26864e-06
1.26863e-06
1.26862e-06
1.26862e-06
1.26864e-06
1.26863e-06
1.26862e-06
1.26861e-06
1.26863e-06
1.26863e-06
1.26862e-06
1.26861e-06
1.26863e-06
1.26863e-06
1.26862e-06
1.26861e-06
1.26863e-06
1.26862e-06
1.26862e-06
1.26861e-06
1.26863e-06
1.26862e-06
1.26862e-06
1.26861e-06
1.26863e-06
1.26862e-06
1.26862e-06
1.26861e-06
1.26863e-06
1.26862e-06
1.26862e-06
1.26861e-06
1.26863e-06
1.26862e-06
1.26862e-06
1.26861e-06
1.26863e-06
1.26862e-06
1.26862e-06
1.26861e-06
1.26863e-06
1.26862e-06
1.26862e-06
1.26861e-06
1.26862e-06
1.26862e-06
1.26862e-06
1.26861e-06
1.26862e-06
1.26862e-06
1.26862e-06
1.26861e-06
1.26862e-06
1.26862e-06
1.26862e-06
1.26861e-06
1.26862e-06
1.26862e-06
1.26862e-06
1.26861e-06
1.26862e-06
1.26862e-06
1.26862e-06
1.26861e-06
1.26862e-06
1.26862e-06
1.26862e-06
1.26861e-06
1.26862e-06
1.26862e-06
1.26861e-06
1.26861e-06
1.26862e-06
1.26862e-06
1.26861e-06
1.26861e-06
1.26862e-06
1.26861e-06
1.26861e-06
1.26861e-06
1.26862e-06
1.26861e-06
1.26861e-06
1.26861e-06
1.26861e-06
1.26861e-06
1.26861e-06
1.26861e-06
1.26861e-06
1.26861e-06
1.26861e-06
1.26861e-06
1.26861e-06
1.26861e-06
1.26861e-06
1.26861e-06
1.26861e-06
1.26861e-06
1.26861e-06
1.26861e-06
1.26861e-06
1.26861e-06
1.26861e-06
1.26861e-06
1.26861e-06
1.26861e-06
1.26861e-06
1.26861e-06
1.26862e-06
1.26861e-06
1.26861e-06
1.26862e-06
1.26861e-06
1.2686e-06
1.2686e-06
1.26861e-06
)
;


// ************************************************************************* //
