/*--------------------------------*- C++ -*----------------------------------*\
| =========                 |                                                 |
| \\      /  F ield         | OpenFOAM Extend Project: Open source CFD        |
|  \\    /   O peration     | Version:  1.6-ext                               |
|   \\  /    A nd           | Web:      www.extend-project.de                 |
|    \\/     M anipulation  |                                                 |
\*---------------------------------------------------------------------------*/
FoamFile
{
    version     2.0;
    format      ascii;
    class       volVectorField;
    location    "0.1";
    object      Vs;
}
// * * * * * * * * * * * * * * * * * * * * * * * * * * * * * * * * * * * * * //

dimensions      [0 1 -1 0 0 0 0];

internalField   nonuniform List<vector> 
328
(
(1.06422e-05 -4.21392e-05 0)
(1.7916e-05 -8.67497e-06 0)
(1.80004e-05 8.83413e-06 0)
(1.10283e-05 4.17107e-05 0)
(3.32567e-05 -0.000107915 0)
(5.1696e-05 -2.53807e-05 0)
(5.19908e-05 2.56411e-05 0)
(3.44562e-05 0.000106802 0)
(5.37182e-05 -0.000156677 0)
(7.91664e-05 -4.12368e-05 0)
(7.97635e-05 4.13697e-05 0)
(5.58691e-05 0.000154952 0)
(7.47664e-05 -0.000191258 0)
(0.00010431 -5.4992e-05 0)
(0.000105253 5.47575e-05 0)
(7.79602e-05 0.000188894 0)
(9.60605e-05 -0.000215239 0)
(0.000126798 -6.62091e-05 0)
(0.000128135 6.53505e-05 0)
(0.000100397 0.000212108 0)
(0.000118269 -0.000231367 0)
(0.000148214 -7.47826e-05 0)
(0.000149976 7.30077e-05 0)
(0.00012384 0.000227254 0)
(0.000141468 -0.000241888 0)
(0.000169136 -8.0986e-05 0)
(0.000171356 7.79566e-05 0)
(0.000148367 0.000236497 0)
(0.000165869 -0.000248479 0)
(0.000190462 -8.52416e-05 0)
(0.000193171 8.05602e-05 0)
(0.000174192 0.000241434 0)
(0.000191584 -0.000252441 0)
(0.000212791 -8.80679e-05 0)
(0.000216019 8.12657e-05 0)
(0.000201431 0.000243285 0)
(0.000218765 -0.000254752 0)
(0.000236701 -8.99745e-05 0)
(0.000240479 8.04989e-05 0)
(0.00023024 0.000242939 0)
(0.000247579 -0.000256152 0)
(0.000262631 -9.14256e-05 0)
(0.000266994 7.8627e-05 0)
(0.000260788 0.000241036 0)
(0.000278228 -0.000257187 0)
(0.000290953 -9.2807e-05 0)
(0.000295936 7.59246e-05 0)
(0.000293284 0.000238011 0)
(0.00031095 -0.000258255 0)
(0.000321964 -9.4423e-05 0)
(0.000327601 7.2569e-05 0)
(0.000327967 0.000234135 0)
(0.000346014 -0.00025964 0)
(0.000355915 -9.65015e-05 0)
(0.000362245 6.8645e-05 0)
(0.000365106 0.000229551 0)
(0.000383713 -0.000261547 0)
(0.000393034 -9.92115e-05 0)
(0.000400095 6.41594e-05 0)
(0.000404999 0.0002243 0)
(0.000424366 -0.000264129 0)
(0.000433546 -0.000102681 0)
(0.000441376 5.90585e-05 0)
(0.000447961 0.000218354 0)
(0.000468304 -0.000267508 0)
(0.000477685 -0.000107018 0)
(0.000486322 5.32455e-05 0)
(0.000494324 0.000211633 0)
(0.000515879 -0.000271802 0)
(0.000525713 -0.000112323 0)
(0.000535194 4.65941e-05 0)
(0.000544435 0.000204025 0)
(0.000567455 -0.000277128 0)
(0.000577922 -0.000118707 0)
(0.000588283 3.89589e-05 0)
(0.000598653 0.000195395 0)
(0.000623418 -0.000283619 0)
(0.000634644 -0.000126292 0)
(0.000645917 3.01797e-05 0)
(0.000657359 0.00018559 0)
(0.000684177 -0.000291419 0)
(0.000696247 -0.000135221 0)
(0.000708464 2.00835e-05 0)
(0.000720951 0.00017444 0)
(0.000750175 -0.000300687 0)
(0.00076315 -0.000145653 0)
(0.000776336 8.48352e-06 0)
(0.000789861 0.000161758 0)
(0.00082462 -0.000312016 0)
(0.000838582 -0.000158232 0)
(0.000852796 -5.32695e-06 0)
(0.000867393 0.000146792 0)
(0.00090548 -0.00032526 0)
(0.000920458 -0.000172799 0)
(0.000935708 -2.11797e-05 0)
(0.000951365 0.000129718 0)
(0.000987523 -0.000339554 0)
(0.00100346 -0.000188399 0)
(0.00101968 -3.80395e-05 0)
(0.00103632 0.000111658 0)
(0.00107075 -0.000354806 0)
(0.00108758 -0.000204952 0)
(0.0011047 -5.5845e-05 0)
(0.00112225 9.26579e-05 0)
(0.00115516 -0.000370935 0)
(0.00117282 -0.000222383 0)
(0.00119077 -7.45259e-05 0)
(0.00120916 7.2783e-05 0)
(0.00124077 -0.000387858 0)
(0.00125919 -0.000240612 0)
(0.00127791 -9.40089e-05 0)
(0.00129707 5.21013e-05 0)
(0.0013276 -0.000405494 0)
(0.00134671 -0.000259562 0)
(0.00136612 -0.000114218 0)
(0.00138597 3.06857e-05 0)
(0.00141564 -0.000423769 0)
(0.00143538 -0.000279154 0)
(0.00145542 -0.000135078 0)
(0.00147589 8.61052e-06 0)
(0.00150491 -0.000442607 0)
(0.00152521 -0.000299314 0)
(0.00154581 -0.000156513 0)
(0.00156684 -1.40509e-05 0)
(0.00159541 -0.000461942 0)
(0.00161621 -0.000319975 0)
(0.00163731 -0.000178456 0)
(0.00165884 -3.72288e-05 0)
(0.00168714 -0.000481714 0)
(0.00170838 -0.000341073 0)
(0.00172993 -0.00020084 0)
(0.0017519 -6.08583e-05 0)
(0.00178009 -0.000501867 0)
(0.00180173 -0.000362553 0)
(0.00182368 -0.00022361 0)
(0.00184603 -8.48813e-05 0)
(0.00187425 -0.000522357 0)
(0.00189625 -0.000384366 0)
(0.00191856 -0.000246716 0)
(0.00194125 -0.000109247 0)
(0.00196962 -0.000543147 0)
(0.00199194 -0.000406474 0)
(0.00201457 -0.000270116 0)
(0.00203757 -0.000133911 0)
(0.00206619 -0.000564207 0)
(0.0020888 -0.000428844 0)
(0.00211171 -0.000293776 0)
(0.00213498 -0.000158838 0)
(0.00216393 -0.000585514 0)
(0.00218681 -0.000451453 0)
(0.00220998 -0.000317669 0)
(0.0022335 -0.000183997 0)
(0.00226283 -0.000607053 0)
(0.00228596 -0.000474281 0)
(0.00230938 -0.000341776 0)
(0.00233312 -0.000209366 0)
(0.00236287 -0.000628813 0)
(0.00238624 -0.000497317 0)
(0.00240989 -0.000366079 0)
(0.00243383 -0.000234926 0)
(0.00246402 -0.000650788 0)
(0.00248762 -0.000520552 0)
(0.00251149 -0.00039057 0)
(0.00253563 -0.000260664 0)
(0.00256626 -0.000672978 0)
(0.00259009 -0.000543983 0)
(0.00261417 -0.00041524 0)
(0.0026385 -0.00028657 0)
(0.00266954 -0.000695384 0)
(0.00269361 -0.000567608 0)
(0.0027179 -0.000440088 0)
(0.00274242 -0.000312638 0)
(0.00277385 -0.000718013 0)
(0.00279815 -0.000591432 0)
(0.00282266 -0.000465112 0)
(0.00284736 -0.000338864 0)
(0.00287913 -0.000740872 0)
(0.00290368 -0.00061546 0)
(0.00292841 -0.000490318 0)
(0.0029533 -0.000365251 0)
(0.00298535 -0.000763975 0)
(0.00301016 -0.000639703 0)
(0.00303512 -0.000515711 0)
(0.00306021 -0.000391803 0)
(0.00309246 -0.000787339 0)
(0.00311754 -0.000664174 0)
(0.00314275 -0.000541304 0)
(0.00316804 -0.000418527 0)
(0.00320041 -0.000810985 0)
(0.00322579 -0.000688892 0)
(0.00325125 -0.000567111 0)
(0.00327677 -0.000445437 0)
(0.00330913 -0.000834936 0)
(0.00333484 -0.000713878 0)
(0.00336059 -0.000593152 0)
(0.00338635 -0.000472548 0)
(0.00341859 -0.000859222 0)
(0.00344464 -0.00073916 0)
(0.0034707 -0.000619452 0)
(0.00349673 -0.000499884 0)
(0.00352871 -0.000883877 0)
(0.00355514 -0.000764769 0)
(0.00358154 -0.000646039 0)
(0.00360786 -0.000527469 0)
(0.00363943 -0.000908936 0)
(0.00366627 -0.000790739 0)
(0.00369303 -0.000672945 0)
(0.00371968 -0.000555332 0)
(0.00375069 -0.000934438 0)
(0.00377797 -0.000817108 0)
(0.00380513 -0.000700206 0)
(0.00383212 -0.000583508 0)
(0.00386241 -0.000960425 0)
(0.00389017 -0.000843916 0)
(0.00391777 -0.000727859 0)
(0.00394514 -0.000612029 0)
(0.00397454 -0.000986937 0)
(0.00400281 -0.000871202 0)
(0.00403086 -0.000755943 0)
(0.00405865 -0.000640933 0)
(0.004087 -0.00101401 0)
(0.00411582 -0.000899007 0)
(0.00414436 -0.000784496 0)
(0.00417258 -0.000670254 0)
(0.00419973 -0.00104169 0)
(0.00422911 -0.000927365 0)
(0.00425817 -0.000813552 0)
(0.00428685 -0.000700025 0)
(0.00431265 -0.00107 0)
(0.00434263 -0.000956308 0)
(0.00437222 -0.000843142 0)
(0.00440139 -0.000730275 0)
(0.00442571 -0.00109897 0)
(0.00445629 -0.000985862 0)
(0.00448643 -0.000873289 0)
(0.00451611 -0.000761026 0)
(0.00453882 -0.00112862 0)
(0.00457003 -0.00101604 0)
(0.00460073 -0.000904011 0)
(0.00463092 -0.000792295 0)
(0.00465193 -0.00115894 0)
(0.00468377 -0.00104686 0)
(0.00471503 -0.000935315 0)
(0.00474573 -0.000824089 0)
(0.00476498 -0.00118995 0)
(0.00479743 -0.00107831 0)
(0.00482925 -0.000967202 0)
(0.00486047 -0.00085641 0)
(0.00487788 -0.00122163 0)
(0.00491094 -0.00111038 0)
(0.00494332 -0.000999662 0)
(0.00497504 -0.00088925 0)
(0.00499059 -0.00125396 0)
(0.00502424 -0.00114306 0)
(0.00505716 -0.00103268 0)
(0.00508938 -0.000922595 0)
(0.00510303 -0.00128692 0)
(0.00513726 -0.00117633 0)
(0.00517069 -0.00106624 0)
(0.00520339 -0.000956426 0)
(0.00521514 -0.00132047 0)
(0.00524992 -0.00121015 0)
(0.00528385 -0.0011003 0)
(0.00531701 -0.000990723 0)
(0.00532688 -0.0013546 0)
(0.00536217 -0.0012445 0)
(0.00539658 -0.00113486 0)
(0.00543016 -0.00102546 0)
(0.00543817 -0.00138926 0)
(0.00547395 -0.00127935 0)
(0.0055088 -0.00116987 0)
(0.0055428 -0.00106062 0)
(0.00554897 -0.00142441 0)
(0.0055852 -0.00131466 0)
(0.00562047 -0.00120531 0)
(0.00565486 -0.00109617 0)
(0.00565924 -0.00146002 0)
(0.00569589 -0.0013504 0)
(0.00573155 -0.00124115 0)
(0.00576629 -0.00113209 0)
(0.00576894 -0.00149606 0)
(0.00580597 -0.00138655 0)
(0.00584198 -0.00127737 0)
(0.00587706 -0.00116837 0)
(0.00587804 -0.00153247 0)
(0.00591541 -0.00142305 0)
(0.00595174 -0.00131393 0)
(0.00598712 -0.00120497 0)
(0.00598653 -0.00156921 0)
(0.00602419 -0.00145988 0)
(0.00606081 -0.00135081 0)
(0.00609647 -0.00124187 0)
(0.00609439 -0.00160624 0)
(0.00613231 -0.00149699 0)
(0.00616916 -0.00138797 0)
(0.00620507 -0.00127905 0)
(0.00620164 -0.00164349 0)
(0.00623976 -0.00153433 0)
(0.00627682 -0.00142536 0)
(0.00631293 -0.00131648 0)
(0.00630829 -0.00168089 0)
(0.00634656 -0.00157184 0)
(0.00638378 -0.00146296 0)
(0.00642006 -0.00135413 0)
(0.00641436 -0.00171838 0)
(0.00645275 -0.00160948 0)
(0.00649009 -0.00150073 0)
(0.00652649 -0.00139197 0)
(0.0065199 -0.00175586 0)
(0.00655838 -0.00164715 0)
(0.00659581 -0.00153862 0)
(0.00663226 -0.00143 0)
(0.00662495 -0.00179324 0)
(0.00666358 -0.00168479 0)
(0.00670104 -0.00157661 0)
(0.00673743 -0.00146821 0)
(0.00672954 -0.00183043 0)
(0.00676844 -0.00172234 0)
(0.00680592 -0.00161466 0)
(0.00684205 -0.00150658 0)
(0.00683378 -0.00186764 0)
(0.00687326 -0.00175987 0)
(0.00691074 -0.0016526 0)
(0.00694626 -0.00154483 0)
(0.00693743 -0.00190589 0)
(0.00697768 -0.00179773 0)
(0.00701515 -0.00168999 0)
(0.00704986 -0.00158183 0)
)
;

boundaryField
{
    plateFix
    {
        type            calculated;
        value           uniform (0 0 0);
    }
    plate
    {
        type            calculated;
        value           nonuniform List<vector> 
168
(
(-0.000174252 -0.000113535 1.78379e-22)
(-0.000171975 0.000111817 5.10357e-23)
(-0.000101041 -0.000181517 2.22381e-22)
(-9.83369e-05 0.000179044 -5.42485e-23)
(-3.75643e-05 -0.000233641 -3.69388e-24)
(-3.40674e-05 0.000230479 -2.90844e-22)
(1.47837e-05 -0.000269603 -2.61705e-22)
(1.93825e-05 0.00026577 2.89436e-24)
(5.75138e-05 -0.000294735 -4.70851e-24)
(6.348e-05 0.000290114 1.81196e-22)
(9.40826e-05 -0.000311533 7.1746e-23)
(0.00010162 0.000305921 1.75983e-22)
(0.000126606 -0.000322592 5.46185e-23)
(0.000135889 0.0003157 -6.47062e-23)
(0.000156864 -0.000329586 5.06859e-24)
(0.000168046 0.000321043 1.3811e-23)
(0.000186056 -0.000333872 -1.58106e-22)
(0.000199284 0.000323223 -1.31038e-22)
(0.000215122 -0.000336414 1.50103e-22)
(0.000230542 0.000323116 3.01609e-23)
(0.000244781 -0.000337949 6.75111e-23)
(0.000262538 0.000321359 4.70648e-23)
(0.000275628 -0.000339012 -1.06838e-22)
(0.000295874 0.000318376 -1.55726e-22)
(0.000308171 -0.00034 -3.19576e-24)
(0.000331057 0.000314437 1.39755e-22)
(0.00034286 -0.000341202 1.22494e-25)
(0.000368538 0.000309689 -3.6073e-23)
(0.000380101 -0.000342831 8.16871e-23)
(0.000408726 0.000304185 -8.21064e-23)
(0.000420274 -0.000345055 -1.00207e-22)
(0.000451998 0.000297909 4.88938e-23)
(0.000463742 -0.000348012 2.70017e-23)
(0.000498716 0.000290798 5.51469e-24)
(0.000510863 -0.000351832 -9.07153e-25)
(0.000549232 0.000282753 -1.51023e-22)
(0.000561998 -0.000356648 2.24125e-24)
(0.000603902 0.000273653 1.30502e-22)
(0.000617524 -0.0003626 1.28939e-24)
(0.000663096 0.000263353 5.82554e-25)
(0.000677842 -0.000369839 -6.83157e-23)
(0.000727201 0.000251691 7.24165e-23)
(0.000743393 -0.000378525 6.01793e-23)
(0.000796644 0.00023848 -8.27017e-23)
(0.00081735 -0.000389234 1.13405e-24)
(0.000874726 0.000222953 1.43468e-23)
(0.000897698 -0.000401811 -5.47839e-23)
(0.000959234 0.000205278 -8.7197e-23)
(0.000979261 -0.000415446 5.15844e-23)
(0.00104469 0.000186626 3.80287e-23)
(0.00106203 -0.00043004 -3.55824e-24)
(0.00113108 0.000167036 -8.84758e-25)
(0.00114603 -0.000445509 -3.47746e-23)
(0.00121842 0.000146572 6.79542e-23)
(0.00123127 -0.00046177 5.0798e-23)
(0.0013067 0.000125298 -5.10391e-23)
(0.00131775 -0.000478742 3.262e-23)
(0.00139595 0.000103286 3.14701e-23)
(0.00140549 -0.000496349 -1.27932e-24)
(0.00148617 8.06092e-05 2.10514e-23)
(0.00149449 -0.000514518 -3.91043e-23)
(0.00157739 5.7341e-05 -2.15999e-23)
(0.00158474 -0.000533183 2.7891e-24)
(0.00166962 3.35508e-05 -7.83869e-25)
(0.00167626 -0.000552284 -2.48111e-23)
(0.00176288 9.30368e-06 3.0915e-23)
(0.00176902 -0.000571769 3.28384e-23)
(0.00185719 -1.53416e-05 -5.24285e-23)
(0.00186302 -0.000591593 -2.11621e-23)
(0.00195256 -4.03333e-05 1.75763e-23)
(0.00195824 -0.000611719 -2.23602e-23)
(0.002049 -6.56266e-05 3.30851e-23)
(0.00205467 -0.00063212 4.06177e-23)
(0.00214653 -9.11841e-05 -5.69807e-23)
(0.00215228 -0.000652774 -2.21063e-23)
(0.00224516 -0.000116975 5.09658e-23)
(0.00225107 -0.000673665 -9.65155e-24)
(0.00234487 -0.000142974 -4.63695e-25)
(0.00235099 -0.000694786 1.83037e-23)
(0.00244567 -0.000169161 -4.6756e-23)
(0.00245203 -0.000716131 -6.79856e-24)
(0.00254755 -0.000195522 1.55256e-23)
(0.00255415 -0.0007377 6.45359e-24)
(0.00265049 -0.000222045 5.48464e-25)
(0.00265733 -0.000759497 -1.62425e-23)
(0.00275448 -0.000248723 8.00308e-24)
(0.00276151 -0.000781528 2.72537e-23)
(0.0028595 -0.000275551 -8.09072e-24)
(0.00286668 -0.000803804 -1.70714e-23)
(0.00296552 -0.00030253 7.61335e-24)
(0.00297277 -0.000826339 -5.24765e-24)
(0.00307251 -0.000329661 -2.62641e-23)
(0.00307974 -0.000849151 -7.08767e-24)
(0.00318043 -0.000356953 7.30207e-24)
(0.00318753 -0.000872263 7.42698e-24)
(0.00328926 -0.000384415 9.74393e-24)
(0.0032961 -0.000895699 1.60948e-23)
(0.00339894 -0.000412065 -1.19739e-24)
(0.00340538 -0.000919491 -1.02164e-23)
(0.00350943 -0.000439921 3.08963e-23)
(0.0035153 -0.000943671 3.98531e-23)
(0.00362069 -0.000468008 -3.07859e-23)
(0.00362581 -0.000968278 -3.04594e-23)
(0.00373265 -0.000496353 -8.90972e-24)
(0.00373683 -0.000993351 -9.54772e-24)
(0.00384526 -0.000524989 1.70905e-23)
(0.0038483 -0.00101893 -1.39277e-23)
(0.00395846 -0.000553949 -1.37428e-23)
(0.00396015 -0.00104506 2.17146e-23)
(0.00407216 -0.000583266 1.42951e-23)
(0.00407232 -0.00107178 1.43275e-24)
(0.00418631 -0.000612975 -8.76579e-24)
(0.00418474 -0.00109912 1.06551e-23)
(0.00430081 -0.000643107 -3.2893e-24)
(0.00429734 -0.00112712 -1.11189e-23)
(0.00441559 -0.000673689 7.27272e-24)
(0.00441006 -0.00115579 6.55658e-25)
(0.00453056 -0.000704745 -1.04487e-23)
(0.00452283 -0.00118517 -4.44452e-24)
(0.00464563 -0.000736288 -4.35843e-24)
(0.0046356 -0.00121525 -1.0438e-25)
(0.00476071 -0.000768329 1.75119e-23)
(0.00474831 -0.00124603 3.82183e-24)
(0.0048757 -0.000800867 4.05831e-24)
(0.00486088 -0.00127751 4.24095e-24)
(0.00499053 -0.000833897 -1.452e-23)
(0.00497327 -0.00130966 -1.86494e-23)
(0.00510511 -0.000867405 -1.49191e-25)
(0.0050854 -0.00134246 1.46485e-23)
(0.00521936 -0.000901374 7.30392e-26)
(0.00519722 -0.00137588 3.68266e-24)
(0.0053332 -0.000935785 1.86517e-23)
(0.00530868 -0.00140989 -1.37213e-23)
(0.00544657 -0.000970616 3.66992e-24)
(0.00541971 -0.00144444 6.99389e-24)
(0.00555941 -0.00100585 -2.51153e-23)
(0.00553027 -0.00147951 9.36727e-25)
(0.00567166 -0.00104145 1.32402e-23)
(0.00564032 -0.00151505 1.14695e-23)
(0.00578327 -0.00107742 -3.18888e-24)
(0.00574982 -0.00155103 -1.70958e-23)
(0.0058942 -0.00111372 -1.86299e-24)
(0.00585874 -0.00158738 1.56677e-23)
(0.00600442 -0.00115034 -7.08892e-24)
(0.00596707 -0.00162408 -7.2268e-24)
(0.0061139 -0.00118726 5.49661e-24)
(0.00607481 -0.00166105 -3.23466e-24)
(0.00622263 -0.00122445 1.85295e-24)
(0.00618196 -0.00169824 2.3262e-24)
(0.0063306 -0.00126189 -1.84931e-24)
(0.00628854 -0.00173558 -3.60007e-24)
(0.00643783 -0.00129956 -1.1423e-24)
(0.00639458 -0.00177299 1.52231e-24)
(0.00654434 -0.00133744 2.61947e-24)
(0.00650012 -0.00181038 -6.25406e-27)
(0.00665018 -0.00137553 -2.87463e-24)
(0.00660522 -0.00184764 6.00879e-24)
(0.00675541 -0.00141382 1.76136e-24)
(0.00670982 -0.00188469 -1.83869e-24)
(0.00685999 -0.00145232 -2.6521e-24)
(0.0068137 -0.00192176 -1.02701e-25)
(0.00696375 -0.00149069 2.26109e-24)
(0.00691581 -0.00195975 -5.83713e-25)
(0.00698914 -0.00192742 -2.5579e-24)
(0.00702955 -0.00181726 2.31218e-24)
(0.00706702 -0.00170799 -4.19051e-25)
(0.00710156 -0.00159782 -1.05348e-24)
(0.00706571 -0.00152796 -3.55416e-25)
)
;
    }
    frontAndBackPlanes
    {
        type            empty;
    }
}


// ************************************************************************* //
