/*--------------------------------*- C++ -*----------------------------------*\
| =========                 |                                                 |
| \\      /  F ield         | OpenFOAM Extend Project: Open source CFD        |
|  \\    /   O peration     | Version:  1.6-ext                               |
|   \\  /    A nd           | Web:      www.extend-project.de                 |
|    \\/     M anipulation  |                                                 |
\*---------------------------------------------------------------------------*/
FoamFile
{
    version     2.0;
    format      ascii;
    class       surfaceScalarField;
    location    "0.6";
    object      phi;
}
// * * * * * * * * * * * * * * * * * * * * * * * * * * * * * * * * * * * * * //

dimensions      [0 3 -1 0 0 0 0];

internalField   nonuniform List<scalar> 
123
(
0.000203647
1.59491e-05
0.000212066
5.98739e-05
0.000222362
9.31095e-05
0.000233716
0.000116464
0.00024749
0.000138839
0.000267234
0.000166951
0.000306085
0.000203529
0.000385592
0.000241704
0.000329681
0.000433899
0.000205173
1.07758e-05
0.000217821
4.72258e-05
0.000234162
7.67694e-05
0.000253152
9.74737e-05
0.000276665
0.000115326
0.000308789
0.000134827
0.000355923
0.000156395
0.000431424
0.000166203
0.00023624
0.000524865
0.000207023
3.75241e-06
0.000223347
3.0902e-05
0.000244069
5.60479e-05
0.000267536
7.40066e-05
0.000294832
8.80295e-05
0.000328698
0.000100961
0.000371815
0.000113278
0.000424785
0.000113233
0.000143698
0.000517327
0.000209841
-6.08816e-06
0.000229326
1.14162e-05
0.000252489
3.28856e-05
0.000277643
4.88517e-05
0.000305521
6.01516e-05
0.000337773
6.87101e-05
0.000375712
7.53391e-05
0.000416072
7.28725e-05
8.05404e-05
0.000479229
0.000214123
-2.02109e-05
0.000234985
-9.44566e-06
0.000257636
1.02337e-05
0.000281795
2.46931e-05
0.000308252
3.3695e-05
0.000337734
3.92274e-05
0.000370626
4.24473e-05
0.000403208
4.02907e-05
3.94737e-05
0.000444275
0.00021231
-3.25209e-05
0.000224727
-2.18626e-05
0.000240294
-5.33311e-06
0.000259651
5.3364e-06
0.000282254
1.10913e-05
0.000307511
1.39706e-05
0.000334733
1.5225e-05
0.00036089
1.41343e-05
1.26476e-05
0.000387716
0.000167479
0.000145616
0.000140283
0.00014562
0.000156711
0.000170682
0.000185907
0.000200041
0.000212689
0.000113414
0.000104903
7.34242e-05
4.42974e-05
2.08977e-05
5.50441e-06
)
;

boundaryField
{
    inlet
    {
        type            calculated;
        value           nonuniform List<scalar> 7(-0.0002 -0.0002 -0.0002 -0.0002 -0.0002 -0.0002 -0.0002);
    }
    outlet
    {
        type            calculated;
        value           nonuniform 0();
    }
    fixedWalls
    {
        type            calculated;
        value           uniform 0;
    }
    frontAndBack
    {
        type            empty;
    }
    procBoundary2to3
    {
        type            processor;
        value           nonuniform List<scalar> 9(-1.95962e-05 -6.82932e-05 -0.000103405 -0.000127819 -0.000152613 -0.000186696 -0.00024238 -0.000321211 -0.000377988);
    }
    procBoundary2to1
    {
        type            processor;
        value           nonuniform List<scalar> 7(0.000320485 0.000533376 0.000548806 0.000508356 0.000467674 0.000403109 0.000218193);
    }
}


// ************************************************************************* //
