/*--------------------------------*- C++ -*----------------------------------*\
| =========                 |                                                 |
| \\      /  F ield         | OpenFOAM Extend Project: Open source CFD        |
|  \\    /   O peration     | Version:  1.6-ext                               |
|   \\  /    A nd           | Web:      www.extend-project.de                 |
|    \\/     M anipulation  |                                                 |
\*---------------------------------------------------------------------------*/
FoamFile
{
    version     2.0;
    format      ascii;
    class       surfaceScalarField;
    location    "1";
    object      phi;
}
// * * * * * * * * * * * * * * * * * * * * * * * * * * * * * * * * * * * * * //

dimensions      [0 3 -1 0 0 0 0];

internalField   nonuniform List<scalar> 
123
(
0.000203151
1.02512e-05
0.000211768
4.34483e-05
0.000223443
8.11175e-05
0.000236498
0.000114939
0.000251441
0.000145459
0.000271511
0.000177899
0.000307666
0.000219146
0.000380714
0.000259105
0.000330055
0.00041858
0.00020438
5.87084e-06
0.000216555
3.12735e-05
0.000233966
6.3707e-05
0.00025495
9.39539e-05
0.000280541
0.000119868
0.000314336
0.000144105
0.000362349
0.000171133
0.00044184
0.000179614
0.000242162
0.000529733
0.000206212
-3.41255e-07
0.000221703
1.5783e-05
0.000243261
4.21485e-05
0.000268905
6.83102e-05
0.000298906
8.98663e-05
0.000335543
0.000107468
0.000381971
0.000124705
0.000440254
0.000121331
0.000152235
0.000530181
0.000209222
-9.56367e-06
0.000227819
-2.81318e-06
0.000251445
1.8522e-05
0.0002785
4.12549e-05
0.000309077
5.92903e-05
0.000344472
7.20726e-05
0.000386786
8.23902e-05
0.000430697
7.74205e-05
8.69624e-05
0.000495969
0.000213776
-2.33399e-05
0.000232728
-2.17647e-05
0.000254288
-3.03867e-06
0.000278815
1.67286e-05
0.000307016
3.10885e-05
0.000339142
3.99471e-05
0.000376064
4.54679e-05
0.000411315
4.21699e-05
4.2542e-05
0.000455735
0.000211256
-3.45959e-05
0.000218634
-2.91422e-05
0.000228507
-1.29116e-05
0.000244505
7.30416e-07
0.000266506
9.08697e-06
0.00029284
1.36138e-05
0.000322542
1.57654e-05
0.00035046
1.42519e-05
1.30748e-05
0.000379927
0.000165404
0.000136262
0.00012335
0.000124081
0.000133168
0.000146781
0.000162547
0.000176799
0.000189874
0.000130657
0.000134224
9.91638e-05
5.99921e-05
2.77373e-05
6.99513e-06
)
;

boundaryField
{
    inlet
    {
        type            calculated;
        value           nonuniform List<scalar> 7(-0.0002 -0.0002 -0.0002 -0.0002 -0.0002 -0.0002 -0.0002);
    }
    outlet
    {
        type            calculated;
        value           nonuniform 0();
    }
    fixedWalls
    {
        type            calculated;
        value           uniform 0;
    }
    frontAndBack
    {
        type            empty;
    }
    procBoundary2to3
    {
        type            processor;
        value           nonuniform List<scalar> 9(-1.34026e-05 -5.20646e-05 -9.27927e-05 -0.000127993 -0.000160402 -0.000197969 -0.000255301 -0.000332152 -0.000367922);
    }
    procBoundary2to1
    {
        type            processor;
        value           nonuniform List<scalar> 7(0.000287923 0.000526167 0.000565241 0.000535141 0.00048799 0.000400669 0.000196869);
    }
}


// ************************************************************************* //
