/*--------------------------------*- C++ -*----------------------------------*\
| =========                 |                                                 |
| \\      /  F ield         | OpenFOAM Extend Project: Open source CFD        |
|  \\    /   O peration     | Version:  1.6-ext                               |
|   \\  /    A nd           | Web:      www.extend-project.de                 |
|    \\/     M anipulation  |                                                 |
\*---------------------------------------------------------------------------*/
FoamFile
{
    version     2.0;
    format      ascii;
    class       surfaceScalarField;
    location    "4";
    object      phi;
}
// * * * * * * * * * * * * * * * * * * * * * * * * * * * * * * * * * * * * * //

dimensions      [0 3 -1 0 0 0 0];

internalField   nonuniform List<scalar> 
127
(
0.000160821
3.91793e-05
0.000117026
4.37951e-05
8.13661e-05
3.56595e-05
5.42194e-05
2.71467e-05
3.41615e-05
2.00579e-05
1.91829e-05
1.49786e-05
7.97281e-06
1.121e-05
9.04718e-07
7.0681e-06
9.04718e-07
0.000204944
3.42353e-05
0.000190247
5.84925e-05
0.000162132
6.37745e-05
0.000128513
6.07656e-05
9.41034e-05
5.44671e-05
6.16533e-05
4.74287e-05
3.2836e-05
4.00274e-05
1.0245e-05
2.96592e-05
1.11497e-05
0.000208655
2.55805e-05
0.000208076
5.90716e-05
0.000194111
7.7739e-05
0.000168393
8.64837e-05
0.000134344
8.85159e-05
9.56607e-05
8.61125e-05
5.58449e-05
7.98431e-05
2.00374e-05
6.54667e-05
3.11871e-05
0.000205055
2.05252e-05
0.000208186
5.59407e-05
0.000202663
8.32625e-05
0.000185976
0.00010317
0.000157946
0.000116545
0.000119981
0.000124078
7.49371e-05
0.000124887
2.91459e-05
0.000111258
6.0333e-05
0.000202379
1.81466e-05
0.000205271
5.30485e-05
0.000203764
8.47695e-05
0.000193964
0.00011297
0.000173041
0.000137468
0.000139407
0.000157711
9.32194e-05
0.000171075
3.94992e-05
0.000164978
9.98322e-05
0.000201252
1.68941e-05
0.000203807
5.04944e-05
0.000204747
8.38292e-05
0.000200469
0.000117249
0.000186984
0.000150953
0.000160193
0.000184502
0.000116443
0.000214826
5.58236e-05
0.000225597
0.000155656
0.000201177
1.57175e-05
0.000204435
4.72357e-05
0.000208106
8.01587e-05
0.000209472
0.000115883
0.000204705
0.00015572
0.000188729
0.000200478
0.000153249
0.000250306
8.79191e-05
0.000290927
0.000243575
0.000201718
0.000206765
0.00021414
0.000222115
0.000227809
0.000226305
0.000204942
0.000139166
)
;

boundaryField
{
    inlet
    {
        type            calculated;
        value           nonuniform List<scalar> 8(-0.0002 -0.0002 -0.0002 -0.0002 -0.0002 -0.0002 -0.0002 -0.0002);
    }
    outlet
    {
        type            calculated;
        value           nonuniform 0();
    }
    fixedWalls
    {
        type            calculated;
        value           uniform 0;
    }
    frontAndBack
    {
        type            empty;
    }
    procBoundary3to2
    {
        type            processor;
        value           nonuniform List<scalar> 9(1.39995e-05 4.21889e-05 7.27834e-05 0.000107908 0.000150026 0.000201981 0.000271668 0.000356704 0.000382741);
    }
}


// ************************************************************************* //
