/*--------------------------------*- C++ -*----------------------------------*\
| =========                 |                                                 |
| \\      /  F ield         | OpenFOAM Extend Project: Open source CFD        |
|  \\    /   O peration     | Version:  1.6-ext                               |
|   \\  /    A nd           | Web:      www.extend-project.de                 |
|    \\/     M anipulation  |                                                 |
\*---------------------------------------------------------------------------*/
FoamFile
{
    version     2.0;
    format      ascii;
    class       volSymmTensorField;
    location    "0.25";
    object      DSigma;
}
// * * * * * * * * * * * * * * * * * * * * * * * * * * * * * * * * * * * * * //

dimensions      [1 -1 -2 0 0 0 0];

internalField   nonuniform List<symmTensor> 
328
(
(0.0564244 0.0105832 8.2565e-25 0.0218391 -4.64955e-21 0.0313054)
(0.0560565 0.00555751 1.65175e-26 0.0324186 7.80973e-28 0.0353901)
(0.0613199 -0.00498443 -1.97324e-25 0.0347706 2.26706e-25 0.0384362)
(0.0777095 -0.013042 3.20996e-24 0.029516 1.29599e-20 0.0428902)
(0.0526877 0.00732825 -6.87058e-24 0.0143589 3.64053e-21 0.0268186)
(0.0561869 0.00430186 0 0.0242817 0 0.0321874)
(0.0614065 -0.00447362 0 0.0250663 0 0.0345891)
(0.0730486 -0.00901162 9.71608e-24 0.019662 -1.36147e-20 0.0370842)
(0.0516469 0.00454769 4.92669e-24 0.00989658 -2.77463e-21 0.0246174)
(0.0588544 0.00304455 -1.73116e-24 0.0194826 -6.15827e-25 0.0313348)
(0.064455 -0.00373733 0 0.0195683 0 0.0336093)
(0.0718659 -0.00569776 -3.65747e-24 0.0139133 6.78978e-21 0.0343117)
(0.050461 0.00250336 -1.11521e-24 0.00678605 1.48672e-20 0.0228988)
(0.0596116 0.00182924 1.36019e-24 0.0149828 3.96367e-25 0.0298378)
(0.0651684 -0.00284636 6.38016e-25 0.0145066 -4.76959e-25 0.03187)
(0.0702923 -0.00332532 -1.35085e-23 0.00995131 -1.39592e-20 0.0320975)
(0.0500514 0.00111391 -8.90519e-25 0.00496821 -4.49128e-21 0.0220078)
(0.0604905 0.000814087 -5.08591e-25 0.011885 -6.41647e-26 0.0289502)
(0.0660273 -0.00200677 1.16492e-24 0.0111285 -5.52773e-25 0.0308623)
(0.0696044 -0.00175139 -1.64795e-23 0.00767097 1.31917e-20 0.0309101)
(0.0499053 0.000201822 1.39451e-24 0.0038932 1.52791e-22 0.0215194)
(0.0607621 2.24912e-05 7.29429e-24 0.00947637 1.01536e-24 0.0280954)
(0.0661759 -0.00130829 0 0.00853821 0 0.0298857)
(0.069135 -0.000742385 1.85544e-23 0.00632945 1.0884e-20 0.0301858)
(0.0500704 -0.000360168 -1.69103e-23 0.00335297 1.89286e-21 0.0213693)
(0.0608822 -0.00053206 -5.8685e-24 0.00783101 -6.47801e-25 0.0274853)
(0.066166 -0.000794303 1.89417e-23 0.00680406 -5.76232e-24 0.029188)
(0.0689743 -0.000134963 -3.83863e-25 0.00564704 -6.72752e-21 0.0298485)
(0.0503986 -0.000682017 1.31791e-23 0.00313648 -1.67284e-20 0.021414)
(0.0607848 -0.00088237 -1.8246e-23 0.00670642 -3.71303e-25 0.0269965)
(0.0659175 -0.000456198 6.44166e-24 0.00563258 -2.11317e-24 0.02862)
(0.0689491 0.000205277 -3.29771e-24 0.00534852 -1.10006e-20 0.0297191)
(0.0508387 -0.000842314 -2.19609e-24 0.00312902 -1.06015e-21 0.0215871)
(0.0606088 -0.00106727 -8.61526e-25 0.00601844 4.89684e-25 0.0266509)
(0.06559 -0.000266981 -1.96896e-23 0.00492811 5.01449e-24 0.0282073)
(0.0690121 0.000370984 -1.94699e-24 0.00528815 1.46184e-20 0.0297201)
(0.0513252 -0.000901809 2.09216e-25 0.00324666 2.90705e-21 0.0218288)
(0.0603844 -0.00113327 2.00167e-23 0.00564165 -2.78174e-25 0.0264104)
(0.0652127 -0.000187487 0 0.00455088 0 0.0279054)
(0.0690935 0.000431162 6.63637e-24 0.00536277 -6.77269e-21 0.0297825)
(0.051821 -0.000903268 -5.79003e-24 0.00344106 -1.83332e-21 0.0221048)
(0.060166 -0.00112149 5.63111e-24 0.00549567 1.59359e-25 0.0262647)
(0.0648433 -0.000179856 6.30329e-23 0.00441563 -1.87776e-23 0.0277036)
(0.0691565 0.000432807 -7.11747e-24 0.00551509 -2.21296e-21 0.0298686)
(0.0522992 -0.000876437 -1.25404e-23 0.00368312 -4.62082e-21 0.0223929)
(0.059977 -0.00106628 -1.2845e-24 0.00550923 2.44303e-24 0.0261945)
(0.0645041 -0.000211214 -3.8966e-23 0.00444723 1.2303e-23 0.0275805)
(0.0691742 0.000407804 -1.66565e-23 0.00571197 -3.24926e-21 0.0299545)
(0.052748 -0.000839713 1.39028e-23 0.00395935 9.16583e-21 0.0226829)
(0.0598356 -0.000992399 4.45564e-23 0.00563448 -8.634e-24 0.026188)
(0.0642129 -0.000257173 0 0.0045962 0 0.0275237)
(0.0691355 0.000375451 1.83259e-23 0.00593874 9.20285e-21 0.0300297)
(0.0531654 -0.000802753 -1.55644e-24 0.00426621 -6.61309e-22 0.0229726)
(0.0597482 -0.000915766 8.07079e-23 0.00583861 -1.70312e-23 0.0262347)
(0.0639751 -0.000301729 0 0.00482864 0 0.0275215)
(0.0690398 0.000345718 -7.35126e-23 0.00619214 -4.33819e-21 0.0300928)
(0.0535575 -0.000768331 1.39505e-22 0.00460699 2.56184e-21 0.0232658)
(0.0597165 -0.000844611 -1.12523e-22 0.00610367 2.2691e-23 0.0263281)
(0.0637914 -0.000336487 -1.38715e-22 0.00512605 4.60631e-23 0.027567)
(0.0688949 0.00032134 3.04259e-23 0.00647645 5.04166e-22 0.0301485)
(0.0539365 -0.000734264 -7.97986e-23 0.00498864 -1.14261e-21 0.02357)
(0.0597392 -0.000781474 3.26415e-23 0.0064218 -9.7333e-24 0.0264644)
(0.0636598 -0.00035891 1.3246e-22 0.00548017 -4.69082e-23 0.027656)
(0.0687151 0.000299871 -3.56822e-23 0.00679997 4.65515e-22 0.030206)
(0.0543185 -0.000695066 -1.50073e-22 0.00541889 1.92995e-21 0.023895)
(0.0598159 -0.000725198 -1.35872e-22 0.00679167 4.11696e-23 0.026643)
(0.0635798 -0.000370594 -7.4015e-23 0.0058895 2.9225e-23 0.0277877)
(0.0685197 0.000275299 7.35524e-23 0.00717198 -2.30866e-21 0.0302767)
(0.0547234 -0.00064352 5.16542e-23 0.00590323 2.43344e-21 0.0242507)
(0.059949 -0.000672808 6.31287e-23 0.0072139 -1.99455e-23 0.0268651)
(0.0635536 -0.000375658 0 0.00635451 0 0.0279632)
(0.0683313 0.00023955 1.68426e-22 0.00759955 7.33763e-21 0.0303723)
(0.0551748 -0.00057218 2.4779e-22 0.00644191 -6.33398e-21 0.0246467)
(0.0601466 -0.00062105 0 0.00768704 0 0.0271335)
(0.0635895 -0.000379504 0 0.00687372 0 0.0281853)
(0.0681768 0.00018388 1.42065e-23 0.0080844 -4.59439e-21 0.0305045)
(0.0556993 -0.000475052 -1.21423e-22 0.00702613 2.30532e-21 0.0250902)
(0.0604225 -0.000567529 1.47893e-22 0.00820246 -6.01592e-23 0.02745)
(0.0637011 -0.000387848 1.61184e-22 0.00743836 -7.0991e-23 0.0284558)
(0.068085 0.000100519 1.50487e-23 0.00861862 -7.70706e-22 0.0306815)
(0.0563299 -0.000349113 2.63731e-22 0.00763664 1.66979e-21 0.0255866)
(0.0607996 -0.000511606 2.66615e-23 0.00874261 -2.10532e-23 0.0278169)
(0.0639112 -0.000405985 -1.50288e-22 0.00803082 6.61918e-23 0.0287768)
(0.0680894 -1.58311e-05 1.93175e-22 0.0091832 1.26303e-22 0.030909)
(0.0570987 -0.000196152 1.28294e-22 0.00823738 -4.04915e-23 0.0261344)
(0.0613012 -0.000454425 -2.82245e-22 0.00927251 1.24867e-22 0.0282295)
(0.0642416 -0.000437929 1.67065e-22 0.00861568 -8.23132e-23 0.0291429)
(0.0682168 -0.000165599 -8.60851e-22 0.00974001 5.62061e-22 0.0311827)
(0.0580851 -1.7892e-05 2.70015e-22 0.00880277 -2.94358e-22 0.0267552)
(0.0619959 -0.000396504 2.56423e-23 0.00977038 -2.00535e-23 0.0287065)
(0.0647526 -0.000485833 -2.54207e-24 0.00917373 4.07102e-24 0.0295705)
(0.0685174 -0.000348135 -3.22433e-24 0.010261 6.06405e-23 0.0315114)
(0.059289 0.000164635 2.70728e-22 0.00924143 1.2425e-22 0.0274122)
(0.0628859 -0.000351138 -2.94486e-22 0.0101361 1.47763e-22 0.0292088)
(0.065448 -0.000554658 2.93053e-22 0.00960196 -1.47627e-22 0.03002)
(0.0689951 -0.000550118 -4.91496e-25 0.0106499 -1.1512e-21 0.031858)
(0.0606498 0.000334986 -3.2385e-22 0.0094668 -4.43576e-22 0.0280466)
(0.0639333 -0.000319575 7.01835e-22 0.0102969 -4.1254e-22 0.0296921)
(0.0662966 -0.00063324 -2.71475e-24 0.00982272 1.0785e-23 0.0304477)
(0.0696096 -0.000749793 -3.76972e-22 0.0108132 -2.35426e-23 0.0321691)
(0.0621573 0.000477913 3.51444e-22 0.00947165 4.13141e-22 0.0286516)
(0.0651215 -0.000303138 -3.23107e-22 0.0102391 1.90103e-22 0.0301442)
(0.0672774 -0.000712475 -8.06173e-25 0.00982268 5.81762e-24 0.03084)
(0.0703351 -0.00092795 -1.862e-25 0.0107409 -3.69848e-22 0.0324304)
(0.0637926 0.000586311 -3.49806e-22 0.00926876 -3.33825e-22 0.0292245)
(0.0664298 -0.000300118 3.39238e-25 0.00997236 -6.51257e-24 0.0305609)
(0.068367 -0.000785226 -2.98218e-23 0.00961188 2.40156e-23 0.0311916)
(0.0711406 -0.00107355 -1.68159e-24 0.0104431 -3.11326e-21 0.0326335)
(0.0655288 0.000657114 -3.79661e-22 0.00888566 -3.32392e-21 0.0297658)
(0.0678303 -0.0003076 3.00984e-23 0.00952242 -3.06917e-23 0.0309411)
(0.0695364 -0.000845009 -3.02884e-23 0.0092166 2.46882e-23 0.0315012)
(0.0719964 -0.00117942 -3.00816e-23 0.00994778 1.81456e-21 0.0327777)
(0.0673368 0.000690432 8.77761e-22 0.00836654 5.82756e-22 0.0302814)
(0.0692932 -0.000321896 5.01057e-22 0.00893067 -3.58411e-22 0.0312896)
(0.0707571 -0.000887207 0 0.00867873 0 0.0317743)
(0.0728782 -0.00124217 4.98733e-22 0.00930183 -2.10755e-21 0.032872)
(0.0691828 0.000690296 -1.75174e-21 0.00775557 1.22548e-21 0.0307753)
(0.070787 -0.000339048 -3.88698e-21 0.0082415 2.74377e-21 0.0316114)
(0.072 -0.000909476 1.00316e-21 0.00804296 -7.04948e-22 0.0320172)
(0.0737633 -0.00126333 -1.13155e-21 0.00855335 8.06224e-22 0.0329267)
(0.0710346 0.000661907 8.71412e-22 0.00709874 -3.89528e-21 0.0312533)
(0.0722827 -0.000355705 9.39411e-22 0.00750094 -6.78482e-22 0.0319135)
(0.0732404 -0.000911368 2.20333e-21 0.00735549 -1.59616e-21 0.0322384)
(0.0746359 -0.00124671 1.13555e-21 0.0077532 5.11352e-21 0.0329556)
(0.0728604 0.000611855 4.06551e-24 0.00643392 5.79852e-21 0.0317177)
(0.0737538 -0.000369235 0 0.00674866 0 0.032201)
(0.074456 -0.000894277 -1.13469e-21 0.00665588 8.2511e-22 0.0324448)
(0.0754821 -0.00119865 -2.47507e-24 0.00694402 -3.50523e-21 0.0329705)
(0.0746325 0.000546425 -6.03541e-26 0.00579226 -8.22894e-23 0.0321699)
(0.075178 -0.000378064 1.20737e-21 0.00601762 -9.18179e-22 0.0324783)
(0.0756293 -0.000860749 2.42606e-24 0.00597677 -1.26461e-23 0.0326424)
(0.076293 -0.00112604 1.27129e-21 0.00616137 -4.72387e-22 0.0329818)
(0.0763266 0.000471514 2.42294e-21 0.00519532 -3.91285e-22 0.0326088)
(0.0765369 -0.000381524 -2.4168e-21 0.00533167 1.84778e-21 0.0327474)
(0.0767462 -0.00081414 1.41372e-21 0.00534157 -1.0882e-21 0.0328351)
(0.0770611 -0.0010361 7.45615e-23 0.00543031 6.59997e-21 0.0329966)
(0.0779235 0.000391991 -1.2166e-21 0.00465696 -4.39675e-21 0.0330322)
(0.0778163 -0.000379782 -1.35193e-21 0.00470668 1.05343e-21 0.0330092)
(0.077796 -0.000758093 -1.34861e-21 0.0047656 1.04258e-21 0.0330246)
(0.0777814 -0.000935419 -2.82823e-21 0.00476734 -6.38017e-22 0.0330195)
(0.0794083 0.000311719 1.76293e-24 0.0041839 2.14468e-21 0.0334369)
(0.0790053 -0.000373586 -7.46335e-23 0.00415114 6.73857e-23 0.0332626)
(0.0787705 -0.000696236 2.9105e-21 0.00425687 -2.26886e-21 0.033211)
(0.0784494 -0.000829755 1.55127e-21 0.00418083 -5.68119e-21 0.0330521)
(0.0807706 0.000233491 2.38844e-24 0.00377772 2.81427e-21 0.0338193)
(0.0800961 -0.000364066 2.92915e-21 0.00366789 -2.30853e-21 0.0335056)
(0.0796639 -0.000631905 -1.49242e-21 0.00381778 1.16871e-21 0.0333927)
(0.0790613 -0.000723786 2.82522e-24 0.00367316 3.35178e-21 0.0330938)
(0.0820036 0.000159178 6.31515e-23 0.00343618 -2.91775e-21 0.0341759)
(0.0810833 -0.000352524 -3.01098e-21 0.00325548 2.38371e-21 0.0337355)
(0.0804713 -0.000568001 0 0.00344659 0 0.0335672)
(0.0796132 -0.000621117 1.70933e-21 0.00324212 -1.51374e-21 0.0331421)
(0.0831039 8.98812e-05 1.58714e-21 0.00315469 -7.5771e-22 0.0345034)
(0.0819631 -0.00034026 -1.58667e-21 0.00290964 1.2613e-21 0.0339491)
(0.0811891 -0.000506894 1.72188e-21 0.00313888 -1.36984e-21 0.0337312)
(0.0801008 -0.000524336 7.64659e-23 0.00288258 -1.4289e-22 0.0331934)
(0.0840702 2.6119e-05 1.66501e-21 0.00292737 -2.46083e-21 0.034799)
(0.0827333 -0.000328442 -1.66603e-21 0.0026244 1.3257e-21 0.0341431)
(0.0818139 -0.000450387 -3.52198e-21 0.00288866 2.80459e-21 0.033881)
(0.0805194 -0.000435143 -3.64202e-21 0.00258765 3.55781e-21 0.0332428)
(0.0849032 -3.20001e-05 3.6428e-24 0.00274789 3.86825e-21 0.0350605)
(0.0833922 -0.000318011 0 0.002393 0 0.0343141)
(0.0823428 -0.000399723 -7.88546e-23 0.0026893 6.35837e-23 0.0340128)
(0.0808636 -0.000354497 -9.97782e-25 0.00234965 -1.07095e-21 0.0332853)
(0.0856047 -8.4625e-05 1.82625e-21 0.00260997 -2.69719e-21 0.0352859)
(0.0839387 -0.000309621 1.95897e-21 0.00220851 -1.56083e-21 0.0344589)
(0.0827728 -0.00035561 -9.18371e-24 0.0025341 5.40455e-24 0.0341227)
(0.0811276 -0.00028276 -2.01781e-21 0.00216082 2.63228e-21 0.0333154)
(0.0861768 -0.000132039 1.91209e-21 0.00250778 1.44942e-21 0.0354738)
(0.0843719 -0.000303609 -3.80744e-21 0.0020643 3.02012e-21 0.0345745)
(0.0831008 -0.000318272 2.02801e-21 0.00241674 -1.61681e-21 0.034207)
(0.0813055 -0.000219834 4.17889e-21 0.00201377 -3.14532e-22 0.0333277)
(0.0866219 -0.000174572 2.00041e-21 0.0024361 -5.46875e-21 0.0356232)
(0.084691 -0.000300002 -1.19807e-23 0.00195431 2.58701e-24 0.0346581)
(0.0833239 -0.000287503 -2.04916e-21 0.00233148 1.62459e-21 0.0342621)
(0.0813911 -0.000165279 -2.09939e-21 0.00190175 -6.82958e-22 0.0333171)
(0.0869422 -0.00021254 7.01373e-23 0.00239035 3.3793e-22 0.035733)
(0.0848949 -0.000298536 -1.28674e-23 0.00187313 1.84456e-24 0.0347072)
(0.083439 -0.000262744 0 0.00227325 0 0.0342849)
(0.0813784 -0.000118413 2.25425e-21 0.0018188 -1.527e-21 0.0332789)
(0.0871389 -0.000246214 -2.17153e-21 0.00236659 1.7664e-21 0.0358022)
(0.0849824 -0.000298708 0 0.00181609 0 0.0347194)
(0.0834431 -0.000243162 -2.26587e-21 0.0022377 1.79112e-21 0.0342723)
(0.081262 -7.83962e-05 9.70211e-24 0.00175982 -2.11707e-21 0.0332087)
(0.0872129 -0.000275807 4.42685e-21 0.00236146 -3.64145e-21 0.0358297)
(0.0849519 -0.000299834 0 0.00177923 0 0.0346925)
(0.0833331 -0.00022773 2.35872e-21 0.00222113 -1.84604e-21 0.0342217)
(0.0810368 -4.42992e-05 2.39965e-21 0.0017205 -6.25453e-22 0.0331029)
(0.0871638 -0.000301486 -2.20671e-21 0.00237204 -2.53466e-22 0.0358143)
(0.0848016 -0.000301119 5.06973e-23 0.00175923 -5.36156e-23 0.0346244)
(0.0831064 -0.000215314 -2.29349e-21 0.00222039 1.79438e-21 0.0341307)
(0.0806987 -1.51607e-05 2.49061e-21 0.00169733 6.21882e-23 0.0329584)
(0.0869905 -0.000323377 7.09806e-24 0.00239583 6.63594e-21 0.0357545)
(0.0845296 -0.000301728 2.45418e-21 0.00175332 -1.89642e-21 0.0345132)
(0.0827602 -0.000204753 -4.89281e-21 0.00223284 3.79393e-21 0.0339972)
(0.0802443 9.96546e-06 -2.47058e-21 0.00168744 5.78882e-21 0.0327727)
(0.0866909 -0.000341591 -2.49111e-21 0.00243058 -1.04653e-21 0.0356486)
(0.0841335 -0.000300858 2.48792e-21 0.00175922 -1.89174e-21 0.0343571)
(0.0822922 -0.000194934 0 0.00225623 0 0.0338194)
(0.0796712 3.19729e-05 -2.56797e-21 0.00168857 1.2932e-22 0.0325439)
(0.0862622 -0.000356241 2.57035e-21 0.0024743 -1.60582e-21 0.0354946)
(0.0836109 -0.00029779 4.45267e-23 0.00177504 -5.28197e-23 0.0341544)
(0.0817003 -0.000184852 -5.29029e-21 0.00228862 4.03042e-21 0.0335956)
(0.0789778 5.16737e-05 3.37191e-24 0.00169893 3.12492e-21 0.0322707)
(0.0857009 -0.000367457 -5.26731e-21 0.00252516 -2.34314e-21 0.0352904)
(0.0829595 -0.000291942 5.34526e-21 0.00179925 -4.01834e-21 0.0339035)
(0.0809827 -0.000173659 -2.75393e-21 0.00232833 2.08209e-21 0.0333244)
(0.0781634 6.97783e-05 5.51664e-21 0.00171712 -2.04174e-21 0.0319522)
(0.0850034 -0.000375401 2.69664e-21 0.0025815 2.21196e-21 0.0350339)
(0.0821768 -0.000282896 0 0.00183053 0 0.0336029)
(0.080138 -0.000160695 5.64261e-21 0.0023739 -4.24923e-21 0.0330048)
(0.0772279 8.6883e-05 -5.68543e-21 0.00174206 3.48145e-22 0.031588)
(0.0841655 -0.000380272 -2.8169e-21 0.00264178 -2.05618e-21 0.0347229)
(0.0812605 -0.000270414 5.68242e-21 0.00186783 -4.17535e-21 0.0332513)
(0.079165 -0.0001455 -5.7369e-21 0.00242401 4.28205e-21 0.0326356)
(0.0761718 0.000103465 2.86846e-21 0.00177293 -2.6403e-21 0.0311779)
(0.0831834 -0.00038231 -2.85651e-21 0.00270457 1.33503e-21 0.0343552)
(0.0802087 -0.00025444 -2.87014e-21 0.00191021 2.11003e-21 0.0328476)
(0.078063 -0.00012782 2.90642e-21 0.00247751 -2.15992e-21 0.0322162)
(0.0749964 0.000119886 3.01636e-21 0.00180905 -7.05876e-22 0.0307222)
(0.0820535 -0.000381784 -8.89962e-21 0.00276862 4.04718e-21 0.0339288)
(0.0790196 -0.000235081 2.96925e-21 0.00195693 -2.13816e-21 0.0323906)
(0.0768315 -0.000107582 3.03442e-21 0.00253336 -2.23544e-21 0.0317459)
(0.0737029 0.0001364 -2.98938e-21 0.0018499 -4.00634e-21 0.0302211)
(0.0807726 -0.000378993 6.03734e-21 0.00283276 -4.56783e-21 0.0334421)
(0.0776918 -0.00021258 -3.04595e-21 0.0020073 2.17084e-21 0.0318796)
(0.0754704 -8.48711e-05 0 0.00259064 0 0.0312244)
(0.0722931 0.000153167 -2.15179e-23 0.00189505 -1.69118e-21 0.0296753)
(0.0793382 -0.000374246 3.14646e-21 0.00289601 -6.75055e-22 0.0328937)
(0.0762246 -0.000187278 0 0.00206078 0 0.0313141)
(0.0739801 -5.98883e-05 0 0.00264854 0 0.0306515)
(0.0707688 0.00017027 3.15818e-21 0.0019441 3.55224e-22 0.0290852)
(0.0777486 -0.000367851 2.82035e-23 0.0029575 3.13496e-21 0.0322825)
(0.0746176 -0.000159578 0 0.00211687 0 0.0306938)
(0.0723611 -3.29132e-05 3.26683e-21 0.00270636 -2.30951e-21 0.030027)
(0.0691322 0.000187739 -3.57255e-24 0.00199674 -3.14449e-21 0.0284516)
(0.0760029 -0.000360098 -6.53929e-21 0.00301652 1.04862e-21 0.0316078)
(0.072871 -0.000129902 -3.28983e-21 0.00217516 2.29887e-21 0.0300185)
(0.0706146 -4.26217e-06 3.33466e-21 0.00276348 -2.33158e-21 0.0293513)
(0.0673853 0.000205562 -6.67223e-21 0.00205265 -8.29725e-22 0.0277752)
(0.0741008 -0.000351253 6.61477e-21 0.0030725 1.21412e-21 0.0308693)
(0.0709858 -9.86621e-05 0 0.00223529 0 0.0292884)
(0.0687421 2.57434e-05 0 0.00281942 0 0.0286246)
(0.0655306 0.000223705 3.35516e-21 0.00211158 -1.58046e-21 0.0270569)
(0.0720431 -0.000341549 -3.40967e-21 0.00312499 -1.05543e-21 0.0300672)
(0.0689632 -6.62409e-05 3.40577e-21 0.00229699 -2.29552e-21 0.0285041)
(0.0667453 5.67976e-05 0 0.00287375 0 0.0278476)
(0.0635705 0.000242121 -6.93414e-21 0.0021733 4.3818e-21 0.0262975)
(0.0698313 -0.000331185 -3.47394e-21 0.00317363 6.46357e-22 0.029202)
(0.0668053 -3.29857e-05 3.472e-21 0.00236002 -2.31268e-21 0.0276661)
(0.0646268 8.86154e-05 0 0.00292617 0 0.0270212)
(0.0615079 0.000260756 -3.57219e-21 0.00223762 3.12636e-21 0.0254982)
(0.0674677 -0.000320333 1.35443e-25 0.0032182 1.16179e-22 0.0282744)
(0.0645147 7.81432e-07 2.41614e-23 0.00242419 1.37394e-23 0.0267756)
(0.0623892 0.000120925 3.54864e-21 0.00297644 -2.367e-21 0.0261463)
(0.0593458 0.000279542 -5.58168e-23 0.00230442 7.0426e-22 0.0246601)
(0.0649553 -0.000309146 3.61528e-21 0.00325854 1.06226e-21 0.0272855)
(0.0620946 3.47413e-05 3.63264e-21 0.00248939 -2.36367e-21 0.0258336)
(0.0600359 0.000153443 -7.2484e-21 0.00302444 4.77715e-21 0.0252241)
(0.0570877 0.000298394 7.24379e-21 0.00237361 -2.40327e-21 0.0237845)
(0.0622977 -0.000297777 -3.62376e-21 0.00329459 1.03582e-21 0.0262369)
(0.0595487 6.85466e-05 0 0.00255552 0 0.0248417)
(0.0575704 0.000185851 3.64053e-21 0.0030701 -2.39966e-21 0.0242562)
(0.0547369 0.0003172 -7.32791e-21 0.00244517 1.84789e-21 0.0228728)
(0.0594994 -0.000286387 1.14411e-25 0.00332638 9.76392e-23 0.0251303)
(0.0568811 0.000101787 -3.74266e-21 0.00262255 2.37641e-21 0.0238015)
(0.0549968 0.000217753 0 0.00311346 0 0.0232441)
(0.0522973 0.000335805 1.56857e-24 0.00251911 1.35294e-21 0.0219266)
(0.0565657 -0.000275169 -4.94197e-25 0.00335402 -4.21238e-22 0.0239679)
(0.0540967 0.000133958 -5.1231e-23 0.00269044 3.1996e-24 0.0227148)
(0.0523195 0.000248653 3.77274e-21 0.00315463 -2.4255e-21 0.0221897)
(0.0497727 0.000354007 -3.77555e-21 0.00259547 -4.72378e-25 0.0209473)
(0.0535027 -0.000264356 3.81728e-21 0.00337773 -5.07069e-22 0.0227522)
(0.0512006 0.000164432 3.7939e-21 0.00275919 -2.37961e-21 0.0215839)
(0.0495431 0.000277923 0 0.00319381 0 0.0210947)
(0.0471668 0.000371544 -1.62732e-24 0.00267427 -1.40056e-21 0.0199364)
(0.0503172 -0.000254229 3.88904e-21 0.00339785 -1.23583e-21 0.021486)
(0.0481988 0.000192441 0 0.00282884 0 0.020411)
(0.0466722 0.000304792 0 0.00323131 0 0.0199614)
(0.0444831 0.000388086 -9.93889e-30 0.00275556 -8.54713e-27 0.0188955)
(0.0470174 -0.000245136 -7.79873e-21 0.00341485 3.87372e-21 0.0201729)
(0.0450972 0.000217068 3.91001e-21 0.00289939 -2.36562e-21 0.0191987)
(0.0437119 0.000328342 0 0.00326751 0 0.0187917)
(0.0417245 0.000403254 3.92479e-21 0.00283927 3.08596e-22 0.0178255)
(0.0436124 -0.00023747 3.95268e-21 0.00342946 -1.32513e-21 0.0188168)
(0.0419028 0.000237247 -3.95146e-21 0.00297096 2.36344e-21 0.0179495)
(0.040667 0.000347519 0 0.00330297 0 0.017588)
(0.0388937 0.000416589 -3.94601e-21 0.00292541 -4.18182e-22 0.0167277)
(0.0401127 -0.000231726 3.99048e-21 0.00344245 -1.61948e-21 0.017422)
(0.0386227 0.000251768 -3.98961e-21 0.00304359 2.35984e-21 0.0166665)
(0.0375423 0.000361177 -3.999e-21 0.00333834 2.3888e-21 0.0163523)
(0.0359924 0.000427632 7.95221e-21 0.00301375 -1.99737e-21 0.0156024)
(0.0365301 -0.000228446 4.02587e-21 0.00345516 -1.07835e-21 0.0159941)
(0.0352644 0.000259285 -4.02437e-21 0.00311762 2.355e-21 0.0153528)
(0.0343428 0.000368168 3.99901e-21 0.00337463 -2.3888e-21 0.015087)
(0.0330216 0.000435898 -3.99272e-21 0.00310427 1.02551e-21 0.0144503)
(0.032878 -0.000228306 4.06277e-21 0.0034691 -1.18972e-21 0.0145388)
(0.0318358 0.000258347 0 0.00319332 0 0.0140117)
(0.0310728 0.000367453 0 0.00341293 0 0.0137943)
(0.0299816 0.000441008 8.0817e-21 0.00319677 -2.47834e-21 0.0132714)
(0.029172 -0.000232366 3.65246e-25 0.00348643 3.09919e-22 0.0130634)
(0.0283456 0.000247184 4.09215e-21 0.00327196 -2.34597e-21 0.012647)
(0.0277369 0.000358552 4.0836e-21 0.00345537 -2.35979e-21 0.0124769)
(0.026873 0.000443025 -4.04993e-21 0.00329132 1.36498e-21 0.0120657)
(0.0254291 -0.000241556 4.10864e-21 0.00351107 -1.4675e-21 0.0115761)
(0.0247984 0.000224092 -8.19977e-21 0.00335419 4.68113e-21 0.011261)
(0.0243357 0.000341458 -4.08361e-21 0.00350356 2.3598e-21 0.0111357)
(0.0236955 0.000442062 -3.45462e-27 0.00338925 -2.96553e-24 0.0108339)
(0.0216744 -0.000259325 4.12838e-21 0.00354731 -2.15711e-21 0.0100887)
(0.0212073 0.000186187 -4.12817e-21 0.00344532 2.32745e-21 0.00986104)
(0.0208778 0.000318163 0 0.00356377 0 0.00977661)
(0.0204561 0.000440905 8.21145e-21 0.00349217 -2.47571e-21 0.00957929)
(0.0179201 -0.00028389 -4.15367e-21 0.00360522 1.47892e-21 0.00861013)
(0.0175502 0.000134185 -4.13635e-21 0.00353604 2.32751e-21 0.00843448)
(0.0173369 0.000288045 8.262e-21 0.00362765 -4.66275e-21 0.0083858)
(0.017149 0.000437486 1.41339e-24 0.00360667 -4.54412e-22 0.00830225)
(0.0142441 -0.000317091 7.89042e-24 0.00369201 9.11552e-23 0.00717444)
(0.0138996 7.1696e-05 4.15828e-21 0.00363785 -2.31153e-21 0.00701497)
(0.0137811 0.000249777 1.0563e-23 0.00370706 8.48259e-24 0.00699525)
(0.0138316 0.000433833 6.83013e-25 0.00373501 -1.85942e-22 0.00702663)
(0.010502 -0.000289544 -8.33924e-24 0.00373373 -1.61112e-22 0.0056943)
(0.0100839 3.36343e-05 -4.1679e-21 0.00355779 2.3035e-21 0.00545669)
(0.0100399 0.000169395 -8.30558e-21 0.00361199 4.61638e-21 0.00546075)
(0.0103522 0.000361403 4.13879e-21 0.00380331 -1.0536e-21 0.00566222)
(0.00711777 -0.000118563 -2.11058e-21 0.00346542 9.52167e-22 0.00423328)
(0.00681883 2.72388e-05 2.11647e-21 0.00317354 -2.28854e-21 0.00399695)
(0.00681449 3.73521e-05 4.17469e-21 0.00322504 -4.58926e-21 0.00401581)
(0.00709708 0.000148113 2.08021e-21 0.0035464 -1.24995e-21 0.00425739)
)
;

boundaryField
{
    plateFix
    {
        type            calculated;
        value           nonuniform List<symmTensor> 4((0.0569863 0.0136769 9.83548e-25 0.0222146 -4.64829e-21 0.0316804) (0.0531927 0.00611602 1.66127e-26 0.0305094 6.69671e-28 0.0334808) (0.0578563 -0.00484384 -1.97324e-25 0.0324616 2.26706e-25 0.0361272) (0.0781951 -0.0166805 3.01261e-24 0.0298411 1.29614e-20 0.0432145));
    }
    plate
    {
        type            calculated;
        value           nonuniform List<symmTensor> 
168
(
(0.0448083 5.10082e-05 1.64228e-24 0.00440556 -9.24831e-21 0.0196855)
(0.0610572 6.33594e-05 6.2158e-24 0.00452226 2.58204e-20 0.0262318)
(0.046035 2.76264e-05 -8.22086e-24 0.00437514 7.31395e-21 0.0201641)
(0.0629405 7.03598e-05 6.25007e-24 0.00449172 -2.6978e-20 0.0269729)
(0.0479516 -1.03123e-05 5.16917e-24 0.0043517 -5.61156e-21 0.0209213)
(0.0655714 9.5167e-05 -3.45515e-24 0.0044679 1.34587e-20 0.0280157)
(0.0488317 -5.61891e-05 -1.95063e-24 0.00434148 2.97361e-20 0.0212693)
(0.0666311 0.000131958 -1.51292e-23 0.00445784 -2.80413e-20 0.0284356)
(0.0496366 -0.000105687 -7.81416e-25 0.00434585 -8.90596e-21 0.021593)
(0.0674658 0.000175087 -1.55588e-23 0.00446246 2.64725e-20 0.0287713)
(0.0502204 -0.00015683 1.39443e-24 0.0043658 1.38432e-22 0.0218345)
(0.0679041 0.000221464 1.92884e-23 0.00448281 2.18053e-20 0.0289548)
(0.0507695 -0.000208032 -1.68611e-23 0.00440167 3.86396e-21 0.0220685)
(0.0682223 0.00026847 -7.69042e-25 0.00451904 -1.34781e-20 0.0290966)
(0.0512768 -0.000258406 1.24752e-23 0.00445377 -3.35486e-20 0.0222922)
(0.0684311 0.000314754 -3.95563e-24 0.00457143 -2.19335e-20 0.029201)
(0.0517683 -0.000307527 -2.21341e-24 0.00452329 -2.04331e-21 0.0225166)
(0.0685808 0.000359733 -9.62983e-25 0.00464116 2.9252e-20 0.0292888)
(0.052236 -0.000355201 4.15594e-25 0.00461268 5.77466e-21 0.0227395)
(0.0686721 0.00040322 6.10404e-24 0.00473073 -1.36141e-20 0.0293611)
(0.0526776 -0.000401114 -5.95124e-24 0.00472574 -3.69404e-21 0.0229613)
(0.0687092 0.00044497 -7.31579e-24 0.00484412 -4.4257e-21 0.0294213)
(0.0530891 -0.000444517 -1.30073e-23 0.00486771 -9.20962e-21 0.0231827)
(0.0686908 0.0004843 -1.70195e-23 0.00498684 -6.56562e-21 0.029471)
(0.0534719 -0.00048394 1.49824e-23 0.005045 1.83446e-20 0.0234068)
(0.0686203 0.000519783 1.94784e-23 0.00516575 1.85292e-20 0.0295144)
(0.0538313 -0.000516991 -1.69856e-24 0.00526498 -1.28132e-21 0.0236385)
(0.0685043 0.000549017 -7.41236e-23 0.00538875 -8.76388e-21 0.0295572)
(0.0541766 -0.000540202 1.39803e-22 0.00553539 5.08039e-21 0.0238848)
(0.0683536 0.000568467 3.04125e-23 0.0056643 1.01968e-21 0.0296072)
(0.0545199 -0.000548974 -8.00637e-23 0.0058636 -2.29522e-21 0.0241534)
(0.0681824 0.000573378 -3.56027e-23 0.00600063 9.09113e-22 0.0296732)
(0.0548762 -0.00053765 -1.49643e-22 0.00625531 3.87681e-21 0.0244526)
(0.0680081 0.000557846 7.30941e-23 0.00640431 -4.57391e-21 0.0297649)
(0.0552631 -0.000499888 5.21876e-23 0.00671253 4.88745e-21 0.0247902)
(0.0678507 0.000515176 1.70114e-22 0.00687828 1.47554e-20 0.0298916)
(0.0557011 -0.000429416 2.46266e-22 0.00723117 -1.26157e-20 0.0251729)
(0.0677336 0.000438667 1.3035e-23 0.0074192 -9.19031e-21 0.0300611)
(0.0562138 -0.000321582 -1.20814e-22 0.00779763 4.56409e-21 0.0256046)
(0.067682 0.000323225 1.48324e-23 0.00801379 -1.53141e-21 0.0302783)
(0.0568306 -0.000174779 2.64096e-22 0.00838737 3.47286e-21 0.0260872)
(0.0677257 0.000166852 1.93245e-22 0.00863729 3.46636e-22 0.0305452)
(0.0575803 6.51385e-06 1.28097e-22 0.00895948 -5.92677e-23 0.0266159)
(0.0678885 -2.60877e-05 -8.60808e-22 0.00924725 6.85721e-22 0.0308543)
(0.0585372 0.00021847 2.69959e-22 0.00948046 -4.48391e-22 0.0272071)
(0.0682164 -0.000252036 -3.19723e-24 0.00980935 1.30595e-22 0.0312103)
(0.0597092 0.000437338 2.70393e-22 0.00987115 3.91708e-22 0.0278321)
(0.0687214 -0.000486291 -9.84754e-25 0.0102393 -2.30653e-21 0.0315843)
(0.0610297 0.000642822 -3.24133e-22 0.010036 -1.08037e-21 0.0284263)
(0.0693561 -0.00070738 -3.77081e-22 0.0104328 -2.58782e-22 0.0319156)
(0.0624915 0.000816692 3.51757e-22 0.00997216 1.05817e-21 0.0289855)
(0.0700981 -0.00089604 -3.7397e-25 0.0103853 -7.42816e-22 0.0321933)
(0.0640777 0.000949716 -3.49514e-22 0.00969554 -9.07924e-22 0.0295093)
(0.0709197 -0.00104254 -3.36456e-24 0.0101116 -6.22906e-21 0.0324125)
(0.0657625 0.00103785 -3.81052e-22 0.00923518 -6.91834e-21 0.0299991)
(0.0717925 -0.00114249 -2.90629e-23 0.00964178 3.58408e-21 0.0325737)
(0.0675192 0.00108011 8.78489e-22 0.00863886 1.8029e-21 0.0304632)
(0.0726945 -0.00119477 4.97633e-22 0.00902606 -3.91148e-21 0.0326882)
(0.0693147 0.00108047 -1.75049e-21 0.00795228 1.19169e-21 0.0309068)
(0.0736032 -0.00120346 -1.13154e-21 0.00831296 8.27408e-22 0.0327665)
(0.0711187 0.00104422 8.67967e-22 0.00722364 -7.19009e-21 0.031337)
(0.0745032 -0.00117404 1.13955e-21 0.0075539 1.10301e-20 0.0328228)
(0.0728999 0.000978752 8.17403e-24 0.00649191 1.16584e-20 0.0317567)
(0.07538 -0.00111422 -4.92882e-24 0.00679054 -6.98029e-21 0.0328682)
(0.0746313 0.00089141 -1.65841e-25 0.00578924 -2.26116e-22 0.0321682)
(0.0762239 -0.00103162 1.27164e-21 0.00605733 4.69113e-24 0.0329125)
(0.076289 0.000789518 2.4241e-21 0.00513766 1.12761e-21 0.0325707)
(0.0770264 -0.000933865 7.96711e-23 0.00537781 1.32854e-20 0.0329617)
(0.0778538 0.000679485 -1.22086e-21 0.00455121 -9.7631e-21 0.032962)
(0.0777814 -0.000827581 -2.83045e-21 0.00476697 -3.44604e-21 0.0330194)
(0.0793107 0.00056675 3.55061e-24 0.00403654 4.31947e-21 0.0333389)
(0.0784837 -0.00071838 1.54796e-21 0.00423188 -1.01764e-20 0.0330862)
(0.0806493 0.000455577 4.77717e-24 0.00359489 5.62888e-21 0.0336977)
(0.0791287 -0.000610639 5.62418e-24 0.0037738 6.67241e-21 0.033161)
(0.0818624 0.000349144 6.12647e-23 0.00322353 -5.78541e-21 0.0340344)
(0.0797119 -0.000507593 1.70922e-21 0.00338975 -1.63544e-21 0.0332407)
(0.0829461 0.000249625 1.5876e-21 0.00291728 -2.48798e-22 0.0343453)
(0.0802288 -0.000411436 7.64024e-23 0.0030741 -2.1423e-22 0.0333212)
(0.0838987 0.000158367 1.66396e-21 0.00266956 -3.596e-21 0.0346273)
(0.0806745 -0.0003235 -3.6418e-21 0.00281976 4.1989e-21 0.0333977)
(0.0847205 7.60517e-05 7.28118e-24 0.00247327 7.73182e-21 0.0348775)
(0.0810435 -0.000244434 -1.99533e-24 0.00261909 -2.14166e-21 0.0334651)
(0.0854126 2.86039e-06 1.82505e-21 0.0023214 -3.94379e-21 0.0350936)
(0.0813305 -0.000174373 -2.01685e-21 0.00246456 3.64717e-21 0.033518)
(0.0859767 -6.13805e-05 1.91503e-21 0.00220738 4.44107e-21 0.0352737)
(0.0815294 -0.000113095 4.18219e-21 0.0023491 2.73639e-21 0.0335514)
(0.0864149 -0.000117084 1.99649e-21 0.00212532 -9.39435e-21 0.0354161)
(0.0816345 -6.01333e-05 -2.10173e-21 0.00226639 -3.04943e-21 0.0335604)
(0.0867288 -0.000164809 7.05552e-23 0.00207002 7.49833e-22 0.0355195)
(0.0816402 -1.48808e-05 2.25451e-21 0.00221088 -1.27444e-21 0.0335404)
(0.0869194 -0.0002052 -2.17149e-21 0.00203706 1.81156e-21 0.0355826)
(0.081541 2.33484e-05 7.55054e-24 0.00217783 -4.23103e-21 0.0334875)
(0.0869872 -0.00023893 4.42663e-21 0.00202268 -3.84484e-21 0.0356039)