/*--------------------------------*- C++ -*----------------------------------*\
| =========                 |                                                 |
| \\      /  F ield         | OpenFOAM Extend Project: Open source CFD        |
|  \\    /   O peration     | Version:  1.6-ext                               |
|   \\  /    A nd           | Web:      www.extend-project.de                 |
|    \\/     M anipulation  |                                                 |
\*---------------------------------------------------------------------------*/
FoamFile
{
    version     2.0;
    format      ascii;
    class       volVectorField;
    location    "0.25";
    object      DU;
}
// * * * * * * * * * * * * * * * * * * * * * * * * * * * * * * * * * * * * * //

dimensions      [0 1 0 0 0 0 0];

internalField   nonuniform List<vector> 
328
(
(1.26514e-09 2.44877e-09 0)
(9.85672e-10 6.20572e-10 0)
(1.08657e-09 -5.22594e-10 0)
(1.7489e-09 -3.04491e-09 0)
(3.84849e-09 6.24149e-09 0)
(3.22636e-09 1.67519e-09 0)
(3.57781e-09 -1.66393e-09 0)
(5.33998e-09 -7.84717e-09 0)
(6.82771e-09 8.95301e-09 0)
(6.15825e-09 2.51679e-09 0)
(6.86754e-09 -2.89856e-09 0)
(9.48256e-09 -1.15234e-08 0)
(1.00762e-08 1.0705e-08 0)
(9.57498e-09 3.05639e-09 0)
(1.06937e-08 -4.14893e-09 0)
(1.39929e-08 -1.43059e-08 0)
(1.36396e-08 1.16709e-08 0)
(1.35239e-08 3.25533e-09 0)
(1.5105e-08 -5.39304e-09 0)
(1.89222e-08 -1.64771e-08 0)
(1.75084e-08 1.19781e-08 0)
(1.79385e-08 3.08677e-09 0)
(2.0018e-08 -6.63961e-09 0)
(2.42475e-08 -1.8259e-08 0)
(2.1708e-08 1.17254e-08 0)
(2.28122e-08 2.54294e-09 0)
(2.54233e-08 -7.92754e-09 0)
(2.99928e-08 -1.98392e-08 0)
(2.62575e-08 1.09768e-08 0)
(2.81205e-08 1.619e-09 0)
(3.12915e-08 -9.31197e-09 0)
(3.61741e-08 -2.13667e-08 0)
(3.11841e-08 9.77146e-09 0)
(3.3859e-08 3.10465e-10 0)
(3.7617e-08 -1.08599e-08 0)
(4.2818e-08 -2.2967e-08 0)
(3.65142e-08 8.12446e-09 0)
(4.00265e-08 -1.39395e-09 0)
(4.4398e-08 -1.26434e-08 0)
(4.99507e-08 -2.4747e-08 0)
(4.22762e-08 6.03095e-09 0)
(4.66334e-08 -3.51488e-09 0)
(5.16446e-08 -1.47374e-08 0)
(5.76003e-08 -2.68015e-08 0)
(4.84988e-08 3.46739e-09 0)
(5.36972e-08 -6.08496e-09 0)
(5.93745e-08 -1.72176e-08 0)
(6.57951e-08 -2.92172e-08 0)
(5.52117e-08 3.93371e-10 0)
(6.12436e-08 -9.14958e-09 0)
(6.76131e-08 -2.01603e-08 0)
(7.45636e-08 -3.20764e-08 0)
(6.24454e-08 -3.247e-09 0)
(6.93039e-08 -1.27671e-08 0)
(7.63919e-08 -2.36437e-08 0)
(8.39349e-08 -3.54597e-08 0)
(7.02325e-08 -7.52364e-09 0)
(7.7915e-08 -1.70085e-08 0)
(8.5747e-08 -2.77492e-08 0)
(9.3939e-08 -3.94497e-08 0)
(7.86076e-08 -1.2519e-08 0)
(8.71172e-08 -2.19565e-08 0)
(9.57181e-08 -3.25633e-08 0)
(1.04607e-07 -4.41333e-08 0)
(8.76087e-08 -1.83264e-08 0)
(9.69545e-08 -2.77052e-08 0)
(1.06348e-07 -3.81802e-08 0)
(1.15974e-07 -4.96051e-08 0)
(9.72781e-08 -2.50489e-08 0)
(1.07474e-07 -3.43593e-08 0)
(1.17682e-07 -4.47034e-08 0)
(1.28076e-07 -5.59705e-08 0)
(1.07665e-07 -3.27978e-08 0)
(1.18729e-07 -4.20341e-08 0)
(1.29772e-07 -5.22485e-08 0)
(1.40957e-07 -6.33491e-08 0)
(1.18827e-07 -4.16922e-08 0)
(1.30777e-07 -5.08557e-08 0)
(1.42672e-07 -6.09451e-08 0)
(1.54667e-07 -7.18776e-08 0)
(1.30837e-07 -5.1858e-08 0)
(1.4369e-07 -6.09616e-08 0)
(1.56453e-07 -7.09388e-08 0)
(1.69272e-07 -8.17133e-08 0)
(1.43788e-07 -6.34287e-08 0)
(1.57556e-07 -7.25017e-08 0)
(1.71198e-07 -8.23936e-08 0)
(1.84854e-07 -9.30361e-08 0)
(1.58335e-07 -7.7046e-08 0)
(1.73058e-07 -8.61401e-08 0)
(1.87619e-07 -9.59917e-08 0)
(2.02155e-07 -1.06546e-07 0)
(1.74136e-07 -9.24572e-08 0)
(1.898e-07 -1.01653e-07 0)
(2.05275e-07 -1.11541e-07 0)
(2.20697e-07 -1.22082e-07 0)
(1.90253e-07 -1.08627e-07 0)
(2.0678e-07 -1.18018e-07 0)
(2.23097e-07 -1.28035e-07 0)
(2.39346e-07 -1.38656e-07 0)
(2.06779e-07 -1.25493e-07 0)
(2.24086e-07 -1.35174e-07 0)
(2.41172e-07 -1.45413e-07 0)
(2.5819e-07 -1.56206e-07 0)
(2.23799e-07 -1.42998e-07 0)
(2.41801e-07 -1.53056e-07 0)
(2.59582e-07 -1.63604e-07 0)
(2.77303e-07 -1.74652e-07 0)
(2.41387e-07 -1.61088e-07 0)
(2.59998e-07 -1.71595e-07 0)
(2.78395e-07 -1.82525e-07 0)
(2.96748e-07 -1.93898e-07 0)
(2.59601e-07 -1.79704e-07 0)
(2.78734e-07 -1.90717e-07 0)
(2.97664e-07 -2.02083e-07 0)
(3.16571e-07 -2.13833e-07 0)
(2.78482e-07 -1.98785e-07 0)
(2.98045e-07 -2.10338e-07 0)
(3.17424e-07 -2.22177e-07 0)
(3.36803e-07 -2.34334e-07 0)
(2.98049e-07 -2.18262e-07 0)
(3.17953e-07 -2.30372e-07 0)
(3.37693e-07 -2.42698e-07 0)
(3.57457e-07 -2.55278e-07 0)
(3.18305e-07 -2.38062e-07 0)
(3.38459e-07 -2.50726e-07 0)
(3.58472e-07 -2.6354e-07 0)
(3.78533e-07 -2.7654e-07 0)
(3.39234e-07 -2.58107e-07 0)
(3.5955e-07 -2.71309e-07 0)
(3.79751e-07 -2.84595e-07 0)
(4.00018e-07 -2.98001e-07 0)
(3.6081e-07 -2.78316e-07 0)
(3.81203e-07 -2.92027e-07 0)
(4.01506e-07 -3.0576e-07 0)
(4.21892e-07 -3.19548e-07 0)
(3.82995e-07 -2.98608e-07 0)
(4.03385e-07 -3.12792e-07 0)
(4.23709e-07 -3.2694e-07 0)
(4.44131e-07 -3.4108e-07 0)
(4.05746e-07 -3.18905e-07 0)
(4.26057e-07 -3.33521e-07 0)
(4.46325e-07 -3.48046e-07 0)
(4.66703e-07 -3.62505e-07 0)
(4.29012e-07 -3.39131e-07 0)
(4.49175e-07 -3.54136e-07 0)
(4.69316e-07 -3.68999e-07 0)
(4.89576e-07 -3.83741e-07 0)
(4.52743e-07 -3.59217e-07 0)
(4.72694e-07 -3.74566e-07 0)
(4.92644e-07 -3.89728e-07 0)
(5.12718e-07 -4.04718e-07 0)
(4.76887e-07 -3.791e-07 0)
(4.9657e-07 -3.94751e-07 0)
(5.16268e-07 -4.10171e-07 0)
(5.36096e-07 -4.25374e-07 0)
(5.01392e-07 -3.98725e-07 0)
(5.20757e-07 -4.14633e-07 0)
(5.4015e-07 -4.30275e-07 0)
(5.59674e-07 -4.45658e-07 0)
(5.26207e-07 -4.18041e-07 0)
(5.45209e-07 -4.34167e-07 0)
(5.6425e-07 -4.49994e-07 0)
(5.83421e-07 -4.65522e-07 0)
(5.51284e-07 -4.37004e-07 0)
(5.69884e-07 -4.53309e-07 0)
(5.88529e-07 -4.69286e-07 0)
(6.07301e-07 -4.8493e-07 0)
(5.76576e-07 -4.55576e-07 0)
(5.94739e-07 -4.72024e-07 0)
(6.1295e-07 -4.88117e-07 0)
(6.31282e-07 -5.03846e-07 0)
(6.02038e-07 -4.73722e-07 0)
(6.19733e-07 -4.90279e-07 0)
(6.37473e-07 -5.06457e-07 0)
(6.55328e-07 -5.22241e-07 0)
(6.27627e-07 -4.91411e-07 0)
(6.44823e-07 -5.08044e-07 0)
(6.62062e-07 -5.24276e-07 0)
(6.79405e-07 -5.40087e-07 0)
(6.533e-07 -5.08614e-07 0)
(6.69972e-07 -5.25292e-07 0)
(6.86678e-07 -5.41548e-07 0)
(7.03477e-07 -5.57357e-07 0)
(6.79017e-07 -5.25304e-07 0)
(6.95139e-07 -5.41997e-07 0)
(7.11284e-07 -5.58248e-07 0)
(7.27508e-07 -5.74028e-07 0)
(7.04737e-07 -5.41455e-07 0)
(7.20284e-07 -5.58133e-07 0)
(7.35841e-07 -5.7435e-07 0)
(7.51461e-07 -5.90073e-07 0)
(7.30421e-07 -5.5704e-07 0)
(7.45369e-07 -5.73674e-07 0)
(7.60311e-07 -5.89829e-07 0)
(7.75298e-07 -6.05467e-07 0)
(7.56028e-07 -5.72033e-07 0)
(7.70354e-07 -5.88595e-07 0)
(7.84656e-07 -6.04659e-07 0)
(7.98983e-07 -6.20185e-07 0)
(7.81519e-07 -5.86408e-07 0)
(7.952e-07 -6.02869e-07 0)
(8.08837e-07 -6.18814e-07 0)
(8.22476e-07 -6.34202e-07 0)
(8.06852e-07 -6.0014e-07 0)
(8.19866e-07 -6.1647e-07 0)
(8.32814e-07 -6.32269e-07 0)
(8.45741e-07 -6.47491e-07 0)
(8.31986e-07 -6.13202e-07 0)
(8.44311e-07 -6.29374e-07 0)
(8.56548e-07 -6.44999e-07 0)
(8.68739e-07 -6.60029e-07 0)
(8.56878e-07 -6.25571e-07 0)
(8.68495e-07 -6.41555e-07 0)
(8.8e-07 -6.56978e-07 0)
(8.91432e-07 -6.71789e-07 0)
(8.81486e-07 -6.37225e-07 0)
(8.92376e-07 -6.52991e-07 0)
(9.03131e-07 -6.68184e-07 0)
(9.13784e-07 -6.82751e-07 0)
(9.05764e-07 -6.48142e-07 0)
(9.15912e-07 -6.63661e-07 0)
(9.25901e-07 -6.78596e-07 0)
(9.35758e-07 -6.92894e-07 0)
(9.29668e-07 -6.58306e-07 0)
(9.3906e-07 -6.73548e-07 0)
(9.48271e-07 -6.88197e-07 0)
(9.57317e-07 -7.022e-07 0)
(9.53152e-07 -6.67703e-07 0)
(9.6178e-07 -6.82637e-07 0)
(9.70201e-07 -6.96973e-07 0)
(9.78427e-07 -7.10657e-07 0)
(9.76171e-07 -6.76321e-07 0)
(9.84027e-07 -6.90918e-07 0)
(9.91653e-07 -7.04914e-07 0)
(9.99053e-07 -7.18253e-07 0)
(9.98676e-07 -6.84155e-07 0)
(1.00576e-06 -6.98384e-07 0)
(1.01259e-06 -7.12012e-07 0)
(1.01916e-06 -7.24985e-07 0)
(1.02062e-06 -6.91203e-07 0)
(1.02694e-06 -7.05034e-07 0)
(1.03297e-06 -7.18268e-07 0)
(1.03871e-06 -7.30851e-07 0)
(1.04197e-06 -6.97467e-07 0)
(1.04751e-06 -7.10872e-07 0)
(1.05276e-06 -7.23685e-07 0)
(1.05768e-06 -7.35855e-07 0)
(1.06266e-06 -7.02956e-07 0)
(1.06745e-06 -7.15904e-07 0)
(1.07192e-06 -7.28271e-07 0)
(1.07604e-06 -7.40007e-07 0)
(1.08265e-06 -7.07682e-07 0)
(1.08671e-06 -7.20145e-07 0)
(1.09042e-06 -7.32041e-07 0)
(1.09375e-06 -7.43321e-07 0)
(1.1019e-06 -7.11662e-07 0)
(1.10524e-06 -7.23612e-07 0)
(1.10822e-06 -7.35012e-07 0)
(1.11077e-06 -7.45816e-07 0)
(1.12037e-06 -7.1492e-07 0)
(1.12302e-06 -7.26328e-07 0)
(1.12528e-06 -7.3721e-07 0)
(1.1271e-06 -7.47517e-07 0)
(1.13802e-06 -7.17481e-07 0)
(1.14e-06 -7.28323e-07 0)
(1.14158e-06 -7.38663e-07 0)
(1.14269e-06 -7.48455e-07 0)
(1.1548e-06 -7.19379e-07 0)
(1.15615e-06 -7.29629e-07 0)
(1.15708e-06 -7.39405e-07 0)
(1.15752e-06 -7.48664e-07 0)
(1.17067e-06 -7.20653e-07 0)
(1.17143e-06 -7.30286e-07 0)
(1.17176e-06 -7.39477e-07 0)
(1.17156e-06 -7.48185e-07 0)
(1.18559e-06 -7.21343e-07 0)
(1.18581e-06 -7.30337e-07 0)
(1.18558e-06 -7.38923e-07 0)
(1.18479e-06 -7.47064e-07 0)
(1.19954e-06 -7.21497e-07 0)
(1.19926e-06 -7.2983e-07 0)
(1.19851e-06 -7.37794e-07 0)
(1.19719e-06 -7.45351e-07 0)
(1.21248e-06 -7.21168e-07 0)
(1.21175e-06 -7.2882e-07 0)
(1.21054e-06 -7.36143e-07 0)
(1.20873e-06 -7.431e-07 0)
(1.22438e-06 -7.2041e-07 0)
(1.22326e-06 -7.27364e-07 0)
(1.22163e-06 -7.34028e-07 0)
(1.2194e-06 -7.40372e-07 0)
(1.23521e-06 -7.19283e-07 0)
(1.23375e-06 -7.25522e-07 0)
(1.23177e-06 -7.31513e-07 0)
(1.22916e-06 -7.37227e-07 0)
(1.24495e-06 -7.17848e-07 0)
(1.24321e-06 -7.23357e-07 0)
(1.24093e-06 -7.2866e-07 0)
(1.23801e-06 -7.33731e-07 0)
(1.25359e-06 -7.16167e-07 0)
(1.25161e-06 -7.20935e-07 0)
(1.24908e-06 -7.25536e-07 0)
(1.24591e-06 -7.29949e-07 0)
(1.26109e-06 -7.14304e-07 0)
(1.25893e-06 -7.18321e-07 0)
(1.25622e-06 -7.22204e-07 0)
(1.25285e-06 -7.25945e-07 0)
(1.26747e-06 -7.12319e-07 0)
(1.26517e-06 -7.15577e-07 0)
(1.26231e-06 -7.18728e-07 0)
(1.2588e-06 -7.21782e-07 0)
(1.2727e-06 -7.10271e-07 0)
(1.27031e-06 -7.12763e-07 0)
(1.26734e-06 -7.15163e-07 0)
(1.26375e-06 -7.17513e-07 0)
(1.2768e-06 -7.08196e-07 0)
(1.27431e-06 -7.09924e-07 0)
(1.27128e-06 -7.11567e-07 0)
(1.26767e-06 -7.13203e-07 0)
(1.27979e-06 -7.06107e-07 0)
(1.27721e-06 -7.07085e-07 0)
(1.27415e-06 -7.07999e-07 0)
(1.27057e-06 -7.08925e-07 0)
(1.28162e-06 -7.03758e-07 0)
(1.27895e-06 -7.04198e-07 0)
(1.27588e-06 -7.04575e-07 0)
(1.27237e-06 -7.04981e-07 0)
)
;

boundaryField
{
    plateFix
    {
        type            fixedDisplacement;
        value           uniform (0 0 0);
    }
    plate
    {
        type            solidTraction;
        nonLinear       updatedLagrangian;
        traction        nonuniform List<vector> 
168
(
(9.31261e-05 0.000339393 1.31661e-24)
(9.8832e-05 -0.00035235 -5.53155e-24)
(-0.000174736 2.1601e-05 0)
(-0.000146789 -5.01052e-05 0)
(-0.00136301 -0.000486201 0)
(-0.00130108 0.000453116 0)
(-0.00329585 -0.000919264 -2.36864e-20)
(-0.00319659 0.000887403 -2.48441e-20)
(-0.0058353 -0.0012084 -1.83204e-22)
(-0.0057004 0.00118039 2.1926e-20)
(-0.00885852 -0.00136177 2.23084e-20)
(-0.00869214 0.00133844 2.21957e-20)
(-0.0122501 -0.00142246 -2.22241e-20)
(-0.0120579 0.00140376 -2.06275e-20)
(-0.0159287 -0.00143986 3.44067e-20)
(-0.0157176 0.00142553 0)
(-0.0198561 -0.00145492 -1.47961e-20)
(-0.0196339 0.0014449 1.77821e-20)
(-0.0240339 -0.00149559 -1.90829e-21)
(-0.0238094 0.00149022 -1.82402e-20)
(-0.0284936 -0.00157716 1.40891e-20)
(-0.0282778 0.00157727 1.82366e-21)
(-0.0332834 -0.00170483 -3.16103e-21)
(-0.0330895 0.0017117 -1.33585e-20)
(-0.0384516 -0.00187678 -1.14091e-20)
(-0.0382958 0.00189216 2.09832e-20)
(-0.0440291 -0.00208666 -2.48919e-21)
(-0.0439313 0.0021127 -8.04403e-21)
(-0.0500119 -0.0023244 0)
(-0.0499957 0.00236365 9.11628e-24)
(-0.0563419 -0.00257493 7.45868e-24)
(-0.0564342 0.00263025 -7.89649e-24)
(-0.0628849 -0.00281465 -6.31712e-21)
(-0.0631157 0.00288891 1.34506e-23)
(-0.0694077 -0.00300621 -4.80195e-21)
(-0.069808 0.00310179 8.21498e-21)
(-0.075552 -0.00309309 9.02662e-21)
(-0.0761506 0.00321098 -9.66636e-21)
(-0.0808249 -0.00299929 1.67778e-21)
(-0.0816446 0.00313793 -1.81872e-21)
(-0.0846043 -0.00261432 -4.20903e-21)
(-0.0856547 0.00276802 0)
(-0.0860492 -0.00190935 3.62934e-21)
(-0.0873213 0.0020694 0)
(-0.0856644 -0.000492245 -5.98517e-24)
(-0.0871496 0.000637264 2.36535e-23)
(-0.0830416 0.000815786 0)
(-0.0847017 -0.000694821 5.8123e-24)
(-0.077109 0.00173429 1.93169e-21)
(-0.0788735 -0.00163815 -5.07248e-24)
(-0.0690565 0.00254257 -1.9178e-21)
(-0.0708628 -0.00247718 -9.21023e-24)
(-0.058958 0.00308884 -1.86134e-24)
(-0.0607389 -0.0030525 0)
(-0.0476965 0.00344057 5.99252e-21)
(-0.0494031 -0.00343221 3.84739e-23)
(-0.0356658 0.0035782 -5.94595e-21)
(-0.0372561 -0.00359404 -6.86872e-21)
(-0.0234715 0.00354598 6.37588e-23)
(-0.0249202 -0.00358248 -1.09214e-21)
(-0.0114971 0.00337328 9.01939e-21)
(-0.0127894 -0.0034266 8.14687e-21)
(-0.00010749 0.0031024 -1.38941e-20)
(-0.00124028 -0.00316932 0)
(0.0104618 0.00276927 9.99855e-21)
(0.00948386 -0.00284711 -1.5349e-22)
(0.0200455 0.00240669 -5.15346e-21)
(0.0192116 -0.00249345 5.25212e-21)
(0.0285617 0.00204018 5.52184e-21)
(0.0278579 -0.00213443 1.59341e-22)
(0.0359871 0.00168869 -5.6153e-21)
(0.0353976 -0.00178943 -5.50414e-21)
(0.0423472 0.00136465 0)
(0.0418561 -0.00147121 -5.76583e-21)
(0.0477005 0.00107512 -4.48452e-23)
(0.0472928 -0.00118702 5.77139e-21)
(0.052128 0.000822946 0)
(0.0517902 -0.000939791 0)
(0.0557225 0.00060793 0)
(0.0554429 -0.000729367 0)
(0.0585818 0.000427901 -4.41791e-23)
(0.0583507 -0.00055357 -8.8502e-23)
(0.0608031 0.000279553 4.37773e-23)
(0.0606125 -0.000409074 -5.5759e-21)
(0.0624788 0.000159077 -5.58903e-21)
(0.0623225 -0.000292047 1.10866e-20)
(0.0636951 6.25987e-05 5.55122e-21)
(0.0635681 -0.000198602 -5.42516e-21)
(0.0645298 -1.35506e-05 8.41082e-23)
(0.0644284 -0.000125063 -8.41678e-23)
(0.0650524 -7.26891e-05 0)
(0.0649737 -6.81194e-05 2.4849e-22)
(0.065324 -0.000117722 5.07492e-21)
(0.0652658 -2.48836e-05 -1.62915e-22)
(0.0653976 -0.000151136 -5.24183e-21)
(0.0653583 7.10553e-06 -7.99829e-23)
(0.0653187 -0.00017503 -4.97262e-21)
(0.0652971 2.99132e-05 4.98024e-21)
(0.065126 -0.000191156 9.62605e-23)
(0.0651211 4.52539e-05 -9.87526e-21)
(0.0648522 -0.000200965 1.32513e-22)
(0.064863 5.4541e-05 4.89493e-21)
(0.0645246 -0.000205661 4.72361e-21)
(0.0645504 5.89352e-05 4.56499e-21)
(0.0641657 -0.000206232 3.64786e-23)
(0.0642058 5.93879e-05 -4.71873e-21)
(0.0637941 -0.000203498 4.53698e-21)
(0.0638477 5.66773e-05 0)
(0.0634249 -0.00019813 -8.54917e-23)
(0.0634912 5.14399e-05 -4.395e-21)
(0.06307 -0.000190684 -8.90872e-21)
(0.0631485 4.4195e-05 2.2126e-22)
(0.0627394 -0.000181611 8.68572e-21)
(0.0628292 3.53648e-05 4.45999e-21)
(0.0624405 -0.000171283 -4.24061e-21)
(0.062541 2.529e-05 6.69311e-23)
(0.0621795 -0.000159997 2.1444e-21)
(0.0622898 1.4242e-05 -1.31461e-22)
(0.0619609 -0.000147986 -1.01491e-22)
(0.0620804 2.43105e-06 -2.04829e-21)
(0.0617885 -0.000135427 -2.10974e-21)
(0.0619165 -9.98706e-06 3.62191e-23)
(0.0616653 -0.000122444 1.97704e-21)
(0.0618011 -2.29087e-05 1.9539e-21)
(0.0615936 -0.000109109 -3.47511e-23)
(0.0617367 -3.6279e-05 6.14099e-23)
(0.0615758 -9.54405e-05 -1.82596e-21)
(0.0617257 -5.00966e-05 0)
(0.0616141 -8.14078e-05 -5.92889e-23)
(0.0617704 -6.44096e-05 1.88348e-21)
(0.0617111 -6.69141e-05 -5.83033e-23)
(0.0618735 -7.93313e-05 -3.62012e-21)
(0.0618698 -5.18074e-05 1.81692e-21)
(0.0620382 -9.50315e-05 1.85339e-21)
(0.0620942 -3.5842e-05 -1.87517e-21)
(0.0622684 -0.000111776 1.12739e-22)
(0.0623891 -1.87003e-05 1.75241e-21)
(0.0625693 -0.000129904 0)
(0.0627613 9.95031e-08 -8.92877e-23)
(0.0629478 -0.000149925 0)
(0.0632193 2.1162e-05 -3.35318e-21)
(0.0634125 -0.000172476 0)
(0.0637748 4.54379e-05 1.68706e-21)
(0.0639754 -0.000198551 -7.20897e-22)
(0.0644434 7.42033e-05 0)
(0.0646525 -0.000229483 7.75104e-22)
(0.0652458 0.000109678 -7.37598e-22)
(0.0654645 -0.000267572 -7.86985e-22)
(0.0662141 0.000155331 7.39695e-22)
(0.0664439 -0.000316404 8.84839e-22)
(0.0673861 0.000218771 -7.92247e-22)
(0.0676291 -0.000383774 0)
(0.0688449 0.000312985 7.45751e-22)
(0.0691038 -0.000482951 -9.13576e-23)
(0.07066 0.000481166 6.94512e-22)
(0.070938 -0.000657635 6.04697e-22)
(0.0731561 0.000781208 -1.06962e-21)
(0.0734583 -0.000966305 -3.20707e-22)
(0.0763532 0.00157021 6.46347e-22)
(0.0766818 -0.00176768 -6.43986e-22)
(0.082378 0.00307081 -3.33725e-22)
(0.082742 -0.00328013 3.13191e-22)
(0.0891023 0.00954497 -3.36496e-23)
(0.0170504 0.00573302 0)
(-0.0019575 -0.00647435 0)
(-0.00191951 0.0066946 6.04539e-23)
(0.0172759 -0.00574841 9.02928e-24)
(0.0895139 -0.00976857 0)
)
;
        pressure        nonuniform List<scalar> 
168
(
-0.271403
-0.285054
-0.273215
-0.286843
-0.275392
-0.289017
-0.277751
-0.291397
-0.280122
-0.293812
-0.28233
-0.296089
-0.284279
-0.29813
-0.28592
-0.299892
-0.287223
-0.301344
-0.288144
-0.302444
-0.288591
-0.303105
-0.288401
-0.303165
-0.28731
-0.302363
-0.284936
-0.300315
-0.280752
-0.296492
-0.274074
-0.290202
-0.26405
-0.280576
-0.249664
-0.266577
-0.229772
-0.247024
-0.203202
-0.220704
-0.168896
-0.186498
-0.125856
-0.143352
-0.0740796
-0.0912034
-0.00887726
-0.0252103
0.0581904
0.0429392
0.127739
0.113864
0.195056
0.182714
0.259114
0.248409
0.317494
0.308423
0.369371
0.361878
0.413923
0.407891
0.451075
0.446362
0.481
0.477444
0.504202
0.501644
0.521328
0.519616
0.533126
0.532122
0.540359
0.539941
0.543764
0.543831
0.544025
0.544491
0.541752
0.542545
0.537475
0.538539
0.531647
0.532936
0.524649
0.526124
0.516793
0.518425
0.508334
0.5101
0.49948
0.501358
0.490394
0.492367
0.481207
0.483261
0.47202
0.474142
0.462912
0.46509
0.453942
0.456164
0.445152
0.44741
0.436574
0.438856
0.428227
0.430525
0.42012
0.422425
0.412258
0.414561
0.404638
0.40693
0.39725
0.399524
0.390081
0.392329
0.383116
0.38533
0.376334
0.378507
0.369713
0.371838
0.363229
0.365298
0.356854
0.358861
0.35056
0.352499
0.344318
0.346183
0.338097
0.33988
0.331862
0.333558
0.325578
0.327182
0.319209
0.320713
0.312711
0.31411
0.306038
0.307325
0.299138
0.300307
0.291945
0.292989
0.284389
0.285299
0.276355
0.277124
0.267749
0.268367
0.258274
0.25873
0.2479
0.248183
0.235193
0.235281
0.221772
0.221668
0.195226
0.142358
0.186262
0.186112
0.141513
0.194881
)
;
        value           nonuniform List<vector> 
168
(
(1.19368e-08 6.26957e-09 4.64954e-27)
(1.51859e-08 -8.47354e-09 1.29597e-26)
(1.14596e-08 1.01891e-08 -3.64898e-27)
(1.53029e-08 -1.34681e-08 -1.35976e-26)
(1.172e-08 1.30955e-08 2.78133e-27)
(1.65828e-08 -1.74104e-08 6.78178e-27)
(1.2886e-08 1.49369e-08 -1.48676e-26)
(1.90997e-08 -2.03001e-08 -1.39712e-26)
(1.49167e-08 1.59825e-08 4.49052e-27)
(2.27573e-08 -2.25538e-08 1.31764e-26)
(1.76517e-08 1.6345e-08 -1.51724e-28)
(2.73262e-08 -2.43765e-08 1.08974e-26)
(2.10035e-08 1.61419e-08 -1.90072e-27)
(3.26811e-08 -2.59831e-08 -6.72669e-27)
(2.49023e-08 1.54363e-08 1.67346e-26)
(3.87251e-08 -2.75235e-08 -1.10004e-26)
(2.93117e-08 1.42697e-08 1.05907e-27)
(4.54074e-08 -2.91283e-08 1.46152e-26)
(3.42113e-08 1.26561e-08 -2.90693e-27)
(5.26992e-08 -3.0904e-08 -6.76758e-27)
(3.95954e-08 1.05899e-08 1.83308e-27)
(6.05904e-08 -3.29453e-08 -2.21529e-27)
(4.54676e-08 8.04625e-09 4.62094e-27)
(6.90819e-08 -3.53378e-08 -3.25716e-27)
(5.18398e-08 4.98403e-09 -9.16641e-27)
(7.81832e-08 -3.81632e-08 9.20997e-27)
(5.87303e-08 1.34672e-09 6.63202e-28)
(8.79097e-08 -4.15016e-08 -4.36829e-27)
(6.6163e-08 -2.93582e-09 -2.57808e-27)
(9.82822e-08 -4.54353e-08 5.15325e-28)
(7.41674e-08 -7.94588e-09 1.15392e-27)
(1.09326e-07 -5.00514e-08 4.51758e-28)
(8.27783e-08 -1.37762e-08 -1.89655e-27)
(1.2107e-07 -5.54454e-08 -2.2791e-27)
(9.20363e-08 -2.05284e-08 -2.44282e-27)
(1.33549e-07 -6.17242e-08 7.41044e-27)
(1.0199e-07 -2.83111e-08 6.25743e-27)
(1.46804e-07 -6.90101e-08 -4.58451e-27)
(1.12699e-07 -3.72389e-08 -2.26518e-27)
(1.60887e-07 -7.74446e-08 -7.60703e-28)
(1.24236e-07 -4.74312e-08 -1.77422e-27)
(1.75864e-07 -8.71915e-08 2.24627e-28)
(1.36702e-07 -5.90124e-08 -1.48875e-29)
(1.91821e-07 -9.84394e-08 1.29721e-28)
(1.50738e-07 -7.26118e-08 1.61359e-28)
(2.0952e-07 -1.11898e-07 5.74471e-29)
(1.66031e-07 -8.79639e-08 -2.67607e-28)
(2.28471e-07 -1.27421e-07 -1.151e-27)
(1.81682e-07 -1.04026e-07 6.28238e-28)
(2.47513e-07 -1.44029e-07 -2.40832e-28)
(1.97787e-07 -1.20736e-07 -6.25526e-28)
(2.6673e-07 -1.61661e-07 -3.69782e-28)
(2.14434e-07 -1.38041e-07 5.58774e-28)
(2.86194e-07 -1.80231e-07 -3.11269e-27)
(2.317e-07 -1.55892e-07 3.5777e-27)
(3.05961e-07 -1.99636e-07 1.78871e-27)
(2.49645e-07 -1.74243e-07 -1.19955e-27)
(3.26073e-07 -2.19753e-07 -1.77494e-27)
(2.6831e-07 -1.9304e-07 3.36218e-29)
(3.46553e-07 -2.40453e-07 8.22618e-30)
(2.87715e-07 -2.12228e-07 3.25461e-27)
(3.67412e-07 -2.61601e-07 5.91039e-27)
(3.07861e-07 -2.3174e-07 -5.79792e-27)
(3.88647e-07 -2.83066e-07 -3.50457e-27)
(3.28731e-07 -2.51506e-07 8.22807e-29)
(4.10245e-07 -3.04721e-07 4.77072e-28)
(3.50295e-07 -2.71451e-07 -1.47851e-27)
(4.32187e-07 -3.26451e-07 6.65628e-27)
(3.72513e-07 -2.91499e-07 5.33651e-27)
(4.54449e-07 -3.48151e-07 -2.80302e-27)
(3.95335e-07 -3.11572e-07 -2.14444e-27)
(4.77003e-07 -3.69726e-07 -4.47516e-27)
(4.18709e-07 -3.31597e-07 -2.81396e-27)
(4.99819e-07 -3.91096e-07 3.35117e-27)
(4.42578e-07 -3.51506e-07 2.86728e-27)
(5.22869e-07 -4.12189e-07 -1.60765e-28)
(4.66886e-07 -3.71235e-07 -5.03553e-28)
(5.46122e-07 -4.32944e-07 -7.615e-29)
(4.91577e-07 -3.90728e-07 1.13499e-27)
(5.69548e-07 -4.5331e-07 6.60332e-28)
(5.16598e-07 -4.09932e-07 -3.86783e-27)
(5.93116e-07 -4.73242e-07 -1.07078e-27)
(5.41897e-07 -4.28803e-07 1.24591e-27)
(6.16795e-07 -4.92701e-07 1.02052e-27)
(5.67424e-07 -4.47301e-07 -2.96103e-27)
(6.40554e-07 -5.11655e-07 3.02009e-27)
(5.93134e-07 -4.65391e-07 3.89524e-27)
(6.6436e-07 -5.30072e-07 -2.35501e-27)
(6.18981e-07 -4.8304e-07 -3.93832e-28)
(6.8818e-07 -5.47927e-07 2.61681e-28)
(6.44923e-07 -5.0022e-07 -8.11763e-29)
(7.11978e-07 -5.65193e-07 -2.11439e-27)
(6.70919e-07 -5.16902e-07 2.17474e-28)
(7.35719e-07 -5.81844e-07 1.27107e-27)
(6.96929e-07 -5.33058e-07 1.93746e-27)
(7.59367e-07 -5.97856e-07 2.01054e-27)
(7.22912e-07 -5.48663e-07 -6.6353e-27)
(7.82885e-07 -6.13205e-07 3.83847e-27)
(7.4883e-07 -5.63691e-07 2.938e-27)
(8.06234e-07 -6.27863e-07 -1.86815e-27)
(7.74642e-07 -5.78115e-07 -3.32592e-28)
(8.29378e-07 -6.41807e-07 3.12454e-27)
(8.00308e-07 -5.91909e-07 6.25511e-27)
(8.52278e-07 -6.55011e-07 2.17914e-27)
(8.25785e-07 -6.05049e-07 -4.18397e-27)
(8.74898e-07 -6.67448e-07 -3.94926e-27)
(8.51032e-07 -6.17511e-07 4.12116e-27)
(8.97202e-07 -6.79097e-07 -4.69485e-28)
(8.76003e-07 -6.29271e-07 7.16258e-28)
(9.19152e-07 -6.89934e-07 1.53616e-27)
(9.00653e-07 -6.40311e-07 2.30757e-27)
(9.40713e-07 -6.9994e-07 -6.20164e-27)
(9.24936e-07 -6.50613e-07 2.67525e-28)
(9.61853e-07 -7.09098e-07 -1.68231e-27)
(9.48805e-07 -6.60162e-07 -1.51551e-27)
(9.82536e-07 -7.17393e-07 2.65784e-27)
(9.72212e-07 -6.68949e-07 -3.12473e-27)
(1.00273e-06 -7.24818e-07 -3.14421e-27)
(9.95108e-07 -6.76967e-07 3.39973e-27)
(1.02241e-06 -7.31366e-07 -5.5444e-27)
(1.01744e-06 -6.84214e-07 -5.68595e-27)
(1.04153e-06 -7.37038e-07 7.9241e-28)
(1.03917e-06 -6.90693e-07 3.35072e-27)
(1.06007e-06 -7.41837e-07 -4.42057e-28)
(1.06025e-06 -6.96411e-07 1.66621e-27)
(1.078e-06 -7.45773e-07 6.82995e-28)
(1.08062e-06 -7.01381e-07 -1.16172e-28)
(1.09529e-06 -7.48861e-07 6.94742e-28)
(1.10023e-06 -7.0562e-07 -3.34815e-27)
(1.11192e-06 -7.51121e-07 2.45786e-27)
(1.11906e-06 -7.0915e-07 1.28938e-27)
(1.12785e-06 -7.52578e-07 -3.03933e-27)
(1.13704e-06 -7.11998e-07 -9.76337e-29)
(1.14307e-06 -7.53263e-07 1.35286e-27)
(1.15413e-06 -7.14196e-07 4.21216e-28)
(1.15755e-06 -7.5321e-07 -2.42583e-27)
(1.1703e-06 -7.15781e-07 -1.82624e-27)
(1.17126e-06 -7.52461e-07 -1.40049e-27)
(1.18551e-06 -7.16796e-07 -1.1159e-27)
(1.18418e-06 -7.51062e-07 -8.5467e-33)
(1.19971e-06 -7.17285e-07 8.43655e-28)
(1.1963e-06 -7.49063e-07 2.7346e-27)
(1.21288e-06 -7.17301e-07 -1.03827e-27)
(1.20759e-06 -7.46519e-07 -2.82861e-27)
(1.22497e-06 -7.16898e-07 -7.40331e-28)
(1.21803e-06 -7.43491e-07 2.82899e-27)
(1.23597e-06 -7.16134e-07 -1.27661e-27)
(1.2276e-06 -7.40039e-07 -1.3829e-27)
(1.24585e-06 -7.1507e-07 -1.14134e-27)
(1.23629e-06 -7.36229e-07 2.30744e-27)
(1.25458e-06 -7.13765e-07 -3.09911e-28)
(1.24406e-06 -7.32125e-07 -1.02077e-27)
(1.26216e-06 -7.12282e-07 -8.67639e-28)
(1.25091e-06 -7.27792e-07 -2.96545e-30)
(1.26858e-06 -7.1068e-07 -1.70342e-28)
(1.2568e-06 -7.23293e-07 2.22819e-27)
(1.27384e-06 -7.09017e-07 8.3245e-28)
(1.26171e-06 -7.1868e-07 -4.60749e-28)
(1.27794e-06 -7.07321e-07 -8.54854e-29)
(1.26563e-06 -7.14026e-07 -1.85976e-28)
(1.281e-06 -7.05618e-07 1.57922e-28)
(1.26862e-06 -7.09387e-07 1.26444e-27)
(1.28306e-06 -7.03597e-07 1.33916e-27)
(1.28215e-06 -7.02264e-07 2.07704e-27)
(1.27949e-06 -7.02737e-07 -2.05796e-27)
(1.27642e-06 -7.02955e-07 -4.14956e-27)
(1.2729e-06 -7.03366e-07 -2.06676e-27)
(1.27069e-06 -7.05129e-07 1.04629e-27)
)
;
    }
    frontAndBackPlanes
    {
        type            empty;
    }
}


// ************************************************************************* //
