/*--------------------------------*- C++ -*----------------------------------*\
| =========                 |                                                 |
| \\      /  F ield         | OpenFOAM Extend Project: Open source CFD        |
|  \\    /   O peration     | Version:  1.6-ext                               |
|   \\  /    A nd           | Web:      www.extend-project.de                 |
|    \\/     M anipulation  |                                                 |
\*---------------------------------------------------------------------------*/
FoamFile
{
    version     2.0;
    format      ascii;
    class       volVectorField;
    location    "0.25";
    object      DU_0;
}
// * * * * * * * * * * * * * * * * * * * * * * * * * * * * * * * * * * * * * //

dimensions      [0 1 0 0 0 0 0];

internalField   nonuniform List<vector> 
328
(
(2.90108e-09 5.67387e-09 0)
(2.06966e-09 1.28655e-09 0)
(2.1703e-09 -1.20782e-09 0)
(3.38379e-09 -6.28765e-09 0)
(8.832e-09 1.4513e-08 0)
(6.81459e-09 3.62098e-09 0)
(7.16514e-09 -3.66541e-09 0)
(1.03206e-08 -1.6172e-08 0)
(1.56943e-08 2.09738e-08 0)
(1.31085e-08 5.67252e-09 0)
(1.38161e-08 -6.1457e-09 0)
(1.83447e-08 -2.36367e-08 0)
(2.31777e-08 2.53854e-08 0)
(2.04676e-08 7.25401e-09 0)
(2.15842e-08 -8.47315e-09 0)
(2.70892e-08 -2.91198e-08 0)
(3.13833e-08 2.81902e-08 0)
(2.89947e-08 8.29112e-09 0)
(3.05738e-08 -1.05899e-08 0)
(3.6661e-08 -3.31704e-08 0)
(4.02814e-08 2.97219e-08 0)
(3.85331e-08 8.74642e-09 0)
(4.06114e-08 -1.2494e-08 0)
(4.70169e-08 -3.62157e-08 0)
(4.99252e-08 3.0249e-08 0)
(4.90653e-08 8.63072e-09 0)
(5.16763e-08 -1.42425e-08 0)
(5.82088e-08 -3.86121e-08 0)
(6.03537e-08 2.99619e-08 0)
(6.05335e-08 7.96901e-09 0)
(6.37062e-08 -1.59205e-08 0)
(7.02727e-08 -4.06353e-08 0)
(7.16241e-08 2.89977e-08 0)
(7.29256e-08 6.79398e-09 0)
(7.66875e-08 -1.76324e-08 0)
(8.32656e-08 -4.25095e-08 0)
(8.37931e-08 2.74444e-08 0)
(8.62371e-08 5.13051e-09 0)
(9.0615e-08 -1.94868e-08 0)
(9.72437e-08 -4.44151e-08 0)
(9.69214e-08 2.53514e-08 0)
(1.00489e-07 2.99027e-09 0)
(1.05509e-07 -2.15914e-08 0)
(1.12268e-07 -4.65019e-08 0)
(1.1107e-07 2.27337e-08 0)
(1.15718e-07 3.66261e-10 0)
(1.21408e-07 -2.40484e-08 0)
(1.28399e-07 -4.8896e-08 0)
(1.26303e-07 1.9577e-08 0)
(1.31978e-07 -2.76827e-09 0)
(1.38364e-07 -2.69535e-08 0)
(1.45699e-07 -5.17066e-08 0)
(1.42685e-07 1.58416e-08 0)
(1.49337e-07 -6.45985e-09 0)
(1.56447e-07 -3.03977e-08 0)
(1.64233e-07 -5.50315e-08 0)
(1.60285e-07 1.1466e-08 0)
(1.67873e-07 -1.07732e-08 0)
(1.75732e-07 -3.44697e-08 0)
(1.84067e-07 -5.89627e-08 0)
(1.79176e-07 6.37043e-09 0)
(1.87672e-07 -1.57893e-08 0)
(1.96307e-07 -3.92593e-08 0)
(2.05271e-07 -6.35912e-08 0)
(1.99437e-07 4.60388e-10 0)
(2.08828e-07 -2.16034e-08 0)
(2.18263e-07 -4.48615e-08 0)
(2.27921e-07 -6.90128e-08 0)
(2.21153e-07 -6.37096e-09 0)
(2.31437e-07 -2.83235e-08 0)
(2.41695e-07 -5.13799e-08 0)
(2.52097e-07 -7.53322e-08 0)
(2.44419e-07 -1.42405e-08 0)
(2.55603e-07 -3.60696e-08 0)
(2.66706e-07 -5.893e-08 0)
(2.77887e-07 -8.2668e-08 0)
(2.69338e-07 -2.32739e-08 0)
(2.81437e-07 -4.49734e-08 0)
(2.93404e-07 -6.76423e-08 0)
(3.0539e-07 -9.11569e-08 0)
(2.96033e-07 -3.36047e-08 0)
(3.0906e-07 -5.51789e-08 0)
(3.21908e-07 -7.76649e-08 0)
(3.3472e-07 -1.00957e-07 0)
(3.24644e-07 -4.53749e-08 0)
(3.38612e-07 -6.68429e-08 0)
(3.52353e-07 -8.9165e-08 0)
(3.66007e-07 -1.1225e-07 0)
(3.56513e-07 -5.92438e-08 0)
(3.71461e-07 -8.06421e-08 0)
(3.86136e-07 -1.02831e-07 0)
(4.00678e-07 -1.25736e-07 0)
(3.90701e-07 -7.49614e-08 0)
(4.06617e-07 -9.63564e-08 0)
(4.22221e-07 -1.18474e-07 0)
(4.37656e-07 -1.41258e-07 0)
(4.25039e-07 -9.14725e-08 0)
(4.4184e-07 -1.12949e-07 0)
(4.58299e-07 -1.35079e-07 0)
(4.74567e-07 -1.57825e-07 0)
(4.59606e-07 -1.08711e-07 0)
(4.77205e-07 -1.30353e-07 0)
(4.94443e-07 -1.52579e-07 0)
(5.11482e-07 -1.75369e-07 0)
(4.94472e-07 -1.26613e-07 0)
(5.12781e-07 -1.48498e-07 0)
(5.30721e-07 -1.70897e-07 0)
(5.48461e-07 -1.93804e-07 0)
(5.29698e-07 -1.45118e-07 0)
(5.48627e-07 -1.67309e-07 0)
(5.67185e-07 -1.89943e-07 0)
(5.85553e-07 -2.13027e-07 0)
(5.65327e-07 -1.64162e-07 0)
(5.84784e-07 -1.86704e-07 0)
(6.03876e-07 -2.0962e-07 0)
(6.22791e-07 -2.32922e-07 0)
(6.01384e-07 -1.8368e-07 0)
(6.21276e-07 -2.06599e-07 0)
(6.40816e-07 -2.2982e-07 0)
(6.60192e-07 -2.53364e-07 0)
(6.37875e-07 -2.03601e-07 0)
(6.58111e-07 -2.26902e-07 0)
(6.78009e-07 -2.50437e-07 0)
(6.9776e-07 -2.74228e-07 0)
(6.74788e-07 -2.23849e-07 0)
(6.95277e-07 -2.47522e-07 0)
(7.15446e-07 -2.71361e-07 0)
(7.35482e-07 -2.9539e-07 0)
(7.12097e-07 -2.44348e-07 0)
(7.32751e-07 -2.68367e-07 0)
(7.53103e-07 -2.92487e-07 0)
(7.73336e-07 -3.16732e-07 0)
(7.49763e-07 -2.65016e-07 0)
(7.70497e-07 -2.89347e-07 0)
(7.9095e-07 -3.13716e-07 0)
(8.11294e-07 -3.38146e-07 0)
(7.87739e-07 -2.85776e-07 0)
(8.08474e-07 -3.10375e-07 0)
(8.28946e-07 -3.34955e-07 0)
(8.49318e-07 -3.59534e-07 0)
(8.25973e-07 -3.06548e-07 0)
(8.46634e-07 -3.3137e-07 0)
(8.67049e-07 -3.56118e-07 0)
(8.87371e-07 -3.80806e-07 0)
(8.64407e-07 -3.2726e-07 0)
(8.84924e-07 -3.52256e-07 0)
(9.05213e-07 -3.77127e-07 0)
(9.25412e-07 -4.01884e-07 0)
(9.02985e-07 -3.47842e-07 0)
(9.23295e-07 -3.72964e-07 0)
(9.43391e-07 -3.97914e-07 0)
(9.634e-07 -4.22699e-07 0)
(9.41648e-07 -3.6823e-07 0)
(9.61694e-07 -3.93431e-07 0)
(9.81536e-07 -4.18416e-07 0)
(1.00129e-06 -4.43191e-07 0)
(9.80339e-07 -3.88367e-07 0)
(1.00007e-06 -4.136e-07 0)
(1.0196e-06 -4.38579e-07 0)
(1.03905e-06 -4.63305e-07 0)
(1.01901e-06 -4.08198e-07 0)
(1.03837e-06 -4.33421e-07 0)
(1.05755e-06 -4.58355e-07 0)
(1.07664e-06 -4.82995e-07 0)
(1.05759e-06 -4.27678e-07 0)
(1.07655e-06 -4.52849e-07 0)
(1.09533e-06 -4.777e-07 0)
(1.11401e-06 -5.0222e-07 0)
(1.09605e-06 -4.46763e-07 0)
(1.11457e-06 -4.71844e-07 0)
(1.1329e-06 -4.96575e-07 0)
(1.15112e-06 -5.20944e-07 0)
(1.13433e-06 -4.65415e-07 0)
(1.15237e-06 -4.90369e-07 0)
(1.17022e-06 -5.14947e-07 0)
(1.18795e-06 -5.39131e-07 0)
(1.17238e-06 -4.83596e-07 0)
(1.18991e-06 -5.08389e-07 0)
(1.20724e-06 -5.32782e-07 0)
(1.22445e-06 -5.56751e-07 0)
(1.21017e-06 -5.01275e-07 0)
(1.22716e-06 -5.25874e-07 0)
(1.24394e-06 -5.5005e-07 0)
(1.26058e-06 -5.73776e-07 0)
(1.24764e-06 -5.18421e-07 0)
(1.26406e-06 -5.42794e-07 0)
(1.28026e-06 -5.66722e-07 0)
(1.29631e-06 -5.90176e-07 0)
(1.28476e-06 -5.35003e-07 0)
(1.30059e-06 -5.5912e-07 0)
(1.31618e-06 -5.82772e-07 0)
(1.3316e-06 -6.05925e-07 0)
(1.32148e-06 -5.50994e-07 0)
(1.33669e-06 -5.74824e-07 0)
(1.35164e-06 -5.98171e-07 0)
(1.36641e-06 -6.20997e-07 0)
(1.35777e-06 -5.66366e-07 0)
(1.37233e-06 -5.89882e-07 0)
(1.38662e-06 -6.12895e-07 0)
(1.4007e-06 -6.35367e-07 0)
(1.39357e-06 -5.81095e-07 0)
(1.40746e-06 -6.04266e-07 0)
(1.42107e-06 -6.26919e-07 0)
(1.43445e-06 -6.4901e-07 0)
(1.42885e-06 -5.95154e-07 0)
(1.44206e-06 -6.17952e-07 0)
(1.45496e-06 -6.40217e-07 0)
(1.4676e-06 -6.61902e-07 0)
(1.46357e-06 -6.08521e-07 0)
(1.47607e-06 -6.30919e-07 0)
(1.48825e-06 -6.52768e-07 0)
(1.50013e-06 -6.74021e-07 0)
(1.49769e-06 -6.21175e-07 0)
(1.50946e-06 -6.43143e-07 0)
(1.52089e-06 -6.6455e-07 0)
(1.53201e-06 -6.85347e-07 0)
(1.53116e-06 -6.33095e-07 0)
(1.54219e-06 -6.54606e-07 0)
(1.55286e-06 -6.75544e-07 0)
(1.56319e-06 -6.95862e-07 0)
(1.56394e-06 -6.44266e-07 0)
(1.57422e-06 -6.6529e-07 0)
(1.58411e-06 -6.85734e-07 0)
(1.59364e-06 -7.05547e-07 0)
(1.59599e-06 -6.54672e-07 0)
(1.60551e-06 -6.75183e-07 0)
(1.61462e-06 -6.95107e-07 0)
(1.62332e-06 -7.14392e-07 0)
(1.62727e-06 -6.64303e-07 0)
(1.63602e-06 -6.84272e-07 0)
(1.64433e-06 -7.0365e-07 0)
(1.65222e-06 -7.22385e-07 0)
(1.65773e-06 -6.73152e-07 0)
(1.66571e-06 -6.92552e-07 0)
(1.67322e-06 -7.11358e-07 0)
(1.68028e-06 -7.29521e-07 0)
(1.68733e-06 -6.81215e-07 0)
(1.69453e-06 -7.00017e-07 0)
(1.70126e-06 -7.18227e-07 0)
(1.70749e-06 -7.35795e-07 0)
(1.71603e-06 -6.88492e-07 0)
(1.72247e-06 -7.06668e-07 0)
(1.7284e-06 -7.24258e-07 0)
(1.73381e-06 -7.41211e-07 0)
(1.74379e-06 -6.94987e-07 0)
(1.74946e-06 -7.12511e-07 0)
(1.75461e-06 -7.29457e-07 0)
(1.7592e-06 -7.45773e-07 0)
(1.77056e-06 -7.0071e-07 0)
(1.77548e-06 -7.17555e-07 0)
(1.77985e-06 -7.33832e-07 0)
(1.78365e-06 -7.49493e-07 0)
(1.7963e-06 -7.05672e-07 0)
(1.80048e-06 -7.21812e-07 0)
(1.80411e-06 -7.37398e-07 0)
(1.80712e-06 -7.52384e-07 0)
(1.82097e-06 -7.09893e-07 0)
(1.82444e-06 -7.25302e-07 0)
(1.82734e-06 -7.40175e-07 0)
(1.82959e-06 -7.54467e-07 0)
(1.84453e-06 -7.13395e-07 0)
(1.84732e-06 -7.28048e-07 0)
(1.84951e-06 -7.42186e-07 0)
(1.85103e-06 -7.55767e-07 0)
(1.86695e-06 -7.16205e-07 0)
(1.86908e-06 -7.30078e-07 0)
(1.87059e-06 -7.43462e-07 0)
(1.87141e-06 -7.56314e-07 0)
(1.88818e-06 -7.18357e-07 0)
(1.88969e-06 -7.31426e-07 0)
(1.89056e-06 -7.44035e-07 0)
(1.89072e-06 -7.56143e-07 0)
(1.90819e-06 -7.19887e-07 0)
(1.90912e-06 -7.32131e-07 0)
(1.90939e-06 -7.43946e-07 0)
(1.90892e-06 -7.55294e-07 0)
(1.92695e-06 -7.20838e-07 0)
(1.92733e-06 -7.32237e-07 0)
(1.92705e-06 -7.4324e-07 0)
(1.92601e-06 -7.53813e-07 0)
(1.94442e-06 -7.21258e-07 0)
(1.94431e-06 -7.31792e-07 0)
(1.94352e-06 -7.41968e-07 0)
(1.94195e-06 -7.51752e-07 0)
(1.96058e-06 -7.21198e-07 0)
(1.96002e-06 -7.3085e-07 0)
(1.95878e-06 -7.40182e-07 0)
(1.95673e-06 -7.49165e-07 0)
(1.97539e-06 -7.20714e-07 0)
(1.97445e-06 -7.29468e-07 0)
(1.9728e-06 -7.37943e-07 0)
(1.97033e-06 -7.4611e-07 0)
(1.98885e-06 -7.19864e-07 0)
(1.98757e-06 -7.27706e-07 0)
(1.98557e-06 -7.3531e-07 0)
(1.98274e-06 -7.4265e-07 0)
(2.00092e-06 -7.18707e-07 0)
(1.99936e-06 -7.25627e-07 0)
(1.99706e-06 -7.32347e-07 0)
(1.99392e-06 -7.38848e-07 0)
(2.01159e-06 -7.17307e-07 0)
(2.0098e-06 -7.23293e-07 0)
(2.00726e-06 -7.29118e-07 0)
(2.00388e-06 -7.34767e-07 0)
(2.02085e-06 -7.15723e-07 0)
(2.01888e-06 -7.20768e-07 0)
(2.01616e-06 -7.25685e-07 0)
(2.01258e-06 -7.3047e-07 0)
(2.0287e-06 -7.14015e-07 0)
(2.02659e-06 -7.18114e-07 0)
(2.02372e-06 -7.22109e-07 0)
(2.02001e-06 -7.26016e-07 0)
(2.03513e-06 -7.12243e-07 0)
(2.03292e-06 -7.15388e-07 0)
(2.02995e-06 -7.18445e-07 0)
(2.02615e-06 -7.21459e-07 0)
(2.04013e-06 -7.1044e-07 0)
(2.03783e-06 -7.12634e-07 0)
(2.0348e-06 -7.14749e-07 0)
(2.03098e-06 -7.16862e-07 0)
(2.04376e-06 -7.08622e-07 0)
(2.04137e-06 -7.0988e-07 0)
(2.0383e-06 -7.1108e-07 0)
(2.03453e-06 -7.12294e-07 0)
(2.04593e-06 -7.06511e-07 0)
(2.04344e-06 -7.07068e-07 0)
(2.04037e-06 -7.0756e-07 0)
(2.03666e-06 -7.08087e-07 0)
)
;

boundaryField
{
    plateFix
    {
        type            fixedDisplacement;
        value           uniform (0 0 0);
    }
    plate
    {
        type            solidTraction;
        nonLinear       updatedLagrangian;
        traction        uniform (0 0 0);
        pressure        uniform 0;
        value           nonuniform List<vector> 
168
(
(2.7805e-08 1.49104e-08 -1.26901e-26)
(3.09659e-08 -1.71468e-08 -9.94319e-27)
(2.68185e-08 2.40601e-08 1.66791e-26)
(3.0596e-08 -2.74075e-08 2.07745e-26)
(2.76551e-08 3.09834e-08 -5.62254e-27)
(3.24703e-08 -3.54068e-08 -3.48289e-27)
(3.06306e-08 3.55982e-08 -6.89393e-27)
(3.68069e-08 -4.11124e-08 -8.61227e-27)
(3.56256e-08 3.85783e-08 7.12646e-27)
(4.34332e-08 -4.53428e-08 7.36569e-27)
(4.22505e-08 4.02242e-08 6.86284e-27)
(5.18944e-08 -4.84892e-08 -3.61632e-28)
(5.02921e-08 4.08501e-08 -6.3761e-27)
(6.19417e-08 -5.09628e-08 -3.13513e-27)
(5.95814e-08 4.06458e-08 -9.1151e-28)
(7.33809e-08 -5.30405e-08 6.88788e-28)
(7.003e-08 3.97553e-08 -7.17319e-27)
(8.61096e-08 -5.49555e-08 -6.06334e-27)
(8.1587e-08 3.82646e-08 9.46986e-27)
(1.00069e-07 -5.68875e-08 7.04e-27)
(9.42367e-08 3.62224e-08 4.13397e-27)
(1.15239e-07 -5.8986e-08 2.71903e-27)
(1.07985e-07 3.36416e-08 -1.53754e-26)
(1.31622e-07 -6.13752e-08 -2.04527e-27)
(1.22856e-07 3.05072e-08 1.39431e-26)
(1.4924e-07 -6.41636e-08 -5.2729e-27)
(1.38889e-07 2.67787e-08 -4.40574e-27)
(1.68131e-07 -6.74486e-08 5.17679e-27)
(1.56136e-07 2.23949e-08 1.13805e-27)
(1.88341e-07 -7.13223e-08 -5.01683e-28)
(1.74658e-07 1.72766e-08 -1.32349e-27)
(2.09929e-07 -7.58765e-08 -4.00733e-27)
(1.94528e-07 1.13304e-08 -1.29459e-28)
(2.32964e-07 -8.12082e-08 8.28576e-27)
(2.15829e-07 4.45138e-09 -4.41312e-27)
(2.57523e-07 -8.74241e-08 6.64076e-29)
(2.38653e-07 -3.47459e-09 2.11195e-27)
(2.83693e-07 -9.46458e-08 -4.7054e-27)
(2.63109e-07 -1.25687e-08 2.21433e-27)
(3.11573e-07 -1.03014e-07 6.9941e-28)
(2.89317e-07 -2.29581e-08 -1.40159e-27)
(3.41279e-07 -1.12694e-07 2.62802e-29)
(3.17428e-07 -3.47761e-08 2.50647e-27)
(3.72946e-07 -1.23875e-07 4.16145e-28)
(3.48768e-07 -4.8672e-08 -7.49457e-29)
(4.0802e-07 -1.37265e-07 -2.33985e-28)
(3.82431e-07 -6.43825e-08 -6.03668e-28)
(4.45413e-07 -1.5272e-07 1.41979e-27)
(4.16288e-07 -8.08423e-08 8.29839e-28)
(4.8272e-07 -1.69262e-07 -3.61019e-28)
(4.50423e-07 -9.79852e-08 8.72492e-28)
(5.20008e-07 -1.86824e-07 5.05189e-28)
(4.84908e-07 -1.15753e-07 4.11562e-30)
(5.57336e-07 -2.05314e-07 4.16406e-27)
(5.19807e-07 -1.34091e-07 -2.75573e-27)
(5.94744e-07 -2.24621e-07 -3.44059e-28)
(5.55164e-07 -1.52947e-07 1.09853e-27)
(6.32263e-07 -2.4462e-07 2.04937e-27)
(5.91004e-07 -1.72263e-07 8.04883e-27)
(6.69904e-07 -2.65178e-07 -7.76674e-27)
(6.27331e-07 -1.91981e-07 -4.08362e-27)
(7.07668e-07 -2.86158e-07 4.11072e-27)
(6.64134e-07 -2.12032e-07 8.99098e-28)
(7.45541e-07 -3.07431e-07 1.75669e-27)
(7.01382e-07 -2.32348e-07 5.21663e-27)
(7.83502e-07 -3.28874e-07 -2.30761e-27)
(7.39033e-07 -2.52851e-07 -1.58979e-27)
(8.21521e-07 -3.50373e-07 -2.31627e-27)
(7.77039e-07 -2.73468e-07 -7.89439e-27)
(8.59564e-07 -3.71826e-07 1.92588e-27)
(8.1534e-07 -2.94122e-07 4.4328e-28)
(8.97595e-07 -3.93145e-07 -6.98934e-28)
(8.53876e-07 -3.14741e-07 9.96195e-28)
(9.35577e-07 -4.1425e-07 -6.87439e-27)
(8.92587e-07 -3.35255e-07 3.78012e-28)
(9.7347e-07 -4.35071e-07 2.73595e-27)
(9.3141e-07 -3.55599e-07 1.42573e-27)
(1.01124e-06 -4.5555e-07 -1.35935e-27)
(9.70285e-07 -3.75716e-07 -2.4169e-27)
(1.04884e-06 -4.75633e-07 -3.47241e-27)
(1.00915e-06 -3.9555e-07 5.18783e-27)
(1.08624e-06 -4.95274e-07 1.18991e-27)
(1.04796e-06 -4.15052e-07 -4.37939e-27)
(1.12341e-06 -5.14434e-07 -2.90594e-27)
(1.08666e-06 -4.3418e-07 -3.41818e-27)
(1.1603e-06 -5.33075e-07 3.60654e-27)
(1.12519e-06 -4.52892e-07 1.56181e-27)
(1.19687e-06 -5.51166e-07 -1.76277e-27)
(1.16351e-06 -4.71152e-07 -2.44231e-27)
(1.23311e-06 -5.68674e-07 -4.9515e-28)
(1.20157e-06 -4.88926e-07 2.40617e-28)
(1.26895e-06 -5.85572e-07 1.48316e-27)
(1.23934e-06 -5.06183e-07 -1.84535e-27)
(1.30438e-06 -6.01832e-07 2.44763e-27)
(1.27676e-06 -5.22891e-07 -9.24368e-28)
(1.33935e-06 -6.17427e-07 -2.6851e-27)
(1.31379e-06 -5.39023e-07 4.40458e-27)
(1.37383e-06 -6.32332e-07 -1.61732e-28)
(1.35039e-06 -5.54551e-07 -3.96969e-27)
(1.40777e-06 -6.46521e-07 -4.49053e-27)
(1.38653e-06 -5.6945e-07 1.66545e-28)
(1.44115e-06 -6.59971e-07 -4.97792e-27)
(1.42216e-06 -5.83694e-07 -4.22093e-28)
(1.47393e-06 -6.72657e-07 1.91938e-27)
(1.45723e-06 -5.9726e-07 3.56686e-27)
(1.50608e-06 -6.84558e-07 -3.70294e-27)
(1.49171e-06 -6.10126e-07 -1.10862e-27)
(1.53755e-06 -6.95654e-07 5.48739e-27)
(1.52555e-06 -6.22274e-07 2.40356e-27)
(1.56832e-06 -7.05925e-07 -2.22361e-27)
(1.55871e-06 -6.33686e-07 -8.7485e-28)
(1.59836e-06 -7.15358e-07 1.26946e-27)
(1.59114e-06 -6.44349e-07 1.00754e-27)
(1.62762e-06 -7.23937e-07 6.03389e-27)
(1.62281e-06 -6.5425e-07 -3.18654e-28)
(1.65609e-06 -7.31655e-07 -5.37581e-27)
(1.65366e-06 -6.63384e-07 3.76061e-27)
(1.68373e-06 -7.38503e-07 3.90623e-27)
(1.68365e-06 -6.71746e-07 2.42177e-27)
(1.7105e-06 -7.44481e-07 9.02553e-28)
(1.71274e-06 -6.79335e-07 2.44362e-27)
(1.73639e-06 -7.4959e-07 7.32344e-28)
(1.74088e-06 -6.86158e-07 -3.79285e-27)
(1.76137e-06 -7.53836e-07 -1.19201e-27)
(1.76803e-06 -6.92221e-07 -1.77455e-27)
(1.7854e-06 -7.57229e-07 -1.67377e-27)
(1.79414e-06 -6.97538e-07 7.11679e-28)
(1.80846e-06 -7.59785e-07 -2.03739e-27)
(1.81917e-06 -7.02126e-07 -2.89494e-28)
(1.83053e-06 -7.61524e-07 8.86387e-28)
(1.84309e-06 -7.06008e-07 2.55619e-28)
(1.85158e-06 -7.62472e-07 1.2608e-27)
(1.86584e-06 -7.09211e-07 2.68284e-27)
(1.8716e-06 -7.62658e-07 7.14191e-28)
(1.88739e-06 -7.11767e-07 -3.74351e-27)
(1.89056e-06 -7.62119e-07 -1.30399e-27)
(1.9077e-06 -7.13714e-07 3.15401e-27)
(1.90844e-06 -7.60896e-07 -1.03103e-27)
(1.92673e-06 -7.15092e-07 -2.82503e-27)
(1.92522e-06 -7.59034e-07 1.18571e-27)
(1.94445e-06 -7.15949e-07 2.28005e-27)
(1.94088e-06 -7.56584e-07 -2.30586e-27)
(1.96083e-06 -7.16336e-07 4.1093e-28)
(1.95542e-06 -7.53602e-07 -1.00684e-27)
(1.97584e-06 -7.16306e-07 1.01811e-27)
(1.9688e-06 -7.50147e-07 2.66969e-28)
(1.98946e-06 -7.15916e-07 1.28363e-28)
(1.98102e-06 -7.4628e-07 4.66201e-28)
(2.00166e-06 -7.15227e-07 -2.85846e-28)
(1.99205e-06 -7.42065e-07 -1.04258e-27)
(2.01244e-06 -7.14298e-07 1.17276e-27)
(2.00188e-06 -7.37565e-07 -9.81071e-28)
(2.02178e-06 -7.1319e-07 -7.27868e-28)
(2.01049e-06 -7.32843e-07 1.19759e-27)
(2.02967e-06 -7.11958e-07 -3.05198e-27)
(2.01785e-06 -7.27958e-07 1.19279e-27)
(2.03612e-06 -7.10665e-07 -1.10339e-28)
(2.02396e-06 -7.22961e-07 -2.06092e-27)
(2.04113e-06 -7.09333e-07 1.0143e-27)
(2.02879e-06 -7.17926e-07 1.77194e-27)
(2.04484e-06 -7.07998e-07 -1.40947e-27)
(2.03243e-06 -7.12899e-07 1.22679e-27)
(2.04725e-06 -7.06297e-07 -1.07067e-27)
(2.04653e-06 -7.05123e-07 -3.36183e-27)
(2.04407e-06 -7.0565e-07 3.04522e-29)
(2.04099e-06 -7.05885e-07 -3.26052e-27)
(2.03726e-06 -7.06348e-07 6.71478e-27)
(2.03485e-06 -7.08295e-07 -2.36562e-27)
)
;
    }
    frontAndBackPlanes
    {
        type            empty;
    }
}


// ************************************************************************* //
