/*--------------------------------*- C++ -*----------------------------------*\
| =========                 |                                                 |
| \\      /  F ield         | OpenFOAM Extend Project: Open source CFD        |
|  \\    /   O peration     | Version:  1.6-ext                               |
|   \\  /    A nd           | Web:      www.extend-project.de                 |
|    \\/     M anipulation  |                                                 |
\*---------------------------------------------------------------------------*/
FoamFile
{
    version     2.0;
    format      ascii;
    class       volVectorField;
    location    "0.25";
    object      DV;
}
// * * * * * * * * * * * * * * * * * * * * * * * * * * * * * * * * * * * * * //

dimensions      [0 1 -1 0 0 0 0];

internalField   nonuniform List<vector> 
328
(
(-1.63116e-06 -3.21007e-06 0)
(-1.08081e-06 -6.56313e-07 0)
(-1.08064e-06 6.91396e-07 0)
(-1.63097e-06 3.24172e-06 0)
(-4.96905e-06 -8.22921e-06 0)
(-3.57788e-06 -1.91753e-06 0)
(-3.57712e-06 2.01969e-06 0)
(-4.96866e-06 8.32607e-06 0)
(-8.84147e-06 -1.19528e-05 0)
(-6.93082e-06 -3.10911e-06 0)
(-6.92889e-06 3.27781e-06 0)
(-8.8406e-06 1.21224e-05 0)
(-1.30646e-05 -1.45888e-05 0)
(-1.08625e-05 -4.133e-06 0)
(-1.08603e-05 4.36817e-06 0)
(-1.30646e-05 1.48355e-05 0)
(-1.76942e-05 -1.64061e-05 0)
(-1.54283e-05 -4.95362e-06 0)
(-1.54267e-05 5.25496e-06 0)
(-1.76961e-05 1.67299e-05 0)
(-2.27099e-05 -1.7611e-05 0)
(-2.05385e-05 -5.56038e-06 0)
(-2.05386e-05 5.92733e-06 0)
(-2.27154e-05 1.80096e-05 0)
(-2.81396e-05 -1.83729e-05 0)
(-2.61823e-05 -5.97186e-06 0)
(-2.61848e-05 6.40342e-06 0)
(-2.81502e-05 1.88429e-05 0)
(-3.4003e-05 -1.88176e-05 0)
(-3.23265e-05 -6.2178e-06 0)
(-3.23322e-05 6.71303e-06 0)
(-3.40205e-05 1.93562e-05 0)
(-4.03305e-05 -1.90429e-05 0)
(-3.89637e-05 -6.3352e-06 0)
(-3.89731e-05 6.89339e-06 0)
(-4.03568e-05 1.9648e-05 0)
(-4.71524e-05 -1.91212e-05 0)
(-4.60906e-05 -6.36003e-06 0)
(-4.61043e-05 6.98125e-06 0)
(-4.71894e-05 1.9792e-05 0)
(-5.45012e-05 -1.91067e-05 0)
(-5.3718e-05 -6.32437e-06 0)
(-5.37365e-05 7.00963e-06 0)
(-5.45509e-05 1.98437e-05 0)
(-6.24097e-05 -1.90377e-05 0)
(-6.18655e-05 -6.25365e-06 0)
(-6.18893e-05 7.00518e-06 0)
(-6.24744e-05 1.98429e-05 0)
(-7.09123e-05 -1.89404e-05 0)
(-7.05623e-05 -6.16635e-06 0)
(-7.05919e-05 6.98761e-06 0)
(-7.0994e-05 1.98169e-05 0)
(-8.00444e-05 -1.88308e-05 0)
(-7.9845e-05 -6.07427e-06 0)
(-7.98808e-05 6.96984e-06 0)
(-8.01451e-05 1.9783e-05 0)
(-8.98433e-05 -1.87178e-05 0)
(-8.97559e-05 -5.98376e-06 0)
(-8.97986e-05 6.95918e-06 0)
(-8.99651e-05 1.9751e-05 0)
(-0.000100349 -1.86045e-05 0)
(-0.000100342 -5.89705e-06 0)
(-0.000100392 6.95868e-06 0)
(-0.000100493 1.97248e-05 0)
(-0.000111603 -1.84905e-05 0)
(-0.000111654 -5.81353e-06 0)
(-0.000111712 6.96871e-06 0)
(-0.000111773 1.97051e-05 0)
(-0.000123651 -1.83731e-05 0)
(-0.000123743 -5.7308e-06 0)
(-0.00012381 6.98842e-06 0)
(-0.000123848 1.96907e-05 0)
(-0.00013654 -1.82477e-05 0)
(-0.000136663 -5.64515e-06 0)
(-0.00013674 7.01702e-06 0)
(-0.000136766 1.96802e-05 0)
(-0.00015032 -1.81086e-05 0)
(-0.000150469 -5.55184e-06 0)
(-0.000150556 7.05475e-06 0)
(-0.000150579 1.96728e-05 0)
(-0.000165042 -1.79489e-05 0)
(-0.000165214 -5.44502e-06 0)
(-0.000165313 7.10343e-06 0)
(-0.000165337 1.96692e-05 0)
(-0.000180759 -1.77605e-05 0)
(-0.000180953 -5.31784e-06 0)
(-0.000181065 7.16659e-06 0)
(-0.000181095 1.96714e-05 0)
(-0.000198165 -1.75259e-05 0)
(-0.000198383 -5.15684e-06 0)
(-0.000198509 7.25202e-06 0)
(-0.000198546 1.96825e-05 0)
(-0.000216671 -1.72411e-05 0)
(-0.000216912 -4.95789e-06 0)
(-0.000217052 7.36331e-06 0)
(-0.000217097 1.9706e-05 0)
(-0.00023504 -1.69228e-05 0)
(-0.000235301 -4.73302e-06 0)
(-0.000235453 7.49254e-06 0)
(-0.000235504 1.97383e-05 0)
(-0.00025326 -1.65747e-05 0)
(-0.000253539 -4.48651e-06 0)
(-0.0002537 7.6349e-06 0)
(-0.000253753 1.97746e-05 0)
(-0.000271321 -1.62027e-05 0)
(-0.000271612 -4.22478e-06 0)
(-0.000271778 7.78351e-06 0)
(-0.00027183 1.98078e-05 0)
(-0.000289209 -1.58135e-05 0)
(-0.000289507 -3.95517e-06 0)
(-0.000289675 7.93088e-06 0)
(-0.000289722 1.98306e-05 0)
(-0.000306911 -1.5414e-05 0)
(-0.000307213 -3.68458e-06 0)
(-0.00030738 8.07015e-06 0)
(-0.000307417 1.98366e-05 0)
(-0.000324414 -1.50095e-05 0)
(-0.000324717 -3.41848e-06 0)
(-0.000324878 8.19612e-06 0)
(-0.000324904 1.98211e-05 0)
(-0.000341703 -1.4604e-05 0)
(-0.000342005 -3.16037e-06 0)
(-0.00034216 8.30574e-06 0)
(-0.000342172 1.97816e-05 0)
(-0.000358767 -1.41994e-05 0)
(-0.000359067 -2.9116e-06 0)
(-0.000359215 8.3982e-06 0)
(-0.000359213 1.97178e-05 0)
(-0.000375593 -1.37958e-05 0)
(-0.000375891 -2.67165e-06 0)
(-0.000376032 8.47458e-06 0)
(-0.000376016 1.96312e-05 0)
(-0.000392171 -1.3392e-05 0)
(-0.000392467 -2.43864e-06 0)
(-0.000392602 8.53738e-06 0)
(-0.000392574 1.95248e-05 0)
(-0.00040849 -1.29863e-05 0)
(-0.000408786 -2.20987e-06 0)
(-0.000408916 8.58985e-06 0)
(-0.000408877 1.94021e-05 0)
(-0.000424542 -1.25763e-05 0)
(-0.00042484 -1.98246e-06 0)
(-0.000424965 8.63538e-06 0)
(-0.000424918 1.92669e-05 0)
(-0.000440319 -1.21602e-05 0)
(-0.00044062 -1.75384e-06 0)
(-0.000440742 8.67698e-06 0)
(-0.000440687 1.91224e-05 0)
(-0.000455815 -1.17367e-05 0)
(-0.000456119 -1.52215e-06 0)
(-0.000456239 8.71691e-06 0)
(-0.000456177 1.89711e-05 0)
(-0.000471024 -1.13051e-05 0)
(-0.00047133 -1.28645e-06 0)
(-0.000471448 8.75645e-06 0)
(-0.00047138 1.88146e-05 0)
(-0.000485939 -1.08661e-05 0)
(-0.000486247 -1.04688e-06 0)
(-0.000486363 8.79577e-06 0)
(-0.000486289 1.86534e-05 0)
(-0.000500555 -1.04209e-05 0)
(-0.000500865 -8.04609e-07 0)
(-0.000500977 8.83398e-06 0)
(-0.000500897 1.84868e-05 0)
(-0.000514869 -9.97196e-06 0)
(-0.000515178 -5.61745e-07 0)
(-0.000515285 8.86921e-06 0)
(-0.000515196 1.83133e-05 0)
(-0.000528874 -9.52224e-06 0)
(-0.00052918 -3.21171e-07 0)
(-0.000529281 8.89883e-06 0)
(-0.000529181 1.81306e-05 0)
(-0.000542567 -9.07525e-06 0)
(-0.000542868 -8.62895e-08 0)
(-0.000542959 8.91966e-06 0)
(-0.000542847 1.79359e-05 0)
(-0.000555942 -8.63474e-06 0)
(-0.000556235 1.39238e-07 0)
(-0.000556315 8.92825e-06 0)
(-0.000556189 1.7726e-05 0)
(-0.000568997 -8.20441e-06 0)
(-0.000569279 3.51789e-07 0)
(-0.000569346 8.9212e-06 0)
(-0.000569202 1.7498e-05 0)
(-0.000581725 -7.78768e-06 0)
(-0.000581995 5.48057e-07 0)
(-0.000582046 8.89542e-06 0)
(-0.000581884 1.7249e-05 0)
(-0.000594123 -7.38739e-06 0)
(-0.000594378 7.25306e-07 0)
(-0.000594413 8.84839e-06 0)
(-0.000594231 1.69769e-05 0)
(-0.000606187 -7.00565e-06 0)
(-0.000606426 8.81566e-07 0)
(-0.000606443 8.77836e-06 0)
(-0.000606241 1.66802e-05 0)
(-0.000617913 -6.64371e-06 0)
(-0.000618136 1.01577e-06 0)
(-0.000618135 8.68447e-06 0)
(-0.000617911 1.63583e-05 0)
(-0.000629297 -6.30189e-06 0)
(-0.000629504 1.12778e-06 0)
(-0.000629485 8.56678e-06 0)
(-0.000629241 1.60114e-05 0)
(-0.000640336 -5.97959e-06 0)
(-0.000640527 1.21844e-06 0)
(-0.000640492 8.42632e-06 0)
(-0.000640229 1.56407e-05 0)
(-0.000651027 -5.6754e-06 0)
(-0.000651204 1.28938e-06 0)
(-0.000651153 8.26491e-06 0)
(-0.000650873 1.52482e-05 0)
(-0.000661367 -5.38719e-06 0)
(-0.000661532 1.34296e-06 0)
(-0.000661468 8.08506e-06 0)
(-0.000661172 1.48364e-05 0)
(-0.000671355 -5.11234e-06 0)
(-0.00067151 1.38206e-06 0)
(-0.000671434 7.88979e-06 0)
(-0.000671126 1.44085e-05 0)
(-0.000680988 -4.84788e-06 0)
(-0.000681136 1.40985e-06 0)
(-0.000681051 7.68241e-06 0)
(-0.000680733 1.39676e-05 0)
(-0.000690266 -4.59071e-06 0)
(-0.000690408 1.42964e-06 0)
(-0.000690317 7.46631e-06 0)
(-0.000689991 1.35173e-05 0)
(-0.000699187 -4.33778e-06 0)
(-0.000699326 1.44464e-06 0)
(-0.000699232 7.24477e-06 0)
(-0.0006989 1.30607e-05 0)
(-0.00070775 -4.08627e-06 0)
(-0.000707889 1.45781e-06 0)
(-0.000707793 7.02081e-06 0)
(-0.000707459 1.2601e-05 0)
(-0.000715956 -3.83372e-06 0)
(-0.000716097 1.47171e-06 0)
(-0.000716 6.79703e-06 0)
(-0.000715665 1.21406e-05 0)
(-0.000723804 -3.57815e-06 0)
(-0.000723947 1.48838e-06 0)
(-0.000723852 6.5755e-06 0)
(-0.000723518 1.16816e-05 0)
(-0.000731293 -3.31809e-06 0)
(-0.00073144 1.50934e-06 0)
(-0.000731347 6.35774e-06 0)
(-0.000731016 1.12256e-05 0)
(-0.000738423 -3.05267e-06 0)
(-0.000738575 1.53548e-06 0)
(-0.000738486 6.14468e-06 0)
(-0.000738157 1.07735e-05 0)
(-0.000745195 -2.78154e-06 0)
(-0.000745352 1.56716e-06 0)
(-0.000745267 5.93671e-06 0)
(-0.000744942 1.03258e-05 0)
(-0.000751608 -2.50482e-06 0)
(-0.00075177 1.60427e-06 0)
(-0.000751689 5.73376e-06 0)
(-0.000751367 9.88253e-06 0)
(-0.000757662 -2.22305e-06 0)
(-0.000757829 1.64634e-06 0)
(-0.000757752 5.53543e-06 0)
(-0.000757434 9.44341e-06 0)
(-0.000763358 -1.93702e-06 0)
(-0.000763529 1.69264e-06 0)
(-0.000763456 5.34114e-06 0)
(-0.00076314 9.00804e-06 0)
(-0.000768695 -1.64765e-06 0)
(-0.000768869 1.74238e-06 0)
(-0.000768799 5.15025e-06 0)
(-0.000768487 8.57599e-06 0)
(-0.000773673 -1.35591e-06 0)
(-0.000773851 1.79477e-06 0)
(-0.000773783 4.96219e-06 0)
(-0.000773474 8.14693e-06 0)
(-0.000778294 -1.06272e-06 0)
(-0.000778473 1.84912e-06 0)
(-0.000778409 4.77653e-06 0)
(-0.000778102 7.72068e-06 0)
(-0.000782558 -7.68933e-07 0)
(-0.000782738 1.90484e-06 0)
(-0.000782676 4.59295e-06 0)
(-0.000782371 7.29723e-06 0)
(-0.000786466 -4.754e-07 0)
(-0.000786647 1.96135e-06 0)
(-0.000786586 4.4112e-06 0)
(-0.000786283 6.87656e-06 0)
(-0.000790021 -1.82989e-07 0)
(-0.000790202 2.01802e-06 0)
(-0.000790141 4.23093e-06 0)
(-0.000789841 6.45859e-06 0)
(-0.000793224 1.07346e-07 0)
(-0.000793404 2.07405e-06 0)
(-0.000793344 4.05155e-06 0)
(-0.000793044 6.04293e-06 0)
(-0.000796078 3.94621e-07 0)
(-0.000796255 2.12849e-06 0)
(-0.000796195 3.87219e-06 0)
(-0.000795897 5.6288e-06 0)
(-0.000798584 6.77972e-07 0)
(-0.000798759 2.18034e-06 0)
(-0.000798699 3.69179e-06 0)
(-0.0007984 5.2151e-06 0)
(-0.000800744 9.57141e-07 0)
(-0.000800917 2.22895e-06 0)
(-0.000800856 3.5092e-06 0)
(-0.000800556 4.80031e-06 0)
(-0.000802559 1.23229e-06 0)
(-0.000802729 2.27412e-06 0)
(-0.000802667 3.32379e-06 0)
(-0.000802367 4.38343e-06 0)
(-0.00080403 1.50555e-06 0)
(-0.000804198 2.31687e-06 0)
(-0.000804136 3.13521e-06 0)
(-0.000803835 3.9629e-06 0)
(-0.000805153 1.77505e-06 0)
(-0.000805318 2.35687e-06 0)
(-0.000805255 2.94523e-06 0)
(-0.000804954 3.54191e-06 0)
(-0.000805943 2.04526e-06 0)
(-0.000806105 2.3958e-06 0)
(-0.000806043 2.75379e-06 0)
(-0.000805743 3.11695e-06 0)
(-0.000806355 2.27125e-06 0)
(-0.000806516 2.42237e-06 0)
(-0.000806454 2.5715e-06 0)
(-0.000806153 2.73028e-06 0)
)
;

boundaryField
{
    plateFix
    {
        type            calculated;
        value           uniform (0 0 0);
    }
    plate
    {
        type            calculated;
        value           nonuniform List<vector> 
168
(
(-1.58631e-05 -8.60613e-06 4.18731e-23)
(-1.57049e-05 8.66755e-06 3.38694e-23)
(-1.53439e-05 -1.38089e-05 -4.48227e-23)
(-1.52309e-05 1.39353e-05 -7.4322e-23)
(-1.59104e-05 -1.77996e-05 1.61868e-23)
(-1.58337e-05 1.79994e-05 2.25381e-23)
(-1.77101e-05 -2.0549e-05 -3.53197e-24)
(-1.76552e-05 2.0828e-05 2.86316e-24)
(-2.06639e-05 -2.24616e-05 -1.25459e-23)
(-2.062e-05 2.282e-05 4.64764e-24)
(-2.45419e-05 -2.3725e-05 -1.88317e-23)
(-2.45049e-05 2.41609e-05 1.19837e-23)
(-2.9218e-05 -2.4536e-05 1.42865e-23)
(-2.91881e-05 2.50457e-05 -3.97368e-24)
(-3.45932e-05 -2.50205e-05 2.74723e-23)
(-3.45731e-05 2.56011e-05 -1.33707e-23)
(-4.06155e-05 -2.52809e-05 1.17447e-23)
(-4.0609e-05 2.59299e-05 3.83048e-23)
(-4.72548e-05 -2.53888e-05 -2.34712e-23)
(-4.72661e-05 2.61055e-05 -3.15219e-23)
(-5.45016e-05 -2.53984e-05 -5.51126e-24)
(-5.45346e-05 2.61831e-05 -8.88339e-24)
(-6.23585e-05 -2.53475e-05 4.04816e-23)
(-6.24166e-05 2.62017e-05 -8.1469e-25)
(-7.08388e-05 -2.52618e-05 -4.40276e-23)
(-7.09251e-05 2.61886e-05 2.69734e-23)
(-7.9964e-05 -2.51579e-05 1.44033e-23)
(-8.00808e-05 2.61613e-05 -1.92915e-23)
(-8.97626e-05 -2.50449e-05 -1.01605e-23)
(-8.99116e-05 2.61298e-05 1.72779e-24)
(-0.000100269 -2.49265e-05 7.82139e-24)
(-0.000100452 2.6099e-05 1.04619e-23)
(-0.000111523 -2.48029e-05 -5.38404e-24)
(-0.00011174 2.60699e-05 -2.16436e-23)
(-0.000123568 -2.46716e-05 6.46084e-24)
(-0.000123822 2.6042e-05 8.59612e-24)
(-0.000136452 -2.45283e-05 4.90154e-24)
(-0.000136746 2.60141e-05 6.82805e-24)
(-0.000150223 -2.43674e-05 -7.81645e-24)
(-0.000150563 2.59855e-05 -3.89957e-24)
(-0.000164934 -2.41818e-05 9.41147e-25)
(-0.000165325 2.59567e-05 -6.09133e-25)
(-0.000180638 -2.39631e-05 -6.37009e-24)
(-0.000181088 2.5929e-05 -1.64162e-25)
(-0.000198028 -2.36919e-05 8.16703e-25)
(-0.000198544 2.59034e-05 9.79599e-25)
(-0.000216518 -2.33648e-05 8.17333e-25)
(-0.000217101 2.58833e-05 -4.75571e-24)
(-0.000234872 -2.30003e-05 -1.33946e-24)
(-0.000235513 2.58673e-05 1.28956e-24)
(-0.000253082 -2.26022e-05 -3.10728e-24)
(-0.000253764 2.58504e-05 -2.21757e-24)
(-0.000271135 -2.21757e-05 5.76394e-25)
(-0.000271839 2.58257e-05 -1.55446e-23)
(-0.000289019 -2.17275e-05 1.23119e-23)
(-0.000289726 2.5786e-05 2.44509e-24)
(-0.00030672 -2.1264e-05 -3.61151e-24)
(-0.000307414 2.57253e-05 -6.33499e-24)
(-0.000324223 -2.07908e-05 -2.07065e-23)
(-0.000324891 2.5639e-05 1.84172e-23)
(-0.000341515 -2.03118e-05 1.33905e-23)
(-0.000342148 2.5525e-05 -3.82341e-24)
(-0.000358581 -1.98293e-05 -9.91944e-24)
(-0.000359178 2.53833e-05 -7.40073e-24)
(-0.000375409 -1.93437e-05 -1.01115e-23)
(-0.000375972 2.52156e-05 6.40263e-24)
(-0.000391987 -1.88546e-05 4.69117e-25)
(-0.000392521 2.5025e-05 9.25939e-24)
(-0.000408305 -1.83602e-05 2.63797e-23)
(-0.000408817 2.48152e-05 -6.47291e-24)
(-0.000424355 -1.78589e-05 -5.74172e-24)
(-0.000424852 2.459e-05 -6.31137e-24)
(-0.000440129 -1.7349e-05 -3.1587e-24)
(-0.000440618 2.43528e-05 1.9411e-23)
(-0.000455621 -1.68296e-05 2.29296e-24)
(-0.000456105 2.41062e-05 -5.96552e-24)
(-0.000470825 -1.63003e-05 -5.08634e-24)
(-0.000471305 2.38519e-05 1.72156e-24)
(-0.000485736 -1.57617e-05 8.48729e-24)
(-0.000486211 2.35905e-05 8.3417e-24)
(-0.000500349 -1.52155e-05 -1.48098e-23)
(-0.000500815 2.33215e-05 -2.29794e-24)
(-0.000514661 -1.46639e-05 1.15009e-23)
(-0.00051511 2.30435e-05 8.98437e-24)
(-0.000528666 -1.41101e-05 3.60189e-24)
(-0.00052909 2.27546e-05 -3.72202e-24)
(-0.00054236 -1.35576e-05 -5.46035e-25)
(-0.000542749 2.24519e-05 2.22449e-24)
(-0.000555739 -1.301e-05 6.36233e-24)
(-0.000556082 2.21327e-05 4.55812e-25)
(-0.000568798 -1.24713e-05 -2.01807e-24)
(-0.000569085 2.1794e-05 -8.04205e-24)
(-0.000581533 -1.19448e-05 5.82244e-24)
(-0.000581756 2.14333e-05 -5.14555e-24)
(-0.000593939 -1.14333e-05 4.27182e-24)
(-0.00059409 2.10487e-05 1.08657e-23)
(-0.000606012 -1.09391e-05 -1.75046e-23)
(-0.000606088 2.06386e-05 4.75579e-24)
(-0.000617747 -1.04635e-05 1.35177e-23)
(-0.000617746 2.02027e-05 6.21829e-24)
(-0.000629139 -1.0007e-05 -8.30271e-25)
(-0.000629063 1.97414e-05 1.59998e-23)
(-0.000640187 -9.56889e-06 1.07493e-23)
(-0.000640039 1.92558e-05 -1.97241e-24)
(-0.000650885 -9.14807e-06 -1.62834e-23)
(-0.000650673 1.87479e-05 2.15335e-24)
(-0.000661232 -8.7425e-06 7.8481e-24)
(-0.000660964 1.82205e-05 -1.2426e-23)
(-0.000671224 -8.34968e-06 -3.7386e-24)
(-0.00067091 1.76764e-05 7.28286e-24)
(-0.000680861 -7.96679e-06 5.17995e-24)
(-0.000680511 1.71191e-05 -1.10622e-23)
(-0.000690141 -7.59082e-06 -3.8891e-24)
(-0.000689765 1.65518e-05 -1.69463e-23)
(-0.000699062 -7.21885e-06 4.82222e-25)
(-0.000698672 1.5978e-05 1.85572e-23)
(-0.000707625 -6.84812e-06 -1.21068e-23)
(-0.00070723 1.54005e-05 -1.30303e-23)
(-0.000715829 -6.47625e-06 -3.48393e-25)
(-0.000715436 1.48218e-05 -1.06899e-23)
(-0.000723674 -6.10128e-06 -1.39478e-23)
(-0.00072329 1.42442e-05 -1.58273e-24)
(-0.000731159 -5.72179e-06 1.31969e-23)
(-0.000730789 1.3669e-05 3.52143e-24)
(-0.000738286 -5.33691e-06 5.53508e-24)
(-0.000737933 1.30974e-05 3.18405e-24)
(-0.000745055 -4.94629e-06 -2.75885e-24)
(-0.00074472 1.25297e-05 5.14968e-24)
(-0.000751464 -4.55008e-06 -4.42823e-24)
(-0.000751147 1.19661e-05 2.51091e-24)
(-0.000757516 -4.14881e-06 8.0626e-25)
(-0.000757216 1.14064e-05 -7.69969e-24)
(-0.000763208 -3.74332e-06 -4.33649e-24)
(-0.000762924 1.08504e-05 1.95281e-24)
(-0.000768543 -3.33457e-06 9.5361e-24)
(-0.000768272 1.02976e-05 -1.04286e-25)
(-0.00077352 -2.92362e-06 -9.68379e-24)
(-0.00077326 9.74787e-06 -1.7669e-24)
(-0.00077814 -2.5115e-06 4.93219e-24)
(-0.000777889 9.20119e-06 -2.49569e-24)
(-0.000782403 -2.09919e-06 -3.73046e-24)
(-0.000782159 8.65762e-06 9.47441e-24)
(-0.000786312 -1.68765e-06 -2.16174e-24)
(-0.000786073 8.11729e-06 -1.47771e-24)
(-0.000789868 -1.27787e-06 -3.55868e-24)
(-0.000789631 7.58019e-06 3.81664e-24)
(-0.000793072 -8.70854e-07 -3.19691e-24)
(-0.000792834 7.04601e-06 -3.09231e-24)
(-0.000795928 -4.67565e-07 -1.14e-24)
(-0.000795686 6.51403e-06 3.98677e-24)
(-0.000798437 -6.88058e-08 -2.81064e-24)
(-0.000798188 5.98313e-06 8.48942e-25)
(-0.0008006 3.2542e-07 -6.4863e-25)
(-0.000800343 5.45159e-06 -2.60331e-24)
(-0.000802416 7.15223e-07 6.52325e-24)
(-0.000802151 4.91847e-06 1.87964e-24)
(-0.00080389 1.10373e-06 2.36774e-24)
(-0.000803616 4.38118e-06 3.42926e-24)
(-0.000805013 1.48664e-06 -1.37111e-24)
(-0.000804733 3.8452e-06 -3.5789e-24)
(-0.000805814 1.87547e-06 1.93371e-24)
(-0.000805529 3.29945e-06 1.23915e-25)
(-0.00080625 2.20358e-06 4.71023e-24)
(-0.000806445 2.36111e-06 1.20903e-23)
(-0.000806611 2.44183e-06 -5.37677e-24)
(-0.000806548 2.47532e-06 2.81426e-25)
(-0.000806243 2.55088e-06 -9.93847e-24)
(-0.000805955 2.8087e-06 4.65411e-24)
)
;
    }
    frontAndBackPlanes
    {
        type            empty;
    }
}


// ************************************************************************* //
