/*--------------------------------*- C++ -*----------------------------------*\
| =========                 |                                                 |
| \\      /  F ield         | OpenFOAM Extend Project: Open source CFD        |
|  \\    /   O peration     | Version:  1.6-ext                               |
|   \\  /    A nd           | Web:      www.extend-project.de                 |
|    \\/     M anipulation  |                                                 |
\*---------------------------------------------------------------------------*/
FoamFile
{
    version     2.0;
    format      ascii;
    class       volVectorField;
    location    "0.25";
    object      DV_0;
}
// * * * * * * * * * * * * * * * * * * * * * * * * * * * * * * * * * * * * * //

dimensions      [0 1 -1 0 0 0 0];

internalField   nonuniform List<vector> 
328
(
(-1.69394e-06 -3.36042e-06 0)
(-1.12157e-06 -7.09817e-07 0)
(-1.12142e-06 6.92337e-07 0)
(-1.69291e-06 3.35025e-06 0)
(-5.15971e-06 -8.62827e-06 0)
(-3.71312e-06 -2.07346e-06 0)
(-3.71313e-06 2.02279e-06 0)
(-5.15766e-06 8.59253e-06 0)
(-9.17926e-06 -1.25541e-05 0)
(-7.19352e-06 -3.36365e-06 0)
(-7.19504e-06 3.28035e-06 0)
(-9.17883e-06 1.24865e-05 0)
(-1.35631e-05 -1.53505e-05 0)
(-1.12757e-05 -4.47856e-06 0)
(-1.12785e-05 4.36284e-06 0)
(-1.35648e-05 1.52472e-05 0)
(-1.83687e-05 -1.7294e-05 0)
(-1.60166e-05 -5.38103e-06 0)
(-1.60208e-05 5.2332e-06 0)
(-1.83734e-05 1.71538e-05 0)
(-2.35751e-05 -1.8598e-05 0)
(-2.13229e-05 -6.05998e-06 0)
(-2.1328e-05 5.88054e-06 0)
(-2.35829e-05 1.84215e-05 0)
(-2.92111e-05 -1.94383e-05 0)
(-2.71825e-05 -6.53452e-06 0)
(-2.71884e-05 6.32454e-06 0)
(-2.92222e-05 1.92272e-05 0)
(-3.5297e-05 -1.99462e-05 0)
(-3.35608e-05 -6.8357e-06 0)
(-3.35673e-05 6.59656e-06 0)
(-3.53115e-05 1.97029e-05 0)
(-4.18642e-05 -2.02239e-05 0)
(-4.04494e-05 -7.00212e-06 0)
(-4.04565e-05 6.73556e-06 0)
(-4.1882e-05 1.9951e-05 0)
(-4.89436e-05 -2.03472e-05 0)
(-4.78448e-05 -7.07164e-06 0)
(-4.78525e-05 6.77931e-06 0)
(-4.89648e-05 2.00474e-05 0)
(-5.65685e-05 -2.0373e-05 0)
(-5.57576e-05 -7.0781e-06 0)
(-5.5766e-05 6.76143e-06 0)
(-5.65931e-05 2.00482e-05 0)
(-6.47721e-05 -2.03415e-05 0)
(-6.42074e-05 -7.04864e-06 0)
(-6.42168e-05 6.70847e-06 0)
(-6.48005e-05 1.99932e-05 0)
(-7.35887e-05 -2.02802e-05 0)
(-7.32235e-05 -7.00313e-06 0)
(-7.32344e-05 6.63965e-06 0)
(-7.36214e-05 1.99089e-05 0)
(-8.30532e-05 -2.02058e-05 0)
(-8.28421e-05 -6.95432e-06 0)
(-8.28551e-05 6.5673e-06 0)
(-8.30916e-05 1.9812e-05 0)
(-9.3202e-05 -2.0127e-05 0)
(-9.31054e-05 -6.9089e-06 0)
(-9.31213e-05 6.49833e-06 0)
(-9.3248e-05 1.97113e-05 0)
(-0.000104073 -2.00462e-05 0)
(-0.000104059 -6.86859e-06 0)
(-0.000104079 6.43598e-06 0)
(-0.00010413 1.96107e-05 0)
(-0.000115705 -1.99611e-05 0)
(-0.000115751 -6.83136e-06 0)
(-0.000115776 6.38162e-06 0)
(-0.000115778 1.95114e-05 0)
(-0.00012814 -1.98662e-05 0)
(-0.000128231 -6.79237e-06 0)
(-0.000128263 6.33629e-06 0)
(-0.000128235 1.94136e-05 0)
(-0.000141421 -1.97537e-05 0)
(-0.000141547 -6.74483e-06 0)
(-0.000141589 6.30183e-06 0)
(-0.000141545 1.93176e-05 0)
(-0.000155591 -1.96143e-05 0)
(-0.000155749 -6.68064e-06 0)
(-0.000155803 6.28128e-06 0)
(-0.000155754 1.92251e-05 0)
(-0.000170696 -1.9438e-05 0)
(-0.000170884 -6.59113e-06 0)
(-0.000170953 6.27882e-06 0)
(-0.000170904 1.9138e-05 0)
(-0.00018678 -1.9215e-05 0)
(-0.000186997 -6.46802e-06 0)
(-0.000187083 6.29891e-06 0)
(-0.000187039 1.9059e-05 0)
(-0.000204538 -1.89259e-05 0)
(-0.000204786 -6.29821e-06 0)
(-0.000204889 6.34673e-06 0)
(-0.000204853 1.89861e-05 0)
(-0.000223348 -1.85704e-05 0)
(-0.000223626 -6.08026e-06 0)
(-0.000223746 6.42404e-06 0)
(-0.000223717 1.89222e-05 0)
(-0.000241943 -1.81751e-05 0)
(-0.000242245 -5.83347e-06 0)
(-0.000242379 6.51916e-06 0)
(-0.000242354 1.88638e-05 0)
(-0.000260306 -1.77485e-05 0)
(-0.000260628 -5.56668e-06 0)
(-0.000260772 6.62295e-06 0)
(-0.000260747 1.88024e-05 0)
(-0.00027842 -1.72984e-05 0)
(-0.000278757 -5.28818e-06 0)
(-0.000278908 6.72689e-06 0)
(-0.000278879 1.87296e-05 0)
(-0.000296266 -1.68312e-05 0)
(-0.000296615 -5.00465e-06 0)
(-0.000296769 6.82438e-06 0)
(-0.000296734 1.86394e-05 0)
(-0.000313828 -1.63513e-05 0)
(-0.000314186 -4.72044e-06 0)
(-0.000314341 6.91132e-06 0)
(-0.000314297 1.85281e-05 0)
(-0.000331088 -1.58614e-05 0)
(-0.000331453 -4.43751e-06 0)
(-0.000331609 6.98625e-06 0)
(-0.000331555 1.83948e-05 0)
(-0.00034803 -1.53619e-05 0)
(-0.000348403 -4.15569e-06 0)
(-0.000348558 7.05001e-06 0)
(-0.000348496 1.82409e-05 0)
(-0.00036464 -1.48521e-05 0)
(-0.000365019 -3.87323e-06 0)
(-0.000365176 7.10514e-06 0)
(-0.000365105 1.80695e-05 0)
(-0.000380903 -1.43303e-05 0)
(-0.000381291 -3.58743e-06 0)
(-0.000381449 7.15516e-06 0)
(-0.000381373 1.78849e-05 0)
(-0.000396809 -1.37947e-05 0)
(-0.000397206 -3.29536e-06 0)
(-0.000397366 7.20389e-06 0)
(-0.000397287 1.76913e-05 0)
(-0.000412347 -1.32438e-05 0)
(-0.000412754 -2.99437e-06 0)
(-0.000412918 7.25482e-06 0)
(-0.000412836 1.7493e-05 0)
(-0.000427509 -1.26766e-05 0)
(-0.000427926 -2.68259e-06 0)
(-0.000428094 7.3106e-06 0)
(-0.000428011 1.72932e-05 0)
(-0.000442288 -1.20931e-05 0)
(-0.000442715 -2.35921e-06 0)
(-0.000442886 7.37279e-06 0)
(-0.000442802 1.70941e-05 0)
(-0.000456678 -1.14946e-05 0)
(-0.000457112 -2.02472e-06 0)
(-0.000457286 7.44161e-06 0)
(-0.000457202 1.68965e-05 0)
(-0.000470674 -1.08836e-05 0)
(-0.000471113 -1.68097e-06 0)
(-0.000471288 7.51585e-06 0)
(-0.000471201 1.67e-05 0)
(-0.00048427 -1.02638e-05 0)
(-0.000484713 -1.3311e-06 0)
(-0.000484886 7.59302e-06 0)
(-0.000484794 1.65027e-05 0)
(-0.000497465 -9.63996e-06 0)
(-0.000497906 -9.79406e-07 0)
(-0.000498074 7.66941e-06 0)
(-0.000497975 1.63017e-05 0)
(-0.000510255 -9.01775e-06 0)
(-0.00051069 -6.31084e-07 0)
(-0.00051085 7.74041e-06 0)
(-0.00051074 1.6093e-05 0)
(-0.000522638 -8.4033e-06 0)
(-0.000523062 -2.91897e-07 0)
(-0.00052321 7.80085e-06 0)
(-0.000523086 1.58723e-05 0)
(-0.000534612 -7.80294e-06 0)
(-0.000535021 3.22197e-08 0)
(-0.000535152 7.84535e-06 0)
(-0.000535011 1.56349e-05 0)
(-0.000546175 -7.22274e-06 0)
(-0.000546565 3.3557e-07 0)
(-0.000546677 7.86881e-06 0)
(-0.000546514 1.53765e-05 0)
(-0.000557327 -6.66819e-06 0)
(-0.000557693 6.13091e-07 0)
(-0.000557783 7.86674e-06 0)
(-0.000557597 1.50934e-05 0)
(-0.000568066 -6.1438e-06 0)
(-0.000568407 8.607e-07 0)
(-0.000568472 7.83562e-06 0)
(-0.000568261 1.47827e-05 0)
(-0.000578395 -5.65291e-06 0)
(-0.000578707 1.07555e-06 0)
(-0.000578746 7.7732e-06 0)
(-0.00057851 1.44429e-05 0)
(-0.000588312 -5.1975e-06 0)
(-0.000588595 1.25621e-06 0)
(-0.000588608 7.6786e-06 0)
(-0.000588346 1.40737e-05 0)
(-0.000597821 -4.77814e-06 0)
(-0.000598075 1.40266e-06 0)
(-0.000598062 7.55239e-06 0)
(-0.000597776 1.36761e-05 0)
(-0.000606924 -4.39406e-06 0)
(-0.00060715 1.5163e-06 0)
(-0.000607113 7.39647e-06 0)
(-0.000606804 1.32525e-05 0)
(-0.000615624 -4.04328e-06 0)
(-0.000615824 1.59971e-06 0)
(-0.000615765 7.21399e-06 0)
(-0.000615437 1.28066e-05 0)
(-0.000623927 -3.72286e-06 0)
(-0.000624104 1.65648e-06 0)
(-0.000624025 7.00901e-06 0)
(-0.000623682 1.23427e-05 0)
(-0.000631838 -3.42914e-06 0)
(-0.000631994 1.69086e-06 0)
(-0.0006319 6.78626e-06 0)
(-0.000631545 1.18658e-05 0)
(-0.000639364 -3.15808e-06 0)
(-0.000639503 1.70746e-06 0)
(-0.000639396 6.55078e-06 0)
(-0.000639033 1.13814e-05 0)
(-0.000646512 -2.90554e-06 0)
(-0.000646637 1.71095e-06 0)
(-0.000646521 6.30758e-06 0)
(-0.000646154 1.08945e-05 0)
(-0.000653291 -2.66756e-06 0)
(-0.000653406 1.70569e-06 0)
(-0.000653284 6.06138e-06 0)
(-0.000652917 1.04102e-05 0)
(-0.00065971 -2.4406e-06 0)
(-0.000659816 1.69559e-06 0)
(-0.000659692 5.81633e-06 0)
(-0.000659329 9.93268e-06 0)
(-0.000665778 -2.22166e-06 0)
(-0.000665879 1.68388e-06 0)
(-0.000665755 5.57586e-06 0)
(-0.000665398 9.4656e-06 0)
(-0.000671505 -2.00839e-06 0)
(-0.000671603 1.67307e-06 0)
(-0.000671481 5.34262e-06 0)
(-0.000671133 9.0117e-06 0)
(-0.000676901 -1.79898e-06 0)
(-0.000676998 1.66498e-06 0)
(-0.00067688 5.11847e-06 0)
(-0.000676543 8.57292e-06 0)
(-0.000681975 -1.59217e-06 0)
(-0.000682072 1.66082e-06 0)
(-0.00068196 4.90463e-06 0)
(-0.000681635 8.15049e-06 0)
(-0.000686738 -1.38702e-06 0)
(-0.000686837 1.66139e-06 0)
(-0.000686732 4.70177e-06 0)
(-0.000686419 7.74507e-06 0)
(-0.000691199 -1.18277e-06 0)
(-0.0006913 1.66721e-06 0)
(-0.000691203 4.51028e-06 0)
(-0.000690903 7.35694e-06 0)
(-0.000695366 -9.78667e-07 0)
(-0.000695471 1.67876e-06 0)
(-0.000695382 4.33041e-06 0)
(-0.000695097 6.98621e-06 0)
(-0.000699249 -7.73823e-07 0)
(-0.000699358 1.69664e-06 0)
(-0.000699279 4.16246e-06 0)
(-0.000699008 6.63293e-06 0)
(-0.000702855 -5.67115e-07 0)
(-0.000702969 1.72162e-06 0)
(-0.0007029 4.00689e-06 0)
(-0.000702645 6.29728e-06 0)
(-0.000706191 -3.5717e-07 0)
(-0.000706312 1.75476e-06 0)
(-0.000706254 3.8644e-06 0)
(-0.000706015 5.97964e-06 0)
(-0.000709265 -1.42404e-07 0)
(-0.000709394 1.79736e-06 0)
(-0.000709348 3.73593e-06 0)
(-0.000709125 5.68058e-06 0)
(-0.000712084 7.88722e-08 0)
(-0.000712222 1.85084e-06 0)
(-0.000712189 3.62258e-06 0)
(-0.000711982 5.40084e-06 0)
(-0.000714654 3.08284e-07 0)
(-0.000714802 1.91665e-06 0)
(-0.000714782 3.52552e-06 0)
(-0.000714592 5.14129e-06 0)
(-0.000716982 5.47168e-07 0)
(-0.00071714 1.99604e-06 0)
(-0.000717134 3.44579e-06 0)
(-0.000716961 4.90268e-06 0)
(-0.000719074 7.96311e-07 0)
(-0.000719243 2.08977e-06 0)
(-0.000719249 3.38406e-06 0)
(-0.000719094 4.68558e-06 0)
(-0.000720937 1.05567e-06 0)
(-0.000721116 2.19786e-06 0)
(-0.000721135 3.34038e-06 0)
(-0.000720996 4.49e-06 0)
(-0.000722578 1.32413e-06 0)
(-0.000722765 2.31932e-06 0)
(-0.000722795 3.31392e-06 0)
(-0.000722673 4.31527e-06 0)
(-0.000724003 1.5994e-06 0)
(-0.000724196 2.45195e-06 0)
(-0.000724237 3.30277e-06 0)
(-0.000724129 4.15973e-06 0)
(-0.000725219 1.87813e-06 0)
(-0.000725417 2.59242e-06 0)
(-0.000725465 3.30394e-06 0)
(-0.000725371 4.02069e-06 0)
(-0.000726233 2.1561e-06 0)
(-0.000726433 2.73658e-06 0)
(-0.000726488 3.31383e-06 0)
(-0.000726404 3.89492e-06 0)
(-0.000727051 2.4301e-06 0)
(-0.000727252 2.88065e-06 0)
(-0.000727311 3.32845e-06 0)
(-0.000727235 3.7782e-06 0)
(-0.000727674 2.69717e-06 0)
(-0.000727876 3.02166e-06 0)
(-0.000727938 3.34501e-06 0)
(-0.000727867 3.66753e-06 0)
(-0.000728113 2.96396e-06 0)
(-0.000728319 3.1614e-06 0)
(-0.000728383 3.36041e-06 0)
(-0.000728313 3.55511e-06 0)
(-0.000728342 3.21678e-06 0)
(-0.000728554 3.29824e-06 0)
(-0.00072862 3.37919e-06 0)
(-0.000728547 3.45967e-06 0)
)
;

boundaryField
{
    plateFix
    {
        type            calculated;
        value           uniform (0 0 0);
    }
    plate
    {
        type            calculated;
        value           nonuniform List<vector> 
168
(
(-1.63676e-05 -8.98578e-06 -6.20912e-23)
(-1.64671e-05 8.96545e-06 1.19547e-23)
(-1.58552e-05 -1.44431e-05 4.93476e-23)
(-1.59289e-05 1.43997e-05 8.75454e-23)
(-1.64589e-05 -1.86458e-05 -1.09684e-23)
(-1.65162e-05 1.85724e-05 -2.70891e-23)
(-1.83339e-05 -2.15606e-05 -3.07777e-23)
(-1.8382e-05 2.14516e-05 -5.00444e-23)
(-2.14018e-05 -2.36036e-05 2.55489e-23)
(-2.14464e-05 2.34576e-05 1.23038e-23)
(-2.54278e-05 -2.49693e-05 3.46559e-23)
(-2.54721e-05 2.47862e-05 3.00702e-23)
(-3.02827e-05 -2.58611e-05 -2.22623e-23)
(-3.03284e-05 2.56426e-05 -1.31701e-23)
(-3.58644e-05 -2.64107e-05 -1.24153e-23)
(-3.5912e-05 2.61593e-05 -1.3063e-23)
(-4.21187e-05 -2.67248e-05 1.3863e-23)
(-4.21677e-05 2.64431e-05 -2.61877e-23)
(-4.90138e-05 -2.68786e-05 1.13401e-23)
(-4.90636e-05 2.65692e-05 3.9793e-23)
(-5.65388e-05 -2.69285e-05 6.37238e-24)
(-5.65885e-05 2.65938e-05 4.48277e-24)
(-6.46953e-05 -2.69141e-05 -2.84111e-23)
(-6.47442e-05 2.65557e-05 -5.50954e-24)
(-7.34954e-05 -2.68623e-05 2.27326e-23)
(-7.35436e-05 2.64813e-05 -1.35055e-23)
(-8.29591e-05 -2.67901e-05 -2.5197e-23)
(-8.30078e-05 2.63873e-05 1.50567e-23)
(-9.31128e-05 -2.67063e-05 2.15963e-23)
(-9.31651e-05 2.62828e-05 -4.89273e-25)
(-0.000103988 -2.66136e-05 -1.90244e-23)
(-0.00010405 2.61722e-05 -1.29712e-23)
(-0.000115622 -2.65101e-05 1.2615e-23)
(-0.000115701 2.60569e-05 1.7513e-23)
(-0.000128053 -2.63907e-05 -9.66106e-24)
(-0.00012816 2.59374e-05 1.10411e-23)
(-0.000141325 -2.62477e-05 2.21981e-24)
(-0.000141474 2.58138e-05 -2.61963e-23)
(-0.000155481 -2.60719e-05 3.30066e-24)
(-0.000155686 2.56874e-05 7.97887e-24)
(-0.000170568 -2.58531e-05 -6.12796e-24)
(-0.000170841 2.55595e-05 4.87563e-24)
(-0.000186632 -2.5581e-05 9.85839e-24)
(-0.000186982 2.54318e-05 -2.21546e-24)
(-0.000204369 -2.52332e-05 -1.86583e-24)
(-0.000204803 2.52991e-05 -1.82101e-24)
(-0.00022316 -2.48099e-05 -9.3514e-25)
(-0.00022367 2.51647e-05 3.4071e-24)
(-0.000241739 -2.43415e-05 3.98536e-24)
(-0.000242308 2.50295e-05 -5.06373e-24)
(-0.00026009 -2.3836e-05 2.02412e-24)
(-0.000260699 2.48853e-05 4.2334e-24)
(-0.000278197 -2.33009e-05 3.4142e-24)
(-0.000278825 2.47241e-05 1.69834e-23)
(-0.000296038 -2.27425e-05 -1.27013e-23)
(-0.000296672 2.454e-05 4.67629e-24)
(-0.000313597 -2.21653e-05 1.65792e-24)
(-0.000314227 2.43296e-05 -1.90918e-24)
(-0.000330854 -2.15721e-05 3.05866e-23)
(-0.000331476 2.40924e-05 -2.1265e-23)
(-0.000347793 -2.09639e-05 -6.54833e-24)
(-0.000348409 2.38299e-05 2.45173e-23)
(-0.000364398 -2.03404e-05 -1.95761e-24)
(-0.000365012 2.35457e-05 -2.38909e-24)
(-0.000380656 -1.97007e-05 6.23175e-24)
(-0.000381274 2.32441e-05 -6.67796e-24)
(-0.000396555 -1.90434e-05 7.08676e-26)
(-0.000397185 2.29297e-05 2.27633e-23)
(-0.000412086 -1.83676e-05 -2.22549e-23)
(-0.000412733 2.26071e-05 -4.63242e-24)
(-0.00042724 -1.76728e-05 8.12291e-24)
(-0.000427908 2.22798e-05 2.85729e-24)
(-0.000442012 -1.69596e-05 -1.15953e-23)
(-0.0004427 2.19502e-05 -1.22523e-23)
(-0.000456394 -1.62296e-05 4.91813e-24)
(-0.000457099 2.16195e-05 4.57009e-24)
(-0.000470384 -1.54855e-05 1.08735e-23)
(-0.000471098 2.12876e-05 1.00685e-24)
(-0.000483977 -1.47314e-05 -1.69118e-23)
(-0.00048469 2.09529e-05 -3.45031e-24)
(-0.000497171 -1.39723e-05 1.19773e-24)
(-0.000497867 2.0613e-05 -7.64957e-24)
(-0.000509963 -1.3214e-05 -8.75932e-24)
(-0.000510627 2.02642e-05 -1.18907e-23)
(-0.000522351 -1.24627e-05 -9.08603e-24)
(-0.000522965 1.99027e-05 8.90236e-24)
(-0.000534332 -1.17251e-05 1.77928e-23)
(-0.00053488 1.95242e-05 -1.27729e-23)
(-0.000545906 -1.10072e-05 -1.21108e-23)
(-0.000546372 1.91247e-05 3.56454e-24)
(-0.000557071 -1.03148e-05 8.86312e-24)
(-0.000557441 1.8701e-05 1.2846e-23)
(-0.000567826 -9.65257e-06 -1.50936e-23)
(-0.00056809 1.82506e-05 1.38649e-23)
(-0.000578171 -9.02409e-06 1.76323e-24)
(-0.000578324 1.77723e-05 -1.80661e-23)
(-0.000588106 -8.4316e-06 1.8279e-24)
(-0.000588145 1.7266e-05 6.55368e-24)
(-0.000597632 -7.87595e-06 -1.13267e-23)
(-0.000597561 1.67331e-05 -5.65263e-24)
(-0.000606751 -7.35669e-06 2.31302e-24)
(-0.000606577 1.61762e-05 -1.47495e-23)
(-0.000615466 -6.87217e-06 -6.58636e-24)
(-0.000615199 1.55992e-05 9.66223e-24)
(-0.000623783 -6.41977e-06 2.06217e-23)
(-0.000623436 1.50064e-05 -6.67229e-24)
(-0.000631705 -5.99617e-06 -5.94146e-25)
(-0.000631293 1.44032e-05 1.23355e-23)
(-0.000639241 -5.59762e-06 4.66318e-24)
(-0.000638778 1.37948e-05 -6.9733e-24)
(-0.000646397 -5.22028e-06 -5.47641e-25)
(-0.000645899 1.31867e-05 -3.16451e-24)
(-0.000653182 -4.86042e-06 1.15612e-23)
(-0.000652664 1.25839e-05 1.90389e-23)
(-0.000659604 -4.51468e-06 -1.04707e-23)
(-0.00065908 1.19906e-05 -2.40259e-23)
(-0.000665675 -4.18019e-06 4.66218e-24)
(-0.000665155 1.14106e-05 7.39532e-24)
(-0.000671404 -3.85465e-06 4.98049e-24)
(-0.000670897 1.08466e-05 3.02309e-24)
(-0.000676801 -3.53629e-06 5.7714e-24)
(-0.000676313 1.03006e-05 5.11449e-24)
(-0.000681876 -3.22378e-06 -8.66841e-24)
(-0.000681414 9.77401e-06 -8.78398e-24)
(-0.00068664 -2.9161e-06 -1.56377e-25)
(-0.000686206 9.26733e-06 2.72423e-24)
(-0.0006911 -2.61239e-06 4.16708e-24)
(-0.000690699 8.78087e-06 -2.71637e-24)
(-0.000695267 -2.31173e-06 9.5933e-25)
(-0.000694901 8.31466e-06 -1.05808e-24)
(-0.000699148 -2.01307e-06 1.70058e-24)
(-0.000698821 7.86868e-06 4.60509e-24)
(-0.000702752 -1.71514e-06 -7.40295e-25)
(-0.000702466 7.44296e-06 -3.11752e-24)
(-0.000706086 -1.41643e-06 -1.16539e-23)
(-0.000705845 7.03773e-06 -5.74369e-24)
(-0.000709157 -1.1152e-06 7.83954e-24)
(-0.000708964 6.65339e-06 5.86756e-24)
(-0.000711972 -8.09679e-07 -7.23087e-24)
(-0.000711831 6.29052e-06 1.85118e-24)
(-0.000714537 -4.98178e-07 3.42878e-24)
(-0.000714452 5.9498e-06 -5.55671e-24)
(-0.00071686 -1.79339e-07 -7.9354e-25)
(-0.000716831 5.63188e-06 -4.55724e-24)
(-0.000718946 1.47611e-07 2.32009e-24)
(-0.000718975 5.3372e-06 -1.84275e-24)
(-0.000720803 4.82588e-07 5.71161e-24)
(-0.000720888 5.06579e-06 1.4419e-24)
(-0.000722439 8.24442e-07 -1.04849e-24)
(-0.000722575 4.81699e-06 5.29053e-24)
(-0.000723861 1.17087e-06 2.78198e-24)
(-0.00072404 4.58924e-06 -3.55027e-24)
(-0.000725076 1.51866e-06 2.11198e-24)
(-0.00072529 4.37987e-06 1.44043e-24)
(-0.000726089 1.86366e-06 -8.1214e-24)
(-0.000726329 4.18592e-06 -2.40402e-24)
(-0.000726908 2.20339e-06 -4.00271e-24)
(-0.000727165 4.00272e-06 -2.70849e-24)
(-0.000727531 2.534e-06 -2.69266e-24)
(-0.000727799 3.82809e-06 2.45687e-24)
(-0.000727971 2.86752e-06 2.90438e-24)
(-0.000728249 3.64883e-06 1.23924e-25)
(-0.000728199 3.17763e-06 -3.93675e-24)
(-0.000728393 3.34773e-06 -1.40656e-23)
(-0.000728609 3.37208e-06 1.16701e-23)
(-0.000728675 3.38036e-06 5.50406e-25)
(-0.000728598 3.4111e-06 -2.16296e-23)
(-0.000728488 3.49628e-06 4.22365e-24)
)
;
    }
    frontAndBackPlanes
    {
        type            empty;
    }
}


// ************************************************************************* //
