/*--------------------------------*- C++ -*----------------------------------*\
| =========                 |                                                 |
| \\      /  F ield         | OpenFOAM Extend Project: Open source CFD        |
|  \\    /   O peration     | Version:  1.6-ext                               |
|   \\  /    A nd           | Web:      www.extend-project.de                 |
|    \\/     M anipulation  |                                                 |
\*---------------------------------------------------------------------------*/
FoamFile
{
    version     2.0;
    format      ascii;
    class       surfaceScalarField;
    location    "0.25";
    object      meshPhi;
}
// * * * * * * * * * * * * * * * * * * * * * * * * * * * * * * * * * * * * * //

dimensions      [0 3 -1 0 0 0 0];

internalField   nonuniform List<scalar> 
570
(
6.84914e-11
1.76833e-09
7.10154e-13
5.65785e-10
-8.14979e-11
6.41248e-10
2.29105e-09
2.04308e-10
2.0922e-09
-1.66312e-12
1.24972e-09
-2.4883e-10
1.4129e-09
2.80428e-09
3.23565e-10
2.57883e-09
-1.31609e-11
2.07234e-09
-4.11615e-10
2.33645e-09
3.54156e-09
4.20369e-10
3.22813e-09
-3.62787e-11
3.01316e-09
-5.69965e-10
3.3879e-09
4.48972e-09
4.91386e-10
4.02826e-09
-7.40283e-11
4.07147e-09
-7.28014e-10
4.56587e-09
5.62838e-09
5.33456e-10
4.96148e-09
-1.3043e-10
5.23997e-09
-8.91889e-10
5.8619e-09
6.93189e-09
5.42634e-10
6.0183e-09
-2.10772e-10
6.51694e-09
-1.06915e-09
7.27391e-09
8.38622e-09
5.13833e-10
7.19248e-09
-3.21848e-10
7.90083e-09
-1.26895e-09
8.80004e-09
9.98222e-09
4.40342e-10
8.48192e-09
-4.72292e-10
9.39274e-09
-1.50228e-09
1.04413e-08
1.17162e-08
3.13326e-10
9.88699e-09
-6.7295e-10
1.09952e-08
-1.78224e-09
1.22002e-08
1.35878e-08
1.21211e-10
1.14102e-08
-9.37362e-10
1.27127e-08
-2.12449e-09
1.40811e-08
1.55989e-08
-1.51016e-10
1.30558e-08
-1.28233e-09
1.45512e-08
-2.54765e-09
1.60899e-08
1.77534e-08
-5.22615e-10
1.48294e-08
-1.7286e-09
1.65178e-08
-3.07397e-09
1.82339e-08
2.00565e-08
-1.01799e-09
1.67378e-08
-2.30172e-09
1.86212e-08
-3.73009e-09
2.05213e-08
2.25145e-08
-1.66768e-09
1.87889e-08
-3.033e-09
2.08707e-08
-4.54803e-09
2.29614e-08
2.51346e-08
-2.50952e-09
2.09918e-08
-3.96072e-09
2.32765e-08
-5.56646e-09
2.5564e-08
2.7925e-08
-3.58993e-09
2.33567e-08
-5.13155e-09
2.58499e-08
-6.83221e-09
2.834e-08
3.08948e-08
-4.96538e-09
2.58954e-08
-6.60225e-09
2.86029e-08
-8.40223e-09
3.13012e-08
3.40544e-08
-6.70416e-09
2.86215e-08
-8.44168e-09
3.15496e-08
-1.03459e-08
3.44608e-08
3.74161e-08
-8.88837e-09
3.15517e-08
-1.07333e-08
3.47061e-08
-1.27479e-08
3.78345e-08
4.09948e-08
-1.16164e-08
3.47072e-08
-1.35781e-08
3.80926e-08
-1.57116e-08
4.14417e-08
4.48098e-08
-1.50059e-08
3.81146e-08
-1.70979e-08
4.17348e-08
-1.93631e-08
4.5307e-08
4.88862e-08
-2.07458e-08
4.20871e-08
-2.31541e-08
4.5957e-08
-2.57479e-08
4.97693e-08
5.35761e-08
-2.46621e-08
4.61276e-08
-2.70886e-08
5.0229e-08
-2.9686e-08
5.42639e-08
5.82856e-08
-2.87828e-08
5.02606e-08
-3.12504e-08
5.45733e-08
-3.38742e-08
5.88127e-08
6.30351e-08
-3.3092e-08
5.45089e-08
-3.5624e-08
5.90117e-08
-3.82972e-08
6.34372e-08
6.7845e-08
-3.7574e-08
5.8893e-08
-4.0192e-08
6.35639e-08
-4.29358e-08
6.8156e-08
7.27325e-08
-4.2213e-08
6.34298e-08
-4.49353e-08
6.82461e-08
-4.77676e-08
7.29844e-08
7.77113e-08
-4.6992e-08
6.81317e-08
-4.98324e-08
7.30702e-08
-5.27665e-08
7.79334e-08
8.27905e-08
-5.18926e-08
7.30063e-08
-5.48602e-08
7.80434e-08
-5.79048e-08
8.30096e-08
8.79755e-08
-5.68952e-08
7.80564e-08
-5.99941e-08
8.31684e-08
-6.31531e-08
8.82152e-08
9.32676e-08
-6.19789e-08
8.32801e-08
-6.5209e-08
8.84437e-08
-6.84822e-08
9.35489e-08
9.86652e-08
-6.71221e-08
8.86722e-08
-7.04796e-08
9.38648e-08
-7.38636e-08
9.90063e-08
1.04164e-07
-7.23032e-08
9.42243e-08
-7.57815e-08
9.94242e-08
-7.92702e-08
1.04581e-07
1.09758e-07
-7.75006e-08
9.99256e-08
-8.10912e-08
1.05113e-07
-8.46769e-08
1.10265e-07
1.15441e-07
-8.26939e-08
1.05764e-07
-8.63871e-08
1.1092e-07
-9.00609e-08
1.16048e-07
1.21204e-07
-8.78639e-08
1.11727e-07
-9.16493e-08
1.16835e-07
-9.54019e-08
1.21922e-07
1.2704e-07
-9.2993e-08
1.17801e-07
-9.68599e-08
1.22846e-07
-1.00682e-07
1.27876e-07
1.32939e-07
-9.80653e-08
1.23973e-07
-1.02003e-07
1.28941e-07
-1.05885e-07
1.339e-07
1.38893e-07
-1.03067e-07
1.3023e-07
-1.07066e-07
1.35109e-07
-1.10998e-07
1.39985e-07
1.44894e-07
-1.07985e-07
1.36559e-07
-1.12035e-07
1.41339e-07
-1.1601e-07
1.46119e-07
1.50933e-07
-1.12808e-07
1.42947e-07
-1.169e-07
1.47619e-07
-1.20909e-07
1.52294e-07
1.57002e-07
-1.17528e-07
1.49384e-07
-1.21654e-07
1.5394e-07
-1.25688e-07
1.585e-07
1.63092e-07
-1.22136e-07
1.55858e-07
-1.26286e-07
1.6029e-07
-1.30338e-07
1.64727e-07
1.69195e-07
-1.26624e-07
1.62359e-07
-1.3079e-07
1.66659e-07
-1.34852e-07
1.70965e-07
1.753e-07
-1.30984e-07
1.68875e-07
-1.35159e-07
1.73038e-07
-1.39224e-07
1.77205e-07
1.81399e-07
-1.3521e-07
1.75397e-07
-1.39386e-07
1.79417e-07
-1.43447e-07
1.83438e-07
1.87483e-07
-1.39296e-07
1.81914e-07
-1.43466e-07
1.85784e-07
-1.47515e-07
1.89653e-07
1.93542e-07
-1.43234e-07
1.88416e-07
-1.47391e-07
1.92131e-07
-1.51422e-07
1.95841e-07
1.99567e-07
-1.47018e-07
1.94894e-07
-1.51155e-07
1.98447e-07
-1.5516e-07
2.01992e-07
2.05548e-07
-1.50642e-07
2.01337e-07
-1.54751e-07
2.04723e-07
-1.58724e-07
2.08096e-07
2.11476e-07
-1.541e-07
2.07734e-07
-1.58173e-07
2.10947e-07
-1.62106e-07
2.14143e-07
2.1734e-07
-1.57383e-07
2.14076e-07
-1.61415e-07
2.17111e-07
-1.65301e-07
2.20124e-07
2.23131e-07
-1.60488e-07
2.20351e-07
-1.6447e-07
2.23202e-07
-1.68303e-07
2.26027e-07
2.28841e-07
-1.63407e-07
2.26547e-07
-1.67332e-07
2.29211e-07
-1.71106e-07
2.31844e-07
2.34458e-07
-1.66136e-07
2.32655e-07
-1.69997e-07
2.35127e-07
-1.73704e-07
2.37564e-07
2.39975e-07
-1.68671e-07
2.38662e-07
-1.72461e-07
2.4094e-07
-1.76094e-07
2.43178e-07
2.45382e-07
-1.71007e-07
2.44556e-07
-1.74718e-07
2.46638e-07
-1.78271e-07
2.48675e-07
2.5067e-07
-1.73142e-07
2.50326e-07
-1.76768e-07
2.52211e-07
-1.80234e-07
2.54045e-07
2.55831e-07
-1.75075e-07
2.55961e-07
-1.78608e-07
2.57648e-07
-1.81981e-07
2.5928e-07
2.60855e-07
-1.76806e-07
2.61447e-07
-1.80238e-07
2.62938e-07
-1.83512e-07
2.64369e-07
2.65736e-07
-1.78334e-07
2.66775e-07
-1.81659e-07
2.68071e-07
-1.84827e-07
2.69304e-07
2.70464e-07
-1.79662e-07
2.71932e-07
-1.82872e-07
2.73036e-07
-1.85929e-07
2.74074e-07
2.75031e-07
-1.80794e-07
2.76906e-07
-1.83883e-07
2.77824e-07
-1.86822e-07
2.78672e-07
2.79431e-07
-1.81733e-07
2.81687e-07
-1.84695e-07
2.82425e-07
-1.87511e-07
2.83088e-07
2.83655e-07
-1.82486e-07
2.86264e-07
-1.85313e-07
2.86828e-07
-1.88001e-07
2.87314e-07
2.87696e-07
-1.8306e-07
2.90626e-07
-1.85747e-07
2.91025e-07
-1.88301e-07
2.91342e-07
2.91549e-07
-1.83463e-07
2.94764e-07
-1.86003e-07
2.95006e-07
-1.88418e-07
2.95164e-07
2.95205e-07
-1.83705e-07
2.98667e-07
-1.86093e-07
2.98764e-07
-1.88364e-07
2.98772e-07
2.98659e-07
-1.83797e-07
3.02326e-07
-1.86027e-07
3.02289e-07
-1.8815e-07
3.02161e-07
3.01904e-07
-1.8375e-07
3.05734e-07
-1.85818e-07
3.05575e-07
-1.87788e-07
3.05322e-07
3.04936e-07
-1.83579e-07
3.08881e-07
-1.85479e-07
3.08614e-07
-1.87292e-07
3.0825e-07
3.07748e-07
-1.83298e-07
3.1176e-07
-1.85026e-07
3.11399e-07
-1.86677e-07
3.10938e-07
3.10335e-07
-1.82921e-07
3.14366e-07
-1.84473e-07
3.13926e-07
-1.85959e-07
3.13381e-07
3.12691e-07
-1.82464e-07
3.16693e-07
-1.83837e-07
3.16187e-07
-1.85154e-07
3.15574e-07
3.14812e-07
-1.81944e-07
3.18736e-07
-1.83134e-07
3.18179e-07
-1.84279e-07
3.1751e-07
3.16692e-07
-1.81377e-07
3.20492e-07
-1.82381e-07
3.19897e-07
-1.83349e-07
3.19186e-07
3.18326e-07
-1.80778e-07
3.2196e-07
-1.81592e-07
3.21337e-07
-1.82381e-07
3.20596e-07
3.19707e-07
-1.80161e-07
3.23138e-07
-1.80784e-07
3.22496e-07
-1.81388e-07
3.21735e-07
3.20832e-07
-1.79537e-07
3.24034e-07
-1.79968e-07
3.23373e-07
-1.80387e-07
3.22601e-07
3.21701e-07
-1.78902e-07
3.24657e-07
-1.79155e-07
3.23964e-07
-1.79403e-07
3.23188e-07
3.22318e-07
-1.78228e-07
-1.78355e-07
-1.78477e-07
)
;

boundaryField
{
    plateFix
    {
        type            calculated;
        value           nonuniform List<scalar> 4(-1.35175e-09 3.09835e-14 5.05548e-14 -1.70201e-09);
    }
    plate
    {
        type            calculated;
        value           nonuniform List<scalar> 
168
(
-3.03487e-10
-4.13174e-10
-5.3669e-10
-7.13355e-10
-7.45323e-10
-9.95972e-10
-9.19693e-10
-1.25627e-09
-1.05926e-09
-1.50256e-09
-1.16505e-09
-1.74685e-09
-1.23583e-09
-2.00049e-09
-1.26868e-09
-2.27563e-09
-1.25825e-09
-2.58512e-09
-1.19665e-09
-2.94331e-09
-1.07287e-09
-3.36652e-09
-8.72247e-10
-3.87376e-09
-5.75704e-10
-4.4874e-09
-1.58934e-10
-5.23407e-09
4.08583e-10
-6.14569e-09
1.16466e-09
-7.26078e-09
2.1556e-09
-8.62612e-09
3.43752e-09
-1.02988e-08
5.07785e-09
-1.23489e-08
7.15701e-09
-1.48626e-08
9.77036e-09
-1.79459e-08
1.30306e-08
-2.17293e-08
1.84625e-08
-2.84499e-08
2.23499e-08
-3.23838e-08
2.64187e-08
-3.65908e-08
3.06521e-08
-4.10557e-08
3.50365e-08
-4.57572e-08
3.95593e-08
-5.06691e-08
4.42081e-08
-5.5761e-08
4.89697e-08
-6.10001e-08
5.38293e-08
-6.63529e-08
5.87706e-08
-7.17859e-08
6.37757e-08
-7.72676e-08
6.88257e-08
-8.27686e-08
7.39013e-08
-8.82622e-08
7.89833e-08
-9.37248e-08
8.40532e-08
-9.91355e-08
8.90936e-08
-1.04476e-07
9.40885e-08
-1.09732e-07
9.90233e-08
-1.14889e-07
1.03885e-07
-1.19936e-07
1.08663e-07
-1.24863e-07
1.13346e-07
-1.29662e-07
1.17925e-07
-1.34325e-07
1.22393e-07
-1.38845e-07
1.26741e-07
-1.43215e-07
1.30964e-07
-1.4743e-07
1.35052e-07
-1.51483e-07
1.39001e-07
-1.55366e-07
1.42804e-07
-1.59075e-07
1.46453e-07
-1.62603e-07
1.49942e-07
-1.65943e-07
1.53266e-07
-1.69089e-07
1.56418e-07
-1.72034e-07
1.59392e-07
-1.74774e-07
1.62183e-07
-1.77304e-07
1.64788e-07
-1.79619e-07
1.67201e-07
-1.81715e-07
1.69422e-07
-1.83591e-07
1.71448e-07
-1.85245e-07
1.7328e-07
-1.86677e-07
1.74916e-07
-1.87888e-07
1.76361e-07
-1.88881e-07
1.77615e-07
-1.89659e-07
1.78685e-07
-1.90227e-07
1.79576e-07
-1.90593e-07
1.80294e-07
-1.90763e-07
1.80848e-07
-1.90747e-07
1.81247e-07
-1.90554e-07
1.81502e-07
-1.90197e-07
1.81624e-07
-1.89689e-07
1.81627e-07
-1.89043e-07
1.81524e-07
-1.88274e-07
1.8133e-07
-1.87399e-07
1.81059e-07
-1.86432e-07
1.80729e-07
-1.85392e-07
1.80353e-07
-1.84294e-07
1.79947e-07
-1.83153e-07
1.79525e-07
-1.81985e-07
1.79094e-07
-1.80805e-07
1.78643e-07
-1.79649e-07
1.78092e-07
3.25034e-07
3.24321e-07
3.23543e-07
3.22693e-07
-1.78604e-07
)
;
    }
    frontAndBackPlanes
    {
        type            empty;
    }
}


// ************************************************************************* //
