/*--------------------------------*- C++ -*----------------------------------*\
| =========                 |                                                 |
| \\      /  F ield         | OpenFOAM Extend Project: Open source CFD        |
|  \\    /   O peration     | Version:  1.6-ext                               |
|   \\  /    A nd           | Web:      www.extend-project.de                 |
|    \\/     M anipulation  |                                                 |
\*---------------------------------------------------------------------------*/
FoamFile
{
    version     2.0;
    format      ascii;
    class       volScalarField;
    location    "0.25";
    object      sigmaEq;
}
// * * * * * * * * * * * * * * * * * * * * * * * * * * * * * * * * * * * * * //

dimensions      [1 -1 -2 0 0 0 0];

internalField   nonuniform List<scalar> 
328
(
1.35578
1.10826
1.1693
2.29568
1.32408
1.27297
1.5185
2.37728
1.33741
1.46699
1.83866
2.50916
1.34717
1.61398
2.05251
2.59133
1.36256
1.73368
2.21196
2.65929
1.37333
1.81673
2.31636
2.70515
1.38186
1.87236
2.38474
2.74061
1.38771
1.90445
2.4247
2.7686
1.39193
1.92
2.44613
2.79303
1.39491
1.9243
2.45554
2.81543
1.39717
1.92234
2.45868
2.83698
1.39916
1.9179
2.45958
2.85834
1.40153
1.91386
2.46126
2.88013
1.40507
1.9123
2.46573
2.903
1.41082
1.91471
2.47439
2.92776
1.41998
1.92221
2.4882
2.9553
1.43396
1.93578
2.50794
2.98664
1.45429
1.95638
2.53434
3.02284
1.48257
1.98501
2.56816
3.06495
1.52029
2.02268
2.61011
3.11377
1.56883
2.07038
2.66086
3.1699
1.62866
2.12858
2.72054
3.23293
1.70281
2.20012
2.79145
3.30451
1.79028
2.28286
2.87096
3.38239
1.88122
2.36767
2.94994
3.45678
1.97274
2.45151
3.02552
3.52527
2.06125
2.53097
3.09446
3.58476
2.14402
2.60334
3.15431
3.63317
2.21876
2.66644
3.20314
3.66893
2.2839
2.71883
3.23979
3.69119
2.33851
2.75973
3.26376
3.69978
2.38225
2.78899
3.27515
3.69503
2.41525
2.80689
3.2745
3.67773
2.43799
2.8141
3.26267
3.64893
2.45123
2.81151
3.24075
3.60987
2.45582
2.80013
3.2099
3.56186
2.45272
2.781
3.17132
3.50618
2.44286
2.75517
3.12615
3.44407
2.42713
2.7236
3.07545
3.37668
2.40633
2.68717
3.02018
3.30501
2.38121
2.64667
2.96118
3.22997
2.3524
2.60277
2.89919
3.15232
2.32043
2.55605
2.83482
3.07272
2.28578
2.50701
2.76861
2.99173
2.24881
2.45605
2.70099
2.9098
2.20985
2.40352
2.63233
2.82731
2.16915
2.34968
2.56292
2.74458
2.12692
2.29475
2.49299
2.66184
2.08332
2.23892
2.42274
2.5793
2.03847
2.18233
2.35231
2.49712
1.99248
2.12508
2.28183
2.41541
1.94543
2.06726
2.21138
2.33426
1.89737
2.00893
2.14103
2.25375
1.84836
1.95014
2.07082
2.17391
1.79841
1.89092
2.00079
2.09477
1.74755
1.83129
1.93094
2.01634
1.6958
1.77126
1.86129
1.93862
1.64317
1.71084
1.79183
1.86161
1.58966
1.65002
1.72256
1.78527
1.53527
1.5888
1.65345
1.7096
1.48002
1.52716
1.58448
1.63455
1.42389
1.4651
1.51563
1.56009
1.36689
1.40261
1.44687
1.48619
1.30901
1.33966
1.37817
1.41279
1.25026
1.27623
1.30949
1.33986
1.19063
1.21232
1.2408
1.26735
1.13013
1.1479
1.17207
1.19522
1.06876
1.08295
1.10325
1.1234
1.00651
1.01745
1.03429
1.05186
0.943388
0.951363
0.965164
0.980529
0.879399
0.884664
0.895803
0.909363
0.814541
0.817308
0.826145
0.838302
0.748819
0.749234
0.756108
0.76729
0.682245
0.68034
0.685565
0.696277
0.614866
0.610465
0.614331
0.625243
0.546761
0.539252
0.542022
0.554199
0.47828
0.466184
0.468089
0.483417
0.409823
0.389923
0.391157
0.413219
0.343499
0.309946
0.310661
0.345613
0.279733
0.225117
0.225442
0.28096
0.228102
0.155851
0.155934
0.228702
0.178716
0.142709
0.142968
0.179278
)
;

boundaryField
{
    plateFix
    {
        type            calculated;
        value           nonuniform List<scalar> 4(1.49274 1.11502 1.11134 2.43159);
    }
    plate
    {
        type            calculated;
        value           nonuniform List<scalar> 
168
(
1.25836
2.37021
1.27908
2.46746
1.32094
2.59434
1.33268
2.65336
1.34275
2.70243
1.34695
2.73498
1.35072
2.76328
1.35378
2.78821
1.35681
2.81223
1.35957
2.83563
1.3621
2.85882
1.36454
2.88196
1.36734
2.90543
1.37124
2.92979
1.37726
2.95582
1.38667
2.98445
1.40093
3.01675
1.42159
3.05381
1.45029
3.09671
1.4885
3.14625
1.53759
3.20303
1.59789
3.26654
1.67231
3.33823
1.76031
3.41632
1.85157
3.49055
1.94347
3.55876
2.0323
3.61776
2.11545
3.66554
2.19063
3.70054
2.25627
3.72194
2.31147
3.72958
2.35588
3.72383
2.38961
3.70548
2.41317
3.6756
2.42726
3.63544
2.43276
3.58631
2.4306
3.52951
2.42171
3.4663
2.40695
3.39781
2.38715
3.32506
2.36302
3.24895
2.33519
3.17026
2.3042
3.08965
2.27051
3.00767
2.23449
2.92479
2.19645
2.84138
2.15666
2.75776
2.1153
2.67417
2.07255
2.59081
2.02852
2.50785
1.98333
2.4254
1.93704
2.34354
1.88971
2.26236
1.84139
2.18188
1.79211
2.10215
1.7419
2.02316
1.69076
1.94493
1.6387
1.86743
1.58575
1.79066
1.53189
1.71457
1.47713
1.63915
1.42147
1.56436
1.36492
1.49016
1.30747
1.41651
1.24913
1.34336
1.1899
1.27067
1.12978
1.19839
1.06878
1.12647
1.0069
1.05487
0.944154
0.983533
0.88055
0.912413
0.8161
0.841461
0.750824
0.770634
0.684754
0.699897
0.617969
0.629261
0.550585
0.558769
0.48301
0.48875
0.415656
0.419538
0.350689
0.353196
0.288673
0.290226
0.243557
0.244462
0.210962
0.144886
0.134625
0.134881
0.145341
0.211889
)
;
    }
    frontAndBackPlanes
    {
        type            empty;
    }
}


// ************************************************************************* //
