/*--------------------------------*- C++ -*----------------------------------*\
| =========                 |                                                 |
| \\      /  F ield         | OpenFOAM Extend Project: Open source CFD        |
|  \\    /   O peration     | Version:  1.6-ext                               |
|   \\  /    A nd           | Web:      www.extend-project.de                 |
|    \\/     M anipulation  |                                                 |
\*---------------------------------------------------------------------------*/
FoamFile
{
    version     2.0;
    format      ascii;
    class       volSymmTensorField;
    location    "0.25";
    object      sigma;
}
// * * * * * * * * * * * * * * * * * * * * * * * * * * * * * * * * * * * * * //

dimensions      [1 -1 -2 0 0 0 0];

internalField   nonuniform List<symmTensor> 
328
(
(2.10946 0.443999 -4.39708e-22 0.867207 7.88924e-20 1.18943)
(2.37836 0.348325 -9.25006e-24 1.39795 4.75382e-23 1.50953)
(2.83822 -0.10294 3.62101e-23 1.60698 -5.40365e-23 1.77705)
(3.79424 -0.559994 -1.95889e-22 1.47023 -1.03667e-19 2.10438)
(1.94839 0.321298 2.22318e-21 0.592782 -1.55222e-19 1.01521)
(2.38301 0.280614 1.72171e-22 1.08522 -2.33051e-23 1.38622)
(2.84098 -0.0958187 2.67711e-23 1.1608 1.173e-22 1.59961)
(3.59617 -0.375078 1.23601e-21 1.01008 -4.25814e-20 1.84107)
(1.88394 0.214952 -2.8343e-21 0.425124 -3.03446e-20 0.922311)
(2.48757 0.217431 -2.68817e-22 0.898097 1.17023e-22 1.35311)
(2.9822 -0.0749007 9.25001e-22 0.913001 6.92603e-23 1.55687)
(3.56526 -0.226034 -4.34387e-21 0.747375 1.28692e-19 1.72356)
(1.8184 0.136373 6.31938e-22 0.306965 3.40923e-20 0.848771)
(2.51819 0.159692 2.76945e-22 0.720894 -1.17746e-22 1.29437)
(3.01487 -0.0440111 -1.18202e-21 0.685613 -6.22027e-22 1.47887)
(3.51318 -0.121801 3.92478e-21 0.568666 3.75455e-20 1.63118)
(1.78283 0.0833948 6.46001e-22 0.236059 6.12006e-20 0.806137)
(2.55303 0.113298 1.75536e-22 0.597873 1.39682e-22 1.259)
(3.05563 -0.0128464 7.08624e-22 0.535766 -7.9434e-22 1.43513)
(3.50298 -0.0551255 1.42438e-21 0.46902 -9.96842e-20 1.58719)
(1.75901 0.0494994 9.29704e-22 0.192689 -6.76985e-20 0.779229)
(2.56353 0.0778864 -3.51112e-22 0.501986 -1.1094e-22 1.22477)
(3.06475 0.0134139 -1.51785e-21 0.420897 9.34426e-22 1.39275)
(3.50285 -0.0148292 -1.16556e-21 0.412534 3.96578e-20 1.5645)
(1.74792 0.0298476 -2.20289e-21 0.169084 1.10914e-19 0.76533)
(2.56736 0.0534475 -1.88444e-22 0.436313 -3.36847e-23 1.19997)
(3.06814 0.0323488 5.13835e-22 0.343848 -5.39017e-22 1.36323)
(3.51783 0.0069144 1.45696e-21 0.38582 5.24609e-21 1.55979)
(1.74388 0.0201283 2.88928e-21 0.157349 -4.34798e-20 0.759008)
(2.56216 0.0380756 -1.48363e-21 0.39131 -1.53114e-23 1.17985)
(3.06205 0.0438626 -1.23691e-21 0.290792 -2.86698e-22 1.33953)
(3.54006 0.0164257 -2.42046e-21 0.375739 -5.61533e-20 1.56463)
(1.74463 0.0171953 -3.65044e-21 0.152986 6.51983e-20 0.757561)
(2.55359 0.0298582 3.82003e-21 0.363395 3.15802e-22 1.16524)
(3.05385 0.0488957 1.19707e-21 0.257269 6.28397e-22 1.32282)
(3.56769 0.01798 -1.12326e-21 0.375362 9.98097e-20 1.57552)
(1.74759 0.0185868 1.5707e-21 0.15257 -9.12932e-20 0.758576)
(2.54313 0.02664 1.1623e-21 0.347267 -5.93797e-22 1.15459)
(3.0448 0.0489868 2.22613e-22 0.236778 -8.05224e-22 1.31099)
(3.5977 0.0146849 7.58665e-22 0.379749 -8.3004e-20 1.58928)
(1.75129 0.0225471 5.23137e-22 0.153921 6.06299e-20 0.760595)
(2.53319 0.0265745 -4.91011e-21 0.339301 3.67934e-22 1.14743)
(3.0375 0.045688 2.37621e-21 0.225311 5.62952e-22 1.30348)
(3.62861 0.00859576 -4.42294e-22 0.386041 1.33868e-20 1.60415)
(1.75478 0.0278409 2.08219e-21 0.1555 -7.74238e-20 0.762624)
(2.52499 0.0281373 5.45899e-21 0.336172 6.25154e-22 1.1429)
(3.03295 0.0403641 4.70032e-22 0.219217 1.56244e-23 1.29922)
(3.65931 0.00107755 -2.64143e-21 0.392392 2.08979e-20 1.61897)
(1.75779 0.0336726 -4.31894e-21 0.156261 6.07494e-20 0.764138)
(2.5195 0.0302267 -4.07266e-21 0.335398 -6.71974e-22 1.1404)
(3.03197 0.0340318 -5.24952e-21 0.21588 1.36823e-22 1.2975)
(3.68937 -0.00705279 9.27614e-23 0.397656 2.25112e-20 1.6331)
(1.76052 0.0395714 3.47002e-21 0.155424 -1.40281e-21 0.764898)
(2.51722 0.032117 -1.2281e-21 0.335001 5.11875e-22 1.13933)
(3.03482 0.0273625 4.29818e-22 0.213223 2.02034e-22 1.29758)
(3.71879 -0.015344 1.71353e-21 0.401038 -4.16613e-20 1.64622)
(1.76355 0.0452927 -2.48657e-21 0.152346 -1.07858e-20 0.76488)
(2.51844 0.0333982 -9.36504e-22 0.33348 -1.21999e-21 1.13922)
(3.04155 0.0207169 -4.86325e-22 0.209694 9.00034e-22 1.29887)
(3.74783 -0.0235967 3.24438e-21 0.4019 1.28198e-20 1.65818)
(1.76767 0.0507244 2.39553e-21 0.146396 -3.52522e-21 0.764155)
(2.52329 0.0338871 3.57738e-21 0.329611 4.72519e-22 1.13962)
(3.05207 0.0142319 3.15277e-22 0.204036 1.2371e-23 1.30082)
(3.77696 -0.0317456 1.67814e-22 0.399607 -2.18542e-20 1.66891)
(1.77386 0.0557981 -8.02099e-21 0.136868 -3.03264e-20 0.762825)
(2.53186 0.0335392 -7.13071e-21 0.322327 -1.12335e-21 1.14014)
(3.06621 0.00790439 -1.79421e-21 0.195168 -8.40872e-23 1.30293)
(3.80662 -0.0397706 -3.59428e-21 0.393431 2.57697e-20 1.67831)
(1.78309 0.0604199 1.38588e-20 0.122924 2.13979e-20 0.76094)
(2.54422 0.0323736 -1.20934e-21 0.310577 9.11564e-22 1.14039)
(3.08379 0.00167271 2.08974e-21 0.182038 -9.30866e-22 1.30472)
(3.83718 -0.0476158 -3.08978e-21 0.382472 -5.6322e-20 1.68615)
(1.79629 0.0644072 -2.44993e-21 0.103591 9.17613e-21 0.758493)
(2.56049 0.0304176 -2.87959e-21 0.293284 6.06534e-23 1.13998)
(3.10467 -0.00451916 2.13756e-21 0.163585 6.00525e-23 1.30569)
(3.86882 -0.055128 7.46265e-21 0.365667 4.15957e-20 1.69208)
(1.81416 0.0674668 -3.93527e-21 0.0777734 -1.43937e-20 0.755315)
(2.58064 0.0276746 -7.30703e-22 0.269265 -2.89233e-22 1.13844)
(3.12853 -0.0106823 6.96724e-21 0.138649 6.81994e-22 1.30526)
(3.90129 -0.0620251 2.07171e-21 0.34179 -1.96163e-21 1.69551)
(1.8374 0.0691918 2.44563e-20 0.0444877 1.20908e-20 0.751304)
(2.60477 0.0241308 -9.62495e-21 0.237472 5.93115e-22 1.13537)
(3.15514 -0.0167651 -1.2439e-20 0.106222 -7.53846e-22 1.30294)
(3.9342 -0.0678885 1.349e-20 0.30968 1.86413e-20 1.69583)
(1.86542 0.0689874 6.20188e-21 0.00250663 -1.29598e-20 0.745722)
(2.63213 0.0197093 5.86922e-21 0.19661 1.08521e-22 1.12997)
(3.18344 -0.02262 -1.36968e-20 0.0650673 9.91648e-22 1.2978)
(3.96579 -0.0720835 -7.17499e-22 0.267944 4.59842e-21 1.69178)
(1.90059 0.0671467 1.31031e-20 -0.0491802 8.97715e-21 0.739119)
(2.66419 0.0143757 1.00152e-20 0.144895 2.68237e-21 1.12211)
(3.21439 -0.0283788 2.25798e-20 0.013437 -1.5644e-21 1.28952)
(3.99663 -0.0749839 2.13976e-20 0.215258 -1.71884e-20 1.68303)
(1.9397 0.0632302 -3.12172e-20 -0.112685 -2.43136e-20 0.729361)
(2.6976 0.00817474 -7.15258e-21 0.0814608 -2.71177e-22 1.11011)
(3.24426 -0.0336025 -9.28299e-21 -0.0493645 -5.11263e-22 1.27635)
(4.02194 -0.0759415 -6.00522e-20 0.149327 3.91407e-20 1.66678)
(1.98122 0.056713 -1.43531e-20 -0.177888 3.37244e-20 0.719891)
(2.73003 0.00150437 -1.90234e-20 0.014727 -2.70732e-21 1.09639)
(3.27072 -0.0377015 3.25456e-20 -0.114992 5.00127e-22 1.26068)
(4.04038 -0.0739927 6.0421e-20 0.080301 -5.41314e-20 1.64655)
(2.02147 0.048503 1.55066e-20 -0.244974 -2.67162e-20 0.709158)
(2.75887 -0.00529586 5.91243e-20 -0.0543957 8.35984e-22 1.08027)
(3.29138 -0.0407635 -1.61005e-20 -0.182547 -2.76284e-21 1.24192)
(4.04906 -0.0699497 -1.07453e-20 0.00812999 2.08048e-20 1.62115)
(2.06045 0.0387073 -1.61886e-20 -0.309675 -2.51381e-20 0.69887)
(2.78372 -0.0121127 -3.43235e-20 -0.122303 -2.69903e-21 1.06305)
(3.30604 -0.0427488 -4.6137e-21 -0.248445 1.20128e-21 1.22143)
(4.04873 -0.0638492 -7.03991e-20 -0.0627227 -3.82202e-20 1.59268)
(2.09608 0.0280494 -4.50447e-20 -0.370811 3.03601e-20 0.688672)
(2.80306 -0.0186952 2.84909e-20 -0.18739 2.39985e-21 1.04476)
(3.3134 -0.0438109 9.56691e-21 -0.311111 -3.67972e-21 1.19931)
(4.03824 -0.0563845 2.16661e-20 -0.130911 6.2903e-20 1.56121)
(2.12801 0.0168951 -3.96134e-21 -0.426094 -3.92022e-21 0.679329)
(2.81656 -0.0249084 1.75659e-20 -0.247478 2.26122e-21 1.02612)
(3.31338 -0.0440483 -1.31509e-22 -0.368397 1.32951e-21 1.17639)
(4.0182 -0.0479086 3.58916e-20 -0.193938 -5.01044e-20 1.52799)
(2.15523 0.00575748 3.58023e-20 -0.474687 7.48602e-21 0.670784)
(2.82362 -0.0306048 3.76784e-21 -0.301509 2.88174e-21 1.00734)
(3.30564 -0.0436292 -6.32789e-20 -0.419286 2.74833e-21 1.15294)
(3.9886 -0.0389518 2.41163e-20 -0.250797 -4.61937e-21 1.49342)
(2.1775 -0.00502961 1.97642e-20 -0.515817 -2.76225e-21 0.663243)
(2.82423 -0.0357066 -5.76999e-20 -0.34863 4.25097e-21 0.988737)
(3.29041 -0.0426929 9.65453e-20 -0.462966 -2.06281e-21 1.12938)
(3.95014 -0.0298783 4.86078e-21 -0.300548 3.12935e-20 1.45814)
(2.1945 -0.0151631 -2.5681e-20 -0.549433 7.31936e-21 0.656602)
(2.81841 -0.0401613 6.35516e-20 -0.388633 -4.05668e-21 0.970413)
(3.26794 -0.0413845 -9.67785e-20 -0.499278 -2.17058e-22 1.10588)
(3.9034 -0.0210349 1.3939e-20 -0.343009 4.69373e-21 1.42248)
(2.20625 -0.0244521 -1.18868e-19 -0.575737 1.1293e-20 0.650783)
(2.80644 -0.043958 9.46104e-20 -0.421607 -5.9721e-22 0.952446)
(3.23874 -0.039823 8.14043e-20 -0.528356 -7.67241e-21 1.08258)
(3.8492 -0.0126606 2.09564e-20 -0.37827 -2.4449e-21 1.38671)
(2.21282 -0.0327715 8.12055e-20 -0.595258 -2.09848e-20 0.645609)
(2.7887 -0.0471096 6.27651e-20 -0.447966 -1.70234e-21 0.934814)
(3.20335 -0.0381104 -3.40481e-20 -0.550662 8.30162e-21 1.05952)
(3.78833 -0.00493005 -2.37642e-20 -0.406775 -1.23515e-20 1.35098)
(2.21444 -0.0400687 -5.44807e-20 -0.608668 2.33948e-20 0.640902)
(2.76564 -0.0496501 -1.66903e-20 -0.468293 -7.40834e-21 0.917468)
(3.1624 -0.0363247 7.37332e-21 -0.56682 4.56848e-22 1.03669)
(3.72165 0.0020569 -1.13314e-20 -0.429126 1.466e-20 1.31538)
(2.2114 -0.0463418 2.0475e-20 -0.616732 5.65512e-21 0.636469)
(2.73774 -0.0516252 8.7636e-20 -0.483276 -7.0049e-21 0.900329)
(3.11652 -0.0345243 -8.74378e-20 -0.577561 4.62716e-21 1.01406)
(3.64996 0.00825518 3.95767e-21 -0.446042 -2.46827e-20 1.27996)
(2.20403 -0.0516289 4.25105e-20 -0.62023 1.56123e-21 0.632131)
(2.70552 -0.0530883 -1.36056e-19 -0.493638 -1.12788e-20 0.883308)
(3.06633 -0.0327492 8.39931e-20 -0.583641 1.24667e-20 0.991563)
(3.57405 0.0136654 -1.43732e-20 -0.458263 -6.51947e-21 1.24473)
(2.19268 -0.0559948 -6.41795e-20 -0.619914 -1.16775e-20 0.627726)
(2.66946 -0.0540946 1.43804e-19 -0.500088 2.22347e-20 0.866317)
(3.01241 -0.0310244 -3.43911e-20 -0.585801 -2.45313e-21 0.96915)
(3.49463 0.01832 6.01748e-20 -0.466514 1.35272e-20 1.20969)
(2.17768 -0.0595207 -1.138e-20 -0.616479 -2.14913e-20 0.623115)
(2.63002 -0.0546991 2.98441e-20 -0.503288 7.10786e-21 0.849275)
(2.95531 -0.0293635 -9.98392e-20 -0.58473 6.21267e-21 0.946759)
(3.41236 0.0222735 -2.44414e-20 -0.47147 -5.93674e-21 1.17482)
(2.15938 -0.062296 1.01062e-19 -0.610547 1.92674e-20 0.61818)
(2.58762 -0.0549536 -2.63506e-20 -0.503837 2.89951e-22 0.832113)
(2.89553 -0.0277713 5.87599e-20 -0.581048 8.55741e-21 0.924337)
(3.32781 0.0255929 -5.95725e-20 -0.473735 1.70339e-21 1.14012)
(2.13808 -0.0644118 1.03666e-21 -0.602658 1.18351e-20 0.612826)
(2.54265 -0.0549063 5.7125e-20 -0.502258 -1.96731e-20 0.814773)
(2.83349 -0.0262463 4.49069e-20 -0.575299 -5.4428e-21 0.901841)
(3.24151 0.0283513 -4.90402e-20 -0.473838 5.47475e-21 1.10558)
(2.11404 -0.0659568 -1.02714e-19 -0.593275 -5.94732e-21 0.606979)
(2.49545 -0.0546005 2.20396e-20 -0.499003 8.02112e-22 0.79721)
(2.76958 -0.0247832 3.7345e-20 -0.56795 9.82627e-21 0.879239)
(3.15389 0.0306227 8.57864e-20 -0.472231 -2.08783e-20 1.07121)
(2.08752 -0.0670144 9.88629e-20 -0.582786 -6.71278e-21 0.600578)
(2.4463 -0.0540749 -2.14789e-19 -0.494452 1.91212e-20 0.779387)
(2.70414 -0.0233746 7.42471e-20 -0.559392 -1.30746e-20 0.856506)
(3.06535 0.0324783 -3.25047e-20 -0.469292 -7.45835e-21 1.03699)
(2.0587 -0.067661 2.51318e-19 -0.571511 2.92785e-21 0.593578)
(2.39545 -0.0533639 3.16443e-20 -0.488921 2.66869e-20 0.761279)
(2.63744 -0.0220116 3.90982e-20 -0.549954 -9.46975e-21 0.833623)
(2.97622 0.0339846 -1.14074e-19 -0.465337 1.90798e-20 1.00294)
(2.02778 -0.0679654 -5.69097e-20 -0.559715 1.22902e-20 0.585942)
(2.34312 -0.0524974 1.65311e-20 -0.482668 -1.63484e-20 0.742867)
(2.56973 -0.0206857 -9.96244e-21 -0.539902 8.71107e-22 0.81058)
(2.88675 0.0352019 3.60447e-20 -0.46062 -8.18383e-21 0.969069)
(1.9949 -0.0679886 9.78707e-21 -0.54761 -1.79198e-20 0.577646)
(2.28949 -0.0515019 5.35044e-20 -0.475904 2.13995e-20 0.724139)
(2.5012 -0.0193886 1.16649e-20 -0.529453 3.42099e-21 0.787369)
(2.7972 0.0361839 7.64128e-20 -0.455349 1.61522e-21 0.935379)
(1.96017 -0.0677842 -1.0024e-19 -0.535368 3.69594e-21 0.568667)
(2.23471 -0.0504006 1.17594e-19 -0.468797 3.83306e-21 0.705087)
(2.43202 -0.0181132 2.18068e-20 -0.518784 1.68792e-20 0.763989)
(2.70774 0.0369775 -1.23018e-20 -0.44969 -1.55243e-20 0.901884)
(1.9237 -0.0673984 -5.54978e-20 -0.523124 -2.2327e-22 0.558991)
(2.17889 -0.0492136 4.47619e-20 -0.461482 8.49737e-21 0.685704)
(2.36234 -0.0168534 -1.38853e-19 -0.508032 -2.99921e-20 0.740437)
(2.61853 0.0376233 -3.9456e-20 -0.443775 4.97491e-21 0.868591)
(1.88556 -0.0668712 -9.73184e-20 -0.510984 -1.83245e-20 0.548607)
(2.12214 -0.0479588 -9.58229e-20 -0.454065 1.226e-20 0.665988)
(2.29226 -0.0156042 -7.41891e-20 -0.497306 1.01713e-20 0.716714)
(2.5297 0.0381556 3.24389e-20 -0.437705 6.6977e-21 0.835512)
(1.84582 -0.0662369 6.86655e-20 -0.499033 6.79165e-21 0.537507)
(2.06454 -0.0466518 6.36658e-20 -0.446628 1.47529e-20 0.645939)
(2.22186 -0.0143622 4.56648e-20 -0.486693 -4.30492e-20 0.692823)
(2.44135 0.0386036 -1.76871e-21 -0.431562 1.24289e-20 0.802653)
(1.80452 -0.0655244 -1.24429e-19 -0.487332 1.15777e-20 0.525685)
(2.00614 -0.0453066 6.04818e-20 -0.439233 -2.18883e-20 0.625556)
(2.15123 -0.0131248 -1.25251e-19 -0.476256 -9.16305e-21 0.668765)
(2.35356 0.0389913 1.43056e-19 -0.425405 -2.16458e-20 0.77002)
(1.76172 -0.0647582 -2.14059e-20 -0.475929 2.20249e-21 0.51314)
(1.947 -0.0439354 -2.50303e-21 -0.431926 1.67154e-20 0.604841)
(2.08041 -0.0118905 1.56128e-19 -0.466043 -7.60317e-21 0.644542)
(2.26638 0.0393387 -6.10753e-20 -0.41928 2.98126e-20 0.737621)
(1.71743 -0.0639591 1.48353e-19 -0.464855 -2.6264e-20 0.499872)
(1.88716 -0.0425489 -4.85812e-20 -0.424741 3.54743e-20 0.583795)
(2.00945 -0.0106589 7.4123e-20 -0.456089 -5.86796e-21 0.620159)
(2.17986 0.0396618 1.00883e-19 -0.413219 5.12767e-22 0.705457)
(1.67169 -0.0631442 -1.01613e-19 -0.454131 -2.00319e-20 0.485882)
(1.82664 -0.0411567 -1.19509e-19 -0.417701 -2.86752e-20 0.562422)
(1.93837 -0.00942998 -4.46483e-20 -0.446417 2.09735e-20 0.595617)
(2.09402 0.0399737 -1.09479e-19 -0.407243 9.08787e-21 0.673533)
(1.62453 -0.0623278 2.46858e-20 -0.44377 5.78702e-21 0.471176)
(1.76547 -0.0397673 1.2911e-20 -0.410818 2.04875e-20 0.540725)
(1.86721 -0.00820461 -6.61227e-21 -0.437038 -2.84452e-20 0.570919)
(2.00888 0.0402846 4.18218e-20 -0.401366 1.13653e-20 0.641849)
(1.57596 -0.0615216 -1.07909e-19 -0.433775 -4.76316e-21 0.455761)
(1.70367 -0.0383879 1.08635e-19 -0.404098 -1.33618e-21 0.51871)
(1.79596 -0.0069839 1.50404e-19 -0.427958 -1.74926e-20 0.546071)
(1.92445 0.0406027 -1.16763e-19 -0.395592 -4.15848e-20 0.610406)
(1.526 -0.0607354 3.77235e-21 -0.424141 -4.6599e-21 0.439646)
(1.64126 -0.0370251 -4.43867e-20 -0.39754 1.68623e-20 0.496381)
(1.72465 -0.00576932 4.20142e-20 -0.419175 2.36879e-20 0.521075)
(1.84073 0.0409342 8.78134e-20 -0.389922 1.33652e-20 0.579204)
(1.47467 -0.0599771 -6.10526e-20 -0.41486 1.20766e-20 0.422841)
(1.57823 -0.0356845 9.48239e-20 -0.391138 -1.18402e-21 0.473746)
(1.65326 -0.00456254 -4.78141e-20 -0.41068 3.59401e-22 0.495937)
(1.75771 0.0412838 -1.73997e-19 -0.384349 -9.93021e-21 0.548243)
(1.42199 -0.0592531 -1.22463e-19 -0.405917 -2.20987e-20 0.405361)
(1.5146 -0.034371 7.7916e-20 -0.384881 1.66996e-21 0.450813)
(1.58181 -0.0033653 -3.60425e-20 -0.402462 2.1625e-20 0.470661)
(1.67537 0.041655 -7.24235e-20 -0.378863 -1.42191e-20 0.51752)
(1.36798 -0.0585685 -6.73217e-20 -0.397294 1.58023e-20 0.387221)
(1.45037 -0.0330888 -4.93006e-20 -0.378756 -4.09037e-20 0.427588)
(1.51029 -0.0021794 6.32509e-20 -0.394504 -1.12747e-20 0.445252)
(1.5937 0.0420505 -9.84271e-20 -0.373452 2.70817e-20 0.487035)
(1.31266 -0.0579277 -3.18676e-20 -0.388969 9.30648e-21 0.368438)
(1.38556 -0.0318418 -1.27816e-19 -0.372743 -2.756e-21 0.404083)
(1.4387 -0.00100657 1.02966e-19 -0.386784 3.61635e-20 0.419717)
(1.51268 0.0424721 -1.30718e-19 -0.368098 -6.2598e-21 0.456785)
(1.25606 -0.0573343 -1.05255e-19 -0.380917 -1.51821e-20 0.349031)
(1.32016 -0.0306332 4.4135e-20 -0.366822 8.90524e-21 0.380306)
(1.36702 0.000151487 2.16065e-19 -0.37928 -4.75454e-20 0.394063)
(1.43229 0.0429214 -3.2708e-21 -0.362783 1.32477e-20 0.426768)
(1.19819 -0.0567913 -2.40185e-20 -0.373109 -3.43502e-21 0.32902)
(1.25418 -0.0294659 1.22494e-19 -0.360972 3.97386e-20 0.35627)
(1.29525 0.00129319 -5.41607e-20 -0.371966 -6.83597e-21 0.368297)
(1.35249 0.0433995 7.95282e-20 -0.357486 8.83502e-21 0.396983)
(1.13908 -0.0563015 -2.04925e-20 -0.365517 -1.15967e-20 0.308428)
(1.18763 -0.0283428 3.79671e-20 -0.355167 -1.77314e-20 0.331987)
(1.22338 0.00241707 1.44773e-19 -0.364814 2.00384e-20 0.342426)
(1.27325 0.0439074 -7.12434e-20 -0.352182 -1.95065e-20 0.367426)
(1.07876 -0.0558676 1.09443e-19 -0.358107 4.6173e-21 0.287279)
(1.12052 -0.0272663 -2.1722e-19 -0.34938 -2.06836e-20 0.307468)
(1.15141 0.00352182 1.81642e-19 -0.357792 1.34409e-20 0.316459)
(1.19456 0.0444462 -2.03935e-19 -0.346848 1.41707e-20 0.338097)
(1.01726 -0.0554927 -2.19045e-19 -0.350847 2.29548e-20 0.265596)
(1.05284 -0.0262391 6.72025e-20 -0.343584 1.1809e-20 0.282729)
(1.07932 0.0046063 -1.18859e-19 -0.35087 -2.27535e-20 0.290405)
(1.11637 0.0450174 -3.49357e-20 -0.341458 -9.67666e-21 0.308993)
(0.954612 -0.0551798 -4.00396e-20 -0.343701 -1.71024e-20 0.243407)
(0.984601 -0.0252637 1.8386e-20 -0.337749 4.64921e-20 0.257782)
(1.00709 0.00566965 -8.47569e-20 -0.344013 -4.57024e-21 0.264273)
(1.03866 0.0456229 1.77234e-19 -0.335982 -2.24076e-20 0.280111)
(0.890838 -0.0549329 4.47151e-20 -0.336631 5.71579e-21 0.220739)
(0.915815 -0.0243428 -1.15895e-19 -0.331842 -7.05957e-21 0.232644)
(0.934732 0.00671139 -1.29597e-19 -0.337185 -2.25502e-21 0.238072)
(0.961379 0.0462652 1.46622e-19 -0.330393 -3.93286e-21 0.251449)
(0.825974 -0.0547568 -9.11763e-20 -0.329596 -2.4257e-20 0.197621)
(0.846483 -0.0234793 -9.6892e-21 -0.32583 1.83905e-20 0.207329)
(0.862215 0.00773155 5.31515e-20 -0.330348 -1.75343e-20 0.211814)
(0.884501 0.0469481 -7.00868e-20 -0.324658 2.00872e-20 0.223006)
(0.760052 -0.0546576 1.46011e-19 -0.322553 2.01021e-20 0.174081)
(0.776608 -0.0226766 -4.75921e-20 -0.319675 -2.85366e-20 0.181854)
(0.789529 0.00873101 3.92433e-20 -0.323457 4.90526e-20 0.185509)
(0.807983 0.0476768 -1.79332e-20 -0.318742 -2.5698e-20 0.194778)
(0.693103 -0.0546436 -9.06771e-20 -0.315453 -1.07968e-20 0.150154)
(0.706191 -0.0219392 2.63884e-19 -0.313333 -1.76268e-20 0.156236)
(0.716654 0.00971208 -1.04973e-19 -0.316467 8.49447e-20 0.159167)
(0.731782 0.0484589 9.65766e-20 -0.312607 -1.94414e-20 0.166764)
(0.625158 -0.0547267 -9.84733e-20 -0.308244 -2.90741e-20 0.125872)
(0.635224 -0.021274 -1.04942e-19 -0.306757 1.42281e-19 0.130492)
(0.643564 0.0106797 1.79565e-19 -0.309323 -8.81295e-20 0.132801)
(0.655853 0.0493057 -9.93323e-20 -0.306207 -9.70538e-21 0.138965)
(0.556255 -0.0549258 -1.54635e-19 -0.300858 -2.5086e-20 0.101277)
(0.563696 -0.0206935 2.62029e-19 -0.299881 2.05646e-20 0.104642)
(0.570224 0.0116446 9.85488e-20 -0.301956 4.20033e-20 0.106424)
(0.580154 0.0502356 -2.48452e-19 -0.299487 -2.28957e-20 0.111384)
(0.486435 -0.0552713 1.66165e-19 -0.293211 3.08014e-20 0.0764179)
(0.491556 -0.0202222 -1.09608e-19 -0.292624 3.67709e-20 0.0787006)
(0.496566 0.0126292 1.40129e-19 -0.294278 1.23143e-20 0.0800427)
(0.504643 0.0512784 8.09364e-20 -0.292372 -1.08131e-20 0.0840373)
(0.415783 -0.055826 3.57925e-20 -0.285185 -4.65819e-20 0.0513785)
(0.418737 -0.0199162 -1.12201e-19 -0.284848 1.76852e-20 0.0526938)
(0.422497 0.0136861 -1.87975e-19 -0.286146 -6.39113e-20 0.0536788)
(0.429322 0.0524959 -1.39243e-19 -0.284753 2.38772e-20 0.0569671)
(0.344433 -0.0566976 -1.95669e-19 -0.276582 1.81903e-20 0.0262893)
(0.344964 -0.0198836 2.65778e-19 -0.276376 2.08939e-20 0.0265832)
(0.34772 0.0149187 2.1652e-19 -0.277375 -9.30108e-20 0.0272861)
(0.354234 0.053994 4.41174e-20 -0.276444 1.08039e-20 0.0302652)
(0.272839 -0.0581424 1.40238e-19 -0.267047 5.11349e-20 0.00147483)
(0.269976 -0.0203671 -4.61059e-20 -0.266782 -1.77687e-20 0.000434515)
(0.27195 0.0165616 -3.53861e-19 -0.267534 -2.24154e-20 0.000923735)
(0.279734 0.0560257 -1.27082e-19 -0.2671 1.14079e-20 0.00421184)
(0.201518 -0.0605091 -7.51022e-20 -0.255939 -2.29821e-20 -0.0226022)
(0.192251 -0.0217004 1.59366e-19 -0.255852 9.28746e-20 -0.0262747)
(0.193636 0.0189374 1.14078e-19 -0.256398 1.94829e-20 -0.0259395)
(0.206244 0.0589347 -4.98901e-20 -0.256088 1.41229e-20 -0.0207712)
(0.13288 -0.0645186 2.72741e-20 -0.242002 -4.17846e-20 -0.044475)
(0.111667 -0.0243727 1.75558e-19 -0.24261 -2.92199e-20 -0.0532044)
(0.112615 0.0225172 -6.85462e-20 -0.242988 -1.40147e-20 -0.0529761)
(0.136043 0.0634339 2.82376e-19 -0.242165 -4.81235e-20 -0.0432751)
(0.0666222 -0.0691506 2.93367e-20 -0.224767 1.882e-20 -0.0640773)
(0.0213058 -0.0274841 -4.45469e-20 -0.231684 -1.03384e-20 -0.0849721)
(0.0219337 0.0263732 1.30286e-19 -0.231917 1.16924e-19 -0.0848142)
(0.068764 0.0684862 -2.10532e-19 -0.224832 -1.15864e-20 -0.0632466)
(0.0112705 -0.0704698 -1.47048e-19 -0.210146 -9.06577e-21 -0.0803638)
(-0.0642767 -0.0281864 -1.63832e-19 -0.231913 1.20795e-20 -0.119292)
(-0.0639346 0.0276041 1.48639e-19 -0.232066 2.73338e-20 -0.119216)
(0.0126763 0.0700944 -1.93796e-19 -0.210054 1.30211e-20 -0.0797647)
(-0.0708013 -0.0488183 3.55634e-20 -0.249008 -3.56594e-20 -0.128735)
(-0.166716 -0.0196501 -6.25774e-21 -0.31703 2.45455e-20 -0.194314)
(-0.166464 0.0193899 -8.6224e-20 -0.317242 -9.87664e-21 -0.194297)
(-0.0694469 0.0485533 8.62998e-20 -0.24873 -4.04731e-20 -0.128082)
)
;

boundaryField
{
    plateFix
    {
        type            calculated;
        value           nonuniform List<symmTensor> 4((2.14635 0.564348 -1.20472e-21 0.89221 7.86168e-20 1.21404) (2.26712 0.38564 -9.25754e-24 1.32377 4.75292e-23 1.43532) (2.67542 -0.0836816 3.62227e-23 1.49844 -5.40234e-23 1.66848) (3.80129 -0.724605 -1.3834e-21 1.47538 -1.03142e-19 2.10911));
    }
    plate
    {
        type            calculated;
        value           nonuniform List<symmTensor> 
168
(
(1.70579 0.000185472 -1.63882e-22 0.271065 -2.24417e-21 0.789332)
(2.99501 -0.000531163 -4.12805e-22 0.2847 4.39797e-21 1.31033)
(1.73164 0.000385652 1.60643e-21 0.273195 -1.1367e-21 0.800511)
(3.10861 -0.0006467 1.47227e-21 0.286791 -1.02299e-20 1.35658)
(1.78227 0.00150745 -3.18957e-21 0.275881 2.43766e-21 0.821821)
(3.25677 -0.00167288 -4.70321e-21 0.289469 5.13058e-21 1.41688)
(1.79843 0.00338042 6.23471e-22 0.278672 2.36493e-20 0.829389)
(3.32722 -0.00346443 3.86768e-21 0.292283 -1.99103e-20 1.44617)
(1.81253 0.00587361 6.08248e-22 0.281332 -3.15335e-21 0.836084)
(3.38612 -0.00590979 1.43737e-21 0.294991 1.73964e-20 1.4708)
(1.81956 0.00885921 9.22791e-22 0.283693 -1.50004e-20 0.839838)
(3.4258 -0.00887239 -1.17452e-21 0.297427 2.10887e-20 1.48763)
(1.82574 0.0122196 -2.20649e-21 0.285702 1.91333e-20 0.843108)
(3.46026 -0.0122332 1.45613e-21 0.299534 -1.96104e-20 1.50225)
(1.83072 0.0158709 2.89077e-21 0.28736 -3.06909e-20 0.845759)
(3.49053 -0.0159048 -2.41539e-21 0.301317 -3.02898e-21 1.51506)
(1.83529 0.0197734 -3.65559e-21 0.288678 1.14133e-20 0.848113)
(3.51943 -0.0198462 -1.13057e-21 0.302789 1.7044e-20 1.5272)
(1.83916 0.0239271 1.57329e-21 0.289638 3.64653e-21 0.850043)
(3.54728 -0.0240569 7.6314e-22 0.303936 -1.51926e-20 1.5388)
(1.84229 0.0283629 5.20422e-22 0.290166 -1.28783e-20 0.851503)
(3.57446 -0.0285689 -4.35683e-22 0.304685 1.6997e-21 1.54996)
(1.84465 0.0331281 2.08337e-21 0.290102 1.73354e-21 0.852424)
(3.60102 -0.0334314 -2.6446e-21 0.30488 -1.04718e-20 1.56066)
(1.84652 0.0382703 -4.32642e-21 0.289182 1.08914e-20 0.852803)
(3.62713 -0.0386955 9.1886e-23 0.30426 1.56273e-20 1.57085)
(1.84834 0.0438198 3.46597e-21 0.287016 7.01508e-22 0.852667)
(3.65305 -0.0443955 1.71706e-21 0.302434 -5.54131e-21 1.58049)
(1.85077 0.0497722 -2.48166e-21 0.283068 2.84336e-21 0.85206)
(3.67912 -0.0505315 3.24432e-21 0.298864 5.00177e-22 1.58949)
(1.85456 0.0560684 2.39658e-21 0.276639 1.34786e-22 0.85101)
(3.70574 -0.0570495 1.72104e-22 0.292843 3.53489e-22 1.59773)
(1.86057 0.0625735 -8.01366e-21 0.266851 3.91791e-21 0.849502)
(3.73327 -0.0638191 -3.5975e-21 0.283479 -6.07397e-22 1.60499)
(1.86962 0.0690533 1.38549e-20 0.252654 4.31407e-21 0.847447)
(3.76195 -0.0706094 -3.07492e-21 0.269695 7.934e-21 1.61095)
(1.88251 0.0751479 -2.45759e-21 0.232846 -7.97736e-21 0.844682)
(3.79182 -0.0770614 7.45226e-21 0.250255 -9.19185e-21 1.61512)
(1.89981 0.0803629 -3.93153e-21 0.206179 -1.38736e-21 0.840938)
(3.82261 -0.0826772 2.07581e-21 0.223866 -1.82356e-21 1.61688)
(1.92212 0.0840741 2.44538e-20 0.171484 3.60435e-21 0.835988)
(3.85388 -0.0868233 1.34802e-20 0.189294 1.85936e-22 1.61556)
(1.94896 0.0854388 6.20623e-21 0.127737 -1.4951e-21 0.829228)
(3.88408 -0.0886411 -7.19201e-22 0.145453 2.67814e-22 1.6101)
(1.98312 0.0849557 1.3099e-20 0.07454 -3.2185e-22 0.821619)
(3.91432 -0.0886425 2.14033e-20 0.0918756 -5.34676e-22 1.60076)
(2.02022 0.0822166 -3.12015e-20 0.00802753 1.31828e-21 0.809857)
(3.93871 -0.086386 -6.00684e-20 0.0245529 2.14562e-22 1.58358)
(2.05989 0.0761577 -1.43831e-20 -0.0599591 -1.55124e-21 0.798532)
(3.95711 -0.080751 6.04437e-20 -0.0445392 -2.8101e-22 1.56331)
(2.09796 0.0679705 1.55184e-20 -0.130315 1.05483e-21 0.785619)
(3.96607 -0.0729329 -1.07599e-20 -0.116304 1.33952e-22 1.53818)
(2.13483 0.0577316 -1.61669e-20 -0.198175 -8.90882e-22 0.773224)
(3.9667 -0.0629973 -7.03749e-20 -0.185732 1.53927e-22 1.51067)
(2.16829 0.0463271 -4.50683e-20 -0.262581 -6.90648e-21 0.760846)
(3.95763 -0.0518426 2.16309e-20 -0.251811 8.83053e-22 1.48061)
(2.19805 0.0341535 -3.96194e-21 -0.321093 5.04828e-21 0.74935)
(3.93949 -0.0398665 3.59219e-20 -0.311993 -5.6281e-21 1.44929)
(2.22311 0.0218195 3.57975e-20 -0.372931 -3.68616e-21 0.73864)
(3.91218 -0.027689 2.41146e-20 -0.365443 -1.67755e-21 1.41699)
(2.24322 0.00971102 1.97593e-20 -0.417303 -3.55923e-21 0.728937)
(3.87632 -0.0157024 4.84448e-21 -0.411307 7.91529e-21 1.38431)
(2.25804 -0.00180481 -2.56748e-20 -0.454177 1.1219e-20 0.720122)
(3.83242 -0.00428184 1.39332e-20 -0.449528 -1.33466e-21 1.35148)
(2.26759 -0.0124909 -1.18877e-19 -0.48376 -7.20329e-21 0.712115)
(3.78122 0.00633003 2.09523e-20 -0.480296 -1.6606e-22 1.31871)
(2.27195 -0.0221809 8.12185e-20 -0.506591 3.32184e-21 0.704732)
(3.72347 0.0159621 -2.37462e-20 -0.504149 4.03755e-21 1.28608)
(2.27134 -0.0307924 -5.4508e-20 -0.523344 -4.19483e-21 0.697795)
(3.65995 0.024529 -1.13377e-20 -0.52177 3.69008e-22 1.25365)
(2.26605 -0.0383017 2.04737e-20 -0.534783 4.27493e-21 0.691109)
(3.59144 0.0320053 3.97786e-21 -0.533938 -1.03722e-20 1.2214)
(2.2564 -0.0447344 4.25088e-20 -0.541685 -4.94292e-23 0.684499)
(3.51868 0.0384156 -1.43691e-20 -0.541445 -4.38575e-21 1.18931)
(2.24275 -0.0501495 -6.4183e-20 -0.544796 -3.88494e-21 0.677807)
(3.44236 0.0438186 6.01653e-20 -0.545057 3.99824e-21 1.15736)
(2.22546 -0.0546281 -1.13594e-20 -0.544799 -2.23077e-22 0.670901)
(3.36312 0.0482957 -2.44328e-20 -0.545474 -1.9033e-22 1.12552)
(2.20487 -0.0582639 1.01048e-19 -0.542306 -9.19098e-23 0.663672)
(3.28153 0.0519407 -5.95649e-20 -0.543322 6.23403e-21 1.09377)
(2.18127 -0.0611551 1.02117e-21 -0.537845 2.52001e-22 0.656031)
(3.19808 0.0548523 -4.9047e-20 -0.539143 -5.30055e-23 1.06209)
(2.15496 -0.0633995 -1.02711e-19 -0.531866 7.88451e-23 0.647912)
(3.11323 0.0571284 8.57986e-20 -0.533399 -5.4027e-21 1.03047)
(2.12619 -0.0650902 9.88698e-20 -0.524744 4.15989e-21 0.639265)
(3.02736 0.0588623 -3.24937e-20 -0.526474 4.81754e-21 0.998918)
(2.09516 -0.0663139 2.51299e-19 -0.516789 -4.48714e-21 0.63005)
(2.94078 0.0601405 -1.14094e-19 -0.518683 -4.82221e-21 0.967428)
(2.06206 -0.0671489 -5.69265e-20 -0.508252 -8.19342e-22 0.62024)
(2.85377 0.0610412 3.60537e-20 -0.510286 2.82003e-22 0.936009)
(2.02704 -0.0676654 9.80001e-21 -0.499337 1.57538e-21 0.609815)
(2.76657 0.0616341 7.64042e-20 -0.501489 1.39099e-22 0.904672)
(1.99024 -0.0679247 -1.00252e-19 -0.490205 -5.5914e-21 0.598761)
(2.67936 0.0619801 -1.22866e-20 -0.492456 -5.15538e-21 0.873426)
(1.95175 -0.0679803 -5.54946e-20 -0.480984 1.58063e-21 0.587069)
(2.5923 0.0621322 -3.94518e-20 -0.483319 1.6738e-21 0.842282)
(1.91165 -0.0678781 -9.72975e-20 -0.471773 4.88578e-21 0.574732)
(2.50552 0.0621355 3.24424e-20 -0.474178 7.22042e-21 0.81125)
(1.87002 -0.0676571 6.86545e-20 -0.462648 -7.28173e-22 0.561746)
(2.41912 0.0620285 -1.78818e-21 -0.465111 -8.66496e-21 0.78034)
(1.82691 -0.0673504 -1.24441e-19 -0.453667 3.70288e-22 0.54811)
(2.33318 0.0618435 1.43085e-19 -0.456177 4.51942e-21 0.749559)
(1.78237 -0.0669855 -2.14066e-20 -0.444873 -7.00473e-21 0.533825)
(2.24775 0.0616073 -6.11083e-20 -0.447418 -5.90214e-22 0.718915)
(1.73642 -0.0665853 1.48373e-19 -0.436294 1.5117e-21 0.518892)
(2.16289 0.0613421 1.0088e-19 -0.438865 -3.88143e-21 0.688412)
(1.68909 -0.0661684 -1.01596e-19 -0.427949 -3.13619e-21 0.503317)
(2.07862 0.0610661 -1.09486e-19 -0.430536 6.20234e-22 0.658056)
(1.64042 -0.0657503 2.4675e-20 -0.419848 -2.24348e-21 0.487103)
(1.99495 0.0607939 4.17998e-20 -0.422442 -3.60091e-21 0.627849)
(1.59042 -0.0653432 -1.07908e-19 -0.411993 3.40851e-21 0.47026)
(1.91191 0.0605375 -1.16708e-19 -0.414585 -2.09397e-21 0.597793)
(1.53911 -0.064957 3.77207e-21 -0.404382 -6.18597e-21 0.452796)
(1.82949 0.0603061 8.77917e-20 -0.406963 -7.08449e-22 0.567892)
(1.48651 -0.0645996 -6.10534e-20 -0.397004 3.69664e-21 0.434723)
(1.74768 0.0601072 -1.73977e-19 -0.399567 4.55565e-22 0.538144)
(1.43264 -0.0642771 -1.22438e-19 -0.389847 7.63947e-22 0.416052)
(1.66647 0.0599466 -7.24048e-20 -0.392383 -4.37996e-22 0.508552)
(1.37752 -0.0639944 -6.73389e-20 -0.382894 -2.50503e-21 0.396799)
(1.58585 0.0598287 -9.84584e-20 -0.385396 -1.4642e-21 0.479116)
(1.32116 -0.0637553 -3.18765e-20 -0.376125 4.41723e-21 0.376978)