/*--------------------------------*- C++ -*----------------------------------*\
| =========                 |                                                 |
| \\      /  F ield         | OpenFOAM Extend Project: Open source CFD        |
|  \\    /   O peration     | Version:  1.6-ext                               |
|   \\  /    A nd           | Web:      www.extend-project.de                 |
|    \\/     M anipulation  |                                                 |
\*---------------------------------------------------------------------------*/
FoamFile
{
    version     2.0;
    format      ascii;
    class       volVectorField;
    location    "0.25";
    object      Usolid;
}
// * * * * * * * * * * * * * * * * * * * * * * * * * * * * * * * * * * * * * //

dimensions      [0 1 0 0 0 0 0];

internalField   nonuniform List<vector> 
328
(
(4.66633e-08 1.02625e-07 0)
(4.15486e-08 3.87228e-08 0)
(5.03224e-08 -1.08453e-08 0)
(8.47265e-08 -1.33561e-07 0)
(1.40877e-07 2.64705e-07 0)
(1.35359e-07 1.03387e-07 0)
(1.65877e-07 -4.1303e-08 0)
(2.59958e-07 -3.41218e-07 0)
(2.47915e-07 3.82455e-07 0)
(2.56784e-07 1.54358e-07 0)
(3.18517e-07 -8.01833e-08 0)
(4.63348e-07 -4.98246e-07 0)
(3.63424e-07 4.5867e-07 0)
(3.98031e-07 1.87418e-07 0)
(4.95874e-07 -1.24535e-07 0)
(6.86058e-07 -6.16865e-07 0)
(4.88883e-07 4.98477e-07 0)
(5.60973e-07 2.00362e-07 0)
(7.00219e-07 -1.73988e-07 0)
(9.3073e-07 -7.11741e-07 0)
(6.23903e-07 5.0527e-07 0)
(7.43019e-07 1.90994e-07 0)
(9.27748e-07 -2.3002e-07 0)
(1.19646e-06 -7.94816e-07 0)
(7.69276e-07 4.81183e-07 0)
(9.43847e-07 1.57577e-07 0)
(1.17821e-06 -2.95801e-07 0)
(1.48472e-06 -8.76584e-07 0)
(9.25583e-07 4.26725e-07 0)
(1.16246e-06 9.80367e-08 0)
(1.45049e-06 -3.75674e-07 0)
(1.79672e-06 -9.65999e-07 0)
(1.09366e-06 3.41025e-07 0)
(1.39864e-06 9.82947e-09 0)
(1.74466e-06 -4.74987e-07 0)
(2.13425e-06 -1.07131e-06 0)
(1.27432e-06 2.21772e-07 0)
(1.65237e-06 -1.10445e-07 0)
(2.06102e-06 -5.99887e-07 0)
(2.49924e-06 -1.20037e-06 0)
(1.46846e-06 6.52349e-08 0)
(1.92416e-06 -2.67238e-07 0)
(2.4005e-06 -7.57296e-07 0)
(2.89384e-06 -1.36115e-06 0)
(1.67701e-06 -1.33815e-07 0)
(2.21488e-06 -4.66286e-07 0)
(2.76449e-06 -9.54952e-07 0)
(3.32036e-06 -1.56201e-06 0)
(1.90101e-06 -3.82173e-07 0)
(2.52587e-06 -7.14778e-07 0)
(3.15484e-06 -1.20156e-06 0)
(3.78133e-06 -1.81204e-06 0)
(2.14165e-06 -6.88325e-07 0)
(2.85883e-06 -1.02154e-06 0)
(3.57384e-06 -1.50701e-06 0)
(4.27955e-06 -2.12146e-06 0)
(2.40034e-06 -1.06258e-06 0)
(3.2159e-06 -1.3972e-06 0)
(4.02422e-06 -1.88263e-06 0)
(4.81813e-06 -2.50185e-06 0)
(2.67882e-06 -1.51726e-06 0)
(3.5996e-06 -1.85444e-06 0)
(4.50913e-06 -2.34154e-06 0)
(5.40058e-06 -2.96659e-06 0)
(2.97926e-06 -2.06693e-06 0)
(4.01291e-06 -2.40817e-06 0)
(5.03218e-06 -2.89897e-06 0)
(6.03088e-06 -3.53122e-06 0)
(3.30435e-06 -2.72866e-06 0)
(4.45932e-06 -3.0759e-06 0)
(5.5975e-06 -3.57266e-06 0)
(6.71359e-06 -4.21377e-06 0)
(3.65746e-06 -3.52241e-06 0)
(4.94291e-06 -3.87803e-06 0)
(6.2098e-06 -4.38326e-06 0)
(7.45393e-06 -5.03522e-06 0)
(4.04278e-06 -4.47145e-06 0)
(5.46849e-06 -4.83826e-06 0)
(6.87446e-06 -5.35473e-06 0)
(8.25782e-06 -6.01986e-06 0)
(4.46536e-06 -5.60281e-06 0)
(6.04162e-06 -5.98405e-06 0)
(7.59762e-06 -6.51479e-06 0)
(9.13192e-06 -7.19564e-06 0)
(4.93139e-06 -6.94788e-06 0)
(6.66886e-06 -7.34704e-06 0)
(8.38626e-06 -7.8953e-06 0)
(1.00837e-05 -8.59455e-06 0)
(5.46731e-06 -8.60381e-06 0)
(7.3837e-06 -9.02528e-06 0)
(9.28082e-06 -9.59506e-06 0)
(1.11605e-05 -1.03161e-05 0)
(6.06439e-06 -1.05716e-05 0)
(8.17099e-06 -1.10195e-05 0)
(1.02597e-05 -1.16143e-05 0)
(1.23341e-05 -1.23598e-05 0)
(6.68677e-06 -1.27353e-05 0)
(8.98137e-06 -1.32106e-05 0)
(1.126e-05 -1.38309e-05 0)
(1.35279e-05 -1.46007e-05 0)
(7.33469e-06 -1.50935e-05 0)
(9.81457e-06 -1.55965e-05 0)
(1.22806e-05 -1.62422e-05 0)
(1.47398e-05 -1.70354e-05 0)
(8.0079e-06 -1.76446e-05 0)
(1.06697e-05 -1.81743e-05 0)
(1.332e-05 -1.8844e-05 0)
(1.59672e-05 -1.96586e-05 0)
(8.7049e-06 -2.03858e-05 0)
(1.15447e-05 -2.09405e-05 0)
(1.43755e-05 -2.1632e-05 0)
(1.72068e-05 -2.24652e-05 0)
(9.42375e-06 -2.33132e-05 0)
(1.24371e-05 -2.38904e-05 0)
(1.54439e-05 -2.46009e-05 0)
(1.84548e-05 -2.54495e-05 0)
(1.01618e-05 -2.64223e-05 0)
(1.3344e-05 -2.7019e-05 0)
(1.65219e-05 -2.77453e-05 0)
(1.9707e-05 -2.86055e-05 0)
(1.09162e-05 -2.97076e-05 0)
(1.4262e-05 -3.03206e-05 0)
(1.76057e-05 -3.10592e-05 0)
(2.09595e-05 -3.19272e-05 0)
(1.16838e-05 -3.31632e-05 0)
(1.51877e-05 -3.37892e-05 0)
(1.86916e-05 -3.45365e-05 0)
(2.22081e-05 -3.54086e-05 0)
(1.24616e-05 -3.67826e-05 0)
(1.61178e-05 -3.74184e-05 0)
(1.9776e-05 -3.8171e-05 0)
(2.3449e-05 -3.90436e-05 0)
(1.32465e-05 -4.05592e-05 0)
(1.70492e-05 -4.12016e-05 0)
(2.08556e-05 -4.19563e-05 0)
(2.46786e-05 -4.2826e-05 0)
(1.40357e-05 -4.44858e-05 0)
(1.79789e-05 -4.51321e-05 0)
(2.19272e-05 -4.5886e-05 0)
(2.58939e-05 -4.67498e-05 0)
(1.48267e-05 -4.85555e-05 0)
(1.89042e-05 -4.92031e-05 0)
(2.29882e-05 -4.99536e-05 0)
(2.70919e-05 -5.08089e-05 0)
(1.5617e-05 -5.27613e-05 0)
(1.98228e-05 -5.34079e-05 0)
(2.40362e-05 -5.41527e-05 0)
(2.82704e-05 -5.49973e-05 0)
(1.64046e-05 -5.70961e-05 0)
(2.07325e-05 -5.77399e-05 0)
(2.50691e-05 -5.8477e-05 0)
(2.94273e-05 -5.9309e-05 0)
(1.71876e-05 -6.15531e-05 0)
(2.16316e-05 -6.21923e-05 0)
(2.60851e-05 -6.29202e-05 0)
(3.05609e-05 -6.37379e-05 0)
(1.79645e-05 -6.61255e-05 0)
(2.25185e-05 -6.67587e-05 0)
(2.70828e-05 -6.7476e-05 0)
(3.16698e-05 -6.82782e-05 0)
(1.87339e-05 -7.08067e-05 0)
(2.3392e-05 -7.14327e-05 0)
(2.8061e-05 -7.21383e-05 0)
(3.27531e-05 -7.29239e-05 0)
(1.94945e-05 -7.55903e-05 0)
(2.42509e-05 -7.62082e-05 0)
(2.90187e-05 -7.69011e-05 0)
(3.38098e-05 -7.76694e-05 0)
(2.02453e-05 -8.04702e-05 0)
(2.50944e-05 -8.1079e-05 0)
(2.99552e-05 -8.17585e-05 0)
(3.48393e-05 -8.25089e-05 0)
(2.09854e-05 -8.54402e-05 0)
(2.59216e-05 -8.60393e-05 0)
(3.08698e-05 -8.67049e-05 0)
(3.58413e-05 -8.74368e-05 0)
(2.17141e-05 -9.04946e-05 0)
(2.6732e-05 -9.10834e-05 0)
(3.1762e-05 -9.17345e-05 0)
(3.68153e-05 -9.24478e-05 0)
(2.24307e-05 -9.56277e-05 0)
(2.75249e-05 -9.62058e-05 0)
(3.26316e-05 -9.68421e-05 0)
(3.77612e-05 -9.75364e-05 0)
(2.31344e-05 -0.000100834 0)
(2.83e-05 -0.000101401 0)
(3.34781e-05 -0.000102022 0)
(3.86789e-05 -0.000102698 0)
(2.38249e-05 -0.000106109 0)
(2.90569e-05 -0.000106664 0)
(3.43015e-05 -0.00010727 0)
(3.95684e-05 -0.000107926 0)
(2.45015e-05 -0.000111447 0)
(2.97952e-05 -0.00011199 0)
(3.51015e-05 -0.000112581 0)
(4.04298e-05 -0.000113218 0)
(2.51638e-05 -0.000116843 0)
(3.05147e-05 -0.000117375 0)
(3.58781e-05 -0.00011795 0)
(4.12632e-05 -0.000118568 0)
(2.58115e-05 -0.000122293 0)
(3.12151e-05 -0.000122813 0)
(3.66313e-05 -0.000123372 0)
(4.20688e-05 -0.000123971 0)
(2.64441e-05 -0.000127793 0)
(3.18962e-05 -0.0001283 0)
(3.7361e-05 -0.000128844 0)
(4.28467e-05 -0.000129424 0)
(2.70612e-05 -0.000133338 0)
(3.25578e-05 -0.000133833 0)
(3.80672e-05 -0.000134361 0)
(4.35971e-05 -0.000134922 0)
(2.76624e-05 -0.000138925 0)
(3.31998e-05 -0.000139406 0)
(3.875e-05 -0.000139919 0)
(4.43203e-05 -0.000140461 0)
(2.82474e-05 -0.000144549 0)
(3.3822e-05 -0.000145018 0)
(3.94094e-05 -0.000145514 0)
(4.50165e-05 -0.000146039 0)
(2.88159e-05 -0.000150208 0)
(3.44243e-05 -0.000150663 0)
(4.00454e-05 -0.000151144 0)
(4.56859e-05 -0.00015165 0)
(2.93674e-05 -0.000155898 0)
(3.50064e-05 -0.00015634 0)
(4.06581e-05 -0.000156805 0)
(4.63288e-05 -0.000157293 0)
(2.99017e-05 -0.000161615 0)
(3.55682e-05 -0.000162044 0)
(4.12475e-05 -0.000162493 0)
(4.69455e-05 -0.000162963 0)
(3.04185e-05 -0.000167358 0)
(3.61096e-05 -0.000167773 0)
(4.18136e-05 -0.000168206 0)
(4.7536e-05 -0.000168658 0)
(3.09173e-05 -0.000173123 0)
(3.66304e-05 -0.000173524 0)
(4.23566e-05 -0.000173942 0)
(4.81008e-05 -0.000174376 0)
(3.13978e-05 -0.000178907 0)
(3.71306e-05 -0.000179294 0)
(4.28764e-05 -0.000179696 0)
(4.86399e-05 -0.000180113 0)
(3.18598e-05 -0.000184709 0)
(3.76098e-05 -0.000185082 0)
(4.3373e-05 -0.000185469 0)
(4.91537e-05 -0.000185867 0)
(3.23029e-05 -0.000190526 0)
(3.8068e-05 -0.000190885 0)
(4.38465e-05 -0.000191256 0)
(4.96422e-05 -0.000191637 0)
(3.27267e-05 -0.000196357 0)
(3.85051e-05 -0.000196701 0)
(4.42969e-05 -0.000197056 0)
(5.01057e-05 -0.00019742 0)
(3.3131e-05 -0.000202199 0)
(3.89208e-05 -0.000202529 0)
(4.47241e-05 -0.000202867 0)
(5.05443e-05 -0.000203214 0)
(3.35154e-05 -0.000208051 0)
(3.93149e-05 -0.000208366 0)
(4.51282e-05 -0.000208688 0)
(5.09582e-05 -0.000209018 0)
(3.38795e-05 -0.000213911 0)
(3.96874e-05 -0.000214211 0)
(4.55092e-05 -0.000214518 0)
(5.13476e-05 -0.00021483 0)
(3.42232e-05 -0.000219778 0)
(4.00381e-05 -0.000220063 0)
(4.5867e-05 -0.000220353 0)
(5.17124e-05 -0.000220649 0)
(3.4546e-05 -0.000225651 0)
(4.03667e-05 -0.000225921 0)
(4.62017e-05 -0.000226195 0)
(5.2053e-05 -0.000226473 0)
(3.48476e-05 -0.000231528 0)
(4.06731e-05 -0.000231783 0)
(4.6513e-05 -0.000232041 0)
(5.23692e-05 -0.000232302 0)
(3.51278e-05 -0.00023741 0)
(4.0957e-05 -0.000237649 0)
(4.6801e-05 -0.00023789 0)
(5.26613e-05 -0.000238135 0)
(3.53861e-05 -0.000243295 0)
(4.12184e-05 -0.000243517 0)
(4.70656e-05 -0.000243742 0)
(5.29292e-05 -0.00024397 0)
(3.56224e-05 -0.000249182 0)
(4.14569e-05 -0.000249388 0)
(4.73067e-05 -0.000249596 0)
(5.31729e-05 -0.000249807 0)
(3.58362e-05 -0.000255071 0)
(4.16723e-05 -0.000255261 0)
(4.75241e-05 -0.000255452 0)
(5.33925e-05 -0.000255645 0)
(3.60272e-05 -0.000260961 0)
(4.18644e-05 -0.000261134 0)
(4.77177e-05 -0.000261308 0)
(5.35879e-05 -0.000261484 0)
(3.61951e-05 -0.000266853 0)
(4.20328e-05 -0.000267009 0)
(4.78872e-05 -0.000267165 0)
(5.3759e-05 -0.000267323 0)
(3.63396e-05 -0.000272745 0)
(4.21769e-05 -0.000272884 0)
(4.80322e-05 -0.000273022 0)
(5.39058e-05 -0.000273162 0)
(3.64605e-05 -0.000278639 0)
(4.22962e-05 -0.00027876 0)
(4.81521e-05 -0.000278878 0)
(5.40283e-05 -0.000279 0)
(3.65575e-05 -0.000284535 0)
(4.23891e-05 -0.000284637 0)
(4.82453e-05 -0.000284733 0)
(5.41264e-05 -0.000284836 0)
(3.66314e-05 -0.000290433 0)
(4.24544e-05 -0.000290515 0)
(4.83109e-05 -0.000290588 0)
(5.42009e-05 -0.000290671 0)
(3.66815e-05 -0.000296324 0)
(4.24883e-05 -0.00029639 0)
(4.83449e-05 -0.000296445 0)
(5.42514e-05 -0.000296512 0)
(3.67162e-05 -0.000302182 0)
(4.25021e-05 -0.000302254 0)
(4.83587e-05 -0.000302313 0)
(5.42862e-05 -0.000302385 0)
)
;

boundaryField
{
    plateFix
    {
        type            fixedDisplacement;
        value           uniform (0 0 0);
    }
    plate
    {
        type            solidTraction;
        nonLinear       updatedLagrangian;
        traction        uniform (0 0 0);
        pressure        uniform 0;
        value           nonuniform List<vector> 
168
(
(4.97884e-07 2.34987e-07 -8.23213e-26)
(6.68028e-07 -3.93815e-07 -1.07479e-25)
(4.68093e-07 3.99262e-07 1.60687e-25)
(6.86242e-07 -6.12484e-07 -4.35433e-26)
(4.59169e-07 5.21739e-07 2.64669e-26)
(7.63266e-07 -7.84028e-07 1.29191e-25)
(4.80367e-07 5.9919e-07 -3.06503e-26)
(9.01393e-07 -9.09316e-07 3.10493e-26)
(5.30931e-07 6.40059e-07 -6.6046e-26)
(1.09628e-06 -1.00973e-06 -8.52823e-26)
(6.05116e-07 6.47246e-07 7.05667e-26)
(1.33732e-06 -1.09644e-06 3.37706e-26)
(6.9949e-07 6.2352e-07 -1.15193e-25)
(1.61906e-06 -1.18137e-06 4.93067e-27)
(8.11142e-07 5.69353e-07 4.59848e-26)
(1.93757e-06 -1.27357e-06 -5.71298e-26)
(9.3828e-07 4.83955e-07 -6.71025e-26)
(2.29122e-06 -1.38156e-06 1.00869e-25)
(1.07965e-06 3.64984e-07 9.21291e-26)
(2.6796e-06 -1.51325e-06 -8.26246e-26)
(1.23452e-06 2.08717e-07 -5.7867e-26)
(3.10335e-06 -1.67664e-06 1.27445e-26)
(1.40256e-06 9.94668e-09 7.72427e-26)
(3.56383e-06 -1.88012e-06 1.95638e-26)
(1.58381e-06 -2.38058e-07 -6.43037e-26)
(4.06302e-06 -2.13285e-06 2.30804e-26)
(1.77868e-06 -5.43678e-07 4.087e-27)
(4.60348e-06 -2.44512e-06 -4.18476e-26)
(1.98799e-06 -9.17078e-07 7.95779e-27)
(5.1883e-06 -2.82863e-06 1.29657e-26)
(2.21303e-06 -1.3704e-06 6.16364e-27)
(5.82117e-06 -3.29692e-06 -1.89367e-26)
(2.45562e-06 -1.91798e-06 2.848e-26)
(6.50636e-06 -3.86567e-06 2.16905e-26)
(2.71821e-06 -2.57666e-06 -1.90381e-26)
(7.24884e-06 -4.55312e-06 -5.5466e-26)
(3.00399e-06 -3.36615e-06 -8.39132e-27)
(8.05427e-06 -5.38044e-06 4.28972e-26)
(3.31704e-06 -4.30945e-06 1.33008e-26)
(8.92906e-06 -6.37207e-06 -1.91467e-27)
(3.66237e-06 -5.43337e-06 -1.37764e-26)
(9.88036e-06 -7.55613e-06 2.30647e-26)
(4.04622e-06 -6.76918e-06 1.33344e-26)
(1.09161e-05 -8.96459e-06 4.62743e-27)
(4.49133e-06 -8.4137e-06 -5.82656e-27)
(1.20869e-05 -1.06971e-05 -1.70735e-26)
(4.99213e-06 -1.03678e-05 1.92157e-26)
(1.33611e-05 -1.27533e-05 3.50327e-26)
(5.52006e-06 -1.25173e-05 -3.06071e-26)
(1.46554e-05 -1.50065e-05 -5.09758e-26)
(6.07532e-06 -1.48611e-05 2.79082e-26)
(1.59666e-05 -1.74527e-05 2.20365e-26)
(6.65803e-06 -1.73984e-05 2.91631e-26)
(1.72919e-05 -2.00864e-05 -4.30754e-26)
(7.26678e-06 -2.01265e-05 -2.99452e-26)
(1.86272e-05 -2.2902e-05 6.33163e-26)
(7.89985e-06 -2.30422e-05 -4.28548e-27)
(1.99684e-05 -2.58934e-05 -4.45326e-26)
(8.55471e-06 -2.61409e-05 1.79025e-27)
(2.13111e-05 -2.90547e-05 -3.73918e-27)
(9.22863e-06 -2.94175e-05 4.90496e-27)
(2.26508e-05 -3.23797e-05 3.69634e-26)
(9.91858e-06 -3.28661e-05 -1.0904e-27)
(2.39833e-05 -3.58624e-05 5.15179e-27)
(1.06216e-05 -3.64801e-05 -1.17334e-26)
(2.53047e-05 -3.94968e-05 -4.2862e-27)
(1.13346e-05 -4.02527e-05 1.54018e-26)
(2.66113e-05 -4.3277e-05 -2.67553e-26)
(1.20549e-05 -4.41769e-05 -1.06794e-26)
(2.78999e-05 -4.71971e-05 2.8824e-26)
(1.27799e-05 -4.82454e-05 6.17632e-27)
(2.91677e-05 -5.12512e-05 -2.19118e-26)
(1.35073e-05 -5.24511e-05 7.31293e-27)
(3.04125e-05 -5.54334e-05 4.4742e-27)
(1.42349e-05 -5.67868e-05 -1.50333e-26)
(3.16321e-05 -5.9738e-05 1.02381e-26)
(1.49608e-05 -6.12455e-05 1.03894e-26)
(3.2825e-05 -6.41591e-05 -1.5969e-26)
(1.56836e-05 -6.58203e-05 -8.69608e-27)
(3.39899e-05 -6.86908e-05 1.12126e-26)
(1.64016e-05 -7.05045e-05 3.81457e-27)
(3.51258e-05 -7.33276e-05 -6.17262e-27)
(1.71138e-05 -7.52916e-05 1.43049e-26)
(3.6232e-05 -7.80637e-05 -6.73676e-27)
(1.78189e-05 -8.01754e-05 -1.25355e-26)
(3.73079e-05 -8.28935e-05 2.6624e-26)
(1.85161e-05 -8.51497e-05 6.27907e-30)
(3.83533e-05 -8.78116e-05 -4.82319e-27)
(1.92045e-05 -9.02087e-05 -3.41025e-27)
(3.93679e-05 -9.28126e-05 -6.08736e-27)
(1.98833e-05 -9.53467e-05 3.04457e-27)
(4.03516e-05 -9.78912e-05 7.16017e-27)
(2.05519e-05 -0.000100558 -2.87655e-26)
(4.13044e-05 -0.000103042 3.87252e-27)
(2.12095e-05 -0.000105838 1.3424e-26)
(4.22266e-05 -0.000108261 -3.47034e-27)
(2.18558e-05 -0.000111181 1.05175e-26)
(4.31181e-05 -0.000113543 -2.22953e-27)
(2.249e-05 -0.000116583 -1.87095e-26)
(4.39794e-05 -0.000118882 -2.06559e-26)
(2.31117e-05 -0.000122039 4.58751e-27)
(4.48105e-05 -0.000124276 -4.9933e-27)
(2.37204e-05 -0.000127545 7.23524e-27)
(4.56119e-05 -0.000129718 9.12928e-27)
(2.43156e-05 -0.000133096 -1.88985e-26)
(4.63839e-05 -0.000135207 7.89529e-27)
(2.48968e-05 -0.000138689 -3.84386e-27)
(4.71267e-05 -0.000140737 -3.6027e-26)
(2.54637e-05 -0.000144319 -5.65205e-27)
(4.78407e-05 -0.000146304 3.42909e-26)
(2.60157e-05 -0.000149984 -1.57383e-26)
(4.85262e-05 -0.000151906 -4.36941e-27)
(2.65523e-05 -0.00015568 1.25584e-26)
(4.91837e-05 -0.000157539 -7.98018e-27)
(2.70733e-05 -0.000161404 4.79713e-27)
(4.98134e-05 -0.0001632 1.18724e-26)
(2.75781e-05 -0.000167153 -1.39764e-26)
(5.04156e-05 -0.000168886 1.10545e-26)
(2.80663e-05 -0.000172924 3.66411e-26)
(5.09908e-05 -0.000174595 -2.32589e-26)
(2.85375e-05 -0.000178716 -1.2501e-26)
(5.15391e-05 -0.000180323 -8.78743e-27)
(2.89912e-05 -0.000184524 -2.45049e-26)
(5.20609e-05 -0.000186068 5.5964e-27)
(2.94271e-05 -0.000190349 5.78115e-27)
(5.25565e-05 -0.000191829 5.1953e-27)
(2.98447e-05 -0.000196186 -1.3501e-26)
(5.30261e-05 -0.000197603 8.69634e-27)
(3.02437e-05 -0.000202035 5.48606e-27)
(5.347e-05 -0.000203389 -1.10088e-26)
(3.06236e-05 -0.000207894 3.27496e-26)
(5.38885e-05 -0.000209184 2.6695e-28)
(3.0984e-05 -0.000213761 -2.70626e-26)
(5.42816e-05 -0.000214987 2.65122e-26)
(3.13245e-05 -0.000219636 -1.24087e-27)
(5.46497e-05 -0.000220797 2.58566e-27)
(3.16448e-05 -0.000225517 -1.80482e-26)
(5.49929e-05 -0.000226613 -1.1553e-26)
(3.19444e-05 -0.000231402 1.34854e-26)
(5.53114e-05 -0.000232433 2.62645e-26)
(3.22231e-05 -0.000237291 -7.75723e-27)
(5.56052e-05 -0.000238257 1.77117e-26)
(3.24803e-05 -0.000243184 -2.78843e-26)
(5.58746e-05 -0.000244083 2.91761e-27)
(3.27158e-05 -0.000249079 -2.85213e-26)
(5.61195e-05 -0.000249912 2.19693e-26)
(3.29291e-05 -0.000254976 2.67116e-26)
(5.634e-05 -0.000255741 9.45339e-27)
(3.312e-05 -0.000260874 -3.50744e-26)
(5.65362e-05 -0.000261572 -2.26328e-26)
(3.32879e-05 -0.000266774 8.03722e-28)
(5.67079e-05 -0.000267402 -6.98797e-27)
(3.34325e-05 -0.000272676 5.80903e-26)
(5.68552e-05 -0.000273232 -1.0407e-26)
(3.35535e-05 -0.000278579 -2.32925e-26)
(5.6978e-05 -0.000279061 -1.63833e-26)
(3.3651e-05 -0.000284483 -3.66467e-26)
(5.70765e-05 -0.000284889 4.52855e-26)
(3.37276e-05 -0.000290389 1.6565e-26)
(5.71538e-05 -0.000290714 9.62376e-27)
(3.37904e-05 -0.000296288 -9.73716e-27)
(5.72172e-05 -0.000296548 -1.27157e-26)
(3.38641e-05 -0.000302154 -3.48657e-26)
(3.67244e-05 -0.000305056 -3.55294e-26)
(4.25054e-05 -0.000305172 6.0942e-27)
(4.83621e-05 -0.000305261 8.6521e-26)
(5.42945e-05 -0.000305377 -8.63083e-26)
(5.72911e-05 -0.000302414 4.08394e-26)
)
;
    }
    frontAndBackPlanes
    {
        type            empty;
    }
}


// ************************************************************************* //
