/*--------------------------------*- C++ -*----------------------------------*\
| =========                 |                                                 |
| \\      /  F ield         | OpenFOAM Extend Project: Open source CFD        |
|  \\    /   O peration     | Version:  1.6-ext                               |
|   \\  /    A nd           | Web:      www.extend-project.de                 |
|    \\/     M anipulation  |                                                 |
\*---------------------------------------------------------------------------*/
FoamFile
{
    version     2.0;
    format      ascii;
    class       volScalarField::DimensionedInternalField;
    location    "0.25";
    object      V0;
}
// * * * * * * * * * * * * * * * * * * * * * * * * * * * * * * * * * * * * * //

dimensions      [0 3 0 0 0 0 0];

value           nonuniform List<scalar> 
328
(
2.53346e-07
2.53359e-07
2.53364e-07
2.53352e-07
2.71706e-07
2.71727e-07
2.71731e-07
2.71711e-07
2.91408e-07
2.91427e-07
2.9143e-07
2.91416e-07
3.1254e-07
3.12556e-07
3.12558e-07
3.12549e-07
3.35203e-07
3.35216e-07
3.35219e-07
3.35215e-07
3.59508e-07
3.5952e-07
3.59523e-07
3.59522e-07
3.85576e-07
3.85586e-07
3.85589e-07
3.85591e-07
4.13533e-07
4.13542e-07
4.13545e-07
4.1355e-07
4.43517e-07
4.43526e-07
4.43529e-07
4.43535e-07
4.75674e-07
4.75683e-07
4.75686e-07
4.75694e-07
5.10163e-07
5.10172e-07
5.10176e-07
5.10184e-07
5.47152e-07
5.47162e-07
5.47166e-07
5.47175e-07
5.86823e-07
5.86833e-07
5.86838e-07
5.86849e-07
6.2937e-07
6.29381e-07
6.29386e-07
6.29398e-07
6.75002e-07
6.75015e-07
6.7502e-07
6.75032e-07
7.23943e-07
7.23956e-07
7.23962e-07
7.23976e-07
7.76432e-07
7.76446e-07
7.76453e-07
7.76467e-07
8.32726e-07
8.32742e-07
8.32749e-07
8.32765e-07
8.93103e-07
8.9312e-07
8.93127e-07
8.93145e-07
9.57856e-07
9.57875e-07
9.57883e-07
9.57902e-07
1.02731e-06
1.02733e-06
1.02733e-06
1.02735e-06
1.10179e-06
1.10181e-06
1.10182e-06
1.10184e-06
1.26874e-06
1.26876e-06
1.26877e-06
1.2688e-06
1.26874e-06
1.26876e-06
1.26877e-06
1.2688e-06
1.26874e-06
1.26876e-06
1.26877e-06
1.2688e-06
1.26874e-06
1.26876e-06
1.26877e-06
1.26879e-06
1.26874e-06
1.26876e-06
1.26877e-06
1.26879e-06
1.26873e-06
1.26876e-06
1.26877e-06
1.26879e-06
1.26873e-06
1.26876e-06
1.26877e-06
1.26879e-06
1.26873e-06
1.26875e-06
1.26876e-06
1.26879e-06
1.26873e-06
1.26875e-06
1.26876e-06
1.26878e-06
1.26873e-06
1.26875e-06
1.26876e-06
1.26878e-06
1.26873e-06
1.26875e-06
1.26876e-06
1.26878e-06
1.26873e-06
1.26875e-06
1.26876e-06
1.26878e-06
1.26873e-06
1.26875e-06
1.26876e-06
1.26877e-06
1.26873e-06
1.26875e-06
1.26876e-06
1.26877e-06
1.26873e-06
1.26875e-06
1.26875e-06
1.26877e-06
1.26873e-06
1.26875e-06
1.26875e-06
1.26877e-06
1.26873e-06
1.26874e-06
1.26875e-06
1.26877e-06
1.26873e-06
1.26874e-06
1.26875e-06
1.26876e-06
1.26873e-06
1.26874e-06
1.26875e-06
1.26876e-06
1.26873e-06
1.26874e-06
1.26875e-06
1.26876e-06
1.26873e-06
1.26874e-06
1.26874e-06
1.26876e-06
1.26873e-06
1.26874e-06
1.26874e-06
1.26875e-06
1.26873e-06
1.26874e-06
1.26874e-06
1.26875e-06
1.26873e-06
1.26874e-06
1.26874e-06
1.26875e-06
1.26873e-06
1.26874e-06
1.26874e-06
1.26875e-06
1.26873e-06
1.26873e-06
1.26874e-06
1.26875e-06
1.26873e-06
1.26873e-06
1.26874e-06
1.26874e-06
1.26872e-06
1.26873e-06
1.26873e-06
1.26874e-06
1.26872e-06
1.26873e-06
1.26873e-06
1.26874e-06
1.26872e-06
1.26873e-06
1.26873e-06
1.26874e-06
1.26872e-06
1.26873e-06
1.26873e-06
1.26874e-06
1.26872e-06
1.26873e-06
1.26873e-06
1.26873e-06
1.26872e-06
1.26872e-06
1.26873e-06
1.26873e-06
1.26872e-06
1.26872e-06
1.26873e-06
1.26873e-06
1.26872e-06
1.26872e-06
1.26872e-06
1.26873e-06
1.26872e-06
1.26872e-06
1.26872e-06
1.26873e-06
1.26872e-06
1.26872e-06
1.26872e-06
1.26872e-06
1.26872e-06
1.26872e-06
1.26872e-06
1.26872e-06
1.26871e-06
1.26872e-06
1.26872e-06
1.26872e-06
1.26871e-06
1.26872e-06
1.26872e-06
1.26872e-06
1.26871e-06
1.26871e-06
1.26871e-06
1.26872e-06
1.26871e-06
1.26871e-06
1.26871e-06
1.26871e-06
1.26871e-06
1.26871e-06
1.26871e-06
1.26871e-06
1.26871e-06
1.26871e-06
1.26871e-06
1.26871e-06
1.26871e-06
1.26871e-06
1.26871e-06
1.26871e-06
1.26871e-06
1.26871e-06
1.26871e-06
1.26871e-06
1.2687e-06
1.2687e-06
1.2687e-06
1.26871e-06
1.2687e-06
1.2687e-06
1.2687e-06
1.2687e-06
1.2687e-06
1.2687e-06
1.2687e-06
1.2687e-06
1.2687e-06
1.2687e-06
1.2687e-06
1.2687e-06
1.2687e-06
1.2687e-06
1.2687e-06
1.2687e-06
1.2687e-06
1.2687e-06
1.2687e-06
1.2687e-06
1.2687e-06
1.2687e-06
1.2687e-06
1.2687e-06
1.26869e-06
1.26869e-06
1.26869e-06
1.26869e-06
1.26869e-06
1.26869e-06
1.26869e-06
1.26869e-06
1.26869e-06
1.26869e-06
1.26869e-06
1.26869e-06
1.26869e-06
1.26869e-06
1.26869e-06
1.26869e-06
1.26869e-06
1.26869e-06
1.26869e-06
1.26869e-06
1.26869e-06
1.26868e-06
1.26868e-06
1.26869e-06
1.26868e-06
1.26868e-06
1.26868e-06
1.26868e-06
)
;


// ************************************************************************* //
