/*--------------------------------*- C++ -*----------------------------------*\
| =========                 |                                                 |
| \\      /  F ield         | OpenFOAM Extend Project: Open source CFD        |
|  \\    /   O peration     | Version:  1.6-ext                               |
|   \\  /    A nd           | Web:      www.extend-project.de                 |
|    \\/     M anipulation  |                                                 |
\*---------------------------------------------------------------------------*/
FoamFile
{
    version     2.0;
    format      ascii;
    class       volVectorField;
    location    "0.25";
    object      Vs;
}
// * * * * * * * * * * * * * * * * * * * * * * * * * * * * * * * * * * * * * //

dimensions      [0 1 -1 0 0 0 0];

internalField   nonuniform List<vector> 
328
(
(8.35926e-07 -4.95163e-06 0)
(1.79976e-06 -9.20927e-07 0)
(1.89967e-06 1.05308e-06 0)
(1.30919e-06 4.40572e-06 0)
(2.62807e-06 -1.26994e-05 0)
(5.13723e-06 -2.80511e-06 0)
(5.48472e-06 2.92341e-06 0)
(4.08898e-06 1.12375e-05 0)
(4.09067e-06 -1.8516e-05 0)
(7.7026e-06 -4.72006e-06 0)
(8.40293e-06 4.52443e-06 0)
(6.69396e-06 1.61813e-05 0)
(5.55532e-06 -2.27702e-05 0)
(9.96651e-06 -6.53482e-06 0)
(1.10704e-05 5.71281e-06 0)
(9.3999e-06 1.94959e-05 0)
(6.98017e-06 -2.59168e-05 0)
(1.18927e-05 -8.21188e-06 0)
(1.34527e-05 6.43323e-06 0)
(1.2171e-05 2.15277e-05 0)
(8.44454e-06 -2.8311e-05 0)
(1.36653e-05 -9.7591e-06 0)
(1.57171e-05 6.65703e-06 0)
(1.50737e-05 2.25375e-05 0)
(9.95539e-06 -3.02487e-05 0)
(1.53492e-05 -1.12312e-05 0)
(1.79264e-05 6.39134e-06 0)
(1.81138e-05 2.27327e-05 0)
(1.15353e-05 -3.1959e-05 0)
(1.70445e-05 -1.2705e-05 0)
(2.01759e-05 5.65206e-06 0)
(2.13112e-05 2.22578e-05 0)
(1.31937e-05 -3.36295e-05 0)
(1.88151e-05 -1.42721e-05 0)
(2.25286e-05 4.4588e-06 0)
(2.4675e-05 2.12137e-05 0)
(1.49438e-05 -3.54126e-05 0)
(2.07214e-05 -1.60283e-05 0)
(2.50441e-05 2.82294e-06 0)
(2.82184e-05 1.96609e-05 0)
(1.67992e-05 -3.74375e-05 0)
(2.28068e-05 -1.80686e-05 0)
(2.7766e-05 7.43516e-07 0)
(3.19545e-05 1.76285e-05 0)
(1.87766e-05 -3.98158e-05 0)
(2.51058e-05 -2.04848e-05 0)
(3.07286e-05 -1.79671e-06 0)
(3.58996e-05 1.51173e-05 0)
(2.08951e-05 -4.26477e-05 0)
(2.76433e-05 -2.33653e-05 0)
(3.39567e-05 -4.83199e-06 0)
(4.00716e-05 1.21043e-05 0)
(2.31761e-05 -4.60265e-05 0)
(3.04379e-05 -2.67961e-05 0)
(3.74688e-05 -8.41346e-06 0)
(4.449e-05 8.54563e-06 0)
(2.56427e-05 -5.00429e-05 0)
(3.35044e-05 -3.08632e-05 0)
(4.12792e-05 -1.26079e-05 0)
(4.9175e-05 4.37893e-06 0)
(2.83196e-05 -5.47878e-05 0)
(3.68564e-05 -3.56552e-05 0)
(4.54001e-05 -1.74963e-05 0)
(5.41474e-05 -4.74454e-07 0)
(3.12328e-05 -6.03556e-05 0)
(4.05081e-05 -4.12661e-05 0)
(4.98446e-05 -2.3173e-05 0)
(5.94286e-05 -6.10813e-06 0)
(3.44112e-05 -6.68455e-05 0)
(4.44769e-05 -4.77966e-05 0)
(5.46283e-05 -2.97443e-05 0)
(6.50414e-05 -1.26304e-05 0)
(3.78878e-05 -7.43632e-05 0)
(4.87859e-05 -5.53568e-05 0)
(5.97721e-05 -3.73294e-05 0)
(7.10122e-05 -2.01646e-05 0)
(4.17037e-05 -8.3021e-05 0)
(5.34671e-05 -6.40668e-05 0)
(6.53052e-05 -4.60604e-05 0)
(7.73742e-05 -2.88513e-05 0)
(4.59123e-05 -9.29384e-05 0)
(5.85655e-05 -7.40582e-05 0)
(7.12696e-05 -5.60845e-05 0)
(8.4172e-05 -3.88498e-05 0)
(5.05871e-05 -0.000104242 0)
(6.4146e-05 -8.54754e-05 0)
(7.77266e-05 -6.75653e-05 0)
(9.14691e-05 -5.03412e-05 0)
(5.60281e-05 -0.000117557 0)
(7.05333e-05 -9.89722e-05 0)
(8.50296e-05 -8.11848e-05 0)
(9.96526e-05 -6.40321e-05 0)
(6.22162e-05 -0.000132634 0)
(7.76563e-05 -0.000114325 0)
(9.30614e-05 -9.67485e-05 0)
(0.000108568 -7.97562e-05 0)
(6.88585e-05 -0.000148457 0)
(8.51545e-05 -0.000130519 0)
(0.000101398 -0.000113248 0)
(0.000117729 -9.65121e-05 0)
(7.60474e-05 -0.000164968 0)
(9.31183e-05 -0.000147497 0)
(0.000110128 -0.000130626 0)
(0.000127225 -0.00011424 0)
(8.38709e-05 -0.000182111 0)
(0.000101634 -0.000165195 0)
(0.000119336 -0.000148813 0)
(0.000137136 -0.000132864 0)
(9.24062e-05 -0.000199832 0)
(0.000110776 -0.000183548 0)
(0.000129093 -0.00016773 0)
(0.000147525 -0.000152289 0)
(0.000101716 -0.000218077 0)
(0.000120605 -0.000202483 0)
(0.000139455 -0.000187286 0)
(0.000158445 -0.000172407 0)
(0.000111842 -0.000236785 0)
(0.000131162 -0.000221919 0)
(0.000150462 -0.000207381 0)
(0.000169926 -0.000193098 0)
(0.00012281 -0.00025589 0)
(0.000142471 -0.00024177 0)
(0.000162134 -0.00022791 0)
(0.000181986 -0.000214239 0)
(0.000134626 -0.000275318 0)
(0.000154537 -0.000261944 0)
(0.000174475 -0.000248763 0)
(0.000194627 -0.000235704 0)
(0.000147279 -0.000294991 0)
(0.000167352 -0.000282348 0)
(0.000187479 -0.000269833 0)
(0.00020784 -0.000257374 0)
(0.000160746 -0.000314827 0)
(0.000180896 -0.000302889 0)
(0.000201125 -0.000291016 0)
(0.000221609 -0.000279135 0)
(0.000174992 -0.000334744 0)
(0.000195137 -0.000323477 0)
(0.000215389 -0.000312216 0)
(0.00023591 -0.000300884 0)
(0.000189975 -0.000354663 0)
(0.000210041 -0.000344027 0)
(0.000230237 -0.000333342 0)
(0.000250716 -0.000322528 0)
(0.000205651 -0.000374509 0)
(0.000225566 -0.000364462 0)
(0.000245636 -0.000354315 0)
(0.000265999 -0.000343984 0)
(0.000221968 -0.000394211 0)
(0.000241671 -0.00038471 0)
(0.000261549 -0.000375062 0)
(0.000281728 -0.00036518 0)
(0.000238879 -0.000413709 0)
(0.000258313 -0.00040471 0)
(0.000277941 -0.000395523 0)
(0.000297874 -0.000386056 0)
(0.000256332 -0.000432945 0)
(0.000275448 -0.000424407 0)
(0.000294772 -0.000415644 0)
(0.000314405 -0.00040656 0)
(0.00027428 -0.000451872 0)
(0.000293035 -0.000443754 0)
(0.000312008 -0.00043538 0)
(0.000331291 -0.000426647 0)
(0.000292676 -0.000470446 0)
(0.000311031 -0.000462712 0)
(0.000329612 -0.000454692 0)
(0.0003485 -0.00044628 0)
(0.000311475 -0.000488633 0)
(0.000329396 -0.000481245 0)
(0.000347548 -0.000473548 0)
(0.000366002 -0.000465427 0)
(0.000330634 -0.000506398 0)
(0.000348091 -0.000499324 0)
(0.00036578 -0.000491917 0)
(0.000383764 -0.000484059 0)
(0.000350112 -0.000523713 0)
(0.000367078 -0.000516921 0)
(0.000384272 -0.000509774 0)
(0.000401753 -0.00050215 0)
(0.000369869 -0.000540551 0)
(0.000386319 -0.00053401 0)
(0.000402989 -0.000527095 0)
(0.000419936 -0.000519677 0)
(0.000389867 -0.000556887 0)
(0.000405775 -0.000550568 0)
(0.000421894 -0.000543854 0)
(0.000438278 -0.000536616 0)
(0.000410068 -0.000572695 0)
(0.000425411 -0.000566568 0)
(0.000440953 -0.000560029 0)
(0.000456744 -0.000552943 0)
(0.000430435 -0.000587949 0)
(0.00044519 -0.000581988 0)
(0.000460127 -0.000575595 0)
(0.000475298 -0.000568633 0)
(0.00045093 -0.000602624 0)
(0.000465073 -0.0005968 0)
(0.000479381 -0.000590526 0)
(0.000493904 -0.000583662 0)
(0.000471517 -0.000616693 0)
(0.000485025 -0.000610978 0)
(0.000498678 -0.000604796 0)
(0.000512526 -0.000598004 0)
(0.000492158 -0.000630129 0)
(0.000505007 -0.000624497 0)
(0.000517981 -0.000618379 0)
(0.000531127 -0.000611631 0)
(0.000512813 -0.000642906 0)
(0.000524981 -0.000637328 0)
(0.000537253 -0.000631248 0)
(0.000549673 -0.000624519 0)
(0.000533445 -0.000654998 0)
(0.00054491 -0.000649446 0)
(0.000556458 -0.000643377 0)
(0.000568128 -0.000636642 0)
(0.000554012 -0.00066638 0)
(0.000564755 -0.000660826 0)
(0.000575559 -0.000654741 0)
(0.000586459 -0.000647976 0)
(0.000574475 -0.000677029 0)
(0.000584478 -0.000671446 0)
(0.000594521 -0.000665319 0)
(0.000604632 -0.0006585 0)
(0.000594793 -0.000686926 0)
(0.000604042 -0.000681285 0)
(0.000613309 -0.000675091 0)
(0.000622615 -0.000668195 0)
(0.000614925 -0.000696054 0)
(0.000623407 -0.000690328 0)
(0.000631887 -0.000684041 0)
(0.000640379 -0.000677046 0)
(0.00063483 -0.0007044 0)
(0.000642538 -0.000698561 0)
(0.000650224 -0.000692158 0)
(0.000657893 -0.000685043 0)
(0.000654467 -0.000711956 0)
(0.000661398 -0.000705978 0)
(0.000668287 -0.000699434 0)
(0.000675131 -0.00069218 0)
(0.000673799 -0.000718718 0)
(0.000679952 -0.000712575 0)
(0.000686046 -0.000705868 0)
(0.000692067 -0.000698456 0)
(0.000692787 -0.000724687 0)
(0.000698168 -0.000718354 0)
(0.000703472 -0.000711464 0)
(0.000708677 -0.000703876 0)
(0.000711395 -0.000729868 0)
(0.000716012 -0.000723323 0)
(0.000720539 -0.000716229 0)
(0.000724941 -0.00070845 0)
(0.000729588 -0.000734272 0)
(0.000733457 -0.000727493 0)
(0.000737221 -0.000720177 0)
(0.000740838 -0.000712193 0)
(0.000747337 -0.000737915 0)
(0.000750475 -0.000730882 0)
(0.000753499 -0.000723329 0)
(0.000756353 -0.000715128 0)
(0.000764611 -0.000740817 0)
(0.000767044 -0.000733513 0)
(0.000769352 -0.000725708 0)
(0.000771472 -0.00071728 0)
(0.000781388 -0.000743003 0)
(0.000783142 -0.000735413 0)
(0.000784765 -0.000727345 0)
(0.000786184 -0.000718683 0)
(0.000797645 -0.000744504 0)
(0.000798754 -0.000736614 0)
(0.000799728 -0.000728275 0)
(0.000800484 -0.000719373 0)
(0.000813367 -0.000745353 0)
(0.000813868 -0.000737156 0)
(0.000814231 -0.000728538 0)
(0.000814368 -0.000719395 0)
(0.000828542 -0.000745591 0)
(0.000828475 -0.00073708 0)
(0.000828273 -0.000728181 0)
(0.000827838 -0.000718797 0)
(0.000843164 -0.00074526 0)
(0.000842575 -0.000736434 0)
(0.000841856 -0.000727255 0)
(0.000840901 -0.000717633 0)
(0.000857235 -0.000744408 0)
(0.000856172 -0.00073527 0)
(0.000854985 -0.000725815 0)
(0.000853567 -0.000715963 0)
(0.000870763 -0.000743087 0)
(0.000869275 -0.000733644 0)
(0.000867676 -0.000723922 0)
(0.000865853 -0.000713851 0)
(0.000883764 -0.00074135 0)
(0.000881904 -0.000731615 0)
(0.000879946 -0.00072164 0)
(0.00087778 -0.000711364 0)
(0.000896265 -0.000739252 0)
(0.000894084 -0.000729245 0)
(0.000891824 -0.000719035 0)
(0.000889378 -0.000708574 0)
(0.000908302 -0.000736849 0)
(0.00090585 -0.000726597 0)
(0.000903344 -0.000716177 0)
(0.00090068 -0.000705555 0)
(0.000919923 -0.000734195 0)
(0.000917249 -0.000723732 0)
(0.000914549 -0.000713135 0)
(0.000911728 -0.000702382 0)
(0.000931193 -0.000731341 0)
(0.000928339 -0.000720711 0)
(0.000925494 -0.000709975 0)
(0.000922576 -0.000699127 0)
(0.000942184 -0.000728331 0)
(0.000939187 -0.000717585 0)
(0.000936241 -0.00070676 0)
(0.000933278 -0.000695862 0)
(0.000952997 -0.000725196 0)
(0.000949889 -0.000714401 0)
(0.000946878 -0.000703551 0)
(0.000943915 -0.000692655 0)
(0.00096372 -0.000721946 0)
(0.000960531 -0.000711185 0)
(0.000957485 -0.000700401 0)
(0.000954549 -0.00068958 0)
(0.000974536 -0.000718557 0)
(0.000971303 -0.000707959 0)
(0.000968244 -0.000697355 0)
(0.000965336 -0.000686716 0)
)
;

boundaryField
{
    plateFix
    {
        type            calculated;
        value           uniform (0 0 0);
    }
    plate
    {
        type            calculated;
        value           nonuniform List<vector> 
168
(
(-2.09483e-05 -1.36175e-05 7.90056e-24)
(-1.78609e-05 1.15191e-05 2.88995e-23)
(-1.33088e-05 -2.16594e-05 -1.37682e-23)
(-9.63705e-06 1.85777e-05 -2.9633e-23)
(-6.94505e-06 -2.78892e-05 2.06876e-24)
(-2.26698e-06 2.38614e-05 9.30411e-24)
(-1.99394e-06 -3.23066e-05 -1.3315e-23)
(4.02145e-06 2.73185e-05 -1.60895e-23)
(1.73314e-06 -3.55824e-05 3.17265e-24)
(9.36269e-06 2.94736e-05 1.61208e-23)
(4.6524e-06 -3.80446e-05 6.11125e-26)
(1.41042e-05 3.05627e-05 1.66691e-23)
(7.01619e-06 -4.00331e-05 -2.65282e-24)
(1.84609e-05 3.08285e-05 -9.38452e-24)
(9.03438e-06 -4.17784e-05 2.4786e-23)
(2.26158e-05 3.04153e-05 -1.68776e-23)
(1.0845e-05 -4.34758e-05 8.53995e-24)
(2.6693e-05 2.94292e-05 2.87083e-23)
(1.25536e-05 -4.52777e-05 -1.13396e-23)
(3.07898e-05 2.79301e-05 -1.37307e-23)
(1.42372e-05 -4.73139e-05 3.82235e-25)
(3.49791e-05 2.59471e-05 -4.68619e-24)
(1.59568e-05 -4.9696e-05 1.40208e-23)
(3.93191e-05 2.34807e-05 -1.01853e-23)
(1.77616e-05 -5.25249e-05 -2.27778e-23)
(4.38563e-05 2.05087e-05 2.04565e-23)
(1.96922e-05 -5.58953e-05 2.97799e-24)
(4.86284e-05 1.69883e-05 -9.91156e-24)
(2.17835e-05 -5.98991e-05 -2.83342e-25)
(5.36663e-05 1.28586e-05 1.22438e-24)
(2.40664e-05 -6.46289e-05 9.19062e-25)
(5.89956e-05 8.04255e-06 2.28991e-24)
(2.65695e-05 -7.01802e-05 -1.34259e-24)
(6.46387e-05 2.44735e-06 -8.87647e-24)
(2.93221e-05 -7.66522e-05 -4.83382e-24)
(7.06172e-05 -4.03534e-06 1.24122e-23)
(3.23571e-05 -8.4149e-05 1.0909e-23)
(7.69556e-05 -1.15308e-05 -4.74872e-24)
(3.57153e-05 -9.27794e-05 -3.82173e-24)
(8.36857e-05 -2.01831e-05 -1.31217e-24)
(3.94516e-05 -0.000102657 -2.55648e-24)
(9.08524e-05 -3.01581e-05 9.34481e-25)
(4.36432e-05 -0.000113899 5.80411e-25)
(9.8522e-05 -4.16457e-05 5.84949e-25)
(4.8578e-05 -0.000127115 -1.60434e-24)
(0.0001071 -5.53657e-05 -1.2325e-24)
(5.42635e-05 -0.000142045 7.559e-26)
(0.000116422 -7.11638e-05 4.39095e-25)
(6.04438e-05 -0.000157673 1.91254e-24)
(0.000125973 -8.80435e-05 -1.61706e-24)
(6.7215e-05 -0.000173938 -2.64308e-24)
(0.000135841 -0.000105943 -8.14601e-25)
(7.46679e-05 -0.00019079 -2.87921e-25)
(0.000146101 -0.000124782 -7.03612e-24)
(8.28822e-05 -0.000208182 8.15769e-24)
(0.000156813 -0.000144458 4.26218e-24)
(9.19221e-05 -0.000226068 -9.38159e-25)
(0.000168022 -0.000164853 -6.5178e-24)
(0.000101832 -0.0002444 -5.54765e-24)
(0.000179755 -0.000185837 5.89187e-24)
(0.000112637 -0.000263119 6.64305e-24)
(0.000192023 -0.000207278 7.22398e-24)
(0.000124342 -0.000282162 -8.93174e-24)
(0.000204826 -0.000229042 -6.14377e-24)
(0.000136936 -0.000301458 -2.33402e-24)
(0.000218155 -0.000251004 1.38082e-24)
(0.000150391 -0.000320931 -1.78716e-24)
(0.000231993 -0.000273046 1.01609e-23)
(0.00016467 -0.000340504 1.19525e-23)
(0.000246318 -0.000295062 -4.19933e-24)
(0.000179727 -0.0003601 -3.22774e-24)
(0.000261107 -0.000316956 -5.95548e-24)
(0.000195511 -0.000379645 -4.85069e-24)
(0.000276333 -0.000338646 7.79144e-24)
(0.000211969 -0.00039907 4.11222e-24)
(0.00029197 -0.00036006 -2.37414e-24)
(0.000229045 -0.000418311 -2.01502e-24)
(0.000307992 -0.000381137 6.40821e-25)
(0.000246686 -0.000437313 3.46589e-24)
(0.000324371 -0.000401826 3.00812e-24)
(0.00026484 -0.000456026 -7.43745e-24)
(0.00034108 -0.000422083 -1.04512e-24)
(0.000283457 -0.000474407 2.48594e-24)
(0.000358091 -0.000441872 3.17653e-24)
(0.00030249 -0.000492417 -2.18732e-24)
(0.000375375 -0.000461159 1.91023e-24)
(0.000321894 -0.000510023 5.87804e-24)
(0.000392901 -0.000479918 -2.04583e-24)
(0.000341627 -0.000527196 8.26843e-25)
(0.000410638 -0.000498123 1.09928e-25)
(0.000361649 -0.000543907 -1.78039e-24)
(0.000428553 -0.00051575 -3.44621e-24)
(0.000381921 -0.00056013 1.92196e-24)
(0.000446612 -0.000532775 1.33026e-25)
(0.000402406 -0.000575839 3.88415e-24)
(0.00046478 -0.000549174 5.11248e-24)
(0.000423067 -0.000591008 -1.2013e-23)
(0.000483021 -0.000564924 5.02514e-24)
(0.000443868 -0.000605612 5.80126e-24)
(0.000501299 -0.000579998 -4.88567e-25)
(0.000464771 -0.000619624 -5.07433e-25)
(0.000519578 -0.000594372 7.10043e-24)
(0.00048574 -0.000633017 9.97781e-24)
(0.000537823 -0.00060802 2.44148e-24)
(0.000506735 -0.000645764 -8.52483e-24)
(0.000555997 -0.000620915 -4.39998e-24)
(0.000527717 -0.00065784 6.01661e-24)
(0.000574068 -0.000633033 -3.17834e-24)
(0.000548646 -0.000669221 -6.25771e-26)
(0.000592001 -0.00064435 3.34156e-24)
(0.000569481 -0.000679883 5.27606e-24)
(0.000609766 -0.000654845 -9.93719e-24)
(0.000590178 -0.000689807 -9.21224e-25)
(0.000627333 -0.000664501 -5.86388e-24)
(0.000610697 -0.000698976 -2.07756e-24)
(0.000644672 -0.000673302 7.02598e-24)
(0.000630993 -0.000707377 -6.21229e-24)
(0.000661759 -0.000681239 -6.3088e-24)
(0.000651025 -0.000715001 3.53058e-24)
(0.000678567 -0.000688307 -9.12965e-24)
(0.000670752 -0.000721845 -9.6808e-24)
(0.000695074 -0.000694505 8.28102e-25)
(0.000690132 -0.000727908 6.56704e-24)
(0.000711259 -0.00069984 -8.21986e-26)
(0.000709129 -0.000733196 3.67895e-24)
(0.000727104 -0.000704321 1.83061e-24)
(0.000727704 -0.000737718 -5.60658e-25)
(0.000742591 -0.000707966 2.0608e-24)
(0.000745826 -0.000741488 -4.91358e-24)
(0.000757708 -0.000710797 3.24101e-24)
(0.000763462 -0.000744527 1.55397e-24)
(0.000772444 -0.000712841 -4.86745e-24)
(0.000780586 -0.000746859 -1.16849e-24)
(0.000786791 -0.000714132 1.35907e-24)
(0.000797175 -0.000748511 2.501e-24)
(0.000800746 -0.000714709 -2.92042e-24)
(0.00081321 -0.000749516 -4.43925e-24)
(0.000814309 -0.000714617 -1.63237e-24)
(0.000828677 -0.000749913 -1.02753e-25)
(0.000827483 -0.000713906 -6.35284e-25)
(0.00084357 -0.000749743 2.58881e-25)
(0.000840279 -0.000712632 5.30574e-24)
(0.000857886 -0.000749051 -1.93472e-24)
(0.000852708 -0.000710855 -3.77377e-24)
(0.000871632 -0.000747886 -1.47001e-24)
(0.00086479 -0.000708643 4.11001e-24)
(0.000884825 -0.000746297 -2.13781e-24)
(0.000876549 -0.000706064 -2.47826e-24)
(0.000897488 -0.000744338 -1.75075e-24)
(0.000888014 -0.000703192 3.9979e-24)
(0.000909661 -0.00074206 -7.89246e-25)
(0.00089922 -0.000700104 -8.84289e-25)
(0.000921392 -0.000739514 -1.09514e-24)
(0.00091021 -0.000696876 -6.20803e-25)
(0.000932747 -0.000736744 1.27134e-24)
(0.000921035 -0.000693585 2.6855e-24)
(0.000943804 -0.00073379 1.38185e-24)
(0.000931748 -0.000690305 3.86279e-25)
(0.000954676 -0.000730679 -6.35376e-25)
(0.000942433 -0.000687109 -1.13442e-24)
(0.000965457 -0.000727411 9.37576e-25)
(0.000953146 -0.000684078 1.28311e-24)
(0.000976381 -0.000723966 2.54813e-24)
(0.000980003 -0.000716733 4.80508e-24)
(0.000976789 -0.000706364 -3.11077e-24)
(0.000973725 -0.000695885 -4.58465e-24)
(0.000970794 -0.000685452 -6.46694e-24)
(0.000964078 -0.000681287 2.74633e-24)
)
;
    }
    frontAndBackPlanes
    {
        type            empty;
    }
}


// ************************************************************************* //
