/*--------------------------------*- C++ -*----------------------------------*\
| =========                 |                                                 |
| \\      /  F ield         | OpenFOAM Extend Project: Open source CFD        |
|  \\    /   O peration     | Version:  1.6-ext                               |
|   \\  /    A nd           | Web:      www.extend-project.de                 |
|    \\/     M anipulation  |                                                 |
\*---------------------------------------------------------------------------*/
FoamFile
{
    version     2.0;
    format      ascii;
    class       volSymmTensorField;
    location    "1";
    object      DSigma;
}
// * * * * * * * * * * * * * * * * * * * * * * * * * * * * * * * * * * * * * //

dimensions      [1 -1 -2 0 0 0 0];

internalField   nonuniform List<symmTensor> 
328
(
(-0.0655345 -0.0127204 2.78576e-25 -0.0232695 -1.14321e-21 -0.0355216)
(-0.0533957 -0.00594288 -2.9656e-26 -0.0298274 -1.82413e-27 -0.0332893)
(-0.0512895 0.00461743 2.96606e-26 -0.0289207 1.82442e-27 -0.0320841)
(-0.0557128 0.01086 -2.37899e-24 -0.0197145 -1.89339e-20 -0.0301709)
(-0.0610042 -0.00892082 1.03878e-23 -0.014078 2.24104e-20 -0.0300329)
(-0.0534891 -0.00523083 8.69483e-24 -0.0205864 4.83611e-24 -0.0296302)
(-0.0514135 0.00356881 0 -0.0203413 0 -0.0287019)
(-0.0518634 0.00742399 2.27662e-24 -0.0116398 2.06153e-20 -0.0254013)
(-0.0596978 -0.00577867 -6.62306e-24 -0.00866602 -2.09296e-20 -0.0273455)
(-0.0564096 -0.00435727 -8.10711e-24 -0.0152949 -4.50922e-24 -0.0286818)
(-0.0542012 0.00245884 0 -0.0153345 0 -0.0278143)
(-0.050936 0.00453373 -6.67138e-24 -0.00687225 2.12921e-20 -0.0231233)
(-0.0580667 -0.00352448 -3.19062e-25 -0.00491125 1.33937e-21 -0.0251912)
(-0.0571125 -0.00338288 -1.92659e-24 -0.0103978 -1.75903e-25 -0.0270041)
(-0.0549655 0.00134019 3.93396e-24 -0.010658 -1.2603e-24 -0.0262494)
(-0.049805 0.00243855 1.26537e-23 -0.00356414 -5.82719e-20 -0.0213476)
(-0.0572787 -0.00203141 -4.90829e-24 -0.00271857 1.7537e-20 -0.0239989)
(-0.0579458 -0.00250011 -4.84245e-23 -0.00709769 -1.88899e-23 -0.0260174)
(-0.0558626 0.000383606 -5.18927e-24 -0.007454 2.95267e-24 -0.0253267)
(-0.0494914 0.00103908 9.23297e-23 -0.00164471 5.39775e-20 -0.0204544)
(-0.056714 -0.00108076 5.72358e-24 -0.00140038 -1.70778e-20 -0.0232457)
(-0.0580912 -0.00177988 -7.21168e-23 -0.00455025 -2.35173e-23 -0.0250566)
(-0.0561279 -0.000369235 6.32815e-24 -0.00495758 -2.85526e-24 -0.0244342)
(-0.0494404 0.000142308 -9.88934e-23 -0.000510071 -1.61606e-20 -0.0199802)
(-0.0564491 -0.000518426 2.863e-24 -0.0006951 1.60726e-20 -0.0228577)
(-0.0580722 -0.00125731 1.24375e-22 -0.00282291 3.99665e-23 -0.024358)
(-0.0562427 -0.000896828 -1.50357e-23 -0.00323927 -1.61683e-24 -0.0237928)
(-0.0497109 -0.000389932 -1.54189e-23 6.86043e-05 1.23342e-21 -0.0198569)
(-0.0563175 -0.000216025 1.38184e-23 -0.000343548 -2.91933e-20 -0.0226644)
(-0.0578126 -0.000916991 0 -0.00163431 0 -0.0237788)
(-0.0561363 -0.00122542 1.31944e-22 -0.00204026 -5.42231e-24 -0.0232706)
(-0.0501475 -0.000674791 1.64892e-22 0.000321306 5.25659e-23 -0.0199305)
(-0.0562692 -8.42441e-05 -1.45669e-23 -0.000205879 2.6393e-20 -0.02259)
(-0.0574654 -0.000728518 0 -0.000889093 0 -0.0233418)
(-0.0559522 -0.00139071 -1.19899e-22 -0.00127049 5.42567e-24 -0.0228891)
(-0.0506985 -0.000795016 -3.23331e-22 0.000373218 -2.64768e-20 -0.0201301)
(-0.0562341 -5.59e-05 1.55987e-23 -0.000180917 -2.45388e-20 -0.022566)
(-0.0570593 -0.000650405 -4.20603e-22 -0.000448163 -1.01774e-22 -0.023003)
(-0.0557186 -0.00143726 4.28874e-23 -0.00079732 5.33466e-24 -0.0226064)
(-0.0512958 -0.000813704 1.70007e-22 0.000316261 3.40824e-20 -0.0203918)
(-0.0561736 -8.46684e-05 4.38467e-23 -0.000209713 1.05927e-20 -0.0225533)
(-0.0566497 -0.000643482 -5.53415e-23 -0.000223641 -9.16644e-24 -0.0227493)
(-0.0554891 -0.00140536 0 -0.00053509 0 -0.0224097)
(-0.0519002 -0.000774936 4.44039e-23 0.000204866 -1.82949e-21 -0.0206781)
(-0.0560592 -0.000138451 -4.5487e-22 -0.000255131 5.85473e-22 -0.0225257)
(-0.0562576 -0.000673887 4.80055e-22 -0.000136694 1.06003e-22 -0.0225577)
(-0.0552843 -0.00132896 -1.00085e-22 -0.000406761 -1.36158e-23 -0.0222764)
(-0.052482 -0.000709441 -3.03241e-25 7.39913e-05 3.71251e-22 -0.0209632)
(-0.0558775 -0.000196883 3.12498e-22 -0.000296769 7.45339e-22 -0.0224697)
(-0.055899 -0.000716368 1.10489e-22 -0.000132647 3.47221e-23 -0.0224126)
(-0.0551192 -0.0012328 -3.42381e-22 -0.000358484 -3.03798e-23 -0.0221911)
(-0.0530258 -0.000636774 -9.49778e-23 -5.6725e-05 -8.73855e-21 -0.021233)
(-0.0556247 -0.000248003 -5.15715e-22 -0.000324328 1.07713e-20 -0.0223796)
(-0.055576 -0.000753916 -1.16174e-22 -0.000171446 -3.47213e-23 -0.022299)
(-0.0549955 -0.00113292 4.15243e-22 -0.000350884 2.44542e-23 -0.0221386)
(-0.0535245 -0.000568259 -2.67244e-25 -0.000176961 2.62127e-22 -0.0214806)
(-0.0553046 -0.000286075 1.24078e-21 -0.000334357 -9.84483e-21 -0.0222556)
(-0.0552856 -0.000776846 2.61972e-22 -0.000227706 4.11221e-23 -0.0222053)
(-0.054909 -0.0010378 0 -0.000359102 0 -0.0221072)
(-0.0539772 -0.000509092 4.81615e-22 -0.000282791 -4.63232e-21 -0.021704)
(-0.0549256 -0.000309428 -4.85607e-22 -0.000327483 3.10602e-22 -0.0221012)
(-0.0550198 -0.000780888 -4.70645e-22 -0.000286339 -1.03207e-22 -0.0221225)
(-0.0548503 -0.000950309 1.02201e-21 -0.000368633 1.02409e-22 -0.0220876)
(-0.0543857 -0.000460367 -1.442e-21 -0.000374 2.76711e-21 -0.0219039)
(-0.0544986 -0.000318837 1.02822e-26 -0.000306608 -7.50992e-24 -0.0219221)
(-0.0547696 -0.000765352 0 -0.00033997 0 -0.0220438)
(-0.0548081 -0.000869555 -9.52919e-22 -0.000372723 -9.54863e-23 -0.0220723)
(-0.054752 -0.000420714 1.33922e-22 -0.000452314 2.32217e-22 -0.0220817)
(-0.0540353 -0.000316201 -1.40003e-23 -0.000275607 9.35277e-21 -0.0217244)
(-0.0545255 -0.000731443 5.91082e-22 -0.000385956 1.5017e-22 -0.0219646)
(-0.0547703 -0.00079267 1.04124e-21 -0.000369519 1.19106e-22 -0.0220559)
(-0.0550765 -0.000387588 -1.13243e-22 -0.000520078 -5.12605e-21 -0.0222386)
(-0.0535478 -0.000303687 1.1936e-21 -0.000238533 -7.71631e-21 -0.0215145)
(-0.0542797 -0.000681076 5.31921e-23 -0.000424276 9.53949e-24 -0.0218816)
(-0.0547252 -0.00071608 -1.66993e-21 -0.000359888 -2.30191e-22 -0.0220341)
(-0.0553563 -0.000358174 1.52708e-21 -0.000579325 -5.4706e-21 -0.0223742)
(-0.0530474 -0.000283205 -4.54759e-22 -0.000199151 -4.47937e-21 -0.0212986)
(-0.0540259 -0.000616077 -6.09263e-22 -0.000455928 -1.02037e-22 -0.0217927)
(-0.0546619 -0.000636343 1.05136e-21 -0.000346033 1.30478e-22 -0.0220032)
(-0.0555847 -0.00032994 1.13958e-21 -0.000631462 3.19246e-23 -0.0224864)
(-0.0525464 -0.000256238 3.21673e-23 -0.000160921 5.97691e-21 -0.0210829)
(-0.0537595 -0.000538007 -1.20349e-22 -0.000481886 -1.01346e-22 -0.0216965)
(-0.0545695 -0.000550755 -1.07932e-21 -0.000330187 -1.3875e-22 -0.0219599)
(-0.0557497 -0.000300917 6.22748e-23 -0.000676618 7.64584e-23 -0.0225705)
(-0.0520559 -0.000223753 1.2354e-21 -0.000126716 9.04338e-23 -0.0208731)
(-0.0534773 -0.000447666 1.11948e-21 -0.000502873 2.24615e-22 -0.0215921)
(-0.0544388 -0.000457053 1.25861e-21 -0.000315182 1.24824e-22 -0.0219016)
(-0.0558381 -0.000269599 -1.20378e-21 -0.000715077 -5.36394e-21 -0.0226213)
(-0.0515753 -0.000184486 -2.17264e-21 -9.93104e-05 -8.82535e-21 -0.0206698)
(-0.0531662 -0.000341507 2.28486e-21 -0.000519208 4.64194e-22 -0.0214741)
(-0.0542492 -0.000349744 -1.05263e-21 -0.000300966 -1.37399e-22 -0.0218201)
(-0.0558228 -0.000233602 2.16351e-21 -0.00074391 -1.35446e-20 -0.0226267)
(-0.0511375 -0.000142163 2.44399e-21 -8.27316e-05 4.63519e-21 -0.0204881)
(-0.0528355 -0.000227941 -3.70369e-21 -0.000529713 -6.67105e-22 -0.0213461)
(-0.053996 -0.000236166 2.52771e-21 -0.000292638 3.12268e-22 -0.0217154)
(-0.0556781 -0.000195688 -2.44417e-21 -0.000762403 1.76354e-20 -0.0225762)
(-0.0507809 -9.88849e-05 -9.9057e-24 -7.96861e-05 3.86574e-21 -0.0203442)
(-0.0525071 -0.000112508 2.53766e-21 -0.000533063 4.496e-22 -0.0212161)
(-0.0536878 -0.000121102 -2.52771e-21 -0.000290325 -3.12267e-22 -0.0215913)
(-0.0553981 -0.000156787 2.74362e-21 -0.00076689 -4.35667e-21 -0.022466)
(-0.0505056 -5.56921e-05 -2.83423e-21 -9.05599e-05 -4.17344e-21 -0.0202385)
(-0.052181 2.27599e-06 1.63453e-24 -0.000529867 1.3401e-22 -0.0210843)
(-0.0533261 -6.68393e-06 5.68315e-21 -0.000294654 6.44643e-22 -0.0214483)
(-0.0549849 -0.000117559 -2.75819e-21 -0.000757667 8.50498e-21 -0.022297)
(-0.0503101 -1.35979e-05 3.14095e-21 -0.000115329 3.00541e-22 -0.0201702)
(-0.0518565 0.000114106 -3.04764e-21 -0.0005203 -3.89053e-22 -0.0209507)
(-0.0529109 0.000104923 3.04774e-21 -0.000305357 3.89065e-22 -0.0212865)
(-0.0544399 -7.88752e-05 2.34753e-23 -0.000734729 -8.1977e-21 -0.0220699)
(-0.0501907 2.63749e-05 -3.04777e-21 -0.000153512 -1.19019e-22 -0.0201377)
(-0.0515328 0.000220521 3.24307e-21 -0.000504684 5.12885e-22 -0.020815)
(-0.0524437 0.00021133 0 -0.000322275 0 -0.0211064)
(-0.0537676 -4.16567e-05 6.6554e-21 -0.000698583 -7.30355e-21 -0.0217865)
(-0.0501413 6.32589e-05 3.63639e-21 -0.000204339 6.44584e-22 -0.0201383)
(-0.0512085 0.000319145 -3.44114e-21 -0.000483408 -4.97977e-22 -0.0206768)
(-0.0519262 0.000310185 3.46372e-21 -0.000345042 2.32349e-22 -0.0209085)
(-0.052974 -6.83569e-06 -6.79609e-21 -0.000650015 -1.10418e-20 -0.0214496)
(-0.0501542 9.61416e-05 2.10409e-22 -0.00026677 -1.00926e-20 -0.0201684)
(-0.0508816 0.000407703 3.63851e-21 -0.000456999 4.78513e-22 -0.0205354)
(-0.0513605 0.00039922 3.66659e-21 -0.000373194 2.15248e-22 -0.0206935)
(-0.0520677 2.46903e-05 -7.47595e-21 -0.000590081 1.03976e-20 -0.0210631)
(-0.0502193 0.00012419 -3.74217e-21 -0.000339483 9.58381e-21 -0.0202235)
(-0.0505496 0.000484101 -7.68668e-21 -0.000426086 -7.81375e-22 -0.0203903)
(-0.0507497 0.000476339 3.85151e-21 -0.000406149 3.25655e-22 -0.0204623)
(-0.0510588 5.20755e-05 7.77339e-21 -0.000520115 -7.64165e-21 -0.0206316)
(-0.0503252 0.000146684 -8.14643e-21 -0.000420936 -2.44035e-21 -0.0202984)
(-0.0502097 0.000546494 4.0315e-21 -0.000391406 4.31071e-22 -0.0202405)
(-0.0500969 0.000539681 0 -0.000443224 0 -0.0202161)
(-0.0499595 7.45612e-05 -4.01003e-21 -0.000441685 -1.37499e-20 -0.0201605)
(-0.0504586 0.000163033 4.09375e-21 -0.000509369 2.24117e-21 -0.0203872)
(-0.0498587 0.000593344 8.46958e-21 -0.000353781 6.83768e-22 -0.020085)
(-0.0494059 0.000587689 -1.28435e-20 -0.000483647 -6.31125e-22 -0.0199558)
(-0.0487833 9.14973e-05 4.02754e-21 -0.000356564 1.08359e-20 -0.0196559)
(-0.0506054 0.000172799 -8.72679e-25 -0.000602867 2.33212e-22 -0.0204833)
(-0.049493 0.000623471 -4.52559e-21 -0.000314103 -3.08208e-22 -0.0199229)
(-0.0486806 0.00061915 4.34473e-21 -0.000526574 2.02788e-22 -0.0196829)
(-0.047545 0.000102363 -1.29812e-22 -0.000266689 7.13917e-21 -0.0191247)
(-0.0507502 0.000175706 -4.61565e-21 -0.000699394 2.78153e-21 -0.0205799)
(-0.0491089 0.000636079 -4.81663e-21 -0.000273315 -2.18569e-22 -0.0197529)
(-0.0479254 0.000633233 4.62499e-21 -0.000571103 2.35828e-22 -0.0193986)
(-0.0462604 0.000106783 -4.43325e-23 -0.000174112 1.15472e-20 -0.0185738)
(-0.0508775 0.000171645 9.7124e-21 -0.000796846 6.9868e-22 -0.0206697)
(-0.0487024 0.000630778 -1.90225e-22 -0.000232389 1.09397e-23 -0.0195739)
(-0.0471446 0.000629504 4.90352e-21 -0.000616295 1.57494e-22 -0.0191044)
(-0.0449458 0.000104529 -9.73398e-21 -8.09517e-05 4.33317e-21 -0.0180107)
(-0.0509712 0.000160671 -1.00394e-20 -0.000893095 5.5198e-21 -0.0207457)
(-0.0482696 0.000607584 4.80961e-21 -0.000192307 2.18184e-22 -0.0193848)
(-0.0463427 0.000607933 -9.90182e-21 -0.000661197 -3.73004e-22 -0.0188016)
(-0.0436174 9.55324e-05 9.89599e-21 1.06558e-05 -2.44887e-21 -0.0174427)
(-0.0510158 0.000143007 5.14401e-21 -0.00098604 -6.29669e-21 -0.0208007)
(-0.0478067 0.000566916 5.11229e-21 -0.000154035 4.01443e-22 -0.0191843)
(-0.0455242 0.000568887 5.27752e-21 -0.000704857 2.81595e-22 -0.0184916)
(-0.0422918 7.98761e-05 -1.46127e-23 9.86018e-05 7.11385e-21 -0.0168773)
(-0.0509961 0.000119028 -5.38912e-21 -0.00107365 -2.44098e-22 -0.0208279)
(-0.04731 0.000509584 1.07504e-20 -0.000118505 5.87278e-22 -0.0189714)
(-0.0446933 0.000513127 -1.06214e-20 -0.000746351 -3.97725e-22 -0.0181759)
(-0.0409846 5.77964e-05 1.07459e-20 0.000180852 -9.80983e-21 -0.0163215)
(-0.0508977 8.92592e-05 -5.69036e-21 -0.001154 -1.82257e-21 -0.0208207)
(-0.046776 0.000436773 -5.53915e-21 -8.65919e-05 -2.58888e-22 -0.018745)
(-0.0438543 0.000441783 -6.31473e-23 -0.000784799 3.72687e-23 -0.0178556)
(-0.0397107 2.96773e-05 -5.42373e-21 0.000255489 6.08068e-21 -0.0157821)
(-0.0507077 5.4361e-05 -2.15071e-22 -0.00122534 4.50856e-21 -0.0207732)
(-0.0462016 0.000350015 5.83148e-21 -5.90959e-05 3.8563e-22 -0.0185043)
(-0.0430109 0.000356339 5.60238e-21 -0.000819387 2.21625e-22 -0.0175321)
(-0.038484 -3.95661e-06 5.63668e-21 0.000320755 -7.28296e-21 -0.0152653)
(-0.0504144 1.51184e-05 1.19928e-20 -0.00128608 -2.52122e-21 -0.0206802)
(-0.045584 0.000251167 1.78205e-22 -3.67235e-05 6.47113e-23 -0.0182483)
(-0.0421665 0.000258604 0 -0.000849384 0 -0.0172064)
(-0.0373166 -4.24487e-05 1.69215e-23 0.000375089 -3.83985e-21 -0.0147766)
(-0.050008 -2.75761e-05 4.71684e-23 -0.0013349 1.62881e-21 -0.0205371)
(-0.044921 0.000142369 -1.21498e-20 -2.00718e-05 -9.99191e-22 -0.0179764)
(-0.0413243 0.000150675 0 -0.000874162 0 -0.0168794)
(-0.0362192 -8.50225e-05 5.9039e-21 0.000417162 -4.78468e-21 -0.0143208)
(-0.0494806 -7.27411e-05 -6.3414e-21 -0.00137069 3.50604e-21 -0.0203405)
(-0.0442107 2.60045e-05 1.26808e-20 -9.61525e-06 1.2725e-21 -0.0176881)
(-0.0404867 3.48989e-05 -1.2363e-20 -0.000893203 -9.46069e-22 -0.016552)
(-0.0352004 -0.000130797 -7.39485e-25 0.00044591 -3.36983e-21 -0.0139018)
(-0.0488266 -0.000119328 1.46217e-22 -0.00139268 -6.1996e-21 -0.0200877)
(-0.0434522 -9.5356e-05 1.44731e-22 -5.69464e-06 1.15218e-22 -0.0173831)
(-0.0396557 -8.61849e-05 6.24624e-21 -0.000906121 5.25003e-22 -0.0162247)
(-0.0342665 -0.000178807 -1.3472e-22 0.000460561 -1.62136e-22 -0.0135224)
(-0.0480428 -0.000166248 -1.35111e-20 -0.00140038 -3.37085e-21 -0.0197773)
(-0.0426447 -0.000219012 1.33738e-20 -8.50956e-06 1.76751e-21 -0.0170613)
(-0.0388326 -0.000209899 0 -0.000912661 0 -0.0158981)
(-0.0334216 -0.000228023 1.25631e-20 0.000460651 -5.6867e-21 -0.0131844)
(-0.0471282 -0.000212395 -9.93998e-24 -0.00139363 -9.88946e-22 -0.0194087)
(-0.0417885 -0.000342202 1.59003e-22 -1.81141e-05 1.32202e-22 -0.0167226)
(-0.0380182 -0.000333495 0 -0.000912715 0 -0.0155724)
(-0.0326674 -0.000277379 -8.12305e-25 0.000446039 1.73769e-22 -0.0128886)
(-0.0460845 -0.000256678 7.37038e-21 -0.00137258 6.03187e-22 -0.0189828)
(-0.0408842 -0.000462168 7.02291e-21 -3.44159e-05 1.18917e-21 -0.0163674)
(-0.0372127 -0.000454222 -6.67837e-21 -0.000906317 -9.87513e-22 -0.0152476)
(-0.0320032 -0.000325797 6.67111e-21 0.000416909 2.55582e-21 -0.0126345)
(-0.0449156 -0.000298044 -1.49637e-20 -0.00133772 2.15621e-21 -0.0185013)
(-0.0399332 -0.000576229 -2.8379e-20 -5.71789e-05 -5.28345e-21 -0.0159961)
(-0.0364155 -0.000569395 1.40019e-20 -0.000893647 2.53691e-21 -0.0149237)
(-0.0314256 -0.000372217 1.32446e-20 0.000373767 3.81809e-23 -0.0124208)
(-0.043628 -0.000335509 2.24453e-20 -0.00128985 2.43144e-21 -0.0179671)
(-0.0389375 -0.000681843 1.42931e-20 -8.60295e-05 2.94539e-21 -0.0156094)
(-0.0356255 -0.000676461 -1.42932e-20 -0.000875025 -2.94541e-21 -0.0146002)
(-0.0309294 -0.00041562 1.26912e-24 0.000317423 -2.64991e-22 -0.0122448)
(-0.0422302 -0.000368178 -1.49915e-20 -0.00123005 -5.79247e-21 -0.0173841)
(-0.0378997 -0.000776672 1.45772e-20 -0.000120466 3.38707e-21 -0.0152081)
(-0.0348411 -0.000773061 -1.45772e-20 -0.000850905 -3.38709e-21 -0.0142768)
(-0.0305067 -0.000455055 -1.37203e-20 0.000248974 4.16481e-21 -0.0121031)
(-0.0407327 -0.000395265 1.58797e-20 -0.00115966 -5.99247e-22 -0.0167569)
(-0.0368229 -0.000858632 9.04205e-23 -0.000159871 -1.4718e-22 -0.0147931)
(-0.0340602 -0.000857083 0 -0.000821864 0 -0.0139528)
(-0.0301479 -0.00048966 -1.42896e-20 0.000169773 6.39634e-22 -0.0119912)
(-0.0391478 -0.000416116 -2.26841e-25 -0.00108025 4.64922e-23 -0.0160912)
(-0.0357105 -0.000925943 -2.76399e-22 -0.000203528 -5.09239e-22 -0.0143656)
(-0.0332801 -0.000926713 1.5005e-20 -0.000788586 4.5328e-21 -0.0136275)
(-0.0298416 -0.000518683 2.87798e-20 8.13989e-05 5.69273e-21 -0.0119041)
(-0.0374894 -0.000430217 1.59141e-20 -0.000993587 4.53091e-22 -0.0153932)
(-0.0345666 -0.000977169 -3.89154e-22 -0.000250635 -3.5473e-22 -0.0139269)
(-0.0324979 -0.000980471 -1.5005e-20 -0.000751853 -4.5328e-21 -0.0132999)
(-0.0295751 -0.000541498 -2.88775e-20 -1.43861e-05 -2.64193e-21 -0.0118358)
(-0.0357721 -0.000437208 -3.92923e-22 -0.000901591 -8.01433e-22 -0.0146695)
(-0.0333953 -0.00101124 -1.61627e-20 -0.000300329 -5.60114e-21 -0.0134782)
(-0.0317104 -0.00101725 0 -0.000712517 0 -0.0129691)
(-0.0293344 -0.00055762 -6.46267e-25 -0.000115673 1.31402e-22 -0.01178)
(-0.0340119 -0.00043689 -4.31642e-22 -0.000806283 4.02863e-21 -0.0139273)
(-0.032201 -0.0010275 0 -0.000351703 0 -0.0130211)
(-0.0309139 -0.00103632 0 -0.000671488 0 -0.0126342)
(-0.0291046 -0.000566715 -1.48234e-20 -0.000220456 2.29504e-21 -0.01173)
(-0.0322247 -0.000429229 1.70679e-20 -0.000709748 6.15305e-21 -0.0131738)
(-0.0309884 -0.00102567 1.6513e-20 -0.000403829 6.92701e-21 -0.0125569)
(-0.030105 -0.00103738 0 -0.000629709 0 -0.0122939)
(-0.0288707 -0.000568606 -9.85176e-26 -0.000326673 1.98943e-23 -0.0116789)
(-0.0304269 -0.000414355 4.17034e-22 -0.000614083 -2.19404e-21 -0.0124164)
(-0.029762 -0.00100591 -1.609e-22 -0.000455782 2.12396e-22 -0.0120871)
(-0.0292801 -0.00102054 -3.21451e-20 -0.000588137 -1.41278e-20 -0.0119473)
(-0.0286173 -0.000563281 1.58093e-20 -0.000432258 3.7216e-21 -0.0116198)
(-0.0286344 -0.000392563 -1.23045e-24 -0.000521351 2.47043e-22 -0.0116623)
(-0.0285262 -0.000968796 1.65739e-20 -0.000506656 7.72346e-21 -0.0116131)
(-0.0284355 -0.00098629 -1.65739e-20 -0.000547717 -7.72348e-21 -0.0115933)
(-0.0283295 -0.000550892 7.20055e-24 -0.000535189 -1.44653e-21 -0.0115459)
(-0.0268626 -0.000364303 -3.56867e-20 -0.000433532 -5.10445e-21 -0.0109184)
(-0.0272855 -0.00091529 1.71673e-20 -0.000555594 8.6666e-21 -0.0111364)
(-0.0275681 -0.000935566 0 -0.000509364 0 -0.011231)
(-0.027993 -0.00053175 -1.60712e-20 -0.000633532 -4.06897e-21 -0.0114506)
(-0.0251257 -0.000330171 1.7366e-20 -0.000352479 5.63528e-21 -0.0101913)
(-0.0260438 -0.000846736 -5.20771e-20 -0.000601803 -2.69272e-20 -0.0106583)
(-0.0266746 -0.000869659 0 -0.000473941 0 -0.0108594)
(-0.0275944 -0.000506322 1.60742e-20 -0.000725489 3.48056e-21 -0.0113279)
(-0.0234369 -0.000290896 3.56922e-20 -0.000279876 9.73052e-21 -0.00948669)
(-0.0248051 -0.000764824 1.68211e-20 -0.000644572 9.11246e-21 -0.0101799)
(-0.0257524 -0.000790216 -1.71894e-20 -0.000442237 -9.45897e-21 -0.0104779)
(-0.0271216 -0.000475218 8.80163e-27 -0.000809439 -1.75885e-24 -0.0111724)
(-0.0218075 -0.000247321 3.64187e-20 -0.000217197 8.99854e-21 -0.00880987)
(-0.0235725 -0.000671553 -1.7912e-20 -0.000683293 -1.01404e-20 -0.00970231)
(-0.0247991 -0.000699198 0 -0.000414954 0 -0.0100856)
(-0.0265643 -0.000439178 -1.24716e-24 -0.000883976 2.48917e-22 -0.0109793)
(-0.0202471 -0.000200387 -1.81053e-20 -0.000165677 -5.49282e-21 -0.00816513)
(-0.022349 -0.000569182 1.80793e-20 -0.000717475 1.0681e-20 -0.00922658)
(-0.0238128 -0.000598831 1.73845e-20 -0.000392686 1.0775e-20 -0.00968218)
(-0.0259139 -0.000399055 5.36453e-25 -0.000947943 -1.0696e-22 -0.0107448)
(-0.0187634 -0.000151112 5.14645e-22 -0.000126281 -1.14201e-21 -0.00755587)
(-0.0211368 -0.000460187 1.82359e-20 -0.000746755 1.12055e-20 -0.00875343)
(-0.0227922 -0.000491566 -3.45999e-20 -0.000375908 -2.1755e-20 -0.00926724)
(-0.025164 -0.000355798 1.72424e-20 -0.00100046 5.60811e-21 -0.0104658)
(-0.0173615 -0.000100568 1.87744e-22 -9.96834e-05 -1.2549e-21 -0.00698449)
(-0.0199378 -0.000347202 -1.78905e-20 -0.000770908 -1.16116e-20 -0.00828349)
(-0.0217366 -0.00038002 1.78905e-20 -0.000364968 1.16116e-20 -0.00884064)
(-0.0243103 -0.000310431 -1.69182e-20 -0.00104093 -5.60903e-21 -0.0101405)
(-0.0160445 -4.98605e-05 -1.66137e-23 -8.62545e-05 2.23909e-21 -0.0064523)
(-0.0187531 -0.000232969 5.49131e-20 -0.000789857 3.66953e-20 -0.00781717)
(-0.020646 -0.000266925 -4.80147e-22 -0.000360072 -1.07313e-22 -0.00840243)
(-0.0233509 -0.000264031 -1.55628e-22 -0.0010691 9.14921e-23 -0.00976798)
(-0.0148128 -1.04579e-07 -5.66589e-20 -8.60487e-05 -1.80269e-20 -0.00595956)
(-0.0175831 -0.000120284 -1.78933e-20 -0.000803675 -1.2303e-20 -0.00735471)
(-0.0195208 -0.000155074 3.59144e-20 -0.000361291 2.50559e-20 -0.00795284)
(-0.0222863 -0.000217711 -5.24828e-20 -0.00108501 -1.90697e-20 -0.00934853)
(-0.0136646 4.75949e-05 3.80323e-20 -9.88035e-05 1.22152e-20 -0.00550537)
(-0.0164278 -1.19368e-05 -1.59361e-22 -0.000812589 1.77192e-22 -0.00689616)
(-0.0183622 -4.72654e-05 0 -0.000368547 0 -0.00749232)
(-0.0211197 -0.000172594 -3.04054e-22 -0.00108904 3.80899e-22 -0.00888348)
(-0.0125955 9.2168e-05 1.9162e-20 -0.000123943 6.93546e-21 -0.00508777)
(-0.0152865 8.93437e-05 -1.8604e-20 -0.000816977 -1.329e-20 -0.00644137)
(-0.0171721 5.3757e-05 -1.83009e-20 -0.00038163 -1.36303e-20 -0.0070215)
(-0.0198564 -0.000129791 1.77645e-20 -0.00108189 6.6211e-21 -0.0083753)
(-0.0115987 0.000132602 2.53338e-22 -0.000160586 -1.80976e-21 -0.00470373)
(-0.0141577 0.000180946 2.54214e-22 -0.000817366 2.33202e-22 -0.00599002)
(-0.0159529 0.000145356 3.68688e-20 -0.000400189 2.75062e-20 -0.00654122)
(-0.0185042 -9.03824e-05 1.77773e-20 -0.00106459 7.48343e-21 -0.00782752)
(-0.0106655 0.000167964 -1.93325e-20 -0.000207578 -7.33421e-21 -0.00434922)
(-0.0130395 0.000260437 -5.64161e-20 -0.000814441 -4.287e-20 -0.0055416)
(-0.0147075 0.000225058 1.8676e-20 -0.000423771 1.42697e-20 -0.00605251)
(-0.0170733 -5.53926e-05 -1.81793e-20 -0.00103849 -7.21678e-21 -0.00724471)
(-0.00978467 0.000197429 -1.96306e-20 -0.000263482 -6.75662e-21 -0.00401926)
(-0.0119296 0.000325613 1.43163e-22 -0.000808999 -1.55166e-22 -0.00509543)
(-0.0134396 0.0002906 1.90139e-20 -0.000451789 1.48655e-20 -0.00555654)
(-0.0155757 -2.57774e-05 3.66107e-20 -0.00100519 1.45559e-20 -0.00663235)
(-0.00894361 0.000220296 1.9407e-20 -0.000326715 7.49933e-21 -0.00370813)
(-0.0108249 0.000374569 0 -0.000802073 0 -0.00465079)
(-0.0121531 0.000339971 -1.86339e-20 -0.000483672 -1.4797e-20 -0.0050547)
(-0.0140255 -2.40425e-06 1.8169e-20 -0.000966662 7.41558e-21 -0.00599685)
(-0.00812781 0.000236037 -1.95352e-20 -0.000395402 -7.8414e-21 -0.00340928)
(-0.00972185 0.000405745 1.91545e-20 -0.000794668 1.5548e-20 -0.00420661)
(-0.0108522 0.00037143 0 -0.000518629 0 -0.00454834)
(-0.0124381 1.39266e-05 -1.8491e-20 -0.000925002 -7.7531e-21 -0.00534522)
(-0.00732222 0.00024435 1.95352e-20 -0.000467913 7.83824e-21 -0.00311605)
(-0.0086171 0.000418058 -1.91545e-20 -0.000788483 -1.5548e-20 -0.00376223)
(-0.009542 0.000383487 -1.88754e-20 -0.000556425 -1.58374e-20 -0.00403937)
(-0.010831 2.24738e-05 1.31089e-22 -0.000882993 -6.74921e-22 -0.0046856)
(-0.00650969 0.000245174 1.96367e-20 -0.000542115 8.15344e-21 -0.00282072)
(-0.00750468 0.000410868 0 -0.000784344 0 -0.00331561)
(-0.00822525 0.000374921 3.76128e-20 -0.000595771 3.18197e-20 -0.00352841)
(-0.00922143 2.24922e-05 -1.87774e-20 -0.000843071 -8.03304e-21 -0.0040258)
(-0.00567691 0.000239086 -5.91317e-20 -0.000617582 -2.41928e-20 -0.0025178)
(-0.00638329 0.000384438 1.93135e-20 -0.000786263 1.65184e-20 -0.00286782)
(-0.00690979 0.000344586 1.89842e-20 -0.000638604 1.64911e-20 -0.00301936)
(-0.00763223 1.29523e-05 -1.8692e-20 -0.000810086 -8.28308e-21 -0.00337693)
(-0.00480123 0.000225894 3.92101e-20 -0.000691544 1.71823e-20 -0.00219711)
(-0.005236 0.000338556 -2.88566e-22 -0.000790228 2.925e-22 -0.00241049)
(-0.00558687 0.000292479 -1.93135e-20 -0.000678428 -1.65165e-20 -0.00250612)
(-0.00607573 -6.32561e-06 -1.92409e-22 -0.00078612 3.77759e-22 -0.00274474)
(-0.0038896 0.000205871 -1.97359e-20 -0.000767252 -8.64075e-21 -0.00186274)
(-0.00408608 0.000273722 -3.85506e-20 -0.00080717 -3.38158e-20 -0.0019573)
(-0.00428899 0.000220111 3.82527e-20 -0.000724581 3.41165e-20 -0.00200543)
(-0.00459867 -3.53229e-05 -1.85881e-20 -0.000782126 -8.88179e-21 -0.00215232)
(-0.00286339 0.000161437 3.94894e-20 -0.000812267 1.74147e-20 -0.00147026)
(-0.00285746 0.000180576 1.93917e-20 -0.000771363 1.74645e-20 -0.00145153)
(-0.00294133 0.000137646 1.77186e-23 -0.000706483 3.21997e-22 -0.00145913)
(-0.00314664 -5.46038e-05 -1.8784e-20 -0.000768595 -9.09585e-21 -0.00156609)
(-0.00186099 7.97481e-05 8.86372e-21 -0.000773514 8.96611e-21 -0.0010538)
(-0.00179976 5.85236e-05 -1.93905e-20 -0.000689351 -3.49921e-20 -0.000995644)
(-0.00181609 4.32387e-05 -9.49585e-21 -0.000622054 -1.74082e-20 -0.000975257)
(-0.00192197 -3.45752e-05 -4.22173e-22 -0.00069043 -7.5134e-23 -0.00104496)
)
;

boundaryField
{
    plateFix
    {
        type            calculated;
        value           nonuniform List<symmTensor> 4((-0.0661201 -0.0161946 1.11781e-25 -0.0236613 -1.14321e-21 -0.0359126) (-0.05011 -0.00599464 -2.9656e-26 -0.027637 -1.82413e-27 -0.0310988) (-0.0482567 0.0049846 2.96606e-26 -0.0268988 1.82442e-27 -0.0300622) (-0.0561846 0.0140872 -5.11023e-24 -0.0200268 -1.89339e-20 -0.0304845));
    }
    plate
    {
        type            calculated;
        value           nonuniform List<symmTensor> 
168
(
(-0.0503063 -1.34956e-05 5.57211e-25 -0.000411749 -2.28667e-21 -0.0202872)
(-0.0428642 -2.04218e-05 5.65564e-24 -0.000464627 -3.78546e-20 -0.0173315)
(-0.0519005 -1.30892e-05 7.47016e-24 -0.000412372 4.48375e-20 -0.0209251)
(-0.0444049 -1.83381e-05 -5.1682e-24 -0.000465439 4.12469e-20 -0.0179481)
(-0.0541995 -1.28908e-05 -2.02195e-24 -0.000412205 -4.18765e-20 -0.0218447)
(-0.0466602 -1.63141e-05 -1.33432e-23 -0.000465677 4.25857e-20 -0.0188504)
(-0.0550697 -1.34657e-05 -6.21921e-25 -0.000411584 2.61072e-21 -0.0221925)
(-0.0477369 -1.53858e-05 2.95888e-23 -0.000465676 -1.16588e-19 -0.019281)
(-0.055742 -1.55232e-05 -9.82478e-24 -0.000410799 3.51033e-20 -0.0224611)
(-0.0487042 -1.6583e-05 7.54819e-23 -0.000465664 1.08081e-19 -0.0196679)
(-0.0560548 -1.82524e-05 1.14462e-23 -0.000409912 -3.41528e-20 -0.0225859)
(-0.0494106 -1.89145e-05 -9.31169e-23 -0.000465711 -3.24046e-20 -0.0199505)
(-0.056259 -2.15612e-05 -3.40565e-24 -0.000408973 3.21347e-20 -0.0226672)
(-0.0500678 -2.22048e-05 -1.56904e-23 -0.000465863 2.48265e-21 -0.0202135)
(-0.0563608 -2.52296e-05 2.76471e-23 -0.000407985 -5.84084e-20 -0.0227075)
(-0.0506735 -2.61353e-05 1.64847e-22 -0.000466147 1.45983e-22 -0.0204558)
(-0.0564034 -2.91928e-05 -2.91447e-23 -0.000406942 5.28059e-20 -0.0227241)
(-0.0512598 -3.05835e-05 -3.0808e-22 -0.000466575 -5.31312e-20 -0.0206906)
(-0.0563841 -3.33919e-05 3.1195e-23 -0.000405835 -4.90738e-20 -0.022716)
(-0.0518197 -3.54533e-05 1.47387e-22 -0.000467156 6.82817e-20 -0.0209147)
(-0.0563037 -3.78045e-05 3.62425e-23 -0.000404657 2.11551e-20 -0.0226833)
(-0.0523504 -4.07065e-05 4.49586e-23 -0.000467897 -3.62394e-21 -0.0211273)
(-0.0561583 -4.24145e-05 -4.55515e-22 -0.000403408 1.37389e-21 -0.0226247)
(-0.0528457 -4.63218e-05 -5.92235e-25 -0.000468803 7.2506e-22 -0.0213258)
(-0.0559482 -4.72164e-05 3.11956e-22 -0.000402094 1.33639e-21 -0.0225401)
(-0.0533031 -5.22942e-05 -8.69594e-23 -0.000469875 -1.74985e-20 -0.0215092)
(-0.0556763 -5.22086e-05 -5.27241e-22 -0.000400727 2.17392e-20 -0.0224308)
(-0.0537224 -5.86237e-05 -5.34426e-25 -0.000471112 5.24194e-22 -0.0216774)
(-0.0553487 -5.73936e-05 1.25238e-21 -0.000399328 -2.00911e-20 -0.0222992)
(-0.0541054 -6.53135e-05 4.86807e-22 -0.000472509 -9.23023e-21 -0.0218311)
(-0.0549736 -6.27763e-05 -4.86187e-22 -0.000397923 7.75823e-22 -0.0221486)
(-0.054454 -7.2366e-05 -1.44541e-21 -0.00047405 5.50379e-21 -0.0219712)
(-0.0545597 -6.83629e-05 2.0295e-26 -0.000396547 -1.48231e-23 -0.0219825)
(-0.0547691 -7.97804e-05 1.32646e-22 -0.00047571 5.01718e-22 -0.0220979)
(-0.0541163 -7.41601e-05 -2.79984e-23 -0.000395247 1.87041e-20 -0.0218046)
(-0.0550496 -8.75505e-05 -1.0717e-22 -0.000477451 -1.01872e-20 -0.0222108)
(-0.0536527 -8.01764e-05 1.20787e-21 -0.000394081 -1.58337e-20 -0.0216187)
(-0.055291 -9.56609e-05 1.53478e-21 -0.000479216 -1.09514e-20 -0.0223081)
(-0.0531779 -8.64196e-05 -4.47066e-22 -0.00039312 -8.82359e-21 -0.0214284)
(-0.0554856 -0.000104083 1.13962e-21 -0.000480933 9.52385e-24 -0.0223866)
(-0.0527018 -9.28827e-05 2.06273e-23 -0.000392396 1.19981e-20 -0.0212377)
(-0.0556215 -0.000112787 6.22497e-23 -0.000482457 8.95945e-23 -0.0224416)
(-0.0522338 -9.96288e-05 1.23586e-21 -0.00039225 -1.35159e-22 -0.0210504)
(-0.055685 -0.000121668 -1.19414e-21 -0.0004838 -1.057e-20 -0.0224675)
(-0.0517709 -0.000106613 -2.15408e-21 -0.000391905 -1.7144e-20 -0.0208651)
(-0.0556504 -0.000131256 2.19326e-21 -0.00048424 -2.71943e-20 -0.0224539)
(-0.0513443 -0.000113581 2.43477e-21 -0.000392669 8.6326e-21 -0.0206948)
(-0.0554935 -0.000141108 -2.48597e-21 -0.000484783 3.53748e-20 -0.0223913)
(-0.0509906 -0.000120275 -1.98481e-23 -0.000394437 7.74578e-21 -0.020554)
(-0.05521 -0.000150206 2.75521e-21 -0.000484676 -8.88651e-21 -0.0222779)
(-0.0507093 -0.000126736 -2.8243e-21 -0.000397094 -7.82835e-21 -0.0204426)
(-0.0548021 -0.000158519 -2.7816e-21 -0.000483978 1.73234e-20 -0.0221144)
(-0.0504992 -0.000132992 3.14176e-21 -0.000400674 1.78577e-23 -0.02036)
(-0.0542711 -0.000166008 4.69736e-23 -0.000482691 -1.64034e-20 -0.0219015)
(-0.0503567 -0.000139072 -3.04897e-21 -0.00040512 2.80574e-22 -0.0203047)
(-0.0536211 -0.000172636 6.67988e-21 -0.000480783 -1.48789e-20 -0.0216407)
(-0.0502765 -0.000144994 3.63589e-21 -0.000410364 8.01958e-22 -0.0202747)
(-0.0528578 -0.000178389 -6.76264e-21 -0.000478319 -2.16816e-20 -0.0213344)
(-0.0502512 -0.000150759 2.40624e-22 -0.000416347 -2.02929e-20 -0.020267)
(-0.0519889 -0.00018326 -7.51117e-21 -0.000475344 2.11575e-20 -0.0209857)
(-0.0502718 -0.000156361 -3.77339e-21 -0.000422963 1.98355e-20 -0.0202779)
(-0.051024 -0.000187259 7.80027e-21 -0.000471945 -1.55487e-20 -0.0205984)
(-0.0503277 -0.000161781 -8.14104e-21 -0.000430113 -3.96985e-21 -0.0203031)
(-0.049974 -0.000190408 -3.9588e-21 -0.000468215 -2.73317e-20 -0.0201769)
(-0.0504068 -0.000166989 4.08352e-21 -0.000437675 3.87296e-21 -0.0203378)