/*--------------------------------*- C++ -*----------------------------------*\
| =========                 |                                                 |
| \\      /  F ield         | OpenFOAM Extend Project: Open source CFD        |
|  \\    /   O peration     | Version:  1.6-ext                               |
|   \\  /    A nd           | Web:      www.extend-project.de                 |
|    \\/     M anipulation  |                                                 |
\*---------------------------------------------------------------------------*/
FoamFile
{
    version     2.0;
    format      ascii;
    class       volVectorField;
    location    "1";
    object      DU;
}
// * * * * * * * * * * * * * * * * * * * * * * * * * * * * * * * * * * * * * //

dimensions      [0 1 0 0 0 0 0];

internalField   nonuniform List<vector> 
328
(
(-1.51056e-09 -2.94672e-09 0)
(-9.50635e-10 -6.29563e-10 0)
(-9.09624e-10 5.15124e-10 0)
(-1.28503e-09 2.5339e-09 0)
(-4.60011e-09 -7.61322e-09 0)
(-3.14782e-09 -1.91276e-09 0)
(-3.0043e-09 1.43067e-09 0)
(-3.91613e-09 6.44826e-09 0)
(-8.1714e-09 -1.11808e-08 0)
(-6.09502e-09 -3.21639e-09 0)
(-5.80537e-09 2.20635e-09 0)
(-6.97603e-09 9.26417e-09 0)
(-1.2055e-08 -1.38491e-08 0)
(-9.54472e-09 -4.45891e-09 0)
(-9.09081e-09 2.75775e-09 0)
(-1.03235e-08 1.11337e-08 0)
(-1.62971e-08 -1.58678e-08 0)
(-1.35434e-08 -5.61223e-09 0)
(-1.29082e-08 3.05272e-09 0)
(-1.40073e-08 1.22622e-08 0)
(-2.08753e-08 -1.74303e-08 0)
(-1.80105e-08 -6.67269e-09 0)
(-1.71862e-08 3.07712e-09 0)
(-1.80163e-08 1.28064e-08 0)
(-2.58104e-08 -1.86963e-08 0)
(-2.29353e-08 -7.66269e-09 0)
(-2.19176e-08 2.84014e-09 0)
(-2.23778e-08 1.2894e-08 0)
(-3.11154e-08 -1.9787e-08 0)
(-2.82879e-08 -8.61567e-09 0)
(-2.70768e-08 2.35913e-09 0)
(-2.7113e-08 1.26186e-08 0)
(-3.68128e-08 -2.07978e-08 0)
(-3.40608e-08 -9.57191e-09 0)
(-3.26597e-08 1.657e-09 0)
(-3.22524e-08 1.20514e-08 0)
(-4.29243e-08 -2.18017e-08 0)
(-4.02501e-08 -1.05712e-08 0)
(-3.86657e-08 7.55672e-10 0)
(-3.78264e-08 1.12434e-08 0)
(-4.94734e-08 -2.28545e-08 0)
(-4.6864e-08 -1.16495e-08 0)
(-4.51064e-08 -3.25714e-10 0)
(-4.38683e-08 1.02314e-08 0)
(-5.64831e-08 -2.39973e-08 0)
(-5.39181e-08 -1.28363e-08 0)
(-5.2001e-08 -1.57248e-09 0)
(-5.04124e-08 9.04051e-09 0)
(-6.3977e-08 -2.52585e-08 0)
(-6.14359e-08 -1.41531e-08 0)
(-5.93771e-08 -2.97395e-09 0)
(-5.74946e-08 7.6874e-09 0)
(-7.19793e-08 -2.66552e-08 0)
(-6.94472e-08 -1.5613e-08 0)
(-6.72691e-08 -4.52223e-09 0)
(-6.51532e-08 6.18335e-09 0)
(-8.05152e-08 -2.8194e-08 0)
(-7.79866e-08 -1.72204e-08 0)
(-7.57167e-08 -6.21012e-09 0)
(-7.34286e-08 4.53723e-09 0)
(-8.96112e-08 -2.98717e-08 0)
(-8.70926e-08 -1.89706e-08 0)
(-8.47637e-08 -8.02852e-09 0)
(-8.23641e-08 2.75857e-09 0)
(-9.92961e-08 -3.16753e-08 0)
(-9.68065e-08 -2.08497e-08 0)
(-9.44572e-08 -9.96366e-09 0)
(-9.20062e-08 8.60753e-10 0)
(-1.09601e-07 -3.35812e-08 0)
(-1.07171e-07 -2.28337e-08 0)
(-1.04846e-07 -1.19942e-08 0)
(-1.02404e-07 -1.13594e-09 0)
(-1.2056e-07 -3.55545e-08 0)
(-1.18232e-07 -2.48873e-08 0)
(-1.15981e-07 -1.40884e-08 0)
(-1.13609e-07 -3.2014e-09 0)
(-1.3221e-07 -3.75475e-08 0)
(-1.30035e-07 -2.6962e-08 0)
(-1.27914e-07 -1.62018e-08 0)
(-1.25674e-07 -5.29306e-09 0)
(-1.44592e-07 -3.94979e-08 0)
(-1.42629e-07 -2.89949e-08 0)
(-1.40697e-07 -1.82745e-08 0)
(-1.38654e-07 -7.35379e-09 0)
(-1.57753e-07 -4.13279e-08 0)
(-1.56063e-07 -3.09074e-08 0)
(-1.54382e-07 -2.02307e-08 0)
(-1.526e-07 -9.31029e-09 0)
(-1.72277e-07 -4.3005e-08 0)
(-1.70935e-07 -3.26684e-08 0)
(-1.69579e-07 -2.20433e-08 0)
(-1.68136e-07 -1.11399e-08 0)
(-1.87685e-07 -4.43087e-08 0)
(-1.86753e-07 -3.40527e-08 0)
(-1.85782e-07 -2.34874e-08 0)
(-1.84738e-07 -1.26224e-08 0)
(-2.02976e-07 -4.50916e-08 0)
(-2.02471e-07 -3.49062e-08 0)
(-2.01902e-07 -2.4406e-08 0)
(-2.01275e-07 -1.36002e-08 0)
(-2.18173e-07 -4.53461e-08 0)
(-2.18092e-07 -3.52216e-08 0)
(-2.17923e-07 -2.47916e-08 0)
(-2.1771e-07 -1.40655e-08 0)
(-2.33297e-07 -4.50864e-08 0)
(-2.33618e-07 -3.50132e-08 0)
(-2.33826e-07 -2.46587e-08 0)
(-2.34005e-07 -1.40324e-08 0)
(-2.48369e-07 -4.43481e-08 0)
(-2.4905e-07 -3.43172e-08 0)
(-2.49595e-07 -2.40434e-08 0)
(-2.50125e-07 -1.35363e-08 0)
(-2.63408e-07 -4.31879e-08 0)
(-2.64389e-07 -3.31908e-08 0)
(-2.65213e-07 -2.30028e-08 0)
(-2.66033e-07 -1.26334e-08 0)
(-2.78432e-07 -4.16819e-08 0)
(-2.79637e-07 -3.17114e-08 0)
(-2.80664e-07 -2.1614e-08 0)
(-2.81698e-07 -1.13994e-08 0)
(-2.93456e-07 -3.99243e-08 0)
(-2.94792e-07 -2.99744e-08 0)
(-2.95933e-07 -1.99724e-08 0)
(-2.97088e-07 -9.92828e-09 0)
(-3.08492e-07 -3.80253e-08 0)
(-3.09853e-07 -2.80914e-08 0)
(-3.11004e-07 -1.81895e-08 0)
(-3.12177e-07 -8.32965e-09 0)
(-3.23547e-07 -3.61085e-08 0)
(-3.24818e-07 -2.61878e-08 0)
(-3.25866e-07 -1.63906e-08 0)
(-3.26939e-07 -6.72684e-09 0)
(-3.38627e-07 -3.43083e-08 0)
(-3.39684e-07 -2.44e-08 0)
(-3.40507e-07 -1.47119e-08 0)
(-3.41354e-07 -5.25392e-09 0)
(-3.53731e-07 -3.2767e-08 0)
(-3.54443e-07 -2.28723e-08 0)
(-3.54914e-07 -1.32976e-08 0)
(-3.55408e-07 -4.05282e-09 0)
(-3.68857e-07 -3.16315e-08 0)
(-3.69091e-07 -2.17536e-08 0)
(-3.6908e-07 -1.22965e-08 0)
(-3.69086e-07 -3.27009e-09 0)
(-3.83995e-07 -3.10499e-08 0)
(-3.8362e-07 -2.11944e-08 0)
(-3.82997e-07 -1.1859e-08 0)
(-3.82383e-07 -3.05364e-09 0)
(-3.99133e-07 -3.11683e-08 0)
(-3.98019e-07 -2.13429e-08 0)
(-3.96658e-07 -1.21333e-08 0)
(-3.95296e-07 -3.54941e-09 0)
(-4.14255e-07 -3.21277e-08 0)
(-4.12278e-07 -2.23421e-08 0)
(-4.1006e-07 -1.32623e-08 0)
(-4.07826e-07 -4.89811e-09 0)
(-4.29339e-07 -3.40605e-08 0)
(-4.26385e-07 -2.43264e-08 0)
(-4.23198e-07 -1.53805e-08 0)
(-4.19978e-07 -7.23203e-09 0)
(-4.4436e-07 -3.70876e-08 0)
(-4.40328e-07 -2.74187e-08 0)
(-4.36071e-07 -1.86105e-08 0)
(-4.31763e-07 -1.06721e-08 0)
(-4.5929e-07 -4.13158e-08 0)
(-4.54091e-07 -3.17273e-08 0)
(-4.48678e-07 -2.30608e-08 0)
(-4.43195e-07 -1.53249e-08 0)
(-4.74099e-07 -4.68353e-08 0)
(-4.67661e-07 -3.73439e-08 0)
(-4.61021e-07 -2.88228e-08 0)
(-4.5429e-07 -2.12806e-08 0)
(-4.88754e-07 -5.37172e-08 0)
(-4.8102e-07 -4.43408e-08 0)
(-4.73101e-07 -3.59692e-08 0)
(-4.65067e-07 -2.86106e-08 0)
(-5.03219e-07 -6.20124e-08 0)
(-4.94155e-07 -5.27697e-08 0)
(-4.84921e-07 -4.45515e-08 0)
(-4.75548e-07 -3.73656e-08 0)
(-5.17458e-07 -7.17501e-08 0)
(-5.07047e-07 -6.26603e-08 0)
(-4.96483e-07 -5.45995e-08 0)
(-4.85756e-07 -4.7575e-08 0)
(-5.31435e-07 -8.29369e-08 0)
(-5.19682e-07 -7.40195e-08 0)
(-5.07792e-07 -6.612e-08 0)
(-4.95716e-07 -5.92454e-08 0)
(-5.45113e-07 -9.55567e-08 0)
(-5.32042e-07 -8.68309e-08 0)
(-5.18852e-07 -7.90968e-08 0)
(-5.05451e-07 -7.23607e-08 0)
(-5.58457e-07 -1.09571e-07 0)
(-5.44114e-07 -1.01056e-07 0)
(-5.29666e-07 -9.34908e-08 0)
(-5.14986e-07 -8.68826e-08 0)
(-5.71433e-07 -1.24919e-07 0)
(-5.55881e-07 -1.16632e-07 0)
(-5.40238e-07 -1.09241e-07 0)
(-5.24343e-07 -1.02751e-07 0)
(-5.84009e-07 -1.4152e-07 0)
(-5.67329e-07 -1.33479e-07 0)
(-5.50573e-07 -1.26265e-07 0)
(-5.33544e-07 -1.19884e-07 0)
(-5.96156e-07 -1.59275e-07 0)
(-5.78447e-07 -1.51495e-07 0)
(-5.60672e-07 -1.44463e-07 0)
(-5.42608e-07 -1.38183e-07 0)
(-6.07849e-07 -1.78067e-07 0)
(-5.89222e-07 -1.70562e-07 0)
(-5.70538e-07 -1.63715e-07 0)
(-5.5155e-07 -1.57532e-07 0)
(-6.19066e-07 -1.97766e-07 0)
(-5.99644e-07 -1.90548e-07 0)
(-5.80171e-07 -1.83891e-07 0)
(-5.60384e-07 -1.77799e-07 0)
(-6.29788e-07 -2.18229e-07 0)
(-6.09704e-07 -2.11308e-07 0)
(-5.89573e-07 -2.04844e-07 0)
(-5.6912e-07 -1.98842e-07 0)
(-6.40002e-07 -2.39305e-07 0)
(-6.19395e-07 -2.32689e-07 0)
(-5.98742e-07 -2.26423e-07 0)
(-5.77761e-07 -2.20512e-07 0)
(-6.49698e-07 -2.60839e-07 0)
(-6.2871e-07 -2.54534e-07 0)
(-6.07676e-07 -2.48469e-07 0)
(-5.8631e-07 -2.4265e-07 0)
(-6.58872e-07 -2.82673e-07 0)
(-6.37647e-07 -2.76681e-07 0)
(-6.16371e-07 -2.70822e-07 0)
(-5.94764e-07 -2.651e-07 0)
(-6.67523e-07 -3.04649e-07 0)
(-6.46202e-07 -2.98971e-07 0)
(-6.24823e-07 -2.93321e-07 0)
(-6.03116e-07 -2.87702e-07 0)
(-6.75656e-07 -3.26614e-07 0)
(-6.54374e-07 -3.2125e-07 0)
(-6.33025e-07 -3.15813e-07 0)
(-6.11354e-07 -3.10306e-07 0)
(-6.83278e-07 -3.48424e-07 0)
(-6.62164e-07 -3.4337e-07 0)
(-6.40971e-07 -3.38148e-07 0)
(-6.19464e-07 -3.32763e-07 0)
(-6.90401e-07 -3.69942e-07 0)
(-6.69573e-07 -3.65193e-07 0)
(-6.48652e-07 -3.60191e-07 0)
(-6.27428e-07 -3.54939e-07 0)
(-6.97039e-07 -3.91047e-07 0)
(-6.76603e-07 -3.86596e-07 0)
(-6.56059e-07 -3.81816e-07 0)
(-6.35223e-07 -3.76711e-07 0)
(-7.03212e-07 -4.1163e-07 0)
(-6.83259e-07 -4.07469e-07 0)
(-6.63181e-07 -4.02915e-07 0)
(-6.42826e-07 -3.97972e-07 0)
(-7.08939e-07 -4.31602e-07 0)
(-6.89546e-07 -4.27722e-07 0)
(-6.70009e-07 -4.23396e-07 0)
(-6.50209e-07 -4.18629e-07 0)
(-7.14242e-07 -4.50891e-07 0)
(-6.95467e-07 -4.4728e-07 0)
(-6.7653e-07 -4.43186e-07 0)
(-6.57346e-07 -4.3861e-07 0)
(-7.19143e-07 -4.69443e-07 0)
(-7.01029e-07 -4.66092e-07 0)
(-6.82734e-07 -4.62231e-07 0)
(-6.64207e-07 -4.57863e-07 0)
(-7.23667e-07 -4.87227e-07 0)
(-7.06237e-07 -4.84124e-07 0)
(-6.88608e-07 -4.80499e-07 0)
(-6.70763e-07 -4.76353e-07 0)
(-7.27835e-07 -5.04228e-07 0)
(-7.11097e-07 -5.01363e-07 0)
(-6.94142e-07 -4.97976e-07 0)
(-6.76985e-07 -4.94068e-07 0)
(-7.31671e-07 -5.20455e-07 0)
(-7.15614e-07 -5.17817e-07 0)
(-6.99323e-07 -5.14669e-07 0)
(-6.82846e-07 -5.11013e-07 0)
(-7.35194e-07 -5.3593e-07 0)
(-7.19793e-07 -5.3351e-07 0)
(-7.04143e-07 -5.30604e-07 0)
(-6.88319e-07 -5.27213e-07 0)
(-7.38423e-07 -5.50698e-07 0)
(-7.23639e-07 -5.48488e-07 0)
(-7.08592e-07 -5.45824e-07 0)
(-6.93381e-07 -5.42709e-07 0)
(-7.41373e-07 -5.64814e-07 0)
(-7.27153e-07 -5.62806e-07 0)
(-7.1266e-07 -5.60387e-07 0)
(-6.98011e-07 -5.57558e-07 0)
(-7.44057e-07 -5.78349e-07 0)
(-7.30339e-07 -5.76539e-07 0)
(-7.1634e-07 -5.74365e-07 0)
(-7.02192e-07 -5.7183e-07 0)
(-7.46481e-07 -5.91382e-07 0)
(-7.33197e-07 -5.89766e-07 0)
(-7.19627e-07 -5.87839e-07 0)
(-7.05911e-07 -5.85603e-07 0)
(-7.48651e-07 -6.04e-07 0)
(-7.35728e-07 -6.02577e-07 0)
(-7.22517e-07 -6.00899e-07 0)
(-7.09159e-07 -5.98965e-07 0)
(-7.50566e-07 -6.16292e-07 0)
(-7.37928e-07 -6.15065e-07 0)
(-7.25005e-07 -6.13637e-07 0)
(-7.11932e-07 -6.12006e-07 0)
(-7.52221e-07 -6.2835e-07 0)
(-7.39795e-07 -6.27322e-07 0)
(-7.2709e-07 -6.26146e-07 0)
(-7.14232e-07 -6.24816e-07 0)
(-7.53607e-07 -6.4026e-07 0)
(-7.41323e-07 -6.39437e-07 0)
(-7.28773e-07 -6.38518e-07 0)
(-7.16066e-07 -6.37486e-07 0)
(-7.54707e-07 -6.52104e-07 0)
(-7.42499e-07 -6.51495e-07 0)
(-7.30048e-07 -6.50832e-07 0)
(-7.17441e-07 -6.50091e-07 0)
(-7.55516e-07 -6.63959e-07 0)
(-7.4333e-07 -6.6357e-07 0)
(-7.30934e-07 -6.63157e-07 0)
(-7.1839e-07 -6.62694e-07 0)
(-7.55981e-07 -6.75955e-07 0)
(-7.43784e-07 -6.75744e-07 0)
(-7.31407e-07 -6.75526e-07 0)
(-7.18898e-07 -6.75266e-07 0)
)
;

boundaryField
{
    plateFix
    {
        type            fixedDisplacement;
        value           uniform (0 0 0);
    }
    plate
    {
        type            solidTraction;
        nonLinear       updatedLagrangian;
        traction        nonuniform List<vector> 
168
(
(2.57029e-05 7.49643e-05 3.83951e-20)
(2.57395e-05 -7.66651e-05 -3.76321e-20)
(-0.000108309 -6.76526e-05 -4.69482e-20)
(-0.0001013 5.99434e-05 4.46203e-20)
(-0.000559458 -0.000246549 2.56763e-21)
(-0.000538385 0.000235312 3.99694e-20)
(-0.00125925 -0.000389828 4.24138e-20)
(-0.00121998 0.000376766 -8.07619e-20)
(-0.00215407 -0.000479624 -2.34731e-21)
(-0.00209424 0.000465809 3.80169e-20)
(-0.00319494 -0.000518913 0)
(-0.00311329 0.000504866 -1.73842e-23)
(-0.00433143 -0.000520233 -3.27588e-20)
(-0.00422757 0.000505986 0)
(-0.00551949 -0.00049777 6.04843e-20)
(-0.00539365 0.000482995 -2.98664e-23)
(-0.00672464 -0.000463447 -2.78086e-20)
(-0.0065773 0.000447601 -2.80616e-20)
(-0.00792208 -0.00042591 -3.20949e-21)
(-0.00775379 0.000408343 2.23772e-20)
(-0.00909591 -0.000390694 2.86493e-21)
(-0.0089071 0.000370733 0)
(-0.0102377 -0.000360844 0)
(-0.0100286 0.000337832 0)
(-0.0113446 -0.000337598 -7.24016e-23)
(-0.0111152 0.000310913 0)
(-0.0124177 -0.000320983 0)
(-0.0121678 0.000290045 0)
(-0.0134596 -0.000310271 1.14232e-22)
(-0.013189 0.000274537 0)
(-0.0144733 -0.000304294 -3.11581e-21)
(-0.0141817 0.000263254 1.01866e-22)
(-0.0154603 -0.000301639 -1.12507e-20)
(-0.0151476 0.000254819 1.13067e-20)
(-0.016419 -0.000300708 4.9524e-21)
(-0.0160854 0.000247679 -1.01495e-20)
(-0.0173462 -0.000299767 1.69815e-20)
(-0.0169923 0.000240174 0)
(-0.0182274 -0.000296668 -1.60711e-23)
(-0.0178546 0.000230257 0)
(-0.0190667 -0.000288186 -2.52241e-20)
(-0.0186773 0.000214966 -1.59363e-20)
(-0.0197925 -0.000275317 -4.41744e-23)
(-0.0193925 0.000195073 5.53317e-21)
(-0.0206505 -0.000228142 1.82452e-20)
(-0.0202352 0.00014175 -9.21109e-21)
(-0.0215466 -0.000173259 -8.66342e-21)
(-0.0211115 7.89218e-05 9.37407e-21)
(-0.0222939 -0.000164452 -8.93859e-21)
(-0.0218481 6.03748e-05 2.78194e-22)
(-0.0230041 -0.000151305 8.40493e-21)
(-0.0225494 3.79535e-05 0)
(-0.023629 -0.000148116 -2.64253e-22)
(-0.0231705 2.54293e-05 -8.68451e-21)
(-0.0242104 -0.000142117 2.05058e-25)
(-0.0237516 1.03636e-05 8.29415e-21)
(-0.0247276 -0.000138297 -2.54099e-22)
(-0.0242735 -2.2805e-06 -2.60359e-22)
(-0.0251939 -0.000133297 8.11669e-21)
(-0.0247494 -1.57597e-05 5.10424e-22)
(-0.0256011 -0.000128417 -8.11859e-21)
(-0.0251717 -2.86819e-05 2.49823e-22)
(-0.0259515 -0.000122673 3.74895e-21)
(-0.0255432 -4.19509e-05 -4.1061e-21)
(-0.0262405 -0.000116292 -3.75302e-21)
(-0.0258598 -5.52397e-05 7.87383e-21)
(-0.0264665 -0.000108922 0)
(-0.0261205 -6.88128e-05 -3.54029e-21)
(-0.0266255 -0.000100537 0)
(-0.0263217 -8.26062e-05 3.57326e-21)
(-0.0267143 -9.09791e-05 4.82441e-25)
(-0.0264609 -9.66946e-05 -3.7978e-21)
(-0.0267292 -8.01934e-05 0)
(-0.0265346 -0.000111059 3.79329e-21)
(-0.0266664 -6.81091e-05 -3.11808e-21)
(-0.0265396 -0.000125703 -1.11848e-22)
(-0.0265224 -5.47007e-05 3.09914e-22)
(-0.0264724 -0.000140599 -3.66143e-21)
(-0.0262936 -3.9959e-05 3.00544e-21)
(-0.0263298 -0.000155712 0)
(-0.0259769 -2.39059e-05 -2.58838e-21)
(-0.0261085 -0.000170992 -2.91722e-21)
(-0.0255694 -6.58904e-06 4.64027e-22)
(-0.0258054 -0.000186378 2.91964e-21)
(-0.0250687 1.19191e-05 2.64654e-21)
(-0.0254177 -0.000201796 1.71353e-22)
(-0.024473 3.15208e-05 -2.39691e-21)
(-0.024943 -0.000217162 2.55982e-21)
(-0.0237808 5.2096e-05 2.54557e-21)
(-0.0243791 -0.000232383 3.26504e-23)
(-0.0229916 7.35048e-05 -2.77992e-22)
(-0.0237243 -0.000247357 -2.29118e-21)
(-0.0221052 9.559e-05 2.02237e-21)
(-0.0229774 -0.000261977 -2.05181e-21)
(-0.0211224 0.000118183 -3.55323e-21)
(-0.0221377 -0.000276128 4.26401e-21)
(-0.0200445 0.000141102 1.67053e-21)
(-0.0212051 -0.000289696 -2.07185e-21)
(-0.0188736 0.000164165 -1.43639e-21)
(-0.02018 -0.000302565 -2.35864e-22)
(-0.0176124 0.000187184 1.85348e-21)
(-0.0190634 -0.000314621 -2.20698e-22)
(-0.0162642 0.000209978 1.23001e-21)
(-0.0178568 -0.000325756 0)
(-0.0148332 0.000232372 -1.58549e-21)
(-0.0165625 -0.000335867 1.46912e-21)
(-0.0133236 0.000254203 1.5536e-22)
(-0.015183 -0.000344861 -1.47045e-21)
(-0.0117407 0.00027532 0)
(-0.0137217 -0.000352656 0)
(-0.0100897 0.000295593 -1.30097e-22)
(-0.0121822 -0.000359183 -7.51298e-23)
(-0.00837625 0.00031491 -1.15345e-22)
(-0.0105687 -0.000364389 -5.14628e-22)
(-0.00660638 0.000333182 3.88491e-22)
(-0.00888564 -0.000368237 5.15073e-22)
(-0.00478612 0.000350342 -3.87069e-22)
(-0.00713782 -0.000370706 -4.15743e-22)
(-0.00292158 0.000366348 -8.22116e-23)
(-0.00533027 -0.000371797 3.68004e-22)
(-0.00101882 0.000381183 2.59943e-22)
(-0.00346818 -0.000371526 -8.67998e-23)
(0.000916217 0.000394855 -3.7684e-23)
(-0.0015568 -0.000369931 0)
(0.00287782 0.000407396 -1.71652e-22)
(0.000398633 -0.000367067 3.22138e-23)
(0.00486058 0.000418865 0)
(0.00239299 -0.000363014 -2.11352e-22)
(0.0068595 0.000429343 3.55038e-23)
(0.00442135 -0.000357865 2.3673e-22)
(0.00887005 0.00043894 0)
(0.00647908 -0.000351742 0)
(0.0108883 0.000447792 2.46494e-23)
(0.008562 -0.000344784 0)
(0.012911 0.000456069 1.77225e-23)
(0.0106664 -0.000337163 0)
(0.0149358 0.000463973 1.33814e-23)
(0.0127894 -0.000329075 1.2034e-23)
(0.0169613 0.000471764 -9.84212e-24)
(0.014929 -0.00032077 4.13797e-23)
(0.0189871 0.000479745 -2.10407e-23)
(0.0170841 -0.000312537 -4.55689e-23)
(0.0210149 0.00048836 2.66013e-23)
(0.0192554 -0.000304795 0)
(0.0230477 0.000498137 -3.11119e-24)
(0.0214453 -0.000298046 5.40399e-24)
(0.0250923 0.000510068 -3.53526e-24)
(0.0236597 -0.000293234 -7.57073e-24)
(0.0271584 0.000525504 -8.05574e-24)
(0.0259079 -0.000291678 3.16051e-24)
(0.0292645 0.00054814 -1.31826e-23)
(0.0282075 -0.000297017 0)
(0.0314395 0.000584304 9.58911e-24)
(0.0305878 -0.00031562 -1.33242e-24)
(0.0337364 0.000657738 -9.60204e-24)
(0.0331014 -0.000371484 -8.53732e-24)
(0.0362797 0.000813349 1.55119e-23)
(0.0358769 -0.000510032 -9.20512e-24)
(0.0392336 0.00126582 2.95678e-23)
(0.0390812 -0.000948637 0)
(0.0435091 0.00240736 -3.67497e-23)
(0.0436478 -0.00208053 1.53745e-23)
(0.0495249 0.00687542 0)
(0.0100401 0.00540844 0)
(-0.000633338 -0.00274225 -2.26918e-23)
(-0.000609231 0.00306016 -2.30294e-23)
(0.0102476 -0.00515346 5.12373e-23)
(0.0499145 -0.00655397 0)
)
;
        pressure        nonuniform List<scalar> 
168
(
-0.468373
-0.473203
-0.468989
-0.473803
-0.46967
-0.474472
-0.47034
-0.475135
-0.470931
-0.475726
-0.471371
-0.47617
-0.471611
-0.476421
-0.471623
-0.476452
-0.471394
-0.476247
-0.470918
-0.475803
-0.470193
-0.475118
-0.469218
-0.47419
-0.467986
-0.473013
-0.466486
-0.471578
-0.464698
-0.469866
-0.462595
-0.467853
-0.460143
-0.465505
-0.4573
-0.462784
-0.454023
-0.459648
-0.450249
-0.456036
-0.445982
-0.451954
-0.441013
-0.447197
-0.435635
-0.442049
-0.428986
-0.435689
-0.422242
-0.429238
-0.41496
-0.42227
-0.407437
-0.415072
-0.399507
-0.407484
-0.391274
-0.399605
-0.382689
-0.391388
-0.373786
-0.382866
-0.364557
-0.37403
-0.355015
-0.364892
-0.345165
-0.355458
-0.33502
-0.345736
-0.32459
-0.335738
-0.313891
-0.325475
-0.302938
-0.314961
-0.291751
-0.304212
-0.280351
-0.293247
-0.268765
-0.282086
-0.257018
-0.270751
-0.245141
-0.259268
-0.233166
-0.247663
-0.221128
-0.235966
-0.209063
-0.224207
-0.197011
-0.21242
-0.185011
-0.200638
-0.173104
-0.188896
-0.161332
-0.177233
-0.149735
-0.165684
-0.138357
-0.154288
-0.127236
-0.143082
-0.116414
-0.132105
-0.105927
-0.121393
-0.0958118
-0.110982
-0.0861027
-0.100908
-0.0768309
-0.0912031
-0.0680249
-0.0819007
-0.0597107
-0.07303
-0.051911
-0.064619
-0.0446456
-0.0566933
-0.0379313
-0.0492761
-0.0317818
-0.0423885
-0.0262083
-0.036049
-0.0212192
-0.0302739
-0.0168204
-0.0250773
-0.0130159
-0.0204716
-0.00980803
-0.0164672
-0.00719764
-0.0130731
-0.00518523
-0.0102977
-0.0037704
-0.00814847
-0.00295495
-0.0066345
-0.00273974
-0.00576394
-0.00313398
-0.00555248
-0.00414431
-0.00601403
-0.00580145
-0.00718475
-0.00814378
-0.00911228
-0.0112414
-0.0118712
-0.0154622
-0.0158508
-0.0205867
-0.0208365
-0.0310564
-0.0608306
-0.0369407
-0.0370269
-0.0611671
-0.031394
)
;
        value           nonuniform List<vector> 
168
(
(-1.44979e-08 -7.91662e-09 1.14305e-27)
(-1.23527e-08 6.74888e-09 -1.89551e-26)
(-1.4234e-08 -1.2742e-08 -2.23857e-26)
(-1.18146e-08 1.0818e-08 2.06359e-26)
(-1.49754e-08 -1.65391e-08 2.09083e-26)
(-1.21116e-08 1.38602e-08 2.12975e-26)
(-1.68212e-08 -1.92942e-08 -1.33902e-27)
(-1.33938e-08 1.5838e-08 -5.82943e-26)
(-1.96899e-08 -2.13801e-08 -1.75322e-26)
(-1.56124e-08 1.70636e-08 5.40823e-26)
(-2.33703e-08 -2.2974e-08 1.7073e-26)
(-1.85923e-08 1.76787e-08 -1.62475e-26)
(-2.77448e-08 -2.42605e-08 -1.60599e-26)
(-2.22398e-08 1.78323e-08 1.2219e-27)
(-3.272e-08 -2.53614e-08 2.9185e-26)
(-2.64822e-08 1.76178e-08 1.19034e-28)
(-3.82439e-08 -2.63767e-08 -2.63855e-26)
(-3.1284e-08 1.71093e-08 -2.66123e-26)
(-4.4284e-08 -2.73789e-08 2.4532e-26)
(-3.66283e-08 1.63575e-08 3.41631e-26)
(-5.08249e-08 -2.8424e-08 -1.0561e-26)
(-4.25148e-08 1.53987e-08 -1.81452e-27)
(-5.78615e-08 -2.95527e-08 -7.71241e-28)
(-4.89547e-08 1.42574e-08 3.71381e-28)
(-6.53972e-08 -3.07932e-08 -6.06491e-28)
(-5.59687e-08 1.29501e-08 -8.74573e-27)
(-7.34411e-08 -3.21631e-08 -1.09666e-26)
(-6.35853e-08 1.14879e-08 2.62217e-28)
(-8.2008e-08 -3.36696e-08 1.02573e-26)
(-7.18405e-08 9.8801e-09 -4.61132e-27)
(-9.1117e-08 -3.53103e-08 -4.76167e-28)
(-8.07761e-08 8.13624e-09 2.72593e-27)
(-1.00791e-07 -3.70729e-08 7.50809e-30)
(-9.04396e-08 6.26985e-09 2.69736e-28)
(-1.11058e-07 -3.89348e-08 -9.35055e-27)
(-1.00882e-07 4.30106e-09 -5.05351e-27)
(-1.21947e-07 -4.08621e-08 8.1019e-27)
(-1.1216e-07 2.25954e-09 -5.48159e-27)
(-1.33493e-07 -4.28077e-08 4.35616e-27)
(-1.24328e-07 1.87087e-10 -2.23871e-29)
(-1.45737e-07 -4.47106e-08 -6.00977e-27)
(-1.37444e-07 -1.86037e-09 2.39036e-29)
(-1.58722e-07 -4.64937e-08 2.25622e-28)
(-1.51561e-07 -3.81092e-09 -5.20685e-27)
(-1.73025e-07 -4.81243e-08 8.30251e-27)
(-1.67311e-07 -5.64443e-09 -1.36515e-26)
(-1.88179e-07 -4.93847e-08 -3.99051e-27)
(-1.84161e-07 -7.1431e-09 1.77333e-26)
(-2.03207e-07 -5.01315e-08 -3.86503e-27)
(-2.00955e-07 -8.14982e-09 -4.53824e-27)
(-2.18143e-07 -5.03569e-08 3.64755e-27)
(-2.17645e-07 -8.65654e-09 8.82806e-27)
(-2.33018e-07 -5.00749e-08 2.82466e-28)
(-2.34182e-07 -8.67707e-09 -8.19967e-27)
(-2.47863e-07 -4.9321e-08 -4.06142e-28)
(-2.50521e-07 -8.24638e-09 -7.58348e-27)
(-2.6271e-07 -4.81513e-08 -1.63998e-28)
(-2.66615e-07 -7.42009e-09 -1.06412e-26)
(-2.77583e-07 -4.66414e-08 1.01995e-26)
(-2.82423e-07 -6.27318e-09 1.07542e-26)
(-2.92508e-07 -4.48845e-08 -1.0244e-26)
(-2.97906e-07 -4.89845e-09 -7.90138e-27)
(-3.07502e-07 -4.29898e-08 1.5258e-27)
(-3.13028e-07 -3.40452e-09 -1.35797e-26)
(-3.22581e-07 -4.10797e-08 -1.62816e-27)
(-3.27759e-07 -1.91338e-09 1.06672e-26)
(-3.37753e-07 -3.92876e-08 -2.33185e-28)
(-3.42075e-07 -5.57741e-10 7.06958e-27)
(-3.53023e-07 -3.77542e-08 -3.27345e-27)
(-3.55956e-07 5.21932e-10 1.15491e-26)
(-3.68387e-07 -3.66251e-08 1.87515e-28)
(-3.6939e-07 1.18059e-09 4.35971e-27)
(-3.83838e-07 -3.60471e-08 -6.3335e-27)
(-3.82367e-07 1.27184e-09 -2.4739e-27)
(-3.9936e-07 -3.61647e-08 6.83094e-27)
(-3.94889e-07 6.51212e-10 7.00413e-27)
(-4.14934e-07 -3.71177e-08 -1.11017e-28)
(-4.0696e-07 -8.20562e-10 -9.90099e-27)
(-4.30533e-07 -3.9037e-08 1.35861e-27)
(-4.1859e-07 -3.27443e-09 6.16058e-27)
(-4.46127e-07 -4.20424e-08 -4.55554e-27)
(-4.29796e-07 -6.83005e-09 -7.37294e-27)
(-4.6168e-07 -4.62397e-08 3.60688e-27)
(-4.40599e-07 -1.1593e-08 -3.8403e-27)
(-4.77151e-07 -5.1718e-08 -1.65461e-27)
(-4.51025e-07 -1.76526e-08 -5.01543e-27)
(-4.92499e-07 -5.85479e-08 -4.14513e-27)
(-4.61103e-07 -2.50792e-08 -3.36106e-27)
(-5.07677e-07 -6.67795e-08 6.3217e-27)
(-4.70865e-07 -3.39233e-08 -3.84891e-29)
(-5.22639e-07 -7.64417e-08 1.48591e-27)
(-4.80345e-07 -4.42138e-08 -6.8177e-27)
(-5.37336e-07 -8.7541e-08 9.7411e-28)
(-4.89579e-07 -5.59572e-08 1.73783e-28)
(-5.51721e-07 -1.00061e-07 8.49812e-28)
(-4.98602e-07 -6.91377e-08 1.56841e-27)
(-5.65748e-07 -1.13964e-07 -5.2479e-27)
(-5.0745e-07 -8.3717e-08 -2.14537e-27)
(-5.79371e-07 -1.2919e-07 2.57164e-27)
(-5.16155e-07 -9.96356e-08 -2.65008e-28)
(-5.9255e-07 -1.45659e-07 2.19452e-27)
(-5.24749e-07 -1.16813e-07 7.21179e-27)
(-6.05246e-07 -1.63272e-07 4.72714e-27)
(-5.3326e-07 -1.35151e-07 4.49606e-27)
(-6.17426e-07 -1.81914e-07 -4.64912e-29)
(-5.41712e-07 -1.54534e-07 -2.53635e-27)
(-6.29062e-07 -2.01455e-07 4.61037e-27)
(-5.50123e-07 -1.74833e-07 6.29083e-27)
(-6.4013e-07 -2.21754e-07 4.36344e-28)
(-5.58508e-07 -1.95906e-07 1.31408e-28)
(-6.50614e-07 -2.42662e-07 -4.39096e-27)
(-5.66877e-07 -2.17605e-07 7.97051e-27)
(-6.60502e-07 -2.64026e-07 9.34264e-28)
(-5.75231e-07 -2.39773e-07 1.9895e-29)
(-6.69789e-07 -2.85687e-07 2.55732e-27)
(-5.8357e-07 -2.62255e-07 -3.26695e-27)
(-6.78475e-07 -3.0749e-07 -2.47041e-28)
(-5.91883e-07 -2.84894e-07 -1.44657e-27)
(-6.86569e-07 -3.29284e-07 -1.22855e-26)
(-6.00158e-07 -3.07538e-07 4.31675e-27)
(-6.94082e-07 -3.50924e-07 2.82063e-27)
(-6.08375e-07 -3.30043e-07 -4.90516e-27)
(-7.01031e-07 -3.72277e-07 9.22295e-27)
(-6.16509e-07 -3.52274e-07 -1.75888e-30)
(-7.07439e-07 -3.93222e-07 1.13969e-26)
(-6.24533e-07 -3.74109e-07 2.48921e-28)
(-7.13331e-07 -4.13651e-07 -5.18815e-27)
(-6.32414e-07 -3.9544e-07 -1.06962e-28)
(-7.18737e-07 -4.33475e-07 1.24146e-27)
(-6.40117e-07 -4.16178e-07 -5.37192e-27)
(-7.23687e-07 -4.52623e-07 1.05815e-27)
(-6.47604e-07 -4.3625e-07 5.76838e-27)
(-7.28215e-07 -4.71042e-07 -2.24712e-27)
(-6.54837e-07 -4.55603e-07 -9.26579e-29)
(-7.32354e-07 -4.88699e-07 -1.98595e-26)
(-6.61776e-07 -4.74203e-07 1.7957e-26)
(-7.36135e-07 -5.05582e-07 1.40831e-26)
(-6.68383e-07 -4.92038e-07 6.5482e-28)
(-7.39592e-07 -5.21697e-07 6.83971e-27)
(-6.74621e-07 -5.09111e-07 -6.48512e-27)
(-7.42753e-07 -5.37068e-07 2.04125e-27)
(-6.80455e-07 -5.25447e-07 -6.22019e-27)
(-7.45644e-07 -5.51736e-07 -7.21199e-27)
(-6.85853e-07 -5.41087e-07 7.13065e-27)
(-7.48288e-07 -5.65758e-07 -8.35884e-27)
(-6.90787e-07 -5.56086e-07 -1.43695e-26)
(-7.50702e-07 -5.79201e-07 7.40745e-27)
(-6.95235e-07 -5.70512e-07 -7.46331e-27)
(-7.529e-07 -5.92145e-07 -7.7463e-27)
(-6.9918e-07 -5.84443e-07 7.69359e-27)
(-7.54886e-07 -6.04675e-07 7.74947e-27)
(-7.0261e-07 -5.97964e-07 -5.26786e-28)
(-7.56663e-07 -6.16879e-07 8.07663e-27)
(-7.0552e-07 -6.11165e-07 7.94927e-27)
(-7.58224e-07 -6.28847e-07 -2.49802e-26)
(-7.07911e-07 -6.24134e-07 8.17727e-27)
(-7.59559e-07 -6.40661e-07 1.60475e-26)
(-7.09795e-07 -6.36959e-07 5.56429e-28)
(-7.60648e-07 -6.52407e-07 -8.52064e-27)
(-7.11186e-07 -6.49713e-07 8.06266e-27)
(-7.61497e-07 -6.64154e-07 1.72191e-26)
(-7.12142e-07 -6.62463e-07 8.35105e-27)
(-7.62061e-07 -6.76051e-07 8.9217e-27)
(-7.56091e-07 -6.82072e-07 -1.0764e-26)
(-7.43898e-07 -6.81902e-07 1.95892e-26)
(-7.31529e-07 -6.81757e-07 9.58815e-27)
(-7.1902e-07 -6.81493e-07 -5.77909e-28)
(-7.1269e-07 -6.75156e-07 8.88289e-29)
)
;
    }
    frontAndBackPlanes
    {
        type            empty;
    }
}


// ************************************************************************* //
