/*--------------------------------*- C++ -*----------------------------------*\
| =========                 |                                                 |
| \\      /  F ield         | OpenFOAM Extend Project: Open source CFD        |
|  \\    /   O peration     | Version:  1.6-ext                               |
|   \\  /    A nd           | Web:      www.extend-project.de                 |
|    \\/     M anipulation  |                                                 |
\*---------------------------------------------------------------------------*/
FoamFile
{
    version     2.0;
    format      ascii;
    class       volVectorField;
    location    "1";
    object      DU_0;
}
// * * * * * * * * * * * * * * * * * * * * * * * * * * * * * * * * * * * * * //

dimensions      [0 1 0 0 0 0 0];

internalField   nonuniform List<vector> 
328
(
(-1.61371e-09 -3.15164e-09 0)
(-1.02578e-09 -6.72987e-10 0)
(-9.89746e-10 5.66524e-10 0)
(-1.41464e-09 2.78305e-09 0)
(-4.91433e-09 -8.13413e-09 0)
(-3.39572e-09 -2.03137e-09 0)
(-3.26963e-09 1.58906e-09 0)
(-4.31103e-09 7.09241e-09 0)
(-8.73117e-09 -1.19273e-08 0)
(-6.57343e-09 -3.39625e-09 0)
(-6.319e-09 2.47578e-09 0)
(-7.67737e-09 1.02117e-08 0)
(-1.28835e-08 -1.47425e-08 0)
(-1.02935e-08 -4.67902e-09 0)
(-9.89491e-09 3.13561e-09 0)
(-1.1358e-08 1.23104e-08 0)
(-1.74215e-08 -1.68455e-08 0)
(-1.46063e-08 -5.84877e-09 0)
(-1.40487e-08 3.53419e-09 0)
(-1.54056e-08 1.36155e-08 0)
(-2.23221e-08 -1.84419e-08 0)
(-1.94256e-08 -6.90037e-09 0)
(-1.87025e-08 3.65738e-09 0)
(-1.9807e-08 1.43004e-08 0)
(-2.7608e-08 -1.97011e-08 0)
(-2.474e-08 -7.85657e-09 0)
(-2.38479e-08 3.51662e-09 0)
(-2.45913e-08 1.4507e-08 0)
(-3.32945e-08 -2.07513e-08 0)
(-3.05176e-08 -8.75175e-09 0)
(-2.9457e-08 3.13254e-09 0)
(-2.97809e-08 1.43397e-08 0)
(-3.94063e-08 -2.16932e-08 0)
(-3.67505e-08 -9.62749e-09 0)
(-3.55248e-08 2.53196e-09 0)
(-3.54079e-08 1.3878e-08 0)
(-4.59678e-08 -2.26033e-08 0)
(-4.3435e-08 -1.05247e-08 0)
(-4.20507e-08 1.74081e-09 0)
(-4.15047e-08 1.318e-08 0)
(-5.30051e-08 -2.35396e-08 0)
(-5.05801e-08 -1.14801e-08 0)
(-4.90468e-08 7.81994e-10 0)
(-4.81063e-08 1.22878e-08 0)
(-6.05444e-08 -2.45444e-08 0)
(-5.8203e-08 -1.25236e-08 0)
(-5.65336e-08 -3.26505e-10 0)
(-5.5249e-08 1.12307e-08 0)
(-6.86123e-08 -2.56466e-08 0)
(-6.63297e-08 -1.36767e-08 0)
(-6.45409e-08 -1.57125e-09 0)
(-6.29707e-08 1.00288e-08 0)
(-7.72362e-08 -2.6863e-08 0)
(-7.49926e-08 -1.49519e-08 0)
(-7.31051e-08 -2.94223e-09 0)
(-7.13115e-08 8.69578e-09 0)
(-8.64448e-08 -2.82001e-08 0)
(-8.423e-08 -1.63531e-08 0)
(-8.22691e-08 -4.43074e-09 0)
(-8.03137e-08 7.24223e-09 0)
(-9.62685e-08 -2.96542e-08 0)
(-9.4084e-08 -1.78753e-08 0)
(-9.20797e-08 -6.02687e-09 0)
(-9.00229e-08 5.67858e-09 0)
(-1.0674e-07 -3.12122e-08 0)
(-1.046e-07 -1.95044e-08 0)
(-1.02587e-07 -7.71676e-09 0)
(-1.00487e-07 4.01833e-09 0)
(-1.17895e-07 -3.28509e-08 0)
(-1.15825e-07 -2.12171e-08 0)
(-1.13845e-07 -9.4798e-09 0)
(-1.11759e-07 2.28105e-09 0)
(-1.29772e-07 -3.45368e-08 0)
(-1.27808e-07 -2.29792e-08 0)
(-1.25906e-07 -1.12861e-08 0)
(-1.23891e-07 4.95107e-10 0)
(-1.42414e-07 -3.62247e-08 0)
(-1.40601e-07 -2.47451e-08 0)
(-1.38826e-07 -1.30939e-08 0)
(-1.36939e-07 -1.2999e-09 0)
(-1.55866e-07 -3.78564e-08 0)
(-1.54255e-07 -2.64563e-08 0)
(-1.52661e-07 -1.48483e-08 0)
(-1.50961e-07 -3.05126e-09 0)
(-1.7018e-07 -3.93599e-08 0)
(-1.68826e-07 -2.80399e-08 0)
(-1.67468e-07 -1.64792e-08 0)
(-1.66012e-07 -4.69188e-09 0)
(-1.85993e-07 -4.06982e-08 0)
(-1.84963e-07 -2.94606e-08 0)
(-1.83905e-07 -1.79558e-08 0)
(-1.82761e-07 -6.19547e-09 0)
(-2.02785e-07 -4.16773e-08 0)
(-2.0213e-07 -3.05202e-08 0)
(-2.01424e-07 -1.90802e-08 0)
(-2.00645e-07 -7.36809e-09 0)
(-2.1946e-07 -4.21804e-08 0)
(-2.19193e-07 -3.10953e-08 0)
(-2.1885e-07 -1.97257e-08 0)
(-2.18447e-07 -8.082e-09 0)
(-2.36039e-07 -4.22048e-08 0)
(-2.36152e-07 -3.11836e-08 0)
(-2.36166e-07 -1.989e-08 0)
(-2.36132e-07 -8.33451e-09 0)
(-2.52541e-07 -4.17684e-08 0)
(-2.53008e-07 -3.0803e-08 0)
(-2.53354e-07 -1.95911e-08 0)
(-2.53664e-07 -8.14321e-09 0)
(-2.68982e-07 -4.09088e-08 0)
(-2.69761e-07 -2.99918e-08 0)
(-2.70397e-07 -1.88671e-08 0)
(-2.71009e-07 -7.54551e-09 0)
(-2.85379e-07 -3.96831e-08 0)
(-2.86411e-07 -2.88075e-08 0)
(-2.87278e-07 -1.77756e-08 0)
(-2.88132e-07 -6.59806e-09 0)
(-3.01748e-07 -3.81663e-08 0)
(-3.02957e-07 -2.73264e-08 0)
(-3.03983e-07 -1.63925e-08 0)
(-3.05003e-07 -5.37548e-09 0)
(-3.181e-07 -3.64497e-08 0)
(-3.19397e-07 -2.56408e-08 0)
(-3.20494e-07 -1.48103e-08 0)
(-3.21591e-07 -3.96883e-09 0)
(-3.34446e-07 -3.46393e-08 0)
(-3.3573e-07 -2.38583e-08 0)
(-3.36798e-07 -1.31361e-08 0)
(-3.37872e-07 -2.48362e-09 0)
(-3.50789e-07 -3.28531e-08 0)
(-3.5195e-07 -2.20984e-08 0)
(-3.52882e-07 -1.14896e-08 0)
(-3.53822e-07 -1.03747e-09 0)
(-3.67135e-07 -3.12186e-08 0)
(-3.68053e-07 -2.04905e-08 0)
(-3.68734e-07 -9.99986e-09 0)
(-3.6942e-07 2.42401e-10 0)
(-3.8348e-07 -2.98702e-08 0)
(-3.84034e-07 -1.91708e-08 0)
(-3.84342e-07 -8.80311e-09 0)
(-3.84653e-07 1.22198e-09 0)
(-3.9982e-07 -2.89461e-08 0)
(-3.99884e-07 -1.82795e-08 0)
(-3.99697e-07 -8.03935e-09 0)
(-3.99508e-07 1.76339e-09 0)
(-4.16145e-07 -2.85853e-08 0)
(-4.15594e-07 -1.79575e-08 0)
(-4.14792e-07 -7.84952e-09 0)
(-4.13978e-07 1.72788e-09 0)
(-4.32442e-07 -2.89245e-08 0)
(-4.31156e-07 -1.83436e-08 0)
(-4.29619e-07 -8.37232e-09 0)
(-4.28059e-07 9.7889e-10 0)
(-4.48694e-07 -3.00953e-08 0)
(-4.46557e-07 -1.95715e-08 0)
(-4.44174e-07 -9.74119e-09 0)
(-4.41753e-07 -6.14983e-10 0)
(-4.64879e-07 -3.22212e-08 0)
(-4.61786e-07 -2.17662e-08 0)
(-4.58452e-07 -1.20814e-08 0)
(-4.55065e-07 -3.17702e-09 0)
(-4.80974e-07 -3.54147e-08 0)
(-4.76829e-07 -2.5042e-08 0)
(-4.72451e-07 -1.5507e-08 0)
(-4.68002e-07 -6.81962e-09 0)
(-4.9695e-07 -3.97749e-08 0)
(-4.91671e-07 -2.94995e-08 0)
(-4.86169e-07 -2.01186e-08 0)
(-4.80577e-07 -1.16417e-08 0)
(-5.12779e-07 -4.53849e-08 0)
(-5.06298e-07 -3.52233e-08 0)
(-4.99607e-07 -2.60008e-08 0)
(-4.92804e-07 -1.77266e-08 0)
(-5.28426e-07 -5.23104e-08 0)
(-5.20695e-07 -4.22799e-08 0)
(-5.12765e-07 -3.32201e-08 0)
(-5.04702e-07 -2.51399e-08 0)
(-5.4386e-07 -6.05977e-08 0)
(-5.34844e-07 -5.07165e-08 0)
(-5.25645e-07 -4.18236e-08 0)
(-5.16289e-07 -3.39278e-08 0)
(-5.59045e-07 -7.02727e-08 0)
(-5.48731e-07 -6.05594e-08 0)
(-5.38248e-07 -5.18379e-08 0)
(-5.27586e-07 -4.41163e-08 0)
(-5.73945e-07 -8.13403e-08 0)
(-5.62339e-07 -7.18137e-08 0)
(-5.50578e-07 -6.32678e-08 0)
(-5.38615e-07 -5.57104e-08 0)
(-5.88527e-07 -9.37843e-08 0)
(-5.75652e-07 -8.44629e-08 0)
(-5.62637e-07 -7.6097e-08 0)
(-5.49397e-07 -6.86939e-08 0)
(-6.02756e-07 -1.07567e-07 0)
(-5.88655e-07 -9.84695e-08 0)
(-5.74428e-07 -9.02879e-08 0)
(-5.59955e-07 -8.30295e-08 0)
(-6.166e-07 -1.22632e-07 0)
(-6.01333e-07 -1.13775e-07 0)
(-5.85954e-07 -1.05782e-07 0)
(-5.70308e-07 -9.866e-08 0)
(-6.30029e-07 -1.38903e-07 0)
(-6.13673e-07 -1.30302e-07 0)
(-5.97216e-07 -1.22503e-07 0)
(-5.80475e-07 -1.15509e-07 0)
(-6.43015e-07 -1.56285e-07 0)
(-6.25662e-07 -1.47957e-07 0)
(-6.08217e-07 -1.40354e-07 0)
(-5.90472e-07 -1.33483e-07 0)
(-6.55534e-07 -1.7467e-07 0)
(-6.37288e-07 -1.66627e-07 0)
(-6.18958e-07 -1.59226e-07 0)
(-6.00314e-07 -1.52473e-07 0)
(-6.67564e-07 -1.93936e-07 0)
(-6.48541e-07 -1.8619e-07 0)
(-6.29439e-07 -1.78995e-07 0)
(-6.10012e-07 -1.72356e-07 0)
(-6.79088e-07 -2.1395e-07 0)
(-6.59412e-07 -2.06511e-07 0)
(-6.3966e-07 -1.99526e-07 0)
(-6.19574e-07 -1.93e-07 0)
(-6.90093e-07 -2.34571e-07 0)
(-6.69893e-07 -2.27447e-07 0)
(-6.49618e-07 -2.20676e-07 0)
(-6.29003e-07 -2.14265e-07 0)
(-7.00569e-07 -2.55655e-07 0)
(-6.79978e-07 -2.48851e-07 0)
(-6.59311e-07 -2.42299e-07 0)
(-6.38301e-07 -2.36004e-07 0)
(-7.1051e-07 -2.77053e-07 0)
(-6.89663e-07 -2.70573e-07 0)
(-6.68735e-07 -2.64243e-07 0)
(-6.47464e-07 -2.58069e-07 0)
(-7.19917e-07 -2.98619e-07 0)
(-6.98944e-07 -2.92464e-07 0)
(-6.77885e-07 -2.86361e-07 0)
(-6.56484e-07 -2.80315e-07 0)
(-7.2879e-07 -3.20211e-07 0)
(-7.07821e-07 -3.14381e-07 0)
(-6.86755e-07 -3.08508e-07 0)
(-6.65352e-07 -3.02597e-07 0)
(-7.37138e-07 -3.41692e-07 0)
(-7.16291e-07 -3.36184e-07 0)
(-6.95337e-07 -3.30545e-07 0)
(-6.74053e-07 -3.24779e-07 0)
(-7.4497e-07 -3.62935e-07 0)
(-7.24357e-07 -3.57745e-07 0)
(-7.03623e-07 -3.52343e-07 0)
(-6.8257e-07 -3.46734e-07 0)
(-7.52298e-07 -3.83825e-07 0)
(-7.32019e-07 -3.78947e-07 0)
(-7.11605e-07 -3.73786e-07 0)
(-6.90882e-07 -3.68346e-07 0)
(-7.5914e-07 -4.04261e-07 0)
(-7.39282e-07 -3.99688e-07 0)
(-7.19272e-07 -3.94771e-07 0)
(-6.98965e-07 -3.89513e-07 0)
(-7.65513e-07 -4.24156e-07 0)
(-7.46148e-07 -4.1988e-07 0)
(-7.26614e-07 -4.1521e-07 0)
(-7.06797e-07 -4.10149e-07 0)
(-7.71436e-07 -4.43442e-07 0)
(-7.52621e-07 -4.39454e-07 0)
(-7.3362e-07 -4.35033e-07 0)
(-7.14349e-07 -4.30184e-07 0)
(-7.76931e-07 -4.62068e-07 0)
(-7.58706e-07 -4.58358e-07 0)
(-7.40278e-07 -4.54189e-07 0)
(-7.21595e-07 -4.49567e-07 0)
(-7.82018e-07 -4.80001e-07 0)
(-7.64409e-07 -4.76559e-07 0)
(-7.46579e-07 -4.72645e-07 0)
(-7.28508e-07 -4.68263e-07 0)
(-7.86718e-07 -4.97227e-07 0)
(-7.69733e-07 -4.94042e-07 0)
(-7.5251e-07 -4.90386e-07 0)
(-7.3506e-07 -4.8626e-07 0)
(-7.91051e-07 -5.13748e-07 0)
(-7.74683e-07 -5.10813e-07 0)
(-7.58061e-07 -5.07416e-07 0)
(-7.41225e-07 -5.03558e-07 0)
(-7.95036e-07 -5.29587e-07 0)
(-7.79263e-07 -5.26893e-07 0)
(-7.63222e-07 -5.23756e-07 0)
(-7.46978e-07 -5.2018e-07 0)
(-7.98689e-07 -5.4478e-07 0)
(-7.83477e-07 -5.42319e-07 0)
(-7.67984e-07 -5.39444e-07 0)
(-7.52298e-07 -5.3616e-07 0)
(-8.02025e-07 -5.59378e-07 0)
(-7.87327e-07 -5.57143e-07 0)
(-7.72338e-07 -5.54533e-07 0)
(-7.57164e-07 -5.51549e-07 0)
(-8.05054e-07 -5.73443e-07 0)
(-7.90815e-07 -5.7143e-07 0)
(-7.76278e-07 -5.69085e-07 0)
(-7.61559e-07 -5.66411e-07 0)
(-8.07785e-07 -5.87047e-07 0)
(-7.93943e-07 -5.85254e-07 0)
(-7.79797e-07 -5.83176e-07 0)
(-7.65473e-07 -5.80816e-07 0)
(-8.10221e-07 -6.0027e-07 0)
(-7.96709e-07 -5.98696e-07 0)
(-7.8289e-07 -5.96886e-07 0)
(-7.68894e-07 -5.94843e-07 0)
(-8.12362e-07 -6.13194e-07 0)
(-7.99111e-07 -6.11839e-07 0)
(-7.85556e-07 -6.103e-07 0)
(-7.71821e-07 -6.08576e-07 0)
(-8.14203e-07 -6.25902e-07 0)
(-8.01146e-07 -6.24771e-07 0)
(-7.8779e-07 -6.23504e-07 0)
(-7.74251e-07 -6.22097e-07 0)
(-8.15737e-07 -6.38472e-07 0)
(-8.02809e-07 -6.37571e-07 0)
(-7.89595e-07 -6.36581e-07 0)
(-7.76194e-07 -6.35488e-07 0)
(-8.16947e-07 -6.50982e-07 0)
(-8.04088e-07 -6.50318e-07 0)
(-7.90964e-07 -6.49605e-07 0)
(-7.77654e-07 -6.48819e-07 0)
(-8.1783e-07 -6.63502e-07 0)
(-8.04991e-07 -6.63082e-07 0)
(-7.91916e-07 -6.62638e-07 0)
(-7.78664e-07 -6.6215e-07 0)
(-8.1833e-07 -6.76159e-07 0)
(-8.0548e-07 -6.75938e-07 0)
(-7.92423e-07 -6.75711e-07 0)
(-7.79202e-07 -6.75446e-07 0)
)
;

boundaryField
{
    plateFix
    {
        type            fixedDisplacement;
        value           uniform (0 0 0);
    }
    plate
    {
        type            solidTraction;
        nonLinear       updatedLagrangian;
        traction        uniform (0 0 0);
        pressure        uniform 0;
        value           nonuniform List<vector> 
168
(
(-1.54954e-08 -8.45798e-09 1.82296e-26)
(-1.35809e-08 7.42238e-09 -1.86166e-26)
(-1.51839e-08 -1.36115e-08 2.25367e-26)
(-1.30265e-08 1.19005e-08 2.38973e-26)
(-1.59437e-08 -1.76523e-08 -2.19689e-26)
(-1.33937e-08 1.52658e-08 4.53293e-28)
(-1.78868e-08 -2.0563e-08 3.9141e-26)
(-1.48407e-08 1.74802e-08 1.85146e-26)
(-2.09282e-08 -2.27411e-08 -1.82758e-28)
(-1.73112e-08 1.8888e-08 -3.62506e-26)
(-2.48425e-08 -2.43747e-08 -1.70535e-26)
(-2.06122e-08 1.96465e-08 1.71564e-26)
(-2.9505e-08 -2.566e-08 5.71338e-29)
(-2.46399e-08 1.99206e-08 -1.26922e-27)
(-3.48163e-08 -2.67257e-08 -1.38009e-26)
(-2.93135e-08 1.98147e-08 -3.50386e-28)
(-4.07219e-08 -2.76772e-08 2.64083e-26)
(-3.45933e-08 1.94119e-08 1.4662e-26)
(-4.71877e-08 -2.85906e-08 -2.46832e-26)
(-4.04593e-08 1.87695e-08 -9.78744e-27)
(-5.41987e-08 -2.9524e-08 3.42601e-28)
(-4.69102e-08 1.79294e-08 -1.27372e-26)
(-6.17508e-08 -3.05191e-08 1.07739e-26)
(-5.39564e-08 1.69202e-08 -7.7485e-27)
(-6.9849e-08 -3.16049e-08 4.99159e-28)
(-6.16189e-08 1.57619e-08 1.83312e-26)
(-7.85052e-08 -3.27986e-08 9.36833e-27)
(-6.9927e-08 1.4468e-08 7.87701e-27)
(-8.77372e-08 -3.41071e-08 -2.5007e-27)
(-7.89174e-08 1.30493e-08 -6.14831e-27)
(-9.75678e-08 -3.55277e-08 -6.51481e-27)
(-8.86336e-08 1.15166e-08 -2.45451e-28)
(-1.08025e-07 -3.70481e-08 -1.09919e-26)
(-9.91244e-08 9.88347e-09 -3.3171e-27)
(-1.19139e-07 -3.86461e-08 1.93631e-26)
(-1.10443e-07 8.16943e-09 -1.07586e-27)
(-1.30947e-07 -4.0289e-08 -8.22703e-27)
(-1.22647e-07 6.40247e-09 1.72655e-28)
(-1.43489e-07 -4.19324e-08 -7.50823e-27)
(-1.35795e-07 4.62147e-09 -1.22862e-26)
(-1.56809e-07 -4.3519e-08 -2.37434e-28)
(-1.49945e-07 2.878e-09 2.53877e-28)
(-1.70958e-07 -4.49777e-08 5.09399e-27)
(-1.65156e-07 1.23784e-09 -5.56975e-27)
(-1.86566e-07 -4.6271e-08 9.08072e-27)
(-1.82103e-07 -2.7533e-10 -3.57331e-28)
(-2.03124e-07 -4.72077e-08 8.72781e-27)
(-2.00213e-07 -1.46986e-09 4.42249e-27)
(-2.1956e-07 -4.76744e-08 1.38861e-28)
(-2.18248e-07 -2.21783e-09 4.48216e-27)
(-2.35903e-07 -4.76686e-08 2.31221e-28)
(-2.36161e-07 -2.51633e-09 -1.68117e-26)
(-2.52182e-07 -4.72079e-08 2.32381e-28)
(-2.53908e-07 -2.38275e-09 4.08458e-27)
(-2.68424e-07 -4.63297e-08 4.14962e-27)
(-2.71443e-07 -1.85406e-09 2.23618e-28)
(-2.84656e-07 -4.50907e-08 -3.82665e-27)
(-2.88724e-07 -9.86318e-10 1.08988e-26)
(-3.00901e-07 -4.35651e-08 -5.69402e-28)
(-3.05711e-07 1.46645e-10 3.62396e-27)
(-3.17179e-07 -4.18435e-08 3.83426e-28)
(-3.22366e-07 1.45472e-09 1.19386e-26)
(-3.33505e-07 -4.0031e-08 -7.96881e-27)
(-3.38658e-07 2.83348e-09 3.99426e-27)
(-3.49892e-07 -3.82444e-08 1.34943e-26)
(-3.54557e-07 4.1665e-09 -7.03757e-27)
(-3.66345e-07 -3.66101e-08 -5.49741e-27)
(-3.7004e-07 5.32785e-09 8.32684e-27)
(-3.82867e-07 -3.52613e-08 -1.60804e-27)
(-3.85088e-07 6.18488e-09 -1.145e-26)
(-3.99452e-07 -3.43347e-08 3.23914e-27)
(-3.9969e-07 6.6011e-09 1.11356e-26)
(-4.16092e-07 -3.39683e-08 3.33326e-27)
(-4.13838e-07 6.43917e-09 -1.03643e-26)
(-4.3277e-07 -3.42973e-08 -4.32374e-27)
(-4.2753e-07 5.56387e-09 -1.67896e-27)
(-4.49467e-07 -3.54522e-08 1.7838e-27)
(-4.40771e-07 3.84515e-09 3.19291e-27)
(-4.66157e-07 -3.75552e-08 -1.94135e-27)
(-4.53571e-07 1.16097e-09 -1.20548e-26)
(-4.82809e-07 -4.07177e-08 3.21062e-28)
(-4.65943e-07 -2.59994e-09 -5.44722e-27)
(-4.99389e-07 -4.50378e-08 -8.01325e-27)
(-4.77908e-07 -7.53553e-09 1.05162e-26)
(-5.15858e-07 -5.05978e-08 4.81236e-27)
(-4.89489e-07 -1.37282e-08 -1.22115e-28)
(-5.32174e-07 -5.74627e-08 5.93347e-27)
(-5.00711e-07 -2.12428e-08 9.36103e-27)
(-5.48295e-07 -6.56782e-08 -2.90842e-27)
(-5.11605e-07 -3.01253e-08 -1.0689e-27)
(-5.64174e-07 -7.527e-08 -3.34617e-27)
(-5.22201e-07 -4.04012e-08 3.1919e-27)
(-5.79767e-07 -8.6243e-08 3.45764e-27)
(-5.32532e-07 -5.20755e-08 -1.9121e-27)
(-5.95028e-07 -9.85809e-08 -2.40311e-27)
(-5.4263e-07 -6.51321e-08 -1.3741e-27)
(-6.09913e-07 -1.12247e-07 -9.86443e-28)
(-5.52526e-07 -7.95342e-08 -1.15739e-26)
(-6.24379e-07 -1.27184e-07 2.09828e-27)
(-5.62251e-07 -9.52248e-08 -9.01769e-28)
(-6.38388e-07 -1.43317e-07 -5.06853e-27)
(-5.71833e-07 -1.12128e-07 7.50365e-27)
(-6.51904e-07 -1.60552e-07 2.79543e-27)
(-5.81296e-07 -1.30152e-07 -5.71364e-27)
(-6.64895e-07 -1.78782e-07 -8.96066e-27)
(-5.90662e-07 -1.49188e-07 -7.89196e-28)
(-6.77334e-07 -1.97886e-07 8.96755e-28)
(-5.99947e-07 -1.69115e-07 8.33245e-28)
(-6.89199e-07 -2.17733e-07 -9.3814e-27)
(-6.09164e-07 -1.89802e-07 -6.80671e-28)
(-7.00473e-07 -2.38183e-07 5.59419e-27)
(-6.1832e-07 -2.11109e-07 -4.76108e-27)
(-7.11145e-07 -2.59091e-07 9.28147e-27)
(-6.27418e-07 -2.32891e-07 -3.60841e-27)
(-7.2121e-07 -2.80313e-07 -7.48034e-27)
(-6.36454e-07 -2.55002e-07 3.25687e-28)
(-7.30667e-07 -3.01702e-07 3.90147e-27)
(-6.45421e-07 -2.77297e-07 -2.58823e-27)
(-7.39522e-07 -3.23117e-07 8.40069e-27)
(-6.54304e-07 -2.99633e-07 3.05966e-28)
(-7.47785e-07 -3.44424e-07 5.9183e-27)
(-6.63087e-07 -3.21875e-07 9.0914e-27)
(-7.55472e-07 -3.65496e-07 -1.11392e-26)
(-6.71746e-07 -3.43896e-07 4.51831e-27)
(-7.62601e-07 -3.8622e-07 3.24907e-27)
(-6.80254e-07 -3.65582e-07 -9.86072e-27)
(-7.69197e-07 -4.06494e-07 -5.36238e-27)
(-6.88581e-07 -3.86832e-07 -1.0176e-26)
(-7.75285e-07 -4.26234e-07 -1.29838e-27)
(-6.96695e-07 -4.07559e-07 -3.32646e-28)
(-7.80894e-07 -4.45371e-07 -5.79823e-27)
(-7.04559e-07 -4.27695e-07 1.08268e-26)
(-7.86053e-07 -4.63854e-07 1.28857e-26)
(-7.12139e-07 -4.47187e-07 5.20027e-27)
(-7.90792e-07 -4.81651e-07 5.02122e-27)
(-7.19397e-07 -4.66003e-07 6.47032e-28)
(-7.95141e-07 -4.98747e-07 1.16481e-27)
(-7.26297e-07 -4.84127e-07 -6.3205e-27)
(-7.9913e-07 -5.15146e-07 -1.25379e-27)
(-7.32804e-07 -5.01562e-07 3.18141e-31)
(-8.02785e-07 -5.30869e-07 -7.95695e-27)
(-7.38886e-07 -5.18328e-07 1.31725e-29)
(-8.0613e-07 -5.4595e-07 1.44189e-30)
(-7.44511e-07 -5.34459e-07 -2.38677e-30)
(-8.09186e-07 -5.6044e-07 -9.36153e-28)
(-7.49655e-07 -5.50005e-07 -7.2413e-27)
(-8.1197e-07 -5.74401e-07 7.41334e-27)
(-7.54296e-07 -5.65028e-07 8.05558e-27)
(-8.14492e-07 -5.87903e-07 -8.67692e-30)
(-7.58416e-07 -5.79597e-07 -1.42947e-26)
(-8.1676e-07 -6.01025e-07 -7.76774e-27)
(-7.62004e-07 -5.93791e-07 -1.75289e-28)
(-8.18774e-07 -6.13847e-07 -1.32664e-30)
(-7.65055e-07 -6.0769e-07 7.79059e-27)
(-8.20529e-07 -6.26451e-07 -8.19063e-27)
(-7.6757e-07 -6.21377e-07 -8.14087e-27)
(-8.22016e-07 -6.38913e-07 8.57708e-27)
(-7.69558e-07 -6.34932e-07 1.54159e-26)
(-8.23215e-07 -6.51313e-07 -1.51736e-28)
(-7.71033e-07 -6.4842e-07 -1.69059e-26)
(-8.24136e-07 -6.63712e-07 1.71053e-26)
(-7.7205e-07 -6.61907e-07 2.28223e-28)
(-8.24731e-07 -6.76259e-07 -8.85323e-27)
(-8.18447e-07 -6.82599e-07 1.06796e-26)
(-8.05601e-07 -6.8243e-07 -4.78458e-28)
(-7.92552e-07 -6.82292e-07 -9.90474e-27)
(-7.7933e-07 -6.82039e-07 2.03736e-26)
(-7.72626e-07 -6.75332e-07 1.73555e-26)
)
;
    }
    frontAndBackPlanes
    {
        type            empty;
    }
}


// ************************************************************************* //
