/*--------------------------------*- C++ -*----------------------------------*\
| =========                 |                                                 |
| \\      /  F ield         | OpenFOAM Extend Project: Open source CFD        |
|  \\    /   O peration     | Version:  1.6-ext                               |
|   \\  /    A nd           | Web:      www.extend-project.de                 |
|    \\/     M anipulation  |                                                 |
\*---------------------------------------------------------------------------*/
FoamFile
{
    version     2.0;
    format      ascii;
    class       volVectorField;
    location    "1";
    object      DV;
}
// * * * * * * * * * * * * * * * * * * * * * * * * * * * * * * * * * * * * * //

dimensions      [0 1 -1 0 0 0 0];

internalField   nonuniform List<vector> 
328
(
(1.29423e-07 2.55819e-07 0)
(9.15637e-08 5.43841e-08 0)
(9.57252e-08 -5.9896e-08 0)
(1.51273e-07 -2.91462e-07 0)
(3.94211e-07 6.52596e-07 0)
(3.02234e-07 1.52148e-07 0)
(3.16802e-07 -1.81694e-07 0)
(4.60947e-07 -7.51641e-07 0)
(7.01767e-07 9.40263e-07 0)
(5.83526e-07 2.3661e-07 0)
(6.12952e-07 -3.04906e-07 0)
(8.19048e-07 -1.10155e-06 0)
(1.03785e-06 1.13398e-06 0)
(9.13242e-07 2.99284e-07 0)
(9.5951e-07 -4.21431e-07 0)
(1.2088e-06 -1.36112e-06 0)
(1.40726e-06 1.25412e-06 0)
(1.29614e-06 3.36875e-07 0)
(1.36115e-06 -5.28536e-07 0)
(1.63492e-06 -1.5554e-06 0)
(1.80876e-06 1.3162e-06 0)
(1.72506e-06 3.47844e-07 0)
(1.80989e-06 -6.25972e-07 0)
(2.0953e-06 -1.70381e-06 0)
(2.24499e-06 1.33281e-06 0)
(2.19927e-06 3.32939e-07 0)
(2.3047e-06 -7.16133e-07 0)
(2.59214e-06 -1.82246e-06 0)
(2.71796e-06 1.31308e-06 0)
(2.71619e-06 2.93667e-07 0)
(2.84265e-06 -8.02581e-07 0)
(3.1269e-06 -1.92366e-06 0)
(3.23058e-06 1.26382e-06 0)
(3.27535e-06 2.3202e-07 0)
(3.42307e-06 -8.89627e-07 0)
(3.70196e-06 -2.01721e-06 0)
(3.78578e-06 1.18978e-06 0)
(3.8767e-06 1.4981e-07 0)
(4.04563e-06 -9.81618e-07 0)
(4.31965e-06 -2.11076e-06 0)
(4.38675e-06 1.09417e-06 0)
(4.52133e-06 4.84613e-08 0)
(4.71123e-06 -1.08264e-06 0)
(4.98248e-06 -2.21035e-06 0)
(5.03678e-06 9.78894e-07 0)
(5.21114e-06 -7.1176e-08 0)
(5.42148e-06 -1.19625e-06 0)
(5.69294e-06 -2.32068e-06 0)
(5.73933e-06 8.44871e-07 0)
(5.94886e-06 -2.08812e-07 0)
(6.17882e-06 -1.32538e-06 0)
(6.45356e-06 -2.44534e-06 0)
(6.49807e-06 6.92282e-07 0)
(6.73787e-06 -3.64632e-07 0)
(6.98629e-06 -1.47231e-06 0)
(7.26694e-06 -2.58699e-06 0)
(7.31693e-06 5.20835e-07 0)
(7.58212e-06 -5.3912e-07 0)
(7.84745e-06 -1.63867e-06 0)
(8.13577e-06 -2.74748e-06 0)
(8.20013e-06 3.30041e-07 0)
(8.48597e-06 -7.32845e-07 0)
(8.7662e-06 -1.8255e-06 0)
(9.06286e-06 -2.92794e-06 0)
(9.15223e-06 1.1949e-07 0)
(9.45411e-06 -9.4622e-07 0)
(9.74671e-06 -2.0332e-06 0)
(1.00512e-05 -3.12882e-06 0)
(1.01781e-05 -1.10875e-07 0)
(1.04915e-05 -1.17925e-06 0)
(1.07933e-05 -2.2615e-06 0)
(1.1104e-05 -3.34986e-06 0)
(1.1283e-05 -3.60479e-07 0)
(1.16031e-05 -1.43125e-06 0)
(1.19106e-05 -2.50935e-06 0)
(1.22245e-05 -3.59001e-06 0)
(1.24725e-05 -6.27845e-07 0)
(1.27943e-05 -1.70062e-06 0)
(1.3103e-05 -2.7748e-06 0)
(1.34163e-05 -3.84729e-06 0)
(1.37522e-05 -9.10327e-07 0)
(1.40703e-05 -1.98455e-06 0)
(1.43752e-05 -3.05469e-06 0)
(1.46832e-05 -4.11857e-06 0)
(1.51281e-05 -1.20384e-06 0)
(1.54366e-05 -2.27876e-06 0)
(1.57322e-05 -3.34449e-06 0)
(1.60292e-05 -4.39931e-06 0)
(1.66624e-05 -1.51402e-06 0)
(1.69544e-05 -2.58864e-06 0)
(1.72338e-05 -3.6492e-06 0)
(1.75129e-05 -4.69418e-06 0)
(1.83054e-05 -1.81917e-06 0)
(1.85736e-05 -2.89216e-06 0)
(1.88296e-05 -3.94674e-06 0)
(1.90836e-05 -4.9815e-06 0)
(1.99464e-05 -2.09184e-06 0)
(2.01858e-05 -3.1618e-06 0)
(2.04135e-05 -4.20993e-06 0)
(2.06375e-05 -5.23483e-06 0)
(2.15829e-05 -2.32754e-06 0)
(2.17897e-05 -3.39309e-06 0)
(2.19854e-05 -4.43425e-06 0)
(2.21756e-05 -5.44968e-06 0)
(2.32125e-05 -2.52299e-06 0)
(2.3384e-05 -3.58274e-06 0)
(2.3545e-05 -4.61644e-06 0)
(2.36987e-05 -5.62275e-06 0)
(2.48325e-05 -2.67614e-06 0)
(2.49673e-05 -3.72869e-06 0)
(2.5092e-05 -4.75442e-06 0)
(2.52077e-05 -5.752e-06 0)
(2.64405e-05 -2.78612e-06 0)
(2.65381e-05 -3.8301e-06 0)
(2.66263e-05 -4.84735e-06 0)
(2.67036e-05 -5.83657e-06 0)
(2.8034e-05 -2.85331e-06 0)
(2.80952e-05 -3.88736e-06 0)
(2.81475e-05 -4.89562e-06 0)
(2.81872e-05 -5.87682e-06 0)
(2.96106e-05 -2.87928e-06 0)
(2.96373e-05 -3.90208e-06 0)
(2.96555e-05 -4.90085e-06 0)
(2.96595e-05 -5.87432e-06 0)
(3.1168e-05 -2.86683e-06 0)
(3.1163e-05 -3.87712e-06 0)
(3.11499e-05 -4.86588e-06 0)
(3.11211e-05 -5.83187e-06 0)
(3.2704e-05 -2.81993e-06 0)
(3.26712e-05 -3.81653e-06 0)
(3.26306e-05 -4.79478e-06 0)
(3.25728e-05 -5.75345e-06 0)
(3.42166e-05 -2.74362e-06 0)
(3.41607e-05 -3.72545e-06 0)
(3.40971e-05 -4.69267e-06 0)
(3.40152e-05 -5.64409e-06 0)
(3.57041e-05 -2.64383e-06 0)
(3.56305e-05 -3.60995e-06 0)
(3.55491e-05 -4.56564e-06 0)
(3.54483e-05 -5.50974e-06 0)
(3.7165e-05 -2.52722e-06 0)
(3.70795e-05 -3.4768e-06 0)
(3.69861e-05 -4.42046e-06 0)
(3.68724e-05 -5.35705e-06 0)
(3.85982e-05 -2.40087e-06 0)
(3.85071e-05 -3.33325e-06 0)
(3.84075e-05 -4.26437e-06 0)
(3.82872e-05 -5.19311e-06 0)
(4.00028e-05 -2.27208e-06 0)
(3.99123e-05 -3.18673e-06 0)
(3.98129e-05 -4.10482e-06 0)
(3.96921e-05 -5.02523e-06 0)
(4.13782e-05 -2.14809e-06 0)
(4.12946e-05 -3.04464e-06 0)
(4.12013e-05 -3.9492e-06 0)
(4.10864e-05 -4.86067e-06 0)
(4.27242e-05 -2.03591e-06 0)
(4.26535e-05 -2.91412e-06 0)
(4.25721e-05 -3.80467e-06 0)
(4.24691e-05 -4.70647e-06 0)
(4.40407e-05 -1.94212e-06 0)
(4.39884e-05 -2.80186e-06 0)
(4.39244e-05 -3.67792e-06 0)
(4.38388e-05 -4.56922e-06 0)
(4.53279e-05 -1.87272e-06 0)
(4.5299e-05 -2.71398e-06 0)
(4.52573e-05 -3.57508e-06 0)
(4.51941e-05 -4.45495e-06 0)
(4.65862e-05 -1.833e-06 0)
(4.6585e-05 -2.65588e-06 0)
(4.65698e-05 -3.50155e-06 0)
(4.65334e-05 -4.36898e-06 0)
(4.7816e-05 -1.82747e-06 0)
(4.78462e-05 -2.63214e-06 0)
(4.78609e-05 -3.46194e-06 0)
(4.78549e-05 -4.31585e-06 0)
(4.90181e-05 -1.85972e-06 0)
(4.90823e-05 -2.64643e-06 0)
(4.91296e-05 -3.45993e-06 0)
(4.91566e-05 -4.29918e-06 0)
(5.01933e-05 -1.93236e-06 0)
(5.02932e-05 -2.70144e-06 0)
(5.03748e-05 -3.49821e-06 0)
(5.04366e-05 -4.32163e-06 0)
(5.13425e-05 -2.04692e-06 0)
(5.14789e-05 -2.79876e-06 0)
(5.15953e-05 -3.57837e-06 0)
(5.16927e-05 -4.38476e-06 0)
(5.24666e-05 -2.20378e-06 0)
(5.26391e-05 -2.93879e-06 0)
(5.27901e-05 -3.70086e-06 0)
(5.29227e-05 -4.489e-06 0)
(5.35668e-05 -2.40211e-06 0)
(5.37739e-05 -3.12073e-06 0)
(5.39581e-05 -3.86487e-06 0)
(5.41244e-05 -4.63354e-06 0)
(5.46441e-05 -2.63979e-06 0)
(5.48833e-05 -3.34247e-06 0)
(5.5098e-05 -4.06831e-06 0)
(5.52956e-05 -4.81633e-06 0)
(5.56994e-05 -2.91348e-06 0)
(5.59671e-05 -3.60063e-06 0)
(5.62089e-05 -4.30782e-06 0)
(5.64341e-05 -5.03406e-06 0)
(5.67337e-05 -3.21859e-06 0)
(5.70253e-05 -3.89058e-06 0)
(5.72896e-05 -4.57877e-06 0)
(5.75378e-05 -5.28218e-06 0)
(5.77479e-05 -3.54939e-06 0)
(5.80577e-05 -4.20651e-06 0)
(5.83392e-05 -4.87537e-06 0)
(5.86049e-05 -5.55502e-06 0)
(5.87423e-05 -3.89917e-06 0)
(5.90642e-05 -4.54161e-06 0)
(5.93567e-05 -5.19083e-06 0)
(5.96336e-05 -5.84589e-06 0)
(5.97175e-05 -4.26038e-06 0)
(6.00445e-05 -4.88821e-06 0)
(6.03414e-05 -5.51749e-06 0)
(6.06226e-05 -6.14729e-06 0)
(6.06734e-05 -4.62489e-06 0)
(6.09983e-05 -5.23805e-06 0)
(6.12924e-05 -5.84709e-06 0)
(6.15708e-05 -6.45113e-06 0)
(6.16098e-05 -4.98422e-06 0)
(6.1925e-05 -5.58248e-06 0)
(6.22093e-05 -6.17102e-06 0)
(6.24772e-05 -6.74894e-06 0)
(6.25261e-05 -5.32979e-06 0)
(6.28244e-05 -5.91281e-06 0)
(6.30914e-05 -6.48056e-06 0)
(6.33415e-05 -7.03219e-06 0)
(6.34217e-05 -5.6532e-06 0)
(6.36956e-05 -6.22049e-06 0)
(6.39384e-05 -6.7672e-06 0)
(6.41635e-05 -7.29252e-06 0)
(6.42953e-05 -5.94646e-06 0)
(6.45381e-05 -6.4974e-06 0)
(6.475e-05 -7.02283e-06 0)
(6.49433e-05 -7.52195e-06 0)
(6.51457e-05 -6.20222e-06 0)
(6.53512e-05 -6.73607e-06 0)
(6.55261e-05 -7.23996e-06 0)
(6.56814e-05 -7.71315e-06 0)
(6.59713e-05 -6.41391e-06 0)
(6.61339e-05 -6.92983e-06 0)
(6.62665e-05 -7.41197e-06 0)
(6.63784e-05 -7.85957e-06 0)
(6.67704e-05 -6.57591e-06 0)
(6.68856e-05 -7.07301e-06 0)
(6.69714e-05 -7.53315e-06 0)
(6.70352e-05 -7.95563e-06 0)
(6.75413e-05 -6.68367e-06 0)
(6.76053e-05 -7.16098e-06 0)
(6.76408e-05 -7.59891e-06 0)
(6.76529e-05 -7.99678e-06 0)
(6.8282e-05 -6.73376e-06 0)
(6.82923e-05 -7.19029e-06 0)
(6.82747e-05 -7.60578e-06 0)
(6.82326e-05 -7.97961e-06 0)
(6.89906e-05 -6.72394e-06 0)
(6.89455e-05 -7.15867e-06 0)
(6.88735e-05 -7.55152e-06 0)
(6.87754e-05 -7.9019e-06 0)
(6.96652e-05 -6.65318e-06 0)
(6.95643e-05 -7.06511e-06 0)
(6.94372e-05 -7.43512e-06 0)
(6.92828e-05 -7.76264e-06 0)
(7.0304e-05 -6.52167e-06 0)
(7.01478e-05 -6.90983e-06 0)
(6.99661e-05 -7.2568e-06 0)
(6.97559e-05 -7.56202e-06 0)
(7.09052e-05 -6.33077e-06 0)
(7.06952e-05 -6.69424e-06 0)
(7.04603e-05 -7.01797e-06 0)
(7.0196e-05 -7.30144e-06 0)
(7.14671e-05 -6.08298e-06 0)
(7.12057e-05 -6.42091e-06 0)
(7.09202e-05 -6.72121e-06 0)
(7.06042e-05 -6.9834e-06 0)
(7.19883e-05 -5.78179e-06 0)
(7.16789e-05 -6.09342e-06 0)
(7.13459e-05 -6.37012e-06 0)
(7.09815e-05 -6.61143e-06 0)
(7.24676e-05 -5.43159e-06 0)
(7.21141e-05 -5.71628e-06 0)
(7.17375e-05 -5.96921e-06 0)
(7.13287e-05 -6.18993e-06 0)
(7.29038e-05 -5.0375e-06 0)
(7.25109e-05 -5.29473e-06 0)
(7.20951e-05 -5.52372e-06 0)
(7.16465e-05 -5.72404e-06 0)
(7.32963e-05 -4.60517e-06 0)
(7.2869e-05 -4.83456e-06 0)
(7.24186e-05 -5.03946e-06 0)
(7.19353e-05 -5.21947e-06 0)
(7.36446e-05 -4.14061e-06 0)
(7.3188e-05 -4.3419e-06 0)
(7.27082e-05 -4.52258e-06 0)
(7.21953e-05 -4.68224e-06 0)
(7.39486e-05 -3.64992e-06 0)
(7.34678e-05 -3.82304e-06 0)
(7.29637e-05 -3.97939e-06 0)
(7.24265e-05 -4.11855e-06 0)
(7.42083e-05 -3.13921e-06 0)
(7.37086e-05 -3.2842e-06 0)
(7.3185e-05 -3.41615e-06 0)
(7.26285e-05 -3.53453e-06 0)
(7.4424e-05 -2.61425e-06 0)
(7.39102e-05 -2.73133e-06 0)
(7.33718e-05 -2.83887e-06 0)
(7.28007e-05 -2.93614e-06 0)
(7.45967e-05 -2.08051e-06 0)
(7.40733e-05 -2.16998e-06 0)
(7.35243e-05 -2.25312e-06 0)
(7.29428e-05 -2.32878e-06 0)
(7.47265e-05 -1.54251e-06 0)
(7.41973e-05 -1.60497e-06 0)
(7.36414e-05 -1.66396e-06 0)
(7.30529e-05 -1.71764e-06 0)
(7.48166e-05 -1.00544e-06 0)
(7.42854e-05 -1.04093e-06 0)
(7.37254e-05 -1.07519e-06 0)
(7.31322e-05 -1.10576e-06 0)
(7.48619e-05 -4.70587e-07 0)
(7.43312e-05 -4.8121e-07 0)
(7.37695e-05 -4.90351e-07 0)
(7.31729e-05 -4.97475e-07 0)
)
;

boundaryField
{
    plateFix
    {
        type            calculated;
        value           uniform (0 0 0);
    }
    plate
    {
        type            calculated;
        value           nonuniform List<vector> 
168
(
(1.25035e-06 6.77972e-07 -3.51582e-23)
(1.43267e-06 -7.86198e-07 8.52137e-24)
(1.1987e-06 1.08954e-06 -7.85495e-23)
(1.40752e-06 -1.263e-06 -2.81314e-23)
(1.2305e-06 1.39913e-06 7.54098e-23)
(1.48289e-06 -1.63656e-06 2.05525e-23)
(1.36029e-06 1.60295e-06 -8.99874e-23)
(1.66921e-06 -1.90552e-06 -1.14643e-22)
(1.58291e-06 1.7321e-06 -1.67337e-23)
(1.95862e-06 -2.1072e-06 1.53701e-22)
(1.8808e-06 1.80053e-06 5.1237e-23)
(2.33013e-06 -2.25945e-06 -5.01533e-23)
(2.24452e-06 1.82297e-06 -2.42062e-23)
(2.77212e-06 -2.38089e-06 -1.17295e-23)
(2.6667e-06 1.80852e-06 8.56089e-23)
(3.2754e-06 -2.48386e-06 8.6359e-25)
(3.14366e-06 1.76434e-06 -1.05747e-22)
(3.83498e-06 -2.57861e-06 -6.92697e-23)
(3.67355e-06 1.6951e-06 9.22637e-23)
(4.44778e-06 -2.67274e-06 6.94445e-23)
(4.25617e-06 1.604e-06 -1.09737e-23)
(5.11251e-06 -2.77231e-06 2.91327e-23)
(4.89246e-06 1.49287e-06 -2.75938e-23)
(5.82887e-06 -2.88195e-06 1.9946e-23)
(5.58428e-06 1.36263e-06 -2.69562e-24)
(6.59743e-06 -3.00525e-06 -5.43795e-23)
(6.3343e-06 1.21347e-06 -3.52292e-23)
(7.41937e-06 -3.1449e-06 -1.94279e-23)
(7.14592e-06 1.04513e-06 2.04346e-23)
(8.29637e-06 -3.30279e-06 1.42429e-23)
(8.02316e-06 8.57152e-07 1.68182e-23)
(9.23056e-06 -3.48011e-06 1.92265e-26)
(8.97065e-06 6.49166e-07 2.18006e-23)
(1.02244e-05 -3.67737e-06 1.26269e-23)
(9.99349e-06 4.21135e-07 -5.32539e-23)
(1.12807e-05 -3.89437e-06 -1.02907e-23)
(1.10973e-05 1.73626e-07 3.46704e-23)
(1.24024e-05 -4.13013e-06 -5.9705e-24)
(1.22879e-05 -9.19135e-08 2.32075e-23)
(1.35928e-05 -4.3827e-06 3.30417e-23)
(1.35715e-05 -3.72904e-07 -1.4759e-23)
(1.48554e-05 -4.64901e-06 -7.96348e-24)
(1.49543e-05 -6.65334e-07 -4.45737e-24)
(1.61937e-05 -4.92455e-06 7.40231e-24)
(1.64995e-05 -9.74998e-07 -1.25232e-23)
(1.76658e-05 -5.21383e-06 -1.86066e-23)
(1.81569e-05 -1.28037e-06 -2.78644e-23)
(1.9221e-05 -5.49548e-06 1.34641e-23)
(1.98149e-05 -1.55407e-06 -5.94174e-24)
(2.07569e-05 -5.74341e-06 -5.22012e-24)
(2.14705e-05 -1.79161e-06 2.7438e-24)
(2.2275e-05 -5.95317e-06 4.2603e-23)
(2.31204e-05 -1.98973e-06 4.00324e-24)
(2.37768e-05 -6.12148e-06 -1.8424e-23)
(2.47615e-05 -2.14636e-06 -1.49822e-23)
(2.52638e-05 -6.24627e-06 -1.18035e-23)
(2.63907e-05 -2.26064e-06 1.35232e-23)
(2.67376e-05 -6.32669e-06 -3.46414e-23)
(2.8005e-05 -2.33293e-06 1.75717e-23)
(2.81995e-05 -6.36308e-06 -1.09652e-25)
(2.96013e-05 -2.36478e-06 -1.28878e-23)
(2.96512e-05 -6.357e-06 -4.05012e-23)
(3.11767e-05 -2.35895e-06 2.52715e-23)
(3.10939e-05 -6.31121e-06 -2.93685e-23)
(3.27284e-05 -2.31936e-06 -3.3234e-23)
(3.2529e-05 -6.22963e-06 3.0018e-23)
(3.42541e-05 -2.25099e-06 1.6123e-23)
(3.39574e-05 -6.11723e-06 -1.11346e-23)
(3.57515e-05 -2.1597e-06 -1.65616e-24)
(3.53797e-05 -5.97987e-06 4.2006e-23)
(3.7219e-05 -2.05203e-06 -8.58454e-24)
(3.67965e-05 -5.82411e-06 -2.03879e-23)
(3.86551e-05 -1.93499e-06 -1.38329e-23)
(3.82074e-05 -5.65696e-06 2.14317e-23)
(4.0059e-05 -1.81575e-06 1.67829e-23)
(3.96122e-05 -5.48563e-06 1.38889e-23)
(4.14303e-05 -1.70149e-06 -3.83101e-24)
(4.10099e-05 -5.3173e-06 -2.13075e-23)
(4.27687e-05 -1.59914e-06 7.93162e-24)
(4.23993e-05 -5.15891e-06 3.55317e-23)
(4.40745e-05 -1.51517e-06 -6.27795e-24)
(4.3779e-05 -5.017e-06 1.87931e-24)
(4.53482e-05 -1.45553e-06 2.45018e-23)
(4.5147e-05 -4.89753e-06 -2.86079e-23)
(4.65905e-05 -1.42546e-06 -1.25807e-23)
(4.65015e-05 -4.80578e-06 -5.00523e-24)
(4.78024e-05 -1.42939e-06 -1.99977e-23)
(4.78402e-05 -4.74624e-06 -2.56341e-23)
(4.8985e-05 -1.47087e-06 1.40401e-23)
(4.91607e-05 -4.72249e-06 4.00851e-24)
(5.01397e-05 -1.55248e-06 8.83153e-24)
(5.04605e-05 -4.73716e-06 -1.76095e-23)
(5.12678e-05 -1.6757e-06 -7.11412e-24)
(5.17369e-05 -4.7918e-06 3.00418e-24)
(5.23711e-05 -1.84089e-06 7.9376e-24)
(5.29871e-05 -4.8868e-06 5.64221e-24)
(5.34511e-05 -2.0472e-06 -5.2018e-24)
(5.42083e-05 -5.02139e-06 2.22146e-23)
(5.45096e-05 -2.29252e-06 -1.30955e-24)
(5.53975e-05 -5.19351e-06 1.82191e-24)
(5.55481e-05 -2.57352e-06 1.75363e-23)
(5.65522e-05 -5.39989e-06 -5.35064e-24)
(5.65682e-05 -2.88565e-06 1.11345e-24)
(5.76695e-05 -5.63602e-06 1.91338e-23)
(5.75712e-05 -3.22322e-06 2.12278e-23)
(5.8747e-05 -5.89631e-06 -4.38718e-24)
(5.85581e-05 -3.5796e-06 4.78117e-24)
(5.97827e-05 -6.17414e-06 8.01294e-24)
(5.95296e-05 -3.94732e-06 2.26181e-23)
(6.07747e-05 -6.46211e-06 3.01178e-24)
(6.0486e-05 -4.31833e-06 -1.85147e-23)
(6.17218e-05 -6.75223e-06 2.11639e-23)
(6.14271e-05 -4.68425e-06 -1.88825e-23)
(6.26229e-05 -7.03615e-06 8.917e-24)
(6.23525e-05 -5.03659e-06 2.04711e-23)
(6.34776e-05 -7.30544e-06 -7.33626e-24)
(6.32611e-05 -5.36707e-06 -1.02061e-23)
(6.4286e-05 -7.55182e-06 2.5519e-24)
(6.41517e-05 -5.66777e-06 -3.33095e-23)
(6.50483e-05 -7.76744e-06 2.18365e-24)
(6.50225e-05 -5.9314e-06 -8.87032e-24)
(6.57655e-05 -7.94503e-06 -2.56304e-23)
(6.58715e-05 -6.15146e-06 3.92443e-23)
(6.64386e-05 -8.07811e-06 -1.1225e-23)
(6.66966e-05 -6.3224e-06 1.85963e-23)
(6.7069e-05 -8.16116e-06 2.00483e-23)
(6.74955e-05 -6.43968e-06 -1.29602e-24)
(6.76583e-05 -8.18967e-06 2.01235e-23)
(6.82656e-05 -6.49991e-06 7.83164e-24)
(6.82081e-05 -8.16027e-06 -7.22805e-24)
(6.90044e-05 -6.50085e-06 1.88521e-23)
(6.87203e-05 -8.07073e-06 -1.87819e-23)
(6.97095e-05 -6.44147e-06 -3.48792e-23)
(6.91969e-05 -7.92006e-06 -7.05157e-24)
(7.03784e-05 -6.32195e-06 -3.99065e-23)
(6.96396e-05 -7.70844e-06 2.53306e-23)
(7.10087e-05 -6.14361e-06 1.24744e-23)
(7.00502e-05 -7.43723e-06 1.36507e-23)
(7.15982e-05 -5.90889e-06 1.65079e-23)
(7.04305e-05 -7.1089e-06 -9.73318e-24)
(7.21451e-05 -5.62125e-06 1.88675e-23)
(7.07818e-05 -6.72691e-06 -9.34913e-24)
(7.26476e-05 -5.285e-06 -1.09246e-23)
(7.11055e-05 -6.29562e-06 1.06931e-23)
(7.31045e-05 -4.90517e-06 -6.65028e-24)
(7.14024e-05 -5.82009e-06 -3.53495e-24)
(7.35147e-05 -4.48733e-06 -3.71482e-24)
(7.16733e-05 -5.30595e-06 -2.7299e-23)
(7.38777e-05 -4.03739e-06 -1.16523e-23)
(7.19184e-05 -4.75914e-06 4.72425e-23)
(7.41933e-05 -3.56137e-06 3.09691e-23)
(7.21377e-05 -4.18579e-06 -4.21332e-24)
(7.44617e-05 -3.06529e-06 2.00617e-23)
(7.23308e-05 -3.59194e-06 -3.66406e-24)
(7.46833e-05 -2.55479e-06 -2.50869e-23)
(7.2497e-05 -2.98351e-06 2.85544e-23)
(7.48595e-05 -2.03538e-06 6.92575e-24)
(7.26357e-05 -2.36573e-06 -3.38544e-23)
(7.49902e-05 -1.51121e-06 -1.27051e-23)
(7.27443e-05 -1.744e-06 5.01053e-23)
(7.50797e-05 -9.88298e-07 -8.38762e-24)
(7.28238e-05 -1.12047e-06 1.63714e-23)
(7.51215e-05 -4.65266e-07 2.66569e-23)
(7.4872e-05 -2.09167e-07 -3.16315e-23)
(7.43417e-05 -2.0747e-07 3.60905e-23)
(7.37793e-05 -1.9968e-07 3.39622e-23)
(7.31817e-05 -1.90487e-07 -3.60281e-23)
(7.28632e-05 -5.01675e-07 -3.01406e-23)
)
;
    }
    frontAndBackPlanes
    {
        type            empty;
    }
}


// ************************************************************************* //
