/*--------------------------------*- C++ -*----------------------------------*\
| =========                 |                                                 |
| \\      /  F ield         | OpenFOAM Extend Project: Open source CFD        |
|  \\    /   O peration     | Version:  1.6-ext                               |
|   \\  /    A nd           | Web:      www.extend-project.de                 |
|    \\/     M anipulation  |                                                 |
\*---------------------------------------------------------------------------*/
FoamFile
{
    version     2.0;
    format      ascii;
    class       volVectorField;
    location    "1";
    object      DV_0;
}
// * * * * * * * * * * * * * * * * * * * * * * * * * * * * * * * * * * * * * //

dimensions      [0 1 -1 0 0 0 0];

internalField   nonuniform List<vector> 
328
(
(7.76874e-08 1.56415e-07 0)
(5.93457e-08 3.30398e-08 0)
(6.52394e-08 -4.35933e-08 0)
(1.09482e-07 -2.10442e-07 0)
(2.36747e-07 3.95297e-07 0)
(1.95669e-07 8.64997e-08 0)
(2.16341e-07 -1.37339e-07 0)
(3.33471e-07 -5.45982e-07 0)
(4.22401e-07 5.61504e-07 0)
(3.77567e-07 1.25104e-07 0)
(4.19388e-07 -2.3795e-07 0)
(5.91854e-07 -8.0717e-07 0)
(6.26174e-07 6.63303e-07 0)
(5.91161e-07 1.43101e-07 0)
(6.56841e-07 -3.40064e-07 0)
(8.72316e-07 -1.00924e-06 0)
(8.51343e-07 7.1256e-07 0)
(8.39665e-07 1.38153e-07 0)
(9.3179e-07 -4.4198e-07 0)
(1.17793e-06 -1.17074e-06 0)
(1.09747e-06 7.18203e-07 0)
(1.11864e-06 1.0884e-07 0)
(1.23852e-06 -5.43923e-07 0)
(1.50689e-06 -1.30615e-06 0)
(1.36654e-06 6.87422e-07 0)
(1.42768e-06 5.51521e-08 0)
(1.57622e-06 -6.4801e-07 0)
(1.86044e-06 -1.42751e-06 0)
(1.66014e-06 6.25269e-07 0)
(1.76521e-06 -2.25348e-08 0)
(1.94276e-06 -7.57266e-07 0)
(2.23927e-06 -1.54414e-06 0)
(1.98049e-06 5.35352e-07 0)
(2.13103e-06 -1.2359e-07 0)
(2.33757e-06 -8.75289e-07 0)
(2.64473e-06 -1.66359e-06 0)
(2.32982e-06 4.19972e-07 0)
(2.52517e-06 -2.47545e-07 0)
(2.76031e-06 -1.00574e-06 0)
(3.07809e-06 -1.7919e-06 0)
(2.71056e-06 2.80455e-07 0)
(2.9485e-06 -3.94195e-07 0)
(3.21147e-06 -1.15212e-06 0)
(3.54069e-06 -1.93392e-06 0)
(3.12528e-06 1.17336e-07 0)
(3.40238e-06 -5.63683e-07 0)
(3.692e-06 -1.31752e-06 0)
(4.03384e-06 -2.09357e-06 0)
(3.57671e-06 -6.9412e-08 0)
(3.88877e-06 -7.5644e-07 0)
(4.2034e-06 -1.50452e-06 0)
(4.55882e-06 -2.27389e-06 0)
(4.06777e-06 -2.80159e-07 0)
(4.41009e-06 -9.73071e-07 0)
(4.74754e-06 -1.71515e-06 0)
(5.11688e-06 -2.47716e-06 0)
(4.60159e-06 -5.15364e-07 0)
(4.96915e-06 -1.21415e-06 0)
(5.32662e-06 -1.95075e-06 0)
(5.70929e-06 -2.70487e-06 0)
(5.18161e-06 -7.75301e-07 0)
(5.56905e-06 -1.48e-06 0)
(5.94305e-06 -2.21193e-06 0)
(6.33733e-06 -2.95775e-06 0)
(5.81151e-06 -1.05976e-06 0)
(6.21315e-06 -1.77037e-06 0)
(6.59941e-06 -2.49846e-06 0)
(7.00233e-06 -3.23559e-06 0)
(6.49526e-06 -1.36771e-06 0)
(6.90494e-06 -2.08418e-06 0)
(7.29835e-06 -2.80906e-06 0)
(7.7057e-06 -3.53717e-06 0)
(7.23711e-06 -1.69697e-06 0)
(7.64808e-06 -2.41913e-06 0)
(8.04264e-06 -3.1412e-06 0)
(8.44891e-06 -3.85998e-06 0)
(8.04146e-06 -2.04386e-06 0)
(8.44629e-06 -2.7714e-06 0)
(8.83507e-06 -3.49081e-06 0)
(9.23359e-06 -4.20002e-06 0)
(8.91288e-06 -2.40283e-06 0)
(9.30337e-06 -3.13525e-06 0)
(9.67852e-06 -3.85193e-06 0)
(1.00615e-05 -4.55142e-06 0)
(9.85589e-06 -2.76612e-06 0)
(1.02231e-05 -3.5027e-06 0)
(1.05759e-05 -4.21642e-06 0)
(1.09346e-05 -4.90612e-06 0)
(1.09139e-05 -3.13708e-06 0)
(1.12469e-05 -3.87695e-06 0)
(1.15668e-05 -4.5872e-06 0)
(1.18903e-05 -5.26682e-06 0)
(1.2053e-05 -3.48396e-06 0)
(1.23411e-05 -4.22571e-06 0)
(1.26174e-05 -4.93198e-06 0)
(1.28951e-05 -5.60182e-06 0)
(1.31956e-05 -3.77302e-06 0)
(1.34323e-05 -4.51495e-06 0)
(1.36584e-05 -5.21693e-06 0)
(1.38836e-05 -5.87805e-06 0)
(1.43385e-05 -3.99841e-06 0)
(1.45189e-05 -4.73879e-06 0)
(1.46901e-05 -5.43617e-06 0)
(1.48581e-05 -6.08964e-06 0)
(1.54783e-05 -4.15611e-06 0)
(1.55994e-05 -4.89323e-06 0)
(1.57127e-05 -5.58567e-06 0)
(1.58205e-05 -6.23257e-06 0)
(1.66118e-05 -4.24408e-06 0)
(1.66725e-05 -4.97619e-06 0)
(1.67267e-05 -5.66338e-06 0)
(1.67732e-05 -6.30478e-06 0)
(1.77357e-05 -4.26222e-06 0)
(1.77366e-05 -4.98763e-06 0)
(1.77324e-05 -5.66922e-06 0)
(1.77182e-05 -6.30615e-06 0)
(1.88469e-05 -4.21245e-06 0)
(1.87904e-05 -4.9295e-06 0)
(1.87301e-05 -5.60516e-06 0)
(1.86578e-05 -6.23862e-06 0)
(1.99422e-05 -4.0987e-06 0)
(1.98325e-05 -4.80582e-06 0)
(1.97202e-05 -5.47521e-06 0)
(1.95938e-05 -6.10608e-06 0)
(2.10188e-05 -3.9268e-06 0)
(2.08617e-05 -4.62252e-06 0)
(2.07029e-05 -5.28529e-06 0)
(2.05282e-05 -5.91435e-06 0)
(2.20742e-05 -3.70427e-06 0)
(2.18768e-05 -4.38728e-06 0)
(2.16784e-05 -5.04309e-06 0)
(2.14626e-05 -5.67095e-06 0)
(2.31062e-05 -3.44012e-06 0)
(2.28767e-05 -4.10928e-06 0)
(2.26468e-05 -4.75777e-06 0)
(2.23981e-05 -5.38487e-06 0)
(2.4113e-05 -3.14448e-06 0)
(2.38606e-05 -3.79886e-06 0)
(2.3608e-05 -4.43968e-06 0)
(2.33357e-05 -5.06624e-06 0)
(2.50932e-05 -2.82835e-06 0)
(2.48277e-05 -3.46721e-06 0)
(2.4562e-05 -4.09999e-06 0)
(2.42759e-05 -4.72604e-06 0)
(2.60457e-05 -2.50318e-06 0)
(2.57773e-05 -3.12599e-06 0)
(2.55084e-05 -3.75039e-06 0)
(2.52187e-05 -4.37575e-06 0)
(2.69702e-05 -2.18064e-06 0)
(2.67091e-05 -2.78708e-06 0)
(2.6447e-05 -3.40275e-06 0)
(2.61638e-05 -4.02701e-06 0)
(2.78664e-05 -1.87226e-06 0)
(2.76227e-05 -2.46222e-06 0)
(2.73771e-05 -3.0688e-06 0)
(2.71106e-05 -3.69139e-06 0)
(2.87346e-05 -1.58921e-06 0)
(2.85179e-05 -2.16276e-06 0)
(2.82982e-05 -2.75991e-06 0)
(2.80579e-05 -3.38005e-06 0)
(2.95755e-05 -1.34199e-06 0)
(2.93946e-05 -1.8994e-06 0)
(2.92095e-05 -2.48678e-06 0)
(2.90045e-05 -3.10353e-06 0)
(3.03899e-05 -1.14023e-06 0)
(3.02529e-05 -1.68194e-06 0)
(3.01102e-05 -2.25922e-06 0)
(2.99484e-05 -2.87147e-06 0)
(3.11792e-05 -9.92425e-07 0)
(3.10929e-05 -1.51903e-06 0)
(3.09994e-05 -2.08589e-06 0)
(3.08876e-05 -2.69239e-06 0)
(3.19449e-05 -9.05726e-07 0)
(3.1915e-05 -1.41797e-06 0)
(3.1876e-05 -1.97409e-06 0)
(3.18199e-05 -2.57348e-06 0)
(3.26889e-05 -8.85736e-07 0)
(3.27194e-05 -1.38448e-06 0)
(3.27389e-05 -1.92956e-06 0)
(3.27425e-05 -2.52038e-06 0)
(3.34131e-05 -9.36333e-07 0)
(3.35065e-05 -1.42253e-06 0)
(3.35869e-05 -1.95628e-06 0)
(3.36528e-05 -2.53699e-06 0)
(3.41197e-05 -1.05953e-06 0)
(3.42768e-05 -1.5342e-06 0)
(3.44189e-05 -2.05636e-06 0)
(3.45478e-05 -2.62538e-06 0)
(3.48108e-05 -1.25539e-06 0)
(3.50307e-05 -1.7196e-06 0)
(3.52335e-05 -2.22989e-06 0)
(3.54246e-05 -2.78565e-06 0)
(3.54887e-05 -1.52198e-06 0)
(3.57687e-05 -1.97677e-06 0)
(3.60296e-05 -2.47495e-06 0)
(3.62801e-05 -3.0159e-06 0)
(3.61556e-05 -1.85537e-06 0)
(3.64913e-05 -2.30177e-06 0)
(3.68058e-05 -2.78761e-06 0)
(3.71114e-05 -3.31226e-06 0)
(3.68134e-05 -2.24973e-06 0)
(3.71987e-05 -2.68868e-06 0)
(3.75612e-05 -3.16196e-06 0)
(3.79157e-05 -3.66892e-06 0)
(3.7464e-05 -2.69744e-06 0)
(3.78914e-05 -3.1298e-06 0)
(3.82944e-05 -3.5903e-06 0)
(3.86904e-05 -4.07833e-06 0)
(3.81088e-05 -3.18929e-06 0)
(3.85696e-05 -3.61575e-06 0)
(3.90044e-05 -4.06329e-06 0)
(3.94331e-05 -4.53128e-06 0)
(3.87492e-05 -3.71464e-06 0)
(3.92333e-05 -4.13576e-06 0)
(3.96904e-05 -4.57015e-06 0)
(4.01419e-05 -5.0172e-06 0)
(3.93859e-05 -4.26179e-06 0)
(3.98827e-05 -4.67792e-06 0)
(4.03516e-05 -5.099e-06 0)
(4.0815e-05 -5.52441e-06 0)
(4.00195e-05 -4.8182e-06 0)
(4.05176e-05 -5.22949e-06 0)
(4.09872e-05 -5.63709e-06 0)
(4.14513e-05 -6.04039e-06 0)
(4.06499e-05 -5.37085e-06 0)
(4.11377e-05 -5.77725e-06 0)
(4.15968e-05 -6.17122e-06 0)
(4.205e-05 -6.55214e-06 0)
(4.12768e-05 -5.90658e-06 0)
(4.17427e-05 -6.30783e-06 0)
(4.21799e-05 -6.68801e-06 0)
(4.26107e-05 -7.04655e-06 0)
(4.18993e-05 -6.41247e-06 0)
(4.23321e-05 -6.80808e-06 0)
(4.27364e-05 -7.17434e-06 0)
(4.31335e-05 -7.51069e-06 0)
(4.25162e-05 -6.87612e-06 0)
(4.29051e-05 -7.26543e-06 0)
(4.32663e-05 -7.61762e-06 0)
(4.3619e-05 -7.93218e-06 0)
(4.31258e-05 -7.28603e-06 0)
(4.34612e-05 -7.66817e-06 0)
(4.37695e-05 -8.00617e-06 0)
(4.4068e-05 -8.29953e-06 0)
(4.37263e-05 -7.63182e-06 0)
(4.39993e-05 -8.00578e-06 0)
(4.42462e-05 -8.32945e-06 0)
(4.44819e-05 -8.60236e-06 0)
(4.43155e-05 -7.90451e-06 0)
(4.45186e-05 -8.26915e-06 0)
(4.46969e-05 -8.57836e-06 0)
(4.48623e-05 -8.8317e-06 0)
(4.48909e-05 -8.09666e-06 0)
(4.50182e-05 -8.45075e-06 0)
(4.51219e-05 -8.74536e-06 0)
(4.5211e-05 -8.98011e-06 0)
(4.545e-05 -8.20254e-06 0)
(4.54969e-05 -8.54476e-06 0)
(4.55217e-05 -8.82466e-06 0)
(4.553e-05 -9.04185e-06 0)
(4.59902e-05 -8.2182e-06 0)
(4.59539e-05 -8.54721e-06 0)
(4.58967e-05 -8.81225e-06 0)
(4.58214e-05 -9.01298e-06 0)
(4.65089e-05 -8.1415e-06 0)
(4.6388e-05 -8.45594e-06 0)
(4.62477e-05 -8.706e-06 0)
(4.60874e-05 -8.89136e-06 0)
(4.70035e-05 -7.97215e-06 0)
(4.67983e-05 -8.2707e-06 0)
(4.65751e-05 -8.50564e-06 0)
(4.63302e-05 -8.67669e-06 0)
(4.74714e-05 -7.71164e-06 0)
(4.71838e-05 -7.99302e-06 0)
(4.68796e-05 -8.21271e-06 0)
(4.6552e-05 -8.37047e-06 0)
(4.79103e-05 -7.36322e-06 0)
(4.75437e-05 -7.62624e-06 0)
(4.71616e-05 -7.83055e-06 0)
(4.67548e-05 -7.97594e-06 0)
(4.83181e-05 -6.93174e-06 0)
(4.78772e-05 -7.17533e-06 0)
(4.74218e-05 -7.36413e-06 0)
(4.69404e-05 -7.49795e-06 0)
(4.86929e-05 -6.4235e-06 0)
(4.81835e-05 -6.64673e-06 0)
(4.76605e-05 -6.81989e-06 0)
(4.71105e-05 -6.94281e-06 0)
(4.90332e-05 -5.84608e-06 0)
(4.84622e-05 -6.04819e-06 0)
(4.78782e-05 -6.20558e-06 0)
(4.72663e-05 -6.31809e-06 0)
(4.93378e-05 -5.20802e-06 0)
(4.87127e-05 -5.38844e-06 0)
(4.8075e-05 -5.52994e-06 0)
(4.74088e-05 -5.63234e-06 0)
(4.9606e-05 -4.51857e-06 0)
(4.89349e-05 -4.67695e-06 0)
(4.82511e-05 -4.80244e-06 0)
(4.75386e-05 -4.89483e-06 0)
(4.98374e-05 -3.78734e-06 0)
(4.91284e-05 -3.92354e-06 0)
(4.84065e-05 -4.03292e-06 0)
(4.76559e-05 -4.1152e-06 0)
(5.00321e-05 -3.02404e-06 0)
(4.92934e-05 -3.13814e-06 0)
(4.85411e-05 -3.23133e-06 0)
(4.77604e-05 -3.30315e-06 0)
(5.01907e-05 -2.23799e-06 0)
(4.94299e-05 -2.33032e-06 0)
(4.86546e-05 -2.40732e-06 0)
(4.78512e-05 -2.46818e-06 0)
(5.03142e-05 -1.43806e-06 0)
(4.95386e-05 -1.5091e-06 0)
(4.8747e-05 -1.56991e-06 0)
(4.79277e-05 -1.61905e-06 0)
(5.04034e-05 -6.31928e-07 0)
(4.96193e-05 -6.82492e-07 0)
(4.88171e-05 -7.27246e-07 0)
(4.79873e-05 -7.6386e-07 0)
(5.04618e-05 1.72548e-07 0)
(4.96746e-05 1.42219e-07 0)
(4.88664e-05 1.14418e-07 0)
(4.80299e-05 9.19798e-08 0)
(5.04859e-05 9.70295e-07 0)
(4.96993e-05 9.59205e-07 0)
(4.88887e-05 9.50262e-07 0)
(4.80479e-05 9.44723e-07 0)
)
;

boundaryField
{
    plateFix
    {
        type            calculated;
        value           uniform (0 0 0);
    }
    plate
    {
        type            calculated;
        value           nonuniform List<vector> 
168
(
(7.51145e-07 4.11254e-07 2.88937e-23)
(1.04537e-06 -5.7044e-07 -1.75221e-23)
(7.07093e-07 6.59781e-07 1.17756e-23)
(1.03629e-06 -9.17416e-07 9.20174e-23)
(7.12173e-07 8.40454e-07 -3.34111e-23)
(1.10127e-06 -1.19468e-06 4.24366e-23)
(7.77804e-07 9.49772e-07 1.07278e-22)
(1.24542e-06 -1.4023e-06 -2.12638e-23)
(9.01806e-07 1.00612e-06 -3.7261e-23)
(1.46222e-06 -1.56769e-06 -5.4774e-23)
(1.07393e-06 1.01743e-06 1.67535e-23)
(1.73614e-06 -1.70424e-06 -8.35284e-24)
(1.28882e-06 9.92164e-07 8.10826e-24)
(2.05844e-06 -1.82583e-06 6.27497e-23)
(1.54232e-06 9.35324e-07 -9.21462e-23)
(2.42219e-06 -1.94184e-06 7.98555e-24)
(1.83256e-06 8.50698e-07 1.00033e-22)
(2.82343e-06 -2.06016e-06 2.19227e-23)
(2.15882e-06 7.40533e-07 -6.75137e-23)
(3.25957e-06 -2.18681e-06 -8.35388e-24)
(2.52145e-06 6.06129e-07 -2.17827e-23)
(3.72923e-06 -2.32666e-06 -4.98318e-23)
(2.92158e-06 4.4798e-07 3.17145e-23)
(4.23169e-06 -2.4836e-06 -2.83306e-23)
(3.36103e-06 2.66045e-07 9.09881e-24)
(4.76674e-06 -2.66068e-06 4.58874e-23)
(3.84221e-06 5.99575e-08 1.49569e-23)
(5.33453e-06 -2.86018e-06 2.81411e-23)
(4.36811e-06 -1.70725e-07 -1.24779e-23)
(5.93545e-06 -3.08366e-06 -5.21045e-23)
(4.94223e-06 -4.26261e-07 -2.70742e-23)
(6.5701e-06 -3.33185e-06 2.6119e-23)
(5.56855e-06 -7.06426e-07 -1.28642e-23)
(7.23923e-06 -3.60464e-06 -3.46187e-23)
(6.25146e-06 -1.01021e-06 2.88953e-23)
(7.94372e-06 -3.90085e-06 2.2819e-23)
(6.99568e-06 -1.33545e-06 -3.65053e-23)
(8.68456e-06 -4.21807e-06 -1.54679e-23)
(7.80617e-06 -1.67853e-06 -1.79539e-23)
(9.46286e-06 -4.55234e-06 -5.48208e-23)
(8.68801e-06 -2.034e-06 2.46086e-23)
(1.02799e-05 -4.89787e-06 3.78216e-23)
(9.6462e-06 -2.3942e-06 -2.20333e-23)
(1.11374e-05 -5.24671e-06 -3.01125e-23)
(1.07254e-05 -2.7626e-06 4.30333e-23)
(1.20712e-05 -5.60146e-06 -1.75193e-24)
(1.18912e-05 -3.10773e-06 3.0978e-23)
(1.30486e-05 -5.93078e-06 3.46083e-23)
(1.30638e-05 -3.39608e-06 -3.57042e-25)
(1.40064e-05 -6.20204e-06 -4.21025e-23)
(1.42392e-05 -3.62179e-06 7.41213e-24)
(1.49476e-05 -6.40939e-06 -3.8095e-24)
(1.5413e-05 -3.78089e-06 -1.99312e-23)
(1.58753e-05 -6.54882e-06 -4.14482e-24)
(1.65811e-05 -3.87131e-06 3.66049e-23)
(1.67926e-05 -6.61826e-06 -1.8484e-24)
(1.77391e-05 -3.89295e-06 -3.62293e-23)
(1.77028e-05 -6.6176e-06 8.71714e-25)
(1.8883e-05 -3.84771e-06 -6.79227e-24)
(1.86089e-05 -6.54871e-06 4.03361e-23)
(2.00086e-05 -3.73947e-06 -1.24524e-23)
(1.9514e-05 -6.41546e-06 3.50202e-23)
(2.11122e-05 -3.57397e-06 -4.62451e-23)
(2.04208e-05 -6.22357e-06 5.65005e-24)
(2.21905e-05 -3.35865e-06 3.83564e-23)
(2.13316e-05 -5.98046e-06 -1.12994e-23)
(2.32407e-05 -3.10239e-06 -3.29719e-23)
(2.22483e-05 -5.69499e-06 3.8797e-23)
(2.42603e-05 -2.81521e-06 -2.47776e-24)
(2.31724e-05 -5.37718e-06 -2.22248e-23)
(2.52478e-05 -2.50795e-06 1.68551e-23)
(2.41047e-05 -5.03786e-06 3.61431e-23)
(2.62019e-05 -2.19194e-06 -6.56695e-24)
(2.50454e-05 -4.68837e-06 -3.06719e-23)
(2.71221e-05 -1.87872e-06 3.29009e-24)
(2.59941e-05 -4.34023e-06 -9.92733e-25)
(2.80085e-05 -1.57969e-06 8.92365e-25)
(2.69502e-05 -4.00488e-06 2.76149e-24)
(2.88614e-05 -1.30588e-06 -1.0225e-23)
(2.79123e-05 -3.69336e-06 -2.24084e-23)
(2.9682e-05 -1.06769e-06 -3.55875e-24)
(2.88786e-05 -3.41609e-06 -1.56288e-23)
(3.04716e-05 -8.74625e-07 -2.68108e-23)
(2.98468e-05 -3.18261e-06 2.2261e-23)
(3.12322e-05 -7.35085e-07 9.14237e-24)
(3.08142e-05 -3.00135e-06 -1.17108e-23)
(3.1966e-05 -6.5613e-07 1.83138e-23)
(3.17778e-05 -2.87943e-06 2.09378e-23)
(3.26757e-05 -6.43284e-07 3.37748e-24)
(3.27342e-05 -2.8224e-06 -1.07796e-23)
(3.33642e-05 -7.00364e-07 -4.98355e-24)
(3.36797e-05 -2.83414e-06 8.78095e-24)
(3.40345e-05 -8.29343e-07 1.17596e-23)
(3.46104e-05 -2.91667e-06 3.22365e-24)
(3.46898e-05 -1.03026e-06 -1.22761e-23)
(3.55225e-05 -3.07009e-06 -5.52496e-24)
(3.53334e-05 -1.30118e-06 -5.69641e-25)
(3.64118e-05 -3.29253e-06 -2.64372e-23)
(3.59684e-05 -1.6382e-06 8.96381e-24)
(3.72745e-05 -3.58014e-06 -2.84349e-24)
(3.65976e-05 -2.03554e-06 -2.64943e-23)
(3.81068e-05 -3.92719e-06 1.46627e-23)
(3.72238e-05 -2.48566e-06 5.07932e-24)
(3.89053e-05 -4.3262e-06 -1.62603e-23)
(3.78492e-05 -2.97941e-06 -2.76046e-23)
(3.9667e-05 -4.76808e-06 1.19426e-23)
(3.84758e-05 -3.50629e-06 -1.7645e-25)
(4.03891e-05 -5.24236e-06 9.36414e-25)
(3.91047e-05 -4.0547e-06 -2.48316e-23)
(4.10695e-05 -5.73751e-06 -6.91551e-24)
(3.97369e-05 -4.61223e-06 1.05237e-23)
(4.17068e-05 -6.24114e-06 -4.519e-24)
(4.03724e-05 -5.16602e-06 2.08089e-23)
(4.22999e-05 -6.74042e-06 -1.34239e-23)
(4.10109e-05 -5.70304e-06 -1.79181e-23)
(4.28485e-05 -7.22236e-06 7.73733e-24)
(4.16514e-05 -6.2105e-06 1.697e-23)
(4.33529e-05 -7.67418e-06 2.23649e-24)
(4.22922e-05 -6.67615e-06 7.92832e-24)
(4.3814e-05 -8.08365e-06 1.11366e-23)
(4.29312e-05 -7.08859e-06 1.08588e-23)
(4.42333e-05 -8.43938e-06 9.86349e-24)
(4.35659e-05 -7.43756e-06 -3.02715e-23)
(4.46126e-05 -8.73111e-06 2.40592e-23)
(4.41934e-05 -7.71413e-06 -2.94061e-23)
(4.49542e-05 -8.94994e-06 -1.89023e-23)
(4.48105e-05 -7.91096e-06 4.80951e-24)
(4.52609e-05 -9.08849e-06 -1.73685e-23)
(4.54137e-05 -8.02235e-06 -1.2888e-23)
(4.55355e-05 -9.14109e-06 -1.37308e-24)
(4.59995e-05 -8.04436e-06 -3.42043e-23)
(4.5781e-05 -9.10379e-06 3.44074e-23)
(4.65644e-05 -7.97488e-06 4.50778e-23)
(4.60005e-05 -8.97447e-06 -6.53662e-24)
(4.71049e-05 -7.81359e-06 8.48417e-24)
(4.61972e-05 -8.75281e-06 8.49101e-24)
(4.76176e-05 -7.56196e-06 2.5624e-23)
(4.63739e-05 -8.44027e-06 -1.30549e-23)
(4.80993e-05 -7.22316e-06 -1.68489e-23)
(4.65337e-05 -8.04004e-06 -3.18997e-24)
(4.85471e-05 -6.80199e-06 -1.48739e-23)
(4.66792e-05 -7.55689e-06 3.19206e-24)
(4.89584e-05 -6.30465e-06 7.22253e-24)
(4.68125e-05 -6.99705e-06 3.45317e-24)
(4.93312e-05 -5.73861e-06 -1.38869e-23)
(4.69356e-05 -6.36796e-06 -2.49375e-23)
(4.96639e-05 -5.11228e-06 1.43466e-23)
(4.70498e-05 -5.67807e-06 1.20549e-23)
(4.99555e-05 -4.43479e-06 2.88503e-25)
(4.71561e-05 -4.93649e-06 -4.61884e-23)
(5.02054e-05 -3.7156e-06 -3.06667e-23)
(4.72546e-05 -4.15273e-06 2.20738e-23)
(5.0414e-05 -2.96427e-06 -2.78116e-23)
(4.73451e-05 -3.33636e-06 7.87032e-24)
(5.05818e-05 -2.18999e-06 -2.69823e-25)
(4.74266e-05 -2.49672e-06 -1.22454e-23)
(5.07105e-05 -1.40155e-06 1.28316e-23)
(4.74978e-05 -1.6424e-06 3.85531e-23)
(5.08008e-05 -6.06296e-07 4.89536e-24)
(4.75554e-05 -7.81522e-07 -3.79017e-23)
(5.08571e-05 1.87305e-07 2.56951e-23)
(4.75984e-05 8.12291e-08 -2.11186e-23)
(5.08747e-05 9.76249e-07 4.45767e-24)
(5.04892e-05 1.36014e-06 -7.23449e-24)
(4.97027e-05 1.35947e-06 -1.812e-23)
(4.88911e-05 1.36468e-06 -1.39575e-23)
(4.80494e-05 1.37538e-06 8.21255e-24)
(4.76145e-05 9.40688e-07 8.28411e-24)
)
;
    }
    frontAndBackPlanes
    {
        type            empty;
    }
}


// ************************************************************************* //
