/*--------------------------------*- C++ -*----------------------------------*\
| =========                 |                                                 |
| \\      /  F ield         | OpenFOAM Extend Project: Open source CFD        |
|  \\    /   O peration     | Version:  1.6-ext                               |
|   \\  /    A nd           | Web:      www.extend-project.de                 |
|    \\/     M anipulation  |                                                 |
\*---------------------------------------------------------------------------*/
FoamFile
{
    version     2.0;
    format      ascii;
    class       surfaceScalarField;
    location    "1";
    object      meshPhi;
}
// * * * * * * * * * * * * * * * * * * * * * * * * * * * * * * * * * * * * * //

dimensions      [0 3 -1 0 0 0 0];

internalField   nonuniform List<scalar> 
570
(
-8.16513e-11
-2.13274e-09
-3.6978e-12
-5.66383e-10
6.81692e-11
-5.32467e-10
-1.81062e-09
-2.48942e-10
-2.53405e-09
-1.39707e-11
-1.25521e-09
2.03667e-10
-1.18283e-09
-2.12807e-09
-4.10323e-10
-3.13448e-09
-3.02755e-11
-2.08722e-09
3.24198e-10
-1.97189e-09
-2.62173e-09
-5.64456e-10
-3.9241e-09
-5.39464e-11
-3.03908e-09
4.25347e-10
-2.87819e-09
-3.2889e-09
-7.13582e-10
-4.88448e-09
-8.65052e-11
-4.10911e-09
5.05722e-10
-3.90081e-09
-4.11623e-09
-8.61382e-10
-5.99157e-09
-1.29855e-10
-5.28873e-09
5.64703e-10
-5.03214e-09
-5.08448e-09
-1.01226e-09
-7.23184e-09
-1.8635e-10
-6.57547e-09
6.01635e-10
-6.27042e-09
-6.18366e-09
-1.17133e-09
-8.59593e-09
-2.58833e-10
-7.96706e-09
6.15691e-10
-7.61415e-09
-7.40755e-09
-1.34428e-09
-1.00795e-08
-3.50687e-10
-9.46404e-09
6.0568e-10
-9.06459e-09
-8.75458e-09
-1.53741e-09
-1.16812e-08
-4.65867e-10
-1.10684e-08
5.69927e-10
-1.06246e-08
-1.0226e-08
-1.7575e-09
-1.34017e-08
-6.08923e-10
-1.27842e-08
5.06125e-10
-1.22989e-08
-1.18257e-08
-2.01174e-09
-1.52439e-08
-7.84998e-10
-1.46167e-08
4.11232e-10
-1.40941e-08
-1.35593e-08
-2.30762e-09
-1.72115e-08
-9.99778e-10
-1.65728e-08
2.81421e-10
-1.60179e-08
-1.54343e-08
-2.65274e-09
-1.93099e-08
-1.2594e-09
-1.86606e-08
1.12118e-10
-1.80797e-08
-1.74595e-08
-3.05463e-09
-2.15451e-08
-1.57024e-09
-2.08889e-08
-1.01837e-10
-2.02898e-08
-1.96452e-08
-3.52049e-09
-2.3924e-08
-1.93865e-09
-2.32674e-08
-3.65871e-10
-2.26592e-08
-2.20028e-08
-4.05673e-09
-2.64544e-08
-2.37047e-09
-2.58064e-08
-6.85185e-10
-2.51996e-08
-2.45446e-08
-4.66842e-09
-2.91448e-08
-2.87035e-09
-2.85167e-08
-1.06403e-09
-2.79236e-08
-2.72837e-08
-5.35848e-09
-3.20044e-08
-3.44088e-09
-3.14096e-08
-1.50477e-09
-3.08436e-08
-3.02337e-08
-6.12649e-09
-3.50435e-08
-4.08142e-09
-3.44968e-08
-2.00664e-09
-3.39726e-08
-3.34084e-08
-6.96733e-09
-3.82731e-08
-4.78654e-09
-3.77905e-08
-2.56423e-09
-3.73238e-08
-3.68216e-08
-7.86939e-09
-4.17052e-08
-5.5443e-09
-4.13035e-08
-3.16574e-09
-4.09101e-08
-4.04868e-08
-9.47319e-09
-4.56231e-08
-6.81283e-09
-4.53244e-08
-4.08262e-09
-4.50261e-08
-4.47037e-08
-9.79545e-09
-4.95078e-08
-7.15272e-09
-4.93195e-08
-4.43481e-09
-4.91233e-08
-4.89092e-08
-9.98475e-09
-5.33654e-08
-7.35904e-09
-5.32894e-08
-4.65666e-09
-5.31971e-08
-5.30932e-08
-1.00392e-08
-5.72015e-08
-7.42997e-09
-5.72345e-08
-4.74639e-09
-5.7243e-08
-5.72461e-08
-9.96263e-09
-6.10216e-08
-7.36926e-09
-6.11554e-08
-4.70767e-09
-6.12566e-08
-6.13583e-08
-9.76406e-09
-6.48309e-08
-7.18611e-09
-6.50522e-08
-4.54964e-09
-6.52335e-08
-6.54208e-08
-9.45797e-09
-6.86342e-08
-6.89507e-09
-6.89254e-08
-4.28673e-09
-6.91696e-08
-6.94248e-08
-9.06378e-09
-7.24357e-08
-6.51569e-09
-7.2775e-08
-3.93833e-09
-7.30609e-08
-7.33621e-08
-8.6055e-09
-7.6239e-08
-6.07213e-09
-7.66008e-08
-3.52839e-09
-7.69037e-08
-7.72254e-08
-8.11116e-09
-8.00468e-08
-5.59263e-09
-8.04025e-08
-3.08494e-09
-8.06947e-08
-8.10082e-08
-7.61225e-09
-8.3861e-08
-5.10889e-09
-8.41794e-08
-2.63942e-09
-8.44307e-08
-8.47048e-08
-7.14301e-09
-8.76824e-08
-4.65538e-09
-8.79306e-08
-2.22604e-09
-8.81089e-08
-8.83109e-08
-6.73963e-09
-9.15107e-08
-4.26858e-09
-9.16546e-08
-1.88098e-09
-9.17272e-08
-9.18228e-08
-6.43951e-09
-9.53447e-08
-3.98612e-09
-9.53499e-08
-1.64157e-09
-9.52835e-08
-9.52385e-08
-6.28037e-09
-9.91817e-08
-3.846e-09
-9.90144e-08
-1.54552e-09
-9.87762e-08
-9.85567e-08
-6.29942e-09
-1.03018e-07
-3.8857e-09
-1.02646e-07
-1.63001e-09
-1.02204e-07
-1.01778e-07
-6.53254e-09
-1.0685e-07
-4.14136e-09
-1.06241e-07
-1.93088e-09
-1.05567e-07
-1.04903e-07
-7.01346e-09
-1.1067e-07
-4.64693e-09
-1.09798e-07
-2.48182e-09
-1.08864e-07
-1.07934e-07
-7.77299e-09
-1.14474e-07
-5.43347e-09
-1.13313e-07
-3.31362e-09
-1.12094e-07
-1.10874e-07
-8.83834e-09
-1.18252e-07
-6.52837e-09
-1.16782e-07
-4.45346e-09
-1.15259e-07
-1.13728e-07
-1.02325e-08
-1.21998e-07
-7.95477e-09
-1.20201e-07
-5.92427e-09
-1.18359e-07
-1.165e-07
-1.19736e-08
-1.25702e-07
-9.73098e-09
-1.23568e-07
-7.74421e-09
-1.21394e-07
-1.19195e-07
-1.40747e-08
-1.29355e-07
-1.18701e-08
-1.26877e-07
-9.92625e-09
-1.24365e-07
-1.21821e-07
-1.65432e-08
-1.32949e-07
-1.43796e-08
-1.30125e-07
-1.24778e-08
-1.27274e-07
-1.24382e-07
-1.9381e-08
-1.36473e-07
-1.72613e-08
-1.33307e-07
-1.54006e-08
-1.30121e-07
-1.26885e-07
-2.25838e-08
-1.39919e-07
-2.05111e-08
-1.3642e-07
-1.86906e-08
-1.32907e-07
-1.29336e-07
-2.61421e-08
-1.43277e-07
-2.41192e-08
-1.39459e-07
-2.2338e-08
-1.35633e-07
-1.31742e-07
-3.00406e-08
-1.4654e-07
-2.80701e-08
-1.42421e-07
-2.63274e-08
-1.383e-07
-1.34108e-07
-3.42586e-08
-1.49698e-07
-3.23433e-08
-1.45302e-07
-3.06384e-08
-1.4091e-07
-1.36439e-07
-3.8771e-08
-1.52745e-07
-3.69131e-08
-1.481e-07
-3.52455e-08
-1.43461e-07
-1.38739e-07
-4.35481e-08
-1.55676e-07
-4.17498e-08
-1.5081e-07
-4.01193e-08
-1.45955e-07
-1.41013e-07
-4.85568e-08
-1.58483e-07
-4.682e-08
-1.53431e-07
-4.52263e-08
-1.48392e-07
-1.43262e-07
-5.3761e-08
-1.61163e-07
-5.20874e-08
-1.5596e-07
-5.05306e-08
-1.50771e-07
-1.45488e-07
-5.91224e-08
-1.63714e-07
-5.75132e-08
-1.58396e-07
-5.59938e-08
-1.53092e-07
-1.47693e-07
-6.46013e-08
-1.66132e-07
-6.30575e-08
-1.60736e-07
-6.1576e-08
-1.55353e-07
-1.49875e-07
-7.01574e-08
-1.68417e-07
-6.86798e-08
-1.6298e-07
-6.72372e-08
-1.57554e-07
-1.52034e-07
-7.57509e-08
-1.7057e-07
-7.43399e-08
-1.65127e-07
-7.29372e-08
-1.59693e-07
-1.54166e-07
-8.13428e-08
-1.72591e-07
-7.99986e-08
-1.67177e-07
-7.86371e-08
-1.61768e-07
-1.56269e-07
-8.68962e-08
-1.74484e-07
-8.56185e-08
-1.6913e-07
-8.42998e-08
-1.63776e-07
-1.58337e-07
-9.23765e-08
-1.7625e-07
-9.11651e-08
-1.70986e-07
-8.9891e-08
-1.65716e-07
-1.60365e-07
-9.77528e-08
-1.77896e-07
-9.6607e-08
-1.72746e-07
-9.53794e-08
-1.67585e-07
-1.62348e-07
-1.02998e-07
-1.79424e-07
-1.01917e-07
-1.74411e-07
-1.00738e-07
-1.6938e-07
-1.64278e-07
-1.08088e-07
-1.80841e-07
-1.07071e-07
-1.75982e-07
-1.05942e-07
-1.71097e-07
-1.66148e-07
-1.13005e-07
-1.82153e-07
-1.12051e-07
-1.7746e-07
-1.10976e-07
-1.72735e-07
-1.67952e-07
-1.17736e-07
-1.83365e-07
-1.16844e-07
-1.78847e-07
-1.15824e-07
-1.7429e-07
-1.69681e-07
-1.22273e-07
-1.84483e-07
-1.21441e-07
-1.80144e-07
-1.20478e-07
-1.75759e-07
-1.71328e-07
-1.26611e-07
-1.85513e-07
-1.25839e-07
-1.81352e-07
-1.24936e-07
-1.77139e-07
-1.72886e-07
-1.30753e-07
-1.86461e-07
-1.30039e-07
-1.82474e-07
-1.29198e-07
-1.78428e-07
-1.74347e-07
-1.34705e-07
-1.87332e-07
-1.34049e-07
-1.83509e-07
-1.3327e-07
-1.79622e-07
-1.75706e-07
-1.38478e-07
-1.8813e-07
-1.37878e-07
-1.84459e-07
-1.37165e-07
-1.80721e-07
-1.76956e-07
-1.42086e-07
-1.88859e-07
-1.41542e-07
-1.85325e-07
-1.40895e-07
-1.81721e-07
-1.78093e-07
-1.45546e-07
-1.89521e-07
-1.45058e-07
-1.86108e-07
-1.44479e-07
-1.82621e-07
-1.79114e-07
-1.4888e-07
-1.90119e-07
-1.48448e-07
-1.86807e-07
-1.47937e-07
-1.83421e-07
-1.80014e-07
-1.52109e-07
-1.90652e-07
-1.51732e-07
-1.87423e-07
-1.51291e-07
-1.84119e-07
-1.80794e-07
-1.55256e-07
-1.91121e-07
-1.54935e-07
-1.87954e-07
-1.54564e-07
-1.84714e-07
-1.81451e-07
-1.58344e-07
-1.91524e-07
-1.5808e-07
-1.884e-07
-1.57779e-07
-1.85207e-07
-1.81989e-07
-1.61395e-07
-1.91857e-07
-1.6119e-07
-1.8876e-07
-1.60958e-07
-1.85597e-07
-1.82407e-07
-1.64431e-07
-1.92119e-07
-1.64285e-07
-1.89031e-07
-1.64122e-07
-1.85887e-07
-1.82714e-07
-1.67472e-07
-1.92306e-07
-1.67383e-07
-1.89212e-07
-1.67284e-07
-1.86075e-07
-1.82914e-07
-1.70541e-07
-1.70499e-07
-1.70447e-07
)
;

boundaryField
{
    plateFix
    {
        type            calculated;
        value           nonuniform List<scalar> 4(1.64503e-09 -4.76812e-14 7.20832e-14 1.40203e-09);
    }
    plate
    {
        type            calculated;
        value           nonuniform List<scalar> 
168
(
3.85425e-10
3.27711e-10
6.74476e-10
5.70768e-10
9.45637e-10
7.89807e-10
1.19319e-09
9.76415e-10
1.42316e-09
1.13251e-09
1.64465e-09
1.26225e-09
1.86557e-09
1.36814e-09
2.09381e-09
1.45189e-09
2.33689e-09
1.51403e-09
2.60232e-09
1.55412e-09
2.89769e-09
1.57075e-09
3.23076e-09
1.56161e-09
3.6094e-09
1.52345e-09
4.0416e-09
1.45229e-09
4.53524e-09
1.3435e-09
5.09787e-09
1.19218e-09
5.73628e-09
9.93593e-10
6.45597e-09
7.43903e-10
7.2603e-09
4.41059e-10
8.1494e-09
8.59904e-11
9.11878e-09
-3.15934e-10
1.01576e-08
-7.53229e-10
1.20859e-08
-1.3078e-09
1.23874e-08
-1.66878e-09
1.25588e-08
-1.90518e-09
1.25983e-08
-2.01519e-09
1.25098e-08
-2.0024e-09
1.2302e-08
-1.87576e-09
1.19894e-08
-1.64943e-09
1.15908e-08
-1.34245e-09
1.113e-08
-9.78353e-10
1.06346e-08
-5.84671e-10
1.01355e-08
-1.92295e-10
9.66627e-09
1.65183e-10
9.26264e-09
4.52227e-10
8.96131e-09
6.32147e-10
8.79938e-09
6.67926e-10
8.81343e-09
5.23043e-10
9.03873e-09
1.62298e-10
9.50841e-09
-4.47397e-10
1.02528e-08
-1.33627e-09
1.12986e-08
-2.53099e-09
1.26684e-08
-4.05407e-09
1.438e-08
-5.92332e-09
1.64463e-08
-8.15144e-09
1.88746e-08
-1.07457e-08
2.16665e-08
-1.37078e-08
2.48182e-08
-1.70335e-08
2.83199e-08
-2.07134e-08
3.21568e-08
-2.47323e-08
3.63086e-08
-2.90699e-08
4.07505e-08
-3.37013e-08
4.54534e-08
-3.85973e-08
5.03848e-08
-4.37253e-08
5.5509e-08
-4.90496e-08
6.07884e-08
-5.45325e-08
6.6184e-08
-6.01349e-08
7.16563e-08
-6.58171e-08
7.71659e-08
-7.15397e-08
8.26746e-08
-7.72644e-08
8.8146e-08
-8.29546e-08
9.35462e-08
-8.85763e-08
9.88445e-08
-9.40988e-08
1.04014e-07
-9.94951e-08
1.09032e-07
-1.04742e-07
1.1388e-07
-1.09822e-07
1.18545e-07
-1.14721e-07
1.23019e-07
-1.1943e-07
1.27298e-07
-1.23947e-07
1.31384e-07
-1.28273e-07
1.35282e-07
-1.32413e-07
1.39004e-07
-1.36378e-07
1.42563e-07
-1.40182e-07
1.45975e-07
-1.43841e-07
1.49262e-07
-1.47376e-07
1.52445e-07
-1.50808e-07
1.55544e-07
-1.5416e-07
1.58584e-07
-1.57453e-07
1.61586e-07
-1.60709e-07
1.64569e-07
-1.63948e-07
1.67558e-07
-1.67179e-07
1.70586e-07
-1.92414e-07
-1.89314e-07
-1.86181e-07
-1.83025e-07
-1.70389e-07
)
;
    }
    frontAndBackPlanes
    {
        type            empty;
    }
}


// ************************************************************************* //
