/*--------------------------------*- C++ -*----------------------------------*\
| =========                 |                                                 |
| \\      /  F ield         | OpenFOAM Extend Project: Open source CFD        |
|  \\    /   O peration     | Version:  1.6-ext                               |
|   \\  /    A nd           | Web:      www.extend-project.de                 |
|    \\/     M anipulation  |                                                 |
\*---------------------------------------------------------------------------*/
FoamFile
{
    version     2.0;
    format      ascii;
    class       volSymmTensorField;
    location    "1";
    object      sigma;
}
// * * * * * * * * * * * * * * * * * * * * * * * * * * * * * * * * * * * * * //

dimensions      [1 -1 -2 0 0 0 0];

internalField   nonuniform List<symmTensor> 
328
(
(6.35958 0.50816 -6.765e-22 2.49637 6.14181e-20 3.5403)
(1.40057 -0.470013 1.06328e-23 0.662249 5.57415e-23 0.823999)
(-2.0831 -0.258624 8.25167e-23 -0.89897 -7.3421e-23 -1.19398)
(-7.37378 0.977959 1.11913e-22 -2.40717 -1.24483e-19 -3.91479)
(6.17642 0.325058 2.18294e-21 1.90006 -1.30351e-19 3.2285)
(1.38447 -0.213097 6.94324e-23 0.322715 -6.64635e-23 0.681672)
(-2.07336 -0.0375815 3.95477e-24 -0.202926 1.11366e-22 -0.911772)
(-7.02504 0.649796 1.31112e-21 -1.46616 -1.10364e-20 -3.39889)
(6.19539 0.209408 -2.9536e-21 1.59033 -3.40401e-20 3.1121)
(1.4579 -0.0269612 -1.70679e-22 0.194096 1.82695e-22 0.659476)
(-2.25869 0.108135 9.26631e-22 0.134741 8.4743e-23 -0.850995)
(-6.99906 0.41256 -5.21038e-21 -0.951629 1.428e-19 -3.18281)
(6.14025 0.144536 1.73914e-21 1.39069 3.94275e-21 3.01012)
(1.43488 0.0967123 4.17414e-22 0.101975 -8.34217e-23 0.613287)
(-2.26478 0.1893 -1.05319e-21 0.420373 -6.90776e-22 -0.739335)
(-6.88906 0.259449 4.5754e-21 -0.609407 1.36687e-20 -3.002)
(6.10828 0.112673 -1.2097e-21 1.28919 6.10132e-20 2.95667)
(1.41905 0.169907 1.25865e-21 0.071689 4.53297e-22 0.594725)
(-2.28257 0.225071 1.96449e-22 0.583199 -5.12055e-22 -0.681454)
(-6.83486 0.167927 -3.2035e-22 -0.424084 -9.48089e-20 -2.90626)
(6.06017 0.0996103 7.2949e-22 1.23536 -5.81662e-20 2.91586)
(1.38402 0.213339 -9.26927e-22 0.0589127 -2.03268e-22 0.575512)
(-2.2551 0.238381 -1.70506e-21 0.698763 7.68994e-22 -0.624341)
(-6.77399 0.1157 -4.69896e-24 -0.319839 3.03959e-20 -2.84025)
(6.00888 0.0963684 -1.83055e-21 1.21078 1.15572e-19 2.8855)
(1.35149 0.236347 6.04193e-22 0.0604704 -1.84511e-23 0.56306)
(-2.22354 0.239674 1.51148e-22 0.76766 -3.01339e-22 -0.584226)
(-6.72194 0.0880862 3.9808e-22 -0.268546 1.19552e-20 -2.79893)
(5.94936 0.0973666 4.97533e-21 1.19922 -5.4083e-20 2.85707)
(1.31822 0.247401 -8.19944e-21 0.0649288 -1.56228e-21 0.551493)
(-2.18184 0.236588 1.02407e-21 0.811918 -4.35279e-22 -0.549885)
(-6.66722 0.0747173 -2.1809e-21 -0.244292 -5.27073e-20 -2.76734)
(5.88379 0.0997023 -4.18162e-21 1.19307 6.92411e-20 2.82839)
(1.2881 0.251139 5.63768e-21 0.0703366 7.08247e-22 0.541585)
(-2.13966 0.232445 3.80845e-21 0.837232 -4.8842e-22 -0.522908)
(-6.60996 0.0693225 -3.82084e-21 -0.234218 7.89076e-20 -2.7404)
(5.81202 0.101986 5.50186e-21 1.18788 -8.86376e-20 2.79762)
(1.2601 0.250918 3.929e-21 0.0746309 -4.43794e-22 0.532094)
(-2.09708 0.228894 2.10996e-21 0.851072 -5.21912e-24 -0.500348)
(-6.54723 0.0679534 1.14782e-20 -0.230013 -6.80979e-20 -2.71361)
(5.73473 0.10376 -2.10442e-21 1.18177 6.29736e-20 2.76428)
(1.23417 0.248664 -1.25921e-20 0.0779254 7.99883e-22 0.523042)
(-2.05617 0.226279 7.15217e-22 0.85681 -1.3485e-21 -0.481685)
(-6.47812 0.0683711 -7.46916e-21 -0.227549 1.34627e-20 -2.68496)
(5.65213 0.104989 -1.06523e-20 1.17402 -8.23404e-20 2.72815)
(1.20944 0.2456 1.25694e-20 0.0804684 3.38358e-21 0.514175)
(-2.01685 0.224477 -2.46114e-21 0.857314 2.47792e-21 -0.465743)
(-6.40168 0.069302 -2.3138e-21 -0.22468 2.41294e-20 -2.65321)
(5.56436 0.105814 2.07574e-20 1.16452 6.04991e-20 2.68926)
(1.18531 0.242389 -2.62622e-21 0.0827923 -1.69731e-21 0.50546)
(-1.97906 0.223158 -7.64866e-21 0.854218 2.32506e-22 -0.451855)
(-6.31742 0.0700986 2.37999e-21 -0.220513 1.54195e-20 -2.61782)
(5.47132 0.106396 -1.78164e-20 1.15336 -3.3556e-21 2.64761)
(1.16117 0.239373 -1.67829e-20 0.0852913 -7.21652e-22 0.496814)
(-1.94226 0.222008 1.13172e-21 0.848702 1.65339e-21 -0.439328)
(-6.22504 0.0704606 1.48125e-21 -0.214759 -3.9454e-20 -2.57854)
(5.37282 0.106855 -1.08496e-20 1.14067 -1.20525e-20 2.60316)
(1.13661 0.236671 -8.57874e-21 0.0882381 -2.19253e-22 0.488178)
(-1.90584 0.220789 -5.40804e-22 0.841469 9.89377e-23 -0.427639)
(-6.12436 0.0702944 1.20364e-20 -0.207443 1.19259e-20 -2.53531)
(5.26854 0.107258 1.01289e-20 1.12656 -2.71385e-21 2.55583)
(1.11131 0.234271 3.40825e-21 0.0917455 -3.30917e-21 0.479473)
(-1.86912 0.21935 7.70238e-21 0.832958 2.8888e-21 -0.41634)
(-6.01523 0.0696145 -1.42595e-21 -0.198713 -2.45212e-20 -2.48813)
(5.15813 0.107622 -1.02318e-20 1.11107 -2.46687e-20 2.50549)
(1.08509 0.232087 8.49383e-21 0.0958179 4.95566e-21 0.470621)
(-1.83144 0.217615 -1.0398e-20 0.823389 -7.11499e-23 -0.405083)
(-5.89754 0.0684881 1.20063e-20 -0.188766 2.86241e-20 -2.43704)
(5.04121 0.107936 4.926e-20 1.09419 2.00546e-20 2.452)
(1.05779 0.230003 -1.43317e-20 0.10038 -5.81617e-21 0.461537)
(-1.79223 0.215555 3.18628e-20 0.812856 5.86712e-21 -0.393597)
(-5.77114 0.0670009 -1.36084e-20 -0.177791 -6.75745e-20 -2.38205)
(4.91747 0.108166 -4.52224e-20 1.07588 -3.16213e-21 2.39521)
(1.02935 0.227898 -4.74754e-20 0.105331 -1.02199e-20 0.45215)
(-1.75098 0.213163 -5.46712e-21 0.801366 -7.58799e-21 -0.381678)
(-5.63583 0.0652356 -4.60723e-21 -0.165956 3.85744e-20 -2.32315)
(4.78651 0.108272 -6.99253e-20 1.05606 -1.67631e-20 2.33493)
(0.999672 0.22565 7.05866e-20 0.110537 2.09477e-21 0.442373)
(-1.70728 0.210433 2.4562e-20 0.78887 8.31339e-22 -0.369184)
(-5.49139 0.0632677 2.70334e-20 -0.153397 -1.04274e-20 -2.2603)
(4.64829 0.10823 7.8612e-20 1.03473 3.33421e-20 2.27114)
(0.968816 0.223178 -8.67081e-21 0.115923 1.32038e-20 0.432197)
(-1.6608 0.207366 -6.64743e-21 0.775338 -1.19838e-20 -0.355988)
(-5.33761 0.0611438 -3.47885e-20 -0.140193 2.81855e-20 -2.19346)
(4.50202 0.107897 1.06039e-20 1.0115 -1.51226e-20 2.20338)
(0.936601 0.220294 -2.95115e-20 0.121256 4.43932e-21 0.421456)
(-1.6113 0.203865 -5.75581e-21 0.760653 2.90066e-21 -0.342043)
(-5.17406 0.0588833 -1.63385e-20 -0.126413 -1.23178e-21 -2.12248)
(4.34331 0.106967 -1.25779e-20 0.986367 -6.72969e-21 2.12988)
(0.902128 0.216 6.48735e-20 0.127053 2.0544e-20 0.41)
(-1.55656 0.198894 2.33434e-20 0.744174 -1.10302e-20 -0.32672)
(-4.99492 0.0558586 5.89406e-20 -0.11184 -3.1735e-20 -2.04494)
(4.17697 0.106912 -4.0207e-20 0.959232 -2.36753e-20 2.05253)
(0.86642 0.213596 -2.66427e-20 0.132557 5.66512e-21 0.397934)
(-1.4984 0.195829 2.44237e-20 0.726096 7.06892e-21 -0.310664)
(-4.806 0.0537478 -1.53739e-19 -0.0974672 6.20269e-20 -1.96357)
(4.01306 0.106721 -5.63264e-20 0.931874 1.32767e-20 1.97606)
(0.831889 0.211257 5.35699e-21 0.137574 1.88364e-20 0.386144)
(-1.44027 0.192932 -8.28516e-21 0.708062 5.13344e-21 -0.294606)
(-4.61822 0.0518536 9.3589e-20 -0.083121 -5.7316e-20 -1.88266)
(3.85176 0.106378 1.1668e-19 0.904234 -1.60301e-20 1.90053)
(0.798368 0.208792 -2.32053e-20 0.141978 -1.39704e-20 0.374512)
(-1.3824 0.189977 -1.87396e-20 0.689755 -1.85781e-20 -0.27876)
(-4.4324 0.0499984 -1.27666e-20 -0.0694874 1.34191e-20 -1.80283)
(3.69322 0.105866 3.68052e-20 0.876579 -3.26988e-20 1.82608)
(0.765916 0.20619 -1.06012e-19 0.145932 -2.75096e-20 0.36313)
(-1.32468 0.186974 4.9235e-20 0.671312 1.37793e-21 -0.263028)
(-4.24838 0.0482323 -4.56506e-20 -0.0563616 -1.51442e-20 -1.72392)
(3.53741 0.105225 -1.61677e-20 0.848808 1.23488e-20 1.75269)
(0.734459 0.203451 6.9722e-21 0.149352 5.48726e-20 0.35193)
(-1.26724 0.183902 -6.6348e-20 0.652652 -1.57714e-20 -0.247495)
(-4.06644 0.0465244 -2.82702e-20 -0.0439086 2.76298e-20 -1.64611)
(3.38449 0.104446 1.31205e-19 0.821017 4.04594e-20 1.68043)
(0.704039 0.200575 9.13619e-20 0.152288 -2.38959e-20 0.340953)
(-1.21009 0.180765 4.55455e-20 0.633843 5.15436e-20 -0.232135)
(-3.88662 0.044886 7.64562e-20 -0.0320508 -7.12488e-20 -1.56939)
(3.23447 0.103541 -1.98421e-19 0.793179 -5.79811e-20 1.60933)
(0.674628 0.197562 5.10003e-20 0.15471 -1.97507e-20 0.330172)
(-1.15329 0.177557 -7.84162e-20 0.614865 5.93161e-20 -0.216988)
(-3.70908 0.0433023 2.48856e-21 -0.0208423 -2.86921e-20 -1.49385)
(3.08747 0.102507 -5.71854e-20 0.765337 1.01947e-20 1.53942)
(0.64624 0.194413 -7.35702e-20 0.156633 4.44694e-20 0.319602)
(-1.0969 0.174276 -6.17237e-20 0.595748 -3.18099e-20 -0.202055)
(-3.53394 0.0417735 -5.13129e-20 -0.0102629 7.69562e-20 -1.41952)
(2.94354 0.10135 -8.87383e-20 0.737494 -6.72247e-21 1.47074)
(0.618867 0.191124 -8.09619e-20 0.158048 -3.99329e-20 0.309235)
(-1.04096 0.170916 -8.8055e-20 0.576496 -7.67592e-20 -0.187362)
(-3.36132 0.0402921 8.89243e-20 -0.000333161 3.58831e-20 -1.34645)
(2.80276 0.100067 -1.76261e-19 0.709679 -1.13696e-20 1.40333)
(0.592513 0.187692 2.88017e-19 0.158961 6.96873e-20 0.299074)
(-0.985535 0.167473 -6.0445e-20 0.557128 -1.28851e-19 -0.172919)
(-3.19136 0.0388554 -5.98101e-20 0.00894929 4.15187e-20 -1.27471)
(2.6652 0.0986595 9.02274e-20 0.681907 -6.03462e-20 1.33723)
(0.567173 0.184116 -4.79161e-20 0.15937 4.22092e-20 0.289118)
(-0.930681 0.163941 2.56992e-19 0.537655 3.17221e-20 -0.158747)
(-3.02418 0.0374585 -1.53448e-19 0.0175757 2.13797e-20 -1.20435)
(2.53096 0.097126 -2.27019e-20 0.654205 8.96787e-21 1.27248)
(0.542847 0.180391 9.76629e-20 0.15928 1.49896e-19 0.279367)
(-0.876456 0.160315 1.42412e-19 0.518096 -9.27959e-20 -0.144861)
(-2.85993 0.0360987 1.25888e-20 0.0255446 4.40162e-20 -1.13543)
(2.40009 0.095466 3.1322e-19 0.626595 7.74481e-21 1.20912)
(0.519531 0.176514 -1.40225e-19 0.158694 5.77701e-20 0.269822)
(-0.822922 0.156593 -7.52938e-20 0.498469 -3.26263e-20 -0.131279)
(-2.69876 0.0347724 -1.56542e-19 0.0328526 -1.20839e-19 -1.068)
(2.27269 0.0936783 -9.09404e-20 0.599107 1.42675e-19 1.14719)
(0.497221 0.172483 -9.6046e-20 0.15762 8.56388e-20 0.260484)
(-0.770142 0.152769 -3.53614e-20 0.478793 -1.17696e-19 -0.118017)
(-2.5408 0.0334774 4.40609e-20 0.0394996 -3.02867e-20 -1.00212)
(2.14883 0.0917622 -1.59569e-19 0.571769 1.3742e-21 1.08673)
(0.47591 0.168295 2.09559e-19 0.156065 -1.67832e-19 0.251354)
(-0.718182 0.14884 -1.70152e-19 0.459093 2.14603e-19 -0.105095)
(-2.38621 0.0322113 1.27773e-19 0.0454859 -1.12649e-19 -0.937857)
(2.02859 0.0897169 5.35121e-20 0.544615 -9.15357e-20 1.0278)
(0.455591 0.163949 1.04161e-20 0.15404 -1.65494e-19 0.242433)
(-0.667111 0.144805 -1.40492e-19 0.439391 -1.09782e-19 -0.0925275)
(-2.23513 0.0309725 -4.04356e-20 0.0508147 1.7544e-19 -0.875264)
(1.91204 0.0875421 2.66481e-19 0.51768 1.52641e-19 0.970426)
(0.436255 0.159445 -4.28386e-20 0.151558 3.38324e-19 0.233722)
(-0.616999 0.140662 1.49215e-19 0.419716 1.46283e-19 -0.0803333)
(-2.08774 0.0297597 -1.97724e-19 0.0554907 -1.0589e-19 -0.814404)
(1.79926 0.0852382 -9.35787e-20 0.491001 1.07521e-19 0.914666)
(0.417891 0.154782 1.38544e-19 0.148635 -1.38062e-19 0.225224)
(-0.567916 0.13641 2.10124e-20 0.400097 1.83624e-19 -0.068529)
(-1.94418 0.0285722 -1.2696e-19 0.0595208 3.78366e-20 -0.755336)
(1.69032 0.0828058 -1.65365e-19 0.464621 -2.30027e-19 0.86056)
(0.400485 0.149965 -3.72047e-20 0.145289 1.68031e-19 0.21694)
(-0.519937 0.132052 1.13757e-19 0.380565 -2.95957e-19 -0.0571309)
(-1.8046 0.0274096 1.55224e-19 0.0629146 7.54932e-20 -0.69812)
(1.58528 0.0802466 1.16867e-19 0.438581 5.56324e-20 0.808153)
(0.384024 0.144994 -1.96499e-19 0.14154 8.11364e-21 0.208873)
(-0.473135 0.127589 3.85161e-19 0.361153 -7.62359e-20 -0.0461553)
(-1.66918 0.0262722 -2.70294e-19 0.0656839 6.46595e-20 -0.642814)
(1.48422 0.0775631 1.14009e-19 0.412927 -1.24079e-19 0.757488)
(0.368489 0.139877 -2.15271e-19 0.137413 5.08147e-20 0.201026)
(-0.427583 0.123027 -5.27671e-20 0.341898 4.52272e-19 -0.0356174)
(-1.53805 0.0251606 9.26072e-20 0.0678431 6.20896e-20 -0.589473)
(1.38718 0.0747585 3.14535e-19 0.387705 -4.56789e-20 0.708607)
(0.353862 0.134619 -1.93375e-19 0.132931 -1.3036e-19 0.1934)
(-0.383356 0.118369 -3.56432e-21 0.322837 -3.97913e-19 -0.0255319)
(-1.41138 0.0240759 1.01225e-21 0.0694092 -2.1193e-19 -0.538151)
(1.29422 0.0718372 -1.49938e-21 0.362963 1.09463e-19 0.661548)
(0.34012 0.129229 -1.17172e-19 0.128125 2.33996e-19 0.185998)
(-0.340525 0.113624 -2.21085e-19 0.304008 3.47799e-19 -0.0159123)
(-1.28931 0.0230199 -3.09137e-19 0.070402 -1.67757e-21 -0.488898)
(1.20538 0.0688046 7.59916e-19 0.338751 1.48937e-20 0.616349)
(0.32724 0.123717 -1.0094e-19 0.123024 4.71262e-19 0.178823)
(-0.299163 0.1088 1.03573e-19 0.285451 -2.01374e-19 -0.0067711)
(-1.17196 0.0219944 3.30822e-19 0.0708436 1.14829e-19 -0.441759)
(1.1207 0.0656672 -1.82037e-19 0.315117 -5.4925e-20 0.573041)
(0.315194 0.118096 -4.40966e-19 0.117661 -6.08779e-19 0.171878)
(-0.259339 0.103909 8.64603e-20 0.267207 -6.21017e-20 0.00188032)
(-1.05948 0.0210022 -2.20875e-19 0.0707591 1.13534e-19 -0.396777)
(1.04018 0.0624325 9.76722e-20 0.292111 -3.40661e-20 0.531653)
(0.303952 0.11238 2.20795e-19 0.112069 -7.3029e-20 0.165162)
(-0.221118 0.0989623 -9.3357e-20 0.249319 -3.65203e-19 0.0100321)
(-0.95198 0.020046 -6.29433e-19 0.0701758 1.09032e-19 -0.353986)
(0.963854 0.0591091 9.99981e-20 0.26978 1.89987e-20 0.49221)
(0.293484 0.106583 -1.05307e-19 0.106286 5.25526e-19 0.158679)
(-0.184562 0.0939736 1.02234e-19 0.231826 -3.18501e-20 0.0176758)
(-0.849564 0.0191293 2.21943e-19 0.0691237 1.12639e-19 -0.313418)
(0.891711 0.0557063 -3.51814e-19 0.248173 -1.53742e-19 0.45473)
(0.283753 0.100724 5.89143e-19 0.100346 -1.25811e-20 0.152429)
(-0.14973 0.0889583 -2.56544e-19 0.21477 3.02328e-19 0.0248047)
(-0.752324 0.0182554 1.22063e-19 0.0676348 -2.74207e-19 -0.275096)
(0.823737 0.0522348 -2.74455e-19 0.227333 -5.62979e-20 0.419224)
(0.274724 0.0948204 -2.9314e-19 0.0942894 -9.14128e-19 0.146412)
(-0.116675 0.0839329 -1.17542e-19 0.198192 -1.29233e-19 0.0314135)
(-0.660337 0.0174285 3.3074e-19 0.0657434 -3.9712e-21 -0.239037)
(0.759905 0.0487055 3.72405e-19 0.207303 1.25586e-19 0.385698)
(0.266354 0.0888933 -1.9055e-19 0.0881534 3.80207e-19 0.140627)
(-0.0854448 0.078915 1.62914e-19 0.18213 3.03618e-19 0.037499)
(-0.57366 0.0166525 2.12906e-19 0.0634856 -3.73097e-19 -0.205249)
(0.700171 0.0451306 6.64888e-20 0.188123 -7.75471e-20 0.35415)
(0.258603 0.0829634 -2.27592e-20 0.0819769 1.59976e-19 0.135073)
(-0.0560801 0.0739233 -2.3801e-19 0.166624 9.66655e-20 0.0430596)
(-0.492333 0.0159316 -3.56517e-19 0.0608993 1.6422e-19 -0.173734)
(0.644476 0.0415223 -6.65051e-20 0.169828 -4.9845e-20 0.324573)
(0.251425 0.0770526 1.99842e-19 0.0757988 3.67689e-19 0.129747)
(-0.0286159 0.0689771 1.88773e-19 0.151707 1.09634e-19 0.0480959)
(-0.416378 0.0152704 1.1328e-19 0.0580239 -4.2058e-20 -0.144483)
(0.592745 0.0378935 -2.10291e-19 0.152452 2.55405e-20 0.296947)
(0.244772 0.0711836 -8.3208e-20 0.0696573 -3.98456e-19 0.124646)
(-0.00308005 0.0640963 -8.41481e-19 0.137415 2.10524e-19 0.0526101)
(-0.345794 0.014673 1.20413e-20 0.0548998 1.95221e-19 -0.117481)
(0.544889 0.0342574 -1.85488e-19 0.13602 -7.32368e-19 0.27125)
(0.238594 0.0653796 -3.27467e-19 0.0635904 3.41262e-19 0.119765)
(0.0205074 0.0593014 6.74119e-19 0.123777 -6.12002e-19 0.0566064)
(-0.28056 0.0141441 3.60849e-19 0.0515686 -2.97916e-20 -0.0927026)
(0.500801 0.0306273 -2.25683e-19 0.120557 1.3558e-19 0.247446)
(0.23284 0.0596637 1.9645e-19 0.0576348 1.86206e-19 0.115097)
(0.042134 0.0546129 -3.90819e-19 0.110822 1.26918e-19 0.0600911)
(-0.220634 0.013688 -7.16526e-19 0.0480724 1.88801e-19 -0.0701138)
(0.460359 0.0270164 3.63257e-19 0.106081 -1.60812e-19 0.225495)
(0.227455 0.0540596 2.22392e-19 0.0518265 -1.25621e-19 0.110635)
(0.0617953 0.0500516 -8.41776e-20 0.0985746 -1.44908e-20 0.0630724)
(-0.16595 0.0133091 7.85724e-19 0.0444539 -4.38492e-19 -0.0496715)
(0.423423 0.0234382 -1.91122e-19 0.0926052 2.19346e-19 0.205346)
(0.222384 0.0485908 -3.95277e-19 0.0462002 1.81349e-19 0.106372)
(0.079495 0.0456385 2.57926e-19 0.0870559 -4.24928e-19 0.0655602)
(-0.116423 0.013012 -6.06545e-19 0.0407561 1.20919e-19 -0.0313238)
(0.389839 0.0199058 -6.17049e-19 0.0801371 2.74263e-20 0.186941)
(0.217567 0.0432811 1.16528e-19 0.0407892 -1.08157e-19 0.102296)
(0.0952451 0.0413946 4.53949e-19 0.0762839 -9.69869e-21 0.0675666)
(-0.0719414 0.0128013 -5.92124e-20 0.037022 2.11515e-19 -0.0150096)
(0.359437 0.0164323 4.04736e-19 0.06868 2.35867e-19 0.170213)
(0.212945 0.0381543 4.42231e-19 0.0356256 -5.17308e-19 0.0983963)
(0.109066 0.0373413 -4.11739e-19 0.0662727 -4.95874e-19 0.0691053)
(-0.0323748 0.0126817 -2.98348e-19 0.0332945 -2.65012e-20 -0.000658941)
(0.332029 0.0130307 -4.25285e-19 0.0582318 1.54086e-19 0.155086)
(0.208456 0.0332343 -6.90561e-19 0.0307399 -2.33072e-19 0.0946613)
(0.120986 0.0335003 1.5198e-19 0.0570327 2.87622e-19 0.0701919)
(0.00243162 0.0126584 1.86272e-19 0.0296165 6.56478e-20 0.011807)
(0.307413 0.0097137 7.20504e-21 0.048785 -6.85037e-20 0.141475)
(0.204038 0.0285453 5.4962e-19 0.0261613 -3.40241e-19 0.091077)
(0.131042 0.0298937 1.07827e-18 0.0485707 3.3318e-19 0.070844)
(0.0326545 0.0127368 -4.22079e-20 0.0260305 2.44561e-19 0.0224761)
(0.285373 0.00649374 9.53909e-20 0.0403277 -3.07847e-19 0.129291)
(0.199625 0.0241115 -5.4402e-19 0.0219179 1.01225e-18 0.0876285)
(0.13928 0.0265438 2.573e-21 0.0408895 -5.3547e-19 0.0710807)
(0.0584923 0.0129229 1.27996e-19 0.0225791 -5.18557e-19 0.0314447)
(0.265673 0.00338292 -3.40925e-19 0.0328428 5.67302e-20 0.118431)
(0.19515 0.0199571 2.64166e-19 0.0180367 -3.48268e-19 0.0843)
(0.145752 0.0234731 -2.60105e-19 0.0339886 7.20046e-20 0.0709229)
(0.0801654 0.013223 1.76079e-19 0.0193046 2.37726e-20 0.0388179)
(0.248069 0.000392595 -5.52237e-19 0.0263091 3.65707e-19 0.10879)
(0.190545 0.0161053 1.2324e-20 0.0145436 2.06317e-19 0.0810749)
(0.150517 0.0207039 4.90632e-19 0.0278642 -5.43996e-19 0.070393)
(0.0979141 0.0136439 4.84136e-19 0.0162493 -2.15484e-19 0.0447088)
(0.232298 -0.00246699 3.56461e-19 0.020701 -4.37153e-19 0.100253)
(0.185743 0.0125777 1.13514e-19 0.0114636 -9.27397e-19 0.0779355)
(0.153644 0.0182567 -7.50281e-19 0.0225094 1.93247e-18 0.0695152)
(0.111998 0.0141922 -5.33128e-19 0.0134558 -2.72808e-19 0.0492381)
(0.218092 -0.00518754 -1.3651e-19 0.0159897 5.31457e-19 0.0926991)
(0.180673 0.00939231 1.91584e-19 0.00882145 -4.25912e-19 0.0748641)
(0.155204 0.0161495 1.05432e-18 0.0179152 -3.56443e-19 0.0683146)
(0.122691 0.0148744 -4.1956e-19 0.010967 -1.66301e-19 0.0525329)
(0.205173 -0.00776367 -5.48249e-19 0.0121431 -7.06033e-19 0.0860058)
(0.175267 0.00656144 -2.3027e-19 0.00664071 3.19845e-19 0.0718425)
(0.155273 0.0143949 -7.49269e-20 0.014071 -5.60772e-19 0.0668176)
(0.130281 0.0156956 2.92903e-20 0.00882606 -2.50554e-19 0.0547252)
(0.193263 -0.0101945 -2.11664e-19 0.00912853 -4.68358e-20 0.0800489)
(0.169458 0.00408839 5.19484e-19 0.00494575 1.21254e-18 0.0688534)
(0.153931 0.0129984 -9.37726e-19 0.0109662 -8.3953e-20 0.0650515)
(0.135061 0.016659 -2.59801e-20 0.00707719 3.58526e-19 0.0559499)
(0.18209 -0.0124855 -7.74388e-19 0.00691185 1.26598e-19 0.0747054)
(0.163177 0.00196369 -2.77418e-19 0.00375979 -4.40481e-19 0.0658789)
(0.151254 0.011955 9.25936e-19 0.00859091 4.68557e-19 0.0630425)
(0.137321 0.0177653 -7.51465e-19 0.00576453 4.79467e-19 0.0563409)
(0.171403 -0.0146519 4.73093e-20 0.00546503 5.50956e-19 0.069864)
(0.156364 0.000159873 -3.80596e-20 0.00311216 1.61167e-19 0.0629065)
(0.147315 0.0112484 2.88507e-19 0.0069436 3.26698e-19 0.0608197)
(0.137349 0.0190127 1.65997e-19 0.00493646 -3.89803e-19 0.0560323)
(0.160973 -0.0167225 -9.42404e-20 0.00476327 -5.87355e-19 0.0654225)
(0.148939 -0.00137412 -4.54034e-19 0.0030301 1.54407e-19 0.059915)
(0.142159 0.0108513 3.45268e-19 0.00602501 -1.10371e-18 0.0584009)
(0.135406 0.0203988 2.8873e-19 0.00464109 4.01329e-19 0.0551479)
(0.150651 -0.0187493 1.93435e-19 0.00481268 -1.82427e-19 0.0613244)
(0.140846 -0.00272463 1.80131e-19 0.00357921 6.58365e-19 0.056908)
(0.135836 0.0107356 -2.6356e-19 0.00587968 8.55598e-19 0.0558243)
(0.131771 0.0219298 -1.41868e-19 0.00495032 -2.82291e-19 0.0538282)
(0.140308 -0.0208179 -7.04686e-19 0.0056325 7.6026e-19 0.0575251)
(0.131871 -0.00402139 8.10357e-19 0.00480265 2.67526e-19 0.0538175)
(0.12822 0.0108854 2.60041e-19 0.00653492 -1.33888e-18 0.05305)
(0.126659 0.0236313 -5.42239e-20 0.00593897 -6.63188e-19 0.0521885)
(0.130167 -0.0230931 5.81949e-19 0.00739541 -4.73094e-19 0.0541832)
(0.121964 -0.00547731 -6.44186e-20 0.0069553 1.41441e-18 0.0507246)
(0.119331 0.0113512 -9.41489e-19 0.00823746 -7.95214e-19 0.0501845)
(0.120556 0.0256032 2.98108e-19 0.00782329 7.06413e-19 0.0505103)
(0.120215 -0.0257976 7.38058e-20 0.0102769 5.02552e-19 0.0513633)
(0.110028 -0.00734546 -4.74173e-19 0.0099521 4.58259e-19 0.0471576)
(0.108121 0.0122331 1.02663e-18 0.0108955 -9.77832e-20 0.0467719)
(0.11362 0.0280034 -5.61223e-19 0.010809 -4.36562e-19 0.0489385)
(0.112305 -0.0293245 7.7122e-22 0.0151404 2.44998e-19 0.0501525)
(0.0966506 -0.00994782 7.99105e-19 0.0146279 -1.84455e-18 0.0436844)
(0.0952445 0.013743 3.93412e-19 0.0153493 1.22938e-18 0.0434106)
(0.107881 0.0311957 6.10435e-20 0.0157823 1.62532e-19 0.0486395)
(0.104759 -0.033139 1.35039e-19 0.0214971 -5.26355e-21 0.0496834)
(0.0763662 -0.0127501 3.1998e-19 0.017339 -5.87791e-19 0.0366613)
(0.0752531 0.0153291 -1.096e-19 0.0179544 2.55882e-19 0.0364623)
(0.101683 0.0346253 2.4934e-21 0.0222453 3.77612e-19 0.0487524)
(0.10584 -0.0349132 2.97779e-19 0.027435 1.03723e-19 0.0524969)
(0.0614926 -0.0140766 1.68135e-20 0.0153816 3.01925e-19 0.0299341)
(0.0607142 0.0155107 -5.91359e-19 0.0160656 7.35789e-19 0.0298963)
(0.103884 0.0361197 -5.91029e-19 0.0283062 -6.81835e-19 0.0520632)
(0.0843472 -0.0244291 -4.2499e-20 -6.43662e-06 3.19809e-19 0.0329259)
(0.0292503 -0.00969274 -1.02163e-20 -0.0385436 8.85021e-19 -0.00453128)
(0.0287965 0.0107766 -3.12672e-19 -0.037725 -5.78164e-20 -0.0043854)
(0.0831955 0.0255813 2.24504e-19 0.000867323 1.80534e-19 0.0328147)
)
;

boundaryField
{
    plateFix
    {
        type            calculated;
        value           nonuniform List<symmTensor> 4((6.30211 0.620063 -1.44174e-21 2.45857 6.11497e-20 3.50203) (1.26365 -0.700061 1.06327e-23 0.571023 5.57291e-23 0.732702) (-1.82452 -0.480082 8.25235e-23 -0.72653 -7.34147e-23 -1.0216) (-7.33891 1.22462 -1.07842e-21 -2.38322 -1.2399e-19 -3.89147));
    }
    plate
    {
        type            calculated;
        value           nonuniform List<symmTensor> 
168
(
(5.00085 0.0010858 -3.51003e-22 0.4683 -3.83822e-20 2.18556)
(-5.46263 -0.00248894 -8.59826e-23 0.473123 -3.90277e-20 -1.99819)
(5.21839 0.00118206 1.54449e-21 0.469059 4.48413e-20 2.2728)
(-5.73729 -0.00233546 1.50547e-21 0.47386 4.46362e-20 -2.10786)
(5.44603 0.00166086 -3.32083e-21 0.469919 -9.88394e-22 2.36411)
(-6.05161 -0.00257399 -5.56836e-21 0.474704 3.99505e-20 -2.23339)
(5.52567 0.00247281 1.73352e-21 0.470732 -3.94279e-20 2.39625)
(-6.16766 -0.00319567 4.56126e-21 0.475509 -7.86891e-20 -2.27954)
(5.56248 0.00358873 -1.22988e-21 0.471414 9.48765e-22 2.41122)
(-6.23565 -0.00422224 -3.55113e-22 0.476189 3.55162e-20 -2.3065)
(5.55097 0.00490682 7.09347e-22 0.471893 -1.33226e-23 2.4068)
(-6.2434 -0.00551377 4.44514e-24 0.476672 9.84404e-22 -2.30942)
(5.51645 0.00636151 -1.80084e-21 0.472134 3.21132e-20 2.39309)
(-6.22509 -0.00699417 4.03422e-22 0.476924 6.47332e-22 -2.302)
(5.46475 0.00789096 4.97314e-21 0.472125 -5.93239e-20 2.37241)
(-6.18639 -0.00858566 -2.20808e-21 0.47693 1.09514e-21 -2.28651)
(5.40315 0.0094535 -4.16155e-21 0.471862 2.67514e-20 2.34768)
(-6.13594 -0.0102379 -3.77455e-21 0.476689 -2.43681e-20 -2.26642)
(5.33453 0.0110194 5.44691e-21 0.47135 3.21113e-21 2.32004)
(-6.07631 -0.0119139 1.14258e-20 0.476204 1.7528e-20 -2.24274)
(5.26081 0.0125706 -2.05394e-21 0.470593 -4.71738e-21 2.29026)
(-6.00932 -0.0135908 -7.4544e-21 0.475479 -3.59567e-21 -2.21622)
(5.18272 0.0140972 -1.07246e-20 0.46959 -7.60611e-22 2.25864)
(-5.93542 -0.0152548 -2.29074e-21 0.474516 7.67986e-22 -2.18703)
(5.10044 0.015595 2.08106e-20 0.468337 7.73965e-22 2.22525)
(-5.85474 -0.0168993 2.3837e-21 0.473309 7.04758e-22 -2.15521)
(5.01385 0.0170635 -1.78288e-20 0.466823 2.81276e-21 2.19002)
(-5.76715 -0.0185215 1.43708e-21 0.47185 5.81255e-24 -2.12073)
(4.92262 0.0185033 -1.08545e-20 0.465028 -6.65248e-22 2.15284)
(-5.67248 -0.0201206 1.20581e-20 0.470119 -5.37376e-22 -2.08352)
(4.82636 0.0199149 1.01148e-20 0.462923 3.61234e-21 2.11351)
(-5.57049 -0.0216957 -1.4576e-21 0.46809 -3.96021e-22 -2.04351)
(4.72467 0.0212965 -1.02734e-20 0.460473 1.12281e-20 2.07188)
(-5.46097 -0.0232443 1.20482e-20 0.465729 4.76033e-21 -2.00061)
(4.61714 0.0226428 4.93e-20 0.457634 -4.87107e-21 2.02777)
(-5.34366 -0.0247601 -1.36911e-20 0.462995 -2.18073e-20 -1.95474)
(4.50345 0.0239464 -4.52136e-20 0.454362 -2.34821e-20 1.98101)
(-5.21829 -0.026235 -4.52031e-21 0.459846 -1.09625e-20 -1.90581)
(4.38323 0.0251878 -6.9975e-20 0.45059 -6.52203e-22 1.93145)
(-5.08459 -0.0276489 2.7039e-20 0.456218 4.85365e-23 -1.85374)
(4.25642 0.0263663 7.86454e-20 0.44632 2.48989e-20 1.87905)
(-4.9423 -0.0289998 -3.47174e-20 0.452114 -1.55292e-20 -1.79841)
(4.12235 0.0274038 1.06047e-20 0.441345 6.40114e-23 1.82346)
(-4.79108 -0.0302112 -1.63386e-20 0.44733 -1.09353e-20 -1.73979)
(3.97682 0.0285511 -1.25425e-20 0.435927 -1.75947e-20 1.76312)
(-4.62507 -0.0315282 5.89127e-20 0.442121 -2.28835e-20 -1.67542)
(3.82414 0.0296942 -4.02315e-20 0.42923 -8.31316e-21 1.69941)
(-4.44996 -0.032823 -1.53679e-19 0.435689 3.52983e-20 -1.60789)
(3.674 0.030625 -5.63486e-20 0.422485 8.14675e-21 1.6367)
(-4.27601 -0.0338895 9.34506e-20 0.429211 1.78407e-22 -1.54085)
(3.52631 0.0314602 1.16645e-19 0.415197 -7.77621e-21 1.57474)
(-4.1039 -0.0348366 -1.26617e-20 0.422213 -2.44372e-20 -1.47475)
(3.38121 0.0321556 3.6714e-20 0.407677 3.78338e-22 1.51373)
(-3.9334 -0.035624 -4.56745e-20 0.414995 -8.49765e-21 -1.40938)
(3.23866 0.0327574 -1.6185e-20 0.399747 2.40259e-22 1.45357)
(-3.76479 -0.0362968 -2.81542e-20 0.407385 -1.49814e-20 -1.34494)
(3.0988 0.0332492 1.31314e-19 0.391517 9.59425e-22 1.39437)
(-3.5981 -0.0368404 7.62527e-20 0.399487 -1.95539e-23 -1.28137)
(2.96164 0.0336483 -1.98562e-19 0.382932 -2.12041e-20 1.3361)
(-3.43349 -0.0372726 2.42512e-21 0.39125 2.07033e-22 -1.21878)
(2.82727 0.0339504 -5.71654e-20 0.37403 1.94189e-20 1.27883)
(-3.27106 -0.0375906 -5.11283e-20 0.38271 3.68822e-22 -1.15718)
(2.69576 0.0341619 -8.87162e-20 0.3648 -3.9019e-21 1.22256)
(-3.11094 -0.0378017 8.90998e-20 0.373855 -2.28112e-20 -1.09663)
(2.56717 0.0342819 -1.76301e-19 0.355256 -7.62822e-21 1.16733)
(-2.95325 -0.0379063 -5.97454e-20 0.364699 7.36977e-21 -1.03717)
(2.44157 0.0343123 8.99549e-20 0.345403 4.68754e-22 1.11318)
(-2.79811 -0.0379078 -1.53448e-19 0.355247 1.34226e-20 -0.978856)
(2.31903 0.0342526 -2.27065e-20 0.335252 9.22534e-21 1.06013)
(-2.64565 -0.0378071 1.27081e-20 0.345509 3.61924e-21 -0.921731)
(2.19962 0.0341032 3.13284e-19 0.324816 -7.68534e-21 1.00822)
(-2.49601 -0.037606 -1.57087e-19 0.335493 1.12515e-20 -0.865845)
(2.0834 0.0338633 -9.03737e-20 0.314107 -3.64696e-22 0.957474)
(-2.34933 -0.0373052 4.39748e-20 0.325213 -1.10001e-20 -0.811249)
(1.97045 0.0335323 -1.59509e-19 0.303144 -5.54409e-21 0.907933)
(-2.20575 -0.0369058 1.27255e-19 0.314683 1.45382e-20 -0.757993)
(1.86084 0.0331096 5.31613e-20 0.291944 -7.3514e-23 0.859633)
(-2.0654 -0.0364084 -3.96682e-20 0.303919 -1.68716e-20 -0.706129)
(1.75463 0.0325944 2.67117e-19 0.280531 -1.74482e-21 0.812607)
(-1.92845 -0.0358138 -1.98134e-19 0.292938 -8.49583e-22 -0.655708)
(1.65189 0.0319862 -9.31614e-20 0.268928 2.08101e-21 0.766892)
(-1.79503 -0.0351226 -1.26735e-19 0.281762 -1.49552e-20 -0.606781)
(1.55268 0.0312845 -1.66377e-19 0.257162 -1.09067e-21 0.722524)
(-1.6653 -0.0343355 1.5549e-19 0.270414 3.37326e-21 -0.559398)
(1.45706 0.0304892 1.17137e-19 0.245265 -2.1167e-21 0.67954)
(-1.5394 -0.0334536 -2.6997e-19 0.258917 -1.10282e-20 -0.513608)
(1.36508 0.0296005 1.13396e-19 0.233268 2.81634e-21 0.637973)
(-1.41748 -0.0324778 9.28661e-20 0.247299 2.78428e-21 -0.469459)
(1.2768 0.0286189 3.14359e-19 0.221207 -5.92221e-21 0.597858)
(-1.29967 -0.0314095 5.46957e-23 0.23559 3.75957e-23 -0.426995)
(1.19226 0.0275457 -1.02759e-21 0.209117 3.49859e-22 0.559226)
(-1.18613 -0.0302504 -3.09105e-19 0.22382 -1.1597e-20 -0.38626)
(1.11148 0.0263822 7.59989e-19 0.197039 1.52409e-21 0.522107)
(-1.07697 -0.0290021 3.31334e-19 0.212022 -4.27622e-22 -0.347291)
(1.03451 0.0251307 -1.82297e-19 0.185012 -1.38308e-21 0.486528)
(-0.972324 -0.0276672 -2.20339e-19 0.200231 2.98784e-21 -0.310125)
(0.961356 0.0237935 9.75038e-20 0.173076 6.20158e-21 0.452512)
(-0.872299 -0.026248 -6.28841e-19 0.188482 -1.6928e-20 -0.274791)
(0.892024 0.0223739 1.00075e-19 0.161275 1.79434e-21 0.420078)
(-0.776995 -0.0247476 2.22525e-19 0.176812 7.65542e-22 -0.241315)
(0.82651 0.0208755 -3.52572e-19 0.149649 -9.67273e-21 0.389242)
(-0.686502 -0.0231693 1.20761e-19 0.165258 1.01535e-20 -0.209718)
(0.7648 0.0193023 -2.74593e-19 0.13824 -8.29454e-21 0.360014)
(-0.600891 -0.0215167 3.30679e-19 0.153858 1.60365e-21 -0.180012)
(0.706862 0.0176587 3.72976e-19 0.12709 3.29267e-21 0.332397)
(-0.52022 -0.0197941 2.11172e-19 0.14265 2.4951e-21 -0.152207)
(0.652654 0.0159497 6.60726e-20 0.116237 2.23196e-22 0.306392)
(-0.444528 -0.0180056 -3.55727e-19 0.131672 3.53742e-21 -0.126302)
(0.602119 0.0141805 -6.67176e-20 0.105721 -3.67905e-22 0.281989)
(-0.373838 -0.0161559 1.13135e-19 0.120961 5.56002e-22 -0.102292)
(0.555185 0.0123565 -2.10257e-19 0.0955772 3.36648e-21 0.259176)
(-0.308152 -0.01425 1.3093e-20 0.110552 4.97563e-21 -0.0801624)
(0.511767 0.0104833 -1.8908e-19 0.0858397 -8.43986e-22 0.23793)
(-0.247453 -0.0122929 3.60717e-19 0.100482 1.27071e-21 -0.0598934)
(0.471763 0.00856659 -2.24926e-19 0.0765402 -5.17804e-21 0.218226)
(-0.191704 -0.0102899 -7.15595e-19 0.0907839 -3.03683e-21 -0.0414563)
(0.435059 0.00661208 3.62531e-19 0.0677075 2.1568e-21 0.200028)
(-0.140847 -0.00824628 7.8361e-19 0.081489 3.49699e-21 -0.0248152)
(0.401525 0.00462542 -1.90049e-19 0.0593674 2.36887e-21 0.183294)