/*--------------------------------*- C++ -*----------------------------------*\
| =========                 |                                                 |
| \\      /  F ield         | OpenFOAM Extend Project: Open source CFD        |
|  \\    /   O peration     | Version:  1.6-ext                               |
|   \\  /    A nd           | Web:      www.extend-project.de                 |
|    \\/     M anipulation  |                                                 |
\*---------------------------------------------------------------------------*/
FoamFile
{
    version     2.0;
    format      ascii;
    class       volScalarField;
    location    "1";
    object      sigmaEq;
}
// * * * * * * * * * * * * * * * * * * * * * * * * * * * * * * * * * * * * * //

dimensions      [1 -1 -2 0 0 0 0];

internalField   nonuniform List<scalar> 
328
(
3.57155
1.05574
1.15781
4.72458
3.83251
1.00563
1.63687
5.01593
4.07996
1.10806
2.09188
5.34484
4.18951
1.17669
2.35552
5.5078
4.2434
1.21278
2.51789
5.60635
4.24553
1.2144
2.59579
5.63752
4.22123
1.19919
2.62744
5.63408
4.1792
1.17529
2.62833
5.60635
4.12748
1.14907
2.61246
5.56478
4.06958
1.12302
2.58668
5.51361
4.00762
1.09812
2.55571
5.45549
3.94237
1.07424
2.52186
5.39133
3.87407
1.05093
2.48641
5.32146
3.80256
1.02763
2.4498
5.24584
3.72757
1.00388
2.41205
5.16429
3.64874
0.97938
2.37289
5.07656
3.56574
0.95391
2.33194
4.98237
3.47826
0.927361
2.28877
4.88145
3.38603
0.899685
2.24295
4.77349
3.2888
0.870852
2.19409
4.65817
3.18651
0.840912
2.14187
4.53526
3.07879
0.809771
2.08596
4.40432
2.96181
0.775541
2.02362
4.26043
2.83998
0.742361
1.95756
4.10788
2.72045
0.710748
1.89163
3.95631
2.60343
0.680492
1.82571
3.80586
2.48882
0.65149
1.75981
3.65655
2.37669
0.623727
1.69397
3.50848
2.26707
0.597175
1.62826
3.36175
2.16003
0.571812
1.56272
3.21647
2.0556
0.547606
1.49742
3.07275
1.95385
0.524525
1.4324
2.93067
1.8548
0.502532
1.36774
2.79037
1.75853
0.481583
1.30348
2.65194
1.66506
0.461634
1.2397
2.51551
1.57444
0.442635
1.17647
2.3812
1.48673
0.424533
1.11385
2.24913
1.40194
0.407275
1.05192
2.11944
1.32014
0.390806
0.990768
1.99226
1.24134
0.375072
0.930471
1.86773
1.16557
0.360021
0.871118
1.746
1.09287
0.345604
0.812803
1.62721
1.02325
0.331776
0.75562
1.5115
0.95672
0.318497
0.699668
1.39903
0.89329
0.305736
0.645048
1.28994
0.832959
0.293467
0.591865
1.18437
0.775719
0.281675
0.540225
1.08246
0.721554
0.27035
0.490238
0.984341
0.67044
0.259495
0.442018
0.890147
0.622344
0.249119
0.39568
0.799991
0.577226
0.239237
0.351348
0.713983
0.535034
0.229872
0.309156
0.632218
0.495711
0.221053
0.269254
0.554781
0.459189
0.212806
0.231821
0.481741
0.425393
0.205162
0.197083
0.413154
0.394239
0.198144
0.165351
0.349062
0.365637
0.191767
0.137076
0.289495
0.339487
0.186039
0.112937
0.234469
0.315684
0.18095
0.0939301
0.184001
0.294113
0.176474
0.0812731
0.138127
0.274652
0.172569
0.0757717
0.0969659
0.257171
0.169172
0.0768192
0.060976
0.24153
0.166201
0.082392
0.0324462
0.227576
0.163559
0.0902312
0.0238062
0.215146
0.161135
0.0986681
0.0393824
0.204064
0.158803
0.106678
0.0584958
0.194139
0.156434
0.113676
0.0755871
0.185168
0.153889
0.119338
0.089828
0.176939
0.151029
0.123496
0.101143
0.169231
0.147718
0.126071
0.109647
0.161827
0.143823
0.127039
0.115525
0.154515
0.139217
0.126405
0.118988
0.147107
0.133783
0.124192
0.12026
0.139443
0.127401
0.120411
0.119558
0.131436
0.119951
0.115057
0.117118
0.123052
0.111217
0.10801
0.113156
0.114533
0.100989
0.0991352
0.108098
0.106085
0.0885323
0.0877536
0.102257
0.0992205
0.0740648
0.0741305
0.0972375
0.0931385
0.0566102
0.0571853
0.0922175
0.0920176
0.0475545
0.0478436
0.0916233
0.0849262
0.0610645
0.0605578
0.0844488
)
;

boundaryField
{
    plateFix
    {
        type            calculated;
        value           nonuniform List<scalar> 4(3.60618 1.36534 1.28845 4.8845);
    }
    plate
    {
        type            calculated;
        value           nonuniform List<scalar> 
168
(
3.96351
5.16444
4.15247
5.40447
4.35016
5.67915
4.41889
5.78098
4.45041
5.84082
4.43998
5.848
4.40969
5.83225
4.36465
5.79853
4.31119
5.75436
4.25182
5.70198
4.18823
5.64298
4.12102
5.57777
4.05039
5.50643
3.97622
5.42886
3.89824
5.34488
3.81615
5.25428
3.72961
5.15683
3.63832
5.05228
3.54203
4.94035
3.44047
4.82076
3.33359
4.69327
3.22098
4.55742
3.09877
4.40834
2.97141
4.25027
2.84631
4.09318
2.72379
3.93725
2.60374
3.78253
2.48626
3.62914
2.37137
3.47716
2.25914
3.32672
2.14961
3.17792
2.04285
3.03086
1.9389
2.88565
1.83781
2.74242
1.73964
2.60129
1.64444
2.46237
1.55224
2.32581
1.46311
2.19173
1.37708
2.06027
1.29419
1.93159
1.21448
1.80581
1.13797
1.6831
1.06469
1.5636
0.994668
1.44746
0.927906
1.33483
0.864412
1.22585
0.804183
1.12067
0.747208
1.01942
0.693465
0.922233
0.642927
0.829218
0.595552
0.740488
0.551293
0.656137
0.510089
0.576247
0.471871
0.500884
0.436561
0.430099
0.404068
0.363925
0.374293
0.302378
0.347129
0.245455
0.322458
0.193139
0.300152
0.145397
0.280076
0.102197
0.262083
0.0635489
0.24602
0.0298449
0.23172
0.0104991
0.21901
0.0307354
0.207702
0.0526708
0.197602
0.0714399
0.188506
0.0869053
0.180205
0.0992145
0.172486
0.108579
0.165142
0.115237
0.157977
0.119434
0.150816
0.121424
0.14352
0.121451
0.136016
0.119781
0.128275
0.116654
0.120512
0.112496
0.112826
0.107554
0.106483
0.103254
0.100952
0.0991361
0.103605
0.102926
0.108942
0.0698489
0.0607819
0.0601993
0.0692833
0.108881
)
;
    }
    frontAndBackPlanes
    {
        type            empty;
    }
}


// ************************************************************************* //
