/*--------------------------------*- C++ -*----------------------------------*\
| =========                 |                                                 |
| \\      /  F ield         | OpenFOAM Extend Project: Open source CFD        |
|  \\    /   O peration     | Version:  1.6-ext                               |
|   \\  /    A nd           | Web:      www.extend-project.de                 |
|    \\/     M anipulation  |                                                 |
\*---------------------------------------------------------------------------*/
FoamFile
{
    version     2.0;
    format      ascii;
    class       volVectorField;
    location    "1";
    object      Usolid;
}
// * * * * * * * * * * * * * * * * * * * * * * * * * * * * * * * * * * * * * //

dimensions      [0 1 0 0 0 0 0];

internalField   nonuniform List<vector> 
328
(
(1.39942e-07 1.25266e-07 0)
(2.64849e-08 -6.06563e-08 0)
(-4.01904e-08 -3.83857e-08 0)
(-1.72376e-07 2.32139e-07 0)
(4.34004e-07 3.3781e-07 0)
(9.08412e-08 -9.11465e-08 0)
(-1.41343e-07 -2.61355e-08 0)
(-5.31903e-07 6.1187e-07 0)
(7.74053e-07 5.54286e-07 0)
(1.78367e-07 -2.41828e-08 0)
(-2.90543e-07 8.12101e-08 0)
(-9.51625e-07 9.52655e-07 0)
(1.1449e-06 8.07263e-07 0)
(2.75663e-07 1.45777e-07 0)
(-4.65027e-07 2.85985e-07 0)
(-1.41001e-06 1.29409e-06 0)
(1.54829e-06 1.12821e-06 0)
(3.82644e-07 4.25096e-07 0)
(-6.66324e-07 5.93386e-07 0)
(-1.91049e-06 1.67642e-06 0)
(1.98093e-06 1.5453e-06 0)
(4.95579e-07 8.26203e-07 0)
(-8.8748e-07 1.01548e-06 0)
(-2.44888e-06 2.13449e-06 0)
(2.44289e-06 2.0857e-06 0)
(6.1417e-07 1.36502e-06 0)
(-1.12754e-06 1.56878e-06 0)
(-3.02593e-06 2.70097e-06 0)
(2.93397e-06 2.7766e-06 0)
(7.37844e-07 2.06211e-06 0)
(-1.38452e-06 2.27481e-06 0)
(-3.64178e-06 3.4071e-06 0)
(3.45481e-06 3.64677e-06 0)
(8.66938e-07 2.94226e-06 0)
(-1.65815e-06 3.15956e-06 0)
(-4.29774e-06 4.28488e-06 0)
(4.00624e-06 4.72777e-06 0)
(1.00181e-06 4.03494e-06 0)
(-1.9483e-06 4.25367e-06 0)
(-4.99522e-06 5.36821e-06 0)
(4.58927e-06 6.05504e-06 0)
(1.14297e-06 5.37458e-06 0)
(-2.25539e-06 5.59262e-06 0)
(-5.73592e-06 6.6943e-06 0)
(5.20502e-06 7.66884e-06 0)
(1.29087e-06 7.00102e-06 0)
(-2.58007e-06 7.2171e-06 0)
(-6.52156e-06 8.30463e-06 0)
(5.85461e-06 9.61509e-06 0)
(1.44585e-06 8.96012e-06 0)
(-2.92316e-06 9.17356e-06 0)
(-7.35387e-06 1.0246e-05 0)
(6.53907e-06 1.19463e-05 0)
(1.60817e-06 1.13044e-05 0)
(-3.28557e-06 1.15149e-05 0)
(-8.23452e-06 1.25713e-05 0)
(7.25934e-06 1.47221e-05 0)
(1.77796e-06 1.40937e-05 0)
(-3.66824e-06 1.43013e-05 0)
(-9.16509e-06 1.53407e-05 0)
(8.0162e-06 1.80108e-05 0)
(1.95524e-06 1.73963e-05 0)
(-4.07212e-06 1.76008e-05 0)
(-1.0147e-05 1.86222e-05 0)
(8.81022e-06 2.18894e-05 0)
(2.1399e-06 2.12893e-05 0)
(-4.49808e-06 2.14908e-05 0)
(-1.11816e-05 2.24929e-05 0)
(9.6417e-06 2.64452e-05 0)
(2.33177e-06 2.58602e-05 0)
(-4.94692e-06 2.60585e-05 0)
(-1.22699e-05 2.70401e-05 0)
(1.05106e-05 3.17768e-05 0)
(2.53053e-06 3.12075e-05 0)
(-5.41929e-06 3.14025e-05 0)
(-1.34126e-05 3.2362e-05 0)
(1.14166e-05 3.7995e-05 0)
(2.73577e-06 3.74421e-05 0)
(-5.91572e-06 3.76334e-05 0)
(-1.46101e-05 3.85694e-05 0)
(1.23589e-05 4.52241e-05 0)
(2.94693e-06 4.46882e-05 0)
(-6.43655e-06 4.48754e-05 0)
(-1.58626e-05 4.57863e-05 0)
(1.33363e-05 5.36031e-05 0)
(3.16334e-06 5.3085e-05 0)
(-6.98196e-06 5.32677e-05 0)
(-1.71694e-05 5.41517e-05 0)
(1.43853e-05 6.36561e-05 0)
(3.39252e-06 6.31572e-05 0)
(-7.57357e-06 6.33346e-05 0)
(-1.85814e-05 6.41888e-05 0)
(1.54613e-05 7.52783e-05 0)
(3.62381e-06 7.47991e-05 0)
(-8.18777e-06 7.49705e-05 0)
(-2.00408e-05 7.57929e-05 0)
(1.64912e-05 8.77287e-05 0)
(3.84148e-06 8.72687e-05 0)
(-8.78293e-06 8.74339e-05 0)
(-2.14486e-05 8.82247e-05 0)
(1.74756e-05 0.000100975 0)
(4.0459e-06 0.000100533 0)
(-9.35917e-06 0.000100692 0)
(-2.28052e-05 0.000101451 0)
(1.84155e-05 0.000114985 0)
(4.23745e-06 0.000114561 0)
(-9.91652e-06 0.000114713 0)
(-2.41112e-05 0.000115441 0)
(1.93115e-05 0.000129726 0)
(4.41651e-06 0.00012932 0)
(-1.0455e-05 0.000129466 0)
(-2.53669e-05 0.000130162 0)
(2.01646e-05 0.000145169 0)
(4.58348e-06 0.00014478 0)
(-1.09748e-05 0.000144918 0)
(-2.6573e-05 0.000145583 0)
(2.09756e-05 0.000161281 0)
(4.73876e-06 0.000160908 0)
(-1.14758e-05 0.000161039 0)
(-2.77299e-05 0.000161674 0)
(2.17455e-05 0.000178032 0)
(4.88277e-06 0.000177675 0)
(-1.19582e-05 0.000177799 0)
(-2.88383e-05 0.000178403 0)
(2.24751e-05 0.000195393 0)
(5.01594e-06 0.000195052 0)
(-1.24221e-05 0.000195168 0)
(-2.98986e-05 0.000195742 0)
(2.31655e-05 0.000213335 0)
(5.1387e-06 0.000213008 0)
(-1.28674e-05 0.000213117 0)
(-3.09115e-05 0.00021366 0)
(2.38175e-05 0.000231828 0)
(5.25149e-06 0.000231515 0)
(-1.32945e-05 0.000231616 0)
(-3.18777e-05 0.00023213 0)
(2.44323e-05 0.000250844 0)
(5.35477e-06 0.000250545 0)
(-1.37032e-05 0.000250638 0)
(-3.27978e-05 0.000251123 0)
(2.50108e-05 0.000270355 0)
(5.44898e-06 0.00027007 0)
(-1.40939e-05 0.000270155 0)
(-3.36726e-05 0.000270611 0)
(2.55542e-05 0.000290336 0)
(5.53459e-06 0.000290063 0)
(-1.44665e-05 0.00029014 0)
(-3.45028e-05 0.000290568 0)
(2.60635e-05 0.000310758 0)
(5.61206e-06 0.000310497 0)
(-1.48214e-05 0.000310567 0)
(-3.52892e-05 0.000310966 0)
(2.65398e-05 0.000331596 0)
(5.68184e-06 0.000331347 0)
(-1.51586e-05 0.000331409 0)
(-3.60326e-05 0.000331781 0)
(2.69843e-05 0.000352826 0)
(5.7444e-06 0.000352588 0)
(-1.54785e-05 0.000352642 0)
(-3.67339e-05 0.000352987 0)
(2.7398e-05 0.000374422 0)
(5.80019e-06 0.000374195 0)
(-1.57811e-05 0.000374241 0)
(-3.73941e-05 0.000374559 0)
(2.77822e-05 0.000396361 0)
(5.84966e-06 0.000396143 0)
(-1.60669e-05 0.000396182 0)
(-3.8014e-05 0.000396474 0)
(2.8138e-05 0.000418619 0)
(5.89326e-06 0.000418412 0)
(-1.6336e-05 0.000418442 0)
(-3.85947e-05 0.000418709 0)
(2.84666e-05 0.000441175 0)
(5.93143e-06 0.000440976 0)
(-1.65888e-05 0.000440999 0)
(-3.91373e-05 0.000441242 0)
(2.87693e-05 0.000464007 0)
(5.96459e-06 0.000463817 0)
(-1.68256e-05 0.000463832 0)
(-3.96429e-05 0.000464051 0)
(2.90471e-05 0.000487093 0)
(5.99316e-06 0.000486911 0)
(-1.70467e-05 0.000486919 0)
(-4.01127e-05 0.000487115 0)
(2.93014e-05 0.000510415 0)
(6.01754e-06 0.000510241 0)
(-1.72527e-05 0.000510241 0)
(-4.05477e-05 0.000510415 0)
(2.95333e-05 0.000533953 0)
(6.03812e-06 0.000533785 0)
(-1.74439e-05 0.000533778 0)
(-4.09494e-05 0.000533931 0)
(2.97441e-05 0.000557688 0)
(6.05527e-06 0.000557527 0)
(-1.76208e-05 0.000557513 0)
(-4.1319e-05 0.000557645 0)
(2.99349e-05 0.000581604 0)
(6.06934e-06 0.000581449 0)
(-1.77839e-05 0.000581428 0)
(-4.16579e-05 0.00058154 0)
(3.01069e-05 0.000605683 0)
(6.08067e-06 0.000605534 0)
(-1.79336e-05 0.000605506 0)
(-4.19673e-05 0.0006056 0)
(3.02613e-05 0.00062991 0)
(6.08957e-06 0.000629766 0)
(-1.80706e-05 0.000629732 0)
(-4.22488e-05 0.000629808 0)
(3.03993e-05 0.00065427 0)
(6.09633e-06 0.00065413 0)
(-1.81955e-05 0.000654091 0)
(-4.25038e-05 0.000654149 0)
(3.0522e-05 0.000678749 0)
(6.10121e-06 0.000678614 0)
(-1.83087e-05 0.000678568 0)
(-4.27337e-05 0.000678611 0)
(3.06304e-05 0.000703334 0)
(6.10447e-06 0.000703203 0)
(-1.8411e-05 0.000703152 0)
(-4.294e-05 0.000703179 0)
(3.07258e-05 0.000728013 0)
(6.10631e-06 0.000727886 0)
(-1.85029e-05 0.000727829 0)
(-4.31242e-05 0.000727843 0)
(3.0809e-05 0.000752775 0)
(6.10693e-06 0.000752651 0)
(-1.85852e-05 0.000752589 0)
(-4.32879e-05 0.000752589 0)
(3.08812e-05 0.000777609 0)
(6.10651e-06 0.000777488 0)
(-1.86585e-05 0.000777422 0)
(-4.34326e-05 0.000777409 0)
(3.09433e-05 0.000802506 0)
(6.10517e-06 0.000802387 0)
(-1.87234e-05 0.000802317 0)
(-4.35597e-05 0.000802293 0)
(3.09961e-05 0.000827456 0)
(6.10303e-06 0.00082734 0)
(-1.87807e-05 0.000827266 0)
(-4.36707e-05 0.000827232 0)
(3.10407e-05 0.000852453 0)
(6.10017e-06 0.000852339 0)
(-1.88311e-05 0.000852261 0)
(-4.37672e-05 0.000852217 0)
(3.10777e-05 0.000877488 0)
(6.09666e-06 0.000877376 0)
(-1.88753e-05 0.000877295 0)
(-4.38506e-05 0.000877243 0)
(3.1108e-05 0.000902556 0)
(6.09252e-06 0.000902446 0)
(-1.89139e-05 0.000902362 0)
(-4.39223e-05 0.000902302 0)
(3.11323e-05 0.000927651 0)
(6.08776e-06 0.000927543 0)
(-1.89477e-05 0.000927456 0)
(-4.39838e-05 0.00092739 0)
(3.11511e-05 0.000952769 0)
(6.08234e-06 0.000952661 0)
(-1.89773e-05 0.000952572 0)
(-4.40363e-05 0.0009525 0)
(3.1165e-05 0.000977903 0)
(6.07621e-06 0.000977797 0)
(-1.90034e-05 0.000977706 0)
(-4.40811e-05 0.00097763 0)
(3.11746e-05 0.00100305 0)
(6.0693e-06 0.00100295 0)
(-1.90267e-05 0.00100286 0)
(-4.41196e-05 0.00100277 0)
(3.11803e-05 0.00102821 0)
(6.06147e-06 0.00102811 0)
(-1.90478e-05 0.00102802 0)
(-4.41528e-05 0.00102793 0)
(3.11823e-05 0.00105338 0)
(6.0526e-06 0.00105328 0)
(-1.90674e-05 0.00105319 0)
(-4.41818e-05 0.0010531 0)
(3.11811e-05 0.00107856 0)
(6.04252e-06 0.00107846 0)
(-1.90859e-05 0.00107836 0)
(-4.42078e-05 0.00107827 0)
(3.11766e-05 0.00110374 0)
(6.03104e-06 0.00110364 0)
(-1.91041e-05 0.00110354 0)
(-4.42316e-05 0.00110345 0)
(3.11691e-05 0.00112892 0)
(6.01792e-06 0.00112882 0)
(-1.91224e-05 0.00112873 0)
(-4.42542e-05 0.00112864 0)
(3.11586e-05 0.00115411 0)
(6.00292e-06 0.00115401 0)
(-1.91414e-05 0.00115392 0)
(-4.42762e-05 0.00115383 0)
(3.11451e-05 0.0011793 0)
(5.98576e-06 0.0011792 0)
(-1.91616e-05 0.00117911 0)
(-4.42986e-05 0.00117902 0)
(3.11284e-05 0.00120449 0)
(5.96614e-06 0.00120439 0)
(-1.91834e-05 0.0012043 0)
(-4.43218e-05 0.00120421 0)
(3.11084e-05 0.00122968 0)
(5.94372e-06 0.00122959 0)
(-1.92075e-05 0.0012295 0)
(-4.43466e-05 0.00122941 0)
(3.10849e-05 0.00125487 0)
(5.91802e-06 0.00125478 0)
(-1.92344e-05 0.00125469 0)
(-4.43734e-05 0.00125461 0)
(3.10579e-05 0.00128006 0)
(5.88858e-06 0.00127997 0)
(-1.92647e-05 0.00127989 0)
(-4.44027e-05 0.00127981 0)
(3.10271e-05 0.00130525 0)
(5.85429e-06 0.00130517 0)
(-1.92995e-05 0.00130509 0)
(-4.4435e-05 0.00130501 0)
(3.09932e-05 0.00133044 0)
(5.81468e-06 0.00133036 0)
(-1.93395e-05 0.00133029 0)
(-4.44699e-05 0.00133021 0)
(3.09551e-05 0.00135563 0)
(5.7668e-06 0.00135555 0)
(-1.93877e-05 0.00135548 0)
(-4.45087e-05 0.00135541 0)
(3.09192e-05 0.00138084 0)
(5.71878e-06 0.00138075 0)
(-1.94358e-05 0.00138067 0)
(-4.45446e-05 0.00138059 0)
)
;

boundaryField
{
    plateFix
    {
        type            fixedDisplacement;
        value           uniform (0 0 0);
    }
    plate
    {
        type            solidTraction;
        nonLinear       updatedLagrangian;
        traction        uniform (0 0 0);
        pressure        uniform 0;
        value           nonuniform List<vector> 
168
(
(7.08394e-07 5.57444e-07 -6.53291e-26)
(-1.21247e-06 8.45879e-07 -1.2784e-25)
(9.32921e-07 7.91512e-07 1.35848e-25)
(-1.37457e-06 1.25329e-06 -1.19017e-26)
(1.28185e-06 1.03067e-06 3.01366e-26)
(-1.69416e-06 1.62558e-06 1.4214e-25)
(1.72282e-06 1.29153e-06 6.37312e-28)
(-2.1432e-06 1.9787e-06 7.8987e-27)
(2.24077e-06 1.61613e-06 -6.75945e-26)
(-2.7036e-06 2.36786e-06 -8.18399e-26)
(2.81844e-06 2.03208e-06 6.10912e-26)
(-3.3502e-06 2.82671e-06 2.56624e-26)
(3.44714e-06 2.5691e-06 -1.19695e-25)
(-4.06993e-06 3.3913e-06 1.09461e-26)
(4.12126e-06 3.25495e-06 5.80656e-26)
(-4.8536e-06 4.09347e-06 -5.33091e-26)
(4.83872e-06 4.11915e-06 -7.16197e-26)
(-5.69704e-06 4.96605e-06 7.91266e-26)
(5.59914e-06 5.19353e-06 9.05375e-26)
(-6.59851e-06 6.04322e-06 -6.31336e-26)
(6.40337e-06 6.51373e-06 -6.10246e-26)
(-7.55807e-06 7.36234e-06 1.01773e-26)
(7.25281e-06 8.12008e-06 7.61066e-26)
(-8.57673e-06 8.96496e-06 2.37163e-26)
(8.14907e-06 1.00585e-05 -5.39265e-26)
(-9.65605e-06 1.08978e-05 1.62687e-26)
(9.09376e-06 1.23815e-05 -4.00859e-27)
(-1.07978e-05 1.3214e-05 -3.78957e-26)
(1.00883e-05 1.51489e-05 1.11102e-26)
(-1.20037e-05 1.59733e-05 1.12179e-26)
(1.1134e-05 1.84286e-05 4.49808e-27)
(-1.32755e-05 1.9244e-05 -1.60564e-26)
(1.22317e-05 2.22978e-05 2.66177e-26)
(-1.46148e-05 2.31031e-05 2.53943e-26)
(1.3382e-05 2.68437e-05 -1.16384e-26)
(-1.60228e-05 2.76377e-05 -7.68096e-26)
(1.4585e-05 3.2165e-05 -3.71773e-27)
(-1.75003e-05 3.29462e-05 4.52459e-26)
(1.58402e-05 3.83723e-05 7.37103e-27)
(-1.90479e-05 3.91391e-05 8.86953e-27)
(1.71469e-05 4.559e-05 -1.1339e-26)
(-2.06654e-05 4.63406e-05 6.66372e-28)
(1.85034e-05 5.39571e-05 8.3558e-27)
(-2.23519e-05 5.46894e-05 -3.41123e-27)
(1.99602e-05 6.39973e-05 -3.19675e-27)
(-2.41723e-05 6.47083e-05 -2.47548e-26)
(2.14574e-05 7.56061e-05 2.94413e-26)
(-2.60535e-05 7.62931e-05 4.84417e-26)
(2.28923e-05 8.80435e-05 -6.06429e-26)
(-2.78668e-05 8.87055e-05 -4.81742e-26)
(2.42656e-05 0.000101277 4.69383e-26)
(-2.96127e-05 0.000101913 5.05504e-27)
(2.55783e-05 0.000115275 1.88719e-26)
(-3.1292e-05 0.000115884 -7.39218e-26)
(2.68316e-05 0.000130004 -5.47159e-26)
(-3.29053e-05 0.000130586 8.23592e-26)
(2.80266e-05 0.000145435 4.52323e-26)
(-3.44535e-05 0.000145988 -1.90178e-26)
(2.91642e-05 0.000161535 -4.62844e-26)
(-3.59372e-05 0.00016206 2.30506e-26)
(3.02456e-05 0.000178276 -5.23754e-27)
(-3.73572e-05 0.000178771 -1.69097e-26)
(3.12721e-05 0.000195626 2.14601e-28)
(-3.87145e-05 0.000196091 -4.82494e-26)
(3.22448e-05 0.000213557 -3.41707e-26)
(-4.00099e-05 0.000213991 -3.93575e-26)
(3.31651e-05 0.00023204 -2.08322e-26)
(-4.12443e-05 0.000232443 -5.16023e-26)
(3.40342e-05 0.000251046 -3.86909e-26)
(-4.24187e-05 0.000251418 3.06055e-27)
(3.48534e-05 0.000270548 2.00881e-26)
(-4.3534e-05 0.000270889 9.56694e-26)
(3.56241e-05 0.000290519 1.48093e-25)
(-4.45914e-05 0.000290829 2.08578e-26)
(3.63477e-05 0.000310933 5.67949e-29)
(-4.55919e-05 0.000311211 1.47749e-25)
(3.70256e-05 0.000331763 -5.99416e-26)
(-4.65366e-05 0.000332009 -2.14114e-25)
(3.76594e-05 0.000352984 1.27332e-25)
(-4.74269e-05 0.000353199 1.11538e-25)
(3.82504e-05 0.000374573 9.74149e-26)
(-4.82639e-05 0.000374755 -5.34828e-26)
(3.88002e-05 0.000396504 -2.09311e-25)
(-4.9049e-05 0.000396655 -9.38138e-26)
(3.93104e-05 0.000418755 5.59613e-26)
(-4.97835e-05 0.000418875 -6.17894e-26)
(3.97825e-05 0.000441304 -1.33558e-25)
(-5.04689e-05 0.000441394 -4.00016e-26)
(4.0218e-05 0.00046413 -5.69362e-26)
(-5.11068e-05 0.000464188 1.97292e-25)
(4.06187e-05 0.00048721 1.32003e-25)
(-5.16986e-05 0.000487239 -1.08436e-27)
(4.09861e-05 0.000510526 -2.43907e-26)
(-5.2246e-05 0.000510526 -1.21548e-25)
(4.13218e-05 0.000534058 -3.86899e-26)
(-5.27506e-05 0.000534029 -1.10196e-25)
(4.16274e-05 0.000557789 -6.36638e-27)
(-5.32142e-05 0.000557731 -1.29711e-25)
(4.19047e-05 0.000581699 -9.07881e-27)
(-5.36385e-05 0.000581615 -1.10996e-25)
(4.21551e-05 0.000605774 -1.5077e-25)
(-5.40254e-05 0.000605663 2.52979e-25)
(4.23804e-05 0.000629997 -4.97364e-26)
(-5.43766e-05 0.00062986 4.52219e-26)
(4.25821e-05 0.000654353 1.3134e-25)
(-5.46941e-05 0.000654192 3.88188e-25)
(4.27618e-05 0.000678828 -6.49938e-26)
(-5.49799e-05 0.000678644 -1.87755e-25)
(4.2921e-05 0.00070341 -6.33766e-26)
(-5.52357e-05 0.000703203 9.18129e-26)
(4.30613e-05 0.000728086 1.43488e-26)
(-5.54636e-05 0.000727858 -2.3501e-25)
(4.31841e-05 0.000752846 -7.20154e-25)
(-5.56656e-05 0.000752597 3.73794e-26)
(4.32908e-05 0.000777677 1.37484e-25)
(-5.58434e-05 0.00077741 -1.90265e-25)
(4.33829e-05 0.000802571 -1.54194e-25)
(-5.59992e-05 0.000802287 4.39462e-25)
(4.34617e-05 0.00082752 2.35095e-25)
(-5.61347e-05 0.00082722 -1.18608e-25)
(4.35285e-05 0.000852515 1.35291e-26)
(-5.6252e-05 0.0008522 -2.27507e-25)
(4.35843e-05 0.000877549 2.22805e-25)
(-5.63527e-05 0.000877221 3.97265e-26)
(4.36305e-05 0.000902615 1.68489e-25)
(-5.64388e-05 0.000902276 -5.27741e-26)
(4.3668e-05 0.000927709 -6.96637e-26)
(-5.6512e-05 0.00092736 -2.56224e-25)
(4.36977e-05 0.000952825 -3.02538e-25)
(-5.6574e-05 0.000952467 5.20764e-25)
(4.37207e-05 0.000977959 7.0415e-26)
(-5.66263e-05 0.000977593 -3.19129e-26)
(4.37376e-05 0.00100311 3.55494e-25)
(-5.66705e-05 0.00100274 2.21105e-25)
(4.37492e-05 0.00102827 -4.47074e-25)
(-5.67082e-05 0.00102789 2.67642e-25)
(4.37561e-05 0.00105343 5.41337e-25)
(-5.67405e-05 0.00105306 1.73964e-25)
(4.37587e-05 0.00107861 -7.09977e-25)
(-5.67688e-05 0.00107823 2.51114e-25)
(4.37574e-05 0.00110379 -3.84944e-26)
(-5.67942e-05 0.00110341 -3.59007e-25)
(4.37526e-05 0.00112897 1.3071e-25)
(-5.68178e-05 0.00112859 -4.88362e-25)
(4.37442e-05 0.00115416 5.45533e-25)
(-5.68405e-05 0.00115378 3.89032e-25)
(4.37325e-05 0.00117934 -5.90349e-25)
(-5.68631e-05 0.00117897 -3.99258e-25)
(4.37174e-05 0.00120453 -1.71437e-25)
(-5.68863e-05 0.00120417 2.83098e-25)
(4.36987e-05 0.00122972 7.47193e-25)
(-5.69108e-05 0.00122937 6.65464e-25)
(4.36763e-05 0.00125491 -4.69704e-25)
(-5.69373e-05 0.00125457 -7.03886e-25)
(4.36502e-05 0.0012801 5.00261e-25)
(-5.6966e-05 0.00127977 4.31695e-25)
(4.36202e-05 0.00130529 2.50375e-25)
(-5.69976e-05 0.00130497 -1.63875e-25)
(4.35883e-05 0.00133048 -8.25159e-27)
(-5.70302e-05 0.00133017 -3.79525e-25)
(4.35576e-05 0.00135567 1.01583e-25)
(-5.70611e-05 0.00135537 6.78765e-25)
(4.35446e-05 0.00138087 3.20479e-25)
(3.08991e-05 0.00139347 4.0077e-26)
(5.69597e-06 0.00139336 5.494e-27)
(-1.94586e-05 0.00139326 3.13435e-25)
(-4.45646e-05 0.00139315 -2.25559e-25)
(-5.70739e-05 0.00138055 -1.79087e-25)
)
;
    }
    frontAndBackPlanes
    {
        type            empty;
    }
}


// ************************************************************************* //
