/*--------------------------------*- C++ -*----------------------------------*\
| =========                 |                                                 |
| \\      /  F ield         | OpenFOAM Extend Project: Open source CFD        |
|  \\    /   O peration     | Version:  1.6-ext                               |
|   \\  /    A nd           | Web:      www.extend-project.de                 |
|    \\/     M anipulation  |                                                 |
\*---------------------------------------------------------------------------*/
FoamFile
{
    version     2.0;
    format      ascii;
    class       volScalarField::DimensionedInternalField;
    location    "1";
    object      V0;
}
// * * * * * * * * * * * * * * * * * * * * * * * * * * * * * * * * * * * * * //

dimensions      [0 3 0 0 0 0 0];

value           nonuniform List<scalar> 
328
(
2.53366e-07
2.53355e-07
2.53316e-07
2.53317e-07
2.71732e-07
2.7172e-07
2.7169e-07
2.71695e-07
2.91441e-07
2.91418e-07
2.91393e-07
2.91384e-07
3.12576e-07
3.12545e-07
3.12523e-07
3.12503e-07
3.35242e-07
3.35205e-07
3.35185e-07
3.35155e-07
3.5955e-07
3.59508e-07
3.59489e-07
3.59452e-07
3.8562e-07
3.85574e-07
3.85554e-07
3.85512e-07
4.13578e-07
4.1353e-07
4.13509e-07
4.13463e-07
4.43564e-07
4.43513e-07
4.43491e-07
4.43441e-07
4.75724e-07
4.75669e-07
4.75646e-07
4.75592e-07
5.10215e-07
5.10157e-07
5.10133e-07
5.10076e-07
5.47207e-07
5.47146e-07
5.4712e-07
5.47059e-07
5.86881e-07
5.86816e-07
5.86789e-07
5.86725e-07
6.29431e-07
6.29363e-07
6.29334e-07
6.29266e-07
6.75066e-07
6.74994e-07
6.74964e-07
6.74892e-07
7.24009e-07
7.23934e-07
7.23902e-07
7.23827e-07
7.76501e-07
7.76422e-07
7.76389e-07
7.7631e-07
8.32799e-07
8.32716e-07
8.32681e-07
8.32598e-07
8.93178e-07
8.93091e-07
8.93054e-07
8.92968e-07
9.57935e-07
9.57844e-07
9.57805e-07
9.57715e-07
1.02739e-06
1.02729e-06
1.02725e-06
1.02716e-06
1.10187e-06
1.10177e-06
1.10173e-06
1.10163e-06
1.26883e-06
1.26872e-06
1.26867e-06
1.26857e-06
1.26882e-06
1.26872e-06
1.26867e-06
1.26857e-06
1.26882e-06
1.26872e-06
1.26868e-06
1.26857e-06
1.26881e-06
1.26872e-06
1.26868e-06
1.26858e-06
1.26881e-06
1.26872e-06
1.26868e-06
1.26858e-06
1.2688e-06
1.26872e-06
1.26868e-06
1.26859e-06
1.2688e-06
1.26872e-06
1.26868e-06
1.26859e-06
1.2688e-06
1.26871e-06
1.26868e-06
1.2686e-06
1.26879e-06
1.26871e-06
1.26868e-06
1.2686e-06
1.26879e-06
1.26871e-06
1.26868e-06
1.26861e-06
1.26878e-06
1.26871e-06
1.26868e-06
1.26861e-06
1.26878e-06
1.26871e-06
1.26868e-06
1.26862e-06
1.26877e-06
1.26871e-06
1.26868e-06
1.26862e-06
1.26877e-06
1.26871e-06
1.26869e-06
1.26863e-06
1.26877e-06
1.26871e-06
1.26869e-06
1.26863e-06
1.26876e-06
1.26871e-06
1.26869e-06
1.26863e-06
1.26876e-06
1.26871e-06
1.26869e-06
1.26864e-06
1.26876e-06
1.26871e-06
1.26869e-06
1.26864e-06
1.26875e-06
1.26871e-06
1.26869e-06
1.26865e-06
1.26875e-06
1.26871e-06
1.26869e-06
1.26865e-06
1.26874e-06
1.26871e-06
1.26869e-06
1.26865e-06
1.26874e-06
1.26871e-06
1.26869e-06
1.26866e-06
1.26874e-06
1.26871e-06
1.26869e-06
1.26866e-06
1.26874e-06
1.26871e-06
1.26869e-06
1.26866e-06
1.26873e-06
1.26871e-06
1.26869e-06
1.26867e-06
1.26873e-06
1.2687e-06
1.26869e-06
1.26867e-06
1.26873e-06
1.2687e-06
1.26869e-06
1.26867e-06
1.26872e-06
1.2687e-06
1.26869e-06
1.26867e-06
1.26872e-06
1.2687e-06
1.2687e-06
1.26868e-06
1.26872e-06
1.2687e-06
1.2687e-06
1.26868e-06
1.26872e-06
1.2687e-06
1.2687e-06
1.26868e-06
1.26872e-06
1.2687e-06
1.2687e-06
1.26868e-06
1.26871e-06
1.2687e-06
1.2687e-06
1.26868e-06
1.26871e-06
1.2687e-06
1.2687e-06
1.26869e-06
1.26871e-06
1.2687e-06
1.2687e-06
1.26869e-06
1.26871e-06
1.2687e-06
1.2687e-06
1.26869e-06
1.26871e-06
1.2687e-06
1.2687e-06
1.26869e-06
1.26871e-06
1.2687e-06
1.2687e-06
1.26869e-06
1.26871e-06
1.2687e-06
1.2687e-06
1.26869e-06
1.2687e-06
1.2687e-06
1.2687e-06
1.26869e-06
1.2687e-06
1.2687e-06
1.2687e-06
1.26869e-06
1.2687e-06
1.2687e-06
1.2687e-06
1.2687e-06
1.2687e-06
1.2687e-06
1.2687e-06
1.2687e-06
1.2687e-06
1.2687e-06
1.2687e-06
1.2687e-06
1.2687e-06
1.2687e-06
1.2687e-06
1.2687e-06
1.2687e-06
1.2687e-06
1.2687e-06
1.2687e-06
1.2687e-06
1.2687e-06
1.2687e-06
1.2687e-06
1.2687e-06
1.2687e-06
1.2687e-06
1.2687e-06
1.2687e-06
1.2687e-06
1.2687e-06
1.2687e-06
1.2687e-06
1.2687e-06
1.2687e-06
1.2687e-06
1.2687e-06
1.2687e-06
1.2687e-06
1.2687e-06
1.2687e-06
1.2687e-06
1.2687e-06
1.2687e-06
1.2687e-06
1.2687e-06
1.2687e-06
1.2687e-06
1.2687e-06
1.2687e-06
1.2687e-06
1.2687e-06
1.2687e-06
1.2687e-06
1.2687e-06
1.2687e-06
1.2687e-06
1.2687e-06
1.2687e-06
1.2687e-06
1.2687e-06
1.2687e-06
1.2687e-06
1.2687e-06
1.2687e-06
1.2687e-06
1.2687e-06
1.2687e-06
1.2687e-06
1.26869e-06
1.26869e-06
1.2687e-06
1.26869e-06
1.26869e-06
1.26869e-06
1.26869e-06
)
;


// ************************************************************************* //
