/*--------------------------------*- C++ -*----------------------------------*\
| =========                 |                                                 |
| \\      /  F ield         | OpenFOAM Extend Project: Open source CFD        |
|  \\    /   O peration     | Version:  1.6-ext                               |
|   \\  /    A nd           | Web:      www.extend-project.de                 |
|    \\/     M anipulation  |                                                 |
\*---------------------------------------------------------------------------*/
FoamFile
{
    version     2.0;
    format      ascii;
    class       volVectorField;
    location    "1";
    object      Vs;
}
// * * * * * * * * * * * * * * * * * * * * * * * * * * * * * * * * * * * * * //

dimensions      [0 1 -1 0 0 0 0];

internalField   nonuniform List<vector> 
328
(
(-1.07024e-06 -8.6321e-06 0)
(4.43023e-07 -1.81636e-06 0)
(4.85402e-07 1.72249e-06 0)
(-8.42495e-07 8.23858e-06 0)
(-3.17167e-06 -2.21579e-05 0)
(6.81112e-07 -5.36087e-06 0)
(8.28931e-07 4.93807e-06 0)
(-2.47937e-06 2.10485e-05 0)
(-6.19525e-06 -3.22662e-05 0)
(-8.36317e-07 -8.78545e-06 0)
(-5.38903e-07 7.87105e-06 0)
(-4.98286e-06 3.04384e-05 0)
(-9.61093e-06 -3.95373e-05 0)
(-3.33247e-06 -1.18412e-05 0)
(-2.86671e-06 1.02685e-05 0)
(-7.85108e-06 3.69402e-05 0)
(-1.35224e-05 -4.4707e-05 0)
(-6.90776e-06 -1.44433e-05 0)
(-6.25582e-06 1.20398e-05 0)
(-1.119e-05 4.12437e-05 0)
(-1.78293e-05 -4.83418e-05 0)
(-1.1279e-05 -1.65749e-05 0)
(-1.04323e-05 1.31565e-05 0)
(-1.49101e-05 4.38775e-05 0)
(-2.25555e-05 -5.09062e-05 0)
(-1.63695e-05 -1.8296e-05 0)
(-1.53227e-05 1.36633e-05 0)
(-1.9042e-05 4.52729e-05 0)
(-2.77e-05 -5.27481e-05 0)
(-2.20427e-05 -1.96966e-05 0)
(-2.0795e-05 1.36322e-05 0)
(-2.35927e-05 4.57483e-05 0)
(-3.32865e-05 -5.41379e-05 0)
(-2.82265e-05 -2.0885e-05 0)
(-2.67804e-05 1.31519e-05 0)
(-2.85939e-05 4.55475e-05 0)
(-3.93335e-05 -5.52779e-05 0)
(-3.48575e-05 -2.19665e-05 0)
(-3.32185e-05 1.23077e-05 0)
(-3.40731e-05 4.48489e-05 0)
(-4.58619e-05 -5.63202e-05 0)
(-4.19048e-05 -2.30353e-05 0)
(-4.00824e-05 1.11744e-05 0)
(-4.00614e-05 4.3783e-05 0)
(-5.2889e-05 -5.73738e-05 0)
(-4.93568e-05 -2.41669e-05 0)
(-4.73638e-05 9.80997e-06 0)
(-4.65876e-05 4.24405e-05 0)
(-6.04304e-05 -5.85137e-05 0)
(-5.72222e-05 -2.54164e-05 0)
(-5.5076e-05 8.25639e-06 0)
(-5.36807e-05 4.08823e-05 0)
(-6.85006e-05 -5.97864e-05 0)
(-6.55241e-05 -2.68189e-05 0)
(-6.32468e-05 6.541e-06 0)
(-6.13698e-05 3.91466e-05 0)
(-7.7114e-05 -6.12153e-05 0)
(-7.42964e-05 -2.8391e-05 0)
(-7.19156e-05 4.68122e-06 0)
(-6.96859e-05 3.72569e-05 0)
(-8.62864e-05 -6.28046e-05 0)
(-8.358e-05 -3.01333e-05 0)
(-8.1129e-05 2.68963e-06 0)
(-7.86628e-05 3.52284e-05 0)
(-9.60357e-05 -6.45427e-05 0)
(-9.34195e-05 -3.20323e-05 0)
(-9.09378e-05 5.79404e-07 0)
(-8.83375e-05 3.3075e-05 0)
(-0.000106383 -6.64041e-05 0)
(-0.000103861 -3.40615e-05 0)
(-0.000101394 -1.63055e-06 0)
(-9.87508e-05 3.08148e-05 0)
(-0.000117353 -6.83501e-05 0)
(-0.00011495 -3.61817e-05 0)
(-0.000112551 -3.91118e-06 0)
(-0.000109947 2.84753e-05 0)
(-0.000128975 -7.03285e-05 0)
(-0.000126733 -3.83403e-05 0)
(-0.00012446 -6.21962e-06 0)
(-0.000121973 2.6097e-05 0)
(-0.000141282 -7.22724e-05 0)
(-0.000139255 -4.04695e-05 0)
(-0.000137171 -8.4964e-06 0)
(-0.000134875 2.37366e-05 0)
(-0.000154313 -7.40986e-05 0)
(-0.000152563 -4.24854e-05 0)
(-0.000150734 -1.06639e-05 0)
(-0.000148703 2.14687e-05 0)
(-0.000168637 -7.57684e-05 0)
(-0.000167244 -4.43555e-05 0)
(-0.000165748 -1.26999e-05 0)
(-0.000164064 1.93064e-05 0)
(-0.000183772 -7.70528e-05 0)
(-0.0001828 -4.58417e-05 0)
(-0.000181701 -1.43648e-05 0)
(-0.000180434 1.74883e-05 0)
(-0.000198736 -7.78007e-05 0)
(-0.000198206 -4.6778e-05 0)
(-0.000197526 -1.54812e-05 0)
(-0.000196696 1.62e-05 0)
(-0.000213558 -7.80008e-05 0)
(-0.000213471 -4.7153e-05 0)
(-0.00021321 -1.60384e-05 0)
(-0.000212817 1.5453e-05 0)
(-0.000228267 -7.76648e-05 0)
(-0.0002286 -4.69786e-05 0)
(-0.000228739 -1.60482e-05 0)
(-0.000228764 1.52354e-05 0)
(-0.000242888 -7.68267e-05 0)
(-0.000243602 -4.62895e-05 0)
(-0.000244101 -1.55457e-05 0)
(-0.000244503 1.55131e-05 0)
(-0.000257446 -7.55423e-05 0)
(-0.000258482 -4.51424e-05 0)
(-0.000259282 -1.45875e-05 0)
(-0.000260001 1.62299e-05 0)
(-0.000271964 -7.38881e-05 0)
(-0.000273244 -4.36151e-05 0)
(-0.000274271 -1.32514e-05 0)
(-0.000275229 1.73095e-05 0)
(-0.00028646 -7.19592e-05 0)
(-0.000287892 -4.18041e-05 0)
(-0.000289053 -1.16341e-05 0)
(-0.000290157 1.86565e-05 0)
(-0.000300951 -6.98677e-05 0)
(-0.000302427 -3.98233e-05 0)
(-0.000303618 -9.84938e-06 0)
(-0.00030476 2.01587e-05 0)
(-0.000315449 -6.77399e-05 0)
(-0.00031685 -3.78009e-05 0)
(-0.000317954 -8.02562e-06 0)
(-0.000319015 2.16898e-05 0)
(-0.00032996 -6.57135e-05 0)
(-0.000331159 -3.58768e-05 0)
(-0.000332052 -6.30267e-06 0)
(-0.000332904 2.31119e-05 0)
(-0.000344489 -6.39346e-05 0)
(-0.000345352 -3.41993e-05 0)
(-0.000345902 -4.82889e-06 0)
(-0.000346412 2.4279e-05 0)
(-0.000359032 -6.25542e-05 0)
(-0.000359423 -3.29219e-05 0)
(-0.000359498 -3.75772e-06 0)
(-0.000359528 2.50398e-05 0)
(-0.000373584 -6.17249e-05 0)
(-0.000373366 -3.21994e-05 0)
(-0.000372831 -3.24421e-06 0)
(-0.000372245 2.52416e-05 0)
(-0.000388133 -6.15975e-05 0)
(-0.000387173 -3.21851e-05 0)
(-0.000385899 -3.44152e-06 0)
(-0.000384564 2.47336e-05 0)
(-0.000402663 -6.23173e-05 0)
(-0.000400834 -3.30266e-05 0)
(-0.000398696 -4.49742e-06 0)
(-0.000396485 2.33701e-05 0)
(-0.000417154 -6.40211e-05 0)
(-0.000414337 -3.48629e-05 0)
(-0.000411221 -6.55097e-06 0)
(-0.000408015 2.10142e-05 0)
(-0.00043158 -6.68339e-05 0)
(-0.000427671 -3.78211e-05 0)
(-0.000423473 -9.72936e-06 0)
(-0.000419167 1.75403e-05 0)
(-0.000445915 -7.08663e-05 0)
(-0.000440821 -4.20135e-05 0)
(-0.000435451 -1.4145e-05 0)
(-0.000429953 1.28379e-05 0)
(-0.000460125 -7.62114e-05 0)
(-0.000453772 -4.75351e-05 0)
(-0.000447156 -1.9893e-05 0)
(-0.000440391 6.81311e-06 0)
(-0.000474177 -8.29434e-05 0)
(-0.000466507 -5.44612e-05 0)
(-0.000458591 -2.70488e-05 0)
(-0.000450501 -6.08461e-07 0)
(-0.000488035 -9.1115e-05 0)
(-0.000479011 -6.28456e-05 0)
(-0.000469757 -3.56666e-05 0)
(-0.000460306 -9.4802e-06 0)
(-0.000501661 -0.000100757 0)
(-0.000491266 -7.27197e-05 0)
(-0.000480659 -4.57776e-05 0)
(-0.000469829 -1.98331e-05 0)
(-0.000515016 -0.000111876 0)
(-0.000503255 -8.40911e-05 0)
(-0.000491298 -5.73898e-05 0)
(-0.000479094 -3.16751e-05 0)
(-0.000528063 -0.000124456 0)
(-0.00051496 -9.69436e-05 0)
(-0.000501678 -7.04872e-05 0)
(-0.000488125 -4.49905e-05 0)
(-0.000540762 -0.000138458 0)
(-0.000526363 -0.000111237 0)
(-0.000511802 -8.50301e-05 0)
(-0.000496946 -5.97404e-05 0)
(-0.000553077 -0.00015382 0)
(-0.000537449 -0.00012691 0)
(-0.000521672 -0.000100956 0)
(-0.000505579 -7.58634e-05 0)
(-0.000564974 -0.000170457 0)
(-0.000548201 -0.000143876 0)
(-0.000531291 -0.000118181 0)
(-0.000514044 -9.32768e-05 0)
(-0.000576421 -0.000188267 0)
(-0.000558602 -0.000162032 0)
(-0.000540658 -0.000136601 0)
(-0.000522358 -0.000111878 0)
(-0.000587386 -0.00020713 0)
(-0.000568638 -0.000181256 0)
(-0.000549773 -0.000156094 0)
(-0.000530536 -0.000131548 0)
(-0.000597845 -0.000226909 0)
(-0.000578296 -0.000201412 0)
(-0.000558634 -0.000176524 0)
(-0.000538586 -0.000152153 0)
(-0.000607775 -0.000247458 0)
(-0.000587561 -0.000222349 0)
(-0.000567237 -0.000197741 0)
(-0.000546516 -0.000173544 0)
(-0.000617157 -0.000268621 0)
(-0.000596423 -0.000243909 0)
(-0.000575577 -0.000219589 0)
(-0.000554327 -0.000195569 0)
(-0.000625977 -0.000290234 0)
(-0.00060487 -0.000265929 0)
(-0.000583647 -0.000241903 0)
(-0.000562014 -0.000218064 0)
(-0.000634223 -0.000312135 0)
(-0.000612892 -0.000288243 0)
(-0.000591437 -0.000264517 0)
(-0.000569568 -0.000240868 0)
(-0.000641888 -0.000334159 0)
(-0.00062048 -0.000310685 0)
(-0.000598936 -0.000287268 0)
(-0.000576976 -0.000263819 0)
(-0.00064897 -0.000356147 0)
(-0.000627625 -0.000333095 0)
(-0.000606129 -0.000309994 0)
(-0.000584219 -0.000286759 0)
(-0.000655468 -0.00037795 0)
(-0.000634318 -0.000355321 0)
(-0.000613 -0.000332545 0)
(-0.000591271 -0.00030954 0)
(-0.000661383 -0.000399425 0)
(-0.000640552 -0.00037722 0)
(-0.000619531 -0.000354779 0)
(-0.000598104 -0.000332022 0)
(-0.000666721 -0.000420446 0)
(-0.000646318 -0.000398664 0)
(-0.000625702 -0.000376569 0)
(-0.000604684 -0.00035408 0)
(-0.000671487 -0.0004409 0)
(-0.000651607 -0.000419542 0)
(-0.000631488 -0.000397803 0)
(-0.000610973 -0.000375605 0)
(-0.000675687 -0.000460693 0)
(-0.000656409 -0.000439758 0)
(-0.000636864 -0.000418387 0)
(-0.000616929 -0.000396507 0)
(-0.000679328 -0.00047975 0)
(-0.000660714 -0.000459238 0)
(-0.000641802 -0.000438249 0)
(-0.000622505 -0.000416711 0)
(-0.000682414 -0.000498015 0)
(-0.000664508 -0.000477927 0)
(-0.000646271 -0.000457334 0)
(-0.000627653 -0.000436168 0)
(-0.000684949 -0.000515452 0)
(-0.000667776 -0.000495791 0)
(-0.000650239 -0.00047561 0)
(-0.000632322 -0.000454846 0)
(-0.000686931 -0.000532047 0)
(-0.000670499 -0.000512817 0)
(-0.000653668 -0.000493066 0)
(-0.000636457 -0.000472736 0)
(-0.000688356 -0.000547803 0)
(-0.000672657 -0.000529012 0)
(-0.000656522 -0.000509712 0)
(-0.000640002 -0.000489848 0)
(-0.000689215 -0.000562745 0)
(-0.000674223 -0.000544404 0)
(-0.000658758 -0.000525576 0)
(-0.0006429 -0.000506213 0)
(-0.000689491 -0.000576913 0)
(-0.000675167 -0.000559037 0)
(-0.000660332 -0.000540706 0)
(-0.00064509 -0.000521879 0)
(-0.00068916 -0.000590362 0)
(-0.000675453 -0.000572971 0)
(-0.000661196 -0.000555165 0)
(-0.000646512 -0.000536911 0)
(-0.000688189 -0.00060316 0)
(-0.000675037 -0.000586279 0)
(-0.000661297 -0.00056903 0)
(-0.000647103 -0.000551387 0)
(-0.000686537 -0.000615383 0)
(-0.000673872 -0.000599044 0)
(-0.000660578 -0.000582389 0)
(-0.000646799 -0.000565398 0)
(-0.000684148 -0.000627116 0)
(-0.000671898 -0.000611358 0)
(-0.000658978 -0.000595338 0)
(-0.000645534 -0.000579041 0)
(-0.000680958 -0.000638442 0)
(-0.000669049 -0.000623312 0)
(-0.000656429 -0.000607976 0)
(-0.000643239 -0.000592419 0)
(-0.000676887 -0.000649446 0)
(-0.000665242 -0.000635 0)
(-0.00065285 -0.000620405 0)
(-0.00063984 -0.000605639 0)
(-0.000671849 -0.000660199 0)
(-0.000660392 -0.000646506 0)
(-0.000648162 -0.000632725 0)
(-0.00063527 -0.000618807 0)
(-0.00066572 -0.000670786 0)
(-0.000654365 -0.000657916 0)
(-0.000642238 -0.000645021 0)
(-0.000629429 -0.000632007 0)
(-0.000658441 -0.000681283 0)
(-0.000647097 -0.000669312 0)
(-0.000635028 -0.000657358 0)
(-0.000622298 -0.000645304 0)
(-0.000649734 -0.000692029 0)
(-0.000638334 -0.000680843 0)
(-0.000626286 -0.000669705 0)
(-0.000613638 -0.000658464 0)
)
;

boundaryField
{
    plateFix
    {
        type            calculated;
        value           uniform (0 0 0);
    }
    plate
    {
        type            calculated;
        value           nonuniform List<vector> 
168
(
(-3.89502e-05 -2.32126e-05 -1.2819e-23)
(-3.68953e-05 2.20681e-05 -1.46358e-23)
(-3.0848e-05 -3.72203e-05 -4.48021e-23)
(-2.8502e-05 3.53529e-05 2.01558e-23)
(-2.51886e-05 -4.80233e-05 3.74324e-23)
(-2.23765e-05 4.54311e-05 2.91097e-23)
(-2.2296e-05 -5.55726e-05 -1.60395e-23)
(-1.8895e-05 5.22293e-05 -9.61376e-23)
(-2.18999e-05 -6.09666e-05 -2.62068e-23)
(-1.78197e-05 5.67843e-05 9.92878e-23)
(-2.33342e-05 -6.47237e-05 3.78563e-23)
(-1.85203e-05 5.95777e-05 -3.28072e-23)
(-2.62078e-05 -6.73816e-05 -2.71082e-23)
(-2.06297e-05 6.11098e-05 1.60541e-24)
(-3.02002e-05 -6.92892e-05 4.99062e-23)
(-2.38479e-05 6.16996e-05 3.21172e-25)
(-3.51125e-05 -7.07291e-05 -4.94177e-23)
(-2.79927e-05 6.1602e-05 -4.34956e-23)
(-4.0802e-05 -7.19026e-05 4.68953e-23)
(-3.29373e-05 6.09939e-05 5.6079e-23)
(-4.71755e-05 -7.29616e-05 -1.63132e-23)
(-3.86044e-05 6.00054e-05 3.64311e-24)
(-5.4169e-05 -7.4014e-05 -7.14217e-24)
(-4.49468e-05 5.87258e-05 -1.89085e-24)
(-6.17413e-05 -7.51348e-05 -3.216e-24)
(-5.19418e-05 5.72158e-05 -1.82791e-23)
(-6.98676e-05 -7.63713e-05 -2.13537e-23)
(-5.95853e-05 5.55143e-05 -4.31591e-24)
(-7.85366e-05 -7.77487e-05 2.07891e-23)
(-6.78886e-05 5.36459e-05 -3.64228e-24)
(-8.77475e-05 -7.92733e-05 1.0696e-24)
(-7.68756e-05 5.16275e-05 3.82022e-24)
(-9.75085e-05 -8.09359e-05 6.94472e-24)
(-8.65807e-05 4.94743e-05 7.48218e-25)
(-0.000107835 -8.27131e-05 -2.70835e-23)
(-9.70462e-05 4.72057e-05 -5.71258e-24)
(-0.000118748 -8.45682e-05 1.88452e-23)
(-0.00010832 4.48496e-05 -8.53336e-24)
(-0.000130274 -8.64508e-05 1.09716e-23)
(-0.000120453 4.24465e-05 6.28812e-24)
(-0.000142445 -8.82954e-05 -9.49188e-24)
(-0.000133496 4.00524e-05 5.19597e-25)
(-0.000155299 -9.00202e-05 -3.52585e-25)
(-0.000147501 3.77405e-05 -4.42696e-24)
(-0.000169399 -9.15844e-05 6.02955e-24)
(-0.000163085 3.55199e-05 -2.17342e-23)
(-0.000184273 -9.27635e-05 -1.01745e-23)
(-0.000179714 3.36276e-05 2.72642e-23)
(-0.000198966 -9.34151e-05 -4.48187e-24)
(-0.000196246 3.22536e-05 -1.04848e-23)
(-0.000213516 -9.3528e-05 4.08717e-24)
(-0.000212637 3.14095e-05 2.16406e-23)
(-0.000227964 -9.31136e-05 -8.16514e-25)
(-0.000228842 3.10836e-05 -1.46269e-23)
(-0.000242347 -9.22056e-05 -1.27074e-24)
(-0.000244815 3.12422e-05 -1.008e-23)
(-0.000256701 -9.08593e-05 3.07776e-24)
(-0.000260516 3.18298e-05 -2.42418e-23)
(-0.000271056 -8.91502e-05 1.40103e-23)
(-0.000275902 3.27706e-05 1.63155e-23)
(-0.000285442 -8.71727e-05 -1.58384e-23)
(-0.000290936 3.39701e-05 -1.74076e-23)
(-0.000299883 -8.50377e-05 6.48779e-24)
(-0.000305586 3.53175e-05 -2.23753e-23)
(-0.000314395 -8.28702e-05 -9.03852e-24)
(-0.000319822 3.66875e-05 1.90309e-23)
(-0.000328993 -8.08065e-05 2.03464e-24)
(-0.000333621 3.79438e-05 5.45931e-24)
(-0.000343681 -7.89913e-05 -4.10557e-24)
(-0.000346964 3.89415e-05 2.40168e-23)
(-0.000358461 -7.75741e-05 -1.12773e-24)
(-0.000359839 3.9531e-05 1.37956e-24)
(-0.000373324 -7.67059e-05 -1.12985e-23)
(-0.00037224 3.95612e-05 7.988e-25)
(-0.000388259 -7.65359e-05 1.24086e-23)
(-0.000384167 3.88825e-05 1.05807e-23)
(-0.000403246 -7.7208e-05 -1.60525e-24)
(-0.000395626 3.73508e-05 -1.63726e-23)
(-0.000418258 -7.88576e-05 3.56354e-24)
(-0.000406629 3.48305e-05 1.55497e-23)
(-0.000433265 -8.16084e-05 -6.03563e-24)
(-0.000417194 3.11973e-05 -7.1798e-24)
(-0.000448232 -8.55697e-05 7.84432e-24)
(-0.000427343 2.63416e-05 -1.08258e-23)
(-0.000463116 -9.08336e-05 -4.34296e-24)
(-0.000437102 2.01705e-05 -8.27874e-24)
(-0.000477874 -9.74735e-05 -8.36834e-24)
(-0.000446501 1.26102e-05 -9.1168e-24)
(-0.000492458 -0.000105541 1.11332e-23)
(-0.000455574 3.608e-06 -5.34541e-26)
(-0.000506821 -0.000115067 2.36363e-24)
(-0.000464355 -6.86704e-06 -1.13556e-23)
(-0.00052091 -0.000126059 4.05419e-25)
(-0.00047288 -1.88227e-05 6.66962e-25)
(-0.000534677 -0.000138499 2.99205e-24)
(-0.000481185 -3.22435e-05 3.79378e-24)
(-0.000548072 -0.000152348 -7.23643e-24)
(-0.000489305 -4.70911e-05 1.75546e-24)
(-0.000561047 -0.000167545 2.21774e-24)
(-0.000497273 -6.33047e-05 1.21766e-25)
(-0.000573557 -0.000184007 5.90077e-24)
(-0.000505119 -8.08024e-05 6.99053e-24)
(-0.00058556 -0.000201632 6.07709e-24)
(-0.00051287 -9.94832e-05 9.73338e-24)
(-0.00059702 -0.0002203 3.94514e-24)
(-0.000520548 -0.000119229 -3.73749e-24)
(-0.000607902 -0.000239876 5.74774e-24)
(-0.000528169 -0.000139906 9.2892e-24)
(-0.000618179 -0.000260215 5.41003e-24)
(-0.000535745 -0.00016137 4.62962e-25)
(-0.000627829 -0.000281162 -8.00624e-24)
(-0.00054328 -0.000183467 1.43363e-23)
(-0.000636835 -0.000302555 -4.05808e-24)
(-0.000550772 -0.000206037 1.51058e-24)
(-0.000645186 -0.000324231 7.61253e-24)
(-0.000558214 -0.000228921 -4.71195e-24)
(-0.000652876 -0.000346029 -1.96618e-24)
(-0.000565588 -0.000251957 -5.15107e-25)
(-0.000659905 -0.000367791 -2.29868e-23)
(-0.000572873 -0.000274989 5.96038e-24)
(-0.000666277 -0.000389367 1.34173e-24)
(-0.00058004 -0.000297871 -1.18978e-23)
(-0.000672 -0.000410616 1.90486e-23)
(-0.000587054 -0.000320465 -2.27691e-24)
(-0.000677085 -0.000431412 1.57632e-23)
(-0.000593873 -0.000342648 5.27297e-24)
(-0.000681547 -0.000451644 -5.13159e-24)
(-0.000600451 -0.000364311 4.92757e-24)
(-0.000685401 -0.000471217 2.47528e-24)
(-0.000606735 -0.000385364 -7.89414e-24)
(-0.000688662 -0.000490055 4.23405e-24)
(-0.000612672 -0.000405737 3.56111e-24)
(-0.000691346 -0.000508103 -9.49414e-24)
(-0.000618201 -0.000425378 -3.05225e-24)
(-0.000693466 -0.000525324 -3.23024e-23)
(-0.000623261 -0.000444257 2.66783e-23)
(-0.00069503 -0.000541701 2.04194e-23)
(-0.000627786 -0.000462366 4.09533e-24)
(-0.000696045 -0.000557239 1.10451e-23)
(-0.000631711 -0.000479716 -9.77025e-24)
(-0.00069651 -0.000571958 7.17377e-24)
(-0.000634969 -0.000496337 -9.28596e-24)
(-0.000696415 -0.000585897 -1.09906e-23)
(-0.000637491 -0.000512279 1.06629e-23)
(-0.000695744 -0.000599108 -1.19206e-23)
(-0.00063921 -0.000527607 -1.79336e-23)
(-0.000694469 -0.000611656 7.24578e-24)
(-0.000640055 -0.0005424 -1.53936e-23)
(-0.000692553 -0.000623614 -1.17968e-23)
(-0.000639959 -0.000556748 1.87032e-23)
(-0.000689942 -0.000635062 1.57701e-23)
(-0.00063885 -0.00057075 -5.46205e-25)
(-0.000686573 -0.00064608 1.1958e-23)
(-0.000636661 -0.000584511 8.01104e-24)
(-0.000682362 -0.000656748 -3.33741e-23)
(-0.000633315 -0.000598137 1.62759e-23)
(-0.000677223 -0.000667132 1.98606e-23)
(-0.00062875 -0.000611738 -6.82635e-24)
(-0.000671034 -0.000677318 -1.27051e-23)
(-0.000622878 -0.000625392 2.05774e-23)
(-0.000663799 -0.000687357 1.72719e-23)
(-0.00061576 -0.000639189 1.24123e-23)
(-0.000655315 -0.000697665 1.78132e-23)
(-0.000644871 -0.000697708 -2.14772e-23)
(-0.000633466 -0.000686722 2.96144e-23)
(-0.000621426 -0.000675885 1.9344e-23)
(-0.000608789 -0.000664797 -1.10631e-23)
(-0.000607264 -0.000652808 -8.55044e-24)
)
;
    }
    frontAndBackPlanes
    {
        type            empty;
    }
}


// ************************************************************************* //
