/*--------------------------------*- C++ -*----------------------------------*\
| =========                 |                                                 |
| \\      /  F ield         | OpenFOAM Extend Project: Open source CFD        |
|  \\    /   O peration     | Version:  1.6-ext                               |
|   \\  /    A nd           | Web:      www.extend-project.de                 |
|    \\/     M anipulation  |                                                 |
\*---------------------------------------------------------------------------*/
FoamFile
{
    version     2.0;
    format      ascii;
    class       vectorField;
    location    "0.6";
    object      accumulatedFluidInterfaceDisplacement;
}
// * * * * * * * * * * * * * * * * * * * * * * * * * * * * * * * * * * * * * //


338
(
(9.21824e-07 -5.70578e-07 -7.69579e-27)
(1.19808e-06 -2.80671e-07 2.23203e-27)
(5.51172e-06 1.89245e-05 -3.75909e-27)
(5.63501e-06 1.85735e-05 -8.24427e-28)
(5.64786e-06 1.81011e-05 7.4263e-27)
(5.65304e-06 1.76213e-05 3.09151e-27)
(5.6501e-06 1.714e-05 -2.78931e-27)
(5.64025e-06 1.66608e-05 5.83116e-27)
(5.62471e-06 1.6186e-05 5.07176e-27)
(5.60466e-06 1.57167e-05 3.79179e-27)
(5.58103e-06 1.52532e-05 3.52601e-27)
(5.55452e-06 1.47956e-05 -6.18862e-27)
(5.52559e-06 1.43436e-05 -4.76177e-27)
(5.49453e-06 1.38968e-05 -9.70385e-28)
(5.46148e-06 1.34547e-05 3.98031e-27)
(5.42649e-06 1.30169e-05 -1.09014e-27)
(5.38952e-06 1.25832e-05 5.50227e-28)
(5.35053e-06 1.21533e-05 1.97331e-27)
(5.30939e-06 1.17269e-05 -5.74782e-27)
(5.26603e-06 1.1304e-05 -1.53417e-27)
(5.22031e-06 1.08845e-05 -2.12001e-28)
(5.17214e-06 1.04687e-05 -1.23311e-27)
(5.12142e-06 1.00564e-05 1.39856e-27)
(5.06805e-06 9.64796e-06 -4.46183e-28)
(5.01196e-06 9.24355e-06 -2.16647e-27)
(4.95308e-06 8.84345e-06 -1.40809e-27)
(4.89135e-06 8.44794e-06 1.56824e-27)
(4.82674e-06 8.05736e-06 2.56885e-29)
(4.75921e-06 7.67207e-06 -5.2711e-28)
(4.68875e-06 7.29242e-06 1.43944e-29)
(4.61537e-06 6.9188e-06 3.21446e-29)
(4.53908e-06 6.55162e-06 1.8692e-28)
(4.45991e-06 6.19126e-06 -8.47237e-28)
(4.3779e-06 5.83812e-06 -1.26832e-27)
(4.29312e-06 5.49258e-06 -7.51603e-28)
(4.20563e-06 5.15503e-06 1.95245e-28)
(4.11552e-06 4.82583e-06 1.48481e-27)
(4.02288e-06 4.50532e-06 3.22605e-27)
(3.92782e-06 4.19382e-06 -1.58657e-27)
(3.83046e-06 3.89161e-06 -2.26534e-27)
(3.7309e-06 3.59897e-06 -6.42831e-28)
(3.62927e-06 3.3161e-06 9.82432e-28)
(3.5257e-06 3.04322e-06 3.76054e-27)
(3.42031e-06 2.78046e-06 -1.93768e-28)
(3.31323e-06 2.52797e-06 -1.95491e-27)
(3.20458e-06 2.28581e-06 -5.20122e-27)
(3.09448e-06 2.05406e-06 -1.76372e-27)
(2.98303e-06 1.83272e-06 5.20528e-27)
(2.87035e-06 1.62179e-06 -3.13486e-27)
(2.75652e-06 1.42123e-06 -3.44706e-27)
(2.64166e-06 1.23099e-06 5.76661e-27)
(2.52582e-06 1.05099e-06 2.80522e-27)
(2.4091e-06 8.81108e-07 -2.22612e-27)
(2.29154e-06 7.21245e-07 1.63769e-27)
(2.17321e-06 5.7127e-07 -6.38648e-28)
(2.05411e-06 4.31053e-07 2.63783e-27)
(1.93426e-06 3.00464e-07 3.55441e-28)
(1.81364e-06 1.79392e-07 -2.87137e-27)
(1.69216e-06 6.77569e-08 6.68535e-28)
(1.5697e-06 -3.44586e-08 9.07803e-27)
(1.44605e-06 -1.27171e-07 1.28912e-27)
(1.32091e-06 -2.10136e-07 -6.46084e-27)
(4.73823e-06 1.90479e-05 2.09029e-28)
(5.17611e-06 1.90454e-05 2.44359e-27)
(3.96298e-06 1.89163e-05 2.66627e-27)
(4.29922e-06 1.90415e-05 -2.86127e-28)
(1.0011e-06 -4.98627e-07 3.04606e-27)
(1.08371e-06 -4.14078e-07 3.34671e-27)
(1.16651e-06 -3.19658e-07 5.04495e-28)
(1.24913e-06 -2.15614e-07 3.72125e-28)
(1.33125e-06 -1.02034e-07 -6.45202e-27)
(1.41266e-06 2.11001e-08 -3.01335e-27)
(1.49319e-06 1.53864e-07 1.73769e-27)
(1.57272e-06 2.9637e-07 -2.77558e-27)
(1.65117e-06 4.48745e-07 1.85898e-27)
(1.72847e-06 6.11121e-07 3.22951e-27)
(1.80458e-06 7.83626e-07 -3.9518e-27)
(1.87947e-06 9.66378e-07 -3.37673e-27)
(1.95312e-06 1.15948e-06 4.79577e-27)
(2.02552e-06 1.36303e-06 3.60072e-28)
(2.09666e-06 1.57708e-06 -2.96963e-27)
(2.16654e-06 1.80168e-06 1.25617e-27)
(2.23516e-06 2.03684e-06 -2.0608e-27)
(2.30254e-06 2.28255e-06 -2.13589e-27)
(2.36867e-06 2.53877e-06 1.85383e-27)
(2.43358e-06 2.80541e-06 7.07772e-28)
(2.49726e-06 3.08236e-06 -2.60849e-27)
(2.55975e-06 3.36946e-06 -2.53962e-27)
(2.62103e-06 3.66653e-06 -6.60543e-28)
(2.68113e-06 3.97335e-06 -1.4313e-27)
(2.74005e-06 4.28964e-06 -2.64987e-27)
(2.7978e-06 4.61511e-06 5.54407e-29)
(2.85437e-06 4.94945e-06 2.01705e-27)
(2.90975e-06 5.29229e-06 -1.1792e-27)
(2.96395e-06 5.64327e-06 -2.34654e-28)
(3.01694e-06 6.002e-06 1.3944e-27)
(3.06871e-06 6.36806e-06 -2.41916e-28)
(3.11923e-06 6.74105e-06 -2.20487e-27)
(3.16847e-06 7.12056e-06 -5.71329e-28)
(3.2164e-06 7.50616e-06 1.64471e-27)
(3.26297e-06 7.89745e-06 -3.93265e-28)
(3.30813e-06 8.29406e-06 -1.22793e-27)
(3.35184e-06 8.6956e-06 -7.22818e-28)
(3.39403e-06 9.10174e-06 1.71112e-28)
(3.43463e-06 9.51216e-06 -6.10056e-28)
(3.47357e-06 9.92659e-06 1.80939e-28)
(3.51074e-06 1.03448e-05 6.41112e-28)
(3.54606e-06 1.07666e-05 -2.65132e-27)
(3.57942e-06 1.1192e-05 -2.87767e-27)
(3.61069e-06 1.16207e-05 -2.35724e-27)
(3.63976e-06 1.20529e-05 -1.54958e-27)
(3.66648e-06 1.24887e-05 2.73281e-27)
(3.69076e-06 1.29283e-05 6.00759e-27)
(3.71246e-06 1.33718e-05 3.37087e-27)
(3.73154e-06 1.38198e-05 -2.37955e-27)
(3.74796e-06 1.42725e-05 -1.64333e-27)
(3.76182e-06 1.47305e-05 -1.33414e-27)
(3.77329e-06 1.51942e-05 -6.13225e-28)
(3.78276e-06 1.56638e-05 3.29523e-27)
(3.7908e-06 1.61394e-05 -2.30919e-28)
(3.79821e-06 1.66206e-05 1.75243e-27)
(3.806e-06 1.71064e-05 4.07601e-27)
(3.81526e-06 1.75945e-05 2.24456e-27)
(3.82718e-06 1.80813e-05 3.24776e-27)
(3.84113e-06 1.85602e-05 3.37744e-27)
(2.45246e-07 -1.14129e-07 -1.3659e-26)
(2.39446e-07 -1.56947e-07 2.89241e-27)
(2.3219e-07 -2.37008e-07 1.2113e-26)
(2.3399e-07 -3.06035e-07 -1.02779e-26)
(2.44354e-07 -3.66068e-07 -1.20588e-26)
(2.61007e-07 -4.19843e-07 6.03321e-27)
(2.81696e-07 -4.68894e-07 -8.99734e-27)
(3.0498e-07 -5.14255e-07 7.23953e-27)
(3.29941e-07 -5.56369e-07 3.6696e-27)
(3.56118e-07 -5.9532e-07 -2.65023e-26)
(3.8335e-07 -6.30901e-07 8.51643e-27)
(4.11712e-07 -6.62706e-07 4.59373e-27)
(4.41444e-07 -6.90188e-07 3.43198e-28)
(4.72915e-07 -7.12709e-07 1.13675e-26)
(5.06592e-07 -7.2957e-07 -5.41056e-27)
(5.43009e-07 -7.40047e-07 -3.21728e-27)
(5.8274e-07 -7.43407e-07 3.38275e-28)
(6.26368e-07 -7.38918e-07 2.13151e-27)
(6.74454e-07 -7.25849e-07 7.21654e-28)
(7.27511e-07 -7.03452e-07 8.81782e-28)
(7.85977e-07 -6.7093e-07 4.77785e-27)
(8.50199e-07 -6.27384e-07 -5.56118e-27)
(-6.28143e-08 -1.40457e-08 9.32957e-26)
(1.08361e-06 -3.36278e-07 1.53373e-27)
(9.76945e-07 -3.78804e-07 -1.75636e-27)
(8.75526e-07 -4.1043e-07 -9.56187e-27)
(7.79068e-07 -4.32021e-07 7.70801e-28)
(6.87407e-07 -4.4434e-07 8.90998e-27)
(6.00485e-07 -4.48106e-07 8.0186e-27)
(5.18334e-07 -4.44028e-07 1.30816e-27)
(4.41058e-07 -4.32833e-07 -1.02633e-26)
(3.68808e-07 -4.15283e-07 -1.15469e-27)
(3.01762e-07 -3.92185e-07 5.49001e-27)
(2.40109e-07 -3.6439e-07 -2.57961e-27)
(1.84029e-07 -3.32786e-07 -1.58409e-27)
(1.33681e-07 -2.98295e-07 -3.73263e-27)
(8.91877e-08 -2.61858e-07 -7.20678e-28)
(5.06322e-08 -2.24418e-07 2.52165e-27)
(1.80375e-08 -1.86908e-07 5.98601e-27)
(-8.62972e-09 -1.50212e-07 -1.0501e-26)
(-2.94998e-08 -1.15177e-07 -8.66964e-27)
(-4.47612e-08 -8.2504e-08 1.42619e-26)
(-5.48992e-08 -5.29007e-08 -2.70873e-26)
(-6.0801e-08 -2.65092e-08 1.46822e-26)
(9.21824e-07 -5.70578e-07 -7.69579e-27)
(1.19808e-06 -2.80671e-07 2.23203e-27)
(5.51172e-06 1.89245e-05 -3.75909e-27)
(5.63501e-06 1.85735e-05 -8.24427e-28)
(5.64786e-06 1.81011e-05 7.4263e-27)
(5.65304e-06 1.76213e-05 3.09151e-27)
(5.6501e-06 1.714e-05 -2.78931e-27)
(5.64025e-06 1.66608e-05 5.83116e-27)
(5.62471e-06 1.6186e-05 5.07176e-27)
(5.60466e-06 1.57167e-05 3.79179e-27)
(5.58103e-06 1.52532e-05 3.52601e-27)
(5.55452e-06 1.47956e-05 -6.18862e-27)
(5.52559e-06 1.43436e-05 -4.76177e-27)
(5.49453e-06 1.38968e-05 -9.70385e-28)
(5.46148e-06 1.34547e-05 3.98031e-27)
(5.42649e-06 1.30169e-05 -1.09014e-27)
(5.38952e-06 1.25832e-05 5.50227e-28)
(5.35053e-06 1.21533e-05 1.97331e-27)
(5.30939e-06 1.17269e-05 -5.74782e-27)
(5.26603e-06 1.1304e-05 -1.53417e-27)
(5.22031e-06 1.08845e-05 -2.12001e-28)
(5.17214e-06 1.04687e-05 -1.23311e-27)
(5.12142e-06 1.00564e-05 1.39856e-27)
(5.06805e-06 9.64796e-06 -4.46183e-28)
(5.01196e-06 9.24355e-06 -2.16647e-27)
(4.95308e-06 8.84345e-06 -1.40809e-27)
(4.89135e-06 8.44794e-06 1.56824e-27)
(4.82674e-06 8.05736e-06 2.56885e-29)
(4.75921e-06 7.67207e-06 -5.2711e-28)
(4.68875e-06 7.29242e-06 1.43944e-29)
(4.61537e-06 6.9188e-06 3.21446e-29)
(4.53908e-06 6.55162e-06 1.8692e-28)
(4.45991e-06 6.19126e-06 -8.47237e-28)
(4.3779e-06 5.83812e-06 -1.26832e-27)
(4.29312e-06 5.49258e-06 -7.51603e-28)
(4.20563e-06 5.15503e-06 1.95245e-28)
(4.11552e-06 4.82583e-06 1.48481e-27)
(4.02288e-06 4.50532e-06 3.22605e-27)
(3.92782e-06 4.19382e-06 -1.58657e-27)
(3.83046e-06 3.89161e-06 -2.26534e-27)
(3.7309e-06 3.59897e-06 -6.42831e-28)
(3.62927e-06 3.3161e-06 9.82432e-28)
(3.5257e-06 3.04322e-06 3.76054e-27)
(3.42031e-06 2.78046e-06 -1.93768e-28)
(3.31323e-06 2.52797e-06 -1.95491e-27)
(3.20458e-06 2.28581e-06 -5.20122e-27)
(3.09448e-06 2.05406e-06 -1.76372e-27)
(2.98303e-06 1.83272e-06 5.20528e-27)
(2.87035e-06 1.62179e-06 -3.13486e-27)
(2.75652e-06 1.42123e-06 -3.44706e-27)
(2.64166e-06 1.23099e-06 5.76661e-27)
(2.52582e-06 1.05099e-06 2.80522e-27)
(2.4091e-06 8.81108e-07 -2.22612e-27)
(2.29154e-06 7.21245e-07 1.63769e-27)
(2.17321e-06 5.7127e-07 -6.38648e-28)
(2.05411e-06 4.31053e-07 2.63783e-27)
(1.93426e-06 3.00464e-07 3.55441e-28)
(1.81364e-06 1.79392e-07 -2.87137e-27)
(1.69216e-06 6.77569e-08 6.68535e-28)
(1.5697e-06 -3.44586e-08 9.07803e-27)
(1.44605e-06 -1.27171e-07 1.28912e-27)
(1.32091e-06 -2.10136e-07 -6.46084e-27)
(4.73823e-06 1.90479e-05 2.09029e-28)
(5.17611e-06 1.90454e-05 2.44359e-27)
(3.96298e-06 1.89163e-05 2.66627e-27)
(4.29922e-06 1.90415e-05 -2.86127e-28)
(1.0011e-06 -4.98627e-07 3.04606e-27)
(1.08371e-06 -4.14078e-07 3.34671e-27)
(1.16651e-06 -3.19658e-07 5.04495e-28)
(1.24913e-06 -2.15614e-07 3.72125e-28)
(1.33125e-06 -1.02034e-07 -6.45202e-27)
(1.41266e-06 2.11001e-08 -3.01335e-27)
(1.49319e-06 1.53864e-07 1.73769e-27)
(1.57272e-06 2.9637e-07 -2.77558e-27)
(1.65117e-06 4.48745e-07 1.85898e-27)
(1.72847e-06 6.11121e-07 3.22951e-27)
(1.80458e-06 7.83626e-07 -3.9518e-27)
(1.87947e-06 9.66378e-07 -3.37673e-27)
(1.95312e-06 1.15948e-06 4.79577e-27)
(2.02552e-06 1.36303e-06 3.60072e-28)
(2.09666e-06 1.57708e-06 -2.96963e-27)
(2.16654e-06 1.80168e-06 1.25617e-27)
(2.23516e-06 2.03684e-06 -2.0608e-27)
(2.30254e-06 2.28255e-06 -2.13589e-27)
(2.36867e-06 2.53877e-06 1.85383e-27)
(2.43358e-06 2.80541e-06 7.07772e-28)
(2.49726e-06 3.08236e-06 -2.60849e-27)
(2.55975e-06 3.36946e-06 -2.53962e-27)
(2.62103e-06 3.66653e-06 -6.60543e-28)
(2.68113e-06 3.97335e-06 -1.4313e-27)
(2.74005e-06 4.28964e-06 -2.64987e-27)
(2.7978e-06 4.61511e-06 5.54407e-29)
(2.85437e-06 4.94945e-06 2.01705e-27)
(2.90975e-06 5.29229e-06 -1.1792e-27)
(2.96395e-06 5.64327e-06 -2.34654e-28)
(3.01694e-06 6.002e-06 1.3944e-27)
(3.06871e-06 6.36806e-06 -2.41916e-28)
(3.11923e-06 6.74105e-06 -2.20487e-27)
(3.16847e-06 7.12056e-06 -5.71329e-28)
(3.2164e-06 7.50616e-06 1.64471e-27)
(3.26297e-06 7.89745e-06 -3.93265e-28)
(3.30813e-06 8.29406e-06 -1.22793e-27)
(3.35184e-06 8.6956e-06 -7.22818e-28)
(3.39403e-06 9.10174e-06 1.71112e-28)
(3.43463e-06 9.51216e-06 -6.10056e-28)
(3.47357e-06 9.92659e-06 1.80939e-28)
(3.51074e-06 1.03448e-05 6.41112e-28)
(3.54606e-06 1.07666e-05 -2.65132e-27)
(3.57942e-06 1.1192e-05 -2.87767e-27)
(3.61069e-06 1.16207e-05 -2.35724e-27)
(3.63976e-06 1.20529e-05 -1.54958e-27)
(3.66648e-06 1.24887e-05 2.73281e-27)
(3.69076e-06 1.29283e-05 6.00759e-27)
(3.71246e-06 1.33718e-05 3.37087e-27)
(3.73154e-06 1.38198e-05 -2.37955e-27)
(3.74796e-06 1.42725e-05 -1.64333e-27)
(3.76182e-06 1.47305e-05 -1.33414e-27)
(3.77329e-06 1.51942e-05 -6.13225e-28)
(3.78276e-06 1.56638e-05 3.29523e-27)
(3.7908e-06 1.61394e-05 -2.30919e-28)
(3.79821e-06 1.66206e-05 1.75243e-27)
(3.806e-06 1.71064e-05 4.07601e-27)
(3.81526e-06 1.75945e-05 2.24456e-27)
(3.82718e-06 1.80813e-05 3.24776e-27)
(3.84113e-06 1.85602e-05 3.37744e-27)
(2.45246e-07 -1.14129e-07 -1.3659e-26)
(2.39446e-07 -1.56947e-07 2.89241e-27)
(2.3219e-07 -2.37008e-07 1.2113e-26)
(2.3399e-07 -3.06035e-07 -1.02779e-26)
(2.44354e-07 -3.66068e-07 -1.20588e-26)
(2.61007e-07 -4.19843e-07 6.03321e-27)
(2.81696e-07 -4.68894e-07 -8.99734e-27)
(3.0498e-07 -5.14255e-07 7.23953e-27)
(3.29941e-07 -5.56369e-07 3.6696e-27)
(3.56118e-07 -5.9532e-07 -2.65023e-26)
(3.8335e-07 -6.30901e-07 8.51643e-27)
(4.11712e-07 -6.62706e-07 4.59373e-27)
(4.41444e-07 -6.90188e-07 3.43198e-28)
(4.72915e-07 -7.12709e-07 1.13675e-26)
(5.06592e-07 -7.2957e-07 -5.41056e-27)
(5.43009e-07 -7.40047e-07 -3.21728e-27)
(5.8274e-07 -7.43407e-07 3.38275e-28)
(6.26368e-07 -7.38918e-07 2.13151e-27)
(6.74454e-07 -7.25849e-07 7.21654e-28)
(7.27511e-07 -7.03452e-07 8.81782e-28)
(7.85977e-07 -6.7093e-07 4.77785e-27)
(8.50199e-07 -6.27384e-07 -5.56118e-27)
(-6.28143e-08 -1.40457e-08 9.32957e-26)
(1.08361e-06 -3.36278e-07 1.53373e-27)
(9.76945e-07 -3.78804e-07 -1.75636e-27)
(8.75526e-07 -4.1043e-07 -9.56187e-27)
(7.79068e-07 -4.32021e-07 7.70801e-28)
(6.87407e-07 -4.4434e-07 8.90998e-27)
(6.00485e-07 -4.48106e-07 8.0186e-27)
(5.18334e-07 -4.44028e-07 1.30816e-27)
(4.41058e-07 -4.32833e-07 -1.02633e-26)
(3.68808e-07 -4.15283e-07 -1.15469e-27)
(3.01762e-07 -3.92185e-07 5.49001e-27)
(2.40109e-07 -3.6439e-07 -2.57961e-27)
(1.84029e-07 -3.32786e-07 -1.58409e-27)
(1.33681e-07 -2.98295e-07 -3.73263e-27)
(8.91877e-08 -2.61858e-07 -7.20678e-28)
(5.06322e-08 -2.24418e-07 2.52165e-27)
(1.80375e-08 -1.86908e-07 5.98601e-27)
(-8.62972e-09 -1.50212e-07 -1.0501e-26)
(-2.94998e-08 -1.15177e-07 -8.66964e-27)
(-4.47612e-08 -8.2504e-08 1.42619e-26)
(-5.48992e-08 -5.29007e-08 -2.70873e-26)
(-6.0801e-08 -2.65092e-08 1.46822e-26)
)


// ************************************************************************* //
