/*--------------------------------*- C++ -*----------------------------------*\
| =========                 |                                                 |
| \\      /  F ield         | OpenFOAM Extend Project: Open source CFD        |
|  \\    /   O peration     | Version:  1.6-ext                               |
|   \\  /    A nd           | Web:      www.extend-project.de                 |
|    \\/     M anipulation  |                                                 |
\*---------------------------------------------------------------------------*/
FoamFile
{
    version     2.0;
    format      ascii;
    class       tetPointVectorField;
    location    "0.6";
    object      motionU;
}
// * * * * * * * * * * * * * * * * * * * * * * * * * * * * * * * * * * * * * //

dimensions      [0 1 -1 0 0 0 0];

internalField   nonuniform List<vector> 
147960
(
(0 0 0)
(0.000197745 0.000159931 0)
(0.00200849 0.000242385 6.9567e-24)
(0.00246338 0.000828692 -2.32088e-24)
(0.011029 0.025878 1.89005e-25)
(0.0111603 0.0254715 -2.97509e-24)
(0.0111507 0.0249301 3.61816e-24)
(0.0111361 0.0243892 6.91508e-24)
(0.0111167 0.0238482 -5.06512e-24)
(0.0110923 0.0233072 -1.40486e-25)
(0.011063 0.0227663 8.39432e-24)
(0.0110286 0.0222254 -1.66458e-24)
(0.0109893 0.0216847 -1.6952e-25)
(0.0109449 0.0211444 3.51715e-24)
(0.0108956 0.0206045 4.70026e-25)
(0.0108413 0.0200653 3.15459e-24)
(0.010782 0.0195268 6.02667e-24)
(0.0107177 0.0189893 2.52071e-24)
(0.0106484 0.0184529 -6.76413e-24)
(0.0105741 0.0179178 2.603e-24)
(0.0104948 0.0173842 8.54377e-24)
(0.0104104 0.0168524 3.36934e-24)
(0.010321 0.0163224 2.08399e-24)
(0.0102265 0.0157946 -1.89456e-24)
(0.0101269 0.0152693 -3.99422e-25)
(0.0100222 0.0147467 3.83669e-24)
(0.00991225 0.0142272 2.16004e-24)
(0.0097971 0.013711 -4.06573e-25)
(0.00967671 0.0131986 -1.09672e-24)
(0.00955106 0.0126903 -2.38534e-24)
(0.00942014 0.0121865 -1.2733e-24)
(0.00928397 0.0116877 7.3702e-25)
(0.00914254 0.0111943 1.43044e-26)
(0.00899589 0.0107068 -6.91214e-25)
(0.00884407 0.0102256 -7.14429e-26)
(0.00868712 0.00975117 -1.1225e-24)
(0.00852512 0.00928404 1.76489e-25)
(0.00835815 0.00882469 7.21276e-25)
(0.00818629 0.00837358 3.17015e-26)
(0.00800966 0.0079312 -2.13901e-24)
(0.00782835 0.00749802 4.60721e-25)
(0.00764249 0.00707451 2.85454e-24)
(0.00745219 0.00666114 5.70993e-25)
(0.0072576 0.00625836 3.42871e-24)
(0.00705884 0.00586661 2.27123e-24)
(0.00685605 0.00548634 -3.16781e-24)
(0.00664938 0.00511795 -1.72152e-25)
(0.00643898 0.00476184 9.47387e-25)
(0.00622499 0.0044184 -5.61133e-24)
(0.00600759 0.00408799 -6.99706e-24)
(0.00578693 0.00377091 -3.53819e-24)
(0.00556318 0.00346748 2.4845e-24)
(0.00533651 0.00317795 1.58481e-25)
(0.00510711 0.00290255 -3.25114e-25)
(0.00487514 0.00264144 1.3595e-24)
(0.00464079 0.00239478 -4.90563e-24)
(0.00440425 0.00216264 -9.30679e-26)
(0.0041657 0.00194509 2.38968e-25)
(0.00392533 0.00174213 6.21703e-26)
(0.00368332 0.0015537 -6.00965e-24)
(0.00343986 0.00137973 -4.41598e-24)
(0.00319515 0.00122008 2.82854e-24)
(0.00294936 0.00107457 1.9541e-24)
(0.00270268 0.000942981 1.00283e-24)
(0.0100767 0.0260135 -1.27074e-24)
(0.0106224 0.0260134 8.04599e-25)
(0.0091134 0.0258758 5.73933e-24)
(0.00952754 0.0260139 -2.22468e-26)
(0.00219553 0.000359685 4.25026e-24)
(0.00238711 0.000494651 1.88779e-24)
(0.00257687 0.000643818 -2.26841e-24)
(0.00276479 0.000807401 4.86561e-25)
(0.00295084 0.000985573 4.87978e-24)
(0.00313501 0.00117846 2.14252e-24)
(0.00331729 0.00138616 -1.52658e-24)
(0.00349767 0.0016087 9.24273e-24)
(0.00367613 0.00184608 2.34756e-24)
(0.00385266 0.00209825 -5.48591e-24)
(0.00402725 0.00236513 2.88367e-24)
(0.00419988 0.00264658 -2.54226e-25)
(0.00437053 0.00294241 -8.366e-25)
(0.00453919 0.00325243 2.08186e-24)
(0.00470581 0.00357637 -8.38876e-25)
(0.00487037 0.00391395 -1.13087e-24)
(0.00503281 0.00426484 -8.57277e-25)
(0.00519308 0.00462871 -3.7971e-24)
(0.00535112 0.00500519 5.41805e-26)
(0.00550686 0.00539387 2.88667e-24)
(0.00566023 0.00579436 -2.19174e-24)
(0.00581116 0.00620621 1.71513e-25)
(0.00595955 0.00662899 3.87341e-24)
(0.00610533 0.00706225 3.53292e-25)
(0.0062484 0.0075055 1.01898e-24)
(0.00638868 0.00795827 2.50977e-24)
(0.00652609 0.00842008 -7.50408e-25)
(0.00666054 0.00889043 1.73956e-24)
(0.00679195 0.00936881 1.50531e-24)
(0.00692023 0.00985472 -6.66051e-25)
(0.00704531 0.0103477 1.17177e-24)
(0.0071671 0.0108471 -2.70046e-25)
(0.00728554 0.0113526 -1.79497e-25)
(0.00740053 0.0118636 -9.92509e-25)
(0.00751201 0.0123797 -1.32755e-24)
(0.00761991 0.0129004 8.13398e-25)
(0.00772414 0.0134252 1.16321e-25)
(0.00782464 0.0139539 1.40068e-24)
(0.00792134 0.0144859 5.84403e-24)
(0.00801417 0.015021 2.27274e-24)
(0.00810307 0.0155588 1.43024e-24)
(0.00818798 0.016099 1.41937e-24)
(0.00826884 0.0166413 -7.62057e-24)
(0.00834559 0.0171856 -6.49502e-24)
(0.0084182 0.0177316 2.75973e-24)
(0.0084866 0.018279 5.31854e-24)
(0.00855076 0.0188277 -3.63349e-25)
(0.00861063 0.0193776 -8.97798e-24)
(0.00866618 0.0199284 -8.32841e-24)
(0.00871735 0.0204801 -1.4844e-24)
(0.0087641 0.0210323 9.34395e-24)
(0.00880638 0.0215852 1.29478e-23)
(0.00884413 0.0221384 5.03639e-24)
(0.0088773 0.0226919 -2.7626e-24)
(0.00890579 0.0232455 4.27526e-24)
(0.00892954 0.0237993 9.78847e-24)
(0.00894843 0.0243532 -4.0564e-24)
(0.00896249 0.0249071 -1.55531e-23)
(0.00897152 0.0254609 -5.33887e-24)
(0.00844138 0.0217781 0)
(0.00907728 0.0255943 0)
(0.00909352 0.0254051 0)
(0.00909518 0.0252059 0)
(0.00908699 0.0249922 0)
(0.00907107 0.024766 0)
(0.0090484 0.0245277 0)
(0.00901766 0.0242775 0)
(0.00898014 0.024015 0)
(0.00893404 0.0237397 0)
(0.00887907 0.0234509 0)
(0.00881504 0.023148 0)
(0.00873931 0.0228302 0)
(0.00865443 0.0224962 0)
(0.00855481 0.0221461 0)
(0.00155599 0.000549429 0)
(0.00171493 0.000640336 0)
(0.00187901 0.0007429 0)
(0.0020471 0.000857698 0)
(0.00221926 0.000985567 0)
(0.00239487 0.00112685 0)
(0.00257242 0.00128143 0)
(0.00275137 0.00144955 0)
(0.00293137 0.00163142 0)
(0.00311202 0.00182716 0)
(0.00329292 0.00203686 0)
(0.00347372 0.00226053 0)
(0.00365408 0.00249817 0)
(0.0038336 0.00274973 0)
(0.00401195 0.00301513 0)
(0.00418895 0.00329426 0)
(0.00436443 0.00358696 0)
(0.00453815 0.003893 0)
(0.00470984 0.0042122 0)
(0.0048792 0.00454413 0)
(0.00504659 0.00488947 0)
(0.0052119 0.00524786 0)
(0.00537441 0.00561763 0)
(0.00553405 0.00599864 0)
(0.00569073 0.00639061 0)
(0.00584436 0.00679316 0)
(0.00599488 0.00720588 0)
(0.00614216 0.00762832 0)
(0.00628605 0.00806002 0)
(0.00642647 0.00850045 0)
(0.0065634 0.00894911 0)
(0.00669675 0.00940544 0)
(0.00682636 0.00986879 0)
(0.00695212 0.0103386 0)
(0.00707377 0.0108142 0)
(0.00719078 0.0112946 0)
(0.00730312 0.0117805 0)
(0.00741063 0.012272 0)
(0.00751285 0.0127665 0)
(0.00761018 0.0132632 0)
(0.00770315 0.0137613 0)
(0.00779162 0.0142598 0)
(0.00787481 0.0147579 0)
(0.0079524 0.0152549 0)
(0.00802513 0.0157495 0)
(0.00809358 0.0162403 0)
(0.00815669 0.0167262 0)
(0.0082135 0.0172057 0)
(0.0082648 0.0176772 0)
(0.00831169 0.0181386 0)
(0.00835462 0.0185872 0)
(0.00839206 0.019021 0)
(0.00842224 0.0194378 0)
(0.00844597 0.0198343 0)
(0.0084641 0.0202075 0)
(0.00847711 0.0205538 0)
(0.00848516 0.0208699 0)
(0.00848633 0.0211528 0)
(0.00847955 0.0214 0)
(0.00846404 0.0216092 0)
(0.0101064 0.0216729 0)
(0.0102388 0.0220666 0)
(0.0103604 0.022438 0)
(0.0104599 0.0227911 0)
(0.0105518 0.0231245 0)
(0.0106357 0.0234395 0)
(0.0107037 0.0237389 0)
(0.0107676 0.0240214 0)
(0.0108233 0.0242891 0)
(0.0108701 0.0245429 0)
(0.0109146 0.0247821 0)
(0.0109516 0.0250083 0)
(0.0109858 0.0252204 0)
(0.0110182 0.0254169 0)
(0.0110537 0.0256027 0)
(0.0019147 0.00093197 0)
(0.00243486 0.000825222 0)
(0.00240266 0.000827815 0)
(0.00236553 0.00083485 0)
(0.00232504 0.000844742 0)
(0.00228323 0.000855951 0)
(0.00224147 0.000867701 0)
(0.00220031 0.000879185 0)
(0.00215971 0.000889866 0)
(0.00212124 0.000899736 0)
(0.0020848 0.000908606 0)
(0.00204961 0.000916088 0)
(0.00201518 0.000922131 0)
(0.00198165 0.000927039 0)
(0.00194881 0.000930461 0)
(0.0101765 0.0215151 0)
(0.0102343 0.0213176 0)
(0.0102803 0.0210821 0)
(0.0103155 0.0208109 0)
(0.0103395 0.0205069 0)
(0.0103536 0.0201732 0)
(0.010358 0.019813 0)
(0.0103529 0.0194295 0)
(0.010338 0.019026 0)
(0.0103127 0.0186056 0)
(0.0102786 0.0181705 0)
(0.0102371 0.0177229 0)
(0.0101882 0.0172653 0)
(0.0101315 0.0167997 0)
(0.0100665 0.0163279 0)
(0.00999379 0.0158511 0)
(0.00991447 0.0153707 0)
(0.00982821 0.0148879 0)
(0.00973445 0.0144039 0)
(0.00963348 0.0139195 0)
(0.009526 0.0134356 0)
(0.00941226 0.0129529 0)
(0.00929181 0.0124724 0)
(0.0091643 0.0119948 0)
(0.00903019 0.0115226 0)
(0.00888961 0.0110558 0)
(0.00874253 0.0105935 0)
(0.00858951 0.0101369 0)
(0.00843085 0.00968649 0)
(0.00826669 0.00924286 0)
(0.00809723 0.00880662 0)
(0.00792258 0.00837829 0)
(0.00774279 0.00795839 0)
(0.007558 0.00754739 0)
(0.00736842 0.00714576 0)
(0.00717422 0.00675394 0)
(0.00697554 0.00637233 0)
(0.00677253 0.00600127 0)
(0.00656534 0.00564103 0)
(0.00635416 0.00529177 0)
(0.00613991 0.00495501 0)
(0.00592285 0.0046311 0)
(0.00570261 0.00431941 0)
(0.00547962 0.00402031 0)
(0.00525433 0.00373389 0)
(0.00502714 0.00346031 0)
(0.00479833 0.00319969 0)
(0.0045682 0.00295208 0)
(0.00433721 0.00271743 0)
(0.00410598 0.00249566 0)
(0.00387507 0.0022866 0)
(0.00364498 0.00209008 0)
(0.00341625 0.00190586 0)
(0.00318946 0.00173366 0)
(0.0029651 0.00157311 0)
(0.00274384 0.0014238 0)
(0.00252752 0.00128567 0)
(0.00231699 0.00115823 0)
(0.00211219 0.00104052 0)
(0.00215087 0.00104029 0)
(0.00219029 0.00103834 0)
(0.00222977 0.00103476 0)
(0.00226895 0.00102952 0)
(0.00231009 0.00102257 0)
(0.00235163 0.00101434 0)
(0.00239459 0.00100457 0)
(0.00243908 0.000993783 0)
(0.00248317 0.000982448 0)
(0.00252805 0.000970901 0)
(0.00257164 0.000960104 0)
(0.00261303 0.000950659 0)
(0.00265022 0.000944275 0)
(0.00268127 0.00094196 0)
(0.00236105 0.00116002 0)
(0.00240602 0.00115955 0)
(0.00245004 0.00115727 0)
(0.00249424 0.00115311 0)
(0.00254014 0.00114705 0)
(0.00258553 0.00113955 0)
(0.00263251 0.00113034 0)
(0.00267998 0.00112017 0)
(0.00272672 0.00110944 0)
(0.0027737 0.00109858 0)
(0.00281828 0.00108842 0)
(0.00286003 0.00107967 0)
(0.00289691 0.00107397 0)
(0.00292708 0.00107224 0)
(0.00257672 0.00128941 0)
(0.00262688 0.00129093 0)
(0.00267512 0.00129028 0)
(0.00272377 0.00128749 0)
(0.00277317 0.00128254 0)
(0.00282192 0.00127603 0)
(0.00287242 0.00126801 0)
(0.00292208 0.00125885 0)
(0.00297077 0.00124909 0)
(0.00301913 0.00123918 0)
(0.00306425 0.00122999 0)
(0.00310622 0.00122221 0)
(0.00314291 0.00121749 0)
(0.00317291 0.00121678 0)
(0.00279808 0.00142983 0)
(0.0028523 0.00143326 0)
(0.00290396 0.0014345 0)
(0.00295652 0.00143341 0)
(0.00300946 0.00143026 0)
(0.00306062 0.00142503 0)
(0.0031135 0.0014182 0)
(0.00316483 0.00141034 0)
(0.00321468 0.00140186 0)
(0.00326402 0.00139319 0)
(0.00330944 0.00138522 0)
(0.00335149 0.00137868 0)
(0.00338811 0.00137514 0)
(0.00341789 0.00137553 0)
(0.00302334 0.0015814 0)
(0.00308107 0.00158705 0)
(0.00313558 0.00159043 0)
(0.00319144 0.00159132 0)
(0.00324706 0.00159003 0)
(0.00330017 0.00158654 0)
(0.00335491 0.00158133 0)
(0.0034075 0.00157507 0)
(0.00345812 0.00156814 0)
(0.00350806 0.00156095 0)
(0.00355368 0.00155443 0)
(0.00359571 0.00154932 0)
(0.00363216 0.00154709 0)
(0.00366168 0.00154861 0)
(0.00325142 0.00174457 0)
(0.00331227 0.00175271 0)
(0.00336906 0.00175849 0)
(0.00342764 0.0017616 0)
(0.00348546 0.00176243 0)
(0.00353991 0.00176101 0)
(0.00359614 0.00175778 0)
(0.0036497 0.00175338 0)
(0.00370076 0.00174823 0)
(0.00375097 0.00174272 0)
(0.00379666 0.00173781 0)
(0.00383867 0.0017343 0)
(0.00387487 0.00173347 0)
(0.00390403 0.00173616 0)
(0.00348151 0.00191972 0)
(0.00354521 0.00193064 0)
(0.00360378 0.00193907 0)
(0.00366431 0.00194464 0)
(0.00372402 0.00194782 0)
(0.00377962 0.00194881 0)
(0.00383678 0.00194786 0)
(0.00389107 0.00194558 0)
(0.0039424 0.00194239 0)
(0.0039924 0.00193856 0)
(0.0040381 0.00193543 0)
(0.00408013 0.00193379 0)
(0.00411602 0.0019344 0)
(0.00414478 0.00193825 0)
(0.003713 0.0021072 0)
(0.00377921 0.00212117 0)
(0.00383916 0.0021325 0)
(0.00390089 0.00214066 0)
(0.00396214 0.00214642 0)
(0.0040189 0.00215026 0)
(0.00407673 0.00215182 0)
(0.0041313 0.0021519 0)
(0.00418284 0.00215096 0)
(0.00423323 0.00214953 0)
(0.00427852 0.00214805 0)
(0.00431991 0.00214789 0)
(0.00435537 0.00214992 0)
(0.00438371 0.00215494 0)
(0.00394525 0.0023073 0)
(0.00401362 0.00232463 0)
(0.00407487 0.00233919 0)
(0.00413801 0.00235075 0)
(0.00420027 0.00235926 0)
(0.00425732 0.00236565 0)
(0.00431554 0.00236984 0)
(0.00437021 0.00237243 0)
(0.00442165 0.00237389 0)
(0.00447199 0.00237465 0)
(0.00451687 0.00237505 0)
(0.00455779 0.00237656 0)
(0.00459277 0.00238004 0)
(0.00462065 0.00238623 0)
(0.00417775 0.00252022 0)
(0.00424786 0.00254119 0)
(0.00431031 0.00255919 0)
(0.00437436 0.00257406 0)
(0.00443716 0.00258568 0)
(0.00449439 0.00259499 0)
(0.00455282 0.00260196 0)
(0.00460743 0.00260719 0)
(0.00465861 0.00261109 0)
(0.00470864 0.00261409 0)
(0.00475305 0.0026165 0)
(0.00479351 0.00261976 0)
(0.00482801 0.00262471 0)
(0.00485541 0.00263206 0)
(0.00441021 0.00274609 0)
(0.00448149 0.00277092 0)
(0.00454478 0.0027925 0)
(0.00460957 0.00281079 0)
(0.00467272 0.0028258 0)
(0.00472985 0.00283828 0)
(0.00478828 0.0028482 0)
(0.00484267 0.00285615 0)
(0.00489348 0.00286257 0)
(0.0049431 0.00286786 0)
(0.00498695 0.00287236 0)
(0.00502689 0.00287741 0)
(0.00506088 0.00288385 0)
(0.00508779 0.00289237 0)
(0.00464227 0.00298502 0)
(0.00471424 0.0030139 0)
(0.00477764 0.00303902 0)
(0.00484309 0.00306091 0)
(0.00490672 0.00307977 0)
(0.00496356 0.00309554 0)
(0.00502172 0.00310851 0)
(0.0050757 0.00311928 0)
(0.00512602 0.00312827 0)
(0.00517516 0.00313591 0)
(0.0052184 0.00314252 0)
(0.00525777 0.0031494 0)
(0.00529122 0.00315734 0)
(0.00531762 0.003167 0)
(0.00487342 0.00323711 0)
(0.00494599 0.00327032 0)
(0.00500973 0.00329987 0)
(0.00507537 0.00332546 0)
(0.00513874 0.00334765 0)
(0.00519516 0.00336671 0)
(0.00525294 0.00338281 0)
(0.00530635 0.00339645 0)
(0.005356 0.00340807 0)
(0.00540458 0.0034181 0)
(0.00544716 0.00342686 0)
(0.00548595 0.00343558 0)
(0.00551884 0.00344501 0)
(0.00554472 0.00345578 0)
(0.00510313 0.00350238 0)
(0.00517623 0.00354001 0)
(0.00523985 0.00357377 0)
(0.00530533 0.00360336 0)
(0.00536839 0.00362924 0)
(0.00542426 0.00365171 0)
(0.0054816 0.00367097 0)
(0.00553436 0.00368753 0)
(0.00558326 0.0037018 0)
(0.00563117 0.00371424 0)
(0.00567306 0.00372518 0)
(0.00571124 0.00373573 0)
(0.00574356 0.00374663 0)
(0.00576892 0.0037585 0)
(0.00533091 0.00378075 0)
(0.00540417 0.00382262 0)
(0.00546763 0.00386068 0)
(0.005533 0.00389472 0)
(0.00559556 0.00392442 0)
(0.00565067 0.00395036 0)
(0.00570744 0.00397283 0)
(0.00575947 0.00399231 0)
(0.00580756 0.00400925 0)
(0.00585477 0.00402411 0)
(0.00589594 0.00403723 0)
(0.0059335 0.00404962 0)
(0.00596521 0.00406197 0)
(0.00599003 0.0040749 0)
(0.00555657 0.00407225 0)
(0.00563033 0.00411932 0)
(0.00569346 0.0041617 0)
(0.00575816 0.00419955 0)
(0.00582006 0.00423303 0)
(0.00587425 0.00426248 0)
(0.00593029 0.00428819 0)
(0.00598148 0.00431058 0)
(0.00602865 0.00433011 0)
(0.00607516 0.00434739 0)
(0.00611563 0.00436276 0)
(0.00615254 0.00437698 0)
(0.00618363 0.00439075 0)
(0.00620788 0.00440469 0)
(0.00577977 0.00437656 0)
(0.00585357 0.00442855 0)
(0.00591622 0.0044755 0)
(0.00598038 0.00451753 0)
(0.00604158 0.00455487 0)
(0.0060948 0.00458786 0)
(0.00615 0.00461682 0)
(0.00620023 0.00464212 0)
(0.00624621 0.00466391 0)
(0.00629211 0.00468366 0)
(0.00633198 0.00470152 0)
(0.0063682 0.00471751 0)
(0.00639864 0.00473264 0)
(0.00642233 0.00474754 0)
(0.00599992 0.00469315 0)
(0.00607381 0.00475019 0)
(0.006136 0.00480214 0)
(0.00619949 0.00484845 0)
(0.0062599 0.00488969 0)
(0.00631208 0.00492626 0)
(0.00636643 0.00495853 0)
(0.00641575 0.00498691 0)
(0.00646112 0.00501195 0)
(0.00650615 0.0050338 0)
(0.00654488 0.00505329 0)
(0.00658032 0.00507089 0)
(0.00661009 0.0050873 0)
(0.00663319 0.00510311 0)
(0.00621755 0.00502321 0)
(0.00629144 0.00508533 0)
(0.0063526 0.00514155 0)
(0.00641531 0.00519205 0)
(0.00647485 0.00523719 0)
(0.00652593 0.00527735 0)
(0.00657937 0.00531294 0)
(0.00662775 0.00534438 0)
(0.00667219 0.00537214 0)
(0.0067163 0.00539622 0)
(0.00675408 0.00541756 0)
(0.00678872 0.00543672 0)
(0.00681781 0.00545435 0)
(0.00684033 0.00547101 0)
(0.00643162 0.00536513 0)
(0.00650533 0.00543253 0)
(0.00656561 0.00549328 0)
(0.00662755 0.00554799 0)
(0.00668621 0.00559703 0)
(0.00673615 0.00564077 0)
(0.00678862 0.00567963 0)
(0.00683596 0.00571402 0)
(0.00687935 0.00574436 0)
(0.00692255 0.0057707 0)
(0.0069594 0.00579392 0)
(0.00699326 0.00581461 0)
(0.00702166 0.0058334 0)
(0.00704359 0.00585085 0)
(0.00664253 0.00571976 0)
(0.00671543 0.00579172 0)
(0.00677474 0.00585697 0)
(0.00683591 0.00591588 0)
(0.00689368 0.0059688 0)
(0.00694245 0.00601609 0)
(0.00699392 0.00605817 0)
(0.00704017 0.00609543 0)
(0.00708248 0.00612831 0)
(0.00712476 0.00615688 0)
(0.00716069 0.00618195 0)
(0.00719377 0.00620413 0)
(0.00722149 0.00622403 0)
(0.00724282 0.00624221 0)
(0.00684925 0.00608544 0)
(0.0069215 0.00616234 0)
(0.0069798 0.00623217 0)
(0.00704012 0.00629532 0)
(0.00709696 0.00635212 0)
(0.00714456 0.00640291 0)
(0.00719504 0.00644814 0)
(0.00724019 0.0064882 0)
(0.00728144 0.00652357 0)
(0.0073228 0.00655435 0)
(0.0073578 0.00658125 0)
(0.0073901 0.00660486 0)
(0.00741714 0.00662581 0)
(0.00743788 0.00664466 0)
(0.00705178 0.00646205 0)
(0.00712336 0.00654403 0)
(0.00718057 0.00661851 0)
(0.00723998 0.00668591 0)
(0.00729587 0.00674657 0)
(0.00734231 0.00680083 0)
(0.00739178 0.00684912 0)
(0.00743583 0.00689186 0)
(0.00747604 0.00692968 0)
(0.00751653 0.0069627 0)
(0.00755061 0.0069914 0)
(0.00758212 0.00701637 0)
(0.00760848 0.0070383 0)
(0.00762863 0.00705776 0)
(0.00724996 0.00684929 0)
(0.00732086 0.00693641 0)
(0.00737695 0.00701559 0)
(0.00743542 0.00708724 0)
(0.00749031 0.00715175 0)
(0.00753556 0.00720947 0)
(0.007584 0.00726076 0)
(0.00762678 0.00730572 0)
(0.00766607 0.00734605 0)
(0.00770583 0.00738157 0)
(0.00773898 0.00741197 0)
(0.00776971 0.00743822 0)
(0.00779539 0.00746104 0)
(0.00781495 0.00748104 0)
(0.00744368 0.00724679 0)
(0.0075139 0.00733908 0)
(0.00756888 0.00742299 0)
(0.00762637 0.00749891 0)
(0.00768022 0.00756726 0)
(0.00772427 0.00762845 0)
(0.00777177 0.0076829 0)
(0.00781377 0.0077312 0)
(0.00785201 0.00777366 0)
(0.00789062 0.00781063 0)
(0.00792281 0.00784252 0)
(0.00795274 0.00786994 0)
(0.00797774 0.00789358 0)
(0.00799672 0.00791405 0)
(0.00763279 0.00765414 0)
(0.00770236 0.00775163 0)
(0.00775624 0.00784028 0)
(0.00781276 0.00792046 0)
(0.00786555 0.00799264 0)
(0.00790838 0.00805728 0)
(0.00795488 0.00811481 0)
(0.00799587 0.00816584 0)
(0.00803305 0.00821052 0)
(0.00807071 0.00824924 0)
(0.00810196 0.00828255 0)
(0.0081311 0.00831106 0)
(0.00815542 0.00833544 0)
(0.00817381 0.00835631 0)
(0.00781709 0.00807089 0)
(0.007886 0.0081736 0)
(0.00793881 0.00826699 0)
(0.0079944 0.00835142 0)
(0.00804616 0.00842738 0)
(0.00808773 0.00849536 0)
(0.00813315 0.00855577 0)
(0.00817305 0.00860939 0)
(0.00820923 0.00865636 0)
(0.008246 0.00869688 0)
(0.00827633 0.00873158 0)
(0.00830469 0.00876109 0)
(0.00832831 0.00878613 0)
(0.00834612 0.00880735 0)
(0.00799637 0.00849657 0)
(0.0080646 0.00860452 0)
(0.00811637 0.00870266 0)
(0.00817107 0.00879131 0)
(0.00822185 0.00887101 0)
(0.00826217 0.00894224 0)
(0.00830633 0.009005 0)
(0.00834525 0.0090613 0)
(0.00838052 0.00911089 0)
(0.00841639 0.00915313 0)
(0.00844582 0.00918913 0)
(0.00847339 0.00921956 0)
(0.00849631 0.00924519 0)
(0.00851354 0.00926668 0)
(0.00817054 0.00893071 0)
(0.00823811 0.00904389 0)
(0.00828881 0.00914679 0)
(0.00834263 0.00923966 0)
(0.00839248 0.0093231 0)
(0.00843169 0.00939776 0)
(0.0084751 0.00946406 0)
(0.00851293 0.00952271 0)
(0.00854692 0.0095738 0)
(0.00858182 0.00961753 0)
(0.00861032 0.00965472 0)
(0.00863711 0.00968599 0)
(0.00865934 0.00971213 0)
(0.00867599 0.00973383 0)
(0.00833958 0.00937279 0)
(0.00840648 0.00949121 0)
(0.0084561 0.00959886 0)
(0.00850902 0.00969593 0)
(0.00855794 0.00978307 0)
(0.00859605 0.00986104 0)
(0.00863856 0.00993032 0)
(0.00867534 0.00999144 0)
(0.00870823 0.0100444 0)
(0.00874218 0.0100896 0)
(0.00876976 0.0101279 0)
(0.00879576 0.0101599 0)
(0.00881731 0.0101865 0)
(0.00883337 0.0102083 0)
(0.00850334 0.00982226 0)
(0.0085696 0.00994593 0)
(0.00861816 0.0100583 0)
(0.00867018 0.0101596 0)
(0.00871811 0.0102503 0)
(0.00875495 0.0103311 0)
(0.00879667 0.0104034 0)
(0.00883253 0.0104674 0)
(0.00886437 0.0105222 0)
(0.00889739 0.0105688 0)
(0.00892405 0.0106081 0)
(0.00894928 0.0106408 0)
(0.00897014 0.0106677 0)
(0.00898563 0.0106896 0)
(0.00866161 0.0102786 0)
(0.00872725 0.0104075 0)
(0.0087748 0.0105247 0)
(0.00882595 0.0106301 0)
(0.00887296 0.0107246 0)
(0.00890896 0.0108094 0)
(0.00894983 0.0108846 0)
(0.00898447 0.0109503 0)
(0.00901525 0.0110068 0)
(0.00904737 0.0110546 0)
(0.00907313 0.0110949 0)
(0.0090976 0.0111282 0)
(0.00911779 0.0111554 0)
(0.0091327 0.0111773 0)
(0.00881422 0.0107411 0)
(0.00887926 0.0108754 0)
(0.00892583 0.0109973 0)
(0.00897611 0.0111069 0)
(0.0090221 0.0112047 0)
(0.00905726 0.0112934 0)
(0.00909739 0.0113718 0)
(0.00913102 0.0114396 0)
(0.0091608 0.0114977 0)
(0.00919204 0.0115467 0)
(0.00921693 0.0115878 0)
(0.00924067 0.0116216 0)
(0.0092602 0.011649 0)
(0.00927455 0.011671 0)
(0.00896089 0.0112093 0)
(0.00902538 0.0113489 0)
(0.00907101 0.0114757 0)
(0.00912038 0.0115892 0)
(0.00916595 0.0116921 0)
(0.00920034 0.0117847 0)
(0.00923946 0.0118651 0)
(0.00927214 0.0119348 0)
(0.00930098 0.0119944 0)
(0.00933139 0.0120445 0)
(0.00935545 0.0120864 0)
(0.00937845 0.0121206 0)
(0.00939735 0.0121482 0)
(0.00941115 0.01217 0)
(0.00910123 0.0116826 0)
(0.00916529 0.0118277 0)
(0.00921006 0.0119593 0)
(0.0092592 0.0120786 0)
(0.00930432 0.012186 0)
(0.00933768 0.0122811 0)
(0.009376 0.0123638 0)
(0.00940781 0.0124353 0)
(0.0094358 0.0124965 0)
(0.00946543 0.0125476 0)
(0.00948866 0.0125902 0)
(0.00951095 0.0126248 0)
(0.00952921 0.0126524 0)
(0.00954247 0.0126741 0)
(0.00923491 0.01216 0)
(0.00929878 0.0123111 0)
(0.00934342 0.0124495 0)
(0.0093924 0.012574 0)
(0.00943681 0.0126845 0)
(0.00946937 0.0127824 0)
(0.00950701 0.0128674 0)
(0.00953804 0.0129408 0)
(0.00956524 0.0130033 0)
(0.00959412 0.0130555 0)
(0.00961656 0.0130988 0)
(0.00963815 0.0131336 0)
(0.00965579 0.0131613 0)
(0.00966852 0.0131827 0)
(0.00936273 0.012645 0)
(0.0094267 0.0128021 0)
(0.009471 0.0129453 0)
(0.0095196 0.0130733 0)
(0.00956357 0.0131872 0)
(0.00959545 0.013288 0)
(0.00963248 0.0133753 0)
(0.00966279 0.0134506 0)
(0.00968925 0.0135146 0)
(0.00971744 0.0135678 0)
(0.00973914 0.0136117 0)
(0.00976005 0.0136468 0)
(0.00977708 0.0136744 0)
(0.00978929 0.0136955 0)
(0.00948368 0.0131325 0)
(0.00954809 0.0132956 0)
(0.00959242 0.0134437 0)
(0.00964097 0.013576 0)
(0.00968461 0.0136934 0)
(0.00971588 0.0137973 0)
(0.00975234 0.013887 0)
(0.00978198 0.0139644 0)
(0.00980777 0.0140299 0)
(0.00983535 0.014084 0)
(0.00985637 0.0141285 0)
(0.00987666 0.0141638 0)
(0.0098931 0.0141913 0)
(0.00990482 0.0142121 0)
(0.00959829 0.0136221 0)
(0.00966336 0.0137911 0)
(0.00970782 0.0139446 0)
(0.00975635 0.0140813 0)
(0.00979971 0.0142025 0)
(0.00983048 0.0143098 0)
(0.00986652 0.0144022 0)
(0.00989561 0.0144816 0)
(0.00992083 0.0145487 0)
(0.00994787 0.0146038 0)
(0.00996828 0.0146488 0)
(0.00998799 0.0146843 0)
(0.0100039 0.0147116 0)
(0.0100151 0.0147321 0)
(0.00970675 0.0141131 0)
(0.00977238 0.0142883 0)
(0.00981687 0.0144474 0)
(0.00986545 0.0145889 0)
(0.00990874 0.0147142 0)
(0.00993928 0.014825 0)
(0.00997509 0.0149202 0)
(0.0100038 0.0150018 0)
(0.0100285 0.0150705 0)
(0.010055 0.0151268 0)
(0.0100749 0.0151724 0)
(0.0100941 0.015208 0)
(0.0101094 0.0152351 0)
(0.0101202 0.0152552 0)
(0.00980855 0.0146047 0)
(0.00987462 0.0147865 0)
(0.00991933 0.0149515 0)
(0.00996829 0.0150981 0)
(0.0100118 0.0152278 0)
(0.0100424 0.0153423 0)
(0.0100781 0.0154406 0)
(0.0101064 0.0155246 0)
(0.0101308 0.0155951 0)
(0.0101569 0.0156525 0)
(0.0101762 0.0156987 0)
(0.0101949 0.0157345 0)
(0.0102098 0.0157614 0)
(0.0102201 0.015781 0)
(0.00990311 0.0150963 0)
(0.00997 0.015285 0)
(0.0100154 0.0154563 0)
(0.0100651 0.0156083 0)
(0.010109 0.0157427 0)
(0.0101396 0.0158613 0)
(0.0101754 0.0159628 0)
(0.0102035 0.0160495 0)
(0.0102276 0.0161219 0)
(0.0102534 0.0161806 0)
(0.0102723 0.0162276 0)
(0.0102905 0.0162635 0)
(0.010305 0.0162902 0)
(0.0103149 0.0163094 0)
(0.0099907 0.0155871 0)
(0.010059 0.015783 0)
(0.0101054 0.0159608 0)
(0.0101558 0.0161187 0)
(0.0102001 0.0162583 0)
(0.0102309 0.0163813 0)
(0.0102668 0.0164864 0)
(0.0102951 0.016576 0)
(0.010319 0.0166507 0)
(0.0103445 0.0167107 0)
(0.0103631 0.0167585 0)
(0.0103809 0.0167947 0)
(0.010395 0.0168212 0)
(0.0104046 0.0168399 0)
(0.0100719 0.0160759 0)
(0.0101417 0.0162793 0)
(0.0101888 0.0164643 0)
(0.0102398 0.0166285 0)
(0.0102848 0.0167737 0)
(0.0103162 0.0169016 0)
(0.0103527 0.0170108 0)
(0.010381 0.0171036 0)
(0.0104049 0.0171808 0)
(0.0104304 0.0172425 0)
(0.0104487 0.0172913 0)
(0.0104662 0.0173278 0)
(0.01048 0.0173542 0)
(0.0104892 0.0173724 0)
(0.0101463 0.0165614 0)
(0.0102171 0.0167731 0)
(0.0102651 0.0169658 0)
(0.0103175 0.0171369 0)
(0.0103638 0.0172881 0)
(0.0103958 0.0174215 0)
(0.0104327 0.0175352 0)
(0.0104613 0.0176318 0)
(0.0104853 0.0177119 0)
(0.0105109 0.0177756 0)
(0.010529 0.0178256 0)
(0.0105464 0.0178626 0)
(0.0105598 0.0178889 0)
(0.0105688 0.0179066 0)
(0.0102129 0.0170427 0)
(0.0102853 0.0172632 0)
(0.0103351 0.017464 0)
(0.0103893 0.0176425 0)
(0.0104365 0.0178006 0)
(0.0104691 0.01794 0)
(0.0105066 0.018059 0)
(0.0105359 0.01816 0)
(0.0105604 0.0182434 0)
(0.0105861 0.0183096 0)
(0.0106042 0.0183611 0)
(0.0106214 0.0183988 0)
(0.0106346 0.0184251 0)
(0.0106433 0.0184423 0)
(0.0102718 0.0175182 0)
(0.0103467 0.0177481 0)
(0.0103989 0.0179576 0)
(0.0104543 0.0181443 0)
(0.0105023 0.01831 0)
(0.010536 0.0184564 0)
(0.010575 0.0185812 0)
(0.010605 0.0186872 0)
(0.0106299 0.0187747 0)
(0.0106558 0.0188439 0)
(0.010674 0.0188974 0)
(0.0106913 0.0189361 0)
(0.0107043 0.0189625 0)
(0.0107128 0.0189793 0)
(0.0103236 0.0179863 0)
(0.0104017 0.0182258 0)
(0.0104554 0.018445 0)
(0.0105116 0.018641 0)
(0.0105615 0.0188151 0)
(0.0105974 0.018969 0)
(0.0106375 0.0191007 0)
(0.010668 0.0192127 0)
(0.0106934 0.0193052 0)
(0.01072 0.0193781 0)
(0.0107387 0.0194342 0)
(0.010756 0.0194742 0)
(0.010769 0.019501 0)
(0.0107773 0.0195174 0)
(0.0103687 0.0184446 0)
(0.010449 0.0186948 0)
(0.0105034 0.0189247 0)
(0.0105622 0.0191306 0)
(0.0106153 0.0193138 0)
(0.0106525 0.0194766 0)
(0.0106931 0.0196164 0)
(0.0107248 0.0197355 0)
(0.0107515 0.0198339 0)
(0.0107791 0.0199114 0)
(0.0107981 0.0199708 0)
(0.0108155 0.0200128 0)
(0.0108286 0.0200403 0)
(0.0108368 0.0200565 0)
(0.0104059 0.0188912 0)
(0.010487 0.0191532 0)
(0.0105442 0.0193943 0)
(0.0106074 0.0196106 0)
(0.0106619 0.0198044 0)
(0.0106997 0.0199774 0)
(0.0107425 0.0201265 0)
(0.0107762 0.0202539 0)
(0.0108044 0.0203595 0)
(0.0108325 0.020443 0)
(0.0108518 0.0205068 0)
(0.0108699 0.0205515 0)
(0.0108831 0.0205801 0)
(0.0108912 0.0205964 0)
(0.0104331 0.0193241 0)
(0.0105169 0.0195982 0)
(0.0105792 0.0198509 0)
(0.0106446 0.0200791 0)
(0.0106999 0.0202846 0)
(0.0107407 0.0204689 0)
(0.0107859 0.0206287 0)
(0.0108216 0.0207659 0)
(0.0108507 0.0208806 0)
(0.0108795 0.0209717 0)
(0.0109003 0.0210413 0)
(0.0109192 0.0210897 0)
(0.0109326 0.0211203 0)
(0.0109407 0.0211368 0)
(0.010451 0.0197401 0)
(0.0105402 0.0200266 0)
(0.0106056 0.020292 0)
(0.0106725 0.0205329 0)
(0.0107312 0.0207512 0)
(0.0107745 0.0209482 0)
(0.0108226 0.0211201 0)
(0.0108597 0.0212694 0)
(0.0108899 0.0213952 0)
(0.0109214 0.0214957 0)
(0.0109436 0.021573 0)
(0.010963 0.0216269 0)
(0.0109768 0.0216604 0)
(0.0109851 0.0216777 0)
(0.0104606 0.0201364 0)
(0.0105547 0.0204354 0)
(0.0106228 0.0207139 0)
(0.0106925 0.0209686 0)
(0.0107538 0.0212007 0)
(0.010801 0.0214113 0)
(0.0108514 0.0215974 0)
(0.0108895 0.0217609 0)
(0.0109234 0.0218998 0)
(0.0109572 0.0220125 0)
(0.0109802 0.0221003 0)
(0.0110009 0.022162 0)
(0.0110159 0.0222 0)
(0.0110245 0.0222187 0)
(0.0104612 0.0205092 0)
(0.0105602 0.0208208 0)
(0.0106305 0.0211133 0)
(0.0107023 0.0213821 0)
(0.0107692 0.0216282 0)
(0.0108192 0.0218541 0)
(0.0108699 0.0220562 0)
(0.0109126 0.0222354 0)
(0.0109496 0.0223902 0)
(0.0109846 0.0225186 0)
(0.0110102 0.0226202 0)
(0.0110334 0.022693 0)
(0.0110498 0.0227382 0)
(0.0110588 0.0227598 0)
(0.0104529 0.0208549 0)
(0.0105548 0.0211796 0)
(0.0106269 0.0214857 0)
(0.0107052 0.0217681 0)
(0.0107752 0.0220292 0)
(0.0108253 0.0222713 0)
(0.0108812 0.0224899 0)
(0.0109275 0.0226869 0)
(0.0109657 0.0228607 0)
(0.0110041 0.023008 0)
(0.0110336 0.0231278 0)
(0.0110593 0.0232166 0)
(0.0110775 0.0232734 0)
(0.011088 0.0233005 0)
(0.0104336 0.0211705 0)
(0.0105378 0.0215075 0)
(0.0106153 0.0218263 0)
(0.0106975 0.0221223 0)
(0.0107688 0.0223981 0)
(0.0108234 0.0226561 0)
(0.0108828 0.0228918 0)
(0.0109306 0.0231079 0)
(0.0109721 0.0233024 0)
(0.0110147 0.0234719 0)
(0.0110472 0.0236152 0)
(0.0110764 0.0237267 0)
(0.0110988 0.0238021 0)
(0.0111119 0.0238399 0)
(0.0104031 0.0214522 0)
(0.0105106 0.0218006 0)
(0.0105923 0.0221311 0)
(0.0106788 0.0224393 0)
(0.010753 0.0227289 0)
(0.0108102 0.0230016 0)
(0.0108727 0.0232537 0)
(0.0109227 0.0234886 0)
(0.0109674 0.0237042 0)
(0.0110129 0.023898 0)
(0.0110488 0.0240691 0)
(0.0110834 0.0242107 0)
(0.0111115 0.0243157 0)
(0.0111294 0.024375 0)
(0.0103611 0.0216971 0)
(0.0104716 0.0220553 0)
(0.0105594 0.0223956 0)
(0.0106488 0.0227146 0)
(0.0107246 0.0230159 0)
(0.0107865 0.0233009 0)
(0.0108507 0.0235674 0)
(0.010902 0.0238185 0)
(0.0109494 0.0240531 0)
(0.0109967 0.0242699 0)
(0.0110354 0.0244691 0)
(0.0110746 0.0246457 0)
(0.011109 0.024793 0)
(0.0111366 0.0248952 0)
(0.0103075 0.0219023 0)
(0.0104219 0.0222685 0)
(0.0105144 0.0226166 0)
(0.0106073 0.0229438 0)
(0.0106858 0.0232539 0)
(0.0107504 0.0235482 0)
(0.0108162 0.0238249 0)
(0.0108684 0.0240878 0)
(0.0109173 0.0243358 0)
(0.010964 0.0245693 0)