/*--------------------------------*- C++ -*----------------------------------*\
| =========                 |                                                 |
| \\      /  F ield         | OpenFOAM Extend Project: Open source CFD        |
|  \\    /   O peration     | Version:  1.6-ext                               |
|   \\  /    A nd           | Web:      www.extend-project.de                 |
|    \\/     M anipulation  |                                                 |
\*---------------------------------------------------------------------------*/
FoamFile
{
    version     2.0;
    format      ascii;
    class       volScalarField;
    location    "0.6";
    object      p;
}
// * * * * * * * * * * * * * * * * * * * * * * * * * * * * * * * * * * * * * //

dimensions      [0 2 -2 0 0 0 0];

internalField   nonuniform List<scalar> 
20940
(
-0.129473
-0.172946
-0.218579
-0.266636
-0.316556
-0.368408
-0.421684
-0.475906
-0.530214
-0.583491
-0.634376
-0.681464
-0.723554
-0.759902
-0.790345
-0.815284
-0.835522
-0.852056
-0.865808
-0.877557
-0.888825
-0.900784
-0.157666
-0.199964
-0.244596
-0.291036
-0.339053
-0.388479
-0.438781
-0.489349
-0.539242
-0.587333
-0.632386
-0.673279
-0.709222
-0.739911
-0.765542
-0.786713
-0.804241
-0.81899
-0.831671
-0.842825
-0.853721
-0.865335
-0.182233
-0.223135
-0.266476
-0.311048
-0.356896
-0.403612
-0.450634
-0.497234
-0.542443
-0.585197
-0.624468
-0.659476
-0.689834
-0.7156
-0.737214
-0.755348
-0.770745
-0.784097
-0.795907
-0.806506
-0.816931
-0.827981
-0.205456
-0.244754
-0.286537
-0.328976
-0.372354
-0.416023
-0.459402
-0.501678
-0.54192
-0.579213
-0.612813
-0.642305
-0.667658
-0.689198
-0.707483
-0.723163
-0.73685
-0.749052
-0.760087
-0.770122
-0.78
-0.790395
-0.227006
-0.264603
-0.304668
-0.344812
-0.38552
-0.425904
-0.465387
-0.503121
-0.538297
-0.570225
-0.598491
-0.623018
-0.644057
-0.662086
-0.677682
-0.691399
-0.703698
-0.714915
-0.725218
-0.734653
-0.743911
-0.753575
-0.247162
-0.282999
-0.321214
-0.358913
-0.39675
-0.433625
-0.469008
-0.502091
-0.532264
-0.559122
-0.582569
-0.60281
-0.620268
-0.635469
-0.648928
-0.661074
-0.672215
-0.682547
-0.692124
-0.700912
-0.709479
-0.718345
-0.266082
-0.300104
-0.336347
-0.371472
-0.406274
-0.439482
-0.470671
-0.49915
-0.524572
-0.546825
-0.566091
-0.582761
-0.59733
-0.610289
-0.62205
-0.632907
-0.643039
-0.652533
-0.66137
-0.669464
-0.677285
-0.685305
-0.284039
-0.316291
-0.350496
-0.382935
-0.414547
-0.443962
-0.47094
-0.494979
-0.516026
-0.534234
-0.549982
-0.56375
-0.576021
-0.5872
-0.597581
-0.607339
-0.616551
-0.625228
-0.633305
-0.640668
-0.647706
-0.654856
-0.30098
-0.331402
-0.363445
-0.393101
-0.421445
-0.447085
-0.470022
-0.489979
-0.507184
-0.521985
-0.534875
-0.54634
-0.556795
-0.566545
-0.575772
-0.584558
-0.592906
-0.600778
-0.608083
-0.614697
-0.62094
-0.627216
-0.317243
-0.34596
-0.37581
-0.402604
-0.4276
-0.449502
-0.468604
-0.48487
-0.498754
-0.510726
-0.521305
-0.530926
-0.539915
-0.548472
-0.556692
-0.564583
-0.572103
-0.579181
-0.585716
-0.591584
-0.597041
-0.602465
-0.332283
-0.359112
-0.38659
-0.410537
-0.432319
-0.450807
-0.466547
-0.479712
-0.490902
-0.500632
-0.509396
-0.517555
-0.525346
-0.532887
-0.540207
-0.547268
-0.553996
-0.560306
-0.566094
-0.571239
-0.575945
-0.580558
-0.346851
-0.372015
-0.397202
-0.418302
-0.436917
-0.452184
-0.464887
-0.47537
-0.484296
-0.492174
-0.499433
-0.506353
-0.513095
-0.519713
-0.526189
-0.532455
-0.538421
-0.54399
-0.549062
-0.553521
-0.557524
-0.561385
-0.358916
-0.382186
-0.404817
-0.423457
-0.439418
-0.452187
-0.462599
-0.47111
-0.478379
-0.484882
-0.490985
-0.496911
-0.502764
-0.508565
-0.514269
-0.519796
-0.525048
-0.529926
-0.534334
-0.538165
-0.541534
-0.544721
-0.371778
-0.393279
-0.413656
-0.429824
-0.443179
-0.453578
-0.461873
-0.468606
-0.474388
-0.479645
-0.484677
-0.489651
-0.494632
-0.499613
-0.504537
-0.509316
-0.51385
-0.518043
-0.521803
-0.525033
-0.527813
-0.530399
-0.377146
-0.398517
-0.41608
-0.430896
-0.442683
-0.45191
-0.459158
-0.465008
-0.469991
-0.474501
-0.478808
-0.483065
-0.487338
-0.491625
-0.495876
-0.500013
-0.50394
-0.507564
-0.510797
-0.513545
-0.515856
-0.517951
-0.392891
-0.411041
-0.425591
-0.437918
-0.447338
-0.454572
-0.460154
-0.464648
-0.468511
-0.472067
-0.47552
-0.478981
-0.482486
-0.48602
-0.489532
-0.492949
-0.496185
-0.499157
-0.501789
-0.504004
-0.50583
-0.50744
-0.414466
-0.428523
-0.438115
-0.446437
-0.452542
-0.457439
-0.461385
-0.46478
-0.467855
-0.470778
-0.473645
-0.476501
-0.479356
-0.482188
-0.484956
-0.487603
-0.490067
-0.492291
-0.494221
-0.495813
-0.497099
-0.498215
-0.424665
-0.436583
-0.443374
-0.449916
-0.454475
-0.458342
-0.461473
-0.464228
-0.466728
-0.469096
-0.471395
-0.473661
-0.4759
-0.478099
-0.480227
-0.482243
-0.4841
-0.485754
-0.487169
-0.488312
-0.48921
-0.489953
-0.432005
-0.442156
-0.446843
-0.452084
-0.455499
-0.458595
-0.461097
-0.46334
-0.465369
-0.467276
-0.4691
-0.470868
-0.472588
-0.47425
-0.475835
-0.477313
-0.478651
-0.479819
-0.48079
-0.481547
-0.482106
-0.48253
-0.436054
-0.44468
-0.448216
-0.452617
-0.455384
-0.457992
-0.460081
-0.461948
-0.46361
-0.465138
-0.466567
-0.467922
-0.469211
-0.470432
-0.471573
-0.472614
-0.47353
-0.4743
-0.474906
-0.475341
-0.475607
-0.475745
-0.437976
-0.445238
-0.448276
-0.452046
-0.454444
-0.456701
-0.458503
-0.460089
-0.461472
-0.462711
-0.463837
-0.464871
-0.465826
-0.466703
-0.467494
-0.468185
-0.46876
-0.469202
-0.469501
-0.469653
-0.46965
-0.469507
-0.438107
-0.444227
-0.447168
-0.450495
-0.452729
-0.454769
-0.456404
-0.457814
-0.459017
-0.460062
-0.460979
-0.461787
-0.462501
-0.463122
-0.463649
-0.46407
-0.464374
-0.464548
-0.464586
-0.46449
-0.46423
-0.463806
-0.436853
-0.442138
-0.445174
-0.448241
-0.450449
-0.452395
-0.453969
-0.4553
-0.456415
-0.457357
-0.458151
-0.458819
-0.459373
-0.459818
-0.460153
-0.460372
-0.460464
-0.460421
-0.460238
-0.459922
-0.459421
-0.458716
-0.434644
-0.439408
-0.442619
-0.445595
-0.447877
-0.449837
-0.451441
-0.45278
-0.453888
-0.454802
-0.455549
-0.456147
-0.456609
-0.456943
-0.457147
-0.457219
-0.457151
-0.456936
-0.456572
-0.456066
-0.455347
-0.454379
-0.431966
-0.436483
-0.439895
-0.442911
-0.445335
-0.447392
-0.449092
-0.450506
-0.451669
-0.452614
-0.453368
-0.453951
-0.454375
-0.454647
-0.454771
-0.454744
-0.454561
-0.454218
-0.453714
-0.453058
-0.452159
-0.450966
-0.429305
-0.433782
-0.437403
-0.440546
-0.443148
-0.445353
-0.447191
-0.44872
-0.449976
-0.450991
-0.451791
-0.452395
-0.452818
-0.453067
-0.453149
-0.453063
-0.452809
-0.452383
-0.451787
-0.451032
-0.450012
-0.448661
-0.426992
-0.43156
-0.435384
-0.438697
-0.44149
-0.443865
-0.445859
-0.447524
-0.448895
-0.450003
-0.450874
-0.451527
-0.451977
-0.452234
-0.452305
-0.452197
-0.451911
-0.451449
-0.450818
-0.450029
-0.44897
-0.447564
-0.425375
-0.430111
-0.434128
-0.437623
-0.440603
-0.443147
-0.445298
-0.447102
-0.448596
-0.44981
-0.450767
-0.451487
-0.451986
-0.452273
-0.452361
-0.452259
-0.451975
-0.451519
-0.450906
-0.450152
-0.449155
-0.447837
-0.424323
-0.429227
-0.433387
-0.43703
-0.440155
-0.442838
-0.44512
-0.447047
-0.448653
-0.449967
-0.451012
-0.451806
-0.452362
-0.452692
-0.452808
-0.452726
-0.452463
-0.45204
-0.451487
-0.450839
-0.450034
-0.449005
-0.424274
-0.42936
-0.433706
-0.437528
-0.440828
-0.443676
-0.44612
-0.448207
-0.449974
-0.451451
-0.452659
-0.45361
-0.454312
-0.454766
-0.454976
-0.454946
-0.454692
-0.454241
-0.453642
-0.45297
-0.452294
-0.451691
1.23991
1.29075
1.34153
1.39214
1.44217
1.49121
1.53885
1.58471
1.62839
1.66951
1.70772
1.74267
1.77407
1.8017
1.82542
1.84529
1.86166
1.87523
1.88697
1.89811
1.91151
1.92908
1.23137
1.28189
1.33202
1.38197
1.4313
1.47959
1.52646
1.57152
1.61437
1.65464
1.69197
1.72604
1.75656
1.78329
1.80613
1.82517
1.84076
1.85366
1.86486
1.87565
1.88886
1.90637
1.21082
1.26064
1.30946
1.35814
1.40615
1.45307
1.49853
1.54212
1.58347
1.6222
1.65796
1.69042
1.7193
1.74439
1.76559
1.78303
1.79713
1.80872
1.81889
1.82897
1.84181
1.85918
1.18149
1.23024
1.27709
1.32382
1.3698
1.41459
1.45784
1.49915
1.53815
1.57448
1.60778
1.63774
1.66408
1.68661
1.70528
1.72025
1.73205
1.74162
1.7502
1.75918
1.77142
1.78853
1.14271
1.19004
1.2343
1.27851
1.32185
1.36389
1.40428
1.44265
1.47861
1.51182
1.54193
1.56862
1.59165
1.61083
1.62616
1.63788
1.64664
1.65354
1.65998
1.66749
1.67891
1.69565
1.09621
1.14175
1.18284
1.22396
1.26407
1.30273
1.33963
1.37437
1.4066
1.43598
1.46215
1.48484
1.50378
1.51883
1.53003
1.53772
1.5427
1.54627
1.55003
1.55568
1.56602
1.58223
1.04293
1.08634
1.12377
1.16133
1.19771
1.23247
1.26532
1.29588
1.32379
1.34871
1.37032
1.38832
1.40249
1.41269
1.41902
1.42195
1.42244
1.42203
1.42257
1.42593
1.43492
1.45044
0.98462
1.02557
1.05891
1.09249
1.12468
1.15507
1.18337
1.20922
1.23226
1.25215
1.26859
1.28128
1.29002
1.2947
1.29547
1.29293
1.28824
1.2832
1.27996
1.28063
1.28796
1.30255
0.922805
0.960956
0.989883
1.01918
1.04686
1.07253
1.09592
1.11667
1.13442
1.14885
1.15964
1.16652
1.16927
1.16783
1.16243
1.15376
1.14321
1.1329
1.12531
1.12281
1.12812
1.1415
0.859452
0.894508
0.918798
0.943559
0.96642
0.987047
1.00518
1.02045
1.03251
1.04103
1.04572
1.04629
1.04255
1.03444
1.02227
1.00686
0.989834
0.973638
0.961153
0.955026
0.957959
0.969809
0.795946
0.827572
0.847167
0.867322
0.885294
0.9008
0.913579
0.923246
0.929462
0.931896
0.93024
0.924219
0.91363
0.898449
0.879015
0.856304
0.832182
0.809462
0.791459
0.781171
0.781271
0.791197
0.734493
0.762396
0.77724
0.792624
0.805515
0.815685
0.822864
0.826663
0.82674
0.822767
0.814435
0.801469
0.783673
0.761035
0.733946
0.703514
0.671855
0.642162
0.61821
0.603377
0.600285
0.607869
0.675455
0.699298
0.709824
0.720712
0.72882
0.733957
0.735827
0.734029
0.728205
0.718011
0.703121
0.683244
0.658164
0.627867
0.592776
0.554121
0.514289
0.476908
0.446297
0.4263
0.419505
0.424284
0.622102
0.640895
0.647013
0.653165
0.656273
0.656126
0.652402
0.644693
0.632638
0.61589
0.594124
0.567052
0.534468
0.496376
0.45325
0.406445
0.358598
0.313724
0.276617
0.251524
0.240895
0.242389
0.572242
0.585933
0.58906
0.59114
0.590087
0.585547
0.577129
0.564404
0.546972
0.524447
0.496458
0.462669
0.42282
0.376866
0.325268
0.269466
0.212389
0.158619
0.113723
0.0826655
0.0679208
0.0661909
0.534391
0.536311
0.536446
0.534215
0.528187
0.518358
0.504267
0.485511
0.461696
0.432437
0.397371
0.356178
0.308643
0.254818
0.195348
0.13197
0.0679944
0.00837956
-0.0410789
-0.0754393
-0.092769
-0.0971543
0.494369
0.486582
0.481736
0.472266
0.458888
0.441373
0.419257
0.392225
0.359938
0.322083
0.278384
0.228644
0.172841
0.111346
0.0452701
-0.0231132
-0.0901092
-0.150831
-0.200152
-0.234201
-0.25232
-0.259313
0.446816
0.432099
0.42245
0.406469
0.386855
0.362714
0.333739
0.299652
0.260159
0.215014
0.164022
0.107101
0.0444131
-0.0233896
-0.0948129
-0.167173
-0.236505
-0.298008
-0.347089
-0.380749
-0.39948
-0.408715
0.396458
0.375935
0.361051
0.338793
0.313166
0.282689
0.247307
0.206738
0.160741
0.109125
0.0517726
-0.0112828
-0.0796864
-0.152494
-0.227833
-0.30266
-0.372847
-0.433813
-0.481608
-0.514142
-0.532923
-0.543713
0.344117
0.318496
0.298332
0.270289
0.23904
0.202713
0.161486
0.115062
0.0632645
0.00596729
-0.0568588
-0.125033
-0.197973
-0.274408
-0.3521
-0.427724
-0.49715
-0.5562
-0.601707
-0.632496
-0.650913
-0.662777
0.29088
0.260813
0.235568
0.202344
0.165995
0.124472
0.0781281
0.0266533
-0.0300575
-0.0920662
-0.159296
-0.231399
-0.307539
-0.386121
-0.464588
-0.539458
-0.606756
-0.662866
-0.705443
-0.734162
-0.751989
-0.764595
0.237936
0.204034
0.174073
0.136317
0.0954702
0.0494742
-0.00120627
-0.056874
-0.117563
-0.183263
-0.253775
-0.328561
-0.406518
-0.485748
-0.563457
-0.636139
-0.700145
-0.752517
-0.791744
-0.818219
-0.835331
-0.84843
0.186098
0.148966
0.114785
0.0731961
0.0285362
-0.0211427
-0.075318
-0.134267
-0.197953
-0.266279
-0.338907
-0.41509
-0.493459
-0.571858
-0.647356
-0.71658
-0.776342
-0.824416
-0.860061
-0.884253
-0.900596
-0.914015
0.136369
0.0966017
0.0587857
0.0140772
-0.0336746
-0.0862296
-0.143046
-0.204358
-0.270054
-0.339937
-0.41351
-0.489807
-0.567213
-0.643379
-0.715368
-0.780081
-0.834904
-0.878354
-0.910374
-0.93235
-0.947934
-0.961544
0.0890659
0.0472499
0.00643961
-0.0406612
-0.0907483
-0.145351
-0.203935
-0.266672
-0.333375
-0.403728
-0.47706
-0.552189
-0.627293
-0.699926
-0.767275
-0.82665
-0.876079
-0.914789
-0.943274
-0.963176
-0.978037
-0.991735
0.0449801
0.00167982
-0.0414629
-0.0902552
-0.141944
-0.197809
-0.257333
-0.320613
-0.387372
-0.457162
-0.529127
-0.601887
-0.673472
-0.741452
-0.803271
-0.856752
-0.900591
-0.934642
-0.95981
-0.977829
-0.992024
-1.00571
0.0037371
-0.0405215
-0.0853396
-0.13514
-0.187702
-0.244052
-0.303692
-0.366634
-0.432496
-0.500684
-0.570163
-0.639388
-0.706332
-0.768701
-0.824319
-0.871593
-0.909855
-0.939474
-0.961609
-0.977956
-0.991529
-1.0051
-0.0338855
-0.0785983
-0.124459
-0.174645
-0.227423
-0.28357
-0.342601
-0.404426
-0.468548
-0.534214
-0.600227
-0.664936
-0.726357
-0.782451
-0.831523
-0.872577
-0.905511
-0.931071
-0.950523
-0.965416
-0.9784
-0.991748
-0.069108
-0.113843
-0.160167
-0.210157
-0.262522
-0.317797
-0.375501
-0.435424
-0.496944
-0.559156
-0.620734
-0.680009
-0.735154
-0.784506
-0.826906
-0.861929
-0.889924
-0.911862
-0.928984
-0.94261
-0.955002
-0.967978
-0.100544
-0.144879
-0.19113
-0.240412
-0.291826
-0.345667
-0.401447
-0.458824
-0.517045
-0.575074
-0.631523
-0.684796
-0.733335
-0.775924
-0.811939
-0.841436
-0.865075
-0.8839
-0.899029
-0.911512
-0.923214
-0.935555
-0.0742017
-0.118536
-0.164895
-0.214343
-0.266008
-0.320147
-0.37627
-0.434
-0.492558
-0.550869
-0.607514
-0.660875
-0.709394
-0.751869
-0.787699
-0.816971
-0.84036
-0.858929
-0.873799
-0.886029
-0.897464
-0.909507
-0.0427335
-0.0874751
-0.133908
-0.184037
-0.236615
-0.292136
-0.350124
-0.410338
-0.472131
-0.534561
-0.596267
-0.655553
-0.710586
-0.759718
-0.801822
-0.836512
-0.864169
-0.885781
-0.902599
-0.915943
-0.928045
-0.940697
-0.00770896
-0.0524332
-0.0984098
-0.148711
-0.201669
-0.258015
-0.317274
-0.379328
-0.443661
-0.509484
-0.575561
-0.640211
-0.701433
-0.757203
-0.80586
-0.84646
-0.878946
-0.904094
-0.923185
-0.937763
-0.950439
-0.963445
0.0294404
-0.014835
-0.0597866
-0.109686
-0.162403
-0.21891
-0.278727
-0.341842
-0.407857
-0.476144
-0.54563
-0.614734
-0.681406
-0.743354
-0.798444
-0.845136
-0.882827
-0.911932
-0.933635
-0.949628
-0.962877
-0.976103
0.0699219
0.0266011
-0.016702
-0.0655846
-0.117412
-0.173403
-0.233062
-0.296468
-0.363328
-0.433169
-0.505096
-0.577689
-0.648948
-0.716435
-0.777625
-0.830406
-0.873548
-0.906974
-0.931627
-0.949248
-0.963104
-0.976446
0.112955
0.0711121
0.0301036
-0.01709
-0.06731
-0.122021
-0.18071
-0.243538
-0.310303
-0.380671
-0.453934
-0.528869
-0.603616
-0.67571
-0.74236
-0.800935
-0.849552
-0.887524
-0.915407
-0.934857
-0.949367
-0.962728
0.158921
0.119119
0.0810577
0.0362422
-0.0116494
-0.0643082
-0.121217
-0.182598
-0.248335
-0.318212
-0.391701
-0.467798
-0.544842
-0.620457
-0.691711
-0.755557
-0.809474
-0.852083
-0.88341
-0.904882
-0.920101
-0.933393
0.207064
0.16988
0.135398
0.0936742
0.0488545
-0.000940401
-0.0552108
-0.114227
-0.177949
-0.246266
-0.318815
-0.394813
-0.472843
-0.550712
-0.62548
-0.693811
-0.752604
-0.799755
-0.834627
-0.858261
-0.874229
-0.887355
0.257103
0.223125
0.1928
0.154866
0.113827
0.0676867
0.0168908
-0.0388612
-0.0996006
-0.165308
-0.235765
-0.310401
-0.388069
-0.466825
-0.54385
-0.615657
-0.678677
-0.730073
-0.768465
-0.794334
-0.811063
-0.823903
0.308099
0.277916
0.252242
0.218781
0.182195
0.140483
0.0939855
0.0423911
-0.0144037
-0.0764557
-0.143675
-0.215685
-0.291609
-0.369803
-0.447673
-0.521735
-0.588077
-0.6432
-0.684903
-0.712982
-0.730427
-0.742816
0.359299
0.333503
0.312844
0.284493
0.25295
0.216375
0.174942
0.128345
0.0764115
0.0190158
-0.0438615
-0.112019
-0.184837
-0.260997
-0.338214
-0.413143
-0.481692
-0.53979
-0.584421
-0.614554
-0.632599
-0.6443
0.409592
0.388813
0.373372
0.350719
0.324734
0.293941
0.258284
0.217475
0.171272
0.119486
0.0620028
-0.00112793
-0.069522
-0.142189
-0.217205
-0.29149
-0.360929
-0.421028
-0.467986
-0.499876
-0.518309
-0.529002
0.457952
0.442863
0.43261
0.416141
0.396097
0.371562
0.342235
0.30783
0.26805
0.222648
0.171431
0.11433
0.0515271
-0.0162843
-0.0875569
-0.159558
-0.228315
-0.289084
-0.337413
-0.370473
-0.3889
-0.398116
0.503621
0.495271
0.489785
0.479733
0.465846
0.447862
0.425313
0.397879
0.365217
0.327011
0.282989
0.232955
0.176907
0.115248
0.0491397
-0.0190888
-0.0857121
-0.145877
-0.194571
-0.228098
-0.245975
-0.253044
0.542199
0.543298
0.542749
0.539848
0.533209
0.522816
0.508194
0.488935
0.46464
0.434922
0.399415
0.357801
0.309876
0.255713
0.196004
0.132544
0.0686986
0.00942367
-0.0395739
-0.0735203
-0.0906895
-0.0952568
0.578176
0.590798
0.593226
0.594641
0.592939
0.587789
0.578783
0.565491
0.547506
0.524438
0.495916
0.461603
0.421247
0.374824
0.322835
0.26678
0.209641
0.156014
0.111401
0.0806143
0.0659257
0.063921
0.625775
0.643439
0.648863
0.654334
0.656761
0.65597
0.651616
0.643289
0.630623
0.613268
0.590897
0.563223
0.530049
0.491396
0.447775
0.400591
0.352531
0.307625
0.270614
0.245629
0.234939
0.236083
0.677068
0.699791
0.7096
0.719792
0.727194
0.731652
0.732851
0.730383
0.72389
0.713024
0.697458
0.676901
0.651145
0.620193
0.584501
0.545347
0.505163
0.467594
0.436919
0.416893
0.409938
0.414303
0.734086
0.760914
0.77503
0.789712
0.801883
0.811353
0.817832
0.820929
0.820298
0.815608
0.80655
0.79285
0.774318
0.750957
0.723191
0.692165
0.660041
0.630029
0.605879
0.5909
0.587568
0.594701
0.793781
0.824418
0.843282
0.862735
0.879982
0.894774
0.906834
0.915775
0.921253
0.922938
0.920518
0.91372
0.90235
0.886395
0.866222
0.842843
0.818165
0.795021
0.776714
0.76619
0.765995
0.775453
0.855793
0.889944
0.91351
0.937578
0.959723
0.979638
0.997054
1.01159
1.0229
1.03067
1.03457
1.03435
1.02981
1.02091
1.00796
0.991835
0.974193
0.957499
0.944634
0.938207
0.940811
0.952196
0.918011
0.955356
0.983584
1.01221
1.0392
1.06417
1.08686
1.10688
1.1239
1.13757
1.14758
1.15367
1.15563
1.15339
1.1472
1.1378
1.1266
1.11574
1.10773
1.10489
1.10985
1.12279
0.979071
1.01931
1.05199
1.08493
1.11647
1.14619
1.17382
1.19897
1.2213
1.24047
1.25616
1.26809
1.27605
1.27995
1.27997
1.2767
1.27135
1.26575
1.26207
1.26238
1.26937
1.28354
1.03703
1.07984
1.11666
1.15363
1.1894
1.22355
1.25577
1.28569
1.31294
1.33718
1.35809
1.37538
1.38882
1.39828
1.4039
1.40614
1.406
1.40504
1.40513
1.40815
1.41681
1.43195
1.09038
1.13541
1.17596
1.21655
1.25612
1.29423
1.33056
1.36473
1.39637
1.42512
1.45067
1.47271
1.491
1.50539
1.51593
1.52299
1.52739
1.53045
1.53379
1.53911
1.54916
1.56505
1.13734
1.18425
1.22805
1.2718
1.31468
1.35625
1.39616
1.43403
1.46948
1.50216
1.53172
1.55787
1.58033
1.59894
1.61369
1.62486
1.63311
1.63957
1.64564
1.65286
1.66402
1.68049
1.17692
1.22535
1.27182
1.31819
1.3638
1.40821
1.45106
1.49197
1.53056
1.56646
1.59932
1.62883
1.65471
1.67678
1.69498
1.7095
1.72088
1.73009
1.73836
1.7471
1.75914
1.77603
1.20734
1.25693
1.30547
1.35389
1.40163
1.44827
1.49344
1.53673
1.57777
1.61619
1.65163
1.68376
1.7123
1.73704
1.7579
1.77501
1.7888
1.80011
1.81006
1.81996
1.83265
1.84985
1.22919
1.27958
1.32953
1.37933
1.42849
1.47661
1.5233
1.56818
1.61084
1.65092
1.68806
1.72192
1.75223
1.77875
1.80138
1.82021
1.83562
1.84834
1.85941
1.87008
1.8832
1.90061
1.23916
1.28997
1.34068
1.39125
1.44122
1.49019
1.53778
1.58358
1.6272
1.66825
1.70639
1.74128
1.77261
1.80016
1.82381
1.84362
1.85993
1.87344
1.88513
1.89623
1.9096
1.92714
-0.10338
-0.131969
-0.157043
-0.180847
-0.202995
-0.223734
-0.24319
-0.2616
-0.278906
-0.295417
-0.310616
-0.325226
-0.337313
-0.350085
-0.355589
-0.371258
-0.393153
-0.40376
-0.411416
-0.415685
-0.417764
-0.418017
-0.416849
-0.414678
-0.411991
-0.409275
-0.406884
-0.405171
-0.404048
-0.40392
-0.146843
-0.17425
-0.197915
-0.220105
-0.240545
-0.259519
-0.277157
-0.2938
-0.309283
-0.324107
-0.337447
-0.350441
-0.36068
-0.371765
-0.377068
-0.389608
-0.407546
-0.41593
-0.421785
-0.424528
-0.425251
-0.424363
-0.422351
-0.419649
-0.416705
-0.413944
-0.411645
-0.410108
-0.409157
-0.409223
-0.192588
-0.219006
-0.241391
-0.262036
-0.280771
-0.297907
-0.313585
-0.328204
-0.34154
-0.354196
-0.36519
-0.375938
-0.383653
-0.39254
-0.395036
-0.404644
-0.417686
-0.423229
-0.426913
-0.42842
-0.428572
-0.427533
-0.425582
-0.423036
-0.420285
-0.417733
-0.41564
-0.414302
-0.4135
-0.41376
-0.240839
-0.26567
-0.286211
-0.304742
-0.3212
-0.335904
-0.34902
-0.360968
-0.371537
-0.381357
-0.389529
-0.39747
-0.402739
-0.409187
-0.410284
-0.417424
-0.426395
-0.430068
-0.432388
-0.433023
-0.432528
-0.431034
-0.428811
-0.426165
-0.423449
-0.421023
-0.419103
-0.417954
-0.417305
-0.417752
-0.291047
-0.314011
-0.332413
-0.348501
-0.362309
-0.374161
-0.384256
-0.393029
-0.400344
-0.406836
-0.411809
-0.4166
-0.419216
-0.423068
-0.422562
-0.427329
-0.43289
-0.434949
-0.436068
-0.436009
-0.435112
-0.433428
-0.431162
-0.428579
-0.425999
-0.423754
-0.422028
-0.421072
-0.420573
-0.421201
-0.343246
-0.363828
-0.379558
-0.392629
-0.403175
-0.411535
-0.417974
-0.422963
-0.42651
-0.429268
-0.430822
-0.432386
-0.432484
-0.433947
-0.432227
-0.434971
-0.438077
-0.43904
-0.439343
-0.438772
-0.437509
-0.435596
-0.433226
-0.430651
-0.428166
-0.42607
-0.424517
-0.423736
-0.42338
-0.42418
-0.396918
-0.414571
-0.427059
-0.436516
-0.443187
-0.44746
-0.449711
-0.450489
-0.449986
-0.448894
-0.447064
-0.445562
-0.443335
-0.442649
-0.439851
-0.440887
-0.442255
-0.442358
-0.442001
-0.440995
-0.43943
-0.437341
-0.434901
-0.432351
-0.429961
-0.428004
-0.426611
-0.425992
-0.425772
-0.426739
-0.45155
-0.465594
-0.474153
-0.479312
-0.48146
-0.48109
-0.478734
-0.475058
-0.470451
-0.465634
-0.460664
-0.456435
-0.452197
-0.449695
-0.44599
-0.44563
-0.445818
-0.445251
-0.44436
-0.442968
-0.441114
-0.43884
-0.436317
-0.433771
-0.431455
-0.429615
-0.428362
-0.427887
-0.427793
-0.428925
-0.50625
-0.515925
-0.519836
-0.520053
-0.517149
-0.511777
-0.504658
-0.496581
-0.488091
-0.479909
-0.472198
-0.46566
-0.459727
-0.455704
-0.451186
-0.449674
-0.449019
-0.447859
-0.446484
-0.444716
-0.442577
-0.440118
-0.437503
-0.434948
-0.432686
-0.430941
-0.429807
-0.42946
-0.429481
-0.430779
-0.559866
-0.564399
-0.56301
-0.557791
-0.549532
-0.539083
-0.527337
-0.515178
-0.503238
-0.492177
-0.482178
-0.473746
-0.466409
-0.461115
-0.455844
-0.453355
-0.452034
-0.45031
-0.448466
-0.446316
-0.443883
-0.441226
-0.438503
-0.435919
-0.433689
-0.432016
-0.430979
-0.430741
-0.430867
-0.432331
-0.611009
-0.609757
-0.602626
-0.591759
-0.578171
-0.562891
-0.546935
-0.531218
-0.516374
-0.502957
-0.491106
-0.481138
-0.472628
-0.466246
-0.460252
-0.456896
-0.45497
-0.452675
-0.450353
-0.447805
-0.445065
-0.442195
-0.439348
-0.436714
-0.434493
-0.432867
-0.431904
-0.431756
-0.431973
-0.433603
-0.658255
-0.650861
-0.637887
-0.621526
-0.602976
-0.583393
-0.563836
-0.545179
-0.527994
-0.512699
-0.49936
-0.488135
-0.47862
-0.47128
-0.464576
-0.460418
-0.457881
-0.454995
-0.452174
-0.44921
-0.446147
-0.443049
-0.440058
-0.437354
-0.435117
-0.433515
-0.432603
-0.432526
-0.432819
-0.43461
-0.700404
-0.686922
-0.668403
-0.647057
-0.624192
-0.601012
-0.57854
-0.557555
-0.538528
-0.521744
-0.507194
-0.494912
-0.484509
-0.476297
-0.468895
-0.463969
-0.46078
-0.457281
-0.453939
-0.450543
-0.447144
-0.443801
-0.440649
-0.437851
-0.435576
-0.433974
-0.433091
-0.433065
-0.433419
-0.43536
-0.736722
-0.717639
-0.694237
-0.66868
-0.642304
-0.616282
-0.59155
-0.568767
-0.548296
-0.530312
-0.514743
-0.50154
-0.490326
-0.4813
-0.473215
-0.467539
-0.463652
-0.459521
-0.455643
-0.451805
-0.448058
-0.444457
-0.441126
-0.438215
-0.435879
-0.434255
-0.43338
-0.433387
-0.433785
-0.435855
-0.767065
-0.743225
-0.715838
-0.686966
-0.6579
-0.629735
-0.603295
-0.579127
-0.557502
-0.538512
-0.522051
-0.508011
-0.496037
-0.486239
-0.477493
-0.471083
-0.466455
-0.461687
-0.457266
-0.452982
-0.448882
-0.445014
-0.441489
-0.438447
-0.436028
-0.434363
-0.433479
-0.433504
-0.433932
-0.436099
-0.791852
-0.764288
-0.73389
-0.702576
-0.671551
-0.641816
-0.614091
-0.58883
-0.566241
-0.546369
-0.529091
-0.514269
-0.501568
-0.491032
-0.481655
-0.47453
-0.469138
-0.46374
-0.458781
-0.454057
-0.449605
-0.445464
-0.441734
-0.438544
-0.436025
-0.4343
-0.433393
-0.433424
-0.433873
-0.436097
-0.8119
-0.781661
-0.749154
-0.716141
-0.683737
-0.652854
-0.624133
-0.597968
-0.574532
-0.55385
-0.535797
-0.520228
-0.506826
-0.495583
-0.485609
-0.477799
-0.471638
-0.465634
-0.460155
-0.455007
-0.450211
-0.445796
-0.441852
-0.438499
-0.435863
-0.434065
-0.433126
-0.433159
-0.433628
-0.435864
-0.828219
-0.796221
-0.762335
-0.728188
-0.694813
-0.663062
-0.633525
-0.606565
-0.582348
-0.560893
-0.542092
-0.525798
-0.511718
-0.499799
-0.489265
-0.480806
-0.473899
-0.467325
-0.461357
-0.45581
-0.450684
-0.445998
-0.441834
-0.438305
-0.435539
-0.433655
-0.432678
-0.432716
-0.433218
-0.435428
-0.841741
-0.808692
-0.773952
-0.739048
-0.704963
-0.672511
-0.64226
-0.614567
-0.589604
-0.567404
-0.547875
-0.53088
-0.516148
-0.503589
-0.492534
-0.483476
-0.475869
-0.468777
-0.462364
-0.45645
-0.451013
-0.446064
-0.441676
-0.437963
-0.435054
-0.433075
-0.432059
-0.432111
-0.432672
-0.434839
-0.853256
-0.81963
-0.784355
-0.748909
-0.714251
-0.68118
-0.650264
-0.621869
-0.596184
-0.57326
-0.553027
-0.53536
-0.520011
-0.506856
-0.495323
-0.485733
-0.477501
-0.469959
-0.463157
-0.456917
-0.451196
-0.445995
-0.441384
-0.437479
-0.434415
-0.432333
-0.431278
-0.431362
-0.432027
-0.434171
-0.864276
-0.830299
-0.794579
-0.758617
-0.72337
-0.689642
-0.658012
-0.628865
-0.602412
-0.578725
-0.557758
-0.539401
-0.523425
-0.509685
-0.497685
-0.487606
-0.478831
-0.470896
-0.463753
-0.457218
-0.451224
-0.445766
-0.440911
-0.436784
-0.433535
-0.431325
-0.430225
-0.430366
-0.43122
-0.433492
-0.875964
-0.841671
-0.805421
-0.768842
-0.732903
-0.698416
-0.665977
-0.635992
-0.608694
-0.584178
-0.562417
-0.54332
-0.526677
-0.512338
-0.499846
-0.489277
-0.479998
-0.471685
-0.464218
-0.457394
-0.451119
-0.445377
-0.440239
-0.435843
-0.432364
-0.429988
-0.428824
-0.429045
-0.430181
-0.432881
0.202547
0.202498
0.202479
0.202453
0.202446
0.202452
0.202483
0.20254
0.202626
0.202741
0.202885
0.203053
0.203243
0.203449
0.20367
0.203901
0.204141
0.204387
0.204639
0.204896
0.205158
0.205425
0.205698
0.205976
0.202768
0.202722
0.202703
0.202677
0.20267
0.202677
0.202709
0.202767
0.202856
0.202973
0.203119
0.20329
0.203481
0.20369
0.203912
0.204143
0.204383
0.204629
0.20488
0.205137
0.205398
0.205665
0.205937
0.206216
0.202991
0.202947
0.202929
0.202904
0.202897
0.202904
0.202937
0.202997
0.203087
0.203207
0.203354
0.203527
0.203719
0.203928
0.204149
0.20438
0.204619
0.204863
0.205113
0.205367
0.205627
0.205892
0.206163
0.206441
0.203215
0.203175
0.203157
0.203133
0.203126
0.203135
0.203168
0.203229
0.203321
0.203442
0.203591
0.203764
0.203956
0.204164
0.204384
0.204613
0.204849
0.20509
0.205337
0.205588
0.205844
0.206107
0.206375
0.206651
0.203443
0.203407
0.203389
0.203366
0.20336
0.203369
0.203404
0.203466
0.203559
0.203681
0.20383
0.204002
0.204194
0.204399
0.204616
0.204842
0.205073
0.20531
0.205552
0.205799
0.20605
0.206308
0.206573
0.206845
0.203675
0.203642
0.203626
0.203604
0.203599
0.203609
0.203645
0.203708
0.203801
0.203923
0.204072
0.204243
0.204432
0.204634
0.204846
0.205066
0.205292
0.205523
0.205758
0.205999
0.206244
0.206496
0.206755
0.207022
0.203912
0.203883
0.203867
0.203848
0.203844
0.203855
0.203892
0.203956
0.204049
0.204171
0.204318
0.204486
0.204671
0.204868
0.205075
0.205288
0.205506
0.205729
0.205956
0.206188
0.206426
0.206671
0.206922
0.207182
0.204154
0.204128
0.204114
0.204097
0.204094
0.204108
0.204145
0.20421
0.204303
0.204424
0.204568
0.204732
0.204912
0.205102
0.205301
0.205505
0.205714
0.205927
0.206145
0.206367
0.206595
0.20683
0.207073
0.207325
0.204401
0.20438
0.204367
0.204353
0.204352
0.204367
0.204406
0.204471
0.204564
0.204682
0.204823
0.204982
0.205155
0.205337
0.205526
0.20572
0.205917
0.206119
0.206324
0.206535
0.206751
0.206975
0.207207
0.207449
0.204653
0.204636
0.204626
0.204615
0.204616
0.204634
0.204674
0.20474
0.204831
0.204947
0.205084
0.205236
0.2054
0.205572
0.20575
0.205931
0.206115
0.206303
0.206494
0.206691
0.206894
0.207104
0.207323
0.207553
0.204911
0.204898
0.20489
0.204882
0.204887
0.204907
0.204949
0.205015
0.205106
0.205218
0.205349
0.205494
0.205648
0.205808
0.205972
0.206138
0.206307
0.206479
0.206655
0.206835
0.207022
0.207217
0.207422
0.207637
0.205173
0.205164
0.205159
0.205156
0.205164
0.205188
0.205232
0.205298
0.205387
0.205496
0.20562
0.205755
0.205897
0.206043
0.206192
0.206342
0.206493
0.206647
0.206804
0.206967
0.207136
0.207313
0.207501
0.2077
0.205438
0.205433
0.205432
0.205434
0.205446
0.205474
0.20552
0.205588
0.205675
0.205778
0.205895
0.206019
0.206148
0.206279
0.20641
0.206541
0.206673
0.206806
0.206943
0.207085
0.207234
0.207392
0.20756
0.207741
0.205706
0.205704
0.205707
0.205714
0.205732
0.205764
0.205814
0.205882
0.205967
0.206066
0.206173
0.206286
0.2064
0.206513
0.206625
0.206735
0.206845
0.206956
0.20707
0.207189
0.207316
0.207451
0.207598
0.207758
0.205973
0.205975
0.205983
0.205996
0.20602
0.206058
0.206111
0.20618
0.206263
0.206356
0.206454
0.206554
0.206651
0.206746
0.206836
0.206923
0.207009
0.207096
0.207185
0.207279
0.20738
0.207491
0.207614
0.207751
0.206237
0.206242
0.206255
0.206276
0.206307
0.206351
0.206409
0.20648
0.206561
0.206648
0.206736
0.206821
0.206901
0.206974
0.207042
0.207104
0.207164
0.207224
0.207285
0.207352
0.207427
0.207511
0.207608
0.20772
0.206496
0.206503
0.206522
0.20655
0.20659
0.206642
0.206705
0.206779
0.206858
0.206938
0.207015
0.207086
0.207147
0.207198
0.20724
0.207276
0.207308
0.207339
0.207371
0.207409
0.207454
0.20751
0.207578
0.207662
0.206743
0.206752
0.206778
0.206815
0.206865
0.206926
0.206996
0.207072
0.20715
0.207224
0.20729
0.207344
0.207385
0.207413
0.207429
0.207437
0.207439
0.207439
0.207441
0.207447
0.207461
0.207486
0.207523
0.207578
0.206976
0.206985
0.207019
0.207066
0.207127
0.207198
0.207276
0.207356
0.207433
0.207501
0.207556
0.207594
0.207614
0.207617
0.207606
0.207584
0.207555
0.207523
0.207492
0.207465
0.207446
0.207438
0.207444
0.207467
0.207187
0.207196
0.207239
0.207296
0.20737
0.207452
0.20754
0.207625
0.207702
0.207765
0.207809
0.20783
0.207829
0.207807