/*--------------------------------*- C++ -*----------------------------------*\
| =========                 |                                                 |
| \\      /  F ield         | OpenFOAM Extend Project: Open source CFD        |
|  \\    /   O peration     | Version:  1.6-ext                               |
|   \\  /    A nd           | Web:      www.extend-project.de                 |
|    \\/     M anipulation  |                                                 |
\*---------------------------------------------------------------------------*/
FoamFile
{
    version     2.0;
    format      ascii;
    class       surfaceScalarField;
    location    "0.6";
    object      phi;
}
// * * * * * * * * * * * * * * * * * * * * * * * * * * * * * * * * * * * * * //

dimensions      [0 3 -1 0 0 0 0];

internalField   nonuniform List<scalar> 
41420
(
-0.000126486
0.000397629
-0.000398332
0.000127189
-0.000125324
0.000378722
-0.000379884
-0.000123736
0.000360154
-0.000361742
-0.000121721
0.000341826
-0.000343841
-0.000119218
0.00032374
-0.000326243
-0.000116078
0.000305685
-0.000308825
-0.000112064
0.000287314
-0.000291328
-0.000106882
0.000268154
-0.000273336
-0.000100256
0.000247719
-0.000254345
-9.20277e-05
0.000225659
-0.000233887
-8.22487e-05
0.000201912
-0.000211691
-7.12236e-05
0.000176797
-0.000187822
-5.94802e-05
0.000150997
-0.000162741
-4.76765e-05
0.000125435
-0.000137239
-3.64724e-05
0.000101084
-0.000112288
-2.64203e-05
7.87831e-05
-8.88353e-05
-1.78956e-05
5.91168e-05
-6.76415e-05
-1.10855e-05
4.23767e-05
-4.91868e-05
-6.01398e-06
2.85885e-05
-3.36601e-05
-2.58813e-06
1.75774e-05
-2.10032e-05
-6.46898e-07
9.04272e-06
-1.0984e-05
2.62586e-06
-3.27276e-06
-0.000134228
0.000396761
0.000135096
-0.000132878
0.000377372
-0.000131063
0.000358339
-0.000128748
0.000339512
-0.00012582
0.000320812
-0.000122068
0.000301934
-0.000117207
0.000282452
-0.000110933
0.00026188
-0.000103022
0.000239808
-9.34307e-05
0.000216068
-8.23673e-05
0.000190848
-7.029e-05
0.000164719
-5.78347e-05
0.000138542
-4.56928e-05
0.000113294
-3.44854e-05
8.98769e-05
-2.46747e-05
6.89724e-05
-1.65289e-05
5.09711e-05
-1.01363e-05
3.59841e-05
-5.44558e-06
2.38978e-05
-2.31703e-06
1.44489e-05
-5.66499e-07
7.29219e-06
2.05937e-06
-0.000149052
0.00039523
0.000150583
-0.000147012
0.000375332
-0.000144455
0.000355782
-0.000141291
0.000336347
-0.000137339
0.00031686
-0.000132321
0.000296916
-0.000125915
0.000276047
-0.000117844
0.000253808
-0.000107984
0.000229948
-9.6457e-05
0.000204541
-8.36592e-05
0.000178051
-7.02067e-05
0.000151267
-5.6822e-05
0.000125157
-4.4196e-05
0.000100668
-3.28783e-05
7.85593e-05
-2.32205e-05
5.93145e-05
-1.5375e-05
4.31256e-05
-9.33069e-06
2.99398e-05
-4.96485e-06
1.95319e-05
-2.09234e-06
1.15763e-05
-5.05477e-07
5.70533e-06
1.55389e-06
-0.000163275
0.000393062
0.000165443
-0.000160547
0.000372603
-0.000157202
0.000352437
-0.000153078
0.000332223
-0.000147916
0.000311699
-0.000141385
0.000290384
-0.000133165
0.000267827
-0.000123063
0.000243706
-0.00011112
0.000218005
-9.76641e-05
0.000191086
-8.3283e-05
0.000163669
-6.87179e-05
0.000136702
-5.47206e-05
0.00011116
-4.19244e-05
8.78714e-05
-3.07656e-05
6.74005e-05
-2.14665e-05
5.00154e-05
-1.40625e-05
3.57216e-05
-8.45414e-06
2.43314e-05
-4.46043e-06
1.55382e-05
-1.86485e-06
8.98076e-06
-4.46548e-07
4.28703e-06
1.10734e-06
-0.000176175
0.000390305
0.000178932
-0.000172763
0.000369191
-0.000168571
0.000348245
-0.000163348
0.000327
-0.000156764
0.000305115
-0.000148464
0.000282085
-0.000138197
0.00025756
-0.000125927
0.000231436
-0.000111915
0.000203992
-9.67104e-05
0.000175881
-8.10648e-05
0.000148024
-6.57811e-05
0.000121418
-5.15712e-05
9.69499e-05
-3.89558e-05
7.5256e-05
-2.82301e-05
5.66749e-05
-1.94818e-05
4.12671e-05
-1.26408e-05
2.88805e-05
-7.53592e-06
1.92266e-05
-3.94639e-06
1.19487e-05
-1.63832e-06
6.67269e-06
-3.89192e-07
3.0379e-06
7.18148e-07
-0.00018767
0.000386984
0.000190991
-0.00018353
0.000365051
-0.000178355
0.00034307
-0.000171807
0.000320452
-0.000163515
0.000296823
-0.000153171
0.000271741
-0.000140669
0.000245058
-0.000126202
0.000216969
-0.00011028
0.00018807
-9.36543e-05
0.000159256
-7.71737e-05
0.000131543
-6.16235e-05
0.000105868
-4.76077e-05
8.2934e-05
-3.54962e-05
6.31445e-05
-2.54323e-05
4.6611e-05
-1.73798e-05
3.32145e-05
-1.11819e-05
2.26826e-05
-6.61734e-06
1.46621e-05
-3.44256e-06
8.77393e-06
-1.42022e-06
4.65035e-06
-3.34897e-07
1.95258e-06
3.83251e-07
-0.000197544
0.00038306
0.000201469
-0.000192548
0.000360054
-0.000186166
0.000336688
-0.000177995
0.000312282
-0.00016769
0.000286518
-0.000155074
0.000259125
-0.000140274
0.000230258
-0.000123755
0.00020045
-0.000106266
0.000170581
-8.86916e-05
0.000141682
-7.18878e-05
0.00011474
-5.6541e-05
9.05211e-05
-4.30974e-05
6.94904e-05
-3.17592e-05
5.18064e-05
-2.25277e-05
3.73794e-05
-1.52637e-05
2.59506e-05
-9.749e-06
1.71679e-05
-5.73289e-06
1.0646e-05
-2.96551e-06
6.00655e-06
-1.21664e-06
2.90149e-06
-2.84937e-07
1.02087e-06
9.8314e-08
-0.000205581
0.000378444
0.000210197
-0.000199519
0.000353992
-0.000191626
0.000328795
-0.000181497
0.000302153
-0.000168905
0.000273926
-0.000153907
0.000244127
-0.000136925
0.000213276
-0.000118698
0.000182223
-0.000100145
0.000152028
-8.21877e-05
0.000123724
-6.55925e-05
9.81442e-05
-5.08828e-05
7.58114e-05
-3.83224e-05
5.69301e-05
-2.79532e-05
4.14371e-05
-1.96575e-05
2.90837e-05
-1.32226e-05
1.95157e-05
-8.3934e-06
1.23387e-05
-4.90943e-06
7.16199e-06
-2.52727e-06
3.62438e-06
-1.03186e-06
1.40607e-06
-2.40129e-07
2.29147e-07
-1.41815e-07
-0.000211407
0.000372905
0.000216946
-0.000203968
0.000346553
-0.000194215
0.000319041
-0.000181837
0.000289776
-0.000166831
0.00025892
-0.000149561
0.000226857
-0.000130754
0.000194469
-0.000111359
0.000162828
-9.23624e-05
0.000133031
-7.4614e-05
0.000105976
-5.87166e-05
8.22468e-05
-4.49975e-05
6.20924e-05
-3.35421e-05
4.54746e-05
-2.42564e-05
3.21515e-05
-1.69364e-05
2.17637e-05
-1.13247e-05
1.39041e-05
-7.1527e-06
8.16668e-06
-4.16548e-06
4.17477e-06
-2.13567e-06
1.59458e-06
-8.68321e-07
1.3872e-07
-2.00855e-07
-4.3832e-07
-3.4267e-07
-0.000214672
0.000366209
0.000221368
-0.000205519
0.0003374
-0.000193593
0.000307116
-0.0001788
0.000274983
-0.000161457
0.000241576
-0.000142263
0.000207663
-0.000122193
0.000174399
-0.000102296
0.000142931
-8.35044e-05
0.00011424
-6.65055e-05
8.8977e-05
-5.16963e-05
6.74376e-05
-3.92101e-05
4.96062e-05
-2.89803e-05
3.52448e-05
-2.08133e-05
2.39845e-05
-1.44515e-05
1.54019e-05
-9.61952e-06
9.07205e-06
-6.05276e-06
4.59992e-06
-3.51327e-06
1.63527e-06
-1.79561e-06
-1.23077e-07
-7.27508e-07
-9.29382e-07
-1.67329e-07
-9.98498e-07
-5.09999e-07
-0.000214828
0.000357911
0.000223126
-0.000203621
0.000326193
-0.000189344
0.000292839
-0.000172219
0.000257858
-0.000152911
0.000222268
-0.000132404
0.000187155
-0.000111803
0.000153798
-9.21263e-05
0.000123254
-7.41484e-05
9.62623e-05
-5.83422e-05
7.31708e-05
-4.48954e-05
5.39908e-05
-3.37749e-05
3.84858e-05
-2.48028e-05
2.62726e-05
-1.77245e-05
1.69061e-05
-1.226e-05
9.93741e-06
-8.13682e-06
4.94887e-06
-5.10779e-06
1.57089e-06
-2.95862e-06
-5.13899e-07
-1.5089e-06
-1.57279e-06
-6.09633e-07
-1.82865e-06
-1.39422e-07
-1.46871e-06
-6.49422e-07
-0.000211777
0.000347872
0.000221815
-0.000198355
0.000312772
-0.000181768
0.000276251
-0.000162632
0.000238722
-0.000141931
0.000201568
-0.00012083
0.000166054
-0.000100431
0.000133399
-8.16035e-05
0.000104426
-6.49014e-05
7.95602e-05
-5.05735e-05
5.88429e-05
-3.86236e-05
4.20409e-05
-2.88926e-05
2.87549e-05
-2.11324e-05
1.85124e-05
-1.50612e-05
1.0835e-05
-1.04008e-05
5.27698e-06
-6.8967e-06
1.44478e-06
-4.32738e-06
-9.98438e-07
-2.50584e-06
-2.33544e-06
-1.27737e-06
-2.80126e-06
-5.15464e-07
-2.59056e-06
-1.17425e-07
-1.86675e-06
-7.66847e-07
-0.000204986
0.000335583
0.000217276
-0.000189363
0.000297148
-0.000170816
0.000257704
-0.000150312
0.000218218
-0.000129032
0.000180288
-0.000108169
0.000145191
-8.86883e-05
0.000113919
-7.12419e-05
8.69799e-05
-5.61482e-05
6.44665e-05
-4.34581e-05
4.61527e-05
-3.30373e-05
3.16202e-05
-2.46474e-05
2.03649e-05
-1.80077e-05
1.18727e-05
-1.28367e-05
5.6639e-06
-8.87482e-06
1.31513e-06
-5.89551e-06
-1.53453e-06
-3.7072e-06
-3.18675e-06
-2.15146e-06
-3.89118e-06
-1.09876e-06
-3.85396e-06
-4.43718e-07
-3.2456e-06
-1.00759e-07
-2.20971e-06
-8.67605e-07
-0.000195084
0.000321573
0.000209094
-0.00017763
0.000279695
-0.000157661
0.000237735
-0.000136522
0.000197079
-0.000115426
0.000159192
-9.54784e-05
0.000125244
-7.74252e-05
9.58653e-05
-6.167e-05
7.12247e-05
-4.83184e-05
5.1115e-05
-3.72677e-05
3.5102e-05
-2.82943e-05
2.26467e-05
-2.11212e-05
1.31919e-05
-1.54651e-05
6.21662e-06
-1.10625e-05
1.26135e-06
-7.68267e-06
-2.06475e-06
-5.13042e-06
-4.08678e-06
-3.24485e-06
-5.07232e-06
-1.89485e-06
-5.24119e-06
-9.74123e-07
-4.77468e-06
-3.96319e-07
-3.8234e-06
-9.0941e-08
-2.51509e-06
-9.58546e-07
-0.000181731
0.000305382
0.000197922
-0.000163036
0.000260999
-0.000142505
0.000217204
-0.00012163
0.000176204
-0.000101567
0.000139128
-8.31854e-05
0.000106862
-6.69726e-05
7.96525e-05
-5.3101e-05
5.73531e-05
-4.15148e-05
3.95288e-05
-3.20196e-05
2.56068e-05
-2.43547e-05
1.49818e-05
-1.8243e-05
7.08019e-06
-1.34216e-05
1.39517e-06
-9.65691e-06
-2.50332e-06
-6.75074e-06
-4.97091e-06
-4.53954e-06
-6.29798e-06
-2.89082e-06
-6.72103e-06
-1.69824e-06
-6.43377e-06
-8.76346e-07
-5.59657e-06
-3.55808e-07
-4.34394e-06
-7.9668e-08
-2.79123e-06
-1.03821e-06
-0.000346867
0.000249365
0.000402885
-0.000291326
0.000205458
-0.000238881
0.000164759
-0.000191463
0.000128787
-0.00015016
9.78247e-05
-0.000115358
7.20602e-05
-8.68474e-05
5.11418e-05
-6.40541e-05
3.45599e-05
-4.62197e-05
2.16943e-05
-3.25404e-05
1.19276e-05
-2.22527e-05
4.69404e-06
-1.46772e-05
-4.95332e-07
-9.23422e-06
-4.04782e-06
-5.4423e-06
-6.29524e-06
-2.90812e-06
-7.50509e-06
-1.31308e-06
-7.89303e-06
-3.9978e-07
-7.63433e-06
3.99408e-08
-6.87349e-06
1.74969e-07
-5.7316e-06
1.42724e-07
-4.31169e-06
5.46473e-08
-2.70315e-06
-9.83567e-07
-0.000288587
0.000191015
0.000346937
-0.000234673
0.000151544
-0.000186774
0.00011686
-0.000145656
8.76682e-05
-0.000111394
6.35631e-05
-8.35717e-05
4.42378e-05
-6.14775e-05
2.90476e-05
-4.42754e-05
1.73578e-05
-3.11262e-05
8.54507e-06
-2.1257e-05
2.0584e-06
-1.39943e-05
-2.56869e-06
-8.77169e-06
-5.71794e-06
-5.12406e-06
-7.69544e-06
-2.67492e-06
-8.74438e-06
-1.12188e-06
-9.05813e-06
-2.22805e-07
-8.79211e-06
2.16259e-07
-8.0734e-06
3.50951e-07
-7.00818e-06
3.06355e-07
-5.687e-06
1.82852e-07
-4.18819e-06
6.01849e-08
-2.58048e-06
-9.23382e-07
-0.000226496
0.000136449
0.000281062
-0.000178752
0.0001038
-0.000138409
7.65169e-05
-0.000105161
5.44201e-05
-7.84232e-05
3.68252e-05
-5.7344e-05
2.31586e-05
-4.10312e-05
1.27348e-05
-2.86222e-05
4.94884e-06
-1.9347e-05
-7.30145e-07
-1.25467e-05
-4.74194e-06
-7.67456e-06
-7.44081e-06
-4.28599e-06
-9.1065e-06
-2.02368e-06
-9.95776e-06
-6.02429e-07
-1.01656e-05
2.04782e-07
-9.86534e-06
5.78606e-07
-9.16593e-06
6.62873e-07
-8.15766e-06
5.72032e-07
-6.91734e-06
3.96829e-07
-5.5118e-06
2.08677e-07
-4.00004e-06
6.26963e-08
-2.4345e-06
-8.60686e-07
-0.000167506
8.98148e-05
0.00021414
-0.000128435
6.47298e-05
-9.67021e-05
4.47837e-05
-7.13839e-05
2.91019e-05
-5.16036e-05
1.70449e-05
-3.64028e-05
7.9578e-06
-2.49209e-05
1.25296e-06
-1.64e-05
-3.57212e-06
-1.02035e-05
-6.92661e-06
-5.80917e-06
-9.13628e-06
-2.79545e-06
-1.04545e-05
-8.25642e-07
-1.10763e-05
3.6768e-07
-1.11511e-05
9.96463e-07
-1.07944e-05
1.22862e-06
-1.00975e-05
1.19717e-06
-9.13448e-06
1.00738e-06
-7.96787e-06
7.42091e-07
-6.65206e-06
4.65794e-07
-5.2355e-06
2.27697e-07
-3.76194e-06
6.40667e-08
-2.27087e-06
-7.96619e-07
-0.000115658
5.28748e-05
0.000152598
-8.58354e-05
3.49068e-05
-6.23476e-05
2.12959e-05
-4.41308e-05
1.08851e-05
-3.02688e-05
3.18285e-06
-1.9897e-05
-2.41406e-06
-1.22881e-05
-6.35594e-06
-6.83498e-06
-9.02519e-06
-3.04472e-06
-1.07169e-05
-5.21665e-07
-1.16593e-05
1.04874e-06
-1.20249e-05
1.9155e-06
-1.19431e-05
2.27532e-06
-1.15109e-05
2.28353e-06
-1.08026e-05
2.06272e-06
-9.87668e-06
1.70949e-06
-8.78125e-06
1.29961e-06
-7.55799e-06
8.91724e-07
-6.24418e-06
5.30366e-07
-4.87414e-06
2.48005e-07
-3.47958e-06
6.68191e-08
-2.08968e-06
-7.298e-07
-7.24527e-05
2.55624e-05
9.97651e-05
-5.11389e-05
1.3593e-05
-3.48036e-05
4.96063e-06
-2.25076e-05
-1.41097e-06
-1.34397e-05
-5.88504e-06
-6.90678e-06
-8.94695e-06
-2.3409e-06
-1.09218e-05
7.16978e-07
-1.20831e-05
2.63319e-06
-1.26331e-05
3.69807e-06
-1.27242e-05
4.14074e-06
-1.24676e-05
4.14177e-06
-1.19441e-05
3.84339e-06
-1.12125e-05
3.3576e-06
-1.03168e-05
2.77245e-06
-9.29153e-06
2.15687e-06
-8.16568e-06
1.56402e-06
-6.96513e-06
1.03426e-06
-5.71441e-06
5.96856e-07
-4.43674e-06
2.71942e-07
-3.15467e-06
7.13867e-08
-1.88913e-06
-6.58413e-07
-3.7662e-05
6.74136e-06
5.6483e-05
-2.35157e-05
-5.53224e-07
-1.30384e-05
-5.5167e-06
-5.48542e-06
-8.96397e-06
-2.06869e-07
-1.11636e-05
3.3175e-06
-1.24713e-05
5.50888e-06
-1.31132e-05
6.70074e-06
-1.32749e-05
7.15645e-06
-1.30888e-05
7.08297e-06
-1.26507e-05
6.64267e-06
-1.20273e-05
5.96292e-06
-1.12644e-05
5.14382e-06
-1.03934e-05
4.26386e-06
-9.43687e-06
3.38458e-06
-8.41226e-06
2.5535e-06
-7.3346e-06
1.80698e-06
-6.21861e-06
1.17134e-06
-5.07877e-06
6.64976e-07
-3.93038e-06
2.9873e-07
-2.78842e-06
7.7399e-08
-1.6678e-06
-5.81014e-07
-1.02882e-05
-5.04718e-06
2.20768e-05
-1.90576e-06
-8.93567e-06
3.91652e-06
-1.1339e-05
7.74359e-06
-1.2791e-05
1.00634e-05
-1.34834e-05
1.12496e-05
-1.36576e-05
1.1601e-05
-1.34647e-05
1.13502e-05
-1.30241e-05
1.06788e-05
-1.24174e-05
9.72795e-06
-1.16999e-05
8.60775e-06
-1.09071e-05
7.40396e-06
-1.00606e-05
6.18347e-06
-9.17293e-06
4.99869e-06
-8.25209e-06
3.89014e-06
-7.3037e-06
2.88916e-06
-6.33361e-06
2.01874e-06
-5.34819e-06
1.29549e-06
-4.35553e-06
7.29428e-07
-3.36431e-06
3.25651e-07
-2.38464e-06
8.39461e-08
-1.42609e-06
-4.97068e-07
1.05562e-05
-1.12326e-05
-4.37071e-06
1.44409e-05
-1.28204e-05
1.66601e-05
-1.35581e-05
1.76265e-05
-1.37575e-05
1.76873e-05
-1.35442e-05
1.70996e-05
-1.30698e-05
1.60642e-05
-1.24293e-05
1.47342e-05
-1.1694e-05
1.32266e-05
-1.09098e-05
1.1631e-05
-1.01043e-05
1.00161e-05
-9.29218e-06
8.43474e-06
-8.47924e-06
6.92803e-06
-7.66622e-06
5.52756e-06
-6.85162e-06
4.25789e-06
-6.03403e-06
3.13726e-06
-5.21299e-06
2.17925e-06
-4.39019e-06
1.39248e-06
-3.56875e-06
7.82002e-07
-2.75383e-06
3.48618e-07
-1.95126e-06
8.99375e-08
-1.16741e-06
-4.07131e-07
2.54301e-05
-1.31106e-05
-2.35521e-05
2.59219e-05
-1.33122e-05
2.54592e-05
-1.30954e-05
2.43242e-05
-1.26225e-05
2.27469e-05
-1.19669e-05
2.08919e-05
-1.12149e-05
1.8883e-05
-1.04205e-05
1.6811e-05
-9.62197e-06
1.47424e-05
-8.84118e-06
1.27265e-05
-8.08835e-06
1.07996e-05
-7.36536e-06
8.98932e-06
-6.66892e-06
7.31625e-06
-5.99315e-06
5.79637e-06
-5.33174e-06
4.4416e-06
-4.67926e-06
3.26093e-06
-4.03232e-06
2.26023e-06
-3.38949e-06
1.44324e-06
-2.75176e-06
8.10898e-07
-2.12149e-06
3.62291e-07
-1.50265e-06
9.3842e-08
-8.98963e-07
-3.13289e-07
3.45311e-05
-1.18835e-05
-3.57582e-05
3.26384e-05
-1.14194e-05
3.03409e-05
-1.07979e-05
2.78097e-05
-1.00913e-05
2.51796e-05
-9.33673e-06
2.2542e-05
-8.57726e-06
1.99609e-05
-7.8394e-06
1.74791e-05
-7.14021e-06
1.5125e-05
-6.48706e-06
1.29171e-05
-5.8804e-06
1.08676e-05
-5.31585e-06
8.98483e-06
-4.78617e-06
7.27479e-06
-4.28312e-06
5.74175e-06
-3.7987e-06
4.38891e-06
-3.32642e-06
3.21817e-06
-2.86158e-06
2.23062e-06
-2.40194e-06
1.42598e-06
-1.94712e-06
8.03282e-07
-1.49879e-06
3.60285e-07
-1.05965e-06
9.39157e-08
-6.32594e-07
-2.19373e-07
3.77963e-05
-8.73282e-06
-4.0947e-05
3.45033e-05
-8.12637e-06
3.11977e-05
-7.49233e-06
2.79622e-05
-6.85589e-06
2.48582e-05
-6.23271e-06
2.19218e-05
-5.64081e-06
1.91729e-05
-5.09049e-06
1.66196e-05
-4.58693e-06
1.4263e-05
-4.13049e-06
1.21003e-05
-3.71765e-06
1.01269e-05
-3.34248e-06
8.33843e-06
-2.99771e-06
6.731e-06
-2.67569e-06
5.30161e-06
-2.36931e-06
4.04783e-06
-2.07263e-06
2.96763e-06
-1.78138e-06
2.05882e-06
-1.49313e-06
1.31915e-06
-1.20745e-06
7.45978e-07
-9.25619e-07
3.36718e-07
-6.50393e-07
8.87152e-08
-3.84591e-07
-1.30658e-07
3.50418e-05
-4.86581e-06
-3.89088e-05
3.135e-05
-4.43449e-06
2.78737e-05
-4.01605e-06
2.46343e-05
-3.61647e-06
2.16432e-05
-3.24169e-06
1.89e-05
-2.89757e-06
1.63962e-05
-2.58669e-06
1.41187e-05
-2.3094e-06
1.20521e-05
-2.06391e-06
1.01813e-05
-1.84683e-06
8.49257e-06
-1.65378e-06
6.97467e-06
-1.4798e-06
5.61883e-06
-1.31985e-06
4.4187e-06
-1.16918e-06
3.36976e-06
-1.02369e-06
2.4686e-06
-8.8022e-07
1.71232e-06
-7.36846e-07
1.09791e-06
-5.93043e-07
6.22212e-07
-4.49918e-07
2.81982e-07
-3.10164e-07
7.47302e-08
-1.77338e-07
-5.59277e-08
2.60737e-05
-1.53258e-06
-2.9407e-05
2.30167e-05
-1.37743e-06
2.023e-05
-1.22932e-06
1.77041e-05
-1.09059e-06
1.5426e-05
-9.63584e-07
1.33783e-05
-8.49846e-07
1.15411e-05
-7.49583e-07
9.89407e-06
-6.62324e-07
8.41716e-06
-5.86998e-07
7.09248e-06
-5.22154e-07
5.90478e-06
-4.66085e-07
4.84192e-06
-4.1694e-07
3.89489e-06
-3.72824e-07
3.05758e-06
-3.31869e-07
2.32621e-06
-2.92322e-07
1.69864e-06
-2.52652e-07
1.17347e-06
-2.11682e-07
7.4922e-07
-1.68789e-07
4.23541e-07
-1.24239e-07
1.92872e-07
-7.94947e-08
5.26265e-08
-3.70921e-08
-3.30112e-09
1.07584e-05
-1.22722e-05
9.3948e-06
8.17553e-06
7.09206e-06
6.13335e-06
5.28665e-06
4.53892e-06
3.87748e-06
3.29065e-06
2.76815e-06
2.30135e-06
1.88345e-06
1.50952e-06
1.17647e-06
8.82949e-07
6.29122e-07
4.16332e-07
2.46538e-07
1.2143e-07
4.12337e-08
3.63922e-09
0.000298269
2.61924e-05
5.51924e-07
-0.000325013
0.000273011
2.46677e-05
5.90271e-07
0.000249148
2.32378e-05
6.25027e-07
0.0002266
2.18923e-05
6.55775e-07
0.000205291
2.06268e-05
6.82479e-07
0.000185147
1.94381e-05
7.05198e-07
0.000166101
1.83219e-05
7.24032e-07
0.000148088
1.7274e-05
7.39124e-07
0.000131048
1.629e-05
7.50641e-07
0.000114923
1.53657e-05
7.58749e-07
9.96639e-05
1.44957e-05
7.63509e-07
8.52272e-05
1.36721e-05
7.64665e-07
7.15858e-05
1.28801e-05
7.61289e-07
5.87404e-05
1.2094e-05
7.51439e-07
4.67347e-05
1.12737e-05
7.32021e-07
3.56682e-05
1.03673e-05
6.99123e-07
2.57001e-05
9.31939e-06
6.48722e-07
1.70398e-05
8.08261e-06
5.77654e-07
9.92494e-06
6.6305e-06
4.84414e-07
4.59028e-06
4.965e-06
3.69658e-07
1.23571e-06
3.11836e-06
2.36208e-07
1.14721e-06
8.85014e-08
0.000297867
5.28593e-05
-0.000324534
0.000272679
4.98561e-05
0.000248876
4.70405e-05
0.00022638
4.43887e-05
0.000205114
4.18923e-05
0.000185008
3.95446e-05
0.000165992
3.73372e-05
0.000148005
3.52616e-05
0.000130985
3.33099e-05
0.000114877
3.14733e-05
9.96313e-05
2.97417e-05
8.52045e-05
2.80989e-05
7.15701e-05
2.65145e-05
5.87294e-05
2.49347e-05
4.67265e-05
2.32765e-05
3.56617e-05
2.14321e-05
2.56947e-05
1.92864e-05
1.70356e-05
1.67417e-05
9.9221e-06
1.3744e-05
4.58887e-06
1.02982e-05
1.23538e-06
6.47185e-06
2.38259e-06
0.000296622
7.93233e-05
-0.000323086
0.000271609
7.48689e-05
0.000247957
7.06928e-05
0.000225591
6.67544e-05
0.00020444
6.30436e-05
0.000184433
5.9551e-05
0.000165506
5.62645e-05
0.000147595
5.31723e-05
0.000130643
5.02625e-05
0.000114593
4.75227e-05
9.93974e-05
4.49376e-05
8.50133e-05
4.2483e-05
7.14151e-05
4.01127e-05
5.86044e-05
3.77454e-05
4.66268e-05
3.52542e-05
3.55831e-05
3.24758e-05
2.56346e-05
2.92348e-05
1.69921e-05
2.53843e-05
9.89379e-06
2.08423e-05
4.5739e-06
1.56181e-05
1.23045e-06
9.8153e-06
3.61305e-06
0.000294885
0.000105477
-0.000321038
0.000270142
9.96115e-05
0.00024672
9.41153e-05
0.000224551
8.89234e-05
0.000203568
8.40264e-05
0.000183706
7.94129e-05
0.000164903
7.50681e-05
0.000147098
7.09771e-05
0.000130236
6.71248e-05
0.000114263
6.34953e-05
9.91317e-05
6.0069e-05
8.48014e-05
5.68133e-05
7.1247e-05
5.36672e-05
5.84718e-05
5.05206e-05
4.6522e-05
4.72039e-05
3.55011e-05
4.34967e-05
2.55715e-05
3.91645e-05
1.69461e-05
3.40097e-05
9.86349e-06
2.79249e-05
4.55789e-06
2.09237e-05
1.22536e-06
1.31478e-05
4.83841e-06
0.000292837
0.000131227
-0.000318588
0.000268442
0.000124006
0.000245314
0.000117244
0.000223395
0.000110842
0.000202625
0.000104796
0.000182944
9.90941e-05
0.000164293
9.37184e-05
0.000146618
8.86524e-05
0.000129864
8.38785e-05
0.000113982
7.93778e-05
9.89243e-05
7.51266e-05
8.46527e-05
7.10849e-05
7.11436e-05
6.71763e-05
5.84013e-05
6.32629e-05
4.6474e-05
5.91312e-05
3.54668e-05
5.45039e-05
2.55455e-05
4.90858e-05
1.69255e-05
4.26296e-05
9.84843e-06
3.5002e-05
4.54857e-06
2.62236e-05
1.22183e-06
1.64746e-05
6.06024e-06
0.000290878
0.000156517
-0.000316167
0.000266876
0.000148008
0.000244076
0.000140044
0.000222433
0.000132485
0.000201894
0.000125336
0.000182405
0.000118583
0.000163914
0.00011221
0.000146368
0.000106198
0.000129719
0.000100527
0.000113919
9.51777e-05
9.89246e-05
9.01214e-05
8.46978e-05
8.53116e-05
7.12171e-05
8.06569e-05
5.84879e-05
7.59922e-05
4.65603e-05
7.10588e-05
3.55418e-05
6.55225e-05
2.56026e-05
5.9025e-05
1.69623e-05
5.12698e-05
9.86737e-06
4.2097e-05
4.5552e-06
3.15358e-05
1.22228e-06
1.98075e-05
7.28252e-06
0.00028922
0.000181304
-0.000314007
0.000265641
0.000171586
0.000243188
0.000162497
0.00022183
0.000153843
0.000201524
0.000145642
0.000182224
0.000137883
0.000163885
0.00013055
0.000146459
0.000123624
0.000129901
0.000117085
0.000114168
0.000110911
9.92168e-05
0.000105072
8.50138e-05
9.95146e-05
7.15371e-05
9.41336e-05
5.87939e-05
8.87354e-05
4.68346e-05
8.30181e-05
3.57712e-05
7.65858e-05
2.57773e-05
6.90189e-05
1.70817e-05
5.99655e-05
9.93616e-06
4.92425e-05
4.58569e-06
3.68862e-05
1.22943e-06
2.31637e-05
8.51194e-06
0.000288043
0.000205561
-0.000312301
0.000264904
0.000194725
0.000242806
0.000184595
0.000221735
0.000174914
0.000201658
0.000165719
0.000182537
0.000157004
0.000164333
0.000148753
0.000147006
0.000140951
0.000130515
0.000133576
0.00011482
0.000126606
9.98822e-05
0.00012001
8.56694e-05
0.000113727
7.21616e-05
0.000107641
5.93652e-05
0.000101532
4.73339e-05
9.50495e-05
3.61806e-05
8.77391e-05
2.60887e-05
7.91108e-05
1.72933e-05
6.87609e-05
1.006e-05
5.64757e-05
4.64074e-06
4.23055e-05
1.2426e-06
2.65619e-05
9.75454e-06
0.000287479
0.000229273
-0.00031119
0.00026478
0.000217424
0.000243027
0.000206349
0.000222225
0.000195715
0.000202354
0.00018559
0.000183387
0.000175971
0.000165293
0.000166847
0.000148038
0.000158206
0.000131586
0.000150028
0.000115901
0.000142291
0.000100947
0.000134963
8.66933e-05
0.000127981
7.31197e-05
0.000121215
6.02336e-05
0.000114418
4.80872e-05
0.000107196
3.67995e-05
9.90267e-05
2.65591e-05
8.93512e-05
1.76172e-05
7.77028e-05
1.02511e-05
6.38418e-05
4.72905e-06
4.78276e-05
1.26524e-06
3.00257e-05
1.10198e-05
0.000287565
0.000252425
-0.000310717
0.000265313
0.000239676
0.000243907
0.000227755
0.000223369
0.000216253
0.000203689
0.00020527
0.000184853
0.000194808
0.000166837
0.000184863
0.000149618
0.000175426
0.000133164
0.000166482
0.000117445
0.00015801
0.00010243
0.000149979
8.80881e-05
0.000142323
7.44013e-05
0.000134902
6.13755e-05
0.000127444
4.90652e-05
0.000119506
3.75917e-05
0.0001105
2.71558e-05
9.97871e-05
1.80214e-05
8.68372e-05
1.04866e-05
7.13766e-05
4.83377e-06
5.34804e-05
1.29029e-06
3.35692e-05
1.23101e-05
0.000288292
0.000275009
-0.000310876
0.000266463
0.000261505
0.000245372
0.000248847
0.000225063
0.000236561
0.000205545
0.000224788
0.000186814
0.00021354
0.000168855
0.000202822
0.000151649
0.000192632
0.000135172
0.000182958
0.000119398
0.000173784
0.000104297
0.000165079
8.98431e-05
0.000156777
7.60154e-05
0.000148729
6.28191e-05
0.00014064
5.03063e-05
0.000132019
3.86033e-05
0.000122203
2.79207e-05
0.00011047
1.8544e-05
9.62139e-05
1.07935e-05
7.91271e-05
4.97448e-06
5.92994e-05
1.3268e-06
3.72169e-05
1.36369e-05
0.00028968
0.000296994
-0.000311665
0.000268302
0.000282883
0.000247539
0.000269609
0.00022745
0.000256649
0.000208063
0.000244175
0.000189391
0.000232212
0.000171434
0.000220778
0.000154185
0.000209881
0.000137626
0.000199517
0.000121736
0.000189674
0.000106492
0.000180324
9.18656e-05
0.000171403
7.78395e-05
0.000162756
6.44166e-05
0.000154063
5.16503e-05
0.000144785
3.9672e-05
0.000134181
2.87076e-05
0.000121434
1.90631e-05
0.000105858
1.10844e-05
8.71058e-05
5.09699e-06
6.52868e-05
1.35272e-06
4.09611e-05
1.49896e-05
0.00029154
0.000318389
-0.000312935
0.000270538
0.000303886
0.00025006
0.000290088
0.00023017
0.000276539
0.000210907
0.000263438
0.000192295
0.000250824
0.000174344
0.000238729
0.000157051
0.000227173
0.000140409
0.00021616
0.0001244
0.000205682
0.000109006
0.000195719
9.4201e-05
0.000186208
7.99661e-05
0.00017699
6.63011e-05
0.000167728
5.32562e-05
0.00015783
4.09663e-05
0.000146471
2.9671e-05
0.000132729
1.97043e-05
0.000115825
1.14464e-05
9.53638e-05
5.25325e-06
7.14799e-05
1.39008e-06
4.48243e-05
1.63797e-05
0.000293768
0.000338978
-0.000314358
0.000273245
0.000324409
0.000253069
0.000310264
0.000233346
0.000296262
0.000214151
0.000282632
0.000195533
0.000269442
0.000177516
0.000256746
0.000160112
0.000244578
0.00014332
0.000232952
0.000127131
0.000221872
0.000111528
0.000211322
9.64899e-05
0.000201246
8.19966e-05
0.000191484
6.80462e-05
0.000181678
5.46883e-05
0.000171188
4.20641e-05
0.000159095
3.04333e-05
0.00014436
2.01615e-05
0.000126097
1.16633e-05
0.000103862
5.31751e-06
7.78257e-05
1.39074e-06
4.87511e-05
1.77704e-05
0.000296298
0.000358825
-0.000316145
0.000276112
0.000344595
0.00025624
0.000330136
0.00023672
0.000315782
0.000217641
0.000301711
0.000199061
0.000288022
0.000181015
0.000274792
0.000163525
0.000262067
0.000146599
0.000249878
0.000130234
0.000238237
0.000114419
0.000227137
9.91323e-05
0.000216532
8.4353e-05
0.000206263
7.0076e-05
0.000195955
5.63515e-05
0.000184913
4.33311e-05
0.000172116
3.12981e-05
0.000156393
2.06547e-05
0.00013674
1.18574e-05
0.000112659
5.32216e-06
8.43609e-05
1.33623e-06
5.2737e-05
1.91066e-05
1.22552e-05
0.000361304
-1.47346e-05
9.71254e-06
0.000347138
7.2803e-06
0.000332568
4.86836e-06
0.000318194
2.48678e-06
0.000304093
1.30731e-07
0.000290378
-2.19874e-06
0.000277121
-4.49668e-06
0.000264365
-6.75601e-06
0.000252137
-8.96507e-06
0.000240446
-1.10982e-05
0.000229271
-1.30919e-05
0.000218526
-1.48126e-05
0.000207984
-1.60336e-05
0.000197176
-1.64598e-05
0.000185339
-1.58137e-05
0.00017147
-1.39639e-05
0.000154543
-1.10358e-05
0.000133812
-7.45357e-06
0.000109077
-3.88881e-06
8.07961e-05
-1.14408e-06
4.99923e-05
1.79626e-05
7.07465e-06
0.00036409
-9.86056e-06
4.42303e-06
0.000349789
1.81168e-06
0.00033518
-7.42184e-07
0.000320748
-3.22244e-06
0.000306573
-5.62913e-06
0.000292785
-7.9571e-06
0.000279449
-1.02014e-05
0.000266609
-1.23546e-05
0.000254291
-1.44026e-05
0.000242494
-1.6309e-05
0.000231177
-1.79906e-05
0.000220207
-1.92864e-05
0.00020928
-1.99535e-05
0.000197843
-1.97068e-05
0.000185092
-1.83183e-05
0.000170081
-1.57312e-05
0.000151956
-1.21526e-05
0.000130234
-8.06579e-06
0.00010499
-4.16728e-06
7.68976e-05
-1.23712e-06
4.70621e-05
1.67254e-05
1.83623e-06
0.000367094
-4.84034e-06
-9.26948e-07
0.000352552
-3.64125e-06
0.000337894
-6.2476e-06
0.000323354
-8.74414e-06
0.00030907
-1.11278e-05
0.000295169
-1.33939e-05
0.000281715
-1.55381e-05
0.000268754
-1.75528e-05
0.000256305
-1.94174e-05
0.000244358
-2.10817e-05
0.000232841
-2.24361e-05
0.000221562
-2.3294e-05
0.000210137
-2.33971e-05
0.000197947
-2.24806e-05
0.000184176
-2.0368e-05
0.000167969
-1.70856e-05
0.000148674
-1.29187e-05
0.000126067
-8.41118e-06
0.000100483
-4.27145e-06
7.27579e-05
-1.24793e-06
4.40386e-05
1.54775e-05
-3.40899e-06
0.000370214
2.89329e-07
-6.27153e-06
0.000355415
-9.04032e-06
0.000340663
-1.16593e-05
0.000325973
-1.41353e-05
0.000311546
-1.64628e-05
0.000297496
-1.86388e-05
0.000283891
-2.06597e-05
0.000270775
-2.2515e-05
0.00025816
-2.41757e-05
0.000246019
-2.55706e-05
0.000234236
-2.65647e-05
0.000222556
-2.69434e-05
0.000210516
-2.64481e-05
0.000197451
-2.48397e-05
0.000182567
-2.20135e-05
0.000165142
-1.80754e-05
0.000144736
-1.33963e-05
0.000121388
-8.55914e-06
9.56454e-05
-4.27197e-06
6.84707e-05
-1.22625e-06
4.09929e-05
1.42513e-05
-8.7664e-06
0.000373389
5.59102e-06
-1.16867e-05
0.000358335
-1.44594e-05
0.000343435
-1.70495e-05
0.000328563
-1.94666e-05
0.000313963
-2.17055e-05
0.000299735
-2.37652e-05
0.000285951
-2.5641e-05
0.000272651
-2.73178e-05
0.000259837
-2.87517e-05
0.000247453
-2.98495e-05
0.000235334
-3.04444e-05
0.000223151
-3.03071e-05
0.000210379
-2.91791e-05
0.000196323
-2.68725e-05
0.000180261
-2.33475e-05
0.000161617
-1.88078e-05
0.000140196
-1.36831e-05
0.000116263
-8.59565e-06
9.05579e-05
-4.22207e-06
6.40972e-05
-1.19405e-06
3.79648e-05
1.30572e-05
-1.43739e-05
0.000376579
1.11837e-05
-1.73074e-05
0.000361269
-2.00425e-05
0.000346171
-2.25676e-05
0.000331088
-2.48919e-05
0.000316287
-2.70127e-05
0.000301856
-2.89301e-05
0.000287868
-3.06377e-05
0.000274358
-3.21104e-05
0.00026131
-3.32877e-05
0.00024863
-3.40462e-05
0.000236093
-3.41958e-05
0.0002233
-3.34885e-05
0.000209672
-3.16934e-05
0.000194528
-2.86661e-05
0.000177233
-2.44626e-05
0.000157414
-1.93548e-05
0.000135088
-1.38476e-05
0.000110756
-8.56068e-06
8.5271e-05
-4.14611e-06
5.96826e-05
-1.15604e-06
3.49748e-05
1.19012e-05
-2.03823e-05
0.00037974
1.72215e-05
-2.32781e-05
0.000364165
-2.5934e-05
0.000348826
-2.83564e-05
0.000333511
-3.05537e-05
0.000318484
-3.25264e-05
0.000303829
-3.42746e-05
0.000289617
-3.57864e-05
0.00027587
-3.70246e-05
0.000262548
-3.7903e-05
0.000249508
-3.82717e-05
0.000236461
-3.79106e-05
0.000222939
-3.65767e-05
0.000208338
-3.40604e-05
0.000192012
-3.02978e-05
0.000173471
-2.54142e-05
0.00015253
-1.97798e-05
0.000129454
-1.39259e-05
0.000104902
-8.48703e-06
7.98321e-05
-4.05487e-06
5.52504e-05
-1.11692e-06
3.20368e-05
1.07842e-05
-2.70024e-05
0.00038283
2.39121e-05
-2.98125e-05
0.000366975
-3.23481e-05
0.000351362
-3.46284e-05
0.000335791
-3.6662e-05
0.000320518
-3.84525e-05
0.000305619
-3.99977e-05
0.000291162
-4.12774e-05
0.00027715
-4.22349e-05
0.000263506
-4.27575e-05
0.000250031
-4.26611e-05
0.000236365
-4.17115e-05
0.00022199
-3.96673e-05
0.000206293
-3.63749e-05
0.000188719
-3.18346e-05
0.00016893
-2.62765e-05
0.000146972
-2.01254e-05
0.000123303
-1.39624e-05
9.87392e-05
-8.39135e-06
7.42611e-05
-3.96079e-06
5.08199e-05
-1.07805e-06
2.91541e-05
9.70619e-06
-3.44305e-05
0.000385801
3.14599e-05
-3.71019e-05
0.000369646
-3.94715e-05
0.000353732
-4.15663e-05
0.000337886
-4.33958e-05
0.000322348
-4.49649e-05
0.000307188
-4.62665e-05
0.000292463
-4.72664e-05
0.00027815
-4.7884e-05