/*--------------------------------*- C++ -*----------------------------------*\
| =========                 |                                                 |
| \\      /  F ield         | OpenFOAM Extend Project: Open source CFD        |
|  \\    /   O peration     | Version:  1.6-ext                               |
|   \\  /    A nd           | Web:      www.extend-project.de                 |
|    \\/     M anipulation  |                                                 |
\*---------------------------------------------------------------------------*/
FoamFile
{
    version     2.0;
    format      ascii;
    class       volVectorField;
    location    "0.6";
    object      U;
}
// * * * * * * * * * * * * * * * * * * * * * * * * * * * * * * * * * * * * * //

dimensions      [0 1 -1 0 0 0 0];

internalField   nonuniform List<vector> 
20940
(
(1.8528 0.395359 -2.94813e-21)
(1.89277 0.415477 0)
(1.93063 0.434892 -4.0386e-21)
(1.96554 0.452555 4.47393e-21)
(1.99721 0.468682 6.02416e-24)
(2.02402 0.482156 0)
(2.04301 0.49188 0)
(2.04938 0.495916 -6.74268e-21)
(2.03674 0.492035 7.34483e-21)
(1.99795 0.477986 -9.26333e-21)
(1.9267 0.452207 0)
(1.81932 0.414432 0)
(1.67616 0.366058 -7.05864e-21)
(1.50205 0.310055 -7.8806e-21)
(1.30545 0.250422 0)
(1.09683 0.19143 -9.43464e-21)
(0.886814 0.136906 -1.04454e-20)
(0.684577 0.0897765 5.51355e-21)
(0.497019 0.0518773 0)
(0.328508 0.0240002 0)
(0.18111 0.00663893 0)
(0.0550622 0.000488925 5.18193e-21)
(1.87977 0.37167 9.12788e-21)
(1.91849 0.390643 0)
(1.95478 0.408255 0)
(1.98753 0.424146 -5.5114e-22)
(2.01594 0.437988 -1.97115e-21)
(2.03753 0.448585 1.62236e-20)
(2.04831 0.454537 2.16793e-20)
(2.04255 0.453816 1.37237e-20)
(2.01344 0.44435 -1.494e-20)
(1.95442 0.424438 9.20336e-21)
(1.86092 0.393411 0)
(1.73191 0.352049 0)
(1.57072 0.302654 7.01251e-21)
(1.38465 0.248667 7.82886e-21)
(1.18357 0.194003 0)
(0.978107 0.142348 -9.83563e-21)
(0.777926 0.096641 3.9163e-20)
(0.590698 0.0588575 5.3735e-21)
(0.421658 0.0299944 0)
(0.273711 0.0102145 0)
(0.147859 -0.000410723 1.25881e-20)
(0.0437272 -0.0014288 -2.53181e-20)
(1.90452 0.347928 -3.04032e-20)
(1.94166 0.365829 -1.80915e-21)
(1.97583 0.38175 1.82769e-20)
(2.00558 0.395889 -1.10077e-20)
(2.02934 0.407351 0)
(2.04361 0.414859 1.8994e-20)
(2.04336 0.416768 -1.93539e-20)
(2.02221 0.411118 -2.52393e-20)
(1.97352 0.396206 0)
(1.89209 0.371075 0)
(1.77574 0.336028 0)
(1.62647 0.292789 0)
(1.45038 0.24427 0)
(1.25661 0.194016 -2.92979e-20)
(1.05562 0.145526 -3.19885e-20)
(0.85737 0.101711 -3.53292e-20)
(0.670124 0.0646026 0)
(0.499828 0.0353261 4.06345e-20)
(0.350098 0.0142074 -4.22649e-20)
(0.222543 0.000951164 0)
(0.117287 -0.00466859 5.87322e-20)
(0.0334922 -0.00239371 -4.80535e-20)
(1.92813 0.324507 1.03505e-20)
(1.96322 0.341414 -5.25343e-22)
(1.99448 0.35569 -3.49039e-20)
(2.01993 0.367991 2.05597e-21)
(2.03699 0.376849 0)
(2.04107 0.380937 -3.72242e-20)
(2.02627 0.378492 -4.6678e-20)
(1.98606 0.367823 1.33002e-19)
(1.91481 0.347823 -6.03036e-20)
(1.80947 0.318426 -7.33247e-20)
(1.67085 0.280878 4.03677e-20)
(1.50397 0.237618 0)
(1.31719 0.191816 5.29812e-20)
(1.12063 0.146754 -2.72832e-20)
(0.924407 0.105269 -3.13413e-20)
(0.737197 0.0694136 1.17177e-19)
(0.565506 0.0403744 -3.53781e-20)
(0.413527 0.0185767 0)
(0.283396 0.00384737 -1.01644e-19)
(0.175637 -0.00441202 6.25772e-20)
(0.0896982 -0.00660984 4.41272e-20)
(0.024424 -0.00260529 9.4909e-21)
(1.95031 0.301485 0)
(1.98273 0.317403 3.01042e-20)
(2.00993 0.329997 1.93826e-20)
(2.02922 0.340272 -2.44419e-20)
(2.03683 0.346219 -3.13096e-20)
(2.02718 0.346553 3.70691e-20)
(1.99394 0.339568 -4.68393e-20)
(1.93124 0.324083 2.46819e-20)
(1.83535 0.299767 6.37955e-20)
(1.70612 0.267477 -3.33815e-20)
(1.54755 0.229234 -8.24432e-20)
(1.36726 0.187855 8.8763e-20)
(1.17498 0.146392 0)
(0.980834 0.107575 -5.56711e-20)
(0.793794 0.0734498 5.91311e-20)
(0.620802 0.0452437 -9.80509e-20)
(0.466508 0.0234329 1.03748e-19)
(0.333472 0.00791852 0)
(0.222583 -0.00180354 1.98229e-20)
(0.133527 -0.00650039 -4.06206e-20)
(0.0652842 -0.00666915 -8.52168e-20)
(0.0165266 -0.00222768 8.76201e-20)
(1.97058 0.278938 0)
(1.99935 0.293826 0)
(2.02081 0.304611 0)
(2.03137 0.312568 0)
(2.02605 0.315243 1.61304e-19)
(1.99864 0.311551 -3.32739e-20)
(1.94316 0.300079 -8.85663e-20)
(1.85538 0.280367 0)
(1.73434 0.252941 0)
(1.58318 0.219465 0)
(1.40879 0.182433 0)
(1.22052 0.144661 -8.85118e-20)
(1.02842 0.108759 9.49148e-20)
(0.841671 0.0767375 5.15732e-20)
(0.667554 0.0498494 5.76389e-20)
(0.511087 0.0286158 -6.09404e-20)
(0.375162 0.0129776 0)
(0.260952 0.00248575 0)
(0.168381 -0.00355014 0)
(0.0965462 -0.00596135 -1.80109e-20)
(0.0441456 -0.00526822 -1.97119e-20)
(0.0097987 -0.00141214 5.02501e-20)
(1.98852 0.25668 0)
(2.0121 0.270368 0)
(2.02537 0.279095 0)
(2.02376 0.284386 5.58447e-20)
(2.00136 0.283499 -1.9005e-19)
(1.95208 0.275758 -2.44039e-21)
(1.8713 0.26026 1.31871e-19)
(1.7574 0.237391 0)
(1.61277 0.208466 -5.91927e-20)
(1.44365 0.175693 1.35561e-19)
(1.25902 0.141661 -7.44061e-20)
(1.06885 0.108849 4.37163e-20)
(0.882454 0.0792193 -9.11538e-20)
(0.707383 0.0540328 -1.52993e-19)
(0.548956 0.0338495 1.08026e-19)
(0.410335 0.0186539 -1.75773e-19)
(0.292903 0.0080289 3.05744e-20)
(0.196754 0.00132727 1.00662e-19)
(0.121131 -0.00221661 -3.54696e-20)
(0.0647706 -0.00342569 -7.25777e-20)
(0.0262404 -0.00280293 9.62091e-20)
(0.00419506 -0.000295334 0)
(2.00266 0.234663 0)
(2.01884 0.246924 0)
(2.02064 0.253296 -4.58646e-20)
(2.00277 0.255584 0)
(1.95902 0.251009 6.44042e-20)
(1.88444 0.239524 -7.62879e-20)
(1.77687 0.220898 8.91582e-20)
(1.63802 0.19634 -5.38286e-20)
(1.47359 0.167724 1.73096e-19)
(1.2922 0.137446 -1.31135e-19)
(1.10375 0.107839 0)
(0.917685 0.0808097 -3.8408e-20)
(0.741774 0.0576152 4.34847e-20)
(0.58159 0.038847 0)
(0.440515 0.0245335 5.11636e-20)
(0.320097 0.0142996 1.70203e-19)
(0.220542 0.00752551 -8.83598e-20)
(0.141182 0.00348207 3.2522e-20)
(0.0808364 0.00140489 -3.43457e-20)
(0.0380627 0.000523118 1.06922e-19)
(0.011415 0.000371856 8.05156e-22)
(-0.000361024 0.00100432 3.24175e-22)
(2.0118 0.212336 0)
(2.01734 0.222803 0)
(2.00355 0.226506 4.54458e-20)
(1.96493 0.225652 0)
(1.896 0.217663 -6.76168e-20)
(1.79416 0.203263 7.44232e-20)
(1.66051 0.182907 -9.04612e-20)
(1.50026 0.158428 1.50655e-19)
(1.32172 0.131929 -1.11798e-19)
(1.13475 0.105633 -6.86796e-23)
(0.948892 0.0813717 6.96585e-20)
(0.77216 0.0603971 7.88429e-20)
(0.61035 0.0433264 -1.28859e-19)
(0.467029 0.0302323 9.1565e-20)
(0.343878 0.0207873 -1.51477e-19)
(0.241181 0.0144138 -1.57085e-21)
(0.158312 0.0104095 1.13908e-19)
(0.0941229 0.00804247 -9.26888e-20)
(0.0472187 0.00659579 3.00991e-20)
(0.0161167 0.00537239 1.67332e-19)
(-0.000567869 0.00395267 -3.45025e-20)
(-0.00396786 0.00238868 2.90884e-20)
(2.01252 0.189784 -6.64302e-20)
(2.00361 0.198171 -8.00873e-20)
(1.96984 0.199081 9.60704e-20)
(1.90656 0.195209 -5.66958e-20)
(1.81021 0.184442 -6.75752e-20)
(1.6815 0.168313 7.43832e-20)
(1.5251 0.147826 8.83954e-20)
(1.34912 0.125127 -9.90673e-20)
(1.16336 0.102197 2.2126e-19)
(0.977559 0.0808269 -1.21783e-19)
(0.799942 0.06224 0)
(0.636539 0.0470776 1.59555e-21)
(0.491098 0.035454 -1.6331e-19)
(0.365411 0.0270921 8.80253e-20)
(0.259821 0.0214639 9.65318e-20)
(0.173717 0.0179092 1.40383e-21)
(0.105949 0.0157237 -2.20063e-19)
(0.0551244 0.0142205 2.89327e-20)
(0.0197867 0.0127525 -3.14414e-20)
(-0.00149592 0.0107031 -6.48116e-20)
(-0.010003 0.00769752 1.27191e-21)
(-0.00673741 0.00378204 -1.10647e-21)
(2.00322 0.165972 -4.35786e-21)
(1.97505 0.172035 -9.02988e-21)
(1.91709 0.170274 -1.92903e-21)
(1.82636 0.16402 -1.08223e-21)
(1.70243 0.151702 0)
(1.54975 0.135467 0)
(1.37607 0.1166 -3.4178e-22)
(1.19128 0.0972055 6.51641e-22)
(1.00528 0.0788843 -1.06569e-19)
(0.826598 0.0628758 -5.92162e-20)
(0.66151 0.0498274 0)
(0.513949 0.0398985 1.71278e-21)
(0.385816 0.0328641 1.57013e-19)
(0.277496 0.0282511 -8.47995e-20)
(0.18838 0.0254507 4.55041e-20)
(0.117297 0.0238021 -4.88544e-20)
(0.0628275 0.0226474 5.21663e-20)
(0.0235032 0.0213685 5.71502e-20)
(-0.00208882 0.0193956 -1.48466e-19)
(-0.0152758 0.0161917 2.80746e-19)
(-0.0172147 0.0114236 -9.63149e-20)
(-0.00878597 0.0051285 -2.81325e-20)
(1.97785 0.142066 7.05327e-20)
(1.92704 0.145916 8.11115e-20)
(1.84211 0.142003 0)
(1.72377 0.134253 5.64181e-20)
(1.57503 0.121659 0)
(1.40381 0.106746 0)
(1.21988 0.0908017 -3.58083e-22)
(1.0335 0.075613 -1.89409e-19)
(0.853527 0.0622758 -1.81629e-21)
(0.686563 0.0514825 1.73576e-19)
(0.536765 0.0434144 6.32069e-20)
(0.406156 0.037897 7.05195e-20)
(0.295163 0.0345089 -1.67231e-21)
(0.203168 0.0326937 0)
(0.128965 0.0318391 -4.50484e-20)
(0.0710949 0.0313286 9.55803e-20)
(0.0280552 0.0305726 -5.17379e-20)
(-0.00158183 0.0290284 -5.3477e-20)
(-0.0191239 0.0262023 8.55002e-20)
(-0.0257676 0.0216312 0)
(-0.0225463 0.0150205 -9.48802e-20)
(-0.0102347 0.00639775 -3.53837e-22)
(1.93835 0.116046 -1.37785e-19)
(1.86019 0.11803 -8.62858e-20)
(1.74736 0.112965 9.56687e-20)
(1.60317 0.105094 0)
(1.43438 0.0939307 -6.54018e-20)
(1.25125 0.0818786 7.38742e-20)
(1.06418 0.0700231 -8.30303e-20)
(0.882549 0.0596519 -3.2246e-22)
(0.713336 0.0513707 1.01513e-19)
(0.560991 0.0454229 1.13438e-19)
(0.42769 0.0416737 -2.46707e-19)
(0.313911 0.039759 0)
(0.219021 0.039177 -1.48207e-19)
(0.141769 0.0393673 7.92062e-20)
(0.0806407 0.0397599 0)
(0.0340857 0.0398045 -4.66799e-20)
(0.000643115 0.0389864 9.89898e-20)
(-0.0210059 0.0368365 -1.56281e-19)
(-0.0320335 0.0329313 -5.68959e-20)
(-0.0334996 0.0268761 2.03489e-19)
(-0.0263229 0.0184144 -1.51569e-19)
(-0.0111939 0.00756938 0)
(1.8744 0.092358 0)
(1.77139 0.0931379 -8.72404e-20)
(1.63225 0.0877153 -2.62449e-21)
(1.46739 0.0807207 5.78147e-20)
(1.28546 0.071877 -1.28698e-19)
(1.09795 0.0632782 8.06478e-22)
(0.914524 0.0557248 -8.07411e-20)
(0.74281 0.0499621 0)
(0.587607 0.0461866 0)
(0.451332 0.0443091 0)
(0.334553 0.044002 1.81397e-19)
(0.236643 0.0448124 -2.62434e-19)
(0.156306 0.0462269 7.11305e-20)
(0.0919662 0.0477191 -1.00892e-21)
(0.042016 0.0487764 -8.33032e-20)
(0.00494875 0.0489146 4.46537e-20)
(-0.0205818 0.0476854 0)
(-0.0357527 0.0446832 0)
(-0.0415934 0.039545 0)
(-0.0390337 0.0319363 -2.71504e-20)
(-0.0288912 0.0216367 -1.17759e-19)
(-0.0117875 0.00866861 1.01351e-19)
(1.80265 0.0650253 5.87202e-22)
(1.66901 0.0655258 -8.27485e-20)
(1.50767 0.0620295 9.79197e-20)
(1.32739 0.0571501 1.13326e-19)
(1.13889 0.0521696 6.3027e-20)
(0.953167 0.048019 1.4242e-19)
(0.778209 0.0452701 8.01566e-20)
(0.619396 0.0441155 -8.76765e-20)
(0.479423 0.0444675 0)
(0.359023 0.0460563 -1.06463e-19)
(0.257605 0.0484995 -1.17283e-19)
(0.173844 0.0513588 -1.12335e-21)
(0.106093 0.054174 2.07197e-19)
(0.0526663 0.056484 -2.74909e-22)
(0.0119874 0.0578408 -7.89931e-20)
(-0.0173384 0.0578188 4.36212e-20)
(-0.0365136 0.0560215 0)
(-0.0465667 0.0520904 0)
(-0.0483898 0.0457099 -5.13952e-20)
(-0.0427931 0.0365972 1.12093e-21)
(-0.0305067 0.0245696 0)
(-0.0121003 0.00965854 -7.47127e-20)
(1.65624 0.0457871 1.19387e-19)
(1.49122 0.0435913 -9.22766e-20)
(1.30912 0.0421102 -5.53474e-20)
(1.12117 0.0402169 2.11432e-21)
(0.936937 0.0394576 0)
(0.76437 0.0397591 -7.52535e-20)
(0.608263 0.0413254 8.3809e-20)
(0.471076 0.0439832 0)
(0.353302 0.047497 -1.01804e-19)
(0.254189 0.0515504 2.21762e-19)
(0.17228 0.0557878 1.21397e-19)
(0.105829 0.0598298 9.55401e-22)
(0.0530722 0.0632846 -1.41693e-19)
(0.0123834 0.0657573 0)
(-0.0176616 0.0668601 2.47294e-19)
(-0.0382707 0.0662228 -1.75867e-19)
(-0.0504575 0.0635041 9.31994e-20)
(-0.0550782 0.0584035 0)
(-0.0528752 0.0506708 5.24442e-20)
(-0.0445319 0.0401043 1.63676e-19)
(-0.03068 0.0265989 -1.12631e-19)
(-0.0118342 0.0102377 -2.46432e-20)
(1.4043 0.024655 0)
(1.22001 0.0248914 4.95779e-20)
(1.03559 0.0278227 -1.11748e-21)
(0.858589 0.0302729 -1.8541e-19)
(0.695486 0.0341069 6.97996e-20)
(0.549869 0.0383872 0)
(0.423193 0.0432976 4.4097e-22)
(0.3153 0.0485497 -1.8768e-19)
(0.225032 0.0539558 -1.03406e-19)
(0.150717 0.059267 1.6842e-19)
(0.0905233 0.0642133 1.22889e-19)
(0.0426754 0.0684974 -6.62294e-20)
(0.00557803 0.0718016 0)
(-0.0221394 0.0737978 0)
(-0.0416209 0.0741597 -8.30248e-20)
(-0.0538092 0.0725771 0)
(-0.0594848 0.0687708 0)
(-0.0593072 0.062507 0)
(-0.053855 0.0536076 -5.1299e-20)
(-0.043668 0.0419518 -1.07874e-19)
(-0.0292515 0.0275101 2.23239e-19)
(-0.0110283 0.0103994 1.03068e-22)
(1.11949 0.0133822 1.71155e-21)
(0.93911 0.0166637 0)
(0.772351 0.023476 1.13693e-19)
(0.620033 0.0291338 0)
(0.486168 0.0358664 -7.11194e-20)
(0.370727 0.042427 0)
(0.273237 0.0490649 0)
(0.192163 0.0555137 9.56654e-20)
(0.125739 0.0616535 0)
(0.0721071 0.0672979 -5.71364e-20)
(0.029535 0.0722405 6.18036e-20)
(-0.00351195 0.0762409 -6.72443e-20)
(-0.0283363 0.079033 0)
(-0.046015 0.0803352 4.92459e-22)
(-0.0574259 0.0798657 3.57152e-22)
(-0.0632827 0.0773586 -4.41118e-20)
(-0.0641748 0.0725812 0)
(-0.0606025 0.0653491 4.87576e-20)
(-0.0530101 0.055537 5.17045e-20)
(-0.0418157 0.0430828 1.069e-19)
(-0.0274157 0.0280082 -2.72224e-20)
(-0.0101514 0.0104462 -9.39523e-20)
(0.838192 0.0088793 1.2179e-21)
(0.678916 0.0158555 5.27454e-20)
(0.540524 0.0251333 -5.83729e-20)
(0.41827 0.0329355 0)
(0.314724 0.0410829 7.26825e-20)
(0.227701 0.0485983 -8.03049e-20)
(0.155972 0.055739 -8.86791e-20)
(0.0975513 0.0623458 -4.46269e-22)
(0.0506698 0.0683723 1.05778e-19)
(0.0136464 0.0736978 -5.75645e-20)
(-0.0149733 0.078169 6.26647e-20)
(-0.0364207 0.0815879 -2.70385e-19)
(-0.0517099 0.0837228 1.4518e-19)
(-0.0616625 0.0843214 1.56233e-19)
(-0.0669395 0.0831287 -8.29192e-20)
(-0.0680756 0.079905 -4.44386e-22)
(-0.0655116 0.0744446 9.31511e-20)
(-0.0596231 0.066591 -1.95279e-19)
(-0.0507445 0.056248 0)
(-0.0391903 0.0433846 -1.05952e-19)
(-0.025261 0.0280465 1.36736e-19)
(-0.00922251 0.0103663 0)
(0.584009 0.0107184 -9.44321e-20)
(0.454831 0.0204557 0)
(0.347432 0.0303883 -6.01356e-20)
(0.254964 0.0389476 6.663e-20)
(0.178914 0.0471371 -2.21585e-19)
(0.116392 0.0544936 1.63213e-19)
(0.0660406 0.0612342 -8.94467e-20)
(0.0259669 0.0673101 -9.83775e-20)
(-0.00534599 0.0727199 5.35176e-20)
(-0.0292762 0.077386 1.16474e-19)
(-0.0469717 0.0811848 6.28902e-20)
(-0.0593841 0.083942 0)
(-0.0672852 0.085445 7.31611e-20)
(-0.0712951 0.0854583 -7.80236e-20)
(-0.0719104 0.0837424 0)
(-0.0695319 0.0800729 -4.42441e-20)
(-0.06449 0.0742585 0)
(-0.0570656 0.0661559 4.88929e-20)
(-0.0475067 0.0556804 0)
(-0.0360431 0.0428114 0)
(-0.0228954 0.0275959 0)
(-0.00826325 0.0101472 0)
(0.369165 0.0158627 0)
(0.271564 0.0266589 0)
(0.192829 0.0360813 0)
(0.126671 0.044294 6.76649e-20)
(0.07369 0.0516958 0)
(0.0312007 0.0582349 8.2623e-20)
(-0.00202494 0.0640882 0)
(-0.027566 0.0692865 9.93203e-20)
(-0.046635 0.0738512 -1.07675e-19)
(-0.0603083 0.0777305 -5.88446e-20)
(-0.0694684 0.0808178 -3.82358e-22)
(-0.07484 0.0829532 -3.40695e-20)
(-0.0770078 0.0839365 -7.33873e-20)
(-0.0764406 0.0835435 7.81977e-20)
(-0.0735137 0.0815452 -8.32245e-20)
(-0.0685303 0.0777261 8.78587e-20)
(-0.0617398 0.0719015 0)
(-0.0533528 0.0639313 0)
(-0.043552 0.0537295 -1.2568e-19)
(-0.0325001 0.0412708 1.0408e-19)
(-0.0203562 0.0265866 -2.6608e-20)
(-0.00727041 0.00975485 7.82978e-20)
(0.195613 0.0215954 0)
(0.12649 0.0317972 0)
(0.0721291 0.0400705 -6.16882e-20)
(0.0277887 0.0472446 6.8062e-20)
(-0.00657149 0.0534528 0)
(-0.033086 0.0588641 0)
(-0.0527917 0.0636338 4.55528e-20)
(-0.066918 0.0678373 1.00024e-19)
(-0.0764033 0.0715062 1.27366e-22)
(-0.0820671 0.074603 0)
(-0.0845782 0.0770318 -1.27777e-19)
(-0.0844839 0.0786439 1.0295e-19)
(-0.082226 0.0792502 3.66112e-20)
(-0.0781598 0.0786381 0)
(-0.072571 0.0765885 0)
(-0.0656917 0.072894 4.36937e-20)
(-0.0577128 0.0673743 9.21574e-20)
(-0.0487948 0.0598878 -1.20174e-19)
(-0.0390733 0.050341 2.51222e-20)
(-0.0286626 0.0386951 -1.28889e-19)
(-0.0176798 0.0249555 1.06318e-19)
(-0.00624553 0.00915598 2.20195e-20)
(0.0601812 0.0258657 4.98681e-20)
(0.0147662 0.034394 -5.52997e-20)
(-0.0197541 0.0411785 6.21598e-20)
(-0.0466263 0.0469992 -6.8568e-20)
(-0.0662617 0.0519011 0)
(-0.0802332 0.0561213 0)
(-0.0893871 0.0598023 -9.18893e-20)
(-0.094644 0.0630373 0)
(-0.0967141 0.0658617 -2.18759e-19)
(-0.0962085 0.0682473 1.77705e-19)
(-0.0936259 0.0701084 -3.20226e-20)
(-0.089374 0.0713083 0)
(-0.0837839 0.0716722 7.33712e-20)
(-0.0771236 0.0710019 -7.83123e-20)
(-0.0696116 0.0690923 -4.1379e-20)
(-0.0614277 0.065747 -4.39463e-20)
(-0.0527215 0.060792 -2.28701e-20)
(-0.0436197 0.0540856 -7.16955e-20)
(-0.0342272 0.0455267 1.24079e-19)
(-0.0246268 0.0350609 2.57362e-20)
(-0.0149134 0.0226647 2.6393e-20)
(-0.00519905 0.00832612 -1.09121e-20)
(-0.0414342 0.0275915 4.95955e-20)
(-0.0679319 0.0340393 0)
(-0.0867476 0.039202 0)
(-0.0999939 0.0435931 6.93081e-20)
(-0.108228 0.0472275 -7.62204e-20)
(-0.112567 0.0503222 0)
(-0.113679 0.0530042 1.38706e-19)
(-0.112232 0.0553653 -1.00684e-19)
(-0.108749 0.0574412 5.50063e-20)
(-0.103672 0.0592106 0)
(-0.0973623 0.0605987 -9.63235e-20)
(-0.0901154 0.0614843 -7.96588e-23)
(-0.0821738 0.0617107 -7.37223e-20)
(-0.0737373 0.0610993 7.83224e-20)
(-0.0649725 0.0594639 6.22935e-20)
(-0.0560202 0.056625 -2.17814e-20)
(-0.0470013 0.0524205 2.29626e-20)
(-0.0380209 0.0467146 0)
(-0.0291668 0.039404 -2.47919e-20)
(-0.0205058 0.030424 1.01652e-19)
(-0.0121274 0.0197263 -2.08298e-19)
(-0.00415411 0.0072596 8.78077e-23)
(-0.112594 0.0264543 1.23848e-22)
(-0.124489 0.0308935 0)
(-0.13127 0.0344969 6.2686e-20)
(-0.134268 0.0375408 -6.91207e-20)
(-0.134023 0.0400315 -3.82373e-20)
(-0.131306 0.0421329 -1.26704e-19)
(-0.126615 0.0439499 9.24238e-20)
(-0.120419 0.0455618 -5.06388e-20)
(-0.113082 0.0470011 -1.27815e-22)
(-0.10491 0.048252 5.95277e-20)
(-0.0961488 0.0492524 0)
(-0.0870049 0.0498992 0)
(-0.0776487 0.0500582 -3.67857e-20)
(-0.068225 0.0495752 5.87867e-20)
(-0.0588596 0.0482885 -2.07791e-20)
(-0.0496637 0.0460413 2.18681e-20)
(-0.0407376 0.0426913 -2.2781e-20)
(-0.0321734 0.0381168 9.49675e-20)
(-0.0240508 0.0322229 -1.10653e-19)
(-0.0164319 0.0249444 0)
(-0.00941439 0.0162211 0)
(-0.00314521 0.00597663 -8.48618e-20)
(-0.155216 0.0227557 -2.90638e-22)
(-0.156434 0.0255102 0)
(-0.154552 0.0277707 3.12323e-20)
(-0.150381 0.0296597 0)
(-0.144353 0.0311867 1.66656e-22)
(-0.136971 0.0324629 1.67578e-22)
(-0.128582 0.0335686 4.65122e-20)
(-0.119487 0.0345661 -7.59565e-20)
(-0.109923 0.0354823 -2.76792e-20)
(-0.100078 0.0363062 5.96742e-20)
(-0.090111 0.0369896 0)
(-0.0801507 0.0374503 -8.6407e-20)
(-0.0703109 0.0375797 7.37749e-20)
(-0.0606927 0.0372517 1.9642e-20)
(-0.0513895 0.0363335 0)
(-0.0424895 0.0346963 -1.08942e-19)
(-0.034077 0.0322231 1.14051e-19)
(-0.0262346 0.0288157 -1.18413e-20)
(-0.0190381 0.024398 -8.5686e-20)
(-0.0125505 0.0189193 8.8299e-20)
(-0.00688359 0.0123248 0)
(-0.0022159 0.00453538 0)
(-0.170025 0.0171617 -5.04071e-20)
(-0.16433 0.018646 0)
(-0.157044 0.019866 5.17564e-23)
(-0.148652 0.0208594 -3.47118e-20)
(-0.139437 0.0216436 3.86046e-20)
(-0.129702 0.0222889 4.25163e-20)
(-0.119656 0.0228523 4.66523e-20)
(-0.109471 0.0233781 -2.53067e-20)
(-0.0992739 0.0238871 -2.7694e-20)
(-0.0891664 0.0243727 1.4973e-20)
(-0.0792303 0.0248013 0)
(-0.0695374 0.0251132 -6.92919e-20)
(-0.0601556 0.0252281 1.29408e-19)
(-0.051152 0.0250507 -9.8174e-20)
(-0.0425953 0.0244797 0)
(-0.0345554 0.0234159 2.18315e-20)
(-0.0271036 0.0217713 0)
(-0.0203131 0.0194747 1.13378e-23)
(-0.0142541 0.016478 -1.2244e-20)
(-0.00898857 0.0127577 6.91368e-20)
(-0.00463794 0.00828729 -5.14412e-20)
(-0.00140864 0.00301803 0)
(-0.157153 0.0107791 -5.00714e-20)
(-0.148287 0.0114168 -1.40788e-20)
(-0.138852 0.01193 -1.57074e-20)
(-0.129145 0.0123167 3.5055e-20)
(-0.119303 0.0126003 -9.65972e-20)
(-0.109488 0.0128223 4.24631e-20)
(-0.0997969 0.0130189 0)
(-0.0903039 0.0132183 0)
(-0.0810558 0.0134348 -1.38795e-20)
(-0.0720854 0.0136663 -3.00621e-20)
(-0.0634196 0.0138938 0)
(-0.0550858 0.0140812 1.73749e-20)
(-0.0471175 0.0141776 9.26816e-21)
(-0.0395561 0.0141206 1.96916e-20)
(-0.0324513 0.0138411 0)
(-0.0258593 0.0132699 1.0933e-20)
(-0.0198406 0.0123454 0)
(-0.0144583 0.0110211 5.33407e-20)
(-0.009773 0.00927453 -8.57665e-20)
(-0.00583732 0.00711246 -6.1936e-21)
(-0.00276467 0.00455003 4.50218e-20)
(-0.000764658 0.00159852 0)
(-0.116458 0.00466788 0)
(-0.108193 0.00481981 2.11968e-20)
(-0.0998913 0.00491601 1.5769e-20)
(-0.0917672 0.00495503 0)
(-0.0838488 0.00495933 1.93848e-20)
(-0.0762036 0.00494997 1.06857e-20)
(-0.0688543 0.00494387 0)
(-0.0618116 0.00495381 0)
(-0.0550715 0.00498671 6.95041e-21)
(-0.0486251 0.00504303 -4.53053e-20)
(-0.0424645 0.00511613 9.74532e-20)
(-0.036588 0.00519185 -3.91936e-20)
(-0.0310043 0.00524841 9.29619e-21)
(-0.0257342 0.00525692 0)
(-0.0208115 0.00518264 5.22649e-21)
(-0.0162799 0.00498761 -5.45759e-21)
(-0.0121904 0.00463494 0)
(-0.00859739 0.00409553 5.93871e-21)
(-0.00555064 0.00335901 0)
(-0.00308724 0.00244651 0)
(-0.00128247 0.00141153 5.78583e-20)
(-0.000297664 0.000362753 -4.19527e-20)
(-0.0479229 0.000622325 -2.48083e-20)
(-0.0440243 0.000624771 2.05101e-20)
(-0.0401667 0.000613965 3.08284e-20)
(-0.0365137 0.000590597 -3.38947e-20)
(-0.0330477 0.000563987 0)
(-0.0297867 0.000539174 -1.03266e-20)
(-0.0267227 0.000519469 2.26071e-20)
(-0.0238434 0.000507283 -2.46345e-20)
(-0.0211313 0.00050427 6.69207e-21)
(-0.0185676 0.000511386 0)
(-0.0161353 0.000528706 0)
(-0.0138213 0.000555103 4.16669e-21)
(-0.0116192 0.000587776 -3.56205e-20)
(-0.00953089 0.000621695 3.77615e-20)
(-0.00756763 0.000649034 -4.4815e-20)
(-0.00575094 0.000658833 3.66146e-20)
(-0.00411195 0.000637288 0)
(-0.00268996 0.000569521 4.53296e-20)
(-0.00152765 0.000444581 -4.6888e-20)
(-0.000661582 0.000264405 0)
(-0.000129544 5.57141e-05 0)
(1.89478e-05 -9.22753e-05 -4.04986e-20)
(1.13641 0.0264147 -3.32334e-20)
(1.09035 0.0281716 0)
(1.04226 0.0299737 1.35304e-24)
(0.992015 0.0318221 2.58094e-20)
(0.939734 0.0337227 -2.77081e-20)
(0.885499 0.0356821 -6.45477e-20)
(0.829403 0.0377033 -1.82683e-20)
(0.771552 0.0397873 0)
(0.712064 0.0419337 -4.58862e-20)
(0.65107 0.0441398 2.4959e-20)
(0.588714 0.0463977 -2.80523e-20)
(0.525163 0.048683 -5.75537e-22)
(0.460632 0.0509311 -1.68885e-20)
(0.395455 0.0529976 3.50961e-20)
(0.330184 0.0546147 0)
(0.265718 0.0553631 2.44614e-24)
(0.203423 0.0546835 0)
(0.145182 0.0519338 3.31676e-20)
(0.0932568 0.0464849 -2.29228e-20)
(0.0500476 0.0378282 0)
(0.0187948 0.0256399 1.21753e-20)
(0.00353854 0.00983259 -1.2268e-24)
(1.14092 0.0823811 2.07454e-21)
(1.09532 0.0882559 -3.76545e-20)
(1.04784 0.0944028 4.48848e-20)
(0.998192 0.100792 -1.00633e-19)
(0.946501 0.107416 2.8249e-20)
(0.892858 0.11428 9.81891e-20)
(0.837354 0.121379 -9.12547e-20)
(0.780096 0.128708 -2.27432e-21)
(0.721204 0.13626 2.041e-20)
(0.660807 0.144018 9.8949e-20)
(0.599048 0.15195 -5.5565e-20)
(0.536087 0.159968 8.91288e-20)
(0.472129 0.167843 -1.58315e-20)
(0.407472 0.175075 -3.46073e-20)
(0.342611 0.180752 3.69627e-20)
(0.278353 0.183465 0)
(0.215941 0.181353 0)
(0.157111 0.172297 -1.09885e-20)
(0.103978 0.154235 9.11556e-20)
(0.0588176 0.12551 2.3808e-20)
(0.0247797 0.0850762 -1.08659e-19)
(0.00586261 0.0326579 -7.95037e-20)
(1.14971 0.138342 0)
(1.10507 0.148351 -7.6845e-20)
(1.05884 0.158765 1.70145e-19)
(1.01037 0.169576 0)
(0.959864 0.180774 -5.74937e-20)
(0.907415 0.192369 2.53621e-19)
(0.853112 0.20436 -3.37919e-20)
(0.797067 0.216739 -1.59514e-19)
(0.739397 0.229495 2.64758e-19)
(0.680231 0.242605 2.24594e-21)
(0.619708 0.256014 -1.06483e-19)
(0.557977 0.269574 -2.96491e-20)
(0.495212 0.282896 -9.59646e-20)
(0.431645 0.295135 1.70356e-19)
(0.367649 0.304745 -3.69229e-20)
(0.303842 0.309343 0)
(0.24121 0.305786 1.63527e-19)
(0.181199 0.290501 -1.2811e-19)
(0.125629 0.260021 0)
(0.0765219 0.211564 -2.31991e-20)
(0.0368561 0.143386 0)
(0.0105506 0.0550377 5.856e-20)
(1.16183 0.191556 1.24134e-19)
(1.11874 0.205579 0)
(1.07447 0.22012 -8.50139e-20)
(1.02787 0.235234 0)
(0.979215 0.250896 -1.10685e-19)
(0.928617 0.26712 3.34249e-22)
(0.876166 0.283902 -7.01024e-20)
(0.821977 0.301232 7.58295e-20)
(0.766171 0.319093 -8.71476e-20)
(0.708877 0.337454 -1.91777e-19)
(0.650229 0.356239 2.06071e-19)
(0.590362 0.375239 5.55188e-20)
(0.529404 0.393911 -6.00518e-20)
(0.46749 0.41107 0)
(0.40481 0.42455 0)
(0.341699 0.431019 0)
(0.278765 0.426083 -1.19078e-19)
(0.217015 0.404763 1.21759e-19)
(0.157829 0.362239 -1.70856e-19)
(0.10286 0.294664 2.18661e-19)
(0.0548239 0.199649 1.38262e-19)
(0.0175232 0.0766069 -2.79148e-19)
(1.17727 0.242158 4.7495e-22)
(1.13625 0.260064 1.43808e-19)
(1.09458 0.278532 -1.58775e-19)
(1.05044 0.297744 0)
(1.00424 0.317655 -1.06301e-19)
(0.956095 0.338281 2.36636e-19)
(0.906096 0.359622 0)
(0.854368 0.381666 6.91238e-20)
(0.801033 0.404394 1.66405e-19)
(0.746222 0.427767 -3.62925e-19)
(0.690063 0.451692 1.97066e-19)
(0.632671 0.475902 -5.53413e-20)
(0.574116 0.499707 2.95507e-19)
(0.514403 0.521594 -5.02521e-19)
(0.453482 0.538801 3.31636e-19)
(0.391312 0.547077 3.52877e-19)
(0.328003 0.540825 -3.35222e-19)
(0.263982 0.513719 0)
(0.200058 0.459656 0)
(0.137397 0.373796 -2.50726e-19)
(0.0783812 0.253172 2.15693e-19)
(0.0266591 0.0970988 0)
(1.19558 0.288859 -4.53417e-23)
(1.15717 0.310475 1.31975e-19)
(1.11872 0.332633 6.62015e-21)
(1.07763 0.355711 -1.72537e-19)
(1.03446 0.37963 0)
(0.989349 0.40441 0)
(0.942382 0.430056 0)
(0.893691 0.456555 -2.85989e-19)
(0.843405 0.483886 1.53964e-19)
(0.791654 0.512005 8.99942e-20)
(0.738564 0.540805 -2.77101e-19)
(0.684223 0.569967 0)
(0.628632 0.598664 2.21507e-19)
(0.571639 0.625075 -5.8604e-19)
(0.512898 0.645871 3.76901e-19)
(0.451908 0.655922 -3.33199e-19)
(0.38816 0.648485 2.7869e-19)
(0.321374 0.615954 -5.80567e-19)
(0.251657 0.551027 3.00805e-19)
(0.179591 0.447955 -3.0927e-19)
(0.107151 0.303273 6.42504e-19)
(0.0378059 0.116249 -1.31355e-19)
(1.21634 0.33108 -1.08075e-19)
(1.18103 0.356178 0)
(1.14636 0.381728 1.48968e-19)
(1.10884 0.408377 -1.67871e-19)
(1.06923 0.436005 -1.86923e-19)
(1.02767 0.464636 3.09949e-19)
(0.984255 0.494279 0)
(0.939131 0.524923 0)
(0.89243 0.556544 0)
(0.844283 0.589096 8.26563e-20)
(0.794809 0.622456 9.04139e-20)
(0.744071 0.656265 0)
(0.691989 0.68957 0)
(0.638225 0.720268 1.13437e-19)
(0.582087 0.744498 6.02853e-20)
(0.52253 0.756304 0)
(0.458318 0.747861 0)
(0.388336 0.710359 0)
(0.311872 0.635382 -2.76256e-19)
(0.228827 0.516368 3.59886e-20)
(0.140715 0.349435 2.93041e-19)
(0.0507991 0.133864 0)
(1.23886 0.368127 -3.03231e-19)
(1.20715 0.396459 2.37535e-19)
(1.17677 0.425087 -1.40155e-19)
(1.14331 0.454985 3.00623e-19)
(1.10776 0.485976 1.79798e-19)
(1.07024 0.518094 -1.01194e-19)
(1.03087 0.551357 -2.21445e-19)
(0.989791 0.585757 3.69647e-19)
(0.947152 0.621276 -1.37342e-19)
(0.903087 0.657869 2.97083e-19)
(0.857713 0.695405 -1.65684e-19)
(0.811064 0.733492 0)
(0.762976 0.771074 0)
(0.712908 0.805794 0)
(0.659776 0.833307 0)
(0.601918 0.846888 0)
(0.537265 0.837694 -5.44831e-20)
(0.463749 0.79579 5.64013e-20)
(0.379721 0.711736 0)
(0.28432 0.578251 -2.56317e-19)
(0.178547 0.391132 3.24784e-19)
(0.0654309 0.149743 2.19584e-19)
(1.26238 0.399429 3.90632e-19)
(1.23474 0.430667 -2.16302e-19)
(1.20907 0.462003 -1.29789e-19)
(1.18007 0.494795 -3.11984e-21)
(1.14896 0.528799 -4.10861e-21)
(1.1159 0.564056 0)
(1.08099 0.60059 0)
(1.0444 0.638394 1.15919e-19)
(1.00628 0.677448 -1.07908e-20)
(0.966764 0.717709 0)
(0.925973 0.759042 -1.52596e-19)
(0.883909 0.801031 1.49073e-19)
(0.840318 0.842538 0)
(0.794435 0.88099 0)
(0.744749 0.911613 -1.87214e-19)
(0.688905 0.926977 1.9713e-19)
(0.623907 0.917298 5.42307e-20)
(0.546614 0.871603 -2.66186e-19)
(0.454338 0.779517 2.17858e-19)
(0.345381 0.63314 0)
(0.220184 0.428051 -2.93932e-19)
(0.0815227 0.163773 1.91971e-19)
(1.28601 0.424836 1.73842e-19)
(1.26293 0.458695 -2.0567e-19)
(1.24238 0.492386 2.27101e-19)
(1.21826 0.527672 0)
(1.19201 0.564234 -1.52447e-19)
(1.16376 0.602142 0)
(1.13365 0.641435 0)
(1.10187 0.682118 0)
(1.06858 0.724185 -2.20702e-19)
(1.03394 0.767598 0)
(0.998062 0.812227 2.60243e-19)
(0.96093 0.85765 -4.26776e-19)
(0.922206 0.902671 2.95956e-19)
(0.880904 0.944549 -3.14762e-19)
(0.835059 0.978133 0)
(0.781571 0.995356 7.88049e-20)
(0.71642 0.985562 1.74093e-19)
(0.635278 0.936808 -3.60769e-19)
(0.534308 0.837877 3.70156e-19)
(0.410897 0.680351 -2.33461e-19)
(0.264891 0.459713 -1.96908e-19)
(0.0987879 0.175761 1.6363e-19)
(1.30886 0.443861 1.53696e-19)
(1.29069 0.479891 0)
(1.27546 0.515553 1.05919e-19)
(1.25643 0.553007 -1.16653e-19)
(1.2353 0.591835 0)
(1.21219 0.632109 0)
(1.18725 0.673866 0)
(1.16067 0.717113 0)
(1.13264 0.761846 -9.29109e-20)
(1.1033 0.808034 4.24959e-19)
(1.07278 0.855555 -4.56933e-19)
(1.04105 0.903986 2.44671e-19)
(1.00767 0.952098 0)
(0.971438 0.997024 2.66721e-19)
(0.929902 1.0333 -2.82646e-19)
(0.879158 1.05231 -2.06557e-21)
(0.814072 1.04261 -1.48669e-19)
(0.729032 0.9914 1.47302e-19)
(0.618966 0.886719 -1.53154e-19)
(0.480298 0.719746 1.97696e-19)
(0.312264 0.485996 -1.94455e-19)
(0.117065 0.185663 0)
(1.33001 0.457249 -1.51406e-19)
(1.31735 0.495222 -8.6284e-21)
(1.30781 0.53243 3.78368e-19)
(1.2942 0.571487 -2.10374e-19)
(1.2784 0.611935 0)
(1.26055 0.653892 0)
(1.24084 0.697421 -1.45212e-19)
(1.21952 0.742543 -3.56984e-22)
(1.19679 0.789266 3.33843e-19)
(1.17282 0.837572 -1.84224e-19)
(1.14774 0.887357 1.98578e-19)
(1.12152 0.938221 0)
(1.09367 0.988942 -1.00505e-19)
(1.06278 1.03658 1.0314e-19)
(1.02592 1.07544 0)
(0.978371 1.0964 1.17181e-19)
(0.9138 1.08729 2.29462e-19)
(0.825186 1.03448 -1.88857e-19)
(0.706088 0.925322 5.06989e-20)
(0.551892 0.750734 2.54023e-20)
(0.361206 0.506444 1.57925e-19)
(0.13593 0.193273 -1.85104e-19)
(1.34848 0.463851 -2.02645e-21)
(1.34142 0.503309 -9.34225e-21)
(1.33748 0.541953 -3.33591e-19)
(1.32949 0.582583 7.48907e-21)
(1.31934 0.624635 0)
(1.30715 0.668225 -6.29812e-21)
(1.29313 0.713424 1.27278e-19)
(1.27753 0.760263 0)
(1.26058 0.808763 -1.12201e-20)
(1.24246 0.858915 7.11378e-20)
(1.22331 0.910628 -3.35386e-19)
(1.2031 0.963516 5.7999e-21)
(1.18128 1.01637 3.65471e-19)
(1.1562 1.0662 7.68858e-20)
(1.12445 1.10712 -1.89768e-19)
(1.08041 1.12961 -9.1303e-20)
(1.01649 1.1209 -3.78198e-20)
(0.924197 1.06671 -5.07786e-20)
(0.795708 0.9539 -1.61447e-20)
(0.625418 0.773276 4.1013e-20)
(0.411374 0.52094 1.65786e-20)
(0.155201 0.198527 -9.44976e-20)
(1.3638 0.466673 0)