/*--------------------------------*- C++ -*----------------------------------*\
| =========                 |                                                 |
| \\      /  F ield         | OpenFOAM Extend Project: Open source CFD        |
|  \\    /   O peration     | Version:  1.6-ext                               |
|   \\  /    A nd           | Web:      www.extend-project.de                 |
|    \\/     M anipulation  |                                                 |
\*---------------------------------------------------------------------------*/
FoamFile
{
    version     2.0;
    format      ascii;
    class       volVectorField;
    location    "0.6";
    object      U_0;
}
// * * * * * * * * * * * * * * * * * * * * * * * * * * * * * * * * * * * * * //

dimensions      [0 1 -1 0 0 0 0];

internalField   nonuniform List<vector> 
20940
(
(1.85281 0.395336 -2.92493e-21)
(1.89279 0.415454 0)
(1.93065 0.434869 -4.02451e-21)
(1.96556 0.452533 4.45831e-21)
(1.99723 0.46866 6.00744e-24)
(2.02405 0.482135 0)
(2.04304 0.49186 0)
(2.04942 0.495898 -6.73162e-21)
(2.03678 0.492019 7.33278e-21)
(1.99799 0.477973 -9.25038e-21)
(1.92675 0.452197 0)
(1.81937 0.414425 0)
(1.67623 0.366055 -7.05071e-21)
(1.50211 0.310053 -7.87218e-21)
(1.30551 0.250422 0)
(1.09689 0.191431 -9.42526e-21)
(0.886863 0.136907 -1.04355e-20)
(0.684618 0.0897774 5.50841e-21)
(0.497052 0.0518779 0)
(0.328531 0.0240004 0)
(0.181124 0.0066389 0)
(0.0550669 0.000488875 5.17728e-21)
(1.87979 0.371643 9.08172e-21)
(1.91851 0.390616 0)
(1.9548 0.408229 0)
(1.98755 0.424121 -5.51203e-22)
(2.01597 0.437963 -1.97134e-21)
(2.03756 0.448561 1.61863e-20)
(2.04835 0.454515 2.16388e-20)
(2.04259 0.453797 1.37017e-20)
(2.01348 0.444333 -1.49161e-20)
(1.95447 0.424425 9.19048e-21)
(1.86098 0.3934 0)
(1.73197 0.352042 0)
(1.57079 0.302649 7.00463e-21)
(1.38472 0.248664 7.82049e-21)
(1.18364 0.194002 0)
(0.978163 0.142347 -9.82635e-21)
(0.777975 0.0966405 3.91238e-20)
(0.590738 0.058857 5.36839e-21)
(0.421689 0.0299938 0)
(0.273733 0.0102138 0)
(0.147872 -0.000411298 1.25769e-20)
(0.0437315 -0.00142904 -2.52949e-20)
(1.90454 0.347898 -3.02653e-20)
(1.94168 0.365799 -1.80931e-21)
(1.97585 0.381721 1.82207e-20)
(2.00561 0.39586 -1.09768e-20)
(2.02937 0.407323 0)
(2.04364 0.414833 1.89571e-20)
(2.0434 0.416745 -1.93132e-20)
(2.02225 0.411097 -2.51953e-20)
(1.97358 0.396188 0)
(1.89215 0.37106 0)
(1.77581 0.336017 0)
(1.62654 0.292781 0)
(1.45044 0.244265 0)
(1.25668 0.194012 -2.92645e-20)
(1.05568 0.145524 -3.19531e-20)
(0.857426 0.101709 -3.52919e-20)
(0.670171 0.0646008 0)
(0.499866 0.0353244 4.05936e-20)
(0.350128 0.0142058 -4.22224e-20)
(0.222564 0.000949741 0)
(0.117299 -0.00466963 5.86757e-20)
(0.0334961 -0.00239409 -4.8007e-20)
(1.92815 0.324474 1.03046e-20)
(1.96324 0.341381 -5.25299e-22)
(1.99451 0.355658 -3.47918e-20)
(2.01996 0.367959 2.05619e-21)
(2.03702 0.376819 0)
(2.0411 0.380909 -3.71505e-20)
(2.02632 0.378466 -4.65978e-20)
(1.98611 0.367801 1.32783e-19)
(1.91487 0.347804 -6.02088e-20)
(1.80953 0.318411 -7.32228e-20)
(1.67092 0.280867 4.03127e-20)
(1.50404 0.237609 0)
(1.31726 0.191809 5.29186e-20)
(1.1207 0.146749 -2.72497e-20)
(0.924469 0.105265 -3.1306e-20)
(0.737251 0.0694102 1.17046e-19)
(0.565551 0.0403713 -3.53389e-20)
(0.413563 0.0185739 0)
(0.283424 0.00384487 -1.01537e-19)
(0.175656 -0.00441407 6.25112e-20)
(0.089709 -0.00661124 4.40819e-20)
(0.0244275 -0.00260579 9.48158e-21)
(1.95033 0.301448 0)
(1.98275 0.317366 3.00034e-20)
(2.00995 0.329962 1.9327e-20)
(2.02925 0.340238 -2.43807e-20)
(2.03687 0.346187 -3.12427e-20)
(2.02722 0.346523 3.69957e-20)
(1.99399 0.339541 -4.67596e-20)
(1.9313 0.32406 2.46382e-20)
(1.83541 0.299749 6.37016e-20)
(1.70619 0.267462 -3.33304e-20)
(1.54763 0.229222 -8.23341e-20)
(1.36733 0.187846 8.86456e-20)
(1.17505 0.146384 0)
(0.980902 0.107569 -5.56045e-20)
(0.793855 0.0734447 5.90603e-20)
(0.620854 0.0452392 -9.79391e-20)
(0.466551 0.0234288 1.0363e-19)
(0.333505 0.0079148 0)
(0.222608 -0.00180674 1.98017e-20)
(0.133544 -0.00650292 -4.05765e-20)
(0.0652939 -0.00667083 -8.51261e-20)
(0.0165297 -0.00222826 8.75266e-20)
(1.9706 0.278898 0)
(1.99937 0.293787 0)
(2.02084 0.304573 0)
(2.0314 0.312531 0)
(2.02609 0.315209 1.60972e-19)
(1.99868 0.311521 -3.32005e-20)
(1.94322 0.300052 -8.84074e-20)
(1.85544 0.280344 0)
(1.73442 0.252922 0)
(1.58326 0.219451 0)
(1.40887 0.182421 0)
(1.22059 0.144652 -8.83951e-20)
(1.02849 0.108751 9.47897e-20)
(0.841737 0.0767308 5.15066e-20)
(0.667612 0.0498433 5.75684e-20)
(0.511136 0.0286104 -6.08658e-20)
(0.375202 0.0129726 0)
(0.260983 0.00248134 0)
(0.168403 -0.00355386 0)
(0.0965614 -0.00596423 -1.79887e-20)
(0.0441541 -0.00527007 -1.96891e-20)
(0.0098014 -0.00141277 5.01938e-20)
(1.98854 0.256635 0)
(2.01213 0.270325 0)
(2.0254 0.279054 0)
(2.02379 0.284347 5.57248e-20)
(2.00141 0.283464 -1.89654e-19)
(1.95214 0.275727 -2.44066e-21)
(1.87137 0.260234 1.31634e-19)
(1.75748 0.237369 0)
(1.61285 0.208448 -5.90998e-20)
(1.44374 0.175678 1.3536e-19)
(1.25911 0.141649 -7.42976e-20)
(1.06893 0.108839 4.36583e-20)
(0.882527 0.0792109 -9.10292e-20)
(0.707447 0.0540253 -1.52794e-19)
(0.54901 0.0338427 1.07885e-19)
(0.410379 0.0186477 -1.7555e-19)
(0.292939 0.0080233 3.05352e-20)
(0.196781 0.00132237 1.00539e-19)
(0.121151 -0.00222069 -3.5427e-20)
(0.0647839 -0.00342879 -7.24893e-20)
(0.0262479 -0.00280489 9.60954e-20)
(0.0041974 -0.000295985 0)
(2.00268 0.234615 0)
(2.01886 0.246878 0)
(2.02067 0.253252 -4.57565e-20)
(2.00282 0.255544 0)
(1.95907 0.250974 6.42735e-20)
(1.88451 0.239493 -7.61448e-20)
(1.77695 0.220872 8.90023e-20)
(1.63811 0.196318 -5.37441e-20)
(1.47368 0.167707 1.72819e-19)
(1.29229 0.137432 -1.30935e-19)
(1.10384 0.107828 0)
(0.917764 0.0807996 -3.83499e-20)
(0.741844 0.0576063 4.34226e-20)
(0.58165 0.038839 0)
(0.440565 0.0245262 5.10933e-20)
(0.320137 0.0142929 1.6998e-19)
(0.220574 0.00751951 -8.82424e-20)
(0.141206 0.00347686 3.24811e-20)
(0.0808538 0.00140061 -3.43031e-20)
(0.0380743 0.000519892 1.0679e-19)
(0.0114215 0.000369838 8.05205e-22)
(-0.000359014 0.00100366 3.24195e-22)
(2.01182 0.212285 0)
(2.01737 0.222754 0)
(2.0036 0.22646 4.53386e-20)
(1.96499 0.225611 0)
(1.89607 0.217627 -6.7488e-20)
(1.79424 0.203233 7.42815e-20)
(1.6606 0.182882 -9.03069e-20)
(1.50035 0.158408 1.50402e-19)
(1.32182 0.131912 -1.11615e-19)
(1.13484 0.105619 -6.87627e-23)
(0.948977 0.08136 6.95515e-20)
(0.772236 0.0603868 7.87278e-20)
(0.610415 0.0433172 -1.28674e-19)
(0.467083 0.0302239 9.14331e-20)
(0.343922 0.0207797 -1.51267e-19)
(0.241217 0.0144069 -1.57095e-21)
(0.15834 0.0104033 1.13752e-19)
(0.0941438 0.00803711 -9.25662e-20)
(0.0472338 0.0065914 3.00563e-20)
(0.0161267 0.00536911 1.67111e-19)
(-0.000562273 0.00395063 -3.44568e-20)
(-0.00396612 0.00238802 2.90503e-20)
(2.01255 0.189729 -6.62564e-20)
(2.00365 0.198121 -7.98957e-20)
(1.9699 0.199035 9.58594e-20)
(1.90663 0.195168 -5.65798e-20)
(1.81029 0.184407 -6.74481e-20)
(1.6816 0.168284 7.42433e-20)
(1.5252 0.147802 8.82433e-20)
(1.34922 0.125107 -9.89008e-20)
(1.16346 0.102181 2.20898e-19)
(0.977652 0.0808135 -1.21586e-19)
(0.800025 0.0622285 0)
(0.636611 0.0470675 1.59569e-21)
(0.491158 0.0354449 -1.63065e-19)
(0.36546 0.0270838 8.78941e-20)
(0.25986 0.0214563 9.63924e-20)
(0.173748 0.0179023 1.40393e-21)
(0.105973 0.0157175 -2.19752e-19)
(0.0551423 0.0142152 2.88919e-20)
(0.0197995 0.0127481 -3.13989e-20)
(-0.00148731 0.0106998 -6.47232e-20)
(-0.00999816 0.00769547 1.27202e-21)
(-0.00673589 0.00378138 -1.10657e-21)
(2.00325 0.165914 -4.35871e-21)
(1.9751 0.171983 -9.03186e-21)
(1.91716 0.170227 -1.92949e-21)
(1.82644 0.16398 -1.08263e-21)
(1.70253 0.151669 0)
(1.54986 0.13544 0)
(1.37618 0.116577 -3.41514e-22)
(1.19139 0.0971871 6.51855e-22)
(1.00538 0.0788692 -1.06389e-19)
(0.826688 0.0628631 -5.91189e-20)
(0.661588 0.0498165 0)
(0.514015 0.0398889 1.71296e-21)
(0.38587 0.0328555 1.5677e-19)
(0.27754 0.0282433 -8.46693e-20)
(0.188414 0.0254436 4.54347e-20)
(0.117323 0.0237956 -4.87809e-20)
(0.0628477 0.0226415 5.20887e-20)
(0.0235183 0.0213633 5.7069e-20)
(-0.00207786 0.0193912 -1.48254e-19)
(-0.0152684 0.0161884 2.80349e-19)
(-0.0172104 0.0114215 -9.61779e-20)
(-0.00878461 0.00512782 -2.80941e-20)
(1.9779 0.142007 7.03637e-20)
(1.92711 0.145863 8.09249e-20)
(1.8422 0.141957 0)
(1.72387 0.134214 5.63053e-20)
(1.57515 0.121627 0)
(1.40393 0.10672 0)
(1.21999 0.0907807 -3.57808e-22)
(1.03361 0.0755959 -1.89084e-19)
(0.853626 0.0622618 -1.81642e-21)
(0.686649 0.0514708 1.73288e-19)
(0.536837 0.0434045 6.31029e-20)
(0.406215 0.0378885 7.04074e-20)
(0.295211 0.0345014 -1.67249e-21)
(0.203206 0.032687 0)
(0.128994 0.031833 -4.49798e-20)
(0.0711172 0.0313229 9.54345e-20)
(0.0280721 0.0305673 -5.1661e-20)
(-0.00156918 0.0290236 -5.3396e-20)
(-0.0191146 0.0261981 8.53733e-20)
(-0.0257612 0.021628 0)
(-0.0225425 0.0150184 -9.47435e-20)
(-0.0102335 0.00639704 -3.5386e-22)
(1.93842 0.115985 -1.3745e-19)
(1.86028 0.117976 -8.61033e-20)
(1.74746 0.112919 9.54663e-20)
(1.60329 0.105056 0)
(1.43451 0.0938996 -6.52804e-20)
(1.25138 0.0818538 7.3741e-20)
(1.0643 0.0700034 -8.2884e-20)
(0.882658 0.0596362 -3.22564e-22)
(0.713431 0.0513582 1.01338e-19)
(0.561071 0.0454128 1.13249e-19)
(0.427756 0.0416655 -2.46296e-19)
(0.313964 0.0397522 0)
(0.219063 0.0391713 -1.47969e-19)
(0.141802 0.0393623 7.90786e-20)
(0.0806652 0.0397553 0)
(0.0341042 0.0398002 -4.66077e-20)
(0.000657003 0.0389822 9.8837e-20)
(-0.0209954 0.0368324 -1.5604e-19)
(-0.0320257 0.0329276 -5.68119e-20)
(-0.0334941 0.026873 2.03182e-19)
(-0.0263196 0.0184123 -1.51342e-19)
(-0.0111927 0.00756862 0)
(1.87449 0.0922957 0)
(1.7715 0.0930843 -8.70611e-20)
(1.63237 0.0876701 -2.62551e-21)
(1.46753 0.0806837 5.77063e-20)
(1.2856 0.0718474 -1.28459e-19)
(1.09808 0.0632549 8.06776e-22)
(0.914645 0.0557067 -8.05975e-20)
(0.742917 0.0499481 0)
(0.587697 0.046176 0)
(0.451406 0.0443011 0)
(0.334613 0.0439961 1.81093e-19)
(0.23669 0.044808 -2.61997e-19)
(0.156342 0.0462236 7.10129e-20)
(0.0919937 0.0477164 -1.00898e-21)
(0.0420365 0.0487739 -8.31686e-20)
(0.00496388 0.0489121 4.45822e-20)
(-0.0205706 0.0476827 0)
(-0.0357442 0.0446802 0)
(-0.041587 0.0395419 0)
(-0.039029 0.0319335 -2.71066e-20)
(-0.0288881 0.0216347 -1.17578e-19)
(-0.0117864 0.00866781 1.01195e-19)
(1.80277 0.0649596 5.87768e-22)
(1.66914 0.0654702 -8.25701e-20)
(1.50781 0.0619831 9.77248e-20)
(1.32755 0.0571125 1.13112e-19)
(1.13904 0.0521398 6.29094e-20)
(0.953303 0.047996 1.42163e-19)
(0.778328 0.0452528 8.00156e-20)
(0.619498 0.0441028 -8.75223e-20)
(0.479507 0.0444586 0)
(0.359091 0.0460505 -1.0628e-19)
(0.25766 0.048496 -1.17084e-19)
(0.173886 0.0513571 -1.12319e-21)
(0.106125 0.0541733 2.06849e-19)
(0.0526897 0.0564839 -2.74967e-22)
(0.0120044 0.0578409 -7.88603e-20)
(-0.0173262 0.0578186 4.35507e-20)
(-0.0365048 0.0560207 0)
(-0.0465602 0.0520889 0)
(-0.0483847 0.0457078 -5.13123e-20)
(-0.0427892 0.0365949 1.12106e-21)
(-0.030504 0.0245678 0)
(-0.0120993 0.00965773 -7.45955e-20)
(1.65638 0.0457258 1.19131e-19)
(1.49138 0.0435389 -9.20901e-20)
(1.30928 0.0420668 -5.52467e-20)
(1.12133 0.0401819 2.11568e-21)
(0.937082 0.0394302 0)
(0.764498 0.0397384 -7.51186e-20)
(0.608372 0.0413105 8.36617e-20)
(0.471167 0.0439731 0)
(0.353376 0.0474908 -1.01628e-19)
(0.254248 0.0515473 2.21379e-19)
(0.172325 0.0557871 1.2119e-19)
(0.105863 0.0598309 9.55154e-22)
(0.0530975 0.0632868 -1.41452e-19)
(0.0124015 0.0657601 0)
(-0.0176489 0.0668628 2.46882e-19)
(-0.038262 0.0662249 -1.75575e-19)
(-0.0504514 0.0635053 9.30454e-20)
(-0.0550737 0.0584035 0)
(-0.0528716 0.0506699 5.23596e-20)
(-0.044529 0.0401027 1.63412e-19)
(-0.0306779 0.0265973 -1.12449e-19)
(-0.0118334 0.0102369 -2.4604e-20)
(1.40448 0.0245976 0)
(1.22019 0.0248426 4.94845e-20)
(1.03575 0.0277831 -1.11841e-21)
(0.858738 0.0302418 -1.85069e-19)
(0.695616 0.0340835 6.96754e-20)
(0.549979 0.0383704 0)
(0.423283 0.0432863 4.41031e-22)
(0.315373 0.048543 -1.87352e-19)
(0.22509 0.0539529 -1.03228e-19)
(0.150762 0.059267 1.68128e-19)
(0.0905572 0.0642155 1.22678e-19)
(0.0427004 0.0685012 -6.61158e-20)
(0.00559583 0.0718064 0)
(-0.0221272 0.073803 0)
(-0.0416129 0.0741646 -8.28854e-20)
(-0.0538041 0.0725812 0)
(-0.0594814 0.0687738 0)
(-0.0593047 0.0625085 0)
(-0.0538528 0.0536077 -5.12134e-20)
(-0.043666 0.0419509 -1.07696e-19)
(-0.02925 0.027509 2.22871e-19)
(-0.0110276 0.0103988 1.03084e-22)
(1.11967 0.013329 1.71308e-21)
(0.939278 0.0166192 0)
(0.7725 0.0234406 1.13484e-19)
(0.620161 0.0291065 0)
(0.486275 0.0358463 -7.09928e-20)
(0.370815 0.0424132 0)
(0.273307 0.0490562 0)
(0.192218 0.0555093 9.54987e-20)
(0.125781 0.0616526 0)
(0.0721389 0.0672997 -5.70376e-20)
(0.0295583 0.0722445 6.16965e-20)
(-0.00349549 0.0762465 -6.71289e-20)
(-0.0283252 0.0790395 0)
(-0.0460081 0.0803421 4.9247e-22)
(-0.0574219 0.0798722 3.5705e-22)
(-0.0632807 0.0773643 -4.40371e-20)
(-0.0641737 0.0725855 0)
(-0.0606017 0.0653517 4.86748e-20)
(-0.0530091 0.0555381 5.16182e-20)
(-0.0418146 0.0430826 1.06721e-19)
(-0.0274146 0.0280074 -2.7176e-20)
(-0.0101508 0.0104457 -9.3795e-20)
(0.838358 0.00882893 1.21868e-21)
(0.67906 0.0158135 5.26494e-20)
(0.540646 0.0251002 -5.82667e-20)
(0.418371 0.0329102 0)
(0.314804 0.0410644 7.25541e-20)
(0.227765 0.0485856 -8.01637e-20)
(0.156021 0.0557312 -8.85241e-20)
(0.0975887 0.0623421 -4.45866e-22)
(0.0506975 0.0683719 1.05594e-19)
(0.0136663 0.0737002 -5.7464e-20)
(-0.0149595 0.0781736 6.25558e-20)
(-0.0364119 0.0815941 -2.69916e-19)
(-0.0517049 0.08373 1.44929e-19)
(-0.0616602 0.0843292 1.55964e-19)
(-0.0669391 0.0831362 -8.27763e-20)
(-0.0680762 0.0799116 -4.44513e-22)
(-0.0655125 0.0744498 9.29915e-20)
(-0.0596238 0.0665945 -1.94945e-19)
(-0.0507447 0.0562498 0)
(-0.0391899 0.0433849 -1.05771e-19)
(-0.0252605 0.0280461 1.36503e-19)
(-0.00922216 0.0103659 0)
(0.584142 0.0106688 -9.42546e-20)
(0.454941 0.0204143 0)
(0.347521 0.0303554 -6.00281e-20)
(0.255033 0.0389221 6.65114e-20)
(0.178968 0.0471182 -2.21194e-19)
(0.116432 0.0544802 1.62926e-19)
(0.0660703 0.0612255 -8.92895e-20)
(0.0259882 0.0673054 -9.82051e-20)
(-0.00533128 0.0727187 5.3424e-20)
(-0.0292667 0.0773876 1.1627e-19)
(-0.0469663 0.0811888 6.27799e-20)
(-0.0593818 0.0839478 0)
(-0.0672853 0.085452 7.30335e-20)
(-0.0712968 0.085466 -7.78875e-20)
(-0.071913 0.08375 0)
(-0.0695348 0.0800797 -4.41676e-20)
(-0.0644925 0.074264 0)
(-0.0570674 0.0661598 4.88087e-20)
(-0.0475077 0.0556825 0)
(-0.0360433 0.0428121 0)
(-0.0228951 0.0275958 0)
(-0.00826301 0.010147 0)
(0.369255 0.0158114 0)
(0.271635 0.0266157 0)
(0.192882 0.0360465 0)
(0.126711 0.0442664 6.75444e-20)
(0.0737188 0.0516745 0)
(0.0312208 0.0582192 8.24773e-20)
(-0.0020116 0.0640773 0)
(-0.0275578 0.0692797 9.91454e-20)
(-0.0466307 0.073848 -1.07485e-19)
(-0.0603071 0.0777303 -5.87413e-20)
(-0.0694695 0.0808202 -3.82545e-22)
(-0.0748428 0.0829577 -3.40093e-20)
(-0.0770118 0.0839424 -7.32581e-20)
(-0.0764452 0.0835503 7.80601e-20)
(-0.0735184 0.0815521 -8.30781e-20)
(-0.0685347 0.0777325 8.7704e-20)
(-0.0617434 0.0719068 0)
(-0.0533554 0.063935 0)
(-0.0435534 0.0537316 -1.25459e-19)
(-0.0325006 0.0412716 1.03897e-19)
(-0.0203561 0.0265864 -2.65608e-20)
(-0.00727024 0.00975459 7.81603e-20)
(0.195663 0.0215406 0)
(0.126526 0.0317509 0)
(0.0721541 0.0400324 -6.15771e-20)
(0.0278052 0.0472138 6.79395e-20)
(-0.00656144 0.0534284 0)
(-0.0330808 0.0588454 0)
(-0.0527901 0.06362 4.54716e-20)
(-0.0669191 0.0678278 9.98465e-20)
(-0.0764064 0.0715005 1.27135e-22)
(-0.0820716 0.0746005 0)
(-0.0845838 0.0770322 -1.27551e-19)
(-0.0844902 0.0786465 1.02768e-19)
(-0.0822326 0.0792545 3.65458e-20)
(-0.0781664 0.0786434 0)
(-0.0725772 0.0765942 0)
(-0.065697 0.0728994 4.36155e-20)
(-0.057717 0.0673787 9.19932e-20)
(-0.0487977 0.0598908 -1.1996e-19)
(-0.0390749 0.0503426 2.50777e-20)
(-0.0286631 0.0386955 -1.28659e-19)
(-0.0176797 0.0249552 1.06129e-19)
(-0.00624535 0.00915567 2.19801e-20)
(0.0602025 0.0258082 4.97754e-20)
(0.0147791 0.034345 -5.5197e-20)
(-0.0197471 0.0411375 6.2047e-20)
(-0.0466239 0.0469654 -6.84436e-20)
(-0.0662626 0.0518739 0)
(-0.0802365 0.0560998 0)
(-0.0893921 0.0597858 -9.1725e-20)
(-0.0946503 0.0630253 0)
(-0.0967213 0.0658536 -2.18368e-19)
(-0.0962164 0.0682426 1.77387e-19)
(-0.0936341 0.0701065 -3.19655e-20)
(-0.0893823 0.0713088 0)
(-0.083792 0.0716746 7.32389e-20)
(-0.0771312 0.0710055 -7.81718e-20)
(-0.0696185 0.0690964 -4.13042e-20)
(-0.0614334 0.0657509 -4.38676e-20)
(-0.0527259 0.0607952 -2.28287e-20)
(-0.0436226 0.0540876 -7.15658e-20)
(-0.0342287 0.0455274 1.23854e-19)
(-0.0246272 0.0350607 2.56899e-20)
(-0.0149132 0.022664 2.63456e-20)
(-0.00519883 0.00832568 -1.08924e-20)
(-0.0414252 0.027534 4.95008e-20)
(-0.0679278 0.0339896 0)
(-0.086747 0.0391599 0)
(-0.099996 0.043558 6.91821e-20)
(-0.108233 0.0471988 -7.60819e-20)
(-0.112573 0.0502992 0)
(-0.113686 0.0529861 1.38457e-19)
(-0.11224 0.0553517 -1.00503e-19)
(-0.108758 0.0574314 5.49076e-20)
(-0.103681 0.0592041 0)
(-0.0973716 0.060595 -9.615e-20)
(-0.0901245 0.0614829 -7.93076e-23)
(-0.0821825 0.0617111 -7.35888e-20)
(-0.0737453 0.0611009 7.81806e-20)
(-0.0649794 0.0594662 6.21806e-20)
(-0.0560258 0.0566271 -2.17416e-20)
(-0.0470055 0.052422 2.2921e-20)
(-0.0380236 0.0467151 0)
(-0.0291681 0.0394036 -2.47468e-20)
(-0.0205059 0.0304228 1.01466e-19)
(-0.012127 0.019725 -2.07915e-19)
(-0.00415381 0.00725893 8.78413e-23)
(-0.112583 0.0264005 1.24215e-22)
(-0.124482 0.0308463 0)
(-0.131267 0.0344565 6.25703e-20)
(-0.134268 0.0375068 -6.89931e-20)
(-0.134026 0.0400034 -3.81672e-20)
(-0.13131 0.04211 -1.26473e-19)
(-0.126622 0.0439316 9.2256e-20)
(-0.120427 0.0455476 -5.05471e-20)
(-0.113091 0.0469904 -1.27564e-22)
(-0.104919 0.0482443 5.94199e-20)
(-0.0961583 0.0492472 0)
(-0.0870142 0.0498961 0)
(-0.0776574 0.0500568 -3.67182e-20)
(-0.0682328 0.0495748 5.86796e-20)
(-0.0588663 0.0482887 -2.07412e-20)
(-0.049669 0.0460415 2.18281e-20)
(-0.0407414 0.0426909 -2.27388e-20)
(-0.0321756 0.0381156 9.47918e-20)
(-0.0240516 0.0322209 -1.10448e-19)
(-0.0164317 0.0249421 0)
(-0.00941374 0.016219 0)
(-0.00314482 0.00597566 -8.47034e-20)
(-0.155194 0.0227086 -2.9062e-22)
(-0.156418 0.0254686 0)
(-0.154542 0.0277347 3.11739e-20)
(-0.150376 0.0296292 0)
(-0.144352 0.0311613 1.66647e-22)
(-0.136974 0.0324421 1.67547e-22)
(-0.128587 0.0335517 4.64276e-20)
(-0.119495 0.0345525 -7.58184e-20)
(-0.109931 0.0354716 -2.76289e-20)
(-0.100088 0.036298 5.95657e-20)
(-0.0901205 0.0369834 0)
(-0.08016 0.0374458 -8.62492e-20)
(-0.0703194 0.0375765 7.36401e-20)
(-0.0607002 0.0372493 1.9606e-20)
(-0.0513958 0.0363316 0)
(-0.0424943 0.0346943 -1.0874e-19)
(-0.0340802 0.0322207 1.13839e-19)
(-0.0262364 0.0288126 -1.18191e-20)
(-0.0190386 0.0243944 -8.55251e-20)
(-0.0125501 0.0189157 8.81336e-20)
(-0.00688271 0.0123218 0)
(-0.00221542 0.00453406 0)
(-0.169994 0.0171232 -5.03101e-20)
(-0.164308 0.0186119 0)
(-0.157029 0.0198366 5.18393e-23)
(-0.148645 0.0208343 -3.46471e-20)
(-0.139435 0.0216225 3.85336e-20)
(-0.129704 0.0222712 4.24386e-20)
(-0.119662 0.0228375 4.65673e-20)
(-0.109478 0.0233658 -2.52605e-20)
(-0.0992831 0.0238768 -2.76437e-20)
(-0.0891764 0.0243641 1.49458e-20)
(-0.0792403 0.0247941 0)
(-0.0695469 0.0251072 -6.9165e-20)
(-0.0601642 0.025223 1.29171e-19)
(-0.0511594 0.0250462 -9.79935e-20)
(-0.0426012 0.0244754 0)
(-0.0345597 0.0234115 2.1791e-20)
(-0.0271064 0.0217665 0)
(-0.0203144 0.0194694 1.14952e-23)
(-0.0142542 0.0164725 -1.22207e-20)
(-0.00898782 0.0127525 6.90052e-20)
(-0.00463687 0.00828319 -5.13432e-20)
(-0.0014081 0.0030163 0)
(-0.157122 0.0107513 -4.99739e-20)
(-0.148267 0.0113923 -1.4052e-20)
(-0.138841 0.0119088 -1.56779e-20)
(-0.129141 0.0122983 3.49902e-20)
(-0.119305 0.0125845 -9.64194e-20)
(-0.109494 0.0128086 4.23852e-20)
(-0.0998057 0.0130069 0)
(-0.0903144 0.0132077 0)
(-0.0810671 0.0134253 -1.38544e-20)
(-0.0720969 0.0136577 -3.00076e-20)
(-0.0634305 0.0138859 0)
(-0.0550958 0.0140739 1.73432e-20)
(-0.0471262 0.0141707 9.25113e-21)
(-0.0395632 0.014114 1.96553e-20)
(-0.0324567 0.0138345 0)
(-0.0258631 0.0132632 1.09127e-20)
(-0.0198427 0.0123383 0)
(-0.0144591 0.0110138 5.32392e-20)
(-0.00977271 0.00926719 -8.56025e-20)
(-0.00583629 0.00710566 -6.18115e-21)
(-0.0027634 0.00454471 4.4935e-20)
(-0.000764036 0.00159628 0)
(-0.116444 0.00464954 0)
(-0.108188 0.00480335 2.11565e-20)
(-0.0998923 0.00490116 1.57394e-20)
(-0.0917731 0.00494148 0)
(-0.0838581 0.00494681 1.93491e-20)
(-0.0762149 0.00493821 1.06662e-20)
(-0.0688667 0.00493267 0)
(-0.0618241 0.004943 0)
(-0.0550835 0.00497616 6.93774e-21)
(-0.0486363 0.00503267 -4.52234e-20)
(-0.0424745 0.00510592 9.72768e-20)
(-0.0365965 0.00518175 -3.91226e-20)
(-0.0310111 0.00523843 9.27922e-21)
(-0.0257395 0.00524703 0)
(-0.0208151 0.0051728 5.2169e-21)
(-0.016282 0.00497778 -5.44735e-21)
(-0.0121913 0.00462509 0)
(-0.00859723 0.00408573 5.92744e-21)
(-0.00554978 0.00334948 0)
(-0.00308597 0.0024377 0)
(-0.00128113 0.00140423 5.77436e-20)
(-0.000297005 0.00035904 -4.18694e-20)
(-0.0479183 0.000612841 0)
(-0.0440222 0.000615521 -6.8742e-21)
(-0.0401658 0.000604811 0)
(-0.0365135 0.000581438 -1.32711e-22)
(-0.0330475 0.000554764 1.88985e-20)
(-0.0297863 0.000529846 -3.096e-20)
(-0.0267219 0.00051001 -2.25665e-20)
(-0.0238421 0.000497682 2.45903e-20)
(-0.0211295 0.000494527 6.68006e-21)
(-0.0185654 0.000501509 -5.64983e-23)
(-0.0161327 0.000518717 6.07972e-23)
(-0.0138183 0.000545033 -2.92079e-20)
(-0.011616 0.000577669 3.55119e-20)
(-0.00952738 0.000611604 0)
(-0.00756392 0.000639018 3.48328e-20)
(-0.00574714 0.000648954 -8.86801e-20)
(-0.00410817 0.000627623 4.3597e-20)
(-0.00268639 0.000560187 -4.52549e-20)
(-0.00152463 0.000435776 4.67992e-20)
(-0.000659552 0.000256462 0)
(-0.00012881 4.91684e-05 -4.90913e-20)
(1.89568e-05 -9.60514e-05 8.086e-20)
(1.13641 0.0264263 -3.32574e-20)
(1.09035 0.0281838 0)
(1.04226 0.0299864 1.35394e-24)
(0.992017 0.0318354 2.58256e-20)
(0.939735 0.0337365 -2.77259e-20)
(0.885501 0.0356965 -6.45867e-20)
(0.829404 0.0377182 -1.8279e-20)
(0.771553 0.0398027 0)
(0.712066 0.0419496 -4.59113e-20)
(0.651072 0.0441562 2.49726e-20)
(0.588716 0.0464144 -2.80669e-20)
(0.525164 0.0487002 -5.75538e-22)
(0.460634 0.0509488 -1.68968e-20)
(0.395457 0.0530157 3.51137e-20)
(0.330185 0.054633 0)
(0.265719 0.0553813 2.44733e-24)
(0.203424 0.0547014 0)
(0.145183 0.0519506 3.31834e-20)
(0.0932574 0.0464999 -2.29337e-20)
(0.050048 0.0378404 0)
(0.0187951 0.0256482 1.2181e-20)
(0.00353863 0.00983575 -1.22737e-24)
(1.14092 0.0823926 2.07456e-21)
(1.09532 0.088268 -3.76812e-20)
(1.04784 0.0944155 4.49143e-20)
(0.998195 0.100805 -1.00697e-19)
(0.946503 0.10743 2.82669e-20)
(0.89286 0.114294 9.82476e-20)
(0.837356 0.121394 -9.13079e-20)
(0.780099 0.128724 -2.27432e-21)
(0.721207 0.136275 2.04225e-20)
(0.66081 0.144034 9.9003e-20)
(0.59905 0.151967 -5.5594e-20)
(0.53609 0.159986 8.91754e-20)
(0.472131 0.167861 -1.58397e-20)
(0.407474 0.175093 -3.46248e-20)
(0.342613 0.18077 3.69811e-20)
(0.278355 0.183484 0)
(0.215942 0.181371 0)
(0.157112 0.172314 -1.09938e-20)
(0.10398 0.154251 9.11991e-20)
(0.0588187 0.125522 2.38192e-20)
(0.0247804 0.0850845 -1.0871e-19)
(0.00586288 0.0326611 -7.95409e-20)
(1.14971 0.138353 0)
(1.10507 0.148363 -7.68982e-20)
(1.05884 0.158778 1.70263e-19)
(1.01037 0.169589 0)
(0.959867 0.180788 -5.75292e-20)
(0.907418 0.192383 2.53776e-19)
(0.853116 0.204375 -3.38131e-20)
(0.79707 0.216755 -1.59606e-19)
(0.7394 0.229511 2.64907e-19)
(0.680234 0.242621 2.24593e-21)
(0.619711 0.256031 -1.06541e-19)
(0.557981 0.269591 -2.96646e-20)
(0.495215 0.282914 -9.60139e-20)
(0.431649 0.295153 1.70443e-19)
(0.367652 0.304764 -3.69413e-20)
(0.303845 0.309362 0)
(0.241213 0.305804 1.63608e-19)
(0.181202 0.290518 -1.28173e-19)
(0.125631 0.260037 0)
(0.0765237 0.211576 -2.32103e-20)
(0.0368572 0.143395 0)
(0.010551 0.055041 5.85878e-20)
(1.16183 0.191567 1.24229e-19)
(1.11874 0.20559 0)
(1.07448 0.220132 -8.50724e-20)
(1.02787 0.235247 0)
(0.979219 0.25091 -1.10756e-19)
(0.928621 0.267134 3.3435e-22)
(0.87617 0.283916 -7.01445e-20)
(0.821981 0.301247 7.58752e-20)
(0.766175 0.319109 -8.71972e-20)
(0.708881 0.33747 -1.91884e-19)
(0.650233 0.356256 2.06186e-19)
(0.590366 0.375257 5.55494e-20)
(0.529408 0.393929 -6.00845e-20)
(0.467494 0.411088 0)
(0.404814 0.424569 0)
(0.341703 0.431038 0)
(0.278769 0.426101 -1.19138e-19)
(0.217018 0.40478 1.21822e-19)
(0.157832 0.362255 -1.70942e-19)
(0.102862 0.294677 2.18772e-19)
(0.0548256 0.199658 1.38331e-19)
(0.0175238 0.0766102 -2.79286e-19)
(1.17727 0.242169 4.75064e-22)
(1.13625 0.260075 1.43913e-19)
(1.09459 0.278544 -1.58891e-19)
(1.05045 0.297757 0)
(1.00425 0.317669 -1.06371e-19)
(0.9561 0.338295 2.3679e-19)
(0.906101 0.359636 0)
(0.854373 0.381681 6.91691e-20)
(0.801038 0.40441 1.66503e-19)
(0.746227 0.427784 -3.63138e-19)
(0.690069 0.451709 1.9718e-19)
(0.632676 0.475919 -5.53718e-20)
(0.574121 0.499724 2.95669e-19)
(0.514408 0.521612 -5.02796e-19)
(0.453487 0.53882 3.31818e-19)
(0.391318 0.547096 3.53068e-19)
(0.328008 0.540844 -3.35401e-19)
(0.263987 0.513736 0)
(0.200062 0.459671 0)
(0.137401 0.373809 -2.50858e-19)
(0.0783833 0.253181 2.15806e-19)
(0.0266599 0.0971021 0)
(1.19559 0.288869 -4.52389e-23)
(1.15717 0.310486 1.32079e-19)
(1.11873 0.332645 6.62023e-21)
(1.07764 0.355723 -1.72664e-19)
(1.03447 0.379643 0)
(0.989355 0.404424 0)
(0.942388 0.43007 0)
(0.893697 0.45657 -2.8617e-19)
(0.843411 0.483901 1.54061e-19)
(0.791661 0.512021 9.00469e-20)
(0.73857 0.540821 -2.77271e-19)
(0.684229 0.569984 0)
(0.628639 0.598682 2.21636e-19)
(0.571646 0.625093 -5.86382e-19)
(0.512905 0.64589 3.77118e-19)
(0.451914 0.655941 -3.33389e-19)
(0.388166 0.648503 2.78848e-19)
(0.32138 0.615971 -5.80897e-19)
(0.251662 0.551042 3.00976e-19)
(0.179595 0.447968 -3.09445e-19)
(0.107153 0.303282 6.42863e-19)
(0.0378069 0.116252 -1.31429e-19)
(1.21634 0.33109 -1.08168e-19)
(1.18103 0.356189 0)
(1.14637 0.381739 1.49082e-19)
(1.10884 0.408389 -1.67997e-19)
(1.06923 0.436018 -1.87061e-19)
(1.02767 0.464649 3.10175e-19)
(0.984261 0.494293 0)
(0.939138 0.524937 0)
(0.892437 0.556559 0)
(0.84429 0.589111 8.27086e-20)
(0.794817 0.622473 9.04701e-20)
(0.744079 0.656282 0)
(0.691997 0.689588 0)
(0.638233 0.720286 1.13505e-19)
(0.582095 0.744516 6.03212e-20)
(0.522537 0.756323 0)
(0.458325 0.74788 0)
(0.388343 0.710376 0)
(0.311878 0.635398 -2.76426e-19)
(0.228831 0.516381 3.60105e-20)
(0.140719 0.349444 2.9322e-19)
(0.0508004 0.133867 0)
(1.23886 0.368136 -3.03506e-19)
(1.20716 0.396469 2.3774e-19)
(1.17678 0.425097 -1.40268e-19)
(1.14332 0.454996 3.00871e-19)
(1.10776 0.485988 1.79934e-19)
(1.07025 0.518107 -1.01269e-19)
(1.03088 0.55137 -2.21608e-19)
(0.989799 0.585771 3.69913e-19)
(0.94716 0.621291 -1.37438e-19)
(0.903095 0.657884 2.97289e-19)
(0.857721 0.695421 -1.65796e-19)
(0.811072 0.733509 0)
(0.762985 0.771091 0)
(0.712916 0.805812 0)
(0.659785 0.833326 0)
(0.601926 0.846907 0)
(0.537273 0.837712 -5.45221e-20)
(0.463757 0.795807 5.64419e-20)
(0.379728 0.711752 0)
(0.284325 0.578264 -2.56491e-19)
(0.17855 0.391141 3.25006e-19)
(0.0654323 0.149746 2.19731e-19)
(1.26238 0.399438 3.90995e-19)
(1.23475 0.430677 -2.16505e-19)
(1.20908 0.462013 -1.29901e-19)
(1.18007 0.494806 -3.12001e-21)
(1.14897 0.52881 -4.10879e-21)
(1.11591 0.564068 0)
(1.081 0.600603 0)
(1.04441 0.638407 1.16007e-19)
(1.00628 0.677463 -1.0791e-20)
(0.966773 0.717724 0)
(0.925982 0.759057 -1.52706e-19)
(0.883919 0.801048 1.49191e-19)
(0.840328 0.842554 0)
(0.794445 0.881008 0)
(0.744759 0.911631 -1.87354e-19)
(0.688915 0.926995 1.97278e-19)
(0.623917 0.917317 5.42695e-20)
(0.546623 0.871621 -2.66387e-19)
(0.454346 0.779533 2.18025e-19)
(0.345387 0.633153 0)
(0.220188 0.42806 -2.94154e-19)
(0.0815244 0.163777 1.92118e-19)
(1.28602 0.424845 1.74022e-19)
(1.26294 0.458703 -2.05869e-19)
(1.24239 0.492396 2.27321e-19)
(1.21827 0.527682 0)
(1.19202 0.564245 -1.5258e-19)
(1.16377 0.602153 0)
(1.13366 0.641447 0)
(1.10188 0.682131 0)
(1.06859 0.724199 -2.20888e-19)
(1.03395 0.767612 0)
(0.998072 0.812242 2.6046e-19)
(0.960941 0.857666 -4.27124e-19)
(0.922217 0.902687 2.96203e-19)
(0.880915 0.944566 -3.15025e-19)
(0.83507 0.97815 0)
(0.781582 0.995374 7.8878e-20)
(0.71643 0.98558 1.74247e-19)
(0.635288 0.936825 -3.61088e-19)
(0.534317 0.837892 3.70488e-19)
(0.410904 0.680364 -2.33675e-19)
(0.264896 0.459722 -1.97084e-19)
(0.0987899 0.175764 1.63776e-19)
(1.30887 0.443868 1.53872e-19)
(1.2907 0.479899 0)
(1.27546 0.515562 1.06027e-19)
(1.25644 0.553016 -1.16772e-19)
(1.23531 0.591845 0)
(1.2122 0.63212 0)
(1.18726 0.673878 0)
(1.16068 0.717125 0)
(1.13265 0.761859 -9.30027e-20)
(1.10331 0.808048 4.25357e-19)
(1.07279 0.85557 -4.57361e-19)
(1.04106 0.904001 2.44901e-19)
(1.00768 0.952114 0)
(0.97145 0.99704 2.66981e-19)
(0.929914 1.03332 -2.82921e-19)
(0.87917 1.05233 -2.06569e-21)
(0.814084 1.04263 -1.48821e-19)
(0.729044 0.991418 1.4746e-19)
(0.618976 0.886735 -1.53318e-19)
(0.480307 0.71976 1.97909e-19)
(0.31227 0.486005 -1.94673e-19)
(0.117067 0.185666 0)
(1.33002 0.457256 -1.5158e-19)
(1.31736 0.49523 -8.62836e-21)
(1.30782 0.532438 3.78795e-19)
(1.29421 0.571495 -2.10609e-19)
(1.27841 0.611945 0)
(1.26056 0.653902 0)
(1.24085 0.697432 -1.45365e-19)
(1.21953 0.742554 -3.56744e-22)
(1.1968 0.789278 3.34205e-19)
(1.17283 0.837585 -1.8442e-19)
(1.14775 0.887371 1.98789e-19)
(1.12153 0.938236 0)
(1.09369 0.988957 -1.00625e-19)
(1.06279 1.0366 1.03268e-19)
(1.02593 1.07546 0)
(0.978384 1.09642 1.17324e-19)
(0.913814 1.08731 2.29762e-19)
(0.825199 1.03449 -1.89092e-19)
(0.7061 0.925337 5.07802e-20)
(0.551902 0.750747 2.54443e-20)
(0.361212 0.506454 1.58142e-19)
(0.135932 0.193277 -1.8536e-19)
(1.34849 0.463857 -2.02624e-21)
(1.34143 0.503316 -9.34224e-21)
(1.33749 0.54196 -3.3401e-19)
(1.3295 0.582591 7.48935e-21)
(1.31935 0.624644 0)
(1.30716 0.668234 -6.29811e-21)
(1.29314 0.713434 1.27428e-19)
(1.27754 0.760273 0)
(1.26059 0.808774 -1.12204e-20)
(1.24247 0.858927 7.12334e-20)
(1.22333 0.910641 -3.35799e-19)
(1.20312 0.96353 5.80033e-21)
(1.18129 1.01638 3.65945e-19)
(1.15621 1.06621 7.70114e-20)
(1.12446 1.10713 -1.90035e-19)
(1.08043 1.12963 -9.14439e-20)
(1.01651 1.12092 -3.78937e-20)
(0.924212 1.06672 -5.08561e-20)
(0.79572 0.953916 -1.6145e-20)
(0.625428 0.773289 4.10964e-20)
(0.411382 0.520949 1.66215e-20)