/*--------------------------------*- C++ -*----------------------------------*\
| =========                 |                                                 |
| \\      /  F ield         | OpenFOAM Extend Project: Open source CFD        |
|  \\    /   O peration     | Version:  1.6-ext                               |
|   \\  /    A nd           | Web:      www.extend-project.de                 |
|    \\/     M anipulation  |                                                 |
\*---------------------------------------------------------------------------*/
FoamFile
{
    version     2.0;
    format      ascii;
    class       volScalarField::DimensionedInternalField;
    location    "0.6";
    object      V0;
}
// * * * * * * * * * * * * * * * * * * * * * * * * * * * * * * * * * * * * * //

dimensions      [0 3 0 0 0 0 0];

value           nonuniform List<scalar> 
20940
(
1.1711e-06
1.03807e-06
9.21033e-07
8.17995e-07
7.2722e-07
6.47191e-07
5.76583e-07
5.14238e-07
4.59145e-07
4.10419e-07
3.67287e-07
3.29072e-07
2.95184e-07
2.65102e-07
2.38374e-07
2.146e-07
1.93431e-07
1.74561e-07
1.57722e-07
1.42677e-07
1.29221e-07
1.17172e-07
1.17126e-06
1.03821e-06
9.21155e-07
8.18103e-07
7.27318e-07
6.4728e-07
5.76666e-07
5.14317e-07
4.5922e-07
4.10491e-07
3.67355e-07
3.29136e-07
2.95242e-07
2.65155e-07
2.38421e-07
2.14643e-07
1.93471e-07
1.74599e-07
1.57758e-07
1.42713e-07
1.29256e-07
1.17206e-07
1.17383e-06
1.04049e-06
9.23178e-07
8.19901e-07
7.28918e-07
6.48707e-07
5.7794e-07
5.15457e-07
4.60242e-07
4.1141e-07
3.68183e-07
3.29883e-07
2.95916e-07
2.65763e-07
2.38969e-07
2.15137e-07
1.93916e-07
1.75002e-07
1.58124e-07
1.43047e-07
1.29562e-07
1.17487e-07
1.1781e-06
1.04427e-06
9.26534e-07
8.22884e-07
7.31572e-07
6.51072e-07
5.80051e-07
5.17342e-07
4.61928e-07
4.1292e-07
3.69538e-07
3.31102e-07
2.97014e-07
2.66754e-07
2.39865e-07
2.15946e-07
1.94647e-07
1.75662e-07
1.58721e-07
1.43588e-07
1.30054e-07
1.17936e-07
1.18335e-06
1.04896e-06
9.30727e-07
8.2664e-07
7.34944e-07
6.54103e-07
5.82778e-07
5.19801e-07
4.64147e-07
4.14924e-07
3.71351e-07
3.32743e-07
2.98504e-07
2.68108e-07
2.41098e-07
2.1707e-07
1.95674e-07
1.76599e-07
1.59576e-07
1.44368e-07
1.30766e-07
1.18587e-07
1.19018e-06
1.05508e-06
9.36213e-07
8.31565e-07
7.39372e-07
6.58093e-07
5.8638e-07
5.23058e-07
4.67097e-07
4.17599e-07
3.73779e-07
3.3495e-07
3.00511e-07
2.69936e-07
2.42765e-07
2.18594e-07
1.97067e-07
1.77875e-07
1.60746e-07
1.45439e-07
1.31746e-07
1.19483e-07
1.19855e-06
1.06261e-06
9.43001e-07
8.37683e-07
7.44891e-07
6.63077e-07
5.90888e-07
5.27144e-07
4.70808e-07
4.20977e-07
3.76857e-07
3.37759e-07
3.03077e-07
2.72282e-07
2.44911e-07
2.20559e-07
1.98868e-07
1.79528e-07
1.62264e-07
1.46835e-07
1.3303e-07
1.20664e-07
1.20845e-06
1.07158e-06
9.51129e-07
8.45056e-07
7.5158e-07
6.69146e-07
5.96398e-07
5.32149e-07
4.75361e-07
4.25125e-07
3.80645e-07
3.41224e-07
3.06252e-07
2.75194e-07
2.47584e-07
2.23014e-07
2.01125e-07
1.81604e-07
1.64175e-07
1.48596e-07
1.34655e-07
1.22165e-07
1.21982e-06
1.08191e-06
9.60538e-07
8.53641e-07
7.59423e-07
6.76316e-07
6.02953e-07
5.38141e-07
4.80836e-07
4.30129e-07
3.85221e-07
3.45415e-07
3.10097e-07
2.78728e-07
2.50837e-07
2.26011e-07
2.03889e-07
1.84154e-07
1.66529e-07
1.50771e-07
1.36666e-07
1.24026e-07
1.23256e-06
1.09356e-06
9.71188e-07
8.63394e-07
7.6837e-07
6.84536e-07
6.10516e-07
5.45104e-07
4.87249e-07
4.36031e-07
3.90651e-07
3.50407e-07
3.14687e-07
2.82953e-07
2.54731e-07
2.29606e-07
2.07212e-07
1.87228e-07
1.69375e-07
1.53406e-07
1.39107e-07
1.26288e-07
1.24651e-06
1.10638e-06
9.82978e-07
8.74244e-07
7.78362e-07
6.93749e-07
6.19021e-07
5.52966e-07
4.94527e-07
4.42775e-07
3.96901e-07
3.56198e-07
3.20047e-07
2.87909e-07
2.59312e-07
2.33842e-07
2.11133e-07
1.90862e-07
1.72745e-07
1.56534e-07
1.4201e-07
1.28983e-07
1.2621e-06
1.12077e-06
9.96268e-07
8.86519e-07
7.89702e-07
7.04229e-07
6.2871e-07
5.61931e-07
5.02828e-07
4.50472e-07
4.04047e-07
3.62839e-07
3.26222e-07
2.93649e-07
2.64642e-07
2.38786e-07
2.15716e-07
1.9511e-07
1.76686e-07
1.60193e-07
1.4541e-07
1.32143e-07
1.27853e-06
1.13605e-06
1.01049e-06
8.9975e-07
8.02014e-07
7.15682e-07
6.39362e-07
5.71836e-07
5.12037e-07
4.59035e-07
4.12013e-07
3.70256e-07
3.33135e-07
3.00098e-07
2.70661e-07
2.44401e-07
2.20949e-07
1.99982e-07
1.81218e-07
1.64409e-07
1.49333e-07
1.35795e-07
1.29584e-06
1.15225e-06
1.02566e-06
9.13952e-07
8.15309e-07
7.28127e-07
6.51006e-07
5.82725e-07
5.22214e-07
4.68539e-07
4.20884e-07
3.78532e-07
3.40857e-07
3.07307e-07
2.77396e-07
2.50699e-07
2.2684e-07
2.0549e-07
1.86364e-07
1.6921e-07
1.5381e-07
1.39968e-07
1.31378e-06
1.16919e-06
1.04163e-06
9.28993e-07
8.29467e-07
7.41449e-07
6.63536e-07
5.94505e-07
5.33284e-07
4.78934e-07
4.30636e-07
3.87672e-07
3.49415e-07
3.15314e-07
2.84886e-07
2.57706e-07
2.33399e-07
2.11633e-07
1.92118e-07
1.74599e-07
1.5885e-07
1.44678e-07
1.24214e-06
1.10806e-06
9.89587e-07
8.84802e-07
7.92042e-07
7.09854e-07
6.36963e-07
5.72253e-07
5.14748e-07
4.63589e-07
4.18025e-07
3.77396e-07
3.41128e-07
3.08714e-07
2.79714e-07
2.53739e-07
2.30447e-07
2.09537e-07
1.90742e-07
1.73824e-07
1.58576e-07
1.44814e-07
1.21905e-06
1.08695e-06
9.70253e-07
8.67082e-07
7.75786e-07
6.94922e-07
6.23233e-07
5.59616e-07
5.03107e-07
4.52859e-07
4.08131e-07
3.6827e-07
3.32706e-07
3.00937e-07
2.72526e-07
2.47087e-07
2.24285e-07
2.03823e-07
1.85439e-07
1.68904e-07
1.54012e-07
1.40583e-07
1.19708e-06
1.06691e-06
9.51956e-07
8.50354e-07
7.60477e-07
6.809e-07
6.10374e-07
5.47809e-07
4.92253e-07
4.42871e-07
3.98931e-07
3.59792e-07
3.24889e-07
2.93728e-07
2.65874e-07
2.40946e-07
2.1861e-07
1.98572e-07
1.80576e-07
1.64396e-07
1.49832e-07
1.36707e-07
1.17639e-06
1.04807e-06
9.3479e-07
8.34697e-07
7.4618e-07
6.67832e-07
5.98419e-07
5.36862e-07
4.82216e-07
4.33656e-07
3.90461e-07
3.51998e-07
3.17712e-07
2.87114e-07
2.59776e-07
2.35323e-07
2.13423e-07
1.93785e-07
1.76154e-07
1.60306e-07
1.46045e-07
1.33197e-07
1.15708e-06
1.03055e-06
9.18857e-07
8.20195e-07
7.32965e-07
6.55775e-07
5.87406e-07
5.26793e-07
4.73004e-07
4.2522e-07
3.82726e-07
3.44897e-07
3.11185e-07
2.8111e-07
2.54247e-07
2.30228e-07
2.08726e-07
1.89454e-07
1.72159e-07
1.56619e-07
1.42638e-07
1.30044e-07
1.13898e-06
1.01416e-06
9.04009e-07
8.06722e-07
7.20725e-07
6.44641e-07
5.77265e-07
5.17546e-07
4.64562e-07
4.17507e-07
3.75672e-07
3.38441e-07
3.05269e-07
2.75681e-07
2.49262e-07
2.25644e-07
2.04505e-07
1.85565e-07
1.68574e-07
1.53313e-07
1.39588e-07
1.2723e-07
1.12291e-06
9.99619e-07
8.90838e-07
7.94777e-07
7.09878e-07
6.3478e-07
5.6829e-07
5.09366e-07
4.57098e-07
4.10688e-07
3.69437e-07
3.32733e-07
3.0004e-07
2.70886e-07
2.4486e-07
2.21599e-07
2.00785e-07
1.82138e-07
1.65415e-07
1.50397e-07
1.36897e-07
1.24745e-07
1.10824e-06
9.86389e-07
8.78886e-07
7.83968e-07
7.00089e-07
6.25903e-07
5.6023e-07
5.0204e-07
4.5043e-07
4.04611e-07
3.63893e-07
3.27669e-07
2.95409e-07
2.66648e-07
2.40977e-07
2.18039e-07
1.97518e-07
1.79138e-07
1.62655e-07
1.47856e-07
1.34554e-07
1.22583e-07
1.0952e-06
9.74649e-07
8.683e-07
7.7441e-07
6.9145e-07
6.18084e-07
5.53145e-07
4.95611e-07
4.4459e-07
3.99299e-07
3.59055e-07
3.23258e-07
2.91383e-07
2.62968e-07
2.37611e-07
2.14956e-07
1.94692e-07
1.76545e-07
1.60275e-07
1.45669e-07
1.32543e-07
1.20731e-07
1.08379e-06
9.64387e-07
8.59065e-07
7.66087e-07
6.8394e-07
6.11298e-07
5.47007e-07
4.90052e-07
4.39549e-07
3.94723e-07
3.54894e-07
3.19471e-07
2.87931e-07
2.59819e-07
2.34734e-07
2.12325e-07
1.92283e-07
1.74338e-07
1.58251e-07
1.43812e-07
1.30836e-07
1.19162e-07
1.07397e-06
9.55576e-07
8.51148e-07
7.58965e-07
6.77525e-07
6.05513e-07
5.41782e-07
4.85328e-07
4.35272e-07
3.90845e-07
3.51376e-07
3.16273e-07
2.85021e-07
2.57168e-07
2.32316e-07
2.10117e-07
1.90265e-07
1.72491e-07
1.56558e-07
1.4226e-07
1.29412e-07
1.17853e-07
1.0657e-06
9.48164e-07
8.44499e-07
7.52993e-07
6.72154e-07
6.00677e-07
5.37423e-07
4.81392e-07
4.31715e-07
3.87625e-07
3.48458e-07
3.13626e-07
2.82616e-07
2.5498e-07
2.30324e-07
2.083e-07
1.88606e-07
1.70974e-07
1.55171e-07
1.40989e-07
1.28248e-07
1.16786e-07
1.05892e-06
9.42092e-07
8.39057e-07
7.4811e-07
6.67768e-07
5.96733e-07
5.3387e-07
4.7819e-07
4.28824e-07
3.85014e-07
3.46095e-07
3.11485e-07
2.80674e-07
2.53217e-07
2.28719e-07
2.0684e-07
1.87273e-07
1.69758e-07
1.54058e-07
1.39972e-07
1.27316e-07
1.15933e-07
1.05361e-06
9.37346e-07
8.34803e-07
7.44293e-07
6.64339e-07
5.93649e-07
5.31095e-07
4.75689e-07
4.26567e-07
3.82975e-07
3.44251e-07
3.09815e-07
2.79161e-07
2.51842e-07
2.2747e-07
2.05702e-07
1.86238e-07
1.68812e-07
1.53194e-07
1.39179e-07
1.26587e-07
1.15261e-07
1.04947e-06
9.33663e-07
8.3152e-07
7.41365e-07
6.61724e-07
5.9131e-07
5.28999e-07
4.73809e-07
4.24878e-07
3.81455e-07
3.42881e-07
3.08578e-07
2.78042e-07
2.5083e-07
2.26552e-07
2.04868e-07
1.85479e-07
1.68121e-07
1.52563e-07
1.38601e-07
1.26056e-07
1.14738e-07
1.17426e-06
1.0468e-06
9.34191e-07
8.34617e-07
7.46496e-07
6.68444e-07
5.99247e-07
5.37844e-07
4.83303e-07
4.34811e-07
3.91651e-07
3.53198e-07
3.18901e-07
2.88278e-07
2.60904e-07
2.36407e-07
2.1446e-07
1.94774e-07
1.77095e-07
1.61199e-07
1.46891e-07
1.33996e-07
1.17456e-06
1.04708e-06
9.34449e-07
8.34858e-07
7.46722e-07
6.68656e-07
5.99445e-07
5.38029e-07
4.83476e-07
4.34972e-07
3.91802e-07
3.53339e-07
3.19033e-07
2.88401e-07
2.6102e-07
2.36515e-07
2.14561e-07
1.94868e-07
1.77183e-07
1.61282e-07
1.46968e-07
1.34068e-07
1.1773e-06
1.04955e-06
9.36678e-07
8.3687e-07
7.48541e-07
6.70301e-07
6.00936e-07
5.39381e-07
4.84704e-07
4.36089e-07
3.92818e-07
3.54265e-07
3.19877e-07
2.89172e-07
2.61724e-07
2.3716e-07
2.15151e-07
1.95409e-07
1.77679e-07
1.61738e-07
1.47387e-07
1.34453e-07
1.1819e-06
1.05368e-06
9.40387e-07
8.40208e-07
7.51549e-07
6.73015e-07
6.03387e-07
5.41597e-07
4.8671e-07
4.37907e-07
3.94468e-07
3.55763e-07
3.2124e-07
2.90413e-07
2.62855e-07
2.38192e-07
2.16093e-07
1.96271e-07
1.78468e-07
1.6246e-07
1.4805e-07
1.35061e-07
1.18774e-06
1.05895e-06
9.45159e-07
8.4453e-07
7.55466e-07
6.7657e-07
6.06617e-07
5.44536e-07
4.89387e-07
4.40347e-07
3.96695e-07
3.57798e-07
3.23101e-07
2.92116e-07
2.64416e-07
2.39623e-07
2.17407e-07
1.97477e-07
1.79578e-07
1.63481e-07
1.4899e-07
1.35928e-07
1.19548e-06
1.06595e-06
9.51496e-07
8.50275e-07
7.60681e-07
6.81308e-07
6.10928e-07
5.48461e-07
4.92965e-07
4.43613e-07
3.99679e-07
3.60527e-07
3.25598e-07
2.94405e-07
2.66514e-07
2.4155e-07
2.19177e-07
1.99105e-07
1.81074e-07
1.6486e-07
1.5026e-07
1.37099e-07
1.20511e-06
1.07469e-06
9.59426e-07
8.57481e-07
7.67237e-07
6.8728e-07
6.16373e-07
5.53432e-07
4.97507e-07
4.47767e-07
4.03482e-07
3.64012e-07
3.28795e-07
2.97339e-07
2.69211e-07
2.44029e-07
2.21459e-07
2.01206e-07
1.83011e-07
1.66646e-07
1.51909e-07
1.38621e-07
1.21673e-06
1.08525e-06
9.69042e-07
8.66243e-07
7.75229e-07
6.94578e-07
6.23043e-07
5.59535e-07
5.03096e-07
4.5289e-07
4.08182e-07
3.68328e-07
3.32762e-07
3.00988e-07
2.72569e-07
2.47122e-07
2.2431e-07
2.03836e-07
1.85439e-07
1.68889e-07
1.53981e-07
1.40538e-07
1.2304e-06
1.09771e-06
9.80414e-07
8.76632e-07
7.8473e-07
7.03275e-07
6.31012e-07
5.66842e-07
5.09803e-07
4.59052e-07
4.13847e-07
3.7354e-07
3.37562e-07
3.05411e-07
2.76647e-07
2.50886e-07
2.27785e-07
2.07047e-07
1.88407e-07
1.71634e-07
1.56522e-07
1.4289e-07
1.24614e-06
1.1121e-06
9.93583e-07
8.88695e-07
7.9579e-07
7.13424e-07
6.40334e-07
5.75411e-07
5.17686e-07
4.66309e-07
4.20534e-07
3.79705e-07
3.43249e-07
3.10661e-07
2.81498e-07
2.55369e-07
2.31932e-07
2.10884e-07
1.91959e-07
1.74923e-07
1.5957e-07
1.45715e-07
1.26378e-06
1.12829e-06
1.00845e-06
9.02356e-07
8.08355e-07
7.2499e-07
6.50988e-07
5.85232e-07
5.26746e-07
4.74671e-07
4.28257e-07
3.86843e-07
3.4985e-07
3.16768e-07
2.8715e-07
2.60604e-07
2.36781e-07
2.15379e-07
1.96127e-07
1.7879e-07
1.63158e-07
1.49046e-07
1.2838e-06
1.14669e-06
1.02537e-06
9.17931e-07
8.22701e-07
7.38213e-07
6.63184e-07
5.96489e-07
5.37142e-07
4.84279e-07
4.3714e-07
3.95061e-07
3.57456e-07
3.23812e-07
2.93677e-07
2.66653e-07
2.4239e-07
2.20582e-07
2.00955e-07
1.83271e-07
1.67319e-07
1.52911e-07
1.30546e-06
1.16667e-06
1.04382e-06
9.3498e-07
8.38462e-07
7.52791e-07
6.76675e-07
6.0898e-07
5.48713e-07
4.95002e-07
4.47082e-07
4.04282e-07
3.66011e-07
3.31752e-07
3.01049e-07
2.73499e-07
2.48751e-07
2.26493e-07
2.0645e-07
1.8838e-07
1.7207e-07
1.57331e-07
1.32887e-06
1.18835e-06
1.0639e-06
9.53586e-07
8.55712e-07
7.68791e-07
6.9152e-07
6.22759e-07
5.61507e-07
5.06885e-07
4.58122e-07
4.14541e-07
3.75548e-07
3.40619e-07
3.09294e-07
2.81169e-07
2.55887e-07
2.33133e-07
2.1263e-07
1.94134e-07
1.77427e-07
1.62319e-07
1.35382e-06
1.21154e-06
1.08546e-06
9.73633e-07
8.74356e-07
7.86134e-07
7.07657e-07
6.37776e-07
5.75484e-07
5.19896e-07
4.70235e-07
4.25821e-07
3.86052e-07
3.50403e-07
3.18409e-07
2.89661e-07
2.63799e-07
2.40506e-07
2.19502e-07
2.00538e-07
1.83396e-07
1.67884e-07
1.35382e-06
1.21154e-06
1.08546e-06
9.73633e-07
8.74356e-07
7.86135e-07
7.07658e-07
6.37777e-07
5.75484e-07
5.19896e-07
4.70235e-07
4.25821e-07
3.86053e-07
3.50404e-07
3.1841e-07
2.89662e-07
2.638e-07
2.40507e-07
2.19503e-07
2.00539e-07
1.83398e-07
1.67885e-07
1.32887e-06
1.18835e-06
1.0639e-06
9.53586e-07
8.55713e-07
7.68792e-07
6.91522e-07
6.22761e-07
5.61508e-07
5.06885e-07
4.58122e-07
4.14542e-07
3.75549e-07
3.4062e-07
3.09296e-07
2.81172e-07
2.5589e-07
2.33137e-07
2.12634e-07
1.94137e-07
1.7743e-07
1.62322e-07
1.30546e-06
1.16667e-06
1.04382e-06
9.3498e-07
8.38462e-07
7.52792e-07
6.76676e-07
6.08981e-07
5.48714e-07
4.95003e-07
4.47084e-07
4.04284e-07
3.66014e-07
3.31755e-07
3.01052e-07
2.73503e-07
2.48755e-07
2.26497e-07
2.06454e-07
1.88384e-07
1.72074e-07
1.57334e-07
1.2838e-06
1.14669e-06
1.02537e-06
9.1793e-07
8.22701e-07
7.38214e-07
6.63185e-07
5.96491e-07
5.37145e-07
4.84282e-07
4.37144e-07
3.95066e-07
3.57461e-07
3.23817e-07
2.93681e-07
2.66657e-07
2.42394e-07
2.20586e-07
2.00959e-07
1.83275e-07
1.67322e-07
1.52914e-07
1.26378e-06
1.12829e-06
1.00845e-06
9.02356e-07
8.08356e-07
7.24992e-07
6.5099e-07
5.85236e-07
5.2675e-07
4.74676e-07
4.28263e-07
3.86849e-07
3.49856e-07
3.16773e-07
2.87156e-07
2.60608e-07
2.36786e-07
2.15383e-07
1.96131e-07
1.78793e-07
1.63162e-07
1.4905e-07
1.24613e-06
1.1121e-06
9.93583e-07
8.88697e-07
7.95793e-07
7.13428e-07
6.40338e-07
5.75416e-07
5.17692e-07
4.66315e-07
4.2054e-07
3.79712e-07
3.43256e-07
3.10668e-07
2.81504e-07
2.55376e-07
2.31937e-07
2.10889e-07
1.91964e-07
1.74928e-07
1.59575e-07
1.4572e-07
1.2304e-06
1.09771e-06
9.80418e-07
8.76638e-07
7.84737e-07
7.03282e-07
6.31019e-07
5.66849e-07
5.0981e-07
4.59059e-07
4.13854e-07
3.73548e-07
3.3757e-07
3.05418e-07
2.76656e-07
2.50894e-07
2.27793e-07
2.07055e-07
1.88414e-07
1.71641e-07
1.56527e-07
1.42895e-07
1.21673e-06
1.08526e-06
9.69052e-07
8.66254e-07
7.75241e-07
6.94589e-07
6.23054e-07
5.59545e-07
5.03106e-07
4.529e-07
4.08191e-07
3.68337e-07
3.32771e-07
3.00996e-07
2.72577e-07
2.4713e-07
2.24319e-07
2.03844e-07
1.85447e-07
1.68895e-07
1.53988e-07
1.40543e-07
1.20512e-06
1.0747e-06
9.59442e-07
8.57498e-07
7.67254e-07
6.87297e-07
6.16389e-07
5.53446e-07
4.97521e-07
4.47779e-07
4.03493e-07
3.64022e-07
3.28804e-07
2.97348e-07
2.69219e-07
2.44037e-07
2.21466e-07
2.01213e-07
1.83018e-07
1.66653e-07
1.51915e-07
1.38627e-07
1.19549e-06
1.06597e-06
9.51519e-07
8.50298e-07
7.60703e-07
6.8133e-07
6.10948e-07
5.4848e-07
4.92983e-07
4.43628e-07
3.99692e-07
3.60538e-07
3.25609e-07
2.94414e-07
2.66523e-07
2.41557e-07
2.19185e-07
1.99112e-07
1.81082e-07
1.64868e-07
1.50268e-07
1.37107e-07
1.18776e-06
1.05898e-06
9.45185e-07
8.44556e-07
7.55492e-07
6.76596e-07
6.06642e-07
5.44559e-07
4.89408e-07
4.40367e-07
3.96713e-07
3.57814e-07
3.23115e-07
2.92128e-07
2.64426e-07
2.39632e-07
2.17417e-07
1.97486e-07
1.79587e-07
1.63489e-07
1.48999e-07
1.35937e-07
1.18192e-06
1.0537e-06
9.40416e-07
8.40237e-07
7.51576e-07
6.73042e-07
6.03413e-07
5.41623e-07
4.86735e-07
4.3793e-07
3.9449e-07
3.55784e-07
3.21258e-07
2.90429e-07
2.62869e-07
2.38204e-07
2.16104e-07
1.96281e-07
1.78477e-07
1.6247e-07
1.48059e-07
1.3507e-07
1.17734e-06
1.04959e-06
9.36715e-07
8.36906e-07
7.48574e-07
6.70332e-07
6.00965e-07
5.39408e-07
4.8473e-07
4.36114e-07
3.92842e-07
3.54288e-07
3.19899e-07
2.89192e-07
2.61742e-07
2.37176e-07
2.15166e-07
1.95422e-07
1.77691e-07
1.6175e-07
1.47398e-07
1.34465e-07
1.17461e-06
1.04713e-06
9.34503e-07
8.34909e-07
7.46769e-07
6.68698e-07
5.99482e-07
5.38062e-07
4.83506e-07
4.35001e-07
3.91829e-07
3.53365e-07
3.19058e-07
2.88426e-07
2.61043e-07
2.36538e-07
2.14582e-07
1.94887e-07
1.77201e-07
1.61297e-07
1.46983e-07
1.3408e-07
1.17434e-06
1.04688e-06
9.34265e-07
8.34687e-07
7.46561e-07
6.68503e-07
5.993e-07
5.37891e-07
4.83344e-07
4.34847e-07
3.91684e-07
3.53228e-07
3.1893e-07
2.88306e-07
2.60932e-07
2.36434e-07
2.14485e-07
1.94798e-07
1.77116e-07
1.61219e-07
1.46907e-07
1.34008e-07
1.17423e-06
1.04677e-06
9.34155e-07
8.3458e-07
7.46459e-07
6.68407e-07
5.9921e-07
5.37807e-07
4.83267e-07
4.34775e-07
3.91618e-07
3.53167e-07
3.18873e-07
2.88253e-07
2.60882e-07
2.36388e-07
2.14442e-07
1.94757e-07
1.77078e-07
1.61183e-07
1.46875e-07
1.33979e-07
1.17451e-06
1.04703e-06
9.34404e-07
8.34813e-07
7.46677e-07
6.68611e-07
5.99402e-07
5.37987e-07
4.83437e-07
4.34936e-07
3.91769e-07
3.53309e-07
3.19006e-07
2.88376e-07
2.60997e-07
2.36494e-07
2.14541e-07
1.94849e-07
1.77165e-07
1.61265e-07
1.46952e-07
1.34052e-07
1.17725e-06
1.0495e-06
9.36627e-07
8.3682e-07
7.48492e-07
6.70254e-07
6.00891e-07
5.39339e-07
4.84665e-07
4.36053e-07
3.92785e-07
3.54234e-07
3.19849e-07
2.89145e-07
2.61699e-07
2.37136e-07
2.15129e-07
1.95388e-07
1.7766e-07
1.6172e-07
1.47371e-07
1.34438e-07
1.18184e-06
1.05362e-06
9.40334e-07
8.40157e-07
7.515e-07
6.72968e-07
6.03343e-07
5.41556e-07
4.86672e-07
4.37871e-07
3.94435e-07
3.55732e-07
3.2121e-07
2.90384e-07
2.62828e-07
2.38166e-07
2.16069e-07
1.96249e-07
1.78448e-07
1.62443e-07
1.48034e-07
1.35048e-07
1.18768e-06
1.0589e-06
9.45107e-07
8.44479e-07
7.55418e-07
6.76525e-07
6.06575e-07
5.44496e-07
4.89349e-07
4.40311e-07
3.9666e-07
3.57765e-07
3.23069e-07
2.92087e-07
2.64387e-07
2.39597e-07
2.17383e-07
1.97456e-07
1.79558e-07
1.63463e-07
1.48975e-07
1.35914e-07
1.19542e-06
1.0659e-06
9.51443e-07
8.50224e-07
7.60632e-07
6.81263e-07
6.10884e-07
5.4842e-07
4.92926e-07
4.43576e-07
3.99644e-07
3.60493e-07
3.25568e-07
2.94375e-07
2.66488e-07
2.41524e-07
2.19155e-07
1.99084e-07
1.81057e-07
1.64844e-07
1.50246e-07
1.37088e-07
1.20505e-06
1.07463e-06
9.5937e-07
8.57428e-07
7.67187e-07
6.87232e-07
6.16328e-07
5.53389e-07
4.97467e-07
4.47729e-07
4.03446e-07
3.63979e-07
3.28765e-07
2.97312e-07
2.69185e-07
2.44007e-07
2.21438e-07
2.01189e-07
1.82994e-07
1.66633e-07
1.51895e-07
1.3861e-07
1.21666e-06
1.08519e-06
9.68983e-07
8.66187e-07
7.75176e-07
6.94528e-07
6.22996e-07
5.59491e-07
5.03055e-07
4.52853e-07
4.08148e-07
3.68297e-07
3.32733e-07
3.00962e-07
2.72546e-07
2.47101e-07
2.24293e-07
2.0382e-07
1.85426e-07
1.68875e-07
1.5397e-07
1.40527e-07
1.23033e-06
1.09765e-06
9.80353e-07
8.76574e-07
7.84676e-07
7.03224e-07
6.30964e-07
5.66798e-07
5.09763e-07
4.59015e-07
4.13815e-07
3.73511e-07
3.37536e-07
3.05387e-07
2.76627e-07
2.50867e-07
2.27769e-07
2.07033e-07
1.88394e-07
1.71622e-07
1.56511e-07
1.42881e-07
1.24607e-06
1.11204e-06
9.93522e-07
8.88637e-07
7.95735e-07
7.13373e-07
6.40286e-07
5.75368e-07
5.17647e-07
4.66274e-07
4.20502e-07
3.79678e-07
3.43225e-07
3.1064e-07
2.81479e-07
2.55353e-07
2.31916e-07
2.10871e-07
1.91947e-07
1.74913e-07
1.5956e-07
1.45706e-07
1.26372e-06
1.12823e-06
1.00839e-06
9.023e-07
8.08302e-07
7.24941e-07
6.50942e-07
5.8519e-07
5.26708e-07
4.74637e-07
4.28227e-07
3.86816e-07
3.49826e-07
3.16746e-07
2.87132e-07
2.60587e-07
2.36768e-07
2.15366e-07
1.96117e-07
1.7878e-07
1.63149e-07
1.49039e-07
1.28374e-06
1.14663e-06
1.02531e-06
9.17877e-07
8.2265e-07
7.38166e-07
6.6314e-07
5.96449e-07
5.37106e-07
4.84246e-07
4.37111e-07
3.95035e-07
3.57432e-07
3.23791e-07
2.93657e-07
2.66636e-07
2.42375e-07
2.20569e-07
2.00944e-07
1.83262e-07
1.67311e-07
1.52904e-07
1.30541e-06
1.16662e-06
1.04377e-06
9.3493e-07
8.38415e-07
7.52747e-07
6.76634e-07
6.08942e-07
5.48679e-07
4.9497e-07
4.47054e-07
4.04256e-07
3.65989e-07
3.31732e-07
3.01031e-07
2.73483e-07
2.48737e-07
2.2648e-07
2.06439e-07
1.88371e-07
1.72062e-07
1.57324e-07
1.32882e-06
1.1883e-06
1.06385e-06
9.5354e-07
8.55668e-07
7.6875e-07
6.91482e-07
6.22724e-07
5.61475e-07
5.06855e-07
4.58095e-07
4.14517e-07
3.75526e-07
3.406e-07
3.09278e-07
2.81155e-07
2.55874e-07
2.33122e-07
2.1262e-07
1.94125e-07
1.77419e-07
1.62312e-07
1.35378e-06
1.2115e-06
1.08541e-06
9.7359e-07
8.74315e-07
7.86096e-07
7.07621e-07
6.37742e-07
5.75453e-07
5.19867e-07
4.7021e-07
4.25798e-07
3.86032e-07
3.50385e-07
3.18394e-07
2.89647e-07
2.63788e-07
2.40496e-07
2.19492e-07
2.00529e-07
1.83389e-07
1.67876e-07
1.35378e-06
1.2115e-06
1.08542e-06
9.73593e-07
8.74318e-07
7.86098e-07
7.07623e-07
6.37744e-07
5.75454e-07
5.19869e-07
4.70211e-07
4.25799e-07
3.86034e-07
3.50387e-07
3.18395e-07
2.89649e-07
2.63788e-07
2.40497e-07
2.19493e-07
2.0053e-07
1.83389e-07
1.67877e-07
1.32883e-06
1.18831e-06
1.06386e-06
9.53549e-07
8.55677e-07
7.68758e-07
6.9149e-07
6.22731e-07
5.61481e-07
5.06861e-07
4.581e-07
4.14521e-07
3.7553e-07
3.40604e-07
3.09281e-07
2.81158e-07
2.55877e-07
2.33125e-07
2.12623e-07
1.94127e-07
1.77421e-07
1.62314e-07
1.30542e-06
1.16664e-06
1.04379e-06
9.34946e-07
8.38429e-07
7.52761e-07
6.76647e-07
6.08954e-07
5.48689e-07
4.9498e-07
4.47062e-07
4.04264e-07
3.65995e-07
3.31738e-07
3.01036e-07
2.73488e-07
2.48741e-07
2.26484e-07
2.06443e-07
1.88374e-07
1.72065e-07
1.57326e-07
1.28377e-06
1.14666e-06
1.02534e-06
9.179e-07
8.22672e-07
7.38186e-07
6.63159e-07
5.96466e-07
5.37121e-07
4.84259e-07
4.37123e-07
3.95045e-07
3.57442e-07
3.23799e-07
2.93665e-07
2.66642e-07
2.42381e-07
2.20574e-07
2.00948e-07
1.83266e-07
1.67314e-07
1.52907e-07
1.26375e-06
1.12826e-06
1.00842e-06
9.0233e-07
8.0833e-07
7.24967e-07
6.50966e-07
5.85212e-07
5.26727e-07
4.74655e-07
4.28242e-07
3.86829e-07
3.49837e-07
3.16757e-07
2.8714e-07
2.60595e-07
2.36774e-07
2.15372e-07
1.96121e-07
1.78785e-07
1.63153e-07
1.49042e-07
1.24611e-06
1.11208e-06
9.9356e-07
8.88673e-07
7.95769e-07
7.13405e-07
6.40316e-07
5.75394e-07
5.17671e-07
4.66295e-07
4.20521e-07
3.79694e-07
3.43239e-07
3.10653e-07
2.8149e-07
2.55362e-07
2.31925e-07
2.10878e-07
1.91954e-07
1.74919e-07
1.59566e-07
1.45712e-07
1.23038e-06
1.09769e-06
9.80395e-07
8.76614e-07
7.84713e-07
7.03259e-07
6.30997e-07
5.66829e-07
5.09791e-07
4.59041e-07
4.13837e-07
3.73532e-07
3.37554e-07
3.05404e-07
2.76641e-07
2.5088e-07
2.2778e-07
2.07043e-07
1.88403e-07
1.71631e-07
1.56519e-07
1.42887e-07
1.21671e-06
1.08523e-06
9.69026e-07
8.66228e-07
7.75216e-07
6.94565e-07
6.23032e-07
5.59524e-07
5.03087e-07
4.52882e-07
4.08174e-07
3.68321e-07
3.32756e-07
3.00982e-07
2.72564e-07
2.47118e-07
2.24306e-07
2.03833e-07
1.85436e-07
1.68886e-07
1.53979e-07
1.40535e-07
1.20509e-06
1.07467e-06
9.59411e-07
8.57468e-07
7.67225e-07
6.8727e-07
6.16364e-07
5.53423e-07
4.97499e-07
4.4776e-07
4.03476e-07
3.64006e-07
3.2879e-07
2.97335e-07
2.69207e-07
2.44025e-07
2.21456e-07
2.01203e-07
1.83009e-07
1.66644e-07
1.51907e-07
1.38619e-07
1.19546e-06
1.06594e-06
9.51484e-07
8.50264e-07
7.60671e-07
6.81299e-07
6.1092e-07
5.48454e-07
4.92959e-07
4.43607e-07
3.99674e-07
3.60522e-07
3.25594e-07
2.94401e-07
2.66511e-07
2.41547e-07
2.19174e-07
1.99103e-07
1.81073e-07
1.64859e-07
1.50259e-07
1.37098e-07
1.18772e-06
1.05894e-06
9.45149e-07
8.4452e-07
7.55458e-07
6.76562e-07
6.06611e-07
5.4453e-07
4.89381e-07
4.40342e-07
3.96691e-07
3.57794e-07
3.23098e-07
2.92113e-07
2.64413e-07
2.39621e-07
2.17406e-07
1.97476e-07
1.79576e-07
1.6348e-07
1.48989e-07
1.35927e-07
1.18189e-06
1.05367e-06
9.40379e-07
8.40201e-07
7.51542e-07
6.73008e-07
6.03381e-07
5.41592e-07
4.86706e-07
4.37903e-07
3.94465e-07
3.55761e-07
3.21238e-07
2.90411e-07
2.62853e-07
2.3819e-07
2.16092e-07
1.9627e-07
1.78467e-07
1.62459e-07
1.48049e-07
1.3506e-07
1.17729e-06
1.04954e-06
9.36672e-07
8.36865e-07
7.48536e-07
6.70297e-07
6.00932e-07
5.39378e-07
4.84701e-07
4.36086e-07
3.92816e-07
3.54263e-07
3.19876e-07
2.89171e-07
2.61723e-07
2.37159e-07
2.1515e-07
1.95408e-07
1.77678e-07
1.61737e-07
1.47387e-07
1.34453e-07
1.17455e-06
1.04707e-06
9.34445e-07
8.34855e-07
7.46719e-07
6.68653e-07
5.99443e-07
5.38027e-07
4.83475e-07
4.34971e-07
3.91801e-07
3.53338e-07
3.19032e-07
2.884e-07
2.61019e-07
2.36514e-07
2.1456e-07
1.94867e-07
1.77182e-07
1.61282e-07
1.46968e-07
1.34068e-07
1.17426e-06
1.0468e-06
9.3419e-07
8.34616e-07
7.46495e-07
6.68443e-07
5.99247e-07
5.37843e-07
4.83303e-07
4.3481e-07
3.9165e-07
3.53197e-07
3.189e-07
2.88277e-07
2.60904e-07
2.36407e-07
2.1446e-07
1.94773e-07
1.77095e-07
1.61199e-07
1.46891e-07
1.33996e-07
1.17098e-06
1.17113e-06
1.1737e-06
1.17795e-06
1.1832e-06
1.19003e-06
1.1984e-06
1.20831e-06
1.21967e-06
1.23242e-06
1.24639e-06
1.26201e-06
1.27845e-06
1.29575e-06
1.31371e-06
1.24209e-06
1.21898e-06
1.19699e-06
1.17628e-06
1.15698e-06
1.13887e-06
1.12279e-06
1.10814e-06
1.09511e-06
1.08371e-06
1.07391e-06
1.06568e-06
1.05894e-06
1.05369e-06
1.04938e-06
1.03795e-06
1.03809e-06
1.04036e-06
1.04413e-06
1.04881e-06
1.05493e-06
1.06246e-06
1.07143e-06
1.08175e-06
1.0934e-06
1.10624e-06
1.12065e-06
1.13594e-06
1.15214e-06
1.16909e-06
1.10798e-06
1.08685e-06
1.0668e-06
1.04796e-06
1.03043e-06
1.01404e-06
9.99506e-07
9.86287e-07
9.74559e-07
9.64313e-07
9.55527e-07
9.48151e-07
9.42119e-07
9.37421e-07
9.33562e-07
9.20917e-07
9.21036e-07
9.23055e-07
9.26402e-07
9.30588e-07
9.3607e-07
9.42854e-07
9.50976e-07
9.6038e-07
9.71031e-07
9.82836e-07
9.96145e-07
1.01037e-06
1.02553e-06
1.0415e-06
9.89482e-07
9.70144e-07
9.51836e-07
9.34671e-07
9.18743e-07
9.03899e-07
8.90733e-07
8.78793e-07
8.68221e-07
8.59002e-07
8.51109e-07
8.44493e-07
8.39089e-07
8.34881e-07
8.31428e-07
8.17882e-07
8.17989e-07
8.19785e-07
8.22761e-07
8.26511e-07
8.31431e-07
8.37544e-07
8.44909e-07
8.53487e-07
8.6324e-07
8.741e-07
8.86393e-07
8.99629e-07
9.13821e-07
9.28865e-07
8.84689e-07
8.6697e-07
8.50238e-07
8.34581e-07
8.20086e-07
8.06621e-07
7.94683e-07
7.83884e-07
7.74342e-07
7.66036e-07
7.58937e-07
7.52995e-07
7.48148e-07
7.44374e-07
7.41281e-07
7.27112e-07
7.27208e-07
7.28808e-07
7.31459e-07
7.34824e-07
7.39247e-07
7.4476e-07
7.51441e-07
7.59277e-07
7.68221e-07
7.7822e-07
7.89577e-07
8.01896e-07
8.15181e-07
8.29339e-07
7.91929e-07
7.75676e-07
7.60368e-07
7.46074e-07
7.32864e-07
7.20633e-07
7.09797e-07
7.00018e-07
6.91394e-07
6.83901e-07
6.77508e-07
6.72164e-07
6.6781e-07
6.64422e-07
6.61649e-07
6.47089e-07
6.47176e-07
6.48604e-07
6.50968e-07
6.53993e-07
6.57977e-07
6.62955e-07
6.69018e-07
6.7618e-07
6.84396e-07
6.93612e-07
7.04106e-07
7.15571e-07
7.28007e-07
7.41323e-07
7.09744e-07
6.94819e-07
6.80799e-07
6.67735e-07
6.55684e-07
6.4456e-07
6.3471e-07
6.25844e-07
6.1804e-07
6.11272e-07
6.05505e-07
6.00695e-07
5.9678e-07
5.93733e-07
5.91245e-07
5.76487e-07
5.76568e-07
5.77844e-07
5.79955e-07
5.82679e-07
5.86274e-07
5.90776e-07
5.9628e-07
6.02828e-07
6.10386e-07
6.18891e-07
6.28591e-07
6.39257e-07
6.50897e-07
6.63418e-07
6.36857e-07
6.23138e-07
6.10283e-07
5.98331e-07
5.87326e-07
5.77195e-07
5.68231e-07
5.60183e-07
5.53112e-07
5.4699e-07
5.41783e-07
5.37446e-07
5.33922e-07
5.31178e-07
5.28944e-07
5.14149e-07
5.14224e-07
5.15366e-07
5.17254e-07
5.1971e-07
5.22961e-07
5.27041e-07
5.32041e-07
5.38027e-07
5.44984e-07
5.52845e-07
5.61817e-07
5.71737e-07
5.82627e-07
5.94398e-07
5.72155e-07
5.59528e-07
5.47728e-07
5.36784e-07
5.26723e-07
5.17486e-07
5.09318e-07
5.02004e-07
4.95589e-07
4.90045e-07
4.85338e-07
4.81421e-07
4.78244e-07
4.75771e-07
4.73764e-07
4.59063e-07
4.59134e-07
4.60157e-07
4.61847e-07
4.64064e-07
4.67008e-07
4.70714e-07
4.75263e-07
4.80734e-07
4.8714e-07
4.94415e-07
5.02721e-07
5.11944e-07
5.22127e-07
5.33189e-07
5.14657e-07
5.03025e-07
4.9218e-07
4.82148e-07
4.72943e-07
4.64511e-07
4.57059e-07
4.50404e-07
4.44577e-07
4.3955e-07
4.35289e-07
4.31749e-07
4.28881e-07
4.26648e-07
4.24843e-07
4.10344e-07
4.10411e-07
4.1133e-07
4.12844e-07
4.14848e-07
4.17518e-07
4.2089e-07
4.25036e-07
4.30037e-07
4.35934e-07
4.42673e-07
4.50373e-07
4.58947e-07
4.68461e-07
4.78853e-07
4.63507e-07
4.52784e-07
4.42805e-07
4.33597e-07
4.25167e-07
4.17464e-07
4.10657e-07
4.04593e-07
3.99294e-07
3.94731e-07
3.90868e-07
3.87664e-07
3.85072e-07
3.83055e-07
3.8143e-07
3.67219e-07
3.67281e-07
3.68109e-07
3.69467e-07
3.7128e-07
3.73705e-07
3.76779e-07
3.80565e-07
3.85139e-07
3.90563e-07
3.96809e-07
4.03956e-07
4.11931e-07
4.20812e-07
4.30566e-07
4.17952e-07
4.08062e-07
3.9887e-07
3.90409e-07
3.82682e-07
3.75637e-07
3.69412e-07
3.63881e-07
3.59056e-07
3.54908e-07
3.51403e-07
3.485e-07
3.46154e-07
3.44328e-07
3.42865e-07
3.29011e-07
3.29069e-07
3.29814e-07
3.31035e-07
3.32678e-07
3.34881e-07
3.37687e-07
3.41152e-07
3.45342e-07
3.50329e-07
3.56115e-07
3.62755e-07
3.70179e-07
3.78466e-07
3.87612e-07
3.77334e-07
3.68208e-07
3.59735e-07
3.51951e-07
3.44859e-07
3.38411e-07
3.32714e-07
3.27662e-07
3.23264e-07
3.19489e-07
3.16304e-07
3.1367e-07
3.11545e-07
3.09891e-07
3.08571e-07
2.95128e-07
2.95182e-07
2.95854e-07
2.96953e-07
2.98442e-07
3.00447e-07
3.03011e-07
3.06186e-07
3.10031e-07
3.14618e-07
3.19972e-07
3.26146e-07
3.33063e-07
3.40795e-07
3.49361e-07
3.41074e-07
3.3265e-07
3.24837e-07
3.17668e-07
3.11153e-07
3.05244e-07
3.00025e-07
2.95405e-07
2.91391e-07
2.87952e-07
2.85055e-07
2.82663e-07
2.80734e-07
2.79234e-07
2.78044e-07
2.65051e-07
2.651e-07
2.65707e-07
2.66698e-07
2.6805e-07
2.69876e-07
2.72221e-07
2.75135e-07
2.7867e-07
2.82891e-07
2.87842e-07
2.9358e-07
3.00031e-07
3.07248e-07
3.15264e-07
3.08667e-07
3.00888e-07
2.9368e-07
2.87074e-07
2.8108e-07
2.75661e-07
2.70874e-07
2.66647e-07
2.62979e-07
2.59841e-07
2.57203e-07
2.55027e-07
2.53276e-07
2.51914e-07
2.50839e-07
2.38326e-07
2.38372e-07
2.3892e-07
2.39814e-07
2.41044e-07
2.42708e-07
2.44853e-07
2.4753e-07
2.50785e-07
2.54677e-07
2.59253e-07
2.6458e-07
2.706e-07
2.77341e-07
2.84839e-07
2.79671e-07
2.72482e-07
2.65831e-07
2.5974e-07
2.54221e-07
2.49244e-07
2.44851e-07
2.40977e-07
2.37622e-07
2.34757e-07
2.32351e-07
2.30371e-07
2.28778e-07
2.2754e-07
2.26568e-07
2.14556e-07
2.14598e-07
2.15093e-07
2.15901e-07
2.17021e-07
2.18539e-07
2.20504e-07
2.22964e-07
2.25965e-07
2.29558e-07
2.33789e-07
2.3873e-07
2.44345e-07
2.50647e-07
2.5766e-07
2.53698e-07
2.47047e-07
2.40907e-07