/*--------------------------------*- C++ -*----------------------------------*\
| =========                 |                                                 |
| \\      /  F ield         | OpenFOAM Extend Project: Open source CFD        |
|  \\    /   O peration     | Version:  1.6-ext                               |
|   \\  /    A nd           | Web:      www.extend-project.de                 |
|    \\/     M anipulation  |                                                 |
\*---------------------------------------------------------------------------*/
FoamFile
{
    version     2.0;
    format      ascii;
    class       surfaceScalarField;
    location    "4.6";
    object      phi;
}
// * * * * * * * * * * * * * * * * * * * * * * * * * * * * * * * * * * * * * //

dimensions      [0 3 -1 0 0 0 0];

internalField   nonuniform List<scalar> 
123
(
0.000202632
1.13406e-05
0.000210258
3.4616e-05
0.000222121
6.11951e-05
0.000237606
9.2933e-05
0.000256772
0.000131445
0.00028156
0.000177617
0.000318839
0.000234392
0.000383375
0.00029156
0.000361147
0.000403754
0.000203914
7.42697e-06
0.000214622
2.39078e-05
0.000230943
4.48736e-05
0.000252635
7.12413e-05
0.000281067
0.000103013
0.00031969
0.000138994
0.000372258
0.000181825
0.000453565
0.000210253
0.000281434
0.000533278
0.000205979
1.44808e-06
0.00022022
9.66692e-06
0.000240138
2.49557e-05
0.000265176
4.62033e-05
0.000296487
7.17021e-05
0.000336696
9.87848e-05
0.000387943
0.000130578
0.000454223
0.000143973
0.000187666
0.000547991
0.000209412
-7.96351e-06
0.000227327
-8.24883e-06
0.000248883
3.4e-06
0.000273929
2.11573e-05
0.000303778
4.18535e-05
0.000340477
6.20855e-05
0.000386822
8.42327e-05
0.000439097
9.16981e-05
0.000111653
0.00051511
0.000214489
-2.24525e-05
0.000232313
-2.60731e-05
0.000250098
-1.43846e-05
0.000269951
1.30429e-06
0.000294131
1.76737e-05
0.000324439
3.1777e-05
0.000363432
4.52397e-05
0.000405346
4.9784e-05
5.68452e-05
0.000460154
0.000211667
-3.41198e-05
0.000216794
-3.12e-05
0.000220576
-1.81664e-05
0.000228063
-6.18313e-06
0.000242341
3.39579e-06
0.000263924
1.01946e-05
0.000293522
1.56414e-05
0.000326066
1.72398e-05
1.86609e-05
0.00036425
0.00016588
0.00013468
0.000116514
0.000110331
0.000113726
0.000123921
0.000139563
0.000156802
0.000175463
0.000156881
0.000180557
0.000144788
9.43837e-05
4.86537e-05
1.49522e-05
)
;

boundaryField
{
    inlet
    {
        type            calculated;
        value           nonuniform List<scalar> 7(-0.0002 -0.0002 -0.0002 -0.0002 -0.0002 -0.0002 -0.0002);
    }
    outlet
    {
        type            calculated;
        value           nonuniform 0();
    }
    fixedWalls
    {
        type            calculated;
        value           uniform 0;
    }
    frontAndBack
    {
        type            empty;
    }
    procBoundary2to3
    {
        type            processor;
        value           nonuniform List<scalar> 9(-1.39725e-05 -4.22418e-05 -7.30584e-05 -0.000108418 -0.000150611 -0.000202405 -0.000271671 -0.000356096 -0.000381526);
    }
    procBoundary2to1
    {
        type            processor;
        value           nonuniform List<scalar> 7(0.000246872 0.000509602 0.00058376 0.000565514 0.000505884 0.000397952 0.000190415);
    }
}


// ************************************************************************* //
