/*--------------------------------*- C++ -*----------------------------------*\
| =========                 |                                                 |
| \\      /  F ield         | OpenFOAM Extend Project: Open source CFD        |
|  \\    /   O peration     | Version:  1.6-ext                               |
|   \\  /    A nd           | Web:      www.extend-project.de                 |
|    \\/     M anipulation  |                                                 |
\*---------------------------------------------------------------------------*/
FoamFile
{
    version     2.0;
    format      ascii;
    class       volScalarField;
    location    "1.7";
    object      p;
}
// * * * * * * * * * * * * * * * * * * * * * * * * * * * * * * * * * * * * * //

dimensions      [0 2 -2 0 0 0 0];

internalField   nonuniform List<scalar> 
284
(
0.248374
0.216914
0.205438
0.200476
0.198564
0.198462
0.19921
0.200366
0.202591
0.219157
0.210262
0.204848
0.202279
0.20133
0.201414
0.201997
0.202809
0.205211
0.207355
0.203923
0.201292
0.200062
0.199988
0.200664
0.20158
0.202484
0.20551
0.198074
0.19698
0.19587
0.195558
0.196088
0.197145
0.198255
0.199165
0.202668
0.190511
0.190174
0.189694
0.18961
0.190047
0.190787
0.19138
0.191535
0.194829
0.183717
0.18357
0.183151
0.182706
0.182311
0.181794
0.180676
0.178478
0.17951
0.177339
0.177169
0.176476
0.17525
0.173387
0.170575
0.166009
0.158184
0.151897
0.171405
0.171123
0.169956
0.167672
0.163886
0.157979
0.14847
0.133452
0.0894107
0.166158
0.165719
0.163968
0.160479
0.154398
0.14414
0.124146
0.0858481
-0.0067351
0.161947
0.161299
0.158925
0.154407
0.146847
0.134793
0.114286
0.082489
0.030065
0.159229
0.158152
0.155021
0.149681
0.141598
0.129879
0.112737
0.088499
0.0560685
0.158321
0.156442
0.152148
0.145926
0.137641
0.126671
0.112175
0.0925569
0.0692098
0.161021
0.156542
0.150186
0.14282
0.134332
0.124101
0.11154
0.0952545
0.0767134
0.167439
0.157635
0.148645
0.140283
0.131854
0.122395
0.111189
0.097091
0.0809268
0.195775
0.163902
0.149483
0.140238
0.132143
0.12348
0.113084
0.0998053
0.0841355
-0.138448
-0.108943
-0.0390579
-0.0622167
0.00735323
-0.0215087
0.0370721
0.012562
0.054226
0.0337561
0.0625513
0.0445702
0.0663391
0.0479632
-0.0983896
-0.0874243
-0.0722836
-0.0517713
-0.0311981
-0.0153097
-0.0055907
-0.000832925
-9.41988e-05
-0.0693813
-0.0661284
-0.0551145
-0.0390081
-0.0229547
-0.0108136
-0.00370538
-0.000415738
-0.000582915
-0.03336
-0.0354543
-0.0310739
-0.0225113
-0.0132981
-0.00617973
-0.00211078
-0.000300164
-0.00102287
-0.00182388
-0.00907822
-0.0108352
-0.00896124
-0.00574335
-0.00293567
-0.00132612
-0.000568749
-0.00137119
0.0184645
0.00841195
0.00254859
-0.000260416
-0.00124165
-0.00139347
-0.00133937
-0.00110704
-0.00158101
0.0292629
0.0174665
0.00905059
0.00353368
0.00027954
-0.00134411
-0.00190652
-0.00174227
-0.00164211
0.0314483
0.0179684
0.00798271
0.00141915
-0.0022332
-0.00373945
-0.00387047
-0.00318027
-0.00210765
-0.0251168
-0.0244637
-0.0212224
-0.0165532
-0.0114365
-0.00670044
-0.00300328
-0.000422197
0.00138987
-0.0258788
-0.0254855
-0.0226292
-0.0182204
-0.0130649
-0.00820463
-0.00423245
-0.00131801
0.00103416
-0.0289556
-0.0285883
-0.0253792
-0.0203675
-0.0145058
-0.00899917
-0.00455767
-0.00138575
0.00117418
-0.0344235
-0.0339892
-0.0301369
-0.0239721
-0.0167619
-0.0101111
-0.00489175
-0.00134445
0.00132578
-0.0432793
-0.0423904
-0.0376303
-0.029596
-0.0202257
-0.0117663
-0.005364
-0.00127635
0.00138885
-0.0567668
-0.054406
-0.0482802
-0.0373767
-0.0249416
-0.0139535
-0.00597655
-0.00121696
0.00129045
-0.0735091
-0.0669757
-0.0602063
-0.0461969
-0.0300088
-0.0161403
-0.00654376
-0.00119215
0.000976928
-0.106919
-0.0868925
-0.072347
-0.0533947
-0.033316
-0.0171085
-0.00659863
-0.00112486
0.000473445
)
;

boundaryField
{
    inlet
    {
        type            zeroGradient;
    }
    outlet
    {
        type            totalPressure;
        rho             none;
        psi             none;
        gamma           1;
        p0              uniform 0;
        value           uniform 0;
    }
    fixedWalls
    {
        type            zeroGradient;
    }
    frontAndBack
    {
        type            empty;
    }
}


// ************************************************************************* //
