/*--------------------------------*- C++ -*----------------------------------*\
| =========                 |                                                 |
| \\      /  F ield         | OpenFOAM Extend Project: Open source CFD        |
|  \\    /   O peration     | Version:  1.6-ext                               |
|   \\  /    A nd           | Web:      www.extend-project.de                 |
|    \\/     M anipulation  |                                                 |
\*---------------------------------------------------------------------------*/
FoamFile
{
    version     2.0;
    format      ascii;
    class       surfaceScalarField;
    location    "1.7";
    object      phi;
}
// * * * * * * * * * * * * * * * * * * * * * * * * * * * * * * * * * * * * * //

dimensions      [0 3 -1 0 0 0 0];

internalField   nonuniform List<scalar> 
525
(
0.00016098
3.90204e-05
0.000117703
4.32769e-05
8.29309e-05
3.47717e-05
5.69409e-05
2.59901e-05
3.7867e-05
1.90739e-05
2.30826e-05
1.47843e-05
1.08867e-05
1.21959e-05
2.02415e-06
8.86255e-06
2.02415e-06
0.000205193
3.38278e-05
0.000191221
5.72482e-05
0.000164333
6.16603e-05
0.000132444
5.78785e-05
9.98135e-05
5.17048e-05
6.81304e-05
4.64674e-05
3.81216e-05
4.22047e-05
1.26549e-05
3.43293e-05
1.4679e-05
0.000208855
2.4973e-05
0.00020851
5.75931e-05
0.0001947
7.54699e-05
0.000169466
8.31131e-05
0.000136488
8.46829e-05
9.88559e-05
8.40991e-05
5.90011e-05
8.20596e-05
2.16991e-05
7.16314e-05
3.63781e-05
0.000205203
1.97704e-05
0.000208113
5.46824e-05
0.000201497
8.20865e-05
0.000183404
0.000101206
0.000154778
0.000113309
0.000117493
0.000121383
7.36996e-05
0.000125853
2.88225e-05
0.000116508
6.52006e-05
0.000202528
1.72426e-05
0.000205064
5.21465e-05
0.000201818
8.53321e-05
0.000189232
0.000113792
0.000166043
0.000136498
0.000132162
0.000155264
8.78953e-05
0.00017012
3.71881e-05
0.000167216
0.000102389
0.000201425
1.58173e-05
0.000203788
4.97842e-05
0.000203092
8.60275e-05
0.000195604
0.00012128
0.000178756
0.000153346
0.000150573
0.000183447
0.000108547
0.000212147
5.20304e-05
0.000223732
0.000154419
0.000201371
1.44462e-05
0.000204751
4.64044e-05
0.000207425
8.33531e-05
0.000206057
0.000122648
0.00019762
0.000161783
0.00017917
0.000201897
0.000144432
0.000246884
8.31673e-05
0.000284997
0.000237586
0.000201909
1.25371e-05
0.000207377
4.09366e-05
0.000214593
7.61367e-05
0.000220888
0.000116353
0.000223358
0.000159313
0.000218669
0.000206586
0.000196593
0.000268961
0.000134691
0.000346899
0.000372277
0.000202775
9.76231e-06
0.000210969
3.27421e-05
0.000223412
6.3694e-05
0.000238537
0.000101228
0.000255771
0.00014208
0.000277577
0.000184779
0.000312717
0.000233821
0.000378596
0.00028102
0.000343756
0.000407117
0.000203961
5.80138e-06
0.00021512
2.15827e-05
0.000232311
4.65037e-05
0.000254588
7.89499e-05
0.000282441
0.000114228
0.000318863
0.000148358
0.000368254
0.00018443
0.000446588
0.000202686
0.000260445
0.000529899
0.000205908
-1.06127e-07
0.0002202
7.29042e-06
0.00024078
2.59231e-05
0.000266829
5.29017e-05
0.000298703
8.23532e-05
0.000338142
0.000108919
0.000387136
0.000135436
0.000449578
0.000140244
0.00016927
0.000540753
0.000209106
-9.21221e-06
0.000226657
-1.0261e-05
0.000248472
4.10857e-06
0.000274703
2.66707e-05
0.000306112
5.09447e-05
0.000343731
7.12995e-05
0.000389536
8.9631e-05
0.000439412
9.03679e-05
9.87637e-05
0.000509918
0.000214087
-2.32995e-05
0.000231223
-2.73964e-05
0.0002492
-1.38686e-05
0.000270695
5.17579e-06
0.000297674
2.39659e-05
0.000330706
3.82673e-05
0.000371069
4.92675e-05
0.000412188
4.92496e-05
4.90408e-05
0.000461911
0.000211245
-3.45446e-05
0.000215668
-3.18197e-05
0.000219795
-1.79952e-05
0.000229593
-4.62243e-06
0.000247674
5.88481e-06
0.000273175
1.27664e-05
0.000305273
1.71702e-05
0.000337705
1.68177e-05
1.53468e-05
0.000371399
0.000165455
0.000133636
0.00011564
0.000111018
0.000116903
0.000129669
0.000146839
0.000163657
0.000179004
0.000265893
0.000141224
3.9454e-05
0.000226439
0.0005185
0.000152623
5.71119e-05
0.000500842
0.000577328
0.000116048
4.9453e-05
0.000584987
0.000554231
7.17341e-05
2.96813e-05
0.000574003
0.000499448
3.41969e-05
9.98308e-06
0.000519146
0.000396387
9.20838e-06
-7.64103e-07
0.000407134
0.000188212
0.000187448
0.000251154
-3.00609e-05
5.34648e-06
0.00028567
-9.20522e-05
5.75362e-05
0.000309687
-0.000152042
0.000128025
0.000319675
-0.000192833
0.000182845
0.000318753
-0.000204717
0.000205639
0.00031158
-0.00019113
0.000198303
0.000302395
-0.000162435
0.00017162
0.000294233
-0.000129846
0.000138007
-9.4116e-05
0.000100088
0.000487486
-1.6705e-05
0.000478136
-8.27019e-05
0.00046293
-0.000136836
0.000439212
-0.000169115
0.000409954
-0.000175459
0.000380004
-0.000161181
0.000353342
-0.000135774
0.00033201
-0.000108513
-7.94147e-05
0.000578761
-1.04792e-05
0.000561446
-6.5387e-05
0.000532681
-0.000108071
0.000495042
-0.000131476
0.000453631
-0.000134049
0.00041373
-0.00012128
0.000379091
-0.000101134
0.000351178
-8.06007e-05
-5.98967e-05
0.000576341
-1.28169e-05
0.000561775
-5.08213e-05
0.000532806
-7.9102e-05
0.000493829
-9.24987e-05
0.000450971
-9.11905e-05
0.00040982
-8.01291e-05
0.000374092
-6.54061e-05
0.000345005
-5.15139e-05
-3.91736e-05
0.000521167
-1.48382e-05
0.000506565
-3.62188e-05
0.000477552
-5.00891e-05
0.000439427
-5.43735e-05
0.00039874
-5.05038e-05
0.000360822
-4.22116e-05
0.000328656
-3.324e-05
0.000302836
-2.56938e-05
-2.05357e-05
0.00040228
-9.98431e-06
0.000382955
-1.68938e-05
0.000352934
-2.00676e-05
0.000318078
-1.95173e-05
0.000284101
-1.65266e-05
0.000254663
-1.27743e-05
0.000230971
-9.54784e-06
0.000212619
-7.34152e-06
-6.85051e-06
0.000177464
0.00016057
0.000140502
0.000120985
0.000104458
9.1684e-05
8.21362e-05
7.47947e-05
-4.91702e-06
4.91702e-06
-9.55187e-06
4.63485e-06
-9.7206e-06
1.68739e-07
-5.23039e-06
-4.49022e-06
2.25012e-06
-7.48051e-06
1.09626e-05
-8.71249e-06
1.95357e-05
-8.57308e-06
2.72119e-05
-7.67621e-06
-7.05875e-06
-6.30976e-06
1.12268e-05
-1.03111e-05
8.63623e-06
-6.30149e-06
-3.84091e-06
5.61253e-06
-1.64042e-05
2.24039e-05
-2.42719e-05
4.08178e-05
-2.71264e-05
5.82743e-05
-2.60296e-05
7.3129e-05
-2.25309e-05
-1.88492e-05
-7.60572e-06
1.88325e-05
-1.15142e-05
1.25447e-05
-4.6009e-06
-1.07542e-05
1.24758e-05
-3.34809e-05
3.56737e-05
-4.74699e-05
6.04906e-05
-5.19432e-05
8.35909e-05
-4.91299e-05
0.000102946
-4.18858e-05
-3.35893e-05
-1.06682e-05
2.95007e-05
-1.60348e-05
1.79113e-05
-7.38926e-06
-1.93998e-05
1.4053e-05
-5.49232e-05
4.27261e-05
-7.6143e-05
7.28219e-05
-8.2039e-05
0.000100261
-7.65692e-05
0.000122868
-6.44929e-05
-5.0277e-05
-1.40086e-05
4.35093e-05
-1.92173e-05
2.312e-05
-7.25929e-06
-3.13577e-05
1.90956e-05
-8.12781e-05
5.29161e-05
-0.000109963
8.73185e-05
-0.000116441
0.000117782
-0.000107033
0.000142328
-8.90382e-05
-6.77589e-05
-1.26418e-05
5.61511e-05
-1.05298e-05
2.10079e-05
9.42567e-06
-5.13132e-05
4.14294e-05
-0.000113282
7.83938e-05
-0.000146928
0.000113965
-0.000152013
0.00014423
-0.000137297
0.000167999
-0.000112808
-8.40686e-05
4.3263e-06
5.18248e-05
2.82017e-05
-2.86746e-06
6.03326e-05
-8.34441e-05
9.61089e-05
-0.000149058
0.000130792
-0.000181611
0.000161016
-0.000182238
0.000185051
-0.000161332
0.000203284
-0.000131041
-9.60488e-05
5.71713e-05
0.00011184
0.000156421
0.000190208
0.000214237
0.000230302
0.000240591
0.000247558
)
;

boundaryField
{
    inlet
    {
        type            calculated;
        value           uniform -0.0002;
    }
    outlet
    {
        type            calculated;
        value           nonuniform List<scalar> 
15
(
3.42706e-05
8.49194e-05
0.000117686
0.000139556
0.000159809
0.000184309
0.000215264
0.000251597
0.000288261
0.000317309
0.00033166
0.000324282
0.000284198
0.000198934
6.79442e-05
)
;
    }
    fixedWalls
    {
        type            calculated;
        value           uniform 0;
    }
    frontAndBack
    {
        type            empty;
    }
}


// ************************************************************************* //
