/*--------------------------------*- C++ -*----------------------------------*\
| =========                 |                                                 |
| \\      /  F ield         | OpenFOAM Extend Project: Open source CFD        |
|  \\    /   O peration     | Version:  1.6-ext                               |
|   \\  /    A nd           | Web:      www.extend-project.de                 |
|    \\/     M anipulation  |                                                 |
\*---------------------------------------------------------------------------*/
FoamFile
{
    version     2.0;
    format      ascii;
    class       volVectorField;
    location    "1.7";
    object      U;
}
// * * * * * * * * * * * * * * * * * * * * * * * * * * * * * * * * * * * * * //

dimensions      [0 1 -1 0 0 0 0];

internalField   nonuniform List<vector> 
284
(
(0.163789 0.0265585 0)
(0.142093 0.0266341 0)
(0.0997487 0.018894 0)
(0.0683667 0.0117801 0)
(0.0464495 0.00693449 0)
(0.0299775 0.0043043 0)
(0.0165189 0.00295558 0)
(0.00485524 0.00153951 0)
(-0.00027922 -0.000921261 0)
(0.200631 0.0431311 0)
(0.202509 0.0568923 0)
(0.180677 0.0520323 0)
(0.149277 0.0424209 0)
(0.11625 0.0333769 0)
(0.0839424 0.0271758 0)
(0.0526173 0.0230989 0)
(0.0225874 0.017527 0)
(0.00405969 0.00562711 0)
(0.203141 0.0286306 0)
(0.211331 0.0584635 0)
(0.205043 0.0703345 0)
(0.184685 0.0719954 0)
(0.15468 0.068823 0)
(0.118827 0.0649288 0)
(0.0791713 0.0609304 0)
(0.0372376 0.0512544 0)
(0.0080877 0.0241979 0)
(0.201572 0.0218152 0)
(0.207824 0.0560134 0)
(0.207538 0.0795741 0)
(0.195452 0.093391 0)
(0.171681 0.100071 0)
(0.138352 0.103291 0)
(0.0969123 0.103786 0)
(0.0484386 0.093121 0)
(0.0115878 0.0496789 0)
(0.200612 0.0182674 0)
(0.204219 0.0532727 0)
(0.205335 0.0841683 0)
(0.198207 0.108484 0)
(0.180469 0.126046 0)
(0.152067 0.139219 0)
(0.112569 0.148203 0)
(0.0606566 0.140969 0)
(0.0164314 0.0823487 0)
(0.200274 0.016457 0)
(0.202675 0.0510157 0)
(0.204651 0.0862209 0)
(0.201486 0.118641 0)
(0.189881 0.14639 0)
(0.168123 0.17086 0)
(0.133539 0.192226 0)
(0.0804437 0.195238 0)
(0.0259604 0.125445 0)
(0.200243 0.0151517 0)
(0.202832 0.0483711 0)
(0.20672 0.0854955 0)
(0.208279 0.12342 0)
(0.204145 0.15961 0)
(0.19195 0.195107 0)
(0.167906 0.230896 0)
(0.117326 0.249479 0)
(0.0460554 0.193268 0)
(0.200351 0.0135716 0)
(0.204041 0.0441237 0)
(0.211026 0.0807846 0)
(0.218612 0.121294 0)
(0.223793 0.163275 0)
(0.224453 0.20853 0)
(0.214667 0.26649 0)
(0.190299 0.332034 0)
(0.05974 0.281327 0)
(0.20053 0.0112785 0)
(0.205843 0.0373959 0)
(0.216626 0.071031 0)
(0.231151 0.110612 0)
(0.247515 0.153474 0)
(0.268761 0.200043 0)
(0.292992 0.259085 0)
(0.350739 0.333915 0)
(0.395459 0.415267 0)
(0.200802 0.00798867 0)
(0.208124 0.0277981 0)
(0.222646 0.0561395 0)
(0.242979 0.0915793 0)
(0.267671 0.130262 0)
(0.300904 0.169595 0)
(0.3396 0.213603 0)
(0.404621 0.245321 0)
(0.484814 0.315517 0)
(0.201335 0.00342896 0)
(0.211414 0.0151977 0)
(0.22922 0.0370062 0)
(0.252973 0.0667447 0)
(0.281628 0.0992297 0)
(0.317649 0.129527 0)
(0.360422 0.160538 0)
(0.414977 0.16737 0)
(0.491488 0.20697 0)
(0.202354 -0.00373875 0)
(0.216358 -0.000862111 0)
(0.236462 0.0150035 0)
(0.260698 0.0394453 0)
(0.289414 0.066186 0)
(0.323723 0.0894072 0)
(0.365466 0.11142 0)
(0.411915 0.1124 0)
(0.47175 0.126392 0)
(0.204119 -0.0147819 0)
(0.221902 -0.0191885 0)
(0.239619 -0.00652182 0)
(0.259003 0.0140396 0)
(0.28315 0.0355878 0)
(0.312838 0.0530421 0)
(0.350066 0.0675272 0)
(0.390302 0.0678779 0)
(0.435817 0.0692288 0)
(0.201675 -0.0357769 0)
(0.214269 -0.037513 0)
(0.217346 -0.0221322 0)
(0.223177 -0.00432228 0)
(0.23714 0.0112104 0)
(0.258977 0.0221939 0)
(0.288561 0.0296098 0)
(0.320876 0.0293615 0)
(0.354546 0.0273224 0)
(0.164565 -0.0250512 0)
(0.150518 -0.022516 0)
(0.123075 -0.012508 0)
(0.11098 -0.00427284 0)
(0.11244 0.00139471 0)
(0.122342 0.0046538 0)
(0.13793 0.00626227 0)
(0.155173 0.00565873 0)
(0.171805 0.00435209 0)
(0.363491 0.158146 0)
(0.211038 0.0349827 0)
(0.543538 0.154043 0)
(0.512573 0.0532485 0)
(0.567762 0.137369 0)
(0.589767 0.0617013 0)
(0.53547 0.0916018 0)
(0.570286 0.0401617 0)
(0.482336 0.0493641 0)
(0.513284 0.0177702 0)
(0.385544 0.0169518 0)
(0.404865 0.00118323 0)
(0.184887 0.00104075 0)
(0.189604 -0.00309558 0)
(0.231068 -0.0335116 0)
(0.268924 -0.0891404 0)
(0.303946 -0.150811 0)
(0.320756 -0.196242 0)
(0.322073 -0.212206 0)
(0.315424 -0.200703 0)
(0.305805 -0.171937 0)
(0.297766 -0.137779 0)
(0.287817 -0.0997356 0)
(0.493511 -0.0225272 0)
(0.485201 -0.0886815 0)
(0.475795 -0.146645 0)
(0.455422 -0.183844 0)
(0.425807 -0.193375 0)
(0.393956 -0.17941 0)
(0.36431 -0.151966 0)
(0.341787 -0.121582 0)
(0.318424 -0.088491 0)
(0.5869 -0.00799726 0)
(0.574573 -0.070516 0)
(0.552012 -0.120795 0)
(0.517305 -0.149832 0)
(0.474989 -0.154968 0)
(0.432467 -0.141803 0)
(0.393864 -0.119194 0)
(0.364442 -0.0953868 0)
(0.333739 -0.07037 0)
(0.580737 -0.0112357 0)
(0.574213 -0.0576624 0)
(0.551996 -0.0932744 0)
(0.516288 -0.111743 0)
(0.47299 -0.112409 0)
(0.42941 -0.100504 0)
(0.389702 -0.0830865 0)
(0.359091 -0.0659179 0)
(0.326848 -0.0494699 0)
(0.524995 -0.0152795 0)
(0.518696 -0.044648 0)
(0.495978 -0.0651669 0)
(0.460645 -0.0733444 0)
(0.419283 -0.0701378 0)
(0.378768 -0.0600233 0)
(0.34285 -0.0480068 0)
(0.315279 -0.037311 0)
(0.28683 -0.0289148 0)
(0.408531 -0.0149777 0)
(0.396196 -0.027678 0)
(0.370375 -0.0343715 0)
(0.336349 -0.0345306 0)
(0.300599 -0.0299962 0)
(0.268244 -0.0236403 0)
(0.241431 -0.0178289 0)
(0.22125 -0.0135497 0)
(0.201248 -0.0117573 0)
(0.184235 -0.00658186 0)
(0.170265 -0.00836887 0)
(0.151022 -0.00827945 0)
(0.13055 -0.00687125 0)
(0.112152 -0.00500834 0)
(0.0974359 -0.00337315 0)
(0.0863874 -0.00231431 0)
(0.078201 -0.00187375 0)
(0.0695859 -0.00234908 0)
(-0.00252682 0.00239855 0)
(-0.00785978 0.00263248 0)
(-0.0106974 0.000959647 0)
(-0.00828139 -0.000944498 0)
(-0.00186697 -0.00217244 0)
(0.00659914 -0.00275213 0)
(0.015377 -0.00282952 0)
(0.0234649 -0.00268087 0)
(0.0326399 -0.0027732 0)
(-0.0035109 0.00791543 0)
(-0.00975892 0.00699634 0)
(-0.0104174 -0.000634653 0)
(-0.00182033 -0.00848748 0)
(0.0135042 -0.0134829 0)
(0.0317523 -0.0154786 0)
(0.0499636 -0.0150918 0)
(0.0661361 -0.0133189 0)
(0.0825782 -0.0117569 0)
(-0.00438 0.0146603 0)
(-0.0116138 0.0104797 0)
(-0.0109153 -0.00670249 0)
(0.00202746 -0.0236639 0)
(0.0235376 -0.0343168 0)
(0.048358 -0.0380355 0)
(0.0726998 -0.0363099 0)
(0.0938631 -0.0312185 0)
(0.114917 -0.025559 0)
(-0.00621187 0.023621 0)
(-0.0161402 0.0150249 0)
(-0.0153046 -0.0143026 0)
(0.00102915 -0.0428132 0)
(0.0278651 -0.0603071 0)
(0.0582392 -0.0656881 0)
(0.0874475 -0.0618617 0)
(0.112304 -0.0524927 0)
(0.136499 -0.041539 0)
(-0.00855166 0.0362438 0)
(-0.0206028 0.0212856 0)
(-0.0174028 -0.0240698 0)
(0.00354248 -0.0667566 0)
(0.0357505 -0.0919296 0)
(0.0708795 -0.0984216 0)
(0.1037 -0.0912811 0)
(0.130953 -0.0764555 0)
(0.1566 -0.0589452 0)
(-0.00888037 0.0497883 0)
(-0.0171223 0.0236441 0)
(-0.00414193 -0.0398521 0)
(0.0241512 -0.0968322 0)
(0.0604454 -0.12877 0)
(0.0973011 -0.134888 0)
(0.130337 -0.122891 0)
(0.157054 -0.101549 0)
(0.181149 -0.0764946 0)
(-0.000400108 0.0674029 0)
(0.0101067 0.0203672 0)
(0.0438722 -0.0639226 0)
(0.0798422 -0.131954 0)
(0.115334 -0.166895 0)
(0.147308 -0.170129 0)
(0.173995 -0.15202 0)
(0.194844 -0.124064 0)
(0.212484 -0.0916308 0)
(0.0412592 0.0251779 0)
(0.0805237 -0.0282034 0)
(0.137711 -0.108871 0)
(0.178593 -0.171131 0)
(0.205482 -0.199323 0)
(0.223547 -0.195648 0)
(0.235601 -0.171064 0)
(0.244163 -0.138129 0)
(0.249687 -0.100573 0)
)
;

boundaryField
{
    inlet
    {
        type            fixedValue;
        value           uniform (0.2 0 0);
    }
    outlet
    {
        type            zeroGradient;
    }
    fixedWalls
    {
        type            fixedValue;
        value           uniform (0 0 0);
    }
    frontAndBack
    {
        type            empty;
    }
}


// ************************************************************************* //
