/*--------------------------------*- C++ -*----------------------------------*\
| =========                 |                                                 |
| \\      /  F ield         | OpenFOAM Extend Project: Open source CFD        |
|  \\    /   O peration     | Version:  1.6-ext                               |
|   \\  /    A nd           | Web:      www.extend-project.de                 |
|    \\/     M anipulation  |                                                 |
\*---------------------------------------------------------------------------*/
FoamFile
{
    version     2.0;
    format      ascii;
    class       surfaceScalarField;
    location    "4.2";
    object      phi;
}
// * * * * * * * * * * * * * * * * * * * * * * * * * * * * * * * * * * * * * //

dimensions      [0 3 -1 0 0 0 0];

internalField   nonuniform List<scalar> 
127
(
0.000160822
3.91782e-05
0.000117026
4.37962e-05
8.13609e-05
3.56648e-05
5.4205e-05
2.71559e-05
3.41364e-05
2.00686e-05
1.91515e-05
1.49849e-05
7.94801e-06
1.12035e-05
8.97622e-07
7.05039e-06
8.97622e-07
0.000204944
3.42344e-05
0.000190238
5.85016e-05
0.000162103
6.38001e-05
0.000128453
6.08057e-05
9.40116e-05
5.45101e-05
6.1545e-05
4.74516e-05
3.27456e-05
4.00028e-05
1.02054e-05
2.95907e-05
1.1103e-05
0.000208655
2.55797e-05
0.000208067
5.90893e-05
0.000194078
7.77893e-05
0.00016832
8.65636e-05
0.000134228
8.86026e-05
9.55183e-05
8.61608e-05
5.57209e-05
7.98002e-05
1.9978e-05
6.53336e-05
3.1081e-05
0.000205056
2.05234e-05
0.000208181
5.59644e-05
0.000202637
8.33339e-05
0.000185915
0.000103286
0.000157846
0.000116671
0.000119855
0.000124152
7.48226e-05
0.000124833
2.90879e-05
0.000111068
6.01689e-05
0.00020238
1.81432e-05
0.000205269
5.3076e-05
0.000203745
8.4857e-05
0.00019392
0.000113111
0.00017297
0.000137621
0.000139319
0.000157803
9.31356e-05
0.000171016
3.94531e-05
0.000164751
9.9622e-05
0.000201254
1.68891e-05
0.000203805
5.05254e-05
0.000204731
8.39312e-05
0.000200432
0.00011741
0.000186931
0.000151121
0.000160134
0.000184601
0.000116382
0.000214767
5.57813e-05
0.000225352
0.000155403
0.000201178
1.57112e-05
0.000204433
4.72706e-05
0.000208088
8.02763e-05
0.00020943
0.000116067
0.000204647
0.000155904
0.000188664
0.000200584
0.000153177
0.000250255
8.78421e-05
0.000290687
0.000243245
0.000201719
0.000206761
0.000214119
0.000222063
0.000227727
0.000226208
0.000204839
0.000139073
)
;

boundaryField
{
    inlet
    {
        type            calculated;
        value           nonuniform List<scalar> 8(-0.0002 -0.0002 -0.0002 -0.0002 -0.0002 -0.0002 -0.0002 -0.0002);
    }
    outlet
    {
        type            calculated;
        value           nonuniform 0();
    }
    fixedWalls
    {
        type            calculated;
        value           uniform 0;
    }
    frontAndBack
    {
        type            empty;
    }
    procBoundary3to2
    {
        type            processor;
        value           nonuniform List<scalar> 9(1.39926e-05 4.22282e-05 7.29182e-05 0.000108123 0.00015024 0.000202103 0.000271624 0.000356452 0.000382319);
    }
}


// ************************************************************************* //
