/*--------------------------------*- C++ -*----------------------------------*\
| =========                 |                                                 |
| \\      /  F ield         | OpenFOAM Extend Project: Open source CFD        |
|  \\    /   O peration     | Version:  1.6-ext                               |
|   \\  /    A nd           | Web:      www.extend-project.de                 |
|    \\/     M anipulation  |                                                 |
\*---------------------------------------------------------------------------*/
FoamFile
{
    version     2.0;
    format      ascii;
    class       volScalarField;
    location    "2.5";
    object      p;
}
// * * * * * * * * * * * * * * * * * * * * * * * * * * * * * * * * * * * * * //

dimensions      [0 2 -2 0 0 0 0];

internalField   nonuniform List<scalar> 
284
(
0.260755
0.229291
0.217835
0.21289
0.21104
0.211064
0.211966
0.213228
0.215355
0.231532
0.222655
0.217295
0.214782
0.213881
0.214016
0.214655
0.215513
0.217808
0.219613
0.216211
0.213637
0.212484
0.212522
0.21334
0.214387
0.215392
0.218433
0.210188
0.209123
0.208075
0.207867
0.208589
0.209928
0.211339
0.212492
0.216174
0.202436
0.202131
0.201723
0.201774
0.202475
0.203626
0.204686
0.205245
0.208886
0.19541
0.195292
0.194954
0.194673
0.194597
0.194567
0.194012
0.192306
0.193742
0.188751
0.188604
0.187995
0.18696
0.185455
0.183151
0.179132
0.171699
0.165708
0.182489
0.18222
0.181131
0.179048
0.175643
0.170228
0.161157
0.146118
0.101172
0.176871
0.176434
0.174737
0.171427
0.165711
0.155873
0.136115
0.097332
0.00317175
0.172258
0.171602
0.169242
0.164835
0.157549
0.145797
0.12534
0.0930025
0.0392015
0.169116
0.168042
0.16487
0.159529
0.151565
0.140017
0.122956
0.0984897
0.065304
0.167926
0.165982
0.161573
0.155217
0.146845
0.135888
0.121493
0.101893
0.0784217
0.170331
0.16581
0.159305
0.151701
0.142905
0.132517
0.12002
0.103905
0.0855828
0.176546
0.166735
0.157574
0.148839
0.140016
0.130304
0.119131
0.105297
0.0895026
0.204798
0.17289
0.158193
0.148476
0.139947
0.13109
0.12088
0.108075
0.0929521
-0.130501
-0.0969874
-0.0307893
-0.052778
0.0156462
-0.014162
0.0455168
0.0198369
0.0628798
0.0415614
0.0711743
0.0525235
0.0753372
0.0564836
-0.0853314
-0.0769217
-0.0710765
-0.0622286
-0.0490729
-0.033591
-0.0193843
-0.00826665
-0.00234836
-0.0592491
-0.059224
-0.0562541
-0.049375
-0.0385396
-0.0259569
-0.0148464
-0.00634878
-0.00268968
-0.0276326
-0.0326737
-0.0333271
-0.0301867
-0.023895
-0.016205
-0.00949235
-0.00430206
-0.00284116
0.00380109
-0.00587228
-0.0109841
-0.0123002
-0.0108503
-0.00799243
-0.00528383
-0.00290546
-0.00288852
0.0247674
0.0126718
0.00464512
-4.87033e-05
-0.00228222
-0.00294638
-0.00293202
-0.00231472
-0.00281864
0.0359846
0.0226349
0.0126635
0.00574465
0.00129345
-0.00126396
-0.0024528
-0.00249033
-0.00270739
0.0387241
0.0236983
0.0120245
0.00373309
-0.00151256
-0.00424094
-0.00506036
-0.00448761
-0.00345322
-0.0321991
-0.0325617
-0.0301724
-0.0258943
-0.0202382
-0.0139673
-0.0079122
-0.0033907
0.00271015
-0.0319751
-0.0325887
-0.0306389
-0.0269457
-0.0217315
-0.0156296
-0.00948878
-0.00449483
0.00196501
-0.0343113
-0.0351378
-0.0333041
-0.029533
-0.0239589
-0.0172372
-0.0104709
-0.00478925
0.00199286
-0.0389723
-0.0398864
-0.0380698
-0.0339988
-0.0277155
-0.0198398
-0.0119608
-0.00525944
0.0019556
-0.0463261
-0.0469228
-0.045136
-0.0406802
-0.0333405
-0.0237266
-0.0142096
-0.00608848
0.00156431
-0.0566263
-0.0559187
-0.0542921
-0.0493445
-0.0404263
-0.0287981
-0.0171179
-0.00725474
0.000712028
-0.0690421
-0.0650246
-0.0633518
-0.0578128
-0.0473659
-0.0336117
-0.0198598
-0.00842946
-0.000450309
-0.0923491
-0.0751743
-0.0716271
-0.0638895
-0.0514435
-0.0359662
-0.0210466
-0.00898797
-0.00155917
)
;

boundaryField
{
    inlet
    {
        type            zeroGradient;
    }
    outlet
    {
        type            totalPressure;
        rho             none;
        psi             none;
        gamma           1;
        p0              uniform 0;
        value           uniform 0;
    }
    fixedWalls
    {
        type            zeroGradient;
    }
    frontAndBack
    {
        type            empty;
    }
}


// ************************************************************************* //
