/*--------------------------------*- C++ -*----------------------------------*\
| =========                 |                                                 |
| \\      /  F ield         | OpenFOAM Extend Project: Open source CFD        |
|  \\    /   O peration     | Version:  1.6-ext                               |
|   \\  /    A nd           | Web:      www.extend-project.de                 |
|    \\/     M anipulation  |                                                 |
\*---------------------------------------------------------------------------*/
FoamFile
{
    version     2.0;
    format      ascii;
    class       surfaceScalarField;
    location    "2.5";
    object      phi;
}
// * * * * * * * * * * * * * * * * * * * * * * * * * * * * * * * * * * * * * //

dimensions      [0 3 -1 0 0 0 0];

internalField   nonuniform List<scalar> 
525
(
0.000160863
3.91375e-05
0.000117231
4.36312e-05
8.18435e-05
3.53879e-05
5.50481e-05
2.67954e-05
3.53277e-05
1.97204e-05
2.04747e-05
1.4853e-05
8.97646e-06
1.14982e-05
1.28698e-06
7.68948e-06
1.28698e-06
0.000205031
3.41068e-05
0.000190666
5.79959e-05
0.000163101
6.29528e-05
0.000130179
5.97174e-05
9.64497e-05
5.34498e-05
6.42984e-05
4.70043e-05
3.50043e-05
4.07923e-05
1.1235e-05
3.14588e-05
1.2522e-05
0.000208735
2.53721e-05
0.00020844
5.82901e-05
0.00019491
7.64833e-05
0.000169716
8.49113e-05
0.000136222
8.69438e-05
9.78731e-05
8.53533e-05
5.77798e-05
8.08857e-05
2.09944e-05
6.82442e-05
3.35163e-05
0.000205117
2.02548e-05
0.000208448
5.49595e-05
0.000203099
8.18322e-05
0.000186456
0.000101554
0.000158452
0.000114948
0.000120599
0.000123207
7.55753e-05
0.00012591
2.95117e-05
0.000114308
6.3028e-05
0.00020244
1.78151e-05
0.000205495
5.19047e-05
0.000203981
8.33456e-05
0.000193782
0.000111753
0.000172259
0.000136471
0.000138308
0.000157158
9.23111e-05
0.000171906
3.90951e-05
0.000167524
0.000102123
0.000201319
1.64961e-05
0.000204055
4.91692e-05
0.000204979
8.24217e-05
0.000200121
0.000116611
0.000185593
0.000150999
0.000157995
0.000184756
0.000114361
0.00021554
5.47498e-05
0.000227135
0.000156873
0.000201244
1.52516e-05
0.000204725
4.56886e-05
0.000208514
7.86323e-05
0.000209446
0.000115679
0.000203554
0.000156891
0.000186369
0.000201941
0.000150656
0.000251253
8.64395e-05
0.000291352
0.000243312
0.000201776
1.34759e-05
0.000207063
4.04015e-05
0.000214733
7.09617e-05
0.00022264
0.000107772
0.000227507
0.000152024
0.000224658
0.00020479
0.000202498
0.000273413
0.000137576
0.000356274
0.000380888
0.000202666
1.08101e-05
0.000210494
3.25736e-05
0.000222773
5.86827e-05
0.000238653
9.18918e-05
0.00025771
0.000132967
0.000281677
0.000180823
0.000318053
0.000237037
0.000382686
0.00029164
0.000357663
0.000405912
0.000203918
6.89184e-06
0.000214703
2.17893e-05
0.000231324
4.20614e-05
0.000253538
6.96775e-05
0.000282375
0.00010413
0.000320811
0.000142387
0.000372624
0.000185224
0.000452721
0.000211543
0.00027703
0.000533353
0.000205958
9.33874e-07
0.000220081
7.66659e-06
0.000239971
2.21714e-05
0.000265289
4.43589e-05
0.000297111
7.23084e-05
0.000337652
0.000101846
0.000388725
0.000134151
0.000454031
0.000146238
0.000184435
0.000546627
0.000209331
-8.39749e-06
0.000226935
-9.93681e-06
0.000248034
1.07242e-06
0.000272925
1.94681e-05
0.000303072
4.21606e-05
0.000340384
6.45345e-05
0.000387131
8.7404e-05
0.000439272
9.40962e-05
0.000110028
0.000513679
0.000214373
-2.27708e-05
0.000231651
-2.72141e-05
0.000248667
-1.59441e-05
0.000268022
1.12809e-07
0.000292314
1.78693e-05
0.000323447
3.34014e-05
0.000363411
4.74394e-05
0.000406015
5.14922e-05
5.6056e-05
0.000459988
0.000211501
-3.42722e-05
0.000215991
-3.17041e-05
0.000218889
-1.88413e-05
0.000225675
-6.67349e-06
0.000240098
3.44605e-06
0.000262687
1.0813e-05
0.000293632
1.6494e-05
0.000327267
1.78572e-05
1.8228e-05
0.000365095
0.000165728
0.000134024
0.000115182
0.000108509
0.000111955
0.000122768
0.000139262
0.000157119
0.000175347
0.000254695
0.000151216
4.94109e-05
0.000205284
0.000513876
0.000170694
7.63389e-05
0.000486948
0.000582296
0.000135025
6.92103e-05
0.000589424
0.000561677
8.70263e-05
4.56643e-05
0.000585223
0.000503157
4.38569e-05
1.98005e-05
0.000529021
0.000395979
1.29728e-05
3.00616e-06
0.000412773
0.00018832
0.000191326
0.00022256
-8.26583e-06
-9.00927e-06
0.000261847
-4.75152e-05
8.2277e-06
0.000298895
-9.10527e-05
5.40047e-05
0.000325916
-0.000135712
0.000108691
0.000341264
-0.00017231
0.000156962
0.000346308
-0.000192889
0.000187844
0.00034373
-0.00019364
0.000196218
0.000337031
-0.000179602
0.000186301
-0.00014629
0.00015457
0.000471023
7.65851e-06
0.000469874
-4.63655e-05
0.000472049
-9.32283e-05
0.000469734
-0.000133396
0.000459577
-0.000162153
0.000441668
-0.00017498
0.000418589
-0.000170561
0.000393534
-0.000154547
-0.00012417
0.000585611
1.14721e-05
0.000578344
-3.90985e-05
0.000566264
-8.11481e-05
0.00054697
-0.000114102
0.000519806
-0.000134989
0.000486154
-0.000141329
0.000449471
-0.000133878
0.000412897
-0.000117973
-9.38784e-05
0.000593817
2.87754e-06
0.000589421
-3.4702e-05
0.00057383
-6.55573e-05
0.0005475
-8.77723e-05
0.000511986
-9.94744e-05
0.000470517
-9.98596e-05
0.000427719
-9.10801e-05
0.000387126
-7.7379e-05
-6.14346e-05
0.000537915
-6.01637e-06
0.00053171
-2.84976e-05
0.000511685
-4.55321e-05
0.000479855
-5.5942e-05
0.000439559
-5.91786e-05
0.000395559
-5.58594e-05
0.000352908
-4.8429e-05
0.00031505
-3.95214e-05
-3.2215e-05
0.000413839
-7.08204e-06
0.000400215
-1.48735e-05
0.00037437
-1.96873e-05
0.000339858
-2.143e-05
0.000301205
-2.0525e-05
0.000263165
-1.78203e-05
0.000229307
-1.45702e-05
0.000201457
-1.16713e-05
-1.0769e-05
0.000184244
0.000169371
0.000149683
0.000128253
0.000107728
8.9908e-05
7.53377e-05
6.36664e-05
-5.18892e-06
5.18892e-06
-1.35293e-05
8.34042e-06
-1.96086e-05
6.07922e-06
-2.1185e-05
1.57642e-06
-1.80057e-05
-3.17931e-06
-1.1027e-05
-6.97868e-06
-1.79501e-06
-9.23198e-06
8.74101e-06
-1.0536e-05
-1.08124e-05
-9.24967e-06
1.44386e-05
-2.16949e-05
2.07856e-05
-2.895e-05
1.33344e-05
-2.78149e-05
4.41268e-07
-1.81704e-05
-1.28238e-05
-2.19263e-06
-2.29565e-05
1.68609e-05
-2.82855e-05
3.61727e-05
-2.98477e-05
-2.88111e-05
-1.10146e-05
2.54532e-05
-2.47652e-05
3.45362e-05
-3.14616e-05
2.00308e-05
-2.72439e-05
-3.77643e-06
-1.26465e-05
-2.74212e-05
9.42288e-06
-4.50258e-05
3.5135e-05
-5.39977e-05
6.05468e-05
-5.52595e-05
-5.13819e-05
-1.25556e-05
3.80088e-05
-2.68947e-05
4.88752e-05
-3.24753e-05
2.56114e-05
-2.54882e-05
-1.07635e-05
-6.72063e-06
-4.61887e-05
2.01461e-05
-7.18925e-05
5.08248e-05
-8.46764e-05
8.09677e-05
-8.54024e-05
-7.7198e-05
-1.31493e-05
5.11581e-05
-2.51913e-05
6.09172e-05
-2.6962e-05
2.73821e-05
-1.56032e-05
-2.21223e-05
7.3394e-06
-6.91314e-05
3.80176e-05
-0.000102571
7.18884e-05
-0.000118547
0.000104713
-0.000118227
-0.000104347
-9.70991e-06
6.0868e-05
-1.20342e-05
6.32415e-05
-3.71035e-06
1.90583e-05
1.52977e-05
-4.11303e-05
4.2685e-05
-9.65186e-05
7.52038e-05
-0.00013509
0.000108848
-0.000152191
0.000140505
-0.000149884
-0.000129543
4.63508e-06
5.62329e-05
2.36088e-05
4.42678e-05
5.0451e-05
-7.78393e-06
7.99206e-05
-7.06e-05
0.000110735
-0.000127333
0.000141154
-0.000165508
0.000169186
-0.000180224
0.000193961
-0.00017466
-0.000148014
4.72237e-05
9.97192e-05
0.00014594
0.000184031
0.00021366
0.000235996
0.000251991
0.000263631
)
;

boundaryField
{
    inlet
    {
        type            calculated;
        value           uniform -0.0002;
    }
    outlet
    {
        type            calculated;
        value           nonuniform List<scalar> 
15
(
1.95534e-05
5.41713e-05
8.31176e-05
0.000106784
0.000131862
0.000165701
0.000212433
0.000270187
0.000328751
0.000371414
0.000382605
0.000354682
0.000285831
0.000180011
5.28974e-05
)
;
    }
    fixedWalls
    {
        type            calculated;
        value           uniform 0;
    }
    frontAndBack
    {
        type            empty;
    }
}


// ************************************************************************* //
