/*--------------------------------*- C++ -*----------------------------------*\
| =========                 |                                                 |
| \\      /  F ield         | OpenFOAM Extend Project: Open source CFD        |
|  \\    /   O peration     | Version:  1.6-ext                               |
|   \\  /    A nd           | Web:      www.extend-project.de                 |
|    \\/     M anipulation  |                                                 |
\*---------------------------------------------------------------------------*/
FoamFile
{
    version     2.0;
    format      ascii;
    class       volVectorField;
    location    "2.5";
    object      U;
}
// * * * * * * * * * * * * * * * * * * * * * * * * * * * * * * * * * * * * * //

dimensions      [0 1 -1 0 0 0 0];

internalField   nonuniform List<vector> 
284
(
(0.163776 0.0265972 0)
(0.141871 0.0267891 0)
(0.0990254 0.0191727 0)
(0.066879 0.0120942 0)
(0.0441368 0.00713639 0)
(0.0272286 0.00425777 0)
(0.0140958 0.00262835 0)
(0.00354887 0.00108023 0)
(-0.000568862 -0.00114037 0)
(0.200601 0.043326 0)
(0.202213 0.0574755 0)
(0.179871 0.0530838 0)
(0.147617 0.0438094 0)
(0.113387 0.0345314 0)
(0.080093 0.02735 0)
(0.0488201 0.0219317 0)
(0.0202584 0.015483 0)
(0.00343228 0.00420655 0)
(0.203098 0.0289933 0)
(0.211147 0.0593051 0)
(0.205048 0.0717666 0)
(0.185051 0.0741813 0)
(0.154861 0.071101 0)
(0.118197 0.0658727 0)
(0.0778607 0.05944 0)
(0.0361394 0.0477838 0)
(0.00773485 0.021394 0)
(0.201526 0.022261 0)
(0.207728 0.0565669 0)
(0.208241 0.0801606 0)
(0.197858 0.0947977 0)
(0.17543 0.102347 0)
(0.142082 0.104994 0)
(0.099481 0.103131 0)
(0.0496 0.0900118 0)
(0.0118566 0.0468697 0)
(0.200567 0.018794 0)
(0.20412 0.0532803 0)
(0.206223 0.0830877 0)
(0.201524 0.107786 0)
(0.18629 0.127067 0)
(0.158831 0.141237 0)
(0.118227 0.14913 0)
(0.0637757 0.139882 0)
(0.0172594 0.0809733 0)
(0.200236 0.0170785 0)
(0.202511 0.0505301 0)
(0.205272 0.0833373 0)
(0.204527 0.115269 0)
(0.195917 0.145306 0)
(0.175908 0.172607 0)
(0.140751 0.194885 0)
(0.0847997 0.197061 0)
(0.0272069 0.126387 0)
(0.200219 0.0158896 0)
(0.202587 0.0476326 0)
(0.206833 0.0811812 0)
(0.210273 0.117478 0)
(0.209017 0.156019 0)
(0.199088 0.195959 0)
(0.175341 0.234977 0)
(0.122226 0.25459 0)
(0.0477571 0.197582 0)
(0.200344 0.0144421 0)
(0.203745 0.0434334 0)
(0.21061 0.0756697 0)
(0.219271 0.113331 0)
(0.226793 0.157129 0)
(0.229926 0.207808 0)
(0.221639 0.271152 0)
(0.195364 0.339577 0)
(0.0600008 0.286703 0)
(0.200544 0.0122762 0)
(0.205568 0.0370081 0)
(0.215859 0.0657951 0)
(0.230607 0.101432 0)
(0.248493 0.145095 0)
(0.271816 0.197187 0)
(0.298524 0.263216 0)
(0.356061 0.344674 0)
(0.397991 0.426497 0)
(0.200836 0.00907257 0)
(0.207971 0.027824 0)
(0.221863 0.0513242 0)
(0.241748 0.0820614 0)
(0.267018 0.120382 0)
(0.301631 0.164461 0)
(0.34313 0.215732 0)
(0.409921 0.255986 0)
(0.490577 0.332888 0)
(0.201384 0.00446434 0)
(0.211479 0.0155363 0)
(0.228791 0.0328722 0)
(0.251711 0.0576395 0)
(0.279952 0.0888302 0)
(0.316304 0.122674 0)
(0.361015 0.160118 0)
(0.417869 0.174844 0)
(0.497202 0.224067 0)
(0.202445 -0.00284508 0)
(0.216731 -0.000462488 0)
(0.236537 0.0115398 0)
(0.259635 0.0313251 0)
(0.286903 0.0563296 0)
(0.320232 0.0819628 0)
(0.36244 0.1092 0)
(0.41029 0.11691 0)
(0.473521 0.139657 0)
(0.204209 -0.0140887 0)
(0.222433 -0.0189507 0)
(0.239875 -0.00925328 0)
(0.257556 0.00772487 0)
(0.279038 0.0277105 0)
(0.306229 0.0467069 0)
(0.34232 0.0650245 0)
(0.382911 0.0705403 0)
(0.431406 0.0781913 0)
(0.20175 -0.0353769 0)
(0.214781 -0.0373663 0)
(0.217455 -0.0235581 0)
(0.22097 -0.0076045 0)
(0.231299 0.00706972 0)
(0.24962 0.0188756 0)
(0.277089 0.0283958 0)
(0.30934 0.0309854 0)
(0.345774 0.0320591 0)
(0.164651 -0.0249323 0)
(0.151008 -0.0224478 0)
(0.123342 -0.0128221 0)
(0.109638 -0.00503691 0)
(0.108632 0.000442737 0)
(0.116191 0.00396439 0)
(0.130406 0.00616184 0)
(0.14783 0.00629262 0)
(0.166504 0.00566863 0)
(0.35763 0.163646 0)
(0.194863 0.0397279 0)
(0.5441 0.169529 0)
(0.503978 0.0691014 0)
(0.573654 0.157286 0)
(0.594564 0.0829963 0)
(0.541034 0.109607 0)
(0.579593 0.0593311 0)
(0.483015 0.0619446 0)
(0.519913 0.0307832 0)
(0.381964 0.0232668 0)
(0.407376 0.0072791 0)
(0.183036 0.00256438 0)
(0.191625 -0.00187432 0)
(0.205775 -0.0141636 0)
(0.237901 -0.0403512 0)
(0.281132 -0.0818975 0)
(0.316525 -0.129273 0)
(0.338292 -0.170399 0)
(0.347774 -0.195534 0)
(0.346231 -0.199813 0)
(0.342588 -0.187677 0)
(0.327694 -0.154334 0)
(0.477597 -0.00012623 0)
(0.468049 -0.0504522 0)
(0.471089 -0.0962249 0)
(0.474091 -0.138259 0)
(0.468489 -0.170667 0)
(0.453911 -0.18738 0)
(0.430187 -0.185561 0)
(0.40863 -0.170542 0)
(0.372898 -0.138055 0)
(0.591765 0.0167433 0)
(0.583537 -0.0385215 0)
(0.574134 -0.0853209 0)
(0.559821 -0.123506 0)
(0.536556 -0.149403 0)
(0.505526 -0.159636 0)
(0.467086 -0.153933 0)
(0.433714 -0.137931 0)
(0.385705 -0.110251 0)
(0.594419 0.00835336 0)
(0.595084 -0.036298 0)
(0.584983 -0.073422 0)
(0.564216 -0.101651 0)
(0.532545 -0.118327 0)
(0.493079 -0.121709 0)
(0.448031 -0.113298 0)
(0.409281 -0.0979693 0)
(0.358609 -0.0775324 0)
(0.537832 -0.00283381 0)
(0.538942 -0.0329142 0)
(0.525475 -0.0569648 0)
(0.499035 -0.0732273 0)
(0.461768 -0.0802352 0)
(0.418322 -0.0779358 0)
(0.372882 -0.068946 0)
(0.334616 -0.056885 0)
(0.289854 -0.0452719 0)
(0.416946 -0.00970848 0)
(0.410601 -0.02377 0)
(0.390313 -0.0332448 0)
(0.359147 -0.0375708 0)
(0.321248 -0.0369982 0)
(0.281776 -0.0327355 0)
(0.244864 -0.0269518 0)
(0.215063 -0.0213396 0)
(0.183471 -0.0184885 0)
(0.189644 -0.0057472 0)
(0.1783 -0.00809355 0)
(0.160447 -0.00875139 0)
(0.139268 -0.00808254 0)
(0.117756 -0.00667956 0)
(0.0982755 -0.00511834 0)
(0.0820269 -0.00389512 0)
(0.0693554 -0.00322972 0)
(0.055145 -0.00375886 0)
(-0.00202346 0.00202456 0)
(-0.00912108 0.00363096 0)
(-0.0174281 0.00297913 0)
(-0.0214029 0.00136801 0)
(-0.0204446 -0.000451094 0)
(-0.0150695 -0.0019882 0)
(-0.00635886 -0.00301927 0)
(0.00234389 -0.0038856 0)
(0.0173713 -0.00431076 0)
(-0.00394614 0.00906974 0)
(-0.0155682 0.0138856 0)
(-0.0272049 0.00975453 0)
(-0.0304312 0.00189157 0)
(-0.0246322 -0.00622414 0)
(-0.0112186 -0.0126458 0)
(0.0070405 -0.0162555 0)
(0.0254775 -0.0179416 0)
(0.0508647 -0.0180175 0)
(-0.00486549 0.0196516 0)
(-0.0183185 0.0274735 0)
(-0.0306312 0.0169578 0)
(-0.0319805 -0.000957709 0)
(-0.0220298 -0.0188613 0)
(-0.00270638 -0.0324609 0)
(0.0221162 -0.0395378 0)
(0.0468938 -0.041066 0)
(0.0790923 -0.0389351 0)
(-0.00578678 0.0316032 0)
(-0.0205829 0.0418132 0)
(-0.0327223 0.0233435 0)
(-0.0320018 -0.00639141 0)
(-0.01848 -0.035665 0)
(0.0055369 -0.0572387 0)
(0.0354264 -0.0681568 0)
(0.0650623 -0.0692697 0)
(0.102257 -0.0635446 0)
(-0.00655528 0.0447379 0)
(-0.0208952 0.0557847 0)
(-0.0295434 0.0278028 0)
(-0.0243957 -0.0152895 0)
(-0.00629441 -0.056882 0)
(0.0218466 -0.0867255 0)
(0.0551315 -0.101273 0)
(0.0877966 -0.101528 0)
(0.127059 -0.0907172 0)
(-0.00575347 0.0568801 0)
(-0.0139576 0.0646056 0)
(-0.0110947 0.0257933 0)
(0.00345504 -0.0301677 0)
(0.0279733 -0.0827159 0)
(0.05913 -0.119591 0)
(0.0926981 -0.136523 0)
(0.124792 -0.135167 0)
(0.160938 -0.118067 0)
(0.0010318 0.0687551 0)
(0.00934601 0.0628602 0)
(0.0355844 0.0118018 0)
(0.0651343 -0.0537037 0)
(0.096474 -0.112537 0)
(0.127662 -0.152506 0)
(0.156496 -0.169089 0)
(0.182462 -0.165126 0)
(0.208183 -0.141315 0)
(0.0340898 0.0342241 0)
(0.0678871 0.0218578 0)
(0.123942 -0.0291309 0)
(0.168029 -0.090828 0)
(0.202457 -0.145116 0)
(0.228174 -0.180623 0)
(0.24568 -0.192575 0)
(0.259336 -0.184805 0)
(0.267074 -0.154973 0)
)
;

boundaryField
{
    inlet
    {
        type            fixedValue;
        value           uniform (0.2 0 0);
    }
    outlet
    {
        type            zeroGradient;
    }
    fixedWalls
    {
        type            fixedValue;
        value           uniform (0 0 0);
    }
    frontAndBack
    {
        type            empty;
    }
}


// ************************************************************************* //
