/*--------------------------------*- C++ -*----------------------------------*\
| =========                 |                                                 |
| \\      /  F ield         | OpenFOAM Extend Project: Open source CFD        |
|  \\    /   O peration     | Version:  1.6-ext                               |
|   \\  /    A nd           | Web:      www.extend-project.de                 |
|    \\/     M anipulation  |                                                 |
\*---------------------------------------------------------------------------*/
FoamFile
{
    version     2.0;
    format      ascii;
    class       volScalarField;
    location    "4.8";
    object      p;
}
// * * * * * * * * * * * * * * * * * * * * * * * * * * * * * * * * * * * * * //

dimensions      [0 2 -2 0 0 0 0];

internalField   nonuniform List<scalar> 
284
(
0.290763
0.259286
0.247817
0.24283
0.240916
0.240874
0.241737
0.242976
0.244985
0.261553
0.252674
0.247322
0.244793
0.243818
0.243831
0.244349
0.245125
0.247274
0.249597
0.246195
0.243633
0.242473
0.242458
0.243176
0.244119
0.24506
0.247996
0.240127
0.239059
0.23802
0.237818
0.238524
0.239828
0.241222
0.242402
0.246092
0.232322
0.232013
0.231615
0.231684
0.232413
0.233621
0.234803
0.235552
0.239375
0.225234
0.225113
0.224785
0.224536
0.224529
0.22465
0.224372
0.223065
0.224884
0.218503
0.218353
0.217754
0.216757
0.215355
0.213282
0.209685
0.202852
0.197507
0.212156
0.211884
0.210802
0.208755
0.205469
0.200337
0.191786
0.177471
0.133383
0.20644
0.206001
0.204306
0.20102
0.195418
0.185884
0.166688
0.128775
0.0358472
0.201722
0.201066
0.198697
0.194286
0.187065
0.175533
0.155453
0.123636
0.0702456
0.198466
0.197398
0.194206
0.188818
0.180824
0.169312
0.152345
0.128011
0.0948207
0.197178
0.195233
0.190792
0.184338
0.17583
0.164691
0.150083
0.130221
0.106381
0.199478
0.194961
0.188395
0.18065
0.171643
0.160884
0.147899
0.131197
0.112209
0.205579
0.195776
0.186568
0.177721
0.168579
0.158359
0.146529
0.131938
0.115341
0.233819
0.201934
0.187181
0.177285
0.168365
0.158923
0.148014
0.134484
0.118668
-0.0964315
-0.0612022
0.00115458
-0.0196962
0.0451447
0.0151342
0.072792
0.0461207
0.0886326
0.0661558
0.0960925
0.0762109
0.100332
0.0806379
-0.0487276
-0.0394887
-0.0354656
-0.0336981
-0.0323325
-0.0294303
-0.0241935
-0.0158959
-0.0054577
-0.0253652
-0.0255344
-0.0255663
-0.0256931
-0.0250666
-0.0226016
-0.0183017
-0.0116094
-0.00447648
0.000746374
-0.00616997
-0.0100464
-0.0124775
-0.0134518
-0.0125167
-0.010272
-0.0062478
-0.00322434
0.028711
0.0171577
0.00856887
0.0027408
-0.000772809
-0.00221855
-0.00257507
-0.00152084
-0.00222655
0.0477526
0.0333856
0.0223582
0.0142802
0.00864923
0.005063
0.00259217
0.00134355
-0.0017264
0.0580694
0.0426158
0.0301091
0.0204574
0.013306
0.00823864
0.00453904
0.00203477
-0.00169442
0.0615387
0.0446939
0.030689
0.0196492
0.0113807
0.00552935
0.00157899
-0.000808159
-0.0031727
-0.0225877
-0.023781
-0.0235985
-0.0223057
-0.0197039
-0.0156848
-0.0106036
-0.00527337
0.00307611
-0.0212869
-0.0225321
-0.0223765
-0.0214338
-0.0194632
-0.0161845
-0.0118155
-0.00694195
0.00193676
-0.0218534
-0.0232707
-0.0233436
-0.0228038
-0.0213062
-0.0183624
-0.01405
-0.00899655
0.00106891
-0.0240848
-0.0253733
-0.0256685
-0.0255616
-0.0245556
-0.0218968
-0.0174119
-0.011861
7.38678e-05
-0.0280005
-0.0285915
-0.0289224
-0.0291548
-0.0285891
-0.0261701
-0.0213468
-0.0148496
-0.000859927
-0.0334095
-0.0322468
-0.0322843
-0.0326455
-0.0324015
-0.0302818
-0.0252627
-0.0171483
-0.00323087
-0.0398763
-0.0352639
-0.0347992
-0.0348549
-0.0346315
-0.0325367
-0.027411
-0.0185642
-0.00502284
-0.0563187
-0.0390348
-0.0361858
-0.0353834
-0.0347763
-0.0323894
-0.0271251
-0.0182446
-0.00573874
)
;

boundaryField
{
    inlet
    {
        type            zeroGradient;
    }
    outlet
    {
        type            totalPressure;
        rho             none;
        psi             none;
        gamma           1;
        p0              uniform 0;
        value           nonuniform List<scalar> 
15
(
-0.000148921
-0.000749572
-0.00147696
-0.0024807
0
0
0
0
0
0
0
0
0
0
0
)
;
    }
    fixedWalls
    {
        type            zeroGradient;
    }
    frontAndBack
    {
        type            empty;
    }
}


// ************************************************************************* //
