/*--------------------------------*- C++ -*----------------------------------*\
| =========                 |                                                 |
| \\      /  F ield         | OpenFOAM Extend Project: Open source CFD        |
|  \\    /   O peration     | Version:  1.6-ext                               |
|   \\  /    A nd           | Web:      www.extend-project.de                 |
|    \\/     M anipulation  |                                                 |
\*---------------------------------------------------------------------------*/
FoamFile
{
    version     2.0;
    format      ascii;
    class       surfaceScalarField;
    location    "4.8";
    object      phi;
}
// * * * * * * * * * * * * * * * * * * * * * * * * * * * * * * * * * * * * * //

dimensions      [0 3 -1 0 0 0 0];

internalField   nonuniform List<scalar> 
525
(
0.000160825
3.91745e-05
0.000117033
4.37928e-05
8.13654e-05
3.56673e-05
5.41994e-05
2.7166e-05
3.41157e-05
2.00837e-05
1.91195e-05
1.49962e-05
7.92276e-06
1.11967e-05
8.93979e-07
7.02878e-06
8.93979e-07
0.000204945
3.4229e-05
0.000190234
5.8504e-05
0.000162073
6.38284e-05
0.000128376
6.08636e-05
9.38781e-05
5.45812e-05
6.13782e-05
4.7496e-05
3.26037e-05
3.99712e-05
1.01446e-05
2.94879e-05
1.10386e-05
0.000208657
2.55722e-05
0.000208062
5.90989e-05
0.000194038
7.78527e-05
0.000168211
8.66906e-05
0.000134033
8.87588e-05
9.52675e-05
8.62616e-05
5.54966e-05
7.97421e-05
1.98706e-05
6.51139e-05
3.09092e-05
0.00020506
2.05123e-05
0.000208182
5.59768e-05
0.000202607
8.34273e-05
0.000185819
0.000103479
0.000157663
0.000116915
0.000119606
0.000124319
7.45872e-05
0.000124761
2.89668e-05
0.000110734
5.9876e-05
0.000202385
1.81272e-05
0.000205275
5.30866e-05
0.000203731
8.49714e-05
0.000193853
0.000113357
0.000172831
0.000137937
0.000139117
0.000158033
9.29289e-05
0.000170949
3.93355e-05
0.000164328
9.92115e-05
0.000201259
1.68679e-05
0.000203814
5.05325e-05
0.000204723
8.40615e-05
0.000200383
0.000117698
0.000186825
0.000151495
0.000159971
0.000184887
0.000116194
0.000214726
5.56445e-05
0.000224878
0.000154856
0.000201183
1.56853e-05
0.00020444
4.7275e-05
0.000208079
8.04229e-05
0.000209378
0.000116398
0.000204536
0.000156337
0.000188482
0.000200941
0.000152931
0.000250277
8.75842e-05
0.000290224
0.00024244
0.000201722
1.39635e-05
0.000206764
4.22324e-05
0.000214103
7.30841e-05
0.000221996
0.000108506
0.000227581
0.000150751
0.00022597
0.000202552
0.000204514
0.000271734
0.000138748
0.000355989
0.000381188
0.000202632
1.13314e-05
0.000210258
3.46068e-05
0.000222118
6.12244e-05
0.00023759
9.30331e-05
0.000256727
0.000131614
0.000281464
0.000177814
0.000318645
0.000234553
0.000382971
0.000291663
0.000361009
0.00040315
0.000203913
7.41848e-06
0.000214619
2.39008e-05
0.000230936
4.49069e-05
0.000252618
7.13511e-05
0.000281026
0.000103206
0.000319602
0.000139239
0.00037209
0.000182065
0.000453242
0.000210511
0.000281532
0.000532719
0.000205977
1.44127e-06
0.000220214
9.66416e-06
0.000240129
2.49921e-05
0.000265165
4.63149e-05
0.00029647
7.19015e-05
0.000336659
9.90494e-05
0.000387864
0.00013086
0.000454084
0.000144291
0.000187924
0.000547692
0.000209409
-7.9678e-06
0.00022732
-8.24711e-06
0.000248877
3.43588e-06
0.000273933
2.12583e-05
0.000303803
4.20315e-05
0.000340527
6.23261e-05
0.000386883
8.45033e-05
0.000439177
9.1997e-05
0.000111941
0.00051516
0.000214487
-2.24547e-05
0.00023231
-2.60699e-05
0.000250103
-1.43576e-05
0.000269984
1.37732e-06
0.000294218
1.77978e-05
0.000324598
3.19463e-05
0.000363665
4.54356e-05
0.000405665
4.99972e-05
5.70609e-05
0.000460545
0.000211666
-3.41212e-05
0.000216796
-3.1199e-05
0.000220593
-1.81554e-05
0.000228124
-6.15379e-06
0.000242476
3.44585e-06
0.000264158
1.02645e-05
0.00029387
1.57242e-05
0.000326537
1.73304e-05
1.87541e-05
0.000364843
0.000165879
0.00013468
0.000116524
0.000110371
0.000113816
0.000124081
0.000139805
0.000157136
0.00017589
0.000246258
0.000156892
5.84509e-05
0.000187807
0.000508837
0.000180774
9.33147e-05
0.000473973
0.000583331
0.000145136
8.68361e-05
0.000589809
0.000565563
9.47329e-05
6.02919e-05
0.000592108
0.000506371
4.89071e-05
2.96985e-05
0.000536964
0.000398692
1.50583e-05
7.2784e-06
0.000421112
0.000190948
0.000198226
0.00019128
6.55373e-06
-1.00272e-05
0.000220336
-1.66447e-05
-1.24107e-05
0.000255854
-3.51381e-05
-3.80247e-07
0.000291968
-5.44112e-05
1.82976e-05
0.000324267
-7.62746e-05
4.39751e-05
0.000350779
-0.00010061
7.4098e-05
0.000369811
-0.000122851
0.000103819
0.000381408
-0.000143192
0.000131595
-0.000150414
0.000147696
0.000448548
3.19793e-05
0.00044062
-8.71648e-06
0.000444952
-3.94703e-05
0.000455536
-6.49954e-05
0.000467135
-8.78736e-05
0.000475841
-0.000109316
0.000479184
-0.000126194
0.000476269
-0.000140276
-0.000140022
0.000584676
3.71122e-05
0.00057789
-1.93031e-06
0.000573421
-3.50014e-05
0.000569574
-6.1148e-05
0.000564476
-8.27758e-05
0.000555799
-0.000100639
0.000542505
-0.0001129
0.000523508
-0.00012128
-0.000116631
0.000604374
2.48456e-05
0.000608269
-5.82466e-06
0.000604802
-3.15347e-05
0.000595819
-5.21651e-05
0.00058134
-6.82969e-05
0.000560733
-8.00316e-05
0.000534773
-8.694e-05
0.000503171
-8.9678e-05
-8.38506e-05
0.000553586
8.22354e-06
0.000558399
-1.06371e-05
0.000552912
-2.60476e-05
0.000538437
-3.76909e-05
0.000515985
-4.58448e-05
0.000486468
-5.05145e-05
0.000451817
-5.22889e-05
0.000413365
-5.12258e-05
-4.771e-05
0.000430899
-1.56361e-06
0.00042876
-8.49826e-06
0.000416253
-1.35401e-05
0.00039519
-1.66282e-05
0.000367431
-1.80855e-05
0.000335089
-1.81722e-05
0.000300418
-1.76179e-05
0.000265779
-1.65866e-05
-1.68367e-05
0.000196663
0.000188165
0.000174624
0.000157996
0.000139911
0.000121738
0.000104121
8.7534e-05
-2.71924e-06
2.71923e-06
-1.03533e-05
7.6341e-06
-1.97604e-05
9.40703e-06
-2.87075e-05
8.94709e-06
-3.5512e-05
6.80452e-06
-3.8542e-05
3.03002e-06
-3.63933e-05
-2.14873e-06
-2.82728e-05
-8.12045e-06
-1.41601e-05
-8.51794e-06
1.12372e-05
-2.46941e-05
2.38103e-05
-4.24467e-05
2.71596e-05
-5.77415e-05
2.42418e-05
-6.77133e-05
1.67764e-05
-7.01934e-05
5.5101e-06
-6.38766e-05
-8.46552e-06
-4.90934e-05
-2.29036e-05
-3.51812e-05
-1.10846e-05
2.23217e-05
-3.01728e-05
4.28985e-05
-4.98445e-05
4.68313e-05
-6.55779e-05
3.99753e-05
-7.45211e-05
2.57195e-05
-7.48515e-05
5.84049e-06
-6.58279e-05
-1.74891e-05
-4.82106e-05
-4.05209e-05
-5.8276e-05
-1.08526e-05
3.31743e-05
-2.80807e-05
6.01266e-05
-4.46984e-05
6.34491e-05
-5.67907e-05
5.20676e-05
-6.2162e-05
3.10909e-05
-5.96647e-05
3.34319e-06
-4.91101e-05
-2.80437e-05
-3.06158e-05
-5.90153e-05
-8.02998e-05
-8.81548e-06
4.19898e-05
-1.97287e-05
7.10399e-05
-2.84046e-05
7.21249e-05
-3.2568e-05
5.6231e-05
-3.11267e-05
2.96495e-05
-2.3991e-05
-3.79253e-06
-1.18634e-05
-4.01713e-05
6.27883e-06
-7.71575e-05
-9.87228e-05
-5.47117e-06
4.7461e-05
-5.20503e-06
7.07737e-05
-5.91912e-07
6.75118e-05
8.22931e-06
4.74098e-05
2.05652e-05
1.73136e-05
3.5526e-05
-1.87533e-05
5.23635e-05
-5.70087e-05
6.9583e-05
-9.4377e-05
-0.000118278
3.48687e-06
4.39741e-05
2.02869e-05
5.39737e-05
4.38907e-05
4.39081e-05
6.94066e-05
2.18938e-05
9.49363e-05
-8.21607e-06
0.000119423
-4.32401e-05
0.000141549
-7.91342e-05
0.000160324
-0.000113153
-0.000135612
3.39469e-05
7.55099e-05
0.000119038
0.000159229
0.000194988
0.000225846
0.000250531
0.000268973
)
;

boundaryField
{
    inlet
    {
        type            calculated;
        value           uniform -0.0002;
    }
    outlet
    {
        type            calculated;
        value           nonuniform List<scalar> 
15
(
-1.41128e-05
-2.80723e-05
-2.51158e-05
-8.59198e-06
2.47018e-05
8.91381e-05
0.000177659
0.000281057
0.000384126
0.000465876
0.000500118
0.000470391
0.000377224
0.000234905
7.06973e-05
)
;
    }
    fixedWalls
    {
        type            calculated;
        value           uniform 0;
    }
    frontAndBack
    {
        type            empty;
    }
}


// ************************************************************************* //
