/*--------------------------------*- C++ -*----------------------------------*\
| =========                 |                                                 |
| \\      /  F ield         | OpenFOAM Extend Project: Open source CFD        |
|  \\    /   O peration     | Version:  1.6-ext                               |
|   \\  /    A nd           | Web:      www.extend-project.de                 |
|    \\/     M anipulation  |                                                 |
\*---------------------------------------------------------------------------*/
FoamFile
{
    version     2.0;
    format      ascii;
    class       volVectorField;
    location    "4.8";
    object      U;
}
// * * * * * * * * * * * * * * * * * * * * * * * * * * * * * * * * * * * * * //

dimensions      [0 1 -1 0 0 0 0];

internalField   nonuniform List<vector> 
284
(
(0.163781 0.0266015 0)
(0.141791 0.0268337 0)
(0.0987136 0.0192609 0)
(0.0662268 0.0122042 0)
(0.0430733 0.00724569 0)
(0.0258465 0.00430293 0)
(0.0127726 0.00253574 0)
(0.00282859 0.000889748 0)
(-0.000712094 -0.00120036 0)
(0.200598 0.0433987 0)
(0.20204 0.0577745 0)
(0.179223 0.053611 0)
(0.14624 0.0444937 0)
(0.111142 0.0351904 0)
(0.0771426 0.0275971 0)
(0.045896 0.0213716 0)
(0.0184641 0.0142579 0)
(0.00295318 0.00337958 0)
(0.203094 0.0291642 0)
(0.210987 0.0599808 0)
(0.204483 0.0729377 0)
(0.183902 0.0757302 0)
(0.152998 0.0726565 0)
(0.115644 0.0665896 0)
(0.0751577 0.0583753 0)
(0.0343438 0.0450825 0)
(0.0072081 0.0192344 0)
(0.201524 0.0224923 0)
(0.2076 0.0575006 0)
(0.207853 0.0817125 0)
(0.197272 0.0967919 0)
(0.174733 0.104418 0)
(0.14118 0.10613 0)
(0.0983867 0.101955 0)
(0.0487616 0.0864706 0)
(0.0115863 0.0438061 0)
(0.200565 0.0190794 0)
(0.203993 0.0543858 0)
(0.205911 0.0847319 0)
(0.201318 0.109651 0)
(0.186604 0.128953 0)
(0.159645 0.142391 0)
(0.11906 0.148118 0)
(0.0642133 0.136376 0)
(0.0173604 0.0777823 0)
(0.200234 0.0174203 0)
(0.20237 0.0517946 0)
(0.204915 0.0849534 0)
(0.20433 0.116625 0)
(0.196576 0.146371 0)
(0.177684 0.173243 0)
(0.142973 0.194072 0)
(0.0863049 0.194282 0)
(0.0276477 0.123776 0)
(0.200218 0.0162928 0)
(0.202439 0.0490957 0)
(0.206378 0.0828481 0)
(0.209787 0.118307 0)
(0.20929 0.155966 0)
(0.20074 0.19562 0)
(0.17797 0.234226 0)
(0.124208 0.252957 0)
(0.0483729 0.196201 0)
(0.200346 0.0149044 0)
(0.203615 0.045139 0)
(0.210103 0.0775815 0)
(0.218434 0.113943 0)
(0.226259 0.156088 0)
(0.230569 0.206179 0)
(0.223699 0.26999 0)
(0.197442 0.338934 0)
(0.0603251 0.285953 0)
(0.200547 0.0127841 0)
(0.205486 0.038955 0)
(0.215427 0.0681207 0)
(0.229638 0.102287 0)
(0.247253 0.143617 0)
(0.271069 0.194418 0)
(0.298846 0.261139 0)
(0.356964 0.344929 0)
(0.397677 0.428158 0)
(0.200839 0.00960316 0)
(0.207962 0.0299336 0)
(0.221669 0.0540675 0)
(0.241079 0.0834732 0)
(0.265775 0.119139 0)
(0.300209 0.161177 0)
(0.342185 0.212732 0)
(0.410007 0.255601 0)
(0.49088 0.337748 0)
(0.201383 0.00496938 0)
(0.211551 0.0176322 0)
(0.228966 0.0357959 0)
(0.251777 0.059541 0)
(0.27959 0.0881624 0)
(0.315411 0.119551 0)
(0.359985 0.156675 0)
(0.417416 0.173072 0)
(0.497685 0.22843 0)
(0.20245 -0.0023882 0)
(0.216914 0.00141367 0)
(0.237158 0.0142553 0)
(0.260646 0.033307 0)
(0.287895 0.0561104 0)
(0.320678 0.079362 0)
(0.362329 0.10587 0)
(0.409964 0.114515 0)
(0.473894 0.142084 0)
(0.204207 -0.0136843 0)
(0.222719 -0.0174732 0)
(0.240919 -0.00716648 0)
(0.259388 0.00924872 0)
(0.281159 0.0276242 0)
(0.307833 0.0448004 0)
(0.343016 0.062384 0)
(0.38269 0.0684934 0)
(0.431139 0.0793463 0)
(0.201748 -0.0351388 0)
(0.215145 -0.0365571 0)
(0.218729 -0.0224555 0)
(0.223214 -0.00681231 0)
(0.233921 0.00703895 0)
(0.251651 0.0179195 0)
(0.277942 0.0270619 0)
(0.308911 0.0300355 0)
(0.344921 0.0328275 0)
(0.164653 -0.0248766 0)
(0.151324 -0.0222498 0)
(0.124364 -0.0125487 0)
(0.111348 -0.00482513 0)
(0.110616 0.000453977 0)
(0.117839 0.00376715 0)
(0.131314 0.00591295 0)
(0.147971 0.00621359 0)
(0.166528 0.00612095 0)
(0.35252 0.16645 0)
(0.18264 0.0444168 0)
(0.542577 0.178415 0)
(0.495662 0.083099 0)
(0.575326 0.168044 0)
(0.595591 0.101336 0)
(0.543588 0.118701 0)
(0.584909 0.076421 0)
(0.484471 0.0682032 0)
(0.52506 0.0432655 0)
(0.382573 0.0269062 0)
(0.412255 0.0141171 0)
(0.184212 0.00379669 0)
(0.196021 -8.7279e-05 0)
(0.183037 -0.00544719 0)
(0.201505 -0.014167 0)
(0.236187 -0.0253846 0)
(0.273556 -0.0423893 0)
(0.308278 -0.0647462 0)
(0.339504 -0.0910223 0)
(0.361361 -0.116357 0)
(0.379736 -0.140051 0)
(0.384525 -0.151831 0)
(0.460694 0.0204893 0)
(0.44157 -0.0166901 0)
(0.4398 -0.0429439 0)
(0.44901 -0.0654092 0)
(0.4608 -0.087182 0)
(0.473677 -0.109405 0)
(0.477473 -0.128346 0)
(0.483386 -0.145312 0)
(0.467438 -0.14856 0)
(0.591707 0.0442415 0)
(0.582316 -6.92473e-05 0)
(0.575161 -0.0343634 0)
(0.57162 -0.0623231 0)
(0.56702 -0.0860417 0)
(0.562792 -0.106687 0)
(0.548341 -0.121792 0)
(0.539908 -0.133533 0)
(0.502823 -0.131018 0)
(0.602991 0.0337665 0)
(0.608873 -0.00277884 0)
(0.607973 -0.0325321 0)
(0.602156 -0.0568222 0)
(0.589821 -0.0765878 0)
(0.574095 -0.0920637 0)
(0.547057 -0.102061 0)
(0.526 -0.107804 0)
(0.474209 -0.102037 0)
(0.548903 0.0157237 0)
(0.559084 -0.00888211 0)
(0.558214 -0.0296349 0)
(0.548227 -0.0462052 0)
(0.529176 -0.0587233 0)
(0.503929 -0.0669787 0)
(0.468927 -0.0711224 0)
(0.437959 -0.071225 0)
(0.381784 -0.0656907 0)
(0.428852 -1.54858e-06 0)
(0.432634 -0.0122492 0)
(0.425011 -0.0216556 0)
(0.407944 -0.0280204 0)
(0.382969 -0.0316411 0)
(0.35275 -0.0327104 0)
(0.317662 -0.0321582 0)
(0.285676 -0.0301272 0)
(0.239396 -0.0288879 0)
(0.198986 -0.0036102 0)
(0.193783 -0.00604572 0)
(0.182426 -0.00726523 0)
(0.167017 -0.00744675 0)
(0.149322 -0.00693805 0)
(0.130987 -0.00605949 0)
(0.11282 -0.00535101 0)
(0.0966796 -0.00500639 0)
(0.0739227 -0.00605466 0)
(-0.00047744 0.000324984 0)
(-0.00548509 0.00232921 0)
(-0.0150216 0.00326878 0)
(-0.0246624 0.00340969 0)
(-0.0328372 0.00292578 0)
(-0.0378621 0.00171666 0)
(-0.038537 -0.000236401 0)
(-0.0358402 -0.00283621 0)
(-0.0162578 -0.00589121 0)
(-0.002887 0.00570219 0)
(-0.0150414 0.0138969 0)
(-0.0338366 0.016621 0)
(-0.0513254 0.0154797 0)
(-0.0644624 0.0114275 0)
(-0.0706843 0.00469555 0)
(-0.0689304 -0.00418134 0)
(-0.061241 -0.0139799 0)
(-0.0310253 -0.0232299 0)
(-0.00408706 0.016601 0)
(-0.0191 0.0332041 0)
(-0.0406411 0.0370445 0)
(-0.0594335 0.0323698 0)
(-0.0722345 0.0216541 0)
(-0.0766701 0.00613621 0)
(-0.0721928 -0.0126101 0)
(-0.0622254 -0.0314382 0)
(-0.0280015 -0.046609 0)
(-0.00424073 0.0280508 0)
(-0.0183647 0.0523122 0)
(-0.0373007 0.0561791 0)
(-0.0526179 0.047071 0)
(-0.0616875 0.029296 0)
(-0.0627777 0.00526206 0)
(-0.0556746 -0.0227589 0)
(-0.0453604 -0.0501606 0)
(-0.0104123 -0.0696407 0)
(-0.00395052 0.038113 0)
(-0.0141331 0.0672567 0)
(-0.0252048 0.0699227 0)
(-0.0322167 0.0562189 0)
(-0.0337255 0.0321043 0)
(-0.0290684 0.00113061 0)
(-0.018245 -0.0338741 0)
(-0.00709042 -0.0685974 0)
(0.0220882 -0.0899796 0)
(-0.00344929 0.0454809 0)
(-0.00680313 0.0738036 0)
(-0.00399652 0.0733824 0)
(0.0026571 0.0551965 0)
(0.013219 0.0262567 0)
(0.0272503 -0.00925128 0)
(0.0437185 -0.0477514 0)
(0.0591916 -0.0859951 0)
(0.085679 -0.109297 0)
(0.000278009 0.0530092 0)
(0.00785884 0.0689444 0)
(0.0311486 0.0612539 0)
(0.0558449 0.0391714 0)
(0.0815893 0.00795398 0)
(0.107254 -0.0287908 0)
(0.131009 -0.0669877 0)
(0.151327 -0.103706 0)
(0.174948 -0.127955 0)
(0.0259792 0.027313 0)
(0.0485346 0.0365979 0)
(0.096982 0.025798 0)
(0.139232 0.00415681 0)
(0.17731 -0.0247463 0)
(0.211604 -0.0581814 0)
(0.239426 -0.0916357 0)
(0.262101 -0.123018 0)
(0.279897 -0.143219 0)
)
;

boundaryField
{
    inlet
    {
        type            fixedValue;
        value           uniform (0.2 0 0);
    }
    outlet
    {
        type            zeroGradient;
    }
    fixedWalls
    {
        type            fixedValue;
        value           uniform (0 0 0);
    }
    frontAndBack
    {
        type            empty;
    }
}


// ************************************************************************* //
