/*--------------------------------*- C++ -*----------------------------------*\
| =========                 |                                                 |
| \\      /  F ield         | OpenFOAM Extend Project: Open source CFD        |
|  \\    /   O peration     | Version:  1.6-ext                               |
|   \\  /    A nd           | Web:      www.extend-project.de                 |
|    \\/     M anipulation  |                                                 |
\*---------------------------------------------------------------------------*/
FoamFile
{
    version     2.0;
    format      ascii;
    class       volScalarField;
    location    "2.8";
    object      p;
}
// * * * * * * * * * * * * * * * * * * * * * * * * * * * * * * * * * * * * * //

dimensions      [0 2 -2 0 0 0 0];

internalField   nonuniform List<scalar> 
284
(
0.265522
0.234055
0.222602
0.217655
0.215805
0.215835
0.216754
0.21803
0.220132
0.2363
0.227424
0.222072
0.219565
0.218662
0.218787
0.219421
0.220278
0.222545
0.224361
0.22096
0.218396
0.217253
0.217297
0.21812
0.219176
0.220195
0.223228
0.214909
0.213846
0.212807
0.212615
0.213358
0.21473
0.216187
0.21739
0.221106
0.207124
0.20682
0.206423
0.206496
0.207235
0.208453
0.209607
0.210266
0.213993
0.200055
0.199939
0.199613
0.19936
0.199339
0.199406
0.198989
0.197433
0.198989
0.193345
0.193199
0.192602
0.191598
0.190161
0.187977
0.184127
0.176863
0.171003
0.187022
0.186753
0.185674
0.183621
0.180289
0.175007
0.166117
0.151251
0.106152
0.181334
0.180897
0.179204
0.175916
0.170266
0.160555
0.140934
0.102234
0.00775443
0.176648
0.17599
0.173626
0.169223
0.161979
0.150315
0.12994
0.0976301
0.0436288
0.173431
0.172356
0.169169
0.163808
0.155843
0.14432
0.127293
0.102832
0.0695621
0.172181
0.17023
0.165797
0.159392
0.150971
0.139966
0.125542
0.105907
0.0823995
0.174531
0.170006
0.163465
0.155787
0.146911
0.13641
0.123817
0.107627
0.0892712
0.180701
0.170892
0.161707
0.152921
0.143958
0.134085
0.122771
0.108842
0.0930148
0.208941
0.177036
0.1623
0.152487
0.143802
0.134772
0.124433
0.111572
0.096469
-0.12641
-0.0921027
-0.0265047
-0.0482669
0.0197132
-0.0102811
0.0493196
0.0233929
0.0664899
0.0450283
0.0746567
0.0558848
0.0788868
0.0600326
-0.0803353
-0.0721226
-0.0672162
-0.0609569
-0.0509732
-0.0376358
-0.023804
-0.0113586
-0.00338722
-0.0545546
-0.055
-0.0533255
-0.0486694
-0.0402943
-0.0292315
-0.0182749
-0.00865616
-0.00348561
-0.0241173
-0.0297509
-0.0314115
-0.0297379
-0.0249489
-0.0181228
-0.0114606
-0.0055737
-0.00335774
0.0070295
-0.00311655
-0.00904484
-0.0113392
-0.0107683
-0.00841174
-0.00583462
-0.00325611
-0.00319478
0.0279797
0.015415
0.0068028
0.00150506
-0.00124277
-0.00226035
-0.00251057
-0.00207787
-0.00300913
0.0391223
0.0254609
0.015069
0.00771553
0.00286837
-5.33458e-05
-0.00162825
-0.00205393
-0.00287286
0.0420949
0.0267464
0.0146286
0.00582459
4.56705e-05
-0.00320039
-0.00449477
-0.00431284
-0.00377829
-0.0329363
-0.0335572
-0.0315677
-0.0276815
-0.0222237
-0.0158054
-0.00922261
-0.00492345
0.00396731
-0.0324196
-0.0332616
-0.031685
-0.0284102
-0.0235234
-0.0173915
-0.0105799
-0.00628131
0.0029018
-0.0344645
-0.035537
-0.0341692
-0.0310021
-0.0259496
-0.0194033
-0.0121233
-0.00641686
0.00269285
-0.0387643
-0.0399083
-0.0387122
-0.0355024
-0.030061
-0.0226879
-0.0142078
-0.00705111
0.00235188
-0.0455343
-0.0463075
-0.0452866
-0.0419696
-0.0359897
-0.0272547
-0.0173744
-0.00831468
0.00154352
-0.0548303
-0.0542413
-0.0535521
-0.0504051
-0.0433409
-0.0329558
-0.0211618
-0.0100627
0.000201325
-0.0659658
-0.0618778
-0.0613896
-0.0578867
-0.0500442
-0.0381116
-0.0245296
-0.0117124
-0.00138271
-0.0871184
-0.0697456
-0.067659
-0.0627669
-0.0535851
-0.0403806
-0.0258632
-0.0123981
-0.00268187
)
;

boundaryField
{
    inlet
    {
        type            zeroGradient;
    }
    outlet
    {
        type            totalPressure;
        rho             none;
        psi             none;
        gamma           1;
        p0              uniform 0;
        value           uniform 0;
    }
    fixedWalls
    {
        type            zeroGradient;
    }
    frontAndBack
    {
        type            empty;
    }
}


// ************************************************************************* //
