/*--------------------------------*- C++ -*----------------------------------*\
| =========                 |                                                 |
| \\      /  F ield         | OpenFOAM Extend Project: Open source CFD        |
|  \\    /   O peration     | Version:  1.6-ext                               |
|   \\  /    A nd           | Web:      www.extend-project.de                 |
|    \\/     M anipulation  |                                                 |
\*---------------------------------------------------------------------------*/
FoamFile
{
    version     2.0;
    format      ascii;
    class       surfaceScalarField;
    location    "2.8";
    object      phi;
}
// * * * * * * * * * * * * * * * * * * * * * * * * * * * * * * * * * * * * * //

dimensions      [0 3 -1 0 0 0 0];

internalField   nonuniform List<scalar> 
525
(
0.000160841
3.91592e-05
0.000117142
4.36986e-05
8.16484e-05
3.54938e-05
5.47166e-05
2.69318e-05
3.48692e-05
1.98474e-05
1.99773e-05
1.48919e-05
8.59458e-06
1.13828e-05
1.137e-06
7.45758e-06
1.137e-06
0.000204994
3.41657e-05
0.000190511
5.81808e-05
0.000162768
6.32371e-05
0.00012962
6.00798e-05
9.56643e-05
5.38031e-05
6.34142e-05
4.7142e-05
3.42817e-05
4.05153e-05
1.09022e-05
3.0837e-05
1.20392e-05
0.0002087
2.54657e-05
0.00020832
5.85607e-05
0.000194696
7.68608e-05
0.000169401
8.53756e-05
0.000135774
8.74299e-05
9.7321e-05
8.55947e-05
5.72779e-05
8.05584e-05
2.07381e-05
6.73768e-05
3.27773e-05
0.000205088
2.0378e-05
0.000208371
5.5277e-05
0.000203056
8.21757e-05
0.000186539
0.000101893
0.000158637
0.000115332
0.000120767
0.000123465
7.56544e-05
0.000125671
2.95243e-05
0.000113507
6.23016e-05
0.000202409
1.79685e-05
0.000205432
5.22541e-05
0.000204033
8.35752e-05
0.000194148
0.000111778
0.000172976
0.000136503
0.000139166
0.000157275
9.30024e-05
0.000171834
3.94137e-05
0.000167096
0.000101715
0.000201287
1.66817e-05
0.00020398
4.95609e-05
0.000205018
8.25372e-05
0.000200545
0.000116251
0.000186538
0.00015051
0.00015926
0.000184554
0.00011549
0.000215605
5.53291e-05
0.000227256
0.000157044
0.000201213
1.54691e-05
0.000204628
4.61453e-05
0.000208465
7.87003e-05
0.000209721
0.000114995
0.000204392
0.000155839
0.000187692
0.000201254
0.000151994
0.000251302
8.72281e-05
0.000292022
0.000244273
0.000201749
1.37201e-05
0.000206954
4.09403e-05
0.000214581
7.10737e-05
0.00022266
0.000106916
0.000228004
0.000150495
0.000225731
0.000203527
0.000203811
0.000273223
0.000138386
0.000357447
0.000382658
0.000202651
1.10693e-05
0.000210404
3.31872e-05
0.000222572
5.89061e-05
0.000238449
9.10389e-05
0.000257784
0.00013116
0.000282287
0.000179023
0.000319192
0.000236318
0.000384038
0.000292601
0.000360315
0.000406381
0.000203921
7.14859e-06
0.000214673
2.24353e-05
0.000231181
4.23976e-05
0.00025327
6.89496e-05
0.000282153
0.000102278
0.000320942
0.000140234
0.000373341
0.000183919
0.000454175
0.000211767
0.000279826
0.000534665
0.000205978
1.17103e-06
0.000220143
8.26977e-06
0.000239993
2.25472e-05
0.000265158
4.37847e-05
0.000296832
7.06044e-05
0.00033742
9.96461e-05
0.000388822
0.000132516
0.00045477
0.000145819
0.000186537
0.000548059
0.000209382
-8.21081e-06
0.000227096
-9.44424e-06
0.000248258
1.38541e-06
0.000273014
1.90284e-05
0.000302861
4.07574e-05
0.000339882
6.26245e-05
0.000386575
8.58244e-05
0.000438969
9.34245e-05
0.000111275
0.000514232
0.000214433
-2.26434e-05
0.00023188
-2.68921e-05
0.000249009
-1.57428e-05
0.00026821
-1.72895e-07
0.000292043
1.69241e-05
0.000322569
3.20991e-05
0.000362078
4.6315e-05
0.00040453
5.09727e-05
5.67573e-05
0.000459047
0.000211566
-3.42096e-05
0.000216233
-3.15584e-05
0.000219235
-1.87458e-05
0.000225846
-6.7832e-06
0.00023969
3.08041e-06
0.000261491
1.02976e-05
0.000291759
1.60475e-05
0.00032506
1.76712e-05
1.85501e-05
0.000363267
0.00016579
0.000134232
0.000115486
0.000108703
0.000111783
0.000122081
0.000138129
0.0001558
0.00017435
0.000252824
0.000153557
5.20198e-05
0.000200804
0.000513596
0.000174626
8.15169e-05
0.000484099
0.000583742
0.000138942
7.46614e-05
0.000590597
0.000563094
9.00798e-05
5.0277e-05
0.000587478
0.000503237
4.58899e-05
2.29443e-05
0.00053057
0.00039536
1.37977e-05
4.33004e-06
0.000413974
0.000188148
0.000192478
0.000215089
-3.8037e-06
-1.04808e-05
0.000253379
-3.86661e-05
3.75455e-07
0.000292872
-7.66432e-05
3.7151e-05
0.000324282
-0.000117856
8.64459e-05
0.000344949
-0.000155745
0.000135078
0.000355092
-0.000182748
0.000172606
0.000356432
-0.000192768
0.000191428
0.000351926
-0.000188294
0.0001928
-0.000160548
0.000168698
0.000466288
1.40071e-05
0.000464847
-3.72249e-05
0.000469719
-8.15152e-05
0.000472528
-0.000120666
0.000468615
-0.000151832
0.000456559
-0.000170693
0.000437717
-0.000173926
0.000414417
-0.000164994
-0.000137636
0.000586407
1.81972e-05
0.000580043
-3.08601e-05
0.00057089
-7.23621e-05
0.000556207
-0.000105983
0.00053428
-0.000129905
0.000505088
-0.0001415
0.000470994
-0.000139832
0.000434416
-0.000128416
-0.000105288
0.000597063
8.61228e-06
0.000594872
-2.86686e-05
0.000582362
-5.98524e-05
0.000559858
-8.3479e-05
0.000528012
-9.80586e-05
0.000488875
-0.000102363
0.000446331
-9.72887e-05
0.000403715
-8.57998e-05
-6.96953e-05
0.000541663
-2.48126e-06
0.000537986
-2.49916e-05
0.000520853
-4.27196e-05
0.00049181
-5.44352e-05
0.000453388
-5.96373e-05
0.000409516
-5.849e-05
0.000364995
-5.27683e-05
0.000323733
-4.45375e-05
-3.68962e-05
0.000417263
-5.76995e-06
0.000406019
-1.37479e-05
0.000382279
-1.89794e-05
0.00034915
-2.13069e-05
0.000310599
-2.10865e-05
0.000271101
-1.89917e-05
0.000234475
-1.61416e-05
0.000203284
-1.33469e-05
-1.24042e-05
0.000186708
0.00017296
0.00015398
0.000132673
0.000111587
9.25952e-05
7.64536e-05
6.31067e-05
-5.00214e-06
5.00214e-06
-1.39329e-05
8.93073e-06
-2.14706e-05
7.53777e-06
-2.49898e-05
3.51913e-06
-2.37158e-05
-1.27393e-06
-1.80441e-05
-5.67178e-06
-9.02032e-06
-9.02373e-06
2.16734e-06
-1.11877e-05
-1.19394e-05
-9.71821e-06
1.47204e-05
-2.40376e-05
2.32501e-05
-3.44576e-05
1.79578e-05
-3.69862e-05
6.04768e-06
-3.08025e-05
-7.45761e-06
-1.72118e-05
-1.92625e-05
1.0069e-06
-2.72424e-05
2.15654e-05
-3.17461e-05
-3.2016e-05
-1.16049e-05
2.63253e-05
-2.75427e-05
3.91879e-05
-3.78979e-05
2.8313e-05
-3.82191e-05
6.36883e-06
-2.77735e-05
-1.79032e-05
-8.4232e-06
-3.86128e-05
1.63636e-05
-5.20293e-05
4.27173e-05
-5.80997e-05
-5.70032e-05
-1.26174e-05
3.89426e-05
-2.85855e-05
5.51561e-05
-3.76749e-05
3.74024e-05
-3.53321e-05
4.02596e-06
-2.1329e-05
-3.19062e-05
2.36435e-06
-6.23061e-05
3.17478e-05
-8.14127e-05
6.27129e-05
-8.90649e-05
-8.52803e-05
-1.23718e-05
5.13145e-05
-2.50101e-05
6.77944e-05
-2.9683e-05
4.20753e-05
-2.26446e-05
-3.01239e-06
-4.3103e-06
-5.02406e-05
2.26007e-05
-8.92171e-05
5.49214e-05
-0.000113733
8.83045e-05
-0.000122448
-0.000114677
-8.57481e-06
5.98893e-05
-1.07565e-05
6.9976e-05
-4.36323e-06
3.5682e-05
1.1268e-05
-1.86436e-05
3.50033e-05
-7.39758e-05
6.45263e-05
-0.00011874
9.6725e-05
-0.000145932
0.000128742
-0.000154465
-0.000141685
4.87126e-06
5.5018e-05
2.36948e-05
5.11525e-05
4.97782e-05
9.59864e-06
7.79965e-05
-4.68619e-05
0.000107461
-0.000103441
0.000136884
-0.000148163
0.000164582
-0.000173629
0.000189913
-0.000179796
-0.000161423
4.45372e-05
9.60652e-05
0.000142815
0.000182399
0.000214036
0.000238478
0.000256277
0.00026928
)
;

boundaryField
{
    inlet
    {
        type            calculated;
        value           uniform -0.0002;
    }
    outlet
    {
        type            calculated;
        value           nonuniform List<scalar> 
15
(
1.41067e-05
4.1642e-05
6.77044e-05
9.09901e-05
0.000117701
0.00015575
0.000209651
0.000276555
0.000343776
0.000391505
0.000402068
0.000368122
0.000290934
0.000178792
5.07025e-05
)
;
    }
    fixedWalls
    {
        type            calculated;
        value           uniform 0;
    }
    frontAndBack
    {
        type            empty;
    }
}


// ************************************************************************* //
