/*--------------------------------*- C++ -*----------------------------------*\
| =========                 |                                                 |
| \\      /  F ield         | OpenFOAM Extend Project: Open source CFD        |
|  \\    /   O peration     | Version:  1.6-ext                               |
|   \\  /    A nd           | Web:      www.extend-project.de                 |
|    \\/     M anipulation  |                                                 |
\*---------------------------------------------------------------------------*/
FoamFile
{
    version     2.0;
    format      ascii;
    class       volVectorField;
    location    "2.8";
    object      U;
}
// * * * * * * * * * * * * * * * * * * * * * * * * * * * * * * * * * * * * * //

dimensions      [0 1 -1 0 0 0 0];

internalField   nonuniform List<vector> 
284
(
(0.163775 0.0266029 0)
(0.141828 0.0268124 0)
(0.0988912 0.0192129 0)
(0.0666185 0.0121426 0)
(0.0437285 0.00717897 0)
(0.0267172 0.0042675 0)
(0.0136193 0.00258383 0)
(0.00328234 0.00100044 0)
(-0.000629585 -0.00117854 0)
(0.200597 0.0433641 0)
(0.20214 0.0575936 0)
(0.179646 0.0532739 0)
(0.147181 0.0440511 0)
(0.1127 0.0347562 0)
(0.0792016 0.0274187 0)
(0.0479437 0.0217274 0)
(0.0197154 0.0150669 0)
(0.00328285 0.00390856 0)
(0.203093 0.0290732 0)
(0.211079 0.0595427 0)
(0.20488 0.0721269 0)
(0.184792 0.0746442 0)
(0.154488 0.0715676 0)
(0.117675 0.0660777 0)
(0.0772797 0.0591077 0)
(0.0357346 0.0469746 0)
(0.00761165 0.0207284 0)
(0.20152 0.02237 0)
(0.207669 0.0568697 0)
(0.208148 0.0805527 0)
(0.197858 0.0952614 0)
(0.175591 0.102856 0)
(0.142301 0.105293 0)
(0.0996161 0.102838 0)
(0.0496311 0.0891089 0)
(0.0118567 0.0460679 0)
(0.200561 0.0189324 0)
(0.204058 0.0536153 0)
(0.206156 0.0833868 0)
(0.201678 0.108007 0)
(0.186856 0.127336 0)
(0.159714 0.141479 0)
(0.119093 0.148988 0)
(0.0642947 0.139228 0)
(0.017407 0.0803557 0)
(0.200231 0.0172479 0)
(0.202443 0.0508959 0)
(0.205182 0.0835006 0)
(0.204675 0.115104 0)
(0.196603 0.145107 0)
(0.177128 0.17261 0)
(0.142105 0.19491 0)
(0.0857126 0.196902 0)
(0.0274963 0.126214 0)
(0.200214 0.0160914 0)
(0.202517 0.04805 0)
(0.206694 0.0812502 0)
(0.210288 0.116928 0)
(0.20954 0.155248 0)
(0.200259 0.195559 0)
(0.176868 0.23509 0)
(0.123384 0.254995 0)
(0.0482074 0.198184 0)
(0.200342 0.0146738 0)
(0.203683 0.0439272 0)
(0.210435 0.0757357 0)
(0.219114 0.112516 0)
(0.226986 0.155806 0)
(0.230754 0.206859 0)
(0.22303 0.271179 0)
(0.196734 0.340577 0)
(0.0601235 0.287737 0)
(0.200545 0.0125298 0)
(0.205529 0.0375871 0)
(0.215697 0.0659493 0)
(0.230339 0.100534 0)
(0.248352 0.143367 0)
(0.272145 0.195625 0)
(0.299471 0.262797 0)
(0.357533 0.345934 0)
(0.399077 0.428845 0)
(0.20084 0.00933427 0)
(0.207971 0.0284661 0)
(0.221783 0.051608 0)
(0.241514 0.0812441 0)
(0.26672 0.118485 0)
(0.301536 0.1624 0)
(0.343545 0.214679 0)
(0.411052 0.256665 0)
(0.492056 0.336041 0)
(0.201389 0.00470626 0)
(0.211524 0.0161755 0)
(0.228851 0.0332442 0)
(0.251666 0.0569789 0)
(0.279736 0.0869922 0)
(0.315988 0.120391 0)
(0.360916 0.158546 0)
(0.418243 0.174644 0)
(0.498302 0.226651 0)
(0.202455 -0.00263917 0)
(0.216831 9.55537e-05 0)
(0.236758 0.0119052 0)
(0.259833 0.0308122 0)
(0.28687 0.0547186 0)
(0.319832 0.0797927 0)
(0.361873 0.107446 0)
(0.409754 0.1162 0)
(0.47357 0.14121 0)
(0.204215 -0.0139228 0)
(0.222564 -0.018531 0)
(0.240204 -0.00898246 0)
(0.257893 0.0073383 0)
(0.279048 0.0264951 0)
(0.305632 0.0450178 0)
(0.341171 0.063555 0)
(0.381385 0.0698257 0)
(0.43007 0.0790425 0)
(0.201754 -0.0352815 0)
(0.214921 -0.0371376 0)
(0.217808 -0.0234134 0)
(0.221319 -0.00780123 0)
(0.231238 0.00644294 0)
(0.248803 0.0180031 0)
(0.2755 0.0276368 0)
(0.307188 0.0306516 0)
(0.343619 0.0325606 0)
(0.164658 -0.0249073 0)
(0.151133 -0.0223888 0)
(0.12364 -0.0127846 0)
(0.109945 -0.00507874 0)
(0.108677 0.000293048 0)
(0.115753 0.00376501 0)
(0.129455 0.00600782 0)
(0.146531 0.00626921 0)
(0.165255 0.00587517 0)
(0.357219 0.165158 0)
(0.191647 0.041036 0)
(0.545109 0.172985 0)
(0.502599 0.0732345 0)
(0.575348 0.161462 0)
(0.595973 0.088669 0)
(0.542044 0.113175 0)
(0.581442 0.064709 0)
(0.482494 0.0644693 0)
(0.520636 0.0347639 0)
(0.38057 0.0247131 0)
(0.407542 0.00940181 0)
(0.182348 0.00299551 0)
(0.192069 -0.0013967 0)
(0.199978 -0.0112688 0)
(0.229587 -0.0313769 0)
(0.272704 -0.0660596 0)
(0.311375 -0.108979 0)
(0.338689 -0.150819 0)
(0.354465 -0.182421 0)
(0.357641 -0.196598 0)
(0.357794 -0.195108 0)
(0.34265 -0.168637 0)
(0.473805 0.00526615 0)
(0.462555 -0.0419973 0)
(0.46617 -0.0838613 0)
(0.473154 -0.123565 0)
(0.473902 -0.157571 0)
(0.466517 -0.180302 0)
(0.447855 -0.186858 0)
(0.430288 -0.180254 0)
(0.393044 -0.152155 0)
(0.592741 0.0241608 0)
(0.584408 -0.0294489 0)
(0.57648 -0.0748699 0)
(0.56602 -0.113063 0)
(0.548164 -0.1418 0)
(0.522925 -0.157774 0)
(0.487858 -0.158887 0)
(0.456783 -0.14875 0)
(0.405374 -0.122993 0)
(0.59711 0.0149929 0)
(0.59914 -0.0289874 0)
(0.591507 -0.0661004 0)
(0.574383 -0.0955245 0)
(0.54682 -0.115328 0)
(0.510971 -0.123441 0)
(0.466984 -0.119861 0)
(0.428085 -0.107824 0)
(0.372404 -0.0875878 0)
(0.540316 0.00194713 0)
(0.54377 -0.0280216 0)
(0.533063 -0.0527081 0)
(0.509652 -0.0705154 0)
(0.474998 -0.0801464 0)
(0.432848 -0.0809993 0)
(0.386279 -0.0746632 0)
(0.345721 -0.0638093 0)
(0.295391 -0.0517272 0)
(0.419155 -0.00733061 0)
(0.415173 -0.0216695 0)
(0.397236 -0.0318276 0)
(0.367999 -0.0371928 0)
(0.330988 -0.0379141 0)
(0.290859 -0.0348419 0)
(0.251609 -0.029825 0)
(0.218853 -0.0243664 0)
(0.182649 -0.0213082 0)
(0.191449 -0.00532701 0)
(0.181379 -0.00782122 0)
(0.164491 -0.0086927 0)
(0.143775 -0.00824233 0)
(0.122051 -0.00701894 0)
(0.101665 -0.00557001 0)
(0.0839772 -0.00441058 0)
(0.0697751 -0.00376912 0)
(0.0531691 -0.00435032 0)
(-0.00178935 0.00179205 0)
(-0.0089882 0.00368298 0)
(-0.0184231 0.00341281 0)
(-0.0242156 0.00204128 0)
(-0.0252886 0.00026941 0)
(-0.0215993 -0.0014795 0)
(-0.013522 -0.00297893 0)
(-0.00595365 -0.00413661 0)
(0.0118094 -0.00472801 0)
(-0.0039325 0.00896211 0)
(-0.0165605 0.0151177 0)
(-0.0309353 0.0124115 0)
(-0.0378024 0.00534835 0)
(-0.0357189 -0.00292861 0)
(-0.0253167 -0.0103556 0)
(-0.00803579 -0.0157265 0)
(0.00934546 -0.0191458 0)
(0.0380343 -0.019988 0)
(-0.00487647 0.0202646 0)
(-0.0195219 0.0310268 0)
(-0.0350106 0.0233294 0)
(-0.0407209 0.00682995 0)
(-0.0352488 -0.0116111 0)
(-0.0196921 -0.0275443 0)
(0.00350487 -0.038087 0)
(0.027538 -0.043424 0)
(0.0633129 -0.0432599 0)
(-0.00553219 0.0326257 0)
(-0.0209344 0.0473989 0)
(-0.0358708 0.0334081 0)
(-0.0394976 0.00601804 0)
(-0.0308078 -0.0239435 0)
(-0.0111576 -0.049418 0)
(0.0164568 -0.0656654 0)
(0.0453629 -0.0725705 0)
(0.086089 -0.0703882 0)
(-0.00590309 0.0454073 0)
(-0.0198725 0.0625168 0)
(-0.0304773 0.0411164 0)
(-0.0291898 0.00198819 0)
(-0.0159361 -0.0402972 0)
(0.0077569 -0.0753496 0)
(0.0384914 -0.0974018 0)
(0.070266 -0.105627 0)
(0.112532 -0.10005 0)
(-0.00492212 0.0566084 0)
(-0.0121086 0.0716057 0)
(-0.0103518 0.0416467 0)
(0.00116997 -0.00871707 0)
(0.0218202 -0.0615957 0)
(0.049582 -0.104532 0)
(0.0810537 -0.131011 0)
(0.112466 -0.139735 0)
(0.150652 -0.12954 0)
(0.00119232 0.066882 0)
(0.00980518 0.0690708 0)
(0.0352302 0.0290025 0)
(0.0633625 -0.0296448 0)
(0.0934597 -0.0883779 0)
(0.123753 -0.134971 0)
(0.152148 -0.162338 0)
(0.178387 -0.169971 0)
(0.205161 -0.154308 0)
(0.0321664 0.0341757 0)
(0.0644803 0.0300735 0)
(0.120074 -0.0111143 0)
(0.16469 -0.0665713 0)
(0.201225 -0.121066 0)
(0.22975 -0.163419 0)
(0.249507 -0.186292 0)
(0.265206 -0.190394 0)
(0.273317 -0.168851 0)
)
;

boundaryField
{
    inlet
    {
        type            fixedValue;
        value           uniform (0.2 0 0);
    }
    outlet
    {
        type            zeroGradient;
    }
    fixedWalls
    {
        type            fixedValue;
        value           uniform (0 0 0);
    }
    frontAndBack
    {
        type            empty;
    }
}


// ************************************************************************* //
