/*--------------------------------*- C++ -*----------------------------------*\
| =========                 |                                                 |
| \\      /  F ield         | OpenFOAM Extend Project: Open source CFD        |
|  \\    /   O peration     | Version:  1.6-ext                               |
|   \\  /    A nd           | Web:      www.extend-project.de                 |
|    \\/     M anipulation  |                                                 |
\*---------------------------------------------------------------------------*/
FoamFile
{
    version     2.0;
    format      ascii;
    class       volScalarField;
    location    "5";
    object      p;
}
// * * * * * * * * * * * * * * * * * * * * * * * * * * * * * * * * * * * * * //

dimensions      [0 2 -2 0 0 0 0];

internalField   nonuniform List<scalar> 
284
(
0.292581
0.261103
0.249634
0.244646
0.24273
0.242684
0.243544
0.24478
0.246787
0.26337
0.254492
0.249139
0.246609
0.245633
0.245642
0.246156
0.246927
0.249074
0.251416
0.248013
0.245451
0.244291
0.244274
0.244988
0.245925
0.246861
0.249793
0.241946
0.240878
0.239838
0.239636
0.240339
0.24164
0.243028
0.244203
0.247887
0.234141
0.233833
0.233434
0.233503
0.234229
0.235434
0.23661
0.237354
0.241174
0.227055
0.226933
0.226606
0.226355
0.226347
0.226464
0.226181
0.224871
0.226693
0.220325
0.220175
0.219576
0.218578
0.217174
0.215098
0.211498
0.204667
0.199338
0.21398
0.213708
0.212625
0.210578
0.207291
0.202155
0.193602
0.179277
0.135285
0.208265
0.207827
0.206131
0.202845
0.197242
0.187706
0.16852
0.13063
0.0378704
0.203549
0.202893
0.200524
0.196114
0.188893
0.177359
0.157284
0.125475
0.072135
0.200295
0.199227
0.196036
0.190648
0.182655
0.171141
0.154171
0.129836
0.0966404
0.199008
0.197063
0.192623
0.186171
0.177663
0.166523
0.15191
0.132039
0.108173
0.201309
0.196792
0.190227
0.182483
0.173477
0.162717
0.149727
0.133009
0.113988
0.207411
0.197607
0.188399
0.179554
0.170412
0.160192
0.148356
0.133747
0.117113
0.235651
0.203766
0.189014
0.179121
0.170204
0.160764
0.14985
0.136302
0.120451
-0.0941685
-0.0589423
0.00315658
-0.0176152
0.0470027
0.0170185
0.0745605
0.04786
0.0903596
0.0678135
0.0978047
0.0778363
0.102055
0.0822791
-0.0464487
-0.0371421
-0.0329771
-0.0311584
-0.0299238
-0.0274124
-0.0227492
-0.0151467
-0.00520816
-0.023229
-0.0233309
-0.0233073
-0.0234539
-0.023012
-0.0209366
-0.0171443
-0.0110275
-0.00424974
0.00262308
-0.00436231
-0.00820622
-0.0107245
-0.0119168
-0.0113236
-0.00947262
-0.00585407
-0.00302467
0.0304167
0.0188411
0.0100793
0.00407334
0.000333474
-0.00139246
-0.00203768
-0.00124414
-0.00204001
0.0493216
0.0348353
0.0236346
0.0153617
0.00951062
0.00569227
0.00300328
0.00158013
-0.00154836
0.0595811
0.0439822
0.0313014
0.0214536
0.0140947
0.0088253
0.00494168
0.00228828
-0.00152184
0.0630717
0.0460969
0.0319364
0.0207211
0.012263
0.00621593
0.00206929
-0.000504358
-0.00299137
-0.021156
-0.0223417
-0.0222402
-0.0211026
-0.0187263
-0.0149933
-0.0102189
-0.00505834
0.00272353
-0.0198567
-0.0210875
-0.0209843
-0.0201557
-0.0183749
-0.0153699
-0.0113242
-0.0066273
0.00161583
-0.0203371
-0.0217336
-0.0218393
-0.0213942
-0.0200824
-0.0174304
-0.0134769
-0.00861458
0.000741785
-0.0224267
-0.0236869
-0.0239912
-0.0239578
-0.0231444
-0.0208182
-0.0167359
-0.0114294
-0.000219348
-0.0261605
-0.0267149
-0.0270212
-0.027286
-0.0268999
-0.0248371
-0.0204798
-0.0144909
-0.000902695
-0.0313716
-0.0301712
-0.0301351
-0.0304625
-0.0303453
-0.0285588
-0.024093
-0.0165969
-0.00326671
-0.0376518
-0.0330169
-0.0324326
-0.0324079
-0.0322745
-0.030535
-0.0259933
-0.017847
-0.00491701
-0.0539865
-0.0366972
-0.0337035
-0.032789
-0.0322773
-0.0302633
-0.025595
-0.0174451
-0.00551994
)
;

boundaryField
{
    inlet
    {
        type            zeroGradient;
    }
    outlet
    {
        type            totalPressure;
        rho             none;
        psi             none;
        gamma           1;
        p0              uniform 0;
        value           nonuniform List<scalar> 
15
(
-0.000176743
-0.000863149
-0.00155545
-0.00235995
0
0
0
0
0
0
0
0
0
0
0
)
;
    }
    fixedWalls
    {
        type            zeroGradient;
    }
    frontAndBack
    {
        type            empty;
    }
}


// ************************************************************************* //
