/*--------------------------------*- C++ -*----------------------------------*\
| =========                 |                                                 |
| \\      /  F ield         | OpenFOAM Extend Project: Open source CFD        |
|  \\    /   O peration     | Version:  1.6-ext                               |
|   \\  /    A nd           | Web:      www.extend-project.de                 |
|    \\/     M anipulation  |                                                 |
\*---------------------------------------------------------------------------*/
FoamFile
{
    version     2.0;
    format      ascii;
    class       surfaceScalarField;
    location    "5";
    object      phi;
}
// * * * * * * * * * * * * * * * * * * * * * * * * * * * * * * * * * * * * * //

dimensions      [0 3 -1 0 0 0 0];

internalField   nonuniform List<scalar> 
525
(
0.000160826
3.91736e-05
0.000117035
4.37912e-05
8.13691e-05
3.56661e-05
5.42028e-05
2.71663e-05
3.41174e-05
2.00854e-05
1.91193e-05
1.49981e-05
7.92262e-06
1.11967e-05
8.95349e-07
7.02727e-06
8.95348e-07
0.000204946
3.42275e-05
0.000190236
5.85015e-05
0.000162073
6.38291e-05
0.000128369
6.08702e-05
9.38623e-05
5.45921e-05
6.13557e-05
4.75047e-05
3.25836e-05
3.99687e-05
1.01363e-05
2.94745e-05
1.10317e-05
0.000208657
2.557e-05
0.000208063
5.90959e-05
0.000194035
7.78571e-05
0.000168197
8.6708e-05
0.000134004
8.87857e-05
9.52255e-05
8.62828e-05
5.54573e-05
7.97369e-05
1.98516e-05
6.50802e-05
3.08833e-05
0.000205061
2.05093e-05
0.000208184
5.59727e-05
0.000202606
8.34347e-05
0.000185807
0.000103507
0.000157632
0.00011696
0.000119559
0.000124356
7.45401e-05
0.000124756
2.89419e-05
0.000110678
5.98252e-05
0.000202386
1.81231e-05
0.000205278
5.30805e-05
0.000203733
8.498e-05
0.000193846
0.000113395
0.000172807
0.000137999
0.000139075
0.000158089
9.28815e-05
0.000170949
3.93073e-05
0.000164253
9.91325e-05
0.00020126
1.68627e-05
0.000203817
5.05238e-05
0.000204727
8.40701e-05
0.00020038
0.000117742
0.000186807
0.000151572
0.000159933
0.000184962
0.000116145
0.000214737
5.56066e-05
0.000224791
0.000154739
0.000201184
1.56791e-05
0.000204443
4.7264e-05
0.000208082
8.04312e-05
0.000209376
0.000116449
0.000204519
0.000156429
0.000188439
0.000201041
0.000152862
0.000250314
8.75089e-05
0.000290144
0.000242248
0.000201722
1.39566e-05
0.000206767
4.22198e-05
0.000214105
7.30929e-05
0.00022199
0.000108563
0.000227559
0.00015086
0.000225917
0.000202683
0.000204426
0.000271806
0.00013865
0.00035592
0.000380898
0.000202632
1.13243e-05
0.000210258
3.45941e-05
0.000222116
6.1235e-05
0.00023758
9.30988e-05
0.000256695
0.000131746
0.000281388
0.00017799
0.000318476
0.000234719
0.000382598
0.000291798
0.000360919
0.000402576
0.000203912
7.41199e-06
0.000214616
2.389e-05
0.000230931
4.49205e-05
0.000252606
7.14237e-05
0.000280996
0.000103356
0.000319533
0.000139453
0.000371953
0.000182298
0.000452957
0.000210794
0.000281678
0.000532199
0.000205976
1.43601e-06
0.000220209
9.65716e-06
0.00024012
2.50094e-05
0.000265154
4.63898e-05
0.000296454
7.20551e-05
0.00033663
9.92773e-05
0.000387801
0.000131127
0.000453971
0.000144624
0.000188225
0.000547425
0.000209407
-7.9712e-06
0.000227314
-8.2498e-06
0.000248868
3.45513e-06
0.000273931
2.13274e-05
0.000303817
4.21692e-05
0.000340561
6.25327e-05
0.000386932
8.47572e-05
0.000439251
9.23041e-05
0.000112263
0.000515213
0.000214485
-2.24566e-05
0.000232306
-2.60701e-05
0.000250103
-1.43422e-05
0.000270002
1.42818e-06
0.000294277
1.78948e-05
0.000324717
3.20921e-05
0.000363855
4.56197e-05
0.000405943
5.02156e-05
5.72998e-05
0.000460906
0.000211666
-3.41223e-05
0.000216795
-3.11994e-05
0.000220602
-1.81493e-05
0.000228164
-6.13333e-06
0.000242573
3.48505e-06
0.000264341
1.03248e-05
0.000294158
1.58022e-05
0.000326951
1.74231e-05
1.88571e-05
0.000365394
0.000165878
0.000134678
0.000116529
0.000110396
0.000113881
0.000124205
0.000140008
0.000157431
0.000176288
0.00024566
0.000156917
5.86422e-05
0.000187017
0.0005081
0.000181015
9.37594e-05
0.000472983
0.000582925
0.000145515
8.73891e-05
0.000589295
0.000565612
9.51165e-05
6.08171e-05
0.000592184
0.000506835
4.91877e-05
3.00704e-05
0.000537582
0.000399405
1.51759e-05
7.4331e-06
0.000422043
0.000191464
0.000198897
0.000190015
6.92246e-06
-9.92012e-06
0.00021825
-1.59514e-05
-1.22832e-05
0.000253108
-3.36923e-05
-1.16625e-06
0.00028869
-5.17189e-05
1.61375e-05
0.000320834
-7.19885e-05
3.98438e-05
0.00034757
-9.47392e-05
6.80033e-05
0.00036716
-0.000115876
9.62862e-05
0.000379551
-0.000135555
0.000123165
-0.000143818
0.000140078
0.000447179
3.27265e-05
0.000438755
-7.52798e-06
0.000442648
-3.75855e-05
0.000453036
-6.21062e-05
0.000464827
-8.378e-05
0.000474182
-0.000104095
0.000478568
-0.000120262
0.000477071
-0.000134058
-0.000134968
0.000584095
3.79265e-05
0.000577046
-4.78372e-07
0.000572598
-3.31378e-05
0.000568992
-5.85005e-05
0.000564494
-7.92819e-05
0.000556851
-9.64518e-05
0.000544953
-0.000108363
0.000527736
-0.000116841
-0.000113279
0.000604494
2.56159e-05
0.000608694
-4.6777e-06
0.000605549
-2.99932e-05
0.000597171
-5.01226e-05
0.000583645
-6.57563e-05
0.00056436
-7.71658e-05
0.000540017
-8.40198e-05
0.000510267
-8.7091e-05
-8.20538e-05
0.000554453
8.74463e-06
0.000559686
-9.91104e-06
0.000554776
-2.50826e-05
0.000541136
-3.6483e-05
0.000519823
-4.44435e-05
0.000491711
-4.90533e-05
0.00045863
-5.09392e-05
0.000421712
-5.0173e-05
-4.7023e-05
0.000432151
-1.36365e-06
0.000430465
-8.22549e-06
0.000418586
-1.32033e-05
0.000398345
-1.62416e-05
0.000371585
-1.76837e-05
0.000340334
-1.78025e-05
0.000306719
-1.7324e-05
0.000272923
-1.63768e-05
-1.66911e-05
0.000197533
0.000189308
0.000176104
0.000159863
0.000142179
0.000124377
0.000107053
9.06758e-05
-2.52532e-06
2.52532e-06
-9.86476e-06
7.33944e-06
-1.90619e-05
9.1971e-06
-2.79801e-05
8.91824e-06
-3.49814e-05
7.00133e-06
-3.84226e-05
3.44117e-06
-3.68255e-05
-1.59708e-06
-2.92783e-05
-7.54723e-06
-1.3449e-05
-8.23637e-06
1.07617e-05
-2.40813e-05
2.31844e-05
-4.17277e-05
2.68435e-05
-5.72741e-05
2.44646e-05
-6.78759e-05
1.76031e-05
-7.12745e-05
6.83979e-06
-6.60244e-05
-6.84716e-06
-5.2287e-05
-2.12847e-05
-3.35213e-05
-1.08425e-05
2.16042e-05
-2.96758e-05
4.20176e-05
-4.93573e-05
4.65251e-05
-6.5493e-05
4.06003e-05
-7.52474e-05
2.73576e-05
-7.67075e-05
8.29992e-06
-6.89721e-05
-1.45826e-05
-5.27037e-05
-3.7553e-05
-5.55829e-05
-1.06493e-05
3.22535e-05
-2.76493e-05
5.90176e-05
-4.42606e-05
6.31364e-05
-5.66967e-05
5.30364e-05
-6.2815e-05
3.34759e-05
-6.14622e-05
6.94715e-06
-5.2258e-05
-2.37868e-05
-3.54122e-05
-5.43988e-05
-7.68085e-05
-8.67544e-06
4.0929e-05
-1.94014e-05
6.97436e-05
-2.80176e-05
7.17525e-05
-3.24149e-05
5.74337e-05
-3.16408e-05
3.27018e-05
-2.54278e-05
7.34093e-07
-1.47217e-05
-3.44928e-05
1.86254e-06
-7.09831e-05
-9.30411e-05
-5.49948e-06
4.64284e-05
-5.2155e-06
6.94596e-05
-6.11583e-07
6.71486e-05
8.02242e-06
4.87997e-05
1.9917e-05
2.08072e-05
3.3985e-05
-1.33339e-05
4.96342e-05
-5.0142e-05
6.54053e-05
-8.67542e-05
-0.000111188
3.19959e-06
4.32288e-05
1.9608e-05
5.30512e-05
4.28458e-05
4.39108e-05
6.80521e-05
2.35934e-05
9.32435e-05
-4.38422e-06
0.00011721
-3.73003e-05
0.000138694
-7.16265e-05
0.000156664
-0.000104723
-0.000127813
3.33087e-05
7.40767e-05
0.000116821
0.000156552
0.000192012
0.000222715
0.000247374
0.000265816
)
;

boundaryField
{
    inlet
    {
        type            calculated;
        value           uniform -0.0002;
    }
    outlet
    {
        type            calculated;
        value           nonuniform List<scalar> 
15
(
-1.58293e-05
-3.22148e-05
-3.06421e-05
-1.41866e-05
1.80951e-05
8.35526e-05
0.000173289
0.000278081
0.000383291
0.00046822
0.000506047
0.000479041
0.000386681
0.000242591
7.39847e-05
)
;
    }
    fixedWalls
    {
        type            calculated;
        value           uniform 0;
    }
    frontAndBack
    {
        type            empty;
    }
}


// ************************************************************************* //
