/*--------------------------------*- C++ -*----------------------------------*\
| =========                 |                                                 |
| \\      /  F ield         | OpenFOAM Extend Project: Open source CFD        |
|  \\    /   O peration     | Version:  1.6-ext                               |
|   \\  /    A nd           | Web:      www.extend-project.de                 |
|    \\/     M anipulation  |                                                 |
\*---------------------------------------------------------------------------*/
FoamFile
{
    version     2.0;
    format      ascii;
    class       volVectorField;
    location    "5";
    object      U;
}
// * * * * * * * * * * * * * * * * * * * * * * * * * * * * * * * * * * * * * //

dimensions      [0 1 -1 0 0 0 0];

internalField   nonuniform List<vector> 
284
(
(0.163781 0.026601 0)
(0.141793 0.0268328 0)
(0.0987171 0.0192598 0)
(0.0662309 0.0122033 0)
(0.043076 0.00724541 0)
(0.0258466 0.00430337 0)
(0.0127714 0.00253649 0)
(0.00282974 0.00089107 0)
(-0.000710397 -0.00119773 0)
(0.200598 0.0433975 0)
(0.202042 0.0577722 0)
(0.179225 0.05361 0)
(0.146238 0.0444954 0)
(0.111131 0.0351944 0)
(0.0771208 0.0276007 0)
(0.0458707 0.0213706 0)
(0.0184495 0.0142532 0)
(0.00295031 0.00337984 0)
(0.203094 0.0291623 0)
(0.210989 0.0599781 0)
(0.204484 0.07294 0)
(0.183897 0.0757415 0)
(0.152978 0.072674 0)
(0.115605 0.0666029 0)
(0.0751105 0.0583705 0)
(0.0343128 0.0450595 0)
(0.00719961 0.0192194 0)
(0.201524 0.0224897 0)
(0.207601 0.0574972 0)
(0.207856 0.0817187 0)
(0.197268 0.096815 0)
(0.174713 0.104454 0)
(0.141137 0.106159 0)
(0.0983319 0.101948 0)
(0.0487223 0.086425 0)
(0.0115741 0.043768 0)
(0.200565 0.0190759 0)
(0.203995 0.0543808 0)
(0.205915 0.0847403 0)
(0.201318 0.109685 0)
(0.18659 0.129007 0)
(0.159609 0.142438 0)
(0.119007 0.148115 0)
(0.064171 0.13631 0)
(0.0173449 0.0777173 0)
(0.200234 0.0174157 0)
(0.202373 0.0517872 0)
(0.204921 0.0849622 0)
(0.204333 0.116666 0)
(0.196568 0.146442 0)
(0.177654 0.173308 0)
(0.142923 0.194075 0)
(0.0862555 0.194196 0)
(0.0276237 0.123679 0)
(0.200218 0.0162871 0)
(0.202442 0.0490858 0)
(0.206383 0.0828565 0)
(0.20979 0.118354 0)
(0.209283 0.15605 0)
(0.20071 0.195706 0)
(0.177908 0.234248 0)
(0.124128 0.252889 0)
(0.0483187 0.196051 0)
(0.200346 0.0148978 0)
(0.203616 0.045127 0)
(0.210106 0.0775898 0)
(0.218435 0.113997 0)
(0.226249 0.156187 0)
(0.230532 0.206291 0)
(0.223637 0.27003 0)
(0.197291 0.33881 0)
(0.060316 0.28572 0)
(0.200547 0.0127771 0)
(0.205486 0.038942 0)
(0.215428 0.0681301 0)
(0.229634 0.102349 0)
(0.247237 0.143737 0)
(0.27101 0.19457 0)
(0.298751 0.261256 0)
(0.356673 0.344948 0)
(0.397265 0.427878 0)
(0.200839 0.00959626 0)
(0.207961 0.0299215 0)
(0.221666 0.0540795 0)
(0.241072 0.0835433 0)
(0.265758 0.119281 0)
(0.300158 0.161376 0)
(0.342099 0.212936 0)
(0.409795 0.255835 0)
(0.490509 0.337785 0)
(0.201383 0.00496355 0)
(0.211548 0.0176231 0)
(0.228959 0.0358118 0)
(0.251768 0.0596169 0)
(0.279579 0.088319 0)
(0.315391 0.119781 0)
(0.359943 0.156937 0)
(0.417337 0.173403 0)
(0.497504 0.228699 0)
(0.202449 -0.0023924 0)
(0.21691 0.00140899 0)
(0.23715 0.0142749 0)
(0.260639 0.0333821 0)
(0.287899 0.0562627 0)
(0.320705 0.0795902 0)
(0.36237 0.106147 0)
(0.410034 0.114852 0)
(0.473959 0.142428 0)
(0.204207 -0.0136868 0)
(0.222716 -0.0174738 0)
(0.240914 -0.00714696 0)
(0.259393 0.00931104 0)
(0.281193 0.0277471 0)
(0.307922 0.044985 0)
(0.343168 0.062616 0)
(0.382927 0.0687695 0)
(0.431457 0.0796475 0)
(0.201748 -0.0351402 0)
(0.215143 -0.0365572 0)
(0.218729 -0.0224447 0)
(0.223232 -0.006779 0)
(0.233984 0.00710518 0)
(0.251788 0.0180201 0)
(0.278176 0.0271912 0)
(0.309263 0.0301892 0)
(0.345401 0.0329981 0)
(0.164653 -0.0248773 0)
(0.151322 -0.0222503 0)
(0.124363 -0.0125464 0)
(0.111359 -0.00481702 0)
(0.110657 0.00047082 0)
(0.117931 0.00379301 0)
(0.131475 0.00594653 0)
(0.148219 0.00625357 0)
(0.166873 0.00616556 0)
(0.351868 0.166308 0)
(0.182016 0.0444692 0)
(0.54195 0.178566 0)
(0.4948 0.0834248 0)
(0.574999 0.168384 0)
(0.595125 0.101857 0)
(0.543632 0.11912 0)
(0.584964 0.0770066 0)
(0.484873 0.0685601 0)
(0.525588 0.0437426 0)
(0.383194 0.0271057 0)
(0.41306 0.0143751 0)
(0.184662 0.00384878 0)
(0.196604 -2.29304e-05 0)
(0.182086 -0.00523497 0)
(0.199908 -0.0138083 0)
(0.233795 -0.0243013 0)
(0.270505 -0.0398948 0)
(0.304828 -0.0604703 0)
(0.33595 -0.0849591 0)
(0.358377 -0.109004 0)
(0.377053 -0.131864 0)
(0.383734 -0.144571 0)
(0.459546 0.021067 0)
(0.440009 -0.0156972 0)
(0.43774 -0.0412179 0)
(0.446552 -0.0625946 0)
(0.458268 -0.0830001 0)
(0.471445 -0.103865 0)
(0.476286 -0.121884 0)
(0.483043 -0.138324 0)
(0.469719 -0.142673 0)
(0.591156 0.0450554 0)
(0.581627 0.00115717 0)
(0.574321 -0.0324565 0)
(0.570847 -0.0595168 0)
(0.566602 -0.0822126 0)
(0.563141 -0.101952 0)
(0.55002 -0.116523 0)
(0.54292 -0.128163 0)
(0.508614 -0.12681 0)
(0.603084 0.034622 0)
(0.609118 -0.00158178 0)
(0.608504 -0.0307869 0)
(0.603144 -0.0544202 0)
(0.591518 -0.0735104 0)
(0.57695 -0.0884883 0)
(0.551395 -0.0982933 0)
(0.532038 -0.104299 0)
(0.482688 -0.0995324 0)
(0.54962 0.0163941 0)
(0.560122 -0.00790924 0)
(0.559727 -0.0283289 0)
(0.550439 -0.044533 0)
(0.532334 -0.0567211 0)
(0.508418 -0.0648132 0)
(0.474883 -0.0690313 0)
(0.445591 -0.0695322 0)
(0.391095 -0.0646018 0)
(0.429913 0.000351955 0)
(0.434072 -0.0117627 0)
(0.426975 -0.0210379 0)
(0.410632 -0.0272868 0)
(0.386566 -0.0308498 0)
(0.357449 -0.0319578 0)
(0.323434 -0.0315459 0)
(0.292498 -0.0297052 0)
(0.247005 -0.0286165 0)
(0.19974 -0.00352673 0)
(0.194772 -0.0059459 0)
(0.183719 -0.00715818 0)
(0.168679 -0.00734634 0)
(0.151386 -0.00686069 0)
(0.133455 -0.00601264 0)
(0.115619 -0.00532955 0)
(0.0997184 -0.00498456 0)
(0.0772148 -0.00602431 0)
(-0.000398064 0.000237811 0)
(-0.00514906 0.00218114 0)
(-0.0143915 0.00313585 0)
(-0.0239011 0.0033345 0)
(-0.0321582 0.00293767 0)
(-0.0375092 0.00182757 0)
(-0.0387587 -4.54242e-05 0)
(-0.0362759 -0.00262526 0)
(-0.0179949 -0.00557768 0)
(-0.00276176 0.00537353 0)
(-0.0145753 0.0134263 0)
(-0.0330828 0.0163167 0)
(-0.0506308 0.0155008 0)
(-0.0642212 0.0118364 0)
(-0.0712813 0.00545183 0)
(-0.0706853 -0.00321155 0)
(-0.0635205 -0.0129916 0)
(-0.0352455 -0.0220815 0)
(-0.00397848 0.016 0)
(-0.0186992 0.0324434 0)
(-0.0400435 0.036726 0)
(-0.059032 0.0327845 0)
(-0.0724591 0.0228707 0)
(-0.0779341 0.00800194 0)
(-0.074865 -0.0103896 0)
(-0.0655833 -0.0292068 0)
(-0.0336833 -0.0444994 0)
(-0.00415534 0.0272292 0)
(-0.0180209 0.0513252 0)
(-0.0367642 0.0558919 0)
(-0.0522362 0.0478957 0)
(-0.0618685 0.0313177 0)
(-0.0639491 0.00821986 0)
(-0.058303 -0.0192064 0)
(-0.0488642 -0.046466 0)
(-0.016402 -0.066716 0)
(-0.0039025 0.0371097 0)
(-0.0138805 0.0660515 0)
(-0.0247557 0.069603 0)
(-0.0318381 0.0573466 0)
(-0.0338071 0.0348664 0)
(-0.0299329 0.00532164 0)
(-0.0204224 -0.0288647 0)
(-0.0108018 -0.0631989 0)
(0.0158864 -0.08539 0)
(-0.00348279 0.0443834 0)
(-0.00682416 0.0724475 0)
(-0.0039761 0.0730009 0)
(0.00260773 0.0565206 0)
(0.0128811 0.029589 0)
(0.0262151 -0.00401252 0)
(0.0416082 -0.0413128 0)
(0.0558308 -0.0789282 0)
(0.0803701 -0.102699 0)
(0.000127835 0.0520289 0)
(0.00738382 0.0677006 0)
(0.0303196 0.0609824 0)
(0.0546896 0.0406819 0)
(0.0800982 0.0116594 0)
(0.105267 -0.022981 0)
(0.128438 -0.0595879 0)
(0.147939 -0.0954408 0)
(0.170824 -0.120252 0)
(0.0256226 0.0268701 0)
(0.0475442 0.036005 0)
(0.0951808 0.0260279 0)
(0.13678 0.00608429 0)
(0.174445 -0.0206897 0)
(0.208409 -0.0520333 0)
(0.236217 -0.0839256 0)
(0.258618 -0.114355 0)
(0.277082 -0.135277 0)
)
;

boundaryField
{
    inlet
    {
        type            fixedValue;
        value           uniform (0.2 0 0);
    }
    outlet
    {
        type            zeroGradient;
    }
    fixedWalls
    {
        type            fixedValue;
        value           uniform (0 0 0);
    }
    frontAndBack
    {
        type            empty;
    }
}


// ************************************************************************* //
