/*--------------------------------*- C++ -*----------------------------------*\
| =========                 |                                                 |
| \\      /  F ield         | OpenFOAM Extend Project: Open source CFD        |
|  \\    /   O peration     | Version:  1.6-ext                               |
|   \\  /    A nd           | Web:      www.extend-project.de                 |
|    \\/     M anipulation  |                                                 |
\*---------------------------------------------------------------------------*/
FoamFile
{
    version     2.0;
    format      ascii;
    class       surfaceScalarField;
    location    "3.5";
    object      phi;
}
// * * * * * * * * * * * * * * * * * * * * * * * * * * * * * * * * * * * * * //

dimensions      [0 3 -1 0 0 0 0];

internalField   nonuniform List<scalar> 
127
(
0.000160821
3.91793e-05
0.000117041
4.37796e-05
8.1415e-05
3.56262e-05
5.4315e-05
2.70999e-05
3.43058e-05
2.00092e-05
1.93513e-05
1.49545e-05
8.10567e-06
1.12457e-05
9.50151e-07
7.15552e-06
9.5015e-07
0.000204951
3.42282e-05
0.0001903
5.84303e-05
0.00016228
6.36468e-05
0.000128788
6.05916e-05
9.45033e-05
5.42939e-05
6.2111e-05
4.73468e-05
3.32137e-05
4.01429e-05
1.04138e-05
2.99554e-05
1.13639e-05
0.000208661
2.55676e-05
0.000208129
5.89622e-05
0.000194268
7.75077e-05
0.000168695
8.61647e-05
0.000134792
8.81963e-05
9.61864e-05
8.59527e-05
5.62967e-05
8.00326e-05
2.02548e-05
6.59973e-05
3.16188e-05
0.000205057
2.05106e-05
0.000208225
5.57942e-05
0.000202785
8.29479e-05
0.000186207
0.000102743
0.00015828
0.000116123
0.000120373
0.00012386
7.5284e-05
0.000125122
2.93215e-05
0.00011196
6.09403e-05
0.000202379
1.81315e-05
0.000205302
5.28712e-05
0.000203858
8.43918e-05
0.000194119
0.000112482
0.000173226
0.000137016
0.000139598
0.000157489
9.3386e-05
0.000171333
3.95901e-05
0.000165756
0.00010053
0.000201253
1.68781e-05
0.000203838
5.02862e-05
0.000204838
8.33926e-05
0.000200598
0.000116722
0.000187087
0.000150526
0.000160239
0.000184338
0.000116464
0.000215108
5.58484e-05
0.000226371
0.000156379
0.000201179
1.56995e-05
0.000204471
4.6994e-05
0.00020821
7.96534e-05
0.00020963
0.000115301
0.000204837
0.00015532
0.000188767
0.000200407
0.000153246
0.000250629
8.7974e-05
0.000291643
0.000244353
0.00020172
0.0002068
0.000214254
0.000222324
0.000228049
0.000226468
0.00020501
0.000139221
)
;

boundaryField
{
    inlet
    {
        type            calculated;
        value           nonuniform List<scalar> 8(-0.0002 -0.0002 -0.0002 -0.0002 -0.0002 -0.0002 -0.0002 -0.0002);
    }
    outlet
    {
        type            calculated;
        value           nonuniform 0();
    }
    fixedWalls
    {
        type            calculated;
        value           uniform 0;
    }
    frontAndBack
    {
        type            empty;
    }
    procBoundary3to2
    {
        type            processor;
        value           nonuniform List<scalar> 9(1.3979e-05 4.19144e-05 7.2199e-05 0.000107232 0.000149595 0.000201988 0.000272087 0.000357433 0.000383574);
    }
}


// ************************************************************************* //
