/*--------------------------------*- C++ -*----------------------------------*\
| =========                 |                                                 |
| \\      /  F ield         | OpenFOAM Extend Project: Open source CFD        |
|  \\    /   O peration     | Version:  1.6-ext                               |
|   \\  /    A nd           | Web:      www.extend-project.de                 |
|    \\/     M anipulation  |                                                 |
\*---------------------------------------------------------------------------*/
FoamFile
{
    version     2.0;
    format      ascii;
    class       surfaceScalarField;
    location    "1.1";
    object      phi;
}
// * * * * * * * * * * * * * * * * * * * * * * * * * * * * * * * * * * * * * //

dimensions      [0 3 -1 0 0 0 0];

internalField   nonuniform List<scalar> 
127
(
0.000161241
3.8759e-05
0.000118942
4.22987e-05
8.57628e-05
3.31795e-05
6.14149e-05
2.43479e-05
4.31546e-05
1.82604e-05
2.7983e-05
1.51715e-05
1.43021e-05
1.3681e-05
3.33189e-06
1.09702e-05
3.33189e-06
0.000205269
3.34897e-05
0.000191509
5.60593e-05
0.000165611
5.90772e-05
0.000135488
5.44704e-05
0.000104556
4.91928e-05
7.3503e-05
4.62246e-05
4.25437e-05
4.46402e-05
1.47264e-05
3.87875e-05
1.80583e-05
0.000208614
2.48753e-05
0.000206727
5.79467e-05
0.000191301
7.45035e-05
0.000165812
7.99594e-05
0.000134074
8.09308e-05
9.82135e-05
8.20847e-05
5.95453e-05
8.33084e-05
2.22572e-05
7.60756e-05
4.03155e-05
0.000204865
2.00099e-05
0.000205305
5.75068e-05
0.000195254
8.45553e-05
0.000175
0.000100213
0.000146575
0.000109355
0.000111403
0.000117257
7.03921e-05
0.00012432
2.77353e-05
0.000118732
6.80507e-05
0.000202269
1.77405e-05
0.000202399
5.7377e-05
0.000195308
9.16461e-05
0.000179658
0.000115863
0.000155753
0.00013326
0.000123608
0.000149403
8.25949e-05
0.000165333
3.52109e-05
0.000166116
0.000103262
0.000201315
1.6426e-05
0.000201876
5.68156e-05
0.000197831
9.56909e-05
0.00018718
0.000126514
0.000168983
0.000151457
0.000141813
0.000176572
0.000102675
0.000204471
4.97536e-05
0.000219037
0.000153015
0.000201423
1.50027e-05
0.000203765
5.44735e-05
0.000203957
9.54993e-05
0.000199742
0.000130729
0.000189549
0.00016165
0.000171353
0.000194769
0.000138866
0.000236958
8.11598e-05
0.000276743
0.000234175
0.000202101
0.000207288
0.000212988
0.000216934
0.000217373
0.000212072
0.000191192
0.000133417
)
;

boundaryField
{
    inlet
    {
        type            calculated;
        value           nonuniform List<scalar> 8(-0.0002 -0.0002 -0.0002 -0.0002 -0.0002 -0.0002 -0.0002 -0.0002);
    }
    outlet
    {
        type            calculated;
        value           nonuniform 0();
    }
    fixedWalls
    {
        type            calculated;
        value           uniform 0;
    }
    frontAndBack
    {
        type            empty;
    }
    procBoundary3to2
    {
        type            processor;
        value           nonuniform List<scalar> 9(1.29017e-05 4.92863e-05 8.97992e-05 0.000126783 0.000161211 0.00020007 0.000257838 0.000334518 0.000367592);
    }
}


// ************************************************************************* //
