/*--------------------------------*- C++ -*----------------------------------*\
| =========                 |                                                 |
| \\      /  F ield         | OpenFOAM Extend Project: Open source CFD        |
|  \\    /   O peration     | Version:  1.6-ext                               |
|   \\  /    A nd           | Web:      www.extend-project.de                 |
|    \\/     M anipulation  |                                                 |
\*---------------------------------------------------------------------------*/
FoamFile
{
    version     2.0;
    format      ascii;
    class       vectorField;
    location    "1.2";
    object      accumulatedFluidInterfaceDisplacement;
}
// * * * * * * * * * * * * * * * * * * * * * * * * * * * * * * * * * * * * * //


338
(
(7.05517e-07 3.8787e-07 -3.36525e-27)
(6.74741e-07 5.73727e-07 -1.03697e-27)
(2.1089e-06 -2.15889e-05 -3.29967e-26)
(1.94449e-06 -2.11066e-05 3.33111e-26)
(1.93575e-06 -2.04606e-05 7.48249e-26)
(1.92804e-06 -1.98116e-05 -4.05638e-26)
(1.9219e-06 -1.91625e-05 -6.31756e-26)
(1.91713e-06 -1.85155e-05 3.07676e-26)
(1.91355e-06 -1.78725e-05 2.30954e-26)
(1.91094e-06 -1.72349e-05 2.79837e-26)
(1.90912e-06 -1.66038e-05 4.69651e-26)
(1.90791e-06 -1.59804e-05 -6.82206e-27)
(1.90717e-06 -1.53657e-05 4.58839e-27)
(1.90676e-06 -1.47606e-05 -5.3966e-28)
(1.90655e-06 -1.4166e-05 -6.90352e-27)
(1.90639e-06 -1.35826e-05 4.15329e-27)
(1.9061e-06 -1.30113e-05 3.15777e-26)
(1.90553e-06 -1.24527e-05 1.64203e-26)
(1.90446e-06 -1.19072e-05 -2.81453e-26)
(1.9027e-06 -1.13753e-05 2.28979e-26)
(1.90003e-06 -1.08572e-05 7.45134e-27)
(1.89622e-06 -1.03532e-05 -2.27748e-26)
(1.89107e-06 -9.86328e-06 7.38005e-28)
(1.88436e-06 -9.38733e-06 1.4699e-26)
(1.8759e-06 -8.92518e-06 4.32943e-26)
(1.86553e-06 -8.47652e-06 1.8391e-26)
(1.8531e-06 -8.04094e-06 -1.80094e-26)
(1.83851e-06 -7.61797e-06 -3.70623e-27)
(1.82167e-06 -7.20708e-06 3.11552e-26)
(1.80255e-06 -6.80769e-06 9.43864e-27)
(1.78115e-06 -6.41919e-06 -1.60685e-26)
(1.7575e-06 -6.041e-06 -5.66029e-27)
(1.73168e-06 -5.67254e-06 -7.78915e-27)
(1.70381e-06 -5.31329e-06 7.71649e-28)
(1.67402e-06 -4.96276e-06 1.24908e-26)
(1.64249e-06 -4.62057e-06 -3.88002e-27)
(1.60943e-06 -4.28642e-06 -2.38257e-28)
(1.57505e-06 -3.9601e-06 2.36629e-28)
(1.53958e-06 -3.64153e-06 -1.10025e-27)
(1.50326e-06 -3.33075e-06 1.16261e-26)
(1.46633e-06 -3.02789e-06 -1.36452e-27)
(1.42904e-06 -2.73324e-06 -4.16739e-29)
(1.39159e-06 -2.44715e-06 6.98125e-27)
(1.3542e-06 -2.17013e-06 8.83846e-27)
(1.31705e-06 -1.90274e-06 6.79892e-27)
(1.28027e-06 -1.64563e-06 -7.64835e-27)
(1.244e-06 -1.39951e-06 -1.11344e-26)
(1.20831e-06 -1.16513e-06 2.20837e-27)
(1.17323e-06 -9.43251e-07 -4.18133e-27)
(1.13876e-06 -7.34635e-07 -4.79009e-27)
(1.10485e-06 -5.40009e-07 6.46184e-27)
(1.0714e-06 -3.6005e-07 3.6178e-27)
(1.03828e-06 -1.95356e-07 1.55163e-27)
(1.0053e-06 -4.64261e-08 2.87196e-27)
(9.72263e-07 8.63636e-08 4.10323e-28)
(9.38913e-07 2.02776e-07 1.74832e-27)
(9.04982e-07 3.02732e-07 2.37898e-28)
(8.70185e-07 3.86317e-07 -2.00956e-27)
(8.34229e-07 4.53793e-07 7.61922e-27)
(7.96822e-07 5.056e-07 1.47336e-27)
(7.57688e-07 5.42343e-07 -9.9886e-27)
(7.16578e-07 5.64785e-07 -3.82864e-27)
(3.21308e-06 -2.17504e-05 -2.06447e-27)
(2.58413e-06 -2.17503e-05 -2.90959e-27)
(4.3148e-06 -2.15854e-05 -3.51661e-26)
(3.84146e-06 -2.1748e-05 9.55089e-27)
(7.95503e-07 3.79947e-07 -1.33859e-26)
(8.89981e-07 3.58663e-07 -3.29902e-27)
(9.85687e-07 3.23186e-07 1.62327e-26)
(1.08232e-06 2.72752e-07 -7.57726e-27)
(1.17954e-06 2.06754e-07 -1.55451e-26)
(1.277e-06 1.2475e-07 -1.32938e-26)
(1.37435e-06 2.64768e-08 1.06643e-26)
(1.47125e-06 -8.81573e-08 1.83108e-26)
(1.56737e-06 -2.19075e-07 -9.04967e-27)
(1.66239e-06 -3.66042e-07 -3.35061e-27)
(1.75606e-06 -5.28686e-07 -5.49666e-27)
(1.84811e-06 -7.06512e-07 -1.09417e-26)
(1.93836e-06 -8.98924e-07 1.84736e-27)
(2.02664e-06 -1.10525e-06 -1.38673e-28)
(2.11285e-06 -1.32476e-06 -5.45025e-27)
(2.1969e-06 -1.5567e-06 2.09686e-27)
(2.27878e-06 -1.80031e-06 3.70951e-27)
(2.35849e-06 -2.05485e-06 -4.02928e-27)
(2.43609e-06 -2.31959e-06 1.93299e-27)
(2.51167e-06 -2.5939e-06 7.03021e-27)
(2.58534e-06 -2.8772e-06 8.12873e-27)
(2.65726e-06 -3.16902e-06 7.75537e-27)
(2.72759e-06 -3.46896e-06 2.7659e-27)
(2.7965e-06 -3.77678e-06 8.42025e-28)
(2.86418e-06 -4.0923e-06 -1.80534e-27)
(2.93083e-06 -4.41552e-06 -7.96271e-27)
(2.99661e-06 -4.7465e-06 -1.70739e-27)
(3.06172e-06 -5.08546e-06 -4.06108e-27)
(3.12629e-06 -5.43269e-06 -7.23176e-27)
(3.19045e-06 -5.78858e-06 1.14657e-26)
(3.25432e-06 -6.15362e-06 1.1264e-26)
(3.31797e-06 -6.52832e-06 -1.43679e-26)
(3.38142e-06 -6.91326e-06 -1.25917e-27)
(3.44469e-06 -7.30905e-06 2.12999e-26)
(3.50773e-06 -7.71628e-06 1.64072e-26)
(3.57048e-06 -8.13552e-06 1.24799e-26)
(3.63281e-06 -8.56732e-06 1.86995e-26)
(3.69459e-06 -9.01215e-06 -2.41861e-27)
(3.75565e-06 -9.47043e-06 -1.60112e-26)
(3.81577e-06 -9.94244e-06 6.27733e-27)
(3.87473e-06 -1.04284e-05 2.29825e-27)
(3.93231e-06 -1.09284e-05 -5.36515e-27)
(3.98823e-06 -1.14424e-05 -1.82231e-26)
(4.04226e-06 -1.19702e-05 1.81458e-26)
(4.09415e-06 -1.25116e-05 2.86366e-26)
(4.14364e-06 -1.30661e-05 -5.79106e-26)
(4.1905e-06 -1.36332e-05 -4.34186e-26)
(4.23453e-06 -1.42123e-05 1.57773e-26)
(4.27551e-06 -1.48027e-05 2.55245e-26)
(4.31325e-06 -1.54035e-05 3.78821e-26)
(4.34758e-06 -1.60139e-05 -9.10506e-27)
(4.3783e-06 -1.66329e-05 -1.8693e-26)
(4.40521e-06 -1.72596e-05 -3.75729e-27)
(4.4281e-06 -1.78929e-05 -5.50588e-27)
(4.44671e-06 -1.85314e-05 -1.25995e-26)
(4.46077e-06 -1.91738e-05 2.11226e-27)
(4.47002e-06 -1.98183e-05 1.11301e-26)
(4.47436e-06 -2.04628e-05 3.35488e-26)
(4.47436e-06 -2.11047e-05 -8.50185e-28)
(-3.5362e-09 -4.43988e-09 -1.01005e-26)
(-4.41326e-09 -3.10858e-09 2.59143e-26)
(-5.13985e-09 1.17002e-09 2.90465e-26)
(-3.34951e-09 8.88547e-09 -5.01715e-26)
(1.58076e-09 1.99357e-08 -2.98234e-26)
(9.74726e-09 3.38753e-08 5.50734e-26)
(2.1084e-08 5.03731e-08 3.88572e-26)
(3.55788e-08 6.90849e-08 1.62098e-26)
(5.3235e-08 8.97084e-08 -8.68779e-27)
(7.4089e-08 1.11956e-07 -2.39934e-26)
(9.81978e-08 1.3556e-07 -1.86534e-26)
(1.25643e-07 1.60262e-07 -3.2448e-27)
(1.5653e-07 1.85805e-07 1.37658e-26)
(1.90994e-07 2.11918e-07 2.71904e-27)
(2.29202e-07 2.38302e-07 -1.0156e-26)
(2.71357e-07 2.64603e-07 -1.44603e-26)
(3.17709e-07 2.90385e-07 7.15429e-27)
(3.68549e-07 3.15089e-07 8.00808e-27)
(4.24225e-07 3.37991e-07 -8.67726e-27)
(4.85132e-07 3.58144e-07 -1.4556e-26)
(5.5172e-07 3.74317e-07 1.62777e-26)
(6.24481e-07 3.84914e-07 1.45475e-26)
(1.20361e-07 5.96699e-08 2.13914e-25)
(6.34458e-07 5.7162e-07 -4.3857e-27)
(5.95864e-07 5.61732e-07 -1.1252e-26)
(5.58303e-07 5.46171e-07 -2.88925e-27)
(5.21844e-07 5.26557e-07 -4.32856e-27)
(4.86535e-07 5.04146e-07 5.90925e-27)
(4.52397e-07 4.79906e-07 1.33827e-26)
(4.19423e-07 4.54577e-07 -6.87323e-27)
(3.87593e-07 4.28721e-07 9.115e-27)
(3.56873e-07 4.02758e-07 1.23396e-27)
(3.27234e-07 3.76989e-07 -1.92755e-26)
(2.98657e-07 3.51618e-07 1.5e-27)
(2.71151e-07 3.26754e-07 2.58786e-26)
(2.44764e-07 3.02415e-07 -1.58583e-26)
(2.19605e-07 2.78516e-07 1.90521e-26)
(1.95881e-07 2.54855e-07 4.34114e-26)
(1.73936e-07 2.31069e-07 -5.8747e-26)
(1.54333e-07 2.06612e-07 -1.50409e-26)
(1.37892e-07 1.80626e-07 3.00861e-26)
(1.25857e-07 1.5202e-07 2.09648e-26)
(1.1946e-07 1.19045e-07 -6.26032e-26)
(1.19072e-07 8.04187e-08 1.77727e-26)
(7.05517e-07 3.8787e-07 -3.36525e-27)
(6.74741e-07 5.73727e-07 -1.03697e-27)
(2.1089e-06 -2.15889e-05 -3.29967e-26)
(1.94449e-06 -2.11066e-05 3.33111e-26)
(1.93575e-06 -2.04606e-05 7.48249e-26)
(1.92804e-06 -1.98116e-05 -4.05638e-26)
(1.9219e-06 -1.91625e-05 -6.31756e-26)
(1.91713e-06 -1.85155e-05 3.07676e-26)
(1.91355e-06 -1.78725e-05 2.30954e-26)
(1.91094e-06 -1.72349e-05 2.79837e-26)
(1.90912e-06 -1.66038e-05 4.69651e-26)
(1.90791e-06 -1.59804e-05 -6.82206e-27)
(1.90717e-06 -1.53657e-05 4.58839e-27)
(1.90676e-06 -1.47606e-05 -5.3966e-28)
(1.90655e-06 -1.4166e-05 -6.90352e-27)
(1.90639e-06 -1.35826e-05 4.15329e-27)
(1.9061e-06 -1.30113e-05 3.15777e-26)
(1.90553e-06 -1.24527e-05 1.64203e-26)
(1.90446e-06 -1.19072e-05 -2.81453e-26)
(1.9027e-06 -1.13753e-05 2.28979e-26)
(1.90003e-06 -1.08572e-05 7.45134e-27)
(1.89622e-06 -1.03532e-05 -2.27748e-26)
(1.89107e-06 -9.86328e-06 7.38005e-28)
(1.88436e-06 -9.38733e-06 1.4699e-26)
(1.8759e-06 -8.92518e-06 4.32943e-26)
(1.86553e-06 -8.47652e-06 1.8391e-26)
(1.8531e-06 -8.04094e-06 -1.80094e-26)
(1.83851e-06 -7.61797e-06 -3.70623e-27)
(1.82167e-06 -7.20708e-06 3.11552e-26)
(1.80255e-06 -6.80769e-06 9.43864e-27)
(1.78115e-06 -6.41919e-06 -1.60685e-26)
(1.7575e-06 -6.041e-06 -5.66029e-27)
(1.73168e-06 -5.67254e-06 -7.78915e-27)
(1.70381e-06 -5.31329e-06 7.71649e-28)
(1.67402e-06 -4.96276e-06 1.24908e-26)
(1.64249e-06 -4.62057e-06 -3.88002e-27)
(1.60943e-06 -4.28642e-06 -2.38257e-28)
(1.57505e-06 -3.9601e-06 2.36629e-28)
(1.53958e-06 -3.64153e-06 -1.10025e-27)
(1.50326e-06 -3.33075e-06 1.16261e-26)
(1.46633e-06 -3.02789e-06 -1.36452e-27)
(1.42904e-06 -2.73324e-06 -4.16739e-29)
(1.39159e-06 -2.44715e-06 6.98125e-27)
(1.3542e-06 -2.17013e-06 8.83846e-27)
(1.31705e-06 -1.90274e-06 6.79892e-27)
(1.28027e-06 -1.64563e-06 -7.64835e-27)
(1.244e-06 -1.39951e-06 -1.11344e-26)
(1.20831e-06 -1.16513e-06 2.20837e-27)
(1.17323e-06 -9.43251e-07 -4.18133e-27)
(1.13876e-06 -7.34635e-07 -4.79009e-27)
(1.10485e-06 -5.40009e-07 6.46184e-27)
(1.0714e-06 -3.6005e-07 3.6178e-27)
(1.03828e-06 -1.95356e-07 1.55163e-27)
(1.0053e-06 -4.64261e-08 2.87196e-27)
(9.72263e-07 8.63636e-08 4.10323e-28)
(9.38913e-07 2.02776e-07 1.74832e-27)
(9.04982e-07 3.02732e-07 2.37898e-28)
(8.70185e-07 3.86317e-07 -2.00956e-27)
(8.34229e-07 4.53793e-07 7.61922e-27)
(7.96822e-07 5.056e-07 1.47336e-27)
(7.57688e-07 5.42343e-07 -9.9886e-27)
(7.16578e-07 5.64785e-07 -3.82864e-27)
(3.21308e-06 -2.17504e-05 -2.06447e-27)
(2.58413e-06 -2.17503e-05 -2.90959e-27)
(4.3148e-06 -2.15854e-05 -3.51661e-26)
(3.84146e-06 -2.1748e-05 9.55089e-27)
(7.95503e-07 3.79947e-07 -1.33859e-26)
(8.89981e-07 3.58663e-07 -3.29902e-27)
(9.85687e-07 3.23186e-07 1.62327e-26)
(1.08232e-06 2.72752e-07 -7.57726e-27)
(1.17954e-06 2.06754e-07 -1.55451e-26)
(1.277e-06 1.2475e-07 -1.32938e-26)
(1.37435e-06 2.64768e-08 1.06643e-26)
(1.47125e-06 -8.81573e-08 1.83108e-26)
(1.56737e-06 -2.19075e-07 -9.04967e-27)
(1.66239e-06 -3.66042e-07 -3.35061e-27)
(1.75606e-06 -5.28686e-07 -5.49666e-27)
(1.84811e-06 -7.06512e-07 -1.09417e-26)
(1.93836e-06 -8.98924e-07 1.84736e-27)
(2.02664e-06 -1.10525e-06 -1.38673e-28)
(2.11285e-06 -1.32476e-06 -5.45025e-27)
(2.1969e-06 -1.5567e-06 2.09686e-27)
(2.27878e-06 -1.80031e-06 3.70951e-27)
(2.35849e-06 -2.05485e-06 -4.02928e-27)
(2.43609e-06 -2.31959e-06 1.93299e-27)
(2.51167e-06 -2.5939e-06 7.03021e-27)
(2.58534e-06 -2.8772e-06 8.12873e-27)
(2.65726e-06 -3.16902e-06 7.75537e-27)
(2.72759e-06 -3.46896e-06 2.7659e-27)
(2.7965e-06 -3.77678e-06 8.42025e-28)
(2.86418e-06 -4.0923e-06 -1.80534e-27)
(2.93083e-06 -4.41552e-06 -7.96271e-27)
(2.99661e-06 -4.7465e-06 -1.70739e-27)
(3.06172e-06 -5.08546e-06 -4.06108e-27)
(3.12629e-06 -5.43269e-06 -7.23176e-27)
(3.19045e-06 -5.78858e-06 1.14657e-26)
(3.25432e-06 -6.15362e-06 1.1264e-26)
(3.31797e-06 -6.52832e-06 -1.43679e-26)
(3.38142e-06 -6.91326e-06 -1.25917e-27)
(3.44469e-06 -7.30905e-06 2.12999e-26)
(3.50773e-06 -7.71628e-06 1.64072e-26)
(3.57048e-06 -8.13552e-06 1.24799e-26)
(3.63281e-06 -8.56732e-06 1.86995e-26)
(3.69459e-06 -9.01215e-06 -2.41861e-27)
(3.75565e-06 -9.47043e-06 -1.60112e-26)
(3.81577e-06 -9.94244e-06 6.27733e-27)
(3.87473e-06 -1.04284e-05 2.29825e-27)
(3.93231e-06 -1.09284e-05 -5.36515e-27)
(3.98823e-06 -1.14424e-05 -1.82231e-26)
(4.04226e-06 -1.19702e-05 1.81458e-26)
(4.09415e-06 -1.25116e-05 2.86366e-26)
(4.14364e-06 -1.30661e-05 -5.79106e-26)
(4.1905e-06 -1.36332e-05 -4.34186e-26)
(4.23453e-06 -1.42123e-05 1.57773e-26)
(4.27551e-06 -1.48027e-05 2.55245e-26)
(4.31325e-06 -1.54035e-05 3.78821e-26)
(4.34758e-06 -1.60139e-05 -9.10506e-27)
(4.3783e-06 -1.66329e-05 -1.8693e-26)
(4.40521e-06 -1.72596e-05 -3.75729e-27)
(4.4281e-06 -1.78929e-05 -5.50588e-27)
(4.44671e-06 -1.85314e-05 -1.25995e-26)
(4.46077e-06 -1.91738e-05 2.11226e-27)
(4.47002e-06 -1.98183e-05 1.11301e-26)
(4.47436e-06 -2.04628e-05 3.35488e-26)
(4.47436e-06 -2.11047e-05 -8.50185e-28)
(-3.5362e-09 -4.43988e-09 -1.01005e-26)
(-4.41326e-09 -3.10858e-09 2.59143e-26)
(-5.13985e-09 1.17002e-09 2.90465e-26)
(-3.34951e-09 8.88547e-09 -5.01715e-26)
(1.58076e-09 1.99357e-08 -2.98234e-26)
(9.74726e-09 3.38753e-08 5.50734e-26)
(2.1084e-08 5.03731e-08 3.88572e-26)
(3.55788e-08 6.90849e-08 1.62098e-26)
(5.3235e-08 8.97084e-08 -8.68779e-27)
(7.4089e-08 1.11956e-07 -2.39934e-26)
(9.81978e-08 1.3556e-07 -1.86534e-26)
(1.25643e-07 1.60262e-07 -3.2448e-27)
(1.5653e-07 1.85805e-07 1.37658e-26)
(1.90994e-07 2.11918e-07 2.71904e-27)
(2.29202e-07 2.38302e-07 -1.0156e-26)
(2.71357e-07 2.64603e-07 -1.44603e-26)
(3.17709e-07 2.90385e-07 7.15429e-27)
(3.68549e-07 3.15089e-07 8.00808e-27)
(4.24225e-07 3.37991e-07 -8.67726e-27)
(4.85132e-07 3.58144e-07 -1.4556e-26)
(5.5172e-07 3.74317e-07 1.62777e-26)
(6.24481e-07 3.84914e-07 1.45475e-26)
(1.20361e-07 5.96699e-08 2.13914e-25)
(6.34458e-07 5.7162e-07 -4.3857e-27)
(5.95864e-07 5.61732e-07 -1.1252e-26)
(5.58303e-07 5.46171e-07 -2.88925e-27)
(5.21844e-07 5.26557e-07 -4.32856e-27)
(4.86535e-07 5.04146e-07 5.90925e-27)
(4.52397e-07 4.79906e-07 1.33827e-26)
(4.19423e-07 4.54577e-07 -6.87323e-27)
(3.87593e-07 4.28721e-07 9.115e-27)
(3.56873e-07 4.02758e-07 1.23396e-27)
(3.27234e-07 3.76989e-07 -1.92755e-26)
(2.98657e-07 3.51618e-07 1.5e-27)
(2.71151e-07 3.26754e-07 2.58786e-26)
(2.44764e-07 3.02415e-07 -1.58583e-26)
(2.19605e-07 2.78516e-07 1.90521e-26)
(1.95881e-07 2.54855e-07 4.34114e-26)
(1.73936e-07 2.31069e-07 -5.8747e-26)
(1.54333e-07 2.06612e-07 -1.50409e-26)
(1.37892e-07 1.80626e-07 3.00861e-26)
(1.25857e-07 1.5202e-07 2.09648e-26)
(1.1946e-07 1.19045e-07 -6.26032e-26)
(1.19072e-07 8.04187e-08 1.77727e-26)
)


// ************************************************************************* //
