/*--------------------------------*- C++ -*----------------------------------*\
| =========                 |                                                 |
| \\      /  F ield         | OpenFOAM Extend Project: Open source CFD        |
|  \\    /   O peration     | Version:  1.6-ext                               |
|   \\  /    A nd           | Web:      www.extend-project.de                 |
|    \\/     M anipulation  |                                                 |
\*---------------------------------------------------------------------------*/
FoamFile
{
    version     2.0;
    format      ascii;
    class       tetPointVectorField;
    location    "1.2";
    object      motionU;
}
// * * * * * * * * * * * * * * * * * * * * * * * * * * * * * * * * * * * * * //

dimensions      [0 1 -1 0 0 0 0];

internalField   nonuniform List<vector> 
147960
(
(0 0 0)
(3.9207e-05 -0.000107562 0)
(0.000509592 3.70021e-05 -2.60088e-24)
(0.000442578 0.000152695 5.09344e-24)
(0.00112859 -0.0246069 -4.61001e-24)
(0.000960538 -0.0241177 -4.48272e-23)
(0.000953673 -0.0234639 -3.44099e-23)
(0.000946105 -0.02281 6.41768e-25)
(0.000938082 -0.0221561 -3.57943e-23)
(0.000929722 -0.0215022 7.888e-24)
(0.00092114 -0.0208488 3.19471e-24)
(0.000912421 -0.020196 -2.55226e-23)
(0.000903641 -0.0195445 3.9733e-23)
(0.000894867 -0.0188945 1.08758e-23)
(0.000886155 -0.0182467 7.16849e-24)
(0.000877559 -0.0176015 2.50861e-23)
(0.000869123 -0.0169596 -8.50474e-24)
(0.000860889 -0.0163214 -2.76019e-23)
(0.000852894 -0.0156877 2.28427e-24)
(0.000845169 -0.0150589 1.07692e-23)
(0.000837742 -0.0144358 -1.16499e-23)
(0.000830633 -0.013819 -1.69068e-23)
(0.000823861 -0.0132092 2.23249e-24)
(0.000817437 -0.0126069 1.01609e-23)
(0.000811368 -0.0120129 -3.16943e-23)
(0.000805657 -0.0114277 -3.22411e-23)
(0.0008003 -0.0108521 -1.57536e-23)
(0.000795289 -0.0102867 3.21084e-24)
(0.000790612 -0.00973202 7.12521e-24)
(0.000786251 -0.00918876 -7.64255e-24)
(0.000782186 -0.00865748 -5.84754e-25)
(0.00077839 -0.00813875 2.25635e-23)
(0.000774833 -0.00763313 2.02061e-23)
(0.000771483 -0.00714113 1.12121e-23)
(0.0007683 -0.00666325 1.23913e-23)
(0.000765245 -0.00619998 4.25198e-24)
(0.000762274 -0.00575173 -8.41632e-24)
(0.000759338 -0.00531894 -1.10844e-23)
(0.000756388 -0.00490196 1.88307e-24)
(0.000753369 -0.00450116 -9.65713e-25)
(0.000750225 -0.00411682 -7.20566e-24)
(0.000746897 -0.00374922 4.34922e-25)
(0.000743321 -0.00339859 6.68384e-24)
(0.000739433 -0.00306512 4.06196e-24)
(0.000735164 -0.00274895 -9.03229e-24)
(0.000730443 -0.00245018 -6.6366e-24)
(0.000725196 -0.00216888 2.3687e-24)
(0.000719346 -0.00190505 2.19119e-24)
(0.000712811 -0.00165865 1.36024e-24)
(0.000705511 -0.00142959 -8.97921e-24)
(0.00069736 -0.00121774 1.41637e-24)
(0.000688269 -0.00102291 8.70932e-24)
(0.000678148 -0.000844831 -3.44673e-24)
(0.000666905 -0.000683218 -1.5735e-24)
(0.000654445 -0.000537706 -7.14421e-24)
(0.000640672 -0.000407878 -5.36547e-24)
(0.000625489 -0.000293257 1.51746e-23)
(0.000608798 -0.000193308 1.00995e-23)
(0.000590501 -0.000107435 -8.76853e-24)
(0.000570498 -3.49817e-05 -8.88819e-24)
(0.000548692 2.47672e-05 -6.13533e-24)
(0.000524988 7.25875e-05 7.66656e-24)
(0.000499289 0.000109314 1.23316e-23)
(0.000471505 0.000135841 -4.60718e-24)
(0.00227197 -0.0247624 8.59746e-24)
(0.00161985 -0.024767 2.44608e-24)
(0.0034087 -0.0245924 -3.77376e-24)
(0.00292273 -0.0247582 1.48651e-24)
(0.000571509 2.08831e-05 -2.9829e-24)
(0.000637162 -4.80372e-06 -9.66555e-24)
(0.000704383 -4.06069e-05 1.70974e-24)
(0.000773042 -8.74204e-05 1.52947e-23)
(0.000843007 -0.00014608 -3.23784e-24)
(0.000914143 -0.000217362 -1.06668e-24)
(0.000986316 -0.000301983 1.26914e-23)
(0.00105939 -0.0004006 -6.58468e-24)
(0.00113323 -0.000513812 -6.49285e-24)
(0.00120769 -0.000642154 9.70814e-24)
(0.00128266 -0.000786106 -5.97818e-25)
(0.00135798 -0.000946088 1.51844e-24)
(0.00143354 -0.00112246 8.74956e-24)
(0.0015092 -0.00131553 -5.58656e-24)
(0.00158483 -0.00152554 -6.12683e-24)
(0.00166031 -0.00175269 5.06238e-24)
(0.00173551 -0.00199713 -5.90192e-24)
(0.00181032 -0.00225894 -7.15685e-24)
(0.00188461 -0.00253816 1.91169e-24)
(0.00195828 -0.00283479 -2.11018e-25)
(0.00203121 -0.00314877 -1.76292e-24)
(0.00210329 -0.00348001 5.28118e-24)
(0.00217441 -0.00382835 1.07001e-23)
(0.00224448 -0.00419361 -1.66356e-24)
(0.0023134 -0.00457557 -6.60566e-24)
(0.00238107 -0.00497396 2.09633e-24)
(0.00244739 -0.00538848 1.3152e-24)
(0.00251228 -0.00581878 -1.05631e-23)
(0.00257565 -0.00626449 -1.10035e-24)
(0.00263742 -0.00672521 6.2793e-25)
(0.00269751 -0.00720049 -1.88525e-23)
(0.00275586 -0.00768986 -4.6889e-24)
(0.00281238 -0.00819284 2.12993e-24)
(0.00286702 -0.00870889 5.70719e-24)
(0.00291972 -0.00923747 2.29594e-23)
(0.00297041 -0.00977801 5.35955e-24)
(0.00301906 -0.0103299 1.78719e-24)
(0.00306562 -0.0108926 -7.22856e-26)
(0.00311006 -0.0114655 -4.62257e-24)
(0.00315234 -0.0120478 -3.76826e-24)
(0.00319243 -0.0126391 -9.42024e-24)
(0.00323034 -0.0132385 2.84754e-23)
(0.00326603 -0.0138456 2.05243e-23)
(0.00329953 -0.0144596 -8.81144e-24)
(0.00333082 -0.0150799 -1.48872e-25)
(0.00335993 -0.0157059 1.73545e-23)
(0.00338689 -0.0163369 1.4427e-23)
(0.00341172 -0.0169723 -7.2424e-24)
(0.00343447 -0.0176115 3.04393e-23)
(0.00345519 -0.018254 1.51668e-23)
(0.00347395 -0.0188991 -2.14875e-23)
(0.00349084 -0.0195464 -3.42526e-23)
(0.00350593 -0.0201954 1.96851e-23)
(0.00351935 -0.0208457 4.02313e-23)
(0.00353122 -0.0214967 1.68494e-25)
(0.00354169 -0.0221482 -3.98774e-23)
(0.00355092 -0.0227999 2.27594e-23)
(0.0035591 -0.0234516 4.29176e-23)
(0.00356629 -0.024103 -3.21489e-23)
(0.0015729 -0.020155 0)
(0.00343696 -0.0242633 0)
(0.00338993 -0.0240449 0)
(0.00333921 -0.0238165 0)
(0.00327902 -0.023574 0)
(0.00320253 -0.0233197 0)
(0.00311632 -0.0230546 0)
(0.00300476 -0.0227791 0)
(0.00288502 -0.0224933 0)
(0.00274693 -0.0221961 0)
(0.00257945 -0.0218883 0)
(0.00242039 -0.0215686 0)
(0.00223039 -0.0212353 0)
(0.002008 -0.0208903 0)
(0.00181 -0.0205306 0)
(0.00011642 -0.000259151 0)
(0.000154074 -0.000295696 0)
(0.000194994 -0.000338033 0)
(0.000238225 -0.000387102 0)
(0.000283518 -0.000443895 0)
(0.00033028 -0.000509218 0)
(0.000377784 -0.000583739 0)
(0.000426072 -0.000668206 0)
(0.000475095 -0.00076335 0)
(0.000524676 -0.000869849 0)
(0.000574646 -0.000988328 0)
(0.000625056 -0.00111936 0)
(0.000676182 -0.00126347 0)
(0.000728178 -0.00142115 0)
(0.000780755 -0.00159285 0)
(0.000833282 -0.00177897 0)
(0.000885151 -0.00197983 0)
(0.000936088 -0.00219567 0)
(0.000986232 -0.00242674 0)
(0.00103616 -0.00267306 0)
(0.00108576 -0.00293553 0)
(0.00113479 -0.00321425 0)
(0.00118369 -0.00350807 0)
(0.00123234 -0.00381714 0)
(0.00128077 -0.00414145 0)
(0.00132899 -0.00448088 0)
(0.00137691 -0.00483525 0)
(0.00142443 -0.00520434 0)
(0.00147145 -0.00558787 0)
(0.00151788 -0.00598553 0)
(0.00156348 -0.00639696 0)
(0.00160785 -0.00682177 0)
(0.0016507 -0.00725947 0)
(0.0016922 -0.00770957 0)
(0.00173277 -0.00817165 0)
(0.00177285 -0.00864466 0)
(0.00181167 -0.00912952 0)
(0.00184911 -0.00962617 0)
(0.0018861 -0.0101317 0)
(0.00192231 -0.0106451 0)
(0.00195761 -0.0111655 0)
(0.00199214 -0.011692 0)
(0.00202609 -0.0122233 0)
(0.00205921 -0.0127581 0)
(0.00209052 -0.0132948 0)
(0.00211817 -0.0138316 0)
(0.00213962 -0.0143669 0)
(0.00215226 -0.0148987 0)
(0.00215481 -0.015425 0)
(0.00214881 -0.0159431 0)
(0.00213783 -0.0164501 0)
(0.0021246 -0.0169426 0)
(0.00210845 -0.0174176 0)
(0.00208541 -0.0178717 0)
(0.0020515 -0.0183013 0)
(0.00200425 -0.0187026 0)
(0.0019432 -0.0190714 0)
(0.00186916 -0.019404 0)
(0.0017832 -0.0196971 0)
(0.0016864 -0.019948 0)
(-0.000303038 -0.0199838 0)
(-9.87689e-05 -0.0203851 0)
(6.20139e-05 -0.0207683 0)
(0.000242279 -0.0211336 0)
(0.000413019 -0.0214849 0)
(0.000541428 -0.0218217 0)
(0.000669286 -0.0221435 0)
(0.000789852 -0.022453 0)
(0.000878474 -0.0227502 0)
(0.000957414 -0.0230347 0)
(0.00102183 -0.023308 0)
(0.00106292 -0.0235692 0)
(0.00109133 -0.0238174 0)
(0.00109964 -0.0240507 0)
(0.00108448 -0.0242733 0)
(-1.89663e-05 -0.000174438 0)
(0.000437156 0.000148375 0)
(0.000429406 0.000139144 0)
(0.000417566 0.000124772 0)
(0.000401892 0.000106433 0)
(0.000382922 8.50928e-05 0)
(0.000359157 6.15615e-05 0)
(0.000332021 3.66305e-05 0)
(0.000301389 1.04173e-05 0)
(0.000264817 -1.57352e-05 0)
(0.000227697 -4.19878e-05 0)
(0.000186227 -6.86687e-05 0)
(0.000140554 -9.50585e-05 0)
(9.46108e-05 -0.00012221 0)
(3.98233e-05 -0.000149141 0)
(-0.000250192 -0.0197789 0)
(-0.000205122 -0.0195293 0)
(-0.000167073 -0.0192369 0)
(-0.000135612 -0.0189047 0)
(-0.000110623 -0.0185361 0)
(-9.26097e-05 -0.0181349 0)
(-8.1406e-05 -0.0177051 0)
(-7.49288e-05 -0.0172507 0)
(-6.96757e-05 -0.0167753 0)
(-6.22803e-05 -0.0162825 0)
(-5.26419e-05 -0.0157752 0)
(-4.36517e-05 -0.0152569 0)
(-3.87784e-05 -0.0147305 0)
(-3.94916e-05 -0.0141986 0)
(-4.47421e-05 -0.0136634 0)
(-5.23715e-05 -0.0131268 0)
(-6.02634e-05 -0.0125904 0)
(-6.69031e-05 -0.012056 0)
(-7.15068e-05 -0.0115252 0)
(-7.39655e-05 -0.0109994 0)
(-7.46007e-05 -0.0104797 0)
(-7.36981e-05 -0.00996717 0)
(-7.1279e-05 -0.00946269 0)
(-6.71823e-05 -0.00896718 0)
(-6.25249e-05 -0.00848353 0)
(-5.72977e-05 -0.00801177 0)
(-5.07718e-05 -0.00755101 0)
(-4.34834e-05 -0.00710231 0)
(-3.60193e-05 -0.00666606 0)
(-2.86825e-05 -0.00624273 0)
(-2.12928e-05 -0.00583282 0)
(-1.35656e-05 -0.00543675 0)
(-5.37245e-06 -0.00505484 0)
(3.27193e-06 -0.0046874 0)
(1.23151e-05 -0.00433469 0)
(2.17306e-05 -0.00399691 0)
(3.14712e-05 -0.00367423 0)
(4.13903e-05 -0.00336676 0)
(5.13062e-05 -0.00307454 0)
(6.12316e-05 -0.00279743 0)
(7.03885e-05 -0.00253665 0)
(7.87725e-05 -0.00229211 0)
(8.64328e-05 -0.00206292 0)
(9.25901e-05 -0.00184903 0)
(9.68869e-05 -0.00165014 0)
(9.93881e-05 -0.00146607 0)
(0.000100506 -0.00129656 0)
(0.000100669 -0.00114124 0)
(9.99424e-05 -0.000999597 0)
(9.79526e-05 -0.000871046 0)
(9.42145e-05 -0.000755015 0)
(8.84847e-05 -0.000650983 0)
(8.07833e-05 -0.000558423 0)
(7.11819e-05 -0.000476745 0)
(5.96458e-05 -0.000405234 0)
(4.60078e-05 -0.00034312 0)
(3.07584e-05 -0.000289751 0)
(1.44464e-05 -0.000244462 0)
(-2.70154e-06 -0.000206319 0)
(6.15808e-05 -0.000180216 0)
(0.000115962 -0.000151742 0)
(0.000162263 -0.00012389 0)
(0.000211892 -9.69701e-05 0)
(0.000255099 -6.86371e-05 0)
(0.000292077 -4.10801e-05 0)
(0.000331051 -1.36594e-05 0)
(0.000362176 1.42377e-05 0)
(0.000389151 4.01763e-05 0)
(0.000414384 6.48722e-05 0)
(0.000432636 8.73681e-05 0)
(0.000448638 0.000106505 0)
(0.000459834 0.000121493 0)
(0.000467269 0.000131109 0)
(8.12859e-05 -0.000217567 0)
(0.000134654 -0.000188101 0)
(0.000184269 -0.000160184 0)
(0.000237149 -0.000132205 0)
(0.000279903 -0.000102624 0)
(0.000318968 -7.4171e-05 0)
(0.000359196 -4.52185e-05 0)
(0.000389825 -1.62992e-05 0)
(0.000418153 1.05442e-05 0)
(0.000443332 3.63768e-05 0)
(0.000461538 5.96334e-05 0)
(0.000477448 7.95253e-05 0)
(0.00048823 9.49879e-05 0)
(0.000495125 0.000104774 0)
(9.92826e-05 -0.00026197 0)
(0.00015215 -0.000232242 0)
(0.000205599 -0.000204315 0)
(0.000260751 -0.000175339 0)
(0.000303199 -0.000144864 0)
(0.00034451 -0.000115562 0)
(0.000385586 -8.55208e-05 0)
(0.000415822 -5.57776e-05 0)
(0.000445256 -2.81593e-05 0)
(0.000470338 -1.47477e-06 0)
(0.000488258 2.24125e-05 0)
(0.000504161 4.27928e-05 0)
(0.000514492 5.85523e-05 0)
(0.000521042 6.83326e-05 0)
(0.000115531 -0.000314711 0)
(0.000168276 -0.000284907 0)
(0.000225587 -0.000257038 0)
(0.00028285 -0.000227308 0)
(0.000325042 -0.000196347 0)
(0.000368324 -0.000166427 0)
(0.000410492 -0.00013545 0)
(0.000440143 -0.000105044 0)
(0.000470183 -7.69082e-05 0)
(0.000495592 -4.95755e-05 0)
(0.000513004 -2.5236e-05 0)
(0.00052875 -4.59326e-06 0)
(0.000538781 1.12502e-05 0)
(0.000545011 2.08805e-05 0)
(0.000129903 -0.000376411 0)
(0.000182761 -0.000346758 0)
(0.000243969 -0.000319139 0)
(0.000303541 -0.000288932 0)
(0.000345411 -0.000257563 0)
(0.000390134 -0.000227389 0)
(0.000433615 -0.000195869 0)
(0.000462861 -0.000164938 0)
(0.00049312 -0.000136476 0)
(0.000518803 -0.000108838 0)
(0.000535958 -8.42147e-05 0)
(0.000551411 -6.34955e-05 0)
(0.000561112 -4.77681e-05 0)
(0.000567049 -3.84273e-05 0)
(0.000142609 -0.000447822 0)
(0.000195598 -0.000418521 0)
(0.000260553 -0.000391379 0)
(0.000322832 -0.000361008 0)
(0.000364311 -0.000329392 0)
(0.000409924 -0.000299186 0)
(0.000454877 -0.000267503 0)
(0.000483907 -0.000236332 0)
(0.000514213 -0.000207691 0)
(0.000540099 -0.000179989 0)
(0.000557054 -0.000155349 0)
(0.000572319 -0.000134745 0)
(0.00058164 -0.000119289 0)
(0.000587269 -0.000110359 0)
(0.000153945 -0.000529746 0)
(0.000206935 -0.000500943 0)
(0.000275201 -0.000474463 0)
(0.000340519 -0.000444279 0)
(0.000381919 -0.000412601 0)
(0.000427876 -0.000382548 0)
(0.000474113 -0.000351089 0)
(0.000503374 -0.000319998 0)
(0.000533709 -0.000291393 0)
(0.000559583 -0.000263767 0)
(0.000576365 -0.000239285 0)
(0.000591496 -0.000219113 0)
(0.000600491 -0.000204073 0)
(0.000605788 -0.000195646 0)
(0.00016405 -0.000622942 0)
(0.000217002 -0.000594761 0)
(0.000287891 -0.000569059 0)
(0.000356241 -0.000539396 0)
(0.000398209 -0.000507862 0)
(0.000444425 -0.000478258 0)
(0.000491503 -0.000447307 0)
(0.000521075 -0.000416669 0)
(0.000551767 -0.000388387 0)
(0.000577608 -0.00036131 0)
(0.000594056 -0.000337056 0)
(0.000608977 -0.00031729 0)
(0.000617682 -0.000302791 0)
(0.000622688 -0.000294956 0)
(0.000172806 -0.000728069 0)
(0.000225965 -0.000700713 0)
(0.000298837 -0.000675891 0)
(0.000369935 -0.000647379 0)
(0.000412955 -0.000616366 0)
(0.000459725 -0.000587157 0)
(0.000507442 -0.000556837 0)
(0.000537069 -0.000526925 0)
(0.000568198 -0.000499243 0)
(0.000594169 -0.000472758 0)
(0.000610225 -0.000449046 0)
(0.000624912 -0.000429869 0)
(0.00063332 -0.000416041 0)
(0.000638064 -0.000408889 0)
(0.000179952 -0.000845672 0)
(0.000233848 -0.000819458 0)
(0.000308441 -0.000795565 0)
(0.000381832 -0.000768207 0)
(0.000425875 -0.000738284 0)
(0.000473632 -0.000709848 0)
(0.000522102 -0.000680359 0)
(0.000551648 -0.00065134 0)
(0.000583043 -0.00062446 0)
(0.000609163 -0.000598791 0)
(0.000624938 -0.000575848 0)
(0.000639432 -0.000557423 0)
(0.00064754 -0.000544379 0)
(0.000652018 -0.000537988 0)
(0.00018533 -0.000976222 0)
(0.000240549 -0.000951551 0)
(0.000317069 -0.000928688 0)
(0.000392356 -0.000902586 0)
(0.0004371 -0.000874115 0)
(0.00048598 -0.000846824 0)
(0.000535472 -0.000818456 0)
(0.00056499 -0.000790521 0)
(0.00059653 -0.000764595 0)
(0.000622701 -0.000739941 0)
(0.000638234 -0.00071797 0)
(0.000652604 -0.000700453 0)
(0.000660438 -0.000688302 0)
(0.000664649 -0.000682737 0)
(0.000189114 -0.00112017 0)
(0.000245897 -0.00109747 0)
(0.000324667 -0.00107579 0)
(0.000402008 -0.00105101 0)
(0.000447028 -0.00102443 0)
(0.000496856 -0.000998552 0)
(0.000547445 -0.000971591 0)
(0.000577016 -0.000944977 0)
(0.000608718 -0.00092018 0)
(0.00063494 -0.000896704 0)
(0.000650242 -0.000875868 0)
(0.000664517 -0.0008594 0)
(0.000672097 -0.000848242 0)
(0.000676051 -0.000843562 0)
(0.000191635 -0.00127803 0)
(0.000249774 -0.00125768 0)
(0.000330952 -0.00123798 0)
(0.000410579 -0.00121474 0)
(0.000455889 -0.00118986 0)
(0.000506517 -0.00116552 0)
(0.000558061 -0.00114018 0)
(0.000587653 -0.00111511 0)
(0.000619597 -0.00109164 0)
(0.000645967 -0.00106951 0)
(0.000661089 -0.00104996 0)
(0.000675277 -0.00103465 0)
(0.000682606 -0.00102457 0)
(0.000686317 -0.00102083 0)
(0.000193056 -0.00145026 0)
(0.000252281 -0.00143244 0)
(0.000335964 -0.00141472 0)
(0.000417798 -0.00139359 0)
(0.000463616 -0.00137078 0)
(0.000515123 -0.00134817 0)
(0.000567552 -0.00132463 0)
(0.000597111 -0.00130129 0)
(0.000629338 -0.00127932 0)
(0.000655919 -0.00125871 0)
(0.00067089 -0.00124057 0)
(0.000684995 -0.00122654 0)
(0.00069207 -0.00121762 0)
(0.000695542 -0.00121485 0)
(0.000193275 -0.00163729 0)
(0.000253537 -0.00162202 0)
(0.000339925 -0.00160637 0)
(0.000423785 -0.00158795 0)
(0.000470197 -0.00156752 0)
(0.000522715 -0.00154688 0)
(0.000576078 -0.00152532 0)
(0.000605624 -0.00150386 0)
(0.000638149 -0.00148354 0)
(0.000664937 -0.00146457 0)
(0.000679742 -0.00144799 0)
(0.000693757 -0.00143534 0)
(0.000700581 -0.00142764 0)
(0.000703815 -0.00142588 0)
(0.000192006 -0.00183954 0)
(0.000253551 -0.00182764 0)
(0.000342777 -0.00181423 0)
(0.000428741 -0.00179824 0)
(0.000475776 -0.00178037 0)
(0.000529311 -0.00176191 0)
(0.000583644 -0.00174252 0)
(0.000613241 -0.00172309 0)
(0.000646105 -0.00170451 0)
(0.000673099 -0.00168731 0)
(0.000687702 -0.00167244 0)
(0.000701612 -0.00166127 0)
(0.000708205 -0.00165484 0)
(0.000711224 -0.00165411 0)
(0.000189062 -0.00205709 0)
(0.000252291 -0.00204851 0)
(0.000344379 -0.00203784 0)
(0.000432724 -0.00202468 0)
(0.000480409 -0.00200958 0)
(0.000534921 -0.00199349 0)
(0.000590261 -0.00197647 0)
(0.000619983 -0.00195923 0)
(0.000653188 -0.00194233 0)
(0.000680451 -0.00192698 0)
(0.000694816 -0.00191415 0)
(0.00070862 -0.00190451 0)
(0.000715015 -0.00189939 0)
(0.000717853 -0.0018997 0)
(0.000184635 -0.00228993 0)
(0.000249839 -0.00228485 0)
(0.000344823 -0.00227753 0)
(0.000435648 -0.00226749 0)
(0.000484009 -0.00225536 0)
(0.000539573 -0.00224183 0)
(0.000596035 -0.00222738 0)
(0.000625952 -0.00221262 0)
(0.000659516 -0.00219826 0)
(0.000687025 -0.00218463 0)
(0.000701152 -0.00217331 0)
(0.000714875 -0.00216519 0)
(0.000721103 -0.00216137 0)
(0.000723785 -0.00216273 0)
(0.000179335 -0.00253927 0)
(0.00024642 -0.0025379 0)
(0.000344229 -0.00253361 0)
(0.000437476 -0.00252681 0)
(0.000486586 -0.00251782 0)
(0.000543387 -0.00250706 0)
(0.000601111 -0.00249534 0)
(0.000631266 -0.00248317 0)
(0.000665208 -0.00247108 0)
(0.000692873 -0.00245947 0)
(0.000706809 -0.00244991 0)
(0.000720492 -0.00244333 0)
(0.000726569 -0.00244085 0)
(0.000729107 -0.00244326 0)
(0.00017359 -0.00280405 0)
(0.000242173 -0.00280695 0)
(0.000342758 -0.00280607 0)
(0.000438378 -0.0028027 0)
(0.000488353 -0.00279703 0)
(0.000546542 -0.0027892 0)
(0.000605575 -0.00278034 0)
(0.000635949 -0.00277082 0)
(0.000670251 -0.00276104 0)
(0.000698072 -0.0027516 0)
(0.000711866 -0.00274392 0)
(0.000725556 -0.00273895 0)
(0.000731503 -0.00273782 0)
(0.000733902 -0.00274126 0)
(0.000167138 -0.00308545 0)
(0.000237267 -0.00309222 0)
(0.00034061 -0.00309493 0)
(0.000438645 -0.00309518 0)
(0.000489559 -0.00309298 0)
(0.000549144 -0.00308824 0)
(0.000609436 -0.00308235 0)
(0.000640006 -0.00307556 0)
(0.000674682 -0.00306821 0)
(0.000702693 -0.00306104 0)
(0.00071639 -0.00305531 0)
(0.000730123 -0.00305201 0)
(0.000735973 -0.00305222 0)
(0.000738246 -0.0030567 0)
(0.000160237 -0.0033824 0)
(0.000231887 -0.00339351 0)
(0.000338017 -0.00340012 0)
(0.000438497 -0.0034042 0)
(0.000490318 -0.00340563 0)
(0.000551225 -0.00340416 0)
(0.000612727 -0.00340133 0)
(0.000643499 -0.00339735 0)
(0.000678583 -0.00339252 0)
(0.000706821 -0.00338773 0)
(0.000720452 -0.00338403 0)
(0.00073425 -0.00338241 0)
(0.000740035 -0.00338398 0)
(0.000742204 -0.00338948 0)
(0.000153146 -0.00369493 0)
(0.000226253 -0.00371072 0)
(0.000335161 -0.00372153 0)
(0.000438031 -0.00372967 0)
(0.000490678 -0.0037349 0)
(0.000552853 -0.00373685 0)
(0.00061555 -0.00373719 0)
(0.00064655 -0.00373605 0)
(0.000682086 -0.00373383 0)
(0.000710578 -0.00373154 0)
(0.00072416 -0.00372994 0)
(0.000738019 -0.00373003 0)
(0.000743744 -0.00373295 0)
(0.000745837 -0.00373944 0)
(0.000146074 -0.00402297 0)
(0.000220548 -0.0040437 0)
(0.000332143 -0.00405903 0)
(0.000437295 -0.00407146 0)
(0.000490701 -0.00408067 0)
(0.000554115 -0.00408623 0)
(0.000618001 -0.00408985 0)
(0.000649247 -0.00409133 0)
(0.000685377 -0.00409183 0)
(0.000714098 -0.00409241 0)
(0.000727627 -0.00409292 0)
(0.000741523 -0.00409471 0)
(0.000747174 -0.00409896 0)
(0.000749209 -0.00410641 0)
(0.00013915 -0.00436636 0)
(0.000214854 -0.00439232 0)
(0.000329009 -0.00441248 0)
(0.000436325 -0.00442941 0)
(0.000490416 -0.00444278 0)
(0.000555023 -0.00445218 0)
(0.00062009 -0.00445938 0)
(0.000651636 -0.00446457 0)
(0.000688392 -0.0044676 0)
(0.000717392 -0.00447025 0)
(0.000730907 -0.00447276 0)
(0.000744844 -0.00447623 0)
(0.000750412 -0.00448177 0)
(0.000752388 -0.00449016 0)
(0.000132412 -0.00472495 0)
(0.000209207 -0.00475638 0)
(0.000325792 -0.00478165 0)
(0.00043515 -0.0048033 0)
(0.00048985 -0.00482101 0)
(0.000555631 -0.00483441 0)
(0.000621913 -0.00484527 0)
(0.000653833 -0.00485375 0)
(0.000691153 -0.00485962 0)
(0.000720489 -0.00486464 0)
(0.000734019 -0.00486919 0)
(0.000748036 -0.00487432 0)
(0.000753535 -0.00488113 0)
(0.000755438 -0.00489042 0)
(0.000125924 -0.0050985 0)
(0.00020369 -0.00513566 0)
(0.000322582 -0.00516633 0)
(0.000433879 -0.00519289 0)
(0.000489167 -0.00521506 0)
(0.000556141 -0.00523257 0)
(0.000623655 -0.00524704 0)
(0.000655978 -0.0052588 0)
(0.000693854 -0.00526774 0)
(0.000723492 -0.00527529 0)
(0.000737007 -0.00528191 0)
(0.000751134 -0.00528869 0)
(0.000756587 -0.00529674 0)
(0.000758414 -0.00530689 0)
(0.000119823 -0.00548677 0)
(0.00019849 -0.00552988 0)
(0.000319586 -0.00556622 0)
(0.000432734 -0.00559788 0)
(0.000488573 -0.00562466 0)
(0.000556677 -0.00564639 0)
(0.000625312 -0.00566416 0)
(0.000658105 -0.00567932 0)
(0.000696533 -0.0056918 0)
(0.000726469 -0.0057019 0)
(0.000739951 -0.00571059 0)
(0.000754186 -0.00571901 0)
(0.000759603 -0.00572826 0)
(0.000761367 -0.00573924 0)
(0.000114236 -0.00588944 0)
(0.000193802 -0.00593874 0)
(0.000317012 -0.00598101 0)
(0.000431889 -0.00601796 0)
(0.000488176 -0.00604952 0)
(0.000557301 -0.00607582 0)
(0.000626969 -0.00609818 0)
(0.000660206 -0.00611655 0)
(0.000699184 -0.00613162 0)
(0.000729454 -0.00614415 0)
(0.000742928 -0.00615487 0)
(0.000757251 -0.0061649 0)
(0.000762629 -0.00617531 0)
(0.00076435 -0.00618707 0)
(0.000109095 -0.00630616 0)
(0.000189617 -0.00636187 0)
(0.000314888 -0.00641033 0)
(0.000431386 -0.00645274 0)
(0.000488055 -0.00648921 0)
(0.000558175 -0.00652012 0)
(0.000628914 -0.00654659 0)
(0.000662406 -0.00656854 0)
(0.000701873 -0.00658664 0)
(0.000732482 -0.00660162 0)
(0.000745992 -0.00661436 0)
(0.000760392 -0.00662596 0)
(0.000765727 -0.0066375 0)
(0.000767415 -0.00664999 0)
(0.000104074 -0.00673653 0)
(0.000185674 -0.00679888 0)
(0.000313057 -0.00685376 0)
(0.00043118 -0.0069018 0)
(0.000488236 -0.00694324 0)
(0.000559273 -0.00697842 0)
(0.000631221 -0.00700912 0)
(0.000664838 -0.00703519 0)
(0.000704685 -0.00705643 0)
(0.000735621 -0.00707388 0)
(0.00074919 -0.00708862 0)
(0.000763665 -0.00710176 0)
(0.000768961 -0.00711437 0)
(0.00077061 -0.00712755 0)
(9.88825e-05 -0.00718008 0)
(0.000181721 -0.00724931 0)
(0.000311368 -0.00731084 0)
(0.0004312 -0.00736468 0)
(0.000488693 -0.0074114 0)
(0.000560622 -0.00745226 0)
(0.000633702 -0.00748713 0)
(0.000667452 -0.00751631 0)
(0.00070769 -0.00754059 0)
(0.000738936 -0.00756047 0)
(0.000752546 -0.00757718 0)
(0.000767107 -0.00759183 0)
(0.000772375 -0.00760547 0)
(0.000773976 -0.00761928 0)
(9.37181e-05 -0.00763636 0)
(0.00017788 -0.00771268 0)
(0.000309863 -0.00778108 0)
(0.000431442 -0.00784083 0)
(0.000489417 -0.00789254 0)
(0.000562544 -0.00793886 0)
(0.000636374 -0.00797857 0)
(0.000670265 -0.00801129 0)
(0.000710911 -0.00803862 0)
(0.00074242 -0.00806091 0)
(0.000756062 -0.00807955 0)
(0.000770741 -0.00809567 0)
(0.000775996 -0.00811029 0)
(0.000777546 -0.00812469 0)
(8.92134e-05 -0.00810483 0)
(0.000174566 -0.0081885 0)
(0.000308739 -0.00826398 0)
(0.000431968 -0.00832962 0)
(0.000490592 -0.00838797 0)
(0.000564791 -0.00844 0)
(0.000639301 -0.00848344 0)
(0.000673322 -0.00851959 0)
(0.000714327 -0.00854996 0)
(0.000746061 -0.00857465 0)
(0.000759765 -0.00859521 0)
(0.00077459 -0.00861276 0)
(0.000779842 -0.00862832 0)
(0.00078135 -0.00864325 0)
(8.57323e-05 -0.00858493 0)
(0.000172018 -0.00867623 0)
(0.000308083 -0.00875893 0)
(0.000433207 -0.00883228 0)
(0.000492391 -0.00889702 0)
(0.000567351 -0.0089536 0)
(0.00064256 -0.00900103 0)
(0.00067667 -0.00904065 0)
(0.000717972 -0.00907407 0)
(0.000749928 -0.00910115 0)
(0.000763712 -0.00912361 0)
(0.000778675 -0.00914255 0)
(0.000783929 -0.00915899 0)
(0.000785415 -0.00917441 0)
(8.30244e-05 -0.00907584 0)
(0.000170283 -0.00917524 0)
(0.000308425 -0.00926721 0)
(0.000435228 -0.00934786 0)
(0.000494695 -0.00941766 0)
(0.000570384 -0.00947912 0)
(0.000646219 -0.00953067 0)
(0.000680369 -0.00957384 0)
(0.000721947 -0.00961034 0)
(0.000754111 -0.00963982 0)
(0.00076794 -0.00966416 0)
(0.00078301 -0.00968446 0)
(0.000788278 -0.00970175 0)
(0.000789767 -0.0097176 0)
(8.10151e-05 -0.00958086 0)
(0.000169428 -0.00968857 0)
(0.000309759 -0.0097877 0)
(0.000437744 -0.00987412 0)
(0.000497495 -0.00994934 0)
(0.000573902 -0.0100159 0)
(0.000650337 -0.0100717 0)
(0.000684521 -0.0101185 0)
(0.000726337 -0.0101581 0)
(0.000758643 -0.01019 0)
(0.000772464 -0.0102163 0)
(0.000787623 -0.0102379 0)
(0.000792923 -0.010256 0)
(0.000794433 -0.0102722 0)
(8.03042e-05 -0.0100946 0)
(0.000169699 -0.0102107 0)
(0.000311769 -0.0103175 0)
(0.000440925 -0.0104104 0)
(0.000500972 -0.0104913 0)
(0.000578068 -0.0105631 0)
(0.000655028 -0.0106234 0)
(0.000689176 -0.010674 0)
(0.000731145 -0.0107168 0)
(0.000763525 -0.0107512 0)
(0.000777318 -0.0107793 0)
(0.000792568 -0.0108023 0)
(0.000797905 -0.0108211 0)
(0.000799433 -0.0108377 0)
(8.09666e-05 -0.0106165 0)
(0.000171226 -0.0107412 0)
(0.000314854 -0.010856 0)
(0.000445068 -0.0109558 0)
(0.000505308 -0.0110428 0)
(0.000582927 -0.0111201 0)
(0.000660251 -0.0111851 0)
(0.000694273 -0.0112396 0)
(0.000736342 -0.0112857 0)
(0.000768783 -0.0113226 0)
(0.000782559 -0.0113527 0)
(0.000797892 -0.0113769 0)
(0.000803249 -0.0113965 0)
(0.00080478 -0.0114134 0)
(8.29734e-05 -0.0111458 0)
(0.000173988 -0.0112794 0)
(0.000319015 -0.0114026 0)
(0.000450094 -0.0115096 0)
(0.00051034 -0.011603 0)
(0.000588303 -0.0116861 0)
(0.000665873 -0.0117559 0)
(0.000699746 -0.0118145 0)
(0.000741922 -0.0118641 0)
(0.000774438 -0.0119037 0)
(0.000788203 -0.0119356 0)
(0.0008036 -0.0119612 0)
(0.000808956 -0.0119815 0)
(0.000810482 -0.0119986 0)
(8.65149e-05 -0.0116816 0)
(0.000178051 -0.0118244 0)
(0.000324192 -0.0119562 0)
(0.000455844 -0.0120708 0)
(0.000515887 -0.0121709 0)
(0.000594041 -0.0122601 0)
(0.00067178 -0.0123351 0)
(0.000705508 -0.0123981 0)
(0.000747809 -0.0124513 0)
(0.00078042 -0.0124936 0)
(0.000794192 -0.0125276 0)
(0.000809656 -0.0125545 0)
(0.000815016 -0.0125755 0)
(0.000816539 -0.0125928 0)
(9.18706e-05 -0.0122227 0)
(0.000183554 -0.0123751 0)
(0.000330345 -0.0125158 0)
(0.000462141 -0.0126384 0)
(0.000521683 -0.0127457 0)
(0.000599846 -0.0128413 0)
(0.000677692 -0.0129218 0)
(0.000711326 -0.0129895 0)
(0.000753833 -0.0130465 0)
(0.000786617 -0.0130917 0)
(0.00080046 -0.0131278 0)
(0.00081603 -0.0131561 0)
(0.000821416 -0.0131778 0)
(0.000822949 -0.0131953 0)
(9.87873e-05 -0.0127678 0)
(0.000190031 -0.0129302 0)
(0.000336823 -0.0130803 0)
(0.000468224 -0.0132113 0)
(0.000526993 -0.0133263 0)
(0.000605137 -0.0134288 0)
(0.000683242 -0.0135152 0)
(0.000717034 -0.0135878 0)
(0.000759954 -0.0136489 0)
(0.000793043 -0.0136973 0)
(0.00080703 -0.0137357 0)
(0.000822732 -0.0137654 0)
(0.000828157 -0.0137878 0)
(0.000829706 -0.0138053 0)
(0.000106115 -0.0133154 0)
(0.000196076 -0.0134883 0)
(0.000342163 -0.0136482 0)
(0.000472856 -0.0137883 0)
(0.000531042 -0.0139116 0)
(0.000609647 -0.0140215 0)
(0.000688548 -0.0141142 0)
(0.000722892 -0.0141923 0)
(0.000766395 -0.0142578 0)
(0.000799819 -0.0143095 0)
(0.000813937 -0.0143504 0)
(0.000829759 -0.0143816 0)
(0.000835226 -0.0144047 0)
(0.000836796 -0.0144224 0)
(0.000111994 -0.0138638 0)
(0.00019981 -0.014048 0)
(0.000344949 -0.0142184 0)
(0.000475476 -0.0143682 0)
(0.000534088 -0.0145003 0)
(0.000614101 -0.014618 0)
(0.000694297 -0.0147177 0)
(0.000729254 -0.0148018 0)
(0.000773205 -0.0148721 0)
(0.000806846 -0.0149277 0)
(0.000821077 -0.0149712 0)
(0.000837046 -0.0150041 0)
(0.000842591 -0.015028 0)
(0.000844203 -0.0150458 0)
(0.000114411 -0.0144115 0)
(0.000199957 -0.0146077 0)
(0.000345207 -0.0147891 0)
(0.000477202 -0.0149492 0)
(0.000537599 -0.0150909 0)
(0.000619445 -0.0152172 0)
(0.000700572 -0.0153246 0)
(0.000735702 -0.0154153 0)
(0.000779924 -0.015491 0)
(0.00081387 -0.0155508 0)
(0.00082836 -0.0155974 0)
(0.000844574 -0.0156322 0)
(0.000850241 -0.015657 0)
(0.000851905 -0.0156749 0)
(0.000112228 -0.0149566 0)
(0.000197176 -0.0151654 0)
(0.000344932 -0.0153584 0)
(0.000480067 -0.0155295 0)
(0.000542341 -0.0156816 0)
(0.00062494 -0.0158175 0)
(0.000706215 -0.0159335 0)
(0.00074157 -0.0160316 0)
(0.000786543 -0.0161134 0)
(0.000821139 -0.0161781 0)
(0.000835993 -0.0162282 0)
(0.000852431 -0.0162651 0)
(0.000858182 -0.016291 0)
(0.000859879 -0.016309 0)
(0.000106548 -0.0154969 0)
(0.000194136 -0.0157187 0)
(0.00034642 -0.0159239 0)
(0.000484245 -0.0161072 0)
(0.000546407 -0.0162709 0)
(0.000628846 -0.0164172 0)
(0.000711048 -0.0165427 0)
(0.000747799 -0.0166492 0)
(0.000793944 -0.0167381 0)
(0.000829004 -0.0168084 0)
(0.000843977 -0.0168627 0)
(0.000860529 -0.0169022 0)
(0.00086635 -0.0169294 0)
(0.000868088 -0.0169476 0)
(0.000100494 -0.0160295 0)
(0.000193261 -0.0162651 0)
(0.000349169 -0.0164835 0)
(0.000486702 -0.0166801 0)
(0.000547916 -0.0168563 0)
(0.000632197 -0.017014 0)
(0.000717232 -0.0171502 0)
(0.00075539 -0.0172664 0)
(0.000801776 -0.0173636 0)
(0.000836759 -0.0174407 0)
(0.000851887 -0.0174999 0)
(0.000868739 -0.0175427 0)
(0.000874695 -0.0175715 0)
(0.000876492 -0.0175899 0)
(9.67484e-05 -0.0165516 0)
(0.00019376 -0.0168018 0)
(0.000349356 -0.0170345 0)
(0.000485659 -0.0172452 0)
(0.00054924 -0.017435 0)
(0.000637912 -0.0176053 0)
(0.000724841 -0.0177538 0)
(0.000762504 -0.0178814 0)
(0.000808632 -0.0179882 0)
(0.000844262 -0.0180734 0)
(0.000860227 -0.0181388 0)
(0.000877329 -0.0181857 0)
(0.000883258 -0.0182166 0)
(0.000885067 -0.0182355 0)
(9.4856e-05 -0.01706 0)
(0.000191504 -0.0173259 0)
(0.00034508 -0.0175736 0)
(0.000484209 -0.0177991 0)
(0.000553452 -0.0180036 0)
(0.000644732 -0.0181882 0)
(0.000730865 -0.0183509 0)
(0.000768046 -0.0184914 0)
(0.000815801 -0.0186096 0)
(0.000853424 -0.0187048 0)
(0.000869463 -0.018778 0)
(0.00088606 -0.0188302 0)
(0.00089191 -0.018864 0)
(0.000893775 -0.0188837 0)
(9.09411e-05 -0.0175516 0)
(0.000184015 -0.0178338 0)
(0.000339113 -0.0180968 0)
(0.000485446 -0.0183379 0)