/*--------------------------------*- C++ -*----------------------------------*\
| =========                 |                                                 |
| \\      /  F ield         | OpenFOAM Extend Project: Open source CFD        |
|  \\    /   O peration     | Version:  1.6-ext                               |
|   \\  /    A nd           | Web:      www.extend-project.de                 |
|    \\/     M anipulation  |                                                 |
\*---------------------------------------------------------------------------*/
FoamFile
{
    version     2.0;
    format      ascii;
    class       volScalarField;
    location    "1.2";
    object      p;
}
// * * * * * * * * * * * * * * * * * * * * * * * * * * * * * * * * * * * * * //

dimensions      [0 2 -2 0 0 0 0];

internalField   nonuniform List<scalar> 
20940
(
-0.172801
-0.215581
-0.260495
-0.307807
-0.356961
-0.408024
-0.460489
-0.513883
-0.56735
-0.619785
-0.669848
-0.716159
-0.757548
-0.793294
-0.823251
-0.847821
-0.867794
-0.884149
-0.897784
-0.909456
-0.920664
-0.932563
-0.200886
-0.242462
-0.286347
-0.33202
-0.379249
-0.427868
-0.477346
-0.527078
-0.576132
-0.623396
-0.667658
-0.707824
-0.743129
-0.773287
-0.798502
-0.819363
-0.836671
-0.851269
-0.863846
-0.874925
-0.885756
-0.897299
-0.225362
-0.265513
-0.308081
-0.351863
-0.396904
-0.442798
-0.488987
-0.53475
-0.57913
-0.621084
-0.659609
-0.693952
-0.723744
-0.749054
-0.770319
-0.788195
-0.80341
-0.816632
-0.828346
-0.83887
-0.849224
-0.860196
-0.248476
-0.286996
-0.327981
-0.36961
-0.412166
-0.455004
-0.497547
-0.538994
-0.57843
-0.614966
-0.647882
-0.676781
-0.701648
-0.722807
-0.740805
-0.756275
-0.769808
-0.781896
-0.792839
-0.802797
-0.812598
-0.822908
-0.2699
-0.306695
-0.345939
-0.385256
-0.425129
-0.464676
-0.503328
-0.540254
-0.574664
-0.605894
-0.633548
-0.657566
-0.6782
-0.695918
-0.711281
-0.724826
-0.736993
-0.748106
-0.758319
-0.767674
-0.776849
-0.786422
-0.289912
-0.324924
-0.362293
-0.39915
-0.436143
-0.472184
-0.506753
-0.539063
-0.568526
-0.594758
-0.617678
-0.637495
-0.654623
-0.669575
-0.682847
-0.694849
-0.705874
-0.716107
-0.725594
-0.734299
-0.74278
-0.751551
-0.308665
-0.341842
-0.377218
-0.411488
-0.445444
-0.477829
-0.508234
-0.53599
-0.560773
-0.582484
-0.60131
-0.617636
-0.631944
-0.644705
-0.656312
-0.667045
-0.677071
-0.68647
-0.695216
-0.703224
-0.710957
-0.718881
-0.326424
-0.35781
-0.391125
-0.422703
-0.453474
-0.482091
-0.508333
-0.531718
-0.55221
-0.569965
-0.585358
-0.598855
-0.61092
-0.62194
-0.632193
-0.64184
-0.650953
-0.659535
-0.667521
-0.674798
-0.681748
-0.688803
-0.343137
-0.372678
-0.40381
-0.432607
-0.460126
-0.485009
-0.507273
-0.526658
-0.543397
-0.557834
-0.570446
-0.5817
-0.591994
-0.601612
-0.610727
-0.61941
-0.627662
-0.63544
-0.642655
-0.649184
-0.655341
-0.661526
-0.359125
-0.386941
-0.41586
-0.441806
-0.466011
-0.487219
-0.505729
-0.521518
-0.535031
-0.546723
-0.55709
-0.56655
-0.575408
-0.583853
-0.59197
-0.599765
-0.60719
-0.614176
-0.620623
-0.626408
-0.631784
-0.637121
-0.373854
-0.399772
-0.426313
-0.449438
-0.470476
-0.488345
-0.503585
-0.516369
-0.527274
-0.536796
-0.545403
-0.553437
-0.56112
-0.568562
-0.575786
-0.582752
-0.589387
-0.595607
-0.601309
-0.606375
-0.611004
-0.615538
-0.388047
-0.412281
-0.436527
-0.456851
-0.474793
-0.489538
-0.501844
-0.512042
-0.520768
-0.528501
-0.535648
-0.542473
-0.549124
-0.555651
-0.562035
-0.568209
-0.574084
-0.579565
-0.584554
-0.588939
-0.592872
-0.596662
-0.39972
-0.422068
-0.443782
-0.461704
-0.477069
-0.489409
-0.499516
-0.507824
-0.514959
-0.521366
-0.527391
-0.533242
-0.539017
-0.544734
-0.55035
-0.555787
-0.56095
-0.565743
-0.570072
-0.573833
-0.577138
-0.580263
-0.412087
-0.432664
-0.452165
-0.467698
-0.480558
-0.490632
-0.498718
-0.505328
-0.511037
-0.516243
-0.521227
-0.526145
-0.531061
-0.535967
-0.540808
-0.545502
-0.549951
-0.554063
-0.557749
-0.560914
-0.563637
-0.566169
-0.417
-0.437515
-0.454267
-0.468526
-0.479902
-0.488878
-0.495981
-0.50176
-0.506709
-0.511196
-0.515476
-0.519695
-0.523915
-0.528135
-0.532311
-0.536367
-0.540214
-0.543761
-0.546923
-0.54961
-0.551869
-0.553914
-0.431959
-0.449307
-0.463237
-0.475123
-0.484258
-0.491344
-0.496864
-0.501348
-0.505221
-0.508785
-0.512235
-0.515675
-0.519141
-0.522622
-0.52607
-0.529418
-0.532583
-0.535486
-0.538055
-0.540215
-0.541994
-0.54356
-0.452288
-0.465777
-0.475006
-0.483138
-0.489162
-0.494057
-0.498033
-0.50147
-0.50458
-0.507524
-0.510392
-0.513232
-0.516055
-0.518842
-0.521556
-0.524145
-0.526551
-0.528718
-0.530597
-0.532143
-0.533389
-0.534465
-0.46167
-0.473305
-0.479904
-0.4864
-0.490969
-0.494889
-0.498083
-0.500896
-0.503442
-0.505838
-0.508149
-0.510408
-0.512627
-0.514794
-0.516882
-0.518854
-0.520665
-0.522273
-0.523645
-0.52475
-0.525611
-0.526318
-0.468502
-0.478546
-0.483162
-0.48844
-0.491919
-0.495097
-0.497678
-0.499989
-0.502071
-0.504013
-0.505856
-0.507629
-0.509339
-0.510982
-0.51254
-0.513987
-0.51529
-0.516422
-0.517359
-0.518085
-0.518613
-0.519003
-0.472312
-0.480915
-0.484454
-0.488929
-0.491782
-0.494482
-0.496655
-0.498593
-0.500311
-0.50188
-0.503336
-0.504704
-0.505994
-0.507208
-0.508334
-0.509354
-0.510246
-0.51099
-0.51157
-0.511979
-0.51222
-0.512327
-0.474198
-0.481462
-0.484537
-0.488387
-0.490875
-0.493222
-0.495104
-0.49676
-0.4982
-0.499483
-0.500639
-0.501693
-0.502657
-0.503535
-0.504319
-0.504999
-0.505559
-0.505984
-0.506264
-0.506398
-0.506374
-0.506207
-0.474458
-0.480573
-0.483548
-0.486943
-0.489254
-0.491373
-0.493079
-0.494551
-0.495806
-0.496892
-0.49784
-0.49867
-0.499397
-0.500025
-0.500551
-0.500967
-0.501263
-0.501428
-0.501455
-0.501347
-0.501075
-0.500634
-0.473471
-0.478722
-0.481763
-0.484871
-0.487131
-0.489133
-0.49076
-0.49214
-0.493297
-0.494272
-0.495093
-0.495781
-0.496349
-0.496802
-0.497141
-0.497359
-0.497449
-0.497402
-0.497215
-0.496894
-0.496389
-0.495679
-0.471628
-0.476316
-0.479486
-0.482462
-0.484761
-0.486748
-0.48838
-0.489749
-0.490883
-0.49182
-0.492585
-0.493198
-0.493672
-0.494013
-0.494222
-0.494296
-0.49423
-0.494016
-0.493654
-0.493151
-0.492437
-0.491476
-0.46936
-0.473751
-0.47707
-0.480042
-0.482441
-0.484491
-0.486193
-0.487613
-0.488784
-0.489738
-0.490501
-0.491091
-0.491521
-0.491798
-0.491926
-0.491902
-0.491724
-0.491386
-0.49089
-0.490244
-0.489359
-0.488185
-0.467105
-0.471402
-0.474881
-0.477932
-0.48047
-0.482633
-0.484444
-0.485956
-0.487201
-0.488211
-0.489008
-0.489612
-0.490034
-0.490285
-0.490369
-0.490287
-0.490039
-0.489621
-0.489038
-0.488298
-0.487299
-0.485977
-0.465151
-0.46949
-0.473128
-0.476307
-0.479
-0.481301
-0.483242
-0.484868
-0.486211
-0.4873
-0.488157
-0.488801
-0.489245
-0.489499
-0.48957
-0.489465
-0.489186
-0.488733
-0.488117
-0.487346
-0.486312
-0.484943
-0.463836
-0.468296
-0.472088
-0.475412
-0.478258
-0.4807
-0.482774
-0.484521
-0.485971
-0.487153
-0.488087
-0.48879
-0.489277
-0.489558
-0.489644
-0.489543
-0.489265
-0.488819
-0.48822
-0.487484
-0.486513
-0.485233
-0.46299
-0.467583
-0.471494
-0.47494
-0.47791
-0.480471
-0.48266
-0.484514
-0.486065
-0.487338
-0.488352
-0.489123
-0.489663
-0.489983
-0.490095
-0.490013
-0.489753
-0.489339
-0.488798
-0.488165
-0.487381
-0.486381
-0.463128
-0.467863
-0.471924
-0.475518
-0.478637
-0.481344
-0.483678
-0.48568
-0.487381
-0.488808
-0.489977
-0.490899
-0.49158
-0.492021
-0.492223
-0.492191
-0.49194
-0.491497
-0.490909
-0.490249
-0.489585
-0.488991
1.19268
1.24353
1.29431
1.34492
1.39494
1.44397
1.4916
1.53744
1.58111
1.62221
1.6604
1.69534
1.72673
1.75434
1.77805
1.79792
1.81429
1.82786
1.83959
1.85073
1.86412
1.88168
1.18438
1.23492
1.28506
1.33503
1.38436
1.43266
1.47954
1.5246
1.56745
1.60773
1.64507
1.67915
1.70968
1.73642
1.75929
1.77834
1.79395
1.80687
1.81809
1.82888
1.8421
1.8596
1.16408
1.21392
1.26277
1.31148
1.35951
1.40646
1.45194
1.49556
1.53693
1.57569
1.61148
1.64398
1.6729
1.69802
1.71927
1.73675
1.7509
1.76253
1.77274
1.78284
1.79569
1.81305
1.13498
1.18377
1.23066
1.27743
1.32346
1.36829
1.41158
1.45294
1.492
1.52837
1.56173
1.59175
1.61816
1.64076
1.65949
1.67454
1.68641
1.69605
1.70468
1.7137
1.72595
1.74306
1.09643
1.1438
1.18812
1.23239
1.27579
1.3179
1.35836
1.39679
1.43283
1.46611
1.4963
1.52309
1.54621
1.56549
1.58091
1.59274
1.6016
1.60859
1.6151
1.62266
1.63409
1.65083
1.05014
1.09574
1.13691
1.17811
1.2183
1.25705
1.29403
1.32887
1.3612
1.39067
1.41696
1.43976
1.45882
1.47399
1.48532
1.49314
1.49825
1.50194
1.50579
1.5115
1.52186
1.53808
0.997059
1.04055
1.07807
1.11573
1.15221
1.18708
1.22004
1.25071
1.27874
1.30379
1.32554
1.34368
1.358
1.36836
1.37485
1.37794
1.37859
1.37831
1.37897
1.38241
1.39143
1.40694
0.938936
0.979979
1.01343
1.04713
1.07944
1.10996
1.13839
1.16438
1.18756
1.20761
1.22421
1.23708
1.24599
1.25086
1.25183
1.24949
1.24498
1.24011
1.23701
1.23777
1.24513
1.25972
0.877283
0.915541
0.9446
0.974035
1.00185
1.02767
1.05122
1.07213
1.09006
1.10467
1.11565
1.12273
1.1257
1.12448
1.1193
1.11086
1.10053
1.09042
1.08299
1.0806
1.08596
1.09934
0.814068
0.84925
0.87369
0.898608
0.921632
0.942431
0.960747
0.976204
0.988463
0.997199
1.00211
1.00291
0.99941
0.991563
0.979649
0.964504
0.947733
0.931768
0.919468
0.913469
0.916459
0.928315
0.750673
0.782443
0.802205
0.822536
0.840691
0.856391
0.869374
0.879258
0.8857
0.888375
0.886971
0.881214
0.870903
0.856012
0.836878
0.814468
0.79064
0.768184
0.750397
0.740256
0.740428
0.750361
0.689304
0.717373
0.732404
0.747985
0.761083
0.771471
0.778879
0.782921
0.783253
0.77955
0.771501
0.758834
0.74135
0.719039
0.692288
0.662197
0.63087
0.601479
0.577773
0.56311
0.5601
0.567696
0.630319
0.654341
0.665067
0.676169
0.684503
0.689881
0.692006
0.690476
0.684937
0.675043
0.660469
0.640924
0.616195
0.586264
0.551553
0.513284
0.47383
0.436794
0.406466
0.386666
0.37997
0.384764
0.576997
0.595997
0.602336
0.608724
0.61208
0.612197
0.608752
0.601339
0.589598
0.573181
0.551764
0.52506
0.492864
0.455177
0.412473
0.366098
0.31867
0.274183
0.237395
0.212525
0.202008
0.203524
0.52712
0.541018
0.544377
0.546709
0.545924
0.54167
0.533556
0.521155
0.504067
0.481905
0.454301
0.420918
0.381498
0.335995
0.284868
0.229549
0.172949
0.119619
0.075092
0.0442924
0.029678
0.0279753
0.489308
0.491454
0.491837
0.489873
0.484134
0.474614
0.460853
0.442447
0.419005
0.390141
0.355494
0.314745
0.267679
0.214347
0.155392
0.09254
0.0290832
-0.0300539
-0.079117
-0.113202
-0.130393
-0.13475
0.449446
0.441941
0.437374
0.428205
0.415147
0.397972
0.376219
0.349571
0.31769
0.280266
0.237022
0.187761
0.132462
0.0714927
0.00596149
-0.0618724
-0.128337
-0.188581
-0.237514
-0.271297
-0.289284
-0.296247
0.402037
0.387624
0.378276
0.362625
0.343362
0.319593
0.291015
0.257348
0.2183
0.173623
0.123124
0.0667217
0.00457683
-0.0626618
-0.133507
-0.20529
-0.274074
-0.33509
-0.383785
-0.417186
-0.43579
-0.444995
0.351825
0.331634
0.317078
0.295179
0.269935
0.239863
0.204911
0.164796
0.119278
0.0681679
0.0113455
-0.051154
-0.118978
-0.191184
-0.265913
-0.340137
-0.40976
-0.470234
-0.517647
-0.549931
-0.568591
-0.579352
0.299629
0.274367
0.254561
0.22691
0.196075
0.160187
0.119425
0.0734918
0.0222111
-0.0345435
-0.0968009
-0.164381
-0.236702
-0.312502
-0.389553
-0.464554
-0.533404
-0.591964
-0.637098
-0.667648
-0.685952
-0.697789
0.246534
0.216853
0.191997
0.159197
0.123296
0.0822481
0.0364048
-0.0145425
-0.0706993
-0.132127
-0.19875
-0.27022
-0.345705
-0.423617
-0.501416
-0.575644
-0.642362
-0.697988
-0.740205
-0.768699
-0.786423
-0.799003
0.193725
0.160237
0.130698
0.0933994
0.0530351
0.00754928
-0.0425938
-0.0976969
-0.157795
-0.222876
-0.292742
-0.366857
-0.444123
-0.522652
-0.599669
-0.671698
-0.735123
-0.787023
-0.825906
-0.852173
-0.869189
-0.882265
0.142017
0.105328
0.0716024
0.030505
-0.0136378
-0.0627708
-0.116372
-0.17472
-0.237776
-0.305446
-0.377391
-0.452866
-0.530511
-0.60818
-0.68297
-0.751535
-0.810723
-0.858341
-0.893664
-0.917664
-0.933921
-0.947318
0.0924066
0.0531135
0.0157866
-0.0283965
-0.0755961
-0.127569
-0.183776
-0.24445
-0.309479
-0.37867
-0.451523
-0.527078
-0.603728
-0.679143
-0.750412
-0.814468
-0.868734
-0.91175
-0.94347
-0.965273
-0.980779
-0.994367
0.0452169
0.00390547
-0.0363813
-0.0829227
-0.132423
-0.186409
-0.244347
-0.306412
-0.372413
-0.442037
-0.514616
-0.588972
-0.663296
-0.735163
-0.80179
-0.86052
-0.909414
-0.947718
-0.975931
-0.995676
-1.01047
-1.02414
0.00123118
-0.0415332
-0.0841181
-0.132317
-0.183385
-0.238599
-0.297443
-0.360017
-0.426041
-0.49507
-0.566251
-0.638211
-0.708999
-0.776207
-0.837312
-0.89017
-0.933505
-0.967183
-0.992106
-1.00999
-1.02412
-1.03778
-0.0399146
-0.0836056
-0.127832
-0.177006
-0.228914
-0.28458
-0.343509
-0.405712
-0.47081
-0.538208
-0.606877
-0.675284
-0.741423
-0.803025
-0.857951
-0.904635
-0.942433
-0.971716
-0.993636
-1.00986
-1.02338
-1.03692
-0.0774533
-0.121567
-0.166803
-0.21633
-0.268423
-0.323855
-0.382146
-0.443203
-0.506532
-0.571383
-0.636567
-0.700449
-0.761066
-0.816413
-0.864826
-0.905335
-0.937851
-0.963116
-0.982381
-0.997168
-1.0101
-1.02341
-0.112586
-0.15669
-0.202357
-0.251658
-0.303308
-0.35784
-0.414777
-0.473908
-0.534613
-0.595992
-0.656732
-0.715182
-0.769542
-0.818182
-0.859971
-0.894503
-0.922132
-0.943817
-0.960779
-0.974313
-0.98665
-0.999581
-0.143948
-0.18762
-0.233182
-0.281746
-0.332418
-0.385491
-0.44048
-0.497043
-0.554432
-0.611619
-0.66723
-0.719694
-0.767482
-0.809408
-0.844871
-0.873938
-0.897263
-0.915876
-0.930869
-0.94327
-0.954916
-0.967205
-0.123464
-0.16748
-0.213495
-0.262577
-0.313847
-0.367567
-0.42324
-0.480487
-0.538526
-0.596283
-0.652342
-0.705104
-0.753035
-0.794964
-0.830322
-0.859214
-0.882324
-0.900707
-0.915467
-0.927641
-0.939049
-0.951071
-0.0920076
-0.13647
-0.182601
-0.232405
-0.284634
-0.339781
-0.397368
-0.457151
-0.518478
-0.580405
-0.641574
-0.700298
-0.754762
-0.803349
-0.844962
-0.879243
-0.906588
-0.927986
-0.944677
-0.957959
-0.970038
-0.98268
-0.0570052
-0.101489
-0.147204
-0.197224
-0.249878
-0.305897
-0.364804
-0.42648
-0.490403
-0.555782
-0.621378
-0.685515
-0.746206
-0.80145
-0.849616
-0.889792
-0.921942
-0.946852
-0.965798
-0.980306
-0.992962
-1.00597
-0.0198751
-0.0639465
-0.108677
-0.158337
-0.210793
-0.267022
-0.326537
-0.389326
-0.454989
-0.522892
-0.59196
-0.660612
-0.726805
-0.788266
-0.842884
-0.889154
-0.926498
-0.955349
-0.976892
-0.992807
-1.00604
-1.01928
0.0205818
-0.0225699
-0.0656897
-0.114374
-0.165985
-0.221744
-0.28115
-0.344284
-0.41085
-0.480369
-0.551943
-0.62415
-0.694991
-0.762042
-0.822797
-0.875173
-0.917972
-0.951135
-0.975618
-0.993154
-1.00699
-1.02036
0.0635921
0.0218863
-0.0189745
-0.0660094
-0.116055
-0.170578
-0.229065
-0.291672
-0.3582
-0.428307
-0.501282
-0.5759
-0.650297
-0.722017
-0.788282
-0.846485
-0.894775
-0.932487
-0.960195
-0.979555
-0.994048
-1.00744
0.109536
0.0698404
0.0318942
-0.0127995
-0.0605562
-0.113071
-0.169823
-0.231035
-0.296587
-0.366263
-0.439529
-0.515376
-0.592141
-0.667449
-0.738378
-0.801897
-0.855515
-0.897878
-0.929033
-0.950413
-0.965615
-0.978939
0.15766
0.120557
0.0861604
0.0445244
-0.000197338
-0.0498886
-0.104046
-0.162941
-0.22653
-0.294701
-0.367088
-0.442902
-0.520724
-0.598355
-0.672862
-0.740922
-0.799455
-0.846382
-0.881092
-0.904637
-0.920588
-0.933752
0.207687
0.173764
0.143499
0.105623
0.0646485
0.018575
-0.0321486
-0.0878226
-0.148477
-0.21409
-0.284442
-0.358957
-0.436482
-0.51507
-0.591902
-0.663498
-0.726305
-0.77751
-0.815756
-0.841542
-0.858259
-0.87114
0.258677
0.228529
0.202892
0.169464
0.132912
0.0912346
0.044773
-0.0067833
-0.0635366
-0.125542
-0.192708
-0.264654
-0.340497
-0.41859
-0.496334
-0.570248
-0.63643
-0.6914
-0.732982
-0.760989
-0.778426
-0.79086
0.309878
0.284102
0.263461
0.23512
0.203587
0.167018
0.125589
0.0789952
0.0270643
-0.0303275
-0.0931977
-0.161342
-0.234137
-0.310257
-0.387413
-0.462257
-0.530702
-0.588692
-0.633229
-0.663306
-0.681349
-0.6931
0.360183
0.33941
0.323972
0.301312
0.275317
0.244505
0.208825
0.16799
0.121756
0.0699369
0.0124196
-0.0507434
-0.119164
-0.191848
-0.266862
-0.341123
-0.410516
-0.470553
-0.517452
-0.549305
-0.567744
-0.578491
0.408563
0.39347
0.383209
0.366721
0.346649
0.322077
0.292705
0.258247
0.218408
0.17294
0.121655
0.0644815
0.00160856
-0.0662675
-0.137592
-0.209626
-0.27839
-0.339148
-0.387454
-0.420498
-0.438941
-0.448217
0.454261
0.445901
0.440398
0.430318
0.41639
0.398355
0.375744
0.348237
0.315494
0.277198
0.233078
0.182941
0.126786
0.0650201
-0.00118674
-0.0694986
-0.136183
-0.196383
-0.245094
-0.27863
-0.296535
-0.303669
0.492869
0.493965
0.493397
0.490464
0.48378
0.473329
0.458634
0.439289
0.414897
0.385069
0.349441
0.307698
0.259634
0.20533
0.14548
0.0818892
0.0179319
-0.0414271
-0.0904808
-0.124464
-0.141674
-0.146311
0.528881
0.541503
0.5439
0.545275
0.543516
0.538296
0.529205
0.515812
0.497713
0.474518
0.445856
0.411392
0.370876
0.324286
0.272129
0.215913
0.158632
0.10489
0.060192
0.0293482
0.0146085
0.012533
0.576523
0.594174
0.599556
0.604974
0.607332
0.606457
0.602002
0.59356
0.580765
0.563268
0.540742
0.512902
0.479553
0.440718
0.396913
0.349553
0.301332
0.256292
0.219178
0.19412
0.183372
0.184448
0.627862
0.650565
0.660325
0.670455
0.677779
0.682143
0.683231
0.680639
0.674006
0.662987
0.647255
0.626521
0.60058
0.569434
0.533548
0.494204
0.453846
0.416128
0.385339
0.36523
0.358212
0.362512
0.684937
0.711738
0.725796
0.740408
0.752492
0.761859
0.76822
0.771183
0.770405
0.765556
0.756325
0.742443
0.723718
0.70016
0.672194
0.640975
0.608671
0.578505
0.554233
0.539167
0.535771
0.542845
0.744699
0.775304
0.794105
0.813483
0.830638
0.845323
0.857261
0.866065
0.871393
0.872915
0.870321
0.863339
0.851776
0.835622
0.815249
0.791676
0.766818
0.743517
0.725087
0.714473
0.714216
0.72362
0.806794
0.84091
0.864409
0.888398
0.910448
0.930254
0.947545
0.961943
0.973105
0.980707
0.984441
0.984039
0.979303
0.970209
0.957064
0.940753
0.922933
0.906088
0.893099
0.886587
0.889129
0.900468
0.869113
0.906419
0.934579
0.963129
0.990016
1.01488
1.03745
1.05734
1.0742
1.08772
1.09757
1.10348
1.10525
1.10283
1.09645
1.08687
1.0755
1.0645
1.05637
1.05344
1.05835
1.07124
0.930291
0.970495
1.00311
1.03597
1.06741
1.09703
1.12454
1.14956
1.17175
1.19077
1.2063
1.21807
1.22586
1.22958
1.22942
1.22598
1.22048
1.21474
1.21095
1.21118
1.21812
1.23225
0.988393
1.03116
1.06792
1.10481
1.1405
1.17455
1.20666
1.23645
1.26357
1.28767
1.30843
1.32557
1.33885
1.34815
1.35361
1.35569
1.3554
1.35432
1.35431
1.35726
1.36587
1.38098
1.04189
1.08689
1.12738
1.16791
1.20739
1.24541
1.28164
1.3157
1.34721
1.37585
1.40126
1.42316
1.4413
1.45555
1.46594
1.47286
1.47713
1.48008
1.48334
1.48859
1.4986
1.51446
1.08903
1.13591
1.17965
1.22335
1.26616
1.30764
1.34746
1.38523
1.42058
1.45314
1.48259
1.50861
1.53095
1.54943
1.56406
1.57511
1.58325
1.58961
1.5956
1.60277
1.61389
1.63033
1.1288
1.17721
1.22364
1.26996
1.3155
1.35984
1.40262
1.44344
1.48194
1.51774
1.5505
1.57991
1.60569
1.62764
1.64574
1.66016
1.67145
1.68058
1.68878
1.69748
1.70949
1.72636
1.15943
1.209
1.25751
1.30589
1.35358
1.40016
1.44526
1.48849
1.52946
1.5678
1.60315
1.6352
1.66366
1.68831
1.70909
1.72612
1.73984
1.75109
1.76098
1.77085
1.78352
1.8007
1.1815
1.23188
1.28181
1.33157
1.3807
1.42878
1.47542
1.52024
1.56285
1.60287
1.63995
1.67375
1.704
1.73046
1.75303
1.77181
1.78716
1.79984
1.81087
1.82152
1.83462
1.85202
1.19171
1.2425
1.29321
1.34375
1.3937
1.44265
1.49021
1.53597
1.57955
1.62057
1.65867
1.69352
1.72481
1.75233
1.77594
1.79572
1.812
1.82549
1.83716
1.84825
1.8616
1.87913
-0.152632
-0.1812
-0.206265
-0.230056
-0.252188
-0.272906
-0.292333
-0.3107
-0.327943
-0.34436
-0.359433
-0.373862
-0.385729
-0.398192
-0.40333
-0.418394
-0.439088
-0.44882
-0.455872
-0.459795
-0.461728
-0.462
-0.460994
-0.459097
-0.456745
-0.454379
-0.452306
-0.450855
-0.449911
-0.449884
-0.195735
-0.223081
-0.246697
-0.268834
-0.28922
-0.308135
-0.325708
-0.342269
-0.357654
-0.372342
-0.385518
-0.398281
-0.408273
-0.419009
-0.424008
-0.435943
-0.452834
-0.460611
-0.466031
-0.468514
-0.469126
-0.468262
-0.466398
-0.463942
-0.461294
-0.458838
-0.456813
-0.455494
-0.454694
-0.454829
-0.241098
-0.267413
-0.28971
-0.310263
-0.328906
-0.345944
-0.361518
-0.376013
-0.389208
-0.401681
-0.412472
-0.422948
-0.4304
-0.438931
-0.441152
-0.450275
-0.462475
-0.467575
-0.470958
-0.472305
-0.472402
-0.471406
-0.469591
-0.467255
-0.464757
-0.462465
-0.460605
-0.459451
-0.458776
-0.459081
-0.288939
-0.313628
-0.334041
-0.352443
-0.368771
-0.383342
-0.396318
-0.408107
-0.418505
-0.428116
-0.436072
-0.443742
-0.448768
-0.454902
-0.455787
-0.462522
-0.470883
-0.474266
-0.476383
-0.476904
-0.476372
-0.474919
-0.472815
-0.470349
-0.467848
-0.465642
-0.463918
-0.46292
-0.462375
-0.462846
-0.338712
-0.361493
-0.37973
-0.39565
-0.409294
-0.420977
-0.430901
-0.439488
-0.446613
-0.452889
-0.457652
-0.4622
-0.464616
-0.468217
-0.467565
-0.472025
-0.477181
-0.479052
-0.480036
-0.479903
-0.478985
-0.477343
-0.475181
-0.472752
-0.470354
-0.468292
-0.46673
-0.465895
-0.465481
-0.466117
-0.390448
-0.410806
-0.426331
-0.439198
-0.449546
-0.457707
-0.463952
-0.468743
-0.4721
-0.474663
-0.476046
-0.477427
-0.47739
-0.478681
-0.476882
-0.479408
-0.48227
-0.483116
-0.483328
-0.482701
-0.481424
-0.479549
-0.477269
-0.474825
-0.472494
-0.470551
-0.469134
-0.468451
-0.468162
-0.468959
-0.443625
-0.461013
-0.473257
-0.482476
-0.488919
-0.492974
-0.495023
-0.495611
-0.494944
-0.493703
-0.491761
-0.490152
-0.487864
-0.487087
-0.484266
-0.485164
-0.4864
-0.48643
-0.486008
-0.484962
-0.483388
-0.481332
-0.47897
-0.476532
-0.474273
-0.472445
-0.471165
-0.470624
-0.470456
-0.471411
-0.497728
-0.511466
-0.519745
-0.524638
-0.52654
-0.525947
-0.523402
-0.519569
-0.514845
-0.509946
-0.504937
-0.500683
-0.496455
-0.493934
-0.490253
-0.489818
-0.489946
-0.489331
-0.488393
-0.486969
-0.485109
-0.482867
-0.480412
-0.477963
-0.475759
-0.474028
-0.472869
-0.472456
-0.472403
-0.473517
-0.551863
-0.561193
-0.564796
-0.56473
-0.561579
-0.556002
-0.548728
-0.540547
-0.532009
-0.523819
-0.516143
-0.509654
-0.503793
-0.49981
-0.495352
-0.493812
-0.493137
-0.491947
-0.490537
-0.488745
-0.486604
-0.484175
-0.481621
-0.479152
-0.476987
-0.475335
-0.474279
-0.473981
-0.474034
-0.475309
-0.604882
-0.609041
-0.607328
-0.601827
-0.593341
-0.582726
-0.57088
-0.558685
-0.546768
-0.535774
-0.525877
-0.517555
-0.510337
-0.505127
-0.499943
-0.49746
-0.496141
-0.494398
-0.49253
-0.490363
-0.487934
-0.485307
-0.482641
-0.480134
-0.47799
-0.476397
-0.475426
-0.475227
-0.475376
-0.476814
-0.655407
-0.653767
-0.646314
-0.635189
-0.621414
-0.606025
-0.590036
-0.574354
-0.559604
-0.546317
-0.53462
-0.524807
-0.516449
-0.510183
-0.504294
-0.500969
-0.499058
-0.496755
-0.494418
-0.491862
-0.489131
-0.486294
-0.483501
-0.480939
-0.478794
-0.477239
-0.476333
-0.476216
-0.47645
-0.478051
-0.702037
-0.694261
-0.680987
-0.664409
-0.645729
-0.626104
-0.606584
-0.588029
-0.570994
-0.555878
-0.542731
-0.531692
-0.522352
-0.515147
-0.508562
-0.504454
-0.501939
-0.499056
-0.496231
-0.493268
-0.490221
-0.487158
-0.484222
-0.481585
-0.479419
-0.477881
-0.477018
-0.476966
-0.477272
-0.479031
-0.743602
-0.729761
-0.710984
-0.689477
-0.666546
-0.643389
-0.621016
-0.600188
-0.581355
-0.564784
-0.55045
-0.538372
-0.528157
-0.520093
-0.51282
-0.507957
-0.504799
-0.501313
-0.497978
-0.494594
-0.491218
-0.487916
-0.484819
-0.482087
-0.479879
-0.478336
-0.477497
-0.477491
-0.477854
-0.479761
-0.779397
-0.759997
-0.736388
-0.710729
-0.684348
-0.658407
-0.633823
-0.611236
-0.590989
-0.573239
-0.557901
-0.544911
-0.533891
-0.525021
-0.517071
-0.511471
-0.507622
-0.503516
-0.499657
-0.495841
-0.492126
-0.488571
-0.485299
-0.482454
-0.480182
-0.478614
-0.47778
-0.477805
-0.478209
-0.480243
-0.809303
-0.785194
-0.757654
-0.728734
-0.699713
-0.671673
-0.645417
-0.62147
-0.600086
-0.581341
-0.565117
-0.551296
-0.539518
-0.529881
-0.521276
-0.514952
-0.510371
-0.50564
-0.50125
-0.496999
-0.49294
-0.489124
-0.485661
-0.482686
-0.480332
-0.478721
-0.477876
-0.477916
-0.478348
-0.480479
-0.833751
-0.805966
-0.775461
-0.744142
-0.713199
-0.683617
-0.656096
-0.631071
-0.608732
-0.58911
-0.57207
-0.557469
-0.544966
-0.534594
-0.525361
-0.518332
-0.512996
-0.507647
-0.50273
-0.49805
-0.493648
-0.489566
-0.485902
-0.482781
-0.480328
-0.478658
-0.477789
-0.477835
-0.478287
-0.480474
-0.853558
-0.823135
-0.790554
-0.757566
-0.725266
-0.694552
-0.666045
-0.64012
-0.616937
-0.596506
-0.578693
-0.563345
-0.550142
-0.539066
-0.529239
-0.521532
-0.515439
-0.509494
-0.504068
-0.498974
-0.494236
-0.489887
-0.486014
-0.482734
-0.480167
-0.478425
-0.477524
-0.477572
-0.478043
-0.480242
-0.869718
-0.837561
-0.803623
-0.769514
-0.736254
-0.704677
-0.675356
-0.648637
-0.624671
-0.603466
-0.584905
-0.568833
-0.554954
-0.543205
-0.532821
-0.524472
-0.517643
-0.51114
-0.505234
-0.499749
-0.494689
-0.490075
-0.485988
-0.482538
-0.479844
-0.478019
-0.477083
-0.477135
-0.477637
-0.47981
-0.883146
-0.84995
-0.815166
-0.780304
-0.746334
-0.714054
-0.684016
-0.656561
-0.631847
-0.609896
-0.590607
-0.573836
-0.559308
-0.546923
-0.536021
-0.527081
-0.519561
-0.512549
-0.506206
-0.500361
-0.494997
-0.490127
-0.485822
-0.482193
-0.479361
-0.477446
-0.476472
-0.47654
-0.4771
-0.479228
-0.894609
-0.860837
-0.825516
-0.790109
-0.75556
-0.722656
-0.691947
-0.663787
-0.638349
-0.615674
-0.595683
-0.578243
-0.5631
-0.550124
-0.538749
-0.529283
-0.521147
-0.51369
-0.506965
-0.500801
-0.495159
-0.490044
-0.485522
-0.481707
-0.478727
-0.476714
-0.475705
-0.475805
-0.476465
-0.478568
-0.905596
-0.871467
-0.835692
-0.799759
-0.764614
-0.731045
-0.699617
-0.670702
-0.644495
-0.621059
-0.600336
-0.582211
-0.566447
-0.552894
-0.541055
-0.531107
-0.522435
-0.514591
-0.507529
-0.501074
-0.495165
-0.489798
-0.48504
-0.481011
-0.477854
-0.47572
-0.474671
-0.474829
-0.475675
-0.477897
-0.917251
-0.882792
-0.846476
-0.809916
-0.774069
-0.739734
-0.707492
-0.677736
-0.650685
-0.626422
-0.604912
-0.586054
-0.56963
-0.555485
-0.543161
-0.532729
-0.52356
-0.515341
-0.507959
-0.501218
-0.495032
-0.489388
-0.484356
-0.480069
-0.476692
-0.474402
-0.473297
-0.473537
-0.47466
-0.477291
0.0338271
0.0338118
0.0337609
0.0336908
0.0336056
0.0335205
0.0334506
0.0334153
0.0334347
0.0335299
0.0337212
0.0340275
0.0344659
0.0350504
0.0357913
0.0366951
0.0377638
0.0389949
0.0403813
0.0419118
0.043571
0.0453401
0.0471961
0.0491142
0.0330479
0.0330392
0.0329972
0.0329402
0.03287
0.0328018
0.0327495
0.0327318
0.0327681
0.0328789
0.0330842
0.0334031
0.0338526
0.0344472
0.0351977
0.0361113
0.0371903
0.038433
0.0398325
0.0413782
0.043055
0.0448443
0.0467232
0.0486671
0.032295
0.0322919
0.0322584
0.032214
0.0321585
0.032107
0.032072
0.0320717
0.0321246
0.0322507
0.0324699
0.0328011
0.0332616
0.0338663
0.0346266
0.03555
0.0366397
0.0378942
0.0393073
0.0408686
0.0425634
0.0443734
0.0462758
0.048246
0.0315641
0.0315655
0.0315403
0.0315078
0.0314667
0.0314314
0.0314134
0.0314301
0.0314993
0.0316405
0.0318733
0.0322166
0.0326882
0.033303
0.0340733
0.035007
0.0361078
0.0373747
0.0388021
0.0403797
0.0420932
0.0439246
0.0458512
0.0478485
0.0308507
0.0308557
0.0308384
0.0308171
0.0307899
0.0307703
0.0307689
0.0308022
0.0308872
0.0310432
0.0312894
0.0316449
0.0321275
0.0327528
0.0335335
0.034478
0.0355907
0.0368709
0.0383133
0.0399083
0.0416415
0.0434953
0.045447
0.0474723
0.0301505
0.0301581
0.0301481
0.0301374
0.0301235
0.030119
0.0301336
0.0301829
0.0302835
0.030454
0.0307134
0.031081
0.0315749
0.0322112
0.0330028
0.033959
0.0350844
0.0363789
0.0378376
0.039451
0.0412052
0.0430826
0.0450607
0.0471151
0.029459
0.0294683
0.0294651
0.0294642
0.0294629
0.0294728
0.0295028
0.0295677
0.0296833
0.0298679
0.0301405
0.0305204
0.0310259
0.0316736
0.0324771
0.0334459
0.0345852
0.0358953
0.0373716
0.0390049
0.0407814
0.0426838
0.0446897
0.0467746
0.0287718
0.028782
0.0287852
0.0287931
0.0288038
0.0288274
0.028872
0.0289518
0.029082
0.0292805
0.0295662
0.0299584
0.0304761
0.031136
0.0319522
0.0329348
0.0340894
0.0354165
0.0369119
0.0385667
0.0403672
0.0422963
0.0443315
0.0464485
0.0280849
0.0280951
0.0281041
0.0281201
0.028142
0.0281783
0.0282369
0.0283309
0.0284752
0.0286873
0.028986
0.029391
0.0299213
0.0305942
0.0314243
0.0324221
0.0335934
0.0349393
0.0364555
0.0381336
0.0399599
0.0419175
0.0439839
0.0461347
0.0273942
0.0274037
0.0274179
0.0274412
0.0274734
0.0275215
0.0275933
0.0277009
0.0278587
0.0280841
0.028396
0.028814
0.0293576
0.0300446
0.0308899
0.0319043
0.0330941
0.0344604
0.0359995
0.0377027
0.0395569
0.0415449
0.0436444
0.045831
0.0266959
0.0267041
0.0267229
0.0267526
0.0267942
0.0268533
0.0269373
0.0270578
0.0272287
0.0274672
0.0277923
0.0282238
0.0287816
0.0294838
0.0303456
0.0313783
0.0325883
0.0339771
0.035541
0.0372715
0.0391556
0.0411762
0.0433109
0.0455352
0.0259863
0.0259927
0.0260156
0.0260508
0.0261009
0.0261701
0.0262655
0.0263981
0.0265816
0.0268331
0.0271715
0.0276171
0.0281899
0.0289084
0.0297883
0.030841
0.0320732
0.0334865
0.0350774
0.0368375
0.0387537
0.0408091
0.0429812
0.0452455
0.0252622
0.0252664
0.0252928
0.0253326
0.0253904
0.0254687
0.0255747
0.0257187
0.0259144
0.0261787
0.0265306
0.0269908
0.0275796
0.0283158
0.0292153
0.0302899
0.0315463
0.0329863
0.0346063
0.0363983
0.038349
0.0404415
0.0426534
0.0449598
0.0245205
0.0245222
0.0245514
0.0245952
0.0246598
0.0247462
0.024862
0.0250167
0.0252242
0.0255011
0.025867
0.0263424
0.0269482
0.0277035
0.0286243
0.0297225
0.0310052
0.0324741
0.0341257
0.0359519
0.0379394
0.0400715
0.0423254
0.0446764
0.0237585
0.0237574
0.023789
0.023836
0.0239065
0.0240002
0.0241249
0.0242897
0.0245085
0.0247981
0.0251782
0.0256696
0.0262935
0.0270692
0.028013
0.0291369
0.030448
0.031948
0.0336335
0.0354962
0.0375231
0.0396971
0.0419955
0.0443934
0.0229738
0.0229697
0.0230033
0.0230528
0.0231284
0.0232285
0.0233613
0.0235357
0.0237655
0.0240678
0.0244624
0.0249706
0.0256137
0.0264113
0.0273798
0.0285313
0.0298729
0.0314062
0.0331279
0.0350297
0.0370983
0.0393166
0.0416619
0.0441091
0.0221642
0.0221572
0.0221923
0.0222437
0.0223236
0.0224294
0.0225696
0.0227529
0.0229935
0.0233085
0.023718
0.0242438
0.0249073
0.0257282
0.0267232
0.0279042
0.0292784
0.0308473
0.0326075
0.0345506
0.0366633
0.0389284
0.0413231
0.0438219
0.021328
0.0213182
0.0213543
0.0214071
0.0214906
0.0216013
0.0217483
0.0219401
0.0221912
0.022519
0.022944
0.0234882
0.0241731
0.0250189
0.0260419