/*--------------------------------*- C++ -*----------------------------------*\
| =========                 |                                                 |
| \\      /  F ield         | OpenFOAM Extend Project: Open source CFD        |
|  \\    /   O peration     | Version:  1.6-ext                               |
|   \\  /    A nd           | Web:      www.extend-project.de                 |
|    \\/     M anipulation  |                                                 |
\*---------------------------------------------------------------------------*/
FoamFile
{
    version     2.0;
    format      ascii;
    class       surfaceScalarField;
    location    "1.2";
    object      phi;
}
// * * * * * * * * * * * * * * * * * * * * * * * * * * * * * * * * * * * * * //

dimensions      [0 3 -1 0 0 0 0];

internalField   nonuniform List<scalar> 
41420
(
-0.000127368
0.000396827
-0.000397597
0.000128139
-0.000126139
0.000377878
-0.000379107
-0.000124483
0.000359278
-0.000360934
-0.000122401
0.000340927
-0.000343009
-0.000119829
0.000322821
-0.000325393
-0.000116615
0.000304744
-0.000307958
-0.00011252
0.000286346
-0.000290441
-0.000107249
0.000267153
-0.000272424
-0.000100529
0.000246684
-0.000253404
-9.22055e-05
0.000224595
-0.000232918
-8.2338e-05
0.000200836
-0.000210703
-7.12389e-05
0.000175737
-0.000186836
-5.94415e-05
0.000149988
-0.000161785
-4.76062e-05
0.000124512
-0.000136347
-3.63907e-05
0.000100275
-0.00011149
-2.63428e-05
7.81047e-05
-8.81527e-05
-1.7832e-05
5.85751e-05
-6.70858e-05
-1.104e-05
4.19669e-05
-4.87588e-05
-5.98629e-06
2.82984e-05
-3.33521e-05
-2.57501e-06
1.73909e-05
-2.08022e-05
-6.43257e-07
8.94238e-06
-1.08741e-05
2.59505e-06
-3.2383e-06
-0.00013521
0.000395879
0.000136158
-0.000133781
0.000376449
-0.000131887
0.000357384
-0.000129492
0.000338531
-0.000126479
0.000319808
-0.000122635
0.0003009
-0.000117673
0.000281383
-0.000111289
0.00026077
-0.000103265
0.00023866
-9.35651e-05
0.000214895
-8.24071e-05
0.000189677
-7.02565e-05
0.000163586
-5.77536e-05
0.000137485
-4.55889e-05
0.000112347
-3.43798e-05
8.90655e-05
-2.45815e-05
6.83065e-05
-1.64563e-05
5.04499e-05
-1.00862e-05
3.55968e-05
-5.41609e-06
2.36282e-05
-2.30342e-06
1.42782e-05
-5.62894e-07
7.20185e-06
2.03215e-06
-0.000150119
0.000394254
0.000151744
-0.000147987
0.000374316
-0.000145336
0.000354734
-0.000142075
0.00033527
-0.000138019
0.000315751
-0.000132886
0.000295767
-0.000126355
0.000274852
-0.000118151
0.000252566
-0.00010816
0.000228669
-9.65147e-05
0.00020325
-8.36213e-05
0.000176784
-7.0103e-05
0.000150068
-5.66831e-05
0.000124065
-4.40491e-05
9.97134e-05
-3.27432e-05
7.77595e-05
-2.31091e-05
5.86724e-05
-1.52919e-05
4.26327e-05
-9.27537e-06
2.95803e-05
-4.93303e-06
1.92859e-05
-2.07801e-06
1.14232e-05
-5.01757e-07
5.6256e-06
1.53039e-06
-0.000164423
0.000391976
0.000166702
-0.000161585
0.000371478
-0.000158128
0.000351277
-0.000153885
0.000331027
-0.000148594
0.00031046
-0.00014192
0.000289093
-0.000133547
0.000266479
-0.000123291
0.000242309
-0.000111203
0.000216581
-9.76263e-05
0.000189673
-8.31567e-05
0.000162314
-6.85396e-05
0.000135451
-5.45244e-05
0.00011005
-4.17368e-05
8.69259e-05
-3.06043e-05
6.6627e-05
-2.13395e-05
4.94076e-05
-1.39711e-05
3.52644e-05
-8.39482e-06
2.40039e-05
-4.42708e-06
1.53182e-05
-1.85006e-06
8.84619e-06
-4.42774e-07
4.21832e-06
1.08762e-06
-0.000177401
0.000389088
0.000180288
-0.000173857
0.000367934
-0.000169527
0.000346947
-0.000164155
0.000325655
-0.000157407
0.000303712
-0.000148931
0.000280617
-0.000138483
0.000256031
-0.00012604
0.000229867
-0.000111878
0.000202419
-9.65603e-05
0.000174355
-8.0843e-05
0.000146597
-6.55288e-05
0.000120136
-5.13219e-05
9.58431e-05
-3.87333e-05
7.43373e-05
-2.80472e-05
5.59409e-05
-1.93428e-05
4.07032e-05
-1.25434e-05
2.84649e-05
-7.47415e-06
1.89347e-05
-3.91223e-06
1.17562e-05
-1.62342e-06
6.55738e-06
-3.85443e-07
2.98034e-06
7.02177e-07
-0.000188967
0.000385611
0.000192444
-0.000184666
0.000363632
-0.000179317
0.000341598
-0.00017258
0.000318918
-0.000164083
0.000295216
-0.000153526
0.00027006
-0.000140816
0.000243322
-0.000126166
0.000215216
-0.000110101
0.000186354
-9.3381e-05
0.000157636
-7.68554e-05
0.000130072
-6.1302e-05
0.000104583
-4.73134e-05
8.18545e-05
-3.52467e-05
6.22707e-05
-2.5235e-05
4.59292e-05
-1.72339e-05
3.2702e-05
-1.10818e-05
2.23128e-05
-6.55485e-06
1.44078e-05
-3.40851e-06
8.60991e-06
-1.40554e-06
4.55441e-06
-3.3125e-07
1.90605e-06
3.70927e-07
-0.000198902
0.000381497
0.000203016
-0.000193704
0.000358434
-0.000187102
0.000334997
-0.000178692
0.000310508
-0.000168135
0.000284659
-0.000155271
0.000257196
-0.000140247
0.000228298
-0.000123548
0.000198517
-0.000105935
0.000168741
-8.82972e-05
0.000139997
-7.14814e-05
0.000113256
-5.61615e-05
8.92631e-05
-4.27687e-05
6.84617e-05
-3.14922e-05
5.09941e-05
-2.2323e-05
3.676e-05
-1.51161e-05
2.54951e-05
-9.64958e-06
1.68463e-05
-5.67167e-06
1.04299e-05
-2.93247e-06
5.87071e-06
-1.20252e-06
2.82445e-06
-2.81458e-07
9.84997e-07
8.94687e-08
-0.000206973
0.000376644
0.000211826
-0.000200655
0.000352116
-0.000192484
0.000326826
-0.000182061
0.000300085
-0.000169174
0.000271771
-0.000153904
0.000241927
-0.000136699
0.000211093
-0.000118313
0.000180131
-9.96705e-05
0.000150099
-8.16873e-05
0.000122014
-6.51156e-05
9.66842e-05
-5.04614e-05
7.46089e-05
-3.79723e-05
5.59726e-05
-2.76777e-05
4.06995e-05
-1.94518e-05
2.85341e-05
-1.30772e-05
1.91206e-05
-8.29707e-06
1.20662e-05
-4.85084e-06
6.98363e-06
-2.49596e-06
3.51583e-06
-1.01856e-06
1.34706e-06
-2.36877e-07
2.03314e-07
-1.47408e-07
-0.00021279
0.000370807
0.000218628
-0.000205027
0.000344353
-0.000194928
0.000316727
-0.000182202
0.000287359
-0.00016687
0.000256439
-0.000149325
0.000224381
-0.000130316
0.000192084
-0.000110801
0.000160616
-9.17621e-05
0.000131059
-7.40312e-05
0.000104283
-5.8192e-05
8.08451e-05
-4.45531e-05
6.097e-05
-3.31844e-05
4.46039e-05
-2.39819e-05
3.1497e-05
-1.67353e-05
2.12875e-05
-1.11848e-05
1.35701e-05
-7.06121e-06
7.94255e-06
-4.11042e-06
4.03285e-06
-2.10649e-06
1.51189e-06
-8.56008e-07
9.65783e-08
-1.97858e-07
-4.54837e-07
-3.45266e-07
-0.000215979
0.00036373
0.000223055
-0.00020642
0.000334795
-0.000194081
0.000304387
-0.000178896
0.000272174
-0.000161217
0.000238761
-0.000141772
0.000204936
-0.000121546
0.000171858
-0.000101585
0.000140655
-8.28043e-05
0.000112278
-6.58664e-05
8.73453e-05
-5.11468e-05
6.61254e-05
-3.87603e-05
4.85834e-05
-2.86277e-05
3.44714e-05
-2.05481e-05
2.34174e-05
-1.42603e-05
1.49998e-05
-9.48815e-06
8.7979e-06
-5.96773e-06
4.42212e-06
-3.46253e-06
1.52765e-06
-1.76892e-06
-1.81723e-07
-7.16322e-07
-9.56021e-07
-1.64626e-07
-1.00653e-06
-5.09892e-07
-0.000215986
0.000354956
0.000224759
-0.000204289
0.000323098
-0.00018954
0.000289638
-0.000172004
0.000254638
-0.000152378
0.000219135
-0.000131667
0.000184225
-0.000110973
0.000151164
-9.12945e-05
0.000120977
-7.33793e-05
9.43631e-05
-5.76729e-05
7.16388e-05
-4.43403e-05
5.27928e-05
-3.33332e-05
3.75763e-05
-2.44641e-05
2.56023e-05
-1.74741e-05
1.64274e-05
-1.2082e-05
9.60764e-06
-8.01591e-06
4.73179e-06
-5.03028e-06
1.43649e-06
-2.9128e-06
-5.89826e-07
-1.48502e-06
-1.6095e-06
-5.9973e-07
-1.84131e-06
-1.37063e-07
-1.4692e-06
-6.46954e-07
-0.000212701
0.000344336
0.000223322
-0.000198715
0.000309112
-0.000181623
0.000272546
-0.000162089
0.000235103
-0.00014112
0.000198167
-0.000119882
0.000162987
-9.94593e-05
0.000130741
-8.06895e-05
0.000102207
-6.40944e-05
7.7768e-05
-4.98955e-05
5.744e-05
-3.80767e-05
4.09739e-05
-2.84668e-05
2.79665e-05
-2.08116e-05
1.79471e-05
-1.48275e-05
1.04432e-05
-1.02366e-05
5.01673e-06
-6.78624e-06
1.28148e-06
-4.25721e-06
-1.09255e-06
-2.46473e-06
-2.38231e-06
-1.25615e-06
-2.81807e-06
-5.06768e-07
-2.5907e-06
-1.15389e-07
-1.86058e-06
-7.62343e-07
-0.0002056
0.000331369
0.000218567
-0.000189366
0.000292878
-0.00017032
0.0002535
-0.000149466
0.000214249
-0.00012799
0.000176691
-0.000107068
0.000142065
-8.76296e-05
0.000111303
-7.02897e-05
8.48668e-05
-5.53344e-05
6.28126e-05
-4.27901e-05
4.48957e-05
-3.25079e-05
3.06918e-05
-2.42406e-05
1.96992e-05
-1.77044e-05
1.14109e-05
-1.26176e-05
5.35634e-06
-8.72204e-06
1.12121e-06
-5.79346e-06
-1.6471e-06
-3.64279e-06
-3.24322e-06
-2.11396e-06
-3.91114e-06
-1.07954e-06
-3.85249e-06
-4.35924e-07
-3.23432e-06
-9.89714e-08
-2.19753e-06
-8.61314e-07
-0.000195301
0.000316599
0.000210071
-0.000177227
0.000274804
-0.000156804
0.000233077
-0.000135394
0.000192839
-0.000114193
0.00015549
-9.42669e-05
0.000122139
-7.63168e-05
9.33528e-05
-6.07068e-05
6.92568e-05
-4.75141e-05
4.96199e-05
-3.66173e-05
3.39989e-05
-2.77829e-05
2.18574e-05
-2.07298e-05
1.26461e-05
-1.51736e-05
5.85472e-06
-1.0852e-05
1.03467e-06
-7.53584e-06
-2.1949e-06
-5.03246e-06
-4.15048e-06
-3.18316e-06
-5.09252e-06
-1.85905e-06
-5.23525e-06
-9.55853e-07
-4.75569e-06
-3.88945e-07
-3.80123e-06
-8.92651e-08
-2.49721e-06
-9.50579e-07
-0.00018157
0.000299598
0.000198571
-0.000162262
0.000255496
-0.000141349
0.000212163
-0.000120293
0.000171784
-0.000100208
0.000135405
-8.19115e-05
0.000103842
-6.58429e-05
7.72842e-05
-5.21393e-05
5.55533e-05
-4.07216e-05
3.82021e-05
-3.1382e-05
2.46593e-05
-2.38537e-05
1.43291e-05
-1.78581e-05
6.65051e-06
-1.3133e-05
1.12963e-06
-9.4467e-06
-2.65164e-06
-6.60298e-06
-5.03862e-06
-4.44034e-06
-6.31312e-06
-2.82819e-06
-6.70467e-06
-1.66198e-06
-6.40146e-06
-8.58005e-07
-5.55967e-06
-3.48534e-07
-4.3107e-06
-7.8085e-08
-2.76766e-06
-1.02866e-06
-0.000341766
0.000243309
0.000398055
-0.000286307
0.000200037
-0.000234244
0.0001601
-0.000187395
0.000124935
-0.000146739
9.4749e-05
-0.000112579
6.96827e-05
-8.4655e-05
4.93597e-05
-6.23662e-05
3.32645e-05
-4.49479e-05
2.07838e-05
-3.16013e-05
1.13127e-05
-2.15729e-05
4.30066e-06
-1.41954e-05
-7.26991e-07
-8.90092e-06
-4.16483e-06
-5.21847e-06
-6.33409e-06
-2.76346e-06
-7.49364e-06
-1.22429e-06
-7.85229e-06
-3.49131e-07
-7.57983e-06
6.58624e-08
-6.81645e-06
1.8612e-07
-5.67992e-06
1.46202e-07
-4.27078e-06
5.51077e-08
-2.67657e-06
-9.73557e-07
-0.000282817
0.000185255
0.000340871
-0.000229463
0.000146683
-0.000182283
0.00011292
-0.000141924
8.45762e-05
-0.000108387
6.12116e-05
-8.12073e-05
4.25031e-05
-5.96566e-05
2.7809e-05
-4.28978e-05
1.65057e-05
-3.01005e-05
7.9865e-06
-2.05051e-05
1.71738e-06
-1.3452e-05
-2.75244e-06
-8.38764e-06
-5.79136e-06
-4.85784e-06
-7.69462e-06
-2.49523e-06
-8.6967e-06
-1.0047e-06
-8.98417e-06
-1.49858e-07
-8.70713e-06
2.58785e-07
-7.98847e-06
3.73439e-07
-6.93111e-06
3.16524e-07
-5.62301e-06
1.86305e-07
-4.14056e-06
6.07551e-08
-2.55102e-06
-9.12801e-07
-0.000220712
0.000131472
0.000274496
-0.00017385
9.98211e-05
-0.000134389
7.34591e-05
-0.000101948
5.21354e-05
-7.59103e-05
3.51735e-05
-5.54124e-05
2.20052e-05
-3.9568e-05
1.19646e-05
-2.75279e-05
4.46554e-06
-1.85382e-05
-1.0032e-06
-1.1956e-05
-4.86479e-06
-7.24883e-06
-7.45961e-06
-3.9838e-06
-9.05639e-06
-1.81311e-06
-9.86531e-06
-4.5907e-07
-1.00507e-05
2.99518e-07
-9.74276e-06
6.3877e-07
-9.04638e-06
6.99024e-07
-8.04872e-06
5.9204e-07
-6.82412e-06
4.0653e-07
-5.4375e-06
2.12354e-07
-3.94638e-06
6.34572e-08
-2.40212e-06
-8.49344e-07
-0.000162235
8.58984e-05
0.000207808
-0.000124172
6.1758e-05
-9.33297e-05
4.26167e-05
-6.87646e-05
2.75703e-05
-4.95995e-05
1.60083e-05
-3.48886e-05
7.29435e-06
-2.37891e-05
8.65032e-07
-1.55621e-05
-3.76142e-06
-9.58908e-06
-6.97624e-06
-5.36298e-06
-9.09088e-06
-2.47492e-06
-1.03477e-05
-5.98286e-07
-1.0933e-05
5.26466e-07
-1.09901e-05
1.10522e-06
-1.06295e-05
1.30124e-06
-9.93879e-06
1.24406e-06
-8.98919e-06
1.03624e-06
-7.8409e-06
7.58634e-07
-6.54652e-06
4.74222e-07
-5.15309e-06
2.3114e-07
-3.7033e-06
6.48741e-08
-2.23585e-06
-7.8447e-07
-0.000111239
5.00789e-05
0.000147059
-8.23862e-05
3.29049e-05
-5.96967e-05
1.99271e-05
-4.21216e-05
9.99528e-06
-2.87633e-05
2.64993e-06
-1.87802e-05
-2.6887e-06
-1.14673e-05
-6.44786e-06
-6.23715e-06
-8.99159e-06
-2.61311e-06
-1.06003e-05
-2.12933e-07
-1.14911e-05
1.26739e-06
-1.1828e-05
2.06864e-06
-1.17343e-05
2.38119e-06
-1.13026e-05
2.35555e-06
-1.06039e-05
2.1107e-06
-9.69394e-06
1.74056e-06
-8.61905e-06
1.31891e-06
-7.41925e-06
9.0296e-07
-6.13057e-06
5.36237e-07
-4.78636e-06
2.50492e-07
-3.41756e-06
6.74443e-08
-2.05281e-06
-7.17026e-07
-6.90578e-05
2.37825e-05
9.53543e-05
-4.85726e-05
1.24197e-05
-3.28889e-05
4.24341e-06
-2.10974e-05
-1.7962e-06
-1.24133e-05
-6.03419e-06
-6.16861e-06
-8.93338e-06
-1.81648e-06
-1.08e-05
1.08469e-06
-1.18928e-05
2.88742e-06
-1.2403e-05
3.87119e-06
-1.24748e-05
4.25675e-06
-1.22135e-05
4.21824e-06
-1.16958e-05
3.89297e-06
-1.09773e-05
3.38923e-06
-1.01001e-05
2.7923e-06
-9.09702e-06
2.16912e-06
-7.99586e-06
1.57139e-06
-6.82152e-06
1.03853e-06
-5.59771e-06
5.99143e-07
-4.34698e-06
2.72976e-07
-3.09139e-06
7.16768e-08
-1.85151e-06
-6.45349e-07
-3.53413e-05
5.77711e-06
5.33466e-05
-2.18304e-05
-1.09114e-06
-1.18359e-05
-5.75115e-06
-4.64422e-06
-8.98784e-06
3.68265e-07
-1.10467e-05
3.69968e-06
-1.22648e-05
5.75352e-06
-1.28538e-05
6.84933e-06
-1.29886e-05
7.23976e-06
-1.27934e-05
7.12346e-06
-1.23585e-05
6.65649e-06
-1.17466e-05
5.96144e-06
-1.10007e-05
5.13478e-06
-1.01507e-05
4.25229e-06
-9.21763e-06
3.3735e-06
-8.21822e-06
2.54445e-06
-7.16681e-06
1.80047e-06
-6.07755e-06
1.16727e-06
-4.9645e-06
6.62847e-07
-3.84256e-06
2.97905e-07
-2.72645e-06
7.72381e-08
-1.63084e-06
-5.68111e-07
-8.98857e-06
-5.43003e-06
2.01957e-05
-1.03842e-06
-9.0413e-06
4.46804e-06
-1.12576e-05
8.06894e-06
-1.25887e-05
1.02305e-05
-1.32083e-05
1.13094e-05
-1.33437e-05
1.15911e-05
-1.31355e-05
1.12979e-05
-1.26954e-05
1.06038e-05
-1.20993e-05
9.64417e-06
-1.13989e-05
8.52454e-06
-1.06269e-05
7.32734e-06
-9.80352e-06
6.11697e-06
-8.94031e-06
4.94393e-06
-8.04458e-06
3.84738e-06
-7.12168e-06
2.85768e-06
-6.17711e-06
1.99719e-06
-5.21706e-06
1.28207e-06
-4.24938e-06
7.22174e-07
-3.28266e-06
3.22577e-07
-2.32685e-06
8.32115e-08
-1.39147e-06
-4.84899e-07
1.09815e-05
-1.12527e-05
-5.15877e-06
1.46138e-05
-1.26736e-05
1.66616e-05
-1.33054e-05
1.75167e-05
-1.34438e-05
1.75099e-05
-1.32015e-05
1.68862e-05
-1.272e-05
1.58375e-05
-1.20868e-05
1.45098e-05
-1.13677e-05
1.30151e-05
-1.06046e-05
1.14391e-05
-9.82285e-06
9.84759e-06
-9.03546e-06
8.29139e-06
-8.24732e-06
6.80985e-06
-7.45876e-06
5.43341e-06
-6.66815e-06
4.18578e-06
-5.87404e-06
3.08463e-06
-5.07596e-06
2.14314e-06
-4.27557e-06
1.36977e-06
-3.47601e-06
7.6948e-07
-2.68237e-06
3.43165e-07
-1.90053e-06
8.85695e-08
-1.13688e-06
-3.9633e-07
2.51852e-05
-1.29428e-05
-2.34952e-05
2.55637e-05
-1.30521e-05
2.50399e-05
-1.27817e-05
2.38807e-05
-1.22846e-05
2.23046e-05
-1.16254e-05
2.04681e-05
-1.08835e-05
1.8489e-05
-1.01077e-05
1.64535e-05
-9.33214e-06
1.44251e-05
-8.5762e-06
1.24505e-05
-7.84835e-06
1.05647e-05
-7.14959e-06
8.79363e-06
-6.47626e-06
7.15724e-06
-5.82238e-06
5.67082e-06
-5.18173e-06
4.34584e-06
-4.54906e-06
3.19103e-06
-3.92115e-06
2.21209e-06
-3.29664e-06
1.41272e-06
-2.67663e-06
7.93882e-07
-2.06354e-06
3.54752e-07
-1.4614e-06
9.19074e-08
-8.74034e-07
-3.04423e-07
3.38321e-05
-1.16515e-05
-3.51234e-05
3.19221e-05
-1.1142e-05
2.96391e-05
-1.04987e-05
2.71434e-05
-9.7889e-06
2.45619e-05
-9.04389e-06
2.19803e-05
-8.30194e-06
1.94586e-05
-7.58597e-06
1.70367e-05
-6.91029e-06
1.47411e-05
-6.28056e-06
1.2589e-05
-5.69622e-06
1.05917e-05
-5.15237e-06
8.75718e-06
-4.64169e-06
7.09091e-06
-4.1561e-06
5.597e-06
-3.68782e-06
4.27857e-06
-3.23063e-06
3.13747e-06
-2.78004e-06
2.17482e-06
-2.33399e-06
1.39037e-06
-1.89218e-06
7.83258e-07
-1.45643e-06
3.51311e-07
-1.02946e-06
9.15764e-08
-6.14299e-07
-2.12846e-07
3.68437e-05
-8.51559e-06
-3.99796e-05
3.35938e-05
-7.89206e-06
3.03498e-05
-7.25473e-06
2.71868e-05
-6.62587e-06
2.41601e-05
-6.01723e-06
2.13019e-05
-5.44373e-06
1.86292e-05
-4.91325e-06
1.61483e-05
-4.4294e-06
1.38593e-05
-3.99154e-06
1.17587e-05
-3.59564e-06
9.84194e-06
-3.23563e-06
8.10457e-06
-2.90432e-06
6.54275e-06
-2.59429e-06
5.15367e-06
-2.29875e-06
3.93502e-06
-2.01198e-06
2.88496e-06
-1.72998e-06
2.00141e-06
-1.45044e-06
1.2823e-06
-1.17307e-06
7.25062e-07
-8.99191e-07
3.27237e-07
-6.31632e-07
8.61986e-08
-3.73261e-07
-1.26648e-07
3.40225e-05
-4.71012e-06
-3.7828e-05
3.04087e-05
-4.2782e-06
2.70197e-05
-3.86575e-06
2.3871e-05
-3.47719e-06
2.09697e-05
-3.11589e-06
1.83121e-05
-2.78612e-06
1.58881e-05
-2.48929e-06
1.36837e-05
-2.22501e-06
1.16834e-05
-1.99117e-06
9.87198e-06
-1.78425e-06
8.23627e-06
-1.59993e-06
6.76536e-06
-1.43341e-06
5.45096e-06
-1.27988e-06
4.28705e-06
-1.13484e-06
3.26945e-06
-9.94388e-07
2.39502e-06
-8.55546e-07
1.6611e-06
-7.16516e-07
1.06486e-06
-5.76836e-07
6.03319e-07
-4.37648e-07
2.73319e-07
-3.01632e-07
7.23977e-08
-1.7234e-07
-5.42499e-08
2.52051e-05
-1.45895e-06
-2.84562e-05
2.22365e-05
-1.30966e-06
1.95397e-05
-1.16888e-06
1.71007e-05
-1.03826e-06
1.4904e-05
-9.19157e-07
1.29306e-05
-8.12674e-07
1.11601e-05
-7.18797e-07
9.57204e-06
-6.3699e-07
8.14708e-06
-5.66206e-07
6.86791e-06
-5.05075e-07
5.71998e-06
-4.52e-07
4.69183e-06
-4.05254e-07
3.77502e-06
-3.63072e-07
2.96389e-06
-3.23709e-07
2.25502e-06
-2.85517e-07
1.64653e-06
-2.47057e-07
1.13723e-06
-2.07215e-07
7.25798e-07
-1.65406e-07
4.10052e-07
-1.21902e-07
1.86561e-07
-7.81404e-08
5.08297e-08
-3.66087e-08
-3.42015e-09
1.0352e-05
-1.18104e-05
9.04313e-06
7.87525e-06
6.83805e-06
5.91997e-06
5.10833e-06
4.39052e-06
3.75445e-06
3.18908e-06
2.68477e-06
2.23347e-06
1.82884e-06
1.46633e-06
1.14312e-06
8.58051e-07
6.11388e-07
4.04517e-07
2.39407e-07
1.1775e-07
3.98016e-08
3.32877e-09
0.000298205
2.5707e-05
1.03829e-06
-0.00032495
0.000272947
2.41852e-05
1.0729e-06
0.000249085
2.27603e-05
1.10192e-06
0.000226538
2.14214e-05
1.12517e-06
0.000205231
2.01643e-05
1.14291e-06
0.00018509
1.89852e-05
1.15544e-06
0.000166047
1.78797e-05
1.16312e-06
0.000148038
1.68433e-05
1.16627e-06
0.000131001
1.58716e-05
1.16524e-06
0.00011488
1.496e-05
1.16034e-06
9.96254e-05
1.41033e-05
1.15173e-06
8.51929e-05
1.32934e-05
1.13908e-06
7.15559e-05
1.25159e-05
1.12119e-06
5.87149e-05
1.17457e-05
1.09537e-06
4.67136e-05
1.09438e-05
1.05742e-06
3.56515e-05
1.00603e-05
1.00185e-06
2.56876e-05
9.04071e-06
9.23152e-07
1.70312e-05
7.83947e-06
8.16909e-07
9.91978e-06
6.43029e-06
6.81174e-07
4.58781e-06
4.81495e-06
5.17021e-07
1.23502e-06
3.02422e-06
3.28572e-07
1.11271e-06
1.22313e-07
0.000297792
5.23749e-05
-0.00032446
0.000272603
4.93735e-05
0.000248802
4.6562e-05
0.000226307
4.3916e-05
0.000205044
4.14273e-05
0.000184941
3.90886e-05
0.000165929
3.68913e-05
0.000147946
3.48269e-05
0.00013093
3.2887e-05
0.000114827
3.1063e-05
9.95861e-05
2.93444e-05
8.51643e-05
2.77152e-05
7.15351e-05
2.61451e-05
5.86995e-05
2.45813e-05
4.67019e-05
2.29415e-05
3.56422e-05
2.112e-05
2.56802e-05
1.90027e-05
1.70257e-05
1.6494e-05
9.91609e-06
1.35399e-05
4.5861e-06
1.01449e-05
1.23457e-06
6.37576e-06
2.34727e-06
0.000296542
7.884e-05
-0.000323007
0.000271529
7.43864e-05
0.000247878
7.02133e-05
0.000225514
6.62799e-05
0.000204365
6.25759e-05
0.000184362
5.90916e-05
0.000165439
5.58148e-05
0.000147532
5.27332e-05
0.000130584
4.9835e-05
0.00011454
4.71073e-05
9.93492e-05
4.45352e-05
8.49706e-05
4.20937e-05
7.13776e-05
3.97381e-05
5.85728e-05
3.7386e-05
4.66003e-05
3.4914e-05
3.55626e-05
3.21577e-05
2.56191e-05
2.89463e-05
1.69817e-05
2.51313e-05
9.88756e-06
2.0634e-05
4.57087e-06
1.54616e-05
1.22977e-06
9.71685e-06
3.57705e-06
0.000294797
0.000104995
-0.000320952
0.000270055
9.9129e-05
0.000246633
9.36347e-05
0.000224466
8.84468e-05
0.000203486
8.35558e-05
0.000183628
7.89499e-05
0.000164829
7.46141e-05
0.000147029
7.05332e-05
0.000130172
6.6692e-05
0.000114205
6.30745e-05
9.9079e-05
5.96606e-05
8.47543e-05
5.64184e-05
7.12063e-05
5.32861e-05
5.84366e-05
5.01557e-05
4.64937e-05
4.68569e-05
3.54781e-05
4.31733e-05
2.55551e-05
3.88693e-05
1.69343e-05
3.3752e-05
9.85693e-06
2.77114e-05
4.55466e-06
2.07639e-05
1.22448e-06
1.3047e-05
4.80153e-06
0.000292739
0.000130746
-0.00031849
0.000268344
0.000123524
0.000245216
0.000116762
0.0002233
0.000110363
0.000202533
0.000104323
0.000182856
9.8627e-05
0.00016421
9.32597e-05
0.00014654
8.82032e-05
0.000129792
8.344e-05
0.000113916
7.89509e-05
9.88648e-05
7.47119e-05
8.45999e-05
7.06833e-05
7.10974e-05
6.67886e-05
5.8362e-05
6.2891e-05
4.64414e-05
5.87776e-05
3.54414e-05
5.41734e-05
2.55262e-05
4.87844e-05
1.6913e-05
4.23653e-05
9.84044e-06
3.47839e-05
4.54527e-06
2.60591e-05
1.22068e-06
1.63716e-05
6.02221e-06
0.000290765
0.000156037
-0.000316056
0.000266764
0.000147525
0.000243965
0.000139561
0.000222325
0.000132004
0.000201789
0.000124858
0.000182305
0.000118111
0.000163819
0.000111746
0.000146279
0.000105743
0.000129637
0.000100082
0.000113844
9.47438e-05
9.88562e-05
8.96997e-05
8.46373e-05
8.49023e-05
7.11637e-05
8.02622e-05
5.84429e-05
7.56118e-05
4.65224e-05
7.06981e-05
3.55126e-05
6.51831e-05
2.55801e-05
5.87169e-05
1.69476e-05
5.09979e-05
9.85849e-06
4.1873e-05
4.55087e-06
3.13667e-05
1.22139e-06
1.97011e-05
7.2436e-06
0.00028909
0.000180826
-0.000313879
0.000265512
0.000171104
0.00024306
0.000162012
0.000221705
0.000153358
0.000201404
0.00014516
0.000182109
0.000137406
0.000163775
0.000130079
0.000146356
0.000123162
0.000129806
0.000116633
0.00011408
0.00011047
9.9138e-05
0.000104642
8.49427e-05
9.90976e-05
7.1476e-05
9.37289e-05
5.874e-05
8.83478e-05
4.67919e-05
8.26463e-05
3.57351e-05
7.62399e-05
2.57527e-05
6.86993e-05
1.70629e-05
5.96877e-05
9.92637e-06
4.90095e-05
4.58048e-06
3.67126e-05
1.22808e-06
2.30535e-05
8.47168e-06
0.000287894
0.000205085
-0.000312153
0.000264755
0.000194243
0.000242658
0.000184109
0.000221591
0.000174426
0.000201518
0.000165232
0.000182403
0.000156521
0.000164206
0.000148276
0.000146887
0.000140481
0.000130404
0.000133115
0.000114718
0.000126156
9.97898e-05
0.00011957
8.55878e-05
0.0001133
7.20884e-05
0.000107228
5.93045e-05
0.000101132
4.72807e-05
9.467e-05
3.61416e-05
8.73791e-05
2.60562e-05
7.87847e-05
1.72741e-05
6.84697e-05
1.00463e-05
5.62374e-05
4.63563e-06
4.21232e-05
1.24077e-06
2.64484e-05
9.71245e-06
0.000287308
0.000228799
-0.000311021
0.000264609
0.000216941
0.000242858
0.00020586
0.00022206
0.000195224
0.000202194
0.000185099
0.000183233
0.000175482
0.000165147
0.000166363
0.0001479
0.000157728
0.000131458
0.000149558
0.000115783
0.000141831
0.00010084
0.000134513
8.65964e-05
0.000127543
7.30359e-05
0.000120789
6.01593e-05
0.000114008
4.80279e-05
0.000106801
3.6749e-05
9.86579e-05
2.65246e-05
8.90092e-05
1.75903e-05
7.7404e-05
1.02375e-05
6.35902e-05
4.7211e-06
4.76396e-05
1.26368e-06
2.99058e-05
1.09761e-05
0.00028737
0.000251954
-0.000310525
0.000265117
0.000239194
0.000243713
0.000227265
0.000223179
0.000215758
0.000203505
0.000204772
0.000184676
0.000194311
0.000166669
0.000184369
0.000149459
0.000174937
0.000133016
0.000166001
0.000117309
0.000157538
0.000102305
0.000149517
8.79771e-05
0.000141872
7.4302e-05
0.000134464
6.12915e-05
0.000127019
4.89927e-05
0.0001191
3.75361e-05
0.000110115
2.71114e-05
9.94339e-05
1.79932e-05
8.65221e-05
1.04678e-05
7.11157e-05
4.82611e-06
5.32813e-05
1.2877e-06
3.34442e-05
1.22638e-05
0.000288072
0.000274542
-0.00031066
0.000266243
0.000261024
0.000245153
0.000248355
0.000224848
0.000236062
0.000205336
0.000224285
0.000186611
0.000213035
0.000168662
0.000202319
0.000151466
0.000192133
0.000135002
0.000182465
0.00011924
0.000173299
0.000104154
0.000164603
8.97128e-05
0.000156312
7.59008e-05
0.000148276
6.27186e-05
0.000140201
5.02232e-05
0.000131596
3.85349e-05
0.000121803
2.78705e-05
0.000110098
1.85078e-05
9.58848e-05
1.07728e-05
7.88506e-05
4.96391e-06
5.90902e-05
1.32423e-06
3.70839e-05
1.35881e-05
0.000289435
0.000296532
-0.000311425
0.000268054
0.000282404
0.000247293
0.000269116
0.000227208
0.000256147
0.000207827
0.000243666
0.000189163
0.0002317
0.000171217
0.000220265
0.000153979
0.000209371
0.000137433
0.000199012
0.000121557
0.000189175
0.000106327
0.000179834
9.17174e-05
0.000170922
7.77072e-05
0.000162286
6.43022e-05
0.000153606
5.1553e-05
0.000144345
3.95944e-05
0.000133762
2.86478e-05
0.000121045
1.90224e-05
0.00010551
1.10592e-05
8.68138e-05
5.08544e-06
6.5064e-05
1.34941e-06
4.08199e-05
1.49375e-05
0.000291271
0.000317933
-0.000312672
0.000270265
0.00030341
0.000249786
0.000289595
0.000229899
0.000276034
0.000210642
0.000262923
0.000192038
0.000250303
0.000174097
0.000238206
0.000156817
0.000226651
0.000140188
0.00021564
0.000124195
0.000205168
0.000108817
0.000195212
9.40298e-05
0.000185709
7.98135e-05
0.000176502
6.61675e-05
0.000167252
5.31433e-05
0.000157369
4.08742e-05
0.000146031
2.9601e-05
0.000132318
1.96551e-05
0.000115456
1.14168e-05
9.50522e-05
5.23899e-06
7.12418e-05
1.38624e-06
4.46726e-05
1.63237e-05
0.000293475
0.000338529
-0.000314072
0.000272948
0.000323937
0.000252772
0.000309772
0.000233051
0.000295755
0.000213861
0.000282112
0.000195251
0.000268914
0.000177244
0.000256213
0.000159852
0.000244042
0.000143075
0.000232418
0.000126902
0.000221341
0.000111317
0.000210797
9.62975e-05
0.000200728
8.18241e-05
0.000190976
6.78949e-05
0.000181181
5.45592e-05
0.000170705
4.19591e-05
0.000158631
3.03526e-05
0.000143924
2.01052e-05
0.000125704
1.1629e-05
0.000103528
5.30124e-06
7.75695e-05
1.38628e-06
4.85876e-05
1.771e-05
0.00029598
0.000358389
-0.00031584
0.000275787
0.00034413
0.000255912
0.000329647
0.000236393
0.000315273
0.000217319
0.000301187
0.000198746
0.000287487
0.000180711
0.000274248
0.000163234
0.000261519
0.000146324
0.000249328
0.000129976
0.000237689
0.00011418
0.000226594
9.89137e-05
0.000215994
8.41564e-05
0.000205733
6.99029e-05
0.000195435
5.62035e-05
0.000184404
4.32099e-05
0.000171624
3.1205e-05
0.000155929
2.05894e-05
0.000136319
1.18179e-05
0.0001123
5.30352e-06
8.40838e-05
1.33135e-06
5.25598e-05
1.90413e-05
1.22803e-05
0.000360865
-1.47568e-05
9.74062e-06
0.00034667
7.31124e-06
0.000332076
4.90212e-06
0.000317682
2.52304e-06
0.000303566
1.68985e-07
0.000289841
-2.15905e-06
0.000276576
-4.45612e-06
0.000263816
-6.71509e-06
0.000251587
-8.92431e-06
0.000239898
-1.10579e-05
0.000228727
-1.30524e-05
0.000217989
-1.47737e-05
0.000207454
-1.59954e-05
0.000196657
-1.64227e-05
0.000184831
-1.57789e-05
0.000170981
-1.39332e-05
0.000154084
-1.10114e-05
0.000133397
-7.43672e-06
0.000108725
-3.87994e-06
8.0527e-05
-1.14146e-06
4.98213e-05
1.78999e-05
7.06396e-06
0.000363646
-9.84478e-06
4.41712e-06
0.000349317
1.81027e-06
0.000334683
-7.39355e-07
0.000320232
-3.21577e-06
0.000306043
-5.61906e-06
0.000292244
-7.94418e-06
0.000278901
-1.0186e-05
0.000266058
-1.23374e-05
0.000253739
-1.43838e-05
0.000241944
-1.62891e-05
0.000230632
-1.79693e-05
0.000219669
-1.92638e-05
0.000208749
-1.99292e-05
0.000197322
-1.96814e-05
0.000184584
-1.82924e-05
0.000169592
-1.57072e-05
0.000151498
-1.21324e-05
0.000129822
-8.05151e-06
0.000104644
-4.15936e-06
7.66349e-05
-1.2347e-06
4.68966e-05
1.66652e-05
1.78515e-06
0.000366644
-4.7832e-06
-9.72249e-07
0.000352074
-3.68078e-06
0.000337391
-6.28144e-06
0.000322833
-8.77249e-06
0.000308534
-1.1151e-05
0.000294623
-1.34123e-05
0.000281162
-1.55522e-05
0.000268198
-1.75629e-05
0.000255749
-1.9424e-05
0.000243805
-2.10846e-05
0.000232293
-2.24355e-05
0.00022102
-2.32889e-05
0.000209602
-2.33878e-05
0.000197421
-2.24666e-05
0.000183662
-2.03514e-05
0.000167477
-1.70675e-05
0.000148214
-1.29029e-05
0.000125658
-8.39897e-06
0.000100141
-4.26475e-06
7.25007e-05
-1.24573e-06
4.38776e-05
1.54195e-05
-3.50422e-06
0.000369757
3.91742e-07
-6.35952e-06
0.000354929
-9.12088e-06
0.000340153
-1.17324e-05
0.000325444
-1.4201e-05
0.000311002
-1.65213e-05
0.000296943
-1.86905e-05
0.000283332
-2.0705e-05
0.000270212
-2.25542e-05
0.000257599
-2.42087e-05
0.00024546
-2.55978e-05
0.000233682
-2.65849e-05
0.000222007
-2.69568e-05
0.000209974
-2.64531e-05
0.000196917
-2.48381e-05
0.000182047
-2.20049e-05
0.000164643
-1.80642e-05
0.000144274
-1.33839e-05
0.000120977
-8.54975e-06
9.53065e-05
-4.26613e-06
6.8217e-05
-1.22449e-06
4.0836e-05
1.4195e-05
-8.9098e-06
0.000372924
5.74298e-06
-1.18212e-05
0.000357841
-1.45844e-05
0.000342916
-1.7165e-05
0.000328025
-1.95725e-05
0.00031341
-2.1802e-05
0.000299172
-2.38524e-05
0.000285382
-2.57195e-05
0.000272079
-2.73875e-05
0.000259267
-2.88128e-05
0.000246885
-2.99012e-05
0.00023477
-3.04867e-05
0.000222592
-3.03378e-05
0.000209825
-2.91993e-05
0.000195779
-2.68806e-05
0.000179729
-2.33478e-05
0.000161111
-1.88008e-05
0.000139727
-1.3675e-05
0.000115852
-8.58755e-06
9.0219e-05
-4.21756e-06
6.38471e-05
-1.19239e-06
3.78108e-05
1.30026e-05
-1.45694e-05
0.000376103
1.13895e-05
-1.74917e-05
0.000360763
-2.02152e-05
0.00034564
-2.27284e-05
0.000330538
-2.50406e-05
0.000315722
-2.71494e-05
0.000301281
-2.9055e-05
0.000287288
-3.07509e-05
0.000273775
-3.22122e-05
0.000260728
-3.33773e-05
0.00024805
-3.41235e-05
0.000235517
-3.42587e-05
0.000222728
-3.35371e-05
0.000209104
-3.17255e-05
0.000193967
-2.86849e-05
0.000176688
-2.44678e-05
0.000156894
-1.93533e-05
0.000134612
-1.38408e-05
0.000110339
-8.55482e-06
8.4933e-05
-4.1418e-06
5.9434e-05
-1.15472e-06
3.48237e-05
1.18479e-05
-2.06336e-05
0.000379252
1.74853e-05
-2.35159e-05
0.000363646
-2.61576e-05
0.000348281
-2.85653e-05
0.000332946
-3.07478e-05
0.000317905
-3.27057e-05
0.000303239
-3.44392e-05
0.000289021
-3.59364e-05
0.000275272
-3.71596e-05
0.000261951
-3.80226e-05
0.000248913
-3.8374e-05
0.000235868
-3.79949e-05
0.000222349
-3.66405e-05
0.000207749
-3.41052e-05
0.000191432
-3.03228e-05
0.000172906
-2.54256e-05
0.000151996
-1.97796e-05
0.000128966
-1.39218e-05
0.000104481
-8.48119e-06
7.94924e-05
-4.05129e-06
5.50041e-05
-1.11558e-06
3.1888e-05
1.07323e-05
-2.7313e-05
0.000382327
2.42378e-05
-3.01068e-05
0.000366439
-3.26252e-05
0.0003508
-3.48879e-05
0.000335208
-3.69036e-05
0.00031992
-3.86762e-05
0.000305012
-4.02035e-05
0.000290549
-4.14652e-05
0.000276534
-4.24043e-05
0.00026289
-4.29069e-05
0.000249416
-4.2789e-05
0.00023575
-4.18154e-05
0.000221375
-3.97466e-05
0.000205681
-3.64286e-05
0.000188114
-3.18667e-05
0.000168344
-2.62898e-05
0.000146419
-2.01276e-05
0.000122804
-1.39578e-05
9.83116e-05
-8.38614e-06
7.39208e-05
-3.95696e-06
5.0575e-05
-1.07675e-06
2.90078e-05
9.65553e-06
-3.48045e-05
0.000385279
3.1852e-05
-3.74562e-05
0.000369091
-3.98053e-05
0.000353149
-4.1879e-05
0.000337282
-4.36872e-05
0.000321728
-4.52349e-05
0.000306559
-4.65151e-05
0.000291829
-4.74933e-05
0.000277512
-4.80879e-05
0.000263485