/*--------------------------------*- C++ -*----------------------------------*\
| =========                 |                                                 |
| \\      /  F ield         | OpenFOAM Extend Project: Open source CFD        |
|  \\    /   O peration     | Version:  1.6-ext                               |
|   \\  /    A nd           | Web:      www.extend-project.de                 |
|    \\/     M anipulation  |                                                 |
\*---------------------------------------------------------------------------*/
FoamFile
{
    version     2.0;
    format      ascii;
    class       volVectorField;
    location    "1.2";
    object      U;
}
// * * * * * * * * * * * * * * * * * * * * * * * * * * * * * * * * * * * * * //

dimensions      [0 1 -1 0 0 0 0];

internalField   nonuniform List<vector> 
20940
(
(1.84912 0.399069 9.35958e-21)
(1.88861 0.419105 -1.26787e-20)
(1.926 0.438417 0)
(1.96043 0.455957 0)
(1.99162 0.471934 7.46674e-21)
(2.01791 0.485219 9.32063e-21)
(2.03631 0.494698 1.19453e-20)
(2.04199 0.498419 -1.30456e-20)
(2.02856 0.494143 0)
(1.98894 0.479635 9.82516e-21)
(1.9169 0.453362 0)
(1.80892 0.415106 1.30925e-20)
(1.66548 0.366317 0)
(1.49148 0.310001 8.21418e-21)
(1.29542 0.250178 -1.81573e-23)
(1.08775 0.191108 9.81773e-21)
(0.878985 0.136594 -1.0545e-20)
(0.678187 0.0895302 0)
(0.492147 0.0517197 -1.80694e-20)
(0.325139 0.0239278 2.52829e-20)
(0.17917 0.00662639 1.65318e-22)
(0.054439 0.000492424 -1.08891e-20)
(1.87599 0.375901 9.73902e-21)
(1.91419 0.394782 -8.33e-21)
(1.94997 0.41228 -1.02752e-20)
(1.98222 0.428031 2.44388e-20)
(2.01009 0.441696 -2.18608e-20)
(2.03107 0.452063 -9.29199e-21)
(2.04114 0.457715 4.80824e-20)
(2.03455 0.456611 -1.26641e-20)
(2.00453 0.446683 0)
(1.9446 0.426254 -9.77114e-21)
(1.85031 0.394698 -2.33876e-20)
(1.72078 0.352851 1.21539e-20)
(1.55947 0.303059 -1.43579e-20)
(1.37374 0.248791 -2.40689e-20)
(1.17344 0.193965 0)
(0.969117 0.142247 4.78449e-20)
(0.770325 0.096548 -9.50579e-21)
(0.584608 0.0588098 -2.17179e-20)
(0.417093 0.0300008 1.78377e-20)
(0.270607 0.0102627 -2.40659e-20)
(0.1461 -0.000350428 0)
(0.0431736 -0.00140197 0)
(1.90063 0.352705 0)
(1.93722 0.3705 1.44483e-20)
(1.97085 0.386289 -2.8551e-21)
(2.00003 0.40026 5.16435e-20)
(2.02316 0.411503 -3.02783e-20)
(2.0367 0.418723 2.07107e-20)
(2.03559 0.42026 -2.22144e-20)
(2.01345 0.414148 -1.4106e-20)
(1.96374 0.398701 0)
(1.88135 0.373003 -3.87876e-20)
(1.76427 0.33741 -4.59441e-20)
(1.61465 0.293694 4.94423e-20)
(1.43867 0.244809 -4.32874e-20)
(1.24551 0.194309 1.39381e-20)
(1.04553 0.145683 3.27949e-20)
(0.848613 0.101815 3.57341e-20)
(0.662868 0.0647046 1.93407e-20)
(0.494124 0.0354487 0)
(0.345901 0.0143492 5.59075e-20)
(0.219739 0.00109486 -2.21323e-20)
(0.115727 -0.00455332 -4.80697e-20)
(0.033012 -0.00235053 0)
(1.92412 0.329853 -2.86799e-20)
(1.95863 0.346631 1.54869e-20)
(1.98929 0.360745 2.21887e-20)
(2.01407 0.372835 -2.74986e-20)
(2.03037 0.381413 6.85771e-20)
(2.03355 0.385136 -3.84165e-20)
(2.01771 0.382228 -2.39095e-20)
(1.97636 0.371011 -5.92789e-20)
(1.90399 0.35041 6.45543e-20)
(1.79771 0.32041 7.82437e-20)
(1.65852 0.282315 -8.76029e-20)
(1.49153 0.238605 -1.9512e-21)
(1.30517 0.192475 1.09441e-19)
(1.10951 0.147202 -5.93381e-20)
(0.914543 0.105601 0)
(0.728821 0.0696946 -5.26345e-20)
(0.55871 0.0406391 -1.93173e-20)
(0.408289 0.018835 6.12637e-20)
(0.279614 0.0040918 -1.69472e-19)
(0.173159 -0.00419994 1.10959e-19)
(0.0883476 -0.00645793 0)
(0.0240191 -0.00255255 1.88766e-20)
(1.94616 0.307419 -3.07406e-20)
(1.97793 0.323173 7.28393e-20)
(2.00443 0.33556 -1.69409e-20)
(2.02293 0.34556 -2.67916e-20)
(2.0296 0.351144 -1.00793e-21)
(2.01883 0.351012 -8.3931e-20)
(1.98435 0.343463 9.72677e-20)
(1.92038 0.327345 -5.5149e-20)
(1.82335 0.302374 0)
(1.69332 0.269467 3.74463e-20)
(1.53443 0.230695 -4.49419e-20)
(1.35437 0.188907 1.90851e-19)
(1.16285 0.147158 -1.55903e-19)
(0.969897 0.10816 -5.8469e-20)
(0.784332 0.073931 3.13521e-20)
(0.61295 0.0456678 3.45298e-20)
(0.460272 0.0238212 -3.5375e-20)
(0.328763 0.00827342 -2.01163e-20)
(0.219252 -0.00149185 8.04366e-20)
(0.131391 -0.00624812 0)
(0.0641479 -0.00649898 0)
(0.0161968 -0.00217195 -1.88949e-20)
(1.96624 0.285469 -2.87502e-20)
(1.99426 0.300141 0)
(2.01488 0.310652 4.97473e-20)
(2.02445 0.318243 -1.43714e-19)
(2.01795 0.320446 -3.55763e-21)
(1.98918 0.316174 -5.76049e-22)
(1.93228 0.304034 -4.87488e-20)
(1.84317 0.283616 0)
(1.7211 0.255504 0)
(1.56939 0.221422 -1.12631e-19)
(1.39504 0.1839 3.94692e-20)
(1.2074 0.145765 4.53888e-20)
(1.01642 0.109615 5.16854e-20)
(0.831136 0.0774337 5.76042e-20)
(0.658664 0.0504442 -8.83509e-20)
(0.503879 0.0291414 9.68221e-20)
(0.369564 0.0134458 2.50353e-21)
(0.256817 0.00289567 -1.103e-19)
(0.165521 -0.00320704 7.78264e-20)
(0.0947572 -0.00569653 -1.20268e-19)
(0.0432216 -0.00509732 0)
(0.00954159 -0.00135948 7.06793e-20)
(1.9839 0.263811 -3.05902e-20)
(2.00659 0.277207 4.08333e-20)
(2.0188 0.285566 5.11684e-20)
(2.01593 0.290372 -5.66227e-20)
(1.99206 0.288883 1.40798e-19)
(1.9412 0.280439 -4.45832e-20)
(1.85888 0.264181 1.42697e-19)
(1.74372 0.240556 -5.57267e-20)
(1.59832 0.210944 0)
(1.42905 0.177597 7.31594e-20)
(1.24491 0.143123 -7.91354e-20)
(1.05578 0.109992 -1.3902e-21)
(0.870841 0.0801426 0)
(0.697455 0.0548065 5.41776e-20)
(0.540783 0.0345162 -5.64548e-20)
(0.403862 0.0192351 -3.15567e-20)
(0.28799 0.0085319 -3.27921e-20)
(0.193209 0.00175123 6.96459e-20)
(0.118743 -0.0018762 0)
(0.0633211 -0.00317378 3.96141e-20)
(0.0255205 -0.0026471 0)
(0.00400652 -0.000251014 -1.65771e-20)
(1.99763 0.242374 -3.57295e-20)
(2.01267 0.254232 -4.42573e-20)
(2.01312 0.260111 -4.16345e-21)
(1.99366 0.261769 1.1875e-19)
(1.94814 0.256451 2.97258e-21)
(1.87182 0.244149 -8.08887e-20)
(1.76274 0.224696 9.86337e-20)
(1.62288 0.199367 2.28243e-21)
(1.4581 0.170091 0)
(1.27706 0.139287 6.91942e-20)
(1.08959 0.109286 0)
(0.904975 0.0819726 -4.35146e-20)
(0.730793 0.058576 4.61731e-20)
(0.572445 0.0396587 0)
(0.433167 0.025227 -5.49461e-20)
(0.314414 0.0148904 -1.72891e-21)
(0.216331 0.00802008 1.2565e-19)
(0.138223 0.0038826 0)
(0.0789028 0.00171253 0)
(0.0369347 0.000740208 3.6417e-20)
(0.0108851 0.000499339 0)
(-0.000486773 0.00103602 8.16284e-20)
(2.0061 0.220593 6.75409e-20)
(2.01017 0.230513 4.46255e-20)
(1.99465 0.233568 3.80786e-21)
(1.95408 0.23192 -5.76575e-20)
(1.88316 0.223052 0)
(1.77956 0.207744 0)
(1.64465 0.186526 0)
(1.48383 0.161292 -5.23874e-22)
(1.3055 0.134176 0)
(1.11944 0.107404 -1.37344e-19)
(0.935038 0.0827897 7.43617e-20)
(0.760094 0.0615551 0)
(0.600211 0.0442887 -9.03595e-20)
(0.458797 0.0310395 -9.88115e-20)
(0.337424 0.0214631 -1.54113e-21)
(0.23631 0.0149718 1.12938e-19)
(0.154796 0.0108579 -5.97155e-20)
(0.0917263 0.00838826 0)
(0.0457121 0.00684634 -1.36653e-19)
(0.0152843 0.00553747 1.05478e-19)
(-0.00092601 0.00404161 -1.12765e-19)
(-0.00403771 0.00240459 1.55337e-19)
(2.00581 0.198505 0)
(1.99498 0.206162 8.93497e-20)
(1.95905 0.206249 5.41033e-20)
(1.89353 0.20142 -1.20834e-19)
(1.79512 0.189663 0)
(1.66486 0.172573 8.26382e-20)
(1.50766 0.151228 0)
(1.33173 0.127812 -5.33176e-20)
(1.14682 0.104316 0)
(0.962485 0.0825157 0)
(0.786728 0.0636049 0)
(0.625361 0.0481953 7.88508e-20)
(0.481953 0.0363757 -4.35406e-20)
(0.358172 0.0278505 4.52522e-20)
(0.254285 0.0220798 2.03822e-19)
(0.169647 0.0183968 -2.72714e-19)
(0.103098 0.016095 1.75459e-19)
(0.0532526 0.0144872 -1.24611e-19)
(0.0186697 0.012928 1.30097e-19)
(-0.00206371 0.0108041 0)
(-0.0102101 0.00774108 -7.15198e-20)
(-0.00675901 0.00378017 -6.05089e-20)
(1.99494 0.175084 0)
(1.96437 0.18021 -8.83591e-20)
(1.90386 0.177447 0)
(1.81076 0.170091 6.24733e-20)
(1.68497 0.156703 0)
(1.53122 0.139486 -8.17124e-20)
(1.35742 0.119784 9.38226e-20)
(1.17339 0.099716 2.37521e-21)
(0.988876 0.0808718 5.97415e-20)
(0.812139 0.0644631 -3.19637e-19)
(0.649214 0.0511067 1.39847e-19)
(0.503832 0.0409343 -1.55737e-19)
(0.377752 0.0337001 -1.13162e-21)
(0.271273 0.028917 -6.73199e-22)
(0.183745 0.0259678 0)
(0.113988 0.0241875 1.42791e-21)
(0.0605921 0.0229168 5.55593e-20)
(0.0221064 0.0215382 0)
(-0.0028602 0.0194844 0)
(-0.0156139 0.0162217 0)
(-0.0172936 0.0114185 -1.37238e-19)
(-0.00876766 0.00510819 1.17639e-19)
(1.96746 0.151426 0)
(1.91374 0.154113 9.42753e-20)
(1.82604 0.149037 -1.04557e-19)
(1.70545 0.140075 -1.86723e-19)
(1.55533 0.126376 7.24911e-20)
(1.38377 0.110492 -7.97984e-20)
(1.20051 0.093752 0)
(1.01563 0.0779305 0)
(0.837696 0.0641021 -1.69037e-19)
(0.67304 0.0529267 6.27577e-20)
(0.525587 0.0445575 2.05473e-19)
(0.397198 0.0387967 -1.48532e-19)
(0.288202 0.0352064 8.18045e-20)
(0.197934 0.0332197 -1.30237e-19)
(0.125177 0.0322177 0)
(0.068483 0.0315806 1.01991e-19)
(0.026371 0.0307176 -5.51035e-20)
(-0.00256182 0.0290866 5.70324e-20)
(-0.0195983 0.0261961 0)
(-0.0259126 0.0215867 0)
(-0.0225204 0.0149659 1.67525e-19)
(-0.0101849 0.00635941 -2.2641e-19)
(1.92505 0.125602 0)
(1.84368 0.126214 9.35787e-20)
(1.72815 0.119842 0)
(1.58219 0.110677 1.23349e-19)
(1.41278 0.0983895 -6.95308e-22)
(1.2302 0.0853774 7.88621e-20)
(1.04463 0.0727509 8.45926e-22)
(0.865151 0.0617669 1.50796e-21)
(0.698417 0.0530052 1.35466e-21)
(0.548613 0.0466775 0)
(0.417726 0.0426247 -6.69319e-20)
(0.306125 0.0404638 -1.45795e-19)
(0.213123 0.0396798 1.56793e-19)
(0.137455 0.0397032 1.71925e-19)
(0.0776192 0.0399582 -1.83891e-19)
(0.0320906 0.0398907 1.47381e-19)
(-0.000562674 0.0389839 -1.04785e-19)
(-0.0216308 0.0367686 -1.11849e-19)
(-0.0322597 0.0328227 1.18358e-19)
(-0.0334871 0.0267548 -2.4755e-19)
(-0.026214 0.0183111 9.68841e-20)
(-0.0111204 0.00751416 2.81284e-20)
(1.85769 0.101917 8.06924e-20)
(1.75143 0.101138 3.3434e-21)
(1.61 0.0943171 4.17238e-21)
(1.44414 0.0859869 -5.90444e-20)
(1.26254 0.076027 -2.79412e-19)
(1.07649 0.0664888 0)
(0.895314 0.0581832 1.75693e-19)
(0.726261 0.0518165 0)
(0.573819 0.0475601 0)
(0.440186 0.0452975 1.1759e-19)
(0.325799 0.0446819 0)
(0.229967 0.0452453 2.11702e-19)
(0.151379 0.0464633 -1.52414e-19)
(0.0884717 0.0478014 8.31925e-20)
(0.0396649 0.0487405 -3.13057e-22)
(0.00348517 0.0487916 0)
(-0.0213807 0.047503 0)
(-0.0360793 0.044467 5.47572e-20)
(-0.0416142 0.0393207 0)
(-0.038893 0.031732 0)
(-0.0287166 0.0214833 7.03154e-22)
(-0.0116962 0.00859696 0)
(1.78207 0.0748246 -7.96594e-20)
(1.64546 0.0734491 -5.71699e-22)
(1.4826 0.0684678 -3.6464e-21)
(1.30235 0.0622089 1.20407e-19)
(1.11523 0.0560984 1.38075e-19)
(0.931824 0.0509965 0)
(0.759709 0.0474745 -1.72331e-19)
(0.603896 0.0456907 -9.51327e-20)
(0.466821 0.0455364 0)
(0.34906 0.0467205 -1.15558e-19)
(0.249949 0.0488441 6.26371e-20)
(0.168138 0.0514555 -6.88631e-20)
(0.101994 0.0540834 0)
(0.0498595 0.0562578 0)
(0.0101933 0.0575231 -8.63104e-20)
(-0.0183628 0.0574471 -9.23796e-20)
(-0.0369772 0.0556281 0)
(-0.0466482 0.0517036 -1.05415e-19)
(-0.0482423 0.0453561 1.10731e-19)
(-0.0425483 0.0363034 0)
(-0.0302796 0.0243647 1.52954e-19)
(-0.0119954 0.00957108 -1.85868e-19)
(1.63039 0.0546463 0)
(1.46394 0.0507544 -1.51011e-19)
(1.28208 0.0478308 1.15126e-19)
(1.09574 0.0446422 -6.44217e-20)
(0.91409 0.0427977 7.37417e-20)
(0.744603 0.0421811 -8.12548e-20)
(0.591713 0.0429912 1.79854e-19)
(0.457612 0.045032 1.98841e-19)
(0.342637 0.0480514 0)
(0.245965 0.0517156 0)
(0.166119 0.0556539 -6.5336e-20)
(0.10137 0.0594738 7.05447e-20)
(0.0499885 0.0627727 0)
(0.0103847 0.0651463 -8.21133e-20)
(-0.0188267 0.0661989 1.77652e-19)
(-0.038818 0.0655533 -9.41431e-20)
(-0.0505712 0.0628619 0)
(-0.0549148 0.0578188 1.06328e-19)
(-0.0525682 0.0501703 -1.11212e-19)
(-0.0441949 0.0397128 0)
(-0.0304109 0.026341 -1.21073e-19)
(-0.0117206 0.0101358 1.03892e-19)
(1.37475 0.0321748 0)
(1.19137 0.0308609 0)
(1.00921 0.0324075 0)
(0.83524 0.0336448 1.35471e-19)
(0.675527 0.0364648 0)
(0.533297 0.0399042 -8.32965e-20)
(0.40979 0.0441323 -1.84373e-19)
(0.304719 0.0488415 0)
(0.216881 0.0538242 0)
(0.144604 0.0588131 0)
(0.0860855 0.0635226 -6.65274e-20)
(0.0395899 0.0676427 -7.24859e-20)
(0.00356437 0.0708457 1.5403e-19)
(-0.023322 0.0727951 1.66566e-19)
(-0.0421781 0.0731578 4.51357e-22)
(-0.0539165 0.0716173 -9.44531e-20)
(-0.0592916 0.0678887 1.00577e-19)
(-0.058941 0.0617329 -1.05611e-19)
(-0.0534243 0.0529671 0)
(-0.0432653 0.0414676 -1.15761e-19)
(-0.0289562 0.0272025 2.39534e-19)
(-0.0109109 0.0102842 -2.57977e-20)
(1.08958 0.0194404 0)
(0.911998 0.02129 0)
(0.748766 0.026799 -6.23269e-20)
(0.600092 0.031365 -6.92369e-20)
(0.469763 0.0371938 0)
(0.35754 0.0430242 0)
(0.262873 0.0490809 1.88153e-19)
(0.184199 0.0550775 -2.0593e-19)
(0.119772 0.0608736 0)
(0.0677751 0.0662653 0)
(0.0265203 0.0710322 -2.98038e-22)
(-0.00548069 0.074923 0)
(-0.0294891 0.0776636 7.80057e-20)
(-0.0465468 0.0789658 -1.66536e-19)
(-0.0575018 0.0785423 -4.44082e-20)
(-0.0630436 0.0761221 9.49821e-20)
(-0.0637409 0.0714673 -2.00541e-19)
(-0.0600769 0.0643883 1.05331e-19)
(-0.0524811 0.0547553 5.48434e-20)
(-0.041359 0.0425018 1.14863e-19)
(-0.0270967 0.0276459 -2.92875e-20)
(-0.0100292 0.0103148 -1.00935e-19)
(0.810771 0.0134252 -1.00483e-19)
(0.655354 0.0191162 1.70014e-19)
(0.520893 0.0272119 0)
(0.402272 0.0340658 0)
(0.301976 0.0414391 0)
(0.217751 0.0483459 8.69814e-20)
(0.148373 0.0550143 1.38839e-22)
(0.0918906 0.0612639 1.0477e-19)
(0.0465842 0.067028 0)
(0.0108241 0.0721696 0)
(-0.0167947 0.0765232 -6.76221e-20)
(-0.037461 0.079882 0)
(-0.0521526 0.0820082 0)
(-0.0616614 0.0826451 1.26037e-19)
(-0.0666249 0.0815339 1.34502e-19)
(-0.0675582 0.0784314 -9.47644e-20)
(-0.0648863 0.0731279 0)
(-0.0589717 0.0654625 1.05232e-19)
(-0.0501378 0.0553346 -1.64865e-19)
(-0.0386899 0.0427093 1.13977e-19)
(-0.0249217 0.0276277 -8.79056e-20)
(-0.00909535 0.0102164 -2.46854e-20)
(0.560987 0.0137977 -5.10632e-20)
(0.435891 0.0224026 -1.73954e-19)
(0.332208 0.0313287 1.29404e-19)
(0.242971 0.0390984 2.75648e-22)
(0.169663 0.0466602 7.99799e-20)
(0.109413 0.0535361 1.17776e-22)
(0.0609144 0.0599145 -1.93814e-19)
(0.0223308 0.0657251 1.05777e-19)
(-0.00779735 0.0709478 -5.76924e-20)
(-0.0307965 0.0754908 -6.26923e-20)
(-0.0477698 0.0792207 1.36275e-19)
(-0.059632 0.0819566 -1.46552e-19)
(-0.0671249 0.0834821 3.92625e-20)
(-0.070845 0.0835597 -3.09142e-22)
(-0.0712699 0.081948 4.46321e-20)
(-0.0687855 0.0784208 0)
(-0.0637101 0.0727843 0)
(-0.056315 0.0648923 0)
(-0.0468408 0.0546563 0)
(-0.0355107 0.0420527 2.81134e-20)
(-0.0225416 0.0271243 0)
(-0.00813229 0.00997848 2.46204e-20)
(0.351512 0.0176673 1.0489e-19)
(0.257604 0.0274848 -2.35589e-19)
(0.182022 0.0360965 6.51356e-20)
(0.118494 0.0436797 7.29281e-20)
(0.0676628 0.0505966 -8.06078e-20)
(0.0269028 0.0567741 -8.92091e-20)
(-0.00495053 0.0623636 4.91936e-20)
(-0.0294158 0.0673758 -1.06889e-19)
(-0.047652 0.071816 -1.73598e-22)
(-0.0606901 0.0756205 1.90049e-19)
(-0.0693748 0.0786753 1.37167e-19)
(-0.0744005 0.080816 -1.10629e-19)
(-0.0763282 0.0818408 -1.18866e-19)
(-0.0756078 0.0815254 4.19966e-20)
(-0.0726001 0.0796408 -1.34803e-19)
(-0.0675971 0.0759714 9.47707e-20)
(-0.0608392 0.0703319 0)
(-0.0525302 0.0625805 -2.59626e-20)
(-0.0428478 0.0526293 0)
(-0.0319511 0.0404507 8.40244e-20)
(-0.0199977 0.0260729 -8.67207e-20)
(-0.00713888 0.00956998 8.4412e-20)
(0.183554 0.0224409 5.28665e-20)
(0.117398 0.0318126 5.96092e-20)
(0.0654729 0.0394448 -2.63443e-22)
(0.0230949 0.04613 0)
(-0.00971145 0.0519742 -8.17935e-20)
(-0.0350133 0.0571222 -3.4833e-22)
(-0.0537875 0.061707 2.46795e-19)
(-0.0672099 0.0657865 -1.0774e-19)
(-0.0761744 0.0693781 -5.88959e-20)
(-0.0814634 0.072435 0)
(-0.0837161 0.0748555 0)
(-0.0834561 0.0764882 -3.71478e-20)
(-0.0811067 0.0771441 0)
(-0.0770087 0.0766117 -8.46159e-20)
(-0.0714369 0.0746737 -8.40929e-23)
(-0.0646149 0.0711242 1.41859e-19)
(-0.0567273 0.0657836 9.94744e-20)
(-0.0479299 0.0585104 -1.81656e-19)
(-0.0383553 0.0492108 1.07891e-19)
(-0.0281159 0.0378455 0)
(-0.0173291 0.0244182 8.56057e-20)
(-0.00611806 0.00896084 -7.1314e-20)
(0.0533396 0.0260863 -1.07452e-19)
(0.0100669 0.0339282 5.98961e-20)
(-0.0227505 0.0402031 0)
(-0.0483011 0.0456447 7.45875e-20)
(-0.0669279 0.0502745 -8.20468e-20)
(-0.0801463 0.054305 4.5167e-20)
(-0.088753 0.0578596 4.95463e-20)
(-0.0936266 0.0610153 0)
(-0.0954431 0.0637959 5.8928e-20)
(-0.0947856 0.066165 -6.38767e-20)
(-0.0921302 0.0680323 1.0365e-19)
(-0.087867 0.0692597 -1.11295e-19)
(-0.0823131 0.0696732 3.96375e-20)
(-0.0757259 0.0690768 8.46786e-20)
(-0.0683156 0.0672682 -8.96724e-20)
(-0.0602557 0.0640536 -4.74579e-20)
(-0.0516913 0.0592611 9.91789e-20)
(-0.0427458 0.0527506 -2.58001e-20)
(-0.0335224 0.0444222 -1.07324e-19)
(-0.0241035 0.0342226 1.10611e-19)
(-0.0145848 0.0221288 1.39878e-20)
(-0.00508102 0.00812951 -1.17337e-19)
(-0.0438991 0.0274486 -5.42842e-22)
(-0.0690094 0.0333508 6.02927e-20)
(-0.0867646 0.0381109 -6.76539e-20)
(-0.0992343 0.0422082 7.4614e-20)
(-0.106915 0.0456387 0)
(-0.110879 0.0485976 -4.56304e-20)
(-0.111757 0.0511951 -2.33372e-22)
(-0.110188 0.053509 -1.09185e-19)
(-0.106668 0.0555644 -3.3598e-22)
(-0.10162 0.0573327 1.28645e-19)
(-0.0953878 0.0587354 -1.38733e-19)
(-0.0882551 0.0596503 7.46016e-20)
(-0.0804538 0.0599218 -7.9634e-20)
(-0.0721758 0.0593739 0)
(-0.0635815 0.057824 0)
(-0.0548072 0.0550956 -9.44394e-20)
(-0.0459703 0.0510297 7.4275e-20)
(-0.0371736 0.0454931 1.03199e-19)
(-0.0285037 0.0383851 -1.86943e-19)
(-0.0200273 0.0296432 9.63511e-20)
(-0.0118349 0.0192219 -1.00495e-22)
(-0.00405084 0.00707266 -8.10976e-20)
(-0.111771 0.0261119 0)
(-0.122874 0.0301416 0)
(-0.129092 0.0334393 6.79547e-20)
(-0.131727 0.0362632 -1.12425e-19)
(-0.131272 0.0386059 0)
(-0.128466 0.0406147 0)
(-0.123779 0.0423801 -5.02304e-20)
(-0.117658 0.0439695 0)
(-0.110449 0.0454058 2.97168e-20)
(-0.102441 0.0466668 0)
(-0.0938715 0.0476869 -3.47308e-20)
(-0.0849355 0.0483624 1.11978e-19)
(-0.0757964 0.0485603 -5.97048e-20)
(-0.0665937 0.048129 6.35874e-20)
(-0.0574485 0.0469103 0)
(-0.0484685 0.0447509 0)
(-0.0397515 0.0415118 1.23483e-19)
(-0.0313875 0.0370743 -6.42373e-20)
(-0.0234553 0.0313468 -2.66731e-20)
(-0.0160167 0.0242673 1.3726e-20)
(-0.00916956 0.0157793 -1.25897e-19)
(-0.00306092 0.0058114 1.062e-22)
(-0.15221 0.022314 1.0919e-19)
(-0.153057 0.0247829 -3.03125e-20)
(-0.150958 0.0268281 3.42748e-20)
(-0.146714 0.0285661 -7.53734e-20)
(-0.140716 0.0299969 1.24897e-19)
(-0.133445 0.0312194 -9.17348e-20)
(-0.125225 0.0323024 1.00583e-19)
(-0.116342 0.0332983 -5.48407e-20)
(-0.107016 0.0342258 -2.9911e-20)
(-0.0974283 0.0350686 0)
(-0.0877258 0.0357754 6.97542e-20)
(-0.0780326 0.0362635 -7.47536e-20)
(-0.0684567 0.0364253 1.9999e-20)
(-0.0590954 0.0361374 2.12515e-20)
(-0.0500392 0.0352703 0)
(-0.0413735 0.0336981 -9.43308e-20)
(-0.0331808 0.0313072 1.97348e-19)
(-0.0255418 0.0280023 -1.1553e-19)
(-0.0185313 0.0237104 1.32549e-20)
(-0.0122115 0.0183841 0)
(-0.00669319 0.0119726 1.11383e-19)
(-0.00215281 0.0044027 -9.70359e-20)
(-0.165825 0.0166864 -2.76854e-20)
(-0.160033 0.0179936 -2.93976e-22)
(-0.152761 0.0190831 3.41483e-20)
(-0.144485 0.0199918 -7.5676e-20)
(-0.135456 0.0207294 0)
(-0.125959 0.0213573 -2.31234e-20)
(-0.116185 0.0219237 5.03685e-20)
(-0.106291 0.0224653 2.75437e-20)
(-0.0963954 0.0229966 0)
(-0.0865899 0.023507 -6.493e-20)
(-0.0769511 0.0239606 1.39813e-19)
(-0.0675469 0.0242975 -9.36944e-20)
(-0.058442 0.0244384 -2.00144e-20)
(-0.0497014 0.0242903 2.1259e-20)
(-0.0413919 0.0237545 -1.12319e-20)
(-0.0335818 0.0227347 0)
(-0.0263409 0.0211453 -9.86641e-20)
(-0.0197409 0.0189176 2.05189e-19)
(-0.013851 0.0160058 -5.31423e-20)
(-0.00873205 0.0123888 -1.08957e-19)
(-0.00450321 0.00804337 5.57136e-20)
(-0.00136661 0.002926 5.68282e-21)
(-0.152636 0.0103348 -2.74991e-20)
(-0.143852 0.0108857 1.53954e-20)
(-0.134582 0.0113418 -1.70849e-20)
(-0.125107 0.0117011 3.79839e-20)
(-0.115542 0.0119798 0)
(-0.106029 0.0122131 4.6274e-20)
(-0.0966523 0.0124309 -5.05471e-20)
(-0.0874743 0.0126566 -4.14938e-20)
(-0.0785349 0.0129004 0)
(-0.0698623 0.0131579 0)
(-0.0614804 0.0134087 0)
(-0.0534152 0.0136168 9.40228e-21)
(-0.0456992 0.0137323 -6.02506e-20)
(-0.038373 0.0136944 6.3928e-20)
(-0.0314857 0.0134361 5.62869e-20)
(-0.0250927 0.0128904 -4.73194e-20)
(-0.0192537 0.0119975 4.32323e-20)
(-0.0140308 0.0107126 -5.13911e-20)
(-0.0094834 0.00901414 -1.99046e-20)
(-0.00566344 0.00691005 0)
(-0.00268138 0.00441692 0)
(-0.000741089 0.00154902 0)
(-0.112594 0.00430764 -2.76694e-20)
(-0.104519 0.0044512 4.60183e-20)
(-0.0964568 0.00455267 1.7153e-20)
(-0.0886048 0.00460915 0)
(-0.0809727 0.00463747 0)
(-0.0736152 0.00465534 -2.3173e-20)
(-0.0665459 0.00467699 5.72749e-20)
(-0.05977 0.00471329 -3.45732e-20)
(-0.0532806 0.00476989 6.79764e-20)
(-0.0470677 0.00484656 -1.30629e-19)
(-0.0411236 0.00493646 7.03135e-20)
(-0.0354471 0.00502572 4.24661e-20)
(-0.0300478 0.00509327 -5.00864e-21)
(-0.0249472 0.00511124 -4.27391e-20)
(-0.0201791 0.00504615 -5.65591e-21)
(-0.0157873 0.00486132 -5.94115e-21)
(-0.0118222 0.00452101 5.88102e-20)
(-0.00833743 0.00399699 -5.47059e-20)
(-0.00538221 0.00327927 6.64085e-21)
(-0.00299302 0.00238865 0)
(-0.00124305 0.00137775 0)
(-0.000288361 0.000353593 -1.42236e-21)
(-0.0461089 0.000465153 -4.20645e-22)
(-0.0423648 0.000489646 -2.3465e-22)
(-0.0386761 0.000500956 -2.60969e-22)
(-0.0351906 0.000499327 0)
(-0.0318841 0.000492465 -1.59501e-22)
(-0.0287708 0.000485026 0)
(-0.0258407 0.00048021 -3.09329e-20)
(-0.0230816 0.000480513 2.0028e-20)
(-0.0204766 0.000487738 -7.25189e-21)
(-0.0180084 0.00050301 0)
(-0.0156614 0.000526587 3.37991e-20)
(-0.0134241 0.000557537 -6.77261e-20)
(-0.0112915 0.00059329 4.32407e-20)
(-0.00926625 0.000629097 4.08748e-20)
(-0.00736031 0.000657468 -3.77758e-20)
(-0.00559523 0.00066783 5.6455e-21)
(-0.00400182 0.000646783 -5.01897e-20)
(-0.00261874 0.000579794 5.2197e-20)
(-0.00148787 0.000456039 0)
(-0.000644936 0.000277145 0)
(-0.000126849 6.87209e-05 -5.32555e-20)
(1.76506e-05 -8.35425e-05 4.52383e-20)
(1.13609 0.0241705 3.91429e-24)
(1.09002 0.0257822 0)
(1.04191 0.0274408 5.22106e-24)
(0.991658 0.0291479 2.49483e-20)
(0.93937 0.0309092 -2.7385e-20)
(0.885131 0.0327315 -7.70193e-24)
(0.829034 0.0346177 3.61266e-20)
(0.771187 0.0365688 -1.94303e-20)
(0.711705 0.0385842 2.24789e-20)
(0.650721 0.0406616 1.88773e-22)
(0.588376 0.0427931 -2.7283e-20)
(0.524839 0.0449566 2.91834e-20)
(0.460326 0.0470918 -4.81396e-20)
(0.395168 0.0490653 3.41669e-20)
(0.329919 0.0506275 0)
(0.26548 0.0513884 0)
(0.203216 0.0508235 5.02252e-24)
(0.145009 0.0483303 1.07172e-20)
(0.0931214 0.0433141 0)
(0.0499523 0.0352918 -5.65663e-24)
(0.0187395 0.0239499 0)
(0.00351959 0.0091935 2.39289e-24)
(1.1405 0.080162 6.31543e-20)
(1.09488 0.0858884 0)
(1.04737 0.0918885 0)
(0.997705 0.0981323 4.95107e-20)
(0.945998 0.104613 -1.10641e-19)
(0.892344 0.111335 6.16007e-20)
(0.836832 0.118295 -7.16401e-20)
(0.77957 0.125487 9.71474e-20)
(0.720677 0.132902 0)
(0.660282 0.140527 -2.44293e-20)
(0.598527 0.148329 -5.40406e-20)
(0.535574 0.15622 5.78053e-20)
(0.471626 0.163977 4.72083e-20)
(0.406984 0.171111 6.8604e-20)
(0.342142 0.176728 8.64278e-22)
(0.277911 0.179449 -7.68726e-20)
(0.215533 0.177447 8.17129e-20)
(0.15675 0.168645 -7.45741e-20)
(0.103677 0.151019 0)
(0.0585887 0.122934 2.26227e-20)
(0.0246342 0.0833576 2.33062e-20)
(0.00580902 0.0320072 -7.75532e-20)
(1.14917 0.13616 -1.26466e-19)
(1.1045 0.146017 -5.26626e-22)
(1.05824 0.156282 -8.22386e-20)
(1.00975 0.166944 0)
(0.959217 0.177995 1.10325e-19)
(0.906748 0.189444 -1.20729e-19)
(0.85243 0.201291 6.81152e-20)
(0.796372 0.213528 -3.90421e-20)
(0.738694 0.226144 0)
(0.679522 0.239115 0)
(0.618997 0.252389 0)
(0.557267 0.265817 0)
(0.494505 0.279017 -3.12638e-20)
(0.430948 0.291152 0)
(0.366967 0.300697 0)
(0.303186 0.305297 3.70225e-20)
(0.240596 0.301846 0)
(0.180644 0.286813 1.97198e-20)
(0.125155 0.256768 -1.73226e-19)
(0.0761539 0.208955 1.33631e-19)
(0.0366172 0.141644 6.91874e-20)
(0.0104612 0.0543779 -1.82031e-20)
(1.16118 0.189421 -1.85559e-19)
(1.11806 0.203289 2.78854e-19)
(1.07375 0.217678 2.45248e-21)
(1.02711 0.23264 0)
(0.97842 0.248152 3.74527e-21)
(0.927794 0.264226 -1.17105e-19)
(0.875319 0.28086 -1.33582e-19)
(0.821109 0.298044 7.34557e-20)
(0.765286 0.315761 8.16538e-20)
(0.707979 0.333979 0)
(0.649321 0.352624 -9.89736e-20)
(0.589447 0.371488 0)
(0.528487 0.390032 5.83661e-20)
(0.466576 0.407082 0)
(0.403908 0.420492 -6.68792e-20)
(0.340823 0.426957 -1.82667e-19)
(0.277936 0.422121 1.15003e-19)
(0.216258 0.401049 1.19403e-19)
(0.157177 0.358959 -1.65566e-19)
(0.102348 0.292032 2.18877e-20)
(0.0544887 0.19789 0)
(0.0173969 0.075941 -1.09347e-19)
(1.17651 0.240082 1.14254e-19)
(1.13544 0.257831 -7.45621e-20)
(1.09373 0.276145 2.31872e-19)
(1.04954 0.295202 1.80857e-19)
(1.00329 0.314959 -9.1742e-20)
(0.955111 0.335431 -1.1236e-19)
(0.90508 0.35662 6.54121e-20)
(0.853322 0.378514 -6.77573e-20)
(0.799962 0.401093 -2.38808e-19)
(0.745129 0.42432 8.57356e-20)
(0.688953 0.4481 9.86342e-20)
(0.631547 0.472169 0)
(0.572982 0.495842 -5.81944e-20)
(0.513267 0.517614 0)
(0.452354 0.534745 -1.94696e-19)
(0.39021 0.54301 2.74605e-19)
(0.326952 0.536853 3.71658e-20)
(0.263017 0.509989 0)
(0.199222 0.456358 0)
(0.136738 0.371146 0)
(0.0779464 0.2514 -1.27921e-19)
(0.0264945 0.096427 1.19719e-19)
(1.19471 0.286854 -2.22931e-19)
(1.15624 0.308311 -2.57837e-19)
(1.11773 0.330312 -1.44106e-19)
(1.07658 0.353232 0)
(1.03336 0.376995 3.86141e-19)
(0.988202 0.401619 -2.13257e-19)
(0.941193 0.427109 1.18094e-19)
(0.892464 0.453453 2.70975e-19)
(0.842144 0.480632 -6.2485e-21)
(0.790363 0.5086 1.66396e-19)
(0.737247 0.537251 -1.80344e-19)
(0.682884 0.566268 0)
(0.627277 0.594828 1.032e-19)
(0.570275 0.621118 -1.10492e-19)
(0.511538 0.641831 5.87078e-20)
(0.450573 0.651863 0)
(0.386882 0.644514 -6.48909e-20)
(0.320196 0.612219 0)
(0.250632 0.547719 2.93134e-19)
(0.178778 0.445295 -6.05283e-19)
(0.106613 0.301493 5.83982e-19)
(0.0376023 0.115573 -9.67843e-20)
(1.21535 0.32916 0)
(1.17997 0.354097 1.24949e-19)
(1.14523 0.379488 1.43048e-19)
(1.10764 0.405978 0)
(1.06797 0.433445 -9.25621e-20)
(1.02636 0.461917 0)
(0.982891 0.491401 -7.25748e-21)
(0.93772 0.521886 -1.30878e-19)
(0.890975 0.55335 -2.80766e-19)
(0.84279 0.585747 -6.91146e-20)
(0.793282 0.618954 0)
(0.742514 0.652613 1.84737e-19)
(0.690407 0.685775 -4.98445e-19)
(0.636628 0.716346 2.19635e-19)
(0.580489 0.740484 -5.84681e-20)
(0.520955 0.752265 -5.64778e-20)
(0.456805 0.743899 1.23705e-19)
(0.386937 0.706626 6.13046e-20)
(0.31065 0.63207 0)
(0.227856 0.513701 0)
(0.140072 0.347649 0)
(0.0505552 0.133187 -3.09442e-20)
(1.23776 0.366304 -2.88984e-19)
(1.20598 0.394475 1.11331e-19)
(1.17552 0.422943 -1.31979e-19)
(1.14198 0.452679 1.45347e-19)
(1.10635 0.483508 0)
(1.06877 0.515464 0)
(1.02933 0.548565 -3.22233e-19)
(0.988196 0.582804 1.19299e-19)
(0.945504 0.618162 -1.26843e-19)
(0.901391 0.654595 4.30266e-19)
(0.855973 0.691973 3.12044e-19)
(0.809286 0.729905 -5.83098e-19)
(0.761166 0.767338 9.39864e-20)
(0.711074 0.801924 1.00778e-19)
(0.657936 0.829338 0)
(0.600099 0.84288 5.6227e-20)
(0.535512 0.833754 -6.22703e-21)
(0.462122 0.792067 1.15717e-19)
(0.378297 0.708427 -2.95813e-19)
(0.283186 0.575581 2.47767e-19)
(0.177793 0.389342 2.27575e-21)
(0.0651444 0.149063 1.18275e-21)
(1.26118 0.39772 1.97659e-19)
(1.23345 0.428796 -3.12637e-19)
(1.20769 0.45997 -3.70569e-21)
(1.17859 0.492598 2.71847e-19)
(1.14741 0.526437 -2.98866e-19)
(1.11426 0.561529 1.74501e-19)
(1.07928 0.597897 -6.18856e-21)
(1.04262 0.635535 1.11463e-19)
(1.00443 0.674425 -1.12331e-19)
(0.964862 0.714521 0)
(0.924017 0.755692 2.81319e-19)
(0.881906 0.797521 8.08143e-20)
(0.838272 0.838872 -1.52688e-19)
(0.792358 0.877184 -1.71935e-19)
(0.742659 0.907696 8.486e-20)
(0.686834 0.923011 9.98495e-20)
(0.621903 0.913386 -3.40901e-19)
(0.544749 0.867897 5.41989e-20)
(0.452701 0.776214 5.59743e-20)
(0.344074 0.630469 0)
(0.219314 0.426257 0)
(0.0811922 0.163092 -4.28812e-20)
(1.28472 0.423252 1.7213e-19)
(1.26154 0.456949 0)
(1.24088 0.49048 0)
(1.21665 0.525602 1.25531e-19)
(1.19031 0.561999 7.76591e-21)
(1.16197 0.599739 0)
(1.13177 0.638864 -1.82183e-19)
(1.09991 0.679379 -1.93641e-19)
(1.06655 0.721277 2.20962e-19)
(1.03184 0.764521 -3.39928e-19)
(0.995897 0.808983 4.98144e-19)
(0.958706 0.85424 -3.93237e-19)
(0.919931 0.899099 7.573e-20)
(0.878587 0.940826 0)
(0.83272 0.974288 -8.42302e-20)
(0.779245 0.991448 1.25287e-20)
(0.714163 0.981692 9.08604e-20)
(0.63317 0.933128 3.9358e-20)
(0.532452 0.834585 0)
(0.409412 0.677683 0)
(0.263901 0.457917 -1.88433e-19)
(0.098411 0.175079 1.99618e-19)
(1.30749 0.442416 0)
(1.2892 0.478285 0)
(1.27385 0.513785 -1.00374e-19)
(1.2547 0.551073 3.72429e-21)
(1.23346 0.589733 0)
(1.21025 0.629837 0)
(1.1852 0.671423 -1.56276e-19)
(1.15853 0.714498 -1.57429e-21)
(1.13041 0.759058 3.84395e-19)
(1.10099 0.805074 -1.90061e-19)
(1.0704 0.852423 2.17371e-19)
(1.03859 0.900682 1.22194e-19)
(1.00515 0.948626 -3.60794e-19)
(0.968868 0.993392 0)
(0.9273 1.02954 0)
(0.876562 1.04846 2.09262e-19)
(0.811544 1.03879 -1.41322e-19)
(0.726664 0.987749 -3.91363e-20)
(0.616874 0.883441 1.42628e-19)
(0.478621 0.717081 -1.47554e-19)
(0.311143 0.484198 0)
(0.116638 0.184977 0)
(1.32856 0.455953 0)
(1.31577 0.493771 8.64233e-21)
(1.3061 0.530822 -1.7641e-19)
(1.29236 0.569716 1.55077e-20)
(1.27644 0.609998 -1.11057e-19)
(1.25847 0.651785 0)
(1.23865 0.695141 1.37486e-19)
(1.21723 0.740087 -2.99829e-19)
(1.19439 0.786634 2.49781e-19)
(1.17032 0.834763 9.38833e-20)
(1.14516 0.884371 0)
(1.11885 0.935058 0)
(1.09093 0.985602 2.07005e-19)
(1.05997 1.03307 0)
(1.02307 1.07178 0)
(0.975515 1.09265 2.63698e-19)
(0.911007 1.08354 -2.74088e-19)
(0.822557 1.03087 0)
(0.703756 0.922065 0)
(0.550016 0.748075 0)
(0.359948 0.504645 0)
(0.135449 0.192587 -9.70344e-20)
(1.34699 0.462717 0)
(1.33977 0.502018 1.48707e-19)
(1.33568 0.540501 1.60528e-19)
(1.32754 0.580968 1.09018e-20)
(1.31725 0.622852 -9.94626e-20)
(1.30492 0.666271 1.08958e-19)
(1.29077 0.711295 -1.19701e-19)
(1.27506 0.757957 1.22548e-19)
(1.25799 0.806278 1.40817e-19)
(1.23976 0.85625 -2.17122e-19)
(1.22051 0.907781 3.14989e-19)
(1.2002 0.960486 -1.67037e-19)
(1.17828 1.01315 -1.69638e-19)
(1.15313 1.06281 0)
(1.12132 1.10356 0)
(1.07727 1.12594 1.13777e-19)
(1.01341 1.11721 -1.22797e-19)
(0.92128 1.06314 0)
(0.793112 0.950668 -1.05383e-19)