/*--------------------------------*- C++ -*----------------------------------*\
| =========                 |                                                 |
| \\      /  F ield         | OpenFOAM Extend Project: Open source CFD        |
|  \\    /   O peration     | Version:  1.6-ext                               |
|   \\  /    A nd           | Web:      www.extend-project.de                 |
|    \\/     M anipulation  |                                                 |
\*---------------------------------------------------------------------------*/
FoamFile
{
    version     2.0;
    format      ascii;
    class       volVectorField;
    location    "1.2";
    object      U_0;
}
// * * * * * * * * * * * * * * * * * * * * * * * * * * * * * * * * * * * * * //

dimensions      [0 1 -1 0 0 0 0];

internalField   nonuniform List<vector> 
20940
(
(1.84911 0.399065 9.35951e-21)
(1.8886 0.419101 -1.26786e-20)
(1.92599 0.438413 0)
(1.96043 0.455953 0)
(1.99162 0.47193 7.46669e-21)
(2.0179 0.485215 9.32058e-21)
(2.0363 0.494694 1.19453e-20)
(2.04198 0.498415 -1.30455e-20)
(2.02856 0.49414 0)
(1.98893 0.479631 9.8251e-21)
(1.9169 0.453359 0)
(1.80892 0.415103 1.30924e-20)
(1.66547 0.366315 0)
(1.49147 0.31 8.21414e-21)
(1.29542 0.250177 -1.81572e-23)
(1.08775 0.191107 9.81768e-21)
(0.878984 0.136594 -1.0545e-20)
(0.678187 0.0895299 0)
(0.492147 0.0517196 -1.80693e-20)
(0.325139 0.0239277 2.52828e-20)
(0.17917 0.00662637 1.65318e-22)
(0.054439 0.000492422 -1.08891e-20)
(1.87598 0.375897 9.73893e-21)
(1.91418 0.394778 -8.32993e-21)
(1.94997 0.412276 -1.02751e-20)
(1.98221 0.428027 2.44387e-20)
(2.01008 0.441692 -2.18606e-20)
(2.03106 0.452059 -9.29193e-21)
(2.04113 0.457711 4.80821e-20)
(2.03454 0.456607 -1.2664e-20)
(2.00452 0.446679 0)
(1.94459 0.426251 -9.77108e-21)
(1.8503 0.394696 -2.33875e-20)
(1.72078 0.352849 1.21539e-20)
(1.55947 0.303057 -1.43578e-20)
(1.37374 0.24879 -2.40688e-20)
(1.17344 0.193964 0)
(0.969117 0.142246 4.78446e-20)
(0.770325 0.0965476 -9.50574e-21)
(0.584608 0.0588096 -2.17178e-20)
(0.417094 0.0300007 1.78376e-20)
(0.270608 0.0102626 -2.40658e-20)
(0.1461 -0.000350445 0)
(0.0431737 -0.00140197 0)
(1.90062 0.352701 0)
(1.93722 0.370496 1.44482e-20)
(1.97085 0.386285 -2.85509e-21)
(2.00003 0.400256 5.16431e-20)
(2.02315 0.411499 -3.0278e-20)
(2.03669 0.418719 2.07106e-20)
(2.03559 0.420256 -2.22143e-20)
(2.01345 0.414144 -1.41059e-20)
(1.96374 0.398698 0)
(1.88134 0.373001 -3.87874e-20)
(1.76427 0.337407 -4.59439e-20)
(1.61464 0.293692 4.94421e-20)
(1.43867 0.244807 -4.32872e-20)
(1.24551 0.194307 1.3938e-20)
(1.04553 0.145682 3.27948e-20)
(0.848613 0.101814 3.57339e-20)
(0.662869 0.0647043 1.93406e-20)
(0.494125 0.0354485 0)
(0.345901 0.0143491 5.59073e-20)
(0.219739 0.00109482 -2.21322e-20)
(0.115727 -0.00455334 -4.80695e-20)
(0.0330121 -0.00235053 0)
(1.92411 0.329849 -2.86797e-20)
(1.95862 0.346627 1.54867e-20)
(1.98928 0.360741 2.21885e-20)
(2.01407 0.372831 -2.74984e-20)
(2.03037 0.381409 6.85767e-20)
(2.03354 0.385132 -3.84162e-20)
(2.01771 0.382224 -2.39094e-20)
(1.97636 0.371007 -5.92786e-20)
(1.90399 0.350407 6.45539e-20)
(1.79771 0.320407 7.82433e-20)
(1.65852 0.282312 -8.76024e-20)
(1.49153 0.238604 -1.9512e-21)
(1.30517 0.192474 1.0944e-19)
(1.10951 0.147201 -5.93378e-20)
(0.914544 0.1056 0)
(0.728822 0.0696943 -5.26343e-20)
(0.558711 0.0406389 -1.93172e-20)
(0.40829 0.0188349 6.12634e-20)
(0.279615 0.00409173 -1.69471e-19)
(0.17316 -0.00419997 1.10959e-19)
(0.0883478 -0.00645794 0)
(0.0240191 -0.00255256 1.88765e-20)
(1.94615 0.307415 -3.07403e-20)
(1.97792 0.323169 7.28386e-20)
(2.00443 0.335556 -1.69408e-20)
(2.02292 0.345556 -2.67914e-20)
(2.02959 0.35114 -1.00794e-21)
(2.01883 0.351009 -8.39304e-20)
(1.98435 0.34346 9.72671e-20)
(1.92037 0.327342 -5.51486e-20)
(1.82335 0.302371 0)
(1.69332 0.269464 3.74461e-20)
(1.53443 0.230693 -4.49416e-20)
(1.35437 0.188906 1.9085e-19)
(1.16285 0.147157 -1.55902e-19)
(0.969898 0.10816 -5.84687e-20)
(0.784333 0.0739305 3.1352e-20)
(0.612951 0.0456675 3.45296e-20)
(0.460273 0.0238211 -3.53748e-20)
(0.328764 0.00827332 -2.01162e-20)
(0.219253 -0.0014919 8.04362e-20)
(0.131392 -0.00624814 0)
(0.0641481 -0.00649899 0)
(0.0161968 -0.00217195 -1.88948e-20)
(1.96623 0.285465 -2.87498e-20)
(1.99426 0.300136 0)
(2.01488 0.310647 4.97469e-20)
(2.02445 0.318239 -1.43713e-19)
(2.01794 0.320442 -3.55761e-21)
(1.98918 0.31617 -5.76037e-22)
(1.93228 0.304031 -4.87485e-20)
(1.84316 0.283613 0)
(1.7211 0.255502 0)
(1.56939 0.221421 -1.1263e-19)
(1.39504 0.183898 3.9469e-20)
(1.2074 0.145764 4.53885e-20)
(1.01642 0.109614 5.16851e-20)
(0.831138 0.0774331 5.76039e-20)
(0.658666 0.0504439 -8.83504e-20)
(0.503881 0.0291412 9.68216e-20)
(0.369565 0.0134457 2.50353e-21)
(0.256818 0.00289561 -1.10299e-19)
(0.165521 -0.00320707 7.7826e-20)
(0.0947574 -0.00569654 -1.20268e-19)
(0.0432218 -0.00509732 0)
(0.00954161 -0.00135948 7.06789e-20)
(1.9839 0.263807 -3.05898e-20)
(2.00658 0.277203 4.08329e-20)
(2.01879 0.285562 5.1168e-20)
(2.01592 0.290368 -5.66222e-20)
(1.99206 0.28888 1.40797e-19)
(1.94119 0.280436 -4.45828e-20)
(1.85888 0.264178 1.42696e-19)
(1.74372 0.240554 -5.57264e-20)
(1.59832 0.210942 0)
(1.42905 0.177596 7.3159e-20)
(1.24491 0.143122 -7.91349e-20)
(1.05579 0.109991 -1.39021e-21)
(0.870843 0.080142 0)
(0.697457 0.0548061 5.41773e-20)
(0.540785 0.034516 -5.64545e-20)
(0.403863 0.019235 -3.15566e-20)
(0.287991 0.00853181 -3.27919e-20)
(0.19321 0.0017512 6.96455e-20)
(0.118743 -0.0018762 0)
(0.0633213 -0.00317377 3.96138e-20)
(0.0255206 -0.00264709 0)
(0.00400651 -0.000251008 -1.6577e-20)
(1.99763 0.242369 -3.57292e-20)
(2.01267 0.254227 -4.42569e-20)
(2.01311 0.260106 -4.16345e-21)
(1.99365 0.261764 1.18749e-19)
(1.94814 0.256448 2.97257e-21)
(1.87181 0.244146 -8.08881e-20)
(1.76274 0.224693 9.8633e-20)
(1.62288 0.199365 2.28243e-21)
(1.4581 0.170089 0)
(1.27706 0.139286 6.91938e-20)
(1.0896 0.109285 0)
(0.904977 0.081972 -4.35144e-20)
(0.730796 0.0585755 4.61728e-20)
(0.572447 0.0396584 0)
(0.433169 0.0252269 -5.49458e-20)
(0.314415 0.0148903 -1.72891e-21)
(0.216332 0.00802004 1.2565e-19)
(0.138224 0.00388261 0)
(0.0789031 0.00171256 0)
(0.0369348 0.00074025 3.64168e-20)
(0.010885 0.000499371 0)
(-0.000486799 0.00103604 8.16279e-20)
(2.00609 0.220588 6.75401e-20)
(2.01016 0.230508 4.4625e-20)
(1.99464 0.233564 3.80787e-21)
(1.95407 0.231916 -5.76569e-20)
(1.88316 0.223048 0)
(1.77956 0.207741 0)
(1.64465 0.186524 0)
(1.48383 0.161291 -5.23881e-22)
(1.3055 0.134175 0)
(1.11944 0.107403 -1.37343e-19)
(0.935041 0.0827891 7.43611e-20)
(0.760097 0.0615546 0)
(0.600213 0.0442885 -9.03589e-20)
(0.458799 0.0310393 -9.88108e-20)
(0.337426 0.021463 -1.54112e-21)
(0.236311 0.0149718 1.12937e-19)
(0.154797 0.010858 -5.97151e-20)
(0.0917267 0.00838833 0)
(0.0457122 0.00684642 -1.36652e-19)
(0.0152843 0.00553755 1.05477e-19)
(-0.000926089 0.00404167 -1.12764e-19)
(-0.00403776 0.00240462 1.55336e-19)
(2.0058 0.1985 0)
(1.99498 0.206157 8.93488e-20)
(1.95905 0.206245 5.41028e-20)
(1.89352 0.201416 -1.20833e-19)
(1.79512 0.18966 0)
(1.66486 0.172571 8.26375e-20)
(1.50766 0.151226 0)
(1.33174 0.127811 -5.33172e-20)
(1.14682 0.104315 0)
(0.962488 0.0825151 0)
(0.786731 0.0636045 0)
(0.625364 0.0481951 7.88502e-20)
(0.481955 0.0363756 -4.35403e-20)
(0.358174 0.0278505 4.52518e-20)
(0.254287 0.0220798 2.03821e-19)
(0.169648 0.0183969 -2.72712e-19)
(0.103099 0.0160951 1.75458e-19)
(0.0532529 0.0144873 -1.2461e-19)
(0.0186698 0.0129282 1.30096e-19)
(-0.00206382 0.0108042 0)
(-0.0102103 0.00774117 -7.15193e-20)
(-0.00675908 0.00378021 -6.05085e-20)
(1.99494 0.175079 0)
(1.96436 0.180206 -8.83582e-20)
(1.90386 0.177443 0)
(1.81076 0.170087 6.24727e-20)
(1.68497 0.156701 0)
(1.53122 0.139484 -8.17118e-20)
(1.35742 0.119783 9.38219e-20)
(1.1734 0.099715 2.37519e-21)
(0.988881 0.0808712 5.9741e-20)
(0.812143 0.0644628 -3.19635e-19)
(0.649218 0.0511065 1.39846e-19)
(0.503835 0.0409343 -1.55736e-19)
(0.377754 0.0337002 -1.13162e-21)
(0.271274 0.0289172 -6.73197e-22)
(0.183746 0.025968 0)
(0.113989 0.0241877 1.42792e-21)
(0.0605925 0.022917 5.55589e-20)
(0.0221065 0.0215385 0)
(-0.00286031 0.0194846 0)
(-0.0156141 0.0162219 0)
(-0.0172938 0.0114186 -1.37237e-19)
(-0.00876775 0.00510825 1.17638e-19)
(1.96745 0.15142 0)
(1.91373 0.154109 9.42744e-20)
(1.82604 0.149033 -1.04556e-19)
(1.70545 0.140071 -1.86722e-19)
(1.55533 0.126374 7.24905e-20)
(1.38377 0.11049 -7.97978e-20)
(1.20051 0.0937509 0)
(1.01564 0.0779298 0)
(0.837701 0.0641018 -1.69036e-19)
(0.673045 0.0529267 6.27573e-20)
(0.525591 0.0445576 2.05471e-19)
(0.397201 0.0387969 -1.48531e-19)
(0.288204 0.0352067 8.18038e-20)
(0.197935 0.0332201 -1.30236e-19)
(0.125178 0.0322181 0)
(0.0684836 0.0315809 1.0199e-19)
(0.0263712 0.0307179 -5.51031e-20)
(-0.0025619 0.029087 5.7032e-20)
(-0.0195985 0.0261964 0)
(-0.0259129 0.0215869 0)
(-0.0225206 0.0149661 1.67524e-19)
(-0.010185 0.00635948 -2.26409e-19)
(1.92505 0.125597 0)
(1.84369 0.126209 9.35778e-20)
(1.72816 0.119838 0)
(1.58219 0.110675 1.23348e-19)
(1.41279 0.0983874 -6.95308e-22)
(1.23021 0.085376 7.88615e-20)
(1.04464 0.07275 8.45917e-22)
(0.865157 0.0617665 1.50794e-21)
(0.698422 0.0530051 1.35466e-21)
(0.548617 0.0466777 0)
(0.41773 0.0426251 -6.69313e-20)
(0.306128 0.0404642 -1.45794e-19)
(0.213125 0.0396803 1.56792e-19)
(0.137456 0.0397038 1.71924e-19)
(0.07762 0.0399587 -1.8389e-19)
(0.032091 0.0398912 1.4738e-19)
(-0.000562686 0.0389844 -1.04784e-19)
(-0.021631 0.0367691 -1.11848e-19)
(-0.0322601 0.0328231 1.18357e-19)
(-0.0334875 0.0267551 -2.47548e-19)
(-0.0262143 0.0183113 9.68833e-20)
(-0.0111205 0.00751424 2.81282e-20)
(1.85769 0.101912 8.06915e-20)
(1.75144 0.101134 3.34343e-21)
(1.61 0.0943137 4.17243e-21)
(1.44414 0.0859844 -5.90439e-20)
(1.26255 0.0760252 -2.7941e-19)
(1.0765 0.0664876 0)
(0.895321 0.0581826 1.75692e-19)
(0.726267 0.0518163 0)
(0.573824 0.0475602 0)
(0.440191 0.0452979 1.17589e-19)
(0.325803 0.0446825 0)
(0.229969 0.045246 2.117e-19)
(0.15138 0.0464641 -1.52412e-19)
(0.0884727 0.0478022 8.31917e-20)
(0.0396654 0.0487413 -3.13066e-22)
(0.00348525 0.0487924 0)
(-0.0213809 0.0475037 0)
(-0.0360797 0.0444676 5.47568e-20)
(-0.0416146 0.0393212 0)
(-0.0388935 0.0317324 0)
(-0.0287169 0.0214835 7.0316e-22)
(-0.0116963 0.00859707 0)
(1.78207 0.0748195 -7.96585e-20)
(1.64547 0.073445 -5.71731e-22)
(1.48261 0.0684645 -3.64646e-21)
(1.30236 0.0622065 1.20406e-19)
(1.11524 0.0560967 1.38074e-19)
(0.931832 0.0509955 0)
(0.759717 0.047474 -1.72329e-19)
(0.603902 0.0456907 -9.5132e-20)
(0.466826 0.0455367 0)
(0.349064 0.0467211 -1.15557e-19)
(0.249952 0.0488449 6.26365e-20)
(0.16814 0.0514564 -6.88625e-20)
(0.101996 0.0540844 0)
(0.0498602 0.0562588 0)
(0.0101935 0.0575242 -8.63096e-20)
(-0.018363 0.0574481 -9.23788e-20)
(-0.0369775 0.055629 0)
(-0.0466487 0.0517044 -1.05414e-19)
(-0.0482429 0.0453568 1.1073e-19)
(-0.0425489 0.036304 0)
(-0.03028 0.024365 1.52953e-19)
(-0.0119956 0.00957121 -1.85867e-19)
(1.6304 0.0546418 0)
(1.46395 0.0507508 -1.51009e-19)
(1.28209 0.047828 1.15125e-19)
(1.09575 0.0446402 -6.44211e-20)
(0.914099 0.0427964 7.37411e-20)
(0.744611 0.0421804 -8.12542e-20)
(0.591719 0.042991 1.79853e-19)
(0.457617 0.0450322 1.98839e-19)
(0.342642 0.048052 0)
(0.245968 0.0517164 0)
(0.166121 0.0556549 -6.53354e-20)
(0.101372 0.059475 7.05441e-20)
(0.0499894 0.0627739 0)
(0.010385 0.0651476 -8.21125e-20)
(-0.0188268 0.0662002 1.77651e-19)
(-0.0388184 0.0655545 -9.41422e-20)
(-0.0505718 0.062863 0)
(-0.0549155 0.0578198 1.06327e-19)
(-0.0525689 0.0501711 -1.11211e-19)
(-0.0441955 0.0397134 0)
(-0.0304113 0.0263414 -1.21072e-19)
(-0.0117208 0.0101359 1.03891e-19)
(1.37476 0.032171 0)
(1.19138 0.0308579 0)
(1.00922 0.0324053 0)
(0.835249 0.0336434 1.3547e-19)
(0.675535 0.036464 0)
(0.533304 0.0399039 -8.32959e-20)
(0.409796 0.0441325 -1.84372e-19)
(0.304724 0.048842 0)
(0.216884 0.0538251 0)
(0.144607 0.0588142 0)
(0.086087 0.0635239 -6.65268e-20)
(0.0395908 0.0676441 -7.24852e-20)
(0.00356466 0.0708471 1.54029e-19)
(-0.0233222 0.0727966 1.66564e-19)
(-0.0421785 0.0731592 4.51353e-22)
(-0.0539171 0.0716186 -9.44522e-20)
(-0.0592924 0.06789 1.00576e-19)
(-0.0589418 0.061734 -1.0561e-19)
(-0.0534251 0.052968 0)
(-0.043266 0.0414683 -1.1576e-19)
(-0.0289567 0.0272029 2.39532e-19)
(-0.010911 0.0102844 -2.57974e-20)
(1.08959 0.0194372 0)
(0.91201 0.0212877 0)
(0.748776 0.0267974 -6.23264e-20)
(0.600101 0.0313641 -6.92363e-20)
(0.46977 0.0371934 0)
(0.357546 0.0430243 0)
(0.262877 0.0490814 1.88151e-19)
(0.184202 0.0550784 -2.05928e-19)
(0.119775 0.0608747 0)
(0.0677765 0.0662666 0)
(0.026521 0.0710336 -2.98058e-22)
(-0.00548047 0.0749246 0)
(-0.0294893 0.0776652 7.80049e-20)
(-0.0465473 0.0789674 -1.66534e-19)
(-0.0575026 0.0785438 -4.44077e-20)
(-0.0630445 0.0761235 9.49812e-20)
(-0.0637418 0.0714687 -2.00539e-19)
(-0.0600778 0.0643896 1.0533e-19)
(-0.0524819 0.0547563 5.48428e-20)
(-0.0413597 0.0425026 1.14862e-19)
(-0.0270972 0.0276464 -2.92872e-20)
(-0.0100294 0.010315 -1.00935e-19)
(0.810783 0.0134226 -1.00482e-19)
(0.655365 0.0191144 1.70012e-19)
(0.520901 0.0272108 0)
(0.402279 0.0340653 0)
(0.301981 0.041439 0)
(0.217755 0.0483463 8.69806e-20)
(0.148376 0.0550151 1.38803e-22)
(0.0918926 0.061265 1.04769e-19)
(0.0465854 0.0670292 0)
(0.0108246 0.072171 0)
(-0.0167947 0.0765248 -6.76215e-20)
(-0.0374613 0.0798836 0)
(-0.0521532 0.0820099 0)
(-0.0616623 0.0826468 1.26036e-19)
(-0.0666259 0.0815356 1.345e-19)
(-0.0675593 0.078433 -9.47635e-20)
(-0.0648874 0.0731294 0)
(-0.0589727 0.0654638 1.05231e-19)
(-0.0501387 0.0553357 -1.64864e-19)
(-0.0386906 0.0427101 1.13976e-19)
(-0.0249222 0.0276283 -8.79047e-20)
(-0.00909553 0.0102166 -2.46851e-20)
(0.560997 0.0137957 -5.10627e-20)
(0.435899 0.0224013 -1.73952e-19)
(0.332215 0.031328 1.29403e-19)
(0.242976 0.0390983 2.75617e-22)
(0.169667 0.0466605 7.99791e-20)
(0.109416 0.0535367 1.1774e-22)
(0.0609161 0.0599154 -1.93812e-19)
(0.0223318 0.0657263 1.05776e-19)
(-0.00779704 0.0709492 -5.76918e-20)
(-0.0307966 0.0754923 -6.26916e-20)
(-0.0477703 0.0792223 1.36274e-19)
(-0.0596328 0.0819582 -1.46551e-19)
(-0.067126 0.0834839 3.92621e-20)
(-0.0708461 0.0835614 -3.09156e-22)
(-0.0712711 0.0819497 4.46316e-20)
(-0.0687867 0.0784224 0)
(-0.0637112 0.0727858 0)
(-0.0563161 0.0648936 0)
(-0.0468416 0.0546574 0)
(-0.0355114 0.0420535 2.81131e-20)
(-0.022542 0.0271248 0)
(-0.00813246 0.00997869 2.46202e-20)
(0.35152 0.0176658 1.04889e-19)
(0.25761 0.027484 -2.35586e-19)
(0.182027 0.0360963 6.51349e-20)
(0.118498 0.0436799 7.29273e-20)
(0.067665 0.0505971 -8.0607e-20)
(0.0269041 0.0567749 -8.92082e-20)
(-0.00495001 0.0623647 4.91931e-20)
(-0.0294159 0.0673771 -1.06888e-19)
(-0.0476525 0.0718174 -1.73592e-22)
(-0.0606909 0.075622 1.90047e-19)
(-0.0693758 0.0786769 1.37165e-19)
(-0.0744018 0.0808177 -1.10628e-19)
(-0.0763295 0.0818425 -1.18865e-19)
(-0.0756091 0.0815271 4.19961e-20)
(-0.0726015 0.0796424 -1.34802e-19)
(-0.0675984 0.075973 9.47696e-20)
(-0.0608403 0.0703333 0)
(-0.0525312 0.0625818 -2.59623e-20)
(-0.0428486 0.0526303 0)
(-0.0319517 0.0404515 8.40235e-20)
(-0.0199981 0.0260735 -8.67197e-20)
(-0.00713904 0.0095702 8.44111e-20)
(0.183559 0.02244 5.28658e-20)
(0.117402 0.0318123 5.96085e-20)
(0.0654756 0.0394449 -2.6348e-22)
(0.0230966 0.0461305 0)
(-0.00971072 0.051975 -8.17926e-20)
(-0.0350133 0.0571231 -3.48327e-22)
(-0.053788 0.0617082 2.46793e-19)
(-0.0672109 0.0657878 -1.07739e-19)
(-0.0761756 0.0693795 -5.88953e-20)
(-0.0814649 0.0724364 0)
(-0.0837177 0.074857 0)
(-0.0834577 0.0764898 -3.71474e-20)
(-0.0811083 0.0771457 0)
(-0.0770102 0.0766132 -8.46149e-20)
(-0.0714384 0.0746752 -8.40894e-23)
(-0.0646162 0.0711256 1.41857e-19)
(-0.0567285 0.0657849 9.94732e-20)
(-0.0479309 0.0585116 -1.81654e-19)
(-0.0383561 0.0492118 1.07889e-19)
(-0.0281165 0.0378463 0)
(-0.0173295 0.0244187 8.56047e-20)
(-0.0061182 0.00896104 -7.13132e-20)
(0.053343 0.026086 -1.0745e-19)
(0.010069 0.0339284 5.98953e-20)
(-0.0227495 0.0402036 0)
(-0.0483009 0.0456455 7.45866e-20)
(-0.0669284 0.0502755 -8.20458e-20)
(-0.0801474 0.0543061 4.51665e-20)
(-0.0887544 0.0578607 4.95457e-20)
(-0.0936283 0.0610166 0)
(-0.095445 0.0637972 5.89273e-20)
(-0.0947875 0.0661663 -6.38759e-20)
(-0.0921321 0.0680336 1.03648e-19)
(-0.0878689 0.0692611 -1.11294e-19)
(-0.0823149 0.0696746 3.9637e-20)
(-0.0757276 0.0690782 8.46776e-20)
(-0.0683171 0.0672695 -8.96714e-20)
(-0.060257 0.0640549 -4.74574e-20)
(-0.0516925 0.0592622 9.91777e-20)
(-0.0427468 0.0527516 -2.57998e-20)
(-0.0335232 0.044423 -1.07323e-19)
(-0.024104 0.0342233 1.1061e-19)
(-0.0145851 0.0221293 1.39877e-20)
(-0.00508114 0.00812969 -1.17335e-19)
(-0.0438977 0.0274488 -5.42865e-22)
(-0.069009 0.0333513 6.02919e-20)
(-0.0867651 0.0381117 -6.7653e-20)
(-0.0992355 0.0422091 7.4613e-20)
(-0.106916 0.0456397 0)
(-0.110881 0.0485987 -4.56298e-20)
(-0.111759 0.0511962 -2.33405e-22)
(-0.11019 0.0535102 -1.09183e-19)
(-0.10667 0.0555655 -3.36001e-22)
(-0.101622 0.0573339 1.28643e-19)
(-0.0953902 0.0587366 -1.38731e-19)
(-0.0882573 0.0596514 7.46007e-20)
(-0.0804558 0.0599228 -7.96331e-20)
(-0.0721777 0.059375 0)
(-0.0635832 0.057825 0)
(-0.0548086 0.0550966 -9.44383e-20)
(-0.0459714 0.0510306 7.42741e-20)
(-0.0371745 0.0454938 1.03198e-19)
(-0.0285043 0.0383857 -1.8694e-19)
(-0.0200277 0.0296437 9.63499e-20)
(-0.0118351 0.0192222 -1.005e-22)
(-0.00405092 0.0070728 -8.10966e-20)
(-0.111771 0.0261126 0)
(-0.122876 0.0301425 0)
(-0.129094 0.0334404 6.79537e-20)
(-0.13173 0.0362643 -1.12424e-19)
(-0.131275 0.038607 0)
(-0.128469 0.0406158 0)
(-0.123782 0.0423812 -5.02297e-20)
(-0.117661 0.0439705 0)
(-0.110452 0.0454067 2.97164e-20)
(-0.102444 0.0466676 0)
(-0.0938742 0.0476877 -3.47304e-20)
(-0.084938 0.0483632 1.11977e-19)
(-0.0757987 0.048561 -5.9704e-20)
(-0.0665957 0.0481297 6.35866e-20)
(-0.0574502 0.046911 0)
(-0.04847 0.0447515 0)
(-0.0397526 0.0415122 1.23482e-19)
(-0.0313883 0.0370747 -6.42365e-20)
(-0.0234558 0.031347 -2.66727e-20)
(-0.0160171 0.0242675 1.37258e-20)
(-0.00916972 0.0157795 -1.25896e-19)
(-0.00306097 0.00581149 1.06205e-22)
(-0.152212 0.0223152 1.09189e-19)
(-0.153059 0.0247841 -3.0312e-20)
(-0.150961 0.0268294 3.42743e-20)
(-0.146718 0.0285673 -7.53722e-20)
(-0.140719 0.029998 1.24896e-19)
(-0.133449 0.0312204 -9.17335e-20)
(-0.125228 0.0323033 1.00582e-19)
(-0.116345 0.033299 -5.48399e-20)
(-0.10702 0.0342264 -2.99106e-20)
(-0.0974317 0.0350692 0)
(-0.0877289 0.0357759 6.97533e-20)
(-0.0780354 0.0362638 -7.47526e-20)
(-0.0684592 0.0364256 1.99987e-20)
(-0.0590976 0.0361376 2.12512e-20)
(-0.050041 0.0352704 0)
(-0.041375 0.0336981 -9.43296e-20)
(-0.0331819 0.0313072 1.97345e-19)
(-0.0255426 0.0280022 -1.15528e-19)
(-0.0185317 0.0237103 1.32547e-20)
(-0.0122118 0.018384 0)
(-0.00669327 0.0119726 1.11382e-19)
(-0.00215283 0.0044027 -9.70346e-20)
(-0.165828 0.0166881 -2.76849e-20)
(-0.160037 0.0179952 -2.93985e-22)
(-0.152765 0.0190846 3.41477e-20)
(-0.14449 0.0199931 -7.56748e-20)
(-0.135461 0.0207305 0)
(-0.125964 0.0213582 -2.31231e-20)
(-0.11619 0.0219244 5.03677e-20)
(-0.106296 0.0224658 2.75433e-20)
(-0.0963995 0.0229969 0)
(-0.0865937 0.0235072 -6.49292e-20)
(-0.0769546 0.0239606 1.39812e-19)
(-0.06755 0.0242974 -9.36931e-20)
(-0.0584447 0.0244381 -2.00142e-20)
(-0.0497038 0.0242899 2.12587e-20)
(-0.0413939 0.023754 -1.12318e-20)
(-0.0335833 0.0227341 0)
(-0.026342 0.0211446 -9.86628e-20)
(-0.0197417 0.0189169 2.05186e-19)
(-0.0138514 0.0160052 -5.31416e-20)
(-0.00873221 0.0123883 -1.08955e-19)
(-0.00450322 0.00804304 5.57129e-20)
(-0.0013666 0.00292589 5.68275e-21)
(-0.15264 0.0103367 -2.74985e-20)
(-0.143857 0.0108874 1.53951e-20)
(-0.134587 0.0113434 -1.70846e-20)
(-0.125113 0.0117024 3.79832e-20)
(-0.115547 0.0119808 0)
(-0.106034 0.0122138 4.62733e-20)
(-0.0966574 0.0124314 -5.05463e-20)
(-0.0874792 0.0126568 -4.14932e-20)
(-0.0785395 0.0129003 0)
(-0.0698665 0.0131576 0)
(-0.0614842 0.0134082 0)
(-0.0534186 0.0136161 9.40215e-21)
(-0.045702 0.0137314 -6.02498e-20)
(-0.0383754 0.0136934 6.39272e-20)
(-0.0314876 0.013435 5.62861e-20)
(-0.0250942 0.0128892 -4.73188e-20)
(-0.0192547 0.0119962 4.32317e-20)
(-0.0140315 0.0107112 -5.13905e-20)
(-0.00948375 0.00901289 -1.99043e-20)
(-0.00566354 0.006909 0)
(-0.00268134 0.00441622 0)
(-0.000741045 0.00154876 0)
(-0.112599 0.00431043 -2.76688e-20)
(-0.104524 0.00445367 4.60174e-20)
(-0.0964621 0.00455476 1.71526e-20)
(-0.0886102 0.0046108 0)
(-0.0809779 0.00463867 0)
(-0.0736201 0.0046561 -2.31727e-20)
(-0.0665506 0.00467732 5.7274e-20)
(-0.0597743 0.0047132 -3.45727e-20)
(-0.0532844 0.00476943 6.79754e-20)
(-0.0470712 0.00484576 -1.30627e-19)
(-0.0411266 0.00493537 7.03125e-20)
(-0.0354497 0.00502436 4.24655e-20)
(-0.0300499 0.00509169 -5.00856e-21)
(-0.0249489 0.00510949 -4.27386e-20)
(-0.0201804 0.00504427 -5.65583e-21)
(-0.0157882 0.00485934 -5.94107e-21)
(-0.0118228 0.00451898 5.88095e-20)
(-0.00833782 0.00399497 -5.47052e-20)
(-0.00538239 0.00327736 6.64077e-21)
(-0.00299303 0.00238698 0)
(-0.00124296 0.00137651 0)
(-0.000288297 0.000353051 -1.42235e-21)
(-0.0461071 0.000467635 2.66435e-20)
(-0.0423633 0.000491802 -3.01236e-20)
(-0.0386748 0.00050273 0)
(-0.0351894 0.000500679 0)
(-0.0318829 0.000493381 1.59498e-22)
(-0.0287696 0.000485512 2.26679e-20)
(-0.0258395 0.000480281 -6.02262e-21)
(-0.0230804 0.000480192 -3.33932e-20)
(-0.0204755 0.000487053 -7.25177e-21)
(-0.0180073 0.000501996 0)
(-0.0156603 0.00052528 0)
(-0.0134231 0.000555975 4.51141e-21)
(-0.0112905 0.000591515 4.73204e-21)
(-0.0092653 0.000627152 4.08742e-20)
(-0.00735941 0.000655397 5.38541e-21)
(-0.00559439 0.00066568 -3.96197e-20)
(-0.00400104 0.000644605 -2.94741e-21)
(-0.00261805 0.000577646 3.06136e-21)
(-0.00148729 0.000453998 -5.06924e-20)
(-0.000644509 0.000275321 1.04227e-19)
(-0.000126594 6.72974e-05 -5.33233e-20)
(1.7779e-05 -8.42192e-05 1.36651e-21)
(1.13609 0.0241631 3.91421e-24)
(1.09002 0.0257745 0)
(1.04191 0.0274328 5.22097e-24)
(0.991658 0.0291396 2.49479e-20)
(0.93937 0.0309006 -2.73845e-20)
(0.885131 0.0327226 -7.70181e-24)
(0.829034 0.0346085 3.61261e-20)
(0.771186 0.0365592 -1.943e-20)
(0.711705 0.0385744 2.24786e-20)
(0.65072 0.0406514 1.88786e-22)
(0.588376 0.0427827 -2.72827e-20)
(0.524839 0.0449458 2.9183e-20)
(0.460325 0.0470807 -4.8139e-20)
(0.395168 0.049054 3.41665e-20)
(0.329919 0.0506159 0)
(0.26548 0.0513768 0)
(0.203216 0.0508121 5.02246e-24)
(0.145009 0.0483195 1.07171e-20)
(0.0931212 0.0433045 0)
(0.0499521 0.0352838 -5.65656e-24)
(0.0187394 0.0239446 0)
(0.00351954 0.00919142 2.39286e-24)
(1.1405 0.0801547 6.31533e-20)
(1.09487 0.0858807 0)
(1.04737 0.0918804 0)
(0.997704 0.098124 4.951e-20)
(0.945998 0.104605 -1.1064e-19)
(0.892343 0.111326 6.15999e-20)
(0.836831 0.118286 -7.16391e-20)
(0.77957 0.125477 9.71461e-20)
(0.720676 0.132893 0)
(0.660281 0.140517 -2.4429e-20)
(0.598526 0.148318 -5.404e-20)
(0.535574 0.156209 5.78047e-20)
(0.471626 0.163966 4.72078e-20)
(0.406983 0.171099 6.86033e-20)
(0.342141 0.176717 8.64283e-22)
(0.27791 0.179437 -7.68718e-20)
(0.215533 0.177436 8.17121e-20)
(0.156749 0.168635 -7.45733e-20)
(0.103676 0.151009 0)
(0.0585881 0.122926 2.26225e-20)
(0.0246338 0.0833523 2.3306e-20)
(0.00580886 0.0320051 -7.75525e-20)
(1.14917 0.136153 -1.26464e-19)
(1.1045 0.14601 -5.26664e-22)
(1.05824 0.156274 -8.22374e-20)
(1.00975 0.166936 0)
(0.959216 0.177986 1.10323e-19)
(0.906748 0.189435 -1.20727e-19)
(0.852429 0.201282 6.81144e-20)
(0.796371 0.213519 -3.90416e-20)
(0.738693 0.226134 0)
(0.679521 0.239105 0)
(0.618996 0.252379 0)
(0.557266 0.265807 0)
(0.494504 0.279006 -3.12634e-20)
(0.430946 0.291141 0)
(0.366966 0.300686 0)
(0.303185 0.305286 3.70222e-20)
(0.240594 0.301835 0)
(0.180642 0.286802 1.97197e-20)
(0.125154 0.256758 -1.73224e-19)
(0.0761529 0.208948 1.3363e-19)
(0.0366165 0.141639 6.91868e-20)
(0.0104609 0.0543759 -1.82029e-20)
(1.16118 0.189414 -1.85556e-19)
(1.11805 0.203282 2.7885e-19)
(1.07375 0.21767 2.4524e-21)
(1.02711 0.232632 0)
(0.978419 0.248143 3.74522e-21)
(0.927793 0.264217 -1.17103e-19)
(0.875317 0.280851 -1.3358e-19)
(0.821108 0.298034 7.34549e-20)
(0.765285 0.315751 8.16529e-20)
(0.707977 0.333969 0)
(0.64932 0.352614 -9.89727e-20)
(0.589446 0.371478 0)
(0.528485 0.390022 5.83656e-20)
(0.466574 0.407071 0)
(0.403906 0.42048 -6.68786e-20)
(0.340822 0.426945 -1.82665e-19)
(0.277934 0.42211 1.15002e-19)
(0.216256 0.401039 1.19402e-19)
(0.157175 0.35895 -1.65565e-19)
(0.102347 0.292024 2.18876e-20)
(0.0544877 0.197885 0)
(0.0173966 0.075939 -1.09346e-19)
(1.17651 0.240075 1.14253e-19)
(1.13544 0.257824 -7.45611e-20)
(1.09372 0.276137 2.31868e-19)
(1.04954 0.295194 1.80855e-19)
(1.00329 0.31495 -9.17409e-20)
(0.955109 0.335423 -1.12359e-19)
(0.905078 0.356611 6.54113e-20)
(0.85332 0.378505 -6.77565e-20)
(0.79996 0.401084 -2.38805e-19)
(0.745127 0.42431 8.57348e-20)
(0.688951 0.44809 9.86333e-20)
(0.631545 0.472159 0)
(0.57298 0.495831 -5.81939e-20)
(0.513265 0.517603 0)
(0.452351 0.534734 -1.94694e-19)
(0.390208 0.542999 2.74603e-19)
(0.32695 0.536842 3.71655e-20)
(0.263015 0.509979 0)
(0.19922 0.456349 0)
(0.136736 0.371139 0)
(0.0779453 0.251395 -1.2792e-19)
(0.026494 0.096425 1.19718e-19)
(1.19471 0.286847 -2.22928e-19)
(1.15623 0.308304 -2.57834e-19)
(1.11773 0.330305 -1.44104e-19)
(1.07658 0.353224 0)
(1.03336 0.376986 3.86137e-19)
(0.9882 0.40161 -2.13254e-19)
(0.94119 0.4271 1.18092e-19)
(0.892461 0.453444 2.70972e-19)
(0.842141 0.480622 -6.24844e-21)
(0.790361 0.508591 1.66395e-19)
(0.737244 0.537241 -1.80342e-19)
(0.682881 0.566258 0)
(0.627274 0.594817 1.03199e-19)
(0.570273 0.621108 -1.10492e-19)
(0.511535 0.64182 5.87074e-20)
(0.45057 0.651852 0)
(0.386879 0.644503 -6.48905e-20)
(0.320193 0.612209 0)
(0.250629 0.54771 2.93132e-19)
(0.178776 0.445288 -6.0528e-19)
(0.106612 0.301488 5.83979e-19)
(0.0376018 0.115571 -9.67837e-20)
(1.21535 0.329153 0)
(1.17997 0.35409 1.24947e-19)
(1.14523 0.379481 1.43047e-19)
(1.10764 0.40597 0)
(1.06797 0.433437 -9.25611e-20)
(1.02635 0.461909 0)
(0.982889 0.491392 -7.25737e-21)
(0.937717 0.521877 -1.30877e-19)
(0.890972 0.553341 -2.80764e-19)
(0.842787 0.585738 -6.91141e-20)
(0.793279 0.618944 0)
(0.742511 0.652603 1.84735e-19)
(0.690404 0.685765 -4.98441e-19)
(0.636625 0.716336 2.19634e-19)
(0.580486 0.740474 -5.84677e-20)
(0.520952 0.752254 -5.64775e-20)
(0.456801 0.743889 1.23704e-19)
(0.386933 0.706616 6.13043e-20)
(0.310647 0.632061 0)
(0.227854 0.513694 0)
(0.14007 0.347644 0)
(0.0505545 0.133185 -3.0944e-20)
(1.23776 0.366298 -2.8898e-19)
(1.20597 0.394468 1.11329e-19)
(1.17551 0.422936 -1.31977e-19)
(1.14198 0.452672 1.45345e-19)
(1.10635 0.483501 0)
(1.06876 0.515456 0)
(1.02933 0.548557 -3.2223e-19)
(0.988193 0.582795 1.19298e-19)
(0.945501 0.618153 -1.26842e-19)
(0.901388 0.654585 4.30262e-19)
(0.85597 0.691964 3.12042e-19)
(0.809282 0.729896 -5.83094e-19)
(0.761162 0.767328 9.39857e-20)
(0.71107 0.801914 1.00777e-19)
(0.657933 0.829327 0)
(0.600095 0.84287 5.62267e-20)
(0.535508 0.833743 -6.22696e-21)
(0.462118 0.792058 1.15716e-19)
(0.378293 0.708418 -2.95811e-19)
(0.283183 0.575574 2.47766e-19)
(0.177791 0.389337 2.27577e-21)
(0.0651436 0.149061 1.18276e-21)
(1.26118 0.397713 1.97656e-19)
(1.23345 0.428789 -3.12633e-19)
(1.20768 0.459963 -3.70573e-21)
(1.17859 0.492591 2.71844e-19)
(1.14741 0.526429 -2.98863e-19)
(1.11426 0.561521 1.74499e-19)
(1.07927 0.597889 -6.18843e-21)
(1.04261 0.635527 1.11461e-19)
(1.00443 0.674416 -1.1233e-19)
(0.964859 0.714512 0)
(0.924014 0.755682 2.81317e-19)
(0.881902 0.797512 8.08139e-20)
(0.838268 0.838862 -1.52687e-19)
(0.792354 0.877174 -1.71934e-19)
(0.742654 0.907686 8.48596e-20)
(0.686829 0.923001 9.98491e-20)
(0.621899 0.913377 -3.40899e-19)
(0.544745 0.867888 5.41987e-20)
(0.452697 0.776205 5.59741e-20)
(0.344071 0.630463 0)
(0.219312 0.426253 0)
(0.0811914 0.16309 -4.28811e-20)
(1.28472 0.423246 1.72128e-19)
(1.26153 0.456942 0)
(1.24088 0.490473 0)
(1.21665 0.525594 1.2553e-19)
(1.1903 0.561991 7.76586e-21)
(1.16196 0.599732 0)
(1.13177 0.638856 -1.82181e-19)
(1.09991 0.679371 -1.93639e-19)
(1.06655 0.721268 2.2096e-19)
(1.03184 0.764512 -3.39925e-19)
(0.995893 0.808974 4.98141e-19)
(0.958702 0.854231 -3.93234e-19)
(0.919926 0.899089 7.57295e-20)
(0.878583 0.940817 0)
(0.832716 0.974279 -8.42298e-20)
(0.779241 0.991438 1.25286e-20)
(0.714158 0.981683 9.086e-20)
(0.633166 0.933119 3.93579e-20)
(0.532448 0.834577 0)
(0.409408 0.677676 0)
(0.263899 0.457913 -1.88433e-19)
(0.0984101 0.175077 1.99618e-19)
(1.30749 0.442409 0)
(1.2892 0.478278 0)
(1.27384 0.513779 -1.00373e-19)
(1.2547 0.551066 3.72422e-21)
(1.23346 0.589726 0)
(1.21024 0.629829 0)
(1.1852 0.671415 -1.56275e-19)
(1.15853 0.71449 -1.57439e-21)
(1.13041 0.75905 3.84392e-19)
(1.10099 0.805066 -1.9006e-19)
(1.07039 0.852414 2.1737e-19)
(1.03859 0.900674 1.22194e-19)
(1.00515 0.948617 -3.60792e-19)
(0.968863 0.993383 0)
(0.927295 1.02953 0)
(0.876557 1.04846 2.09261e-19)
(0.811539 1.03878 -1.41322e-19)
(0.726659 0.987741 -3.91362e-20)
(0.61687 0.883434 1.42628e-19)
(0.478617 0.717075 -1.47554e-19)
(0.311141 0.484194 0)
(0.116637 0.184976 0)
(1.32856 0.455947 0)
(1.31577 0.493765 8.6423e-21)
(1.30609 0.530816 -1.76408e-19)
(1.29236 0.56971 1.55076e-20)
(1.27644 0.609992 -1.11056e-19)
(1.25846 0.651778 0)
(1.23865 0.695134 1.37485e-19)
(1.21722 0.740079 -2.99826e-19)
(1.19439 0.786626 2.49779e-19)
(1.17032 0.834755 9.38826e-20)
(1.14515 0.884363 0)
(1.11885 0.935049 0)
(1.09093 0.985594 2.07004e-19)
(1.05997 1.03306 0)
(1.02306 1.07177 0)
(0.975509 1.09264 2.63697e-19)
(0.911001 1.08353 -2.74087e-19)
(0.822552 1.03086 0)
(0.703752 0.922057 0)
(0.550012 0.748069 0)
(0.359946 0.504641 0)
(0.135448 0.192585 -9.70347e-20)
(1.34699 0.462711 0)
(1.33977 0.502012 1.48705e-19)
(1.33568 0.540495 1.60526e-19)
(1.32754 0.580961 1.09018e-20)
(1.31725 0.622845 -9.94616e-20)
(1.30492 0.666264 1.08957e-19)
(1.29077 0.711288 -1.197e-19)
(1.27505 0.75795 1.22547e-19)
(1.25798 0.806271 1.40816e-19)
(1.23975 0.856242 -2.1712e-19)
(1.2205 0.907773 3.14987e-19)
(1.2002 0.960478 -1.67036e-19)
(1.17828 1.01315 -1.69637e-19)
(1.15312 1.0628 0)
(1.12132 1.10356 0)
(1.07726 1.12593 1.13777e-19)
(1.0134 1.1172 -1.22797e-19)
(0.921274 1.06313 0)
(0.793107 0.950661 -1.05383e-19)
(0.623318 0.770619 7.77072e-20)
(0.409965 0.519137 0)