/*--------------------------------*- C++ -*----------------------------------*\
| =========                 |                                                 |
| \\      /  F ield         | OpenFOAM Extend Project: Open source CFD        |
|  \\    /   O peration     | Version:  1.6-ext                               |
|   \\  /    A nd           | Web:      www.extend-project.de                 |
|    \\/     M anipulation  |                                                 |
\*---------------------------------------------------------------------------*/
FoamFile
{
    version     2.0;
    format      ascii;
    class       volScalarField::DimensionedInternalField;
    location    "1.2";
    object      V0;
}
// * * * * * * * * * * * * * * * * * * * * * * * * * * * * * * * * * * * * * //

dimensions      [0 3 0 0 0 0 0];

value           nonuniform List<scalar> 
20940
(
1.17122e-06
1.03819e-06
9.21143e-07
8.18097e-07
7.27315e-07
6.47278e-07
5.76663e-07
5.14311e-07
4.59211e-07
4.10479e-07
3.67342e-07
3.29123e-07
2.9523e-07
2.65145e-07
2.38413e-07
2.14635e-07
1.93464e-07
1.7459e-07
1.57748e-07
1.42701e-07
1.29242e-07
1.17191e-07
1.1714e-06
1.03834e-06
9.21273e-07
8.18212e-07
7.27417e-07
6.47371e-07
5.76749e-07
5.14393e-07
4.5929e-07
4.10554e-07
3.67413e-07
3.29188e-07
2.9529e-07
2.65198e-07
2.38461e-07
2.14679e-07
1.93504e-07
1.74629e-07
1.57785e-07
1.42738e-07
1.29278e-07
1.17226e-07
1.17398e-06
1.04063e-06
9.23304e-07
8.20016e-07
7.29022e-07
6.48802e-07
5.78026e-07
5.15534e-07
4.60313e-07
4.11474e-07
3.68241e-07
3.29936e-07
2.95964e-07
2.65807e-07
2.39009e-07
2.15173e-07
1.93949e-07
1.75032e-07
1.58152e-07
1.43072e-07
1.29584e-07
1.17507e-07
1.17825e-06
1.04442e-06
9.26667e-07
8.23005e-07
7.31683e-07
6.51172e-07
5.8014e-07
5.17422e-07
4.62e-07
4.12984e-07
3.69596e-07
3.31154e-07
2.97062e-07
2.66797e-07
2.39904e-07
2.15981e-07
1.94679e-07
1.75691e-07
1.58748e-07
1.43612e-07
1.30076e-07
1.17956e-07
1.1835e-06
1.0491e-06
9.30862e-07
8.26765e-07
7.35057e-07
6.54206e-07
5.82872e-07
5.19884e-07
4.64221e-07
4.14989e-07
3.71408e-07
3.32795e-07
2.9855e-07
2.6815e-07
2.41135e-07
2.17104e-07
1.95704e-07
1.76626e-07
1.59601e-07
1.44391e-07
1.30787e-07
1.18606e-07
1.19032e-06
1.05521e-06
9.36338e-07
8.31682e-07
7.39481e-07
6.58193e-07
5.86473e-07
5.23142e-07
4.67173e-07
4.17667e-07
3.73839e-07
3.35002e-07
3.00557e-07
2.69977e-07
2.42802e-07
2.18626e-07
1.97097e-07
1.77902e-07
1.6077e-07
1.45461e-07
1.31767e-07
1.19503e-07
1.19868e-06
1.06274e-06
9.43116e-07
8.37789e-07
7.44987e-07
6.63165e-07
5.90971e-07
5.27222e-07
4.70881e-07
4.21044e-07
3.76919e-07
3.37815e-07
3.03127e-07
2.72326e-07
2.44951e-07
2.20594e-07
1.989e-07
1.79557e-07
1.6229e-07
1.46859e-07
1.33052e-07
1.20684e-07
1.2086e-06
1.07172e-06
9.51251e-07
8.45163e-07
7.51674e-07
6.69229e-07
5.96472e-07
5.32216e-07
4.75424e-07
4.25185e-07
3.80703e-07
3.4128e-07
3.06304e-07
2.75242e-07
2.47628e-07
2.23053e-07
2.0116e-07
1.81635e-07
1.64203e-07
1.48622e-07
1.34679e-07
1.22186e-07
1.21998e-06
1.08206e-06
9.60679e-07
8.53767e-07
7.59532e-07
6.7641e-07
6.03033e-07
5.38208e-07
4.80894e-07
4.3018e-07
3.85269e-07
3.45461e-07
3.10142e-07
2.78771e-07
2.50878e-07
2.26049e-07
2.03924e-07
1.84186e-07
1.66558e-07
1.50797e-07
1.3669e-07
1.24048e-07
1.23273e-06
1.09371e-06
9.71333e-07
8.63528e-07
7.68492e-07
6.84646e-07
6.10611e-07
5.45185e-07
4.87315e-07
4.36085e-07
3.90695e-07
3.50445e-07
3.14721e-07
2.82985e-07
2.54763e-07
2.29637e-07
2.07242e-07
1.87257e-07
1.69401e-07
1.53431e-07
1.39129e-07
1.26307e-07
1.24668e-06
1.10653e-06
9.83119e-07
8.74371e-07
7.78477e-07
6.93854e-07
6.19116e-07
5.53053e-07
4.94603e-07
4.4284e-07
3.96955e-07
3.56241e-07
3.20081e-07
2.87937e-07
2.59337e-07
2.33866e-07
2.11156e-07
1.90885e-07
1.72768e-07
1.56556e-07
1.42031e-07
1.29003e-07
1.2623e-06
1.12095e-06
9.96432e-07
8.86662e-07
7.89825e-07
7.04333e-07
6.28799e-07
5.62008e-07
5.02898e-07
4.50536e-07
4.04105e-07
3.6289e-07
3.26265e-07
2.93684e-07
2.6467e-07
2.38809e-07
2.15736e-07
1.95129e-07
1.76705e-07
1.60212e-07
1.4543e-07
1.32163e-07
1.27876e-06
1.13626e-06
1.01068e-06
8.99927e-07
8.02169e-07
7.15816e-07
6.39473e-07
5.71926e-07
5.1211e-07
4.59095e-07
4.12065e-07
3.70303e-07
3.33178e-07
3.00138e-07
2.70696e-07
2.4443e-07
2.20973e-07
2.00002e-07
1.81236e-07
1.64426e-07
1.4935e-07
1.35814e-07
1.29606e-06
1.15246e-06
1.02585e-06
9.14129e-07
8.1547e-07
7.28272e-07
6.51136e-07
5.82838e-07
5.22309e-07
4.68615e-07
4.20944e-07
3.7858e-07
3.40897e-07
3.07342e-07
2.7743e-07
2.5073e-07
2.26868e-07
2.05515e-07
1.86385e-07
1.69228e-07
1.53825e-07
1.39983e-07
1.31401e-06
1.1694e-06
1.04181e-06
9.29159e-07
8.29613e-07
7.41578e-07
6.63651e-07
5.9461e-07
5.33381e-07
4.79021e-07
4.30712e-07
3.87735e-07
3.49464e-07
3.15353e-07
2.84918e-07
2.57734e-07
2.33425e-07
2.11658e-07
1.92141e-07
1.74618e-07
1.58866e-07
1.44691e-07
1.24236e-06
1.10827e-06
9.89776e-07
8.84969e-07
7.92187e-07
7.09978e-07
6.37067e-07
5.72342e-07
5.14825e-07
4.63659e-07
4.1809e-07
3.77456e-07
3.4118e-07
3.08759e-07
2.79749e-07
2.53766e-07
2.30469e-07
2.09557e-07
1.9076e-07
1.73842e-07
1.58592e-07
1.44828e-07
1.21929e-06
1.08717e-06
9.70451e-07
8.67255e-07
7.75936e-07
6.95051e-07
6.2334e-07
5.59704e-07
5.03179e-07
4.52919e-07
4.08183e-07
3.68318e-07
3.3275e-07
3.00978e-07
2.72561e-07
2.47116e-07
2.24307e-07
2.0384e-07
1.85454e-07
1.68918e-07
1.54028e-07
1.406e-07
1.19733e-06
1.06713e-06
9.52146e-07
8.50519e-07
7.6062e-07
6.81023e-07
6.1048e-07
5.47899e-07
4.92328e-07
4.42931e-07
3.98979e-07
3.59831e-07
3.24923e-07
2.93759e-07
2.65903e-07
2.40973e-07
2.18634e-07
1.98593e-07
1.80594e-07
1.64411e-07
1.49846e-07
1.36721e-07
1.17662e-06
1.04828e-06
9.34973e-07
8.34853e-07
7.46312e-07
6.67944e-07
5.98514e-07
5.36943e-07
4.82284e-07
4.33714e-07
3.90509e-07
3.52036e-07
3.17742e-07
2.87139e-07
2.59799e-07
2.35345e-07
2.13444e-07
1.93806e-07
1.76173e-07
1.60323e-07
1.46058e-07
1.33206e-07
1.15733e-06
1.03076e-06
9.19036e-07
8.20346e-07
7.33092e-07
6.55879e-07
5.87491e-07
5.26863e-07
4.73062e-07
4.25268e-07
3.82767e-07
3.44931e-07
3.11213e-07
2.81132e-07
2.54266e-07
2.30243e-07
2.08739e-07
1.89465e-07
1.7217e-07
1.56628e-07
1.42645e-07
1.30048e-07
1.13922e-06
1.01436e-06
9.04177e-07
8.06861e-07
7.2084e-07
6.44735e-07
5.77341e-07
5.17607e-07
4.64611e-07
4.17545e-07
3.75703e-07
3.38466e-07
3.05289e-07
2.75698e-07
2.49274e-07
2.25653e-07
2.04511e-07
1.85568e-07
1.68574e-07
1.53313e-07
1.39588e-07
1.27231e-07
1.12312e-06
9.99803e-07
8.90991e-07
7.94902e-07
7.0998e-07
6.34861e-07
5.68355e-07
5.09417e-07
4.57137e-07
4.10718e-07
3.6946e-07
3.3275e-07
3.00052e-07
2.70895e-07
2.44867e-07
2.21604e-07
2.00788e-07
1.8214e-07
1.65415e-07
1.50396e-07
1.36896e-07
1.24744e-07
1.10844e-06
9.86553e-07
8.7902e-07
7.84076e-07
7.00176e-07
6.25972e-07
5.60284e-07
5.02081e-07
4.5046e-07
4.04633e-07
3.63909e-07
3.27679e-07
2.95416e-07
2.66652e-07
2.40979e-07
2.1804e-07
1.97518e-07
1.79138e-07
1.62655e-07
1.47856e-07
1.34553e-07
1.22581e-07
1.09537e-06
9.74786e-07
8.6841e-07
7.74498e-07
6.91518e-07
6.18136e-07
5.53183e-07
4.95639e-07
4.4461e-07
3.99312e-07
3.59062e-07
3.23261e-07
2.91382e-07
2.62966e-07
2.37607e-07
2.14952e-07
1.94687e-07
1.76541e-07
1.60271e-07
1.45665e-07
1.32538e-07
1.20725e-07
1.08392e-06
9.64495e-07
8.59149e-07
7.66151e-07
6.83987e-07
6.11332e-07
5.4703e-07
4.90066e-07
4.39555e-07
3.94724e-07
3.54891e-07
3.19465e-07
2.87923e-07
2.5981e-07
2.34724e-07
2.12314e-07
1.92273e-07
1.74328e-07
1.58241e-07
1.43803e-07
1.30828e-07
1.19154e-07
1.07406e-06
9.55646e-07
8.51199e-07
7.59e-07
6.77548e-07
6.05526e-07
5.41787e-07
4.85327e-07
4.35265e-07
3.90835e-07
3.51362e-07
3.16258e-07
2.85005e-07
2.57152e-07
2.323e-07
2.10101e-07
1.9025e-07
1.72477e-07
1.56546e-07
1.42249e-07
1.29402e-07
1.17844e-07
1.06573e-06
9.48185e-07
8.44508e-07
7.52993e-07
6.72146e-07
6.00664e-07
5.37406e-07
4.81373e-07
4.31693e-07
3.87602e-07
3.48434e-07
3.13601e-07
2.82592e-07
2.54956e-07
2.30301e-07
2.08279e-07
1.88587e-07
1.70957e-07
1.55156e-07
1.40976e-07
1.28236e-07
1.16775e-07
1.05888e-06
9.42057e-07
8.39019e-07
7.4807e-07
6.67727e-07
5.96691e-07
5.33828e-07
4.78149e-07
4.28784e-07
3.84975e-07
3.46058e-07
3.1145e-07
2.8064e-07
2.53185e-07
2.28689e-07
2.06812e-07
1.87248e-07
1.69736e-07
1.54038e-07
1.39954e-07
1.27301e-07
1.1592e-07
1.0535e-06
9.37246e-07
8.34709e-07
7.44205e-07
6.64257e-07
5.93573e-07
5.31023e-07
4.75623e-07
4.26507e-07
3.82919e-07
3.442e-07
3.09768e-07
2.79117e-07
2.51802e-07
2.27433e-07
2.05668e-07
1.86207e-07
1.68784e-07
1.5317e-07
1.39157e-07
1.26568e-07
1.15244e-07
1.04904e-06
9.33271e-07
8.31157e-07
7.41031e-07
6.61419e-07
5.91034e-07
5.2875e-07
4.73585e-07
4.24678e-07
3.81277e-07
3.42722e-07
3.08439e-07
2.7792e-07
2.50723e-07
2.26459e-07
2.04788e-07
1.8541e-07
1.68063e-07
1.52515e-07
1.38562e-07
1.26025e-07
1.14705e-07
1.17427e-06
1.04681e-06
9.34194e-07
8.3462e-07
7.46499e-07
6.68446e-07
5.99249e-07
5.37846e-07
4.83305e-07
4.34812e-07
3.91653e-07
3.53199e-07
3.18902e-07
2.88278e-07
2.60905e-07
2.36408e-07
2.14461e-07
1.94774e-07
1.77095e-07
1.61201e-07
1.46891e-07
1.33997e-07
1.17456e-06
1.04708e-06
9.34454e-07
8.34863e-07
7.46727e-07
6.6866e-07
5.99449e-07
5.38032e-07
4.83479e-07
4.34975e-07
3.91804e-07
3.53342e-07
3.19034e-07
2.88404e-07
2.6102e-07
2.36518e-07
2.14561e-07
1.94869e-07
1.77184e-07
1.61282e-07
1.4697e-07
1.34067e-07
1.17731e-06
1.04956e-06
9.36685e-07
8.36877e-07
7.48547e-07
6.70307e-07
6.00941e-07
5.39386e-07
4.84709e-07
4.36092e-07
3.92822e-07
3.54267e-07
3.1988e-07
2.89174e-07
2.61727e-07
2.37161e-07
2.15153e-07
1.95409e-07
1.77681e-07
1.61738e-07
1.47388e-07
1.34454e-07
1.18191e-06
1.05369e-06
9.40397e-07
8.40217e-07
7.51557e-07
6.73022e-07
6.03393e-07
5.41603e-07
4.86716e-07
4.37911e-07
3.94472e-07
3.55767e-07
3.21244e-07
2.90416e-07
2.62858e-07
2.38194e-07
2.16096e-07
1.96273e-07
1.78469e-07
1.62463e-07
1.48049e-07
1.35063e-07
1.18775e-06
1.05897e-06
9.45171e-07
8.4454e-07
7.55476e-07
6.76579e-07
6.06625e-07
5.44543e-07
4.89393e-07
4.40353e-07
3.967e-07
3.57803e-07
3.23104e-07
2.92121e-07
2.64418e-07
2.39627e-07
2.17409e-07
1.97481e-07
1.79579e-07
1.63483e-07
1.48992e-07
1.35928e-07
1.19549e-06
1.06597e-06
9.5151e-07
8.50288e-07
7.60692e-07
6.81319e-07
6.10937e-07
5.4847e-07
4.92973e-07
4.4362e-07
3.99685e-07
3.60531e-07
3.25604e-07
2.94408e-07
2.66519e-07
2.41551e-07
2.19182e-07
1.99106e-07
1.81079e-07
1.64861e-07
1.50263e-07
1.371e-07
1.20513e-06
1.0747e-06
9.59442e-07
8.57496e-07
7.67251e-07
6.87293e-07
6.16384e-07
5.53442e-07
4.97516e-07
4.47775e-07
4.03489e-07
3.64019e-07
3.288e-07
2.97345e-07
2.69214e-07
2.44034e-07
2.21461e-07
2.0121e-07
1.83013e-07
1.6665e-07
1.51909e-07
1.38624e-07
1.21675e-06
1.08527e-06
9.69061e-07
8.6626e-07
7.75245e-07
6.94592e-07
6.23056e-07
5.59546e-07
5.03107e-07
4.52899e-07
4.08191e-07
3.68335e-07
3.32769e-07
3.00993e-07
2.72574e-07
2.47127e-07
2.24315e-07
2.0384e-07
1.85443e-07
1.68891e-07
1.53984e-07
1.4054e-07
1.23042e-06
1.09773e-06
9.80435e-07
8.76652e-07
7.84748e-07
7.03291e-07
6.31026e-07
5.66855e-07
5.09815e-07
4.59063e-07
4.13857e-07
3.73549e-07
3.3757e-07
3.05417e-07
2.76654e-07
2.50891e-07
2.27791e-07
2.07051e-07
1.88412e-07
1.71637e-07
1.56525e-07
1.42892e-07
1.24616e-06
1.11213e-06
9.93607e-07
8.88717e-07
7.9581e-07
7.13443e-07
6.4035e-07
5.75426e-07
5.177e-07
4.66322e-07
4.20545e-07
3.79715e-07
3.43258e-07
3.1067e-07
2.81505e-07
2.55376e-07
2.31937e-07
2.1089e-07
1.91963e-07
1.74928e-07
1.59573e-07
1.45719e-07
1.26381e-06
1.12832e-06
1.00847e-06
9.02381e-07
8.08378e-07
7.25011e-07
6.51007e-07
5.85249e-07
5.26761e-07
4.74685e-07
4.2827e-07
3.86854e-07
3.4986e-07
3.16777e-07
2.87159e-07
2.60611e-07
2.36789e-07
2.15384e-07
1.96133e-07
1.78794e-07
1.63163e-07
1.4905e-07
1.28384e-06
1.14672e-06
1.0254e-06
9.17958e-07
8.22726e-07
7.38236e-07
6.63205e-07
5.96508e-07
5.3716e-07
4.84295e-07
4.37155e-07
3.95075e-07
3.57468e-07
3.23823e-07
2.93686e-07
2.66661e-07
2.42398e-07
2.20589e-07
2.00961e-07
1.83277e-07
1.67324e-07
1.52916e-07
1.3055e-06
1.16671e-06
1.04385e-06
9.35011e-07
8.3849e-07
7.52817e-07
6.76699e-07
6.09002e-07
5.48733e-07
4.9502e-07
4.47099e-07
4.04297e-07
3.66025e-07
3.31764e-07
3.0106e-07
2.73509e-07
2.4876e-07
2.26501e-07
2.06457e-07
1.88386e-07
1.72076e-07
1.57336e-07
1.32891e-06
1.18838e-06
1.06393e-06
9.53619e-07
8.55743e-07
7.6882e-07
6.91547e-07
6.22784e-07
5.6153e-07
5.06905e-07
4.58141e-07
4.14558e-07
3.75563e-07
3.40633e-07
3.09307e-07
2.81181e-07
2.55897e-07
2.33143e-07
2.12639e-07
1.94141e-07
1.77434e-07
1.62325e-07
1.35387e-06
1.21158e-06
1.0855e-06
9.73669e-07
8.7439e-07
7.86166e-07
7.07687e-07
6.37803e-07
5.75509e-07
5.19919e-07
4.70256e-07
4.2584e-07
3.8607e-07
3.50419e-07
3.18423e-07
2.89674e-07
2.63811e-07
2.40517e-07
2.19511e-07
2.00547e-07
1.83404e-07
1.67891e-07
1.35387e-06
1.21158e-06
1.0855e-06
9.73673e-07
8.74394e-07
7.86169e-07
7.0769e-07
6.37807e-07
5.75512e-07
5.19921e-07
4.70258e-07
4.25842e-07
3.86072e-07
3.50421e-07
3.18426e-07
2.89676e-07
2.63814e-07
2.40519e-07
2.19514e-07
2.00549e-07
1.83406e-07
1.67893e-07
1.32891e-06
1.18839e-06
1.06394e-06
9.53629e-07
8.55753e-07
7.6883e-07
6.91557e-07
6.22793e-07
5.61538e-07
5.06913e-07
4.58147e-07
4.14564e-07
3.75569e-07
3.40639e-07
3.09314e-07
2.81188e-07
2.55904e-07
2.33149e-07
2.12645e-07
1.94147e-07
1.77439e-07
1.6233e-07
1.30551e-06
1.16672e-06
1.04387e-06
9.35027e-07
8.38506e-07
7.52833e-07
6.76714e-07
6.09016e-07
5.48747e-07
4.95033e-07
4.47111e-07
4.04308e-07
3.66036e-07
3.31776e-07
3.01071e-07
2.7352e-07
2.4877e-07
2.2651e-07
2.06466e-07
1.88395e-07
1.72083e-07
1.57342e-07
1.28386e-06
1.14674e-06
1.02542e-06
9.1798e-07
8.22748e-07
7.38258e-07
6.63226e-07
5.96529e-07
5.3718e-07
4.84314e-07
4.37174e-07
3.95092e-07
3.57485e-07
3.23838e-07
2.937e-07
2.66674e-07
2.4241e-07
2.206e-07
2.00971e-07
1.83286e-07
1.67332e-07
1.52923e-07
1.26384e-06
1.12834e-06
1.0085e-06
9.02409e-07
8.08406e-07
7.25038e-07
6.51034e-07
5.85276e-07
5.26787e-07
4.74711e-07
4.28294e-07
3.86877e-07
3.49881e-07
3.16796e-07
2.87176e-07
2.60627e-07
2.36802e-07
2.15397e-07
1.96144e-07
1.78805e-07
1.63172e-07
1.49059e-07
1.24619e-06
1.11216e-06
9.93641e-07
8.88752e-07
7.95845e-07
7.13477e-07
6.40384e-07
5.75458e-07
5.17731e-07
4.66351e-07
4.20572e-07
3.79741e-07
3.43282e-07
3.10692e-07
2.81525e-07
2.55394e-07
2.31954e-07
2.10904e-07
1.91977e-07
1.7494e-07
1.59585e-07
1.4573e-07
1.23046e-06
1.09778e-06
9.8048e-07
8.76696e-07
7.84792e-07
7.03333e-07
6.31066e-07
5.66893e-07
5.0985e-07
4.59095e-07
4.13887e-07
3.73578e-07
3.37596e-07
3.05442e-07
2.76677e-07
2.50913e-07
2.2781e-07
2.0707e-07
1.88428e-07
1.71653e-07
1.56539e-07
1.42906e-07
1.2168e-06
1.08533e-06
9.69117e-07
8.66316e-07
7.75299e-07
6.94643e-07
6.23104e-07
5.5959e-07
5.03147e-07
4.52937e-07
4.08225e-07
3.68367e-07
3.32798e-07
3.01021e-07
2.726e-07
2.4715e-07
2.24336e-07
2.0386e-07
1.85461e-07
1.68908e-07
1.54e-07
1.40554e-07
1.20519e-06
1.07477e-06
9.59511e-07
8.57564e-07
7.67316e-07
6.87354e-07
6.16442e-07
5.53495e-07
4.97565e-07
4.47819e-07
4.03529e-07
3.64055e-07
3.28834e-07
2.97375e-07
2.69243e-07
2.44059e-07
2.21486e-07
2.01232e-07
1.83034e-07
1.66668e-07
1.51928e-07
1.3864e-07
1.19557e-06
1.06605e-06
9.51592e-07
8.50367e-07
7.60769e-07
6.81391e-07
6.11005e-07
5.48532e-07
4.93031e-07
4.43672e-07
3.99733e-07
3.60575e-07
3.25643e-07
2.94445e-07
2.66552e-07
2.41583e-07
2.19209e-07
1.99134e-07
1.81102e-07
1.64886e-07
1.50284e-07
1.37122e-07
1.18784e-06
1.05906e-06
9.45263e-07
8.4463e-07
7.55561e-07
6.7666e-07
6.06702e-07
5.44615e-07
4.8946e-07
4.40414e-07
3.96756e-07
3.57854e-07
3.23152e-07
2.92163e-07
2.64458e-07
2.39662e-07
2.17443e-07
1.9751e-07
1.79609e-07
1.6351e-07
1.49018e-07
1.35953e-07
1.18201e-06
1.05379e-06
9.405e-07
8.40316e-07
7.5165e-07
6.7311e-07
6.03477e-07
5.41681e-07
4.86789e-07
4.3798e-07
3.94535e-07
3.55825e-07
3.21296e-07
2.90464e-07
2.62901e-07
2.38234e-07
2.16131e-07
1.96306e-07
1.785e-07
1.62491e-07
1.48079e-07
1.35088e-07
1.17743e-06
1.04968e-06
9.36805e-07
8.36991e-07
7.48653e-07
6.70406e-07
6.01033e-07
5.39471e-07
4.84787e-07
4.36166e-07
3.9289e-07
3.5433e-07
3.19938e-07
2.89227e-07
2.61775e-07
2.37205e-07
2.15193e-07
1.95447e-07
1.77715e-07
1.61771e-07
1.47418e-07
1.34484e-07
1.17472e-06
1.04724e-06
9.346e-07
8.35e-07
7.46854e-07
6.68776e-07
5.99555e-07
5.38129e-07
4.83567e-07
4.35056e-07
3.91879e-07
3.53411e-07
3.191e-07
2.88464e-07
2.61078e-07
2.36569e-07
2.14611e-07
1.94914e-07
1.77225e-07
1.6132e-07
1.47004e-07
1.341e-07
1.17445e-06
1.04699e-06
9.3437e-07
8.34785e-07
7.46653e-07
6.68588e-07
5.99378e-07
5.37962e-07
4.8341e-07
4.34906e-07
3.91738e-07
3.53278e-07
3.18976e-07
2.88348e-07
2.6097e-07
2.3647e-07
2.14518e-07
1.94828e-07
1.77144e-07
1.61244e-07
1.4693e-07
1.3403e-07
1.17414e-06
1.04668e-06
9.34068e-07
8.34496e-07
7.46378e-07
6.6833e-07
5.99138e-07
5.37739e-07
4.83204e-07
4.34717e-07
3.91564e-07
3.53117e-07
3.18827e-07
2.8821e-07
2.60843e-07
2.36352e-07
2.14409e-07
1.94726e-07
1.7705e-07
1.61157e-07
1.46851e-07
1.33957e-07
1.17443e-06
1.04695e-06
9.34323e-07
8.34734e-07
7.46601e-07
6.68539e-07
5.99334e-07
5.37924e-07
4.83378e-07
4.34881e-07
3.91718e-07
3.53262e-07
3.18963e-07
2.88337e-07
2.60961e-07
2.36462e-07
2.14511e-07
1.94822e-07
1.7714e-07
1.61241e-07
1.4693e-07
1.34032e-07
1.17718e-06
1.04942e-06
9.36551e-07
8.36747e-07
7.48421e-07
6.70187e-07
6.00828e-07
5.3928e-07
4.8461e-07
4.36002e-07
3.92738e-07
3.54191e-07
3.19809e-07
2.89109e-07
2.61665e-07
2.37105e-07
2.15101e-07
1.95362e-07
1.77636e-07
1.61698e-07
1.4735e-07
1.34419e-07
1.18177e-06
1.05355e-06
9.40265e-07
8.4009e-07
7.51435e-07
6.72906e-07
6.03285e-07
5.41502e-07
4.86621e-07
4.37823e-07
3.9439e-07
3.5569e-07
3.21171e-07
2.90348e-07
2.62794e-07
2.38135e-07
2.16041e-07
1.96223e-07
1.78423e-07
1.62421e-07
1.48013e-07
1.35029e-07
1.18762e-06
1.05883e-06
9.45043e-07
8.44417e-07
7.55358e-07
6.76468e-07
6.0652e-07
5.44445e-07
4.89301e-07
4.40266e-07
3.96618e-07
3.57726e-07
3.23032e-07
2.92052e-07
2.64355e-07
2.39567e-07
2.17355e-07
1.9743e-07
1.79534e-07
1.63442e-07
1.48956e-07
1.35896e-07
1.19536e-06
1.06584e-06
9.51384e-07
8.50166e-07
7.60576e-07
6.81209e-07
6.10834e-07
5.48372e-07
4.92882e-07
4.43534e-07
3.99605e-07
3.60457e-07
3.25534e-07
2.94344e-07
2.66459e-07
2.41498e-07
2.19131e-07
1.99061e-07
1.81036e-07
1.64824e-07
1.50229e-07
1.37071e-07
1.20499e-06
1.07457e-06
9.59315e-07
8.57374e-07
7.67135e-07
6.87183e-07
6.16281e-07
5.53345e-07
4.97426e-07
4.47692e-07
4.03412e-07
3.63947e-07
3.28736e-07
2.97285e-07
2.69161e-07
2.43984e-07
2.21417e-07
2.0117e-07
1.82977e-07
1.66616e-07
1.5188e-07
1.38596e-07
1.21662e-06
1.08514e-06
9.68932e-07
8.66137e-07
7.75128e-07
6.94482e-07
6.22953e-07
5.5945e-07
5.03018e-07
4.52818e-07
4.08116e-07
3.68267e-07
3.32707e-07
3.00938e-07
2.72524e-07
2.47082e-07
2.24274e-07
2.03803e-07
1.8541e-07
1.68861e-07
1.53957e-07
1.40514e-07
1.23029e-06
1.0976e-06
9.80306e-07
8.76528e-07
7.84631e-07
7.03181e-07
6.30923e-07
5.6676e-07
5.09728e-07
4.58982e-07
4.13784e-07
3.73483e-07
3.3751e-07
3.05364e-07
2.76606e-07
2.50848e-07
2.27752e-07
2.07017e-07
1.8838e-07
1.71609e-07
1.56499e-07
1.42869e-07
1.24603e-06
1.11199e-06
9.93478e-07
8.88594e-07
7.95693e-07
7.13333e-07
6.40248e-07
5.75332e-07
5.17613e-07
4.66242e-07
4.20473e-07
3.7965e-07
3.432e-07
3.10618e-07
2.81458e-07
2.55334e-07
2.319e-07
2.10856e-07
1.91933e-07
1.749e-07
1.59548e-07
1.45696e-07
1.26368e-06
1.12819e-06
1.00835e-06
9.02259e-07
8.08263e-07
7.24903e-07
6.50906e-07
5.85156e-07
5.26676e-07
4.74607e-07
4.28199e-07
3.8679e-07
3.49802e-07
3.16725e-07
2.87112e-07
2.60569e-07
2.36751e-07
2.15351e-07
1.96103e-07
1.78768e-07
1.63139e-07
1.49029e-07
1.28371e-06
1.14659e-06
1.02527e-06
9.17839e-07
8.22613e-07
7.3813e-07
6.63107e-07
5.96417e-07
5.37076e-07
4.84218e-07
4.37085e-07
3.95011e-07
3.5741e-07
3.2377e-07
2.93639e-07
2.66619e-07
2.4236e-07
2.20555e-07
2.00931e-07
1.83251e-07
1.673e-07
1.52895e-07
1.30537e-06
1.16659e-06
1.04373e-06
9.34895e-07
8.3838e-07
7.52714e-07
6.76603e-07
6.08913e-07
5.48651e-07
4.94945e-07
4.4703e-07
4.04234e-07
3.65968e-07
3.31713e-07
3.01013e-07
2.73467e-07
2.48722e-07
2.26467e-07
2.06427e-07
1.8836e-07
1.72053e-07
1.57315e-07
1.32879e-06
1.18827e-06
1.06382e-06
9.53508e-07
8.55637e-07
7.6872e-07
6.91454e-07
6.22697e-07
5.61449e-07
5.06831e-07
4.58073e-07
4.14496e-07
3.75507e-07
3.40582e-07
3.09262e-07
2.8114e-07
2.55861e-07
2.3311e-07
2.12609e-07
1.94115e-07
1.7741e-07
1.62304e-07
1.35375e-06
1.21147e-06
1.08538e-06
9.7356e-07
8.74286e-07
7.86067e-07
7.07594e-07
6.37717e-07
5.75429e-07
5.19845e-07
4.70189e-07
4.25779e-07
3.86015e-07
3.50369e-07
3.18379e-07
2.89634e-07
2.63775e-07
2.40484e-07
2.19482e-07
2.0052e-07
1.8338e-07
1.67869e-07
1.35375e-06
1.21147e-06
1.08539e-06
9.73565e-07
8.74291e-07
7.86072e-07
7.07598e-07
6.37721e-07
5.75433e-07
5.19849e-07
4.70192e-07
4.25782e-07
3.86018e-07
3.50372e-07
3.18381e-07
2.89636e-07
2.63778e-07
2.40487e-07
2.19484e-07
2.00522e-07
1.83382e-07
1.6787e-07
1.3288e-06
1.18828e-06
1.06383e-06
9.53522e-07
8.55651e-07
7.68734e-07
6.91467e-07
6.2271e-07
5.61461e-07
5.06842e-07
4.58083e-07
4.14506e-07
3.75516e-07
3.40591e-07
3.0927e-07
2.81148e-07
2.55868e-07
2.33116e-07
2.12615e-07
1.9412e-07
1.77415e-07
1.62308e-07
1.3054e-06
1.16661e-06
1.04376e-06
9.34921e-07
8.38406e-07
7.52738e-07
6.76626e-07
6.08935e-07
5.48671e-07
4.94964e-07
4.47047e-07
4.0425e-07
3.65983e-07
3.31727e-07
3.01026e-07
2.73479e-07
2.48734e-07
2.26477e-07
2.06436e-07
1.88368e-07
1.7206e-07
1.57321e-07
1.28374e-06
1.14663e-06
1.02531e-06
9.17878e-07
8.22651e-07
7.38166e-07
6.6314e-07
5.96449e-07
5.37105e-07
4.84245e-07
4.3711e-07
3.95034e-07
3.57431e-07
3.2379e-07
2.93656e-07
2.66635e-07
2.42374e-07
2.20568e-07
2.00942e-07
1.83261e-07
1.67309e-07
1.52904e-07
1.26373e-06
1.12824e-06
1.0084e-06
9.0231e-07
8.08311e-07
7.24949e-07
6.5095e-07
5.85197e-07
5.26714e-07
4.74642e-07
4.28231e-07
3.86819e-07
3.49828e-07
3.16748e-07
2.87134e-07
2.60588e-07
2.36768e-07
2.15366e-07
1.96117e-07
1.7878e-07
1.6315e-07
1.49039e-07
1.24609e-06
1.11206e-06
9.93541e-07
8.88655e-07
7.95753e-07
7.13389e-07
6.40301e-07
5.75381e-07
5.17659e-07
4.66285e-07
4.20511e-07
3.79686e-07
3.43231e-07
3.10646e-07
2.81483e-07
2.55357e-07
2.3192e-07
2.10875e-07
1.91949e-07
1.74916e-07
1.59562e-07
1.4571e-07
1.23036e-06
1.09767e-06
9.80378e-07
8.76599e-07
7.84699e-07
7.03246e-07
6.30985e-07
5.66818e-07
5.09781e-07
4.59032e-07
4.13829e-07
3.73524e-07
3.37547e-07
3.05398e-07
2.76636e-07
2.50875e-07
2.27777e-07
2.07039e-07
1.88401e-07
1.71627e-07
1.56516e-07
1.42885e-07
1.21669e-06
1.08522e-06
9.69011e-07
8.66215e-07
7.75203e-07
6.94554e-07
6.23021e-07
5.59515e-07
5.03078e-07
4.52874e-07
4.08168e-07
3.68315e-07
3.3275e-07
3.00977e-07
2.7256e-07
2.47114e-07
2.24303e-07
2.0383e-07
1.85434e-07
1.68883e-07
1.53977e-07
1.40533e-07
1.20508e-06
1.07466e-06
9.59399e-07
8.57457e-07
7.67215e-07
6.8726e-07
6.16355e-07
5.53415e-07
4.97492e-07
4.47754e-07
4.0347e-07
3.64002e-07
3.28785e-07
2.97332e-07
2.69202e-07
2.44023e-07
2.21452e-07
2.01202e-07
1.83005e-07
1.66643e-07
1.51904e-07
1.38619e-07
1.19545e-06
1.06593e-06
9.51474e-07
8.50254e-07
7.60662e-07
6.81291e-07
6.10913e-07
5.48448e-07
4.92953e-07
4.43602e-07
3.99669e-07
3.60518e-07
3.25592e-07
2.94397e-07
2.6651e-07
2.41543e-07
2.19174e-07
1.99099e-07
1.81073e-07
1.64856e-07
1.50258e-07
1.37097e-07
1.18772e-06
1.05893e-06
9.45141e-07
8.44513e-07
7.55451e-07
6.76556e-07
6.06605e-07
5.44525e-07
4.89377e-07
4.40339e-07
3.96687e-07
3.57792e-07
3.23094e-07
2.92112e-07
2.6441e-07
2.3962e-07
2.17403e-07
1.97476e-07
1.79575e-07
1.63479e-07
1.48989e-07
1.35926e-07
1.18188e-06
1.05366e-06
9.40373e-07
8.40196e-07
7.51537e-07
6.73004e-07
6.03377e-07
5.41589e-07
4.86703e-07
4.379e-07
3.94462e-07
3.55758e-07
3.21236e-07
2.90409e-07
2.62852e-07
2.38189e-07
2.16091e-07
1.96269e-07
1.78466e-07
1.6246e-07
1.48047e-07
1.35061e-07
1.17729e-06
1.04954e-06
9.36668e-07
8.36862e-07
7.48533e-07
6.70294e-07
6.0093e-07
5.39376e-07
4.847e-07
4.36084e-07
3.92815e-07
3.54261e-07
3.19875e-07
2.89169e-07
2.61723e-07
2.37157e-07
2.1515e-07
1.95407e-07
1.77679e-07
1.61737e-07
1.47386e-07
1.34453e-07
1.17455e-06
1.04707e-06
9.34444e-07
8.34854e-07
7.46718e-07
6.68652e-07
5.99442e-07
5.38026e-07
4.83474e-07
4.3497e-07
3.918e-07
3.53338e-07
3.19031e-07
2.88401e-07
2.61018e-07
2.36515e-07
2.14559e-07
1.94868e-07
1.77182e-07
1.61281e-07
1.46969e-07
1.34067e-07
1.17426e-06
1.0468e-06
9.34191e-07
8.34617e-07
7.46496e-07
6.68444e-07
5.99247e-07
5.37844e-07
4.83303e-07
4.3481e-07
3.91651e-07
3.53197e-07
3.18901e-07
2.88277e-07
2.60905e-07
2.36407e-07
2.1446e-07
1.94774e-07
1.77094e-07
1.61201e-07
1.46891e-07
1.33996e-07
1.17089e-06
1.17104e-06
1.1736e-06
1.17785e-06
1.18307e-06
1.18987e-06
1.19821e-06
1.20811e-06
1.21948e-06
1.23222e-06
1.24617e-06
1.26177e-06
1.27819e-06
1.29548e-06
1.31343e-06
1.24181e-06
1.21868e-06
1.19669e-06
1.17598e-06
1.15667e-06
1.13857e-06
1.12251e-06
1.10788e-06
1.09487e-06
1.08351e-06
1.07376e-06
1.06558e-06
1.05891e-06
1.05374e-06
1.04973e-06
1.03786e-06
1.03799e-06
1.04026e-06
1.04402e-06
1.04869e-06
1.05478e-06
1.06228e-06
1.07124e-06
1.08157e-06
1.09322e-06
1.10603e-06
1.12043e-06
1.1357e-06
1.15188e-06
1.16882e-06
1.10772e-06
1.08658e-06
1.06652e-06
1.04769e-06
1.03017e-06
1.01379e-06
9.99268e-07
9.86068e-07
9.74366e-07
9.6415e-07
9.55402e-07
9.48076e-07
9.42099e-07
9.37467e-07
9.33886e-07
9.20827e-07
9.20944e-07
9.2296e-07
9.26301e-07
9.30473e-07
9.3593e-07
9.42687e-07
9.50798e-07
9.60211e-07
9.70858e-07
9.82644e-07
9.9594e-07
1.01015e-06
1.02529e-06
1.04126e-06
9.89249e-07
9.69902e-07
9.51594e-07
9.3444e-07
9.18517e-07
9.03682e-07
8.90532e-07
8.78609e-07
8.68061e-07
8.58868e-07
8.51009e-07
8.44435e-07
8.39078e-07
8.34926e-07
8.31731e-07
8.17796e-07
8.17901e-07
8.19695e-07
8.22667e-07
8.26405e-07
8.31303e-07
8.3739e-07
8.44742e-07
8.53328e-07
8.63083e-07
8.73927e-07
8.86207e-07
8.99434e-07
9.1361e-07
9.28648e-07
8.84481e-07
8.66758e-07
8.50027e-07
8.34382e-07
8.19894e-07
8.06438e-07
7.94515e-07
7.83732e-07
7.7421e-07
7.65928e-07
7.58857e-07
7.52952e-07
7.48144e-07
7.44419e-07
7.41561e-07
7.2703e-07
7.27124e-07
7.28724e-07
7.31372e-07
7.34728e-07
7.39133e-07
7.44621e-07
7.51287e-07
7.59128e-07
7.6808e-07
7.78067e-07
7.8941e-07
8.01723e-07
8.14995e-07
8.29147e-07
7.91746e-07
7.75492e-07
7.60186e-07
7.45904e-07
7.32702e-07
7.2048e-07
7.09657e-07
6.99892e-07
6.91286e-07
6.83815e-07
6.77445e-07
6.72132e-07
6.67813e-07
6.64465e-07
6.61904e-07
6.47012e-07
6.47098e-07
6.48525e-07
6.50888e-07
6.53907e-07
6.57877e-07
6.62833e-07
6.68877e-07
6.76041e-07
6.84268e-07
6.93478e-07
7.03958e-07
7.15418e-07
7.27844e-07
7.41152e-07
7.09584e-07
6.94661e-07
6.80643e-07
6.67591e-07
6.55549e-07
6.44433e-07
6.34595e-07
6.25741e-07
6.17954e-07
6.11203e-07
6.05457e-07
6.00673e-07
5.96787e-07
5.93775e-07
5.91477e-07
5.76415e-07
5.76494e-07
5.7777e-07
5.79881e-07
5.82601e-07
5.86187e-07
5.90671e-07
5.96154e-07
6.02698e-07
6.10268e-07
6.18775e-07
6.28461e-07
6.39122e-07
6.50756e-07
6.63269e-07
6.36718e-07
6.23004e-07
6.1015e-07
5.98209e-07
5.87214e-07
5.7709e-07
5.68137e-07
5.60099e-07
5.53043e-07
5.46937e-07
5.41747e-07
5.37431e-07
5.33932e-07
5.31219e-07
5.29154e-07
5.14082e-07
5.14156e-07
5.15298e-07
5.17186e-07
5.1964e-07
5.22884e-07
5.2695e-07
5.31931e-07
5.37908e-07
5.44875e-07
5.52743e-07
5.61705e-07
5.71617e-07
5.82505e-07
5.94269e-07
5.72033e-07
5.59414e-07
5.47617e-07
5.3668e-07
5.2663e-07
5.174e-07
5.09241e-07
5.01937e-07
4.95533e-07
4.90004e-07
4.85311e-07
4.81413e-07
4.78258e-07
4.7581e-07
4.73952e-07
4.59001e-07
4.5907e-07
4.60094e-07
4.61785e-07
4.64001e-07
4.66941e-07
4.70636e-07
4.75167e-07
4.80626e-07
4.87037e-07
4.94323e-07
5.02625e-07
5.11839e-07
5.2202e-07
5.33077e-07
5.14552e-07
5.02928e-07
4.92087e-07
4.82061e-07
4.72865e-07
4.64441e-07
4.56996e-07
4.5035e-07
4.44533e-07
4.39519e-07
4.3527e-07
4.31745e-07
4.28895e-07
4.26684e-07
4.25011e-07
4.10286e-07
4.10351e-07
4.11271e-07
4.12787e-07
4.14792e-07
4.17459e-07
4.20823e-07
4.24954e-07
4.29941e-07
4.35839e-07
4.4259e-07
4.50291e-07
4.58856e-07
4.68368e-07
4.78758e-07
4.63417e-07
4.52701e-07
4.42727e-07
4.33525e-07
4.25103e-07
4.17406e-07
4.10606e-07
4.0455e-07
3.9926e-07
3.94708e-07
3.90856e-07
3.87664e-07
3.85088e-07
3.83088e-07
3.81579e-07
3.67165e-07
3.67227e-07
3.68054e-07
3.69414e-07
3.71229e-07
3.73652e-07
3.7672e-07
3.80495e-07
3.85056e-07
3.90477e-07
3.96731e-07
4.03885e-07
4.11854e-07
4.20731e-07
4.30485e-07
4.17876e-07
4.07992e-07
3.98805e-07
3.90349e-07
3.82628e-07
3.7559e-07
3.69372e-07
3.63848e-07
3.5903e-07
3.54892e-07
3.51396e-07
3.48503e-07
3.4617e-07
3.4436e-07
3.42997e-07
3.28961e-07
3.29019e-07
3.29765e-07
3.30987e-07
3.32631e-07
3.34834e-07
3.37636e-07
3.41092e-07
3.45271e-07
3.50251e-07
3.56041e-07
3.62691e-07
3.70114e-07
3.78396e-07
3.87541e-07
3.77269e-07
3.68148e-07
3.5968e-07
3.51901e-07
3.44814e-07
3.38373e-07
3.32682e-07
3.27636e-07
3.23244e-07
3.19478e-07
3.16301e-07
3.13676e-07
3.11561e-07
3.09919e-07
3.08687e-07
2.95082e-07
2.95135e-07
2.95808e-07
2.96908e-07
2.98399e-07
3.00405e-07
3.02965e-07
3.06135e-07
3.09972e-07
3.1455e-07
3.19903e-07
3.26085e-07
3.33007e-07
3.40736e-07
3.493e-07
3.41018e-07
3.32599e-07
3.24791e-07
3.17626e-07
3.11115e-07
3.05213e-07
3e-07
2.95386e-07
2.91377e-07
2.87945e-07
2.85055e-07
2.82671e-07
2.8075e-07
2.79261e-07
2.78145e-07
2.65009e-07
2.65058e-07
2.65665e-07
2.66657e-07
2.68011e-07
2.69837e-07
2.7218e-07
2.7509e-07
2.7862e-07
2.82833e-07
2.87779e-07
2.93522e-07
2.99982e-07
3.07199e-07
3.15212e-07
3.08618e-07
3.00843e-07
2.93641e-07
2.87039e-07
2.8105e-07
2.75635e-07
2.70854e-07
2.66632e-07
2.62969e-07
2.59837e-07
2.57205e-07
2.55036e-07
2.53293e-07
2.51939e-07
2.50926e-07
2.38288e-07
2.38332e-07
2.38881e-07
2.39777e-07
2.41008e-07
2.42672e-07
2.44816e-07
2.4749e-07
2.50742e-07
2.54628e-07
2.59197e-07
2.64525e-07
2.70555e-07
2.773e-07
2.84795e-07
2.79628e-07
2.72442e-07
2.65796e-07
2.5971e-07
2.54197e-07
2.49224e-07
2.44835e-07
2.40966e-07
2.37616e-07
2.34755e-07
2.32355e-07
2.3038e-07
2.28794e-07
2.27563e-07
2.26643e-07
2.1452e-07
2.14561e-07
2.15057e-07
2.15866e-07
2.16988e-07
2.18506e-07
2.2047e-07
2.22928e-07
2.25928e-07
2.29516e-07
2.33741e-07
2.3868e-07
2.44303e-07
2.50612e-07
2.57624e-07
2.5366e-07
2.47012e-07
2.40876e-07
2.35265e-07
2.30185e-07
2.25612e-07
2.21578e-07
2.18032e-07