/*--------------------------------*- C++ -*----------------------------------*\
| =========                 |                                                 |
| \\      /  F ield         | OpenFOAM Extend Project: Open source CFD        |
|  \\    /   O peration     | Version:  1.6-ext                               |
|   \\  /    A nd           | Web:      www.extend-project.de                 |
|    \\/     M anipulation  |                                                 |
\*---------------------------------------------------------------------------*/
FoamFile
{
    version     2.0;
    format      ascii;
    class       volSymmTensorField;
    location    "0.7";
    object      DSigma;
}
// * * * * * * * * * * * * * * * * * * * * * * * * * * * * * * * * * * * * * //

dimensions      [1 -1 -2 0 0 0 0];

internalField   nonuniform List<symmTensor> 
328
(
(0.149178 0.0273404 2.21192e-24 0.0533632 3.52094e-20 0.0810165)
(0.120594 0.0102955 2.31601e-24 0.0674011 1.12277e-24 0.0751982)
(0.113307 -0.0130851 2.46683e-24 0.0641006 -1.82739e-24 0.0709632)
(0.12155 -0.0249107 -4.07419e-24 0.0434607 -1.43112e-21 0.0660043)
(0.139484 0.018828 -3.81372e-24 0.0326616 -2.09709e-20 0.0688582)
(0.120819 0.00884937 -1.95539e-24 0.0466058 -1.0564e-24 0.0669699)
(0.11357 -0.0106483 -1.31844e-24 0.0454317 1.67012e-25 0.0636005)
(0.112673 -0.0174041 8.5603e-24 0.0258188 4.66659e-21 0.0553965)
(0.137162 0.0118133 3.83105e-24 0.0205545 -1.58221e-20 0.0630864)
(0.127424 0.00700476 3.00108e-23 0.0347025 1.03936e-23 0.0648508)
(0.119613 -0.00810885 -7.35603e-25 0.0344979 1.58376e-26 0.0616443)
(0.110054 -0.0110772 -3.85478e-23 0.0153183 -2.41348e-21 0.0501488)
(0.134078 0.0067875 5.09361e-23 0.0121752 1.67359e-20 0.0585012)
(0.129059 0.00490894 -2.89695e-23 0.023683 -1.12346e-23 0.0610968)
(0.121242 -0.00557378 4.37387e-24 0.0242761 -3.51928e-24 0.0582071)
(0.107006 -0.00646996 3.0009e-23 0.00798871 -1.89444e-20 0.0459981)
(0.132923 0.0034669 -4.5953e-23 0.00732432 1.62885e-20 0.056099)
(0.13101 0.00299442 -8.60155e-25 0.0162471 -4.11183e-24 0.0589029)
(0.123136 -0.00341497 -1.0716e-22 0.0172626 2.91267e-23 0.0561594)
(0.105711 -0.00337824 -9.84974e-24 0.0036719 1.58746e-20 0.0437532)
(0.132287 0.00136069 1.41148e-23 0.00444244 -3.01155e-20 0.0546916)
(0.131437 0.00143098 -1.50058e-23 0.010493 -4.54427e-24 0.0567719)
(0.12363 -0.00171374 1.01666e-22 0.0118009 -2.70352e-23 0.0541723)
(0.104972 -0.00138513 -3.74041e-25 0.00106608 1.67094e-21 0.0424153)
(0.132352 0.000122699 -9.04384e-25 0.00294194 1.41952e-20 0.0541176)
(0.131516 0.000301753 1.7321e-22 0.00657166 4.78265e-23 0.0552352)
(0.123771 -0.00051349 -1.43644e-22 0.00804739 2.48299e-23 0.0527272)
(0.104909 -0.000191378 -3.78235e-24 -0.000325263 1.47898e-20 0.0418334)
(0.132746 -0.000534533 -5.52343e-24 0.00223805 1.13051e-20 0.0539936)
(0.131076 -0.000422466 -1.6533e-22 0.00385139 -4.52197e-23 0.053971)
(0.123406 0.000247693 -1.09891e-23 0.00543897 -8.79726e-24 0.0515379)
(0.105181 0.00045833 -3.29765e-22 -0.00100156 -1.47488e-20 0.0416717)
(0.13336 -0.000810488 4.84361e-24 0.00201661 -1.44622e-20 0.0541506)
(0.130458 -0.000806395 3.90658e-22 0.00211953 8.61702e-23 0.053031)
(0.122849 0.000650794 1.52224e-22 0.00377829 -1.91397e-23 0.050651)
(0.105672 0.000745197 2.99157e-22 -0.00123633 -1.40521e-20 0.0417743)
(0.134038 -0.000854779 5.08459e-23 0.00205048 2.43611e-21 0.0544355)
(0.129724 -0.000939987 -4.16028e-22 0.00106542 -9.81077e-23 0.0523158)
(0.122165 0.000795994 4.48498e-23 0.00277433 -8.99152e-24 0.0499758)
(0.106231 0.000808093 -2.7941e-24 -0.00123114 -9.55123e-25 0.0420001)
(0.134696 -0.000770217 -3.38408e-25 0.00220782 7.74797e-22 0.0547615)
(0.128997 -0.000908736 -5.18976e-23 0.000493327 -4.91115e-24 0.0517963)
(0.121473 0.000773637 3.35376e-24 0.00223827 1.19726e-23 0.0494844)
(0.106772 0.000744564 -1.0782e-24 -0.00110613 1.01168e-20 0.0422662)
(0.135268 -0.000627757 -5.25182e-22 0.00240572 -1.13696e-20 0.0550696)
(0.128324 -0.000786569 0 0.000227635 0 0.0514205)
(0.120819 0.000660054 -3.55082e-22 0.00200013 -1.91858e-23 0.0491276)
(0.107228 0.000623015 -9.97945e-23 -0.000938867 -8.53605e-21 0.0425156)
(0.135724 -0.000472123 1.05097e-21 0.00259869 8.12093e-21 0.0553292)
(0.127736 -0.000628384 0 0.000146631 0 0.0511532)
(0.120239 0.000511162 8.03909e-22 0.00194079 3.87074e-23 0.0488718)
(0.107567 0.000487365 5.54052e-22 -0.000773187 1.58581e-20 0.0427174)
(0.136053 -0.00032926 3.67638e-22 0.00276371 1.24249e-22 0.0555265)
(0.127239 -0.000470688 2.5015e-22 0.000161162 3.58345e-23 0.0509602)
(0.119738 0.000363867 -7.03552e-22 0.00197305 -5.86092e-23 0.0486842)
(0.107775 0.00036344 -2.03593e-22 -0.000632212 -5.07545e-21 0.0428572)
(0.136257 -0.000211198 -1.09662e-21 0.00289279 -9.33586e-22 0.0556599)
(0.126823 -0.00033357 1.14827e-21 0.000214793 2.65341e-22 0.0508153)
(0.119308 0.000238479 0 0.00204166 0 0.04854)
(0.107856 0.000263587 9.91753e-22 -0.000524642 -7.09166e-22 0.0429324)
(0.136349 -0.000120872 2.88452e-22 0.00298671 6.19863e-21 0.0557344)
(0.126469 -0.000224897 -1.36363e-21 0.000274114 -3.33101e-22 0.0506971)
(0.118933 0.000143041 0 0.00211421 0 0.0484189)
(0.107818 0.000191114 -1.15389e-21 -0.000450569 -6.58568e-21 0.0429472)
(0.136345 -5.57316e-05 -6.43482e-22 0.00305094 -6.05942e-21 0.0557582)
(0.126152 -0.000144407 5.67369e-22 0.000323059 1.15246e-22 0.05059)
(0.118589 7.75005e-05 -2.2457e-21 0.00217527 -3.61295e-22 0.0483058)
(0.107677 0.000143905 5.21379e-22 -0.000405352 6.90664e-21 0.0429087)
(0.136257 -1.07122e-05 -1.35808e-21 0.00309266 -7.54095e-21 0.0557398)
(0.125849 -8.74952e-05 0 0.000356299 0 0.0504821)
(0.118254 3.74913e-05 1.0736e-21 0.00222014 1.7927e-22 0.0481897)
(0.107445 0.00011725 7.3459e-24 -0.00038241 -8.35512e-21 0.0428249)
(0.136096 1.98254e-05 6.18925e-22 0.00311886 6.38741e-21 0.055686)
(0.125537 -4.79994e-05 1.95996e-21 0.000374631 6.00119e-22 0.0503648)
(0.117906 1.70529e-05 1.22157e-21 0.00224992 2.79691e-22 0.0480624)
(0.107131 0.000105803 1.12885e-21 -0.000375248 1.71002e-21 0.0427021)
(0.135868 4.08554e-05 1.43964e-21 0.00313546 3.28872e-22 0.0556013)
(0.125198 -2.00261e-05 -6.03664e-22 0.000381458 -1.91972e-22 0.0502317)
(0.117526 1.04408e-05 -1.75926e-21 0.00226837 -4.33026e-22 0.0479179)
(0.10674 0.000104772 -1.05977e-21 -0.000378194 5.5305e-21 0.0425448)
(0.135572 5.62105e-05 -2.70287e-21 0.00314659 -2.00468e-21 0.0554874)
(0.124813 1.14313e-06 1.36195e-21 0.000380385 4.89552e-22 0.0500772)
(0.117098 1.29315e-05 0 0.00227919 0 0.0477509)
(0.106274 0.000110386 1.08244e-21 -0.000387234 3.933e-21 0.0423546)
(0.135206 6.85559e-05 -1.48532e-21 0.00315582 -3.53817e-22 0.0553448)
(0.124368 1.88543e-05 0 0.00037532 0 0.0498973)
(0.116607 2.1119e-05 1.41042e-21 0.00228637 5.19928e-22 0.0475575)
(0.105729 0.000119976 -1.05612e-22 -0.000398997 1.80902e-21 0.042132)
(0.134741 7.97664e-05 -2.19063e-22 0.00316294 -2.06474e-22 0.0551617)
(0.123826 3.6126e-05 -2.65198e-21 0.000366217 -1.08188e-21 0.049677)
(0.116016 3.36766e-05 -2.27007e-21 0.00229052 -7.58196e-22 0.0473226)
(0.105073 0.000132825 2.10866e-21 -0.000413805 -7.38395e-21 0.0418635)
(0.134183 8.92824e-05 2.8711e-21 0.00317154 1.16866e-21 0.0549417)
(0.123192 5.15572e-05 0 0.000357905 0 0.0494202)
(0.11533 4.70214e-05 2.50646e-21 0.0022958 9.63704e-22 0.0470505)
(0.104316 0.000146665 -2.09143e-22 -0.000427736 7.52943e-21 0.0415554)
(0.133561 9.77295e-05 6.51648e-21 0.00318083 2.97717e-21 0.0546966)
(0.122499 6.59632e-05 2.94746e-21 0.000350137 1.346e-21 0.0491397)
(0.114587 6.05543e-05 2.2062e-24 0.00230083 3.66519e-23 0.0467553)
(0.103503 0.000160297 5.21208e-21 -0.000440805 4.15167e-21 0.041225)
(0.132877 0.000105571 3.64875e-21 0.0031915 -2.17157e-21 0.0544275)
(0.121748 8.00051e-05 -3.39837e-21 0.000344255 -1.7025e-21 0.0488369)
(0.113788 7.4122e-05 -1.50031e-23 0.00230698 9.0572e-23 0.0464381)
(0.102637 0.000173484 -5.64627e-21 -0.000452096 -3.91067e-22 0.0408739)
(0.132132 0.000113016 -4.4908e-24 0.00320322 4.04025e-21 0.0541341)
(0.120938 9.40715e-05 -3.88067e-21 0.000340013 -2.19496e-21 0.0485113)
(0.112933 8.78398e-05 -6.29759e-21 0.00231399 -3.23065e-21 0.0460988)
(0.101717 0.00018622 6.03186e-21 -0.000461724 2.63987e-22 0.0405022)
(0.131325 0.000120246 1.28931e-23 0.00321589 -7.62496e-21 0.0538164)
(0.12007 0.000108536 -2.34329e-22 0.000337549 -2.70477e-22 0.0481631)
(0.112022 0.000101963 0 0.00232189 0 0.0457377)
(0.100746 0.000198569 -3.30763e-21 -0.00046962 -3.59207e-21 0.0401106)
(0.130455 0.000127426 4.1191e-21 0.0032292 9.49751e-21 0.0534738)
(0.119144 0.000123748 -2.60576e-22 0.000336774 -2.21041e-22 0.0477924)
(0.111057 0.000116809 -3.5536e-21 0.00233046 -2.18682e-21 0.0453551)
(0.0997251 0.000210649 6.85042e-21 -0.000475766 1.19369e-20 0.0396997)
(0.129522 0.000134695 -9.01834e-21 0.00324285 -7.47762e-21 0.0531059)
(0.11816 0.000140028 3.0686e-22 0.000337677 1.53967e-22 0.0473993)
(0.110038 0.000132681 3.80564e-21 0.00233952 2.40126e-21 0.0449511)
(0.098656 0.000222579 -7.44884e-21 -0.000480077 -9.30687e-21 0.0392704)
(0.128524 0.000142178 -4.89709e-21 0.00325644 -3.15846e-21 0.0527122)
(0.117119 0.000157645 4.33431e-21 0.000340189 2.85612e-21 0.0469837)
(0.108967 0.000149846 -2.68516e-22 0.00234882 -2.31823e-22 0.0445262)
(0.0975413 0.000234466 7.11158e-23 -0.000482486 -1.86297e-21 0.0388235)
(0.12746 0.000149957 5.18453e-21 0.00326954 6.58316e-21 0.0522919)
(0.11602 0.000176802 4.56234e-21 0.000344249 3.18448e-21 0.0465456)
(0.107844 0.00016851 -4.15817e-21 0.00235808 -3.14364e-21 0.0440807)
(0.0963833 0.000246403 8.23947e-21 -0.000482907 5.24919e-21 0.0383602)
(0.126329 0.000158089 -2.98483e-22 0.00328165 -1.83522e-21 0.0518442)
(0.114863 0.000197637 -6.96244e-23 0.00034977 1.0807e-22 0.0460851)
(0.10667 0.000188818 0 0.00236698 0 0.0436147)
(0.0951848 0.000258469 -8.34711e-21 -0.000481278 -5.45707e-21 0.0378814)
(0.125129 0.000166596 5.38719e-21 0.00329228 2.22884e-21 0.0513684)
(0.113649 0.000220225 -5.01237e-21 0.000356653 -3.89327e-21 0.0456022)
(0.105447 0.000210862 -4.84229e-21 0.00237515 -4.1358e-21 0.0431288)
(0.0939485 0.000270729 -1.88245e-22 -0.000477552 1.76256e-21 0.0373884)
(0.123858 0.000175476 -1.14956e-20 0.00330089 -4.44513e-21 0.0508636)
(0.112377 0.000244592 5.54348e-21 0.000364785 4.54894e-21 0.0450968)
(0.104176 0.00023469 4.84229e-21 0.00238223 4.1358e-21 0.0426232)
(0.0926771 0.000283242 4.45248e-21 -0.000471704 2.42643e-21 0.0368822)
(0.122516 0.000184702 -5.77165e-21 0.00330696 -4.30038e-21 0.0503291)
(0.111048 0.000270726 5.77036e-21 0.000374044 4.95907e-21 0.0445688)
(0.102858 0.000260313 0 0.00238783 0 0.0420981)
(0.0913734 0.000296066 -4.82119e-21 -0.000463726 8.22079e-22 0.0363639)
(0.1211 0.00019423 -6.43811e-21 0.00330996 -2.08179e-21 0.0497639)
(0.109662 0.000298582 -5.55709e-21 0.000384306 -5.24485e-21 0.0440184)
(0.101494 0.000287719 1.09918e-20 0.00239156 1.06471e-20 0.0415541)
(0.0900402 0.000309254 9.4973e-21 -0.00045362 4.79265e-21 0.0358347)
(0.119609 0.000204001 2.34075e-24 0.00330939 -1.07024e-21 0.0491675)
(0.108218 0.000328091 0 0.000395455 0 0.0434455)
(0.100085 0.000316876 -1.32739e-22 0.00239304 1.65487e-22 0.0409913)
(0.0886801 0.000322864 -4.6266e-22 -0.000441389 1.30313e-21 0.0352955)
(0.118043 0.000213941 1.37092e-20 0.00330478 4.50309e-21 0.048539)
(0.106718 0.000359157 0 0.000407388 0 0.04285)
(0.0986331 0.000347727 5.81567e-21 0.00239193 6.34081e-21 0.04041)
(0.0872957 0.00033695 -5.95757e-24 -0.000427023 2.69254e-21 0.0347475)
(0.116399 0.000223963 -1.39381e-20 0.0032957 -7.18179e-21 0.0478778)
(0.10516 0.000391657 0 0.000420031 0 0.042232)
(0.0971387 0.00038019 -5.81567e-21 0.00238792 -6.34081e-21 0.0398106)
(0.0858894 0.000351561 6.16663e-24 -0.000410485 -2.75308e-21 0.0341916)
(0.114676 0.000233966 -5.07451e-24 0.00328178 2.23626e-21 0.0471832)
(0.103546 0.000425431 -1.30557e-20 0.000433344 -1.46369e-20 0.0415916)
(0.0956029 0.000414147 6.35001e-21 0.00238076 7.15567e-21 0.0391935)
(0.0844634 0.000366733 5.32725e-21 -0.000391705 4.48691e-21 0.0336287)
(0.112874 0.000243832 4.45868e-24 0.00326272 -1.94611e-21 0.0464549)
(0.101875 0.000460276 1.32462e-20 0.00044733 1.5161e-20 0.0409289)
(0.0940268 0.000449435 -6.54049e-21 0.00237027 -7.67974e-21 0.0385588)
(0.0830201 0.000382483 -2.32054e-24 -0.000370568 1.01499e-21 0.0330598)
(0.110992 0.000253428 -7.83338e-21 0.00323832 -2.90535e-21 0.0456922)
(0.100148 0.000495936 0 0.000462046 0 0.0402438)
(0.0924112 0.000485833 6.54135e-21 0.00235634 8.44062e-21 0.037907)
(0.0815611 0.000398801 -3.57696e-22 -0.000346908 7.99977e-22 0.0324857)
(0.109029 0.000262604 7.86927e-21 0.00320847 5.4959e-21 0.0448951)
(0.0983642 0.000532094 6.9115e-21 0.000477602 8.78218e-21 0.0395367)
(0.090757 0.000523056 -6.73809e-21 0.00233898 -8.21207e-21 0.0372384)
(0.0800882 0.000415641 5.99409e-21 -0.00032051 3.2936e-21 0.0319071)
(0.106985 0.000271196 8.07981e-21 0.00317319 4.37728e-21 0.0440634)
(0.0965251 0.000568376 -7.67336e-21 0.000494167 -9.4863e-21 0.0388077)
(0.089065 0.000560751 -1.35997e-20 0.00231828 -1.86092e-20 0.0365533)
(0.0786027 0.000432921 -1.2236e-20 -0.00029111 -8.79284e-21 0.0313246)
(0.10486 0.000279028 -3.01975e-25 0.0031326 1.28199e-22 0.0431972)
(0.0946308 0.000604343 0 0.000511965 0 0.0380571)
(0.0873359 0.000598494 1.39364e-20 0.00229444 1.98016e-20 0.0358521)
(0.0771056 0.000450515 6.30315e-21 -0.000258405 4.48648e-21 0.0307389)
(0.102655 0.000285918 -6.12074e-22 0.00308698 -1.08867e-21 0.0422969)
(0.0926819 0.00063951 -2.18165e-22 0.000531272 2.49917e-22 0.0372853)
(0.0855702 0.000635801 -1.38764e-20 0.00226779 -2.0662e-20 0.0351352)
(0.0755973 0.000468254 1.34364e-20 -0.00022206 1.1324e-20 0.0301501)
(0.100371 0.000291681 -1.11206e-24 0.00303673 4.67995e-22 0.0413632)
(0.0906792 0.00067335 -7.83846e-21 0.00055241 -1.09385e-20 0.0364926)
(0.0837685 0.000672134 0 0.00223873 0 0.0344029)
(0.074078 0.00048593 -6.59894e-21 -0.000181722 -6.22899e-21 0.0295585)
(0.0980096 0.000296143 8.85547e-21 0.00298239 5.0023e-21 0.0403968)
(0.0886236 0.000705313 0 0.000575734 0 0.0356797)
(0.081931 0.000706921 -2.17873e-20 0.00220779 -3.55895e-20 0.0336555)
(0.0725473 0.000503302 1.42846e-20 -0.000137036 1.17564e-20 0.0289641)
(0.0955727 0.000299144 -8.85772e-21 0.00292463 -4.08811e-21 0.0393989)
(0.0865162 0.000734847 1.58776e-20 0.000601624 2.50016e-20 0.0348471)
(0.0800582 0.000739574 -8.34701e-21 0.00217556 -1.28853e-20 0.0328935)
(0.0710044 0.000520099 1.40522e-20 -8.76577e-05 1.23019e-20 0.0283667)
(0.0930635 0.000300547 -1.84236e-20 0.00286422 -1.48668e-20 0.0383711)
(0.0843583 0.000761418 -1.61931e-20 0.000630468 -2.63519e-20 0.0339955)
(0.0781502 0.000769511 1.61932e-20 0.00214272 2.6352e-20 0.0321172)
(0.0694478 0.000536033 -1.40517e-20 -3.32709e-05 -1.25414e-20 0.0277658)
(0.0904853 0.000300249 1.84275e-20 0.002802 1.32776e-20 0.0373149)
(0.0821514 0.000784535 -8.46654e-22 0.000662647 -8.04148e-22 0.0331256)
(0.0762072 0.000796178 -3.16171e-20 0.00210999 -5.52683e-20 0.0313269)
(0.0678759 0.000550807 4.34919e-20 2.63971e-05 4.21444e-20 0.0271609)
(0.087842 0.000298181 1.96434e-20 0.00273892 1.60162e-20 0.0362324)
(0.0798973 0.000803761 3.41471e-20 0.000698523 5.76728e-20 0.0322383)
(0.0742293 0.000819071 -1.41066e-21 0.00207814 -1.8885e-22 0.030523)
(0.0662866 0.000564128 -1.60044e-20 9.15627e-05 -1.43824e-20 0.0265513)
(0.0851381 0.000294318 -1.99892e-20 0.00267593 -1.55111e-20 0.0351256)
(0.0775977 0.000818739 -1.70905e-20 0.000738417 -3.05704e-20 0.0313344)
(0.0722167 0.00083775 1.70905e-20 0.00204792 3.05704e-20 0.0297058)
(0.0646775 0.000575714 -1.25259e-24 0.000162373 5.20999e-22 0.0259359)
(0.0823783 0.000288674 2.03206e-20 0.002614 1.63393e-20 0.0339969)
(0.0752547 0.000829193 -1.73727e-20 0.000782598 -3.2028e-20 0.0304149)
(0.0701693 0.000851856 1.45981e-21 0.00202009 1.78616e-22 0.0288758)
(0.0630458 0.000585302 1.5953e-20 0.000238896 1.51851e-20 0.0253139)
(0.0795678 0.000281307 -5.90011e-22 0.00255409 -8.89163e-23 0.0328488)
(0.0728705 0.000834938 0 0.000831268 0 0.0294807)
(0.0680875 0.000861113 -1.70335e-20 0.00199535 -3.4171e-20 0.0280331)
(0.0613888 0.000592658 1.47113e-20 0.000321112 1.73448e-20 0.024684)
(0.076712 0.000272307 -4.03936e-20 0.00249707 -3.48127e-20 0.0316836)
(0.0704474 0.000835877 1.87931e-20 0.000884548 3.58601e-20 0.0285328)
(0.0659712 0.000865333 3.34405e-20 0.00197435 6.9015e-20 0.0271782)
(0.0597037 0.000597578 -1.64472e-20 0.000408902 -1.81814e-20 0.024045)
(0.0738165 0.000261799 1.94467e-20 0.00244378 1.76223e-20 0.0305041)
(0.067988 0.000831993 -1.94232e-20 0.000942465 -3.51828e-20 0.0275722)
(0.0638209 0.000864413 0 0.00195765 0 0.0263114)
(0.0579876 0.000599895 1.51558e-20 0.000502048 1.76622e-20 0.0233959)
(0.0708869 0.000249926 4.21519e-20 0.00239492 3.88108e-20 0.0293127)
(0.0654946 0.000823346 -1.90534e-20 0.00100495 -3.739e-20 0.0265998)
(0.0616368 0.000858329 0 0.00194572 0 0.025433)
(0.0562378 0.000599478 2.95871e-25 0.000600225 -1.22654e-22 0.0227352)
(0.067929 0.000236851 -1.82486e-25 0.0023511 7.55596e-23 0.028112)
(0.06297 0.000810061 0 0.00107182 0 0.0256167)
(0.0594194 0.00084713 8.90847e-22 0.00193888 8.61973e-22 0.0245433)
(0.0544518 0.000596234 1.71378e-20 0.000702998 1.98707e-20 0.0220619)
(0.0649484 0.000222746 2.20597e-20 0.00231278 2.20508e-20 0.0269045)
(0.0604168 0.000792324 -1.88763e-20 0.0011428 -4.12137e-20 0.0246238)
(0.0571692 0.000830934 8.94986e-22 0.00193737 8.65154e-22 0.0236426)
(0.0526271 0.000590115 -1.57709e-20 0.000809827 -1.97928e-20 0.0213748)
(0.0619507 0.000207786 2.23083e-20 0.00228029 2.24349e-20 0.0256924)
(0.0578376 0.000770369 1.9094e-20 0.00121749 4.28043e-20 0.0236221)
(0.054887 0.000809923 -1.81973e-20 0.00194127 -4.19337e-20 0.0227313)
(0.0507616 0.000581113 1.75589e-20 0.000920065 2.07236e-20 0.0206727)
(0.0589412 0.000192145 2.25437e-20 0.00225383 2.31683e-20 0.024478)
(0.0552353 0.000744477 -9.00626e-22 0.0012954 -8.75207e-22 0.0226123)
(0.0525736 0.000784337 -2.00036e-20 0.00195053 -4.36688e-20 0.0218096)
(0.0488535 0.000569262 -5.09448e-20 0.00103298 -6.60782e-20 0.0199546)
(0.0559251 0.00017599 -2.11624e-20 0.00223343 -2.30917e-20 0.0232634)
(0.0526123 0.000714961 4.13094e-20 0.00137597 9.14427e-20 0.0215953)
(0.0502297 0.000754464 3.66753e-20 0.00196499 9.26691e-20 0.0208779)
(0.0469012 0.000554641 1.54243e-20 0.00114774 2.17837e-20 0.0192196)
(0.0529074 0.000159472 -7.09988e-22 0.00221901 -4.47692e-22 0.0220506)
(0.0499714 0.000682148 0 0.00145851 0 0.020572)
(0.0478565 0.000720621 1.78419e-22 0.00198435 1.63407e-21 0.0199364)
(0.0449035 0.00053736 1.73945e-20 0.00126348 2.35862e-20 0.0184668)
(0.0498926 0.00014272 -7.16461e-22 0.00221037 1.07459e-21 0.0208412)
(0.0473151 0.000646362 -2.14924e-20 0.00154232 -4.94064e-20 0.019543)
(0.0454551 0.000683137 1.68925e-22 0.00200824 1.64273e-21 0.0189854)
(0.0428595 0.00051756 -1.73931e-20 0.00137925 -2.4191e-20 0.0176955)
(0.0468851 0.000125829 -2.26322e-20 0.00220718 -2.53522e-20 0.0196369)
(0.044646 0.000607903 0 0.00162661 0 0.018509)
(0.0430267 0.000642332 -3.8429e-20 0.00203617 -1.01749e-19 0.0180252)
(0.0407687 0.000495397 1.50015e-24 0.0014941 -6.20316e-22 0.0169051)
(0.0438891 0.000108864 -1.66225e-22 0.00220909 3.0424e-24 0.0184393)
(0.0419665 0.000567041 8.96822e-22 0.00171059 8.78423e-22 0.0174708)
(0.0405725 0.000598512 4.03847e-20 0.00206761 1.05158e-19 0.0170561)
(0.0386305 0.000471044 -1.62002e-20 0.00160703 -2.65099e-20 0.016095)
(0.0409083 9.18614e-05 2.27947e-20 0.00221567 2.68789e-20 0.0172496)
(0.039279 0.000524031 -4.23247e-20 0.00179345 -1.08569e-19 0.016429)
(0.0380939 0.000551978 -1.94438e-20 0.00210196 -5.33563e-20 0.0160784)
(0.036445 0.000444686 -1.3464e-22 0.00171704 -1.5316e-21 0.0152648)
(0.0379464 7.48568e-05 -4.52833e-20 0.00222651 -5.71958e-20 0.0160692)
(0.0365857 0.000479157 4.3364e-20 0.00187441 1.111e-19 0.0153841)
(0.0355923 0.000503071 -1.97134e-20 0.00213861 -5.66847e-20 0.0150924)
(0.0342121 0.000416541 -1.25924e-22 0.0018231 -1.40261e-21 0.0144141)
(0.0350067 5.79105e-05 4.63062e-20 0.00224119 5.77121e-20 0.0148992)
(0.033889 0.000432796 8.88212e-22 0.00195273 8.73893e-22 0.0143367)
(0.033069 0.000452233 4.03184e-20 0.00217693 1.14245e-19 0.0140984)
(0.0319321 0.000386877 1.90097e-20 0.00192424 2.94905e-20 0.0135425)
(0.0320924 4.11409e-05 -4.65532e-20 0.00225934 -5.94403e-20 0.0137407)
(0.0311909 0.000385482 -2.14931e-20 0.00202777 -5.84345e-20 0.0132875)
(0.0305257 0.000400071 -8.86925e-22 0.00221631 -8.73846e-22 0.0130968)
(0.0296057 0.000356038 -3.64761e-20 0.00201954 -5.76196e-20 0.0126501)
(0.0292055 2.47419e-05 4.67777e-20 0.00228051 6.10664e-20 0.0125944)
(0.0284932 0.000337941 0 0.00209888 0 0.0122368)
(0.0279638 0.000347382 1.99431e-20 0.00225609 6.00276e-20 0.012088)
(0.0272339 0.000324452 -1.83449e-20 0.00210816 -3.01354e-20 0.0117368)
(0.026348 8.97307e-06 -2.34406e-20 0.00230434 -3.15739e-20 0.0114609)
(0.025798 0.000291032 -2.09233e-20 0.00216576 -6.25714e-20 0.0111855)
(0.0253856 0.00029512 4.10555e-20 0.00229587 1.2595e-19 0.0110726)
(0.024819 0.000292606 -2.56221e-25 0.0021896 1.05612e-22 0.0108034)
(0.0235202 -5.8896e-06 -4.80307e-20 0.00233006 -6.60499e-20 0.0103401)
(0.0231061 0.000245647 0 0.00222768 0 0.0101335)
(0.0227922 0.000244232 -7.9575e-22 0.00233474 8.11721e-22 0.0100508)
(0.0223632 0.000260989 -2.02908e-20 0.00226325 -3.3203e-20 0.00985056)
(0.0207235 -1.969e-05 2.36202e-20 0.00235763 3.31214e-20 0.00923244)
(0.0204205 0.000202385 -2.19503e-20 0.00228533 -6.67793e-20 0.00908234)
(0.0201877 0.000195556 0 0.00237318 0 0.00902437)
(0.0198715 0.000230028 3.72971e-20 0.00232952 6.59504e-20 0.00888039)
(0.0179543 -3.22166e-05 2.45575e-20 0.00238538 3.44595e-20 0.00813587)
(0.0177381 0.000161702 -5.93678e-23 0.0023362 -1.67166e-21 0.00802973)
(0.01757 0.000149333 -1.9473e-20 0.00240834 -6.75542e-20 0.00799134)
(0.0173449 0.000199788 -1.70053e-20 0.00238707 -3.23739e-20 0.00789278)
(0.0152214 -4.41928e-05 -4.67607e-20 0.00241594 -6.98093e-20 0.00705495)
(0.0150718 0.00012298 4.48786e-20 0.00238634 1.37755e-19 0.00698327)
(0.0149533 0.000106045 -8.60895e-22 0.00244584 -8.56085e-22 0.00695965)
(0.0147967 0.000170784 -1.961e-20 0.00243863 -3.46471e-20 0.00689414)
(0.0125028 -5.36958e-05 -2.30391e-20 0.00244358 -3.63894e-20 0.00597857)
(0.0123908 8.77701e-05 4.41569e-20 0.00241917 1.41918e-19 0.00592399)
(0.012308 6.3985e-05 -2.04261e-20 0.00246798 -7.17719e-20 0.00591041)
(0.0122078 0.000140779 3.76291e-20 0.00247594 7.05253e-20 0.00587349)
(0.00986623 -6.44803e-05 -3.01948e-23 0.00248738 -8.17773e-22 0.00494144)
(0.00978395 5.52154e-05 4.34015e-20 0.00247575 1.46088e-19 0.00490388)
(0.00972583 2.60981e-05 -2.1277e-20 0.00251406 -7.2621e-20 0.00489596)
(0.00964784 0.000113119 1.88614e-20 0.00251362 3.67616e-20 0.00486459)
(0.00712066 -4.53008e-05 7.1659e-20 0.00250166 1.11422e-19 0.00384893)
(0.00702028 4.2492e-05 -2.29515e-20 0.00242566 -7.26372e-20 0.00377838)
(0.00698105 -1.56842e-05 0 0.00244806 0 0.00377164)
(0.00693127 6.39519e-05 -3.77412e-20 0.00248321 -7.4323e-20 0.00376579)
(0.00480858 2.10631e-06 -1.86686e-22 0.00254805 -1.95238e-22 0.00294265)
(0.00478747 3.46823e-05 -1.07803e-20 0.00251745 -7.51116e-20 0.00292197)
(0.00476001 -3.22852e-05 3.4648e-24 0.00252785 8.38761e-27 0.00291514)
(0.00458716 1.09524e-05 1.90025e-20 0.00244911 7.61715e-20 0.0028145)
)
;

boundaryField
{
    plateFix
    {
        type            calculated;
        value           nonuniform List<symmTensor> 4((0.150146 0.0350852 5.30433e-24 0.0540101 3.52094e-20 0.0816624) (0.113195 0.0102924 2.31601e-24 0.062468 1.12277e-24 0.0702651) (0.106721 -0.0140059 2.46683e-24 0.0597095 -1.82739e-24 0.0665721) (0.122887 -0.0319508 -4.26575e-24 0.0443487 -1.42825e-21 0.0668943));
    }
    plate
    {
        type            calculated;
        value           nonuniform List<symmTensor> 
168
(
(0.114937 7.28431e-05 -2.52021e-24 0.00198334 7.03294e-20 0.0467681)
(0.0937643 -2.30196e-05 2.65308e-24 0.00181684 -2.78319e-21 0.0382325)
(0.11894 3.04339e-05 -1.14208e-24 0.00183421 -4.19387e-20 0.0483098)
(0.0965717 1.3646e-05 7.4739e-24 0.00168817 9.25056e-21 0.039304)
(0.124649 2.78009e-05 5.88062e-24 0.00177852 -3.17474e-20 0.0505711)
(0.100928 1.38052e-05 -4.05066e-23 0.00164026 -4.86832e-21 0.0410271)
(0.127125 2.60506e-05 4.85212e-23 0.00174054 3.36207e-20 0.0515461)
(0.102748 1.51517e-05 3.36465e-23 0.00160775 -3.7876e-20 0.0417424)
(0.129182 2.73195e-05 -4.87142e-23 0.00170939 3.25282e-20 0.0523565)
(0.104315 1.81355e-05 -1.37235e-23 0.0015812 3.18429e-20 0.0423585)
(0.130448 3.00207e-05 2.02876e-23 0.00168255 -6.03124e-20 0.052852)
(0.105299 2.20288e-05 -7.30094e-25 0.00155844 3.26152e-21 0.0427431)
(0.131497 3.37693e-05 -4.31788e-24 0.00165924 2.82889e-20 0.0532625)
(0.106151 2.68682e-05 -7.58426e-24 0.00153883 2.9656e-20 0.0430761)
(0.132346 3.82161e-05 -8.66675e-24 0.0016387 2.28386e-20 0.0535938)
(0.106863 3.23236e-05 -3.25379e-22 0.0015217 -2.9656e-20 0.043354)
(0.133095 4.32494e-05 9.68851e-24 0.00162033 -2.89283e-20 0.053886)
(0.107501 3.82655e-05 3.03832e-22 0.00150652 -2.78965e-20 0.0436032)
(0.133739 4.87723e-05 4.99381e-23 0.00160365 4.79706e-21 0.0541371)
(0.108048 4.45872e-05 -3.21134e-24 0.00149288 5.23573e-24 0.0438165)
(0.134282 5.47387e-05 -6.78625e-25 0.00158835 1.55374e-21 0.054348)
(0.108497 5.12438e-05 -5.13678e-24 0.00148048 2.02274e-20 0.043991)
(0.134713 6.11165e-05 -5.19665e-22 0.00157422 -2.25903e-20 0.0545148)
(0.108834 5.82048e-05 -9.55515e-23 0.0014691 -1.71889e-20 0.0441212)
(0.135032 6.78898e-05 1.04668e-21 0.00156108 1.59357e-20 0.0546371)
(0.109055 6.54538e-05 5.45309e-22 0.00145858 3.1823e-20 0.0442056)
(0.135242 7.50495e-05 3.68312e-22 0.00154885 1.07151e-22 0.0547163)
(0.109163 7.29771e-05 -2.00979e-22 0.00144881 -1.01594e-20 0.0442448)
(0.135353 8.2592e-05 -1.09627e-21 0.00153743 -1.45015e-21 0.054756)
(0.109166 8.07637e-05 9.92194e-22 0.0014397 -1.36584e-21 0.0442422)
(0.135375 9.0515e-05 2.8395e-22 0.00152681 1.22841e-20 0.0547609)
(0.109073 8.88011e-05 -1.1488e-21 0.00143119 -1.32954e-20 0.0442018)
(0.135322 9.88158e-05 -6.38373e-22 0.00151694 -1.18667e-20 0.0547354)
(0.108896 9.70743e-05 5.15827e-22 0.00142325 1.3786e-20 0.0441278)
(0.1352 0.000107487 -1.35182e-21 0.00150783 -1.46492e-20 0.0546831)
(0.108644 0.000105564 1.47167e-23 0.00141587 -1.67386e-20 0.0440238)
(0.135016 0.000116521 6.13002e-22 0.00149949 1.25779e-20 0.0546063)
(0.10832 0.000114242 1.12738e-21 0.00140906 3.24482e-21 0.0438916)
(0.134772 0.000125892 1.43986e-21 0.00149192 1.14448e-22 0.0545055)
(0.107927 0.000123073 -1.06573e-21 0.00140288 1.12979e-20 0.0437321)
(0.134464 0.000135562 -2.70174e-21 0.00148512 -3.01365e-21 0.0543797)
(0.107463 0.000132026 1.07842e-21 0.00139732 7.63157e-21 0.0435443)
(0.134088 0.000145546 -1.48539e-21 0.00147932 -5.53219e-23 0.054227)
(0.106924 0.000140949 -1.07789e-22 0.00139275 3.69802e-21 0.0433265)
(0.133614 0.000155623 -2.19003e-22 0.00147274 -2.53509e-22 0.0540348)
(0.106273 0.000150695 2.11896e-21 0.00138736 -1.54049e-20 0.0430642)
(0.133047 0.000165344 2.87123e-21 0.00146822 1.07462e-21 0.053806)
(0.105524 0.00016073 -2.19608e-22 0.00138372 1.52178e-20 0.042763)
(0.132417 0.000174373 6.51619e-21 0.00146544 2.83837e-21 0.0535529)
(0.104718 0.000169946 5.20934e-21 0.00138145 6.07531e-21 0.0424398)
(0.131726 0.000182691 3.65508e-21 0.00146454 -6.26946e-21 0.0532761)
(0.103859 0.00017834 -5.64963e-21 0.00138056 1.79235e-21 0.0420957)
(0.130973 0.000190339 -1.09735e-23 0.00146526 8.04398e-21 0.0529753)
(0.102946 0.00018589 6.03653e-21 0.00138096 -2.62215e-21 0.0417307)
(0.130159 0.000197334 2.57865e-23 0.00146751 -1.52501e-20 0.0526506)
(0.101981 0.000192575 -3.30491e-21 0.00138255 -5.20349e-21 0.0413454)
(0.129283 0.000203707 4.10673e-21 0.00147112 1.65334e-20 0.0523015)
(0.100966 0.000198381 6.83672e-21 0.00138519 1.97467e-20 0.0409404)
(0.128344 0.000209471 -9.01529e-21 0.00147594 -9.15637e-21 0.0519278)
(0.099902 0.000203312 -7.44109e-21 0.00138881 -1.35661e-20 0.0405163)
(0.12734 0.000214642 -4.89692e-21 0.00148177 -3.00272e-21 0.0515289)
(0.0987919 0.00020737 7.46027e-23 0.00139323 -3.6313e-21 0.0400741)
(0.126272 0.000219225 5.17825e-21 0.00148842 9.59471e-21 0.0511043)
(0.0976377 0.000210582 8.2417e-21 0.00139829 4.09657e-21 0.0396144)
(0.125138 0.000223219 -2.95345e-22 0.00149563 -3.4147e-21 0.0506533)
(0.0964418 0.000212981 -8.34996e-21 0.0014038 -4.02279e-21 0.0391382)
(0.123936 0.000226611 5.39089e-21 0.00150316 4.09609e-22 0.0501755)
(0.0952069 0.000214619 -1.92588e-22 0.00140953 3.90294e-21 0.0386466)
(0.122664 0.000229382 -1.15053e-20 0.00151074 3.6851e-22 0.04967)
(0.0939355 0.000215561 4.45576e-21 0.00141523 8.42681e-22 0.0381403)
(0.121323 0.000231502 -5.77302e-21 0.00151808 -3.64989e-21 0.0491363)
(0.0926302 0.00021589 -4.83314e-21 0.00142063 6.47577e-21 0.0376203)
(0.11991 0.000232936 -6.44532e-21 0.00152492 1.37558e-21 0.0485738)
(0.0912936 0.000215699 9.50753e-21 0.00142547 -2.49597e-22 0.0370876)
(0.118424 0.000233638 4.65052e-24 0.001531 -2.12631e-21 0.0479818)
(0.0899282 0.000215095 -4.66508e-22 0.00142949 2.74823e-21 0.0365431)
(0.116863 0.00023356 1.37281e-20 0.00153608 -4.0737e-21 0.0473598)
(0.0885363 0.000214194 -1.18848e-23 0.00143247 5.37137e-21 0.0359875)
(0.115228 0.000232651 -1.39523e-20 0.00153996 -8.19727e-22 0.0467073)
(0.0871202 0.000213118 1.23498e-23 0.00143421 -5.51355e-21 0.0354218)
(0.113517 0.000230861 -1.01763e-23 0.00154248 4.48453e-21 0.0460237)
(0.0856821 0.000211987 5.33176e-21 0.00143457 2.05295e-21 0.0348467)
(0.111728 0.000228145 8.9424e-24 0.00154356 -3.90315e-21 0.0453088)
(0.084224 0.000210923 -4.67027e-24 0.00143346 2.04274e-21 0.034263)
(0.109862 0.000224464 -7.84651e-21 0.00154317 2.69084e-21 0.0445622)
(0.0827477 0.000210036 -3.61525e-22 0.0014309 1.93082e-21 0.0336715)
(0.107918 0.000219792 7.87803e-21 0.00154135 1.73141e-21 0.0437838)
(0.0812548 0.000209423 6.00581e-21 0.00142697 -1.74932e-21 0.0330727)
(0.105896 0.000214117 8.09299e-21 0.00153823 -1.08572e-21 0.0429736)
(0.0797464 0.000209168 -1.22576e-20 0.00142183 1.05863e-21 0.0324673)
(0.103795 0.000207446 -5.93562e-25 0.00153402 2.51988e-22 0.0421317)
(0.0782236 0.000209327 6.31493e-21 0.00141576 -5.24983e-22 0.0318557)
(0.101617 0.000199805 -6.10349e-22 0.00152901 -2.05803e-21 0.0412586)