/*--------------------------------*- C++ -*----------------------------------*\
| =========                 |                                                 |
| \\      /  F ield         | OpenFOAM Extend Project: Open source CFD        |
|  \\    /   O peration     | Version:  1.6-ext                               |
|   \\  /    A nd           | Web:      www.extend-project.de                 |
|    \\/     M anipulation  |                                                 |
\*---------------------------------------------------------------------------*/
FoamFile
{
    version     2.0;
    format      ascii;
    class       volVectorField;
    location    "0.7";
    object      DU;
}
// * * * * * * * * * * * * * * * * * * * * * * * * * * * * * * * * * * * * * //

dimensions      [0 1 0 0 0 0 0];

internalField   nonuniform List<vector> 
328
(
(3.4244e-09 6.36393e-09 0)
(2.14657e-09 1.10015e-09 0)
(2.00729e-09 -1.43316e-09 0)
(2.79971e-09 -5.76251e-09 0)
(1.04538e-08 1.63422e-08 0)
(7.10655e-09 3.38136e-09 0)
(6.62238e-09 -4.0219e-09 0)
(8.51041e-09 -1.47878e-08 0)
(1.8614e-08 2.38569e-08 0)
(1.37568e-08 5.72004e-09 0)
(1.27787e-08 -6.29159e-09 0)
(1.51168e-08 -2.14272e-08 0)
(2.75229e-08 2.93654e-08 0)
(2.1542e-08 7.94141e-09 0)
(1.99941e-08 -8.04897e-09 0)
(2.2311e-08 -2.5991e-08 0)
(3.72937e-08 3.34432e-08 0)
(3.05692e-08 9.9916e-09 0)
(2.83706e-08 -9.21349e-09 0)
(3.01912e-08 -2.89073e-08 0)
(4.78835e-08 3.65423e-08 0)
(4.06607e-08 1.18777e-08 0)
(3.77508e-08 -9.73793e-09 0)
(3.87263e-08 -3.04968e-08 0)
(5.93493e-08 3.90446e-08 0)
(5.17965e-08 1.36703e-08 0)
(4.81155e-08 -9.62073e-09 0)
(4.79662e-08 -3.10135e-08 0)
(7.17321e-08 4.12512e-08 0)
(6.3914e-08 1.54728e-08 0)
(5.94053e-08 -8.87075e-09 0)
(5.79469e-08 -3.06313e-08 0)
(8.50958e-08 4.34143e-08 0)
(7.70015e-08 1.74125e-08 0)
(7.1606e-08 -7.50018e-09 0)
(6.87216e-08 -2.94666e-08 0)
(9.95048e-08 4.57463e-08 0)
(9.10562e-08 1.96269e-08 0)
(8.47117e-08 -5.50816e-09 0)
(8.03425e-08 -2.75825e-08 0)
(1.15029e-07 4.84343e-08 0)
(1.06103e-07 2.22587e-08 0)
(9.87419e-08 -2.8741e-09 0)
(9.28655e-08 -2.49969e-08 0)
(1.31741e-07 5.16491e-08 0)
(1.22182e-07 2.54528e-08 0)
(1.13732e-07 4.48978e-10 0)
(1.06346e-07 -2.16861e-08 0)
(1.49716e-07 5.55533e-08 0)
(1.39355e-07 2.93569e-08 0)
(1.29737e-07 4.53732e-09 0)
(1.20843e-07 -1.75876e-08 0)
(1.69032e-07 6.03094e-08 0)
(1.57696e-07 3.41251e-08 0)
(1.46823e-07 9.49841e-09 0)
(1.36414e-07 -1.26022e-08 0)
(1.89774e-07 6.60873e-08 0)
(1.77292e-07 3.99228e-08 0)
(1.6507e-07 1.54717e-08 0)
(1.53123e-07 -6.59477e-09 0)
(2.1203e-07 7.30717e-08 0)
(1.98238e-07 4.69323e-08 0)
(1.84565e-07 2.26298e-08 0)
(1.71036e-07 6.04871e-10 0)
(2.35897e-07 8.14696e-08 0)
(2.20636e-07 5.53606e-08 0)
(2.054e-07 3.11794e-08 0)
(1.90222e-07 9.203e-09 0)
(2.61477e-07 9.15185e-08 0)
(2.44593e-07 6.54454e-08 0)
(2.27675e-07 4.13643e-08 0)
(2.10758e-07 1.94438e-08 0)
(2.88879e-07 1.03493e-07 0)
(2.7022e-07 7.7463e-08 0)
(2.51489e-07 5.34688e-08 0)
(2.32724e-07 3.16126e-08 0)
(3.18219e-07 1.17715e-07 0)
(2.97631e-07 9.17356e-08 0)
(2.76946e-07 6.78232e-08 0)
(2.56202e-07 4.60413e-08 0)
(3.4962e-07 1.34557e-07 0)
(3.26942e-07 1.08639e-07 0)
(3.04148e-07 8.48108e-08 0)
(2.8128e-07 6.31149e-08 0)
(3.8321e-07 1.54456e-07 0)
(3.58271e-07 1.28612e-07 0)
(3.33204e-07 1.04876e-07 0)
(3.08047e-07 8.32793e-08 0)
(4.20489e-07 1.78816e-07 0)
(3.93015e-07 1.53064e-07 0)
(3.65401e-07 1.29435e-07 0)
(3.37684e-07 1.07959e-07 0)
(4.60227e-07 2.07624e-07 0)
(4.3002e-07 1.81982e-07 0)
(3.99661e-07 1.5848e-07 0)
(3.69187e-07 1.37142e-07 0)
(4.9978e-07 2.39182e-07 0)
(4.66821e-07 2.13663e-07 0)
(4.33699e-07 1.90297e-07 0)
(4.0045e-07 1.6911e-07 0)
(5.39127e-07 2.73508e-07 0)
(5.03399e-07 2.48124e-07 0)
(4.67498e-07 2.24906e-07 0)
(4.31457e-07 2.03881e-07 0)
(5.7825e-07 3.10619e-07 0)
(5.39737e-07 2.85381e-07 0)
(5.0104e-07 2.62324e-07 0)
(4.6219e-07 2.4147e-07 0)
(6.1713e-07 3.5053e-07 0)
(5.75815e-07 3.25452e-07 0)
(5.34307e-07 3.02566e-07 0)
(4.92634e-07 2.81895e-07 0)
(6.55747e-07 3.93259e-07 0)
(6.11617e-07 3.68352e-07 0)
(5.67284e-07 3.45649e-07 0)
(5.22772e-07 3.25171e-07 0)
(6.94083e-07 4.38819e-07 0)
(6.47124e-07 4.14097e-07 0)
(5.99953e-07 3.91588e-07 0)
(5.5259e-07 3.71313e-07 0)
(7.32117e-07 4.87225e-07 0)
(6.82318e-07 4.627e-07 0)
(6.32297e-07 4.40396e-07 0)
(5.82072e-07 4.20334e-07 0)
(7.69831e-07 5.3849e-07 0)
(7.17182e-07 5.14174e-07 0)
(6.64302e-07 4.92086e-07 0)
(6.11204e-07 4.72246e-07 0)
(8.07204e-07 5.92623e-07 0)
(7.51697e-07 5.68529e-07 0)
(6.95952e-07 5.46668e-07 0)
(6.39974e-07 5.27059e-07 0)
(8.44216e-07 6.49632e-07 0)
(7.85847e-07 6.25774e-07 0)
(7.27231e-07 6.0415e-07 0)
(6.6837e-07 5.84781e-07 0)
(8.80846e-07 7.09523e-07 0)
(8.19612e-07 6.85913e-07 0)
(7.58126e-07 6.64537e-07 0)
(6.96378e-07 6.45416e-07 0)
(9.17074e-07 7.72297e-07 0)
(8.52977e-07 7.48948e-07 0)
(7.88621e-07 7.27831e-07 0)
(7.23991e-07 7.08965e-07 0)
(9.52878e-07 8.37952e-07 0)
(8.85924e-07 8.14879e-07 0)
(8.18704e-07 7.9403e-07 0)
(7.51196e-07 7.75426e-07 0)
(9.88236e-07 9.06484e-07 0)
(9.18434e-07 8.83699e-07 0)
(8.48362e-07 8.63129e-07 0)
(7.77986e-07 8.44793e-07 0)
(1.02313e-06 9.77881e-07 0)
(9.50491e-07 9.55398e-07 0)
(8.77581e-07 9.35116e-07 0)
(8.04352e-07 9.17055e-07 0)
(1.05753e-06 1.05213e-06 0)
(9.82078e-07 1.02996e-06 0)
(9.0635e-07 1.00998e-06 0)
(8.30288e-07 9.92196e-07 0)
(1.09142e-06 1.1292e-06 0)
(1.01318e-06 1.10737e-06 0)
(9.34656e-07 1.08769e-06 0)
(8.55786e-07 1.0702e-06 0)
(1.12477e-06 1.20909e-06 0)
(1.04377e-06 1.18759e-06 0)
(9.62488e-07 1.16823e-06 0)
(8.80841e-07 1.15103e-06 0)
(1.15757e-06 1.29174e-06 0)
(1.07385e-06 1.2706e-06 0)
(9.89836e-07 1.25157e-06 0)
(9.05447e-07 1.23466e-06 0)
(1.18979e-06 1.37712e-06 0)
(1.10338e-06 1.35636e-06 0)
(1.01669e-06 1.33766e-06 0)
(9.296e-07 1.32105e-06 0)
(1.2214e-06 1.4652e-06 0)
(1.13236e-06 1.44481e-06 0)
(1.04303e-06 1.42646e-06 0)
(9.53295e-07 1.41016e-06 0)
(1.25239e-06 1.55591e-06 0)
(1.16077e-06 1.53592e-06 0)
(1.06886e-06 1.51793e-06 0)
(9.76528e-07 1.50193e-06 0)
(1.28273e-06 1.6492e-06 0)
(1.18859e-06 1.62963e-06 0)
(1.09416e-06 1.61199e-06 0)
(9.99296e-07 1.59631e-06 0)
(1.3124e-06 1.745e-06 0)
(1.21581e-06 1.72586e-06 0)
(1.11892e-06 1.7086e-06 0)
(1.02159e-06 1.69323e-06 0)
(1.34137e-06 1.84324e-06 0)
(1.2424e-06 1.82454e-06 0)
(1.14314e-06 1.80766e-06 0)
(1.04342e-06 1.79262e-06 0)
(1.36963e-06 1.94385e-06 0)
(1.26836e-06 1.92561e-06 0)
(1.1668e-06 1.90912e-06 0)
(1.06477e-06 1.8944e-06 0)
(1.39714e-06 2.04674e-06 0)
(1.29366e-06 2.02896e-06 0)
(1.18989e-06 2.01287e-06 0)
(1.08563e-06 1.99849e-06 0)
(1.42391e-06 2.15181e-06 0)
(1.3183e-06 2.13452e-06 0)
(1.2124e-06 2.11884e-06 0)
(1.10601e-06 2.10479e-06 0)
(1.44989e-06 2.25898e-06 0)
(1.34226e-06 2.24218e-06 0)
(1.23433e-06 2.22692e-06 0)
(1.1259e-06 2.21321e-06 0)
(1.47508e-06 2.36814e-06 0)
(1.36551e-06 2.35184e-06 0)
(1.25565e-06 2.33701e-06 0)
(1.14528e-06 2.32365e-06 0)
(1.49945e-06 2.47919e-06 0)
(1.38806e-06 2.46341e-06 0)
(1.27637e-06 2.44901e-06 0)
(1.16416e-06 2.43601e-06 0)
(1.52299e-06 2.59201e-06 0)
(1.40988e-06 2.57676e-06 0)
(1.29647e-06 2.56281e-06 0)
(1.18253e-06 2.55017e-06 0)
(1.54569e-06 2.7065e-06 0)
(1.43097e-06 2.69179e-06 0)
(1.31594e-06 2.67829e-06 0)
(1.20037e-06 2.66602e-06 0)
(1.56754e-06 2.82255e-06 0)
(1.45131e-06 2.80839e-06 0)
(1.33477e-06 2.79535e-06 0)
(1.21768e-06 2.78346e-06 0)
(1.58851e-06 2.94005e-06 0)
(1.47089e-06 2.92644e-06 0)
(1.35294e-06 2.91388e-06 0)
(1.23445e-06 2.90237e-06 0)
(1.6086e-06 3.05887e-06 0)
(1.48969e-06 3.04583e-06 0)
(1.37045e-06 3.03374e-06 0)
(1.25066e-06 3.02264e-06 0)
(1.62781e-06 3.17892e-06 0)
(1.50772e-06 3.16644e-06 0)
(1.38729e-06 3.15485e-06 0)
(1.26631e-06 3.14415e-06 0)
(1.64612e-06 3.30007e-06 0)
(1.52496e-06 3.28817e-06 0)
(1.40345e-06 3.27708e-06 0)
(1.28137e-06 3.26679e-06 0)
(1.66354e-06 3.42223e-06 0)
(1.5414e-06 3.41091e-06 0)
(1.41891e-06 3.40032e-06 0)
(1.29585e-06 3.39046e-06 0)
(1.68005e-06 3.54529e-06 0)
(1.55704e-06 3.53456e-06 0)
(1.43366e-06 3.52447e-06 0)
(1.30972e-06 3.51504e-06 0)
(1.69565e-06 3.66915e-06 0)
(1.57187e-06 3.659e-06 0)
(1.4477e-06 3.64943e-06 0)
(1.32297e-06 3.64044e-06 0)
(1.71035e-06 3.79371e-06 0)
(1.58588e-06 3.78415e-06 0)
(1.46102e-06 3.7751e-06 0)
(1.33559e-06 3.76656e-06 0)
(1.72414e-06 3.91888e-06 0)
(1.59908e-06 3.90991e-06 0)
(1.47361e-06 3.90139e-06 0)
(1.34756e-06 3.89331e-06 0)
(1.73703e-06 4.04458e-06 0)
(1.61145e-06 4.0362e-06 0)
(1.48545e-06 4.02821e-06 0)
(1.35887e-06 4.0206e-06 0)
(1.74902e-06 4.17072e-06 0)
(1.623e-06 4.16294e-06 0)
(1.49654e-06 4.15547e-06 0)
(1.36951e-06 4.14834e-06 0)
(1.76011e-06 4.29724e-06 0)
(1.63372e-06 4.29004e-06 0)
(1.50688e-06 4.28311e-06 0)
(1.37947e-06 4.27647e-06 0)
(1.77032e-06 4.42406e-06 0)
(1.64362e-06 4.41745e-06 0)
(1.51646e-06 4.41106e-06 0)
(1.38872e-06 4.40491e-06 0)
(1.77963e-06 4.55113e-06 0)
(1.65268e-06 4.5451e-06 0)
(1.52526e-06 4.53925e-06 0)
(1.39726e-06 4.53359e-06 0)
(1.78808e-06 4.67838e-06 0)
(1.66093e-06 4.67293e-06 0)
(1.53329e-06 4.66762e-06 0)
(1.40508e-06 4.66247e-06 0)
(1.79565e-06 4.80578e-06 0)
(1.66834e-06 4.8009e-06 0)
(1.54054e-06 4.79614e-06 0)
(1.41216e-06 4.7915e-06 0)
(1.80237e-06 4.93329e-06 0)
(1.67494e-06 4.92898e-06 0)
(1.547e-06 4.92476e-06 0)
(1.41849e-06 4.92064e-06 0)
(1.80823e-06 5.06086e-06 0)
(1.68071e-06 5.05712e-06 0)
(1.55267e-06 5.05344e-06 0)
(1.42406e-06 5.04984e-06 0)
(1.81325e-06 5.18849e-06 0)
(1.68567e-06 5.1853e-06 0)
(1.55755e-06 5.18217e-06 0)
(1.42886e-06 5.17909e-06 0)
(1.81744e-06 5.31614e-06 0)
(1.68981e-06 5.31351e-06 0)
(1.56164e-06 5.31092e-06 0)
(1.4329e-06 5.30837e-06 0)
(1.82081e-06 5.44381e-06 0)
(1.69315e-06 5.44173e-06 0)
(1.56493e-06 5.43968e-06 0)
(1.43615e-06 5.43766e-06 0)
(1.82335e-06 5.57148e-06 0)
(1.69566e-06 5.56995e-06 0)
(1.56742e-06 5.56843e-06 0)
(1.43861e-06 5.56694e-06 0)
(1.82512e-06 5.69915e-06 0)
(1.69741e-06 5.69816e-06 0)
(1.56914e-06 5.69717e-06 0)
(1.44031e-06 5.69621e-06 0)
(1.82601e-06 5.82692e-06 0)
(1.69829e-06 5.8264e-06 0)
(1.57001e-06 5.82589e-06 0)
(1.44115e-06 5.82539e-06 0)
)
;

boundaryField
{
    plateFix
    {
        type            fixedDisplacement;
        value           uniform (0 0 0);
    }
    plate
    {
        type            solidTraction;
        nonLinear       updatedLagrangian;
        traction        nonuniform List<vector> 
168
(
(-1.25691e-05 5.6896e-05 -3.57095e-20)
(-7.54566e-06 -6.19305e-05 3.61857e-20)
(-0.000141867 -5.91322e-05 4.23142e-20)
(-0.000129814 5.23692e-05 2.67783e-21)
(-0.000589034 -0.000236582 4.04252e-20)
(-0.000563772 0.000227349 1.00039e-23)
(-0.00128831 -0.000380551 -7.65996e-20)
(-0.00124637 0.000370205 -3.88584e-20)
(-0.00218683 -0.000471353 2.20973e-21)
(-0.00212642 0.000460763 3.88477e-20)
(-0.00323501 -0.000511396 3.37634e-20)
(-0.00315538 0.000500948 -8.36051e-24)
(-0.00438157 -0.000513105 3.1401e-20)
(-0.0042828 0.000502768 3.1841e-20)
(-0.00558182 -0.000490745 -5.8007e-20)
(-0.00546447 0.000480192 -3.30805e-20)
(-0.00680087 -0.000456381 2.99516e-20)
(-0.00666568 0.000445117 0)
(-0.00801366 -0.000418789 3.02869e-21)
(-0.00786138 0.000406254 0)
(-0.00920424 -0.000383605 2.74575e-21)
(-0.00903552 0.000369236 -2.76318e-21)
(-0.0103643 -0.000353929 1.98049e-20)
(-0.0101796 0.000337196 -2.00918e-20)
(-0.0114913 -0.000331017 -1.77885e-20)
(-0.0112909 0.000311437 1.80812e-20)
(-0.0125864 -0.000314894 0)
(-0.0123706 0.000292029 4.00727e-21)
(-0.0136527 -0.00030482 0)
(-0.0134218 0.000278273 0)
(-0.0146935 -0.000299608 -3.08064e-21)
(-0.0144481 0.000269022 -1.24957e-20)
(-0.0157106 -0.000297827 0)
(-0.0154517 0.000262895 6.19586e-23)
(-0.0167027 -0.000297852 1.87599e-20)
(-0.0164317 0.000258343 -9.47201e-21)
(-0.0176666 -0.000297901 -1.23046e-20)
(-0.0173861 0.000253713 1.26496e-22)
(-0.0185875 -0.000295753 0)
(-0.0183014 0.000246978 1.43706e-20)
(-0.0194701 -0.000287962 9.42094e-23)
(-0.0191839 0.000235062 1.22142e-20)
(-0.02024 -0.000275347 0)
(-0.0199633 0.000218793 -1.05518e-20)
(-0.0211519 -0.000225719 0)
(-0.0208869 0.000167614 -8.68522e-21)
(-0.02211 -0.00016814 0)
(-0.0218583 0.000106959 8.77479e-21)
(-0.0229171 -0.000157277 1.30069e-22)
(-0.0226921 9.15339e-05 0)
(-0.0236863 -0.000141941 7.96873e-21)
(-0.0234949 7.21619e-05 0)
(-0.0243666 -0.000136239 -8.10489e-21)
(-0.0242189 6.26575e-05 -8.08763e-21)
(-0.0249989 -0.000127238 7.52533e-21)
(-0.0249039 5.02835e-05 8.16062e-21)
(-0.0255605 -0.000119866 -7.77913e-21)
(-0.0255281 3.9956e-05 7.83006e-21)
(-0.026063 -0.000110719 0)
(-0.0261032 2.82775e-05 -7.71728e-21)
(-0.0264964 -0.000101094 7.33412e-21)
(-0.0266193 1.65723e-05 2.36771e-22)
(-0.0268613 -9.0025e-05 -7.2272e-21)
(-0.027077 3.86025e-06 -1.44678e-25)
(-0.0271517 -7.77897e-05 3.40569e-21)
(-0.0274703 -9.56757e-06 1.12549e-22)
(-0.0273645 -6.41196e-05 -3.61932e-21)
(-0.027796 -2.39916e-05 -1.82098e-25)
(-0.0274951 -4.91029e-05 -2.03286e-22)
(-0.028049 -3.93274e-05 -1.06144e-22)
(-0.0275397 -3.27297e-05 3.16931e-21)
(-0.0282253 -5.55989e-05 -1.02761e-22)
(-0.0274947 -1.5118e-05 -3.26362e-21)
(-0.0283206 -7.27026e-05 -3.01002e-21)
(-0.0273571 3.6042e-06 0)
(-0.0283311 -9.05295e-05 6.10428e-21)
(-0.0271244 2.32469e-05 2.62273e-21)
(-0.0282538 -0.000108912 -1.23623e-22)
(-0.0267949 4.35947e-05 -2.94325e-22)
(-0.028086 -0.000127658 -5.79854e-21)
(-0.0263679 6.44009e-05 -2.50788e-21)
(-0.0278259 -0.000146549 4.43285e-23)
(-0.0258435 8.54042e-05 2.32894e-21)
(-0.0274723 -0.000165352 2.62567e-21)
(-0.0252224 0.000106337 -2.40213e-21)
(-0.027025 -0.000183832 7.6028e-23)
(-0.0245066 0.000126939 -2.0042e-21)
(-0.0264844 -0.000201758 -7.23295e-23)
(-0.0236984 0.000146964 2.01035e-21)
(-0.0258516 -0.000218919 -6.82729e-23)
(-0.022801 0.000166195 5.95428e-23)
(-0.0251281 -0.000235128 1.9128e-21)
(-0.0218181 0.000184447 1.68709e-21)
(-0.0243161 -0.000250236 -1.32125e-22)
(-0.0207538 0.00020158 -1.89277e-21)
(-0.0234181 -0.000264129 -1.79337e-21)
(-0.0196125 0.000217501 1.34482e-21)
(-0.0224367 -0.000276744 -1.58961e-21)
(-0.0183985 0.000232165 -1.35304e-21)
(-0.0213746 -0.000288061 1.63946e-21)
(-0.0171162 0.000245577 0)
(-0.0202344 -0.000298105 -1.33906e-21)
(-0.0157698 0.000257791 1.08501e-21)
(-0.0190186 -0.000306948 1.30018e-21)
(-0.0143631 0.000268905 -1.15042e-21)
(-0.0177292 -0.000314696 1.0613e-21)
(-0.0128996 0.000279054 -7.49814e-22)
(-0.016368 -0.000321488 -1.0991e-21)
(-0.0113822 0.000288403 9.69004e-22)
(-0.0149361 -0.000327486 0)
(-0.00981329 0.000297141 -4.44215e-23)
(-0.0134345 -0.000332868 8.09401e-22)
(-0.00819473 0.000305467 0)
(-0.0118634 -0.000337815 -7.59428e-22)
(-0.00652782 0.000313588 -6.56939e-23)
(-0.0102228 -0.000342504 3.75279e-23)
(-0.00481335 0.000321702 -2.76818e-23)
(-0.00851223 -0.0003471 -3.1235e-23)
(-0.00305169 0.000329998 -1.49653e-22)
(-0.0067309 -0.000351748 0)
(-0.00124281 0.000338643 2.61551e-22)
(-0.00487789 -0.000356568 0)
(0.000613599 0.00034778 -1.95537e-22)
(-0.00295217 -0.000361649 0)
(0.00251801 0.000357525 7.32422e-23)
(-0.000952706 -0.000367051 -4.89043e-23)
(0.00447103 0.000367965 -4.31287e-24)
(0.00112141 -0.000372802 4.89591e-23)
(0.00647325 0.000379159 -2.25364e-23)
(0.00327094 -0.000378907 2.49746e-23)
(0.00852524 0.000391147 2.68804e-23)
(0.00549639 -0.000385351 -2.06132e-23)
(0.0106275 0.000403948 9.01874e-23)
(0.00779807 -0.000392111 -9.11405e-23)
(0.0127806 0.000417586 -7.16908e-23)
(0.0101761 -0.000399172 2.10956e-22)
(0.0149848 0.000432089 1.37636e-23)
(0.0126305 -0.00040654 -1.19848e-22)
(0.017241 0.000447535 -7.41477e-23)
(0.0151614 -0.000414281 -6.43782e-23)
(0.0195502 0.000464049 7.31679e-23)
(0.0177695 -0.000422535 8.42086e-23)
(0.0219145 0.000481922 -4.21313e-23)
(0.0204565 -0.000431626 0)
(0.0243374 0.000501599 0)
(0.0232256 -0.000442071 -9.58166e-23)
(0.026825 0.00052409 -4.77238e-23)
(0.0260833 -0.000455 -4.34771e-24)
(0.0293885 0.000551038 -2.4116e-23)
(0.0290415 -0.000472269 -2.29586e-24)
(0.0320451 0.000586841 0)
(0.032119 -0.000498697 1.15464e-22)
(0.034833 0.00063956 0)
(0.0353584 -0.000543051 2.8842e-23)
(0.0377992 0.000737419 4.86386e-23)
(0.0388105 -0.000635834 -5.40895e-23)
(0.0411204 0.000930466 4.53654e-23)
(0.0426737 -0.000829463 2.78321e-23)
(0.0449005 0.00146565 -3.68261e-24)
(0.0470487 -0.0013896 0)
(0.0503657 0.00270896 0)
(0.0533109 -0.00268238 1.07374e-23)
(0.0572721 0.00763274 -1.22515e-23)
(0.0112564 0.00453381 3.12664e-24)
(-0.0016324 -0.00346027 9.42147e-24)
(-0.00136922 0.00514679 0)
(0.0123512 -0.00407652 -5.51172e-25)
(0.0609487 -0.00793667 -1.43672e-24)
)
;
        pressure        nonuniform List<scalar> 
168
(
-0.448938
-0.455383
-0.449499
-0.455938
-0.450135
-0.456572
-0.450775
-0.457214
-0.451346
-0.457791
-0.451768
-0.458227
-0.451993
-0.458471
-0.451991
-0.458496
-0.451749
-0.458288
-0.45126
-0.457841
-0.450523
-0.457153
-0.449535
-0.456223
-0.448289
-0.455045
-0.446773
-0.45361
-0.444967
-0.451899
-0.442843
-0.449887
-0.440365
-0.44754
-0.43749
-0.444818
-0.434172
-0.44168
-0.430344
-0.438062
-0.426009
-0.433969
-0.420947
-0.429188
-0.415461
-0.424018
-0.408651
-0.417597
-0.401716
-0.411064
-0.394197
-0.403976
-0.386394
-0.396619
-0.378135
-0.388823
-0.369522
-0.380683
-0.360503
-0.372144
-0.351113
-0.363235
-0.341344
-0.353942
-0.331213
-0.344278
-0.32073
-0.334244
-0.309913
-0.323853
-0.298782
-0.313119
-0.287363
-0.30206
-0.275684
-0.290699
-0.263777
-0.279062
-0.251679
-0.26718
-0.23943
-0.255088
-0.227071
-0.242822
-0.214647
-0.230423
-0.202204
-0.217933
-0.189786
-0.205396
-0.177441
-0.192855
-0.165212
-0.180354
-0.153143
-0.167936
-0.141274
-0.155641
-0.129642
-0.143509
-0.118281
-0.131575
-0.107221
-0.119872
-0.0964873
-0.108431
-0.0861026
-0.0972757
-0.0760841
-0.0864307
-0.0664458
-0.0759155
-0.057198
-0.0657472
-0.0483484
-0.0559406
-0.0399019
-0.0465087
-0.0318616
-0.0374633
-0.0242293
-0.0288153
-0.0170064
-0.0205758
-0.0101938
-0.012756
-0.00379319
-0.00536809
0.00219262
0.00157421
0.00775947
0.00805567
0.0129012
0.0140589
0.0176095
0.0195645
0.0218733
0.0245501
0.0256792
0.0289914
0.0290099
0.0328605
0.0318456
0.0361271
0.0341615
0.038756
0.035929
0.0407083
0.0371123
0.0419386
0.0376642
0.042387
0.037535
0.0419952
0.0365968
0.0406102
0.0348271
0.0382114
0.0315096
0.0339705
0.0273636
0.0287695
0.0158428
-0.0133401
0.0151562
0.0146826
-0.0170748
0.0150875
)
;
        value           nonuniform List<vector> 
168
(
(3.13321e-08 1.75616e-08 -3.5195e-26)
(2.80819e-08 -1.48638e-08 -1.44858e-27)
(3.09258e-08 2.7962e-08 2.09581e-26)
(2.68716e-08 -2.41903e-08 4.68523e-27)
(3.28289e-08 3.60554e-08 1.58216e-26)
(2.73763e-08 -3.12736e-08 -2.46272e-27)
(3.72755e-08 4.18168e-08 -1.66816e-26)
(2.99541e-08 -3.60251e-08 -1.89123e-26)
(4.40963e-08 4.61047e-08 -1.633e-26)
(3.44973e-08 -3.91025e-08 1.58703e-26)
(5.28264e-08 4.93343e-08 3.01149e-26)
(4.06204e-08 -4.07943e-08 1.6713e-27)
(6.32154e-08 5.19449e-08 -1.41843e-26)
(4.81091e-08 -4.13996e-08 1.4793e-26)
(7.50691e-08 5.42394e-08 -1.13114e-26)
(5.67909e-08 -4.10915e-08 -1.49087e-26)
(8.82898e-08 5.64803e-08 1.44599e-26)
(6.65717e-08 -3.99934e-08 -1.3915e-26)
(1.02826e-07 5.88795e-08 -2.41797e-27)
(7.73938e-08 -3.81664e-08 1.0798e-29)
(1.18668e-07 6.16244e-08 -7.74679e-28)
(8.92334e-08 -3.5628e-08 1.0108e-26)
(1.35832e-07 6.48848e-08 1.11656e-26)
(1.02088e-07 -3.23531e-08 -8.5479e-27)
(1.54357e-07 6.88234e-08 -7.72732e-27)
(1.15973e-07 -2.82788e-08 1.59207e-26)
(1.74296e-07 7.36031e-08 -2.06028e-29)
(1.30919e-07 -2.33063e-08 -5.0881e-27)
(1.95721e-07 7.93946e-08 5.46919e-28)
(1.46966e-07 -1.73013e-08 -6.90178e-28)
(2.18715e-07 8.63838e-08 -6.11212e-27)
(1.64168e-07 -1.00945e-08 -6.61924e-27)
(2.43373e-07 9.4779e-08 5.80624e-27)
(1.82586e-07 -1.48098e-09 6.85418e-27)
(2.698e-07 1.04818e-07 7.05685e-27)
(2.02288e-07 8.78272e-09 -8.35669e-27)
(2.98111e-07 1.16778e-07 -6.1456e-27)
(2.23349e-07 2.09815e-08 1.53165e-27)
(3.28428e-07 1.30978e-07 2.14443e-28)
(2.45848e-07 3.54468e-08 5.69808e-27)
(3.6088e-07 1.47792e-07 1.00843e-27)
(2.69867e-07 5.25639e-08 3.722e-27)
(3.95602e-07 1.67657e-07 -2.75476e-28)
(2.9549e-07 7.27795e-08 1.89433e-27)
(4.3415e-07 1.91973e-07 2.8619e-29)
(3.23844e-07 9.75207e-08 -8.00299e-27)
(4.75255e-07 2.20728e-07 9.10158e-29)
(3.53964e-07 1.26775e-07 7.66774e-27)
(5.16182e-07 2.52227e-07 1.43352e-28)
(3.83835e-07 1.5882e-07 1.90044e-27)
(5.56913e-07 2.86488e-07 4.07533e-27)
(4.13441e-07 1.93673e-07 2.22307e-27)
(5.97429e-07 3.23526e-07 -4.00124e-27)
(4.42765e-07 2.3135e-07 -2.88719e-27)
(6.37709e-07 3.6336e-07 7.62441e-27)
(4.71791e-07 2.71868e-07 -1.61321e-27)
(6.77735e-07 4.06004e-07 -7.01437e-27)
(5.00504e-07 3.15242e-07 7.77184e-27)
(7.17487e-07 4.51474e-07 1.67852e-27)
(5.28889e-07 3.61487e-07 -4.23949e-27)
(7.56944e-07 4.99783e-07 -1.77743e-28)
(5.56932e-07 4.10616e-07 -1.76671e-27)
(7.96086e-07 5.50944e-07 -2.99109e-27)
(5.84619e-07 4.6264e-07 -1.15238e-27)
(8.34893e-07 6.04967e-07 1.57077e-27)
(6.1194e-07 5.17569e-07 1.42537e-27)
(8.73341e-07 6.61859e-07 1.82058e-27)
(6.38883e-07 5.75411e-07 2.14858e-27)
(9.1141e-07 7.21625e-07 -4.80823e-27)
(6.65437e-07 6.36169e-07 -1.5841e-27)
(9.49076e-07 7.84269e-07 -6.58569e-28)
(6.91595e-07 6.99846e-07 5.66156e-27)
(9.86316e-07 8.49786e-07 -3.45839e-27)
(7.17348e-07 7.66437e-07 -5.04386e-27)
(1.02311e-06 9.18173e-07 1.07021e-27)
(7.4269e-07 8.35937e-07 1.42073e-27)
(1.05942e-06 9.89417e-07 8.56482e-27)
(7.67615e-07 9.08334e-07 2.69269e-27)
(1.09524e-06 1.0635e-06 -6.36925e-27)
(7.92119e-07 9.83613e-07 -2.75322e-27)
(1.13054e-06 1.14041e-06 -2.23621e-27)
(8.16196e-07 1.06175e-06 -2.4357e-27)
(1.16529e-06 1.22012e-06 1.94607e-27)
(8.39846e-07 1.14272e-06 1.01503e-27)
(1.19946e-06 1.30259e-06 -5.58704e-27)
(8.63064e-07 1.2265e-06 1.13484e-27)
(1.23303e-06 1.38778e-06 3.76959e-27)
(8.8585e-07 1.31304e-06 -5.03799e-27)
(1.26598e-06 1.47566e-06 5.4642e-27)
(9.08203e-07 1.40229e-06 9.84336e-27)
(1.29827e-06 1.56616e-06 -1.28198e-28)
(9.30122e-07 1.49421e-06 -5.00683e-27)
(1.32989e-06 1.65924e-06 9.59397e-28)
(9.51606e-07 1.58874e-06 -9.85863e-27)
(1.36079e-06 1.75482e-06 -4.67991e-28)
(9.72655e-07 1.68581e-06 4.49471e-27)
(1.39097e-06 1.85284e-06 7.34311e-27)
(9.93269e-07 1.78535e-06 -1.1717e-26)
(1.42039e-06 1.95321e-06 -8.2573e-27)
(1.01345e-06 1.88728e-06 -1.30793e-26)
(1.44903e-06 2.05585e-06 -1.25067e-26)
(1.03318e-06 1.99153e-06 1.28397e-26)
(1.47686e-06 2.16068e-06 1.40959e-26)
(1.05248e-06 2.09799e-06 -4.09029e-26)
(1.50387e-06 2.26759e-06 1.35521e-26)
(1.07134e-06 2.20657e-06 1.39462e-26)
(1.53003e-06 2.37648e-06 -1.5477e-26)
(1.08975e-06 2.31718e-06 5.21e-28)
(1.55532e-06 2.48726e-06 1.60933e-26)
(1.1077e-06 2.4297e-06 -1.66644e-26)
(1.57973e-06 2.59981e-06 7.33733e-28)
(1.12519e-06 2.54403e-06 -1.58284e-26)
(1.60324e-06 2.71402e-06 -3.57806e-26)
(1.14222e-06 2.66006e-06 1.66625e-26)
(1.62583e-06 2.82978e-06 1.75675e-26)
(1.15877e-06 2.77768e-06 -1.85577e-26)
(1.6475e-06 2.94699e-06 3.71875e-26)
(1.17483e-06 2.89677e-06 -1.22653e-28)
(1.66823e-06 3.06552e-06 -7.5559e-29)
(1.19039e-06 3.01722e-06 -1.96158e-26)
(1.68803e-06 3.18527e-06 1.94837e-26)
(1.20545e-06 3.13892e-06 2.11376e-26)
(1.70687e-06 3.30612e-06 2.06755e-26)
(1.21997e-06 3.26176e-06 -2.19412e-26)
(1.72476e-06 3.42798e-06 2.15311e-26)
(1.23396e-06 3.38563e-06 6.73663e-26)
(1.74169e-06 3.55074e-06 -2.30674e-26)
(1.2474e-06 3.51042e-06 -2.31171e-26)
(1.75767e-06 3.67429e-06 1.19274e-27)
(1.26026e-06 3.63603e-06 -2.47062e-26)
(1.7727e-06 3.79855e-06 -3.24752e-28)
(1.27254e-06 3.76237e-06 2.41013e-26)
(1.78677e-06 3.92342e-06 -2.65679e-26)
(1.28422e-06 3.88934e-06 -6.20312e-28)
(1.7999e-06 4.04881e-06 -1.64502e-27)
(1.29528e-06 4.01685e-06 2.66518e-26)
(1.81209e-06 4.17466e-06 2.66833e-26)
(1.3057e-06 4.14482e-06 1.36645e-28)
(1.82335e-06 4.30087e-06 -5.56529e-26)
(1.31548e-06 4.27318e-06 2.70161e-28)
(1.83369e-06 4.42739e-06 5.76658e-26)
(1.32458e-06 4.40186e-06 -2.79894e-26)
(1.84311e-06 4.55416e-06 -5.92511e-26)
(1.33301e-06 4.53079e-06 5.89348e-26)
(1.85163e-06 4.68112e-06 6.09436e-26)
(1.34073e-06 4.65992e-06 2.98216e-26)
(1.85927e-06 4.80823e-06 -3.02613e-26)
(1.34774e-06 4.7892e-06 1.05611e-28)
(1.86602e-06 4.93545e-06 -6.3467e-26)
(1.35402e-06 4.91859e-06 3.18567e-26)
(1.87191e-06 5.06274e-06 3.20389e-26)
(1.35955e-06 5.04805e-06 -6.5747e-26)
(1.87695e-06 5.19008e-06 3.32177e-26)
(1.36433e-06 5.17756e-06 3.42775e-26)
(1.88114e-06 5.31746e-06 -6.9648e-26)
(1.36835e-06 5.3071e-06 3.45893e-26)
(1.88451e-06 5.44485e-06 -3.62477e-26)
(1.37159e-06 5.43666e-06 -7.12863e-26)
(1.88705e-06 5.57225e-06 -8.47062e-28)
(1.37405e-06 5.56619e-06 -3.66728e-26)
(1.88883e-06 5.69964e-06 1.10692e-25)
(1.37576e-06 5.69574e-06 7.42307e-26)
(1.88977e-06 5.82717e-06 1.9478e-28)
(1.82618e-06 5.89086e-06 -1.87457e-28)
(1.69847e-06 5.89052e-06 1.13794e-26)
(1.57018e-06 5.89027e-06 3.47029e-30)
(1.4413e-06 5.88995e-06 -1.87956e-26)
(1.37664e-06 5.82515e-06 -7.57066e-26)
)
;
    }
    frontAndBackPlanes
    {
        type            empty;
    }
}


// ************************************************************************* //
