/*--------------------------------*- C++ -*----------------------------------*\
| =========                 |                                                 |
| \\      /  F ield         | OpenFOAM Extend Project: Open source CFD        |
|  \\    /   O peration     | Version:  1.6-ext                               |
|   \\  /    A nd           | Web:      www.extend-project.de                 |
|    \\/     M anipulation  |                                                 |
\*---------------------------------------------------------------------------*/
FoamFile
{
    version     2.0;
    format      ascii;
    class       volVectorField;
    location    "0.7";
    object      DU_0;
}
// * * * * * * * * * * * * * * * * * * * * * * * * * * * * * * * * * * * * * //

dimensions      [0 1 0 0 0 0 0];

internalField   nonuniform List<vector> 
328
(
(3.47223e-09 6.50622e-09 0)
(2.18164e-09 1.12994e-09 0)
(2.05013e-09 -1.47552e-09 0)
(2.88862e-09 -5.97155e-09 0)
(1.05967e-08 1.66845e-08 0)
(7.22634e-09 3.45217e-09 0)
(6.76925e-09 -4.15598e-09 0)
(8.77868e-09 -1.53188e-08 0)
(1.88679e-08 2.43187e-08 0)
(1.39981e-08 5.81162e-09 0)
(1.30746e-08 -6.52621e-09 0)
(1.55911e-08 -2.22005e-08 0)
(2.78987e-08 2.98822e-08 0)
(2.19281e-08 8.02842e-09 0)
(2.04658e-08 -8.38874e-09 0)
(2.30081e-08 -2.69512e-08 0)
(3.78045e-08 3.39636e-08 0)
(3.11257e-08 1.0047e-08 0)
(2.90472e-08 -9.66255e-09 0)
(3.11294e-08 -3.00203e-08 0)
(4.85423e-08 3.70233e-08 0)
(4.14087e-08 1.18732e-08 0)
(3.86554e-08 -1.03017e-08 0)
(3.99221e-08 -3.17444e-08 0)
(6.01707e-08 3.94492e-08 0)
(5.27566e-08 1.35776e-08 0)
(4.92699e-08 -1.03078e-08 0)
(4.94369e-08 -3.23903e-08 0)
(7.2732e-08 4.15463e-08 0)
(6.51052e-08 1.52633e-08 0)
(6.08291e-08 -9.69346e-09 0)
(5.97098e-08 -3.21413e-08 0)
(8.62922e-08 4.35692e-08 0)
(7.84424e-08 1.70577e-08 0)
(7.3318e-08 -8.47509e-09 0)
(7.07946e-08 -3.1122e-08 0)
(1.00918e-07 4.57311e-08 0)
(9.27654e-08 1.90979e-08 0)
(8.67299e-08 -6.65601e-09 0)
(8.27441e-08 -2.94013e-08 0)
(1.1668e-07 4.82195e-08 0)
(1.08099e-07 2.15261e-08 0)
(1.01084e-07 -4.21951e-09 0)
(9.56145e-08 -2.70022e-08 0)
(1.33655e-07 5.12045e-08 0)
(1.24487e-07 2.44863e-08 0)
(1.16418e-07 -1.12193e-09 0)
(1.09462e-07 -2.39049e-08 0)
(1.51919e-07 5.48483e-08 0)
(1.4199e-07 2.81254e-08 0)
(1.32785e-07 2.71032e-09 0)
(1.24345e-07 -2.00498e-08 0)
(1.71555e-07 5.93126e-08 0)
(1.60684e-07 3.25966e-08 0)
(1.50254e-07 7.38287e-09 0)
(1.40322e-07 -1.53398e-08 0)
(1.92648e-07 6.4767e-08 0)
(1.8066e-07 3.80647e-08 0)
(1.68906e-07 1.30343e-08 0)
(1.57455e-07 -9.64077e-09 0)
(2.15292e-07 7.13964e-08 0)
(2.02014e-07 4.47128e-08 0)
(1.88829e-07 1.98373e-08 0)
(1.75812e-07 -2.78243e-09 0)
(2.39585e-07 7.9409e-08 0)
(2.24853e-07 5.27489e-08 0)
(2.10119e-07 2.80001e-08 0)
(1.95463e-07 5.44287e-09 0)
(2.65634e-07 8.90449e-08 0)
(2.49284e-07 6.24135e-08 0)
(2.32874e-07 3.77694e-08 0)
(2.16482e-07 1.52821e-08 0)
(2.93552e-07 1.00583e-07 0)
(2.75423e-07 7.39874e-08 0)
(2.57196e-07 4.94342e-08 0)
(2.38951e-07 2.70253e-08 0)
(3.23459e-07 1.14351e-07 0)
(3.03386e-07 8.77993e-08 0)
(2.83191e-07 6.33316e-08 0)
(2.62951e-07 4.10109e-08 0)
(3.55482e-07 1.30732e-07 0)
(3.33292e-07 1.04234e-07 0)
(3.10964e-07 7.98542e-08 0)
(2.88573e-07 5.7633e-08 0)
(3.89752e-07 1.50173e-07 0)
(3.65262e-07 1.23743e-07 0)
(3.40623e-07 9.94584e-08 0)
(3.15904e-07 7.735e-08 0)
(4.27803e-07 1.74077e-07 0)
(4.00722e-07 1.47734e-07 0)
(3.73484e-07 1.23561e-07 0)
(3.46149e-07 1.01585e-07 0)
(4.68379e-07 2.02475e-07 0)
(4.38496e-07 1.76239e-07 0)
(4.08446e-07 1.52196e-07 0)
(3.78283e-07 1.30372e-07 0)
(5.08779e-07 2.33712e-07 0)
(4.76065e-07 2.07597e-07 0)
(4.43176e-07 1.83695e-07 0)
(4.10159e-07 1.62031e-07 0)
(5.48977e-07 2.67812e-07 0)
(5.13411e-07 2.41832e-07 0)
(4.7766e-07 2.18083e-07 0)
(4.41766e-07 1.96588e-07 0)
(5.88952e-07 3.04796e-07 0)
(5.50512e-07 2.78966e-07 0)
(5.1188e-07 2.55381e-07 0)
(4.73088e-07 2.34065e-07 0)
(6.28679e-07 3.44684e-07 0)
(5.87349e-07 3.19017e-07 0)
(5.45819e-07 2.95609e-07 0)
(5.04115e-07 2.7448e-07 0)
(6.68136e-07 3.8749e-07 0)
(6.23904e-07 3.62002e-07 0)
(5.79463e-07 3.3878e-07 0)
(5.34832e-07 3.17848e-07 0)
(7.073e-07 4.33226e-07 0)
(6.60155e-07 4.0793e-07 0)
(6.12795e-07 3.84908e-07 0)
(5.65228e-07 3.6418e-07 0)
(7.46147e-07 4.819e-07 0)
(6.96084e-07 4.5681e-07 0)
(6.45799e-07 4.33998e-07 0)
(5.95291e-07 4.13484e-07 0)
(7.84654e-07 5.33514e-07 0)
(7.31672e-07 5.08646e-07 0)
(6.7846e-07 4.86055e-07 0)
(6.2501e-07 4.65762e-07 0)
(8.228e-07 5.8807e-07 0)
(7.669e-07 5.63436e-07 0)
(7.10763e-07 5.41078e-07 0)
(6.54373e-07 5.21014e-07 0)
(8.6056e-07 6.45562e-07 0)
(8.01749e-07 6.21178e-07 0)
(7.42694e-07 5.99062e-07 0)
(6.83371e-07 5.79236e-07 0)
(8.97914e-07 7.05983e-07 0)
(8.36201e-07 6.81862e-07 0)
(7.74238e-07 6.60001e-07 0)
(7.11991e-07 6.40419e-07 0)
(9.34838e-07 7.69321e-07 0)
(8.70238e-07 7.45477e-07 0)
(8.0538e-07 7.2388e-07 0)
(7.40225e-07 7.0455e-07 0)
(9.71311e-07 8.35559e-07 0)
(9.03842e-07 8.12005e-07 0)
(8.36108e-07 7.90683e-07 0)
(7.68062e-07 7.71613e-07 0)
(1.00731e-06 9.04678e-07 0)
(9.36995e-07 8.81427e-07 0)
(8.66408e-07 8.60391e-07 0)
(7.95494e-07 8.41587e-07 0)
(1.04282e-06 9.76653e-07 0)
(9.69679e-07 9.53719e-07 0)
(8.96265e-07 9.32978e-07 0)
(8.2251e-07 9.14447e-07 0)
(1.07781e-06 1.05146e-06 0)
(1.00188e-06 1.02885e-06 0)
(9.25668e-07 1.00842e-06 0)
(8.49102e-07 9.90165e-07 0)
(1.11226e-06 1.12905e-06 0)
(1.03358e-06 1.10679e-06 0)
(9.54604e-07 1.08667e-06 0)
(8.75262e-07 1.06871e-06 0)
(1.14616e-06 1.20941e-06 0)
(1.06476e-06 1.18751e-06 0)
(9.83059e-07 1.16771e-06 0)
(9.00981e-07 1.15004e-06 0)
(1.17948e-06 1.29249e-06 0)
(1.0954e-06 1.27095e-06 0)
(1.01102e-06 1.25149e-06 0)
(9.26251e-07 1.23412e-06 0)
(1.2122e-06 1.37823e-06 0)
(1.12549e-06 1.35708e-06 0)
(1.03848e-06 1.33796e-06 0)
(9.51065e-07 1.3209e-06 0)
(1.2443e-06 1.46661e-06 0)
(1.15501e-06 1.44585e-06 0)
(1.06542e-06 1.42708e-06 0)
(9.75415e-07 1.41033e-06 0)
(1.27576e-06 1.55755e-06 0)
(1.18395e-06 1.5372e-06 0)
(1.09184e-06 1.5188e-06 0)
(9.99294e-07 1.50236e-06 0)
(1.30656e-06 1.651e-06 0)
(1.21229e-06 1.63107e-06 0)
(1.11772e-06 1.61304e-06 0)
(1.02269e-06 1.59692e-06 0)
(1.33668e-06 1.7469e-06 0)
(1.24002e-06 1.7274e-06 0)
(1.14304e-06 1.70975e-06 0)
(1.04561e-06 1.69397e-06 0)
(1.36611e-06 1.84517e-06 0)
(1.26711e-06 1.82612e-06 0)
(1.16781e-06 1.80887e-06 0)
(1.06803e-06 1.79341e-06 0)
(1.39481e-06 1.94576e-06 0)
(1.29356e-06 1.92717e-06 0)
(1.192e-06 1.91031e-06 0)
(1.08995e-06 1.8952e-06 0)
(1.42277e-06 2.04857e-06 0)
(1.31935e-06 2.03045e-06 0)
(1.2156e-06 2.01401e-06 0)
(1.11137e-06 1.99924e-06 0)
(1.44998e-06 2.15354e-06 0)
(1.34446e-06 2.1359e-06 0)
(1.23861e-06 2.11987e-06 0)
(1.13227e-06 2.10547e-06 0)
(1.47642e-06 2.26057e-06 0)
(1.36888e-06 2.24343e-06 0)
(1.26101e-06 2.22783e-06 0)
(1.15265e-06 2.21378e-06 0)
(1.50206e-06 2.36958e-06 0)
(1.39259e-06 2.35294e-06 0)
(1.2828e-06 2.33778e-06 0)
(1.17249e-06 2.3241e-06 0)
(1.52689e-06 2.48048e-06 0)
(1.41559e-06 2.46436e-06 0)
(1.30395e-06 2.44964e-06 0)
(1.1918e-06 2.43634e-06 0)
(1.5509e-06 2.59317e-06 0)
(1.43785e-06 2.57758e-06 0)
(1.32447e-06 2.56332e-06 0)
(1.21055e-06 2.5504e-06 0)
(1.57407e-06 2.70757e-06 0)
(1.45937e-06 2.69251e-06 0)
(1.34433e-06 2.67872e-06 0)
(1.22875e-06 2.66619e-06 0)
(1.5964e-06 2.82357e-06 0)
(1.48014e-06 2.80906e-06 0)
(1.36353e-06 2.79573e-06 0)
(1.24638e-06 2.78361e-06 0)
(1.61785e-06 2.94107e-06 0)
(1.50013e-06 2.92712e-06 0)
(1.38206e-06 2.91428e-06 0)
(1.26343e-06 2.90256e-06 0)
(1.63844e-06 3.05998e-06 0)
(1.51935e-06 3.0466e-06 0)
(1.3999e-06 3.03425e-06 0)
(1.27989e-06 3.02295e-06 0)
(1.65814e-06 3.18021e-06 0)
(1.53777e-06 3.16739e-06 0)
(1.41705e-06 3.15554e-06 0)
(1.29575e-06 3.14467e-06 0)
(1.67694e-06 3.30165e-06 0)
(1.5554e-06 3.28941e-06 0)
(1.43349e-06 3.27807e-06 0)
(1.31101e-06 3.26762e-06 0)
(1.69484e-06 3.42421e-06 0)
(1.57222e-06 3.41255e-06 0)
(1.44922e-06 3.40172e-06 0)
(1.32564e-06 3.39172e-06 0)
(1.71184e-06 3.54779e-06 0)
(1.58823e-06 3.53673e-06 0)
(1.46422e-06 3.52641e-06 0)
(1.33964e-06 3.51686e-06 0)
(1.72793e-06 3.6723e-06 0)
(1.60341e-06 3.66183e-06 0)
(1.47849e-06 3.65204e-06 0)
(1.35299e-06 3.64295e-06 0)
(1.74309e-06 3.79766e-06 0)
(1.61777e-06 3.78779e-06 0)
(1.49203e-06 3.77853e-06 0)
(1.3657e-06 3.76989e-06 0)
(1.75735e-06 3.92376e-06 0)
(1.63129e-06 3.91449e-06 0)
(1.50481e-06 3.90577e-06 0)
(1.37773e-06 3.89761e-06 0)
(1.77068e-06 4.05054e-06 0)
(1.64397e-06 4.04187e-06 0)
(1.51683e-06 4.03369e-06 0)
(1.3891e-06 4.026e-06 0)
(1.78309e-06 4.1779e-06 0)
(1.65582e-06 4.16983e-06 0)
(1.5281e-06 4.16219e-06 0)
(1.39978e-06 4.15499e-06 0)
(1.79458e-06 4.30577e-06 0)
(1.66681e-06 4.29831e-06 0)
(1.53859e-06 4.29121e-06 0)
(1.40976e-06 4.2845e-06 0)
(1.80515e-06 4.43407e-06 0)
(1.67696e-06 4.42721e-06 0)
(1.5483e-06 4.42067e-06 0)
(1.41904e-06 4.41446e-06 0)
(1.81482e-06 4.56274e-06 0)
(1.68627e-06 4.55648e-06 0)
(1.55724e-06 4.55049e-06 0)
(1.4276e-06 4.54478e-06 0)
(1.82357e-06 4.69171e-06 0)
(1.69473e-06 4.68605e-06 0)
(1.56539e-06 4.68061e-06 0)
(1.43544e-06 4.67541e-06 0)
(1.83142e-06 4.82092e-06 0)
(1.70234e-06 4.81585e-06 0)
(1.57274e-06 4.81097e-06 0)
(1.44254e-06 4.80628e-06 0)
(1.83838e-06 4.95031e-06 0)
(1.7091e-06 4.94584e-06 0)
(1.5793e-06 4.94151e-06 0)
(1.44889e-06 4.93734e-06 0)
(1.84444e-06 5.07985e-06 0)
(1.71502e-06 5.07596e-06 0)
(1.58506e-06 5.07219e-06 0)
(1.45448e-06 5.06854e-06 0)
(1.84963e-06 5.20948e-06 0)
(1.72009e-06 5.20618e-06 0)
(1.59001e-06 5.20296e-06 0)
(1.45931e-06 5.19984e-06 0)
(1.85394e-06 5.33917e-06 0)
(1.72433e-06 5.33645e-06 0)
(1.59415e-06 5.33379e-06 0)
(1.46337e-06 5.3312e-06 0)
(1.8574e-06 5.4689e-06 0)
(1.72773e-06 5.46676e-06 0)
(1.59749e-06 5.46466e-06 0)
(1.46664e-06 5.4626e-06 0)
(1.85998e-06 5.59865e-06 0)
(1.73028e-06 5.59708e-06 0)
(1.6e-06 5.59553e-06 0)
(1.4691e-06 5.59402e-06 0)
(1.86174e-06 5.7284e-06 0)
(1.73203e-06 5.7274e-06 0)
(1.60173e-06 5.7264e-06 0)
(1.4708e-06 5.72543e-06 0)
(1.86257e-06 5.85823e-06 0)
(1.73288e-06 5.85773e-06 0)
(1.60257e-06 5.85722e-06 0)
(1.47162e-06 5.85675e-06 0)
)
;

boundaryField
{
    plateFix
    {
        type            fixedDisplacement;
        value           uniform (0 0 0);
    }
    plate
    {
        type            solidTraction;
        nonLinear       updatedLagrangian;
        traction        uniform (0 0 0);
        pressure        uniform 0;
        value           nonuniform List<vector> 
168
(
(3.20332e-08 1.79501e-08 2.94912e-26)
(2.91315e-08 -1.545e-08 1.56506e-26)
(3.14573e-08 2.85334e-08 -1.64839e-26)
(2.78107e-08 -2.50872e-08 1.78497e-26)
(3.32845e-08 3.67488e-08 -9.84826e-29)
(2.83263e-08 -3.24189e-08 -1.6286e-26)
(3.77193e-08 4.25659e-08 -1.80471e-26)
(3.10012e-08 -3.73565e-08 -1.83905e-27)
(4.45797e-08 4.68586e-08 1.72779e-26)
(3.5711e-08 -4.05848e-08 2.21364e-27)
(5.33882e-08 5.00498e-08 -2.81979e-26)
(4.20512e-08 -4.24073e-08 1.90735e-27)
(6.38881e-08 5.25859e-08 3.95839e-26)
(4.97971e-08 -4.31373e-08 -1.62855e-26)
(7.58809e-08 5.47734e-08 2.85866e-28)
(5.87682e-08 -4.29577e-08 2.10197e-26)
(8.92672e-08 5.6877e-08 -1.22103e-27)
(6.88657e-08 -4.19998e-08 1.59689e-27)
(1.03995e-07 5.91094e-08 -8.01679e-27)
(8.00285e-08 -4.03307e-08 -9.8642e-28)
(1.20054e-07 6.16584e-08 3.48719e-27)
(9.22306e-08 -3.7973e-08 -1.06013e-26)
(1.37464e-07 6.46931e-08 -1.23027e-26)
(1.05468e-07 -3.49052e-08 2.66118e-27)
(1.56263e-07 6.83757e-08 7.48972e-27)
(1.19755e-07 -3.10675e-08 -7.82727e-27)
(1.76509e-07 7.28682e-08 8.37731e-28)
(1.35119e-07 -2.63631e-08 8.85531e-27)
(1.98277e-07 7.8341e-08 -1.13371e-28)
(1.51603e-07 -2.06587e-08 -2.01201e-27)
(2.21652e-07 8.49801e-08 7.29512e-28)
(1.69257e-07 -1.37853e-08 1.96618e-27)
(2.46734e-07 9.29951e-08 3.58646e-28)
(1.88142e-07 -5.53621e-09 -9.95454e-27)
(2.73633e-07 1.02627e-07 9.95176e-27)
(2.08326e-07 4.33442e-09 -8.9027e-28)
(3.02467e-07 1.14155e-07 -4.20225e-27)
(2.29883e-07 1.6116e-08 7.85861e-27)
(3.33364e-07 1.27906e-07 1.27454e-27)
(2.52893e-07 3.01467e-08 5.38763e-27)
(3.66456e-07 1.44264e-07 -2.77893e-27)
(2.77436e-07 4.68207e-08 -1.50979e-28)
(4.01884e-07 1.63675e-07 3.85503e-27)
(3.03598e-07 6.65966e-08 -1.12351e-26)
(4.41237e-07 1.87539e-07 1.34236e-27)
(3.32526e-07 9.09014e-08 6.57202e-27)
(4.83221e-07 2.15887e-07 -3.81677e-27)
(3.63235e-07 1.19766e-07 -4.58407e-27)
(5.25041e-07 2.47066e-07 3.69091e-27)
(3.93673e-07 1.51509e-07 -2.48351e-30)
(5.66672e-07 2.81101e-07 -1.60577e-27)
(4.23829e-07 1.86153e-07 1.76493e-29)
(6.08089e-07 3.18013e-07 1.82146e-27)
(4.53692e-07 2.23721e-07 3.1975e-27)
(6.49268e-07 3.5782e-07 -6.58188e-27)
(4.8325e-07 2.64232e-07 5.15602e-27)
(6.90183e-07 4.00539e-07 2.08129e-28)
(5.12492e-07 3.07699e-07 -5.25011e-27)
(7.30809e-07 4.4618e-07 3.38545e-27)
(5.41408e-07 3.54134e-07 2.28138e-27)
(7.71122e-07 4.9475e-07 1.19075e-27)
(5.69988e-07 4.03545e-07 -4.13309e-28)
(8.11096e-07 5.46254e-07 -1.3119e-27)
(5.98223e-07 4.55934e-07 -3.47137e-27)
(8.50707e-07 6.00692e-07 -3.72393e-27)
(6.26103e-07 5.113e-07 2.08513e-27)
(8.8993e-07 6.58059e-07 2.03411e-27)
(6.53621e-07 5.6964e-07 -4.83261e-27)
(9.28742e-07 7.18348e-07 3.40102e-27)
(6.80767e-07 6.30944e-07 2.82138e-27)
(9.67117e-07 7.81546e-07 -1.41133e-28)
(7.07533e-07 6.952e-07 4.30645e-28)
(1.00503e-06 8.47638e-07 3.51501e-27)
(7.33912e-07 7.6239e-07 8.96188e-28)
(1.04246e-06 9.16602e-07 1.4889e-27)
(7.59897e-07 8.32495e-07 2.60338e-27)
(1.07939e-06 9.88416e-07 1.52488e-27)
(7.85479e-07 9.05489e-07 -5.43932e-27)
(1.11578e-06 1.06305e-06 -4.80582e-27)
(8.10653e-07 9.81344e-07 6.66289e-27)
(1.15162e-06 1.14047e-06 2.22601e-27)
(8.35412e-07 1.06003e-06 -6.77577e-27)
(1.18689e-06 1.22065e-06 -1.2318e-27)
(8.5975e-07 1.1415e-06 7.39803e-27)
(1.22155e-06 1.30353e-06 -7.32664e-27)
(8.83661e-07 1.22572e-06 -2.96722e-27)
(1.2556e-06 1.38909e-06 4.01783e-27)
(9.0714e-07 1.31265e-06 7.66355e-27)
(1.289e-06 1.47726e-06 -1.30132e-28)
(9.30181e-07 1.40223e-06 -1.02991e-26)
(1.32173e-06 1.56799e-06 3.09356e-28)
(9.52779e-07 1.49441e-06 1.13023e-27)
(1.35377e-06 1.66122e-06 -6.84381e-29)
(9.7493e-07 1.58913e-06 9.26781e-27)
(1.3851e-06 1.7569e-06 1.09546e-26)
(9.96628e-07 1.68633e-06 -4.96065e-27)
(1.41569e-06 1.85494e-06 5.66473e-27)
(1.01787e-06 1.78594e-06 1.07016e-26)
(1.44553e-06 1.95529e-06 -1.123e-26)
(1.03865e-06 1.88789e-06 7.48008e-27)
(1.47459e-06 2.05786e-06 1.24243e-26)
(1.05896e-06 1.9921e-06 -7.06016e-27)
(1.50286e-06 2.16258e-06 -1.35993e-26)
(1.07879e-06 2.09849e-06 -6.75144e-27)
(1.53031e-06 2.26936e-06 6.3239e-27)
(1.09815e-06 2.20698e-06 -1.00729e-28)
(1.55692e-06 2.3781e-06 1.66392e-26)
(1.11702e-06 2.31747e-06 -1.59049e-26)
(1.58267e-06 2.48873e-06 -4.46587e-28)
(1.13539e-06 2.42989e-06 -1.55474e-26)
(1.60756e-06 2.60115e-06 1.0696e-27)
(1.15326e-06 2.54413e-06 -7.07228e-28)
(1.63156e-06 2.71527e-06 -3.40095e-26)
(1.17063e-06 2.66011e-06 -1.72631e-26)
(1.65466e-06 2.83098e-06 -1.86388e-26)
(1.18747e-06 2.77772e-06 1.76002e-26)
(1.67685e-06 2.9482e-06 5.7163e-26)
(1.20378e-06 2.89686e-06 1.09778e-29)
(1.69812e-06 3.06682e-06 -1.94593e-26)
(1.21955e-06 3.01744e-06 -8.91626e-29)
(1.71845e-06 3.18675e-06 5.16277e-28)
(1.23477e-06 3.13937e-06 2.08202e-26)
(1.73784e-06 3.30789e-06 -2.38749e-28)
(1.24943e-06 3.26253e-06 2.21133e-26)
(1.75628e-06 3.43015e-06 -4.4683e-28)
(1.26351e-06 3.38684e-06 2.20925e-26)
(1.77376e-06 3.55342e-06 2.31562e-26)
(1.27701e-06 3.51219e-06 -2.30813e-26)
(1.79029e-06 3.67763e-06 -4.71144e-26)
(1.28991e-06 3.6385e-06 7.17774e-26)
(1.80586e-06 3.80268e-06 1.09114e-27)
(1.3022e-06 3.76567e-06 -2.4367e-26)
(1.82046e-06 3.92847e-06 -7.56373e-26)
(1.31388e-06 3.89361e-06 2.59151e-26)
(1.8341e-06 4.05494e-06 7.85904e-28)
(1.32491e-06 4.02223e-06 2.69271e-26)
(1.84678e-06 4.18199e-06 5.52156e-26)
(1.33531e-06 4.15146e-06 -7.26953e-29)
(1.85851e-06 4.30955e-06 -2.87855e-26)
(1.34505e-06 4.2812e-06 5.63177e-26)
(1.86928e-06 4.43755e-06 2.84691e-26)
(1.35411e-06 4.4114e-06 -2.83922e-26)
(1.87911e-06 4.56591e-06 -7.23763e-29)
(1.3625e-06 4.54196e-06 2.83336e-28)
(1.88799e-06 4.69457e-06 6.12036e-26)
(1.37019e-06 4.67284e-06 -3.03342e-26)
(1.89595e-06 4.82347e-06 -2.64105e-28)
(1.37717e-06 4.80396e-06 3.11092e-26)
(1.90298e-06 4.95257e-06 3.17182e-26)
(1.38343e-06 4.93528e-06 1.37633e-28)
(1.9091e-06 5.0818e-06 -3.25753e-26)
(1.38896e-06 5.06673e-06 -2.18351e-28)
(1.91433e-06 5.21114e-06 5.85501e-29)
(1.39374e-06 5.19829e-06 -3.47407e-26)
(1.91867e-06 5.34054e-06 -3.53978e-26)
(1.39775e-06 5.32992e-06 3.40855e-26)
(1.92213e-06 5.46998e-06 3.51815e-26)
(1.401e-06 5.46159e-06 -1.5292e-28)
(1.92472e-06 5.59944e-06 3.6906e-26)
(1.40345e-06 5.59326e-06 3.62759e-26)
(1.9265e-06 5.72889e-06 -3.6908e-26)
(1.40515e-06 5.72496e-06 7.81435e-30)
(1.92737e-06 5.85847e-06 7.67615e-26)
(1.8627e-06 5.92316e-06 -2.45667e-26)
(1.73305e-06 5.92285e-06 1.12204e-26)
(1.60273e-06 5.92263e-06 1.02105e-26)
(1.47175e-06 5.92239e-06 -1.94008e-26)
(1.40598e-06 5.85652e-06 -7.6533e-26)
)
;
    }
    frontAndBackPlanes
    {
        type            empty;
    }
}


// ************************************************************************* //
