/*--------------------------------*- C++ -*----------------------------------*\
| =========                 |                                                 |
| \\      /  F ield         | OpenFOAM Extend Project: Open source CFD        |
|  \\    /   O peration     | Version:  1.6-ext                               |
|   \\  /    A nd           | Web:      www.extend-project.de                 |
|    \\/     M anipulation  |                                                 |
\*---------------------------------------------------------------------------*/
FoamFile
{
    version     2.0;
    format      ascii;
    class       volVectorField;
    location    "0.7";
    object      DV;
}
// * * * * * * * * * * * * * * * * * * * * * * * * * * * * * * * * * * * * * //

dimensions      [0 1 -1 0 0 0 0];

internalField   nonuniform List<vector> 
328
(
(-1.0099e-07 -2.79865e-07 0)
(-6.52913e-08 -5.87303e-08 0)
(-7.29353e-08 6.9205e-08 0)
(-1.41633e-07 3.43196e-07 0)
(-3.02726e-07 -6.85012e-07 0)
(-2.23232e-07 -1.53366e-07 0)
(-2.49862e-07 2.10244e-07 0)
(-4.26942e-07 8.65009e-07 0)
(-5.37222e-07 -9.47821e-07 0)
(-4.49788e-07 -2.23654e-07 0)
(-5.03446e-07 3.55648e-07 0)
(-7.5591e-07 1.24615e-06 0)
(-7.93633e-07 -1.10009e-06 0)
(-7.19105e-07 -2.609e-07 0)
(-8.03466e-07 4.97566e-07 0)
(-1.11226e-06 1.52587e-06 0)
(-1.07549e-06 -1.16812e-06 0)
(-1.0354e-06 -2.62594e-07 0)
(-1.15397e-06 6.34614e-07 0)
(-1.49946e-06 1.7384e-06 0)
(-1.382e-06 -1.16986e-06 0)
(-1.39026e-06 -2.27525e-07 0)
(-1.54495e-06 7.68115e-07 0)
(-1.91487e-06 1.9088e-06 0)
(-1.7156e-06 -1.11861e-06 0)
(-1.78243e-06 -1.56636e-07 0)
(-1.9746e-06 9.02264e-07 0)
(-2.36003e-06 2.05703e-06 0)
(-2.07835e-06 -1.02318e-06 0)
(-2.2088e-06 -5.11759e-08 0)
(-2.43907e-06 1.04237e-06 0)
(-2.83578e-06 2.19807e-06 0)
(-2.47309e-06 -8.89534e-07 0)
(-2.66862e-06 8.74271e-08 0)
(-2.93713e-06 1.19439e-06 0)
(-3.34379e-06 2.34367e-06 0)
(-2.90271e-06 -7.21283e-07 0)
(-3.16156e-06 2.58195e-07 0)
(-3.46791e-06 1.36411e-06 0)
(-3.88554e-06 2.50293e-06 0)
(-3.37037e-06 -5.20428e-07 0)
(-3.68857e-06 4.60644e-07 0)
(-4.03181e-06 1.55683e-06 0)
(-4.46254e-06 2.68293e-06 0)
(-3.87939e-06 -2.87772e-07 0)
(-4.25135e-06 6.94827e-07 0)
(-4.62992e-06 1.77701e-06 0)
(-5.07615e-06 2.88909e-06 0)
(-4.43334e-06 -2.33974e-08 0)
(-4.85249e-06 9.61135e-07 0)
(-5.26407e-06 2.02812e-06 0)
(-5.72762e-06 3.12538e-06 0)
(-5.03608e-06 2.72935e-07 0)
(-5.49518e-06 1.26004e-06 0)
(-5.9366e-06 2.31251e-06 0)
(-6.41809e-06 3.39442e-06 0)
(-5.69178e-06 6.01351e-07 0)
(-6.18314e-06 1.59176e-06 0)
(-6.65024e-06 2.63134e-06 0)
(-7.1487e-06 3.6975e-06 0)
(-6.40499e-06 9.61447e-07 0)
(-6.92047e-06 1.95584e-06 0)
(-7.408e-06 2.98442e-06 0)
(-7.9206e-06 4.03453e-06 0)
(-7.18058e-06 1.35187e-06 0)
(-7.71156e-06 2.35082e-06 0)
(-8.21305e-06 3.37014e-06 0)
(-8.73503e-06 4.40399e-06 0)
(-8.02375e-06 1.76994e-06 0)
(-8.56095e-06 2.77381e-06 0)
(-9.06871e-06 3.78527e-06 0)
(-9.59342e-06 4.80273e-06 0)
(-8.93994e-06 2.21124e-06 0)
(-9.47335e-06 3.22017e-06 0)
(-9.97837e-06 4.22476e-06 0)
(-1.04974e-05 5.22581e-06 0)
(-9.93479e-06 2.6693e-06 0)
(-1.04535e-05 3.68314e-06 0)
(-1.09456e-05 4.68145e-06 0)
(-1.14489e-05 5.66622e-06 0)
(-1.1014e-05 3.13517e-06 0)
(-1.15063e-05 4.15347e-06 0)
(-1.19739e-05 5.14576e-06 0)
(-1.24502e-05 6.11452e-06 0)
(-1.21832e-05 3.59711e-06 0)
(-1.26365e-05 4.61903e-06 0)
(-1.30673e-05 5.60527e-06 0)
(-1.35039e-05 6.55841e-06 0)
(-1.34962e-05 4.05709e-06 0)
(-1.38951e-05 5.08131e-06 0)
(-1.42738e-05 6.06085e-06 0)
(-1.46554e-05 6.99819e-06 0)
(-1.49108e-05 4.4713e-06 0)
(-1.52407e-05 5.49595e-06 0)
(-1.55528e-05 6.46817e-06 0)
(-1.58644e-05 7.39029e-06 0)
(-1.63304e-05 4.79773e-06 0)
(-1.65828e-05 5.82079e-06 0)
(-1.68198e-05 6.78559e-06 0)
(-1.70531e-05 7.6943e-06 0)
(-1.77506e-05 5.02917e-06 0)
(-1.79198e-05 6.04867e-06 0)
(-1.80755e-05 7.0059e-06 0)
(-1.82245e-05 7.90296e-06 0)
(-1.91673e-05 5.16107e-06 0)
(-1.92496e-05 6.17497e-06 0)
(-1.93207e-05 7.12445e-06 0)
(-1.93819e-05 8.01152e-06 0)
(-2.05759e-05 5.19147e-06 0)
(-2.05706e-05 6.1977e-06 0)
(-2.05559e-05 7.1392e-06 0)
(-2.05284e-05 8.01787e-06 0)
(-2.19724e-05 5.12111e-06 0)
(-2.18808e-05 6.11765e-06 0)
(-2.17818e-05 7.05088e-06 0)
(-2.1667e-05 7.92266e-06 0)
(-2.33525e-05 4.95343e-06 0)
(-2.31786e-05 5.93832e-06 0)
(-2.29988e-05 6.86298e-06 0)
(-2.28005e-05 7.72922e-06 0)
(-2.47125e-05 4.69443e-06 0)
(-2.44622e-05 5.66586e-06 0)
(-2.42073e-05 6.58163e-06 0)
(-2.39316e-05 7.44352e-06 0)
(-2.60487e-05 4.35253e-06 0)
(-2.573e-05 5.30884e-06 0)
(-2.54078e-05 6.21538e-06 0)
(-2.50626e-05 7.0739e-06 0)
(-2.73582e-05 3.93817e-06 0)
(-2.69806e-05 4.87794e-06 0)
(-2.66003e-05 5.77489e-06 0)
(-2.61952e-05 6.63076e-06 0)
(-2.86383e-05 3.46346e-06 0)
(-2.82129e-05 4.38551e-06 0)
(-2.77849e-05 5.27251e-06 0)
(-2.73308e-05 6.12617e-06 0)
(-2.98872e-05 2.94175e-06 0)
(-2.94256e-05 3.84516e-06 0)
(-2.89614e-05 4.72183e-06 0)
(-2.84701e-05 5.57345e-06 0)
(-3.11033e-05 2.38715e-06 0)
(-3.06179e-05 3.27127e-06 0)
(-3.01296e-05 4.13722e-06 0)
(-2.96135e-05 4.98667e-06 0)
(-3.22858e-05 1.81407e-06 0)
(-3.17893e-05 2.67854e-06 0)
(-3.12889e-05 3.53337e-06 0)
(-3.07606e-05 4.38022e-06 0)
(-3.34345e-05 1.23681e-06 0)
(-3.2939e-05 2.08151e-06 0)
(-3.24386e-05 2.92482e-06 0)
(-3.19103e-05 3.76838e-06 0)
(-3.45496e-05 6.69129e-07 0)
(-3.40669e-05 1.4942e-06 0)
(-3.35779e-05 2.32556e-06 0)
(-3.30614e-05 3.16489e-06 0)
(-3.56317e-05 1.23915e-07 0)
(-3.51728e-05 9.29688e-07 0)
(-3.47057e-05 1.74871e-06 0)
(-3.4212e-05 2.58261e-06 0)
(-3.66821e-05 -3.87155e-07 0)
(-3.62566e-05 3.99867e-07 0)
(-3.5821e-05 1.20612e-06 0)
(-3.53597e-05 2.03324e-06 0)
(-3.77021e-05 -8.53863e-07 0)
(-3.73184e-05 -8.48846e-08 0)
(-3.69223e-05 7.08181e-07 0)
(-3.6502e-05 1.52697e-06 0)
(-3.86935e-05 -1.26768e-06 0)
(-3.83583e-05 -5.15897e-07 0)
(-3.80085e-05 2.63572e-07 0)
(-3.76358e-05 1.07237e-06 0)
(-3.96585e-05 -1.62195e-06 0)
(-3.93768e-05 -8.86402e-07 0)
(-3.90781e-05 -1.20937e-07 0)
(-3.8758e-05 6.76085e-07 0)
(-4.0599e-05 -1.91203e-06 0)
(-4.0374e-05 -1.19168e-06 0)
(-4.01294e-05 -4.40616e-07 0)
(-3.98652e-05 3.42796e-07 0)
(-4.15176e-05 -2.13541e-06 0)
(-4.13504e-05 -1.42916e-06 0)
(-4.11612e-05 -6.92887e-07 0)
(-4.0954e-05 7.50453e-08 0)
(-4.24165e-05 -2.29176e-06 0)
(-4.23064e-05 -1.59849e-06 0)
(-4.21717e-05 -8.77391e-07 0)
(-4.20208e-05 -1.26804e-07 0)
(-4.32982e-05 -2.38296e-06 0)
(-4.32424e-05 -1.70158e-06 0)
(-4.31595e-05 -9.96006e-07 0)
(-4.30622e-05 -2.64591e-07 0)
(-4.41651e-05 -2.41308e-06 0)
(-4.41588e-05 -1.74251e-06 0)
(-4.41232e-05 -1.05282e-06 0)
(-4.40747e-05 -3.42327e-07 0)
(-4.50192e-05 -2.38828e-06 0)
(-4.50559e-05 -1.72754e-06 0)
(-4.50612e-05 -1.05405e-06 0)
(-4.50551e-05 -3.66118e-07 0)
(-4.58627e-05 -2.31669e-06 0)
(-4.59342e-05 -1.66488e-06 0)
(-4.59722e-05 -1.00789e-06 0)
(-4.60003e-05 -3.44029e-07 0)
(-4.66973e-05 -2.20822e-06 0)
(-4.67938e-05 -1.56457e-06 0)
(-4.68551e-05 -9.24373e-07 0)
(-4.69077e-05 -2.85905e-07 0)
(-4.75245e-05 -2.07434e-06 0)
(-4.7635e-05 -1.43824e-06 0)
(-4.77087e-05 -8.15087e-07 0)
(-4.77748e-05 -2.03154e-07 0)
(-4.83456e-05 -1.92786e-06 0)
(-4.84579e-05 -1.29885e-06 0)
(-4.85322e-05 -6.92965e-07 0)
(-4.85995e-05 -1.08493e-07 0)
(-4.91613e-05 -1.78259e-06 0)
(-4.92625e-05 -1.16039e-06 0)
(-4.93245e-05 -5.71993e-07 0)
(-4.93802e-05 -1.56812e-08 0)
(-4.99721e-05 -1.65313e-06 0)
(-5.00486e-05 -1.03764e-06 0)
(-5.00852e-05 -4.66923e-07 0)
(-5.01157e-05 6.07634e-08 0)
(-5.07782e-05 -1.55453e-06 0)
(-5.08161e-05 -9.45871e-07 0)
(-5.08138e-05 -3.92985e-07 0)
(-5.08053e-05 1.05856e-07 0)
(-5.15792e-05 -1.502e-06 0)
(-5.15648e-05 -9.00489e-07 0)
(-5.15099e-05 -3.65582e-07 0)
(-5.14486e-05 1.0444e-07 0)
(-5.23744e-05 -1.51062e-06 0)
(-5.22941e-05 -9.16784e-07 0)
(-5.21734e-05 -3.99982e-07 0)
(-5.20458e-05 4.14951e-08 0)
(-5.31627e-05 -1.595e-06 0)
(-5.30035e-05 -1.00958e-06 0)
(-5.28044e-05 -5.10995e-07 0)
(-5.25975e-05 -9.75511e-08 0)
(-5.39426e-05 -1.76896e-06 0)
(-5.36924e-05 -1.19292e-06 0)
(-5.34029e-05 -7.12649e-07 0)
(-5.31046e-05 -3.26495e-07 0)
(-5.47122e-05 -2.04522e-06 0)
(-5.43599e-05 -1.47971e-06 0)
(-5.39695e-05 -1.01786e-06 0)
(-5.35687e-05 -6.58039e-07 0)
(-5.54691e-05 -2.43508e-06 0)
(-5.50053e-05 -1.88145e-06 0)
(-5.45045e-05 -1.43811e-06 0)
(-5.39917e-05 -1.10348e-06 0)
(-5.62109e-05 -2.94818e-06 0)
(-5.56275e-05 -2.40794e-06 0)
(-5.50085e-05 -1.9832e-06 0)
(-5.43757e-05 -1.67247e-06 0)
(-5.69346e-05 -3.59225e-06 0)
(-5.62255e-05 -3.06706e-06 0)
(-5.54822e-05 -2.66104e-06 0)
(-5.47231e-05 -2.37277e-06 0)
(-5.76372e-05 -4.37298e-06 0)
(-5.6798e-05 -3.86464e-06 0)
(-5.59264e-05 -3.47747e-06 0)
(-5.50366e-05 -3.21012e-06 0)
(-5.83153e-05 -5.29395e-06 0)
(-5.73438e-05 -4.80438e-06 0)
(-5.63417e-05 -4.4362e-06 0)
(-5.5319e-05 -4.18817e-06 0)
(-5.89654e-05 -6.35648e-06 0)
(-5.78616e-05 -5.88768e-06 0)
(-5.67292e-05 -5.53868e-06 0)
(-5.55734e-05 -5.30834e-06 0)
(-5.95841e-05 -7.55954e-06 0)
(-5.83501e-05 -7.11362e-06 0)
(-5.70894e-05 -6.78401e-06 0)
(-5.58026e-05 -6.56973e-06 0)
(-6.01674e-05 -8.89959e-06 0)
(-5.88077e-05 -8.47864e-06 0)
(-5.74233e-05 -8.16869e-06 0)
(-5.60097e-05 -7.96895e-06 0)
(-6.07117e-05 -1.03703e-05 0)
(-5.9233e-05 -9.97645e-06 0)
(-5.77314e-05 -9.68649e-06 0)
(-5.61975e-05 -9.49991e-06 0)
(-6.12133e-05 -1.19626e-05 0)
(-5.96245e-05 -1.15978e-05 0)
(-5.80142e-05 -1.13282e-05 0)
(-5.63687e-05 -1.11537e-05 0)
(-6.16689e-05 -1.36646e-05 0)
(-5.99806e-05 -1.33306e-05 0)
(-5.8272e-05 -1.30819e-05 0)
(-5.65253e-05 -1.29188e-05 0)
(-6.20757e-05 -1.54619e-05 0)
(-6.03001e-05 -1.51603e-05 0)
(-5.85047e-05 -1.49333e-05 0)
(-5.66684e-05 -1.47814e-05 0)
(-6.24315e-05 -1.7339e-05 0)
(-6.05815e-05 -1.70713e-05 0)
(-5.87118e-05 -1.68666e-05 0)
(-5.67982e-05 -1.67263e-05 0)
(-6.27346e-05 -1.928e-05 0)
(-6.08236e-05 -1.90477e-05 0)
(-5.88922e-05 -1.88664e-05 0)
(-5.69138e-05 -1.87387e-05 0)
(-6.29835e-05 -2.12705e-05 0)
(-6.10249e-05 -2.10753e-05 0)
(-5.90447e-05 -2.09188e-05 0)
(-5.70134e-05 -2.08053e-05 0)
(-6.31759e-05 -2.32979e-05 0)
(-6.11833e-05 -2.31421e-05 0)
(-5.91673e-05 -2.30121e-05 0)
(-5.70948e-05 -2.29151e-05 0)
(-6.3309e-05 -2.53512e-05 0)
(-6.1297e-05 -2.52381e-05 0)
(-5.92581e-05 -2.51372e-05 0)
(-5.7155e-05 -2.50603e-05 0)
(-6.33756e-05 -2.742e-05 0)
(-6.13614e-05 -2.73533e-05 0)
(-5.9313e-05 -2.72835e-05 0)
(-5.71907e-05 -2.72319e-05 0)
(-6.33709e-05 -2.94952e-05 0)
(-6.13775e-05 -2.94751e-05 0)
(-5.93316e-05 -2.94388e-05 0)
(-5.71989e-05 -2.94226e-05 0)
(-6.32805e-05 -3.15569e-05 0)
(-6.13373e-05 -3.15746e-05 0)
(-5.92998e-05 -3.15732e-05 0)
(-5.71646e-05 -3.16041e-05 0)
)
;

boundaryField
{
    plateFix
    {
        type            calculated;
        value           uniform (0 0 0);
    }
    plate
    {
        type            calculated;
        value           nonuniform List<vector> 
168
(
(-1.37974e-06 -7.68707e-07 -1.26843e-22)
(-1.72395e-06 9.58931e-07 -4.97787e-23)
(-1.10107e-06 -1.14606e-06 8.28639e-23)
(-1.51065e-06 1.46109e-06 -2.87724e-23)
(-9.99917e-07 -1.41513e-06 1.58775e-23)
(-1.49907e-06 1.8529e-06 3.86254e-23)
(-1.0223e-06 -1.56824e-06 2.03594e-23)
(-1.6302e-06 2.13249e-06 -2.38735e-23)
(-1.14394e-06 -1.63737e-06 -7.78344e-23)
(-1.87649e-06 2.34345e-06 1.82726e-23)
(-1.33936e-06 -1.63933e-06 1.15966e-22)
(-2.20778e-06 2.5095e-06 -2.23609e-24)
(-1.59519e-06 -1.58905e-06 -1.13918e-22)
(-2.60746e-06 2.65299e-06 6.90603e-23)
(-1.90243e-06 -1.49518e-06 -1.75627e-23)
(-3.06326e-06 2.78886e-06 -9.022e-23)
(-2.25667e-06 -1.36374e-06 1.89351e-23)
(-3.56796e-06 2.92913e-06 -1.22726e-23)
(-2.65586e-06 -1.19815e-06 2.33389e-23)
(-4.11671e-06 3.0827e-06 3.15351e-24)
(-3.09997e-06 -1.00032e-06 -8.69643e-24)
(-4.70662e-06 3.25658e-06 3.62705e-23)
(-3.59028e-06 -7.70931e-07 4.62976e-23)
(-5.33582e-06 3.45605e-06 -1.74474e-23)
(-4.12921e-06 -5.10016e-07 -2.97555e-23)
(-6.00326e-06 3.68503e-06 3.92262e-23)
(-4.72007e-06 -2.17309e-07 -2.58232e-24)
(-6.70834e-06 3.94613e-06 -2.52908e-23)
(-5.36701e-06 1.07328e-07 1.38696e-24)
(-7.4509e-06 4.2407e-06 7.31296e-24)
(-6.0748e-06 4.63509e-07 -8.27842e-24)
(-8.23111e-06 4.56874e-06 -1.71097e-23)
(-6.84878e-06 8.4992e-07 2.83562e-24)
(-9.04947e-06 4.92883e-06 3.14673e-23)
(-7.69469e-06 1.26394e-06 -1.15082e-23)
(-9.90677e-06 5.31798e-06 -8.22783e-24)
(-8.61856e-06 1.70125e-06 2.28056e-24)
(-1.08042e-05 5.73135e-06 -1.73016e-23)
(-9.62655e-06 2.15548e-06 4.55903e-25)
(-1.17431e-05 6.16208e-06 -7.07724e-24)
(-1.07249e-05 2.61787e-06 2.27409e-24)
(-1.27255e-05 6.60088e-06 1.13562e-23)
(-1.19196e-05 3.07681e-06 -7.93403e-24)
(-1.37535e-05 7.03553e-06 2.97241e-23)
(-1.32661e-05 3.53461e-06 -2.67244e-24)
(-1.48707e-05 7.46605e-06 -2.90461e-23)
(-1.47217e-05 3.94769e-06 1.05691e-23)
(-1.6038e-05 7.84931e-06 2.49518e-23)
(-1.61863e-05 4.27417e-06 -8.9667e-24)
(-1.71809e-05 8.1456e-06 2.54919e-24)
(-1.76545e-05 4.50685e-06 1.07245e-23)
(-1.83037e-05 8.34767e-06 3.7546e-24)
(-1.91207e-05 4.64124e-06 -8.66923e-24)
(-1.94108e-05 8.45072e-06 -1.01197e-23)
(-2.05792e-05 4.67537e-06 2.29035e-23)
(-2.05066e-05 8.45261e-06 -1.49297e-23)
(-2.20244e-05 4.60998e-06 -1.09666e-23)
(-2.15956e-05 8.35392e-06 1.88719e-23)
(-2.34508e-05 4.44846e-06 -4.4252e-24)
(-2.26819e-05 8.15791e-06 -8.41784e-24)
(-2.48535e-05 4.19674e-06 -1.95763e-24)
(-2.37694e-05 7.87046e-06 -1.75297e-24)
(-2.62277e-05 3.8631e-06 -1.89747e-24)
(-2.48614e-05 7.49974e-06 3.17448e-24)
(-2.75695e-05 3.45785e-06 9.91789e-24)
(-2.59608e-05 7.05602e-06 -3.41432e-24)
(-2.88756e-05 2.99295e-06 -2.04032e-25)
(-2.70695e-05 6.55119e-06 1.33999e-23)
(-3.01436e-05 2.48156e-06 -1.36783e-23)
(-2.81889e-05 5.99837e-06 -5.85509e-24)
(-3.13717e-05 1.93762e-06 -5.28331e-25)
(-2.93195e-05 5.41144e-06 5.08985e-24)
(-3.2559e-05 1.37536e-06 -1.41588e-23)
(-3.04609e-05 4.80461e-06 -9.47131e-24)
(-3.37055e-05 8.08927e-07 5.38283e-25)
(-3.16121e-05 4.19198e-06 -3.76732e-24)
(-3.48117e-05 2.51915e-07 6.61374e-24)
(-3.27712e-05 3.58714e-06 1.56228e-23)
(-3.58789e-05 -2.82931e-07 1.44271e-25)
(-3.3936e-05 3.0028e-06 -1.88101e-23)
(-3.69088e-05 -7.84052e-07 -5.88492e-24)
(-3.51035e-05 2.45053e-06 7.63145e-24)
(-3.79036e-05 -1.24134e-06 5.31246e-24)
(-3.62702e-05 1.94043e-06 -1.25563e-23)
(-3.88662e-05 -1.64634e-06 8.22037e-24)
(-3.74322e-05 1.48096e-06 8.29945e-24)
(-3.97994e-05 -1.99248e-06 -2.17414e-24)
(-3.85855e-05 1.07873e-06 -2.72529e-23)
(-4.07065e-05 -2.27517e-06 6.22497e-24)
(-3.97256e-05 7.3837e-07 3.8237e-23)
(-4.15909e-05 -2.49191e-06 1.20146e-24)
(-4.0848e-05 4.62393e-07 -1.17936e-23)
(-4.24561e-05 -2.64239e-06 1.63324e-24)
(-4.1948e-05 2.51171e-07 -2.50398e-23)
(-4.33056e-05 -2.7285e-06 -1.93802e-23)
(-4.30211e-05 1.02889e-07 1.33015e-23)
(-4.41427e-05 -2.75425e-06 -3.23546e-25)
(-4.40628e-05 1.35828e-08 -3.85121e-23)
(-4.49709e-05 -2.72576e-06 4.00269e-24)
(-4.50688e-05 -2.27823e-08 -3.46078e-23)
(-4.57928e-05 -2.6511e-06 -4.74121e-23)
(-4.60351e-05 -1.41816e-08 3.97823e-23)
(-4.66113e-05 -2.54008e-06 5.14571e-23)
(-4.69582e-05 2.96473e-08 -4.79404e-23)
(-4.74286e-05 -2.40409e-06 1.15167e-23)
(-4.78349e-05 9.74207e-08 7.03952e-24)
(-4.82463e-05 -2.2558e-06 -5.27418e-23)
(-4.86626e-05 1.76556e-07 4.38025e-23)
(-4.90658e-05 -2.10892e-06 1.32699e-23)
(-4.94393e-05 2.53437e-07 1.93354e-24)
(-4.9888e-05 -1.97792e-06 3.26495e-24)
(-5.01632e-05 3.13699e-07 -2.66845e-23)
(-5.07129e-05 -1.87771e-06 5.62586e-24)
(-5.08337e-05 3.42511e-07 5.94643e-23)
(-5.15404e-05 -1.82336e-06 4.98498e-23)
(-5.14502e-05 3.24874e-07 -5.8548e-23)
(-5.23696e-05 -1.82981e-06 -5.8614e-23)
(-5.20131e-05 2.45926e-07 -4.87107e-24)
(-5.31991e-05 -1.91153e-06 4.39165e-23)
(-5.25233e-05 9.1251e-08 -2.92082e-23)
(-5.40268e-05 -2.08219e-06 3.35516e-23)
(-5.29823e-05 -1.52797e-07 -4.71198e-24)
(-5.48504e-05 -2.35439e-06 2.09262e-23)
(-5.33921e-05 -4.98779e-07 -8.77003e-23)
(-5.56666e-05 -2.73929e-06 3.87568e-23)
(-5.37554e-05 -9.57874e-07 6.23682e-23)
(-5.64722e-05 -3.24642e-06 -8.09137e-23)
(-5.40752e-05 -1.53961e-06 -8.99165e-26)
(-5.72632e-05 -3.88341e-06 1.01867e-22)
(-5.43548e-05 -2.25168e-06 -1.80723e-22)
(-5.80356e-05 -4.65588e-06 -8.73415e-24)
(-5.45979e-05 -3.09975e-06 9.72975e-23)
(-5.8785e-05 -5.56731e-06 1.11451e-22)
(-5.48085e-05 -4.08742e-06 -4.61793e-23)
(-5.95068e-05 -6.61897e-06 -4.06123e-24)
(-5.49905e-05 -5.21608e-06 -2.05449e-23)
(-6.01962e-05 -7.80979e-06 -6.37538e-23)
(-5.51481e-05 -6.48482e-06 2.07182e-23)
(-6.08482e-05 -9.13618e-06 -2.59016e-23)
(-5.52857e-05 -7.89028e-06 -1.05017e-22)
(-6.14576e-05 -1.05919e-05 2.21997e-23)
(-5.54074e-05 -9.42647e-06 5.15317e-25)
(-6.20194e-05 -1.21678e-05 -7.3864e-23)
(-5.55172e-05 -1.10847e-05 8.0264e-23)
(-6.2529e-05 -1.38522e-05 -4.60592e-23)
(-5.56183e-05 -1.28536e-05 1.05374e-22)
(-6.29827e-05 -1.5631e-05 -3.69695e-23)
(-5.57128e-05 -1.47198e-05 -6.19971e-23)
(-6.33779e-05 -1.74887e-05 -1.58667e-22)
(-5.58011e-05 -1.66685e-05 6.35042e-23)
(-6.3713e-05 -1.94098e-05 1.04798e-22)
(-5.5882e-05 -1.86852e-05 -8.9788e-23)
(-6.39876e-05 -2.13794e-05 5.82193e-23)
(-5.59525e-05 -2.07571e-05 1.04099e-22)
(-6.42002e-05 -2.33849e-05 -5.997e-23)
(-5.6009e-05 -2.28737e-05 1.26818e-24)
(-6.43496e-05 -2.54147e-05 -1.06877e-22)
(-5.60473e-05 -2.5028e-05 -9.74806e-23)
(-6.44294e-05 -2.74577e-05 -8.42321e-23)
(-5.60635e-05 -2.72117e-05 -1.27424e-22)
(-6.444e-05 -2.95064e-05 2.30487e-22)
(-5.60502e-05 -2.94226e-05 1.20662e-22)
(-6.43523e-05 -3.15488e-05 -1.535e-22)
(-6.31976e-05 -3.25462e-05 4.85473e-23)
(-6.13053e-05 -3.25821e-05 -5.43813e-24)
(-5.92666e-05 -3.26111e-05 -2.30605e-23)
(-5.71422e-05 -3.2703e-05 1.31032e-23)
(-5.59885e-05 -3.162e-05 4.90995e-23)
)
;
    }
    frontAndBackPlanes
    {
        type            empty;
    }
}


// ************************************************************************* //
