/*--------------------------------*- C++ -*----------------------------------*\
| =========                 |                                                 |
| \\      /  F ield         | OpenFOAM Extend Project: Open source CFD        |
|  \\    /   O peration     | Version:  1.6-ext                               |
|   \\  /    A nd           | Web:      www.extend-project.de                 |
|    \\/     M anipulation  |                                                 |
\*---------------------------------------------------------------------------*/
FoamFile
{
    version     2.0;
    format      ascii;
    class       volVectorField;
    location    "0.7";
    object      DV_0;
}
// * * * * * * * * * * * * * * * * * * * * * * * * * * * * * * * * * * * * * //

dimensions      [0 1 -1 0 0 0 0];

internalField   nonuniform List<vector> 
328
(
(8.39486e-09 4.85452e-08 0)
(-9.56151e-09 1.00355e-08 0)
(-1.76699e-08 5.75141e-09 0)
(-3.24413e-08 2.31452e-08 0)
(2.36859e-08 1.21622e-07 0)
(-2.69985e-08 3.98886e-08 0)
(-5.52082e-08 3.21786e-08 0)
(-1.00974e-07 7.86636e-08 0)
(4.0368e-08 1.80614e-07 0)
(-4.18001e-08 8.22336e-08 0)
(-9.82967e-08 7.47449e-08 0)
(-1.78707e-07 1.45549e-07 0)
(5.70194e-08 2.38845e-07 0)
(-5.8099e-08 1.38047e-07 0)
(-1.46252e-07 1.33875e-07 0)
(-2.62483e-07 2.21023e-07 0)
(7.29906e-08 3.05302e-07 0)
(-7.62769e-08 2.08952e-07 0)
(-1.99307e-07 2.09909e-07 0)
(-3.52747e-07 3.07231e-07 0)
(8.74566e-08 3.86112e-07 0)
(-9.76244e-08 2.97129e-07 0)
(-2.57232e-07 3.03973e-07 0)
(-4.48624e-07 4.06872e-07 0)
(9.97699e-08 4.8546e-07 0)
(-1.2248e-07 4.0487e-07 0)
(-3.19995e-07 4.17459e-07 0)
(-5.4978e-07 5.22574e-07 0)
(1.09144e-07 6.06279e-07 0)
(-1.51316e-07 5.34468e-07 0)
(-3.87404e-07 5.52114e-07 0)
(-6.55618e-07 6.56819e-07 0)
(1.14692e-07 7.50857e-07 0)
(-1.84424e-07 6.88078e-07 0)
(-4.59277e-07 7.09828e-07 0)
(-7.65578e-07 8.12014e-07 0)
(1.15368e-07 9.21124e-07 0)
(-2.22167e-07 8.67693e-07 0)
(-5.35364e-07 8.92575e-07 0)
(-8.78968e-07 9.90502e-07 0)
(1.09983e-07 1.11879e-06 0)
(-2.64947e-07 1.0751e-06 0)
(-6.15422e-07 1.10226e-06 0)
(-9.95027e-07 1.1945e-06 0)
(9.71913e-08 1.34536e-06 0)
(-3.13261e-07 1.31185e-06 0)
(-6.99204e-07 1.34065e-06 0)
(-1.11289e-06 1.42603e-06 0)
(7.55073e-08 1.60208e-06 0)
(-3.67704e-07 1.57917e-06 0)
(-7.8649e-07 1.60917e-06 0)
(-1.23159e-06 1.68676e-06 0)
(4.32963e-08 1.88982e-06 0)
(-4.2897e-07 1.87792e-06 0)
(-8.77082e-07 1.90886e-06 0)
(-1.35008e-06 1.9779e-06 0)
(-1.21274e-09 2.20898e-06 0)
(-4.97858e-07 2.2084e-06 0)
(-9.70807e-07 2.24017e-06 0)
(-1.46723e-06 2.30009e-06 0)
(-5.99362e-08 2.55926e-06 0)
(-5.75253e-07 2.57024e-06 0)
(-1.06751e-06 2.60277e-06 0)
(-1.58185e-06 2.65315e-06 0)
(-1.34918e-07 2.93943e-06 0)
(-6.62128e-07 2.96211e-06 0)
(-1.16707e-06 2.9954e-06 0)
(-1.69265e-06 3.03596e-06 0)
(-2.28338e-07 3.3471e-06 0)
(-7.59515e-07 3.38149e-06 0)
(-1.26933e-06 3.41552e-06 0)
(-1.79833e-06 3.44611e-06 0)
(-3.42481e-07 3.77827e-06 0)
(-8.68506e-07 3.82426e-06 0)
(-1.37418e-06 3.859e-06 0)
(-1.8975e-06 3.87959e-06 0)
(-4.79714e-07 4.22692e-06 0)
(-9.90216e-07 4.28425e-06 0)
(-1.48151e-06 4.31964e-06 0)
(-1.98878e-06 4.33034e-06 0)
(-6.42425e-07 4.68448e-06 0)
(-1.12577e-06 4.75268e-06 0)
(-1.59118e-06 4.78864e-06 0)
(-2.07075e-06 4.7897e-06 0)
(-8.32859e-07 5.13914e-06 0)
(-1.27623e-06 5.21757e-06 0)
(-1.70312e-06 5.25399e-06 0)
(-2.14217e-06 5.24585e-06 0)
(-1.06157e-06 5.59188e-06 0)
(-1.44897e-06 5.67999e-06 0)
(-1.82166e-06 5.71681e-06 0)
(-2.20412e-06 5.69989e-06 0)
(-1.32318e-06 5.99833e-06 0)
(-1.63904e-06 6.09476e-06 0)
(-1.94212e-06 6.13191e-06 0)
(-2.25235e-06 6.10741e-06 0)
(-1.59767e-06 6.31606e-06 0)
(-1.83285e-06 6.41856e-06 0)
(-2.05729e-06 6.45585e-06 0)
(-2.28614e-06 6.42568e-06 0)
(-1.88095e-06 6.53693e-06 0)
(-2.02891e-06 6.64322e-06 0)
(-2.16825e-06 6.68048e-06 0)
(-2.30919e-06 6.64657e-06 0)
(-2.16879e-06 6.65568e-06 0)
(-2.22571e-06 6.76349e-06 0)
(-2.27616e-06 6.80058e-06 0)
(-2.32538e-06 6.76488e-06 0)
(-2.45701e-06 6.67016e-06 0)
(-2.42178e-06 6.77727e-06 0)
(-2.38216e-06 6.81404e-06 0)
(-2.33859e-06 6.77848e-06 0)
(-2.74151e-06 6.58128e-06 0)
(-2.61566e-06 6.68557e-06 0)
(-2.4874e-06 6.72188e-06 0)
(-2.3526e-06 6.68833e-06 0)
(-3.01846e-06 6.39288e-06 0)
(-2.80603e-06 6.49237e-06 0)
(-2.59295e-06 6.5281e-06 0)
(-2.37095e-06 6.49826e-06 0)
(-3.28438e-06 6.11148e-06 0)
(-2.99165e-06 6.20439e-06 0)
(-2.69977e-06 6.23941e-06 0)
(-2.39689e-06 6.21482e-06 0)
(-3.53623e-06 5.74594e-06 0)
(-3.17146e-06 5.83073e-06 0)
(-2.80872e-06 5.86493e-06 0)
(-2.43322e-06 5.84687e-06 0)
(-3.77148e-06 5.30709e-06 0)
(-3.34454e-06 5.38248e-06 0)
(-2.9205e-06 5.41574e-06 0)
(-2.48228e-06 5.40527e-06 0)
(-3.98815e-06 4.80731e-06 0)
(-3.51018e-06 4.87231e-06 0)
(-3.03564e-06 4.90451e-06 0)
(-2.54588e-06 4.90239e-06 0)
(-4.18479e-06 4.26009e-06 0)
(-3.66786e-06 4.314e-06 0)
(-3.15453e-06 4.34504e-06 0)
(-2.62529e-06 4.35176e-06 0)
(-4.36054e-06 3.67965e-06 0)
(-3.81724e-06 3.72203e-06 0)
(-3.27735e-06 3.75181e-06 0)
(-2.72126e-06 3.76759e-06 0)
(-4.51508e-06 3.08047e-06 0)
(-3.95817e-06 3.11119e-06 0)
(-3.40416e-06 3.13962e-06 0)
(-2.83399e-06 3.16441e-06 0)
(-4.64861e-06 2.47696e-06 0)
(-4.09068e-06 2.49615e-06 0)
(-3.53483e-06 2.52314e-06 0)
(-2.96319e-06 2.55664e-06 0)
(-4.76183e-06 1.88309e-06 0)
(-4.21497e-06 1.89114e-06 0)
(-3.66908e-06 1.91662e-06 0)
(-3.1081e-06 1.9583e-06 0)
(-4.85589e-06 1.31206e-06 0)
(-4.3314e-06 1.30959e-06 0)
(-3.80651e-06 1.3335e-06 0)
(-3.26747e-06 1.38259e-06 0)
(-4.93238e-06 7.76001e-07 0)
(-4.44048e-06 7.63849e-07 0)
(-3.94655e-06 7.86132e-07 0)
(-3.4397e-06 8.41673e-07 0)
(-4.99325e-06 2.85693e-07 0)
(-4.54282e-06 2.64891e-07 0)
(-4.08852e-06 2.85492e-07 0)
(-3.62275e-06 3.46345e-07 0)
(-5.04079e-06 -1.49691e-07 0)
(-4.63917e-06 -1.77944e-07 0)
(-4.23165e-06 -1.59074e-07 0)
(-3.81429e-06 -9.42123e-08 0)
(-5.07758e-06 -5.22821e-07 0)
(-4.73034e-06 -5.57185e-07 0)
(-4.37504e-06 -5.40091e-07 0)
(-4.01165e-06 -4.72659e-07 0)
(-5.10641e-06 -8.28404e-07 0)
(-4.81723e-06 -8.67434e-07 0)
(-4.5177e-06 -8.52162e-07 0)
(-4.21195e-06 -7.83705e-07 0)
(-5.13026e-06 -1.06336e-06 0)
(-4.90078e-06 -1.10554e-06 0)
(-4.65859e-06 -1.09213e-06 0)
(-4.41209e-06 -1.02427e-06 0)
(-5.15218e-06 -1.22693e-06 0)
(-4.98193e-06 -1.2707e-06 0)
(-4.79661e-06 -1.25922e-06 0)
(-4.60887e-06 -1.19361e-06 0)
(-5.17525e-06 -1.32077e-06 0)
(-5.06165e-06 -1.36459e-06 0)
(-4.93063e-06 -1.35508e-06 0)
(-4.79903e-06 -1.29338e-06 0)
(-5.20248e-06 -1.34892e-06 0)
(-5.14083e-06 -1.39128e-06 0)
(-5.05953e-06 -1.38381e-06 0)
(-4.97937e-06 -1.32764e-06 0)
(-5.23671e-06 -1.31777e-06 0)
(-5.22033e-06 -1.35726e-06 0)
(-5.18221e-06 -1.35188e-06 0)
(-5.14677e-06 -1.30277e-06 0)
(-5.2806e-06 -1.23593e-06 0)
(-5.30094e-06 -1.27126e-06 0)
(-5.29763e-06 -1.26804e-06 0)
(-5.29834e-06 -1.22739e-06 0)
(-5.33648e-06 -1.11404e-06 0)
(-5.38331e-06 -1.14408e-06 0)
(-5.40484e-06 -1.14306e-06 0)
(-5.43146e-06 -1.11212e-06 0)
(-5.40632e-06 -9.64484e-07 0)
(-5.46799e-06 -9.88281e-07 0)
(-5.50301e-06 -9.89529e-07 0)
(-5.54387e-06 -9.69351e-07 0)
(-5.4917e-06 -8.01136e-07 0)
(-5.55541e-06 -8.1795e-07 0)
(-5.59141e-06 -8.2151e-07 0)
(-5.6337e-06 -8.12918e-07 0)
(-5.59373e-06 -6.38987e-07 0)
(-5.64582e-06 -6.48294e-07 0)
(-5.66951e-06 -6.54199e-07 0)
(-5.69958e-06 -6.57778e-07 0)
(-5.71309e-06 -4.93792e-07 0)
(-5.73937e-06 -4.95294e-07 0)
(-5.73692e-06 -5.03564e-07 0)
(-5.74059e-06 -5.19639e-07 0)
(-5.84995e-06 -3.81706e-07 0)
(-5.83605e-06 -3.7533e-07 0)
(-5.79343e-06 -3.85963e-07 0)
(-5.75635e-06 -4.14597e-07 0)
(-6.00406e-06 -3.18921e-07 0)
(-5.93571e-06 -3.04813e-07 0)
(-5.83905e-06 -3.17787e-07 0)
(-5.74698e-06 -3.58777e-07 0)
(-6.17468e-06 -3.21318e-07 0)
(-6.03808e-06 -2.99838e-07 0)
(-5.87393e-06 -3.15103e-07 0)
(-5.71312e-06 -3.67985e-07 0)
(-6.36067e-06 -4.04133e-07 0)
(-6.14278e-06 -3.7584e-07 0)
(-5.89846e-06 -3.93321e-07 0)
(-5.65591e-06 -4.57378e-07 0)
(-6.56047e-06 -5.81637e-07 0)
(-6.24931e-06 -5.47276e-07 0)
(-5.91317e-06 -5.6687e-07 0)
(-5.57697e-06 -6.41148e-07 0)
(-6.77213e-06 -8.66818e-07 0)
(-6.35708e-06 -8.27301e-07 0)
(-5.9188e-06 -8.48878e-07 0)
(-5.47837e-06 -9.32204e-07 0)
(-6.99338e-06 -1.27108e-06 0)
(-6.4654e-06 -1.22746e-06 0)
(-5.91623e-06 -1.25086e-06 0)
(-5.36261e-06 -1.34187e-06 0)
(-7.22165e-06 -1.80394e-06 0)
(-6.57355e-06 -1.75737e-06 0)
(-5.9065e-06 -1.78243e-06 0)
(-5.23254e-06 -1.87961e-06 0)
(-7.45414e-06 -2.47279e-06 0)
(-6.68072e-06 -2.42451e-06 0)
(-5.89073e-06 -2.45103e-06 0)
(-5.09132e-06 -2.55275e-06 0)
(-7.68796e-06 -3.28273e-06 0)
(-6.78611e-06 -3.23401e-06 0)
(-5.87017e-06 -3.26176e-06 0)
(-4.94226e-06 -3.36633e-06 0)
(-7.92014e-06 -4.23646e-06 0)
(-6.88893e-06 -4.18856e-06 0)
(-5.84609e-06 -4.21733e-06 0)
(-4.7888e-06 -4.32303e-06 0)
(-8.14778e-06 -5.33436e-06 0)
(-6.98838e-06 -5.2885e-06 0)
(-5.81978e-06 -5.31805e-06 0)
(-4.63437e-06 -5.42318e-06 0)
(-8.36807e-06 -6.57456e-06 0)
(-7.08374e-06 -6.53192e-06 0)
(-5.79254e-06 -6.56201e-06 0)
(-4.48234e-06 -6.6649e-06 0)
(-8.57832e-06 -7.95313e-06 0)
(-7.17432e-06 -7.91482e-06 0)
(-5.76564e-06 -7.94519e-06 0)
(-4.33598e-06 -8.04423e-06 0)
(-8.77597e-06 -9.46412e-06 0)
(-7.25948e-06 -9.43119e-06 0)
(-5.74033e-06 -9.46159e-06 0)
(-4.19847e-06 -9.55522e-06 0)
(-8.95859e-06 -1.10995e-05 0)
(-7.33865e-06 -1.10729e-05 0)
(-5.71781e-06 -1.11031e-05 0)
(-4.07288e-06 -1.11898e-05 0)
(-9.12391e-06 -1.28491e-05 0)
(-7.4113e-06 -1.28296e-05 0)
(-5.69923e-06 -1.28593e-05 0)
(-3.96206e-06 -1.29378e-05 0)
(-9.27001e-06 -1.46999e-05 0)
(-7.47703e-06 -1.46881e-05 0)
(-5.68558e-06 -1.47171e-05 0)
(-3.86858e-06 -1.47863e-05 0)
(-9.39551e-06 -1.66365e-05 0)
(-7.53565e-06 -1.66327e-05 0)
(-5.67769e-06 -1.66606e-05 0)
(-3.79439e-06 -1.67198e-05 0)
(-9.49991e-06 -1.86413e-05 0)
(-7.58717e-06 -1.86452e-05 0)
(-5.67601e-06 -1.86717e-05 0)
(-3.74047e-06 -1.87205e-05 0)
(-9.58394e-06 -2.06952e-05 0)
(-7.63204e-06 -2.0706e-05 0)
(-5.68077e-06 -2.07308e-05 0)
(-3.70672e-06 -2.07692e-05 0)
(-9.64959e-06 -2.27798e-05 0)
(-7.67097e-06 -2.27961e-05 0)
(-5.6916e-06 -2.28186e-05 0)
(-3.6914e-06 -2.28471e-05 0)
(-9.70024e-06 -2.48786e-05 0)
(-7.70538e-06 -2.48982e-05 0)
(-5.70857e-06 -2.49178e-05 0)
(-3.69263e-06 -2.49368e-05 0)
(-9.74019e-06 -2.69792e-05 0)
(-7.73638e-06 -2.6999e-05 0)
(-5.73036e-06 -2.70155e-05 0)
(-3.70573e-06 -2.70257e-05 0)
(-9.77643e-06 -2.90697e-05 0)
(-7.76707e-06 -2.90847e-05 0)
(-5.75831e-06 -2.91006e-05 0)
(-3.7306e-06 -2.91063e-05 0)
(-9.82074e-06 -3.11297e-05 0)
(-7.7954e-06 -3.11406e-05 0)
(-5.78177e-06 -3.11671e-05 0)
(-3.7498e-06 -3.11827e-05 0)
)
;

boundaryField
{
    plateFix
    {
        type            calculated;
        value           uniform (0 0 0);
    }
    plate
    {
        type            calculated;
        value           nonuniform List<vector> 
168
(
(2.29369e-07 1.53862e-07 1.04409e-22)
(-8.89554e-08 5.39861e-08 8.8635e-23)
(1.54664e-07 2.1067e-07 -1.08839e-22)
(-2.0338e-07 1.26395e-07 1.78168e-23)
(1.38573e-07 2.64052e-07 4.12783e-23)
(-2.93125e-07 2.00867e-07 -6.38291e-23)
(1.51964e-07 3.16811e-07 -7.30855e-23)
(-3.88155e-07 2.79716e-07 2.4085e-24)
(1.82142e-07 3.77671e-07 1.18345e-22)
(-4.93583e-07 3.6798e-07 8.27138e-24)
(2.18996e-07 4.52787e-07 -9.94438e-23)
(-6.0746e-07 4.6809e-07 6.50232e-24)
(2.56567e-07 5.46403e-07 1.12147e-22)
(-7.2796e-07 5.83141e-07 -9.68203e-23)
(2.91305e-07 6.61346e-07 -5.85305e-24)
(-8.53485e-07 7.15712e-07 1.55448e-22)
(3.2105e-07 7.99842e-07 3.10513e-23)
(-9.82915e-07 8.68371e-07 -5.73762e-23)
(3.44186e-07 9.63773e-07 -6.69238e-23)
(-1.11516e-06 1.04355e-06 -1.00214e-24)
(3.59257e-07 1.15483e-06 7.34937e-24)
(-1.2491e-06 1.24355e-06 -1.52205e-23)
(3.64733e-07 1.37454e-06 -3.88314e-23)
(-1.38345e-06 1.47049e-06 4.62676e-25)
(3.58923e-07 1.62415e-06 2.80589e-23)
(-1.51683e-06 1.72611e-06 -1.07046e-23)
(3.39944e-07 1.9046e-06 1.47861e-24)
(-1.64773e-06 2.01173e-06 9.1916e-24)
(3.0572e-07 2.21632e-06 -1.96669e-24)
(-1.77456e-06 2.32805e-06 -2.0773e-23)
(2.53973e-07 2.55904e-06 -5.3619e-24)
(-1.89564e-06 2.67502e-06 1.86995e-23)
(1.82235e-07 2.93164e-06 2.42556e-23)
(-2.00922e-06 3.05156e-06 -1.98592e-23)
(8.78284e-08 3.33174e-06 1.48769e-23)
(-2.11343e-06 3.45536e-06 -1.25906e-23)
(-3.21043e-08 3.75544e-06 -1.45325e-23)
(-2.20631e-06 3.88249e-06 2.28617e-23)
(-1.80586e-07 4.19679e-06 -1.52145e-23)
(-2.2858e-06 4.32697e-06 3.05546e-23)
(-3.60718e-07 4.64733e-06 2.57707e-23)
(-2.34978e-06 4.78022e-06 -2.35356e-23)
(-5.75512e-07 5.09535e-06 1.97536e-24)
(-2.39631e-06 5.23052e-06 -3.83157e-23)
(-8.37561e-07 5.54183e-06 4.19337e-25)
(-2.4244e-06 5.67904e-06 3.17434e-23)
(-1.14053e-06 5.94289e-06 -1.93081e-23)
(-2.43055e-06 6.08187e-06 -2.63542e-23)
(-1.46129e-06 6.25666e-06 1.37024e-23)
(-2.41733e-06 6.39668e-06 -4.23221e-25)
(-1.79436e-06 6.47505e-06 -5.43041e-24)
(-2.38988e-06 6.61538e-06 -1.33256e-24)
(-2.13397e-06 6.59281e-06 -4.70833e-24)
(-2.35363e-06 6.73283e-06 8.86364e-27)
(-2.47435e-06 6.60776e-06 -1.63919e-24)
(-2.31402e-06 6.74688e-06 2.0537e-23)
(-2.80988e-06 6.52075e-06 1.97279e-24)
(-2.27636e-06 6.6584e-06 5.96268e-24)
(-3.13531e-06 6.33552e-06 5.21764e-24)
(-2.24563e-06 6.47117e-06 -6.90103e-24)
(-3.44588e-06 6.05844e-06 -3.02227e-24)
(-2.22633e-06 6.19158e-06 -3.11599e-24)
(-3.73746e-06 5.69823e-06 -3.20797e-24)
(-2.22235e-06 5.82836e-06 4.26342e-24)
(-4.00665e-06 5.26554e-06 -4.45128e-24)
(-2.23692e-06 5.39217e-06 9.02684e-24)
(-4.25077e-06 4.77256e-06 -2.17865e-24)
(-2.27252e-06 4.89523e-06 -1.04905e-23)
(-4.46795e-06 4.23261e-06 3.51741e-24)
(-2.33088e-06 4.35087e-06 -3.29934e-24)
(-4.65707e-06 3.65969e-06 1.21682e-24)
(-2.41298e-06 3.77313e-06 8.97253e-24)
(-4.81775e-06 3.06811e-06 9.79494e-24)
(-2.51909e-06 3.17636e-06 4.27642e-24)
(-4.95033e-06 2.47212e-06 -3.20928e-24)
(-2.64877e-06 2.57482e-06 6.13382e-24)
(-5.05582e-06 1.88552e-06 1.27143e-23)
(-2.80096e-06 1.98235e-06 -1.01853e-23)
(-5.13582e-06 1.32135e-06 -3.61766e-24)
(-2.97397e-06 1.41205e-06 1.34109e-23)
(-5.19252e-06 7.91613e-07 -2.4792e-24)
(-3.16555e-06 8.75921e-07 -1.22386e-24)
(-5.22861e-06 3.06956e-07 -5.39465e-24)
(-3.37296e-06 3.84649e-07 7.53104e-24)
(-5.24725e-06 -1.23557e-07 -1.92996e-23)
(-3.59298e-06 -5.26905e-08 -3.20706e-24)
(-5.25196e-06 -4.92684e-07 6.25879e-24)
(-3.82199e-06 -4.28846e-07 3.12023e-23)
(-5.24662e-06 -7.95206e-07 8.41342e-24)
(-4.05603e-06 -7.38598e-07 -2.56915e-23)
(-5.23532e-06 -1.02809e-06 -7.18305e-24)
(-4.29088e-06 -9.78918e-07 1.09831e-23)
(-5.22229e-06 -1.19061e-06 -3.59627e-25)
(-4.52216e-06 -1.14909e-06 -2.12875e-23)
(-5.2118e-06 -1.28442e-06 5.96736e-24)
(-4.7454e-06 -1.25076e-06 2.72444e-24)
(-5.20804e-06 -1.31352e-06 1.15186e-23)
(-4.95621e-06 -1.28796e-06 2.01238e-23)
(-5.21502e-06 -1.28426e-06 8.49552e-25)
(-5.15036e-06 -1.26704e-06 1.40954e-23)
(-5.23642e-06 -1.20517e-06 3.07863e-23)
(-5.32387e-06 -1.19652e-06 -3.91459e-23)
(-5.27553e-06 -1.08678e-06 -3.27588e-23)
(-5.4732e-06 -1.08691e-06 -1.29591e-23)
(-5.33514e-06 -9.41367e-07 1.68127e-24)
(-5.59527e-06 -9.50491e-07 5.20862e-23)
(-5.41746e-06 -7.82661e-07 5.94083e-24)
(-5.68758e-06 -8.00946e-07 -6.88116e-23)
(-5.52409e-06 -6.25514e-07 4.24899e-23)
(-5.74829e-06 -6.53077e-07 -6.33483e-24)
(-5.65598e-06 -4.85535e-07 -2.42578e-23)
(-5.77619e-06 -5.2243e-07 1.61942e-23)
(-5.81342e-06 -3.78732e-07 -1.62943e-23)
(-5.77081e-06 -4.24936e-07 -2.11781e-23)
(-5.99608e-06 -3.21152e-07 2.70444e-23)
(-5.73235e-06 -3.76551e-07 8.42501e-24)
(-6.20299e-06 -3.28539e-07 8.61243e-23)
(-5.66169e-06 -3.92922e-07 1.387e-23)
(-6.43257e-06 -4.15997e-07 -4.96777e-23)
(-5.5604e-06 -4.89048e-07 4.62059e-24)
(-6.6827e-06 -5.97676e-07 -2.06932e-23)
(-5.43069e-06 -6.78972e-07 1.04639e-23)
(-6.95067e-06 -8.86454e-07 4.7368e-23)
(-5.27538e-06 -9.75469e-07 7.02044e-23)
(-7.23331e-06 -1.29364e-06 -2.83467e-23)
(-5.09788e-06 -1.38975e-06 5.59979e-24)
(-7.52702e-06 -1.82867e-06 4.06179e-23)
(-4.90207e-06 -1.93116e-06 6.04566e-24)
(-7.82784e-06 -2.4989e-06 -1.05931e-22)
(-4.69227e-06 -2.60699e-06 1.14298e-22)
(-8.13165e-06 -3.3094e-06 3.19569e-23)
(-4.47304e-06 -3.42222e-06 -9.84902e-23)
(-8.43423e-06 -4.26288e-06 -1.00736e-22)
(-4.24905e-06 -4.37954e-06 6.13604e-24)
(-8.73149e-06 -5.35974e-06 -5.34577e-24)
(-4.02494e-06 -5.47928e-06 6.70451e-23)
(-9.01947e-06 -6.59816e-06 5.6218e-23)
(-3.80522e-06 -6.71961e-06 -8.15779e-23)
(-9.29444e-06 -7.97424e-06 -4.33183e-23)
(-3.59422e-06 -8.09659e-06 4.84151e-23)
(-9.55279e-06 -9.48207e-06 6.50243e-23)
(-3.39616e-06 -9.60431e-06 2.1843e-23)
(-9.79104e-06 -1.11137e-05 -5.93386e-23)
(-3.21514e-06 -1.12348e-05 3.07057e-23)
(-1.00058e-05 -1.28588e-05 1.52218e-22)
(-3.05518e-06 -1.29778e-05 -3.77038e-23)
(-1.0194e-05 -1.47049e-05 -3.97849e-23)
(-2.91997e-06 -1.48205e-05 3.0543e-23)
(-1.03531e-05 -1.66365e-05 6.40669e-23)
(-2.81248e-06 -1.67479e-05 -6.37445e-23)
(-1.04823e-05 -1.86363e-05 -4.00302e-23)
(-2.73433e-06 -1.87423e-05 -2.55247e-23)
(-1.05821e-05 -2.06859e-05 -4.27031e-23)
(-2.68542e-06 -2.07849e-05 -1.06609e-23)
(-1.06555e-05 -2.27669e-05 5.2134e-23)
(-2.66312e-06 -2.28569e-05 -2.79865e-23)
(-1.07071e-05 -2.48633e-05 -2.78214e-23)
(-2.66436e-06 -2.49412e-05 -4.60048e-23)
(-1.07418e-05 -2.6963e-05 1.19574e-22)
(-2.68168e-06 -2.70245e-05 4.43165e-23)
(-1.07596e-05 -2.9056e-05 -1.775e-23)
(-2.71796e-06 -2.91007e-05 -4.68441e-23)
(-1.07647e-05 -3.11259e-05 1.06686e-22)
(-9.85927e-06 -3.21219e-05 -3.29684e-23)
(-7.80558e-06 -3.21387e-05 1.69429e-23)
(-5.78974e-06 -3.21825e-05 2.83779e-23)
(-3.752e-06 -3.22208e-05 -3.90817e-23)
(-2.74739e-06 -3.11818e-05 -1.53176e-22)
)
;
    }
    frontAndBackPlanes
    {
        type            empty;
    }
}


// ************************************************************************* //
