/*--------------------------------*- C++ -*----------------------------------*\
| =========                 |                                                 |
| \\      /  F ield         | OpenFOAM Extend Project: Open source CFD        |
|  \\    /   O peration     | Version:  1.6-ext                               |
|   \\  /    A nd           | Web:      www.extend-project.de                 |
|    \\/     M anipulation  |                                                 |
\*---------------------------------------------------------------------------*/
FoamFile
{
    version     2.0;
    format      ascii;
    class       surfaceScalarField;
    location    "0.7";
    object      meshPhi;
}
// * * * * * * * * * * * * * * * * * * * * * * * * * * * * * * * * * * * * * //

dimensions      [0 3 -1 0 0 0 0];

internalField   nonuniform List<scalar> 
570
(
1.69461e-10
4.65217e-09
-6.09711e-12
1.27488e-09
-1.62176e-10
1.1758e-09
4.09301e-09
5.14317e-10
5.58922e-09
-1.4798e-11
2.82565e-09
-4.87834e-10
2.60948e-09
4.77415e-09
8.41948e-10
6.9841e-09
-1.39666e-11
4.69943e-09
-7.85012e-10
4.34633e-09
5.8256e-09
1.14961e-09
8.81646e-09
-5.82957e-13
6.84461e-09
-1.04356e-09
6.33898e-09
7.2432e-09
1.44288e-09
1.10471e-08
2.91021e-11
9.25829e-09
-1.25964e-09
8.58485e-09
8.99691e-09
1.73113e-09
1.36242e-08
8.02572e-11
1.19222e-08
-1.43059e-09
1.10665e-08
1.10433e-08
2.02613e-09
1.65203e-08
1.59884e-10
1.48319e-08
-1.55287e-09
1.37793e-08
1.33581e-08
2.34232e-09
1.97176e-08
2.77239e-10
1.79834e-08
-1.62147e-09
1.67187e-08
1.59248e-08
2.69711e-09
2.32103e-08
4.444e-10
2.13794e-08
-1.62895e-09
1.98866e-08
1.87365e-08
3.11144e-09
2.69994e-08
6.76972e-10
2.50257e-08
-1.56458e-09
2.32876e-08
2.17919e-08
3.61044e-09
3.10919e-08
9.94976e-10
2.89328e-08
-1.41315e-09
2.6931e-08
2.50945e-08
4.2244e-09
3.5499e-08
1.42398e-09
3.31146e-08
-1.15357e-09
3.08292e-08
2.86517e-08
4.98996e-09
4.0236e-08
1.99653e-09
3.75884e-08
-7.57278e-10
3.49979e-08
3.24738e-08
5.95186e-09
4.5321e-08
2.7539e-09
4.23742e-08
-1.86279e-10
3.94554e-08
3.6574e-08
7.16509e-09
5.0775e-08
3.7484e-09
4.74943e-08
6.09139e-10
4.4222e-08
4.09676e-08
8.69778e-09
5.66216e-08
5.04612e-09
5.2973e-08
1.6932e-09
4.93199e-08
4.56718e-08
1.06348e-08
6.28864e-08
6.73053e-09
5.88357e-08
3.14805e-09
5.47725e-08
5.07058e-08
1.30824e-08
6.95971e-08
8.90682e-09
6.51097e-08
5.07805e-09
6.06044e-08
5.60899e-08
1.61736e-08
7.67831e-08
1.17075e-08
7.18226e-08
7.61513e-09
6.68408e-08
6.18457e-08
2.00756e-08
8.44755e-08
1.5299e-08
7.90036e-08
1.09256e-08
7.35078e-08
6.79955e-08
2.49981e-08
9.27065e-08
1.98909e-08
8.66823e-08
1.52185e-08
8.0632e-08
7.45623e-08
3.12043e-08
1.01512e-07
2.57458e-08
9.48891e-08
2.07565e-08
8.82406e-08
8.15678e-08
4.21488e-08
1.11609e-07
3.58899e-08
1.04299e-07
3.01747e-08
9.69574e-08
8.95921e-08
4.94512e-08
1.21668e-07
4.32234e-08
1.13662e-07
3.7543e-08
1.05622e-07
9.75562e-08
5.74519e-08
1.31679e-07
5.12582e-08
1.22973e-07
4.56155e-08
1.14231e-07
1.05459e-07
6.61553e-08
1.41638e-07
5.99989e-08
1.32227e-07
5.43968e-08
1.22778e-07
1.13298e-07
7.5566e-08
1.5154e-07
6.945e-08
1.41421e-07
6.38914e-08
1.31261e-07
1.21067e-07
8.56883e-08
1.61381e-07
7.96157e-08
1.50549e-07
7.41035e-08
1.39675e-07
1.28763e-07
9.65263e-08
1.71155e-07
9.05003e-08
1.59606e-07
8.50373e-08
1.48014e-07
1.36382e-07
1.08084e-07
1.80857e-07
1.02108e-07
1.68589e-07
9.66967e-08
1.56277e-07
1.4392e-07
1.20365e-07
1.90483e-07
1.14441e-07
1.77494e-07
1.09085e-07
1.64457e-07
1.51374e-07
1.33372e-07
2.00028e-07
1.27505e-07
1.86314e-07
1.22206e-07
1.72552e-07
1.5874e-07
1.47109e-07
2.09487e-07
1.413e-07
1.95046e-07
1.36061e-07
1.80557e-07
1.66014e-07
1.61577e-07
2.18853e-07
1.5583e-07
2.03686e-07
1.50654e-07
1.88468e-07
1.73194e-07
1.76777e-07
2.28123e-07
1.71096e-07
2.12229e-07
1.65985e-07
1.96283e-07
1.80277e-07
1.92711e-07
2.3729e-07
1.87098e-07
2.2067e-07
1.82054e-07
2.03997e-07
1.87261e-07
2.09378e-07
2.4635e-07
2.03836e-07
2.29005e-07
1.98861e-07
2.11607e-07
1.94142e-07
2.26777e-07
2.55296e-07
2.21308e-07
2.37229e-07
2.16405e-07
2.1911e-07
2.00919e-07
2.44904e-07
2.64123e-07
2.39513e-07
2.45339e-07
2.34684e-07
2.26502e-07
2.0759e-07
2.63756e-07
2.72825e-07
2.58445e-07
2.53329e-07
2.53692e-07
2.3378e-07
2.14153e-07
2.83328e-07
2.81396e-07
2.78101e-07
2.61195e-07
2.73425e-07
2.40942e-07
2.20606e-07
3.03614e-07
2.89831e-07
2.98473e-07
2.68934e-07
2.93876e-07
2.47984e-07
2.26948e-07
3.24605e-07
2.98124e-07
3.19553e-07
2.7654e-07
3.15037e-07
2.54904e-07
2.33177e-07
3.46292e-07
3.06268e-07
3.41331e-07
2.84009e-07
3.36899e-07
2.61698e-07
2.39292e-07
3.68663e-07
3.14258e-07
3.63797e-07
2.91337e-07
3.59449e-07
2.68364e-07
2.45293e-07
3.91705e-07
3.22089e-07
3.86937e-07
2.98519e-07
3.82675e-07
2.74899e-07
2.51177e-07
4.15403e-07
3.29753e-07
4.10736e-07
3.05552e-07
4.06563e-07
2.81302e-07
2.56945e-07
4.39742e-07
3.37245e-07
4.35178e-07
3.12431e-07
4.31094e-07
2.87568e-07
2.62595e-07
4.64702e-07
3.4456e-07
4.60245e-07
3.19152e-07
4.56252e-07
2.93695e-07
2.68125e-07
4.90264e-07
3.51692e-07
4.85916e-07
3.2571e-07
4.82016e-07
2.99681e-07
2.73536e-07
5.16406e-07
3.58635e-07
5.12171e-07
3.32103e-07
5.08365e-07
3.05524e-07
2.78825e-07
5.43106e-07
3.65385e-07
5.38985e-07
3.38326e-07
5.35276e-07
3.1122e-07
2.83991e-07
5.70338e-07
3.71936e-07
5.66335e-07
3.44374e-07
5.62724e-07
3.16766e-07
2.89033e-07
5.98078e-07
3.78284e-07
5.94194e-07
3.50246e-07
5.90684e-07
3.22161e-07
2.93948e-07
6.26298e-07
3.84424e-07
6.22537e-07
3.55936e-07
6.19129e-07
3.27401e-07
2.98736e-07
6.54972e-07
3.90353e-07
6.51336e-07
3.61443e-07
6.48031e-07
3.32484e-07
3.03393e-07
6.84071e-07
3.96067e-07
6.80562e-07
3.66761e-07
6.77363e-07
3.37407e-07
3.07918e-07
7.13566e-07
4.01563e-07
7.10187e-07
3.7189e-07
7.07096e-07
3.42166e-07
3.12307e-07
7.4343e-07
4.06838e-07
7.40182e-07
3.76825e-07
7.37202e-07
3.4676e-07
3.16558e-07
7.73633e-07
4.11889e-07
7.70519e-07
3.81565e-07
7.6765e-07
3.51186e-07
3.20669e-07
8.04148e-07
4.16716e-07
8.01168e-07
3.86106e-07
7.98414e-07
3.5544e-07
3.24635e-07
8.34945e-07
4.21316e-07
8.32102e-07
3.90448e-07
8.29464e-07
3.5952e-07
3.28453e-07
8.65999e-07
4.25687e-07
8.63294e-07
3.94587e-07
8.60774e-07
3.63424e-07
3.32121e-07
8.97282e-07
4.2983e-07
8.94716e-07
3.98523e-07
8.92316e-07
3.67148e-07
3.35635e-07
9.28768e-07
4.33744e-07
9.26342e-07
4.02253e-07
9.24064e-07
3.70692e-07
3.38991e-07
9.60434e-07
4.37429e-07
9.58149e-07
4.05777e-07
9.55995e-07
3.74051e-07
3.42185e-07
9.92256e-07
4.40885e-07
9.90113e-07
4.09093e-07
9.88084e-07
3.77224e-07
3.45215e-07
1.02421e-06
4.44113e-07
1.02221e-06
4.12201e-07
1.02031e-06
3.80208e-07
3.48077e-07
1.05628e-06
4.47114e-07
1.05442e-06
4.15101e-07
1.05265e-06
3.83003e-07
3.50766e-07
1.08845e-06
4.49888e-07
1.08673e-06
4.17791e-07
1.08509e-06
3.85605e-07
3.53281e-07
1.12069e-06
4.52439e-07
1.11912e-06
4.20272e-07
1.11761e-06
3.88012e-07
3.55617e-07
1.153e-06
4.54766e-07
1.15157e-06
4.22544e-07
1.15019e-06
3.90225e-07
3.5777e-07
1.18535e-06
4.56872e-07
1.18406e-06
4.24607e-07
1.18281e-06
3.9224e-07
3.59739e-07
1.21774e-06
4.5876e-07
1.2166e-06
4.26462e-07
1.21548e-06
3.94057e-07
3.6152e-07
1.25016e-06
4.60432e-07
1.24915e-06
4.28108e-07
1.24817e-06
3.95675e-07
3.6311e-07
1.2826e-06
4.61889e-07
1.28173e-06
4.29547e-07
1.28089e-06
3.97092e-07
3.64506e-07
1.31504e-06
4.63134e-07
1.31432e-06
4.30779e-07
1.31361e-06
3.98308e-07
3.65707e-07
1.3475e-06
4.64169e-07
1.34691e-06
4.31806e-07
1.34634e-06
3.99322e-07
3.6671e-07
1.37996e-06
4.64997e-07
1.37951e-06
4.32628e-07
1.37908e-06
4.00134e-07
3.67514e-07
1.41242e-06
4.65624e-07
1.41211e-06
4.33249e-07
1.41181e-06
4.00746e-07
3.6812e-07
1.44488e-06
4.66049e-07
1.44471e-06
4.33661e-07
1.44454e-06
4.0115e-07
3.68519e-07
1.47736e-06
1.47731e-06
1.47726e-06
)
;

boundaryField
{
    plateFix
    {
        type            calculated;
        value           nonuniform List<scalar> 4(-3.53498e-09 6.03451e-14 -1.04079e-13 -3.20263e-09);
    }
    plate
    {
        type            calculated;
        value           nonuniform List<scalar> 
168
(
-8.55763e-10
-7.21484e-10
-1.4797e-09
-1.27668e-09
-2.06078e-09
-1.78286e-09
-2.58576e-09
-2.22134e-09
-3.06906e-09
-2.59525e-09
-3.53255e-09
-2.91203e-09
-3.99613e-09
-3.17472e-09
-4.48085e-09
-3.38356e-09
-5.00844e-09
-3.53454e-09
-5.60292e-09
-3.61937e-09
-6.29155e-09
-3.62446e-09
-7.1062e-09
-3.52996e-09
-8.08483e-09
-3.30829e-09
-9.27333e-09
-2.92237e-09
-1.07278e-08
-2.32333e-09
-1.25176e-08
-1.44777e-09
-1.47286e-08
-2.14342e-10
-1.74682e-08
1.48057e-09
-2.08704e-08
3.76821e-09
-2.51034e-08
6.81429e-09
-3.03779e-08
1.08275e-08
-3.69575e-08
1.60702e-08
-4.87499e-08
2.481e-08
-5.60239e-08
3.2215e-08
-6.39927e-08
4.03272e-08
-7.2661e-08
4.91511e-08
-8.20334e-08
5.86911e-08
-9.21141e-08
6.89515e-08
-1.02907e-07
7.99363e-08
-1.14417e-07
9.16492e-08
-1.26646e-07
1.04094e-07
-1.39599e-07
1.17273e-07
-1.53277e-07
1.31189e-07
-1.67683e-07
1.45844e-07
-1.82819e-07
1.6124e-07
-1.98684e-07
1.77376e-07
-2.15279e-07
1.94252e-07
-2.32602e-07
2.11866e-07
-2.50649e-07
2.30215e-07
-2.69419e-07
2.49296e-07
-2.88904e-07
2.69103e-07
-3.091e-07
2.89629e-07
-3.29997e-07
3.10867e-07
-3.51586e-07
3.32805e-07
-3.73855e-07
3.55434e-07
-3.96792e-07
3.78739e-07
-4.20382e-07
4.02705e-07
-4.44608e-07
4.27318e-07
-4.69452e-07
4.52557e-07
-4.94894e-07
4.78404e-07
-5.20913e-07
5.04836e-07
-5.47486e-07
5.31831e-07
-5.74589e-07
5.59366e-07
-6.02196e-07
5.87413e-07
-6.30281e-07
6.15947e-07
-6.58816e-07
6.4494e-07
-6.87774e-07
6.74364e-07
-7.17127e-07
7.04192e-07
-7.46846e-07
7.34393e-07
-7.76902e-07
7.6494e-07
-8.07268e-07
7.95805e-07
-8.37916e-07
8.26958e-07
-8.68819e-07
8.58373e-07
-8.9995e-07
8.90023e-07
-9.31285e-07
9.21882e-07
-9.62799e-07
9.53925e-07
-9.94469e-07
9.86129e-07
-1.02627e-06
1.01847e-06
-1.05819e-06
1.05093e-06
-1.09021e-06
1.08349e-06
-1.1223e-06
1.11613e-06
-1.15446e-06
1.14884e-06
-1.18666e-06
1.18159e-06
-1.21891e-06
1.21439e-06
-1.25118e-06
1.24721e-06
-1.28347e-06
1.28006e-06
-1.31578e-06
1.31291e-06
-1.34809e-06
1.34578e-06
-1.38041e-06
1.37864e-06
-1.41273e-06
1.41151e-06
-1.44507e-06
1.44438e-06
-1.47743e-06
4.66293e-07
4.33896e-07
4.01378e-07
3.68741e-07
1.47721e-06
)
;
    }
    frontAndBackPlanes
    {
        type            empty;
    }
}


// ************************************************************************* //
