/*--------------------------------*- C++ -*----------------------------------*\
| =========                 |                                                 |
| \\      /  F ield         | OpenFOAM Extend Project: Open source CFD        |
|  \\    /   O peration     | Version:  1.6-ext                               |
|   \\  /    A nd           | Web:      www.extend-project.de                 |
|    \\/     M anipulation  |                                                 |
\*---------------------------------------------------------------------------*/
FoamFile
{
    version     2.0;
    format      ascii;
    class       volScalarField;
    location    "0.7";
    object      sigmaEq;
}
// * * * * * * * * * * * * * * * * * * * * * * * * * * * * * * * * * * * * * //

dimensions      [1 -1 -2 0 0 0 0];

internalField   nonuniform List<scalar> 
328
(
2.20093
0.634069
0.616493
2.84046
2.34958
0.629996
0.93978
3.00627
2.48875
0.702402
1.23097
3.1979
2.54609
0.74696
1.39798
3.29031
2.57019
0.768777
1.49931
3.34393
2.56344
0.769021
1.5472
3.35637
2.54076
0.758515
1.5655
3.34731
2.50728
0.742456
1.56408
3.32289
2.46775
0.724706
1.5517
3.28942
2.42423
0.706847
1.53268
3.24943
2.37798
0.689518
1.50997
3.20452
2.32946
0.672705
1.48507
3.15521
2.27879
0.656175
1.45877
3.10169
2.22587
0.63964
1.43135
3.04391
2.17055
0.622856
1.40281
2.98175
2.11262
0.605652
1.37299
2.91504
2.05188
0.587927
1.34164
2.84361
1.98817
0.56963
1.30847
2.76726
1.92136
0.550751
1.2732
2.68582
1.85133
0.531288
1.23559
2.59908
1.77813
0.511299
1.19541
2.50693
1.70155
0.490715
1.15246
2.40909
1.61897
0.468188
1.10462
2.30202
1.53381
0.4471
1.05417
2.18894
1.45101
0.427341
1.00399
2.07711
1.37076
0.408717
0.953966
1.96662
1.29298
0.391113
0.904124
1.85752
1.21775
0.374485
0.854499
1.7499
1.14511
0.358774
0.805152
1.64388
1.07515
0.343931
0.756138
1.53956
1.00792
0.329903
0.70752
1.43708
0.943492
0.316639
0.659366
1.33656
0.881932
0.304093
0.611752
1.23815
0.823304
0.292225
0.564762
1.14198
0.767666
0.281004
0.518487
1.04821
0.715066
0.270412
0.473029
0.956997
0.665544
0.26044
0.428501
0.868491
0.61913
0.251098
0.38503
0.782848
0.575838
0.242412
0.34276
0.70022
0.535671
0.234422
0.30186
0.620754
0.498614
0.227184
0.262534
0.544588
0.46464
0.220768
0.225049
0.471853
0.433707
0.215247
0.189774
0.402667
0.405756
0.2107
0.157268
0.33714
0.380719
0.207196
0.128437
0.27537
0.358511
0.204791
0.10481
0.217455
0.339038
0.203516
0.0887477
0.163512
0.322194
0.203372
0.0827268
0.113755
0.307861
0.204329
0.0869846
0.0688382
0.295911
0.206318
0.0986455
0.0325467
0.286202
0.209241
0.114182
0.0304263
0.278581
0.212974
0.131159
0.0588555
0.272881
0.217369
0.148202
0.0889093
0.268918
0.22227
0.164562
0.116555
0.266498
0.227511
0.179826
0.141225
0.26541
0.232925
0.193764
0.162858
0.265436
0.238349
0.206249
0.181527
0.266346
0.243624
0.217216
0.197357
0.267905
0.248598
0.226636
0.2105
0.269875
0.253126
0.234507
0.221122
0.272017
0.257073
0.240843
0.229393
0.274094
0.260308
0.245668
0.235489
0.275872
0.26271
0.249014
0.239582
0.277126
0.264164
0.250916
0.241844
0.277637
0.264562
0.251409
0.242437
0.277198
0.263803
0.250528
0.241516
0.275612
0.261791
0.248308
0.239227
0.272701
0.258438
0.244776
0.2357
0.2683
0.253661
0.239957
0.231051
0.26227
0.247386
0.233866
0.225377
0.254496
0.239547
0.226509
0.218755
0.244894
0.230082
0.217876
0.211234
0.233426
0.218935
0.207936
0.202839
0.220095
0.206037
0.196618
0.193562
0.204995
0.191307
0.183805
0.183392
0.188289
0.174536
0.16923
0.172288
0.17044
0.155474
0.152567
0.160416
0.151943
0.133254
0.132881
0.147854
0.134839
0.107922
0.110166
0.136103
0.119113
0.0785177
0.0831416
0.124265
0.1109
0.0595165
0.064567
0.11771
0.0978162
0.0704064
0.072957
0.103512
)
;

boundaryField
{
    plateFix
    {
        type            calculated;
        value           nonuniform List<scalar> 4(2.22068 0.804105 0.682827 2.94669);
    }
    plate
    {
        type            calculated;
        value           nonuniform List<scalar> 
168
(
2.42679
3.0989
2.53452
3.23887
2.64565
3.39998
2.67983
3.45576
2.69111
3.4857
2.67699
3.48317
2.65056
3.4662
2.61496
3.43771
2.57397
3.40226
2.52911
3.36114
2.4814
3.31531
2.43119
3.26497
2.37861
3.21016
2.32358
3.15078
2.26593
3.08671
2.20547
3.0178
2.14204
2.94391
2.07544
2.86487
2.00558
2.78051
1.93232
2.69065
1.8557
2.59517
1.77551
2.49378
1.68909
2.383
1.59987
2.26598
1.513
2.15025
1.42877
2.03591
1.34708
1.92304
1.26803
1.81174
1.19167
1.70212
1.11808
1.59431
1.04733
1.48843
0.9795
1.38462
0.914664
1.28303
0.852895
1.1838
0.794259
1.08708
0.738816
0.993053
0.686616
0.901863
0.637696
0.813677
0.592081
0.728652
0.549779
0.646943
0.510784
0.568699
0.475069
0.494059
0.442594
0.42316
0.413298
0.356132
0.387104
0.293111
0.363918
0.234261
0.343632
0.179825
0.326121
0.130295
0.311247
0.0869827
0.298861
0.0544867
0.288799
0.0463946
0.280889
0.0647582
0.274944
0.0910012
0.27077
0.117118
0.268162
0.141108
0.266905
0.162425
0.266778
0.18095
0.267552
0.196721
0.268995
0.209848
0.270871
0.220473
0.272942
0.22876
0.274975
0.23488
0.276738
0.239007
0.278005
0.241312
0.278559
0.241964
0.278193
0.241121
0.276711
0.238932
0.273934
0.235533
0.269704
0.231045
0.263884
0.22557
0.256366
0.219191
0.247079
0.211966
0.235999
0.203932
0.223154
0.195097
0.208667
0.185476
0.192734
0.175055
0.175851
0.164024
0.158467
0.15242
0.142474
0.141663
0.127885
0.131184
0.124113
0.130344
0.124797
0.0780333
0.0682904
0.0696251
0.0815208
0.132139
)
;
    }
    frontAndBackPlanes
    {
        type            empty;
    }
}


// ************************************************************************* //
