/*--------------------------------*- C++ -*----------------------------------*\
| =========                 |                                                 |
| \\      /  F ield         | OpenFOAM Extend Project: Open source CFD        |
|  \\    /   O peration     | Version:  1.6-ext                               |
|   \\  /    A nd           | Web:      www.extend-project.de                 |
|    \\/     M anipulation  |                                                 |
\*---------------------------------------------------------------------------*/
FoamFile
{
    version     2.0;
    format      ascii;
    class       volSymmTensorField;
    location    "0.7";
    object      sigma;
}
// * * * * * * * * * * * * * * * * * * * * * * * * * * * * * * * * * * * * * //

dimensions      [1 -1 -2 0 0 0 0];

internalField   nonuniform List<symmTensor> 
328
(
(4.02864 0.310834 -6.37922e-22 1.65393 9.68973e-20 2.27137)
(1.0295 -0.251209 1.15102e-23 0.528686 5.59922e-23 0.622188)
(-1.06178 -0.111642 7.50387e-23 -0.407141 -6.85178e-23 -0.588656)
(-4.28003 0.621162 5.24197e-23 -1.3136 -8.80109e-20 -2.23921)
(3.91501 0.203962 2.26096e-21 1.30175 -1.75058e-19 2.08503)
(1.01894 -0.0950666 1.98931e-22 0.334692 -5.55627e-24 0.540287)
(-1.05611 0.0207255 7.94897e-24 0.0218197 1.22881e-22 -0.414893)
(-4.05829 0.418699 1.2817e-21 -0.734901 -3.15331e-20 -1.91905)
(3.91918 0.137307 -3.03016e-21 1.11877 -4.88475e-20 2.01343)
(1.05946 0.0185086 -3.5266e-22 0.264074 8.6541e-23 0.528139)
(-1.16965 0.107555 7.5999e-22 0.231311 1.41874e-22 -0.376639)
(-4.03299 0.271805 -5.04201e-21 -0.416623 1.24498e-19 -1.7817)
(3.87884 0.100403 9.87108e-22 1.00077 5.64162e-20 1.95003)
(1.04372 0.0943195 5.18163e-22 0.215016 -3.2087e-23 0.50209)
(-1.17305 0.1553 -1.09971e-21 0.408671 -6.55352e-22 -0.307193)
(-3.95669 0.176546 4.13517e-21 -0.204152 3.21034e-20 -1.66625)
(3.85111 0.0826769 3.76402e-22 0.940444 6.3286e-20 1.91476)
(1.03194 0.139449 3.13797e-22 0.201604 1.66931e-22 0.4919)
(-1.18314 0.175719 -1.43739e-22 0.51037 -5.45668e-22 -0.270667)
(-3.91427 0.119174 9.66278e-22 -0.0879264 -9.35955e-20 -1.60285)
(3.81303 0.0757828 2.00443e-21 0.908024 -7.35888e-20 1.88653)
(1.00901 0.166335 -6.32628e-22 0.197893 -1.59166e-22 0.481156)
(-1.16501 0.182689 -1.37931e-21 0.582564 8.91364e-22 -0.234631)
(-3.86761 0.0860444 -5.10555e-22 -0.0216908 3.16262e-20 -1.55773)
(3.77226 0.0744433 -4.16867e-21 0.892574 8.49877e-20 1.86402)
(0.987538 0.180598 1.48336e-21 0.201874 1.16917e-22 0.474095)
(-1.14386 0.182556 -4.90501e-22 0.625612 -4.07508e-22 -0.209021)
(-3.826 0.0681779 4.45329e-22 0.0118068 2.67927e-20 -1.52771)
(3.72591 0.0754088 3.99111e-21 0.884532 -2.32395e-21 1.84225)
(0.965652 0.187379 -3.08301e-21 0.20692 -2.57336e-22 0.467317)
(-1.11605 0.179918 2.76262e-21 0.65304 -1.08626e-21 -0.186964)
(-3.78235 0.0592052 -1.05287e-21 0.028462 -7.15859e-20 -1.50359)
(3.67533 0.0770062 -4.68205e-21 0.879427 4.31133e-20 1.81998)
(0.945566 0.189518 2.96828e-21 0.21195 1.26733e-22 0.461272)
(-1.08751 0.176758 2.23902e-21 0.668408 3.72825e-22 -0.169423)
(-3.73662 0.0552553 -1.78106e-21 0.0362079 9.11487e-20 -1.4822)
(3.62047 0.0784577 1.58094e-21 0.874651 -9.25313e-20 1.79613)
(0.92665 0.189094 -2.57542e-23 0.215868 -5.35061e-22 0.455264)
(-1.05834 0.174032 -1.43338e-21 0.676368 -3.15094e-22 -0.15458)
(-3.68694 0.0538741 1.11679e-20 0.040188 -7.69658e-20 -1.46073)
(3.56178 0.0795272 4.57664e-21 0.869117 6.59171e-20 1.77044)
(0.908835 0.187311 -9.68206e-21 0.218843 1.51487e-22 0.449328)
(-1.02984 0.17191 1.3557e-21 0.679057 6.29183e-22 -0.142105)
(-3.63269 0.0536567 -4.32287e-21 0.0429777 1.16253e-20 -1.43791)
(3.49937 0.0802233 -9.29728e-21 0.862416 -8.96674e-20 1.74281)
(0.891586 0.184947 1.16674e-20 0.221119 1.64922e-21 0.443343)
(-1.00199 0.170284 -3.67694e-22 0.678291 -2.38469e-22 -0.131264)
(-3.57322 0.0537951 -6.23217e-21 0.0459275 1.83527e-20 -1.41293)
(3.43335 0.0806482 4.05818e-21 0.854492 6.35638e-20 1.71324)
(0.874536 0.182428 -3.96524e-22 0.22308 -8.50932e-23 0.437316)
(-0.974775 0.168925 -6.52913e-21 0.675115 1.07543e-21 -0.121638)
(-3.50821 0.0538706 8.43437e-21 0.049607 2.22014e-20 -1.38544)
(3.36364 0.0809087 1.37316e-21 0.845402 -5.13859e-22 1.68173)
(0.857335 0.179977 -9.60014e-21 0.225013 -2.71934e-22 0.431217)
(-0.947859 0.167625 5.36025e-21 0.670279 2.20499e-22 -0.112796)
(-3.43743 0.0536835 -5.44517e-21 0.0542079 -3.5359e-20 -1.35528)
(3.2901 0.0810816 -8.38965e-21 0.835217 -1.37765e-20 1.64826)
(0.839748 0.177673 -2.64877e-21 0.227108 -1.98721e-21 0.42503)
(-0.920872 0.166226 -5.82207e-21 0.664228 2.33684e-21 -0.10441)
(-3.36075 0.0531656 1.41766e-20 0.0597198 1.02921e-20 -1.32238)
(3.21255 0.081207 8.28276e-21 0.82398 -1.35017e-21 1.61275)
(0.821612 0.175509 -9.60202e-21 0.229445 -1.13294e-21 0.418719)
(-0.893386 0.16463 -1.24881e-20 0.657231 6.90313e-22 -0.0962042)
(-3.27807 0.0523191 6.59658e-21 0.0660483 -2.90395e-20 -1.28676)
(3.13075 0.0812924 -5.93448e-21 0.811699 -3.2873e-20 1.57514)
(0.802828 0.17343 1.56042e-20 0.232026 1.30307e-21 0.412247)
(-0.865 0.162788 1.23114e-20 0.649418 -1.33036e-21 -0.0879641)
(-3.18932 0.0511812 -4.83767e-21 0.073064 2.61659e-20 -1.24843)
(3.04449 0.0813252 4.02103e-20 0.798344 1.1193e-20 1.53531)
(0.783335 0.171359 -2.4166e-20 0.234793 -7.02922e-22 0.405565)
(-0.835346 0.160677 1.54748e-20 0.640829 -1.25157e-21 -0.0795278)
(-3.0944 0.0498026 1.68863e-21 0.0806352 -6.42839e-20 -1.20742)
(2.9536 0.0812813 -3.36631e-20 0.78388 1.57812e-20 1.49318)
(0.763117 0.169215 -3.21899e-21 0.23767 -2.2543e-21 0.398638)
(-0.804108 0.158295 7.18093e-21 0.631453 5.25833e-22 -0.0707719)
(-2.99321 0.0482332 -1.40228e-20 0.0886425 4.89251e-20 -1.16372)
(2.85784 0.0811269 -3.05354e-20 0.768214 -1.21856e-20 1.44863)
(0.742137 0.166917 2.00498e-20 0.240545 3.0955e-21 0.391405)
(-0.771046 0.155634 1.40871e-20 0.621233 -1.37784e-21 -0.0616232)
(-2.88564 0.0465211 1.85289e-20 0.0969737 2.94526e-21 -1.11734)
(2.75727 0.0808489 4.6551e-20 0.751352 8.71494e-21 1.40168)
(0.720469 0.164408 -6.44142e-21 0.24336 2.77198e-21 0.383874)
(-0.735937 0.152692 -1.69992e-20 0.610143 1.81964e-21 -0.0520032)
(-2.7716 0.0446898 1.16597e-20 0.105571 2.95271e-20 -1.06826)
(2.65135 0.0803264 2.40135e-20 0.732958 -1.02264e-20 1.35197)
(0.697983 0.16155 -8.70465e-21 0.245901 -1.13215e-20 0.375907)
(-0.698671 0.149394 -1.23675e-20 0.598061 -1.54512e-21 -0.0419159)
(-2.65089 0.0427619 -1.38323e-21 0.114324 3.67082e-21 -1.01644)
(2.53714 0.0793751 3.9871e-21 0.71307 2.49275e-21 1.29835)
(0.674145 0.157597 3.85631e-20 0.248512 1.24014e-20 0.36743)
(-0.657609 0.144948 -1.379e-21 0.584495 -3.57861e-21 -0.0309024)
(-2.51929 0.040218 5.52773e-20 0.123406 -2.46352e-20 -0.960142)
(2.41814 0.0790632 -8.6152e-20 0.691466 -2.71839e-20 1.24214)
(0.649648 0.154969 -1.75162e-20 0.250558 -3.43414e-21 0.358463)
(-0.614195 0.141824 3.7851e-20 0.569538 2.78848e-21 -0.019503)
(-2.38129 0.0382883 -1.20663e-19 0.131942 5.2192e-20 -0.901496)
(2.30173 0.0786375 -6.48642e-21 0.669724 3.84999e-20 1.1869)
(0.626222 0.152368 2.40732e-21 0.252104 -5.91953e-21 0.349726)
(-0.571009 0.1388 6.46563e-20 0.554576 1.89282e-20 -0.00819656)
(-2.24488 0.0365087 4.67573e-20 0.140304 -5.58771e-20 -0.843559)
(2.18796 0.0781053 2.45845e-20 0.647687 -2.24587e-20 1.1326)
(0.603692 0.149657 1.36222e-20 0.25299 8.5304e-21 0.341083)
(-0.528268 0.1357 2.81447e-22 0.539316 -1.27131e-20 0.00281259)
(-2.11076 0.0347239 -2.65498e-20 0.147888 2.34327e-20 -0.78685)
(2.077 0.077438 2.7554e-20 0.625622 -2.19233e-20 1.07941)
(0.582136 0.14681 -9.56158e-20 0.253374 -3.13522e-20 0.332628)
(-0.485874 0.132522 2.6041e-20 0.523894 2.43035e-20 0.0136181)
(-1.97878 0.0329778 -8.26046e-20 0.154903 -3.35254e-20 -0.731225)
(1.96883 0.0766661 -8.99154e-20 0.603413 2.11552e-20 1.02728)
(0.561478 0.143819 3.60935e-21 0.253162 2.35337e-20 0.324295)
(-0.443961 0.12924 -4.05196e-20 0.508227 -1.43583e-20 0.0241332)
(-1.84922 0.0312367 4.23624e-20 0.161179 5.23439e-20 -0.676864)
(1.86361 0.0757721 7.05777e-20 0.58116 9.92603e-24 0.976313)
(0.541766 0.140672 5.82969e-20 0.252403 -4.79605e-20 0.316122)
(-0.402533 0.125847 1.58293e-20 0.492376 6.06336e-22 0.0343803)
(-1.72214 0.0295113 6.0286e-20 0.166786 -1.62331e-20 -0.623762)
(1.76139 0.0747629 -7.70241e-20 0.558834 1.29207e-20 0.926516)
(0.522978 0.137361 1.50246e-20 0.251061 -1.39338e-20 0.308085)
(-0.36168 0.122331 -1.25113e-19 0.476318 3.41028e-20 0.0443154)
(-1.59773 0.0277867 -4.1447e-21 0.171662 -1.04138e-20 -0.572021)
(1.6623 0.0736293 3.65571e-20 0.536482 -2.05676e-20 0.877959)
(0.505134 0.133877 -6.99943e-20 0.249149 3.11383e-20 0.300197)
(-0.321445 0.118684 4.65957e-20 0.460084 -1.31921e-20 0.0539318)
(-1.47611 0.0260647 -2.40667e-20 0.175819 2.25297e-20 -0.521689)
(1.56643 0.0723709 -1.91962e-20 0.514112 -4.62401e-21 0.830683)
(0.488231 0.130214 1.79254e-20 0.246655 -3.06594e-20 0.292453)
(-0.281903 0.114898 -1.4488e-19 0.443674 -9.66675e-21 0.0632009)
(-1.35748 0.0243399 8.44637e-20 0.179227 8.95371e-21 -0.472849)
(1.4739 0.0709827 -1.17629e-19 0.491759 3.30359e-20 0.784748)
(0.472281 0.126366 1.69768e-19 0.243582 -5.80508e-21 0.284859)
(-0.243116 0.110969 4.72264e-20 0.42711 -2.19243e-20 0.0721059)
(-1.24199 0.0226131 6.36771e-20 0.181883 9.51243e-21 -0.425568)
(1.38481 0.0694631 7.71856e-20 0.46945 -4.16833e-21 0.740206)
(0.457284 0.122332 -1.32758e-20 0.239931 -4.50589e-20 0.277414)
(-0.205159 0.106896 7.65152e-20 0.410407 3.2037e-20 0.0806236)
(-1.12982 0.020884 -5.55596e-20 0.183772 -1.30341e-20 -0.379923)
(1.29927 0.0678102 -1.26296e-19 0.447219 3.7764e-20 0.697117)
(0.443243 0.118111 9.13976e-20 0.235708 -1.11606e-20 0.270124)
(-0.168103 0.10268 4.07209e-20 0.393589 -2.0187e-20 0.0887348)
(-1.02115 0.019155 -8.4823e-20 0.18489 -5.52859e-21 -0.335988)
(1.21738 0.0660239 1.02507e-19 0.425104 -1.0434e-20 0.655534)
(0.430156 0.113709 2.64057e-21 0.230923 2.60652e-20 0.26299)
(-0.132021 0.0983243 -6.61891e-20 0.376679 -5.73959e-20 0.0964193)
(-0.916161 0.0174292 -5.11392e-21 0.185234 1.32879e-20 -0.293834)
(1.13925 0.0641056 -6.41505e-20 0.403145 8.64303e-21 0.615512)
(0.418021 0.109131 -7.91037e-20 0.22559 6.92929e-20 0.256017)
(-0.0969898 0.0938378 6.00761e-20 0.359708 -6.07137e-20 0.103659)
(-0.815024 0.0157112 -1.45807e-20 0.184806 -3.76687e-20 -0.253531)
(1.06494 0.062058 -5.53412e-20 0.381385 -2.61869e-20 0.577104)
(0.406827 0.104388 1.0615e-19 0.219726 -1.51963e-20 0.24921)
(-0.0630829 0.0892312 -6.34383e-20 0.342707 6.41779e-20 0.110438)
(-0.71791 0.0140067 1.04813e-19 0.183613 -2.43967e-21 -0.215143)
(0.994541 0.0598857 4.97419e-20 0.359872 -3.3982e-20 0.540356)
(0.396563 0.0994947 1.10314e-19 0.213356 -9.6324e-20 0.242571)
(-0.0303739 0.0845185 -2.63686e-19 0.325712 5.88092e-20 0.116739)
(-0.624978 0.0123221 2.62914e-20 0.181669 5.32398e-21 -0.178729)
(0.928106 0.057595 1.41372e-19 0.338654 3.97856e-20 0.505313)
(0.38721 0.0944672 -6.79772e-20 0.206505 5.14809e-20 0.236106)
(0.001066 0.0797167 9.64404e-20 0.308762 3.60862e-21 0.122551)
(-0.536376 0.0106651 -2.21193e-19 0.178992 -2.70142e-20 -0.14434)
(0.865677 0.0551936 -8.47854e-20 0.317779 1.55229e-20 0.472009)
(0.378746 0.0893255 6.79177e-20 0.199207 1.16304e-19 0.229817)
(0.0311691 0.0748456 1.84975e-19 0.291899 -1.04553e-19 0.127863)
(-0.452237 0.00904345 -1.6988e-19 0.175605 9.23007e-20 -0.112021)
(0.807279 0.052691 -1.91872e-19 0.2973 -5.10983e-20 0.440475)
(0.371144 0.084092 -1.67975e-20 0.191498 -5.22722e-20 0.223708)
(0.0598716 0.0699269 5.2791e-20 0.275165 6.97155e-20 0.132667)
(-0.372675 0.00746588 1.60112e-19 0.171538 -5.26951e-20 -0.081805)
(0.752914 0.050098 2.35724e-19 0.277265 -2.55011e-20 0.410733)
(0.364371 0.0787915 -2.33449e-19 0.183415 3.44285e-20 0.217782)
(0.0871151 0.0649848 7.14759e-20 0.258604 -5.86665e-20 0.136957)
(-0.297785 0.00594124 -6.76622e-20 0.166825 3.6347e-20 -0.0537164)
(0.702565 0.0474267 2.01767e-19 0.257723 2.83087e-21 0.382794)
(0.358387 0.0734507 -2.32214e-19 0.175003 1.31799e-20 0.21204)
(0.112847 0.0600449 8.82934e-20 0.24226 5.36022e-20 0.140729)
(-0.22764 0.00447864 7.27598e-20 0.161504 2.37121e-20 -0.027769)
(0.656193 0.0446903 1.87664e-19 0.238722 -3.44651e-20 0.356662)
(0.353151 0.0680977 4.18333e-20 0.166305 -7.37553e-20 0.206483)
(0.137022 0.0551339 -5.64724e-22 0.226179 -7.56469e-20 0.143983)
(-0.16229 0.00308733 -1.28628e-19 0.15562 -4.63716e-20 -0.003965)
(0.613734 0.0419027 -8.60451e-20 0.220304 -2.82162e-20 0.332329)
(0.348611 0.0627617 -1.24054e-20 0.157367 1.71005e-19 0.201109)
(0.159601 0.0502797 -2.79822e-19 0.210402 1.96288e-19 0.146721)
(-0.101757 0.00177654 -1.03606e-19 0.149216 -3.68697e-21 0.0177044)
(0.575104 0.0390784 4.55228e-19 0.20251 -9.10845e-20 0.309776)
(0.344716 0.0574726 -1.44459e-19 0.148237 5.17631e-20 0.195916)
(0.180553 0.0455103 5.68649e-20 0.194971 -1.93402e-20 0.148946)
(-0.0460403 0.000555422 3.99098e-19 0.142344 1.0193e-20 0.0372597)
(0.540193 0.0362323 3.30571e-20 0.185373 -1.56514e-20 0.288975)
(0.341406 0.0522604 -1.24333e-20 0.138962 -2.42072e-19 0.190899)
(0.199857 0.040854 -1.38956e-19 0.179924 9.64677e-20 0.150665)
(0.00488949 -0.000566992 -2.61388e-19 0.135053 -7.46564e-20 0.0547328)
(0.508872 0.0333792 1.01846e-20 0.168925 -1.24831e-20 0.269884)
(0.338618 0.0471547 -1.23386e-19 0.129587 9.54738e-21 0.186051)
(0.217497 0.0363387 1.07327e-19 0.165294 1.17611e-19 0.151886)
(0.0510875 -0.00158189 -1.24649e-19 0.127397 5.69168e-20 0.0701666)
(0.480986 0.0305336 -6.93006e-20 0.153188 -2.07815e-20 0.252453)
(0.336285 0.0421845 1.35424e-20 0.120159 2.94618e-19 0.181363)
(0.233467 0.0319915 6.61682e-20 0.151112 -1.9902e-19 0.152619)
(0.0926348 -0.00248073 -1.49662e-19 0.119427 5.81595e-20 0.0836146)
(0.456361 0.0277096 7.17345e-20 0.13818 5.62953e-21 0.236616)
(0.334333 0.0373775 2.50008e-19 0.110721 -1.54128e-19 0.176824)
(0.247771 0.0278386 -2.84997e-19 0.137405 1.49893e-19 0.152874)
(0.129638 -0.00325526 1.20587e-19 0.111196 -1.12367e-19 0.0951407)
(0.434802 0.0249203 -1.34469e-19 0.123912 2.91296e-20 0.222302)
(0.332689 0.0327599 -2.19583e-19 0.101314 -2.19221e-19 0.17242)
(0.260415 0.0239044 1.1731e-19 0.124194 -1.64378e-19 0.152664)
(0.162228 -0.00389763 1.20317e-19 0.102758 7.06496e-20 0.104818)
(0.416094 0.0221778 3.71707e-19 0.110388 -1.22591e-21 0.209426)
(0.331272 0.0283558 -8.26771e-20 0.0919783 2.86788e-19 0.168135)
(0.271419 0.0202119 5.37072e-20 0.111495 -8.55501e-20 0.152003)
(0.190556 -0.00440039 1.48762e-19 0.0941629 -3.93235e-20 0.112728)
(0.400008 0.019493 -3.38813e-20 0.0976063 3.29769e-20 0.197896)
(0.329999 0.0241871 5.88049e-20 0.0827492 -7.04799e-20 0.163951)
(0.280804 0.0167818 -3.41529e-20 0.0993206 -6.24856e-20 0.150903)
(0.214797 -0.00475661 -4.46372e-19 0.0854623 1.37724e-19 0.118961)
(0.386296 0.0168753 9.54932e-20 0.0855589 4.87037e-20 0.187608)
(0.328785 0.0202728 2.12437e-19 0.0736609 4.17652e-20 0.159846)
(0.2886 0.0136324 3.03547e-19 0.0876773 6.19291e-20 0.14938)
(0.235142 -0.00495993 2.26942e-19 0.0767052 1.44599e-19 0.123612)
(0.374697 0.0143327 -4.46639e-19 0.0742324 -5.16741e-20 0.178454)
(0.327542 0.0166294 -6.42419e-20 0.0647444 -2.76843e-19 0.155798)
(0.294842 0.0107795 -6.66849e-19 0.0765685 1.59347e-20 0.147449)
(0.251798 -0.00500466 3.83121e-19 0.0679393 -3.35232e-20 0.126784)
(0.364942 0.0118713 -1.53995e-19 0.0636082 -1.73237e-19 0.170318)
(0.326179 0.0132699 -1.51875e-19 0.0560286 3.40345e-19 0.151782)
(0.299567 0.00823604 3.38398e-19 0.0659935 1.14314e-19 0.145125)
(0.264985 -0.00488582 -1.79166e-19 0.059211 5.10457e-21 0.128583)
(0.356748 0.00949552 6.58706e-20 0.0536639 1.01387e-19 0.163078)
(0.324604 0.0102042 2.0456e-19 0.04754 -8.11437e-20 0.147772)
(0.302817 0.00601183 -4.17592e-19 0.0559485 -7.97669e-20 0.142422)
(0.274932 -0.0045993 -7.63416e-20 0.0505655 3.53166e-20 0.129119)
(0.34983 0.0072082 2.36864e-20 0.0443738 1.24459e-20 0.15661)
(0.322725 0.00743891 -1.39749e-20 0.0393033 4.5772e-21 0.14374)
(0.304637 0.00411374 2.18795e-19 0.0464271 2.84702e-20 0.139356)
(0.281879 -0.0041419 3.98304e-19 0.0420468 -1.0035e-20 0.128505)
(0.343898 0.00501037 4.45809e-20 0.0357097 -8.23655e-20 0.150786)
(0.320446 0.00497728 -2.93193e-19 0.0313419 3.1927e-19 0.139659)
(0.305072 0.00254545 2.08136e-19 0.0374214 -4.80556e-19 0.135943)
(0.286066 -0.00351141 -4.33077e-19 0.033698 -1.15021e-19 0.126855)
(0.338659 0.00290152 -2.18246e-19 0.027642 2.01428e-19 0.145478)
(0.317674 0.00281922 9.03891e-21 0.023678 -6.97681e-19 0.135499)
(0.304168 0.00130752 3.93784e-19 0.0289222 2.26282e-19 0.132196)
(0.287736 -0.00270669 -1.90501e-19 0.0255615 1.99652e-19 0.124283)
(0.333825 0.000879621 -1.91356e-19 0.020141 1.06539e-19 0.140558)
(0.314315 0.000961526 1.29735e-19 0.0163333 1.24948e-19 0.131232)
(0.301972 0.000397432 -2.8032e-19 0.0209204 -2.26684e-20 0.128131)
(0.287132 -0.00172769 9.64878e-20 0.0176793 -2.23975e-19 0.120902)
(0.32911 -0.0010587 -2.11626e-19 0.0131773 -2.60898e-20 0.135901)
(0.310279 -0.000602054 -1.68543e-19 0.00932933 -7.22068e-20 0.12683)
(0.298529 -0.000190269 -1.93663e-19 0.013407 1.19133e-19 0.123763)
(0.28449 -0.000575513 1.52714e-19 0.0100929 -4.88669e-20 0.116825)
(0.324236 -0.00291801 -4.63248e-20 0.00672292 -7.41541e-22 0.131384)
(0.305474 -0.00188059 2.5979e-19 0.00268779 2.15447e-19 0.122266)
(0.293883 -0.000463894 8.08676e-19 0.00637448 1.32613e-19 0.119105)
(0.280042 0.000747591 -5.9462e-20 0.00284407 1.13974e-19 0.11216)
(0.318935 -0.00470399 -1.17398e-19 0.000752252 6.99213e-20 0.126889)
(0.299815 -0.00288589 -2.43352e-19 -0.003569 -3.07555e-19 0.117513)
(0.288075 -0.000434483 -1.16188e-19 -0.000183062 1.64321e-20 0.114173)
(0.27401 0.00223821 -1.99888e-19 -0.00402559 -1.81758e-19 0.107013)
(0.312951 -0.00642329 -1.52619e-19 -0.00475738 2.9784e-21 0.122305)
(0.293217 -0.00363247 4.57633e-20 -0.00941786 -3.85359e-19 0.112548)
(0.281144 -0.000115877 -8.052e-20 -0.00626895 1.54657e-19 0.108979)
(0.266601 0.00389172 4.69565e-20 -0.0104742 2.5107e-20 0.101484)
(0.306047 -0.00808366 -4.40352e-19 -0.00982474 -4.03436e-20 0.11753)
(0.285603 -0.00413772 2.35494e-20 -0.0148346 3.1583e-19 0.107349)
(0.273125 0.00047519 1.30516e-19 -0.0118837 -1.0985e-19 0.103539)
(0.258013 0.00570224 5.52541e-19 -0.0164596 -1.31499e-19 0.0956675)
(0.298 -0.00969402 3.99189e-20 -0.0144644 1.17784e-20 0.112469)
(0.276901 -0.00442234 -3.04199e-19 -0.0197937 -8.58556e-19 0.101898)
(0.26405 0.0013186 -1.14869e-19 -0.0170243 3.22164e-19 0.0978664)
(0.248423 0.00766249 -3.18015e-19 -0.0219394 -9.64882e-20 0.0896524)
(0.288613 -0.0112649 -3.29e-19 -0.0186857 2.39242e-19 0.107039)
(0.267044 -0.00451115 4.12071e-19 -0.0242683 -1.99665e-19 0.0961781)
(0.253945 0.00239031 5.9723e-19 -0.0216835 1.75691e-19 0.0919736)
(0.237988 0.00976363 -3.18564e-19 -0.0268712 3.96076e-20 0.0835184)
(0.277717 -0.012809 -6.50225e-20 -0.0224923 -1.18399e-20 0.10117)
(0.255975 -0.00443425 -7.5979e-20 -0.0282305 -2.73161e-19 0.0901782)
(0.24283 0.0036613 -3.88803e-19 -0.0258495 -4.11281e-20 0.0858736)
(0.226842 0.0119951 -2.48511e-20 -0.0312124 -2.11344e-19 0.0773358)
(0.265173 -0.0143423 -1.78552e-19 -0.0258807 -1.94684e-19 0.09481)
(0.243644 -0.00422885 6.08822e-19 -0.03165 2.45091e-19 0.0838907)
(0.230717 0.00509672 -4.17234e-19 -0.0295041 1.16942e-19 0.0795788)
(0.215089 0.0143443 8.02908e-20 -0.0349202 1.63175e-19 0.0711639)
(0.250881 -0.0158853 -5.41704e-19 -0.0288399 1.32626e-19 0.0879216)
(0.230012 -0.00394153 -4.12624e-19 -0.0344951 -5.59551e-20 0.0773115)
(0.217607 0.00665488 7.01297e-19 -0.0326226 -1.13954e-20 0.0730992)
(0.202802 0.0167971 -6.9893e-19 -0.0379517 8.45573e-20 0.0650479)
(0.234791 -0.0174662 6.96799e-20 -0.0313463 -1.39422e-19 0.0804948)
(0.215047 -0.00363221 1.88753e-19 -0.0367266 1.17104e-19 0.0704447)
(0.203489 0.0082882 -2.01878e-19 -0.0351669 -5.67505e-20 0.0664461)
(0.190015 0.0193393 1.20767e-20 -0.0402611 -1.92791e-19 0.0590209)
(0.216903 -0.0191244 6.74361e-19 -0.0333633 -9.80395e-20 0.0725444)
(0.19871 -0.00337882 -4.49544e-19 -0.0383024 9.98851e-20 0.0632906)
(0.188318 0.00994548 9.14541e-19 -0.0370887 4.9441e-19 0.0596199)
(0.176721 0.021959 1.28367e-19 -0.0417998 -1.01896e-20 0.0530986)
(0.197321 -0.020923 -5.83583e-20 -0.03482 -2.66356e-19 0.0641393)
(0.180979 -0.00329051 -3.54803e-19 -0.0391402 3.20233e-19 0.0558738)
(0.172038 0.0115851 1.34562e-20 -0.0382922 2.81391e-19 0.0526369)
(0.162902 0.0246598 -4.16923e-19 -0.0424975 -5.84716e-20 0.0473021)
(0.176204 -0.0229583 -1.63087e-19 -0.0356106 1.4053e-19 0.0553862)
(0.161681 -0.0035182 2.18647e-19 -0.0391648 -1.52431e-19 0.0481544)
(0.154409 0.0131886 -1.36305e-19 -0.03868 -6.15739e-20 0.0454398)
(0.148483 0.0274705 3.34156e-19 -0.0422619 7.48909e-20 0.0416382)
(0.154077 -0.0254227 5.24061e-19 -0.0354825 1.81776e-19 0.0465959)
(0.140771 -0.00430636 -3.54975e-19 -0.0380887 7.2909e-19 0.0402301)
(0.135293 0.0148226 -3.82141e-19 -0.0379343 -6.71486e-19 0.0381008)
(0.133628 0.0305158 -7.09309e-20 -0.0408709 2.1774e-19 0.0362616)
(0.131342 -0.0285678 -3.43907e-19 -0.0340946 -2.59967e-19 0.0380654)
(0.117135 -0.00595036 8.71641e-20 -0.0359239 1.69563e-19 0.0316501)
(0.113443 0.0166068 7.77669e-19 -0.0360297 -4.16229e-19 0.030131)
(0.118271 0.0339786 -3.57219e-19 -0.0380138 -1.69732e-20 0.0312699)
(0.110278 -0.0328816 1.55811e-21 -0.030484 2.11995e-19 0.0310919)
(0.0912873 -0.00884699 6.37072e-19 -0.0318195 -4.42465e-19 0.0229602)
(0.0892287 0.0187887 -4.2225e-20 -0.0320678 -1.20437e-19 0.0220375)
(0.104115 0.0383095 3.66636e-19 -0.0327924 1.69505e-19 0.0277034)
(0.0898849 -0.037725 3.19588e-20 -0.0248007 8.80871e-20 0.0252146)
(0.0574925 -0.0124205 7.39942e-20 -0.0296028 3.44532e-19 0.0103352)
(0.0566879 0.0206889 -2.24841e-20 -0.0298465 -2.4882e-19 0.0099159)
(0.0894688 0.0427972 -2.9593e-19 -0.0253919 2.24255e-19 0.0248117)
(0.0789889 -0.0405711 5.81314e-19 -0.0197723 9.50269e-20 0.0228736)
(0.0287991 -0.0148135 -6.29927e-19 -0.033209 -1.00137e-19 -0.00257951)
(0.0288705 0.0205547 -1.53702e-19 -0.0333256 -1.90678e-19 -0.00259765)
(0.0826302 0.0449891 -8.10587e-19 -0.0189049 -4.24739e-19 0.0246771)
(0.045314 -0.0292236 -1.40198e-19 -0.0513359 8.09612e-20 -0.00321925)
(-0.0180515 -0.0109691 1.37743e-19 -0.095384 2.50851e-19 -0.0461882)
(-0.0178187 0.0144963 -2.23724e-19 -0.0959697 1.14152e-19 -0.0463294)
(0.0499945 0.0325397 3.14458e-19 -0.0502565 2.31226e-19 -0.000915313)
)
;

boundaryField
{
    plateFix
    {
        type            calculated;
        value           nonuniform List<symmTensor> 4((3.9976 0.374683 -1.39888e-21 1.63369 9.66366e-20 2.25069) (0.949903 -0.390404 1.15076e-23 0.475633 5.59814e-23 0.569098) (-0.903653 -0.245113 7.50434e-23 -0.301711 -6.85114e-23 -0.48326) (-4.26411 0.77391 -1.13284e-21 -1.30248 -8.75206e-20 -2.22858));
    }
    plate
    {
        type            calculated;
        value           nonuniform List<symmTensor> 
168
(
(3.2186 0.000332159 -3.40038e-22 0.448873 3.9086e-20 1.46523)
(-3.11 -0.00105392 -1.59823e-22 0.455329 3.22545e-20 -1.06371)
(3.3429 0.000460802 1.64343e-21 0.44955 -4.19464e-20 1.51518)
(-3.26997 -0.00105827 1.51648e-21 0.455998 7.10859e-21 -1.12748)
(3.47123 0.000930816 -3.39523e-21 0.450364 -3.59119e-20 1.56678)
(-3.45407 -0.00140674 -5.39916e-21 0.456807 -6.69205e-22 -1.20087)
(3.51121 0.00168127 9.72195e-22 0.451149 6.77121e-20 1.58307)
(-3.5173 -0.00205451 4.1064e-21 0.457592 -3.78969e-20 -1.22588)
(3.52479 0.00266709 3.51563e-22 0.451811 1.81436e-21 1.58875)
(-3.55101 -0.00297828 9.51596e-22 0.458258 3.41185e-20 -1.23911)
(3.50903 0.00382042 1.99419e-21 0.452275 -3.02495e-20 1.58262)
(-3.54764 -0.00409469 -5.08621e-22 0.458732 3.53301e-21 -1.23759)
(3.47891 0.00508475 -4.14348e-21 0.452503 -2.69926e-20 1.57066)
(-3.52792 -0.00534309 4.44204e-22 0.458977 2.85315e-20 -1.2296)
(3.43801 0.00640923 3.97467e-21 0.452481 4.79261e-20 1.55429)
(-3.49522 -0.00666619 -1.06267e-21 0.458977 -3.30613e-20 -1.21653)
(3.39069 0.00775633 -4.65592e-21 0.452206 -2.9727e-20 1.53525)
(-3.45477 -0.00802297 -1.75376e-21 0.458732 -3.02606e-21 -1.20044)
(3.33868 0.00909918 1.5438e-21 0.451682 -5.12555e-22 1.51424)
(-3.40806 -0.00938355 1.11289e-20 0.458244 1.1092e-21 -1.18195)
(3.28314 0.0104209 4.60878e-21 0.450912 -2.92912e-21 1.49173)
(-3.35616 -0.010729 -4.31603e-21 0.457517 -3.7663e-21 -1.16147)
(3.22452 0.0117123 -9.33792e-21 0.449896 -1.74167e-20 1.46787)
(-3.29932 -0.0120485 -6.21395e-21 0.456553 -1.54302e-20 -1.13911)
(3.16291 0.0129702 4.08658e-21 0.448629 1.39622e-20 1.44273)
(-3.23758 -0.0133378 8.4342e-21 0.455348 1.6049e-20 -1.11489)
(3.09823 0.014195 1.37323e-21 0.447099 5.25919e-23 1.41626)
(-3.17084 -0.0145962 -5.4738e-21 0.453891 6.40951e-21 -1.08876)
(3.03027 0.0153887 -8.39509e-21 0.445284 -1.34281e-21 1.38836)
(-3.09898 -0.0158253 1.41814e-20 0.452164 -1.46085e-21 -1.0607)
(2.95879 0.0165533 8.27479e-21 0.443157 4.27541e-21 1.35893)
(-3.02187 -0.0170268 6.58856e-21 0.450141 -1.06099e-20 -1.03064)
(2.88353 0.0176892 -5.95925e-21 0.44068 -2.36771e-21 1.32785)
(-2.93935 -0.0182008 -4.81052e-21 0.447786 -1.08423e-21 -0.998559)
(2.80427 0.0187934 4.02375e-20 0.437806 -1.64773e-20 1.29501)
(-2.85128 -0.0193444 1.64666e-21 0.445057 -8.2495e-21 -0.964404)
(2.72081 0.0198611 -3.36591e-20 0.434491 1.03114e-20 1.26032)
(-2.75751 -0.0204531 -1.3973e-20 0.441912 -3.27926e-23 -0.928131)
(2.63296 0.0208754 -3.05492e-20 0.430663 -3.29143e-23 1.22366)
(-2.6579 -0.0215105 1.85265e-20 0.438285 1.13126e-20 -0.889712)
(2.54075 0.0218392 4.65516e-20 0.426323 -2.0133e-23 1.18506)
(-2.5523 -0.0225199 1.16689e-20 0.434178 1.84605e-20 -0.849093)
(2.44372 0.0226757 2.40046e-20 0.42125 -3.74434e-21 1.14424)
(-2.4406 -0.0234077 -1.38107e-21 0.429378 -5.63919e-21 -0.806306)
(2.33908 0.0236397 4.00024e-21 0.415718 8.15396e-22 1.1002)
(-2.31852 -0.0244216 5.52491e-20 0.424153 -7.7882e-21 -0.759535)
(2.22992 0.0246306 -8.61808e-20 0.408853 1.39456e-23 1.05381)
(-2.19051 -0.0254552 -1.2061e-19 0.417668 1.51139e-20 -0.710894)
(2.12339 0.0254479 -6.46334e-21 0.40191 3.69743e-21 1.00844)
(-2.06402 -0.0263178 4.6665e-20 0.411116 6.13057e-21 -0.662891)
(2.0193 0.0262072 2.45713e-20 0.39438 -6.94338e-21 0.963814)
(-1.93968 -0.0271182 -2.65097e-20 0.404006 1.69589e-21 -0.61597)
(1.91785 0.0268596 2.75022e-20 0.386574 8.04518e-21 0.920134)
(-1.81727 -0.0278113 -8.26483e-20 0.396636 -1.86753e-21 -0.569927)
(1.81898 0.0274485 -8.98701e-20 0.378308 -7.65385e-21 0.877301)
(-1.69709 -0.0284392 4.24346e-20 0.388825 8.15943e-21 -0.524952)
(1.72285 0.0279531 7.05579e-20 0.369691 6.964e-21 0.835423)
(-1.57917 -0.0289829 6.02349e-20 0.380672 6.23747e-21 -0.481018)
(1.62949 0.0283873 -7.69941e-20 0.360665 -1.32611e-22 0.794492)
(-1.46369 -0.0294561 -4.15097e-21 0.372118 -6.84411e-21 -0.438225)
(1.53904 0.0287428 3.65185e-20 0.351269 -9.01219e-21 0.754571)
(-1.35079 -0.0298517 -2.40402e-20 0.363196 -4.7766e-21 -0.396609)
(1.45156 0.0290224 -1.92254e-20 0.34149 8.81769e-21 0.715688)
(-1.24063 -0.0301726 8.44889e-20 0.353888 1.76623e-22 -0.356244)
(1.36716 0.0292216 -1.17548e-19 0.331349 -3.25832e-21 0.677891)
(-1.13336 -0.030415 6.36843e-20 0.344207 -1.55255e-22 -0.317185)
(1.28594 0.0293392 7.71631e-20 0.320854 3.71699e-21 0.641223)
(-1.02914 -0.0305781 -5.55969e-20 0.334157 2.42381e-22 -0.279499)
(1.20799 0.0293721 -1.2621e-19 0.310024 -2.31034e-21 0.60573)
(-0.928158 -0.0306589 -8.48204e-20 0.32375 -2.95477e-22 -0.243246)
(1.13341 0.0293181 1.02491e-19 0.298878 -2.5953e-21 0.571457)
(-0.830566 -0.0306557 -5.06701e-21 0.312998 2.21738e-22 -0.20849)
(1.06228 0.0291748 -6.41254e-20 0.287442 1.44879e-21 0.538446)
(-0.736532 -0.0305661 -1.46585e-20 0.301922 9.80245e-23 -0.175287)
(0.994669 0.0289404 -5.54051e-20 0.275744 -7.44098e-22 0.506741)
(-0.646214 -0.0303885 1.04781e-19 0.290542 8.18142e-21 -0.143693)
(0.930649 0.0286136 4.96669e-20 0.263818 -5.17238e-22 0.47638)
(-0.559764 -0.0301214 2.62962e-20 0.278886 5.40642e-22 -0.113756)
(0.870269 0.0281937 1.41464e-19 0.2517 -4.28407e-22 0.447398)
(-0.477319 -0.0297642 -2.21219e-19 0.266986 -5.97486e-21 -0.0855195)
(0.813563 0.0276808 -8.4762e-20 0.239429 1.78432e-21 0.419825)
(-0.399006 -0.0293165 -1.69672e-19 0.254874 1.7192e-21 -0.0590204)
(0.760551 0.0270755 -1.91992e-19 0.227048 -2.28974e-21 0.393685)
(-0.324934 -0.0287787 1.59973e-19 0.24259 2.43301e-21 -0.0342871)
(0.711232 0.0263794 2.35671e-19 0.214602 1.46135e-21 0.368996)
(-0.255193 -0.0281519 -6.75878e-20 0.230174 1.75521e-21 -0.0113393)
(0.665587 0.0255945 2.01742e-19 0.202137 2.25246e-21 0.34577)
(-0.189854 -0.0274376 7.28e-20 0.217667 3.19776e-22 0.00981156)
(0.623576 0.0247237 1.87583e-19 0.189698 -6.68136e-22 0.324007)
(-0.128964 -0.026638 -1.2873e-19 0.205114 -1.9669e-21 0.0291638)
(0.585138 0.0237704 -8.61449e-20 0.177331 -7.00424e-23 0.303703)
(-0.0725496 -0.0257555 -1.03616e-19 0.192558 1.87457e-21 0.046725)
(0.550193 0.0227382 4.55011e-19 0.165082 -1.01818e-21 0.284842)
(-0.0206112 -0.0247931 3.99111e-19 0.180044 6.40727e-22 0.0625123)
(0.518635 0.0216312 3.3009e-20 0.152993 1.60853e-21 0.267401)
(0.0268746 -0.0237538 -2.61545e-19 0.167615 -2.41561e-21 0.0765521)
(0.490343 0.0204536 1.01883e-20 0.141105 -1.17324e-21 0.251347)
(0.0699557 -0.0226406 -1.2449e-19 0.15531 -1.53373e-21 0.08888)
(0.465172 0.0192095 -6.93502e-20 0.129456 1.15101e-21 0.236636)
(0.108704 -0.0214566 -1.49494e-19 0.143169 1.08745e-21 0.0995402)
(0.442958 0.0179031 7.17338e-20 0.118078 5.67905e-23 0.223216)
(0.143215 -0.0202044 1.20334e-19 0.131228 -8.96244e-22 0.108585)
(0.423518 0.0165381 -1.34373e-19 0.107003 -1.29022e-21 0.211027)
(0.173606 -0.0188866 1.20475e-19 0.11952 1.47778e-21 0.116075)
(0.406654 0.0151179 3.71648e-19 0.0962552 3.27098e-21 0.199999)
(0.200016 -0.0175052 1.48673e-19 0.108073 1.13133e-21 0.122077)
(0.39215 0.0136454 -3.38041e-20 0.0858568 -7.74777e-22 0.190054)
(0.2226 -0.0160617 -4.46017e-19 0.0969152 -1.97393e-21 0.126664)
(0.379776 0.0121232 9.56152e-20 0.0758253 8.06879e-22 0.181108)
(0.241534 -0.0145571 2.27278e-19 0.0860678 4.57214e-22 0.129915)
(0.36929 0.0105529 -4.46776e-19 0.0661744 -2.57912e-21 0.17307)
(0.257006 -0.0129918 3.83022e-19 0.075551 1.00192e-21 0.131912)
(0.36044 0.00893584 -1.54404e-19 0.0569144 -3.05966e-22 0.165841)
(0.269216 -0.0113659 -1.79169e-19 0.0653817 -1.18744e-21 0.132744)
(0.352966 0.00727273 6.61617e-20 0.0480526 2.03329e-22 0.159322)