/*--------------------------------*- C++ -*----------------------------------*\
| =========                 |                                                 |
| \\      /  F ield         | OpenFOAM Extend Project: Open source CFD        |
|  \\    /   O peration     | Version:  1.6-ext                               |
|   \\  /    A nd           | Web:      www.extend-project.de                 |
|    \\/     M anipulation  |                                                 |
\*---------------------------------------------------------------------------*/
FoamFile
{
    version     2.0;
    format      ascii;
    class       volVectorField;
    location    "0.7";
    object      Usolid;
}
// * * * * * * * * * * * * * * * * * * * * * * * * * * * * * * * * * * * * * //

dimensions      [0 1 0 0 0 0 0];

internalField   nonuniform List<vector> 
328
(
(8.73278e-08 7.66021e-08 0)
(1.89812e-08 -3.32815e-08 0)
(-2.10589e-08 -1.87936e-08 0)
(-1.01716e-07 1.46002e-07 0)
(2.70525e-07 2.08198e-07 0)
(6.38286e-08 -4.46884e-08 0)
(-7.56187e-08 -2.41759e-09 0)
(-3.13478e-07 3.86173e-07 0)
(4.81192e-07 3.43625e-07 0)
(1.22484e-07 3.33986e-09 0)
(-1.59084e-07 7.18526e-08 0)
(-5.60872e-07 6.02419e-07 0)
(7.10318e-07 5.02289e-07 0)
(1.87113e-07 1.14157e-07 0)
(-2.57473e-07 2.05304e-07 0)
(-8.30673e-07 8.18748e-07 0)
(9.58814e-07 7.02891e-07 0)
(2.57611e-07 2.91549e-07 0)
(-3.71661e-07 4.00969e-07 0)
(-1.12484e-06 1.05949e-06 0)
(1.22463e-06 9.6217e-07 0)
(3.31807e-07 5.42891e-07 0)
(-4.97294e-07 6.65986e-07 0)
(-1.44066e-06 1.34565e-06 0)
(1.5077e-06 1.29622e-06 0)
(4.09533e-07 8.77594e-07 0)
(-6.33675e-07 1.01014e-06 0)
(-1.77841e-06 1.69683e-06 0)
(1.80778e-06 1.7211e-06 0)
(4.90479e-07 1.30779e-06 0)
(-7.79446e-07 1.44617e-06 0)
(-2.13793e-06 2.13174e-06 0)
(2.12512e-06 2.25376e-06 0)
(5.74861e-07 1.84805e-06 0)
(-9.34288e-07 1.98943e-06 0)
(-2.51978e-06 2.66939e-06 0)
(2.46004e-06 2.91271e-06 0)
(6.62912e-07 2.51566e-06 0)
(-1.09795e-06 2.65796e-06 0)
(-2.92451e-06 3.3298e-06 0)
(2.81299e-06 3.71866e-06 0)
(7.54941e-07 3.33073e-06 0)
(-1.27051e-06 3.47255e-06 0)
(-3.3528e-06 4.13485e-06 0)
(3.18443e-06 4.69506e-06 0)
(8.51212e-07 4.31647e-06 0)
(-1.45215e-06 4.45695e-06 0)
(-3.80531e-06 5.10878e-06 0)
(3.57478e-06 5.86852e-06 0)
(9.51934e-07 5.49946e-06 0)
(-1.64314e-06 5.63814e-06 0)
(-4.28264e-06 6.27875e-06 0)
(3.98443e-06 7.26931e-06 0)
(1.05724e-06 6.91e-06 0)
(-1.84378e-06 7.04666e-06 0)
(-4.7853e-06 7.67537e-06 0)
(4.41364e-06 8.93174e-06 0)
(1.1672e-06 8.58246e-06 0)
(-2.05437e-06 8.71703e-06 0)
(-5.31366e-06 9.3331e-06 0)
(4.86253e-06 1.08946e-05 0)
(1.28181e-06 1.05557e-05 0)
(-2.27516e-06 1.06882e-05 0)
(-5.86795e-06 1.12908e-05 0)
(5.33108e-06 1.32017e-05 0)
(1.401e-06 1.28735e-05 0)
(-2.50629e-06 1.30038e-05 0)
(-6.44818e-06 1.35921e-05 0)
(5.81905e-06 1.5902e-05 0)
(1.52466e-06 1.5585e-05 0)
(-2.74785e-06 1.5713e-05 0)
(-7.05414e-06 1.62862e-05 0)
(6.32598e-06 1.90506e-05 0)
(1.65259e-06 1.87453e-05 0)
(-2.99975e-06 1.88708e-05 0)
(-7.68535e-06 1.94277e-05 0)
(6.85115e-06 2.27087e-05 0)
(1.78457e-06 2.24155e-05 0)
(-3.26177e-06 2.25384e-05 0)
(-8.341e-06 2.3078e-05 0)
(7.39353e-06 2.69445e-05 0)
(1.92029e-06 2.66638e-05 0)
(-3.53349e-06 2.67838e-05 0)
(-9.01987e-06 2.73049e-05 0)
(7.95184e-06 3.18332e-05 0)
(2.05944e-06 3.15655e-05 0)
(-3.81431e-06 3.16822e-05 0)
(-9.72034e-06 3.21837e-05 0)
(8.546e-06 3.7672e-05 0)
(2.20695e-06 3.74183e-05 0)
(-4.1144e-06 3.75311e-05 0)
(-1.04676e-05 3.80111e-05 0)
(9.14958e-06 4.43874e-05 0)
(2.35619e-06 4.41479e-05 0)
(-4.42026e-06 4.42565e-05 0)
(-1.12284e-05 4.47134e-05 0)
(9.72149e-06 5.15443e-05 0)
(2.49722e-06 5.13185e-05 0)
(-4.71082e-06 5.14226e-05 0)
(-1.19503e-05 5.18568e-05 0)
(1.02626e-05 5.91194e-05 0)
(2.63043e-06 5.89068e-05 0)
(-4.98617e-06 5.90062e-05 0)
(-1.26339e-05 5.94178e-05 0)
(1.07736e-05 6.70896e-05 0)
(2.75621e-06 6.68897e-05 0)
(-5.24636e-06 6.69843e-05 0)
(-1.32798e-05 6.73735e-05 0)
(1.12556e-05 7.54326e-05 0)
(2.87496e-06 7.52448e-05 0)
(-5.49148e-06 7.53343e-05 0)
(-1.38884e-05 7.57015e-05 0)
(1.17093e-05 8.41262e-05 0)
(2.98709e-06 8.39499e-05 0)
(-5.72161e-06 8.40344e-05 0)
(-1.44604e-05 8.43796e-05 0)
(1.21357e-05 9.31489e-05 0)
(3.09299e-06 9.29837e-05 0)
(-5.93687e-06 9.30628e-05 0)
(-1.49964e-05 9.33865e-05 0)
(1.25357e-05 0.00010248 0)
(3.19309e-06 0.000102325 0)
(-6.13737e-06 0.000102399 0)
(-1.5497e-05 0.000102701 0)
(1.29104e-05 0.000112098 0)
(3.28779e-06 0.000111953 0)
(-6.32326e-06 0.000112021 0)
(-1.59629e-05 0.000112303 0)
(1.32606e-05 0.000121984 0)
(3.37753e-06 0.000121849 0)
(-6.49469e-06 0.000121911 0)
(-1.63949e-05 0.000122172 0)
(1.35875e-05 0.000132118 0)
(3.46272e-06 0.000131992 0)
(-6.65186e-06 0.000132048 0)
(-1.67938e-05 0.000132289 0)
(1.38921e-05 0.000142482 0)
(3.54379e-06 0.000142364 0)
(-6.79496e-06 0.000142415 0)
(-1.71604e-05 0.000142636 0)
(1.41755e-05 0.000153058 0)
(3.62118e-06 0.000152947 0)
(-6.92423e-06 0.000152992 0)
(-1.74955e-05 0.000153193 0)
(1.44388e-05 0.000163828 0)
(3.69531e-06 0.000163723 0)
(-7.03994e-06 0.000163763 0)
(-1.78003e-05 0.000163945 0)
(1.46831e-05 0.000174775 0)
(3.76659e-06 0.000174677 0)
(-7.14236e-06 0.00017471 0)
(-1.80755e-05 0.000174875 0)
(1.49096e-05 0.000185884 0)
(3.83544e-06 0.000185791 0)
(-7.23182e-06 0.000185819 0)
(-1.83224e-05 0.000185965 0)
(1.51195e-05 0.000197139 0)
(3.90226e-06 0.000197052 0)
(-7.30867e-06 0.000197073 0)
(-1.85419e-05 0.000197202 0)
(1.53139e-05 0.000208526 0)
(3.96744e-06 0.000208443 0)
(-7.37327e-06 0.000208459 0)
(-1.87353e-05 0.000208571 0)
(1.54939e-05 0.000220031 0)
(4.03137e-06 0.000219953 0)
(-7.42604e-06 0.000219962 0)
(-1.89037e-05 0.000220059 0)
(1.56607e-05 0.000231642 0)
(4.09439e-06 0.000231567 0)
(-7.46741e-06 0.000231571 0)
(-1.90484e-05 0.000231652 0)
(1.58155e-05 0.000243346 0)
(4.15685e-06 0.000243274 0)
(-7.49784e-06 0.000243272 0)
(-1.91706e-05 0.000243339 0)
(1.59593e-05 0.000255133 0)
(4.21907e-06 0.000255063 0)
(-7.5178e-06 0.000255055 0)
(-1.92717e-05 0.000255109 0)
(1.60933e-05 0.000266992 0)
(4.28133e-06 0.000266924 0)
(-7.52782e-06 0.00026691 0)
(-1.93528e-05 0.000266951 0)
(1.62186e-05 0.000278913 0)
(4.3439e-06 0.000278847 0)
(-7.52841e-06 0.000278828 0)
(-1.94154e-05 0.000278856 0)
(1.63361e-05 0.000290888 0)
(4.40701e-06 0.000290823 0)
(-7.52012e-06 0.000290799 0)
(-1.94608e-05 0.000290815 0)
(1.64468e-05 0.000302909 0)
(4.47089e-06 0.000302844 0)
(-7.50351e-06 0.000302815 0)
(-1.94903e-05 0.000302821 0)
(1.65517e-05 0.000314969 0)
(4.5357e-06 0.000314904 0)
(-7.47916e-06 0.00031487 0)
(-1.95053e-05 0.000314866 0)
(1.66517e-05 0.000327061 0)
(4.60159e-06 0.000326997 0)
(-7.44764e-06 0.000326958 0)
(-1.9507e-05 0.000326945 0)
(1.67475e-05 0.000339181 0)
(4.66868e-06 0.000339116 0)
(-7.40953e-06 0.000339073 0)
(-1.94967e-05 0.000339051 0)
(1.68399e-05 0.000351323 0)
(4.73705e-06 0.000351257 0)
(-7.36541e-06 0.000351209 0)
(-1.94758e-05 0.00035118 0)
(1.69296e-05 0.000363482 0)
(4.80674e-06 0.000363415 0)
(-7.31588e-06 0.000363364 0)
(-1.94453e-05 0.000363327 0)
(1.70172e-05 0.000375656 0)
(4.87778e-06 0.000375588 0)
(-7.26151e-06 0.000375533 0)
(-1.94065e-05 0.00037549 0)
(1.71032e-05 0.000387841 0)
(4.95013e-06 0.000387772 0)
(-7.20287e-06 0.000387714 0)
(-1.93606e-05 0.000387665 0)
(1.71882e-05 0.000400036 0)
(5.02375e-06 0.000399965 0)
(-7.14052e-06 0.000399903 0)
(-1.93085e-05 0.00039985 0)
(1.72724e-05 0.000412237 0)
(5.09855e-06 0.000412165 0)
(-7.07502e-06 0.000412101 0)
(-1.92513e-05 0.000412043 0)
(1.73561e-05 0.000424444 0)
(5.1744e-06 0.00042437 0)
(-7.00689e-06 0.000424303 0)
(-1.91899e-05 0.000424242 0)
(1.74397e-05 0.000436655 0)
(5.25116e-06 0.000436581 0)
(-6.93666e-06 0.000436511 0)
(-1.91253e-05 0.000436447 0)
(1.75231e-05 0.000448871 0)
(5.32863e-06 0.000448794 0)
(-6.86484e-06 0.000448723 0)
(-1.90582e-05 0.000448656 0)
(1.76066e-05 0.000461089 0)
(5.4066e-06 0.000461012 0)
(-6.79193e-06 0.000460939 0)
(-1.89895e-05 0.00046087 0)
(1.76899e-05 0.000473311 0)
(5.48479e-06 0.000473232 0)
(-6.71839e-06 0.000473158 0)
(-1.89198e-05 0.000473087 0)
(1.7773e-05 0.000485536 0)
(5.56294e-06 0.000485456 0)
(-6.6447e-06 0.000485381 0)
(-1.88497e-05 0.000485309 0)
(1.78558e-05 0.000497764 0)
(5.64072e-06 0.000497684 0)
(-6.5713e-06 0.000497608 0)
(-1.87799e-05 0.000497535 0)
(1.7938e-05 0.000509996 0)
(5.71778e-06 0.000509916 0)
(-6.49863e-06 0.000509839 0)
(-1.87109e-05 0.000509766 0)
(1.80191e-05 0.000522231 0)
(5.79375e-06 0.000522151 0)
(-6.42712e-06 0.000522075 0)
(-1.8643e-05 0.000522002 0)
(1.8099e-05 0.000534471 0)
(5.86822e-06 0.000534391 0)
(-6.35717e-06 0.000534315 0)
(-1.85769e-05 0.000534242 0)
(1.81769e-05 0.000546715 0)
(5.94076e-06 0.000546636 0)
(-6.2892e-06 0.000546561 0)
(-1.85128e-05 0.000546489 0)
(1.82526e-05 0.000558964 0)
(6.01091e-06 0.000558886 0)
(-6.22361e-06 0.000558812 0)
(-1.8451e-05 0.000558741 0)
(1.83253e-05 0.000571218 0)
(6.0782e-06 0.000571141 0)
(-6.16081e-06 0.000571069 0)
(-1.8392e-05 0.000570999 0)
(1.83946e-05 0.000583476 0)
(6.14213e-06 0.000583401 0)
(-6.10119e-06 0.000583331 0)
(-1.83359e-05 0.000583262 0)
(1.84597e-05 0.000595739 0)
(6.20219e-06 0.000595667 0)
(-6.04516e-06 0.000595598 0)
(-1.82832e-05 0.000595532 0)
(1.85201e-05 0.000608006 0)
(6.25784e-06 0.000607937 0)
(-5.99315e-06 0.000607871 0)
(-1.8234e-05 0.000607807 0)
(1.8575e-05 0.000620277 0)
(6.30853e-06 0.000620211 0)
(-5.94562e-06 0.000620149 0)
(-1.81888e-05 0.000620087 0)
(1.8624e-05 0.00063255 0)
(6.35368e-06 0.000632489 0)
(-5.90306e-06 0.00063243 0)
(-1.81478e-05 0.000632372 0)
(1.86664e-05 0.000644826 0)
(6.39259e-06 0.000644769 0)
(-5.86613e-06 0.000644715 0)
(-1.81114e-05 0.000644661 0)
(1.87018e-05 0.000657102 0)
(6.42455e-06 0.000657051 0)
(-5.83553e-06 0.000657003 0)
(-1.808e-05 0.000656952 0)
(1.87298e-05 0.000669378 0)
(6.44818e-06 0.000669333 0)
(-5.81268e-06 0.000669292 0)
(-1.80541e-05 0.000669246 0)
(1.87509e-05 0.000681653 0)
(6.46272e-06 0.000681613 0)
(-5.79843e-06 0.000681581 0)
(-1.80335e-05 0.000681542 0)
(1.87642e-05 0.00069393 0)
(6.46485e-06 0.000693895 0)
(-5.79628e-06 0.000693868 0)
(-1.80195e-05 0.000693833 0)
(1.87765e-05 0.000706227 0)
(6.46334e-06 0.000706182 0)
(-5.79753e-06 0.000706146 0)
(-1.80056e-05 0.000706101 0)
)
;

boundaryField
{
    plateFix
    {
        type            fixedDisplacement;
        value           uniform (0 0 0);
    }
    plate
    {
        type            solidTraction;
        nonLinear       updatedLagrangian;
        traction        uniform (0 0 0);
        pressure        uniform 0;
        value           nonuniform List<vector> 
168
(
(4.36681e-07 3.33547e-07 -1.00699e-25)
(-7.57779e-07 5.21769e-07 -9.14414e-26)
(5.80846e-07 4.77371e-07 1.8063e-25)
(-8.47407e-07 7.78106e-07 -3.24596e-26)
(7.99136e-07 6.25563e-07 4.48033e-26)
(-1.03184e-06 1.0128e-06 1.24034e-25)
(1.07188e-06 7.88149e-07 -5.25982e-26)
(-1.29395e-06 1.23552e-06 2.59725e-26)
(1.39e-06 9.90069e-07 -6.83201e-26)
(-1.62248e-06 1.47967e-06 -7.95537e-26)
(1.74314e-06 1.24776e-06 7.72565e-26)
(-2.00191e-06 1.76551e-06 2.63121e-26)
(2.12603e-06 1.57883e-06 -9.06304e-26)
(-2.42403e-06 2.11471e-06 2.57875e-26)
(2.53519e-06 1.9997e-06 5.59114e-27)
(-2.88296e-06 2.5463e-06 -7.17206e-26)
(2.9692e-06 2.52774e-06 -4.55732e-26)
(-3.37578e-06 3.07981e-06 9.21517e-26)
(3.42767e-06 3.18165e-06 9.35364e-26)
(-3.90103e-06 3.73543e-06 -7.24803e-26)
(3.91086e-06 3.98226e-06 -6.14788e-26)
(-4.45829e-06 4.53512e-06 9.47722e-27)
(4.41933e-06 4.95304e-06 8.58261e-26)
(-5.04765e-06 5.50316e-06 1.5931e-26)
(4.95372e-06 6.12063e-06 -6.51321e-26)
(-5.66948e-06 6.66672e-06 2.44344e-26)
(5.51462e-06 7.51529e-06 2.97293e-27)
(-6.32418e-06 8.05637e-06 -3.68868e-26)
(6.10247e-06 9.17131e-06 9.73716e-27)
(-7.0121e-06 9.70658e-06 1.31184e-26)
(6.7175e-06 1.11275e-05 4.99175e-27)
(-7.73346e-06 1.16562e-05 -2.235e-26)
(7.3597e-06 1.34275e-05 3.26309e-26)
(-8.48825e-06 1.39488e-05 2.12772e-26)
(8.02878e-06 1.61205e-05 -8.68296e-27)
(-9.27617e-06 1.66335e-05 -6.5558e-26)
(8.72412e-06 1.92614e-05 -2.06293e-26)
(-1.00966e-05 1.97651e-05 4.6736e-26)
(9.44474e-06 2.29115e-05 1.37516e-26)
(-1.09484e-05 2.34048e-05 6.18402e-27)
(1.01892e-05 2.71389e-05 -1.2492e-26)
(-1.183e-05 2.76203e-05 3.15593e-26)
(1.09557e-05 3.20189e-05 1.77631e-26)
(-1.27392e-05 3.2487e-05 -2.34583e-27)
(1.17713e-05 3.78484e-05 -1.33179e-26)
(-1.37086e-05 3.83012e-05 -1.64589e-26)
(1.26008e-05 4.45541e-05 1.71663e-26)
(-1.46959e-05 4.49895e-05 3.76887e-26)
(1.33869e-05 5.17017e-05 -3.03649e-26)
(-1.56326e-05 5.21191e-05 -4.32491e-26)
(1.41306e-05 5.92678e-05 4.01844e-26)
(-1.65194e-05 5.96664e-05 1.98963e-26)
(1.4833e-05 6.72294e-05 2.17805e-26)
(-1.7357e-05 6.76085e-05 -4.86252e-26)
(1.54952e-05 7.5564e-05 -3.79235e-26)
(-1.81463e-05 7.59231e-05 8.12205e-26)
(1.61184e-05 8.42496e-05 -1.26827e-27)
(-1.8888e-05 8.4588e-05 -6.67814e-26)
(1.67036e-05 9.32645e-05 4.25362e-27)
(-1.95831e-05 9.35818e-05 -3.66185e-27)
(1.72521e-05 0.000102588 -8.27551e-27)
(-2.02324e-05 0.000102884 3.39018e-26)
(1.77651e-05 0.000112199 -1.01051e-26)
(-2.0837e-05 0.000112473 1.18228e-27)
(1.82441e-05 0.000122079 5.75072e-27)
(-2.13978e-05 0.000122329 -1.48052e-26)
(1.86902e-05 0.000132207 3.18283e-26)
(-2.19159e-05 0.000132434 -3.06058e-26)
(1.91048e-05 0.000142565 1.58605e-27)
(-2.23926e-05 0.000142769 4.88814e-26)
(1.94895e-05 0.000153135 -2.58268e-27)
(-2.2829e-05 0.000153316 -4.99845e-26)
(1.98456e-05 0.000163899 1.24703e-26)
(-2.32264e-05 0.000164056 4.01396e-26)
(2.01747e-05 0.000174841 -3.29305e-26)
(-2.35862e-05 0.000174975 3.08118e-26)
(2.04782e-05 0.000185946 -1.30656e-27)
(-2.39098e-05 0.000186055 -2.63575e-26)
(2.07577e-05 0.000197197 1.28215e-26)
(-2.41987e-05 0.000197282 2.72198e-26)
(2.10147e-05 0.00020858 5.24692e-27)
(-2.44544e-05 0.000208641 -9.11442e-26)
(2.12509e-05 0.000220082 -2.8928e-26)
(-2.46786e-05 0.000220119 3.33873e-26)
(2.14677e-05 0.00023169 -2.87243e-26)
(-2.48728e-05 0.000231704 -2.07027e-26)
(2.16668e-05 0.000243391 -6.37102e-27)
(-2.50387e-05 0.000243382 -3.96365e-27)
(2.18496e-05 0.000255176 -5.06508e-26)
(-2.51781e-05 0.000255144 2.99803e-26)
(2.20177e-05 0.000267033 -5.54178e-27)
(-2.52926e-05 0.000266978 1.40331e-26)
(2.21725e-05 0.000278952 -1.27685e-25)
(-2.5384e-05 0.000278876 -1.59323e-26)
(2.23154e-05 0.000290926 -2.26533e-27)
(-2.54541e-05 0.000290829 7.26629e-26)
(2.24479e-05 0.000302946 2.24582e-26)
(-2.55046e-05 0.000302828 -6.22412e-26)
(2.25713e-05 0.000315005 -4.81924e-26)
(-2.55371e-05 0.000314868 -5.62702e-26)
(2.26867e-05 0.000327097 -1.20748e-27)
(-2.55534e-05 0.000326941 8.01952e-26)
(2.27954e-05 0.000339216 2.87905e-26)
(-2.55551e-05 0.000339043 -2.95981e-26)
(2.28986e-05 0.000351358 4.42243e-27)
(-2.55438e-05 0.000351167 5.31379e-26)
(2.29971e-05 0.000363518 4.66963e-26)
(-2.55211e-05 0.000363311 -1.66738e-25)
(2.30919e-05 0.000375692 3.38829e-26)
(-2.54885e-05 0.00037547 -9.51422e-26)
(2.31838e-05 0.000387877 -5.68383e-26)
(-2.54472e-05 0.000387642 -9.95342e-27)
(2.32735e-05 0.000400072 -1.61483e-25)
(-2.53988e-05 0.000399824 -4.83786e-29)
(2.33617e-05 0.000412274 9.78365e-26)
(-2.53443e-05 0.000412015 -3.48947e-26)
(2.34489e-05 0.000424482 1.96623e-26)
(-2.52851e-05 0.000424212 8.458e-27)
(2.35354e-05 0.000436694 -6.45054e-26)
(-2.52221e-05 0.000436415 1.18936e-25)
(2.36215e-05 0.000448909 1.83383e-25)
(-2.51563e-05 0.000448623 -2.14496e-25)
(2.37075e-05 0.000461129 9.429e-26)
(-2.50887e-05 0.000460835 2.38932e-25)
(2.37933e-05 0.000473351 -1.73574e-26)
(-2.502e-05 0.000473052 6.24742e-26)
(2.38791e-05 0.000485576 -1.75909e-27)
(-2.49511e-05 0.000485273 -1.26748e-25)
(2.39646e-05 0.000497805 7.5151e-26)
(-2.48824e-05 0.000497499 1.82624e-25)
(2.40496e-05 0.000510037 1.30248e-26)
(-2.48146e-05 0.00050973 -3.36506e-26)
(2.41338e-05 0.000522272 -4.99546e-26)
(-2.47481e-05 0.000521965 1.35978e-25)
(2.42168e-05 0.000534512 5.57056e-27)
(-2.46835e-05 0.000534206 9.57442e-26)
(2.42982e-05 0.000546756 2.47216e-25)
(-2.46209e-05 0.000546453 -3.17563e-26)
(2.43773e-05 0.000559004 -1.84969e-26)
(-2.45608e-05 0.000558705 2.11628e-25)
(2.44535e-05 0.000571257 -1.88768e-25)
(-2.45034e-05 0.000570964 -1.63101e-25)
(2.45263e-05 0.000583514 1.34099e-25)
(-2.4449e-05 0.000583229 -9.00247e-26)
(2.45948e-05 0.000595775 -1.43101e-25)
(-2.43976e-05 0.000595499 1.91106e-25)
(2.46584e-05 0.000608041 -1.03199e-25)
(-2.43497e-05 0.000607775 9.80634e-27)
(2.47164e-05 0.00062031 -2.52986e-25)
(-2.43054e-05 0.000620057 5.77895e-26)
(2.47679e-05 0.000632581 1.24359e-25)
(-2.42649e-05 0.000632343 -7.01994e-26)
(2.48125e-05 0.000644855 1.85716e-25)
(-2.42287e-05 0.000644633 -2.15873e-25)
(2.48495e-05 0.000657129 -2.59893e-25)
(-2.41969e-05 0.000656927 1.40084e-26)
(2.48787e-05 0.000669402 2.174e-25)
(-2.41701e-05 0.000669223 -1.71022e-25)
(2.49021e-05 0.000681674 8.56607e-26)
(-2.41464e-05 0.000681521 -2.26179e-25)
(2.49235e-05 0.00069395 9.24342e-26)
(-2.41225e-05 0.000693813 4.2266e-25)
(2.49614e-05 0.000706245 8.17533e-26)
(1.87793e-05 0.00071241 1.40313e-25)
(6.46282e-06 0.000712334 -1.3883e-25)
(-5.79786e-06 0.000712276 2.2385e-25)
(-1.80021e-05 0.000712198 -3.14925e-25)
(-2.40807e-05 0.000706083 -2.29684e-25)
)
;
    }
    frontAndBackPlanes
    {
        type            empty;
    }
}


// ************************************************************************* //
