/*--------------------------------*- C++ -*----------------------------------*\
| =========                 |                                                 |
| \\      /  F ield         | OpenFOAM Extend Project: Open source CFD        |
|  \\    /   O peration     | Version:  1.6-ext                               |
|   \\  /    A nd           | Web:      www.extend-project.de                 |
|    \\/     M anipulation  |                                                 |
\*---------------------------------------------------------------------------*/
FoamFile
{
    version     2.0;
    format      ascii;
    class       volScalarField::DimensionedInternalField;
    location    "0.7";
    object      V0;
}
// * * * * * * * * * * * * * * * * * * * * * * * * * * * * * * * * * * * * * //

dimensions      [0 3 0 0 0 0 0];

value           nonuniform List<scalar> 
328
(
2.53356e-07
2.53349e-07
2.53325e-07
2.53327e-07
2.71724e-07
2.71715e-07
2.71697e-07
2.71702e-07
2.9143e-07
2.91414e-07
2.91399e-07
2.91395e-07
3.12562e-07
3.12542e-07
3.12529e-07
3.12518e-07
3.35225e-07
3.35202e-07
3.3519e-07
3.35173e-07
3.59531e-07
3.59506e-07
3.59494e-07
3.59473e-07
3.85599e-07
3.85571e-07
3.85559e-07
3.85535e-07
4.13556e-07
4.13527e-07
4.13515e-07
4.13488e-07
4.4354e-07
4.4351e-07
4.43497e-07
4.43467e-07
4.75698e-07
4.75666e-07
4.75652e-07
4.75621e-07
5.10188e-07
5.10154e-07
5.1014e-07
5.10106e-07
5.47178e-07
5.47142e-07
5.47127e-07
5.47092e-07
5.8685e-07
5.86812e-07
5.86796e-07
5.86759e-07
6.29398e-07
6.29359e-07
6.29342e-07
6.29303e-07
6.75031e-07
6.7499e-07
6.74972e-07
6.74931e-07
7.23972e-07
7.23929e-07
7.23911e-07
7.23868e-07
7.76462e-07
7.76417e-07
7.76398e-07
7.76353e-07
8.32758e-07
8.32711e-07
8.32691e-07
8.32644e-07
8.93134e-07
8.93086e-07
8.93065e-07
8.93016e-07
9.57888e-07
9.57838e-07
9.57817e-07
9.57766e-07
1.02734e-06
1.02729e-06
1.02726e-06
1.02721e-06
1.10182e-06
1.10177e-06
1.10174e-06
1.10169e-06
1.26877e-06
1.26871e-06
1.26869e-06
1.26863e-06
1.26877e-06
1.26871e-06
1.26869e-06
1.26863e-06
1.26876e-06
1.26871e-06
1.26869e-06
1.26864e-06
1.26876e-06
1.26871e-06
1.26869e-06
1.26864e-06
1.26876e-06
1.26871e-06
1.26869e-06
1.26864e-06
1.26875e-06
1.26871e-06
1.26869e-06
1.26865e-06
1.26875e-06
1.26871e-06
1.26869e-06
1.26865e-06
1.26875e-06
1.26871e-06
1.26869e-06
1.26865e-06
1.26874e-06
1.26871e-06
1.26869e-06
1.26866e-06
1.26874e-06
1.26871e-06
1.26869e-06
1.26866e-06
1.26874e-06
1.26871e-06
1.26869e-06
1.26866e-06
1.26874e-06
1.26871e-06
1.2687e-06
1.26867e-06
1.26873e-06
1.26871e-06
1.2687e-06
1.26867e-06
1.26873e-06
1.26871e-06
1.2687e-06
1.26867e-06
1.26873e-06
1.26871e-06
1.2687e-06
1.26867e-06
1.26873e-06
1.26871e-06
1.2687e-06
1.26868e-06
1.26872e-06
1.26871e-06
1.2687e-06
1.26868e-06
1.26872e-06
1.2687e-06
1.2687e-06
1.26868e-06
1.26872e-06
1.2687e-06
1.2687e-06
1.26868e-06
1.26872e-06
1.2687e-06
1.2687e-06
1.26869e-06
1.26872e-06
1.2687e-06
1.2687e-06
1.26869e-06
1.26871e-06
1.2687e-06
1.2687e-06
1.26869e-06
1.26871e-06
1.2687e-06
1.2687e-06
1.26869e-06
1.26871e-06
1.2687e-06
1.2687e-06
1.26869e-06
1.26871e-06
1.2687e-06
1.2687e-06
1.26869e-06
1.26871e-06
1.2687e-06
1.2687e-06
1.26869e-06
1.26871e-06
1.2687e-06
1.2687e-06
1.2687e-06
1.26871e-06
1.2687e-06
1.2687e-06
1.2687e-06
1.26871e-06
1.2687e-06
1.2687e-06
1.2687e-06
1.2687e-06
1.2687e-06
1.2687e-06
1.2687e-06
1.2687e-06
1.2687e-06
1.2687e-06
1.2687e-06
1.2687e-06
1.2687e-06
1.2687e-06
1.2687e-06
1.2687e-06
1.2687e-06
1.2687e-06
1.2687e-06
1.2687e-06
1.2687e-06
1.2687e-06
1.2687e-06
1.2687e-06
1.2687e-06
1.2687e-06
1.2687e-06
1.2687e-06
1.2687e-06
1.2687e-06
1.2687e-06
1.2687e-06
1.2687e-06
1.2687e-06
1.2687e-06
1.2687e-06
1.2687e-06
1.2687e-06
1.2687e-06
1.2687e-06
1.2687e-06
1.2687e-06
1.2687e-06
1.2687e-06
1.2687e-06
1.2687e-06
1.2687e-06
1.2687e-06
1.2687e-06
1.2687e-06
1.2687e-06
1.2687e-06
1.2687e-06
1.2687e-06
1.2687e-06
1.2687e-06
1.2687e-06
1.2687e-06
1.2687e-06
1.2687e-06
1.2687e-06
1.2687e-06
1.2687e-06
1.2687e-06
1.2687e-06
1.2687e-06
1.2687e-06
1.2687e-06
1.2687e-06
1.2687e-06
1.2687e-06
1.2687e-06
1.2687e-06
1.2687e-06
1.2687e-06
1.2687e-06
1.2687e-06
1.2687e-06
1.2687e-06
1.2687e-06
1.2687e-06
1.2687e-06
1.2687e-06
1.2687e-06
1.2687e-06
1.2687e-06
1.2687e-06
1.2687e-06
1.2687e-06
1.2687e-06
1.2687e-06
1.2687e-06
1.2687e-06
1.2687e-06
1.2687e-06
1.2687e-06
1.2687e-06
1.2687e-06
1.2687e-06
1.2687e-06
1.2687e-06
1.2687e-06
1.26869e-06
1.2687e-06
1.2687e-06
1.26869e-06
1.26869e-06
1.26869e-06
1.26869e-06
1.26869e-06
1.26869e-06
1.26869e-06
1.26869e-06
1.26869e-06
1.26869e-06
1.26869e-06
1.26869e-06
1.26869e-06
1.26869e-06
1.26869e-06
1.26869e-06
1.26869e-06
1.2687e-06
1.26869e-06
1.26869e-06
1.26869e-06
1.26869e-06
)
;


// ************************************************************************* //
