/*--------------------------------*- C++ -*----------------------------------*\
| =========                 |                                                 |
| \\      /  F ield         | OpenFOAM Extend Project: Open source CFD        |
|  \\    /   O peration     | Version:  1.6-ext                               |
|   \\  /    A nd           | Web:      www.extend-project.de                 |
|    \\/     M anipulation  |                                                 |
\*---------------------------------------------------------------------------*/
FoamFile
{
    version     2.0;
    format      ascii;
    class       volVectorField;
    location    "0.7";
    object      Vs;
}
// * * * * * * * * * * * * * * * * * * * * * * * * * * * * * * * * * * * * * //

dimensions      [0 1 -1 0 0 0 0];

internalField   nonuniform List<vector> 
328
(
(3.78923e-06 5.04932e-07 0)
(3.48512e-06 -1.23255e-07 0)
(3.34083e-06 -1.78916e-07 0)
(3.13299e-06 1.71268e-07 0)
(1.16537e-05 1.366e-06 0)
(1.07516e-05 -1.61457e-07 0)
(1.02495e-05 -3.68265e-07 0)
(9.6156e-06 3.99966e-07 0)
(2.01834e-05 2.16738e-06 0)
(1.86557e-05 1.52568e-08 0)
(1.76405e-05 -3.7486e-07 0)
(1.65221e-05 6.07462e-07 0)
(2.93648e-05 2.97199e-06 0)
(2.71868e-05 4.05509e-07 0)
(2.55803e-05 -1.79446e-07 0)
(2.39177e-05 8.83786e-07 0)
(3.92507e-05 3.85485e-06 0)
(3.63952e-05 1.01459e-06 0)
(3.41143e-05 2.38879e-07 0)
(3.18403e-05 1.30726e-06 0)
(4.98768e-05 4.88462e-06 0)
(4.63108e-05 1.86385e-06 0)
(4.32943e-05 9.13447e-07 0)
(4.03391e-05 1.94522e-06 0)
(6.12947e-05 6.13007e-06 0)
(5.698e-05 2.98641e-06 0)
(5.31679e-05 1.88422e-06 0)
(4.94599e-05 2.86034e-06 0)
(7.3558e-05 7.66031e-06 0)
(6.84488e-05 4.4286e-06 0)
(6.37851e-05 3.20035e-06 0)
(5.92518e-05 4.11393e-06 0)
(8.67272e-05 9.54906e-06 0)
(8.07704e-05 6.24908e-06 0)
(7.51968e-05 4.91968e-06 0)
(6.97659e-05 5.77043e-06 0)
(0.000100868 1.18768e-05 0)
(9.40018e-05 8.51928e-06 0)
(8.74573e-05 7.11041e-06 0)
(8.1056e-05 7.90069e-06 0)
(0.000116049 1.47336e-05 0)
(0.000108205 1.13238e-05 0)
(0.000100624 9.85253e-06 0)
(9.31789e-05 1.05854e-05 0)
(0.000132348 1.82214e-05 0)
(0.000123449 1.47617e-05 0)
(0.00011476 1.32399e-05 0)
(0.000106195 1.39184e-05 0)
(0.000149843 2.24565e-05 0)
(0.000139805 1.89476e-05 0)
(0.000129932 1.73825e-05 0)
(0.000120168 1.8009e-05 0)
(0.000168622 2.75726e-05 0)
(0.000157353 2.40141e-05 0)
(0.000146212 2.24094e-05 0)
(0.000135165 2.29861e-05 0)
(0.000188773 3.3723e-05 0)
(0.000176177 3.01147e-05 0)
(0.000163677 2.84715e-05 0)
(0.000151257 2.90004e-05 0)
(0.000210396 4.10852e-05 0)
(0.000196366 3.7427e-05 0)
(0.000182409 3.5745e-05 0)
(0.000168519 3.62284e-05 0)
(0.000233591 4.98641e-05 0)
(0.000218018 4.61565e-05 0)
(0.000202495 4.44356e-05 0)
(0.00018703 4.48761e-05 0)
(0.000258469 6.02976e-05 0)
(0.000241231 5.6542e-05 0)
(0.000224028 5.47826e-05 0)
(0.000206872 5.51839e-05 0)
(0.000285142 7.26617e-05 0)
(0.000266113 6.88604e-05 0)
(0.000247104 6.70645e-05 0)
(0.000228131 6.74312e-05 0)
(0.000313731 8.72769e-05 0)
(0.000292774 8.34339e-05 0)
(0.000271821 8.16051e-05 0)
(0.000250895 8.19432e-05 0)
(0.000344362 0.000104516 0)
(0.000321328 0.000100636 0)
(0.000298285 9.87803e-05 0)
(0.000275258 9.90975e-05 0)
(0.000377165 0.000124811 0)
(0.000351893 0.000120902 0)
(0.000326599 0.000119027 0)
(0.000301311 0.000119332 0)
(0.000413613 0.000149575 0)
(0.000385838 0.000145645 0)
(0.000358028 0.00014376 0)
(0.00033021 0.000144064 0)
(0.000452514 0.00017877 0)
(0.000422046 0.000174831 0)
(0.000391528 0.000172948 0)
(0.00036099 0.000173265 0)
(0.000491279 0.000210664 0)
(0.000458103 0.00020673 0)
(0.000424863 0.000204864 0)
(0.000391588 0.000205209 0)
(0.000529884 0.000245272 0)
(0.000493985 0.000241357 0)
(0.000458008 0.000239522 0)
(0.000421984 0.000239911 0)
(0.000568308 0.00028261 0)
(0.000529672 0.000278729 0)
(0.000490943 0.000276939 0)
(0.000452153 0.000277385 0)
(0.00060653 0.000322694 0)
(0.00056514 0.00031886 0)
(0.000523644 0.000317131 0)
(0.000482073 0.000317647 0)
(0.000644529 0.000365541 0)
(0.00060037 0.000361768 0)
(0.000556092 0.000360112 0)
(0.000511725 0.000360714 0)
(0.000682285 0.000411167 0)
(0.000635341 0.00040747 0)
(0.000588266 0.000405901 0)
(0.000541087 0.0004066 0)
(0.000719776 0.000459591 0)
(0.000670032 0.000455982 0)
(0.000620145 0.000454514 0)
(0.000570142 0.000455324 0)
(0.000756983 0.000510828 0)
(0.000704424 0.000507323 0)
(0.000651713 0.000505968 0)
(0.00059887 0.0005069 0)
(0.000793883 0.000564895 0)
(0.000738498 0.000561507 0)
(0.000682951 0.000560278 0)
(0.000627257 0.000561343 0)
(0.000830456 0.000621806 0)
(0.000772235 0.00061855 0)
(0.000713841 0.000617458 0)
(0.000655286 0.000618667 0)
(0.000866681 0.000681573 0)
(0.000805615 0.000678462 0)
(0.000744368 0.000677521 0)
(0.000682945 0.000678883 0)
(0.000902535 0.000744204 0)
(0.00083862 0.000741253 0)
(0.000774516 0.000740474 0)
(0.000710221 0.000741999 0)
(0.000937997 0.000809706 0)
(0.000871231 0.000806929 0)
(0.000804271 0.000806323 0)
(0.000737104 0.000808018 0)
(0.000973044 0.00087808 0)
(0.000903431 0.000875492 0)
(0.000833618 0.00087507 0)
(0.000763583 0.000876943 0)
(0.00100765 0.000949322 0)
(0.000935202 0.000946938 0)
(0.000862546 0.00094671 0)
(0.000789651 0.000948768 0)
(0.0010418 0.00102342 0)
(0.000966525 0.00102126 0)
(0.00089104 0.00102124 0)
(0.0008153 0.00102349 0)
(0.00107547 0.00110037 0)
(0.000997384 0.00109844 0)
(0.00091909 0.00109863 0)
(0.000840526 0.00110108 0)
(0.00110862 0.00118014 0)
(0.00102776 0.00117846 0)
(0.000946685 0.00117888 0)
(0.000865322 0.00118152 0)
(0.00114125 0.00126271 0)
(0.00105764 0.00126129 0)
(0.000973814 0.00126195 0)
(0.000889686 0.0012648 0)
(0.00117332 0.00134804 0)
(0.001087 0.0013469 0)
(0.00100047 0.0013478 0)
(0.000913615 0.00135086 0)
(0.00120482 0.0014361 0)
(0.00111583 0.00143525 0)
(0.00102664 0.0014364 0)
(0.000937105 0.00143968 0)
(0.00123571 0.00152682 0)
(0.00114412 0.00152628 0)
(0.00105231 0.0015277 0)
(0.000960157 0.00153119 0)
(0.00126598 0.00162015 0)
(0.00117184 0.00161994 0)
(0.00107748 0.00162163 0)
(0.000982768 0.00162534 0)
(0.0012956 0.00171604 0)
(0.00119898 0.00171616 0)
(0.00110214 0.00171813 0)
(0.00100494 0.00172206 0)
(0.00132455 0.00181439 0)
(0.00122552 0.00181486 0)
(0.00112629 0.00181713 0)
(0.00102667 0.00182129 0)
(0.00135281 0.00191514 0)
(0.00125146 0.00191598 0)
(0.00114991 0.00191854 0)
(0.00104795 0.00192293 0)
(0.00138035 0.00201819 0)
(0.00127678 0.00201941 0)
(0.00117299 0.00202227 0)
(0.0010688 0.0020269 0)
(0.00140717 0.00212345 0)
(0.00130146 0.00212506 0)
(0.00119554 0.00212824 0)
(0.0010892 0.0021331 0)
(0.00143325 0.00223082 0)
(0.0013255 0.00223283 0)
(0.00121754 0.00223633 0)
(0.00110915 0.00224144 0)
(0.00145856 0.00234019 0)
(0.00134887 0.00234261 0)
(0.00123899 0.00234644 0)
(0.00112866 0.00235179 0)
(0.00148309 0.00245145 0)
(0.00137159 0.00245429 0)
(0.00125988 0.00245846 0)
(0.00114772 0.00246406 0)
(0.00150684 0.00256448 0)
(0.00139362 0.00256775 0)
(0.0012802 0.00257226 0)
(0.00116633 0.00257812 0)
(0.00152979 0.00267917 0)
(0.00141498 0.00268288 0)
(0.00129996 0.00268774 0)
(0.00118448 0.00269385 0)
(0.00155194 0.00279539 0)
(0.00143564 0.00279955 0)
(0.00131914 0.00280476 0)
(0.00120218 0.00281114 0)
(0.00157327 0.00291304 0)
(0.00145561 0.00291764 0)
(0.00133774 0.00292321 0)
(0.00121941 0.00292986 0)
(0.0015938 0.00303198 0)
(0.00147489 0.00303703 0)
(0.00135576 0.00304297 0)
(0.00123618 0.00304989 0)
(0.00161353 0.00315211 0)
(0.00149347 0.00315761 0)
(0.0013732 0.00316391 0)
(0.00125248 0.0031711 0)
(0.00163245 0.00327331 0)
(0.00151136 0.00327925 0)
(0.00139006 0.00328592 0)
(0.00126831 0.00329339 0)
(0.00165057 0.00339546 0)
(0.00152856 0.00340185 0)
(0.00140634 0.00340888 0)
(0.00128366 0.00341664 0)
(0.00166791 0.00351846 0)
(0.00154508 0.00352529 0)
(0.00142203 0.00353268 0)
(0.00129854 0.00354073 0)
(0.00168448 0.0036422 0)
(0.00156093 0.00364947 0)
(0.00143715 0.00365722 0)
(0.00131294 0.00366555 0)
(0.00170029 0.0037666 0)
(0.00157611 0.00377429 0)
(0.0014517 0.0037824 0)
(0.00132687 0.00379101 0)
(0.00171537 0.00389156 0)
(0.00159065 0.00389966 0)
(0.0014657 0.00390811 0)
(0.00134033 0.00391701 0)
(0.00172975 0.00401699 0)
(0.00160456 0.00402549 0)
(0.00147914 0.00403428 0)
(0.00135333 0.00404345 0)
(0.00174345 0.00414282 0)
(0.00161787 0.0041517 0)
(0.00149206 0.00416082 0)
(0.00136587 0.00417025 0)
(0.0017565 0.00426898 0)
(0.0016306 0.00427822 0)
(0.00150446 0.00428765 0)
(0.00137797 0.00429734 0)
(0.00176895 0.00439542 0)
(0.00164278 0.00440498 0)
(0.00151638 0.00441471 0)
(0.00138965 0.00442465 0)
(0.00178084 0.00452207 0)
(0.00165444 0.00453194 0)
(0.00152784 0.00454193 0)
(0.00140092 0.00455211 0)
(0.00179222 0.00464889 0)
(0.00166564 0.00465904 0)
(0.00153887 0.00466928 0)
(0.00141182 0.00467966 0)
(0.00180313 0.00477586 0)
(0.00167641 0.00478624 0)
(0.00154951 0.0047967 0)
(0.00142237 0.00480727 0)
(0.00181365 0.00490294 0)
(0.00168681 0.00491352 0)
(0.00155982 0.00492416 0)
(0.00143262 0.00493488 0)
(0.00182384 0.00503012 0)
(0.0016969 0.00504086 0)
(0.00156983 0.00505164 0)
(0.0014426 0.00506248 0)
(0.00183377 0.00515739 0)
(0.00170675 0.00516823 0)
(0.00157963 0.0051791 0)
(0.00145239 0.00519002 0)
(0.00184353 0.00528476 0)
(0.00171643 0.00529564 0)
(0.00158927 0.00530655 0)
(0.00146204 0.00531749 0)
(0.00185321 0.00541221 0)
(0.00172604 0.00542308 0)
(0.00159885 0.00543395 0)
(0.00147164 0.00544486 0)
(0.00186291 0.00553978 0)
(0.0017357 0.00555055 0)
(0.00160848 0.0055613 0)
(0.00148127 0.00557212 0)
(0.00187272 0.00566743 0)
(0.0017455 0.00567804 0)
(0.00161826 0.00568862 0)
(0.00149102 0.00569926 0)
(0.0018828 0.0057951 0)
(0.00175559 0.00580555 0)
(0.00162833 0.00581596 0)
(0.00150102 0.00582642 0)
)
;

boundaryField
{
    plateFix
    {
        type            calculated;
        value           uniform (0 0 0);
    }
    plate
    {
        type            calculated;
        value           nonuniform List<vector> 
168
(
(6.03061e-06 1.80069e-06 -7.2957e-23)
(2.40035e-06 1.08527e-06 -5.50971e-24)
(1.35711e-05 2.7633e-06 3.9724e-23)
(9.10867e-06 1.33421e-06 -7.46331e-25)
(2.19037e-05 3.66798e-06 1.88672e-23)
(1.59953e-05 1.57272e-06 1.83892e-24)
(3.1046e-05 4.52945e-06 -1.04593e-23)
(2.32058e-05 1.85304e-06 -2.68879e-23)
(4.10255e-05 5.46072e-06 -3.31339e-23)
(3.08337e-05 2.27152e-06 2.27377e-23)
(5.18455e-05 6.5264e-06 6.29915e-23)
(3.8967e-05 2.89499e-06 1.69551e-24)
(6.35359e-05 7.80356e-06 -4.40583e-23)
(4.76751e-05 3.79092e-06 2.94703e-23)
(7.61348e-05 9.36258e-06 -1.78818e-23)
(5.70209e-05 5.02188e-06 -3.29054e-23)
(8.96936e-05 1.12794e-05 2.56652e-23)
(6.70614e-05 6.65376e-06 -1.79171e-23)
(0.000104272 1.3635e-05 -1.86283e-24)
(7.78518e-05 8.75818e-06 4.50073e-25)
(0.000119938 1.65199e-05 -3.20601e-24)
(8.94475e-05 1.14165e-05 2.04589e-23)
(0.000136765 2.00361e-05 2.23014e-23)
(0.000101905 1.47228e-05 -2.04746e-23)
(0.000154834 2.42999e-05 -1.73925e-23)
(0.000115284 1.87872e-05 3.17997e-23)
(0.000174231 2.94446e-05 -6.69448e-25)
(0.000129648 2.37385e-05 -1.28305e-23)
(0.00019505 3.56236e-05 5.02986e-24)
(0.000145062 2.97279e-05 1.7129e-25)
(0.000217391 4.30139e-05 -1.10065e-23)
(0.000161596 3.69322e-05 -1.13033e-23)
(0.000241358 5.18204e-05 9.96755e-24)
(0.000179325 4.55579e-05 1.39436e-23)
(0.000267065 6.22804e-05 2.23324e-24)
(0.000198325 5.58457e-05 -1.07601e-23)
(0.000294632 7.46697e-05 -4.53846e-24)
(0.000218678 6.80757e-05 -1.85648e-24)
(0.000324182 8.9308e-05 3.67604e-25)
(0.000240467 8.25735e-05 6.03189e-24)
(0.000355848 0.000106567 2.30616e-24)
(0.000263779 9.97175e-05 6.26917e-24)
(0.000389765 0.000126879 -4.84756e-25)
(0.0002887 0.000119947 9.05747e-24)
(0.000427461 0.000151656 -2.51211e-24)
(0.000316333 0.000144679 -1.67262e-23)
(0.000467705 0.000180858 2.22007e-24)
(0.00034575 0.000173887 1.66691e-23)
(0.000507818 0.000212753 -2.45322e-25)
(0.000374978 0.000205846 1.41558e-24)
(0.000547781 0.000247354 5.64734e-24)
(0.000403995 0.000240569 3.31844e-24)
(0.00058757 0.000284678 -8.03661e-24)
(0.000432779 0.000278073 -6.2146e-24)
(0.000627166 0.000324741 1.61408e-23)
(0.000461306 0.000318371 -3.59075e-24)
(0.000666548 0.000367559 -9.21519e-24)
(0.000489555 0.000361481 1.14521e-23)
(0.000705695 0.000413151 -7.48613e-25)
(0.000517507 0.000407417 -5.50377e-24)
(0.000744586 0.000461532 -1.14267e-24)
(0.000545142 0.000456197 -2.02965e-24)
(0.0007832 0.00051272 -3.61599e-24)
(0.000572444 0.000507834 -1.45391e-27)
(0.000821516 0.000566731 4.36899e-24)
(0.000599397 0.000562345 6.06908e-25)
(0.000859511 0.000623578 1.34952e-24)
(0.000625986 0.000619741 4.65753e-24)
(0.000897163 0.000683273 -8.91227e-24)
(0.000652199 0.000680033 -2.81871e-24)
(0.000934449 0.000745826 -7.0672e-25)
(0.000678027 0.000743229 8.6848e-24)
(0.000971344 0.000811241 -7.07675e-24)
(0.000703459 0.000809333 -8.6864e-24)
(0.00100782 0.000879521 8.6116e-25)
(0.000728489 0.000878345 6.43843e-26)
(0.00104386 0.00095066 1.1538e-23)
(0.000753111 0.000950261 6.83407e-24)
(0.00107944 0.00102465 -6.59601e-24)
(0.000777321 0.00102507 -7.17986e-24)
(0.00111452 0.00110148 -3.50911e-24)
(0.000801116 0.00110276 8.90326e-25)
(0.00114908 0.00118113 1.96239e-24)
(0.000824495 0.0011833 -1.9837e-24)
(0.0011831 0.00126356 -4.17211e-24)
(0.000847457 0.00126667 2.36922e-24)
(0.00121654 0.00134875 4.46156e-24)
(0.000870003 0.00135284 -1.07835e-23)
(0.00124938 0.00143665 8.45781e-24)
(0.000892135 0.00144175 1.93844e-23)
(0.0012816 0.00152721 -1.88529e-24)
(0.000913855 0.00153336 -7.6084e-24)
(0.00131315 0.00162038 2.14639e-24)
(0.000935166 0.00162762 -1.99716e-23)
(0.00134403 0.00171609 -5.66352e-24)
(0.000956072 0.00172444 9.97652e-24)
(0.0013742 0.00181426 8.3245e-24)
(0.000976575 0.00182377 -2.37398e-23)
(0.00140364 0.00191482 -7.36155e-24)
(0.000996679 0.00192552 -2.32905e-23)
(0.00143231 0.00201767 -2.48975e-23)
(0.00101639 0.0020296 2.27143e-23)
(0.00146022 0.00212273 2.83276e-23)
(0.0010357 0.00213591 -5.78461e-23)
(0.00148732 0.00222988 1.67007e-23)
(0.00105462 0.00224435 2.06421e-23)
(0.0015136 0.00233903 -3.22546e-23)
(0.00107315 0.00235481 9.00352e-24)
(0.00153906 0.00245007 2.44281e-23)
(0.00109129 0.00246719 -1.72973e-23)
(0.00156367 0.00256287 1.94309e-24)
(0.00110903 0.00258136 -2.3389e-23)
(0.00158742 0.00267733 -3.74849e-23)
(0.00112638 0.00269721 3.33019e-23)
(0.00161031 0.00279332 3.57071e-23)
(0.00114333 0.00281462 -3.62853e-23)
(0.00163233 0.00291073 2.75548e-23)
(0.00115988 0.00293346 1.71161e-25)
(0.00165348 0.00302944 9.25816e-24)
(0.00117603 0.00305361 -2.97409e-23)
(0.00167377 0.00314933 2.90373e-23)
(0.00119176 0.00317495 2.1302e-23)
(0.00169319 0.00327029 3.07772e-23)
(0.00120708 0.00329737 -4.39836e-23)
(0.00171177 0.00339221 3.28125e-23)
(0.00122199 0.00342074 8.99725e-23)
(0.00172951 0.00351498 -4.62098e-23)
(0.00123647 0.00354496 -2.3135e-23)
(0.00174642 0.0036385 2.53102e-23)
(0.00125053 0.00366992 -7.29505e-23)
(0.00176254 0.00376268 -1.28499e-24)
(0.00126416 0.00379551 4.86575e-23)
(0.00177788 0.00388742 -1.71387e-24)
(0.00127737 0.00392163 -1.42011e-23)
(0.00179247 0.00401265 -2.86306e-24)
(0.00129016 0.0040482 2.65805e-23)
(0.00180635 0.00413829 1.22943e-23)
(0.00130254 0.00417513 1.94163e-25)
(0.00181955 0.00426427 -6.8928e-23)
(0.00131451 0.00430234 -2.7796e-23)
(0.00183212 0.00439053 7.23975e-23)
(0.00132609 0.00442976 -2.7737e-23)
(0.0018441 0.00451702 -8.90123e-23)
(0.00133729 0.00455733 8.82263e-23)
(0.00185555 0.00464371 6.09631e-23)
(0.00134814 0.00468498 5.98995e-23)
(0.00186652 0.00477056 -4.54186e-23)
(0.00135867 0.00481267 -1.5567e-23)
(0.00187709 0.00489754 -1.11241e-22)
(0.00136891 0.00494036 4.77317e-23)
(0.00188732 0.00502465 6.46081e-23)
(0.00137891 0.00506801 -9.8355e-23)
(0.00189729 0.00515187 4.96396e-23)
(0.00138872 0.00519559 6.8769e-23)
(0.00190709 0.00527921 -8.67722e-23)
(0.00139841 0.00532307 3.47808e-23)
(0.00191681 0.00540669 -7.18843e-23)
(0.00140805 0.00545042 -1.06806e-22)
(0.00192655 0.0055343 -1.97236e-23)
(0.00141773 0.00557763 -7.31167e-23)
(0.00193638 0.00566204 1.84487e-22)
(0.0014275 0.00570468 1.11342e-22)
(0.00194638 0.00578981 -3.80845e-23)
(0.00188797 0.00585882 1.20108e-23)
(0.00176076 0.00586927 1.14503e-23)
(0.0016335 0.0058797 -5.09059e-24)
(0.00150615 0.00589016 -1.85024e-23)
(0.00143742 0.00583172 -7.52993e-23)
)
;
    }
    frontAndBackPlanes
    {
        type            empty;
    }
}


// ************************************************************************* //
