/*--------------------------------*- C++ -*----------------------------------*\
| =========                 |                                                 |
| \\      /  F ield         | OpenFOAM Extend Project: Open source CFD        |
|  \\    /   O peration     | Version:  1.6-ext                               |
|   \\  /    A nd           | Web:      www.extend-project.de                 |
|    \\/     M anipulation  |                                                 |
\*---------------------------------------------------------------------------*/
FoamFile
{
    version     2.0;
    format      ascii;
    class       surfaceScalarField;
    location    "1.4";
    object      phi;
}
// * * * * * * * * * * * * * * * * * * * * * * * * * * * * * * * * * * * * * //

dimensions      [0 3 -1 0 0 0 0];

internalField   nonuniform List<scalar> 
123
(
3.45615e-05
0.000238878
4.9058e-05
0.000507615
4.23216e-05
0.000580776
2.45706e-05
0.000565891
7.15258e-06
0.000513032
-1.67851e-06
0.000405903
0.000187906
0.000265408
-4.74967e-05
0.000296519
-0.000122705
0.000313116
-0.000182312
0.000314862
-0.000208557
0.000307534
-0.000201554
0.000296979
-0.000174067
0.000287044
-0.0001394
0.000279671
-0.000106412
-7.42682e-05
0.000492675
-3.25567e-05
0.000476023
-0.000106053
0.000450322
-0.00015661
0.000417199
-0.000175434
0.000382834
-0.000167189
0.000352481
-0.000143714
0.000328483
-0.000115401
0.000311084
-8.90127e-05
-6.31475e-05
0.000570576
-2.23564e-05
0.000544631
-8.01081e-05
0.000506183
-0.000118162
0.000462011
-0.000131262
0.000419105
-0.000124284
0.000381941
-0.00010655
0.000352275
-8.5735e-05
0.000329943
-6.66807e-05
-4.83108e-05
0.000563439
-1.99045e-05
0.000541674
-5.83435e-05
0.000505853
-8.23404e-05
0.000463556
-8.89654e-05
0.000421702
-8.24301e-05
0.000384658
-6.95052e-05
0.000354356
-5.54332e-05
0.000330796
-4.31202e-05
-3.21489e-05
0.000511305
-1.81775e-05
0.000491811
-3.88495e-05
0.000459243
-4.9773e-05
0.000420863
-5.05847e-05
0.000383111
-4.46785e-05
0.000349862
-3.62565e-05
0.00032265
-2.82214e-05
0.000301311
-2.17808e-05
-1.71351e-05
0.000398644
-1.09181e-05
0.000377056
-1.72614e-05
0.000346586
-1.93036e-05
0.000313743
-1.77419e-05
0.000283452
-1.43872e-05
0.00025807
-1.08746e-05
0.00023795
-8.10102e-06
0.000222434
-6.26546e-06
-5.77213e-06
0.000176987
0.000159726
0.000140422
0.000122681
0.000108293
9.74188e-05
8.93178e-05
8.30523e-05
)
;

boundaryField
{
    inlet
    {
        type            calculated;
        value           nonuniform 0();
    }
    outlet
    {
        type            calculated;
        value           nonuniform List<scalar> 7(0.000275008 0.000299963 0.000315106 0.000314634 0.000286297 0.000211071 7.72802e-05);
    }
    fixedWalls
    {
        type            calculated;
        value           uniform 0;
    }
    frontAndBack
    {
        type            empty;
    }
    procBoundary1to2
    {
        type            processor;
        value           nonuniform List<scalar> 7(-0.000273439 -0.000522111 -0.00057404 -0.00054814 -0.000495614 -0.000397072 -0.000189584);
    }
    procBoundary1to0
    {
        type            processor;
        value           nonuniform List<scalar> 9(2.09666e-05 9.15934e-05 0.000165715 0.000206811 0.000208881 0.000184622 0.000149335 0.000113785 7.89303e-05);
    }
}


// ************************************************************************* //
