/*--------------------------------*- C++ -*----------------------------------*\
| =========                 |                                                 |
| \\      /  F ield         | OpenFOAM Extend Project: Open source CFD        |
|  \\    /   O peration     | Version:  1.6-ext                               |
|   \\  /    A nd           | Web:      www.extend-project.de                 |
|    \\/     M anipulation  |                                                 |
\*---------------------------------------------------------------------------*/
FoamFile
{
    version     2.0;
    format      ascii;
    class       volVectorField;
    location    "2.3";
    object      U;
}
// * * * * * * * * * * * * * * * * * * * * * * * * * * * * * * * * * * * * * //

dimensions      [0 1 -1 0 0 0 0];

internalField   nonuniform List<vector> 
72
(
(-0.00217363 0.00215996 0)
(-0.00906094 0.00351134 0)
(-0.0163542 0.00259001 0)
(-0.0189119 0.000838426 0)
(-0.0165287 -0.000944032 0)
(-0.0100862 -0.00234273 0)
(-0.00121618 -0.00307605 0)
(0.00772381 -0.00355785 0)
(0.0212066 -0.00394821 0)
(-0.00391413 0.0090087 0)
(-0.0145933 0.0127035 0)
(-0.0240015 0.00760686 0)
(-0.0245084 -0.000580562 0)
(-0.0162152 -0.00833373 0)
(-0.000995126 -0.0138713 0)
(0.0177375 -0.0164001 0)
(0.0360769 -0.0168699 0)
(0.0591846 -0.0164887 0)
(-0.00481784 0.0189162 0)
(-0.0171694 0.0243309 0)
(-0.0268482 0.0119123 0)
(-0.0249578 -0.00652383 0)
(-0.0119639 -0.023502 0)
(0.00952763 -0.034889 0)
(0.0350183 -0.0396885 0)
(0.0595398 -0.0390309 0)
(0.0890432 -0.0356699 0)
(-0.00594835 0.0304201 0)
(-0.0200512 0.036884 0)
(-0.0297465 0.0153291 0)
(-0.0256699 -0.0153721 0)
(-0.00861629 -0.0431775 0)
(0.0179489 -0.061225 0)
(0.0486308 -0.0682934 0)
(0.0779604 -0.0660068 0)
(0.112227 -0.0582779 0)
(-0.00704053 0.0436934 0)
(-0.0213981 0.049695 0)
(-0.0280805 0.0170806 0)
(-0.0197417 -0.0278721 0)
(0.00198492 -0.0674924 0)
(0.0328629 -0.092623 0)
(0.0671093 -0.101538 0)
(0.0994819 -0.0969167 0)
(0.135924 -0.0833031 0)
(-0.00641876 0.0564104 0)
(-0.0151398 0.0578613 0)
(-0.0109076 0.0127282 0)
(0.00628217 -0.0461324 0)
(0.0337731 -0.0965023 0)
(0.0671078 -0.127487 0)
(0.101536 -0.137079 0)
(0.133309 -0.129321 0)
(0.167196 -0.108621 0)
(0.000800992 0.0695651 0)
(0.00914068 0.0563616 0)
(0.0362839 -0.00296874 0)
(0.0670177 -0.072055 0)
(0.0994673 -0.12866 0)
(0.131274 -0.161829 0)
(0.160168 -0.16985 0)
(0.18554 -0.158289 0)
(0.20992 -0.130284 0)
(0.0354693 0.0336071 0)
(0.0703311 0.0138787 0)
(0.126695 -0.044628 0)
(0.170247 -0.10953 0)
(0.202991 -0.161345 0)
(0.226795 -0.189733 0)
(0.242891 -0.192804 0)
(0.255319 -0.177069 0)
(0.262776 -0.143046 0)
)
;

boundaryField
{
    inlet
    {
        type            fixedValue;
        value           nonuniform 0();
    }
    outlet
    {
        type            zeroGradient;
    }
    fixedWalls
    {
        type            fixedValue;
        value           uniform (0 0 0);
    }
    frontAndBack
    {
        type            empty;
    }
    procBoundary0to1
    {
        type            processor;
        value           nonuniform List<vector> 9((0.21065 -0.0169202 0) (0.244374 -0.0484103 0) (0.286891 -0.0951112 0) (0.319061 -0.144844 0) (0.336285 -0.183522 0) (0.34133 -0.20205 0) (0.336955 -0.198248 0) (0.33142 -0.178946 0) (0.317391 -0.14228 0));
    }
}


// ************************************************************************* //
