/*--------------------------------*- C++ -*----------------------------------*\
| =========                 |                                                 |
| \\      /  F ield         | OpenFOAM Extend Project: Open source CFD        |
|  \\    /   O peration     | Version:  1.6-ext                               |
|   \\  /    A nd           | Web:      www.extend-project.de                 |
|    \\/     M anipulation  |                                                 |
\*---------------------------------------------------------------------------*/
FoamFile
{
    version     2.0;
    format      ascii;
    class       volScalarField;
    location    "5";
    object      p;
}
// * * * * * * * * * * * * * * * * * * * * * * * * * * * * * * * * * * * * * //

dimensions      [0 2 -2 0 0 0 0];

internalField   nonuniform List<scalar> 
72
(
-0.021156
-0.0223417
-0.0222402
-0.0211026
-0.0187263
-0.0149933
-0.0102189
-0.00505834
0.00272353
-0.0198567
-0.0210875
-0.0209843
-0.0201557
-0.0183749
-0.0153699
-0.0113242
-0.0066273
0.00161583
-0.0203371
-0.0217336
-0.0218393
-0.0213942
-0.0200824
-0.0174304
-0.0134769
-0.00861458
0.000741785
-0.0224267
-0.0236869
-0.0239912
-0.0239578
-0.0231444
-0.0208182
-0.0167359
-0.0114294
-0.000219348
-0.0261605
-0.0267149
-0.0270212
-0.027286
-0.0268999
-0.0248371
-0.0204798
-0.0144909
-0.000902695
-0.0313716
-0.0301712
-0.0301351
-0.0304625
-0.0303453
-0.0285588
-0.024093
-0.0165969
-0.00326671
-0.0376518
-0.0330169
-0.0324326
-0.0324079
-0.0322745
-0.030535
-0.0259933
-0.017847
-0.00491701
-0.0539865
-0.0366972
-0.0337035
-0.032789
-0.0322773
-0.0302633
-0.025595
-0.0174451
-0.00551994
)
;

boundaryField
{
    inlet
    {
        type            zeroGradient;
    }
    outlet
    {
        type            totalPressure;
        rho             none;
        psi             none;
        gamma           1;
        p0              uniform 0;
        value           nonuniform List<scalar> 8(-0.000176743 -0.000863149 -0.00155545 -0.00235995 0 0 0 0);
    }
    fixedWalls
    {
        type            zeroGradient;
    }
    frontAndBack
    {
        type            empty;
    }
    procBoundary0to1
    {
        type            processor;
        value           nonuniform List<scalar> 9(-0.0464487 -0.0371421 -0.0329771 -0.0311584 -0.0299238 -0.0274124 -0.0227492 -0.0151467 -0.00520816);
    }
}


// ************************************************************************* //
