/*--------------------------------*- C++ -*----------------------------------*\
| =========                 |                                                 |
| \\      /  F ield         | OpenFOAM Extend Project: Open source CFD        |
|  \\    /   O peration     | Version:  1.6-ext                               |
|   \\  /    A nd           | Web:      www.extend-project.de                 |
|    \\/     M anipulation  |                                                 |
\*---------------------------------------------------------------------------*/
FoamFile
{
    version     2.0;
    format      ascii;
    class       surfaceScalarField;
    location    "5";
    object      phi;
}
// * * * * * * * * * * * * * * * * * * * * * * * * * * * * * * * * * * * * * //

dimensions      [0 3 -1 0 0 0 0];

internalField   nonuniform List<scalar> 
127
(
-2.52532e-06
2.52532e-06
-9.86476e-06
7.33944e-06
-1.90619e-05
9.1971e-06
-2.79801e-05
8.91824e-06
-3.49814e-05
7.00133e-06
-3.84226e-05
3.44117e-06
-3.68255e-05
-1.59708e-06
-2.92783e-05
-7.54723e-06
-1.3449e-05
-8.23637e-06
1.07617e-05
-2.40813e-05
2.31844e-05
-4.17277e-05
2.68435e-05
-5.72741e-05
2.44646e-05
-6.78759e-05
1.76031e-05
-7.12745e-05
6.83979e-06
-6.60244e-05
-6.84716e-06
-5.2287e-05
-2.12847e-05
-3.35213e-05
-1.08425e-05
2.16042e-05
-2.96758e-05
4.20176e-05
-4.93573e-05
4.65251e-05
-6.5493e-05
4.06003e-05
-7.52474e-05
2.73576e-05
-7.67075e-05
8.29992e-06
-6.89721e-05
-1.45826e-05
-5.27037e-05
-3.7553e-05
-5.55829e-05
-1.06493e-05
3.22535e-05
-2.76493e-05
5.90176e-05
-4.42606e-05
6.31364e-05
-5.66967e-05
5.30364e-05
-6.2815e-05
3.34759e-05
-6.14622e-05
6.94715e-06
-5.2258e-05
-2.37868e-05
-3.54122e-05
-5.43988e-05
-7.68085e-05
-8.67544e-06
4.0929e-05
-1.94014e-05
6.97436e-05
-2.80176e-05
7.17525e-05
-3.24149e-05
5.74337e-05
-3.16408e-05
3.27018e-05
-2.54278e-05
7.34093e-07
-1.47217e-05
-3.44928e-05
1.86254e-06
-7.09831e-05
-9.30411e-05
-5.49948e-06
4.64284e-05
-5.2155e-06
6.94596e-05
-6.11583e-07
6.71486e-05
8.02242e-06
4.87997e-05
1.9917e-05
2.08072e-05
3.3985e-05
-1.33339e-05
4.96342e-05
-5.0142e-05
6.54053e-05
-8.67542e-05
-0.000111188
3.19959e-06
4.32288e-05
1.9608e-05
5.30512e-05
4.28458e-05
4.39108e-05
6.80521e-05
2.35934e-05
9.32435e-05
-4.38422e-06
0.00011721
-3.73003e-05
0.000138694
-7.16265e-05
0.000156664
-0.000104723
-0.000127813
3.33087e-05
7.40767e-05
0.000116821
0.000156552
0.000192012
0.000222715
0.000247374
0.000265816
)
;

boundaryField
{
    inlet
    {
        type            calculated;
        value           nonuniform 0();
    }
    outlet
    {
        type            calculated;
        value           nonuniform List<scalar> 8(-1.58293e-05 -3.22148e-05 -3.06421e-05 -1.41866e-05 1.80951e-05 8.35526e-05 0.000173289 0.000278081);
    }
    fixedWalls
    {
        type            calculated;
        value           uniform 0;
    }
    frontAndBack
    {
        type            empty;
    }
    procBoundary0to1
    {
        type            processor;
        value           nonuniform List<scalar> 9(9.92012e-06 1.22832e-05 1.16625e-06 -1.61375e-05 -3.98438e-05 -6.80033e-05 -9.62862e-05 -0.000123165 -0.000140078);
    }
}


// ************************************************************************* //
