/*--------------------------------*- C++ -*----------------------------------*\
| =========                 |                                                 |
| \\      /  F ield         | OpenFOAM Extend Project: Open source CFD        |
|  \\    /   O peration     | Version:  1.6-ext                               |
|   \\  /    A nd           | Web:      www.extend-project.de                 |
|    \\/     M anipulation  |                                                 |
\*---------------------------------------------------------------------------*/
FoamFile
{
    version     2.0;
    format      ascii;
    class       volVectorField;
    location    "5";
    object      U;
}
// * * * * * * * * * * * * * * * * * * * * * * * * * * * * * * * * * * * * * //

dimensions      [0 1 -1 0 0 0 0];

internalField   nonuniform List<vector> 
72
(
(-0.000398064 0.000237811 0)
(-0.00514906 0.00218114 0)
(-0.0143915 0.00313585 0)
(-0.0239011 0.0033345 0)
(-0.0321582 0.00293767 0)
(-0.0375092 0.00182757 0)
(-0.0387587 -4.54242e-05 0)
(-0.0362759 -0.00262526 0)
(-0.0179949 -0.00557768 0)
(-0.00276176 0.00537353 0)
(-0.0145753 0.0134263 0)
(-0.0330828 0.0163167 0)
(-0.0506308 0.0155008 0)
(-0.0642212 0.0118364 0)
(-0.0712813 0.00545183 0)
(-0.0706853 -0.00321155 0)
(-0.0635205 -0.0129916 0)
(-0.0352455 -0.0220815 0)
(-0.00397848 0.016 0)
(-0.0186992 0.0324434 0)
(-0.0400435 0.036726 0)
(-0.059032 0.0327845 0)
(-0.0724591 0.0228707 0)
(-0.0779341 0.00800194 0)
(-0.074865 -0.0103896 0)
(-0.0655833 -0.0292068 0)
(-0.0336833 -0.0444994 0)
(-0.00415534 0.0272292 0)
(-0.0180209 0.0513252 0)
(-0.0367642 0.0558919 0)
(-0.0522362 0.0478957 0)
(-0.0618685 0.0313177 0)
(-0.0639491 0.00821986 0)
(-0.058303 -0.0192064 0)
(-0.0488642 -0.046466 0)
(-0.016402 -0.066716 0)
(-0.0039025 0.0371097 0)
(-0.0138805 0.0660515 0)
(-0.0247557 0.069603 0)
(-0.0318381 0.0573466 0)
(-0.0338071 0.0348664 0)
(-0.0299329 0.00532164 0)
(-0.0204224 -0.0288647 0)
(-0.0108018 -0.0631989 0)
(0.0158864 -0.08539 0)
(-0.00348279 0.0443834 0)
(-0.00682416 0.0724475 0)
(-0.0039761 0.0730009 0)
(0.00260773 0.0565206 0)
(0.0128811 0.029589 0)
(0.0262151 -0.00401252 0)
(0.0416082 -0.0413128 0)
(0.0558308 -0.0789282 0)
(0.0803701 -0.102699 0)
(0.000127835 0.0520289 0)
(0.00738382 0.0677006 0)
(0.0303196 0.0609824 0)
(0.0546896 0.0406819 0)
(0.0800982 0.0116594 0)
(0.105267 -0.022981 0)
(0.128438 -0.0595879 0)
(0.147939 -0.0954408 0)
(0.170824 -0.120252 0)
(0.0256226 0.0268701 0)
(0.0475442 0.036005 0)
(0.0951808 0.0260279 0)
(0.13678 0.00608429 0)
(0.174445 -0.0206897 0)
(0.208409 -0.0520333 0)
(0.236217 -0.0839256 0)
(0.258618 -0.114355 0)
(0.277082 -0.135277 0)
)
;

boundaryField
{
    inlet
    {
        type            fixedValue;
        value           nonuniform 0();
    }
    outlet
    {
        type            zeroGradient;
    }
    fixedWalls
    {
        type            fixedValue;
        value           uniform (0 0 0);
    }
    frontAndBack
    {
        type            empty;
    }
    procBoundary0to1
    {
        type            processor;
        value           nonuniform List<vector> 9((0.182086 -0.00523497 0) (0.199908 -0.0138083 0) (0.233795 -0.0243013 0) (0.270505 -0.0398948 0) (0.304828 -0.0604703 0) (0.33595 -0.0849591 0) (0.358377 -0.109004 0) (0.377053 -0.131864 0) (0.383734 -0.144571 0));
    }
}


// ************************************************************************* //
