/*--------------------------------*- C++ -*----------------------------------*\
| =========                 |                                                 |
| \\      /  F ield         | OpenFOAM Extend Project: Open source CFD        |
|  \\    /   O peration     | Version:  1.6-ext                               |
|   \\  /    A nd           | Web:      www.extend-project.de                 |
|    \\/     M anipulation  |                                                 |
\*---------------------------------------------------------------------------*/
FoamFile
{
    version     2.0;
    format      ascii;
    class       surfaceScalarField;
    location    "3.4";
    object      phi;
}
// * * * * * * * * * * * * * * * * * * * * * * * * * * * * * * * * * * * * * //

dimensions      [0 3 -1 0 0 0 0];

internalField   nonuniform List<scalar> 
123
(
0.000202636
1.13274e-05
0.000210302
3.41527e-05
0.000222292
6.00511e-05
0.000238012
9.13781e-05
0.00025745
0.000130131
0.000282432
0.000177095
0.000319959
0.0002347
0.000385195
0.000292323
0.000362197
0.000406644
0.000203921
7.40628e-06
0.00021465
2.34235e-05
0.000231041
4.36603e-05
0.000252917
6.95022e-05
0.000281664
0.000101385
0.000320636
0.000138123
0.000373549
0.000181787
0.000455254
0.000210619
0.000281678
0.000535773
0.000205992
1.41467e-06
0.000220226
9.18882e-06
0.000240109
2.37771e-05
0.000265161
4.44508e-05
0.000296613
6.99329e-05
0.000337084
9.76516e-05
0.00038865
0.000130221
0.00045516
0.000144108
0.000187556
0.000549282
0.000209423
-8.00789e-06
0.000227291
-8.68008e-06
0.000248672
2.39647e-06
0.000273494
1.96292e-05
0.000303158
4.02682e-05
0.000339835
6.09749e-05
0.000386297
8.37587e-05
0.0004387
9.17052e-05
0.000111509
0.000514748
0.000214488
-2.24958e-05
0.000232187
-2.63794e-05
0.000249651
-1.50674e-05
0.000269053
2.27133e-07
0.000292722
1.65998e-05
0.000322704
3.09922e-05
0.000361586
4.4877e-05
0.000403534
4.97575e-05
5.67369e-05
0.000458305
0.000211643
-3.41387e-05
0.000216595
-3.1332e-05
0.000219984
-1.8456e-05
0.000226822
-6.61062e-06
0.000240461
2.96032e-06
0.000261589
9.86446e-06
0.00029099
1.54762e-05
0.000323542
1.72049e-05
1.85806e-05
0.000361699
0.000165861
0.000134529
0.000116073
0.000109463
0.000112423
0.000122288
0.000137764
0.000154969
0.000173549
0.000156092
0.000178694
0.00014276
9.28241e-05
4.76393e-05
1.45131e-05
)
;

boundaryField
{
    inlet
    {
        type            calculated;
        value           nonuniform List<scalar> 7(-0.0002 -0.0002 -0.0002 -0.0002 -0.0002 -0.0002 -0.0002);
    }
    outlet
    {
        type            calculated;
        value           nonuniform 0();
    }
    fixedWalls
    {
        type            calculated;
        value           uniform 0;
    }
    frontAndBack
    {
        type            empty;
    }
    procBoundary2to3
    {
        type            processor;
        value           nonuniform List<scalar> 9(-1.39631e-05 -4.18193e-05 -7.20411e-05 -0.000107098 -0.000149569 -0.000202078 -0.000272227 -0.000357559 -0.000383646);
    }
    procBoundary2to1
    {
        type            processor;
        value           nonuniform List<scalar> 7(0.000250552 0.000513171 0.000585217 0.000564684 0.00050349 0.000394825 0.000188062);
    }
}


// ************************************************************************* //
