/*--------------------------------*- C++ -*----------------------------------*\
| =========                 |                                                 |
| \\      /  F ield         | OpenFOAM Extend Project: Open source CFD        |
|  \\    /   O peration     | Version:  1.6-ext                               |
|   \\  /    A nd           | Web:      www.extend-project.de                 |
|    \\/     M anipulation  |                                                 |
\*---------------------------------------------------------------------------*/
FoamFile
{
    version     2.0;
    format      ascii;
    class       surfaceScalarField;
    location    "0.4";
    object      phi;
}
// * * * * * * * * * * * * * * * * * * * * * * * * * * * * * * * * * * * * * //

dimensions      [0 3 -1 0 0 0 0];

internalField   nonuniform List<scalar> 
123
(
-2.57698e-05
0.000385069
-3.21519e-05
0.000548409
-1.64358e-05
0.000514069
-8.9602e-06
0.000474664
-5.2827e-06
0.000442408
-3.28236e-06
0.000397711
0.000237671
0.000386992
-0.000188563
0.000355133
-0.000224621
0.000309593
-0.000197019
0.000277223
-0.000156818
0.000258223
-0.000119254
0.000247494
-8.83791e-05
0.000241489
-6.31893e-05
0.000238388
-4.20413e-05
-2.27091e-05
0.000481188
-0.000121343
0.000407189
-0.000150622
0.000350305
-0.000140135
0.000311766
-0.000118279
0.000287603
-9.50911e-05
0.000272446
-7.32221e-05
0.00026292
-5.3663e-05
0.000257292
-3.64132e-05
-1.99526e-05
0.000463743
-7.10172e-05
0.000409167
-9.60453e-05
0.000365324
-9.62924e-05
0.000332481
-8.54361e-05
0.0003086
-7.12099e-05
0.000291747
-5.63688e-05
0.000280248
-4.21647e-05
0.000272956
-2.91204e-05
-1.61963e-05
0.000444736
-4.10893e-05
0.000407298
-5.86071e-05
0.000372941
-6.19359e-05
0.000344564
-5.70588e-05
0.000322137
-4.87831e-05
0.000305127
-3.93584e-05
0.000292839
-2.98771e-05
0.000284637
-2.09179e-05
-1.18241e-05
0.000424071
-2.27524e-05
0.000398183
-3.27193e-05
0.000371453
-3.52061e-05
0.000347285
-3.28911e-05
0.000326874
-2.83718e-05
0.000310557
-2.30412e-05
0.000298273
-1.75934e-05
0.000289766
-1.24107e-05
-7.18246e-06
0.000384637
-9.67795e-06
0.000364987
-1.30695e-05
0.000343427
-1.36462e-05
0.000323028
-1.24922e-05
0.000305263
-1.0606e-05
0.000290735
-8.51325e-06
0.000279597
-6.45623e-06
0.000271748
-4.56146e-06
-2.82201e-06
0.000227993
0.000214924
0.000201278
0.000188785
0.000178179
0.000169666
0.00016321
0.000158648
)
;

boundaryField
{
    inlet
    {
        type            calculated;
        value           nonuniform 0();
    }
    outlet
    {
        type            calculated;
        value           nonuniform List<scalar> 7(0.000237047 0.000254535 0.000269199 0.000280264 0.000285124 0.000267388 0.000155826);
    }
    fixedWalls
    {
        type            calculated;
        value           uniform 0;
    }
    frontAndBack
    {
        type            empty;
    }
    procBoundary1to2
    {
        type            processor;
        value           nonuniform List<scalar> 7(-0.000359299 -0.000542027 -0.000529785 -0.000482139 -0.000446085 -0.000399712 -0.000240954);
    }
    procBoundary1to0
    {
        type            processor;
        value           nonuniform List<scalar> 9(0.00018664 0.00025648 0.000242559 0.000189189 0.000138253 9.91084e-05 6.91948e-05 4.51414e-05 2.4051e-05);
    }
}


// ************************************************************************* //
