/*--------------------------------*- C++ -*----------------------------------*\
| =========                 |                                                 |
| \\      /  F ield         | OpenFOAM Extend Project: Open source CFD        |
|  \\    /   O peration     | Version:  1.6-ext                               |
|   \\  /    A nd           | Web:      www.extend-project.de                 |
|    \\/     M anipulation  |                                                 |
\*---------------------------------------------------------------------------*/
FoamFile
{
    version     2.0;
    format      ascii;
    class       volScalarField;
    location    "2.4";
    object      p;
}
// * * * * * * * * * * * * * * * * * * * * * * * * * * * * * * * * * * * * * //

dimensions      [0 2 -2 0 0 0 0];

internalField   nonuniform List<scalar> 
284
(
0.25917
0.227708
0.21625
0.211304
0.209453
0.20947
0.210362
0.211616
0.213752
0.229947
0.22107
0.215706
0.213189
0.212287
0.212422
0.21306
0.213915
0.216221
0.218039
0.214634
0.212056
0.210898
0.21093
0.211741
0.212781
0.213778
0.216819
0.208625
0.207559
0.206506
0.20629
0.207
0.20832
0.209708
0.210839
0.214505
0.200889
0.200582
0.200168
0.200209
0.20089
0.202009
0.203027
0.203545
0.207152
0.193882
0.193763
0.193418
0.193124
0.193022
0.192949
0.192337
0.190574
0.191965
0.187247
0.187099
0.186483
0.185433
0.183898
0.181543
0.17746
0.169968
0.163934
0.181013
0.180744
0.179649
0.177552
0.174114
0.168644
0.159509
0.144423
0.0995607
0.175426
0.174989
0.17329
0.169969
0.164222
0.154335
0.134532
0.095745
0.00174289
0.170847
0.170192
0.167833
0.163422
0.156116
0.14433
0.123849
0.0915231
0.0378295
0.167739
0.166666
0.163499
0.158165
0.150199
0.138639
0.121567
0.0971055
0.0639686
0.166576
0.164636
0.160236
0.153897
0.145545
0.134603
0.120214
0.100621
0.0771627
0.169007
0.164488
0.157994
0.150408
0.141658
0.13131
0.118838
0.102736
0.0844126
0.175243
0.165433
0.156287
0.14759
0.138806
0.129146
0.11801
0.104191
0.0883885
0.203501
0.171593
0.156916
0.147242
0.13877
0.129968
0.119787
0.106979
0.0918258
-0.13171
-0.0985377
-0.0320874
-0.0541627
0.0143964
-0.0153339
0.0443291
0.0187483
0.0617302
0.040464
0.0700574
0.0514481
0.0741844
0.0553355
-0.0869531
-0.078462
-0.0720375
-0.0621275
-0.0478315
-0.0317727
-0.0176741
-0.00718448
-0.00200211
-0.0606965
-0.0604623
-0.0569147
-0.04914
-0.0374412
-0.0244717
-0.0134951
-0.00551816
-0.00240376
-0.0286681
-0.0334647
-0.0336944
-0.0299821
-0.0231777
-0.0152809
-0.00866776
-0.00380536
-0.00263245
0.00283873
-0.00664523
-0.0114325
-0.0123828
-0.0106393
-0.00765485
-0.00495985
-0.00270395
-0.0027423
0.0237806
0.01187
0.00406561
-0.000411018
-0.00247293
-0.0030317
-0.00295082
-0.00230501
-0.00271295
0.0350044
0.0217815
0.0119695
0.00520453
0.000888682
-0.00154673
-0.00261557
-0.00255024
-0.00261682
0.03766
0.0227708
0.0112678
0.0031619
-0.00189823
-0.00445527
-0.00513236
-0.00446255
-0.00331423
-0.0316622
-0.031928
-0.0294138
-0.0250327
-0.0193324
-0.0131063
-0.00718613
-0.00309817
0.00238294
-0.0315431
-0.0320653
-0.029989
-0.0261756
-0.0208808
-0.0148172
-0.00884817
-0.00405479
0.00173776
-0.0339764
-0.0346979
-0.0326865
-0.0286951
-0.0230149
-0.0163061
-0.00977383
-0.0043094
0.00182122
-0.0387546
-0.0395633
-0.0375069
-0.0331309
-0.0266087
-0.0187346
-0.0110873
-0.00469552
0.00184898
-0.0463072
-0.0468155
-0.0447242
-0.039832
-0.0320624
-0.0223571
-0.0130609
-0.00536917
0.00156187
-0.0569695
-0.0561963
-0.0541793
-0.0485727
-0.039011
-0.0271253
-0.0156551
-0.00633521
0.000850501
-0.0698692
-0.0658221
-0.0637417
-0.0573232
-0.0459356
-0.0317247
-0.0181377
-0.00733335
-0.000175633
-0.0939984
-0.0767512
-0.0724598
-0.0637028
-0.050109
-0.0340271
-0.0192207
-0.0078197
-0.00120943
)
;

boundaryField
{
    inlet
    {
        type            zeroGradient;
    }
    outlet
    {
        type            totalPressure;
        rho             none;
        psi             none;
        gamma           1;
        p0              uniform 0;
        value           uniform 0;
    }
    fixedWalls
    {
        type            zeroGradient;
    }
    frontAndBack
    {
        type            empty;
    }
}


// ************************************************************************* //
