/*--------------------------------*- C++ -*----------------------------------*\
| =========                 |                                                 |
| \\      /  F ield         | OpenFOAM Extend Project: Open source CFD        |
|  \\    /   O peration     | Version:  1.6-ext                               |
|   \\  /    A nd           | Web:      www.extend-project.de                 |
|    \\/     M anipulation  |                                                 |
\*---------------------------------------------------------------------------*/
FoamFile
{
    version     2.0;
    format      ascii;
    class       surfaceScalarField;
    location    "2.4";
    object      phi;
}
// * * * * * * * * * * * * * * * * * * * * * * * * * * * * * * * * * * * * * //

dimensions      [0 3 -1 0 0 0 0];

internalField   nonuniform List<scalar> 
525
(
0.000160872
3.91279e-05
0.000117269
4.36031e-05
8.19259e-05
3.5343e-05
5.51892e-05
2.67367e-05
3.55224e-05
1.96669e-05
2.06833e-05
1.4839e-05
9.13482e-06
1.15485e-05
1.3492e-06
7.78562e-06
1.3492e-06
0.000205046
3.40818e-05
0.000190726
5.79232e-05
0.000163229
6.28405e-05
0.000130396
5.95696e-05
9.67582e-05
5.33044e-05
6.46474e-05
4.69498e-05
3.52892e-05
4.09068e-05
1.1366e-05
3.17088e-05
1.27152e-05
0.000208749
2.5333e-05
0.000208481
5.81911e-05
0.00019497
7.6351e-05
0.000169801
8.47389e-05
0.000136354
8.67518e-05
9.80502e-05
8.52534e-05
5.7949e-05
8.10079e-05
2.1083e-05
6.85748e-05
3.37982e-05
0.000205129
2.02036e-05
0.000208467
5.48537e-05
0.000203076
8.1742e-05
0.000186353
0.000101462
0.000158294
0.00011481
0.000120455
0.000123092
7.549e-05
0.000125973
2.94832e-05
0.000114582
6.32814e-05
0.000202452
1.77516e-05
0.000205506
5.17994e-05
0.000203914
8.33339e-05
0.000193553
0.000111823
0.000171873
0.000136491
0.000137876
0.000157089
9.19758e-05
0.000171874
3.8943e-05
0.000167614
0.000102224
0.000201332
1.64194e-05
0.000204073
4.90588e-05
0.00020492
8.24869e-05
0.000199872
0.000116871
0.00018512
0.000151243
0.000157407
0.000184801
0.000113858
0.000215423
5.44985e-05
0.000226974
0.000156723
0.000201258
1.51618e-05
0.000204756
4.55605e-05
0.000208501
7.87423e-05
0.000209269
0.000116102
0.000203133
0.000157379
0.000185768
0.000202167
0.000150079
0.000251111
8.61087e-05
0.000290945
0.000242832
0.000201787
1.33748e-05
0.000207103
4.02441e-05
0.000214774
7.10716e-05
0.000222581
0.000108296
0.000227234
0.000152725
0.000224162
0.000205239
0.000201936
0.000273336
0.000137251
0.00035563
0.000380082
0.000202673
1.07022e-05
0.000210532
3.23849e-05
0.000222848
5.87556e-05
0.000238705
9.24381e-05
0.000257622
0.000133808
0.000281366
0.000181496
0.000317551
0.000237151
0.000382154
0.000291027
0.000356457
0.000405779
0.000203918
6.78425e-06
0.000214721
2.15823e-05
0.000231391
4.2085e-05
0.000253644
7.01851e-05
0.000282436
0.000105016
0.000320705
0.000143227
0.000372275
0.000185581
0.000452102
0.0002112
0.000275713
0.000532846
0.00020595
8.34014e-07
0.000220063
7.46964e-06
0.000239985
2.2163e-05
0.000265373
4.47972e-05
0.000297243
7.31465e-05
0.000337738
0.000102732
0.000388651
0.000134668
0.000453679
0.000146172
0.000183369
0.000546022
0.000209309
-8.47545e-06
0.000226877
-1.00981e-05
0.000247981
1.05959e-06
0.000272953
1.98247e-05
0.000303238
4.28617e-05
0.000340651
6.53186e-05
0.000387383
8.79355e-05
0.000439377
9.41787e-05
0.000109326
0.000513421
0.000214348
-2.28238e-05
0.000231571
-2.73211e-05
0.000248587
-1.59566e-05
0.000268041
3.70925e-07
0.000292567
1.83363e-05
0.000323946
3.39395e-05
0.000364056
4.7825e-05
0.00040666
5.15754e-05
5.56295e-05
0.000460356
0.000211475
-3.42983e-05
0.000215906
-3.17529e-05
0.000218798
-1.8848e-05
0.000225747
-6.57814e-06
0.000240453
3.63061e-06
0.000263365
1.10274e-05
0.000294543
1.66466e-05
0.000328239
1.78798e-05
1.80401e-05
0.000365828
0.000165702
0.000133949
0.000115101
0.000108523
0.000112153
0.000123181
0.000139827
0.000157707
0.000175747
0.000255528
0.000150251
4.8392e-05
0.000207136
0.000514068
0.000169029
7.42761e-05
0.000488184
0.000581733
0.000133318
6.70225e-05
0.000588987
0.000561084
8.56554e-05
4.38204e-05
0.000584286
0.000503071
4.29398e-05
1.85686e-05
0.000528323
0.000396169
1.25989e-05
2.49951e-06
0.000412238
0.000188346
0.000190846
0.000225462
-1.00599e-05
-8.26573e-06
0.000264783
-5.11392e-05
1.18182e-05
0.000300709
-9.66897e-05
6.07642e-05
0.000325965
-0.000142292
0.000117035
0.00033937
-0.000177792
0.000164388
0.000342707
-0.000195431
0.000192094
0.000338952
-0.000192578
0.000196333
0.00033172
-0.000175341
0.000182573
-0.000140622
0.000148795
0.000472847
5.2769e-06
0.000471507
-4.97986e-05
0.000472375
-9.75583e-05
0.000467954
-0.000137871
0.000455473
-0.000165311
0.000435603
-0.000175561
0.000411329
-0.000168304
0.000386039
-0.000150051
-0.000119049
0.000585282
8.98146e-06
0.000577476
-4.19927e-05
0.000564083
-8.41646e-05
0.000542936
-0.000116724
0.000513866
-0.000136241
0.000478799
-0.000140494
0.000441532
-0.000131037
0.000405333
-0.000113852
-8.97298e-05
0.000592492
7.76111e-07
0.000587191
-3.66918e-05
0.000570385
-6.73586e-05
0.000542634
-8.89734e-05
0.000505893
-9.95006e-05
0.000463827
-9.84279e-05
0.000421251
-8.84604e-05
0.000381638
-7.42391e-05
-5.85416e-05
0.000536365
-7.26599e-06
0.00052927
-2.95962e-05
0.000508251
-4.63399e-05
0.000475513
-5.62352e-05
0.000434731
-5.87186e-05
0.000390943
-5.46401e-05
0.000349196
-4.67138e-05
0.000312677
-3.77195e-05
-3.06191e-05
0.000412494
-7.52164e-06
0.000398105
-1.52072e-05
0.000371625
-1.98602e-05
0.000336774
-2.13839e-05
0.000298283
-2.02278e-05
0.000260963
-1.73206e-05
0.000228218
-1.39689e-05
0.00020158
-1.10807e-05
-1.0219e-05
0.000183324
0.000168117
0.000148256
0.000126873
0.000106645
8.93242e-05
7.53553e-05
6.42746e-05
-5.22607e-06
5.22607e-06
-1.3288e-05
8.06195e-06
-1.87898e-05
5.50179e-06
-1.96547e-05
8.6493e-07
-1.58462e-05
-3.80853e-06
-8.45802e-06
-7.38819e-06
8.17644e-07
-9.27567e-06
1.10189e-05
-1.02012e-05
-1.03807e-05
-9.03024e-06
1.42563e-05
-2.07127e-05
1.97444e-05
-2.67959e-05
1.15851e-05
-2.43216e-05
-1.60941e-06
-1.36104e-05
-1.45197e-05
2.92622e-06
-2.39248e-05
2.21019e-05
-2.84513e-05
4.10018e-05
-2.91012e-05
-2.7617e-05
-1.07458e-05
2.50021e-05
-2.36019e-05
3.26005e-05
-2.88818e-05
1.6865e-05
-2.30937e-05
-7.39752e-06
-7.14044e-06
-3.0473e-05
1.57124e-05
-4.67776e-05
4.14579e-05
-5.41969e-05
6.63653e-05
-5.40086e-05
-4.92738e-05
-1.24788e-05
3.74809e-05
-2.61006e-05
4.62223e-05
-3.02856e-05
2.105e-05
-2.15762e-05
-1.61069e-05
-1.17169e-06
-5.08775e-05
2.65493e-05
-7.44986e-05
5.73249e-05
-8.49725e-05
8.68937e-05
-8.35773e-05
-7.4097e-05
-1.3385e-05
5.08659e-05
-2.50715e-05
5.79088e-05
-2.56059e-05
2.15843e-05
-1.25807e-05
-2.91321e-05
1.18798e-05
-7.5338e-05
4.36791e-05
-0.000106298
7.77828e-05
-0.000119076
0.000110068
-0.000115862
-0.000100269
-1.01152e-05
6.09811e-05
-1.23384e-05
6.01321e-05
-3.13269e-06
1.23786e-05
1.71935e-05
-4.94583e-05
4.59188e-05
-0.000104063
7.9336e-05
-0.000139715
0.000113202
-0.000152942
0.000144403
-0.000147063
-0.000124624
4.54985e-06
5.64313e-05
2.37086e-05
4.09733e-05
5.07982e-05
-1.4711e-05
8.08768e-05
-7.95369e-05
0.000112249
-0.000135436
0.000142979
-0.000170445
0.000170976
-0.00018094
0.000195337
-0.000171423
-0.000142499
4.81655e-05
0.000100957
0.00014701
0.000184509
0.000213461
0.00023511
0.000250503
0.000261652
)
;

boundaryField
{
    inlet
    {
        type            calculated;
        value           uniform -0.0002;
    }
    outlet
    {
        type            calculated;
        value           nonuniform List<scalar> 
15
(
2.13996e-05
5.8238e-05
8.80222e-05
0.000111717
0.00013624
0.000168757
0.000213212
0.000267948
0.000323548
0.000364465
0.000376014
0.00035045
0.000284754
0.000181179
5.40556e-05
)
;
    }
    fixedWalls
    {
        type            calculated;
        value           uniform 0;
    }
    frontAndBack
    {
        type            empty;
    }
}


// ************************************************************************* //
