/*--------------------------------*- C++ -*----------------------------------*\
| =========                 |                                                 |
| \\      /  F ield         | OpenFOAM Extend Project: Open source CFD        |
|  \\    /   O peration     | Version:  1.6-ext                               |
|   \\  /    A nd           | Web:      www.extend-project.de                 |
|    \\/     M anipulation  |                                                 |
\*---------------------------------------------------------------------------*/
FoamFile
{
    version     2.0;
    format      ascii;
    class       volVectorField;
    location    "2.4";
    object      U;
}
// * * * * * * * * * * * * * * * * * * * * * * * * * * * * * * * * * * * * * //

dimensions      [0 1 -1 0 0 0 0];

internalField   nonuniform List<vector> 
284
(
(0.163777 0.0265945 0)
(0.14189 0.0267788 0)
(0.0990817 0.0191547 0)
(0.0669897 0.0120725 0)
(0.0443107 0.00711841 0)
(0.0274444 0.00425542 0)
(0.014294 0.00264909 0)
(0.00365906 0.00111469 0)
(-0.000543662 -0.00112353 0)
(0.200603 0.0433096 0)
(0.202243 0.0574271 0)
(0.179958 0.0530046 0)
(0.147784 0.0437064 0)
(0.113655 0.034437 0)
(0.080444 0.0273243 0)
(0.0491658 0.0220192 0)
(0.0204722 0.015654 0)
(0.00349096 0.00432879 0)
(0.203101 0.0289596 0)
(0.211173 0.0592138 0)
(0.205101 0.0716289 0)
(0.18512 0.0739969 0)
(0.154962 0.0709107 0)
(0.118356 0.065789 0)
(0.0780536 0.059572 0)
(0.0362789 0.0481023 0)
(0.00777788 0.0216556 0)
(0.201529 0.0222155 0)
(0.207751 0.0564603 0)
(0.208257 0.0800344 0)
(0.197801 0.0946379 0)
(0.175282 0.102152 0)
(0.141908 0.104868 0)
(0.099359 0.103229 0)
(0.0495499 0.0903425 0)
(0.0118463 0.0471654 0)
(0.20057 0.0187366 0)
(0.204143 0.0531743 0)
(0.206226 0.0830316 0)
(0.201396 0.107759 0)
(0.185964 0.126984 0)
(0.158377 0.141125 0)
(0.117805 0.149142 0)
(0.0635283 0.140079 0)
(0.0171901 0.0811696 0)
(0.200239 0.0170084 0)
(0.202538 0.0504249 0)
(0.205287 0.0833689 0)
(0.204404 0.115433 0)
(0.195546 0.145426 0)
(0.175324 0.172578 0)
(0.140142 0.194801 0)
(0.0844027 0.197027 0)
(0.0270844 0.126383 0)
(0.200221 0.0158064 0)
(0.202616 0.0475171 0)
(0.206873 0.0812796 0)
(0.210214 0.117831 0)
(0.208721 0.156384 0)
(0.198532 0.196077 0)
(0.174674 0.234827 0)
(0.121741 0.254297 0)
(0.0475726 0.197248 0)
(0.200345 0.0143464 0)
(0.203771 0.0432934 0)
(0.210673 0.0757915 0)
(0.219298 0.113823 0)
(0.226644 0.157734 0)
(0.229515 0.208133 0)
(0.221023 0.271008 0)
(0.19481 0.339038 0)
(0.0599584 0.286211 0)
(0.200543 0.012171 0)
(0.205586 0.036835 0)
(0.215927 0.0658946 0)
(0.230699 0.101987 0)
(0.248499 0.145888 0)
(0.271616 0.197757 0)
(0.298074 0.263215 0)
(0.355459 0.343968 0)
(0.397586 0.425448 0)
(0.200834 0.00896318 0)
(0.207974 0.0276221 0)
(0.221906 0.0513739 0)
(0.241849 0.0826033 0)
(0.26712 0.121275 0)
(0.301628 0.165248 0)
(0.342894 0.215975 0)
(0.409422 0.255454 0)
(0.489965 0.33144 0)
(0.201382 0.004363 0)
(0.211462 0.0153289 0)
(0.228782 0.0328765 0)
(0.25176 0.0581223 0)
(0.280066 0.0897218 0)
(0.31644 0.123579 0)
(0.361029 0.16059 0)
(0.417675 0.174666 0)
(0.496703 0.222804 0)
(0.20244 -0.0029311 0)
(0.216689 -0.000645605 0)
(0.236467 0.0115265 0)
(0.259608 0.0317322 0)
(0.286995 0.0571313 0)
(0.320472 0.0828484 0)
(0.362715 0.109782 0)
(0.410513 0.116977 0)
(0.473464 0.13881 0)
(0.204205 -0.0141575 0)
(0.22238 -0.0190886 0)
(0.239771 -0.00926594 0)
(0.257498 0.0080182 0)
(0.279162 0.0283173 0)
(0.306623 0.047407 0)
(0.342914 0.0655316 0)
(0.383603 0.0706682 0)
(0.431956 0.0776653 0)
(0.201747 -0.0354167 0)
(0.214723 -0.0374427 0)
(0.217337 -0.0235686 0)
(0.220926 -0.00745879 0)
(0.231498 0.00738161 0)
(0.250152 0.0192374 0)
(0.277913 0.028656 0)
(0.310329 0.0310329 0)
(0.34668 0.0317574 0)
(0.164647 -0.0249429 0)
(0.150956 -0.022468 0)
(0.123241 -0.0128244 0)
(0.109582 -0.00499701 0)
(0.108731 0.00051884 0)
(0.116507 0.00404617 0)
(0.130916 0.00621111 0)
(0.148437 0.00628001 0)
(0.167032 0.00556564 0)
(0.357877 0.163044 0)
(0.196237 0.0392341 0)
(0.543751 0.168085 0)
(0.504635 0.0674759 0)
(0.572969 0.155492 0)
(0.594039 0.0807226 0)
(0.540595 0.108016 0)
(0.578829 0.0571651 0)
(0.48319 0.060792 0)
(0.519556 0.0292024 0)
(0.382483 0.022628 0)
(0.407235 0.00647049 0)
(0.18328 0.00239125 0)
(0.191404 -0.00204444 0)
(0.208105 -0.0154403 0)
(0.241037 -0.0441272 0)
(0.284006 -0.0881921 0)
(0.317905 -0.13686 0)
(0.337473 -0.17701 0)
(0.34474 -0.19909 0)
(0.341729 -0.19945 0)
(0.337068 -0.183687 0)
(0.322549 -0.148526 0)
(0.479153 -0.00223334 0)
(0.470087 -0.0537591 0)
(0.47259 -0.100943 0)
(0.473753 -0.143586 0)
(0.465597 -0.174897 0)
(0.448474 -0.188921 0)
(0.423216 -0.183887 0)
(0.400682 -0.166097 0)
(0.365927 -0.132561 0)
(0.591407 0.0139277 0)
(0.583124 -0.0418168 0)
(0.572944 -0.0890471 0)
(0.556952 -0.127045 0)
(0.531556 -0.151563 0)
(0.498542 -0.159427 0)
(0.459197 -0.15127 0)
(0.425438 -0.133497 0)
(0.379022 -0.105526 0)
(0.593324 0.00593695 0)
(0.593427 -0.0387941 0)
(0.582319 -0.0758345 0)
(0.560135 -0.103504 0)
(0.52697 -0.118849 0)
(0.486393 -0.120417 0)
(0.441273 -0.1104 0)
(0.402917 -0.0942166 0)
(0.354233 -0.0739663 0)
(0.536758 -0.00450081 0)
(0.537004 -0.0344863 0)
(0.522582 -0.0582422 0)
(0.495105 -0.0738752 0)
(0.457029 -0.0798543 0)
(0.413369 -0.0764307 0)
(0.368599 -0.0666452 0)
(0.331366 -0.0543774 0)
(0.288614 -0.0430604 0)
(0.416028 -0.0105086 0)
(0.408879 -0.0243982 0)
(0.38785 -0.0336061 0)
(0.356128 -0.0375394 0)
(0.318097 -0.0364919 0)
(0.279081 -0.0318352 0)
(0.243174 -0.0258563 0)
(0.214512 -0.0202759 0)
(0.184497 -0.0175413 0)
(0.188937 -0.00588266 0)
(0.17719 -0.00816572 0)
(0.159067 -0.00874518 0)
(0.137809 -0.00799748 0)
(0.11647 -0.00653053 0)
(0.0974091 -0.00493387 0)
(0.0817365 -0.00369934 0)
(0.0696349 -0.00304005 0)
(0.0562267 -0.00356022 0)
(-0.00210016 0.0020955 0)
(-0.00911037 0.0035813 0)
(-0.0169403 0.00279439 0)
(-0.0202262 0.00110506 0)
(-0.0185607 -0.000701775 0)
(-0.0126246 -0.00218043 0)
(-0.003809 -0.00304426 0)
(0.00505299 -0.00372291 0)
(0.0192777 -0.00413883 0)
(-0.00393549 0.0090567 0)
(-0.0151184 0.0133373 0)
(-0.0256896 0.00872549 0)
(-0.0275802 0.000682992 0)
(-0.0205368 -0.00728203 0)
(-0.00615731 -0.013296 0)
(0.0123727 -0.0163652 0)
(0.0307946 -0.0174218 0)
(0.0550475 -0.0172731 0)
(-0.00484574 0.0193226 0)
(-0.0177801 0.0259897 0)
(-0.0288254 0.014525 0)
(-0.0285916 -0.00368778 0)
(-0.0171405 -0.0211704 0)
(0.0033228 -0.0337771 0)
(0.0285532 -0.0397219 0)
(0.0532652 -0.0401006 0)
(0.0841368 -0.0373316 0)
(-0.005868 0.0310683 0)
(-0.0203481 0.039481 0)
(-0.031323 0.0194717 0)
(-0.0289519 -0.010826 0)
(-0.0137593 -0.0394739 0)
(0.0115801 -0.0593679 0)
(0.0420268 -0.0683835 0)
(0.0715727 -0.0677412 0)
(0.107344 -0.0609627 0)
(-0.00679165 0.0442822 0)
(-0.0211666 0.0529153 0)
(-0.0289077 0.0226278 0)
(-0.022232 -0.0214998 0)
(-0.00236343 -0.0623018 0)
(0.0271864 -0.0898457 0)
(0.0610577 -0.101636 0)
(0.0936718 -0.0993971 0)
(0.131596 -0.0871014 0)
(-0.00607289 0.0567206 0)
(-0.0145595 0.0614648 0)
(-0.0110833 0.0195236 0)
(0.00471377 -0.0380107 0)
(0.0306768 -0.0897 0)
(0.0629514 -0.123801 0)
(0.097023 -0.137129 0)
(0.129044 -0.132509 0)
(0.164146 -0.113488 0)
(0.00093043 0.0692097 0)
(0.00923339 0.0598687 0)
(0.0358742 0.00474739 0)
(0.0659749 -0.0626862 0)
(0.0978426 -0.120668 0)
(0.129351 -0.157474 0)
(0.158251 -0.169878 0)
(0.183971 -0.162057 0)
(0.209091 -0.135997 0)
(0.0347647 0.0339973 0)
(0.0690774 0.018158 0)
(0.1253 -0.0365184 0)
(0.169144 -0.0999564 0)
(0.202739 -0.153283 0)
(0.227496 -0.185496 0)
(0.244285 -0.193134 0)
(0.257319 -0.181333 0)
(0.264932 -0.149239 0)
)
;

boundaryField
{
    inlet
    {
        type            fixedValue;
        value           uniform (0.2 0 0);
    }
    outlet
    {
        type            zeroGradient;
    }
    fixedWalls
    {
        type            fixedValue;
        value           uniform (0 0 0);
    }
    frontAndBack
    {
        type            empty;
    }
}


// ************************************************************************* //
