/*--------------------------------*- C++ -*----------------------------------*\
| =========                 |                                                 |
| \\      /  F ield         | OpenFOAM Extend Project: Open source CFD        |
|  \\    /   O peration     | Version:  1.6-ext                               |
|   \\  /    A nd           | Web:      www.extend-project.de                 |
|    \\/     M anipulation  |                                                 |
\*---------------------------------------------------------------------------*/
FoamFile
{
    version     2.0;
    format      ascii;
    class       volSymmTensorField;
    location    "0.35";
    object      DSigma;
}
// * * * * * * * * * * * * * * * * * * * * * * * * * * * * * * * * * * * * * //

dimensions      [1 -1 -2 0 0 0 0];

internalField   nonuniform List<symmTensor> 
328
(
(0.302038 0.0569146 4.97206e-24 0.107657 -4.34763e-25 0.163878)
(0.245557 0.0241062 0 0.137263 0 0.153128)
(0.233599 -0.0238984 -2.17652e-27 0.131969 1.22671e-27 0.146228)
(0.252516 -0.050328 1.96447e-25 0.0899129 -5.7391e-20 0.136971)
(0.281799 0.0395394 -6.5717e-24 0.0656112 -1.58748e-23 0.138964)
(0.245995 0.0209598 0 0.094937 0 0.136373)
(0.23415 -0.0190448 -3.47691e-26 0.0932643 1.62428e-26 0.130966)
(0.234663 -0.0348074 5.05776e-24 0.0534483 5.09633e-20 0.115245)
(0.276418 0.025184 -2.30233e-23 0.0409323 1.51015e-20 0.12694)
(0.2594 0.0170453 0 0.0707168 0 0.132047)
(0.246701 -0.0139446 3.43108e-26 0.0706488 -1.62112e-26 0.12694)
(0.229895 -0.0217366 -5.87229e-24 0.0318275 -1.61358e-20 0.104689)
(0.26955 0.0148965 1.88807e-23 0.0238465 -2.87738e-20 0.117359)
(0.262669 0.0126515 1.28545e-24 0.0483029 1.03091e-24 0.124389)
(0.250109 -0.00882394 0 0.0495156 0 0.11985)
(0.224214 -0.012249 3.3615e-25 0.0167783 -1.5348e-20 0.0963971)
(0.266577 0.00809049 -2.59237e-24 0.01392 1.3614e-20 0.112199)
(0.26656 0.00866141 4.34469e-25 0.0331921 1.50658e-25 0.119901)
(0.254096 -0.00445201 1.63797e-24 0.0350297 -4.04217e-25 0.11565)
(0.222192 -0.00590254 -3.36369e-25 0.00798061 1.44397e-20 0.092069)
(0.264653 0.00376407 -2.84019e-29 0.00799335 1.01021e-24 0.109058)
(0.267329 0.00540862 -4.05097e-25 0.0215139 -1.40473e-25 0.115537)
(0.255209 -0.00100712 -1.52724e-24 0.0237448 3.76891e-25 0.111581)
(0.221334 -0.00182671 -1.59368e-23 0.00272217 -1.36678e-20 0.0896224)
(0.264132 0.00121024 2.98352e-25 0.00486695 -1.19238e-20 0.1076)
(0.26737 0.00305743 0 0.0135744 0 0.112378)
(0.25562 0.00141749 5.08915e-24 0.0159817 3.20787e-25 0.108641)
(0.221901 0.000600404 -1.59775e-24 -2.77835e-05 1.2716e-20 0.0887493)
(0.264253 -0.000158082 -3.19277e-24 0.00335308 1.10115e-20 0.107042)
(0.266335 0.00154185 4.93818e-24 0.00808574 3.99658e-25 0.109768)
(0.255013 0.00294523 -1.35896e-23 0.0105712 8.23276e-25 0.106234)
(0.223191 0.00190851 1.52137e-23 -0.00130657 -1.17139e-20 0.0887537)
(0.264787 -0.000748697 -3.63481e-25 0.00281183 2.02626e-20 0.10704)
(0.264921 0.000725857 3.03637e-23 0.00461259 6.53159e-24 0.107814)
(0.254037 0.00374069 -2.90359e-23 0.00710485 9.43324e-25 0.104457)
(0.224971 0.00247245 -2.74238e-24 -0.00168029 1.0759e-20 0.0893162)
(0.265414 -0.000867605 -6.40782e-24 0.00278068 -9.19329e-21 0.107278)
(0.263256 0.000422801 -1.04872e-23 0.00252005 -2.64404e-24 0.106311)
(0.252823 0.00400849 2.16301e-23 0.00498117 -3.01209e-24 0.103122)
(0.226933 0.00257896 -3.07109e-24 -0.00156536 -2.30059e-24 0.090147)
(0.265954 -0.000725447 -1.20015e-23 0.0029903 -8.46114e-21 0.107578)
(0.261592 0.000456159 -3.53023e-24 0.00140758 -1.18511e-24 0.1052)
(0.251616 0.00393347 0 0.00381077 0 0.102171)
(0.228903 0.00242894 2.92203e-24 -0.00120892 9.00033e-21 0.0910775)
(0.266272 -0.000467787 4.76776e-23 0.00327089 9.63263e-24 0.107817)
(0.260021 0.000673735 -6.25711e-23 0.000916112 -1.36642e-23 0.104375)
(0.250512 0.00367195 0 0.0032434 0 0.101502)
(0.23075 0.00216313 -2.7522e-23 -0.000769809 1.12031e-22 0.0919922)
(0.2663 -0.000186782 -1.0498e-22 0.00352886 -6.54356e-24 0.107931)
(0.258612 0.000962547 -8.01867e-24 0.000796958 -1.64735e-24 0.103763)
(0.249581 0.00333833 -6.28702e-23 0.0030338 -3.1856e-24 0.101046)
(0.232413 0.0018717 -3.69396e-23 -0.000337187 5.31439e-23 0.0928302)
(0.266009 6.37431e-05 7.41097e-23 0.00371646 6.264e-21 0.10789)
(0.257371 0.00124743 6.17631e-23 0.000868378 1.34008e-23 0.103296)
(0.248835 0.00300803 1.91304e-22 0.00300256 1.26709e-23 0.100735)
(0.233867 0.00160781 5.57846e-23 4.26976e-05 -6.63528e-21 0.0935637)
(0.265404 0.000258222 1.33938e-22 0.00381701 -5.52422e-21 0.107688)
(0.25628 0.00148674 0 0.00101592 0 0.102918)
(0.248257 0.00272228 -1.07617e-22 0.00303632 -8.79345e-24 0.100517)
(0.23512 0.0013969 -1.61528e-23 0.000353421 -5.92805e-21 0.0941894)
(0.264503 0.00038963 -1.0557e-22 0.00383231 -1.01651e-23 0.107334)
(0.255295 0.00166378 -7.17594e-23 0.00117287 -1.60917e-23 0.102587)
(0.247811 0.00249713 1.79393e-22 0.00306906 2.22234e-23 0.100352)
(0.236198 0.00124601 2.1229e-25 0.000596671 5.25379e-21 0.0947178)
(0.26333 0.000462049 1.5549e-22 0.00377469 -4.37318e-21 0.106842)
(0.254366 0.00177835 -7.61021e-23 0.00130869 -2.13083e-23 0.10227)
(0.247448 0.00233194 -1.34597e-22 0.00307061 -1.53292e-23 0.100207)
(0.23713 0.00115107 -1.50429e-30 0.0007846 -2.66747e-26 0.0951658)
(0.261907 0.000484776 8.78475e-25 0.00366138 1.16511e-20 0.106227)
(0.253442 0.00183911 3.22804e-22 0.0014162 7.75076e-23 0.101943)
(0.24712 0.00221718 -7.18206e-23 0.00303397 -6.76955e-24 0.100061)
(0.237944 0.0011027 3.66274e-22 0.000934369 -8.34276e-21 0.0955512)
(0.260248 0.000468511 -6.52198e-25 0.00351126 -6.71327e-21 0.105504)
(0.252474 0.00185797 -3.00981e-22 0.00150223 -7.22678e-23 0.10159)
(0.24678 0.0021401 0 0.00296592 0 0.0998983)
(0.238658 0.00109009 -5.78694e-22 0.00106475 7.29051e-21 0.0958891)
(0.258357 0.000423101 7.38075e-25 0.00334379 6.03188e-21 0.10468)
(0.251416 0.00184645 0 0.00158201 0 0.101199)
(0.246388 0.00208838 8.05547e-22 0.00288169 1.43729e-22 0.0997077)
(0.239283 0.00110328 1.30444e-22 0.00119556 -6.44729e-21 0.0961916)
(0.256225 0.000356935 -7.92312e-25 0.00317812 -5.23236e-21 0.103761)
(0.250229 0.00181426 3.25865e-22 0.00167331 7.49144e-23 0.100761)
(0.245902 0.00205215 -6.21893e-22 0.0027988 -1.38406e-22 0.0994804)
(0.239815 0.00113399 -3.12019e-22 0.00134559 5.68203e-21 0.0964643)
(0.253843 0.000277998 7.33721e-22 0.00303887 -4.42989e-21 0.102753)
(0.248881 0.0017682 0 0.00180219 0 0.100273)
(0.245297 0.00202296 0 0.00274386 0 0.0992162)
(0.240254 0.00117326 6.5903e-22 0.00154266 9.94089e-21 0.0967187)
(0.251083 0.000181228 2.09872e-23 0.00293944 7.82297e-21 0.101609)
(0.247266 0.00170332 -6.5714e-22 0.00199207 -2.02931e-22 0.0997033)
(0.244494 0.00198807 1.26418e-21 0.00272937 2.79759e-22 0.0988893)
(0.240568 0.00121746 -5.54812e-22 0.0018026 -8.61696e-21 0.0969484)
(0.248018 9.2491e-05 -5.92188e-23 0.00294218 -1.0352e-22 0.100384)
(0.245418 0.00165608 -2.18828e-21 0.00229224 -6.67423e-22 0.0990842)
(0.243501 0.0019738 7.71015e-22 0.00281282 2.06165e-22 0.0985254)
(0.240739 0.00127055 -6.28178e-22 0.00218015 4.16627e-21 0.0971679)
(0.244816 1.9434e-05 -3.71595e-23 0.00303983 -3.95157e-21 0.0991422)
(0.243432 0.00161562 3.02508e-21 0.00268564 9.44474e-22 0.0984469)
(0.24236 0.00195995 -2.88229e-21 0.00299394 -7.10791e-22 0.0981418)
(0.240749 0.00131079 1.45731e-21 0.00265549 -3.59911e-21 0.0973618)
(0.241505 -3.49997e-05 8.24288e-23 0.00325812 4.06426e-22 0.0979054)
(0.241326 0.00158124 4.8093e-23 0.00319206 7.70899e-23 0.0978071)
(0.241093 0.00194187 1.62409e-21 0.00329083 4.77496e-22 0.0977533)
(0.240622 0.00133287 1.71204e-24 0.00325011 4.60406e-21 0.097549)
(0.238093 -6.41348e-05 -1.75442e-21 0.00358657 -3.08489e-22 0.096672)
(0.239106 0.00155353 0 0.00380479 0 0.0971645)
(0.239704 0.00191588 -1.77466e-21 0.00369682 -5.16327e-22 0.0973604)
(0.240369 0.00132928 1.64232e-21 0.0039545 -5.51825e-22 0.0977293)
(0.234605 -6.62199e-05 -1.95207e-21 0.00402228 -4.38612e-22 0.0954511)
(0.236794 0.00153112 -1.85621e-21 0.00451883 -5.79663e-22 0.096525)
(0.238214 0.00187885 3.63084e-21 0.00420747 1.09598e-21 0.0969685)
(0.24001 0.00129652 -1.66355e-24 0.00476613 -3.47161e-21 0.0979104)
(0.231061 -3.9335e-05 2.09677e-21 0.00454287 3.54677e-21 0.0942415)
(0.234403 0.00151228 0 0.00531327 0 0.0958865)
(0.236636 0.00182736 0 0.00480271 0 0.0965753)
(0.239559 0.00123053 -1.95729e-21 0.00566279 3.58645e-22 0.0980887)
(0.227487 1.49295e-05 -4.22667e-21 0.00512363 -6.64326e-21 0.0930442)
(0.231955 0.00149413 -2.19461e-21 0.00616243 -7.25518e-22 0.095247)
(0.234987 0.00175873 2.03836e-21 0.00545792 6.04509e-22 0.096178)
(0.239031 0.0011305 -2.0676e-21 0.00661906 6.56076e-21 0.0982601)
(0.223908 9.36628e-05 1.36672e-20 0.00572865 7.29245e-21 0.0918548)
(0.229468 0.00147345 -4.5444e-21 0.00703056 -1.56749e-21 0.0945996)
(0.233282 0.00167072 8.67794e-23 0.00613858 1.46024e-22 0.0957683)
(0.238434 0.00099695 4.30047e-21 0.00759746 -4.22043e-21 0.0984127)
(0.220351 0.000191364 -4.62746e-21 0.00631915 -4.09593e-21 0.090668)
(0.226961 0.00144653 -4.7604e-21 0.00787797 -1.65251e-21 0.0939357)
(0.231534 0.00156214 4.68233e-21 0.00680632 1.51121e-21 0.0953361)
(0.237774 0.000833211 9.79578e-25 0.00855665 1.38608e-21 0.0985321)
(0.216837 0.000301044 -3.06837e-25 0.00685299 -4.11329e-22 0.0894759)
(0.224449 0.00140959 4.7604e-21 0.00866173 1.65251e-21 0.0932442)
(0.229751 0.00143272 7.16728e-23 0.00741959 -2.99121e-23 0.0948682)
(0.237046 0.000644463 -9.57984e-21 0.00945102 -7.84514e-22 0.0985989)
(0.213385 0.00041421 -5.18004e-21 0.00729059 -3.91778e-22 0.0882702)
(0.221942 0.00135891 5.11476e-21 0.00934077 1.83679e-21 0.0925131)
(0.227937 0.0012833 5.12077e-21 0.00793865 1.66776e-21 0.0943504)
(0.236244 0.000437929 4.97989e-21 0.0102366 3.68681e-21 0.0985922)
(0.21001 0.000521796 5.24936e-21 0.00759775 1.34879e-21 0.0870431)
(0.219448 0.00129122 0 0.00987901 0 0.0917308)
(0.226092 0.00111576 -5.12077e-21 0.00832866 -1.66777e-21 0.0937684)
(0.235352 0.000222071 7.52356e-23 0.0108741 -2.21758e-21 0.0984903)
(0.206721 0.000614783 -4.49593e-26 0.00774999 -4.91879e-23 0.0857883)
(0.216968 0.00120392 5.60048e-21 0.0102494 1.92761e-21 0.0908868)
(0.22421 0.000932903 0 0.00856369 0 0.0931093)
(0.234349 6.07849e-06 1.68211e-24 0.0113333 1.80326e-21 0.0982728)
(0.203521 0.000685125 -4.70817e-25 0.00773489 -4.86005e-22 0.0845025)
(0.214497 0.00109545 -5.60048e-21 0.0104365 -1.92762e-21 0.0899736)
(0.222278 0.000738298 -5.63332e-21 0.00862919 -1.75104e-21 0.0923628)
(0.23321 -0.000200998 1.12118e-20 0.0115961 -3.31482e-22 0.0979225)
(0.200411 0.000726467 -5.9194e-21 0.00755344 4.48066e-22 0.0831858)
(0.212028 0.000965476 -8.29261e-23 0.0104376 4.53736e-23 0.0889864)
(0.220281 0.00053603 5.84907e-21 0.00852344 1.79642e-21 0.0915218)
(0.231908 -0.00039097 -1.17884e-20 0.0116579 -4.25367e-21 0.0974264)
(0.197384 0.000734754 -1.22564e-20 0.00721947 -3.08411e-21 0.0818414)
(0.209547 0.000815068 1.83248e-20 0.0102631 6.14941e-21 0.0879241)
(0.2182 0.000330433 -6.06321e-21 0.00825729 -1.83173e-21 0.090583)
(0.230413 -0.000557198 1.20018e-20 0.0115276 3.54555e-21 0.0967764)
(0.194431 0.000708525 6.30802e-21 0.00675758 1.05394e-21 0.0804753)
(0.207038 0.00064666 -6.21858e-21 0.00993398 -2.16791e-21 0.0867887)
(0.216015 0.000125822 -6.29376e-21 0.00785245 -1.98962e-21 0.0895469)
(0.228698 -0.000695045 6.37302e-21 0.0112261 1.18287e-21 0.0959698)
(0.191539 0.000648927 -6.50189e-21 0.00619992 -1.95956e-21 0.0790956)
(0.204483 0.0004639 0 0.00947945 0 0.0855848)
(0.213703 -7.37501e-05 -6.48646e-21 0.00733857 -1.87038e-21 0.0884168)
(0.226737 -0.000802093 6.58293e-21 0.0107831 -2.43116e-21 0.0950082)
(0.188695 0.000559411 -1.35418e-20 0.0055824 -2.93584e-22 0.0777108)
(0.201864 0.000271356 1.86382e-22 0.00893332 1.16843e-22 0.0843188)
(0.211247 -0.000264683 1.33849e-20 0.00674978 4.0085e-21 0.0871986)
(0.22451 -0.000878084 1.36021e-20 0.0102335 1.88927e-21 0.0938972)
(0.185881 0.000445214 -1.63822e-22 0.00494097 -3.01896e-21 0.0763288)
(0.199164 7.41466e-05 -1.35714e-20 0.00833044 -4.1254e-21 0.0829977)
(0.208627 -0.000443951 0 0.00612113 0 0.0858993)
(0.221999 -0.00092464 1.42366e-20 0.00961369 -6.00379e-21 0.0926451)
(0.183082 0.000312702 -1.42531e-20 0.00430851 -1.04645e-21 0.0749562)
(0.196367 -0.00012247 0 0.00770373 0 0.0816284)
(0.205831 -0.000609172 -1.43876e-20 0.00548549 -3.79087e-21 0.0845267)
(0.219196 -0.00094483 -1.4027e-20 0.00895841 -3.85814e-21 0.0912617)
(0.180281 0.00016869 -3.51344e-22 0.00371256 -2.22155e-21 0.0735974)
(0.193462 -0.000313476 -1.47013e-22 0.00708182 -7.90183e-23 0.0802174)
(0.202849 -0.000758621 -1.60242e-22 0.00487127 -9.16435e-23 0.0830882)
(0.216096 -0.000942655 -2.22311e-24 0.00829818 -1.64518e-21 0.0897578)
(0.177462 1.98141e-05 2.94346e-20 0.00317411 8.48811e-21 0.0722545)
(0.190437 -0.000494414 -1.33427e-22 0.00648771 -6.94254e-23 0.0787698)
(0.199676 -0.000891193 1.50173e-20 0.00430099 3.54317e-21 0.0815907)
(0.212703 -0.000922546 -3.01205e-20 0.00765785 -5.41142e-21 0.0881441)
(0.174611 -0.000127959 -1.50626e-20 0.00270728 -9.16173e-21 0.0709271)
(0.187285 -0.000661616 1.54185e-20 0.00593823 3.7399e-21 0.0772893)
(0.196309 -0.00100635 0 0.00379071 0 0.08004)
(0.209022 -0.000888913 6.58518e-24 0.00705593 4.63284e-21 0.0864311)
(0.171712 -0.000269659 3.11492e-20 0.00231971 9.45251e-21 0.0696128)
(0.184002 -0.00081232 -4.67159e-20 0.00544424 -1.11211e-20 0.0757785)
(0.192752 -0.00110405 0 0.0033503 0 0.0784408)
(0.205066 -0.000845811 3.19708e-20 0.00650479 -2.91713e-21 0.0846283)
(0.168755 -0.000401475 -3.15574e-20 0.00201352 1.03828e-22 0.0683073)
(0.180585 -0.00094469 1.57716e-20 0.0050113 3.59679e-21 0.0742385)
(0.189007 -0.00118464 0 0.00298409 0 0.0767966)
(0.200851 -0.000796718 1.67086e-20 0.00601129 2.62298e-22 0.0827447)
(0.165727 -0.000520767 -7.61667e-23 0.00178645 -5.06848e-21 0.0670053)
(0.177034 -0.00105776 0 0.00464064 0 0.0726697)
(0.185084 -0.00124876 1.65487e-20 0.00269193 2.99535e-21 0.0751102)
(0.196393 -0.000744424 -3.29849e-20 0.00557777 -2.12753e-21 0.0807883)
(0.162619 -0.000625967 3.29126e-20 0.00163309 6.37257e-21 0.0657007)
(0.173348 -0.00115129 -1.67235e-20 0.00433027 -3.04115e-21 0.0710715)
(0.180989 -0.00129726 -2.69324e-22 0.00247025 2.15366e-22 0.0733835)
(0.191712 -0.000691017 1.70895e-20 0.00520314 -4.52521e-21 0.0787661)
(0.159422 -0.000716407 -1.66296e-20 0.00154604 -1.60927e-21 0.064387)
(0.169532 -0.00122565 -3.39697e-20 0.00407595 -5.87483e-21 0.069443)
(0.176732 -0.00133111 -3.42914e-22 0.00231323 2.14379e-22 0.0716179)
(0.186828 -0.000637936 6.73295e-26 0.00488392 4.3124e-23 0.0766848)
(0.156128 -0.000792124 -3.05055e-22 0.00151683 -7.21879e-22 0.0630578)
(0.165585 -0.0012816 1.71193e-20 0.00387215 2.82872e-21 0.0677831)
(0.172322 -0.00135134 1.73357e-20 0.00221365 2.61141e-21 0.0698143)
(0.18176 -0.00058606 -6.24849e-23 0.00461517 -7.69849e-22 0.0745502)
(0.15273 -0.000853659 3.46972e-20 0.00153668 5.75185e-21 0.0617068)
(0.161513 -0.00132019 0 0.00371274 0 0.0660903)
(0.16777 -0.00135892 -3.5948e-20 0.00216373 -4.2872e-21 0.0679736)
(0.176528 -0.000535824 -5.71273e-22 0.00439126 3.25169e-21 0.0723677)
(0.149224 -0.000901875 2.76779e-22 0.00159704 -1.61271e-22 0.0603282)
(0.157317 -0.0013426 2.56475e-22 0.00359153 -1.98528e-22 0.0643635)
(0.163085 -0.00135481 -3.39829e-23 0.00215567 2.44107e-23 0.0660962)
(0.171149 -0.000487326 3.67933e-20 0.00420641 -2.62008e-21 0.0701423)
(0.145602 -0.00093782 5.83321e-26 0.00168991 3.53624e-23 0.0589169)
(0.153001 -0.00135003 -1.83474e-20 0.00350265 -1.79968e-21 0.0626016)
(0.158276 -0.00133986 -1.86187e-20 0.00218205 -1.60483e-21 0.064183)
(0.165642 -0.000440433 -1.85619e-20 0.00405514 1.09307e-21 0.0678787)
(0.141862 -0.000962612 2.82325e-22 0.00180807 -3.86199e-21 0.057468)
(0.148568 -0.00134371 -3.12576e-24 0.00344078 5.02768e-23 0.0608036)
(0.15335 -0.00131485 -2.97068e-22 0.0022361 2.82992e-22 0.0622346)
(0.160021 -0.000394871 3.43249e-24 0.00393244 2.07117e-21 0.0655813)
(0.137998 -0.000977374 -4.06414e-24 0.00194515 -2.41802e-21 0.0559774)
(0.144021 -0.0013248 -1.89181e-20 0.00340126 -1.27045e-21 0.058969)
(0.148318 -0.00128052 5.70371e-20 0.00231179 3.67339e-21 0.0602518)
(0.154302 -0.000350302 -1.92132e-20 0.00383398 -7.12358e-21 0.0632545)
(0.134008 -0.000983191 -1.85902e-20 0.00209566 -3.20448e-21 0.0544414)
(0.139363 -0.00129441 0 0.00338014 0 0.0570972)
(0.143185 -0.00123756 0 0.00240393 0 0.0582356)
(0.1485 -0.00030638 1.97785e-20 0.00375614 2.26787e-21 0.0609023)
(0.129887 -0.000981086 -1.91503e-20 0.0022549 1.63199e-21 0.0528568)
(0.134596 -0.00125366 1.91544e-20 0.00337414 8.2907e-22 0.0551882)
(0.137959 -0.00118666 3.95119e-20 0.00250811 9.00637e-22 0.056187)
(0.142626 -0.0002628 -1.94941e-20 0.00369596 -2.37032e-21 0.0585289)
(0.125633 -0.000972021 -1.90815e-20 0.00241896 -7.35499e-22 0.051221)
(0.129724 -0.00120363 0 0.00338062 0 0.0532418)
(0.132647 -0.00112855 2.8415e-22 0.00262064 -2.42341e-22 0.0541072)
(0.136694 -0.000219323 -4.00763e-20 0.00365109 1.76572e-21 0.056138)
(0.121245 -0.000956897 -1.65838e-24 0.00258463 -9.59792e-22 0.0495319)
(0.124749 -0.00114541 0 0.00339748 0 0.0512585)
(0.127255 -0.00106402 4.05315e-20 0.00273854 -3.64969e-22 0.0519975)
(0.130714 -0.000175797 -2.02825e-20 0.00361976 1.03093e-21 0.0537334)
(0.11672 -0.000936558 -2.09282e-24 0.00274929 -1.20492e-21 0.0477879)
(0.119674 -0.00108014 0 0.00342311 0 0.0492388)
(0.121788 -0.000993913 -2.02922e-20 0.00285939 1.3597e-22 0.0498591)
(0.124696 -0.000132161 2.04886e-20 0.00360061 2.61288e-21 0.0513186)
(0.112059 -0.000911791 -3.98621e-20 0.00291087 1.06596e-22 0.0459879)
(0.114502 -0.00100894 4.0532e-20 0.00345626 -1.14258e-21 0.0471832)
(0.116253 -0.000919122 -4.09137e-20 0.00298129 1.19328e-21 0.0476937)
(0.118649 -8.84332e-05 2.12995e-20 0.00359264 -6.02137e-21 0.0488966)
(0.107261 -0.000883333 -2.02453e-20 0.00306779 -3.99109e-22 0.0441314)
(0.109236 -0.000932934 0 0.00349602 0 0.0450926)
(0.110654 -0.000840587 0 0.00310278 0 0.0455026)
(0.112581 -4.47064e-05 -2.09731e-20 0.00359512 -2.91278e-22 0.0464706)
(0.102327 -0.000851864 4.07577e-20 0.00321884 -1.93949e-21 0.0422183)
(0.103879 -0.000853244 -2.05144e-20 0.00354171 1.19e-21 0.0429682)
(0.104996 -0.000759255 -2.1185e-20 0.00322275 1.45032e-21 0.0432874)
(0.1065 -1.12465e-06 6.3881e-20 0.00360753 -2.51197e-21 0.044043)
(0.0972591 -0.000818013 6.16962e-20 0.00336318 -4.30028e-22 0.0402489)
(0.0984347 -0.000770953 -2.07062e-20 0.00359285 1.53878e-21 0.040811)
(0.0992834 -0.000676077 -2.13813e-20 0.00334043 1.78423e-21 0.0410495)
(0.100411 4.21258e-05 -2.17078e-20 0.00362949 1.00849e-21 0.0416163)
(0.0920604 -0.000782366 -2.06255e-20 0.00350024 8.55514e-22 0.0382243)
(0.0929072 -0.000687121 2.12302e-20 0.00364909 -2.00373e-21 0.0386225)
(0.0935212 -0.000592002 -2.12301e-20 0.00345527 2.00373e-21 0.0387906)
(0.0943205 8.48259e-05 2.16449e-20 0.00366071 1.10323e-21 0.0391925)
(0.0867342 -0.000745484 -2.09672e-20 0.00362972 4.38132e-22 0.0361456)
(0.0873001 -0.000602815 0 0.00371019 0 0.0364041)
(0.0877134 -0.000508002 -2.16524e-20 0.00356697 2.57171e-21 0.0365122)
(0.0882321 0.000126719 2.19864e-20 0.00370101 -2.63074e-21 0.0367733)
(0.0812851 -0.000707926 2.09679e-20 0.00375151 -7.26392e-23 0.0340146)
(0.0816177 -0.000519151 0 0.00377599 0 0.0341575)
(0.0818639 -0.000425113 -2.47538e-22 0.00367547 2.20437e-22 0.0342158)
(0.0821498 0.000167501 4.42919e-20 0.00375024 -4.28614e-21 0.03436)
(0.0757184 -0.000670278 4.22807e-20 0.00386573 -2.74096e-21 0.0318336)
(0.0758645 -0.00043735 0 0.00384636 0 0.0318843)
(0.0759765 -0.000344482 -2.19507e-20 0.00378083 3.25263e-21 0.0319029)
(0.0760763 0.000206808 -4.45281e-20 0.00380826 4.29912e-21 0.0319538)
(0.0700408 -0.000633171 -2.12629e-20 0.00397278 1.569e-21 0.0296054)
(0.0700453 -0.000358777 2.17407e-20 0.0039213 -3.51226e-21 0.0295866)
(0.0700546 -0.000267392 2.19507e-20 0.00388342 -3.25263e-21 0.0295752)
(0.0700135 0.000244202 -2.24225e-20 0.00387499 4.88436e-22 0.0295554)
(0.0642601 -0.000597317 6.98785e-25 0.0040732 3.91505e-22 0.0273333)
(0.0641651 -0.000284957 -4.3715e-20 0.00400069 7.23661e-21 0.0272663)
(0.0641014 -0.000195252 -3.38041e-22 0.00398362 7.63955e-23 0.027234)
(0.0639616 0.000279208 2.20871e-20 0.00395017 -1.68189e-21 0.0271647)
(0.058386 -0.000563471 1.24252e-24 0.00416829 6.95475e-22 0.0250217)
(0.0582298 -0.000217565 0 0.00408501 0 0.0249259)
(0.0581201 -0.000129488 2.231e-20 0.00408258 -4.27109e-21 0.0248811)
(0.0579206 0.000311322 4.54099e-20 0.00403389 -4.52781e-21 0.0247818)
(0.0524284 -0.000532519 1.13064e-24 0.00425899 6.32385e-22 0.022675)
(0.0522438 -0.000158351 0 0.00417389 0 0.0225671)
(0.0521118 -7.14129e-05 -2.231e-20 0.00418071 4.2711e-21 0.022517)
(0.0518875 0.00034018 -2.26503e-20 0.00412552 8.21011e-22 0.0224052)
(0.0464029 -0.000505569 4.35289e-20 0.00434874 -5.29387e-21 0.0203006)
(0.0462159 -0.000109338 2.13419e-22 0.00427006 -1.99049e-22 0.0201944)
(0.0460812 -2.17117e-05 2.24902e-20 0.00428168 -4.94701e-21 0.0201451)
(0.0458623 0.000365794 4.88182e-25 0.00422638 2.74178e-22 0.0200355)
(0.0403181 -0.000483757 -2.16712e-20 0.00443862 1.27299e-21 0.0179027)
(0.0401421 -7.23384e-05 -2.21493e-20 0.00437061 4.89863e-21 0.0178051)
(0.0400198 1.92513e-05 -2.24902e-20 0.00438363 4.94701e-21 0.0177614)
(0.0398365 0.000388389 1.29949e-22 0.00433533 -8.81198e-22 0.0176687)
(0.0342093 -0.000470349 -4.47367e-25 0.00453947 -2.49887e-22 0.0154995)
(0.0340477 -5.0727e-05 -2.22819e-20 0.00448976 5.58886e-21 0.015415)
(0.0339481 5.34695e-05 0 0.00450183 0 0.01538)
(0.0338256 0.000410698 4.59963e-20 0.00446033 -6.06562e-21 0.0153144)
(0.0280534 -0.00046319 -2.214e-20 0.00464726 2.98983e-21 0.0130803)
(0.0278694 -4.30815e-05 6.67468e-20 0.00459669 -1.72697e-20 0.0129864)
(0.0277978 7.85857e-05 0 0.00460687 0 0.0129619)
(0.0277879 0.000430081 -1.30541e-26 0.00459531 -7.32852e-24 0.0129533)
(0.0220067 -0.000465561 -6.92793e-25 0.00480073 -3.87006e-22 0.010723)
(0.0217775 -4.92744e-05 -2.23299e-20 0.00475762 5.93359e-21 0.010614)
(0.0217334 9.43586e-05 0 0.00476574 0 0.0105997)
(0.0218574 0.000449553 2.31931e-20 0.00477507 -3.39441e-21 0.010653)
(0.0157031 -0.000394787 -2.74889e-25 0.00484992 -1.53859e-22 0.00822121)
(0.0153373 -2.73747e-05 0 0.00463827 0 0.00799023)
(0.0153178 5.87585e-05 4.56167e-20 0.00464586 -1.30981e-20 0.00798545)
(0.015653 0.000385676 -2.28937e-20 0.00484848 2.95142e-21 0.00820059)
(0.010158 -0.000191367 -1.08611e-20 0.00467932 2.92658e-21 0.00593493)
(0.00997495 3.42508e-06 1.12798e-20 0.0044662 -6.94649e-21 0.00577646)
(0.00997004 -4.01218e-06 -3.42663e-20 0.00447174 2.03389e-20 0.00577671)
(0.0101639 0.000181989 1.15098e-20 0.00468899 -3.10885e-21 0.00594116)
)
;

boundaryField
{
    plateFix
    {
        type            calculated;
        value           nonuniform List<symmTensor> 4((0.304419 0.0727941 5.01256e-24 0.109246 1.18551e-24 0.165466) (0.230501 0.0242505 5.00094e-28 0.127225 -2.87658e-29 0.14309) (0.219928 -0.0256554 -2.17652e-27 0.122855 1.22671e-27 0.137114) (0.254932 -0.0649159 1.81913e-25 0.0915233 -5.7391e-20 0.138582));
    }
    plate
    {
        type            calculated;
        value           nonuniform List<symmTensor> 
168
(
(0.232252 1.2337e-05 3.15828e-24 0.00296313 -1.21537e-23 0.0940861)
(0.194619 3.80259e-06 4.45951e-25 0.00307052 -1.14782e-19 0.0790758)
(0.240043 1.50841e-05 -6.57149e-24 0.00296866 -2.06765e-23 0.0972047)
(0.20108 1.04636e-07 4.32101e-24 0.00307517 1.01936e-19 0.0816619)
(0.25111 1.82922e-05 -2.43208e-23 0.00296537 3.02297e-20 0.10163)
(0.210723 -3.20452e-06 -5.8698e-24 0.00307129 -3.22805e-20 0.0855178)
(0.255624 2.03584e-05 1.98882e-23 0.0029554 -5.75697e-20 0.103432)
(0.215069 -5.36378e-06 6.72302e-25 0.00306111 -3.0696e-20 0.087252)
(0.259259 2.08739e-05 -3.21334e-24 0.00294072 2.72304e-20 0.10488)
(0.218902 -5.94735e-06 -6.72738e-25 0.00304647 2.88795e-20 0.0887794)
(0.261272 1.93274e-05 -5.6804e-29 0.00292202 2.02043e-24 0.105678)
(0.221538 -4.68033e-06 -1.5616e-23 0.00302806 -2.73465e-20 0.0898263)
(0.262821 1.55886e-05 5.96706e-25 0.00289965 -2.38477e-20 0.106288)
(0.223924 -1.5188e-06 -1.87106e-24 0.00300618 2.54319e-20 0.0907719)
(0.263933 9.5414e-06 -3.42867e-24 0.00287362 2.20254e-20 0.106723)
(0.226049 3.55334e-06 1.5491e-23 0.0029808 -2.34199e-20 0.091612)
(0.264809 1.08767e-06 -7.26965e-25 0.00284368 4.05253e-20 0.107061)
(0.228059 1.05539e-05 -2.88619e-24 0.00295164 2.15165e-20 0.0924042)
(0.265433 -9.95137e-06 -6.28416e-24 0.00280941 -1.83843e-20 0.107297)
(0.229922 1.95865e-05 -3.11453e-24 0.0029183 -4.3387e-24 0.0931361)
(0.265807 -2.38728e-05 -1.19334e-23 0.0027703 -1.6917e-20 0.107431)
(0.231629 3.08759e-05 2.80887e-24 0.00288024 1.80017e-20 0.0938036)
(0.265908 -4.11241e-05 4.76776e-23 0.00272584 1.47614e-25 0.107454)
(0.233155 4.47928e-05 -2.753e-23 0.00283698 2.19551e-22 0.0943967)
(0.265731 -6.23143e-05 -1.04978e-22 0.00267562 2.67676e-23 0.107363)
(0.234496 6.18614e-05 -3.69143e-23 0.00278811 1.02712e-22 0.0949137)
(0.265278 -8.82094e-05 7.4213e-23 0.00261948 1.25002e-20 0.107159)
(0.23566 8.27508e-05 5.5682e-23 0.00273349 -1.32638e-20 0.0953575)
(0.264564 -0.000119707 1.33768e-22 0.00255772 -1.1093e-20 0.106849)
(0.236667 0.00010825 -1.6312e-23 0.0026734 -1.18558e-20 0.095736)
(0.263609 -0.000157791 -1.05569e-22 0.00249128 1.78152e-23 0.10644)
(0.237539 0.000139222 4.24576e-25 0.0026088 1.05075e-20 0.0960591)
(0.262428 -0.000203449 1.5535e-22 0.00242214 -8.79761e-21 0.10594)
(0.238301 0.000176527 -3.08099e-30 0.0025416 -5.46334e-26 0.096337)
(0.261035 -0.000257572 1.75697e-24 0.00235372 2.33024e-20 0.105355)
(0.23897 0.000220928 3.65645e-22 0.00247514 -1.67094e-20 0.0965783)
(0.259435 -0.000320698 -1.30441e-24 0.00229167 -1.34267e-20 0.10469)
(0.239558 0.000272843 -5.77982e-22 0.00241495 1.46234e-20 0.0967891)
(0.257623 -0.000392736 1.47617e-24 0.00224439 1.20639e-20 0.103947)
(0.240066 0.000332087 1.29654e-22 0.00236924 -1.28977e-20 0.0969739)
(0.255589 -0.000472516 -1.58464e-24 0.00222396 -1.04648e-20 0.103125)
(0.240484 0.000397437 -3.11147e-22 0.00234987 1.14145e-20 0.0971336)
(0.253317 -0.000555259 7.32857e-22 0.00225019 -9.10319e-21 0.102227)
(0.24081 0.00046409 6.6086e-22 0.00237656 1.97751e-20 0.0972745)
(0.250678 -0.000646795 2.2744e-23 0.00233284 1.56545e-20 0.101204)
(0.241005 0.000537278 -5.5674e-22 0.00245877 -1.71343e-20 0.0973856)
(0.247747 -0.000735119 -5.85655e-23 0.00253618 -1.82431e-22 0.100113)
(0.241059 0.000605741 -6.27011e-22 0.00266073 8.44942e-21 0.097488)
(0.244681 -0.000801646 -3.8414e-23 0.00283938 -7.91778e-21 0.0990082)
(0.240953 0.000652428 1.45605e-21 0.00296249 -7.54689e-21 0.0975662)
(0.241511 -0.000842895 8.25542e-23 0.00326777 7.49486e-22 0.0979114)
(0.240715 0.000673981 3.42402e-24 0.00339013 9.20797e-21 0.097642)
(0.238239 -0.000850463 -1.75429e-21 0.00380685 1.0173e-24 0.0968184)
(0.240352 0.000662055 1.64084e-21 0.0039302 -1.47967e-21 0.0977127)
(0.234892 -0.000822262 -1.95316e-21 0.00445342 -1.47965e-22 0.095738)
(0.239885 0.000614489 -3.32704e-24 0.00458066 -6.9431e-21 0.0977864)
(0.231486 -0.000755465 2.09823e-21 0.00518201 6.33009e-21 0.0946671)
(0.239327 0.000528282 -1.95681e-21 0.00531715 1.25954e-21 0.0978578)
(0.228047 -0.000651857 -4.22964e-21 0.00596592 -1.17722e-20 0.0936053)
(0.238693 0.00040497 -2.06218e-21 0.00611393 1.37135e-20 0.0979227)
(0.224599 -0.000514727 1.36706e-20 0.00676619 9.55078e-21 0.092546)
(0.23799 0.000247548 4.29689e-21 0.00693271 -9.74524e-21 0.0979689)
(0.221165 -0.000350673 -4.6291e-21 0.00754148 -6.4854e-21 0.0914824)
(0.237222 6.23287e-05 1.95912e-24 0.00773235 2.7721e-21 0.0979818)
(0.217765 -0.000168024 -6.13685e-25 0.008247 -8.22673e-22 0.0904048)
(0.236389 -0.000142596 -9.5782e-21 0.00846768 1.36099e-21 0.0979425)
(0.214418 2.30998e-05 -5.17763e-21 0.00884106 1.02041e-21 0.0893035)
(0.235481 -0.000357232 4.98423e-21 0.00909591 5.81678e-21 0.0978309)
(0.211136 0.00021199 5.24885e-21 0.00928777 7.60851e-22 0.0881694)
(0.234486 -0.000570853 7.07368e-23 0.00957938 -4.40032e-21 0.0976262)
(0.207928 0.000388043 -8.99202e-26 0.00956161 -9.83776e-23 0.0869958)
(0.233384 -0.00077266 3.36416e-24 0.00989026 3.60646e-21 0.0973098)
(0.204797 0.000541796 -9.41651e-25 0.00964964 -9.72026e-22 0.0857789)
(0.232152 -0.000952815 1.12057e-20 0.010013 -4.02503e-21 0.0968661)
(0.201744 0.000665657 -5.91683e-21 0.00955289 2.95594e-21 0.0845187)
(0.230764 -0.00110318 -1.17891e-20 0.00994583 -4.96609e-21 0.096284)
(0.198761 0.000754507 -1.2255e-20 0.0092856 -1.86045e-21 0.0832188)
(0.229193 -0.00121799 1.20017e-20 0.00970077 3.51457e-21 0.0955576)
(0.195841 0.000805974 6.30682e-21 0.00887308 -7.08741e-24 0.0818858)
(0.227413 -0.00129415 6.37232e-21 0.00930133 5.70666e-22 0.0946857)
(0.192972 0.00082041 -6.501e-21 0.00834827 -1.67252e-21 0.0805281)
(0.2254 -0.0013313 6.57618e-21 0.00877946 -6.67159e-21 0.0936716)
(0.190139 0.000800585 -1.35368e-20 0.00774794 3.77473e-21 0.0791549)
(0.223133 -0.00133156 1.36e-20 0.00817177 1.75654e-22 0.092522)
(0.187328 0.000751165 -1.65521e-22 0.00710886 -5.93179e-21 0.0777746)
(0.220599 -0.00129909 1.42222e-20 0.00751565 -1.54408e-20 0.0912458)
(0.184521 0.000678068 -1.42489e-20 0.00646464 2.17773e-21 0.0763943)
(0.217786 -0.00123947 -1.40273e-20 0.006846 -4.14054e-21 0.0898529)
(0.181704 0.000587786 -3.54448e-22 0.00584357 -4.52313e-21 0.0750189)
(0.214692 -0.00115903 -4.44617e-24 0.0061928 -3.29031e-21 0.0883538)
(0.17886 0.000486769 2.94349e-20 0.00526733 8.75453e-21 0.0736509)
(0.211316 -0.00106425 -3.01176e-20 0.00557971 -3.99689e-21 0.0867585)
(0.175975 0.000380928 -1.50664e-20 0.00475077 -1.41801e-20 0.0722904)
(0.207667 -0.00096124 1.31702e-23 0.00502355 9.26557e-21 0.085076)
(0.173037 0.000275291 3.11519e-20 0.00430237 1.13036e-20 0.0709356)
(0.203753 -0.00085533 3.19575e-20 0.00453464 -1.20022e-20 0.0833149)
(0.170032 0.000173833 -3.15461e-20 0.00392517 7.67455e-21 0.0695829)
(0.199588 -0.000750878 1.67052e-20 0.00411755 -2.23444e-21 0.0814823)
(0.166951 7.94285e-05 -7.99165e-23 0.00361794 -1.01182e-20 0.0682276)
(0.19519 -0.000651169 -3.29792e-20 0.00377228 1.69608e-21 0.0795848)
(0.163784 -6.0631e-06 3.2908e-20 0.00337643 6.0179e-21 0.0668642)
(0.190574 -0.000558454 1.70794e-20 0.00349543 -1.16217e-20 0.0776279)