/*--------------------------------*- C++ -*----------------------------------*\
| =========                 |                                                 |
| \\      /  F ield         | OpenFOAM Extend Project: Open source CFD        |
|  \\    /   O peration     | Version:  1.6-ext                               |
|   \\  /    A nd           | Web:      www.extend-project.de                 |
|    \\/     M anipulation  |                                                 |
\*---------------------------------------------------------------------------*/
FoamFile
{
    version     2.0;
    format      ascii;
    class       volVectorField;
    location    "0.35";
    object      DU;
}
// * * * * * * * * * * * * * * * * * * * * * * * * * * * * * * * * * * * * * //

dimensions      [0 1 0 0 0 0 0];

internalField   nonuniform List<vector> 
328
(
(6.94727e-09 1.32274e-08 0)
(4.37059e-09 2.56541e-09 0)
(4.1408e-09 -2.63796e-09 0)
(5.81747e-09 -1.16927e-08 0)
(2.11813e-08 3.40589e-08 0)
(1.44688e-08 7.82238e-09 0)
(1.36671e-08 -7.37685e-09 0)
(1.77074e-08 -2.98789e-08 0)
(3.76632e-08 4.98487e-08 0)
(2.80053e-08 1.31722e-08 0)
(2.6386e-08 -1.14812e-08 0)
(3.14998e-08 -4.31188e-08 0)
(5.56203e-08 6.15243e-08 0)
(4.3848e-08 1.82497e-08 0)
(4.12957e-08 -1.45615e-08 0)
(4.65563e-08 -5.20844e-08 0)
(7.52731e-08 7.02455e-08 0)
(6.22123e-08 2.29356e-08 0)
(5.861e-08 -1.64632e-08 0)
(6.30889e-08 -5.76846e-08 0)
(9.65283e-08 7.69166e-08 0)
(8.27332e-08 2.72289e-08 0)
(7.80051e-08 -1.71064e-08 0)
(8.10402e-08 -6.06072e-08 0)
(1.19492e-07 8.22916e-08 0)
(1.05366e-07 3.12528e-08 0)
(9.9445e-08 -1.65117e-08 0)
(1.00524e-07 -6.14055e-08 0)
(1.44237e-07 8.69538e-08 0)
(1.29981e-07 3.51888e-08 0)
(1.22812e-07 -1.47286e-08 0)
(1.21627e-07 -6.04729e-08 0)
(1.70881e-07 9.13778e-08 0)
(1.56547e-07 3.92584e-08 0)
(1.48082e-07 -1.18228e-08 0)
(1.44474e-07 -5.80926e-08 0)
(1.99539e-07 9.59457e-08 0)
(1.85056e-07 4.36921e-08 0)
(1.75251e-07 -7.84455e-09 0)
(1.6919e-07 -5.44475e-08 0)
(2.30337e-07 1.00975e-07 0)
(2.15552e-07 4.87173e-08 0)
(2.04366e-07 -2.81732e-09 0)
(1.95911e-07 -4.96414e-08 0)
(2.63402e-07 1.06731e-07 0)
(2.48114e-07 5.45482e-08 0)
(2.35511e-07 3.27241e-09 0)
(2.24775e-07 -4.3709e-08 0)
(2.98863e-07 1.13443e-07 0)
(2.82858e-07 6.13835e-08 0)
(2.68806e-07 1.0477e-08 0)
(2.55928e-07 -3.66267e-08 0)
(3.36854e-07 1.21313e-07 0)
(3.1993e-07 6.94086e-08 0)
(3.04402e-07 1.88863e-08 0)
(2.89525e-07 -2.83215e-08 0)
(3.77516e-07 1.30524e-07 0)
(3.59498e-07 7.87986e-08 0)
(3.42477e-07 2.86235e-08 0)
(3.25731e-07 -1.86797e-08 0)
(4.20993e-07 1.41251e-07 0)
(4.01746e-07 8.97239e-08 0)
(3.83224e-07 3.98388e-08 0)
(3.64724e-07 -7.55532e-09 0)
(4.67441e-07 1.53661e-07 0)
(4.46872e-07 1.02354e-07 0)
(4.26854e-07 5.27024e-08 0)
(4.06697e-07 5.22133e-09 0)
(5.17019e-07 1.67922e-07 0)
(4.95081e-07 1.16858e-07 0)
(4.73586e-07 6.73987e-08 0)
(4.51857e-07 1.98364e-08 0)
(5.69896e-07 1.84202e-07 0)
(5.46582e-07 1.33411e-07 0)
(5.23648e-07 8.41188e-08 0)
(5.0043e-07 3.64852e-08 0)
(6.26241e-07 2.02665e-07 0)
(6.01586e-07 1.52182e-07 0)
(5.77275e-07 1.03054e-07 0)
(5.52653e-07 5.53651e-08 0)
(6.86228e-07 2.23469e-07 0)
(6.60304e-07 1.73339e-07 0)
(6.34703e-07 1.2439e-07 0)
(6.08779e-07 7.66685e-08 0)
(7.50022e-07 2.46755e-07 0)
(7.22945e-07 1.97033e-07 0)
(6.96172e-07 1.48294e-07 0)
(6.69069e-07 1.00574e-07 0)
(8.2037e-07 2.73622e-07 0)
(7.92259e-07 2.24394e-07 0)
(7.64432e-07 1.75924e-07 0)
(7.36266e-07 1.2825e-07 0)
(8.94784e-07 3.0325e-07 0)
(8.65872e-07 2.54604e-07 0)
(8.37218e-07 2.06474e-07 0)
(8.08208e-07 1.5891e-07 0)
(9.68246e-07 3.33447e-07 0)
(9.38839e-07 2.85438e-07 0)
(9.09658e-07 2.37706e-07 0)
(8.80093e-07 1.90313e-07 0)
(1.0407e-06 3.63916e-07 0)
(1.0111e-06 3.16601e-07 0)
(9.81689e-07 2.69324e-07 0)
(9.51854e-07 2.22164e-07 0)
(1.11209e-06 3.94367e-07 0)
(1.08261e-06 3.478e-07 0)
(1.05325e-06 3.01034e-07 0)
(1.02343e-06 2.54165e-07 0)
(1.18236e-06 4.24517e-07 0)
(1.15329e-06 3.78743e-07 0)
(1.12429e-06 3.32539e-07 0)
(1.09476e-06 2.86015e-07 0)
(1.25148e-06 4.54085e-07 0)
(1.22312e-06 4.09144e-07 0)
(1.19476e-06 3.63543e-07 0)
(1.1658e-06 3.17406e-07 0)
(1.31942e-06 4.82798e-07 0)
(1.29206e-06 4.38713e-07 0)
(1.26461e-06 3.93748e-07 0)
(1.2365e-06 3.48031e-07 0)
(1.38616e-06 5.10389e-07 0)
(1.36008e-06 4.67169e-07 0)
(1.33383e-06 4.22856e-07 0)
(1.30684e-06 3.77579e-07 0)
(1.45171e-06 5.36593e-07 0)
(1.42718e-06 4.94232e-07 0)
(1.40238e-06 4.50572e-07 0)
(1.3768e-06 4.05743e-07 0)
(1.51608e-06 5.61154e-07 0)
(1.49335e-06 5.19628e-07 0)
(1.47028e-06 4.7661e-07 0)
(1.44636e-06 4.32221e-07 0)
(1.5793e-06 5.83823e-07 0)
(1.55863e-06 5.43092e-07 0)
(1.53753e-06 5.00688e-07 0)
(1.51552e-06 4.56722e-07 0)
(1.64142e-06 6.04357e-07 0)
(1.62302e-06 5.64369e-07 0)
(1.60413e-06 5.22542e-07 0)
(1.58428e-06 4.7897e-07 0)
(1.70249e-06 6.22524e-07 0)
(1.68658e-06 5.83219e-07 0)
(1.6701e-06 5.41921e-07 0)
(1.65265e-06 4.98712e-07 0)
(1.76257e-06 6.38105e-07 0)
(1.74934e-06 5.99416e-07 0)
(1.73548e-06 5.58599e-07 0)
(1.72063e-06 5.15717e-07 0)
(1.82173e-06 6.50893e-07 0)
(1.81133e-06 6.12755e-07 0)
(1.80026e-06 5.72371e-07 0)
(1.7882e-06 5.29788e-07 0)
(1.88e-06 6.60701e-07 0)
(1.8726e-06 6.23055e-07 0)
(1.86448e-06 5.83061e-07 0)
(1.85537e-06 5.40755e-07 0)
(1.93747e-06 6.67364e-07 0)
(1.93317e-06 6.30159e-07 0)
(1.92811e-06 5.90525e-07 0)
(1.92209e-06 5.48484e-07 0)
(1.99415e-06 6.70744e-07 0)
(1.99306e-06 6.33941e-07 0)
(1.99117e-06 5.94647e-07 0)
(1.98834e-06 5.52875e-07 0)
(2.05009e-06 6.70731e-07 0)
(2.05227e-06 6.34305e-07 0)
(2.05362e-06 5.95346e-07 0)
(2.05406e-06 5.5386e-07 0)
(2.1053e-06 6.67248e-07 0)
(2.11079e-06 6.31188e-07 0)
(2.11542e-06 5.92573e-07 0)
(2.11918e-06 5.51405e-07 0)
(2.1598e-06 6.60253e-07 0)
(2.16861e-06 6.2456e-07 0)
(2.17654e-06 5.86311e-07 0)
(2.18362e-06 5.45505e-07 0)
(2.21358e-06 6.49735e-07 0)
(2.22569e-06 6.14423e-07 0)
(2.23691e-06 5.76572e-07 0)
(2.24731e-06 5.36182e-07 0)
(2.26662e-06 6.3572e-07 0)
(2.28201e-06 6.00811e-07 0)
(2.29647e-06 5.634e-07 0)
(2.31015e-06 5.23487e-07 0)
(2.31891e-06 6.18262e-07 0)
(2.3375e-06 5.83787e-07 0)
(2.35516e-06 5.46863e-07 0)
(2.37205e-06 5.07492e-07 0)
(2.37042e-06 5.97445e-07 0)
(2.39213e-06 5.63438e-07 0)
(2.41289e-06 5.27052e-07 0)
(2.4329e-06 4.88291e-07 0)
(2.42111e-06 5.73378e-07 0)
(2.44584e-06 5.39877e-07 0)
(2.4696e-06 5.04081e-07 0)
(2.49263e-06 4.65998e-07 0)
(2.47095e-06 5.46191e-07 0)
(2.49858e-06 5.13235e-07 0)
(2.52522e-06 4.78081e-07 0)
(2.55114e-06 4.4074e-07 0)
(2.51991e-06 5.16032e-07 0)
(2.5503e-06 4.83661e-07 0)
(2.57967e-06 4.492e-07 0)
(2.60835e-06 4.12661e-07 0)
(2.56793e-06 4.83063e-07 0)
(2.60093e-06 4.51317e-07 0)
(2.63291e-06 4.17595e-07 0)
(2.66419e-06 3.81915e-07 0)
(2.61499e-06 4.47458e-07 0)
(2.65045e-06 4.16374e-07 0)
(2.68486e-06 3.83437e-07 0)
(2.71858e-06 3.48666e-07 0)
(2.66104e-06 4.09397e-07 0)
(2.69878e-06 3.7901e-07 0)
(2.73548e-06 3.46899e-07 0)
(2.77147e-06 3.13085e-07 0)
(2.70604e-06 3.69064e-07 0)
(2.7459e-06 3.39411e-07 0)
(2.78471e-06 3.08164e-07 0)
(2.8228e-06 2.75346e-07 0)
(2.74994e-06 3.26649e-07 0)
(2.79176e-06 2.97763e-07 0)
(2.8325e-06 2.67414e-07 0)
(2.87252e-06 2.35629e-07 0)
(2.79272e-06 2.8234e-07 0)
(2.83631e-06 2.54251e-07 0)
(2.87882e-06 2.24833e-07 0)
(2.9206e-06 1.94112e-07 0)
(2.83433e-06 2.36322e-07 0)
(2.87953e-06 2.09062e-07 0)
(2.92363e-06 1.80604e-07 0)
(2.96698e-06 1.50975e-07 0)
(2.87472e-06 1.8878e-07 0)
(2.92136e-06 1.62378e-07 0)
(2.96689e-06 1.34906e-07 0)
(3.01165e-06 1.06393e-07 0)
(2.91386e-06 1.39891e-07 0)
(2.96177e-06 1.14375e-07 0)
(3.00856e-06 8.79142e-08 0)
(3.05457e-06 6.0537e-08 0)
(2.95171e-06 8.98262e-08 0)
(3.00073e-06 6.52244e-08 0)
(3.04863e-06 3.97976e-08 0)
(3.09573e-06 1.35741e-08 0)
(2.98822e-06 3.87502e-08 0)
(3.03821e-06 1.50894e-08 0)
(3.08707e-06 -9.28253e-09 0)
(3.1351e-06 -3.43375e-08 0)
(3.02336e-06 -1.31825e-08 0)
(3.07417e-06 -3.5876e-08 0)
(3.12385e-06 -5.91736e-08 0)
(3.17267e-06 -8.30475e-08 0)
(3.05709e-06 -6.58275e-08 0)
(3.10858e-06 -8.75279e-08 0)
(3.15894e-06 -1.09733e-07 0)
(3.20842e-06 -1.32415e-07 0)
(3.08936e-06 -1.19051e-07 0)
(3.14142e-06 -1.39733e-07 0)
(3.19234e-06 -1.60829e-07 0)
(3.24236e-06 -1.82311e-07 0)
(3.12013e-06 -1.72732e-07 0)
(3.17265e-06 -1.92371e-07 0)
(3.22402e-06 -2.12342e-07 0)
(3.27447e-06 -2.32616e-07 0)
(3.14937e-06 -2.26759e-07 0)
(3.20224e-06 -2.45332e-07 0)
(3.25397e-06 -2.64162e-07 0)
(3.30474e-06 -2.83223e-07 0)
(3.17704e-06 -2.81036e-07 0)
(3.23018e-06 -2.98521e-07 0)
(3.28217e-06 -3.16196e-07 0)
(3.33318e-06 -3.34039e-07 0)
(3.20311e-06 -3.35479e-07 0)
(3.25643e-06 -3.51852e-07 0)
(3.30861e-06 -3.68361e-07 0)
(3.35978e-06 -3.84981e-07 0)
(3.22752e-06 -3.90016e-07 0)
(3.28097e-06 -4.05257e-07 0)
(3.33327e-06 -4.20586e-07 0)
(3.38454e-06 -4.35981e-07 0)
(3.25026e-06 -4.44589e-07 0)
(3.30378e-06 -4.58677e-07 0)
(3.35615e-06 -4.72816e-07 0)
(3.40746e-06 -4.86984e-07 0)
(3.27128e-06 -4.99151e-07 0)
(3.32483e-06 -5.12067e-07 0)
(3.37723e-06 -5.25006e-07 0)
(3.42855e-06 -5.37944e-07 0)
(3.29057e-06 -5.5367e-07 0)
(3.34411e-06 -5.65397e-07 0)
(3.39651e-06 -5.77124e-07 0)
(3.4478e-06 -5.88832e-07 0)
(3.30808e-06 -6.08123e-07 0)
(3.3616e-06 -6.18645e-07 0)
(3.41397e-06 -6.29153e-07 0)
(3.46522e-06 -6.39628e-07 0)
(3.32379e-06 -6.625e-07 0)
(3.37728e-06 -6.71802e-07 0)
(3.42961e-06 -6.81082e-07 0)
(3.48081e-06 -6.90323e-07 0)
(3.33769e-06 -7.16801e-07 0)
(3.39113e-06 -7.24871e-07 0)
(3.44343e-06 -7.32914e-07 0)
(3.49457e-06 -7.40919e-07 0)
(3.34974e-06 -7.71034e-07 0)
(3.40315e-06 -7.7786e-07 0)
(3.45541e-06 -7.84657e-07 0)
(3.5065e-06 -7.91422e-07 0)
(3.35994e-06 -8.25213e-07 0)
(3.41332e-06 -8.30786e-07 0)
(3.46554e-06 -8.36327e-07 0)
(3.51659e-06 -8.41849e-07 0)
(3.36829e-06 -8.79362e-07 0)
(3.42162e-06 -8.83671e-07 0)
(3.47382e-06 -8.8794e-07 0)
(3.52486e-06 -8.92211e-07 0)
(3.37475e-06 -9.33483e-07 0)
(3.42803e-06 -9.36529e-07 0)
(3.48021e-06 -9.39528e-07 0)
(3.53127e-06 -9.42548e-07 0)
(3.3794e-06 -9.87582e-07 0)
(3.43262e-06 -9.89371e-07 0)
(3.48478e-06 -9.91122e-07 0)
(3.5359e-06 -9.92896e-07 0)
(3.38205e-06 -1.04134e-06 0)
(3.4352e-06 -1.04212e-06 0)
(3.48737e-06 -1.04284e-06 0)
(3.53855e-06 -1.04361e-06 0)
)
;

boundaryField
{
    plateFix
    {
        type            fixedDisplacement;
        value           uniform (0 0 0);
    }
    plate
    {
        type            solidTraction;
        nonLinear       updatedLagrangian;
        traction        nonuniform List<vector> 
168
(
(2.4929e-05 0.000155841 8.39146e-22)
(3.40416e-05 -0.00016105 -5.85325e-20)
(0.000102343 0.000180983 1.99191e-21)
(0.000115513 -0.000185503 3.41604e-20)
(2.52195e-05 8.17999e-05 1.90068e-21)
(4.29437e-05 -8.51992e-05 2.03312e-21)
(-0.000221359 -3.59745e-05 2.71477e-20)
(-0.000199798 3.42955e-05 0)
(-0.000635608 -0.000132875 -2.72367e-20)
(-0.000611769 0.000132782 0)
(-0.0012001 -0.000196685 -1.56029e-24)
(-0.0011755 0.00019766 -2.56601e-20)
(-0.00188996 -0.00022892 2.38495e-20)
(-0.00186572 0.000230382 2.5429e-20)
(-0.00268095 -0.000236929 -2.20291e-20)
(-0.00265762 0.000238385 0)
(-0.0035539 -0.000229315 -2.03465e-20)
(-0.00353146 0.000230409 0)
(-0.00449755 -0.000213948 2.25709e-21)
(-0.0044755 0.000214459 0)
(-0.00551045 -0.000197311 1.69185e-20)
(-0.00548789 0.000197118 5.52852e-25)
(-0.00660212 -0.0001845 0)
(-0.00657794 0.000183537 2.05365e-20)
(-0.00779382 -0.000179513 -3.4463e-21)
(-0.00776678 0.000177724 3.75176e-21)
(-0.00911882 -0.000185658 -1.55715e-20)
(-0.00908766 0.000182965 -1.32647e-20)
(-0.0106224 -0.000206035 1.10957e-20)
(-0.010586 0.000202319 -2.95485e-21)
(-0.0123617 -0.000244146 -2.4212e-24)
(-0.012319 0.000239248 2.63238e-21)
(-0.014405 -0.000304658 0)
(-0.0143556 0.000298412 -4.59513e-24)
(-0.0168299 -0.000394331 -3.86745e-21)
(-0.0167742 0.000386654 -1.26072e-20)
(-0.0197264 -0.000522888 -1.38237e-20)
(-0.0196666 0.000513966 1.46171e-20)
(-0.0231738 -0.00070391 1.50124e-20)
(-0.0231154 0.000694563 6.30857e-24)
(-0.0272991 -0.000950551 0)
(-0.0272534 0.000942843 1.10543e-23)
(-0.0320511 -0.00128277 4.70568e-21)
(-0.0320372 0.00128048 9.90877e-21)
(-0.0380441 -0.00163489 -7.82959e-21)
(-0.038091 0.00164582 -8.39204e-21)
(-0.0448659 -0.00182675 -7.91042e-21)
(-0.0450042 0.00185324 8.51512e-21)
(-0.0518491 -0.00202344 1.56499e-20)
(-0.0521246 0.00206937 -8.46003e-21)
(-0.0588388 -0.00212779 -7.83111e-21)
(-0.0592973 0.00219765 8.20711e-21)
(-0.0654432 -0.00214469 -2.92713e-23)
(-0.066135 0.00224205 -2.98391e-22)
(-0.0714051 -0.00204285 8.72423e-25)
(-0.0723779 0.00216966 -1.54873e-20)
(-0.0763731 -0.00182283 -6.32829e-21)
(-0.0776694 0.00197901 7.50717e-21)
(-0.0800826 -0.00148369 6.33459e-21)
(-0.0817357 0.00166667 6.25135e-21)
(-0.0822783 -0.00104103 -4.78614e-21)
(-0.0843085 0.00124583 -6.23304e-21)
(-0.082789 -0.000516329 4.72486e-21)
(-0.085201 0.00073567 1.17235e-22)
(-0.0815067 5.96549e-05 1.37115e-21)
(-0.0842877 0.000165217 0)
(-0.0784145 0.000652691 -5.65731e-22)
(-0.0815337 -0.000432392 4.51296e-23)
(-0.0735769 0.0012267 -7.6531e-22)
(-0.0769863 -0.00102134 0)
(-0.0671423 0.0017482 -4.58086e-22)
(-0.070779 -0.00156754 -6.37623e-24)
(-0.0593281 0.00218887 1.53294e-21)
(-0.0631175 -0.00204133 1.36608e-23)
(-0.0504071 0.00252829 -2.75667e-21)
(-0.0542674 -0.0024203 -1.48907e-21)
(-0.0406864 0.00275513 1.64924e-21)
(-0.0445334 -0.0026908 3.52787e-21)
(-0.0304866 0.00286746 0)
(-0.0342388 -0.00284842 4.66554e-22)
(-0.0201216 0.00287181 -4.51173e-23)
(-0.0237042 -0.0028974 5.25967e-22)
(-0.00987981 0.00278153 -1.06036e-22)
(-0.0132289 -0.0028491 -2.9784e-21)
(-1.08813e-05 0.0026145 5.76637e-23)
(-0.00307577 -0.00271991 -2.18436e-24)
(0.00928364 0.00239083 0)
(0.00653902 -0.00252899 -4.03322e-21)
(0.0178543 0.00213068 4.38716e-21)
(0.015451 -0.00229607 4.02708e-21)
(0.0256032 0.00185258 -9.00635e-21)
(0.0235483 -0.00203971 -4.568e-21)
(0.0324799 0.00157219 9.20349e-21)
(0.030768 -0.00177597 9.26477e-21)
(0.038475 0.00130177 -9.37782e-21)
(0.0370904 -0.00151774 -4.6968e-21)
(0.0436118 0.00105005 5.10098e-23)
(0.0425313 -0.00127447 8.27388e-25)
(0.0479379 0.000822508 4.9018e-21)
(0.0471331 -0.00105239 1.49971e-22)
(0.0515176 0.000621877 1.48108e-22)
(0.0509574 -0.00085495 0)
(0.054425 0.000448762 0)
(0.0540774 -0.000683338 -4.74245e-21)
(0.0567379 0.000302237 4.6017e-21)
(0.0565718 -0.00053712 4.74646e-21)
(0.0585341 0.000180383 -9.13137e-21)
(0.0585202 -0.000414753 0)
(0.059888 8.07312e-05 9.32855e-23)
(0.0599996 -0.00031405 -4.36663e-21)
(0.0608688 5.86016e-07 4.51084e-21)
(0.0610821 -0.000232522 -3.85073e-23)
(0.0615394 -6.27381e-05 0)
(0.0618337 -0.000167627 8.58802e-21)
(0.0619558 -0.000111772 0)
(0.0623135 -0.000116935 -6.28087e-21)
(0.0621676 -0.000148806 2.14724e-21)
(0.0625739 -7.82273e-05 4.15061e-21)
(0.0622179 -0.000175852 -2.08438e-21)
(0.0626604 -4.95414e-05 -2.04904e-21)
(0.062144 -0.000194637 -1.9764e-21)
(0.0626127 -2.91895e-05 -1.22897e-22)
(0.0619782 -0.000206609 1.80018e-21)
(0.0624648 -1.57512e-05 1.88485e-21)
(0.0617482 -0.000212965 0)
(0.0622462 -8.05587e-06 -5.46614e-23)
(0.0614779 -0.000214669 5.59914e-23)
(0.0619819 -5.1607e-06 -1.8329e-21)
(0.0611883 -0.000212487 0)
(0.0616939 -6.32273e-06 1.72747e-21)
(0.0608973 -0.000207 1.66633e-21)
(0.0614012 -1.09834e-05 -1.83521e-21)
(0.0606213 -0.000198635 -3.18482e-21)
(0.0611205 -1.8739e-05 -1.62701e-21)
(0.060375 -0.000187659 1.62117e-21)
(0.060867 -2.9348e-05 1.52787e-21)
(0.0601721 -0.000174216 1.526e-21)
(0.0606548 -4.2696e-05 -9.71335e-23)
(0.0600259 -0.000158265 -3.1027e-21)
(0.0604976 -5.88576e-05 9.41458e-23)
(0.0599501 -0.000139641 2.06346e-21)
(0.0604089 -7.80369e-05 0)
(0.0599592 -0.00011786 -2.35377e-23)
(0.0604035 -0.000100769 0)
(0.0600699 -9.22199e-05 -6.96181e-22)
(0.060498 -0.000127819 -6.711e-22)
(0.0603021 -6.11798e-05 0)
(0.0607123 -0.000160818 1.31924e-21)
(0.0606831 -2.23771e-05 -6.66829e-22)
(0.0610735 -0.00020226 -1.35155e-21)
(0.0612457 3.01592e-05 6.27845e-22)
(0.0616145 -0.000258318 5.47875e-22)
(0.0620567 0.000106625 0)
(0.0624012 -0.000339465 -7.3436e-23)
(0.0631747 0.000243061 -7.0817e-23)
(0.0634921 -0.000482174 0)
(0.0648689 0.000492095 -2.61848e-22)
(0.0651527 -0.000739238 0)
(0.0671678 0.00116275 1.11451e-22)
(0.0674114 -0.00141819 1.80559e-22)
(0.0718783 0.00253509 2.46502e-22)
(0.0720349 -0.00279262 -3.02211e-22)
(0.0774376 0.00838701 0)
(0.0143156 0.00469792 0)
(-0.00201003 -0.0056474 0)
(-0.00201987 0.00550601 -1.22616e-22)
(0.0145238 -0.00491087 5.72635e-23)
(0.077552 -0.008586 -5.12368e-23)
)
;
        pressure        nonuniform List<scalar> 
168
(
-0.339001
-0.362535
-0.339273
-0.362809
-0.339766
-0.363308
-0.340441
-0.363995
-0.341238
-0.364807
-0.342106
-0.365695
-0.343016
-0.366629
-0.343958
-0.367598
-0.34494
-0.368611
-0.345986
-0.369693
-0.347134
-0.370882
-0.348432
-0.372229
-0.349938
-0.373792
-0.351713
-0.375633
-0.353817
-0.377816
-0.356305
-0.380399
-0.35922
-0.383428
-0.362575
-0.38692
-0.366346
-0.390859
-0.370392
-0.395111
-0.374597
-0.39957
-0.378175
-0.403453
-0.381564
-0.407215
-0.382417
-0.408543
-0.380238
-0.406873
-0.373498
-0.400672
-0.361678
-0.389384
-0.343789
-0.371984
-0.319429
-0.34802
-0.288255
-0.317095
-0.25037
-0.279257
-0.206152
-0.234828
-0.156369
-0.18453
-0.102083
-0.12939
-0.0446287
-0.0707236
0.0144894
-0.0100397
0.0736878
0.0510534
0.131418
0.110961
0.186264
0.168204
0.237028
0.221509
0.282787
0.269871
0.32292
0.31259
0.357106
0.349271
0.385298
0.379806
0.40768
0.40433
0.424615
0.423174
0.43659
0.436805
0.444163
0.445778
0.447925
0.450687
0.448458
0.45213
0.446313
0.45068
0.441997
0.446864
0.435958
0.441158
0.428586
0.433976
0.42021
0.425672
0.411105
0.416544
0.401498
0.406837
0.391568
0.396749
0.38146
0.386439
0.371284
0.376032
0.361125
0.365621
0.351045
0.355278
0.341089
0.345053
0.331285
0.334983
0.321651
0.325087
0.312196
0.315377
0.302917
0.305855
0.293807
0.296513
0.284852
0.287338
0.276033
0.278312
0.267322
0.269407
0.25869
0.260593
0.250095
0.251829
0.241491
0.243066
0.23282
0.234246
0.223996
0.225283
0.214946
0.216102
0.205436
0.206468
0.195475
0.196385
0.183855
0.184662
0.172061
0.172746
0.149648
0.106698
0.144454
0.144534
0.106745
0.150438
)
;
        value           nonuniform List<vector> 
168
(
(6.51375e-08 3.60103e-08 1.11624e-29)
(5.69861e-08 -3.06942e-08 -5.73913e-26)
(6.40613e-08 5.76194e-08 4.80174e-30)
(5.4534e-08 -4.95256e-08 5.0972e-26)
(6.76576e-08 7.45158e-08 -1.51282e-26)
(5.57895e-08 -6.37303e-08 -1.61447e-26)
(7.63823e-08 8.66439e-08 2.87957e-26)
(6.14299e-08 -7.31319e-08 -1.53479e-26)
(8.9873e-08 9.57306e-08 -1.36163e-26)
(7.12248e-08 -7.91176e-08 1.44396e-26)
(1.07171e-07 1.02606e-07 -1.01021e-30)
(8.43798e-08 -8.23065e-08 -1.36786e-26)
(1.27749e-07 1.08139e-07 1.19238e-26)
(1.00462e-07 -8.33467e-08 1.27157e-26)
(1.51198e-07 1.12916e-07 -1.10138e-26)
(1.1913e-07 -8.26305e-08 -1.17058e-26)
(1.77298e-07 1.17432e-07 -2.02627e-26)
(1.40209e-07 -8.04555e-08 1.07573e-26)
(2.05923e-07 1.22068e-07 9.19099e-27)
(1.63601e-07 -7.70016e-08 -2.05075e-30)
(2.37028e-07 1.2714e-07 8.45584e-27)
(1.89285e-07 -7.23719e-08 9.00123e-27)
(2.70619e-07 1.32913e-07 9.483e-30)
(2.17288e-07 -6.65984e-08 1.07514e-28)
(3.06741e-07 1.39615e-07 -3.33114e-29)
(2.4768e-07 -5.96575e-08 4.95737e-29)
(3.45468e-07 1.47448e-07 -6.23626e-27)
(2.80562e-07 -5.14767e-08 -6.62835e-27)
(3.86903e-07 1.56597e-07 5.56882e-27)
(3.1607e-07 -4.19444e-08 -5.92759e-27)
(4.31164e-07 1.67238e-07 -2.79805e-29)
(3.54368e-07 -3.09168e-08 5.25357e-27)
(4.78391e-07 1.7954e-07 4.42451e-27)
(3.95644e-07 -1.82261e-08 -2.66735e-32)
(5.28731e-07 1.93672e-07 -1.16515e-26)
(4.40111e-07 -3.68762e-09 -8.36642e-27)
(5.82342e-07 2.09801e-07 6.71352e-27)
(4.88003e-07 1.28938e-08 7.33265e-27)
(6.39385e-07 2.2809e-07 -6.03212e-27)
(5.39571e-07 3.17165e-08 -6.45016e-27)
(7.00019e-07 2.48693e-07 5.23259e-27)
(5.9508e-07 5.29757e-08 5.73227e-27)
(7.64394e-07 2.71747e-07 4.6734e-27)
(6.54808e-07 7.68534e-08 9.83382e-27)
(8.35253e-07 2.98338e-07 -7.8317e-27)
(7.21503e-07 1.04523e-07 -8.51701e-27)
(9.10068e-07 3.27641e-07 7.89694e-29)
(7.93039e-07 1.35209e-07 4.28297e-27)
(9.8377e-07 3.57486e-07 3.9663e-27)
(8.64652e-07 1.66668e-07 -3.94761e-27)
(1.05631e-06 3.87572e-07 -3.43067e-28)
(9.36278e-07 1.98608e-07 4.60369e-27)
(1.12761e-06 4.17615e-07 -3.09513e-28)
(1.00785e-06 2.30728e-07 -9.27794e-28)
(1.19765e-06 4.47331e-07 -2.90537e-28)
(1.07931e-06 2.62722e-07 -3.4713e-27)
(1.26638e-06 4.76449e-07 -2.78338e-27)
(1.15062e-06 2.94281e-07 9.00839e-28)
(1.33377e-06 5.04701e-07 5.12898e-27)
(1.22172e-06 3.25089e-07 7.15212e-27)
(1.39981e-06 5.31826e-07 -2.25892e-27)
(1.2926e-06 3.54831e-07 -5.52445e-27)
(1.46452e-06 5.5757e-07 2.38949e-27)
(1.36323e-06 3.83192e-07 1.38593e-27)
(1.52791e-06 5.81685e-07 4.11347e-28)
(1.43361e-06 4.09864e-07 2.14534e-27)
(1.59003e-06 6.0393e-07 -1.41303e-27)
(1.50372e-06 4.34549e-07 2.12918e-27)
(1.65093e-06 6.24069e-07 5.87933e-28)
(1.57357e-06 4.56969e-07 -2.18186e-27)
(1.71068e-06 6.41875e-07 4.91892e-29)
(1.64315e-06 4.76867e-07 1.80304e-27)
(1.76934e-06 6.5713e-07 4.86014e-28)
(1.71245e-06 4.94014e-07 -3.69236e-27)
(1.82698e-06 6.69628e-07 -2.50782e-27)
(1.78146e-06 5.08212e-07 -7.12356e-28)
(1.88369e-06 6.79179e-07 -1.2225e-27)
(1.85015e-06 5.19298e-07 -3.09792e-29)
(1.93952e-06 6.85614e-07 1.061e-27)
(1.91848e-06 5.27144e-07 -6.12139e-28)
(1.99453e-06 6.88787e-07 -2.85868e-28)
(1.9864e-06 5.31656e-07 -4.23892e-27)
(2.04876e-06 6.88583e-07 -4.06816e-27)
(2.05382e-06 5.32775e-07 -1.71344e-27)
(2.10226e-06 6.84918e-07 2.91507e-27)
(2.12068e-06 5.30472e-07 -9.43379e-27)
(2.15503e-06 6.77741e-07 -3.22404e-27)
(2.18687e-06 5.2475e-07 -2.82371e-28)
(2.2071e-06 6.67037e-07 2.30147e-27)
(2.2523e-06 5.15637e-07 -1.64497e-27)
(2.25846e-06 6.52826e-07 -2.66409e-28)
(2.31685e-06 5.03185e-07 1.41213e-27)
(2.30911e-06 6.3516e-07 5.02034e-27)
(2.38042e-06 4.87469e-07 4.63227e-27)
(2.35902e-06 6.14119e-07 -1.85104e-27)
(2.4429e-06 4.68583e-07 -9.08202e-27)
(2.40817e-06 5.8981e-07 -7.57034e-27)
(2.5042e-06 4.46641e-07 -2.49444e-27)
(2.45654e-06 5.62364e-07 5.05149e-27)
(2.5642e-06 4.21768e-07 3.82326e-27)
(2.50409e-06 5.31927e-07 3.52761e-28)
(2.62283e-06 3.94107e-07 -7.09402e-27)
(2.5508e-06 4.98663e-07 -1.63521e-27)
(2.68e-06 3.63808e-07 4.31196e-29)
(2.59662e-06 4.62743e-07 9.61993e-28)
(2.73563e-06 3.31032e-07 -7.70795e-28)
(2.64151e-06 4.2435e-07 -4.20505e-28)
(2.78967e-06 2.95947e-07 2.79046e-27)
(2.68545e-06 3.83669e-07 -6.68732e-29)
(2.84206e-06 2.58726e-07 -6.20374e-27)
(2.72838e-06 3.40889e-07 -3.53612e-29)
(2.89275e-06 2.19545e-07 2.75871e-27)
(2.77028e-06 2.96199e-07 3.67993e-27)
(2.9417e-06 1.7858e-07 2.071e-27)
(2.81109e-06 2.49785e-07 2.41794e-27)
(2.98886e-06 1.36007e-07 -6.04204e-27)
(2.85077e-06 2.01832e-07 1.88832e-27)
(3.03422e-06 9.20013e-08 1.72339e-27)
(2.88929e-06 1.52517e-07 -2.46098e-27)
(3.07775e-06 4.67315e-08 -1.58351e-27)
(2.9266e-06 1.02012e-07 7.02004e-29)
(3.11943e-06 3.62264e-10 2.18154e-27)
(2.96265e-06 5.0481e-08 9.5976e-28)
(3.15925e-06 -4.69491e-08 8.88878e-28)
(2.9974e-06 -1.92049e-09 1.20488e-27)
(3.19719e-06 -9.50536e-08 3.15878e-27)
(3.0308e-06 -5.50481e-08 7.51807e-28)
(3.23324e-06 -1.43812e-07 -4.7601e-27)
(3.06282e-06 -1.08768e-07 1.35005e-27)
(3.26742e-06 -1.93095e-07 -1.41066e-27)
(3.09339e-06 -1.62958e-07 -2.0149e-28)
(3.29971e-06 -2.42784e-07 1.97206e-27)
(3.12248e-06 -2.17508e-07 -4.18173e-27)
(3.33011e-06 -2.92775e-07 -9.00646e-28)
(3.15004e-06 -2.72321e-07 7.99637e-28)
(3.35863e-06 -3.42973e-07 3.11512e-27)
(3.17604e-06 -3.27312e-07 1.92668e-27)
(3.38528e-06 -3.93297e-07 4.53245e-29)
(3.20042e-06 -3.82409e-07 -2.29217e-27)
(3.41006e-06 -4.43679e-07 1.73099e-27)
(3.22315e-06 -4.37553e-07 -3.18789e-27)
(3.43297e-06 -4.94063e-07 -1.93043e-27)
(3.24418e-06 -4.92697e-07 1.5073e-27)
(3.45403e-06 -5.44406e-07 -3.18449e-27)
(3.26349e-06 -5.47807e-07 -3.91497e-28)
(3.47325e-06 -5.94676e-07 1.91481e-27)
(3.28103e-06 -6.0286e-07 -6.95461e-28)
(3.49062e-06 -6.44855e-07 4.01164e-27)
(3.29677e-06 -6.57847e-07 -6.32374e-28)
(3.50616e-06 -6.94933e-07 -3.51428e-27)
(3.3107e-06 -7.12763e-07 -4.05258e-27)
(3.51987e-06 -7.44911e-07 2.74172e-28)
(3.32278e-06 -7.67618e-07 3.73156e-27)
(3.53176e-06 -7.94797e-07 -1.02357e-27)
(3.333e-06 -8.22423e-07 2.49884e-28)
(3.54182e-06 -8.44605e-07 4.76506e-27)
(3.34135e-06 -8.77204e-07 2.75736e-27)
(3.55006e-06 -8.94345e-07 -7.32843e-30)
(3.34782e-06 -9.31949e-07 3.87002e-28)
(3.55647e-06 -9.44067e-07 2.76061e-27)
(3.35255e-06 -9.86695e-07 1.53857e-28)
(3.56119e-06 -9.93776e-07 -3.51617e-27)
(3.35544e-06 -1.04101e-06 3.84104e-27)
(3.38274e-06 -1.06792e-06 1.10406e-26)
(3.43592e-06 -1.06848e-06 -1.11401e-26)
(3.48808e-06 -1.06874e-06 3.4164e-26)
(3.53925e-06 -1.06929e-06 -1.14194e-26)
(3.5641e-06 -1.04394e-06 3.67208e-27)
)
;
    }
    frontAndBackPlanes
    {
        type            empty;
    }
}


// ************************************************************************* //
