/*--------------------------------*- C++ -*----------------------------------*\
| =========                 |                                                 |
| \\      /  F ield         | OpenFOAM Extend Project: Open source CFD        |
|  \\    /   O peration     | Version:  1.6-ext                               |
|   \\  /    A nd           | Web:      www.extend-project.de                 |
|    \\/     M anipulation  |                                                 |
\*---------------------------------------------------------------------------*/
FoamFile
{
    version     2.0;
    format      ascii;
    class       volVectorField;
    location    "0.35";
    object      DU_0;
}
// * * * * * * * * * * * * * * * * * * * * * * * * * * * * * * * * * * * * * //

dimensions      [0 1 0 0 0 0 0];

internalField   nonuniform List<vector> 
328
(
(7.33697e-09 1.39932e-08 0)
(4.62634e-09 2.72757e-09 0)
(4.39426e-09 -2.78988e-09 0)
(6.19363e-09 -1.24304e-08 0)
(2.23681e-08 3.60278e-08 0)
(1.5315e-08 8.30062e-09 0)
(1.45052e-08 -7.81603e-09 0)
(1.88535e-08 -3.17681e-08 0)
(3.97733e-08 5.27188e-08 0)
(2.96428e-08 1.3955e-08 0)
(2.80071e-08 -1.21863e-08 0)
(3.35391e-08 -4.58581e-08 0)
(5.8736e-08 6.50435e-08 0)
(4.64125e-08 1.93027e-08 0)
(4.38346e-08 -1.54887e-08 0)
(4.95705e-08 -5.54191e-08 0)
(7.94899e-08 7.42257e-08 0)
(6.58524e-08 2.42164e-08 0)
(6.22143e-08 -1.75599e-08 0)
(6.71727e-08 -6.14213e-08 0)
(1.01937e-07 8.12184e-08 0)
(8.75762e-08 2.86927e-08 0)
(8.2802e-08 -1.83176e-08 0)
(8.6284e-08 -6.45992e-08 0)
(1.26188e-07 8.68162e-08 0)
(1.11537e-07 3.28595e-08 0)
(1.05559e-07 -1.77863e-08 0)
(1.07026e-07 -6.55449e-08 0)
(1.52323e-07 9.16325e-08 0)
(1.37595e-07 3.69056e-08 0)
(1.3036e-07 -1.6022e-08 0)
(1.29488e-07 -6.46803e-08 0)
(1.80463e-07 9.61651e-08 0)
(1.65722e-07 4.10616e-08 0)
(1.57181e-07 -1.3099e-08 0)
(1.53804e-07 -6.2311e-08 0)
(2.10733e-07 1.00814e-07 0)
(1.95904e-07 4.55667e-08 0)
(1.86014e-07 -9.07518e-09 0)
(1.80106e-07 -5.86361e-08 0)
(2.43264e-07 1.05908e-07 0)
(2.2819e-07 5.06563e-08 0)
(2.16912e-07 -3.98158e-09 0)
(2.08538e-07 -5.3772e-08 0)
(2.78191e-07 1.11724e-07 0)
(2.62663e-07 5.65505e-08 0)
(2.49961e-07 2.18948e-09 0)
(2.39246e-07 -4.7762e-08 0)
(3.1565e-07 1.18496e-07 0)
(2.99446e-07 6.34525e-08 0)
(2.8529e-07 9.48576e-09 0)
(2.72385e-07 -4.05889e-08 0)
(3.55784e-07 1.26429e-07 0)
(3.38691e-07 7.15497e-08 0)
(3.23058e-07 1.79939e-08 0)
(3.08117e-07 -3.21839e-08 0)
(3.98738e-07 1.35708e-07 0)
(3.80577e-07 8.10181e-08 0)
(3.63452e-07 2.78344e-08 0)
(3.46618e-07 -2.24365e-08 0)
(4.44668e-07 1.46506e-07 0)
(4.25299e-07 9.20266e-08 0)
(4.06676e-07 3.9155e-08 0)
(3.88075e-07 -1.12029e-08 0)
(4.93737e-07 1.58988e-07 0)
(4.73066e-07 1.04742e-07 0)
(4.52952e-07 5.21241e-08 0)
(4.32689e-07 1.68433e-09 0)
(5.46113e-07 1.73319e-07 0)
(5.24092e-07 1.19332e-07 0)
(5.02512e-07 6.6923e-08 0)
(4.80681e-07 1.64089e-08 0)
(6.01975e-07 1.89661e-07 0)
(5.78599e-07 1.35963e-07 0)
(5.55596e-07 8.37394e-08 0)
(5.32285e-07 3.3163e-08 0)
(6.61502e-07 2.08172e-07 0)
(6.36809e-07 1.54803e-07 0)
(6.12448e-07 1.02761e-07 0)
(5.87751e-07 5.21402e-08 0)
(7.24876e-07 2.29005e-07 0)
(6.98944e-07 1.76011e-07 0)
(6.73318e-07 1.24166e-07 0)
(6.47341e-07 7.35284e-08 0)
(7.92274e-07 2.52291e-07 0)
(7.65223e-07 1.99731e-07 0)
(7.38457e-07 1.48119e-07 0)
(7.11329e-07 9.75003e-08 0)
(8.66597e-07 2.79121e-07 0)
(8.38555e-07 2.27084e-07 0)
(8.10772e-07 1.75768e-07 0)
(7.82617e-07 1.25219e-07 0)
(9.45218e-07 3.08658e-07 0)
(9.16424e-07 2.57237e-07 0)
(8.8786e-07 2.06293e-07 0)
(8.58904e-07 1.55882e-07 0)
(1.02283e-06 3.3871e-07 0)
(9.93599e-07 2.87962e-07 0)
(9.64557e-07 2.37449e-07 0)
(9.35093e-07 1.8724e-07 0)
(1.09939e-06 3.68973e-07 0)
(1.07002e-06 3.18959e-07 0)
(1.0408e-06 2.68937e-07 0)
(1.01111e-06 2.18995e-07 0)
(1.17482e-06 3.99157e-07 0)
(1.14563e-06 3.49929e-07 0)
(1.11652e-06 3.00456e-07 0)
(1.0869e-06 2.50841e-07 0)
(1.24908e-06 4.28971e-07 0)
(1.22036e-06 3.80577e-07 0)
(1.19167e-06 3.31706e-07 0)
(1.16239e-06 2.82474e-07 0)
(1.32213e-06 4.58135e-07 0)
(1.29418e-06 4.10613e-07 0)
(1.26618e-06 3.62386e-07 0)
(1.23754e-06 3.13582e-07 0)
(1.39394e-06 4.86376e-07 0)
(1.36705e-06 4.39749e-07 0)
(1.34002e-06 3.92198e-07 0)
(1.31228e-06 3.43856e-07 0)
(1.4645e-06 5.13428e-07 0)
(1.43895e-06 4.67704e-07 0)
(1.41317e-06 4.20846e-07 0)
(1.3866e-06 3.72989e-07 0)
(1.53382e-06 5.39034e-07 0)
(1.50986e-06 4.94204e-07 0)
(1.48559e-06 4.48041e-07 0)
(1.46047e-06 4.00676e-07 0)
(1.6019e-06 5.62944e-07 0)
(1.5798e-06 5.18984e-07 0)
(1.55729e-06 4.73502e-07 0)
(1.53387e-06 4.26623e-07 0)
(1.66879e-06 5.84917e-07 0)
(1.64877e-06 5.41786e-07 0)
(1.62827e-06 4.96959e-07 0)
(1.6068e-06 4.50548e-07 0)
(1.73453e-06 6.04723e-07 0)
(1.71681e-06 5.62368e-07 0)
(1.69853e-06 5.18157e-07 0)
(1.67926e-06 4.72187e-07 0)
(1.79916e-06 6.22139e-07 0)
(1.78395e-06 5.80499e-07 0)
(1.76811e-06 5.36857e-07 0)
(1.75124e-06 4.91296e-07 0)
(1.86276e-06 6.36954e-07 0)
(1.85023e-06 5.95964e-07 0)
(1.83701e-06 5.52844e-07 0)
(1.82275e-06 5.07659e-07 0)
(1.92537e-06 6.48974e-07 0)
(1.91569e-06 6.0857e-07 0)
(1.90526e-06 5.65924e-07 0)
(1.89378e-06 5.21086e-07 0)
(1.98706e-06 6.5802e-07 0)
(1.98035e-06 6.18144e-07 0)
(1.97285e-06 5.75933e-07 0)
(1.96432e-06 5.31421e-07 0)
(2.04787e-06 6.63937e-07 0)
(2.04425e-06 6.24541e-07 0)
(2.0398e-06 5.82734e-07 0)
(2.03433e-06 5.3854e-07 0)
(2.10784e-06 6.66594e-07 0)
(2.10739e-06 6.27642e-07 0)
(2.10608e-06 5.86223e-07 0)
(2.10378e-06 5.42351e-07 0)
(2.167e-06 6.6589e-07 0)
(2.16978e-06 6.2736e-07 0)
(2.17168e-06 5.86326e-07 0)
(2.17261e-06 5.42796e-07 0)
(2.22536e-06 6.61756e-07 0)
(2.23142e-06 6.2364e-07 0)
(2.23655e-06 5.83003e-07 0)
(2.24076e-06 5.39848e-07 0)
(2.28294e-06 6.54157e-07 0)
(2.29227e-06 6.16459e-07 0)
(2.30065e-06 5.76242e-07 0)
(2.30814e-06 5.33509e-07 0)
(2.33971e-06 6.4309e-07 0)
(2.3523e-06 6.05826e-07 0)
(2.36392e-06 5.66064e-07 0)
(2.37467e-06 5.23806e-07 0)
(2.39568e-06 6.28584e-07 0)
(2.41148e-06 5.91779e-07 0)
(2.42629e-06 5.52515e-07 0)
(2.44026e-06 5.10795e-07 0)
(2.45081e-06 6.10699e-07 0)
(2.46976e-06 5.74386e-07 0)
(2.4877e-06 5.35668e-07 0)
(2.50481e-06 4.94552e-07 0)
(2.50507e-06 5.89523e-07 0)
(2.52708e-06 5.53737e-07 0)
(2.54806e-06 5.15618e-07 0)
(2.56824e-06 4.75171e-07 0)
(2.55843e-06 5.65166e-07 0)
(2.58339e-06 5.29946e-07 0)
(2.60732e-06 4.92477e-07 0)
(2.63046e-06 4.52767e-07 0)
(2.61085e-06 5.37757e-07 0)
(2.63865e-06 5.03145e-07 0)
(2.6654e-06 4.66378e-07 0)
(2.69137e-06 4.27468e-07 0)
(2.66228e-06 5.07443e-07 0)
(2.69279e-06 4.73478e-07 0)
(2.72223e-06 4.37463e-07 0)
(2.75089e-06 3.99413e-07 0)
(2.7127e-06 4.74382e-07 0)
(2.74577e-06 4.41104e-07 0)
(2.77775e-06 4.05888e-07 0)
(2.80897e-06 3.68752e-07 0)
(2.76205e-06 4.38741e-07 0)
(2.79753e-06 4.06188e-07 0)
(2.83191e-06 3.71816e-07 0)
(2.86552e-06 3.35643e-07 0)
(2.8103e-06 4.00693e-07 0)
(2.84803e-06 3.68902e-07 0)
(2.88465e-06 3.35414e-07 0)
(2.92049e-06 3.00249e-07 0)
(2.85741e-06 3.60416e-07 0)
(2.89723e-06 3.29421e-07 0)
(2.93592e-06 2.96854e-07 0)
(2.97383e-06 2.62737e-07 0)
(2.90332e-06 3.18088e-07 0)
(2.94507e-06 2.87922e-07 0)
(2.98568e-06 2.56311e-07 0)
(3.02549e-06 2.23277e-07 0)
(2.94801e-06 2.73887e-07 0)
(2.99152e-06 2.44582e-07 0)
(3.03388e-06 2.13957e-07 0)
(3.07543e-06 1.82037e-07 0)
(2.99143e-06 2.2799e-07 0)
(3.03654e-06 1.99576e-07 0)
(3.08049e-06 1.69966e-07 0)
(3.12361e-06 1.39186e-07 0)
(3.03354e-06 1.8057e-07 0)
(3.08009e-06 1.53075e-07 0)
(3.12547e-06 1.24506e-07 0)
(3.17001e-06 9.48889e-08 0)
(3.07431e-06 1.31795e-07 0)
(3.12214e-06 1.05246e-07 0)
(3.1688e-06 7.77416e-08 0)
(3.21459e-06 4.93084e-08 0)
(3.11369e-06 8.18265e-08 0)
(3.16266e-06 5.62512e-08 0)
(3.21044e-06 2.98334e-08 0)
(3.25734e-06 2.60081e-09 0)
(3.15165e-06 3.08204e-08 0)
(3.20161e-06 6.24421e-09 0)
(3.25038e-06 -1.90664e-08 0)
(3.29824e-06 -4.50838e-08 0)
(3.18815e-06 -2.10766e-08 0)
(3.23896e-06 -4.46287e-08 0)
(3.28858e-06 -6.88133e-08 0)
(3.33727e-06 -9.36029e-08 0)
(3.22314e-06 -7.37271e-08 0)
(3.27468e-06 -9.62306e-08 0)
(3.32503e-06 -1.19272e-07 0)
(3.37442e-06 -1.42823e-07 0)
(3.25659e-06 -1.27004e-07 0)
(3.30875e-06 -1.48435e-07 0)
(3.3597e-06 -1.70316e-07 0)
(3.40968e-06 -1.9262e-07 0)
(3.28847e-06 -1.8079e-07 0)
(3.34113e-06 -2.01125e-07 0)
(3.39259e-06 -2.21831e-07 0)
(3.44304e-06 -2.42881e-07 0)
(3.31873e-06 -2.3498e-07 0)
(3.3718e-06 -2.54197e-07 0)
(3.42366e-06 -2.73714e-07 0)
(3.47449e-06 -2.93503e-07 0)
(3.34735e-06 -2.8948e-07 0)
(3.40074e-06 -3.07559e-07 0)
(3.45292e-06 -3.25872e-07 0)
(3.50405e-06 -3.44396e-07 0)
(3.37428e-06 -3.4421e-07 0)
(3.42792e-06 -3.61128e-07 0)
(3.48034e-06 -3.78227e-07 0)
(3.53169e-06 -3.95481e-07 0)
(3.39949e-06 -3.99098e-07 0)
(3.45331e-06 -4.14837e-07 0)
(3.50592e-06 -4.30708e-07 0)
(3.55742e-06 -4.4669e-07 0)
(3.42296e-06 -4.54086e-07 0)
(3.4769e-06 -4.68627e-07 0)
(3.52963e-06 -4.83261e-07 0)
(3.58124e-06 -4.97966e-07 0)
(3.44464e-06 -5.09126e-07 0)
(3.49867e-06 -5.22451e-07 0)
(3.55148e-06 -5.35838e-07 0)
(3.60315e-06 -5.49265e-07 0)
(3.46452e-06 -5.64181e-07 0)
(3.5186e-06 -5.76274e-07 0)
(3.57146e-06 -5.88404e-07 0)
(3.62315e-06 -6.00551e-07 0)
(3.48256e-06 -6.19223e-07 0)
(3.53666e-06 -6.30069e-07 0)
(3.58954e-06 -6.40934e-07 0)
(3.64124e-06 -6.518e-07 0)
(3.49875e-06 -6.74235e-07 0)
(3.55286e-06 -6.83821e-07 0)
(3.60574e-06 -6.93413e-07 0)
(3.65743e-06 -7.02995e-07 0)
(3.51306e-06 -7.29208e-07 0)
(3.56716e-06 -7.37523e-07 0)
(3.62004e-06 -7.45834e-07 0)
(3.6717e-06 -7.5413e-07 0)
(3.52547e-06 -7.84143e-07 0)
(3.57956e-06 -7.91174e-07 0)
(3.63243e-06 -7.98196e-07 0)
(3.68407e-06 -8.05203e-07 0)
(3.53597e-06 -8.39045e-07 0)
(3.59005e-06 -8.44784e-07 0)
(3.6429e-06 -8.50507e-07 0)
(3.69452e-06 -8.56223e-07 0)
(3.54456e-06 -8.9393e-07 0)
(3.59862e-06 -8.98367e-07 0)
(3.65146e-06 -9.02776e-07 0)
(3.70307e-06 -9.07193e-07 0)
(3.5512e-06 -9.48793e-07 0)
(3.60522e-06 -9.51928e-07 0)
(3.65805e-06 -9.55026e-07 0)
(3.7097e-06 -9.58147e-07 0)
(3.55598e-06 -1.00364e-06 0)
(3.60995e-06 -1.00547e-06 0)
(3.66278e-06 -1.00728e-06 0)
(3.71447e-06 -1.00911e-06 0)
(3.55868e-06 -1.05816e-06 0)
(3.6126e-06 -1.05893e-06 0)
(3.66543e-06 -1.05965e-06 0)
(3.71718e-06 -1.06041e-06 0)
)
;

boundaryField
{
    plateFix
    {
        type            fixedDisplacement;
        value           uniform (0 0 0);
    }
    plate
    {
        type            solidTraction;
        nonLinear       updatedLagrangian;
        traction        uniform (0 0 0);
        pressure        uniform 0;
        value           nonuniform List<vector> 
168
(
(6.88949e-08 3.80568e-08 9.10051e-31)
(6.05966e-08 -3.26673e-08 4.27326e-26)
(6.77145e-08 6.09123e-08 1.20396e-29)
(5.80259e-08 -5.26937e-08 -5.06717e-26)
(7.14632e-08 7.87726e-08 1.51341e-26)
(5.941e-08 -6.78114e-08 1.61562e-26)
(8.06302e-08 9.15759e-08 -1.43267e-26)
(6.54621e-08 -7.78362e-08 1.53425e-26)
(9.48342e-08 1.01145e-07 -1.34136e-26)
(7.59349e-08 -8.42477e-08 -1.44342e-26)
(1.13062e-07 1.08354e-07 -2.93705e-29)
(8.9982e-08 -8.77073e-08 7.54527e-30)
(1.34758e-07 1.1412e-07 2.34025e-26)
(1.07143e-07 -8.89083e-08 -1.25377e-26)
(1.59486e-07 1.19059e-07 -2.16892e-26)
(1.27053e-07 -8.82714e-08 1.16793e-26)
(1.87017e-07 1.2369e-07 2.00637e-26)
(1.49526e-07 -8.61176e-08 -8.94731e-29)
(2.17215e-07 1.28411e-07 -3.68615e-29)
(1.74459e-07 -8.26431e-08 -9.80047e-27)
(2.50034e-07 1.33552e-07 -8.32183e-27)
(2.01829e-07 -7.79631e-08 -1.02833e-28)
(2.85479e-07 1.39386e-07 -7.57595e-27)
(2.31663e-07 -7.21186e-08 4.64472e-29)
(3.23596e-07 1.46148e-07 -4.53167e-29)
(2.64034e-07 -6.50918e-08 7.28805e-27)
(3.64465e-07 1.54043e-07 -4.82501e-29)
(2.99051e-07 -5.68148e-08 2.96706e-34)
(4.08192e-07 1.63257e-07 5.42243e-27)
(3.36857e-07 -4.71789e-08 2.97033e-29)
(4.54904e-07 1.73964e-07 4.17673e-29)
(3.77622e-07 -3.60428e-08 -3.29629e-29)
(5.04747e-07 1.86332e-07 -8.72898e-27)
(4.21547e-07 -2.32409e-08 -2.13423e-29)
(5.57877e-07 2.00526e-07 7.7186e-27)
(4.68854e-07 -8.59086e-09 -8.226e-27)
(6.14463e-07 2.16708e-07 1.81116e-30)
(5.19787e-07 8.09935e-09 7.20107e-27)
(6.74674e-07 2.35036e-07 6.04039e-27)
(5.74609e-07 2.70244e-08 6.45283e-27)
(7.3868e-07 2.55656e-07 -5.19248e-27)
(6.33596e-07 4.83751e-08 -7.31885e-29)
(8.06639e-07 2.78697e-07 2.35493e-28)
(6.97037e-07 7.23278e-08 -9.69654e-27)
(8.81451e-07 3.05235e-07 3.91291e-27)
(7.67842e-07 1.00051e-07 2.97529e-28)
(9.60445e-07 3.3443e-07 -7.69724e-27)
(8.43743e-07 1.30753e-07 -2.14702e-28)
(1.03827e-06 3.6411e-07 1.16883e-26)
(9.19685e-07 1.62183e-07 3.53014e-27)
(1.11487e-06 3.93972e-07 -3.74503e-27)
(9.95597e-07 1.94043e-07 3.34907e-27)
(1.19019e-06 4.23726e-07 -3.43467e-27)
(1.07141e-06 2.26026e-07 -3.76859e-28)
(1.26418e-06 4.53088e-07 2.66315e-27)
(1.14706e-06 2.57822e-07 -9.501e-27)
(1.3368e-06 4.81782e-07 -6.0224e-27)
(1.2225e-06 2.89118e-07 3.38602e-27)
(1.40803e-06 5.09541e-07 -2.43769e-27)
(1.29768e-06 3.19598e-07 -3.31285e-27)
(1.47786e-06 5.3611e-07 7.26164e-27)
(1.37257e-06 3.48946e-07 2.32115e-27)
(1.5463e-06 5.61238e-07 5.66519e-28)
(1.44714e-06 3.76853e-07 -2.67388e-27)
(1.61338e-06 5.84686e-07 -2.44695e-27)
(1.52138e-06 4.03018e-07 -6.59306e-28)
(1.67915e-06 6.06221e-07 -6.55498e-28)
(1.59528e-06 4.27152e-07 -6.03465e-29)
(1.74365e-06 6.25616e-07 1.26614e-27)
(1.66883e-06 4.48986e-07 8.59216e-28)
(1.80695e-06 6.42656e-07 -2.58182e-28)
(1.74203e-06 4.68276e-07 -1.73126e-27)
(1.86912e-06 6.5713e-07 2.80479e-28)
(1.81487e-06 4.84803e-07 1.58461e-28)
(1.93023e-06 6.68844e-07 -2.05756e-27)
(1.88734e-06 4.98383e-07 9.53275e-28)
(1.99035e-06 6.77616e-07 -2.151e-27)
(1.95939e-06 5.08863e-07 -1.42749e-27)
(2.04954e-06 6.83286e-07 1.20581e-27)
(2.031e-06 5.16125e-07 -4.24022e-27)
(2.10785e-06 6.85716e-07 7.73726e-28)
(2.1021e-06 5.20086e-07 3.00059e-27)
(2.16533e-06 6.84799e-07 -4.00177e-29)
(2.17262e-06 5.20693e-07 1.79152e-27)
(2.222e-06 6.80459e-07 2.12481e-27)
(2.24248e-06 5.17927e-07 1.07942e-26)
(2.27788e-06 6.72653e-07 -4.46564e-27)
(2.31158e-06 5.11796e-07 -2.76373e-28)
(2.33298e-06 6.61373e-07 4.27269e-29)
(2.37982e-06 5.02334e-07 3.5728e-27)
(2.38729e-06 6.46645e-07 -2.10162e-27)
(2.44709e-06 4.89596e-07 5.20739e-27)
(2.44081e-06 6.28523e-07 -5.3814e-27)
(2.51329e-06 4.73662e-07 -2.3972e-27)
(2.4935e-06 6.07094e-07 2.94961e-27)
(2.57831e-06 4.54627e-07 2.324e-27)
(2.54536e-06 5.82465e-07 2.48911e-27)
(2.64205e-06 4.32604e-07 -3.97744e-27)
(2.59633e-06 5.54765e-07 1.63705e-28)
(2.70442e-06 4.07719e-07 -2.16546e-27)
(2.6464e-06 5.24142e-07 -2.70253e-28)
(2.76533e-06 3.80109e-07 9.31653e-29)
(2.69553e-06 4.90752e-07 2.44321e-27)
(2.8247e-06 3.49922e-07 -3.86424e-27)
(2.74367e-06 4.54764e-07 -5.04163e-27)
(2.88247e-06 3.17313e-07 2.33042e-27)
(2.79079e-06 4.16352e-07 -1.22269e-27)
(2.93857e-06 2.82441e-07 -2.63984e-27)
(2.83684e-06 3.75694e-07 3.44533e-27)
(2.99295e-06 2.45472e-07 -1.99327e-27)
(2.8818e-06 3.32969e-07 2.11528e-27)
(3.04557e-06 2.06571e-07 -3.43491e-27)
(2.92561e-06 2.88355e-07 -3.17089e-27)
(3.09637e-06 1.65906e-07 5.26149e-28)
(2.96824e-06 2.4203e-07 1.52323e-28)
(3.14533e-06 1.23643e-07 1.13944e-27)
(3.00964e-06 1.94167e-07 1.22898e-27)
(3.19242e-06 7.99452e-08 1.54228e-28)
(3.04978e-06 1.44935e-07 1.57282e-27)
(3.23762e-06 3.49731e-08 1.22153e-27)
(3.08861e-06 9.44962e-08 -2.44612e-31)
(3.28091e-06 -1.11182e-08 -2.96897e-27)
(3.12609e-06 4.30057e-08 1.86581e-29)
(3.32226e-06 -5.818e-08 1.048e-27)
(3.16218e-06 -9.38918e-09 -1.129e-27)
(3.36168e-06 -1.06071e-07 -2.61301e-27)
(3.19683e-06 -6.25507e-08 6.88704e-28)
(3.39916e-06 -1.54659e-07 3.84578e-27)
(3.23e-06 -1.16351e-07 6.3159e-28)
(3.43468e-06 -2.0382e-07 -1.59517e-27)
(3.26164e-06 -1.70674e-07 -4.82899e-28)
(3.46825e-06 -2.53443e-07 2.30584e-28)
(3.29173e-06 -2.25413e-07 -7.66636e-28)
(3.49987e-06 -3.03426e-07 -9.56987e-28)
(3.3202e-06 -2.80474e-07 1.02745e-27)
(3.52954e-06 -3.53678e-07 -1.426e-27)
(3.34703e-06 -3.35776e-07 -2.18172e-27)
(3.55726e-06 -4.0412e-07 -7.29825e-28)
(3.37218e-06 -3.91247e-07 1.34747e-28)
(3.58304e-06 -4.54687e-07 2.35307e-27)
(3.3956e-06 -4.46829e-07 3.27781e-27)
(3.60689e-06 -5.05321e-07 -3.20515e-27)
(3.41726e-06 -5.02472e-07 -2.44238e-27)
(3.6288e-06 -5.55977e-07 1.30803e-27)
(3.43714e-06 -5.58139e-07 1.81698e-27)
(3.64879e-06 -6.0662e-07 -3.42457e-27)
(3.45518e-06 -6.13802e-07 2.67633e-27)
(3.66686e-06 -6.57226e-07 -2.59102e-27)
(3.47138e-06 -6.69443e-07 2.78231e-28)
(3.68301e-06 -7.07779e-07 -2.72617e-27)
(3.48571e-06 -7.25052e-07 4.32377e-29)
(3.69725e-06 -7.58271e-07 4.83429e-27)
(3.49813e-06 -7.80628e-07 -5.8444e-27)
(3.70959e-06 -8.08701e-07 -1.54317e-27)
(3.50864e-06 -8.36174e-07 -3.28776e-27)
(3.72002e-06 -8.59077e-07 2.75464e-27)
(3.51723e-06 -8.9171e-07 8.17682e-31)
(3.72856e-06 -9.09401e-07 -5.27588e-29)
(3.52388e-06 -9.47216e-07 2.82371e-27)
(3.73518e-06 -9.59716e-07 2.08435e-28)
(3.52873e-06 -1.00273e-06 -3.22196e-27)
(3.74003e-06 -1.01001e-06 5.98547e-29)
(3.53165e-06 -1.05782e-06 -3.63005e-27)
(3.55938e-06 -1.08515e-06 -1.16756e-26)
(3.61332e-06 -1.08565e-06 -2.33422e-29)
(3.66615e-06 -1.08585e-06 3.60416e-26)
(3.71788e-06 -1.08635e-06 -2.43037e-26)
(3.74298e-06 -1.06075e-06 6.3808e-27)
)
;
    }
    frontAndBackPlanes
    {
        type            empty;
    }
}


// ************************************************************************* //
