/*--------------------------------*- C++ -*----------------------------------*\
| =========                 |                                                 |
| \\      /  F ield         | OpenFOAM Extend Project: Open source CFD        |
|  \\    /   O peration     | Version:  1.6-ext                               |
|   \\  /    A nd           | Web:      www.extend-project.de                 |
|    \\/     M anipulation  |                                                 |
\*---------------------------------------------------------------------------*/
FoamFile
{
    version     2.0;
    format      ascii;
    class       volVectorField;
    location    "0.35";
    object      DV;
}
// * * * * * * * * * * * * * * * * * * * * * * * * * * * * * * * * * * * * * //

dimensions      [0 1 -1 0 0 0 0];

internalField   nonuniform List<vector> 
328
(
(-4.86132e-07 -9.52965e-07 0)
(-3.20415e-07 -2.0114e-07 0)
(-3.18218e-07 1.91366e-07 0)
(-4.73234e-07 9.26231e-07 0)
(-1.48067e-06 -2.44871e-06 0)
(-1.05979e-06 -5.91868e-07 0)
(-1.05205e-06 5.54576e-07 0)
(-1.44179e-06 2.37284e-06 0)
(-2.63255e-06 -3.56749e-06 0)
(-2.05007e-06 -9.6675e-07 0)
(-2.0344e-06 8.92658e-07 0)
(-2.56519e-06 3.44278e-06 0)
(-3.88767e-06 -4.37089e-06 0)
(-3.21e-06 -1.29734e-06 0)
(-3.1855e-06 1.17715e-06 0)
(-3.79095e-06 4.19495e-06 0)
(-5.26219e-06 -4.93827e-06 0)
(-4.55562e-06 -1.57333e-06 0)
(-4.52151e-06 1.39768e-06 0)
(-5.13546e-06 4.70614e-06 0)
(-6.75001e-06 -5.33067e-06 0)
(-6.06063e-06 -1.79189e-06 0)
(-6.01667e-06 1.55097e-06 0)
(-6.59333e-06 5.03538e-06 0)
(-8.3591e-06 -5.59818e-06 0)
(-7.72178e-06 -1.95868e-06 0)
(-7.66797e-06 1.64217e-06 0)
(-8.173e-06 5.23114e-06 0)
(-1.00951e-05 -5.77822e-06 0)
(-9.52942e-06 -2.08276e-06 0)
(-9.46605e-06 1.6796e-06 0)
(-9.88062e-06 5.32951e-06 0)
(-1.19666e-05 -5.89988e-06 0)
(-1.14813e-05 -2.17531e-06 0)
(-1.14089e-05 1.67373e-06 0)
(-1.17254e-05 5.35844e-06 0)
(-1.39822e-05 -5.98488e-06 0)
(-1.35766e-05 -2.24729e-06 0)
(-1.34959e-05 1.63471e-06 0)
(-1.37167e-05 5.33869e-06 0)
(-1.61512e-05 -6.04943e-06 0)
(-1.58184e-05 -2.30848e-06 0)
(-1.57304e-05 1.57167e-06 0)
(-1.58643e-05 5.28566e-06 0)
(-1.84828e-05 -6.10506e-06 0)
(-1.82123e-05 -2.36663e-06 0)
(-1.81184e-05 1.49193e-06 0)
(-1.81784e-05 5.2104e-06 0)
(-2.09865e-05 -6.15945e-06 0)
(-2.07668e-05 -2.42724e-06 0)
(-2.06685e-05 1.401e-06 0)
(-2.06696e-05 5.1206e-06 0)
(-2.3672e-05 -6.21703e-06 0)
(-2.34923e-05 -2.49351e-06 0)
(-2.33917e-05 1.30285e-06 0)
(-2.33488e-05 5.0214e-06 0)
(-2.65497e-05 -6.27949e-06 0)
(-2.64011e-05 -2.56647e-06 0)
(-2.63006e-05 1.20034e-06 0)
(-2.62276e-05 4.9163e-06 0)
(-2.96302e-05 -6.34619e-06 0)
(-2.95065e-05 -2.64521e-06 0)
(-2.94091e-05 1.09586e-06 0)
(-2.93183e-05 4.80789e-06 0)
(-3.29252e-05 -6.41462e-06 0)
(-3.28229e-05 -2.72717e-06 0)
(-3.27319e-05 9.91846e-07 0)
(-3.26338e-05 4.69855e-06 0)
(-3.64467e-05 -6.48066e-06 0)
(-3.6365e-05 -2.80836e-06 0)
(-3.62842e-05 8.91271e-07 0)
(-3.61878e-05 4.59097e-06 0)
(-4.02078e-05 -6.53899e-06 0)
(-4.0148e-05 -2.88366e-06 0)
(-4.00817e-05 7.9786e-07 0)
(-3.99945e-05 4.48845e-06 0)
(-4.42223e-05 -6.58337e-06 0)
(-4.41871e-05 -2.94713e-06 0)
(-4.41399e-05 7.16138e-07 0)
(-4.40684e-05 4.39502e-06 0)
(-4.85042e-05 -6.6069e-06 0)
(-4.84976e-05 -2.99227e-06 0)
(-4.84745e-05 6.5131e-07 0)
(-4.84245e-05 4.31535e-06 0)
(-5.30683e-05 -6.60228e-06 0)
(-5.30948e-05 -3.01223e-06 0)
(-5.31008e-05 6.09149e-07 0)
(-5.30776e-05 4.2547e-06 0)
(-5.81141e-05 -6.55999e-06 0)
(-5.81804e-05 -2.99918e-06 0)
(-5.82222e-05 5.95594e-07 0)
(-5.82322e-05 4.21765e-06 0)
(-6.34684e-05 -6.46771e-06 0)
(-6.35804e-05 -2.94062e-06 0)
(-6.36642e-05 6.23087e-07 0)
(-6.37129e-05 4.21679e-06 0)
(-6.87721e-05 -6.32658e-06 0)
(-6.89332e-05 -2.83558e-06 0)
(-6.90621e-05 6.94503e-07 0)
(-6.91525e-05 4.25699e-06 0)
(-7.40221e-05 -6.13362e-06 0)
(-7.42354e-05 -2.68077e-06 0)
(-7.44124e-05 8.13328e-07 0)
(-7.45478e-05 4.342e-06 0)
(-7.92156e-05 -5.88487e-06 0)
(-7.94841e-05 -2.4717e-06 0)
(-7.97119e-05 9.84408e-07 0)
(-7.98952e-05 4.4769e-06 0)
(-8.4351e-05 -5.57612e-06 0)
(-8.4677e-05 -2.20348e-06 0)
(-8.49576e-05 1.21304e-06 0)
(-8.51913e-05 4.66716e-06 0)
(-8.94278e-05 -5.20395e-06 0)
(-8.98122e-05 -1.87195e-06 0)
(-9.01467e-05 1.50384e-06 0)
(-9.04322e-05 4.91757e-06 0)
(-9.44462e-05 -4.76672e-06 0)
(-9.48887e-05 -1.47483e-06 0)
(-9.52765e-05 1.85953e-06 0)
(-9.56141e-05 5.23108e-06 0)
(-9.94076e-05 -4.26528e-06 0)
(-9.99056e-05 -1.01244e-06 0)
(-0.000100345 2.28019e-06 0)
(-0.000100733 5.60806e-06 0)
(-0.000104313 -3.70316e-06 0)
(-0.000104863 -4.88074e-07 0)
(-0.000105349 2.76286e-06 0)
(-0.000105784 6.0458e-06 0)
(-0.000109165 -3.08643e-06 0)
(-0.000109759 9.22173e-08 0)
(-0.000110288 3.30163e-06 0)
(-0.000110765 6.53869e-06 0)
(-0.000113964 -2.42317e-06 0)
(-0.000114596 7.20099e-07 0)
(-0.00011516 3.88816e-06 0)
(-0.000115671 7.07856e-06 0)
(-0.00011871 -1.72275e-06 0)
(-0.000119371 1.3857e-06 0)
(-0.000119962 4.51238e-06 0)
(-0.000120501 7.65539e-06 0)
(-0.000123403 -9.95133e-07 0)
(-0.000124083 2.07838e-06 0)
(-0.000124694 5.16329e-06 0)
(-0.000125251 8.25806e-06 0)
(-0.000128041 -2.50318e-07 0)
(-0.000128732 2.78739e-06 0)
(-0.000129352 5.82961e-06 0)
(-0.000129919 8.87505e-06 0)
(-0.000132622 5.02087e-07 0)
(-0.000133315 3.50234e-06 0)
(-0.000133936 6.50041e-06 0)
(-0.000134504 9.49504e-06 0)
(-0.000137142 1.25302e-06 0)
(-0.000137828 4.21348e-06 0)
(-0.000138443 7.16537e-06 0)
(-0.000139003 1.01073e-05 0)
(-0.000141599 1.99397e-06 0)
(-0.00014227 4.91177e-06 0)
(-0.000142869 7.81496e-06 0)
(-0.000143413 1.07021e-05 0)
(-0.000145988 2.7169e-06 0)
(-0.000146636 5.58878e-06 0)
(-0.000147212 8.44046e-06 0)
(-0.000147731 1.12703e-05 0)
(-0.000150304 3.41413e-06 0)
(-0.000150923 6.23665e-06 0)
(-0.000151469 9.03385e-06 0)
(-0.000151956 1.18038e-05 0)
(-0.000154544 4.07823e-06 0)
(-0.000155126 6.84795e-06 0)
(-0.000155636 9.58773e-06 0)
(-0.000156085 1.22954e-05 0)
(-0.000158703 4.70206e-06 0)
(-0.000159243 7.41567e-06 0)
(-0.000159711 1.00953e-05 0)
(-0.000160115 1.27385e-05 0)
(-0.000162778 5.27889e-06 0)
(-0.000163271 7.9333e-06 0)
(-0.000163691 1.05502e-05 0)
(-0.000164046 1.31272e-05 0)
(-0.000166764 5.80263e-06 0)
(-0.000167206 8.39501e-06 0)
(-0.000167574 1.09472e-05 0)
(-0.000167875 1.34567e-05 0)
(-0.000170658 6.26809e-06 0)
(-0.000171045 8.79591e-06 0)
(-0.000171359 1.12817e-05 0)
(-0.000171602 1.37228e-05 0)
(-0.000174456 6.67132e-06 0)
(-0.000174787 9.13231e-06 0)
(-0.000175044 1.15503e-05 0)
(-0.000175228 1.39228e-05 0)
(-0.000178155 7.00991e-06 0)
(-0.000178429 9.40207e-06 0)
(-0.000178629 1.17514e-05 0)
(-0.000178753 1.40553e-05 0)
(-0.000181752 7.28326e-06 0)
(-0.000181969 9.60482e-06 0)
(-0.000182113 1.18847e-05 0)
(-0.000182179 1.41205e-05 0)
(-0.000185243 7.49267e-06 0)
(-0.000185407 9.7421e-06 0)
(-0.000185497 1.19521e-05 0)
(-0.000185506 1.41205e-05 0)
(-0.000188626 7.64144e-06 0)
(-0.000188739 9.8174e-06 0)
(-0.000188779 1.19573e-05 0)
(-0.000188736 1.4059e-05 0)
(-0.000191898 7.73474e-06 0)
(-0.000191966 9.83611e-06 0)
(-0.000191961 1.19057e-05 0)
(-0.00019187 1.39415e-05 0)
(-0.000195056 7.77943e-06 0)
(-0.000195086 9.80531e-06 0)
(-0.000195043 1.18045e-05 0)
(-0.000194911 1.37752e-05 0)
(-0.0001981 7.78373e-06 0)
(-0.000198099 9.73345e-06 0)
(-0.000198024 1.16622e-05 0)
(-0.000197859 1.35683e-05 0)
(-0.000201027 7.75691e-06 0)
(-0.000201003 9.62999e-06 0)
(-0.000200905 1.14883e-05 0)
(-0.000200715 1.33302e-05 0)
(-0.000203837 7.7088e-06 0)
(-0.000203799 9.50498e-06 0)
(-0.000203685 1.12928e-05 0)
(-0.000203479 1.30708e-05 0)
(-0.000206529 7.64945e-06 0)
(-0.000206485 9.36867e-06 0)
(-0.000206364 1.1086e-05 0)
(-0.000206151 1.27999e-05 0)
(-0.000209104 7.58877e-06 0)
(-0.000209062 9.2311e-06 0)
(-0.000208943 1.08778e-05 0)
(-0.000208731 1.25276e-05 0)
(-0.00021156 7.53614e-06 0)
(-0.000211529 9.10182e-06 0)
(-0.00021142 1.06779e-05 0)
(-0.000211217 1.22632e-05 0)
(-0.0002139 7.50031e-06 0)
(-0.000213887 8.98964e-06 0)
(-0.000213795 1.0495e-05 0)
(-0.00021361 1.20154e-05 0)
(-0.000216122 7.48919e-06 0)
(-0.000216135 8.90256e-06 0)
(-0.000216068 1.03372e-05 0)
(-0.000215907 1.1792e-05 0)
(-0.000218229 7.50986e-06 0)
(-0.000218274 8.84772e-06 0)
(-0.000218237 1.02115e-05 0)
(-0.000218107 1.16002e-05 0)
(-0.000220221 7.56862e-06 0)
(-0.000220304 8.83143e-06 0)
(-0.000220303 1.01243e-05 0)
(-0.00022021 1.14462e-05 0)
(-0.000222099 7.67104e-06 0)
(-0.000222224 8.85933e-06 0)
(-0.000222265 1.00812e-05 0)
(-0.000222213 1.13357e-05 0)
(-0.000223864 7.82204e-06 0)
(-0.000224036 8.93641e-06 0)
(-0.000224122 1.00872e-05 0)
(-0.000224117 1.12736e-05 0)
(-0.000225517 8.02592e-06 0)
(-0.000225739 9.06703e-06 0)
(-0.000225874 1.01467e-05 0)
(-0.000225918 1.12642e-05 0)
(-0.000227059 8.28622e-06 0)
(-0.000227334 9.25483e-06 0)
(-0.00022752 1.02633e-05 0)
(-0.000227616 1.13112e-05 0)
(-0.000228492 8.6055e-06 0)
(-0.000228821 9.50249e-06 0)
(-0.00022906 1.04398e-05 0)
(-0.000229209 1.14171e-05 0)
(-0.000229818 8.98509e-06 0)
(-0.000230201 9.8114e-06 0)
(-0.000230493 1.06776e-05 0)
(-0.000230696 1.15832e-05 0)
(-0.000231039 9.42467e-06 0)
(-0.000231475 1.01813e-05 0)
(-0.000231818 1.09763e-05 0)
(-0.000232073 1.18095e-05 0)
(-0.000232156 9.92207e-06 0)
(-0.000232642 1.06099e-05 0)
(-0.000233034 1.13339e-05 0)
(-0.000233339 1.20936e-05 0)
(-0.000233173 1.04732e-05 0)
(-0.000233705 1.10931e-05 0)
(-0.000234142 1.17461e-05 0)
(-0.000234493 1.24316e-05 0)
(-0.000234089 1.10722e-05 0)
(-0.000234663 1.16249e-05 0)
(-0.000235141 1.22069e-05 0)
(-0.000235533 1.28177e-05 0)
(-0.000234907 1.1712e-05 0)
(-0.000235517 1.2198e-05 0)
(-0.00023603 1.27092e-05 0)
(-0.000236458 1.3245e-05 0)
(-0.000235627 1.23852e-05 0)
(-0.000236267 1.28046e-05 0)
(-0.00023681 1.32452e-05 0)
(-0.000237267 1.37059e-05 0)
(-0.000236249 1.30841e-05 0)
(-0.000236914 1.34371e-05 0)
(-0.000237481 1.38075e-05 0)
(-0.000237962 1.41933e-05 0)
(-0.000236773 1.38019e-05 0)
(-0.000237457 1.40884e-05 0)
(-0.000238043 1.43892e-05 0)
(-0.000238541 1.47005e-05 0)
(-0.000237199 1.45321e-05 0)
(-0.000237899 1.4752e-05 0)
(-0.000238498 1.4984e-05 0)
(-0.000239006 1.52212e-05 0)
(-0.000237523 1.5268e-05 0)
(-0.000238236 1.54213e-05 0)
(-0.000238844 1.55859e-05 0)
(-0.000239356 1.57501e-05 0)
(-0.000237752 1.60097e-05 0)
(-0.000238478 1.60927e-05 0)
(-0.000239092 1.6186e-05 0)
(-0.000239599 1.6275e-05 0)
(-0.00023786 1.67574e-05 0)
(-0.0002386 1.67635e-05 0)
(-0.000239215 1.67754e-05 0)
(-0.000239712 1.6786e-05 0)
)
;

boundaryField
{
    plateFix
    {
        type            calculated;
        value           uniform (0 0 0);
    }
    plate
    {
        type            calculated;
        value           nonuniform List<vector> 
168
(
(-4.67474e-06 -2.54755e-06 -6.54134e-24)
(-4.53472e-06 2.4778e-06 -1.71615e-22)
(-4.54466e-06 -4.09746e-06 7.7602e-24)
(-4.39092e-06 3.97868e-06 1.69548e-22)
(-4.7343e-06 -5.29449e-06 -5.29563e-23)
(-4.55805e-06 5.12719e-06 -4.85916e-23)
(-5.28554e-06 -6.13055e-06 7.18427e-23)
(-5.08015e-06 5.91379e-06 -5.37047e-23)
(-6.17513e-06 -6.72495e-06 1.9761e-23)
(-5.93592e-06 6.4543e-06 5.76409e-23)
(-7.33553e-06 -7.13337e-06 -6.1422e-24)
(-7.06027e-06 6.80242e-06 -2.71797e-23)
(-8.72963e-06 -7.41398e-06 -3.48142e-23)
(-8.4177e-06 7.01446e-06 5.04199e-23)
(-1.03282e-05 -7.60427e-06 2.69503e-23)
(-9.98028e-06 7.12656e-06 -4.0904e-23)
(-1.21157e-05 -7.73465e-06 -7.05638e-23)
(-1.17335e-05 7.16794e-06 5.67678e-24)
(-1.4083e-05 -7.82667e-06 4.73613e-24)
(-1.36693e-05 7.15915e-06 2.44813e-23)
(-1.62269e-05 -7.89649e-06 3.34753e-23)
(-1.57855e-05 7.11559e-06 1.36712e-23)
(-1.85476e-05 -7.95543e-06 2.26919e-23)
(-1.80836e-05 7.04809e-06 4.12452e-24)
(-2.10481e-05 -8.01112e-06 -3.34209e-24)
(-2.05682e-05 6.96429e-06 -1.81309e-23)
(-2.37338e-05 -8.06801e-06 -6.20974e-24)
(-2.32466e-05 6.86937e-06 -6.67995e-24)
(-2.66119e-05 -8.12791e-06 -7.94514e-24)
(-2.61281e-05 6.76691e-06 -8.91852e-24)
(-2.96913e-05 -8.19036e-06 -1.54928e-25)
(-2.92237e-05 6.65959e-06 7.95384e-24)
(-3.29823e-05 -8.253e-06 2.8375e-23)
(-3.2546e-05 6.54987e-06 -2.2377e-24)
(-3.64967e-05 -8.31189e-06 -2.70783e-23)
(-3.61086e-05 6.44042e-06 8.02897e-24)
(-4.02474e-05 -8.3618e-06 -6.54388e-26)
(-3.99257e-05 6.3345e-06 -6.99967e-24)
(-4.42482e-05 -8.3965e-06 -1.81566e-23)
(-4.40119e-05 6.236e-06 -2.2581e-23)
(-4.85138e-05 -8.40903e-06 1.81499e-23)
(-4.83818e-05 6.14939e-06 5.95544e-24)
(-5.30591e-05 -8.39189e-06 8.74466e-24)
(-5.30501e-05 6.07984e-06 3.64227e-23)
(-5.80831e-05 -8.33472e-06 -2.15574e-23)
(-5.82219e-05 6.03128e-06 -1.12927e-23)
(-6.34129e-05 -8.22524e-06 1.74508e-23)
(-6.37215e-05 6.01648e-06 4.84589e-24)
(-6.86905e-05 -8.06568e-06 -1.98786e-23)
(-6.91812e-05 6.04136e-06 -1.48544e-23)
(-7.39121e-05 -7.85319e-06 4.1665e-24)
(-7.45982e-05 6.1098e-06 2.60836e-25)
(-7.90749e-05 -7.58419e-06 1.01266e-23)
(-7.99696e-05 6.22696e-06 -3.44645e-25)
(-8.41773e-05 -7.25486e-06 -7.61263e-24)
(-8.5292e-05 6.39832e-06 1.59427e-23)
(-8.92196e-05 -6.86226e-06 1.24991e-23)
(-9.05609e-05 6.62871e-06 -5.26958e-24)
(-9.42034e-05 -6.40513e-06 1.03041e-23)
(-9.57715e-05 6.92112e-06 1.66239e-23)
(-9.91313e-05 -5.88459e-06 -1.80959e-23)
(-0.000100918 7.27602e-06 -1.4091e-23)
(-0.000104006 -5.30429e-06 2.1179e-24)
(-0.000105996 7.69088e-06 7.56591e-24)
(-0.000108831 -4.67028e-06 5.37034e-24)
(-0.000111 8.16023e-06 5.21952e-24)
(-0.000113608 -3.99043e-06 -2.02838e-25)
(-0.000115927 8.67603e-06 3.30541e-24)
(-0.000118338 -3.27378e-06 -2.47083e-24)
(-0.000120771 9.22835e-06 -4.95352e-24)
(-0.00012302 -2.52991e-06 4.33886e-25)
(-0.000125532 9.80604e-06 5.58553e-24)
(-0.000127653 -1.76837e-06 1.68079e-25)
(-0.000130205 1.03975e-05 -4.59216e-24)
(-0.000132234 -9.98333e-07 1.99563e-24)
(-0.00013479 1.09912e-05 -2.05705e-24)
(-0.000136759 -2.28508e-07 1.50661e-24)
(-0.000139284 1.15764e-05 3.03961e-24)
(-0.000141225 5.32886e-07 -8.70058e-25)
(-0.000143685 1.21429e-05 1.02064e-23)
(-0.000145627 1.27799e-06 -1.44884e-24)
(-0.000147991 1.26816e-05 -1.22903e-23)
(-0.00014996 1.99919e-06 -7.12031e-24)
(-0.000152198 1.31845e-05 -8.67827e-24)
(-0.000154219 2.68906e-06 1.25495e-24)
(-0.000156306 1.36442e-05 -4.11862e-23)
(-0.000158402 3.3404e-06 4.46176e-24)
(-0.000160312 1.40544e-05 3.28984e-24)
(-0.000162502 3.94638e-06 3.3495e-24)
(-0.000164215 1.44095e-05 -7.03953e-24)
(-0.000166516 4.50076e-06 1.7783e-24)
(-0.000168014 1.47047e-05 -1.02839e-23)
(-0.00017044 4.99823e-06 2.02719e-23)
(-0.00017171 1.49362e-05 1.08861e-23)
(-0.000174269 5.43473e-06 -7.75426e-24)
(-0.000175302 1.51017e-05 -1.89639e-23)
(-0.000178 5.80775e-06 -1.42229e-23)
(-0.000178793 1.51999e-05 6.37046e-24)
(-0.000181628 6.11656e-06 7.07555e-24)
(-0.000182185 1.52312e-05 1.02115e-23)
(-0.000185149 6.36237e-06 9.61808e-26)
(-0.000185479 1.51978e-05 -9.04042e-24)
(-0.00018856 6.54836e-06 -1.0488e-23)
(-0.000188679 1.51035e-05 9.11035e-24)
(-0.000191857 6.67959e-06 1.52092e-23)
(-0.000191787 1.49538e-05 -4.63612e-24)
(-0.000195037 6.76278e-06 1.66208e-24)
(-0.000194804 1.47558e-05 1.17434e-23)
(-0.000198097 6.80602e-06 -7.50842e-24)
(-0.000197734 1.45175e-05 -3.66444e-24)
(-0.000201037 6.81842e-06 -4.87684e-24)
(-0.000200576 1.42483e-05 1.36003e-23)
(-0.000203854 6.8097e-06 1.25589e-23)
(-0.000203331 1.39579e-05 1.54776e-24)
(-0.000206548 6.78977e-06 3.32646e-24)
(-0.000205999 1.36561e-05 -1.05549e-23)
(-0.00020912 6.76842e-06 3.43168e-25)
(-0.00020858 1.33526e-05 2.81881e-24)
(-0.00021157 6.75497e-06 -6.95427e-24)
(-0.000211072 1.30569e-05 -3.88042e-24)
(-0.000213898 6.75809e-06 -2.9297e-25)
(-0.000213474 1.27774e-05 8.81504e-24)
(-0.000216106 6.78565e-06 1.86584e-24)
(-0.000215784 1.2522e-05 -2.64981e-24)
(-0.000218195 6.8447e-06 3.59817e-24)
(-0.000218002 1.22978e-05 1.05062e-23)
(-0.000220166 6.94153e-06 6.72908e-25)
(-0.000220125 1.21111e-05 -1.63042e-23)
(-0.00022202 7.08169e-06 -1.9279e-25)
(-0.000222151 1.19674e-05 1.11681e-24)
(-0.000223759 7.27006e-06 4.75205e-25)
(-0.000224079 1.18717e-05 2.89067e-24)
(-0.000225384 7.51089e-06 -4.7905e-24)
(-0.000225908 1.18282e-05 7.70358e-25)
(-0.000226898 7.80764e-06 -9.87313e-25)
(-0.000227634 1.18406e-05 7.04405e-24)
(-0.000228301 8.16283e-06 7.53563e-24)
(-0.000229257 1.19113e-05 1.15455e-24)
(-0.000229596 8.57769e-06 -2.28071e-24)
(-0.000230773 1.20416e-05 -2.30941e-24)
(-0.000230787 9.05189e-06 -1.2915e-23)
(-0.00023218 1.22314e-05 4.17972e-24)
(-0.000231876 9.58327e-06 8.90792e-24)
(-0.000233474 1.24785e-05 -8.29714e-24)
(-0.000232867 1.01678e-05 -4.22093e-24)
(-0.000234653 1.27789e-05 9.72093e-24)
(-0.000233761 1.07998e-05 -7.56539e-24)
(-0.000235715 1.31271e-05 1.1435e-23)
(-0.00023456 1.14723e-05 -1.96783e-24)
(-0.000236658 1.35161e-05 -3.76685e-24)
(-0.000235265 1.21781e-05 -6.37666e-24)
(-0.000237482 1.39388e-05 -9.50704e-24)
(-0.000235875 1.29097e-05 1.62798e-23)
(-0.000238188 1.4388e-05 5.05882e-24)
(-0.000236391 1.36601e-05 8.52346e-24)
(-0.000238775 1.48573e-05 1.95072e-24)
(-0.000236812 1.44236e-05 3.93975e-24)
(-0.000239246 1.53399e-05 1.536e-24)
(-0.000237132 1.51925e-05 -6.61452e-24)
(-0.000239596 1.58317e-05 3.65141e-24)
(-0.000237356 1.59701e-05 5.12578e-24)
(-0.000239834 1.63173e-05 -7.06275e-24)
(-0.000237444 1.67494e-05 1.12354e-23)
(-0.000237879 1.71629e-05 3.40501e-23)
(-0.000238622 1.7105e-05 -1.66635e-23)
(-0.000239239 1.70529e-05 -2.08516e-23)
(-0.000239733 1.70057e-05 4.38573e-23)
(-0.000239924 1.67949e-05 -1.06295e-23)
)
;
    }
    frontAndBackPlanes
    {
        type            empty;
    }
}


// ************************************************************************* //
