/*--------------------------------*- C++ -*----------------------------------*\
| =========                 |                                                 |
| \\      /  F ield         | OpenFOAM Extend Project: Open source CFD        |
|  \\    /   O peration     | Version:  1.6-ext                               |
|   \\  /    A nd           | Web:      www.extend-project.de                 |
|    \\/     M anipulation  |                                                 |
\*---------------------------------------------------------------------------*/
FoamFile
{
    version     2.0;
    format      ascii;
    class       volVectorField;
    location    "0.35";
    object      DV_0;
}
// * * * * * * * * * * * * * * * * * * * * * * * * * * * * * * * * * * * * * //

dimensions      [0 1 -1 0 0 0 0];

internalField   nonuniform List<vector> 
328
(
(-3.0328e-07 -5.99442e-07 0)
(-1.97536e-07 -1.2757e-07 0)
(-1.95117e-07 1.16587e-07 0)
(-2.88866e-07 5.69163e-07 0)
(-9.23506e-07 -1.54214e-06 0)
(-6.54023e-07 -3.77425e-07 0)
(-6.45459e-07 3.35742e-07 0)
(-8.80061e-07 1.45642e-06 0)
(-1.64179e-06 -2.25014e-06 0)
(-1.2668e-06 -6.19611e-07 0)
(-1.24936e-06 5.37077e-07 0)
(-1.56646e-06 2.10963e-06 0)
(-2.42405e-06 -2.76233e-06 0)
(-1.98492e-06 -8.36439e-07 0)
(-1.95758e-06 7.02862e-07 0)
(-2.31579e-06 2.56471e-06 0)
(-3.28021e-06 -3.12867e-06 0)
(-2.81828e-06 -1.02154e-06 0)
(-2.78011e-06 8.26552e-07 0)
(-3.13826e-06 2.86871e-06 0)
(-4.20624e-06 -3.38769e-06 0)
(-3.75027e-06 -1.17334e-06 0)
(-3.70103e-06 9.059e-07 0)
(-4.03061e-06 3.05771e-06 0)
(-5.20687e-06 -3.57108e-06 0)
(-4.77873e-06 -1.29559e-06 0)
(-4.71842e-06 9.43812e-07 0)
(-4.99814e-06 3.16124e-06 0)
(-6.28531e-06 -3.70257e-06 0)
(-5.89745e-06 -1.39422e-06 0)
(-5.82643e-06 9.45151e-07 0)
(-6.0447e-06 3.2012e-06 0)
(-7.44662e-06 -3.8006e-06 0)
(-7.10483e-06 -1.47646e-06 0)
(-7.02371e-06 9.16106e-07 0)
(-7.17608e-06 3.1945e-06 0)
(-8.69573e-06 -3.87888e-06 0)
(-8.40002e-06 -1.54929e-06 0)
(-8.3097e-06 8.62795e-07 0)
(-8.398e-06 3.15374e-06 0)
(-1.00378e-05 -3.94747e-06 0)
(-9.78463e-06 -1.6188e-06 0)
(-9.68631e-06 7.90842e-07 0)
(-9.71664e-06 3.08841e-06 0)
(-1.14781e-05 -4.01326e-06 0)
(-1.12618e-05 -1.68958e-06 0)
(-1.1157e-05 7.04994e-07 0)
(-1.11382e-05 3.0055e-06 0)
(-1.30218e-05 -4.08047e-06 0)
(-1.28362e-05 -1.76452e-06 0)
(-1.27268e-05 6.09159e-07 0)
(-1.26691e-05 2.91019e-06 0)
(-1.46742e-05 -4.15099e-06 0)
(-1.45137e-05 -1.84481e-06 0)
(-1.44021e-05 5.0654e-07 0)
(-1.4316e-05 2.80635e-06 0)
(-1.64407e-05 -4.2248e-06 0)
(-1.63013e-05 -1.93005e-06 0)
(-1.619e-05 3.99887e-07 0)
(-1.60854e-05 2.69698e-06 0)
(-1.8327e-05 -4.30032e-06 0)
(-1.82062e-05 -2.01854e-06 0)
(-1.80986e-05 2.91734e-07 0)
(-1.79844e-05 2.58462e-06 0)
(-2.03392e-05 -4.37481e-06 0)
(-2.02363e-05 -2.10759e-06 0)
(-2.01358e-05 1.84586e-07 0)
(-2.00199e-05 2.47156e-06 0)
(-2.24834e-05 -4.44472e-06 0)
(-2.23993e-05 -2.19384e-06 0)
(-2.23099e-05 8.10308e-08 0)
(-2.21992e-05 2.36009e-06 0)
(-2.47658e-05 -4.50596e-06 0)
(-2.47028e-05 -2.27351e-06 0)
(-2.46288e-05 -1.61686e-08 0)
(-2.45295e-05 2.2526e-06 0)
(-2.71926e-05 -4.55393e-06 0)
(-2.71541e-05 -2.34246e-06 0)
(-2.71003e-05 -1.03914e-07 0)
(-2.70179e-05 2.15178e-06 0)
(-2.97692e-05 -4.58326e-06 0)
(-2.97599e-05 -2.39588e-06 0)
(-2.97315e-05 -1.78398e-07 0)
(-2.96716e-05 2.06105e-06 0)
(-3.25004e-05 -4.58722e-06 0)
(-3.25259e-05 -2.42763e-06 0)
(-3.2529e-05 -2.34346e-07 0)
(-3.24974e-05 1.98528e-06 0)
(-3.54998e-05 -4.55528e-06 0)
(-3.55688e-05 -2.42907e-06 0)
(-3.56116e-05 -2.65008e-07 0)
(-3.56166e-05 1.92982e-06 0)
(-3.86551e-05 -4.47022e-06 0)
(-3.87768e-05 -2.38251e-06 0)
(-3.8868e-05 -2.52582e-07 0)
(-3.89182e-05 1.91252e-06 0)
(-4.17514e-05 -4.32636e-06 0)
(-4.19317e-05 -2.27942e-06 0)
(-4.2077e-05 -1.86334e-07 0)
(-4.21782e-05 1.94584e-06 0)
(-4.47863e-05 -4.11545e-06 0)
(-4.50305e-05 -2.11082e-06 0)
(-4.52345e-05 -5.70235e-08 0)
(-4.5392e-05 2.039e-06 0)
(-4.77588e-05 -3.83053e-06 0)
(-4.80707e-05 -1.86895e-06 0)
(-4.83368e-05 1.43562e-07 0)
(-4.85545e-05 2.2003e-06 0)
(-5.06692e-05 -3.46716e-06 0)
(-5.10506e-05 -1.54859e-06 0)
(-5.13804e-05 4.2109e-07 0)
(-5.16604e-05 2.43559e-06 0)
(-5.3519e-05 -3.02439e-06 0)
(-5.39689e-05 -1.14809e-06 0)
(-5.43619e-05 7.77744e-07 0)
(-5.4704e-05 2.74743e-06 0)
(-5.631e-05 -2.50487e-06 0)
(-5.68252e-05 -6.69633e-07 0)
(-5.72786e-05 1.21186e-06 0)
(-5.76804e-05 3.13464e-06 0)
(-5.90444e-05 -1.91465e-06 0)
(-5.96193e-05 -1.18947e-07 0)
(-6.01282e-05 1.71816e-06 0)
(-6.05849e-05 3.59258e-06 0)
(-6.17241e-05 -1.26238e-06 0)
(-6.23512e-05 4.95374e-07 0)
(-6.2909e-05 2.28844e-06 0)
(-6.34141e-05 4.1136e-06 0)
(-6.43509e-05 -5.58497e-07 0)
(-6.5021e-05 1.16278e-06 0)
(-6.56196e-05 2.91235e-06 0)
(-6.61653e-05 4.68788e-06 0)
(-6.69255e-05 1.85717e-07 0)
(-6.76287e-05 1.87169e-06 0)
(-6.82591e-05 3.57836e-06 0)
(-6.88364e-05 5.30422e-06 0)
(-6.94482e-05 9.58843e-07 0)
(-7.01742e-05 2.61022e-06 0)
(-7.08268e-05 4.27445e-06 0)
(-7.14262e-05 5.95072e-06 0)
(-7.19185e-05 1.7498e-06 0)
(-7.2657e-05 3.36671e-06 0)
(-7.33219e-05 4.98864e-06 0)
(-7.39337e-05 6.6153e-06 0)
(-7.43354e-05 2.54809e-06 0)
(-7.50761e-05 4.13005e-06 0)
(-7.57436e-05 5.70937e-06 0)
(-7.63579e-05 7.28614e-06 0)
(-7.6697e-05 3.34376e-06 0)
(-7.74301e-05 4.88966e-06 0)
(-7.80907e-05 6.42559e-06 0)
(-7.86981e-05 7.95183e-06 0)
(-7.90014e-05 4.12737e-06 0)
(-7.97175e-05 5.63555e-06 0)
(-8.0362e-05 7.12681e-06 0)
(-8.09532e-05 8.60153e-06 0)
(-8.12458e-05 4.88978e-06 0)
(-8.19363e-05 6.35814e-06 0)
(-8.25559e-05 7.8031e-06 0)
(-8.3122e-05 9.22502e-06 0)
(-8.34277e-05 5.62208e-06 0)
(-8.40843e-05 7.04824e-06 0)
(-8.46709e-05 8.44505e-06 0)
(-8.52035e-05 9.81279e-06 0)
(-8.55441e-05 6.31564e-06 0)
(-8.61593e-05 7.69711e-06 0)
(-8.67055e-05 9.04385e-06 0)
(-8.71969e-05 1.03561e-05 0)
(-8.75922e-05 6.96216e-06 0)
(-8.81593e-05 8.2965e-06 0)
(-8.86584e-05 9.59142e-06 0)
(-8.91018e-05 1.0847e-05 0)
(-8.95694e-05 7.554e-06 0)
(-9.00825e-05 8.83896e-06 0)
(-9.05287e-05 1.00805e-05 0)
(-9.09182e-05 1.12789e-05 0)
(-9.14731e-05 8.08439e-06 0)
(-9.19274e-05 9.31799e-06 0)
(-9.23162e-05 1.05052e-05 0)
(-9.26468e-05 1.1646e-05 0)
(-9.3301e-05 8.54775e-06 0)
(-9.3693e-05 9.72839e-06 0)
(-9.40208e-05 1.08605e-05 0)
(-9.4289e-05 1.19441e-05 0)
(-9.5051e-05 8.94001e-06 0)
(-9.53785e-05 1.00665e-05 0)
(-9.56433e-05 1.11432e-05 0)
(-9.5847e-05 1.21706e-05 0)
(-9.67217e-05 9.25875e-06 0)
(-9.69839e-05 1.03302e-05 0)
(-9.71849e-05 1.13519e-05 0)
(-9.73234e-05 1.23243e-05 0)
(-9.83117e-05 9.50335e-06 0)
(-9.85092e-05 1.05193e-05 0)
(-9.86471e-05 1.14866e-05 0)
(-9.87213e-05 1.24057e-05 0)
(-9.98201e-05 9.67502e-06 0)
(-9.9955e-05 1.06354e-05 0)
(-0.000100032 1.15492e-05 0)
(-0.000100044 1.24172e-05 0)
(-0.000101246 9.77674e-06 0)
(-0.000101322 1.06817e-05 0)
(-0.000101342 1.15432e-05 0)
(-0.000101296 1.23623e-05 0)
(-0.00010259 9.81317e-06 0)
(-0.000102612 1.06631e-05 0)
(-0.000102579 1.14738e-05 0)
(-0.00010248 1.22464e-05 0)
(-0.000103852 9.79046e-06 0)
(-0.000103826 1.05862e-05 0)
(-0.000103747 1.13476e-05 0)
(-0.0001036 1.2076e-05 0)
(-0.000105032 9.71609e-06 0)
(-0.000104965 1.04585e-05 0)
(-0.000104846 1.11722e-05 0)
(-0.000104661 1.1859e-05 0)
(-0.000106132 9.59866e-06 0)
(-0.000106032 1.02888e-05 0)
(-0.000105882 1.09567e-05 0)
(-0.000105664 1.1604e-05 0)
(-0.000107152 9.44766e-06 0)
(-0.000107028 1.00869e-05 0)
(-0.000106855 1.07106e-05 0)
(-0.000106615 1.13207e-05 0)
(-0.000108095 9.27325e-06 0)
(-0.000107955 9.86302e-06 0)
(-0.000107768 1.04443e-05 0)
(-0.000107516 1.10192e-05 0)
(-0.000108961 9.086e-06 0)
(-0.000108816 9.62797e-06 0)
(-0.000108625 1.01686e-05 0)
(-0.000108369 1.07101e-05 0)
(-0.000109755 8.89662e-06 0)
(-0.000109614 9.39259e-06 0)
(-0.000109427 9.89438e-06 0)
(-0.000109177 1.04042e-05 0)
(-0.000110478 8.71572e-06 0)
(-0.00011035 9.16763e-06 0)
(-0.000110177 9.63227e-06 0)
(-0.000109942 1.01119e-05 0)
(-0.000111133 8.55346e-06 0)
(-0.000111027 8.96338e-06 0)
(-0.000110877 9.39258e-06 0)
(-0.000110666 9.84333e-06 0)
(-0.000111724 8.4194e-06 0)
(-0.000111648 8.78949e-06 0)
(-0.000111529 9.18492e-06 0)
(-0.00011135 9.60799e-06 0)
(-0.000112253 8.32222e-06 0)
(-0.000112215 8.65471e-06 0)
(-0.000112134 9.01801e-06 0)
(-0.000111996 9.41443e-06 0)
(-0.000112726 8.2696e-06 0)
(-0.000112732 8.56675e-06 0)
(-0.000112696 8.89953e-06 0)
(-0.000112605 9.27023e-06 0)
(-0.000113144 8.26815e-06 0)
(-0.000113201 8.53224e-06 0)
(-0.000113215 8.83606e-06 0)
(-0.000113177 9.18187e-06 0)
(-0.000113512 8.32344e-06 0)
(-0.000113624 8.55673e-06 0)
(-0.000113694 8.83311e-06 0)
(-0.000113713 9.15479e-06 0)
(-0.000113834 8.44e-06 0)
(-0.000114005 8.64476e-06 0)
(-0.000114133 8.89517e-06 0)
(-0.000114213 9.19337e-06 0)
(-0.000114113 8.62146e-06 0)
(-0.000114346 8.79996e-06 0)
(-0.000114536 9.02581e-06 0)
(-0.00011468 9.3011e-06 0)
(-0.000114353 8.87054e-06 0)
(-0.000114649 9.02503e-06 0)
(-0.000114902 9.22769e-06 0)
(-0.000115111 9.48052e-06 0)
(-0.000114557 9.18898e-06 0)
(-0.000114917 9.32174e-06 0)
(-0.000115234 9.50252e-06 0)
(-0.000115509 9.7332e-06 0)
(-0.00011473 9.57732e-06 0)
(-0.000115153 9.69065e-06 0)
(-0.000115533 9.85079e-06 0)
(-0.000115873 1.00595e-05 0)
(-0.000114875 1.00346e-05 0)
(-0.000115359 1.01308e-05 0)
(-0.000115799 1.02715e-05 0)
(-0.000116202 1.04584e-05 0)
(-0.000114996 1.05579e-05 0)
(-0.000115537 1.06391e-05 0)
(-0.000116034 1.07615e-05 0)
(-0.000116496 1.09266e-05 0)
(-0.000115097 1.11422e-05 0)
(-0.000115691 1.12104e-05 0)
(-0.000116239 1.13156e-05 0)
(-0.000116754 1.1459e-05 0)
(-0.000115182 1.17799e-05 0)
(-0.000115821 1.1837e-05 0)
(-0.000116414 1.1926e-05 0)
(-0.000116977 1.20479e-05 0)
(-0.000115253 1.24616e-05 0)
(-0.00011593 1.25089e-05 0)
(-0.000116562 1.25829e-05 0)
(-0.000117163 1.26839e-05 0)
(-0.000115312 1.31769e-05 0)
(-0.000116019 1.32152e-05 0)
(-0.000116682 1.32754e-05 0)
(-0.000117314 1.33563e-05 0)
(-0.000115359 1.39148e-05 0)
(-0.00011609 1.3945e-05 0)
(-0.000116777 1.39928e-05 0)
(-0.00011743 1.40548e-05 0)
(-0.000115396 1.4666e-05 0)
(-0.000116145 1.46882e-05 0)
(-0.000116848 1.47256e-05 0)
(-0.000117515 1.47701e-05 0)
(-0.000115419 1.54229e-05 0)
(-0.000116184 1.54373e-05 0)
(-0.000116898 1.54657e-05 0)
(-0.000117569 1.54942e-05 0)
(-0.00011543 1.61855e-05 0)
(-0.000116212 1.61884e-05 0)
(-0.000116932 1.62034e-05 0)
(-0.000117597 1.62143e-05 0)
(-0.000115414 1.69678e-05 0)
(-0.000116212 1.69425e-05 0)
(-0.000116935 1.69256e-05 0)
(-0.000117588 1.69052e-05 0)
)
;

boundaryField
{
    plateFix
    {
        type            calculated;
        value           uniform (0 0 0);
    }
    plate
    {
        type            calculated;
        value           nonuniform List<vector> 
168
(
(-2.94097e-06 -1.60044e-06 3.27846e-23)
(-2.78375e-06 1.52152e-06 5.03696e-23)
(-2.85851e-06 -2.57713e-06 -3.88568e-23)
(-2.68627e-06 2.44279e-06 -3.46002e-23)
(-2.97645e-06 -3.33395e-06 2.26893e-23)
(-2.77927e-06 3.14506e-06 2.95038e-25)
(-3.32028e-06 -3.86609e-06 -2.84631e-23)
(-3.09085e-06 3.62198e-06 1.55475e-23)
(-3.87526e-06 -4.24862e-06 -7.3631e-23)
(-3.60819e-06 3.94469e-06 -5.72171e-23)
(-4.59885e-06 -4.51675e-06 2.47909e-23)
(-4.29118e-06 4.14599e-06 3.3255e-23)
(-5.46751e-06 -4.70725e-06 5.86196e-23)
(-5.11798e-06 4.26024e-06 -3.77257e-23)
(-6.46251e-06 -4.84389e-06 -2.21528e-23)
(-6.07154e-06 4.30935e-06 1.17716e-23)
(-7.57359e-06 -4.94594e-06 2.53222e-23)
(-7.14313e-06 4.311e-06 4.24609e-23)
(-8.79438e-06 -5.02696e-06 4.09905e-23)
(-8.32801e-06 4.27765e-06 -3.42351e-23)
(-1.01221e-05 -5.09699e-06 -3.31688e-23)
(-9.62506e-06 4.21875e-06 -4.3699e-26)
(-1.1556e-05 -5.16277e-06 -4.14945e-23)
(-1.10354e-05 4.14111e-06 -1.61468e-23)
(-1.30971e-05 -5.22849e-06 1.68386e-23)
(-1.25619e-05 4.04984e-06 2.54539e-23)
(-1.47479e-05 -5.29606e-06 -1.53027e-23)
(-1.42089e-05 3.94873e-06 -1.63088e-23)
(-1.65121e-05 -5.36555e-06 3.26653e-23)
(-1.59815e-05 3.84077e-06 2.81249e-24)
(-1.83942e-05 -5.43546e-06 2.37306e-25)
(-1.78859e-05 3.72843e-06 -5.26693e-24)
(-2.04e-05 -5.50314e-06 -3.23753e-23)
(-1.99286e-05 3.614e-06 1.36571e-23)
(-2.25354e-05 -5.56506e-06 -1.17833e-23)
(-2.21162e-05 3.49969e-06 -2.8842e-23)
(-2.4807e-05 -5.61707e-06 3.71583e-23)
(-2.44559e-05 3.38784e-06 2.51742e-23)
(-2.72209e-05 -5.65437e-06 3.05374e-24)
(-2.69548e-05 3.28109e-06 9.66887e-24)
(-2.97824e-05 -5.67134e-06 -1.00135e-23)
(-2.96204e-05 3.18274e-06 1.10502e-23)
(-3.24956e-05 -5.66093e-06 -1.07114e-23)
(-3.246e-05 3.0976e-06 -2.36531e-23)
(-3.54722e-05 -5.61164e-06 1.40122e-23)
(-3.55969e-05 3.03036e-06 -7.80018e-24)
(-3.85994e-05 -5.50656e-06 -1.73897e-23)
(-3.89206e-05 2.9989e-06 9.59357e-24)
(-4.1663e-05 -5.34155e-06 2.56935e-23)
(-4.22066e-05 3.01648e-06 1.28269e-23)
(-4.46611e-05 -5.10882e-06 9.40311e-24)
(-4.54505e-05 3.09218e-06 2.68175e-24)
(-4.75934e-05 -4.80195e-06 -2.20579e-23)
(-4.86463e-05 3.23427e-06 -1.74252e-24)
(-5.04621e-05 -4.41698e-06 1.31888e-23)
(-5.17871e-05 3.44861e-06 -2.47252e-23)
(-5.32703e-05 -3.95333e-06 -2.91414e-23)
(-5.48659e-05 3.73792e-06 4.62643e-24)
(-5.60219e-05 -3.41388e-06 5.63166e-24)
(-5.7876e-05 4.10131e-06 -3.29321e-25)
(-5.87207e-05 -2.80479e-06 1.12561e-23)
(-6.08113e-05 4.53446e-06 9.73423e-24)
(-6.137e-05 -2.13468e-06 1.67509e-24)
(-6.36672e-05 5.0301e-06 -6.13474e-24)
(-6.39722e-05 -1.41384e-06 -2.89264e-24)
(-6.64404e-05 5.57872e-06 -4.76524e-24)
(-6.65285e-05 -6.53337e-07 -4.38746e-24)
(-6.91283e-05 6.16932e-06 -4.60263e-25)
(-6.90392e-05 1.35713e-07 4.82864e-24)
(-7.17297e-05 6.79011e-06 1.13423e-24)
(-7.15036e-05 9.42561e-07 3.86135e-25)
(-7.42435e-05 7.42899e-06 1.26545e-24)
(-7.39203e-05 1.75704e-06 -5.49611e-26)
(-7.6669e-05 8.07401e-06 -5.63954e-24)
(-7.62871e-05 2.56956e-06 -1.07451e-23)
(-7.90054e-05 8.71358e-06 -2.13218e-24)
(-7.86016e-05 3.37093e-06 6.96277e-25)
(-8.12518e-05 9.33668e-06 -4.20533e-24)
(-8.08608e-05 4.15225e-06 1.94195e-24)
(-8.34073e-05 9.93295e-06 -1.57593e-23)
(-8.30618e-05 4.90476e-06 1.12899e-25)
(-8.54709e-05 1.04928e-05 2.59668e-24)
(-8.52013e-05 5.61986e-06 5.28137e-24)
(-8.74422e-05 1.10076e-05 1.28159e-23)
(-8.72763e-05 6.28927e-06 -3.35689e-24)
(-8.9321e-05 1.14696e-05 3.793e-23)
(-8.92835e-05 6.90524e-06 -8.83616e-24)
(-9.11078e-05 1.18722e-05 -1.4931e-23)
(-9.12198e-05 7.46086e-06 1.20913e-24)
(-9.2804e-05 1.221e-05 -6.34262e-24)
(-9.30822e-05 7.95041e-06 6.41305e-24)
(-9.44116e-05 1.24792e-05 1.68938e-23)
(-9.48682e-05 8.36961e-06 -1.69242e-23)
(-9.59337e-05 1.26774e-05 1.87038e-24)
(-9.65751e-05 8.71585e-06 4.54926e-25)
(-9.73736e-05 1.28036e-05 5.00688e-24)
(-9.8201e-05 8.98834e-06 -5.41594e-24)
(-9.87355e-05 1.28586e-05 -1.66845e-23)
(-9.9744e-05 9.18812e-06 -2.30331e-24)
(-0.000100024 1.28448e-05 -1.93842e-24)
(-0.000101203 9.318e-06 6.07488e-24)
(-0.000101243 1.2766e-05 -8.84005e-24)
(-0.000102577 9.3825e-06 1.78264e-23)
(-0.000102397 1.26275e-05 -1.04352e-23)
(-0.000103865 9.38762e-06 -2.27976e-23)
(-0.000103491 1.24359e-05 -4.61394e-24)
(-0.000105068 9.34074e-06 4.25773e-25)
(-0.00010453 1.21989e-05 -1.32895e-23)
(-0.000106186 9.25032e-06 6.20851e-24)
(-0.000105516 1.19252e-05 -8.16832e-24)
(-0.000107219 9.12575e-06 6.03425e-24)
(-0.000106454 1.16243e-05 -1.81758e-23)
(-0.00010817 8.97708e-06 -8.84158e-24)
(-0.000107348 1.13063e-05 4.0397e-24)
(-0.00010904 8.81476e-06 3.37414e-25)
(-0.000108199 1.09816e-05 -9.4399e-25)
(-0.000109831 8.64942e-06 2.80787e-24)
(-0.000109011 1.06609e-05 -2.85698e-24)
(-0.000110547 8.49154e-06 2.30838e-24)
(-0.000109785 1.03546e-05 -3.03963e-24)
(-0.000111189 8.35123e-06 1.65049e-24)
(-0.000110523 1.00726e-05 -2.1225e-24)
(-0.000111763 8.23795e-06 -1.85397e-24)
(-0.000111225 9.82428e-06 9.94786e-24)
(-0.000112272 8.16035e-06 1.05078e-24)
(-0.000111893 9.61819e-06 -5.67078e-24)
(-0.00011272 8.12609e-06 -4.22297e-24)
(-0.000112528 9.46181e-06 1.27972e-23)
(-0.000113111 8.14175e-06 5.21199e-24)
(-0.000113128 9.36159e-06 -3.7715e-24)
(-0.00011345 8.21291e-06 -3.22983e-25)
(-0.000113696 9.32289e-06 -1.26591e-24)
(-0.00011374 8.34412e-06 -1.83565e-24)
(-0.00011423 9.35009e-06 -2.40758e-24)
(-0.000113985 8.539e-06 1.60612e-24)
(-0.000114731 9.4466e-06 -2.68473e-25)
(-0.000114191 8.80024e-06 -3.60839e-24)
(-0.000115199 9.61491e-06 4.22871e-25)
(-0.00011436 9.12957e-06 -6.47478e-24)
(-0.000115633 9.85652e-06 5.65456e-24)
(-0.000114498 9.5275e-06 1.14611e-23)
(-0.000116033 1.01717e-05 -8.25723e-24)
(-0.000114609 9.99305e-06 -9.69401e-24)
(-0.000116397 1.05592e-05 5.82806e-24)
(-0.000114698 1.05234e-05 7.58461e-25)
(-0.000116724 1.1016e-05 -6.4679e-24)
(-0.00011477 1.11134e-05 1.09691e-23)
(-0.000117012 1.15368e-05 -3.78019e-24)
(-0.000114831 1.17559e-05 2.4723e-24)
(-0.00011726 1.21141e-05 1.16606e-23)
(-0.000114882 1.24417e-05 -5.74992e-25)
(-0.000117467 1.27385e-05 1.09498e-23)
(-0.000114926 1.31605e-05 -2.1609e-24)
(-0.000117633 1.33998e-05 -1.76475e-23)
(-0.000114964 1.39019e-05 -1.25538e-23)
(-0.00011776 1.40877e-05 4.3731e-24)
(-0.000114996 1.46569e-05 2.6262e-24)
(-0.000117851 1.47929e-05 -8.58496e-24)
(-0.000115015 1.54176e-05 1.36321e-23)
(-0.000117905 1.55079e-05 -9.77964e-25)
(-0.000115019 1.61859e-05 1.35431e-24)
(-0.000117924 1.6218e-05 5.35406e-24)
(-0.000114975 1.69736e-05 -1.51287e-25)
(-0.000115402 1.74007e-05 1.1622e-25)
(-0.000116202 1.73251e-05 -1.16837e-26)
(-0.000116926 1.72682e-05 6.01501e-23)
(-0.000117577 1.72016e-05 -9.19723e-23)
(-0.00011788 1.6901e-05 2.5003e-23)
)
;
    }
    frontAndBackPlanes
    {
        type            empty;
    }
}


// ************************************************************************* //
