/*--------------------------------*- C++ -*----------------------------------*\
| =========                 |                                                 |
| \\      /  F ield         | OpenFOAM Extend Project: Open source CFD        |
|  \\    /   O peration     | Version:  1.6-ext                               |
|   \\  /    A nd           | Web:      www.extend-project.de                 |
|    \\/     M anipulation  |                                                 |
\*---------------------------------------------------------------------------*/
FoamFile
{
    version     2.0;
    format      ascii;
    class       surfaceScalarField;
    location    "0.35";
    object      meshPhi;
}
// * * * * * * * * * * * * * * * * * * * * * * * * * * * * * * * * * * * * * //

dimensions      [0 3 -1 0 0 0 0];

internalField   nonuniform List<scalar> 
570
(
3.5947e-10
9.62307e-09
2.23956e-12
2.59913e-09
-3.21661e-10
2.42397e-09
8.33248e-09
1.09308e-09
1.14908e-08
1.65998e-11
5.7595e-09
-9.64841e-10
5.3816e-09
9.76316e-09
1.79482e-09
1.4282e-08
5.38719e-11
9.57654e-09
-1.54509e-09
8.96653e-09
1.19794e-08
2.45878e-09
1.79525e-08
1.20021e-10
1.39443e-08
-2.04222e-09
1.30812e-08
1.49681e-08
3.0957e-09
2.24199e-08
2.2219e-10
1.88561e-08
-2.44938e-09
1.7721e-08
1.86676e-08
3.72344e-09
2.75765e-08
3.69829e-10
2.42738e-08
-2.76267e-09
2.28507e-08
2.29895e-08
4.36394e-09
3.3363e-08
5.75259e-10
3.01874e-08
-2.97725e-09
2.84616e-08
2.78863e-08
5.0434e-09
3.97402e-08
8.54193e-10
3.65879e-08
-3.08644e-09
3.45462e-08
3.33271e-08
5.79238e-09
4.66923e-08
1.22643e-09
4.34793e-08
-3.08029e-09
4.11092e-08
3.93017e-08
6.64637e-09
5.4217e-08
1.71663e-09
5.08725e-08
-2.9444e-09
4.81624e-08
4.5812e-08
7.64619e-09
6.23238e-08
2.35532e-09
5.87874e-08
-2.65841e-09
5.57266e-08
5.2871e-08
8.83884e-09
7.10299e-08
3.17997e-09
6.72509e-08
-2.19433e-09
6.383e-08
6.05004e-08
1.02784e-08
8.03597e-08
4.23636e-09
7.62964e-08
-1.51484e-09
7.25072e-08
6.87289e-08
1.20272e-08
9.03426e-08
5.58011e-09
8.59626e-08
-5.71419e-10
8.17991e-08
7.7592e-08
1.41578e-08
1.01013e-07
7.27841e-09
9.62926e-08
6.97503e-10
9.17511e-08
8.71312e-08
1.67547e-08
1.12409e-07
9.41197e-09
1.07333e-07
2.36842e-09
1.02412e-07
9.73932e-08
1.99166e-08
1.2457e-07
1.20772e-08
1.19132e-07
4.53471e-09
1.13836e-07
1.0843e-07
2.37593e-08
1.37541e-07
1.53883e-08
1.31742e-07
7.30866e-09
1.26076e-07
1.20297e-07
2.84178e-08
1.51364e-07
1.94797e-08
1.45213e-07
1.08235e-08
1.39191e-07
1.33054e-07
3.40486e-08
1.66085e-07
2.45084e-08
1.59598e-07
1.52355e-08
1.53238e-07
1.46764e-07
4.0832e-08
1.81746e-07
3.06553e-08
1.7495e-07
2.07258e-08
1.68278e-07
1.61494e-07
4.89725e-08
1.98391e-07
3.81268e-08
1.9132e-07
2.75014e-08
1.8437e-07
1.7731e-07
6.32843e-08
2.1735e-07
5.08933e-08
2.10037e-07
3.86991e-08
2.0284e-07
1.95534e-07
7.0871e-08
2.36076e-07
5.85974e-08
2.28597e-07
4.64607e-08
2.21229e-07
2.13748e-07
7.86115e-08
2.54552e-07
6.64695e-08
2.46985e-07
5.4405e-08
2.3952e-07
2.31938e-07
8.64309e-08
2.72763e-07
7.44347e-08
2.65186e-07
6.24576e-08
2.57699e-07
2.50086e-07
9.42551e-08
2.90696e-07
8.24185e-08
2.83185e-07
7.05431e-08
2.7575e-07
2.68177e-07
1.02011e-07
3.08339e-07
9.03465e-08
3.00971e-07
7.85857e-08
2.93661e-07
2.86199e-07
1.09627e-07
3.25684e-07
9.81442e-08
3.18533e-07
8.65089e-08
3.1142e-07
3.0414e-07
1.17032e-07
3.42726e-07
1.05738e-07
3.35865e-07
9.42356e-08
3.2902e-07
3.21991e-07
1.24155e-07
3.59462e-07
1.13053e-07
3.52962e-07
1.01689e-07
3.46454e-07
3.39746e-07
1.30928e-07
3.75897e-07
1.20017e-07
3.69825e-07
1.08793e-07
3.63722e-07
3.57403e-07
1.37284e-07
3.92035e-07
1.2656e-07
3.86457e-07
1.15472e-07
3.80823e-07
3.74959e-07
1.43156e-07
4.07888e-07
1.32611e-07
4.02863e-07
1.21654e-07
3.97759e-07
3.92415e-07
1.48483e-07
4.23467e-07
1.38105e-07
4.19052e-07
1.27272e-07
4.14536e-07
4.09772e-07
1.53204e-07
4.38788e-07
1.4298e-07
4.35033e-07
1.3226e-07
4.31158e-07
4.2703e-07
1.57262e-07
4.53865e-07
1.47178e-07
4.50818e-07
1.36561e-07
4.4763e-07
4.44191e-07
1.60606e-07
4.68716e-07
1.50647e-07
4.66414e-07
1.40124e-07
4.63957e-07
4.6125e-07
1.63188e-07
4.83354e-07
1.53342e-07
4.81832e-07
1.42905e-07
4.8014e-07
4.78205e-07
1.64968e-07
4.9779e-07
1.55225e-07
4.97076e-07
1.44868e-07
4.96178e-07
4.95045e-07
1.65912e-07
5.12036e-07
1.56265e-07
5.12149e-07
1.45987e-07
5.12067e-07
5.1176e-07
1.65994e-07
5.26098e-07
1.56439e-07
5.27051e-07
1.46241e-07
5.27799e-07
5.28335e-07
1.65197e-07
5.3998e-07
1.55733e-07
5.41779e-07
1.4562e-07
5.43365e-07
5.44751e-07
1.6351e-07
5.53682e-07
1.5414e-07
5.56327e-07
1.44121e-07
5.58751e-07
5.60987e-07
1.60933e-07
5.67202e-07
1.51663e-07
5.70687e-07
1.41748e-07
5.73942e-07
5.77022e-07
1.57472e-07
5.80537e-07
1.4831e-07
5.84846e-07
1.38512e-07
5.88921e-07
5.9283e-07
1.53143e-07
5.9368e-07
1.44098e-07
5.98795e-07
1.34432e-07
6.03669e-07
6.08389e-07
1.47966e-07
6.06624e-07
1.3905e-07
6.1252e-07
1.2953e-07
6.1817e-07
6.23675e-07
1.4197e-07
6.19359e-07
1.33194e-07
6.26007e-07
1.23835e-07
6.32405e-07
6.38664e-07
1.35188e-07
6.31877e-07
1.26563e-07
6.39243e-07
1.1738e-07
6.46356e-07
6.53336e-07
1.27656e-07
6.44167e-07
1.19193e-07
6.52216e-07
1.10201e-07
6.60007e-07
6.67669e-07
1.19416e-07
6.56219e-07
1.11127e-07
6.64911e-07
1.02338e-07
6.73343e-07
6.81647e-07
1.10511e-07
6.68024e-07
1.02406e-07
6.77317e-07
9.3832e-08
6.86348e-07
6.95252e-07
1.00986e-07
6.7957e-07
9.30753e-08
6.89422e-07
8.47279e-08
6.99009e-07
7.0847e-07
9.08889e-08
6.90847e-07
8.31811e-08
7.01214e-07
7.50702e-08
7.11314e-07
7.21287e-07
8.02662e-08
7.01844e-07
7.277e-08
7.12682e-07
6.49047e-08
7.23252e-07
7.33692e-07
6.91654e-08
7.12551e-07
6.18891e-08
7.23817e-07
5.42772e-08
7.34812e-07
7.45675e-07
5.76338e-08
7.22959e-07
5.05848e-08
7.34608e-07
4.32336e-08
7.45986e-07
7.57227e-07
4.57174e-08
7.33055e-07
3.89028e-08
7.45045e-07
3.18187e-08
7.56764e-07
7.68341e-07
3.34613e-08
7.4283e-07
2.68878e-08
7.55121e-07
2.00765e-08
7.6714e-07
7.79011e-07
2.09088e-08
7.52274e-07
1.45828e-08
7.64825e-07
8.04939e-09
7.77105e-07
7.89231e-07
8.10127e-09
7.61376e-07
2.02881e-09
7.7415e-07
-4.22221e-09
7.86654e-07
7.98997e-07
-4.92216e-09
7.70126e-07
-1.07353e-08
7.83088e-07
-1.66999e-08
7.95781e-07
8.08306e-07
-1.8125e-08
7.78512e-07
-2.36733e-08
7.9163e-07
-2.93478e-08
8.0448e-07
8.17154e-07
-3.14733e-08
7.86526e-07
-3.67515e-08
7.9977e-07
-4.21327e-08
8.12746e-07
8.2554e-07
-4.49364e-08
7.94157e-07
-4.99394e-08
8.07499e-07
-5.50244e-08
8.20576e-07
8.33463e-07
-5.84866e-08
8.01395e-07
-6.32094e-08
8.14812e-07
-6.79957e-08
8.27965e-07
8.40921e-07
-7.20992e-08
8.0823e-07
-7.65373e-08
8.21701e-07
-8.10225e-08
8.3491e-07
8.47914e-07
-8.57531e-08
8.14653e-07
-8.9902e-08
8.2816e-07
-9.40839e-08
8.41407e-07
8.54441e-07
-9.943e-08
8.20655e-07
-1.03286e-07
8.34183e-07
-1.07162e-07
8.47453e-07
8.60503e-07
-1.13115e-07
8.26228e-07
-1.16674e-07
8.39765e-07
-1.20244e-07
8.53046e-07
8.66099e-07
-1.26798e-07
8.31363e-07
-1.30055e-07
8.449e-07
-1.33317e-07
8.58183e-07
8.71231e-07
-1.40468e-07
8.36052e-07
-1.43421e-07
8.49583e-07
-1.46373e-07
8.62861e-07
8.75898e-07
-1.54122e-07
8.40289e-07
-1.56768e-07
8.53811e-07
-1.59408e-07
8.67079e-07
8.80102e-07
-1.67757e-07
8.44067e-07
-1.70092e-07
8.57577e-07
-1.7242e-07
8.70835e-07
8.83842e-07
-1.81372e-07
8.47382e-07
-1.83394e-07
8.60881e-07
-1.85408e-07
8.74127e-07
8.87119e-07
-1.9497e-07
8.50227e-07
-1.96676e-07
8.63717e-07
-1.98375e-07
8.76953e-07
8.89931e-07
-2.08554e-07
8.52602e-07
-2.09942e-07
8.66083e-07
-2.11323e-07
8.79311e-07
8.9228e-07
-2.22129e-07
8.54502e-07
-2.23196e-07
8.67975e-07
-2.24259e-07
8.81197e-07
8.94163e-07
-2.35699e-07
8.55936e-07
-2.36445e-07
8.69396e-07
-2.37188e-07
8.82616e-07
8.9559e-07
-2.49254e-07
8.56901e-07
-2.49693e-07
8.70331e-07
-2.50132e-07
8.83551e-07
8.96556e-07
-2.62765e-07
-2.62946e-07
-2.63126e-07
)
;

boundaryField
{
    plateFix
    {
        type            calculated;
        value           nonuniform List<scalar> 4(-7.37094e-09 4.71515e-14 -1.07958e-14 -6.4815e-09);
    }
    plate
    {
        type            calculated;
        value           nonuniform List<scalar> 
168
(
-1.75368e-09
-1.4894e-09
-3.04925e-09
-2.6133e-09
-4.25904e-09
-3.63287e-09
-5.35696e-09
-4.50997e-09
-6.37143e-09
-5.25227e-09
-7.34549e-09
-5.87713e-09
-8.31741e-09
-6.39369e-09
-9.32647e-09
-6.80654e-09
-1.04118e-08
-7.11325e-09
-1.16147e-08
-7.30489e-09
-1.29801e-08
-7.36498e-09
-1.45576e-08
-7.26862e-09
-1.64037e-08
-6.98113e-09
-1.85824e-08
-6.4565e-09
-2.11679e-08
-5.63568e-09
-2.42463e-08
-4.44465e-09
-2.79176e-08
-2.7925e-09
-3.22985e-08
-5.69292e-10
-3.75246e-08
2.3561e-09
-4.37523e-08
6.13817e-09
-5.11612e-08
1.09568e-08
-5.99537e-08
1.70185e-08
-7.57955e-08
2.66333e-08
-8.32266e-08
3.44153e-08
-9.07963e-08
4.2396e-08
-9.84306e-08
5.05006e-08
-1.06056e-07
5.86529e-08
-1.13602e-07
6.67755e-08
-1.20998e-07
7.47898e-08
-1.28178e-07
8.26159e-08
-1.35074e-07
9.01737e-08
-1.41622e-07
9.73837e-08
-1.47759e-07
1.04168e-07
-1.53423e-07
1.10451e-07
-1.58555e-07
1.16162e-07
-1.63098e-07
1.21236e-07
-1.66995e-07
1.25615e-07
-1.70194e-07
1.29249e-07
-1.72647e-07
1.32096e-07
-1.74312e-07
1.34124e-07
-1.75152e-07
1.35309e-07
-1.75136e-07
1.35634e-07
-1.74245e-07
1.35094e-07
-1.72464e-07
1.33687e-07
-1.6979e-07
1.31421e-07
-1.66228e-07
1.28308e-07
-1.61789e-07
1.24368e-07
-1.56496e-07
1.19625e-07
-1.50374e-07
1.14105e-07
-1.43455e-07
1.07842e-07
-1.35778e-07
1.00872e-07
-1.27383e-07
9.3231e-08
-1.18314e-07
8.49614e-08
-1.08616e-07
7.6105e-08
-9.8337e-08
6.67055e-08
-8.75239e-08
5.68074e-08
-7.62249e-08
4.64554e-08
-6.44871e-08
3.5694e-08
-5.23571e-08
2.45673e-08
-3.98801e-08
1.31182e-08
-2.70995e-08
1.38844e-09
-1.40569e-08
-1.05823e-08
-7.91509e-10
-2.27562e-08
1.266e-08
-3.5098e-08
2.62636e-08
-4.75749e-08
3.99885e-08
-6.01571e-08
5.38067e-08
-7.28178e-08
6.76935e-08
-8.55331e-08
8.16274e-08
-9.82825e-08
9.55901e-08
-1.11049e-07
1.09567e-07
-1.23817e-07
1.23545e-07
-1.36577e-07
1.37517e-07
-1.49321e-07
1.51476e-07
-1.62043e-07
1.65419e-07
-1.74741e-07
1.79347e-07
-1.87416e-07
1.9326e-07
-2.00068e-07
2.07163e-07
-2.12702e-07
2.21057e-07
-2.25322e-07
2.34948e-07
-2.37935e-07
2.48813e-07
-2.50573e-07
2.62557e-07
8.57447e-07
8.70858e-07
8.84077e-07
8.97105e-07
-2.63336e-07
)
;
    }
    frontAndBackPlanes
    {
        type            empty;
    }
}


// ************************************************************************* //
