/*--------------------------------*- C++ -*----------------------------------*\
| =========                 |                                                 |
| \\      /  F ield         | OpenFOAM Extend Project: Open source CFD        |
|  \\    /   O peration     | Version:  1.6-ext                               |
|   \\  /    A nd           | Web:      www.extend-project.de                 |
|    \\/     M anipulation  |                                                 |
\*---------------------------------------------------------------------------*/
FoamFile
{
    version     2.0;
    format      ascii;
    class       volSymmTensorField;
    location    "0.35";
    object      sigma;
}
// * * * * * * * * * * * * * * * * * * * * * * * * * * * * * * * * * * * * * //

dimensions      [1 -1 -2 0 0 0 0];

internalField   nonuniform List<symmTensor> 
328
(
(1.10401 0.182411 -5.20227e-22 0.555685 8.04619e-20 0.662592)
(0.926217 0.213932 -4.00882e-24 0.570069 5.09058e-23 0.597521)
(0.950608 0.128036 4.11378e-23 0.58842 -5.40913e-23 0.614616)
(0.907457 -0.0103805 -1.2424e-22 0.48414 -1.3517e-19 0.555353)
(1.03369 0.148358 2.39362e-21 0.470194 -1.57302e-19 0.60024)
(0.924514 0.208643 2.09889e-22 0.496888 -3.66808e-24 0.567493)
(0.952033 0.13672 -4.9801e-24 0.515704 1.30291e-22 0.586026)
(0.906359 0.0150415 1.29159e-21 0.426387 -1.91224e-20 0.531781)
(0.986542 0.120424 -2.88673e-21 0.416868 -3.17516e-20 0.559996)
(0.945567 0.201788 -2.71557e-22 0.457345 1.11901e-22 0.560008)
(0.979903 0.145707 8.89673e-22 0.474221 7.87714e-23 0.58049)
(0.935044 0.0364762 -4.41241e-21 0.397265 1.25965e-19 0.531548)
(0.936185 0.100074 5.77068e-22 0.378786 8.76082e-21 0.524561)
(0.946775 0.193372 2.29513e-22 0.421312 -1.40881e-22 0.545966)
(0.990813 0.154185 -1.25532e-21 0.434291 -6.00325e-22 0.56877)
(0.962119 0.0515186 3.99565e-21 0.37901 4.96182e-20 0.535015)
(0.890768 0.0863097 7.67808e-22 0.354307 7.59106e-20 0.496556)
(0.947865 0.185218 1.5821e-22 0.39878 1.31612e-22 0.537291)
(1.00468 0.160871 5.22847e-22 0.406672 -7.42156e-22 0.56317)
(0.998396 0.060816 1.54272e-21 0.372001 -1.09228e-19 0.546672)
(0.845628 0.0772829 8.97929e-22 0.337643 -5.96947e-20 0.471802)
(0.942093 0.177951 -3.27849e-22 0.382582 -1.14023e-22 0.528423)
(1.01424 0.165414 -1.24172e-21 0.384413 8.42848e-22 0.558009)
(1.03856 0.0659662 -1.47569e-21 0.370903 1.68541e-20 0.562264)
(0.801015 0.0716465 -3.00511e-21 0.326312 8.78258e-20 0.449404)
(0.933869 0.171953 1.55418e-22 0.373187 2.2101e-23 0.521317)
(1.02391 0.167704 1.94029e-22 0.368394 -4.81315e-22 0.555413)
(1.08358 0.0681271 1.33641e-21 0.374069 2.62655e-20 0.581515)
(0.75558 0.0682846 3.79561e-21 0.318061 -1.60785e-20 0.427918)
(0.922671 0.167138 -2.08422e-21 0.368241 -1.02789e-22 0.514822)
(1.03291 0.167998 -1.86423e-22 0.356397 -4.76135e-22 0.554174)
(1.13215 0.0682707 -2.32009e-21 0.379678 -5.44406e-20 0.603173)
(0.708783 0.0664119 -5.33985e-21 0.311616 6.88383e-20 0.406616)
(0.909838 0.163292 3.91892e-21 0.366954 2.69157e-22 0.509152)
(1.04249 0.16663 8.98381e-22 0.347791 6.51405e-22 0.554541)
(1.18402 0.0670607 -1.21189e-21 0.386859 9.15687e-20 0.626786)
(0.660016 0.065444 1.75178e-21 0.306095 -9.33069e-20 0.3849)
(0.895704 0.160092 1.0873e-21 0.368217 -4.98648e-22 0.503994)
(1.05283 0.16399 1.77765e-22 0.341517 -7.67822e-22 0.556155)
(1.23871 0.0649934 4.03798e-21 0.394979 -7.58664e-20 0.651905)
(0.608922 0.0649738 1.08014e-21 0.300983 5.82536e-20 0.362418)
(0.880812 0.157223 -5.51873e-21 0.371356 3.24168e-22 0.499291)
(1.06437 0.160414 2.21043e-21 0.336934 6.13447e-22 0.558935)
(1.296 0.0623965 -2.20005e-21 0.403708 1.24815e-20 0.678309)
(0.555263 0.0647254 4.04964e-22 0.295975 -7.85772e-20 0.338954)
(0.865434 0.15441 6.68878e-21 0.37579 9.90435e-22 0.494917)
(1.07726 0.156179 -6.00804e-22 0.333458 9.8404e-23 0.562707)
(1.35572 0.0594884 -3.92363e-21 0.412863 3.72493e-20 0.705857)
(0.498958 0.0645253 7.2106e-22 0.290924 5.76521e-20 0.314414)
(0.849803 0.151437 -1.72853e-21 0.381144 -8.62689e-22 0.490813)
(1.09165 0.151468 -4.87289e-21 0.3307 6.65275e-23 0.567364)
(1.4178 0.0563857 2.04013e-21 0.422374 1.60097e-20 0.734495)
(0.440045 0.0642821 -1.77967e-21 0.285781 6.26857e-21 0.288796)
(0.834055 0.148156 -2.02684e-21 0.387164 6.24653e-22 0.486929)
(1.10756 0.146391 -3.13308e-22 0.328388 2.39506e-22 0.572809)
(1.48226 0.0531354 3.62017e-21 0.432242 -4.59319e-20 0.764224)
(0.378688 0.0639633 1.00046e-21 0.280569 -1.81089e-20 0.262173)
(0.8183 0.144476 -5.48402e-21 0.393715 -1.52386e-21 0.483255)
(1.12499 0.140984 1.99652e-21 0.326375 5.25137e-22 0.578981)
(1.54911 0.0497234 3.56622e-21 0.442512 1.16384e-20 0.795072)
(0.315155 0.0635828 -6.76827e-22 0.275348 -4.09058e-21 0.234677)
(0.802638 0.140348 2.65649e-21 0.400738 -4.98141e-22 0.479807)
(1.1439 0.135234 -6.53516e-21 0.324595 3.54385e-22 0.585841)
(1.61839 0.0460967 8.03418e-22 0.453248 -2.11482e-20 0.827082)
(0.249835 0.0631835 -1.43529e-21 0.2702 -3.14959e-20 0.206495)
(0.787202 0.135756 -5.14021e-21 0.408221 -9.60728e-22 0.476634)
(1.16429 0.129092 1.91158e-21 0.323043 -1.76648e-23 0.593383)
(1.69015 0.042172 -3.42887e-21 0.464511 2.64021e-20 0.860291)
(0.18322 0.0628295 1.32787e-20 0.265197 2.09223e-20 0.177854)
(0.772168 0.130699 3.79416e-21 0.416158 1.75762e-21 0.473803)
(1.18616 0.12249 1.18661e-21 0.321732 -5.28296e-22 0.601614)
(1.76437 0.0378498 5.16834e-22 0.476334 -6.78372e-20 0.894709)
(0.115991 0.0625985 -4.00928e-21 0.260402 1.96725e-20 0.149051)
(0.757821 0.125187 -2.06324e-20 0.42453 -1.22873e-21 0.471421)
(1.20959 0.115351 4.09723e-21 0.32068 -1.2206e-21 0.61057)
(1.84103 0.0330172 -5.06173e-21 0.488711 5.56036e-20 0.930327)
(0.0488696 0.0625644 -2.35758e-20 0.255752 -2.19929e-20 0.12035)
(0.744483 0.119224 1.54584e-20 0.433205 1.39861e-21 0.469564)
(1.23465 0.107591 1.76845e-20 0.319812 8.05664e-22 0.620253)
(1.92002 0.0275671 6.64172e-21 0.501508 -1.75329e-21 0.967043)
(-0.0168979 0.0628414 3.52524e-20 0.251256 1.09315e-20 0.0922523)
(0.732777 0.112834 -5.19257e-21 0.44204 -7.31996e-22 0.468425)
(1.2616 0.0991343 -7.51533e-21 0.319053 -8.3059e-22 0.63074)
(2.00128 0.0213568 7.25409e-21 0.514577 1.9021e-20 1.00478)
(-0.0806544 0.0633751 1.4987e-20 0.246221 -1.533e-20 0.0647442)
(0.723088 0.105937 -7.82062e-21 0.450408 -4.79338e-22 0.467906)
(1.29057 0.0898764 -1.80698e-20 0.317931 4.71603e-22 0.641888)
(2.08456 0.0143487 1.71532e-20 0.527258 9.77319e-21 1.04316)
(-0.141731 0.0643059 -1.72005e-21 0.240971 1.35504e-20 0.0382234)
(0.716535 0.0979489 3.10015e-20 0.458498 2.3575e-21 0.468532)
(1.32332 0.0790102 2.54909e-20 0.31619 2.59842e-22 0.6543)
(2.17261 0.00576556 1.24445e-20 0.539663 -2.24846e-20 1.08335)
(-0.196485 0.0661446 -4.69282e-20 0.233648 -2.07522e-20 0.0134037)
(0.714067 0.0904707 -1.17693e-20 0.464114 -4.1794e-21 0.469804)
(1.3589 0.0682381 -1.03512e-20 0.312378 1.98121e-21 0.667015)
(2.26182 -0.00338509 -8.33691e-20 0.549408 4.37059e-20 1.12294)
(-0.240066 0.0681793 -1.28102e-21 0.224164 2.52108e-20 -0.00781142)
(0.716863 0.0829988 -7.14041e-21 0.466178 -3.15216e-21 0.471759)
(1.39559 0.0573503 2.84236e-20 0.306141 3.98018e-21 0.679207)
(2.3469 -0.0128098 7.59105e-20 0.555461 -5.86626e-20 1.1594)
(-0.272642 0.070235 -7.976e-22 0.211179 -2.00066e-20 -0.0260242)
(0.724715 0.075414 5.35248e-20 0.463447 2.46015e-21 0.47382)
(1.43321 0.0463211 -8.65115e-21 0.296175 -6.90931e-21 0.69028)
(2.42737 -0.0224191 -2.09814e-20 0.556241 2.63689e-20 1.1919)
(-0.293984 0.0720177 2.35524e-20 0.194125 -2.67187e-20 -0.0413709)
(0.737751 0.0676252 -5.89348e-20 0.455237 -2.7577e-21 0.475762)
(1.47186 0.0352246 2.15493e-21 0.281771 3.32388e-21 0.699986)
(2.50329 -0.0319118 -5.20486e-20 0.551094 -4.26651e-20 1.22021)
(-0.304434 0.0733186 -4.09475e-20 0.172047 3.35015e-20 -0.05437)
(0.755678 0.0595759 -2.61614e-20 0.440658 3.73763e-21 0.477113)
(1.51119 0.0241342 1.0062e-20 0.262031 6.07973e-22 0.707832)
(2.57412 -0.0410688 4.34638e-20 0.538996 5.23111e-20 1.24371)
(-0.30425 0.07386 7.02819e-20 0.144506 -1.40645e-21 -0.0653002)
(0.778222 0.0512077 -3.15552e-21 0.419219 -4.70209e-21 0.477567)
(1.5509 0.0131561 -9.99779e-21 0.236459 1.33321e-22 0.713495)
(2.63945 -0.049592 5.62812e-20 0.519445 -3.65419e-20 1.26203)
(-0.294041 0.0734271 -3.91511e-20 0.111148 4.59494e-21 -0.0745474)
(0.804845 0.0424922 6.02424e-21 0.390578 -4.27541e-21 0.476771)
(1.59042 0.00239868 -1.09961e-19 0.204697 7.11418e-21 0.716607)
(2.69856 -0.0572311 2.00337e-20 0.492024 -1.24221e-21 1.2747)
(-0.274488 0.0718173 3.33214e-20 0.0720424 4.41753e-21 -0.0823557)
(0.834927 0.0334219 -8.38886e-20 0.354775 8.87582e-21 0.474494)
(1.62913 -0.00801342 1.06665e-19 0.166768 -1.09528e-20 0.716926)
(2.75074 -0.0637305 -1.43254e-21 0.456747 3.13825e-20 1.28147)
(-0.246491 0.0688963 -7.10876e-20 0.0275389 -6.18909e-21 -0.0889457)
(0.867682 0.0240247 5.11906e-20 0.312152 -1.25e-20 0.470557)
(1.66626 -0.0179532 -1.60615e-19 0.122986 -1.18265e-21 0.714275)
(2.79517 -0.0688848 -7.269e-21 0.413921 1.31599e-20 1.28212)
(-0.211049 0.0645862 -8.6554e-20 -0.021635 2.18454e-20 -0.0944258)
(0.902246 0.0143603 1.42887e-19 0.263422 8.33266e-21 0.4649)
(1.70102 -0.0272905 3.27706e-20 0.0740317 -1.22086e-20 0.708602)
(2.83106 -0.0725288 6.59113e-20 0.364255 -2.97615e-21 1.27661)
(-0.169283 0.0588874 7.88583e-20 -0.0744604 -2.82659e-20 -0.0988376)
(0.937674 0.0045237 1.19845e-20 0.209602 -4.4383e-21 0.457552)
(1.73256 -0.0359019 7.98654e-21 0.0208839 1.8991e-20 0.699964)
(2.85768 -0.0745625 -1.85307e-20 0.30878 -1.30709e-20 1.26507)
(-0.122375 0.0518732 -1.05944e-19 -0.129652 2.40538e-20 -0.102139)
(0.973 -0.00536076 6.16095e-20 0.151984 -9.63296e-21 0.448645)
(1.76005 -0.0436747 4.34367e-20 -0.0352073 1.19007e-21 0.688533)
(2.8744 -0.0749503 -4.04709e-20 0.248831 -2.1134e-21 1.24778)
(-0.0715441 0.0436904 1.09337e-19 -0.185762 1.37215e-20 -0.10424)
(1.00727 -0.0151443 2.39427e-20 0.0920463 -7.89797e-21 0.438387)
(1.78276 -0.0505156 -2.76128e-20 -0.0928134 1.05028e-20 0.674578)
(2.88074 -0.0737288 -4.84039e-20 0.185947 -1.64042e-20 1.22517)
(-0.0180017 0.0345475 -2.89242e-20 -0.241269 -3.05428e-21 -0.105015)
(1.03959 -0.0246636 -6.31661e-20 0.03136 1.65606e-20 0.427048)
(1.80002 -0.0563547 2.32163e-20 -0.150416 8.32395e-21 0.658446)
(2.87644 -0.0710008 -7.15438e-20 0.121785 -2.33941e-21 1.1978)
(0.0370777 0.0247012 -3.88892e-20 -0.294691 -1.95041e-20 -0.104341)
(1.06914 -0.0337508 1.39257e-19 -0.028517 2.21092e-20 0.414927)
(1.81131 -0.0611506 -4.26982e-20 -0.206513 -2.92333e-21 0.640533)
(2.86145 -0.0669296 8.82125e-20 0.0579992 8.86492e-21 1.16629)
(0.0925913 0.0144367 7.31493e-20 -0.344684 -2.04239e-20 -0.102123)
(1.09525 -0.042245 1.9695e-20 -0.0861372 1.99555e-20 0.402329)
(1.81629 -0.064892 -1.55692e-19 -0.259718 2.28136e-20 0.62125)
(2.83594 -0.0617247 2.00713e-20 -0.0038551 -9.46707e-21 1.13136)
(0.147532 0.00404798 1.16523e-19 -0.390127 2.45579e-20 -0.0983136)
(1.11736 -0.0500031 -1.63961e-20 -0.140249 4.06281e-21 0.389538)
(1.81477 -0.0675974 1.06742e-19 -0.308844 -1.34006e-20 0.601001)
(2.80032 -0.055627 -1.73497e-19 -0.0624201 -1.46111e-20 1.0937)
(0.201009 -0.00618232 -2.14898e-20 -0.430171 -2.60875e-23 -0.0929307)
(1.13509 -0.0569084 1.16267e-19 -0.189857 -2.94116e-20 0.376795)
(1.80675 -0.0693124 1.40874e-20 -0.352961 9.85666e-21 0.580157)
(2.75517 -0.0488909 -9.06804e-20 -0.116599 8.72856e-21 1.05398)
(0.25226 -0.0160001 -9.51654e-20 -0.464274 9.10384e-21 -0.0860615)
(1.14819 -0.0628765 1.10775e-19 -0.234251 1.18448e-20 0.364289)
(1.79239 -0.0701055 -4.23162e-20 -0.39143 -2.19492e-20 0.559034)
(2.70126 -0.0417676 1.85168e-19 -0.165592 -1.99926e-20 1.01283)
(0.300656 -0.0251928 5.95173e-21 -0.492189 -1.62246e-20 -0.0778587)
(1.15658 -0.067859 -1.76921e-19 -0.273015 2.1864e-21 0.352148)
(1.77198 -0.0700627 1.6563e-19 -0.423907 -3.24037e-21 0.537891)
(2.63948 -0.0344911 -1.4538e-19 -0.208907 1.06768e-20 0.970813)
(0.345704 -0.033597 2.0085e-19 -0.513942 1.28527e-21 -0.0685303)
(1.16028 -0.0718426 -2.56963e-19 -0.306001 1.82853e-20 0.340444)
(1.74594 -0.0692816 1.94138e-19 -0.450319 -5.20937e-21 0.516924)
(2.57082 -0.0272663 -8.67568e-21 -0.246337 1.97183e-21 0.928396)
(0.387038 -0.0411016 2.3759e-19 -0.529786 1.98926e-20 -0.0583235)
(1.15943 -0.0748472 1.8291e-20 -0.333299 -3.66706e-20 0.329198)
(1.71477 -0.0678658 -1.24254e-19 -0.470826 2.60646e-20 0.49627)
(2.4963 -0.0202628 -7.52871e-20 -0.277924 -2.00513e-21 0.885975)
(0.424408 -0.0476461 -2.27627e-20 -0.540146 -2.75931e-20 -0.0475085)
(1.15426 -0.0769207 4.79613e-20 -0.355183 3.64738e-20 0.318387)
(1.67904 -0.0659201 -2.63752e-19 -0.485776 -2.51984e-20 0.476011)
(2.41697 -0.0136114 1.0158e-19 -0.30391 3.28592e-21 0.843867)
(0.457667 -0.0532152 1.93063e-19 -0.545565 7.81447e-22 -0.036361)
(1.14504 -0.078133 1.62e-19 -0.372061 1.07059e-20 0.307961)
(1.63932 -0.0635458 1.72955e-19 -0.495645 5.56375e-20 0.456192)
(2.33382 -0.00740468 2.11825e-19 -0.324685 -1.09072e-20 0.80232)
(0.486758 -0.0578314 -6.07233e-21 -0.546654 6.70568e-21 -0.0251481)
(1.13209 -0.0785698 -2.22152e-19 -0.384431 -2.37556e-20 0.297849)
(1.59619 -0.0608383 -2.87105e-20 -0.500993 -2.33266e-20 0.43682)
(2.24782 -0.00169998 -6.72411e-20 -0.340732 4.48568e-21 0.761522)
(0.511695 -0.0615465 4.30527e-20 -0.544044 -2.47603e-20 -0.014117)
(1.11576 -0.0783262 -1.89101e-19 -0.392831 2.71305e-20 0.287969)
(1.55023 -0.0578844 -3.20464e-20 -0.502417 1.54731e-20 0.417883)
(2.15983 0.00347548 1.62705e-20 -0.352586 -4.0576e-21 0.721609)
(0.532551 -0.064433 4.91539e-21 -0.538356 2.25201e-20 -0.00348659)
(1.09637 -0.0775008 1.41014e-19 -0.397805 -1.09591e-20 0.278239)
(1.50196 -0.0547612 -1.78898e-21 -0.500516 -5.32369e-20 0.399353)
(2.07065 0.00811895 -2.3373e-19 -0.360795 2.66808e-20 0.682676)
(0.549442 -0.0665757 -8.46825e-20 -0.530171 1.16025e-20 0.00655649)
(1.07427 -0.0761915 1.19346e-19 -0.399883 -2.50614e-20 0.268581)
(1.45186 -0.0515359 -2.54444e-19 -0.495861 -1.22413e-21 0.381194)
(1.98097 0.0122463 1.48864e-19 -0.365893 -1.52827e-20 0.644786)
(0.562516 -0.0680656 -1.35419e-19 -0.520019 5.4779e-22 0.0158601)
(1.04976 -0.0744915 5.1824e-20 -0.399553 -3.33188e-21 0.258924)
(1.40037 -0.0482652 1.65262e-19 -0.488979 -1.91772e-20 0.363366)
(1.89136 0.0158863 1.59945e-21 -0.368376 1.7419e-20 0.607974)
(0.571945 -0.0689939 1.51743e-19 -0.508367 -3.04451e-20 0.0243057)
(1.02313 -0.0724866 -4.55734e-20 -0.397258 4.459e-20 0.249207)
(1.34785 -0.0449962 1.13394e-19 -0.480345 -6.44562e-21 0.345833)
(1.80234 0.0190763 -1.50855e-19 -0.368699 2.19953e-21 0.572255)
(0.577913 -0.0694485 1.96836e-19 -0.495616 -9.95687e-21 0.0318063)
(0.994661 -0.0702541 -2.09668e-19 -0.393387 -3.94673e-20 0.239381)
(1.29465 -0.0417671 5.98951e-21 -0.47037 3.30743e-20 0.328557)
(1.71428 0.0218579 -3.40985e-19 -0.367261 1.99642e-20 0.53763)
(0.580614 -0.0695111 -7.47982e-20 -0.482107 5.64856e-21 0.0383034)
(0.964578 -0.0678613 1.61417e-19 -0.388277 5.17594e-20 0.229407)
(1.24102 -0.0386077 1.50291e-19 -0.459408 -5.2779e-20 0.311508)
(1.62751 0.0242745 2.1104e-19 -0.364409 2.61662e-20 0.504084)
(0.58024 -0.0692557 3.76786e-20 -0.468117 2.28323e-21 0.0437628)
(0.933098 -0.0653662 2.76879e-20 -0.382209 -2.55098e-20 0.219256)
(1.18719 -0.0355406 -2.92175e-19 -0.447753 -2.26287e-20 0.294657)
(1.54227 0.0263688 2.04439e-20 -0.360439 -3.47477e-20 0.471597)
(0.576985 -0.0687479 -1.29443e-19 -0.453875 -6.55029e-21 0.0481711)
(0.900407 -0.0628169 1.97332e-19 -0.37542 4.42813e-20 0.20891)
(1.13336 -0.0325819 2.08552e-19 -0.435649 1.36712e-20 0.277982)
(1.45874 0.0281816 -3.11946e-19 -0.355596 -9.60988e-21 0.440139)
(0.571036 -0.0680446 2.20123e-19 -0.439557 1.23591e-20 0.0515312)
(0.86667 -0.0602528 7.65587e-20 -0.368103 2.72775e-20 0.198356)
(1.07966 -0.0297424 -1.29977e-19 -0.42329 7.45352e-21 0.261463)
(1.37703 0.0297512 -1.30828e-19 -0.350085 -2.12271e-21 0.409678)
(0.562571 -0.0671948 -4.21473e-19 -0.425304 -6.78412e-21 0.0538595)
(0.832028 -0.0577054 2.90089e-19 -0.360413 -1.79072e-20 0.187589)
(1.02621 -0.0270281 -1.48228e-19 -0.410833 1.44059e-20 0.245084)
(1.29722 0.0311125 3.63797e-19 -0.344072 -2.21443e-20 0.380178)
(0.551762 -0.0662399 9.65795e-20 -0.411221 4.62445e-21 0.0551818)
(0.796603 -0.0551989 -1.3901e-19 -0.352475 -1.44866e-20 0.176608)
(0.973112 -0.0244411 2.6719e-19 -0.398395 -9.75848e-21 0.228833)
(1.21935 0.0322973 -2.74713e-19 -0.337691 4.99247e-20 0.351599)
(0.538768 -0.0652143 5.84448e-20 -0.397385 2.19308e-20 0.0555311)
(0.760499 -0.0527516 -2.38438e-19 -0.344384 -4.82766e-20 0.165417)
(0.920415 -0.0219803 3.59717e-19 -0.38607 3.77316e-20 0.2127)
(1.14342 0.0333344 -5.43812e-19 -0.331047 2.61571e-21 0.323904)
(0.523736 -0.064147 -1.03207e-19 -0.383851 -1.13796e-20 0.0549452)
(0.723806 -0.0503764 1.49401e-19 -0.336214 1.80514e-20 0.154021)
(0.868172 -0.0196422 -5.86018e-21 -0.373922 -4.34128e-20 0.196677)
(1.06943 0.0342495 1.16896e-19 -0.324222 2.58365e-20 0.297053)
(0.506804 -0.0630614 -1.76036e-19 -0.370653 -4.36396e-21 0.053464)
(0.686598 -0.0480818 1.00787e-20 -0.32802 -6.52465e-21 0.142429)
(0.816413 -0.0174208 -1.26188e-19 -0.361998 3.62488e-20 0.180757)
(0.997331 0.0350656 7.01086e-20 -0.317278 -8.16171e-21 0.271007)
(0.488095 -0.0619772 -1.68352e-20 -0.357812 5.45687e-21 0.0511291)
(0.648936 -0.0458729 3.78286e-20 -0.319841 -6.64699e-20 0.130649)
(0.765157 -0.015309 9.56341e-20 -0.350329 3.08643e-20 0.164937)
(0.927088 0.0358038 4.6698e-20 -0.310263 -1.4738e-20 0.245732)
(0.46772 -0.06091 1.00071e-19 -0.345337 2.11344e-20 0.0479815)
(0.610873 -0.0437516 -1.12327e-19 -0.311704 -5.99435e-20 0.118692)
(0.714412 -0.0132978 2.0841e-19 -0.338932 8.15342e-20 0.149211)
(0.858643 0.0364828 -2.44386e-19 -0.303208 -5.69011e-21 0.221191)
(0.445778 -0.059873 -1.77695e-19 -0.333226 2.43525e-20 0.0440611)
(0.572449 -0.0417176 -1.22201e-19 -0.303623 8.06301e-20 0.106567)
(0.664177 -0.0113776 -1.81637e-19 -0.327812 -8.6301e-20 0.133579)
(0.791938 0.0371199 -1.15354e-19 -0.296134 -8.28754e-21 0.197353)
(0.422355 -0.0588769 -9.34291e-20 -0.321471 -4.86188e-20 0.039406)
(0.533695 -0.0397688 1.94374e-20 -0.295604 5.17094e-20 0.0942854)
(0.614445 -0.00953779 8.19864e-20 -0.316968 -8.16465e-20 0.118037)
(0.726909 0.0377314 1.88268e-19 -0.289052 -6.74631e-21 0.174188)
(0.397523 -0.0579309 1.82998e-19 -0.310055 -3.03336e-22 0.0340517)
(0.494635 -0.0379013 -8.07367e-20 -0.287647 2.95096e-20 0.0818569)
(0.565204 -0.0077669 -1.46617e-19 -0.306388 1.55722e-20 0.102585)
(0.663494 0.0383323 1.98152e-19 -0.281966 -3.1201e-20 0.15167)
(0.371345 -0.0570428 -2.45522e-19 -0.298958 -4.68955e-22 0.0280312)
(0.455284 -0.0361106 2.05883e-19 -0.279739 3.89082e-20 0.0692916)
(0.516437 -0.00605289 2.92564e-19 -0.296056 -9.71163e-21 0.0872246)
(0.60163 0.0389375 -1.70414e-19 -0.274868 -1.45769e-20 0.129777)
(0.343867 -0.0562204 1.11128e-19 -0.288152 2.23468e-20 0.0213742)
(0.415649 -0.0343913 5.81309e-20 -0.271867 -7.01856e-20 0.056599)
(0.468124 -0.00438293 -1.15399e-19 -0.285947 1.0369e-19 0.0719551)
(0.541258 0.0395619 -1.99115e-20 -0.267747 -3.721e-20 0.108489)
(0.315127 -0.0554716 5.70434e-20 -0.277605 -1.9224e-20 0.0141083)
(0.375732 -0.0327387 1.5846e-19 -0.264003 -1.12638e-19 0.0437891)
(0.42024 -0.00274317 -1.55197e-19 -0.276032 1.37706e-19 0.0567798)
(0.482321 0.0402209 -1.15777e-19 -0.26058 1.43216e-20 0.0877934)
(0.285148 -0.0548061 -3.32659e-19 -0.267278 -3.84524e-21 0.00625839)
(0.335519 -0.0311493 -9.92038e-20 -0.256116 1.36276e-19 0.0308701)
(0.372754 -0.001118 2.85634e-19 -0.266272 2.78186e-20 0.0417008)
(0.424768 0.0409319 -2.97297e-19 -0.25334 -2.4403e-20 0.06768)
(0.253949 -0.0542387 -1.56936e-19 -0.257123 -4.06146e-20 -0.00214833)
(0.294991 -0.029625 3.85618e-19 -0.248157 2.8925e-20 0.0178531)
(0.325628 0.000512633 3.05382e-20 -0.256615 2.25237e-20 0.0267247)
(0.368555 0.0417172 -3.96296e-19 -0.245983 1.52988e-20 0.0481491)
(0.221541 -0.0537933 4.06704e-19 -0.247076 2.87708e-20 -0.0110822)
(0.25409 -0.0281776 -1.33818e-19 -0.240065 1.41634e-19 0.00474045)
(0.278795 0.00217751 1.89758e-19 -0.246995 5.81971e-21 0.01185)
(0.313649 0.0426075 5.3365e-19 -0.238452 -3.3364e-20 0.0292096)
(0.187974 -0.0535202 -1.93784e-20 -0.237041 -5.2018e-20 -0.0204853)
(0.21275 -0.0268467 -3.61232e-19 -0.231723 9.85124e-22 -0.00844884)
(0.232178 0.00393039 1.08952e-19 -0.237295 8.01886e-21 -0.00290663)
(0.260063 0.0436586 -3.46936e-19 -0.230655 5.58161e-20 0.0109043)
(0.15331 -0.0535069 -2.41809e-19 -0.226869 -1.21021e-20 -0.0302726)
(0.170704 -0.0257158 1.54513e-19 -0.222998 4.71472e-21 -0.0217677)
(0.185504 0.00586611 1.02532e-19 -0.227377 -2.15419e-19 -0.0175999)
(0.207838 0.0449627 1.5309e-19 -0.222443 7.81463e-21 -0.00669161)
(0.117929 -0.0539681 1.5223e-19 -0.216259 8.96296e-20 -0.0401725)
(0.127756 -0.0249858 -1.58444e-19 -0.213513 3.59488e-20 -0.0351445)
(0.138571 0.00819156 -3.4302e-19 -0.216864 -3.00426e-20 -0.0321593)
(0.157334 0.046736 -1.04309e-19 -0.213518 6.30447e-20 -0.0233142)
(0.0821371 -0.0551898 -1.67712e-19 -0.204714 -5.61868e-20 -0.0498636)
(0.0824822 -0.0249296 2.93531e-19 -0.20316 -4.88062e-20 -0.0491048)
(0.0899488 0.0111817 3.64152e-19 -0.205647 1.66411e-19 -0.0471129)
(0.108857 0.0492653 -1.80283e-19 -0.203378 -3.70104e-20 -0.0386411)
(0.0481761 -0.0577931 1.5302e-19 -0.191136 -3.3903e-21 -0.0580093)
(0.0350728 -0.0259695 3.34395e-19 -0.190978 -9.06939e-20 -0.0631886)
(0.0398075 0.0152491 1.60938e-20 -0.192766 8.67471e-21 -0.0620098)
(0.0646245 0.0531639 2.60547e-19 -0.190916 -3.15643e-20 -0.0513419)
(0.0150624 -0.0608767 -1.77586e-20 -0.175369 5.74257e-20 -0.0649419)
(-0.0211879 -0.0273142 1.66666e-20 -0.181354 5.28265e-21 -0.0818374)
(-0.0185835 0.0195815 2.3719e-19 -0.182606 8.81956e-20 -0.0812963)
(0.0237276 0.0575254 -2.71946e-19 -0.175924 6.70576e-20 -0.0616975)
(-0.00811562 -0.0612482 1.59724e-19 -0.161968 1.72662e-20 -0.0688467)
(-0.0716962 -0.0266087 -4.56992e-19 -0.180673 7.24782e-20 -0.101763)
(-0.0707427 0.0217566 1.33285e-19 -0.181624 -1.15084e-19 -0.101762)
(-0.00492223 0.0590341 -6.66114e-19 -0.162942 1.75444e-20 -0.0679589)
(-0.0588634 -0.0423184 -9.4872e-21 -0.195601 -6.09982e-20 -0.102596)
(-0.140987 -0.0178458 3.54486e-20 -0.254526 2.03554e-20 -0.15902)
(-0.140822 0.0157891 -1.36809e-19 -0.255563 9.73071e-20 -0.159369)
(-0.0578843 0.0409649 3.27177e-19 -0.196808 -2.60969e-20 -0.102688)
)
;

boundaryField
{
    plateFix
    {
        type            calculated;
        value           nonuniform List<symmTensor> 4((1.127 0.212095 -1.28506e-21 0.571398 8.01761e-20 0.677924) (0.898084 0.213521 -4.01858e-24 0.551284 5.08983e-23 0.578718) (0.922159 0.124373 4.11518e-23 0.569433 -5.40793e-23 0.595607) (0.891903 -0.0352659 -1.31259e-21 0.474136 -1.34625e-19 0.544981));
    }
    plate
    {
        type            calculated;
        value           nonuniform List<symmTensor> 
168
(
(0.952932 8.88541e-06 -2.45054e-22 0.338845 -8.44785e-22 0.515256)
(0.817017 1.71029e-05 -3.34207e-22 0.362374 -5.85312e-20 0.470299)
(0.942431 -7.21193e-05 1.78561e-21 0.339091 -1.99179e-21 0.511141)
(0.8583 0.000107813 1.54259e-21 0.362624 3.416e-20 0.486897)
(0.932832 3.33602e-06 -3.24172e-21 0.339684 -1.9055e-21 0.507514)
(0.909077 4.58501e-05 -4.75587e-21 0.363223 2.03507e-21 0.507421)
(0.909496 0.000246702 5.72331e-22 0.340477 -2.71473e-20 0.498486)
(0.950426 -0.000189654 3.94405e-21 0.364029 6.29098e-26 0.524269)
(0.881626 0.000656947 7.32149e-22 0.34137 2.72329e-20 0.487685)
(0.992883 -0.000597841 1.54684e-21 0.36494 3.09906e-26 0.541604)
(0.848589 0.00121734 8.89296e-22 0.342303 1.58907e-24 0.474838)
(1.03495 -0.0011598 -1.48297e-21 0.365893 -2.566e-20 0.558803)
(0.812352 0.00190354 -3.00368e-21 0.343245 -2.38495e-20 0.460715)
(1.07878 -0.00184937 1.33655e-21 0.366859 2.54334e-20 0.576713)
(0.773141 0.00269139 3.79631e-21 0.344195 2.2027e-20 0.445407)
(1.12439 -0.0026414 -2.31908e-21 0.367836 4.39832e-24 0.595344)
(0.731316 0.00356163 -5.34272e-21 0.34517 2.03462e-20 0.429064)
(1.17219 -0.00351618 -1.21333e-21 0.368841 4.46207e-24 0.614859)
(0.68691 0.00450291 1.74851e-21 0.3462 -2.25706e-21 0.411712)
(1.22217 -0.00446217 4.03484e-21 0.369907 -4.44601e-24 0.635273)
(0.639954 0.00551368 1.08428e-21 0.347331 -1.69184e-20 0.393381)
(1.27439 -0.00547786 -2.19307e-21 0.371079 -4.10471e-24 0.656626)
(0.590462 0.00660352 3.98834e-22 0.348617 9.12517e-26 0.374099)
(1.32886 -0.0065729 -3.92353e-21 0.372413 2.05353e-20 0.678944)
(0.538496 0.00779378 7.19223e-22 0.350118 3.44616e-21 0.353914)
(1.38561 -0.00776888 2.03798e-21 0.37397 3.75628e-21 0.702264)
(0.484173 0.00911795 -1.78454e-21 0.351899 1.55709e-20 0.332899)
(1.44469 -0.00909956 3.61984e-21 0.375816 -1.32646e-20 0.726631)
(0.427687 0.0106216 1.00592e-21 0.354023 -1.10936e-20 0.311157)
(1.50613 -0.010611 3.56729e-21 0.378019 -2.955e-21 0.752091)
(0.369304 0.0123623 -6.75587e-22 0.356549 2.44724e-24 0.288818)
(1.56999 -0.0123611 8.05355e-22 0.380639 2.63235e-21 0.778683)
(0.309387 0.0144087 -1.43126e-21 0.359524 -1.53855e-23 0.266047)
(1.63629 -0.0144196 -3.42973e-21 0.383727 -4.36049e-24 0.806437)
(0.248395 0.016839 1.3278e-20 0.362968 3.86655e-21 0.243033)
(1.70501 -0.016866 5.2375e-22 0.387308 -1.26072e-20 0.835357)
(0.186956 0.0197438 -4.01339e-21 0.366867 1.3824e-20 0.220023)
(1.77612 -0.0197932 -5.06512e-21 0.391375 1.46176e-20 0.865433)
(0.125746 0.0232032 -2.3573e-20 0.371093 -1.50096e-20 0.197237)
(1.84953 -0.0232852 6.64605e-21 0.395808 5.52936e-24 0.896572)
(0.0659384 0.0273447 3.52508e-20 0.375543 -5.08427e-24 0.175101)
(1.92522 -0.0274764 7.24599e-21 0.400516 1.00553e-23 0.928733)
(0.00814008 0.0321177 1.49889e-20 0.379452 -4.70837e-21 0.153554)
(2.00285 -0.0323252 1.71514e-20 0.40474 9.90557e-21 0.961478)
(-0.0469485 0.0381378 -1.72227e-21 0.38319 7.82992e-21 0.133024)
(2.08539 -0.0384608 1.24417e-20 0.408869 -8.39475e-21 0.996148)
(-0.0961286 0.0449917 -4.6916e-20 0.384232 7.70377e-21 0.113779)
(2.16912 -0.0454731 -8.33767e-20 0.410408 8.5372e-21 1.03026)
(-0.134713 0.0520087 -1.30831e-21 0.382245 -1.56495e-20 0.0975619)
(2.2492 -0.0527046 7.59205e-20 0.408959 -8.48377e-21 1.06172)
(-0.163059 0.0590313 -7.84355e-22 0.375605 7.8313e-21 0.0835789)
(2.3251 -0.0600009 -2.09957e-20 0.402891 8.21468e-21 1.08966)
(-0.180902 0.0656656 2.35717e-20 0.363796 1.96334e-23 0.0717298)
(2.39696 -0.0669751 -5.20244e-20 0.391654 -1.45731e-21 1.11391)
(-0.188628 0.0716514 -4.09683e-20 0.345799 4.78412e-22 0.0614526)
(2.46421 -0.0733676 4.34306e-20 0.374188 -1.55077e-20 1.13383)
(-0.186469 0.0766344 7.02847e-20 0.321213 6.29187e-21 0.0524942)
(2.52647 -0.0788216 5.6289e-20 0.350041 7.47727e-21 1.14908)
(-0.175028 0.0803475 -3.91627e-20 0.289693 -6.31204e-21 0.0444753)
(2.58305 -0.0830631 2.00415e-20 0.31881 7.61194e-21 1.15922)
(-0.154954 0.0825327 3.33211e-20 0.251359 4.06992e-21 0.0371846)
(2.63325 -0.0858231 -1.47278e-21 0.280558 -6.23187e-21 1.164)
(-0.127111 0.0830171 -7.10915e-20 0.206611 -4.6761e-21 0.0304355)
(2.67628 -0.0869132 -7.27385e-21 0.235625 1.22322e-22 1.16325)
(-0.0924518 0.0816911 -8.65635e-20 0.156249 -1.307e-21 0.0241668)
(2.71139 -0.086206 6.58991e-20 0.184761 -5.05707e-23 1.15695)
(-0.0520481 0.0785375 7.88753e-20 0.101368 2.29972e-22 0.0183881)
(2.73784 -0.0836638 -1.85157e-20 0.129025 3.37159e-21 1.14524)
(-0.00702239 0.0736211 -1.05959e-19 0.0433391 8.55841e-22 0.013199)
(2.75503 -0.0793308 -4.04664e-20 0.0697715 -3.41208e-21 1.12842)
(0.0414647 0.0670914 1.09332e-19 -0.0162987 3.58523e-22 0.00875033)
(2.76249 -0.0733364 -4.83779e-20 0.00854026 3.85733e-23 1.10691)
(0.092262 0.0591679 -2.89183e-20 -0.0759339 -1.505e-21 0.00522634)
(2.75994 -0.0658824 -7.15434e-20 -0.05303 -3.60585e-21 1.08127)
(0.144253 0.050126 -3.88735e-20 -0.133997 2.79625e-21 0.00280819)
(2.74729 -0.0572302 8.8206e-20 -0.113322 -1.58132e-21 1.05211)
(0.196391 0.0402758 7.31782e-20 -0.189062 -2.34049e-21 0.00164777)
(2.7247 -0.0476805 2.00876e-20 -0.170843 3.50686e-21 1.02007)
(0.247719 0.0299417 1.16494e-19 -0.239929 -1.30859e-22 0.00184244)
(2.69249 -0.0375529 -1.73462e-19 -0.224315 6.64237e-22 0.985807)
(0.297393 0.0194406 -2.14916e-20 -0.285682 -8.62808e-22 0.00342112)
(2.65119 -0.027165 -9.06918e-20 -0.272737 -3.34189e-21 0.949934)
(0.344692 0.00906435 -9.51812e-20 -0.325713 2.21993e-22 0.00633868)
(2.60151 -0.0168137 1.85182e-19 -0.315419 -3.20534e-21 0.913003)
(0.389027 -0.000934474 5.97617e-21 -0.359719 -2.46185e-21 0.0104804)
(2.54425 -0.00676039 -1.45405e-19 -0.351983 -7.80006e-21 0.875491)
(0.429939 -0.0103519 2.0083e-19 -0.387675 -2.63498e-22 0.0156732)
(2.48032 0.00277932 -8.68225e-21 -0.382339 -4.02266e-21 0.837796)
(0.467092 -0.0190364 2.37554e-19 -0.409785 -4.70816e-21 0.0217015)
(2.41068 0.011641 -7.52651e-20 -0.406642 4.12891e-21 0.800236)
(0.500267 -0.0268889 -2.27328e-20 -0.42643 9.03862e-21 0.0283247)
(2.33628 0.0197119 1.01574e-19 -0.425241 3.02203e-21 0.763058)
(0.529346 -0.0338579 1.93049e-19 -0.438114 -1.25557e-20 0.0352944)
(2.25807 0.0269281 2.11843e-19 -0.438619 8.96287e-21 0.726447)
(0.554295 -0.0399334 -6.0678e-21 -0.445407 9.38735e-21 0.0423687)
(2.17696 0.0332679 -6.7262e-20 -0.447344 -1.20048e-20 0.690533)
(0.575153 -0.0451387 4.3106e-20 -0.448908 -1.16057e-22 0.0493237)
(2.09376 0.0387453 1.62665e-20 -0.452019 -7.23333e-21 0.655409)
(0.592012 -0.0495215 4.87098e-21 -0.449205 -8.19789e-21 0.0559612)
(2.00924 0.0434006 -2.33751e-19 -0.453248 5.03156e-22 0.621131)
(0.605008 -0.0531467 -8.46948e-20 -0.446853 3.29863e-21 0.0621131)
(1.92405 0.0472933 1.48887e-19 -0.451607 -6.99863e-21 0.587734)
(0.614305 -0.0560886 -1.35402e-19 -0.442358 2.12859e-22 0.0676428)
(1.83876 0.0504944 1.56834e-21 -0.447627 -4.74489e-21 0.555232)
(0.620086 -0.058426 1.51778e-19 -0.436167 -4.84424e-21 0.0724446)
(1.75384 0.0530806 -1.50852e-19 -0.44178 -1.30315e-21 0.523626)
(0.622548 -0.0602371 1.96846e-19 -0.428669 8.81297e-21 0.0764418)
(1.66969 0.0551298 -3.40996e-19 -0.43448 6.59216e-21 0.492908)
(0.621889 -0.0615971 -7.48123e-20 -0.420189 2.93803e-23 0.079583)
(1.58662 0.0567171 2.10987e-19 -0.426079 -4.71014e-21 0.46306)
(0.618309 -0.0625759 3.76591e-20 -0.411002 -4.57326e-21 0.0818388)
(1.50487 0.0579133 2.05001e-20 -0.416872 -7.26042e-23 0.434062)
(0.612002 -0.0632369 -1.29432e-19 -0.401329 -2.9433e-21 0.0831983)
(1.42461 0.0587831 -3.11921e-19 -0.407102 9.10753e-21 0.405887)
(0.603157 -0.0636371 2.20103e-19 -0.391349 -3.71996e-22 0.083665)