/*--------------------------------*- C++ -*----------------------------------*\
| =========                 |                                                 |
| \\      /  F ield         | OpenFOAM Extend Project: Open source CFD        |
|  \\    /   O peration     | Version:  1.6-ext                               |
|   \\  /    A nd           | Web:      www.extend-project.de                 |
|    \\/     M anipulation  |                                                 |
\*---------------------------------------------------------------------------*/
FoamFile
{
    version     2.0;
    format      ascii;
    class       volScalarField;
    location    "0.35";
    object      sigmaEq;
}
// * * * * * * * * * * * * * * * * * * * * * * * * * * * * * * * * * * * * * //

dimensions      [1 -1 -2 0 0 0 0];

internalField   nonuniform List<scalar> 
328
(
0.594379
0.505093
0.414196
0.392996
0.572003
0.536891
0.46981
0.43769
0.554062
0.56651
0.52627
0.488892
0.529843
0.581659
0.569456
0.530423
0.504047
0.589527
0.605107
0.569705
0.4752
0.589679
0.632112
0.606366
0.444367
0.58477
0.65304
0.642791
0.411601
0.575687
0.669074
0.679689
0.377183
0.563684
0.681924
0.717821
0.341216
0.549496
0.692846
0.757493
0.303887
0.533754
0.702957
0.798903
0.265521
0.516856
0.713065
0.842132
0.22679
0.49907
0.723739
0.887211
0.189044
0.480553
0.735321
0.934145
0.155063
0.461402
0.747987
0.982916
0.13033
0.44169
0.761797
1.0335
0.123094
0.421508
0.776758
1.08586
0.137955
0.400987
0.792873
1.13995
0.170085
0.380354
0.810202
1.19577
0.211813
0.359919
0.828892
1.25332
0.257679
0.340217
0.849266
1.3127
0.304155
0.321803
0.87185
1.37424
0.34983
0.304757
0.898243
1.44028
0.38976
0.292646
0.929414
1.5097
0.419019
0.286603
0.964111
1.57879
0.436329
0.287612
1.00324
1.64842
0.440818
0.296911
1.04748
1.71918
0.431905
0.315801
1.09727
1.79143
0.409408
0.345264
1.15274
1.86519
0.373623
0.385689
1.21364
1.94015
0.32541
0.436746
1.27939
2.01565
0.266423
0.497432
1.34899
2.09068
0.199756
0.566215
1.42112
2.16396
0.132956
0.641174
1.49415
2.23396
0.0931782
0.720138
1.56626
2.29903
0.126913
0.80081
1.63555
2.35748
0.203894
0.880894
1.7001
2.4077
0.291516
0.958209
1.75816
2.44827
0.38027
1.0308
1.80822
2.47807
0.466246
1.09704
1.84908
2.4963
0.547152
1.15564
1.87995
2.50257
0.621475
1.20574
1.90041
2.49687
0.688242
1.24686
1.91042
2.47958
0.746909
1.27886
1.91028
2.45137
0.797285
1.30193
1.90059
2.41315
0.839458
1.31649
1.88213
2.36604
0.873733
1.32313
1.85581
2.31124
0.900562
1.32257
1.82264
2.24996
0.920493
1.31556
1.78362
2.18343
0.934123
1.30288
1.73974
2.11278
0.942061
1.28529
1.69191
2.03906
0.944901
1.26349
1.64095
1.9632
0.943208
1.23813
1.58762
1.88601
0.9375
1.20978
1.53254
1.80818
0.928249
1.17895
1.47626
1.73027
0.915877
1.14608
1.41923
1.65274
0.900756
1.11154
1.36182
1.57596
0.883213
1.07563
1.30432
1.5002
0.863532
1.03863
1.24697
1.42568
0.841958
1.00075
1.18995
1.35254
0.818704
0.962154
1.1334
1.28088
0.793949
0.922999
1.0774
1.21075
0.767849
0.883391
1.02204
1.14219
0.740533
0.843421
0.967336
1.0752
0.71211
0.803155
0.913326
1.00976
0.68267
0.762641
0.86001
0.94584
0.652287
0.721914
0.80738
0.883406
0.621017
0.680992
0.755417
0.822409
0.588904
0.639881
0.704092
0.7628
0.555977
0.598574
0.653369
0.704528
0.522256
0.557052
0.603203
0.647543
0.487749
0.515279
0.553536
0.591797
0.452461
0.473203
0.504298
0.537249
0.416396
0.430731
0.455382
0.483868
0.379589
0.387725
0.406633
0.431666
0.342101
0.343881
0.357725
0.380686
0.304269
0.298799
0.308222
0.331246
0.266423
0.251365
0.256949
0.283678
0.230552
0.201409
0.203653
0.239988
0.196335
0.147837
0.14731
0.200076
0.171082
0.107831
0.106007
0.171575
0.141429
0.11011
0.110133
0.141836
)
;

boundaryField
{
    plateFix
    {
        type            calculated;
        value           nonuniform List<scalar> 4(0.62913 0.49828 0.402833 0.392024);
    }
    plate
    {
        type            calculated;
        value           nonuniform List<scalar> 
168
(
0.547624
0.411437
0.538345
0.446699
0.529569
0.489937
0.508763
0.524952
0.483982
0.560882
0.454748
0.596477
0.422806
0.633621
0.388388
0.672334
0.351838
0.712943
0.313233
0.755426
0.272699
0.799788
0.230448
0.845991
0.186997
0.894012
0.143597
0.943835
0.103731
0.995446
0.0779261
1.04883
0.0847815
1.10397
0.120916
1.16083
0.169356
1.21942
0.222218
1.27974
0.276075
1.34187
0.328813
1.40617
0.379947
1.47494
0.424322
1.54704
0.457423
1.61854
0.478109
1.69033
0.48564
1.76295
0.479483
1.83677
0.459506
1.91178
0.426036
1.98768
0.379965
2.06379
0.32294
2.13914
0.257816
2.21245
0.190252
2.28221
0.134859
2.34681
0.126574
2.40457
0.178125
2.45392
0.256146
2.49346
0.34103
2.52208
0.425493
2.53903
0.506085
2.54391
0.580808
2.53675
0.648449
2.51793
0.708322
2.48812
0.760145
2.44828
0.80394
2.39952
0.839958
2.34305
0.86861
2.28011
0.890409
2.21193
0.905922
2.13966
0.915734
2.06436
0.920421
1.98696
0.92053
1.90829
0.916568
1.82902
0.909
1.74975
0.898239
1.67092
0.884656
1.5929
0.868576
1.51598
0.850283
1.44036
0.830023
1.36619
0.808012
1.29357
0.784433
1.22256
0.759444
1.15318
0.73318
1.08543
0.705756
1.01931
0.677265
0.954777
0.647789
0.891796
0.617389
0.830324
0.586117
0.770312
0.554012
0.711716
0.521103
0.654492
0.487411
0.5986
0.452959
0.544014
0.41777
0.490723
0.38191
0.438768
0.345469
0.388223
0.308811
0.339444
0.272232
0.292738
0.237675
0.250054
0.205049
0.211387
0.186148
0.188485
0.173107
0.11343
0.105092
0.105834
0.114664
0.174159
)
;
    }
    frontAndBackPlanes
    {
        type            empty;
    }
}


// ************************************************************************* //
