/*--------------------------------*- C++ -*----------------------------------*\
| =========                 |                                                 |
| \\      /  F ield         | OpenFOAM Extend Project: Open source CFD        |
|  \\    /   O peration     | Version:  1.6-ext                               |
|   \\  /    A nd           | Web:      www.extend-project.de                 |
|    \\/     M anipulation  |                                                 |
\*---------------------------------------------------------------------------*/
FoamFile
{
    version     2.0;
    format      ascii;
    class       volVectorField;
    location    "0.35";
    object      Usolid;
}
// * * * * * * * * * * * * * * * * * * * * * * * * * * * * * * * * * * * * * //

dimensions      [0 1 0 0 0 0 0];

internalField   nonuniform List<vector> 
328
(
(2.2488e-08 4.13949e-08 0)
(1.59226e-08 2.20026e-08 0)
(1.63011e-08 1.20408e-08 0)
(1.74666e-08 -6.42993e-09 0)
(6.75635e-08 1.14162e-07 0)
(5.08795e-08 6.76514e-08 0)
(5.20632e-08 3.85137e-08 0)
(5.48768e-08 -8.51348e-09 0)
(1.16169e-07 1.79104e-07 0)
(9.31923e-08 1.16024e-07 0)
(9.56919e-08 6.87459e-08 0)
(9.92545e-08 9.49599e-10 0)
(1.66723e-07 2.37719e-07 0)
(1.40718e-07 1.66125e-07 0)
(1.45375e-07 1.03234e-07 0)
(1.49678e-07 2.05226e-08 0)
(2.19105e-07 2.91873e-07 0)
(1.93703e-07 2.17333e-07 0)
(2.01813e-07 1.41902e-07 0)
(2.07167e-07 4.79837e-08 0)
(2.7269e-07 3.42794e-07 0)
(2.51363e-07 2.69052e-07 0)
(2.64646e-07 1.84302e-07 0)
(2.72203e-07 8.13694e-08 0)
(3.27098e-07 3.9115e-07 0)
(3.13464e-07 3.20685e-07 0)
(3.34151e-07 2.29546e-07 0)
(3.45745e-07 1.18747e-07 0)
(3.81839e-07 4.36945e-07 0)
(3.79613e-07 3.7142e-07 0)
(4.10476e-07 2.7636e-07 0)
(4.288e-07 1.58205e-07 0)
(4.36407e-07 4.79541e-07 0)
(4.4958e-07 4.20108e-07 0)
(4.94009e-07 3.23026e-07 0)
(5.22571e-07 1.97633e-07 0)
(4.90192e-07 5.17583e-07 0)
(5.23154e-07 4.65083e-07 0)
(5.85218e-07 3.67331e-07 0)
(6.28399e-07 2.34595e-07 0)
(5.42491e-07 5.48908e-07 0)
(6.00194e-07 5.03999e-07 0)
(6.84733e-07 4.06442e-07 0)
(7.47784e-07 2.66131e-07 0)
(5.92466e-07 5.70402e-07 0)
(6.80599e-07 5.33632e-07 0)
(7.93312e-07 4.36752e-07 0)
(8.82402e-07 2.88567e-07 0)
(6.39151e-07 5.77815e-07 0)
(7.64301e-07 5.49668e-07 0)
(9.11855e-07 4.53665e-07 0)
(1.03411e-06 2.97274e-07 0)
(6.81422e-07 5.65519e-07 0)
(8.51252e-07 5.46436e-07 0)
(1.0414e-06 4.51334e-07 0)
(1.20498e-06 2.86395e-07 0)
(7.1801e-07 5.2622e-07 0)
(9.41412e-07 5.16606e-07 0)
(1.1831e-06 4.22328e-07 0)
(1.39731e-06 2.48501e-07 0)
(7.47478e-07 4.50584e-07 0)
(1.03474e-06 4.50811e-07 0)
(1.33827e-06 3.57235e-07 0)
(1.61368e-06 1.74192e-07 0)
(7.68238e-07 3.26802e-07 0)
(1.13119e-06 3.37191e-07 0)
(1.50835e-06 2.44186e-07 0)
(1.85691e-06 5.16122e-08 0)
(7.78552e-07 1.40049e-07 0)
(1.23071e-06 1.60853e-07 0)
(1.69493e-06 6.82807e-08 0)
(2.13016e-06 -1.34128e-07 0)
(7.76559e-07 -1.28154e-07 0)
(1.33329e-06 -9.67868e-08 0)
(1.89976e-06 -1.89084e-07 0)
(2.43692e-06 -4.01629e-07 0)
(7.60332e-07 -5.00699e-07 0)
(1.43897e-06 -4.58775e-07 0)
(2.12484e-06 -5.51009e-07 0)
(2.78106e-06 -7.74014e-07 0)
(7.279e-07 -1.00579e-06 0)
(1.54788e-06 -9.53541e-07 0)
(2.37236e-06 -1.04603e-06 0)
(3.16685e-06 -1.27987e-06 0)
(6.77522e-07 -1.67793e-06 0)
(1.66045e-06 -1.61593e-06 0)
(2.64493e-06 -1.7092e-06 0)
(3.59906e-06 -1.95436e-06 0)
(6.04792e-07 -2.59295e-06 0)
(1.78177e-06 -2.52181e-06 0)
(2.95696e-06 -2.61667e-06 0)
(4.10145e-06 -2.87423e-06 0)
(5.10015e-07 -3.7911e-06 0)
(1.90854e-06 -3.7126e-06 0)
(3.3019e-06 -3.8104e-06 0)
(4.66414e-06 -4.0814e-06 0)
(4.02013e-07 -5.22075e-06 0)
(2.03443e-06 -5.13765e-06 0)
(3.65848e-06 -5.2399e-06 0)
(5.25121e-06 -5.52475e-06 0)
(2.84633e-07 -6.89334e-06 0)
(2.16176e-06 -6.80871e-06 0)
(4.0276e-06 -6.91727e-06 0)
(5.86216e-06 -7.21676e-06 0)
(1.6201e-07 -8.81905e-06 0)
(2.29315e-06 -8.73619e-06 0)
(4.4104e-06 -8.85315e-06 0)
(6.49681e-06 -9.1683e-06 0)
(3.83565e-08 -1.10066e-05 0)
(2.43126e-06 -1.0929e-05 0)
(4.80809e-06 -1.10567e-05 0)
(7.15495e-06 -1.13887e-05 0)
(-8.20182e-08 -1.34635e-05 0)
(2.57887e-06 -1.33948e-05 0)
(5.22198e-06 -1.35355e-05 0)
(7.83648e-06 -1.38857e-05 0)
(-1.94882e-07 -1.61957e-05 0)
(2.73871e-06 -1.61394e-05 0)
(5.65329e-06 -1.62957e-05 0)
(8.54116e-06 -1.66653e-05 0)
(-2.96147e-07 -1.9208e-05 0)
(2.91335e-06 -1.91676e-05 0)
(6.10314e-06 -1.93417e-05 0)
(9.26861e-06 -1.97318e-05 0)
(-3.82021e-07 -2.25037e-05 0)
(3.10512e-06 -2.24823e-05 0)
(6.57236e-06 -2.26762e-05 0)
(1.00182e-05 -2.30878e-05 0)
(-4.49095e-07 -2.60847e-05 0)
(3.31601e-06 -2.60852e-05 0)
(7.06148e-06 -2.63006e-05 0)
(1.07888e-05 -2.67341e-05 0)
(-4.94465e-07 -2.99517e-05 0)
(3.54752e-06 -2.99762e-05 0)
(7.57059e-06 -3.02144e-05 0)
(1.15792e-05 -3.06698e-05 0)
(-5.15807e-07 -3.41039e-05 0)
(3.80068e-06 -3.4154e-05 0)
(8.09931e-06 -3.44155e-05 0)
(1.23873e-05 -3.48925e-05 0)
(-5.11435e-07 -3.85389e-05 0)
(4.0759e-06 -3.86156e-05 0)
(8.64675e-06 -3.89005e-05 0)
(1.3211e-05 -3.93981e-05 0)
(-4.80336e-07 -4.32532e-05 0)
(4.37303e-06 -4.33568e-05 0)
(9.2115e-06 -4.36645e-05 0)
(1.40474e-05 -4.4181e-05 0)
(-4.2216e-07 -4.82418e-05 0)
(4.69133e-06 -4.83718e-05 0)
(9.79168e-06 -4.87012e-05 0)
(1.48935e-05 -4.92345e-05 0)
(-3.37187e-07 -5.34983e-05 0)
(5.02954e-06 -5.36538e-05 0)
(1.0385e-05 -5.40031e-05 0)
(1.57456e-05 -5.45508e-05 0)
(-2.26266e-07 -5.90154e-05 0)
(5.38593e-06 -5.91948e-05 0)
(1.09887e-05 -5.95619e-05 0)
(1.66003e-05 -6.0121e-05 0)
(-9.07278e-08 -6.47844e-05 0)
(5.75841e-06 -6.49858e-05 0)
(1.16e-05 -6.53682e-05 0)
(1.74538e-05 -6.59356e-05 0)
(6.77083e-08 -7.07959e-05 0)
(6.14462e-06 -7.1017e-05 0)
(1.22159e-05 -7.14119e-05 0)
(1.83023e-05 -7.19845e-05 0)
(2.47038e-07 -7.70396e-05 0)
(6.54206e-06 -7.7278e-05 0)
(1.28333e-05 -7.76826e-05 0)
(1.91422e-05 -7.82571e-05 0)
(4.45072e-07 -8.35047e-05 0)
(6.94815e-06 -8.37577e-05 0)
(1.34492e-05 -8.41693e-05 0)
(1.99701e-05 -8.47426e-05 0)
(6.59521e-07 -9.01798e-05 0)
(7.36033e-06 -9.0445e-05 0)
(1.40607e-05 -9.08608e-05 0)
(2.0783e-05 -9.143e-05 0)
(8.8808e-07 -9.70535e-05 0)
(7.77615e-06 -9.73284e-05 0)
(1.46654e-05 -9.77459e-05 0)
(2.1578e-05 -9.83084e-05 0)
(1.12848e-06 -0.000104114 0)
(8.19332e-06 -0.000104396 0)
(1.52608e-05 -0.000104813 0)
(2.23529e-05 -0.000105367 0)
(1.37856e-06 -0.00011135 0)
(8.60971e-06 -0.000111638 0)
(1.58448e-05 -0.000112052 0)
(2.31056e-05 -0.000112594 0)
(1.63625e-06 -0.00011875 0)
(9.02341e-06 -0.000119041 0)
(1.64158e-05 -0.000119451 0)
(2.38346e-05 -0.00011998 0)
(1.89965e-06 -0.000126303 0)
(9.43271e-06 -0.000126596 0)
(1.69721e-05 -0.000126999 0)
(2.45385e-05 -0.000127515 0)
(2.167e-06 -0.000133998 0)
(9.83615e-06 -0.000134291 0)
(1.75127e-05 -0.000134687 0)
(2.52166e-05 -0.000135187 0)
(2.43669e-06 -0.000141825 0)
(1.02324e-05 -0.000142116 0)
(1.80365e-05 -0.000142504 0)
(2.58681e-05 -0.000142988 0)
(2.70726e-06 -0.000149773 0)
(1.06204e-05 -0.000150062 0)
(1.85428e-05 -0.00015044 0)
(2.64927e-05 -0.000150908 0)
(2.9774e-06 -0.000157834 0)
(1.09992e-05 -0.00015812 0)
(1.9031e-05 -0.000158488 0)
(2.70903e-05 -0.000158939 0)
(3.24593e-06 -0.000165999 0)
(1.1368e-05 -0.00016628 0)
(1.95008e-05 -0.000166637 0)
(2.76609e-05 -0.000167071 0)
(3.51177e-06 -0.000174258 0)
(1.17262e-05 -0.000174534 0)
(1.9952e-05 -0.00017488 0)
(2.82047e-05 -0.000175297 0)
(3.77398e-06 -0.000182605 0)
(1.20732e-05 -0.000182875 0)
(2.03843e-05 -0.00018321 0)
(2.8722e-05 -0.000183609 0)
(4.03169e-06 -0.00019103 0)
(1.24085e-05 -0.000191295 0)
(2.07977e-05 -0.000191618 0)
(2.92133e-05 -0.000191999 0)
(4.28413e-06 -0.000199529 0)
(1.27319e-05 -0.000199786 0)
(2.11924e-05 -0.000200097 0)
(2.96789e-05 -0.000200462 0)
(4.53061e-06 -0.000208093 0)
(1.30429e-05 -0.000208343 0)
(2.15684e-05 -0.000208643 0)
(3.01194e-05 -0.000208991 0)
(4.77049e-06 -0.000216716 0)
(1.33414e-05 -0.00021696 0)
(2.19258e-05 -0.000217247 0)
(3.05353e-05 -0.000217578 0)
(5.00322e-06 -0.000225394 0)
(1.36271e-05 -0.000225629 0)
(2.22648e-05 -0.000225905 0)
(3.09272e-05 -0.00022622 0)
(5.22827e-06 -0.00023412 0)
(1.38998e-05 -0.000234348 0)
(2.25856e-05 -0.000234611 0)
(3.12956e-05 -0.00023491 0)
(5.44517e-06 -0.000242889 0)
(1.41596e-05 -0.000243109 0)
(2.28884e-05 -0.00024336 0)
(3.16411e-05 -0.000243644 0)
(5.65348e-06 -0.000251698 0)
(1.44061e-05 -0.000251909 0)
(2.31734e-05 -0.000252148 0)
(3.19642e-05 -0.000252417 0)
(5.8528e-06 -0.00026054 0)
(1.46394e-05 -0.000260742 0)
(2.34409e-05 -0.00026097 0)
(3.22655e-05 -0.000261224 0)
(6.04276e-06 -0.000269413 0)
(1.48593e-05 -0.000269606 0)
(2.3691e-05 -0.000269823 0)
(3.25455e-05 -0.000270061 0)
(6.22299e-06 -0.000278312 0)
(1.50658e-05 -0.000278497 0)
(2.3924e-05 -0.000278701 0)
(3.28046e-05 -0.000278926 0)
(6.39316e-06 -0.000287234 0)
(1.52588e-05 -0.00028741 0)
(2.41401e-05 -0.000287603 0)
(3.30434e-05 -0.000287813 0)
(6.55295e-06 -0.000296176 0)
(1.54382e-05 -0.000296343 0)
(2.43394e-05 -0.000296524 0)
(3.32624e-05 -0.00029672 0)
(6.70202e-06 -0.000305135 0)
(1.5604e-05 -0.000305292 0)
(2.45222e-05 -0.000305462 0)
(3.34619e-05 -0.000305645 0)
(6.84006e-06 -0.000314108 0)
(1.57561e-05 -0.000314256 0)
(2.46885e-05 -0.000314414 0)
(3.36424e-05 -0.000314583 0)
(6.96674e-06 -0.000323092 0)
(1.58943e-05 -0.00032323 0)
(2.48387e-05 -0.000323377 0)
(3.38042e-05 -0.000323533 0)
(7.08173e-06 -0.000332086 0)
(1.60186e-05 -0.000332214 0)
(2.49727e-05 -0.00033235 0)
(3.39478e-05 -0.000332492 0)
(7.18469e-06 -0.000341087 0)
(1.61288e-05 -0.000341205 0)
(2.50907e-05 -0.000341329 0)
(3.40735e-05 -0.000341458 0)
(7.27529e-06 -0.000350093 0)
(1.62248e-05 -0.000350202 0)
(2.51926e-05 -0.000350313 0)
(3.41817e-05 -0.00035043 0)
(7.35314e-06 -0.000359104 0)
(1.63061e-05 -0.000359202 0)
(2.52784e-05 -0.000359301 0)
(3.42726e-05 -0.000359405 0)
(7.41802e-06 -0.000368118 0)
(1.63722e-05 -0.000368205 0)
(2.53477e-05 -0.000368291 0)
(3.43466e-05 -0.000368381 0)
(7.46954e-06 -0.000377134 0)
(1.64219e-05 -0.000377209 0)
(2.53996e-05 -0.00037728 0)
(3.44041e-05 -0.000377358 0)
(7.50839e-06 -0.000386152 0)
(1.64544e-05 -0.000386215 0)
(2.54334e-05 -0.00038627 0)
(3.44465e-05 -0.000386334 0)
(7.53352e-06 -0.000395164 0)
(1.64662e-05 -0.000395218 0)
(2.54458e-05 -0.000395261 0)
(3.44732e-05 -0.000395315 0)
(7.553e-06 -0.000404147 0)
(1.64679e-05 -0.000404209 0)
(2.54476e-05 -0.000404261 0)
(3.4493e-05 -0.000404323 0)
)
;

boundaryField
{
    plateFix
    {
        type            fixedDisplacement;
        value           uniform (0 0 0);
    }
    plate
    {
        type            solidTraction;
        nonLinear       updatedLagrangian;
        traction        uniform (0 0 0);
        pressure        uniform 0;
        value           nonuniform List<vector> 
168
(
(2.12913e-07 8.8317e-08 -8.40354e-26)
(3.50709e-08 -3.72779e-08 -1.38893e-25)
(2.2782e-07 1.59921e-07 1.63035e-25)
(4.61766e-08 -4.34209e-08 -2.00286e-26)
(2.50287e-07 2.23883e-07 2.77902e-26)
(6.77668e-08 -3.90585e-08 1.26365e-25)
(2.80783e-07 2.80086e-07 -5.38615e-27)
(1.02049e-07 -2.35519e-08 4.31878e-26)
(3.18012e-07 3.31371e-07 -8.06331e-26)
(1.49525e-07 -2.57553e-10 -9.47263e-26)
(3.59535e-07 3.78894e-07 6.25353e-26)
(2.09415e-07 2.90264e-08 1.07186e-26)
(4.03518e-07 4.23528e-07 -9.26005e-26)
(2.81812e-07 6.2135e-08 2.58718e-26)
(4.48274e-07 4.65301e-07 1.91006e-26)
(3.67129e-07 9.71547e-08 -5.53425e-26)
(4.92351e-07 5.03609e-07 -7.14133e-26)
(4.66285e-07 1.31938e-07 9.25968e-26)
(5.34338e-07 5.37093e-07 9.42568e-26)
(5.80533e-07 1.64052e-07 -7.41783e-26)
(5.72819e-07 5.63587e-07 -5.52353e-26)
(7.11456e-07 1.9054e-07 1.12243e-26)
(6.06289e-07 5.79969e-07 7.78258e-26)
(8.60941e-07 2.07734e-07 3.53786e-26)
(6.33124e-07 5.81985e-07 -5.97987e-26)
(1.03118e-06 2.11013e-07 1.72242e-26)
(6.51535e-07 5.6401e-07 -4.79653e-27)
(1.22466e-06 1.94523e-07 -4.5736e-26)
(6.59554e-07 5.18759e-07 1.61493e-26)
(1.44424e-06 1.50842e-07 1.16463e-26)
(6.55003e-07 4.36915e-07 5.89652e-27)
(1.6931e-06 7.05735e-08 -1.78749e-26)
(6.35498e-07 3.06701e-07 3.07245e-26)
(1.97478e-06 -5.81327e-08 2.22757e-26)
(5.98441e-07 1.13334e-07 -1.89222e-26)
(2.29326e-06 -2.50162e-07 -6.61923e-26)
(5.41041e-07 -1.61598e-07 -1.92708e-26)
(2.6529e-06 -5.24114e-07 5.40532e-26)
(4.6038e-07 -5.40901e-07 1.84501e-26)
(3.05854e-06 -9.03122e-07 -4.56325e-30)
(3.5342e-07 -1.05264e-06 -1.0418e-26)
(3.51548e-06 -1.41578e-06 2.2455e-26)
(2.17336e-07 -1.73115e-06 1.4026e-26)
(4.02967e-06 -2.09735e-06 8.69765e-27)
(4.24949e-08 -2.65224e-06 -9.71455e-27)
(4.62969e-06 -3.02479e-06 -1.95844e-26)
(-1.68064e-07 -3.85546e-06 1.66646e-26)
(5.3034e-06 -4.24005e-06 3.85764e-26)
(-3.97987e-07 -5.28866e-06 -2.5268e-26)
(6.0079e-06 -5.69157e-06 -5.43586e-26)
(-6.42688e-07 -6.96307e-06 2.78228e-26)
(6.74209e-06 -7.39204e-06 2.43063e-26)
(-8.97161e-07 -8.88877e-06 2.62919e-26)
(7.50518e-06 -9.35241e-06 -3.97931e-26)
(-1.15638e-06 -1.10744e-05 -3.40543e-26)
(8.29631e-06 -1.15821e-05 5.69413e-26)
(-1.41519e-06 -1.35273e-05 -2.68908e-27)
(9.11473e-06 -1.4089e-05 -4.47747e-26)
(-1.66854e-06 -1.62536e-05 1.69261e-27)
(9.95949e-06 -1.68789e-05 2.10313e-27)
(-1.91155e-06 -1.9258e-05 4.25536e-27)
(1.08295e-05 -1.99562e-05 2.28226e-26)
(-2.13965e-06 -2.25442e-05 1.6048e-27)
(1.17233e-05 -2.33232e-05 -2.11945e-27)
(-2.34868e-06 -2.61141e-05 -7.27707e-27)
(1.2639e-05 -2.69807e-05 -3.21464e-27)
(-2.53503e-06 -2.99688e-05 1.12014e-26)
(1.35746e-05 -3.09275e-05 -2.68782e-26)
(-2.69572e-06 -3.41077e-05 -1.55138e-26)
(1.45272e-05 -3.51608e-05 4.2053e-26)
(-2.82842e-06 -3.85288e-05 1.88349e-26)
(1.54938e-05 -3.96764e-05 -2.00665e-26)
(-2.93155e-06 -4.3229e-05 3.6556e-27)
(1.64707e-05 -4.44683e-05 6.88765e-28)
(-3.00424e-06 -4.82035e-05 -2.97936e-26)
(1.74543e-05 -4.95297e-05 9.63897e-27)
(-3.04629e-06 -5.34465e-05 1.41878e-26)
(1.84402e-05 -5.48524e-05 -8.53985e-27)
(-3.05815e-06 -5.89507e-05 -2.82445e-27)
(1.94244e-05 -6.04275e-05 2.16615e-26)
(-3.04081e-06 -6.47078e-05 -7.74133e-27)
(2.04026e-05 -6.62453e-05 -1.29599e-26)
(-2.9957e-06 -7.07085e-05 2.90042e-26)
(2.13706e-05 -7.22957e-05 -4.5145e-27)
(-2.92462e-06 -7.69425e-05 -1.5476e-26)
(2.23245e-05 -7.85681e-05 -5.15741e-27)
(-2.82959e-06 -8.33992e-05 -5.48488e-27)
(2.32608e-05 -8.50519e-05 1.36551e-26)
(-2.71283e-06 -9.00672e-05 7.64516e-27)
(2.41762e-05 -9.17361e-05 -8.23754e-27)
(-2.57659e-06 -9.6935e-05 -1.38763e-26)
(2.50679e-05 -9.86099e-05 8.17596e-27)
(-2.42316e-06 -0.000103991 -2.42625e-26)
(2.59335e-05 -0.000105662 1.35852e-26)
(-2.25478e-06 -0.000111223 1.23473e-26)
(2.67712e-05 -0.000112883 -1.62719e-26)
(-2.0736e-06 -0.000118621 9.03121e-27)
(2.75794e-05 -0.000120262 -6.50151e-27)
(-1.88165e-06 -0.000126172 4.60698e-27)
(2.83572e-05 -0.000127788 -2.55932e-26)
(-1.68086e-06 -0.000133866 1.23386e-27)
(2.91037e-05 -0.000135452 -2.29207e-26)
(-1.473e-06 -0.000141692 -1.12524e-27)
(2.98186e-05 -0.000143243 1.73168e-26)
(-1.25973e-06 -0.000149641 -1.68149e-26)
(3.05018e-05 -0.000151154 9.37399e-27)
(-1.04256e-06 -0.000157703 -5.8425e-27)
(3.11533e-05 -0.000159175 -4.08161e-26)
(-8.22882e-07 -0.000165869 -8.47271e-27)
(3.17735e-05 -0.000167298 1.82571e-26)
(-6.01966e-07 -0.00017413 -5.40067e-28)
(3.23627e-05 -0.000175514 -9.49504e-27)
(-3.80977e-07 -0.000182478 7.7377e-27)
(3.29216e-05 -0.000183817 2.48109e-26)
(-1.60979e-07 -0.000190906 9.26989e-27)
(3.34508e-05 -0.000192198 -2.74209e-27)
(5.70562e-08 -0.000199407 6.49027e-27)
(3.39509e-05 -0.000200652 2.322e-26)
(2.7224e-07 -0.000207974 2.08747e-26)
(3.44227e-05 -0.000209171 -4.63043e-26)
(4.83757e-07 -0.000216601 5.70997e-27)
(3.48669e-05 -0.00021775 -1.72813e-26)
(6.90859e-07 -0.000225282 -2.06471e-26)
(3.52843e-05 -0.000226383 -9.7692e-27)
(8.92857e-07 -0.000234011 5.01222e-27)
(3.56756e-05 -0.000235065 2.388e-26)
(1.08911e-06 -0.000242784 6.93913e-27)
(3.60416e-05 -0.00024379 -1.98645e-27)
(1.27904e-06 -0.000251596 2.47245e-26)
(3.63829e-05 -0.000252555 5.62155e-27)
(1.46208e-06 -0.000260442 3.53512e-26)
(3.67003e-05 -0.000261354 -1.80536e-27)
(1.63772e-06 -0.000269319 -6.51157e-26)
(3.69944e-05 -0.000270183 7.69468e-27)
(1.80546e-06 -0.000278222 -4.39921e-27)
(3.72659e-05 -0.00027904 3.08519e-26)
(1.96485e-06 -0.000287148 7.76695e-27)
(3.75154e-05 -0.00028792 2.33649e-26)
(2.11542e-06 -0.000296095 1.2526e-26)
(3.77435e-05 -0.00029682 3.53236e-26)
(2.25674e-06 -0.000305058 -1.33341e-26)
(3.79507e-05 -0.000305737 -1.33042e-26)
(2.38837e-06 -0.000314035 -4.34637e-27)
(3.81376e-05 -0.000314669 1.97664e-26)
(2.50987e-06 -0.000323024 -4.50313e-26)
(3.83048e-05 -0.000323612 -1.49368e-26)
(2.62081e-06 -0.000332022 2.6006e-26)
(3.84526e-05 -0.000332564 3.13413e-26)
(2.72071e-06 -0.000341028 -4.07545e-26)
(3.85816e-05 -0.000341524 -5.50685e-26)
(2.80913e-06 -0.00035004 -2.97473e-26)
(3.86922e-05 -0.000350489 -3.71898e-27)
(2.88553e-06 -0.000359055 9.73157e-26)
(3.87847e-05 -0.000359457 -6.32023e-26)
(2.94959e-06 -0.000368075 -5.7376e-26)
(3.88598e-05 -0.000368428 3.42333e-26)
(3.001e-06 -0.000377096 1.99044e-27)
(3.8918e-05 -0.000377398 2.9447e-26)
(3.04211e-06 -0.000386119 5.51607e-26)
(3.89626e-05 -0.000386368 -6.83317e-26)
(3.07824e-06 -0.000395135 1.72043e-26)
(3.89998e-05 -0.000395344 -1.67727e-26)
(3.13131e-06 -0.000404123 -6.00834e-26)
(7.5571e-06 -0.000408592 9.51333e-27)
(1.64678e-05 -0.000408693 -3.56022e-26)
(2.54476e-05 -0.000408771 1.37012e-25)
(3.44972e-05 -0.000408874 -3.27511e-25)
(3.90524e-05 -0.000404348 2.62394e-26)
)
;
    }
    frontAndBackPlanes
    {
        type            empty;
    }
}


// ************************************************************************* //
