/*--------------------------------*- C++ -*----------------------------------*\
| =========                 |                                                 |
| \\      /  F ield         | OpenFOAM Extend Project: Open source CFD        |
|  \\    /   O peration     | Version:  1.6-ext                               |
|   \\  /    A nd           | Web:      www.extend-project.de                 |
|    \\/     M anipulation  |                                                 |
\*---------------------------------------------------------------------------*/
FoamFile
{
    version     2.0;
    format      ascii;
    class       volScalarField::DimensionedInternalField;
    location    "0.35";
    object      V0;
}
// * * * * * * * * * * * * * * * * * * * * * * * * * * * * * * * * * * * * * //

dimensions      [0 3 0 0 0 0 0];

value           nonuniform List<scalar> 
328
(
2.53344e-07
2.53345e-07
2.53345e-07
2.53343e-07
2.71711e-07
2.71713e-07
2.71713e-07
2.71711e-07
2.91412e-07
2.91413e-07
2.91413e-07
2.91412e-07
3.1254e-07
3.12542e-07
3.12542e-07
3.12541e-07
3.35201e-07
3.35203e-07
3.35203e-07
3.35203e-07
3.59504e-07
3.59506e-07
3.59506e-07
3.59507e-07
3.8557e-07
3.85572e-07
3.85572e-07
3.85573e-07
4.13525e-07
4.13527e-07
4.13528e-07
4.1353e-07
4.43507e-07
4.4351e-07
4.43511e-07
4.43513e-07
4.75663e-07
4.75666e-07
4.75667e-07
4.7567e-07
5.1015e-07
5.10154e-07
5.10155e-07
5.10159e-07
5.47138e-07
5.47142e-07
5.47144e-07
5.47149e-07
5.86807e-07
5.86812e-07
5.86815e-07
5.8682e-07
6.29352e-07
6.29359e-07
6.29362e-07
6.29368e-07
6.74982e-07
6.7499e-07
6.74993e-07
6.75001e-07
7.2392e-07
7.2393e-07
7.23934e-07
7.23943e-07
7.76407e-07
7.76418e-07
7.76422e-07
7.76433e-07
8.32699e-07
8.32711e-07
8.32717e-07
8.3273e-07
8.93072e-07
8.93087e-07
8.93093e-07
8.93108e-07
9.57822e-07
9.57839e-07
9.57847e-07
9.57864e-07
1.02727e-06
1.02729e-06
1.0273e-06
1.02732e-06
1.10175e-06
1.10177e-06
1.10178e-06
1.1018e-06
1.26869e-06
1.26872e-06
1.26873e-06
1.26876e-06
1.26869e-06
1.26872e-06
1.26873e-06
1.26876e-06
1.26869e-06
1.26872e-06
1.26873e-06
1.26876e-06
1.26868e-06
1.26872e-06
1.26873e-06
1.26876e-06
1.26868e-06
1.26872e-06
1.26873e-06
1.26876e-06
1.26868e-06
1.26872e-06
1.26873e-06
1.26877e-06
1.26868e-06
1.26872e-06
1.26873e-06
1.26877e-06
1.26868e-06
1.26872e-06
1.26873e-06
1.26877e-06
1.26868e-06
1.26872e-06
1.26873e-06
1.26877e-06
1.26868e-06
1.26872e-06
1.26873e-06
1.26877e-06
1.26868e-06
1.26872e-06
1.26873e-06
1.26877e-06
1.26868e-06
1.26872e-06
1.26873e-06
1.26877e-06
1.26868e-06
1.26872e-06
1.26873e-06
1.26877e-06
1.26868e-06
1.26871e-06
1.26873e-06
1.26876e-06
1.26868e-06
1.26871e-06
1.26873e-06
1.26876e-06
1.26868e-06
1.26871e-06
1.26873e-06
1.26876e-06
1.26868e-06
1.26871e-06
1.26873e-06
1.26876e-06
1.26868e-06
1.26871e-06
1.26873e-06
1.26876e-06
1.26868e-06
1.26871e-06
1.26872e-06
1.26875e-06
1.26868e-06
1.26871e-06
1.26872e-06
1.26875e-06
1.26868e-06
1.26871e-06
1.26872e-06
1.26875e-06
1.26868e-06
1.26871e-06
1.26872e-06
1.26875e-06
1.26868e-06
1.26871e-06
1.26872e-06
1.26874e-06
1.26869e-06
1.26871e-06
1.26872e-06
1.26874e-06
1.26869e-06
1.26871e-06
1.26872e-06
1.26874e-06
1.26869e-06
1.26871e-06
1.26872e-06
1.26874e-06
1.26869e-06
1.26871e-06
1.26871e-06
1.26873e-06
1.26869e-06
1.26871e-06
1.26871e-06
1.26873e-06
1.26869e-06
1.26871e-06
1.26871e-06
1.26873e-06
1.26869e-06
1.2687e-06
1.26871e-06
1.26873e-06
1.26869e-06
1.2687e-06
1.26871e-06
1.26872e-06
1.26869e-06
1.2687e-06
1.26871e-06
1.26872e-06
1.26869e-06
1.2687e-06
1.26871e-06
1.26872e-06
1.26869e-06
1.2687e-06
1.26871e-06
1.26872e-06
1.26869e-06
1.2687e-06
1.26871e-06
1.26872e-06
1.26869e-06
1.2687e-06
1.26871e-06
1.26871e-06
1.26869e-06
1.2687e-06
1.2687e-06
1.26871e-06
1.26869e-06
1.2687e-06
1.2687e-06
1.26871e-06
1.26869e-06
1.2687e-06
1.2687e-06
1.26871e-06
1.26869e-06
1.2687e-06
1.2687e-06
1.26871e-06
1.26869e-06
1.2687e-06
1.2687e-06
1.26871e-06
1.26869e-06
1.2687e-06
1.2687e-06
1.26871e-06
1.26869e-06
1.2687e-06
1.2687e-06
1.2687e-06
1.26869e-06
1.2687e-06
1.2687e-06
1.2687e-06
1.26869e-06
1.2687e-06
1.2687e-06
1.2687e-06
1.26869e-06
1.2687e-06
1.2687e-06
1.2687e-06
1.26869e-06
1.26869e-06
1.2687e-06
1.2687e-06
1.26869e-06
1.26869e-06
1.2687e-06
1.2687e-06
1.26869e-06
1.26869e-06
1.26869e-06
1.2687e-06
1.26869e-06
1.26869e-06
1.26869e-06
1.2687e-06
1.26869e-06
1.26869e-06
1.26869e-06
1.26869e-06
1.26869e-06
1.26869e-06
1.26869e-06
1.26869e-06
1.26869e-06
1.26869e-06
1.26869e-06
1.26869e-06
1.26869e-06
1.26869e-06
1.26869e-06
1.26869e-06
1.26869e-06
1.26869e-06
1.26869e-06
1.26869e-06
1.26869e-06
1.26869e-06
1.26869e-06
1.26869e-06
1.26869e-06
1.26869e-06
1.26869e-06
1.26869e-06
1.26869e-06
1.26869e-06
1.26869e-06
1.26869e-06
1.26869e-06
1.26869e-06
1.26869e-06
1.26869e-06
1.26868e-06
1.26868e-06
1.26868e-06
1.26868e-06
)
;


// ************************************************************************* //
