/*--------------------------------*- C++ -*----------------------------------*\
| =========                 |                                                 |
| \\      /  F ield         | OpenFOAM Extend Project: Open source CFD        |
|  \\    /   O peration     | Version:  1.6-ext                               |
|   \\  /    A nd           | Web:      www.extend-project.de                 |
|    \\/     M anipulation  |                                                 |
\*---------------------------------------------------------------------------*/
FoamFile
{
    version     2.0;
    format      ascii;
    class       volVectorField;
    location    "0.35";
    object      Vs;
}
// * * * * * * * * * * * * * * * * * * * * * * * * * * * * * * * * * * * * * //

dimensions      [0 1 -1 0 0 0 0];

internalField   nonuniform List<vector> 
328
(
(7.14118e-06 7.05662e-06 0)
(5.5988e-06 1.27581e-06 0)
(5.36904e-06 -1.32894e-06 0)
(6.00713e-06 -5.49452e-06 0)
(2.18592e-05 1.82694e-05 0)
(1.77507e-05 4.07585e-06 0)
(1.69486e-05 -3.57067e-06 0)
(1.83737e-05 -1.40121e-05 0)
(3.83045e-05 2.6955e-05 0)
(3.2206e-05 7.12182e-06 0)
(3.05851e-05 -5.32916e-06 0)
(3.21226e-05 -2.01012e-05 0)
(5.60923e-05 3.36296e-05 0)
(4.84035e-05 1.02307e-05 0)
(4.58483e-05 -6.39835e-06 0)
(4.70044e-05 -2.40223e-05 0)
(7.53771e-05 3.89273e-05 0)
(6.64964e-05 1.33459e-05 0)
(6.28899e-05 -6.68701e-06 0)
(6.31652e-05 -2.61583e-05 0)
(9.61468e-05 4.33484e-05 0)
(8.63358e-05 1.6481e-05 0)
(8.16025e-05 -6.13138e-06 0)
(8.06291e-05 -2.6793e-05 0)
(0.0001185 4.7317e-05 0)
(0.000107945 1.97192e-05 0)
(0.000102018 -4.71301e-06 0)
(9.95028e-05 -2.61503e-05 0)
(0.00014252 5.11712e-05 0)
(0.000131304 2.31814e-05 0)
(0.000124129 -2.42211e-06 0)
(0.000119884 -2.4379e-05 0)
(0.000168319 5.51964e-05 0)
(0.00015645 2.70159e-05 0)
(0.00014798 7.47635e-07 0)
(0.00014189 -2.15741e-05 0)
(0.000196011 5.96346e-05 0)
(0.000183433 3.13827e-05 0)
(0.000173624 4.8154e-06 0)
(0.000165647 -1.77794e-05 0)
(0.000225719 6.46996e-05 0)
(0.000212334 3.64467e-05 0)
(0.000201147 9.81873e-06 0)
(0.000191285 -1.29964e-05 0)
(0.00025757 7.05839e-05 0)
(0.000243258 4.23727e-05 0)
(0.000230656 1.58193e-05 0)
(0.000218946 -7.18744e-06 0)
(0.000291698 7.74669e-05 0)
(0.000276332 4.9324e-05 0)
(0.000262283 2.29042e-05 0)
(0.000248776 -2.80062e-07 0)
(0.00032824 8.55193e-05 0)
(0.0003117 5.74627e-05 0)
(0.000296179 3.11858e-05 0)
(0.000280933 7.82922e-06 0)
(0.000367341 9.49078e-05 0)
(0.000349526 6.69519e-05 0)
(0.000332514 4.07992e-05 0)
(0.000315588 1.72709e-05 0)
(0.000409152 0.000105799 0)
(0.000389986 7.79574e-05 0)
(0.000371475 5.18996e-05 0)
(0.000352921 2.81983e-05 0)
(0.000453831 0.000118361 0)
(0.000433266 9.06492e-05 0)
(0.000413259 6.46581e-05 0)
(0.000393129 4.07829e-05 0)
(0.000501543 0.000132766 0)
(0.00047956 0.000105202 0)
(0.000458075 7.92574e-05 0)
(0.000436421 5.52095e-05 0)
(0.000552456 0.000149186 0)
(0.000529068 0.000121794 0)
(0.000506142 9.58869e-05 0)
(0.000483023 7.16713e-05 0)
(0.000606744 0.000167792 0)
(0.000581994 0.000140602 0)
(0.000557686 0.000114737 0)
(0.000533172 9.03642e-05 0)
(0.000664577 0.000188747 0)
(0.000638545 0.000161799 0)
(0.000612939 0.000135993 0)
(0.000587122 0.00011148 0)
(0.000726123 0.0002122 0)
(0.000698924 0.000185541 0)
(0.000672136 0.000159825 0)
(0.000645131 0.000135199 0)
(0.000794038 0.000239263 0)
(0.000765788 0.000212966 0)
(0.000737931 0.00018739 0)
(0.000709849 0.000162685 0)
(0.00086593 0.000269118 0)
(0.00083686 0.000243264 0)
(0.000808156 0.000217891 0)
(0.000779211 0.000193162 0)
(0.00093695 0.000299563 0)
(0.000907364 0.00027421 0)
(0.00087811 0.000249099 0)
(0.000848586 0.000224408 0)
(0.00100704 0.000330303 0)
(0.000977237 0.00030551 0)
(0.000947726 0.000280721 0)
(0.000917906 0.000256133 0)
(0.00107613 0.000361053 0)
(0.00104642 0.000336875 0)
(0.00101694 0.000312467 0)
(0.000987104 0.00028804 0)
(0.00114418 0.00039153 0)
(0.00111485 0.000368017 0)
(0.0010857 0.000344042 0)
(0.00105612 0.00031983 0)
(0.00121114 0.000421458 0)
(0.00118249 0.000398649 0)
(0.00115394 0.000375151 0)
(0.00112491 0.000351199 0)
(0.00127697 0.000450561 0)
(0.00124929 0.000428484 0)
(0.00122164 0.000405496 0)
(0.00119343 0.000381839 0)
(0.00134167 0.000478572 0)
(0.00131524 0.000457239 0)
(0.00128875 0.00043478 0)
(0.00126164 0.000411439 0)
(0.00140522 0.000505223 0)
(0.00138032 0.00048463 0)
(0.00135527 0.000462705 0)
(0.00132953 0.000439688 0)
(0.00146765 0.000530256 0)
(0.00144453 0.000510382 0)
(0.00142118 0.000488979 0)
(0.00139708 0.000466281 0)
(0.00152897 0.000553415 0)
(0.00150789 0.000534223 0)
(0.0014865 0.000513318 0)
(0.00146429 0.000490922 0)
(0.00158924 0.000574455 0)
(0.00157042 0.000555894 0)
(0.00155122 0.00053545 0)
(0.00153117 0.000513331 0)
(0.0016485 0.000593137 0)
(0.00163217 0.000575148 0)
(0.00161537 0.000555121 0)
(0.0015977 0.000533246 0)
(0.00170682 0.000609237 0)
(0.00169316 0.000591755 0)
(0.00167898 0.000572096 0)
(0.0016639 0.000550433 0)
(0.00176425 0.000622544 0)
(0.00175343 0.000605505 0)
(0.00174205 0.000586167 0)
(0.00172976 0.000564686 0)
(0.00182085 0.000632867 0)
(0.00181303 0.000616211 0)
(0.00180459 0.000597151 0)
(0.00179527 0.000575832 0)
(0.00187668 0.000640036 0)
(0.00187198 0.000623712 0)
(0.00186662 0.000604899 0)
(0.00186039 0.00058373 0)
(0.00193178 0.000643909 0)
(0.0019303 0.000627876 0)
(0.00192812 0.000609292 0)
(0.0019251 0.000588275 0)
(0.00198618 0.000644371 0)
(0.00198799 0.000628605 0)
(0.00198907 0.000610243 0)
(0.00198933 0.000589396 0)
(0.00203991 0.000641343 0)
(0.00204505 0.000625831 0)
(0.00204943 0.000607699 0)
(0.00205303 0.000587054 0)
(0.00209298 0.000634778 0)
(0.00210146 0.000619521 0)
(0.00210916 0.00060164 0)
(0.00211612 0.00058124 0)
(0.00214538 0.000624663 0)
(0.00215719 0.000609673 0)
(0.00216821 0.000592075 0)
(0.00217851 0.000571974 0)
(0.0021971 0.00061102 0)
(0.00221221 0.000596319 0)
(0.0022265 0.000579045 0)
(0.00224011 0.000559304 0)
(0.00224813 0.000593903 0)
(0.00226648 0.000579518 0)
(0.00228399 0.000562616 0)
(0.00230084 0.0005433 0)
(0.00229844 0.000573392 0)
(0.00231994 0.000559359 0)
(0.00234058 0.000542878 0)
(0.00236059 0.000524055 0)
(0.002348 0.000549598 0)
(0.00237255 0.000535953 0)
(0.00239622 0.000519945 0)
(0.00241928 0.000501681 0)
(0.00239678 0.00052265 0)
(0.00242425 0.000509432 0)
(0.00245083 0.000493947 0)
(0.00247681 0.000476308 0)
(0.00244474 0.000492698 0)
(0.002475 0.000479945 0)
(0.00250436 0.000465034 0)
(0.00253312 0.00044808 0)
(0.00249185 0.000459907 0)
(0.00252475 0.000447656 0)
(0.00255673 0.000433366 0)
(0.00258812 0.000417151 0)
(0.00253808 0.000424453 0)
(0.00257345 0.00041274 0)
(0.00260789 0.000399114 0)
(0.00264175 0.00038369 0)
(0.00258337 0.00038652 0)
(0.00262106 0.00037538 0)
(0.0026578 0.000362457 0)
(0.00269395 0.00034787 0)
(0.00262771 0.000346299 0)
(0.00266753 0.000335764 0)
(0.0027064 0.000323581 0)
(0.00274467 0.000309869 0)
(0.00267105 0.000303982 0)
(0.00271283 0.000294084 0)
(0.00275364 0.000282674 0)
(0.00279386 0.000269871 0)
(0.00271336 0.000259764 0)
(0.00275692 0.000250531 0)
(0.00279951 0.000239923 0)
(0.00284148 0.000228059 0)
(0.0027546 0.000213837 0)
(0.00279977 0.000205297 0)
(0.00284395 0.000195517 0)
(0.00288751 0.000184616 0)
(0.00279474 0.00016639 0)
(0.00284134 0.000158569 0)
(0.00288695 0.00014964 0)
(0.00293192 0.000139722 0)
(0.00283375 0.000117607 0)
(0.00288161 0.000110529 0)
(0.00292848 0.000102471 0)
(0.0029747 9.35518e-05 0)
(0.00287159 6.76662e-05 0)
(0.00292055 6.13531e-05 0)
(0.00296852 5.41847e-05 0)
(0.00301582 4.6276e-05 0)
(0.00290824 1.67358e-05 0)
(0.00295814 1.12094e-05 0)
(0.00300705 4.94515e-06 0)
(0.00305528 -1.94396e-06 0)
(0.00294366 -3.50237e-05 0)
(0.00299435 -3.97439e-05 0)
(0.00304406 -4.50913e-05 0)
(0.00309308 -5.09554e-05 0)
(0.00297782 -8.74628e-05 0)
(0.00302917 -9.13587e-05 0)
(0.00307955 -9.5779e-05 0)
(0.00312921 -0.000100616 0)
(0.0030107 -0.000140443 0)
(0.00306259 -0.000143499 0)
(0.00311351 -0.000146984 0)
(0.00316369 -0.000150794 0)
(0.00304228 -0.000193838 0)
(0.00309458 -0.000196039 0)
(0.00314593 -0.000198583 0)
(0.00319652 -0.000201371 0)
(0.00307253 -0.000247533 0)
(0.00312515 -0.000248867 0)
(0.00317682 -0.000250468 0)
(0.00322772 -0.00025224 0)
(0.00310143 -0.000301427 0)
(0.00315427 -0.000301885 0)
(0.00320618 -0.000302543 0)
(0.00325731 -0.000303308 0)
(0.00312898 -0.000355432 0)
(0.00318197 -0.000355007 0)
(0.00323403 -0.000354724 0)
(0.00328531 -0.000354495 0)
(0.00315516 -0.000409471 0)
(0.00320822 -0.00040816 0)
(0.00326038 -0.000406941 0)
(0.00331175 -0.000405735 0)
(0.00317997 -0.000463484 0)
(0.00323305 -0.000461286 0)
(0.00328525 -0.000459141 0)
(0.00333666 -0.000456976 0)
(0.00320341 -0.00051742 0)
(0.00325646 -0.00051434 0)
(0.00330867 -0.000511282 0)
(0.00336008 -0.000508179 0)
(0.00322548 -0.000571244 0)
(0.00327848 -0.000567291 0)
(0.00333066 -0.000563335 0)
(0.00338205 -0.000559321 0)
(0.0032462 -0.00062493 0)
(0.00329913 -0.000620118 0)
(0.00335126 -0.000615287 0)
(0.00340262 -0.00061039 0)
(0.0032656 -0.000678467 0)
(0.00331844 -0.000672815 0)
(0.00337052 -0.000667135 0)
(0.00342184 -0.000661389 0)
(0.00328372 -0.000731849 0)
(0.00333646 -0.000725384 0)
(0.00338848 -0.000718886 0)
(0.00343976 -0.000712328 0)
(0.00330059 -0.00078508 0)
(0.00335323 -0.000777837 0)
(0.0034052 -0.000770558 0)
(0.00345647 -0.000763231 0)
(0.00331627 -0.000838167 0)
(0.00336883 -0.000830189 0)
(0.00342075 -0.000822174 0)
(0.00347201 -0.000814124 0)
(0.00333084 -0.000891123 0)
(0.00338331 -0.000882459 0)
(0.0034352 -0.000873761 0)
(0.00348648 -0.000865042 0)
(0.00334439 -0.000943949 0)
(0.00339678 -0.000934663 0)
(0.00344864 -0.000925354 0)
(0.00349996 -0.00091603 0)
(0.00335702 -0.000996649 0)
(0.00340935 -0.000986817 0)
(0.0034612 -0.000976985 0)
(0.00351257 -0.000967128 0)
(0.0033688 -0.00104911 0)
(0.0034211 -0.00103891 0)
(0.00347295 -0.00102871 0)
(0.00352435 -0.0010185 0)
)
;

boundaryField
{
    plateFix
    {
        type            calculated;
        value           uniform (0 0 0);
    }
    plate
    {
        type            calculated;
        value           nonuniform List<vector> 
168
(
(3.83077e-05 1.94204e-05 -5.40252e-24)
(3.0024e-05 -1.40516e-05 -1.02965e-22)
(4.51458e-05 3.10599e-05 4.60527e-26)
(3.54947e-05 -2.28655e-05 1.02944e-22)
(5.50574e-05 4.03466e-05 -3.51739e-23)
(4.30732e-05 -2.94161e-05 -3.49051e-23)
(6.82508e-05 4.72652e-05 5.58964e-23)
(5.31891e-05 -3.35672e-05 -3.01319e-23)
(8.45632e-05 5.27565e-05 -1.37176e-23)
(6.58131e-05 -3.59197e-05 2.89155e-23)
(0.000103525 5.72815e-05 3.73329e-24)
(8.06407e-05 -3.67233e-05 -2.03794e-23)
(0.000124902 6.13276e-05 3.19473e-24)
(9.7532e-05 -3.62443e-05 2.44804e-23)
(0.000148525 6.52351e-05 -6.44781e-24)
(0.000116388 -3.46297e-05 -2.34309e-23)
(0.00017433 6.93009e-05 -3.70611e-23)
(0.000137187 -3.19805e-05 1.99345e-23)
(0.000202306 7.37667e-05 1.15606e-23)
(0.000159947 -2.83385e-05 4.83783e-24)
(0.000232487 7.88464e-05 1.65443e-23)
(0.000184726 -2.37042e-05 1.35495e-23)
(0.000264937 8.47315e-05 3.20383e-24)
(0.000211608 -1.80385e-05 -6.18412e-24)
(0.000299743 9.16006e-05 -2.08399e-24)
(0.000240704 -1.12687e-05 4.35443e-25)
(0.000337012 9.96243e-05 -9.54994e-24)
(0.000272146 -3.29132e-06 -1.07133e-23)
(0.000376865 0.00010897 9.79481e-24)
(0.00030609 6.0233e-06 -8.70568e-24)
(0.000419439 0.000119803 -1.53641e-24)
(0.000342712 1.68277e-05 7.50545e-24)
(0.000464879 0.000132294 1.24388e-23)
(0.000382209 2.92926e-05 -1.3043e-24)
(0.000513339 0.000146611 -2.47126e-23)
(0.000424796 4.36029e-05 -7.10689e-24)
(0.00056498 0.000162928 1.26482e-23)
(0.000470708 5.99526e-05 7.17379e-24)
(0.000619963 0.000181412 -1.13852e-23)
(0.000520193 7.85391e-05 -1.27231e-23)
(0.000678445 0.000202222 9.84917e-24)
(0.000573519 9.95579e-05 9.24568e-24)
(0.000740576 0.000225503 8.74833e-24)
(0.000630957 0.000123192 2.01974e-23)
(0.00080901 0.000252356 -1.55879e-23)
(0.000695164 0.000150608 -1.43599e-23)
(0.000881313 0.000281957 4.14224e-24)
(0.000764108 0.000181044 9.4073e-24)
(0.000952585 0.000312119 1.49039e-24)
(0.000833198 0.00021228 -9.1228e-24)
(0.00102277 0.000342545 8.93655e-26)
(0.000902368 0.000244027 5.22366e-24)
(0.0010918 0.000372954 1.29044e-25)
(0.000971548 0.000275986 -1.48832e-24)
(0.00115962 0.000403064 -3.54095e-25)
(0.00104068 0.000307857 9.50622e-25)
(0.0012262 0.000432606 2.46562e-25)
(0.00110972 0.000339329 -3.17246e-24)
(0.00129151 0.00046131 7.33866e-24)
(0.00117862 0.000370089 1.43808e-23)
(0.00135552 0.000488916 -7.29989e-24)
(0.00124735 0.000399819 -9.0335e-24)
(0.00141825 0.000515167 3.51567e-24)
(0.00131591 0.000428202 3.40726e-24)
(0.00147971 0.000539812 1.99136e-24)
(0.00138426 0.000454927 3.05908e-24)
(0.00153994 0.000562605 -2.15609e-24)
(0.00145241 0.000479692 2.2423e-24)
(0.001599 0.000583305 2.49416e-25)
(0.00152036 0.000502212 -2.73426e-24)
(0.00165693 0.000601681 4.13442e-25)
(0.0015881 0.000522224 3.97798e-24)
(0.00171383 0.000617511 4.57128e-25)
(0.00165563 0.000539492 -6.29027e-24)
(0.00176975 0.000630583 -2.73265e-24)
(0.00172292 0.000553814 -2.31019e-24)
(0.00182478 0.000640703 -1.30508e-24)
(0.00178996 0.000565019 7.42648e-25)
(0.00187897 0.000647698 1.54355e-24)
(0.00185669 0.000572975 1.48332e-24)
(0.00193238 0.00065142 1.42547e-25)
(0.00192307 0.000577583 -6.70268e-24)
(0.00198507 0.000651746 -7.65486e-24)
(0.00198902 0.000578779 -3.27314e-24)
(0.00203707 0.000648591 3.85532e-24)
(0.00205447 0.00057653 -2.03644e-23)
(0.0020884 0.000641901 -1.78716e-24)
(0.00211932 0.000570835 3.19931e-25)
(0.00213908 0.000631658 3.62728e-24)
(0.00218346 0.000561719 -4.78402e-24)
(0.0021891 0.000617877 -8.87117e-25)
(0.00224679 0.000549232 -1.85488e-26)
(0.00223847 0.00060061 1.08943e-23)
(0.00230921 0.000533447 7.59725e-24)
(0.00228717 0.000579934 -3.73559e-24)
(0.00237061 0.000514458 -1.40309e-23)
(0.00233517 0.000555959 -1.24579e-23)
(0.00243088 0.000492376 -2.56637e-24)
(0.00238246 0.000528812 6.90481e-24)
(0.00248992 0.000467329 6.88602e-24)
(0.00242901 0.000498643 7.38995e-25)
(0.00254766 0.000439459 -1.07629e-23)
(0.00247479 0.000465618 -3.29033e-24)
(0.00260401 0.000408918 2.12926e-24)
(0.00251976 0.000429912 3.49835e-24)
(0.0026589 0.00037587 -2.64896e-24)
(0.0025639 0.000391711 -7.38854e-25)
(0.00271227 0.000340486 5.77519e-24)
(0.00260717 0.000351206 -1.75816e-24)
(0.00276405 0.000302942 -8.38346e-24)
(0.00264953 0.000308591 2.6661e-25)
(0.00281422 0.000263418 5.85551e-24)
(0.00269095 0.000264059 6.2866e-24)
(0.00286273 0.000222094 2.51996e-24)
(0.0027314 0.000217805 3.58713e-24)
(0.00290954 0.000179151 -9.28147e-24)
(0.00277084 0.000170018 2.5731e-24)
(0.00295465 0.000134766 2.8686e-24)
(0.00280923 0.000120883 -4.83601e-24)
(0.00299803 8.91127e-05 -3.3478e-24)
(0.00284655 7.0577e-05 1.75362e-25)
(0.00303967 4.23588e-05 4.76245e-24)
(0.00288274 1.92706e-05 1.07484e-24)
(0.00307957 -5.33611e-06 7.942e-25)
(0.00291778 -3.28757e-05 2.66419e-24)
(0.00311774 -5.3821e-05 6.01391e-24)
(0.00295164 -8.57117e-05 7.52798e-25)
(0.00315417 -0.000102955 -9.06305e-24)
(0.00298429 -0.000139098 1.67319e-24)
(0.00318888 -0.000152609 -1.321e-24)
(0.00301568 -0.000192907 -3.13079e-25)
(0.00322189 -0.000202664 3.16474e-24)
(0.00304581 -0.000247024 -5.56989e-24)
(0.00325322 -0.000253017 -1.1856e-24)
(0.00307463 -0.000301345 6.83155e-25)
(0.00328289 -0.000303574 5.45201e-24)
(0.00310214 -0.000355782 3.858e-24)
(0.00331093 -0.000354259 3.85747e-25)
(0.00312832 -0.000410256 -3.34704e-24)
(0.00333739 -0.000405005 1.37753e-24)
(0.00315315 -0.000464705 -6.28731e-24)
(0.00336229 -0.000455764 -1.24217e-24)
(0.00317663 -0.000519076 3.31028e-24)
(0.00338568 -0.000506498 -5.46502e-24)
(0.00319876 -0.000573331 -1.3462e-24)
(0.00340762 -0.000557184 4.5845e-24)
(0.00321955 -0.000627443 -2.54008e-24)
(0.00342815 -0.000607815 7.14215e-24)
(0.00323902 -0.000681396 -1.26934e-24)
(0.00344734 -0.000658392 -3.89289e-24)
(0.0032572 -0.000735181 -5.8385e-24)
(0.00346524 -0.000708931 -1.84956e-24)
(0.00327414 -0.000788798 8.36192e-24)
(0.00348193 -0.000759454 -7.81334e-25)
(0.00328988 -0.000842251 2.01956e-24)
(0.00349748 -0.000809993 5.70988e-24)
(0.00330452 -0.000895547 4.21363e-24)
(0.00351197 -0.000860583 6.23294e-26)
(0.00331812 -0.000948679 -8.31351e-25)
(0.0035255 -0.000911276 4.0672e-24)
(0.00333083 -0.00100166 1.83773e-24)
(0.00353819 -0.000962105 -5.30434e-24)
(0.00334275 -0.00105432 7.58065e-24)
(0.00337447 -0.0010752 2.24074e-23)
(0.00342679 -0.00106498 -1.67071e-23)
(0.00347864 -0.00105457 3.32347e-23)
(0.00353001 -0.00104434 -4.98672e-24)
(0.00355013 -0.00101328 2.31181e-24)
)
;
    }
    frontAndBackPlanes
    {
        type            empty;
    }
}


// ************************************************************************* //
