/*--------------------------------*- C++ -*----------------------------------*\
| =========                 |                                                 |
| \\      /  F ield         | OpenFOAM Extend Project: Open source CFD        |
|  \\    /   O peration     | Version:  1.6-ext                               |
|   \\  /    A nd           | Web:      www.extend-project.de                 |
|    \\/     M anipulation  |                                                 |
\*---------------------------------------------------------------------------*/
FoamFile
{
    version     2.0;
    format      ascii;
    class       volScalarField;
    location    "4.9";
    object      p;
}
// * * * * * * * * * * * * * * * * * * * * * * * * * * * * * * * * * * * * * //

dimensions      [0 2 -2 0 0 0 0];

internalField   nonuniform List<scalar> 
72
(
-0.0218502
-0.02304
-0.0228991
-0.0216858
-0.0191993
-0.0153264
-0.010403
-0.00515685
0.00289907
-0.0205495
-0.0217875
-0.0216584
-0.0207738
-0.0188998
-0.015761
-0.0115595
-0.00677413
0.0017757
-0.0210725
-0.0224792
-0.0225685
-0.0220765
-0.0206724
-0.0178762
-0.0137523
-0.008795
0.000903597
-0.023233
-0.0245068
-0.0248064
-0.0247361
-0.0238247
-0.0213284
-0.0170624
-0.0116352
-8.10693e-05
-0.0270577
-0.0276297
-0.0279486
-0.0281976
-0.027718
-0.0254453
-0.0209032
-0.0146544
-0.000906841
-0.0323673
-0.0311846
-0.0311871
-0.0315374
-0.031375
-0.0294717
-0.0246985
-0.0168833
-0.00326371
-0.0387395
-0.0341139
-0.0335912
-0.0336138
-0.0334508
-0.0315555
-0.0267222
-0.0182235
-0.00498142
-0.0551289
-0.0378384
-0.0349176
-0.0340664
-0.0335187
-0.031333
-0.0263746
-0.017862
-0.00563819
)
;

boundaryField
{
    inlet
    {
        type            zeroGradient;
    }
    outlet
    {
        type            totalPressure;
        rho             none;
        psi             none;
        gamma           1;
        p0              uniform 0;
        value           nonuniform List<scalar> 8(-0.0001632 -0.000807175 -0.00151523 -0.00241729 0 0 0 0);
    }
    fixedWalls
    {
        type            zeroGradient;
    }
    frontAndBack
    {
        type            empty;
    }
    procBoundary0to1
    {
        type            processor;
        value           nonuniform List<scalar> 9(-0.0475639 -0.038289 -0.0341988 -0.0324097 -0.0311189 -0.0284236 -0.0234825 -0.0155357 -0.00533969);
    }
}


// ************************************************************************* //
