/*--------------------------------*- C++ -*----------------------------------*\
| =========                 |                                                 |
| \\      /  F ield         | OpenFOAM Extend Project: Open source CFD        |
|  \\    /   O peration     | Version:  1.6-ext                               |
|   \\  /    A nd           | Web:      www.extend-project.de                 |
|    \\/     M anipulation  |                                                 |
\*---------------------------------------------------------------------------*/
FoamFile
{
    version     2.0;
    format      ascii;
    class       volVectorField;
    location    "4.9";
    object      U;
}
// * * * * * * * * * * * * * * * * * * * * * * * * * * * * * * * * * * * * * //

dimensions      [0 1 -1 0 0 0 0];

internalField   nonuniform List<vector> 
72
(
(-0.000436456 0.000279825 0)
(-0.00531405 0.00225389 0)
(-0.0147046 0.00320245 0)
(-0.0242854 0.00337422 0)
(-0.032511 0.00293583 0)
(-0.0377108 0.0017772 0)
(-0.0386884 -0.000136576 0)
(-0.036097 -0.0027306 0)
(-0.0171699 -0.00573606 0)
(-0.00282382 0.00553523 0)
(-0.014809 0.013662 0)
(-0.0334675 0.0164755 0)
(-0.0509998 0.0155042 0)
(-0.0643823 0.0116517 0)
(-0.0710433 0.00509481 0)
(-0.0698922 -0.00368046 0)
(-0.0624624 -0.0134829 0)
(-0.0332286 -0.0226608 0)
(-0.0040326 0.0162992 0)
(-0.0189016 0.0328304 0)
(-0.0403526 0.0369044 0)
(-0.0592582 0.0326092 0)
(-0.072392 0.0223037 0)
(-0.0773682 0.00711154 0)
(-0.0736213 -0.0114693 0)
(-0.0639939 -0.0303136 0)
(-0.0309465 -0.0455632 0)
(-0.00419711 0.027639 0)
(-0.0181914 0.0518299 0)
(-0.0370356 0.0560651 0)
(-0.0524414 0.0475315 0)
(-0.0618078 0.0303685 0)
(-0.063412 0.00680308 0)
(-0.0570628 -0.0209411 0)
(-0.0471727 -0.0483102 0)
(-0.013448 -0.0682068 0)
(-0.00392453 0.0376078 0)
(-0.0140002 0.0666651 0)
(-0.024972 0.0697971 0)
(-0.0320236 0.0568412 0)
(-0.0337732 0.0335613 0)
(-0.0295263 0.00330081 0)
(-0.0193891 -0.0313143 0)
(-0.00900021 -0.0658819 0)
(0.0188907 -0.087732 0)
(-0.00346419 0.0449238 0)
(-0.00680628 0.0731318 0)
(-0.00397399 0.0732251 0)
(0.00264452 0.0559222 0)
(0.0130537 0.0280095 0)
(0.0267277 -0.00653838 0)
(0.042648 -0.0444535 0)
(0.0574842 -0.0824134 0)
(0.0829727 -0.106029 0)
(0.000203239 0.0525068 0)
(0.00762303 0.0683221 0)
(0.0307387 0.0611481 0)
(0.0552734 0.0399895 0)
(0.0808491 0.00989881 0)
(0.106265 -0.0257782 0)
(0.129726 -0.0631934 0)
(0.149631 -0.0995139 0)
(0.172882 -0.124115 0)
(0.0257981 0.0270819 0)
(0.0480319 0.0363003 0)
(0.0960702 0.0259359 0)
(0.137993 0.00517982 0)
(0.175872 -0.0226298 0)
(0.210008 -0.0550065 0)
(0.237833 -0.0876903 0)
(0.260379 -0.118629 0)
(0.278523 -0.139256 0)
)
;

boundaryField
{
    inlet
    {
        type            fixedValue;
        value           nonuniform 0();
    }
    outlet
    {
        type            zeroGradient;
    }
    fixedWalls
    {
        type            fixedValue;
        value           uniform (0 0 0);
    }
    frontAndBack
    {
        type            empty;
    }
    procBoundary0to1
    {
        type            processor;
        value           nonuniform List<vector> 9((0.182554 -0.00534179 0) (0.200689 -0.0139822 0) (0.234973 -0.0248197 0) (0.272014 -0.0410889 0) (0.306541 -0.0625318 0) (0.33773 -0.0879058 0) (0.35989 -0.112606 0) (0.378435 -0.135912 0) (0.384193 -0.148215 0));
    }
}


// ************************************************************************* //
