/*--------------------------------*- C++ -*----------------------------------*\
| =========                 |                                                 |
| \\      /  F ield         | OpenFOAM Extend Project: Open source CFD        |
|  \\    /   O peration     | Version:  1.6-ext                               |
|   \\  /    A nd           | Web:      www.extend-project.de                 |
|    \\/     M anipulation  |                                                 |
\*---------------------------------------------------------------------------*/
FoamFile
{
    version     2.0;
    format      ascii;
    class       surfaceScalarField;
    location    "1.7";
    object      phi;
}
// * * * * * * * * * * * * * * * * * * * * * * * * * * * * * * * * * * * * * //

dimensions      [0 3 -1 0 0 0 0];

internalField   nonuniform List<scalar> 
123
(
3.9454e-05
0.000226439
5.71119e-05
0.000500842
4.9453e-05
0.000584987
2.96813e-05
0.000574003
9.98308e-06
0.000519146
-7.64103e-07
0.000407134
0.000187448
0.000251154
-3.00609e-05
0.00028567
-9.20522e-05
0.000309687
-0.000152042
0.000319675
-0.000192833
0.000318753
-0.000204717
0.00031158
-0.00019113
0.000302395
-0.000162435
0.000294233
-0.000129846
-9.4116e-05
0.000487486
-1.6705e-05
0.000478136
-8.27019e-05
0.00046293
-0.000136836
0.000439212
-0.000169115
0.000409954
-0.000175459
0.000380004
-0.000161181
0.000353342
-0.000135774
0.00033201
-0.000108513
-7.94147e-05
0.000578761
-1.04792e-05
0.000561446
-6.5387e-05
0.000532681
-0.000108071
0.000495042
-0.000131476
0.000453631
-0.000134049
0.00041373
-0.00012128
0.000379091
-0.000101134
0.000351178
-8.06007e-05
-5.98967e-05
0.000576341
-1.28169e-05
0.000561775
-5.08213e-05
0.000532806
-7.9102e-05
0.000493829
-9.24987e-05
0.000450971
-9.11905e-05
0.00040982
-8.01291e-05
0.000374092
-6.54061e-05
0.000345005
-5.15139e-05
-3.91736e-05
0.000521167
-1.48382e-05
0.000506565
-3.62188e-05
0.000477552
-5.00891e-05
0.000439427
-5.43735e-05
0.00039874
-5.05038e-05
0.000360822
-4.22116e-05
0.000328656
-3.324e-05
0.000302836
-2.56938e-05
-2.05357e-05
0.00040228
-9.98431e-06
0.000382955
-1.68938e-05
0.000352934
-2.00676e-05
0.000318078
-1.95173e-05
0.000284101
-1.65266e-05
0.000254663
-1.27743e-05
0.000230971
-9.54784e-06
0.000212619
-7.34152e-06
-6.85051e-06
0.000177464
0.00016057
0.000140502
0.000120985
0.000104458
9.1684e-05
8.21362e-05
7.47947e-05
)
;

boundaryField
{
    inlet
    {
        type            calculated;
        value           nonuniform 0();
    }
    outlet
    {
        type            calculated;
        value           nonuniform List<scalar> 7(0.000288261 0.000317309 0.00033166 0.000324282 0.000284198 0.000198934 6.79442e-05);
    }
    fixedWalls
    {
        type            calculated;
        value           uniform 0;
    }
    frontAndBack
    {
        type            empty;
    }
    procBoundary1to2
    {
        type            processor;
        value           nonuniform List<scalar> 7(-0.000265893 -0.0005185 -0.000577328 -0.000554231 -0.000499448 -0.000396387 -0.000188212);
    }
    procBoundary1to0
    {
        type            processor;
        value           nonuniform List<scalar> 9(5.34648e-06 5.75362e-05 0.000128025 0.000182845 0.000205639 0.000198303 0.00017162 0.000138007 0.000100088);
    }
}


// ************************************************************************* //
