/*--------------------------------*- C++ -*----------------------------------*\
| =========                 |                                                 |
| \\      /  F ield         | OpenFOAM Extend Project: Open source CFD        |
|  \\    /   O peration     | Version:  1.6-ext                               |
|   \\  /    A nd           | Web:      www.extend-project.de                 |
|    \\/     M anipulation  |                                                 |
\*---------------------------------------------------------------------------*/
FoamFile
{
    version     2.0;
    format      ascii;
    class       volVectorField;
    location    "1.7";
    object      U;
}
// * * * * * * * * * * * * * * * * * * * * * * * * * * * * * * * * * * * * * //

dimensions      [0 1 -1 0 0 0 0];

internalField   nonuniform List<vector> 
70
(
(0.211038 0.0349827 0)
(0.512573 0.0532485 0)
(0.589767 0.0617013 0)
(0.570286 0.0401617 0)
(0.513284 0.0177702 0)
(0.404865 0.00118323 0)
(0.189604 -0.00309558 0)
(0.231068 -0.0335116 0)
(0.268924 -0.0891404 0)
(0.303946 -0.150811 0)
(0.320756 -0.196242 0)
(0.322073 -0.212206 0)
(0.315424 -0.200703 0)
(0.305805 -0.171937 0)
(0.297766 -0.137779 0)
(0.287817 -0.0997356 0)
(0.493511 -0.0225272 0)
(0.485201 -0.0886815 0)
(0.475795 -0.146645 0)
(0.455422 -0.183844 0)
(0.425807 -0.193375 0)
(0.393956 -0.17941 0)
(0.36431 -0.151966 0)
(0.341787 -0.121582 0)
(0.318424 -0.088491 0)
(0.5869 -0.00799726 0)
(0.574573 -0.070516 0)
(0.552012 -0.120795 0)
(0.517305 -0.149832 0)
(0.474989 -0.154968 0)
(0.432467 -0.141803 0)
(0.393864 -0.119194 0)
(0.364442 -0.0953868 0)
(0.333739 -0.07037 0)
(0.580737 -0.0112357 0)
(0.574213 -0.0576624 0)
(0.551996 -0.0932744 0)
(0.516288 -0.111743 0)
(0.47299 -0.112409 0)
(0.42941 -0.100504 0)
(0.389702 -0.0830865 0)
(0.359091 -0.0659179 0)
(0.326848 -0.0494699 0)
(0.524995 -0.0152795 0)
(0.518696 -0.044648 0)
(0.495978 -0.0651669 0)
(0.460645 -0.0733444 0)
(0.419283 -0.0701378 0)
(0.378768 -0.0600233 0)
(0.34285 -0.0480068 0)
(0.315279 -0.037311 0)
(0.28683 -0.0289148 0)
(0.408531 -0.0149777 0)
(0.396196 -0.027678 0)
(0.370375 -0.0343715 0)
(0.336349 -0.0345306 0)
(0.300599 -0.0299962 0)
(0.268244 -0.0236403 0)
(0.241431 -0.0178289 0)
(0.22125 -0.0135497 0)
(0.201248 -0.0117573 0)
(0.184235 -0.00658186 0)
(0.170265 -0.00836887 0)
(0.151022 -0.00827945 0)
(0.13055 -0.00687125 0)
(0.112152 -0.00500834 0)
(0.0974359 -0.00337315 0)
(0.0863874 -0.00231431 0)
(0.078201 -0.00187375 0)
(0.0695859 -0.00234908 0)
)
;

boundaryField
{
    inlet
    {
        type            fixedValue;
        value           nonuniform 0();
    }
    outlet
    {
        type            zeroGradient;
    }
    fixedWalls
    {
        type            fixedValue;
        value           uniform (0 0 0);
    }
    frontAndBack
    {
        type            empty;
    }
    procBoundary1to2
    {
        type            processor;
        value           nonuniform List<vector> 7((0.363491 0.158146 0) (0.543538 0.154043 0) (0.567762 0.137369 0) (0.53547 0.0916018 0) (0.482336 0.0493641 0) (0.385544 0.0169518 0) (0.184887 0.00104075 0));
    }
    procBoundary1to0
    {
        type            processor;
        value           nonuniform List<vector> 9((0.0412592 0.0251779 0) (0.0805237 -0.0282034 0) (0.137711 -0.108871 0) (0.178593 -0.171131 0) (0.205482 -0.199323 0) (0.223547 -0.195648 0) (0.235601 -0.171064 0) (0.244163 -0.138129 0) (0.249687 -0.100573 0));
    }
}


// ************************************************************************* //
