/*--------------------------------*- C++ -*----------------------------------*\
| =========                 |                                                 |
| \\      /  F ield         | OpenFOAM Extend Project: Open source CFD        |
|  \\    /   O peration     | Version:  1.6-ext                               |
|   \\  /    A nd           | Web:      www.extend-project.de                 |
|    \\/     M anipulation  |                                                 |
\*---------------------------------------------------------------------------*/
FoamFile
{
    version     2.0;
    format      ascii;
    class       volSymmTensorField;
    location    "0.8";
    object      DSigma;
}
// * * * * * * * * * * * * * * * * * * * * * * * * * * * * * * * * * * * * * //

dimensions      [1 -1 -2 0 0 0 0];

internalField   nonuniform List<symmTensor> 
328
(
(0.0943561 0.0167572 7.76563e-24 0.0336916 -7.53746e-21 0.0512191)
(0.0727994 0.00562622 -1.61509e-26 0.0405089 -7.67525e-26 0.0453233)
(0.0652067 -0.00816593 1.20028e-24 0.0370765 -8.38899e-25 0.0409133)
(0.0652653 -0.0140371 6.02103e-24 0.0233085 -1.47254e-20 0.0354295)
(0.0884049 0.0115007 -1.18882e-23 0.0208018 2.12085e-20 0.0436827)
(0.0729167 0.00498922 5.94512e-24 0.0277605 2.47252e-24 0.0402709)
(0.0653735 -0.0065039 9.80069e-24 0.0265543 -5.71007e-24 0.0367711)
(0.060276 -0.0098472 1.98685e-23 0.0136516 1.0193e-20 0.029571)
(0.0870443 0.00719667 2.90698e-26 0.013299 -1.6412e-22 0.0401373)
(0.0769305 0.00405291 -5.54326e-24 0.0205298 -2.30539e-24 0.0389841)
(0.0688142 -0.00485053 -8.04088e-24 0.0203362 3.71693e-24 0.0356602)
(0.0587211 -0.00627556 -2.09317e-23 0.00786107 -1.03287e-20 0.0266329)
(0.0851693 0.00413411 1.609e-24 0.00812676 7.28734e-22 0.0373184)
(0.077884 0.00291238 3.15149e-24 0.0138638 2.3787e-24 0.0366991)
(0.0697775 -0.00325853 0 0.0144988 0 0.0337105)
(0.0569896 -0.00365996 1.6672e-25 0.00380882 -6.0409e-22 0.0243194)
(0.0844699 0.00212342 5.26508e-24 0.00515217 -2.1892e-20 0.0358488)
(0.079034 0.00183703 0 0.00939821 0 0.0353729)
(0.0708882 -0.00193259 6.25048e-24 0.0104686 -4.02723e-24 0.0325427)
(0.0562504 -0.00189476 -1.16821e-23 0.00141155 -5.29107e-21 0.0230648)
(0.0840682 0.000856973 -1.77491e-22 0.00339735 1.73774e-20 0.0349862)
(0.0792568 0.000946672 -9.87696e-24 0.00595452 -5.54295e-24 0.0340845)
(0.0712029 -0.000899891 -7.80158e-23 0.00732305 1.75009e-23 0.0314104)
(0.0558476 -0.000750045 4.95188e-24 -3.88972e-05 8.26528e-21 0.0223235)
(0.0840845 0.000119088 2.02065e-22 0.00249361 -1.99989e-20 0.0346313)
(0.0792755 0.000299088 0 0.00361949 0 0.033158)
(0.0713101 -0.000176587 6.56409e-23 0.00515578 -1.27332e-23 0.0305863)
(0.0558382 -6.00149e-05 5.32864e-24 -0.000813949 -1.44241e-20 0.0220097)
(0.0842905 -0.00026739 2.70323e-22 0.00207685 1.75825e-20 0.034547)
(0.0789841 -0.0001158 0 0.0020049 0 0.0323956)
(0.0711243 0.000281562 0 0.0036499 0 0.0299097)
(0.0560297 0.000318682 1.68368e-22 -0.0011881 2.12509e-21 0.0219366)
(0.0846228 -0.000424436 -4.71624e-22 0.00195251 5.56143e-21 0.0346301)
(0.0785902 -0.000332699 2.5533e-23 0.000981692 3.23891e-24 0.0318287)
(0.0708247 0.000526094 -2.11029e-22 0.00269242 -4.40347e-24 0.0294068)
(0.0563532 0.000488656 -1.86e-22 -0.0013128 1.11514e-20 0.0220162)
(0.0849875 -0.000442713 3.29958e-22 0.0019809 -8.38469e-21 0.0347874)
(0.0781298 -0.000402392 0 0.000362276 0 0.0313968)
(0.0704494 0.000618507 1.94113e-22 0.0021162 -3.15559e-24 0.0290262)
(0.0567217 0.000529311 -2.48676e-22 -0.00130052 6.86799e-21 0.0221685)
(0.0853341 -0.000384072 -6.30539e-22 0.00208158 -2.77917e-22 0.0349663)
(0.0776762 -0.000374277 0 2.9787e-05 0 0.0310824)
(0.0700678 0.000613114 0 0.00181143 0 0.0287517)
(0.0570847 0.000496822 1.49602e-22 -0.00121897 -1.3065e-20 0.0223463)
(0.0856234 -0.000290877 -1.60353e-22 0.00220437 5.09475e-21 0.0351311)
(0.0772555 -0.000291351 6.04658e-22 -0.000120464 1.91434e-22 0.030854)
(0.0697082 0.000555472 6.5699e-23 0.0016792 1.32589e-23 0.028555)
(0.057405 0.00043087 -2.69639e-24 -0.0011122 3.74045e-21 0.0225171)
(0.0858363 -0.00018968 6.28218e-22 0.002322 -3.68055e-21 0.0352633)
(0.0768868 -0.000185746 -5.55836e-22 -0.000160642 -1.64843e-22 0.0306905)
(0.0693916 0.00047871 1.22717e-22 0.00164983 8.52159e-24 0.0284166)
(0.0576642 0.000357044 -7.13124e-22 -0.00100537 -1.53184e-21 0.0226635)
(0.0859649 -9.57434e-05 -1.78982e-22 0.00242078 -6.02498e-21 0.0353543)
(0.0765717 -7.88126e-05 0 -0.000143558 0 0.0305712)
(0.0691223 0.000404679 -5.86468e-22 0.00167233 -1.25189e-22 0.0283178)
(0.0578559 0.000290509 9.68585e-22 -0.000911776 -5.31626e-21 0.0227776)
(0.0860102 -1.60593e-05 9.52429e-22 0.00249599 -3.58697e-21 0.0354025)
(0.0763038 1.77321e-05 5.19813e-22 -0.000102554 1.77515e-22 0.0304805)
(0.0688967 0.00034541 4.11245e-22 0.00171434 9.19662e-23 0.0282444)
(0.057983 0.000238569 6.87993e-23 -0.000836418 7.73284e-21 0.0228586)
(0.0859778 4.78103e-05 -7.31617e-22 0.00254811 8.09343e-21 0.0354103)
(0.0760707 9.94296e-05 7.45028e-23 -5.73227e-05 4.56119e-23 0.0304054)
(0.0687052 0.000305763 0 0.00175683 0 0.0281848)
(0.0580534 0.000203295 -4.90478e-22 -0.000779259 -6.21897e-21 0.0229096)
(0.0858742 9.75346e-05 1.67507e-21 0.00258026 -6.98954e-21 0.0353818)
(0.0758577 0.000166657 -6.72397e-22 -1.7298e-05 -2.56441e-22 0.0303362)
(0.0685356 0.000285901 -2.93327e-22 0.00179079 -8.61589e-23 0.0281305)
(0.0580775 0.000183583 3.01409e-22 -0.000737397 -6.60499e-21 0.022936)
(0.0857052 0.00013629 -1.17362e-21 0.0025965 5.69945e-21 0.0353207)
(0.0756496 0.000222417 -7.33262e-22 1.45123e-05 -3.1545e-22 0.0302656)
(0.0683754 0.000283507 3.45521e-22 0.00181337 1.38922e-22 0.0280755)
(0.0580657 0.000176842 1.18579e-24 -0.000706779 -9.01304e-22 0.0229435)
(0.0854734 0.00016758 8.0304e-22 0.00260065 -2.8656e-21 0.0352296)
(0.0754322 0.000270689 -7.9844e-22 3.86977e-05 -3.86006e-22 0.0301884)
(0.0682132 0.000295416 0 0.00182515 0 0.0280153)
(0.0580269 0.000180127 -1.22884e-21 -0.000683191 5.83141e-21 0.0229375)
(0.0851778 0.000194519 1.80902e-21 0.00259571 1.10955e-21 0.0351094)
(0.0751928 0.000315339 0 5.75089e-05 0 0.0301001)
(0.0680391 0.000318638 0 0.00182813 0 0.0279469)
(0.0579685 0.000190839 1.67958e-21 -0.000662912 7.06956e-21 0.0229223)
(0.0848137 0.000219576 1.07938e-21 0.00258362 8.35509e-21 0.0349589)
(0.0749197 0.00035959 0 7.33428e-05 0 0.0299972)
(0.0678447 0.000350833 0 0.00182432 0 0.0278676)
(0.0578959 0.000206992 -1.27362e-21 -0.00064286 -5.03595e-21 0.0229012)
(0.0843728 0.000244309 -3.43256e-21 0.00256529 -4.86751e-21 0.0347752)
(0.0746027 0.00040577 1.71345e-21 8.87466e-05 1.01253e-21 0.0298766)
(0.0676235 0.000390412 -1.57544e-22 0.00181562 -1.30392e-22 0.0277756)
(0.0578138 0.000227226 -1.54314e-22 -0.000620344 2.41275e-21 0.0228774)
(0.0838212 0.000270214 -1.63269e-21 0.00253992 -2.06418e-22 0.0345444)
(0.0742154 0.000456055 1.75022e-22 0.000105454 9.69082e-23 0.0297284)
(0.0673582 0.000436894 2.76006e-21 0.0018016 1.75097e-21 0.0276639)
(0.0577203 0.000251018 3.35739e-24 -0.000593304 -1.71801e-21 0.0228508)
(0.0831601 0.000299037 1.64574e-22 0.00250833 4.86436e-21 0.0342674)
(0.0737599 0.000514193 1.78339e-21 0.000125942 1.2231e-21 0.0295543)
(0.0670524 0.000492788 -1.40177e-21 0.00178388 -1.04244e-21 0.0275345)
(0.0576233 0.000279228 -1.14359e-21 -0.000560156 -1.35517e-20 0.0228252)
(0.0824197 0.000327832 -3.88434e-21 0.00247043 -6.21966e-21 0.033956)
(0.0732584 0.000574141 2.05674e-22 0.000148421 9.56963e-23 0.0293627)
(0.0667232 0.000551389 2.06324e-22 0.00176343 8.40287e-23 0.0273947)
(0.057535 0.000308532 2.86881e-21 -0.000520715 9.63197e-21 0.0228057)
(0.0816005 0.000356196 -1.86694e-24 0.00242686 7.86177e-22 0.0336109)
(0.0727114 0.000634625 4.08889e-21 0.000173883 3.41257e-21 0.0291541)
(0.0663716 0.000610945 3.63374e-21 0.00174067 3.23451e-21 0.0272449)
(0.057457 0.000338079 -2.44688e-24 -0.000475018 1.03208e-21 0.0227928)
(0.0807011 0.000383658 -4.93753e-21 0.00237733 -3.17989e-21 0.0332314)
(0.0721183 0.000694436 2.80867e-22 0.000202275 4.77949e-22 0.0289282)
(0.0659976 0.000670124 -3.63374e-21 0.00171555 -3.2345e-21 0.0270853)
(0.0573903 0.00036735 -2.58832e-24 -0.000422808 1.03646e-21 0.022787)
(0.0797226 0.000409645 1.07076e-23 0.00232203 -4.08406e-21 0.0328178)
(0.0714794 0.000752109 -1.08684e-22 0.000233683 1.57994e-22 0.0286852)
(0.0656011 0.000727398 -3.8861e-21 0.0016882 -3.71034e-21 0.0269157)
(0.0573346 0.000395719 7.01141e-21 -0.000364109 1.20797e-20 0.0227882)
(0.0786666 0.000433581 -5.37438e-22 0.0022612 4.14574e-21 0.0323711)
(0.0707953 0.000806199 -9.57242e-21 0.000267986 -9.32328e-21 0.0284253)
(0.0651817 0.000781302 4.38694e-21 0.00165873 4.75245e-21 0.0267362)
(0.0572882 0.000422584 -4.03903e-21 -0.000299152 9.77174e-21 0.0227956)
(0.0775368 0.000454931 7.95012e-24 0.00219533 -2.79477e-21 0.0318928)
(0.0700669 0.000855357 0 0.000305047 0 0.0281488)
(0.0647389 0.000830473 0 0.00162736 0 0.0265465)
(0.057248 0.000447385 4.40862e-22 -0.000228344 -1.71693e-20 0.0228078)
(0.0763374 0.000473258 -5.63983e-21 0.00212505 2.15974e-21 0.031385)
(0.0692957 0.000898445 1.52159e-22 0.000344643 -2.02407e-22 0.0278561)
(0.0642718 0.00087376 0 0.00159432 0 0.0263465)
(0.0572099 0.000469644 -4.0964e-21 -0.000152281 3.05415e-21 0.0228231)
(0.0750739 0.000488232 5.90994e-21 0.00205114 1.40622e-21 0.03085)
(0.068483 0.000934579 -6.16033e-21 0.000386512 -7.06857e-21 0.0275478)
(0.0637793 0.000910264 0 0.00155993 0 0.0261357)
(0.0571691 0.000488982 -8.50758e-24 -7.1664e-05 2.79937e-21 0.022839)
(0.0737524 0.000499635 -6.81981e-24 0.00197444 2.1754e-21 0.0302908)
(0.0676309 0.000963141 1.72757e-20 0.000430345 2.08835e-20 0.0272245)
(0.0632601 0.000939343 -5.55429e-21 0.00152453 -6.90162e-21 0.0259138)
(0.05712 0.000505122 4.04016e-23 1.27138e-05 -1.29078e-20 0.0228531)
(0.0723795 0.000507355 -7.08599e-21 0.00189582 -4.65696e-21 0.0297101)
(0.066741 0.000983752 -5.99174e-21 0.000475799 -7.30446e-21 0.0268867)
(0.0627129 0.000960598 5.16867e-21 0.00148851 7.37982e-21 0.0256806)
(0.0570565 0.000517882 -1.46667e-20 0.00010002 -1.87961e-20 0.0228626)
(0.070962 0.000511361 -8.45845e-25 0.00181619 2.56279e-22 0.0291113)
(0.0658155 0.00099623 1.25565e-20 0.000522509 1.68114e-20 0.0265352)
(0.0621364 0.000973818 -6.53833e-22 0.00145225 -1.58554e-22 0.0254355)
(0.0569726 0.000527153 4.75587e-21 0.000189401 3.83947e-21 0.0228648)
(0.0695067 0.000511685 -7.44285e-21 0.00173641 -5.35167e-21 0.0284973)
(0.0648564 0.00100054 2.50372e-22 0.000570086 6.80362e-22 0.0261706)
(0.0615292 0.000978946 0 0.00141616 0 0.0251781)
(0.0568619 0.000532888 -5.20562e-21 0.000280003 -9.41735e-22 0.0228568)
(0.0680206 0.000508404 2.15028e-22 0.00165733 -1.86398e-21 0.0278712)
(0.0638657 0.000996761 4.65037e-22 0.000618133 4.29911e-22 0.0257935)
(0.0608899 0.000976025 -5.85329e-21 0.00138064 -9.4033e-21 0.0249082)
(0.0567184 0.000535077 5.39761e-21 0.000370973 8.6383e-21 0.0228357)
(0.0665105 0.000501629 7.47326e-21 0.00157979 9.51766e-21 0.0272361)
(0.0628456 0.000985044 -6.94905e-22 0.00066624 -1.63749e-22 0.0254047)
(0.0602172 0.000965183 -1.93958e-20 0.00134605 -3.09091e-20 0.0246253)
(0.0565359 0.000533746 1.12685e-20 0.000461466 9.74855e-21 0.022799)
(0.0649832 0.000491497 7.74097e-21 0.00150457 4.03098e-21 0.0265951)
(0.061798 0.000965621 -1.51966e-20 0.000713997 -2.25531e-20 0.0250048)
(0.05951 0.000946623 1.33115e-20 0.00131277 2.18006e-20 0.0243291)
(0.0563086 0.000528952 1.19271e-20 0.000550637 1.13842e-20 0.0227437)
(0.0634452 0.000478183 7.9802e-21 0.00143243 5.18769e-21 0.0259511)
(0.0607252 0.00093881 -4.75453e-22 0.000760992 -4.42542e-22 0.0245945)
(0.0587671 0.000920635 -6.76932e-21 0.00128113 -1.12607e-20 0.0240193)
(0.0560309 0.000520786 -6.07768e-21 0.000637645 -4.52176e-21 0.0226674)
(0.0619029 0.0004619 1.76266e-20 0.00136409 1.50799e-20 0.0253068)
(0.059629 0.000905036 -7.46732e-21 0.000806822 -1.24341e-20 0.0241743)
(0.0579874 0.000887619 -6.48805e-21 0.0012514 -1.258e-20 0.0236955)
(0.0556974 0.000509391 6.75973e-21 0.000721662 7.11256e-21 0.0225676)
(0.0603621 0.000442913 -8.69137e-21 0.0013002 -7.20563e-21 0.0246649)
(0.0585114 0.000864857 0 0.000851097 0 0.023745)
(0.05717 0.000848111 1.46478e-20 0.00122385 2.62026e-20 0.0233575)
(0.0553031 0.000494966 7.3903e-24 0.000801885 -1.98904e-21 0.022442)
(0.0588285 0.000421542 -3.64873e-24 0.00124135 9.69472e-22 0.0240279)
(0.0573742 0.000818976 -8.387e-21 0.000893443 -1.43686e-20 0.023307)
(0.0563142 0.000802797 -2.62466e-22 0.00119869 3.02204e-22 0.0230052)
(0.0548436 0.000477778 -7.21607e-21 0.00087756 -1.67663e-21 0.0222885)
(0.0573067 0.000398161 1.68461e-24 0.00118802 -4.43071e-22 0.0233979)
(0.056219 0.00076824 8.387e-21 0.000933517 1.43686e-20 0.022861)
(0.0554194 0.000752508 7.38131e-21 0.00117606 1.45283e-20 0.0226382)
(0.0543153 0.000458159 -7.40143e-21 0.000948009 -9.26482e-21 0.0221053)
(0.055801 0.000373183 7.41045e-22 0.00114057 1.08644e-21 0.0227766)
(0.0550474 0.000713609 2.67477e-22 0.000971008 -3.05108e-22 0.0224074)
(0.0544853 0.000698195 0 0.00115607 0 0.0222566)
(0.0537151 0.000436496 4.91415e-22 0.00101265 -2.63072e-21 0.0218911)
(0.0543146 0.000347045 9.79318e-21 0.00109922 8.98844e-21 0.0221655)
(0.0538606 0.000656112 1.73551e-20 0.00100564 3.20518e-20 0.0219465)
(0.0535118 0.000640883 -1.68131e-20 0.00113878 -3.26691e-20 0.0218602)
(0.0530411 0.000413214 7.27295e-21 0.00107103 8.61834e-21 0.0216449)
(0.0528499 0.00032018 -2.72596e-22 0.00106407 7.50961e-22 0.0215656)
(0.0526597 0.00059679 -9.49237e-21 0.0010372 -1.70721e-20 0.0214788)
(0.052499 0.000581611 -1.99834e-22 0.00112419 -7.57696e-22 0.0214493)
(0.0522921 0.00038875 -8.02923e-21 0.00112281 -8.36117e-21 0.021366)
(0.0514083 0.000292995 1.04691e-20 0.00103508 9.98328e-21 0.0209773)
(0.0514456 0.000536631 1.83577e-20 0.00106549 3.58278e-20 0.0210044)
(0.0514474 0.000521373 -8.66593e-21 0.00111224 -1.80048e-20 0.0210238)
(0.0514679 0.000363528 1.64716e-20 0.00116781 1.33398e-20 0.0210543)
(0.0499905 0.000265849 2.0309e-20 0.00101209 1.87032e-20 0.020401)
(0.0502189 0.00047652 -9.69306e-21 0.00109039 -1.7824e-20 0.0205237)
(0.0503575 0.000461065 0 0.00110284 0 0.0205841)
(0.0505692 0.000337939 -8.4315e-21 0.00120593 -6.99789e-21 0.02071)
(0.0485965 0.00023904 -2.12406e-20 0.000994859 -2.00841e-20 0.0198366)
(0.0489801 0.000417213 -9.13971e-21 0.0011118 -1.84502e-20 0.0200368)
(0.0492301 0.000401453 2.81474e-22 0.00109589 -3.13589e-22 0.0201304)
(0.0495971 0.000312326 8.13651e-21 0.00123722 1.0756e-20 0.0203337)
(0.0472259 0.000212809 2.30091e-24 0.000983101 -5.77845e-22 0.0192836)
(0.0477297 0.000359327 -9.79142e-21 0.00112971 -1.96406e-20 0.0195438)
(0.0480663 0.000343172 -1.82498e-22 0.00109124 -7.52838e-22 0.019663)
(0.0485537 0.000286979 -4.77193e-22 0.00126177 1.90938e-21 0.0199262)
(0.0458775 0.000187346 -1.12159e-20 0.000976496 -1.04424e-20 0.0187416)
(0.0464678 0.000303367 0 0.00114412 0 0.0190448)
(0.0468671 0.000286744 1.86314e-20 0.00108871 4.12872e-20 0.0191823)
(0.0474412 0.000262144 8.51953e-21 0.00127976 9.58159e-21 0.0194884)
(0.0445501 0.000162809 2.80697e-24 0.000974714 -6.99839e-22 0.0182099)
(0.0451946 0.000249765 0 0.00115511 0 0.0185399)
(0.0456337 0.000232621 -1.89822e-20 0.00108816 -4.27858e-20 0.0186888)
(0.0462623 0.000238041 -9.95883e-25 0.0012914 2.4861e-22 0.0190215)
(0.043242 0.00013935 1.08178e-20 0.000977431 1.11106e-20 0.0176878)
(0.0439102 0.000198937 -1.07728e-20 0.00116277 -2.231e-20 0.0180292)
(0.0443675 0.000181236 1.8868e-20 0.00108939 4.38496e-20 0.0181828)
(0.0450201 0.000214881 -1.79178e-20 0.00129696 -2.34178e-20 0.0185268)
(0.0419512 0.000117132 1.17135e-20 0.000984321 1.22619e-20 0.0171742)
(0.0426146 0.000151332 0 0.0011673 0 0.0175128)
(0.0430698 0.000133058 -9.45689e-21 0.00109223 -2.28285e-20 0.0176648)
(0.0437179 0.000192887 9.50345e-21 0.00129675 1.12811e-20 0.0180058)
(0.0406755 9.63478e-05 4.43604e-22 0.000995041 1.09679e-22 0.0166682)
(0.0413076 0.000107467 1.10926e-20 0.0011689 2.37854e-20 0.0169906)
(0.0417422 8.8623e-05 0 0.00109651 0 0.0171355)
(0.0423594 0.000172306 8.92341e-21 0.00129118 1.18899e-20 0.0174602)
(0.0394119 7.72251e-05 -2.36062e-20 0.00100922 -2.49897e-20 0.0161684)
(0.039989 6.79418e-05 0 0.00116787 0 0.0164628)
(0.0403862 4.85471e-05 0 0.00110206 0 0.0165953)
(0.0409488 0.000153419 9.52905e-21 0.0012807 1.25923e-20 0.0168918)
(0.0381571 6.00191e-05 -1.21711e-20 0.00102641 -1.27729e-20 0.0156734)
(0.0386585 3.34209e-05 0 0.00116453 0 0.0159292)
(0.0390037 1.35101e-05 1.03655e-20 0.00110869 2.54694e-20 0.016045)
(0.039491 0.000136527 1.49629e-22 0.00126593 4.44535e-22 0.0163028)
(0.0369071 4.49942e-05 1.20186e-20 0.00104613 1.35639e-20 0.0151813)
(0.0373155 4.58576e-06 0 0.00115929 0 0.0153899)
(0.0375967 -1.57922e-05 -1.03655e-20 0.00111622 -2.54694e-20 0.0154852)
(0.0379913 0.000121934 9.52818e-21 0.00124756 1.35352e-20 0.0156955)
(0.0356573 3.23968e-05 1.33916e-22 0.00106777 7.39879e-22 0.01469)
(0.0359593 -1.79332e-05 -4.31847e-22 0.00115259 -4.10652e-22 0.0148448)
(0.0361671 -3.87171e-05 -1.09419e-20 0.00112447 -2.66166e-20 0.0149166)
(0.0364558 0.000109921 -1.93506e-20 0.00122644 -2.65136e-20 0.0150729)
(0.0344026 2.2422e-05 1.22853e-20 0.00109068 1.42595e-20 0.0141973)
(0.0345892 -3.36382e-05 2.21485e-20 0.00114491 5.46943e-20 0.0142936)
(0.0347173 -5.4757e-05 -3.01762e-22 0.00113323 3.21437e-22 0.0143402)
(0.0348912 0.000100709 -9.66164e-21 0.00120352 -1.38617e-20 0.0144379)
(0.0331373 1.51819e-05 -1.34083e-24 0.00111414 3.29112e-22 0.0137006)
(0.0332043 -4.22444e-05 -1.15033e-20 0.00113676 -2.77557e-20 0.0137364)
(0.0332497 -6.36197e-05 -1.07728e-20 0.00114233 -2.76686e-20 0.0137568)
(0.0333044 9.44279e-05 1.02205e-20 0.00117986 1.41867e-20 0.0137937)
(0.0318559 1.06787e-05 -1.2831e-20 0.00113739 -1.52903e-20 0.0131973)
(0.0318037 -4.37475e-05 0 0.00112868 0 0.0131729)
(0.0317667 -6.52966e-05 0 0.00115157 0 0.0131673)
(0.0317026 9.10868e-05 -1.02207e-20 0.00115656 -1.4156e-20 0.0131437)
(0.0305527 8.78851e-06 -2.31805e-26 0.0011597 5.68175e-24 0.0126849)
(0.0303865 -3.84655e-05 0 0.00112117 0 0.0126031)
(0.0302707 -6.01046e-05 2.18342e-20 0.0011608 5.9324e-20 0.0125726)
(0.0300931 9.05589e-05 -1.07659e-20 0.0011347 -1.47741e-20 0.0124911)
(0.0292226 9.25699e-06 1.23414e-20 0.0011804 1.4822e-20 0.0121612)
(0.0289521 -2.70492e-05 -1.26963e-20 0.00111473 -3.07437e-20 0.0120267)
(0.028764 -4.8698e-05 -1.14421e-20 0.00116986 -2.95344e-20 0.0119736)
(0.0284824 9.25749e-05 -1.0561e-20 0.00111532 -1.52858e-20 0.0118391)
(0.0278614 1.17096e-05 -7.26377e-22 0.00119893 -9.27218e-23 0.0116241)
(0.0274999 -1.046e-05 -4.16475e-22 0.00110982 -4.00398e-22 0.0114439)
(0.0272488 -3.20452e-05 -1.12348e-20 0.00117864 -3.05977e-20 0.011371)
(0.0268765 9.67327e-05 1.0561e-20 0.00109934 1.52851e-20 0.0111904)
(0.0264656 1.5674e-05 7.24657e-22 0.00121489 8.68792e-22 0.0110722)
(0.0260298 1.00858e-05 3.18174e-22 0.00110683 -3.33099e-22 0.0108547)
(0.0257269 -1.1375e-05 -2.24455e-20 0.00118707 -6.37363e-20 0.0107656)
(0.0252806 0.000102519 2.1422e-20 0.00108752 3.14933e-20 0.0105472)
(0.0250332 2.06118e-05 2.64255e-20 0.00122805 3.32907e-20 0.0105045)
(0.0245417 3.31956e-05 -9.02719e-23 0.0011061 -7.34257e-22 0.0102591)
(0.0241999 1.19036e-05 1.14302e-20 0.00119514 3.20687e-20 0.010158)
(0.0236982 0.000109343 9.60381e-27 0.00108042 -2.35013e-24 0.00991143)
(0.0235632 2.59582e-05 1.31416e-20 0.00123838 1.73313e-20 0.00992064)
(0.0230362 5.73978e-05 -1.27496e-20 0.00110788 -3.40006e-20 0.00965762)
(0.0226691 3.6297e-05 0 0.00120288 0 0.00954879)
(0.0221318 0.000116573 1.0927e-20 0.00107837 1.69409e-20 0.00928406)
(0.0220563 3.1161e-05 -1.39535e-20 0.00124608 -1.81384e-20 0.00932097)
(0.0215138 8.12435e-05 1.20099e-20 0.00111234 3.39453e-20 0.00905046)
(0.0211353 6.03308e-05 -1.12698e-20 0.00121037 -3.38915e-20 0.00893828)
(0.0205824 0.000123583 1.14152e-20 0.00108148 1.73639e-20 0.00866556)
(0.0205143 3.57233e-05 1.32236e-20 0.00125153 1.72147e-20 0.00870635)
(0.0199757 0.000103404 -1.24179e-20 0.0011196 -3.43417e-20 0.00843812)
(0.0195991 8.2645e-05 -1.17487e-20 0.00121776 -3.50342e-20 0.00832674)
(0.0190498 0.000129787 -2.20783e-20 0.00108965 -3.46614e-20 0.0080558)
(0.0189401 3.92269e-05 -1.75779e-24 0.00125525 4.29494e-22 0.00807816)
(0.0184232 0.000122747 -1.21537e-20 0.0011297 -3.543e-20 0.00782115)
(0.0180606 0.000102075 2.39024e-20 0.00122524 7.04642e-20 0.00771435)
(0.0175326 0.000134678 2.18077e-20 0.00110257 3.51723e-20 0.00745406)
(0.0173375 4.13606e-05 7.36001e-22 0.00125791 7.74872e-22 0.00743817)
(0.0168577 0.000138379 3.41437e-22 0.0011426 -3.51125e-22 0.00720011)
(0.0165198 0.000117685 0 0.00123304 0 0.00710114)
(0.0160282 0.000137837 -1.07949e-20 0.00111982 -1.77377e-20 0.00685919)
(0.015711 4.18995e-05 -2.65798e-20 0.00126029 -3.7176e-20 0.00678852)
(0.015281 0.000149635 5.05744e-20 0.00115834 1.47769e-19 0.00657573)
(0.0149765 0.000128782 -1.26718e-20 0.00124154 -3.7317e-20 0.00648721)
(0.0145336 0.000138947 -1.15997e-20 0.00114095 -1.84893e-20 0.00626982)
(0.0140651 4.07099e-05 2.70261e-20 0.00126302 3.81134e-20 0.00613123)
(0.0136944 0.000156039 -2.5388e-20 0.0011766 -7.53786e-20 0.0059484)
(0.0134297 0.000134815 2.3497e-20 0.00125087 7.49186e-20 0.00587224)
(0.013045 0.000137732 -2.2947e-20 0.0011653 -3.76079e-20 0.00568412)
(0.0124058 3.76532e-05 -2.71204e-20 0.00126729 -3.88214e-20 0.00546923)
(0.012101 0.000157142 -4.12285e-23 0.00119798 -7.48857e-22 0.00531958)
(0.0118803 0.000135362 -1.20105e-20 0.00126212 -3.87845e-20 0.00525696)
(0.0115594 0.000133981 3.55062e-22 0.00119283 1.12812e-22 0.00510091)
(0.010736 3.26961e-05 1.28386e-20 0.0012729 1.9418e-20 0.00480355)
(0.0104993 0.000152627 -3.91391e-22 0.00122061 -3.87684e-22 0.00468796)
(0.0103243 0.000129843 1.20105e-20 0.00127404 3.87845e-20 0.00463934)
(0.0100703 0.00012737 -9.89406e-25 0.00122199 2.41462e-22 0.0045169)
(0.00906818 2.55524e-05 -1.36506e-20 0.00128345 -2.01928e-20 0.00414065)
(0.00890005 0.000141839 1.28224e-20 0.00124912 4.03121e-20 0.00405967)
(0.00876984 0.000118021 -2.37553e-20 0.00129195 -8.01984e-20 0.00402472)
(0.00857988 0.000117865 2.31647e-20 0.00125519 4.01389e-20 0.00393403)
(0.00739064 1.69802e-05 1.40114e-20 0.00129319 2.02609e-20 0.00347353)
(0.00728273 0.000125187 -1.28224e-20 0.00127108 -4.03121e-20 0.00342152)
(0.0071939 9.82741e-05 2.41666e-20 0.0013045 8.13411e-20 0.00339936)
(0.00706615 0.000104051 -1.14002e-20 0.00128623 -2.01537e-20 0.00334095)
(0.00575785 5.76571e-06 -1.75986e-23 0.00131939 -3.70877e-22 0.0028309)
(0.00571095 0.00010137 0 0.00131707 0 0.00281121)
(0.00565754 7.16466e-05 -2.42039e-20 0.0013429 -8.28511e-20 0.00280017)
(0.00557216 8.7165e-05 -7.55247e-25 0.00133014 1.84293e-22 0.00276092)
(0.00404294 5.16246e-06 1.36915e-20 0.00131834 2.11176e-20 0.00214452)
(0.00402893 7.70546e-05 1.28698e-20 0.0012979 4.25644e-20 0.00213073)
(0.00400338 3.28847e-05 1.21097e-20 0.00131871 4.18031e-20 0.00212883)
(0.00395875 5.60749e-05 -2.25184e-20 0.00133821 -4.22213e-20 0.00211878)
(0.002616 7.36472e-06 1.0717e-23 0.00135779 6.75724e-25 0.00158952)
(0.00268626 3.67769e-05 -6.54295e-21 0.00141086 -4.25385e-20 0.00163885)
(0.00267731 -5.47354e-07 -5.78776e-21 0.00143458 -4.29087e-20 0.00164476)
(0.00258649 2.20043e-05 1.15623e-20 0.00139414 4.27434e-20 0.00159225)
)
;

boundaryField
{
    plateFix
    {
        type            calculated;
        value           nonuniform List<symmTensor> 4((0.0948873 0.0215058 6.77866e-24 0.0340471 -7.53746e-21 0.0515738) (0.0682495 0.00541808 -1.61509e-26 0.0374756 -7.67525e-26 0.04229) (0.0615059 -0.00892123 1.20028e-24 0.0346093 -8.38899e-25 0.0384461) (0.066114 -0.0180374 3.99275e-24 0.0238717 -1.47254e-20 0.0359943));
    }
    plate
    {
        type            calculated;
        value           nonuniform List<symmTensor> 
168
(
(0.0725861 1.73112e-05 6.98985e-24 0.00102142 -1.50039e-20 0.029443)
(0.0503784 1.85967e-05 1.22083e-23 0.00100687 -2.98574e-20 0.0205541)
(0.0752226 1.787e-05 -1.55706e-23 0.00101831 4.24396e-20 0.0304963)
(0.0518332 1.73247e-05 1.61795e-23 0.00100443 2.09057e-20 0.0211351)
(0.0788602 1.87004e-05 5.80348e-26 0.00101647 -3.27649e-22 0.0319507)
(0.0541428 1.65089e-05 -1.77703e-23 0.00100288 -2.10607e-20 0.0220583)
(0.0804309 2.01688e-05 2.33235e-24 0.00101515 1.36539e-21 0.0325784)
(0.0551147 1.61479e-05 2.14268e-25 0.00100164 -7.76372e-22 0.0224465)
(0.0817129 2.31479e-05 1.06698e-23 0.00101417 -4.43645e-20 0.0330908)
(0.0559746 1.72749e-05 -1.08392e-23 0.00100066 -1.07513e-20 0.0227901)
(0.0824798 2.69782e-05 -1.82394e-22 0.00101341 3.51863e-20 0.0333973)
(0.0565393 1.91928e-05 2.2873e-24 0.000999865 1.65355e-20 0.0230157)
(0.0830974 3.1675e-05 2.09128e-22 0.00101277 -3.9999e-20 0.0336441)
(0.0570468 2.18691e-05 1.06579e-23 0.000999189 -2.885e-20 0.0232184)
(0.0835803 3.70376e-05 2.6273e-22 0.0010122 3.53373e-20 0.033837)
(0.0574879 2.5072e-05 1.67376e-22 0.000998591 4.44971e-21 0.0233946)
(0.0839948 4.29784e-05 -4.74466e-22 0.00101169 1.08388e-20 0.0340026)
(0.0578945 2.87059e-05 -1.91595e-22 0.000998056 2.25344e-20 0.023557)
(0.0843402 4.94098e-05 3.34171e-22 0.00101122 -1.6844e-20 0.0341406)
(0.0582547 3.26831e-05 -2.51784e-22 0.000997569 1.33525e-20 0.0237009)
(0.0846193 5.62845e-05 -6.30551e-22 0.0010108 -2.59921e-22 0.034252)
(0.0585631 3.69542e-05 1.58439e-22 0.000997114 -2.61619e-20 0.0238241)
(0.0848266 6.35763e-05 -1.64202e-22 0.00101044 1.04238e-20 0.0343348)
(0.0588118 4.14873e-05 -5.22737e-24 0.000996677 7.25144e-21 0.0239234)
(0.084961 7.12753e-05 6.31556e-22 0.00101013 -7.80465e-21 0.0343885)
(0.0589994 4.62622e-05 -7.11511e-22 0.000996243 -2.85309e-21 0.0239983)
(0.0850238 7.93816e-05 -1.73216e-22 0.00100988 -1.21047e-20 0.0344135)
(0.0591283 5.12687e-05 9.73414e-22 0.0009958 -1.06865e-20 0.0240497)
(0.085019 8.78974e-05 9.56328e-22 0.0010097 -7.49324e-21 0.0344115)
(0.0592047 5.65009e-05 6.13049e-23 0.000995338 1.55393e-20 0.02408)
(0.0849519 9.68246e-05 -7.4085e-22 0.00100958 1.64894e-20 0.0343846)
(0.0592366 6.1959e-05 -4.83697e-22 0.000994853 -1.23989e-20 0.0240926)
(0.084827 0.00010616 1.68434e-21 0.00100951 -1.46732e-20 0.0343346)
(0.0592325 6.76453e-05 3.09671e-22 0.000994344 -1.34684e-20 0.0240907)
(0.0846473 0.00011589 -1.18175e-21 0.00100948 1.18653e-20 0.0342627)
(0.0591998 7.35658e-05 2.54402e-24 0.000993824 -1.93367e-21 0.0240775)
(0.0844128 0.000125998 8.07648e-22 0.00100948 -6.07599e-21 0.0341689)
(0.0591451 7.97252e-05 -1.23822e-21 0.000993323 1.23746e-20 0.0240554)
(0.0841206 0.000136432 1.80902e-21 0.00100944 1.10806e-21 0.034052)
(0.0590729 8.61393e-05 1.66943e-21 0.000992864 1.33145e-20 0.0240263)
(0.0837647 0.000147164 1.06657e-21 0.00100942 1.61406e-20 0.0339096)
(0.0589868 9.28059e-05 -1.26646e-21 0.000992553 -9.2929e-21 0.0239918)
(0.0833359 0.000158039 -3.42754e-21 0.00100919 -7.63049e-21 0.033738)
(0.0588897 9.97553e-05 -1.58959e-22 0.000992476 4.97502e-21 0.0239529)
(0.0828011 0.000169446 -1.63416e-21 0.00100877 5.43505e-22 0.0335239)
(0.0587784 0.00010727 6.75379e-24 0.000992554 -3.45599e-21 0.0239084)
(0.0821609 0.000180854 1.54543e-22 0.00100828 9.63472e-21 0.0332677)
(0.0586599 0.00011493 -1.1161e-21 0.000993088 -2.61381e-20 0.0238612)
(0.0814455 0.000191347 -3.87653e-21 0.00100759 -9.70186e-21 0.0329812)
(0.0585465 0.00012233 2.85233e-21 0.000994453 1.69951e-20 0.0238164)
(0.080655 0.000200924 -3.50971e-24 0.00100675 1.47795e-21 0.0326647)
(0.0584396 0.000129391 -4.6333e-24 0.000996473 1.95431e-21 0.0237744)
(0.0797882 0.000209571 -4.942e-21 0.00100568 -2.3066e-21 0.0323175)
(0.0583403 0.000136133 -5.63891e-24 0.000999289 2.25804e-21 0.0237358)
(0.0788459 0.000217275 2.16453e-23 0.00100447 -8.25591e-21 0.0319401)
(0.0582482 0.000142537 6.99663e-21 0.00100293 1.6472e-20 0.0237005)
(0.0778298 0.00022404 -5.52253e-22 0.00100313 8.55659e-21 0.0315332)
(0.0581617 0.000148586 -4.07757e-21 0.00100738 2.38802e-20 0.0236676)
(0.0767432 0.000229871 1.59048e-23 0.00100177 -5.59112e-21 0.031098)
(0.0580781 0.000154268 4.9427e-22 0.00101268 -3.46333e-20 0.0236363)
(0.07559 0.00023479 -5.66364e-21 0.00100046 1.02381e-20 0.0306362)
(0.0579937 0.000159557 -4.12062e-21 0.00101878 1.12863e-20 0.023605)
(0.0743752 0.000238823 5.92545e-21 0.000999303 -3.68988e-21 0.0301498)
(0.057904 0.00016443 -1.69719e-23 0.00102566 5.5845e-21 0.0235719)
(0.0731045 0.000242009 -1.35882e-23 0.000998416 4.33437e-21 0.0296411)
(0.0578039 0.000168857 8.08371e-23 0.0010333 -2.58264e-20 0.0235349)
(0.0717838 0.000244393 -7.09986e-21 0.000997893 -1.41726e-21 0.0291127)
(0.0576879 0.00017281 -1.46733e-20 0.00104163 -1.53446e-20 0.0234918)
(0.0704194 0.000246027 -1.81309e-24 0.00099783 5.4934e-22 0.0285669)
(0.0575506 0.000176256 4.76936e-21 0.00105063 -2.52718e-22 0.0234405)
(0.0690176 0.000246969 -7.45674e-21 0.000998305 -1.23818e-21 0.0280064)
(0.057386 0.000179165 -5.23055e-21 0.00106022 6.45525e-21 0.0233785)
(0.067585 0.000247279 2.20752e-22 0.000999385 -3.52567e-21 0.0274338)
(0.0571887 0.000181506 5.39421e-21 0.00107034 8.28763e-21 0.0233036)
(0.0661277 0.00024702 7.47636e-21 0.00100112 8.63618e-21 0.0268515)
(0.056953 0.000183254 1.12976e-20 0.00108092 1.46636e-22 0.0232136)
(0.0646521 0.000246256 7.76633e-21 0.00100355 -3.07253e-21 0.0262623)
(0.0566736 0.000184384 1.19632e-20 0.00109187 1.27813e-21 0.0231062)
(0.0631642 0.000245051 8.00442e-21 0.00100668 -1.4954e-21 0.0256684)
(0.0563453 0.000184877 -6.10145e-21 0.00110307 2.04494e-21 0.0229793)
(0.0616698 0.000243465 1.76688e-20 0.00101053 4.36068e-21 0.0250721)
(0.0559632 0.000184723 6.77855e-21 0.00111441 1.98132e-21 0.022831)
(0.0601745 0.000241557 -8.7131e-21 0.00101507 -1.36713e-21 0.0244758)
(0.0555228 0.000183915 1.48944e-23 0.00112574 -4.00871e-21 0.0226594)
(0.0586833 0.000239378 -7.46057e-24 0.00102026 1.98228e-21 0.0238814)
(0.0550202 0.000182455 -7.26157e-21 0.00113692 1.04294e-20 0.0224629)
(0.0572008 0.000236975 3.36892e-24 0.00102605 -8.86065e-22 0.0232907)
(0.054452 0.000180356 -7.42131e-21 0.00114779 -4.02792e-21 0.0222399)
(0.0557307 0.000234387 7.39315e-22 0.00103236 2.00944e-21 0.0227052)
(0.0538155 0.000177638 5.0652e-22 0.0011582 -5.69292e-21 0.0219895)
(0.054276 0.000231647 9.82321e-21 0.00103909 1.22543e-21 0.022126)
(0.0531089 0.000174331 7.30099e-21 0.00116801 5.53978e-22 0.0217107)