/*--------------------------------*- C++ -*----------------------------------*\
| =========                 |                                                 |
| \\      /  F ield         | OpenFOAM Extend Project: Open source CFD        |
|  \\    /   O peration     | Version:  1.6-ext                               |
|   \\  /    A nd           | Web:      www.extend-project.de                 |
|    \\/     M anipulation  |                                                 |
\*---------------------------------------------------------------------------*/
FoamFile
{
    version     2.0;
    format      ascii;
    class       volVectorField;
    location    "0.8";
    object      DU;
}
// * * * * * * * * * * * * * * * * * * * * * * * * * * * * * * * * * * * * * //

dimensions      [0 1 0 0 0 0 0];

internalField   nonuniform List<vector> 
328
(
(2.16593e-09 3.91192e-09 0)
(1.29804e-09 5.92504e-10 0)
(1.15286e-09 -9.0243e-10 0)
(1.50606e-09 -3.24428e-09 0)
(6.61738e-09 1.00505e-08 0)
(4.30256e-09 1.9066e-09 0)
(3.79778e-09 -2.4598e-09 0)
(4.56928e-09 -8.31048e-09 0)
(1.17848e-08 1.47141e-08 0)
(8.33695e-09 3.34159e-09 0)
(7.3179e-09 -3.74036e-09 0)
(8.10896e-09 -1.19831e-08 0)
(1.74266e-08 1.82096e-08 0)
(1.30565e-08 4.7987e-09 0)
(1.14451e-08 -4.62627e-09 0)
(1.19611e-08 -1.44143e-08 0)
(2.36122e-08 2.09114e-08 0)
(1.85251e-08 6.25233e-09 0)
(1.62387e-08 -5.06445e-09 0)
(1.61807e-08 -1.58239e-08 0)
(3.03131e-08 2.31167e-08 0)
(2.46327e-08 7.71903e-09 0)
(2.16106e-08 -5.01511e-09 0)
(2.07524e-08 -1.63715e-08 0)
(3.75637e-08 2.50796e-08 0)
(3.13671e-08 9.25674e-09 0)
(2.75498e-08 -4.4615e-09 0)
(2.5705e-08 -1.61783e-08 0)
(4.53886e-08 2.70061e-08 0)
(3.86904e-08 1.09472e-08 0)
(3.40223e-08 -3.38814e-09 0)
(3.10593e-08 -1.53185e-08 0)
(5.38265e-08 2.90748e-08 0)
(4.65956e-08 1.28909e-08 0)
(4.10196e-08 -1.77716e-09 0)
(3.6845e-08 -1.38313e-08 0)
(6.2917e-08 3.1443e-08 0)
(5.50815e-08 1.51987e-08 0)
(4.85379e-08 4.01871e-10 0)
(4.30917e-08 -1.17212e-08 0)
(7.2703e-08 3.42573e-08 0)
(6.41628e-08 1.79897e-08 0)
(5.6588e-08 3.19595e-09 0)
(4.98302e-08 -8.96287e-09 0)
(8.32285e-08 3.76592e-08 0)
(7.38647e-08 2.13896e-08 0)
(6.51904e-08 6.67322e-09 0)
(5.70917e-08 -5.50125e-09 0)
(9.45394e-08 4.17911e-08 0)
(8.42234e-08 2.55323e-08 0)
(7.43759e-08 1.09252e-08 0)
(6.49083e-08 -1.25296e-09 0)
(1.06684e-07 4.68022e-08 0)
(9.52831e-08 3.05617e-08 0)
(8.41837e-08 1.60685e-08 0)
(7.33135e-08 3.89373e-09 0)
(1.19711e-07 5.28532e-08 0)
(1.07095e-07 3.66364e-08 0)
(9.46596e-08 2.22465e-08 0)
(8.23426e-08 1.00791e-08 0)
(1.33676e-07 6.01223e-08 0)
(1.19716e-07 4.39335e-08 0)
(1.05855e-07 2.96302e-08 0)
(9.20336e-08 1.74727e-08 0)
(1.48634e-07 6.88101e-08 0)
(1.33207e-07 5.26537e-08 0)
(1.17823e-07 3.84206e-08 0)
(1.02428e-07 2.62746e-08 0)
(1.64645e-07 7.91455e-08 0)
(1.47629e-07 6.30265e-08 0)
(1.30623e-07 4.88505e-08 0)
(1.13569e-07 3.67173e-08 0)
(1.81772e-07 9.13903e-08 0)
(1.63047e-07 7.53151e-08 0)
(1.44313e-07 6.11878e-08 0)
(1.25507e-07 4.9069e-08 0)
(2.00079e-07 1.05845e-07 0)
(1.79527e-07 8.98216e-08 0)
(1.58955e-07 7.57394e-08 0)
(1.38292e-07 6.36366e-08 0)
(2.19634e-07 1.22854e-07 0)
(1.97136e-07 1.06892e-07 0)
(1.74612e-07 9.28554e-08 0)
(1.51982e-07 8.07706e-08 0)
(2.40502e-07 1.4281e-07 0)
(2.1594e-07 1.26921e-07 0)
(1.91347e-07 1.12934e-07 0)
(1.66636e-07 1.00869e-07 0)
(2.63599e-07 1.67049e-07 0)
(2.3677e-07 1.5125e-07 0)
(2.0991e-07 1.37321e-07 0)
(1.82916e-07 1.2528e-07 0)
(2.88133e-07 1.95443e-07 0)
(2.58925e-07 1.79753e-07 0)
(2.29686e-07 1.65892e-07 0)
(2.00298e-07 1.53876e-07 0)
(3.12453e-07 2.26236e-07 0)
(2.80923e-07 2.10667e-07 0)
(2.49361e-07 1.9688e-07 0)
(2.17635e-07 1.84891e-07 0)
(3.36538e-07 2.59368e-07 0)
(3.02749e-07 2.43933e-07 0)
(2.68929e-07 2.30227e-07 0)
(2.34929e-07 2.18265e-07 0)
(3.60363e-07 2.94771e-07 0)
(3.24388e-07 2.79483e-07 0)
(2.88384e-07 2.65865e-07 0)
(2.52183e-07 2.5393e-07 0)
(3.83907e-07 3.32368e-07 0)
(3.45827e-07 3.1724e-07 0)
(3.07717e-07 3.03715e-07 0)
(2.69397e-07 2.91809e-07 0)
(4.07147e-07 3.7207e-07 0)
(3.6705e-07 3.57115e-07 0)
(3.26925e-07 3.43692e-07 0)
(2.86573e-07 3.31814e-07 0)
(4.3006e-07 4.13782e-07 0)
(3.88044e-07 3.99012e-07 0)
(3.45999e-07 3.85697e-07 0)
(3.03714e-07 3.7385e-07 0)
(4.52627e-07 4.57398e-07 0)
(4.08794e-07 4.42826e-07 0)
(3.64933e-07 4.29626e-07 0)
(3.20818e-07 4.17811e-07 0)
(4.74827e-07 5.02806e-07 0)
(4.29289e-07 4.88443e-07 0)
(3.8372e-07 4.75365e-07 0)
(3.37886e-07 4.63585e-07 0)
(4.96645e-07 5.49887e-07 0)
(4.49516e-07 5.35743e-07 0)
(4.02353e-07 5.22795e-07 0)
(3.54914e-07 5.11053e-07 0)
(5.18064e-07 5.98518e-07 0)
(4.69463e-07 5.84603e-07 0)
(4.20825e-07 5.71791e-07 0)
(3.71901e-07 5.60092e-07 0)
(5.3907e-07 6.48571e-07 0)
(4.89119e-07 6.34894e-07 0)
(4.39126e-07 6.22225e-07 0)
(3.88839e-07 6.10575e-07 0)
(5.59651e-07 6.99917e-07 0)
(5.08474e-07 6.86486e-07 0)
(4.57248e-07 6.73967e-07 0)
(4.05722e-07 6.62372e-07 0)
(5.79798e-07 7.52425e-07 0)
(5.27519e-07 7.39246e-07 0)
(4.75184e-07 7.26885e-07 0)
(4.22542e-07 7.15352e-07 0)
(5.99503e-07 8.05965e-07 0)
(5.46244e-07 7.93045e-07 0)
(4.92922e-07 7.80848e-07 0)
(4.39288e-07 7.69385e-07 0)
(6.1876e-07 8.60408e-07 0)
(5.64643e-07 8.47752e-07 0)
(5.10453e-07 8.35726e-07 0)
(4.55948e-07 8.24342e-07 0)
(6.37565e-07 9.15628e-07 0)
(5.82708e-07 9.0324e-07 0)
(5.27767e-07 8.91393e-07 0)
(4.72509e-07 8.80097e-07 0)
(6.55915e-07 9.71504e-07 0)
(6.00431e-07 9.59386e-07 0)
(5.44853e-07 9.47724e-07 0)
(4.88957e-07 9.36528e-07 0)
(6.7381e-07 1.02792e-06 0)
(6.17809e-07 1.01607e-06 0)
(5.617e-07 1.0046e-06 0)
(5.05274e-07 9.93517e-07 0)
(6.91251e-07 1.08476e-06 0)
(6.34834e-07 1.07319e-06 0)
(5.78297e-07 1.06192e-06 0)
(5.21444e-07 1.05095e-06 0)
(7.08239e-07 1.14193e-06 0)
(6.51503e-07 1.13063e-06 0)
(5.94632e-07 1.11956e-06 0)
(5.37447e-07 1.10873e-06 0)
(7.2478e-07 1.19932e-06 0)
(6.67811e-07 1.18831e-06 0)
(6.10694e-07 1.17745e-06 0)
(5.53264e-07 1.16676e-06 0)
(7.40877e-07 1.25687e-06 0)
(6.83755e-07 1.24612e-06 0)
(6.2647e-07 1.23548e-06 0)
(5.68876e-07 1.22495e-06 0)
(7.56537e-07 1.31447e-06 0)
(6.99332e-07 1.304e-06 0)
(6.41949e-07 1.29358e-06 0)
(5.8426e-07 1.28323e-06 0)
(7.71764e-07 1.37208e-06 0)
(7.14537e-07 1.36188e-06 0)
(6.57118e-07 1.35169e-06 0)
(5.99397e-07 1.34152e-06 0)
(7.86566e-07 1.42963e-06 0)
(7.2937e-07 1.41971e-06 0)
(6.71967e-07 1.40975e-06 0)
(6.14265e-07 1.39977e-06 0)
(8.00948e-07 1.48708e-06 0)
(7.43826e-07 1.47742e-06 0)
(6.86483e-07 1.4677e-06 0)
(6.28844e-07 1.45793e-06 0)
(8.14917e-07 1.54439e-06 0)
(7.57904e-07 1.535e-06 0)
(7.00655e-07 1.52552e-06 0)
(6.43114e-07 1.51597e-06 0)
(8.28479e-07 1.60153e-06 0)
(7.716e-07 1.5924e-06 0)
(7.14472e-07 1.58317e-06 0)
(6.57056e-07 1.57385e-06 0)
(8.4164e-07 1.65848e-06 0)
(7.84913e-07 1.64961e-06 0)
(7.27924e-07 1.64063e-06 0)
(6.70649e-07 1.63155e-06 0)
(8.54405e-07 1.71522e-06 0)
(7.9784e-07 1.70662e-06 0)
(7.41e-07 1.6979e-06 0)
(6.83878e-07 1.68907e-06 0)
(8.66779e-07 1.77176e-06 0)
(8.10377e-07 1.76342e-06 0)
(7.5369e-07 1.75496e-06 0)
(6.96723e-07 1.74639e-06 0)
(8.78766e-07 1.82811e-06 0)
(8.22524e-07 1.82002e-06 0)
(7.65985e-07 1.81183e-06 0)
(7.09169e-07 1.80353e-06 0)
(8.9037e-07 1.88426e-06 0)
(8.34276e-07 1.87643e-06 0)
(7.77876e-07 1.86851e-06 0)
(7.212e-07 1.86048e-06 0)
(9.01592e-07 1.94024e-06 0)
(8.4563e-07 1.93267e-06 0)
(7.89354e-07 1.92502e-06 0)
(7.32803e-07 1.91728e-06 0)
(9.12435e-07 1.99607e-06 0)
(8.56584e-07 1.98876e-06 0)
(8.00412e-07 1.98139e-06 0)
(7.43965e-07 1.97394e-06 0)
(9.22899e-07 2.05178e-06 0)
(8.67134e-07 2.04474e-06 0)
(8.11042e-07 2.03764e-06 0)
(7.54674e-07 2.03049e-06 0)
(9.32982e-07 2.10741e-06 0)
(8.77276e-07 2.10062e-06 0)
(8.21238e-07 2.0938e-06 0)
(7.64922e-07 2.08696e-06 0)
(9.42682e-07 2.16297e-06 0)
(8.87006e-07 2.15645e-06 0)
(8.30993e-07 2.14992e-06 0)
(7.747e-07 2.14338e-06 0)
(9.51996e-07 2.21853e-06 0)
(8.96319e-07 2.21227e-06 0)
(8.40303e-07 2.20603e-06 0)
(7.84003e-07 2.1998e-06 0)
(9.60917e-07 2.2741e-06 0)
(9.0521e-07 2.26811e-06 0)
(8.49163e-07 2.26216e-06 0)
(7.92828e-07 2.25624e-06 0)
(9.69437e-07 2.32972e-06 0)
(9.13673e-07 2.32401e-06 0)
(8.57569e-07 2.31835e-06 0)
(8.01172e-07 2.31274e-06 0)
(9.7755e-07 2.38542e-06 0)
(9.21704e-07 2.37999e-06 0)
(8.65519e-07 2.37463e-06 0)
(8.09036e-07 2.36934e-06 0)
(9.85244e-07 2.44123e-06 0)
(9.29296e-07 2.43609e-06 0)
(8.73011e-07 2.43102e-06 0)
(8.1642e-07 2.42605e-06 0)
(9.9251e-07 2.49717e-06 0)
(9.36443e-07 2.49232e-06 0)
(8.80042e-07 2.48756e-06 0)
(8.23329e-07 2.48289e-06 0)
(9.99337e-07 2.55326e-06 0)
(9.4314e-07 2.5487e-06 0)
(8.86611e-07 2.54425e-06 0)
(8.29764e-07 2.53989e-06 0)
(1.00571e-06 2.6095e-06 0)
(9.49381e-07 2.60525e-06 0)
(8.92718e-07 2.6011e-06 0)
(8.3573e-07 2.59706e-06 0)
(1.01163e-06 2.6659e-06 0)
(9.5516e-07 2.66196e-06 0)
(8.98361e-07 2.65812e-06 0)
(8.41231e-07 2.65438e-06 0)
(1.01708e-06 2.72246e-06 0)
(9.60472e-07 2.71883e-06 0)
(9.03541e-07 2.7153e-06 0)
(8.46272e-07 2.71187e-06 0)
(1.02205e-06 2.77916e-06 0)
(9.65313e-07 2.77585e-06 0)
(9.08255e-07 2.77263e-06 0)
(8.50855e-07 2.76951e-06 0)
(1.02653e-06 2.836e-06 0)
(9.69678e-07 2.83301e-06 0)
(9.12504e-07 2.83011e-06 0)
(8.54983e-07 2.8273e-06 0)
(1.03052e-06 2.89295e-06 0)
(9.73563e-07 2.8903e-06 0)
(9.16287e-07 2.88771e-06 0)
(8.58658e-07 2.8852e-06 0)
(1.03401e-06 2.95001e-06 0)
(9.76967e-07 2.94769e-06 0)
(9.19602e-07 2.94542e-06 0)
(8.61881e-07 2.94322e-06 0)
(1.037e-06 3.00715e-06 0)
(9.79885e-07 3.00515e-06 0)
(9.22448e-07 3.00321e-06 0)
(8.64651e-07 3.00132e-06 0)
(1.03948e-06 3.06434e-06 0)
(9.82317e-07 3.06268e-06 0)
(9.24822e-07 3.06106e-06 0)
(8.66967e-07 3.05948e-06 0)
(1.04146e-06 3.12157e-06 0)
(9.84262e-07 3.12025e-06 0)
(9.26727e-07 3.11895e-06 0)
(8.68828e-07 3.11768e-06 0)
(1.04293e-06 3.17881e-06 0)
(9.85712e-07 3.17783e-06 0)
(9.28148e-07 3.17685e-06 0)
(8.70221e-07 3.17589e-06 0)
(1.04392e-06 3.23605e-06 0)
(9.86695e-07 3.2354e-06 0)
(9.29114e-07 3.23475e-06 0)
(8.71167e-07 3.23411e-06 0)
(1.04437e-06 3.29331e-06 0)
(9.87142e-07 3.29296e-06 0)
(9.29551e-07 3.29261e-06 0)
(8.71587e-07 3.29228e-06 0)
)
;

boundaryField
{
    plateFix
    {
        type            fixedDisplacement;
        value           uniform (0 0 0);
    }
    plate
    {
        type            solidTraction;
        nonLinear       updatedLagrangian;
        traction        nonuniform List<vector> 
168
(
(-1.12566e-06 7.0613e-05 -1.7652e-23)
(4.20486e-06 -7.37128e-05 -3.62772e-20)
(-0.000132567 -6.44391e-05 -4.02501e-20)
(-0.000117523 5.52956e-05 4.56991e-20)
(-0.00058439 -0.000244322 2.49139e-21)
(-0.000548818 0.000230373 0)
(-0.00128954 -0.000389528 -5.37438e-23)
(-0.00122674 0.000372824 0)
(-0.00219395 -0.000480857 7.53976e-20)
(-0.0020999 0.000462992 1.79056e-23)
(-0.00324752 -0.000521041 -3.20498e-20)
(-0.00312004 0.000502956 0)
(-0.00439883 -0.00052272 0)
(-0.00423719 0.00050469 0)
(-0.00560305 -0.000500315 -2.94115e-20)
(-0.00540752 0.000482081 2.879e-23)
(-0.00682521 -0.000465968 2.69827e-20)
(-0.00659653 0.000446939 3.03984e-20)
(-0.00804021 -0.000428479 3.11677e-21)
(-0.00777926 0.000407889 3.00116e-21)
(-0.00923208 -0.000393469 4.35556e-23)
(-0.00893959 0.000370506 -2.23962e-20)
(-0.0103924 -0.000364007 -1.50529e-20)
(-0.0100689 0.000337881 -2.01029e-20)
(-0.0115185 -0.000341315 1.80237e-20)
(-0.0111641 0.000311299 1.80211e-20)
(-0.0126115 -0.000325391 1.99984e-20)
(-0.0122262 0.000290824 0)
(-0.0136742 -0.000315464 3.48156e-21)
(-0.0132579 0.000275758 1.77314e-20)
(-0.0147096 -0.000310326 -1.25316e-20)
(-0.0142623 0.000264956 -1.57267e-20)
(-0.0157192 -0.000308513 0)
(-0.0152413 0.000257039 -5.56366e-21)
(-0.0167012 -0.000308376 0)
(-0.0161938 0.00025046 -9.50081e-21)
(-0.0176523 -0.000308104 4.25952e-21)
(-0.0171175 0.000243589 1.25438e-20)
(-0.0185573 -0.000305462 0)
(-0.0179988 0.000234438 1.1214e-22)
(-0.0194206 -0.000297025 0)
(-0.0188439 0.000220139 -1.21602e-20)
(-0.020168 -0.000283799 -1.03687e-20)
(-0.0195844 0.000201498 1.05886e-20)
(-0.0210538 -0.000233914 8.75486e-21)
(-0.0204612 0.000149317 0)
(-0.021983 -0.000177054 -8.50255e-21)
(-0.0213809 8.80846e-05 -8.61264e-21)
(-0.0227606 -0.000166997 8.64272e-21)
(-0.0221657 7.11712e-05 8.48856e-21)
(-0.0235006 -0.000152642 8.47002e-21)
(-0.0229206 5.07273e-05 -8.48122e-21)
(-0.0241538 -0.000148282 -8.21894e-21)
(-0.0236008 4.03624e-05 1.64367e-20)
(-0.0247625 -0.000141024 7.63822e-21)
(-0.0242467 2.76603e-05 -8.3437e-21)
(-0.0253057 -0.000135882 -7.40695e-21)
(-0.024839 1.75079e-05 0)
(-0.0257967 -0.000129467 7.53297e-21)
(-0.0253906 6.60849e-06 0)
(-0.026227 -0.000123089 -7.77314e-21)
(-0.0258936 -3.71574e-06 -1.19737e-22)
(-0.0265986 -0.000115752 2.26971e-22)
(-0.02635 -1.44369e-05 3.92693e-21)
(-0.0269067 -0.000107681 2.20766e-22)
(-0.0267551 -2.53068e-05 -7.29691e-21)
(-0.027149 -9.85183e-05 0)
(-0.0271064 -3.6672e-05 1.0098e-22)
(-0.0273212 -8.82316e-05 -3.2587e-21)
(-0.0273994 -4.85536e-05 1.04549e-22)
(-0.0274194 -7.66591e-05 1.1447e-22)
(-0.0276298 -6.11108e-05 6.70471e-21)
(-0.0274393 -6.37402e-05 5.98828e-21)
(-0.0277925 -7.44055e-05 -3.09882e-21)
(-0.0273763 -4.94034e-05 -2.84807e-21)
(-0.0278823 -8.85162e-05 1.9652e-22)
(-0.0272262 -3.36261e-05 -1.79102e-22)
(-0.0278938 -0.000103478 0)
(-0.0269847 -1.64069e-05 2.49844e-21)
(-0.0278215 -0.000119307 0)
(-0.0266479 2.21767e-06 3.52878e-23)
(-0.0276601 -0.000135985 2.55163e-21)
(-0.0262122 2.21784e-05 -2.54702e-21)
(-0.0274046 -0.000153467 -5.33327e-21)
(-0.0256748 4.33728e-05 -2.28885e-21)
(-0.0270502 -0.000171671 5.0831e-21)
(-0.0250332 6.56654e-05 -7.23809e-24)
(-0.0265926 -0.000190484 -4.67805e-21)
(-0.0242858 8.88904e-05 2.16112e-21)
(-0.0260283 -0.000209762 2.75427e-22)
(-0.0234319 0.000112855 0)
(-0.0253544 -0.00022933 -7.86577e-25)
(-0.0224714 0.000137344 0)
(-0.0245688 -0.00024899 1.3461e-22)
(-0.0214055 0.000162125 0)
(-0.0236706 -0.000268519 1.95802e-21)
(-0.0202359 0.000186955 0)
(-0.0226595 -0.000287683 1.57995e-21)
(-0.0189656 0.000211585 0)
(-0.0215364 -0.000306234 -1.69259e-21)
(-0.0175984 0.00023577 -8.35259e-23)
(-0.0203032 -0.000323927 9.42024e-23)
(-0.0161387 0.000259275 0)
(-0.0189629 -0.000340519 0)
(-0.014592 0.000281879 -6.83118e-23)
(-0.0175193 -0.000355781 1.17207e-21)
(-0.0129644 0.000303383 9.0266e-22)
(-0.0159771 -0.000369502 -2.22158e-21)
(-0.0112624 0.000323617 -9.03506e-22)
(-0.014342 -0.000381497 1.21792e-22)
(-0.00949333 0.00034244 0)
(-0.0126201 -0.000391613 9.28663e-22)
(-0.00766448 0.000359746 3.96513e-23)
(-0.0108182 -0.000399731 -4.80683e-23)
(-0.00578353 0.000375465 0)
(-0.00894363 -0.000405771 2.95676e-22)
(-0.00385816 0.000389565 2.76324e-23)
(-0.00700383 -0.000409695 -2.96025e-22)
(-0.00189599 0.00040205 -1.3432e-22)
(-0.00500643 -0.000411504 1.69061e-22)
(9.5571e-05 0.00041296 2.73787e-22)
(-0.00295905 -0.000411242 -1.96745e-22)
(0.00210948 0.000422371 -1.04961e-22)
(-0.000869105 -0.000408992 1.71607e-23)
(0.00413916 0.000430389 0)
(0.00125631 -0.000404874 0)
(0.0061786 0.000437154 -5.0003e-24)
(0.00341055 -0.000399044 0)
(0.00822248 0.000442831 5.51015e-25)
(0.00558761 -0.000391693 3.3027e-24)
(0.0102663 0.000447617 -1.65195e-24)
(0.00778217 -0.00038304 -2.41437e-23)
(0.0123064 0.00045173 -5.5725e-23)
(0.00998982 -0.000373334 2.41725e-23)
(0.0143402 0.000455425 5.14107e-23)
(0.0122071 -0.000362856 0)
(0.0163662 0.00045898 -7.20408e-23)
(0.0144318 -0.000351918 -7.77297e-23)
(0.0183842 0.000462728 7.06401e-23)
(0.0166628 -0.00034088 9.86525e-23)
(0.0203953 0.000467042 -1.197e-23)
(0.0189009 -0.000330146 5.50623e-23)
(0.0224028 0.000472424 1.18147e-23)
(0.0211485 -0.000320243 -1.13304e-22)
(0.0244118 0.000479467 0)
(0.0234106 -0.000311793 5.82452e-23)
(0.0264309 0.000489221 1.20053e-23)
(0.0256956 -0.00030587 1.49678e-23)
(0.0284724 0.000503131 -1.23532e-23)
(0.0280164 -0.000303971 -9.85016e-25)
(0.0305568 0.00052502 -8.66842e-25)
(0.0303938 -0.000310019 1.27457e-23)
(0.0327174 0.00056151 -1.0175e-23)
(0.0328639 -0.000330861 -3.53087e-23)
(0.035005 0.000636977 -7.49137e-24)
(0.0354796 -0.00039191 2.29044e-23)
(0.0375613 0.000796473 -1.58177e-23)
(0.0383954 -0.000539417 1.45836e-23)
(0.0405173 0.00125877 6.35847e-24)
(0.0417445 -0.00100328 -1.12529e-23)
(0.0448764 0.00239402 -2.23056e-25)
(0.0466247 -0.00215964 7.32054e-25)
(0.0507772 0.00683791 -1.43678e-23)
(0.0100239 0.00458601 3.15238e-23)
(-0.00116177 -0.00300552 0)
(-0.00103636 0.00382499 -1.3683e-23)
(0.0105129 -0.00432088 3.74605e-23)
(0.0530081 -0.00680962 -1.67077e-24)
)
;
        pressure        nonuniform List<scalar> 
168
(
-0.454779
-0.45626
-0.455386
-0.456846
-0.456063
-0.457508
-0.456733
-0.458169
-0.457325
-0.458761
-0.457765
-0.459208
-0.458002
-0.459464
-0.45801
-0.4595
-0.457773
-0.459302
-0.457287
-0.458865
-0.456548
-0.458188
-0.455555
-0.45727
-0.454301
-0.456105
-0.452772
-0.454684
-0.45095
-0.452989
-0.448805
-0.450995
-0.446302
-0.448672
-0.443397
-0.445979
-0.440045
-0.442877
-0.436181
-0.439306
-0.431807
-0.435275
-0.426708
-0.430575
-0.421187
-0.425506
-0.414349
-0.419232
-0.407401
-0.412871
-0.399892
-0.405997
-0.392122
-0.398891
-0.383925
-0.391391
-0.375407
-0.383592
-0.366517
-0.375441
-0.357291
-0.366967
-0.347719
-0.358153
-0.337817
-0.349007
-0.32759
-0.339526
-0.317049
-0.329715
-0.306208
-0.319575
-0.29508
-0.309115
-0.283683
-0.29834
-0.272038
-0.287265
-0.260168
-0.275903
-0.248099
-0.264272
-0.235861
-0.252394
-0.223487
-0.240296
-0.211013
-0.228006
-0.198477
-0.215559
-0.18592
-0.202991
-0.173385
-0.190344
-0.160918
-0.177662
-0.148565
-0.164991
-0.136373
-0.152381
-0.124389
-0.139882
-0.11266
-0.127546
-0.101232
-0.115426
-0.09015
-0.103572
-0.0794553
-0.0920373
-0.0691877
-0.0808695
-0.0593837
-0.0701159
-0.0500763
-0.0598205
-0.0412948
-0.0500239
-0.0330644
-0.040763
-0.0254063
-0.0320705
-0.0183376
-0.0239748
-0.0118714
-0.0165001
-0.0060166
-0.00966583
-0.000778801
-0.00348745
0.00384003
0.00202383
0.00784082
0.00686051
0.0112272
0.0110185
0.0140045
0.0144964
0.0161801
0.0172954
0.0177614
0.0194175
0.0187566
0.0208664
0.0191716
0.0216437
0.0190124
0.0217513
0.0182772
0.0211841
0.0169623
0.0199336
0.0150486
0.0179782
0.0124825
0.0152519
0.00924104
0.011734
0.00483882
0.00688116
-0.000230334
0.00125218
-0.0110913
-0.0389977
-0.0141657
-0.0142689
-0.0405521
-0.0108804
)
;
        value           nonuniform List<vector> 
168
(
(1.93391e-08 1.10183e-08 7.54923e-27)
(1.5739e-08 -8.129e-09 -1.47275e-26)
(1.92566e-08 1.74205e-08 -2.12184e-26)
(1.4821e-08 -1.3342e-08 1.02324e-26)
(2.06857e-08 2.24478e-08 1.64089e-28)
(1.47979e-08 -1.72467e-08 -1.03686e-26)
(2.37248e-08 2.61003e-08 -7.25557e-28)
(1.58963e-08 -1.9776e-08 -6.04257e-28)
(2.82553e-08 2.89302e-08 2.18869e-26)
(1.80644e-08 -2.12722e-08 -5.30492e-27)
(3.39828e-08 3.12123e-08 -1.74948e-26)
(2.10931e-08 -2.18768e-08 8.27178e-27)
(4.07489e-08 3.32371e-08 2.01342e-26)
(2.48649e-08 -2.17349e-08 -1.44288e-26)
(4.84327e-08 3.52122e-08 -1.74163e-26)
(2.92844e-08 -2.09198e-08 2.19884e-27)
(5.69741e-08 3.73226e-08 -5.80976e-27)
(3.4298e-08 -1.94738e-08 1.10824e-26)
(6.63423e-08 3.97259e-08 8.55725e-27)
(3.98721e-08 -1.74004e-08 6.80614e-27)
(7.65323e-08 4.25687e-08 -1.3087e-29)
(4.59915e-08 -1.46735e-08 -1.3042e-26)
(8.75555e-08 4.5992e-08 -5.14987e-27)
(5.2653e-08 -1.12376e-08 3.74166e-27)
(9.94361e-08 5.01383e-08 3.95913e-27)
(5.98638e-08 -7.00897e-09 -1.52749e-27)
(1.12208e-07 5.51567e-08 5.9331e-27)
(6.76391e-08 -1.87624e-09 -5.37124e-27)
(1.25915e-07 6.12086e-08 3.99998e-27)
(7.60019e-08 4.30025e-09 7.67556e-27)
(1.40606e-07 6.84724e-08 -8.41368e-27)
(8.49816e-08 1.16892e-08 -6.14286e-27)
(1.56339e-07 7.71495e-08 7.77414e-27)
(9.46138e-08 2.04897e-08 -6.69315e-27)
(1.73173e-07 8.74688e-08 -6.25472e-27)
(1.04939e-07 3.09337e-08 -9.01567e-28)
(1.91175e-07 9.96925e-08 3.25097e-27)
(1.16003e-07 4.32886e-08 6.35286e-27)
(2.10413e-07 1.14121e-07 -1.24667e-28)
(1.27856e-07 5.78608e-08 6.33695e-27)
(2.30955e-07 1.31097e-07 -7.6776e-27)
(1.40553e-07 7.50004e-08 -4.30858e-27)
(2.52869e-07 1.51014e-07 2.86002e-27)
(1.54152e-07 9.51053e-08 2.53681e-27)
(2.77114e-07 1.75203e-07 -8.30995e-28)
(1.69275e-07 1.19523e-07 -1.71845e-27)
(3.02854e-07 2.03538e-07 -4.71213e-27)
(1.85439e-07 1.48127e-07 -1.2527e-26)
(3.28354e-07 2.34264e-07 3.42048e-27)
(2.01585e-07 1.79149e-07 7.28458e-27)
(3.53587e-07 2.67322e-07 -7.86071e-28)
(2.1772e-07 2.12528e-07 1.03232e-27)
(3.78524e-07 3.02644e-07 -7.66124e-28)
(2.33851e-07 2.48199e-07 1.03669e-27)
(4.03139e-07 3.40152e-07 4.08358e-27)
(2.49983e-07 2.86083e-07 4.46691e-27)
(4.27404e-07 3.79758e-07 -4.34299e-27)
(2.66123e-07 3.26092e-07 1.41791e-26)
(4.51293e-07 4.21366e-07 2.79447e-27)
(2.82278e-07 3.68132e-07 -1.75338e-26)
(4.74781e-07 4.64872e-07 -8.02796e-27)
(2.9845e-07 4.12097e-07 8.21749e-27)
(4.97846e-07 5.10163e-07 5.05578e-27)
(3.14644e-07 4.57877e-07 2.79985e-27)
(5.20467e-07 5.57122e-07 -2.17521e-27)
(3.30858e-07 5.05352e-07 -1.29099e-26)
(5.42627e-07 6.05625e-07 -3.2396e-27)
(3.47093e-07 5.54399e-07 3.44723e-27)
(5.6431e-07 6.55546e-07 -2.56261e-28)
(3.63344e-07 6.04893e-07 -4.05588e-27)
(5.85504e-07 7.06756e-07 -4.11675e-27)
(3.79605e-07 6.56704e-07 7.35913e-27)
(6.06199e-07 7.59124e-07 1.60747e-27)
(3.95867e-07 7.09702e-07 -3.39369e-28)
(6.26387e-07 8.12521e-07 9.07248e-28)
(4.1212e-07 7.63756e-07 -9.60933e-27)
(6.46064e-07 8.6682e-07 7.10529e-27)
(4.28351e-07 8.1874e-07 -1.01215e-26)
(6.65227e-07 9.21894e-07 6.67045e-27)
(4.44545e-07 8.74527e-07 6.59207e-27)
(6.83875e-07 9.77622e-07 1.07029e-26)
(4.60684e-07 9.30994e-07 -5.17344e-27)
(7.02012e-07 1.03389e-06 -5.82982e-27)
(4.7675e-07 9.88027e-07 -1.98923e-27)
(7.19641e-07 1.09058e-06 -9.69444e-28)
(4.92721e-07 1.04551e-06 1.21004e-26)
(7.36768e-07 1.1476e-06 4.4306e-28)
(5.08576e-07 1.10335e-06 5.26418e-27)
(7.53403e-07 1.20485e-06 -9.42501e-28)
(5.2429e-07 1.16144e-06 -3.07971e-27)
(7.69554e-07 1.26225e-06 7.77595e-27)
(5.39839e-07 1.2197e-06 -8.04651e-27)
(7.8523e-07 1.31971e-06 -4.43628e-28)
(5.55197e-07 1.27806e-06 8.44014e-27)
(8.00444e-07 1.37718e-06 7.97445e-27)
(5.70338e-07 1.33643e-06 -2.17805e-26)
(8.15206e-07 1.43459e-06 1.88901e-26)
(5.85237e-07 1.39478e-06 1.13201e-26)
(8.29528e-07 1.4919e-06 -1.8386e-26)
(5.99868e-07 1.45304e-06 -7.87646e-27)
(8.4342e-07 1.54907e-06 5.77841e-28)
(6.14207e-07 1.51118e-06 2.34926e-27)
(8.56893e-07 1.60607e-06 -1.05002e-26)
(6.2823e-07 1.56917e-06 -1.05642e-26)
(8.69957e-07 1.66289e-06 6.99836e-28)
(6.41913e-07 1.627e-06 2.48618e-28)
(8.82622e-07 1.7195e-06 1.11992e-26)
(6.55234e-07 1.68464e-06 2.06331e-26)
(8.94896e-07 1.77592e-06 1.08955e-26)
(6.68173e-07 1.74209e-06 -1.15478e-26)
(9.06786e-07 1.83213e-06 3.09117e-28)
(6.80708e-07 1.79936e-06 -1.15738e-26)
(9.183e-07 1.88815e-06 -2.38353e-26)
(6.92823e-07 1.85646e-06 -1.20387e-26)
(9.29444e-07 1.94401e-06 -1.25764e-26)
(7.04499e-07 1.9134e-06 -2.95191e-28)
(9.40221e-07 1.99971e-06 1.28276e-26)
(7.15721e-07 1.97021e-06 -1.28943e-26)
(9.50633e-07 2.0553e-06 -1.39863e-29)
(7.26476e-07 2.02691e-06 2.60259e-26)
(9.60683e-07 2.11079e-06 1.35831e-26)
(7.36753e-07 2.08353e-06 1.33074e-26)
(9.70366e-07 2.16623e-06 -3.29113e-28)
(7.46543e-07 2.14011e-06 -1.41306e-26)
(9.79681e-07 2.22166e-06 -1.36795e-26)
(7.55841e-07 2.19669e-06 1.41613e-26)
(9.88621e-07 2.27709e-06 -5.68175e-30)
(7.64643e-07 2.25329e-06 1.46856e-26)
(9.97176e-07 2.33258e-06 1.55197e-26)
(7.72949e-07 2.30995e-06 1.5241e-26)
(1.00534e-06 2.38814e-06 2.17889e-29)
(7.8076e-07 2.36671e-06 -1.52418e-26)
(1.01309e-06 2.44381e-06 -8.01554e-28)
(7.8808e-07 2.42357e-06 -3.17775e-26)
(1.02043e-06 2.49961e-06 3.2232e-26)
(7.94915e-07 2.48058e-06 -2.35014e-30)
(1.02733e-06 2.55555e-06 1.63286e-26)
(8.0127e-07 2.53773e-06 -1.65516e-26)
(1.03379e-06 2.61164e-06 -1.63123e-26)
(8.07154e-07 2.59505e-06 -1.72741e-26)
(1.03979e-06 2.66789e-06 1.71804e-26)
(8.12572e-07 2.65253e-06 3.45651e-26)
(1.04531e-06 2.72429e-06 -4.29494e-28)
(8.17533e-07 2.71017e-06 -3.51556e-26)
(1.05035e-06 2.78083e-06 -7.31554e-28)
(8.22041e-07 2.76797e-06 1.83562e-26)
(1.0549e-06 2.8375e-06 -3.71377e-26)
(8.26101e-07 2.8259e-06 1.83966e-26)
(1.05894e-06 2.89429e-06 3.73345e-26)
(8.29717e-07 2.88396e-06 3.80319e-26)
(1.06248e-06 2.95118e-06 -3.81144e-26)
(8.3289e-07 2.94213e-06 4.76838e-28)
(1.0655e-06 3.00815e-06 1.93961e-26)
(8.35622e-07 3.00038e-06 2.41463e-28)
(1.06801e-06 3.06517e-06 -2.01389e-26)
(8.37909e-07 3.05869e-06 -4.00412e-26)
(1.07e-06 3.12223e-06 1.97061e-26)
(8.39752e-07 3.11705e-06 2.01209e-26)
(1.07148e-06 3.17931e-06 -3.75542e-28)
(8.41137e-07 3.17542e-06 1.84294e-28)
(1.07247e-06 3.23637e-06 2.07068e-26)
(8.42092e-07 3.2338e-06 4.24985e-26)
(1.07291e-06 3.29349e-06 -6.31651e-31)
(1.04442e-06 3.32193e-06 1.07366e-29)
(9.87207e-07 3.32171e-06 6.33694e-27)
(9.29612e-07 3.32155e-06 5.96555e-27)
(8.71637e-07 3.32135e-06 -1.17378e-26)
(8.42527e-07 3.29211e-06 -4.26933e-26)
)
;
    }
    frontAndBackPlanes
    {
        type            empty;
    }
}


// ************************************************************************* //
