/*--------------------------------*- C++ -*----------------------------------*\
| =========                 |                                                 |
| \\      /  F ield         | OpenFOAM Extend Project: Open source CFD        |
|  \\    /   O peration     | Version:  1.6-ext                               |
|   \\  /    A nd           | Web:      www.extend-project.de                 |
|    \\/     M anipulation  |                                                 |
\*---------------------------------------------------------------------------*/
FoamFile
{
    version     2.0;
    format      ascii;
    class       volVectorField;
    location    "0.8";
    object      DU_0;
}
// * * * * * * * * * * * * * * * * * * * * * * * * * * * * * * * * * * * * * //

dimensions      [0 1 0 0 0 0 0];

internalField   nonuniform List<vector> 
328
(
(1.81934e-09 3.23752e-09 0)
(1.07248e-09 4.46192e-10 0)
(9.31649e-10 -7.80358e-10 0)
(1.18659e-09 -2.63354e-09 0)
(5.562e-09 8.31351e-09 0)
(3.5572e-09 1.47095e-09 0)
(3.0681e-09 -2.11186e-09 0)
(3.59535e-09 -6.75122e-09 0)
(9.91013e-09 1.21746e-08 0)
(6.89759e-09 2.62185e-09 0)
(5.91108e-09 -3.1894e-09 0)
(6.37595e-09 -9.73072e-09 0)
(1.46605e-08 1.50828e-08 0)
(1.08057e-08 3.8194e-09 0)
(9.24567e-09 -3.91456e-09 0)
(9.39889e-09 -1.16859e-08 0)
(1.98714e-08 1.73559e-08 0)
(1.53342e-08 5.04478e-09 0)
(1.312e-08 -4.24146e-09 0)
(1.27076e-08 -1.27859e-08 0)
(2.5519e-08 1.92476e-08 0)
(2.03916e-08 6.31588e-09 0)
(1.74629e-08 -4.1331e-09 0)
(1.629e-08 -1.31521e-08 0)
(3.16323e-08 2.0976e-08 0)
(2.59678e-08 7.68597e-09 0)
(2.22652e-08 -3.57003e-09 0)
(2.01686e-08 -1.28743e-08 0)
(3.82323e-08 2.27202e-08 0)
(3.20315e-08 9.22976e-09 0)
(2.74988e-08 -2.53201e-09 0)
(2.43594e-08 -1.20037e-08 0)
(4.53523e-08 2.46376e-08 0)
(3.85773e-08 1.1039e-08 0)
(3.31564e-08 -9.95076e-10 0)
(2.88854e-08 -1.05616e-08 0)
(5.30262e-08 2.687e-08 0)
(4.56045e-08 1.32163e-08 0)
(3.92341e-08 1.07714e-09 0)
(3.37691e-08 -8.53981e-09 0)
(6.12911e-08 2.95519e-08 0)
(5.3126e-08 1.58733e-08 0)
(4.57403e-08 3.73709e-09 0)
(3.90337e-08 -5.90299e-09 0)
(7.01851e-08 3.28164e-08 0)
(6.1163e-08 1.913e-08 0)
(5.26908e-08 7.0574e-09 0)
(4.47028e-08 -2.58916e-09 0)
(7.97484e-08 3.68008e-08 0)
(6.97458e-08 2.31163e-08 0)
(6.01102e-08 1.11333e-08 0)
(5.08e-08 1.49031e-09 0)
(9.00229e-08 4.16514e-08 0)
(7.8912e-08 2.79745e-08 0)
(6.80296e-08 1.60846e-08 0)
(5.73501e-08 6.45124e-09 0)
(1.01053e-07 4.75289e-08 0)
(8.87046e-08 3.38634e-08 0)
(7.64855e-08 2.20577e-08 0)
(6.4379e-08 1.24375e-08 0)
(1.12885e-07 5.46136e-08 0)
(9.9171e-08 4.09626e-08 0)
(8.55186e-08 2.92274e-08 0)
(7.19148e-08 1.96224e-08 0)
(1.25568e-07 6.31108e-08 0)
(1.10361e-07 4.94777e-08 0)
(9.51725e-08 3.77992e-08 0)
(7.99876e-08 2.82107e-08 0)
(1.39156e-07 7.32562e-08 0)
(1.22329e-07 5.96451e-08 0)
(1.05493e-07 4.80125e-08 0)
(8.86307e-08 3.84414e-08 0)
(1.53702e-07 8.53213e-08 0)
(1.35126e-07 7.17378e-08 0)
(1.16527e-07 6.01442e-08 0)
(9.788e-08 5.05912e-08 0)
(1.69262e-07 9.96195e-08 0)
(1.48809e-07 8.60707e-08 0)
(1.28325e-07 7.45128e-08 0)
(1.07775e-07 6.49784e-08 0)
(1.85895e-07 1.16511e-07 0)
(1.63432e-07 1.03006e-07 0)
(1.40936e-07 9.14842e-08 0)
(1.18358e-07 8.19688e-08 0)
(2.03655e-07 1.36409e-07 0)
(1.7905e-07 1.22958e-07 0)
(1.54411e-07 1.11476e-07 0)
(1.29676e-07 1.0198e-07 0)
(2.23321e-07 1.60674e-07 0)
(1.96353e-07 1.47295e-07 0)
(1.69354e-07 1.35859e-07 0)
(1.42242e-07 1.26382e-07 0)
(2.44216e-07 1.89222e-07 0)
(2.14756e-07 1.75932e-07 0)
(1.8527e-07 1.6455e-07 0)
(1.55654e-07 1.55091e-07 0)
(2.64927e-07 2.203e-07 0)
(2.33026e-07 2.07114e-07 0)
(2.01104e-07 1.95791e-07 0)
(1.69033e-07 1.86346e-07 0)
(2.85429e-07 2.53855e-07 0)
(2.51149e-07 2.40786e-07 0)
(2.16852e-07 2.29528e-07 0)
(1.82389e-07 2.20094e-07 0)
(3.05695e-07 2.89818e-07 0)
(2.69109e-07 2.7688e-07 0)
(2.32512e-07 2.65692e-07 0)
(1.9573e-07 2.56267e-07 0)
(3.25701e-07 3.28108e-07 0)
(2.86893e-07 3.15316e-07 0)
(2.48079e-07 3.04204e-07 0)
(2.09063e-07 2.94784e-07 0)
(3.4542e-07 3.68632e-07 0)
(3.04486e-07 3.55998e-07 0)
(2.63551e-07 3.44967e-07 0)
(2.22398e-07 3.3555e-07 0)
(3.6483e-07 4.11282e-07 0)
(3.21876e-07 3.98821e-07 0)
(2.78925e-07 3.87877e-07 0)
(2.3574e-07 3.78461e-07 0)
(3.83908e-07 4.55943e-07 0)
(3.3905e-07 4.43667e-07 0)
(2.94196e-07 4.32816e-07 0)
(2.49095e-07 4.234e-07 0)
(4.02633e-07 5.02488e-07 0)
(3.55995e-07 4.90408e-07 0)
(3.09361e-07 4.79655e-07 0)
(2.62468e-07 4.70239e-07 0)
(4.20989e-07 5.50782e-07 0)
(3.727e-07 5.38909e-07 0)
(3.24416e-07 5.2826e-07 0)
(2.75861e-07 5.18846e-07 0)
(4.38959e-07 6.00684e-07 0)
(3.89154e-07 5.89027e-07 0)
(3.39354e-07 5.78488e-07 0)
(2.89274e-07 5.69078e-07 0)
(4.56529e-07 6.52048e-07 0)
(4.0535e-07 6.40615e-07 0)
(3.54171e-07 6.30192e-07 0)
(3.02705e-07 6.2079e-07 0)
(4.73688e-07 7.04723e-07 0)
(4.21276e-07 6.93522e-07 0)
(3.6886e-07 6.83221e-07 0)
(3.1615e-07 6.7383e-07 0)
(4.90429e-07 7.58558e-07 0)
(4.36927e-07 7.47595e-07 0)
(3.83415e-07 7.37422e-07 0)
(3.29604e-07 7.28049e-07 0)
(5.06745e-07 8.13403e-07 0)
(4.52295e-07 8.02681e-07 0)
(3.97827e-07 7.92642e-07 0)
(3.43057e-07 7.83295e-07 0)
(5.22634e-07 8.69107e-07 0)
(4.67374e-07 8.5863e-07 0)
(4.12088e-07 8.48731e-07 0)
(3.56499e-07 8.39417e-07 0)
(5.38093e-07 9.25524e-07 0)
(4.8216e-07 9.15295e-07 0)
(4.26189e-07 9.0554e-07 0)
(3.69917e-07 8.9627e-07 0)
(5.53125e-07 9.82514e-07 0)
(4.96648e-07 9.72533e-07 0)
(4.40122e-07 9.62929e-07 0)
(3.83295e-07 9.53712e-07 0)
(5.67734e-07 1.03994e-06 0)
(5.10836e-07 1.03021e-06 0)
(4.53875e-07 1.02076e-06 0)
(3.96616e-07 1.01161e-06 0)
(5.81926e-07 1.09769e-06 0)
(5.24721e-07 1.0882e-06 0)
(4.67438e-07 1.07891e-06 0)
(4.09862e-07 1.06984e-06 0)
(5.95709e-07 1.15563e-06 0)
(5.38301e-07 1.14639e-06 0)
(4.80799e-07 1.13727e-06 0)
(4.23011e-07 1.12828e-06 0)
(6.09091e-07 1.21367e-06 0)
(5.51575e-07 1.20466e-06 0)
(4.93949e-07 1.19572e-06 0)
(4.36042e-07 1.18684e-06 0)
(6.22084e-07 1.27171e-06 0)
(5.64542e-07 1.26294e-06 0)
(5.06874e-07 1.25417e-06 0)
(4.48931e-07 1.24541e-06 0)
(6.34699e-07 1.32968e-06 0)
(5.77202e-07 1.32114e-06 0)
(5.19562e-07 1.31256e-06 0)
(4.61656e-07 1.30392e-06 0)
(6.46946e-07 1.3875e-06 0)
(5.89555e-07 1.3792e-06 0)
(5.32004e-07 1.3708e-06 0)
(4.74192e-07 1.36231e-06 0)
(6.58839e-07 1.44514e-06 0)
(6.016e-07 1.43706e-06 0)
(5.44185e-07 1.42885e-06 0)
(4.86517e-07 1.42051e-06 0)
(6.70389e-07 1.50253e-06 0)
(6.13338e-07 1.49467e-06 0)
(5.56095e-07 1.48666e-06 0)
(4.98607e-07 1.4785e-06 0)
(6.81606e-07 1.55967e-06 0)
(6.24769e-07 1.55202e-06 0)
(5.67724e-07 1.5442e-06 0)
(5.10439e-07 1.53623e-06 0)
(6.92503e-07 1.61653e-06 0)
(6.35892e-07 1.60909e-06 0)
(5.79058e-07 1.60147e-06 0)
(5.21991e-07 1.59369e-06 0)
(7.03088e-07 1.6731e-06 0)
(6.46707e-07 1.66586e-06 0)
(5.90089e-07 1.65846e-06 0)
(5.33243e-07 1.65088e-06 0)
(7.13371e-07 1.72939e-06 0)
(6.57213e-07 1.72236e-06 0)
(6.00806e-07 1.71516e-06 0)
(5.44175e-07 1.70781e-06 0)
(7.2336e-07 1.78542e-06 0)
(6.6741e-07 1.77859e-06 0)
(6.11199e-07 1.77161e-06 0)
(5.54769e-07 1.76448e-06 0)
(7.33061e-07 1.84121e-06 0)
(6.77296e-07 1.83458e-06 0)
(6.2126e-07 1.82781e-06 0)
(5.65007e-07 1.82092e-06 0)
(7.42479e-07 1.8968e-06 0)
(6.8687e-07 1.89036e-06 0)
(6.30979e-07 1.88382e-06 0)
(5.74875e-07 1.87717e-06 0)
(7.51618e-07 1.95222e-06 0)
(6.96128e-07 1.94598e-06 0)
(6.4035e-07 1.93965e-06 0)
(5.84359e-07 1.93325e-06 0)
(7.60478e-07 2.00752e-06 0)
(7.05069e-07 2.00147e-06 0)
(6.49366e-07 1.99537e-06 0)
(5.93448e-07 1.98923e-06 0)
(7.6906e-07 2.06274e-06 0)
(7.1369e-07 2.05689e-06 0)
(6.58019e-07 2.05102e-06 0)
(6.02134e-07 2.04514e-06 0)
(7.77361e-07 2.11794e-06 0)
(7.21985e-07 2.11229e-06 0)
(6.66306e-07 2.10665e-06 0)
(6.10409e-07 2.10103e-06 0)
(7.85376e-07 2.17317e-06 0)
(7.29951e-07 2.16772e-06 0)
(6.74221e-07 2.16232e-06 0)
(6.18269e-07 2.15696e-06 0)
(7.93098e-07 2.22848e-06 0)
(7.37582e-07 2.22324e-06 0)
(6.81762e-07 2.21807e-06 0)
(6.25713e-07 2.21298e-06 0)
(8.0052e-07 2.28392e-06 0)
(7.44873e-07 2.27888e-06 0)
(6.88924e-07 2.27395e-06 0)
(6.32741e-07 2.26913e-06 0)
(8.0763e-07 2.33952e-06 0)
(7.51818e-07 2.33471e-06 0)
(6.95707e-07 2.33002e-06 0)
(6.39355e-07 2.32546e-06 0)
(8.14416e-07 2.39533e-06 0)
(7.58411e-07 2.39074e-06 0)
(7.0211e-07 2.3863e-06 0)
(6.45559e-07 2.382e-06 0)
(8.20867e-07 2.45138e-06 0)
(7.64644e-07 2.44702e-06 0)
(7.08131e-07 2.44282e-06 0)
(6.51359e-07 2.43879e-06 0)
(8.26968e-07 2.50768e-06 0)
(7.70512e-07 2.50356e-06 0)
(7.13771e-07 2.49961e-06 0)
(6.56762e-07 2.49584e-06 0)
(8.32705e-07 2.56426e-06 0)
(7.76008e-07 2.56039e-06 0)
(7.1903e-07 2.55669e-06 0)
(6.61776e-07 2.55316e-06 0)
(8.38066e-07 2.62111e-06 0)
(7.81125e-07 2.61749e-06 0)
(7.23909e-07 2.61405e-06 0)
(6.66408e-07 2.61078e-06 0)
(8.43036e-07 2.67824e-06 0)
(7.85857e-07 2.67488e-06 0)
(7.28408e-07 2.67169e-06 0)
(6.70666e-07 2.66866e-06 0)
(8.47605e-07 2.73563e-06 0)
(7.902e-07 2.73253e-06 0)
(7.32529e-07 2.72959e-06 0)
(6.74558e-07 2.72682e-06 0)
(8.51762e-07 2.79325e-06 0)
(7.94149e-07 2.79043e-06 0)
(7.36272e-07 2.78775e-06 0)
(6.78089e-07 2.78522e-06 0)
(8.55499e-07 2.8511e-06 0)
(7.977e-07 2.84855e-06 0)
(7.39638e-07 2.84613e-06 0)
(6.81266e-07 2.84384e-06 0)
(8.5881e-07 2.90913e-06 0)
(8.00849e-07 2.90686e-06 0)
(7.42627e-07 2.9047e-06 0)
(6.8409e-07 2.90265e-06 0)
(8.6169e-07 2.96731e-06 0)
(8.03596e-07 2.96532e-06 0)
(7.45239e-07 2.96342e-06 0)
(6.86565e-07 2.96161e-06 0)
(8.64139e-07 3.02561e-06 0)
(8.05939e-07 3.02391e-06 0)
(7.47474e-07 3.02227e-06 0)
(6.8869e-07 3.0207e-06 0)
(8.66154e-07 3.084e-06 0)
(8.07877e-07 3.08257e-06 0)
(7.4933e-07 3.0812e-06 0)
(6.90462e-07 3.07988e-06 0)
(8.67743e-07 3.14243e-06 0)
(8.09414e-07 3.14129e-06 0)
(7.50808e-07 3.14018e-06 0)
(6.91881e-07 3.1391e-06 0)
(8.689e-07 3.20089e-06 0)
(8.10543e-07 3.20002e-06 0)
(7.51899e-07 3.19917e-06 0)
(6.92932e-07 3.19835e-06 0)
(8.69654e-07 3.25933e-06 0)
(8.11292e-07 3.25875e-06 0)
(7.52626e-07 3.25816e-06 0)
(6.93629e-07 3.2576e-06 0)
(8.69948e-07 3.31777e-06 0)
(8.11598e-07 3.31744e-06 0)
(7.52921e-07 3.31711e-06 0)
(6.939e-07 3.3168e-06 0)
)
;

boundaryField
{
    plateFix
    {
        type            fixedDisplacement;
        value           uniform (0 0 0);
    }
    plate
    {
        type            solidTraction;
        nonLinear       updatedLagrangian;
        traction        uniform (0 0 0);
        pressure        uniform 0;
        value           nonuniform List<vector> 
168
(
(1.60274e-08 9.21198e-09 -8.91526e-27)
(1.27452e-08 -6.49209e-09 5.84725e-27)
(1.60192e-08 1.45153e-08 9.39019e-28)
(1.19205e-08 -1.07194e-08 4.00097e-27)
(1.72947e-08 1.8687e-08 1.62344e-26)
(1.17837e-08 -1.38773e-08 -2.11606e-27)
(1.99255e-08 2.17313e-08 1.30929e-26)
(1.25301e-08 -1.59057e-08 1.09181e-26)
(2.38112e-08 2.41158e-08 -2.54573e-27)
(1.41215e-08 -1.70707e-08 4.35693e-27)
(2.8705e-08 2.60751e-08 -3.14112e-27)
(1.63916e-08 -1.74789e-08 -9.36667e-27)
(3.44753e-08 2.78585e-08 -4.39327e-27)
(1.92462e-08 -1.72389e-08 5.88676e-27)
(4.1022e-08 2.96464e-08 -1.19649e-26)
(2.26073e-08 -1.6401e-08 1.71385e-26)
(4.82964e-08 3.1602e-08 5.20175e-27)
(2.64303e-08 -1.49888e-08 -7.00665e-27)
(5.62747e-08 3.38671e-08 1.7071e-27)
(3.06858e-08 -1.2993e-08 -9.25854e-27)
(6.49552e-08 3.65767e-08 5.40923e-28)
(3.53589e-08 -1.03779e-08 -6.08126e-28)
(7.43497e-08 3.98633e-08 1.01552e-27)
(4.04438e-08 -7.08085e-09 2.26802e-27)
(8.44815e-08 4.38643e-08 9.3903e-27)
(4.59431e-08 -3.01304e-09 1.28706e-27)
(9.53824e-08 4.8726e-08 -1.52751e-26)
(5.18653e-08 1.94109e-09 6.30325e-27)
(1.07092e-07 5.46095e-08 9.63459e-27)
(5.82253e-08 7.92481e-09 -1.27454e-26)
(1.19654e-07 6.16955e-08 1.54855e-27)
(6.50429e-08 1.51107e-08 7.78405e-27)
(1.33121e-07 7.01894e-08 -1.4547e-26)
(7.23423e-08 2.37027e-08 4.63713e-27)
(1.47547e-07 8.03272e-08 9.92203e-27)
(8.01525e-08 3.3939e-08 -7.68222e-28)
(1.62989e-07 9.23804e-08 -6.10384e-27)
(8.85061e-08 4.60956e-08 -2.59873e-27)
(1.79509e-07 1.06662e-07 -3.68002e-27)
(9.74396e-08 6.04902e-08 3.13888e-28)
(1.97165e-07 1.23531e-07 3.73826e-27)
(1.06994e-07 7.7488e-08 -1.45319e-27)
(2.16017e-07 1.43399e-07 -7.22231e-27)
(1.17213e-07 9.75057e-08 2.06718e-27)
(2.36886e-07 1.67626e-07 6.46147e-27)
(1.28567e-07 1.21914e-07 3.22308e-27)
(2.59052e-07 1.96125e-07 -2.33388e-27)
(1.40698e-07 1.50627e-07 3.03631e-27)
(2.8101e-07 2.27146e-07 -1.28604e-27)
(1.52821e-07 1.81884e-07 3.30232e-27)
(3.02728e-07 2.60635e-07 -1.79476e-28)
(1.6495e-07 2.1563e-07 -6.50432e-27)
(3.24175e-07 2.96524e-07 -3.46679e-27)
(1.77102e-07 2.51798e-07 8.43165e-27)
(3.45317e-07 3.34732e-07 -3.58626e-27)
(1.89289e-07 2.90307e-07 -4.56786e-27)
(3.66123e-07 3.75165e-07 4.53701e-27)
(2.01528e-07 3.31064e-07 -1.97704e-26)
(3.86564e-07 4.17718e-07 -4.3752e-27)
(2.13829e-07 3.73963e-07 1.4686e-26)
(4.06613e-07 4.62273e-07 3.0054e-27)
(2.26205e-07 4.18889e-07 -1.7133e-27)
(4.26244e-07 5.08706e-07 -3.30899e-27)
(2.38664e-07 4.65715e-07 -8.03836e-27)
(4.45437e-07 5.56883e-07 7.8034e-28)
(2.5121e-07 5.14307e-07 4.75516e-27)
(4.64172e-07 6.06662e-07 3.31902e-27)
(2.63849e-07 5.64526e-07 5.23168e-27)
(4.82435e-07 6.57898e-07 -8.47554e-28)
(2.7658e-07 6.16226e-07 -1.44561e-26)
(5.00211e-07 7.10442e-07 2.05158e-27)
(2.894e-07 6.69257e-07 4.76839e-27)
(5.17494e-07 7.64143e-07 2.20656e-27)
(3.02304e-07 7.23469e-07 1.14137e-26)
(5.34276e-07 8.18851e-07 -2.14477e-27)
(3.15282e-07 7.78712e-07 -3.74644e-27)
(5.50557e-07 8.74418e-07 1.43749e-26)
(3.28323e-07 8.34836e-07 6.1688e-27)
(5.66338e-07 9.30697e-07 -4.70696e-27)
(3.41412e-07 8.91696e-07 -7.24997e-27)
(5.81623e-07 9.87549e-07 -8.0414e-28)
(3.54529e-07 9.49152e-07 -6.5107e-27)
(5.9642e-07 1.04484e-06 -1.5917e-26)
(3.67654e-07 1.00707e-06 1.51376e-27)
(6.10741e-07 1.10245e-06 9.38832e-27)
(3.80762e-07 1.06532e-06 -4.61591e-27)
(6.24598e-07 1.16026e-06 -7.92657e-27)
(3.93829e-07 1.1238e-06 6.2589e-27)
(6.38005e-07 1.21817e-06 9.5457e-27)
(4.06827e-07 1.1824e-06 -1.11061e-26)
(6.50981e-07 1.27608e-06 -1.50656e-26)
(4.19725e-07 1.24102e-06 -2.23689e-26)
(6.63542e-07 1.33393e-06 -9.26728e-27)
(4.32496e-07 1.2996e-06 -5.59456e-27)
(6.75706e-07 1.39164e-06 9.74746e-27)
(4.45108e-07 1.35805e-06 -1.21237e-27)
(6.87492e-07 1.44915e-06 9.26848e-27)
(4.57532e-07 1.41633e-06 -9.94226e-28)
(6.98918e-07 1.50644e-06 -8.85276e-27)
(4.69738e-07 1.47439e-06 -2.80828e-27)
(7.1e-07 1.56346e-06 -1.86098e-27)
(4.81698e-07 1.53221e-06 -1.38326e-27)
(7.20757e-07 1.62021e-06 9.3315e-28)
(4.93384e-07 1.58977e-06 1.16203e-26)
(7.31202e-07 1.67668e-06 -4.37151e-28)
(5.04769e-07 1.64707e-06 -1.06914e-26)
(7.4135e-07 1.73288e-06 -1.05778e-26)
(5.15829e-07 1.7041e-06 1.01255e-26)
(7.51214e-07 1.78881e-06 1.12351e-26)
(5.26541e-07 1.76089e-06 -1.15166e-26)
(7.60805e-07 1.84451e-06 1.20423e-26)
(5.36884e-07 1.81745e-06 2.50838e-26)
(7.7013e-07 1.9e-06 1.05988e-28)
(5.46838e-07 1.87382e-06 3.24878e-28)
(7.79197e-07 1.95532e-06 -2.51629e-26)
(5.56389e-07 1.93004e-06 8.82596e-29)
(7.8801e-07 2.01053e-06 -3.89785e-26)
(5.65521e-07 1.98615e-06 -1.31606e-26)
(7.96568e-07 2.06566e-06 1.47318e-28)
(5.74226e-07 2.04219e-06 1.30329e-26)
(8.04871e-07 2.12077e-06 1.39427e-26)
(5.82494e-07 2.09822e-06 -1.37675e-26)
(8.12914e-07 2.1759e-06 -2.78048e-26)
(5.90323e-07 2.15429e-06 2.80997e-26)
(8.20689e-07 2.23111e-06 -5.23043e-28)
(5.97711e-07 2.21045e-06 -4.32717e-26)
(8.28185e-07 2.28645e-06 1.44955e-26)
(6.0466e-07 2.26674e-06 1.46071e-26)
(8.3539e-07 2.34194e-06 4.53436e-26)
(6.11176e-07 2.3232e-06 2.82799e-29)
(8.42288e-07 2.39765e-06 -3.0634e-26)
(6.17265e-07 2.37988e-06 1.55594e-26)
(8.48864e-07 2.45358e-06 -3.12124e-26)
(6.22938e-07 2.43679e-06 8.11156e-29)
(8.55098e-07 2.50977e-06 3.28439e-26)
(6.28205e-07 2.49397e-06 1.62403e-26)
(8.60974e-07 2.56622e-06 -3.33558e-26)
(6.33078e-07 2.55143e-06 2.71371e-30)
(8.66472e-07 2.62295e-06 1.58923e-26)
(6.37569e-07 2.60916e-06 -1.68193e-26)
(8.71577e-07 2.67994e-06 1.72425e-26)
(6.41691e-07 2.66718e-06 1.7833e-26)
(8.76272e-07 2.7372e-06 -1.77273e-26)
(6.45454e-07 2.72545e-06 -3.57998e-26)
(8.80545e-07 2.79469e-06 1.8293e-26)
(6.48868e-07 2.78397e-06 3.60998e-26)
(8.84383e-07 2.85239e-06 4.31716e-28)
(6.5194e-07 2.84271e-06 1.72906e-29)
(8.87779e-07 2.91028e-06 -5.63024e-26)
(6.54677e-07 2.90164e-06 -1.93623e-26)
(8.90728e-07 2.96831e-06 1.90185e-26)
(6.57081e-07 2.96072e-06 1.93449e-26)
(8.93227e-07 3.02647e-06 -1.9407e-26)
(6.59152e-07 3.01993e-06 -2.01617e-26)
(8.95276e-07 3.08471e-06 -4.03632e-26)
(6.60886e-07 3.07922e-06 2.00438e-26)
(8.96882e-07 3.143e-06 4.09344e-26)
(6.62284e-07 3.13857e-06 -1.9871e-26)
(8.9804e-07 3.20132e-06 3.832e-28)
(6.63326e-07 3.19794e-06 -6.25068e-26)
(8.98786e-07 3.25962e-06 -6.35059e-26)
(6.6403e-07 3.25732e-06 2.12029e-26)
(8.99053e-07 3.31794e-06 2.1549e-26)
(8.69963e-07 3.34695e-06 -5.77254e-27)
(8.1162e-07 3.34674e-06 -1.59785e-26)
(7.52938e-07 3.34658e-06 1.001e-26)
(6.93906e-07 3.34641e-06 1.94823e-28)
(6.64303e-07 3.31664e-06 -1.38331e-28)
)
;
    }
    frontAndBackPlanes
    {
        type            empty;
    }
}


// ************************************************************************* //
