/*--------------------------------*- C++ -*----------------------------------*\
| =========                 |                                                 |
| \\      /  F ield         | OpenFOAM Extend Project: Open source CFD        |
|  \\    /   O peration     | Version:  1.6-ext                               |
|   \\  /    A nd           | Web:      www.extend-project.de                 |
|    \\/     M anipulation  |                                                 |
\*---------------------------------------------------------------------------*/
FoamFile
{
    version     2.0;
    format      ascii;
    class       volVectorField;
    location    "0.8";
    object      DV;
}
// * * * * * * * * * * * * * * * * * * * * * * * * * * * * * * * * * * * * * //

dimensions      [0 1 -1 0 0 0 0];

internalField   nonuniform List<vector> 
328
(
(3.2313e-07 6.34686e-07 0)
(2.09515e-07 1.41115e-07 0)
(2.05314e-07 -1.07099e-07 0)
(2.94232e-07 -5.53963e-07 0)
(9.83674e-07 1.63458e-06 0)
(6.92389e-07 4.20018e-07 0)
(6.7673e-07 -3.03787e-07 0)
(8.97249e-07 -1.41129e-06 0)
(1.74678e-06 2.39042e-06 0)
(1.33688e-06 6.93975e-07 0)
(1.30331e-06 -4.78879e-07 0)
(1.59649e-06 -2.03433e-06 0)
(2.57668e-06 2.94502e-06 0)
(2.09006e-06 9.45107e-07 0)
(2.03627e-06 -6.14904e-07 0)
(2.36054e-06 -2.45898e-06 0)
(3.48362e-06 3.35196e-06 0)
(2.96208e-06 1.16718e-06 0)
(2.88604e-06 -7.05535e-07 0)
(3.19999e-06 -2.73173e-06 0)
(4.46337e-06 3.65243e-06 0)
(3.93601e-06 1.35913e-06 0)
(3.83715e-06 -7.48266e-07 0)
(4.11215e-06 -2.8877e-06 0)
(5.52088e-06 3.88014e-06 0)
(5.00988e-06 1.52549e-06 0)
(4.88816e-06 -7.45454e-07 0)
(5.10283e-06 -2.95519e-06 0)
(6.65955e-06 4.06042e-06 0)
(6.17766e-06 1.67317e-06 0)
(6.03369e-06 -7.01087e-07 0)
(6.17644e-06 -2.95477e-06 0)
(7.88469e-06 4.21312e-06 0)
(7.43807e-06 1.8105e-06 0)
(7.27291e-06 -6.20263e-07 0)
(7.33936e-06 -2.90198e-06 0)
(9.20142e-06 4.35328e-06 0)
(8.79061e-06 1.9457e-06 0)
(8.6058e-06 -5.07858e-07 0)
(8.59808e-06 -2.80809e-06 0)
(1.06152e-05 4.49224e-06 0)
(1.02373e-05 2.08614e-06 0)
(1.00349e-05 -3.68219e-07 0)
(9.95964e-06 -2.68132e-06 0)
(1.21312e-05 4.63815e-06 0)
(1.17815e-05 2.23765e-06 0)
(1.15643e-05 -2.04884e-07 0)
(1.14314e-05 -2.52758e-06 0)
(1.37548e-05 4.7963e-06 0)
(1.34286e-05 2.40423e-06 0)
(1.32001e-05 -2.07583e-08 0)
(1.30212e-05 -2.35121e-06 0)
(1.54912e-05 4.9694e-06 0)
(1.5185e-05 2.58782e-06 0)
(1.49495e-05 1.81577e-07 0)
(1.47373e-05 -2.15566e-06 0)
(1.73459e-05 5.15768e-06 0)
(1.7058e-05 2.78822e-06 0)
(1.68213e-05 3.99376e-07 0)
(1.65887e-05 -1.94417e-06 0)
(1.93245e-05 5.35899e-06 0)
(1.90561e-05 3.00303e-06 0)
(1.88249e-05 6.29179e-07 0)
(1.85847e-05 -1.72038e-06 0)
(2.14329e-05 5.56882e-06 0)
(2.11879e-05 3.22752e-06 0)
(2.09704e-05 8.66219e-07 0)
(2.07359e-05 -1.48908e-06 0)
(2.36776e-05 5.7801e-06 0)
(2.34628e-05 3.45453e-06 0)
(2.32688e-05 1.10381e-06 0)
(2.3053e-05 -1.25678e-06 0)
(2.60656e-05 5.98301e-06 0)
(2.58904e-05 3.6741e-06 0)
(2.5731e-05 1.33271e-06 0)
(2.55477e-05 -1.03247e-06 0)
(2.86043e-05 6.1645e-06 0)
(2.84805e-05 3.87302e-06 0)
(2.83686e-05 1.54048e-06 0)
(2.82322e-05 -8.28234e-07 0)
(3.13021e-05 6.30771e-06 0)
(3.12435e-05 4.03429e-06 0)
(3.11932e-05 1.71075e-06 0)
(3.11191e-05 -6.59978e-07 0)
(3.4168e-05 6.39138e-06 0)
(3.41899e-05 4.13642e-06 0)
(3.42166e-05 1.82258e-06 0)
(3.42208e-05 -5.48105e-07 0)
(3.73281e-05 6.38912e-06 0)
(3.74507e-05 4.15347e-06 0)
(3.7574e-05 1.85089e-06 0)
(3.7677e-05 -5.16916e-07 0)
(4.06766e-05 6.25607e-06 0)
(4.09173e-05 4.03952e-06 0)
(4.11542e-05 1.74983e-06 0)
(4.13734e-05 -6.11308e-07 0)
(4.39949e-05 5.98265e-06 0)
(4.43604e-05 3.78348e-06 0)
(4.47176e-05 1.5077e-06 0)
(4.50598e-05 -8.42945e-07 0)
(4.72868e-05 5.56349e-06 0)
(4.77803e-05 3.38008e-06 0)
(4.82609e-05 1.11927e-06 0)
(4.8729e-05 -1.21703e-06 0)
(5.05565e-05 4.99783e-06 0)
(5.11773e-05 2.82864e-06 0)
(5.17807e-05 5.83927e-07 0)
(5.23742e-05 -1.73424e-06 0)
(5.38073e-05 4.28916e-06 0)
(5.45513e-05 2.13284e-06 0)
(5.52738e-05 -9.45994e-08 0)
(5.59885e-05 -2.39098e-06 0)
(5.70424e-05 3.44479e-06 0)
(5.79024e-05 1.30024e-06 0)
(5.8737e-05 -9.08759e-07 0)
(5.95655e-05 -3.17993e-06 0)
(6.02643e-05 2.47521e-06 0)
(6.12302e-05 3.4161e-07 0)
(6.2167e-05 -1.84777e-06 0)
(6.30993e-05 -4.09054e-06 0)
(6.34748e-05 1.39363e-06 0)
(6.45341e-05 -7.29596e-07 0)
(6.5561e-05 -2.89817e-06 0)
(6.65845e-05 -5.10966e-06 0)
(6.66752e-05 2.15405e-07 0)
(6.78133e-05 -1.89773e-06 0)
(6.89161e-05 -4.04434e-06 0)
(7.00162e-05 -6.22193e-06 0)
(6.98664e-05 -1.04224e-06 0)
(7.1067e-05 -3.14532e-06 0)
(7.22297e-05 -5.26881e-06 0)
(7.33901e-05 -7.41017e-06 0)
(7.30485e-05 -2.36056e-06 0)
(7.4294e-05 -4.45338e-06 0)
(7.54993e-05 -6.55261e-06 0)
(7.67023e-05 -8.6557e-06 0)
(7.62215e-05 -3.71953e-06 0)
(7.7493e-05 -5.80162e-06 0)
(7.87225e-05 -7.87548e-06 0)
(7.99495e-05 -9.93855e-06 0)
(7.93845e-05 -5.09813e-06 0)
(8.06626e-05 -7.16874e-06 0)
(8.18973e-05 -9.21614e-06 0)
(8.31287e-05 -1.12378e-05 0)
(8.25363e-05 -6.47463e-06 0)
(8.38012e-05 -8.53273e-06 0)
(8.50217e-05 -1.05526e-05 0)
(8.62379e-05 -1.25317e-05 0)
(8.56749e-05 -7.82699e-06 0)
(8.6907e-05 -9.87124e-06 0)
(8.80941e-05 -1.18625e-05 0)
(8.92753e-05 -1.37983e-05 0)
(8.87978e-05 -9.13338e-06 0)
(8.99779e-05 -1.11621e-05 0)
(9.11129e-05 -1.31238e-05 0)
(9.22401e-05 -1.50159e-05 0)
(9.19018e-05 -1.03727e-05 0)
(9.30117e-05 -1.23839e-05 0)
(9.40771e-05 -1.4315e-05 0)
(9.51322e-05 -1.61634e-05 0)
(9.49829e-05 -1.15252e-05 0)
(9.60061e-05 -1.35165e-05 0)
(9.69856e-05 -1.5416e-05 0)
(9.79521e-05 -1.72211e-05 0)
(9.80367e-05 -1.2573e-05 0)
(9.89585e-05 -1.45419e-05 0)
(9.98379e-05 -1.64088e-05 0)
(0.000100701 -1.81714e-05 0)
(0.000101058 -1.3501e-05 0)
(0.000101866 -1.54446e-05 0)
(0.000102633 -1.7278e-05 0)
(0.000103381 -1.89988e-05 0)
(0.000104041 -1.42968e-05 0)
(0.000104726 -1.6212e-05 0)
(0.000105372 -1.8011e-05 0)
(0.000105995 -1.96913e-05 0)
(0.000106981 -1.49514e-05 0)
(0.000107536 -1.68351e-05 0)
(0.000108054 -1.85986e-05 0)
(0.000108545 -2.02398e-05 0)
(0.000109871 -1.5459e-05 0)
(0.000110292 -1.7308e-05 0)
(0.000110678 -1.90353e-05 0)
(0.000111034 -2.06387e-05 0)
(0.000112706 -1.58174e-05 0)
(0.000112992 -1.76287e-05 0)
(0.000113246 -1.93188e-05 0)
(0.000113466 -2.08859e-05 0)
(0.00011548 -1.60279e-05 0)
(0.000115634 -1.77982e-05 0)
(0.000115757 -1.94504e-05 0)
(0.000115843 -2.09825e-05 0)
(0.000118187 -1.60947e-05 0)
(0.000118214 -1.78211e-05 0)
(0.000118212 -1.94345e-05 0)
(0.000118169 -2.0933e-05 0)
(0.000120823 -1.60252e-05 0)
(0.00012073 -1.77048e-05 0)
(0.00012061 -1.92786e-05 0)
(0.000120447 -2.07448e-05 0)
(0.000123382 -1.58294e-05 0)
(0.00012318 -1.74597e-05 0)
(0.000122953 -1.89931e-05 0)
(0.000122679 -2.04281e-05 0)
(0.00012586 -1.55202e-05 0)
(0.000125561 -1.70987e-05 0)
(0.000125239 -1.8591e-05 0)
(0.000124867 -1.99956e-05 0)
(0.000128253 -1.51125e-05 0)
(0.000127872 -1.66371e-05 0)
(0.00012747 -1.80876e-05 0)
(0.000127015 -1.94626e-05 0)
(0.000130558 -1.46237e-05 0)
(0.000130111 -1.60924e-05 0)
(0.000129644 -1.75004e-05 0)
(0.000129123 -1.88463e-05 0)
(0.000132771 -1.40728e-05 0)
(0.000132277 -1.54841e-05 0)
(0.000131763 -1.6849e-05 0)
(0.000131193 -1.81661e-05 0)
(0.00013489 -1.34803e-05 0)
(0.000134368 -1.48329e-05 0)
(0.000133825 -1.6154e-05 0)
(0.000133226 -1.74423e-05 0)
(0.000136914 -1.28678e-05 0)
(0.000136382 -1.41609e-05 0)
(0.000135831 -1.54377e-05 0)
(0.000135222 -1.66968e-05 0)
(0.000138842 -1.22573e-05 0)
(0.000138321 -1.34904e-05 0)
(0.000137779 -1.47223e-05 0)
(0.00013718 -1.59516e-05 0)
(0.000140673 -1.16709e-05 0)
(0.000140182 -1.28439e-05 0)
(0.000139669 -1.40303e-05 0)
(0.000139099 -1.52288e-05 0)
(0.000142409 -1.11298e-05 0)
(0.000141966 -1.22431e-05 0)
(0.0001415 -1.33835e-05 0)
(0.000140978 -1.45499e-05 0)
(0.00014405 -1.06543e-05 0)
(0.000143673 -1.17085e-05 0)
(0.000143271 -1.28025e-05 0)
(0.000142814 -1.39352e-05 0)
(0.000145599 -1.02627e-05 0)
(0.000145303 -1.12589e-05 0)
(0.00014498 -1.23061e-05 0)
(0.000144604 -1.34032e-05 0)
(0.000147059 -9.97136e-06 0)
(0.000146857 -1.09109e-05 0)
(0.000146626 -1.19108e-05 0)
(0.000146345 -1.29701e-05 0)
(0.000148432 -9.79379e-06 0)
(0.000148336 -1.06781e-05 0)
(0.000148208 -1.16304e-05 0)
(0.000148031 -1.26497e-05 0)
(0.000149722 -9.74074e-06 0)
(0.00014974 -1.05716e-05 0)
(0.000149723 -1.1476e-05 0)
(0.00014966 -1.24528e-05 0)
(0.000150932 -9.81986e-06 0)
(0.00015107 -1.05991e-05 0)
(0.00015117 -1.14552e-05 0)
(0.000151226 -1.23871e-05 0)
(0.000152067 -1.00356e-05 0)
(0.000152328 -1.07651e-05 0)
(0.000152547 -1.15726e-05 0)
(0.000152725 -1.2457e-05 0)
(0.00015313 -1.03892e-05 0)
(0.000153513 -1.10707e-05 0)
(0.000153852 -1.18292e-05 0)
(0.000154152 -1.26636e-05 0)
(0.000154124 -1.08788e-05 0)
(0.000154627 -1.15139e-05 0)
(0.000155083 -1.22231e-05 0)
(0.000155502 -1.30051e-05 0)
(0.000155054 -1.14994e-05 0)
(0.000155671 -1.20894e-05 0)
(0.000156238 -1.27489e-05 0)
(0.000156771 -1.34763e-05 0)
(0.00015592 -1.22432e-05 0)
(0.000156644 -1.27892e-05 0)
(0.000157316 -1.33985e-05 0)
(0.000157954 -1.40692e-05 0)
(0.000156726 -1.30997e-05 0)
(0.000157547 -1.36024e-05 0)
(0.000158313 -1.41608e-05 0)
(0.000159047 -1.47731e-05 0)
(0.000157473 -1.40562e-05 0)
(0.00015838 -1.45157e-05 0)
(0.00015923 -1.50227e-05 0)
(0.000160048 -1.55749e-05 0)
(0.000158161 -1.50985e-05 0)
(0.000159141 -1.55144e-05 0)
(0.000160063 -1.5969e-05 0)
(0.000160952 -1.64601e-05 0)
(0.000158789 -1.62112e-05 0)
(0.00015983 -1.65823e-05 0)
(0.000160811 -1.69837e-05 0)
(0.000161759 -1.7413e-05 0)
(0.000159356 -1.73789e-05 0)
(0.000160444 -1.77038e-05 0)
(0.000161473 -1.80508e-05 0)
(0.000162468 -1.8418e-05 0)
(0.000159858 -1.8587e-05 0)
(0.000160983 -1.88637e-05 0)
(0.000162048 -1.91552e-05 0)
(0.000163078 -1.94604e-05 0)
(0.000160294 -1.98222e-05 0)
(0.000161444 -2.00485e-05 0)
(0.000162535 -2.02833e-05 0)
(0.000163589 -2.0527e-05 0)
(0.000160659 -2.10729e-05 0)
(0.000161825 -2.12466e-05 0)
(0.000162933 -2.14233e-05 0)
(0.000164004 -2.1606e-05 0)
(0.000160951 -2.23274e-05 0)
(0.000162122 -2.2447e-05 0)
(0.000163241 -2.2565e-05 0)
(0.000164324 -2.26878e-05 0)
(0.000161168 -2.35748e-05 0)
(0.000162337 -2.36401e-05 0)
(0.000163462 -2.37014e-05 0)
(0.000164554 -2.37664e-05 0)
(0.000161303 -2.47877e-05 0)
(0.000162465 -2.48121e-05 0)
(0.000163592 -2.48309e-05 0)
(0.000164692 -2.48548e-05 0)
)
;

boundaryField
{
    plateFix
    {
        type            calculated;
        value           uniform (0 0 0);
    }
    plate
    {
        type            calculated;
        value           nonuniform List<vector> 
168
(
(3.10666e-06 1.70044e-06 2.42195e-23)
(2.72381e-06 -1.49326e-06 -3.14526e-23)
(3.03167e-06 2.7333e-06 -2.51366e-23)
(2.64118e-06 -2.38441e-06 4.22698e-24)
(3.17129e-06 3.5374e-06 -4.16412e-23)
(2.75015e-06 -3.05637e-06 5.15624e-25)
(3.54985e-06 4.11037e-06 -3.21565e-23)
(3.0791e-06 -3.50347e-06 -4.25771e-23)
(4.14968e-06 4.53212e-06 4.66813e-23)
(3.61476e-06 -3.79604e-06 -6.90296e-24)
(4.92545e-06 4.84037e-06 -2.24094e-23)
(4.31718e-06 -3.96585e-06 3.0468e-23)
(5.85221e-06 5.07405e-06 3.37034e-23)
(5.16506e-06 -4.04589e-06 -2.16166e-23)
(6.91042e-06 5.25849e-06 6.66232e-24)
(6.14213e-06 -4.05668e-06 -4.27415e-23)
(8.08946e-06 5.41433e-06 -1.17018e-23)
(7.24059e-06 -4.01451e-06 2.74283e-23)
(9.38283e-06 5.55642e-06 -5.25941e-25)
(8.45682e-06 -3.93055e-06 3.05124e-23)
(1.07876e-05 5.69602e-06 3.74472e-24)
(9.79097e-06 -3.81304e-06 -1.62807e-23)
(1.23028e-05 5.84108e-06 -1.50654e-23)
(1.12457e-05 -3.66778e-06 -9.23575e-24)
(1.39293e-05 5.99681e-06 -1.71698e-23)
(1.28258e-05 -3.49915e-06 1.86641e-25)
(1.56689e-05 6.16593e-06 4.69908e-23)
(1.45378e-05 -3.31061e-06 -2.12035e-23)
(1.75247e-05 6.34877e-06 -1.93942e-23)
(1.63898e-05 -3.10546e-06 4.1553e-23)
(1.95005e-05 6.54332e-06 -1.13988e-23)
(1.83911e-05 -2.88743e-06 -2.58496e-23)
(2.16009e-05 6.74525e-06 3.95689e-23)
(2.05523e-05 -2.66131e-06 -2.31713e-23)
(2.38315e-05 6.9477e-06 -2.94755e-23)
(2.2885e-05 -2.43365e-06 4.26308e-26)
(2.61984e-05 7.14104e-06 1.74776e-23)
(2.54016e-05 -2.21335e-06 1.51526e-23)
(2.87082e-05 7.31242e-06 7.64461e-24)
(2.81151e-05 -2.01238e-06 8.52476e-24)
(3.13687e-05 7.44517e-06 -1.61112e-23)
(3.1039e-05 -1.84645e-06 -6.04842e-24)
(3.41881e-05 7.51821e-06 2.06346e-23)
(3.41865e-05 -1.7357e-06 2.09894e-25)
(3.729e-05 7.50508e-06 -1.86289e-23)
(3.77e-05 -1.70396e-06 -7.45271e-24)
(4.05707e-05 7.36155e-06 -3.7459e-25)
(4.14632e-05 -1.79558e-06 -2.72944e-23)
(4.38174e-05 7.07889e-06 8.44749e-24)
(4.52199e-05 -2.02213e-06 -1.79969e-24)
(4.70363e-05 6.65177e-06 4.55584e-25)
(4.8961e-05 -2.3888e-06 1.29367e-23)
(5.02335e-05 6.07932e-06 5.72238e-24)
(5.26772e-05 -2.89629e-06 -1.70943e-23)
(5.34146e-05 5.36491e-06 1.16726e-23)
(5.63598e-05 -3.54116e-06 8.94186e-24)
(5.65845e-05 4.51568e-06 -1.54608e-23)
(6.00006e-05 -4.3162e-06 7.33928e-23)
(5.9747e-05 3.54195e-06 1.56662e-23)
(6.35922e-05 -5.21108e-06 -5.47772e-23)
(6.29053e-05 2.45672e-06 -1.72372e-23)
(6.71281e-05 -6.2128e-06 1.15122e-23)
(6.60617e-05 1.2752e-06 1.36319e-23)
(7.06023e-05 -7.30619e-06 2.30265e-23)
(6.92178e-05 1.44386e-08 -2.17013e-24)
(7.40098e-05 -8.47425e-06 -2.73255e-23)
(7.23746e-05 -1.30698e-06 -9.11758e-24)
(7.73458e-05 -9.69848e-06 -5.8903e-24)
(7.55325e-05 -2.66919e-06 3.6072e-24)
(8.06066e-05 -1.09591e-05 2.74172e-23)
(7.86911e-05 -4.05134e-06 -1.71125e-23)
(8.37888e-05 -1.22353e-05 1.13528e-24)
(8.18494e-05 -5.43189e-06 3.36951e-25)
(8.68899e-05 -1.35057e-05 -2.80659e-23)
(8.50055e-05 -6.78902e-06 2.2179e-24)
(8.99084e-05 -1.47484e-05 -7.79907e-24)
(8.81567e-05 -8.10109e-06 -1.6121e-23)
(9.28435e-05 -1.59421e-05 -3.1155e-23)
(9.12991e-05 -9.34722e-06 1.88583e-23)
(9.56958e-05 -1.70658e-05 2.4524e-23)
(9.44281e-05 -1.05079e-05 1.7688e-23)
(9.84665e-05 -1.81001e-05 1.22468e-23)
(9.7538e-05 -1.15655e-05 2.34984e-23)
(0.000101158 -1.90275e-05 -1.02723e-23)
(0.000100622 -1.2505e-05 -1.77329e-23)
(0.000103774 -1.9833e-05 2.23596e-23)
(0.000103674 -1.33141e-05 1.71327e-23)
(0.000106318 -2.05044e-05 -2.78485e-24)
(0.000106686 -1.39839e-05 -1.71335e-23)
(0.000108794 -2.10329e-05 1.5636e-23)
(0.00010965 -1.45086e-05 4.15096e-23)
(0.000111208 -2.14128e-05 3.29693e-23)
(0.00011256 -1.48862e-05 2.68213e-23)
(0.000113565 -2.1642e-05 1.51602e-23)
(0.000115407 -1.51177e-05 -1.68383e-23)
(0.000115868 -2.17218e-05 -3.00409e-23)
(0.000118184 -1.52073e-05 9.82793e-24)
(0.000118123 -2.16564e-05 2.44338e-23)
(0.000120886 -1.51622e-05 -5.18105e-24)
(0.000120334 -2.14532e-05 -1.09483e-23)
(0.000123505 -1.49926e-05 -2.20103e-26)
(0.000122505 -2.11222e-05 1.80754e-23)
(0.000126036 -1.47109e-05 -1.75683e-23)
(0.000124639 -2.06763e-05 -4.37081e-23)
(0.000128475 -1.43321e-05 -3.8091e-24)
(0.000126741 -2.01304e-05 2.08856e-23)
(0.000130815 -1.38732e-05 3.79171e-23)
(0.000128812 -1.95018e-05 1.08812e-23)
(0.000133055 -1.33533e-05 -1.76012e-23)
(0.000130856 -1.88094e-05 5.72598e-24)
(0.00013519 -1.27924e-05 -2.94173e-23)
(0.000132872 -1.80736e-05 -6.76885e-23)
(0.000137219 -1.22121e-05 -3.60975e-23)
(0.000134862 -1.73159e-05 -1.94067e-23)
(0.00013914 -1.16339e-05 2.50228e-23)
(0.000136826 -1.65581e-05 -3.20655e-25)
(0.000140955 -1.10798e-05 1.03592e-22)
(0.000138762 -1.58223e-05 6.80267e-24)
(0.000142663 -1.05708e-05 -7.10301e-24)
(0.000140668 -1.51295e-05 1.95932e-23)
(0.000144268 -1.01268e-05 -7.6515e-25)
(0.00014254 -1.44999e-05 4.03027e-23)
(0.000145771 -9.76598e-06 6.21179e-23)
(0.000144375 -1.39518e-05 -7.04475e-23)
(0.000147178 -9.50445e-06 -1.20753e-23)
(0.000146168 -1.35013e-05 1.07873e-22)
(0.000148492 -9.35564e-06 -4.3938e-23)
(0.000147914 -1.31621e-05 -2.94983e-23)
(0.000149718 -9.33019e-06 -5.99516e-23)
(0.000149606 -1.29447e-05 3.02488e-23)
(0.000150862 -9.43567e-06 6.12211e-23)
(0.000151239 -1.2857e-05 -5.4087e-23)
(0.000151928 -9.67653e-06 7.7101e-23)
(0.000152805 -1.29033e-05 -7.19528e-23)
(0.000152923 -1.00541e-05 -9.07506e-24)
(0.0001543 -1.30848e-05 -3.25631e-23)
(0.000153852 -1.05664e-05 7.45845e-23)
(0.000155716 -1.33996e-05 -2.47352e-23)
(0.000154718 -1.12089e-05 -5.59712e-23)
(0.000157047 -1.38427e-05 -8.19286e-25)
(0.000155526 -1.19737e-05 -1.77366e-23)
(0.000158287 -1.44062e-05 1.61478e-23)
(0.000156279 -1.28508e-05 2.58216e-23)
(0.000159433 -1.50797e-05 9.94013e-24)
(0.00015698 -1.38279e-05 -4.666e-23)
(0.000160478 -1.58503e-05 -4.48669e-23)
(0.000157629 -1.48909e-05 -4.74977e-23)
(0.00016142 -1.67038e-05 3.67831e-23)
(0.000158226 -1.60249e-05 1.78226e-22)
(0.000162257 -1.76247e-05 9.56623e-23)
(0.000158769 -1.72149e-05 -1.04835e-22)
(0.000162987 -1.85979e-05 -3.81046e-23)
(0.000159255 -1.84464e-05 5.78973e-23)
(0.000163612 -1.96087e-05 3.08858e-23)
(0.000159681 -1.97063e-05 7.07445e-23)
(0.000164133 -2.06446e-05 -9.01261e-23)
(0.000160042 -2.0983e-05 -7.28157e-23)
(0.000164551 -2.16936e-05 6.97224e-23)
(0.000160335 -2.22639e-05 -1.52342e-24)
(0.000164871 -2.27463e-05 1.25202e-22)
(0.000160564 -2.35394e-05 1.68581e-22)
(0.000165102 -2.37959e-05 -1.33025e-25)
(0.000160725 -2.4777e-05 -4.31641e-23)
(0.000161341 -2.53615e-05 1.14665e-23)
(0.000162503 -2.53829e-05 3.53568e-23)
(0.000163631 -2.53879e-05 -1.27194e-23)
(0.000164731 -2.54134e-05 -1.15142e-23)
(0.00016525 -2.48605e-05 -2.01597e-23)
)
;
    }
    frontAndBackPlanes
    {
        type            empty;
    }
}


// ************************************************************************* //
