/*--------------------------------*- C++ -*----------------------------------*\
| =========                 |                                                 |
| \\      /  F ield         | OpenFOAM Extend Project: Open source CFD        |
|  \\    /   O peration     | Version:  1.6-ext                               |
|   \\  /    A nd           | Web:      www.extend-project.de                 |
|    \\/     M anipulation  |                                                 |
\*---------------------------------------------------------------------------*/
FoamFile
{
    version     2.0;
    format      ascii;
    class       volVectorField;
    location    "0.8";
    object      DV_0;
}
// * * * * * * * * * * * * * * * * * * * * * * * * * * * * * * * * * * * * * //

dimensions      [0 1 -1 0 0 0 0];

internalField   nonuniform List<vector> 
328
(
(3.75459e-07 7.0107e-07 0)
(2.46692e-07 1.4088e-07 0)
(2.41278e-07 -1.47912e-07 0)
(3.50202e-07 -6.82009e-07 0)
(1.14445e-06 1.80894e-06 0)
(8.13954e-07 4.22553e-07 0)
(7.95816e-07 -4.25207e-07 0)
(1.06716e-06 -1.7534e-06 0)
(2.03417e-06 2.64783e-06 0)
(1.56974e-06 7.01502e-07 0)
(1.53492e-06 -6.78221e-07 0)
(1.89893e-06 -2.54901e-06 0)
(3.0039e-06 3.26157e-06 0)
(2.4541e-06 9.5692e-07 0)
(2.40101e-06 -8.84292e-07 0)
(2.80763e-06 -3.10646e-06 0)
(4.06547e-06 3.70806e-06 0)
(3.47924e-06 1.18145e-06 0)
(3.40637e-06 -1.03404e-06 0)
(3.8056e-06 -3.47771e-06 0)
(5.2138e-06 4.03248e-06 0)
(4.62553e-06 1.37338e-06 0)
(4.53228e-06 -1.12348e-06 0)
(4.88923e-06 -3.70349e-06 0)
(6.45431e-06 4.27254e-06 0)
(5.89037e-06 1.53744e-06 0)
(5.77651e-06 -1.15518e-06 0)
(6.06515e-06 -3.81801e-06 0)
(7.79056e-06 4.45675e-06 0)
(7.26623e-06 1.68085e-06 0)
(7.13208e-06 -1.1345e-06 0)
(7.33845e-06 -3.84736e-06 0)
(9.22833e-06 4.60746e-06 0)
(8.75105e-06 1.81236e-06 0)
(8.5975e-06 -1.06879e-06 0)
(8.71662e-06 -3.81218e-06 0)
(1.07733e-05 4.74136e-06 0)
(1.03437e-05 1.94031e-06 0)
(1.01723e-05 -9.65675e-07 0)
(1.02073e-05 -3.72823e-06 0)
(1.24315e-05 4.87079e-06 0)
(1.20462e-05 2.07191e-06 0)
(1.18592e-05 -8.32388e-07 0)
(1.18186e-05 -3.60767e-06 0)
(1.42092e-05 5.00418e-06 0)
(1.38625e-05 2.21247e-06 0)
(1.36629e-05 -6.75217e-07 0)
(1.35591e-05 -3.45967e-06 0)
(1.61127e-05 5.14673e-06 0)
(1.57986e-05 2.36529e-06 0)
(1.55903e-05 -4.99453e-07 0)
(1.54378e-05 -3.29122e-06 0)
(1.81486e-05 5.30077e-06 0)
(1.78624e-05 2.53148e-06 0)
(1.76502e-05 -3.09537e-07 0)
(1.74639e-05 -3.10766e-06 0)
(2.03241e-05 5.46609e-06 0)
(2.00629e-05 2.71015e-06 0)
(1.98528e-05 -1.09467e-07 0)
(1.96474e-05 -2.91345e-06 0)
(2.26467e-05 5.64024e-06 0)
(2.24106e-05 2.89843e-06 0)
(2.22092e-05 9.66784e-08 0)
(2.19989e-05 -2.71283e-06 0)
(2.51246e-05 5.81855e-06 0)
(2.49163e-05 3.09146e-06 0)
(2.47317e-05 3.04076e-07 0)
(2.45299e-05 -2.51059e-06 0)
(2.77666e-05 5.9941e-06 0)
(2.75917e-05 3.28224e-06 0)
(2.7433e-05 5.06448e-07 0)
(2.72526e-05 -2.31282e-06 0)
(3.05823e-05 6.15738e-06 0)
(3.04489e-05 3.4613e-06 0)
(3.03264e-05 6.95305e-07 0)
(3.01803e-05 -2.12773e-06 0)
(3.35819e-05 6.29593e-06 0)
(3.35004e-05 3.61618e-06 0)
(3.34255e-05 8.59207e-07 0)
(3.33266e-05 -1.96639e-06 0)
(3.67766e-05 6.3938e-06 0)
(3.67589e-05 3.73098e-06 0)
(3.6744e-05 9.83141e-07 0)
(3.6706e-05 -1.84333e-06 0)
(4.01783e-05 6.43124e-06 0)
(4.02377e-05 3.78592e-06 0)
(4.02961e-05 1.04808e-06 0)
(4.03327e-05 -1.77698e-06 0)
(4.39382e-05 6.38266e-06 0)
(4.40921e-05 3.75603e-06 0)
(4.42408e-05 1.03012e-06 0)
(4.43695e-05 -1.79035e-06 0)
(4.79316e-05 6.20969e-06 0)
(4.81943e-05 3.60226e-06 0)
(4.84476e-05 8.90439e-07 0)
(4.86827e-05 -1.92134e-06 0)
(5.18963e-05 5.90956e-06 0)
(5.22725e-05 3.32051e-06 0)
(5.2635e-05 6.24249e-07 0)
(5.29811e-05 -2.17497e-06 0)
(5.58347e-05 5.47978e-06 0)
(5.6326e-05 2.90839e-06 0)
(5.67995e-05 2.29197e-07 0)
(5.72582e-05 -2.5537e-06 0)
(5.9749e-05 4.92114e-06 0)
(6.03542e-05 2.3668e-06 0)
(6.09377e-05 -2.93815e-07 0)
(6.15078e-05 -3.05676e-06 0)
(6.36409e-05 4.23721e-06 0)
(6.43561e-05 1.69943e-06 0)
(6.50461e-05 -9.41123e-07 0)
(6.57238e-05 -3.68065e-06 0)
(6.7512e-05 3.43396e-06 0)
(6.8331e-05 9.1236e-07 0)
(6.91214e-05 -1.70667e-06 0)
(6.99004e-05 -4.41946e-06 0)
(7.13633e-05 2.51957e-06 0)
(7.22777e-05 1.386e-08 0)
(7.31603e-05 -2.58223e-06 0)
(7.40323e-05 -5.26514e-06 0)
(7.5196e-05 1.50433e-06 0)
(7.61953e-05 -9.85675e-07 0)
(7.71597e-05 -3.55742e-06 0)
(7.81141e-05 -6.20745e-06 0)
(7.90108e-05 4.00632e-07 0)
(8.00825e-05 -2.07373e-06 0)
(8.11165e-05 -4.61976e-06 0)
(8.21408e-05 -7.2341e-06 0)
(8.28084e-05 -7.77031e-07 0)
(8.39382e-05 -3.23568e-06 0)
(8.50277e-05 -5.75465e-06 0)
(8.61078e-05 -8.33067e-06 0)
(8.65889e-05 -2.0122e-06 0)
(8.7761e-05 -4.45486e-06 0)
(8.88906e-05 -6.94544e-06 0)
(9.00105e-05 -9.48074e-06 0)
(9.0352e-05 -3.28663e-06 0)
(9.15494e-05 -5.71279e-06 0)
(9.27024e-05 -8.17366e-06 0)
(9.38451e-05 -1.06661e-05 0)
(9.4097e-05 -4.58068e-06 0)
(9.53017e-05 -6.98951e-06 0)
(9.64606e-05 -9.41938e-06 0)
(9.76081e-05 -1.18672e-05 0)
(9.78224e-05 -5.87372e-06 0)
(9.90161e-05 -8.26409e-06 0)
(0.000100163 -1.06617e-05 0)
(0.000101297 -1.30634e-05 0)
(0.000101526 -7.14485e-06 0)
(0.00010269 -9.51526e-06 0)
(0.000103807 -1.18792e-05 0)
(0.000104909 -1.42339e-05 0)
(0.000105205 -8.37347e-06 0)
(0.000106322 -1.0722e-05 0)
(0.000107392 -1.30512e-05 0)
(0.000108445 -1.53579e-05 0)
(0.000108855 -9.53997e-06 0)
(0.000109909 -1.18645e-05 0)
(0.000110915 -1.41575e-05 0)
(0.000111902 -1.64161e-05 0)
(0.000112473 -1.06264e-05 0)
(0.000113448 -1.29244e-05 0)
(0.000114376 -1.518e-05 0)
(0.000115281 -1.73903e-05 0)
(0.000116054 -1.16168e-05 0)
(0.000116936 -1.38856e-05 0)
(0.000117773 -1.61025e-05 0)
(0.000118583 -1.82648e-05 0)
(0.000119592 -1.24976e-05 0)
(0.00012037 -1.47344e-05 0)
(0.000121105 -1.69113e-05 0)
(0.000121809 -1.9026e-05 0)
(0.000123081 -1.32582e-05 0)
(0.000123747 -1.54597e-05 0)
(0.000124372 -1.75955e-05 0)
(0.000124961 -1.96631e-05 0)
(0.000126517 -1.38901e-05 0)
(0.000127065 -1.60534e-05 0)
(0.000127572 -1.81468e-05 0)
(0.00012804 -2.01681e-05 0)
(0.000129894 -1.43881e-05 0)
(0.000130319 -1.65099e-05 0)
(0.000130705 -1.85597e-05 0)
(0.000131049 -2.05354e-05 0)
(0.000133206 -1.47493e-05 0)
(0.000133507 -1.68265e-05 0)
(0.000133771 -1.88316e-05 0)
(0.000133989 -2.07625e-05 0)
(0.000136447 -1.49739e-05 0)
(0.000136625 -1.70033e-05 0)
(0.000136769 -1.89624e-05 0)
(0.000136863 -2.08494e-05 0)
(0.000139611 -1.50645e-05 0)
(0.000139672 -1.7043e-05 0)
(0.000139699 -1.89551e-05 0)
(0.000139673 -2.07991e-05 0)
(0.000142693 -1.50271e-05 0)
(0.000142643 -1.69515e-05 0)
(0.000142561 -1.88154e-05 0)
(0.000142421 -2.06175e-05 0)
(0.000145688 -1.48702e-05 0)
(0.000145536 -1.67377e-05 0)
(0.000145354 -1.85525e-05 0)
(0.000145111 -2.03133e-05 0)
(0.000148591 -1.46058e-05 0)
(0.000148348 -1.64135e-05 0)
(0.000148078 -1.81781e-05 0)
(0.000147743 -1.98985e-05 0)
(0.000151396 -1.42485e-05 0)
(0.000151078 -1.59939e-05 0)
(0.000150732 -1.77074e-05 0)
(0.000150321 -1.93879e-05 0)
(0.000154099 -1.38156e-05 0)
(0.000153722 -1.54966e-05 0)
(0.000153318 -1.7158e-05 0)
(0.000152846 -1.8799e-05 0)
(0.000156698 -1.33268e-05 0)
(0.000156279 -1.49415e-05 0)
(0.000155834 -1.655e-05 0)
(0.000155319 -1.81515e-05 0)
(0.000159189 -1.28032e-05 0)
(0.000158747 -1.43504e-05 0)
(0.000158279 -1.59051e-05 0)
(0.00015774 -1.74668e-05 0)
(0.000161571 -1.2267e-05 0)
(0.000161125 -1.37457e-05 0)
(0.000160652 -1.52459e-05 0)
(0.000160109 -1.6767e-05 0)
(0.000163844 -1.17403e-05 0)
(0.000163413 -1.31502e-05 0)
(0.000162954 -1.45951e-05 0)
(0.000162424 -1.60746e-05 0)
(0.000166007 -1.12445e-05 0)
(0.00016561 -1.25857e-05 0)
(0.000165182 -1.39747e-05 0)
(0.000164684 -1.54111e-05 0)
(0.000168063 -1.07996e-05 0)
(0.000167715 -1.20726e-05 0)
(0.000167335 -1.34049e-05 0)
(0.000166886 -1.47965e-05 0)
(0.000170012 -1.04235e-05 0)
(0.00016973 -1.16289e-05 0)
(0.000169411 -1.29041e-05 0)
(0.000169027 -1.4249e-05 0)
(0.000171857 -1.01314e-05 0)
(0.000171653 -1.12704e-05 0)
(0.00017141 -1.24879e-05 0)
(0.000171102 -1.37839e-05 0)
(0.000173602 -9.93602e-06 0)
(0.000173486 -1.10098e-05 0)
(0.000173328 -1.21692e-05 0)
(0.000173109 -1.34142e-05 0)
(0.000175248 -9.84701e-06 0)
(0.000175229 -1.08569e-05 0)
(0.000175165 -1.19577e-05 0)
(0.000175042 -1.31495e-05 0)
(0.000176799 -9.87131e-06 0)
(0.000176882 -1.08187e-05 0)
(0.000176918 -1.18605e-05 0)
(0.000176897 -1.29972e-05 0)
(0.000178258 -1.00132e-05 0)
(0.000178447 -1.08994e-05 0)
(0.000178587 -1.18821e-05 0)
(0.000178672 -1.29616e-05 0)
(0.000179628 -1.02745e-05 0)
(0.000179925 -1.1101e-05 0)
(0.00018017 -1.20242e-05 0)
(0.000180362 -1.30447e-05 0)
(0.000180912 -1.06548e-05 0)
(0.000181315 -1.14229e-05 0)
(0.000181665 -1.22865e-05 0)
(0.000181964 -1.32464e-05 0)
(0.000182112 -1.11515e-05 0)
(0.000182619 -1.18625e-05 0)
(0.000183071 -1.26665e-05 0)
(0.000183474 -1.35642e-05 0)
(0.00018323 -1.17603e-05 0)
(0.000183838 -1.24155e-05 0)
(0.000184388 -1.31598e-05 0)
(0.000184891 -1.39938e-05 0)
(0.00018427 -1.24748e-05 0)
(0.000184972 -1.30755e-05 0)
(0.000185614 -1.376e-05 0)
(0.000186211 -1.45292e-05 0)
(0.000185233 -1.3287e-05 0)
(0.000186021 -1.38344e-05 0)
(0.000186749 -1.44592e-05 0)
(0.000187432 -1.51623e-05 0)
(0.000186122 -1.41873e-05 0)
(0.000186987 -1.46823e-05 0)
(0.000187791 -1.52475e-05 0)
(0.000188552 -1.58834e-05 0)
(0.000186937 -1.51644e-05 0)
(0.000187869 -1.56078e-05 0)
(0.000188741 -1.61132e-05 0)
(0.000189569 -1.66809e-05 0)
(0.000187679 -1.62055e-05 0)
(0.000188669 -1.65977e-05 0)
(0.000189597 -1.7043e-05 0)
(0.00019048 -1.75416e-05 0)
(0.000188349 -1.72971e-05 0)
(0.000189384 -1.76379e-05 0)
(0.000190358 -1.80226e-05 0)
(0.000191286 -1.84511e-05 0)
(0.000188945 -1.84254e-05 0)
(0.000190015 -1.8714e-05 0)
(0.000191023 -1.90371e-05 0)
(0.000191984 -1.93948e-05 0)
(0.000189465 -1.95781e-05 0)
(0.000190559 -1.98129e-05 0)
(0.000191591 -2.00728e-05 0)
(0.000192576 -2.03586e-05 0)
(0.000189905 -2.07453e-05 0)
(0.000191013 -2.09239e-05 0)
(0.000192061 -2.11181e-05 0)
(0.00019306 -2.13307e-05 0)
(0.000190261 -2.19196e-05 0)
(0.000191374 -2.20395e-05 0)
(0.00019243 -2.21663e-05 0)
(0.000193438 -2.23052e-05 0)
(0.000190531 -2.30955e-05 0)
(0.000191642 -2.31539e-05 0)
(0.000192698 -2.32147e-05 0)
(0.000193713 -2.3283e-05 0)
(0.000190704 -2.42467e-05 0)
(0.000191809 -2.42549e-05 0)
(0.000192863 -2.42646e-05 0)
(0.000193883 -2.42839e-05 0)
)
;

boundaryField
{
    plateFix
    {
        type            calculated;
        value           uniform (0 0 0);
    }
    plate
    {
        type            calculated;
        value           nonuniform List<vector> 
168
(
(3.48854e-06 1.87424e-06 3.08611e-23)
(3.321e-06 -1.79238e-06 5.52668e-24)
(3.4453e-06 3.02693e-06 -5.18402e-23)
(3.23148e-06 -2.90888e-06 1.98116e-23)
(3.63927e-06 3.92871e-06 7.21971e-23)
(3.35856e-06 -3.76807e-06 -6.08531e-23)
(4.10005e-06 4.57008e-06 2.77101e-23)
(3.73782e-06 -4.35635e-06 1.1383e-22)
(4.81237e-06 5.03869e-06 -4.6008e-23)
(4.35899e-06 -4.75404e-06 -4.80923e-23)
(5.72705e-06 5.37585e-06 1.3036e-23)
(5.1786e-06 -4.99823e-06 -2.17031e-24)
(6.81665e-06 5.62548e-06 1.41725e-23)
(6.17348e-06 -5.12912e-06 -4.62504e-23)
(8.05901e-06 5.8163e-06 -5.18884e-23)
(7.32491e-06 -5.17299e-06 6.63348e-23)
(9.44178e-06 5.97176e-06 -3.48849e-23)
(8.62347e-06 -5.15148e-06 1.35092e-23)
(1.09572e-05 6.10856e-06 5.41567e-23)
(1.00641e-05 -5.08028e-06 -1.94668e-23)
(1.26017e-05 6.23911e-06 -2.32915e-23)
(1.16462e-05 -4.9715e-06 -1.02519e-23)
(1.43745e-05 6.37186e-06 2.7372e-23)
(1.33716e-05 -4.8342e-06 4.92152e-23)
(1.6277e-05 6.51208e-06 3.15705e-23)
(1.52448e-05 -4.67531e-06 -2.07195e-23)
(1.83124e-05 6.66224e-06 -5.27982e-23)
(1.72721e-05 -4.50018e-06 7.13463e-24)
(2.04853e-05 6.82235e-06 3.91776e-23)
(1.94617e-05 -4.31337e-06 -3.18398e-23)
(2.28017e-05 6.99015e-06 -2.19572e-23)
(2.18235e-05 -4.11922e-06 1.35334e-23)
(2.52688e-05 7.16119e-06 -8.74397e-24)
(2.43687e-05 -3.92262e-06 2.61882e-23)
(2.78945e-05 7.32872e-06 1.29258e-23)
(2.71101e-05 -3.72973e-06 -2.67798e-24)
(3.06877e-05 7.48336e-06 -9.61228e-24)
(3.00615e-05 -3.54877e-06 -5.53719e-24)
(3.36579e-05 7.61279e-06 -7.13024e-24)
(3.32375e-05 -3.39071e-06 1.98049e-24)
(3.68156e-05 7.70119e-06 -6.19603e-24)
(3.66533e-05 -3.26987e-06 1.2693e-23)
(4.01726e-05 7.72892e-06 -2.05658e-23)
(4.03237e-05 -3.20443e-06 -5.61276e-24)
(4.38776e-05 7.67019e-06 2.89301e-23)
(4.44138e-05 -3.21689e-06 -2.80419e-24)
(4.78086e-05 7.4871e-06 -1.17401e-23)
(4.87875e-05 -3.34465e-06 2.09354e-23)
(5.17089e-05 7.17757e-06 -4.18041e-24)
(5.31484e-05 -3.59273e-06 3.01765e-23)
(5.55825e-05 6.73906e-06 -5.15448e-24)
(5.74885e-05 -3.96368e-06 -1.2806e-24)
(5.94331e-05 6.17229e-06 -1.13213e-23)
(6.17998e-05 -4.45683e-06 2.04647e-23)
(6.32638e-05 5.48072e-06 7.15917e-24)
(6.60752e-05 -5.06877e-06 2.79591e-23)
(6.70771e-05 4.67027e-06 6.60024e-24)
(7.03077e-05 -5.79372e-06 -8.56654e-23)
(7.08753e-05 3.74904e-06 -1.61792e-23)
(7.44908e-05 -6.6237e-06 1.4731e-23)
(7.46606e-05 2.72726e-06 -3.14045e-24)
(7.86182e-05 -7.54858e-06 1.89397e-23)
(7.84348e-05 1.61728e-06 3.2422e-25)
(8.26837e-05 -8.55614e-06 -2.55565e-23)
(8.21994e-05 4.33483e-07 -1.07998e-23)
(8.66818e-05 -9.63209e-06 -7.70844e-25)
(8.59556e-05 -8.07784e-07 -5.49858e-24)
(9.0607e-05 -1.07602e-05 1.1028e-23)
(8.9704e-05 -2.08844e-06 -9.55324e-24)
(9.44545e-05 -1.19224e-05 -4.25598e-23)
(9.34443e-05 -3.38901e-06 3.13575e-23)
(9.82205e-05 -1.30992e-05 4.97495e-24)
(9.71754e-05 -4.68913e-06 -4.98318e-24)
(0.000101902 -1.42705e-05 3.47981e-23)
(0.000100895 -5.96811e-06 7.7758e-24)
(0.000105496 -1.54154e-05 5.06363e-24)
(0.0001046 -7.20558e-06 2.07607e-23)
(0.000109004 -1.65137e-05 2.39788e-23)
(0.000108286 -8.38217e-06 -1.55074e-24)
(0.000112423 -1.75461e-05 -8.34394e-24)
(0.000111948 -9.48008e-06 -1.288e-24)
(0.000115757 -1.84947e-05 -3.5907e-23)
(0.00011558 -1.04836e-05 -2.83217e-23)
(0.000119006 -1.93439e-05 1.76604e-23)
(0.000119175 -1.13792e-05 8.18298e-24)
(0.000122173 -2.00802e-05 4.76805e-24)
(0.000122727 -1.21563e-05 -1.93134e-23)
(0.000125261 -2.0693e-05 5.99899e-24)
(0.000126229 -1.28067e-05 9.24354e-24)
(0.000128273 -2.11743e-05 -9.19291e-24)
(0.000129673 -1.33249e-05 -2.09615e-23)
(0.000131212 -2.15186e-05 -3.84618e-23)
(0.000133053 -1.37082e-05 -5.84485e-23)
(0.000134082 -2.17233e-05 2.30284e-23)
(0.000136362 -1.39568e-05 5.67716e-23)
(0.000136887 -2.17886e-05 -2.247e-24)
(0.000139592 -1.40733e-05 8.69943e-24)
(0.00013963 -2.17174e-05 -2.16725e-23)
(0.000142736 -1.40635e-05 -2.70388e-23)
(0.000142315 -2.15156e-05 1.00003e-23)
(0.000145788 -1.39361e-05 1.04822e-23)
(0.000144946 -2.1192e-05 -4.20814e-23)
(0.000148741 -1.37028e-05 6.50792e-24)
(0.000147527 -2.07585e-05 4.08776e-23)
(0.000151588 -1.33781e-05 2.24923e-23)
(0.000150062 -2.02296e-05 -6.93973e-24)
(0.000154325 -1.29791e-05 -1.60232e-23)
(0.000152552 -1.96228e-05 9.86102e-24)
(0.000156946 -1.25252e-05 5.67621e-23)
(0.000155001 -1.89576e-05 -1.79326e-23)
(0.000159449 -1.20374e-05 5.29946e-23)
(0.000157409 -1.8255e-05 3.79099e-23)
(0.000161833 -1.15373e-05 8.48361e-25)
(0.000159776 -1.75371e-05 3.64414e-24)
(0.000164096 -1.10469e-05 -1.19948e-23)
(0.000162101 -1.68259e-05 -1.34683e-24)
(0.000166239 -1.05872e-05 -8.39951e-23)
(0.000164381 -1.61427e-05 -1.90878e-23)
(0.000168265 -1.01781e-05 3.40674e-23)
(0.000166612 -1.55075e-05 -1.36118e-23)
(0.000170177 -9.83703e-06 -1.29704e-23)
(0.000168789 -1.4938e-05 -5.68544e-24)
(0.000171977 -9.57931e-06 -7.69225e-23)
(0.000170909 -1.44498e-05 2.85997e-23)
(0.000173671 -9.41739e-06 -3.05564e-23)
(0.000172965 -1.40555e-05 -7.2468e-23)
(0.000175263 -9.36094e-06 9.63032e-23)
(0.000174952 -1.3765e-05 1.11239e-22)
(0.000176757 -9.41688e-06 3.82006e-23)
(0.000176865 -1.35855e-05 -2.9854e-23)
(0.000178157 -9.58947e-06 -4.57664e-23)
(0.000178698 -1.35216e-05 2.3553e-23)
(0.000179468 -9.88057e-06 -1.10349e-22)
(0.000180447 -1.35752e-05 1.20773e-22)
(0.000180693 -1.02898e-05 1.62598e-23)
(0.000182107 -1.37464e-05 8.25023e-24)
(0.000181836 -1.08145e-05 1.62564e-23)
(0.000183674 -1.40326e-05 7.82779e-24)
(0.000182901 -1.14505e-05 3.13083e-23)
(0.000185145 -1.44299e-05 2.60844e-23)
(0.00018389 -1.21913e-05 4.45553e-23)
(0.000186516 -1.4932e-05 3.56233e-23)
(0.000184807 -1.30292e-05 9.1682e-24)
(0.000187783 -1.5531e-05 -1.79093e-23)
(0.000185655 -1.39544e-05 9.9968e-23)
(0.000188944 -1.62171e-05 7.331e-23)
(0.000186435 -1.49558e-05 -6.35354e-23)
(0.000189995 -1.6979e-05 -1.79957e-23)
(0.000187149 -1.6021e-05 -1.22905e-22)
(0.000190934 -1.78033e-05 -4.76555e-23)
(0.000187797 -1.71366e-05 8.65953e-23)
(0.000191761 -1.8676e-05 4.89934e-23)
(0.000188378 -1.82893e-05 1.113e-23)
(0.000192473 -1.95824e-05 1.88315e-23)
(0.000188889 -1.9467e-05 -1.61685e-22)
(0.000193071 -2.05087e-05 -9.93778e-24)
(0.000189324 -2.06605e-05 1.53597e-22)
(0.000193558 -2.14429e-05 -2.90921e-23)
(0.000189678 -2.18617e-05 1.3487e-24)
(0.000193937 -2.23797e-05 -7.21846e-23)
(0.000189955 -2.30675e-05 -1.58755e-22)
(0.000194219 -2.33203e-05 9.60071e-23)
(0.000190147 -2.42457e-05 3.23188e-23)
(0.000190759 -2.48001e-05 -8.27585e-24)
(0.000191864 -2.47957e-05 -7.58581e-25)
(0.000192918 -2.47857e-05 2.374e-23)
(0.000193937 -2.48089e-05 -2.58299e-23)
(0.000194407 -2.4292e-05 -1.74721e-22)
)
;
    }
    frontAndBackPlanes
    {
        type            empty;
    }
}


// ************************************************************************* //
