/*--------------------------------*- C++ -*----------------------------------*\
| =========                 |                                                 |
| \\      /  F ield         | OpenFOAM Extend Project: Open source CFD        |
|  \\    /   O peration     | Version:  1.6-ext                               |
|   \\  /    A nd           | Web:      www.extend-project.de                 |
|    \\/     M anipulation  |                                                 |
\*---------------------------------------------------------------------------*/
FoamFile
{
    version     2.0;
    format      ascii;
    class       surfaceScalarField;
    location    "0.8";
    object      meshPhi;
}
// * * * * * * * * * * * * * * * * * * * * * * * * * * * * * * * * * * * * * //

dimensions      [0 3 -1 0 0 0 0];

internalField   nonuniform List<scalar> 
570
(
1.02596e-10
2.8851e-09
-5.41129e-12
7.75078e-10
-9.3044e-11
6.70799e-10
2.27457e-09
3.12477e-10
3.49385e-09
-1.23128e-11
1.7167e-09
-2.78541e-10
1.48969e-09
2.61639e-09
5.14996e-10
4.39329e-09
-8.81017e-12
2.85294e-09
-4.44154e-10
2.48293e-09
3.15842e-09
7.10321e-10
5.5667e-09
8.30641e-12
4.15232e-09
-5.8221e-10
3.62353e-09
3.90094e-09
9.03994e-10
6.98833e-09
4.30121e-11
5.61299e-09
-6.88275e-10
4.91009e-09
4.82821e-09
1.10435e-09
8.62547e-09
1.00765e-10
7.22389e-09
-7.58003e-10
6.33256e-09
5.91662e-09
1.32188e-09
1.04607e-08
1.8893e-10
8.98238e-09
-7.85804e-10
7.88817e-09
7.15285e-09
1.56956e-09
1.24832e-08
3.17202e-10
1.08862e-08
-7.64275e-10
9.57434e-09
8.52769e-09
1.86327e-09
1.46892e-08
4.98188e-10
1.29369e-08
-6.8342e-10
1.13919e-08
1.00371e-08
2.22248e-09
1.70796e-08
7.48106e-10
1.51383e-08
-5.29809e-10
1.33437e-08
1.16801e-08
2.67097e-09
1.96589e-08
1.08768e-09
1.74964e-08
-2.85499e-10
1.54348e-08
1.34586e-08
3.2379e-09
2.24341e-08
1.54326e-09
2.00199e-08
7.32291e-11
1.76726e-08
1.53765e-08
3.95908e-09
2.54145e-08
2.14821e-09
2.27189e-08
5.77409e-10
2.00662e-08
1.74395e-08
4.87864e-09
2.86112e-08
2.94467e-09
2.56055e-08
1.26721e-09
2.26262e-08
1.96551e-08
6.05124e-09
3.2037e-08
3.98569e-09
2.8693e-08
2.19415e-09
2.53646e-08
2.2032e-08
7.54469e-09
3.57058e-08
5.33793e-09
3.19956e-08
3.42373e-09
2.82944e-08
2.45803e-08
9.44337e-09
3.9633e-08
7.08496e-09
3.55286e-08
5.03868e-09
3.14295e-08
2.73114e-08
1.18524e-08
4.38346e-08
9.33133e-09
3.93079e-08
7.143e-09
3.47846e-08
3.02376e-08
1.49025e-08
4.83275e-08
1.22075e-08
4.33498e-08
9.86677e-09
3.83748e-08
3.33722e-08
1.87565e-08
5.31292e-08
1.58762e-08
4.76713e-08
1.33722e-08
4.22161e-08
3.67295e-08
2.36165e-08
5.82572e-08
2.05392e-08
5.22893e-08
1.78611e-08
4.63247e-08
4.0325e-08
2.97328e-08
6.37309e-08
2.64469e-08
5.72213e-08
2.35833e-08
5.07176e-08
4.41733e-08
4.04175e-08
6.99883e-08
3.6654e-08
6.28711e-08
3.33682e-08
5.57575e-08
4.86022e-08
4.76116e-08
7.62014e-08
4.3872e-08
6.8486e-08
4.05996e-08
6.07758e-08
5.30192e-08
5.54141e-08
8.2361e-08
5.17009e-08
7.40625e-08
4.84428e-08
6.57708e-08
5.74281e-08
6.38102e-08
8.84611e-08
6.01259e-08
7.95968e-08
5.68831e-08
7.07411e-08
6.18296e-08
7.27827e-08
9.44959e-08
6.91299e-08
8.50853e-08
6.59034e-08
7.56849e-08
6.62241e-08
8.23119e-08
1.0046e-07
7.86933e-08
9.05243e-08
7.54841e-08
8.06007e-08
7.06123e-08
9.2376e-08
1.06347e-07
8.87939e-08
9.59101e-08
8.56031e-08
8.54868e-08
7.49946e-08
1.0295e-07
1.12151e-07
9.94075e-08
1.01239e-07
9.62361e-08
9.03415e-08
7.9371e-08
1.14009e-07
1.17868e-07
1.10507e-07
1.06508e-07
1.07357e-07
9.5163e-08
8.37416e-08
1.25522e-07
1.23493e-07
1.22065e-07
1.11713e-07
1.18936e-07
9.99493e-08
8.81058e-08
1.37461e-07
1.29021e-07
1.3405e-07
1.16852e-07
1.30945e-07
1.04698e-07
9.24628e-08
1.49795e-07
1.34448e-07
1.46432e-07
1.21921e-07
1.43351e-07
1.09408e-07
9.68112e-08
1.6249e-07
1.39771e-07
1.59177e-07
1.26917e-07
1.56122e-07
1.14076e-07
1.01149e-07
1.75514e-07
1.44987e-07
1.72253e-07
1.31837e-07
1.69227e-07
1.187e-07
1.05475e-07
1.88834e-07
1.50094e-07
1.85627e-07
1.3668e-07
1.82631e-07
1.23277e-07
1.09785e-07
2.02417e-07
1.55089e-07
1.99266e-07
1.41443e-07
1.96301e-07
1.27804e-07
1.14078e-07
2.16231e-07
1.59971e-07
2.13137e-07
1.46123e-07
2.10205e-07
1.3228e-07
1.18349e-07
2.30243e-07
1.64739e-07
2.27207e-07
1.50719e-07
2.24311e-07
1.367e-07
1.22594e-07
2.44423e-07
1.69393e-07
2.41446e-07
1.55228e-07
2.38587e-07
1.41062e-07
1.2681e-07
2.5874e-07
1.73932e-07
2.55824e-07
1.5965e-07
2.53005e-07
1.45363e-07
1.30991e-07
2.73168e-07
1.78356e-07
2.70313e-07
1.63983e-07
2.67536e-07
1.496e-07
1.35134e-07
2.87679e-07
1.82667e-07
2.84886e-07
1.68226e-07
2.82154e-07
1.5377e-07
1.39233e-07
3.0225e-07
1.86864e-07
2.9952e-07
1.72376e-07
2.96834e-07
1.57869e-07
1.43282e-07
3.16859e-07
1.9095e-07
3.14192e-07
1.76434e-07
3.11554e-07
1.61894e-07
1.47277e-07
3.31486e-07
1.94925e-07
3.28883e-07
1.80398e-07
3.26296e-07
1.65843e-07
1.51211e-07
3.46114e-07
1.98792e-07
3.43576e-07
1.84268e-07
3.41042e-07
1.69711e-07
1.5508e-07
3.60729e-07
2.02551e-07
3.58255e-07
1.88043e-07
3.55777e-07
1.73496e-07
1.58878e-07
3.75319e-07
2.06204e-07
3.7291e-07
1.91721e-07
3.70489e-07
1.77195e-07
1.626e-07
3.89874e-07
2.09753e-07
3.87531e-07
1.95303e-07
3.85169e-07
1.80805e-07
1.6624e-07
4.04387e-07
2.13199e-07
4.0211e-07
1.98788e-07
3.99809e-07
1.84324e-07
1.69795e-07
4.18853e-07
2.16544e-07
4.16642e-07
2.02174e-07
4.14404e-07
1.87748e-07
1.73258e-07
4.33269e-07
2.19789e-07
4.31124e-07
2.05462e-07
4.28952e-07
1.91075e-07
1.76625e-07
4.47634e-07
2.22935e-07
4.45556e-07
2.0865e-07
4.4345e-07
1.94302e-07
1.79893e-07
4.6195e-07
2.25982e-07
4.59939e-07
2.11739e-07
4.579e-07
1.97428e-07
1.83058e-07
4.76218e-07
2.28933e-07
4.74274e-07
2.14727e-07
4.72306e-07
2.00449e-07
1.86114e-07
4.90444e-07
2.31787e-07
4.88568e-07
2.17613e-07
4.8667e-07
2.03365e-07
1.8906e-07
5.04633e-07
2.34545e-07
5.02825e-07
2.20397e-07
5.00999e-07
2.06173e-07
1.91892e-07
5.18792e-07
2.37207e-07
5.17053e-07
2.23078e-07
5.15301e-07
2.08871e-07
1.94607e-07
5.3293e-07
2.39772e-07
5.3126e-07
2.25654e-07
5.29582e-07
2.11458e-07
1.97204e-07
5.47055e-07
2.4224e-07
5.45455e-07
2.28126e-07
5.43853e-07
2.13933e-07
1.99681e-07
5.61176e-07
2.4461e-07
5.59647e-07
2.30491e-07
5.58121e-07
2.16294e-07
2.02037e-07
5.75303e-07
2.46879e-07
5.73845e-07
2.32749e-07
5.72396e-07
2.1854e-07
2.0427e-07
5.89443e-07
2.49046e-07
5.88058e-07
2.34898e-07
5.86686e-07
2.20671e-07
2.06382e-07
6.03606e-07
2.51108e-07
6.02294e-07
2.36936e-07
6.01e-07
2.22686e-07
2.08372e-07
6.17797e-07
2.53064e-07
6.16559e-07
2.38863e-07
6.15343e-07
2.24585e-07
2.10241e-07
6.32021e-07
2.5491e-07
6.30859e-07
2.40676e-07
6.29721e-07
2.26367e-07
2.11989e-07
6.46284e-07
2.56643e-07
6.45198e-07
2.42375e-07
6.44138e-07
2.28032e-07
2.13618e-07
6.60586e-07
2.58261e-07
6.59578e-07
2.43957e-07
6.58597e-07
2.2958e-07
2.15129e-07
6.7493e-07
2.59762e-07
6.74e-07
2.45422e-07
6.73098e-07
2.3101e-07
2.16524e-07
6.89313e-07
2.61142e-07
6.88464e-07
2.46768e-07
6.8764e-07
2.32323e-07
2.17802e-07
7.03735e-07
2.624e-07
7.02966e-07
2.47994e-07
7.02221e-07
2.33519e-07
2.18964e-07
7.18192e-07
2.63534e-07
7.17504e-07
2.491e-07
7.16838e-07
2.34596e-07
2.20013e-07
7.3268e-07
2.64541e-07
7.32074e-07
2.50083e-07
7.31487e-07
2.35555e-07
2.20946e-07
7.47194e-07
2.65422e-07
7.4667e-07
2.50944e-07
7.46163e-07
2.36396e-07
2.21766e-07
7.61729e-07
2.66175e-07
7.61288e-07
2.51682e-07
7.60861e-07
2.37117e-07
2.2247e-07
7.76279e-07
2.66801e-07
7.75922e-07
2.52296e-07
7.75575e-07
2.37719e-07
2.2306e-07
7.90839e-07
2.67298e-07
7.90565e-07
2.52787e-07
7.90299e-07
2.38201e-07
2.23533e-07
8.05402e-07
2.6767e-07
8.05212e-07
2.53155e-07
8.05028e-07
2.38563e-07
2.2389e-07
8.19967e-07
2.67914e-07
8.19859e-07
2.53396e-07
8.19756e-07
2.38799e-07
2.24122e-07
8.3453e-07
8.34503e-07
8.3448e-07
)
;

boundaryField
{
    plateFix
    {
        type            calculated;
        value           nonuniform List<scalar> 4(-2.17524e-09 5.13845e-14 -8.32259e-14 -1.80301e-09);
    }
    plate
    {
        type            calculated;
        value           nonuniform List<scalar> 
168
(
-5.37448e-10
-3.93668e-10
-9.22769e-10
-7.03181e-10
-1.28417e-09
-9.81925e-10
-1.6154e-09
-1.21769e-09
-1.92758e-09
-1.40972e-09
-2.23698e-09
-1.55908e-09
-2.55923e-09
-1.66371e-09
-2.91145e-09
-1.71903e-09
-3.31228e-09
-1.7169e-09
-3.7831e-09
-1.6452e-09
-4.349e-09
-1.4869e-09
-5.0401e-09
-1.21897e-09
-5.89297e-09
-8.10991e-10
-6.95244e-09
-2.23334e-10
-8.27376e-09
5.94946e-10
-9.92535e-09
1.70878e-09
-1.19921e-08
3.20034e-09
-1.45797e-08
5.17298e-09
-1.78194e-08
7.7562e-09
-2.18742e-08
1.11116e-08
-2.69464e-08
1.54402e-08
-3.32864e-08
2.09915e-08
-4.44839e-08
3.03897e-08
-5.16477e-08
3.76276e-08
-5.94163e-08
4.54774e-08
-6.77749e-08
5.39244e-08
-7.67062e-08
6.29513e-08
-8.61908e-08
7.25385e-08
-9.62065e-08
8.26642e-08
-1.06729e-07
9.3304e-08
-1.17732e-07
1.04432e-07
-1.29188e-07
1.16019e-07
-1.41066e-07
1.28036e-07
-1.53336e-07
1.40452e-07
-1.65966e-07
1.53234e-07
-1.78922e-07
1.66351e-07
-1.92173e-07
1.79769e-07
-2.05686e-07
1.93456e-07
-2.19427e-07
2.07378e-07
-2.33367e-07
2.21505e-07
-2.47473e-07
2.35805e-07
-2.61717e-07
2.5025e-07
-2.76071e-07
2.6481e-07
-2.90508e-07
2.7946e-07
-3.05006e-07
2.94176e-07
-3.19542e-07
3.08936e-07
-3.34096e-07
3.2372e-07
-3.48653e-07
3.38512e-07
-3.63197e-07
3.53296e-07
-3.77717e-07
3.6806e-07
-3.92203e-07
3.82796e-07
-4.06647e-07
3.97494e-07
-4.21046e-07
4.12151e-07
-4.35395e-07
4.26762e-07
-4.49693e-07
4.41327e-07
-4.63942e-07
4.55846e-07
-4.78145e-07
4.70322e-07
-4.92305e-07
4.8476e-07
-5.06429e-07
4.99164e-07
-5.20523e-07
5.13542e-07
-5.34595e-07
5.27902e-07
-5.48653e-07
5.42251e-07
-5.62708e-07
5.56599e-07
-5.76766e-07
5.70954e-07
-5.90838e-07
5.85325e-07
-6.04929e-07
5.99718e-07
-6.19048e-07
6.14142e-07
-6.33199e-07
6.286e-07
-6.47386e-07
6.43096e-07
-6.61611e-07
6.57634e-07
-6.75876e-07
6.72213e-07
-6.9018e-07
6.86833e-07
-7.0452e-07
7.01492e-07
-7.18894e-07
7.16187e-07
-7.33298e-07
7.30913e-07
-7.47728e-07
7.45667e-07
-7.62177e-07
7.60443e-07
-7.76642e-07
7.75235e-07
-7.91116e-07
7.90039e-07
-8.05595e-07
8.04849e-07
-8.20078e-07
8.19659e-07
-8.34572e-07
2.68047e-07
2.53527e-07
2.38927e-07
2.24247e-07
8.34449e-07
)
;
    }
    frontAndBackPlanes
    {
        type            empty;
    }
}


// ************************************************************************* //
