/*--------------------------------*- C++ -*----------------------------------*\
| =========                 |                                                 |
| \\      /  F ield         | OpenFOAM Extend Project: Open source CFD        |
|  \\    /   O peration     | Version:  1.6-ext                               |
|   \\  /    A nd           | Web:      www.extend-project.de                 |
|    \\/     M anipulation  |                                                 |
\*---------------------------------------------------------------------------*/
FoamFile
{
    version     2.0;
    format      ascii;
    class       volScalarField;
    location    "0.8";
    object      sigmaEq;
}
// * * * * * * * * * * * * * * * * * * * * * * * * * * * * * * * * * * * * * //

dimensions      [1 -1 -2 0 0 0 0];

internalField   nonuniform List<scalar> 
328
(
2.99901
0.913318
1.08202
4.35366
3.22306
0.795121
1.5621
4.61309
3.43016
0.833861
2.00035
4.91179
3.51949
0.871416
2.25503
5.06073
3.56087
0.892254
2.41383
5.15188
3.55831
0.889404
2.49245
5.18164
3.53319
0.874502
2.52657
5.17979
3.49296
0.853492
2.53061
5.15559
3.44441
0.831001
2.51781
5.11851
3.39052
0.808915
2.49482
5.0724
3.3331
0.78791
2.4663
5.0196
3.27279
0.767854
2.43468
4.96092
3.20974
0.748341
2.40131
4.89663
3.14377
0.728914
2.36673
4.82666
3.07458
0.709204
2.331
4.75083
3.00179
0.688957
2.29389
4.66886
2.92502
0.668024
2.25503
4.58048
2.84393
0.646335
2.21395
4.48536
2.75821
0.623876
2.17022
4.38317
2.66756
0.600643
2.12341
4.27353
2.57187
0.576711
2.07316
4.15614
2.47072
0.551989
2.0191
4.03049
2.36041
0.524639
1.95852
3.89172
2.24508
0.499543
1.89396
3.74385
2.13146
0.476211
1.82918
3.59619
2.01983
0.454375
1.76408
3.44893
1.91016
0.433934
1.69869
3.30219
1.80261
0.414848
1.63308
3.15615
1.69733
0.397052
1.56734
3.01101
1.59447
0.380479
1.50155
2.86698
1.49421
0.365039
1.43579
2.72427
1.39672
0.350627
1.37016
2.58312
1.30217
0.337126
1.30476
2.44375
1.21076
0.324405
1.23968
2.30641
1.12264
0.312326
1.17502
2.17135
1.03801
0.300746
1.11091
2.03882
0.957008
0.289525
1.04744
1.90906
0.879799
0.278525
0.984742
1.78232
0.806514
0.26762
0.922926
1.65885
0.737268
0.256698
0.862115
1.53887
0.672155
0.245663
0.802431
1.42262
0.611244
0.234439
0.743995
1.31029
0.554574
0.222977
0.686929
1.20209
0.502157
0.211247
0.631351
1.09818
0.453975
0.19925
0.57738
0.998719
0.409976
0.187013
0.525126
0.903838
0.370081
0.174594
0.474698
0.813642
0.334177
0.162085
0.426197
0.728209
0.302129
0.149611
0.379718
0.647592
0.273777
0.137341
0.335349
0.571815
0.248941
0.125491
0.293173
0.500876
0.227429
0.114335
0.253265
0.434745
0.209041
0.104206
0.2157
0.373367
0.193571
0.0954952
0.180556
0.316661
0.180809
0.0886212
0.147926
0.264521
0.170542
0.0839606
0.117951
0.216823
0.16255
0.0817378
0.0908782
0.173422
0.156603
0.0819244
0.0672363
0.134162
0.152456
0.0842206
0.0482828
0.0988799
0.149847
0.0881403
0.0368727
0.0674275
0.148504
0.0931372
0.03622
0.0397562
0.148144
0.0987012
0.0439446
0.0166317
0.148486
0.104402
0.0547405
0.0119607
0.149252
0.109895
0.0657424
0.0280499
0.150176
0.114912
0.0758591
0.0435947
0.15101
0.119241
0.0846839
0.0570108
0.151526
0.12272
0.0920725
0.0682921
0.151515
0.12522
0.0979908
0.0775879
0.150794
0.126642
0.102456
0.0850758
0.149207
0.12691
0.10551
0.0909336
0.146625
0.125964
0.107201
0.0953281
0.142955
0.12376
0.107575
0.098407
0.138149
0.120268
0.106668
0.100296
0.132207
0.115451
0.104478
0.101088
0.125216
0.109266
0.100969
0.100872
0.117336
0.101564
0.0959712
0.0997013
0.109023
0.0921865
0.0892977
0.0978226
0.100729
0.0804304
0.0802264
0.095361
0.0942682
0.0665838
0.0690104
0.0936864
0.0890595
0.0499172
0.0545146
0.0915754
0.0893293
0.0426522
0.0466551
0.0928627
0.0832278
0.0587309
0.0596528
0.0857552
)
;

boundaryField
{
    plateFix
    {
        type            calculated;
        value           nonuniform List<scalar> 4(3.01852 1.20868 1.1675 4.51069);
    }
    plate
    {
        type            calculated;
        value           nonuniform List<scalar> 
168
(
3.33721
4.74416
3.49732
4.96185
3.66202
5.2131
3.71788
5.30616
3.7413
5.36137
3.72879
5.36861
3.69892
5.35509
3.6562
5.32515
3.60607
5.2856
3.55073
5.23834
3.49165
5.18476
3.42937
5.12514
3.36403
5.05954
3.29546
4.9878
3.22339
4.90974
3.14746
4.82512
3.0673
4.7337
2.98256
4.63518
2.89294
4.52926
2.79812
4.41557
2.69798
4.29384
2.59208
4.16351
2.47665
4.01977
2.35587
3.86658
2.23672
3.71357
2.1196
3.561
2.00446
3.409
1.89151
3.25775
1.78088
3.10747
1.67274
2.95837
1.56727
2.81069
1.46465
2.66464
1.36509
2.52049
1.26876
2.37848
1.17586
2.23887
1.08658
2.10191
1.00108
1.96786
0.919536
1.83698
0.842096
1.70952
0.768888
1.58572
0.700022
1.46581
0.63558
1.34999
0.575617
1.23847
0.52016
1.13143
0.469202
1.02902
0.422705
0.93136
0.380599
0.838566
0.342781
0.750712
0.309117
0.667846
0.279446
0.589988
0.253578
0.51713
0.231304
0.449235
0.212396
0.386238
0.196611
0.32805
0.183697
0.274556
0.173395
0.225618
0.165436
0.18108
0.159551
0.140767
0.155462
0.104493
0.152891
0.0720636
0.151555
0.0433003
0.151176
0.0181885
0.15148
0.00669348
0.152202
0.0245798
0.153092
0.0410613
0.153912
0.0551747
0.154446
0.0670602
0.154498
0.0769136
0.153895
0.0849344
0.152488
0.0913139
0.150164
0.0962301
0.14684
0.0998421
0.142484
0.102289
0.137114
0.103682
0.130835
0.104131
0.123815
0.103707
0.116477
0.102642
0.109139
0.100983
0.10329
0.0999145
0.0985374
0.0987421
0.102344
0.105059
0.108686
0.067459
0.0586606
0.0587664
0.0686308
0.112497
)
;
    }
    frontAndBackPlanes
    {
        type            empty;
    }
}


// ************************************************************************* //
