/*--------------------------------*- C++ -*----------------------------------*\
| =========                 |                                                 |
| \\      /  F ield         | OpenFOAM Extend Project: Open source CFD        |
|  \\    /   O peration     | Version:  1.6-ext                               |
|   \\  /    A nd           | Web:      www.extend-project.de                 |
|    \\/     M anipulation  |                                                 |
\*---------------------------------------------------------------------------*/
FoamFile
{
    version     2.0;
    format      ascii;
    class       volSymmTensorField;
    location    "0.8";
    object      sigma;
}
// * * * * * * * * * * * * * * * * * * * * * * * * * * * * * * * * * * * * * //

dimensions      [1 -1 -2 0 0 0 0];

internalField   nonuniform List<symmTensor> 
328
(
(5.4066 0.396056 -6.37915e-22 2.15095 7.54582e-20 3.02114)
(1.05336 -0.436014 7.2519e-24 0.487999 5.30233e-23 0.61544)
(-2.02915 -0.199233 8.91491e-23 -0.893711 -7.7218e-23 -1.17028)
(-6.75394 0.922848 6.13738e-23 -2.19281 -1.12871e-19 -3.58095)
(5.26298 0.251132 2.28036e-21 1.66363 -1.34158e-19 2.76874)
(1.03841 -0.204335 2.04866e-22 0.229643 -2.07359e-24 0.506043)
(-2.02108 -0.00761744 7.54122e-23 -0.236107 8.74444e-23 -0.904118)
(-6.42476 0.615556 1.275e-21 -1.31953 -2.3042e-20 -3.09997)
(5.28368 0.16312 -3.05273e-21 1.41328 -3.17365e-20 2.6768)
(1.08988 -0.0347034 -3.71503e-22 0.140313 8.9616e-23 0.490786)
(-2.19815 0.116888 7.49321e-22 0.0869918 1.60506e-22 -0.845859)
(-6.39524 0.39156 -5.18172e-21 -0.839989 1.32444e-19 -2.89645)
(5.24005 0.116084 1.48012e-21 1.25306 2.59401e-20 2.59519)
(1.06589 0.0799282 2.00102e-22 0.0815443 -1.77467e-22 0.457555)
(-2.20681 0.184048 -8.96303e-22 0.362265 -7.25797e-22 -0.739364)
(-6.29014 0.245928 4.56265e-21 -0.520218 4.20845e-20 -2.72658)
(5.21292 0.0948439 -5.627e-22 1.17274 3.69199e-20 2.55216)
(1.04761 0.14932 7.88942e-22 0.0702795 3.43464e-22 0.445624)
(-2.22631 0.211661 -4.53573e-22 0.521709 -3.93339e-22 -0.683518)
(-6.23814 0.158185 4.29345e-23 -0.346168 -1.08279e-19 -2.63623)
(5.17028 0.0878011 2.29361e-21 1.1307 -4.96623e-20 2.51825)
(1.0154 0.191536 -1.74811e-21 0.0710632 -4.70587e-22 0.432959)
(-2.20264 0.220274 -6.51267e-22 0.635847 6.77734e-22 -0.628495)
(-6.18125 0.107654 1.04497e-22 -0.247782 3.0391e-20 -2.57415)
(5.12324 0.0876945 -3.4904e-21 1.11177 9.62095e-20 2.49185)
(0.986081 0.214707 2.10122e-21 0.0807543 3.47484e-22 0.425046)
(-2.17451 0.219262 -3.74277e-22 0.704904 -3.8639e-22 -0.58969)
(-6.13343 0.080673 3.75411e-22 -0.199024 1.0338e-20 -2.53554)
(5.06806 0.0901615 3.8294e-21 1.10272 -1.87935e-20 2.46616)
(0.957144 0.226428 -3.6577e-21 0.0905039 -4.19891e-22 0.417329)
(-2.13626 0.21529 1.17847e-21 0.749616 -3.995e-22 -0.556545)
(-6.08376 0.0675009 -2.3256e-21 -0.17582 -5.48676e-20 -2.50639)
(5.00688 0.0930358 -4.11734e-21 1.09746 5.65745e-20 2.43958)
(0.931329 0.23096 2.33988e-21 0.0990185 4.25331e-23 0.410387)
(-2.09709 0.211146 5.21265e-21 0.775463 -4.1416e-22 -0.530558)
(-6.03206 0.0621897 -1.22041e-21 -0.166162 9.90057e-20 -2.48184)
(4.93986 0.0953932 4.34857e-21 1.09246 -9.36658e-20 2.41078)
(0.907594 0.231478 1.27706e-21 0.105113 -4.16691e-22 0.403322)
(-2.05721 0.208093 -3.91931e-21 0.789692 -7.87036e-23 -0.508921)
(-5.97538 0.0609426 9.51237e-21 -0.162234 -6.89531e-20 -2.45759)
(4.86773 0.0970388 -2.64949e-21 1.08633 6.52407e-20 2.37949)
(0.885637 0.229873 -1.11195e-20 0.109299 1.77843e-22 0.396213)
(-2.01869 0.20625 4.19337e-21 0.795692 -5.36972e-22 -0.49111)
(-5.9127 0.061566 -4.17792e-21 -0.160107 2.26282e-21 -2.43165)
(4.79079 0.0980904 -4.26888e-21 1.0786 -7.66251e-20 2.34564)
(0.864578 0.22739 1.12293e-20 0.112164 2.94572e-21 0.388941)
(-1.98154 0.205352 -1.48025e-21 0.796368 1.34179e-21 -0.47597)
(-5.84298 0.0627857 -3.2714e-21 -0.157702 2.04748e-20 -2.40278)
(4.70917 0.0987651 3.41761e-21 1.06924 5.18762e-20 2.30926)
(0.843802 0.224733 2.86039e-22 0.114439 -3.25131e-22 0.381549)
(-1.94578 0.204991 -6.68332e-21 0.793417 5.45315e-22 -0.462835)
(-5.76569 0.0639337 3.01606e-21 -0.15413 1.6719e-20 -2.37042)
(4.62278 0.0992596 -2.97341e-21 1.05839 -1.06321e-20 2.27038)
(0.82276 0.222284 -9.52731e-21 0.116662 1.35286e-22 0.374031)
(-1.91092 0.204811 3.96874e-21 0.788066 9.64798e-22 -0.451017)
(-5.68046 0.064689 -5.33385e-21 -0.149076 -3.91138e-20 -2.33428)
(4.53134 0.0997061 -7.91991e-21 1.04617 -1.51157e-20 2.22894)
(0.801087 0.220189 -8.47362e-21 0.119197 -1.74674e-21 0.366384)
(-1.87638 0.204558 -8.38061e-21 0.78105 4.39192e-22 -0.439995)
(-5.58707 0.064942 1.79441e-20 -0.142538 1.63487e-20 -2.29428)
(4.4345 0.10017 1.71994e-20 1.03265 4.522e-21 2.18482)
(0.778535 0.218454 5.86217e-22 0.122214 -2.09455e-21 0.35858)
(-1.84149 0.204082 -9.68951e-21 0.772818 -2.5775e-22 -0.429321)
(-5.48535 0.064698 4.33998e-21 -0.134643 -3.17278e-20 -2.2504)
(4.33184 0.100661 -1.81421e-20 1.01784 -3.50936e-20 2.13785)
(0.754959 0.217002 1.21555e-20 0.125753 4.21991e-21 0.350574)
(-1.80562 0.203315 1.21857e-20 0.763593 3.18323e-21 -0.41865)
(-5.37514 0.0640205 6.38922e-21 -0.125567 2.74706e-20 -2.20265)
(4.22292 0.101157 4.28772e-20 1.0017 2.37219e-20 2.08785)
(0.730265 0.215716 -2.15256e-20 0.129758 -3.77595e-21 0.342307)
(-1.76817 0.202236 2.27425e-20 0.753455 2.33666e-21 -0.407711)
(-5.25624 0.0629947 -4.41939e-21 -0.115485 -6.11381e-20 -2.15103)
(4.10732 0.101615 -4.41183e-20 0.984181 7.68368e-21 2.03463)
(0.704411 0.214473 -2.06183e-20 0.134141 -7.12938e-21 0.333729)
(-1.72862 0.200849 3.37873e-21 0.742401 -8.82529e-21 -0.396298)
(-5.1284 0.0617041 -1.6648e-20 -0.104551 4.87277e-20 -2.09548)
(3.98459 0.101985 -4.4988e-20 0.965154 -1.37228e-20 1.97795)
(0.677337 0.213147 3.35327e-20 0.138773 1.12678e-21 0.324762)
(-1.68654 0.199157 -9.19395e-21 0.730363 5.28534e-21 -0.384266)
(-4.99132 0.0602248 2.64718e-20 -0.0928904 -2.61742e-21 -2.03594)
(3.85458 0.102236 6.64696e-20 0.944601 1.72987e-20 1.91775)
(0.649101 0.211647 -3.13759e-21 0.143583 1.109e-20 0.315402)
(-1.64156 0.19716 -1.15608e-21 0.717301 -1.11047e-20 -0.371481)
(-4.84471 0.0586017 -2.88547e-20 -0.0805666 3.1807e-20 -1.97232)
(3.71645 0.102218 4.19358e-20 0.922127 -6.37986e-21 1.85354)
(0.619532 0.209782 -2.12686e-20 0.148346 -8.14596e-21 0.305491)
(-1.5934 0.194763 -1.08456e-20 0.703079 1.24642e-21 -0.35789)
(-4.68804 0.0568549 2.84402e-21 -0.0676479 6.29601e-21 -1.90445)
(3.56594 0.101654 -4.93302e-20 0.897706 -3.87857e-21 1.7836)
(0.587819 0.206609 4.71612e-20 0.153551 2.22007e-20 0.294901)
(-1.53985 0.190994 3.55559e-20 0.687078 -1.48594e-20 -0.34285)
(-4.51555 0.0543841 5.58543e-20 -0.0538927 -1.70261e-20 -1.8299)
(3.40749 0.101929 -4.71523e-20 0.871193 -2.00904e-20 1.70965)
(0.554886 0.205233 -1.42743e-20 0.158475 9.01593e-21 0.283712)
(-1.48262 0.189029 3.11013e-20 0.669447 4.33696e-21 -0.326991)
(-4.33269 0.0527722 -1.29925e-19 -0.0402713 3.33887e-20 -1.75126)
(3.25065 0.102041 -1.35425e-20 0.844346 1.46698e-20 1.63621)
(0.522976 0.20383 -2.08349e-21 0.162964 6.7883e-21 0.272758)
(-1.4251 0.18713 6.34536e-20 0.651798 2.25002e-20 -0.311022)
(-4.14999 0.0513247 4.9239e-20 -0.0265761 -5.096e-20 -1.67265)
(3.09571 0.101969 8.4329e-21 0.817097 -1.08485e-20 1.56336)
(0.491946 0.202197 9.89902e-21 0.166879 1.4841e-20 0.261927)
(-1.36754 0.18506 -2.14982e-20 0.63382 -2.20841e-20 -0.295169)
(-3.96836 0.0498603 -2.36434e-20 -0.013495 2.72062e-20 -1.59471)
(2.94289 0.101688 5.87091e-20 0.78973 -4.98963e-20 1.49132)
(0.461886 0.200304 -8.98455e-20 0.170378 -4.17853e-20 0.251318)
(-1.30986 0.182808 3.62141e-20 0.615654 -1.35792e-20 -0.279342)
(-3.78772 0.0484211 -1.05678e-19 -0.000834492 -2.20162e-20 -1.51735)
(2.7923 0.10123 -9.87344e-20 0.762151 -1.45947e-21 1.42008)
(0.432752 0.198132 -1.89745e-20 0.173363 1.65209e-20 0.240873)
(-1.25221 0.180338 -6.17176e-20 0.597225 8.17578e-21 -0.263634)
(-3.60847 0.046969 8.65532e-20 0.0112238 5.89542e-20 -1.44078)
(2.6442 0.100577 1.1706e-19 0.734476 3.89345e-20 1.3498)
(0.404622 0.195665 8.24179e-20 0.175878 -1.2186e-20 0.230642)
(-1.19464 0.177638 -8.07181e-22 0.578606 3.28538e-20 -0.248032)
(-3.43078 0.0455089 1.05175e-19 0.0227378 -5.87567e-20 -1.36506)
(2.49879 0.0997365 -8.44356e-20 0.706693 -4.74698e-20 1.28055)
(0.377504 0.192889 1.4003e-20 0.17788 -2.68219e-20 0.220611)
(-1.13725 0.174686 -1.48404e-19 0.559783 6.60771e-20 -0.232587)
(-3.25497 0.0440203 -4.83225e-20 0.0336316 -2.64884e-20 -1.29033)
(2.3563 0.0987012 -2.50176e-20 0.678863 1.47138e-20 1.21245)
(0.351457 0.189791 -2.89554e-20 0.179375 1.88528e-20 0.210805)
(-1.08014 0.171468 3.46439e-20 0.540793 -2.55089e-20 -0.217315)
(-3.08128 0.0424992 -1.5388e-20 0.043901 4.87155e-20 -1.21671)
(2.21696 0.0974713 -2.70582e-20 0.651012 -1.40029e-20 1.1456)
(0.326513 0.18636 1.10687e-20 0.18034 -1.04384e-20 0.201228)
(-1.02339 0.16797 -1.24318e-19 0.521645 -2.72729e-20 -0.202256)
(-2.91002 0.0409348 1.22635e-19 0.0535 4.11953e-20 -1.14433)
(2.08104 0.0960432 -1.77144e-19 0.623186 -7.05761e-22 1.08013)
(0.302722 0.182588 2.06659e-19 0.180768 3.65291e-20 0.191898)
(-0.967106 0.164182 1.05309e-20 0.502365 -9.1704e-20 -0.187435)
(-2.7415 0.0393228 -1.41346e-20 0.0624042 1.71675e-20 -1.07332)
(1.94878 0.0944169 9.17053e-20 0.595425 -7.77729e-20 1.01614)
(0.280124 0.17847 -9.06274e-20 0.180644 7.76559e-21 0.182825)
(-0.911396 0.160099 1.18899e-19 0.482972 5.57317e-20 -0.172889)
(-2.57602 0.0376587 -8.16262e-20 0.0705772 1.80806e-20 -1.00382)
(1.82042 0.0925921 -4.76923e-20 0.567774 1.88313e-20 0.95376)
(0.258764 0.174006 1.67218e-19 0.179961 2.25635e-19 0.174023)
(-0.856362 0.155719 1.15065e-19 0.463491 -1.86583e-19 -0.158649)
(-2.41389 0.0359413 -1.12838e-19 0.0779903 4.88959e-20 -0.935968)
(1.69622 0.0905705 1.64637e-19 0.540278 2.76318e-21 0.893105)
(0.23868 0.1692 -3.28199e-20 0.178708 4.69329e-20 0.165503)
(-0.802112 0.151044 -4.03152e-21 0.443945 5.31432e-20 -0.144749)
(-2.25543 0.0341709 4.10167e-20 0.0846131 -1.40905e-19 -0.869902)
(1.57642 0.088355 -5.02394e-20 0.512986 1.33042e-19 0.834289)
(0.219907 0.164059 -5.99096e-20 0.176882 8.41742e-20 0.157279)
(-0.748755 0.146082 5.24208e-20 0.424364 -3.29735e-20 -0.131219)
(-2.10095 0.0323503 6.38455e-23 0.0904198 -4.69236e-20 -0.805756)
(1.46124 0.0859503 -7.58178e-20 0.485947 -4.46821e-20 0.777422)
(0.202477 0.158596 1.05296e-19 0.174479 -1.76332e-19 0.149361)
(-0.696399 0.140845 -2.18298e-19 0.404774 1.83082e-19 -0.118094)
(-1.95075 0.0304847 1.29715e-19 0.0953871 -8.98174e-20 -0.743662)
(1.3509 0.0833628 4.57741e-20 0.459211 -4.61772e-20 0.722611)
(0.186415 0.152829 2.83467e-20 0.171501 -1.74192e-19 0.141761)
(-0.645151 0.13535 -6.15446e-20 0.385208 -7.62085e-20 -0.105403)
(-1.80514 0.0285812 -1.51166e-20 0.0994967 1.54727e-19 -0.683745)
(1.24558 0.0806005 3.1226e-19 0.43283 1.28392e-19 0.669954)
(0.171738 0.14678 -1.33874e-19 0.167954 3.37668e-19 0.134487)
(-0.595118 0.129619 8.91294e-20 0.365698 8.38879e-20 -0.0931748)
(-1.6644 0.0266491 -2.09072e-19 0.102735 -1.24886e-19 -0.626122)
(1.14547 0.0776735 -1.55847e-19 0.406856 4.0264e-20 0.619538)
(0.158455 0.140474 1.71185e-19 0.163847 -2.18633e-20 0.127547)
(-0.546402 0.123679 2.33604e-20 0.346279 2.38204e-19 -0.0814373)
(-1.52877 0.0246995 -1.38045e-19 0.105096 4.9126e-20 -0.570902)
(1.05069 0.0745931 -1.64559e-19 0.381342 -1.53988e-19 0.571442)
(0.14657 0.133943 -2.81995e-20 0.159195 9.42338e-20 0.120949)
(-0.499102 0.117559 1.02316e-19 0.326988 -3.70594e-19 -0.070215)
(-1.39852 0.0227454 1.48051e-19 0.106577 6.95205e-20 -0.518181)
(0.961372 0.0713727 3.08488e-19 0.35634 -2.64622e-20 0.525731)
(0.136072 0.127221 -2.74018e-19 0.154018 1.00442e-19 0.114696)
(-0.45331 0.111293 2.58941e-19 0.307863 -1.89351e-19 -0.0595299)
(-1.27384 0.020801 -1.43283e-19 0.107185 1.11179e-19 -0.468042)
(0.877583 0.0680269 1.96841e-19 0.331902 -8.35996e-20 0.482459)
(0.126944 0.120346 -2.53968e-19 0.148342 -8.22806e-20 0.108791)
(-0.409116 0.10492 3.50121e-20 0.288944 4.05741e-19 -0.0494009)
(-1.15493 0.0188818 6.33148e-20 0.106935 6.87584e-20 -0.420554)
(0.799371 0.0645717 3.77489e-19 0.308077 -5.21787e-20 0.441663)
(0.119157 0.113357 -1.80301e-19 0.142197 -1.2975e-19 0.103235)
(-0.366598 0.0984791 -9.7366e-20 0.270273 -2.83697e-19 -0.0398434)
(-1.04194 0.017004 1.63517e-20 0.105848 -2.20819e-19 -0.375768)
(0.726744 0.0610242 -2.72146e-20 0.284914 9.27434e-20 0.403367)
(0.112673 0.106296 -2.43234e-20 0.135618 1.73572e-19 0.0980272)
(-0.325829 0.0920118 -2.13025e-19 0.251893 5.50199e-19 -0.0308693)
(-0.934983 0.0151844 -2.36948e-19 0.103954 -4.76546e-20 -0.333722)
(0.659674 0.0574025 6.3709e-19 0.262461 -1.32802e-21 0.367576)
(0.107442 0.0992083 -1.07752e-19 0.128647 3.62207e-19 0.0931636)
(-0.286872 0.0855611 -2.81252e-20 0.233845 -2.88188e-19 -0.0224868)
(-0.834152 0.0134399 4.3492e-19 0.10129 7.54013e-20 -0.294433)
(0.598094 0.0537251 1.68048e-20 0.24076 -4.89817e-20 0.334282)
(0.103405 0.0921366 -2.19632e-19 0.121328 -5.77352e-19 0.0886385)
(-0.24978 0.0791703 -9.85666e-20 0.216175 -8.63424e-20 -0.0147)
(-0.739488 0.0117869 -1.38836e-19 0.0979018 1.14806e-19 -0.257901)
(0.541899 0.0500111 3.29785e-20 0.219852 -9.81733e-20 0.303459)
(0.100494 0.0851253 -4.3793e-20 0.11371 -1.07066e-20 0.0844441)
(-0.214598 0.0728822 3.1896e-20 0.198924 -5.3809e-20 -0.007509)
(-0.651001 0.0102415 -3.69974e-19 0.0938421 1.4358e-19 -0.224109)
(0.490949 0.0462796 1.49468e-19 0.199775 -4.92234e-20 0.275066)
(0.0986301 0.0782175 -6.00328e-20 0.105846 4.42985e-19 0.0805706)
(-0.181357 0.0667385 3.49549e-20 0.182135 -1.2364e-19 -0.000910311)
(-0.568661 0.00881883 4.16735e-21 0.0891699 3.4657e-20 -0.193022)
(0.44507 0.0425496 -1.06591e-19 0.180561 -1.08232e-19 0.249046)
(0.0977285 0.0714548 5.13956e-19 0.0977924 -1.73406e-19 0.0770057)
(-0.150083 0.0607791 -4.3527e-19 0.16585 2.50506e-19 0.0051036)
(-0.492401 0.00753268 1.08955e-19 0.0839501 -1.52275e-19 -0.164586)
(0.404053 0.0388396 -2.74868e-19 0.162239 -4.97117e-20 0.225329)
(0.0976959 0.0648765 -1.76723e-19 0.0896068 -6.19106e-19 0.0737355)
(-0.120785 0.0550414 1.10593e-19 0.150109 -7.46964e-20 0.0105438)
(-0.422118 0.00639543 3.27195e-19 0.0782531 5.02526e-20 -0.138733)
(0.367663 0.0351672 4.585e-19 0.144833 2.06924e-19 0.203827)
(0.098433 0.0585191 -2.62558e-19 0.0813488 2.4773e-19 0.0707441)
(-0.0934656 0.0495597 4.20827e-20 0.134949 8.43718e-20 0.0154247)
(-0.357677 0.00541773 3.9554e-19 0.0721531 -2.57004e-19 -0.115378)
(0.335635 0.0315494 7.77961e-20 0.12836 -1.27794e-19 0.184444)
(0.0998358 0.0524157 9.47844e-20 0.0730788 3.23312e-19 0.0680139)
(-0.0681162 0.0443645 -5.89261e-20 0.120404 1.86439e-19 0.0197638)
(-0.298907 0.00460831 -5.58044e-19 0.0657277 1.92808e-19 -0.0944222)
(0.307683 0.0280017 -8.79933e-21 0.112836 -1.18293e-19 0.16707)
(0.101796 0.0465956 1.83493e-19 0.0648568 3.81797e-19 0.0655257)
(-0.0447179 0.0394826 2.675e-19 0.106509 -4.03514e-19 0.0235815)
(-0.245611 0.00397391 1.62738e-19 0.0590564 8.68101e-20 -0.0757551)
(0.283502 0.024538 -3.31769e-19 0.0982683 -1.51506e-21 0.151587)
(0.104204 0.0410837 8.78851e-23 0.0567423 -2.79345e-19 0.0632591)
(-0.0232428 0.0349359 -7.30579e-19 0.0932896 6.26237e-19 0.0269004)
(-0.197566 0.0035191 3.38947e-19 0.0522198 4.58771e-20 -0.0592547)
(0.262771 0.0211709 1.44616e-20 0.0846597 -5.9859e-19 0.137867)
(0.106947 0.0359005 -3.4257e-19 0.0487931 3.76178e-19 0.0611925)
(-0.00365427 0.0307421 5.07593e-19 0.0807727 -7.22119e-19 0.0297451)
(-0.154526 0.00324637 -7.55038e-20 0.0452982 -2.26554e-19 -0.0447905)
(0.245159 0.0179109 -4.36717e-19 0.0720085 1.52813e-19 0.125778)
(0.109914 0.0310617 4.07952e-19 0.0410647 2.53213e-19 0.0593034)
(0.0140921 0.0269137 -5.62679e-19 0.0689789 1.07003e-19 0.0321418)
(-0.116224 0.00315606 -2.0533e-19 0.038371 3.24796e-19 -0.0322247)
(0.230328 0.014767 1.4141e-19 0.0603076 -1.0245e-21 0.11518)
(0.112994 0.0265785 1.44249e-19 0.03361 -1.60167e-19 0.0575689)
(0.0300475 0.0234589 1.35587e-19 0.0579253 2.2704e-19 0.0341179)
(-0.082382 0.00324654 7.24197e-19 0.0315154 -4.43594e-19 -0.0214146)
(0.217938 0.0117461 -1.82939e-19 0.0495455 -2.33768e-20 0.105935)
(0.116079 0.0224573 -2.5769e-19 0.0264782 3.45889e-19 0.0559654)
(0.0442692 0.0203812 9.54859e-20 0.0476245 -2.28091e-19 0.0357014)
(-0.0527094 0.00351435 -4.19984e-19 0.0248053 1.59185e-20 -0.0122143)
(0.20765 0.00885331 1.4405e-20 0.0397064 6.06372e-20 0.0978985)
(0.119065 0.0187005 8.54565e-20 0.019715 -4.83499e-19 0.0544692)
(0.0568195 0.01768 4.61325e-19 0.0380853 8.18264e-20 0.0369207)
(-0.0269085 0.00395443 -3.12537e-19 0.0183111 1.45223e-19 -0.00447669)
(0.199129 0.00609193 -3.35261e-19 0.0307703 -6.2332e-20 0.0909306)
(0.121851 0.0153065 1.90155e-19 0.0133618 -5.2339e-20 0.0530569)
(0.0677647 0.0153509 -3.23829e-19 0.0293121 5.4344e-20 0.0378041)
(-0.00467865 0.0045604 -3.77834e-20 0.0120985 -1.10007e-19 0.00194481)
(0.192051 0.00346375 -3.23236e-19 0.0227142 5.48744e-20 0.0848914)
(0.124341 0.0122705 -2.52946e-19 0.00745603 -8.82917e-20 0.0517052)
(0.077174 0.0133865 1.61606e-20 0.0213054 4.8769e-20 0.0383794)
(0.0142808 0.00532491 -5.42365e-20 0.00622829 1.03115e-19 0.00719483)
(0.186101 0.000969077 3.79425e-20 0.0155118 3.63523e-20 0.0796445)
(0.126447 0.00958487 2.18968e-19 0.00203055 -2.65895e-19 0.0503915)
(0.0851188 0.0117768 9.58848e-19 0.0140619 -1.48415e-19 0.038674)
(0.0302675 0.00623994 -1.06277e-19 0.000755893 2.94198e-19 0.0114146)
(0.180976 -0.0013931 -1.0586e-19 0.00913483 -2.26238e-19 0.0750581)
(0.128085 0.00723969 -4.12482e-19 -0.00288596 6.1607e-19 0.0490939)
(0.0916717 0.01051 -1.68863e-19 0.0075748 -3.36219e-19 0.0387142)
(0.043573 0.00729716 2.00705e-20 -0.00426877 -5.50177e-19 0.0147407)
(0.176392 -0.00362499 -1.94186e-19 0.00355266 1.62538e-19 0.0710052)
(0.129178 0.00522318 1.38645e-19 -0.007269 -4.82568e-19 0.0477915)
(0.0969053 0.0095726 -2.30028e-19 0.00183441 4.67265e-19 0.0385251)
(0.0544805 0.00848818 -5.56715e-20 -0.00880126 7.84297e-20 0.0173043)
(0.172078 -0.00573004 -3.9082e-19 -0.00126625 4.48164e-19 0.0673659)
(0.129656 0.00352167 7.4588e-20 -0.0110979 1.47152e-19 0.0464647)
(0.100892 0.00894967 2.17553e-19 -0.00317183 -8.86177e-19 0.0381307)
(0.0632625 0.00980474 5.69348e-19 -0.0128025 -6.63248e-20 0.0192298)
(0.167784 -0.00771311 1.55553e-19 -0.00535459 -1.21896e-19 0.0640267)
(0.129456 0.00211931 -1.92716e-19 -0.0143559 -1.12689e-18 0.045095)
(0.103701 0.00862462 -2.51733e-19 -0.00745817 1.58384e-18 0.0375532)
(0.0701777 0.0112386 -2.2676e-19 -0.0162386 3.1118e-20 0.0206346)
(0.163283 -0.00958095 -3.66021e-19 -0.00874454 2.69779e-19 0.0608832)
(0.128524 0.000997152 2.75038e-19 -0.0170291 -7.47085e-20 0.0436661)
(0.105402 0.00857842 7.39431e-19 -0.0110403 -5.55255e-19 0.0368134)
(0.0754691 0.0127816 -2.95925e-19 -0.0190801 -1.09194e-19 0.0216273)
(0.158367 -0.0113429 -2.85578e-19 -0.0114681 -6.29941e-19 0.0578405)
(0.126813 0.000131535 -3.20715e-20 -0.0191069 2.42759e-19 0.0421629)
(0.106055 0.00878815 -4.29966e-19 -0.0139337 -3.72707e-19 0.03593)
(0.0793591 0.0144249 -1.12398e-19 -0.0213021 -1.47555e-19 0.022307)
(0.152862 -0.0130122 -1.91391e-19 -0.0135542 1.39447e-19 0.0548166)
(0.124282 -0.000508308 5.6934e-19 -0.0205804 9.18359e-19 0.0405739)
(0.105718 0.00922543 -2.56368e-19 -0.0161527 -1.73812e-19 0.0349201)
(0.0820464 0.0161589 8.03964e-21 -0.0228828 3.10017e-19 0.0227617)
(0.146623 -0.0146075 -7.71241e-19 -0.0150293 1.35052e-19 0.0517432)
(0.120901 -0.000963383 -1.0121e-19 -0.0214431 -7.52562e-20 0.0388882)
(0.104437 0.00985429 7.11644e-19 -0.0177088 -3.31023e-20 0.0337969)
(0.083698 0.0179726 -7.89813e-19 -0.0238042 5.1952e-19 0.0230655)
(0.139553 -0.0161561 7.41459e-20 -0.0159107 2.15053e-19 0.0485743)
(0.116648 -0.00128962 2.24669e-19 -0.0216841 3.9607e-19 0.0371022)
(0.102246 0.0106307 -8.86735e-20 -0.0186038 -4.15963e-19 0.0325742)
(0.0844502 0.0198542 -3.16137e-19 -0.0240473 -2.28975e-19 0.0232805)
(0.131598 -0.0176974 4.8293e-19 -0.0162084 -5.80036e-19 0.0452844)
(0.111489 -0.00156305 -4.78505e-19 -0.021295 6.64482e-20 0.0352056)
(0.0991449 0.0115035 8.84318e-19 -0.0188344 -7.16505e-19 0.0312525)
(0.0843905 0.0217931 2.95235e-19 -0.0235949 5.0186e-19 0.0234484)
(0.122803 -0.0192936 1.21355e-19 -0.0158992 -2.06862e-19 0.0419009)
(0.105416 -0.00189184 -2.52522e-19 -0.02023 7.46792e-19 0.033213)
(0.09513 0.0124249 -2.18519e-19 -0.0183521 1.04438e-18 0.0298499)
(0.0836005 0.0237897 -3.33065e-19 -0.0224092 -1.91805e-19 0.0236169)
(0.113256 -0.0210383 -5.53161e-19 -0.0149401 2.89966e-19 0.0384757)
(0.0982685 -0.00242468 4.14063e-19 -0.0184629 2.62947e-19 0.0310706)
(0.0900149 0.0133633 -1.42054e-19 -0.0171204 -1.06943e-18 0.0283063)
(0.0820835 0.0258654 2.38425e-19 -0.0204452 -4.86183e-19 0.0238053)
(0.103404 -0.023108 5.79129e-19 -0.0131387 -1.72337e-19 0.0352646)
(0.0900421 -0.00339393 -3.89196e-19 -0.0157588 1.34215e-18 0.0288708)
(0.0837458 0.014359 -3.75283e-19 -0.0148836 -7.44588e-19 0.0267025)
(0.080089 0.0281219 -1.82491e-20 -0.017525 5.86168e-19 0.0241845)
(0.0934967 -0.0257324 -6.77756e-20 -0.010273 -4.68326e-20 0.0324562)
(0.0796902 -0.00507127 9.01139e-20 -0.0122113 5.28355e-19 0.0261573)
(0.0751906 0.0155009 7.77906e-19 -0.0117105 -1.9754e-19 0.0245578)
(0.0775519 0.0307146 -3.18142e-19 -0.0134507 -2.47274e-19 0.0248075)
(0.0856453 -0.0293342 -1.98069e-19 -0.0054723 2.16546e-19 0.0312436)
(0.0678481 -0.00780967 7.41256e-19 -0.00700883 -1.41164e-18 0.0235089)
(0.0649104 0.0169989 -1.35263e-19 -0.0067501 9.63047e-19 0.0224373)
(0.0762241 0.0340288 6.85985e-20 -0.00739275 1.22049e-19 0.0267071)
(0.0784979 -0.0333555 2.99468e-19 0.00089093 4.40769e-20 0.0309366)
(0.049019 -0.0110796 9.5099e-20 -0.00383224 -5.58934e-19 0.0172541)
(0.047256 0.0182656 -1.69246e-19 -0.0036571 -1.82135e-19 0.0166189)
(0.0742375 0.0374586 -1.48823e-19 0.00022562 4.16265e-19 0.0289663)
(0.0807068 -0.0355435 5.03128e-19 0.00678549 2.48722e-19 0.0341839)
(0.0358157 -0.0132225 -1.5217e-19 -0.00549452 1.7908e-19 0.0113129)
(0.0349735 0.0178088 -4.27968e-19 -0.00520695 5.84308e-19 0.0110911)
(0.0801932 0.0388771 -6.10519e-19 0.00718199 -7.98229e-19 0.0341371)
(0.0609088 -0.0252857 5.90499e-21 -0.0206212 4.35222e-19 0.0153046)
(0.00474805 -0.00968749 2.04912e-19 -0.0600137 1.08976e-18 -0.0229202)
(0.00433702 0.0121751 -2.17192e-19 -0.0598637 -9.14383e-20 -0.0230247)
(0.0618407 0.0277275 2.47884e-19 -0.0199929 1.44054e-19 0.0159287)
)
;

boundaryField
{
    plateFix
    {
        type            calculated;
        value           nonuniform List<symmTensor> 4((5.3539 0.479164 -1.40132e-21 2.11629 7.51939e-20 2.98603) (0.946895 -0.640687 7.2498e-24 0.417056 5.30109e-23 0.544436) (-1.78588 -0.394316 8.91558e-23 -0.731491 -7.72131e-23 -1.00811) (-6.7263 1.15673 -1.12694e-21 -2.17372 -1.12392e-19 -3.56246));
    }
    plate
    {
        type            calculated;
        value           nonuniform List<symmTensor> 
168
(
(4.26907 0.000741044 -3.50333e-22 0.454714 -3.8635e-21 1.88757)
(-4.997 -0.00217449 -1.52389e-22 0.45618 -1.83941e-20 -1.81858)
(4.45351 0.00086613 1.63894e-21 0.455455 3.97757e-20 1.96158)
(-5.24606 -0.00203753 1.49571e-21 0.456896 2.4484e-20 -1.918)
(4.64331 0.00136222 -3.42435e-21 0.456312 -2.51738e-21 2.03777)
(-5.5335 -0.002276 -5.52124e-21 0.457734 1.60739e-20 -2.03276)
(4.70818 0.00217031 1.47182e-21 0.457126 4.31194e-21 2.06402)
(-5.63949 -0.00287851 4.53927e-21 0.458538 -1.90006e-20 -2.07489)
(4.73571 0.00325058 -5.77069e-22 0.45781 -4.97298e-20 2.07528)
(-5.70216 -0.00385848 1.70811e-23 0.459219 5.91285e-21 -2.09972)
(4.72182 0.00451677 2.27043e-21 0.45829 1.88934e-20 2.06991)
(-5.70999 -0.00508881 1.12669e-22 0.459707 -4.98267e-24 -2.10266)
(4.68778 0.00590729 -3.45821e-21 0.458529 -5.45357e-21 2.05638)
(-5.69422 -0.0064965 3.7912e-22 0.459964 -9.99616e-26 -2.09626)
(4.63873 0.00736527 3.81344e-21 0.458515 1.55873e-20 2.03676)
(-5.65986 -0.00800817 -2.34437e-21 0.459977 -5.52597e-21 -2.0825)
(4.58093 0.00885081 -4.09026e-21 0.458244 -2.62239e-21 2.01354)
(-5.6147 -0.0095753 -1.18906e-21 0.459743 1.70756e-20 -2.06452)
(4.51691 0.0103355 4.29888e-21 0.457721 -5.7898e-21 1.98773)
(-5.56093 -0.0111623 9.45985e-21 0.459266 1.43587e-20 -2.0432)
(4.44836 0.0118018 -2.60681e-21 0.456949 -2.61299e-22 1.96001)
(-5.50015 -0.012747 -4.15529e-21 0.458551 -2.23984e-20 -2.01916)
(4.37589 0.0132402 -4.33285e-21 0.455928 7.18521e-21 1.93063)
(-5.43267 -0.0143161 -3.24567e-21 0.457598 -9.98748e-21 -1.99253)
(4.29965 0.014647 3.46854e-21 0.454653 -1.07777e-20 1.89964)
(-5.35855 -0.0158632 3.01974e-21 0.456405 4.67081e-21 -1.96334)
(4.21946 0.0160219 -2.97123e-21 0.453111 -1.59137e-20 1.86696)
(-5.27764 -0.0173861 -5.36816e-21 0.45496 -4.06195e-24 -1.93153)
(4.13496 0.017366 -7.92954e-21 0.451282 -7.62747e-21 1.83245)
(-5.18974 -0.0188844 1.79498e-20 0.453247 8.30392e-21 -1.89703)
(4.04572 0.0186799 1.71851e-20 0.449135 1.33592e-20 1.79591)
(-5.09459 -0.0203577 4.32206e-21 0.451239 -1.40396e-20 -1.85974)
(3.95129 0.0199624 -1.81704e-20 0.446634 -4.0319e-21 1.75716)
(-4.99196 -0.0218041 6.42645e-21 0.448903 1.98697e-21 -1.81959)
(3.85121 0.0212085 4.291e-20 0.443732 3.98779e-21 1.71599)
(-4.88154 -0.0232181 -4.48522e-21 0.446199 -3.74469e-21 -1.77647)
(3.74508 0.0224108 -4.41097e-20 0.440385 -6.11885e-21 1.67223)
(-4.76303 -0.0245924 -1.65838e-20 0.443086 4.09755e-21 -1.73027)
(3.6325 0.0235502 -4.5019e-20 0.436522 5.48115e-21 1.62567)
(-4.63607 -0.0259077 2.64656e-20 0.439501 1.33635e-20 -1.68088)
(3.5133 0.0246264 6.64978e-20 0.432145 3.77367e-23 1.57627)
(-4.50032 -0.0271637 -2.87968e-20 0.43545 -1.44493e-20 -1.62816)
(3.38678 0.0255596 4.1921e-20 0.427038 6.16682e-21 1.52365)
(-4.35537 -0.0282841 2.82892e-21 0.430726 9.45555e-21 -1.57203)
(3.24887 0.0266051 -4.93115e-20 0.421473 -5.28255e-21 1.46629)
(-4.19543 -0.0295162 5.58093e-20 0.425598 9.80472e-22 -1.51005)
(3.10352 0.0276543 -4.72052e-20 0.414584 5.85211e-21 1.40543)
(-4.02582 -0.0307384 -1.2982e-19 0.419256 -1.84176e-20 -1.4447)
(2.95998 0.0284998 -1.35268e-20 0.407632 -5.96582e-21 1.34526)
(-3.85646 -0.0317483 4.91213e-20 0.412871 5.09547e-21 -1.37946)
(2.81822 0.0292603 8.42863e-21 0.400114 -4.29933e-21 1.28558)
(-3.68811 -0.0326549 -2.35756e-20 0.40597 -3.69959e-21 -1.31483)
(2.67849 0.0298896 5.859e-20 0.392345 -7.35921e-21 1.22661)
(-3.52062 -0.0334173 -1.05761e-19 0.398848 8.03066e-21 -1.25063)
(2.54084 0.0304344 -9.87583e-20 0.384146 -4.02134e-21 1.1683)
(-3.35438 -0.0340804 8.66689e-20 0.391329 1.58588e-20 -1.1871)
(2.40553 0.0308773 1.17165e-19 0.375628 -4.95863e-21 1.1108)
(-3.18954 -0.0346292 1.05004e-19 0.383515 3.31799e-21 -1.12425)
(2.27272 0.0312357 -8.45687e-20 0.366735 -7.69557e-21 1.05415)
(-3.02641 -0.0350812 -4.83135e-20 0.375348 -2.19847e-20 -1.06222)
(2.14264 0.0315048 -2.49941e-20 0.357507 5.49073e-21 0.99845)
(-2.8652 -0.035433 -1.52798e-20 0.366859 -8.51277e-22 -1.00109)
(2.0155 0.0316908 -2.70929e-20 0.347931 1.45879e-21 0.943788)
(-2.70621 -0.0356914 1.22754e-19 0.35803 4.93556e-21 -0.940988)
(1.89153 0.0317924 -1.77164e-19 0.338025 -6.11619e-23 0.890261)
(-2.54971 -0.035856 -1.40844e-20 0.34887 -6.89744e-21 -0.882015)
(1.77095 0.0318115 9.14348e-20 0.327791 -6.44735e-21 0.837959)
(-2.39599 -0.0359294 -8.15324e-20 0.339374 -1.5627e-20 -0.824291)
(1.65399 0.0317471 -4.76198e-20 0.317243 1.48206e-21 0.78698)
(-2.24535 -0.0359115 -1.12697e-19 0.329548 1.34509e-21 -0.767929)
(1.54088 0.0315993 1.64654e-19 0.306391 5.882e-22 0.737417)
(-2.09807 -0.0358027 4.0542e-20 0.319393 5.14841e-21 -0.713046)
(1.43184 0.0313668 -4.97447e-20 0.295252 -3.77546e-21 0.689365)
(-1.95445 -0.0356024 -1.2709e-22 0.308917 1.01001e-20 -0.659756)
(1.32706 0.0310486 -7.59791e-20 0.283842 1.44736e-21 0.642913)
(-1.81476 -0.03531 1.29386e-19 0.298128 1.22372e-20 -0.608168)
(1.22676 0.0306435 4.56162e-20 0.272181 2.61867e-22 0.598146)
(-1.67929 -0.0349242 -1.45796e-20 0.287037 -7.00804e-22 -0.558388)
(1.13109 0.0301499 3.12711e-19 0.260294 -8.06591e-22 0.555143)
(-1.5483 -0.0344439 -2.09491e-19 0.275659 3.36988e-22 -0.510516)
(1.04021 0.0295667 -1.55736e-19 0.248206 3.60736e-21 0.513975)
(-1.42204 -0.0338677 -1.37849e-19 0.264011 2.00682e-22 -0.464641)
(0.954245 0.0288925 -1.65163e-19 0.235947 1.54939e-21 0.474707)
(-1.30072 -0.0331942 1.4829e-19 0.252117 -3.43585e-21 -0.420844)
(0.873302 0.0281265 3.08392e-19 0.22355 1.54498e-21 0.43739)
(-1.18455 -0.0324223 -1.42891e-19 0.240002 4.27021e-21 -0.379197)
(0.797446 0.0272681 1.96468e-19 0.211051 7.53562e-22 0.402067)
(-1.0737 -0.0315509 6.35706e-20 0.227696 -3.2471e-21 -0.339757)
(0.726716 0.0263171 3.7728e-19 0.198489 2.37978e-21 0.368769)
(-0.96832 -0.0305793 1.55439e-20 0.215232 -7.19887e-21 -0.302567)
(0.661114 0.0252738 -2.6894e-20 0.185905 -6.72858e-22 0.337513)
(-0.868525 -0.0295075 -2.37161e-19 0.202648 6.02792e-21 -0.26766)
(0.60061 0.0241392 6.37072e-19 0.173342 3.39839e-21 0.308305)
(-0.774393 -0.0283357 4.3517e-19 0.189985 7.74994e-21 -0.235051)
(0.545138 0.0229148 1.65855e-20 0.160846 1.31357e-21 0.281136)
(-0.685971 -0.0270648 -1.38365e-19 0.177287 -4.38941e-21 -0.204739)
(0.494599 0.0216027 3.26189e-20 0.148463 -6.13286e-24 0.255985)
(-0.60327 -0.0256965 -3.69411e-19 0.164602 3.39371e-21 -0.176713)
(0.448859 0.0202058 1.49271e-19 0.136241 -1.29031e-22 0.232818)
(-0.526268 -0.0242331 4.35542e-21 0.151978 -8.46528e-22 -0.150941)
(0.407753 0.0187277 -1.0707e-19 0.124228 -3.64962e-22 0.211588)
(-0.454907 -0.0226776 1.08355e-19 0.139467 3.5418e-21 -0.127381)
(0.371088 0.0171723 -2.75029e-19 0.11247 -2.50695e-21 0.192236)
(-0.389095 -0.0210337 3.27378e-19 0.127121 1.86064e-21 -0.105976)
(0.33864 0.0155446 4.59295e-19 0.101013 1.89006e-21 0.174692)
(-0.32871 -0.0193059 3.94513e-19 0.114992 1.93033e-21 -0.0866549)
(0.310164 0.0138496 7.72889e-20 0.0899025 -2.1923e-22 0.158874)
(-0.2736 -0.0174992 -5.57238e-19 0.103132 -5.84803e-21 -0.069337)
(0.285393 0.012093 -9.2854e-21 0.0791807 1.45279e-21 0.144694)
(-0.223587 -0.0156192 1.63096e-19 0.0915926 8.53577e-22 -0.0539298)
(0.264043 0.0102809 -3.3181e-19 0.0688871 -1.16532e-21 0.132053)
(-0.178466 -0.0136722 3.39131e-19 0.0804224 3.64821e-21 -0.0403325)
(0.245815 0.00841941 1.20526e-20 0.0590583 -1.01697e-21 0.120846)
(-0.138013 -0.0116645 -7.64224e-20 0.0696687 -4.90437e-22 -0.0284365)
(0.230402 0.00651501 -4.36056e-19 0.0497275 -2.59803e-21 0.110964)