/*--------------------------------*- C++ -*----------------------------------*\
| =========                 |                                                 |
| \\      /  F ield         | OpenFOAM Extend Project: Open source CFD        |
|  \\    /   O peration     | Version:  1.6-ext                               |
|   \\  /    A nd           | Web:      www.extend-project.de                 |
|    \\/     M anipulation  |                                                 |
\*---------------------------------------------------------------------------*/
FoamFile
{
    version     2.0;
    format      ascii;
    class       volVectorField;
    location    "0.8";
    object      Usolid;
}
// * * * * * * * * * * * * * * * * * * * * * * * * * * * * * * * * * * * * * //

dimensions      [0 1 0 0 0 0 0];

internalField   nonuniform List<vector> 
328
(
(1.18352e-07 9.85072e-08 0)
(2.00625e-08 -5.58618e-08 0)
(-3.89313e-08 -3.08387e-08 0)
(-1.58179e-07 2.18492e-07 0)
(3.67342e-07 2.67521e-07 0)
(6.9006e-08 -8.69299e-08 0)
(-1.36416e-07 -1.38814e-08 0)
(-4.87782e-07 5.75243e-07 0)
(6.54985e-07 4.45245e-07 0)
(1.35196e-07 -3.1356e-08 0)
(-2.7962e-07 8.70745e-08 0)
(-8.72536e-07 8.92603e-07 0)
(9.68574e-07 6.59674e-07 0)
(2.0788e-07 1.16155e-07 0)
(-4.4731e-07 2.73721e-07 0)
(-1.29265e-06 1.20643e-06 0)
(1.30942e-06 9.37594e-07 0)
(2.86764e-07 3.61383e-07 0)
(-6.41039e-07 5.50527e-07 0)
(-1.75137e-06 1.55335e-06 0)
(1.67467e-06 1.30313e-06 0)
(3.68907e-07 7.15366e-07 0)
(-8.54283e-07 9.28128e-07 0)
(-2.24487e-06 1.96501e-06 0)
(2.06428e-06 1.77966e-06 0)
(4.54092e-07 1.19212e-06 0)
(-1.08613e-06 1.4212e-06 0)
(-2.77388e-06 2.47095e-06 0)
(2.47796e-06 2.39071e-06 0)
(5.41944e-07 1.8097e-06 0)
(-1.33467e-06 2.0489e-06 0)
(-3.33856e-06 3.09931e-06 0)
(2.91614e-06 3.16133e-06 0)
(6.32797e-07 2.58988e-06 0)
(-1.59959e-06 2.83433e-06 0)
(-3.94012e-06 3.87873e-06 0)
(3.37939e-06 4.11912e-06 0)
(7.26982e-07 3.55856e-06 0)
(-1.88072e-06 3.80472e-06 0)
(-4.57986e-06 4.83947e-06 0)
(3.86845e-06 5.29515e-06 0)
(8.24913e-07 4.74597e-06 0)
(-2.17845e-06 4.9915e-06 0)
(-5.25931e-06 6.01458e-06 0)
(4.38413e-06 6.72477e-06 0)
(9.269e-07 6.1872e-06 0)
(-2.49336e-06 6.43069e-06 0)
(-5.98003e-06 7.44083e-06 0)
(4.9272e-06 8.44836e-06 0)
(1.03315e-06 7.92259e-06 0)
(-2.82622e-06 8.16331e-06 0)
(-6.74354e-06 9.15954e-06 0)
(5.49838e-06 1.05121e-05 0)
(1.14373e-06 9.99833e-06 0)
(-3.1779e-06 1.0236e-05 0)
(-7.55132e-06 1.12174e-05 0)
(6.09824e-06 1.29684e-05 0)
(1.25859e-06 1.24671e-05 0)
(-3.54934e-06 1.27017e-05 0)
(-8.40472e-06 1.36674e-05 0)
(6.72718e-06 1.58772e-05 0)
(1.37754e-06 1.53888e-05 0)
(-3.94142e-06 1.56203e-05 0)
(-9.30494e-06 1.65692e-05 0)
(7.38537e-06 1.93062e-05 0)
(1.50028e-06 1.88311e-05 0)
(-4.35499e-06 1.90597e-05 0)
(-1.0253e-05 1.99905e-05 0)
(8.0727e-06 2.33318e-05 0)
(1.62643e-06 2.28707e-05 0)
(-4.7908e-06 2.30962e-05 0)
(-1.12497e-05 2.40078e-05 0)
(8.78873e-06 2.804e-05 0)
(1.75545e-06 2.75937e-05 0)
(-5.24948e-06 2.78159e-05 0)
(-1.22954e-05 2.87068e-05 0)
(9.53262e-06 3.35276e-05 0)
(1.88673e-06 3.30966e-05 0)
(-5.73146e-06 3.33153e-05 0)
(-1.33903e-05 3.4184e-05 0)
(1.03031e-05 3.99026e-05 0)
(2.0195e-06 3.94878e-05 0)
(-6.23703e-06 3.97026e-05 0)
(-1.45339e-05 4.05474e-05 0)
(1.10984e-05 4.72855e-05 0)
(2.15287e-06 4.68875e-05 0)
(-6.76621e-06 4.70979e-05 0)
(-1.57255e-05 4.79172e-05 0)
(1.19471e-05 5.61348e-05 0)
(2.29079e-06 5.57551e-05 0)
(-7.33986e-06 5.59605e-05 0)
(-1.70104e-05 5.67513e-05 0)
(1.28116e-05 6.63531e-05 0)
(2.42584e-06 6.59924e-05 0)
(-7.9348e-06 6.61921e-05 0)
(-1.83353e-05 6.69525e-05 0)
(1.36325e-05 7.72857e-05 0)
(2.54865e-06 7.69435e-05 0)
(-8.51055e-06 7.71372e-05 0)
(-1.96095e-05 7.78672e-05 0)
(1.44104e-05 8.8901e-05 0)
(2.65959e-06 8.85769e-05 0)
(-9.06707e-06 8.87645e-05 0)
(-2.08334e-05 8.94639e-05 0)
(1.5146e-05 0.000101168 0)
(2.759e-06 0.000100861 0)
(-9.60429e-06 0.000101042 0)
(-2.2007e-05 0.000101712 0)
(1.58399e-05 0.000114055 0)
(2.84726e-06 0.000113766 0)
(-1.01222e-05 0.00011394 0)
(-2.31308e-05 0.000114579 0)
(1.64929e-05 0.000127532 0)
(2.92476e-06 0.00012726 0)
(-1.06207e-05 0.000127427 0)
(-2.42049e-05 0.000128036 0)
(1.71057e-05 0.000141569 0)
(2.99191e-06 0.000141313 0)
(-1.10997e-05 0.000141473 0)
(-2.52299e-05 0.000142052 0)
(1.76794e-05 0.000156136 0)
(3.04915e-06 0.000155895 0)
(-1.15594e-05 0.000156048 0)
(-2.6206e-05 0.000156597 0)
(1.82147e-05 0.000171202 0)
(3.09694e-06 0.000170976 0)
(-1.19998e-05 0.000171123 0)
(-2.71339e-05 0.000171642 0)
(1.87128e-05 0.00018674 0)
(3.13576e-06 0.000186529 0)
(-1.24208e-05 0.000186668 0)
(-2.80142e-05 0.000187157 0)
(1.91747e-05 0.000202721 0)
(3.16612e-06 0.000202524 0)
(-1.28226e-05 0.000202655 0)
(-2.88475e-05 0.000203116 0)
(1.96016e-05 0.000219117 0)
(3.18855e-06 0.000218933 0)
(-1.32054e-05 0.000219057 0)
(-2.96345e-05 0.000219489 0)
(1.99948e-05 0.000235902 0)
(3.20358e-06 0.00023573 0)
(-1.35691e-05 0.000235846 0)
(-3.03762e-05 0.00023625 0)
(2.03555e-05 0.000253048 0)
(3.21177e-06 0.000252888 0)
(-1.39141e-05 0.000252996 0)
(-3.10735e-05 0.000253373 0)
(2.06851e-05 0.00027053 0)
(3.21371e-06 0.000270381 0)
(-1.42406e-05 0.000270482 0)
(-3.17273e-05 0.000270832 0)
(2.09851e-05 0.000288324 0)
(3.20998e-06 0.000288186 0)
(-1.45487e-05 0.000288278 0)
(-3.23388e-05 0.000288602 0)
(2.12568e-05 0.000306405 0)
(3.20117e-06 0.000306277 0)
(-1.48389e-05 0.000306362 0)
(-3.29091e-05 0.000306659 0)
(2.1502e-05 0.000324751 0)
(3.18788e-06 0.000324632 0)
(-1.51113e-05 0.000324709 0)
(-3.34395e-05 0.000324982 0)
(2.1722e-05 0.000343339 0)
(3.1707e-06 0.000343229 0)
(-1.53665e-05 0.000343298 0)
(-3.39313e-05 0.000343546 0)
(2.19185e-05 0.00036215 0)
(3.15022e-06 0.000362046 0)
(-1.56047e-05 0.000362108 0)
(-3.4386e-05 0.000362333 0)
(2.20932e-05 0.000381162 0)
(3.12703e-06 0.000381065 0)
(-1.58265e-05 0.000381119 0)
(-3.48049e-05 0.000381322 0)
(2.22476e-05 0.000400357 0)
(3.10169e-06 0.000400267 0)
(-1.60323e-05 0.000400312 0)
(-3.51897e-05 0.000400494 0)
(2.23833e-05 0.000419717 0)
(3.07475e-06 0.000419632 0)
(-1.62226e-05 0.000419671 0)
(-3.55419e-05 0.000419831 0)
(2.25019e-05 0.000439227 0)
(3.04673e-06 0.000439146 0)
(-1.6398e-05 0.000439177 0)
(-3.58631e-05 0.000439318 0)
(2.26051e-05 0.000458869 0)
(3.01815e-06 0.000458792 0)
(-1.6559e-05 0.000458815 0)
(-3.61549e-05 0.000458937 0)
(2.26942e-05 0.00047863 0)
(2.98945e-06 0.000478556 0)
(-1.67061e-05 0.000478572 0)
(-3.6419e-05 0.000478676 0)
(2.27709e-05 0.000498496 0)
(2.96107e-06 0.000498425 0)
(-1.68402e-05 0.000498434 0)
(-3.66571e-05 0.000498521 0)
(2.28365e-05 0.000518455 0)
(2.9334e-06 0.000518386 0)
(-1.69617e-05 0.000518388 0)
(-3.68708e-05 0.00051846 0)
(2.28925e-05 0.000538496 0)
(2.9068e-06 0.000538429 0)
(-1.70713e-05 0.000538424 0)
(-3.70619e-05 0.000538481 0)
(2.294e-05 0.000558609 0)
(2.88157e-06 0.000558542 0)
(-1.71697e-05 0.000558531 0)
(-3.72319e-05 0.000558574 0)
(2.29803e-05 0.000578785 0)
(2.85796e-06 0.000578718 0)
(-1.72575e-05 0.000578701 0)
(-3.73825e-05 0.000578731 0)
(2.30145e-05 0.000599015 0)
(2.8362e-06 0.000598948 0)
(-1.73355e-05 0.000598925 0)
(-3.75153e-05 0.000598943 0)
(2.30436e-05 0.000619292 0)
(2.81644e-06 0.000619225 0)
(-1.74044e-05 0.000619196 0)
(-3.76317e-05 0.000619203 0)
(2.30686e-05 0.000639609 0)
(2.79881e-06 0.000639542 0)
(-1.74647e-05 0.000639508 0)
(-3.77334e-05 0.000639505 0)
(2.30902e-05 0.000659962 0)
(2.78337e-06 0.000659894 0)
(-1.75173e-05 0.000659854 0)
(-3.78217e-05 0.000659842 0)
(2.31091e-05 0.000680344 0)
(2.77014e-06 0.000680275 0)
(-1.75627e-05 0.000680231 0)
(-3.7898e-05 0.000680211 0)
(2.31261e-05 0.000700753 0)
(2.75911e-06 0.000700683 0)
(-1.76017e-05 0.000700634 0)
(-3.79636e-05 0.000700606 0)
(2.31415e-05 0.000721183 0)
(2.75019e-06 0.000721112 0)
(-1.76348e-05 0.000721059 0)
(-3.80197e-05 0.000721024 0)
(2.31558e-05 0.000741633 0)
(2.74329e-06 0.00074156 0)
(-1.76627e-05 0.000741504 0)
(-3.80675e-05 0.000741463 0)
(2.31693e-05 0.000762099 0)
(2.73825e-06 0.000762025 0)
(-1.7686e-05 0.000761965 0)
(-3.8108e-05 0.000761919 0)
(2.31823e-05 0.000782579 0)
(2.73489e-06 0.000782504 0)
(-1.77054e-05 0.000782442 0)
(-3.81423e-05 0.000782391 0)
(2.31948e-05 0.000803071 0)
(2.73298e-06 0.000802995 0)
(-1.77213e-05 0.000802931 0)
(-3.81713e-05 0.000802876 0)
(2.32069e-05 0.000823575 0)
(2.73229e-06 0.000823498 0)
(-1.77344e-05 0.000823431 0)
(-3.81958e-05 0.000823373 0)
(2.32186e-05 0.000844089 0)
(2.73254e-06 0.000844011 0)
(-1.77451e-05 0.000843942 0)
(-3.82166e-05 0.000843882 0)
(2.32298e-05 0.000864611 0)
(2.73341e-06 0.000864533 0)
(-1.7754e-05 0.000864463 0)
(-3.82344e-05 0.0008644 0)
(2.32403e-05 0.000885141 0)
(2.73459e-06 0.000885063 0)
(-1.77615e-05 0.000884992 0)
(-3.82498e-05 0.000884927 0)
(2.32498e-05 0.000905678 0)
(2.73574e-06 0.000905601 0)
(-1.77682e-05 0.000905529 0)
(-3.82634e-05 0.000905463 0)
(2.32582e-05 0.000926223 0)
(2.7365e-06 0.000926145 0)
(-1.77743e-05 0.000926073 0)
(-3.82758e-05 0.000926006 0)
(2.3265e-05 0.000946773 0)
(2.73651e-06 0.000946696 0)
(-1.77804e-05 0.000946625 0)
(-3.82874e-05 0.000946557 0)
(2.327e-05 0.000967328 0)
(2.73537e-06 0.000967253 0)
(-1.77869e-05 0.000967182 0)
(-3.82985e-05 0.000967114 0)
(2.32727e-05 0.000987888 0)
(2.73271e-06 0.000987814 0)
(-1.77942e-05 0.000987744 0)
(-3.83096e-05 0.000987677 0)
(2.32728e-05 0.00100845 0)
(2.72812e-06 0.00100838 0)
(-1.78026e-05 0.00100831 0)
(-3.83212e-05 0.00100825 0)
(2.32699e-05 0.00102902 0)
(2.72118e-06 0.00102895 0)
(-1.78126e-05 0.00102888 0)
(-3.83334e-05 0.00102882 0)
(2.32636e-05 0.00104959 0)
(2.71139e-06 0.00104952 0)
(-1.78248e-05 0.00104946 0)
(-3.83467e-05 0.00104939 0)
(2.32538e-05 0.00107016 0)
(2.69822e-06 0.0010701 0)
(-1.78397e-05 0.00107003 0)
(-3.83615e-05 0.00106997 0)
(2.32402e-05 0.00109073 0)
(2.68056e-06 0.00109067 0)
(-1.78584e-05 0.00109061 0)
(-3.83781e-05 0.00109055 0)
(2.32236e-05 0.0011113 0)
(2.65793e-06 0.00111124 0)
(-1.78817e-05 0.00111119 0)
(-3.83962e-05 0.00111114 0)
(2.3203e-05 0.00113187 0)
(2.62737e-06 0.00113182 0)
(-1.79126e-05 0.00113177 0)
(-3.84172e-05 0.00113171 0)
(2.31851e-05 0.00115246 0)
(2.59722e-06 0.0011524 0)
(-1.79427e-05 0.00115234 0)
(-3.84345e-05 0.00115227 0)
)
;

boundaryField
{
    plateFix
    {
        type            fixedDisplacement;
        value           uniform (0 0 0);
    }
    plate
    {
        type            solidTraction;
        nonLinear       updatedLagrangian;
        traction        uniform (0 0 0);
        pressure        uniform 0;
        value           nonuniform List<vector> 
168
(
(5.67469e-07 4.59576e-07 -7.92534e-26)
(-1.13635e-06 7.83115e-07 -1.16288e-25)
(7.70236e-07 6.46814e-07 1.39792e-25)
(-1.27629e-06 1.16497e-06 -2.39751e-26)
(1.07884e-06 8.43441e-07 2.76691e-26)
(-1.55968e-06 1.51114e-06 1.31797e-25)
(1.46407e-06 1.06428e-06 -2.16576e-26)
(-1.96218e-06 1.83565e-06 3.63928e-26)
(1.91291e-06 1.34492e-06 -4.28609e-26)
(-2.46746e-06 2.18888e-06 -9.50461e-26)
(2.41097e-06 1.70908e-06 5.36169e-26)
(-3.05231e-06 2.60133e-06 2.56355e-26)
(2.95104e-06 2.18226e-06 -1.01531e-25)
(-3.70464e-06 3.10565e-06 9.28725e-27)
(3.52851e-06 2.7885e-06 2.20369e-26)
(-4.41589e-06 3.73049e-06 -5.57121e-26)
(4.1417e-06 3.55351e-06 -5.88786e-26)
(-5.18209e-06 4.50527e-06 1.00559e-25)
(4.79036e-06 4.50512e-06 9.56724e-26)
(-6.00148e-06 5.46046e-06 -6.49625e-26)
(5.47521e-06 5.67456e-06 -6.38322e-26)
(-6.87398e-06 6.62927e-06 -5.63295e-28)
(6.1974e-06 7.09725e-06 7.39951e-26)
(-7.80035e-06 8.04848e-06 1.99854e-26)
(6.9582e-06 8.81361e-06 -5.16068e-26)
(-8.78185e-06 9.75945e-06 1.79476e-26)
(7.75885e-06 1.08697e-05 9.28839e-27)
(-9.81991e-06 1.18088e-05 -3.95813e-26)
(8.60036e-06 1.33182e-05 1.29532e-26)
(-1.0916e-05 1.42495e-05 1.70746e-26)
(9.48348e-06 1.62187e-05 1.83024e-27)
(-1.20715e-05 1.71413e-05 -2.33237e-26)
(1.04086e-05 1.96389e-05 3.30515e-26)
(-1.32875e-05 2.05518e-05 2.28919e-26)
(1.13758e-05 2.36552e-05 -1.65105e-26)
(-1.4565e-05 2.45572e-05 -6.45571e-26)
(1.23846e-05 2.83538e-05 -1.19172e-26)
(-1.59043e-05 2.92436e-05 5.06534e-26)
(1.34341e-05 3.38311e-05 5.30815e-27)
(-1.73055e-05 3.47072e-05 1.4831e-26)
(1.45226e-05 4.01954e-05 -3.513e-27)
(-1.87678e-05 4.1056e-05 -3.19801e-27)
(1.56479e-05 4.75669e-05 1.19329e-26)
(-2.02899e-05 4.84101e-05 9.9572e-27)
(1.68504e-05 5.64039e-05 -1.33926e-26)
(-2.19292e-05 5.72268e-05 -1.5435e-26)
(1.80788e-05 6.66094e-05 1.92471e-26)
(-2.36187e-05 6.74094e-05 2.32972e-26)
(1.9248e-05 7.75295e-05 -4.54129e-26)
(-2.52417e-05 7.83055e-05 -4.94437e-26)
(2.03586e-05 8.91325e-05 4.87845e-26)
(-2.67987e-05 8.98837e-05 1.1451e-26)
(2.14114e-05 0.000101387 9.84085e-27)
(-2.82899e-05 0.000102113 -5.0742e-26)
(2.24071e-05 0.000114263 -6.46422e-26)
(-2.97158e-05 0.000114962 8.17145e-26)
(2.33468e-05 0.000127729 4.91034e-26)
(-3.10768e-05 0.0001284 -2.67122e-26)
(2.42313e-05 0.000141754 -4.78274e-26)
(-3.23737e-05 0.000142398 -2.69861e-27)
(2.50619e-05 0.00015631 1.23242e-26)
(-3.36069e-05 0.000156925 1.06731e-26)
(2.58396e-05 0.000171366 -1.22215e-26)
(-3.47773e-05 0.000171952 -2.5628e-26)
(2.65658e-05 0.000186894 -3.10242e-26)
(-3.58857e-05 0.00018745 -2.93364e-26)
(2.72418e-05 0.000202865 -3.16567e-26)
(-3.69331e-05 0.000203391 -7.76844e-26)
(2.78692e-05 0.000219251 -2.0604e-26)
(-3.79206e-05 0.000219747 -3.84717e-27)
(2.84496e-05 0.000236026 6.86954e-27)
(-3.88494e-05 0.000236491 1.09431e-25)
(2.89845e-05 0.000253164 1.41927e-25)
(-3.97208e-05 0.000253598 5.88964e-26)
(2.94759e-05 0.000270638 -5.33514e-26)
(-4.05361e-05 0.00027104 1.22711e-25)
(2.99255e-05 0.000288424 -1.45625e-26)
(-4.1297e-05 0.000288795 -1.77374e-25)
(3.03353e-05 0.000306498 1.0208e-25)
(-4.20049e-05 0.000306837 1.31705e-25)
(3.07073e-05 0.000324837 2.80403e-26)
(-4.26618e-05 0.000325145 -4.96843e-26)
(3.10436e-05 0.000343419 -1.35659e-25)
(-4.32694e-05 0.000343695 -9.46772e-26)
(3.13462e-05 0.000362223 -2.98529e-26)
(-4.38295e-05 0.000362468 -9.30911e-26)
(3.16173e-05 0.00038123 -9.10659e-26)
(-4.43443e-05 0.000381444 -5.24125e-26)
(3.1859e-05 0.000400421 -7.15821e-26)
(-4.48157e-05 0.000400603 1.99032e-25)
(3.20735e-05 0.000419777 1.16055e-25)
(-4.5246e-05 0.000419928 6.22367e-26)
(3.2263e-05 0.000439282 -4.22592e-26)
(-4.56371e-05 0.000439403 -7.39054e-26)
(3.24295e-05 0.00045892 -3.5556e-26)
(-4.59914e-05 0.000459012 -1.18897e-25)
(3.25752e-05 0.000478678 -6.41829e-26)
(-4.63111e-05 0.00047874 -1.43886e-25)
(3.27021e-05 0.000498542 -7.54162e-26)
(-4.65984e-05 0.000498575 -3.477e-26)
(3.28122e-05 0.000518499 -1.14561e-25)
(-4.68554e-05 0.000518505 1.24576e-25)
(3.29072e-05 0.000538538 -4.8887e-26)
(-4.70844e-05 0.000538517 -8.88367e-27)
(3.29891e-05 0.00055865 2.13955e-25)
(-4.72875e-05 0.000558603 2.71569e-25)
(3.30594e-05 0.000578824 -1.14692e-25)
(-4.74669e-05 0.000578752 -2.25584e-25)
(3.31198e-05 0.000599053 -1.33726e-25)
(-4.76245e-05 0.000598957 -3.69329e-26)
(3.31717e-05 0.00061933 -8.11463e-27)
(-4.77624e-05 0.000619211 -8.68678e-26)
(3.32164e-05 0.000639647 -5.86117e-25)
(-4.78825e-05 0.000639507 2.32391e-25)
(3.32552e-05 0.00066 1.52089e-25)
(-4.79865e-05 0.000659839 -3.23923e-25)
(3.3289e-05 0.000680382 7.12792e-27)
(-4.80762e-05 0.000680203 4.44571e-25)
(3.33189e-05 0.000700791 -4.53003e-27)
(-4.81533e-05 0.000700594 -1.30813e-26)
(3.33456e-05 0.000721221 4.26192e-26)
(-4.82191e-05 0.000721009 -1.62656e-25)
(3.33698e-05 0.000741671 -7.19428e-26)
(-4.82753e-05 0.000741444 1.24607e-25)
(3.3392e-05 0.000762137 6.68112e-26)
(-4.83229e-05 0.000761898 -9.14296e-26)
(3.34126e-05 0.000782618 3.50688e-26)
(-4.83634e-05 0.000782367 -3.05906e-25)
(3.3432e-05 0.000803111 -2.22496e-25)
(-4.83977e-05 0.00080285 5.51587e-25)
(3.34503e-05 0.000823615 1.73875e-25)
(-4.84268e-05 0.000823345 -8.73103e-26)
(3.34677e-05 0.000844128 4.38033e-25)
(-4.84517e-05 0.000843852 7.14831e-26)
(3.34841e-05 0.000864651 -1.29456e-25)
(-4.84731e-05 0.000864369 -3.36368e-26)
(3.34994e-05 0.000885181 2.7746e-25)
(-4.84918e-05 0.000884895 1.16659e-25)
(3.35134e-05 0.000905718 -6.34537e-25)
(-4.85083e-05 0.00090543 1.47537e-25)
(3.35259e-05 0.000926262 1.45637e-25)
(-4.85233e-05 0.000925973 -3.11501e-25)
(3.35366e-05 0.000946812 1.38411e-25)
(-4.85371e-05 0.000946524 -5.28533e-25)
(3.35451e-05 0.000967366 2.10412e-25)
(-4.85502e-05 0.000967081 2.26711e-25)
(3.3551e-05 0.000987926 -5.85482e-25)
(-4.8563e-05 0.000987644 -5.01326e-25)
(3.35539e-05 0.00100849 -1.95394e-25)
(-4.85757e-05 0.00100821 1.91939e-25)
(3.35534e-05 0.00102906 2.75644e-25)
(-4.85887e-05 0.00102878 4.91513e-25)
(3.3549e-05 0.00104962 -1.67788e-25)
(-4.86025e-05 0.00104936 -5.85255e-25)
(3.35407e-05 0.00107019 -4.73836e-26)
(-4.86172e-05 0.00106994 2.43946e-25)
(3.35281e-05 0.00109076 2.22227e-25)
(-4.86332e-05 0.00109052 -1.23401e-25)
(3.35134e-05 0.00111133 4.05112e-26)
(-4.86489e-05 0.00111111 -4.18076e-25)
(3.34999e-05 0.0011319 2.46047e-25)
(-4.86614e-05 0.00113169 7.9598e-25)
(3.35046e-05 0.00115249 4.35643e-25)
(2.31742e-05 0.00116279 -7.5708e-27)
(2.58355e-06 0.00116269 -2.09971e-25)
(-1.79563e-05 0.00116261 2.17947e-25)
(-3.8445e-05 0.00116252 -2.48664e-25)
(-4.86544e-05 0.00115224 -1.42264e-25)
)
;
    }
    frontAndBackPlanes
    {
        type            empty;
    }
}


// ************************************************************************* //
