/*--------------------------------*- C++ -*----------------------------------*\
| =========                 |                                                 |
| \\      /  F ield         | OpenFOAM Extend Project: Open source CFD        |
|  \\    /   O peration     | Version:  1.6-ext                               |
|   \\  /    A nd           | Web:      www.extend-project.de                 |
|    \\/     M anipulation  |                                                 |
\*---------------------------------------------------------------------------*/
FoamFile
{
    version     2.0;
    format      ascii;
    class       volScalarField::DimensionedInternalField;
    location    "0.8";
    object      V0;
}
// * * * * * * * * * * * * * * * * * * * * * * * * * * * * * * * * * * * * * //

dimensions      [0 3 0 0 0 0 0];

value           nonuniform List<scalar> 
328
(
2.53362e-07
2.53351e-07
2.53316e-07
2.53319e-07
2.7173e-07
2.71716e-07
2.71689e-07
2.71697e-07
2.91438e-07
2.91414e-07
2.91392e-07
2.91387e-07
3.12571e-07
3.12542e-07
3.12522e-07
3.12506e-07
3.35236e-07
3.35202e-07
3.35184e-07
3.35159e-07
3.59543e-07
3.59505e-07
3.59487e-07
3.59456e-07
3.85611e-07
3.85571e-07
3.85553e-07
3.85517e-07
4.13569e-07
4.13526e-07
4.13508e-07
4.13468e-07
4.43554e-07
4.43509e-07
4.4349e-07
4.43445e-07
4.75713e-07
4.75665e-07
4.75645e-07
4.75597e-07
5.10204e-07
5.10153e-07
5.10131e-07
5.10081e-07
5.47195e-07
5.47141e-07
5.47118e-07
5.47065e-07
5.86868e-07
5.86811e-07
5.86787e-07
5.86731e-07
6.29417e-07
6.29358e-07
6.29332e-07
6.29272e-07
6.75051e-07
6.74989e-07
6.74962e-07
6.74899e-07
7.23994e-07
7.23928e-07
7.239e-07
7.23834e-07
7.76485e-07
7.76416e-07
7.76386e-07
7.76317e-07
8.32781e-07
8.32709e-07
8.32678e-07
8.32605e-07
8.93159e-07
8.93084e-07
8.93051e-07
8.92976e-07
9.57915e-07
9.57836e-07
9.57802e-07
9.57723e-07
1.02736e-06
1.02728e-06
1.02725e-06
1.02717e-06
1.10185e-06
1.10176e-06
1.10173e-06
1.10164e-06
1.2688e-06
1.26871e-06
1.26867e-06
1.26858e-06
1.2688e-06
1.26871e-06
1.26867e-06
1.26858e-06
1.26879e-06
1.26871e-06
1.26867e-06
1.26859e-06
1.26879e-06
1.26871e-06
1.26867e-06
1.26859e-06
1.26878e-06
1.26871e-06
1.26867e-06
1.26859e-06
1.26878e-06
1.26871e-06
1.26867e-06
1.2686e-06
1.26878e-06
1.26871e-06
1.26868e-06
1.2686e-06
1.26877e-06
1.2687e-06
1.26868e-06
1.26861e-06
1.26877e-06
1.2687e-06
1.26868e-06
1.26861e-06
1.26876e-06
1.2687e-06
1.26868e-06
1.26862e-06
1.26876e-06
1.2687e-06
1.26868e-06
1.26862e-06
1.26875e-06
1.2687e-06
1.26868e-06
1.26863e-06
1.26875e-06
1.2687e-06
1.26868e-06
1.26863e-06
1.26875e-06
1.2687e-06
1.26868e-06
1.26864e-06
1.26874e-06
1.2687e-06
1.26868e-06
1.26864e-06
1.26874e-06
1.2687e-06
1.26868e-06
1.26864e-06
1.26874e-06
1.2687e-06
1.26868e-06
1.26865e-06
1.26873e-06
1.2687e-06
1.26869e-06
1.26865e-06
1.26873e-06
1.2687e-06
1.26869e-06
1.26866e-06
1.26873e-06
1.2687e-06
1.26869e-06
1.26866e-06
1.26872e-06
1.2687e-06
1.26869e-06
1.26866e-06
1.26872e-06
1.2687e-06
1.26869e-06
1.26866e-06
1.26872e-06
1.2687e-06
1.26869e-06
1.26867e-06
1.26872e-06
1.2687e-06
1.26869e-06
1.26867e-06
1.26871e-06
1.2687e-06
1.26869e-06
1.26867e-06
1.26871e-06
1.2687e-06
1.26869e-06
1.26868e-06
1.26871e-06
1.2687e-06
1.26869e-06
1.26868e-06
1.26871e-06
1.2687e-06
1.26869e-06
1.26868e-06
1.26871e-06
1.2687e-06
1.26869e-06
1.26868e-06
1.26871e-06
1.2687e-06
1.26869e-06
1.26868e-06
1.2687e-06
1.2687e-06
1.26869e-06
1.26868e-06
1.2687e-06
1.2687e-06
1.26869e-06
1.26869e-06
1.2687e-06
1.2687e-06
1.26869e-06
1.26869e-06
1.2687e-06
1.2687e-06
1.26869e-06
1.26869e-06
1.2687e-06
1.2687e-06
1.26869e-06
1.26869e-06
1.2687e-06
1.2687e-06
1.26869e-06
1.26869e-06
1.2687e-06
1.2687e-06
1.26869e-06
1.26869e-06
1.2687e-06
1.2687e-06
1.26869e-06
1.26869e-06
1.2687e-06
1.2687e-06
1.26869e-06
1.26869e-06
1.2687e-06
1.2687e-06
1.26869e-06
1.26869e-06
1.2687e-06
1.2687e-06
1.26869e-06
1.26869e-06
1.2687e-06
1.2687e-06
1.26869e-06
1.26869e-06
1.2687e-06
1.2687e-06
1.26869e-06
1.26869e-06
1.2687e-06
1.2687e-06
1.26869e-06
1.26869e-06
1.2687e-06
1.2687e-06
1.26869e-06
1.26869e-06
1.2687e-06
1.2687e-06
1.26869e-06
1.26869e-06
1.2687e-06
1.26869e-06
1.26869e-06
1.26869e-06
1.2687e-06
1.26869e-06
1.26869e-06
1.26869e-06
1.2687e-06
1.26869e-06
1.26869e-06
1.26869e-06
1.2687e-06
1.26869e-06
1.26869e-06
1.26869e-06
1.2687e-06
1.26869e-06
1.26869e-06
1.26869e-06
1.2687e-06
1.26869e-06
1.26869e-06
1.26869e-06
1.2687e-06
1.26869e-06
1.26869e-06
1.26869e-06
1.26869e-06
1.26869e-06
1.26869e-06
1.26869e-06
1.26869e-06
1.26869e-06
1.26869e-06
1.26869e-06
1.26869e-06
1.26869e-06
1.26869e-06
1.26869e-06
1.26869e-06
1.26869e-06
1.26869e-06
1.26869e-06
1.26869e-06
1.26869e-06
1.26869e-06
1.26869e-06
1.2687e-06
1.26869e-06
1.26869e-06
1.2687e-06
1.26869e-06
1.26869e-06
1.26869e-06
1.26869e-06
)
;


// ************************************************************************* //
