/*--------------------------------*- C++ -*----------------------------------*\
| =========                 |                                                 |
| \\      /  F ield         | OpenFOAM Extend Project: Open source CFD        |
|  \\    /   O peration     | Version:  1.6-ext                               |
|   \\  /    A nd           | Web:      www.extend-project.de                 |
|    \\/     M anipulation  |                                                 |
\*---------------------------------------------------------------------------*/
FoamFile
{
    version     2.0;
    format      ascii;
    class       volVectorField;
    location    "0.8";
    object      Vs;
}
// * * * * * * * * * * * * * * * * * * * * * * * * * * * * * * * * * * * * * //

dimensions      [0 1 -1 0 0 0 0];

internalField   nonuniform List<vector> 
328
(
(2.72797e-06 -1.53873e-06 0)
(2.76691e-06 -5.42849e-07 0)
(2.61843e-06 2.69598e-07 0)
(2.04353e-06 2.27961e-06 0)
(8.4164e-06 -3.88612e-06 0)
(8.38023e-06 -1.38299e-06 0)
(7.86318e-06 9.52824e-07 0)
(6.29557e-06 5.83219e-06 0)
(1.44184e-05 -5.47476e-06 0)
(1.40761e-05 -1.95753e-06 0)
(1.3031e-05 1.78358e-06 0)
(1.0618e-05 8.5388e-06 0)
(2.08395e-05 -6.36197e-06 0)
(2.00198e-05 -2.20405e-06 0)
(1.83669e-05 2.71751e-06 0)
(1.51974e-05 1.06162e-05 0)
(2.7695e-05 -6.63901e-06 0)
(2.62247e-05 -2.09322e-06 0)
(2.38801e-05 3.75189e-06 0)
(2.00354e-05 1.23151e-05 0)
(3.50329e-05 -6.36599e-06 0)
(3.27773e-05 -1.59544e-06 0)
(2.96803e-05 4.91336e-06 0)
(2.51944e-05 1.3837e-05 0)
(4.28855e-05 -5.58083e-06 0)
(3.97303e-05 -6.88173e-07 0)
(3.58218e-05 6.25417e-06 0)
(3.07023e-05 1.53552e-05 0)
(5.12925e-05 -4.29417e-06 0)
(4.71503e-05 6.57022e-07 0)
(4.23758e-05 7.84353e-06 0)
(3.65956e-05 1.70142e-05 0)
(6.02932e-05 -2.49447e-06 0)
(5.50942e-05 2.476e-06 0)
(4.93981e-05 9.76421e-06 0)
(4.29057e-05 1.89433e-05 0)
(6.99315e-05 -1.47588e-07 0)
(6.36202e-05 4.81778e-06 0)
(5.69445e-05 1.21089e-05 0)
(4.96672e-05 2.12619e-05 0)
(8.02546e-05 2.8018e-06 0)
(7.27824e-05 7.74671e-06 0)
(6.50657e-05 1.49793e-05 0)
(5.69163e-05 2.40869e-05 0)
(9.13136e-05 6.43052e-06 0)
(8.26345e-05 1.13452e-05 0)
(7.38109e-05 1.84866e-05 0)
(6.46926e-05 2.75378e-05 0)
(0.000103164 1.0837e-05 0)
(9.3229e-05 1.57152e-05 0)
(8.3228e-05 2.27528e-05 0)
(7.30384e-05 3.1741e-05 0)
(0.000115864 1.61423e-05 0)
(0.000104619 2.09801e-05 0)
(9.3365e-05 2.79137e-05 0)
(8.19994e-05 3.68345e-05 0)
(0.000129477 2.24909e-05 0)
(0.000116859 2.7286e-05 0)
(0.000104272 3.41219e-05 0)
(9.16244e-05 4.29721e-05 0)
(0.000144068 3.00525e-05 0)
(0.000130006 3.48038e-05 0)
(0.000115999 4.15506e-05 0)
(0.000101965 5.03277e-05 0)
(0.000159705 3.9024e-05 0)
(0.00014412 4.37318e-05 0)
(0.000128603 5.03978e-05 0)
(0.000113076 5.90995e-05 0)
(0.00017646 4.96324e-05 0)
(0.000159263 5.42978e-05 0)
(0.00014214 6.08903e-05 0)
(0.000125014 6.95145e-05 0)
(0.000194407 6.21381e-05 0)
(0.000175502 6.67633e-05 0)
(0.000156674 7.3288e-05 0)
(0.000137841 8.18328e-05 0)
(0.00021362 7.68385e-05 0)
(0.000192907 8.14272e-05 0)
(0.000172269 8.78887e-05 0)
(0.00015162 9.63523e-05 0)
(0.000234176 9.40723e-05 0)
(0.000211549 9.86299e-05 0)
(0.000188994 0.000105032 0)
(0.000166418 0.000113413 0)
(0.000256152 0.000114224 0)
(0.000231503 0.000118758 0)
(0.000206921 0.000125105 0)
(0.000182307 0.000133402 0)
(0.000280519 0.000138626 0)
(0.000253656 0.000143144 0)
(0.000226857 0.000149439 0)
(0.000200012 0.000157647 0)
(0.000306454 0.000167125 0)
(0.000277274 0.00017164 0)
(0.000248153 0.000177889 0)
(0.00021897 0.000186007 0)
(0.000332214 0.00019795 0)
(0.000300776 0.000202477 0)
(0.000269392 0.000208689 0)
(0.000237929 0.000216723 0)
(0.000357774 0.000231041 0)
(0.000324141 0.000235594 0)
(0.000290559 0.00024178 0)
(0.000256881 0.000249734 0)
(0.000383106 0.000266329 0)
(0.000347351 0.000270924 0)
(0.000311643 0.000277095 0)
(0.000275821 0.000284974 0)
(0.000408186 0.000303739 0)
(0.000370386 0.000308392 0)
(0.00033263 0.000314557 0)
(0.000294744 0.000322366 0)
(0.000432987 0.000343188 0)
(0.000393228 0.000347914 0)
(0.000353509 0.000354083 0)
(0.000313644 0.000361827 0)
(0.000457486 0.000384584 0)
(0.000415859 0.000389397 0)
(0.00037427 0.000395581 0)
(0.000332518 0.000403265 0)
(0.00048166 0.000427828 0)
(0.000438263 0.000432743 0)
(0.0003949 0.00043895 0)
(0.000351359 0.000446581 0)
(0.000505488 0.000472816 0)
(0.000460424 0.000477845 0)
(0.000415389 0.000484087 0)
(0.000370164 0.000491669 0)
(0.000528949 0.000519436 0)
(0.000482327 0.000524592 0)
(0.000435726 0.000530877 0)
(0.000388923 0.000538418 0)
(0.000552028 0.000567575 0)
(0.000503956 0.000572869 0)
(0.000455901 0.000579207 0)
(0.000407631 0.000586713 0)
(0.000574708 0.000617114 0)
(0.0005253 0.000622558 0)
(0.000475901 0.000628957 0)
(0.000426279 0.000636437 0)
(0.000596975 0.000667934 0)
(0.000546345 0.000673537 0)
(0.000495717 0.000680007 0)
(0.000444856 0.00068747 0)
(0.000618819 0.000719915 0)
(0.000567081 0.000725686 0)
(0.000515336 0.000732236 0)
(0.000463352 0.00073969 0)
(0.000640228 0.000772938 0)
(0.000587497 0.000778884 0)
(0.000534748 0.000785523 0)
(0.000481754 0.000792978 0)
(0.000661196 0.000826885 0)
(0.000607582 0.000833013 0)
(0.000553942 0.00083975 0)
(0.00050005 0.000847215 0)
(0.000681716 0.000881639 0)
(0.000627329 0.000887956 0)
(0.000572905 0.000894798 0)
(0.000518226 0.000902285 0)
(0.000701782 0.000937089 0)
(0.000646729 0.000943599 0)
(0.000591626 0.000950555 0)
(0.000536266 0.000958074 0)
(0.000721394 0.000993126 0)
(0.000665775 0.000999834 0)
(0.000610095 0.00100691 0)
(0.000554155 0.00101447 0)
(0.000740548 0.00104965 0)
(0.000684461 0.00105656 0)
(0.000628299 0.00106376 0)
(0.000571876 0.00107138 0)
(0.000759245 0.00110655 0)
(0.00070278 0.00111367 0)
(0.000646227 0.00112101 0)
(0.000589413 0.0011287 0)
(0.000777488 0.00116376 0)
(0.000720728 0.00117108 0)
(0.000663868 0.00117856 0)
(0.000606747 0.00118633 0)
(0.000795278 0.00122118 0)
(0.000738301 0.0012287 0)
(0.00068121 0.00123633 0)
(0.00062386 0.00124419 0)
(0.000812619 0.00127873 0)
(0.000755495 0.00128646 0)
(0.000698243 0.00129425 0)
(0.000640734 0.00130221 0)
(0.000829516 0.00133636 0)
(0.000772307 0.0013443 0)
(0.000714957 0.00135225 0)
(0.000657351 0.00136033 0)
(0.000845974 0.001394 0)
(0.000788734 0.00140214 0)
(0.00073134 0.00141026 0)
(0.000673694 0.00141846 0)
(0.000861999 0.0014516 0)
(0.000804775 0.00145995 0)
(0.000747385 0.00146824 0)
(0.000689744 0.00147658 0)
(0.000877596 0.00150912 0)
(0.000820428 0.00151768 0)
(0.000763081 0.00152614 0)
(0.000705487 0.00153463 0)
(0.000892773 0.00156653 0)
(0.000835692 0.00157529 0)
(0.00077842 0.00158393 0)
(0.000720905 0.00159258 0)
(0.000907537 0.0016238 0)
(0.000850566 0.00163276 0)
(0.000793396 0.00164159 0)
(0.000735985 0.0016504 0)
(0.000921894 0.00168091 0)
(0.000865052 0.00169006 0)
(0.000808 0.00169908 0)
(0.000750713 0.00170806 0)
(0.000935851 0.00173784 0)
(0.000879149 0.0017472 0)
(0.000822228 0.0017564 0)
(0.000765076 0.00176557 0)
(0.000949418 0.0017946 0)
(0.00089286 0.00180415 0)
(0.000836075 0.00181354 0)
(0.000779063 0.0018229 0)
(0.000962601 0.00185118 0)
(0.000906185 0.00186092 0)
(0.000849536 0.00187051 0)
(0.000792664 0.00188005 0)
(0.000975409 0.0019076 0)
(0.000919128 0.00191751 0)
(0.000862609 0.0019273 0)
(0.000805871 0.00193704 0)
(0.000987852 0.00196385 0)
(0.000931693 0.00197395 0)
(0.000875292 0.00198393 0)
(0.000818678 0.00199387 0)
(0.000999936 0.00201997 0)
(0.000943883 0.00203025 0)
(0.000887586 0.00204041 0)
(0.00083108 0.00205056 0)
(0.00101167 0.00207598 0)
(0.000955705 0.00208643 0)
(0.000899492 0.00209678 0)
(0.000843077 0.00210713 0)
(0.00102307 0.0021319 0)
(0.000967163 0.00214252 0)
(0.000911014 0.00215306 0)
(0.000854667 0.00216361 0)
(0.00103413 0.00218776 0)
(0.000978265 0.00219854 0)
(0.000922157 0.00220927 0)
(0.000865857 0.00222002 0)
(0.00104488 0.0022436 0)
(0.000989019 0.00225454 0)
(0.00093293 0.00226544 0)
(0.000876654 0.00227639 0)
(0.00105531 0.00229945 0)
(0.000999436 0.00231054 0)
(0.000943343 0.00232161 0)
(0.000887068 0.00233275 0)
(0.00106543 0.00235533 0)
(0.00100953 0.00236657 0)
(0.000953408 0.00237781 0)
(0.000897114 0.00238912 0)
(0.00107527 0.00241127 0)
(0.0010193 0.00242265 0)
(0.000963141 0.00243404 0)
(0.000906811 0.00244552 0)
(0.00108482 0.0024673 0)
(0.00102878 0.00247881 0)
(0.000972561 0.00249035 0)
(0.000916181 0.00250197 0)
(0.00109412 0.00252344 0)
(0.00103799 0.00253507 0)
(0.000981691 0.00254673 0)
(0.000925249 0.00255849 0)
(0.00110316 0.0025797 0)
(0.00104693 0.00259143 0)
(0.000990555 0.00260321 0)
(0.000934045 0.00261509 0)
(0.00111199 0.00263609 0)
(0.00105565 0.00264791 0)
(0.000999184 0.00265979 0)
(0.000942603 0.00267176 0)
(0.00112061 0.00269261 0)
(0.00106416 0.00270451 0)
(0.00100761 0.00271646 0)
(0.000950961 0.0027285 0)
(0.00112908 0.00274928 0)
(0.00107251 0.00276123 0)
(0.00101587 0.00277323 0)
(0.00095916 0.00278531 0)
(0.00113741 0.00280609 0)
(0.00108073 0.00281806 0)
(0.00102401 0.00283008 0)
(0.000967246 0.00284218 0)
(0.00114566 0.00286303 0)
(0.00108887 0.00287499 0)
(0.00103208 0.002887 0)
(0.000975272 0.00289908 0)
(0.00115388 0.00292011 0)
(0.00109699 0.00293203 0)
(0.00104013 0.00294398 0)
(0.000983296 0.002956 0)
(0.00116213 0.00297731 0)
(0.00110515 0.00298914 0)
(0.00104824 0.00300101 0)
(0.000991382 0.00301292 0)
(0.00117049 0.00303464 0)
(0.00111341 0.00304633 0)
(0.00105646 0.00305805 0)
(0.000999602 0.00306981 0)
(0.00117901 0.00309209 0)
(0.00112187 0.00310359 0)
(0.00106489 0.00311509 0)
(0.00100803 0.00312664 0)
(0.00118782 0.00314966 0)
(0.00113064 0.00316089 0)
(0.00107363 0.00317211 0)
(0.00101677 0.00318339 0)
(0.00119698 0.00320731 0)
(0.0011398 0.00321823 0)
(0.00108277 0.0032291 0)
(0.00102589 0.00324003 0)
(0.00120665 0.00326491 0)
(0.00114952 0.00327552 0)
(0.00109248 0.00328609 0)
(0.00103554 0.00329673 0)
)
;

boundaryField
{
    plateFix
    {
        type            calculated;
        value           uniform (0 0 0);
    }
    plate
    {
        type            calculated;
        value           nonuniform List<vector> 
168
(
(-3.95598e-06 -3.64527e-06 1.03627e-23)
(-7.92086e-06 6.70851e-06 -2.05265e-23)
(3.78639e-06 -6.03991e-06 -3.22522e-23)
(-1.0222e-06 1.04227e-05 1.44987e-23)
(1.16838e-05 -7.71257e-06 -1.27856e-23)
(5.3989e-06 1.33422e-05 -1.71049e-23)
(1.96168e-05 -8.62799e-06 -2.09527e-24)
(1.13547e-05 1.55013e-05 -5.80427e-24)
(2.76483e-05 -8.92954e-06 3.41033e-23)
(1.69792e-05 1.726e-05 -1.00968e-23)
(3.59217e-05 -8.66921e-06 -2.09516e-23)
(2.25058e-05 1.88071e-05 1.72332e-23)
(4.45427e-05 -7.89442e-06 2.94082e-23)
(2.80844e-05 2.03388e-05 -2.54487e-23)
(5.36098e-05 -6.61484e-06 -2.09138e-23)
(3.38416e-05 2.20011e-05 -5.30358e-24)
(6.32054e-05 -4.81979e-06 -7.95076e-24)
(3.98685e-05 2.39277e-05 2.38808e-23)
(7.34062e-05 -2.47432e-06 9.73805e-24)
(4.62406e-05 2.62384e-05 1.47791e-23)
(8.42834e-05 4.77201e-07 -5.90492e-25)
(5.30205e-05 2.90507e-05 -1.92627e-23)
(9.59064e-05 4.11186e-06 -8.83094e-24)
(6.02647e-05 3.24839e-05 -1.84369e-24)
(0.000108343 8.528e-06 -8.13136e-25)
(6.80258e-05 3.66647e-05 1.07035e-24)
(0.000121663 1.38462e-05 1.63175e-23)
(7.63552e-05 4.17315e-05 -1.19792e-23)
(0.000135934 2.02102e-05 5.33547e-24)
(8.53037e-05 4.78384e-05 1.80866e-23)
(0.000151227 2.77891e-05 -1.48684e-23)
(9.49229e-05 5.51598e-05 -1.34977e-23)
(0.000167614 3.67789e-05 2.03722e-23)
(0.000105266 6.38945e-05 -1.36732e-23)
(0.000185169 4.74057e-05 -1.77193e-23)
(0.000116388 7.427e-05 3.61508e-25)
(0.000203967 5.9929e-05 1.05072e-23)
(0.000128348 8.65466e-05 1.0604e-23)
(0.000224087 7.46451e-05 2.33622e-24)
(0.000141206 0.000101023 9.52707e-24)
(0.000245605 9.18919e-05 -1.39815e-23)
(0.000155029 0.000118038 -5.1256e-24)
(0.0002686 0.000112053 9.75716e-24)
(0.000169885 0.000137981 3.37006e-24)
(0.000294082 0.000136458 -6.36108e-24)
(0.000186459 0.000162176 -5.62488e-24)
(0.000321188 0.000164955 -5.72608e-24)
(0.000204231 0.000190485 -1.74331e-23)
(0.000348091 0.000195768 7.15884e-24)
(0.00022203 0.00022115 7.83938e-24)
(0.000374762 0.000228839 -2.35792e-24)
(0.000239855 0.000254114 4.7933e-24)
(0.000401171 0.000264099 -5.39817e-25)
(0.000257703 0.000289307 -2.94585e-24)
(0.000427286 0.000301472 9.33178e-24)
(0.000275574 0.000326655 1.03914e-23)
(0.000453081 0.000340876 -7.37256e-24)
(0.000293466 0.000366073 2.83231e-23)
(0.000478526 0.000382219 4.80565e-24)
(0.000311379 0.00040747 -3.16476e-23)
(0.000503595 0.000425403 -1.38253e-23)
(0.000329311 0.000450747 1.35966e-23)
(0.000528264 0.000470323 9.45286e-24)
(0.00034726 0.000495799 8.21039e-24)
(0.000552512 0.000516869 -3.50212e-24)
(0.000365221 0.000542515 -2.2231e-23)
(0.000576319 0.000564927 -6.8832e-24)
(0.000383187 0.00059078 1.57336e-24)
(0.000599668 0.00061438 3.9973e-26)
(0.000401153 0.000640478 2.11238e-24)
(0.000622545 0.000665109 -6.99034e-24)
(0.000419108 0.000691488 9.06228e-24)
(0.000644938 0.000716995 1.17627e-24)
(0.000437041 0.000743691 -6.88843e-24)
(0.000666838 0.000769919 2.43356e-24)
(0.000454941 0.000796966 -1.33058e-23)
(0.000688239 0.000823763 2.92366e-24)
(0.000472793 0.000851196 -1.81912e-23)
(0.000709134 0.000878412 1.29141e-23)
(0.000490581 0.000906264 1.37945e-23)
(0.000729521 0.000933755 1.74146e-23)
(0.000508289 0.000962058 -3.34882e-24)
(0.000749401 0.000989683 -2.35884e-24)
(0.0005259 0.00101847 -3.54795e-24)
(0.000768773 0.00104609 -5.6032e-24)
(0.000543392 0.00107539 1.9642e-23)
(0.000787642 0.00110289 5.44396e-24)
(0.000560747 0.00113273 5.37212e-24)
(0.000806012 0.00115998 -5.99017e-24)
(0.000577943 0.00119039 4.03297e-25)
(0.000823891 0.00121729 1.76584e-23)
(0.000594958 0.0012483 -4.18373e-25)
(0.000841285 0.00127474 4.64127e-24)
(0.00061177 0.00130636 1.49077e-23)
(0.000858204 0.00133225 7.60372e-24)
(0.000628356 0.00136452 -3.13104e-23)
(0.000874656 0.00138979 2.38432e-23)
(0.000644696 0.00142272 1.66639e-23)
(0.000890653 0.00144728 -2.37432e-23)
(0.000660767 0.0014809 -1.03422e-23)
(0.000906203 0.0015047 1.87198e-24)
(0.00067655 0.00153902 4.14019e-24)
(0.000921318 0.001562 -1.58329e-23)
(0.000692025 0.00159704 -2.1524e-23)
(0.000936007 0.00161917 8.0288e-25)
(0.000707173 0.00165494 5.39109e-24)
(0.000950282 0.00167618 2.13683e-23)
(0.000721978 0.00171269 2.61564e-23)
(0.000964153 0.00173302 1.07906e-23)
(0.000736424 0.00177028 -1.16379e-23)
(0.000977632 0.00178968 -4.18016e-24)
(0.000750496 0.0018277 -2.99026e-23)
(0.00099073 0.00184617 -3.66247e-23)
(0.000764181 0.00188496 -1.85439e-23)
(0.00100346 0.00190249 -6.24683e-24)
(0.000777467 0.00194204 -1.35601e-25)
(0.00101583 0.00195866 3.90857e-23)
(0.000790347 0.00199897 -1.24005e-23)
(0.00102785 0.00201469 -4.52768e-25)
(0.000802812 0.00205577 3.21606e-23)
(0.00103954 0.00207061 1.34732e-23)
(0.000814861 0.00211244 2.68505e-23)
(0.0010509 0.00212645 1.30533e-23)
(0.000826491 0.00216902 -3.52609e-23)
(0.00106195 0.00218224 -1.99654e-23)
(0.000837707 0.00222553 4.28471e-23)
(0.00107269 0.002238 -7.28683e-24)
(0.000848515 0.002282 1.47248e-23)
(0.00108313 0.00229377 5.71701e-25)
(0.000858928 0.00233845 2.28448e-23)
(0.00109328 0.00234959 1.50974e-23)
(0.000868962 0.00239491 -3.03204e-23)
(0.00110316 0.00240546 1.47233e-23)
(0.000878636 0.0024514 -4.80199e-23)
(0.00111276 0.00246143 3.19234e-23)
(0.000887975 0.00250793 -8.05736e-24)
(0.00112212 0.00251752 4.10478e-23)
(0.000897007 0.00256451 -2.48759e-23)
(0.00113123 0.00257372 -3.2256e-23)
(0.000905764 0.00262116 -1.75439e-23)
(0.00114012 0.00263007 1.72828e-23)
(0.000914284 0.00267788 4.29821e-23)
(0.00114882 0.00268656 8.04758e-24)
(0.000922604 0.00273466 -3.48677e-23)
(0.00115735 0.00274321 -1.00943e-23)
(0.000930771 0.00279149 9.48444e-24)
(0.00116575 0.00280001 -5.60811e-23)
(0.000938832 0.00284835 2.74154e-23)
(0.00117407 0.00285696 8.39712e-23)
(0.000946841 0.00290524 6.67445e-23)
(0.00118236 0.00291406 -6.64188e-23)
(0.000954858 0.00296213 -8.80089e-24)
(0.00119067 0.0029713 3.864e-23)
(0.000962948 0.00301899 1.04255e-23)
(0.00119909 0.0030287 -1.00259e-23)
(0.000971187 0.0030758 -7.0144e-23)
(0.00120767 0.00308625 9.16997e-24)
(0.00097965 0.00313252 4.01638e-23)
(0.00121653 0.00314394 -7.54912e-25)
(0.000988427 0.00318912 3.15603e-23)
(0.00122569 0.00320177 6.28091e-23)
(0.000997551 0.0032456 5.31461e-23)
(0.00123525 0.00325954 -1.07714e-23)
(0.0012117 0.00329353 2.91098e-24)
(0.00115458 0.00330411 1.74861e-23)
(0.00109754 0.00331463 3.95277e-24)
(0.00104058 0.00332524 -1.77136e-23)
(0.0010071 0.0033021 -6.39767e-23)
)
;
    }
    frontAndBackPlanes
    {
        type            empty;
    }
}


// ************************************************************************* //
