/*--------------------------------*- C++ -*----------------------------------*\
| =========                 |                                                 |
| \\      /  F ield         | OpenFOAM Extend Project: Open source CFD        |
|  \\    /   O peration     | Version:  1.6-ext                               |
|   \\  /    A nd           | Web:      www.extend-project.de                 |
|    \\/     M anipulation  |                                                 |
\*---------------------------------------------------------------------------*/
FoamFile
{
    version     2.0;
    format      ascii;
    class       volScalarField;
    location    "4.6";
    object      p;
}
// * * * * * * * * * * * * * * * * * * * * * * * * * * * * * * * * * * * * * //

dimensions      [0 2 -2 0 0 0 0];

internalField   nonuniform List<scalar> 
284
(
0.28879
0.257312
0.245844
0.240859
0.238948
0.23891
0.239777
0.24102
0.243032
0.259578
0.2507
0.245348
0.24282
0.241848
0.241866
0.242391
0.243171
0.245325
0.247623
0.24422
0.241658
0.2405
0.240488
0.241211
0.242161
0.243109
0.24605
0.238151
0.237084
0.236045
0.235844
0.236552
0.237863
0.239264
0.240451
0.244146
0.230345
0.230036
0.229639
0.229709
0.23044
0.231654
0.232843
0.233598
0.237424
0.223256
0.223135
0.222808
0.22256
0.222555
0.222681
0.222409
0.221104
0.22292
0.216523
0.216372
0.215774
0.214778
0.213379
0.211311
0.207717
0.200879
0.195514
0.210173
0.209901
0.20882
0.206774
0.20349
0.198362
0.189814
0.175503
0.131306
0.204454
0.204016
0.20232
0.199035
0.193434
0.183903
0.164695
0.126753
0.0336338
0.199733
0.199077
0.196708
0.192297
0.185077
0.173547
0.15346
0.121628
0.0681748
0.196475
0.195407
0.192214
0.186825
0.178831
0.16732
0.150356
0.126021
0.0928313
0.195185
0.193239
0.188797
0.182342
0.173833
0.162695
0.148094
0.128242
0.104429
0.197484
0.192966
0.1864
0.178653
0.169644
0.158886
0.14591
0.129227
0.11028
0.203584
0.193782
0.184573
0.175725
0.166581
0.156362
0.144542
0.129974
0.113422
0.231824
0.199938
0.185183
0.175284
0.16636
0.156918
0.146018
0.132513
0.116744
-0.0989132
-0.0636782
-0.00104496
-0.0219848
0.0431102
0.0130662
0.0708675
0.0442329
0.0867638
0.0643675
0.0942457
0.0744629
0.0984774
0.0788769
-0.0512274
-0.0420812
-0.0382505
-0.0364597
-0.0348694
-0.0314703
-0.0255725
-0.0165403
-0.00565596
-0.0277218
-0.0279765
-0.0280685
-0.0281233
-0.0272288
-0.0242843
-0.0194069
-0.0121149
-0.0046701
-0.00132506
-0.00820153
-0.0120596
-0.0143591
-0.0150593
-0.0137241
-0.0110421
-0.0066035
-0.00341087
0.0268733
0.0153808
0.00694387
0.00131333
-0.00193788
-0.0030698
-0.0031138
-0.00179648
-0.00241478
0.0460669
0.0318323
0.020986
0.0131204
0.00773144
0.00439511
0.00215514
0.00108443
-0.00191195
0.0564477
0.0411523
0.028832
0.0193892
0.0124585
0.00760392
0.00409802
0.00175137
-0.00187313
0.0598965
0.0431922
0.0293526
0.0184994
0.0104335
0.00479237
0.00105372
-0.00113189
-0.00335169
-0.0240738
-0.0252695
-0.0249921
-0.0235242
-0.0206764
-0.0163564
-0.0109603
-0.00550914
0.0034673
-0.0227793
-0.0240355
-0.0238183
-0.0227453
-0.0205646
-0.0169941
-0.0122859
-0.00729019
0.00229117
-0.0234411
-0.0248764
-0.0249073
-0.0242528
-0.0225393
-0.0192718
-0.0145813
-0.00940201
0.00143457
-0.0258246
-0.0271411
-0.0274184
-0.027216
-0.0259789
-0.0229166
-0.018016
-0.0122922
0.000437184
-0.029936
-0.030566
-0.0309145
-0.0310989
-0.0303348
-0.0276004
-0.0221574
-0.0152267
-0.00063555
-0.035565
-0.0344411
-0.034548
-0.0349236
-0.0344927
-0.031925
-0.0263302
-0.0176033
-0.00307462
-0.0422489
-0.0376512
-0.0373004
-0.0374238
-0.0370518
-0.0345015
-0.0287232
-0.0191501
-0.00503979
-0.0588433
-0.0415504
-0.0388137
-0.0381435
-0.0373795
-0.0345201
-0.0285732
-0.018918
-0.00588997
)
;

boundaryField
{
    inlet
    {
        type            zeroGradient;
    }
    outlet
    {
        type            totalPressure;
        rho             none;
        psi             none;
        gamma           1;
        p0              uniform 0;
        value           nonuniform List<scalar> 
15
(
-0.000118774
-0.000633331
-0.00141087
-0.00262208
0
0
0
0
0
0
0
0
0
0
0
)
;
    }
    fixedWalls
    {
        type            zeroGradient;
    }
    frontAndBack
    {
        type            empty;
    }
}


// ************************************************************************* //
