/*--------------------------------*- C++ -*----------------------------------*\
| =========                 |                                                 |
| \\      /  F ield         | OpenFOAM Extend Project: Open source CFD        |
|  \\    /   O peration     | Version:  1.6-ext                               |
|   \\  /    A nd           | Web:      www.extend-project.de                 |
|    \\/     M anipulation  |                                                 |
\*---------------------------------------------------------------------------*/
FoamFile
{
    version     2.0;
    format      ascii;
    class       surfaceScalarField;
    location    "4.6";
    object      phi;
}
// * * * * * * * * * * * * * * * * * * * * * * * * * * * * * * * * * * * * * //

dimensions      [0 3 -1 0 0 0 0];

internalField   nonuniform List<scalar> 
525
(
0.000160824
3.91756e-05
0.00011703
4.37945e-05
8.13621e-05
3.56678e-05
5.41975e-05
2.71646e-05
3.41167e-05
2.00808e-05
1.91233e-05
1.49935e-05
7.92573e-06
1.11975e-05
8.93381e-07
7.03234e-06
8.93381e-07
0.000204945
3.42309e-05
0.000190234
5.85057e-05
0.000162077
6.38246e-05
0.000128389
6.08521e-05
9.3905e-05
5.4565e-05
6.14138e-05
4.74847e-05
3.26346e-05
3.99767e-05
1.01576e-05
2.95094e-05
1.1051e-05
0.000208656
2.55748e-05
0.000208062
5.91001e-05
0.000194044
7.78421e-05
0.000168233
8.66631e-05
0.000134077
8.87211e-05
9.53269e-05
8.62347e-05
5.55509e-05
7.97527e-05
1.98967e-05
6.51636e-05
3.09477e-05
0.000205059
2.0516e-05
0.00020818
5.59786e-05
0.000202611
8.3411e-05
0.000185839
0.000103435
0.000157707
0.000116854
0.000119669
0.000124272
7.46486e-05
0.000124773
2.89987e-05
0.000110813
5.99464e-05
0.000202384
1.81323e-05
0.000205272
5.30903e-05
0.000203731
8.49517e-05
0.000193866
0.000113301
0.000172865
0.000137854
0.000139172
0.000157966
9.29873e-05
0.000170958
3.93695e-05
0.000164431
9.93159e-05
0.000201258
1.68745e-05
0.00020381
5.05385e-05
0.000204721
8.404e-05
0.000200391
0.000117631
0.000186851
0.000151394
0.000160017
0.000184799
0.000116252
0.000214723
5.56875e-05
0.000224996
0.000155003
0.000201181
1.56933e-05
0.000204437
4.72832e-05
0.000208077
8.03997e-05
0.000209386
0.000116322
0.000204562
0.000156218
0.000188535
0.000200826
0.000153008
0.00025025
8.76672e-05
0.000290337
0.000242671
0.000201721
1.39725e-05
0.000206762
4.22418e-05
0.000214103
7.30584e-05
0.000222007
0.000108418
0.000227615
0.000150611
0.000226036
0.000202405
0.000204614
0.000271671
0.000138855
0.000356096
0.000381526
0.000202632
1.13406e-05
0.000210258
3.4616e-05
0.000222121
6.11951e-05
0.000237606
9.2933e-05
0.000256772
0.000131445
0.00028156
0.000177617
0.000318839
0.000234392
0.000383375
0.00029156
0.000361147
0.000403754
0.000203914
7.42697e-06
0.000214622
2.39078e-05
0.000230943
4.48736e-05
0.000252635
7.12413e-05
0.000281067
0.000103013
0.00031969
0.000138994
0.000372258
0.000181825
0.000453565
0.000210253
0.000281434
0.000533278
0.000205979
1.44808e-06
0.00022022
9.66692e-06
0.000240138
2.49557e-05
0.000265176
4.62033e-05
0.000296487
7.17021e-05
0.000336696
9.87848e-05
0.000387943
0.000130578
0.000454223
0.000143973
0.000187666
0.000547991
0.000209412
-7.96351e-06
0.000227327
-8.24883e-06
0.000248883
3.4e-06
0.000273929
2.11573e-05
0.000303778
4.18535e-05
0.000340477
6.20855e-05
0.000386822
8.42327e-05
0.000439097
9.16981e-05
0.000111653
0.00051511
0.000214489
-2.24525e-05
0.000232313
-2.60731e-05
0.000250098
-1.43846e-05
0.000269951
1.30429e-06
0.000294131
1.76737e-05
0.000324439
3.1777e-05
0.000363432
4.52397e-05
0.000405346
4.9784e-05
5.68452e-05
0.000460154
0.000211667
-3.41198e-05
0.000216794
-3.12e-05
0.000220576
-1.81664e-05
0.000228063
-6.18313e-06
0.000242341
3.39579e-06
0.000263924
1.01946e-05
0.000293522
1.56414e-05
0.000326066
1.72398e-05
1.86609e-05
0.00036425
0.00016588
0.00013468
0.000116514
0.000110331
0.000113726
0.000123921
0.000139563
0.000156802
0.000175463
0.000246872
0.000156881
5.82468e-05
0.000188625
0.000509602
0.000180557
9.28538e-05
0.000474995
0.00058376
0.000144788
8.6276e-05
0.000590338
0.000565514
9.43837e-05
5.97773e-05
0.000592013
0.000505884
4.86537e-05
2.934e-05
0.000536321
0.000397952
1.49522e-05
7.12888e-06
0.000420163
0.000190415
0.000197544
0.000192624
6.14926e-06
-1.01475e-05
0.00022253
-1.74414e-05
-1.24647e-05
0.000258821
-3.68276e-05
5.3646e-07
0.000295377
-5.75407e-05
2.09846e-05
0.000327708
-8.11514e-05
4.88209e-05
0.000353841
-0.000107097
8.09637e-05
0.000372161
-0.000130325
0.000112004
0.000382833
-0.000151037
0.000140365
-0.000156748
0.000155125
0.000449971
3.11736e-05
0.000442564
-1.0034e-05
0.000447335
-4.15993e-05
0.000458051
-6.82562e-05
0.000469328
-9.24287e-05
0.000477213
-0.000114981
0.000479334
-0.000132446
0.000474835
-0.000146539
-0.000144748
0.000585277
3.6234e-05
0.000578687
-3.44373e-06
0.000574176
-3.70887e-05
0.000570008
-6.40882e-05
0.000564182
-8.66021e-05
0.000554313
-0.000105112
0.000539461
-0.000117594
0.000518553
-0.000125631
-0.000119636
0.000604199
2.40479e-05
0.000607797
-7.04128e-06
0.000603933
-3.32255e-05
0.000594251
-5.44059e-05
0.000578693
-7.10442e-05
0.000556629
-8.30485e-05
0.000528927
-8.98913e-05
0.000495411
-9.21154e-05
-8.53517e-05
0.000552681
7.68841e-06
0.00055705
-1.141e-05
0.000550922
-2.70975e-05
0.000535522
-3.90061e-05
0.00051182
-4.73428e-05
0.000480796
-5.20237e-05
0.00044451
-5.36053e-05
0.000404548
-5.21542e-05
-4.82114e-05
0.000429621
-1.77008e-06
0.000427001
-8.78925e-06
0.00041381
-1.39064e-05
0.00039185
-1.70465e-05
0.000363016
-1.85083e-05
0.000329535
-1.85428e-05
0.000293816
-1.7887e-05
0.000258412
-1.67497e-05
-1.69155e-05
0.000195774
0.000186985
0.000173079
0.000156032
0.000137524
0.000118981
0.000101094
8.43442e-05
-2.93039e-06
2.93039e-06
-1.08613e-05
7.93091e-06
-2.04491e-05
9.58781e-06
-2.9359e-05
8.90988e-06
-3.58701e-05
6.51117e-06
-3.83851e-05
2.51492e-06
-3.56026e-05
-2.78248e-06
-2.69014e-05
-8.70123e-06
-1.48393e-05
-8.79727e-06
1.17277e-05
-2.52659e-05
2.43995e-05
-4.30362e-05
2.73581e-05
-5.79425e-05
2.38163e-05
-6.71172e-05
1.56858e-05
-6.85159e-05
3.91358e-06
-6.10195e-05
-1.02789e-05
-4.51477e-05
-2.4573e-05
-3.67804e-05
-1.1317e-05
2.30447e-05
-3.06113e-05
4.36938e-05
-5.01746e-05
4.69214e-05
-6.5362e-05
3.90036e-05
-7.33233e-05
2.36471e-05
-7.23432e-05
2.93351e-06
-6.191e-05
-2.07121e-05
-4.28372e-05
-4.36458e-05
-6.08657e-05
-1.10635e-05
3.41081e-05
-2.8499e-05
6.11294e-05
-4.5055e-05
6.34774e-05
-5.66849e-05
5.06335e-05
-6.11445e-05
2.81068e-05
-5.73731e-05
-8.3794e-07
-4.53979e-05
-3.26872e-05
-2.54664e-05
-6.35773e-05
-8.31897e-05
-8.98871e-06
4.30969e-05
-2.01127e-05
7.22533e-05
-2.88432e-05
7.22079e-05
-3.2713e-05
5.45033e-05
-3.05076e-05
2.59014e-05
-2.22126e-05
-9.13289e-06
-8.52635e-06
-4.63735e-05
1.14734e-05
-8.3577e-05
-0.000103979
-5.48065e-06
4.85775e-05
-5.27559e-06
7.20483e-05
-6.76695e-07
6.7609e-05
8.35514e-06
4.54715e-05
2.12159e-05
1.30407e-05
3.71006e-05
-2.50176e-05
5.52921e-05
-6.4565e-05
7.40618e-05
-0.000102347
-0.000125154
3.7741e-06
4.48034e-05
2.095e-05
5.48723e-05
4.48686e-05
4.36904e-05
7.06886e-05
1.96515e-05
9.65485e-05
-1.28193e-05
0.000121556
-5.00255e-05
0.000144352
-8.73604e-05
0.000163986
-0.000121981
-0.000143256
3.46559e-05
7.70635e-05
0.00012129
0.000161926
0.000197928
0.000228866
0.00025351
0.000271894
)
;

boundaryField
{
    inlet
    {
        type            calculated;
        value           uniform -0.0002;
    }
    outlet
    {
        type            calculated;
        value           nonuniform List<scalar> 
15
(
-1.20621e-05
-2.32067e-05
-1.87519e-05
-3.14234e-06
3.2263e-05
9.52361e-05
0.000182089
0.000283763
0.000384456
0.000462835
0.000493442
0.000461126
0.000367408
0.000227116
6.74287e-05
)
;
    }
    fixedWalls
    {
        type            calculated;
        value           uniform 0;
    }
    frontAndBack
    {
        type            empty;
    }
}


// ************************************************************************* //
