/*--------------------------------*- C++ -*----------------------------------*\
| =========                 |                                                 |
| \\      /  F ield         | OpenFOAM Extend Project: Open source CFD        |
|  \\    /   O peration     | Version:  1.6-ext                               |
|   \\  /    A nd           | Web:      www.extend-project.de                 |
|    \\/     M anipulation  |                                                 |
\*---------------------------------------------------------------------------*/
FoamFile
{
    version     2.0;
    format      ascii;
    class       volVectorField;
    location    "4.6";
    object      U;
}
// * * * * * * * * * * * * * * * * * * * * * * * * * * * * * * * * * * * * * //

dimensions      [0 1 -1 0 0 0 0];

internalField   nonuniform List<vector> 
284
(
(0.163781 0.026602 0)
(0.141789 0.0268348 0)
(0.09871 0.0192619 0)
(0.0662237 0.0122049 0)
(0.0430728 0.00724572 0)
(0.0258498 0.00430221 0)
(0.0127775 0.00253496 0)
(0.00282914 0.000888624 0)
(-0.000713743 -0.00120338 0)
(0.200598 0.0434002 0)
(0.202039 0.0577765 0)
(0.179222 0.0536106 0)
(0.146247 0.0444897 0)
(0.111163 0.0351839 0)
(0.0771777 0.0275921 0)
(0.0459347 0.0213742 0)
(0.0184866 0.0142668 0)
(0.00295796 0.00338149 0)
(0.203094 0.0291664 0)
(0.210986 0.0599822 0)
(0.204483 0.0729308 0)
(0.183913 0.0757116 0)
(0.153031 0.0726311 0)
(0.115701 0.0665723 0)
(0.0752231 0.0583846 0)
(0.0343863 0.0451178 0)
(0.0072198 0.0192584 0)
(0.201524 0.0224954 0)
(0.207598 0.0575019 0)
(0.207852 0.0816987 0)
(0.19728 0.096756 0)
(0.174763 0.104369 0)
(0.141238 0.106094 0)
(0.0984585 0.101967 0)
(0.0488121 0.0865364 0)
(0.0116019 0.0438608 0)
(0.200564 0.0190838 0)
(0.20399 0.0543883 0)
(0.205907 0.0847134 0)
(0.201321 0.1096 0)
(0.186625 0.12888 0)
(0.159693 0.142335 0)
(0.119125 0.14813 0)
(0.0642643 0.136468 0)
(0.0173787 0.0778705 0)
(0.200234 0.0174262 0)
(0.202367 0.0517994 0)
(0.20491 0.0849326 0)
(0.20433 0.116563 0)
(0.196592 0.14628 0)
(0.177722 0.173166 0)
(0.143032 0.194078 0)
(0.0863613 0.194399 0)
(0.0276743 0.123901 0)
(0.200218 0.0163002 0)
(0.202437 0.0491029 0)
(0.206373 0.0828259 0)
(0.209787 0.118235 0)
(0.209306 0.155857 0)
(0.20078 0.195522 0)
(0.178042 0.234213 0)
(0.124295 0.253058 0)
(0.048432 0.196386 0)
(0.200345 0.014913 0)
(0.203612 0.0451481 0)
(0.210099 0.0775572 0)
(0.218438 0.113862 0)
(0.22628 0.155961 0)
(0.230621 0.206054 0)
(0.223777 0.26996 0)
(0.197606 0.339094 0)
(0.0603336 0.286223 0)
(0.200547 0.0127934 0)
(0.205485 0.0389646 0)
(0.215427 0.0680932 0)
(0.229645 0.102193 0)
(0.247278 0.143463 0)
(0.271145 0.194248 0)
(0.298965 0.26103 0)
(0.357285 0.344946 0)
(0.398117 0.428488 0)
(0.20084 0.0096122 0)
(0.207963 0.0299421 0)
(0.221673 0.0540359 0)
(0.241089 0.0833664 0)
(0.265798 0.118954 0)
(0.300276 0.160952 0)
(0.342298 0.212528 0)
(0.410254 0.255398 0)
(0.491289 0.337761 0)
(0.201383 0.004977 0)
(0.211554 0.0176374 0)
(0.228973 0.0357601 0)
(0.251787 0.0594268 0)
(0.279602 0.0879591 0)
(0.315435 0.119285 0)
(0.360039 0.156402 0)
(0.417514 0.17276 0)
(0.497897 0.228208 0)
(0.20245 -0.00238282 0)
(0.216918 0.00141391 0)
(0.237166 0.0142171 0)
(0.260649 0.0331962 0)
(0.287881 0.0559128 0)
(0.320637 0.079096 0)
(0.362274 0.105576 0)
(0.409883 0.114189 0)
(0.473829 0.141778 0)
(0.204207 -0.0136813 0)
(0.222723 -0.0174769 0)
(0.240922 -0.00720104 0)
(0.259373 0.00915896 0)
(0.281103 0.0274663 0)
(0.307709 0.0445855 0)
(0.342821 0.0621366 0)
(0.382408 0.0682235 0)
(0.430785 0.0790743 0)
(0.201749 -0.0351371 0)
(0.215147 -0.0365594 0)
(0.218725 -0.0224743 0)
(0.223181 -0.00685978 0)
(0.233828 0.00695451 0)
(0.251467 0.017803 0)
(0.277651 0.0269247 0)
(0.308499 0.0298856 0)
(0.34439 0.0326732 0)
(0.164654 -0.0248759 0)
(0.151326 -0.0222498 0)
(0.124362 -0.0125529 0)
(0.111327 -0.00483677 0)
(0.110554 0.000432555 0)
(0.117716 0.00373735 0)
(0.131113 0.00587752 0)
(0.147683 0.00617471 0)
(0.16615 0.00608018 0)
(0.353196 0.166606 0)
(0.183278 0.0443535 0)
(0.543238 0.178282 0)
(0.496551 0.0827559 0)
(0.575684 0.167734 0)
(0.596075 0.100805 0)
(0.543546 0.118318 0)
(0.584848 0.0758394 0)
(0.484044 0.0678799 0)
(0.524511 0.0428043 0)
(0.381918 0.026726 0)
(0.41143 0.013869 0)
(0.183739 0.00374824 0)
(0.195426 -0.000151282 0)
(0.18403 -0.00568357 0)
(0.203198 -0.0146181 0)
(0.238732 -0.0267738 0)
(0.276808 -0.0453911 0)
(0.311841 -0.0696834 0)
(0.343016 -0.0977832 0)
(0.364145 -0.124292 0)
(0.382039 -0.148526 0)
(0.384764 -0.15887 0)
(0.461877 0.019857 0)
(0.443192 -0.0177897 0)
(0.441944 -0.0448766 0)
(0.45154 -0.0685995 0)
(0.463324 -0.0918712 0)
(0.475721 -0.115462 0)
(0.478313 -0.135212 0)
(0.483148 -0.152428 0)
(0.464444 -0.154148 0)
(0.592272 0.0433586 0)
(0.582992 -0.00145612 0)
(0.575951 -0.0365154 0)
(0.572297 -0.0654664 0)
(0.56726 -0.0902682 0)
(0.562089 -0.111787 0)
(0.546176 -0.127298 0)
(0.536177 -0.138878 0)
(0.496283 -0.134877 0)
(0.602865 0.0328618 0)
(0.608576 -0.00410825 0)
(0.607366 -0.0344704 0)
(0.601011 -0.0594726 0)
(0.587865 -0.079935 0)
(0.570822 -0.0958563 0)
(0.542194 -0.105916 0)
(0.519257 -0.111173 0)
(0.465114 -0.104202 0)
(0.548156 0.0150349 0)
(0.558 -0.00991129 0)
(0.556617 -0.0310539 0)
(0.545852 -0.0480288 0)
(0.525754 -0.0608743 0)
(0.499048 -0.0692361 0)
(0.462506 -0.0731948 0)
(0.42978 -0.0727577 0)
(0.372106 -0.0665258 0)
(0.427773 -0.000363769 0)
(0.431163 -0.0127666 0)
(0.422971 -0.0223274 0)
(0.405111 -0.028816 0)
(0.379144 -0.0324775 0)
(0.34775 -0.0334696 0)
(0.31157 -0.0327259 0)
(0.278553 -0.0304621 0)
(0.231671 -0.0290428 0)
(0.198219 -0.00369806 0)
(0.192769 -0.00615382 0)
(0.181083 -0.00738156 0)
(0.165273 -0.0075531 0)
(0.147146 -0.00701506 0)
(0.128393 -0.00610049 0)
(0.109909 -0.00536232 0)
(0.0935565 -0.00501456 0)
(0.0706386 -0.00606188 0)
(-0.000568065 0.000425709 0)
(-0.00584598 0.00248738 0)
(-0.0156638 0.00339903 0)
(-0.0253852 0.00346462 0)
(-0.0333936 0.00287648 0)
(-0.0379938 0.00156009 0)
(-0.037966 -0.000467409 0)
(-0.0350623 -0.0030509 0)
(-0.0141448 -0.0061939 0)
(-0.00301667 0.00605241 0)
(-0.0154989 0.01436 0)
(-0.0345182 0.0168647 0)
(-0.0518273 0.0153381 0)
(-0.0643521 0.0108508 0)
(-0.0695747 0.00376289 0)
(-0.0664697 -0.00528422 0)
(-0.058279 -0.0149906 0)
(-0.0260153 -0.0243352 0)
(-0.0041967 0.017211 0)
(-0.0194809 0.0339012 0)
(-0.0411452 0.0371946 0)
(-0.059611 0.0316821 0)
(-0.0716201 0.0200982 0)
(-0.0748516 0.00394347 0)
(-0.0687554 -0.0150673 0)
(-0.0581159 -0.0337472 0)
(-0.0213702 -0.0486417 0)
(-0.0043338 0.0288772 0)
(-0.0187184 0.0531942 0)
(-0.0378062 0.0562061 0)
(-0.0528657 0.0458316 0)
(-0.061225 0.0267479 0)
(-0.0611959 0.00177099 0)
(-0.0524552 -0.0266483 0)
(-0.0413441 -0.0538736 0)
(-0.00430537 -0.072247 0)
(-0.00401508 0.0391418 0)
(-0.0144406 0.068357 0)
(-0.0257245 0.0699424 0)
(-0.0326299 0.0545837 0)
(-0.0335929 0.0286856 0)
(-0.0279891 -0.00371378 0)
(-0.0156067 -0.0393343 0)
(-0.00287631 -0.0740734 0)
(0.0291667 -0.0940785 0)
(-0.00343036 0.0466451 0)
(-0.00684176 0.0750939 0)
(-0.00412647 0.0734773 0)
(0.0025929 0.0533238 0)
(0.0135176 0.0221913 0)
(0.0283217 -0.0152501 0)
(0.0459573 -0.0548074 0)
(0.0628029 -0.093367 0)
(0.0914209 -0.11558 0)
(0.000427716 0.0540934 0)
(0.00833371 0.0701778 0)
(0.0319348 0.0612994 0)
(0.0569225 0.0371192 0)
(0.0830176 0.00346236 0)
(0.109191 -0.035486 0)
(0.133543 -0.0751289 0)
(0.154722 -0.112372 0)
(0.179081 -0.135488 0)
(0.0263649 0.0278086 0)
(0.0496462 0.0371353 0)
(0.0988763 0.0252499 0)
(0.141724 0.00166408 0)
(0.180187 -0.0295721 0)
(0.214758 -0.0651666 0)
(0.242511 -0.100057 0)
(0.265388 -0.132077 0)
(0.282396 -0.151003 0)
)
;

boundaryField
{
    inlet
    {
        type            fixedValue;
        value           uniform (0.2 0 0);
    }
    outlet
    {
        type            zeroGradient;
    }
    fixedWalls
    {
        type            fixedValue;
        value           uniform (0 0 0);
    }
    frontAndBack
    {
        type            empty;
    }
}


// ************************************************************************* //
