/*--------------------------------*- C++ -*----------------------------------*\
| =========                 |                                                 |
| \\      /  F ield         | OpenFOAM Extend Project: Open source CFD        |
|  \\    /   O peration     | Version:  1.6-ext                               |
|   \\  /    A nd           | Web:      www.extend-project.de                 |
|    \\/     M anipulation  |                                                 |
\*---------------------------------------------------------------------------*/
FoamFile
{
    version     2.0;
    format      ascii;
    class       surfaceScalarField;
    location    "5";
    object      phi;
}
// * * * * * * * * * * * * * * * * * * * * * * * * * * * * * * * * * * * * * //

dimensions      [0 3 -1 0 0 0 0];

internalField   nonuniform List<scalar> 
123
(
0.000202632
1.13243e-05
0.000210258
3.45941e-05
0.000222116
6.1235e-05
0.00023758
9.30988e-05
0.000256695
0.000131746
0.000281388
0.00017799
0.000318476
0.000234719
0.000382598
0.000291798
0.000360919
0.000402576
0.000203912
7.41199e-06
0.000214616
2.389e-05
0.000230931
4.49205e-05
0.000252606
7.14237e-05
0.000280996
0.000103356
0.000319533
0.000139453
0.000371953
0.000182298
0.000452957
0.000210794
0.000281678
0.000532199
0.000205976
1.43601e-06
0.000220209
9.65716e-06
0.00024012
2.50094e-05
0.000265154
4.63898e-05
0.000296454
7.20551e-05
0.00033663
9.92773e-05
0.000387801
0.000131127
0.000453971
0.000144624
0.000188225
0.000547425
0.000209407
-7.9712e-06
0.000227314
-8.2498e-06
0.000248868
3.45513e-06
0.000273931
2.13274e-05
0.000303817
4.21692e-05
0.000340561
6.25327e-05
0.000386932
8.47572e-05
0.000439251
9.23041e-05
0.000112263
0.000515213
0.000214485
-2.24566e-05
0.000232306
-2.60701e-05
0.000250103
-1.43422e-05
0.000270002
1.42818e-06
0.000294277
1.78948e-05
0.000324717
3.20921e-05
0.000363855
4.56197e-05
0.000405943
5.02156e-05
5.72998e-05
0.000460906
0.000211666
-3.41223e-05
0.000216795
-3.11994e-05
0.000220602
-1.81493e-05
0.000228164
-6.13333e-06
0.000242573
3.48505e-06
0.000264341
1.03248e-05
0.000294158
1.58022e-05
0.000326951
1.74231e-05
1.88571e-05
0.000365394
0.000165878
0.000134678
0.000116529
0.000110396
0.000113881
0.000124205
0.000140008
0.000157431
0.000176288
0.000156917
0.000181015
0.000145515
9.51165e-05
4.91877e-05
1.51759e-05
)
;

boundaryField
{
    inlet
    {
        type            calculated;
        value           nonuniform List<scalar> 7(-0.0002 -0.0002 -0.0002 -0.0002 -0.0002 -0.0002 -0.0002);
    }
    outlet
    {
        type            calculated;
        value           nonuniform 0();
    }
    fixedWalls
    {
        type            calculated;
        value           uniform 0;
    }
    frontAndBack
    {
        type            empty;
    }
    procBoundary2to3
    {
        type            processor;
        value           nonuniform List<scalar> 9(-1.39566e-05 -4.22198e-05 -7.30929e-05 -0.000108563 -0.00015086 -0.000202683 -0.000271806 -0.00035592 -0.000380898);
    }
    procBoundary2to1
    {
        type            processor;
        value           nonuniform List<scalar> 7(0.00024566 0.0005081 0.000582925 0.000565612 0.000506835 0.000399405 0.000191464);
    }
}


// ************************************************************************* //
