/*--------------------------------*- C++ -*----------------------------------*\
| =========                 |                                                 |
| \\      /  F ield         | OpenFOAM Extend Project: Open source CFD        |
|  \\    /   O peration     | Version:  1.6-ext                               |
|   \\  /    A nd           | Web:      www.extend-project.de                 |
|    \\/     M anipulation  |                                                 |
\*---------------------------------------------------------------------------*/
FoamFile
{
    version     2.0;
    format      ascii;
    class       surfaceScalarField;
    location    "1.1";
    object      phi;
}
// * * * * * * * * * * * * * * * * * * * * * * * * * * * * * * * * * * * * * //

dimensions      [0 3 -1 0 0 0 0];

internalField   nonuniform List<scalar> 
123
(
0.000203063
9.83848e-06
0.000211643
4.07066e-05
0.000223532
7.79098e-05
0.00023696
0.000113356
0.000252213
0.000145958
0.000272473
0.000179811
0.000308208
0.000222103
0.000379701
0.000263025
0.00033128
0.000416012
0.000204263
5.57526e-06
0.000216266
2.87042e-05
0.000233742
6.0433e-05
0.000255051
9.2047e-05
0.000281053
0.000119956
0.000315232
0.000145631
0.000363282
0.000174053
0.000442702
0.000183606
0.000243807
0.000530175
0.000206095
-5.19711e-07
0.000221362
1.34375e-05
0.000242865
3.893e-05
0.000268761
6.61506e-05
0.000299226
8.94914e-05
0.000336379
0.000108478
0.000383257
0.000127175
0.000442569
0.000124293
0.000153679
0.000532697
0.000209154
-9.67396e-06
0.000227533
-4.94112e-06
0.000250934
1.55288e-05
0.00027809
3.89944e-05
0.000309057
5.85244e-05
0.000344997
7.25386e-05
0.000388123
8.40486e-05
0.000433205
7.92114e-05
8.78945e-05
0.00049899
0.000213816
-2.34902e-05
0.000232304
-2.34287e-05
0.000253253
-5.42017e-06
0.000277511
1.47367e-05
0.000305826
3.02089e-05
0.000338366
3.99987e-05
0.000376127
4.62877e-05
0.000412317
4.3021e-05
4.30345e-05
0.000457177
0.000211188
-3.46786e-05
0.000217749
-2.99892e-05
0.000226475
-1.41464e-05
0.000241406
-1.93704e-07
0.000263013
8.60126e-06
0.000289447
1.35649e-05
0.000319712
1.60225e-05
0.00034823
1.45034e-05
1.32043e-05
0.00037806
0.000165321
0.000135332
0.000121186
0.000120992
0.000129593
0.000143158
0.000159181
0.000173684
0.000186888
0.000132446
0.000137333
0.000102085
6.2008e-05
2.87823e-05
7.30165e-06
)
;

boundaryField
{
    inlet
    {
        type            calculated;
        value           nonuniform List<scalar> 7(-0.0002 -0.0002 -0.0002 -0.0002 -0.0002 -0.0002 -0.0002);
    }
    outlet
    {
        type            calculated;
        value           nonuniform 0();
    }
    fixedWalls
    {
        type            calculated;
        value           uniform 0;
    }
    frontAndBack
    {
        type            empty;
    }
    procBoundary2to3
    {
        type            processor;
        value           nonuniform List<scalar> 9(-1.29017e-05 -4.92863e-05 -8.97992e-05 -0.000126783 -0.000161211 -0.00020007 -0.000257838 -0.000334518 -0.000367592);
    }
    procBoundary2to1
    {
        type            processor;
        value           nonuniform List<scalar> 7(0.000283566 0.000525289 0.000567945 0.000539067 0.000490403 0.000399541 0.00019419);
    }
}


// ************************************************************************* //
