/*--------------------------------*- C++ -*----------------------------------*\
| =========                 |                                                 |
| \\      /  F ield         | OpenFOAM Extend Project: Open source CFD        |
|  \\    /   O peration     | Version:  1.6-ext                               |
|   \\  /    A nd           | Web:      www.extend-project.de                 |
|    \\/     M anipulation  |                                                 |
\*---------------------------------------------------------------------------*/
FoamFile
{
    version     2.0;
    format      ascii;
    class       volSymmTensorField;
    location    "0.65";
    object      DSigma;
}
// * * * * * * * * * * * * * * * * * * * * * * * * * * * * * * * * * * * * * //

dimensions      [1 -1 -2 0 0 0 0];

internalField   nonuniform List<symmTensor> 
328
(
(-0.119049 -0.0241773 1.36504e-24 -0.042234 -1.50597e-20 -0.0645133)
(-0.103768 -0.0126354 -3.66013e-26 -0.0583047 -5.53882e-26 -0.0648289)
(-0.105774 0.00850367 -2.02789e-24 -0.0592868 9.18976e-25 -0.0660244)
(-0.123721 0.0230223 3.38619e-23 -0.0438875 -3.36786e-20 -0.0670436)
(-0.110416 -0.0170218 1.84866e-24 -0.0251826 -1.99415e-20 -0.0542396)
(-0.103975 -0.0107813 0 -0.0407225 0 -0.0578791)
(-0.106004 0.00683789 1.13674e-23 -0.0411915 -5.21013e-24 -0.0588784)
(-0.115576 0.0156998 -5.55863e-23 -0.0263611 3.88764e-20 -0.0567749)
(-0.107769 -0.0110428 2.74176e-26 -0.0150652 -2.60823e-22 -0.0491339)
(-0.109589 -0.00873496 -6.60319e-25 -0.0305406 -5.58459e-26 -0.0560519)
(-0.111822 0.00491569 1.98503e-23 -0.0307501 -5.85582e-24 -0.0570288)
(-0.113747 0.00960567 2.12677e-23 -0.0160821 -1.27224e-22 -0.0519315)
(-0.10462 -0.00672115 2.32351e-24 -0.00801926 -1.83308e-20 -0.0450555)
(-0.111009 -0.00660084 0 -0.0210706 0 -0.0528319)
(-0.113342 0.00285976 -2.536e-23 -0.0210453 8.44574e-24 -0.0537551)
(-0.111361 0.00521973 -2.65125e-24 -0.00897158 -1.75821e-20 -0.048133)
(-0.103087 -0.00383908 5.33889e-24 -0.00387597 2.09027e-22 -0.042785)
(-0.112671 -0.00473746 -1.04758e-23 -0.0146335 -4.17075e-24 -0.0509218)
(-0.115147 0.0010395 5.3005e-23 -0.0144523 -1.09194e-23 -0.0518397)
(-0.110682 0.00230864 -1.03964e-23 -0.0048684 1.70813e-20 -0.0462203)
(-0.102021 -0.00199218 1.21708e-22 -0.00137127 3.18095e-20 -0.041357)
(-0.113012 -0.00324806 1.13173e-22 -0.00964713 3.1931e-23 -0.0490636)
(-0.115628 -0.000422094 -5.77956e-23 -0.00933289 1.34039e-23 -0.0499845)
(-0.110509 0.000454124 1.35495e-22 -0.00245133 -8.99785e-22 -0.045184)
(-0.101548 -0.000893051 -1.0643e-22 -2.14863e-05 -2.89223e-20 -0.0406279)
(-0.113022 -0.00218551 -2.23021e-22 -0.00624913 -6.76889e-23 -0.0477085)
(-0.115807 -0.00146394 1.2062e-22 -0.00582619 -2.30128e-23 -0.0486535)
(-0.110986 -0.00064071 -2.70377e-22 -0.00122169 1.52774e-20 -0.0448833)
(-0.101349 -0.000298899 -1.09571e-25 0.000655192 4.05284e-22 -0.0402773)
(-0.112558 -0.00150456 2.73757e-22 -0.00390625 6.7358e-23 -0.0465859)
(-0.115534 -0.00212379 -2.98905e-22 -0.00338403 4.80411e-23 -0.0475674)
(-0.11179 -0.00122435 1.55033e-22 -0.00068145 -2.32036e-23 -0.0449887)
(-0.101318 -3.88632e-05 -3.45008e-24 0.000921202 1.10312e-20 -0.0401586)
(-0.111915 -0.00113705 -1.79104e-22 -0.00243405 -3.35938e-23 -0.0457395)
(-0.115109 -0.00246569 2.23295e-22 -0.00181937 -2.97505e-23 -0.0467713)
(-0.112821 -0.00147038 -3.51235e-22 -0.000561928 -2.66434e-20 -0.045353)
(-0.101317 1.69436e-05 -3.55764e-22 0.000968034 -2.16353e-20 -0.0401397)
(-0.111149 -0.000995321 4.29296e-23 -0.00156259 1.45472e-24 -0.0450845)
(-0.114587 -0.00257424 1.59946e-24 -0.000857903 -1.23159e-23 -0.0461781)
(-0.113939 -0.00150983 2.41956e-22 -0.000667628 1.23902e-20 -0.0458427)
(-0.101269 -4.09767e-05 7.6538e-22 0.000908612 2.00989e-20 -0.0401442)
(-0.11037 -0.000998821 3.4893e-22 -0.00111871 4.28135e-23 -0.0445955)
(-0.114079 -0.00252805 0 -0.000324925 0 -0.0457616)
(-0.115069 -0.00143331 -1.26129e-25 -0.000884111 3.13641e-22 -0.0463813)
(-0.101115 -0.000149553 -4.64134e-22 0.000814902 8.48188e-21 -0.0401199)
(-0.109621 -0.00107895 1.51154e-22 -0.000946982 1.99528e-23 -0.0442272)
(-0.113625 -0.00239446 4.34515e-22 -6.35265e-05 -3.60028e-23 -0.0454754)
(-0.116152 -0.00130366 -4.38738e-24 -0.00113878 9.78082e-21 -0.0469162)
(-0.100826 -0.000268574 -9.75181e-23 0.000726999 -7.4938e-21 -0.0400395)
(-0.108934 -0.00118524 -3.92879e-22 -0.000939029 -4.56132e-23 -0.0439492)
(-0.113256 -0.00222317 -2.95055e-22 3.54612e-05 1.4773e-23 -0.0452881)
(-0.117158 -0.00116067 -2.18719e-22 -0.00139139 -8.40739e-21 -0.0474197)
(-0.100392 -0.000374536 1.08939e-22 0.000665588 4.74332e-23 -0.0398907)
(-0.108314 -0.00128442 -2.21385e-22 -0.00101554 -1.78618e-23 -0.0437318)
(-0.112974 -0.0020472 5.97252e-22 5.19268e-05 -3.81722e-23 -0.045169)
(-0.118076 -0.00102753 -4.53813e-24 -0.00162124 8.2802e-21 -0.0478787)
(-0.0998195 -0.000456367 -1.85422e-25 0.000638066 3.07395e-22 -0.0396726)
(-0.107755 -0.00135831 4.8924e-22 -0.00112634 2.57723e-23 -0.0435523)
(-0.112772 -0.00188479 -9.59344e-22 3.63603e-05 7.7283e-23 -0.0450944)
(-0.118906 -0.000915052 8.91047e-24 -0.0018209 -1.48315e-20 -0.0482909)
(-0.0991194 -0.000511247 2.36858e-22 0.000643986 -3.01492e-23 -0.0393902)
(-0.10724 -0.00139998 -9.38721e-22 -0.00124183 -4.33616e-23 -0.0433927)
(-0.112632 -0.00174327 7.18726e-22 1.84953e-05 -4.41181e-23 -0.0450453)
(-0.119658 -0.000825965 -8.31924e-22 -0.00199068 -7.72109e-22 -0.0486596)
(-0.0983079 -0.000541321 -2.32533e-22 0.000678615 -4.98356e-21 -0.0390517)
(-0.106751 -0.00140988 0 -0.00134785 0 -0.0432394)
(-0.112531 -0.00162274 0 1.24197e-05 0 -0.0450072)
(-0.120342 -0.00075811 1.01025e-21 -0.00213514 1.51964e-20 -0.0489909)
(-0.0974004 -0.000551045 3.29084e-24 0.000735583 -4.26616e-21 -0.0386659)
(-0.106267 -0.00139237 0 -0.00143978 0 -0.0430826)
(-0.112446 -0.00151937 0 2.25485e-05 0 -0.0449695)
(-0.120966 -0.000707053 1.46605e-25 -0.00226024 -1.90715e-22 -0.0492907)
(-0.0964099 -0.000545383 -1.09021e-21 0.000808548 7.10374e-21 -0.0382405)
(-0.10577 -0.00135315 -5.93917e-22 -0.00151826 5.23575e-23 -0.0429152)
(-0.112358 -0.00142785 0 4.78163e-05 0 -0.0449241)
(-0.121537 -0.000667817 1.22838e-21 -0.00237182 -1.56065e-20 -0.0495634)
(-0.0953457 -0.000528679 -5.38962e-23 0.000892101 6.36452e-21 -0.0377814)
(-0.105244 -0.00129743 2.12689e-21 -0.0015862 -9.81024e-23 -0.042732)
(-0.112247 -0.00134286 -1.14093e-21 8.4725e-05 1.51014e-22 -0.044865)
(-0.122053 -0.000635904 -5.62108e-22 -0.00247469 1.36927e-20 -0.0498112)
(-0.0942145 -0.000504194 1.04987e-21 0.000982009 -5.61589e-22 -0.037293)
(-0.104676 -0.00122932 -5.63868e-23 -0.00164641 8.22529e-23 -0.0425288)
(-0.112096 -0.00126 2.36729e-21 0.000129762 -3.30582e-22 -0.0447866)
(-0.12251 -0.000607813 1.30088e-21 -0.00257169 -1.68671e-20 -0.0500326)
(-0.0930187 -0.000473789 -1.02924e-21 0.00107532 1.56172e-22 -0.0367773)
(-0.104054 -0.00115082 0 -0.00170172 0 -0.0423022)
(-0.111891 -0.00117519 8.50134e-23 0.000178544 -6.661e-23 -0.044685)
(-0.1229 -0.000580577 -1.14671e-21 -0.00266621 7.05575e-21 -0.0502264)
(-0.0917185 -0.000435082 -3.87233e-25 0.0011713 3.61344e-22 -0.0362189)
(-0.103341 -0.00105637 -2.24191e-21 -0.0017547 3.86959e-22 -0.0420382)
(-0.111601 -0.00107908 1.11144e-21 0.000233505 -1.94994e-22 -0.0445472)
(-0.123207 -0.000549979 1.26045e-21 -0.0027566 1.6931e-21 -0.0503853)
(-0.0903599 -0.000396756 7.84133e-23 0.00126345 -7.38002e-21 -0.0356386)
(-0.102551 -0.000964502 1.20169e-21 -0.00180553 -2.56993e-22 -0.0417428)
(-0.111222 -0.00098815 -1.21601e-21 0.000286647 2.58037e-22 -0.044374)
(-0.123399 -0.000523077 1.01832e-22 -0.00284342 -7.39719e-21 -0.0504969)
(-0.0890292 -0.000357388 1.31464e-21 0.00134739 3.37762e-21 -0.0350727)
(-0.101731 -0.000871834 -2.47731e-21 -0.00184942 5.33716e-22 -0.0414322)
(-0.110766 -0.000897537 4.21684e-21 0.000334903 -1.21486e-21 -0.0441726)
(-0.123454 -0.000496163 -2.81106e-21 -0.00292118 8.501e-21 -0.0505501)
(-0.0877294 -0.000317081 4.4093e-26 0.00142108 -3.56468e-23 -0.0345233)
(-0.100881 -0.000778504 0 -0.00188806 0 -0.0411075)
(-0.110237 -0.000806658 1.63162e-21 0.000377466 -5.85642e-22 -0.0439438)
(-0.123373 -0.000468696 -6.44227e-21 -0.00298919 -3.50051e-21 -0.050545)
(-0.0864597 -0.000276331 2.85079e-21 0.0014841 -4.1676e-21 -0.0339903)
(-0.0999993 -0.000685366 -2.84665e-21 -0.00192173 8.93735e-22 -0.0407684)
(-0.109633 -0.000716133 -6.30311e-21 0.000414421 2.15666e-21 -0.0436875)
(-0.123157 -0.000441035 3.03316e-21 -0.00304746 2.38291e-21 -0.0504817)
(-0.0852197 -0.000235656 5.79261e-21 0.00153628 3.19097e-21 -0.0334734)
(-0.0990869 -0.000593458 -3.23765e-21 -0.00195085 1.28364e-21 -0.0404151)
(-0.108955 -0.000626871 0 0.000445553 0 -0.0434039)
(-0.122805 -0.000413518 -4.95383e-24 -0.00309617 3.76416e-21 -0.0503606)
(-0.0840075 -0.000195534 -2.99266e-21 0.00157757 -3.01392e-21 -0.032972)
(-0.0981433 -0.000503851 3.23765e-21 -0.00197582 -1.28364e-21 -0.0400476)
(-0.108204 -0.000539899 0 0.000470713 0 -0.0430934)
(-0.122322 -0.000386556 -3.94931e-21 -0.0031359 -2.64007e-21 -0.050183)
(-0.0828204 -0.00015643 -2.2332e-22 0.00160808 3.8649e-21 -0.0324849)
(-0.0971679 -0.000417544 -3.65883e-21 -0.0019971 1.72723e-21 -0.039666)
(-0.107381 -0.000456171 -2.41897e-22 0.000489771 2.06976e-22 -0.0427566)
(-0.121709 -0.000360489 4.18603e-21 -0.00316732 -3.27052e-21 -0.0499504)
(-0.0816552 -0.000118757 3.32881e-21 0.00162801 -8.17017e-22 -0.0320109)
(-0.0961602 -0.000335402 -3.85769e-21 -0.00201522 2.01026e-21 -0.0392702)
(-0.106487 -0.000376511 3.60478e-21 0.000502606 -1.79477e-21 -0.0423939)
(-0.120971 -0.000335605 -3.56352e-23 -0.00319128 3.47901e-21 -0.0496648)
(-0.080508 -8.28709e-05 4.55535e-24 0.00163763 -3.18492e-21 -0.0315481)
(-0.0951196 -0.000258114 0 -0.00203079 0 -0.0388602)
(-0.105524 -0.000301558 4.37429e-21 0.000509131 -2.45559e-21 -0.0420061)
(-0.120113 -0.000312102 -4.37281e-21 -0.00320876 1.38819e-21 -0.0493285)
(-0.0793742 -4.90577e-05 -3.49569e-24 0.0016373 2.41578e-21 -0.0310948)
(-0.0940453 -0.000186175 -8.41785e-21 -0.00204439 5.41222e-21 -0.0384359)
(-0.104494 -0.000231758 4.24969e-21 0.000509294 -2.64887e-21 -0.0415939)
(-0.11914 -0.000290091 2.52689e-24 -0.00322078 -1.75246e-21 -0.0489442)
(-0.0782496 -1.75354e-05 7.66614e-21 0.00162745 -2.01731e-21 -0.0306488)
(-0.0929368 -0.000119888 -1.79915e-22 -0.00205662 3.68692e-22 -0.0379973)
(-0.103399 -0.000167356 -4.72786e-21 0.000503096 3.25729e-21 -0.0411582)
(-0.118058 -0.000269594 -2.0707e-24 -0.00322835 1.4235e-21 -0.0485147)
(-0.0771293 1.15459e-05 -3.96827e-21 0.00160854 3.90277e-21 -0.0302083)
(-0.0917932 -5.93726e-05 4.34808e-21 -0.00206805 -3.13207e-21 -0.0375445)
(-0.10224 -0.000108413 4.63282e-21 0.000490595 -3.38755e-21 -0.0406997)
(-0.116874 -0.000250556 -3.88296e-22 -0.00323247 -1.21496e-21 -0.0480427)
(-0.0760091 3.80998e-05 -2.88991e-22 0.00158113 3.43787e-21 -0.0297712)
(-0.0906142 -4.58254e-06 4.70119e-21 -0.00207916 -3.94232e-21 -0.0370773)
(-0.10102 -5.48225e-05 3.07261e-22 0.000471927 -2.72417e-22 -0.0402194)
(-0.115594 -0.000232851 3.15328e-22 -0.00323405 1.44294e-21 -0.0475311)
(-0.0748847 6.21002e-05 4.2739e-21 0.0015458 -4.89139e-21 -0.0293356)
(-0.0893993 4.46754e-05 -4.70119e-21 -0.00209034 3.94232e-21 -0.0365959)
(-0.0997422 -6.33418e-06 -5.3251e-21 0.000447314 4.50386e-21 -0.039718)
(-0.114223 -0.000216301 -1.13225e-20 -0.00323385 4.37252e-21 -0.0469828)
(-0.0737522 8.35761e-05 -1.88503e-25 0.00150322 1.27653e-22 -0.0288996)
(-0.0881483 8.8717e-05 0 -0.00210187 0 -0.0361001)
(-0.0984078 3.74193e-05 5.32509e-21 0.000417078 -4.50386e-21 -0.0391963)
(-0.112768 -0.000200689 5.76928e-21 -0.0032325 -9.97634e-22 -0.0464002)
(-0.0726084 0.000102607 4.70816e-21 0.00145411 -1.47466e-21 -0.0284617)
(-0.0868611 0.000127957 5.21297e-21 -0.00211386 -5.33758e-21 -0.03559)
(-0.0970194 7.68949e-05 5.71036e-21 0.000381646 -5.45416e-21 -0.0386551)
(-0.111235 -0.000185772 1.29091e-24 -0.00323041 -8.79552e-22 -0.045786)
(-0.0714502 0.000119317 -4.70657e-21 0.00139926 3.72703e-22 -0.0280204)
(-0.0855378 0.000162883 1.65537e-22 -0.00212631 -5.1212e-22 -0.0350656)
(-0.0955791 0.000112612 -1.16091e-20 0.000341561 1.14185e-20 -0.038095)
(-0.109628 -0.000171305 1.298e-20 -0.00322781 -8.83448e-21 -0.0451422)
(-0.0702755 0.00013387 -3.40603e-22 0.00133953 2.43796e-21 -0.0275744)
(-0.0841787 0.000194033 -1.09199e-20 -0.00213901 1.22346e-20 -0.0345271)
(-0.0940893 0.000145123 5.89878e-21 0.000297479 -5.96437e-21 -0.0375167)
(-0.107952 -0.000157049 -6.41405e-21 -0.0032247 3.61831e-21 -0.0444708)
(-0.0690824 0.000146466 2.11615e-22 0.00127584 -9.85196e-22 -0.0271226)
(-0.0827842 0.000221971 -3.57826e-22 -0.00215162 3.29143e-22 -0.0339743)
(-0.0925519 0.00017499 5.8992e-21 0.000250168 -6.71399e-21 -0.0369207)
(-0.106213 -0.000142791 -6.82346e-21 -0.00322085 2.40831e-21 -0.0437734)
(-0.0678697 0.000157332 -3.59127e-22 0.00120914 1.40024e-21 -0.0266642)
(-0.0813549 0.000247265 0 -0.00216361 0 -0.0334074)
(-0.0909687 0.00020276 1.98513e-22 0.000200498 2.31205e-22 -0.0363073)
(-0.104413 -0.000128353 7.20893e-21 -0.00321583 -1.62764e-21 -0.0430514)
(-0.0666366 0.000166721 -1.34159e-22 0.00114047 1.50296e-21 -0.0261985)
(-0.0798916 0.000270471 0 -0.00217434 0 -0.0328264)
(-0.0893417 0.000228944 6.44597e-21 0.000149425 -7.63147e-21 -0.0356769)
(-0.102556 -0.000113606 1.98575e-22 -0.00320901 -1.31343e-21 -0.0423059)
(-0.0653829 0.000174904 1.63169e-20 0.00107084 -9.96353e-21 -0.0257248)
(-0.0783949 0.000292112 -5.77912e-21 -0.00218303 8.38716e-21 -0.0322312)
(-0.0876724 0.000254002 1.38129e-20 9.7975e-05 -1.74509e-20 -0.0350298)
(-0.100644 -9.84733e-05 -1.42352e-20 -0.00319961 8.45554e-21 -0.0415375)
(-0.0641085 0.000182164 7.69016e-26 0.00100132 -5.54134e-23 -0.0252429)
(-0.0768659 0.000312671 0 -0.00218883 0 -0.0316219)
(-0.0859622 0.00027833 -1.37589e-20 4.72109e-05 1.83487e-20 -0.034366)
(-0.0986808 -8.29397e-05 1.22631e-24 -0.0031867 -8.87215e-22 -0.040747)
(-0.0628139 0.000188796 5.38331e-21 0.000932913 -4.27199e-21 -0.0247524)
(-0.0753053 0.000332576 -6.71756e-21 -0.00219079 9.77176e-21 -0.0309984)
(-0.0842125 0.00030225 6.30416e-21 -1.79208e-06 -9.38676e-21 -0.0336857)
(-0.096667 -6.70484e-05 7.36947e-21 -0.00316928 -4.068e-21 -0.0399345)
(-0.0614997 0.000195095 -9.88601e-25 0.000866617 7.32452e-22 -0.0242532)
(-0.073714 0.000352199 6.87163e-21 -0.00218799 -1.04465e-20 -0.0303608)
(-0.0824242 0.000326011 -1.41639e-20 -4.79841e-05 2.1289e-20 -0.0329889)
(-0.0946043 -5.09013e-05 8.2231e-21 -0.00314629 -4.56998e-21 -0.0391002)
(-0.0601667 0.000201353 3.38378e-26 0.000803335 -2.54533e-23 -0.0237453)
(-0.0720928 0.000371847 -6.74094e-21 -0.00217951 1.14507e-20 -0.0297089)
(-0.0805983 0.000349783 7.29228e-21 -9.03758e-05 -1.08426e-20 -0.0322755)
(-0.0924934 -3.4653e-05 2.63219e-22 -0.00311671 -6.09043e-22 -0.038244)
(-0.0588156 0.000207855 2.09806e-24 0.000743871 -1.6034e-21 -0.0232287)
(-0.0704426 0.000391765 1.3618e-20 -0.00216449 -2.36264e-20 -0.0290428)
(-0.0787355 0.000373663 0 -0.000128077 0 -0.0315454)
(-0.0903351 -1.85032e-05 8.15093e-21 -0.00307956 -5.31628e-21 -0.0373659)
(-0.0574474 0.00021487 -6.25355e-21 0.00068889 8.07184e-21 -0.0227034)
(-0.0687639 0.000412136 -6.87704e-21 -0.00214221 1.21757e-20 -0.0283625)
(-0.0768363 0.000397682 0 -0.000160335 0 -0.0307987)
(-0.0881295 -2.68671e-06 8.49663e-21 -0.00303398 -8.38729e-21 -0.0364654)
(-0.0560628 0.000222645 6.52825e-22 0.000638893 -1.77373e-21 -0.0221696)
(-0.0670575 0.00043308 7.57916e-22 -0.00211206 -8.23608e-23 -0.0276678)
(-0.0749012 0.000421806 -1.53584e-20 -0.000186563 2.71106e-20 -0.0300351)
(-0.0858768 1.25376e-05 -8.49595e-21 -0.00297928 7.77553e-21 -0.0355424)
(-0.0546627 0.0002314 5.58256e-21 0.000594193 -5.75911e-21 -0.0216274)
(-0.0653236 0.000454655 1.44053e-20 -0.00207364 -2.81415e-20 -0.0269589)
(-0.0729303 0.000445949 3.14272e-22 -0.000206378 3.40917e-22 -0.0292547)
(-0.0835768 2.68984e-05 4.73584e-25 -0.00291495 -3.8229e-22 -0.0345967)
(-0.0532476 0.000241316 -4.65603e-25 0.000554891 3.80864e-22 -0.0210771)
(-0.0635628 0.000476861 7.38848e-21 -0.00202676 -1.5259e-20 -0.0262358)
(-0.0709238 0.000469975 0 -0.000219617 0 -0.0284574)
(-0.0812292 4.01237e-05 3.53067e-27 -0.00284073 -2.90025e-24 -0.033628)
(-0.051818 0.000252533 7.03517e-21 0.000520867 -8.47697e-21 -0.0205189)
(-0.0617751 0.000499638 -1.44322e-20 -0.00197147 3.08861e-20 -0.0254986)
(-0.0688818 0.000493706 0 -0.000226352 0 -0.0276433)
(-0.0788337 5.19515e-05 9.45603e-21 -0.00275661 -7.57011e-21 -0.0326361)
(-0.0503742 0.000265138 -3.38969e-21 0.000491778 4.11026e-21 -0.019953)
(-0.0599609 0.000522868 3.8119e-21 -0.00190804 -8.45145e-21 -0.0247476)
(-0.0668042 0.000516926 4.22747e-21 -0.000226901 -8.49059e-21 -0.0268124)
(-0.0763902 6.21394e-05 4.80706e-21 -0.00266286 -4.37582e-21 -0.0316212)
(-0.0489162 0.000279166 -3.43759e-21 0.000467062 4.10427e-21 -0.0193797)
(-0.05812 0.000546375 -1.81953e-22 -0.00183701 -1.93142e-22 -0.0239828)
(-0.0646911 0.000539389 -4.22747e-21 -0.000221817 8.4906e-21 -0.0259652)
(-0.0738983 7.04736e-05 -3.08716e-25 -0.00256002 2.67238e-22 -0.0305833)
(-0.0474439 0.000294591 -3.67595e-21 0.000445954 4.0874e-21 -0.0187992)
(-0.0562524 0.000569927 7.60414e-21 -0.00175916 -1.8376e-20 -0.0232046)
(-0.0625424 0.00056082 -4.35277e-21 -0.000211876 9.34099e-21 -0.0251017)
(-0.0713582 7.67751e-05 -4.37092e-25 -0.00244891 3.84878e-22 -0.0295228)
(-0.0459571 0.000311324 7.01568e-21 0.000427513 -9.096e-21 -0.0182118)
(-0.0543582 0.000593239 -3.67899e-21 -0.00167549 9.06869e-21 -0.0224135)
(-0.0603583 0.000580923 4.53998e-21 -0.000198055 -9.14195e-21 -0.0242225)
(-0.06877 8.09044e-05 5.27586e-21 -0.00233058 -4.63061e-21 -0.0284402)
(-0.044455 0.000329218 7.66138e-26 0.000410655 -6.94335e-23 -0.0176178)
(-0.052437 0.000615977 -8.19641e-21 -0.00158719 1.9721e-20 -0.0216097)
(-0.0581389 0.000599382 8.63346e-21 -0.000181494 -1.97563e-20 -0.0233282)
(-0.0661343 8.27637e-05 -9.93834e-21 -0.00220633 9.6701e-21 -0.0273363)
(-0.042937 0.000348063 -6.98904e-21 0.00039419 1.02283e-20 -0.0170171)
(-0.0504888 0.000637755 0 -0.0014956 0 -0.0207938)
(-0.0558845 0.000615861 0 -0.000163457 0 -0.0224192)
(-0.0634521 8.22963e-05 5.16107e-21 -0.00207762 -5.0613e-21 -0.0262119)
(-0.0414019 0.000367591 -3.45097e-21 0.000376875 5.20777e-21 -0.01641)
(-0.0485135 0.000658141 0 -0.00140221 0 -0.0199663)
(-0.0535957 0.000630008 0 -0.000145288 0 -0.0214964)
(-0.0607247 7.94836e-05 5.02616e-21 -0.00194607 -5.54991e-21 -0.0250683)
(-0.0398483 0.000387485 7.35758e-21 0.000357457 -1.13758e-20 -0.0157964)
(-0.0465108 0.000676663 0 -0.00130856 0 -0.0191277)
(-0.0512731 0.000641452 0 -0.00012836 0 -0.0205606)
(-0.057954 7.43405e-05 2.58025e-22 -0.0018134 -2.23965e-22 -0.023907)
(-0.0382748 0.000407382 -3.44595e-21 0.000334734 5.44561e-21 -0.015176)
(-0.0444807 0.000692812 -4.4211e-21 -0.00121624 1.1802e-20 -0.0182788)
(-0.0489178 0.000649813 4.42108e-21 -0.000114027 -1.18019e-20 -0.0196127)
(-0.0551425 6.69116e-05 -3.25129e-25 -0.0016814 3.13193e-22 -0.0227296)
(-0.0366794 0.000426888 -3.73667e-21 0.000307595 6.08152e-21 -0.0145487)
(-0.0424231 0.000706063 0 -0.00112682 0 -0.01742)
(-0.0465309 0.000654709 4.72245e-21 -0.000103578 -1.25219e-20 -0.0186538)
(-0.0522932 5.72674e-05 -3.01977e-27 -0.00155184 2.94391e-24 -0.021538)
(-0.0350599 0.000445598 -2.13115e-25 0.000275072 2.0945e-22 -0.0139139)
(-0.0403379 0.000715898 4.50837e-21 -0.00104182 -1.27454e-20 -0.0165519)
(-0.0441139 0.000655775 -1.42117e-20 -9.81932e-05 3.80409e-20 -0.0176848)
(-0.0494098 4.55037e-05 5.18786e-21 -0.00142651 -6.15817e-21 -0.0203345)
(-0.0334139 0.000463106 -2.56491e-22 0.000236367 -9.74229e-23 -0.013271)
(-0.0382251 0.00072183 -4.32831e-21 -0.000962674 1.34528e-20 -0.0156751)
(-0.0416685 0.000652686 0 -9.89147e-05 0 -0.016707)
(-0.0464964 3.17423e-05 -4.50498e-23 -0.00130711 3.6353e-22 -0.0191214)
(-0.0317385 0.000479034 7.93911e-21 0.000190878 -1.32693e-20 -0.012619)
(-0.0360847 0.000723428 2.23105e-22 -0.000890693 2.31148e-22 -0.0147901)
(-0.0391968 0.000645175 0 -0.000106616 0 -0.0157214)
(-0.0435579 1.61288e-05 -2.62231e-22 -0.00119526 -9.50123e-23 -0.0179013)
(-0.0300308 0.000493035 7.87751e-26 0.0001382 -7.95548e-23 -0.011957)
(-0.0339167 0.000720331 -4.62276e-21 -0.000827053 1.4192e-20 -0.0138975)
(-0.0367008 0.000633035 -4.83802e-22 -0.000121988 2.33333e-23 -0.0147291)
(-0.0405995 -1.17272e-06 5.09937e-21 -0.00109242 -6.96549e-21 -0.0166768)
(-0.0282877 0.0005048 2.42276e-25 7.81136e-05 -2.46378e-22 -0.0112838)
(-0.0317211 0.000712232 9.0841e-21 -0.000772792 -2.95981e-20 -0.0129976)
(-0.034183 0.000616104 4.86802e-22 -0.000145533 -2.16693e-23 -0.0137314)
(-0.0376267 -1.99977e-05 -5.13601e-21 -0.000999924 7.42949e-21 -0.0154507)
(-0.0265058 0.000514051 3.95624e-21 1.05858e-05 -7.41017e-21 -0.0105981)
(-0.0294981 0.000698844 2.88908e-23 -0.000728802 -4.93769e-22 -0.0120908)
(-0.0316458 0.000594217 1.01247e-20 -0.000177565 -3.06219e-20 -0.0127293)
(-0.0346455 -4.02089e-05 -5.16966e-21 -0.000918939 7.59835e-21 -0.0142258)
(-0.0246818 0.000520525 -4.45115e-21 -6.42933e-05 7.51923e-21 -0.00989844)
(-0.0272476 0.000679852 -2.32957e-22 -0.000695894 -2.39598e-22 -0.0111774)
(-0.0290918 0.000567141 -4.94764e-21 -0.000218264 1.5429e-20 -0.011724)
(-0.0316619 -6.17301e-05 5.6923e-21 -0.000850512 -7.54657e-21 -0.013005)
(-0.0228118 0.000523983 -1.6856e-25 -0.000146231 1.73994e-22 -0.0091832)
(-0.0249695 0.000654887 0 -0.000674755 0 -0.0102577)
(-0.0265235 0.000534514 0 -0.000267638 0 -0.0107165)
(-0.0286826 -8.45987e-05 9.75726e-26 -0.000795547 -1.00725e-22 -0.0117912)
(-0.0208919 0.00052422 8.73403e-27 -0.000235006 -9.0449e-24 -0.00845075)
(-0.0226637 0.000623571 0 -0.000666254 0 -0.00933196)
(-0.0239437 0.000495808 -1.02891e-20 -0.000325832 3.35933e-20 -0.00970782)
(-0.0257144 -0.000108978 5.25458e-21 -0.000755126 -8.33261e-21 -0.0105878)
(-0.0189175 0.000521226 8.32563e-21 -0.000330104 -1.72585e-20 -0.00769904)
(-0.020329 0.00058568 -9.08047e-21 -0.00067109 3.43085e-20 -0.00840005)
(-0.0213545 0.000450328 9.81559e-21 -0.000392801 -3.40777e-20 -0.00869892)
(-0.0227647 -0.000135254 -1.13098e-20 -0.000730227 1.72139e-20 -0.00939796)
(-0.0168853 0.000515346 -4.04258e-21 -0.000431905 8.68865e-21 -0.00692689)
(-0.0179653 0.000541513 0 -0.000691192 0 -0.00746259)
(-0.0187585 0.000397153 0 -0.000469715 0 -0.0076913)
(-0.0198424 -0.000164079 1.13309e-20 -0.000722909 -1.75257e-20 -0.00822614)
(-0.0147906 0.000507673 6.72508e-27 -0.000540495 -7.00582e-24 -0.00613245)
(-0.0155675 0.000492236 4.8253e-21 -0.000727442 -1.81615e-20 -0.00651796)
(-0.0161539 0.000335192 -4.8253e-21 -0.000556718 1.81615e-20 -0.00668426)
(-0.0169555 -0.000196598 -2.41968e-22 -0.000735095 1.35398e-23 -0.00707623)
(-0.0126383 0.00050076 -2.448e-22 -0.000660188 -2.13436e-22 -0.00531938)
(-0.0131368 0.000440616 4.33947e-21 -0.00078614 -1.86556e-20 -0.00556917)
(-0.0135445 0.000262751 0 -0.000659436 0 -0.00568159)
(-0.0141205 -0.000235102 -5.57119e-21 -0.00077307 8.98746e-21 -0.00595745)
(-0.0104207 0.000496638 -4.58742e-21 -0.00079318 9.45936e-21 -0.00448556)
(-0.010648 0.000388764 9.20237e-21 -0.000860484 -3.83235e-20 -0.00460338)
(-0.0109068 0.000180003 -4.85144e-21 -0.000770427 1.91645e-20 -0.0046709)
(-0.0113405 -0.000280518 -1.57342e-25 -0.000841746 1.63589e-22 -0.0048729)
(-0.00818573 0.000493454 3.84893e-21 -0.000952723 -9.97752e-21 -0.00365538)
(-0.00813738 0.000334553 4.61386e-21 -0.000957946 -1.99156e-20 -0.00363813)
(-0.0082785 9.19166e-05 2.46281e-22 -0.000895669 2.4827e-22 -0.00366967)
(-0.00867247 -0.000329264 4.9924e-22 -0.000956311 -1.96294e-23 -0.00385151)
(-0.00582504 0.000445957 -6.59553e-26 -0.00106636 6.86281e-23 -0.00275656)
(-0.00549927 0.000250934 -9.48113e-21 -0.000924537 4.00835e-20 -0.00256952)
(-0.00555364 2.51156e-05 1.53485e-20 -0.000874768 -6.02567e-20 -0.00257136)
(-0.00601617 -0.000331577 2.51919e-22 -0.0010368 -1.99503e-22 -0.00282118)
(-0.00356529 0.000257509 -2.21902e-22 -0.000910141 -5.5556e-23 -0.00179017)
(-0.00318474 0.000109436 4.47894e-21 -0.000575628 -4.15923e-20 -0.00150415)
(-0.0031897 -1.19512e-05 -3.02102e-23 -0.000507049 -2.87816e-26 -0.0014787)
(-0.00362119 -0.000190857 -2.65164e-21 -0.000827726 1.03469e-20 -0.00177957)
)
;

boundaryField
{
    plateFix
    {
        type            calculated;
        value           nonuniform List<symmTensor> 4((-0.120332 -0.0308172 1.23522e-25 -0.0430903 -1.50611e-20 -0.065369) (-0.0975414 -0.0131414 -3.66013e-26 -0.0541539 -5.53882e-26 -0.0606781) (-0.0993509 0.00883308 -2.02789e-24 -0.0550046 9.18976e-25 -0.0617422) (-0.124556 0.0297895 3.1313e-23 -0.0444405 -3.36841e-20 -0.0675987));
    }
    plate
    {
        type            calculated;
        value           nonuniform List<symmTensor> 
168
(
(-0.0914282 3.69087e-06 2.70132e-24 -0.000791698 -3.02083e-20 -0.036888)
(-0.0951798 -2.4521e-05 4.45978e-23 -0.00111175 -6.73509e-20 -0.0385166)
(-0.0941603 -1.68302e-07 3.69423e-24 -0.000790435 -3.98497e-20 -0.0379803)
(-0.0987185 -2.30158e-05 -6.59488e-23 -0.00109554 7.77594e-20 -0.0399256)
(-0.0982542 -4.19656e-06 5.90054e-26 -0.0007866 -5.61317e-22 -0.0396163)
(-0.103734 -2.06756e-05 2.12876e-23 -0.00107368 -2.15699e-22 -0.041923)
(-0.099798 -7.60306e-06 4.64632e-24 -0.000782558 -3.6656e-20 -0.0402322)
(-0.106079 -1.91055e-05 -1.35686e-25 -0.00105403 -3.51848e-20 -0.0428532)
(-0.101024 -1.11034e-05 5.30178e-24 -0.000778988 4.45659e-22 -0.0407211)
(-0.108127 -2.02347e-05 -1.43747e-23 -0.00103837 3.41565e-20 -0.0436663)
(-0.101625 -1.44858e-05 1.15625e-22 -0.000775789 6.35522e-20 -0.0409605)
(-0.109558 -2.28545e-05 1.35667e-22 -0.00102567 -1.67382e-21 -0.0442335)
(-0.10205 -1.79669e-05 -9.97885e-23 -0.00077282 -5.78202e-20 -0.0411291)
(-0.110849 -2.67637e-05 -2.74125e-22 -0.00101486 3.03923e-20 -0.0447456)
(-0.102299 -2.15459e-05 -2.21727e-25 -0.000770014 8.20126e-22 -0.0412276)
(-0.112007 -3.15597e-05 1.55025e-22 -0.00100546 6.07229e-24 -0.0452051)
(-0.102443 -2.52598e-05 -6.90531e-24 -0.000767336 2.20789e-20 -0.0412843)
(-0.113112 -3.7073e-05 -3.4358e-22 -0.000997252 -5.33941e-20 -0.0456438)
(-0.102473 -2.91019e-05 -3.48091e-22 -0.000764758 -4.3139e-20 -0.0412949)
(-0.114156 -4.31438e-05 2.38277e-22 -0.000990043 2.48828e-20 -0.0460584)
(-0.102383 -3.3059e-05 7.57396e-22 -0.000762264 3.9928e-20 -0.0412581)
(-0.115137 -4.96742e-05 -2.45299e-25 -0.000983671 6.09976e-22 -0.0464484)
(-0.102165 -3.71075e-05 -4.68027e-22 -0.000759851 1.71327e-20 -0.0411698)
(-0.116046 -5.65924e-05 -8.77408e-24 -0.000977994 1.95601e-20 -0.0468098)
(-0.101816 -4.12231e-05 -9.39869e-23 -0.000757529 -1.49663e-20 -0.0410293)
(-0.116881 -6.38476e-05 -2.13543e-22 -0.000972894 -1.68732e-20 -0.0471414)
(-0.10134 -4.53817e-05 1.08924e-22 -0.00075531 7.54533e-23 -0.0408382)
(-0.117642 -7.13979e-05 -9.08437e-24 -0.000968264 1.65752e-20 -0.0474441)
(-0.100748 -4.95608e-05 -3.71759e-25 -0.000753205 6.16306e-22 -0.0406004)
(-0.118337 -7.92078e-05 1.78282e-23 -0.000964009 -2.96752e-20 -0.0477203)
(-0.100051 -5.37368e-05 2.36894e-22 -0.000751214 -8.50495e-23 -0.0403207)
(-0.118973 -8.72441e-05 -8.32356e-22 -0.00096004 -1.72372e-21 -0.0479731)
(-0.099261 -5.78854e-05 -2.29645e-22 -0.000749326 -9.93067e-21 -0.0400041)
(-0.119558 -9.54764e-05 9.99272e-22 -0.000956271 3.06257e-20 -0.0482056)
(-0.0983904 -6.19762e-05 6.58937e-24 -0.000747508 -8.5423e-21 -0.0396552)
(-0.120096 -0.000103875 2.79301e-25 -0.000952614 -3.63336e-22 -0.0484195)
(-0.0974474 -6.59738e-05 -1.09502e-21 -0.00074571 1.42257e-20 -0.0392772)
(-0.12059 -0.000112413 1.24111e-21 -0.000948974 -3.09961e-20 -0.0486154)
(-0.0964377 -6.98359e-05 -6.0545e-23 -0.000743863 1.2726e-20 -0.0388726)
(-0.121035 -0.000121057 -5.74143e-22 -0.000945262 2.72661e-20 -0.0487922)
(-0.095365 -7.34639e-05 1.05216e-21 -0.000741741 -1.15551e-21 -0.0384427)
(-0.121424 -0.00012983 1.31659e-21 -0.000941197 -3.34652e-20 -0.0489462)
(-0.0942301 -7.69054e-05 -1.02935e-21 -0.000739758 2.69061e-22 -0.0379879)
(-0.121748 -0.000138576 -1.15531e-21 -0.000937149 1.39482e-20 -0.0490742)
(-0.0929913 -7.94946e-05 -7.66474e-25 -0.000735988 7.15229e-22 -0.0374909)
(-0.121991 -0.000148286 1.25828e-21 -0.000931094 3.72296e-21 -0.0491688)
(-0.0916921 -8.09333e-05 8.56814e-23 -0.000733058 -1.47059e-20 -0.0369701)
(-0.122122 -0.000158614 1.08929e-22 -0.000925616 -1.47401e-20 -0.0492189)
(-0.0904156 -8.15463e-05 1.30933e-21 -0.000730635 7.08962e-21 -0.0364585)
(-0.122122 -0.0001684 -2.82017e-21 -0.00092038 1.62025e-20 -0.0492168)
(-0.0891635 -8.13599e-05 8.8048e-26 -0.000728692 -7.1182e-23 -0.0359569)
(-0.121992 -0.000177633 -6.43326e-21 -0.000915163 -9.26552e-21 -0.0491628)
(-0.087935 -8.04003e-05 2.85497e-21 -0.000727548 -7.43445e-21 -0.035465)
(-0.121733 -0.000186354 3.03053e-21 -0.000910347 5.75026e-21 -0.0490574)
(-0.0867295 -7.8746e-05 5.78657e-21 -0.000727314 8.53422e-21 -0.0349827)
(-0.121346 -0.000194515 -9.9186e-24 -0.000905961 7.53663e-21 -0.0489009)
(-0.0855453 -7.64577e-05 -2.98698e-21 -0.000728291 -7.20235e-21 -0.0345094)
(-0.120833 -0.000202104 -3.94217e-21 -0.000902383 -7.03284e-21 -0.0486943)
(-0.08438 -7.36269e-05 -2.2787e-22 -0.000730732 7.53703e-21 -0.0340443)
(-0.120198 -0.000209064 4.18767e-21 -0.000899908 -4.45884e-21 -0.0484391)
(-0.0832308 -7.03548e-05 3.32758e-21 -0.00073493 5.66371e-23 -0.0335863)
(-0.119443 -0.000215336 -4.06056e-23 -0.000898942 7.01759e-21 -0.0481368)
(-0.0820939 -6.67602e-05 9.11159e-24 -0.000741171 -6.37047e-21 -0.033134)
(-0.118574 -0.000220837 -4.37129e-21 -0.000899884 3.2085e-22 -0.0477894)
(-0.0809655 -6.29753e-05 -6.99246e-24 -0.00074973 4.83231e-21 -0.0326861)
(-0.117595 -0.000225474 5.0538e-24 -0.00090314 -3.50493e-21 -0.0473993)
(-0.0798416 -5.91438e-05 7.66033e-21 -0.000760846 1.77156e-21 -0.032241)
(-0.116512 -0.000229145 -4.14126e-24 -0.000909081 2.8469e-21 -0.0469686)
(-0.0787178 -5.54156e-05 -3.96956e-21 -0.000774711 4.78296e-21 -0.031797)
(-0.115331 -0.00023174 -3.86178e-22 -0.000918025 -2.5733e-21 -0.0464997)
(-0.0775904 -5.19431e-05 -2.94258e-22 -0.000791447 6.60557e-21 -0.0313527)
(-0.114058 -0.000233149 3.1279e-22 -0.000930205 3.1698e-21 -0.0459952)
(-0.0764554 -4.88739e-05 4.27545e-21 -0.000811088 -5.94418e-21 -0.0309066)
(-0.112698 -0.00023327 -1.1316e-20 -0.000945748 -1.02131e-22 -0.0454573)
(-0.0753094 -4.63451e-05 -3.77577e-25 -0.000833564 2.55693e-22 -0.0304572)