/*--------------------------------*- C++ -*----------------------------------*\
| =========                 |                                                 |
| \\      /  F ield         | OpenFOAM Extend Project: Open source CFD        |
|  \\    /   O peration     | Version:  1.6-ext                               |
|   \\  /    A nd           | Web:      www.extend-project.de                 |
|    \\/     M anipulation  |                                                 |
\*---------------------------------------------------------------------------*/
FoamFile
{
    version     2.0;
    format      ascii;
    class       volVectorField;
    location    "0.65";
    object      DU;
}
// * * * * * * * * * * * * * * * * * * * * * * * * * * * * * * * * * * * * * //

dimensions      [0 1 0 0 0 0 0];

internalField   nonuniform List<vector> 
328
(
(-2.74845e-09 -5.59082e-09 0)
(-1.84321e-09 -1.35758e-09 0)
(-1.88028e-09 9.33489e-10 0)
(-2.84808e-09 5.3802e-09 0)
(-8.35524e-09 -1.44251e-08 0)
(-6.09338e-09 -3.96133e-09 0)
(-6.22087e-09 2.73177e-09 0)
(-8.69352e-09 1.37263e-08 0)
(-1.48295e-08 -2.10908e-08 0)
(-1.17813e-08 -6.4357e-09 0)
(-1.20397e-08 4.42127e-09 0)
(-1.54946e-08 1.98444e-08 0)
(-2.18653e-08 -2.59231e-08 0)
(-1.84441e-08 -8.61056e-09 0)
(-1.886e-08 5.83941e-09 0)
(-2.29355e-08 2.41012e-08 0)
(-2.955e-08 -2.93583e-08 0)
(-2.6173e-08 -1.04196e-08 0)
(-2.67788e-08 6.93141e-09 0)
(-3.11187e-08 2.69703e-08 0)
(-3.78454e-08 -3.17278e-08 0)
(-3.48163e-08 -1.18339e-08 0)
(-3.56439e-08 7.69015e-09 0)
(-4.00155e-08 2.88206e-08 0)
(-4.67916e-08 -3.32984e-08 0)
(-4.43534e-08 -1.28698e-08 0)
(-4.54397e-08 8.16246e-09 0)
(-4.96817e-08 2.99608e-08 0)
(-5.64144e-08 -3.42606e-08 0)
(-5.47262e-08 -1.35569e-08 0)
(-5.61133e-08 8.42027e-09 0)
(-6.01606e-08 3.06301e-08 0)
(-6.6756e-08 -3.47517e-08 0)
(-6.59192e-08 -1.39307e-08 0)
(-6.76562e-08 8.55468e-09 0)
(-7.15154e-08 3.1025e-08 0)
(-7.78568e-08 -3.48588e-08 0)
(-7.79243e-08 -1.40168e-08 0)
(-8.00682e-08 8.66363e-09 0)
(-8.38106e-08 3.13071e-08 0)
(-8.97597e-08 -3.46282e-08 0)
(-9.07563e-08 -1.38243e-08 0)
(-9.33737e-08 8.84859e-09 0)
(-9.71164e-08 3.16158e-08 0)
(-1.02507e-07 -3.40674e-08 0)
(-1.04445e-07 -1.33388e-08 0)
(-1.07613e-07 9.21231e-09 0)
(-1.11506e-07 3.2076e-08 0)
(-1.1614e-07 -3.31481e-08 0)
(-1.19035e-07 -1.25191e-08 0)
(-1.22843e-07 9.86083e-09 0)
(-1.27057e-07 3.28066e-08 0)
(-1.30703e-07 -3.18067e-08 0)
(-1.34584e-07 -1.1294e-08 0)
(-1.39135e-07 1.09073e-08 0)
(-1.4385e-07 3.3928e-08 0)
(-1.46239e-07 -2.99446e-08 0)
(-1.5116e-07 -9.56034e-09 0)
(-1.5657e-07 1.24778e-08 0)
(-1.61975e-07 3.55701e-08 0)
(-1.62795e-07 -2.74267e-08 0)
(-1.68837e-07 -7.18088e-09 0)
(-1.75241e-07 1.47189e-08 0)
(-1.81524e-07 3.78808e-08 0)
(-1.80419e-07 -2.40789e-08 0)
(-1.87695e-07 -3.9806e-09 0)
(-1.95243e-07 1.78053e-08 0)
(-2.026e-07 4.10347e-08 0)
(-1.99163e-07 -1.96837e-08 0)
(-2.07816e-07 2.57964e-10 0)
(-2.16681e-07 2.1949e-08 0)
(-2.25312e-07 4.52428e-08 0)
(-2.19082e-07 -1.39743e-08 0)
(-2.29286e-07 5.80131e-09 0)
(-2.3966e-07 2.74092e-08 0)
(-2.49779e-07 5.07626e-08 0)
(-2.40233e-07 -6.62563e-09 0)
(-2.52193e-07 1.29737e-08 0)
(-2.6429e-07 3.45027e-08 0)
(-2.76124e-07 5.79085e-08 0)
(-2.62673e-07 2.75618e-09 0)
(-2.76624e-07 2.21684e-08 0)
(-2.90685e-07 4.3616e-08 0)
(-3.04481e-07 6.70646e-08 0)
(-2.86466e-07 1.46471e-08 0)
(-3.0267e-07 3.38603e-08 0)
(-3.18959e-07 5.52189e-08 0)
(-3.34988e-07 7.86975e-08 0)
(-3.12632e-07 3.01921e-08 0)
(-3.3148e-07 4.91857e-08 0)
(-3.50387e-07 7.04395e-08 0)
(-3.6904e-07 9.39323e-08 0)
(-3.40253e-07 4.98244e-08 0)
(-3.6208e-07 6.85843e-08 0)
(-3.83941e-07 8.97166e-08 0)
(-4.05555e-07 1.13202e-07 0)
(-3.67491e-07 7.25932e-08 0)
(-3.92433e-07 9.11208e-08 0)
(-4.17384e-07 1.12121e-07 0)
(-4.42095e-07 1.35575e-07 0)
(-3.94355e-07 9.86276e-08 0)
(-4.22533e-07 1.16924e-07 0)
(-4.50694e-07 1.37782e-07 0)
(-4.78623e-07 1.61182e-07 0)
(-4.20852e-07 1.28041e-07 0)
(-4.5237e-07 1.46107e-07 0)
(-4.83847e-07 1.66811e-07 0)
(-5.15098e-07 1.90134e-07 0)
(-4.46989e-07 1.60929e-07 0)
(-4.81937e-07 1.78766e-07 0)
(-5.1682e-07 1.99306e-07 0)
(-5.51484e-07 2.22529e-07 0)
(-4.72773e-07 1.97374e-07 0)
(-5.11225e-07 2.14982e-07 0)
(-5.4959e-07 2.35346e-07 0)
(-5.87741e-07 2.58448e-07 0)
(-4.98209e-07 2.37441e-07 0)
(-5.40227e-07 2.5482e-07 0)
(-5.82134e-07 2.74997e-07 0)
(-6.23833e-07 2.97955e-07 0)
(-5.23304e-07 2.81178e-07 0)
(-5.68933e-07 2.98328e-07 0)
(-6.1443e-07 3.18308e-07 0)
(-6.59722e-07 3.41101e-07 0)
(-5.48061e-07 3.28622e-07 0)
(-5.97335e-07 3.45542e-07 0)
(-6.46454e-07 3.65315e-07 0)
(-6.95374e-07 3.87921e-07 0)
(-5.72483e-07 3.79796e-07 0)
(-6.25422e-07 3.96484e-07 0)
(-6.78186e-07 4.16038e-07 0)
(-7.30753e-07 4.38439e-07 0)
(-5.9657e-07 4.3471e-07 0)
(-6.53184e-07 4.51164e-07 0)
(-7.09604e-07 4.70488e-07 0)
(-7.65828e-07 4.92664e-07 0)
(-6.20324e-07 4.93362e-07 0)
(-6.80612e-07 5.0958e-07 0)
(-7.40688e-07 5.28664e-07 0)
(-8.00568e-07 5.50597e-07 0)
(-6.43743e-07 5.55743e-07 0)
(-7.07695e-07 5.7172e-07 0)
(-7.71416e-07 5.90555e-07 0)
(-8.34942e-07 6.12227e-07 0)
(-6.66824e-07 6.21832e-07 0)
(-7.34421e-07 6.37566e-07 0)
(-8.01771e-07 6.5614e-07 0)
(-8.68923e-07 6.77535e-07 0)
(-6.89564e-07 6.91602e-07 0)
(-7.60781e-07 7.07088e-07 0)
(-8.31733e-07 7.25393e-07 0)
(-9.02485e-07 7.46495e-07 0)
(-7.11958e-07 7.6502e-07 0)
(-7.86762e-07 7.80254e-07 0)
(-8.61285e-07 7.98278e-07 0)
(-9.35603e-07 8.19073e-07 0)
(-7.34001e-07 8.42045e-07 0)
(-8.12353e-07 8.57021e-07 0)
(-8.90409e-07 8.74756e-07 0)
(-9.68255e-07 8.9523e-07 0)
(-7.55687e-07 9.22631e-07 0)
(-8.37543e-07 9.37345e-07 0)
(-9.19088e-07 9.54782e-07 0)
(-1.00042e-06 9.74923e-07 0)
(-7.77009e-07 1.00673e-06 0)
(-8.62321e-07 1.02118e-06 0)
(-9.47308e-07 1.03831e-06 0)
(-1.03207e-06 1.0581e-06 0)
(-7.9796e-07 1.09429e-06 0)
(-8.86677e-07 1.10846e-06 0)
(-9.75054e-07 1.12528e-06 0)
(-1.0632e-06 1.14472e-06 0)
(-8.18535e-07 1.18525e-06 0)
(-9.10599e-07 1.19915e-06 0)
(-1.00231e-06 1.21564e-06 0)
(-1.09379e-06 1.23471e-06 0)
(-8.38725e-07 1.27955e-06 0)
(-9.34078e-07 1.29317e-06 0)
(-1.02906e-06 1.30933e-06 0)
(-1.12381e-06 1.32803e-06 0)
(-8.58524e-07 1.37714e-06 0)
(-9.57104e-07 1.39047e-06 0)
(-1.0553e-06 1.4063e-06 0)
(-1.15326e-06 1.42461e-06 0)
(-8.77927e-07 1.47794e-06 0)
(-9.79668e-07 1.49098e-06 0)
(-1.08102e-06 1.50646e-06 0)
(-1.18211e-06 1.52438e-06 0)
(-8.96926e-07 1.58188e-06 0)
(-1.00176e-06 1.59463e-06 0)
(-1.10619e-06 1.60977e-06 0)
(-1.21036e-06 1.62729e-06 0)
(-9.15517e-07 1.68891e-06 0)
(-1.02337e-06 1.70136e-06 0)
(-1.13081e-06 1.71615e-06 0)
(-1.23798e-06 1.73326e-06 0)
(-9.33693e-07 1.79894e-06 0)
(-1.0445e-06 1.81109e-06 0)
(-1.15488e-06 1.82552e-06 0)
(-1.26498e-06 1.84222e-06 0)
(-9.51452e-07 1.9119e-06 0)
(-1.06513e-06 1.92375e-06 0)
(-1.17837e-06 1.93782e-06 0)
(-1.29133e-06 1.9541e-06 0)
(-9.68787e-07 2.02771e-06 0)
(-1.08526e-06 2.03927e-06 0)
(-1.20128e-06 2.05297e-06 0)
(-1.31702e-06 2.06882e-06 0)
(-9.85696e-07 2.1463e-06 0)
(-1.10488e-06 2.15755e-06 0)
(-1.2236e-06 2.17089e-06 0)
(-1.34204e-06 2.1863e-06 0)
(-1.00217e-06 2.26758e-06 0)
(-1.12398e-06 2.27852e-06 0)
(-1.24532e-06 2.29149e-06 0)
(-1.36637e-06 2.30646e-06 0)
(-1.01822e-06 2.39146e-06 0)
(-1.14256e-06 2.4021e-06 0)
(-1.26643e-06 2.41469e-06 0)
(-1.39001e-06 2.42922e-06 0)
(-1.03382e-06 2.51786e-06 0)
(-1.16062e-06 2.52819e-06 0)
(-1.28692e-06 2.5404e-06 0)
(-1.41295e-06 2.55448e-06 0)
(-1.04899e-06 2.64669e-06 0)
(-1.17813e-06 2.65671e-06 0)
(-1.30679e-06 2.66853e-06 0)
(-1.43516e-06 2.68215e-06 0)
(-1.06371e-06 2.77784e-06 0)
(-1.19511e-06 2.78755e-06 0)
(-1.32601e-06 2.79899e-06 0)
(-1.45663e-06 2.81214e-06 0)
(-1.07798e-06 2.91123e-06 0)
(-1.21153e-06 2.92062e-06 0)
(-1.34459e-06 2.93166e-06 0)
(-1.47736e-06 2.94434e-06 0)
(-1.0918e-06 3.04674e-06 0)
(-1.22741e-06 3.05582e-06 0)
(-1.36251e-06 3.06646e-06 0)
(-1.49733e-06 3.07866e-06 0)
(-1.10517e-06 3.18428e-06 0)
(-1.24271e-06 3.19304e-06 0)
(-1.37976e-06 3.20328e-06 0)
(-1.51652e-06 3.21499e-06 0)
(-1.11807e-06 3.32374e-06 0)
(-1.25745e-06 3.33217e-06 0)
(-1.39633e-06 3.342e-06 0)
(-1.53493e-06 3.35322e-06 0)
(-1.1305e-06 3.465e-06 0)
(-1.27161e-06 3.4731e-06 0)
(-1.41221e-06 3.48251e-06 0)
(-1.55253e-06 3.49323e-06 0)
(-1.14246e-06 3.60795e-06 0)
(-1.28518e-06 3.61572e-06 0)
(-1.42739e-06 3.62471e-06 0)
(-1.56933e-06 3.63492e-06 0)
(-1.15394e-06 3.75248e-06 0)
(-1.29815e-06 3.75991e-06 0)
(-1.44186e-06 3.76847e-06 0)
(-1.5853e-06 3.77816e-06 0)
(-1.16493e-06 3.89847e-06 0)
(-1.31052e-06 3.90555e-06 0)
(-1.45561e-06 3.91368e-06 0)
(-1.60043e-06 3.92284e-06 0)
(-1.17542e-06 4.0458e-06 0)
(-1.32227e-06 4.05253e-06 0)
(-1.46863e-06 4.06021e-06 0)
(-1.61472e-06 4.06883e-06 0)
(-1.1854e-06 4.19434e-06 0)
(-1.3334e-06 4.20071e-06 0)
(-1.48091e-06 4.20794e-06 0)
(-1.62815e-06 4.21602e-06 0)
(-1.19487e-06 4.34398e-06 0)
(-1.3439e-06 4.34998e-06 0)
(-1.49244e-06 4.35675e-06 0)
(-1.64072e-06 4.36429e-06 0)
(-1.2038e-06 4.49461e-06 0)
(-1.35375e-06 4.50023e-06 0)
(-1.50321e-06 4.50653e-06 0)
(-1.65241e-06 4.51351e-06 0)
(-1.2122e-06 4.64609e-06 0)
(-1.36295e-06 4.65132e-06 0)
(-1.51322e-06 4.65715e-06 0)
(-1.66323e-06 4.66358e-06 0)
(-1.22004e-06 4.79832e-06 0)
(-1.37149e-06 4.80316e-06 0)
(-1.52246e-06 4.8085e-06 0)
(-1.67316e-06 4.81436e-06 0)
(-1.22731e-06 4.95119e-06 0)
(-1.37935e-06 4.95561e-06 0)
(-1.53091e-06 4.96047e-06 0)
(-1.68221e-06 4.96576e-06 0)
(-1.23399e-06 5.10458e-06 0)
(-1.38652e-06 5.10858e-06 0)
(-1.53859e-06 5.11294e-06 0)
(-1.69038e-06 5.11766e-06 0)
(-1.24007e-06 5.2584e-06 0)
(-1.393e-06 5.26197e-06 0)
(-1.54547e-06 5.26582e-06 0)
(-1.69766e-06 5.26997e-06 0)
(-1.24552e-06 5.41254e-06 0)
(-1.39877e-06 5.41566e-06 0)
(-1.55156e-06 5.41901e-06 0)
(-1.70406e-06 5.42259e-06 0)
(-1.25034e-06 5.56693e-06 0)
(-1.40382e-06 5.56959e-06 0)
(-1.55686e-06 5.57242e-06 0)
(-1.70959e-06 5.57542e-06 0)
(-1.2545e-06 5.72148e-06 0)
(-1.40813e-06 5.72366e-06 0)
(-1.56135e-06 5.72596e-06 0)
(-1.71426e-06 5.72839e-06 0)
(-1.25797e-06 5.87612e-06 0)
(-1.4117e-06 5.87782e-06 0)
(-1.56503e-06 5.87957e-06 0)
(-1.71807e-06 5.88142e-06 0)
(-1.26074e-06 6.03081e-06 0)
(-1.41449e-06 6.032e-06 0)
(-1.56789e-06 6.03319e-06 0)
(-1.72103e-06 6.03447e-06 0)
(-1.26281e-06 6.18545e-06 0)
(-1.4165e-06 6.18613e-06 0)
(-1.56995e-06 6.18679e-06 0)
(-1.7232e-06 6.18753e-06 0)
(-1.26412e-06 6.33979e-06 0)
(-1.41772e-06 6.34012e-06 0)
(-1.57118e-06 6.34042e-06 0)
(-1.72453e-06 6.3408e-06 0)
)
;

boundaryField
{
    plateFix
    {
        type            fixedDisplacement;
        value           uniform (0 0 0);
    }
    plate
    {
        type            solidTraction;
        nonLinear       updatedLagrangian;
        traction        nonuniform List<vector> 
168
(
(3.62007e-05 7.73492e-05 3.42118e-20)
(3.81889e-05 -8.09214e-05 -3.52901e-20)
(-0.000101012 -7.06551e-05 -2.47736e-24)
(-9.08357e-05 6.17144e-05 4.18497e-20)
(-0.000559814 -0.000252794 3.87646e-20)
(-0.000535564 0.000241464 3.99789e-20)
(-0.0012699 -0.000398199 5.92244e-23)
(-0.00122855 0.000386393 -3.54855e-20)
(-0.00217682 -0.000489141 4.22905e-23)
(-0.00211729 0.000477803 0)
(-0.00323115 -0.000528811 -6.47826e-20)
(-0.00315338 0.000518237 0)
(-0.00438206 -0.000530007 6.02397e-20)
(-0.00428665 0.000520074 3.10582e-20)
(-0.00558524 -0.000507131 -2.78281e-20)
(-0.00547312 0.000497474 -2.86754e-20)
(-0.00680613 -0.000472261 -3.20994e-21)
(-0.00667832 0.00046241 -3.30987e-21)
(-0.00801998 -0.000434135 2.03717e-20)
(-0.00787746 0.000423605 2.34578e-23)
(-0.00921106 -0.000398345 -2.37673e-20)
(-0.00905469 0.000386684 -2.7164e-21)
(-0.0103712 -0.000367958 0)
(-0.0102017 0.000354774 0)
(-0.011498 -0.000344221 3.3274e-23)
(-0.011316 0.000329183 0)
(-0.0125927 -0.000327164 0)
(-0.0123988 0.000309995 1.95368e-20)
(-0.0136585 -0.000316054 3.35314e-21)
(-0.0134535 0.000296525 -1.73583e-20)
(-0.0146985 -0.00030972 0)
(-0.0144835 0.000287645 -1.52348e-20)
(-0.0157146 -0.000306738 5.1088e-21)
(-0.015491 0.000281983 2.14031e-20)
(-0.0167052 -0.000305489 4.48218e-21)
(-0.0164752 0.00027799 9.30357e-21)
(-0.0176669 -0.000304182 -1.17861e-20)
(-0.0174335 0.000273994 -2.82948e-20)
(-0.0185844 -0.00030057 -1.33912e-20)
(-0.018352 0.000267923 1.74868e-20)
(-0.0194612 -0.000291149 1.34516e-22)
(-0.0192357 0.000256607 -1.17992e-20)
(-0.0202226 -0.00027693 4.98512e-21)
(-0.0200133 0.000240983 1.0274e-20)
(-0.0211203 -0.000225798 -6.39977e-23)
(-0.0209308 0.000190279 3.32502e-23)
(-0.0220557 -0.000165349 0)
(-0.0218875 0.000128791 -8.29582e-21)
(-0.0228319 -0.000151717 0)
(-0.0226972 0.000112615 8.33758e-21)
(-0.0235619 -0.000132716 0)
(-0.0234665 9.14081e-05 0)
(-0.024193 -0.000123124 0)
(-0.0241455 7.9661e-05 -7.89058e-21)
(-0.0247667 -0.000109856 0)
(-0.0247745 6.44516e-05 7.89914e-21)
(-0.0252597 -9.81207e-05 0)
(-0.0253313 5.10086e-05 0)
(-0.025685 -8.46186e-05 0)
(-0.0258285 3.60426e-05 -1.16726e-22)
(-0.0260337 -7.08732e-05 0)
(-0.0262577 2.11338e-05 -1.13849e-22)
(-0.0263086 -5.61185e-05 3.2972e-21)
(-0.026622 5.52798e-06 -5.55085e-23)
(-0.0265064 -4.08696e-05 -3.30047e-21)
(-0.0269183 -1.02164e-05 -5.3958e-23)
(-0.0266277 -2.50872e-05 0)
(-0.0271475 -2.61198e-05 -3.44626e-21)
(-0.0266718 -9.08428e-06 -2.78329e-21)
(-0.0273091 -4.18438e-05 1.62286e-22)
(-0.0266395 6.94964e-06 -6.61882e-23)
(-0.027404 -5.71858e-05 3.18507e-21)
(-0.0265319 2.27327e-05 2.95006e-21)
(-0.0274336 -7.18569e-05 4.72455e-23)
(-0.0263509 3.80237e-05 0)
(-0.0273997 -8.56187e-05 2.79709e-21)
(-0.0260987 5.25804e-05 8.02498e-23)
(-0.0273047 -9.82428e-05 -7.67052e-23)
(-0.0257781 6.62056e-05 -7.65121e-23)
(-0.0271509 -0.000109555 -2.72833e-21)
(-0.0253921 7.87466e-05 7.30632e-23)
(-0.0269409 -0.000119439 0)
(-0.0249435 9.01143e-05 -6.89662e-23)
(-0.0266771 -0.000127853 0)
(-0.024435 0.000100289 -1.30685e-22)
(-0.0263612 -0.000134835 -7.20904e-23)
(-0.0238689 0.000109329 0)
(-0.0259943 -0.000140509 -6.8288e-23)
(-0.0232467 0.000117366 -5.76174e-23)
(-0.0255766 -0.000145087 3.20952e-23)
(-0.022569 0.000124609 5.38572e-23)
(-0.025107 -0.00014886 3.0471e-23)
(-0.0218356 0.00013133 -5.04691e-23)
(-0.024583 -0.000152191 -8.53858e-23)
(-0.0210448 0.000137859 4.64014e-23)
(-0.0240011 -0.000155501 1.63342e-21)
(-0.020194 0.000144563 4.27111e-23)
(-0.0233558 -0.000159247 -1.63537e-21)
(-0.0192795 0.000151832 -3.9427e-23)
(-0.0226407 -0.000163907 1.43319e-21)
(-0.0182962 0.000160056 -3.58031e-23)
(-0.0218478 -0.000169949 -2.65437e-21)
(-0.0172384 0.000169606 6.4011e-23)
(-0.0209681 -0.000177812 2.42695e-21)
(-0.0160993 0.000180813 -8.46599e-22)
(-0.019992 -0.000187877 -1.14297e-21)
(-0.0148719 0.000193947 1.14022e-22)
(-0.0189092 -0.000200448 1.51593e-23)
(-0.0135491 0.000209198 1.35413e-21)
(-0.0177096 -0.00021573 0)
(-0.0121235 0.00022667 -3.48859e-22)
(-0.016383 -0.000233814 -3.06873e-22)
(-0.0105887 0.000246365 -2.54841e-22)
(-0.0149203 -0.000254672 3.14631e-22)
(-0.00893867 0.000268181 0)
(-0.0133134 -0.000278152 1.09479e-23)
(-0.00716883 0.000291918 7.90945e-24)
(-0.0115556 -0.000303982 1.38714e-22)
(-0.0052758 0.000317283 4.60157e-24)
(-0.00964202 -0.00033178 -6.4148e-23)
(-0.00325785 0.000343904 0)
(-0.00756983 -0.000361077 -9.75294e-23)
(-0.001115 0.000371346 0)
(-0.00533838 -0.000391332 5.8574e-23)
(0.00115087 0.000399138 4.89527e-24)
(-0.00294929 -0.000421966 -1.38232e-22)
(0.00353607 0.00042679 1.58797e-22)
(-0.00040642 -0.000452386 9.72638e-23)
(0.00603512 0.000453825 3.39081e-23)
(0.00228423 -0.000482017 2.6322e-24)
(0.00864096 0.000479803 -1.96695e-22)
(0.00511477 -0.000510337 -2.58836e-22)
(0.0113452 0.00050435 2.93953e-22)
(0.00807569 -0.000536907 5.5409e-22)
(0.0141384 0.000527186 -2.95391e-22)
(0.0111563 -0.000561402 -2.98042e-22)
(0.0170106 0.000548149 1.06268e-23)
(0.0143453 -0.000583643 -1.93017e-22)
(0.0199518 0.000567243 1.8112e-22)
(0.0176313 -0.000603645 3.91373e-22)
(0.0229525 0.000584651 -2.17208e-22)
(0.0210035 -0.000621638 -2.04378e-22)
(0.0260048 0.000600856 2.5806e-23)
(0.0244532 -0.000638197 0)
(0.0291033 0.000616666 0)
(0.0279745 -0.000654274 0)
(0.0322467 0.000633648 0)
(0.031566 -0.000671682 1.58595e-23)
(0.0354408 0.000654283 1.17713e-22)
(0.035235 -0.000693278 -1.62188e-23)
(0.0387006 0.000684458 -1.1781e-22)
(0.0389986 -0.000725684 0)
(0.0420661 0.000734211 1.47907e-23)
(0.0429035 -0.000780099 1.29253e-22)
(0.0455912 0.000837668 0)
(0.0470103 -0.000894102 -1.29423e-22)
(0.0494803 0.00104879 0)
(0.0515511 -0.00112548 -4.43379e-23)
(0.0538379 0.00165122 0)
(0.0566359 -0.00178343 5.98644e-23)
(0.0601164 0.00298945 0)
(0.0638992 -0.00321267 0)
(0.0676096 0.00855041 -1.9043e-23)
(0.0133586 0.00558683 -2.30644e-23)
(-0.00173904 -0.00419409 0)
(-0.00142333 0.00569897 0)
(0.0146586 -0.00562336 0)
(0.0723694 -0.00922729 1.81185e-23)
)
;
        pressure        nonuniform List<scalar> 
168
(
-0.430222
-0.443771
-0.430852
-0.444389
-0.431547
-0.445078
-0.432229
-0.445763
-0.432832
-0.446375
-0.433281
-0.44684
-0.433527
-0.44711
-0.433544
-0.447158
-0.433316
-0.44697
-0.43284
-0.446541
-0.432112
-0.445871
-0.43113
-0.444956
-0.429888
-0.443793
-0.428373
-0.442369
-0.426563
-0.440666
-0.424431
-0.438657
-0.421938
-0.436307
-0.41904
-0.433573
-0.41569
-0.43041
-0.411818
-0.42675
-0.407422
-0.422593
-0.402283
-0.41772
-0.396693
-0.412421
-0.389745
-0.405821
-0.382657
-0.399076
-0.374966
-0.391738
-0.366978
-0.384103
-0.358526
-0.376002
-0.349722
-0.367543
-0.34052
-0.358679
-0.330967
-0.349454
-0.321066
-0.339866
-0.310847
-0.329944
-0.300332
-0.319706
-0.289551
-0.309181
-0.278536
-0.298395
-0.267321
-0.287382
-0.25594
-0.276171
-0.24443
-0.264797
-0.232825
-0.253291
-0.221162
-0.241683
-0.209472
-0.230002
-0.197785
-0.218274
-0.186127
-0.206518
-0.17452
-0.194753
-0.162982
-0.18299
-0.151528
-0.171239
-0.140167
-0.159503
-0.128904
-0.147785
-0.117744
-0.136081
-0.106685
-0.124389
-0.095729
-0.112705
-0.0848737
-0.101028
-0.0741195
-0.0893572
-0.0634687
-0.0776963
-0.0529263
-0.0660542
-0.0425018
-0.0544456
-0.0322092
-0.0428923
-0.022068
-0.0314233
-0.0121033
-0.0200753
-0.00234593
-0.00889251
0.00716763
0.00207355
0.0163959
0.0127649
0.025293
0.023118
0.0338092
0.0330648
0.0418926
0.0425343
0.0494891
0.0514533
0.0565443
0.0597481
0.0630041
0.0673458
0.0688153
0.0741746
0.0739263
0.0801649
0.0782873
0.0852496
0.0818496
0.0893631
0.0845654
0.0924404
0.0863847
0.0944147
0.0872498
0.0952091
0.0870996
0.0947433
0.0857951
0.0928448
0.0833005
0.0894601
0.0787763
0.0836137
0.0731959
0.076369
0.0583476
0.0261024
0.0601169
0.0594624
0.0210571
0.058367
)
;
        value           nonuniform List<vector> 
168
(
(-2.73814e-08 -1.46154e-08 1.50587e-26)
(-2.63797e-08 1.47285e-08 -3.36434e-26)
(-2.65071e-08 -2.3723e-08 1.99396e-26)
(-2.56542e-08 2.34323e-08 3.88119e-26)
(-2.73915e-08 -3.07984e-08 2.60793e-28)
(-2.68497e-08 3.00564e-08 -9.76484e-29)
(-3.0289e-08 -3.57855e-08 1.83285e-26)
(-3.0213e-08 3.45515e-08 -1.75924e-26)
(-3.5066e-08 -3.93437e-08 -2.05167e-28)
(-3.56181e-08 3.76284e-08 1.70775e-26)
(-4.13372e-08 -4.17737e-08 -3.17081e-26)
(-4.26786e-08 3.9624e-08 -8.12193e-28)
(-4.88854e-08 -4.3387e-08 2.88316e-26)
(-5.11889e-08 4.08951e-08 1.51206e-26)
(-5.75355e-08 -4.43745e-08 -4.05235e-28)
(-6.09916e-08 4.16817e-08 5.86407e-29)
(-6.71876e-08 -4.48803e-08 -1.10299e-26)
(-7.20118e-08 4.21885e-08 -2.67814e-26)
(-7.77767e-08 -4.49906e-08 2.14818e-26)
(-8.42151e-08 4.2576e-08 1.24944e-26)
(-8.9269e-08 -4.47513e-08 -1.98044e-26)
(-9.76042e-08 4.29838e-08 3.13707e-28)
(-1.0165e-07 -4.41688e-08 -8.63322e-27)
(-1.12206e-07 4.35356e-08 9.78284e-27)
(-1.1492e-07 -4.32148e-08 7.45498e-27)
(-1.28067e-07 4.43502e-08 -8.46698e-27)
(-1.29091e-07 -4.18259e-08 -2.97285e-29)
(-1.45252e-07 4.55481e-08 8.28183e-27)
(-1.44185e-07 -3.99046e-08 -3.07367e-28)
(-1.63841e-07 4.72599e-08 -1.48344e-26)
(-1.60231e-07 -3.73169e-08 5.48583e-29)
(-1.83927e-07 4.96343e-08 -9.26516e-28)
(-1.77265e-07 -3.38899e-08 4.93804e-27)
(-2.05616e-07 5.28466e-08 1.54091e-26)
(-1.95326e-07 -2.94073e-08 4.26584e-27)
(-2.29025e-07 5.71084e-08 -1.90748e-28)
(-2.1446e-07 -2.3603e-08 -7.10636e-27)
(-2.54283e-07 6.26772e-08 -1.5358e-26)
(-2.34711e-07 -1.61527e-08 -6.34712e-27)
(-2.81527e-07 6.98671e-08 1.35605e-26)
(-2.56129e-07 -6.66265e-09 6.04353e-28)
(-3.10902e-07 7.90614e-08 -1.6577e-26)
(-2.78761e-07 5.34296e-09 -1.24279e-28)
(-3.42561e-07 9.07257e-08 6.87313e-27)
(-3.03564e-07 2.10132e-08 -3.61328e-28)
(-3.77965e-07 1.05984e-07 2.03103e-27)
(-3.29655e-07 4.07772e-08 7.31969e-27)
(-4.15997e-07 1.25265e-07 -7.32739e-27)
(-3.55295e-07 6.36756e-08 -3.70364e-27)
(-4.54123e-07 1.47637e-07 7.69439e-27)
(-3.80502e-07 8.98375e-08 3.5646e-29)
(-4.92296e-07 1.73228e-07 -5.77599e-27)
(-4.05288e-07 1.19376e-07 3.27384e-27)
(-5.30469e-07 2.02153e-07 3.3742e-27)
(-4.29671e-07 1.52388e-07 -5.35255e-27)
(-5.68597e-07 2.34507e-07 3.76452e-27)
(-4.53665e-07 1.88955e-07 4.18198e-27)
(-6.06632e-07 2.70371e-07 -4.40334e-27)
(-4.77283e-07 2.29141e-07 -3.6682e-27)
(-6.44531e-07 3.09812e-07 -1.18723e-27)
(-5.00538e-07 2.72997e-07 -8.73688e-28)
(-6.82248e-07 3.5288e-07 3.54562e-27)
(-5.2344e-07 3.20559e-07 3.18496e-27)
(-7.19742e-07 3.9961e-07 -1.0675e-27)
(-5.45999e-07 3.7185e-07 -2.41582e-27)
(-7.56972e-07 4.50026e-07 -1.75256e-27)
(-5.68221e-07 4.26881e-07 -3.79157e-27)
(-7.939e-07 5.04139e-07 1.42357e-27)
(-5.90112e-07 4.8565e-07 -8.77255e-28)
(-8.30488e-07 5.61949e-07 -1.36054e-27)
(-6.11676e-07 5.48149e-07 -3.17299e-27)
(-8.66704e-07 6.23447e-07 1.72656e-27)
(-6.32913e-07 6.14358e-07 1.05248e-27)
(-9.02515e-07 6.88614e-07 -4.47473e-27)
(-6.53825e-07 6.84249e-07 -1.27657e-28)
(-9.37892e-07 7.57424e-07 3.64487e-27)
(-6.74408e-07 7.57789e-07 -3.76456e-27)
(-9.72806e-07 8.29844e-07 -8.79573e-28)
(-6.94661e-07 8.34938e-07 4.86658e-27)
(-1.00723e-06 9.05836e-07 3.16844e-27)
(-7.14581e-07 9.15651e-07 -2.11835e-27)
(-1.04115e-06 9.85357e-07 -2.47848e-27)
(-7.34162e-07 9.99878e-07 1.21472e-27)
(-1.07453e-06 1.06836e-06 -4.77297e-27)
(-7.53399e-07 1.08757e-06 -1.05992e-27)
(-1.10735e-06 1.15479e-06 5.91037e-27)
(-7.72288e-07 1.17866e-06 -8.99033e-28)
(-1.13961e-06 1.24459e-06 -7.15841e-28)
(-7.90823e-07 1.2731e-06 -1.47604e-26)
(-1.17127e-06 1.33772e-06 -8.49681e-27)
(-8.08998e-07 1.37082e-06 5.54157e-29)
(-1.20232e-06 1.43409e-06 -8.87211e-28)
(-8.26809e-07 1.47175e-06 -5.32423e-27)
(-1.23275e-06 1.53367e-06 5.81251e-27)
(-8.44252e-07 1.57584e-06 -7.32483e-28)
(-1.26254e-06 1.63636e-06 6.09905e-27)
(-8.61321e-07 1.683e-06 2.54544e-29)
(-1.29167e-06 1.74212e-06 -9.06429e-28)
(-8.78014e-07 1.79317e-06 1.60347e-27)
(-1.32013e-06 1.85087e-06 6.33964e-27)
(-8.94326e-07 1.90628e-06 4.77171e-27)
(-1.34792e-06 1.96253e-06 4.72728e-27)
(-9.10255e-07 2.02223e-06 2.46458e-27)
(-1.375e-06 2.07703e-06 -5.33903e-27)
(-9.25798e-07 2.14096e-06 -7.77722e-27)
(-1.40138e-06 2.19429e-06 -3.82282e-28)
(-9.40954e-07 2.26239e-06 -3.80878e-28)
(-1.42702e-06 2.31422e-06 -2.90018e-30)
(-9.5572e-07 2.38641e-06 -7.15057e-27)
(-1.45194e-06 2.43674e-06 8.31721e-27)
(-9.70095e-07 2.51296e-06 4.30824e-27)
(-1.47609e-06 2.56177e-06 3.97542e-27)
(-9.84076e-07 2.64193e-06 4.73501e-27)
(-1.49948e-06 2.6892e-06 2.67232e-28)
(-9.97662e-07 2.77323e-06 4.98447e-27)
(-1.52209e-06 2.81895e-06 3.84869e-28)
(-1.01085e-06 2.90676e-06 -9.88647e-27)
(-1.54391e-06 2.95091e-06 5.2288e-27)
(-1.02364e-06 3.04242e-06 6.94352e-29)
(-1.56491e-06 3.08498e-06 -1.02041e-26)
(-1.03603e-06 3.18011e-06 1.07474e-26)
(-1.58508e-06 3.22105e-06 5.43916e-27)
(-1.048e-06 3.31971e-06 6.0723e-27)
(-1.60441e-06 3.35902e-06 5.60964e-27)
(-1.05957e-06 3.46113e-06 -1.12192e-26)
(-1.62289e-06 3.49877e-06 2.23114e-29)
(-1.07073e-06 3.60423e-06 5.83578e-27)
(-1.6405e-06 3.64019e-06 3.13186e-28)
(-1.08146e-06 3.74892e-06 5.91616e-27)
(-1.65722e-06 3.78316e-06 2.94385e-30)
(-1.09176e-06 3.89507e-06 -2.09452e-28)
(-1.67305e-06 3.92756e-06 6.39263e-27)
(-1.10162e-06 4.04256e-06 3.50112e-28)
(-1.68798e-06 4.07328e-06 -1.14355e-28)
(-1.11104e-06 4.19127e-06 -1.38463e-26)
(-1.70198e-06 4.22019e-06 -3.48494e-28)
(-1.11999e-06 4.34109e-06 7.95551e-29)
(-1.71507e-06 4.36816e-06 7.24967e-27)
(-1.12848e-06 4.49189e-06 2.46379e-28)
(-1.72722e-06 4.5171e-06 -7.27305e-27)
(-1.13648e-06 4.64356e-06 -7.98427e-27)
(-1.73843e-06 4.66687e-06 -7.59431e-27)
(-1.14399e-06 4.79597e-06 7.89074e-27)
(-1.74871e-06 4.81736e-06 8.15792e-27)
(-1.15097e-06 4.94903e-06 -1.73994e-28)
(-1.75804e-06 4.96846e-06 -1.00724e-28)
(-1.15743e-06 5.10262e-06 9.04486e-30)
(-1.76644e-06 5.12007e-06 8.34318e-27)
(-1.16333e-06 5.25665e-06 -1.72833e-26)
(-1.77391e-06 5.27208e-06 -1.74018e-26)
(-1.16865e-06 5.41101e-06 8.70494e-27)
(-1.78045e-06 5.4244e-06 1.75866e-26)
(-1.17337e-06 5.56561e-06 7.00578e-30)
(-1.78607e-06 5.57694e-06 2.57909e-28)
(-1.17747e-06 5.72039e-06 -3.50648e-29)
(-1.79079e-06 5.72962e-06 -9.4377e-27)
(-1.18092e-06 5.87528e-06 9.4502e-27)
(-1.79462e-06 5.88236e-06 1.63587e-28)
(-1.18369e-06 6.0302e-06 -9.68086e-27)
(-1.7976e-06 6.03513e-06 -1.53762e-29)
(-1.18586e-06 6.1851e-06 -6.86275e-29)
(-1.79982e-06 6.18791e-06 5.15353e-29)
(-1.18742e-06 6.33967e-06 5.67804e-29)
(-1.2645e-06 6.41662e-06 2.78876e-28)
(-1.4181e-06 6.41701e-06 -4.52131e-27)
(-1.57157e-06 6.41724e-06 -3.0258e-29)
(-1.72494e-06 6.41773e-06 2.71284e-27)
(-1.80137e-06 6.34094e-06 -1.03271e-26)
)
;
    }
    frontAndBackPlanes
    {
        type            empty;
    }
}


// ************************************************************************* //
