/*--------------------------------*- C++ -*----------------------------------*\
| =========                 |                                                 |
| \\      /  F ield         | OpenFOAM Extend Project: Open source CFD        |
|  \\    /   O peration     | Version:  1.6-ext                               |
|   \\  /    A nd           | Web:      www.extend-project.de                 |
|    \\/     M anipulation  |                                                 |
\*---------------------------------------------------------------------------*/
FoamFile
{
    version     2.0;
    format      ascii;
    class       volVectorField;
    location    "0.65";
    object      DU_0;
}
// * * * * * * * * * * * * * * * * * * * * * * * * * * * * * * * * * * * * * //

dimensions      [0 1 0 0 0 0 0];

internalField   nonuniform List<vector> 
328
(
(-3.08551e-09 -6.25722e-09 0)
(-2.07385e-09 -1.496e-09 0)
(-2.11579e-09 1.08959e-09 0)
(-3.21575e-09 6.12256e-09 0)
(-9.38201e-09 -1.61282e-08 0)
(-6.85627e-09 -4.35732e-09 0)
(-7.00209e-09 3.19162e-09 0)
(-9.8126e-09 1.56233e-08 0)
(-1.66566e-08 -2.35544e-08 0)
(-1.32576e-08 -7.06586e-09 0)
(-1.35553e-08 5.17411e-09 0)
(-1.74828e-08 2.25964e-08 0)
(-2.4566e-08 -2.8913e-08 0)
(-2.07565e-08 -9.43034e-09 0)
(-2.12351e-08 6.85431e-09 0)
(-2.58687e-08 2.74641e-08 0)
(-3.32094e-08 -3.26947e-08 0)
(-2.94562e-08 -1.13764e-08 0)
(-3.01501e-08 8.17143e-09 0)
(-3.50851e-08 3.07671e-08 0)
(-4.25449e-08 -3.5272e-08 0)
(-3.9186e-08 -1.28714e-08 0)
(-4.01277e-08 9.11854e-09 0)
(-4.50984e-08 3.29256e-08 0)
(-5.26189e-08 -3.69451e-08 0)
(-4.99228e-08 -1.3934e-08 0)
(-5.11498e-08 9.74926e-09 0)
(-5.59706e-08 3.42901e-08 0)
(-6.3462e-08 -3.79288e-08 0)
(-6.1602e-08 -1.45977e-08 0)
(-6.31562e-08 1.01449e-08 0)
(-6.77488e-08 3.51309e-08 0)
(-7.51236e-08 -3.83786e-08 0)
(-7.42069e-08 -1.49036e-08 0)
(-7.61372e-08 1.04074e-08 0)
(-8.05027e-08 3.56687e-08 0)
(-8.76513e-08 -3.83948e-08 0)
(-8.77291e-08 -1.48827e-08 0)
(-9.00919e-08 1.06451e-08 0)
(-9.43028e-08 3.60832e-08 0)
(-1.01096e-07 -3.80331e-08 0)
(-1.02186e-07 -1.45489e-08 0)
(-1.05047e-07 1.09684e-08 0)
(-1.09226e-07 3.65274e-08 0)
(-1.15509e-07 -3.73079e-08 0)
(-1.17613e-07 -1.38919e-08 0)
(-1.21048e-07 1.14872e-08 0)
(-1.25351e-07 3.71356e-08 0)
(-1.3094e-07 -3.61956e-08 0)
(-1.34062e-07 -1.28736e-08 0)
(-1.38157e-07 1.23122e-08 0)
(-1.42762e-07 3.80329e-08 0)
(-1.47443e-07 -3.46363e-08 0)
(-1.51599e-07 -1.14255e-08 0)
(-1.56454e-07 1.35588e-08 0)
(-1.61548e-07 3.93429e-08 0)
(-1.6507e-07 -3.25346e-08 0)
(-1.70301e-07 -9.4475e-09 0)
(-1.76029e-07 1.53532e-08 0)
(-1.81803e-07 4.11958e-08 0)
(-1.8388e-07 -2.97584e-08 0)
(-1.90254e-07 -6.80521e-09 0)
(-1.96984e-07 1.78396e-08 0)
(-2.03628e-07 4.3738e-08 0)
(-2.03931e-07 -2.61371e-08 0)
(-2.1155e-07 -3.32746e-09 0)
(-2.19426e-07 2.11891e-08 0)
(-2.27134e-07 4.71403e-08 0)
(-2.25287e-07 -2.14578e-08 0)
(-2.34282e-07 1.19846e-09 0)
(-2.4347e-07 2.56082e-08 0)
(-2.52439e-07 5.16084e-08 0)
(-2.48015e-07 -1.54589e-08 0)
(-2.58551e-07 7.03319e-09 0)
(-2.69234e-07 3.13491e-08 0)
(-2.79671e-07 5.7393e-08 0)
(-2.72183e-07 -7.82205e-09 0)
(-2.84454e-07 1.44939e-08 0)
(-2.96839e-07 3.87206e-08 0)
(-3.08964e-07 6.48006e-08 0)
(-2.97862e-07 1.83844e-09 0)
(-3.12093e-07 2.39652e-08 0)
(-3.26411e-07 4.81e-08 0)
(-3.40463e-07 7.42056e-08 0)
(-3.25128e-07 1.39888e-08 0)
(-3.41572e-07 3.59121e-08 0)
(-3.58078e-07 5.99461e-08 0)
(-3.74318e-07 8.6064e-08 0)
(-3.55155e-07 2.9771e-08 0)
(-3.74191e-07 5.14668e-08 0)
(-3.93263e-07 7.53822e-08 0)
(-4.12072e-07 1.01495e-07 0)
(-3.86897e-07 4.95882e-08 0)
(-4.08851e-07 7.10391e-08 0)
(-4.30815e-07 9.48171e-08 0)
(-4.5252e-07 1.20902e-07 0)
(-4.1824e-07 7.24687e-08 0)
(-4.43243e-07 9.36735e-08 0)
(-4.68231e-07 1.17302e-07 0)
(-4.92964e-07 1.43336e-07 0)
(-4.49187e-07 9.85389e-08 0)
(-4.77356e-07 1.19496e-07 0)
(-5.05486e-07 1.42964e-07 0)
(-5.33365e-07 1.68923e-07 0)
(-4.79741e-07 1.2791e-07 0)
(-5.1118e-07 1.48618e-07 0)
(-5.42557e-07 1.71912e-07 0)
(-5.73685e-07 1.97774e-07 0)
(-5.09904e-07 1.60679e-07 0)
(-5.44704e-07 1.81135e-07 0)
(-5.79417e-07 2.04244e-07 0)
(-6.13885e-07 2.29987e-07 0)
(-5.39679e-07 1.96928e-07 0)
(-5.77916e-07 2.17131e-07 0)
(-6.16044e-07 2.40042e-07 0)
(-6.53929e-07 2.65642e-07 0)
(-5.69069e-07 2.36725e-07 0)
(-6.10807e-07 2.56672e-07 0)
(-6.52412e-07 2.79374e-07 0)
(-6.93779e-07 3.0481e-07 0)
(-5.98073e-07 2.80124e-07 0)
(-6.43363e-07 2.99814e-07 0)
(-6.88499e-07 3.22294e-07 0)
(-7.33398e-07 3.47544e-07 0)
(-6.26692e-07 3.27169e-07 0)
(-6.75574e-07 3.46598e-07 0)
(-7.24281e-07 3.68844e-07 0)
(-7.72751e-07 3.93887e-07 0)
(-6.54926e-07 3.77889e-07 0)
(-7.07428e-07 3.97053e-07 0)
(-7.59734e-07 4.19054e-07 0)
(-8.11804e-07 4.4387e-07 0)
(-6.82772e-07 4.32303e-07 0)
(-7.38913e-07 4.51199e-07 0)
(-7.94837e-07 4.72942e-07 0)
(-8.50524e-07 4.97512e-07 0)
(-7.10228e-07 4.90421e-07 0)
(-7.70015e-07 5.09043e-07 0)
(-8.29566e-07 5.30517e-07 0)
(-8.88879e-07 5.54822e-07 0)
(-7.37289e-07 5.52241e-07 0)
(-8.00723e-07 5.70586e-07 0)
(-8.63901e-07 5.91779e-07 0)
(-9.26839e-07 6.158e-07 0)
(-7.63951e-07 6.17757e-07 0)
(-8.31023e-07 6.35819e-07 0)
(-8.97821e-07 6.5672e-07 0)
(-9.64375e-07 6.8044e-07 0)
(-7.90208e-07 6.86952e-07 0)
(-8.60902e-07 7.04725e-07 0)
(-9.31305e-07 7.25323e-07 0)
(-1.00146e-06 7.48725e-07 0)
(-8.16054e-07 7.59803e-07 0)
(-8.90348e-07 7.77281e-07 0)
(-9.64334e-07 7.97566e-07 0)
(-1.03807e-06 8.20635e-07 0)
(-8.41482e-07 8.36282e-07 0)
(-9.19348e-07 8.53461e-07 0)
(-9.96889e-07 8.73421e-07 0)
(-1.07417e-06 8.96142e-07 0)
(-8.66484e-07 9.16356e-07 0)
(-9.47889e-07 9.33229e-07 0)
(-1.02895e-06 9.52855e-07 0)
(-1.10975e-06 9.75214e-07 0)
(-8.91055e-07 9.99986e-07 0)
(-9.75959e-07 1.01655e-06 0)
(-1.0605e-06 1.03583e-06 0)
(-1.14478e-06 1.05781e-06 0)
(-9.15186e-07 1.08713e-06 0)
(-1.00355e-06 1.10337e-06 0)
(-1.09153e-06 1.1223e-06 0)
(-1.17924e-06 1.1439e-06 0)
(-9.38871e-07 1.17773e-06 0)
(-1.03064e-06 1.19366e-06 0)
(-1.12201e-06 1.21223e-06 0)
(-1.2131e-06 1.23342e-06 0)
(-9.62104e-07 1.27175e-06 0)
(-1.05722e-06 1.28735e-06 0)
(-1.15194e-06 1.30555e-06 0)
(-1.24636e-06 1.32633e-06 0)
(-9.84878e-07 1.36913e-06 0)
(-1.08329e-06 1.3844e-06 0)
(-1.18129e-06 1.40222e-06 0)
(-1.27898e-06 1.42258e-06 0)
(-1.00719e-06 1.4698e-06 0)
(-1.10884e-06 1.48473e-06 0)
(-1.21005e-06 1.50217e-06 0)
(-1.31096e-06 1.5221e-06 0)
(-1.02903e-06 1.5737e-06 0)
(-1.13385e-06 1.5883e-06 0)
(-1.23821e-06 1.60535e-06 0)
(-1.34226e-06 1.62483e-06 0)
(-1.0504e-06 1.68076e-06 0)
(-1.15831e-06 1.69502e-06 0)
(-1.26575e-06 1.71167e-06 0)
(-1.37288e-06 1.7307e-06 0)
(-1.07129e-06 1.79091e-06 0)
(-1.18222e-06 1.80483e-06 0)
(-1.29267e-06 1.82108e-06 0)
(-1.4028e-06 1.83965e-06 0)
(-1.09171e-06 1.90407e-06 0)
(-1.20557e-06 1.91765e-06 0)
(-1.31895e-06 1.93349e-06 0)
(-1.432e-06 1.95159e-06 0)
(-1.11163e-06 2.02015e-06 0)
(-1.22836e-06 2.03339e-06 0)
(-1.34457e-06 2.04882e-06 0)
(-1.46046e-06 2.06644e-06 0)
(-1.13108e-06 2.13907e-06 0)
(-1.25056e-06 2.15196e-06 0)
(-1.36953e-06 2.16698e-06 0)
(-1.48816e-06 2.18411e-06 0)
(-1.15003e-06 2.26074e-06 0)
(-1.27219e-06 2.27329e-06 0)
(-1.39381e-06 2.28788e-06 0)
(-1.5151e-06 2.30452e-06 0)
(-1.16849e-06 2.38506e-06 0)
(-1.29322e-06 2.39726e-06 0)
(-1.4174e-06 2.41143e-06 0)
(-1.54126e-06 2.42756e-06 0)
(-1.18646e-06 2.51193e-06 0)
(-1.31365e-06 2.52378e-06 0)
(-1.4403e-06 2.53751e-06 0)
(-1.56661e-06 2.55314e-06 0)
(-1.20392e-06 2.64124e-06 0)
(-1.33348e-06 2.65274e-06 0)
(-1.46248e-06 2.66604e-06 0)
(-1.59115e-06 2.68114e-06 0)
(-1.22088e-06 2.77289e-06 0)
(-1.3527e-06 2.78403e-06 0)
(-1.48395e-06 2.79689e-06 0)
(-1.61487e-06 2.81147e-06 0)
(-1.23734e-06 2.90676e-06 0)
(-1.37129e-06 2.91755e-06 0)
(-1.50468e-06 2.92996e-06 0)
(-1.63773e-06 2.94401e-06 0)
(-1.25328e-06 3.04274e-06 0)
(-1.38926e-06 3.05317e-06 0)
(-1.52467e-06 3.06513e-06 0)
(-1.65975e-06 3.07864e-06 0)
(-1.26869e-06 3.18071e-06 0)
(-1.40658e-06 3.19077e-06 0)
(-1.5439e-06 3.20228e-06 0)
(-1.68089e-06 3.21524e-06 0)
(-1.28358e-06 3.32056e-06 0)
(-1.42326e-06 3.33025e-06 0)
(-1.56236e-06 3.34129e-06 0)
(-1.70114e-06 3.35369e-06 0)
(-1.29793e-06 3.46216e-06 0)
(-1.43928e-06 3.47147e-06 0)
(-1.58005e-06 3.48204e-06 0)
(-1.7205e-06 3.49387e-06 0)
(-1.31174e-06 3.60538e-06 0)
(-1.45463e-06 3.6143e-06 0)
(-1.59695e-06 3.6244e-06 0)
(-1.73895e-06 3.63566e-06 0)
(-1.32499e-06 3.7501e-06 0)
(-1.46931e-06 3.75864e-06 0)
(-1.61305e-06 3.76824e-06 0)
(-1.75647e-06 3.77892e-06 0)
(-1.33767e-06 3.89621e-06 0)
(-1.48329e-06 3.90434e-06 0)
(-1.62834e-06 3.91345e-06 0)
(-1.77307e-06 3.92354e-06 0)
(-1.34977e-06 4.04356e-06 0)
(-1.49657e-06 4.05128e-06 0)
(-1.64281e-06 4.05989e-06 0)
(-1.78872e-06 4.06939e-06 0)
(-1.36128e-06 4.19204e-06 0)
(-1.50915e-06 4.19935e-06 0)
(-1.65645e-06 4.20744e-06 0)
(-1.80343e-06 4.21634e-06 0)
(-1.37218e-06 4.34153e-06 0)
(-1.52099e-06 4.34841e-06 0)
(-1.66925e-06 4.35599e-06 0)
(-1.81718e-06 4.36427e-06 0)
(-1.38245e-06 4.49191e-06 0)
(-1.53211e-06 4.49835e-06 0)
(-1.6812e-06 4.5054e-06 0)
(-1.82997e-06 4.51307e-06 0)
(-1.39209e-06 4.64307e-06 0)
(-1.54247e-06 4.64904e-06 0)
(-1.6923e-06 4.65556e-06 0)
(-1.8418e-06 4.66262e-06 0)
(-1.40108e-06 4.79488e-06 0)
(-1.55208e-06 4.80039e-06 0)
(-1.70254e-06 4.80637e-06 0)
(-1.85266e-06 4.8128e-06 0)
(-1.40939e-06 4.94725e-06 0)
(-1.56092e-06 4.95229e-06 0)
(-1.71191e-06 4.95771e-06 0)
(-1.86255e-06 4.96352e-06 0)
(-1.41702e-06 5.10007e-06 0)
(-1.56897e-06 5.10462e-06 0)
(-1.7204e-06 5.10949e-06 0)
(-1.87147e-06 5.11467e-06 0)
(-1.42394e-06 5.25326e-06 0)
(-1.57624e-06 5.25731e-06 0)
(-1.72802e-06 5.26161e-06 0)
(-1.87944e-06 5.26617e-06 0)
(-1.43013e-06 5.40673e-06 0)
(-1.5827e-06 5.41026e-06 0)
(-1.73476e-06 5.41399e-06 0)
(-1.88645e-06 5.41792e-06 0)
(-1.43558e-06 5.56039e-06 0)
(-1.58834e-06 5.5634e-06 0)
(-1.74061e-06 5.56655e-06 0)
(-1.89251e-06 5.56985e-06 0)
(-1.44026e-06 5.71419e-06 0)
(-1.59316e-06 5.71666e-06 0)
(-1.74558e-06 5.71922e-06 0)
(-1.89763e-06 5.7219e-06 0)
(-1.44416e-06 5.86807e-06 0)
(-1.59714e-06 5.86998e-06 0)
(-1.74966e-06 5.87193e-06 0)
(-1.90182e-06 5.87399e-06 0)
(-1.44726e-06 6.02198e-06 0)
(-1.60024e-06 6.02332e-06 0)
(-1.75283e-06 6.02466e-06 0)
(-1.90508e-06 6.02609e-06 0)
(-1.44956e-06 6.17584e-06 0)
(-1.60249e-06 6.17662e-06 0)
(-1.75511e-06 6.17737e-06 0)
(-1.90747e-06 6.1782e-06 0)
(-1.45099e-06 6.32942e-06 0)
(-1.60384e-06 6.32979e-06 0)
(-1.75648e-06 6.33011e-06 0)
(-1.90894e-06 6.33053e-06 0)
)
;

boundaryField
{
    plateFix
    {
        type            fixedDisplacement;
        value           uniform (0 0 0);
    }
    plate
    {
        type            solidTraction;
        nonLinear       updatedLagrangian;
        traction        uniform (0 0 0);
        pressure        uniform 0;
        value           nonuniform List<vector> 
168
(
(-3.06314e-08 -1.63981e-08 2.87164e-29)
(-3.00004e-08 1.67476e-08 -5.38612e-28)
(-2.96369e-08 -2.65787e-08 -1.91851e-26)
(-2.91318e-08 2.66351e-08 -1.97483e-26)
(-3.06238e-08 -3.44691e-08 -2.24193e-28)
(-3.04441e-08 3.41626e-08 1.98943e-26)
(-3.38786e-08 -4.0006e-08 -9.18132e-28)
(-3.42143e-08 3.92841e-08 1.71201e-26)
(-3.92521e-08 -4.39311e-08 1.76679e-26)
(-4.02925e-08 4.28078e-08 -3.3694e-26)
(-4.63118e-08 -4.65823e-08 -1.61272e-26)
(-4.82356e-08 4.51175e-08 1.6692e-26)
(-5.48153e-08 -4.831e-08 -1.38275e-26)
(-5.78065e-08 4.66173e-08 -1.5067e-26)
(-6.45679e-08 -4.93295e-08 -1.98024e-28)
(-6.88233e-08 4.75783e-08 -7.77797e-28)
(-7.54601e-08 -4.98041e-08 1.09545e-26)
(-8.11979e-08 4.82299e-08 1.37194e-26)
(-8.74223e-08 -4.9833e-08 -9.98189e-27)
(-9.48875e-08 4.87507e-08 -1.18683e-26)
(-1.00421e-07 -4.94718e-08 -1.06732e-28)
(-1.09891e-07 4.92935e-08 -5.86814e-28)
(-1.14443e-07 -4.87334e-08 1.79589e-26)
(-1.26234e-07 4.99914e-08 -8.53492e-27)
(-1.29496e-07 -4.75942e-08 -7.99364e-27)
(-1.43966e-07 5.09693e-08 9.3107e-27)
(-1.45599e-07 -4.59946e-08 -7.29955e-27)
(-1.63152e-07 5.23508e-08 -1.49225e-27)
(-1.6278e-07 -4.384e-08 6.4989e-27)
(-1.83878e-07 5.42672e-08 1.68566e-27)
(-1.81081e-07 -4.09995e-08 1.32004e-28)
(-2.06243e-07 5.68658e-08 -1.13042e-27)
(-2.00546e-07 -3.73037e-08 -1.42495e-28)
(-2.30359e-07 6.03183e-08 1.29907e-28)
(-2.21228e-07 -3.25406e-08 8.43527e-27)
(-2.56353e-07 6.48314e-08 5.01419e-29)
(-2.43183e-07 -2.64495e-08 -7.05401e-27)
(-2.84363e-07 7.06558e-08 -2.7064e-28)
(-2.6647e-07 -1.87124e-08 -6.31455e-27)
(-3.14537e-07 7.8098e-08 -1.34161e-26)
(-2.91147e-07 -8.94375e-09 5.7407e-27)
(-3.47032e-07 8.75316e-08 1.65476e-26)
(-3.17277e-07 3.3227e-09 9.28009e-27)
(-3.82012e-07 9.94115e-08 -4.36203e-27)
(-3.45972e-07 1.92332e-08 -3.7869e-27)
(-4.21086e-07 1.14855e-07 7.55353e-28)
(-3.7622e-07 3.91871e-08 -1.18809e-26)
(-4.63014e-07 1.34263e-07 -2.54506e-27)
(-4.06002e-07 6.2204e-08 7.41152e-27)
(-5.05003e-07 1.56684e-07 -4.06565e-27)
(-4.35329e-07 8.84098e-08 -3.6861e-28)
(-5.47009e-07 1.82246e-07 4.51662e-27)
(-4.64212e-07 1.17916e-07 -4.21103e-27)
(-5.88986e-07 2.11058e-07 1.86442e-28)
(-4.92659e-07 1.50819e-07 7.86601e-27)
(-6.30888e-07 2.4322e-07 3.19034e-27)
(-5.20681e-07 1.87202e-07 -8.54988e-27)
(-6.72671e-07 2.78812e-07 -1.08747e-27)
(-5.48287e-07 2.27132e-07 3.26798e-27)
(-7.1429e-07 3.17903e-07 5.68804e-27)
(-5.75484e-07 2.70666e-07 -7.32358e-28)
(-7.55703e-07 3.60549e-07 1.29902e-27)
(-6.02277e-07 3.17844e-07 -1.12228e-27)
(-7.96867e-07 4.06792e-07 -5.80443e-28)
(-6.28673e-07 3.68699e-07 1.17847e-27)
(-8.37744e-07 4.56663e-07 3.45216e-27)
(-6.54674e-07 4.23249e-07 -1.87772e-29)
(-8.78294e-07 5.10183e-07 -3.21259e-27)
(-6.80282e-07 4.81503e-07 7.87809e-28)
(-9.18482e-07 5.6736e-07 -1.97891e-28)
(-7.05498e-07 5.43462e-07 5.5157e-27)
(-9.58272e-07 6.28196e-07 -8.29146e-28)
(-7.3032e-07 6.09118e-07 -3.61675e-27)
(-9.97632e-07 6.92684e-07 1.59281e-28)
(-7.54747e-07 6.78455e-07 2.2673e-27)
(-1.03653e-06 7.60808e-07 2.49097e-27)
(-7.78774e-07 7.5145e-07 8.41558e-28)
(-1.07494e-06 8.32548e-07 -4.5623e-27)
(-8.02399e-07 8.28077e-07 -3.77707e-27)
(-1.11283e-06 9.07877e-07 1.92936e-27)
(-8.25616e-07 9.08299e-07 4.64706e-29)
(-1.15018e-06 9.86763e-07 9.82783e-28)
(-8.48421e-07 9.9208e-07 7.77132e-27)
(-1.18695e-06 1.06917e-06 -5.79854e-27)
(-8.70809e-07 1.07938e-06 -4.45811e-27)
(-1.22313e-06 1.15505e-06 1.38078e-27)
(-8.92776e-07 1.17014e-06 3.90124e-27)
(-1.2587e-06 1.24437e-06 -3.07893e-27)
(-9.14317e-07 1.26431e-06 6.34238e-27)
(-1.29363e-06 1.33707e-06 1.39179e-26)
(-9.35428e-07 1.36185e-06 9.86726e-28)
(-1.3279e-06 1.4331e-06 5.76303e-27)
(-9.56107e-07 1.46268e-06 3.04295e-27)
(-1.36148e-06 1.53239e-06 -1.17538e-26)
(-9.76351e-07 1.56674e-06 1.61497e-27)
(-1.39437e-06 1.6349e-06 5.48453e-27)
(-9.96158e-07 1.67396e-06 5.96757e-27)
(-1.42654e-06 1.74054e-06 -4.77718e-27)
(-1.01553e-06 1.78427e-06 -7.14453e-27)
(-1.45796e-06 1.84924e-06 4.81295e-27)
(-1.03445e-06 1.89759e-06 7.86597e-27)
(-1.48863e-06 1.96094e-06 7.42222e-27)
(-1.05294e-06 2.01384e-06 -6.64531e-27)
(-1.51851e-06 2.07554e-06 -1.39678e-26)
(-1.07099e-06 2.13292e-06 6.57408e-27)
(-1.5476e-06 2.19296e-06 2.07519e-26)
(-1.0886e-06 2.25475e-06 3.85649e-27)
(-1.57588e-06 2.31311e-06 -7.33211e-27)
(-1.10576e-06 2.37923e-06 -3.77276e-27)
(-1.60332e-06 2.43589e-06 -3.95198e-28)
(-1.12248e-06 2.50626e-06 -8.23074e-27)
(-1.62992e-06 2.5612e-06 5.42226e-28)
(-1.13876e-06 2.63574e-06 4.50519e-27)
(-1.65565e-06 2.68894e-06 4.23917e-27)
(-1.15458e-06 2.76755e-06 -4.22233e-28)
(-1.68049e-06 2.819e-06 -9.34706e-27)
(-1.16996e-06 2.90159e-06 4.89909e-27)
(-1.70443e-06 2.95125e-06 -4.75968e-27)
(-1.18488e-06 3.03774e-06 -4.89534e-27)
(-1.72746e-06 3.0856e-06 -4.7066e-27)
(-1.19934e-06 3.17588e-06 5.19208e-27)
(-1.74956e-06 3.22191e-06 -1.38636e-28)
(-1.21333e-06 3.3159e-06 -5.59376e-27)
(-1.77072e-06 3.36008e-06 -5.58265e-27)
(-1.22685e-06 3.45767e-06 -5.73753e-27)
(-1.79092e-06 3.49996e-06 1.74219e-26)
(-1.23988e-06 3.60108e-06 -5.8283e-27)
(-1.81014e-06 3.64145e-06 -1.2063e-26)
(-1.25242e-06 3.74598e-06 1.22462e-26)
(-1.82838e-06 3.78441e-06 -6.28415e-27)
(-1.26446e-06 3.89227e-06 1.02545e-28)
(-1.84563e-06 3.92872e-06 1.29697e-26)
(-1.27597e-06 4.03982e-06 -6.61317e-27)
(-1.86188e-06 4.07426e-06 1.42939e-28)
(-1.28696e-06 4.1885e-06 7.12895e-27)
(-1.87712e-06 4.22089e-06 -3.02744e-28)
(-1.29739e-06 4.33819e-06 -7.18333e-27)
(-1.89134e-06 4.36851e-06 -1.44408e-26)
(-1.30727e-06 4.48878e-06 -1.64261e-28)
(-1.90454e-06 4.51699e-06 -1.37799e-28)
(-1.31656e-06 4.64015e-06 1.93714e-28)
(-1.91672e-06 4.66622e-06 1.50081e-26)
(-1.32525e-06 4.79218e-06 -7.95578e-27)
(-1.92788e-06 4.81608e-06 -1.54832e-26)
(-1.33332e-06 4.94478e-06 2.25377e-28)
(-1.93802e-06 4.96647e-06 -2.22577e-28)
(-1.34075e-06 5.09784e-06 -1.66417e-26)
(-1.94714e-06 5.1173e-06 -2.00367e-28)
(-1.34752e-06 5.25127e-06 8.61675e-27)
(-1.95527e-06 5.26848e-06 8.50455e-27)
(-1.3536e-06 5.40498e-06 -1.796e-28)
(-1.96239e-06 5.41991e-06 -8.72447e-27)
(-1.35897e-06 5.5589e-06 1.0094e-28)
(-1.96852e-06 5.57152e-06 -2.45013e-28)
(-1.3636e-06 5.71297e-06 9.22291e-27)
(-1.97369e-06 5.72325e-06 -8.97135e-27)
(-1.36749e-06 5.86712e-06 9.79035e-27)
(-1.97789e-06 5.87502e-06 -9.94704e-27)
(-1.37059e-06 6.0213e-06 1.98144e-26)
(-1.98117e-06 6.02682e-06 1.99172e-26)
(-1.37298e-06 6.17545e-06 -1.9943e-26)
(-1.98362e-06 6.17862e-06 1.99664e-28)
(-1.37467e-06 6.32928e-06 -1.04471e-26)
(-1.45141e-06 6.40587e-06 -2.43941e-27)
(-1.60425e-06 6.40628e-06 -2.59854e-27)
(-1.7569e-06 6.40651e-06 2.89626e-27)
(-1.90937e-06 6.40699e-06 -3.23072e-27)
(-1.98529e-06 6.33068e-06 1.03206e-26)
)
;
    }
    frontAndBackPlanes
    {
        type            empty;
    }
}


// ************************************************************************* //
