/*--------------------------------*- C++ -*----------------------------------*\
| =========                 |                                                 |
| \\      /  F ield         | OpenFOAM Extend Project: Open source CFD        |
|  \\    /   O peration     | Version:  1.6-ext                               |
|   \\  /    A nd           | Web:      www.extend-project.de                 |
|    \\/     M anipulation  |                                                 |
\*---------------------------------------------------------------------------*/
FoamFile
{
    version     2.0;
    format      ascii;
    class       volVectorField;
    location    "0.65";
    object      DV;
}
// * * * * * * * * * * * * * * * * * * * * * * * * * * * * * * * * * * * * * //

dimensions      [0 1 -1 0 0 0 0];

internalField   nonuniform List<vector> 
328
(
(3.88009e-07 7.71871e-07 0)
(2.62342e-07 1.5558e-07 0)
(2.66215e-07 -1.92639e-07 0)
(4.2105e-07 -8.94246e-07 0)
(1.18196e-06 1.9705e-06 0)
(8.69532e-07 4.47371e-07 0)
(8.86325e-07 -5.59437e-07 0)
(1.27905e-06 -2.26789e-06 0)
(2.10366e-06 2.84973e-06 0)
(1.68693e-06 7.1634e-07 0)
(1.72642e-06 -9.04878e-07 0)
(2.26984e-06 -3.26594e-06 0)
(3.10949e-06 3.46043e-06 0)
(2.64579e-06 9.38629e-07 0)
(2.70987e-06 -1.20524e-06 0)
(3.34553e-06 -3.96263e-06 0)
(4.21285e-06 3.8671e-06 0)
(3.75925e-06 1.10553e-06 0)
(3.84965e-06 -1.45407e-06 0)
(4.52005e-06 -4.44233e-06 0)
(5.40907e-06 4.11824e-06 0)
(5.00476e-06 1.21307e-06 0)
(5.12128e-06 -1.6525e-06 0)
(5.78827e-06 -4.76859e-06 0)
(6.70503e-06 4.2527e-06 0)
(6.37939e-06 1.26368e-06 0)
(6.52179e-06 -1.80958e-06 0)
(7.1574e-06 -4.99236e-06 0)
(8.10581e-06 4.2984e-06 0)
(7.87497e-06 1.26177e-06 0)
(8.04275e-06 -1.93738e-06 0)
(8.63255e-06 -5.15143e-06 0)
(9.61932e-06 4.27604e-06 0)
(9.48987e-06 1.21309e-06 0)
(9.68261e-06 -2.04969e-06 0)
(1.02214e-05 -5.27501e-06 0)
(1.12537e-05 4.20017e-06 0)
(1.12238e-05 1.12306e-06 0)
(1.1441e-05 -2.15963e-06 0)
(1.19312e-05 -5.38496e-06 0)
(1.30179e-05 4.08109e-06 0)
(1.30801e-05 9.96394e-07 0)
(1.33209e-05 -2.27866e-06 0)
(1.37697e-05 -5.49755e-06 0)
(1.49216e-05 3.92588e-06 0)
(1.50644e-05 8.36847e-07 0)
(1.53277e-05 -2.41568e-06 0)
(1.57442e-05 -5.62428e-06 0)
(1.69749e-05 3.73953e-06 0)
(1.71849e-05 6.47487e-07 0)
(1.74688e-05 -2.57672e-06 0)
(1.78622e-05 -5.7725e-06 0)
(1.91888e-05 3.52583e-06 0)
(1.94518e-05 4.31074e-07 0)
(1.97534e-05 -2.76472e-06 0)
(2.01312e-05 -5.94591e-06 0)
(2.15747e-05 3.28819e-06 0)
(2.18766e-05 1.90598e-07 0)
(2.21919e-05 -2.97973e-06 0)
(2.2559e-05 -6.145e-06 0)
(2.4145e-05 3.03025e-06 0)
(2.44722e-05 -7.02823e-08 0)
(2.4796e-05 -3.21912e-06 0)
(2.5154e-05 -6.36744e-06 0)
(2.69122e-05 2.75635e-06 0)
(2.7252e-05 -3.4688e-07 0)
(2.7578e-05 -3.47799e-06 0)
(2.79257e-05 -6.60852e-06 0)
(2.98897e-05 2.47185e-06 0)
(3.02301e-05 -6.33326e-07 0)
(3.05508e-05 -3.74954e-06 0)
(3.08841e-05 -6.86166e-06 0)
(3.30911e-05 2.18319e-06 0)
(3.34207e-05 -9.2256e-07 0)
(3.37279e-05 -4.02556e-06 0)
(3.40406e-05 -7.11876e-06 0)
(3.653e-05 1.89789e-06 0)
(3.68383e-05 -1.20643e-06 0)
(3.7123e-05 -4.29675e-06 0)
(3.74077e-05 -7.37058e-06 0)
(4.02203e-05 1.62452e-06 0)
(4.04972e-05 -1.4758e-06 0)
(4.07504e-05 -4.553e-06 0)
(4.09987e-05 -7.60696e-06 0)
(4.41759e-05 1.37276e-06 0)
(4.4412e-05 -1.72054e-06 0)
(4.46244e-05 -4.78337e-06 0)
(4.48278e-05 -7.8168e-06 0)
(4.85724e-05 1.14521e-06 0)
(4.87568e-05 -1.93719e-06 0)
(4.89176e-05 -4.98319e-06 0)
(4.90654e-05 -7.99435e-06 0)
(5.3263e-05 9.69852e-07 0)
(5.33867e-05 -2.09767e-06 0)
(5.34869e-05 -5.12438e-06 0)
(5.35703e-05 -8.11201e-06 0)
(5.79322e-05 8.64886e-07 0)
(5.7992e-05 -2.18477e-06 0)
(5.8028e-05 -5.19075e-06 0)
(5.80439e-05 -8.15479e-06 0)
(6.25753e-05 8.31916e-07 0)
(6.25692e-05 -2.19714e-06 0)
(6.25391e-05 -5.18095e-06 0)
(6.24857e-05 -8.12117e-06 0)
(6.71877e-05 8.71771e-07 0)
(6.71152e-05 -2.13412e-06 0)
(6.70184e-05 -5.09431e-06 0)
(6.68952e-05 -8.01041e-06 0)
(7.17651e-05 9.84284e-07 0)
(7.16268e-05 -1.99596e-06 0)
(7.1464e-05 -4.93113e-06 0)
(7.12719e-05 -7.82279e-06 0)
(7.63031e-05 1.16806e-06 0)
(7.61011e-05 -1.78411e-06 0)
(7.58743e-05 -4.69289e-06 0)
(7.56153e-05 -7.55977e-06 0)
(8.07977e-05 1.42034e-06 0)
(8.05352e-05 -1.50141e-06 0)
(8.02477e-05 -4.38245e-06 0)
(7.99251e-05 -7.22419e-06 0)
(8.52446e-05 1.73692e-06 0)
(8.49262e-05 -1.1521e-06 0)
(8.45824e-05 -4.00407e-06 0)
(8.42008e-05 -6.82031e-06 0)
(8.96401e-05 2.11224e-06 0)
(8.92714e-05 -7.41851e-07 0)
(8.8877e-05 -3.56342e-06 0)
(8.84422e-05 -6.35374e-06 0)
(9.39803e-05 2.53944e-06 0)
(9.35681e-05 -2.77598e-07 0)
(9.31298e-05 -3.06747e-06 0)
(9.26486e-05 -5.83137e-06 0)
(9.82618e-05 3.01052e-06 0)
(9.7814e-05 2.32551e-07 0)
(9.73394e-05 -2.52433e-06 0)
(9.68196e-05 -5.26121e-06 0)
(0.000102481 3.51652e-06 0)
(0.000102006 7.79488e-07 0)
(0.000101504 -1.9431e-06 0)
(0.000100954 -4.65229e-06 0)
(0.000106636 4.04762e-06 0)
(0.000106143 1.35326e-06 0)
(0.000105622 -1.33377e-06 0)
(0.000105051 -4.01444e-06 0)
(0.000110723 4.59334e-06 0)
(0.000110222 1.94325e-06 0)
(0.000109692 -7.06955e-07 0)
(0.00010911 -3.35817e-06 0)
(0.000114739 5.14271e-06 0)
(0.000114241 2.53832e-06 0)
(0.000113711 -7.38067e-08 0)
(0.000113129 -2.69449e-06 0)
(0.000118684 5.68449e-06 0)
(0.000118197 3.12703e-06 0)
(0.000117679 5.54225e-07 0)
(0.000117106 -2.0347e-06 0)
(0.000122554 6.20733e-06 0)
(0.00012209 3.69786e-06 0)
(0.000121592 1.1656e-06 0)
(0.000121039 -1.39019e-06 0)
(0.000126349 6.70007e-06 0)
(0.000125918 4.23946e-06 0)
(0.00012545 1.74894e-06 0)
(0.000124926 -7.72197e-07 0)
(0.000130068 7.15196e-06 0)
(0.000129678 4.74086e-06 0)
(0.00012925 2.29325e-06 0)
(0.000128765 -1.91531e-07 0)
(0.00013371 7.55295e-06 0)
(0.00013337 5.1918e-06 0)
(0.000132989 2.78827e-06 0)
(0.000132551 3.41679e-07 0)
(0.000137275 7.89394e-06 0)
(0.000136992 5.58302e-06 0)
(0.000136666 3.22469e-06 0)
(0.000136283 8.18269e-07 0)
(0.000140763 8.1671e-06 0)
(0.000140543 5.90649e-06 0)
(0.000140278 3.59445e-06 0)
(0.000139956 1.23032e-06 0)
(0.000144174 8.36609e-06 0)
(0.000144022 6.15569e-06 0)
(0.000143822 3.89102e-06 0)
(0.000143566 1.57139e-06 0)
(0.00014751 8.48627e-06 0)
(0.000147429 6.32588e-06 0)
(0.000147298 4.10962e-06 0)
(0.00014711 1.8368e-06 0)
(0.00015077 8.52491e-06 0)
(0.000150762 6.41422e-06 0)
(0.0001507 4.24739e-06 0)
(0.000150583 2.02372e-06 0)
(0.000153957 8.48134e-06 0)
(0.000154021 6.41997e-06 0)
(0.000154029 4.30357e-06 0)
(0.000153981 2.13142e-06 0)
(0.000157071 8.35695e-06 0)
(0.000157205 6.34452e-06 0)
(0.00015728 4.27953e-06 0)
(0.0001573 2.16124e-06 0)
(0.000160114 8.15525e-06 0)
(0.000160314 6.19142e-06 0)
(0.000160451 4.1788e-06 0)
(0.000160535 2.11664e-06 0)
(0.000163086 7.88178e-06 0)
(0.000163346 5.96627e-06 0)
(0.000163541 4.00698e-06 0)
(0.000163682 2.00314e-06 0)
(0.000165989 7.54396e-06 0)
(0.000166301 5.67662e-06 0)
(0.000166546 3.7716e-06 0)
(0.000166738 1.82813e-06 0)
(0.000168822 7.1509e-06 0)
(0.000169179 5.33171e-06 0)
(0.000169466 3.48191e-06 0)
(0.0001697 1.60071e-06 0)
(0.000171587 6.7131e-06 0)
(0.000171977 4.94226e-06 0)
(0.000172296 3.14862e-06 0)
(0.000172562 1.33141e-06 0)
(0.000174282 6.24223e-06 0)
(0.000174696 4.52011e-06 0)
(0.000175037 2.78359e-06 0)
(0.000175324 1.03191e-06 0)
(0.000176908 5.75075e-06 0)
(0.000177333 4.07796e-06 0)
(0.000177685 2.39952e-06 0)
(0.000177982 7.14708e-07 0)
(0.000179462 5.25161e-06 0)
(0.000179888 3.62898e-06 0)
(0.000180239 2.0096e-06 0)
(0.000180535 3.9278e-07 0)
(0.000181945 4.7579e-06 0)
(0.000182359 3.18649e-06 0)
(0.000182698 1.62716e-06 0)
(0.000182981 7.92639e-08 0)
(0.000184353 4.28256e-06 0)
(0.000184744 2.76364e-06 0)
(0.00018506 1.26536e-06 0)
(0.000185318 -2.12881e-07 0)
(0.000186685 3.83804e-06 0)
(0.000187042 2.37308e-06 0)
(0.000187324 9.36848e-07 0)
(0.000187547 -4.71185e-07 0)
(0.000188938 3.43602e-06 0)
(0.000189251 2.02665e-06 0)
(0.000189489 6.5349e-07 0)
(0.000189666 -6.83963e-07 0)
(0.000191109 3.08717e-06 0)
(0.000191369 1.73517e-06 0)
(0.000191554 4.26079e-07 0)
(0.000191676 -8.4058e-07 0)
(0.000193194 2.80094e-06 0)
(0.000193394 1.50818e-06 0)
(0.000193517 2.64138e-07 0)
(0.000193576 -9.3166e-07 0)
(0.000195192 2.58539e-06 0)
(0.000195323 1.35381e-06 0)
(0.000195379 1.75765e-07 0)
(0.000195368 -9.49245e-07 0)
(0.000197098 2.44714e-06 0)
(0.000197156 1.27871e-06 0)
(0.000197138 1.67551e-07 0)
(0.000197052 -8.86889e-07 0)
(0.000198909 2.39134e-06 0)
(0.000198889 1.288e-06 0)
(0.000198795 2.44536e-07 0)
(0.000198629 -7.39697e-07 0)
(0.000200622 2.4216e-06 0)
(0.000200522 1.38525e-06 0)
(0.000200348 4.102e-07 0)
(0.000200101 -5.04359e-07 0)
(0.000202234 2.54002e-06 0)
(0.000202052 1.57247e-06 0)
(0.000201798 6.66406e-07 0)
(0.000201468 -1.79191e-07 0)
(0.000203741 2.747e-06 0)
(0.000203478 1.84994e-06 0)
(0.000203144 1.01328e-06 0)
(0.000202734 2.35739e-07 0)
(0.00020514 3.04112e-06 0)
(0.000204799 2.21603e-06 0)
(0.000204388 1.44901e-06 0)
(0.000203899 7.38436e-07 0)
(0.000206429 3.41889e-06 0)
(0.000206014 2.66699e-06 0)
(0.00020553 1.96961e-06 0)
(0.000204967 1.32477e-06 0)
(0.000207606 3.87464e-06 0)
(0.000207123 3.19678e-06 0)
(0.000206572 2.56884e-06 0)
(0.00020594 1.9884e-06 0)
(0.000208669 4.40061e-06 0)
(0.000208124 3.79722e-06 0)
(0.000207513 3.23825e-06 0)
(0.000206821 2.72085e-06 0)
(0.000209618 4.98736e-06 0)
(0.00020902 4.45844e-06 0)
(0.000208356 3.96777e-06 0)
(0.000207612 3.5121e-06 0)
(0.000210453 5.62458e-06 0)
(0.000209809 5.1697e-06 0)
(0.000209102 4.74649e-06 0)
(0.000208316 4.35136e-06 0)
(0.000211174 6.30184e-06 0)
(0.000210495 5.92032e-06 0)
(0.000209753 5.56366e-06 0)
(0.000208932 5.22818e-06 0)
(0.000211783 7.00918e-06 0)
(0.000211076 6.70015e-06 0)
(0.000210308 6.40915e-06 0)
(0.000209463 6.13285e-06 0)
(0.000212282 7.73616e-06 0)
(0.000211556 7.49905e-06 0)
(0.00021077 7.2731e-06 0)
(0.000209908 7.05607e-06 0)
(0.000212667 8.47229e-06 0)
(0.000211931 8.30662e-06 0)
(0.000211135 8.14459e-06 0)
(0.000210264 7.98607e-06 0)
(0.000212945 9.20492e-06 0)
(0.000212207 9.11099e-06 0)
(0.000211408 9.01332e-06 0)
(0.000210532 8.91514e-06 0)
(0.000213101 9.93898e-06 0)
(0.000212368 9.90677e-06 0)
(0.000211567 9.87178e-06 0)
(0.000210688 9.83755e-06 0)
)
;

boundaryField
{
    plateFix
    {
        type            calculated;
        value           uniform (0 0 0);
    }
    plate
    {
        type            calculated;
        value           nonuniform List<vector> 
168
(
(3.76208e-06 2.07792e-06 2.28342e-23)
(4.34707e-06 -2.45232e-06 -4.08404e-23)
(3.61464e-06 3.31526e-06 6.795e-23)
(4.07064e-06 -3.83737e-06 9.77794e-23)
(3.73146e-06 4.25547e-06 9.93262e-24)
(4.13368e-06 -4.87808e-06 -3.99351e-23)
(4.14617e-06 4.89153e-06 2.11307e-23)
(4.55348e-06 -5.58293e-06 -7.86528e-23)
(4.83799e-06 5.3199e-06 -4.4387e-23)
(5.29297e-06 -6.07002e-06 1.09453e-22)
(5.75075e-06 5.58442e-06 5.03103e-25)
(6.28119e-06 -6.39702e-06 -3.4569e-23)
(6.85383e-06 5.73042e-06 7.02443e-23)
(7.47819e-06 -6.62118e-06 5.36217e-23)
(8.12364e-06 5.78595e-06 -6.46384e-24)
(8.85394e-06 -6.77988e-06 -4.8124e-24)
(9.54849e-06 5.77287e-06 -4.40125e-23)
(1.03921e-05 -6.90299e-06 -6.84813e-23)
(1.11227e-05 5.70577e-06 5.72243e-23)
(1.20826e-05 -7.0118e-06 4.24814e-23)
(1.28461e-05 5.59501e-06 -2.43736e-23)
(1.39211e-05 -7.12221e-06 7.08389e-24)
(1.4722e-05 5.44761e-06 -4.91302e-23)
(1.59059e-05 -7.24531e-06 3.63325e-23)
(1.67569e-05 5.26854e-06 2.32309e-23)
(1.80382e-05 -7.38828e-06 -3.58277e-23)
(1.89592e-05 5.06156e-06 1.81659e-23)
(2.03209e-05 -7.55483e-06 1.57351e-23)
(2.13394e-05 4.83002e-06 -1.94464e-23)
(2.2759e-05 -7.7456e-06 -2.25406e-23)
(2.39092e-05 4.57746e-06 2.30127e-24)
(2.53592e-05 -7.95853e-06 -1.35973e-24)
(2.6681e-05 4.30812e-06 7.73616e-24)
(2.81297e-05 -8.18924e-06 1.98646e-23)
(2.96679e-05 4.02713e-06 -1.44373e-23)
(3.10807e-05 -8.43145e-06 1.67296e-24)
(3.28833e-05 3.74075e-06 7.11384e-24)
(3.42238e-05 -8.67732e-06 -2.23992e-23)
(3.63406e-05 3.45627e-06 6.12433e-24)
(3.75719e-05 -8.91778e-06 4.97229e-23)
(4.00533e-05 3.18208e-06 -1.34031e-23)
(4.11391e-05 -9.1427e-06 -6.34044e-23)
(4.40351e-05 2.92772e-06 -2.09073e-23)
(4.49403e-05 -9.34092e-06 2.22234e-23)
(4.84624e-05 2.69541e-06 9.02052e-24)
(4.91448e-05 -9.5061e-06 -4.40894e-25)
(5.31872e-05 2.51314e-06 3.86443e-23)
(5.36129e-05 -9.61091e-06 -3.74196e-24)
(5.78917e-05 2.39958e-06 -2.41559e-23)
(5.80487e-05 -9.64103e-06 1.94438e-23)
(6.25707e-05 2.35652e-06 6.62844e-25)
(6.24522e-05 -9.59482e-06 -1.64469e-23)
(6.72192e-05 2.38485e-06 1.19369e-23)
(6.68232e-05 -9.47151e-06 3.74356e-24)
(7.18323e-05 2.48444e-06 -2.21491e-23)
(7.11618e-05 -9.27134e-06 -2.34569e-24)
(7.64051e-05 2.65394e-06 2.40057e-23)
(7.54682e-05 -8.99579e-06 -8.84526e-25)
(8.09326e-05 2.8906e-06 -1.07007e-23)
(7.97426e-05 -8.6477e-06 -1.71863e-23)
(8.54102e-05 3.19027e-06 -1.52639e-24)
(8.39856e-05 -8.23128e-06 3.77132e-24)
(8.98332e-05 3.54742e-06 6.53489e-24)
(8.81972e-05 -7.75211e-06 -3.36751e-25)
(9.41972e-05 3.95528e-06 -6.65921e-24)
(9.23776e-05 -7.21703e-06 -9.53114e-24)
(9.84983e-05 4.40592e-06 -4.89615e-24)
(9.65268e-05 -6.634e-06 9.52672e-24)
(0.000102733 4.89043e-06 3.11532e-25)
(0.000100644 -6.01196e-06 -2.69473e-24)
(0.000106897 5.39911e-06 -1.6228e-23)
(0.00010473 -5.36067e-06 5.77006e-24)
(0.000110988 5.92156e-06 6.83935e-24)
(0.000108782 -4.69055e-06 -1.00415e-23)
(0.000115004 6.44693e-06 -5.12195e-24)
(0.000112799 -4.01253e-06 2.95733e-24)
(0.000118942 6.96406e-06 -6.55587e-24)
(0.000116781 -3.33781e-06 7.45582e-24)
(0.0001228 7.46176e-06 1.41151e-23)
(0.000120724 -2.67768e-06 -5.74962e-25)
(0.000126577 7.92897e-06 -2.87629e-24)
(0.000124627 -2.04326e-06 -4.28534e-24)
(0.000130273 8.35507e-06 -1.31879e-23)
(0.000128486 -1.44527e-06 6.80183e-24)
(0.000133887 8.73013e-06 9.58191e-24)
(0.000132298 -8.93725e-07 3.76683e-24)
(0.00013742 9.04521e-06 -5.30062e-24)
(0.00013606 -3.9769e-07 4.94971e-24)
(0.000140873 9.29257e-06 -3.74195e-23)
(0.000139766 3.49997e-08 -4.12237e-23)
(0.000144246 9.46596e-06 -4.0973e-24)
(0.000143413 3.97991e-07 -1.2895e-23)
(0.000147541 9.56085e-06 -1.12106e-23)
(0.000146995 6.86639e-07 3.5145e-23)
(0.000150761 9.57456e-06 -7.70822e-24)
(0.000150507 8.98181e-07 7.95748e-25)
(0.000153907 9.50645e-06 -9.04648e-24)
(0.000153944 1.03188e-06 4.91732e-24)
(0.000156982 9.35792e-06 7.78094e-24)
(0.0001573 1.08907e-06 6.08851e-25)
(0.000159987 9.13246e-06 -5.15555e-24)
(0.000160571 1.07319e-06 -4.70295e-24)
(0.000162926 8.83556e-06 1.32613e-23)
(0.000163751 9.89675e-07 2.69739e-23)
(0.000165799 8.47455e-06 -2.50211e-23)
(0.000166835 8.45854e-07 -4.17257e-23)
(0.000168607 8.05845e-06 -7.9116e-24)
(0.00016982 6.5072e-07 1.82429e-23)
(0.000171352 7.59764e-06 -6.98927e-24)
(0.0001727 4.14692e-07 1.36813e-23)
(0.000174034 7.10365e-06 2.45316e-23)
(0.000175474 1.49317e-07 2.55903e-24)
(0.000176653 6.58879e-06 -4.15655e-24)
(0.000178138 -1.3304e-07 -7.81923e-24)
(0.000179207 6.06588e-06 8.28097e-24)
(0.000180689 -4.19531e-07 2.14416e-23)
(0.000181696 5.54786e-06 -2.68403e-23)
(0.000183128 -6.97155e-07 1.98616e-23)
(0.000184116 5.04753e-06 9.88242e-24)
(0.000185451 -9.5308e-07 -1.37903e-23)
(0.000186467 4.57721e-06 5.74957e-24)
(0.00018766 -1.17496e-06 1.10308e-23)
(0.000188744 4.14848e-06 2.30586e-23)
(0.000189754 -1.35122e-06 2.25441e-23)
(0.000190944 3.77191e-06 -5.29092e-24)
(0.000191733 -1.47134e-06 -3.74453e-23)
(0.000193063 3.45688e-06 2.33529e-23)
(0.000193599 -1.52603e-06 2.15929e-23)
(0.000195098 3.21143e-06 -1.5637e-23)
(0.000195352 -1.50741e-06 1.5768e-23)
(0.000197044 3.04215e-06 2.62171e-24)
(0.000196995 -1.40912e-06 -1.95956e-23)
(0.000198897 2.95418e-06 1.70391e-23)
(0.000198529 -1.22636e-06 -4.00471e-25)
(0.000200654 2.95117e-06 -3.83845e-23)
(0.000199956 -9.55892e-07 9.27679e-26)
(0.000202309 3.03523e-06 1.45412e-23)
(0.000201279 -5.9615e-07 3.95897e-23)
(0.00020386 3.20683e-06 4.25591e-24)
(0.0002025 -1.47303e-07 -1.05376e-23)
(0.000205302 3.46463e-06 -8.47266e-24)
(0.000203623 3.88554e-07 -3.74517e-23)
(0.000206631 3.80529e-06 1.98979e-23)
(0.000204651 1.00723e-06 3.93632e-23)
(0.000207845 4.2233e-06 -4.69702e-24)
(0.000205588 1.70234e-06 4.50635e-24)
(0.000208941 4.71115e-06 2.9092e-23)
(0.000206437 2.46549e-06 1.71242e-23)
(0.000209917 5.25968e-06 -4.32848e-23)
(0.000207201 3.28675e-06 -4.29481e-23)
(0.000210774 5.8588e-06 1.34765e-23)
(0.000207883 4.15551e-06 3.50731e-23)
(0.000211513 6.49818e-06 -4.83158e-24)
(0.000208483 5.06157e-06 9.94756e-24)
(0.000212135 7.16793e-06 -9.22913e-24)
(0.000209002 5.99551e-06 -9.83377e-25)
(0.00021264 7.85709e-06 -1.01973e-23)
(0.00020944 6.94868e-06 2.48889e-23)
(0.000213028 8.55516e-06 -5.41067e-23)
(0.000209792 7.90813e-06 -3.98572e-23)
(0.000213305 9.24686e-06 3.46824e-23)
(0.000210062 8.86738e-06 -2.73661e-25)
(0.000213458 9.94761e-06 3.12832e-23)
(0.000213139 1.02987e-05 7.89556e-24)
(0.00021241 1.02913e-05 -2.97982e-24)
(0.000211605 1.02935e-05 -7.4408e-24)
(0.00021072 1.0296e-05 1.04369e-23)
(0.000210219 9.82161e-06 -3.60971e-23)
)
;
    }
    frontAndBackPlanes
    {
        type            empty;
    }
}


// ************************************************************************* //
