/*--------------------------------*- C++ -*----------------------------------*\
| =========                 |                                                 |
| \\      /  F ield         | OpenFOAM Extend Project: Open source CFD        |
|  \\    /   O peration     | Version:  1.6-ext                               |
|   \\  /    A nd           | Web:      www.extend-project.de                 |
|    \\/     M anipulation  |                                                 |
\*---------------------------------------------------------------------------*/
FoamFile
{
    version     2.0;
    format      ascii;
    class       volVectorField;
    location    "0.65";
    object      DV_0;
}
// * * * * * * * * * * * * * * * * * * * * * * * * * * * * * * * * * * * * * //

dimensions      [0 1 -1 0 0 0 0];

internalField   nonuniform List<vector> 
328
(
(2.90065e-07 5.53736e-07 0)
(2.06446e-07 1.37299e-07 0)
(2.13791e-07 -7.41916e-08 0)
(3.05908e-07 -4.52926e-07 0)
(8.83206e-07 1.42926e-06 0)
(6.7607e-07 3.9125e-07 0)
(6.96719e-07 -2.40755e-07 0)
(9.41697e-07 -1.21316e-06 0)
(1.56835e-06 2.08176e-06 0)
(1.29128e-06 6.17205e-07 0)
(1.32479e-06 -4.23499e-07 0)
(1.68421e-06 -1.83538e-06 0)
(2.31505e-06 2.53781e-06 0)
(2.00883e-06 7.95607e-07 0)
(2.05892e-06 -6.08112e-07 0)
(2.49863e-06 -2.32396e-06 0)
(3.13405e-06 2.83694e-06 0)
(2.83934e-06 9.17223e-07 0)
(2.90947e-06 -7.88637e-07 0)
(3.39562e-06 -2.70969e-06 0)
(4.02333e-06 3.01015e-06 0)
(3.76961e-06 9.77943e-07 0)
(3.86356e-06 -9.62707e-07 0)
(4.37063e-06 -3.01958e-06 0)
(4.98928e-06 3.08364e-06 0)
(4.79909e-06 9.7921e-07 0)
(4.91982e-06 -1.13224e-06 0)
(5.42778e-06 -3.27784e-06 0)
(6.03711e-06 3.07754e-06 0)
(5.92348e-06 9.25296e-07 0)
(6.07311e-06 -1.30087e-06 0)
(6.56932e-06 -3.50346e-06 0)
(7.17397e-06 3.0082e-06 0)
(7.14254e-06 8.22517e-07 0)
(7.32203e-06 -1.47335e-06 0)
(7.79938e-06 -3.71167e-06 0)
(8.40707e-06 2.88852e-06 0)
(8.45669e-06 6.7783e-07 0)
(8.66584e-06 -1.65419e-06 0)
(9.12205e-06 -3.91393e-06 0)
(9.74405e-06 2.72888e-06 0)
(9.86862e-06 4.98187e-07 0)
(1.01061e-05 -1.84717e-06 0)
(1.05419e-05 -4.11866e-06 0)
(1.11926e-05 2.53753e-06 0)
(1.13825e-05 2.89955e-07 0)
(1.16457e-05 -2.0548e-06 0)
(1.20639e-05 -4.33151e-06 0)
(1.27604e-05 2.321e-06 0)
(1.30041e-05 5.86788e-08 0)
(1.32896e-05 -2.27833e-06 0)
(1.36931e-05 -4.55585e-06 0)
(1.44552e-05 2.08437e-06 0)
(1.47405e-05 -1.90999e-07 0)
(1.50438e-05 -2.51771e-06 0)
(1.54352e-05 -4.79308e-06 0)
(1.62852e-05 1.83162e-06 0)
(1.65998e-05 -4.55256e-07 0)
(1.69158e-05 -2.77182e-06 0)
(1.72963e-05 -5.0431e-06 0)
(1.82586e-05 1.56593e-06 0)
(1.8591e-05 -7.30894e-07 0)
(1.89137e-05 -3.03873e-06 0)
(1.92831e-05 -5.30461e-06 0)
(2.0384e-05 1.29012e-06 0)
(2.07235e-05 -1.01505e-06 0)
(2.10465e-05 -3.31582e-06 0)
(2.14031e-05 -5.57536e-06 0)
(2.26705e-05 1.00699e-06 0)
(2.30074e-05 -1.30482e-06 0)
(2.33238e-05 -3.59982e-06 0)
(2.36641e-05 -5.85222e-06 0)
(2.51279e-05 7.19939e-07 0)
(2.54529e-05 -1.59676e-06 0)
(2.57554e-05 -3.88668e-06 0)
(2.60745e-05 -6.13115e-06 0)
(2.77665e-05 4.33458e-07 0)
(2.80706e-05 -1.8863e-06 0)
(2.83513e-05 -4.17116e-06 0)
(2.86432e-05 -6.4068e-06 0)
(3.05972e-05 1.53871e-07 0)
(3.08714e-05 -2.16704e-06 0)
(3.11219e-05 -4.44627e-06 0)
(3.13791e-05 -6.67205e-06 0)
(3.36316e-05 -1.09875e-07 0)
(3.38665e-05 -2.42995e-06 0)
(3.40776e-05 -4.70253e-06 0)
(3.42917e-05 -6.91734e-06 0)
(3.70055e-05 -3.54508e-07 0)
(3.7189e-05 -2.67146e-06 0)
(3.73493e-05 -4.93578e-06 0)
(3.75088e-05 -7.13804e-06 0)
(4.06075e-05 -5.48026e-07 0)
(4.07287e-05 -2.85927e-06 0)
(4.08273e-05 -5.11361e-06 0)
(4.09214e-05 -7.30217e-06 0)
(4.4196e-05 -6.6619e-07 0)
(4.42492e-05 -2.96918e-06 0)
(4.42804e-05 -5.2123e-06 0)
(4.43036e-05 -7.38701e-06 0)
(4.77669e-05 -7.03564e-07 0)
(4.77481e-05 -2.99572e-06 0)
(4.77082e-05 -5.22637e-06 0)
(4.76566e-05 -7.3872e-06 0)
(5.13157e-05 -6.56969e-07 0)
(5.12229e-05 -2.93566e-06 0)
(5.111e-05 -5.15263e-06 0)
(5.09819e-05 -7.2997e-06 0)
(5.48381e-05 -5.25653e-07 0)
(5.46714e-05 -2.78828e-06 0)
(5.44854e-05 -4.99035e-06 0)
(5.42807e-05 -7.12383e-06 0)
(5.83295e-05 -3.11283e-07 0)
(5.8091e-05 -2.55529e-06 0)
(5.78338e-05 -4.74129e-06 0)
(5.75547e-05 -6.86135e-06 0)
(6.1786e-05 -1.77394e-08 0)
(6.14795e-05 -2.24069e-06 0)
(6.11547e-05 -4.40944e-06 0)
(6.08051e-05 -6.51617e-06 0)
(6.52033e-05 3.49143e-07 0)
(6.48344e-05 -1.85043e-06 0)
(6.44474e-05 -4.00077e-06 0)
(6.40328e-05 -6.09413e-06 0)
(6.85781e-05 7.81879e-07 0)
(6.81537e-05 -1.39215e-06 0)
(6.77111e-05 -3.52291e-06 0)
(6.72385e-05 -5.60273e-06 0)
(7.19067e-05 1.27161e-06 0)
(7.14351e-05 -8.74883e-07 0)
(7.0945e-05 -2.9849e-06 0)
(7.04225e-05 -5.05083e-06 0)
(7.51864e-05 1.80837e-06 0)
(7.46766e-05 -3.08755e-07 0)
(7.4148e-05 -2.39687e-06 0)
(7.35848e-05 -4.44843e-06 0)
(7.84143e-05 2.38131e-06 0)
(7.78765e-05 2.95219e-07 0)
(7.7319e-05 -1.76983e-06 0)
(7.67251e-05 -3.80636e-06 0)
(8.1588e-05 2.97894e-06 0)
(8.10327e-05 9.25372e-07 0)
(8.04567e-05 -1.11546e-06 0)
(7.98428e-05 -3.13614e-06 0)
(8.47056e-05 3.58932e-06 0)
(8.41437e-05 1.56959e-06 0)
(8.35598e-05 -4.45884e-07 0)
(8.29367e-05 -2.44974e-06 0)
(8.77653e-05 4.20027e-06 0)
(8.72078e-05 2.21551e-06 0)
(8.66268e-05 2.26534e-07 0)
(8.60056e-05 -1.75938e-06 0)
(9.07656e-05 4.79959e-06 0)
(9.02235e-05 2.85076e-06 0)
(8.96562e-05 8.89397e-07 0)
(8.90478e-05 -1.07728e-06 0)
(9.37057e-05 5.37528e-06 0)
(9.31896e-05 3.46315e-06 0)
(9.26463e-05 1.53049e-06 0)
(9.20614e-05 -4.15531e-07 0)
(9.65847e-05 5.91575e-06 0)
(9.61047e-05 4.04089e-06 0)
(9.55954e-05 2.13803e-06 0)
(9.50442e-05 2.14236e-07 0)
(9.94022e-05 6.41006e-06 0)
(9.89678e-05 4.57288e-06 0)
(9.85017e-05 2.70086e-06 0)
(9.79935e-05 8.01011e-07 0)
(0.000102158 6.84819e-06 0)
(0.000101778 5.04888e-06 0)
(0.000101363 3.20874e-06 0)
(0.000100907 1.33467e-06 0)
(0.000104853 7.22122e-06 0)
(0.000104534 5.45981e-06 0)
(0.000104178 3.65255e-06 0)
(0.00010378 1.80622e-06 0)
(0.000107488 7.52161e-06 0)
(0.000107236 5.79798e-06 0)
(0.000106944 4.02455e-06 0)
(0.000106611 2.20802e-06 0)
(0.000110063 7.74338e-06 0)
(0.000109882 6.05726e-06 0)
(0.000109659 4.3186e-06 0)
(0.000109395 2.53399e-06 0)
(0.00011258 7.88234e-06 0)
(0.000112473 6.23331e-06 0)
(0.000112321 4.53031e-06 0)
(0.00011213 2.7798e-06 0)
(0.000115039 7.93616e-06 0)
(0.000115008 6.32375e-06 0)
(0.000114928 4.65726e-06 0)
(0.00011481 2.94304e-06 0)
(0.000117443 7.90457e-06 0)
(0.000117486 6.32821e-06 0)
(0.000117477 4.69905e-06 0)
(0.000117432 3.0233e-06 0)
(0.000119793 7.78933e-06 0)
(0.000119908 6.24846e-06 0)
(0.000119968 4.6574e-06 0)
(0.000119992 3.02226e-06 0)
(0.00012209 7.5943e-06 0)
(0.000122273 6.08836e-06 0)
(0.000122397 4.53615e-06 0)
(0.000122487 2.94366e-06 0)
(0.000124337 7.32536e-06 0)
(0.00012458 5.85384e-06 0)
(0.000124763 4.34119e-06 0)
(0.000124912 2.79329e-06 0)
(0.000126533 6.99027e-06 0)
(0.00012683 5.55276e-06 0)
(0.000127063 4.08036e-06 0)
(0.000127264 2.57884e-06 0)
(0.000128681 6.59855e-06 0)
(0.000129022 5.19477e-06 0)
(0.000129297 3.76328e-06 0)
(0.000129541 2.30974e-06 0)
(0.000130781 6.1612e-06 0)
(0.000131155 4.79102e-06 0)
(0.000131462 3.40108e-06 0)
(0.000131738 1.99696e-06 0)
(0.000132833 5.69045e-06 0)
(0.00013323 4.35395e-06 0)
(0.000133558 3.00619e-06 0)
(0.000133855 1.65269e-06 0)
(0.000134837 5.19947e-06 0)
(0.000135245 3.89691e-06 0)
(0.000135582 2.59197e-06 0)
(0.000135888 1.29008e-06 0)
(0.000136793 4.702e-06 0)
(0.000137199 3.43388e-06 0)
(0.000137533 2.17238e-06 0)
(0.000137837 9.22878e-07 0)
(0.0001387 4.21205e-06 0)
(0.000139092 2.9791e-06 0)
(0.000139411 1.76167e-06 0)
(0.0001397 5.65111e-07 0)
(0.000140557 3.74352e-06 0)
(0.000140922 2.54672e-06 0)
(0.000141215 1.37402e-06 0)
(0.000141476 2.30744e-07 0)
(0.000142362 3.30994e-06 0)
(0.000142689 2.15047e-06 0)
(0.000142944 1.02317e-06 0)
(0.000143165 -6.66531e-08 0)
(0.000144113 2.92409e-06 0)
(0.000144391 1.80338e-06 0)
(0.000144597 7.22169e-07 0)
(0.000144768 -3.14217e-07 0)
(0.000145806 2.59771e-06 0)
(0.000146025 1.51739e-06 0)
(0.000146174 4.83005e-07 0)
(0.000146285 -5.00106e-07 0)
(0.000147439 2.34122e-06 0)
(0.000147591 1.30312e-06 0)
(0.000147674 3.16321e-07 0)
(0.000147716 -6.13793e-07 0)
(0.000149009 2.16346e-06 0)
(0.000149087 1.16954e-06 0)
(0.000149096 2.31147e-07 0)
(0.000149063 -6.46334e-07 0)
(0.000150512 2.07144e-06 0)
(0.00015051 1.12382e-06 0)
(0.000150441 2.34671e-07 0)
(0.000150327 -5.90587e-07 0)
(0.000151944 2.07025e-06 0)
(0.000151859 1.17112e-06 0)
(0.000151708 3.32099e-07 0)
(0.000151508 -4.41363e-07 0)
(0.000153301 2.16298e-06 0)
(0.000153131 1.31458e-06 0)
(0.000152897 5.2661e-07 0)
(0.00015261 -1.95474e-07 0)
(0.000154579 2.35077e-06 0)
(0.000154324 1.55537e-06 0)
(0.000154006 8.19402e-07 0)
(0.000153632 1.48302e-07 0)
(0.000155775 2.63298e-06 0)
(0.000155436 1.89282e-06 0)
(0.000155036 1.2098e-06 0)
(0.000154576 5.89306e-07 0)
(0.000156884 3.00721e-06 0)
(0.000156465 2.32447e-06 0)
(0.000155986 1.69536e-06 0)
(0.000155444 1.12508e-06 0)
(0.000157904 3.46937e-06 0)
(0.000157409 2.84615e-06 0)
(0.000156856 2.27181e-06 0)
(0.000156237 1.75134e-06 0)
(0.000158829 4.01359e-06 0)
(0.000158266 3.45176e-06 0)
(0.000157646 2.93297e-06 0)
(0.000156956 2.46184e-06 0)
(0.000159658 4.63204e-06 0)
(0.000159034 4.13312e-06 0)
(0.000158355 3.67046e-06 0)
(0.000157602 3.24812e-06 0)
(0.000160388 5.31482e-06 0)
(0.000159712 4.87982e-06 0)
(0.000158983 4.47353e-06 0)
(0.000158178 4.09932e-06 0)
(0.000161018 6.05034e-06 0)
(0.0001603 5.67947e-06 0)
(0.000159531 5.32926e-06 0)
(0.000158684 5.00227e-06 0)
(0.000161547 6.82616e-06 0)
(0.000160798 6.51859e-06 0)
(0.00016 6.22336e-06 0)
(0.000159124 5.94222e-06 0)
(0.000161978 7.63091e-06 0)
(0.000161209 7.38432e-06 0)
(0.000160393 7.14167e-06 0)
(0.000159498 6.90402e-06 0)
(0.000162316 8.45614e-06 0)
(0.000161536 8.26638e-06 0)
(0.000160713 8.07272e-06 0)
(0.00015981 7.87527e-06 0)
(0.000162564 9.29778e-06 0)
(0.000161783 9.1575e-06 0)
(0.000160964 9.0089e-06 0)
(0.000160064 8.84882e-06 0)
(0.000162736 1.01482e-05 0)
(0.000161965 1.00478e-05 0)
(0.000161158 9.94595e-06 0)
(0.000160273 9.83192e-06 0)
(0.000162833 1.09773e-05 0)
(0.000162073 1.0909e-05 0)
(0.000161276 1.08588e-05 0)
(0.000160419 1.08025e-05 0)
)
;

boundaryField
{
    plateFix
    {
        type            calculated;
        value           uniform (0 0 0);
    }
    plate
    {
        type            calculated;
        value           nonuniform List<vector> 
168
(
(2.71537e-06 1.42892e-06 -8.81438e-24)
(2.22107e-06 -1.17336e-06 -3.53592e-23)
(2.6659e-06 2.34588e-06 -2.7613e-23)
(2.52938e-06 -2.04367e-06 -3.80436e-23)
(2.77488e-06 3.04814e-06 -2.73706e-23)
(2.87375e-06 -2.75128e-06 2.88239e-23)
(3.08178e-06 3.52764e-06 3.09483e-23)
(3.37236e-06 -3.2867e-06 1.07867e-22)
(3.58137e-06 3.84788e-06 6.19062e-23)
(4.04378e-06 -3.71073e-06 -1.25517e-22)
(4.24118e-06 4.03687e-06 -1.02381e-22)
(4.86393e-06 -4.0478e-06 1.71096e-23)
(5.04471e-06 4.12545e-06 -3.54476e-24)
(5.81939e-06 -4.3277e-06 -1.80156e-23)
(5.97899e-06 4.13376e-06 2.5077e-23)
(6.89678e-06 -4.56993e-06 3.12419e-23)
(7.03826e-06 4.07875e-06 3.85659e-23)
(8.08857e-06 -4.79116e-06 2.3546e-23)
(8.22003e-06 3.97305e-06 -3.55534e-23)
(9.38984e-06 -5.00332e-06 -1.16655e-23)
(9.52477e-06 3.8268e-06 -1.70383e-23)
(1.07986e-05 -5.21532e-06 -3.38218e-23)
(1.09548e-05 3.6479e-06 2.03247e-23)
(1.23149e-05 -5.43312e-06 -4.2528e-23)
(1.25138e-05 3.44263e-06 6.58007e-24)
(1.39407e-05 -5.66044e-06 3.97666e-23)
(1.42067e-05 3.2159e-06 -2.52561e-23)
(1.56793e-05 -5.89903e-06 -2.89178e-24)
(1.60394e-05 2.9716e-06 3.74337e-23)
(1.75356e-05 -6.14909e-06 -1.3337e-23)
(1.80189e-05 2.71293e-06 -8.83774e-24)
(1.95156e-05 -6.40959e-06 1.05299e-23)
(2.01528e-05 2.44275e-06 -7.60203e-24)
(2.16264e-05 -6.67846e-06 1.25854e-23)
(2.24502e-05 2.16399e-06 3.05357e-23)
(2.38757e-05 -6.95274e-06 -8.22513e-24)
(2.49207e-05 1.88014e-06 -2.56589e-23)
(2.62716e-05 -7.2284e-06 3.43147e-25)
(2.75751e-05 1.59579e-06 -2.05529e-23)
(2.88227e-05 -7.50011e-06 -2.81276e-23)
(3.04251e-05 1.31728e-06 1.89968e-23)
(3.15374e-05 -7.76072e-06 5.00553e-23)
(3.34831e-05 1.0536e-06 1.94e-23)
(3.44244e-05 -8.00069e-06 -2.06577e-23)
(3.68867e-05 8.07832e-07 -1.16936e-23)
(3.76097e-05 -8.21527e-06 1.07209e-23)
(4.05242e-05 6.11865e-07 -3.67953e-23)
(4.09845e-05 -8.37271e-06 -1.25772e-23)
(4.41514e-05 4.89855e-07 2.80463e-23)
(4.43258e-05 -8.45083e-06 -5.28003e-24)
(4.7763e-05 4.47173e-07 1.85155e-24)
(4.76358e-05 -8.44439e-06 2.1298e-24)
(5.13537e-05 4.86952e-07 3.04556e-24)
(5.09171e-05 -8.35046e-06 4.34538e-24)
(5.49176e-05 6.09949e-07 -3.42378e-25)
(5.41723e-05 -8.16842e-06 9.21431e-24)
(5.84493e-05 8.14534e-07 -1.32466e-23)
(5.7404e-05 -7.90001e-06 -1.44236e-23)
(6.19435e-05 1.09689e-06 -2.97005e-24)
(6.06145e-05 -7.54909e-06 2.63055e-23)
(6.53954e-05 1.45128e-06 9.88773e-24)
(6.38056e-05 -7.12143e-06 -4.29439e-24)
(6.88005e-05 1.87031e-06 -1.30347e-24)
(6.69789e-05 -6.62443e-06 -5.43693e-25)
(7.21549e-05 2.34523e-06 2.50381e-24)
(7.01351e-05 -6.06686e-06 3.67288e-24)
(7.54551e-05 2.86618e-06 -3.33948e-24)
(7.32749e-05 -5.45859e-06 -8.91783e-24)
(7.86979e-05 3.42242e-06 -1.23473e-23)
(7.63982e-05 -4.81039e-06 4.22515e-24)
(8.18807e-05 4.00256e-06 1.24736e-23)
(7.95047e-05 -4.13366e-06 -7.10475e-24)
(8.50014e-05 4.59477e-06 2.89305e-24)
(8.25935e-05 -3.44027e-06 1.34441e-23)
(8.8058e-05 5.187e-06 4.47538e-24)
(8.56633e-05 -2.74234e-06 -6.75708e-24)
(9.10493e-05 5.76714e-06 -3.09374e-24)
(8.87126e-05 -2.05202e-06 -5.02641e-24)
(9.39744e-05 6.32332e-06 -4.03358e-24)
(9.17391e-05 -1.38126e-06 9.51185e-24)
(9.68328e-05 6.84405e-06 -2.33029e-24)
(9.47405e-05 -7.41628e-07 -4.75049e-24)
(9.96245e-05 7.31853e-06 8.98719e-24)
(9.77137e-05 -1.4403e-07 -1.93223e-23)
(0.00010235 7.73683e-06 -1.57722e-23)
(0.000100655 4.01496e-07 1.25485e-23)
(0.00010501 8.09016e-06 -5.06555e-24)
(0.000103562 8.86032e-07 -4.14466e-24)
(0.000107607 8.37108e-06 1.79044e-23)
(0.000106429 1.302e-06 2.30203e-23)
(0.000110141 8.5737e-06 4.92908e-24)
(0.000109252 1.64338e-06 1.06462e-23)
(0.000112616 8.69388e-06 -1.76938e-24)
(0.000112027 1.90589e-06 -2.92767e-23)
(0.000115032 8.72937e-06 1.91869e-23)
(0.000114748 2.08711e-06 -1.54367e-24)
(0.000117394 8.67992e-06 -3.13097e-24)
(0.000117411 2.18665e-06 8.97781e-24)
(0.000119703 8.54731e-06 2.78482e-23)
(0.000120011 2.20616e-06 4.32294e-24)
(0.000121961 8.33537e-06 -5.39075e-24)
(0.000122543 2.14932e-06 -4.17241e-25)
(0.000124173 8.04996e-06 5.11601e-24)
(0.000125003 2.02186e-06 -4.89835e-23)
(0.000126338 7.69876e-06 1.44124e-23)
(0.000127385 1.83136e-06 3.13921e-23)
(0.00012846 7.29121e-06 3.29209e-25)
(0.000129686 1.58717e-06 -2.55261e-23)
(0.00013054 6.83819e-06 9.42387e-24)
(0.000131902 1.30011e-06 -4.39109e-24)
(0.000132578 6.35183e-06 -1.85459e-23)
(0.000134032 9.82256e-07 1.23806e-23)
(0.000134576 5.84514e-06 1.55598e-23)
(0.000136071 6.46596e-07 4.93561e-24)
(0.000136532 5.33173e-06 -2.74617e-24)
(0.000138018 3.06746e-07 -2.03096e-23)
(0.000138447 4.82545e-06 1.59898e-23)
(0.000139873 -2.34089e-08 -2.22434e-23)
(0.000140318 4.34007e-06 -9.6857e-24)
(0.000141634 -3.3004e-07 2.44056e-23)
(0.000142143 3.88895e-06 1.03832e-23)
(0.000143302 -5.99702e-07 -1.31081e-23)
(0.000143921 3.48475e-06 -2.47377e-23)
(0.000144877 -8.19648e-07 -1.77419e-23)
(0.000145647 3.13906e-06 -5.97897e-24)
(0.00014636 -9.78135e-07 3.64785e-23)
(0.000147317 2.8622e-06 -2.63865e-23)
(0.000147753 -1.06472e-06 -9.07405e-24)
(0.000148928 2.66291e-06 2.14951e-23)
(0.000149057 -1.07052e-06 -2.54322e-23)
(0.000150476 2.54812e-06 -2.20533e-23)
(0.000150275 -9.88427e-07 2.59272e-23)
(0.000151954 2.52287e-06 -2.97792e-23)
(0.000151409 -8.1327e-07 -3.45334e-24)
(0.000153359 2.59024e-06 3.43119e-23)
(0.000152461 -5.41855e-07 3.07253e-24)
(0.000154685 2.75138e-06 -1.09287e-23)
(0.000153434 -1.72949e-07 -1.7415e-23)
(0.000155929 3.00565e-06 -1.06288e-23)
(0.000154329 2.92797e-07 -4.36524e-24)
(0.000157084 3.35068e-06 -1.53128e-23)
(0.00015515 8.52915e-07 6.64203e-24)
(0.000158146 3.78246e-06 1.56153e-23)
(0.000155898 1.5031e-06 -3.79858e-24)
(0.000159112 4.2952e-06 8.09679e-24)
(0.000156575 2.23705e-06 -1.70637e-23)
(0.000159977 4.88126e-06 -4.01862e-24)
(0.000157185 3.04625e-06 -1.70146e-23)
(0.000160737 5.53105e-06 1.34958e-23)
(0.00015773 3.9198e-06 7.84075e-24)
(0.000161391 6.23346e-06 3.82219e-24)
(0.000158213 4.84444e-06 1.74243e-23)
(0.000161939 6.97669e-06 2.31705e-23)
(0.000158635 5.80533e-06 -3.20338e-23)
(0.000162384 7.75032e-06 -2.33293e-23)
(0.000158999 6.78686e-06 1.50056e-23)
(0.000162732 8.54693e-06 3.85764e-23)
(0.000159305 7.77629e-06 -2.91466e-23)
(0.000162989 9.36459e-06 3.4407e-23)
(0.000159552 8.76532e-06 2.49224e-23)
(0.000163163 1.01985e-05 -9.5489e-24)
(0.000159754 9.77069e-06 1.20129e-25)
(0.000163246 1.10172e-05 -5.68887e-23)
(0.000162864 1.13601e-05 -1.40528e-23)
(0.000162111 1.12966e-05 1.52609e-25)
(0.000161316 1.12768e-05 9.15736e-24)
(0.00016049 1.12686e-05 -4.4868e-24)
(0.0001599 1.07686e-05 1.55028e-23)
)
;
    }
    frontAndBackPlanes
    {
        type            empty;
    }
}


// ************************************************************************* //
