/*--------------------------------*- C++ -*----------------------------------*\
| =========                 |                                                 |
| \\      /  F ield         | OpenFOAM Extend Project: Open source CFD        |
|  \\    /   O peration     | Version:  1.6-ext                               |
|   \\  /    A nd           | Web:      www.extend-project.de                 |
|    \\/     M anipulation  |                                                 |
\*---------------------------------------------------------------------------*/
FoamFile
{
    version     2.0;
    format      ascii;
    class       surfaceScalarField;
    location    "0.65";
    object      meshPhi;
}
// * * * * * * * * * * * * * * * * * * * * * * * * * * * * * * * * * * * * * //

dimensions      [0 3 -1 0 0 0 0];

internalField   nonuniform List<scalar> 
570
(
-1.57915e-10
-3.99738e-09
-1.02937e-11
-1.09038e-09
1.42026e-10
-1.10923e-09
-3.89826e-09
-4.7908e-10
-4.69027e-09
-3.28768e-11
-2.41837e-09
4.27063e-10
-2.46201e-09
-4.6447e-09
-7.82479e-10
-5.74488e-09
-5.8047e-11
-4.02486e-09
6.88165e-10
-4.1007e-09
-5.78035e-09
-1.0621e-09
-7.14882e-09
-8.57525e-11
-5.86508e-09
9.19785e-10
-5.98041e-09
-7.29264e-09
-1.31826e-09
-8.86962e-09
-1.15719e-10
-7.93597e-09
1.12328e-09
-8.09902e-09
-9.15049e-09
-1.55305e-09
-1.08632e-08
-1.47252e-10
-1.02208e-08
1.30262e-09
-1.04407e-08
-1.13114e-08
-1.76872e-09
-1.31045e-08
-1.79043e-10
-1.27146e-08
1.46307e-09
-1.3002e-08
-1.37535e-08
-1.96719e-09
-1.55756e-08
-2.08926e-10
-1.54129e-08
1.61123e-09
-1.57798e-08
-1.64633e-08
-2.14948e-09
-1.82679e-08
-2.33534e-10
-1.83164e-08
1.75513e-09
-1.87769e-08
-1.94375e-08
-2.31503e-09
-2.11781e-08
-2.47838e-10
-2.14288e-08
1.90457e-09
-2.19991e-08
-2.26791e-08
-2.46087e-09
-2.4307e-08
-2.44517e-10
-2.47576e-08
2.07148e-09
-2.54565e-08
-2.61966e-08
-2.58059e-09
-2.76588e-08
-2.13121e-10
-2.83133e-08
2.2706e-09
-2.91622e-08
-3.00023e-08
-2.66301e-09
-3.12403e-08
-1.38953e-10
-3.21091e-08
2.52043e-09
-3.31327e-08
-3.41124e-08
-2.69059e-09
-3.50601e-08
-1.58497e-12
-3.61604e-08
2.84456e-09
-3.73868e-08
-3.85461e-08
-2.63746e-09
-3.91287e-08
2.2709e-10
-4.04844e-08
3.27365e-09
-4.19456e-08
-4.33255e-08
-2.46687e-09
-4.34583e-08
5.85429e-10
-4.50999e-08
3.84798e-09
-4.68322e-08
-4.84755e-08
-2.12792e-09
-4.80617e-08
1.1254e-09
-5.00265e-08
4.62089e-09
-5.20709e-08
-5.40229e-08
-1.55129e-09
-5.29529e-08
1.91698e-09
-5.52849e-08
5.66335e-09
-5.76874e-08
-5.99971e-08
-6.43664e-10
-5.81465e-08
3.05387e-09
-6.08961e-08
7.06979e-09
-6.37084e-08
-6.64293e-08
7.19609e-10
-6.36576e-08
4.66094e-09
-6.68819e-08
8.96562e-09
-7.01617e-08
-7.33525e-08
2.70404e-09
-6.95015e-08
6.90383e-09
-7.32645e-08
1.15169e-08
-7.70756e-08
-8.0801e-08
5.52835e-09
-7.56913e-08
1.00013e-08
-8.00664e-08
1.49428e-08
-8.44796e-08
-8.8813e-08
1.03485e-08
-8.27315e-08
1.54588e-08
-8.78419e-08
2.11379e-08
-9.2986e-08
-9.80506e-08
1.53229e-08
-8.9669e-08
2.03889e-08
-9.55546e-08
2.60526e-08
-1.01466e-07
-1.07302e-07
2.10925e-08
-9.65091e-08
2.61133e-08
-1.03202e-07
3.17574e-08
-1.09914e-07
-1.16553e-07
2.76899e-08
-1.03254e-07
3.26645e-08
-1.10783e-07
3.82847e-08
-1.18323e-07
-1.25795e-07
3.51437e-08
-1.09905e-07
4.00708e-08
-1.18296e-07
4.56631e-08
-1.26688e-07
-1.35017e-07
4.34784e-08
-1.16464e-07
4.83568e-08
-1.25737e-07
5.3917e-08
-1.35003e-07
-1.44209e-07
5.27142e-08
-1.22933e-07
5.75427e-08
-1.33104e-07
6.30666e-08
-1.43262e-07
-1.53363e-07
6.28677e-08
-1.29314e-07
6.7645e-08
-1.40397e-07
7.31285e-08
-1.51459e-07
-1.62468e-07
7.39513e-08
-1.35607e-07
7.86761e-08
-1.47612e-07
8.41153e-08
-1.59589e-07
-1.71516e-07
8.59741e-08
-1.41814e-07
9.06449e-08
-1.54747e-07
9.60358e-08
-1.67646e-07
-1.80497e-07
9.89416e-08
-1.47934e-07
1.03557e-07
-1.61799e-07
1.08896e-07
-1.75624e-07
-1.89403e-07
1.12857e-07
-1.53969e-07
1.17415e-07
-1.68767e-07
1.22698e-07
-1.83519e-07
-1.98227e-07
1.27719e-07
-1.59918e-07
1.32218e-07
-1.75648e-07
1.37442e-07
-1.91325e-07
-2.0696e-07
1.43525e-07
-1.65782e-07
1.47964e-07
-1.82439e-07
1.53125e-07
-1.99038e-07
-2.15596e-07
1.60271e-07
-1.71558e-07
1.64648e-07
-1.89137e-07
1.69742e-07
-2.06653e-07
-2.24127e-07
1.77949e-07
-1.77247e-07
1.82262e-07
-1.95739e-07
1.87287e-07
-2.14164e-07
-2.32549e-07
1.96551e-07
-1.82846e-07
2.00798e-07
-2.02244e-07
2.05751e-07
-2.21569e-07
-2.40854e-07
2.16066e-07
-1.88356e-07
2.20246e-07
-2.08648e-07
2.25123e-07
-2.28863e-07
-2.49037e-07
2.36484e-07
-1.93774e-07
2.40595e-07
-2.14948e-07
2.45393e-07
-2.36041e-07
-2.57093e-07
2.57791e-07
-1.99099e-07
2.61831e-07
-2.21142e-07
2.66549e-07
-2.43101e-07
-2.65018e-07
2.79975e-07
-2.04329e-07
2.83942e-07
-2.27228e-07
2.88576e-07
-2.50039e-07
-2.72806e-07
3.0302e-07
-2.09462e-07
3.06913e-07
-2.33202e-07
3.11462e-07
-2.56851e-07
-2.80455e-07
3.26913e-07
-2.14497e-07
3.30729e-07
-2.39063e-07
3.3519e-07
-2.63534e-07
-2.87959e-07
3.51636e-07
-2.19433e-07
3.55375e-07
-2.44808e-07
3.59746e-07
-2.70085e-07
-2.95315e-07
3.77174e-07
-2.24267e-07
3.80835e-07
-2.50435e-07
3.85114e-07
-2.76501e-07
-3.02519e-07
4.03509e-07
-2.28999e-07
4.07091e-07
-2.55942e-07
4.11276e-07
-2.8278e-07
-3.09569e-07
4.30625e-07
-2.33627e-07
4.34125e-07
-2.61326e-07
4.38216e-07
-2.88918e-07
-3.1646e-07
4.58502e-07
-2.38149e-07
4.61921e-07
-2.66587e-07
4.65915e-07
-2.94913e-07
-3.2319e-07
4.87122e-07
-2.42566e-07
4.90458e-07
-2.71721e-07
4.94354e-07
-3.00763e-07
-3.29755e-07
5.16466e-07
-2.46875e-07
5.19718e-07
-2.76728e-07
5.23515e-07
-3.06465e-07
-3.36152e-07
5.46513e-07
-2.51076e-07
5.4968e-07
-2.81606e-07
5.53376e-07
-3.12017e-07
-3.42378e-07
5.77242e-07
-2.55167e-07
5.80324e-07
-2.86352e-07
5.83917e-07
-3.17416e-07
-3.4843e-07
6.08631e-07
-2.59149e-07
6.11627e-07
-2.90965e-07
6.15117e-07
-3.22659e-07
-3.54304e-07
6.40659e-07
-2.6302e-07
6.43568e-07
-2.95444e-07
6.46952e-07
-3.27745e-07
-3.59998e-07
6.73301e-07
-2.66778e-07
6.76122e-07
-2.99787e-07
6.794e-07
-3.3267e-07
-3.65507e-07
7.06534e-07
-2.70424e-07
7.09266e-07
-3.03992e-07
7.12436e-07
-3.37433e-07
-3.70829e-07
7.40332e-07
-2.73956e-07
7.42975e-07
-3.08056e-07
7.46035e-07
-3.4203e-07
-3.7596e-07
7.7467e-07
-2.77372e-07
7.77222e-07
-3.11979e-07
7.80171e-07
-3.46459e-07
-3.80896e-07
8.09522e-07
-2.80672e-07
8.11982e-07
-3.15759e-07
8.14817e-07
-3.50718e-07
-3.85635e-07
8.44859e-07
-2.83854e-07
8.47226e-07
-3.19392e-07
8.49946e-07
-3.54802e-07
-3.90173e-07
8.80654e-07
-2.86916e-07
8.82926e-07
-3.22877e-07
8.85529e-07
-3.58711e-07
-3.94506e-07
9.16878e-07
-2.89858e-07
9.19053e-07
-3.26212e-07
9.21538e-07
-3.6244e-07
-3.98631e-07
9.53501e-07
-2.92676e-07
9.55578e-07
-3.29395e-07
9.57941e-07
-3.65988e-07
-4.02545e-07
9.90493e-07
-2.95368e-07
9.9247e-07
-3.32422e-07
9.94711e-07
-3.69351e-07
-4.06245e-07
1.02782e-06
-2.97933e-07
1.0297e-06
-3.35292e-07
1.03182e-06
-3.72527e-07
-4.09728e-07
1.06546e-06
-3.00367e-07
1.06724e-06
-3.38002e-07
1.06922e-06
-3.75514e-07
-4.12993e-07
1.10338e-06
-3.02667e-07
1.10505e-06
-3.40549e-07
1.10691e-06
-3.7831e-07
-4.16036e-07
1.14155e-06
-3.04832e-07
1.1431e-06
-3.42931e-07
1.14483e-06
-3.80911e-07
-4.18857e-07
1.17993e-06
-3.06857e-07
1.18138e-06
-3.45146e-07
1.18297e-06
-3.83317e-07
-4.21453e-07
1.2185e-06
-3.08738e-07
1.21983e-06
-3.4719e-07
1.2213e-06
-3.85526e-07
-4.23825e-07
1.25723e-06
-3.10472e-07
1.25845e-06
-3.49061e-07
1.25978e-06
-3.87536e-07
-4.25972e-07
1.29609e-06
-3.12055e-07
1.2972e-06
-3.50756e-07
1.29839e-06
-3.89345e-07
-4.27893e-07
1.33506e-06
-3.13483e-07
1.33605e-06
-3.52272e-07
1.3371e-06
-3.90954e-07
-4.29591e-07
1.37412e-06
-3.1475e-07
1.37498e-06
-3.53607e-07
1.37589e-06
-3.9236e-07
-4.31065e-07
1.41323e-06
-3.15852e-07
1.41396e-06
-3.54758e-07
1.41474e-06
-3.93564e-07
-4.32317e-07
1.45238e-06
-3.16783e-07
1.45298e-06
-3.5572e-07
1.45362e-06
-3.94564e-07
-4.33351e-07
1.49155e-06
-3.17537e-07
1.49203e-06
-3.5649e-07
1.49252e-06
-3.95359e-07
-4.34169e-07
1.53073e-06
-3.18114e-07
1.53107e-06
-3.57065e-07
1.53143e-06
-3.95949e-07
-4.34783e-07
1.56989e-06
-3.18512e-07
1.57011e-06
-3.5744e-07
1.57034e-06
-3.96336e-07
-4.35209e-07
1.609e-06
1.60914e-06
1.60929e-06
)
;

boundaryField
{
    plateFix
    {
        type            calculated;
        value           nonuniform List<scalar> 4(3.1202e-09 -3.25938e-14 1.17622e-13 2.98087e-09);
    }
    plate
    {
        type            calculated;
        value           nonuniform List<scalar> 
168
(
7.10285e-10
7.16757e-10
1.25412e-09
1.23832e-09
1.75874e-09
1.71535e-09
2.21014e-09
2.13347e-09
2.61538e-09
2.50144e-09
2.98637e-09
2.83387e-09
3.33169e-09
3.14298e-09
3.65833e-09
3.44102e-09
3.97052e-09
3.73982e-09
4.26993e-09
4.05193e-09
4.555e-09
4.39125e-09
4.8203e-09
4.77409e-09
5.05536e-09
5.22026e-09
5.24328e-09
5.75465e-09
5.35872e-09
6.40912e-09
5.36546e-09
7.22518e-09
5.21309e-09
8.25743e-09
4.83275e-09
9.57804e-09
4.13151e-09
1.12826e-08
2.98505e-09
1.34976e-08
1.22815e-09
1.639e-08
-1.35789e-09
2.01799e-08
-5.60491e-09
2.71768e-08
-1.06411e-08
3.20943e-08
-1.6472e-08
3.77959e-08
-2.31301e-08
4.43138e-08
-3.06438e-08
5.16767e-08
-3.90376e-08
5.99089e-08
-4.83319e-08
6.9031e-08
-5.85434e-08
7.90594e-08
-6.96847e-08
9.0007e-08
-8.1765e-08
1.01883e-07
-9.47901e-08
1.14693e-07
-1.08763e-07
1.2844e-07
-1.23683e-07
1.43124e-07
-1.39548e-07
1.58742e-07
-1.56353e-07
1.7529e-07
-1.74092e-07
1.92762e-07
-1.92755e-07
2.11149e-07
-2.12333e-07
2.3044e-07
-2.32814e-07
2.50627e-07
-2.54186e-07
2.71695e-07
-2.76435e-07
2.93632e-07
-2.99548e-07
3.16425e-07
-3.23508e-07
3.40058e-07
-3.48301e-07
3.64517e-07
-3.73909e-07
3.89784e-07
-4.00315e-07
4.15845e-07
-4.27502e-07
4.4268e-07
-4.55452e-07
4.70273e-07
-4.84145e-07
4.98605e-07
-5.13562e-07
5.27656e-07
-5.43683e-07
5.57406e-07
-5.74486e-07
5.87835e-07
-6.0595e-07
6.1892e-07
-6.38053e-07
6.50639e-07
-6.70771e-07
6.82968e-07
-7.0408e-07
7.15884e-07
-7.37955e-07
7.4936e-07
-7.72371e-07
7.83372e-07
-8.07301e-07
8.17892e-07
-8.42718e-07
8.52892e-07
-8.78594e-07
8.88344e-07
-9.149e-07
9.24219e-07
-9.51606e-07
9.60488e-07
-9.88684e-07
9.9712e-07
-1.0261e-06
1.03409e-06
-1.06383e-06
1.07135e-06
-1.10184e-06
1.10889e-06
-1.1401e-06
1.14667e-06
-1.17858e-06
1.18467e-06
-1.21725e-06
1.22285e-06
-1.25608e-06
1.26118e-06
-1.29505e-06
1.29964e-06
-1.33413e-06
1.33821e-06
-1.37329e-06
1.37685e-06
-1.41252e-06
1.41555e-06
-1.45179e-06
1.45428e-06
-1.49108e-06
1.49304e-06
-1.53039e-06
1.5318e-06
-1.56968e-06
1.57058e-06
-1.60887e-06
-3.18742e-07
-3.57652e-07
-3.96555e-07
-4.35457e-07
1.60944e-06
)
;
    }
    frontAndBackPlanes
    {
        type            empty;
    }
}


// ************************************************************************* //
