/*--------------------------------*- C++ -*----------------------------------*\
| =========                 |                                                 |
| \\      /  F ield         | OpenFOAM Extend Project: Open source CFD        |
|  \\    /   O peration     | Version:  1.6-ext                               |
|   \\  /    A nd           | Web:      www.extend-project.de                 |
|    \\/     M anipulation  |                                                 |
\*---------------------------------------------------------------------------*/
FoamFile
{
    version     2.0;
    format      ascii;
    class       volSymmTensorField;
    location    "0.65";
    object      sigma;
}
// * * * * * * * * * * * * * * * * * * * * * * * * * * * * * * * * * * * * * //

dimensions      [1 -1 -2 0 0 0 0];

internalField   nonuniform List<symmTensor> 
328
(
(2.88971 0.152187 -6.49593e-22 1.24594 6.2014e-20 1.65273)
(0.236891 -0.228966 -9.0999e-24 0.0923782 4.587e-23 0.130643)
(-1.65072 0.0471744 6.92744e-23 -0.749072 -6.6745e-23 -0.96102)
(-4.73693 0.767494 -2.28669e-23 -1.48005 -1.20808e-19 -2.48862)
(2.83096 0.104548 2.35286e-21 1.04251 -1.54765e-19 1.54784)
(0.224985 -0.0739112 1.8714e-22 0.0422626 -9.99514e-24 0.105757)
(-1.64652 0.155704 1.85212e-23 -0.233497 1.19165e-22 -0.753206)
(-4.46174 0.530743 1.40759e-21 -0.826794 -1.60877e-20 -2.11725)
(2.83427 0.0854065 -3.02191e-21 0.94345 -4.93427e-20 1.50948)
(0.220036 0.0438159 -2.89098e-22 0.0516897 1.08439e-22 0.10744)
(-1.78841 0.221053 7.87745e-22 0.0291853 1.26851e-22 -0.705026)
(-4.40673 0.353385 -4.93576e-21 -0.460746 1.44425e-19 -1.9489)
(2.80053 0.0816637 1.1166e-21 0.88228 2.2651e-20 1.47145)
(0.193232 0.127608 4.78006e-22 0.0759274 -5.00542e-23 0.106287)
(-1.79974 0.249732 -1.15364e-21 0.257126 -6.39307e-22 -0.618522)
(-4.3013 0.235071 4.54931e-21 -0.213702 3.34781e-20 -1.80798)
(2.76554 0.0852306 8.88282e-23 0.853092 6.1267e-20 1.44573)
(0.167545 0.181451 -2.96742e-23 0.111105 6.45398e-23 0.109972)
(-1.81831 0.255097 1.72006e-22 0.394423 -6.38286e-22 -0.571156)
(-4.23737 0.16162 2.6276e-22 -0.0753622 -1.1e-19 -1.72712)
(2.71687 0.0913799 2.54949e-21 0.837855 -2.66414e-20 1.42014)
(0.140489 0.215907 3.69197e-22 0.144928 7.10298e-23 0.112588)
(-1.80137 0.250606 -1.50677e-21 0.494389 9.30459e-22 -0.524488)
(-4.17213 0.117685 -5.46738e-22 0.00548309 2.90864e-20 -1.66872)
(2.66036 0.0973393 -4.22594e-21 0.829923 6.96002e-20 1.39434)
(0.116435 0.235735 1.00814e-21 0.174525 1.02011e-22 0.11474)
(-1.77889 0.242477 2.94727e-22 0.556454 -5.30551e-22 -0.490737)
(-4.11484 0.0930123 1.06377e-21 0.0481334 2.79585e-20 -1.62876)
(2.59563 0.101858 3.79669e-21 0.823974 -1.24495e-20 1.36606)
(0.0947663 0.245933 -4.24981e-21 0.197655 -5.1628e-22 0.115282)
(-1.74656 0.234627 2.01776e-21 0.596745 -9.15363e-22 -0.46173)
(-4.05672 0.0800581 -1.55095e-21 0.0705681 -6.86118e-20 -1.59655)
(2.52454 0.104605 -4.17327e-21 0.817742 5.94362e-20 1.33513)
(0.0754204 0.249565 4.92617e-21 0.214621 4.99651e-22 0.114306)
(-1.71188 0.228407 2.18008e-21 0.61983 4.06735e-22 -0.438646)
(-3.99696 0.0740683 1.42978e-21 0.0819428 8.92921e-20 -1.56809)
(2.44799 0.105774 -3.05897e-22 0.810172 -1.02602e-19 1.30149)
(0.0574476 0.249135 -4.64304e-22 0.226343 -6.58962e-22 0.111795)
(-1.67537 0.224092 -2.22379e-21 0.631863 -3.34351e-22 -0.419235)
(-3.93283 0.0718772 7.6035e-21 0.0883433 -7.62082e-20 -1.53987)
(2.36688 0.105773 5.76033e-21 0.801045 7.90106e-20 1.2654)
(0.0400295 0.246301 -1.07622e-20 0.234199 3.99757e-23 0.10797)
(-1.63898 0.221273 1.46712e-21 0.636011 6.96166e-22 -0.403019)
(-3.86316 0.0715547 -6.86671e-21 0.0929451 1.28783e-20 -1.51015)
(2.28168 0.105042 -8.47318e-21 0.790478 -8.12186e-20 1.2271)
(0.0224045 0.242242 1.18294e-20 0.239519 1.56276e-21 0.103052)
(-1.603 0.219371 4.36318e-21 0.635024 -8.47262e-22 -0.389015)
(-3.7869 0.0719127 -5.13528e-21 0.0975091 2.59472e-20 -1.47781)
(2.19265 0.103944 2.73131e-21 0.778682 5.69967e-20 1.18678)
(0.00403531 0.237691 -2.50559e-21 0.243427 -1.4399e-22 0.0972746)
(-1.56765 0.217816 -1.10241e-20 0.630609 1.5052e-21 -0.376629)
(-3.70353 0.0722775 8.17386e-21 0.102852 1.48006e-20 -1.44231)
(2.0998 0.102733 2.53021e-22 0.765844 -7.13574e-22 1.14451)
(-0.0154081 0.233075 -7.89554e-21 0.246751 -3.79775e-23 0.0908349)
(-1.53267 0.216175 4.40645e-21 0.624001 1.60797e-22 -0.365265)
(-3.61273 0.0722947 -4.58582e-21 0.109304 -2.9163e-20 -1.40338)
(2.00296 0.101545 -1.17504e-21 0.752069 -1.39245e-20 1.10028)
(-0.0360695 0.22858 2.61322e-23 0.250024 -2.02292e-21 0.0838879)
(-1.49766 0.214165 -4.613e-21 0.615954 1.76233e-21 -0.35447)
(-3.51439 0.0718153 1.05954e-20 0.116915 2.98225e-21 -1.36098)
(1.9019 0.100429 5.69182e-21 0.737386 -3.61046e-21 1.05399)
(-0.0579577 0.224237 -1.10398e-20 0.25353 -4.1686e-22 0.0765429)
(-1.46215 0.211631 -7.0644e-21 0.606912 2.82435e-22 -0.34387)
(-3.40851 0.0708134 6.99099e-21 0.125597 -3.21906e-20 -1.31514)
(1.79637 0.0993678 -5.395e-21 0.721764 -3.44807e-20 1.00554)
(-0.0809916 0.21998 5.37786e-21 0.257367 6.5624e-22 0.0688719)
(-1.42564 0.208515 6.99944e-21 0.597087 -8.59303e-22 -0.333181)
(-3.29513 0.0693293 -2.7486e-21 0.135197 3.68311e-20 -1.26592)
(1.68613 0.0983097 4.10853e-20 0.705132 1.84164e-20 0.954806)
(-0.105049 0.215694 -1.03458e-20 0.261508 1.69647e-21 0.0609133)
(-1.38766 0.204812 1.01688e-20 0.586543 -1.54151e-21 -0.322195)
(-3.17433 0.0674328 -9.25877e-21 0.145538 -5.50738e-20 -1.21344)
(1.57108 0.0971903 -3.24702e-20 0.687417 1.56297e-20 0.901713)
(-0.12997 0.211251 -2.48398e-21 0.265868 -3.52778e-21 0.052697)
(-1.34781 0.200542 5.33255e-21 0.575262 2.7685e-22 -0.310757)
(-3.04616 0.0651975 -4.35085e-21 0.156456 3.44835e-20 -1.15778)
(1.4511 0.0959399 -3.55078e-20 0.668501 -7.2209e-21 0.84617)
(-0.155626 0.206524 1.64428e-20 0.270307 3.53957e-21 0.0442186)
(-1.30581 0.19572 3.13009e-20 0.563167 -2.48056e-21 -0.298779)
(-2.91069 0.0626928 7.36099e-21 0.167789 6.05898e-21 -1.09903)
(1.32647 0.0945183 5.72128e-20 0.648388 8.6394e-21 0.788285)
(-0.181774 0.201422 -2.05205e-20 0.274731 4.25362e-22 0.0355382)
(-1.26138 0.190363 -1.67773e-20 0.550216 1.41581e-21 -0.286176)
(-2.76805 0.0599602 1.26358e-20 0.179426 1.52048e-20 -1.03729)
(1.19682 0.0927754 2.86041e-20 0.626714 -9.97773e-21 0.727771)
(-0.208409 0.19576 -4.72593e-21 0.278877 -8.45028e-21 0.0265528)
(-1.2144 0.184391 -2.49728e-20 0.536283 -4.47252e-21 -0.272938)
(-2.61817 0.0570228 2.1309e-21 0.191239 8.92186e-21 -0.972583)
(1.05898 0.0904039 7.39504e-21 0.603538 3.81032e-21 0.663382)
(-0.235961 0.188542 2.89986e-20 0.283156 8.14147e-21 0.0172549)
(-1.16286 0.176788 2.46507e-20 0.520777 -1.79327e-21 -0.258511)
(-2.45626 0.0532653 2.29814e-20 0.203348 -1.873e-20 -0.902944)
(0.917711 0.0887503 -7.36455e-20 0.578721 -2.09884e-20 0.596963)
(-0.263441 0.182789 -1.866e-20 0.28678 -1.1452e-20 0.0077258)
(-1.10861 0.170637 1.90026e-20 0.503892 7.0115e-21 -0.243543)
(-2.28815 0.050201 -1.26505e-19 0.214761 3.77583e-20 -0.8311)
(0.781956 0.0869957 -1.895e-20 0.554016 3.14193e-20 0.532796)
(-0.288808 0.177084 -1.05745e-20 0.2897 -4.26865e-21 -0.00123974)
(-1.05493 0.164596 5.83369e-20 0.487168 3.23784e-22 -0.228743)
(-2.12385 0.0472918 5.38766e-20 0.225704 -5.5387e-20 -0.760973)
(0.651786 0.0851379 2.83593e-20 0.5293 -2.43066e-20 0.470857)
(-0.31226 0.171276 2.97682e-20 0.291759 1.75532e-20 -0.00978383)
(-1.00206 0.158485 1.24832e-22 0.470289 -8.05306e-21 -0.214327)
(-1.96413 0.0443756 -7.55157e-21 0.235527 2.86463e-20 -0.693126)
(0.527354 0.0831562 1.91732e-20 0.504852 -2.59989e-20 0.411321)
(-0.333727 0.165355 -7.74859e-20 0.293127 -1.52006e-20 -0.0178094)
(-0.949887 0.152314 1.72609e-20 0.453395 1.1637e-20 -0.200198)
(-1.80883 0.0415064 -8.74339e-20 0.244441 -3.68042e-20 -0.627409)
(0.408618 0.081089 -8.15218e-20 0.48056 2.82322e-20 0.354125)
(-0.353298 0.159329 -1.89316e-20 0.293717 7.60869e-21 -0.0253881)
(-0.898555 0.146074 -2.24232e-20 0.436402 1.48837e-21 -0.186445)
(-1.65821 0.0386571 5.09584e-20 0.252281 5.22553e-20 -0.563999)
(0.295689 0.0789254 1.00676e-19 0.456529 -5.56912e-21 0.299355)
(-0.370942 0.153202 1.3769e-20 0.293589 -3.19742e-20 -0.0324831)
(-0.848067 0.139776 -2.32424e-20 0.41938 1.12662e-21 -0.17304)
(-1.51231 0.0358455 6.27524e-20 0.259131 -2.32764e-20 -0.502872)
(0.188561 0.0766793 -9.72686e-20 0.432731 9.28719e-21 0.246999)
(-0.386705 0.146984 3.43136e-20 0.292718 -1.29859e-20 -0.0391226)
(-0.798503 0.133423 -6.67286e-20 0.402313 1.86474e-20 -0.160024)
(-1.37128 0.0330621 1.19792e-20 0.264945 -2.27902e-21 -0.444107)
(0.0872883 0.0743484 2.00607e-20 0.409216 -9.80523e-21 0.197097)
(-0.400587 0.14068 -5.74178e-20 0.291132 4.0314e-20 -0.0452956)
(-0.7499 0.127023 -2.87271e-22 0.385237 -1.57323e-20 -0.147395)
(-1.23518 0.0303134 -2.24447e-20 0.269755 2.69033e-20 -0.387722)
(-0.00812224 0.0719387 -1.90334e-20 0.385995 -1.427e-20 0.149659)
(-0.412621 0.134297 2.40371e-20 0.288838 -1.51195e-20 -0.0510127)
(-0.702319 0.12058 -1.55891e-19 0.368163 -1.13909e-20 -0.135175)
(-1.10414 0.0275975 4.63799e-20 0.273555 9.14913e-21 -0.333762)
(-0.0976485 0.0694516 -1.27059e-19 0.363105 3.07974e-20 0.104705)
(-0.422823 0.127844 1.75725e-19 0.285857 9.41192e-21 -0.0562717)
(-0.655804 0.1141 4.892e-20 0.351119 -4.41769e-20 -0.123369)
(-0.978223 0.0249175 5.7578e-20 0.276368 1.50195e-20 -0.282249)
(-0.181289 0.0668912 6.78672e-20 0.340572 -3.66584e-20 0.0622492)
(-0.431223 0.121327 3.10311e-20 0.282209 -1.87061e-20 -0.0610766)
(-0.610408 0.107592 6.78825e-20 0.334131 4.80423e-21 -0.111989)
(-0.857522 0.0222743 -6.38773e-20 0.278206 2.89761e-22 -0.233212)
(-0.259042 0.0642609 -1.19354e-19 0.318431 4.247e-20 0.0223047)
(-0.437848 0.114756 6.05404e-20 0.277921 -1.19893e-20 -0.0654272)
(-0.566176 0.101061 4.81488e-20 0.317228 3.63313e-20 -0.101041)
(-0.742108 0.0196696 -3.93872e-20 0.279095 -3.78964e-21 -0.186671)
(-0.330919 0.0615652 1.31021e-19 0.296715 2.98843e-20 -0.0151189)
(-0.442729 0.108137 -3.01912e-21 0.273022 -9.08058e-21 -0.0693249)
(-0.523155 0.0945157 -8.39226e-20 0.300441 -5.24233e-20 -0.0905302)
(-0.632049 0.0171047 5.81599e-20 0.279059 4.64828e-21 -0.142643)
(-0.396935 0.0588089 -5.415e-20 0.275462 -2.15264e-22 -0.0500132)
(-0.445898 0.101482 -1.00168e-19 0.267541 3.70091e-20 -0.0727697)
(-0.481389 0.087964 4.41437e-20 0.283805 -5.23758e-20 -0.0804617)
(-0.527402 0.014581 -8.43082e-20 0.278128 -1.4873e-20 -0.101138)
(-0.457115 0.0559975 -6.27086e-20 0.254708 -2.51548e-20 -0.0823735)
(-0.447388 0.0947997 1.27837e-19 0.261513 3.30419e-21 -0.075762)
(-0.440917 0.0814146 -7.62653e-20 0.267351 4.48177e-20 -0.0708377)
(-0.428216 0.0120997 1.56389e-19 0.276332 6.28362e-21 -0.0621634)
(-0.511491 0.0531368 6.43291e-20 0.234488 -3.39149e-20 -0.112198)
(-0.447236 0.088101 8.3701e-20 0.254972 -3.65019e-20 -0.0783022)
(-0.401777 0.0748764 -2.54808e-19 0.251115 -1.74912e-20 -0.0616595)
(-0.334531 0.009662 2.16658e-20 0.273705 -1.85308e-20 -0.0257226)
(-0.560103 0.0502335 8.88839e-20 0.214838 3.58054e-21 -0.139489)
(-0.445478 0.0813972 -8.13717e-20 0.247953 5.14879e-20 -0.0803912)
(-0.364002 0.0683592 9.90963e-20 0.235129 8.22683e-20 -0.0529275)
(-0.246376 0.00726939 -1.73581e-19 0.27028 -1.50173e-20 0.0081869)
(-0.602999 0.0472942 -8.0492e-20 0.195791 2.55797e-20 -0.164252)
(-0.442153 0.0747001 1.13067e-19 0.24049 5.35606e-20 -0.0820305)
(-0.327625 0.0618733 1.02831e-19 0.219425 -9.64719e-20 -0.0446415)
(-0.163768 0.00492356 -1.52155e-19 0.26609 3.14028e-20 0.0395711)
(-0.640237 0.0443259 -1.81612e-19 0.177375 8.08285e-21 -0.186498)
(-0.4373 0.0680223 8.81522e-21 0.232616 -8.24102e-21 -0.083223)
(-0.29267 0.0554298 5.89127e-20 0.204029 3.71533e-20 -0.0368007)
(-0.0867144 0.00262674 1.6105e-19 0.261166 -2.32673e-20 0.0684402)
(-0.671881 0.0413358 2.57192e-19 0.159618 -2.39483e-20 -0.206244)
(-0.430961 0.061377 -2.32489e-19 0.224361 -7.31838e-21 -0.0839727)
(-0.25916 0.049041 5.53856e-20 0.188969 -4.46573e-20 -0.0294044)
(-0.0152106 0.000381963 -1.03668e-19 0.255541 2.31966e-20 0.0948082)
(-0.698009 0.0383309 1.89284e-19 0.142539 1.25617e-20 -0.223511)
(-0.423179 0.0547784 -2.53525e-19 0.215755 2.62699e-20 -0.084286)
(-0.227116 0.0427202 1.59839e-19 0.174262 -6.00511e-20 -0.022452)
(0.0507606 -0.00180674 1.16556e-19 0.24924 6.17303e-20 0.118693)
(-0.718707 0.0353181 1.70648e-19 0.126155 -3.39158e-21 -0.238328)
(-0.414001 0.0482415 9.45252e-20 0.206821 -6.4618e-20 -0.0841713)
(-0.19655 0.036482 -4.97424e-20 0.159926 -5.56036e-20 -0.0159434)
(0.111229 -0.00393409 -1.03537e-19 0.242289 -2.24109e-20 0.140117)
(-0.734076 0.0323042 -6.4414e-20 0.110475 -5.54903e-20 -0.250731)
(-0.403475 0.0417823 1.14191e-20 0.197581 1.37605e-20 -0.0836396)
(-0.167476 0.0303427 -2.75449e-19 0.14597 1.83314e-19 -0.00987903)
(0.166235 -0.00599332 -1.0748e-19 0.23471 -3.37165e-20 0.159105)
(-0.74423 0.0292956 3.50553e-19 0.0955027 8.26759e-21 -0.260765)
(-0.391654 0.0354179 -8.02848e-20 0.188055 3.05758e-20 -0.0827049)
(-0.139901 0.0243201 4.70789e-20 0.132399 2.03027e-21 -0.00426022)
(0.215837 -0.00797601 4.627e-19 0.226524 2.29869e-20 0.175687)
(-0.749299 0.0262984 -4.02097e-20 0.0812375 9.98978e-21 -0.268482)
(-0.378598 0.0291667 4.78515e-21 0.178257 -1.14004e-19 -0.0813845)
(-0.113832 0.0184341 -1.27764e-19 0.119215 2.26316e-20 0.000910909)
(0.260101 -0.00987197 -3.08306e-19 0.217745 -5.15714e-20 0.189899)
(-0.749431 0.0233181 6.39489e-21 0.0676715 -2.3391e-20 -0.273944)
(-0.36437 0.0230482 -1.12737e-19 0.1682 2.63497e-20 -0.0796987)
(-0.0892696 0.0127064 1.15253e-19 0.106411 1.07635e-19 0.00563153)
(0.299113 -0.0116692 -6.13065e-20 0.208391 -1.2952e-20 0.201778)
(-0.744793 0.0203602 1.55842e-20 0.0547922 -1.27538e-20 -0.277224)
(-0.34904 0.0170833 -9.58521e-20 0.157895 3.65575e-20 -0.0776716)
(-0.0662154 0.00716056 8.53938e-20 0.0939811 -1.50617e-20 0.00989815)
(0.332969 -0.0133538 -1.21986e-19 0.198475 8.64906e-21 0.211371)
(-0.735576 0.0174296 1.07315e-20 0.0425827 3.93518e-20 -0.278403)
(-0.332686 0.0112939 2.79545e-19 0.147351 -6.46712e-22 -0.0753303)
(-0.0446671 0.00182193 -3.04109e-19 0.0819126 -6.90396e-20 0.0137069)
(0.361783 -0.0149103 6.33267e-20 0.188013 -3.51341e-20 0.218728)
(-0.721991 0.014531 1.72084e-20 0.0310221 1.79451e-20 -0.277576)
(-0.315396 0.00570314 -2.37359e-19 0.136581 -1.07791e-19 -0.0727054)
(-0.024621 -0.00328247 2.03586e-19 0.0701926 1.19104e-21 0.017054)
(0.385685 -0.0163216 5.16702e-20 0.177022 -1.673e-20 0.223909)
(-0.704275 0.0116689 2.88516e-19 0.0200872 -1.57337e-20 -0.274847)
(-0.297264 0.00033516 -8.0623e-20 0.125594 1.73589e-19 -0.0698306)
(-0.00607161 -0.00812429 -5.15374e-20 0.0588065 -8.5218e-20 0.0199359)
(0.404822 -0.0175696 1.49286e-19 0.165522 3.01339e-21 0.22698)
(-0.682692 0.0088476 -2.08957e-20 0.00975276 -4.06368e-20 -0.27033)
(-0.278397 -0.00478536 1.13258e-19 0.114406 -8.52903e-20 -0.0667423)
(0.0109884 -0.0126743 -3.06725e-20 0.0477406 -7.76797e-20 0.0223497)
(0.419355 -0.0186352 -4.58672e-19 0.153539 1.30418e-19 0.228016)
(-0.657531 0.00607149 5.76947e-20 -6.96922e-06 -1.80586e-20 -0.264153)
(-0.258908 -0.00963337 1.84159e-19 0.103034 1.67117e-19 -0.0634794)
(0.0265681 -0.0169028 3.39644e-19 0.0369822 1.09819e-19 0.0242942)
(0.429467 -0.0194992 1.73353e-19 0.141102 3.21818e-20 0.227102)
(-0.629109 0.00334482 -4.10005e-19 -0.00921729 -2.8388e-20 -0.256452)
(-0.238924 -0.0141839 -3.65492e-20 0.0915012 -2.0812e-19 -0.0600828)
(0.0406779 -0.0207803 -6.16786e-19 0.0265217 1.15404e-19 0.0257696)
(0.435357 -0.0201423 4.11844e-19 0.128252 -2.63104e-20 0.224333)
(-0.597768 0.000671964 -5.91224e-20 -0.0179022 -2.16153e-20 -0.247373)
(-0.21858 -0.0184123 -1.3235e-19 0.0798369 1.6582e-19 -0.0565949)
(0.0533307 -0.024278 2.40902e-19 0.016353 6.05738e-20 0.0267786)
(0.437242 -0.020546 -2.50919e-19 0.115033 2.78929e-20 0.219815)
(-0.563878 -0.00194258 1.49744e-19 -0.0260833 6.14379e-20 -0.237073)
(-0.198018 -0.0222953 2.02096e-19 0.0680765 -6.82805e-20 -0.0530589)
(0.0645411 -0.0273687 -3.96079e-19 0.00647475 -3.18934e-20 0.0273266)
(0.435356 -0.0206933 -6.3433e-20 0.101503 -5.27254e-20 0.213664)
(-0.527828 -0.00449415 -1.22924e-19 -0.0337793 -2.47136e-21 -0.225716)
(-0.177392 -0.0258107 3.64447e-20 0.0562627 1.13939e-19 -0.0495187)
(0.0743264 -0.0300269 1.84503e-19 -0.00310936 -1.34503e-19 0.0274219)
(0.429953 -0.0205687 3.38672e-19 0.0877268 1.73549e-20 0.206007)
(-0.490031 -0.00697796 9.6081e-20 -0.0410055 -4.67959e-20 -0.213472)
(-0.15686 -0.0289386 -2.93076e-19 0.0444455 7.0306e-20 -0.0460179)
(0.0827065 -0.0322304 1.96027e-19 -0.0123898 -1.57599e-19 0.0270762)
(0.421301 -0.0201591 -3.62422e-19 0.0737799 -5.33581e-20 0.196982)
(-0.450918 -0.00938906 -2.42872e-19 -0.0477732 1.01612e-19 -0.200518)
(-0.136587 -0.0316614 1.19692e-19 0.0326824 -1.86994e-19 -0.0425995)
(0.0897042 -0.03396 3.76329e-19 -0.0213513 1.87546e-19 0.026305)
(0.409685 -0.0194541 -2.04932e-19 0.0597468 5.95055e-20 0.186737)
(-0.410933 -0.0117224 -1.43378e-19 -0.0540896 1.09226e-20 -0.187036)
(-0.116742 -0.0339644 6.61865e-20 0.0210376 8.40784e-20 -0.0393052)
(0.0953459 -0.0352005 -2.58304e-19 -0.0299729 1.55176e-20 0.0251271)
(0.395403 -0.0184464 4.417e-20 0.0457212 -1.4949e-19 0.175428)
(-0.37053 -0.0139731 -2.8626e-19 -0.0599584 -4.20213e-20 -0.173208)
(-0.0974968 -0.0358364 -9.49417e-20 0.00958173 1.86146e-19 -0.0361753)
(0.0996614 -0.0359411 -2.20441e-19 -0.0382284 7.39676e-20 0.023565)
(0.378766 -0.0171321 2.65281e-19 0.0318041 2.3005e-20 0.163221)
(-0.330171 -0.0161362 -1.49807e-19 -0.0653791 8.04755e-21 -0.159217)
(-0.0790216 -0.0372699 1.80589e-19 -0.0016093 9.09782e-20 -0.0332478)
(0.102684 -0.0361756 7.38066e-19 -0.0460865 -8.77168e-20 0.0216446)
(0.360093 -0.0155107 -5.65779e-20 0.0181034 2.91275e-20 0.150285)
(-0.290315 -0.0182073 9.24141e-21 -0.0703483 1.23771e-19 -0.145249)
(-0.0614859 -0.0382615 -2.54289e-19 -0.0124553 -3.34068e-19 -0.0305583)
(0.104452 -0.0359031 -8.97173e-20 -0.0535123 -5.96087e-20 0.0193948)
(0.339711 -0.0135853 -1.91476e-19 0.00473158 -4.67966e-20 0.136797)
(-0.251419 -0.0201823 -1.25788e-19 -0.0748595 9.86748e-20 -0.131481)
(-0.0450548 -0.0388121 9.96822e-20 -0.0228731 -6.92684e-20 -0.0281396)
(0.105005 -0.0351277 -1.12347e-19 -0.0604674 -8.40508e-20 0.0168474)
(0.317952 -0.0113623 5.99228e-20 -0.00819534 9.75993e-20 0.122936)
(-0.213929 -0.0220581 -3.43744e-19 -0.078904 -2.49467e-20 -0.118089)
(-0.0298874 -0.0389276 -1.06401e-20 -0.0327778 2.40754e-19 -0.0260213)
(0.104389 -0.0338594 1.9913e-19 -0.0669111 -3.3018e-19 0.0140365)
(0.295145 -0.00885188 5.62945e-19 -0.0205599 -6.50536e-20 0.108881)
(-0.178277 -0.0238332 4.94087e-20 -0.0824711 7.23834e-20 -0.105242)
(-0.0161343 -0.0386194 -2.67877e-19 -0.0420843 -3.41702e-19 -0.0242297)
(0.102651 -0.032114 -2.12349e-19 -0.072801 1.48753e-19 0.010998)
(0.271619 -0.00606704 -2.8836e-19 -0.0322451 -8.6483e-20 0.0948094)
(-0.14487 -0.0255076 -3.34208e-19 -0.0855484 3.74981e-20 -0.0930966)
(-0.0039361 -0.0379047 4.06276e-19 -0.050708 -1.98833e-19 -0.0227872)
(0.0998391 -0.0299135 4.86378e-19 -0.078094 1.87626e-19 0.00776881)
(0.247692 -0.00302393 -2.37957e-19 -0.0431354 -5.42508e-20 0.0808952)
(-0.11409 -0.0270844 -3.48421e-20 -0.0881221 -9.67472e-20 -0.0818014)
(0.00657814 -0.0368082 -7.97985e-20 -0.0585669 4.3012e-20 -0.0217126)
(0.0960039 -0.0272868 -2.88708e-19 -0.0827459 1.98457e-19 0.00438636)
(0.22367 0.000258644 6.53596e-20 -0.0531191 -7.48279e-20 0.0673051)
(-0.0862825 -0.0285703 2.2454e-21 -0.0901761 9.85188e-20 -0.0714878)
(0.0152935 -0.035363 4.57545e-19 -0.0655804 -1.179e-19 -0.0210197)
(0.091194 -0.0242698 -3.67832e-19 -0.0867111 2.67279e-20 0.000888382)
(0.199838 0.00375973 3.1868e-20 -0.0620881 -6.2678e-20 0.0541966)
(-0.0617533 -0.029978 -5.79766e-19 -0.0916918 6.74598e-20 -0.0622705)
(0.022106 -0.0336132 -2.83299e-19 -0.0716714 -1.49308e-20 -0.0207194)
(0.0854507 -0.020906 6.77345e-19 -0.0899426 1.40828e-19 -0.00268985)
(0.176454 0.00745699 -6.05873e-19 -0.0699398 4.82876e-20 0.0417143)
(-0.0407502 -0.0313289 -4.41202e-20 -0.0926427 -2.17213e-19 -0.0542382)
(0.0269295 -0.0316177 1.97122e-19 -0.0767591 2.67708e-19 -0.0208137)
(0.0788107 -0.0172446 -3.46578e-19 -0.0923841 -1.56438e-20 -0.00631111)
(0.153752 0.0113294 -6.22118e-20 -0.0765733 -1.43564e-19 0.0299912)
(-0.0234658 -0.0326582 7.6691e-19 -0.0929939 -1.32744e-19 -0.047454)
(0.0296645 -0.0294558 -3.89708e-19 -0.0807651 3.04115e-19 -0.0213113)
(0.0712706 -0.0133377 8.52858e-19 -0.0939745 7.39379e-20 -0.00995248)
(0.131917 0.0153603 1.58668e-19 -0.0818898 -9.24694e-20 0.0191413)
(-0.00997137 -0.0340298 3.68353e-20 -0.0926755 -2.29885e-19 -0.0419185)
(0.0302438 -0.0272433 -3.86567e-19 -0.0835666 -4.04475e-20 -0.0221899)
(0.0628277 -0.00922451 -9.38462e-21 -0.0946001 1.59199e-19 -0.0135696)
(0.111141 0.0195536 -4.15657e-19 -0.085769 6.77522e-20 0.00928943)
(-0.000280281 -0.0355476 -1.81999e-19 -0.0915869 1.79451e-19 -0.037597)
(0.0284066 -0.0251469 1.57439e-19 -0.08506 8.30658e-20 -0.0235125)
(0.0532491 -0.00491818 1.33899e-20 -0.0941577 -2.5992e-19 -0.0172145)
(0.091541 0.0239439 2.89511e-19 -0.088072 -5.50628e-20 0.000537799)
(0.00605643 -0.0374334 4.09597e-19 -0.0894475 1.32284e-19 -0.0341976)
(0.0240892 -0.0234499 -3.38427e-19 -0.0848756 5.39259e-19 -0.0251567)
(0.0424578 -0.000334503 -3.5966e-19 -0.0922674 -1.07362e-19 -0.020766)
(0.0735441 0.0286802 -1.87985e-19 -0.0884972 1.12806e-19 -0.00682219)
(0.00927532 -0.0399805 -2.63971e-19 -0.0859076 -6.14662e-20 -0.0314859)
(0.0158731 -0.0225053 8.56059e-20 -0.0830507 -2.37258e-20 -0.0277051)
(0.0289699 0.00465997 8.15131e-19 -0.0889467 -2.83716e-19 -0.0248248)
(0.0572279 0.033977 -2.3848e-19 -0.0866707 -9.84611e-20 -0.01261)
(0.0120579 -0.043783 6.70454e-21 -0.079813 1.18027e-20 -0.0279275)
(0.00453027 -0.0228164 5.50618e-19 -0.0784693 -5.63555e-19 -0.0304023)
(0.0134293 0.0103445 -5.07052e-20 -0.0830489 3.60853e-19 -0.0286745)
(0.044905 0.0403696 2.95203e-19 -0.0814423 2.33343e-20 -0.0154404)
(0.012692 -0.0480836 -3.20136e-20 -0.0715024 1.56023e-19 -0.0243431)
(-0.0172137 -0.0237604 1.58777e-19 -0.0758711 4.68369e-19 -0.0380545)
(-0.0116546 0.0158383 -6.54852e-20 -0.0792835 -5.4711e-19 -0.0371959)
(0.0344335 0.0469792 -4.09757e-19 -0.0730722 2.29316e-19 -0.0162745)
(0.0227427 -0.0501145 5.31619e-19 -0.0638326 -2.11467e-20 -0.017249)
(-0.032597 -0.0232886 -6.30342e-19 -0.0791374 -4.8194e-22 -0.0455093)
(-0.0297348 0.0190382 -7.67237e-20 -0.0816828 1.34804e-19 -0.0453826)
(0.0365494 0.0509369 -6.56138e-19 -0.0648291 -6.89963e-20 -0.012125)
(0.000887795 -0.0353401 -1.93026e-19 -0.0991728 5.3173e-20 -0.0401245)
(-0.0729624 -0.015127 1.26471e-19 -0.151868 2.12722e-19 -0.0907464)
(-0.0720118 0.0151101 -1.99605e-19 -0.155119 -2.67466e-19 -0.0916666)
(0.00942886 0.0369655 2.89193e-19 -0.10079 6.85819e-20 -0.037355)
)
;

boundaryField
{
    plateFix
    {
        type            calculated;
        value           nonuniform List<symmTensor> 4((2.86224 0.163762 -1.41374e-21 1.22805 6.17546e-20 1.63443) (0.209104 -0.359201 -9.10283e-24 0.0738546 4.58596e-23 0.112085) (-1.46269 -0.0719225 6.92808e-23 -0.623712 -6.67376e-23 -0.835685) (-4.73824 0.954571 -1.21188e-21 -1.48036 -1.2033e-19 -2.48946));
    }
    plate
    {
        type            calculated;
        value           nonuniform List<symmTensor> 
168
(
(2.33915 8.01191e-05 -3.50268e-22 0.430143 -3.02788e-20 1.10607)
(-3.4635 -0.00128148 -2.44821e-22 0.443692 -3.38774e-20 -1.20982)
(2.41926 0.000245864 1.74213e-21 0.430921 -1.41488e-21 1.13839)
(-3.61975 -0.00122918 1.62693e-21 0.444453 3.85014e-20 -1.27207)
(2.49085 0.000748494 -3.39272e-21 0.431798 -3.70186e-20 1.16734)
(-3.806 -0.00152893 -5.29393e-21 0.445322 3.95746e-20 -1.34629)
(2.49958 0.00151203 1.10679e-21 0.432626 -2.41035e-22 1.17115)
(-3.86316 -0.00213608 4.51981e-21 0.446151 -3.45369e-20 -1.36885)
(2.48518 0.00248322 6.46013e-23 0.433321 -1.42635e-21 1.16565)
(-3.89008 -0.00303284 2.5236e-22 0.446854 3.52001e-22 -1.37936)
(2.44739 0.0036042 2.52935e-21 0.43381 6.33228e-20 1.15072)
(-3.87787 -0.00412977 -5.44877e-22 0.447358 -1.67398e-21 -1.37428)
(2.39655 0.00482203 -4.19989e-21 0.434058 -5.73743e-20 1.13048)
(-3.84854 -0.00536381 1.06217e-21 0.447629 3.12142e-20 -1.36244)
(2.33589 0.00608977 3.78472e-21 0.434052 2.74072e-20 1.10622)
(-3.80522 -0.00667484 -1.56127e-21 0.447654 -2.73841e-20 -1.3451)
(2.26882 0.00737178 -4.15333e-21 0.433791 2.44287e-21 1.07929)
(-3.75314 -0.00802008 1.45454e-21 0.44743 -5.52751e-21 -1.32436)
(2.19699 0.00864248 -3.33241e-22 0.433277 -1.94394e-20 1.05035)
(-3.69358 -0.00936822 7.57074e-21 0.446961 9.76617e-22 -1.30071)
(2.12144 0.00988559 5.78684e-21 0.432515 2.2711e-20 1.01983)
(-3.62746 -0.0106993 -6.85792e-21 0.446253 -1.95671e-21 -1.27454)
(2.0426 0.0110923 -8.51284e-21 0.431504 -7.65127e-22 0.987894)
(-3.55489 -0.0120016 -5.12053e-21 0.445305 9.67909e-23 -1.24587)
(1.96058 0.0122595 2.75743e-21 0.430239 1.2003e-21 0.954585)
(-3.47588 -0.0132702 8.17917e-21 0.444115 1.46713e-21 -1.21473)
(1.87525 0.0133875 2.50221e-22 0.428708 7.53439e-23 0.919848)
(-3.39035 -0.014504 -4.61426e-21 0.442671 1.89089e-20 -1.18108)
(1.78638 0.0144783 -1.1759e-21 0.426889 -3.42146e-21 0.88358)
(-3.29823 -0.015704 1.06056e-20 0.440953 -1.68637e-20 -1.1449)
(1.69368 0.015534 5.68448e-21 0.424751 5.54562e-24 0.845655)
(-3.19947 -0.0168715 6.98513e-21 0.438933 -1.6339e-20 -1.10619)
(1.5969 0.0165549 -5.415e-21 0.422258 -4.19194e-21 0.805956)
(-3.09406 -0.0180063 -2.73422e-21 0.436576 2.04326e-20 -1.06494)
(1.49582 0.0175381 4.11042e-20 0.41936 -4.00018e-21 0.76438)
(-2.98196 -0.0191053 -9.30181e-21 0.433836 8.49976e-21 -1.02117)
(1.39036 0.0184787 -3.24642e-20 0.41601 1.03454e-20 0.720866)
(-2.86317 -0.0201632 -4.29934e-21 0.430667 -2.68385e-20 -0.974896)
(1.28041 0.0193603 -3.55237e-20 0.412136 1.33232e-20 0.675352)
(-2.73768 -0.0211636 7.35957e-21 0.426999 1.68621e-20 -0.92614)
(1.16626 0.0201851 5.72211e-20 0.407733 -1.47795e-21 0.627943)
(-2.60555 -0.0221086 1.26541e-20 0.422828 -1.07791e-20 -0.874929)
(1.04763 0.0208775 2.85989e-20 0.402581 -4.45496e-21 0.578445)
(-2.46679 -0.0229241 2.12956e-21 0.417938 4.69507e-21 -0.821351)
(0.921482 0.0216857 7.40523e-21 0.396942 3.9945e-22 0.525746)
(-2.31651 -0.0238545 2.29542e-20 0.412585 1.00976e-22 -0.763347)
(0.792084 0.022514 -7.3672e-20 0.389936 5.02085e-22 0.471202)
(-2.16043 -0.0247937 -1.26448e-19 0.405922 -1.13926e-20 -0.703546)
(0.668065 0.0231732 -1.89288e-20 0.382836 -2.24235e-22 0.41877)
(-2.00792 -0.0255567 5.37981e-20 0.399158 8.05912e-21 -0.645219)
(0.54923 0.0237793 2.83381e-20 0.375128 3.03465e-23 0.368169)
(-1.85965 -0.0262537 -7.52425e-21 0.391797 6.02076e-21 -0.588823)
(0.435761 0.0242825 1.91385e-20 0.367133 -2.81261e-22 0.319598)
(-1.71538 -0.0268388 -8.74696e-20 0.384148 -1.62282e-21 -0.534145)
(0.32757 0.0247264 -8.14878e-20 0.358669 7.47229e-22 0.272951)
(-1.57539 -0.0273553 5.10137e-20 0.37603 7.60518e-21 -0.48137)
(0.224776 0.0250904 1.00657e-19 0.349854 4.24117e-22 0.228322)
(-1.4397 -0.0277843 6.27008e-20 0.367557 4.9428e-21 -0.430457)
(0.127359 0.0253891 -9.72538e-20 0.34064 5.8604e-22 0.185683)
(-1.30846 -0.0281416 1.19803e-20 0.358676 -4.85245e-23 -0.381488)
(0.0353743 0.0256154 2.00305e-20 0.331074 2.91717e-23 0.145077)
(-1.18174 -0.0284214 -2.24284e-20 0.349435 1.55013e-22 -0.33447)
(-0.0511793 0.0257735 -1.90494e-20 0.321159 -3.29546e-21 0.106503)
(-1.05963 -0.0286294 4.63999e-20 0.339831 6.1482e-24 -0.289446)
(-0.132282 0.0258616 -1.27008e-19 0.310926 3.08143e-21 0.0699817)
(-0.942217 -0.0287651 5.75852e-20 0.329892 2.97104e-23 -0.246435)
(-0.207935 0.0258811 6.78004e-20 0.300395 1.82703e-21 0.0355212)
(-0.829583 -0.0288313 -6.38775e-20 0.319638 -3.5353e-21 -0.205463)
(-0.278141 0.0258321 -1.19294e-19 0.289599 2.47653e-21 0.00313367)
(-0.721795 -0.0288294 -3.93844e-20 0.309096 3.22215e-21 -0.166544)
(-0.342911 0.0257163 1.31061e-19 0.278568 2.36992e-21 -0.0271736)
(-0.61892 -0.0287625 5.81841e-20 0.298296 3.25527e-21 -0.129695)
(-0.402262 0.0255349 -5.4141e-20 0.267336 -3.01584e-21 -0.0553933)
(-0.521013 -0.0286332 -8.43256e-20 0.287267 -7.52657e-23 -0.094925)
(-0.45622 0.0252903 -6.27565e-20 0.255939 -1.10602e-22 -0.0815216)
(-0.428122 -0.0284448 1.56389e-19 0.276043 2.91655e-21 -0.0622401)
(-0.504816 0.0249849 6.42844e-20 0.244414 4.5077e-23 -0.105556)
(-0.340287 -0.0282007 2.16281e-20 0.264657 -5.35439e-23 -0.0316428)
(-0.54809 0.0246213 8.88889e-20 0.232796 1.91301e-22 -0.127499)
(-0.257537 -0.0279044 -1.73572e-19 0.25314 -4.53274e-21 -0.00313224)
(-0.586088 0.0242025 -8.0464e-20 0.221119 2.12037e-21 -0.147355)
(-0.179892 -0.0275594 -1.52107e-19 0.241523 -2.24338e-22 0.0232963)
(-0.618865 0.023731 -1.81602e-19 0.209417 -2.54927e-21 -0.165132)
(-0.107361 -0.0271684 1.61006e-19 0.229835 2.34942e-22 0.0476503)
(-0.646484 0.0232093 2.57162e-19 0.197718 2.89981e-21 -0.180843)
(-0.0399428 -0.0267339 -1.0364e-19 0.2181 -3.05462e-22 0.0699405)
(-0.669018 0.0226391 1.8928e-19 0.18605 3.52899e-22 -0.194509)
(0.0223753 -0.0262573 1.16627e-19 0.20634 2.66277e-22 0.0901804)
(-0.68655 0.0220216 1.70639e-19 0.174434 2.77277e-21 -0.206152)
(0.0796174 -0.0257388 -1.03564e-19 0.194571 -1.95533e-22 0.108386)
(-0.699175 0.0213568 -6.45243e-20 0.162888 -2.00388e-22 -0.215804)
(0.131819 -0.0251776 -1.07524e-19 0.182806 -1.20256e-22 0.124578)
(-0.707 0.0206438 3.50571e-19 0.151426 3.04223e-21 -0.223502)
(0.179029 -0.0245712 4.62721e-19 0.171053 5.68547e-22 0.138777)
(-0.710148 0.0198805 -4.01976e-20 0.140056 -9.9412e-23 -0.229292)
(0.221307 -0.0239156 -3.08359e-19 0.159315 1.0644e-21 0.15101)
(-0.708758 0.0190637 6.38991e-21 0.128786 -8.27539e-23 -0.233228)
(0.258726 -0.0232054 -6.13054e-20 0.147594 -1.5984e-21 0.161306)
(-0.702988 0.0181887 1.55606e-20 0.117616 1.60145e-22 -0.235371)
(0.291374 -0.0224337 -1.21949e-19 0.135887 1.25454e-21 0.169699)
(-0.693016 0.0172501 1.07736e-20 0.106548 4.41196e-23 -0.235792)
(0.319351 -0.0215922 6.3294e-20 0.124191 -2.44525e-21 0.176228)
(-0.679041 0.0162412 1.72495e-20 0.0955804 -2.23854e-21 -0.234572)
(0.342774 -0.0206714 5.16481e-20 0.112501 2.43053e-21 0.180937)
(-0.661285 0.0151549 2.88447e-19 0.0847122 3.21288e-21 -0.231799)
(0.361773 -0.0196613 1.49297e-19 0.100815 -9.43592e-22 0.183879)
(-0.639995 0.0139833 -2.09565e-20 0.0739431 -1.02685e-22 -0.227574)
(0.376495 -0.0185511 -4.58509e-19 0.0891336 -5.59278e-22 0.185111)