/*--------------------------------*- C++ -*----------------------------------*\
| =========                 |                                                 |
| \\      /  F ield         | OpenFOAM Extend Project: Open source CFD        |
|  \\    /   O peration     | Version:  1.6-ext                               |
|   \\  /    A nd           | Web:      www.extend-project.de                 |
|    \\/     M anipulation  |                                                 |
\*---------------------------------------------------------------------------*/
FoamFile
{
    version     2.0;
    format      ascii;
    class       volScalarField;
    location    "0.65";
    object      sigmaEq;
}
// * * * * * * * * * * * * * * * * * * * * * * * * * * * * * * * * * * * * * //

dimensions      [1 -1 -2 0 0 0 0];

internalField   nonuniform List<scalar> 
328
(
1.50608
0.417247
0.820649
3.17912
1.60715
0.20544
1.26692
3.32151
1.68737
0.166802
1.62936
3.5054
1.70781
0.244892
1.83942
3.59155
1.70208
0.319412
1.97159
3.64065
1.67353
0.375192
2.0391
3.6473
1.63228
0.41254
2.06912
3.63144
1.5822
0.436285
2.07274
3.59894
1.52663
0.449804
2.06051
3.55615
1.46722
0.456624
2.03805
3.50558
1.40496
0.459475
2.00955
3.44877
1.34027
0.460626
1.97736
3.38624
1.27328
0.461707
1.94295
3.31817
1.20389
0.463826
1.90697
3.24456
1.13196
0.467618
1.86965
3.16533
1.05731
0.473357
1.83089
3.08041
0.979783
0.481052
1.79041
2.98972
0.899312
0.490555
1.74788
2.89316
0.815941
0.501627
1.70295
2.79065
0.729797
0.513997
1.65529
2.68213
0.641331
0.52738
1.60467
2.5676
0.550857
0.541412
1.55082
2.44691
0.456372
0.555695
1.49119
2.31595
0.36427
0.572109
1.42861
2.17905
0.282752
0.587437
1.3667
2.04509
0.217537
0.601361
1.30532
1.91418
0.179176
0.613793
1.24451
1.78636
0.178303
0.624618
1.18431
1.66171
0.209716
0.63376
1.12478
1.54035
0.25769
0.641159
1.06599
1.42235
0.311332
0.646775
1.00798
1.30783
0.365465
0.650583
0.950833
1.19686
0.417704
0.652573
0.894604
1.08953
0.466883
0.652749
0.839361
0.985943
0.512395
0.651124
0.78517
0.886179
0.553911
0.647724
0.732098
0.790324
0.591251
0.642582
0.680213
0.698462
0.624323
0.635737
0.62958
0.610672
0.653089
0.627237
0.580264
0.527035
0.677546
0.61713
0.532325
0.44763
0.697716
0.605471
0.48582
0.372546
0.713639
0.592315
0.440802
0.301893
0.725367
0.57772
0.397319
0.235845
0.732966
0.561744
0.355414
0.174744
0.736508
0.544448
0.315127
0.119464
0.736077
0.525891
0.276494
0.0730458
0.731767
0.506138
0.239552
0.0484365
0.723681
0.485253
0.204342
0.0635714
0.711937
0.463308
0.170913
0.0963464
0.696664
0.440378
0.139344
0.130597
0.678009
0.416546
0.109777
0.162693
0.656137
0.391904
0.0825069
0.191714
0.631234
0.366556
0.0582774
0.217395
0.603505
0.34062
0.0392958
0.239687
0.573183
0.314228
0.0315345
0.258634
0.540523
0.287533
0.0388211
0.274327
0.505807
0.26071
0.0534677
0.286884
0.469342
0.233961
0.0695905
0.296441
0.43146
0.207524
0.085259
0.303149
0.392521
0.181684
0.0998208
0.30717
0.352906
0.156792
0.113012
0.308674
0.313022
0.133309
0.124712
0.307841
0.273302
0.11186
0.134858
0.304855
0.234209
0.0933359
0.143422
0.29991
0.196251
0.078968
0.150395
0.293202
0.160013
0.0701575
0.155779
0.284933
0.126238
0.0676798
0.159591
0.275308
0.0960193
0.0707335
0.161854
0.264536
0.071275
0.077276
0.162601
0.252825
0.0554895
0.0852395
0.161871
0.240379
0.0523492
0.0931347
0.159708
0.227402
0.0598091
0.100008
0.156152
0.214086
0.0715495
0.105258
0.151239
0.200615
0.0833151
0.108475
0.144966
0.187156
0.0932336
0.109367
0.137289
0.173893
0.100564
0.107593
0.127983
0.160988
0.10536
0.102869
0.11675
0.148866
0.107874
0.0943055
0.102567
0.137833
0.110075
0.0822897
0.0856721
0.129884
0.110807
0.065926
0.0652016
0.123687
0.114746
0.0579557
0.0567268
0.124483
0.106476
0.0763256
0.0796532
0.115238
)
;

boundaryField
{
    plateFix
    {
        type            calculated;
        value           nonuniform List<scalar> 4(1.5007 0.633766 0.765833 3.32838);
    }
    plate
    {
        type            calculated;
        value           nonuniform List<scalar> 
168
(
1.67656
3.39701
1.74565
3.53383
1.80726
3.69687
1.81418
3.7474
1.80106
3.77146
1.76776
3.76125
1.72328
3.73593
1.67049
3.6982
1.61235
3.65263
1.55027
3.60033
1.48518
3.54211
1.41745
3.47808
1.34718
3.40823
1.27428
3.33247
1.19856
3.25074
1.1198
3.16298
1.03784
3.06913
0.952541
2.96914
0.863874
2.86295
0.77186
2.7505
0.676787
2.63185
0.578689
2.5068
0.474953
2.37134
0.370361
2.22971
0.272044
2.09113
0.182395
1.95573
0.109547
1.82358
0.0865053
1.69478
0.130775
1.56943
0.19592
1.44762
0.262683
1.32946
0.326774
1.21503
0.386918
1.10442
0.442633
0.997736
0.493715
0.895059
0.540079
0.796481
0.581698
0.702089
0.618582
0.611968
0.65076
0.526205
0.67828
0.444893
0.701198
0.368141
0.71958
0.296099
0.733499
0.22902
0.743035
0.167437
0.748275
0.112793
0.749314
0.0701642
0.746254
0.0563381
0.739208
0.0783748
0.7283
0.112383
0.713668
0.146874
0.695464
0.178993
0.67386
0.207923
0.649049
0.233414
0.621243
0.255422
0.59068
0.273997
0.557623
0.289237
0.52236
0.30127
0.485203
0.310244
0.446491
0.316326
0.406586
0.31969
0.365872
0.320524
0.324755
0.319022
0.283661
0.315388
0.243038
0.30983
0.203363
0.302563
0.165163
0.293804
0.129067
0.283775
0.0959627
0.272699
0.0674696
0.260795
0.0473328
0.248284
0.0422158
0.235377
0.0516793
0.222278
0.0664312
0.209183
0.080981
0.196267
0.093412
0.183729
0.103076
0.171731
0.110036
0.160667
0.114434
0.150681
0.117938
0.143418
0.120059
0.137874
0.130432
0.14408
0.140407
0.0840037
0.0745285
0.0784682
0.0922195
0.152069
)
;
    }
    frontAndBackPlanes
    {
        type            empty;
    }
}


// ************************************************************************* //
