/*--------------------------------*- C++ -*----------------------------------*\
| =========                 |                                                 |
| \\      /  F ield         | OpenFOAM Extend Project: Open source CFD        |
|  \\    /   O peration     | Version:  1.6-ext                               |
|   \\  /    A nd           | Web:      www.extend-project.de                 |
|    \\/     M anipulation  |                                                 |
\*---------------------------------------------------------------------------*/
FoamFile
{
    version     2.0;
    format      ascii;
    class       volVectorField;
    location    "0.65";
    object      Usolid;
}
// * * * * * * * * * * * * * * * * * * * * * * * * * * * * * * * * * * * * * //

dimensions      [0 1 0 0 0 0 0];

internalField   nonuniform List<vector> 
328
(
(6.13871e-08 3.85138e-08 0)
(4.79366e-09 -3.09417e-08 0)
(-3.139e-08 -1.64808e-09 0)
(-1.12384e-07 1.78776e-07 0)
(1.9058e-07 1.12828e-07 0)
(1.66589e-08 -4.12114e-08 0)
(-1.09427e-07 4.43057e-08 0)
(-3.45069e-07 4.72632e-07 0)
(3.3768e-07 2.06875e-07 0)
(3.08084e-08 4.75213e-09 0)
(-2.23751e-07 1.43409e-07 0)
(-6.15674e-07 7.30068e-07 0)
(4.96561e-07 3.35842e-07 0)
(4.33653e-08 1.11065e-07 0)
(-3.5827e-07 2.95567e-07 0)
(-9.09844e-07 9.75413e-07 0)
(6.67139e-07 5.13458e-07 0)
(5.34799e-08 2.81449e-07 0)
(-5.14339e-07 5.02966e-07 0)
(-1.22977e-06 1.2339e-06 0)
(8.47549e-07 7.52325e-07 0)
(6.01646e-08 5.22516e-07 0)
(-6.86829e-07 7.71752e-07 0)
(-1.57251e-06 1.52694e-06 0)
(1.03711e-06 1.06478e-06 0)
(6.32939e-08 8.42283e-07 0)
(-8.74858e-07 1.11072e-06 0)
(-1.93832e-06 1.87408e-06 0)
(1.23502e-06 1.4635e-06 0)
(6.28689e-08 1.25097e-06 0)
(-1.07667e-06 1.53138e-06 0)
(-2.32698e-06 2.29342e-06 0)
(1.44079e-06 1.96212e-06 0)
(5.90499e-08 1.76078e-06 0)
(-1.29174e-06 2.04748e-06 0)
(-2.73896e-06 2.80281e-06 0)
(1.6539e-06 2.57575e-06 0)
(5.19413e-08 2.38612e-06 0)
(-1.51963e-06 2.67504e-06 0)
(-3.17466e-06 3.4205e-06 0)
(1.87389e-06 3.32146e-06 0)
(4.15345e-08 3.14377e-06 0)
(-1.76037e-06 3.43219e-06 0)
(-3.63459e-06 4.16589e-06 0)
(2.10022e-06 4.21856e-06 0)
(2.76497e-08 4.05301e-06 0)
(-2.01414e-06 4.33933e-06 0)
(-4.11915e-06 5.05998e-06 0)
(2.33224e-06 5.28899e-06 0)
(9.92137e-09 5.13579e-06 0)
(-2.28131e-06 5.41925e-06 0)
(-4.62864e-06 6.12581e-06 0)
(2.56912e-06 6.55748e-06 0)
(-1.2198e-08 6.41695e-06 0)
(-2.56232e-06 6.69729e-06 0)
(-5.16316e-06 7.38884e-06 0)
(2.80986e-06 8.05183e-06 0)
(-3.94228e-08 7.92437e-06 0)
(-2.85763e-06 8.20162e-06 0)
(-5.72265e-06 8.87723e-06 0)
(3.05316e-06 9.80305e-06 0)
(-7.26131e-08 9.68913e-06 0)
(-3.1677e-06 9.96342e-06 0)
(-6.30682e-06 1.06221e-05 0)
(3.29746e-06 1.18456e-05 0)
(-1.12757e-07 1.17457e-05 0)
(-3.49288e-06 1.20171e-05 0)
(-6.91509e-06 1.26579e-05 0)
(3.54084e-06 1.42173e-05 0)
(-1.60956e-07 1.41319e-05 0)
(-3.83342e-06 1.44006e-05 0)
(-7.5466e-06 1.50224e-05 0)
(3.78104e-06 1.69598e-05 0)
(-2.18418e-07 1.68895e-05 0)
(-4.18943e-06 1.71553e-05 0)
(-8.20012e-06 1.77569e-05 0)
(4.0154e-06 2.01182e-05 0)
(-2.86444e-07 2.00635e-05 0)
(-4.56083e-06 2.03262e-05 0)
(-8.874e-06 2.09065e-05 0)
(4.24081e-06 2.37414e-05 0)
(-3.66451e-07 2.37027e-05 0)
(-4.94731e-06 2.39621e-05 0)
(-9.56615e-06 2.45198e-05 0)
(4.45381e-06 2.78816e-05 0)
(-4.59906e-07 2.78593e-05 0)
(-5.34835e-06 2.8115e-05 0)
(-1.02739e-05 2.86488e-05 0)
(4.65772e-06 3.27738e-05 0)
(-5.72593e-07 3.2769e-05 0)
(-5.77897e-06 3.30203e-05 0)
(-1.10215e-05 3.35282e-05 0)
(4.83735e-06 3.83314e-05 0)
(-7.0301e-07 3.8344e-05 0)
(-6.2206e-06 3.85905e-05 0)
(-1.17735e-05 3.9071e-05 0)
(4.97993e-06 4.41811e-05 0)
(-8.42402e-07 4.42103e-05 0)
(-6.64307e-06 4.44516e-05 0)
(-1.24782e-05 4.49053e-05 0)
(5.08717e-06 5.02952e-05 0)
(-9.90011e-07 5.03399e-05 0)
(-7.04661e-06 5.05759e-05 0)
(-1.31368e-05 5.10033e-05 0)
(5.16076e-06 5.66469e-05 0)
(-1.14507e-06 5.67062e-05 0)
(-7.43137e-06 5.69366e-05 0)
(-1.37504e-05 5.73382e-05 0)
(5.20239e-06 6.32102e-05 0)
(-1.30683e-06 6.32831e-05 0)
(-7.79757e-06 6.35078e-05 0)
(-1.43201e-05 6.38842e-05 0)
(5.21377e-06 6.99603e-05 0)
(-1.47454e-06 7.00458e-05 0)
(-8.14542e-06 7.02645e-05 0)
(-1.48471e-05 7.06163e-05 0)
(5.19662e-06 7.68731e-05 0)
(-1.64747e-06 7.69704e-05 0)
(-8.47514e-06 7.71829e-05 0)
(-1.53326e-05 7.75106e-05 0)
(5.15266e-06 8.39257e-05 0)
(-1.82487e-06 8.40338e-05 0)
(-8.787e-06 8.424e-05 0)
(-1.57779e-05 8.45441e-05 0)
(5.08363e-06 9.10962e-05 0)
(-2.00601e-06 9.12141e-05 0)
(-9.08126e-06 9.14137e-05 0)
(-1.61842e-05 9.16951e-05 0)
(4.99125e-06 9.83636e-05 0)
(-2.19018e-06 9.84903e-05 0)
(-9.3582e-06 9.86833e-05 0)
(-1.65528e-05 9.89425e-05 0)
(4.87725e-06 0.000105708 0)
(-2.37666e-06 0.000105843 0)
(-9.61814e-06 0.000106029 0)
(-1.6885e-05 0.000106266 0)
(4.74334e-06 0.00011311 0)
(-2.56477e-06 0.000113252 0)
(-9.86141e-06 0.000113431 0)
(-1.71823e-05 0.000113648 0)
(4.59124e-06 0.000120553 0)
(-2.75382e-06 0.000120701 0)
(-1.00884e-05 0.000120873 0)
(-1.74459e-05 0.00012107 0)
(4.42265e-06 0.000128019 0)
(-2.94314e-06 0.000128172 0)
(-1.02994e-05 0.000128337 0)
(-1.76774e-05 0.000128514 0)
(4.23924e-06 0.000135492 0)
(-3.13211e-06 0.00013565 0)
(-1.04948e-05 0.000135808 0)
(-1.78781e-05 0.000135966 0)
(4.04268e-06 0.000142959 0)
(-3.32008e-06 0.000143119 0)
(-1.06751e-05 0.00014327 0)
(-1.80495e-05 0.000143411 0)
(3.83461e-06 0.000150404 0)
(-3.50645e-06 0.000150568 0)
(-1.08407e-05 0.000150711 0)
(-1.8193e-05 0.000150835 0)
(3.61667e-06 0.000157816 0)
(-3.69064e-06 0.000157981 0)
(-1.0992e-05 0.000158118 0)
(-1.83102e-05 0.000158225 0)
(3.39045e-06 0.000165183 0)
(-3.87208e-06 0.000165349 0)
(-1.11295e-05 0.000165478 0)
(-1.84025e-05 0.00016557 0)
(3.15753e-06 0.000172495 0)
(-4.05023e-06 0.000172661 0)
(-1.12537e-05 0.000172783 0)
(-1.84714e-05 0.00017286 0)
(2.91944e-06 0.000179741 0)
(-4.22454e-06 0.000179907 0)
(-1.13651e-05 0.000180021 0)
(-1.85186e-05 0.000180084 0)
(2.67772e-06 0.000186914 0)
(-4.39453e-06 0.000187078 0)
(-1.14641e-05 0.000187185 0)
(-1.85454e-05 0.000187235 0)
(2.43384e-06 0.000194006 0)
(-4.55971e-06 0.000194168 0)
(-1.15513e-05 0.000194268 0)
(-1.85534e-05 0.000194305 0)
(2.18926e-06 0.00020101 0)
(-4.71961e-06 0.00020117 0)
(-1.16273e-05 0.000201263 0)
(-1.85441e-05 0.000201288 0)
(1.94537e-06 0.000207922 0)
(-4.87379e-06 0.000208078 0)
(-1.16924e-05 0.000208163 0)
(-1.85189e-05 0.000208179 0)
(1.70356e-06 0.000214736 0)
(-5.02184e-06 0.000214888 0)
(-1.17473e-05 0.000214967 0)
(-1.84794e-05 0.000214972 0)
(1.46515e-06 0.00022145 0)
(-5.16335e-06 0.000221597 0)
(-1.17925e-05 0.000221668 0)
(-1.8427e-05 0.000221664 0)
(1.23139e-06 0.00022806 0)
(-5.29796e-06 0.000228201 0)
(-1.18285e-05 0.000228266 0)
(-1.83631e-05 0.000228253 0)
(1.00352e-06 0.000234565 0)
(-5.42533e-06 0.0002347 0)
(-1.18558e-05 0.000234758 0)
(-1.82891e-05 0.000234738 0)
(7.8266e-07 0.000240964 0)
(-5.54514e-06 0.000241093 0)
(-1.1875e-05 0.000241144 0)
(-1.82063e-05 0.000241116 0)
(5.69905e-07 0.000247257 0)
(-5.65712e-06 0.000247379 0)
(-1.18865e-05 0.000247423 0)
(-1.8116e-05 0.00024739 0)
(3.66247e-07 0.000253445 0)
(-5.76103e-06 0.000253559 0)
(-1.18909e-05 0.000253597 0)
(-1.80196e-05 0.000253558 0)
(1.72597e-07 0.00025953 0)
(-5.85666e-06 0.000259636 0)
(-1.18886e-05 0.000259667 0)
(-1.79182e-05 0.000259623 0)
(-1.02274e-08 0.000265514 0)
(-5.94387e-06 0.000265611 0)
(-1.18803e-05 0.000265636 0)
(-1.7813e-05 0.000265588 0)
(-1.81513e-07 0.000271399 0)
(-6.02256e-06 0.000271488 0)
(-1.18663e-05 0.000271507 0)
(-1.77051e-05 0.000271455 0)
(-3.40657e-07 0.00027719 0)
(-6.09265e-06 0.00027727 0)
(-1.18471e-05 0.000277283 0)
(-1.75956e-05 0.000277227 0)
(-4.87174e-07 0.00028289 0)
(-6.15417e-06 0.000282961 0)
(-1.18233e-05 0.000282968 0)
(-1.74853e-05 0.00028291 0)
(-6.20702e-07 0.000288504 0)
(-6.20718e-06 0.000288566 0)
(-1.17954e-05 0.000288568 0)
(-1.73753e-05 0.000288507 0)
(-7.41011e-07 0.000294037 0)
(-6.25179e-06 0.00029409 0)
(-1.17638e-05 0.000294086 0)
(-1.72663e-05 0.000294024 0)
(-8.48002e-07 0.000299495 0)
(-6.28821e-06 0.000299539 0)
(-1.1729e-05 0.000299529 0)
(-1.71592e-05 0.000299466 0)
(-9.41717e-07 0.000304882 0)
(-6.31669e-06 0.000304917 0)
(-1.16915e-05 0.000304903 0)
(-1.70547e-05 0.000304839 0)
(-1.02233e-06 0.000310204 0)
(-6.33754e-06 0.000310231 0)
(-1.16517e-05 0.000310212 0)
(-1.69533e-05 0.000310148 0)
(-1.09017e-06 0.000315468 0)
(-6.35118e-06 0.000315486 0)
(-1.16102e-05 0.000315464 0)
(-1.68556e-05 0.000315399 0)
(-1.14568e-06 0.00032068 0)
(-6.35804e-06 0.000320689 0)
(-1.15673e-05 0.000320663 0)
(-1.67621e-05 0.000320599 0)
(-1.18946e-06 0.000325844 0)
(-6.35865e-06 0.000325846 0)
(-1.15236e-05 0.000325816 0)
(-1.66731e-05 0.000325753 0)
(-1.22222e-06 0.000330967 0)
(-6.35359e-06 0.000330962 0)
(-1.14794e-05 0.00033093 0)
(-1.65891e-05 0.000330867 0)
(-1.2448e-06 0.000336054 0)
(-6.3435e-06 0.000336043 0)
(-1.14353e-05 0.000336008 0)
(-1.65102e-05 0.000335948 0)
(-1.25815e-06 0.000341111 0)
(-6.32906e-06 0.000341095 0)
(-1.13917e-05 0.000341058 0)
(-1.64366e-05 0.000340999 0)
(-1.26333e-06 0.000346143 0)
(-6.31102e-06 0.000346122 0)
(-1.13489e-05 0.000346084 0)
(-1.63685e-05 0.000346026 0)
(-1.26147e-06 0.000351154 0)
(-6.29016e-06 0.000351129 0)
(-1.13075e-05 0.00035109 0)
(-1.63059e-05 0.000351035 0)
(-1.2538e-06 0.000356148 0)
(-6.26731e-06 0.00035612 0)
(-1.12679e-05 0.000356081 0)
(-1.62488e-05 0.000356028 0)
(-1.24157e-06 0.00036113 0)
(-6.24333e-06 0.0003611 0)
(-1.12305e-05 0.000361061 0)
(-1.61973e-05 0.000361011 0)
(-1.22607e-06 0.000366101 0)
(-6.21914e-06 0.00036607 0)
(-1.11958e-05 0.000366032 0)
(-1.61512e-05 0.000365986 0)
(-1.20862e-06 0.000371066 0)
(-6.19582e-06 0.000371034 0)
(-1.11645e-05 0.000370999 0)
(-1.61106e-05 0.000370955 0)
(-1.19034e-06 0.000376025 0)
(-6.17446e-06 0.000375994 0)
(-1.11371e-05 0.000375962 0)
(-1.60753e-05 0.000375923 0)
(-1.17256e-06 0.00038098 0)
(-6.157e-06 0.000380951 0)
(-1.11154e-05 0.000380925 0)
(-1.60454e-05 0.00038089 0)
(-1.15525e-06 0.000385932 0)
(-6.14453e-06 0.000385907 0)
(-1.11e-05 0.000385888 0)
(-1.60198e-05 0.000385858 0)
(-1.14061e-06 0.000390888 0)
(-6.14147e-06 0.000390864 0)
(-1.10951e-05 0.000390848 0)
(-1.59997e-05 0.000390821 0)
(-1.12047e-06 0.000395868 0)
(-6.13715e-06 0.000395829 0)
(-1.10898e-05 0.0003958 0)
(-1.59761e-05 0.00039576 0)
)
;

boundaryField
{
    plateFix
    {
        type            fixedDisplacement;
        value           uniform (0 0 0);
    }
    plate
    {
        type            solidTraction;
        nonLinear       updatedLagrangian;
        traction        uniform (0 0 0);
        pressure        uniform 0;
        value           nonuniform List<vector> 
168
(
(2.46468e-07 2.10346e-07 -6.58459e-26)
(-9.15144e-07 5.88137e-07 -1.24369e-25)
(3.85306e-07 2.92461e-07 1.60468e-25)
(-9.90085e-07 8.97808e-07 -1.68092e-26)
(5.77975e-07 3.93597e-07 4.5289e-26)
(-1.1634e-06 1.17392e-06 1.44106e-25)
(8.0454e-07 5.23357e-07 -1.87335e-26)
(-1.4209e-06 1.42506e-06 2.76871e-26)
(1.05727e-06 6.9949e-07 -6.65511e-26)
(-1.75103e-06 1.68629e-06 -9.66456e-26)
(1.32914e-06 9.34566e-07 3.07128e-26)
(-2.13658e-06 1.97813e-06 2.3774e-26)
(1.61639e-06 1.24197e-06 -7.5352e-26)
(-2.56816e-06 2.32234e-06 2.74037e-26)
(1.9166e-06 1.63469e-06 1.55447e-26)
(-3.03877e-06 2.7373e-06 -6.9106e-26)
(2.22857e-06 2.12671e-06 -6.16023e-26)
(-3.54462e-06 3.2414e-06 9.16876e-26)
(2.5517e-06 2.73331e-06 1.02676e-25)
(-4.0834e-06 3.85302e-06 -7.32637e-26)
(2.88568e-06 3.47165e-06 -7.42234e-26)
(-4.65391e-06 4.59164e-06 9.88607e-27)
(3.23023e-06 4.36111e-06 7.77797e-26)
(-5.25549e-06 5.47829e-06 2.38318e-26)
(3.5849e-06 5.4236e-06 -5.90805e-26)
(-5.88772e-06 6.53599e-06 1.7155e-26)
(3.949e-06 6.68388e-06 2.87611e-27)
(-6.55021e-06 7.79021e-06 -3.04667e-26)
(4.32148e-06 8.1697e-06 1.16828e-26)
(-7.24249e-06 9.26908e-06 4.92985e-27)
(4.70089e-06 9.91207e-06 6.96341e-27)
(-7.96384e-06 1.10037e-05 -2.50477e-26)
(5.08535e-06 1.19454e-05 3.27913e-26)
(-8.7133e-06 1.30286e-05 3.22656e-26)
(5.47251e-06 1.43075e-05 -1.40729e-26)
(-9.48948e-06 1.53813e-05 -5.79748e-26)
(5.85949e-06 1.70401e-05 -2.05949e-26)
(-1.02906e-05 1.81034e-05 3.43273e-26)
(6.24292e-06 2.01882e-05 5.30841e-27)
(-1.11142e-05 2.12399e-05 8.71802e-27)
(6.6188e-06 2.38008e-05 -1.11615e-26)
(-1.19574e-05 2.48392e-05 1.65801e-26)
(6.98261e-06 2.793e-05 1.86812e-26)
(-1.28164e-05 2.89536e-05 2.76744e-27)
(7.34164e-06 3.28107e-05 -1.14815e-26)
(-1.37196e-05 3.3817e-05 -1.45133e-26)
(7.67382e-06 3.83564e-05 2.28277e-26)
(-1.46247e-05 3.93431e-05 2.56169e-26)
(7.95498e-06 4.41949e-05 -3.35616e-26)
(-1.54684e-05 4.51611e-05 -4.18488e-26)
(8.18719e-06 5.02985e-05 3.13774e-26)
(-1.62523e-05 5.12431e-05 1.89886e-26)
(8.37262e-06 5.66401e-05 2.60701e-26)
(-1.6978e-05 5.75624e-05 -4.51112e-26)
(8.51344e-06 6.3194e-05 -3.92057e-26)
(-1.76471e-05 6.40931e-05 8.09627e-26)
(8.61184e-06 6.99352e-05 -3.83572e-28)
(-1.82613e-05 7.08103e-05 -6.11106e-26)
(8.67004e-06 7.68398e-05 -1.39069e-28)
(-1.88223e-05 7.76901e-05 -5.03173e-27)
(8.69025e-06 8.38847e-05 -6.45304e-27)
(-1.93318e-05 8.47096e-05 3.44254e-26)
(8.67471e-06 9.10481e-05 -7.73118e-27)
(-1.97916e-05 9.18469e-05 8.6569e-28)
(8.62565e-06 9.83089e-05 -2.7768e-27)
(-2.02035e-05 9.90811e-05 -2.01608e-26)
(8.54532e-06 0.000105647 1.24517e-27)
(-2.05693e-05 0.000106392 -4.77582e-26)
(8.43594e-06 0.000113044 1.49653e-27)
(-2.0891e-05 0.000113762 5.07111e-26)
(8.29974e-06 0.000120482 3.2806e-26)
(-2.11703e-05 0.000121171 -3.83437e-26)
(8.13894e-06 0.000127944 8.04834e-27)
(-2.14094e-05 0.000128604 1.71391e-26)
(7.95574e-06 0.000135413 -3.25278e-26)
(-2.161e-05 0.000136046 1.68702e-26)
(7.75234e-06 0.000142877 -1.78806e-27)
(-2.17743e-05 0.00014348 -3.09923e-27)
(7.5309e-06 0.00015032 -2.40082e-26)
(-2.19041e-05 0.000150894 1.66505e-26)
(7.29356e-06 0.000157729 1.49341e-26)
(-2.20015e-05 0.000158274 -3.21909e-26)
(7.04246e-06 0.000165095 3.05281e-26)
(-2.20685e-05 0.000165611 1.79584e-27)
(6.77968e-06 0.000172405 -2.85724e-26)
(-2.21072e-05 0.000172892 -9.62633e-27)
(6.50728e-06 0.000179651 5.23396e-27)
(-2.21196e-05 0.000180108 -4.20352e-26)
(6.2273e-06 0.000186824 -2.30139e-26)
(-2.21076e-05 0.000187252 7.80761e-27)
(5.94173e-06 0.000193916 -3.26587e-26)
(-2.20734e-05 0.000194316 4.20634e-26)
(5.65251e-06 0.000200921 -3.238e-26)
(-2.20188e-05 0.000201292 -2.88078e-26)
(5.36155e-06 0.000207834 2.50878e-26)
(-2.1946e-05 0.000208176 5.30781e-26)
(5.07069e-06 0.00021465 1.0455e-26)
(-2.18568e-05 0.000214964 7.55902e-27)
(4.78174e-06 0.000221366 -3.9182e-26)
(-2.17531e-05 0.000221652 -6.57908e-27)
(4.49643e-06 0.000227979 3.25241e-26)
(-2.16369e-05 0.000228236 1.39738e-27)
(4.21641e-06 0.000234486 1.85478e-26)
(-2.15098e-05 0.000234717 5.87357e-26)
(3.94326e-06 0.000240889 -1.00217e-26)
(-2.13738e-05 0.000241092 8.73393e-27)
(3.67847e-06 0.000247186 -2.76028e-26)
(-2.12306e-05 0.000247362 -1.58034e-25)
(3.42342e-06 0.000253378 -3.08449e-26)
(-2.10817e-05 0.000253528 1.77378e-26)
(3.17941e-06 0.000259467 -3.59595e-26)
(-2.09287e-05 0.000259591 -1.75822e-26)
(2.94758e-06 0.000265455 -9.51782e-27)
(-2.07733e-05 0.000265553 -2.16562e-26)
(2.72896e-06 0.000271345 5.79054e-26)
(-2.06166e-05 0.000271419 5.42618e-26)
(2.52445e-06 0.000277141 5.77898e-27)
(-2.04602e-05 0.00027719 -1.89247e-26)
(2.33479e-06 0.000282846 -2.8773e-26)
(-2.03052e-05 0.000282872 5.73939e-26)
(2.16054e-06 0.000288465 8.51723e-26)
(-2.01528e-05 0.000288468 -7.50086e-26)
(2.00214e-06 0.000294003 5.97158e-28)
(-2.0004e-05 0.000293985 1.64304e-25)
(1.85981e-06 0.000299466 -3.1946e-26)
(-1.98597e-05 0.000299427 -1.04746e-26)
(1.73365e-06 0.000304858 7.57692e-27)
(-1.97207e-05 0.000304799 -4.03524e-26)
(1.62352e-06 0.000310186 1.27109e-25)
(-1.95877e-05 0.000310109 4.7923e-26)
(1.52916e-06 0.000315454 1.08259e-25)
(-1.94613e-05 0.000315361 -1.0596e-25)
(1.45011e-06 0.00032067 -3.5245e-26)
(-1.93421e-05 0.000320562 6.93766e-26)
(1.38572e-06 0.000325839 6.60382e-26)
(-1.92302e-05 0.000325717 8.38667e-26)
(1.33521e-06 0.000330966 4.49919e-26)
(-1.91261e-05 0.000330832 6.25478e-26)
(1.29763e-06 0.000336057 -1.03294e-25)
(-1.90298e-05 0.000335913 7.56789e-26)
(1.27187e-06 0.000341117 1.0372e-25)
(-1.89415e-05 0.000340966 6.09613e-26)
(1.2567e-06 0.000346152 6.83254e-26)
(-1.88609e-05 0.000345995 -5.36207e-26)
(1.25079e-06 0.000351165 -2.20639e-25)
(-1.87881e-05 0.000351005 1.41884e-25)
(1.25268e-06 0.000356161 -1.36985e-25)
(-1.87228e-05 0.000356 9.19525e-26)
(1.26084e-06 0.000361144 -2.17863e-25)
(-1.86647e-05 0.000360984 -6.69709e-26)
(1.27373e-06 0.000366117 1.62948e-25)
(-1.86136e-05 0.000365961 5.93949e-26)
(1.28971e-06 0.000371081 1.38187e-25)
(-1.85693e-05 0.000370933 -1.12142e-25)
(1.30741e-06 0.00037604 -6.20257e-26)
(-1.85312e-05 0.000375902 9.60777e-26)
(1.32542e-06 0.000380995 1.73348e-26)
(-1.84991e-05 0.000380871 -2.47201e-26)
(1.3452e-06 0.000385946 1.53871e-25)
(-1.84699e-05 0.000385841 -2.3067e-25)
(1.36989e-06 0.000390902 -2.22758e-26)
(-1.84388e-05 0.000390805 6.82401e-26)
(1.42046e-06 0.000395882 5.39381e-26)
(-1.11268e-06 0.000398399 1.93342e-25)
(-6.13313e-06 0.000398324 -1.27215e-25)
(-1.10853e-05 0.000398267 2.00242e-25)
(-1.5967e-05 0.000398186 -2.89453e-25)
(-1.83834e-05 0.000395745 -6.73679e-26)
)
;
    }
    frontAndBackPlanes
    {
        type            empty;
    }
}


// ************************************************************************* //
