/*--------------------------------*- C++ -*----------------------------------*\
| =========                 |                                                 |
| \\      /  F ield         | OpenFOAM Extend Project: Open source CFD        |
|  \\    /   O peration     | Version:  1.6-ext                               |
|   \\  /    A nd           | Web:      www.extend-project.de                 |
|    \\/     M anipulation  |                                                 |
\*---------------------------------------------------------------------------*/
FoamFile
{
    version     2.0;
    format      ascii;
    class       volScalarField::DimensionedInternalField;
    location    "0.65";
    object      V0;
}
// * * * * * * * * * * * * * * * * * * * * * * * * * * * * * * * * * * * * * //

dimensions      [0 3 0 0 0 0 0];

value           nonuniform List<scalar> 
328
(
2.53354e-07
2.53344e-07
2.53322e-07
2.53327e-07
2.71724e-07
2.71711e-07
2.71694e-07
2.71703e-07
2.91428e-07
2.9141e-07
2.91396e-07
2.91396e-07
3.12558e-07
3.12538e-07
3.12526e-07
3.12519e-07
3.35221e-07
3.35198e-07
3.35187e-07
3.35174e-07
3.59525e-07
3.59501e-07
3.5949e-07
3.59473e-07
3.85592e-07
3.85567e-07
3.85556e-07
3.85535e-07
4.13548e-07
4.13522e-07
4.13511e-07
4.13488e-07
4.43531e-07
4.43504e-07
4.43493e-07
4.43467e-07
4.75688e-07
4.7566e-07
4.75648e-07
4.75621e-07
5.10177e-07
5.10148e-07
5.10135e-07
5.10106e-07
5.47166e-07
5.47136e-07
5.47123e-07
5.47092e-07
5.86837e-07
5.86805e-07
5.86792e-07
5.8676e-07
6.29384e-07
6.29351e-07
6.29337e-07
6.29304e-07
6.75015e-07
6.74982e-07
6.74967e-07
6.74933e-07
7.23955e-07
7.2392e-07
7.23905e-07
7.2387e-07
7.76444e-07
7.76408e-07
7.76392e-07
7.76356e-07
8.32737e-07
8.327e-07
8.32685e-07
8.32648e-07
8.93112e-07
8.93074e-07
8.93058e-07
8.93021e-07
9.57864e-07
9.57826e-07
9.5781e-07
9.57772e-07
1.02731e-06
1.02727e-06
1.02726e-06
1.02722e-06
1.10179e-06
1.10175e-06
1.10174e-06
1.1017e-06
1.26874e-06
1.2687e-06
1.26868e-06
1.26864e-06
1.26873e-06
1.2687e-06
1.26868e-06
1.26864e-06
1.26873e-06
1.2687e-06
1.26868e-06
1.26865e-06
1.26872e-06
1.26869e-06
1.26868e-06
1.26865e-06
1.26872e-06
1.26869e-06
1.26868e-06
1.26866e-06
1.26872e-06
1.26869e-06
1.26868e-06
1.26866e-06
1.26871e-06
1.26869e-06
1.26868e-06
1.26866e-06
1.26871e-06
1.26869e-06
1.26869e-06
1.26867e-06
1.26871e-06
1.26869e-06
1.26869e-06
1.26867e-06
1.2687e-06
1.26869e-06
1.26869e-06
1.26867e-06
1.2687e-06
1.26869e-06
1.26869e-06
1.26868e-06
1.2687e-06
1.26869e-06
1.26869e-06
1.26868e-06
1.2687e-06
1.26869e-06
1.26869e-06
1.26868e-06
1.26869e-06
1.26869e-06
1.26869e-06
1.26869e-06
1.26869e-06
1.26869e-06
1.26869e-06
1.26869e-06
1.26869e-06
1.26869e-06
1.26869e-06
1.26869e-06
1.26869e-06
1.26869e-06
1.26869e-06
1.26869e-06
1.26869e-06
1.26869e-06
1.26869e-06
1.2687e-06
1.26868e-06
1.26869e-06
1.26869e-06
1.2687e-06
1.26868e-06
1.26869e-06
1.26869e-06
1.2687e-06
1.26868e-06
1.26869e-06
1.26869e-06
1.2687e-06
1.26868e-06
1.26869e-06
1.26869e-06
1.2687e-06
1.26868e-06
1.26869e-06
1.26869e-06
1.2687e-06
1.26868e-06
1.26869e-06
1.26869e-06
1.26871e-06
1.26868e-06
1.26869e-06
1.26869e-06
1.26871e-06
1.26868e-06
1.26869e-06
1.26869e-06
1.26871e-06
1.26868e-06
1.26869e-06
1.2687e-06
1.26871e-06
1.26868e-06
1.26869e-06
1.2687e-06
1.26871e-06
1.26868e-06
1.26869e-06
1.2687e-06
1.26871e-06
1.26868e-06
1.26869e-06
1.2687e-06
1.26871e-06
1.26868e-06
1.26869e-06
1.2687e-06
1.26871e-06
1.26868e-06
1.26869e-06
1.2687e-06
1.26871e-06
1.26868e-06
1.26869e-06
1.2687e-06
1.26871e-06
1.26868e-06
1.26869e-06
1.2687e-06
1.26871e-06
1.26868e-06
1.26869e-06
1.2687e-06
1.26871e-06
1.26868e-06
1.26869e-06
1.2687e-06
1.26871e-06
1.26868e-06
1.26869e-06
1.2687e-06
1.26871e-06
1.26868e-06
1.26869e-06
1.2687e-06
1.26871e-06
1.26868e-06
1.26869e-06
1.2687e-06
1.26871e-06
1.26868e-06
1.26869e-06
1.2687e-06
1.26871e-06
1.26868e-06
1.26869e-06
1.2687e-06
1.2687e-06
1.26868e-06
1.26869e-06
1.2687e-06
1.2687e-06
1.26868e-06
1.26869e-06
1.2687e-06
1.2687e-06
1.26869e-06
1.26869e-06
1.2687e-06
1.2687e-06
1.26869e-06
1.26869e-06
1.26869e-06
1.2687e-06
1.26869e-06
1.26869e-06
1.26869e-06
1.2687e-06
1.26869e-06
1.26869e-06
1.26869e-06
1.2687e-06
1.26869e-06
1.26869e-06
1.26869e-06
1.2687e-06
1.26869e-06
1.26869e-06
1.26869e-06
1.2687e-06
1.26869e-06
1.26869e-06
1.26869e-06
1.2687e-06
1.26869e-06
1.26869e-06
1.26869e-06
1.2687e-06
1.26869e-06
1.26869e-06
1.26869e-06
1.26869e-06
1.26869e-06
1.26869e-06
1.26869e-06
1.26869e-06
1.26869e-06
1.26869e-06
1.26869e-06
1.26869e-06
1.26869e-06
1.26869e-06
1.26869e-06
1.26869e-06
1.26869e-06
1.26869e-06
1.26869e-06
1.26869e-06
1.26869e-06
1.26869e-06
1.26869e-06
1.26869e-06
1.26869e-06
1.26869e-06
1.26869e-06
1.26869e-06
1.26869e-06
1.26869e-06
1.26869e-06
1.26869e-06
1.26869e-06
1.26868e-06
1.26868e-06
1.26869e-06
)
;


// ************************************************************************* //
