/*--------------------------------*- C++ -*----------------------------------*\
| =========                 |                                                 |
| \\      /  F ield         | OpenFOAM Extend Project: Open source CFD        |
|  \\    /   O peration     | Version:  1.6-ext                               |
|   \\  /    A nd           | Web:      www.extend-project.de                 |
|    \\/     M anipulation  |                                                 |
\*---------------------------------------------------------------------------*/
FoamFile
{
    version     2.0;
    format      ascii;
    class       volVectorField;
    location    "0.65";
    object      Vs;
}
// * * * * * * * * * * * * * * * * * * * * * * * * * * * * * * * * * * * * * //

dimensions      [0 1 -1 0 0 0 0];

internalField   nonuniform List<vector> 
328
(
(-2.19116e-06 -1.10455e-05 0)
(-3.71802e-07 -2.49688e-06 0)
(-4.07568e-07 2.0885e-06 0)
(-2.28652e-06 1.08383e-05 0)
(-6.57053e-06 -2.83787e-05 0)
(-2.00695e-06 -7.27074e-06 0)
(-2.12969e-06 6.08845e-06 0)
(-6.89466e-06 2.77002e-05 0)
(-1.22196e-05 -4.13176e-05 0)
(-6.02371e-06 -1.17796e-05 0)
(-6.27223e-06 9.84427e-06 0)
(-1.2858e-05 4.01164e-05 0)
(-1.84851e-05 -5.05631e-05 0)
(-1.14499e-05 -1.56931e-05 0)
(-1.18504e-05 1.30316e-05 0)
(-1.95137e-05 4.88145e-05 0)
(-2.55078e-05 -5.70182e-05 0)
(-1.84272e-05 -1.88905e-05 0)
(-1.90111e-05 1.55392e-05 0)
(-2.70173e-05 5.473e-05 0)
(-3.3173e-05 -6.13729e-05 0)
(-2.66075e-05 -2.13312e-05 0)
(-2.74062e-05 1.73454e-05 0)
(-3.52632e-05 5.85863e-05 0)
(-4.15219e-05 -6.41872e-05 0)
(-3.59051e-05 -2.30681e-05 0)
(-3.69551e-05 1.85305e-05 0)
(-4.43082e-05 6.09816e-05 0)
(-5.05647e-05 -6.58698e-05 0)
(-4.61578e-05 -2.41855e-05 0)
(-4.75001e-05 1.92177e-05 0)
(-5.41801e-05 6.23698e-05 0)
(-6.03426e-05 -6.6726e-05 0)
(-5.7286e-05 -2.47851e-05 0)
(-5.8969e-05 1.95607e-05 0)
(-6.4941e-05 6.31126e-05 0)
(-7.08904e-05 -6.6968e-05 0)
(-6.92217e-05 -2.49559e-05 0)
(-7.13017e-05 1.97175e-05 0)
(-7.66503e-05 6.34929e-05 0)
(-8.22458e-05 -6.6734e-05 0)
(-8.19401e-05 -2.47631e-05 0)
(-8.44831e-05 1.98426e-05 0)
(-8.93738e-05 6.37398e-05 0)
(-9.44422e-05 -6.60972e-05 0)
(-9.54416e-05 -2.42365e-05 0)
(-9.85244e-05 2.00803e-05 0)
(-0.000103177 6.40413e-05 0)
(-0.000107511 -6.50735e-05 0)
(-0.000109755 -2.3367e-05 0)
(-0.000113466 2.05668e-05 0)
(-0.000118128 6.45591e-05 0)
(-0.000121483 -6.36271e-05 0)
(-0.000124927 -2.21035e-05 0)
(-0.000129371 2.14347e-05 0)
(-0.000134297 6.54401e-05 0)
(-0.000136387 -6.16741e-05 0)
(-0.000141021 -2.03538e-05 0)
(-0.000146316 2.28212e-05 0)
(-0.000151761 6.68294e-05 0)
(-0.000152256 -5.9085e-05 0)
(-0.000158112 -1.79838e-05 0)
(-0.000164392 2.48775e-05 0)
(-0.0001706 6.8882e-05 0)
(-0.000169125 -5.56856e-05 0)
(-0.000176277 -1.48171e-05 0)
(-0.000183698 2.77799e-05 0)
(-0.000190905 7.17749e-05 0)
(-0.000187031 -5.12544e-05 0)
(-0.000195599 -1.06317e-05 0)
(-0.000204334 3.17403e-05 0)
(-0.000212773 7.57193e-05 0)
(-0.000206016 -4.55187e-05 0)
(-0.000216159 -5.15504e-06 0)
(-0.000226405 3.70177e-05 0)
(-0.000236312 8.09723e-05 0)
(-0.000226125 -3.8147e-05 0)
(-0.000238042 1.94378e-06 0)
(-0.000250017 4.39297e-05 0)
(-0.000261636 8.78492e-05 0)
(-0.000247406 -2.87387e-05 0)
(-0.000261329 1.10648e-05 0)
(-0.000275278 5.28653e-05 0)
(-0.000288866 9.67358e-05 0)
(-0.000269908 -1.68105e-05 0)
(-0.000286102 2.26902e-05 0)
(-0.000302295 6.42979e-05 0)
(-0.000318132 0.000108102 0)
(-0.000294589 -1.20733e-06 0)
(-0.000313447 3.7962e-05 0)
(-0.00033228 7.93552e-05 0)
(-0.000350765 0.00012307 0)
(-0.000320567 1.85141e-05 0)
(-0.00034243 5.73341e-05 0)
(-0.000364244 9.84925e-05 0)
(-0.000385722 0.00014209 0)
(-0.000346118 4.14019e-05 0)
(-0.000371125 7.98783e-05 0)
(-0.000396059 0.000120795 0)
(-0.000420668 0.000164254 0)
(-0.000371257 6.75878e-05 0)
(-0.000399529 0.000105726 0)
(-0.000427707 0.000146395 0)
(-0.00045557 0.000189695 0)
(-0.000395998 9.71866e-05 0)
(-0.000427642 0.000134991 0)
(-0.00045917 0.000175405 0)
(-0.000490394 0.000218527 0)
(-0.000420356 0.000130296 0)
(-0.000455462 0.000167772 0)
(-0.000490429 0.000207922 0)
(-0.000525103 0.000250845 0)
(-0.000444342 0.000166996 0)
(-0.000482984 0.000204148 0)
(-0.000521466 0.000244027 0)
(-0.000559665 0.000286732 0)
(-0.000467969 0.00020735 0)
(-0.000510205 0.000244182 0)
(-0.000552261 0.000283782 0)
(-0.000594043 0.000326249 0)
(-0.000491246 0.000251407 0)
(-0.000537122 0.000287922 0)
(-0.000582796 0.000327235 0)
(-0.000628205 0.000369444 0)
(-0.000514182 0.0002992 0)
(-0.000563727 0.000335399 0)
(-0.000613051 0.000374417 0)
(-0.000662116 0.00041635 0)
(-0.000536784 0.000350746 0)
(-0.000590016 0.000386631 0)
(-0.000643008 0.000425346 0)
(-0.000695746 0.000466984 0)
(-0.000559057 0.000406052 0)
(-0.000615981 0.000441624 0)
(-0.000672647 0.000480027 0)
(-0.000729063 0.000521354 0)
(-0.000581004 0.000465113 0)
(-0.000641614 0.000500372 0)
(-0.00070195 0.000538454 0)
(-0.000762039 0.000579454 0)
(-0.000602626 0.000527913 0)
(-0.000666908 0.000562856 0)
(-0.000730899 0.00060061 0)
(-0.000794645 0.000641267 0)
(-0.000623924 0.000594426 0)
(-0.000691854 0.000629053 0)
(-0.000759478 0.00066647 0)
(-0.000826856 0.000706769 0)
(-0.000644895 0.00066462 0)
(-0.000716442 0.000698928 0)
(-0.000787668 0.000736 0)
(-0.000858647 0.000775927 0)
(-0.000665537 0.000738455 0)
(-0.000740663 0.00077244 0)
(-0.000815454 0.000809159 0)
(-0.000889994 0.000848701 0)
(-0.000685846 0.000815885 0)
(-0.000764507 0.000849544 0)
(-0.000842819 0.000885903 0)
(-0.000920877 0.000925048 0)
(-0.000705815 0.000896859 0)
(-0.000787964 0.000930189 0)
(-0.000869749 0.000966179 0)
(-0.000951276 0.00100492 0)
(-0.00072544 0.000981323 0)
(-0.000811022 0.00101432 0)
(-0.000896228 0.00104993 0)
(-0.000981171 0.00108825 0)
(-0.000744712 0.00106922 0)
(-0.000833672 0.00110188 0)
(-0.000922243 0.00113711 0)
(-0.00101054 0.001175 0)
(-0.000763626 0.00116048 0)
(-0.000855904 0.0011928 0)
(-0.00094778 0.00122764 0)
(-0.00103938 0.0012651 0)
(-0.000782172 0.00125506 0)
(-0.000877706 0.00128703 0)
(-0.000972827 0.00132147 0)
(-0.00106766 0.00135848 0)
(-0.000800344 0.00135287 0)
(-0.000899069 0.00138449 0)
(-0.00099737 0.00141854 0)
(-0.00109538 0.00145509 0)
(-0.000818132 0.00145386 0)
(-0.000919983 0.00148513 0)
(-0.0010214 0.00151877 0)
(-0.00112251 0.00155486 0)
(-0.00083553 0.00155796 0)
(-0.000940438 0.00158887 0)
(-0.0010449 0.00162209 0)
(-0.00114905 0.00165772 0)
(-0.00085253 0.00166509 0)
(-0.000960424 0.00169564 0)
(-0.00106786 0.00172845 0)
(-0.00117498 0.0017636 0)
(-0.000869122 0.00177519 0)
(-0.000979931 0.00180537 0)
(-0.00109027 0.00183776 0)
(-0.00120029 0.00187244 0)
(-0.000885301 0.00188819 0)
(-0.00099895 0.001918 0)
(-0.00111212 0.00194996 0)
(-0.00122496 0.00198415 0)
(-0.000901058 0.002004 0)
(-0.00101747 0.00203344 0)
(-0.00113339 0.00206496 0)
(-0.00124898 0.00209866 0)
(-0.000916385 0.00212255 0)
(-0.00103548 0.00215162 0)
(-0.00115408 0.00218271 0)
(-0.00127234 0.00221591 0)
(-0.000931274 0.00224377 0)
(-0.00105298 0.00227246 0)
(-0.00117417 0.00230311 0)
(-0.00129503 0.0023358 0)
(-0.000945718 0.00236758 0)
(-0.00106995 0.00239588 0)
(-0.00119365 0.00242608 0)
(-0.00131702 0.00245827 0)
(-0.000959709 0.00249389 0)
(-0.00108637 0.00252181 0)
(-0.00121251 0.00255155 0)
(-0.0013383 0.00258321 0)
(-0.000973237 0.00262261 0)
(-0.00110225 0.00265014 0)
(-0.00123073 0.00267943 0)
(-0.00135886 0.00271056 0)
(-0.000986293 0.00275367 0)
(-0.00111757 0.00278081 0)
(-0.00124829 0.00280963 0)
(-0.00137867 0.00284022 0)
(-0.000998867 0.00288697 0)
(-0.0011323 0.0029137 0)
(-0.00126519 0.00294205 0)
(-0.00139772 0.00297209 0)
(-0.00101095 0.00302241 0)
(-0.00114645 0.00304874 0)
(-0.0012814 0.0030766 0)
(-0.00141598 0.00310608 0)
(-0.00102252 0.00315991 0)
(-0.00115999 0.00318582 0)
(-0.0012969 0.00321318 0)
(-0.00143344 0.00324208 0)
(-0.00103358 0.00329935 0)
(-0.00117291 0.00332483 0)
(-0.00131167 0.00335169 0)
(-0.00145007 0.00338 0)
(-0.00104409 0.00344063 0)
(-0.00118519 0.00346568 0)
(-0.0013257 0.00349202 0)
(-0.00146584 0.00351973 0)
(-0.00105406 0.00358365 0)
(-0.00119681 0.00360825 0)
(-0.00133896 0.00363405 0)
(-0.00148074 0.00366115 0)
(-0.00106345 0.0037283 0)
(-0.00120774 0.00375244 0)
(-0.00135142 0.00377769 0)
(-0.00149472 0.00380414 0)
(-0.00107224 0.00387447 0)
(-0.00121796 0.00389812 0)
(-0.00136306 0.0039228 0)
(-0.00150777 0.0039486 0)
(-0.00108041 0.00402203 0)
(-0.00122744 0.00404518 0)
(-0.00137385 0.00406928 0)
(-0.00151986 0.0040944 0)
(-0.00108792 0.00417088 0)
(-0.00123616 0.00419351 0)
(-0.00138375 0.004217 0)
(-0.00153094 0.00424142 0)
(-0.00109475 0.00432089 0)
(-0.00124407 0.00434298 0)
(-0.00139274 0.00436584 0)
(-0.00154099 0.00438954 0)
(-0.00110085 0.00447196 0)
(-0.00125115 0.00449348 0)
(-0.00140078 0.00451568 0)
(-0.00154997 0.00453863 0)
(-0.00110619 0.00462396 0)
(-0.00125736 0.00464488 0)
(-0.00140784 0.0046664 0)
(-0.00155785 0.00468857 0)
(-0.00111072 0.00477679 0)
(-0.00126264 0.00479707 0)
(-0.00141385 0.00481788 0)
(-0.00156458 0.00483925 0)
(-0.00111437 0.00493033 0)
(-0.00126695 0.00494994 0)
(-0.00141879 0.00497 0)
(-0.00157012 0.00499053 0)
(-0.0011171 0.00508448 0)
(-0.00127023 0.00510338 0)
(-0.00142261 0.00512265 0)
(-0.00157442 0.00514231 0)
(-0.00111884 0.00523913 0)
(-0.00127243 0.00525727 0)
(-0.00142523 0.00527571 0)
(-0.00157744 0.00529447 0)
(-0.0011195 0.0053942 0)
(-0.00127346 0.00541153 0)
(-0.00142661 0.00542909 0)
(-0.00157911 0.0054469 0)
(-0.00111901 0.00554959 0)
(-0.00127327 0.00556605 0)
(-0.00142668 0.00558268 0)
(-0.00157939 0.0055995 0)
(-0.00111727 0.00570525 0)
(-0.00127174 0.00572076 0)
(-0.00142534 0.00573639 0)
(-0.00157819 0.00575217 0)
(-0.00111418 0.0058611 0)
(-0.00126879 0.0058756 0)
(-0.00142251 0.00589014 0)
(-0.00157546 0.00590482 0)
(-0.00110961 0.0060171 0)
(-0.00126427 0.0060305 0)
(-0.00141807 0.00604387 0)
(-0.0015711 0.00605738 0)
(-0.00110352 0.00617315 0)
(-0.00125811 0.00618539 0)
(-0.00141195 0.00619756 0)
(-0.0015651 0.00620986 0)
(-0.00109561 0.0063288 0)
(-0.00125006 0.0063401 0)
(-0.00140392 0.0063513 0)
(-0.00155722 0.00636265 0)
)
;

boundaryField
{
    plateFix
    {
        type            calculated;
        value           uniform (0 0 0);
    }
    plate
    {
        type            calculated;
        value           nonuniform List<vector> 
168
(
(-5.07074e-05 -2.92908e-05 1.71548e-23)
(-4.97261e-05 2.93749e-05 -4.57074e-23)
(-4.20311e-05 -4.72082e-05 3.95468e-23)
(-4.12088e-05 4.6907e-05 6.92426e-23)
(-3.64728e-05 -6.10038e-05 -4.41122e-24)
(-3.59586e-05 6.0277e-05 -1.27036e-23)
(-3.45018e-05 -7.05881e-05 3.34914e-23)
(-3.44369e-05 6.93977e-05 -3.43876e-23)
(-3.58022e-05 -7.7317e-05 -9.14159e-24)
(-3.63376e-05 7.56716e-05 4.25023e-23)
(-3.95499e-05 -8.18195e-05 -3.57785e-23)
(-4.0838e-05 7.976e-05 -9.42205e-24)
(-4.52635e-05 -8.47463e-05 4.71714e-23)
(-4.747e-05 8.23556e-05 2.93524e-23)
(-5.25477e-05 -8.65068e-05 -1.28057e-24)
(-5.58571e-05 8.39137e-05 4.44287e-25)
(-6.11589e-05 -8.7421e-05 -1.86574e-23)
(-6.57821e-05 8.48117e-05 -4.3278e-23)
(-7.09237e-05 -8.76989e-05 3.49694e-23)
(-7.71036e-05 8.53311e-05 2.46163e-23)
(-8.17307e-05 -8.74786e-05 -2.99536e-23)
(-8.97481e-05 8.57009e-05 7.60234e-25)
(-9.35053e-05 -8.68311e-05 -2.25276e-23)
(-0.000103684 8.61075e-05 1.26195e-23)
(-0.000106202 -8.57724e-05 1.31226e-23)
(-0.000118916 8.67123e-05 -1.33507e-23)
(-0.000119796 -8.42676e-05 3.3855e-24)
(-0.000135473 8.76631e-05 1.23981e-23)
(-0.000134281 -8.22349e-05 4.42297e-25)
(-0.000153409 8.91067e-05 -2.28939e-23)
(-0.000149662 -7.95474e-05 -1.45727e-24)
(-0.000172797 9.12e-05 -1.21596e-24)
(-0.000165958 -7.60336e-05 8.91581e-24)
(-0.000193728 9.41221e-05 2.17338e-23)
(-0.000183193 -7.14745e-05 -1.19503e-24)
(-0.000216305 9.80858e-05 1.01855e-24)
(-0.000201399 -6.55994e-05 -4.55371e-24)
(-0.000240647 0.000103349 -2.31264e-23)
(-0.00022061 -5.80781e-05 -5.68019e-24)
(-0.00026688 0.000110228 2.72274e-23)
(-0.000240864 -4.8511e-05 -2.55977e-24)
(-0.000295141 0.000119108 -3.25286e-23)
(-0.000262198 -3.64154e-05 -2.97049e-24)
(-0.000325572 0.000130459 1.30891e-23)
(-0.000285504 -2.06303e-05 -5.32397e-25)
(-0.000359574 0.000145397 1.2332e-24)
(-0.000309939 -7.18036e-07 1.70952e-23)
(-0.000396068 0.000164373 -6.84306e-24)
(-0.000333877 2.23564e-05 -7.87611e-24)
(-0.00043262 0.000186482 1.21381e-23)
(-0.000357341 4.87243e-05 -1.03077e-24)
(-0.00046919 0.000211856 -1.09296e-23)
(-0.000380356 7.85009e-05 5.89224e-24)
(-0.000505733 0.000240607 4.68301e-24)
(-0.000402942 0.000111784 -1.05485e-23)
(-0.000542207 0.000272835 5.45868e-24)
(-0.000425121 0.000148653 1.19583e-23)
(-0.000578568 0.000308618 -8.89197e-24)
(-0.000446913 0.000189174 -8.70995e-24)
(-0.000614774 0.000348021 -2.6287e-24)
(-0.000468335 0.000233395 -1.22503e-24)
(-0.000650782 0.00039109 5.08267e-24)
(-0.000489403 0.000281348 5.55327e-24)
(-0.000686553 0.00043786 -1.3196e-24)
(-0.000510131 0.000333053 -4.06209e-24)
(-0.000722048 0.000488348 -4.84351e-24)
(-0.00053053 0.000388516 -6.04226e-24)
(-0.00075723 0.000542561 2.76001e-24)
(-0.000550607 0.000447733 -1.7092e-24)
(-0.000792065 0.000600495 -9.73732e-25)
(-0.000570371 0.000510689 -7.30677e-24)
(-0.000826519 0.000662133 3.41221e-24)
(-0.000589824 0.000577358 3.25545e-24)
(-0.000860564 0.000727452 -7.46424e-24)
(-0.000608968 0.000647708 -1.32483e-24)
(-0.00089417 0.000796419 3.45681e-24)
(-0.000627804 0.0007217 -6.61445e-24)
(-0.000927311 0.000868996 1.03716e-24)
(-0.00064633 0.000799289 9.74335e-24)
(-0.000959963 0.000945139 4.0694e-24)
(-0.000664543 0.000880423 -2.24255e-24)
(-0.000992104 0.0010248 -3.05311e-24)
(-0.000682438 0.000965048 -3.6362e-24)
(-0.00102371 0.00110792 -4.06741e-24)
(-0.000700011 0.00105311 1.18431e-24)
(-0.00105477 0.00119444 7.35852e-24)
(-0.000717256 0.00114454 -2.48308e-24)
(-0.00108526 0.00128431 1.071e-24)
(-0.000734165 0.00123928 -2.51154e-23)
(-0.00111516 0.00137747 -2.02343e-23)
(-0.000750732 0.00133726 -1.94855e-24)
(-0.00114447 0.00147385 -3.74538e-24)
(-0.00076695 0.00143842 -8.83474e-24)
(-0.00117316 0.00157338 1.40459e-23)
(-0.000782812 0.00154269 -1.39044e-24)
(-0.00120121 0.001676 7.16043e-24)
(-0.00079831 0.00165 -2.8034e-24)
(-0.00122863 0.00178163 2.15514e-25)
(-0.000813438 0.00176027 5.38688e-24)
(-0.00125539 0.00189022 7.17138e-24)
(-0.000828188 0.00187344 3.29931e-24)
(-0.00128147 0.00200168 3.30447e-24)
(-0.000842554 0.00198943 7.40362e-24)
(-0.00130687 0.00211594 -8.92192e-25)
(-0.00085653 0.00210817 -1.54183e-23)
(-0.00133157 0.00223293 -1.12769e-23)
(-0.000870108 0.00222957 -3.219e-24)
(-0.00135555 0.00235256 3.93129e-24)
(-0.000883283 0.00235356 -8.77466e-24)
(-0.00137881 0.00247476 1.25989e-23)
(-0.000896046 0.00248005 1.1955e-23)
(-0.00140131 0.00259944 5.69202e-24)
(-0.000908391 0.00260896 4.03119e-24)
(-0.00142304 0.00272651 -2.04221e-24)
(-0.000920309 0.00274021 7.72421e-24)
(-0.00144398 0.00285589 5.60215e-24)
(-0.000931793 0.0028737 -1.69241e-23)
(-0.00146411 0.00298747 1.05837e-23)
(-0.000942832 0.00300934 2.19369e-24)
(-0.00148341 0.00312117 -1.33146e-23)
(-0.000953415 0.00314703 1.3595e-23)
(-0.00150186 0.00325687 8.23372e-24)
(-0.00096353 0.00328667 1.15499e-23)
(-0.00151942 0.00339449 1.11907e-23)
(-0.000973163 0.00342816 -1.36677e-23)
(-0.00153608 0.0035339 -8.70823e-24)
(-0.000982296 0.0035714 1.16373e-23)
(-0.0015518 0.00367499 6.50128e-24)
(-0.000990911 0.00371627 2.71503e-24)
(-0.00156655 0.00381766 3.1439e-24)
(-0.000998985 0.00386266 -6.17744e-25)
(-0.00158031 0.00396177 3.42601e-24)
(-0.00100649 0.00401046 4.15113e-24)
(-0.00159304 0.00410722 -5.56125e-25)
(-0.00101341 0.00415956 -2.43365e-23)
(-0.00160471 0.00425388 -3.05038e-25)
(-0.00101969 0.00430984 3.58812e-24)
(-0.00161529 0.00440162 1.80477e-23)
(-0.00102531 0.00446118 6.1029e-25)
(-0.00162474 0.00455032 -1.08831e-23)
(-0.00103022 0.00461347 -1.19398e-23)
(-0.00163302 0.00469986 -1.88446e-23)
(-0.00103437 0.0047666 1.56422e-23)
(-0.00164009 0.00485012 1.99442e-23)
(-0.00103771 0.00492047 -2.24139e-25)
(-0.00164591 0.00500098 -3.97975e-26)
(-0.00104017 0.00507496 8.17569e-24)
(-0.00165044 0.00515231 1.24441e-23)
(-0.00104168 0.00522999 -3.04149e-23)
(-0.00165363 0.005304 -3.03395e-23)
(-0.00104217 0.00538546 1.34092e-23)
(-0.00165541 0.00545595 3.08984e-23)
(-0.00104154 0.00554128 -1.9758e-25)
(-0.00165575 0.00560804 4.91808e-25)
(-0.00103969 0.0056974 -4.6632e-24)
(-0.00165457 0.00576018 -9.73127e-24)
(-0.00103652 0.00585376 9.35813e-24)
(-0.00165183 0.00591226 5.26585e-24)
(-0.00103191 0.00601029 -2.44285e-23)
(-0.00164743 0.00606425 -9.95118e-24)
(-0.00102592 0.00616694 9.86452e-24)
(-0.0016415 0.0062161 -2.26861e-26)
(-0.00101839 0.00632315 5.31278e-24)
(-0.00109101 0.00640609 1.64662e-24)
(-0.00124545 0.0064173 -5.4913e-24)
(-0.00139931 0.00642822 -1.48408e-24)
(-0.00155264 0.00643952 5.6752e-24)
(-0.00163394 0.00636833 -2.06568e-23)
)
;
    }
    frontAndBackPlanes
    {
        type            empty;
    }
}


// ************************************************************************* //
