/*--------------------------------*- C++ -*----------------------------------*\
| =========                 |                                                 |
| \\      /  F ield         | OpenFOAM Extend Project: Open source CFD        |
|  \\    /   O peration     | Version:  1.6-ext                               |
|   \\  /    A nd           | Web:      www.extend-project.de                 |
|    \\/     M anipulation  |                                                 |
\*---------------------------------------------------------------------------*/
FoamFile
{
    version     2.0;
    format      ascii;
    class       volScalarField;
    location    "0.9";
    object      p;
}
// * * * * * * * * * * * * * * * * * * * * * * * * * * * * * * * * * * * * * //

dimensions      [0 2 -2 0 0 0 0];

internalField   nonuniform List<scalar> 
284
(
0.24607
0.214669
0.203282
0.19826
0.196028
0.19549
0.195888
0.196891
0.199516
0.216902
0.207867
0.202417
0.199765
0.198606
0.198473
0.198959
0.199795
0.202572
0.205394
0.201711
0.198976
0.1976
0.197159
0.197452
0.198183
0.199098
0.202313
0.196329
0.194966
0.193728
0.193204
0.193227
0.193717
0.194459
0.195225
0.198687
0.188956
0.188366
0.187728
0.187401
0.187286
0.187384
0.187501
0.187396
0.190467
0.182345
0.181971
0.181361
0.180652
0.179744
0.178664
0.17714
0.174756
0.175479
0.176174
0.175797
0.174878
0.173355
0.171037
0.167837
0.163097
0.155411
0.148843
0.170509
0.170038
0.168616
0.165988
0.161776
0.155684
0.146388
0.133068
0.088358
0.165629
0.165019
0.163002
0.159129
0.152584
0.142288
0.122392
0.0860337
-0.00769778
0.161911
0.161098
0.158486
0.153591
0.145545
0.133369
0.11316
0.0827974
0.032056
0.159811
0.158526
0.155265
0.149634
0.141061
0.128953
0.111784
0.0880555
0.0574513
0.159353
0.157294
0.153203
0.146905
0.138186
0.126595
0.111595
0.0917325
0.0692193
0.162911
0.158763
0.152336
0.145006
0.136155
0.125132
0.111634
0.0946149
0.0762145
0.169536
0.159905
0.151323
0.143351
0.134709
0.124349
0.111935
0.0968158
0.0804151
0.198234
0.166913
0.153291
0.144431
0.135748
0.125877
0.114013
0.0995953
0.08362
-0.141797
-0.1191
-0.0364539
-0.0617431
0.0100293
-0.0167042
0.0388515
0.0166681
0.0547204
0.0359075
0.0625421
0.0453163
0.0662281
0.0486936
-0.105388
-0.0769413
-0.0445383
-0.0197497
-0.00557272
0.000896656
0.00300809
0.00277738
0.000989614
-0.0657634
-0.0493658
-0.0270338
-0.0103024
-0.00118394
0.00270158
0.00360084
0.0028316
0.000758906
-0.0246372
-0.0196168
-0.00984003
-0.00179352
0.0026219
0.00417325
0.00395365
0.00272849
0.000528807
0.00500379
0.00165462
0.0027485
0.00458145
0.00538953
0.00504795
0.00392495
0.00240351
0.000279349
0.0223423
0.014563
0.0105691
0.00836646
0.00669184
0.00507493
0.00343312
0.00185678
3.1538e-05
0.0315031
0.0212601
0.0143469
0.00981084
0.00671152
0.00443739
0.00265082
0.00122184
-0.000145757
0.0333898
0.0215128
0.0132219
0.00787453
0.00453857
0.00242395
0.00101873
6.61104e-05
-0.000518431
-0.0126704
-0.010351
-0.0069464
-0.00346112
-0.000656439
0.00119305
0.00204412
0.00203361
0.00129529
-0.0148887
-0.0125557
-0.00925068
-0.00553767
-0.00240494
-0.000216518
0.000969468
0.00130318
0.00105277
-0.0185416
-0.0157243
-0.0116896
-0.00714118
-0.00336531
-0.000751176
0.000693094
0.00117679
0.00107184
-0.0245984
-0.0211032
-0.015486
-0.00936093
-0.00446683
-0.00118381
0.000598734
0.00120825
0.00111697
-0.0340367
-0.0294169
-0.0210837
-0.0123562
-0.00569732
-0.00146584
0.000719993
0.00140828
0.00118609
-0.0515217
-0.0418758
-0.0293285
-0.0163188
-0.00698437
-0.00151768
0.00107747
0.00175668
0.00125563
-0.0708499
-0.0568929
-0.039016
-0.0207208
-0.00808136
-0.0012801
0.00161531
0.00216204
0.00126706
-0.120792
-0.0784655
-0.0483852
-0.0238004
-0.00821688
-0.000601302
0.00226076
0.0025197
0.00117194
)
;

boundaryField
{
    inlet
    {
        type            zeroGradient;
    }
    outlet
    {
        type            totalPressure;
        rho             none;
        psi             none;
        gamma           1;
        p0              uniform 0;
        value           uniform 0;
    }
    fixedWalls
    {
        type            zeroGradient;
    }
    frontAndBack
    {
        type            empty;
    }
}


// ************************************************************************* //
