/*--------------------------------*- C++ -*----------------------------------*\
| =========                 |                                                 |
| \\      /  F ield         | OpenFOAM Extend Project: Open source CFD        |
|  \\    /   O peration     | Version:  1.6-ext                               |
|   \\  /    A nd           | Web:      www.extend-project.de                 |
|    \\/     M anipulation  |                                                 |
\*---------------------------------------------------------------------------*/
FoamFile
{
    version     2.0;
    format      ascii;
    class       surfaceScalarField;
    location    "0.9";
    object      phi;
}
// * * * * * * * * * * * * * * * * * * * * * * * * * * * * * * * * * * * * * //

dimensions      [0 3 -1 0 0 0 0];

internalField   nonuniform List<scalar> 
525
(
0.000161505
3.84953e-05
0.0001201
4.14042e-05
8.80822e-05
3.20183e-05
6.46505e-05
2.34317e-05
4.66246e-05
1.80259e-05
3.10354e-05
1.55892e-05
1.64416e-05
1.45938e-05
4.20519e-06
1.22364e-05
4.20519e-06
0.00020517
3.33255e-05
0.00019139
5.51839e-05
0.000166072
5.73364e-05
0.000136908
5.25958e-05
0.000106791
4.81429e-05
7.60433e-05
4.63368e-05
4.47294e-05
4.59078e-05
1.58408e-05
4.1125e-05
2.0046e-05
0.000208162
2.51632e-05
0.000204929
5.84174e-05
0.00018856
7.37054e-05
0.000163167
7.79884e-05
0.000132302
7.90086e-05
9.7524e-05
8.11143e-05
5.96757e-05
8.3756e-05
2.25542e-05
7.82465e-05
4.26001e-05
0.000204386
2.07777e-05
0.000203022
5.97805e-05
0.00019127
8.54574e-05
0.000170449
9.88101e-05
0.000142619
0.000106838
0.000108723
0.00011501
6.91374e-05
0.000123342
2.74595e-05
0.000119925
7.00596e-05
0.000201918
1.88597e-05
0.000200463
6.1236e-05
0.000191638
9.42816e-05
0.000175147
0.000115301
0.000151509
0.000130477
0.000120442
0.000146077
8.0901e-05
0.000162883
3.47548e-05
0.000166071
0.000104814
0.00020112
1.77401e-05
0.000200523
6.18329e-05
0.00019502
9.97839e-05
0.00018348
0.000126842
0.000165273
0.000148684
0.000138843
0.000172507
0.000100929
0.000200797
4.92917e-05
0.000217708
0.000154106
0.000201373
1.63669e-05
0.000202988
6.02185e-05
0.000202058
0.000100713
0.00019698
0.000131921
0.000186542
0.000159121
0.000168755
0.000190294
0.000137271
0.000232281
8.10879e-05
0.000273891
0.000235194
0.000202182
1.41852e-05
0.000207044
5.53557e-05
0.000211952
9.58055e-05
0.000215069
0.000128804
0.000215036
0.000159154
0.000209751
0.000195578
0.00018949
0.000252542
0.000133707
0.000329674
0.000368901
0.000203256
1.09292e-05
0.000211884
4.67281e-05
0.000223298
8.43915e-05
0.000235959
0.000116142
0.000250604
0.000144509
0.000270524
0.000175659
0.000307231
0.000215834
0.000381959
0.000254946
0.000329331
0.000421529
0.00020453
6.39959e-06
0.000216865
3.43931e-05
0.000234146
6.71097e-05
0.000254746
9.55426e-05
0.00027989
0.000119365
0.000313299
0.000142251
0.000361277
0.000167855
0.000440515
0.000175708
0.000240999
0.000528848
0.00020637
2.97558e-08
0.000222072
1.86906e-05
0.000243618
4.55643e-05
0.000268908
7.02526e-05
0.000298365
8.99083e-05
0.000334431
0.000106185
0.000380286
0.000122
0.000437315
0.000118679
0.000151004
0.000527309
0.000209331
-9.30153e-06
0.000228115
-9.25997e-08
0.000251918
2.17605e-05
0.00027874
4.34304e-05
0.000308809
5.98396e-05
0.000343565
7.14293e-05
0.000384927
8.06372e-05
0.000427693
7.5914e-05
8.60801e-05
0.000492617
0.000213736
-2.30372e-05
0.000233216
-1.95729e-05
0.000255371
-3.94738e-07
0.000280014
1.87882e-05
0.000307967
3.18857e-05
0.000339574
3.98223e-05
0.000375566
4.46456e-05
0.000409982
4.14974e-05
4.20653e-05
0.000453997
0.000211375
-3.44124e-05
0.000219801
-2.79985e-05
0.000230882
-1.1476e-05
0.000247919
1.75129e-06
0.000270234
9.57093e-06
0.000296395
1.36605e-05
0.000325503
1.55381e-05
0.00035291
1.40905e-05
1.29811e-05
0.000381994
0.000165588
0.000137589
0.000126113
0.000127864
0.000137435
0.000151096
0.000166634
0.000180724
0.000193706
0.000293204
0.000128325
1.82095e-05
0.000274994
0.000527116
0.000130057
2.20465e-05
0.000523279
0.000562229
9.51369e-05
1.86587e-05
0.000565617
0.000530448
5.73062e-05
8.91798e-06
0.000540189
0.000484867
2.6436e-05
-2.57752e-08
0.000493811
0.000401779
6.65107e-06
-3.46868e-06
0.000405222
0.000200357
0.000196888
0.000306133
-0.000105311
7.41724e-05
0.000324319
-0.000188237
0.000170052
0.000319636
-0.000217955
0.000222638
0.000303043
-0.000203914
0.000220508
0.000285781
-0.000169381
0.000186643
0.000272436
-0.000131719
0.000145064
0.00026352
-9.82539e-05
0.00010717
0.000258318
-7.05901e-05
7.57923e-05
-4.56259e-05
4.82987e-05
0.000499448
-8.14801e-05
0.000460779
-0.000149569
0.000413317
-0.000170493
0.000368609
-0.000159207
0.000333669
-0.000134441
0.000308991
-0.000107041
0.000292428
-8.16914e-05
0.000281878
-6.00397e-05
-3.95721e-05
0.000538707
-5.457e-05
0.000491857
-0.000102718
0.000440925
-0.000119561
0.000395836
-0.000114117
0.000359815
-9.84202e-05
0.000332715
-7.9942e-05
0.00031312
-6.2096e-05
0.000299557
-4.64769e-05
-3.12855e-05
0.000522107
-3.64888e-05
0.000485954
-6.65653e-05
0.000444028
-7.76349e-05
0.000404569
-7.46588e-05
0.000370978
-6.48289e-05
0.000344068
-5.30319e-05
0.000323516
-4.15438e-05
0.000308505
-3.14666e-05
-2.17534e-05
0.000481341
-2.40188e-05
0.000454111
-3.93349e-05
0.000420546
-4.40702e-05
0.000387237
-4.13501e-05
0.000357644
-3.52358e-05
0.000333047
-2.84342e-05
0.000313653
-2.215e-05
0.000299027
-1.68407e-05
-1.2188e-05
0.000393032
-1.18293e-05
0.000369866
-1.61682e-05
0.000342284
-1.64879e-05
0.000315322
-1.43883e-05
0.000291628
-1.15418e-05
0.000272085
-8.89159e-06
0.000256688
-6.75297e-06
0.00024501
-5.16261e-06
-4.27415e-06
0.000185059
0.00016889
0.000152403
0.000138014
0.000126472
0.000117581
0.000110828
0.000105665
-2.37536e-06
2.37536e-06
1.19305e-06
-3.56841e-06
8.96912e-06
-7.77607e-06
1.83581e-05
-9.38903e-06
2.76495e-05
-9.29135e-06
3.5874e-05
-8.22455e-06
4.25683e-05
-6.69429e-06
4.76388e-05
-5.07045e-06
-3.94595e-06
5.10791e-07
1.86457e-06
1.08761e-05
-1.39337e-05
2.788e-05
-2.478e-05
4.716e-05
-2.86691e-05
6.57625e-05
-2.78938e-05
8.20512e-05
-2.45133e-05
9.52344e-05
-1.98775e-05
0.000105
-1.48359e-05
-1.04771e-05
4.04545e-07
1.46003e-06
1.32977e-05
-2.68269e-05
3.49382e-05
-4.64205e-05
5.94096e-05
-5.31404e-05
8.27141e-05
-5.11982e-05
0.000102811
-4.46102e-05
0.000118884
-3.595e-05
0.000130699
-2.66516e-05
-1.81669e-05
-3.21673e-06
4.67676e-06
1.04535e-05
-4.04972e-05
3.61526e-05
-7.21196e-05
6.53664e-05
-8.23542e-05
9.25009e-05
-7.83327e-05
0.000115135
-6.72445e-05
0.00013272
-5.35351e-05
0.000145423
-3.93545e-05
-2.62777e-05
-7.42476e-06
1.21015e-05
7.10165e-06
-5.50236e-05
3.82001e-05
-0.000103218
7.32719e-05
-0.000117426
0.000104518
-0.000109579
0.000129271
-9.19977e-05
0.000147628
-7.18924e-05
0.000160507
-5.22336e-05
-3.4281e-05
-1.05162e-05
2.26177e-05
1.13529e-05
-7.68926e-05
5.02536e-05
-0.000142119
9.08193e-05
-0.000157992
0.000124732
-0.000143491
0.000149938
-0.000117203
0.000167573
-8.95274e-05
0.000179503
-6.41634e-05
-4.14529e-05
1.63469e-05
6.27078e-06
4.95314e-05
-0.000110077
9.1518e-05
-0.000184105
0.000130251
-0.000196725
0.000160052
-0.000173292
0.00018064
-0.000137791
0.000194157
-0.000103044
0.000203011
-7.30175e-05
-4.6619e-05
8.04432e-05
0.000140418
0.00017895
0.000202733
0.000216084
0.000223357
0.000227482
0.000230257
)
;

boundaryField
{
    inlet
    {
        type            calculated;
        value           uniform -0.0002;
    }
    outlet
    {
        type            calculated;
        value           nonuniform List<scalar> 
15
(
5.15847e-05
0.000111531
0.000138389
0.000153534
0.00016851
0.000186675
0.000208177
0.000231937
0.000255645
0.000275824
0.000291271
0.000298973
0.000289462
0.000237096
0.000101391
)
;
    }
    fixedWalls
    {
        type            calculated;
        value           uniform 0;
    }
    frontAndBack
    {
        type            empty;
    }
}


// ************************************************************************* //
