/*--------------------------------*- C++ -*----------------------------------*\
| =========                 |                                                 |
| \\      /  F ield         | OpenFOAM Extend Project: Open source CFD        |
|  \\    /   O peration     | Version:  1.6-ext                               |
|   \\  /    A nd           | Web:      www.extend-project.de                 |
|    \\/     M anipulation  |                                                 |
\*---------------------------------------------------------------------------*/
FoamFile
{
    version     2.0;
    format      ascii;
    class       volVectorField;
    location    "0.9";
    object      U;
}
// * * * * * * * * * * * * * * * * * * * * * * * * * * * * * * * * * * * * * //

dimensions      [0 1 -1 0 0 0 0];

internalField   nonuniform List<vector> 
284
(
(0.163622 0.0262283 0)
(0.143293 0.0254687 0)
(0.103474 0.0174048 0)
(0.0750099 0.0107586 0)
(0.0550788 0.00687543 0)
(0.0387361 0.00513715 0)
(0.023599 0.00439486 0)
(0.00865242 0.00322532 0)
(0.000609922 3.37858e-06 0)
(0.20022 0.0424438 0)
(0.20272 0.0542334 0)
(0.181395 0.0476365 0)
(0.151972 0.0380766 0)
(0.122081 0.0312411 0)
(0.0918723 0.0280602 0)
(0.0604983 0.0267546 0)
(0.0277332 0.0230123 0)
(0.00558272 0.00946992 0)
(0.202636 0.0283438 0)
(0.210011 0.0572504 0)
(0.200116 0.0663916 0)
(0.17743 0.0659887 0)
(0.148803 0.0638444 0)
(0.116044 0.0635213 0)
(0.0792708 0.0641647 0)
(0.0384877 0.05864 0)
(0.00867431 0.0304614 0)
(0.201023 0.0224455 0)
(0.206029 0.0588988 0)
(0.200083 0.0800672 0)
(0.18263 0.0891951 0)
(0.158027 0.0936624 0)
(0.127361 0.0985277 0)
(0.0903037 0.103585 0)
(0.0460295 0.0985473 0)
(0.0112519 0.0555711 0)
(0.200024 0.0196456 0)
(0.202793 0.0605508 0)
(0.198392 0.090422 0)
(0.184994 0.107933 0)
(0.164988 0.119589 0)
(0.138153 0.131287 0)
(0.102945 0.143335 0)
(0.0564558 0.142184 0)
(0.0156631 0.0860712 0)
(0.199648 0.0182833 0)
(0.201906 0.0618319 0)
(0.19958 0.0978092 0)
(0.19058 0.122204 0)
(0.176061 0.140885 0)
(0.15469 0.160592 0)
(0.12337 0.182876 0)
(0.075668 0.191893 0)
(0.0250626 0.126679 0)
(0.199585 0.0171228 0)
(0.202746 0.0615541 0)
(0.203829 0.101321 0)
(0.200514 0.130902 0)
(0.193277 0.155784 0)
(0.18046 0.183555 0)
(0.158363 0.217597 0)
(0.113227 0.239852 0)
(0.0456698 0.191352 0)
(0.199659 0.0154006 0)
(0.204584 0.0584789 0)
(0.210261 0.0995745 0)
(0.214077 0.13225 0)
(0.216144 0.16174 0)
(0.215285 0.196999 0)
(0.203984 0.251128 0)
(0.187954 0.32081 0)
(0.0596571 0.280957 0)
(0.1998 0.0127162 0)
(0.206908 0.0517996 0)
(0.217785 0.0914769 0)
(0.229738 0.124419 0)
(0.243201 0.154516 0)
(0.262982 0.189609 0)
(0.283341 0.241516 0)
(0.351058 0.310842 0)
(0.400462 0.408141 0)
(0.200022 0.00887709 0)
(0.209468 0.041324 0)
(0.225205 0.0769996 0)
(0.244067 0.107475 0)
(0.266376 0.133983 0)
(0.29699 0.161622 0)
(0.331767 0.195627 0)
(0.399001 0.215744 0)
(0.480566 0.294207 0)
(0.200485 0.00375491 0)
(0.212623 0.0272925 0)
(0.232304 0.0572839 0)
(0.255617 0.0839291 0)
(0.282706 0.105661 0)
(0.315521 0.125025 0)
(0.355116 0.144833 0)
(0.405049 0.142092 0)
(0.478583 0.185417 0)
(0.201409 -0.00377522 0)
(0.217089 0.00962568 0)
(0.239557 0.0339561 0)
(0.264694 0.0570326 0)
(0.293086 0.0749337 0)
(0.32505 0.0884827 0)
(0.363689 0.100078 0)
(0.403624 0.0944982 0)
(0.457149 0.110801 0)
(0.202948 -0.0145818 0)
(0.222325 -0.00973664 0)
(0.244124 0.0105576 0)
(0.267105 0.0304449 0)
(0.293358 0.0451243 0)
(0.32284 0.0547097 0)
(0.35736 0.0612211 0)
(0.391565 0.057262 0)
(0.430611 0.0596414 0)
(0.200639 -0.0355185 0)
(0.215526 -0.0314125 0)
(0.225092 -0.0115245 0)
(0.238337 0.00587308 0)
(0.258159 0.0174377 0)
(0.282563 0.0237948 0)
(0.310808 0.0269683 0)
(0.338731 0.0247805 0)
(0.367454 0.023293 0)
(0.163822 -0.0250172 0)
(0.151587 -0.0209365 0)
(0.130217 -0.0099078 0)
(0.12511 -0.00180048 0)
(0.131679 0.00281867 0)
(0.1438 0.00487086 0)
(0.158793 0.00552377 0)
(0.173654 0.0046563 0)
(0.187725 0.00361011 0)
(0.386856 0.15431 0)
(0.242149 0.025908 0)
(0.546122 0.132028 0)
(0.523904 0.0179563 0)
(0.553181 0.114077 0)
(0.574114 0.0253364 0)
(0.515597 0.0732109 0)
(0.543462 0.0130045 0)
(0.471652 0.0384961 0)
(0.494759 0.00363003 0)
(0.393866 0.0126878 0)
(0.407108 -0.003793 0)
(0.198369 0.00034059 0)
(0.200355 -0.00379198 0)
(0.294391 -0.107553 0)
(0.328513 -0.192883 0)
(0.328176 -0.230473 0)
(0.310458 -0.220781 0)
(0.29172 -0.184806 0)
(0.276841 -0.143105 0)
(0.266357 -0.105732 0)
(0.260042 -0.0750882 0)
(0.255459 -0.0480535 0)
(0.520683 -0.0937597 0)
(0.491399 -0.171454 0)
(0.439092 -0.196957 0)
(0.387162 -0.183105 0)
(0.347026 -0.152807 0)
(0.318369 -0.120261 0)
(0.29857 -0.0909147 0)
(0.285995 -0.0662119 0)
(0.276255 -0.0432574 0)
(0.563204 -0.0637914 0)
(0.52227 -0.122307 0)
(0.467213 -0.141846 0)
(0.415687 -0.134653 0)
(0.374757 -0.115564 0)
(0.343869 -0.0934414 0)
(0.320967 -0.0722574 0)
(0.30528 -0.0537706 0)
(0.292151 -0.0358584 0)
(0.539181 -0.0454066 0)
(0.509191 -0.0833819 0)
(0.466417 -0.0968715 0)
(0.423194 -0.0930087 0)
(0.385875 -0.0808334 0)
(0.355741 -0.0661878 0)
(0.332129 -0.0518366 0)
(0.315127 -0.039163 0)
(0.300167 -0.026722 0)
(0.493302 -0.0298545 0)
(0.471552 -0.0514978 0)
(0.438776 -0.059101 0)
(0.403581 -0.0564963 0)
(0.37132 -0.0489235 0)
(0.344065 -0.039974 0)
(0.32201 -0.0313583 0)
(0.305622 -0.0238646 0)
(0.290821 -0.0168393 0)
(0.402765 -0.0185751 0)
(0.38389 -0.0267995 0)
(0.357004 -0.0282524 0)
(0.328585 -0.025348 0)
(0.30269 -0.0208142 0)
(0.280922 -0.0163165 0)
(0.263422 -0.0124933 0)
(0.25027 -0.00947993 0)
(0.238433 -0.00734555 0)
(0.192407 -0.00661925 0)
(0.177714 -0.00741255 0)
(0.160726 -0.00658116 0)
(0.144892 -0.00506321 0)
(0.13179 -0.00360357 0)
(0.12158 -0.00250294 0)
(0.113811 -0.0017844 0)
(0.107932 -0.00139284 0)
(0.1025 -0.00146414 0)
(-0.002334 0.0018679 0)
(-0.00208069 -0.000437337 0)
(0.00468426 -0.00223855 0)
(0.0136715 -0.00297522 0)
(0.0232027 -0.00303043 0)
(0.0320552 -0.00270331 0)
(0.0395352 -0.00220444 0)
(0.0454659 -0.00171085 0)
(0.0505484 -0.00151448 0)
(-0.00180383 0.00261377 0)
(0.00303116 -0.00714965 0)
(0.0187719 -0.0141056 0)
(0.0376528 -0.0167259 0)
(0.0569144 -0.0164578 0)
(0.0745384 -0.0145491 0)
(0.089332 -0.0118365 0)
(0.100831 -0.00890292 0)
(0.110173 -0.00661674 0)
(-0.00239428 0.00136098 0)
(0.00340754 -0.019941 0)
(0.0233619 -0.0345854 0)
(0.0473857 -0.0398034 0)
(0.0716921 -0.0386275 0)
(0.0935959 -0.0338926 0)
(0.111732 -0.0274568 0)
(0.125641 -0.0204383 0)
(0.136892 -0.0141528 0)
(-0.00498556 0.00166997 0)
(-0.00103075 -0.0331994 0)
(0.0223474 -0.0579266 0)
(0.0511118 -0.0664363 0)
(0.0798225 -0.0638446 0)
(0.104888 -0.0553996 0)
(0.124974 -0.0444817 0)
(0.139989 -0.0328749 0)
(0.151966 -0.0221816 0)
(-0.00799281 0.00854287 0)
(-0.00637185 -0.0466135 0)
(0.0215976 -0.0857822 0)
(0.056395 -0.0982509 0)
(0.0901658 -0.0929609 0)
(0.118272 -0.0791822 0)
(0.139664 -0.0626021 0)
(0.155022 -0.0458048 0)
(0.166927 -0.0303468 0)
(-0.0116812 0.0139247 0)
(-0.00761663 -0.064925 0)
(0.0309345 -0.121527 0)
(0.0718839 -0.137036 0)
(0.109373 -0.126385 0)
(0.138908 -0.104833 0)
(0.160026 -0.0811035 0)
(0.174437 -0.0585624 0)
(0.185165 -0.0381549 0)
(0.00703751 0.0365264 0)
(0.0280993 -0.0853025 0)
(0.0734977 -0.163865 0)
(0.11314 -0.18033 0)
(0.146548 -0.161145 0)
(0.171544 -0.129622 0)
(0.188316 -0.0978377 0)
(0.199192 -0.0696455 0)
(0.206898 -0.0446972 0)
(0.0649689 -0.0290233 0)
(0.109519 -0.146318 0)
(0.165443 -0.212541 0)
(0.193465 -0.217548 0)
(0.209562 -0.186965 0)
(0.219549 -0.14622 0)
(0.225282 -0.108181 0)
(0.228823 -0.0763037 0)
(0.23111 -0.0485428 0)
)
;

boundaryField
{
    inlet
    {
        type            fixedValue;
        value           uniform (0.2 0 0);
    }
    outlet
    {
        type            zeroGradient;
    }
    fixedWalls
    {
        type            fixedValue;
        value           uniform (0 0 0);
    }
    frontAndBack
    {
        type            empty;
    }
}


// ************************************************************************* //
