/*--------------------------------*- C++ -*----------------------------------*\
| =========                 |                                                 |
| \\      /  F ield         | OpenFOAM Extend Project: Open source CFD        |
|  \\    /   O peration     | Version:  1.6-ext                               |
|   \\  /    A nd           | Web:      www.extend-project.de                 |
|    \\/     M anipulation  |                                                 |
\*---------------------------------------------------------------------------*/
FoamFile
{
    version     2.0;
    format      ascii;
    class       surfaceScalarField;
    location    "0.2";
    object      phi;
}
// * * * * * * * * * * * * * * * * * * * * * * * * * * * * * * * * * * * * * //

dimensions      [0 3 -1 0 0 0 0];

internalField   nonuniform List<scalar> 
123
(
0.000204253
4.14896e-05
0.000211115
7.94159e-05
0.000218854
9.38911e-05
0.000228023
0.000106903
0.000240466
0.000124922
0.000260533
0.000149996
0.000300467
0.00018205
0.000385512
0.000220871
0.000305553
0.000494909
0.000206784
3.47052e-05
0.000218103
6.8097e-05
0.000231113
8.0881e-05
0.000246609
9.14071e-05
0.00026699
0.00010454
0.000296482
0.000120505
0.000340534
0.000137997
0.000409206
0.0001522
0.000187217
0.000527542
0.000209124
2.5581e-05
0.000224012
5.32093e-05
0.000240707
6.41863e-05
0.000259715
7.23989e-05
0.00028283
8.14258e-05
0.000312316
9.10189e-05
0.000350698
9.96146e-05
0.000400863
0.000102035
0.000103761
0.000484319
0.000211649
1.39318e-05
0.000229133
3.57256e-05
0.000247965
4.53545e-05
0.000268458
5.19058e-05
0.000291843
5.80406e-05
0.000319325
6.35371e-05
0.000351888
6.70509e-05
0.000388678
6.52445e-05
5.82754e-05
0.000434164
0.00021515
-1.21861e-06
0.000233919
1.69572e-05
0.000253377
2.58968e-05
0.000273943
3.1339e-05
0.000296497
3.54874e-05
0.000321522
3.85113e-05
0.000348878
3.96955e-05
0.000376733
3.73894e-05
3.08607e-05
0.000404148
0.00021525
-1.64691e-05
0.000233159
-9.50936e-07
0.000251846
7.20988e-06
0.000271282
1.19023e-05
0.000292278
1.44913e-05
0.000314829
1.59605e-05
0.000338183
1.63416e-05
0.000360465
1.51071e-05
1.19134e-05
0.000379412
0.000183531
0.00018258
0.00018979
0.000201692
0.000216184
0.000232144
0.000248486
0.000263593
0.000275506
5.67816e-05
4.33703e-05
3.47276e-05
2.40011e-05
1.36639e-05
5.14153e-06
)
;

boundaryField
{
    inlet
    {
        type            calculated;
        value           nonuniform List<scalar> 7(-0.0002 -0.0002 -0.0002 -0.0002 -0.0002 -0.0002 -0.0002);
    }
    outlet
    {
        type            calculated;
        value           nonuniform 0();
    }
    fixedWalls
    {
        type            calculated;
        value           uniform 0;
    }
    frontAndBack
    {
        type            empty;
    }
    procBoundary2to3
    {
        type            processor;
        value           nonuniform List<scalar> 9(-4.57428e-05 -8.62777e-05 -0.00010163 -0.000116072 -0.000137365 -0.000170063 -0.000221984 -0.000305916 -0.00041495);
    }
    procBoundary2to1
    {
        type            processor;
        value           nonuniform List<scalar> 7(0.000438127 0.000540954 0.000492962 0.00044489 0.000414485 0.000387935 0.000280648);
    }
}


// ************************************************************************* //
