/*--------------------------------*- C++ -*----------------------------------*\
| =========                 |                                                 |
| \\      /  F ield         | OpenFOAM Extend Project: Open source CFD        |
|  \\    /   O peration     | Version:  1.6-ext                               |
|   \\  /    A nd           | Web:      www.extend-project.de                 |
|    \\/     M anipulation  |                                                 |
\*---------------------------------------------------------------------------*/
FoamFile
{
    version     2.0;
    format      ascii;
    class       volVectorField;
    location    "0.8";
    object      U;
}
// * * * * * * * * * * * * * * * * * * * * * * * * * * * * * * * * * * * * * //

dimensions      [0 1 -1 0 0 0 0];

internalField   nonuniform List<vector> 
72
(
(-0.00215543 0.00161473 0)
(-0.000745551 -0.0010393 0)
(0.00750124 -0.00272022 0)
(0.0172138 -0.00324738 0)
(0.0270231 -0.00315084 0)
(0.0359009 -0.00273254 0)
(0.0432609 -0.00218009 0)
(0.0489844 -0.00164586 0)
(0.0537036 -0.00139943 0)
(-0.00131469 0.00133873 0)
(0.00540003 -0.00951933 0)
(0.0231887 -0.0158022 0)
(0.0429034 -0.0175363 0)
(0.0622454 -0.0166619 0)
(0.0795567 -0.0144089 0)
(0.0938535 -0.01152 0)
(0.104791 -0.00848954 0)
(0.113399 -0.00609934 0)
(-0.00187221 -0.00147802 0)
(0.00609456 -0.0247403 0)
(0.0283111 -0.037655 0)
(0.0529051 -0.0409144 0)
(0.0768237 -0.0384758 0)
(0.0979194 -0.0330843 0)
(0.115116 -0.0263715 0)
(0.128119 -0.0192685 0)
(0.138322 -0.0129387 0)
(-0.00449097 -0.00309384 0)
(0.00215788 -0.0406965 0)
(0.0284033 -0.0623046 0)
(0.0575001 -0.0674702 0)
(0.0853257 -0.0628398 0)
(0.109074 -0.0534642 0)
(0.127812 -0.0422684 0)
(0.141639 -0.0306926 0)
(0.152355 -0.0201188 0)
(-0.00741776 0.00243794 0)
(-0.00259207 -0.057349 0)
(0.0288811 -0.0917133 0)
(0.0638933 -0.0988878 0)
(0.0963363 -0.0905755 0)
(0.122624 -0.0756538 0)
(0.142287 -0.0589407 0)
(0.156238 -0.0424184 0)
(0.16677 -0.0273458 0)
(-0.0116356 0.00534024 0)
(-0.00468697 -0.0793904 0)
(0.0381375 -0.129201 0)
(0.0794519 -0.136979 0)
(0.115469 -0.122087 0)
(0.142924 -0.0992581 0)
(0.162116 -0.0757214 0)
(0.175047 -0.0538436 0)
(0.184442 -0.0341898 0)
(0.00928484 0.0270107 0)
(0.0313882 -0.10354 0)
(0.0785142 -0.173653 0)
(0.11818 -0.179847 0)
(0.150526 -0.154936 0)
(0.17384 -0.121949 0)
(0.189012 -0.0907474 0)
(0.198684 -0.0636637 0)
(0.205379 -0.0398751 0)
(0.0723228 -0.0436576 0)
(0.114117 -0.165867 0)
(0.168179 -0.222737 0)
(0.194293 -0.216537 0)
(0.209384 -0.179482 0)
(0.21849 -0.13717 0)
(0.223542 -0.0999915 0)
(0.226609 -0.0695217 0)
(0.228557 -0.0431981 0)
)
;

boundaryField
{
    inlet
    {
        type            fixedValue;
        value           nonuniform 0();
    }
    outlet
    {
        type            zeroGradient;
    }
    fixedWalls
    {
        type            fixedValue;
        value           uniform (0 0 0);
    }
    frontAndBack
    {
        type            empty;
    }
    procBoundary0to1
    {
        type            processor;
        value           nonuniform List<vector> 9((0.310921 -0.123118 0) (0.339569 -0.206705 0) (0.33035 -0.235049 0) (0.307451 -0.216487 0) (0.286939 -0.175976 0) (0.271847 -0.133654 0) (0.261785 -0.0975036 0) (0.255922 -0.06834 0) (0.251849 -0.0427452 0));
    }
}


// ************************************************************************* //
