/*--------------------------------*- C++ -*----------------------------------*\
| =========                 |                                                 |
| \\      /  F ield         | OpenFOAM Extend Project: Open source CFD        |
|  \\    /   O peration     | Version:  1.6-ext                               |
|   \\  /    A nd           | Web:      www.extend-project.de                 |
|    \\/     M anipulation  |                                                 |
\*---------------------------------------------------------------------------*/
FoamFile
{
    version     2.0;
    format      ascii;
    class       volScalarField;
    location    "4";
    object      p;
}
// * * * * * * * * * * * * * * * * * * * * * * * * * * * * * * * * * * * * * //

dimensions      [0 2 -2 0 0 0 0];

internalField   nonuniform List<scalar> 
284
(
0.282462
0.250986
0.239522
0.234547
0.232651
0.232634
0.233522
0.23478
0.236809
0.253249
0.244371
0.239021
0.2365
0.235545
0.235589
0.236142
0.236945
0.239121
0.241291
0.237889
0.235329
0.234177
0.234181
0.234932
0.235915
0.23689
0.239856
0.231816
0.230749
0.229713
0.229519
0.230242
0.23158
0.233014
0.234228
0.237944
0.224005
0.223697
0.223303
0.22338
0.224125
0.225363
0.226578
0.227349
0.231183
0.216908
0.216788
0.216465
0.216224
0.216232
0.216377
0.216121
0.214812
0.216602
0.210165
0.210015
0.209421
0.208432
0.207045
0.204991
0.201399
0.19452
0.189061
0.203803
0.203532
0.202453
0.200414
0.197141
0.192026
0.183468
0.169124
0.124525
0.19807
0.197631
0.195937
0.192656
0.187062
0.177535
0.15827
0.120175
0.0263841
0.193335
0.192678
0.190308
0.185898
0.178681
0.167153
0.147028
0.115101
0.0613935
0.190062
0.188993
0.185797
0.180405
0.172413
0.160907
0.143945
0.119589
0.0863728
0.188762
0.186815
0.182367
0.175907
0.167396
0.156269
0.1417
0.121891
0.0981749
0.191056
0.186536
0.179965
0.172213
0.163201
0.152458
0.139534
0.122944
0.104164
0.197156
0.187353
0.178141
0.169286
0.160142
0.149944
0.138186
0.12374
0.107386
0.225392
0.193503
0.178739
0.168827
0.159901
0.150482
0.139654
0.126282
0.110716
-0.10707
-0.0718054
-0.00826793
-0.0294841
0.0365008
0.00635962
0.0647128
0.0382232
0.080875
0.0587654
0.0884808
0.0690423
0.0927135
0.0734251
-0.059447
-0.0505674
-0.0470506
-0.0450953
-0.0422898
-0.036773
-0.0284583
-0.0172716
-0.00575932
-0.0354334
-0.0359366
-0.0360607
-0.035627
-0.0334519
-0.0285856
-0.0216964
-0.0127344
-0.00490782
-0.0080189
-0.0147398
-0.0183634
-0.0200319
-0.0195972
-0.0167912
-0.0126819
-0.0071662
-0.00378833
0.0210678
0.00983863
0.00193778
-0.00295937
-0.00525976
-0.00534646
-0.00444139
-0.00246891
-0.0029118
0.0408224
0.0270414
0.0167939
0.00963353
0.00502504
0.0024432
0.000863582
0.000252962
-0.00244529
0.0514463
0.0366637
0.0249361
0.0161422
0.00987471
0.00563256
0.00268016
0.000792508
-0.00237632
0.0548212
0.0385546
0.0252256
0.0149485
0.0075108
0.00252166
-0.000557989
-0.00211556
-0.00378877
-0.0279577
-0.0290952
-0.0284084
-0.0262551
-0.022529
-0.0172538
-0.0109368
-0.00560142
0.00499809
-0.0267654
-0.0279997
-0.0274901
-0.0258557
-0.0228523
-0.0182663
-0.0124106
-0.00747605
0.00423529
-0.027804
-0.0292416
-0.0290263
-0.0278137
-0.025178
-0.0206859
-0.0144489
-0.00908604
0.00465832
-0.0307518
-0.0321172
-0.0322069
-0.0314581
-0.0291753
-0.024686
-0.0178006
-0.0114714
0.00344681
-0.0355983
-0.0363424
-0.0366106
-0.0363298
-0.0344122
-0.0299628
-0.0224743
-0.0146087
0.00120107
-0.0421115
-0.041152
-0.0413949
-0.0414757
-0.039892
-0.0354052
-0.0276485
-0.0172574
-0.0019185
-0.0497484
-0.0452658
-0.0452845
-0.0452579
-0.0438467
-0.0392235
-0.030995
-0.0193198
-0.00447008
-0.0670873
-0.0498699
-0.0477111
-0.0469198
-0.0449916
-0.0399869
-0.0314799
-0.0195022
-0.00575533
)
;

boundaryField
{
    inlet
    {
        type            zeroGradient;
    }
    outlet
    {
        type            totalPressure;
        rho             none;
        psi             none;
        gamma           1;
        p0              uniform 0;
        value           nonuniform List<scalar> 
15
(
-4.44028e-05
-0.000363553
0
0
0
0
0
0
0
0
0
0
0
0
0
)
;
    }
    fixedWalls
    {
        type            zeroGradient;
    }
    frontAndBack
    {
        type            empty;
    }
}


// ************************************************************************* //
