/*--------------------------------*- C++ -*----------------------------------*\
| =========                 |                                                 |
| \\      /  F ield         | OpenFOAM Extend Project: Open source CFD        |
|  \\    /   O peration     | Version:  1.6-ext                               |
|   \\  /    A nd           | Web:      www.extend-project.de                 |
|    \\/     M anipulation  |                                                 |
\*---------------------------------------------------------------------------*/
FoamFile
{
    version     2.0;
    format      ascii;
    class       surfaceScalarField;
    location    "4";
    object      phi;
}
// * * * * * * * * * * * * * * * * * * * * * * * * * * * * * * * * * * * * * //

dimensions      [0 3 -1 0 0 0 0];

internalField   nonuniform List<scalar> 
525
(
0.000160821
3.91793e-05
0.000117026
4.37951e-05
8.13661e-05
3.56595e-05
5.42194e-05
2.71467e-05
3.41615e-05
2.00579e-05
1.91829e-05
1.49786e-05
7.97281e-06
1.121e-05
9.04718e-07
7.0681e-06
9.04718e-07
0.000204944
3.42353e-05
0.000190247
5.84925e-05
0.000162132
6.37745e-05
0.000128513
6.07656e-05
9.41034e-05
5.44671e-05
6.16533e-05
4.74287e-05
3.2836e-05
4.00274e-05
1.0245e-05
2.96592e-05
1.11497e-05
0.000208655
2.55805e-05
0.000208076
5.90716e-05
0.000194111
7.7739e-05
0.000168393
8.64837e-05
0.000134344
8.85159e-05
9.56607e-05
8.61125e-05
5.58449e-05
7.98431e-05
2.00374e-05
6.54667e-05
3.11871e-05
0.000205055
2.05252e-05
0.000208186
5.59407e-05
0.000202663
8.32625e-05
0.000185976
0.00010317
0.000157946
0.000116545
0.000119981
0.000124078
7.49371e-05
0.000124887
2.91459e-05
0.000111258
6.0333e-05
0.000202379
1.81466e-05
0.000205271
5.30485e-05
0.000203764
8.47695e-05
0.000193964
0.00011297
0.000173041
0.000137468
0.000139407
0.000157711
9.32194e-05
0.000171075
3.94992e-05
0.000164978
9.98322e-05
0.000201252
1.68941e-05
0.000203807
5.04944e-05
0.000204747
8.38292e-05
0.000200469
0.000117249
0.000186984
0.000150953
0.000160193
0.000184502
0.000116443
0.000214826
5.58236e-05
0.000225597
0.000155656
0.000201177
1.57175e-05
0.000204435
4.72357e-05
0.000208106
8.01587e-05
0.000209472
0.000115883
0.000204705
0.00015572
0.000188729
0.000200478
0.000153249
0.000250306
8.79191e-05
0.000290927
0.000243575
0.000201718
1.39995e-05
0.000206765
4.21889e-05
0.00021414
7.27834e-05
0.000222115
0.000107908
0.000227809
0.000150026
0.000226305
0.000201981
0.000204942
0.000271668
0.000139166
0.000356704
0.000382741
0.000202632
1.13679e-05
0.000210265
3.45556e-05
0.000222161
6.08874e-05
0.000237725
9.23437e-05
0.000257022
0.000130729
0.000281978
0.000177026
0.000319522
0.000234124
0.00038461
0.000291616
0.000361804
0.000405547
0.000203917
7.45083e-06
0.000214634
2.38382e-05
0.000230977
4.45449e-05
0.000252726
7.05945e-05
0.000281282
0.000102173
0.000320094
0.000138214
0.000372922
0.000181296
0.000454646
0.000209893
0.000281496
0.000534954
0.000205986
1.46445e-06
0.000220237
9.58713e-06
0.000240154
2.46282e-05
0.000265194
4.5555e-05
0.000296543
7.08239e-05
0.000336854
9.7903e-05
0.000388274
0.000129876
0.000454755
0.000143412
0.000187327
0.000548923
0.000209422
-7.95711e-06
0.000227341
-8.33228e-06
0.000248859
3.10986e-06
0.000273827
2.05873e-05
0.000303577
4.10739e-05
0.00034021
6.12701e-05
0.000386555
8.353e-05
0.000438841
9.11267e-05
0.000111207
0.000514961
0.000214496
-2.24528e-05
0.000232302
-2.61382e-05
0.00025
-1.45886e-05
0.000269686
9.01248e-07
0.000293621
1.71389e-05
0.000323686
3.12056e-05
0.000362486
4.473e-05
0.000404243
4.93692e-05
5.64997e-05
0.00045895
0.000211666
-3.41189e-05
0.000216755
-3.12268e-05
0.000220417
-1.82512e-05
0.000227663
-6.34466e-06
0.000241622
3.18036e-06
0.000262869
9.95844e-06
0.000292174
1.5425e-05
0.000324483
1.70601e-05
1.85042e-05
0.000362478
0.000165881
0.000134654
0.000116403
0.000110058
0.000113239
0.000123197
0.000138622
0.000155682
0.000174187
0.000248741
0.000156806
5.73701e-05
0.000191371
0.000511798
0.000179961
9.1149e-05
0.000478019
0.000584942
0.000143942
8.44071e-05
0.000591684
0.000565291
9.36123e-05
5.81912e-05
0.000591507
0.000504448
4.81148e-05
2.82706e-05
0.000534369
0.00039587
1.47235e-05
6.67135e-06
0.000417469
0.00018891
0.000195581
0.000197416
4.51485e-06
-1.05601e-05
0.000230149
-2.09304e-05
-1.18022e-05
0.000268777
-4.40787e-05
5.44988e-06
0.00030599
-7.03851e-05
3.31726e-05
0.000337385
-9.98892e-05
6.84941e-05
0.000361122
-0.000130206
0.00010647
0.000376083
-0.000154818
0.000139856
0.000382966
-0.000173775
0.000166893
-0.000171719
0.000173824
0.000454471
2.80628e-05
0.000448828
-1.52873e-05
0.000454809
-5.00593e-05
0.000465256
-8.08318e-05
0.000474484
-0.000109118
0.000478584
-0.000134306
0.000475757
-0.000151991
0.000465517
-0.000163534
-0.000154762
0.000586786
3.2961e-05
0.000580592
-9.09319e-06
0.000575642
-4.51094e-05
0.000569842
-7.50321e-05
0.00056086
-0.000100136
0.00054634
-0.000119786
0.000525833
-0.000131484
0.00049869
-0.000136391
-0.000124862
0.000603256
2.12119e-05
0.000605713
-1.15503e-05
0.000600167
-3.95633e-05
0.000587699
-6.25637e-05
0.00056805
-8.04874e-05
0.000540808
-9.25439e-05
0.00050733
-9.80067e-05
0.000468235
-9.72951e-05
-8.69745e-05
0.000549775
5.80515e-06
0.000552501
-1.42756e-05
0.00054393
-3.0993e-05
0.000525081
-4.37139e-05
0.000496925
-5.23315e-05
0.00046089
-5.65093e-05
0.0004197
-5.68168e-05
0.00037598
-5.35751e-05
-4.80601e-05
0.000425784
-2.51039e-06
0.000421384
-9.87484e-06
0.00040565
-1.52588e-05
0.000380448
-1.8512e-05
0.000347969
-1.98527e-05
0.000311006
-1.95468e-05
0.000272587
-1.83974e-05
0.000235811
-1.67995e-05
-1.65902e-05
0.000193071
0.000183196
0.000167937
0.000149425
0.000129573
0.000110026
9.16285e-05
7.4829e-05
-3.64077e-06
3.64077e-06
-1.23886e-05
8.74778e-06
-2.22196e-05
9.831e-06
-3.04919e-05
8.27239e-06
-3.54723e-05
4.9803e-06
-3.58865e-05
4.14223e-07
-3.09287e-05
-4.95778e-06
-2.08491e-05
-1.00796e-05
-1.58666e-05
-9.5369e-06
1.31777e-05
-2.64784e-05
2.56893e-05
-4.35593e-05
2.69118e-05
-5.62852e-05
2.09983e-05
-6.19589e-05
1.0654e-05
-5.92422e-05
-2.30252e-06
-4.79069e-05
-1.6293e-05
-2.92238e-05
-2.87627e-05
-3.90958e-05
-1.18726e-05
2.50503e-05
-3.13164e-05
4.51331e-05
-4.97232e-05
4.53187e-05
-6.21371e-05
3.34123e-05
-6.58575e-05
1.43743e-05
-5.9951e-05
-8.20901e-06
-4.47451e-05
-3.14989e-05
-2.19069e-05
-5.16009e-05
-6.43627e-05
-1.17044e-05
3.67547e-05
-2.95164e-05
6.2945e-05
-4.52718e-05
6.10741e-05
-5.45139e-05
4.26544e-05
-5.49062e-05
1.47667e-05
-4.59573e-05
-1.7158e-05
-2.83018e-05
-4.91544e-05
-1.73701e-06
-7.81657e-05
-9.01502e-05
-9.72883e-06
4.64835e-05
-2.15884e-05
7.48046e-05
-3.02387e-05
6.97244e-05
-3.25737e-05
4.49893e-05
-2.71206e-05
9.31355e-06
-1.40331e-05
-3.02454e-05
5.41058e-06
-6.85981e-05
3.08372e-05
-0.000103592
-0.000117801
-5.81247e-06
5.2296e-05
-6.09853e-06
7.50907e-05
-1.57767e-06
6.52036e-05
8.38007e-06
3.50316e-05
2.32505e-05
-5.55692e-06
4.25485e-05
-4.95433e-05
6.5322e-05
-9.13716e-05
8.89404e-05
-0.000127211
-0.000143338
4.54958e-06
4.77464e-05
2.26357e-05
5.70045e-05
4.72633e-05
4.0576e-05
7.39593e-05
8.33553e-06
0.000100749
-3.23468e-05
0.000127242
-7.60358e-05
0.000151953
-0.000116082
0.000174099
-0.000149357
-0.000163159
3.71863e-05
8.23886e-05
0.000128415
0.000169923
0.00020607
0.000236504
0.000260277
0.000277813
)
;

boundaryField
{
    inlet
    {
        type            calculated;
        value           uniform -0.0002;
    }
    outlet
    {
        type            calculated;
        value           nonuniform List<scalar> 
15
(
-4.9825e-06
-5.99462e-06
3.36003e-06
2.40505e-05
5.84882e-05
0.000114477
0.00019392
0.000288478
0.00038086
0.00044856
0.000468789
0.000430348
0.000337066
0.000204341
5.82388e-05
)
;
    }
    fixedWalls
    {
        type            calculated;
        value           uniform 0;
    }
    frontAndBack
    {
        type            empty;
    }
}


// ************************************************************************* //
