/*--------------------------------*- C++ -*----------------------------------*\
| =========                 |                                                 |
| \\      /  F ield         | OpenFOAM Extend Project: Open source CFD        |
|  \\    /   O peration     | Version:  1.6-ext                               |
|   \\  /    A nd           | Web:      www.extend-project.de                 |
|    \\/     M anipulation  |                                                 |
\*---------------------------------------------------------------------------*/
FoamFile
{
    version     2.0;
    format      ascii;
    class       volVectorField;
    location    "4";
    object      U;
}
// * * * * * * * * * * * * * * * * * * * * * * * * * * * * * * * * * * * * * //

dimensions      [0 1 -1 0 0 0 0];

internalField   nonuniform List<vector> 
284
(
(0.163779 0.0266044 0)
(0.141783 0.0268378 0)
(0.0987067 0.019263 0)
(0.0662344 0.0122043 0)
(0.043107 0.00724222 0)
(0.0259087 0.00429734 0)
(0.0128407 0.00253424 0)
(0.00285607 0.000890584 0)
(-0.000714773 -0.00121265 0)
(0.200597 0.0434047 0)
(0.202038 0.0577734 0)
(0.179245 0.053589 0)
(0.146329 0.0444507 0)
(0.111328 0.0351384 0)
(0.0774183 0.027566 0)
(0.0461839 0.0214026 0)
(0.0186346 0.0143421 0)
(0.00299312 0.00341744 0)
(0.203093 0.0291711 0)
(0.210984 0.0599613 0)
(0.204509 0.0728551 0)
(0.184014 0.0755815 0)
(0.153247 0.0724844 0)
(0.116029 0.0664896 0)
(0.0755772 0.0584615 0)
(0.0346146 0.0453469 0)
(0.00728356 0.0194252 0)
(0.201522 0.0225025 0)
(0.207592 0.0574674 0)
(0.207866 0.0815704 0)
(0.197361 0.09653 0)
(0.174952 0.104108 0)
(0.141538 0.105934 0)
(0.0987984 0.102074 0)
(0.0490448 0.0869204 0)
(0.0116726 0.0441803 0)
(0.200562 0.0190954 0)
(0.203981 0.0543477 0)
(0.205912 0.0845458 0)
(0.201377 0.109298 0)
(0.186763 0.128525 0)
(0.159917 0.142103 0)
(0.119389 0.148246 0)
(0.0644597 0.136972 0)
(0.0174462 0.0783311 0)
(0.200232 0.0174432 0)
(0.202358 0.0517563 0)
(0.204912 0.0847357 0)
(0.204377 0.116205 0)
(0.196703 0.145863 0)
(0.177891 0.172886 0)
(0.143234 0.194192 0)
(0.0865371 0.194991 0)
(0.0277553 0.124486 0)
(0.200216 0.0163222 0)
(0.202429 0.0490575 0)
(0.206378 0.0826011 0)
(0.209842 0.117828 0)
(0.20943 0.155393 0)
(0.200962 0.195204 0)
(0.178273 0.234293 0)
(0.124548 0.253617 0)
(0.0486073 0.197159 0)
(0.200344 0.0149389 0)
(0.203607 0.0450981 0)
(0.210109 0.0772997 0)
(0.218504 0.113392 0)
(0.226438 0.155431 0)
(0.230876 0.205688 0)
(0.224069 0.270027 0)
(0.198081 0.339813 0)
(0.0603438 0.287216 0)
(0.200547 0.0128209 0)
(0.205484 0.0389079 0)
(0.215441 0.0677997 0)
(0.229714 0.101642 0)
(0.247459 0.142818 0)
(0.271505 0.193755 0)
(0.299467 0.260911 0)
(0.358295 0.345315 0)
(0.399425 0.429678 0)
(0.20084 0.00963836 0)
(0.207969 0.0298767 0)
(0.22169 0.0537119 0)
(0.241142 0.0827366 0)
(0.265939 0.118163 0)
(0.300592 0.160259 0)
(0.342808 0.212132 0)
(0.411131 0.255209 0)
(0.49259 0.338111 0)
(0.201386 0.00499733 0)
(0.211567 0.0175617 0)
(0.228991 0.0354224 0)
(0.2518 0.0587574 0)
(0.27963 0.087067 0)
(0.315528 0.118418 0)
(0.360279 0.155755 0)
(0.417915 0.172256 0)
(0.498634 0.227971 0)
(0.202454 -0.00237183 0)
(0.216934 0.00133002 0)
(0.237171 0.0138937 0)
(0.260593 0.0325615 0)
(0.287727 0.0550414 0)
(0.320382 0.0781966 0)
(0.362003 0.10482 0)
(0.409584 0.113583 0)
(0.473646 0.141319 0)
(0.204211 -0.0136805 0)
(0.222731 -0.0175588 0)
(0.240888 -0.00746584 0)
(0.259207 0.00866345 0)
(0.280716 0.0267813 0)
(0.307059 0.0438571 0)
(0.341959 0.0614912 0)
(0.381355 0.0677002 0)
(0.429644 0.0786438 0)
(0.201751 -0.0351375 0)
(0.215142 -0.0366054 0)
(0.21865 -0.0226154 0)
(0.22292 -0.00711811 0)
(0.23327 0.00659288 0)
(0.250564 0.0174116 0)
(0.276432 0.0265688 0)
(0.307013 0.0295919 0)
(0.342719 0.0324192 0)
(0.164657 -0.0248743 0)
(0.151325 -0.0222588 0)
(0.124311 -0.0125863 0)
(0.111148 -0.00490148 0)
(0.110176 0.000340438 0)
(0.117103 0.00363745 0)
(0.130271 0.00578514 0)
(0.146646 0.00609491 0)
(0.16496 0.00600165 0)
(0.355187 0.167008 0)
(0.1853 0.0439599 0)
(0.545143 0.177863 0)
(0.499112 0.0813787 0)
(0.576726 0.166947 0)
(0.597342 0.0989481 0)
(0.543407 0.117446 0)
(0.584525 0.0739999 0)
(0.48278 0.0671951 0)
(0.522887 0.0414363 0)
(0.380045 0.0263373 0)
(0.409132 0.0131244 0)
(0.182386 0.00362261 0)
(0.193753 -0.000366311 0)
(0.18746 -0.00663106 0)
(0.209184 -0.0169008 0)
(0.247534 -0.0332991 0)
(0.287468 -0.0581963 0)
(0.3227 -0.0891132 0)
(0.352432 -0.122342 0)
(0.370153 -0.150801 0)
(0.385005 -0.173704 0)
(0.380672 -0.176157 0)
(0.465436 0.0172759 0)
(0.448375 -0.0223069 0)
(0.448884 -0.0527561 0)
(0.459324 -0.0811913 0)
(0.470314 -0.1094 0)
(0.479805 -0.136544 0)
(0.47762 -0.157207 0)
(0.477472 -0.172445 0)
(0.450225 -0.166733 0)
(0.593669 0.0399741 0)
(0.58463 -0.00693943 0)
(0.577777 -0.04492 0)
(0.573328 -0.0773583 0)
(0.56624 -0.105481 0)
(0.556952 -0.128862 0)
(0.535805 -0.144101 0)
(0.519665 -0.152792 0)
(0.471994 -0.142359 0)
(0.602169 0.0295878 0)
(0.607156 -0.0091856 0)
(0.604707 -0.0418199 0)
(0.59616 -0.069219 0)
(0.579824 -0.0916065 0)
(0.557794 -0.108061 0)
(0.523832 -0.116943 0)
(0.494461 -0.118919 0)
(0.434772 -0.107231 0)
(0.545837 0.0126292 0)
(0.554447 -0.0137034 0)
(0.551127 -0.0363178 0)
(0.537417 -0.0546004 0)
(0.513442 -0.0681485 0)
(0.481623 -0.0761307 0)
(0.440234 -0.0785259 0)
(0.402278 -0.0754681 0)
(0.342061 -0.0667169 0)
(0.424654 -0.00164356 0)
(0.426629 -0.0146881 0)
(0.416309 -0.0248127 0)
(0.395507 -0.0316205 0)
(0.366014 -0.0351621 0)
(0.330771 -0.0355578 0)
(0.291518 -0.0338592 0)
(0.255979 -0.0306326 0)
(0.208964 -0.0285221 0)
(0.195968 -0.00402692 0)
(0.189602 -0.00656388 0)
(0.176678 -0.00780252 0)
(0.159409 -0.00790079 0)
(0.139824 -0.0072234 0)
(0.119826 -0.00616706 0)
(0.100599 -0.00531553 0)
(0.0839208 -0.00492545 0)
(0.0613244 -0.00589375 0)
(-0.000903859 0.000806903 0)
(-0.00702241 0.00299486 0)
(-0.0174895 0.00372623 0)
(-0.027011 0.00345226 0)
(-0.0338992 0.00247037 0)
(-0.0366371 0.000838221 0)
(-0.0338763 -0.0013252 0)
(-0.0304353 -0.00360423 0)
(-0.0065264 -0.00679131 0)
(-0.00340457 0.00717324 0)
(-0.0166703 0.0155476 0)
(-0.0357671 0.0170188 0)
(-0.0515893 0.0139822 0)
(-0.0611481 0.00802166 0)
(-0.0624374 6.10334e-05 0)
(-0.0543515 -0.00897419 0)
(-0.0449306 -0.0173835 0)
(-0.00768805 -0.0258556 0)
(-0.00450644 0.0189376 0)
(-0.0203569 0.0352632 0)
(-0.0417209 0.0361817 0)
(-0.0581468 0.0275242 0)
(-0.0664922 0.0130653 0)
(-0.0650624 -0.00454858 0)
(-0.0529533 -0.0230854 0)
(-0.0403036 -0.0392904 0)
(0.00192735 -0.050904 0)
(-0.00465646 0.0311634 0)
(-0.0197668 0.05471 0)
(-0.0388844 0.0540569 0)
(-0.0523034 0.0389084 0)
(-0.0572624 0.0153797 0)
(-0.0526136 -0.0120922 0)
(-0.037384 -0.0400517 0)
(-0.0224976 -0.064747 0)
(0.0204804 -0.076986 0)
(-0.00433387 0.0421482 0)
(-0.0157196 0.0704452 0)
(-0.0276112 0.0673194 0)
(-0.0336992 0.0456286 0)
(-0.0320923 0.0136102 0)
(-0.0224832 -0.0229105 0)
(-0.00451239 -0.0588842 0)
(0.0139298 -0.0914288 0)
(0.0536917 -0.104624 0)
(-0.00349794 0.0503539 0)
(-0.00745588 0.077976 0)
(-0.00528814 0.0709518 0)
(0.00181307 0.0431113 0)
(0.0143735 0.00432984 0)
(0.0320869 -0.0387857 0)
(0.053691 -0.0800351 0)
(0.0753601 -0.116348 0)
(0.109611 -0.132111 0)
(0.000867134 0.0578462 0)
(0.00956523 0.0732607 0)
(0.0338245 0.0588297 0)
(0.0596051 0.0263136 0)
(0.0868397 -0.015999 0)
(0.114549 -0.0615288 0)
(0.14051 -0.103861 0)
(0.164166 -0.139423 0)
(0.190069 -0.155328 0)
(0.0277681 0.029649 0)
(0.0535698 0.0381398 0)
(0.105121 0.0210731 0)
(0.149446 -0.0102225 0)
(0.188664 -0.0496334 0)
(0.223394 -0.0915741 0)
(0.250106 -0.129151 0)
(0.272618 -0.159969 0)
(0.286378 -0.171086 0)
)
;

boundaryField
{
    inlet
    {
        type            fixedValue;
        value           uniform (0.2 0 0);
    }
    outlet
    {
        type            zeroGradient;
    }
    fixedWalls
    {
        type            fixedValue;
        value           uniform (0 0 0);
    }
    frontAndBack
    {
        type            empty;
    }
}


// ************************************************************************* //
