/*--------------------------------*- C++ -*----------------------------------*\
| =========                 |                                                 |
| \\      /  F ield         | OpenFOAM Extend Project: Open source CFD        |
|  \\    /   O peration     | Version:  1.6-ext                               |
|   \\  /    A nd           | Web:      www.extend-project.de                 |
|    \\/     M anipulation  |                                                 |
\*---------------------------------------------------------------------------*/
FoamFile
{
    version     2.0;
    format      ascii;
    class       volScalarField;
    location    "3";
    object      p;
}
// * * * * * * * * * * * * * * * * * * * * * * * * * * * * * * * * * * * * * //

dimensions      [0 2 -2 0 0 0 0];

internalField   nonuniform List<scalar> 
284
(
0.268745
0.237277
0.225823
0.220873
0.219018
0.219045
0.219967
0.221246
0.223333
0.239524
0.230648
0.2253
0.222793
0.221883
0.221998
0.222622
0.223474
0.225722
0.227577
0.224176
0.221616
0.220475
0.220517
0.221335
0.222386
0.223406
0.226431
0.218114
0.21705
0.216015
0.215828
0.216576
0.217956
0.219426
0.220648
0.224377
0.210314
0.210011
0.209618
0.209698
0.210451
0.211694
0.212887
0.213592
0.21736
0.203229
0.203113
0.202792
0.20255
0.202549
0.202658
0.202306
0.200829
0.20245
0.196498
0.196353
0.19576
0.194768
0.193359
0.191231
0.187467
0.180305
0.17453
0.190151
0.189882
0.188806
0.186764
0.183463
0.178247
0.169458
0.154717
0.109599
0.184435
0.183997
0.182306
0.179025
0.173403
0.163756
0.144223
0.105621
0.0110718
0.179719
0.179061
0.176694
0.172292
0.165063
0.153445
0.133126
0.100872
0.0468319
0.176471
0.175396
0.172204
0.166832
0.158861
0.147348
0.130339
0.105893
0.0726073
0.175194
0.173242
0.1688
0.162374
0.153922
0.142885
0.128432
0.108766
0.0852296
0.177519
0.172994
0.16644
0.158737
0.149808
0.139237
0.12657
0.110308
0.0919001
0.183663
0.173855
0.164656
0.155834
0.146814
0.13685
0.125435
0.111414
0.0955218
0.211899
0.179996
0.165243
0.155386
0.14662
0.137485
0.127041
0.114103
0.0989602
-0.123239
-0.0885409
-0.0233178
-0.044951
0.0226848
-0.00739344
0.0520577
0.0259978
0.0690495
0.0474911
0.0771007
0.0582235
0.081354
0.0624701
-0.0767004
-0.0682096
-0.0640929
-0.0591943
-0.0509925
-0.0391939
-0.0260312
-0.013159
-0.00403203
-0.0511456
-0.0518158
-0.0508048
-0.0473251
-0.040398
-0.0304761
-0.0199595
-0.00995178
-0.00393564
-0.0214238
-0.0273821
-0.0295953
-0.0287496
-0.0248936
-0.0187503
-0.012338
-0.00621083
-0.00360126
0.00944618
-0.000974028
-0.00736959
-0.0102432
-0.0102416
-0.00828178
-0.00589857
-0.0033015
-0.00329028
0.0303006
0.0174461
0.00848765
0.00281773
-0.000272068
-0.00154805
-0.00200971
-0.00175057
-0.00303556
0.0412951
0.0274743
0.0168398
0.00921541
0.00410934
0.000946339
-0.000892041
-0.00160724
-0.00289774
0.044428
0.0289058
0.0165371
0.00742542
0.00131084
-0.00227543
-0.0039047
-0.00403277
-0.00391291
-0.0329726
-0.0337303
-0.0319939
-0.0283912
-0.0231437
-0.0167391
-0.00982807
-0.00501913
0.0043032
-0.0322919
-0.0332496
-0.0319023
-0.0289285
-0.0243316
-0.0183581
-0.0115328
-0.00670959
0.00366492
-0.0341504
-0.0353429
-0.0342486
-0.0314683
-0.0268045
-0.0204683
-0.0129559
-0.00751921
0.00336531
-0.0382116
-0.0394529
-0.0386004
-0.0359357
-0.031026
-0.0239793
-0.0155629
-0.00834148
0.00272485
-0.0446115
-0.0454374
-0.0448151
-0.0422857
-0.0370407
-0.0289748
-0.0191775
-0.00981846
0.00153052
-0.0533109
-0.0527089
-0.0523506
-0.0499736
-0.0442488
-0.0349095
-0.0234358
-0.0118753
-0.000193571
-0.0636903
-0.059593
-0.0593974
-0.0569551
-0.0506226
-0.0400845
-0.0270652
-0.0137618
-0.00205148
-0.0838174
-0.0668217
-0.0647773
-0.0611396
-0.0537453
-0.0421638
-0.0283678
-0.0144475
-0.0034351
)
;

boundaryField
{
    inlet
    {
        type            zeroGradient;
    }
    outlet
    {
        type            totalPressure;
        rho             none;
        psi             none;
        gamma           1;
        p0              uniform 0;
        value           uniform 0;
    }
    fixedWalls
    {
        type            zeroGradient;
    }
    frontAndBack
    {
        type            empty;
    }
}


// ************************************************************************* //
