/*--------------------------------*- C++ -*----------------------------------*\
| =========                 |                                                 |
| \\      /  F ield         | OpenFOAM Extend Project: Open source CFD        |
|  \\    /   O peration     | Version:  1.6-ext                               |
|   \\  /    A nd           | Web:      www.extend-project.de                 |
|    \\/     M anipulation  |                                                 |
\*---------------------------------------------------------------------------*/
FoamFile
{
    version     2.0;
    format      ascii;
    class       surfaceScalarField;
    location    "3";
    object      phi;
}
// * * * * * * * * * * * * * * * * * * * * * * * * * * * * * * * * * * * * * //

dimensions      [0 3 -1 0 0 0 0];

internalField   nonuniform List<scalar> 
525
(
0.000160831
3.91686e-05
0.0001171
4.37314e-05
8.15544e-05
3.55455e-05
5.45573e-05
2.69971e-05
3.46479e-05
1.99094e-05
1.9734e-05
1.49139e-05
8.40555e-06
1.13285e-05
1.06341e-06
7.34214e-06
1.06341e-06
0.000204976
3.41929e-05
0.000190431
5.82766e-05
0.000162588
6.33877e-05
0.000129319
6.02669e-05
9.5245e-05
5.3983e-05
6.2944e-05
4.72149e-05
3.38968e-05
4.03756e-05
1.07253e-05
3.05137e-05
1.17887e-05
0.000208683
2.55095e-05
0.00020825
5.87101e-05
0.000194553
7.70845e-05
0.000169177
8.56434e-05
0.000135465
8.76943e-05
9.69606e-05
8.57195e-05
5.69622e-05
8.03741e-05
2.05805e-05
6.68953e-05
3.23693e-05
0.000205074
2.04355e-05
0.000208319
5.54647e-05
0.000202982
8.24222e-05
0.000186479
0.000102146
0.0001586
0.000115574
0.000120724
0.000123595
7.55996e-05
0.000125499
2.94878e-05
0.000113007
6.1857e-05
0.000202395
1.804e-05
0.000205386
5.24738e-05
0.000203998
8.38102e-05
0.000194214
0.00011193
0.000173187
0.000136601
0.000139455
0.000157327
9.3248e-05
0.000171705
3.95286e-05
0.000166727
0.000101386
0.000201272
1.67684e-05
0.000203929
4.98164e-05
0.00020498
8.27592e-05
0.000200643
0.000116267
0.000186865
0.000150379
0.00015976
0.000184432
0.000115964
0.000215502
5.558e-05
0.00022711
0.000156966
0.000201198
1.55708e-05
0.00020457
4.64441e-05
0.000208393
7.89357e-05
0.000209757
0.000114904
0.000204676
0.00015546
0.00018823
0.000200878
0.000152583
0.000251149
8.75835e-05
0.00029211
0.000244549
0.000201737
1.38343e-05
0.000206895
4.12855e-05
0.000214473
7.13578e-05
0.000222589
0.000106787
0.000228128
0.000149921
0.000226145
0.000202861
0.000204388
0.000272906
0.000138771
0.000357727
0.00038332
0.000202644
1.11903e-05
0.00021036
3.35692e-05
0.00022246
5.92582e-05
0.000238296
9.09509e-05
0.000257718
0.000130499
0.000282462
0.000178116
0.000319651
0.000235718
0.000384665
0.000292713
0.000361365
0.00040662
0.000203922
7.2687e-06
0.000214663
2.28282e-05
0.00023112
4.28012e-05
0.000253129
6.89413e-05
0.000281988
0.000101641
0.000320903
0.000139201
0.000373565
0.000183056
0.000454791
0.000211487
0.00028088
0.000535276
0.000205986
1.28317e-06
0.00022018
8.63421e-06
0.000240033
2.29478e-05
0.000265138
4.38362e-05
0.000296723
7.00561e-05
0.000337291
9.86331e-05
0.000388806
0.00013154
0.000455035
0.000145258
0.000187223
0.000548692
0.000209403
-8.11954e-06
0.000227181
-9.14402e-06
0.000248415
1.71395e-06
0.000273161
1.90899e-05
0.000302895
4.03225e-05
0.00033976
6.1768e-05
0.000386375
8.49256e-05
0.000438819
9.28135e-05
0.000111579
0.000514463
0.000214459
-2.25787e-05
0.000232008
-2.66927e-05
0.000249245
-1.55233e-05
0.000268471
-1.35819e-07
0.000292158
1.66352e-05
0.000322404
3.15218e-05
0.000361644
4.56861e-05
0.000403924
5.05329e-05
5.6886e-05
0.000458617
0.000211599
-3.4178e-05
0.000216376
-3.14694e-05
0.000219503
-1.86503e-05
0.000226131
-6.76381e-06
0.000239797
2.96948e-06
0.000261248
1.00703e-05
0.000291137
1.57977e-05
0.000324165
1.75048e-05
1.862e-05
0.000362431
0.000165822
0.000134353
0.000115702
0.000108938
0.000111908
0.000121978
0.000137776
0.000155281
0.000173901
0.00025194
0.00015468
5.34178e-05
0.000198522
0.000513491
0.000176465
8.42103e-05
0.000482699
0.000584449
0.000140709
7.74298e-05
0.000591229
0.000563779
9.13927e-05
5.25837e-05
0.000588625
0.000503262
4.67485e-05
2.45416e-05
0.000531304
0.000395037
1.41426e-05
5.01429e-06
0.000414564
0.000188043
0.000193058
0.000210765
-1.44821e-06
-1.07948e-05
0.000248505
-3.40276e-05
-3.71287e-06
0.000288646
-6.87723e-05
2.86316e-05
0.000322168
-0.000107474
7.39526e-05
0.000345808
-0.000145038
0.000121398
0.000359133
-0.000174652
0.000161328
0.000363219
-0.000189446
0.00018536
0.000360566
-0.000190813
0.000193467
-0.000167476
0.000175145
0.000463719
1.75319e-05
0.000461706
-3.20153e-05
0.000467541
-7.4607e-05
0.000472808
-0.000112741
0.000472335
-0.000144565
0.000463902
-0.000166219
0.000448111
-0.000173655
0.000426638
-0.00016934
-0.00014471
0.000586825
2.19367e-05
0.000580703
-2.5894e-05
0.000572861
-6.67647e-05
0.000560542
-0.000100421
0.00054162
-0.000125643
0.000515346
-0.000139946
0.000483405
-0.000141714
0.000447593
-0.000133528
-0.000111695
0.000598748
1.18132e-05
0.000597702
-2.48481e-05
0.000586861
-5.59231e-05
0.000566569
-8.01295e-05
0.000537078
-9.61525e-05
0.000499784
-0.000102652
0.000458037
-9.99671e-05
0.000414817
-9.0308e-05
-7.45742e-05
0.000543592
-4.75148e-07
0.000541394
-2.26505e-05
0.000526079
-4.06072e-05
0.000498923
-5.29744e-05
0.000462026
-5.92555e-05
0.000418789
-5.94137e-05
0.000373716
-5.48948e-05
0.000330783
-4.73744e-05
-3.97583e-05
0.000419066
-4.97698e-06
0.000409371
-1.29561e-05
0.000387142
-1.83783e-05
0.000355198
-2.10303e-05
0.000317154
-2.12107e-05
0.000277243
-1.95027e-05
0.000239307
-1.69588e-05
0.000206252
-1.43194e-05
-1.34213e-05
0.000188081
0.000175125
0.000156746
0.000135716
0.000114505
9.50025e-05
7.80437e-05
6.37244e-05
-4.82297e-06
4.82297e-06
-1.39634e-05
9.14045e-06
-2.22484e-05
8.28503e-06
-2.69129e-05
4.66449e-06
-2.68969e-05
-1.6038e-08
-2.22452e-05
-4.65174e-06
-1.36971e-05
-8.54804e-06
-2.26657e-06
-1.14306e-05
-1.26525e-05
-9.8852e-06
1.47082e-05
-2.51264e-05
2.43817e-05
-3.72879e-05
2.04465e-05
-4.20531e-05
9.42973e-06
-3.8136e-05
-3.93317e-06
-2.62543e-05
-1.65335e-05
-8.66841e-06
-2.61339e-05
1.22396e-05
-3.23386e-05
-3.36292e-05
-1.18496e-05
2.65577e-05
-2.88909e-05
4.14231e-05
-4.12877e-05
3.28433e-05
-4.43026e-05
1.24447e-05
-3.66218e-05
-1.1614e-05
-1.95351e-05
-3.36201e-05
3.97659e-06
-4.96457e-05
3.0812e-05
-5.9174e-05
-5.98489e-05
-1.25565e-05
3.91142e-05
-2.92533e-05
5.81199e-05
-4.01628e-05
4.37527e-05
-4.05785e-05
1.28604e-05
-2.95441e-05
-2.26484e-05
-8.36532e-06
-5.47989e-05
1.95611e-05
-7.75721e-05
5.04269e-05
-9.00398e-05
-8.92908e-05
-1.18476e-05
5.09618e-05
-2.46159e-05
7.08882e-05
-3.06459e-05
4.97827e-05
-2.5998e-05
8.21249e-06
-1.0601e-05
-3.80454e-05
1.38332e-05
-7.92331e-05
4.45186e-05
-0.000108257
7.73847e-05
-0.000122906
-0.00011959
-7.90836e-06
5.88702e-05
-9.82317e-06
7.2803e-05
-4.28092e-06
4.42405e-05
9.76375e-06
-5.83218e-06
3.13884e-05
-5.967e-05
5.88418e-05
-0.000106687
8.96422e-05
-0.000139058
0.000121102
-0.000154366
-0.000147208
5.00527e-06
5.38649e-05
2.37385e-05
5.40698e-05
4.94139e-05
1.85651e-05
7.71751e-05
-3.35933e-05
0.00010602
-8.85146e-05
0.000134834
-0.000135501
0.000162117
-0.000166341
0.000187352
-0.000179601
-0.000167386
4.30701e-05
9.3427e-05
0.000140624
0.000180983
0.000213866
0.000239693
0.000258712
0.000272578
)
;

boundaryField
{
    inlet
    {
        type            calculated;
        value           uniform -0.0002;
    }
    outlet
    {
        type            calculated;
        value           nonuniform List<scalar> 
15
(
1.0386e-05
3.32163e-05
5.70316e-05
7.98689e-05
0.000107684
0.00014872
0.000207529
0.000280337
0.000352896
0.000403871
0.000414579
0.000377696
0.000295967
0.000179915
5.03031e-05
)
;
    }
    fixedWalls
    {
        type            calculated;
        value           uniform 0;
    }
    frontAndBack
    {
        type            empty;
    }
}


// ************************************************************************* //
