/*--------------------------------*- C++ -*----------------------------------*\
| =========                 |                                                 |
| \\      /  F ield         | OpenFOAM Extend Project: Open source CFD        |
|  \\    /   O peration     | Version:  1.6-ext                               |
|   \\  /    A nd           | Web:      www.extend-project.de                 |
|    \\/     M anipulation  |                                                 |
\*---------------------------------------------------------------------------*/
FoamFile
{
    version     2.0;
    format      ascii;
    class       volVectorField;
    location    "3";
    object      U;
}
// * * * * * * * * * * * * * * * * * * * * * * * * * * * * * * * * * * * * * //

dimensions      [0 1 -1 0 0 0 0];

internalField   nonuniform List<vector> 
284
(
(0.163775 0.026605 0)
(0.141809 0.0268228 0)
(0.0988269 0.019231 0)
(0.0664932 0.0121643 0)
(0.0435322 0.00719932 0)
(0.0264684 0.00427438 0)
(0.013384 0.00256495 0)
(0.0031505 0.000963154 0)
(-0.00065894 -0.00119513 0)
(0.200596 0.0433812 0)
(0.202104 0.0576522 0)
(0.179527 0.0533686 0)
(0.146945 0.044169 0)
(0.112331 0.0348667 0)
(0.0787263 0.0274564 0)
(0.047477 0.021629 0)
(0.0194264 0.0148572 0)
(0.00320352 0.0037596 0)
(0.203091 0.0291105 0)
(0.211046 0.0596686 0)
(0.204778 0.0723242 0)
(0.18461 0.0748906 0)
(0.15422 0.071809 0)
(0.117323 0.0661832 0)
(0.0769091 0.0589321 0)
(0.0354846 0.0465428 0)
(0.00753672 0.0203748 0)
(0.201519 0.022421 0)
(0.20764 0.0570417 0)
(0.208075 0.0808007 0)
(0.197779 0.0955489 0)
(0.175546 0.103144 0)
(0.142271 0.105446 0)
(0.099566 0.102655 0)
(0.049578 0.0885848 0)
(0.0118374 0.0456074 0)
(0.200559 0.018997 0)
(0.204028 0.0538198 0)
(0.206094 0.0836335 0)
(0.201665 0.108227 0)
(0.186994 0.127537 0)
(0.159999 0.141599 0)
(0.1194 0.148846 0)
(0.0644835 0.138773 0)
(0.0174615 0.0799408 0)
(0.200229 0.0173271 0)
(0.20241 0.0511318 0)
(0.20511 0.0837256 0)
(0.204661 0.11519 0)
(0.196801 0.145107 0)
(0.177585 0.1726 0)
(0.142666 0.19481 0)
(0.0861093 0.196642 0)
(0.0276257 0.12598 0)
(0.200213 0.0161858 0)
(0.202483 0.048325 0)
(0.206605 0.0814696 0)
(0.210221 0.116877 0)
(0.209669 0.15499 0)
(0.200701 0.195332 0)
(0.177528 0.234991 0)
(0.123912 0.254963 0)
(0.0484158 0.198295 0)
(0.200342 0.0147822 0)
(0.203653 0.0442487 0)
(0.210337 0.0759864 0)
(0.21898 0.112385 0)
(0.226967 0.15531 0)
(0.231027 0.206346 0)
(0.223609 0.270996 0)
(0.197382 0.340823 0)
(0.0601929 0.288074 0)
(0.200545 0.0126483 0)
(0.205512 0.0379537 0)
(0.215617 0.0662647 0)
(0.230179 0.100407 0)
(0.248198 0.142719 0)
(0.272183 0.194816 0)
(0.299801 0.262349 0)
(0.358194 0.346224 0)
(0.399607 0.429777 0)
(0.200841 0.00945645 0)
(0.207972 0.0288608 0)
(0.221752 0.0519927 0)
(0.241404 0.08119 0)
(0.266539 0.117807 0)
(0.301408 0.161383 0)
(0.343616 0.213914 0)
(0.411495 0.256595 0)
(0.492712 0.337283 0)
(0.20139 0.0048201 0)
(0.211545 0.0165621 0)
(0.228896 0.0336597 0)
(0.251684 0.0570065 0)
(0.279671 0.0863811 0)
(0.315845 0.119319 0)
(0.36082 0.157568 0)
(0.418346 0.17415 0)
(0.498742 0.22756 0)
(0.202457 -0.00254001 0)
(0.216877 0.000433462 0)
(0.236886 0.0122881 0)
(0.260007 0.0308778 0)
(0.286983 0.0542152 0)
(0.319777 0.0788121 0)
(0.361696 0.106436 0)
(0.40953 0.115523 0)
(0.473556 0.141628 0)
(0.204217 -0.0138397 0)
(0.222627 -0.0182731 0)
(0.240397 -0.00869465 0)
(0.258177 0.00739257 0)
(0.279273 0.0261219 0)
(0.30561 0.0442685 0)
(0.340861 0.0627353 0)
(0.380814 0.069238 0)
(0.429481 0.0791856 0)
(0.201755 -0.0352328 0)
(0.214993 -0.0369966 0)
(0.21803 -0.0232611 0)
(0.221639 -0.00777072 0)
(0.231477 0.0062512 0)
(0.248746 0.017617 0)
(0.275054 0.0272124 0)
(0.306379 0.0303621 0)
(0.342683 0.0326573 0)
(0.164661 -0.0248949 0)
(0.151197 -0.0223528 0)
(0.123822 -0.0127458 0)
(0.110199 -0.00507032 0)
(0.108881 0.000248475 0)
(0.11577 0.00367672 0)
(0.129216 0.00591815 0)
(0.146063 0.00622682 0)
(0.164723 0.00594613 0)
(0.357052 0.165899 0)
(0.190091 0.0417614 0)
(0.545614 0.174626 0)
(0.50197 0.0754234 0)
(0.576142 0.16338 0)
(0.596707 0.0915786 0)
(0.542501 0.114733 0)
(0.582366 0.0674006 0)
(0.482234 0.0655217 0)
(0.520969 0.0367527 0)
(0.379889 0.0253329 0)
(0.407587 0.0105056 0)
(0.182005 0.00320367 0)
(0.192262 -0.00112803 0)
(0.196853 -0.0100571 0)
(0.224909 -0.0272944 0)
(0.267616 -0.0577228 0)
(0.307461 -0.0974222 0)
(0.337495 -0.138468 0)
(0.356944 -0.172517 0)
(0.363253 -0.191655 0)
(0.366301 -0.196515 0)
(0.351824 -0.175295 0)
(0.471864 0.00817487 0)
(0.459486 -0.0372594 0)
(0.46292 -0.076826 0)
(0.47151 -0.114775 0)
(0.475406 -0.14884 0)
(0.472195 -0.17415 0)
(0.456925 -0.185114 0)
(0.442528 -0.183758 0)
(0.405443 -0.15928 0)
(0.593291 0.0282287 0)
(0.58481 -0.0241462 0)
(0.577394 -0.068472 0)
(0.568724 -0.106272 0)
(0.553696 -0.136063 0)
(0.531968 -0.154848 0)
(0.499388 -0.159843 0)
(0.470503 -0.153706 0)
(0.417963 -0.129949 0)
(0.598508 0.0186936 0)
(0.601254 -0.024498 0)
(0.594908 -0.0612528 0)
(0.57979 -0.0910539 0)
(0.554648 -0.112329 0)
(0.521287 -0.122995 0)
(0.47852 -0.122415 0)
(0.440278 -0.11293 0)
(0.382142 -0.0934274 0)
(0.541541 0.0047102 0)
(0.546308 -0.0248419 0)
(0.537274 -0.0496371 0)
(0.515814 -0.0681607 0)
(0.483011 -0.0791824 0)
(0.442163 -0.0818861 0)
(0.395518 -0.0773688 0)
(0.354143 -0.0676779 0)
(0.300651 -0.0556493 0)
(0.420262 -0.00588857 0)
(0.417694 -0.0202055 0)
(0.40135 -0.0306612 0)
(0.373575 -0.0365912 0)
(0.33751 -0.0380653 0)
(0.297483 -0.0357507 0)
(0.257255 -0.0313242 0)
(0.223013 -0.0261307 0)
(0.183996 -0.0230641 0)
(0.192402 -0.00506083 0)
(0.183163 -0.00760682 0)
(0.167007 -0.00859447 0)
(0.146762 -0.00827644 0)
(0.125128 -0.00716408 0)
(0.104414 -0.00578828 0)
(0.0860247 -0.00468317 0)
(0.0710003 -0.00408224 0)
(0.0529039 -0.00471904 0)
(-0.00163061 0.00162404 0)
(-0.0087804 0.00364658 0)
(-0.0187301 0.0036073 0)
(-0.0255297 0.00242392 0)
(-0.0278784 0.000737634 0)
(-0.0254188 -0.00108162 0)
(-0.0178342 -0.00280191 0)
(-0.0113597 -0.0042293 0)
(0.00831186 -0.00498906 0)
(-0.00388806 0.00878074 0)
(-0.0169489 0.0156218 0)
(-0.0327449 0.0138023 0)
(-0.0417298 0.00737411 0)
(-0.0420195 -0.000771543 0)
(-0.0337368 -0.00865712 0)
(-0.0173782 -0.0150387 0)
(-0.00148619 -0.0195629 0)
(0.0296092 -0.0210362 0)
(-0.0048522 0.0203965 0)
(-0.020041 0.0327127 0)
(-0.0372103 0.0267943 0)
(-0.0454403 0.0115012 0)
(-0.0428075 -0.00682704 0)
(-0.0298877 -0.023799 0)
(-0.00793347 -0.0364186 0)
(0.0146317 -0.0443128 0)
(0.0524618 -0.0454722 0)
(-0.00536435 0.0328933 0)
(-0.020948 0.0500793 0)
(-0.0372444 0.0388732 0)
(-0.0433202 0.0134272 0)
(-0.0375736 -0.0162586 0)
(-0.0208716 -0.0432858 0)
(0.0048902 -0.0626652 0)
(0.0323712 -0.0736921 0)
(0.0747748 -0.073866 0)
(-0.00552644 0.0453865 0)
(-0.0191143 0.0656592 0)
(-0.0305133 0.0482293 0)
(-0.0312798 0.0120839 0)
(-0.0207086 -0.029491 0)
(7.87285e-05 -0.0666357 0)
(0.0286039 -0.0928457 0)
(0.0589972 -0.106471 0)
(0.102354 -0.10463 0)
(-0.0044806 0.0559862 0)
(-0.0109723 0.074684 0)
(-0.00955712 0.0499657 0)
(0.000534396 0.00366923 0)
(0.0191442 -0.0479965 0)
(0.0447559 -0.0932955 0)
(0.0745054 -0.124777 0)
(0.104846 -0.139981 0)
(0.143503 -0.134897 0)
(0.00123965 0.0653848 0)
(0.0100735 0.0716176 0)
(0.0351238 0.0376174 0)
(0.062557 -0.0160897 0)
(0.0920364 -0.0731769 0)
(0.121877 -0.122093 0)
(0.149879 -0.154923 0)
(0.176024 -0.169693 0)
(0.203 -0.160109 0)
(0.0312076 0.0335913 0)
(0.0623259 0.0333448 0)
(0.117338 -0.002135 0)
(0.162351 -0.0530658 0)
(0.199964 -0.106101 0)
(0.230193 -0.150846 0)
(0.251451 -0.17914 0)
(0.268622 -0.190336 0)
(0.277156 -0.175 0)
)
;

boundaryField
{
    inlet
    {
        type            fixedValue;
        value           uniform (0.2 0 0);
    }
    outlet
    {
        type            zeroGradient;
    }
    fixedWalls
    {
        type            fixedValue;
        value           uniform (0 0 0);
    }
    frontAndBack
    {
        type            empty;
    }
}


// ************************************************************************* //
