/*--------------------------------*- C++ -*----------------------------------*\
| =========                 |                                                 |
| \\      /  F ield         | OpenFOAM Extend Project: Open source CFD        |
|  \\    /   O peration     | Version:  1.6-ext                               |
|   \\  /    A nd           | Web:      www.extend-project.de                 |
|    \\/     M anipulation  |                                                 |
\*---------------------------------------------------------------------------*/
FoamFile
{
    version     2.0;
    format      ascii;
    class       surfaceScalarField;
    location    "1.8";
    object      phi;
}
// * * * * * * * * * * * * * * * * * * * * * * * * * * * * * * * * * * * * * //

dimensions      [0 3 -1 0 0 0 0];

internalField   nonuniform List<scalar> 
127
(
0.000160959
3.90414e-05
0.000117613
4.33455e-05
8.27161e-05
3.4897e-05
5.65678e-05
2.61483e-05
3.7382e-05
1.91857e-05
2.26027e-05
1.47794e-05
1.05446e-05
1.20581e-05
1.8943e-06
8.6503e-06
1.8943e-06
0.000205169
3.38725e-05
0.000191148
5.73664e-05
0.000164153
6.18925e-05
0.00013208
5.82205e-05
9.9255e-05
5.20112e-05
6.74929e-05
4.65414e-05
3.76038e-05
4.19472e-05
1.24206e-05
3.38335e-05
1.43149e-05
0.000208844
2.50283e-05
0.000208565
5.76454e-05
0.000194871
7.55863e-05
0.000169675
8.34167e-05
0.000136599
8.50869e-05
9.88133e-05
8.43275e-05
5.88749e-05
8.18856e-05
2.16134e-05
7.1095e-05
3.59283e-05
0.0002052
1.98282e-05
0.000208261
5.45841e-05
0.000201963
8.18849e-05
0.000184164
0.000101216
0.000155617
0.000113634
0.000118171
0.000121773
7.41004e-05
0.000125956
2.89695e-05
0.000116226
6.48978e-05
0.000202524
1.73039e-05
0.000205227
5.18818e-05
0.000202377
8.47345e-05
0.000190233
0.00011336
0.000167274
0.000136593
0.000133291
0.000155756
8.86616e-05
0.000170586
3.75051e-05
0.000167382
0.000102403
0.000201416
1.58877e-05
0.000203905
4.93926e-05
0.00020357
8.50695e-05
0.000196551
0.000120379
0.000180026
0.000153118
0.000151836
0.000183946
0.000109472
0.00021295
5.2437e-05
0.000224417
0.00015484
0.000201355
1.45331e-05
0.000204796
4.59515e-05
0.000207729
8.2136e-05
0.000206774
0.000121335
0.000198699
0.000161192
0.000180346
0.0002023
0.000145366
0.00024793
8.36126e-05
0.000286171
0.000238452
0.000201887
0.000207348
0.000214697
0.000221303
0.000224137
0.000219648
0.000197465
0.000135041
)
;

boundaryField
{
    inlet
    {
        type            calculated;
        value           nonuniform List<scalar> 8(-0.0002 -0.0002 -0.0002 -0.0002 -0.0002 -0.0002 -0.0002 -0.0002);
    }
    outlet
    {
        type            calculated;
        value           nonuniform 0();
    }
    fixedWalls
    {
        type            calculated;
        value           uniform 0;
    }
    frontAndBack
    {
        type            empty;
    }
    procBoundary3to2
    {
        type            processor;
        value           nonuniform List<scalar> 9(1.26463e-05 4.04906e-05 7.47863e-05 0.000114729 0.000158358 0.000206789 0.000270113 0.000348594 0.000373494);
    }
}


// ************************************************************************* //
