/*--------------------------------*- C++ -*----------------------------------*\
| =========                 |                                                 |
| \\      /  F ield         | OpenFOAM Extend Project: Open source CFD        |
|  \\    /   O peration     | Version:  1.6-ext                               |
|   \\  /    A nd           | Web:      www.extend-project.de                 |
|    \\/     M anipulation  |                                                 |
\*---------------------------------------------------------------------------*/
FoamFile
{
    version     2.0;
    format      ascii;
    class       volScalarField;
    location    "0.8";
    object      p;
}
// * * * * * * * * * * * * * * * * * * * * * * * * * * * * * * * * * * * * * //

dimensions      [0 2 -2 0 0 0 0];

internalField   nonuniform List<scalar> 
284
(
0.247645
0.216268
0.204917
0.199852
0.197517
0.196876
0.197211
0.198201
0.200944
0.218507
0.209407
0.203964
0.201286
0.200057
0.199869
0.200347
0.201216
0.204107
0.207071
0.203273
0.200512
0.1991
0.198565
0.198787
0.199507
0.200459
0.203767
0.198021
0.196538
0.195261
0.194691
0.194606
0.195012
0.195728
0.19652
0.200044
0.190629
0.189927
0.189247
0.188876
0.188659
0.188679
0.188768
0.188683
0.19179
0.183981
0.183503
0.182849
0.182103
0.181116
0.179982
0.178452
0.176117
0.176842
0.177768
0.177296
0.176327
0.174771
0.172397
0.169173
0.164455
0.156871
0.150255
0.172069
0.171513
0.170035
0.167369
0.16311
0.15702
0.147789
0.134956
0.0897054
0.167179
0.166495
0.164415
0.160488
0.153877
0.143583
0.123635
0.0876264
-0.00703453
0.163477
0.162616
0.159936
0.154967
0.146834
0.134615
0.114418
0.08426
0.0337227
0.161386
0.160155
0.156816
0.151088
0.142394
0.130184
0.112999
0.0893369
0.059121
0.161241
0.159234
0.154939
0.148511
0.139635
0.12789
0.112804
0.0929296
0.0706438
0.164628
0.160296
0.15417
0.146782
0.137774
0.126558
0.112895
0.0958047
0.0774475
0.171257
0.161637
0.153127
0.145283
0.136496
0.125917
0.113288
0.0980488
0.0816258
0.199983
0.168824
0.155328
0.146475
0.13765
0.127537
0.115433
0.100879
0.0848402
-0.142442
-0.120318
-0.0347892
-0.0599317
0.0117056
-0.0145126
0.0404015
0.0184681
0.0558433
0.0369181
0.0636923
0.046575
0.0673582
0.0497952
-0.105731
-0.0730999
-0.0392026
-0.0153974
-0.00293841
0.00232277
0.00373225
0.00309597
0.00109237
-0.063091
-0.0446757
-0.0222063
-0.00676746
0.000903619
0.00386252
0.00423262
0.00313667
0.000890476
-0.0218563
-0.0161267
-0.00651473
0.000707115
0.00423884
0.00516903
0.00455367
0.00304934
0.000688939
0.00715055
0.00404892
0.00503196
0.00642561
0.00671908
0.0059598
0.00452982
0.00275604
0.000462411
0.0237095
0.0161546
0.0121855
0.00981798
0.00787481
0.00597454
0.0040724
0.00224734
0.000225695
0.0326671
0.022527
0.0156884
0.011105
0.00784683
0.00534945
0.00331657
0.00163442
4.2165e-05
0.0345505
0.0228066
0.0146013
0.00921414
0.00571817
0.00337163
0.00170938
0.000499697
-0.000327516
-0.0106397
-0.00793473
-0.00471203
-0.00151653
0.00090605
0.00233768
0.00278868
0.0024167
0.00135275
-0.0132038
-0.0103347
-0.00707794
-0.00363847
-0.000874176
0.000906759
0.00170337
0.00168721
0.00111238
-0.0163949
-0.0133541
-0.00940641
-0.00517422
-0.00180775
0.000366547
0.00140682
0.00154171
0.00111481
-0.0231077
-0.0185459
-0.0129788
-0.00721865
-0.0028148
-4.04775e-05
0.00130308
0.00155581
0.00114626
-0.0306569
-0.0260759
-0.0181046
-0.00985576
-0.00385093
-0.00025518
0.00142911
0.00174215
0.00120843
-0.0488164
-0.0380344
-0.0255901
-0.0132655
-0.00483981
-0.000201799
0.00180078
0.00207855
0.00127931
-0.0654877
-0.0525388
-0.0345992
-0.0170318
-0.00559457
0.000151159
0.00235543
0.00247645
0.00130467
-0.125966
-0.0757597
-0.0437742
-0.0196316
-0.00551332
0.000890657
0.00300791
0.00283467
0.00123804
)
;

boundaryField
{
    inlet
    {
        type            zeroGradient;
    }
    outlet
    {
        type            totalPressure;
        rho             none;
        psi             none;
        gamma           1;
        p0              uniform 0;
        value           uniform 0;
    }
    fixedWalls
    {
        type            zeroGradient;
    }
    frontAndBack
    {
        type            empty;
    }
}


// ************************************************************************* //
