/*--------------------------------*- C++ -*----------------------------------*\
| =========                 |                                                 |
| \\      /  F ield         | OpenFOAM Extend Project: Open source CFD        |
|  \\    /   O peration     | Version:  1.6-ext                               |
|   \\  /    A nd           | Web:      www.extend-project.de                 |
|    \\/     M anipulation  |                                                 |
\*---------------------------------------------------------------------------*/
FoamFile
{
    version     2.0;
    format      ascii;
    class       surfaceScalarField;
    location    "0.8";
    object      phi;
}
// * * * * * * * * * * * * * * * * * * * * * * * * * * * * * * * * * * * * * //

dimensions      [0 3 -1 0 0 0 0];

internalField   nonuniform List<scalar> 
525
(
0.000161736
3.82636e-05
0.000121025
4.0711e-05
8.9795e-05
3.12303e-05
6.69017e-05
2.28933e-05
4.89485e-05
1.79532e-05
3.30512e-05
1.58973e-05
1.78747e-05
1.51765e-05
4.82141e-06
1.30533e-05
4.82141e-06
0.000205042
3.32216e-05
0.00019121
5.45435e-05
0.00016626
5.61795e-05
0.000137668
5.14854e-05
0.000108019
4.76028e-05
7.74641e-05
4.64518e-05
4.6001e-05
4.66396e-05
1.65307e-05
4.25236e-05
2.13521e-05
0.000207755
2.54665e-05
0.000203591
5.87078e-05
0.000186699
7.30709e-05
0.000161457
7.67281e-05
0.000131165
7.78946e-05
9.70598e-05
8.05569e-05
5.97478e-05
8.39516e-05
2.27676e-05
7.95037e-05
4.41198e-05
0.000203988
2.14787e-05
0.000201469
6.12266e-05
0.000188824
8.57161e-05
0.000167839
9.77132e-05
0.000140454
0.000105279
0.000107319
0.000113692
6.85522e-05
0.000122719
2.74037e-05
0.000120652
7.15234e-05
0.000201634
1.98442e-05
0.000199204
6.3657e-05
0.000189499
9.54209e-05
0.000172708
0.000114505
0.000149334
0.000128653
0.000118899
0.000144127
8.01627e-05
0.000161455
3.46424e-05
0.000166173
0.000106166
0.000200955
1.88893e-05
0.000199649
6.49629e-05
0.000193411
0.000101659
0.000181526
0.00012639
0.000163424
0.000146755
0.000137435
0.000170116
0.000100175
0.000198715
4.9187e-05
0.00021716
0.000155353
0.000201311
1.75779e-05
0.000202466
6.38084e-05
0.000200957
0.000103168
0.000195513
0.000131833
0.000185039
0.000157229
0.000167507
0.000187648
0.000136568
0.000229654
8.12823e-05
0.000272446
0.000236635
0.000202213
1.53652e-05
0.000206844
5.91767e-05
0.000211312
9.87006e-05
0.000214036
0.000129109
0.000213819
0.000157446
0.000208564
0.000192903
0.000188703
0.000249515
0.000134099
0.00032705
0.000370734
0.000203372
1.19935e-05
0.000211981
5.05677e-05
0.000223082
8.75994e-05
0.00023533
0.000116861
0.000249686
0.00014309
0.0002695
0.000173089
0.000306882
0.000212133
0.000383331
0.000250601
0.00032913
0.000424934
0.000204699
7.29423e-06
0.00021719
3.80773e-05
0.000234262
7.0527e-05
0.000254405
9.67184e-05
0.000279058
0.000118436
0.000312071
0.000140077
0.000359945
0.000164259
0.000438462
0.000172084
0.000240079
0.000527514
0.000206514
7.79926e-07
0.000222493
2.20981e-05
0.000243905
4.91153e-05
0.000268718
7.19059e-05
0.000297544
8.96101e-05
0.00033297
0.000104651
0.000378089
0.00011914
0.000433712
0.000116461
0.000149584
0.000524207
0.000209449
-8.66913e-06
0.000228567
2.9802e-06
0.000252293
2.53891e-05
0.000278724
4.54753e-05
0.000308175
6.01585e-05
0.000342197
7.06294e-05
0.000382489
7.88479e-05
0.00042424
7.47096e-05
8.49498e-05
0.000488875
0.00021386
-2.25295e-05
0.000233798
-1.69577e-05
0.000256264
2.92356e-06
0.000280972
2.07669e-05
0.000308569
3.25614e-05
0.000339564
3.96343e-05
0.000374563
4.38495e-05
0.000408284
4.09879e-05
4.14588e-05
0.000451775
0.000211556
-3.40859e-05
0.000221094
-2.64949e-05
0.000233745
-9.72746e-06
0.000251655
2.8564e-06
0.000274165
1.00518e-05
0.000300083
1.37162e-05
0.000328576
1.53563e-05
0.000355547
1.40168e-05
1.28871e-05
0.000384119
0.000165914
0.000139419
0.000129692
0.000132548
0.0001426
0.000156316
0.000171672
0.000185689
0.000198576
0.00029989
0.000125044
1.20904e-05
0.0002878
0.000528343
0.000124215
1.18871e-05
0.000528546
0.000558844
8.95774e-05
1.09533e-05
0.000559778
0.000524647
5.38058e-05
4.35067e-06
0.000531249
0.000480805
2.47758e-05
-1.52049e-06
0.000486676
0.000402625
6.27027e-06
-3.72382e-06
0.000404828
0.000204847
0.000201123
0.000318584
-0.000121563
9.07786e-05
0.000331392
-0.000200263
0.000187456
0.000320112
-0.000219399
0.000230679
0.000299396
-0.000197403
0.000218119
0.000280783
-0.000159988
0.000178601
0.00026753
-0.000122623
0.000135876
0.000259115
-9.05784e-05
9.89943e-05
0.000254374
-6.43034e-05
6.90436e-05
-4.06302e-05
4.29823e-05
0.000499933
-9.295e-05
0.000454508
-0.000154838
0.000402871
-0.000167762
0.000357537
-0.000152069
0.000323976
-0.000126427
0.000301136
-9.97827e-05
0.000286158
-7.56011e-05
0.000276793
-5.49381e-05
-3.53737e-05
0.000527706
-6.08777e-05
0.000477079
-0.000104212
0.000425779
-0.000116462
0.00038245
-0.00010874
0.000348815
-9.27916e-05
0.000323963
-7.49303e-05
0.000306224
-5.78623e-05
0.000294127
-4.28414e-05
-2.81446e-05
0.00050942
-3.90489e-05
0.000471458
-6.62488e-05
0.000430034
-7.50379e-05
0.000392434
-7.11406e-05
0.000361077
-6.14346e-05
0.000336283
-5.0136e-05
0.000317544
-3.9123e-05
0.000304043
-2.93411e-05
-1.97626e-05
0.000472206
-2.45786e-05
0.000444418
-3.84609e-05
0.000411735
-4.23543e-05
0.000380089
-3.94953e-05
0.000352328
-3.36729e-05
0.000329425
-2.72337e-05
0.000311494
-2.11918e-05
0.000298125
-1.5972e-05
-1.12224e-05
0.000391922
-1.16722e-05
0.00036909
-1.56292e-05
0.000342566
-1.58304e-05
0.000316913
-1.38428e-05
0.000294435
-1.1194e-05
0.0002759
-8.6989e-06
0.000261331
-6.62313e-06
0.000250374
-5.01502e-06
-3.99182e-06
0.000189451
0.000173821
0.000157991
0.000144148
0.000132954
0.000124255
0.000117632
0.000112617
-1.63387e-06
1.63387e-06
3.34388e-06
-4.97775e-06
1.21607e-05
-8.81682e-06
2.2063e-05
-9.90227e-06
3.15031e-05
-9.44013e-06
3.96684e-05
-8.16533e-06
4.61946e-05
-6.52613e-06
5.10318e-05
-4.8372e-06
-3.63603e-06
1.8085e-06
-1.74627e-07
1.43925e-05
-1.75618e-05
3.27587e-05
-2.7183e-05
5.24896e-05
-2.96332e-05
7.0966e-05
-2.79166e-05
8.68335e-05
-2.40328e-05
9.9476e-05
-1.91687e-05
0.000108675
-1.40359e-05
-9.60237e-06
1.8768e-06
-2.05142e-06
1.72884e-05
-3.29734e-05
4.02244e-05
-5.01189e-05
6.47779e-05
-5.41867e-05
8.74714e-05
-5.061e-05
0.000106676
-4.32371e-05
0.000121809
-3.43021e-05
0.00013275
-2.49769e-05
-1.65283e-05
-1.37025e-06
-6.81171e-07
1.53515e-05
-4.96952e-05
4.24087e-05
-7.71761e-05
7.13624e-05
-8.31404e-05
9.73776e-05
-7.66252e-05
0.000118654
-6.45133e-05
0.000134952
-5.06003e-05
0.000146546
-3.65711e-05
-2.37453e-05
-5.24009e-06
4.55892e-06
1.26465e-05
-6.75817e-05
4.5574e-05
-0.000110104
8.01826e-05
-0.000117749
0.000109813
-0.000106256
0.000132756
-8.74556e-05
0.000149528
-6.73725e-05
0.000161136
-4.81792e-05
-3.07955e-05
-9.11255e-06
1.36715e-05
1.68605e-05
-9.35547e-05
5.77104e-05
-0.000150954
9.77733e-05
-0.000157812
0.00012982
-0.000138303
0.000152969
-0.000110604
0.000168892
-8.32957e-05
0.000179525
-5.8812e-05
-3.70583e-05
1.90317e-05
-5.36019e-06
5.37105e-05
-0.000128234
9.6711e-05
-0.000193954
0.000134984
-0.000196085
0.000163217
-0.000166537
0.000182083
-0.00012947
0.000194205
-9.54173e-05
0.000202033
-6.66406e-05
-4.15402e-05
8.54184e-05
0.00014464
0.000181365
0.000203399
0.000215463
0.000221869
0.000225446
0.000227849
)
;

boundaryField
{
    inlet
    {
        type            calculated;
        value           uniform -0.0002;
    }
    outlet
    {
        type            calculated;
        value           nonuniform List<scalar> 
15
(
5.46678e-05
0.000114641
0.000139676
0.000153763
0.000168186
0.000185788
0.000206515
0.000229291
0.000252022
0.000271537
0.000286898
0.000295661
0.000289585
0.000243143
0.000108625
)
;
    }
    fixedWalls
    {
        type            calculated;
        value           uniform 0;
    }
    frontAndBack
    {
        type            empty;
    }
}


// ************************************************************************* //
