/*--------------------------------*- C++ -*----------------------------------*\
| =========                 |                                                 |
| \\      /  F ield         | OpenFOAM Extend Project: Open source CFD        |
|  \\    /   O peration     | Version:  1.6-ext                               |
|   \\  /    A nd           | Web:      www.extend-project.de                 |
|    \\/     M anipulation  |                                                 |
\*---------------------------------------------------------------------------*/
FoamFile
{
    version     2.0;
    format      ascii;
    class       volVectorField;
    location    "0.8";
    object      U;
}
// * * * * * * * * * * * * * * * * * * * * * * * * * * * * * * * * * * * * * //

dimensions      [0 1 -1 0 0 0 0];

internalField   nonuniform List<vector> 
284
(
(0.163504 0.0260512 0)
(0.143866 0.024995 0)
(0.104813 0.016947 0)
(0.0770639 0.0105474 0)
(0.0574571 0.00696192 0)
(0.040975 0.00542318 0)
(0.0253794 0.00479737 0)
(0.00968284 0.00370343 0)
(0.000897261 0.000320887 0)
(0.199876 0.0421804 0)
(0.202716 0.0533055 0)
(0.18132 0.0464133 0)
(0.152322 0.0371639 0)
(0.123101 0.0310011 0)
(0.093263 0.0284223 0)
(0.0619344 0.0275845 0)
(0.0288069 0.0242649 0)
(0.00596279 0.0104834 0)
(0.202196 0.0284105 0)
(0.209415 0.0569567 0)
(0.198405 0.0653553 0)
(0.175368 0.0647067 0)
(0.147291 0.0629936 0)
(0.115237 0.0633409 0)
(0.0791297 0.0647144 0)
(0.03877 0.060072 0)
(0.00886416 0.0319406 0)
(0.200561 0.0229703 0)
(0.205378 0.0597874 0)
(0.198001 0.0798619 0)
(0.179789 0.0879738 0)
(0.155498 0.0922879 0)
(0.125513 0.0975758 0)
(0.0893154 0.103388 0)
(0.0458607 0.0995788 0)
(0.0113355 0.0570984 0)
(0.199559 0.0205145 0)
(0.202344 0.0625356 0)
(0.196663 0.0911444 0)
(0.182425 0.106969 0)
(0.162537 0.117861 0)
(0.136205 0.129622 0)
(0.10177 0.142302 0)
(0.0561824 0.142603 0)
(0.0157276 0.0874794 0)
(0.199182 0.0193687 0)
(0.201686 0.0646564 0)
(0.198359 0.099344 0)
(0.188568 0.121567 0)
(0.174034 0.138972 0)
(0.152964 0.15838 0)
(0.122222 0.181105 0)
(0.0753859 0.191736 0)
(0.0251211 0.128037 0)
(0.199116 0.018319 0)
(0.202729 0.0649585 0)
(0.203082 0.103509 0)
(0.199044 0.130615 0)
(0.191689 0.15383 0)
(0.178988 0.180981 0)
(0.157247 0.215201 0)
(0.1132 0.238657 0)
(0.0459853 0.192575 0)
(0.199187 0.0166111 0)
(0.204752 0.0622253 0)
(0.209951 0.102267 0)
(0.213094 0.132336 0)
(0.214938 0.159897 0)
(0.214022 0.194308 0)
(0.202337 0.248369 0)
(0.188473 0.319533 0)
(0.0596458 0.282828 0)
(0.199323 0.0138509 0)
(0.207245 0.0556657 0)
(0.217881 0.0945407 0)
(0.229208 0.124901 0)
(0.242383 0.152892 0)
(0.262007 0.18692 0)
(0.281966 0.238128 0)
(0.352271 0.306714 0)
(0.401427 0.409408 0)
(0.199535 0.0098649 0)
(0.20993 0.0451093 0)
(0.225625 0.0803145 0)
(0.243879 0.108387 0)
(0.265805 0.132737 0)
(0.29582 0.159154 0)
(0.330458 0.191764 0)
(0.397652 0.211172 0)
(0.478594 0.293023 0)
(0.199971 0.0044976 0)
(0.21311 0.0308303 0)
(0.23289 0.0607633 0)
(0.255625 0.0853221 0)
(0.282226 0.105004 0)
(0.314262 0.123105 0)
(0.353524 0.141402 0)
(0.40191 0.139271 0)
(0.475066 0.183841 0)
(0.20089 -0.00318245 0)
(0.217574 0.0130018 0)
(0.240218 0.0376015 0)
(0.264856 0.0589336 0)
(0.292766 0.0749774 0)
(0.32405 0.0873252 0)
(0.361942 0.0977323 0)
(0.400438 0.0929245 0)
(0.453662 0.109418 0)
(0.202449 -0.0139687 0)
(0.222856 -0.00653005 0)
(0.245113 0.0141 0)
(0.268038 0.0326469 0)
(0.294147 0.0457613 0)
(0.323209 0.0543065 0)
(0.356898 0.0600178 0)
(0.390102 0.0564549 0)
(0.428792 0.0587337 0)
(0.200167 -0.0350597 0)
(0.21631 -0.0291858 0)
(0.227367 -0.00897956 0)
(0.241694 0.00765151 0)
(0.262062 0.0181915 0)
(0.286473 0.0238648 0)
(0.314199 0.0266284 0)
(0.341567 0.0245989 0)
(0.369925 0.0230632 0)
(0.163569 -0.024857 0)
(0.152532 -0.0202242 0)
(0.133044 -0.00908446 0)
(0.129376 -0.00122947 0)
(0.136695 0.00306283 0)
(0.14905 0.00492746 0)
(0.163924 0.0055074 0)
(0.178659 0.0047051 0)
(0.192667 0.00366815 0)
(0.392311 0.153605 0)
(0.250416 0.0235732 0)
(0.545301 0.126256 0)
(0.527505 0.00693742 0)
(0.550148 0.108006 0)
(0.570706 0.0159099 0)
(0.511418 0.0684725 0)
(0.53651 0.00674512 0)
(0.468866 0.0360579 0)
(0.489265 0.00101708 0)
(0.395458 0.0119719 0)
(0.407275 -0.00446523 0)
(0.203039 0.000348933 0)
(0.204656 -0.00368769 0)
(0.310921 -0.123118 0)
(0.339569 -0.206705 0)
(0.33035 -0.235049 0)
(0.307451 -0.216487 0)
(0.286939 -0.175976 0)
(0.271847 -0.133654 0)
(0.261785 -0.0975036 0)
(0.255922 -0.06834 0)
(0.251849 -0.0427452 0)
(0.526112 -0.109467 0)
(0.488455 -0.180895 0)
(0.428918 -0.195775 0)
(0.375349 -0.175369 0)
(0.336535 -0.143507 0)
(0.309744 -0.111794 0)
(0.29169 -0.083881 0)
(0.280398 -0.0604076 0)
(0.271897 -0.0385743 0)
(0.555186 -0.0724975 0)
(0.50846 -0.124961 0)
(0.451177 -0.138512 0)
(0.40097 -0.12833 0)
(0.362613 -0.108804 0)
(0.334151 -0.0873503 0)
(0.313314 -0.067093 0)
(0.299163 -0.0493653 0)
(0.287656 -0.0321429 0)
(0.528065 -0.0496994 0)
(0.494933 -0.0837152 0)
(0.451571 -0.0939021 0)
(0.409864 -0.0885684 0)
(0.374874 -0.0763708 0)
(0.347002 -0.0622782 0)
(0.325386 -0.0485361 0)
(0.309921 -0.0362901 0)
(0.296706 -0.0241495 0)
(0.484851 -0.0309463 0)
(0.461686 -0.0506033 0)
(0.429191 -0.0568469 0)
(0.395458 -0.053851 0)
(0.365098 -0.0465462 0)
(0.339661 -0.0380417 0)
(0.319215 -0.0297769 0)
(0.304083 -0.0224598 0)
(0.290796 -0.0154205 0)
(0.401793 -0.0184248 0)
(0.382721 -0.0258979 0)
(0.356623 -0.0270608 0)
(0.329494 -0.0242901 0)
(0.304926 -0.0200762 0)
(0.284284 -0.0158553 0)
(0.267702 -0.012168 0)
(0.255265 -0.00916149 0)
(0.244359 -0.00685338 0)
(0.196643 -0.00639956 0)
(0.182334 -0.00713658 0)
(0.16599 -0.00636211 0)
(0.150783 -0.00496102 0)
(0.13813 -0.00360728 0)
(0.128178 -0.00256094 0)
(0.120557 -0.001841 0)
(0.114803 -0.00140653 0)
(0.109663 -0.00138167 0)
(-0.00215543 0.00161473 0)
(-0.000745551 -0.0010393 0)
(0.00750124 -0.00272022 0)
(0.0172138 -0.00324738 0)
(0.0270231 -0.00315084 0)
(0.0359009 -0.00273254 0)
(0.0432609 -0.00218009 0)
(0.0489844 -0.00164586 0)
(0.0537036 -0.00139943 0)
(-0.00131469 0.00133873 0)
(0.00540003 -0.00951933 0)
(0.0231887 -0.0158022 0)
(0.0429034 -0.0175363 0)
(0.0622454 -0.0166619 0)
(0.0795567 -0.0144089 0)
(0.0938535 -0.01152 0)
(0.104791 -0.00848954 0)
(0.113399 -0.00609934 0)
(-0.00187221 -0.00147802 0)
(0.00609456 -0.0247403 0)
(0.0283111 -0.037655 0)
(0.0529051 -0.0409144 0)
(0.0768237 -0.0384758 0)
(0.0979194 -0.0330843 0)
(0.115116 -0.0263715 0)
(0.128119 -0.0192685 0)
(0.138322 -0.0129387 0)
(-0.00449097 -0.00309384 0)
(0.00215788 -0.0406965 0)
(0.0284033 -0.0623046 0)
(0.0575001 -0.0674702 0)
(0.0853257 -0.0628398 0)
(0.109074 -0.0534642 0)
(0.127812 -0.0422684 0)
(0.141639 -0.0306926 0)
(0.152355 -0.0201188 0)
(-0.00741776 0.00243794 0)
(-0.00259207 -0.057349 0)
(0.0288811 -0.0917133 0)
(0.0638933 -0.0988878 0)
(0.0963363 -0.0905755 0)
(0.122624 -0.0756538 0)
(0.142287 -0.0589407 0)
(0.156238 -0.0424184 0)
(0.16677 -0.0273458 0)
(-0.0116356 0.00534024 0)
(-0.00468697 -0.0793904 0)
(0.0381375 -0.129201 0)
(0.0794519 -0.136979 0)
(0.115469 -0.122087 0)
(0.142924 -0.0992581 0)
(0.162116 -0.0757214 0)
(0.175047 -0.0538436 0)
(0.184442 -0.0341898 0)
(0.00928484 0.0270107 0)
(0.0313882 -0.10354 0)
(0.0785142 -0.173653 0)
(0.11818 -0.179847 0)
(0.150526 -0.154936 0)
(0.17384 -0.121949 0)
(0.189012 -0.0907474 0)
(0.198684 -0.0636637 0)
(0.205379 -0.0398751 0)
(0.0723228 -0.0436576 0)
(0.114117 -0.165867 0)
(0.168179 -0.222737 0)
(0.194293 -0.216537 0)
(0.209384 -0.179482 0)
(0.21849 -0.13717 0)
(0.223542 -0.0999915 0)
(0.226609 -0.0695217 0)
(0.228557 -0.0431981 0)
)
;

boundaryField
{
    inlet
    {
        type            fixedValue;
        value           uniform (0.2 0 0);
    }
    outlet
    {
        type            zeroGradient;
    }
    fixedWalls
    {
        type            fixedValue;
        value           uniform (0 0 0);
    }
    frontAndBack
    {
        type            empty;
    }
}


// ************************************************************************* //
