/*--------------------------------*- C++ -*----------------------------------*\
| =========                 |                                                 |
| \\      /  F ield         | OpenFOAM Extend Project: Open source CFD        |
|  \\    /   O peration     | Version:  1.6-ext                               |
|   \\  /    A nd           | Web:      www.extend-project.de                 |
|    \\/     M anipulation  |                                                 |
\*---------------------------------------------------------------------------*/
FoamFile
{
    version     2.0;
    format      ascii;
    class       volScalarField;
    location    "2.3";
    object      p;
}
// * * * * * * * * * * * * * * * * * * * * * * * * * * * * * * * * * * * * * //

dimensions      [0 2 -2 0 0 0 0];

internalField   nonuniform List<scalar> 
284
(
0.257539
0.226077
0.214617
0.20967
0.207815
0.207824
0.208704
0.209949
0.212094
0.228316
0.219438
0.214068
0.211546
0.210642
0.210776
0.211411
0.212263
0.214579
0.216418
0.213012
0.210428
0.209263
0.209288
0.21009
0.21112
0.212107
0.215147
0.207017
0.20595
0.204891
0.204666
0.205361
0.206658
0.208018
0.209124
0.212772
0.199299
0.19899
0.19857
0.198598
0.199257
0.200339
0.20131
0.201783
0.205351
0.192314
0.192193
0.191841
0.191533
0.191401
0.19128
0.190605
0.188782
0.190126
0.185706
0.185557
0.184934
0.183867
0.182298
0.179888
0.175736
0.168186
0.162111
0.179504
0.179234
0.178134
0.176019
0.172544
0.167017
0.157817
0.142695
0.0979316
0.173952
0.173516
0.171814
0.168479
0.162698
0.152759
0.132914
0.0941402
0.000321085
0.169411
0.168757
0.1664
0.161983
0.154655
0.142831
0.122332
0.0900315
0.0364686
0.166342
0.16527
0.16211
0.156781
0.148811
0.137237
0.120153
0.0957034
0.0626302
0.16521
0.163274
0.158886
0.152564
0.144232
0.133302
0.118913
0.0993254
0.0758816
0.167668
0.163151
0.156672
0.149111
0.140402
0.130091
0.117636
0.101539
0.0832048
0.173926
0.164116
0.154985
0.146326
0.137588
0.127977
0.11687
0.103052
0.0872275
0.202191
0.170283
0.155629
0.146002
0.137589
0.128837
0.118672
0.105844
0.0906431
-0.132886
-0.100087
-0.0333594
-0.0555207
0.0131602
-0.0164683
0.0431267
0.0176588
0.0605378
0.0393206
0.0688797
0.0502991
0.0729621
0.0541178
-0.0885907
-0.0799908
-0.0728611
-0.0617627
-0.0463126
-0.0297817
-0.0159155
-0.00612403
-0.00167044
-0.0621244
-0.0616488
-0.0574374
-0.0486755
-0.0361106
-0.0228408
-0.012097
-0.00469589
-0.00211988
-0.0296284
-0.0341685
-0.0339395
-0.0296153
-0.0223042
-0.0142538
-0.00779954
-0.00329958
-0.00241486
0.00193619
-0.00736777
-0.0118096
-0.0123752
-0.010338
-0.00724723
-0.00459126
-0.0024774
-0.00258141
0.0227199
0.0110524
0.00350462
-0.000734004
-0.0026159
-0.00306816
-0.00292536
-0.00226231
-0.00259262
0.0339411
0.0208888
0.0112684
0.00467793
0.000512148
-0.00179032
-0.00273643
-0.00257704
-0.00251476
0.0365412
0.0218148
0.0105076
0.00260785
-0.00225058
-0.00462724
-0.00516331
-0.00440766
-0.00316732
-0.0311068
-0.0312652
-0.0286223
-0.024146
-0.0184436
-0.0123554
-0.00677576
-0.00258749
0.0021419
-0.0311007
-0.0315214
-0.0293135
-0.0253628
-0.0200166
-0.0140033
-0.00831698
-0.00363078
0.0015598
-0.0336324
-0.034243
-0.0320617
-0.027888
-0.0220848
-0.0153752
-0.00907727
-0.00385425
0.00167668
-0.0385214
-0.039218
-0.0369301
-0.0322876
-0.0255764
-0.0175309
-0.0101701
-0.00414374
0.00175334
-0.0462637
-0.0466726
-0.0442611
-0.0389331
-0.0307294
-0.0209522
-0.0119033
-0.00467526
0.00155326
-0.0572864
-0.0564262
-0.0539563
-0.0476742
-0.0374674
-0.0253915
-0.0141949
-0.00545585
0.00096743
-0.070678
-0.0665621
-0.0639986
-0.0566244
-0.0442992
-0.0297263
-0.0164053
-0.00627959
7.01224e-05
-0.0957032
-0.0783219
-0.0731689
-0.0632675
-0.04851
-0.0319298
-0.0173608
-0.00668478
-0.000886041
)
;

boundaryField
{
    inlet
    {
        type            zeroGradient;
    }
    outlet
    {
        type            totalPressure;
        rho             none;
        psi             none;
        gamma           1;
        p0              uniform 0;
        value           uniform 0;
    }
    fixedWalls
    {
        type            zeroGradient;
    }
    frontAndBack
    {
        type            empty;
    }
}


// ************************************************************************* //
