/*--------------------------------*- C++ -*----------------------------------*\
| =========                 |                                                 |
| \\      /  F ield         | OpenFOAM Extend Project: Open source CFD        |
|  \\    /   O peration     | Version:  1.6-ext                               |
|   \\  /    A nd           | Web:      www.extend-project.de                 |
|    \\/     M anipulation  |                                                 |
\*---------------------------------------------------------------------------*/
FoamFile
{
    version     2.0;
    format      ascii;
    class       surfaceScalarField;
    location    "2.3";
    object      phi;
}
// * * * * * * * * * * * * * * * * * * * * * * * * * * * * * * * * * * * * * //

dimensions      [0 3 -1 0 0 0 0];

internalField   nonuniform List<scalar> 
525
(
0.000160883
3.91171e-05
0.000117311
4.35718e-05
8.20188e-05
3.52922e-05
5.53493e-05
2.66695e-05
3.57425e-05
1.96068e-05
2.09175e-05
1.4825e-05
9.31123e-06
1.16063e-05
1.41836e-06
7.89287e-06
1.41836e-06
0.000205063
3.40539e-05
0.00019079
5.78449e-05
0.000163364
6.27182e-05
0.000130629
5.9405e-05
9.7093e-05
5.31424e-05
6.5027e-05
4.6891e-05
3.55987e-05
4.10346e-05
1.15081e-05
3.19835e-05
1.29264e-05
0.000208764
2.52898e-05
0.000208519
5.809e-05
0.000195019
7.62179e-05
0.000169868
8.45565e-05
0.000136469
8.65411e-05
9.8219e-05
8.51412e-05
5.81167e-05
8.11368e-05
2.11724e-05
6.89278e-05
3.40988e-05
0.000205142
2.01476e-05
0.000208478
5.47542e-05
0.000203023
8.16729e-05
0.000186196
0.000101384
0.000158072
0.000114665
0.000120256
0.000122958
7.53686e-05
0.000126024
2.94402e-05
0.000114856
6.3539e-05
0.000202465
1.76824e-05
0.000205509
5.17102e-05
0.000203811
8.33714e-05
0.000193253
0.000111941
0.000171396
0.000136522
0.00013736
0.000156994
9.15815e-05
0.000171802
3.87659e-05
0.000167672
0.000102305
0.000201346
1.63362e-05
0.000204084
4.89723e-05
0.000204828
8.26277e-05
0.000199553
0.000117216
0.000184552
0.000151524
0.000156726
0.000184819
0.000113289
0.00021524
5.42179e-05
0.000226743
0.000156523
0.000201272
1.50643e-05
0.000204784
4.54606e-05
0.000208464
7.89476e-05
0.000209036
0.000116644
0.00020263
0.00015793
0.00018508
0.000202368
0.000149436
0.000250884
8.57468e-05
0.000290432
0.00024227
0.0002018
1.32646e-05
0.000207145
4.01148e-05
0.000214805
7.12876e-05
0.000222487
0.000108962
0.000226899
0.000153518
0.000223591
0.000205676
0.000201316
0.000273159
0.000136905
0.000354843
0.000379174
0.000202681
1.05839e-05
0.000210575
3.22206e-05
0.000222927
5.89359e-05
0.000238746
9.31428e-05
0.000257497
0.000134766
0.000280998
0.000182175
0.000316993
0.000237165
0.0003816
0.000290237
0.000355087
0.000405687
0.000203918
6.66571e-06
0.000214744
2.13943e-05
0.000231471
4.22093e-05
0.000253759
7.08547e-05
0.000282487
0.000106038
0.000320565
0.000144097
0.00037187
0.000185859
0.000451425
0.000210682
0.000274182
0.000532329
0.000205942
7.23537e-07
0.000220049
7.28751e-06
0.000240016
2.22427e-05
0.000265483
4.53874e-05
0.000297397
7.41245e-05
0.000337826
0.000103668
0.000388551
0.000135134
0.00045327
0.000145963
0.000182089
0.000545364
0.000209285
-8.56102e-06
0.000226819
-1.02474e-05
0.000247945
1.11726e-06
0.000273024
2.03078e-05
0.000303462
4.36873e-05
0.00034097
6.61593e-05
0.000387666
8.84387e-05
0.000439476
9.41527e-05
0.00010844
0.000513124
0.00021432
-2.28811e-05
0.000231492
-2.74192e-05
0.000248529
-1.59198e-05
0.000268127
7.10158e-07
0.000292922
1.88915e-05
0.000324561
3.45212e-05
0.000364803
4.81961e-05
0.000407369
5.15868e-05
5.50798e-05
0.00046073
0.000211446
-3.43269e-05
0.000215825
-3.17985e-05
0.000218741
-1.88356e-05
0.000225899
-6.44799e-06
0.000240941
3.84976e-06
0.000264203
1.12594e-05
0.000295606
1.67926e-05
0.000329322
1.78711e-05
1.7802e-05
0.0003666
0.000165673
0.000133875
0.000115039
0.000108591
0.000112441
0.0001237
0.000140493
0.000158364
0.000176166
0.000256493
0.000149195
4.73025e-05
0.00020919
0.000514349
0.000167175
7.20469e-05
0.000489605
0.000581148
0.000131391
6.46712e-05
0.000588524
0.000560437
8.40782e-05
4.18146e-05
0.000583293
0.000502914
4.18941e-05
1.72742e-05
0.000527454
0.000396317
1.21766e-05
1.97469e-06
0.000411617
0.000188342
0.000190317
0.000228573
-1.2032e-05
-7.35094e-06
0.000267762
-5.51638e-05
1.59751e-05
0.000302388
-0.000102828
6.82022e-05
0.000325747
-0.000149176
0.000125817
0.000337156
-0.000183133
0.000171724
0.000338817
-0.000197395
0.000195734
0.000333974
-0.000190742
0.000195584
0.000326315
-0.000170414
0.000178072
-0.000134575
0.000142574
0.000474766
2.80654e-06
0.000473052
-5.34499e-05
0.000472381
-0.000102157
0.000465662
-0.000142457
0.000450774
-0.000168244
0.000428992
-0.000175613
0.000403688
-0.000165437
0.000378364
-0.00014509
-0.000113684
0.000584907
6.42369e-06
0.00057639
-4.49329e-05
0.000561478
-8.72449e-05
0.00053832
-0.000119299
0.000507296
-0.000137221
0.000470904
-0.000139221
0.000433245
-0.000127778
0.000397629
-0.000109474
-8.54749e-05
0.000590953
-1.23571e-06
0.000584697
-3.86776e-05
0.000566574
-6.91219e-05
0.000537329
-9.00545e-05
0.000499385
-9.92759e-05
0.00045685
-9.66863e-05
0.00041467
-8.55985e-05
0.000376189
-7.09932e-05
-5.56298e-05
0.0005347
-8.48115e-06
0.000526662
-3.064e-05
0.000504624
-4.70836e-05
0.000470987
-5.64177e-05
0.000429805
-5.80936e-05
0.000386372
-5.32539e-05
0.000345667
-4.4893e-05
0.000310565
-3.58916e-05
-2.90355e-05
0.000411074
-7.93789e-06
0.000395947
-1.55131e-05
0.000368864
-2.00011e-05
0.000333738
-2.12913e-05
0.000295517
-1.98727e-05
0.000259033
-1.677e-05
0.00022748
-1.33401e-05
0.000202076
-1.0488e-05
-9.67707e-06
0.000182379
0.000166866
0.000146865
0.000125574
0.000105701
8.89309e-05
7.55908e-05
6.51028e-05
-5.2443e-06
5.2443e-06
-1.29775e-05
7.73316e-06
-1.78516e-05
4.87411e-06
-1.79807e-05
1.29119e-07
-1.35503e-05
-4.43043e-06
-5.80356e-06
-7.7467e-06
3.5115e-06
-9.31506e-06
1.3346e-05
-9.83445e-06
-9.91306e-06
-8.77081e-06
1.40151e-05
-1.96069e-05
1.85692e-05
-2.44339e-05
9.70115e-06
-2.06072e-05
-3.69763e-06
-8.83788e-06
-1.61997e-05
8.20948e-06
-2.47941e-05
2.73459e-05
-2.84515e-05
4.58003e-05
-2.82889e-05
-2.63748e-05
-1.04395e-05
2.44546e-05
-2.23158e-05
3.04455e-05
-2.6096e-05
1.34814e-05
-1.86626e-05
-1.11311e-05
-1.2981e-06
-3.35642e-05
2.21038e-05
-4.8196e-05
4.77631e-05
-5.41108e-05
7.20725e-05
-5.25983e-05
-4.70859e-05
-1.23728e-05
3.68275e-05
-2.51855e-05
4.32582e-05
-2.78725e-05
1.61684e-05
-1.74251e-05
-2.15785e-05
4.32804e-06
-5.53173e-05
3.30082e-05
-7.68761e-05
6.3791e-05
-8.48935e-05
9.26681e-05
-8.14754e-05
-7.08528e-05
-1.36086e-05
5.04361e-05
-2.48429e-05
5.44924e-05
-2.39787e-05
1.53042e-05
-9.17318e-06
-3.6384e-05
1.68624e-05
-8.13529e-05
4.95614e-05
-0.000109575
8.37142e-05
-0.000119046
0.000115294
-0.000113055
-9.59528e-05
-1.05281e-05
6.09642e-05
-1.25682e-05
5.65325e-05
-2.30636e-06
5.04231e-06
1.94327e-05
-5.81231e-05
4.95429e-05
-0.000111463
8.37452e-05
-0.000143778
0.000117659
-0.00015296
0.000148229
-0.000143626
-0.00011936
4.46007e-06
5.65042e-05
2.38846e-05
3.7108e-05
5.13057e-05
-2.23788e-05
8.20746e-05
-8.8892e-05
0.000114039
-0.000143428
0.000145029
-0.000174767
0.000172878
-0.000180808
0.000196695
-0.000167443
-0.000136556
4.91532e-05
0.000102236
0.00014806
0.000184985
0.000213281
0.000234248
0.000249024
0.000259653
)
;

boundaryField
{
    inlet
    {
        type            calculated;
        value           uniform -0.0002;
    }
    outlet
    {
        type            calculated;
        value           nonuniform List<scalar> 
15
(
2.3259e-05
6.22621e-05
9.27836e-05
0.000116435
0.000140394
0.000171636
0.000213891
0.000265671
0.000318317
0.000357473
0.00036942
0.000346344
0.000283971
0.000182718
5.54257e-05
)
;
    }
    fixedWalls
    {
        type            calculated;
        value           uniform 0;
    }
    frontAndBack
    {
        type            empty;
    }
}


// ************************************************************************* //
