/*--------------------------------*- C++ -*----------------------------------*\
| =========                 |                                                 |
| \\      /  F ield         | OpenFOAM Extend Project: Open source CFD        |
|  \\    /   O peration     | Version:  1.6-ext                               |
|   \\  /    A nd           | Web:      www.extend-project.de                 |
|    \\/     M anipulation  |                                                 |
\*---------------------------------------------------------------------------*/
FoamFile
{
    version     2.0;
    format      ascii;
    class       volVectorField;
    location    "2.3";
    object      U;
}
// * * * * * * * * * * * * * * * * * * * * * * * * * * * * * * * * * * * * * //

dimensions      [0 1 -1 0 0 0 0];

internalField   nonuniform List<vector> 
284
(
(0.163778 0.0265913 0)
(0.14191 0.0267669 0)
(0.0991449 0.0191337 0)
(0.0671149 0.0120472 0)
(0.0445079 0.00709833 0)
(0.0276873 0.00425402 0)
(0.0145155 0.00267368 0)
(0.00378144 0.00115394 0)
(-0.000515756 -0.00110433 0)
(0.200605 0.0432912 0)
(0.202275 0.0573736 0)
(0.180049 0.0529156 0)
(0.147961 0.0435893 0)
(0.113944 0.0343308 0)
(0.0808255 0.0272978 0)
(0.0495418 0.0221187 0)
(0.0207043 0.0158439 0)
(0.00355444 0.00446401 0)
(0.203104 0.0289223 0)
(0.211201 0.0591171 0)
(0.205149 0.071482 0)
(0.185172 0.0737943 0)
(0.155042 0.0706993 0)
(0.118502 0.0656965 0)
(0.0782427 0.0597163 0)
(0.0364193 0.0484481 0)
(0.00782151 0.021939 0)
(0.201532 0.0221656 0)
(0.207774 0.0563549 0)
(0.208259 0.0799158 0)
(0.1977 0.0944762 0)
(0.175068 0.101939 0)
(0.141669 0.104724 0)
(0.0991895 0.103326 0)
(0.0494758 0.090688 0)
(0.0118298 0.0474752 0)
(0.200574 0.0186739 0)
(0.204167 0.0530796 0)
(0.206212 0.0830103 0)
(0.201213 0.107763 0)
(0.185549 0.126902 0)
(0.157826 0.14099 0)
(0.117307 0.149129 0)
(0.0632402 0.140262 0)
(0.0171103 0.0813583 0)
(0.200243 0.0169323 0)
(0.202565 0.0503405 0)
(0.205287 0.0834641 0)
(0.20423 0.115665 0)
(0.195084 0.14557 0)
(0.174637 0.172522 0)
(0.139448 0.194664 0)
(0.0839586 0.196942 0)
(0.0269495 0.126344 0)
(0.200223 0.0157161 0)
(0.202646 0.0474287 0)
(0.206905 0.0814653 0)
(0.210117 0.118287 0)
(0.20835 0.156799 0)
(0.197884 0.196168 0)
(0.173925 0.2346 0)
(0.121209 0.253913 0)
(0.0473736 0.196846 0)
(0.200346 0.0142423 0)
(0.2038 0.0431826 0)
(0.210737 0.0760161 0)
(0.219305 0.114447 0)
(0.226442 0.158416 0)
(0.229028 0.208438 0)
(0.220329 0.270769 0)
(0.194217 0.338384 0)
(0.0599171 0.285649 0)
(0.200543 0.012056 0)
(0.205607 0.0366889 0)
(0.216002 0.0661032 0)
(0.23079 0.102695 0)
(0.248478 0.146788 0)
(0.271367 0.198321 0)
(0.297554 0.263109 0)
(0.354816 0.343095 0)
(0.397179 0.424271 0)
(0.200832 0.00884287 0)
(0.207979 0.0274422 0)
(0.221959 0.0515297 0)
(0.241965 0.083309 0)
(0.267222 0.122297 0)
(0.301604 0.166053 0)
(0.342605 0.216123 0)
(0.408868 0.25473 0)
(0.489304 0.329781 0)
(0.201379 0.00425137 0)
(0.211446 0.0151382 0)
(0.228782 0.0329768 0)
(0.251832 0.058766 0)
(0.280207 0.0907558 0)
(0.316592 0.124527 0)
(0.361028 0.160995 0)
(0.417444 0.174323 0)
(0.496137 0.221311 0)
(0.202434 -0.0030256 0)
(0.216644 -0.000815686 0)
(0.236403 0.011595 0)
(0.259611 0.0322835 0)
(0.287142 0.0580718 0)
(0.320773 0.0837935 0)
(0.363034 0.110327 0)
(0.410751 0.116919 0)
(0.473378 0.137758 0)
(0.2042 -0.0142322 0)
(0.222321 -0.0192154 0)
(0.239673 -0.00921478 0)
(0.257483 0.0084263 0)
(0.279375 0.0290373 0)
(0.307132 0.0481639 0)
(0.343622 0.0660219 0)
(0.384383 0.0707072 0)
(0.432542 0.0769821 0)
(0.201743 -0.0354597 0)
(0.214662 -0.0375133 0)
(0.217231 -0.023546 0)
(0.220938 -0.00725326 0)
(0.231809 0.00775301 0)
(0.250838 0.0196292 0)
(0.278899 0.0289061 0)
(0.311455 0.0310292 0)
(0.347664 0.031371 0)
(0.164642 -0.0249548 0)
(0.150901 -0.0224874 0)
(0.123147 -0.0128197 0)
(0.109562 -0.00494533 0)
(0.108904 0.000607722 0)
(0.116925 0.0041334 0)
(0.131534 0.00625526 0)
(0.149131 0.00625229 0)
(0.167604 0.00544267 0)
(0.358212 0.162401 0)
(0.197785 0.0387181 0)
(0.543435 0.166491 0)
(0.505432 0.0657267 0)
(0.572243 0.153479 0)
(0.593497 0.0782618 0)
(0.540109 0.106194 0)
(0.578015 0.054821 0)
(0.483335 0.0594635 0)
(0.519078 0.02751 0)
(0.382998 0.0219105 0)
(0.407022 0.00563787 0)
(0.183513 0.00220582 0)
(0.191139 -0.00221223 0)
(0.21065 -0.0169202 0)
(0.244374 -0.0484103 0)
(0.286891 -0.0951112 0)
(0.319061 -0.144844 0)
(0.336285 -0.183522 0)
(0.34133 -0.20205 0)
(0.336955 -0.198248 0)
(0.33142 -0.178946 0)
(0.317391 -0.14228 0)
(0.48086 -0.0045028 0)
(0.472191 -0.0573461 0)
(0.473944 -0.106032 0)
(0.472976 -0.149133 0)
(0.462066 -0.178965 0)
(0.442392 -0.18992 0)
(0.415753 -0.181516 0)
(0.39247 -0.161071 0)
(0.358908 -0.126744 0)
(0.591033 0.0109957 0)
(0.582614 -0.0452362 0)
(0.571463 -0.0929285 0)
(0.553559 -0.130611 0)
(0.525881 -0.153466 0)
(0.490917 -0.158727 0)
(0.450845 -0.148089 0)
(0.416934 -0.128704 0)
(0.372324 -0.100633 0)
(0.592105 0.00344264 0)
(0.591546 -0.0413079 0)
(0.579352 -0.0782491 0)
(0.555636 -0.105257 0)
(0.520923 -0.119093 0)
(0.479327 -0.118741 0)
(0.434309 -0.107175 0)
(0.396535 -0.0902977 0)
(0.349972 -0.0703539 0)
(0.535536 -0.00620068 0)
(0.534927 -0.0360191 0)
(0.519511 -0.0594526 0)
(0.49097 -0.0743864 0)
(0.452125 -0.0792487 0)
(0.408383 -0.0746849 0)
(0.364439 -0.0641839 0)
(0.328356 -0.0518229 0)
(0.28766 -0.0408599 0)
(0.415024 -0.0112603 0)
(0.407094 -0.024976 0)
(0.385349 -0.033911 0)
(0.353113 -0.0374243 0)
(0.315042 -0.0358804 0)
(0.276608 -0.0308432 0)
(0.241806 -0.0247126 0)
(0.214337 -0.0192093 0)
(0.185889 -0.0166086 0)
(0.188191 -0.00600692 0)
(0.176067 -0.00822539 0)
(0.157703 -0.0087253 0)
(0.136405 -0.00789549 0)
(0.115296 -0.00636298 0)
(0.0967122 -0.00473408 0)
(0.0816554 -0.00349564 0)
(0.0701403 -0.00285035 0)
(0.0575195 -0.00336473 0)
(-0.00217363 0.00215996 0)
(-0.00906094 0.00351134 0)
(-0.0163542 0.00259001 0)
(-0.0189119 0.000838426 0)
(-0.0165287 -0.000944032 0)
(-0.0100862 -0.00234273 0)
(-0.00121618 -0.00307605 0)
(0.00772381 -0.00355785 0)
(0.0212066 -0.00394821 0)
(-0.00391413 0.0090087 0)
(-0.0145933 0.0127035 0)
(-0.0240015 0.00760686 0)
(-0.0245084 -0.000580562 0)
(-0.0162152 -0.00833373 0)
(-0.000995126 -0.0138713 0)
(0.0177375 -0.0164001 0)
(0.0360769 -0.0168699 0)
(0.0591846 -0.0164887 0)
(-0.00481784 0.0189162 0)
(-0.0171694 0.0243309 0)
(-0.0268482 0.0119123 0)
(-0.0249578 -0.00652383 0)
(-0.0119639 -0.023502 0)
(0.00952763 -0.034889 0)
(0.0350183 -0.0396885 0)
(0.0595398 -0.0390309 0)
(0.0890432 -0.0356699 0)
(-0.00594835 0.0304201 0)
(-0.0200512 0.036884 0)
(-0.0297465 0.0153291 0)
(-0.0256699 -0.0153721 0)
(-0.00861629 -0.0431775 0)
(0.0179489 -0.061225 0)
(0.0486308 -0.0682934 0)
(0.0779604 -0.0660068 0)
(0.112227 -0.0582779 0)
(-0.00704053 0.0436934 0)
(-0.0213981 0.049695 0)
(-0.0280805 0.0170806 0)
(-0.0197417 -0.0278721 0)
(0.00198492 -0.0674924 0)
(0.0328629 -0.092623 0)
(0.0671093 -0.101538 0)
(0.0994819 -0.0969167 0)
(0.135924 -0.0833031 0)
(-0.00641876 0.0564104 0)
(-0.0151398 0.0578613 0)
(-0.0109076 0.0127282 0)
(0.00628217 -0.0461324 0)
(0.0337731 -0.0965023 0)
(0.0671078 -0.127487 0)
(0.101536 -0.137079 0)
(0.133309 -0.129321 0)
(0.167196 -0.108621 0)
(0.000800992 0.0695651 0)
(0.00914068 0.0563616 0)
(0.0362839 -0.00296874 0)
(0.0670177 -0.072055 0)
(0.0994673 -0.12866 0)
(0.131274 -0.161829 0)
(0.160168 -0.16985 0)
(0.18554 -0.158289 0)
(0.20992 -0.130284 0)
(0.0354693 0.0336071 0)
(0.0703311 0.0138787 0)
(0.126695 -0.044628 0)
(0.170247 -0.10953 0)
(0.202991 -0.161345 0)
(0.226795 -0.189733 0)
(0.242891 -0.192804 0)
(0.255319 -0.177069 0)
(0.262776 -0.143046 0)
)
;

boundaryField
{
    inlet
    {
        type            fixedValue;
        value           uniform (0.2 0 0);
    }
    outlet
    {
        type            zeroGradient;
    }
    fixedWalls
    {
        type            fixedValue;
        value           uniform (0 0 0);
    }
    frontAndBack
    {
        type            empty;
    }
}


// ************************************************************************* //
