/*--------------------------------*- C++ -*----------------------------------*\
| =========                 |                                                 |
| \\      /  F ield         | OpenFOAM Extend Project: Open source CFD        |
|  \\    /   O peration     | Version:  1.6-ext                               |
|   \\  /    A nd           | Web:      www.extend-project.de                 |
|    \\/     M anipulation  |                                                 |
\*---------------------------------------------------------------------------*/
FoamFile
{
    version     2.0;
    format      ascii;
    class       volScalarField;
    location    "2.3";
    object      p;
}
// * * * * * * * * * * * * * * * * * * * * * * * * * * * * * * * * * * * * * //

dimensions      [0 2 -2 0 0 0 0];

internalField   nonuniform List<scalar> 
70
(
-0.100087
-0.0555207
-0.0164683
0.0176588
0.0393206
0.0502991
0.0541178
-0.0885907
-0.0799908
-0.0728611
-0.0617627
-0.0463126
-0.0297817
-0.0159155
-0.00612403
-0.00167044
-0.0621244
-0.0616488
-0.0574374
-0.0486755
-0.0361106
-0.0228408
-0.012097
-0.00469589
-0.00211988
-0.0296284
-0.0341685
-0.0339395
-0.0296153
-0.0223042
-0.0142538
-0.00779954
-0.00329958
-0.00241486
0.00193619
-0.00736777
-0.0118096
-0.0123752
-0.010338
-0.00724723
-0.00459126
-0.0024774
-0.00258141
0.0227199
0.0110524
0.00350462
-0.000734004
-0.0026159
-0.00306816
-0.00292536
-0.00226231
-0.00259262
0.0339411
0.0208888
0.0112684
0.00467793
0.000512148
-0.00179032
-0.00273643
-0.00257704
-0.00251476
0.0365412
0.0218148
0.0105076
0.00260785
-0.00225058
-0.00462724
-0.00516331
-0.00440766
-0.00316732
)
;

boundaryField
{
    inlet
    {
        type            zeroGradient;
    }
    outlet
    {
        type            totalPressure;
        rho             none;
        psi             none;
        gamma           1;
        p0              uniform 0;
        value           uniform 0;
    }
    fixedWalls
    {
        type            zeroGradient;
    }
    frontAndBack
    {
        type            empty;
    }
    procBoundary1to2
    {
        type            processor;
        value           nonuniform List<scalar> 7(-0.132886 -0.0333594 0.0131602 0.0431267 0.0605378 0.0688797 0.0729621);
    }
    procBoundary1to0
    {
        type            processor;
        value           nonuniform List<scalar> 9(-0.0957032 -0.0783219 -0.0731689 -0.0632675 -0.04851 -0.0319298 -0.0173608 -0.00668478 -0.000886041);
    }
}


// ************************************************************************* //
