/*--------------------------------*- C++ -*----------------------------------*\
| =========                 |                                                 |
| \\      /  F ield         | OpenFOAM Extend Project: Open source CFD        |
|  \\    /   O peration     | Version:  1.6-ext                               |
|   \\  /    A nd           | Web:      www.extend-project.de                 |
|    \\/     M anipulation  |                                                 |
\*---------------------------------------------------------------------------*/
FoamFile
{
    version     2.0;
    format      ascii;
    class       volSymmTensorField;
    location    "0.75";
    object      DSigma;
}
// * * * * * * * * * * * * * * * * * * * * * * * * * * * * * * * * * * * * * //

dimensions      [1 -1 -2 0 0 0 0];

internalField   nonuniform List<symmTensor> 
328
(
(-0.0944014 -0.020367 -2.43623e-24 -0.0334645 1.3341e-20 -0.0511464)
(-0.0954348 -0.0115656 -1.23404e-25 -0.0542341 -1.91144e-25 -0.0598676)
(-0.107097 0.00882408 2.06476e-24 -0.0594642 -9.78681e-25 -0.0666245)
(-0.140122 0.0251682 -7.16098e-24 -0.0497953 2.35404e-20 -0.0759671)
(-0.0871733 -0.0142349 -1.39369e-23 -0.0193505 -1.72886e-20 -0.0426095)
(-0.0956878 -0.00907219 -8.02231e-24 -0.0387597 -4.56775e-24 -0.053779)
(-0.107264 0.00791817 -1.92514e-24 -0.0405267 9.12503e-25 -0.0591165)
(-0.13117 0.0173255 4.23921e-24 -0.0305635 -4.28114e-20 -0.0646936)
(-0.0850025 -0.00900001 1.8639e-23 -0.0108869 -1.46745e-20 -0.0383558)
(-0.100765 -0.00660696 7.14227e-24 -0.029595 3.82915e-24 -0.0521439)
(-0.113211 0.00655309 0 -0.0298053 0 -0.0572064)
(-0.129028 0.0109089 -2.80985e-24 -0.0193686 4.26414e-20 -0.0593587)
(-0.0825815 -0.0051639 -4.66895e-24 -0.00496002 6.29078e-21 -0.0350166)
(-0.102207 -0.0042465 3.69034e-23 -0.0209816 1.3702e-23 -0.0492755)
(-0.114601 0.00487144 3.36279e-23 -0.0199319 -1.07536e-23 -0.0538133)
(-0.126116 0.00634402 7.41801e-24 -0.0116569 -1.25684e-20 -0.055109)
(-0.0816306 -0.00257614 -2.90472e-24 -0.00145744 1.38198e-20 -0.0332352)
(-0.103871 -0.00228927 5.41015e-23 -0.0150235 1.04739e-23 -0.0475579)
(-0.116279 0.00327632 -3.57066e-23 -0.0133301 1.34082e-23 -0.0518435)
(-0.124939 0.00334436 8.81116e-25 -0.00721933 -3.7561e-21 -0.0528633)
(-0.0811851 -0.000900387 1.16317e-22 0.00065648 1.0566e-20 -0.0322114)
(-0.104367 -0.000771245 -9.05863e-23 -0.0103679 -2.45968e-23 -0.0458941)
(-0.116575 0.00194931 0 -0.00824544 0 -0.0499283)
(-0.124195 0.00145113 -1.24703e-22 -0.00459701 -4.91062e-21 -0.0515168)
(-0.0813291 0.000105491 1.32311e-22 0.00177737 -5.11762e-21 -0.0318207)
(-0.104561 0.000285595 -1.06244e-22 -0.00715428 -1.38954e-23 -0.044686)
(-0.116566 0.000977783 2.55931e-24 -0.00480476 -7.33181e-24 -0.0485483)
(-0.124061 0.000341913 1.3509e-22 -0.00323845 8.83643e-21 -0.0509198)
(-0.0817794 0.000651888 -2.04453e-22 0.00230767 -5.03851e-21 -0.0317887)
(-0.104326 0.000948122 7.91591e-23 -0.00491666 1.58458e-23 -0.043697)
(-0.116094 0.000348164 3.34555e-23 -0.00243082 -4.34269e-24 -0.0474099)
(-0.124198 -0.000247068 2.22326e-24 -0.00260144 -6.26852e-21 -0.0507199)
(-0.0824348 0.000889682 2.45297e-22 0.00246957 -6.66294e-21 -0.0319861)
(-0.103926 0.00129329 -3.05917e-22 -0.00348859 3.31361e-24 -0.0429659)
(-0.115467 9.73538e-06 3.0532e-22 -0.000932155 -8.57747e-23 -0.0465596)
(-0.124512 -0.000497201 4.81222e-23 -0.00239647 -1.1885e-20 -0.0507634)
(-0.0831672 0.000935956 -2.2053e-22 0.00242849 8.24518e-21 -0.0322955)
(-0.103419 0.00141258 2.07282e-22 -0.00262342 7.33285e-25 -0.0424168)
(-0.114738 -0.000112149 -2.83561e-22 -3.06813e-05 9.04106e-23 -0.0459076)
(-0.124863 -0.000542948 4.80912e-22 -0.00241617 1.63816e-20 -0.0509116)
(-0.0839027 0.000873673 -3.95236e-22 0.00228401 -9.26587e-22 -0.0326475)
(-0.102905 0.00138667 7.91132e-23 -0.00215892 2.05241e-24 -0.0420257)
(-0.114017 -9.02576e-05 0 0.00044638 0 -0.0454282)
(-0.125175 -0.000475874 5.99401e-23 -0.00254128 9.89596e-22 -0.0510866)
(-0.0845875 0.000761506 3.81393e-22 0.00210092 -2.24649e-21 -0.0329946)
(-0.102428 0.00128313 6.8949e-22 -0.00194887 -1.14863e-22 -0.0417509)
(-0.11334 1.20439e-05 0 0.000653794 0 -0.0450745)
(-0.12539 -0.000358576 -4.2623e-22 -0.00269739 -1.38633e-20 -0.0512351)
(-0.0851954 0.000637268 8.08832e-23 0.00191603 -5.68514e-21 -0.0333118)
(-0.102019 0.00115098 -6.19084e-22 -0.00189027 8.38259e-23 -0.0415636)
(-0.112737 0.000147299 8.273e-22 0.000698058 -2.86293e-22 -0.0448154)
(-0.125479 -0.000230272 -3.93342e-24 -0.00284406 5.86008e-21 -0.0513291)
(-0.0857183 0.000523267 -5.13512e-24 0.00174863 6.86011e-21 -0.0335879)
(-0.101683 0.0010223 -2.17137e-22 -0.00190768 6.18578e-23 -0.0414362)
(-0.112208 0.000283761 -1.38323e-21 0.000657092 4.77642e-22 -0.0446203)
(-0.125427 -0.000113562 1.12316e-21 -0.00296076 -1.1059e-21 -0.0513551)
(-0.0861615 0.00043004 1.7449e-22 0.00160573 -4.30469e-21 -0.0338223)
(-0.101416 0.000914297 0 -0.00195324 0 -0.0413476)
(-0.111744 0.000403586 6.5561e-22 0.000580035 -2.17177e-22 -0.0444658)
(-0.125236 -1.89703e-05 -7.68429e-22 -0.00304028 4.712e-21 -0.0513104)
(-0.0865379 0.000360209 -4.22837e-22 0.00148697 6.94658e-21 -0.0340204)
(-0.101203 0.000833162 4.16634e-22 -0.00199884 -1.09796e-22 -0.0412807)
(-0.111328 0.00049924 5.32952e-22 0.000495882 -2.29834e-22 -0.0443327)
(-0.124911 5.08336e-05 -8.23315e-22 -0.00308304 -5.93182e-21 -0.0511978)
(-0.0868631 0.000311518 6.89846e-23 0.00138789 -8.18048e-21 -0.0341901)
(-0.101026 0.000777702 -4.32852e-22 -0.00203113 1.37339e-22 -0.041223)
(-0.110935 0.000569898 0 0.000418551 0 -0.0442067)
(-0.124464 9.77707e-05 3.47385e-24 -0.00309353 -3.48296e-21 -0.051023)
(-0.0871514 0.000279358 -4.76124e-24 0.00130254 4.36277e-21 -0.0343395)
(-0.100867 0.000742673 -1.00602e-21 -0.00204593 4.21113e-22 -0.0411653)
(-0.110545 0.000618205 0 0.000352496 0 -0.044077)
(-0.123902 0.000125833 -5.68831e-24 -0.00307782 5.22295e-21 -0.0507918)
(-0.0874137 0.000258495 -1.80975e-21 0.00122509 4.83289e-22 -0.0344755)
(-0.100708 0.000721316 -1.13285e-21 -0.00204419 5.73367e-22 -0.0411009)
(-0.110137 0.000648006 -2.3298e-21 0.000296975 1.15845e-21 -0.0439359)
(-0.123231 0.000139418 -3.21569e-24 -0.00304187 2.71391e-21 -0.0505091)
(-0.0876564 0.000244209 1.68484e-21 0.00115074 1.52241e-21 -0.0346023)
(-0.100533 0.000707056 1.93086e-21 -0.00202903 -9.00708e-22 -0.0410248)
(-0.109692 0.000662889 3.37556e-21 0.000248902 -1.71724e-21 -0.0437773)
(-0.122455 0.000142348 -1.2051e-21 -0.00299084 1.9992e-21 -0.0501783)
(-0.0878796 0.0002328 -8.37928e-22 0.00107628 -5.04798e-21 -0.0347213)
(-0.100327 0.000694559 0 -0.00200368 0 -0.0409324)
(-0.109196 0.000665762 -2.44078e-21 0.000205138 1.40106e-21 -0.0435964)
(-0.121574 0.000137596 -1.35973e-21 -0.00292868 8.47214e-22 -0.0498009)
(-0.0880814 0.000221548 2.07964e-21 0.000998784 2.27768e-21 -0.034833)
(-0.100079 0.000679729 -2.12545e-21 -0.00197167 1.26635e-21 -0.0408204)
(-0.108636 0.000658384 3.40295e-21 0.000162518 -1.9759e-21 -0.0433894)
(-0.120584 0.000126971 -1.38849e-21 -0.00285804 2.87785e-21 -0.0493769)
(-0.0882524 0.000206973 -3.35695e-21 0.000917775 1.41797e-21 -0.0349339)
(-0.0997619 0.000656285 2.14746e-21 -0.00193136 -1.3844e-21 -0.0406773)
(-0.107974 0.000638301 -4.52117e-21 0.000118463 2.96325e-21 -0.0431421)
(-0.119442 0.000109624 3.26377e-24 -0.00277924 -2.02566e-21 -0.0488886)
(-0.0883762 0.000194942 -6.16032e-24 0.000833129 3.55586e-21 -0.0350172)
(-0.099373 0.000636815 0 -0.00188806 0 -0.0405044)
(-0.10722 0.000620134 2.37365e-21 7.13978e-05 -1.57881e-21 -0.0428593)
(-0.118178 9.31327e-05 -2.87441e-21 -0.00269714 4.2447e-21 -0.0483502)
(-0.0884407 0.000182589 2.00163e-21 0.000749139 -6.66664e-21 -0.0350766)
(-0.0989306 0.000615374 0 -0.00184459 0 -0.0403101)
(-0.106416 0.000599104 -2.82752e-21 2.61146e-05 2.05225e-21 -0.0425561)
(-0.116869 7.5886e-05 5.92616e-21 -0.00261472 -9.09244e-24 -0.0477935)
(-0.0884432 0.000169697 2.83679e-22 0.000666646 6.87112e-21 -0.0351106)
(-0.0984351 0.000591935 -5.15549e-21 -0.00180181 4.37312e-21 -0.0400948)
(-0.105566 0.000575873 0 -1.85551e-05 0 -0.0422338)
(-0.115521 5.82818e-05 -3.30366e-21 -0.00253385 3.41254e-21 -0.0472218)
(-0.0883824 0.000156586 -8.55535e-25 0.000585988 4.15911e-22 -0.0351186)
(-0.0978857 0.000567141 2.69918e-21 -0.00175966 -2.29285e-21 -0.0398582)
(-0.104669 0.000551266 3.20617e-21 -6.23844e-05 -2.73706e-21 -0.0418924)
(-0.114135 4.06902e-05 3.30935e-21 -0.00245471 -6.14271e-21 -0.0466357)
(-0.088257 0.000143424 2.74552e-21 0.000507325 -3.13267e-21 -0.0350999)
(-0.0972827 0.000541361 -3.07833e-21 -0.00171834 2.93786e-21 -0.0396004)
(-0.103725 0.000525736 2.03754e-22 -0.000105324 -3.28903e-22 -0.041532)
(-0.112713 2.33189e-05 2.83769e-24 -0.00237745 -1.31878e-21 -0.0460362)
(-0.0880663 0.000130351 -5.40613e-21 0.00043086 6.54682e-21 -0.0350542)
(-0.0966258 0.000514916 -2.63582e-22 -0.00167787 2.32385e-22 -0.0393215)
(-0.102735 0.000499603 -3.74847e-21 -0.000147213 3.19889e-21 -0.0411531)
(-0.111258 6.25881e-06 7.69763e-21 -0.00230215 -5.0687e-21 -0.0454239)
(-0.0878095 0.000117509 3.09006e-21 0.00035674 -2.66397e-21 -0.0349811)
(-0.0959153 0.000488123 -3.53596e-21 -0.0016383 3.52079e-21 -0.0390214)
(-0.101701 0.000473174 -2.75525e-22 -0.000187965 2.44625e-22 -0.0407557)
(-0.10977 -1.03976e-05 4.25273e-21 -0.0022289 -8.51103e-21 -0.0447995)
(-0.0874863 0.000105067 -3.08689e-21 0.000285101 1.38103e-21 -0.0348805)
(-0.0951514 0.000461359 0 -0.00159965 0 -0.0387004)
(-0.100623 0.00044681 -1.23935e-20 -0.000227499 1.25324e-20 -0.0403401)
(-0.108251 -2.6538e-05 8.1814e-21 -0.00215776 -5.7785e-21 -0.0441635)
(-0.0870967 9.32098e-05 2.0242e-20 0.000215989 -1.25801e-20 -0.0347523)
(-0.0943344 0.000435042 5.62167e-22 -0.00156193 -5.0262e-22 -0.0383585)
(-0.0995007 0.00042091 8.01849e-21 -0.000265778 -8.26922e-21 -0.0399066)
(-0.106702 -4.20317e-05 9.16348e-21 -0.00208878 -4.82909e-21 -0.0435161)
(-0.0866413 8.21146e-05 -6.86e-21 0.000149371 3.4093e-21 -0.0345968)
(-0.0934648 0.000409575 -7.64345e-21 -0.00152516 8.78528e-21 -0.037996)
(-0.0983353 0.00039586 0 -0.00030279 0 -0.0394552)
(-0.105122 -5.6752e-05 -9.14884e-21 -0.00202191 -7.21683e-22 -0.0428577)
(-0.0861209 7.19211e-05 -2.38684e-24 8.51282e-05 9.0183e-22 -0.0344143)
(-0.0925431 0.000385277 8.58846e-21 -0.00148935 -1.0093e-20 -0.037613)
(-0.097127 0.000371965 7.98264e-22 -0.00033856 -2.49884e-22 -0.0389862)
(-0.103513 -7.06034e-05 -1.95671e-20 -0.0019571 1.81753e-20 -0.0421881)
(-0.0855364 6.27118e-05 7.87635e-21 2.30784e-05 -5.04865e-21 -0.0342053)
(-0.0915701 0.000362339 0 -0.00145456 0 -0.0372099)
(-0.0958763 0.000349402 0 -0.000373145 0 -0.0384998)
(-0.101874 -8.35397e-05 -2.09555e-20 -0.00189426 1.45237e-20 -0.0415074)
(-0.0848893 5.45033e-05 6.04001e-22 -3.69994e-05 -5.79552e-21 -0.0339705)
(-0.0905464 0.000340802 8.40432e-22 -0.00142081 -2.28254e-22 -0.0367869)
(-0.0945835 0.000328202 -9.32268e-21 -0.000406633 1.17481e-20 -0.0379961)
(-0.100205 -9.55708e-05 2.13582e-20 -0.0018333 -1.55984e-20 -0.0408155)
(-0.0841807 4.72506e-05 8.80224e-21 -9.5341e-05 -4.57073e-21 -0.0337104)
(-0.0894728 0.000320565 -1.82531e-20 -0.0013882 2.5302e-20 -0.0363444)
(-0.093249 0.000308261 -1.05382e-20 -0.000439136 1.28426e-20 -0.0374753)
(-0.0985063 -0.000106758 1.05231e-20 -0.0017742 -7.3888e-21 -0.0401122)
(-0.0834119 4.08565e-05 -8.86336e-21 -0.000152175 4.91709e-21 -0.0334256)
(-0.0883498 0.000301414 9.42852e-21 -0.0013568 -1.29242e-20 -0.0358827)
(-0.0918732 0.000289358 -1.06543e-20 -0.000470786 1.40336e-20 -0.0369376)
(-0.0967769 -0.000117204 1.15451e-24 -0.00171694 -4.00163e-22 -0.0393975)
(-0.0825835 3.51853e-05 1.80604e-20 -0.000207708 -1.37348e-20 -0.0331165)
(-0.0871784 0.000283049 0 -0.00132676 0 -0.0354021)
(-0.0904568 0.000271198 -3.5571e-22 -0.000501725 8.93834e-22 -0.0363834)
(-0.0950176 -0.000127036 1.1877e-20 -0.0016616 -6.10942e-21 -0.0386717)
(-0.0816965 3.00744e-05 9.51573e-21 -0.000262115 -9.10686e-21 -0.0327834)
(-0.0859589 0.000265118 -2.0565e-20 -0.00129823 3.03174e-20 -0.0349029)
(-0.0890002 0.000253432 2.17451e-20 -0.000532097 -3.01945e-20 -0.0358129)
(-0.093229 -0.0001364 -3.66365e-20 -0.00160831 2.23384e-20 -0.0379349)
(-0.0807511 2.53456e-05 9.83954e-21 -0.000315527 -1.13423e-20 -0.0324266)
(-0.0846922 0.000247242 1.10754e-20 -0.00127138 -1.61835e-20 -0.0343854)
(-0.0875042 0.000235688 -1.10755e-20 -0.000562045 1.61837e-20 -0.0352265)
(-0.0914119 -0.000145444 -3.44405e-22 -0.00155727 -3.1941e-21 -0.0371877)
(-0.0797473 2.08158e-05 -9.83342e-21 -0.000368028 9.41252e-21 -0.0320461)
(-0.0833785 0.000229042 -1.14105e-20 -0.00124642 1.71127e-20 -0.03385)
(-0.0859696 0.0002176 2.37482e-20 -0.000591699 -3.44448e-20 -0.0346245)
(-0.0895677 -0.000154309 -1.29655e-20 -0.00150873 1.34937e-20 -0.0364306)
(-0.078685 1.63096e-05 -2.05985e-20 -0.000419642 1.98634e-20 -0.0316418)
(-0.0820185 0.000210172 1.07977e-20 -0.00122356 -1.78473e-20 -0.0332968)
(-0.0843975 0.000198834 0 -0.000621176 0 -0.0340075)
(-0.0876981 -0.000163121 -8.25106e-26 -0.00146299 2.65546e-23 -0.0356644)
(-0.0775636 1.16748e-05 1.01407e-20 -0.000470334 -1.48498e-20 -0.0312136)
(-0.0806124 0.000190349 0 -0.00120301 0 -0.0327262)
(-0.0827887 0.000179126 0 -0.000650569 0 -0.0333757)
(-0.0858048 -0.000171974 3.35494e-24 -0.00142041 -1.06771e-21 -0.0348901)
(-0.0763825 6.80032e-06 1.04177e-20 -0.000520009 -9.01552e-21 -0.030761)
(-0.0791609 0.000169405 -1.23813e-20 -0.00118497 1.9966e-20 -0.0321383)
(-0.0811445 0.000158321 2.54005e-20 -0.000679952 -4.05172e-20 -0.0327298)
(-0.0838903 -0.000180916 1.39448e-20 -0.00138136 -9.61878e-21 -0.0341086)
(-0.0751411 1.6345e-06 -9.69601e-22 -0.000568524 -1.89653e-21 -0.0302838)
(-0.0776641 0.000147319 1.17221e-20 -0.00116963 -2.07409e-20 -0.0315335)
(-0.0794661 0.000136419 6.40471e-22 -0.000709375 -5.86131e-22 -0.0320702)
(-0.0819566 -0.000189932 -2.75694e-20 -0.0013462 1.9899e-20 -0.0333211)
(-0.0738386 -3.80003e-06 -1.19841e-20 -0.000615705 1.07965e-20 -0.0297817)
(-0.0761228 0.000124256 2.50178e-20 -0.00115711 -4.3636e-20 -0.030912)
(-0.0777545 0.000113603 -2.66359e-20 -0.000738862 4.44153e-20 -0.0313973)
(-0.0800062 -0.000198932 1.89049e-24 -0.00131528 -5.85159e-22 -0.0325286)
(-0.072475 -9.39907e-06 -1.19226e-20 -0.000661375 1.21094e-20 -0.0292545)
(-0.0745373 0.000100581 0 -0.0011475 0 -0.0302739)
(-0.0760109 9.02565e-05 -2.99009e-22 -0.000768419 9.85748e-22 -0.0307117)
(-0.0780411 -0.000207747 -3.62101e-24 -0.00128887 1.11235e-21 -0.031732)
(-0.0710502 -1.49803e-05 2.41186e-20 -0.000705378 -2.34184e-20 -0.0287022)
(-0.0729086 7.68472e-05 0 -0.00114081 0 -0.0296198)
(-0.0742365 6.69478e-05 1.39366e-20 -0.00079803 -2.34875e-20 -0.0300138)
(-0.0760629 -0.000216133 1.51776e-20 -0.00126712 -1.25165e-20 -0.030932)
(-0.0695652 -2.02992e-05 -2.50334e-20 -0.000747614 2.40108e-20 -0.0281251)
(-0.0712374 5.37517e-05 -6.38339e-22 -0.00113699 5.90094e-22 -0.0289497)
(-0.0724321 4.43887e-05 1.48686e-20 -0.000827663 -2.50688e-20 -0.0293039)
(-0.0740726 -0.000223791 -2.96486e-20 -0.00125005 2.44838e-20 -0.0301291)
(-0.0680215 -2.50764e-05 -1.31077e-20 -0.000788056 1.27812e-20 -0.0275238)
(-0.0695249 3.20666e-05 1.25124e-20 -0.0011359 -2.51248e-20 -0.0282643)
(-0.0705986 2.3363e-05 1.41539e-20 -0.000857272 -2.58884e-20 -0.0285824)
(-0.0720706 -0.000230399 3.15759e-20 -0.0012375 -2.74797e-20 -0.0293232)
(-0.0664215 -2.90336e-05 -1.33716e-20 -0.000826763 1.29042e-20 -0.0268993)
(-0.0677725 1.2548e-05 -1.00782e-21 -0.00113733 1.68949e-22 -0.0275639)
(-0.0687366 4.63466e-06 2.94872e-20 -0.000886799 -5.43795e-20 -0.0278494)
(-0.0700566 -0.000235645 -1.33411e-24 -0.00122914 4.00373e-22 -0.0285143)
(-0.0647683 -3.19321e-05 1.26198e-20 -0.000863867 -1.52582e-20 -0.0262529)
(-0.0659816 -4.16179e-06 1.46902e-20 -0.00114099 -2.79056e-20 -0.026849)
(-0.0668466 -1.11503e-05 -2.97518e-20 -0.000916168 5.53902e-20 -0.0271051)
(-0.0680294 -0.000239271 1.6288e-20 -0.00122448 -1.57108e-20 -0.0277015)
(-0.0630656 -3.36075e-05 -1.28678e-20 -0.000899562 1.58036e-20 -0.025586)
(-0.0641541 -1.76227e-05 0 -0.00114655 0 -0.0261202)
(-0.0649289 -2.35533e-05 0 -0.00094529 0 -0.0263497)
(-0.0659875 -0.000241114 6.31654e-22 -0.00122289 5.4455e-22 -0.0268842)
(-0.0613173 -3.39955e-05 4.25181e-24 -0.000934063 -1.26018e-21 -0.0249005)
(-0.0622915 -2.76618e-05 -1.51973e-20 -0.0011536 2.99378e-20 -0.0253781)
(-0.0629839 -3.24082e-05 3.14088e-20 -0.000974054 -6.00328e-20 -0.0255832)
(-0.0639291 -0.000241127 6.30465e-22 -0.00122364 -9.48667e-22 -0.0260611)
(-0.0595275 -3.31427e-05 -1.39671e-20 -0.000967571 1.55567e-20 -0.024198)
(-0.0603959 -3.44018e-05 1.50465e-20 -0.00116175 -3.13962e-20 -0.024623)
(-0.0610119 -3.7851e-05 -1.64567e-20 -0.00100233 3.11104e-20 -0.0248057)
(-0.0618521 -0.000239396 -3.84668e-22 -0.00122597 -2.37113e-22 -0.0252312)
(-0.0576999 -3.12013e-05 1.39712e-20 -0.00100022 -1.68077e-20 -0.0234801)
(-0.0584688 -3.82493e-05 6.27698e-22 -0.00117056 -5.85768e-22 -0.0238557)
(-0.0590132 -4.03078e-05 -1.56743e-20 -0.00102995 3.19821e-20 -0.0240173)
(-0.0597549 -0.000236131 -1.7262e-20 -0.00122916 1.62755e-20 -0.0243936)
(-0.055838 -2.84073e-05 -1.37893e-20 -0.00103207 1.73119e-20 -0.022748)
(-0.0565119 -3.98415e-05 0 -0.00117963 0 -0.0230766)
(-0.0569883 -4.04419e-05 1.6923e-20 -0.00105673 -3.3149e-20 -0.023218)
(-0.0576363 -0.000231652 1.82797e-20 -0.00123254 -1.61258e-20 -0.0235475)
(-0.0539442 -2.50473e-05 1.40023e-20 -0.00106303 -1.78319e-20 -0.0220029)
(-0.0545266 -3.99635e-05 1.57119e-20 -0.00118858 -3.44847e-20 -0.0222861)
(-0.0549379 -3.90701e-05 -1.7144e-20 -0.00108245 3.41715e-20 -0.0224081)
(-0.0554958 -0.000226347 -1.87233e-20 -0.00123557 1.76037e-20 -0.0226925)
(-0.0520205 -2.14181e-05 -1.42037e-20 -0.00109292 1.71338e-20 -0.0212454)
(-0.0525142 -3.94467e-05 6.1913e-22 -0.00119707 -5.80981e-22 -0.0214845)
(-0.0528627 -3.70611e-05 -1.63311e-20 -0.00110688 3.50657e-20 -0.0215878)
(-0.0533335 -0.000220631 3.56114e-20 -0.00123786 -3.51467e-20 -0.0218285)
(-0.0500678 -1.77863e-05 -1.54401e-20 -0.00112144 1.8022e-20 -0.0204757)
(-0.0504758 -3.9067e-05 1.55015e-20 -0.00120482 -3.59737e-20 -0.0206722)
(-0.0507638 -3.52326e-05 -1.71464e-20 -0.00112976 3.6674e-20 -0.0207574)
(-0.0511505 -0.000214906 -1.79094e-20 -0.00123917 1.78407e-20 -0.0209559)
(-0.0480865 -1.43555e-05 -1.56352e-20 -0.00114819 1.95318e-20 -0.0196939)
(-0.048412 -3.94583e-05 -1.03368e-21 -0.00121161 1.17989e-22 -0.0198494)
(-0.0486422 -3.4263e-05 5.16319e-20 -0.00115084 -1.11052e-19 -0.0199172)
(-0.0489483 -0.000209519 6.05535e-22 -0.00123939 -2.70583e-22 -0.0200751)
(-0.0460764 -1.12433e-05 -3.05909e-20 -0.00117276 3.78884e-20 -0.0188997)
(-0.0463237 -4.10521e-05 1.58805e-20 -0.00121725 -3.80508e-20 -0.0190164)
(-0.0464993 -3.46297e-05 1.75202e-20 -0.00116989 -3.87355e-20 -0.0190677)
(-0.0467291 -0.000204739 1.90839e-20 -0.00123854 -1.92551e-20 -0.0191871)
(-0.044037 -8.47307e-06 8.09903e-26 -0.00119472 -2.36306e-23 -0.0180927)
(-0.0442114 -4.40502e-05 3.3755e-20 -0.00122166 -7.88605e-20 -0.0181732)
(-0.0443362 -3.65803e-05 -5.27363e-20 -0.00118668 1.17238e-19 -0.0182092)
(-0.0444953 -0.000200739 1.82281e-20 -0.00123671 -2.00754e-20 -0.0182928)
(-0.0419676 -5.97789e-06 1.69058e-26 -0.0012137 -4.92918e-24 -0.0172725)
(-0.0420757 -4.8429e-05 -3.34888e-20 -0.00122479 8.03634e-20 -0.0173202)
(-0.0421543 -4.01351e-05 -1.82929e-20 -0.00120106 4.03342e-20 -0.0173422)
(-0.0422491 -0.000197597 1.83877e-20 -0.00123407 -2.06507e-20 -0.0173933)
(-0.0398678 -3.61504e-06 -1.52828e-20 -0.0012294 2.23754e-20 -0.0164389)
(-0.039917 -5.39694e-05 -1.56752e-22 -0.00122664 1.03787e-21 -0.0164575)
(-0.0399549 -4.51159e-05 0 -0.00121292 0 -0.0164671)
(-0.039993 -0.000195306 1.55261e-22 -0.00123082 -5.18128e-22 -0.0164895)
(-0.0377371 -1.18678e-06 5.91871e-27 -0.00124166 -1.72389e-24 -0.0155915)
(-0.037736 -6.03034e-05 -5.92804e-22 -0.00122728 5.64e-22 -0.0155853)
(-0.0377389 -5.11904e-05 -5.88477e-22 -0.00122222 5.61035e-22 -0.0155844)
(-0.0377288 -0.000193791 -1.89721e-20 -0.00122716 2.09303e-20 -0.0155824)
(-0.0355757 1.53735e-06 1.61574e-20 -0.00125042 -2.18633e-20 -0.0147305)
(-0.0355333 -6.69663e-05 1.77205e-20 -0.00122683 -4.33373e-20 -0.014704)
(-0.0355075 -5.79244e-05 4.44598e-22 -0.00122903 4.73825e-22 -0.0146946)
(-0.0354581 -0.000192924 3.92422e-27 -0.00122332 -1.1422e-24 -0.0146726)
(-0.0333841 4.79817e-06 -4.81528e-20 -0.0012558 6.79685e-20 -0.013856)
(-0.0333095 -7.34479e-05 0 -0.00122544 0 -0.013814)
(-0.0332614 -6.48314e-05 0 -0.00123347 0 -0.013798)
(-0.0331821 -0.000192548 2.96193e-26 -0.00121952 -8.61759e-24 -0.0137606)
(-0.031163 8.83015e-06 1.62866e-20 -0.00125801 -2.23603e-20 -0.0129684)
(-0.0310656 -7.92365e-05 0 -0.00122335 0 -0.0129156)
(-0.0310016 -7.14182e-05 1.90116e-20 -0.00123579 -4.54786e-20 -0.012895)
(-0.0309013 -0.000192493 1.02293e-21 -0.00121596 6.09441e-22 -0.0128469)
(-0.0289139 1.38449e-05 -2.76431e-24 -0.00125743 8.04184e-22 -0.0120685)
(-0.0288025 -8.38555e-05 0 -0.0012208 0 -0.0120093)
(-0.0287286 -7.72204e-05 0 -0.00123633 0 -0.011986)
(-0.0286161 -0.000192588 2.04339e-26 -0.00121289 -5.94131e-24 -0.0119316)
(-0.0266384 2.00258e-05 -1.7089e-20 -0.00125458 2.29271e-20 -0.0111572)
(-0.026521 -8.68875e-05 3.49152e-20 -0.00121815 -9.53728e-20 -0.0110957)
(-0.026443 -8.18351e-05 0 -0.00123553 0 -0.0110714)
(-0.0263262 -0.000192679 -2.01772e-20 -0.00121057 2.31475e-20 -0.0110147)
(-0.0243384 2.7522e-05 -5.65096e-22 -0.00125004 3.39172e-22 -0.0102354)
(-0.0242224 -8.79903e-05 -1.77421e-20 -0.00121573 4.79606e-20 -0.0101752)
(-0.0241452 -8.4941e-05 -1.88687e-20 -0.0012339 4.90479e-20 -0.0101516)
(-0.0240311 -0.000192635 -2.02744e-20 -0.00120926 2.36928e-20 -0.0100962)
(-0.0220165 3.64579e-05 1.67181e-20 -0.00124468 -2.51334e-20 -0.00930447)
(-0.0219078 -8.68872e-05 4.74735e-22 -0.00121417 4.93109e-22 -0.0092488)
(-0.0218357 -8.63317e-05 4.70369e-22 -0.00123221 4.90289e-22 -0.00922717)
(-0.0217306 -0.000192374 2.03625e-20 -0.0012094 -2.42208e-20 -0.00917598)
(-0.0196748 4.69619e-05 -1.68762e-20 -0.00123918 2.54927e-20 -0.00836558)
(-0.0195779 -8.33596e-05 3.64034e-20 -0.00121376 -1.00601e-19 -0.00831667)
(-0.0195144 -8.59247e-05 -3.75112e-20 -0.00123096 1.01676e-19 -0.00829814)
(-0.0194232 -0.000191883 -2.04416e-20 -0.00121124 2.47549e-20 -0.00825377)
(-0.0173174 5.92231e-05 1.68781e-20 -0.00123527 -2.60264e-20 -0.00742106)
(-0.0172352 -7.71148e-05 -1.85522e-20 -0.00121621 5.16017e-20 -0.00738055)
(-0.0171828 -8.38757e-05 3.75836e-20 -0.00123208 -1.02707e-19 -0.00736596)
(-0.0171097 -0.000191285 -6.9653e-26 -0.00121602 2.02326e-23 -0.00733028)
(-0.0149447 7.35782e-05 -1.69997e-20 -0.00123313 2.65112e-20 -0.00647113)
(-0.0148763 -6.78574e-05 -1.81273e-20 -0.00122048 5.3135e-20 -0.00643871)
(-0.0148366 -8.04498e-05 1.96426e-20 -0.00123477 -5.26634e-20 -0.00642856)
(-0.0147865 -0.000190855 2.1111e-20 -0.00122344 -2.61516e-20 -0.00640397)
(-0.0125694 9.09305e-05 4.91735e-22 -0.00123843 6.62978e-22 -0.00552313)
(-0.0125113 -5.47029e-05 5.49732e-20 -0.00123375 -1.60968e-19 -0.00549801)
(-0.0124849 -7.66172e-05 -1.86693e-20 -0.0012464 5.36642e-20 -0.00549253)
(-0.0124624 -0.000191432 -2.00885e-20 -0.00123859 2.61523e-20 -0.00548038)
(-0.0101762 0.000110994 3.46729e-20 -0.00124746 -5.48726e-20 -0.00456945)
(-0.0101115 -3.83978e-05 -3.58577e-20 -0.00124267 1.08846e-19 -0.00454166)
(-0.010098 -7.21236e-05 0 -0.00125344 0 -0.00454056)
(-0.0101174 -0.000192861 -2.0669e-20 -0.0012559 2.73346e-20 -0.00454932)
(-0.00783052 0.000133718 -3.47064e-20 -0.00128191 5.53894e-20 -0.00364497)
(-0.00774733 -1.97248e-05 -1.03269e-21 -0.00127958 1.1652e-23 -0.00361076)
(-0.00774515 -6.77537e-05 -2.0304e-20 -0.00128834 5.62577e-20 -0.0036134)
(-0.00781244 -0.00019558 2.01772e-20 -0.0012967 -2.72891e-20 -0.00364366)
(-0.00537107 0.000133793 -3.37446e-20 -0.00127215 5.74286e-20 -0.00265729)
(-0.00523516 -1.28403e-05 -1.8268e-20 -0.00120953 5.72718e-20 -0.00257787)
(-0.00524305 -4.93674e-05 1.9277e-20 -0.00121648 -5.62461e-20 -0.00258381)
(-0.00538666 -0.000172301 2.02044e-20 -0.00129362 -2.80934e-20 -0.00267211)
(-0.00322237 8.33356e-05 9.09306e-21 -0.0012182 -2.82048e-20 -0.00177623)
(-0.00314361 -9.65211e-06 9.52311e-21 -0.00115654 -5.73058e-20 -0.00172006)
(-0.00315646 -2.96503e-05 -9.48641e-21 -0.0011617 5.78208e-20 -0.00172727)
(-0.00325615 -0.000104163 -1.04012e-20 -0.00123479 2.85497e-20 -0.00179638)
)
;

boundaryField
{
    plateFix
    {
        type            calculated;
        value           nonuniform List<symmTensor> 4((-0.0955817 -0.0262365 -1.02088e-24 -0.0342532 1.3341e-20 -0.051934) (-0.0899967 -0.0127209 -1.23223e-25 -0.0506087 -1.91374e-25 -0.0562421) (-0.100334 0.00847721 2.06476e-24 -0.0549554 -9.78681e-25 -0.0621156) (-0.140985 0.0322413 -4.80934e-24 -0.0503667 2.35433e-20 -0.0765406));
    }
    plate
    {
        type            calculated;
        value           nonuniform List<symmTensor> 
168
(
(-0.0727409 -1.40745e-05 -5.07155e-24 -0.000954323 2.70764e-20 -0.0294781)
(-0.107561 -3.15075e-05 -1.41985e-23 -0.000991749 4.6675e-20 -0.0434212)
(-0.0749165 -1.28866e-05 -1.09288e-23 -0.000952783 -3.44582e-20 -0.0303477)
(-0.11144 -2.77328e-05 1.12166e-23 -0.000990145 -8.55544e-20 -0.044972)
(-0.0783841 -1.17729e-05 2.11782e-23 -0.000951681 -2.96836e-20 -0.0317343)
(-0.116767 -2.40885e-05 -1.01908e-23 -0.000988785 8.57587e-20 -0.0471022)
(-0.0799117 -1.1831e-05 -5.75417e-24 -0.000950708 1.22897e-20 -0.032345)
(-0.118998 -2.2494e-05 1.02918e-23 -0.000987423 -2.56985e-20 -0.0479942)
(-0.081294 -1.39017e-05 -5.85289e-24 -0.000949901 2.78463e-20 -0.0328976)
(-0.120781 -2.46014e-05 1.57209e-24 -0.000986175 -6.70165e-21 -0.0487069)
(-0.0822563 -1.69727e-05 1.13935e-22 -0.000949242 2.13716e-20 -0.0332822)
(-0.121786 -2.85861e-05 -1.22726e-22 -0.000985037 -1.03677e-20 -0.0491083)
(-0.0831464 -2.08434e-05 1.33853e-22 -0.000948728 -1.03059e-20 -0.033638)
(-0.122558 -3.40375e-05 1.32421e-22 -0.000984013 1.79702e-20 -0.0494167)
(-0.0839493 -2.52415e-05 -2.02599e-22 -0.000948317 -1.03356e-20 -0.033959)
(-0.12312 -4.03823e-05 4.56399e-24 -0.000983099 -1.28683e-20 -0.0496411)
(-0.0847119 -3.00937e-05 2.48637e-22 -0.000947981 -1.35488e-20 -0.034264)
(-0.12357 -4.74109e-05 5.30253e-23 -0.000982297 -2.38673e-20 -0.0498208)
(-0.0854164 -3.53441e-05 -2.24513e-22 -0.000947702 1.67528e-20 -0.0345457)
(-0.123907 -5.49673e-05 4.72674e-22 -0.000981602 3.33991e-20 -0.0499556)
(-0.0860555 -4.0984e-05 -3.94804e-22 -0.000947486 -1.73692e-21 -0.0348012)
(-0.124136 -6.29884e-05 5.94684e-23 -0.000981005 1.87607e-21 -0.0500467)
(-0.0866181 -4.70104e-05 3.82738e-22 -0.000947356 -4.48357e-21 -0.0350262)
(-0.124246 -7.14282e-05 -4.1767e-22 -0.000980487 -2.81382e-20 -0.0500907)
(-0.0871028 -5.34343e-05 8.42182e-23 -0.000947346 -1.15467e-20 -0.0352201)
(-0.124236 -8.02604e-05 -7.96255e-24 -0.000980026 1.18628e-20 -0.0500865)
(-0.0875143 -6.02698e-05 -1.03581e-23 -0.000947502 1.38377e-20 -0.0353847)
(-0.124106 -8.94588e-05 1.12356e-21 -0.000979587 -1.69959e-21 -0.0500343)
(-0.0878626 -6.75373e-05 1.77277e-22 -0.000947875 -8.59151e-21 -0.0355242)
(-0.123861 -9.90015e-05 -7.72044e-22 -0.000979133 9.08832e-21 -0.0499362)
(-0.0881603 -7.52575e-05 -4.29008e-22 -0.000948514 1.37144e-20 -0.0356435)
(-0.123508 -0.000108863 -8.1771e-22 -0.000978624 -1.2342e-20 -0.0497947)
(-0.08842 -8.34521e-05 7.8106e-23 -0.000949462 -1.6252e-20 -0.0357478)
(-0.123053 -0.000119019 6.84115e-24 -0.000978026 -6.85909e-21 -0.0496123)
(-0.0886522 -9.21371e-05 -9.52294e-24 -0.000950738 8.72597e-21 -0.0358412)
(-0.1225 -0.000129436 -1.16299e-23 -0.000977313 1.06785e-20 -0.049391)
(-0.0888639 -0.000101326 -1.80937e-21 -0.000952352 1.68795e-22 -0.0359265)
(-0.121853 -0.000140075 -6.17717e-24 -0.000976488 5.21326e-21 -0.0491317)
(-0.0890582 -0.000111006 1.68192e-21 -0.000954239 3.78663e-21 -0.036005)
(-0.12111 -0.000150899 -1.20678e-21 -0.000975546 3.30582e-21 -0.0488342)
(-0.089233 -0.000121174 -8.28661e-22 -0.000956385 -1.0683e-20 -0.0360758)
(-0.120269 -0.000161854 -1.36109e-21 -0.000974522 9.57734e-22 -0.0484976)
(-0.0893846 -0.000131767 2.07545e-21 -0.000958687 5.96064e-21 -0.0361373)
(-0.119326 -0.00017287 -1.39258e-21 -0.000973566 4.86125e-21 -0.04812)
(-0.0895028 -0.000142939 -3.35339e-21 -0.000960559 6.32175e-22 -0.0361853)
(-0.118236 -0.000184485 6.44921e-24 -0.000972041 -4.00272e-21 -0.0476831)
(-0.0895716 -0.000154213 -1.23312e-23 -0.00096298 7.1178e-21 -0.0362138)
(-0.117026 -0.000196056 -2.88041e-21 -0.000970857 6.62455e-21 -0.0471987)
(-0.0895815 -0.000164922 2.00867e-21 -0.000965283 -1.17117e-20 -0.0362187)
(-0.115771 -0.00020671 5.9203e-21 -0.000970142 4.16708e-21 -0.0466965)
(-0.0895304 -0.00017504 2.72185e-22 -0.00096746 1.39075e-20 -0.0361991)
(-0.114476 -0.00021639 -3.30519e-21 -0.000969494 4.19751e-21 -0.0461782)
(-0.089417 -0.000184542 -1.62011e-24 -0.000969398 7.87601e-22 -0.0361545)
(-0.113142 -0.000225174 3.31673e-21 -0.000969022 -9.73733e-21 -0.0456445)
(-0.0892402 -0.000193401 2.74604e-21 -0.000971094 -3.37263e-21 -0.0360845)
(-0.111772 -0.000233077 5.5063e-24 -0.000968562 -2.55899e-21 -0.0450962)
(-0.0889993 -0.000201596 -5.40568e-21 -0.000972459 7.31002e-21 -0.0359887)
(-0.110366 -0.000240148 7.69537e-21 -0.000968084 -3.34621e-21 -0.0445338)
(-0.0886937 -0.000209098 3.08792e-21 -0.000973486 -1.74695e-21 -0.0358669)
(-0.108927 -0.00024643 4.26528e-21 -0.000967538 -1.32354e-20 -0.0439579)
(-0.0883232 -0.000215886 -3.08158e-21 -0.000974141 -8.12217e-22 -0.0357189)
(-0.107455 -0.000251968 8.17606e-21 -0.000966887 -3.56932e-21 -0.0433688)
(-0.0878877 -0.000221938 2.0207e-20 -0.000974436 -2.41083e-22 -0.0355449)
(-0.105951 -0.000256809 9.15233e-21 -0.000966109 -3.63154e-22 -0.042767)
(-0.0873878 -0.000227237 -6.84668e-21 -0.000974401 -1.76472e-21 -0.0353449)
(-0.104416 -0.000260994 -9.12308e-21 -0.000965189 -1.07386e-20 -0.0421525)
(-0.0868243 -0.000231773 -4.75631e-24 -0.000974096 1.7971e-21 -0.0351194)
(-0.10285 -0.000264566 -1.95624e-20 -0.000964133 1.54346e-20 -0.0415255)
(-0.0861982 -0.00023554 7.86019e-21 -0.000973607 9.09909e-22 -0.0348687)
(-0.101252 -0.00026756 -2.09346e-20 -0.000962963 5.91609e-21 -0.0408859)
(-0.0855106 -0.000238542 6.18718e-22 -0.000973045 -1.10972e-20 -0.0345935)
(-0.0996228 -0.000270007 2.13373e-20 -0.000961726 -7.25861e-21 -0.0402338)
(-0.0847628 -0.000240789 8.78006e-21 -0.000972541 3.25187e-21 -0.0342941)