/*--------------------------------*- C++ -*----------------------------------*\
| =========                 |                                                 |
| \\      /  F ield         | OpenFOAM Extend Project: Open source CFD        |
|  \\    /   O peration     | Version:  1.6-ext                               |
|   \\  /    A nd           | Web:      www.extend-project.de                 |
|    \\/     M anipulation  |                                                 |
\*---------------------------------------------------------------------------*/
FoamFile
{
    version     2.0;
    format      ascii;
    class       volVectorField;
    location    "0.75";
    object      DU;
}
// * * * * * * * * * * * * * * * * * * * * * * * * * * * * * * * * * * * * * //

dimensions      [0 1 0 0 0 0 0];

internalField   nonuniform List<vector> 
328
(
(-2.18258e-09 -4.70913e-09 0)
(-1.68783e-09 -1.28576e-09 0)
(-1.91076e-09 9.24373e-10 0)
(-3.22227e-09 5.87466e-09 0)
(-6.62368e-09 -1.20353e-08 0)
(-5.56159e-09 -3.47145e-09 0)
(-6.33803e-09 2.98411e-09 0)
(-9.84163e-09 1.5119e-08 0)
(-1.17667e-08 -1.73021e-08 0)
(-1.0723e-08 -5.22353e-09 0)
(-1.22911e-08 5.24685e-09 0)
(-1.75184e-08 2.21784e-08 0)
(-1.73725e-08 -2.07278e-08 0)
(-1.67791e-08 -6.36828e-09 0)
(-1.92564e-08 7.56575e-09 0)
(-2.5892e-08 2.75139e-08 0)
(-2.35238e-08 -2.2631e-08 0)
(-2.38184e-08 -6.8278e-09 0)
(-2.73271e-08 9.90231e-09 0)
(-3.50632e-08 3.16861e-08 0)
(-3.02002e-08 -2.32432e-08 0)
(-3.1712e-08 -6.5433e-09 0)
(-3.63392e-08 1.2281e-08 0)
(-4.49878e-08 3.51395e-08 0)
(-3.74463e-08 -2.27412e-08 0)
(-4.04445e-08 -5.49032e-09 0)
(-4.62734e-08 1.47871e-08 0)
(-5.57141e-08 3.82524e-08 0)
(-4.52951e-08 -2.12339e-08 0)
(-4.99667e-08 -3.64653e-09 0)
(-5.70724e-08 1.75412e-08 0)
(-6.7276e-08 4.13305e-08 0)
(-5.37939e-08 -1.87797e-08 0)
(-6.02671e-08 -9.86906e-10 0)
(-6.87253e-08 2.06902e-08 0)
(-7.97285e-08 4.46369e-08 0)
(-6.29891e-08 -1.53877e-08 0)
(-7.13411e-08 2.53111e-09 0)
(-8.12287e-08 2.43957e-08 0)
(-9.31265e-08 4.84023e-08 0)
(-7.29306e-08 -1.10238e-08 0)
(-8.32064e-08 6.97311e-09 0)
(-9.46038e-08 2.88299e-08 0)
(-1.0753e-07 5.28391e-08 0)
(-8.36689e-08 -5.61264e-09 0)
(-9.58947e-08 1.24339e-08 0)
(-1.08886e-07 3.41727e-08 0)
(-1.23e-07 5.81503e-08 0)
(-9.5257e-08 9.60406e-10 0)
(-1.09454e-07 1.90401e-08 0)
(-1.24128e-07 4.06128e-08 0)
(-1.39599e-07 6.45375e-08 0)
(-1.07751e-07 8.84834e-09 0)
(-1.23944e-07 2.69521e-08 0)
(-1.40393e-07 4.83511e-08 0)
(-1.57392e-07 7.22084e-08 0)
(-1.2121e-07 1.82414e-08 0)
(-1.39436e-07 3.63642e-08 0)
(-1.57756e-07 5.76042e-08 0)
(-1.76448e-07 8.13831e-08 0)
(-1.35699e-07 2.93663e-08 0)
(-1.56009e-07 4.75058e-08 0)
(-1.76298e-07 6.861e-08 0)
(-1.96838e-07 9.23007e-08 0)
(-1.5129e-07 4.24866e-08 0)
(-1.73746e-07 6.06412e-08 0)
(-1.96106e-07 8.16326e-08 0)
(-2.18637e-07 1.05225e-07 0)
(-1.6806e-07 5.79023e-08 0)
(-1.92738e-07 7.60705e-08 0)
(-2.1727e-07 9.69669e-08 0)
(-2.41922e-07 1.20449e-07 0)
(-1.86095e-07 7.59515e-08 0)
(-2.13078e-07 9.41312e-08 0)
(-2.39883e-07 1.14943e-07 0)
(-2.66777e-07 1.38303e-07 0)
(-2.05485e-07 9.70118e-08 0)
(-2.34862e-07 1.152e-07 0)
(-2.6404e-07 1.35931e-07 0)
(-2.93286e-07 1.59154e-07 0)
(-2.26328e-07 1.21503e-07 0)
(-2.58189e-07 1.39695e-07 0)
(-2.89836e-07 1.60342e-07 0)
(-3.21537e-07 1.83411e-07 0)
(-2.4873e-07 1.4989e-07 0)
(-2.83162e-07 1.68079e-07 0)
(-3.17369e-07 1.88634e-07 0)
(-3.51617e-07 2.1153e-07 0)
(-2.73718e-07 1.83934e-07 0)
(-3.10904e-07 2.02111e-07 0)
(-3.47856e-07 2.22559e-07 0)
(-3.84837e-07 2.45255e-07 0)
(-3.00504e-07 2.23258e-07 0)
(-3.4051e-07 2.41411e-07 0)
(-3.80271e-07 2.61735e-07 0)
(-4.2005e-07 2.84206e-07 0)
(-3.27311e-07 2.65333e-07 0)
(-3.70008e-07 2.83451e-07 0)
(-4.12452e-07 3.0364e-07 0)
(-4.54902e-07 3.25879e-07 0)
(-3.54121e-07 3.1003e-07 0)
(-3.99384e-07 3.28102e-07 0)
(-4.44385e-07 3.48146e-07 0)
(-4.8938e-07 3.70143e-07 0)
(-3.80915e-07 3.57224e-07 0)
(-4.2862e-07 3.75236e-07 0)
(-4.76057e-07 3.95126e-07 0)
(-5.23474e-07 4.16873e-07 0)
(-4.07675e-07 4.0679e-07 0)
(-4.57702e-07 4.24731e-07 0)
(-5.07453e-07 4.44456e-07 0)
(-5.57172e-07 4.65945e-07 0)
(-4.34381e-07 4.58608e-07 0)
(-4.86612e-07 4.76465e-07 0)
(-5.3856e-07 4.96016e-07 0)
(-5.90463e-07 5.17239e-07 0)
(-4.61015e-07 5.1256e-07 0)
(-5.15335e-07 5.30322e-07 0)
(-5.69364e-07 5.49689e-07 0)
(-6.23336e-07 5.70639e-07 0)
(-4.87557e-07 5.68532e-07 0)
(-5.43853e-07 5.86187e-07 0)
(-5.99853e-07 6.0536e-07 0)
(-6.55781e-07 6.2603e-07 0)
(-5.13986e-07 6.26413e-07 0)
(-5.72151e-07 6.43949e-07 0)
(-6.30012e-07 6.62919e-07 0)
(-6.87789e-07 6.83302e-07 0)
(-5.40283e-07 6.86098e-07 0)
(-6.00211e-07 7.03503e-07 0)
(-6.59829e-07 7.2226e-07 0)
(-7.1935e-07 7.42349e-07 0)
(-5.6643e-07 7.47482e-07 0)
(-6.28018e-07 7.64744e-07 0)
(-6.89291e-07 7.8328e-07 0)
(-7.50454e-07 8.03069e-07 0)
(-5.92406e-07 8.10466e-07 0)
(-6.55557e-07 8.27574e-07 0)
(-7.18385e-07 8.45878e-07 0)
(-7.81091e-07 8.65361e-07 0)
(-6.18193e-07 8.74953e-07 0)
(-6.8281e-07 8.91895e-07 0)
(-7.47099e-07 9.09961e-07 0)
(-8.11252e-07 9.29129e-07 0)
(-6.43772e-07 9.4085e-07 0)
(-7.09762e-07 9.57616e-07 0)
(-7.75419e-07 9.75432e-07 0)
(-8.40928e-07 9.94281e-07 0)
(-6.69125e-07 1.00807e-06 0)
(-7.36399e-07 1.02464e-06 0)
(-8.03333e-07 1.0422e-06 0)
(-8.70107e-07 1.06073e-06 0)
(-6.94234e-07 1.07651e-06 0)
(-7.62704e-07 1.09289e-06 0)
(-8.30828e-07 1.11019e-06 0)
(-8.98781e-07 1.12838e-06 0)
(-7.1908e-07 1.14611e-06 0)
(-7.88662e-07 1.16228e-06 0)
(-8.57892e-07 1.1793e-06 0)
(-9.2694e-07 1.19714e-06 0)
(-7.43647e-07 1.21676e-06 0)
(-8.14259e-07 1.23271e-06 0)
(-8.84513e-07 1.24945e-06 0)
(-9.54574e-07 1.26695e-06 0)
(-7.67916e-07 1.2884e-06 0)
(-8.39479e-07 1.30412e-06 0)
(-9.10679e-07 1.32056e-06 0)
(-9.81674e-07 1.33771e-06 0)
(-7.9187e-07 1.36094e-06 0)
(-8.64308e-07 1.37641e-06 0)
(-9.36378e-07 1.39256e-06 0)
(-1.00823e-06 1.40935e-06 0)
(-8.15491e-07 1.4343e-06 0)
(-8.88731e-07 1.44953e-06 0)
(-9.61598e-07 1.46536e-06 0)
(-1.03424e-06 1.48179e-06 0)
(-8.38761e-07 1.50842e-06 0)
(-9.12733e-07 1.52339e-06 0)
(-9.86328e-07 1.53891e-06 0)
(-1.05968e-06 1.55497e-06 0)
(-8.61661e-07 1.58323e-06 0)
(-9.363e-07 1.59792e-06 0)
(-1.01056e-06 1.61312e-06 0)
(-1.08456e-06 1.6288e-06 0)
(-8.84174e-07 1.65866e-06 0)
(-9.59418e-07 1.67306e-06 0)
(-1.03428e-06 1.68793e-06 0)
(-1.10887e-06 1.70324e-06 0)
(-9.06281e-07 1.73465e-06 0)
(-9.82071e-07 1.74875e-06 0)
(-1.05747e-06 1.76328e-06 0)
(-1.1326e-06 1.77821e-06 0)
(-9.27962e-07 1.81114e-06 0)
(-1.00425e-06 1.82494e-06 0)
(-1.08014e-06 1.83912e-06 0)
(-1.15574e-06 1.85366e-06 0)
(-9.49202e-07 1.88808e-06 0)
(-1.02593e-06 1.90156e-06 0)
(-1.10227e-06 1.91539e-06 0)
(-1.1783e-06 1.92954e-06 0)
(-9.6998e-07 1.96543e-06 0)
(-1.04711e-06 1.97859e-06 0)
(-1.12384e-06 1.99205e-06 0)
(-1.20026e-06 2.0058e-06 0)
(-9.9028e-07 2.04315e-06 0)
(-1.06777e-06 2.05596e-06 0)
(-1.14486e-06 2.06906e-06 0)
(-1.22162e-06 2.08241e-06 0)
(-1.01009e-06 2.12119e-06 0)
(-1.0879e-06 2.13366e-06 0)
(-1.16531e-06 2.14638e-06 0)
(-1.24238e-06 2.15933e-06 0)
(-1.02938e-06 2.19953e-06 0)
(-1.10749e-06 2.21164e-06 0)
(-1.18518e-06 2.22398e-06 0)
(-1.26253e-06 2.23653e-06 0)
(-1.04816e-06 2.27814e-06 0)
(-1.12652e-06 2.28989e-06 0)
(-1.20447e-06 2.30184e-06 0)
(-1.28207e-06 2.31397e-06 0)
(-1.06639e-06 2.35699e-06 0)
(-1.14499e-06 2.36836e-06 0)
(-1.22317e-06 2.37992e-06 0)
(-1.30099e-06 2.39164e-06 0)
(-1.08408e-06 2.43605e-06 0)
(-1.16288e-06 2.44705e-06 0)
(-1.24127e-06 2.45821e-06 0)
(-1.31928e-06 2.46951e-06 0)
(-1.1012e-06 2.51531e-06 0)
(-1.18019e-06 2.52592e-06 0)
(-1.25875e-06 2.53667e-06 0)
(-1.33693e-06 2.54755e-06 0)
(-1.11776e-06 2.59474e-06 0)
(-1.19691e-06 2.60496e-06 0)
(-1.27563e-06 2.6153e-06 0)
(-1.35395e-06 2.62575e-06 0)
(-1.13374e-06 2.67432e-06 0)
(-1.21303e-06 2.68414e-06 0)
(-1.29187e-06 2.69407e-06 0)
(-1.37032e-06 2.70409e-06 0)
(-1.14913e-06 2.75403e-06 0)
(-1.22853e-06 2.76345e-06 0)
(-1.30749e-06 2.77295e-06 0)
(-1.38604e-06 2.78254e-06 0)
(-1.16392e-06 2.83384e-06 0)
(-1.24342e-06 2.84285e-06 0)
(-1.32247e-06 2.85193e-06 0)
(-1.40111e-06 2.86108e-06 0)
(-1.17812e-06 2.91373e-06 0)
(-1.25769e-06 2.92233e-06 0)
(-1.3368e-06 2.93098e-06 0)
(-1.4155e-06 2.93968e-06 0)
(-1.19169e-06 2.99368e-06 0)
(-1.27132e-06 3.00186e-06 0)
(-1.35049e-06 3.01009e-06 0)
(-1.42923e-06 3.01834e-06 0)
(-1.20465e-06 3.07368e-06 0)
(-1.28431e-06 3.08144e-06 0)
(-1.36351e-06 3.08922e-06 0)
(-1.44229e-06 3.09703e-06 0)
(-1.21698e-06 3.15369e-06 0)
(-1.29666e-06 3.16103e-06 0)
(-1.37588e-06 3.16838e-06 0)
(-1.45467e-06 3.17574e-06 0)
(-1.22867e-06 3.23372e-06 0)
(-1.30836e-06 3.24062e-06 0)
(-1.38758e-06 3.24753e-06 0)
(-1.46637e-06 3.25444e-06 0)
(-1.23971e-06 3.31374e-06 0)
(-1.31939e-06 3.3202e-06 0)
(-1.39862e-06 3.32667e-06 0)
(-1.47739e-06 3.33313e-06 0)
(-1.2501e-06 3.39374e-06 0)
(-1.32977e-06 3.39977e-06 0)
(-1.40898e-06 3.40578e-06 0)
(-1.48773e-06 3.41179e-06 0)
(-1.25982e-06 3.47372e-06 0)
(-1.33947e-06 3.4793e-06 0)
(-1.41866e-06 3.48487e-06 0)
(-1.49739e-06 3.49042e-06 0)
(-1.26887e-06 3.55367e-06 0)
(-1.34849e-06 3.5588e-06 0)
(-1.42766e-06 3.56392e-06 0)
(-1.50636e-06 3.56901e-06 0)
(-1.27724e-06 3.63359e-06 0)
(-1.35684e-06 3.63827e-06 0)
(-1.43597e-06 3.64292e-06 0)
(-1.51464e-06 3.64756e-06 0)
(-1.28493e-06 3.71348e-06 0)
(-1.36449e-06 3.7177e-06 0)
(-1.4436e-06 3.7219e-06 0)
(-1.52224e-06 3.72607e-06 0)
(-1.29192e-06 3.79334e-06 0)
(-1.37146e-06 3.7971e-06 0)
(-1.45053e-06 3.80083e-06 0)
(-1.52914e-06 3.80455e-06 0)
(-1.29821e-06 3.87318e-06 0)
(-1.37772e-06 3.87646e-06 0)
(-1.45677e-06 3.87973e-06 0)
(-1.53535e-06 3.88299e-06 0)
(-1.30379e-06 3.95299e-06 0)
(-1.38328e-06 3.95581e-06 0)
(-1.46231e-06 3.95861e-06 0)
(-1.54087e-06 3.9614e-06 0)
(-1.30867e-06 4.03279e-06 0)
(-1.38814e-06 4.03513e-06 0)
(-1.46715e-06 4.03746e-06 0)
(-1.54569e-06 4.03978e-06 0)
(-1.31283e-06 4.11258e-06 0)
(-1.39228e-06 4.11445e-06 0)
(-1.47128e-06 4.1163e-06 0)
(-1.54981e-06 4.11815e-06 0)
(-1.31628e-06 4.19237e-06 0)
(-1.39571e-06 4.19376e-06 0)
(-1.4747e-06 4.19513e-06 0)
(-1.55323e-06 4.1965e-06 0)
(-1.319e-06 4.27217e-06 0)
(-1.39841e-06 4.27307e-06 0)
(-1.47739e-06 4.27395e-06 0)
(-1.55593e-06 4.27485e-06 0)
(-1.32102e-06 4.35196e-06 0)
(-1.4004e-06 4.35238e-06 0)
(-1.47938e-06 4.35279e-06 0)
(-1.55794e-06 4.35321e-06 0)
(-1.32226e-06 4.43164e-06 0)
(-1.40161e-06 4.43167e-06 0)
(-1.48059e-06 4.43166e-06 0)
(-1.55919e-06 4.43169e-06 0)
)
;

boundaryField
{
    plateFix
    {
        type            fixedDisplacement;
        value           uniform (0 0 0);
    }
    plate
    {
        type            solidTraction;
        nonLinear       updatedLagrangian;
        traction        nonuniform List<vector> 
168
(
(3.12301e-05 7.54893e-05 0)
(3.94024e-05 -8.02809e-05 0)
(-0.000107142 -6.99656e-05 5.21259e-24)
(-8.93007e-05 6.09078e-05 -4.03701e-20)
(-0.00056496 -0.000248987 -4.97371e-24)
(-0.000528942 0.000237017 8.21015e-20)
(-0.00127185 -0.000391748 3.62474e-20)
(-0.00121288 0.000378594 -3.88872e-20)
(-0.00217351 -0.000480856 -3.63699e-20)
(-0.00208915 0.000467609 3.89653e-20)
(-0.00322085 -0.000519438 -3.40707e-20)
(-0.00311009 0.000506599 -3.2157e-20)
(-0.00436343 -0.000520083 3.16626e-20)
(-0.00422629 0.000507655 3.19087e-20)
(-0.00555722 -0.000496979 0)
(-0.00539436 0.000484621 -2.9476e-20)
(-0.00676783 -0.00046204 2.68372e-20)
(-0.00658018 0.000449214 -2.36716e-20)
(-0.00797055 -0.000423903 -2.75573e-20)
(-0.00775909 0.00040999 4.93598e-20)
(-0.0091496 -0.000388103 0)
(-0.00891518 0.000372477 -3.83565e-23)
(-0.0102967 -0.000357688 0)
(-0.01004 0.000339754 -4.03282e-20)
(-0.0114092 -0.000333897 1.78829e-20)
(-0.0111307 0.00031311 1.8091e-20)
(-0.0124882 -0.000316762 -1.59794e-20)
(-0.0121883 0.000292625 0)
(-0.0135367 -0.000305558 0)
(-0.0132159 0.000277613 0)
(-0.0145578 -0.000299123 -3.10647e-21)
(-0.0142167 0.000266945 -1.26292e-20)
(-0.0155532 -0.000296048 8.51239e-23)
(-0.0151929 0.000259255 1.10379e-20)
(-0.0165215 -0.000294742 -4.81652e-21)
(-0.0161435 0.000253009 1.42594e-20)
(-0.0174596 -0.000293473 0)
(-0.0170666 0.000246586 -1.6703e-20)
(-0.0183527 -0.000290081 1.10782e-22)
(-0.0179488 0.000238004 -1.12159e-22)
(-0.0192054 -0.000281316 1.19953e-20)
(-0.0187962 0.000224425 3.17558e-21)
(-0.0199455 -0.000268272 -1.26771e-22)
(-0.0195412 0.000206769 -5.26381e-21)
(-0.0208207 -0.000220606 -1.30885e-22)
(-0.020422 0.000156985 0)
(-0.0217363 -0.000164204 -8.6021e-21)
(-0.0213432 9.67282e-05 0)
(-0.0225033 -0.000154661 8.32021e-21)
(-0.0221306 8.11242e-05 -1.33675e-22)
(-0.0232344 -0.000140685 -8.32825e-21)
(-0.0228892 6.15302e-05 3.51765e-26)
(-0.0238802 -0.000136689 0)
(-0.0235731 5.19073e-05 -8.33121e-21)
(-0.0244824 -0.000129781 0)
(-0.0242227 3.9666e-05 1.61657e-22)
(-0.0250193 -0.000124919 -2.43065e-22)
(-0.0248177 2.97458e-05 8.05869e-21)
(-0.0255037 -0.000118699 0)
(-0.0253705 1.87914e-05 0)
(-0.025926 -0.000112379 2.31539e-22)
(-0.0258723 8.11564e-06 0)
(-0.0262877 -0.000104938 -3.55694e-21)
(-0.0263242 -3.27829e-06 0)
(-0.026583 -9.65684e-05 3.78e-21)
(-0.0267207 -1.51503e-05 2.27286e-22)
(-0.0268087 -8.68959e-05 2.13272e-22)
(-0.0270585 -2.78486e-05 3.48585e-21)
(-0.0269599 -7.58781e-05 -3.44718e-21)
(-0.0273322 -4.13818e-05 -3.27508e-21)
(-0.027032 -6.33576e-05 3.64301e-21)
(-0.0275367 -5.58839e-05 2.08226e-22)
(-0.0270199 -4.92914e-05 0)
(-0.0276666 -7.13758e-05 0)
(-0.0269192 -3.36397e-05 2.89411e-21)
(-0.0277161 -8.78811e-05 0)
(-0.0267251 -1.64252e-05 -1.24338e-22)
(-0.0276798 -0.000105365 3.02476e-21)
(-0.0264337 2.29519e-06 -2.77502e-21)
(-0.0275524 -0.000123761 -2.93443e-21)
(-0.0260414 2.24163e-05 1.61666e-22)
(-0.0273289 -0.000142959 0)
(-0.0255454 4.37925e-05 0)
(-0.0270052 -0.000162814 -1.64677e-22)
(-0.0249438 6.62402e-05 -2.26395e-21)
(-0.0265774 -0.000183142 2.74291e-21)
(-0.0242353 8.95425e-05 2.2652e-21)
(-0.0260428 -0.000203731 -1.33486e-22)
(-0.0234198 0.000113456 0)
(-0.0253994 -0.000224343 -2.74362e-22)
(-0.0224981 0.000137717 1.21088e-22)
(-0.024646 -0.000244722 -2.17023e-21)
(-0.0214721 0.000162051 1.12901e-22)
(-0.0237828 -0.000264604 1.23906e-22)
(-0.0203446 0.000186185 -1.05684e-22)
(-0.0228107 -0.000283724 -1.15608e-22)
(-0.0191193 0.000209847 -9.67115e-23)
(-0.0217316 -0.000301826 0)
(-0.0178008 0.000232784 1.78502e-22)
(-0.0205486 -0.00031867 1.50622e-21)
(-0.0163945 0.000254764 -1.15336e-21)
(-0.0192652 -0.000334042 -1.50803e-21)
(-0.0149063 0.000275585 1.30885e-21)
(-0.0178861 -0.00034776 1.25091e-21)
(-0.0133426 0.00029508 9.32048e-22)
(-0.0164163 -0.000359679 -2.45412e-21)
(-0.0117104 0.000313121 -1.88469e-21)
(-0.0148616 -0.000369697 2.13608e-21)
(-0.0100165 0.000329622 8.8654e-22)
(-0.0132279 -0.000377755 -1.89969e-21)
(-0.00826807 0.000344538 0)
(-0.0115215 -0.000383838 5.02577e-22)
(-0.00647202 0.000357869 -3.28449e-22)
(-0.00974855 -0.000387978 3.90125e-22)
(-0.00463505 0.000369652 2.8867e-22)
(-0.00791528 -0.000390244 -2.46315e-22)
(-0.0027635 0.000379964 -1.98573e-22)
(-0.00602763 -0.000390745 1.52354e-23)
(-0.000863224 0.000388916 3.78907e-22)
(-0.00409123 -0.000389624 2.10349e-22)
(0.00106049 0.000396648 -1.58058e-22)
(-0.00211125 -0.00038705 0)
(0.003003 0.000403326 8.54223e-23)
(-9.23316e-05 -0.000383218 0)
(0.00496039 0.000409137 -7.68477e-23)
(0.00196149 -0.000378338 -7.22385e-23)
(0.00692949 0.000414285 1.06385e-23)
(0.00404687 -0.000372634 6.45687e-23)
(0.00890793 0.000418985 0)
(0.00616115 -0.000366341 0)
(0.0108942 0.000423468 -2.22095e-23)
(0.00830247 -0.0003597 -1.96451e-23)
(0.0128875 0.000427971 2.38126e-23)
(0.0104698 -0.00035296 -2.09816e-23)
(0.0148881 0.00043275 6.07393e-23)
(0.0126629 -0.000346379 4.9764e-23)
(0.0168972 0.000438075 -6.0794e-23)
(0.0148825 -0.00034023 -4.07296e-23)
(0.018917 0.000444255 0)
(0.0171305 -0.000334821 -7.20548e-24)
(0.0209508 0.00045164 -1.13456e-23)
(0.01941 -0.000330497 2.33046e-23)
(0.0230037 0.000460699 -1.13557e-23)
(0.0217258 -0.000327725 0)
(0.0250826 0.000472027 1.18922e-23)
(0.0240848 -0.000327104 1.48902e-23)
(0.0271974 0.000486668 5.18252e-23)
(0.026497 -0.000329684 -1.42228e-23)
(0.0293623 0.000506221 -3.99814e-23)
(0.0289775 -0.000337123 0)
(0.0315984 0.000534695 -3.50908e-23)
(0.0315482 -0.000353565 5.68073e-23)
(0.0339426 0.000579436 2.27797e-23)
(0.0342497 -0.000386689 -6.7029e-23)
(0.0364479 0.000666257 -1.82672e-23)
(0.0371367 -0.00046365 3.71836e-23)
(0.0392647 0.000842824 1.1403e-23)
(0.0403773 -0.00063354 -2.14188e-23)
(0.0425346 0.00133721 1.23772e-23)
(0.0441096 -0.00113828 0)
(0.0472959 0.00252463 2.28204e-24)
(0.0494964 -0.00235491 -1.03173e-24)
(0.0536737 0.00716418 0)
(0.0108273 0.00506965 2.23665e-23)
(-0.000984899 -0.0029951 6.47108e-24)
(-0.000821957 0.00431071 -6.46268e-24)
(0.0114553 -0.00452853 3.43368e-23)
(0.056433 -0.00723667 2.20004e-24)
)
;
        pressure        nonuniform List<scalar> 
168
(
-0.45271
-0.455967
-0.453334
-0.456577
-0.454018
-0.457255
-0.454688
-0.457925
-0.455277
-0.458523
-0.455711
-0.458976
-0.455943
-0.459236
-0.455944
-0.459276
-0.455701
-0.459083
-0.455208
-0.458653
-0.454464
-0.457983
-0.453466
-0.457073
-0.452208
-0.455917
-0.450677
-0.454507
-0.448854
-0.452823
-0.446711
-0.450842
-0.444212
-0.44853
-0.441315
-0.445849
-0.437977
-0.442757
-0.43413
-0.439193
-0.429779
-0.435161
-0.424712
-0.430455
-0.419219
-0.425359
-0.412429
-0.419049
-0.405536
-0.412638
-0.398085
-0.405694
-0.390377
-0.398501
-0.38224
-0.390891
-0.373779
-0.38296
-0.364938
-0.374652
-0.355751
-0.365996
-0.346206
-0.356974
-0.336316
-0.347595
-0.326084
-0.337858
-0.315521
-0.327767
-0.304638
-0.317329
-0.293451
-0.306555
-0.281979
-0.295456
-0.270246
-0.28405
-0.258277
-0.272359
-0.246102
-0.260408
-0.233758
-0.248227
-0.221281
-0.235848
-0.208714
-0.223311
-0.1961
-0.210657
-0.183487
-0.197931
-0.170923
-0.18518
-0.158458
-0.172453
-0.146142
-0.159803
-0.134025
-0.147281
-0.122156
-0.134939
-0.110583
-0.122826
-0.0993482
-0.110993
-0.0884949
-0.0994862
-0.0780607
-0.0883493
-0.0680796
-0.0776228
-0.0585814
-0.0673434
-0.0495913
-0.0575433
-0.0411301
-0.0482507
-0.033214
-0.0394893
-0.0258549
-0.0312784
-0.0190605
-0.0236334
-0.0128348
-0.0165656
-0.00717817
-0.0100831
-0.0020884
-0.00419081
0.00243931
0.00110872
0.00641146
0.00581481
0.00983577
0.00992809
0.0127203
0.0134497
0.0150732
0.0163806
0.0169012
0.0187206
0.0182095
0.020468
0.0189999
0.0216175
0.019271
0.0221597
0.0190139
0.0220787
0.0182116
0.0213469
0.0168342
0.0199282
0.0148088
0.0177271
0.0120851
0.014696
0.00815503
0.0102356
0.00343266
0.00486671
-0.00739283
-0.0368043
-0.0104293
-0.0106493
-0.039032
-0.00754602
)
;
        value           nonuniform List<vector> 
168
(
(-2.27835e-08 -1.18415e-08 -1.33394e-26)
(-2.90772e-08 1.6479e-08 2.35432e-26)
(-2.13769e-08 -1.93848e-08 1.72591e-26)
(-2.89472e-08 2.61128e-08 -4.28233e-26)
(-2.12771e-08 -2.4998e-08 1.46979e-26)
(-3.10653e-08 3.37063e-08 4.26567e-26)
(-2.28217e-08 -2.85762e-08 -6.29238e-27)
(-3.55764e-08 3.92659e-08 -1.25675e-26)
(-2.59392e-08 -3.06172e-08 -1.38169e-26)
(-4.23e-08 4.3617e-08 -3.757e-27)
(-3.03282e-08 -3.13252e-08 -1.04811e-26)
(-5.07914e-08 4.71712e-08 -5.00032e-27)
(-3.58214e-08 -3.09118e-08 5.1729e-27)
(-6.081e-08 5.03615e-08 8.945e-27)
(-4.22827e-08 -2.94843e-08 4.92739e-27)
(-7.21708e-08 5.34957e-08 -6.27015e-27)
(-4.96381e-08 -2.71058e-08 6.72566e-27)
(-8.47801e-08 5.6847e-08 -1.1869e-26)
(-5.78423e-08 -2.37835e-08 -8.31449e-27)
(-9.85871e-08 6.06457e-08 1.66386e-26)
(-6.68786e-08 -1.94828e-08 8.90255e-28)
(-1.1358e-07 6.51048e-08 1.00955e-27)
(-7.6748e-08 -1.4127e-08 2.27461e-27)
(-1.29769e-07 7.04262e-08 -1.40762e-26)
(-8.74684e-08 -7.60138e-09 5.69071e-27)
(-1.47184e-07 7.68115e-08 5.86152e-27)
(-9.90708e-08 2.46662e-10 -6.85879e-27)
(-1.65868e-07 8.44682e-08 -5.62616e-28)
(-1.11599e-07 9.60634e-09 4.28917e-27)
(-1.85875e-07 9.3617e-08 4.34988e-27)
(-1.25109e-07 2.07033e-08 -6.83553e-27)
(-2.07268e-07 1.04498e-07 -6.31241e-27)
(-1.39667e-07 3.37997e-08 8.1317e-27)
(-2.30119e-07 1.17374e-07 -3.48375e-27)
(-1.5535e-07 4.91945e-08 -4.36201e-27)
(-2.54504e-07 1.32541e-07 5.22412e-27)
(-1.72244e-07 6.72253e-08 3.14195e-28)
(-2.80504e-07 1.50328e-07 2.7145e-27)
(-1.90441e-07 8.82694e-08 -2.26566e-27)
(-3.08203e-07 1.71101e-07 1.36234e-27)
(-2.10045e-07 1.12747e-07 5.501e-27)
(-3.37687e-07 1.95271e-07 6.0975e-29)
(-2.31162e-07 1.41122e-07 -3.58825e-27)
(-3.69041e-07 2.23293e-07 2.03996e-27)
(-2.54776e-07 1.75159e-07 8.04232e-28)
(-4.03622e-07 2.56904e-07 -2.02605e-27)
(-2.80153e-07 2.14481e-07 -3.55536e-27)
(-4.40229e-07 2.9573e-07 2.31684e-27)
(-3.05615e-07 2.5656e-07 4.99333e-27)
(-4.76409e-07 3.37272e-07 4.24318e-27)
(-3.31145e-07 3.01268e-07 -6.98627e-27)
(-5.12153e-07 3.81402e-07 8.4685e-28)
(-3.56721e-07 3.48478e-07 -4.15861e-28)
(-5.47449e-07 4.27994e-07 -3.57746e-27)
(-3.82325e-07 3.98067e-07 3.11616e-28)
(-5.82288e-07 4.76924e-07 -1.31899e-27)
(-4.07934e-07 4.49913e-07 -7.92448e-28)
(-6.16661e-07 5.28073e-07 1.67815e-27)
(-4.33529e-07 5.03901e-07 -8.60094e-28)
(-6.50558e-07 5.81324e-07 -4.72126e-27)
(-4.59088e-07 5.59915e-07 2.14293e-27)
(-6.83971e-07 6.36563e-07 2.25082e-27)
(-4.84589e-07 6.17844e-07 -1.23145e-26)
(-7.16893e-07 6.93681e-07 4.46712e-27)
(-5.10011e-07 6.77583e-07 5.1474e-27)
(-7.49315e-07 7.5257e-07 -1.00185e-26)
(-5.35332e-07 7.39028e-07 -9.01756e-28)
(-7.81229e-07 8.13129e-07 -2.77198e-27)
(-5.60533e-07 8.02078e-07 -5.93932e-27)
(-8.12628e-07 8.75257e-07 -8.59149e-27)
(-5.85592e-07 8.66638e-07 5.26424e-27)
(-8.43504e-07 9.38858e-07 8.34604e-27)
(-6.10489e-07 9.32614e-07 -7.80624e-27)
(-8.73848e-07 1.00384e-06 5.45461e-27)
(-6.35205e-07 9.99915e-07 8.67329e-27)
(-9.03651e-07 1.07011e-06 -4.00197e-28)
(-6.59721e-07 1.06845e-06 -1.43462e-26)
(-9.32906e-07 1.13759e-06 9.05408e-27)
(-6.84016e-07 1.13814e-06 -6.29278e-27)
(-9.61603e-07 1.20618e-06 -2.46214e-26)
(-7.08073e-07 1.2089e-06 -4.99052e-27)
(-9.89734e-07 1.2758e-06 -4.11089e-27)
(-7.31873e-07 1.28064e-06 6.92027e-27)
(-1.01729e-06 1.34638e-06 -4.41326e-27)
(-7.55396e-07 1.35329e-06 1.56293e-26)
(-1.04427e-06 1.41783e-06 2.65561e-29)
(-7.78622e-07 1.42677e-06 -3.75469e-27)
(-1.07066e-06 1.49009e-06 -1.06777e-27)
(-8.01533e-07 1.50102e-06 -1.05569e-26)
(-1.09645e-06 1.56307e-06 1.11402e-26)
(-8.24108e-07 1.57596e-06 2.08707e-27)
(-1.12164e-06 1.63671e-06 -2.1998e-26)
(-8.46327e-07 1.65152e-06 1.09255e-26)
(-1.14623e-06 1.71095e-06 -5.85181e-28)
(-8.68169e-07 1.72765e-06 1.10082e-26)
(-1.17021e-06 1.78572e-06 1.11239e-27)
(-8.89613e-07 1.80429e-06 -2.38173e-26)
(-1.19359e-06 1.86097e-06 1.21505e-26)
(-9.10638e-07 1.88139e-06 2.4815e-26)
(-1.21634e-06 1.93665e-06 -2.56569e-26)
(-9.31225e-07 1.9589e-06 1.2933e-26)
(-1.23848e-06 2.01271e-06 2.44253e-26)
(-9.51353e-07 2.03678e-06 1.38212e-26)
(-1.26001e-06 2.08912e-06 4.00381e-28)
(-9.71003e-07 2.11499e-06 -1.23206e-26)
(-1.28091e-06 2.16584e-06 1.29505e-26)
(-9.9016e-07 2.19351e-06 1.2799e-26)
(-1.30119e-06 2.24282e-06 1.13001e-27)
(-1.00881e-06 2.2723e-06 1.26015e-27)
(-1.32084e-06 2.32006e-06 -3.63151e-28)
(-1.02693e-06 2.35133e-06 1.56932e-26)
(-1.33986e-06 2.39752e-06 1.92858e-28)
(-1.04451e-06 2.43058e-06 -1.44423e-26)
(-1.35824e-06 2.47517e-06 -1.64357e-26)
(-1.06155e-06 2.51003e-06 1.54183e-26)
(-1.37598e-06 2.553e-06 1.67275e-26)
(-1.07802e-06 2.58965e-06 -1.59365e-26)
(-1.39307e-06 2.63099e-06 -1.72833e-26)
(-1.09393e-06 2.66943e-06 1.76749e-26)
(-1.4095e-06 2.70911e-06 3.53765e-26)
(-1.10927e-06 2.74933e-06 1.79514e-26)
(-1.42527e-06 2.78734e-06 -1.79319e-26)
(-1.12402e-06 2.82934e-06 1.74796e-26)
(-1.44036e-06 2.86565e-06 3.01566e-28)
(-1.13817e-06 2.90944e-06 3.81006e-26)
(-1.45479e-06 2.94404e-06 2.01604e-26)
(-1.15173e-06 2.9896e-06 2.36303e-29)
(-1.46854e-06 3.02247e-06 2.02557e-26)
(-1.16467e-06 3.0698e-06 4.92912e-30)
(-1.4816e-06 3.10094e-06 2.07096e-26)
(-1.17699e-06 3.15003e-06 1.87004e-26)
(-1.49398e-06 3.17942e-06 5.0814e-28)
(-1.18868e-06 3.23027e-06 1.72388e-30)
(-1.50568e-06 3.25789e-06 -2.09942e-26)
(-1.19973e-06 3.31051e-06 -2.1869e-26)
(-1.51669e-06 3.33635e-06 -1.14219e-30)
(-1.21013e-06 3.39073e-06 6.47536e-26)
(-1.52701e-06 3.41479e-06 -8.61755e-30)
(-1.21987e-06 3.47093e-06 -2.2415e-26)
(-1.53665e-06 3.49319e-06 6.81763e-28)
(-1.22894e-06 3.55111e-06 -8.04178e-28)
(-1.5456e-06 3.57155e-06 -5.94128e-30)
(-1.23733e-06 3.63126e-06 2.4485e-26)
(-1.55386e-06 3.64987e-06 -2.44465e-26)
(-1.24503e-06 3.71137e-06 2.09025e-28)
(-1.56144e-06 3.72816e-06 -2.4922e-26)
(-1.25204e-06 3.79146e-06 -2.38107e-26)
(-1.56833e-06 3.8064e-06 2.54143e-26)
(-1.25835e-06 3.87153e-06 2.55335e-26)
(-1.57452e-06 3.88461e-06 -2.59001e-26)
(-1.26395e-06 3.95158e-06 -2.49998e-26)
(-1.58003e-06 3.96279e-06 2.02325e-29)
(-1.26883e-06 4.03162e-06 2.65963e-26)
(-1.58484e-06 4.04094e-06 2.70681e-26)
(-1.273e-06 4.11165e-06 -1.54937e-28)
(-1.58895e-06 4.11908e-06 -2.70372e-26)
(-1.27645e-06 4.19168e-06 -5.49932e-26)
(-1.59237e-06 4.19719e-06 -2.73965e-26)
(-1.27918e-06 4.27171e-06 5.55138e-26)
(-1.59507e-06 4.27531e-06 2.79439e-26)
(-1.28124e-06 4.35176e-06 5.65867e-26)
(-1.59712e-06 4.35342e-06 2.81612e-26)
(-1.28257e-06 4.43165e-06 -2.85756e-26)
(-1.32264e-06 4.47138e-06 -8.56754e-27)
(-1.40199e-06 4.47131e-06 -9.79284e-27)
(-1.48097e-06 4.47111e-06 9.31934e-27)
(-1.55957e-06 4.47103e-06 1.03575e-26)
(-1.59845e-06 4.43169e-06 -2.92746e-26)
)
;
    }
    frontAndBackPlanes
    {
        type            empty;
    }
}


// ************************************************************************* //
