/*--------------------------------*- C++ -*----------------------------------*\
| =========                 |                                                 |
| \\      /  F ield         | OpenFOAM Extend Project: Open source CFD        |
|  \\    /   O peration     | Version:  1.6-ext                               |
|   \\  /    A nd           | Web:      www.extend-project.de                 |
|    \\/     M anipulation  |                                                 |
\*---------------------------------------------------------------------------*/
FoamFile
{
    version     2.0;
    format      ascii;
    class       volVectorField;
    location    "0.75";
    object      DU_0;
}
// * * * * * * * * * * * * * * * * * * * * * * * * * * * * * * * * * * * * * //

dimensions      [0 1 0 0 0 0 0];

internalField   nonuniform List<vector> 
328
(
(-1.98844e-09 -4.32642e-09 0)
(-1.56719e-09 -1.20249e-09 0)
(-1.79591e-09 8.6139e-10 0)
(-3.0613e-09 5.55684e-09 0)
(-6.03271e-09 -1.1045e-08 0)
(-5.16172e-09 -3.21751e-09 0)
(-5.95857e-09 2.81085e-09 0)
(-9.35094e-09 1.4312e-08 0)
(-1.07172e-08 -1.58455e-08 0)
(-9.94771e-09 -4.79532e-09 0)
(-1.15574e-08 4.98216e-09 0)
(-1.66437e-08 2.1022e-08 0)
(-1.58247e-08 -1.89206e-08 0)
(-1.55642e-08 -5.77291e-09 0)
(-1.8107e-08 7.23897e-09 0)
(-2.45969e-08 2.61284e-08 0)
(-2.1432e-08 -2.05567e-08 0)
(-2.20937e-08 -6.07618e-09 0)
(-2.56944e-08 9.5467e-09 0)
(-3.33049e-08 3.01656e-08 0)
(-2.75216e-08 -2.09603e-08 0)
(-2.94179e-08 -5.64679e-09 0)
(-3.41645e-08 1.19316e-08 0)
(-4.27249e-08 3.35584e-08 0)
(-3.41357e-08 -2.02875e-08 0)
(-3.75228e-08 -4.45713e-09 0)
(-4.3499e-08 1.44782e-08 0)
(-5.29018e-08 3.66692e-08 0)
(-4.13055e-08 -1.86307e-08 0)
(-4.6363e-08 -2.48009e-09 0)
(-5.36438e-08 1.73052e-08 0)
(-6.38667e-08 3.97927e-08 0)
(-4.90755e-08 -1.60352e-08 0)
(-5.5928e-08 3.15302e-10 0)
(-6.45885e-08 2.05575e-08 0)
(-7.56707e-08 4.31838e-08 0)
(-5.74897e-08 -1.24997e-08 0)
(-6.6214e-08 3.97761e-09 0)
(-7.63298e-08 2.43948e-08 0)
(-8.83645e-08 4.70676e-08 0)
(-6.6595e-08 -7.98227e-09 0)
(-7.72374e-08 8.57801e-09 0)
(-8.88871e-08 2.89878e-08 0)
(-1.02004e-07 5.16529e-08 0)
(-7.64396e-08 -2.40144e-09 0)
(-8.90284e-08 1.42159e-08 0)
(-1.02294e-07 3.45154e-08 0)
(-1.16645e-07 5.71401e-08 0)
(-8.70738e-08 4.36146e-09 0)
(-1.01632e-07 2.10211e-08 0)
(-1.16598e-07 4.11655e-08 0)
(-1.32345e-07 6.37292e-08 0)
(-9.85511e-08 1.24613e-08 0)
(-1.15104e-07 2.91555e-08 0)
(-1.3186e-07 4.91376e-08 0)
(-1.49165e-07 7.16262e-08 0)
(-1.10929e-07 2.2088e-08 0)
(-1.29513e-07 3.88128e-08 0)
(-1.48148e-07 5.86463e-08 0)
(-1.67166e-07 8.10488e-08 0)
(-1.2427e-07 3.34658e-08 0)
(-1.4493e-07 5.02197e-08 0)
(-1.65538e-07 6.99263e-08 0)
(-1.86413e-07 9.22326e-08 0)
(-1.38643e-07 4.68531e-08 0)
(-1.61438e-07 6.36351e-08 0)
(-1.84111e-07 8.32364e-08 0)
(-2.06974e-07 1.05437e-07 0)
(-1.54122e-07 6.25426e-08 0)
(-1.79119e-07 7.93516e-08 0)
(-2.03949e-07 9.88642e-08 0)
(-2.28921e-07 1.20947e-07 0)
(-1.70788e-07 8.08626e-08 0)
(-1.98061e-07 9.76967e-08 0)
(-2.25141e-07 1.17131e-07 0)
(-2.52329e-07 1.39085e-07 0)
(-1.88728e-07 1.02179e-07 0)
(-2.18355e-07 1.19035e-07 0)
(-2.47773e-07 1.38393e-07 0)
(-2.77277e-07 1.60205e-07 0)
(-2.08034e-07 1.26898e-07 0)
(-2.40095e-07 1.43771e-07 0)
(-2.71935e-07 1.63051e-07 0)
(-3.03844e-07 1.84705e-07 0)
(-2.28805e-07 1.55469e-07 0)
(-2.63376e-07 1.72351e-07 0)
(-2.97718e-07 1.91545e-07 0)
(-3.32115e-07 2.13027e-07 0)
(-2.51995e-07 1.89642e-07 0)
(-2.89246e-07 2.06524e-07 0)
(-3.26262e-07 2.25618e-07 0)
(-3.63319e-07 2.46901e-07 0)
(-2.76875e-07 2.29005e-07 0)
(-3.16861e-07 2.45875e-07 0)
(-3.56606e-07 2.64852e-07 0)
(-3.96377e-07 2.85917e-07 0)
(-3.0179e-07 2.71021e-07 0)
(-3.44382e-07 2.87865e-07 0)
(-3.86727e-07 3.06716e-07 0)
(-4.29084e-07 3.27556e-07 0)
(-3.2672e-07 3.15561e-07 0)
(-3.71793e-07 3.32365e-07 0)
(-4.16614e-07 3.51082e-07 0)
(-4.61432e-07 3.71691e-07 0)
(-3.51644e-07 3.625e-07 0)
(-3.99078e-07 3.79252e-07 0)
(-4.46255e-07 3.97824e-07 0)
(-4.93414e-07 4.18196e-07 0)
(-3.7654e-07 4.1172e-07 0)
(-4.26219e-07 4.28406e-07 0)
(-4.75637e-07 4.46824e-07 0)
(-5.25023e-07 4.66955e-07 0)
(-4.01388e-07 4.63107e-07 0)
(-4.53202e-07 4.79715e-07 0)
(-5.04751e-07 4.9797e-07 0)
(-5.56253e-07 5.17852e-07 0)
(-4.26164e-07 5.16553e-07 0)
(-4.80008e-07 5.3307e-07 0)
(-5.33583e-07 5.51153e-07 0)
(-5.87097e-07 5.70783e-07 0)
(-4.50847e-07 5.71959e-07 0)
(-5.06623e-07 5.8837e-07 0)
(-5.62124e-07 6.06272e-07 0)
(-6.17549e-07 6.25644e-07 0)
(-4.75417e-07 6.29226e-07 0)
(-5.33028e-07 6.45521e-07 0)
(-5.9036e-07 6.63233e-07 0)
(-6.47602e-07 6.82342e-07 0)
(-4.99852e-07 6.88266e-07 0)
(-5.59209e-07 7.04432e-07 0)
(-6.18281e-07 7.21945e-07 0)
(-6.7725e-07 7.40785e-07 0)
(-5.24133e-07 7.48992e-07 0)
(-5.85149e-07 7.65017e-07 0)
(-6.45875e-07 7.82323e-07 0)
(-7.06485e-07 8.00889e-07 0)
(-5.48241e-07 8.11323e-07 0)
(-6.10833e-07 8.27197e-07 0)
(-6.7313e-07 8.44286e-07 0)
(-7.35299e-07 8.62572e-07 0)
(-5.72158e-07 8.7518e-07 0)
(-6.36247e-07 8.90891e-07 0)
(-7.00035e-07 9.07756e-07 0)
(-7.63683e-07 9.25756e-07 0)
(-5.95867e-07 9.40489e-07 0)
(-6.61376e-07 9.56027e-07 0)
(-7.26577e-07 9.72658e-07 0)
(-7.91628e-07 9.90366e-07 0)
(-6.1935e-07 1.00717e-06 0)
(-6.86205e-07 1.02253e-06 0)
(-7.52745e-07 1.03892e-06 0)
(-8.19124e-07 1.05633e-06 0)
(-6.42593e-07 1.07516e-06 0)
(-7.1072e-07 1.09033e-06 0)
(-7.78526e-07 1.10647e-06 0)
(-8.46161e-07 1.12357e-06 0)
(-6.6558e-07 1.14439e-06 0)
(-7.34908e-07 1.15935e-06 0)
(-8.03908e-07 1.17524e-06 0)
(-8.72727e-07 1.19203e-06 0)
(-6.88297e-07 1.21478e-06 0)
(-7.58755e-07 1.22953e-06 0)
(-8.28878e-07 1.24515e-06 0)
(-8.98812e-07 1.26162e-06 0)
(-7.10728e-07 1.28627e-06 0)
(-7.82248e-07 1.3008e-06 0)
(-8.53426e-07 1.31614e-06 0)
(-9.24405e-07 1.33229e-06 0)
(-7.32861e-07 1.35878e-06 0)
(-8.05374e-07 1.37308e-06 0)
(-8.77539e-07 1.38815e-06 0)
(-9.49495e-07 1.40396e-06 0)
(-7.5468e-07 1.43225e-06 0)
(-8.2812e-07 1.44632e-06 0)
(-9.01204e-07 1.4611e-06 0)
(-9.74071e-07 1.47656e-06 0)
(-7.76173e-07 1.50662e-06 0)
(-8.50473e-07 1.52044e-06 0)
(-9.24412e-07 1.53492e-06 0)
(-9.98124e-07 1.55004e-06 0)
(-7.97324e-07 1.58181e-06 0)
(-8.7242e-07 1.59538e-06 0)
(-9.4715e-07 1.60955e-06 0)
(-1.02164e-06 1.62432e-06 0)
(-8.18119e-07 1.65777e-06 0)
(-8.9395e-07 1.67107e-06 0)
(-9.69407e-07 1.68493e-06 0)
(-1.04462e-06 1.69934e-06 0)
(-8.38545e-07 1.73442e-06 0)
(-9.15049e-07 1.74745e-06 0)
(-9.91174e-07 1.761e-06 0)
(-1.06704e-06 1.77504e-06 0)
(-8.58587e-07 1.81171e-06 0)
(-9.35705e-07 1.82446e-06 0)
(-1.01244e-06 1.83768e-06 0)
(-1.08891e-06 1.85135e-06 0)
(-8.78231e-07 1.88959e-06 0)
(-9.55907e-07 1.90205e-06 0)
(-1.0332e-06 1.91493e-06 0)
(-1.11021e-06 1.92823e-06 0)
(-8.97463e-07 1.96798e-06 0)
(-9.75643e-07 1.98015e-06 0)
(-1.05343e-06 1.9927e-06 0)
(-1.13093e-06 2.00561e-06 0)
(-9.1627e-07 2.04686e-06 0)
(-9.94902e-07 2.05872e-06 0)
(-1.07313e-06 2.07092e-06 0)
(-1.15107e-06 2.08345e-06 0)
(-9.34639e-07 2.12615e-06 0)
(-1.01367e-06 2.1377e-06 0)
(-1.0923e-06 2.14955e-06 0)
(-1.17063e-06 2.16169e-06 0)
(-9.52558e-07 2.20582e-06 0)
(-1.03194e-06 2.21704e-06 0)
(-1.11092e-06 2.22854e-06 0)
(-1.18958e-06 2.24028e-06 0)
(-9.70016e-07 2.28581e-06 0)
(-1.04971e-06 2.29671e-06 0)
(-1.12898e-06 2.30784e-06 0)
(-1.20794e-06 2.31919e-06 0)
(-9.87001e-07 2.36608e-06 0)
(-1.06695e-06 2.37665e-06 0)
(-1.14648e-06 2.38741e-06 0)
(-1.22569e-06 2.39835e-06 0)
(-1.0035e-06 2.44659e-06 0)
(-1.08367e-06 2.45682e-06 0)
(-1.16341e-06 2.46721e-06 0)
(-1.24282e-06 2.47774e-06 0)
(-1.01951e-06 2.52729e-06 0)
(-1.09985e-06 2.53717e-06 0)
(-1.17976e-06 2.54718e-06 0)
(-1.25933e-06 2.5573e-06 0)
(-1.03502e-06 2.60813e-06 0)
(-1.11549e-06 2.61766e-06 0)
(-1.19552e-06 2.62729e-06 0)
(-1.27521e-06 2.637e-06 0)
(-1.05001e-06 2.68908e-06 0)
(-1.13057e-06 2.69826e-06 0)
(-1.21069e-06 2.7075e-06 0)
(-1.29046e-06 2.71679e-06 0)
(-1.06448e-06 2.7701e-06 0)
(-1.14509e-06 2.77891e-06 0)
(-1.22527e-06 2.78775e-06 0)
(-1.30507e-06 2.79663e-06 0)
(-1.07842e-06 2.85113e-06 0)
(-1.15905e-06 2.85958e-06 0)
(-1.23923e-06 2.86803e-06 0)
(-1.31904e-06 2.87648e-06 0)
(-1.09181e-06 2.93216e-06 0)
(-1.17242e-06 2.94023e-06 0)
(-1.25259e-06 2.94828e-06 0)
(-1.33238e-06 2.95631e-06 0)
(-1.10465e-06 3.01314e-06 0)
(-1.18522e-06 3.02083e-06 0)
(-1.26534e-06 3.02847e-06 0)
(-1.34507e-06 3.03608e-06 0)
(-1.11692e-06 3.09404e-06 0)
(-1.19742e-06 3.10134e-06 0)
(-1.27747e-06 3.10859e-06 0)
(-1.35712e-06 3.11577e-06 0)
(-1.12861e-06 3.17485e-06 0)
(-1.20902e-06 3.18175e-06 0)
(-1.28897e-06 3.18859e-06 0)
(-1.36852e-06 3.19535e-06 0)
(-1.13972e-06 3.25553e-06 0)
(-1.22001e-06 3.26204e-06 0)
(-1.29986e-06 3.26846e-06 0)
(-1.37929e-06 3.27479e-06 0)
(-1.15022e-06 3.33607e-06 0)
(-1.23039e-06 3.34218e-06 0)
(-1.31011e-06 3.34818e-06 0)
(-1.38941e-06 3.3541e-06 0)
(-1.16011e-06 3.41647e-06 0)
(-1.24014e-06 3.42216e-06 0)
(-1.31974e-06 3.42775e-06 0)
(-1.3989e-06 3.43324e-06 0)
(-1.16938e-06 3.49672e-06 0)
(-1.24927e-06 3.50199e-06 0)
(-1.32873e-06 3.50716e-06 0)
(-1.40776e-06 3.51223e-06 0)
(-1.17801e-06 3.57681e-06 0)
(-1.25777e-06 3.58166e-06 0)
(-1.33709e-06 3.58641e-06 0)
(-1.41598e-06 3.59106e-06 0)
(-1.186e-06 3.65676e-06 0)
(-1.26562e-06 3.66117e-06 0)
(-1.34482e-06 3.6655e-06 0)
(-1.42356e-06 3.66973e-06 0)
(-1.19333e-06 3.73656e-06 0)
(-1.27283e-06 3.74054e-06 0)
(-1.3519e-06 3.74444e-06 0)
(-1.43052e-06 3.74825e-06 0)
(-1.20001e-06 3.81623e-06 0)
(-1.27939e-06 3.81978e-06 0)
(-1.35834e-06 3.82324e-06 0)
(-1.43684e-06 3.82663e-06 0)
(-1.20601e-06 3.89579e-06 0)
(-1.28529e-06 3.8989e-06 0)
(-1.36414e-06 3.90193e-06 0)
(-1.44254e-06 3.90489e-06 0)
(-1.21134e-06 3.97526e-06 0)
(-1.29053e-06 3.97791e-06 0)
(-1.36929e-06 3.98051e-06 0)
(-1.4476e-06 3.98305e-06 0)
(-1.21598e-06 4.05465e-06 0)
(-1.2951e-06 4.05685e-06 0)
(-1.37379e-06 4.05901e-06 0)
(-1.45203e-06 4.06112e-06 0)
(-1.21994e-06 4.13398e-06 0)
(-1.299e-06 4.13573e-06 0)
(-1.37763e-06 4.13744e-06 0)
(-1.45582e-06 4.13912e-06 0)
(-1.22322e-06 4.21328e-06 0)
(-1.30223e-06 4.21458e-06 0)
(-1.38082e-06 4.21584e-06 0)
(-1.45897e-06 4.21708e-06 0)
(-1.22579e-06 4.29257e-06 0)
(-1.30476e-06 4.2934e-06 0)
(-1.38333e-06 4.29421e-06 0)
(-1.46147e-06 4.29502e-06 0)
(-1.22771e-06 4.37185e-06 0)
(-1.30664e-06 4.37223e-06 0)
(-1.38519e-06 4.37259e-06 0)
(-1.46334e-06 4.37295e-06 0)
(-1.22888e-06 4.45105e-06 0)
(-1.30779e-06 4.45105e-06 0)
(-1.38633e-06 4.45102e-06 0)
(-1.4645e-06 4.45101e-06 0)
)
;

boundaryField
{
    plateFix
    {
        type            fixedDisplacement;
        value           uniform (0 0 0);
    }
    plate
    {
        type            solidTraction;
        nonLinear       updatedLagrangian;
        traction        uniform (0 0 0);
        pressure        uniform 0;
        value           nonuniform List<vector> 
168
(
(-2.08991e-08 -1.08159e-08 2.11879e-26)
(-2.75301e-08 1.56304e-08 -3.12732e-26)
(-1.95277e-08 -1.77316e-08 -1.2905e-27)
(-2.74726e-08 2.4755e-08 3.80583e-26)
(-1.93342e-08 -2.28492e-08 -2.15168e-26)
(-2.95573e-08 3.19701e-08 -1.19752e-27)
(-2.06438e-08 -2.6066e-08 5.20896e-27)
(-3.39093e-08 3.72864e-08 9.60727e-27)
(-2.3395e-08 -2.78318e-08 3.80038e-29)
(-4.03549e-08 4.14897e-08 -7.10973e-27)
(-2.73132e-08 -2.83278e-08 2.47401e-27)
(-4.84721e-08 4.49738e-08 -4.20704e-27)
(-3.2246e-08 -2.77413e-08 1.98724e-26)
(-5.80324e-08 4.81531e-08 2.66209e-27)
(-3.80693e-08 -2.61635e-08 -2.00082e-26)
(-6.88604e-08 5.13245e-08 2.94535e-27)
(-4.47158e-08 -2.36436e-08 -1.3506e-26)
(-8.08665e-08 5.47524e-08 -2.59817e-27)
(-5.21448e-08 -2.01789e-08 1.23757e-26)
(-9.40021e-08 5.86618e-08 -9.67304e-28)
(-6.03422e-08 -1.57264e-08 1.19809e-26)
(-1.08254e-07 6.32617e-08 1.00721e-26)
(-6.93105e-08 -1.02038e-08 -1.00059e-26)
(-1.23632e-07 6.87518e-08 -1.17347e-26)
(-7.90684e-08 -3.4924e-09 -3.7399e-29)
(-1.4016e-07 7.53318e-08 1.52483e-27)
(-8.96472e-08 4.56238e-09 1.4448e-27)
(-1.57877e-07 8.32075e-08 -1.47795e-27)
(-1.01091e-07 1.41495e-08 -2.67718e-27)
(-1.76831e-07 9.25974e-08 -4.97453e-27)
(-1.13453e-07 2.54923e-08 5.22566e-27)
(-1.97079e-07 1.03738e-07 -1.2268e-27)
(-1.268e-07 3.8848e-08 -9.65873e-27)
(-2.18684e-07 1.16888e-07 1.02372e-26)
(-1.41205e-07 5.45087e-08 3.03372e-27)
(-2.41717e-07 1.32336e-07 -7.57214e-28)
(-1.5675e-07 7.28022e-08 1.90726e-27)
(-2.66249e-07 1.50401e-07 -3.35457e-27)
(-1.73524e-07 9.40946e-08 -5.72368e-27)
(-2.9236e-07 1.7144e-07 -2.55243e-27)
(-1.91623e-07 1.18792e-07 4.50483e-27)
(-3.20128e-07 1.95851e-07 4.53044e-27)
(-2.11148e-07 1.47345e-07 1.00614e-27)
(-3.49635e-07 2.24073e-07 9.29974e-28)
(-2.33009e-07 1.81504e-07 -5.80775e-27)
(-3.82155e-07 2.57835e-07 -5.42469e-27)
(-2.56529e-07 2.2086e-07 -1.60988e-27)
(-4.16559e-07 2.96727e-07 8.03074e-27)
(-2.80149e-07 2.62875e-07 -1.12518e-28)
(-4.50546e-07 3.38241e-07 -9.17089e-27)
(-3.03848e-07 3.07421e-07 1.52889e-27)
(-4.8411e-07 3.82247e-07 -2.02623e-27)
(-3.27601e-07 3.54374e-07 5.77898e-27)
(-5.17248e-07 4.28621e-07 -7.86534e-28)
(-3.51385e-07 4.03614e-07 -9.20754e-27)
(-5.49955e-07 4.77246e-07 -1.85982e-27)
(-3.75175e-07 4.55029e-07 3.20914e-27)
(-5.82227e-07 5.28009e-07 2.72953e-28)
(-3.98946e-07 5.08511e-07 2.24334e-29)
(-6.14062e-07 5.80802e-07 -5.06443e-27)
(-4.22674e-07 5.63958e-07 -2.91698e-27)
(-6.45455e-07 6.35525e-07 -3.81424e-27)
(-4.46334e-07 6.21274e-07 -1.81154e-27)
(-6.76403e-07 6.92081e-07 8.3183e-27)
(-4.69905e-07 6.80369e-07 6.92119e-27)
(-7.06902e-07 7.50381e-07 -1.6655e-26)
(-4.93363e-07 7.41157e-07 -5.43114e-27)
(-7.36946e-07 8.10339e-07 7.03083e-28)
(-5.16689e-07 8.03555e-07 5.75676e-27)
(-7.6653e-07 8.71873e-07 1.14281e-26)
(-5.39862e-07 8.67485e-07 -1.81751e-26)
(-7.95645e-07 9.34906e-07 -1.36473e-27)
(-5.62864e-07 9.32871e-07 1.12245e-26)
(-8.24283e-07 9.99362e-07 7.98978e-27)
(-5.85677e-07 9.9964e-07 -1.88428e-27)
(-8.52437e-07 1.06517e-06 -1.00604e-26)
(-6.08286e-07 1.06772e-06 7.37443e-27)
(-8.80095e-07 1.13225e-06 -1.56183e-28)
(-6.30674e-07 1.13704e-06 -1.58606e-26)
(-9.07248e-07 1.20054e-06 1.14252e-26)
(-6.52826e-07 1.20753e-06 5.16865e-27)
(-9.33886e-07 1.26997e-06 -1.64461e-26)
(-6.74728e-07 1.27912e-06 1.51597e-27)
(-9.59997e-07 1.34046e-06 4.86667e-27)
(-6.96365e-07 1.35174e-06 4.70073e-27)
(-9.8557e-07 1.41196e-06 9.38251e-27)
(-7.17723e-07 1.42532e-06 1.55358e-26)
(-1.0106e-06 1.48439e-06 -6.70143e-27)
(-7.38787e-07 1.4998e-06 -3.81237e-26)
(-1.03507e-06 1.55768e-06 -1.65209e-27)
(-7.59542e-07 1.57511e-06 1.95435e-27)
(-1.05897e-06 1.63178e-06 -7.15412e-28)
(-7.79974e-07 1.65119e-06 1.07715e-26)
(-1.0823e-06 1.70661e-06 -1.11257e-26)
(-8.00066e-07 1.72798e-06 7.43413e-28)
(-1.10505e-06 1.78212e-06 1.03852e-26)
(-8.19804e-07 1.8054e-06 -1.23494e-26)
(-1.1272e-06 1.85825e-06 -1.24087e-26)
(-8.39172e-07 1.88341e-06 -1.41901e-26)
(-1.14877e-06 1.93493e-06 -1.27091e-26)
(-8.58155e-07 1.96196e-06 1.24479e-26)
(-1.16973e-06 2.01212e-06 1.22529e-26)
(-8.76739e-07 2.04098e-06 1.18958e-26)
(-1.19008e-06 2.08975e-06 4.48126e-28)
(-8.9491e-07 2.12042e-06 -1.00646e-27)
(-1.20982e-06 2.16779e-06 -3.32757e-28)
(-9.12655e-07 2.20024e-06 1.45581e-26)
(-1.22894e-06 2.24618e-06 1.46009e-26)
(-9.29962e-07 2.28039e-06 1.54658e-26)
(-1.24744e-06 2.32488e-06 -3.04868e-26)
(-9.46818e-07 2.36083e-06 -1.69247e-26)
(-1.2653e-06 2.40384e-06 1.61313e-26)
(-9.63214e-07 2.4415e-06 1.45543e-26)
(-1.28253e-06 2.48302e-06 1.62875e-26)
(-9.79139e-07 2.52237e-06 3.32608e-26)
(-1.29911e-06 2.56238e-06 -2.14477e-28)
(-9.94582e-07 2.60338e-06 -3.38759e-26)
(-1.31505e-06 2.64186e-06 -1.76087e-26)
(-1.00953e-06 2.68451e-06 5.11942e-26)
(-1.33033e-06 2.72144e-06 1.7555e-26)
(-1.02398e-06 2.7657e-06 -1.25544e-27)
(-1.34495e-06 2.80106e-06 -3.66517e-26)
(-1.03791e-06 2.84692e-06 -1.63066e-26)
(-1.35892e-06 2.8807e-06 1.85272e-26)
(-1.05132e-06 2.92812e-06 -1.27574e-27)
(-1.37223e-06 2.96031e-06 7.54374e-29)
(-1.06419e-06 3.00929e-06 -3.49306e-28)
(-1.38489e-06 3.03987e-06 7.26097e-28)
(-1.07651e-06 3.09039e-06 -2.6043e-30)
(-1.39688e-06 3.11935e-06 2.02928e-26)
(-1.08826e-06 3.17138e-06 -1.97277e-26)
(-1.40823e-06 3.19871e-06 -7.81375e-28)
(-1.09943e-06 3.25226e-06 1.72409e-29)
(-1.41892e-06 3.27795e-06 2.08368e-26)
(-1.11e-06 3.33301e-06 -2.27852e-26)
(-1.42897e-06 3.35704e-06 -2.1619e-26)
(-1.11997e-06 3.41361e-06 -4.46953e-26)
(-1.43838e-06 3.43597e-06 -2.26759e-26)
(-1.12931e-06 3.49407e-06 -1.29052e-29)
(-1.44715e-06 3.51475e-06 2.34418e-26)
(-1.13803e-06 3.57437e-06 8.49566e-28)
(-1.45529e-06 3.59337e-06 8.39092e-30)
(-1.14609e-06 3.65453e-06 2.3095e-26)
(-1.4628e-06 3.67183e-06 -2.39409e-26)
(-1.1535e-06 3.73455e-06 -2.33883e-26)
(-1.46969e-06 3.75014e-06 2.44632e-26)
(-1.16023e-06 3.81445e-06 -4.22982e-28)
(-1.47595e-06 3.82831e-06 -2.4575e-26)
(-1.16629e-06 3.89423e-06 -2.57008e-26)
(-1.48159e-06 3.90636e-06 2.52297e-26)
(-1.17167e-06 3.97392e-06 5.1656e-26)
(-1.4866e-06 3.98431e-06 1.47193e-29)
(-1.17635e-06 4.05354e-06 2.64696e-26)
(-1.49099e-06 4.06217e-06 -2.67607e-26)
(-1.18034e-06 4.1331e-06 2.69887e-26)
(-1.49476e-06 4.13996e-06 2.71843e-26)
(-1.18363e-06 4.21263e-06 -2.74967e-26)
(-1.4979e-06 4.2177e-06 -5.60532e-26)
(-1.18622e-06 4.29214e-06 -2.83271e-26)
(-1.50039e-06 4.29542e-06 8.37832e-26)
(-1.18816e-06 4.37166e-06 -5.7072e-26)
(-1.5023e-06 4.37313e-06 7.69796e-28)
(-1.1894e-06 4.45106e-06 -2.87031e-26)
(-1.22923e-06 4.49057e-06 -7.66265e-27)
(-1.30814e-06 4.49047e-06 8.67108e-27)
(-1.38669e-06 4.49025e-06 -8.95936e-27)
(-1.46485e-06 4.49012e-06 -3.04726e-29)
(-1.50353e-06 4.451e-06 4.31185e-28)
)
;
    }
    frontAndBackPlanes
    {
        type            empty;
    }
}


// ************************************************************************* //
