/*--------------------------------*- C++ -*----------------------------------*\
| =========                 |                                                 |
| \\      /  F ield         | OpenFOAM Extend Project: Open source CFD        |
|  \\    /   O peration     | Version:  1.6-ext                               |
|   \\  /    A nd           | Web:      www.extend-project.de                 |
|    \\/     M anipulation  |                                                 |
\*---------------------------------------------------------------------------*/
FoamFile
{
    version     2.0;
    format      ascii;
    class       volVectorField;
    location    "0.75";
    object      DV;
}
// * * * * * * * * * * * * * * * * * * * * * * * * * * * * * * * * * * * * * //

dimensions      [0 1 -1 0 0 0 0];

internalField   nonuniform List<vector> 
328
(
(-1.53778e-07 -3.04779e-07 0)
(-9.33581e-08 -6.85396e-08 0)
(-8.7414e-08 4.42358e-08 0)
(-1.19293e-07 2.3557e-07 0)
(-4.67867e-07 -7.92159e-07 0)
(-3.09685e-07 -2.11736e-07 0)
(-2.88757e-07 1.17659e-07 0)
(-3.63855e-07 5.93988e-07 0)
(-8.30206e-07 -1.17102e-06 0)
(-6.00924e-07 -3.60699e-07 0)
(-5.58323e-07 1.73557e-07 0)
(-6.49467e-07 8.44084e-07 0)
(-1.22344e-06 -1.4609e-06 0)
(-9.42025e-07 -5.06577e-07 0)
(-8.74827e-07 2.04433e-07 0)
(-9.62827e-07 1.00116e-06 0)
(-1.65204e-06 -1.68646e-06 0)
(-1.33749e-06 -6.45885e-07 0)
(-1.24302e-06 2.07842e-07 0)
(-1.30881e-06 1.08555e-06 0)
(-2.11357e-06 -1.86714e-06 0)
(-1.77906e-06 -7.77935e-07 0)
(-1.65616e-06 1.82724e-07 0)
(-1.68652e-06 1.11239e-06 0)
(-2.60999e-06 -2.01947e-06 0)
(-2.26555e-06 -9.05054e-07 0)
(-2.11367e-06 1.2986e-07 0)
(-2.09872e-06 1.09347e-06 0)
(-3.14253e-06 -2.15661e-06 0)
(-2.79384e-06 -1.03121e-06 0)
(-2.61315e-06 5.0274e-08 0)
(-2.54756e-06 1.03674e-06 0)
(-3.71336e-06 -2.28958e-06 0)
(-3.36312e-06 -1.1616e-06 0)
(-3.15426e-06 -5.50255e-08 0)
(-3.03601e-06 9.47568e-07 0)
(-4.32452e-06 -2.42746e-06 0)
(-3.9729e-06 -1.30189e-06 0)
(-3.73698e-06 -1.85629e-07 0)
(-3.56716e-06 8.29035e-07 0)
(-4.97806e-06 -2.57788e-06 0)
(-4.6239e-06 -1.45772e-06 0)
(-4.36249e-06 -3.41751e-07 0)
(-4.14445e-06 6.82622e-07 0)
(-5.67581e-06 -2.74693e-06 0)
(-5.31748e-06 -1.63415e-06 0)
(-5.03276e-06 -5.24131e-07 0)
(-4.77164e-06 5.08704e-07 0)
(-6.41936e-06 -2.93917e-06 0)
(-6.05576e-06 -1.83522e-06 0)
(-5.75063e-06 -7.3362e-07 0)
(-5.45294e-06 3.07184e-07 0)
(-7.21002e-06 -3.15725e-06 0)
(-6.84134e-06 -2.06338e-06 0)
(-6.51968e-06 -9.70605e-07 0)
(-6.19304e-06 7.81818e-08 0)
(-8.0489e-06 -3.40161e-06 0)
(-7.67722e-06 -2.31897e-06 0)
(-7.34412e-06 -1.2343e-06 0)
(-6.9972e-06 -1.77226e-07 0)
(-8.93699e-06 -3.6701e-06 0)
(-8.56668e-06 -2.59975e-06 0)
(-8.22862e-06 -1.52201e-06 0)
(-7.87115e-06 -4.56269e-07 0)
(-9.87542e-06 -3.95764e-06 0)
(-9.5132e-06 -2.90047e-06 0)
(-9.17822e-06 -1.82851e-06 0)
(-8.821e-06 -7.53866e-07 0)
(-1.08656e-05 -4.25611e-06 0)
(-1.05205e-05 -3.21273e-06 0)
(-1.01981e-05 -2.14568e-06 0)
(-9.85299e-06 -1.06222e-06 0)
(-1.19097e-05 -4.55441e-06 0)
(-1.15924e-05 -3.52505e-06 0)
(-1.12936e-05 -2.46239e-06 0)
(-1.09732e-05 -1.37074e-06 0)
(-1.30107e-05 -4.83886e-06 0)
(-1.27331e-05 -3.82327e-06 0)
(-1.24699e-05 -2.76488e-06 0)
(-1.21874e-05 -1.66625e-06 0)
(-1.41726e-05 -5.09376e-06 0)
(-1.39472e-05 -4.09123e-06 0)
(-1.37321e-05 -3.03727e-06 0)
(-1.35005e-05 -1.93354e-06 0)
(-1.54007e-05 -5.30199e-06 0)
(-1.52397e-05 -4.31146e-06 0)
(-1.50848e-05 -3.26239e-06 0)
(-1.49167e-05 -2.15594e-06 0)
(-1.67507e-05 -5.451e-06 0)
(-1.66683e-05 -4.4715e-06 0)
(-1.65879e-05 -3.42816e-06 0)
(-1.64977e-05 -2.3219e-06 0)
(-1.81796e-05 -5.50576e-06 0)
(-1.81859e-05 -4.53578e-06 0)
(-1.81907e-05 -3.49903e-06 0)
(-1.81886e-05 -2.39632e-06 0)
(-1.95964e-05 -5.45586e-06 0)
(-1.96929e-05 -4.49344e-06 0)
(-1.97848e-05 -3.46377e-06 0)
(-1.98724e-05 -2.36757e-06 0)
(-2.10045e-05 -5.30294e-06 0)
(-2.11901e-05 -4.34646e-06 0)
(-2.13682e-05 -3.32433e-06 0)
(-2.15443e-05 -2.23723e-06 0)
(-2.24069e-05 -5.05002e-06 0)
(-2.2678e-05 -4.09802e-06 0)
(-2.2939e-05 -3.08387e-06 0)
(-2.32001e-05 -2.00827e-06 0)
(-2.38063e-05 -4.70193e-06 0)
(-2.41571e-05 -3.75301e-06 0)
(-2.44952e-05 -2.74727e-06 0)
(-2.48357e-05 -1.68542e-06 0)
(-2.52056e-05 -4.26585e-06 0)
(-2.56281e-05 -3.3187e-06 0)
(-2.60353e-05 -2.3218e-06 0)
(-2.64469e-05 -1.27584e-06 0)
(-2.66077e-05 -3.75182e-06 0)
(-2.70913e-05 -2.80523e-06 0)
(-2.75574e-05 -1.81754e-06 0)
(-2.80297e-05 -7.89492e-07 0)
(-2.80148e-05 -3.17266e-06 0)
(-2.85471e-05 -2.22559e-06 0)
(-2.90599e-05 -1.24751e-06 0)
(-2.95804e-05 -2.39174e-07 0)
(-2.94291e-05 -2.5437e-06 0)
(-2.99958e-05 -1.59538e-06 0)
(-3.05414e-05 -6.27276e-07 0)
(-3.10958e-05 3.59828e-07 0)
(-3.08517e-05 -1.88215e-06 0)
(-3.14372e-05 -9.32091e-07 0)
(-3.20005e-05 2.56633e-08 0)
(-3.25732e-05 9.90321e-07 0)
(-3.22835e-05 -1.20645e-06 0)
(-3.28714e-05 -2.54508e-07 0)
(-3.34362e-05 6.92542e-07 0)
(-3.40107e-05 1.63388e-06 0)
(-3.37244e-05 -5.35647e-07 0)
(-3.42977e-05 4.18017e-07 0)
(-3.48476e-05 1.35401e-06 0)
(-3.5407e-05 2.2715e-06 0)
(-3.51737e-05 1.11199e-07 0)
(-3.57155e-05 1.0661e-06 0)
(-3.6234e-05 1.99068e-06 0)
(-3.67614e-05 2.88411e-06 0)
(-3.66302e-05 7.15407e-07 0)
(-3.7124e-05 1.67076e-06 0)
(-3.7595e-05 2.58358e-06 0)
(-3.80738e-05 3.45303e-06 0)
(-3.8092e-05 1.25907e-06 0)
(-3.85222e-05 2.21383e-06 0)
(-3.89303e-05 3.11454e-06 0)
(-3.93449e-05 3.96036e-06 0)
(-3.95569e-05 1.72539e-06 0)
(-3.99088e-05 2.67826e-06 0)
(-4.02397e-05 3.56651e-06 0)
(-4.05755e-05 4.38929e-06 0)
(-4.10221e-05 2.09899e-06 0)
(-4.12825e-05 3.04848e-06 0)
(-4.15233e-05 3.92391e-06 0)
(-4.1767e-05 4.72445e-06 0)
(-4.24846e-05 2.36624e-06 0)
(-4.26419e-05 3.31065e-06 0)
(-4.27812e-05 4.17291e-06 0)
(-4.29213e-05 4.95217e-06 0)
(-4.39407e-05 2.51554e-06 0)
(-4.39853e-05 3.45303e-06 0)
(-4.40137e-05 4.30174e-06 0)
(-4.40405e-05 5.06084e-06 0)
(-4.5387e-05 2.53749e-06 0)
(-4.53112e-05 3.4661e-06 0)
(-4.5221e-05 4.30089e-06 0)
(-4.5127e-05 5.04104e-06 0)
(-4.68194e-05 2.42509e-06 0)
(-4.66178e-05 3.34277e-06 0)
(-4.64037e-05 4.16325e-06 0)
(-4.61833e-05 4.88573e-06 0)
(-4.82341e-05 2.17374e-06 0)
(-4.79034e-05 3.0784e-06 0)
(-4.75622e-05 3.88418e-06 0)
(-4.72121e-05 4.59028e-06 0)
(-4.96272e-05 1.78127e-06 0)
(-4.91663e-05 2.67079e-06 0)
(-4.86968e-05 3.46145e-06 0)
(-4.8216e-05 4.15248e-06 0)
(-5.09946e-05 1.24783e-06 0)
(-5.04046e-05 2.12009e-06 0)
(-4.98081e-05 2.89522e-06 0)
(-4.91977e-05 3.57246e-06 0)
(-5.23324e-05 5.75886e-07 0)
(-5.16168e-05 1.42877e-06 0)
(-5.08965e-05 2.18793e-06 0)
(-5.016e-05 2.85264e-06 0)
(-5.36368e-05 -2.29878e-07 0)
(-5.2801e-05 6.01546e-07 0)
(-5.19625e-05 1.3443e-06 0)
(-5.11052e-05 1.99767e-06 0)
(-5.49041e-05 -1.16257e-06 0)
(-5.39557e-05 -3.5465e-07 0)
(-5.30064e-05 3.71251e-07 0)
(-5.20362e-05 1.01443e-06 0)
(-5.61305e-05 -2.2131e-06 0)
(-5.50793e-05 -1.43067e-06 0)
(-5.40288e-05 -7.22078e-07 0)
(-5.29551e-05 -8.80114e-08 0)
(-5.73126e-05 -3.37018e-06 0)
(-5.61701e-05 -2.61513e-06 0)
(-5.50299e-05 -1.92431e-06 0)
(-5.38645e-05 -1.29838e-06 0)
(-5.84471e-05 -4.62038e-06 0)
(-5.72267e-05 -3.89447e-06 0)
(-5.60101e-05 -3.22189e-06 0)
(-5.47664e-05 -2.60325e-06 0)
(-5.95309e-05 -5.94823e-06 0)
(-5.82478e-05 -5.25304e-06 0)
(-5.69696e-05 -4.59915e-06 0)
(-5.56628e-05 -3.98713e-06 0)
(-6.05615e-05 -7.33639e-06 0)
(-5.92322e-05 -6.67329e-06 0)
(-5.79086e-05 -6.03854e-06 0)
(-5.65552e-05 -5.43266e-06 0)
(-6.15368e-05 -8.76599e-06 0)
(-6.01788e-05 -8.13607e-06 0)
(-5.8827e-05 -7.52088e-06 0)
(-5.74446e-05 -6.92094e-06 0)
(-6.24553e-05 -1.0217e-05 0)
(-6.10869e-05 -9.62099e-06 0)
(-5.97249e-05 -9.0258e-06 0)
(-5.83318e-05 -8.43186e-06 0)
(-6.33162e-05 -1.16686e-05 0)
(-6.1956e-05 -1.1107e-05 0)
(-6.06018e-05 -1.05322e-05 0)
(-5.92167e-05 -9.94464e-06 0)
(-6.41192e-05 -1.30999e-05 0)
(-6.27856e-05 -1.25728e-05 0)
(-6.14573e-05 -1.20188e-05 0)
(-6.00985e-05 -1.14383e-05 0)
(-6.48649e-05 -1.44906e-05 0)
(-6.35758e-05 -1.39977e-05 0)
(-6.22907e-05 -1.34648e-05 0)
(-6.0976e-05 -1.28924e-05 0)
(-6.55547e-05 -1.58211e-05 0)
(-6.43266e-05 -1.53618e-05 0)
(-6.31011e-05 -1.48504e-05 0)
(-6.18473e-05 -1.42874e-05 0)
(-6.61903e-05 -1.70736e-05 0)
(-6.50385e-05 -1.66469e-05 0)
(-6.38874e-05 -1.61573e-05 0)
(-6.27097e-05 -1.56052e-05 0)
(-6.67741e-05 -1.82319e-05 0)
(-6.57121e-05 -1.78368e-05 0)
(-6.46485e-05 -1.73693e-05 0)
(-6.35603e-05 -1.68299e-05 0)
(-6.7309e-05 -1.92827e-05 0)
(-6.6348e-05 -1.89178e-05 0)
(-6.53831e-05 -1.84727e-05 0)
(-6.43957e-05 -1.79479e-05 0)
(-6.7798e-05 -2.02149e-05 0)
(-6.6947e-05 -1.98787e-05 0)
(-6.60896e-05 -1.94562e-05 0)
(-6.5212e-05 -1.89481e-05 0)
(-6.82444e-05 -2.10205e-05 0)
(-6.75101e-05 -2.07113e-05 0)
(-6.67667e-05 -2.03118e-05 0)
(-6.60054e-05 -1.98224e-05 0)
(-6.86515e-05 -2.16939e-05 0)
(-6.8038e-05 -2.14103e-05 0)
(-6.74129e-05 -2.1034e-05 0)
(-6.6772e-05 -2.05654e-05 0)
(-6.90226e-05 -2.22327e-05 0)
(-6.85317e-05 -2.19731e-05 0)
(-6.80266e-05 -2.16202e-05 0)
(-6.7508e-05 -2.11744e-05 0)
(-6.93606e-05 -2.26368e-05 0)
(-6.89919e-05 -2.23997e-05 0)
(-6.86064e-05 -2.20704e-05 0)
(-6.82096e-05 -2.16494e-05 0)
(-6.96686e-05 -2.29083e-05 0)
(-6.94194e-05 -2.26924e-05 0)
(-6.9151e-05 -2.23869e-05 0)
(-6.88733e-05 -2.19924e-05 0)
(-6.99491e-05 -2.30519e-05 0)
(-6.98148e-05 -2.28559e-05 0)
(-6.96591e-05 -2.25744e-05 0)
(-6.94959e-05 -2.22081e-05 0)
(-7.02046e-05 -2.3074e-05 0)
(-7.01788e-05 -2.28967e-05 0)
(-7.01295e-05 -2.26395e-05 0)
(-7.00743e-05 -2.23027e-05 0)
(-7.04373e-05 -2.2983e-05 0)
(-7.05118e-05 -2.28234e-05 0)
(-7.05611e-05 -2.25905e-05 0)
(-7.0606e-05 -2.22847e-05 0)
(-7.06489e-05 -2.27888e-05 0)
(-7.08143e-05 -2.26461e-05 0)
(-7.0953e-05 -2.24377e-05 0)
(-7.10886e-05 -2.21637e-05 0)
(-7.08411e-05 -2.25031e-05 0)
(-7.10868e-05 -2.23765e-05 0)
(-7.13045e-05 -2.21926e-05 0)
(-7.15203e-05 -2.19514e-05 0)
(-7.10151e-05 -2.21386e-05 0)
(-7.13293e-05 -2.20277e-05 0)
(-7.16151e-05 -2.18684e-05 0)
(-7.18996e-05 -2.16604e-05 0)
(-7.11716e-05 -2.1709e-05 0)
(-7.15422e-05 -2.16136e-05 0)
(-7.18844e-05 -2.1479e-05 0)
(-7.22257e-05 -2.13045e-05 0)
(-7.13111e-05 -2.12289e-05 0)
(-7.17252e-05 -2.11488e-05 0)
(-7.21121e-05 -2.10393e-05 0)
(-7.24983e-05 -2.08982e-05 0)
(-7.14333e-05 -2.07125e-05 0)
(-7.18781e-05 -2.06483e-05 0)
(-7.22979e-05 -2.05642e-05 0)
(-7.27175e-05 -2.04562e-05 0)
(-7.15376e-05 -2.0175e-05 0)
(-7.19999e-05 -2.01279e-05 0)
(-7.24417e-05 -2.00693e-05 0)
(-7.28845e-05 -1.99931e-05 0)
(-7.16219e-05 -1.96359e-05 0)
(-7.20893e-05 -1.96061e-05 0)
(-7.2544e-05 -1.95709e-05 0)
(-7.3002e-05 -1.95241e-05 0)
(-7.16838e-05 -1.91272e-05 0)
(-7.21472e-05 -1.91066e-05 0)
(-7.26066e-05 -1.90842e-05 0)
(-7.30727e-05 -1.90536e-05 0)
)
;

boundaryField
{
    plateFix
    {
        type            calculated;
        value           uniform (0 0 0);
    }
    plate
    {
        type            calculated;
        value           nonuniform List<vector> 
168
(
(-1.50576e-06 -8.11718e-07 -5.50631e-23)
(-1.14169e-06 6.34009e-07 1.04259e-22)
(-1.48441e-06 -1.31452e-06 1.53268e-23)
(-1.07743e-06 1.00787e-06 -1.47408e-22)
(-1.5633e-06 -1.71581e-06 7.88894e-23)
(-1.09425e-06 1.28041e-06 6.95971e-23)
(-1.75112e-06 -2.0135e-06 -2.08783e-23)
(-1.20815e-06 1.44882e-06 -5.42902e-23)
(-2.04031e-06 -2.24473e-06 -2.01946e-23)
(-1.41365e-06 1.54367e-06 2.01837e-23)
(-2.41054e-06 -2.42737e-06 -2.09859e-23)
(-1.69279e-06 1.57857e-06 8.32127e-25)
(-2.85069e-06 -2.58059e-06 -3.89487e-23)
(-2.03572e-06 1.56725e-06 2.44237e-24)
(-3.35178e-06 -2.71763e-06 5.81411e-23)
(-2.43497e-06 1.5176e-06 -4.32099e-24)
(-3.90874e-06 -2.84993e-06 4.16375e-23)
(-2.88697e-06 1.43531e-06 -1.34664e-23)
(-4.51812e-06 -2.98649e-06 -4.46655e-23)
(-3.39022e-06 1.32343e-06 2.329e-23)
(-5.17779e-06 -3.13481e-06 -2.84973e-23)
(-3.9453e-06 1.18354e-06 -2.32258e-23)
(-5.88615e-06 -3.30084e-06 2.81173e-23)
(-4.55431e-06 1.01608e-06 6.93299e-24)
(-6.64189e-06 -3.48897e-06 1.21085e-23)
(-5.22086e-06 8.21066e-07 5.8549e-24)
(-7.44372e-06 -3.70178e-06 -1.66399e-23)
(-5.94984e-06 5.98701e-07 1.47006e-24)
(-8.29047e-06 -3.93975e-06 1.20503e-23)
(-6.7473e-06 3.50114e-07 1.91791e-23)
(-9.18118e-06 -4.20084e-06 -2.33852e-23)
(-7.62003e-06 7.80405e-08 -6.30347e-24)
(-1.01154e-05 -4.48021e-06 3.50889e-23)
(-8.57526e-06 -2.12585e-07 -3.00306e-23)
(-1.10936e-05 -4.77005e-06 -1.64994e-23)
(-9.62011e-06 -5.14222e-07 1.41281e-23)
(-1.21174e-05 -5.05967e-06 -1.48006e-24)
(-1.07611e-05 -8.16614e-07 7.38037e-24)
(-1.31901e-05 -5.33575e-06 8.03127e-24)
(-1.20037e-05 -1.10697e-06 1.2257e-23)
(-1.43165e-05 -5.58293e-06 -4.29966e-24)
(-1.33522e-05 -1.37045e-06 -1.61417e-23)
(-1.55029e-05 -5.78432e-06 -5.57278e-24)
(-1.48098e-05 -1.59063e-06 5.73359e-24)
(-1.68046e-05 -5.92734e-06 1.55619e-23)
(-1.64389e-05 -1.75616e-06 8.45955e-24)
(-1.81811e-05 -5.97713e-06 -2.57141e-24)
(-1.81819e-05 -1.83214e-06 -1.41667e-23)
(-1.95461e-05 -5.92348e-06 7.19779e-24)
(-1.99172e-05 -1.80671e-06 2.4958e-23)
(-2.09035e-05 -5.76784e-06 -1.2915e-23)
(-2.16396e-05 -1.68119e-06 7.76484e-24)
(-2.22571e-05 -5.51316e-06 -1.52926e-23)
(-2.33439e-05 -1.45847e-06 -3.7069e-24)
(-2.36108e-05 -5.16423e-06 2.15284e-23)
(-2.50249e-05 -1.14325e-06 1.00237e-24)
(-2.49688e-05 -4.72826e-06 -6.29804e-24)
(-2.66772e-05 -7.42633e-07 4.44055e-24)
(-2.63351e-05 -4.21519e-06 -3.06081e-25)
(-2.82954e-05 -2.66521e-07 3.55589e-24)
(-2.77136e-05 -3.63774e-06 9.34736e-24)
(-2.98745e-05 2.72428e-07 9.3635e-24)
(-2.91074e-05 -3.01107e-06 -1.94482e-23)
(-3.14102e-05 8.59112e-07 -8.22926e-24)
(-3.05184e-05 -2.35218e-06 -6.43776e-24)
(-3.28989e-05 1.47656e-06 1.89499e-23)
(-3.19479e-05 -1.6793e-06 4.77202e-24)
(-3.43384e-05 2.10657e-06 -4.31634e-24)
(-3.33961e-05 -1.01125e-06 -1.84544e-23)
(-3.57271e-05 2.73035e-06 -4.22948e-23)
(-3.48621e-05 -3.66879e-07 4.2655e-23)
(-3.70645e-05 3.32905e-06 2.16224e-23)
(-3.63443e-05 2.35302e-07 -2.66501e-23)
(-3.83508e-05 3.88418e-06 -1.1862e-23)
(-3.78406e-05 7.77564e-07 1.68672e-23)
(-3.95871e-05 4.378e-06 1.80176e-23)
(-3.9348e-05 1.24326e-06 -3.96991e-23)
(-4.07748e-05 4.79386e-06 1.40785e-23)
(-4.0863e-05 1.61716e-06 2.23778e-23)
(-4.19163e-05 5.11651e-06 -6.56937e-23)
(-4.23815e-05 1.88575e-06 -1.2402e-23)
(-4.30142e-05 5.33242e-06 2.31245e-23)
(-4.3899e-05 2.03752e-06 7.19829e-24)
(-4.40717e-05 5.43005e-06 -1.44791e-23)
(-4.54107e-05 2.06317e-06 4.93308e-24)
(-4.50924e-05 5.40005e-06 -2.31332e-23)
(-4.69115e-05 1.95571e-06 -4.10414e-23)
(-4.608e-05 5.23542e-06 2.19602e-23)
(-4.83963e-05 1.71061e-06 5.17061e-23)
(-4.70384e-05 4.93154e-06 1.99711e-23)
(-4.98599e-05 1.32566e-06 2.00575e-24)
(-4.79714e-05 4.4862e-06 -3.66192e-23)
(-5.12972e-05 8.01059e-07 -5.36447e-24)
(-4.88829e-05 3.89952e-06 2.71577e-23)
(-5.27032e-05 1.39232e-07 2.20941e-23)
(-4.97766e-05 3.1739e-06 -7.09584e-24)
(-5.4073e-05 -6.55145e-07 -1.65621e-23)
(-5.06563e-05 2.31396e-06 3.75364e-23)
(-5.54016e-05 -1.5752e-06 5.36087e-23)
(-5.15256e-05 1.32655e-06 -1.25996e-23)
(-5.66843e-05 -2.61189e-06 9.61297e-25)
(-5.23881e-05 2.20701e-07 -7.33824e-24)
(-5.79165e-05 -3.75396e-06 -2.90818e-23)
(-5.3247e-05 -9.92382e-07 2.65321e-23)
(-5.90939e-05 -4.98809e-06 -7.96313e-24)
(-5.41058e-05 -2.29934e-06 -7.74776e-25)
(-6.02125e-05 -6.29889e-06 -9.54236e-24)
(-5.49672e-05 -3.6848e-06 -1.30248e-23)
(-6.12688e-05 -7.66918e-06 -2.22003e-23)
(-5.58337e-05 -5.13154e-06 5.32973e-23)
(-6.22601e-05 -9.08024e-06 5.8196e-23)
(-5.6707e-05 -6.6208e-06 -4.00865e-23)
(-6.31845e-05 -1.05122e-05 -4.18991e-23)
(-5.75881e-05 -8.13269e-06 -5.70454e-23)
(-6.40407e-05 -1.19446e-05 -4.33795e-23)
(-5.84774e-05 -9.64661e-06 2.57892e-23)
(-6.48289e-05 -1.33568e-05 5.29904e-23)
(-5.93739e-05 -1.11418e-05 9.22973e-24)
(-6.55498e-05 -1.47285e-05 -6.70222e-23)
(-6.02762e-05 -1.25981e-05 1.86747e-23)
(-6.62054e-05 -1.60404e-05 2.08703e-23)
(-6.11815e-05 -1.3996e-05 4.69266e-23)
(-6.67983e-05 -1.72749e-05 7.68247e-23)
(-6.20864e-05 -1.53177e-05 -4.58784e-23)
(-6.73321e-05 -1.84162e-05 5.0033e-23)
(-6.29869e-05 -1.65475e-05 2.07422e-23)
(-6.78108e-05 -1.94508e-05 -9.16174e-24)
(-6.38783e-05 -1.76717e-05 1.85842e-23)
(-6.82389e-05 -2.03679e-05 1.03074e-23)
(-6.47554e-05 -1.86794e-05 -1.98781e-23)
(-6.86209e-05 -2.11593e-05 4.66457e-23)
(-6.5613e-05 -1.95626e-05 3.44928e-23)
(-6.89616e-05 -2.18197e-05 1.05258e-23)
(-6.64458e-05 -2.03157e-05 -7.24552e-23)
(-6.92656e-05 -2.23465e-05 1.32813e-23)
(-6.72486e-05 -2.09361e-05 6.52742e-23)
(-6.95371e-05 -2.27394e-05 1.75665e-22)
(-6.80165e-05 -2.14236e-05 3.37563e-23)
(-6.97801e-05 -2.30009e-05 -3.38524e-23)
(-6.87449e-05 -2.17804e-05 -6.90243e-23)
(-6.99984e-05 -2.31352e-05 2.04599e-23)
(-6.94294e-05 -2.20108e-05 1.16284e-23)
(-7.01954e-05 -2.31488e-05 -9.0246e-24)
(-7.00662e-05 -2.21211e-05 1.08178e-23)
(-7.0374e-05 -2.305e-05 4.7082e-23)
(-7.06516e-05 -2.21195e-05 -9.83668e-23)
(-7.05371e-05 -2.28487e-05 -3.48673e-23)
(-7.11827e-05 -2.20157e-05 8.71708e-23)
(-7.06867e-05 -2.25563e-05 8.97021e-23)
(-7.16568e-05 -2.18211e-05 -7.61708e-23)
(-7.08249e-05 -2.21855e-05 -1.41549e-22)
(-7.20719e-05 -2.15481e-05 2.85898e-25)
(-7.09526e-05 -2.175e-05 1.21058e-25)
(-7.24268e-05 -2.12105e-05 1.07574e-22)
(-7.10705e-05 -2.1264e-05 -4.0889e-23)
(-7.27207e-05 -2.08224e-05 -8.10953e-23)
(-7.11787e-05 -2.07416e-05 -1.35509e-23)
(-7.29539e-05 -2.03986e-05 5.7505e-23)
(-7.12779e-05 -2.01976e-05 1.26264e-22)
(-7.31275e-05 -1.99526e-05 -9.70346e-23)
(-7.13701e-05 -1.96511e-05 1.5616e-22)
(-7.32464e-05 -1.95001e-05 2.64881e-23)
(-7.14573e-05 -1.91349e-05 5.80909e-23)
(-7.17027e-05 -1.8905e-05 1.31398e-23)
(-7.21665e-05 -1.88773e-05 -3.55572e-23)
(-7.26273e-05 -1.88523e-05 3.18946e-23)
(-7.30939e-05 -1.88067e-05 1.5597e-23)
(-7.33237e-05 -1.90426e-05 -4.44311e-23)
)
;
    }
    frontAndBackPlanes
    {
        type            empty;
    }
}


// ************************************************************************* //
