/*--------------------------------*- C++ -*----------------------------------*\
| =========                 |                                                 |
| \\      /  F ield         | OpenFOAM Extend Project: Open source CFD        |
|  \\    /   O peration     | Version:  1.6-ext                               |
|   \\  /    A nd           | Web:      www.extend-project.de                 |
|    \\/     M anipulation  |                                                 |
\*---------------------------------------------------------------------------*/
FoamFile
{
    version     2.0;
    format      ascii;
    class       volVectorField;
    location    "0.75";
    object      DV_0;
}
// * * * * * * * * * * * * * * * * * * * * * * * * * * * * * * * * * * * * * //

dimensions      [0 1 -1 0 0 0 0];

internalField   nonuniform List<vector> 
328
(
(-2.38119e-07 -4.731e-07 0)
(-1.50289e-07 -9.78965e-08 0)
(-1.4515e-07 8.5308e-08 0)
(-2.07071e-07 4.03916e-07 0)
(-7.25226e-07 -1.21427e-06 0)
(-4.98347e-07 -2.92703e-07 0)
(-4.79257e-07 2.42586e-07 0)
(-6.30925e-07 1.03656e-06 0)
(-1.28961e-06 -1.77113e-06 0)
(-9.66609e-07 -4.85859e-07 0)
(-9.26007e-07 3.82525e-07 0)
(-1.12301e-06 1.50237e-06 0)
(-1.90403e-06 -2.17855e-06 0)
(-1.51505e-06 -6.65486e-07 0)
(-1.45032e-06 4.90372e-07 0)
(-1.6608e-06 1.82237e-06 0)
(-2.57615e-06 -2.47955e-06 0)
(-2.15111e-06 -8.28692e-07 0)
(-2.05976e-06 5.59303e-07 0)
(-2.25182e-06 2.02607e-06 0)
(-3.30249e-06 -2.70766e-06 0)
(-2.86187e-06 -9.76802e-07 0)
(-2.74292e-06 5.85094e-07 0)
(-2.89411e-06 2.13585e-06 0)
(-4.08644e-06 -2.89057e-06 0)
(-3.64567e-06 -1.11536e-06 0)
(-3.49849e-06 5.67222e-07 0)
(-3.59193e-06 2.17002e-06 0)
(-4.92998e-06 -3.04925e-06 0)
(-4.49773e-06 -1.25152e-06 0)
(-4.32233e-06 5.06672e-07 0)
(-4.34875e-06 2.14199e-06 0)
(-5.83639e-06 -3.20007e-06 0)
(-5.4168e-06 -1.39309e-06 0)
(-5.21368e-06 4.05758e-07 0)
(-5.16964e-06 2.06211e-06 0)
(-6.80862e-06 -3.35509e-06 0)
(-6.40219e-06 -1.54711e-06 0)
(-6.17249e-06 2.67322e-07 0)
(-6.05998e-06 1.93825e-06 0)
(-7.84972e-06 -3.52283e-06 0)
(-7.45502e-06 -1.71917e-06 0)
(-7.20069e-06 9.46471e-08 0)
(-7.02568e-06 1.77674e-06 0)
(-8.96256e-06 -3.70847e-06 0)
(-8.57755e-06 -1.9127e-06 0)
(-8.30151e-06 -1.08641e-07 0)
(-8.07301e-06 1.58302e-06 0)
(-1.015e-05 -3.91416e-06 0)
(-9.77328e-06 -2.12877e-06 0)
(-9.47958e-06 -3.38426e-07 0)
(-9.20851e-06 1.36216e-06 0)
(-1.14152e-05 -4.1393e-06 0)
(-1.10467e-05 -2.36597e-06 0)
(-1.07405e-05 -5.89959e-07 0)
(-1.0439e-05 1.1193e-06 0)
(-1.27616e-05 -4.38085e-06 0)
(-1.24031e-05 -2.62063e-06 0)
(-1.20909e-05 -8.57725e-07 0)
(-1.17713e-05 8.59976e-07 0)
(-1.41933e-05 -4.63374e-06 0)
(-1.38486e-05 -2.88717e-06 0)
(-1.35378e-05 -1.13543e-06 0)
(-1.32126e-05 5.90231e-07 0)
(-1.5715e-05 -4.89141e-06 0)
(-1.53896e-05 -3.15857e-06 0)
(-1.50886e-05 -1.41607e-06 0)
(-1.47699e-05 3.16675e-07 0)
(-1.73325e-05 -5.14627e-06 0)
(-1.70331e-05 -3.42689e-06 0)
(-1.67509e-05 -1.69214e-06 0)
(-1.64502e-05 4.6388e-08 0)
(-1.90522e-05 -5.39003e-06 0)
(-1.87866e-05 -3.68365e-06 0)
(-1.85325e-05 -1.95576e-06 0)
(-1.82606e-05 -2.1313e-07 0)
(-2.08814e-05 -5.61389e-06 0)
(-2.06578e-05 -3.91998e-06 0)
(-2.04411e-05 -2.19865e-06 0)
(-2.02081e-05 -4.53888e-07 0)
(-2.28277e-05 -5.80821e-06 0)
(-2.26545e-05 -4.12633e-06 0)
(-2.24847e-05 -2.41177e-06 0)
(-2.23e-05 -6.6703e-07 0)
(-2.48991e-05 -5.96182e-06 0)
(-2.47849e-05 -4.29174e-06 0)
(-2.46711e-05 -2.58457e-06 0)
(-2.45439e-05 -8.42111e-07 0)
(-2.71878e-05 -6.06481e-06 0)
(-2.7144e-05 -4.40689e-06 0)
(-2.70977e-05 -2.70841e-06 0)
(-2.70394e-05 -9.70807e-07 0)
(-2.96177e-05 -6.08723e-06 0)
(-2.96533e-05 -4.4415e-06 0)
(-2.96834e-05 -2.75305e-06 0)
(-2.97031e-05 -1.02316e-06 0)
(-3.20293e-05 -6.01773e-06 0)
(-3.21464e-05 -4.38337e-06 0)
(-3.2255e-05 -2.70576e-06 0)
(-3.2355e-05 -9.86148e-07 0)
(-3.44246e-05 -5.85365e-06 0)
(-3.46234e-05 -4.22972e-06 0)
(-3.48102e-05 -2.56379e-06 0)
(-3.49906e-05 -8.57113e-07 0)
(-3.68061e-05 -5.59511e-06 0)
(-3.7084e-05 -3.98059e-06 0)
(-3.73467e-05 -2.3272e-06 0)
(-3.76049e-05 -6.36179e-07 0)
(-3.91766e-05 -5.24582e-06 0)
(-3.95284e-05 -3.63968e-06 0)
(-3.98619e-05 -1.99966e-06 0)
(-4.01927e-05 -3.27037e-07 0)
(-4.15384e-05 -4.81317e-06 0)
(-4.19565e-05 -3.21447e-06 0)
(-4.23533e-05 -1.58867e-06 0)
(-4.27491e-05 6.29476e-08 0)
(-4.38939e-05 -4.30779e-06 0)
(-4.43682e-05 -2.7158e-06 0)
(-4.48186e-05 -1.10505e-06 0)
(-4.52692e-05 5.23186e-07 0)
(-4.62446e-05 -3.74283e-06 0)
(-4.67632e-05 -2.15706e-06 0)
(-4.72556e-05 -5.62159e-07 0)
(-4.77491e-05 1.0406e-06 0)
(-4.85915e-05 -3.13317e-06 0)
(-4.91409e-05 -1.55341e-06 0)
(-4.96622e-05 2.48493e-08 0)
(-5.01853e-05 1.60036e-06 0)
(-5.09349e-05 -2.49482e-06 0)
(-5.15006e-05 -9.2114e-07 0)
(-5.20368e-05 6.3972e-07 0)
(-5.25749e-05 2.18654e-06 0)
(-5.32748e-05 -1.8445e-06 0)
(-5.38416e-05 -2.77196e-07 0)
(-5.43778e-05 1.26553e-06 0)
(-5.49158e-05 2.78251e-06 0)
(-5.56105e-05 -1.19927e-06 0)
(-5.61628e-05 3.61116e-07 0)
(-5.66838e-05 1.88502e-06 0)
(-5.72061e-05 3.37131e-06 0)
(-5.79409e-05 -5.76364e-07 0)
(-5.84631e-05 9.7637e-07 0)
(-5.89536e-05 2.48078e-06 0)
(-5.94446e-05 3.93579e-06 0)
(-6.02647e-05 7.13935e-09 0)
(-6.07413e-05 1.55127e-06 0)
(-6.11863e-05 3.03556e-06 0)
(-6.16307e-05 4.45897e-06 0)
(-6.25799e-05 5.3456e-07 0)
(-6.29962e-05 2.06895e-06 0)
(-6.3381e-05 3.53251e-06 0)
(-6.37641e-05 4.92426e-06 0)
(-6.48843e-05 9.89983e-07 0)
(-6.52262e-05 2.51331e-06 0)
(-6.55372e-05 3.95556e-06 0)
(-6.58449e-05 5.31582e-06 0)
(-6.71753e-05 1.35859e-06 0)
(-6.74299e-05 2.86936e-06 0)
(-6.76544e-05 4.28976e-06 0)
(-6.78738e-05 5.61891e-06 0)
(-6.945e-05 1.62696e-06 0)
(-6.96057e-05 3.12353e-06 0)
(-6.97323e-05 4.52153e-06 0)
(-6.98519e-05 5.82014e-06 0)
(-7.17051e-05 1.78331e-06 0)
(-7.17519e-05 3.26389e-06 0)
(-7.17708e-05 4.63897e-06 0)
(-7.17806e-05 5.90778e-06 0)
(-7.39373e-05 1.81761e-06 0)
(-7.38667e-05 3.28029e-06 0)
(-7.37697e-05 4.63195e-06 0)
(-7.36614e-05 5.87181e-06 0)
(-7.61429e-05 1.72171e-06 0)
(-7.59485e-05 3.16448e-06 0)
(-7.57292e-05 4.49218e-06 0)
(-7.54963e-05 5.70408e-06 0)
(-7.8318e-05 1.48938e-06 0)
(-7.79953e-05 2.91009e-06 0)
(-7.76494e-05 4.21332e-06 0)
(-7.72873e-05 5.39835e-06 0)
(-8.04587e-05 1.11642e-06 0)
(-8.00052e-05 2.51281e-06 0)
(-7.95304e-05 3.79104e-06 0)
(-7.90368e-05 4.95037e-06 0)
(-8.25607e-05 6.00787e-07 0)
(-8.19763e-05 1.97048e-06 0)
(-8.13726e-05 3.22315e-06 0)
(-8.07473e-05 4.35806e-06 0)
(-8.46195e-05 -5.71443e-08 0)
(-8.39065e-05 1.28335e-06 0)
(-8.31762e-05 2.5099e-06 0)
(-8.24214e-05 3.62174e-06 0)
(-8.66305e-05 -8.54342e-07 0)
(-8.57936e-05 4.54389e-07 0)
(-8.49418e-05 1.65421e-06 0)
(-8.40623e-05 2.74436e-06 0)
(-8.85889e-05 -1.78484e-06 0)
(-8.76356e-05 -5.10485e-07 0)
(-8.66695e-05 6.61993e-07 0)
(-8.56729e-05 1.73183e-06 0)
(-9.04898e-05 -2.83952e-06 0)
(-8.94303e-05 -1.60213e-06 0)
(-8.836e-05 -4.57636e-07 0)
(-8.72562e-05 5.93175e-07 0)
(-9.23287e-05 -4.00607e-06 0)
(-9.11756e-05 -2.8081e-06 0)
(-9.00134e-05 -1.69227e-06 0)
(-8.88152e-05 -6.59353e-07 0)
(-9.41011e-05 -5.26908e-06 0)
(-9.28694e-05 -4.11279e-06 0)
(-9.16301e-05 -3.0263e-06 0)
(-9.03524e-05 -2.0104e-06 0)
(-9.58034e-05 -6.61039e-06 0)
(-9.451e-05 -5.49774e-06 0)
(-9.321e-05 -4.4413e-06 0)
(-9.18698e-05 -3.44187e-06 0)
(-9.74325e-05 -8.00963e-06 0)
(-9.60958e-05 -6.94223e-06 0)
(-9.4753e-05 -5.91655e-06 0)
(-9.33686e-05 -4.9334e-06 0)
(-9.89861e-05 -9.44497e-06 0)
(-9.76255e-05 -8.42398e-06 0)
(-9.62586e-05 -7.42978e-06 0)
(-9.48493e-05 -6.46317e-06 0)
(-0.000100463 -1.08939e-05 0)
(-9.9098e-05 -9.92005e-06 0)
(-9.77261e-05 -8.95805e-06 0)
(-9.63116e-05 -8.00863e-06 0)
(-0.000101863 -1.2334e-05 0)
(-0.000100513 -1.14077e-05 0)
(-9.91546e-05 -1.04785e-05 0)
(-9.77542e-05 -9.5474e-06 0)
(-0.000103186 -1.3744e-05 0)
(-0.000101869 -1.2865e-05 0)
(-0.000100543 -1.19694e-05 0)
(-9.9175e-05 -1.1058e-05 0)
(-0.000104433 -1.51039e-05 0)
(-0.000103167 -1.42719e-05 0)
(-0.000101889 -1.34105e-05 0)
(-0.000100571 -1.25203e-05 0)
(-0.000105606 -1.63958e-05 0)
(-0.000104406 -1.561e-05 0)
(-0.000103193 -1.47834e-05 0)
(-0.00010194 -1.39165e-05 0)
(-0.000106707 -1.7604e-05 0)
(-0.000105587 -1.68637e-05 0)
(-0.000104451 -1.60724e-05 0)
(-0.000103278 -1.52308e-05 0)
(-0.000107739 -1.87154e-05 0)
(-0.00010671 -1.80195e-05 0)
(-0.000105664 -1.7264e-05 0)
(-0.000104581 -1.64496e-05 0)
(-0.000108703 -1.9719e-05 0)
(-0.000107776 -1.90663e-05 0)
(-0.000106828 -1.83471e-05 0)
(-0.000105846 -1.75621e-05 0)
(-0.000109603 -2.06063e-05 0)
(-0.000108784 -1.99955e-05 0)
(-0.000107943 -1.93131e-05 0)
(-0.000107069 -1.85595e-05 0)
(-0.000110441 -2.13709e-05 0)
(-0.000109736 -2.08009e-05 0)
(-0.000109006 -2.01555e-05 0)
(-0.000108246 -1.94354e-05 0)
(-0.00011122 -2.20087e-05 0)
(-0.000110632 -2.14782e-05 0)
(-0.000110017 -2.08703e-05 0)
(-0.000109373 -2.01855e-05 0)
(-0.000111942 -2.25178e-05 0)
(-0.000111472 -2.20255e-05 0)
(-0.000110974 -2.14553e-05 0)
(-0.000110447 -2.08078e-05 0)
(-0.00011261 -2.28983e-05 0)
(-0.000112258 -2.2443e-05 0)
(-0.000111875 -2.19108e-05 0)
(-0.000111466 -2.13023e-05 0)
(-0.000113227 -2.31524e-05 0)
(-0.000112989 -2.2733e-05 0)
(-0.000112719 -2.22391e-05 0)
(-0.000112424 -2.16713e-05 0)
(-0.000113794 -2.32843e-05 0)
(-0.000113667 -2.28997e-05 0)
(-0.000113505 -2.24444e-05 0)
(-0.000113319 -2.19189e-05 0)
(-0.000114314 -2.33003e-05 0)
(-0.000114291 -2.29496e-05 0)
(-0.000114231 -2.25331e-05 0)
(-0.000114149 -2.20514e-05 0)
(-0.00011479 -2.32085e-05 0)
(-0.000114862 -2.2891e-05 0)
(-0.000114897 -2.25136e-05 0)
(-0.00011491 -2.20769e-05 0)
(-0.000115221 -2.30189e-05 0)
(-0.00011538 -2.27341e-05 0)
(-0.0001155 -2.23961e-05 0)
(-0.0001156 -2.20055e-05 0)
(-0.00011561 -2.27429e-05 0)
(-0.000115845 -2.24906e-05 0)
(-0.000116041 -2.21923e-05 0)
(-0.000116216 -2.18486e-05 0)
(-0.000115957 -2.23936e-05 0)
(-0.000116258 -2.21739e-05 0)
(-0.000116519 -2.19157e-05 0)
(-0.000116758 -2.16191e-05 0)
(-0.000116263 -2.19847e-05 0)
(-0.000116617 -2.17981e-05 0)
(-0.000116932 -2.15803e-05 0)
(-0.000117226 -2.1331e-05 0)
(-0.000116526 -2.15306e-05 0)
(-0.000116922 -2.13778e-05 0)
(-0.000117282 -2.1201e-05 0)
(-0.000117618 -2.09986e-05 0)
(-0.000116745 -2.1045e-05 0)
(-0.000117172 -2.09272e-05 0)
(-0.000117567 -2.07922e-05 0)
(-0.000117937 -2.06358e-05 0)
(-0.000116919 -2.0542e-05 0)
(-0.000117366 -2.04598e-05 0)
(-0.000117787 -2.03664e-05 0)
(-0.000118184 -2.02552e-05 0)
(-0.000117047 -2.00353e-05 0)
(-0.000117506 -1.99865e-05 0)
(-0.000117945 -1.99321e-05 0)
(-0.000118364 -1.98653e-05 0)
(-0.000117129 -1.95448e-05 0)
(-0.000117591 -1.95164e-05 0)
(-0.00011804 -1.94878e-05 0)
(-0.000118474 -1.94516e-05 0)
)
;

boundaryField
{
    plateFix
    {
        type            calculated;
        value           uniform (0 0 0);
    }
    plate
    {
        type            calculated;
        value           nonuniform List<vector> 
168
(
(-2.31085e-06 -1.287e-06 -1.20389e-23)
(-1.98262e-06 1.0578e-06 -7.03865e-23)
(-2.24164e-06 -2.0531e-06 5.86262e-23)
(-1.9209e-06 1.71633e-06 7.41147e-23)
(-2.33932e-06 -2.64651e-06 -9.43239e-23)
(-1.98562e-06 2.21919e-06 -1.30899e-23)
(-2.62195e-06 -3.06786e-06 2.66144e-23)
(-2.19872e-06 2.557e-06 9.18955e-23)
(-3.07504e-06 -3.38003e-06 -1.04763e-23)
(-2.55423e-06 2.77622e-06 -6.97232e-23)
(-3.66281e-06 -3.61374e-06 5.3714e-24)
(-3.02635e-06 2.89704e-06 -6.16484e-24)
(-4.36479e-06 -3.80051e-06 6.14263e-23)
(-3.60185e-06 2.9414e-06 3.33507e-23)
(-5.16449e-06 -3.96121e-06 -8.12168e-23)
(-4.27061e-06 2.92286e-06 -5.33919e-23)
(-6.05209e-06 -4.11276e-06 -4.07609e-23)
(-5.02843e-06 2.85246e-06 7.80375e-24)
(-7.02073e-06 -4.26707e-06 5.50287e-23)
(-5.87412e-06 2.73808e-06 1.15e-23)
(-8.0663e-06 -4.43262e-06 4.53788e-23)
(-6.80924e-06 2.58604e-06 3.52454e-23)
(-9.18633e-06 -4.61457e-06 -4.13341e-23)
(-7.83709e-06 2.40163e-06 -4.03505e-23)
(-1.03799e-05 -4.81522e-06 -1.33915e-23)
(-8.9623e-06 2.18977e-06 4.75961e-24)
(-1.16476e-05 -5.03418e-06 1.953e-23)
(-1.01904e-05 1.95542e-06 8.30696e-25)
(-1.29913e-05 -5.26872e-06 -3.07583e-24)
(-1.15273e-05 1.70391e-06 -2.31961e-23)
(-1.44145e-05 -5.51417e-06 1.89134e-23)
(-1.29792e-05 1.44106e-06 -6.75563e-25)
(-1.59222e-05 -5.7643e-06 -2.88278e-23)
(-1.45525e-05 1.1733e-06 3.53401e-23)
(-1.75204e-05 -6.01177e-06 2.31338e-23)
(-1.62532e-05 9.07568e-07 -2.8821e-23)
(-1.92164e-05 -6.24848e-06 -7.42303e-24)
(-1.80878e-05 6.51263e-07 1.41489e-23)
(-2.10182e-05 -6.46566e-06 -1.39666e-24)
(-2.00628e-05 4.12371e-07 -3.08768e-23)
(-2.29336e-05 -6.6536e-06 2.03077e-23)
(-2.21853e-05 1.99784e-07 4.18977e-23)
(-2.49705e-05 -6.80099e-06 -9.56627e-24)
(-2.44631e-05 2.40113e-08 -2.01418e-23)
(-2.72191e-05 -6.89762e-06 -2.1372e-23)
(-2.6998e-05 -1.06744e-07 -6.26692e-24)
(-2.96042e-05 -6.91371e-06 -1.37333e-24)
(-2.97058e-05 -1.62688e-07 1.51625e-23)
(-3.19693e-05 -6.83847e-06 2.29828e-24)
(-3.24033e-05 -1.3074e-07 -1.36865e-23)
(-3.43174e-05 -6.66936e-06 2.46213e-24)
(-3.50852e-05 -8.35542e-09 -1.6143e-23)
(-3.66528e-05 -6.40661e-06 1.85322e-23)
(-3.77448e-05 2.04244e-07 3.16873e-25)
(-3.89797e-05 -6.05394e-06 -2.53221e-23)
(-4.03752e-05 5.03368e-07 -5.617e-25)
(-4.13027e-05 -5.61867e-06 -1.62074e-24)
(-4.29696e-05 8.81739e-07 -1.03565e-23)
(-4.36252e-05 -5.11128e-06 -2.29914e-24)
(-4.55219e-05 1.32894e-06 -9.69999e-24)
(-4.59499e-05 -4.54473e-06 -4.07065e-24)
(-4.80269e-05 1.8321e-06 -2.56204e-24)
(-4.82785e-05 -3.93371e-06 1.80862e-23)
(-5.04805e-05 2.3766e-06 7.00608e-24)
(-5.06118e-05 -3.29405e-06 1.18881e-23)
(-5.28793e-05 2.94673e-06 -2.91854e-23)
(-5.295e-05 -2.64229e-06 1.407e-23)
(-5.5221e-05 3.52606e-06 -1.87289e-24)
(-5.52926e-05 -1.99538e-06 -2.8384e-24)
(-5.75036e-05 4.09777e-06 4.54632e-23)
(-5.76385e-05 -1.37039e-06 -2.37771e-23)
(-5.97259e-05 4.6449e-06 -3.07996e-23)
(-5.99862e-05 -7.8428e-07 -9.28484e-24)
(-6.18874e-05 5.15063e-06 3.49599e-23)
(-6.23334e-05 -2.53595e-07 -6.85983e-24)
(-6.3988e-05 5.59853e-06 -1.25021e-23)
(-6.46776e-05 2.05872e-07 2.39549e-23)
(-6.60284e-05 5.9729e-06 -8.89142e-24)
(-6.70154e-05 5.7942e-07 -1.84609e-23)
(-6.80099e-05 6.25914e-06 4.25426e-23)
(-6.93432e-05 8.53732e-07 -1.51368e-23)
(-6.99343e-05 6.44398e-06 -1.40361e-23)
(-7.16569e-05 1.0171e-06 -7.1357e-24)
(-7.18038e-05 6.51578e-06 -7.60273e-25)
(-7.39522e-05 1.05958e-06 4.11267e-23)
(-7.3621e-05 6.46462e-06 3.07492e-23)
(-7.62245e-05 9.73095e-07 4.04371e-23)
(-7.53886e-05 6.28239e-06 -4.7402e-23)
(-7.8469e-05 7.51475e-07 -1.73014e-23)
(-7.71097e-05 5.96294e-06 -6.58611e-24)
(-8.06806e-05 3.90593e-07 -2.30283e-23)
(-7.87878e-05 5.50207e-06 1.9764e-23)
(-8.2854e-05 -1.11502e-07 1.11948e-23)
(-8.04263e-05 4.89777e-06 -4.53984e-23)
(-8.49834e-05 -7.54366e-07 -1.23747e-23)
(-8.20294e-05 4.15041e-06 -3.82366e-23)
(-8.70627e-05 -1.5349e-06 3.78367e-24)
(-8.36014e-05 3.263e-06 9.18041e-24)
(-8.90856e-05 -2.44712e-06 2.71094e-23)
(-8.51469e-05 2.24143e-06 -2.71594e-23)
(-9.10458e-05 -3.48191e-06 -1.36784e-23)
(-8.66705e-05 1.09469e-06 1.03076e-22)
(-9.2937e-05 -4.62704e-06 1.21648e-22)
(-8.81766e-05 -1.6505e-07 -9.98226e-23)
(-9.47534e-05 -5.86724e-06 -1.67392e-23)
(-8.96692e-05 -1.52261e-06 7.58094e-23)
(-9.649e-05 -7.18453e-06 2.69114e-23)
(-9.11516e-05 -2.9601e-06 -4.33471e-23)
(-9.81429e-05 -8.55882e-06 -1.25019e-23)
(-9.2626e-05 -4.45742e-06 -2.4733e-23)
(-9.97093e-05 -9.96854e-06 -2.94866e-23)
(-9.40934e-05 -5.99304e-06 5.68596e-23)
(-0.000101188 -1.13915e-05 1.62818e-24)
(-9.55535e-05 -7.54469e-06 1.55819e-23)
(-0.000102578 -1.28055e-05 4.98417e-23)
(-9.70049e-05 -9.09025e-06 -1.04384e-24)
(-0.000103881 -1.41896e-05 -7.08447e-23)
(-9.84449e-05 -1.06085e-05 -1.71995e-23)
(-0.000105099 -1.55239e-05 5.02778e-23)
(-9.98699e-05 -1.20795e-05 1.45114e-23)
(-0.000106235 -1.67909e-05 2.32251e-23)
(-0.000101276 -1.34855e-05 -6.66095e-23)
(-0.000107291 -1.79749e-05 -1.05139e-22)
(-0.000102658 -1.48108e-05 7.43436e-23)
(-0.000108272 -1.90627e-05 3.68416e-23)
(-0.000104012 -1.6042e-05 3.71163e-23)
(-0.000109181 -2.00436e-05 9.18286e-24)
(-0.000105332 -1.71681e-05 4.24503e-23)
(-0.000110021 -2.0909e-05 -4.13203e-23)
(-0.000106613 -1.81803e-05 9.25882e-23)
(-0.000110797 -2.16526e-05 5.32275e-23)
(-0.000107852 -1.90723e-05 -1.50789e-22)
(-0.000111512 -2.22703e-05 -4.20798e-23)
(-0.000109042 -1.98398e-05 1.7163e-23)
(-0.000112171 -2.27601e-05 -3.66675e-23)
(-0.000110181 -2.04806e-05 -1.09522e-22)
(-0.000112775 -2.31221e-05 -3.49278e-23)
(-0.000111262 -2.09947e-05 4.6903e-23)
(-0.00011333 -2.33585e-05 8.85907e-25)
(-0.000112282 -2.13843e-05 1.04314e-22)
(-0.000113838 -2.34733e-05 -8.04964e-23)
(-0.000113236 -2.16536e-05 -4.65924e-23)
(-0.000114303 -2.34729e-05 2.02344e-23)
(-0.000114121 -2.18085e-05 -3.40554e-23)
(-0.000114727 -2.33651e-05 -9.93499e-24)
(-0.000114932 -2.18573e-05 8.47957e-23)
(-0.000115112 -2.31598e-05 1.22092e-23)
(-0.000115667 -2.18097e-05 -4.94544e-23)
(-0.000115462 -2.28684e-05 -5.13944e-23)
(-0.000116323 -2.1677e-05 -4.08008e-23)
(-0.000115776 -2.25035e-05 1.07319e-22)
(-0.000116898 -2.14719e-05 -1.28734e-24)
(-0.000116055 -2.20788e-05 -3.95752e-23)
(-0.000117391 -2.1208e-05 -1.06934e-22)
(-0.000116299 -2.16084e-05 -3.98224e-23)
(-0.000117802 -2.08994e-05 -1.4648e-23)
(-0.000116507 -2.11058e-05 -9.70273e-23)
(-0.000118133 -2.05598e-05 -4.38288e-23)
(-0.000116675 -2.05853e-05 -1.95099e-24)
(-0.000118387 -2.02009e-05 -1.73786e-23)
(-0.000116807 -2.00612e-05 1.14516e-22)
(-0.000118576 -1.98335e-05 7.21593e-23)
(-0.000116905 -1.95573e-05 -2.3203e-22)
(-0.000117156 -1.93224e-05 -5.72172e-23)
(-0.000117619 -1.92886e-05 2.3794e-23)
(-0.000118072 -1.92648e-05 -1.34228e-23)
(-0.000118506 -1.92206e-05 -3.74288e-24)
(-0.000118705 -1.94395e-05 1.38374e-23)
)
;
    }
    frontAndBackPlanes
    {
        type            empty;
    }
}


// ************************************************************************* //
