/*--------------------------------*- C++ -*----------------------------------*\
| =========                 |                                                 |
| \\      /  F ield         | OpenFOAM Extend Project: Open source CFD        |
|  \\    /   O peration     | Version:  1.6-ext                               |
|   \\  /    A nd           | Web:      www.extend-project.de                 |
|    \\/     M anipulation  |                                                 |
\*---------------------------------------------------------------------------*/
FoamFile
{
    version     2.0;
    format      ascii;
    class       surfaceScalarField;
    location    "0.75";
    object      meshPhi;
}
// * * * * * * * * * * * * * * * * * * * * * * * * * * * * * * * * * * * * * //

dimensions      [0 3 -1 0 0 0 0];

internalField   nonuniform List<scalar> 
570
(
-1.34055e-10
-3.29053e-09
-5.34881e-12
-9.80778e-10
1.55258e-10
-1.14439e-09
-4.32807e-09
-4.00481e-10
-3.78062e-09
-9.00161e-12
-2.17993e-09
4.73522e-10
-2.53472e-09
-5.22932e-09
-6.35638e-10
-4.56444e-09
5.13617e-12
-3.63627e-09
7.82719e-10
-4.21243e-09
-6.56183e-09
-8.27669e-10
-5.64318e-09
4.22321e-11
-5.31013e-09
1.0836e-09
-6.13063e-09
-8.30018e-09
-9.69447e-10
-6.99457e-09
1.08629e-10
-7.19955e-09
1.38492e-09
-8.28629e-09
-1.04051e-08
-1.05391e-09
-8.5847e-09
2.12944e-10
-9.28986e-09
1.69967e-09
-1.06628e-08
-1.2827e-08
-1.07213e-09
-1.03948e-08
3.66685e-10
-1.15771e-08
2.04401e-09
-1.3256e-08
-1.55392e-08
-1.01247e-09
-1.24119e-08
5.84858e-10
-1.40576e-08
2.43782e-09
-1.60622e-08
-1.85243e-08
-8.59461e-10
-1.46311e-08
8.86793e-10
-1.67328e-08
2.90528e-09
-1.90835e-08
-2.17762e-08
-5.92606e-10
-1.70515e-08
1.29713e-09
-1.96071e-08
3.4758e-09
-2.23248e-08
-2.5295e-08
-1.84833e-10
-1.9677e-08
1.84709e-09
-2.26883e-08
4.18508e-09
-2.57951e-08
-2.90862e-08
3.99257e-10
-2.25144e-08
2.57598e-09
-2.59875e-08
5.07652e-09
-2.95062e-08
-3.31588e-08
1.2055e-09
-2.55735e-08
3.53312e-09
-2.95185e-08
6.20297e-09
-3.34729e-08
-3.75251e-08
2.29261e-09
-2.88668e-08
4.78016e-09
-3.32975e-08
7.629e-09
-3.77119e-08
-4.21996e-08
3.73506e-09
-3.24089e-08
6.3939e-09
-3.73425e-08
9.43363e-09
-4.22423e-08
-4.7199e-08
5.62646e-09
-3.62171e-08
8.46971e-09
-4.16735e-08
1.17138e-08
-4.70841e-08
-5.25414e-08
8.08356e-09
-4.03101e-08
1.11256e-08
-4.63114e-08
1.45887e-08
-5.22588e-08
-5.82466e-08
1.1251e-08
-4.47091e-08
1.45071e-08
-5.12785e-08
1.82045e-08
-5.77885e-08
-6.43349e-08
1.53072e-08
-4.94365e-08
1.87932e-08
-5.65979e-08
2.27405e-08
-6.36961e-08
-7.08278e-08
2.04709e-08
-5.45166e-08
2.42031e-08
-6.22938e-08
2.84162e-08
-7.00047e-08
-7.7747e-08
2.70095e-08
-5.99749e-08
3.10047e-08
-6.83909e-08
3.54995e-08
-7.67382e-08
-8.51146e-08
3.52488e-08
-6.58361e-08
3.95241e-08
-7.49146e-08
4.43165e-08
-8.39205e-08
-9.29549e-08
4.92851e-08
-7.26001e-08
5.4194e-08
-8.2404e-08
5.96747e-08
-9.21376e-08
-1.01893e-07
5.92737e-08
-7.93642e-08
6.41653e-08
-8.98652e-08
6.96032e-08
-1.00294e-07
-1.10741e-07
6.99604e-08
-8.61282e-08
7.4832e-08
-9.72941e-08
8.02248e-08
-1.08386e-07
-1.19494e-07
8.13122e-08
-9.28874e-08
8.61611e-08
-1.04687e-07
9.15065e-08
-1.16411e-07
-1.28147e-07
9.3297e-08
-9.96372e-08
9.81204e-08
-1.12039e-07
1.03416e-07
-1.24364e-07
-1.36697e-07
1.05883e-07
-1.06373e-07
1.10678e-07
-1.19346e-07
1.15922e-07
-1.32242e-07
-1.45143e-07
1.1904e-07
-1.13089e-07
1.23804e-07
-1.26605e-07
1.28994e-07
-1.40043e-07
-1.53481e-07
1.32738e-07
-1.19782e-07
1.37469e-07
-1.33812e-07
1.42602e-07
-1.47761e-07
-1.61709e-07
1.46948e-07
-1.26446e-07
1.51642e-07
-1.40961e-07
1.56717e-07
-1.55396e-07
-1.69824e-07
1.61641e-07
-1.33076e-07
1.66296e-07
-1.4805e-07
1.71311e-07
-1.62942e-07
-1.77824e-07
1.7679e-07
-1.39668e-07
1.81404e-07
-1.55074e-07
1.86357e-07
-1.70397e-07
-1.85708e-07
1.9237e-07
-1.46216e-07
1.96939e-07
-1.6203e-07
2.01828e-07
-1.77759e-07
-1.93471e-07
2.08355e-07
-1.52717e-07
2.12877e-07
-1.68912e-07
2.17699e-07
-1.85023e-07
-2.01114e-07
2.2472e-07
-1.59165e-07
2.29192e-07
-1.75719e-07
2.33946e-07
-1.92187e-07
-2.08632e-07
2.41441e-07
-1.65555e-07
2.45862e-07
-1.82445e-07
2.50545e-07
-1.99247e-07
-2.16024e-07
2.58496e-07
-1.71885e-07
2.62862e-07
-1.89088e-07
2.67473e-07
-2.06202e-07
-2.23287e-07
2.75862e-07
-1.78149e-07
2.8017e-07
-1.95643e-07
2.84708e-07
-2.13047e-07
-2.30419e-07
2.93516e-07
-1.84342e-07
2.97766e-07
-2.02106e-07
3.02227e-07
-2.19779e-07
-2.37418e-07
3.11439e-07
-1.90461e-07
3.15626e-07
-2.08475e-07
3.20009e-07
-2.26397e-07
-2.44281e-07
3.29609e-07
-1.96501e-07
3.33732e-07
-2.14745e-07
3.38035e-07
-2.32896e-07
-2.51007e-07
3.48007e-07
-2.02458e-07
3.52062e-07
-2.20913e-07
3.56284e-07
-2.39275e-07
-2.57593e-07
3.66612e-07
-2.08328e-07
3.70599e-07
-2.26976e-07
3.74737e-07
-2.4553e-07
-2.64038e-07
3.85408e-07
-2.14105e-07
3.89322e-07
-2.32929e-07
3.93375e-07
-2.51659e-07
-2.70339e-07
4.04376e-07
-2.19786e-07
4.08216e-07
-2.3877e-07
4.12182e-07
-2.57659e-07
-2.76495e-07
4.235e-07
-2.25366e-07
4.27263e-07
-2.44495e-07
4.31141e-07
-2.63528e-07
-2.82505e-07
4.42764e-07
-2.30841e-07
4.46448e-07
-2.501e-07
4.50235e-07
-2.69263e-07
-2.88367e-07
4.62154e-07
-2.36205e-07
4.65757e-07
-2.55581e-07
4.69452e-07
-2.74862e-07
-2.94081e-07
4.81657e-07
-2.41455e-07
4.85176e-07
-2.60937e-07
4.88778e-07
-2.80323e-07
-2.99644e-07
5.01262e-07
-2.46585e-07
5.04695e-07
-2.66162e-07
5.08202e-07
-2.85644e-07
-3.05056e-07
5.20958e-07
-2.51593e-07
5.24302e-07
-2.71255e-07
5.27713e-07
-2.90822e-07
-3.10317e-07
5.40735e-07
-2.56472e-07
5.43989e-07
-2.76212e-07
5.47303e-07
-2.95855e-07
-3.15424e-07
5.60586e-07
-2.61221e-07
5.63747e-07
-2.8103e-07
5.66962e-07
-3.00741e-07
-3.20376e-07
5.80503e-07
-2.65836e-07
5.8357e-07
-2.85706e-07
5.86685e-07
-3.05479e-07
-3.25173e-07
6.0048e-07
-2.70313e-07
6.0345e-07
-2.90239e-07
6.06464e-07
-3.10066e-07
-3.29812e-07
6.2051e-07
-2.74649e-07
6.23383e-07
-2.94624e-07
6.26293e-07
-3.14499e-07
-3.34292e-07
6.40588e-07
-2.78843e-07
6.43361e-07
-2.98861e-07
6.46167e-07
-3.18778e-07
-3.38611e-07
6.60708e-07
-2.82891e-07
6.6338e-07
-3.02946e-07
6.6608e-07
-3.229e-07
-3.42768e-07
6.80864e-07
-2.86792e-07
6.83433e-07
-3.06879e-07
6.86027e-07
-3.26864e-07
-3.4676e-07
7.0105e-07
-2.90543e-07
7.03516e-07
-3.10656e-07
7.06003e-07
-3.30666e-07
-3.50587e-07
7.21262e-07
-2.94142e-07
7.23623e-07
-3.14277e-07
7.26001e-07
-3.34307e-07
-3.54247e-07
7.41493e-07
-2.97588e-07
7.43748e-07
-3.17738e-07
7.46016e-07
-3.37784e-07
-3.57738e-07
7.61739e-07
-3.00877e-07
7.63887e-07
-3.21039e-07
7.66044e-07
-3.41096e-07
-3.6106e-07
7.81993e-07
-3.04009e-07
7.84033e-07
-3.24178e-07
7.86079e-07
-3.44242e-07
-3.64211e-07
8.02253e-07
-3.0698e-07
8.04183e-07
-3.27152e-07
8.06117e-07
-3.47219e-07
-3.6719e-07
8.22513e-07
-3.09789e-07
8.24333e-07
-3.29961e-07
8.26154e-07
-3.50028e-07
-3.69998e-07
8.42771e-07
-3.12433e-07
8.4448e-07
-3.32602e-07
8.46187e-07
-3.52667e-07
-3.72633e-07
8.63024e-07
-3.1491e-07
8.6462e-07
-3.35075e-07
8.66213e-07
-3.55136e-07
-3.75096e-07
8.83269e-07
-3.17218e-07
8.84752e-07
-3.37377e-07
8.8623e-07
-3.57432e-07
-3.77385e-07
9.03507e-07
-3.19355e-07
9.04874e-07
-3.39507e-07
9.06238e-07
-3.59555e-07
-3.79501e-07
9.23735e-07
-3.21319e-07
9.24987e-07
-3.41463e-07
9.26234e-07
-3.61505e-07
-3.81443e-07
9.43954e-07
-3.23108e-07
9.4509e-07
-3.43245e-07
9.46221e-07
-3.6328e-07
-3.83211e-07
9.64164e-07
-3.2472e-07
9.65183e-07
-3.44851e-07
9.66197e-07
-3.64879e-07
-3.84804e-07
9.84367e-07
-3.26155e-07
9.85268e-07
-3.46279e-07
9.86164e-07
-3.66302e-07
-3.86221e-07
1.00456e-06
-3.2741e-07
1.00534e-06
-3.4753e-07
1.00612e-06
-3.67548e-07
-3.87462e-07
1.02475e-06
-3.28485e-07
1.02542e-06
-3.48601e-07
1.02608e-06
-3.68615e-07
-3.88526e-07
1.04494e-06
-3.29378e-07
1.04548e-06
-3.49491e-07
1.04602e-06
-3.69504e-07
-3.89413e-07
1.06513e-06
-3.30088e-07
1.06555e-06
-3.50198e-07
1.06597e-06
-3.70211e-07
-3.90121e-07
1.08532e-06
-3.30619e-07
1.08561e-06
-3.50724e-07
1.08591e-06
-3.70738e-07
-3.90654e-07
1.1055e-06
-3.30964e-07
1.10568e-06
-3.51061e-07
1.10586e-06
-3.71078e-07
-3.9101e-07
1.12567e-06
1.12574e-06
1.12582e-06
)
;

boundaryField
{
    plateFix
    {
        type            calculated;
        value           nonuniform List<scalar> 4(2.60941e-09 -5.62926e-14 1.2347e-13 3.27519e-09);
    }
    plate
    {
        type            calculated;
        value           nonuniform List<scalar> 
168
(
5.72859e-10
8.04288e-10
1.0211e-09
1.3836e-09
1.42291e-09
1.92834e-09
1.75948e-09
2.43003e-09
2.02896e-09
2.90589e-09
2.23218e-09
3.3807e-09
2.36541e-09
3.8783e-09
2.42119e-09
4.42469e-09
2.38683e-09
5.04805e-09
2.24384e-09
5.78054e-09
1.96656e-09
6.6597e-09
1.52072e-09
7.73025e-09
8.61464e-10
9.04603e-09
-6.89744e-11
1.06724e-08
-1.34411e-09
1.26892e-08
-3.05657e-09
1.51941e-08
-5.32209e-09
1.83066e-08
-8.28433e-09
2.21737e-08
-1.21206e-08
2.69751e-08
-1.70487e-08
3.29305e-08
-2.33352e-08
4.03082e-08
-3.13052e-08
4.94341e-08
-4.47423e-08
6.55151e-08
-5.47322e-08
7.53852e-08
-6.54229e-08
8.59458e-08
-7.67817e-08
9.71645e-08
-8.87765e-08
1.09009e-07
-1.01376e-07
1.21448e-07
-1.14549e-07
1.34452e-07
-1.28266e-07
1.47989e-07
-1.42498e-07
1.62032e-07
-1.57217e-07
1.76552e-07
-1.72395e-07
1.91522e-07
-1.88007e-07
2.06916e-07
-2.04026e-07
2.22709e-07
-2.20428e-07
2.38876e-07
-2.3719e-07
2.55393e-07
-2.54288e-07
2.72238e-07
-2.717e-07
2.89387e-07
-2.89404e-07
3.0682e-07
-3.07379e-07
3.24514e-07
-3.25603e-07
3.42451e-07
-3.44058e-07
3.60609e-07
-3.62725e-07
3.78969e-07
-3.81584e-07
3.97514e-07
-4.00618e-07
4.16226e-07
-4.19811e-07
4.35088e-07
-4.39147e-07
4.54086e-07
-4.58613e-07
4.73205e-07
-4.78194e-07
4.92432e-07
-4.97879e-07
5.11756e-07
-5.17659e-07
5.31166e-07
-5.37522e-07
5.50653e-07
-5.57462e-07
5.7021e-07
-5.77469e-07
5.89829e-07
-5.97539e-07
6.09503e-07
-6.17664e-07
6.29226e-07
-6.37838e-07
6.48993e-07
-6.58056e-07
6.68798e-07
-6.78311e-07
6.88636e-07
-6.98599e-07
7.08501e-07
-7.18913e-07
7.28387e-07
-7.39247e-07
7.48291e-07
-7.59598e-07
7.68205e-07
-7.79958e-07
7.88127e-07
-8.00325e-07
8.08051e-07
-8.20695e-07
8.27974e-07
-8.41063e-07
8.47892e-07
-8.61427e-07
8.67803e-07
-8.81785e-07
8.87705e-07
-9.02136e-07
9.07597e-07
-9.22479e-07
9.27478e-07
-9.42815e-07
9.47348e-07
-9.63142e-07
9.67208e-07
-9.83463e-07
9.87058e-07
-1.00378e-06
1.0069e-06
-1.02409e-06
1.02673e-06
-1.0444e-06
1.04656e-06
-1.06471e-06
1.06639e-06
-1.08502e-06
1.08621e-06
-1.10532e-06
1.10604e-06
-1.12558e-06
-3.31147e-07
-3.51239e-07
-3.71259e-07
-3.91203e-07
1.12591e-06
)
;
    }
    frontAndBackPlanes
    {
        type            empty;
    }
}


// ************************************************************************* //
