/*--------------------------------*- C++ -*----------------------------------*\
| =========                 |                                                 |
| \\      /  F ield         | OpenFOAM Extend Project: Open source CFD        |
|  \\    /   O peration     | Version:  1.6-ext                               |
|   \\  /    A nd           | Web:      www.extend-project.de                 |
|    \\/     M anipulation  |                                                 |
\*---------------------------------------------------------------------------*/
FoamFile
{
    version     2.0;
    format      ascii;
    class       volScalarField;
    location    "0.75";
    object      sigmaEq;
}
// * * * * * * * * * * * * * * * * * * * * * * * * * * * * * * * * * * * * * //

dimensions      [1 -1 -2 0 0 0 0];

internalField   nonuniform List<scalar> 
328
(
2.72211
0.798435
0.782159
3.41612
2.91246
0.79833
1.13418
3.6256
3.09349
0.893175
1.46817
3.86283
3.17214
0.951274
1.66099
3.97898
3.20953
0.980943
1.77849
4.04783
3.20836
0.983106
1.83392
4.06713
3.18747
0.971873
1.85529
4.06077
3.15326
0.953664
1.85413
4.03628
3.1117
0.933448
1.84067
4.00127
3.06538
0.913176
1.81989
3.95887
3.01586
0.893654
1.79519
3.91098
2.96371
0.874834
1.76822
3.85825
2.90908
0.856405
1.73984
3.80092
2.85186
0.837981
1.71036
3.73892
2.79184
0.819236
1.67975
3.6721
2.72878
0.799935
1.6478
3.60025
2.66243
0.779927
1.61421
3.52316
2.59257
0.759127
1.57865
3.44059
2.51904
0.737501
1.54082
3.35232
2.44168
0.715023
1.50041
3.25812
2.3605
0.691742
1.45719
3.15784
2.27526
0.667584
1.41092
3.05115
2.183
0.641101
1.35932
2.93418
2.08741
0.615561
1.3048
2.81045
1.99411
0.591313
1.2505
2.6879
1.90331
0.568203
1.19632
2.56665
1.81495
0.546149
1.14229
2.44677
1.72912
0.525145
1.08845
2.32836
1.64588
0.505172
1.03487
2.21154
1.56528
0.486218
0.981602
2.0964
1.48739
0.468267
0.928697
1.98305
1.41226
0.451302
0.876212
1.87158
1.33991
0.435304
0.824206
1.7621
1.2704
0.420254
0.772739
1.65469
1.20375
0.406133
0.721876
1.54946
1.13998
0.392921
0.671687
1.44651
1.07909
0.380598
0.622248
1.34594
1.0211
0.369147
0.573641
1.24784
0.965981
0.358553
0.525956
1.15232
0.913727
0.3488
0.479295
1.05948
0.864306
0.339876
0.43377
0.969431
0.817676
0.331765
0.389509
0.882263
0.773785
0.324456
0.346661
0.798079
0.732574
0.317931
0.305404
0.716974
0.69397
0.312173
0.265964
0.639042
0.657893
0.307155
0.228637
0.564369
0.624254
0.302847
0.193842
0.493035
0.592956
0.299211
0.162206
0.425115
0.563894
0.296198
0.134708
0.360673
0.536958
0.29375
0.112856
0.299766
0.512033
0.291801
0.0986573
0.242443
0.489
0.290275
0.0937514
0.18875
0.467734
0.28909
0.0977884
0.138737
0.44811
0.288158
0.108261
0.0925063
0.43
0.287385
0.122248
0.0504413
0.413276
0.286677
0.137601
0.0167088
0.397808
0.285938
0.153001
0.0302891
0.383467
0.285074
0.167675
0.0608444
0.370124
0.283994
0.181169
0.0892452
0.357648
0.282608
0.193211
0.114567
0.34591
0.280833
0.20364
0.136718
0.334781
0.278588
0.21236
0.155739
0.324129
0.275796
0.219323
0.171714
0.313825
0.272386
0.224509
0.184752
0.303736
0.268287
0.22792
0.194972
0.293726
0.263435
0.229576
0.20251
0.283663
0.257765
0.229508
0.207508
0.273408
0.251215
0.227755
0.210118
0.262828
0.243726
0.224363
0.210496
0.251791
0.235239
0.219379
0.2088
0.240173
0.225698
0.212851
0.205187
0.227861
0.215047
0.204822
0.199809
0.214769
0.203233
0.195321
0.192808
0.200836
0.190184
0.184346
0.18431
0.18607
0.175815
0.171863
0.174452
0.170531
0.159924
0.157696
0.163351
0.154558
0.142275
0.141627
0.151332
0.138479
0.122054
0.122846
0.138629
0.124057
0.0993488
0.101449
0.126854
0.110931
0.0731625
0.0762561
0.115309
0.104375
0.0566523
0.0595635
0.10921
0.0928125
0.0672914
0.0688036
0.0966455
)
;

boundaryField
{
    plateFix
    {
        type            calculated;
        value           nonuniform List<scalar> 4(2.75003 1.00926 0.885848 3.53474);
    }
    plate
    {
        type            calculated;
        value           nonuniform List<scalar> 
168
(
3.0079
3.73794
3.14647
3.91091
3.29142
4.10886
3.34004
4.18036
3.36079
4.22084
3.35017
4.22249
3.32465
4.20697
3.28802
4.17792
3.24498
4.14083
3.19738
4.09733
3.14646
4.04858
3.09265
3.99486
3.03608
3.93622
2.97666
3.87255
2.9142
3.8037
2.84846
3.72949
2.77923
3.64973
2.70628
3.56422
2.62945
3.47275
2.54859
3.3751
2.4637
3.27115
2.37452
3.16054
2.27807
3.03943
2.17807
2.91133
2.08033
2.78441
1.98519
2.65886
1.89256
2.53475
1.80256
2.41221
1.71524
2.29134
1.63067
2.17224
1.54891
2.05503
1.47001
1.9398
1.39402
1.82665
1.32098
1.71569
1.25093
1.60701
1.18387
1.50071
1.11984
1.3969
1.05883
1.29568
1.00084
1.19715
0.945857
1.10142
0.893847
1.00859
0.844773
0.918755
0.798585
0.832027
0.755221
0.748497
0.714609
0.66826
0.676665
0.591403
0.641298
0.518007
0.608406
0.448149
0.577879
0.381895
0.5496
0.319309
0.523448
0.260448
0.499295
0.205379
0.47701
0.154193
0.45646
0.107094
0.437511
0.0647463
0.420026
0.0310077
0.403869
0.029743
0.388906
0.0562277
0.375002
0.0841775
0.362022
0.109747
0.349835
0.132347
0.338309
0.151878
0.32731
0.168372
0.316707
0.181915
0.306368
0.192622
0.296159
0.200624
0.285945
0.206068
0.275595
0.209109
0.264977
0.209908
0.253965
0.208633
0.242443
0.205449
0.230308
0.200519
0.217487
0.194
0.203938
0.18604
0.189692
0.176799
0.174828
0.166422
0.159696
0.155256
0.144558
0.143495
0.131004
0.132649
0.118792
0.122312
0.116406
0.121291
0.11803
0.0749128
0.0656713
0.0665372
0.0772595
0.123351
)
;
    }
    frontAndBackPlanes
    {
        type            empty;
    }
}


// ************************************************************************* //
