/*--------------------------------*- C++ -*----------------------------------*\
| =========                 |                                                 |
| \\      /  F ield         | OpenFOAM Extend Project: Open source CFD        |
|  \\    /   O peration     | Version:  1.6-ext                               |
|   \\  /    A nd           | Web:      www.extend-project.de                 |
|    \\/     M anipulation  |                                                 |
\*---------------------------------------------------------------------------*/
FoamFile
{
    version     2.0;
    format      ascii;
    class       volSymmTensorField;
    location    "0.75";
    object      sigma;
}
// * * * * * * * * * * * * * * * * * * * * * * * * * * * * * * * * * * * * * //

dimensions      [1 -1 -2 0 0 0 0];

internalField   nonuniform List<symmTensor> 
328
(
(4.90652 0.392215 -6.0531e-22 1.96867 6.87006e-20 2.74828)
(1.23183 -0.325943 1.14614e-23 0.616233 5.53028e-23 0.738127)
(-1.33522 -0.178484 8.08357e-23 -0.533816 -7.23118e-23 -0.748716)
(-5.24136 0.71992 7.30201e-23 -1.65584 -9.51147e-20 -2.76081)
(4.76436 0.253966 2.28895e-21 1.52057 -1.5573e-19 2.51216)
(1.21963 -0.136882 1.96279e-22 0.358756 -7.33424e-24 0.630179)
(-1.32807 -0.0145394 3.41615e-23 -0.027978 1.07861e-22 -0.543615)
(-4.98471 0.480626 1.19209e-21 -0.968088 -5.6498e-20 -2.38305)
(4.77367 0.166111 -3.36032e-21 1.28707 -2.47038e-20 2.4224)
(1.27599 -0.000113013 -3.62463e-22 0.260273 8.94405e-23 0.613213)
(-1.46172 0.0939569 6.46893e-22 0.217117 1.89515e-22 -0.499173)
(-4.9628 0.307946 -5.08272e-21 -0.591582 1.55975e-19 -2.22378)
(4.728 0.11645 1.45627e-21 1.13623 1.16856e-20 2.34374)
(1.25915 0.0904582 5.12861e-22 0.188958 -4.3252e-23 0.577824)
(-1.46514 0.154844 -9.16729e-22 0.423929 -7.15907e-22 -0.417954)
(-4.87908 0.196597 4.09416e-21 -0.34094 4.38397e-20 -2.0901)
(4.69993 0.0917935 3.81994e-22 1.05908 7.57832e-20 2.3016)
(1.24765 0.143852 7.65724e-22 0.164577 3.08067e-22 0.563357)
(-1.4768 0.182097 -3.97249e-22 0.541482 -4.51753e-22 -0.375719)
(-4.83547 0.130034 8.94588e-22 -0.204801 -1.09376e-19 -2.01826)
(4.65998 0.0814839 1.55827e-21 1.01782 -4.91516e-20 2.26908)
(1.22129 0.175404 -1.37539e-21 0.153681 -3.60332e-22 0.548364)
(-1.45553 0.192578 -6.35109e-22 0.624651 7.20938e-22 -0.334041)
(-4.78646 0.0920023 -7.21359e-22 -0.127883 2.39506e-20 -1.96793)
(4.61772 0.0787613 -3.26088e-21 0.998592 8.33738e-20 2.24447)
(1.19654 0.192034 1.15935e-21 0.153978 -3.2816e-23 0.538519)
(-1.43118 0.193976 -7.59086e-22 0.673974 -3.6978e-22 -0.304637)
(-4.74337 0.0718194 2.7428e-22 -0.0896428 2.3352e-20 -1.93542)
(4.56929 0.0793942 3.42354e-21 0.98919 -1.79684e-20 2.22133)
(1.17096 0.19998 -2.41368e-21 0.156787 -2.09345e-23 0.529367)
(-1.39938 0.191954 2.7172e-21 0.705441 -1.03592e-21 -0.279372)
(-4.69786 0.0619524 -7.32296e-22 -0.0711685 -6.2491e-20 -1.90983)
(4.51623 0.0811592 -5.19066e-21 0.983883 4.80489e-20 2.19798)
(1.14754 0.202639 2.45467e-21 0.160587 1.60053e-22 0.521499)
(-1.3671 0.188998 3.53208e-21 0.723189 -6.58004e-23 -0.259384)
(-4.65002 0.0578517 -3.10967e-21 -0.0630659 8.39289e-20 -1.88745)
(4.45836 0.08297 4.3681e-21 0.979284 -8.20377e-20 2.173)
(1.12558 0.202454 1.40239e-21 0.163743 -6.32459e-22 0.513967)
(-1.3344 0.186368 -2.91908e-21 0.732615 -1.5341e-22 -0.242539)
(-4.59773 0.0566579 1.18623e-20 -0.0592686 -6.22521e-20 -1.86501)
(4.39612 0.084445 8.86984e-22 0.973949 6.46805e-20 2.14598)
(1.10508 0.200812 -1.10499e-20 0.166268 1.38171e-22 0.506778)
(-1.30273 0.184352 1.70438e-21 0.736141 1.01746e-21 -0.228461)
(-4.54033 0.0567536 -1.61057e-21 -0.0567627 1.60973e-20 -1.84103)
(4.32963 0.0855296 -6.43864e-21 0.967312 -8.13656e-20 2.11674)
(1.08543 0.198586 1.20725e-20 0.168286 2.55286e-21 0.49973)
(-1.27202 0.182888 4.37032e-22 0.735819 -1.04021e-21 -0.216297)
(-4.4771 0.0572215 -6.52251e-21 -0.0539841 1.03916e-20 -1.81462)
(4.25896 0.0863078 4.72375e-21 0.959265 5.15165e-20 2.08526)
(1.0662 0.196242 -1.235e-22 0.170148 -1.27944e-22 0.492789)
(-1.24222 0.181751 -6.90341e-21 0.732809 2.15366e-21 -0.20557)
(-4.40769 0.0575955 6.30319e-21 -0.0502846 2.0368e-20 -1.78536)
(4.18402 0.0868857 -1.89654e-21 0.949863 3.77435e-21 2.05154)
(1.04695 0.194014 -1.1167e-20 0.172113 2.08921e-23 0.485884)
(-1.2129 0.180718 5.24697e-21 0.727948 -2.68171e-22 -0.195778)
(-4.33184 0.0576594 -8.49998e-21 -0.0454553 -3.92238e-20 -1.75307)
(4.10465 0.0873458 -1.10237e-20 0.939194 -1.40993e-20 2.01554)
(1.02737 0.191978 -9.67526e-21 0.174361 -3.10604e-21 0.478964)
(-1.18363 0.179614 -6.64144e-21 0.721729 1.55697e-21 -0.186545)
(-4.24939 0.0573434 1.68039e-20 -0.0395161 1.07012e-20 -1.71769)
(4.02061 0.0877337 1.61025e-20 0.927318 1.59678e-21 1.9772)
(1.00725 0.190114 -9.49244e-22 0.17696 4.63065e-22 0.471962)
(-1.1539 0.178325 -1.08459e-20 0.714455 -6.44646e-24 -0.177549)
(-4.16023 0.0566545 1.26112e-20 -0.0325796 -2.828e-20 -1.67923)
(3.93166 0.0880605 -1.39765e-20 0.914259 -3.31549e-20 1.93641)
(0.986417 0.188352 1.62678e-20 0.179901 1.59968e-21 0.464817)
(-1.12322 0.176787 7.29788e-21 0.706278 3.75541e-21 -0.168539)
(-4.06424 0.0556363 -4.25023e-21 -0.0247939 3.11179e-20 -1.6377)
(3.83752 0.0883147 4.32079e-20 0.9 2.2823e-20 1.89307)
(0.96478 0.186599 -1.89184e-20 0.183118 -1.25492e-21 0.457458)
(-1.09119 0.174966 1.3809e-20 0.697252 -3.53486e-21 -0.159325)
(-3.9613 0.0543457 -2.71712e-21 -0.0163052 -5.94411e-20 -1.5931)
(3.73797 0.0884714 -3.39111e-20 0.884515 9.03014e-21 1.84708)
(0.942283 0.184758 -1.02593e-20 0.186528 -6.03334e-22 0.449832)
(-1.05743 0.172846 5.77493e-21 0.687375 -1.59343e-21 -0.149758)
(-3.85127 0.0528371 -1.22743e-20 -0.00724505 4.51949e-20 -1.54544)
(3.63275 0.0884951 -3.64866e-20 0.867715 -1.60247e-20 1.79829)
(0.918861 0.182732 2.40552e-20 0.190013 2.23649e-21 0.441867)
(-1.02165 0.17041 5.32007e-21 0.676595 2.8128e-21 -0.139748)
(-3.73399 0.0511616 3.45995e-20 0.00226955 -6.99784e-21 -1.49469)
(3.52189 0.08837 4.45166e-20 0.849611 1.37732e-20 1.74673)
(0.894571 0.180452 -2.27361e-21 0.193512 4.20697e-21 0.433562)
(-0.983617 0.167646 -1.51228e-20 0.664889 -2.26838e-21 -0.129203)
(-3.60936 0.0493451 -1.26086e-20 0.0121741 3.36982e-20 -1.44085)
(3.40479 0.087969 4.16482e-20 0.829863 -6.35937e-21 1.69202)
(0.869267 0.177763 -1.52515e-20 0.19681 -1.11894e-20 0.424771)
(-0.943178 0.164467 -2.30147e-21 0.652142 -9.70339e-22 -0.118112)
(-3.47711 0.0474048 5.36551e-21 0.0223721 6.48556e-21 -1.38383)
(3.27812 0.0870724 -2.71718e-20 0.808496 -4.85661e-21 1.63283)
(0.842299 0.173847 5.03774e-20 0.200296 2.62068e-20 0.415391)
(-0.89856 0.16001 -4.38148e-21 0.637822 -6.49979e-21 -0.105976)
(-3.33262 0.0447941 7.80793e-20 0.0330433 -2.55302e-20 -1.32173)
(3.14577 0.0868572 -6.94103e-20 0.785337 -1.57417e-20 1.57065)
(0.81446 0.171361 -2.39061e-20 0.203309 6.78616e-21 0.405476)
(-0.851307 0.156987 2.64919e-20 0.622061 3.37425e-21 -0.093362)
(-3.18075 0.0428634 -1.33182e-19 0.0432889 4.78782e-20 -1.25685)
(3.0159 0.0865022 -1.46908e-20 0.762027 1.93124e-20 1.50941)
(0.787691 0.168862 1.0063e-20 0.20584 -8.09688e-21 0.395795)
(-0.804243 0.154031 6.05768e-20 0.606312 3.70263e-20 -0.0808182)
(-3.03036 0.0410783 6.39778e-20 0.0534078 -6.1314e-20 -1.19261)
(2.88866 0.0860136 3.41623e-20 0.738444 -5.37322e-22 1.44911)
(0.761829 0.166209 -1.50606e-21 0.207736 -1.1383e-20 0.386224)
(-0.757594 0.150966 -7.66032e-21 0.590282 -4.01454e-20 -0.0685526)
(-2.88219 0.0392828 -3.52534e-20 0.0627726 2.34404e-20 -1.12956)
(2.76423 0.0853721 4.66136e-20 0.714859 -2.24581e-20 1.38993)
(0.736957 0.163396 -8.50781e-20 0.209156 -2.90741e-20 0.376858)
(-0.711264 0.147805 2.25254e-20 0.574108 1.01219e-20 -0.0564726)
(-2.73612 0.0375265 -5.2733e-20 0.0715858 -5.27381e-20 -1.06757)
(2.64261 0.0846162 -8.38981e-20 0.691161 9.02252e-21 1.33183)
(0.713004 0.160428 -4.06551e-20 0.210009 2.07261e-20 0.367633)
(-0.665388 0.144534 -3.69719e-20 0.557708 3.88753e-20 -0.0446641)
(-2.59244 0.035781 4.08648e-20 0.0796783 5.50171e-20 -1.00683)
(2.52395 0.0837364 1.13709e-19 0.667449 1.34659e-20 1.27491)
(0.69002 0.15731 5.39351e-20 0.210341 -7.16715e-20 0.358588)
(-0.619968 0.141165 3.37771e-20 0.541145 -1.4775e-20 -0.0331041)
(-2.45121 0.0340616 4.75736e-20 0.0871205 -3.19612e-20 -0.947333)
(2.40831 0.0827465 -9.26928e-20 0.643691 6.41213e-21 1.21917)
(0.667982 0.15405 1.82321e-21 0.210117 5.08525e-21 0.349698)
(-0.575088 0.137698 -1.37122e-19 0.524396 4.57542e-20 -0.0218342)
(-2.3126 0.032358 -1.95584e-20 0.0938517 -6.59191e-21 -0.889168)
(2.29579 0.081644 1.38954e-20 0.619929 -1.69877e-20 1.16468)
(0.646906 0.15065 -4.04835e-20 0.20935 -9.48878e-22 0.340976)
(-0.530782 0.134138 6.53139e-20 0.507485 -4.86138e-21 -0.0108585)
(-2.17672 0.0306756 -6.72655e-20 0.0998855 4.48104e-20 -0.832373)
(2.18645 0.0804339 2.52954e-20 0.596165 -2.7379e-20 1.11146)
(0.626785 0.147118 -7.71151e-21 0.208027 -5.18394e-20 0.332413)
(-0.487111 0.130488 -1.42514e-19 0.490412 4.45221e-20 -0.000202432)
(-2.04371 0.0290124 1.13575e-19 0.105196 -7.52684e-21 -0.777014)
(2.08035 0.0791157 -1.61361e-19 0.57242 3.2106e-20 1.05955)
(0.60762 0.143455 1.5809e-19 0.20615 3.38815e-20 0.324012)
(-0.444123 0.126752 8.4412e-20 0.47319 -1.51323e-20 0.0101208)
(-1.91367 0.0273718 -1.75879e-21 0.109781 2.37067e-20 -0.723138)
(1.97756 0.0776909 7.34172e-20 0.54871 -4.03365e-20 1.00897)
(0.589402 0.139668 -1.68636e-20 0.203716 1.42385e-20 0.315767)
(-0.401875 0.122935 1.06714e-19 0.455826 -6.58951e-20 0.0200914)
(-1.78674 0.0257556 -6.96094e-20 0.113629 2.97666e-20 -0.670799)
(1.87814 0.0761594 -5.88017e-20 0.525054 5.81731e-20 0.959759)
(0.572125 0.135759 1.15961e-19 0.20073 7.10854e-20 0.307677)
(-0.36042 0.119042 5.36711e-20 0.438334 -1.40664e-20 0.0296936)
(-1.66302 0.0241672 -1.16952e-19 0.116737 1.7951e-20 -0.620043)
(1.78213 0.0745214 1.74085e-19 0.501473 -3.0092e-20 0.911942)
(0.555774 0.131736 -1.48025e-20 0.197196 2.91508e-20 0.299738)
(-0.319813 0.115079 -4.63389e-20 0.420728 -3.19329e-20 0.0389103)
(-1.54263 0.0226105 1.89402e-20 0.119101 -7.26558e-20 -0.570919)
(1.68956 0.0727772 -8.6231e-20 0.477992 6.65205e-20 0.865543)
(0.540333 0.127602 -8.45446e-20 0.193123 1.48132e-19 0.291947)
(-0.280113 0.111051 6.06616e-20 0.403024 -2.3361e-20 0.0477257)
(-1.4257 0.0210899 -4.01998e-20 0.120724 -4.85673e-21 -0.523472)
(1.60047 0.0709273 -6.83412e-20 0.454636 2.98262e-20 0.820587)
(0.52578 0.123364 5.14834e-20 0.188523 -2.34133e-19 0.284302)
(-0.241376 0.106967 -1.17046e-19 0.385243 1.48359e-19 0.0561245)
(-1.31232 0.0196104 8.94523e-20 0.121612 -6.62955e-20 -0.477742)
(1.51489 0.0689722 1.10724e-19 0.431436 -1.30812e-19 0.777093)
(0.512091 0.119029 6.73754e-20 0.183413 -1.66746e-19 0.276798)
(-0.203662 0.102833 -1.67884e-19 0.367407 -4.427e-20 0.0640925)
(-1.2026 0.0181774 1.03558e-19 0.121774 1.24046e-19 -0.433768)
(1.43282 0.0669136 2.76895e-19 0.408424 1.29077e-19 0.735079)
(0.499237 0.114606 -1.73688e-19 0.177814 2.40122e-19 0.269432)
(-0.167031 0.0986602 1.49265e-19 0.349544 -2.2716e-20 0.0716166)
(-1.09665 0.0167964 -3.02312e-19 0.121225 -6.47676e-20 -0.391586)
(1.35427 0.0647532 -1.78942e-19 0.385636 4.06734e-20 0.694563)
(0.487183 0.110102 1.41755e-19 0.17175 1.03531e-20 0.262201)
(-0.131542 0.094457 1.00575e-19 0.331683 6.99037e-20 0.0786849)
(-0.994567 0.0154732 -2.21075e-19 0.119986 1.39685e-19 -0.351226)
(1.27923 0.0624938 -1.42929e-19 0.363111 -7.99626e-20 0.655556)
(0.475892 0.105529 7.87406e-21 0.165253 -6.35534e-20 0.255102)
(-0.0972548 0.0902343 1.12599e-19 0.313859 -1.13767e-19 0.0852869)
(-0.896438 0.0142137 1.63592e-19 0.118081 -6.7801e-20 -0.312715)
(1.20768 0.060139 3.25315e-19 0.340891 1.2218e-20 0.618068)
(0.465324 0.100897 -2.98486e-19 0.158355 7.42853e-20 0.248132)
(-0.064229 0.0860037 3.19144e-20 0.296108 -6.69594e-21 0.0914141)
(-0.802347 0.0130238 -4.84656e-20 0.11554 1.27756e-19 -0.276075)
(1.1396 0.0576933 9.89618e-20 0.31902 -8.39993e-20 0.582106)
(0.455432 0.0962176 -1.32928e-19 0.151094 -1.61791e-19 0.241288)
(-0.0325219 0.0817771 1.15759e-19 0.278471 1.81152e-19 0.0970594)
(-0.712373 0.0119089 4.96622e-20 0.112398 1.13451e-20 -0.241321)
(1.07494 0.0551621 3.44889e-19 0.297542 -3.1905e-20 0.547673)
(0.446168 0.0915045 -1.05885e-19 0.143514 5.7136e-21 0.234568)
(-0.00218921 0.0775672 -2.97824e-20 0.260991 -1.75729e-19 0.102218)
(-0.626579 0.0108743 -1.05108e-19 0.108696 -2.12023e-19 -0.208465)
(1.01367 0.0525516 -6.6698e-20 0.276506 5.5115e-20 0.514767)
(0.437481 0.086771 -3.20834e-20 0.135659 1.50069e-19 0.227968)
(0.026716 0.0733869 -3.3337e-19 0.243711 4.35219e-19 0.106885)
(-0.545023 0.00992499 -1.55786e-19 0.104477 -1.434e-19 -0.17751)
(0.95571 0.0498692 4.87408e-19 0.255959 4.26297e-20 0.483384)
(0.429316 0.0820315 -4.88439e-20 0.127578 5.81449e-20 0.221486)
(0.0541437 0.0692495 8.89121e-20 0.22668 -1.39367e-19 0.111061)
(-0.467749 0.00906523 4.26375e-19 0.0997901 9.80007e-20 -0.148456)
(0.900998 0.0471226 3.64286e-20 0.235948 -8.37041e-20 0.453513)
(0.421617 0.0773009 -1.06259e-19 0.11932 -3.07147e-19 0.215121)
(0.0800477 0.0651685 -1.60759e-19 0.209945 -8.20999e-20 0.114746)
(-0.394788 0.00829882 -2.24421e-19 0.0946868 -6.23609e-21 -0.121294)
(0.849453 0.0443208 -2.56906e-20 0.21652 -6.87846e-20 0.425142)
(0.414325 0.0725943 -1.33147e-20 0.110938 -4.68768e-20 0.208869)
(0.104386 0.0611571 4.08766e-20 0.193553 1.17411e-19 0.117942)
(-0.326159 0.00762889 -2.34547e-19 0.0892215 5.49985e-20 -0.0960094)
(0.800981 0.041473 4.45338e-20 0.19772 -8.25119e-20 0.398252)
(0.407381 0.0679269 -8.03687e-20 0.102485 4.19574e-19 0.202727)
(0.127122 0.0572284 -1.21772e-20 0.177552 -1.38998e-19 0.120653)
(-0.261868 0.0070579 -8.66526e-20 0.0834507 1.16055e-19 -0.0725828)
(0.755483 0.0385888 2.27241e-20 0.17959 -1.283e-19 0.372819)
(0.400724 0.0633138 4.80139e-19 0.0940132 -4.45422e-20 0.196692)
(0.148224 0.0533948 -3.09405e-19 0.161988 1.48717e-19 0.122886)
(-0.201905 0.00658755 1.51003e-19 0.0774319 -1.23337e-19 -0.0509871)
(0.712849 0.0356782 -2.3593e-19 0.162171 5.75599e-20 0.348816)
(0.394293 0.0587696 -1.60225e-19 0.0855746 -4.76882e-19 0.190761)
(0.167665 0.0496683 6.78427e-21 0.146907 -2.17214e-19 0.124647)
(-0.146248 0.00621885 2.74635e-19 0.0712234 4.22338e-20 -0.0311899)
(0.672963 0.0327513 4.12677e-19 0.145498 2.00191e-19 0.326209)
(0.388026 0.0543084 -1.57918e-19 0.07722 4.93842e-20 0.18493)
(0.185425 0.04606 1.70754e-19 0.13235 1.6897e-19 0.125945)
(-0.0948599 0.00595212 2.64425e-19 0.0648828 -3.01997e-19 -0.0131534)
(0.635698 0.0298181 -4.33823e-20 0.129603 -9.12198e-20 0.304963)
(0.381864 0.0499438 8.07197e-20 0.068998 2.60481e-19 0.179193)
(0.20149 0.0425802 -1.20353e-19 0.118356 -1.22631e-19 0.126789)
(-0.0476903 0.00578704 -4.32689e-19 0.0584668 1.96961e-19 0.003165)
(0.600926 0.0268884 -3.91452e-20 0.114514 1.1239e-19 0.285035)
(0.375747 0.0456882 1.72917e-19 0.0609549 1.95161e-19 0.173545)
(0.21585 0.0392382 3.27825e-19 0.10496 -2.17926e-19 0.127191)
(-0.00467592 0.00572275 2.54145e-19 0.0520302 1.42233e-19 0.0178128)
(0.568511 0.0239716 -2.56643e-19 0.100253 -2.14039e-19 0.266381)
(0.369615 0.0415535 5.8875e-20 0.0531334 -4.34167e-19 0.16798)
(0.228504 0.0360426 -7.10427e-19 0.0921928 4.31824e-19 0.127162)
(0.0342594 0.00575794 2.22833e-19 0.0456255 -3.28716e-20 0.0308412)
(0.53831 0.0210767 -1.01183e-19 0.0868367 -2.0892e-19 0.248951)
(0.363412 0.0375506 -3.20016e-19 0.0455731 2.90124e-19 0.16249)
(0.239453 0.0330011 4.5461e-19 0.0800821 -3.67151e-19 0.126713)
(0.0692036 0.00589102 -1.9579e-19 0.0393021 -1.48482e-19 0.0423054)
(0.510179 0.0182124 -2.27672e-19 0.0742777 1.31805e-19 0.232691)
(0.357082 0.0336895 4.06123e-19 0.0383097 2.0707e-19 0.157068)
(0.248708 0.0301206 -5.79194e-19 0.0686496 1.24505e-19 0.125857)
(0.100256 0.00612023 -6.70389e-20 0.0331064 2.81896e-19 0.0522636)
(0.48397 0.0153867 4.337e-20 0.0625825 1.77543e-19 0.217545)
(0.350571 0.0299798 7.11965e-20 0.0313752 -4.22154e-19 0.151705)
(0.256282 0.0274079 2.04204e-19 0.0579125 2.54555e-19 0.124607)
(0.127527 0.00644383 4.40109e-19 0.0270812 -3.48128e-19 0.060777)
(0.459529 0.012607 -1.81804e-19 0.0517523 -1.69921e-19 0.203452)
(0.343825 0.0264304 -2.38853e-19 0.0247974 3.4983e-19 0.146391)
(0.262195 0.0248693 7.33975e-20 0.0478835 -4.34216e-19 0.122975)
(0.151136 0.00686027 -4.1681e-19 0.0212656 1.29454e-19 0.0679093)
(0.436702 0.0098802 -1.20535e-19 0.0417835 2.0097e-19 0.190348)
(0.336794 0.02305 7.03014e-20 0.0186006 -8.56281e-19 0.141114)
(0.26647 0.022511 3.96043e-19 0.0385704 2.33899e-19 0.120975)
(0.171214 0.00736834 -3.32389e-19 0.0156952 1.54977e-19 0.0737269)
(0.415328 0.00721278 -2.04822e-19 0.0326675 -2.03572e-20 0.178167)
(0.329427 0.0198472 1.10312e-19 0.0128054 4.017e-19 0.135864)
(0.269138 0.0203395 -3.54635e-19 0.0299766 2.37608e-19 0.118619)
(0.187901 0.00796736 1.98391e-19 0.0104022 -3.40945e-19 0.0782986)
(0.395244 0.00461063 -2.32328e-19 0.0243912 4.40238e-20 0.166838)
(0.321675 0.0168304 -1.20493e-19 0.00742913 -1.35498e-19 0.130627)
(0.270231 0.0183618 -8.43223e-20 0.0221015 6.71358e-20 0.11592)
(0.201344 0.00865727 1.34214e-19 0.00541576 1.01901e-19 0.0816952)
(0.376284 0.00207917 9.71562e-20 0.0169374 -1.27364e-19 0.156287)
(0.31349 0.0140085 2.98023e-19 0.00248623 7.3713e-20 0.12539)
(0.269788 0.0165852 8.2588e-19 0.0149406 3.13616e-19 0.112893)
(0.211701 0.00943878 -1.30847e-19 0.000762303 1.91877e-19 0.0839905)
(0.358275 -0.000376677 -1.22642e-19 0.0102854 -1.49824e-20 0.146437)
(0.304825 0.0113901 -3.40464e-19 -0.00201119 2.7003e-19 0.120139)
(0.267849 0.0150176 -1.92934e-19 0.00848585 -2.68223e-19 0.109549)
(0.219138 0.0103134 -7.05486e-20 -0.00353401 -3.33331e-19 0.0852604)
(0.341043 -0.00275261 -1.64674e-19 0.00441113 -6.83001e-22 0.137208)
(0.295631 0.00898395 2.51459e-20 -0.00605294 -9.00857e-19 0.114858)
(0.26446 0.0136672 -9.09482e-20 0.00272679 7.41114e-19 0.105903)
(0.223828 0.0112834 -1.88939e-20 -0.00745069 -1.58926e-20 0.0855833)
(0.324408 -0.00504516 -3.21613e-19 -0.000711834 3.17578e-19 0.128519)
(0.285863 0.00679806 3.04022e-20 -0.00963015 5.52769e-19 0.109534)
(0.259668 0.012542 2.81094e-19 -0.00234949 -5.50227e-19 0.101969)
(0.225953 0.0123516 4.77568e-19 -0.0109663 -2.08882e-19 0.08504)
(0.308188 -0.00725201 2.36107e-19 -0.00511192 7.01572e-20 0.120284)
(0.275473 0.0048389 -2.51329e-19 -0.0127348 -1.15586e-18 0.104149)
(0.253522 0.0116489 -2.14826e-19 -0.00675703 1.14036e-18 0.0977612)
(0.225697 0.0135212 -2.64157e-19 -0.0140601 4.93867e-20 0.0837132)
(0.292199 -0.00937266 -3.45551e-19 -0.0088182 3.92816e-19 0.112419)
(0.264416 0.00311004 2.38476e-19 -0.015359 -5.99472e-20 0.09869)
(0.246073 0.0109927 5.7365e-19 -0.0105105 -1.81466e-19 0.0932933)
(0.22325 0.0147954 -3.15726e-19 -0.016711 -1.31239e-19 0.0816868)
(0.276259 -0.0114092 -2.0128e-19 -0.0118601 -3.21794e-19 0.10484)
(0.252647 0.00161031 7.54936e-20 -0.0174946 2.79484e-19 0.0931409)
(0.237371 0.010574 -2.85134e-19 -0.0136238 -2.97742e-19 0.08858)
(0.2188 0.0161766 -1.4115e-19 -0.0188976 -1.90604e-19 0.0790448)
(0.260196 -0.0133676 -2.31416e-19 -0.0142651 4.66371e-21 0.0974651)
(0.240123 0.000331091 6.3912e-19 -0.0191321 6.97602e-19 0.0874888)
(0.227465 0.0103879 -3.18599e-19 -0.0161084 -1.33703e-19 0.083636)
(0.212532 0.0176662 1.90387e-19 -0.0205966 2.71929e-19 0.0758698)
(0.243844 -0.0152594 -6.09884e-19 -0.0160579 1.57667e-19 0.0902196)
(0.2268 -0.00074678 -2.26228e-19 -0.0202606 4.1209e-19 0.0817206)
(0.216396 0.0104215 6.94534e-19 -0.017972 -1.64994e-19 0.0784747)
(0.204616 0.0192638 -9.0917e-19 -0.0217834 2.61296e-19 0.0722407)
(0.227067 -0.017105 1.38325e-19 -0.0172551 7.33893e-20 0.0830417)
(0.212642 -0.0016578 1.32069e-19 -0.0208616 3.71386e-19 0.0758284)
(0.204198 0.0106538 -2.39454e-19 -0.0192115 -3.44409e-19 0.0731116)
(0.195214 0.0209684 -1.20077e-19 -0.0224283 -1.95164e-19 0.0682331)
(0.209752 -0.0189368 6.9365e-19 -0.0178643 -4.06105e-19 0.0758831)
(0.19759 -0.002457 -4.34148e-19 -0.0209139 -3.98466e-19 0.0697979)
(0.190876 0.0110569 9.62453e-19 -0.0198167 -4.8095e-19 0.0675517)
(0.184456 0.0227803 3.00934e-19 -0.0224967 5.79206e-19 0.0639135)
(0.191866 -0.0208114 5.32468e-21 -0.0178617 -2.72406e-19 0.0687406)
(0.181604 -0.00323273 -4.1018e-19 -0.0203562 6.78423e-19 0.0636373)
(0.17643 0.0116078 -4.95742e-21 -0.0197312 4.74753e-19 0.061818)
(0.172486 0.0247121 -4.99738e-19 -0.0219306 -2.54697e-19 0.059362)
(0.173407 -0.0228183 -3.93305e-19 -0.017197 2.73961e-19 0.061633)
(0.164485 -0.00411632 4.20338e-19 -0.0191377 -3.72614e-19 0.057287)
(0.160682 0.0123014 -1.58357e-19 -0.0189038 -4.08822e-19 0.0558593)
(0.159392 0.0267989 2.76367e-19 -0.020653 -2.87806e-19 0.0546454)
(0.154723 -0.0251357 5.56497e-19 -0.0156701 -1.43588e-19 0.0547791)
(0.146173 -0.00532821 -2.90979e-19 -0.0169948 1.30748e-18 0.0508283)
(0.143571 0.0132088 -3.79527e-19 -0.0170635 -8.42367e-19 0.0497605)
(0.145527 0.0291619 -1.32418e-19 -0.0184511 3.49793e-19 0.049989)
(0.135971 -0.0280013 -2.03496e-19 -0.0130339 -2.14729e-19 0.0483414)
(0.125548 -0.00713722 1.05525e-19 -0.0139785 6.21752e-19 0.0437932)
(0.123954 0.0144517 7.83844e-19 -0.0142491 -5.62119e-19 0.0430477)
(0.130975 0.0319804 -2.55961e-19 -0.015063 1.89014e-20 0.0455317)
(0.119187 -0.0318535 -8.3497e-20 -0.00837716 5.64412e-19 0.0434982)
(0.103128 -0.00989642 7.08165e-19 -0.0092522 -1.03644e-18 0.0367235)
(0.102323 0.0162691 -7.20271e-20 -0.00960447 6.9439e-19 0.0362606)
(0.117636 0.0356697 3.2342e-19 -0.0095899 2.00293e-19 0.0423927)
(0.102998 -0.0361063 1.37148e-19 -0.00204468 -2.2458e-20 0.0395623)
(0.0733176 -0.0130479 1.48438e-20 -0.0065641 -3.45984e-19 0.0258807)
(0.0729925 0.0180415 -3.24575e-20 -0.00686779 -2.34604e-19 0.0256292)
(0.103922 0.0395962 -2.51605e-19 -0.0023604 3.47312e-19 0.0398058)
(0.0958744 -0.0382689 4.99739e-19 0.00360807 5.37594e-20 0.0389799)
(0.0487236 -0.0147879 -2.9065e-19 -0.00936677 7.671e-19 0.0149271)
(0.0486842 0.018127 -3.92301e-19 -0.00950678 -1.61612e-19 0.0148554)
(0.0983318 0.041389 -7.915e-19 0.00405821 -4.81428e-19 0.040143)
(0.0661525 -0.0270828 -9.62699e-20 -0.0261557 5.34122e-19 0.0151883)
(0.00668189 -0.0104126 1.70864e-19 -0.0679252 6.21578e-19 -0.0253113)
(0.00660878 0.01283 -1.74932e-19 -0.0683259 1.02112e-19 -0.0255008)
(0.0686532 0.0296422 3.00134e-19 -0.0257102 1.87819e-19 0.0163668)
)
;

boundaryField
{
    plateFix
    {
        type            calculated;
        value           nonuniform List<symmTensor> 4((4.86637 0.477518 -1.3695e-21 1.94237 6.84371e-20 2.72154) (1.12778 -0.495682 1.14595e-23 0.546887 5.52912e-23 0.668734) (-1.14787 -0.342188 8.08409e-23 -0.408898 -7.23065e-23 -0.623839) (-5.21719 0.899177 -1.113e-21 -1.63917 -9.46085e-20 -2.74466));
    }
    plate
    {
        type            calculated;
        value           nonuniform List<symmTensor> 
168
(
(3.88917 0.000640929 -3.02462e-22 0.452643 -1.73804e-20 1.73486)
(-3.84277 -0.00127461 -1.27474e-22 0.455877 1.78759e-20 -1.35674)
(4.04893 0.00075596 1.6665e-21 0.453412 -4.0113e-21 1.79902)
(-4.04052 -0.00125358 1.44168e-21 0.45663 -4.315e-20 -1.4356)
(4.2161 0.00122758 -3.73512e-21 0.454275 1.36361e-20 1.86616)
(-4.26682 -0.00158884 -5.44566e-21 0.457484 6.10955e-20 -1.52587)
(4.27267 0.00199336 1.45336e-21 0.455087 -2.33049e-20 1.88909)
(-4.34806 -0.00224392 4.06974e-21 0.458297 -1.40496e-20 -1.55808)
(4.29713 0.00301335 3.57275e-22 0.455764 2.72121e-20 1.89912)
(-4.39383 -0.00320481 8.78683e-22 0.458985 3.28734e-21 -1.57614)
(4.28539 0.00420973 1.53945e-21 0.456236 1.93162e-20 1.89461)
(-4.39523 -0.00437384 -7.13704e-22 0.459477 -1.27691e-20 -1.57651)
(4.25632 0.00552424 -3.22902e-21 0.456468 -3.10078e-20 1.88307)
(-4.37717 -0.00568654 2.74473e-22 0.459738 2.28558e-20 -1.56918)
(4.21425 0.006903 3.40997e-21 0.456445 1.62481e-20 1.86623)
(-4.34382 -0.00708096 -7.47504e-22 0.459756 -1.49323e-20 -1.55583)
(4.16459 0.00830738 -5.16323e-21 0.456167 -1.89932e-20 1.84626)
(-4.30147 -0.0085143 -3.07373e-21 0.459528 -1.86145e-20 -1.53898)
(4.10944 0.00970963 4.31934e-21 0.455637 1.90964e-20 1.824)
(-4.25201 -0.00995535 1.18079e-20 0.459057 3.15025e-20 -1.51938)
(4.05023 0.0110925 9.23989e-22 0.454858 -3.51986e-21 1.80001)
(-4.19676 -0.0113845 -1.60343e-21 0.458349 5.36968e-21 -1.49755)
(3.98747 0.0124466 -6.49222e-21 0.453831 -1.66426e-21 1.7745)
(-4.13602 -0.0127904 -6.49637e-21 0.457405 -3.14986e-20 -1.47362)
(3.92129 0.0137684 4.76839e-21 0.45255 -1.1544e-20 1.74753)
(-4.06988 -0.014168 6.30524e-21 0.456222 1.18479e-20 -1.44762)
(3.85159 0.015058 -1.90259e-21 0.451004 1.07789e-20 1.71904)
(-3.9982 -0.0155162 -8.53154e-21 0.454789 -1.73954e-21 -1.41951)
(3.77811 0.0163171 -1.10333e-20 0.449172 -2.05679e-21 1.68893)
(-3.92085 -0.0168358 1.68095e-20 0.453088 -1.17542e-21 -1.38923)
(3.70057 0.017547 1.60942e-20 0.447024 6.12534e-21 1.65707)
(-3.83762 -0.0181276 1.2596e-20 0.451094 -5.67345e-21 -1.35672)
(3.61866 0.0187478 -1.40047e-20 0.444525 4.10013e-22 1.62333)
(-3.74835 -0.0193912 -4.22294e-21 0.448772 6.31842e-21 -1.32191)
(3.53211 0.0199157 4.32304e-20 0.44163 4.8268e-21 1.58757)
(-3.65284 -0.0206227 -2.7776e-21 0.446081 4.04599e-21 -1.28476)
(3.44068 0.0210452 -3.39022e-20 0.438294 -2.81442e-23 1.54968)
(-3.55089 -0.0218166 -1.22068e-20 0.442979 -7.26619e-21 -1.24519)
(3.34411 0.0221189 -3.65114e-20 0.434447 -8.74548e-23 1.50954)
(-3.44231 -0.0229557 3.46021e-20 0.439402 2.37635e-21 -1.20316)
(3.24243 0.0231384 4.45305e-20 0.430092 -1.81604e-21 1.46715)
(-3.32695 -0.0240422 -1.25848e-20 0.435353 7.45366e-21 -1.15861)
(3.13514 0.0240279 4.16392e-20 0.425016 -1.6936e-22 1.42222)
(-3.20462 -0.0250033 5.35881e-21 0.430625 3.06382e-21 -1.11154)
(3.01903 0.0250373 -2.71799e-20 0.41948 5.58458e-21 1.37359)
(-3.07065 -0.0260804 7.80353e-20 0.425474 -2.01962e-21 -1.05997)
(2.89757 0.0260624 -6.94431e-20 0.412638 8.20163e-21 1.3223)
(-2.92983 -0.0271617 -1.33109e-19 0.419099 6.3621e-21 -1.00616)
(2.77867 0.0269043 -1.46626e-20 0.40574 -1.18136e-20 1.27201)
(-2.79043 -0.0280601 6.38803e-20 0.412667 -6.06952e-21 -0.952938)
(2.66219 0.0276792 3.41518e-20 0.39828 1.16606e-20 1.22246)
(-2.65313 -0.0288837 -3.52032e-20 0.4057 2.64911e-21 -0.900766)
(2.54835 0.0283403 4.65612e-20 0.390572 2.04071e-21 1.17387)
(-2.51771 -0.02959 -5.28128e-20 0.398492 -7.6694e-21 -0.84945)
(2.43711 0.0289321 -8.38833e-20 0.382433 -3.33576e-21 1.12614)
(-2.38449 -0.0302225 4.0994e-20 0.390865 -3.21077e-21 -0.79918)
(2.32863 0.029436 1.13719e-19 0.37397 6.45637e-21 1.07939)
(-2.2535 -0.0307642 4.74878e-20 0.38292 -1.24111e-21 -0.749929)
(2.22294 0.029867 -9.267e-20 0.365126 -2.72109e-21 1.0336)
(-2.12491 -0.0312305 -1.95568e-20 0.374598 -6.97091e-21 -0.701793)
(2.12013 0.0302184 1.3833e-20 0.355937 2.01267e-21 0.988824)
(-1.99882 -0.0316157 -6.71935e-20 0.365927 1.66298e-21 -0.654795)
(2.02026 0.0304941 2.52342e-20 0.346388 -5.36045e-21 0.94508)
(-1.87536 -0.0319241 1.13559e-19 0.356891 3.24359e-22 -0.608997)
(1.9234 0.0306905 -1.61259e-19 0.336492 -3.0332e-21 0.902398)
(-1.75463 -0.0321526 -1.72269e-21 0.347497 1.82057e-22 -0.564436)
(1.82959 0.0308068 7.33029e-20 0.326252 2.68622e-22 0.8608)
(-1.63676 -0.0323011 -6.95679e-20 0.337744 1.32278e-20 -0.521161)
(1.73888 0.0308401 -5.86371e-20 0.31568 2.44872e-21 0.820309)
(-1.52184 -0.0323667 -1.16923e-19 0.327638 7.74714e-21 -0.479212)
(1.65132 0.0307877 1.74001e-19 0.304787 -1.51838e-21 0.780948)
(-1.41 -0.0323471 1.87854e-20 0.317184 -9.42269e-21 -0.438634)
(1.56693 0.0306464 -8.60369e-20 0.293587 -9.55841e-22 0.742734)
(-1.30134 -0.0322392 -4.0217e-20 0.306392 -9.79981e-23 -0.399462)
(1.48575 0.0304133 -6.82421e-20 0.282101 -2.34487e-21 0.705687)
(-1.19597 -0.0320399 8.92661e-20 0.295275 5.11707e-22 -0.361736)
(1.40779 0.0300854 1.10331e-19 0.270351 6.7306e-22 0.669822)
(-1.09398 -0.0317459 1.03906e-19 0.283852 2.80389e-21 -0.325487)
(1.33306 0.0296598 2.77281e-19 0.258363 -2.2387e-21 0.635154)
(-0.995477 -0.0313543 -3.02499e-19 0.272142 3.77693e-21 -0.290749)
(1.26156 0.0291345 -1.78824e-19 0.246169 -6.55356e-22 0.601695)
(-0.900554 -0.0308624 -2.20638e-19 0.260172 -1.30705e-21 -0.257546)
(1.19328 0.0285074 -1.43197e-19 0.233802 -4.39304e-22 0.569455)
(-0.809299 -0.0302677 1.63344e-19 0.247971 7.22599e-21 -0.225903)
(1.1282 0.0277777 3.25342e-19 0.221302 7.20936e-21 0.538442)
(-0.721792 -0.0295686 -4.80981e-20 0.235573 1.71375e-21 -0.195839)
(1.06629 0.0269448 9.86748e-20 0.208709 -6.31464e-21 0.508661)
(-0.638108 -0.0287641 4.96906e-20 0.223017 8.29203e-24 -0.167367)
(1.00751 0.0260094 3.4479e-19 0.196069 -1.91208e-21 0.480114)
(-0.558311 -0.0278538 -1.0576e-19 0.210344 -5.63908e-22 -0.140497)
(0.951822 0.0249727 -6.65443e-20 0.183429 -3.80787e-21 0.4528)
(-0.482456 -0.0268383 -1.56217e-19 0.1976 -2.0916e-21 -0.115233)
(0.899155 0.0238369 4.87553e-19 0.170838 1.51223e-21 0.426715)
(-0.410588 -0.025719 4.26672e-19 0.184832 1.67777e-21 -0.091574)
(0.849443 0.0226051 3.61393e-20 0.158345 2.01489e-22 0.401852)
(-0.342739 -0.0244983 -2.24426e-19 0.17209 -3.94628e-22 -0.0695122)
(0.802608 0.0212812 -2.58878e-20 0.146002 -1.08709e-23 0.3782)
(-0.278931 -0.0231791 -2.34343e-19 0.159425 -1.21809e-21 -0.0490357)
(0.758562 0.0198698 4.42633e-20 0.133858 -4.86502e-24 0.355742)
(-0.219171 -0.0217656 -8.62207e-20 0.146891 -1.5651e-21 -0.0301271)
(0.717209 0.0183763 2.2247e-20 0.121963 7.41489e-22 0.33446)
(-0.163453 -0.0202623 1.50609e-19 0.134537 -2.42893e-21 -0.0127634)
(0.678444 0.0168065 -2.35714e-19 0.110363 -1.6542e-21 0.314332)
(-0.111761 -0.0186746 2.74754e-19 0.122416 1.8158e-21 0.00308283)
(0.642156 0.0151666 4.13324e-19 0.0991041 -1.58884e-21 0.295331)
(-0.0640623 -0.0170082 2.63433e-19 0.110576 -1.2038e-21 0.0174439)
(0.608227 0.0134634 -4.3697e-20 0.0882273 3.57366e-21 0.277426)
(-0.0203132 -0.0152693 -4.32022e-19 0.099065 -5.56789e-22 0.030356)
(0.576534 0.0117033 -3.87556e-20 0.0777708 -7.21317e-22 0.260583)
(0.0195426 -0.0134643 2.54631e-19 0.0879259 -2.01663e-22 0.0418593)
(0.546949 0.00989326 -2.5741e-19 0.0677688 -1.03031e-21 0.244765)
(0.0555732 -0.0115997 2.22714e-19 0.0771995 8.30192e-22 0.0519972)
(0.519339 0.00803974 -1.01885e-19 0.058251 -2.04389e-23 0.22993)
(0.0878581 -0.00968182 -1.96305e-19 0.0669223 -3.71282e-22 0.0608162)
(0.493568 0.00614909 -2.27184e-19 0.0492428 1.1427e-21 0.216034)
(0.116487 -0.00771703 -6.61046e-20 0.0571266 -2.43121e-22 0.0683651)