/*--------------------------------*- C++ -*----------------------------------*\
| =========                 |                                                 |
| \\      /  F ield         | OpenFOAM Extend Project: Open source CFD        |
|  \\    /   O peration     | Version:  1.6-ext                               |
|   \\  /    A nd           | Web:      www.extend-project.de                 |
|    \\/     M anipulation  |                                                 |
\*---------------------------------------------------------------------------*/
FoamFile
{
    version     2.0;
    format      ascii;
    class       volVectorField;
    location    "0.75";
    object      Usolid;
}
// * * * * * * * * * * * * * * * * * * * * * * * * * * * * * * * * * * * * * //

dimensions      [0 1 0 0 0 0 0];

internalField   nonuniform List<vector> 
328
(
(1.0721e-07 9.65755e-08 0)
(2.28922e-08 -4.25549e-08 0)
(-2.62422e-08 -2.72133e-08 0)
(-1.23582e-07 1.70117e-07 0)
(3.3224e-07 2.60678e-07 0)
(7.7534e-08 -6.05223e-08 0)
(-9.35635e-08 -1.5754e-08 0)
(-3.81236e-07 4.4927e-07 0)
(5.91824e-07 4.26865e-07 0)
(1.50305e-07 -6.34219e-09 0)
(-1.95191e-07 6.62227e-08 0)
(-6.82271e-07 7.0107e-07 0)
(8.74618e-07 6.19299e-07 0)
(2.31119e-07 1.23972e-07 0)
(-3.14533e-07 2.20509e-07 0)
(-1.0109e-06 9.54552e-07 0)
(1.18192e-06 8.61393e-07 0)
(3.19959e-07 3.35061e-07 0)
(-4.52628e-07 4.50946e-07 0)
(-1.36953e-06 1.2391e-06 0)
(1.51126e-06 1.17408e-06 0)
(4.14014e-07 6.36038e-07 0)
(-6.04368e-07 7.66393e-07 0)
(-1.755e-06 1.58019e-06 0)
(1.86267e-06 1.57748e-06 0)
(5.13068e-07 1.0386e-06 0)
(-7.68995e-07 1.17894e-06 0)
(-2.16775e-06 2.00167e-06 0)
(2.236e-06 2.09165e-06 0)
(6.1669e-07 1.55784e-06 0)
(-9.44992e-07 1.70435e-06 0)
(-2.60773e-06 2.52639e-06 0)
(2.63169e-06 2.73778e-06 0)
(7.25139e-07 2.21193e-06 0)
(-1.13208e-06 2.3616e-06 0)
(-3.07574e-06 3.17773e-06 0)
(3.05033e-06 3.53902e-06 0)
(8.38702e-07 3.02247e-06 0)
(-1.33007e-06 3.17308e-06 0)
(-3.57262e-06 3.98044e-06 0)
(3.49265e-06 4.52128e-06 0)
(9.57788e-07 4.0146e-06 0)
(-1.53916e-06 4.16467e-06 0)
(-4.09941e-06 4.96167e-06 0)
(3.95941e-06 5.71395e-06 0)
(1.08276e-06 5.21739e-06 0)
(-1.75967e-06 5.36601e-06 0)
(-4.65714e-06 6.15163e-06 0)
(4.4514e-06 7.15046e-06 0)
(1.21395e-06 6.66422e-06 0)
(-1.99204e-06 6.8109e-06 0)
(-5.24679e-06 7.58435e-06 0)
(4.96931e-06 8.86892e-06 0)
(1.3516e-06 8.39323e-06 0)
(-2.23676e-06 8.53774e-06 0)
(-5.86928e-06 9.29827e-06 0)
(5.51377e-06 1.09127e-05 0)
(1.49587e-06 1.04478e-05 0)
(-2.49431e-06 1.05901e-05 0)
(-6.52542e-06 1.13369e-05 0)
(6.08525e-06 1.33308e-05 0)
(1.64686e-06 1.28772e-05 0)
(-2.76511e-06 1.30172e-05 0)
(-7.21585e-06 1.37494e-05 0)
(6.68407e-06 1.61791e-05 0)
(1.8046e-06 1.57372e-05 0)
(-3.04954e-06 1.58748e-05 0)
(-7.94104e-06 1.65915e-05 0)
(7.31033e-06 1.95202e-05 0)
(1.96904e-06 1.90904e-05 0)
(-3.34786e-06 1.92255e-05 0)
(-8.70124e-06 1.99257e-05 0)
(7.9639e-06 2.34246e-05 0)
(2.14008e-06 2.30075e-05 0)
(-3.66021e-06 2.314e-05 0)
(-9.49641e-06 2.38224e-05 0)
(8.64436e-06 2.79714e-05 0)
(2.31753e-06 2.75676e-05 0)
(-3.98656e-06 2.76971e-05 0)
(-1.03262e-05 2.83606e-05 0)
(9.35096e-06 3.32491e-05 0)
(2.50114e-06 3.2859e-05 0)
(-4.32671e-06 3.29853e-05 0)
(-1.11898e-05 3.36285e-05 0)
(1.00827e-05 3.93559e-05 0)
(2.69061e-06 3.89801e-05 0)
(-4.68028e-06 3.91028e-05 0)
(-1.20861e-05 3.97245e-05 0)
(1.08666e-05 4.66695e-05 0)
(2.89288e-06 4.63091e-05 0)
(-5.06061e-06 4.64276e-05 0)
(-1.30487e-05 4.70255e-05 0)
(1.16693e-05 5.51071e-05 0)
(3.09917e-06 5.47626e-05 0)
(-5.45145e-06 5.48764e-05 0)
(-1.40364e-05 5.54488e-05 0)
(1.24361e-05 6.41274e-05 0)
(3.29565e-06 6.37982e-05 0)
(-5.82605e-06 6.3907e-05 0)
(-1.49819e-05 6.44543e-05 0)
(1.3168e-05 7.37045e-05 0)
(3.48268e-06 7.33899e-05 0)
(-6.18453e-06 7.34936e-05 0)
(-1.58856e-05 7.40159e-05 0)
(1.38657e-05 8.38126e-05 0)
(3.66067e-06 8.35122e-05 0)
(-6.52695e-06 8.36106e-05 0)
(-1.67481e-05 8.41081e-05 0)
(1.45302e-05 9.44269e-05 0)
(3.82998e-06 9.41401e-05 0)
(-6.85339e-06 9.42331e-05 0)
(-1.757e-05 9.4706e-05 0)
(1.51621e-05 0.000105523 0)
(3.99102e-06 0.000105249 0)
(-7.16396e-06 0.000105336 0)
(-1.83517e-05 0.000105785 0)
(1.57626e-05 0.000117076 0)
(4.14419e-06 0.000116815 0)
(-7.45876e-06 0.000116896 0)
(-1.9094e-05 0.000117321 0)
(1.63325e-05 0.000129063 0)
(4.2899e-06 0.000128814 0)
(-7.73789e-06 0.000128889 0)
(-1.97975e-05 0.00012929 0)
(1.68728e-05 0.000141461 0)
(4.42856e-06 0.000141223 0)
(-8.00151e-06 0.000141293 0)
(-2.04629e-05 0.00014167 0)
(1.73845e-05 0.000154247 0)
(4.5606e-06 0.00015402 0)
(-8.24974e-06 0.000154084 0)
(-2.10908e-05 0.000154438 0)
(1.78686e-05 0.0001674 0)
(4.68643e-06 0.000167183 0)
(-8.48274e-06 0.000167241 0)
(-2.1682e-05 0.000167572 0)
(1.83261e-05 0.000180898 0)
(4.80649e-06 0.000180691 0)
(-8.7007e-06 0.000180742 0)
(-2.22373e-05 0.000181051 0)
(1.8758e-05 0.00019472 0)
(4.9212e-06 0.000194523 0)
(-8.90378e-06 0.000194568 0)
(-2.27575e-05 0.000194855 0)
(1.91654e-05 0.000208847 0)
(5.03097e-06 0.000208659 0)
(-9.09222e-06 0.000208697 0)
(-2.32434e-05 0.000208963 0)
(1.95493e-05 0.00022326 0)
(5.13621e-06 0.000223079 0)
(-9.26622e-06 0.000223111 0)
(-2.36959e-05 0.000223355 0)
(1.99108e-05 0.000237938 0)
(5.23734e-06 0.000237765 0)
(-9.42604e-06 0.000237791 0)
(-2.41158e-05 0.000238014 0)
(2.0251e-05 0.000252865 0)
(5.33475e-06 0.000252699 0)
(-9.57193e-06 0.000252718 0)
(-2.45041e-05 0.000252922 0)
(2.05709e-05 0.000268023 0)
(5.4288e-06 0.000267863 0)
(-9.70421e-06 0.000267876 0)
(-2.48618e-05 0.00026806 0)
(2.08715e-05 0.000283394 0)
(5.51988e-06 0.000283241 0)
(-9.82317e-06 0.000283247 0)
(-2.51898e-05 0.000283412 0)
(2.1154e-05 0.000298964 0)
(5.60833e-06 0.000298816 0)
(-9.92916e-06 0.000298816 0)
(-2.54893e-05 0.000298963 0)
(2.14192e-05 0.000314717 0)
(5.69447e-06 0.000314574 0)
(-1.00226e-05 0.000314567 0)
(-2.57612e-05 0.000314696 0)
(2.16682e-05 0.000330637 0)
(5.7786e-06 0.000330499 0)
(-1.01037e-05 0.000330486 0)
(-2.60066e-05 0.000330598 0)
(2.19021e-05 0.000346712 0)
(5.86101e-06 0.000346578 0)
(-1.01731e-05 0.000346559 0)
(-2.62267e-05 0.000346654 0)
(2.21216e-05 0.000362928 0)
(5.94194e-06 0.000362797 0)
(-1.02311e-05 0.000362772 0)
(-2.64225e-05 0.000362851 0)
(2.23278e-05 0.000379272 0)
(6.02163e-06 0.000379144 0)
(-1.02783e-05 0.000379113 0)
(-2.65954e-05 0.000379178 0)
(2.25216e-05 0.000395732 0)
(6.10026e-06 0.000395608 0)
(-1.0315e-05 0.000395571 0)
(-2.67463e-05 0.000395621 0)
(2.27037e-05 0.000412298 0)
(6.178e-06 0.000412177 0)
(-1.03419e-05 0.000412135 0)
(-2.68766e-05 0.000412171 0)
(2.2875e-05 0.00042896 0)
(6.25499e-06 0.000428841 0)
(-1.03594e-05 0.000428793 0)
(-2.69875e-05 0.000428817 0)
(2.30362e-05 0.000445706 0)
(6.33134e-06 0.000445589 0)
(-1.03682e-05 0.000445537 0)
(-2.70802e-05 0.000445548 0)
(2.31882e-05 0.000462529 0)
(6.40711e-06 0.000462414 0)
(-1.03687e-05 0.000462357 0)
(-2.71558e-05 0.000462357 0)
(2.33315e-05 0.00047942 0)
(6.48236e-06 0.000479307 0)
(-1.03616e-05 0.000479245 0)
(-2.72157e-05 0.000479234 0)
(2.34668e-05 0.000496371 0)
(6.5571e-06 0.000496259 0)
(-1.03475e-05 0.000496193 0)
(-2.7261e-05 0.000496173 0)
(2.35947e-05 0.000513375 0)
(6.63131e-06 0.000513264 0)
(-1.0327e-05 0.000513195 0)
(-2.7293e-05 0.000513165 0)
(2.37157e-05 0.000530425 0)
(6.70496e-06 0.000530316 0)
(-1.03007e-05 0.000530243 0)
(-2.73129e-05 0.000530205 0)
(2.38303e-05 0.000547516 0)
(6.77798e-06 0.000547408 0)
(-1.02692e-05 0.000547332 0)
(-2.73218e-05 0.000547287 0)
(2.3939e-05 0.000564642 0)
(6.85028e-06 0.000564536 0)
(-1.02332e-05 0.000564457 0)
(-2.7321e-05 0.000564405 0)
(2.40421e-05 0.000581799 0)
(6.92175e-06 0.000581693 0)
(-1.01933e-05 0.000581612 0)
(-2.73114e-05 0.000581554 0)
(2.414e-05 0.000598981 0)
(6.99224e-06 0.000598877 0)
(-1.015e-05 0.000598794 0)
(-2.72944e-05 0.00059873 0)
(2.4233e-05 0.000616185 0)
(7.06161e-06 0.000616082 0)
(-1.01041e-05 0.000615997 0)
(-2.72709e-05 0.00061593 0)
(2.43214e-05 0.000633408 0)
(7.12966e-06 0.000633307 0)
(-1.00562e-05 0.00063322 0)
(-2.72419e-05 0.000633149 0)
(2.44053e-05 0.000650647 0)
(7.19621e-06 0.000650547 0)
(-1.00067e-05 0.00065046 0)
(-2.72086e-05 0.000650385 0)
(2.4485e-05 0.000667899 0)
(7.26104e-06 0.0006678 0)
(-9.95643e-06 0.000667712 0)
(-2.71718e-05 0.000667635 0)
(2.45605e-05 0.000685161 0)
(7.32391e-06 0.000685064 0)
(-9.90581e-06 0.000684976 0)
(-2.71324e-05 0.000684897 0)
(2.46319e-05 0.000702433 0)
(7.38459e-06 0.000702337 0)
(-9.85545e-06 0.00070225 0)
(-2.70914e-05 0.000702169 0)
(2.46992e-05 0.000719712 0)
(7.44279e-06 0.000719618 0)
(-9.80588e-06 0.000719531 0)
(-2.70496e-05 0.00071945 0)
(2.47623e-05 0.000736997 0)
(7.49823e-06 0.000736905 0)
(-9.75763e-06 0.000736819 0)
(-2.70076e-05 0.000736738 0)
(2.48213e-05 0.000754287 0)
(7.55063e-06 0.000754198 0)
(-9.71121e-06 0.000754113 0)
(-2.69663e-05 0.000754032 0)
(2.48758e-05 0.000771582 0)
(7.59966e-06 0.000771494 0)
(-9.66712e-06 0.000771412 0)
(-2.69263e-05 0.000771332 0)
(2.49258e-05 0.000788879 0)
(7.64499e-06 0.000788795 0)
(-9.62582e-06 0.000788714 0)
(-2.68882e-05 0.000788635 0)
(2.49711e-05 0.000806179 0)
(7.68628e-06 0.000806098 0)
(-9.58778e-06 0.00080602 0)
(-2.68526e-05 0.000805943 0)
(2.50113e-05 0.000823482 0)
(7.72316e-06 0.000823404 0)
(-9.55346e-06 0.000823328 0)
(-2.682e-05 0.000823254 0)
(2.50462e-05 0.000840786 0)
(7.75524e-06 0.000840711 0)
(-9.52334e-06 0.000840639 0)
(-2.6791e-05 0.000840567 0)
(2.50754e-05 0.000858091 0)
(7.78211e-06 0.00085802 0)
(-9.49789e-06 0.000857952 0)
(-2.67659e-05 0.000857883 0)
(2.50987e-05 0.000875396 0)
(7.80323e-06 0.00087533 0)
(-9.47771e-06 0.000875266 0)
(-2.67454e-05 0.000875201 0)
(2.51159e-05 0.000892701 0)
(7.81805e-06 0.00089264 0)
(-9.46344e-06 0.000892581 0)
(-2.67297e-05 0.000892521 0)
(2.51267e-05 0.000910005 0)
(7.82535e-06 0.000909949 0)
(-9.45637e-06 0.000909897 0)
(-2.67194e-05 0.000909841 0)
(2.51318e-05 0.000927307 0)
(7.82455e-06 0.000927257 0)
(-9.45717e-06 0.000927213 0)
(-2.6714e-05 0.000927163 0)
(2.51301e-05 0.000944612 0)
(7.81256e-06 0.000944565 0)
(-9.46907e-06 0.000944527 0)
(-2.6715e-05 0.00094448 0)
(2.51284e-05 0.000961936 0)
(7.79786e-06 0.00096188 0)
(-9.48359e-06 0.000961832 0)
(-2.67155e-05 0.000961776 0)
)
;

boundaryField
{
    plateFix
    {
        type            fixedDisplacement;
        value           uniform (0 0 0);
    }
    plate
    {
        type            solidTraction;
        nonLinear       updatedLagrangian;
        traction        uniform (0 0 0);
        pressure        uniform 0;
        value           nonuniform List<vector> 
168
(
(5.45614e-07 4.19987e-07 -7.24649e-26)
(-8.86977e-07 6.19254e-07 -9.85257e-26)
(7.16274e-07 5.99845e-07 1.61347e-25)
(-1.0022e-06 9.18372e-07 -5.7563e-26)
(9.7968e-07 7.82669e-07 2.02551e-26)
(-1.23221e-06 1.19285e-06 1.55454e-25)
(1.31207e-06 9.8068e-07 -7.36121e-27)
(-1.55599e-06 1.45453e-06 3.77127e-26)
(1.70226e-06 1.22518e-06 -8.08302e-26)
(-1.96012e-06 1.7437e-06 -9.53737e-26)
(2.13729e-06 1.53669e-06 5.24838e-26)
(-2.42613e-06 2.08494e-06 1.85473e-26)
(2.6106e-06 1.93722e-06 -8.84582e-26)
(-2.94437e-06 2.50459e-06 2.22795e-26)
(3.1179e-06 2.44728e-06 2.08292e-26)
(-3.50803e-06 3.02592e-06 -6.23857e-26)
(3.65753e-06 3.08858e-06 -5.07167e-26)
(-4.1139e-06 3.67292e-06 8.42799e-26)
(4.22912e-06 3.88449e-06 8.42194e-26)
(-4.76048e-06 4.47054e-06 -5.71346e-26)
(4.83318e-06 4.86106e-06 -6.19133e-26)
(-5.44763e-06 5.44605e-06 1.46442e-26)
(5.47062e-06 6.04774e-06 7.81583e-26)
(-6.17579e-06 6.62971e-06 8.13826e-27)
(6.14251e-06 7.47796e-06 -5.13579e-26)
(-6.94579e-06 8.05553e-06 2.15652e-26)
(6.84989e-06 9.18984e-06 -3.78125e-27)
(-7.75854e-06 9.76195e-06 -4.12152e-26)
(7.59369e-06 1.12267e-05 1.00576e-26)
(-8.61494e-06 1.17925e-05 1.29668e-26)
(8.37461e-06 1.36376e-05 5.93124e-27)
(-9.51576e-06 1.41962e-05 -1.8423e-26)
(9.19312e-06 1.64783e-05 2.99395e-26)
(-1.04616e-05 1.70288e-05 2.39375e-26)
(1.00494e-05 1.98114e-05 -1.8349e-26)
(-1.14526e-05 2.03528e-05 -5.91628e-26)
(1.09433e-05 2.37074e-05 -1.71022e-26)
(-1.24889e-05 2.42387e-05 4.39594e-26)
(1.18742e-05 2.82455e-05 9.5856e-27)
(-1.35698e-05 2.87652e-05 7.50453e-27)
(1.28412e-05 3.3514e-05 -5.2551e-27)
(-1.46945e-05 3.40208e-05 1.62468e-26)
(1.38427e-05 3.96112e-05 1.76403e-26)
(-1.58611e-05 4.01034e-05 3.70217e-27)
(1.49156e-05 4.69145e-05 -2.50853e-26)
(-1.71132e-05 4.73899e-05 -9.99321e-27)
(1.60152e-05 5.53415e-05 2.03777e-26)
(-1.83986e-05 5.57978e-05 3.33706e-26)
(1.70661e-05 6.43514e-05 -3.41736e-26)
(-1.96286e-05 6.47879e-05 -5.00251e-26)
(1.80691e-05 7.39184e-05 4.37302e-26)
(-2.0804e-05 7.43343e-05 2.09086e-26)
(1.90254e-05 8.40168e-05 2.71679e-26)
(-2.19255e-05 8.44115e-05 -3.52073e-26)
(1.99361e-05 9.46217e-05 -5.43293e-26)
(-2.29939e-05 9.49944e-05 6.69878e-26)
(2.08021e-05 0.000105708 1.24371e-26)
(-2.40101e-05 0.000106059 -5.81883e-26)
(2.16249e-05 0.000117253 4.42187e-28)
(-2.4975e-05 0.00011758 -7.72432e-27)
(2.24054e-05 0.000129231 -1.55519e-26)
(-2.58893e-05 0.000129535 1.77857e-26)
(2.31451e-05 0.000141621 -1.86778e-26)
(-2.67542e-05 0.000141901 1.80169e-26)
(2.38451e-05 0.0001544 4.49311e-27)
(-2.75706e-05 0.000154655 -2.87905e-26)
(2.45067e-05 0.000167545 -8.93607e-28)
(-2.83394e-05 0.000167775 -6.04134e-26)
(2.51313e-05 0.000181036 1.73052e-26)
(-2.90619e-05 0.000181241 3.3554e-26)
(2.57203e-05 0.000194852 -2.33267e-26)
(-2.9739e-05 0.000195031 2.63106e-26)
(2.62749e-05 0.000208973 7.26726e-26)
(-3.0372e-05 0.000209126 7.03911e-27)
(2.67965e-05 0.000223379 2.47006e-26)
(-3.0962e-05 0.000223507 8.70722e-26)
(2.72866e-05 0.000238052 -9.93226e-26)
(-3.15103e-05 0.000238154 -1.42859e-25)
(2.77466e-05 0.000252973 1.04016e-25)
(-3.2018e-05 0.000253049 7.48409e-26)
(2.81778e-05 0.000268126 3.27621e-26)
(-3.24866e-05 0.000268175 -1.41696e-25)
(2.85816e-05 0.000283493 -5.9622e-26)
(-3.29174e-05 0.000283517 5.32937e-26)
(2.89594e-05 0.000299058 3.2436e-27)
(-3.33116e-05 0.000299056 -1.12187e-25)
(2.93125e-05 0.000314807 -8.4625e-26)
(-3.36709e-05 0.000314779 8.09177e-27)
(2.96424e-05 0.000330724 -4.6896e-26)
(-3.39965e-05 0.000330671 1.97041e-25)
(2.99504e-05 0.000346795 8.15739e-26)
(-3.42899e-05 0.000346717 1.49831e-25)
(3.02377e-05 0.000363007 3.46825e-27)
(-3.45528e-05 0.000362905 -1.02639e-25)
(3.05057e-05 0.000379348 -6.89142e-26)
(-3.47865e-05 0.000379223 6.15774e-27)
(3.07555e-05 0.000395806 -3.501e-26)
(-3.49926e-05 0.000395658 -5.99668e-26)
(3.09883e-05 0.00041237 -1.08748e-25)
(-3.51726e-05 0.0004122 -1.16844e-25)
(3.12054e-05 0.000429029 -1.35812e-25)
(-3.53282e-05 0.000428838 8.96736e-26)
(3.14078e-05 0.000445773 5.75353e-26)
(-3.54609e-05 0.000445562 -8.74032e-28)
(3.15965e-05 0.000462594 2.10725e-25)
(-3.55721e-05 0.000462364 3.13485e-25)
(3.17726e-05 0.000479483 -8.18463e-26)
(-3.56636e-05 0.000479236 -2.2456e-25)
(3.19371e-05 0.000496433 9.90809e-26)
(-3.57368e-05 0.000496168 -9.3413e-26)
(3.20907e-05 0.000513435 -2.20765e-25)
(-3.57932e-05 0.000513156 -1.0813e-26)
(3.22343e-05 0.000530484 -1.9745e-25)
(-3.58344e-05 0.000530191 1.54368e-25)
(3.23687e-05 0.000547574 1.27307e-25)
(-3.58618e-05 0.000547268 -2.80516e-25)
(3.24947e-05 0.000564699 1.88113e-25)
(-3.58768e-05 0.000564382 3.46755e-25)
(3.26128e-05 0.000581854 -1.5299e-25)
(-3.58809e-05 0.000581528 -1.25798e-25)
(3.27237e-05 0.000599036 1.84011e-25)
(-3.58754e-05 0.000598701 -1.71804e-25)
(3.28278e-05 0.000616239 -3.05496e-26)
(-3.58615e-05 0.000615898 3.56391e-25)
(3.29258e-05 0.000633461 5.26117e-26)
(-3.58407e-05 0.000633115 -8.86489e-26)
(3.30179e-05 0.000650699 -1.28829e-25)
(-3.5814e-05 0.000650349 -2.03544e-25)
(3.31045e-05 0.00066795 -1.12524e-26)
(-3.57827e-05 0.000667597 3.34416e-25)
(3.3186e-05 0.000685211 7.75898e-27)
(-3.57478e-05 0.000684858 7.17146e-27)
(3.32624e-05 0.000702482 3.07918e-25)
(-3.57104e-05 0.00070213 2.1374e-25)
(3.33341e-05 0.00071976 6.3366e-26)
(-3.56713e-05 0.00071941 -5.18782e-26)
(3.34011e-05 0.000737044 3.99507e-25)
(-3.56316e-05 0.000736698 1.38844e-25)
(3.34633e-05 0.000754333 -3.2784e-25)
(-3.5592e-05 0.000753992 1.91795e-25)
(3.35207e-05 0.000771626 1.08572e-26)
(-3.55532e-05 0.000771292 -2.72824e-25)
(3.35733e-05 0.000788922 1.59952e-25)
(-3.55161e-05 0.000788596 -2.70782e-25)
(3.36208e-05 0.00080622 7.07331e-26)
(-3.5481e-05 0.000805905 1.91981e-25)
(3.3663e-05 0.000823521 -4.11928e-25)
(-3.54488e-05 0.000823216 -5.77727e-25)
(3.36996e-05 0.000840823 -2.60489e-25)
(-3.54198e-05 0.000840531 2.53407e-25)
(3.37304e-05 0.000858126 2.58718e-25)
(-3.53945e-05 0.000857849 2.92569e-25)
(3.37549e-05 0.000875429 -1.39202e-25)
(-3.53735e-05 0.000875168 -3.48401e-25)
(3.3773e-05 0.000892732 -2.1566e-25)
(-3.53571e-05 0.00089249 -2.17913e-26)
(3.37845e-05 0.000910034 5.70075e-25)
(-3.53457e-05 0.000909812 -2.01523e-25)
(3.37916e-05 0.000927334 -2.52656e-26)
(-3.53375e-05 0.000927136 -3.48804e-25)
(3.37977e-05 0.000944637 5.09602e-26)
(-3.53294e-05 0.000944454 4.78587e-25)
(3.38203e-05 0.00096196 5.34911e-25)
(2.51245e-05 0.000970631 9.51248e-26)
(7.79099e-06 0.000970545 -1.73543e-25)
(-9.49031e-06 0.000970476 1.74915e-25)
(-2.67189e-05 0.000970389 -3.01064e-25)
(-3.5304e-05 0.000961752 -1.86349e-25)
)
;
    }
    frontAndBackPlanes
    {
        type            empty;
    }
}


// ************************************************************************* //
