/*--------------------------------*- C++ -*----------------------------------*\
| =========                 |                                                 |
| \\      /  F ield         | OpenFOAM Extend Project: Open source CFD        |
|  \\    /   O peration     | Version:  1.6-ext                               |
|   \\  /    A nd           | Web:      www.extend-project.de                 |
|    \\/     M anipulation  |                                                 |
\*---------------------------------------------------------------------------*/
FoamFile
{
    version     2.0;
    format      ascii;
    class       volScalarField::DimensionedInternalField;
    location    "0.75";
    object      V0;
}
// * * * * * * * * * * * * * * * * * * * * * * * * * * * * * * * * * * * * * //

dimensions      [0 3 0 0 0 0 0];

value           nonuniform List<scalar> 
328
(
2.5336e-07
2.53353e-07
2.53324e-07
2.53324e-07
2.71727e-07
2.71719e-07
2.71697e-07
2.717e-07
2.91434e-07
2.91417e-07
2.91399e-07
2.91392e-07
3.12567e-07
3.12545e-07
3.12529e-07
3.12513e-07
3.35232e-07
3.35205e-07
3.3519e-07
3.35168e-07
3.59539e-07
3.59509e-07
3.59494e-07
3.59467e-07
3.85607e-07
3.85574e-07
3.8556e-07
3.85529e-07
4.13565e-07
4.1353e-07
4.13515e-07
4.13481e-07
4.4355e-07
4.43513e-07
4.43497e-07
4.4346e-07
4.75709e-07
4.75669e-07
4.75653e-07
4.75613e-07
5.10199e-07
5.10158e-07
5.1014e-07
5.10098e-07
5.4719e-07
5.47146e-07
5.47127e-07
5.47083e-07
5.86863e-07
5.86817e-07
5.86797e-07
5.8675e-07
6.29412e-07
6.29363e-07
6.29342e-07
6.29293e-07
6.75046e-07
6.74995e-07
6.74973e-07
6.74921e-07
7.23989e-07
7.23935e-07
7.23911e-07
7.23857e-07
7.7648e-07
7.76423e-07
7.76399e-07
7.76342e-07
8.32776e-07
8.32717e-07
8.32691e-07
8.32632e-07
8.93154e-07
8.93092e-07
8.93066e-07
8.93004e-07
9.5791e-07
9.57845e-07
9.57817e-07
9.57753e-07
1.02736e-06
1.02729e-06
1.02726e-06
1.0272e-06
1.10185e-06
1.10178e-06
1.10175e-06
1.10168e-06
1.2688e-06
1.26872e-06
1.26869e-06
1.26861e-06
1.26879e-06
1.26872e-06
1.26869e-06
1.26862e-06
1.26879e-06
1.26872e-06
1.26869e-06
1.26862e-06
1.26879e-06
1.26872e-06
1.26869e-06
1.26862e-06
1.26878e-06
1.26872e-06
1.26869e-06
1.26863e-06
1.26878e-06
1.26872e-06
1.26869e-06
1.26863e-06
1.26878e-06
1.26872e-06
1.26869e-06
1.26864e-06
1.26877e-06
1.26872e-06
1.26869e-06
1.26864e-06
1.26877e-06
1.26872e-06
1.26869e-06
1.26864e-06
1.26877e-06
1.26872e-06
1.2687e-06
1.26865e-06
1.26876e-06
1.26872e-06
1.2687e-06
1.26865e-06
1.26876e-06
1.26871e-06
1.2687e-06
1.26865e-06
1.26876e-06
1.26871e-06
1.2687e-06
1.26866e-06
1.26875e-06
1.26871e-06
1.2687e-06
1.26866e-06
1.26875e-06
1.26871e-06
1.2687e-06
1.26866e-06
1.26875e-06
1.26871e-06
1.2687e-06
1.26867e-06
1.26874e-06
1.26871e-06
1.2687e-06
1.26867e-06
1.26874e-06
1.26871e-06
1.2687e-06
1.26867e-06
1.26874e-06
1.26871e-06
1.2687e-06
1.26867e-06
1.26874e-06
1.26871e-06
1.2687e-06
1.26868e-06
1.26873e-06
1.26871e-06
1.2687e-06
1.26868e-06
1.26873e-06
1.26871e-06
1.2687e-06
1.26868e-06
1.26873e-06
1.26871e-06
1.2687e-06
1.26868e-06
1.26873e-06
1.26871e-06
1.2687e-06
1.26868e-06
1.26873e-06
1.26871e-06
1.2687e-06
1.26869e-06
1.26872e-06
1.26871e-06
1.2687e-06
1.26869e-06
1.26872e-06
1.26871e-06
1.2687e-06
1.26869e-06
1.26872e-06
1.26871e-06
1.2687e-06
1.26869e-06
1.26872e-06
1.26871e-06
1.2687e-06
1.26869e-06
1.26872e-06
1.26871e-06
1.2687e-06
1.26869e-06
1.26871e-06
1.26871e-06
1.2687e-06
1.26869e-06
1.26871e-06
1.26871e-06
1.2687e-06
1.26869e-06
1.26871e-06
1.26871e-06
1.2687e-06
1.2687e-06
1.26871e-06
1.2687e-06
1.2687e-06
1.2687e-06
1.26871e-06
1.2687e-06
1.2687e-06
1.2687e-06
1.26871e-06
1.2687e-06
1.2687e-06
1.2687e-06
1.26871e-06
1.2687e-06
1.2687e-06
1.2687e-06
1.26871e-06
1.2687e-06
1.2687e-06
1.2687e-06
1.26871e-06
1.2687e-06
1.2687e-06
1.2687e-06
1.26871e-06
1.2687e-06
1.2687e-06
1.2687e-06
1.2687e-06
1.2687e-06
1.2687e-06
1.2687e-06
1.2687e-06
1.2687e-06
1.2687e-06
1.2687e-06
1.2687e-06
1.2687e-06
1.2687e-06
1.2687e-06
1.2687e-06
1.2687e-06
1.2687e-06
1.2687e-06
1.2687e-06
1.2687e-06
1.2687e-06
1.2687e-06
1.2687e-06
1.2687e-06
1.2687e-06
1.2687e-06
1.2687e-06
1.2687e-06
1.2687e-06
1.2687e-06
1.2687e-06
1.2687e-06
1.2687e-06
1.2687e-06
1.2687e-06
1.2687e-06
1.2687e-06
1.2687e-06
1.2687e-06
1.2687e-06
1.2687e-06
1.2687e-06
1.2687e-06
1.2687e-06
1.2687e-06
1.2687e-06
1.2687e-06
1.2687e-06
1.2687e-06
1.2687e-06
1.2687e-06
1.2687e-06
1.2687e-06
1.2687e-06
1.2687e-06
1.2687e-06
1.2687e-06
1.2687e-06
1.2687e-06
1.2687e-06
1.2687e-06
1.2687e-06
1.2687e-06
1.2687e-06
1.2687e-06
1.2687e-06
1.2687e-06
1.2687e-06
1.2687e-06
1.2687e-06
1.2687e-06
1.26869e-06
1.2687e-06
1.2687e-06
1.2687e-06
1.26869e-06
1.26869e-06
1.2687e-06
1.26869e-06
1.26869e-06
1.26869e-06
1.26869e-06
)
;


// ************************************************************************* //
