/*--------------------------------*- C++ -*----------------------------------*\
| =========                 |                                                 |
| \\      /  F ield         | OpenFOAM Extend Project: Open source CFD        |
|  \\    /   O peration     | Version:  1.6-ext                               |
|   \\  /    A nd           | Web:      www.extend-project.de                 |
|    \\/     M anipulation  |                                                 |
\*---------------------------------------------------------------------------*/
FoamFile
{
    version     2.0;
    format      ascii;
    class       volVectorField;
    location    "0.75";
    object      Vs;
}
// * * * * * * * * * * * * * * * * * * * * * * * * * * * * * * * * * * * * * //

dimensions      [0 1 -1 0 0 0 0];

internalField   nonuniform List<vector> 
328
(
(-1.8909e-06 -1.06883e-05 0)
(-3.92068e-07 -2.53591e-06 0)
(-6.13222e-07 2.18893e-06 0)
(-2.92501e-06 1.18628e-05 0)
(-5.64784e-06 -2.73355e-05 0)
(-2.05654e-06 -7.10584e-06 0)
(-2.82719e-06 6.65734e-06 0)
(-8.84765e-06 3.04448e-05 0)
(-1.05952e-05 -3.9489e-05 0)
(-6.09111e-06 -1.10966e-05 0)
(-7.64834e-06 1.11786e-05 0)
(-1.63133e-05 4.44046e-05 0)
(-1.61166e-05 -4.77665e-05 0)
(-1.15487e-05 -1.41584e-05 0)
(-1.40091e-05 1.54288e-05 0)
(-2.45845e-05 5.46014e-05 0)
(-2.23573e-05 -5.29963e-05 0)
(-1.85765e-05 -1.61529e-05 0)
(-2.20615e-05 1.9308e-05 0)
(-3.38242e-05 6.21044e-05 0)
(-2.92168e-05 -5.58018e-05 0)
(-2.6835e-05 -1.70076e-05 0)
(-3.14308e-05 2.28251e-05 0)
(-4.39084e-05 6.77482e-05 0)
(-3.67455e-05 -5.66802e-05 0)
(-3.62419e-05 -1.67372e-05 0)
(-4.20309e-05 2.6103e-05 0)
(-5.48912e-05 7.22295e-05 0)
(-4.49641e-05 -5.59788e-05 0)
(-4.66382e-05 -1.53787e-05 0)
(-5.3695e-05 2.93189e-05 0)
(-6.67943e-05 7.60895e-05 0)
(-5.39234e-05 -5.39398e-05 0)
(-5.79472e-05 -1.29788e-05 0)
(-6.63469e-05 3.26889e-05 0)
(-7.96766e-05 7.97729e-05 0)
(-6.36697e-05 -5.07087e-05 0)
(-7.01045e-05 -9.56421e-06 0)
(-7.99235e-05 3.64408e-05 0)
(-9.35932e-05 8.36434e-05 0)
(-7.42528e-05 -4.63527e-05 0)
(-8.30897e-05 -5.13047e-06 0)
(-9.44083e-05 4.08049e-05 0)
(-0.000108605 8.8012e-05 0)
(-8.57202e-05 -4.08682e-05 0)
(-9.69091e-05 3.68641e-07 0)
(-0.000109812 4.60067e-05 0)
(-0.000124771 9.31504e-05 0)
(-9.81197e-05 -3.41893e-05 0)
(-0.000111598 7.02454e-06 0)
(-0.000126174 5.22682e-05 0)
(-0.00014215 9.93072e-05 0)
(-0.0001115 -2.61934e-05 0)
(-0.000127214 1.4975e-05 0)
(-0.000143555 5.9811e-05 0)
(-0.000160802 0.000106719 0)
(-0.000125914 -1.67064e-05 0)
(-0.00014383 2.44029e-05 0)
(-0.000162035 6.88641e-05 0)
(-0.00018079 0.000115622 0)
(-0.000141417 -5.50756e-06 0)
(-0.000161531 3.55338e-05 0)
(-0.000181701 7.96708e-05 0)
(-0.000202179 0.000126265 0)
(-0.000158075 7.66753e-06 0)
(-0.00018041 4.86343e-05 0)
(-0.00020265 9.24972e-05 0)
(-0.00022504 0.000138912 0)
(-0.000175959 2.31245e-05 0)
(-0.000200564 6.40105e-05 0)
(-0.000224978 0.000107639 0)
(-0.000249448 0.00015386 0)
(-0.000195148 4.12092e-05 0)
(-0.000222092 8.2008e-05 0)
(-0.000248786 0.000125428 0)
(-0.000275481 0.000171437 0)
(-0.000215731 6.23086e-05 0)
(-0.000245095 0.000103012 0)
(-0.000274175 0.000146236 0)
(-0.000303222 0.000192015 0)
(-0.000237803 8.68517e-05 0)
(-0.000269675 0.000127452 0)
(-0.000301242 0.000170479 0)
(-0.000332758 0.000216005 0)
(-0.000261466 0.000115313 0)
(-0.000295938 0.000155798 0)
(-0.000330088 0.000198622 0)
(-0.000364176 0.00024387 0)
(-0.000287799 0.00014947 0)
(-0.000325056 0.000189822 0)
(-0.000361984 0.000232417 0)
(-0.000398837 0.00027735 0)
(-0.000315956 0.000188955 0)
(-0.00035607 0.000229157 0)
(-0.000395844 0.000271502 0)
(-0.000435535 0.000316089 0)
(-0.000344073 0.000231235 0)
(-0.000386917 0.000271278 0)
(-0.000429412 0.000313367 0)
(-0.000471817 0.000357599 0)
(-0.000372139 0.000276181 0)
(-0.000417587 0.000316057 0)
(-0.00046268 0.000357882 0)
(-0.000507673 0.000401753 0)
(-0.000400141 0.000323666 0)
(-0.000448069 0.000363368 0)
(-0.000495635 0.000404921 0)
(-0.000543092 0.000448423 0)
(-0.000428067 0.000373566 0)
(-0.000478352 0.000413084 0)
(-0.000528268 0.000454358 0)
(-0.000578066 0.000497484 0)
(-0.000455901 0.000425756 0)
(-0.000508422 0.000465081 0)
(-0.000560567 0.000506068 0)
(-0.000612584 0.000548813 0)
(-0.00048363 0.000480114 0)
(-0.000538266 0.000519237 0)
(-0.000592521 0.00055993 0)
(-0.000646638 0.000602288 0)
(-0.000511237 0.000536521 0)
(-0.000567871 0.000575432 0)
(-0.000624119 0.000615823 0)
(-0.000680217 0.000657787 0)
(-0.000538707 0.000594857 0)
(-0.000597224 0.000633548 0)
(-0.000655348 0.000673629 0)
(-0.000713313 0.000715194 0)
(-0.000566023 0.00065501 0)
(-0.00062631 0.00069347 0)
(-0.000686199 0.000733233 0)
(-0.000745917 0.000774393 0)
(-0.000593166 0.000716866 0)
(-0.000655114 0.000755085 0)
(-0.000716658 0.000794523 0)
(-0.00077802 0.000835272 0)
(-0.000620121 0.000780318 0)
(-0.000683622 0.000818286 0)
(-0.000746715 0.000857391 0)
(-0.000809614 0.000897724 0)
(-0.000646867 0.000845259 0)
(-0.000711819 0.000882966 0)
(-0.000776356 0.00092173 0)
(-0.000840689 0.000961642 0)
(-0.000673389 0.000911588 0)
(-0.000739689 0.000949024 0)
(-0.000805571 0.000987439 0)
(-0.000871237 0.00102692 0)
(-0.000699667 0.000979205 0)
(-0.000767218 0.00101636 0)
(-0.000834347 0.00105442 0)
(-0.000901248 0.00109347 0)
(-0.000725682 0.00104801 0)
(-0.000794391 0.00108488 0)
(-0.000862673 0.00112257 0)
(-0.000930714 0.00116119 0)
(-0.000751416 0.00111792 0)
(-0.000821192 0.00115448 0)
(-0.000890535 0.0011918 0)
(-0.000959627 0.00122998 0)
(-0.00077685 0.00118884 0)
(-0.000847605 0.00122509 0)
(-0.000917923 0.00126203 0)
(-0.000987977 0.00129975 0)
(-0.000801965 0.00126068 0)
(-0.000873614 0.0012966 0)
(-0.000944823 0.00133316 0)
(-0.00101576 0.00137043 0)
(-0.00082674 0.00133336 0)
(-0.000899205 0.00136895 0)
(-0.000971225 0.0014051 0)
(-0.00104296 0.00144192 0)
(-0.000851156 0.0014068 0)
(-0.00092436 0.00144204 0)
(-0.000997116 0.00147779 0)
(-0.00106957 0.00151415 0)
(-0.000875192 0.00148093 0)
(-0.000949064 0.00151581 0)
(-0.00102249 0.00155115 0)
(-0.00109559 0.00158704 0)
(-0.000898826 0.00155567 0)
(-0.000973301 0.00159018 0)
(-0.00104732 0.0016251 0)
(-0.00112101 0.00166052 0)
(-0.000922038 0.00163096 0)
(-0.000997053 0.00166509 0)
(-0.00107161 0.00169958 0)
(-0.00114582 0.00173452 0)
(-0.000944805 0.00170674 0)
(-0.0010203 0.00174048 0)
(-0.00109534 0.00177453 0)
(-0.00117002 0.00180899 0)
(-0.000967105 0.00178296 0)
(-0.00104304 0.00181629 0)
(-0.00111851 0.0018499 0)
(-0.00119361 0.00188388 0)
(-0.000988916 0.00185957 0)
(-0.00106524 0.00189247 0)
(-0.00114109 0.00192563 0)
(-0.00121656 0.00195912 0)
(-0.00101021 0.00193653 0)
(-0.00108689 0.001969 0)
(-0.00116309 0.00200169 0)
(-0.00123889 0.00203469 0)
(-0.00103098 0.0020138 0)
(-0.00110797 0.00204582 0)
(-0.00118448 0.00207804 0)
(-0.00126058 0.00211055 0)
(-0.00105119 0.00209135 0)
(-0.00112846 0.00212291 0)
(-0.00120526 0.00215466 0)
(-0.00128163 0.00218667 0)
(-0.00107082 0.00216916 0)
(-0.00114836 0.00220026 0)
(-0.00122541 0.00223152 0)
(-0.00130202 0.00226302 0)
(-0.00108986 0.00224721 0)
(-0.00116764 0.00227783 0)
(-0.00124492 0.0023086 0)
(-0.00132176 0.00233958 0)
(-0.00110829 0.00232549 0)
(-0.00118629 0.00235562 0)
(-0.00126379 0.00238588 0)
(-0.00134082 0.00241635 0)
(-0.00112608 0.00240398 0)
(-0.00120429 0.00243361 0)
(-0.00128198 0.00246336 0)
(-0.0013592 0.0024933 0)
(-0.00114322 0.00248267 0)
(-0.00122162 0.00251179 0)
(-0.0012995 0.00254102 0)
(-0.00137689 0.00257042 0)
(-0.00115969 0.00256155 0)
(-0.00123827 0.00259015 0)
(-0.00131632 0.00261884 0)
(-0.00139387 0.00264771 0)
(-0.00117548 0.00264061 0)
(-0.00125423 0.00266868 0)
(-0.00133243 0.00269683 0)
(-0.00141012 0.00272514 0)
(-0.00119057 0.00271983 0)
(-0.00126947 0.00274736 0)
(-0.00134781 0.00277496 0)
(-0.00142563 0.00280271 0)
(-0.00120495 0.00279921 0)
(-0.00128398 0.00282618 0)
(-0.00136245 0.00285322 0)
(-0.00144038 0.00288039 0)
(-0.00121858 0.00287873 0)
(-0.00129774 0.00290514 0)
(-0.00137632 0.0029316 0)
(-0.00145436 0.00295819 0)
(-0.00123146 0.00295837 0)
(-0.00131073 0.0029842 0)
(-0.00138941 0.00301008 0)
(-0.00146753 0.00303607 0)
(-0.00124355 0.00303812 0)
(-0.00132293 0.00306337 0)
(-0.0014017 0.00308865 0)
(-0.00147989 0.00311403 0)
(-0.00125484 0.00311798 0)
(-0.00133431 0.00314262 0)
(-0.00141315 0.00316729 0)
(-0.0014914 0.00319205 0)
(-0.00126531 0.00319793 0)
(-0.00134485 0.00322195 0)
(-0.00142376 0.00324598 0)
(-0.00150205 0.0032701 0)
(-0.00127491 0.00327796 0)
(-0.00135452 0.00330133 0)
(-0.00143349 0.00332473 0)
(-0.00151182 0.00334819 0)
(-0.00128363 0.00335806 0)
(-0.0013633 0.00338078 0)
(-0.0014423 0.0034035 0)
(-0.00152066 0.00342629 0)
(-0.00129142 0.00343823 0)
(-0.00137114 0.00346026 0)
(-0.00145019 0.0034823 0)
(-0.00152855 0.0035044 0)
(-0.00129824 0.00351846 0)
(-0.00137802 0.00353979 0)
(-0.00145709 0.00356112 0)
(-0.00153546 0.0035825 0)
(-0.00130407 0.00359876 0)
(-0.00138389 0.00361935 0)
(-0.00146299 0.00363995 0)
(-0.00154135 0.00366058 0)
(-0.00130884 0.00367912 0)
(-0.00138871 0.00369894 0)
(-0.00146782 0.00371877 0)
(-0.00154618 0.00373864 0)
(-0.00131251 0.00375954 0)
(-0.00139243 0.00377857 0)
(-0.00147155 0.0037976 0)
(-0.00154989 0.00381666 0)
(-0.00131502 0.00384004 0)
(-0.00139498 0.00385822 0)
(-0.00147412 0.00387642 0)
(-0.00155243 0.00389463 0)
(-0.00131631 0.00392061 0)
(-0.00139632 0.00393791 0)
(-0.00147547 0.00395523 0)
(-0.00155375 0.00397256 0)
(-0.00131631 0.00400126 0)
(-0.00139637 0.00401764 0)
(-0.00147553 0.00403402 0)
(-0.00155378 0.00405042 0)
(-0.00131493 0.00408201 0)
(-0.00139504 0.0040974 0)
(-0.00147421 0.00411279 0)
(-0.00155242 0.0041282 0)
(-0.00131212 0.00416287 0)
(-0.00139226 0.00417721 0)
(-0.00147143 0.00419153 0)
(-0.00154962 0.00420589 0)
(-0.00130773 0.00424385 0)
(-0.00138789 0.00425707 0)
(-0.00146706 0.00427025 0)
(-0.00154525 0.00428349 0)
(-0.00130176 0.00432492 0)
(-0.00138188 0.00433696 0)
(-0.00146106 0.00434894 0)
(-0.00153929 0.00436099 0)
(-0.00129388 0.00440577 0)
(-0.00137393 0.00441678 0)
(-0.00145311 0.00442771 0)
(-0.00153143 0.00443874 0)
)
;

boundaryField
{
    plateFix
    {
        type            calculated;
        value           uniform (0 0 0);
    }
    plate
    {
        type            calculated;
        value           nonuniform List<vector> 
168
(
(-4.86766e-05 -2.79209e-05 -3.60219e-23)
(-5.50076e-05 3.25593e-05 5.54399e-23)
(-3.93904e-05 -4.51245e-05 2.65788e-23)
(-4.69778e-05 5.18677e-05 -8.21134e-23)
(-3.2946e-05 -5.81131e-05 2.78907e-23)
(-4.27253e-05 6.68481e-05 6.19739e-23)
(-2.99184e-05 -6.6744e-05 -6.50352e-24)
(-4.26345e-05 7.74681e-05 -2.30938e-23)
(-3.00405e-05 -7.22769e-05 -2.07443e-23)
(-4.63292e-05 8.53136e-05 -2.04159e-24)
(-3.25357e-05 -7.5274e-05 -1.32385e-23)
(-5.2889e-05 9.11528e-05 -5.25472e-24)
(-3.69521e-05 -7.63179e-05 -5.16664e-24)
(-6.17887e-05 9.57873e-05 1.12244e-23)
(-4.29178e-05 -7.57546e-05 1.66234e-23)
(-7.26074e-05 9.97616e-05 -1.09105e-23)
(-5.02068e-05 -7.38396e-05 2.02063e-23)
(-8.51002e-05 0.000103538 -1.27507e-23)
(-5.86609e-05 -7.07154e-05 -2.09039e-23)
(-9.91043e-05 0.00010748 2.53822e-23)
(-6.81843e-05 -6.64485e-05 -4.95548e-24)
(-0.00011453 0.000111898 -3.52547e-24)
(-7.87188e-05 -6.10331e-05 7.81649e-24)
(-0.000131331 0.000117063 -2.15691e-23)
(-9.02384e-05 -5.44032e-05 6.49809e-24)
(-0.000149494 0.000123223 1.2035e-23)
(-0.000102741 -4.64372e-05 -1.12303e-23)
(-0.000169034 0.000130615 -8.75684e-25)
(-0.000116247 -3.69632e-05 1.19251e-23)
(-0.000189983 0.000139477 9.21264e-24)
(-0.000130793 -2.5763e-05 -1.43397e-23)
(-0.000212391 0.000150059 -9.24661e-24)
(-0.000146435 -1.25752e-05 1.84644e-23)
(-0.00023632 0.000162629 -1.16592e-23)
(-0.000163241 2.90359e-06 -1.1436e-23)
(-0.000261842 0.000177483 9.54453e-24)
(-0.000181292 2.10173e-05 2.09648e-24)
(-0.000289035 0.000194953 5.52438e-24)
(-0.000200678 4.21514e-05 1.46556e-25)
(-0.000317983 0.000215408 3.49831e-24)
(-0.0002215 6.67349e-05 5.40313e-24)
(-0.00034877 0.000239263 -1.56308e-24)
(-0.000243864 9.5242e-05 -4.02946e-24)
(-0.000381481 0.000266979 3.19339e-24)
(-0.000268804 0.000129453 2.22637e-24)
(-0.000417525 0.000300288 -1.76239e-24)
(-0.000295532 0.000169001 -4.35293e-24)
(-0.000455642 0.000338839 2.33538e-24)
(-0.000322283 0.000211347 8.93135e-24)
(-0.000493279 0.000380158 9.51389e-24)
(-0.000349047 0.000256364 -1.25124e-23)
(-0.000530425 0.000424116 2.27606e-24)
(-0.00037581 0.000303925 -4.6373e-24)
(-0.000567072 0.000470588 -5.25798e-24)
(-0.000402559 0.000353904 6.48447e-24)
(-0.000603211 0.000519448 3.58509e-25)
(-0.000429278 0.000406178 -1.38281e-24)
(-0.000638832 0.000570572 -4.49947e-25)
(-0.000455952 0.000460625 -2.87502e-24)
(-0.000673928 0.000623839 -2.55352e-24)
(-0.000482565 0.000517125 4.3922e-24)
(-0.00070849 0.000679128 5.69711e-24)
(-0.000509098 0.000575561 -1.73513e-23)
(-0.000742511 0.000736322 2.53296e-24)
(-0.000535533 0.000635818 4.41137e-24)
(-0.000775983 0.000795306 -7.18881e-24)
(-0.000561852 0.000697783 9.9865e-25)
(-0.000808898 0.000855968 -5.49116e-24)
(-0.000588035 0.00076135 -1.17868e-23)
(-0.000841251 0.0009182 -1.76332e-23)
(-0.000614063 0.000826411 1.71945e-23)
(-0.000873033 0.000981895 1.36092e-23)
(-0.000639916 0.000892866 -1.74532e-23)
(-0.000904237 0.00104695 3.51452e-24)
(-0.000665574 0.000960614 1.39524e-23)
(-0.000934856 0.00111327 3.66489e-24)
(-0.000691017 0.00102956 -2.57534e-23)
(-0.000964883 0.00118076 1.37346e-23)
(-0.000716225 0.00109961 -9.53937e-25)
(-0.00099431 0.00124932 -4.23633e-23)
(-0.000741177 0.00117068 -9.11189e-24)
(-0.00102313 0.00131886 3.21268e-24)
(-0.000765852 0.00124267 8.04981e-24)
(-0.00105134 0.0013893 -8.86045e-24)
(-0.000790228 0.00131551 2.16387e-23)
(-0.00107893 0.00146056 -5.46807e-24)
(-0.000814284 0.00138912 -1.25839e-23)
(-0.00110589 0.00153254 2.35437e-24)
(-0.000837995 0.00146342 3.42299e-24)
(-0.00113222 0.00160519 1.70062e-23)
(-0.00086134 0.00153834 6.15109e-25)
(-0.00115792 0.00167843 -3.21723e-23)
(-0.000884293 0.00161382 1.16755e-23)
(-0.00118298 0.00175219 4.13532e-24)
(-0.000906829 0.00168979 1.66564e-23)
(-0.0012074 0.00182641 -2.76987e-24)
(-0.000928924 0.00176621 -2.94091e-23)
(-0.00123117 0.00190105 2.36166e-23)
(-0.000950552 0.00184302 4.37269e-23)
(-0.0012543 0.00197605 -3.20625e-23)
(-0.000971686 0.00192019 1.32502e-23)
(-0.00127677 0.00205137 3.04361e-23)
(-0.000992303 0.00199768 1.5168e-23)
(-0.0012986 0.00212697 5.08972e-25)
(-0.00101238 0.00207546 -1.84431e-23)
(-0.00131976 0.00220284 1.92646e-23)
(-0.00103189 0.0021535 1.12e-23)
(-0.00134027 0.00227893 -5.33588e-24)
(-0.00105081 0.0022318 -5.77787e-24)
(-0.00136011 0.00235524 1.46242e-23)
(-0.00106913 0.00231032 3.33795e-23)
(-0.00137926 0.00243174 -7.77635e-24)
(-0.00108681 0.00238906 -2.97593e-23)
(-0.00139773 0.00250843 -3.31208e-23)
(-0.00110386 0.002468 6.53335e-24)
(-0.0014155 0.00258528 2.55498e-23)
(-0.00112024 0.00254714 -6.61167e-24)
(-0.00143255 0.00266229 -1.67599e-23)
(-0.00113595 0.00262647 5.57206e-25)
(-0.00144887 0.00273944 4.39254e-23)
(-0.00115096 0.00270596 2.76247e-23)
(-0.00146444 0.00281673 -8.56637e-24)
(-0.00116526 0.00278561 3.40172e-23)
(-0.00147925 0.00289413 -8.82637e-24)
(-0.00117883 0.00286541 5.80811e-23)
(-0.00149327 0.00297163 3.01721e-23)
(-0.00119164 0.00294534 1.79538e-25)
(-0.00150648 0.00304921 3.00204e-23)
(-0.00120369 0.00302539 -2.74036e-26)
(-0.00151887 0.00312686 2.09154e-23)
(-0.00121493 0.00310555 3.76622e-23)
(-0.0015304 0.00320456 1.47484e-24)
(-0.00122536 0.00318581 3.13346e-25)
(-0.00154107 0.0032823 -4.22228e-23)
(-0.00123492 0.00326615 -2.14134e-23)
(-0.00155084 0.00336005 1.08741e-23)
(-0.00124361 0.00334659 1.19355e-22)
(-0.00155969 0.00343782 1.12779e-23)
(-0.00125137 0.0034271 -3.34575e-23)
(-0.00156758 0.00351558 -1.07407e-23)
(-0.00125816 0.00350769 -1.49763e-24)
(-0.00157448 0.00359331 3.77978e-26)
(-0.00126396 0.00358835 2.50081e-23)
(-0.00158036 0.00367102 -2.47336e-23)
(-0.0012687 0.00366909 1.21572e-23)
(-0.00158517 0.00374869 -4.96146e-23)
(-0.00127234 0.00374992 -3.56633e-23)
(-0.00158887 0.0038263 5.02382e-23)
(-0.00127482 0.00383084 5.0969e-23)
(-0.00159139 0.00390386 -5.14495e-23)
(-0.00127608 0.00391185 -6.30657e-23)
(-0.00159268 0.00398133 1.79318e-25)
(-0.00127604 0.00399297 2.6502e-23)
(-0.00159267 0.00405872 5.3965e-23)
(-0.00127462 0.00407422 -1.37259e-23)
(-0.00159128 0.00413601 -5.42083e-23)
(-0.00127176 0.00415561 -6.86634e-23)
(-0.00158844 0.00421317 -1.30212e-23)
(-0.00126733 0.00423713 9.74342e-23)
(-0.00158402 0.00429021 5.47724e-26)
(-0.0012614 0.00431882 1.13412e-22)
(-0.00157811 0.00436711 4.18567e-23)
(-0.00125375 0.00440023 -2.85078e-23)
(-0.0012893 0.00444589 -9.01139e-24)
(-0.00136934 0.00445664 -1.90334e-23)
(-0.00144853 0.00446715 1.84681e-23)
(-0.00152685 0.00447791 1.5542e-23)
(-0.00157045 0.00444429 -4.41335e-23)
)
;
    }
    frontAndBackPlanes
    {
        type            empty;
    }
}


// ************************************************************************* //
