/*--------------------------------*- C++ -*----------------------------------*\
| =========                 |                                                 |
| \\      /  F ield         | OpenFOAM Extend Project: Open source CFD        |
|  \\    /   O peration     | Version:  1.6-ext                               |
|   \\  /    A nd           | Web:      www.extend-project.de                 |
|    \\/     M anipulation  |                                                 |
\*---------------------------------------------------------------------------*/
FoamFile
{
    version     2.0;
    format      ascii;
    class       volScalarField;
    location    "4.4";
    object      p;
}
// * * * * * * * * * * * * * * * * * * * * * * * * * * * * * * * * * * * * * //

dimensions      [0 2 -2 0 0 0 0];

internalField   nonuniform List<scalar> 
284
(
0.286878
0.2554
0.243933
0.238951
0.237044
0.237011
0.237885
0.239131
0.241148
0.257666
0.248788
0.243436
0.24091
0.239942
0.239967
0.240499
0.241286
0.243445
0.245709
0.242307
0.239745
0.238589
0.238581
0.239312
0.24027
0.241226
0.244174
0.236237
0.235169
0.234131
0.233932
0.234644
0.235962
0.237373
0.238568
0.242269
0.228429
0.228121
0.227724
0.227796
0.228531
0.229752
0.230949
0.23171
0.23554
0.221337
0.221217
0.220891
0.220644
0.220644
0.220775
0.22051
0.219207
0.221017
0.214601
0.214451
0.213854
0.21286
0.211465
0.209401
0.205811
0.198965
0.193575
0.208249
0.207977
0.206896
0.204852
0.201572
0.196449
0.187901
0.17359
0.12927
0.202526
0.202087
0.200392
0.197107
0.191509
0.18198
0.162758
0.124778
0.0314498
0.1978
0.197144
0.194775
0.190364
0.183144
0.171616
0.151522
0.119668
0.0661407
0.194538
0.193469
0.190276
0.184886
0.176892
0.165383
0.148421
0.124082
0.090889
0.193245
0.191299
0.186855
0.180398
0.171887
0.160752
0.146159
0.126319
0.102535
0.195542
0.191024
0.184456
0.176707
0.167697
0.15694
0.143976
0.127316
0.108415
0.201642
0.191839
0.182629
0.173779
0.164633
0.154417
0.14261
0.128072
0.111574
0.22988
0.197994
0.183236
0.173333
0.164405
0.154965
0.144079
0.130606
0.114892
-0.101386
-0.0661362
-0.00321802
-0.0242476
0.0411193
0.011041
0.0690029
0.0424096
0.0849668
0.0626574
0.0924772
0.0727999
0.0967043
0.0772014
-0.053704
-0.0446354
-0.0409227
-0.039156
-0.0372825
-0.0333049
-0.0266924
-0.0169471
-0.00575747
-0.0300523
-0.0303897
-0.0305208
-0.0304831
-0.0292657
-0.0257821
-0.0202972
-0.0124395
-0.00479495
-0.00335201
-0.0101885
-0.0140036
-0.0161477
-0.0165402
-0.0147767
-0.0116531
-0.00684213
-0.00355656
0.0251074
0.0136866
0.0054052
-1.68472e-05
-0.00299223
-0.00380715
-0.00355169
-0.00201101
-0.00258209
0.0444657
0.0303691
0.0197055
0.012054
0.00690506
0.00380657
0.00177657
0.00085199
-0.00208487
0.0549155
0.0397807
0.0276461
0.0184075
0.0116873
0.00702819
0.00369511
0.00148364
-0.00203849
0.058341
0.0417759
0.0280976
0.0174245
0.00955277
0.00411102
0.000571345
-0.00142773
-0.00350758
-0.0252778
-0.0264639
-0.0260675
-0.0243918
-0.0212672
-0.0166302
-0.0109237
-0.00543875
0.00402487
-0.0240042
-0.0252609
-0.0249602
-0.0237217
-0.0212884
-0.0173877
-0.0123146
-0.00725223
0.00293515
-0.0247812
-0.0262244
-0.0261893
-0.0253768
-0.0233864
-0.0197134
-0.0145593
-0.00918867
0.00248879
-0.0273426
-0.0286803
-0.0289145
-0.0285691
-0.0270419
-0.0235772
-0.0179739
-0.01168
0.00235054
-0.0316843
-0.0323525
-0.0326941
-0.0327721
-0.0317004
-0.0284477
-0.0223696
-0.0149376
0.000245529
-0.0375813
-0.0365048
-0.0366723
-0.0370062
-0.0362912
-0.0331702
-0.0269168
-0.0175734
-0.00264146
-0.0445431
-0.0399735
-0.0397551
-0.0398852
-0.0392693
-0.0361517
-0.0296458
-0.0193672
-0.00489186
-0.0613433
-0.0440634
-0.0415319
-0.0408762
-0.0398462
-0.0364082
-0.0297097
-0.0192946
-0.00591669
)
;

boundaryField
{
    inlet
    {
        type            zeroGradient;
    }
    outlet
    {
        type            totalPressure;
        rho             none;
        psi             none;
        gamma           1;
        p0              uniform 0;
        value           nonuniform List<scalar> 
15
(
-9.00109e-05
-0.000525358
-0.0013545
0
0
0
0
0
0
0
0
0
0
0
0
)
;
    }
    fixedWalls
    {
        type            zeroGradient;
    }
    frontAndBack
    {
        type            empty;
    }
}


// ************************************************************************* //
