/*--------------------------------*- C++ -*----------------------------------*\
| =========                 |                                                 |
| \\      /  F ield         | OpenFOAM Extend Project: Open source CFD        |
|  \\    /   O peration     | Version:  1.6-ext                               |
|   \\  /    A nd           | Web:      www.extend-project.de                 |
|    \\/     M anipulation  |                                                 |
\*---------------------------------------------------------------------------*/
FoamFile
{
    version     2.0;
    format      ascii;
    class       surfaceScalarField;
    location    "4.4";
    object      phi;
}
// * * * * * * * * * * * * * * * * * * * * * * * * * * * * * * * * * * * * * //

dimensions      [0 3 -1 0 0 0 0];

internalField   nonuniform List<scalar> 
525
(
0.000160823
3.91769e-05
0.000117027
4.37957e-05
8.13602e-05
3.56672e-05
5.41986e-05
2.71615e-05
3.41227e-05
2.00759e-05
1.91329e-05
1.49898e-05
7.93333e-06
1.11996e-05
8.94266e-07
7.03907e-06
8.94266e-07
0.000204944
3.42328e-05
0.000190234
5.85054e-05
0.000162086
6.38159e-05
0.000128414
6.08336e-05
9.39476e-05
5.4542e-05
6.14674e-05
4.747e-05
3.26803e-05
3.99866e-05
1.01771e-05
2.95423e-05
1.10714e-05
0.000208655
2.55775e-05
0.000208063
5.90977e-05
0.000194057
7.78223e-05
0.000168268
8.66221e-05
0.00013414
8.867e-05
9.54088e-05
8.62013e-05
5.56243e-05
7.97711e-05
1.99318e-05
6.52348e-05
3.10032e-05
0.000205058
2.052e-05
0.00020818
5.59756e-05
0.00020262
8.33816e-05
0.00018587
0.000103372
0.000157767
0.000116773
0.000119751
0.000124217
7.47265e-05
0.000124796
2.90389e-05
0.000110922
6.0042e-05
0.000202382
1.8138e-05
0.000205269
5.30881e-05
0.000203735
8.49157e-05
0.000193887
0.00011322
0.000172911
0.000137749
0.000139239
0.000157889
9.30567e-05
0.000170978
3.9409e-05
0.00016457
9.94511e-05
0.000201256
1.6882e-05
0.000203806
5.05379e-05
0.000204723
8.3999e-05
0.000200406
0.000117537
0.000186886
0.00015127
0.000160073
0.000184702
0.000116316
0.000214735
5.57341e-05
0.000225152
0.000155185
0.00020118
1.57024e-05
0.000204434
4.72838e-05
0.000208079
8.03537e-05
0.000209403
0.000116213
0.000204599
0.000156073
0.000188597
0.000200704
0.000153093
0.000250239
8.77551e-05
0.00029049
0.00024294
0.00020172
1.39828e-05
0.000206761
4.22429e-05
0.000214108
7.30065e-05
0.000222029
0.000108293
0.000227663
0.000150439
0.000226116
0.000202251
0.000204725
0.00027163
0.000138966
0.000356249
0.000381906
0.000202632
1.13511e-05
0.000210258
3.46161e-05
0.000222128
6.11368e-05
0.000237632
9.2789e-05
0.000256834
0.000131237
0.000281679
0.000177406
0.000319056
0.000234252
0.000383798
0.000291508
0.000361333
0.000404371
0.000203915
7.43655e-06
0.000214625
2.39053e-05
0.000230952
4.48103e-05
0.000252657
7.10837e-05
0.000281122
0.000102772
0.000319801
0.000138727
0.000372455
0.000181598
0.000453918
0.000210045
0.000281395
0.000533857
0.000205981
1.45549e-06
0.000220226
9.66001e-06
0.000240146
2.48903e-05
0.000265185
4.60446e-05
0.000296505
7.14531e-05
0.00033674
9.84918e-05
0.000388038
0.000130299
0.000454385
0.000143698
0.000187471
0.000548309
0.000209415
-7.95923e-06
0.000227334
-8.25953e-06
0.000248885
3.33954e-06
0.000273914
2.1016e-05
0.000303734
4.16322e-05
0.000340409
6.18176e-05
0.000386746
8.3962e-05
0.000439012
9.14321e-05
0.000111421
0.000515061
0.000214491
-2.24507e-05
0.000232315
-2.60829e-05
0.000250083
-1.44284e-05
0.000269895
1.2034e-06
0.000294007
1.75206e-05
0.000324236
3.1589e-05
0.000363154
4.50439e-05
0.000404993
4.95933e-05
5.66696e-05
0.000459744
0.000211668
-3.41186e-05
0.000216789
-3.12037e-05
0.000220545
-1.81843e-05
0.000227972
-6.22362e-06
0.000242158
3.33411e-06
0.00026363
1.0117e-05
0.000293115
1.55587e-05
0.00032555
1.71585e-05
1.85841e-05
0.000363636
0.000165881
0.000134678
0.000116493
0.00011027
0.000113604
0.000123721
0.00013928
0.000156438
0.000175022
0.000247496
0.000156875
5.80124e-05
0.000189484
0.000510371
0.00018036
9.23596e-05
0.000476024
0.000584191
0.000144478
8.57024e-05
0.000590848
0.000565458
9.40807e-05
5.92694e-05
0.000591891
0.000505388
4.84364e-05
2.8992e-05
0.000535666
0.000397211
1.48611e-05
6.98255e-06
0.00041922
0.000189883
0.000196866
0.000194075
5.69187e-06
-1.02832e-05
0.000224868
-1.8387e-05
-1.2406e-05
0.000261982
-3.88177e-05
1.70365e-06
0.000298879
-6.11906e-05
2.42939e-05
0.000331092
-8.66807e-05
5.44681e-05
0.000356664
-0.00011421
8.86377e-05
0.000374093
-0.000138231
0.000120801
0.000383685
-0.000158917
0.000149325
-0.000162592
0.000162148
0.000451436
3.02801e-05
0.000444579
-1.15303e-05
0.00044979
-4.40285e-05
0.000460545
-7.19454e-05
0.000471342
-9.74773e-05
0.000478204
-0.000121073
0.000478902
-0.000138929
0.000472651
-0.000152665
-0.000148939
0.000585852
3.52764e-05
0.000579423
-5.10084e-06
0.000574829
-3.94348e-05
0.000570242
-6.73581e-05
0.000563538
-9.07738e-05
0.000552306
-0.000109841
0.00053573
-0.000122352
0.000512801
-0.000129737
-0.000122131
0.000603967
2.32005e-05
0.000607236
-8.36974e-06
0.000602902
-3.51004e-05
0.000592415
-5.6871e-05
0.000575642
-7.40012e-05
0.000551984
-8.61823e-05
0.000522427
-9.27956e-05
0.000486981
-9.42902e-05
-8.64498e-05
0.000551742
7.12402e-06
0.000555627
-1.2254e-05
0.000548782
-2.82553e-05
0.000532353
-4.04422e-05
0.000507285
-4.89338e-05
0.000474658
-5.35551e-05
0.000436704
-5.48414e-05
0.000395314
-5.29004e-05
-4.8474e-05
0.000428334
-1.98959e-06
0.000425188
-9.10796e-06
0.000411242
-1.43095e-05
0.000388299
-1.74992e-05
0.000358314
-1.89486e-05
0.000323663
-1.89046e-05
0.00028694
-1.81176e-05
0.00025089
-1.68511e-05
-1.69117e-05
0.000194876
0.000185768
0.000171459
0.00015396
0.000135011
0.000116106
9.79887e-05
8.11376e-05
-3.15743e-06
3.15743e-06
-1.13798e-05
8.22241e-06
-2.11079e-05
9.72807e-06
-2.99019e-05
8.79401e-06
-3.60149e-05
6.11294e-06
-3.79134e-05
1.89859e-06
-3.44245e-05
-3.48897e-06
-2.51691e-05
-9.2554e-06
-1.5367e-05
-9.06686e-06
1.22243e-05
-2.57727e-05
2.49283e-05
-4.34517e-05
2.74071e-05
-5.78144e-05
2.31567e-05
-6.60154e-05
1.43139e-05
-6.61842e-05
2.06737e-06
-5.74319e-05
-1.22413e-05
-4.04956e-05
-2.61916e-05
-3.80606e-05
-1.15319e-05
2.37562e-05
-3.09659e-05
4.43622e-05
-5.02975e-05
4.67387e-05
-6.47665e-05
3.76257e-05
-7.1547e-05
2.10945e-05
-6.91115e-05
-3.68062e-07
-5.71642e-05
-2.41886e-05
-3.65508e-05
-4.68051e-05
-6.30511e-05
-1.1279e-05
3.50352e-05
-2.88901e-05
6.19733e-05
-4.52952e-05
6.31438e-05
-5.63103e-05
4.86408e-05
-5.96352e-05
2.44193e-05
-5.44432e-05
-5.56007e-06
-4.08543e-05
-3.77775e-05
-1.9558e-05
-6.81014e-05
-8.56546e-05
-9.19772e-06
4.4233e-05
-2.05542e-05
7.33298e-05
-2.93139e-05
7.19036e-05
-3.28071e-05
5.21339e-05
-2.97234e-05
2.13357e-05
-2.00069e-05
-1.52766e-05
-4.64571e-06
-5.31386e-05
1.74179e-05
-9.0165e-05
-0.000109001
-5.53578e-06
4.97687e-05
-5.44371e-06
7.32377e-05
-8.78884e-07
6.73388e-05
8.39414e-06
4.28608e-05
2.18666e-05
7.86332e-06
3.87726e-05
-3.21826e-05
5.84433e-05
-7.28094e-05
7.88503e-05
-0.000110572
-0.000131792
4.05314e-06
4.57156e-05
2.15762e-05
5.57146e-05
4.57662e-05
4.31488e-05
7.18858e-05
1.67413e-05
9.80522e-05
-1.83031e-05
0.000123589
-5.7719e-05
0.000147071
-9.62922e-05
0.00016759
-0.000131091
-0.000150584
3.54324e-05
7.87411e-05
0.000123594
0.000164629
0.000200794
0.000231712
0.000256222
0.000274455
)
;

boundaryField
{
    inlet
    {
        type            calculated;
        value           uniform -0.0002;
    }
    outlet
    {
        type            calculated;
        value           nonuniform List<scalar> 
15
(
-9.80204e-06
-1.78021e-05
-1.15602e-05
3.0455e-06
4.07643e-05
0.000101641
0.000186382
0.00028602
0.00038413
0.000458997
0.000485993
0.0004513
0.000357338
0.000219328
6.42259e-05
)
;
    }
    fixedWalls
    {
        type            calculated;
        value           uniform 0;
    }
    frontAndBack
    {
        type            empty;
    }
}


// ************************************************************************* //
