/*--------------------------------*- C++ -*----------------------------------*\
| =========                 |                                                 |
| \\      /  F ield         | OpenFOAM Extend Project: Open source CFD        |
|  \\    /   O peration     | Version:  1.6-ext                               |
|   \\  /    A nd           | Web:      www.extend-project.de                 |
|    \\/     M anipulation  |                                                 |
\*---------------------------------------------------------------------------*/
FoamFile
{
    version     2.0;
    format      ascii;
    class       volVectorField;
    location    "4.4";
    object      U;
}
// * * * * * * * * * * * * * * * * * * * * * * * * * * * * * * * * * * * * * //

dimensions      [0 1 -1 0 0 0 0];

internalField   nonuniform List<vector> 
284
(
(0.16378 0.0266027 0)
(0.141787 0.026836 0)
(0.0987069 0.0192628 0)
(0.0662226 0.0122054 0)
(0.0430764 0.00724533 0)
(0.0258591 0.0043011 0)
(0.0127884 0.0025343 0)
(0.00283267 0.000888036 0)
(-0.000715052 -0.00120664 0)
(0.200598 0.0434019 0)
(0.202038 0.0577776 0)
(0.179224 0.0536077 0)
(0.146261 0.0444822 0)
(0.111197 0.0351739 0)
(0.0772311 0.0275855 0)
(0.0459916 0.0213794 0)
(0.01852 0.014282 0)
(0.00296549 0.00338705 0)
(0.203094 0.0291687 0)
(0.210985 0.0599809 0)
(0.204486 0.0729168 0)
(0.183933 0.0756829 0)
(0.15308 0.0725958 0)
(0.115781 0.0665504 0)
(0.0753115 0.0584004 0)
(0.0344435 0.0451699 0)
(0.00723562 0.019295 0)
(0.201523 0.0224986 0)
(0.207595 0.0574988 0)
(0.207852 0.0816735 0)
(0.197295 0.0967034 0)
(0.174808 0.104303 0)
(0.141315 0.10605 0)
(0.0985501 0.101989 0)
(0.0488756 0.0866286 0)
(0.0116212 0.0439373 0)
(0.200564 0.0190885 0)
(0.203987 0.0543855 0)
(0.205905 0.08468 0)
(0.20133 0.109528 0)
(0.186658 0.128786 0)
(0.159755 0.142267 0)
(0.119204 0.148152 0)
(0.0643238 0.136594 0)
(0.0173996 0.0779875 0)
(0.200233 0.0174328 0)
(0.202364 0.0517979 0)
(0.204907 0.0848938 0)
(0.204336 0.116475 0)
(0.196617 0.146164 0)
(0.177772 0.173078 0)
(0.143099 0.194096 0)
(0.0864224 0.194552 0)
(0.0277027 0.124059 0)
(0.200217 0.0163085 0)
(0.202433 0.0491031 0)
(0.20637 0.0827826 0)
(0.209794 0.118135 0)
(0.209333 0.155724 0)
(0.200832 0.195415 0)
(0.178121 0.234215 0)
(0.124387 0.253199 0)
(0.0484938 0.196609 0)
(0.200345 0.0149228 0)
(0.20361 0.0451491 0)
(0.210098 0.0775084 0)
(0.218448 0.113746 0)
(0.226314 0.155805 0)
(0.23069 0.205922 0)
(0.223868 0.269949 0)
(0.197777 0.339294 0)
(0.0603404 0.286529 0)
(0.200547 0.0128039 0)
(0.205484 0.0389654 0)
(0.215429 0.0680379 0)
(0.229658 0.102058 0)
(0.247318 0.143274 0)
(0.271242 0.194068 0)
(0.299111 0.260943 0)
(0.357626 0.345011 0)
(0.39857 0.428863 0)
(0.20084 0.00962243 0)
(0.207965 0.0299411 0)
(0.221678 0.0539741 0)
(0.241102 0.0832129 0)
(0.265831 0.118726 0)
(0.30036 0.160709 0)
(0.342439 0.212342 0)
(0.410531 0.255249 0)
(0.491726 0.337831 0)
(0.201384 0.00498549 0)
(0.211558 0.0176327 0)
(0.228981 0.0356938 0)
(0.251795 0.0592635 0)
(0.279614 0.0877053 0)
(0.315462 0.118994 0)
(0.360106 0.156137 0)
(0.417632 0.172498 0)
(0.498134 0.228051 0)
(0.202451 -0.00237714 0)
(0.216924 0.00140465 0)
(0.237173 0.0141509 0)
(0.260645 0.0330398 0)
(0.287853 0.0556661 0)
(0.320576 0.0787999 0)
(0.362201 0.105283 0)
(0.40979 0.113901 0)
(0.473764 0.141535 0)
(0.204208 -0.0136786 0)
(0.222727 -0.0174889 0)
(0.24092 -0.00725751 0)
(0.259343 0.00903476 0)
(0.281015 0.0272709 0)
(0.307542 0.0443463 0)
(0.342578 0.0618888 0)
(0.382083 0.0679821 0)
(0.430405 0.0788532 0)
(0.201749 -0.0351358 0)
(0.215148 -0.0365663 0)
(0.218713 -0.0225046 0)
(0.223126 -0.00692496 0)
(0.233694 0.00685067 0)
(0.251227 0.017674 0)
(0.277298 0.0267879 0)
(0.308032 0.0297515 0)
(0.343825 0.0325467 0)
(0.164655 -0.0248751 0)
(0.151328 -0.0222508 0)
(0.124355 -0.0125598 0)
(0.111291 -0.00485287 0)
(0.110465 0.000406214 0)
(0.117554 0.00370446 0)
(0.13087 0.00584229 0)
(0.147358 0.00613972 0)
(0.165749 0.00604556 0)
(0.353882 0.166762 0)
(0.183931 0.0442656 0)
(0.54391 0.178159 0)
(0.497441 0.0823742 0)
(0.576055 0.167456 0)
(0.59655 0.10025 0)
(0.543506 0.117983 0)
(0.584772 0.0752578 0)
(0.483606 0.0676024 0)
(0.523954 0.0423568 0)
(0.381254 0.0265709 0)
(0.410611 0.013628 0)
(0.183262 0.00370388 0)
(0.194837 -0.000216697 0)
(0.185085 -0.00594762 0)
(0.205017 -0.0151986 0)
(0.241463 -0.0285173 0)
(0.280229 -0.0489667 0)
(0.315468 -0.0753482 0)
(0.34641 -0.105262 0)
(0.366631 -0.132753 0)
(0.383813 -0.157121 0)
(0.384304 -0.165458 0)
(0.463071 0.0191358 0)
(0.444867 -0.0190565 0)
(0.444176 -0.0471039 0)
(0.454123 -0.0722499 0)
(0.465794 -0.0971178 0)
(0.477495 -0.122034 0)
(0.478704 -0.142405 0)
(0.482188 -0.15949 0)
(0.460637 -0.159213 0)
(0.592811 0.0423829 0)
(0.583623 -0.0030278 0)
(0.576674 -0.0389523 0)
(0.572842 -0.0689894 0)
(0.56726 -0.0949132 0)
(0.560946 -0.117224 0)
(0.543434 -0.132951 0)
(0.531622 -0.144022 0)
(0.488965 -0.138196 0)
(0.602697 0.0318905 0)
(0.608207 -0.00558843 0)
(0.606645 -0.0366336 0)
(0.599665 -0.062402 0)
(0.585592 -0.08356 0)
(0.567063 -0.0998323 0)
(0.536743 -0.109771 0)
(0.511763 -0.114266 0)
(0.455449 -0.105889 0)
(0.547391 0.0143103 0)
(0.556869 -0.0110322 0)
(0.554918 -0.0326178 0)
(0.543284 -0.0500248 0)
(0.522024 -0.0631732 0)
(0.493732 -0.0715527 0)
(0.45559 -0.0751816 0)
(0.421069 -0.0740441 0)
(0.362159 -0.0670293 0)
(0.426699 -0.000746081 0)
(0.429668 -0.013332 0)
(0.42085 -0.0230676 0)
(0.402114 -0.0296796 0)
(0.375065 -0.0333526 0)
(0.342428 -0.0342161 0)
(0.305163 -0.0332215 0)
(0.271175 -0.0306802 0)
(0.223929 -0.0290527 0)
(0.197454 -0.00379363 0)
(0.191736 -0.0062736 0)
(0.179685 -0.00750887 0)
(0.163435 -0.00766486 0)
(0.144847 -0.00708976 0)
(0.125671 -0.00613353 0)
(0.106893 -0.00536154 0)
(0.0903702 -0.00500619 0)
(0.067408 -0.00604098 0)
(-0.00067025 0.000540514 0)
(-0.00622809 0.00265361 0)
(-0.0163039 0.00352255 0)
(-0.0260417 0.00349395 0)
(-0.0337875 0.00278533 0)
(-0.037863 0.0013569 0)
(-0.0370053 -0.0007393 0)
(-0.0338664 -0.00326602 0)
(-0.0117794 -0.00645245 0)
(-0.00314848 0.00642023 0)
(-0.0159343 0.0148019 0)
(-0.0350937 0.0170284 0)
(-0.0520807 0.0150568 0)
(-0.0638178 0.0100988 0)
(-0.0678872 0.00266867 0)
(-0.0632499 -0.00649219 0)
(-0.0545564 -0.0159587 0)
(-0.020408 -0.0252111 0)
(-0.00430517 0.0178168 0)
(-0.0198281 0.0345021 0)
(-0.0415188 0.0371326 0)
(-0.0594985 0.0306763 0)
(-0.0705221 0.0181694 0)
(-0.0723952 0.00144303 0)
(-0.0644758 -0.0176819 0)
(-0.0530988 -0.035976 0)
(-0.0138038 -0.0501967 0)
(-0.00443468 0.0296892 0)
(-0.0190762 0.0539235 0)
(-0.0382572 0.0559069 0)
(-0.0529311 0.0441033 0)
(-0.0603801 0.0236051 0)
(-0.0590723 -0.00229923 0)
(-0.0484882 -0.0308719 0)
(-0.0362632 -0.0575783 0)
(0.00181308 -0.0743775 0)
(-0.00409896 0.0401765 0)
(-0.0148078 0.0692981 0)
(-0.0263088 0.0695753 0)
(-0.0330476 0.0523378 0)
(-0.0333511 0.0245004 0)
(-0.0266285 -0.00933426 0)
(-0.0124627 -0.0453241 0)
(0.00208869 -0.079672 0)
(0.0370316 -0.097883 0)
(-0.00342897 0.0478621 0)
(-0.00695653 0.0762658 0)
(-0.00438302 0.0731807 0)
(0.0024072 0.0507765 0)
(0.0137777 0.0172688 0)
(0.0294575 -0.0221079 0)
(0.0483667 -0.0625091 0)
(0.0667533 -0.100954 0)
(0.0974301 -0.121616 0)
(0.000578939 0.0552697 0)
(0.00878703 0.0713499 0)
(0.0326553 0.0609961 0)
(0.0579162 0.0343879 0)
(0.0843716 -0.00193052 0)
(0.11106 -0.0431241 0)
(0.136014 -0.0840018 0)
(0.158081 -0.121326 0)
(0.183072 -0.14274 0)
(0.0267904 0.0283676 0)
(0.0508615 0.0376006 0)
(0.100864 0.0243327 0)
(0.144258 -0.00148577 0)
(0.183062 -0.0352666 0)
(0.217827 -0.0730382 0)
(0.2454 -0.109163 0)
(0.268359 -0.141397 0)
(0.28442 -0.158432 0)
)
;

boundaryField
{
    inlet
    {
        type            fixedValue;
        value           uniform (0.2 0 0);
    }
    outlet
    {
        type            zeroGradient;
    }
    fixedWalls
    {
        type            fixedValue;
        value           uniform (0 0 0);
    }
    frontAndBack
    {
        type            empty;
    }
}


// ************************************************************************* //
