/*--------------------------------*- C++ -*----------------------------------*\
| =========                 |                                                 |
| \\      /  F ield         | OpenFOAM Extend Project: Open source CFD        |
|  \\    /   O peration     | Version:  1.6-ext                               |
|   \\  /    A nd           | Web:      www.extend-project.de                 |
|    \\/     M anipulation  |                                                 |
\*---------------------------------------------------------------------------*/
FoamFile
{
    version     2.0;
    format      ascii;
    class       volScalarField;
    location    "3.2";
    object      p;
}
// * * * * * * * * * * * * * * * * * * * * * * * * * * * * * * * * * * * * * //

dimensions      [0 2 -2 0 0 0 0];

internalField   nonuniform List<scalar> 
70
(
-0.0851505
-0.0418696
-0.00470696
0.02839
0.049713
0.0603822
0.0646838
-0.0731529
-0.0646657
-0.0608986
-0.0570027
-0.0502977
-0.0399879
-0.0276801
-0.0146908
-0.0046077
-0.0480779
-0.0487812
-0.0481839
-0.0456102
-0.0399266
-0.0311286
-0.0212007
-0.0110357
-0.00431366
-0.0188982
-0.0250789
-0.0276902
-0.0275117
-0.0244803
-0.0190214
-0.0129491
-0.00671169
-0.00377625
0.0116743
0.00105454
-0.00570987
-0.00906602
-0.00957277
-0.00800342
-0.00584349
-0.00327028
-0.00332192
0.0323379
0.019309
0.0100724
0.00408637
0.000692995
-0.000821602
-0.00148129
-0.00138441
-0.00300697
0.0433717
0.0293321
0.0184723
0.0106126
0.00527983
0.00190735
-0.000160837
-0.00113607
-0.00287678
0.0465526
0.0308826
0.0183065
0.00893693
0.00253285
-0.0013542
-0.00328865
-0.00371134
-0.00399688
)
;

boundaryField
{
    inlet
    {
        type            zeroGradient;
    }
    outlet
    {
        type            totalPressure;
        rho             none;
        psi             none;
        gamma           1;
        p0              uniform 0;
        value           uniform 0;
    }
    fixedWalls
    {
        type            zeroGradient;
    }
    frontAndBack
    {
        type            empty;
    }
    procBoundary1to2
    {
        type            processor;
        value           nonuniform List<scalar> 7(-0.120139 -0.0203177 0.0254402 0.0545702 0.0713843 0.0793422 0.0836073);
    }
    procBoundary1to0
    {
        type            processor;
        value           nonuniform List<scalar> 9(-0.0804281 -0.0634525 -0.0615853 -0.0589686 -0.0531189 -0.0431284 -0.0302696 -0.0162363 -0.00414181);
    }
}


// ************************************************************************* //
