/*--------------------------------*- C++ -*----------------------------------*\
| =========                 |                                                 |
| \\      /  F ield         | OpenFOAM Extend Project: Open source CFD        |
|  \\    /   O peration     | Version:  1.6-ext                               |
|   \\  /    A nd           | Web:      www.extend-project.de                 |
|    \\/     M anipulation  |                                                 |
\*---------------------------------------------------------------------------*/
FoamFile
{
    version     2.0;
    format      ascii;
    class       vectorField;
    location    "0.3";
    object      accumulatedFluidInterfaceDisplacement;
}
// * * * * * * * * * * * * * * * * * * * * * * * * * * * * * * * * * * * * * //


338
(
(-2.40497e-06 5.98639e-07 2.60594e-27)
(-2.31512e-06 -4.26899e-08 -5.30553e-27)
(-1.04115e-05 -3.35707e-06 -3.38394e-27)
(-1.04425e-05 -3.27688e-06 -3.36688e-28)
(-1.04429e-05 -3.17005e-06 3.46398e-27)
(-1.04371e-05 -3.06361e-06 3.4914e-27)
(-1.04251e-05 -2.95739e-06 1.6838e-27)
(-1.04069e-05 -2.8517e-06 6.17054e-27)
(-1.03828e-05 -2.74677e-06 -3.58041e-27)
(-1.03528e-05 -2.64281e-06 -7.66875e-27)
(-1.03174e-05 -2.53999e-06 1.11113e-27)
(-1.02765e-05 -2.43841e-06 -1.13234e-27)
(-1.02304e-05 -2.33819e-06 -5.12954e-27)
(-1.01791e-05 -2.23941e-06 2.69118e-27)
(-1.01227e-05 -2.14217e-06 4.49701e-27)
(-1.00614e-05 -2.04654e-06 -4.37216e-28)
(-9.99526e-06 -1.9526e-06 -4.71479e-28)
(-9.92425e-06 -1.86041e-06 -1.65847e-27)
(-9.84849e-06 -1.77003e-06 -3.67014e-27)
(-9.76804e-06 -1.68151e-06 4.42787e-27)
(-9.68296e-06 -1.59487e-06 4.47113e-27)
(-9.59331e-06 -1.51013e-06 -1.50617e-27)
(-9.49915e-06 -1.42731e-06 -1.89418e-27)
(-9.40053e-06 -1.34638e-06 6.63897e-28)
(-9.2975e-06 -1.26735e-06 2.68153e-27)
(-9.1901e-06 -1.19018e-06 -9.40398e-28)
(-9.07836e-06 -1.11484e-06 -5.05109e-28)
(-8.96233e-06 -1.04129e-06 1.24683e-27)
(-8.84203e-06 -9.69503e-07 1.31215e-27)
(-8.71747e-06 -8.99438e-07 -1.85556e-27)
(-8.58869e-06 -8.31066e-07 -1.51817e-27)
(-8.45567e-06 -7.64367e-07 -6.31233e-29)
(-8.31844e-06 -6.99333e-07 -1.2811e-27)
(-8.17697e-06 -6.35972e-07 6.52699e-27)
(-8.03126e-06 -5.74312e-07 5.01319e-27)
(-7.8813e-06 -5.14404e-07 -3.19296e-27)
(-7.72704e-06 -4.56324e-07 -3.82142e-27)
(-7.56848e-06 -4.00174e-07 2.98413e-27)
(-7.40556e-06 -3.46084e-07 2.08489e-27)
(-7.23825e-06 -2.94211e-07 -3.26094e-27)
(-7.06652e-06 -2.4474e-07 -1.21702e-27)
(-6.89032e-06 -1.97879e-07 -1.40279e-27)
(-6.70962e-06 -1.53854e-07 2.3979e-27)
(-6.52437e-06 -1.12905e-07 9.07906e-28)
(-6.33456e-06 -7.52771e-08 2.32374e-28)
(-6.14018e-06 -4.1211e-08 9.44645e-28)
(-5.94124e-06 -1.09306e-08 -3.5279e-28)
(-5.73778e-06 1.53692e-08 7.19265e-29)
(-5.52989e-06 3.7535e-08 -1.31604e-27)
(-5.31767e-06 5.54665e-08 4.12697e-28)
(-5.10132e-06 6.91258e-08 1.20012e-28)
(-4.88104e-06 7.8542e-08 5.36068e-29)
(-4.65715e-06 8.38107e-08 8.78763e-28)
(-4.42998e-06 8.50876e-08 -4.51509e-28)
(-4.19993e-06 8.25769e-08 4.19206e-28)
(-3.96743e-06 7.65169e-08 -5.4062e-29)
(-3.73294e-06 6.71644e-08 -5.25621e-28)
(-3.49692e-06 5.47832e-08 -8.97133e-28)
(-3.25979e-06 3.96334e-08 -2.30466e-28)
(-3.02196e-06 2.19744e-08 -1.82354e-28)
(-2.78378e-06 2.05844e-09 2.77967e-27)
(-2.54551e-06 -1.98489e-08 3.8046e-27)
(-1.0218e-05 -3.37781e-06 5.19396e-27)
(-1.03275e-05 -3.38169e-06 7.54191e-28)
(-1.00257e-05 -3.34064e-06 -3.52157e-27)
(-1.01078e-05 -3.37325e-06 -2.31597e-27)
(-2.62922e-06 6.21391e-07 3.67993e-27)
(-2.85959e-06 6.43018e-07 -6.42529e-29)
(-3.08833e-06 6.6219e-07 -2.63672e-27)
(-3.31521e-06 6.78376e-07 1.95548e-28)
(-3.54e-06 6.91053e-07 6.63958e-28)
(-3.7624e-06 6.99748e-07 -1.85912e-27)
(-3.98212e-06 7.04054e-07 -4.24379e-28)
(-4.19889e-06 7.03651e-07 9.88515e-28)
(-4.41245e-06 6.98316e-07 -5.55594e-28)
(-4.62259e-06 6.87933e-07 -4.52512e-29)
(-4.82913e-06 6.72482e-07 -6.48158e-28)
(-5.03197e-06 6.52031e-07 4.50495e-28)
(-5.23102e-06 6.26718e-07 -4.08938e-28)
(-5.42625e-06 5.96736e-07 -2.88448e-27)
(-5.61768e-06 5.62318e-07 -1.08364e-27)
(-5.80531e-06 5.23718e-07 -2.45898e-27)
(-5.98917e-06 4.81203e-07 1.87776e-27)
(-6.16931e-06 4.35043e-07 2.94409e-27)
(-6.34576e-06 3.85503e-07 -4.75624e-28)
(-6.51852e-06 3.32836e-07 -2.69141e-27)
(-6.68761e-06 2.77284e-07 -8.41518e-28)
(-6.85302e-06 2.19067e-07 1.91966e-27)
(-7.01473e-06 1.58388e-07 6.1638e-28)
(-7.17271e-06 9.54259e-08 6.77283e-28)
(-7.3269e-06 3.03349e-08 9.72701e-28)
(-7.47727e-06 -3.67545e-08 1.06902e-27)
(-7.62374e-06 -1.05737e-07 -5.91874e-28)
(-7.76627e-06 -1.76531e-07 -2.99298e-28)
(-7.90477e-06 -2.4908e-07 -9.47218e-28)
(-8.0392e-06 -3.23348e-07 1.34411e-27)
(-8.16948e-06 -3.99318e-07 9.51872e-28)
(-8.29556e-06 -4.76992e-07 -6.43905e-29)
(-8.41739e-06 -5.56383e-07 -1.74962e-29)
(-8.53492e-06 -6.37518e-07 -2.28898e-27)
(-8.6481e-06 -7.2043e-07 5.83676e-28)
(-8.75691e-06 -8.05157e-07 3.34059e-28)
(-8.86131e-06 -8.91738e-07 -2.38844e-28)
(-8.96127e-06 -9.80211e-07 2.08026e-27)
(-9.05677e-06 -1.07061e-06 5.9053e-29)
(-9.14781e-06 -1.16296e-06 3.35759e-27)
(-9.23436e-06 -1.25728e-06 5.44338e-27)
(-9.31641e-06 -1.35358e-06 2.09848e-27)
(-9.39396e-06 -1.45186e-06 5.44174e-28)
(-9.46698e-06 -1.5521e-06 -1.65858e-27)
(-9.53547e-06 -1.65428e-06 6.96747e-28)
(-9.59941e-06 -1.75836e-06 -1.79923e-27)
(-9.65877e-06 -1.86429e-06 -1.61599e-27)
(-9.71352e-06 -1.97203e-06 1.64495e-27)
(-9.76364e-06 -2.08152e-06 1.07025e-27)
(-9.80907e-06 -2.19269e-06 -2.22888e-27)
(-9.84976e-06 -2.30547e-06 -3.43978e-27)
(-9.88566e-06 -2.4198e-06 4.27519e-27)
(-9.91671e-06 -2.53562e-06 2.66631e-27)
(-9.94285e-06 -2.65282e-06 1.80829e-27)
(-9.96403e-06 -2.7713e-06 3.15969e-27)
(-9.98023e-06 -2.8909e-06 -3.60089e-27)
(-9.99142e-06 -3.01132e-06 6.61496e-27)
(-9.99781e-06 -3.13202e-06 8.45445e-27)
(-9.99943e-06 -3.25153e-06 -3.40752e-27)
(-2.19678e-07 1.1879e-07 2.50687e-26)
(-2.16197e-07 1.55488e-07 7.13476e-27)
(-2.16469e-07 2.21028e-07 -1.67059e-26)
(-2.32053e-07 2.70736e-07 1.58342e-27)
(-2.6319e-07 3.07222e-07 5.46454e-27)
(-3.07706e-07 3.34506e-07 -1.79231e-26)
(-3.63156e-07 3.55202e-07 -9.73954e-28)
(-4.27986e-07 3.71498e-07 6.5789e-27)
(-5.01148e-07 3.84948e-07 -1.89432e-27)
(-5.82063e-07 3.9674e-07 7.30067e-27)
(-6.70442e-07 4.07746e-07 -1.19497e-26)
(-7.66217e-07 4.18615e-07 -6.15757e-27)
(-8.69476e-07 4.2982e-07 1.29687e-26)
(-9.80428e-07 4.41698e-07 -2.62401e-27)
(-1.09939e-06 4.54485e-07 -5.84034e-27)
(-1.22676e-06 4.6834e-07 2.6883e-27)
(-1.36301e-06 4.83362e-07 -9.79036e-28)
(-1.50868e-06 4.99609e-07 -7.51905e-27)
(-1.66439e-06 5.17103e-07 1.5727e-27)
(-1.83077e-06 5.35824e-07 3.86933e-27)
(-2.00852e-06 5.55702e-07 -3.01663e-27)
(-2.19835e-06 5.7659e-07 -3.43814e-27)
(-1.78026e-07 -9.9087e-08 4.03671e-27)
(-2.1042e-06 -6.48344e-08 1.40978e-27)
(-1.91155e-06 -8.59071e-08 1.57491e-27)
(-1.73218e-06 -1.06133e-07 -8.39498e-27)
(-1.56517e-06 -1.25393e-07 -1.57934e-27)
(-1.40968e-06 -1.43628e-07 4.57075e-27)
(-1.26493e-06 -1.6082e-07 -3.24327e-27)
(-1.13026e-06 -1.76978e-07 -1.81909e-27)
(-1.00504e-06 -1.92114e-07 3.58044e-27)
(-8.88755e-07 -2.06221e-07 4.48729e-27)
(-7.80976e-07 -2.19249e-07 -3.28244e-27)
(-6.81363e-07 -2.31075e-07 -8.84816e-27)
(-5.89677e-07 -2.41473e-07 7.45918e-28)
(-5.058e-07 -2.50087e-07 1.94822e-26)
(-4.29754e-07 -2.56386e-07 -8.33647e-27)
(-3.61752e-07 -2.59634e-07 -1.17662e-26)
(-3.02253e-07 -2.58806e-07 2.6336e-26)
(-2.52112e-07 -2.52556e-07 1.05238e-26)
(-2.12598e-07 -2.38985e-07 -1.63153e-26)
(-1.85723e-07 -2.15852e-07 -1.40296e-26)
(-1.73167e-07 -1.79706e-07 8.41214e-27)
(-1.74294e-07 -1.28438e-07 8.85141e-27)
(-2.40497e-06 5.98639e-07 2.60594e-27)
(-2.31512e-06 -4.26899e-08 -5.30553e-27)
(-1.04115e-05 -3.35707e-06 -3.38394e-27)
(-1.04425e-05 -3.27688e-06 -3.36688e-28)
(-1.04429e-05 -3.17005e-06 3.46398e-27)
(-1.04371e-05 -3.06361e-06 3.4914e-27)
(-1.04251e-05 -2.95739e-06 1.6838e-27)
(-1.04069e-05 -2.8517e-06 6.17054e-27)
(-1.03828e-05 -2.74677e-06 -3.58041e-27)
(-1.03528e-05 -2.64281e-06 -7.66875e-27)
(-1.03174e-05 -2.53999e-06 1.11113e-27)
(-1.02765e-05 -2.43841e-06 -1.13234e-27)
(-1.02304e-05 -2.33819e-06 -5.12954e-27)
(-1.01791e-05 -2.23941e-06 2.69118e-27)
(-1.01227e-05 -2.14217e-06 4.49701e-27)
(-1.00614e-05 -2.04654e-06 -4.37216e-28)
(-9.99526e-06 -1.9526e-06 -4.71479e-28)
(-9.92425e-06 -1.86041e-06 -1.65847e-27)
(-9.84849e-06 -1.77003e-06 -3.67014e-27)
(-9.76804e-06 -1.68151e-06 4.42787e-27)
(-9.68296e-06 -1.59487e-06 4.47113e-27)
(-9.59331e-06 -1.51013e-06 -1.50617e-27)
(-9.49915e-06 -1.42731e-06 -1.89418e-27)
(-9.40053e-06 -1.34638e-06 6.63897e-28)
(-9.2975e-06 -1.26735e-06 2.68153e-27)
(-9.1901e-06 -1.19018e-06 -9.40398e-28)
(-9.07836e-06 -1.11484e-06 -5.05109e-28)
(-8.96233e-06 -1.04129e-06 1.24683e-27)
(-8.84203e-06 -9.69503e-07 1.31215e-27)
(-8.71747e-06 -8.99438e-07 -1.85556e-27)
(-8.58869e-06 -8.31066e-07 -1.51817e-27)
(-8.45567e-06 -7.64367e-07 -6.31233e-29)
(-8.31844e-06 -6.99333e-07 -1.2811e-27)
(-8.17697e-06 -6.35972e-07 6.52699e-27)
(-8.03126e-06 -5.74312e-07 5.01319e-27)
(-7.8813e-06 -5.14404e-07 -3.19296e-27)
(-7.72704e-06 -4.56324e-07 -3.82142e-27)
(-7.56848e-06 -4.00174e-07 2.98413e-27)
(-7.40556e-06 -3.46084e-07 2.08489e-27)
(-7.23825e-06 -2.94211e-07 -3.26094e-27)
(-7.06652e-06 -2.4474e-07 -1.21702e-27)
(-6.89032e-06 -1.97879e-07 -1.40279e-27)
(-6.70962e-06 -1.53854e-07 2.3979e-27)
(-6.52437e-06 -1.12905e-07 9.07906e-28)
(-6.33456e-06 -7.52771e-08 2.32374e-28)
(-6.14018e-06 -4.1211e-08 9.44645e-28)
(-5.94124e-06 -1.09306e-08 -3.5279e-28)
(-5.73778e-06 1.53692e-08 7.19265e-29)
(-5.52989e-06 3.7535e-08 -1.31604e-27)
(-5.31767e-06 5.54665e-08 4.12697e-28)
(-5.10132e-06 6.91258e-08 1.20012e-28)
(-4.88104e-06 7.8542e-08 5.36068e-29)
(-4.65715e-06 8.38107e-08 8.78763e-28)
(-4.42998e-06 8.50876e-08 -4.51509e-28)
(-4.19993e-06 8.25769e-08 4.19206e-28)
(-3.96743e-06 7.65169e-08 -5.4062e-29)
(-3.73294e-06 6.71644e-08 -5.25621e-28)
(-3.49692e-06 5.47832e-08 -8.97133e-28)
(-3.25979e-06 3.96334e-08 -2.30466e-28)
(-3.02196e-06 2.19744e-08 -1.82354e-28)
(-2.78378e-06 2.05844e-09 2.77967e-27)
(-2.54551e-06 -1.98489e-08 3.8046e-27)
(-1.0218e-05 -3.37781e-06 5.19396e-27)
(-1.03275e-05 -3.38169e-06 7.54191e-28)
(-1.00257e-05 -3.34064e-06 -3.52157e-27)
(-1.01078e-05 -3.37325e-06 -2.31597e-27)
(-2.62922e-06 6.21391e-07 3.67993e-27)
(-2.85959e-06 6.43018e-07 -6.42529e-29)
(-3.08833e-06 6.6219e-07 -2.63672e-27)
(-3.31521e-06 6.78376e-07 1.95548e-28)
(-3.54e-06 6.91053e-07 6.63958e-28)
(-3.7624e-06 6.99748e-07 -1.85912e-27)
(-3.98212e-06 7.04054e-07 -4.24379e-28)
(-4.19889e-06 7.03651e-07 9.88515e-28)
(-4.41245e-06 6.98316e-07 -5.55594e-28)
(-4.62259e-06 6.87933e-07 -4.52512e-29)
(-4.82913e-06 6.72482e-07 -6.48158e-28)
(-5.03197e-06 6.52031e-07 4.50495e-28)
(-5.23102e-06 6.26718e-07 -4.08938e-28)
(-5.42625e-06 5.96736e-07 -2.88448e-27)
(-5.61768e-06 5.62318e-07 -1.08364e-27)
(-5.80531e-06 5.23718e-07 -2.45898e-27)
(-5.98917e-06 4.81203e-07 1.87776e-27)
(-6.16931e-06 4.35043e-07 2.94409e-27)
(-6.34576e-06 3.85503e-07 -4.75624e-28)
(-6.51852e-06 3.32836e-07 -2.69141e-27)
(-6.68761e-06 2.77284e-07 -8.41518e-28)
(-6.85302e-06 2.19067e-07 1.91966e-27)
(-7.01473e-06 1.58388e-07 6.1638e-28)
(-7.17271e-06 9.54259e-08 6.77283e-28)
(-7.3269e-06 3.03349e-08 9.72701e-28)
(-7.47727e-06 -3.67545e-08 1.06902e-27)
(-7.62374e-06 -1.05737e-07 -5.91874e-28)
(-7.76627e-06 -1.76531e-07 -2.99298e-28)
(-7.90477e-06 -2.4908e-07 -9.47218e-28)
(-8.0392e-06 -3.23348e-07 1.34411e-27)
(-8.16948e-06 -3.99318e-07 9.51872e-28)
(-8.29556e-06 -4.76992e-07 -6.43905e-29)
(-8.41739e-06 -5.56383e-07 -1.74962e-29)
(-8.53492e-06 -6.37518e-07 -2.28898e-27)
(-8.6481e-06 -7.2043e-07 5.83676e-28)
(-8.75691e-06 -8.05157e-07 3.34059e-28)
(-8.86131e-06 -8.91738e-07 -2.38844e-28)
(-8.96127e-06 -9.80211e-07 2.08026e-27)
(-9.05677e-06 -1.07061e-06 5.9053e-29)
(-9.14781e-06 -1.16296e-06 3.35759e-27)
(-9.23436e-06 -1.25728e-06 5.44338e-27)
(-9.31641e-06 -1.35358e-06 2.09848e-27)
(-9.39396e-06 -1.45186e-06 5.44174e-28)
(-9.46698e-06 -1.5521e-06 -1.65858e-27)
(-9.53547e-06 -1.65428e-06 6.96747e-28)
(-9.59941e-06 -1.75836e-06 -1.79923e-27)
(-9.65877e-06 -1.86429e-06 -1.61599e-27)
(-9.71352e-06 -1.97203e-06 1.64495e-27)
(-9.76364e-06 -2.08152e-06 1.07025e-27)
(-9.80907e-06 -2.19269e-06 -2.22888e-27)
(-9.84976e-06 -2.30547e-06 -3.43978e-27)
(-9.88566e-06 -2.4198e-06 4.27519e-27)
(-9.91671e-06 -2.53562e-06 2.66631e-27)
(-9.94285e-06 -2.65282e-06 1.80829e-27)
(-9.96403e-06 -2.7713e-06 3.15969e-27)
(-9.98023e-06 -2.8909e-06 -3.60089e-27)
(-9.99142e-06 -3.01132e-06 6.61496e-27)
(-9.99781e-06 -3.13202e-06 8.45445e-27)
(-9.99943e-06 -3.25153e-06 -3.40752e-27)
(-2.19678e-07 1.1879e-07 2.50687e-26)
(-2.16197e-07 1.55488e-07 7.13476e-27)
(-2.16469e-07 2.21028e-07 -1.67059e-26)
(-2.32053e-07 2.70736e-07 1.58342e-27)
(-2.6319e-07 3.07222e-07 5.46454e-27)
(-3.07706e-07 3.34506e-07 -1.79231e-26)
(-3.63156e-07 3.55202e-07 -9.73954e-28)
(-4.27986e-07 3.71498e-07 6.5789e-27)
(-5.01148e-07 3.84948e-07 -1.89432e-27)
(-5.82063e-07 3.9674e-07 7.30067e-27)
(-6.70442e-07 4.07746e-07 -1.19497e-26)
(-7.66217e-07 4.18615e-07 -6.15757e-27)
(-8.69476e-07 4.2982e-07 1.29687e-26)
(-9.80428e-07 4.41698e-07 -2.62401e-27)
(-1.09939e-06 4.54485e-07 -5.84034e-27)
(-1.22676e-06 4.6834e-07 2.6883e-27)
(-1.36301e-06 4.83362e-07 -9.79036e-28)
(-1.50868e-06 4.99609e-07 -7.51905e-27)
(-1.66439e-06 5.17103e-07 1.5727e-27)
(-1.83077e-06 5.35824e-07 3.86933e-27)
(-2.00852e-06 5.55702e-07 -3.01663e-27)
(-2.19835e-06 5.7659e-07 -3.43814e-27)
(-1.78026e-07 -9.9087e-08 4.03671e-27)
(-2.1042e-06 -6.48344e-08 1.40978e-27)
(-1.91155e-06 -8.59071e-08 1.57491e-27)
(-1.73218e-06 -1.06133e-07 -8.39498e-27)
(-1.56517e-06 -1.25393e-07 -1.57934e-27)
(-1.40968e-06 -1.43628e-07 4.57075e-27)
(-1.26493e-06 -1.6082e-07 -3.24327e-27)
(-1.13026e-06 -1.76978e-07 -1.81909e-27)
(-1.00504e-06 -1.92114e-07 3.58044e-27)
(-8.88755e-07 -2.06221e-07 4.48729e-27)
(-7.80976e-07 -2.19249e-07 -3.28244e-27)
(-6.81363e-07 -2.31075e-07 -8.84816e-27)
(-5.89677e-07 -2.41473e-07 7.45918e-28)
(-5.058e-07 -2.50087e-07 1.94822e-26)
(-4.29754e-07 -2.56386e-07 -8.33647e-27)
(-3.61752e-07 -2.59634e-07 -1.17662e-26)
(-3.02253e-07 -2.58806e-07 2.6336e-26)
(-2.52112e-07 -2.52556e-07 1.05238e-26)
(-2.12598e-07 -2.38985e-07 -1.63153e-26)
(-1.85723e-07 -2.15852e-07 -1.40296e-26)
(-1.73167e-07 -1.79706e-07 8.41214e-27)
(-1.74294e-07 -1.28438e-07 8.85141e-27)
)


// ************************************************************************* //
