/*--------------------------------*- C++ -*----------------------------------*\
| =========                 |                                                 |
| \\      /  F ield         | OpenFOAM Extend Project: Open source CFD        |
|  \\    /   O peration     | Version:  1.6-ext                               |
|   \\  /    A nd           | Web:      www.extend-project.de                 |
|    \\/     M anipulation  |                                                 |
\*---------------------------------------------------------------------------*/
FoamFile
{
    version     2.0;
    format      ascii;
    class       tetPointVectorField;
    location    "0.3";
    object      motionU;
}
// * * * * * * * * * * * * * * * * * * * * * * * * * * * * * * * * * * * * * //

dimensions      [0 1 -1 0 0 0 0];

internalField   nonuniform List<vector> 
147960
(
(0 0 0)
(-4.2511e-05 -0.000221044 0)
(-0.0040795 0.00112119 -1.06818e-24)
(-0.00394695 6.18597e-05 -4.5874e-24)
(-0.0195516 -0.0163325 -2.45024e-23)
(-0.0196062 -0.0160753 1.45294e-23)
(-0.019563 -0.015736 4.96847e-24)
(-0.019513 -0.0153948 3.27481e-24)
(-0.0194563 -0.0150529 -6.94745e-24)
(-0.0193928 -0.0147108 -6.99671e-25)
(-0.0193225 -0.0143689 1.34152e-23)
(-0.0192452 -0.0140269 -3.48787e-24)
(-0.0191611 -0.0136846 -5.19974e-24)
(-0.0190699 -0.0133414 -1.26643e-24)
(-0.0189717 -0.0129968 4.66078e-24)
(-0.0188663 -0.0126504 3.99e-24)
(-0.0187536 -0.0123016 -6.14276e-24)
(-0.0186336 -0.0119498 9.70348e-24)
(-0.0185061 -0.0115948 9.72151e-24)
(-0.0183709 -0.011236 -7.55598e-24)
(-0.0182281 -0.0108734 9.40597e-25)
(-0.0180774 -0.0105066 2.34116e-24)
(-0.0179188 -0.0101357 2.80693e-24)
(-0.0177522 -0.00976067 1.08352e-24)
(-0.0175774 -0.00938168 -4.2326e-24)
(-0.0173945 -0.008999 -6.53005e-25)
(-0.0172034 -0.00861299 -5.80213e-24)
(-0.017004 -0.0082241 1.39395e-24)
(-0.0167962 -0.0078329 2.29373e-24)
(-0.0165801 -0.00744006 3.74821e-24)
(-0.0163555 -0.00704632 8.4645e-24)
(-0.0161226 -0.0066525 3.45147e-24)
(-0.0158814 -0.0062595 -3.00412e-24)
(-0.0156317 -0.0058683 -3.76353e-24)
(-0.0153737 -0.00547993 3.28161e-24)
(-0.0151073 -0.00509547 3.40868e-25)
(-0.0148326 -0.00471605 -8.79523e-24)
(-0.0145496 -0.00434287 6.62119e-24)
(-0.0142582 -0.00397712 4.92609e-24)
(-0.0139584 -0.00362006 -7.14983e-24)
(-0.0136502 -0.00327296 6.53471e-24)
(-0.0133335 -0.00293711 5.48461e-24)
(-0.0130083 -0.0026138 -6.8112e-24)
(-0.0126743 -0.00230434 -2.69516e-24)
(-0.0123315 -0.00201001 3.03753e-24)
(-0.0119797 -0.00173204 -3.46748e-24)
(-0.0116187 -0.00147163 2.63768e-24)
(-0.0112484 -0.00122986 7.1932e-24)
(-0.0108686 -0.0010077 3.09538e-24)
(-0.0104791 -0.000805929 -3.44319e-24)
(-0.0100801 -0.000625103 -2.60986e-24)
(-0.00967168 -0.000465506 3.36292e-24)
(-0.00925409 -0.000327104 -1.95093e-26)
(-0.00882789 -0.000209514 -2.32662e-24)
(-0.00839386 -0.000111999 7.8921e-25)
(-0.00795303 -3.3489e-05 -7.58453e-25)
(-0.00750668 2.73652e-05 -1.85308e-24)
(-0.00705636 7.21099e-05 2.83718e-25)
(-0.00660375 0.000102382 8.55146e-25)
(-0.00615063 0.000119808 4.21598e-24)
(-0.00569878 0.000125898 1.15822e-25)
(-0.00524983 0.000122001 -7.47572e-24)
(-0.00480521 0.000109241 4.0801e-24)
(-0.00436603 8.86034e-05 5.70981e-24)
(-0.0189763 -0.0164422 -1.47237e-24)
(-0.0193116 -0.016428 -3.73775e-23)
(-0.0183573 -0.0163728 -6.41637e-23)
(-0.018631 -0.0164541 -5.12314e-23)
(-0.00447033 0.0011659 5.5564e-24)
(-0.00487451 0.00120395 5.38503e-24)
(-0.00527792 0.00123122 -2.71654e-24)
(-0.00567934 0.00124526 1.07564e-24)
(-0.00607743 0.00124366 2.36977e-24)
(-0.00647076 0.00122428 -1.25984e-24)
(-0.00685802 0.00118533 -5.02849e-25)
(-0.00723803 0.00112545 -2.04493e-24)
(-0.00760987 0.00104371 -8.49159e-25)
(-0.00797293 0.000939614 1.22236e-24)
(-0.00832686 0.000813054 1.14573e-25)
(-0.00867163 0.00066422 -2.40528e-24)
(-0.00900744 0.000493542 -2.77681e-24)
(-0.00933467 0.000301627 2.42152e-25)
(-0.00965385 8.92044e-05 6.63911e-24)
(-0.00996559 -0.000142909 2.32647e-24)
(-0.0102705 -0.000393836 -9.75515e-24)
(-0.0105692 -0.000662649 -3.25233e-24)
(-0.0108622 -0.000948388 1.05012e-23)
(-0.0111501 -0.00125006 8.09357e-24)
(-0.0114333 -0.00156663 1.6679e-24)
(-0.0117121 -0.00189707 -3.47581e-24)
(-0.0119869 -0.00224029 -1.04808e-23)
(-0.0122577 -0.00259522 1.07836e-24)
(-0.0125248 -0.00296075 6.4562e-24)
(-0.0127881 -0.00333577 -4.6795e-24)
(-0.0130478 -0.00371918 2.095e-24)
(-0.0133037 -0.00410987 4.01531e-25)
(-0.0135558 -0.00450673 -5.22544e-24)
(-0.0138039 -0.0049087 3.01864e-24)
(-0.0140479 -0.00531472 -2.1443e-24)
(-0.0142876 -0.00572378 -1.11013e-24)
(-0.0145228 -0.00613489 1.84899e-24)
(-0.0147532 -0.00654712 9.63527e-24)
(-0.0149785 -0.00695962 8.79875e-24)
(-0.0151986 -0.00737157 -2.85108e-24)
(-0.015413 -0.00778225 -1.14785e-23)
(-0.0156215 -0.00819101 -6.9207e-24)
(-0.0158238 -0.00859728 1.04103e-24)
(-0.0160194 -0.0090006 2.82058e-24)
(-0.0162082 -0.00940059 -2.11773e-24)
(-0.0163898 -0.00979698 -4.61752e-24)
(-0.0165639 -0.0101896 5.40365e-24)
(-0.0167302 -0.0105784 6.5659e-24)
(-0.0168884 -0.0109633 7.10742e-24)
(-0.0170383 -0.0113446 1.08649e-23)
(-0.0171797 -0.0117224 1.0892e-23)
(-0.0173124 -0.012097 -5.44199e-24)
(-0.0174364 -0.0124688 6.86071e-25)
(-0.0175516 -0.0128381 7.09926e-25)
(-0.0176581 -0.0132055 -1.97203e-23)
(-0.017756 -0.0135713 -6.63177e-24)
(-0.0178456 -0.013936 -3.69307e-24)
(-0.0179273 -0.0142999 -2.32127e-24)
(-0.0180015 -0.0146632 -2.04308e-24)
(-0.0180689 -0.015026 -1.46371e-24)
(-0.01813 -0.015388 2.15385e-24)
(-0.0181858 -0.015749 -8.34419e-25)
(-0.0182358 -0.0161079 -7.20775e-24)
(-0.00913226 -0.0134169 0)
(-0.0183119 -0.0161892 0)
(-0.018205 -0.0160647 0)
(-0.0180632 -0.0159276 0)
(-0.0178163 -0.0157804 0)
(-0.0174892 -0.0156219 0)
(-0.017065 -0.0154531 0)
(-0.0165569 -0.0152733 0)
(-0.0159232 -0.0150854 0)
(-0.0152514 -0.0148824 0)
(-0.0144288 -0.0146738 0)
(-0.0135095 -0.0144525 0)
(-0.0126012 -0.0142109 0)
(-0.0114637 -0.0139677 0)
(-0.0102676 -0.013704 0)
(-0.00134625 0.000227079 0)
(-0.00162015 0.000242306 0)
(-0.00189579 0.000250785 0)
(-0.00217131 0.000251646 0)
(-0.00245106 0.000244135 0)
(-0.0027346 0.000227844 0)
(-0.0030177 0.000201622 0)
(-0.00330006 0.000164369 0)
(-0.00358191 0.000115036 0)
(-0.00386267 5.30065e-05 0)
(-0.00414054 -2.20859e-05 0)
(-0.00441361 -0.000110768 0)
(-0.00468093 -0.000213934 0)
(-0.0049425 -0.000332568 0)
(-0.00519847 -0.000467259 0)
(-0.00544836 -0.000618059 0)
(-0.00569131 -0.000784638 0)
(-0.00592693 -0.000966705 0)
(-0.00615474 -0.00116447 0)
(-0.00637505 -0.00137787 0)
(-0.00658791 -0.00160738 0)
(-0.00679465 -0.00185237 0)
(-0.00699805 -0.00211074 0)
(-0.00719826 -0.002382 0)
(-0.00739608 -0.0026655 0)
(-0.00759226 -0.00296059 0)
(-0.00778697 -0.00326654 0)
(-0.00797972 -0.00358263 0)
(-0.00816976 -0.00390813 0)
(-0.00835619 -0.00424228 0)
(-0.00853771 -0.00458415 0)
(-0.00871341 -0.00493263 0)
(-0.00888455 -0.00528651 0)
(-0.00905419 -0.00564489 0)
(-0.00922291 -0.00600713 0)
(-0.00938958 -0.00637206 0)
(-0.00955224 -0.00674009 0)
(-0.0097126 -0.0071108 0)
(-0.00987407 -0.0074817 0)
(-0.0100358 -0.00785211 0)
(-0.0101973 -0.00822132 0)
(-0.0103583 -0.00858847 0)
(-0.0105189 -0.00895241 0)
(-0.0106769 -0.0093114 0)
(-0.0108248 -0.00966336 0)
(-0.0109502 -0.0100067 0)
(-0.0110397 -0.0103409 0)
(-0.0110881 -0.0106668 0)
(-0.0111034 -0.0109844 0)
(-0.0111043 -0.0112917 0)
(-0.0111042 -0.011585 0)
(-0.0110961 -0.0118616 0)
(-0.011058 -0.012121 0)
(-0.0109709 -0.0123633 0)
(-0.0108297 -0.0125879 0)
(-0.0106408 -0.0127927 0)
(-0.0104133 -0.0129743 0)
(-0.0101533 -0.0131295 0)
(-0.00985881 -0.0132558 0)
(-0.0095312 -0.0133509 0)
(-0.00981671 -0.0133715 0)
(-0.0110162 -0.0136716 0)
(-0.0122348 -0.0139505 0)
(-0.0134725 -0.0141997 0)
(-0.0144592 -0.0144439 0)
(-0.0153602 -0.0146753 0)
(-0.0162623 -0.0148833 0)
(-0.016986 -0.0150847 0)
(-0.0176084 -0.0152755 0)
(-0.0181858 -0.0154491 0)
(-0.0186193 -0.0156152 0)
(-0.0189686 -0.0157691 0)
(-0.0192432 -0.0159097 0)
(-0.0194126 -0.0160399 0)
(-0.0195474 -0.0161576 0)
(-0.00142404 -0.000451599 0)
(-0.00390417 5.38862e-05 0)
(-0.0038479 4.04957e-05 0)
(-0.0037808 2.15528e-05 0)
(-0.00369152 -2.76011e-06 0)
(-0.00358721 -3.11419e-05 0)
(-0.00346292 -6.33704e-05 0)
(-0.00331319 -9.93296e-05 0)
(-0.00315051 -0.000138851 0)
(-0.00296328 -0.000181952 0)
(-0.00275688 -0.000227528 0)
(-0.00253904 -0.000274365 0)
(-0.00228758 -0.00032153 0)
(-0.00202521 -0.000367297 0)
(-0.00175077 -0.000410868 0)
(-0.0102526 -0.0133173 0)
(-0.0106327 -0.0132329 0)
(-0.0109714 -0.0131189 0)
(-0.0112698 -0.0129775 0)
(-0.0115313 -0.012811 0)
(-0.0117537 -0.0126222 0)
(-0.0119282 -0.0124141 0)
(-0.0120471 -0.0121891 0)
(-0.0121136 -0.0119479 0)
(-0.0121461 -0.0116905 0)
(-0.0121672 -0.011417 0)
(-0.0121857 -0.01113 0)
(-0.0121894 -0.0108327 0)
(-0.0121602 -0.0105273 0)
(-0.0120894 -0.0102139 0)
(-0.0119813 -0.00989175 0)
(-0.0118485 -0.00956131 0)
(-0.0117035 -0.0092239 0)
(-0.0115538 -0.00888141 0)
(-0.011402 -0.00853548 0)
(-0.0112478 -0.0081873 0)
(-0.0110916 -0.00783777 0)
(-0.0109335 -0.00748763 0)
(-0.0107742 -0.00713764 0)
(-0.0106099 -0.00679011 0)
(-0.0104389 -0.00644547 0)
(-0.0102628 -0.00610345 0)
(-0.0100825 -0.00576527 0)
(-0.00989761 -0.00543166 0)
(-0.00970484 -0.00510356 0)
(-0.00950282 -0.0047821 0)
(-0.00929246 -0.00446834 0)
(-0.00907516 -0.00416324 0)
(-0.00885196 -0.00386764 0)
(-0.00862366 -0.00358231 0)
(-0.00839089 -0.00330803 0)
(-0.00815367 -0.00304549 0)
(-0.00791146 -0.00279528 0)
(-0.00766375 -0.00255786 0)
(-0.00741068 -0.00233343 0)
(-0.00715007 -0.00212348 0)
(-0.00688104 -0.00192823 0)
(-0.00660365 -0.00174714 0)
(-0.00631794 -0.00158031 0)
(-0.0060249 -0.00142752 0)
(-0.0057254 -0.00128861 0)
(-0.00542077 -0.00116332 0)
(-0.0051119 -0.00105122 0)
(-0.00479901 -0.000951776 0)
(-0.0044824 -0.000864312 0)
(-0.00416329 -0.000788051 0)
(-0.00384391 -0.000722152 0)
(-0.00352652 -0.000665727 0)
(-0.00321212 -0.00061782 0)
(-0.00290072 -0.000577456 0)
(-0.00259248 -0.000543725 0)
(-0.00229164 -0.000515471 0)
(-0.00199916 -0.000491566 0)
(-0.00171066 -0.000470833 0)
(-0.00204498 -0.00042388 0)
(-0.00232451 -0.000375453 0)
(-0.00261377 -0.000325019 0)
(-0.00288884 -0.000273922 0)
(-0.0031145 -0.000223952 0)
(-0.00334014 -0.000174919 0)
(-0.0035448 -0.00012804 0)
(-0.00371203 -8.50005e-05 0)
(-0.00387589 -4.51943e-05 0)
(-0.00400657 -9.69576e-06 0)
(-0.00411699 2.14591e-05 0)
(-0.00421114 4.77161e-05 0)
(-0.00428034 6.78026e-05 0)
(-0.00433515 8.14389e-05 0)
(-0.00233931 -0.000439599 0)
(-0.00263816 -0.000386187 0)
(-0.00295826 -0.000331434 0)
(-0.0032439 -0.000277012 0)
(-0.0034844 -0.000223773 0)
(-0.00373105 -0.000171506 0)
(-0.0039419 -0.000121736 0)
(-0.00412154 -7.53831e-05 0)
(-0.00429653 -3.25658e-05 0)
(-0.00443177 5.6577e-06 0)
(-0.00454969 3.91659e-05 0)
(-0.00464649 6.69635e-05 0)
(-0.00471697 8.80468e-05 0)
(-0.00477255 0.000101981 0)
(-0.00264146 -0.00045868 0)
(-0.00296511 -0.000400799 0)
(-0.00331221 -0.000342325 0)
(-0.00360669 -0.000284917 0)
(-0.00386307 -0.000228538 0)
(-0.00412842 -0.000173421 0)
(-0.00434567 -0.000121123 0)
(-0.00453753 -7.19622e-05 0)
(-0.00472208 -2.68017e-05 0)
(-0.00486216 1.37559e-05 0)
(-0.00498665 4.91916e-05 0)
(-0.00508691 7.83829e-05 0)
(-0.00515912 0.000100403 0)
(-0.00521633 0.0001147 0)
(-0.0029531 -0.000482581 0)
(-0.00330169 -0.000420611 0)
(-0.00367329 -0.000359037 0)
(-0.00397585 -0.000298868 0)
(-0.00424836 -0.000239693 0)
(-0.0045325 -0.000182127 0)
(-0.00475531 -0.000127599 0)
(-0.00495666 -7.6107e-05 0)
(-0.00515273 -2.90335e-05 0)
(-0.00529681 1.34356e-05 0)
(-0.00542664 5.04925e-05 0)
(-0.00553135 8.09374e-05 0)
(-0.00560574 0.000103877 0)
(-0.00566472 0.000118551 0)
(-0.00327026 -0.000512461 0)
(-0.00364343 -0.000446818 0)
(-0.00403954 -0.00038272 0)
(-0.00435051 -0.000320082 0)
(-0.00463727 -0.00025837 0)
(-0.00494001 -0.000199009 0)
(-0.00517006 -0.000142485 0)
(-0.00537889 -8.9108e-05 0)
(-0.00558521 -4.05926e-05 0)
(-0.00573539 3.55133e-06 0)
(-0.00586963 4.1939e-05 0)
(-0.00597828 7.34767e-05 0)
(-0.00605538 9.73031e-05 0)
(-0.00611627 0.000112377 0)
(-0.00359052 -0.000549295 0)
(-0.00398757 -0.000480523 0)
(-0.00441 -0.00041454 0)
(-0.00473023 -0.000349764 0)
(-0.00502886 -0.000285967 0)
(-0.00535001 -0.000225341 0)
(-0.00558855 -0.000167173 0)
(-0.00580371 -0.00011226 0)
(-0.00601915 -6.27415e-05 0)
(-0.00617519 -1.7239e-05 0)
(-0.00631466 2.23061e-05 0)
(-0.00642677 5.47558e-05 0)
(-0.0065062 7.93862e-05 0)
(-0.006569 9.48482e-05 0)
(-0.0039136 -0.000594091 0)
(-0.00433282 -0.000522783 0)
(-0.00478314 -0.000455641 0)
(-0.00511443 -0.000389151 0)
(-0.00542232 -0.000323678 0)
(-0.00576032 -0.00026239 0)
(-0.00600936 -0.000202981 0)
(-0.00623071 -0.000146911 0)
(-0.00645354 -9.6785e-05 0)
(-0.0066145 -5.02506e-05 0)
(-0.00675953 -9.70808e-06 0)
(-0.00687554 2.34136e-05 0)
(-0.00695694 4.87217e-05 0)
(-0.00702136 6.44999e-05 0)
(-0.00424007 -0.000647844 0)
(-0.00467851 -0.000574641 0)
(-0.00515631 -0.000507104 0)
(-0.00550053 -0.000439387 0)
(-0.00581779 -0.000372487 0)
(-0.00616971 -0.000311298 0)
(-0.00642937 -0.000251183 0)
(-0.00665867 -0.000194329 0)
(-0.00688837 -0.000144018 0)
(-0.00705418 -9.69285e-05 0)
(-0.00720376 -5.56479e-05 0)
(-0.00732268 -2.20033e-05 0)
(-0.00740594 3.81033e-06 0)
(-0.00747166 1.97648e-05 0)
(-0.00456991 -0.000711536 0)
(-0.00502449 -0.000637003 0)
(-0.00552776 -0.000569898 0)
(-0.00588772 -0.000501722 0)
(-0.00621539 -0.000433807 0)
(-0.00657858 -0.000373118 0)
(-0.00684688 -0.000312859 0)
(-0.00708459 -0.00025572 0)
(-0.00732218 -0.000205615 0)
(-0.00749165 -0.000158242 0)
(-0.00764471 -0.000116746 0)
(-0.00776645 -8.29111e-05 0)
(-0.00785141 -5.68633e-05 0)
(-0.00791822 -4.09427e-05 0)
(-0.0049021 -0.000786098 0)
(-0.00537154 -0.000710757 0)
(-0.00589732 -0.000644787 0)
(-0.00627293 -0.000576648 0)
(-0.0066121 -0.000508497 0)
(-0.0069869 -0.00044882 0)
(-0.00726203 -0.000388983 0)
(-0.00750686 -0.000332146 0)
(-0.00775239 -0.000282749 0)
(-0.00792567 -0.000235516 0)
(-0.00808182 -0.000194267 0)
(-0.00820584 -0.000160658 0)
(-0.00829197 -0.000134733 0)
(-0.00835954 -0.000119123 0)
(-0.00523473 -0.000872462 0)
(-0.00572018 -0.000796847 0)
(-0.00626578 -0.000732644 0)
(-0.00665495 -0.000665188 0)
(-0.00700645 -0.000597509 0)
(-0.00739369 -0.000539431 0)
(-0.00767482 -0.000480544 0)
(-0.00792531 -0.000424578 0)
(-0.00817759 -0.00037644 0)
(-0.00835435 -0.000329861 0)
(-0.00851357 -0.000289363 0)
(-0.00863957 -0.000256452 0)
(-0.00872638 -0.000231067 0)
(-0.00879428 -0.000216095 0)
(-0.00556517 -0.000971543 0)
(-0.00606863 -0.000896235 0)
(-0.00663241 -0.00083431 0)
(-0.00703357 -0.000767956 0)
(-0.00739636 -0.00070168 0)
(-0.00779649 -0.000645852 0)
(-0.00808385 -0.000588453 0)
(-0.00833935 -0.000533875 0)
(-0.00859731 -0.000487534 0)
(-0.0087768 -0.000442177 0)
(-0.00893879 -0.000402995 0)
(-0.00906646 -0.000371295 0)
(-0.0091535 -0.000346897 0)
(-0.00922137 -0.000332915 0)
(-0.00589097 -0.00108406 0)
(-0.00641385 -0.00100976 0)
(-0.00699747 -0.000950943 0)
(-0.0074096 -0.000886216 0)
(-0.00778125 -0.000821702 0)
(-0.00819341 -0.000768724 0)
(-0.0084871 -0.0007134 0)
(-0.00874757 -0.000660756 0)
(-0.00901085 -0.000616754 0)
(-0.00919268 -0.000573198 0)
(-0.00935699 -0.000535912 0)
(-0.00948581 -0.000505944 0)
(-0.00957255 -0.000482979 0)
(-0.00964003 -0.000470333 0)
(-0.00621102 -0.0012105 0)
(-0.00675353 -0.00113788 0)
(-0.00735858 -0.00108248 0)
(-0.00778113 -0.0010202 0)
(-0.00816124 -0.000958053 0)
(-0.00858443 -0.000908522 0)
(-0.00888385 -0.000855886 0)
(-0.00914893 -0.000805758 0)
(-0.0094173 -0.000764641 0)
(-0.00960127 -0.000723452 0)
(-0.00976752 -0.000688612 0)
(-0.00989697 -0.000660874 0)
(-0.00998296 -0.000639764 0)
(-0.0100497 -0.000628762 0)
(-0.00652494 -0.00135125 0)
(-0.00708571 -0.00128095 0)
(-0.00771405 -0.0012294 0)
(-0.00814711 -0.00117045 0)
(-0.00853578 -0.00111123 0)
(-0.00896975 -0.00106567 0)
(-0.00927416 -0.00101627 0)
(-0.00954308 -0.000969202 0)
(-0.00981609 -0.000931492 0)
(-0.0100019 -0.000893201 0)
(-0.0101697 -0.000861312 0)
(-0.0102993 -0.00083625 0)
(-0.0103842 -0.000817373 0)
(-0.0104501 -0.000808277 0)
(-0.00683227 -0.00150662 0)
(-0.00741126 -0.00143976 0)
(-0.00806241 -0.00139268 0)
(-0.00850572 -0.0013373 0)
(-0.00890362 -0.00128157 0)
(-0.00934842 -0.00124043 0)
(-0.00965728 -0.00119472 0)
(-0.00992955 -0.0011512 0)
(-0.0102068 -0.00111734 0)
(-0.0103941 -0.00108241 0)
(-0.010563 -0.00105394 0)
(-0.0106924 -0.00103195 0)
(-0.010776 -0.00101561 0)
(-0.0108409 -0.00100864 0)
(-0.00713254 -0.0016766 0)
(-0.00773025 -0.00161348 0)
(-0.00840211 -0.00157177 0)
(-0.00885629 -0.00152072 0)
(-0.0092637 -0.00146907 0)
(-0.00971909 -0.00143278 0)
(-0.0100322 -0.00139122 0)
(-0.0103078 -0.00135172 0)
(-0.0105887 -0.00132194 0)
(-0.0107776 -0.00129068 0)
(-0.0109472 -0.00126622 0)
(-0.011076 -0.00124758 0)
(-0.0111583 -0.00123404 0)
(-0.0112222 -0.00122933 0)
(-0.00742477 -0.00186134 0)
(-0.00804309 -0.00180234 0)
(-0.00873438 -0.00176679 0)
(-0.00919888 -0.00172062 0)
(-0.00961547 -0.00167353 0)
(-0.0100812 -0.0016425 0)
(-0.0103989 -0.00160555 0)
(-0.0106783 -0.00157061 0)
(-0.0109636 -0.00154587 0)
(-0.0111533 -0.00151843 0)
(-0.0113224 -0.0014977 0)
(-0.0114503 -0.00148257 0)
(-0.0115311 -0.00147197 0)
(-0.0115939 -0.00146961 0)
(-0.00770985 -0.00206169 0)
(-0.0083488 -0.00200734 0)
(-0.00905872 -0.00197778 0)
(-0.0095332 -0.00193678 0)
(-0.00995868 -0.00189466 0)
(-0.010435 -0.00186923 0)
(-0.0107575 -0.00183731 0)
(-0.0110407 -0.00180723 0)
(-0.0113299 -0.0017874 0)
(-0.0115196 -0.00176425 0)
(-0.0116884 -0.00174758 0)
(-0.0118155 -0.00173611 0)
(-0.0118947 -0.00172856 0)
(-0.0119564 -0.00172857 0)
(-0.0079873 -0.00227618 0)
(-0.00864483 -0.00222751 0)
(-0.0093744 -0.00220437 0)
(-0.00985881 -0.00216886 0)
(-0.0102931 -0.00213205 0)
(-0.0107801 -0.0021125 0)
(-0.0111076 -0.00208585 0)
(-0.0113944 -0.00206082 0)
(-0.0116869 -0.00204601 0)
(-0.0118765 -0.00202739 0)
(-0.0120451 -0.00201497 0)
(-0.0121714 -0.00200726 0)
(-0.0122492 -0.00200279 0)
(-0.0123096 -0.00200513 0)
(-0.00825718 -0.00250565 0)
(-0.00893257 -0.00246261 0)
(-0.00968157 -0.00244609 0)
(-0.0101756 -0.00241634 0)
(-0.0106187 -0.00238515 0)
(-0.0111165 -0.00237164 0)
(-0.0114488 -0.00235041 0)
(-0.0117389 -0.00233056 0)
(-0.0120345 -0.00232087 0)
(-0.0122238 -0.00230694 0)
(-0.0123924 -0.00229886 0)
(-0.012518 -0.00229495 0)
(-0.0125944 -0.00229353 0)
(-0.0126538 -0.00229814 0)
(-0.00851936 -0.00274893 0)
(-0.00921269 -0.00271206 0)
(-0.00998041 -0.00270232 0)
(-0.0104837 -0.00267859 0)
(-0.0109357 -0.00265325 0)
(-0.0114442 -0.00264583 0)
(-0.0117812 -0.00263014 0)
(-0.0120742 -0.00261557 0)
(-0.0123727 -0.00261104 0)
(-0.0125619 -0.00260188 0)
(-0.0127305 -0.00259817 0)
(-0.0128555 -0.00259799 0)
(-0.0129306 -0.00259957 0)
(-0.0129891 -0.00260636 0)
(-0.00877502 -0.00300552 0)
(-0.00948545 -0.0029752 0)
(-0.0102713 -0.00297237 0)
(-0.0107838 -0.00295487 0)
(-0.0112447 -0.00293555 0)
(-0.0117636 -0.00293423 0)
(-0.0121048 -0.00292411 0)
(-0.0124006 -0.00291483 0)
(-0.0127019 -0.00291547 0)
(-0.012891 -0.00291113 0)
(-0.0130597 -0.00291174 0)
(-0.0131842 -0.00291521 0)
(-0.013258 -0.00291967 0)
(-0.0133156 -0.00292852 0)
(-0.0090247 -0.0032748 0)
(-0.00975147 -0.00325133 0)
(-0.010555 -0.0032555 0)
(-0.0110764 -0.00324437 0)
(-0.0115458 -0.00323119 0)
(-0.0120745 -0.00323594 0)
(-0.0124195 -0.00323141 0)
(-0.0127173 -0.00322717 0)
(-0.0130225 -0.00323294 0)
(-0.0132115 -0.00323363 0)
(-0.0133802 -0.00323841 0)
(-0.0135042 -0.00324536 0)
(-0.0135767 -0.00325256 0)
(-0.0136334 -0.00326333 0)
(-0.00926907 -0.00355611 0)
(-0.0100114 -0.00353969 0)
(-0.0108317 -0.00355086 0)
(-0.0113613 -0.00354618 0)
(-0.0118383 -0.00353921 0)
(-0.0123762 -0.00354999 0)
(-0.012725 -0.0035512 0)
(-0.013026 -0.00355284 0)
(-0.0133348 -0.00356338 0)
(-0.0135232 -0.00356823 0)
(-0.0136919 -0.00357693 0)
(-0.0138156 -0.00358717 0)
(-0.0138869 -0.00359695 0)
(-0.0139428 -0.00360949 0)
(-0.00950833 -0.00384866 0)
(-0.0102653 -0.00383943 0)
(-0.0111013 -0.00385752 0)
(-0.0116379 -0.00385932 0)
(-0.012122 -0.00385859 0)
(-0.012669 -0.0038753 0)
(-0.0130218 -0.00388216 0)
(-0.0133261 -0.00388915 0)
(-0.013638 -0.00390447 0)
(-0.0138262 -0.00391358 0)
(-0.0139949 -0.00392602 0)
(-0.0141182 -0.00393937 0)
(-0.0141885 -0.00395157 0)
(-0.0142437 -0.00396571 0)
(-0.00974215 -0.00415165 0)
(-0.0105131 -0.00414967 0)
(-0.0113638 -0.00417456 0)
(-0.0119069 -0.00418283 0)
(-0.0123977 -0.00418834 0)
(-0.0129536 -0.00421078 0)
(-0.0133102 -0.00422303 0)
(-0.0136177 -0.00423513 0)
(-0.0139327 -0.00425516 0)
(-0.014121 -0.00426846 0)
(-0.0142896 -0.00428444 0)
(-0.0144124 -0.00430069 0)
(-0.0144817 -0.00431513 0)
(-0.0145362 -0.00433073 0)
(-0.00997013 -0.00446429 0)
(-0.0107548 -0.0044696 0)
(-0.0116197 -0.0045011 0)
(-0.0121688 -0.00451578 0)
(-0.0126658 -0.00452745 0)
(-0.0132298 -0.00455535 0)
(-0.0135894 -0.00457246 0)
(-0.013901 -0.00458954 0)
(-0.014219 -0.00461436 0)
(-0.0144075 -0.00463165 0)
(-0.0145759 -0.00465095 0)
(-0.014698 -0.00466988 0)
(-0.0147665 -0.00468639 0)
(-0.0148202 -0.00470328 0)
(-0.0101916 -0.00478577 0)
(-0.0109901 -0.00479839 0)
(-0.011869 -0.00483626 0)
(-0.0124236 -0.0048572 0)
(-0.0129263 -0.00487491 0)
(-0.0134981 -0.00490816 0)
(-0.0138613 -0.0049309 0)
(-0.0141764 -0.00495254 0)
(-0.0144968 -0.00498102 0)
(-0.0146854 -0.00500198 0)
(-0.0148538 -0.00502435 0)
(-0.0149754 -0.00504574 0)
(-0.0150428 -0.00506413 0)
(-0.0150959 -0.00508215 0)
(-0.0104051 -0.00511515 0)
(-0.0112179 -0.00513506 0)
(-0.0121109 -0.00517904 0)
(-0.0126709 -0.00520606 0)
(-0.0131793 -0.00522961 0)
(-0.0137589 -0.00526786 0)
(-0.0141256 -0.00529554 0)
(-0.0144434 -0.00532173 0)
(-0.0147662 -0.00535388 0)
(-0.0149547 -0.00537826 0)
(-0.0151232 -0.00540347 0)
(-0.0152443 -0.0054271 0)
(-0.0153107 -0.00544716 0)
(-0.0153632 -0.00546617 0)
(-0.0106093 -0.00545128 0)
(-0.0114369 -0.00547849 0)
(-0.0123443 -0.00552835 0)
(-0.0129103 -0.00556129 0)
(-0.0134244 -0.00559047 0)
(-0.014011 -0.005633 0)
(-0.0143819 -0.00566541 0)
(-0.0147023 -0.00569628 0)
(-0.0150273 -0.00573186 0)
(-0.0152157 -0.00575939 0)
(-0.0153842 -0.00578718 0)
(-0.0155048 -0.00581281 0)
(-0.0155702 -0.00583436 0)
(-0.0156221 -0.0058542 0)
(-0.010805 -0.00579299 0)
(-0.0116472 -0.0058275 0)
(-0.0125693 -0.00588307 0)
(-0.0131416 -0.00592182 0)
(-0.0136617 -0.00595657 0)
(-0.0142559 -0.00600408 0)
(-0.0146307 -0.00604087 0)
(-0.0149528 -0.00607529 0)
(-0.0152801 -0.00611388 0)
(-0.0154684 -0.00614429 0)
(-0.015637 -0.00617439 0)
(-0.015757 -0.00620178 0)
(-0.0158213 -0.00622464 0)
(-0.0158727 -0.00624514 0)
(-0.0109945 -0.0061393 0)
(-0.0118503 -0.0061811 0)
(-0.0127866 -0.00624217 0)
(-0.013365 -0.00628654 0)
(-0.0138907 -0.00632638 0)
(-0.0144944 -0.00637838 0)
(-0.0148713 -0.00641967 0)
(-0.0151949 -0.00645764 0)
(-0.0155244 -0.00649891 0)
(-0.0157128 -0.00653193 0)
(-0.0158815 -0.00656405 0)
(-0.0160009 -0.00659297 0)
(-0.0160641 -0.00661695 0)
(-0.0161149 -0.00663797 0)
(-0.0111794 -0.00648942 0)
(-0.0120476 -0.00653841 0)
(-0.0129968 -0.00660471 0)
(-0.0135805 -0.00665442 0)
(-0.0141138 -0.00670033 0)
(-0.0147256 -0.00675658 0)
(-0.0151036 -0.0068012 0)
(-0.0154287 -0.00684237 0)
(-0.0157603 -0.00688599 0)
(-0.0159487 -0.0069213 0)
(-0.0161173 -0.00695518 0)
(-0.0162363 -0.0069854 0)
(-0.0162986 -0.00701032 0)
(-0.0163487 -0.00703171 0)
(-0.0113589 -0.00684249 0)
(-0.0122392 -0.00689861 0)
(-0.0132 -0.0069698 0)
(-0.0137907 -0.00702588 0)
(-0.014331 -0.00707738 0)
(-0.0149483 -0.0071366 0)
(-0.0153276 -0.00718447 0)
(-0.0156541 -0.00722855 0)
(-0.0159876 -0.00727419 0)
(-0.0161757 -0.00731152 0)
(-0.0163445 -0.00734688 0)
(-0.0164632 -0.00737816 0)
(-0.0165246 -0.00740383 0)
(-0.016574 -0.00742545 0)
(-0.0115326 -0.00719746 0)
(-0.012426 -0.00726078 0)
(-0.0134001 -0.007338 0)
(-0.0139964 -0.00739983 0)
(-0.0145406 -0.0074556 0)
(-0.0151632 -0.00751767 0)
(-0.0155438 -0.00756859 0)
(-0.0158714 -0.00761531 0)
(-0.0162063 -0.00766268 0)
(-0.0163942 -0.00770175 0)
(-0.0165632 -0.00773833 0)
(-0.0166816 -0.00777043 0)
(-0.0167422 -0.00779665 0)
(-0.016791 -0.00781836 0)
(-0.0117022 -0.00755634 0)
(-0.0126087 -0.00762676 0)
(-0.0135961 -0.00770813 0)
(-0.0141954 -0.00777427 0)
(-0.0147432 -0.00783425 0)
(-0.0153707 -0.00789893 0)
(-0.0157523 -0.00795269 0)
(-0.0160807 -0.00800183 0)
(-0.0164169 -0.00805065 0)
(-0.0166044 -0.00809123 0)
(-0.0167734 -0.00812877 0)
(-0.0168914 -0.00816145 0)
(-0.0169512 -0.00818804 0)
(-0.0169995 -0.00820971 0)
(-0.0118684 -0.007915 0)
(-0.0127864 -0.00799229 0)
(-0.0137848 -0.00807774 0)
(-0.0143874 -0.00814837 0)
(-0.0149386 -0.00821245 0)
(-0.0155709 -0.00827955 0)
(-0.0159533 -0.00833594 0)
(-0.0162823 -0.0083873 0)
(-0.0166194 -0.00843734 0)
(-0.0168062 -0.00847921 0)
(-0.0169749 -0.00851749 0)
(-0.0170925 -0.00855055 0)
(-0.0171517 -0.00857734 0)
(-0.0171997 -0.00859882 0)
(-0.0120319 -0.00827293 0)
(-0.0129601 -0.00835694 0)
(-0.013968 -0.0084463 0)
(-0.0145732 -0.00852134 0)
(-0.0151275 -0.00858938 0)
(-0.015764 -0.00865867 0)
(-0.0161466 -0.00871753 0)
(-0.0164757 -0.00877094 0)
(-0.0168134 -0.00882203 0)
(-0.0169994 -0.00886503 0)
(-0.0171679 -0.00890388 0)
(-0.0172853 -0.00893714 0)
(-0.0173439 -0.00896398 0)
(-0.0173915 -0.00898514 0)
(-0.0121926 -0.0086294 0)
(-0.01313 -0.00871993 0)
(-0.0141461 -0.00881297 0)
(-0.0147529 -0.00889224 0)
(-0.0153092 -0.00896411 0)
(-0.0159487 -0.00903543 0)
(-0.0163308 -0.00909667 0)
(-0.0166597 -0.00915207 0)
(-0.0169981 -0.00920412 0)
(-0.0171837 -0.00924817 0)
(-0.0173524 -0.00928745 0)
(-0.0174697 -0.00932076 0)
(-0.0175278 -0.00934748 0)
(-0.0175751 -0.00936819 0)
(-0.0123495 -0.00898339 0)
(-0.0132943 -0.00908019 0)
(-0.0143169 -0.00917663 0)
(-0.0149236 -0.00926002 0)
(-0.0154805 -0.00933568 0)
(-0.0161222 -0.00940906 0)
(-0.0165038 -0.00947279 0)
(-0.0168333 -0.00953024 0)
(-0.0171733 -0.00958324 0)
(-0.0173594 -0.00962825 0)
(-0.0175287 -0.00966782 0)
(-0.017646 -0.00970101 0)
(-0.0177036 -0.00972746 0)
(-0.0177505 -0.00974761 0)
(-0.0125015 -0.00933364 0)
(-0.0134508 -0.00943643 0)
(-0.0144768 -0.00953614 0)
(-0.0150814 -0.00962377 0)
(-0.0156382 -0.00970348 0)
(-0.0162824 -0.00977921 0)
(-0.0166649 -0.00984562 0)
(-0.0169967 -0.00990519 0)
(-0.0173396 -0.00995908 0)
(-0.0175267 -0.0100049 0)
(-0.0176969 -0.0100447 0)
(-0.0178143 -0.0100776 0)
(-0.0178713 -0.0101036 0)
(-0.0179178 -0.0101231 0)
(-0.0126449 -0.00967857 0)
(-0.0135946 -0.00978735 0)
(-0.0146209 -0.00989063 0)
(-0.0152224 -0.00998305 0)
(-0.0157801 -0.0100674 0)
(-0.0164293 -0.0101457 0)
(-0.0168154 -0.0102149 0)
(-0.0171514 -0.0102766 0)
(-0.0174979 -0.0103313 0)
(-0.0176864 -0.0103779 0)
(-0.0178573 -0.0104177 0)
(-0.0179745 -0.0104503 0)
(-0.018031 -0.0104759 0)
(-0.018077 -0.0104946 0)
(-0.0127712 -0.0100167 0)
(-0.0137175 -0.0101321 0)
(-0.0147433 -0.0102398 0)
(-0.0153443 -0.0103378 0)
(-0.0159074 -0.0104271 0)
(-0.0165657 -0.0105082 0)
(-0.016958 -0.0105802 0)
(-0.0172986 -0.0106439 0)
(-0.0176485 -0.0106994 0)
(-0.0178378 -0.0107469 0)
(-0.0180092 -0.0107868 0)
(-0.0181265 -0.0108191 0)
(-0.0181825 -0.0108441 0)
(-0.0182283 -0.010862 0)
(-0.0128685 -0.0103474 0)
(-0.0138118 -0.0104707 0)
(-0.0148423 -0.0105838 0)
(-0.0154505 -0.0106878 0)
(-0.0160253 -0.010782 0)
(-0.0166951 -0.0108657 0)
(-0.0170927 -0.0109406 0)
(-0.0174365 -0.0110068 0)
(-0.0177889 -0.0110635 0)
(-0.0179794 -0.011112 0)
(-0.0181522 -0.0111521 0)
(-0.0182701 -0.0111839 0)
(-0.0183261 -0.0112083 0)
(-0.0183717 -0.0112253 0)
(-0.0129302 -0.010671 0)
(-0.0138787 -0.0108033 0)
(-0.0149252 -0.0109221 0)
(-0.0155488 -0.0110317 0)
(-0.0161364 -0.0111308 0)
(-0.0168141 -0.0112177 0)
(-0.017214 -0.0112963 0)
(-0.0175611 -0.0113655 0)
(-0.017918 -0.0114236 0)
(-0.0181117 -0.0114733 0)
(-0.0182869 -0.0115135 0)
(-0.0184059 -0.011545 0)
(-0.0184619 -0.0115687 0)
(-0.0185074 -0.0115847 0)
(-0.0129611 -0.0109876 0)
(-0.0139302 -0.0111289 0)
(-0.0150021 -0.0112526 0)
(-0.0156392 -0.0113679 0)
(-0.0162321 -0.0114731 0)
(-0.0169139 -0.0115645 0)
(-0.0173192 -0.0116475 0)
(-0.0176748 -0.0117198 0)
(-0.0180392 -0.0117794 0)
(-0.0182366 -0.0118304 0)
(-0.0184139 -0.0118711 0)
(-0.0185339 -0.0119023 0)
(-0.01859 -0.0119255 0)
(-0.0186354 -0.0119405 0)
(-0.0129769 -0.0112959 0)
(-0.0139775 -0.011445 0)
(-0.0150691 -0.0115737 0)
(-0.0157076 -0.0116966 0)
(-0.0163027 -0.0118096 0)
(-0.0169969 -0.0119058 0)
(-0.0174168 -0.011993 0)
(-0.0177828 -0.0120687 0)
(-0.0181525 -0.0121305 0)
(-0.018352 -0.0121836 0)
(-0.0185317 -0.0122251 0)
(-0.0186535 -0.0122563 0)
(-0.0187103 -0.012279 0)
(-0.0187559 -0.012293 0)
(-0.0129899 -0.0115927 0)
(-0.0140134 -0.0117497 0)
(-0.0151074 -0.0118859 0)
(-0.015745 -0.0120184 0)
(-0.0163574 -0.0121391 0)
(-0.0170764 -0.0122396 0)
(-0.0175084 -0.0123316 0)
(-0.0178781 -0.012412 0)
(-0.0182511 -0.0124774 0)
(-0.0184557 -0.0125331 0)
(-0.018641 -0.0125758 0)
(-0.0187656 -0.0126072 0)
(-0.0188232 -0.0126295 0)
(-0.0188689 -0.0126427 0)
(-0.0129918 -0.011876 0)
(-0.0140163 -0.0120435 0)
(-0.0151087 -0.0121895 0)
(-0.0157661 -0.0123312 0)
(-0.0164108 -0.0124587 0)
(-0.0171461 -0.0125645 0)
(-0.0175792 -0.0126634 0)
(-0.017953 -0.0127505 0)
(-0.0183378 -0.0128198 0)
(-0.0185543 -0.0128782 0)
(-0.0187445 -0.0129227 0)
(-0.0188702 -0.0129551 0)
(-0.0189286 -0.0129775 0)
(-0.0189748 -0.0129898 0)
(-0.0129603 -0.0121457 0)
(-0.0139761 -0.0123267 0)
(-0.015089 -0.0124822 0)
(-0.0157852 -0.0126318 0)
(-0.0164503 -0.0127669 0)
(-0.0171875 -0.0128806 0)
(-0.0176253 -0.0129889 0)
(-0.0180181 -0.0130825 0)
(-0.0184246 -0.0131554 0)
(-0.0186463 -0.0132183 0)
(-0.018836 -0.0132664 0)
(-0.018965 -0.0133006 0)
(-0.0190264 -0.0133233 0)
(-0.0190733 -0.0133351 0)
(-0.0128802 -0.0124019 0)
(-0.0139047 -0.012597 0)
(-0.0150635 -0.0127605 0)
(-0.0157898 -0.0129179 0)
(-0.0164575 -0.0130635 0)
(-0.0171989 -0.0131881 0)
(-0.0176603 -0.0133052 0)
(-0.0180863 -0.0134043 0)
(-0.0184993 -0.013484 0)
(-0.0187154 -0.0135544 0)
(-0.0189147 -0.013607 0)
(-0.0190537 -0.0136434 0)
(-0.0191178 -0.0136673 0)
(-0.0191646 -0.0136789 0)
(-0.0127548 -0.0126434 0)
(-0.0138182 -0.0128513 0)
(-0.0150264 -0.0130211 0)
(-0.0157622 -0.0131886 0)
(-0.016425 -0.0133486 0)
(-0.017191 -0.0134835 0)
(-0.0177002 -0.013607 0)
(-0.018137 -0.0137159 0)
(-0.0185377 -0.0138066 0)