/*--------------------------------*- C++ -*----------------------------------*\
| =========                 |                                                 |
| \\      /  F ield         | OpenFOAM Extend Project: Open source CFD        |
|  \\    /   O peration     | Version:  1.6-ext                               |
|   \\  /    A nd           | Web:      www.extend-project.de                 |
|    \\/     M anipulation  |                                                 |
\*---------------------------------------------------------------------------*/
FoamFile
{
    version     2.0;
    format      ascii;
    class       volScalarField;
    location    "0.3";
    object      p;
}
// * * * * * * * * * * * * * * * * * * * * * * * * * * * * * * * * * * * * * //

dimensions      [0 2 -2 0 0 0 0];

internalField   nonuniform List<scalar> 
20940
(
0.0572173
0.0125699
-0.0342953
-0.0836548
-0.134947
-0.18825
-0.243066
-0.298926
-0.354973
-0.41008
-0.462848
-0.511808
-0.555676
-0.593617
-0.625398
-0.651386
-0.672388
-0.68944
-0.703521
-0.71547
-0.726881
-0.738983
0.0286575
-0.0148981
-0.0608358
-0.108639
-0.158083
-0.209016
-0.260918
-0.313188
-0.364882
-0.414845
-0.461789
-0.504513
-0.542142
-0.57429
-0.601109
-0.623185
-0.641361
-0.656551
-0.669522
-0.68087
-0.691926
-0.703714
0.0037742
-0.0384611
-0.0831683
-0.129148
-0.176462
-0.224726
-0.273396
-0.32175
-0.368802
-0.413446
-0.454584
-0.491348
-0.523269
-0.550344
-0.572991
-0.591894
-0.607838
-0.621569
-0.63364
-0.644433
-0.655035
-0.666286
-0.0197672
-0.0604627
-0.103656
-0.147521
-0.192383
-0.237623
-0.28268
-0.326742
-0.368848
-0.408021
-0.443433
-0.474576
-0.50135
-0.524041
-0.54321
-0.559536
-0.573685
-0.586217
-0.597496
-0.607729
-0.617802
-0.628421
-0.0417451
-0.0807681
-0.122251
-0.163798
-0.205965
-0.247907
-0.289068
-0.328594
-0.365626
-0.399397
-0.429392
-0.455449
-0.477762
-0.496793
-0.513139
-0.527401
-0.540092
-0.551603
-0.562139
-0.571777
-0.581245
-0.591153
-0.0624676
-0.099709
-0.139303
-0.178318
-0.217536
-0.255904
-0.292923
-0.327768
-0.359764
-0.388406
-0.413494
-0.43515
-0.453756
-0.469837
-0.483943
-0.496555
-0.508037
-0.518633
-0.528435
-0.537429
-0.546217
-0.55534
-0.082341
-0.117646
-0.155147
-0.191393
-0.2274
-0.261945
-0.294654
-0.324808
-0.351981
-0.375945
-0.396772
-0.41477
-0.430399
-0.444158
-0.456497
-0.467767
-0.478203
-0.487938
-0.496986
-0.505282
-0.513326
-0.52161
-0.101708
-0.135002
-0.170247
-0.203461
-0.235967
-0.266434
-0.29472
-0.320282
-0.34298
-0.362833
-0.380097
-0.395162
-0.408467
-0.420423
-0.43136
-0.441508
-0.450999
-0.459895
-0.468164
-0.475714
-0.482966
-0.490374
-0.121003
-0.152028
-0.184738
-0.214594
-0.243315
-0.269522
-0.293393
-0.314609
-0.333307
-0.349683
-0.364081
-0.37687
-0.388404
-0.398972
-0.408784
-0.41797
-0.426592
-0.434663
-0.442135
-0.448908
-0.455336
-0.461846
-0.140685
-0.169356
-0.199325
-0.225432
-0.250013
-0.27174
-0.291217
-0.308358
-0.323531
-0.337017
-0.349146
-0.360196
-0.370391
-0.379888
-0.388789
-0.397143
-0.404962
-0.412237
-0.418914
-0.424902
-0.430494
-0.436094
-0.161046
-0.18689
-0.213721
-0.235728
-0.255953
-0.273165
-0.288426
-0.301857
-0.313988
-0.3251
-0.335448
-0.345175
-0.354361
-0.363037
-0.371208
-0.378858
-0.385963
-0.392498
-0.398416
-0.403639
-0.408407
-0.413095
-0.182904
-0.20591
-0.229378
-0.246797
-0.262271
-0.27479
-0.285889
-0.295846
-0.305261
-0.314346
-0.323228
-0.331898
-0.340292
-0.348325
-0.355909
-0.362974
-0.369463
-0.375339
-0.38056
-0.385067
-0.389045
-0.392835
-0.205343
-0.225082
-0.244787
-0.257706
-0.268519
-0.276607
-0.283825
-0.290615
-0.297592
-0.304888
-0.312498
-0.320272
-0.328015
-0.335531
-0.342654
-0.349255
-0.355245
-0.360571
-0.365195
-0.36907
-0.372332
-0.375274
-0.231127
-0.247959
-0.263345
-0.271241
-0.276912
-0.280429
-0.283776
-0.287519
-0.292182
-0.297788
-0.304185
-0.311088
-0.318185
-0.325188
-0.331857
-0.338014
-0.343537
-0.348358
-0.352437
-0.355742
-0.358364
-0.360546
-0.252983
-0.269091
-0.280299
-0.284635
-0.285939
-0.285594
-0.285428
-0.286274
-0.288602
-0.292408
-0.297453
-0.303369
-0.309753
-0.316235
-0.322503
-0.32832
-0.333521
-0.338006
-0.341724
-0.344641
-0.346809
-0.34841
-0.286439
-0.300384
-0.303536
-0.302733
-0.298778
-0.29429
-0.290784
-0.289048
-0.28937
-0.291596
-0.295366
-0.300219
-0.305694
-0.311378
-0.31693
-0.322096
-0.326698
-0.330629
-0.333836
-0.336295
-0.338035
-0.339185
-0.325526
-0.330552
-0.323179
-0.315957
-0.306976
-0.299827
-0.294755
-0.292206
-0.291963
-0.293645
-0.296762
-0.300827
-0.305399
-0.31011
-0.314672
-0.318874
-0.322575
-0.325696
-0.328203
-0.330091
-0.331397
-0.332222
-0.353725
-0.352058
-0.338478
-0.328043
-0.316383
-0.307834
-0.301571
-0.298064
-0.296832
-0.297477
-0.299495
-0.302431
-0.305882
-0.309517
-0.31308
-0.316385
-0.319306
-0.321773
-0.323758
-0.325259
-0.326317
-0.327023
-0.378011
-0.370555
-0.352906
-0.340117
-0.326681
-0.317043
-0.309766
-0.305313
-0.30306
-0.30261
-0.303473
-0.305231
-0.307522
-0.310055
-0.312606
-0.315013
-0.317165
-0.319002
-0.320496
-0.321648
-0.322504
-0.323156
-0.398504
-0.386524
-0.366904
-0.352359
-0.337821
-0.327148
-0.31886
-0.31333
-0.309929
-0.308277
-0.307918
-0.308472
-0.309613
-0.311081
-0.312674
-0.314243
-0.315686
-0.316942
-0.317985
-0.318808
-0.319462
-0.320033
-0.415353
-0.400032
-0.379674
-0.363655
-0.34836
-0.336678
-0.327448
-0.320874
-0.316392
-0.313627
-0.312158
-0.311632
-0.311751
-0.312276
-0.31302
-0.313842
-0.314643
-0.315361
-0.315964
-0.316441
-0.316832
-0.317208
-0.426942
-0.409575
-0.38935
-0.372363
-0.356718
-0.344316
-0.334413
-0.32704
-0.32172
-0.318079
-0.315729
-0.314341
-0.313637
-0.313395
-0.313437
-0.313628
-0.313868
-0.314091
-0.31426
-0.31436
-0.314401
-0.31443
-0.431286
-0.413388
-0.394173
-0.377082
-0.3617
-0.349154
-0.33906
-0.331328
-0.325558
-0.321389
-0.318468
-0.31649
-0.3152
-0.314388
-0.313889
-0.313572
-0.313337
-0.313114
-0.31286
-0.312556
-0.31217
-0.31171
-0.427131
-0.410446
-0.393288
-0.377259
-0.362964
-0.351052
-0.341386
-0.333829
-0.328052
-0.323731
-0.320555
-0.318253
-0.316597
-0.315399
-0.314505
-0.313793
-0.313167
-0.312553
-0.311905
-0.3112
-0.310351
-0.309322
-0.41501
-0.401239
-0.387182
-0.373419
-0.361082
-0.350593
-0.341972
-0.335095
-0.329714
-0.325566
-0.322395
-0.31998
-0.31813
-0.316684
-0.315509
-0.314497
-0.313558
-0.312618
-0.311632
-0.310571
-0.309294
-0.307718
-0.397262
-0.387924
-0.377871
-0.367364
-0.357682
-0.349199
-0.342047
-0.336172
-0.331423
-0.327621
-0.324589
-0.322163
-0.320199
-0.318575
-0.317183
-0.315931
-0.314742
-0.313549
-0.312307
-0.310986
-0.3094
-0.307422
-0.377527
-0.373415
-0.367751
-0.360957
-0.354229
-0.347986
-0.342453
-0.33768
-0.333628
-0.330218
-0.327354
-0.324942
-0.322889
-0.321112
-0.319534
-0.318086
-0.316707
-0.315343
-0.313957
-0.312521
-0.310831
-0.308726
-0.36129
-0.362629
-0.361243
-0.357963
-0.353865
-0.349499
-0.345221
-0.341219
-0.337577
-0.334321
-0.331438
-0.328895
-0.326644
-0.324635
-0.322817
-0.321147
-0.319582
-0.318088
-0.316641
-0.315226
-0.313665
-0.311796
-0.349941
-0.355472
-0.357235
-0.356556
-0.354375
-0.351359
-0.347965
-0.344491
-0.341118
-0.337949
-0.335029
-0.332366
-0.329947
-0.327745
-0.325733
-0.323887
-0.322191
-0.320637
-0.31923
-0.317982
-0.316798
-0.315546
-0.352468
-0.361283
-0.365011
-0.365487
-0.363769
-0.360747
-0.357052
-0.35311
-0.349198
-0.345476
-0.342023
-0.338861
-0.335974
-0.333327
-0.33088
-0.328601
-0.326478
-0.324523
-0.322785
-0.321347
-0.32031
-0.319728
1.43296
1.48381
1.53461
1.58526
1.63534
1.68443
1.73215
1.77808
1.82184
1.86305
1.90134
1.93637
1.96786
1.99556
2.01934
2.03928
2.0557
2.06931
2.08108
2.09224
2.10567
2.12327
1.42457
1.47511
1.52526
1.57527
1.62466
1.67303
1.71998
1.76513
1.80808
1.84845
1.88589
1.92007
1.95069
1.97752
2.00046
2.01957
2.03524
2.04819
2.05945
2.07027
2.08351
2.10105
1.40416
1.45399
1.50285
1.55159
1.59968
1.64668
1.69223
1.73593
1.7774
1.81625
1.85213
1.88472
1.91373
1.93893
1.96025
1.97779
1.99199
2.00366
2.01389
2.02402
2.0369
2.05429
1.37495
1.42371
1.4706
1.5174
1.56345
1.60834
1.65169
1.69313
1.73226
1.76872
1.80216
1.83226
1.85875
1.88142
1.90021
1.9153
1.92722
1.93689
1.94553
1.95457
1.96685
1.98401
1.33626
1.3836
1.42791
1.47217
1.5156
1.55773
1.59824
1.63673
1.67283
1.70619
1.73645
1.7633
1.78649
1.80582
1.82129
1.83315
1.84203
1.84904
1.85556
1.86314
1.8746
1.89139
1.28983
1.33538
1.37651
1.41769
1.45788
1.49664
1.53365
1.56852
1.60089
1.63042
1.65675
1.6796
1.69871
1.71392
1.72528
1.73312
1.73823
1.74191
1.74576
1.75147
1.76187
1.77814
1.2366
1.28002
1.31748
1.35508
1.39153
1.42639
1.45935
1.49003
1.51809
1.54316
1.56493
1.5831
1.59743
1.6078
1.6143
1.61738
1.61801
1.61771
1.61834
1.62177
1.63082
1.6464
1.17833
1.21926
1.25262
1.28624
1.31849
1.34896
1.37736
1.40332
1.4265
1.44654
1.46313
1.47599
1.48489
1.48974
1.49068
1.48829
1.48373
1.4788
1.47565
1.47638
1.48378
1.49844
1.11653
1.15464
1.18357
1.21288
1.2406
1.26634
1.28982
1.31067
1.32854
1.3431
1.35404
1.36107
1.36398
1.3627
1.35745
1.34892
1.3385
1.32829
1.32078
1.31834
1.32372
1.33718
1.05317
1.08817
1.11243
1.13719
1.16007
1.18074
1.19893
1.21428
1.22644
1.23508
1.23989
1.2406
1.237
1.22904
1.217
1.20171
1.18479
1.16868
1.15626
1.15018
1.15318
1.16512
0.989661
1.0212
1.04074
1.06086
1.07882
1.09434
1.10715
1.11687
1.12316
1.12568
1.12412
1.1182
1.10773
1.09266
1.07334
1.05072
1.02667
1.00401
0.986041
0.975787
0.975946
0.985978
0.928195
0.955976
0.970727
0.986037
0.998882
1.00903
1.0162
1.02002
1.02013
1.01621
1.00794
0.99504
0.977318
0.954756
0.927736
0.897359
0.865734
0.836054
0.812103
0.797277
0.794234
0.801934
0.869154
0.89284
0.903237
0.914011
0.922032
0.927101
0.928925
0.927097
0.921261
0.911068
0.896191
0.876334
0.851281
0.821008
0.785934
0.747278
0.707423
0.669999
0.639337
0.61931
0.612548
0.617448
0.815791
0.83438
0.840325
0.846319
0.849293
0.849032
0.845211
0.837422
0.825303
0.808501
0.78669
0.75958
0.72696
0.688829
0.645653
0.598778
0.550835
0.505847
0.468627
0.443456
0.432835
0.434452
0.76597
0.779419
0.782333
0.784207
0.782967
0.778256
0.769682
0.756815
0.739254
0.716609
0.688506
0.654607
0.614648
0.568577
0.516846
0.460886
0.40362
0.349637
0.304539
0.273334
0.258562
0.256956
0.728064
0.729709
0.72959
0.727114
0.720853
0.710802
0.6965
0.677541
0.653531
0.624081
0.588826
0.547442
0.49971
0.445674
0.385971
0.322328
0.258055
0.198126
0.148377
0.113808
0.0964202
0.092155
0.6878
0.679676
0.674542
0.664788
0.651134
0.63335
0.610969
0.583675
0.551126
0.513006
0.469038
0.419018
0.362921
0.301108
0.234684
0.165915
0.0985033
0.0373638
-0.0123251
-0.0466305
-0.0648301
-0.0717147
0.639989
0.624892
0.614918
0.598604
0.578659
0.554186
0.524878
0.490454
0.450618
0.405119
0.353761
0.296458
0.233364
0.165123
0.0932223
0.0203443
-0.04953
-0.111559
-0.161088
-0.195052
-0.213885
-0.223024
0.589313
0.568361
0.553106
0.530457
0.504437
0.47356
0.437768
0.396779
0.350347
0.298281
0.240458
0.176906
0.107972
0.0345945
-0.0413622
-0.116848
-0.187707
-0.249304
-0.29762
-0.330498
-0.349395
-0.360102
0.536596
0.510493
0.489905
0.461409
0.429695
0.392891
0.35117
0.304233
0.251902
0.194046
0.130633
0.0618372
-0.0117666
-0.088917
-0.167376
-0.243804
-0.314028
-0.373808
-0.419896
-0.451057
-0.469601
-0.481391
0.482923
0.452318
0.426591
0.392845
0.355955
0.313871
0.26694
0.214852
0.1575
0.0948173
0.0268757
-0.0459838
-0.122933
-0.202383
-0.281771
-0.357588
-0.425805
-0.482728
-0.525934
-0.555043
-0.573003
-0.585542
0.429487
0.394991
0.364484
0.326131
0.284663
0.238015
0.186649
0.130263
0.0688183
0.00232174
-0.069034
-0.144719
-0.223638
-0.303894
-0.382678
-0.456444
-0.521475
-0.574728
-0.614615
-0.641487
-0.658731
-0.671774
0.377105
0.339321
0.304527
0.262264
0.216896
0.166471
0.111509
0.0517318
-0.0128279
-0.0820786
-0.155688
-0.232918
-0.312406
-0.391988
-0.46871
-0.539142
-0.600015
-0.649015
-0.685334
-0.709919
-0.726392
-0.739764
0.326796
0.286321
0.24782
0.202357
0.153809
0.100411
0.0427032
-0.0195491
-0.0862399
-0.157178
-0.231874
-0.309369
-0.388049
-0.465553
-0.5389
-0.604923
-0.660919
-0.705318
-0.738007
-0.760362
-0.776071
-0.789647
0.278885
0.236302
0.194734
0.146797
0.0958243
0.0402817
-0.0192978
-0.0830888
-0.150907
-0.222446
-0.297042
-0.373518
-0.450048
-0.524157
-0.592977
-0.653736
-0.70437
-0.744025
-0.773157
-0.793416
-0.808397
-0.822075
0.234191
0.190066
0.146089
0.0963789
0.0437157
-0.0131856
-0.0738084
-0.138254
-0.206249
-0.277355
-0.350723
-0.424973
-0.498122
-0.567696
-0.631071
-0.685976
-0.731018
-0.765984
-0.791761
-0.81011
-0.82442
-0.838108
0.192344
0.1472
0.10147
0.0506697
-0.00295408
-0.0604339
-0.121274
-0.185487
-0.252703
-0.322332
-0.393344
-0.464191
-0.532816
-0.596866
-0.654085
-0.702782
-0.742209
-0.77269
-0.795384
-0.812029
-0.825715
-0.839313
0.154165
0.108501
0.0616484
0.0103822
-0.043543
-0.10091
-0.161237
-0.224437
-0.290022
-0.357249
-0.424917
-0.491361
-0.55455
-0.612376
-0.66305
-0.705486
-0.739517
-0.765864
-0.785817
-0.800976
-0.814076
-0.827475
0.118413
0.0726582
0.0252605
-0.0258884
-0.0794822
-0.136062
-0.195151
-0.256547
-0.319635
-0.383514
-0.44685
-0.507944
-0.564906
-0.61599
-0.659944
-0.696265
-0.725259
-0.747896
-0.765455
-0.77932
-0.791833
-0.804892
0.0865368
0.0411049
-0.00630101
-0.0568183
-0.109538
-0.164762
-0.222012
-0.28095
-0.340834
-0.400625
-0.458912
-0.514054
-0.564416
-0.608693
-0.646172
-0.676853
-0.701375
-0.720806
-0.736312
-0.749011
-0.760842
-0.773294
0.11139
0.0659804
0.0184938
-0.0321534
-0.0850733
-0.140532
-0.19804
-0.257224
-0.317307
-0.377205
-0.435473
-0.490451
-0.540514
-0.58439
-0.621419
-0.651648
-0.675753
-0.694819
-0.710013
-0.722445
-0.734016
-0.746185
0.143208
0.0974472
0.0499417
-0.00134087
-0.0551336
-0.111937
-0.171272
-0.232903
-0.296184
-0.36017
-0.423485
-0.4844
-0.541025
-0.591641
-0.635053
-0.670819
-0.699299
-0.721491
-0.738684
-0.752252
-0.764489
-0.777252
0.178662
0.132967
0.0859709
0.0345622
-0.0195661
-0.0771505
-0.137714
-0.201142
-0.266918
-0.334257
-0.401912
-0.46818
-0.531014
-0.588324
-0.638375
-0.680156
-0.713567
-0.739381
-0.758903
-0.773731
-0.786542
-0.79964
0.216269
0.171064
0.125145
0.0741864
0.0203477
-0.0373509
-0.0984234
-0.162861
-0.230268
-0.300018
-0.371035
-0.441723
-0.509996
-0.573507
-0.630045
-0.677998
-0.716704
-0.746554
-0.768747
-0.785019
-0.798405
-0.811706
0.257254
0.213043
0.168822
0.118929
0.0660312
0.00890095
-0.0519598
-0.116633
-0.184828
-0.256072
-0.329472
-0.403598
-0.476425
-0.545467
-0.608132
-0.662228
-0.706458
-0.740701
-0.765901
-0.783833
-0.797832
-0.811233
0.300798
0.258102
0.216226
0.168073
0.116836
0.0610435
0.00121047
-0.0628227
-0.130858
-0.202562
-0.277229
-0.353631
-0.429892
-0.503509
-0.571631
-0.631548
-0.681304
-0.720153
-0.748634
-0.768429
-0.783089
-0.796497
0.347283
0.306665
0.267787
0.222065
0.173214
0.119534
0.0615449
-0.000975911
-0.0679126
-0.139053
-0.213871
-0.29136
-0.36985
-0.446935
-0.519633
-0.584824
-0.639909
-0.683441
-0.715413
-0.737261
-0.75264
-0.765968
0.395925
0.357965
0.322717
0.280142
0.234423
0.183671
0.128388
0.0683025
0.0034549
-0.0660479
-0.139844
-0.217151
-0.296547
-0.375817
-0.451981
-0.521636
-0.581607
-0.629708
-0.665262
-0.689301
-0.705441
-0.718595
0.44644
0.411728
0.380688
0.341961
0.300084
0.253054
0.201315
0.144568
0.0827801
0.0159686
-0.055651
-0.131509
-0.210456
-0.290533
-0.368889
-0.441982
-0.506167
-0.55853
-0.597628
-0.623929
-0.64084
-0.653703
0.497872
0.467001
0.440663
0.406469
0.369108
0.326574
0.279206
0.226693
0.168929
0.105855
0.0375611
-0.035581
-0.112692
-0.192119
-0.271245
-0.346537
-0.414017
-0.470103
-0.512531
-0.54106
-0.5587
-0.571105
0.549469
0.523034
0.501761
0.472735
0.440481
0.403153
0.360922
0.313483
0.26066
0.202327
0.138462
0.0692643
-0.00464705
-0.0819491
-0.160337
-0.236431
-0.306074
-0.365122
-0.410481
-0.441081
-0.459328
-0.471043
0.600116
0.578747
0.562742
0.539474
0.512841
0.481361
0.444978
0.403403
0.356391
0.303751
0.245366
0.181286
0.111891
0.0381762
-0.0379232
-0.113297
-0.183778
-0.244798
-0.292482
-0.324846
-0.343489
-0.354192
0.648787
0.633159
0.62239
0.605363
0.58473
0.559573
0.529588
0.494488
0.453975
0.407798
0.355765
0.2978
0.234089
0.165322
0.0930562
0.0200465
-0.049688
-0.111339
-0.160376
-0.19391
-0.212549
-0.221771
0.694723
0.685877
0.679914
0.669358
0.65494
0.636397
0.61326
0.585205
0.551887
0.512989
0.468234
0.417426
0.36056
0.298037
0.231026
0.161871
0.0943352
0.0333338
-0.0160466
-0.0500409
-0.0681304
-0.0751984
0.733576
0.73427
0.733298
0.729948
0.722836
0.711944
0.696796
0.676982
0.652101
0.621763
0.5856
0.543292
0.49463
0.439687
0.379155
0.314842
0.25014
0.190063
0.140394
0.105981
0.0885979
0.0840379
0.769585
0.781834
0.783873
0.784875
0.782742
0.77714
0.767661
0.75387
0.735361
0.711741
0.682636
0.647706
0.606699
0.559586
0.50687
0.450059
0.392161
0.33782
0.292604
0.261396
0.246516
0.244523
0.817092
0.834397
0.839462
0.844556
0.846596
0.845402
0.840628
0.83186
0.818733
0.800892
0.77801
0.749797
0.716053
0.6768
0.63255
0.584717
0.536012
0.490505
0.452992
0.427662
0.416818
0.41798
0.868373
0.890785
0.900278
0.910137
0.917199
0.921302
0.922131
0.919278
0.912381
0.901091
0.885079
0.864052
0.837802
0.806328
0.77009
0.730373
0.689631
0.651545
0.620443
0.600124
0.593044
0.597435
0.925392
0.951941
0.965772
0.980159
0.99203
1.00119
1.00735
1.01011
1.00913
1.00408
0.994637
0.980533
0.961576
0.937768
0.909534
0.878029
0.845433
0.814986
0.790481
0.775262
0.771833
0.778996
0.985132
1.01553
1.03415
1.05335
1.07034
1.08487
1.09666
1.10531
1.1105
1.11187
1.10913
1.10199
1.09025
1.07392
1.05335
1.02956
1.00448
0.980971
0.962365
0.951643
0.951371
0.96086
1.04722
1.08117
1.10452
1.12837
1.1503
1.16999
1.18718
1.20148
1.21254
1.22005
1.22368
1.22317
1.21832
1.2091
1.19582
1.17936
1.16138
1.14438
1.13127
1.12468
1.12723
1.13864
1.10954
1.14672
1.17477
1.20322
1.23002
1.25482
1.27732
1.29715
1.31396
1.32742
1.33722
1.34307
1.34477
1.34227
1.3358
1.32612
1.31464
1.30353
1.29532
1.29234
1.29726
1.31023
1.17073
1.21084
1.24337
1.27617
1.30756
1.33714
1.36461
1.38961
1.41178
1.43078
1.4463
1.45804
1.4658
1.46949
1.46928
1.46578
1.46021
1.4544
1.45055
1.45076
1.45771
1.47191
1.22885
1.27154
1.30825
1.3451
1.38076
1.4148
1.44691
1.47671
1.50384
1.52796
1.54873
1.56588
1.57916
1.58846
1.5939
1.59595
1.59563
1.59451
1.59447
1.5974
1.60604
1.62121
1.28236
1.3273
1.36777
1.40828
1.44776
1.4858
1.52205
1.55613
1.58769
1.61635
1.64181
1.66374
1.68191
1.69618
1.70658
1.71351
1.71776
1.7207
1.72394
1.7292
1.73923
1.75515
1.3295
1.37634
1.42008
1.46378
1.5066
1.54812
1.58798
1.6258
1.6612
1.69383
1.72333
1.74941
1.7718
1.79032
1.80498
1.81605
1.8242
1.83056
1.83656
1.84373
1.85489
1.87138
1.36926
1.41765
1.46408
1.51042
1.55599
1.60038
1.64322
1.68411
1.72267
1.75855
1.79139
1.82086
1.84671
1.86872
1.88687
1.90133
1.91264
1.92179
1.93
1.93872
1.95075
1.96767
1.39987
1.44943
1.49795
1.54636
1.59409
1.64073
1.68591
1.72921
1.77026
1.80868
1.84413
1.87626
1.90479
1.92952
1.95036
1.96743
1.98119
1.99247
2.00239
2.01228
2.02497
2.0422
1.4219
1.47227
1.52223
1.57203
1.6212
1.66935
1.71607
1.76098
1.80368
1.84379
1.88096
1.91486
1.94519
1.97173
1.99437
2.01321
2.0286
2.04132
2.05238
2.06305
2.07619
2.09362
1.43205
1.48285
1.53358
1.58416
1.63417
1.68319
1.73082
1.77668
1.82035
1.86147
1.89967
1.93462
1.966
1.9936
2.01729
2.03713
2.05346
2.06699
2.0787
2.08981
2.1032
2.12076
0.0819043
0.0530151
0.0276717
0.00357171
-0.0190113
-0.0403569
-0.0608413
-0.0807808
-0.1006
-0.120739
-0.141502
-0.163685
-0.186418
-0.2124
-0.234488
-0.268006
-0.307508
-0.336218
-0.360932
-0.38164
-0.398458
-0.40982
-0.413835
-0.409332
-0.396886
-0.378822
-0.35879
-0.342198
-0.330591
-0.332699
0.0373076
0.00953462
-0.0144599
-0.0369933
-0.057879
-0.0774187
-0.0959438
-0.113852
-0.131385
-0.149163
-0.167103
-0.186485
-0.20601
-0.229208
-0.25067
-0.282239
-0.312969
-0.334987
-0.353892
-0.370067
-0.383567
-0.392938
-0.396488
-0.393248
-0.383735
-0.370097
-0.355265
-0.344105
-0.336673
-0.342112
-0.00961832
-0.0364525
-0.0592057
-0.0802167
-0.0993843
-0.117026
-0.133446
-0.149083
-0.164064
-0.179089
-0.193885
-0.209918
-0.225707
-0.244653
-0.262019
-0.285661
-0.305859
-0.321629
-0.336416
-0.350602
-0.363395
-0.372965
-0.3776
-0.376474
-0.370095
-0.360472
-0.350026
-0.343156
-0.338881
-0.346354
-0.059106
-0.0843852
-0.105312
-0.124203
-0.141043
-0.156138
-0.169767
-0.182347
-0.193942
-0.205192
-0.215867
-0.227306
-0.238599
-0.252548
-0.266397
-0.284944
-0.298672
-0.311188
-0.323593
-0.336025
-0.34738
-0.356039
-0.360631
-0.360622
-0.356548
-0.350211
-0.343505
-0.340187
-0.338541
-0.347243
-0.110602
-0.134037
-0.152835
-0.16927
-0.183406
-0.195535
-0.205931
-0.214983
-0.222761
-0.229841
-0.23613
-0.242791
-0.249406
-0.258201
-0.267691
-0.280987
-0.28963
-0.299426
-0.310022
-0.321352
-0.331977
-0.340335
-0.345244
-0.346374
-0.344302
-0.34066
-0.336945
-0.336306
-0.336615
-0.345846
-0.16415
-0.185223
-0.201355
-0.21476
-0.225586
-0.234121
-0.240668
-0.245612
-0.249097
-0.251662
-0.253401
-0.255332
-0.257479
-0.26167
-0.267274
-0.276403
-0.282326
-0.290687
-0.300176
-0.310479
-0.320124
-0.327802
-0.332614
-0.334421
-0.333816
-0.332225
-0.330794
-0.332085
-0.333784
-0.343066
-0.219235
-0.237399
-0.250297
-0.26008
-0.266995
-0.271369
-0.273582
-0.274075
-0.273117
-0.271255
-0.268742
-0.266468
-0.26469
-0.264963
-0.267013
-0.272765
-0.277078
-0.284218
-0.292677
-0.301973
-0.310696
-0.317733
-0.322392
-0.324669
-0.325148
-0.325071
-0.325304
-0.3279
-0.330521
-0.339545
-0.27535
-0.289923
-0.298901
-0.304382
-0.306747
-0.306423
-0.303926
-0.299808
-0.294481
-0.288518
-0.282261
-0.276473
-0.271481
-0.268656
-0.26776
-0.270886
-0.274349
-0.280504
-0.288006
-0.296227
-0.303923
-0.310187
-0.314518
-0.317003
-0.318201
-0.319166
-0.320544
-0.323954
-0.327137
-0.335728
-0.331599
-0.341815
-0.346146
-0.346673
-0.343955
-0.338586
-0.331258
-0.322654
-0.313314
-0.303806
-0.294479
-0.28594
-0.278468
-0.273283
-0.270001
-0.271078
-0.273946
-0.279089
-0.285557
-0.292632
-0.299257
-0.304702
-0.308607
-0.311114
-0.312741
-0.314374
-0.316486
-0.320345
-0.323824
-0.331899
-0.386814
-0.391885
-0.390898
-0.385956
-0.377837
-0.367342
-0.355338
-0.342623
-0.3298
-0.317389
-0.30567
-0.295077
-0.285782
-0.278869
-0.273738
-0.273198
-0.275495
-0.27958
-0.284943
-0.290813
-0.296333
-0.300916
-0.304311
-0.30669
-0.308516
-0.310526
-0.31306
-0.317104
-0.320692
-0.328232
-0.439572
-0.438826
-0.432047
-0.421394
-0.407875
-0.392488
-0.376234
-0.359963
-0.344275
-0.32959
-0.316079
-0.304004
-0.293414
-0.285259
-0.278738
-0.276888
-0.27851
-0.281478
-0.285675
-0.29032
-0.294733
-0.298443
-0.301282
-0.303423
-0.305277
-0.30745
-0.310177
-0.314227
-0.317794
-0.324812
-0.488392
-0.481438
-0.468731
-0.452489
-0.433912
-0.414148
-0.394254
-0.375061
-0.357103
-0.340681
-0.325843
-0.312705
-0.301208
-0.292164
-0.284627
-0.281687
-0.282502
-0.284325
-0.287333
-0.290769
-0.294103
-0.296957
-0.299215
-0.301046
-0.302803
-0.304984
-0.307746
-0.311682
-0.315143
-0.321668
-0.532009
-0.518862
-0.500498
-0.479152
-0.456153
-0.432709
-0.409858
-0.388355
-0.368636
-0.350882
-0.335041
-0.321115
-0.308964
-0.299267
-0.290998
-0.287128
-0.287025
-0.287713
-0.289552
-0.291834
-0.294144
-0.296177
-0.297854
-0.29933
-0.300904
-0.302988
-0.305675
-0.309426
-0.312728
-0.318789
-0.56962
-0.550748
-0.527371
-0.501691
-0.475069
-0.448703
-0.42355
-0.40026
-0.379165
-0.360353
-0.343704
-0.329144
-0.316483
-0.306274
-0.297474
-0.292791
-0.291706
-0.291307
-0.292036
-0.293247
-0.294613
-0.295879
-0.296991
-0.298085
-0.299421
-0.301337
-0.303882
-0.30741
-0.310526
-0.316144
-0.601038
-0.577276
-0.549789
-0.520679
-0.49127
-0.46269
-0.435788
-0.411111
-0.388906
-0.369198
-0.351836
-0.336707
-0.323597
-0.312941
-0.30374
-0.298334
-0.296251
-0.294845
-0.294556
-0.294805
-0.295319
-0.295882
-0.296454
-0.297158
-0.298219
-0.299924
-0.302291
-0.305587
-0.308512
-0.313695
-0.626661
-0.599058
-0.568454
-0.536808
-0.505364
-0.475156
-0.44693
-0.421146
-0.397997
-0.377475
-0.359429
-0.343734
-0.330178
-0.319089
-0.309553
-0.303494
-0.300444
-0.298136
-0.296946
-0.296353
-0.296118
-0.296049
-0.296113
-0.296424
-0.297188
-0.298658
-0.300833
-0.30391
-0.306661
-0.311411
-0.647324
-0.616953
-0.58416
-0.550751
-0.517873
-0.486474
-0.457219
-0.430509
-0.406507
-0.385203
-0.366463
-0.350174
-0.336137
-0.324596
-0.314747
-0.308091
-0.304141
-0.301052
-0.299091
-0.297787
-0.296908
-0.296276
-0.295864
-0.295785
-0.296237
-0.29746
-0.299447
-0.30234
-0.304961
-0.30928
-0.664068
-0.631878
-0.597657
-0.563073
-0.529194
-0.496898
-0.466799
-0.439267
-0.414459
-0.392379
-0.37292
-0.355993
-0.341424
-0.329394
-0.319221
-0.312017
-0.307261
-0.30352
-0.300928
-0.299043
-0.297624
-0.296497
-0.295637
-0.295166
-0.295293
-0.296262
-0.298078
-0.300841
-0.303403
-0.307319
-0.677875
-0.644601
-0.609503
-0.574145
-0.53954
-0.506527
-0.475693
-0.4474
-0.421814
-0.398958
-0.37876
-0.361155
-0.346007
-0.333448
-0.322925
-0.315219
-0.30977
-0.30551
-0.302429
-0.300092
-0.298233
-0.296671
-0.295387
-0.294521
-0.294307
-0.295019
-0.29669
-0.299391
-0.301992
-0.305574
-0.689577
-0.655718
-0.62008
-0.584178
-0.548995
-0.515356
-0.483842
-0.454823
-0.428479
-0.404856
-0.38391
-0.365606
-0.349842
-0.336727
-0.325828
-0.317673
-0.311661
-0.307019
-0.303592
-0.300928
-0.298723
-0.296783
-0.295095
-0.293825
-0.293253
-0.293701
-0.295254
-0.297973
-0.30074
-0.304131
-0.700741
-0.666539
-0.630463
-0.594049
-0.558281
-0.523983
-0.491746
-0.461955
-0.434807
-0.410367
-0.388612
-0.369532
-0.353065
-0.339323
-0.327982
-0.31941
-0.312972
-0.308089
-0.304465
-0.301601
-0.299134
-0.296844
-0.294728
-0.292992
-0.291989
-0.292123
-0.293565
-0.296409
-0.299552
-0.30309
-0.712571
-0.67807
-0.641476
-0.604454
-0.567999
-0.532942
-0.499892
-0.469249
-0.441224
-0.415891
-0.393239
-0.373272
-0.355969
-0.341477
-0.329568
-0.320557
-0.313806
-0.308811
-0.305139
-0.302198
-0.299539
-0.296904
-0.294298
-0.291991
-0.290434
-0.290158
-0.291466
-0.294538
-0.298295
-0.302507
0.327993
0.327974
0.327981
0.327987
0.328002
0.328023
0.328052
0.328089
0.328138
0.328197
0.328267
0.328347
0.328437
0.328536
0.328642
0.328754
0.328873
0.328996
0.329124
0.329254
0.329388
0.329523
0.329658
0.329794
0.32891
0.328891
0.328898
0.328904
0.328922
0.328944
0.328976
0.329018
0.329071
0.329136
0.329212
0.3293
0.329398
0.329506
0.329621
0.329744
0.329872
0.330007
0.330145
0.330287
0.330432
0.330579
0.330727
0.330874
0.329816
0.329795
0.329803
0.32981
0.329829
0.329854
0.32989
0.329935
0.329994
0.330065
0.330149
0.330244
0.330351
0.330468
0.330594
0.330727
0.330867
0.331012
0.331163
0.331317
0.331474
0.331634
0.331795
0.331955
0.330708
0.330687
0.330695
0.330703
0.330724
0.330752
0.330791
0.330841
0.330905
0.330983
0.331074
0.331179
0.331295
0.331422
0.331558
0.331703
0.331855
0.332013
0.332176
0.332343
0.332514
0.332687
0.332862
0.333037
0.331587
0.331564
0.331574
0.331583
0.331606
0.331636
0.331679
0.331734
0.331804
0.331889
0.331989
0.332103
0.33223
0.332367
0.332515
0.332672
0.332836
0.333007
0.333184
0.333366
0.333551
0.333739
0.333928
0.334118
0.332452
0.332427
0.332437
0.332447
0.332473
0.332506
0.332553
0.332614
0.332691
0.332784
0.332893
0.333016
0.333153
0.333303
0.333463
0.333632
0.33381
0.333995
0.334187
0.334383
0.334584
0.334788
0.334993
0.3352
0.3333
0.333275
0.333285
0.333297
0.333324
0.333361
0.333413
0.333479
0.333563
0.333665
0.333783
0.333917
0.334066
0.334228
0.334401
0.334584
0.334777
0.334977
0.335184
0.335396
0.335614
0.335834
0.336057
0.336281
0.334132
0.334105
0.334117
0.334129
0.33416
0.3342
0.334257
0.33433
0.334421
0.334532
0.33466
0.334806
0.334967
0.335142
0.335329
0.335527
0.335735
0.335951
0.336174
0.336404
0.336638
0.336877
0.337118
0.337361
0.334947
0.334918
0.334931
0.334945
0.334978
0.335022
0.335084
0.335164
0.335264
0.335383
0.335523
0.335681
0.335855
0.336044
0.336246
0.336459
0.336683
0.336916
0.337157
0.337405
0.337658
0.337916
0.338177
0.33844
0.335742
0.335712
0.335726
0.335741
0.335777
0.335826
0.335893
0.33598
0.336089
0.336219
0.336371
0.336541
0.336729
0.336933
0.337151
0.337381
0.337622
0.337873
0.338132
0.338399
0.338672
0.338951
0.339232
0.339517
0.336517
0.336486
0.336501
0.336518
0.336557
0.33661
0.336684
0.336779
0.336897
0.337038
0.337202
0.337386
0.337589
0.337808
0.338042
0.33829
0.338549
0.338819
0.339098
0.339385
0.33968
0.33998
0.340284
0.340591
0.337272
0.337239
0.337255
0.337274
0.337317
0.337374
0.337455
0.337558
0.337686
0.337839
0.338016
0.338215
0.338433
0.338669
0.338921
0.339186
0.339465
0.339755
0.340054
0.340363
0.34068
0.341002
0.34133
0.341661
0.338004
0.33797
0.337987
0.338008
0.338054
0.338117
0.338205
0.338317
0.338456
0.338621
0.338812
0.339026
0.33926
0.339514
0.339784
0.340069
0.340367
0.340678
0.341
0.341331
0.341671
0.342018
0.34237
0.342727
0.338713
0.338677
0.338696
0.338718
0.338768
0.338837
0.338932
0.339054
0.339205
0.339383
0.339589
0.339818
0.34007
0.340342
0.340631
0.340937
0.341256
0.341589
0.341933
0.342288
0.342653
0.343025
0.343404
0.343788
0.339397
0.33936
0.33938
0.339404
0.339459
0.339533
0.339637
0.339768
0.339931
0.340124
0.340345
0.340591
0.340861
0.341152
0.341462
0.341788
0.34213
0.342485
0.342854
0.343233
0.343624
0.344023
0.344429
0.344842
0.340055
0.340017
0.340038
0.340065
0.340124
0.340205
0.340317
0.340459
0.340635
0.340842
0.341079
0.341343
0.341632
0.341943
0.342274
0.342622
0.342987
0.343366
0.34376
0.344165
0.344582
0.345009
0.345445
0.345887
0.340686
0.340647
0.340669
0.340699
0.340762
0.34085
0.340971
0.341125
0.341314
0.341536
0.341791
0.342074
0.342382
0.342714
0.343066
0.343438
0.343826
0.344231
0.34465
0.345082
0.345527
0.345984
0.346449
0.346923
0.341288
0.341249
0.341273
0.341305
0.341373
0.341468
0.341598
0.341764
0.341968
0.342206
0.342479
0.342781
0.34311
0.343463
0.343838
0.344233
0.344647
0.345077
0.345523
0.345983
0.346458
0.346944
0.347441
0.347948
0.341862
0.341821
0.341847
0.341882
0.341955
0.342057
0.342198
0.342377
0.342595
0.342851
0.343141
0.343463
0.343814
0.34419
0.344588
0.345008
0.345446
0.345903
0.346377
0.346867
0.347371
0.347889
0.348419
0.34896
0.342405
0.342364
0.342391
0.342429
0.342508
0.342618
0.342769
0.342961
0.343194
0.343468
0.343778
0.344121
0.344493
0.344892
0.345315
0.345759
0.346224
0.346709
0.347211
0.34773
0.348266
0.348816
0.34938
0.349956
0.342916
0.342875
0.342903
0.342944
0.343029
0.343147