/*--------------------------------*- C++ -*----------------------------------*\
| =========                 |                                                 |
| \\      /  F ield         | OpenFOAM Extend Project: Open source CFD        |
|  \\    /   O peration     | Version:  1.6-ext                               |
|   \\  /    A nd           | Web:      www.extend-project.de                 |
|    \\/     M anipulation  |                                                 |
\*---------------------------------------------------------------------------*/
FoamFile
{
    version     2.0;
    format      ascii;
    class       surfaceScalarField;
    location    "0.3";
    object      phi;
}
// * * * * * * * * * * * * * * * * * * * * * * * * * * * * * * * * * * * * * //

dimensions      [0 3 -1 0 0 0 0];

internalField   nonuniform List<scalar> 
41420
(
-0.000123032
0.000398991
-0.00039949
0.000123532
-0.000122071
0.000380085
-0.000381046
-0.000120681
0.000361528
-0.000362918
-0.000118866
0.000343224
-0.000345039
-0.000116572
0.000325181
-0.000327475
-0.000113661
0.000307201
-0.000310112
-0.000109907
0.000288949
-0.000292704
-0.000105022
0.000269958
-0.000274843
-9.87289e-05
0.000249732
-0.000256025
-9.08546e-05
0.000227895
-0.00023577
-8.14255e-05
0.000204346
-0.000213775
-7.07179e-05
0.000179361
-0.000190068
-5.92343e-05
0.000153587
-0.000165071
-4.76189e-05
0.000127935
-0.00013955
-3.65302e-05
0.000103381
-0.00011447
-2.6531e-05
8.07928e-05
-9.0792e-05
-1.80133e-05
6.07876e-05
-6.93053e-05
-1.11826e-05
4.36908e-05
-5.05215e-05
-6.07872e-06
2.9555e-05
-3.46589e-05
-2.62104e-06
1.82234e-05
-2.16811e-05
-6.56626e-07
9.40473e-06
-1.13691e-05
2.74278e-06
-3.39941e-06
-0.000130598
0.000398338
0.00013125
-0.000129463
0.000378949
-0.000127864
0.000359929
-0.000125773
0.000341132
-0.000123086
0.000322494
-0.000119607
0.000303722
-0.000115059
0.000284401
-0.000109141
0.00026404
-0.000101617
0.000242209
-9.24218e-05
0.0002187
-8.17298e-05
0.000193654
-6.99687e-05
0.0001676
-5.77532e-05
0.000141372
-4.57676e-05
0.000115949
-3.46405e-05
9.22542e-05
-2.48504e-05
7.10027e-05
-1.6686e-05
5.26233e-05
-1.02545e-05
3.72593e-05
-5.51983e-06
2.48204e-05
-2.35299e-06
1.50566e-05
-5.76505e-07
7.62824e-06
2.16628e-06
-0.000145274
0.000397041
0.000146571
-0.00014347
0.000377146
-0.000141155
0.000357614
-0.000138249
0.000338226
-0.000134584
0.00031883
-0.000129897
0.000299035
-0.000123872
0.000278376
-0.000116223
0.000256392
-0.000106806
0.000232792
-9.5708e-05
0.000207602
-8.32871e-05
0.000181233
-7.01305e-05
0.000154443
-5.69468e-05
0.000128188
-4.44303e-05
0.000103432
-3.31467e-05
8.09706e-05
-2.34704e-05
6.13263e-05
-1.55764e-05
4.47293e-05
-9.47263e-06
3.11555e-05
-5.04995e-06
2.03977e-05
-2.13211e-06
1.21387e-05
-5.16153e-07
6.01228e-06
1.65012e-06
-0.00015935
0.000395139
0.000161252
-0.000156891
0.000374686
-0.000153828
0.000354551
-0.000150013
0.000334411
-0.000145204
0.000314021
-0.000139079
0.00029291
-0.000131317
0.000270614
-0.000121706
0.00024678
-0.00011025
0.000221336
-9.72359e-05
0.000194587
-8.32132e-05
0.00016721
-6.89014e-05
0.000140131
-5.50504e-05
0.000114337
-4.23079e-05
9.06899e-05
-3.11346e-05
6.97974e-05
-2.17788e-05
5.19706e-05
-1.42995e-05
3.72499e-05
-8.61414e-06
2.54702e-05
-4.55347e-06
1.6337e-05
-1.90724e-06
9.4925e-06
-4.5768e-07
4.56273e-06
1.19244e-06
-0.00017212
0.000392697
0.000174562
-0.000169029
0.000371595
-0.000165178
0.0003507
-0.000160335
0.000329567
-0.000154186
0.000307872
-0.000146381
0.000285105
-0.000136653
0.000260886
-0.00012493
0.000235057
-0.000111425
0.000207832
-9.66458e-05
0.000179808
-8.13112e-05
0.000151876
-6.62166e-05
0.000125037
-5.20857e-05
0.000100206
-3.94646e-05
7.80688e-05
-2.86777e-05
5.90105e-05
-1.98399e-05
4.31328e-05
-1.29019e-05
3.0312e-05
-7.70746e-06
2.02757e-05
-4.04399e-06
1.26735e-05
-1.68208e-06
7.13059e-06
-4.00498e-07
3.28115e-06
7.91945e-07
-0.000183513
0.000389773
0.000186438
-0.000179771
0.000367853
-0.000175024
0.000345953
-0.000168951
0.000323494
-0.000161194
0.000300115
-0.000151435
0.000275347
-0.000139538
0.000248989
-0.000125646
0.000221164
-0.000110216
0.000192402
-9.39634e-05
0.000163555
-7.77193e-05
0.000135632
-6.2278e-05
0.000109595
-4.82693e-05
8.61977e-05
-3.60953e-05
6.58949e-05
-2.59306e-05
4.88457e-05
-1.77633e-05
3.49655e-05
-1.14544e-05
2.4003e-05
-6.79301e-06
1.56143e-05
-3.54129e-06
9.42182e-06
-1.46406e-06
5.05336e-06
-3.46145e-07
2.16323e-06
4.45799e-07
-0.000193352
0.000386363
0.000196762
-0.000188868
0.000363369
-0.000183032
0.000340117
-0.000175453
0.000315915
-0.000165786
0.000290448
-0.00015383
0.00026339
-0.000139664
0.000234823
-0.000123699
0.0002052
-0.000106638
0.000175341
-8.93446e-05
0.000146262
-7.26796e-05
0.000118967
-5.73542e-05
9.427e-05
-4.38493e-05
7.26928e-05
-3.24019e-05
5.44474e-05
-2.30411e-05
3.9485e-05
-1.56484e-05
2.75728e-05
-1.00174e-05
1.8372e-05
-5.90414e-06
1.15011e-05
-3.06129e-06
6.57897e-06
-1.25919e-06
3.25126e-06
-2.95899e-07
1.19994e-06
1.499e-07
-0.000201446
0.000382442
0.000205367
-0.00019606
0.000357982
-0.000188865
0.000332922
-0.000179455
0.000306505
-0.000167591
0.000278585
-0.000153287
0.000249086
-0.000136911
0.000218447
-0.000119154
0.000187443
-0.000100912
0.000157099
-8.31096e-05
0.00012846
-6.65404e-05
0.000102397
-5.17652e-05
7.94948e-05
-3.90859e-05
6.00135e-05
-2.85755e-05
4.39371e-05
-2.01385e-05
3.10479e-05
-1.3575e-05
2.10093e-05
-8.63622e-06
1.34333e-05
-5.06375e-06
7.92861e-06
-2.61395e-06
4.12918e-06
-1.07082e-06
1.70813e-06
-2.50387e-07
3.79503e-07
-1.00487e-07
-0.000207495
0.000377849
0.000212088
-0.000200945
0.000351433
-0.000192069
0.000324046
-0.000180527
0.000294963
-0.000166291
0.000264349
-0.000149675
0.00023247
-0.000131364
0.000200136
-0.000112285
0.000168364
-9.34336e-05
0.000138247
-7.56889e-05
0.000110715
-5.96981e-05
8.64066e-05
-4.58333e-05
6.56299e-05
-3.42153e-05
4.83955e-05
-2.47744e-05
3.44962e-05
-1.7319e-05
2.35925e-05
-1.15964e-05
1.52866e-05
-7.33674e-06
9.17368e-06
-4.2823e-06
4.87416e-06
-2.20225e-06
2.04913e-06
-8.99172e-07
4.05055e-07
-2.094e-07
-3.10269e-07
-3.09886e-07
-0.0002112
0.00037246
0.000216589
-0.000203204
0.000343437
-0.000192336
0.000313178
-0.000178447
0.000281074
-0.000161834
0.000247735
-0.000143157
0.000213793
-0.000123385
0.000180364
-0.000103585
0.000148564
-8.47333e-05
0.000119396
-6.75729e-05
9.35544e-05
-5.25549e-05
7.13886e-05
-3.98559e-05
5.29309e-05
-2.94378e-05
3.79774e-05
-2.11207e-05
2.61791e-05
-1.46495e-05
1.71213e-05
-9.7435e-06
1.03806e-05
-6.12951e-06
5.55969e-06
-3.5605e-06
2.30515e-06
-1.82365e-06
3.12278e-07
-7.41957e-07
-6.76641e-07
-1.72046e-07
-8.8018e-07
-4.81932e-07
-0.000212081
0.000365934
0.000218607
-0.000202347
0.000333703
-0.0001893
0.000300131
-0.000173077
0.000264851
-0.000154355
0.000229013
-0.000134119
0.000193557
-0.000113529
0.000159774
-9.36692e-05
0.000128704
-7.53948e-05
0.000101122
-5.92514e-05
7.74109e-05
-4.54835e-05
5.76207e-05
-3.40941e-05
4.15415e-05
-2.4922e-05
2.88053e-05
-1.77145e-05
1.89716e-05
-1.21827e-05
1.15896e-05
-8.03935e-06
6.23724e-06
-5.0206e-06
2.54095e-06
-2.89648e-06
1.81026e-07
-1.474e-06
-1.1102e-06
-5.95865e-07
-1.55478e-06
-1.36988e-07
-1.33906e-06
-6.1892e-07
-0.000210057
0.000358277
0.000217714
-0.000198455
0.000322101
-0.000183209
0.000284885
-0.000164873
0.000246516
-0.000144509
0.000208648
-0.000123355
0.000172403
-0.000102629
0.000139048
-8.33188e-05
0.000109394
-6.60823e-05
8.38851e-05
-5.1248e-05
6.25766e-05
-3.88721e-05
4.52448e-05
-2.88214e-05
3.14908e-05
-2.08529e-05
2.08368e-05
-1.46756e-05
1.27943e-05
-9.99282e-06
6.90676e-06
-6.52701e-06
2.77143e-06
-4.03253e-06
4.64651e-08
-2.30004e-06
-1.55147e-06
-1.15621e-06
-2.25402e-06
-4.61e-07
-2.24999e-06
-1.03922e-07
-1.69614e-06
-7.22842e-07
-0.000204545
0.000349118
0.000213703
-0.000191149
0.000308705
-0.000174048
0.000267784
-0.000154202
0.00022667
-0.000132953
0.000187399
-0.000111674
0.000151124
-9.15167e-05
0.000118891
-7.32893e-05
9.11663e-05
-5.74285e-05
6.80244e-05
-4.40629e-05
4.92109e-05
-3.31006e-05
3.42825e-05
-2.43193e-05
2.27095e-05
-1.74351e-05
1.39527e-05
-1.21506e-05
7.50977e-06
-8.18227e-06
2.93846e-06
-5.27541e-06
-1.3543e-07
-3.20898e-06
-2.01996e-06
-1.79619e-06
-2.96426e-06
-8.82264e-07
-3.16795e-06
-3.413e-07
-2.79095e-06
-7.3139e-08
-1.9643e-06
-7.95981e-07
-0.000196175
0.000339123
0.00020617
-0.000181354
0.000293884
-0.000162864
0.000249294
-0.000142211
0.000206018
-0.000120863
0.00016605
-0.000100206
0.000130467
-8.12083e-05
9.98932e-05
-6.44487e-05
7.44067e-05
-5.01447e-05
5.37204e-05
-3.82623e-05
3.73286e-05
-2.86127e-05
2.4633e-05
-2.09321e-05
1.50288e-05
-1.49343e-05
7.95491e-06
-1.03424e-05
2.91792e-06
-6.90412e-06
-4.99841e-07
-4.39706e-06
-2.64249e-06
-2.62933e-06
-3.78768e-06
-1.43743e-06
-4.15617e-06
-6.83465e-07
-3.92191e-06
-2.524e-07
-3.22202e-06
-4.98467e-08
-2.16685e-06
-8.45828e-07
-0.00018413
0.00032809
0.000195163
-0.00016899
0.000278744
-0.000150144
0.000230448
-0.000129776
0.00018565
-0.00010932
0.000145594
-9.00521e-05
0.000111199
-7.26999e-05
8.2541e-05
-5.76179e-05
5.93247e-05
-4.48622e-05
4.09647e-05
-3.43075e-05
2.67738e-05
-2.57332e-05
1.60587e-05
-1.88839e-05
8.17949e-06
-1.35043e-05
2.57529e-06
-9.35761e-06
-1.22875e-06
-6.23226e-06
-3.62519e-06
-3.94238e-06
-4.93238e-06
-2.32575e-06
-5.40431e-06
-1.24112e-06
-5.2408e-06
-5.65543e-07
-4.59749e-06
-1.92338e-07
-3.59522e-06
-2.99158e-08
-2.32927e-06
-8.75744e-07
-0.000367531
0.000273034
0.000422587
-0.000311
0.000222213
-0.000256659
0.000176107
-0.000207003
0.000135993
-0.000163396
0.000101987
-0.000126446
7.42488e-05
-9.59802e-05
5.20755e-05
-7.14446e-05
3.47891e-05
-5.20744e-05
2.15945e-05
-3.70598e-05
1.17592e-05
-2.56311e-05
4.62995e-06
-1.71021e-05
-3.49418e-07
-1.08849e-05
-3.64197e-06
-6.4864e-06
-5.62724e-06
-3.49887e-06
-6.61272e-06
-1.58653e-06
-6.84471e-06
-4.72546e-07
-6.5183e-06
7.2784e-08
-5.78613e-06
2.4179e-07
-4.76649e-06
1.97146e-07
-3.55058e-06
7.71785e-08
-2.2093e-06
-7.98565e-07
-0.000314898
0.000213446
0.000374486
-0.000258546
0.000165862
-0.000207974
0.000125535
-0.000164147
9.21655e-05
-0.000127355
6.51961e-05
-9.72077e-05
4.41013e-05
-7.29842e-05
2.7852e-05
-5.38399e-05
1.56447e-05
-3.8934e-05
6.68868e-06
-2.74982e-05
3.23416e-07
-1.88636e-05
-4.00466e-06
-1.24649e-05
-6.74811e-06
-7.83281e-06
-8.2741e-06
-4.5814e-06
-8.87866e-06
-2.39502e-06
-8.7991e-06
-1.01543e-06
-8.2243e-06
-2.30617e-07
-7.30311e-06
1.34695e-07
-6.15144e-06
2.26693e-07
-4.85849e-06
1.68348e-07
-3.49223e-06
6.3507e-08
-2.10446e-06
-7.35058e-07
-0.000258854
0.000155994
0.000316306
-0.000207856
0.000114864
-0.000164337
8.20158e-05
-0.000127979
5.58071e-05
-9.83377e-05
3.55552e-05
-7.45061e-05
2.02698e-05
-5.56191e-05
8.96498e-06
-4.08285e-05
8.54038e-07
-2.93898e-05
-4.75004e-06
-2.06621e-05
-8.40424e-06
-1.41065e-05
-1.05602e-05
-9.275e-06
-1.15796e-05
-5.79823e-06
-1.17509e-05
-3.3738e-06
-1.13031e-05
-1.75512e-06
-1.04178e-05
-7.41453e-07
-9.23796e-06
-1.69365e-07
-7.8752e-06
9.47138e-08
-6.41552e-06
1.60506e-07
-4.92428e-06
1.18701e-07
-3.45043e-06
4.44225e-08
-2.03019e-06
-6.90636e-07
-0.000206639
0.000105288
0.000257345
-0.000163564
7.17891e-05
-0.000127925
4.63766e-05
-9.87851e-05
2.66672e-05
-7.53693e-05
1.21394e-05
-5.67146e-05
1.61504e-06
-4.20343e-05
-5.71533e-06
-3.06114e-05
-1.05689e-05
-2.184e-05
-1.35214e-05
-1.52044e-05
-1.50399e-05
-1.02711e-05
-1.54935e-05
-6.67855e-06
-1.51722e-05
-4.12829e-06
-1.43011e-05
-2.37639e-06
-1.3055e-05
-1.22539e-06
-1.15688e-05
-5.16676e-07
-9.94668e-06
-1.23508e-07
-8.26837e-06
5.50545e-08
-6.59408e-06
9.92869e-08
-4.96852e-06
7.2968e-08
-3.42411e-06
2.66646e-08
-1.98388e-06
-6.63971e-07
-0.000160831
6.30425e-05
0.000203077
-0.000125878
3.6836e-05
-9.73655e-05
1.7864e-05
-7.43294e-05
3.63111e-06
-5.59462e-05
-6.24376e-06
-4.14227e-05
-1.29084e-05
-3.01058e-05
-1.70323e-05
-2.14169e-05
-1.92578e-05
-1.48593e-05
-2.0079e-05
-1.00054e-05
-1.98937e-05
-6.49195e-06
-1.9007e-05
-4.01474e-06
-1.76494e-05
-2.32356e-06
-1.59923e-05
-1.21622e-06
-1.41623e-05
-5.3197e-07
-1.2253e-05
-1.45026e-07
-1.03336e-05
4.18445e-08
-8.45524e-06
1.02749e-07
-6.65499e-06
9.34559e-08
-4.95922e-06
5.50829e-08
-3.38574e-06
1.72528e-08
-1.94605e-06
-6.46718e-07
-0.000119898
2.89967e-05
0.000153944
-9.21271e-05
9.06523e-06
-6.96338e-05
-4.62935e-06
-5.16845e-05
-1.43182e-05
-3.75321e-05
-2.03962e-05
-2.65592e-05
-2.38813e-05
-1.82158e-05
-2.53757e-05
-1.20156e-05
-2.5458e-05
-7.53013e-06
-2.45645e-05
-4.38729e-06
-2.30366e-05
-2.27074e-06
-2.11235e-05
-9.17834e-07
-1.90023e-05
-1.16049e-07
-1.67941e-05
3.02452e-07
-1.45808e-05
4.6685e-07
-1.24174e-05
4.74384e-07
-1.03412e-05
3.96162e-07
-8.37702e-06
2.82973e-07
-6.5418e-06
1.69318e-07
-4.84557e-06
7.74023e-08
-3.29382e-06
1.95532e-08
-1.8882e-06
-6.27165e-07
-8.08196e-05
2.28382e-06
0.000107533
-5.93551e-05
-1.23993e-05
-4.22185e-05
-2.1766e-05
-2.88803e-05
-2.76564e-05
-1.86889e-05
-3.05876e-05
-1.11279e-05
-3.14423e-05
-5.70741e-06
-3.07962e-05
-1.9944e-06
-2.9171e-05
3.94917e-07
-2.69538e-05
1.79006e-06
-2.44317e-05
2.46653e-06
-2.18e-05
2.64762e-06
-1.91834e-05
2.50894e-06
-1.66554e-05
2.184e-06
-1.42559e-05
1.77131e-06
-1.20047e-05
1.34041e-06
-9.91026e-06
9.38601e-07
-7.97521e-06
5.95283e-07
-6.19848e-06
3.27075e-07
-4.57736e-06
1.40228e-07
-3.10698e-06
3.37384e-08
-1.78171e-06
-5.93427e-07
-4.15475e-05
-1.7657e-05
6.14883e-05
-2.60563e-05
-2.78905e-05
-1.41719e-05
-3.36503e-05
-5.44113e-06
-3.63872e-05
7.16358e-07
-3.67451e-05
4.77465e-06
-3.55006e-05
7.18573e-06
-3.32073e-05
8.34408e-06
-3.03293e-05
8.59102e-06
-2.72008e-05
8.21037e-06
-2.4051e-05
7.43071e-06
-2.10204e-05
6.42977e-06
-1.81824e-05
5.34056e-06
-1.55662e-05
4.25898e-06
-1.31743e-05
3.25029e-06
-1.0996e-05
2.35664e-06
-9.01661e-06
1.6017e-06
-7.22027e-06
9.96555e-07
-5.59334e-06
5.41967e-07
-4.12277e-06
2.32427e-07
-2.79743e-06
5.68034e-08
-1.60609e-06
-5.36623e-07
-2.30863e-06
-3.09987e-05
1.56503e-05
7.21226e-06
-3.74113e-05
1.37219e-05
-4.016e-05
1.77028e-05
-4.03681e-05
1.97009e-05
-3.87432e-05
2.01753e-05
-3.59749e-05
1.95446e-05
-3.25766e-05
1.8161e-05
-2.89457e-05
1.6313e-05
-2.53528e-05
1.42266e-05
-2.19646e-05
1.20714e-05
-1.88652e-05
9.9698e-06
-1.60808e-05
8.0051e-06
-1.36015e-05
6.23022e-06
-1.13994e-05
4.67552e-06
-9.44135e-06
3.35413e-06
-7.69521e-06
2.26809e-06
-6.13423e-06
1.41078e-06
-4.73603e-06
7.71188e-07
-3.48318e-06
3.34342e-07
-2.36059e-06
8.35566e-08
-1.3553e-06
-4.53067e-07
3.4846e-05
-3.77407e-05
-2.8104e-05
3.83603e-05
-4.09257e-05
3.94451e-05
-4.12448e-05
3.86556e-05
-3.95786e-05
3.65331e-05
-3.66207e-05
3.35261e-05
-3.29679e-05
3.00123e-05
-2.90628e-05
2.6286e-05
-2.52194e-05
2.25654e-05
-2.16322e-05
1.90023e-05
-1.84014e-05
1.56943e-05
-1.55572e-05
1.26985e-05
-1.3085e-05
1.00424e-05
-1.09454e-05
7.73338e-06
-9.09043e-06
5.76519e-06
-7.47315e-06
4.12366e-06
-6.05368e-06
2.78943e-06
-4.80001e-06
1.74175e-06
-3.68835e-06
9.58932e-07
-2.70036e-06
4.20652e-07
-1.82231e-06
1.07129e-07
-1.04178e-06
-3.45937e-07
6.66789e-05
-3.79053e-05
-6.65142e-05
6.42867e-05
-3.85335e-05
6.01396e-05
-3.70978e-05
5.48575e-05
-3.42964e-05
4.89767e-05
-3.07399e-05
4.29149e-05
-2.69062e-05
3.69829e-05
-2.31308e-05
3.13897e-05
-1.96262e-05
2.62599e-05
-1.65025e-05
2.16535e-05
-1.3795e-05
1.75856e-05
-1.14893e-05
1.40428e-05
-9.54223e-06
1.09961e-05
-7.89873e-06
8.40874e-06
-6.50306e-06
6.24174e-06
-5.30616e-06
4.45641e-06
-4.26834e-06
3.01674e-06
-3.36035e-06
1.88968e-06
-2.56129e-06
1.04672e-06
-1.85739e-06
4.63379e-07
-1.23897e-06
1.19729e-07
-6.98132e-07
-2.26209e-07
8.87084e-05
-3.18221e-05
-9.47916e-05
8.09177e-05
-3.07428e-05
7.22239e-05
-2.8404e-05
6.32601e-05
-2.53326e-05
5.45121e-05
-2.19919e-05
4.6311e-05
-1.87051e-05
3.88534e-05
-1.56732e-05
3.22261e-05
-1.29989e-05
2.64373e-05
-1.07137e-05
2.14453e-05
-8.80303e-06
1.7182e-05
-7.22596e-06
1.35697e-05
-5.92998e-06
1.05319e-05
-4.86086e-06
7.99809e-06
-3.9693e-06
5.9062e-06
-3.21426e-06
4.20237e-06
-2.56452e-06
2.84011e-06
-1.99808e-06
1.78004e-06
-1.50123e-06
9.89107e-07
-1.06646e-06
4.40943e-07
-6.90804e-07
1.15444e-07
-3.72634e-07
-1.10765e-07
9.50181e-05
-2.06312e-05
-0.000106209
8.32388e-05
-1.89635e-05
7.16087e-05
-1.67739e-05
6.06595e-05
-1.43833e-05
5.07229e-05
-1.20553e-05
4.19561e-05
-9.93825e-06
3.43844e-05
-8.10156e-06
2.79457e-05
-6.56018e-06
2.25288e-05
-5.29681e-06
1.80034e-05
-4.27763e-06
1.42398e-05
-3.46233e-06
1.11201e-05
-2.8103e-06
8.54359e-06
-2.28435e-06
6.42699e-06
-1.8527e-06
4.70277e-06
-1.49004e-06
3.31596e-06
-1.17771e-06
2.22128e-06
-9.03402e-07
1.38058e-06
-6.60519e-07
7.61621e-07
-4.47502e-07
3.37585e-07
-2.66768e-07
8.78603e-08
-1.22909e-07
-2.29044e-08
7.81364e-05
-7.72016e-06
-9.10474e-05
6.58547e-05
-6.68176e-06
5.46731e-05
-5.5924e-06
4.48459e-05
-4.55609e-06
3.64383e-05
-3.64765e-06
2.93881e-05
-2.88805e-06
2.35595e-05
-2.27298e-06
1.87851e-05
-1.78578e-06
1.4894e-05
-1.40573e-06
1.17287e-05
-1.11228e-06
9.15304e-06
-8.86688e-07
7.05538e-06
-7.12644e-07
5.34741e-06
-5.76373e-07
3.96131e-06
-4.66602e-07
2.84575e-06
-3.74488e-07
1.96158e-06
-2.93537e-07
1.27772e-06
-2.19543e-07
7.67809e-07
-1.50607e-07
4.07636e-07
-8.73292e-08
1.73817e-07
-3.2949e-08
4.39801e-08
6.928e-09
2.10757e-08
3.3465e-05
-4.11519e-05
2.68127e-05
2.12465e-05
1.67137e-05
1.30867e-05
1.02171e-05
7.96069e-06
6.18976e-06
4.79741e-06
3.69721e-06
2.82148e-06
2.11879e-06
1.55146e-06
1.09308e-06
7.26036e-07
4.39197e-07
2.25608e-07
8.01924e-08
-2.75668e-09
-3.22149e-08
-2.27836e-08
0.000298488
2.5724e-05
1.01976e-06
-0.000325232
0.000273228
2.41998e-05
1.06024e-06
0.000249361
2.27726e-05
1.09465e-06
0.000226806
2.14317e-05
1.1228e-06
0.000205489
2.01726e-05
1.14493e-06
0.000185336
1.89917e-05
1.16133e-06
0.000166279
1.78846e-05
1.17233e-06
0.000148254
1.68467e-05
1.17827e-06
0.0001312
1.58738e-05
1.17953e-06
0.000115063
1.49612e-05
1.17644e-06
9.97899e-05
1.41036e-05
1.16917e-06
8.53394e-05
1.32932e-05
1.15741e-06
7.16839e-05
1.25155e-05
1.13988e-06
5.88244e-05
1.17457e-05
1.11383e-06
4.68045e-05
1.0945e-05
1.0749e-06
3.57239e-05
1.0063e-05
1.01761e-06
2.5742e-05
9.04545e-06
9.36448e-07
1.70688e-05
7.84594e-06
8.27277e-07
9.94246e-06
6.43791e-06
6.8843e-07
4.59867e-06
4.82244e-06
5.21353e-07
1.23805e-06
3.0301e-06
3.3053e-07
1.11537e-06
1.2268e-07
0.000298083
5.23905e-05
-0.00032475
0.000272893
4.93902e-05
0.000249086
4.65796e-05
0.000226583
4.39344e-05
0.000205309
4.14462e-05
0.000185193
3.91077e-05
0.000166167
3.69105e-05
0.000148168
3.48461e-05
0.000131136
3.2906e-05
0.000115015
3.10818e-05
9.97559e-05
2.9363e-05
8.53155e-05
2.77335e-05
7.16675e-05
2.61636e-05
5.88129e-05
2.46003e-05
4.6796e-05
2.29618e-05
3.57173e-05
2.11417e-05
2.57367e-05
1.90261e-05
1.70647e-05
1.65179e-05
9.93978e-06
1.35628e-05
4.5974e-06
1.01648e-05
1.23777e-06
6.38973e-06
2.35313e-06
0.000296848
7.8854e-05
-0.000323312
0.000271833
7.44052e-05
0.000248176
7.02365e-05
0.000225804
6.63067e-05
0.000204644
6.26058e-05
0.000184628
5.9124e-05
0.00016569
5.5849e-05
0.000147767
5.27689e-05
0.000130801
4.98716e-05
0.000114738
4.71446e-05
9.95287e-05
4.45727e-05
8.51306e-05
4.21317e-05
7.1518e-05
3.97762e-05
5.8693e-05
3.74253e-05
4.67007e-05
3.49541e-05
3.56425e-05
3.22e-05
2.56796e-05
2.89889e-05
1.70234e-05
2.51741e-05
9.91292e-06
2.06734e-05
4.58314e-06
1.54946e-05
1.23307e-06
9.73979e-06
3.58621e-06
0.000295126
0.000105007
-0.000321278
0.000270381
9.91501e-05
0.000246954
9.36636e-05
0.000224778
8.84826e-05
0.000203786
8.35973e-05
0.000183914
7.89963e-05
0.000165099
7.46643e-05
0.000147281
7.05864e-05
0.000130405
6.67474e-05
0.000114419
6.31314e-05
9.92727e-05
5.97186e-05
8.49275e-05
5.64769e-05
7.1358e-05
5.33456e-05
5.85675e-05
5.02159e-05
4.66024e-05
4.69192e-05
3.55658e-05
4.32366e-05
2.56208e-05
3.8934e-05
1.69805e-05
3.38143e-05
9.88465e-06
2.77692e-05
4.56814e-06
2.08111e-05
1.22826e-06
1.30797e-05
4.81447e-06
0.000293096
0.000130757
-0.000318845
0.000268698
0.000123547
0.000245565
0.000116797
0.000223639
0.000110409
0.00020286
0.000104377
0.000183168
9.86883e-05
0.000164505
9.33269e-05
0.000146816
8.82752e-05
0.000130048
8.35155e-05
0.000114151
7.90289e-05
9.90777e-05
7.47917e-05
8.47903e-05
7.07642e-05
7.12651e-05
6.68708e-05
5.85065e-05
6.29745e-05
4.65625e-05
5.88632e-05
3.55384e-05
5.42606e-05
2.56002e-05
4.88722e-05
1.69641e-05
4.24505e-05
9.8721e-06
3.48612e-05
4.56017e-06
2.6123e-05
1.22509e-06
1.64147e-05
6.03957e-06
0.000291157
0.000156045
-0.000316446
0.000267154
0.000147551
0.000244349
0.000139602
0.000222699
0.000132059
0.00020215
0.000124925
0.00018265
0.000118189
0.000164145
0.000111831
0.000146585
0.000105835
0.000129921
0.00010018
0.000114105
9.48449e-05
9.90937e-05
8.98031e-05
8.485e-05
8.5008e-05
7.13519e-05
8.03689e-05
5.8605e-05
7.57214e-05
4.66593e-05
7.0809e-05
3.56223e-05
6.52976e-05
2.56643e-05
5.88301e-05
1.7006e-05
5.11088e-05
9.89439e-06
4.19728e-05
4.56842e-06
3.1449e-05
1.22608e-06
1.97571e-05
7.26565e-06
0.000289525
0.000180831
-0.00031431
0.000265945
0.000171131
0.000243486
0.00016206
0.000222121
0.000153424
0.000201806
0.000145241
0.000182494
0.000137501
0.00016414
0.000130185
0.000146699
0.000123276
0.000130125
0.000116754
0.000114374
0.000110596
9.94056e-05
0.000104772
8.51841e-05
9.92295e-05
7.16887e-05
9.38643e-05
5.89259e-05
8.84842e-05
4.69469e-05
8.2788e-05
3.58627e-05
7.63818e-05
2.58482e-05
6.88446e-05
1.71317e-05
5.98252e-05
9.96747e-06
4.91371e-05
4.60102e-06
3.68155e-05
1.23384e-06
2.31243e-05
8.49948e-06
0.000288377
0.000205085
-0.000312632
0.000265237
0.000194271
0.000243135
0.000184163
0.000222057
0.000174502
0.000201969
0.000165329
0.000182836
0.000156634
0.000164618
0.000148403
0.000147274
0.000140619
0.000130765
0.000133262
0.000115052
0.000126309
0.000100095
0.000119729
8.5862e-05
0.000113462
7.23334e-05
0.000107393
5.95159e-05
0.000101302
4.74622e-05
9.48418e-05
3.62863e-05
8.75576e-05
2.61704e-05
7.89606e-05
1.73519e-05
6.86438e-05
1.00964e-05
5.63926e-05
4.65887e-06
4.2253e-05
1.24777e-06
2.65354e-05
9.74725e-06
0.000287846
0.000228793
-0.000311553
0.000265148
0.000216969
0.000243391
0.000205919
0.000222582
0.000195311
0.000202701
0.00018521
0.000183721
0.000175614
0.000165612
0.000166513
0.000148339
0.000157892
0.000131869
0.000149733
0.000116163
0.000142015
0.000101188
0.000134704
8.69128e-05
0.000127738
7.33166e-05
0.000120989
6.04067e-05
0.000114212
4.82359e-05
0.000107013
3.6922e-05
9.88715e-05
2.66551e-05
8.92275e-05
1.76857e-05
7.76131e-05
1.02944e-05
6.37838e-05
4.75038e-06
4.7797e-05
1.27148e-06
3.00143e-05
1.10187e-05
0.000287969
0.000251938
-0.000311114
0.000265718
0.00023922
0.00024431
0.000227328
0.000223766
0.000215855
0.000204076
0.000204899
0.000185226
0.000194464
0.000167196
0.000184543
0.000149958
0.000175129
0.000133484
0.000166207
0.000117744
0.000157755
0.000102705
0.000149742
8.83397e-05
0.000142104
7.46278e-05
0.000134701
6.15761e-05
0.000127263
4.92379e-05
0.000119351
3.77354e-05
0.000110374
2.72683e-05
9.96946e-05
1.81028e-05
8.67786e-05
1.05378e-05
7.13489e-05
4.85945e-06
5.34754e-05
1.29769e-06
3.3576e-05
1.23164e-05
0.000288734
0.000274512
-0.000311309
0.00026691
0.000261044
0.000245818
0.00024842
0.000225505
0.000236168
0.000205978
0.000224426
0.000187234
0.000213208
0.000169259
0.000202518
0.000152034
0.000192354
0.000135536
0.000182705
0.000119738
0.000173552
0.000104613
0.000164867
9.01326e-05
0.000156584
7.62776e-05
0.000148556
6.30522e-05
0.000140489
5.05087e-05
0.000131894
3.87722e-05
0.000122111
2.80543e-05
0.000110413
1.86408e-05
9.61921e-05
1.08551e-05
7.91346e-05
5.0053e-06
5.93251e-05
1.33584e-06
3.72455e-05
1.36523e-05
0.000290166
0.000296483
-0.000312136
0.000268794
0.000282415
0.000248033
0.000269181
0.000227941
0.00025626
0.000208545
0.000243822
0.000189861
0.000231893
0.000171889
0.000220491
0.00015462
0.000209623
0.000138039
0.000199286
0.000122125
0.000189467
0.000106853
0.000180139
9.21992e-05
0.000171238
7.81429e-05
0.000162612
6.4688e-05
0.000153944
5.1887e-05
0.000144695
3.9871e-05
0.000134126
2.88656e-05
0.000121418
1.91785e-05
0.000105879
1.11579e-05
8.71552e-05
5.13408e-06
6.5349e-05
1.36356e-06
4.1016e-05
1.50158e-05
0.000292068
0.00031786
-0.000313445
0.000271078
0.000303405
0.000250605
0.000289654
0.000230715
0.00027615
0.000211447
0.000263091
0.000192823
0.000250516
0.000174856
0.000238458
0.000157544
0.000226935
0.000140878
0.000215951
0.000124844
0.000205501
0.000109421
0.000195562
9.45853e-05
0.000186074
8.03176e-05
0.00017688
6.66174e-05
0.000167644
5.3534e-05
0.000157779
4.12013e-05
0.000146459
2.98591e-05
0.00013276
1.98424e-05
0.000115896
1.1535e-05
9.54626e-05
5.29811e-06
7.15859e-05
1.40329e-06
4.49108e-05
1.64191e-05
0.000294342
0.000338426
-0.000314908
0.000273832
0.000323914
0.000253665
0.000309822
0.000233944
0.000295871
0.000214747
0.000282289
0.000196119
0.000269144
0.000178088
0.000256489
0.000160665
0.000244358
0.00014385
0.000232766
0.000127634
0.000221717
0.000112001
0.000211195
9.69307e-05
0.000201144
8.24021e-05
0.000191408
6.8413e-05
0.000181633
5.50122e-05
0.00017118
4.23399e-05
0.000159131
3.06551e-05
0.000144445
2.03251e-05
0.000126226
1.17686e-05
0.000104019
5.37101e-06
7.79835e-05
1.4065e-06
4.88753e-05
1.78256e-05
0.000296919
0.000358241
-0.000316734
0.000276755
0.000344078
0.000256895
0.000329681
0.00023738
0.000315385
0.0002183
0.000301369
0.000199712
0.000287731
0.000181654
0.000274547
0.000164146
0.000261866
0.000147197
0.000249716
0.000130804
0.000238109
0.000114958
0.000227041
9.96368e-05
0.000216465
8.48196e-05
0.000206226
7.05008e-05
0.000195952
5.67291e-05
0.000184951
4.36546e-05
0.000172206
3.156e-05
0.00015654
2.08489e-05
0.000136937
1.19829e-05
0.000112885
5.38571e-06
8.45807e-05
1.35466e-06
5.29064e-05
1.91803e-05
1.33823e-05
0.000360752
-1.58931e-05
1.08028e-05
0.000346658
8.32852e-06
0.000332156
5.8709e-06
0.000317843
3.44101e-06
0.000303799
1.03483e-06
0.000290137
-1.34607e-06
0.000276928
-3.69634e-06
0.000264216
-6.00858e-06
0.000252028
-8.27108e-06
0.000240372
-1.04583e-05
0.000229229
-1.2508e-05
0.000218515
-1.42878e-05
0.000208005
-1.55734e-05
0.000197237
-1.60707e-05
0.000185448
-1.55013e-05
0.000171637
-1.37304e-05
0.000154769
-1.08778e-05
0.000134084
-7.36115e-06
0.000109368
-3.84658e-06
8.10661e-05
-1.13292e-06
5.01927e-05
1.80474e-05
8.30929e-06
0.000363581
-1.1138e-05
5.61125e-06
0.000349356
2.94975e-06
0.000334817
3.43161e-07
0.00032045
-2.19172e-06
0.000306334
-4.65428e-06
0.0002926
-7.03899e-06
0.000279313
-9.34046e-06
0.000266518
-1.15513e-05
0.000254239
-1.36571e-05
0.000242477
-1.56226e-05
0.000231194
-1.73654e-05
0.000220258
-1.87271e-05
0.000209367
-1.94663e-05
0.000197977
-1.92992e-05
0.000185281
-1.7995e-05
0.000170332
-1.54937e-05
0.000152267
-1.19949e-05
0.000130586
-7.97583e-06
0.000105349
-4.12721e-06
7.72175e-05
-1.22704e-06
4.72925e-05
1.68203e-05
3.1916e-06
0.000366639
-6.25008e-06
3.72019e-07
0.000352175
-2.40104e-06
0.00033759
-5.06793e-06
0.000323116
-7.62619e-06
0.000308892
-1.00722e-05
0.000295046
-1.2401e-05
0.000281642
-1.46081e-05
0.000268725
-1.66855e-05
0.000256316
-1.86134e-05
0.000244405
-2.03422e-05
0.000232923
-2.17649e-05
0.00022168
-2.26962e-05
0.000210299
-2.28812e-05
0.000198161
-2.20531e-05
0.000184453
-2.00347e-05
0.000168314
-1.68441e-05
0.000149077
-1.2762e-05
0.000126504
-8.32326e-06
0.000100911
-4.23347e-06
7.31277e-05
-1.23853e-06
4.42976e-05
1.55818e-05
-1.92099e-06
0.000369826
-1.26563e-06
-4.85091e-06
0.000355105
-7.68792e-06
0.000340427
-1.03759e-05
0.000325804
-1.29212e-05
0.000311437
-1.5318e-05
0.000297443
-1.7563e-05
0.000283887
-1.96526e-05
0.000270814
-2.15765e-05
0.00025824
-2.33061e-05
0.000246135
-2.47728e-05
0.00023439
-2.58425e-05
0.00022275
-2.63052e-05
0.000210761
-2.59013e-05
0.000197758
-2.43936e-05
0.000182946
-2.16694e-05
0.00016559
-1.78319e-05
0.000145239
-1.32401e-05
0.000121912
-8.47416e-06
9.61446e-05
-4.23546e-06
6.8889e-05
-1.21763e-06
4.12798e-05
1.43642e-05
-7.13405e-06
0.000373082
3.87823e-06
-1.01335e-05
0.000358105
-1.29845e-05
0.000343278
-1.56525e-05
0.000328472
-1.8147e-05
0.000313932
-2.04625e-05
0.000299758
-2.25979e-05
0.000286022
-2.45488e-05
0.000272765
-2.63003e-05
0.000259991
-2.78104e-05
0.000247645
-2.89873e-05
0.000235566
-2.96687e-05
0.000223431
-2.96254e-05
0.000210718
-2.8603e-05
0.000196735
-2.64066e-05
0.000180749
-2.29965e-05
0.00016218
-1.85615e-05
0.000140804
-1.35303e-05
0.00011688
-8.51265e-06
9.1127e-05
-4.18804e-06
6.45644e-05
-1.18587e-06
3.82776e-05
1.31783e-05
-1.25857e-05
0.000376367
9.30081e-06
-1.56106e-05
0.00036113
-1.84347e-05
0.000346102
-2.10472e-05
0.000331085
-2.34572e-05
0.000316342
-2.56623e-05
0.000301963
-2.76626e-05
0.000288023
-2.94519e-05
0.000274555
-3.10068e-05
0.000261546
-3.22678e-05
0.000248906
-3.31161e-05
0.000236415
-3.33626e-05
0.000223678
-3.27647e-05
0.00021012
-3.10868e-05
0.000195057
-2.8186e-05
0.000177848
-2.41038e-05
0.000158097
-1.91113e-05
0.000135812
-1.36968e-05
0.000111466
-8.48261e-06
8.59128e-05
-4.11375e-06
6.01955e-05
-1.14888e-06
3.53127e-05
1.20294e-05
-1.84283e-05
0.000379637
1.51584e-05
-2.14282e-05
0.000364129
-2.4184e-05
0.000348858
-2.67034e-05
0.000333604
-2.89951e-05
0.000318634
-3.106e-05
0.000304028
-3.28985e-05
0.000289861
-3.44997e-05
0.000276156
-3.58278e-05
0.000262874
-3.68002e-05
0.000249879
-3.72695e-05
0.000236884
-3.7021e-05
0.000223429
-3.58103e-05
0.000208909
-3.34297e-05
0.000192677
-2.98039e-05
0.000174223
-2.5056e-05
0.000153349
-1.95385e-05
0.000130294
-1.37828e-05
0.00010571
-8.41289e-06
8.05429e-05
-4.026e-06
5.58086e-05
-1.11047e-06
3.23972e-05
1.09189e-05
-2.48752e-05
0.00038285
2.16614e-05
-2.78016e-05
0.000367056
-3.04481e-05
0.000351505
-3.28352e-05
0.000335991
-3.4972e-05
0.000320771
-3.68628e-05
0.000305919
-3.85061e-05
0.000291504
-3.98833e-05
0.000277533
-4.09405e-05
0.000263932
-4.15683e-05
0.000250506
-4.15878e-05
0.000236903
-4.07666e-05
0.000222608
-3.88655e-05
0.000207008
-3.57238e-05
0.000189535
-3.13374e-05
0.000169836
-2.59213e-05
0.000147933
-1.98946e-05
0.000124268
-1.38274e-05
9.96432e-05
-8.32475e-06
7.50402e-05
-3.93536e-06
5.14193e-05
-1.07271e-06
2.95345e-05
9.84622e-06
-3.21244e-05
0.000385958
2.90169e-05
-3.49239e-05
0.000369855
-3.74149e-05
0.000353996
-3.9626e-05
0.000338202
-4.15675e-05
0.000322712
-4.32452e-05
0.000307597
-4.46533e-05
0.000292913
-4.57602e-05
0.00027864
-4.64888e-05