/*--------------------------------*- C++ -*----------------------------------*\
| =========                 |                                                 |
| \\      /  F ield         | OpenFOAM Extend Project: Open source CFD        |
|  \\    /   O peration     | Version:  1.6-ext                               |
|   \\  /    A nd           | Web:      www.extend-project.de                 |
|    \\/     M anipulation  |                                                 |
\*---------------------------------------------------------------------------*/
FoamFile
{
    version     2.0;
    format      ascii;
    class       volVectorField;
    location    "0.3";
    object      U;
}
// * * * * * * * * * * * * * * * * * * * * * * * * * * * * * * * * * * * * * //

dimensions      [0 1 -1 0 0 0 0];

internalField   nonuniform List<vector> 
20940
(
(1.85841 0.381906 9.11811e-22)
(1.89882 0.402107 -1.01448e-21)
(1.93722 0.421658 0)
(1.97276 0.439503 -2.02738e-21)
(2.00521 0.455893 2.23792e-21)
(2.03304 0.469757 -4.43098e-21)
(2.05343 0.480068 0)
(2.0617 0.48496 0)
(2.05152 0.482249 0)
(2.01568 0.46968 0)
(1.94763 0.445605 0)
(1.84327 0.409609 0)
(1.70248 0.362909 5.4093e-21)
(1.52965 0.308311 1.28258e-20)
(1.33299 0.249717 -1.36127e-20)
(1.12297 0.191377 7.80395e-21)
(0.910331 0.137165 -8.49822e-21)
(0.704559 0.0901 1.31604e-20)
(0.512865 0.0521182 0)
(0.339901 0.0241041 1.00296e-20)
(0.187948 0.00663155 -1.53845e-20)
(0.057372 0.000465909 0)
(1.88545 0.35733 8.71754e-22)
(1.92468 0.376387 0)
(1.96159 0.39414 0)
(1.99509 0.410237 0)
(2.02447 0.424395 -7.46713e-21)
(2.04738 0.435479 2.31295e-20)
(2.05998 0.442164 1.51575e-21)
(2.05664 0.442485 0)
(2.03056 0.434389 0)
(1.97496 0.416121 0)
(1.8849 0.386887 1.6444e-20)
(1.75884 0.347293 5.08172e-22)
(1.59963 0.299466 -5.37352e-21)
(1.41421 0.246721 -1.17418e-20)
(1.21234 0.192924 0)
(1.00476 0.141784 -2.96234e-20)
(0.80139 0.0963174 7.6825e-21)
(0.610249 0.0585965 -4.32832e-21)
(0.436895 0.0297129 0)
(0.284497 0.00990743 9.16978e-21)
(0.154238 -0.000682116 5.05003e-21)
(0.0458485 -0.00154314 0)
(1.91021 0.332681 -8.69757e-22)
(1.94795 0.350684 3.68167e-21)
(1.98286 0.366771 -4.08424e-21)
(2.01353 0.381167 0)
(2.03853 0.393033 -1.48806e-20)
(2.05454 0.401164 0)
(2.05667 0.40399 -1.29964e-20)
(2.03857 0.399589 -1.84051e-20)
(1.99348 0.386236 -1.30573e-21)
(1.91584 0.362876 -2.57837e-20)
(1.80298 0.32965 -4.73599e-20)
(1.65635 0.288101 3.40313e-20)
(1.48161 0.240996 0)
(1.2877 0.191802 3.41359e-20)
(1.0851 0.144017 0)
(0.884036 0.100611 2.80793e-20)
(0.693102 0.0637054 1.60853e-20)
(0.51861 0.0345194 -1.60957e-20)
(0.364487 0.0134598 1.64623e-20)
(0.232571 0.000292484 -9.16679e-21)
(0.123131 -0.0051567 4.66888e-20)
(0.0354043 -0.00257924 -3.857e-20)
(1.93385 0.30831 0)
(1.96967 0.325374 -1.33115e-20)
(2.00183 0.339881 1.29062e-20)
(2.02846 0.352533 1.13438e-20)
(2.04717 0.361932 -2.53718e-21)
(2.05355 0.366827 1.91005e-20)
(2.0418 0.365512 0)
(2.00531 0.356303 3.69494e-20)
(1.93815 0.338021 2.23349e-21)
(1.83678 0.310456 -9.84401e-22)
(1.70143 0.274679 7.35691e-20)
(1.53659 0.232967 -1.75857e-20)
(1.3503 0.18839 0)
(1.15268 0.144206 8.48305e-22)
(0.954019 0.103292 -9.60019e-20)
(0.763352 0.0677798 5.15481e-20)
(0.587574 0.0389439 0)
(0.431229 0.0172906 -1.55113e-20)
(0.29673 0.00271037 -1.64492e-20)
(0.184786 -0.00535097 1.63081e-20)
(0.0949508 -0.00726276 -9.05649e-21)
(0.0261142 -0.00284162 7.59253e-21)
(1.95613 0.284335 2.34083e-21)
(1.98944 0.300521 8.34696e-21)
(2.01779 0.313462 -7.40697e-21)
(2.03866 0.324242 -1.23643e-20)
(2.04848 0.330919 -2.0782e-21)
(2.04183 0.33228 -2.21856e-20)
(2.0124 0.326647 0)
(1.95403 0.312799 3.67228e-20)
(1.86255 0.290285 -6.11094e-20)
(1.73717 0.259798 5.17821e-20)
(1.58131 0.223192 -2.56641e-20)
(1.40216 0.183167 -6.43261e-20)
(1.20936 0.142731 -3.62564e-20)
(1.01318 0.104635 1.12535e-21)
(0.822919 0.0709916 2.19948e-20)
(0.645944 0.0431078 4.97976e-20)
(0.487292 0.0215367 -1.05918e-19)
(0.349841 0.00624108 -1.12879e-21)
(0.234707 -0.00323852 5.94756e-20)
(0.141714 -0.00764012 -1.62948e-20)
(0.0699103 -0.00743192 -6.6722e-20)
(0.0179886 -0.00249419 5.50712e-20)
(1.97671 0.260803 -4.5642e-21)
(2.00662 0.276168 0)
(2.02961 0.287494 0)
(2.04228 0.296183 -4.10314e-20)
(2.03988 0.299831 1.06859e-20)
(2.01628 0.297406 3.95778e-20)
(1.96532 0.28748 -1.78619e-21)
(1.88231 0.269504 3.61787e-20)
(1.76566 0.243859 1.3099e-21)
(1.61784 0.212052 4.74744e-20)
(1.44524 0.17645 0)
(1.25701 0.139813 3.07384e-20)
(1.06329 0.104757 3.6126e-20)
(0.87359 0.0733464 -5.90055e-20)
(0.695605 0.0469043 6.20218e-20)
(0.534783 0.0260213 0)
(0.394373 0.0106933 0)
(0.275814 0.000511467 2.57683e-20)
(0.179202 -0.00518838 -5.6827e-20)
(0.10373 -0.00722134 3.00699e-20)
(0.0481335 -0.00608608 0)
(0.0110327 -0.00168874 3.95621e-20)
(1.99531 0.237614 6.67257e-21)
(2.02039 0.252121 0)
(2.03571 0.261678 0)
(2.03691 0.268014 0)
(2.01827 0.268375 -2.17313e-21)
(1.97359 0.262116 -3.26864e-21)
(1.89785 0.248268 8.73198e-20)
(1.78879 0.227104 -3.11312e-20)
(1.64808 0.199799 -4.04898e-20)
(1.48138 0.168448 -9.2849e-20)
(1.29736 0.135581 5.42692e-20)
(1.10602 0.103677 -1.49927e-19)
(0.916969 0.0747457 6.52999e-20)
(0.738179 0.0501112 3.56428e-20)
(0.575422 0.0303939 0)
(0.432251 0.015624 0)
(0.310351 0.00541353 4.71382e-20)
(0.21002 -0.000868028 -7.50584e-20)
(0.130622 -0.00397792 0)
(0.0709543 -0.00473472 -2.74189e-20)
(0.029601 -0.0036257 5.78767e-20)
(0.00520722 -0.000563069 1.26815e-20)
(2.01079 0.214678 0)
(2.02901 0.228298 0)
(2.03357 0.235906 -2.28071e-20)
(2.01932 0.239638 2.97246e-20)
(1.9801 0.236585 -3.63625e-20)
(1.91067 0.226726 4.56338e-20)
(1.80823 0.209718 -5.57329e-20)
(1.67376 0.186673 2.50865e-21)
(1.51228 0.159374 -7.50437e-20)
(1.33205 0.130174 1.3468e-19)
(1.14289 0.101423 3.94618e-23)
(0.954491 0.0750801 -5.52376e-20)
(0.775059 0.0524699 0)
(0.610624 0.0342418 3.44352e-20)
(0.464984 0.0204629 1.83565e-21)
(0.340012 0.0107749 -8.05854e-20)
(0.236144 0.00455897 -4.26426e-20)
(0.152853 0.00107695 0)
(0.0890392 -0.000447003 1.00183e-19)
(0.0432961 -0.000793394 -1.56626e-19)
(0.0141843 -0.000419358 5.4408e-20)
(0.000441523 0.000761457 3.50479e-20)
(2.02227 0.191563 2.83474e-20)
(2.03054 0.204194 -3.14903e-20)
(2.02032 0.209679 2.25974e-20)
(1.98608 0.210753 -2.94513e-20)
(1.92223 0.204515 0)
(1.82559 0.191752 0)
(1.69656 0.172788 5.52407e-20)
(1.53961 0.149434 3.26209e-20)
(1.36263 0.123781 0)
(1.17533 0.0981119 -8.51719e-20)
(0.987468 0.0743407 -1.81932e-22)
(0.807447 0.0538108 2.17511e-21)
(0.641532 0.0372132 0)
(0.493718 0.024665 0)
(0.366024 0.015852 0)
(0.258971 0.0101838 0)
(0.172079 0.00692814 1.25768e-19)
(0.10429 0.00531545 -8.736e-20)
(0.0542536 0.00459145 2.27701e-20)
(0.0205095 0.00402854 -2.3979e-20)
(0.0016832 0.00319913 0)
(-0.00335151 0.00217932 -9.97866e-21)
(2.02694 0.168237 6.63737e-21)
(2.0217 0.17995 -1.43475e-20)
(1.99229 0.1833 -5.01481e-20)
(1.93382 0.181904 2.9696e-20)
(1.84246 0.173031 3.89392e-20)
(1.71823 0.158408 0)
(1.56514 0.138903 5.38964e-20)
(1.39079 0.116772 0)
(1.20485 0.0940876 7.33525e-20)
(1.0172 0.0727966 -3.8313e-20)
(0.836458 0.0542657 -4.63357e-20)
(0.669103 0.0392562 4.99721e-20)
(0.519315 0.0279588 -5.48069e-20)
(0.389222 0.0201288 0)
(0.279389 0.0152303 0)
(0.189339 0.0125645 -7.31771e-20)
(0.11799 0.0113669 -1.44922e-21)
(0.0639791 0.0108804 -4.20091e-20)
(0.025871 0.0103871 6.49026e-20)
(0.002251 0.00920798 -9.23809e-20)
(-0.00813696 0.00692997 9.67431e-20)
(-0.00626162 0.0035976 2.12959e-20)
(2.02366 0.143738 3.53157e-20)
(2 0.154728 -8.43512e-20)
(1.94683 0.156285 5.00655e-20)
(1.86071 0.153184 0)
(1.74084 0.14283 -7.88189e-20)
(1.59102 0.127824 4.4381e-20)
(1.41862 0.109338 1.02893e-21)
(1.23337 0.0897792 -5.94429e-20)
(1.04535 0.0709469 3.62022e-20)
(0.86346 0.0543355 -7.6286e-20)
(0.694434 0.0407856 0)
(0.542635 0.0306009 0)
(0.410289 0.0236383 5.30123e-22)
(0.297985 0.0194526 -1.34795e-21)
(0.205209 0.0174162 6.2691e-20)
(0.130811 0.016812 6.92381e-20)
(0.0733559 0.0168977 -7.30715e-20)
(0.0313528 0.0169523 4.0365e-20)
(0.00338166 0.0162965 0)
(-0.0118687 0.014287 -6.59541e-20)
(-0.0155145 0.0105035 1.14081e-19)
(-0.0083688 0.0049289 0)
(2.0072 0.118907 -3.87993e-20)
(1.96177 0.129833 -4.84123e-20)
(1.88147 0.130182 2.43452e-20)
(1.76647 0.126351 -2.2334e-21)
(1.61967 0.11577 -1.58085e-21)
(1.44869 0.101803 0)
(1.26335 0.0856331 0)
(1.07417 0.0695479 0)
(0.890401 0.0549301 3.35556e-20)
(0.719139 0.0428076 0)
(0.564955 0.0335956 8.3656e-20)
(0.430189 0.0272893 -4.53652e-20)
(0.315447 0.023566 0)
(0.220166 0.02191 0)
(0.143107 0.0216997 -6.07605e-20)
(0.0827261 0.0222652 3.25493e-20)
(0.0374229 0.0229249 0)
(0.00569156 0.0230125 -7.53024e-20)
(-0.0138148 0.0218889 -3.98714e-20)
(-0.022285 0.0189369 8.30821e-20)
(-0.0207029 0.0137101 -1.10297e-19)
(-0.00975184 0.00609915 -3.47295e-22)
(1.97952 0.0914747 3.88092e-20)
(1.90688 0.103489 4.72311e-20)
(1.79727 0.104211 0)
(1.65412 0.101458 0)
(1.48421 0.0925635 -4.15067e-20)
(1.2982 0.0812771 4.44902e-20)
(1.10694 0.0686384 0)
(0.920383 0.0566456 5.66426e-20)
(0.746011 0.0462824 1.3875e-21)
(0.588713 0.0381914 -1.41838e-19)
(0.450957 0.0325058 7.7782e-20)
(0.333385 0.0290564 -1.32504e-19)
(0.235397 0.0274674 4.75832e-20)
(0.155672 0.0272509 0)
(0.0925576 0.0278616 0)
(0.0443356 0.0287265 3.15986e-20)
(0.00937824 0.0292588 0)
(-0.0137674 0.0288686 3.50097e-20)
(-0.0263544 0.0269689 1.45541e-21)
(-0.0294606 0.0229719 1.95476e-20)
(-0.0239695 0.0164014 0)
(-0.0104871 0.00704121 -1.75862e-20)
(1.93179 0.0656539 -4.24814e-20)
(1.83371 0.0797318 1.11128e-19)
(1.69558 0.081795 3.78589e-21)
(1.52826 0.0813221 0)
(1.34126 0.0754723 3.98186e-20)
(1.14738 0.0679649 -4.54713e-20)
(0.957015 0.0596445 -5.03818e-20)
(0.778529 0.0520286 -5.65931e-20)
(0.61712 0.0457429 1.23115e-19)
(0.475476 0.0411151 0)
(0.354281 0.0381122 3.73195e-20)
(0.252918 0.036512 0)
(0.170014 0.0359793 4.65779e-20)
(0.103845 0.0361265 -5.07767e-20)
(0.0526026 0.0365395 5.42052e-20)
(0.0145572 0.0367846 5.9769e-20)
(-0.0118579 0.0364042 -1.27491e-19)
(-0.0280094 0.0349151 -3.55355e-20)
(-0.0350636 0.031808 1.08719e-19)
(-0.0340181 0.0265441 -1.94094e-20)
(-0.0257027 0.0186346 9.96234e-20)
(-0.010707 0.00776445 -5.1235e-20)
(1.87707 0.0330895 -5.19344e-20)
(1.74864 0.053555 3.50401e-21)
(1.58396 0.0607212 -6.23528e-20)
(1.39759 0.0649009 2.95666e-21)
(1.20049 0.064498 4.10815e-20)
(1.00587 0.0622566 -4.36109e-22)
(0.822331 0.0590865 0)
(0.655797 0.0559737 -5.45679e-20)
(0.509114 0.053363 -5.97869e-20)
(0.383088 0.0514395 0)
(0.277129 0.0501648 -7.28129e-20)
(0.189869 0.0493843 0)
(0.119579 0.0488815 0)
(0.0644321 0.0484129 0)
(0.0226574 0.047719 5.28826e-20)
(-0.0073762 0.0465192 -5.62725e-20)
(-0.0271255 0.0445001 6.1522e-20)
(-0.0378638 0.0413052 -6.4913e-20)
(-0.0406902 0.0365302 0)
(-0.0365602 0.0297186 -1.09538e-19)
(-0.026299 0.0204126 5.69089e-20)
(-0.0105469 0.00824956 -8.32578e-20)
(1.76004 0.0174926 -7.30664e-21)
(1.59151 0.0343871 0)
(1.40114 0.0474022 -1.15602e-19)
(1.20291 0.0558361 4.584e-20)
(1.00703 0.0615193 0)
(0.823715 0.0649022 0)
(0.657738 0.0669751 0)
(0.511912 0.068153 1.14616e-19)
(0.386668 0.0687517 -7.90224e-23)
(0.281252 0.068899 -6.82707e-20)
(0.194185 0.0686166 3.76897e-20)
(0.123699 0.0678643 1.24339e-19)
(0.0679676 0.0665708 -8.93184e-20)
(0.0252431 0.0646509 0)
(-0.00608706 0.0620075 5.37281e-20)
(-0.0274761 0.0585239 -1.14901e-19)
(-0.0402167 0.0540495 1.2309e-19)
(-0.0454502 0.0483885 -6.51176e-20)
(-0.0441824 0.0412936 0)
(-0.0373115 0.0324648 3.66941e-20)
(-0.0256461 0.0215792 0)
(-0.00987546 0.0083612 3.26597e-20)
(1.53332 0.0106173 2.93611e-20)
(1.33486 0.0314347 1.64102e-22)
(1.13891 0.0507876 1.20628e-19)
(0.948109 0.0634878 -8.64293e-20)
(0.772494 0.0741092 0)
(0.615576 0.0810211 0)
(0.47875 0.0859658 0)
(0.361799 0.0890026 0)
(0.263495 0.0905828 6.40206e-20)
(0.182191 0.0908886 7.05877e-20)
(0.116112 0.0900485 -7.63549e-20)
(0.0635219 0.0881272 -1.26389e-19)
(0.0228071 0.0851593 4.50045e-20)
(-0.00750119 0.0811633 0)
(-0.0287249 0.0761465 0)
(-0.0420498 0.0701017 -2.86904e-20)
(-0.0485385 0.062998 0)
(-0.0491449 0.0547727 0)
(-0.0447293 0.0453268 0)
(-0.0360785 0.034523 0)
(-0.0239173 0.022206 0)
(-0.00889325 0.00824892 4.77181e-20)
(1.27112 0.0177382 7.70089e-20)
(1.07115 0.0430063 -8.4174e-20)
(0.891737 0.0669841 0)
(0.723582 0.0830334 9.5103e-20)
(0.57656 0.0965619 1.5075e-21)
(0.448312 0.1054 5.36998e-20)
(0.339057 0.111545 0)
(0.247054 0.114979 0)
(0.170768 0.116257 0)
(0.108491 0.11564 0)
(0.0586361 0.113364 0)
(0.0197251 0.109593 -8.61028e-20)
(-0.00958727 0.104454 1.38774e-19)
(-0.0305181 0.0980487 -5.05054e-20)
(-0.0441648 0.0904646 5.37288e-20)
(-0.0515164 0.0817751 2.90213e-20)
(-0.0534648 0.0720376 0)
(-0.0508168 0.0612897 0)
(-0.0443057 0.0495464 -3.39447e-20)
(-0.034608 0.0367994 7.12608e-20)
(-0.0223471 0.023033 1.97508e-22)
(-0.00808487 0.00826047 -6.26892e-20)
(1.01269 0.0356724 -1.18347e-19)
(0.831531 0.0656923 8.71884e-20)
(0.678212 0.0919719 4.74107e-20)
(0.53754 0.110316 -1.45033e-19)
(0.418262 0.124608 5.48359e-20)
(0.315347 0.133707 0)
(0.228968 0.139313 5.89458e-20)
(0.157033 0.141671 -6.43385e-20)
(0.098221 0.141442 0)
(0.0510155 0.139016 0)
(0.0140577 0.134732 0)
(-0.0139326 0.128828 0)
(-0.0341219 0.121482 0)
(-0.0475663 0.112828 0)
(-0.0552132 0.102979 0)
(-0.0579095 0.0920368 0)
(-0.0564113 0.0800978 0)
(-0.0513941 0.0672514 0)
(-0.0434654 0.0535802 3.41698e-20)
(-0.0331792 0.0391585 0)
(-0.0210348 0.0240678 9.13681e-20)
(-0.0074673 0.00842724 -6.18187e-20)
(0.778398 0.0604474 -4.26484e-20)
(0.624714 0.0935982 1.92366e-21)
(0.497494 0.119695 2.26379e-21)
(0.382569 0.138594 5.28978e-20)
(0.286499 0.151898 -5.38479e-20)
(0.204407 0.159872 -1.16484e-19)
(0.136528 0.163791 6.28595e-20)
(0.0809721 0.164242 0)
(0.0366145 0.161963 3.61735e-20)
(0.00208067 0.157467 -1.16049e-19)
(-0.0238806 0.151164 -3.14062e-23)
(-0.042462 0.143332 8.95894e-20)
(-0.0547463 0.134158 -4.83172e-20)
(-0.0616997 0.123771 1.03316e-19)
(-0.0641703 0.112269 2.78549e-22)
(-0.0628955 0.0997411 -5.83973e-20)
(-0.0585141 0.0862801 -6.19692e-20)
(-0.0515784 0.0719845 8.10376e-20)
(-0.0425683 0.0569594 0)
(-0.0319066 0.041314 -8.80213e-20)
(-0.0199547 0.0251761 5.43227e-20)
(-0.00700015 0.00871365 -1.52122e-20)
(0.569142 0.0851409 -1.39749e-19)
(0.442648 0.119413 -4.76676e-20)
(0.337758 0.144078 5.27417e-20)
(0.244862 0.16202 0)
(0.168044 0.173415 0)
(0.103734 0.179418 -1.54893e-21)
(0.0519311 0.181087 0)
(0.0109914 0.179292 0)
(-0.0202209 0.174855 -7.40159e-20)
(-0.0430618 0.168397 3.94269e-20)
(-0.0587879 0.160376 8.53339e-20)
(-0.0685757 0.151084 -9.17088e-20)
(-0.0734692 0.140692 0)
(-0.0743694 0.12929 5.24253e-20)
(-0.0720377 0.116928 1.39508e-22)
(-0.0671086 0.103653 -1.47319e-19)
(-0.0601065 0.0895174 7.74859e-20)
(-0.0514624 0.074592 4.8785e-20)
(-0.0415293 0.0589635 -1.52321e-19)
(-0.0305979 0.0427329 1.57863e-19)
(-0.0188959 0.0260239 -9.01574e-20)
(-0.00657409 0.00899222 8.30879e-20)
(0.374485 0.104147 4.75016e-20)
(0.272082 0.138 7.94551e-22)
(0.186822 0.160878 -1.06043e-19)
(0.113668 0.17689 5.76509e-20)
(0.0545369 0.185966 0)
(0.00704962 0.189613 6.22843e-20)
(-0.0292691 0.188895 0)
(-0.0559639 0.18488 0)
(-0.074318 0.178483 3.78005e-20)
(-0.0857354 0.170409 4.10038e-20)
(-0.0915069 0.161149 4.35608e-20)
(-0.0927943 0.150989 -1.53258e-22)
(-0.0905906 0.140064 -4.98689e-20)
(-0.0857163 0.128408 5.30029e-20)
(-0.0788325 0.116008 -5.61743e-20)
(-0.0704621 0.102846 -2.96585e-20)
(-0.061013 0.0889144 1.08959e-19)
(-0.0507987 0.0742311 -8.12859e-20)
(-0.0400542 0.0588364 1.69494e-20)
(-0.028951 0.0427915 0)
(-0.0176066 0.0261766 -5.37738e-20)
(-0.00607235 0.0090852 4.47648e-20)
(0.185761 0.114984 -1.04431e-21)
(0.105458 0.147157 -5.07652e-20)
(0.0394513 0.168087 1.10574e-19)
(-0.0142682 0.181671 0)
(-0.0554514 0.188254 -6.11508e-20)
(-0.0858281 0.189448 -3.24038e-20)
(-0.106397 0.186444 0)
(-0.11874 0.180448 0)
(-0.124305 0.172459 0)
(-0.124533 0.163235 -4.1423e-20)
(-0.120708 0.153277 4.43201e-20)
(-0.113927 0.142851 -4.75682e-20)
(-0.105081 0.132046 -5.041e-20)
(-0.0948719 0.120832 5.36325e-20)
(-0.0838311 0.109128 2.83453e-20)
(-0.072355 0.0968468 1.49114e-20)
(-0.0607317 0.0839155 7.80647e-20)
(-0.049165 0.070291 -4.88394e-20)
(-0.0377889 0.0559576 -1.68541e-20)
(-0.0266802 0.0409231 8.69349e-20)
(-0.015884 0.0252046 -9.7011e-23)
(-0.00540737 0.00880677 -4.42827e-20)
(0.00273012 0.117956 -4.9232e-20)
(-0.0558247 0.147069 5.2385e-20)
(-0.101597 0.165509 -5.4885e-20)
(-0.135196 0.176284 5.73686e-20)
(-0.157598 0.18024 -1.27568e-21)
(-0.170392 0.179027 3.27477e-20)
(-0.175036 0.173986 6.89976e-20)
(-0.173212 0.166403 -7.51583e-20)
(-0.166467 0.157319 0)
(-0.156213 0.147502 -4.20979e-20)
(-0.143635 0.137429 9.03037e-20)
(-0.129684 0.127326 -4.82266e-20)
(-0.115086 0.117224 -5.09609e-20)
(-0.100369 0.107034 5.41811e-20)
(-0.0859035 0.0966128 2.84945e-20)
(-0.071944 0.085813 -7.50075e-20)
(-0.0586566 0.0745095 5.53281e-24)
(-0.0461457 0.0626099 0)
(-0.0344658 0.0500528 3.37557e-20)
(-0.0236281 0.0368021 -1.73927e-20)
(-0.0136487 0.0228171 8.85944e-21)
(-0.00454934 0.00801759 -6.56923e-20)
(-0.166874 0.114456 -4.8533e-20)
(-0.203174 0.138981 0)
(-0.227566 0.153908 -2.57179e-20)
(-0.240453 0.161363 5.95273e-20)
(-0.243702 0.16254 0)
(-0.239096 0.159079 -3.30294e-20)
(-0.228445 0.152407 0)
(-0.213503 0.143806 1.84716e-20)
(-0.195796 0.134283 -6.06282e-20)
(-0.176587 0.124545 -6.41652e-20)
(-0.156855 0.115 4.59252e-20)
(-0.13731 0.105805 4.84906e-20)
(-0.118439 0.0969289 -5.17588e-20)
(-0.100551 0.0882295 -5.44882e-20)
(-0.083834 0.079518 5.76219e-20)
(-0.068386 0.0706092 -6.02407e-20)
(-0.0542545 0.0613495 6.31109e-20)
(-0.0414564 0.0516248 0)
(-0.0299861 0.0413573 -1.68926e-20)
(-0.019817 0.0304973 6.92092e-20)
(-0.010972 0.018978 -7.97868e-20)
(-0.00353492 0.00667267 -5.79059e-20)
(-0.310041 0.105241 0)
(-0.323386 0.123855 0)
(-0.325788 0.134225 2.74019e-20)
(-0.318203 0.137911 2.84686e-20)
(-0.303123 0.136303 -6.2906e-20)
(-0.282629 0.130977 4.20626e-22)
(-0.258707 0.123316 5.3338e-20)
(-0.23304 0.114484 -1.93593e-20)
(-0.206951 0.105347 2.02742e-20)
(-0.181402 0.0964694 2.16411e-20)
(-0.157037 0.0881403 -4.61096e-20)
(-0.134241 0.0804246 6.17709e-20)
(-0.113212 0.073229 1.31058e-20)
(-0.0940186 0.0663711 6.88778e-20)
(-0.0766553 0.0596397 -2.41385e-22)
(-0.0610758 0.0528395 -6.09204e-20)
(-0.0472196 0.0458171 -1.58163e-20)
(-0.03503 0.0384689 0)
(-0.0244567 0.0307373 0)
(-0.0154531 0.0225999 0)
(-0.00806625 0.0140146 6.17115e-20)
(-0.00246166 0.00487274 -5.78853e-20)
(-0.408105 0.0898461 0)
(-0.398583 0.101489 0)
(-0.37994 0.106635 0)
(-0.354021 0.106542 5.75338e-20)
(-0.323637 0.102637 0)
(-0.290989 0.0963058 0)
(-0.257919 0.08871 -8.29587e-23)
(-0.225769 0.0807446 0)
(-0.195424 0.0730196 0)
(-0.167383 0.0658862 0)
(-0.141861 0.0594801 -3.49226e-20)
(-0.118878 0.0537722 3.7632e-20)
(-0.0983407 0.0486244 -2.64444e-20)
(-0.080103 0.0438419 4.17535e-20)
(-0.0640012 0.0392204 -7.64582e-21)
(-0.049879 0.0345816 -1.22739e-19)
(-0.0375999 0.0297965 7.20661e-20)
(-0.0270562 0.0247948 7.43628e-20)
(-0.0181659 0.0195655 -1.02375e-19)
(-0.010868 0.014148 3.06314e-20)
(-0.0052229 0.00857773 8.87277e-21)
(-0.00145678 0.00284631 3.63205e-21)
(-0.435893 0.067664 -2.14726e-20)
(-0.406417 0.0724921 1.19749e-20)
(-0.37121 0.0729574 -1.30481e-20)
(-0.332792 0.0701157 5.91583e-24)
(-0.293759 0.0652156 -3.08729e-20)
(-0.255931 0.0592824 5.06668e-20)
(-0.220536 0.0530836 2.71488e-20)
(-0.188247 0.0471329 0)
(-0.159313 0.0417273 0)
(-0.133696 0.0369952 1.12348e-20)
(-0.111188 0.0329395 3.56229e-20)
(-0.0915029 0.0294743 -5.08253e-20)
(-0.0743405 0.0264582 6.59096e-21)
(-0.0594221 0.0237241 -5.638e-20)
(-0.0465089 0.0211069 6.69264e-20)
(-0.0354053 0.0184671 -7.7926e-21)
(-0.0259554 0.0157095 2.82289e-20)
(-0.0180389 0.0127971 -8.47452e-21)
(-0.0115621 0.00976007 -3.0174e-20)
(-0.00645022 0.00669719 4.39749e-20)
(-0.00274087 0.00373841 -4.04873e-20)
(-0.000647502 0.00102469 -3.62531e-21)
(-0.359191 0.0366137 4.15591e-20)
(-0.320754 0.0360055 -3.48934e-20)
(-0.281271 0.0337016 -1.31094e-20)
(-0.243016 0.0303738 5.71246e-20)
(-0.207483 0.0267179 7.67839e-21)
(-0.175479 0.0231459 -5.09474e-20)
(-0.147285 0.0198911 -4.48517e-21)
(-0.122821 0.0170596 -3.92661e-20)
(-0.101792 0.0146784 4.25558e-20)
(-0.0838039 0.0127262 -1.12645e-20)
(-0.0684368 0.0111511 0)
(-0.0552997 0.00988014 -2.23098e-20)
(-0.0440572 0.00882679 3.39785e-20)
(-0.0344405 0.00789827 2.85031e-20)
(-0.026247 0.00700371 -3.00936e-20)
(-0.0193296 0.00606372 3.90595e-20)
(-0.0135826 0.00502152 -3.87755e-20)
(-0.00892693 0.00385629 0)
(-0.00529367 0.00260062 -2.13987e-21)
(-0.00260851 0.00135844 -4.42611e-21)
(-0.000847596 0.000307468 6.78565e-21)
(-0.000110053 -0.000267308 9.26442e-22)
(-0.15577 0.00788297 2.0769e-20)
(-0.131887 0.00679807 -2.29293e-20)
(-0.109878 0.00566476 5.04724e-23)
(-0.0906762 0.00457749 0)
(-0.0743088 0.00365147 -7.68875e-21)
(-0.0606128 0.00290161 0)
(-0.0492757 0.00231439 -4.47381e-21)
(-0.0399429 0.00186496 0)
(-0.0322666 0.00152842 1.01606e-23)
(-0.0259319 0.00128335 0)
(-0.0206686 0.00111142 -2.34531e-20)
(-0.0162561 0.000995736 2.19774e-20)
(-0.012524 0.000918938 -2.62247e-20)
(-0.00935064 0.000861935 2.77905e-20)
(-0.0066584 0.000803377 -2.88792e-20)
(-0.00440685 0.000720255 3.03155e-20)
(-0.00258377 0.000590156 -2.93201e-20)
(-0.00119423 0.000396365 3.25046e-20)
(-0.000246705 0.000138047 -3.53414e-20)
(0.00026714 -0.000153366 1.29687e-22)
(0.000388193 -0.000389104 3.27496e-20)
(0.000183071 -0.000364923 2.77801e-20)
(1.13713 0.0242328 3.9781e-20)
(1.0911 0.0258307 -6.58604e-20)
(1.04303 0.0274745 -5.13368e-22)
(0.992796 0.0291662 2.84067e-20)
(0.940517 0.0309114 0)
(0.886275 0.0327173 6.68745e-22)
(0.830162 0.034587 -2.01749e-20)
(0.772285 0.0365219 4.66572e-20)
(0.712765 0.0385217 -5.05236e-20)
(0.65173 0.040584 2.84906e-20)
(0.589325 0.0427018 -3.06038e-20)
(0.525719 0.0448533 0)
(0.461128 0.0469802 0)
(0.395885 0.0489509 -3.94037e-20)
(0.330543 0.0505192 -4.50937e-22)
(0.266004 0.051296 6.61517e-20)
(0.203634 0.0507574 1.16057e-20)
(0.14532 0.0482966 0)
(0.0933288 0.0433136 0)
(0.0500677 0.035317 0)
(0.0187843 0.0239848 -1.36783e-20)
(0.00352848 0.00921499 2.2046e-20)
(1.14157 0.0801555 -2.07287e-21)
(1.09599 0.0858819 -2.32082e-20)
(1.04853 0.0918824 2.4335e-20)
(0.998881 0.098127 5.82543e-20)
(0.947185 0.104609 1.95116e-21)
(0.893527 0.111333 -1.82152e-19)
(0.837999 0.118295 6.03429e-20)
(0.780709 0.12549 0)
(0.721775 0.132909 -5.02837e-20)
(0.66133 0.140538 -5.54365e-20)
(0.599514 0.148345 -6.18701e-20)
(0.536491 0.156244 6.61803e-20)
(0.472465 0.164013 -3.57662e-20)
(0.407736 0.171166 3.84216e-20)
(0.3428 0.176811 0)
(0.278467 0.179569 -2.20454e-20)
(0.215983 0.177611 -1.04267e-19)
(0.157091 0.168849 1.93127e-19)
(0.103911 0.151247 -1.00103e-19)
(0.058726 0.123157 0)
(0.0246941 0.0835344 9.38343e-20)
(0.00582404 0.0320861 -1.64063e-19)
(1.1503 0.136076 0)
(1.10568 0.145948 -4.46451e-20)
(1.05946 0.156229 1.98402e-19)
(1.01099 0.166909 -1.10985e-19)
(0.960473 0.177979 6.30412e-20)
(0.908003 0.189449 7.24005e-20)
(0.853671 0.201318 0)
(0.797586 0.213578 9.08802e-20)
(0.739868 0.226217 -5.06159e-20)
(0.680646 0.239213 1.63931e-19)
(0.62006 0.252513 -5.92901e-20)
(0.558259 0.265969 0)
(0.495419 0.279202 1.78191e-19)
(0.431774 0.291378 -3.42267e-19)
(0.367698 0.300975 1.61268e-19)
(0.303815 0.305635 0)
(0.241115 0.302245 -1.81204e-19)
(0.18105 0.28726 1.88305e-19)
(0.125448 0.257232 0)
(0.076339 0.209385 2.49151e-20)
(0.0367094 0.141969 -2.565e-20)
(0.010489 0.0545165 9.596e-20)
(1.16238 0.189249 0)
(1.11931 0.203147 0)
(1.07505 0.217567 9.52695e-20)
(1.02844 0.232564 -3.36989e-21)
(0.979774 0.248114 5.5881e-20)
(0.929151 0.264228 1.37979e-19)
(0.876665 0.280903 0)
(0.822432 0.298131 0)
(0.766572 0.315892 1.92641e-19)
(0.709216 0.334156 -2.10988e-19)
(0.650498 0.352848 2.9447e-19)
(0.590554 0.371762 -2.51802e-19)
(0.529515 0.390363 1.38005e-19)
(0.467517 0.407478 -1.46332e-19)
(0.404753 0.420964 0)
(0.341565 0.427514 -1.66577e-19)
(0.278566 0.422761 1.74044e-19)
(0.216769 0.401749 0)
(0.157564 0.35967 4.62619e-20)
(0.102609 0.292677 -2.49054e-20)
(0.0546323 0.198371 -2.35693e-20)
(0.0174451 0.0761422 -1.86864e-19)
(1.1778 0.239806 1.3978e-19)
(1.1368 0.257599 0)
(1.09514 0.275961 -9.48462e-20)
(1.051 0.295071 -2.19012e-19)
(1.00478 0.314884 2.32331e-19)
(0.956602 0.335417 -1.36704e-19)
(0.906566 0.356668 1.49136e-19)
(0.854789 0.378627 0)
(0.801397 0.401273 -9.47015e-20)
(0.746518 0.424567 1.00138e-19)
(0.690284 0.448417 0)
(0.63281 0.472561 0)
(0.574167 0.496313 1.28194e-19)
(0.514365 0.518177 0)
(0.453357 0.535413 0)
(0.39111 0.543792 0)
(0.327738 0.537742 0)
(0.263676 0.510953 -8.44186e-20)
(0.199741 0.457328 -9.00099e-20)
(0.137107 0.372022 -1.87101e-19)
(0.0781636 0.252048 4.77529e-20)
(0.0265719 0.096697 1.57598e-19)
(1.19611 0.286454 -4.19774e-21)
(1.15772 0.30797 0)
(1.11928 0.330035 -1.81896e-19)
(1.07818 0.353025 9.67779e-20)
(1.035 0.376863 -4.87745e-21)
(0.989858 0.401568 -1.25843e-19)
(0.942852 0.427142 0)
(0.894111 0.453575 0)
(0.843765 0.480843 1.7261e-19)
(0.791944 0.508903 -2.01271e-19)
(0.738773 0.537648 2.11143e-19)
(0.684345 0.566764 0)
(0.628663 0.595431 -1.27687e-19)
(0.571577 0.621843 1.38277e-19)
(0.512747 0.642692 1.56428e-21)
(0.451679 0.652871 -5.97926e-19)
(0.38787 0.645658 3.13197e-19)
(0.321049 0.613457 -2.431e-19)
(0.251327 0.548963 4.27986e-20)
(0.179292 0.446415 7.01303e-19)
(0.106929 0.30232 -7.22771e-19)
(0.0377188 0.115917 4.45953e-19)
(1.21688 0.328612 0)
(1.1816 0.353621 0)
(1.14694 0.379092 0)
(1.10941 0.40567 0)
(1.06979 0.433234 -1.11266e-19)
(1.02821 0.461808 3.71786e-19)
(0.984757 0.491399 -4.01698e-19)
(0.939584 0.521996 0)
(0.892821 0.553575 -1.715e-19)
(0.844603 0.586089 9.03529e-20)
(0.795047 0.619416 -9.4121e-20)
(0.744219 0.653202 -2.1527e-19)
(0.692042 0.6865 -2.33694e-19)
(0.638182 0.717224 1.27244e-19)
(0.581955 0.741536 2.6347e-19)
(0.522321 0.7535 -6.67583e-20)
(0.458052 0.745307 0)
(0.388039 0.708151 3.03021e-19)
(0.311572 0.633606 -3.13832e-19)
(0.228557 0.515084 3.25037e-19)
(0.140517 0.348671 -3.33163e-19)
(0.0507228 0.13361 0)
(1.23943 0.365578 0)
(1.20775 0.393835 -1.43371e-19)
(1.17739 0.422398 2.36023e-21)
(1.14394 0.45224 0)
(1.10838 0.483185 0)
(1.07084 0.515264 -2.21702e-19)
(1.03143 0.548495 2.54624e-19)
(0.99031 0.58287 0)
(0.947612 0.618369 1.50303e-19)
(0.903476 0.654947 1.64369e-19)
(0.858019 0.692474 2.74544e-19)
(0.811279 0.730563 -2.01088e-19)
(0.763095 0.768164 2.1453e-19)
(0.712931 0.80294 1.09757e-19)
(0.659712 0.830566 0)
(0.60178 0.844338 -5.49771e-20)
(0.537076 0.835425 0)
(0.463532 0.79389 6.55275e-20)
(0.379502 0.710269 -2.85651e-19)
(0.284123 0.577247 2.24826e-19)
(0.178401 0.390575 -7.18565e-20)
(0.065378 0.149576 2.52607e-19)
(1.26299 0.396783 0)
(1.2354 0.427958 -2.57345e-19)
(1.20975 0.459243 1.54332e-19)
(1.18076 0.491995 -7.27638e-21)
(1.14966 0.52597 1.88075e-19)
(1.11659 0.561208 2.19459e-19)
(1.08165 0.597731 1.16109e-19)
(1.04502 0.635531 -1.21998e-19)
(1.00684 0.674589 -4.34202e-19)
(0.967263 0.714859 -1.62885e-19)
(0.926392 0.756209 -1.7704e-19)
(0.884239 0.798226 0)
(0.840552 0.839781 1.96046e-19)
(0.794576 0.878321 -3.17354e-19)
(0.744807 0.909093 0)
(0.688897 0.924686 1.20778e-19)
(0.623855 0.915328 -3.50403e-19)
(0.546539 0.870029 1.82709e-19)
(0.454258 0.778383 0)
(0.345308 0.63244 6.95943e-20)
(0.220129 0.427722 8.44889e-21)
(0.0815087 0.163701 0)
(1.28668 0.42207 2.07906e-19)
(1.26365 0.455874 2.64706e-19)
(1.24314 0.489527 -4.10366e-19)
(1.21905 0.524788 -1.62013e-19)
(1.19281 0.561339 0)
(1.16456 0.599246 -1.88679e-19)
(1.13443 0.63855 0)
(1.10262 0.679253 -1.16139e-19)
(1.06929 0.721348 2.60941e-19)
(1.03459 0.764797 0)
(0.998634 0.809471 -3.08581e-19)
(0.961418 0.85495 3.3097e-19)
(0.922604 0.900051 -8.35609e-20)
(0.881214 0.942052 0)
(0.835294 0.975825 0)
(0.781752 0.993323 -9.52662e-20)
(0.716568 0.983893 1.38254e-20)
(0.635411 0.935571 2.65484e-19)
(0.534433 0.837093 -2.23472e-19)
(0.411005 0.679976 0)
(0.264969 0.459631 3.00043e-19)
(0.0988305 0.175794 -1.9677e-19)
(1.30959 0.440948 -1.25485e-20)
(1.29149 0.476935 1.47852e-20)
(1.27631 0.512573 3.81426e-19)
(1.25733 0.550018 0)
(1.23623 0.588852 1.62386e-19)
(1.21313 0.629144 8.3137e-21)
(1.18819 0.670932 0)
(1.1616 0.714222 0)
(1.13353 0.759008 0)
(1.10414 0.805258 0)
(1.07355 0.852851 0)
(1.04174 0.90137 2.93677e-19)
(1.00828 0.949596 -2.31205e-19)
(0.971974 0.994682 4.01926e-19)
(0.930377 1.03119 -6.69241e-21)
(0.879595 1.05053 -3.43546e-19)
(0.814494 1.04125 9.74445e-20)
(0.729451 0.990512 -5.00165e-20)
(0.619371 0.886304 4.30445e-20)
(0.480656 0.719719 0)
(0.312525 0.486181 0)
(0.117186 0.185809 0)
(1.33079 0.454161 -3.73347e-19)
(1.31823 0.492096 2.17864e-19)
(1.30876 0.529287 -2.44701e-19)
(1.29521 0.568346 -3.87549e-19)
(1.27946 0.608816 1.46074e-19)
(1.26164 0.650811 0)
(1.24195 0.694394 -1.79258e-19)
(1.22063 0.739582 1.95199e-19)
(1.19788 0.786385 0)
(1.17388 0.834781 2.27784e-19)
(1.14875 0.884669 -2.45531e-19)
(1.12246 0.935653 0)
(1.09455 0.986523 -1.41673e-19)
(1.06359 1.03436 7.88273e-20)
(1.02669 1.07351 -6.74898e-20)
(0.979126 1.09485 8.10136e-20)
(0.914565 1.08622 0)
(0.825966 1.03394 0)
(0.706854 0.925287 1.10316e-19)
(0.552574 0.751072 -1.58619e-19)
(0.361706 0.506914 -1.62236e-19)
(0.136152 0.193543 -6.32965e-22)
(1.34933 0.460562 1.69612e-19)
(1.34238 0.499993 0)
(1.33854 0.538633 -2.08653e-19)
(1.33064 0.579278 1.84119e-20)
(1.32057 0.621364 0)
(1.30843 0.665008 -1.47136e-19)
(1.29444 0.710278 1.6073e-19)
(1.27886 0.757205 -1.74309e-19)
(1.26191 0.805808 3.68165e-19)
(1.24378 0.856078 0)
(1.2246 0.907922 0)
(1.20434 0.960963 0)
(1.18246 1.014 -1.2575e-19)
(1.15734 1.06408 1.30206e-19)
(1.12558 1.10533 6.67086e-20)
(1.08157 1.12827 0)
(1.01769 1.12011 0)
(0.925435 1.06651 -2.37264e-19)
(0.796931 0.954254 2.99754e-19)
(0.626512 0.773994 0)
(0.412182 0.521711 2.64813e-20)
(0.155555 0.198929 0)
(1.36471 0.463141 1.51353e-19)
(1.36448 0.503689 -1.78411e-19)
(1.36633 0.542853 4.01879e-19)
(1.36398 0.584104 4.47335e-19)
(1.35932 0.626833 -1.2969e-19)
(1.35253 0.671162 1.32227e-19)
(1.34387 0.717172 0)
(1.33366 0.764905 0)
(1.32213 0.814394 -1.75812e-19)
(1.30951 0.865653 -3.39924e-19)
(1.29598 0.918624 5.77587e-21)