/*--------------------------------*- C++ -*----------------------------------*\
| =========                 |                                                 |
| \\      /  F ield         | OpenFOAM Extend Project: Open source CFD        |
|  \\    /   O peration     | Version:  1.6-ext                               |
|   \\  /    A nd           | Web:      www.extend-project.de                 |
|    \\/     M anipulation  |                                                 |
\*---------------------------------------------------------------------------*/
FoamFile
{
    version     2.0;
    format      ascii;
    class       volVectorField;
    location    "0.3";
    object      U_0;
}
// * * * * * * * * * * * * * * * * * * * * * * * * * * * * * * * * * * * * * //

dimensions      [0 1 -1 0 0 0 0];

internalField   nonuniform List<vector> 
20940
(
(1.8585 0.38189 9.04438e-22)
(1.89891 0.40209 -1.00628e-21)
(1.93731 0.42164 0)
(1.97284 0.439486 -2.03251e-21)
(2.00529 0.455877 2.24358e-21)
(2.03312 0.469744 -4.43726e-21)
(2.0535 0.480057 0)
(2.06178 0.484953 0)
(2.0516 0.482246 0)
(2.01577 0.469681 0)
(1.94773 0.445611 0)
(1.84337 0.409618 0)
(1.70259 0.362921 5.41221e-21)
(1.52976 0.308324 1.28321e-20)
(1.3331 0.24973 -1.36195e-20)
(1.12306 0.191388 7.80757e-21)
(0.910417 0.137174 -8.50203e-21)
(0.70463 0.090106 1.31665e-20)
(0.51292 0.0521218 0)
(0.33994 0.0241058 1.0034e-20)
(0.18797 0.00663197 -1.53912e-20)
(0.0573794 0.000465903 0)
(1.88554 0.357321 8.57398e-22)
(1.92477 0.376376 0)
(1.96167 0.394128 0)
(1.99517 0.410226 0)
(2.02454 0.424385 -7.47854e-21)
(2.04745 0.435472 2.31609e-20)
(2.06006 0.44216 1.51581e-21)
(2.05673 0.442485 0)
(2.03065 0.434392 0)
(1.97506 0.416128 0)
(1.885 0.386896 1.64538e-20)
(1.75895 0.347305 5.08245e-22)
(1.59974 0.299478 -5.37641e-21)
(1.41432 0.246733 -1.17481e-20)
(1.21245 0.192934 0)
(1.00485 0.141792 -2.96378e-20)
(0.80147 0.0963231 7.68625e-21)
(0.610314 0.0585998 -4.33031e-21)
(0.436945 0.0297143 0)
(0.284531 0.00990756 9.17411e-21)
(0.154258 -0.000682596 5.05226e-21)
(0.0458549 -0.00154343 0)
(1.9103 0.332676 -8.55433e-22)
(1.94804 0.350676 3.69812e-21)
(1.98294 0.366764 -4.10248e-21)
(2.01361 0.381161 0)
(2.03861 0.39303 -1.49037e-20)
(2.05462 0.401163 0)
(2.05676 0.403992 -1.30102e-20)
(2.03865 0.399594 -1.84203e-20)
(1.99357 0.386245 -1.30577e-21)
(1.91594 0.362887 -2.58018e-20)
(1.80309 0.329662 -4.73896e-20)
(1.65646 0.288113 3.40526e-20)
(1.48172 0.241008 0)
(1.2878 0.191811 3.41547e-20)
(1.0852 0.144024 0)
(0.884121 0.100616 2.80937e-20)
(0.693174 0.0637079 1.6093e-20)
(0.518669 0.0345201 -1.61037e-20)
(0.364531 0.0134593 1.64706e-20)
(0.232601 0.000291338 -9.17112e-21)
(0.123148 -0.00515785 4.67111e-20)
(0.0354096 -0.00257972 -3.85884e-20)
(1.93393 0.308306 0)
(1.96976 0.325369 -1.3361e-20)
(2.00192 0.339878 1.29433e-20)
(2.02855 0.352533 1.1365e-20)
(2.04726 0.361935 -2.53735e-21)
(2.05364 0.366834 1.9126e-20)
(2.04189 0.365522 0)
(2.0054 0.356315 3.69798e-20)
(1.93825 0.338034 2.23346e-21)
(1.83689 0.31047 -9.84479e-22)
(1.70154 0.274692 7.3618e-20)
(1.5367 0.232978 -1.75964e-20)
(1.35041 0.188399 0)
(1.15278 0.144212 8.48459e-22)
(0.954108 0.103296 -9.60556e-20)
(0.763429 0.0677809 5.15766e-20)
(0.587639 0.0389432 0)
(0.431281 0.0172889 -1.55193e-20)
(0.296769 0.00270814 -1.64575e-20)
(0.184812 -0.00535315 1.63167e-20)
(0.0949655 -0.00726441 -9.06095e-21)
(0.0261187 -0.00284221 7.59621e-21)
(1.95621 0.284327 2.36784e-21)
(1.98953 0.300515 8.37972e-21)
(2.01789 0.313461 -7.42572e-21)
(2.03875 0.324246 -1.23849e-20)
(2.04858 0.330929 -2.07873e-21)
(2.04193 0.332294 -2.22118e-20)
(2.0125 0.326664 0)
(1.95413 0.312817 3.67531e-20)
(1.86265 0.290303 -6.11588e-20)
(1.73728 0.259813 5.1818e-20)
(1.58141 0.223204 -2.56833e-20)
(1.40226 0.183176 -6.43682e-20)
(1.20946 0.142736 -3.62794e-20)
(1.01327 0.104637 1.1254e-21)
(0.822999 0.0709901 2.20081e-20)
(0.646013 0.0431045 4.98262e-20)
(0.48735 0.0215325 -1.05979e-19)
(0.349887 0.00623674 -1.12889e-21)
(0.234741 -0.00324244 5.95087e-20)
(0.141736 -0.00764323 -1.63034e-20)
(0.0699229 -0.00743394 -6.67574e-20)
(0.0179924 -0.00249485 5.51005e-20)
(1.97679 0.260787 -4.59157e-21)
(2.00672 0.27616 0)
(2.02971 0.287494 0)
(2.04238 0.296193 -4.10977e-20)
(2.03999 0.299849 1.07105e-20)
(2.01639 0.29743 3.96311e-20)
(1.96543 0.287505 -1.7862e-21)
(1.88241 0.269529 3.62088e-20)
(1.76576 0.243881 1.30951e-21)
(1.61794 0.212069 4.75093e-20)
(1.44534 0.17646 0)
(1.2571 0.139817 3.07591e-20)
(1.06338 0.104756 3.61489e-20)
(0.873668 0.0733409 -5.90429e-20)
(0.695676 0.0468963 6.20613e-20)
(0.534844 0.0260123 0)
(0.394425 0.0106845 0)
(0.275855 0.000503764 2.5784e-20)
(0.179233 -0.00519444 -5.68599e-20)
(0.10375 -0.00722555 3.0087e-20)
(0.0481445 -0.00608849 0)
(0.0110359 -0.00168942 3.9584e-20)
(1.9954 0.237579 6.70123e-21)
(2.0205 0.252102 0)
(2.03583 0.261676 0)
(2.03704 0.268028 0)
(2.01839 0.268401 -2.1696e-21)
(1.9737 0.262149 -3.26955e-21)
(1.89795 0.248302 8.74049e-20)
(1.78888 0.227135 -3.11626e-20)
(1.64817 0.199824 -4.05221e-20)
(1.48146 0.168464 -9.29175e-20)
(1.29744 0.135587 5.43068e-20)
(1.1061 0.103674 -1.50029e-19)
(0.917039 0.0747357 6.53441e-20)
(0.738245 0.0500963 3.56669e-20)
(0.575483 0.0303765 0)
(0.432305 0.0156064 0)
(0.310398 0.00539763 4.71681e-20)
(0.210057 -0.000881048 -7.51054e-20)
(0.130651 -0.00398747 0)
(0.0709733 -0.00474081 -2.74357e-20)
(0.0296112 -0.00362878 5.79116e-20)
(0.00520999 -0.00056382 1.26888e-20)
(2.01091 0.214615 0)
(2.02915 0.228266 0)
(2.03371 0.235901 -2.28598e-20)
(2.01946 0.239657 2.9782e-20)
(1.98024 0.236622 -3.64165e-20)
(1.91079 0.226772 4.56902e-20)
(1.80833 0.209766 -5.5794e-20)
(1.67384 0.186715 2.50689e-21)
(1.51236 0.159404 -7.5108e-20)
(1.33211 0.130191 1.34779e-19)
(1.14294 0.101425 3.85124e-23)
(0.954544 0.0750689 -5.52758e-20)
(0.77511 0.0524484 0)
(0.610675 0.0342135 3.44592e-20)
(0.465033 0.0204316 1.83666e-21)
(0.340059 0.0107442 -8.06405e-20)
(0.236186 0.0045316 -4.2672e-20)
(0.152889 0.00105486 0)
(0.089068 -0.000462906 1.00248e-19)
(0.0433159 -0.000803196 -1.56726e-19)
(0.0141951 -0.000424 5.44425e-20)
(0.000444394 0.000760436 3.50694e-20)
(2.02242 0.191453 2.84316e-20)
(2.03071 0.204135 -3.15839e-20)
(2.02051 0.209662 2.26496e-20)
(1.98626 0.210776 -2.95082e-20)
(1.92239 0.204564 0)
(1.82572 0.191817 0)
(1.69666 0.172855 5.53012e-20)
(1.53968 0.149492 3.26511e-20)
(1.36268 0.123823 0)
(1.17536 0.0981332 -8.52347e-20)
(0.987494 0.0743408 -1.82537e-22)
(0.807472 0.0537917 2.17642e-21)
(0.641559 0.0371787 0)
(0.493751 0.0246201 0)
(0.366061 0.0158022 0)
(0.259011 0.0101344 0)
(0.172121 0.0068835 1.25856e-19)
(0.104329 0.00527883 -8.74211e-20)
(0.0542865 0.00456464 2.2786e-20)
(0.0205336 0.00401178 -2.39955e-20)
(0.00169709 0.00319114 0)
(-0.00334761 0.0021775 -9.98556e-21)
(2.02714 0.168065 6.65411e-21)
(2.02194 0.179857 -1.44005e-20)
(1.99254 0.18327 -5.02828e-20)
(1.93405 0.181934 2.97705e-20)
(1.84266 0.173101 3.90213e-20)
(1.71838 0.158501 0)
(1.56523 0.139 5.39681e-20)
(1.39084 0.116858 0)
(1.20487 0.0941519 7.34094e-20)
(1.0172 0.0728332 -3.83444e-20)
(0.836448 0.0542728 -4.6367e-20)
(0.669095 0.0392358 5.00059e-20)
(0.519315 0.0279154 -5.48437e-20)
(0.389234 0.0200687 0)
(0.279414 0.0151608 0)
(0.189375 0.0124929 -7.32304e-20)
(0.118033 0.0113 -1.45027e-21)
(0.0640244 0.0108235 -4.20398e-20)
(0.0259127 0.0103438 6.495e-20)
(0.00228408 0.00917966 -9.24463e-20)
(-0.00811632 0.0069157 9.68107e-20)
(-0.00625517 0.00359393 2.13099e-20)
(2.02393 0.143466 3.5442e-20)
(2.00032 0.154575 -8.46414e-20)
(1.94716 0.156227 5.02318e-20)
(1.86101 0.153217 0)
(1.74108 0.142926 -7.89824e-20)
(1.59119 0.127958 4.44716e-20)
(1.41871 0.109484 1.02606e-21)
(1.2334 0.0899159 -5.95174e-20)
(1.04534 0.0710585 3.62269e-20)
(0.863424 0.0544123 -7.63468e-20)
(0.69439 0.0408237 0)
(0.542596 0.0306007 0)
(0.410264 0.0236042 5.3024e-22)
(0.297979 0.0193913 -1.35059e-21)
(0.205224 0.0173363 6.27352e-20)
(0.130845 0.0167231 6.92901e-20)
(0.0734046 0.0168092 -7.31263e-20)
(0.0314091 0.0168728 4.0395e-20)
(0.0034376 0.0162324 0)
(-0.0118212 0.0142424 -6.60031e-20)
(-0.0154826 0.0104792 1.14166e-19)
(-0.00835777 0.00492179 0)
(2.00756 0.118512 -3.89659e-20)
(1.96221 0.129609 -4.86018e-20)
(1.88192 0.130094 2.44509e-20)
(1.76688 0.126394 -2.22379e-21)
(1.61999 0.115905 -1.58909e-21)
(1.44891 0.101999 0)
(1.26347 0.085855 0)
(1.07421 0.0697681 0)
(0.890387 0.0551266 3.35864e-20)
(0.719093 0.0429655 0)
(0.564899 0.0337065 8.371e-20)
(0.430138 0.0273502 -4.53941e-20)
(0.315412 0.0235786 0)
(0.220154 0.02188 0)
(0.143121 0.0216357 -6.08059e-20)
(0.082765 0.0221782 3.25722e-20)
(0.0374821 0.0228271 0)
(0.00576332 0.022916 -7.53634e-20)
(-0.0137403 0.0218048 -3.99053e-20)
(-0.0222188 0.0188738 8.31493e-20)
(-0.020656 0.0136726 -1.10382e-19)
(-0.00973423 0.00608672 -3.46619e-22)
(1.98003 0.0908865 3.89814e-20)
(1.9075 0.103139 4.74462e-20)
(1.79789 0.104061 0)
(1.65467 0.101502 0)
(1.48464 0.0927516 -4.16652e-20)
(1.29851 0.0815664 4.46289e-20)
(1.10713 0.0689825 0)
(0.920478 0.0570061 5.67468e-20)
(0.746042 0.0466278 1.36896e-21)
(0.588705 0.0384986 -1.41971e-19)
(0.450932 0.0327589 7.78461e-20)
(0.333359 0.0292462 -1.32593e-19)
(0.235382 0.0275905 4.76133e-20)
(0.155675 0.0273093 0)
(0.0925849 0.0278622 0)
(0.0443874 0.0286806 3.16236e-20)
(0.00945182 0.0291806 0)
(-0.0136787 0.0287744 3.50425e-20)
(-0.0262608 0.0268752 1.45288e-21)
(-0.029375 0.0228936 1.95663e-20)
(-0.0239064 0.0163499 0)
(-0.0104619 0.00702203 -1.76024e-20)
(1.93246 0.0648555 -4.26802e-20)
(1.83455 0.0792483 1.11726e-19)
(1.69644 0.0815798 3.82955e-21)
(1.52904 0.0813667 0)
(1.34191 0.0757207 3.99721e-20)
(1.14788 0.0683651 -4.56522e-20)
(0.957372 0.0601411 -5.05019e-20)
(0.778778 0.0525726 -5.66641e-20)
(0.617289 0.0462926 1.23309e-19)
(0.475589 0.0416364 0)
(0.354357 0.0385789 3.73612e-20)
(0.252973 0.0369051 0)
(0.17006 0.036287 4.66117e-20)
(0.103891 0.0363441 -5.08187e-20)
(0.0526587 0.0366693 5.42499e-20)
(0.0146283 0.0368354 5.98247e-20)
(-0.0117701 0.0363908 -1.27613e-19)
(-0.0279081 0.0348568 -3.55708e-20)
(-0.0349569 0.0317267 1.08827e-19)
(-0.0339187 0.0264626 -1.9428e-20)
(-0.025627 0.0185732 9.97255e-20)
(-0.010675 0.00773862 -5.1288e-20)
(1.87799 0.0319293 -5.22017e-20)
(1.74979 0.0528359 3.54402e-21)
(1.58513 0.0603858 -6.27035e-20)
(1.39866 0.0649312 2.9919e-21)
(1.20139 0.064827 4.12797e-20)
(1.00662 0.0628135 -4.76046e-22)
(0.822928 0.0597996 0)
(0.656274 0.0567768 -5.47408e-20)
(0.509494 0.0541989 -5.99344e-20)
(0.383389 0.05226 0)
(0.277364 0.0509311 -7.2909e-20)
(0.190051 0.0500662 0)
(0.119719 0.0494571 0)
(0.064543 0.0488692 0)
(0.0227527 0.0480517 5.29373e-20)
(-0.00728489 0.0467331 -5.63307e-20)
(-0.02703 0.0446084 6.15914e-20)
(-0.0377612 0.0413286 -6.49862e-20)
(-0.0405836 0.0364953 0)
(-0.0364595 0.0296554 -1.09672e-19)
(-0.02622 0.020352 5.69789e-20)
(-0.0105115 0.00821962 -8.33588e-20)
(1.76141 0.0162092 -7.37788e-21)
(1.59305 0.0335482 0)
(1.40268 0.047046 -1.16376e-19)
(1.20433 0.0559035 4.6179e-20)
(1.00828 0.0619497 0)
(0.824793 0.0656122 0)
(0.658658 0.0678865 0)
(0.512688 0.0691913 1.14974e-19)
(0.387313 0.0698511 -1.48094e-22)
(0.281776 0.0700021 -6.84369e-20)
(0.194598 0.0696749 3.77473e-20)
(0.124012 0.0688375 1.24522e-19)
(0.0681978 0.0674274 -8.94422e-20)
(0.0254085 0.0653686 0)
(-0.00596657 0.062574 5.37956e-20)
(-0.0273817 0.0589373 -1.15047e-19)
(-0.0401331 0.0543187 1.23251e-19)
(-0.0453675 0.0485324 -6.52042e-20)
(-0.0440979 0.04134 0)
(-0.03723 0.0324479 3.67418e-20)
(-0.0255798 0.0215374 0)
(-0.00984371 0.00833389 3.27065e-20)
(1.53534 0.00929434 2.94996e-20)
(1.33686 0.030681 1.4732e-22)
(1.14082 0.050611 1.21457e-19)
(0.949825 0.0637831 -8.70011e-20)
(0.774009 0.0748031 0)
(0.616896 0.0820102 0)
(0.479888 0.0871653 0)
(0.362762 0.0903323 0)
(0.264292 0.0919736 6.42068e-20)
(0.18283 0.0922803 7.0749e-20)
(0.116604 0.0913895 -7.65295e-20)
(0.0638838 0.089374 -1.26602e-19)
(0.0230584 0.0862767 4.50774e-20)
(-0.00733706 0.0821248 0)
(-0.0286236 0.0769354 0)
(-0.0419882 0.0707118 -2.87376e-20)
(-0.0484969 0.0634344 0)
(-0.0491089 0.0550516 0)
(-0.044691 0.045474 0)
(-0.0360375 0.0345731 0)
(-0.0238801 0.0221997 0)
(-0.00887243 0.00823187 4.78013e-20)
(1.27362 0.0164288 7.75394e-20)
(1.07349 0.0423554 -8.48043e-20)
(0.893907 0.0669509 0)
(0.725509 0.083497 9.57984e-20)
(0.578264 0.0974389 1.54229e-21)
(0.449793 0.106584 5.40345e-20)
(0.340322 0.112952 0)
(0.248109 0.116527 0)
(0.171619 0.117877 0)
(0.10915 0.117269 0)
(0.059121 0.114948 0)
(0.0200571 0.111084 -8.6281e-20)
(-0.00938258 0.105813 1.39049e-19)
(-0.0304129 0.0992447 -5.05972e-20)
(-0.044131 0.0914753 5.38265e-20)
(-0.0515275 0.082589 2.9069e-20)
(-0.0534982 0.0726546 0)
(-0.0508545 0.0617211 0)
(-0.0443357 0.0498143 -3.40103e-20)
(-0.0346247 0.0369356 7.13954e-20)
(-0.0223506 0.0230774 2.01461e-22)
(-0.00807992 0.00826037 -6.28106e-20)
(1.01541 0.0343234 -1.1918e-19)
(0.833976 0.0650612 8.78277e-20)
(0.680435 0.0919802 4.77737e-20)
(0.539486 0.110848 -1.46084e-19)
(0.419962 0.125569 5.52328e-20)
(0.316794 0.134996 0)
(0.230172 0.140843 5.92361e-20)
(0.157999 0.143361 -6.46553e-20)
(0.098964 0.143219 0)
(0.0515537 0.140817 0)
(0.0144146 0.1365 0)
(-0.0137296 0.130513 0)
(-0.0340436 0.123041 0)
(-0.0475827 0.114226 0)
(-0.0552953 0.104189 0)
(-0.0580306 0.0930425 0)
(-0.0565477 0.0808927 0)
(-0.0515264 0.0678404 0)
(-0.0435788 0.0539793 3.42358e-20)
(-0.0332642 0.0393938 0)
(-0.0210859 0.0241745 9.15666e-20)
(-0.00748096 0.00844966 -6.19524e-20)
(0.780974 0.0589632 -4.29621e-20)
(0.626992 0.092874 1.92517e-21)
(0.499517 0.119624 2.2854e-21)
(0.384307 0.139076 5.32967e-20)
(0.287973 0.152832 -5.42178e-20)
(0.205614 0.161161 -1.17184e-19)
(0.137479 0.165346 6.32264e-20)
(0.0816794 0.16598 0)
(0.0370998 0.16381 3.63237e-20)
(0.00237034 0.159358 -1.16446e-19)
(-0.0237569 0.153039 9.77082e-25)
(-0.0424731 0.14514 8.98518e-20)
(-0.0548612 0.135856 -4.84349e-20)
(-0.0618888 0.125319 1.03561e-19)
(-0.0644059 0.113637 2.74816e-22)
(-0.0631525 0.100908 -5.85273e-20)
(-0.0587704 0.0872331 -6.21043e-20)
(-0.0518153 0.0727212 8.12154e-20)
(-0.0427704 0.0574877 0)
(-0.0320619 0.0416519 -8.82216e-20)
(-0.0200533 0.0253508 5.44471e-20)
(-0.00703246 0.0087619 -1.52492e-20)
(0.571324 0.0834357 -1.40649e-19)
(0.444549 0.118505 -4.80175e-20)
(0.339387 0.143841 5.31288e-20)
(0.246209 0.162369 0)
(0.169117 0.174244 0)
(0.104536 0.180632 -1.54776e-21)
(0.052477 0.182593 0)
(0.0113045 0.181004 0)
(-0.0201099 0.176696 -7.43245e-20)
(-0.0431186 0.170299 3.95696e-20)
(-0.0589773 0.162281 8.55977e-20)
(-0.068864 0.152941 -9.19924e-20)
(-0.0738251 0.142457 0)
(-0.0747652 0.130923 5.25543e-20)
(-0.0724488 0.118399 1.34913e-22)
(-0.0675136 0.104934 -1.47666e-19)
(-0.0604869 0.090592 7.76664e-20)
(-0.0518022 0.0754503 4.88991e-20)
(-0.0418144 0.059605 -1.52676e-19)
(-0.0308163 0.0431655 1.58234e-19)
(-0.0190361 0.0262645 -9.03729e-20)
(-0.00662251 0.0090666 8.32934e-20)
(0.376181 0.102204 4.78139e-20)
(0.273513 0.136883 8.07285e-22)
(0.187959 0.160456 -1.06754e-19)
(0.114515 0.17708 5.8045e-20)
(0.055097 0.186663 0)
(0.00733655 0.190717 6.26582e-20)
(-0.0292284 0.190309 0)
(-0.0561337 0.186515 0)
(-0.0746567 0.180259 3.79588e-20)
(-0.0862004 0.172258 4.11531e-20)
(-0.0920578 0.163013 4.36981e-20)
(-0.0933955 0.15282 -1.66214e-22)
(-0.0912118 0.14182 -5.00126e-20)
(-0.0863328 0.130053 5.31379e-20)
(-0.0794241 0.117512 -5.63174e-20)
(-0.0710125 0.104181 -2.97304e-20)
(-0.0615087 0.0900585 1.0922e-19)
(-0.0512282 0.0751692 -8.14795e-20)
(-0.0404072 0.0595598 1.69893e-20)
(-0.0292178 0.0432983 0)
(-0.0177767 0.0264723 -5.39081e-20)
(-0.00613221 0.00918254 4.48757e-20)
(0.187001 0.112874 -1.0437e-21)
(0.106403 0.14588 -5.10321e-20)
(0.0400558 0.167522 1.11275e-19)
(-0.0139836 0.181732 0)
(-0.0554737 0.188833 -6.14906e-20)
(-0.0861243 0.190442 -3.25716e-20)
(-0.106923 0.187751 0)
(-0.119444 0.181975 0)
(-0.125133 0.174125 0)
(-0.125434 0.164974 -4.1574e-20)
(-0.121638 0.155035 4.44578e-20)
(-0.114849 0.144585 -4.7716e-20)
(-0.105968 0.133719 -5.05457e-20)
(-0.0957027 0.122414 5.37769e-20)
(-0.0845911 0.110591 2.84162e-20)
(-0.073034 0.0981643 1.49477e-20)
(-0.0613225 0.0850652 7.82519e-20)
(-0.049662 0.0712538 -4.89568e-20)
(-0.0381875 0.0567184 -1.68941e-20)
(-0.0269752 0.0414718 8.7144e-20)
(-0.0160691 0.0255359 -9.47408e-23)
(-0.00547261 0.00892034 -4.4391e-20)
(0.00355668 0.115816 -4.94756e-20)
(-0.0553775 0.145741 5.26736e-20)
(-0.101562 0.164888 -5.51555e-20)
(-0.135526 0.176278 5.7674e-20)
(-0.158256 0.180742 -1.26785e-21)
(-0.171317 0.179929 3.29175e-20)
(-0.176162 0.175183 6.92943e-20)
(-0.174469 0.167802 -7.54815e-20)
(-0.16779 0.158841 0)
(-0.157543 0.149084 -4.22341e-20)
(-0.144928 0.139025 9.05847e-20)
(-0.130907 0.128898 -4.83705e-20)
(-0.116213 0.118744 -5.10953e-20)
(-0.101386 0.108478 5.4324e-20)
(-0.0868027 0.0979589 2.85632e-20)
(-0.0727217 0.0870392 -7.51913e-20)
(-0.0593125 0.0755946 5.05769e-24)
(-0.0466814 0.0635338 0)
(-0.0348831 0.0507972 3.3835e-20)
(-0.0239286 0.0373511 -1.7434e-20)
(-0.0138324 0.0231571 8.87993e-21)
(-0.00461343 0.0081375 -6.58485e-20)
(-0.166486 0.112464 -4.86606e-20)
(-0.203282 0.137747 0)
(-0.228164 0.153344 -2.57932e-20)
(-0.241459 0.161373 5.97951e-20)
(-0.245039 0.163016 0)
(-0.240672 0.159912 -3.31576e-20)
(-0.23017 0.153494 0)
(-0.215291 0.145057 1.85382e-20)
(-0.197575 0.135627 -6.08344e-20)
(-0.178299 0.125925 -6.43573e-20)
(-0.158458 0.116379 4.60632e-20)
(-0.138776 0.107156 4.86198e-20)
(-0.119751 0.0982324 -5.18966e-20)
(-0.101703 0.0894691 -5.46226e-20)
(-0.0848242 0.0806782 5.77639e-20)
(-0.0692189 0.071674 -6.03832e-20)
(-0.054937 0.0623015 6.32595e-20)
(-0.041997 0.0524456 0)
(-0.0303937 0.0420286 -1.6932e-20)
(-0.0201003 0.0310007 6.93668e-20)
(-0.0111389 0.0192959 -7.99688e-20)
(-0.00359184 0.00678699 -5.80362e-20)
(-0.310214 0.103569 0)
(-0.324167 0.122858 0)
(-0.327111 0.133824 2.75089e-20)
(-0.319939 0.138006 2.85853e-20)
(-0.305152 0.136789 -6.31321e-20)
(-0.28483 0.131748 4.36882e-22)
(-0.260971 0.124278 5.35219e-20)
(-0.235275 0.115558 -1.94197e-20)
(-0.209087 0.106472 2.03388e-20)
(-0.183389 0.0976039 2.17056e-20)
(-0.158844 0.0892565 -4.62312e-20)
(-0.135851 0.0815056 6.19324e-20)
(-0.114618 0.0742643 1.3138e-20)
(-0.0952243 0.0673527 6.90435e-20)
(-0.0776682 0.0605592 -2.4424e-22)
(-0.061907 0.0536866 -6.10644e-20)
(-0.0478825 0.0465794 -1.58533e-20)
(-0.035539 0.0391319 0)
(-0.0248269 0.031285 0)
(-0.0156996 0.0230156 0)
(-0.00820427 0.0142805 6.18457e-20)
(-0.00250692 0.00496949 -5.80114e-20)
(-0.409042 0.088663 0)
(-0.400172 0.10086 0)
(-0.382046 0.106481 0)
(-0.35647 0.106766 5.76847e-20)
(-0.326275 0.10314 0)
(-0.293679 0.0969971 0)
(-0.260551 0.0895124 -7.42434e-23)
(-0.228262 0.0815987 0)
(-0.197724 0.0738831 0)
(-0.16946 0.0667326 0)
(-0.1437 0.0602946 -3.501e-20)
(-0.120478 0.0545482 3.77256e-20)
(-0.0997102 0.0493593 -2.65088e-20)
(-0.0812535 0.0445341 4.18521e-20)
(-0.0649479 0.0398673 -7.66513e-21)
(-0.0506387 0.035178 -1.23027e-19)
(-0.0381906 0.0303347 7.22344e-20)
(-0.0274961 0.0252648 7.4534e-20)
(-0.0184738 0.0199556 -1.02609e-19)
(-0.0110628 0.0144455 3.07007e-20)
(-0.00532475 0.00876907 8.8923e-21)
(-0.00148816 0.00291567 3.63995e-21)
(-0.437751 0.0670259 -2.14676e-20)
(-0.408832 0.0722509 1.1971e-20)
(-0.373988 0.0730355 -1.30754e-20)
(-0.335738 0.0704257 -1.47091e-23)
(-0.296715 0.0656779 -3.09393e-20)
(-0.258777 0.0598307 5.07744e-20)
(-0.223192 0.053668 2.7216e-20)
(-0.190665 0.0477189 0)
(-0.16147 0.0422936 0)
(-0.135588 0.037531 1.12619e-20)
(-0.112823 0.033441 3.57087e-20)
(-0.0928955 0.0299421 -5.09486e-20)
(-0.075509 0.0268948 6.60687e-21)
(-0.0603856 0.0241317 -5.65148e-20)
(-0.0472868 0.0214861 6.70862e-20)
(-0.0360168 0.0188163 -7.81135e-21)
(-0.0264193 0.0160247 2.82964e-20)
(-0.0183742 0.0130723 -8.49459e-21)
(-0.0117876 0.00998799 -3.02453e-20)
(-0.00658496 0.00687024 4.40773e-20)
(-0.00280532 0.00384881 -4.05816e-20)
(-0.000665584 0.00106347 -3.6332e-21)
(-0.361689 0.0365301 4.14751e-20)
(-0.323519 0.0361046 -3.48642e-20)
(-0.284115 0.0339223 -1.31409e-20)
(-0.24579 0.0306614 5.71833e-20)
(-0.210085 0.0270329 7.70213e-21)
(-0.17785 0.0234621 -5.10409e-20)
(-0.149398 0.020193 -4.49585e-21)
(-0.124672 0.0173394 -3.93557e-20)
(-0.103391 0.0149332 4.26529e-20)
(-0.0851693 0.0129565 -1.12917e-20)
(-0.0695899 0.0113593 0)
(-0.0562626 0.0100695 -2.23634e-20)
(-0.0448504 0.00900069 3.40604e-20)
(-0.0350831 0.00805931 2.8572e-20)
(-0.0267561 0.00715326 -3.01664e-20)
(-0.0197212 0.00620165 3.91543e-20)
(-0.0138719 0.00514614 -3.88699e-20)
(-0.00912895 0.00396458 0)
(-0.00542327 0.00268892 -2.14479e-21)
(-0.00268061 0.00142343 -4.4368e-21)
(-0.000878074 0.00034684 6.80237e-21)
(-0.000117424 -0.000255285 9.28863e-22)
(-0.157579 0.00794854 -4.08052e-20)
(-0.133637 0.00688922 2.28807e-20)
(-0.111492 0.00576373 5.04636e-23)
(-0.0921137 0.00467265 0)
(-0.0755601 0.00373763 -7.63886e-21)
(-0.061684 0.00297724 -1.6757e-20)
(-0.0501817 0.00237986 1.37498e-20)
(-0.0407025 0.00192143 0)
(-0.0328992 0.00157732 0)
(-0.0264558 0.00132611 -2.21196e-20)
(-0.0210999 0.0011494 2.15796e-22)
(-0.0166083 0.00103018 2.2032e-20)
(-0.0128084 0.000950934 2.62903e-20)
(-0.00957631 0.000892316 -5.55052e-20)
(-0.00683279 0.000832628 2.06993e-22)
(-0.00453646 0.000748412 3.03935e-20)
(-0.00267471 0.000616729 1.95315e-21)
(-0.00125271 0.000420313 0)
(-0.000279158 0.000157916 -2.07776e-21)
(0.000254039 -0.000139058 3.41968e-20)
(0.000387143 -0.000381125 -3.718e-20)
(0.000184658 -0.000362706 2.78564e-20)
(1.13713 0.024208 3.97751e-20)
(1.0911 0.025804 -6.58506e-20)
(1.04303 0.0274461 -5.13349e-22)
(0.992798 0.029136 2.84027e-20)
(0.940518 0.0308795 0)
(0.886276 0.0326838 6.68715e-22)
(0.830163 0.0345521 -2.01722e-20)
(0.772287 0.0364855 4.66516e-20)
(0.712766 0.038484 -5.05174e-20)
(0.651731 0.0405452 2.84873e-20)
(0.589326 0.0426619 -3.06003e-20)
(0.52572 0.0448124 0)
(0.461129 0.0469384 0)
(0.395886 0.0489085 -3.93995e-20)
(0.330543 0.0504765 -4.50943e-22)
(0.266004 0.0512537 6.61447e-20)
(0.203633 0.0507166 1.16045e-20)
(0.145319 0.0482587 0)
(0.0933284 0.0432803 0)
(0.0500672 0.0352903 0)
(0.018784 0.023967 -1.36769e-20)
(0.00352832 0.00920823 2.20438e-20)
(1.14157 0.0801308 -2.07285e-21)
(1.09599 0.0858553 -2.3205e-20)
(1.04853 0.091854 2.43314e-20)
(0.998882 0.0980969 5.82464e-20)
(0.947185 0.104577 1.95118e-21)
(0.893527 0.111299 -1.82129e-19)
(0.837999 0.11826 6.03353e-20)
(0.780708 0.125453 0)
(0.721775 0.132871 -5.02777e-20)
(0.661329 0.140499 -5.54301e-20)
(0.599513 0.148305 -6.18632e-20)
(0.53649 0.156204 6.61729e-20)
(0.472464 0.163972 -3.57623e-20)
(0.407734 0.171124 3.84175e-20)
(0.342798 0.176769 0)
(0.278465 0.179527 -2.20431e-20)
(0.215981 0.177571 -1.04256e-19)
(0.157089 0.168812 1.93107e-19)
(0.103909 0.151214 -1.00092e-19)
(0.0587242 0.123131 0)
(0.0246929 0.083517 9.3825e-20)
(0.00582354 0.0320795 -1.64046e-19)
(1.1503 0.136052 0)
(1.10568 0.145922 -4.46388e-20)
(1.05946 0.156201 1.98374e-19)
(1.01099 0.166879 -1.1097e-19)
(0.960472 0.177948 6.30327e-20)
(0.908002 0.189416 7.23911e-20)
(0.853669 0.201283 0)
(0.797584 0.213542 9.08693e-20)
(0.739866 0.22618 -5.06099e-20)
(0.680644 0.239175 1.63912e-19)
(0.620057 0.252474 -5.92834e-20)
(0.558256 0.265929 0)
(0.495416 0.279161 1.78172e-19)
(0.43177 0.291337 -3.4223e-19)
(0.367695 0.300933 1.61251e-19)
(0.303811 0.305594 0)
(0.241112 0.302205 -1.81186e-19)
(0.181047 0.287224 1.88285e-19)
(0.125445 0.2572 0)
(0.0763361 0.209359 2.49126e-20)
(0.0367073 0.141952 -2.56475e-20)
(0.0104881 0.0545101 9.59506e-20)
(1.16238 0.189225 0)
(1.11931 0.20312 0)
(1.07505 0.217539 9.52556e-20)
(1.02844 0.232534 -3.36984e-21)
(0.979772 0.248082 5.58727e-20)
(0.929149 0.264195 1.3796e-19)
(0.876663 0.280869 0)
(0.822429 0.298095 0)
(0.766569 0.315855 1.92618e-19)
(0.709212 0.334118 -2.10963e-19)
(0.650495 0.352809 2.94437e-19)
(0.59055 0.371723 -2.51774e-19)
(0.52951 0.390323 1.3799e-19)
(0.467512 0.407437 -1.46316e-19)
(0.404748 0.420924 0)
(0.34156 0.427474 -1.6656e-19)
(0.278561 0.422723 1.74026e-19)
(0.216764 0.401713 0)
(0.157559 0.359639 4.62572e-20)
(0.102605 0.292653 -2.49029e-20)
(0.0546295 0.198355 -2.35669e-20)
(0.0174439 0.076136 -1.86846e-19)
(1.1778 0.239782 1.39758e-19)
(1.1368 0.257573 0)
(1.09514 0.275933 -9.48323e-20)
(1.05099 0.295041 -2.18982e-19)
(1.00477 0.314853 2.32298e-19)
(0.956599 0.335384 -1.36686e-19)
(0.906563 0.356634 1.49116e-19)
(0.854786 0.378592 0)
(0.801393 0.401237 -9.469e-20)
(0.746514 0.42453 1.00126e-19)
(0.69028 0.448379 0)
(0.632805 0.472522 0)
(0.574162 0.496274 1.2818e-19)
(0.514359 0.518138 0)
(0.453351 0.535373 0)
(0.391103 0.543753 0)
(0.327731 0.537705 0)
(0.26367 0.510919 -8.44096e-20)
(0.199735 0.457299 -9.00006e-20)
(0.137102 0.371998 -1.87082e-19)
(0.0781601 0.252032 4.77479e-20)
(0.0265706 0.0966912 1.57582e-19)
(1.19611 0.286429 -4.19768e-21)
(1.15772 0.307943 0)
(1.11928 0.330007 -1.81869e-19)
(1.07818 0.352996 9.6763e-20)
(1.035 0.376833 -4.8773e-21)
(0.989855 0.401536 -1.25826e-19)
(0.942849 0.427109 0)
(0.894107 0.45354 0)
(0.84376 0.480807 1.72588e-19)
(0.791939 0.508867 -2.01247e-19)
(0.738768 0.537611 2.11117e-19)
(0.684339 0.566726 0)
(0.628656 0.595392 -1.27673e-19)
(0.57157 0.621804 1.38261e-19)
(0.51274 0.642653 1.56453e-21)
(0.451671 0.652833 -5.9786e-19)
(0.387863 0.645622 3.13162e-19)
(0.321041 0.613424 -2.43073e-19)
(0.25132 0.548935 4.27938e-20)
(0.179286 0.446393 7.01228e-19)
(0.106925 0.302305 -7.22695e-19)
(0.0377172 0.115912 4.45906e-19)
(1.21688 0.328587 0)
(1.18159 0.353595 0)
(1.14694 0.379064 0)
(1.10941 0.405641 0)
(1.06979 0.433203 -1.11249e-19)
(1.0282 0.461776 3.71734e-19)
(0.984753 0.491366 -4.01641e-19)
(0.93958 0.521961 0)
(0.892817 0.553539 -1.71478e-19)
(0.844598 0.586053 9.03413e-20)
(0.795042 0.61938 -9.41084e-20)
(0.744213 0.653164 -2.15243e-19)
(0.692035 0.686463 -2.33666e-19)
(0.638175 0.717187 1.27228e-19)
(0.581947 0.741498 2.63439e-19)
(0.522313 0.753463 -6.67503e-20)
(0.458044 0.745273 0)
(0.388031 0.70812 3.02987e-19)
(0.311565 0.63358 -3.13796e-19)
(0.228551 0.515064 3.25001e-19)
(0.140512 0.348657 -3.33126e-19)
(0.0507212 0.133606 0)
(1.23943 0.365553 0)
(1.20775 0.393808 -1.43347e-19)
(1.17739 0.42237 2.36012e-21)
(1.14394 0.452211 0)
(1.10837 0.483154 0)
(1.07084 0.515232 -2.21668e-19)
(1.03143 0.548462 2.54587e-19)
(0.990306 0.582836 0)
(0.947607 0.618335 1.50282e-19)
(0.903471 0.654911 1.64346e-19)
(0.858013 0.692438 2.74507e-19)
(0.811273 0.730526 -2.01062e-19)
(0.763088 0.768128 2.14502e-19)
(0.712924 0.802904 1.09743e-19)
(0.659704 0.830531 0)
(0.601772 0.844304 -5.49693e-20)
(0.537068 0.835393 0)
(0.463524 0.793861 6.55191e-20)
(0.379494 0.710245 -2.85616e-19)
(0.284117 0.577228 2.24799e-19)
(0.178397 0.390563 -7.18474e-20)
(0.0653763 0.149571 2.52577e-19)
(1.26299 0.396758 0)
(1.2354 0.427931 -2.57298e-19)
(1.20975 0.459214 1.54306e-19)
(1.18076 0.491966 -7.27642e-21)
(1.14966 0.525939 1.88044e-19)
(1.11658 0.561176 2.19425e-19)
(1.08165 0.597698 1.16091e-19)
(1.04501 0.635497 -1.21978e-19)
(1.00684 0.674555 -4.34138e-19)
(0.967259 0.714824 -1.62862e-19)
(0.926387 0.756173 -1.77016e-19)
(0.884233 0.79819 0)
(0.840546 0.839745 1.96019e-19)
(0.794569 0.878286 -3.17311e-19)
(0.744799 0.909059 0)
(0.688889 0.924654 1.20762e-19)
(0.623846 0.915298 -3.50355e-19)
(0.546531 0.870002 1.82684e-19)
(0.454251 0.778361 0)
(0.345302 0.632423 6.95855e-20)
(0.220125 0.427712 8.4488e-21)
(0.0815071 0.163698 0)
(1.28668 0.422043 2.07864e-19)
(1.26365 0.455846 2.6466e-19)
(1.24315 0.489498 -4.10289e-19)
(1.21905 0.524758 -1.61985e-19)
(1.19281 0.561307 0)
(1.16456 0.599214 -1.88646e-19)
(1.13443 0.638517 0)
(1.10262 0.67922 -1.1612e-19)
(1.06929 0.721314 2.60899e-19)
(1.03458 0.764762 0)
(0.99863 0.809436 -3.08534e-19)
(0.961412 0.854916 3.3092e-19)
(0.922598 0.900017 -8.35475e-20)
(0.881208 0.942018 0)
(0.835287 0.975792 0)
(0.781744 0.993292 -9.52509e-20)
(0.71656 0.983865 1.38253e-20)
(0.635404 0.935548 2.65443e-19)
(0.534426 0.837074 -2.23438e-19)
(0.411 0.679962 0)
(0.264965 0.459622 2.99998e-19)
(0.0988291 0.175791 -1.9674e-19)
(1.30959 0.440921 -1.25485e-20)
(1.29149 0.476907 1.47852e-20)
(1.27631 0.512543 3.81351e-19)
(1.25733 0.549987 0)
(1.23623 0.58882 1.62356e-19)
(1.21313 0.629112 8.3138e-21)
(1.18819 0.670899 0)
(1.16159 0.714188 0)
(1.13352 0.758974 0)
(1.10414 0.805224 0)
(1.07355 0.852817 0)
(1.04174 0.901336 2.93627e-19)
(1.00828 0.949562 -2.31165e-19)
(0.971968 0.99465 4.01857e-19)
(0.930371 1.03116 -6.69177e-21)
(0.879588 1.0505 -3.43484e-19)
(0.814487 1.04122 9.74286e-20)
(0.729445 0.990491 -5.00083e-20)
(0.619366 0.886288 4.3036e-20)
(0.480652 0.719708 0)
(0.312523 0.486174 0)
(0.117185 0.185807 0)
(1.3308 0.454132 -3.73266e-19)
(1.31823 0.492066 2.17819e-19)
(1.30876 0.529256 -2.44651e-19)
(1.29521 0.568314 -3.87468e-19)
(1.27946 0.608784 1.46044e-19)
(1.26164 0.650779 0)
(1.24195 0.694361 -1.79223e-19)
(1.22063 0.739549 1.95161e-19)
(1.19788 0.786351 0)
(1.17387 0.834748 2.2774e-19)
(1.14874 0.884636 -2.45484e-19)
(1.12246 0.93562 0)
(1.09454 0.98649 -1.41647e-19)
(1.06358 1.03433 7.88133e-20)
(1.02669 1.07348 -6.74753e-20)
(0.979121 1.09482 8.09985e-20)
(0.914561 1.0862 0)
(0.825963 1.03392 0)
(0.706851 0.925274 1.10291e-19)
(0.552572 0.751064 -1.58584e-19)
(0.361705 0.506911 -1.622e-19)
(0.136152 0.193542 -6.33044e-22)
(1.34933 0.460531 1.69572e-19)
(1.34239 0.499962 0)
(1.33855 0.538601 -2.08604e-19)
(1.33065 0.579245 1.84121e-20)
(1.32057 0.621331 0)
(1.30843 0.664974 -1.47104e-19)
(1.29444 0.710243 1.60695e-19)
(1.27887 0.75717 -1.74272e-19)
(1.26191 0.805774 3.68084e-19)
(1.24378 0.856044 0)
(1.2246 0.907889 0)
(1.20434 0.96093 0)
(1.18246 1.01397 -1.25724e-19)
(1.15734 1.06405 1.30178e-19)
(1.12558 1.1053 6.66942e-20)
(1.08156 1.12825 0)
(1.01769 1.12009 0)
(0.925434 1.0665 -2.37198e-19)
(0.79693 0.954244 2.99668e-19)
(0.626512 0.77399 0)
(0.412182 0.52171 2.64721e-20)
(0.155555 0.198929 0)
(1.36472 0.463107 1.51313e-19)
(1.36449 0.503655 -1.78367e-19)
(1.36634 0.542819 4.01783e-19)
(1.36399 0.584069 4.47229e-19)
(1.35933 0.626798 -1.29661e-19)
(1.35253 0.671127 1.32196e-19)
(1.34388 0.717137 0)
(1.33366 0.76487 0)
(1.32213 0.81436 -1.75772e-19)
(1.30952 0.865619 -3.39838e-19)
(1.29598 0.918591 5.77546e-21)
(1.28153 0.972956 3.83004e-19)