/*--------------------------------*- C++ -*----------------------------------*\
| =========                 |                                                 |
| \\      /  F ield         | OpenFOAM Extend Project: Open source CFD        |
|  \\    /   O peration     | Version:  1.6-ext                               |
|   \\  /    A nd           | Web:      www.extend-project.de                 |
|    \\/     M anipulation  |                                                 |
\*---------------------------------------------------------------------------*/
FoamFile
{
    version     2.0;
    format      ascii;
    class       volScalarField::DimensionedInternalField;
    location    "0.3";
    object      V0;
}
// * * * * * * * * * * * * * * * * * * * * * * * * * * * * * * * * * * * * * //

dimensions      [0 3 0 0 0 0 0];

value           nonuniform List<scalar> 
20940
(
1.171e-06
1.03798e-06
9.20942e-07
8.17907e-07
7.27137e-07
6.47113e-07
5.76511e-07
5.14172e-07
4.59084e-07
4.10364e-07
3.67236e-07
3.29026e-07
2.95142e-07
2.65064e-07
2.38339e-07
2.14568e-07
1.93402e-07
1.74534e-07
1.57696e-07
1.42654e-07
1.292e-07
1.17152e-07
1.17116e-06
1.03812e-06
9.21062e-07
8.18013e-07
7.27232e-07
6.47199e-07
5.7659e-07
5.14247e-07
4.59156e-07
4.10432e-07
3.67302e-07
3.29088e-07
2.95198e-07
2.65116e-07
2.38385e-07
2.1461e-07
1.93441e-07
1.74572e-07
1.57733e-07
1.4269e-07
1.29235e-07
1.17186e-07
1.17374e-06
1.04039e-06
9.23084e-07
8.19811e-07
7.28832e-07
6.48626e-07
5.77864e-07
5.15386e-07
4.60176e-07
4.11349e-07
3.68127e-07
3.29833e-07
2.95871e-07
2.65723e-07
2.38933e-07
2.15104e-07
1.93887e-07
1.74975e-07
1.581e-07
1.43024e-07
1.29541e-07
1.17467e-07
1.178e-06
1.04417e-06
9.26436e-07
8.22792e-07
7.31486e-07
6.50992e-07
5.79976e-07
5.17272e-07
4.61863e-07
4.12859e-07
3.69482e-07
3.3105e-07
2.96968e-07
2.66712e-07
2.39827e-07
2.15912e-07
1.94617e-07
1.75635e-07
1.58697e-07
1.43566e-07
1.30034e-07
1.17917e-07
1.18323e-06
1.04884e-06
9.30618e-07
8.26539e-07
7.34851e-07
6.54019e-07
5.82702e-07
5.19731e-07
4.64082e-07
4.14864e-07
3.71295e-07
3.32691e-07
2.98455e-07
2.68064e-07
2.41057e-07
2.17034e-07
1.95641e-07
1.7657e-07
1.59551e-07
1.44345e-07
1.30745e-07
1.18567e-07
1.19004e-06
1.05494e-06
9.36082e-07
8.31445e-07
7.39263e-07
6.57996e-07
5.86295e-07
5.22982e-07
4.67029e-07
4.17538e-07
3.73723e-07
3.34898e-07
3.00463e-07
2.69891e-07
2.42723e-07
2.18555e-07
1.97032e-07
1.77843e-07
1.60717e-07
1.45413e-07
1.31723e-07
1.19462e-07
1.1984e-06
1.06246e-06
9.42853e-07
8.37543e-07
7.44761e-07
6.62959e-07
5.90785e-07
5.27054e-07
4.7073e-07
4.20909e-07
3.76798e-07
3.37707e-07
3.03029e-07
2.72238e-07
2.4487e-07
2.2052e-07
1.98832e-07
1.79494e-07
1.62233e-07
1.46806e-07
1.33004e-07
1.2064e-07
1.20833e-06
1.07145e-06
9.50995e-07
8.44921e-07
7.51447e-07
6.69019e-07
5.9628e-07
5.32042e-07
4.75266e-07
4.25043e-07
3.80576e-07
3.41165e-07
3.06201e-07
2.75149e-07
2.47544e-07
2.22977e-07
2.0109e-07
1.8157e-07
1.64143e-07
1.48566e-07
1.34627e-07
1.22139e-07
1.21974e-06
1.08183e-06
9.60452e-07
8.53549e-07
7.59324e-07
6.76212e-07
6.02847e-07
5.38035e-07
4.80735e-07
4.30035e-07
3.85138e-07
3.45342e-07
3.10035e-07
2.78676e-07
2.50792e-07
2.25972e-07
2.03853e-07
1.84121e-07
1.66498e-07
1.50742e-07
1.36638e-07
1.24e-07
1.2325e-06
1.09349e-06
9.71128e-07
8.63338e-07
7.68314e-07
6.84478e-07
6.10451e-07
5.45031e-07
4.87169e-07
4.35948e-07
3.90568e-07
3.50327e-07
3.14614e-07
2.82888e-07
2.54676e-07
2.29559e-07
2.07171e-07
1.87193e-07
1.69343e-07
1.53377e-07
1.3908e-07
1.26261e-07
1.2464e-06
1.10626e-06
9.82873e-07
8.74156e-07
7.78292e-07
6.93695e-07
6.18977e-07
5.52926e-07
4.94483e-07
4.42726e-07
3.96844e-07
3.56135e-07
3.19981e-07
2.87843e-07
2.5925e-07
2.33786e-07
2.11084e-07
1.9082e-07
1.72709e-07
1.56503e-07
1.41983e-07
1.28958e-07
1.26193e-06
1.12058e-06
9.96088e-07
8.86353e-07
7.89559e-07
7.04112e-07
6.28621e-07
5.61867e-07
5.02783e-07
4.50438e-07
4.04017e-07
3.62806e-07
3.26182e-07
2.93603e-07
2.64592e-07
2.38734e-07
2.15665e-07
1.95064e-07
1.76645e-07
1.60158e-07
1.4538e-07
1.32118e-07
1.27834e-06
1.13585e-06
1.01029e-06
8.99555e-07
8.01828e-07
7.15511e-07
6.39211e-07
5.7171e-07
5.1194e-07
4.58965e-07
4.11967e-07
3.70226e-07
3.33112e-07
3.00075e-07
2.70635e-07
2.4437e-07
2.20913e-07
1.99944e-07
1.81181e-07
1.64374e-07
1.49303e-07
1.3577e-07
1.29567e-06
1.15209e-06
1.02549e-06
9.13789e-07
8.15149e-07
7.2797e-07
6.50854e-07
5.82579e-07
5.2208e-07
4.68424e-07
4.20792e-07
3.78466e-07
3.40814e-07
3.07281e-07
2.7738e-07
2.50686e-07
2.26825e-07
2.05471e-07
1.8634e-07
1.69183e-07
1.53781e-07
1.3994e-07
1.31364e-06
1.16904e-06
1.04148e-06
9.28855e-07
8.29339e-07
7.41328e-07
6.63422e-07
5.94394e-07
5.33173e-07
4.78825e-07
4.30532e-07
3.87579e-07
3.49338e-07
3.15257e-07
2.84849e-07
2.57684e-07
2.33386e-07
2.11624e-07
1.92107e-07
1.74581e-07
1.58827e-07
1.4465e-07
1.242e-06
1.10791e-06
9.89437e-07
8.84661e-07
7.91915e-07
7.09742e-07
6.36866e-07
5.72169e-07
5.14671e-07
4.63515e-07
4.17949e-07
3.7732e-07
3.41052e-07
3.08645e-07
2.79655e-07
2.53694e-07
2.30416e-07
2.09516e-07
1.90727e-07
1.7381e-07
1.5856e-07
1.44793e-07
1.21888e-06
1.08678e-06
9.70089e-07
8.66929e-07
7.75646e-07
6.94799e-07
6.23128e-07
5.59528e-07
5.03035e-07
4.52799e-07
4.08077e-07
3.68218e-07
3.32651e-07
3.0088e-07
2.72468e-07
2.47033e-07
2.24238e-07
2.03785e-07
1.85412e-07
1.68885e-07
1.54e-07
1.40573e-07
1.19691e-06
1.06674e-06
9.51793e-07
8.50205e-07
7.60342e-07
6.80777e-07
6.10265e-07
5.47715e-07
4.92174e-07
4.42807e-07
3.9888e-07
3.5975e-07
3.24851e-07
2.93691e-07
2.65835e-07
2.40905e-07
2.18568e-07
1.98534e-07
1.80544e-07
1.64372e-07
1.49817e-07
1.36699e-07
1.17621e-06
1.0479e-06
9.34636e-07
8.34559e-07
7.46058e-07
6.67723e-07
5.98321e-07
5.36774e-07
4.82139e-07
4.33591e-07
3.90407e-07
3.51955e-07
3.17678e-07
2.87087e-07
2.59753e-07
2.35302e-07
2.13402e-07
1.93763e-07
1.76132e-07
1.60286e-07
1.46027e-07
1.33183e-07
1.1569e-06
1.03038e-06
9.18708e-07
8.20063e-07
7.3285e-07
6.55676e-07
5.87321e-07
5.26721e-07
4.72941e-07
4.25164e-07
3.82678e-07
3.44857e-07
3.11153e-07
2.81084e-07
2.54229e-07
2.30215e-07
2.08716e-07
1.89445e-07
1.7215e-07
1.56607e-07
1.42624e-07
1.30029e-07
1.1388e-06
1.014e-06
9.03865e-07
8.06596e-07
7.20616e-07
6.44549e-07
5.77189e-07
5.17483e-07
4.6451e-07
4.17464e-07
3.75636e-07
3.3841e-07
3.05242e-07
2.75659e-07
2.49243e-07
2.25629e-07
2.04494e-07
1.85557e-07
1.68568e-07
1.53308e-07
1.39582e-07
1.27222e-07
1.12274e-06
9.99466e-07
8.90702e-07
7.9466e-07
7.09779e-07
6.34696e-07
5.68221e-07
5.09311e-07
4.57054e-07
4.10654e-07
3.6941e-07
3.32712e-07
3.00023e-07
2.70872e-07
2.44847e-07
2.21587e-07
2.00774e-07
1.82129e-07
1.65409e-07
1.50394e-07
1.36896e-07
1.24744e-07
1.10808e-06
9.86249e-07
8.78764e-07
7.83863e-07
7.00002e-07
6.25831e-07
5.60172e-07
5.01994e-07
4.50394e-07
4.04585e-07
3.63874e-07
3.27656e-07
2.95401e-07
2.66643e-07
2.40974e-07
2.18036e-07
1.97515e-07
1.79134e-07
1.62652e-07
1.47854e-07
1.34553e-07
1.22584e-07
1.09506e-06
9.74525e-07
8.68195e-07
7.74322e-07
6.91378e-07
6.18027e-07
5.531e-07
4.95577e-07
4.44565e-07
3.99282e-07
3.59045e-07
3.23253e-07
2.91381e-07
2.6297e-07
2.37615e-07
2.14961e-07
1.94697e-07
1.7655e-07
1.60279e-07
1.45673e-07
1.32545e-07
1.20733e-07
1.08367e-06
9.64283e-07
8.58978e-07
7.66017e-07
6.83884e-07
6.11257e-07
5.46977e-07
4.90032e-07
4.39537e-07
3.94717e-07
3.54894e-07
3.19475e-07
2.87938e-07
2.59828e-07
2.34744e-07
2.12336e-07
1.92294e-07
1.74348e-07
1.5826e-07
1.4382e-07
1.30843e-07
1.19168e-07
1.07388e-06
9.555e-07
8.51087e-07
7.58917e-07
6.7749e-07
6.05489e-07
5.41767e-07
4.85321e-07
4.35272e-07
3.90851e-07
3.51386e-07
3.16286e-07
2.85038e-07
2.57186e-07
2.32334e-07
2.10135e-07
1.90282e-07
1.72507e-07
1.56573e-07
1.42273e-07
1.29424e-07
1.17864e-07
1.06565e-06
9.48127e-07
8.44471e-07
7.52975e-07
6.72144e-07
6.00675e-07
5.37427e-07
4.81402e-07
4.31729e-07
3.87644e-07
3.48479e-07
3.1365e-07
2.82642e-07
2.55007e-07
2.3035e-07
2.08326e-07
1.88631e-07
1.70998e-07
1.55193e-07
1.41008e-07
1.28264e-07
1.168e-07
1.05891e-06
9.42097e-07
8.39067e-07
7.48125e-07
6.67788e-07
5.96757e-07
5.33898e-07
4.7822e-07
4.28856e-07
3.85047e-07
3.46129e-07
3.1152e-07
2.80709e-07
2.53252e-07
2.28754e-07
2.06874e-07
1.87306e-07
1.6979e-07
1.54088e-07
1.39999e-07
1.27339e-07
1.15952e-07
1.05367e-06
9.37402e-07
8.34858e-07
7.44349e-07
6.64395e-07
5.93705e-07
5.3115e-07
4.75743e-07
4.2662e-07
3.83026e-07
3.443e-07
3.09862e-07
2.79206e-07
2.51886e-07
2.27513e-07
2.05743e-07
1.86277e-07
1.6885e-07
1.53231e-07
1.39214e-07
1.26621e-07
1.15293e-07
1.04932e-06
9.33514e-07
8.31385e-07
7.41241e-07
6.61612e-07
5.91209e-07
5.2891e-07
4.7373e-07
4.24809e-07
3.81395e-07
3.42829e-07
3.08535e-07
2.78007e-07
2.50802e-07
2.2653e-07
2.04853e-07
1.85469e-07
1.68118e-07
1.52566e-07
1.38611e-07
1.26074e-07
1.14793e-07
1.17426e-06
1.0468e-06
9.34185e-07
8.34611e-07
7.46491e-07
6.68439e-07
5.99243e-07
5.37839e-07
4.83299e-07
4.34807e-07
3.91647e-07
3.53194e-07
3.18898e-07
2.88275e-07
2.60901e-07
2.36405e-07
2.14458e-07
1.94772e-07
1.77093e-07
1.61198e-07
1.4689e-07
1.33994e-07
1.17455e-06
1.04707e-06
9.34441e-07
8.34851e-07
7.46716e-07
6.68649e-07
5.99439e-07
5.38023e-07
4.83471e-07
4.34968e-07
3.91798e-07
3.53335e-07
3.1903e-07
2.88398e-07
2.61017e-07
2.36512e-07
2.14558e-07
1.94866e-07
1.77181e-07
1.6128e-07
1.46966e-07
1.34066e-07
1.17729e-06
1.04954e-06
9.36669e-07
8.36862e-07
7.48533e-07
6.70294e-07
6.00929e-07
5.39375e-07
4.84698e-07
4.36083e-07
3.92813e-07
3.5426e-07
3.19873e-07
2.89168e-07
2.6172e-07
2.37157e-07
2.15148e-07
1.95406e-07
1.77677e-07
1.61736e-07
1.47385e-07
1.34451e-07
1.18189e-06
1.05367e-06
9.40377e-07
8.40199e-07
7.51539e-07
6.73006e-07
6.03378e-07
5.41589e-07
4.86703e-07
4.379e-07
3.94462e-07
3.55758e-07
3.21235e-07
2.90409e-07
2.62851e-07
2.38188e-07
2.1609e-07
1.96268e-07
1.78465e-07
1.62458e-07
1.48048e-07
1.35059e-07
1.18772e-06
1.05894e-06
9.45147e-07
8.44518e-07
7.55455e-07
6.7656e-07
6.06608e-07
5.44527e-07
4.89379e-07
4.4034e-07
3.96688e-07
3.57792e-07
3.23095e-07
2.92111e-07
2.64411e-07
2.39619e-07
2.17404e-07
1.97474e-07
1.79575e-07
1.63479e-07
1.48987e-07
1.35925e-07
1.19546e-06
1.06594e-06
9.51483e-07
8.50262e-07
7.60669e-07
6.81297e-07
6.10917e-07
5.48452e-07
4.92956e-07
4.43605e-07
3.99671e-07
3.6052e-07
3.25592e-07
2.94399e-07
2.66509e-07
2.41545e-07
2.19173e-07
1.99101e-07
1.81071e-07
1.64857e-07
1.50257e-07
1.37097e-07
1.20509e-06
1.07467e-06
9.59411e-07
8.57467e-07
7.67224e-07
6.87268e-07
6.16361e-07
5.53421e-07
4.97497e-07
4.47758e-07
4.03473e-07
3.64004e-07
3.28788e-07
2.97333e-07
2.69205e-07
2.44024e-07
2.21454e-07
2.01202e-07
1.83007e-07
1.66642e-07
1.51905e-07
1.38618e-07
1.21671e-06
1.08523e-06
9.69025e-07
8.66227e-07
7.75215e-07
6.94564e-07
6.2303e-07
5.59523e-07
5.03085e-07
4.5288e-07
4.08173e-07
3.68319e-07
3.32754e-07
3.0098e-07
2.72562e-07
2.47116e-07
2.24305e-07
2.03832e-07
1.85435e-07
1.68885e-07
1.53978e-07
1.40534e-07
1.23038e-06
1.09769e-06
9.80396e-07
8.76615e-07
7.84714e-07
7.03259e-07
6.30997e-07
5.66829e-07
5.09791e-07
4.5904e-07
4.13837e-07
3.73531e-07
3.37553e-07
3.05403e-07
2.7664e-07
2.50879e-07
2.27779e-07
2.07042e-07
1.88403e-07
1.7163e-07
1.56518e-07
1.42886e-07
1.24612e-06
1.11208e-06
9.93563e-07
8.88676e-07
7.95772e-07
7.13407e-07
6.40318e-07
5.75396e-07
5.17673e-07
4.66296e-07
4.20522e-07
3.79694e-07
3.4324e-07
3.10652e-07
2.8149e-07
2.55362e-07
2.31925e-07
2.10877e-07
1.91954e-07
1.74918e-07
1.59565e-07
1.45711e-07
1.26376e-06
1.12827e-06
1.00843e-06
9.02335e-07
8.08335e-07
7.24971e-07
6.5097e-07
5.85215e-07
5.2673e-07
4.74657e-07
4.28244e-07
3.86831e-07
3.49839e-07
3.16758e-07
2.87141e-07
2.60595e-07
2.36774e-07
2.15372e-07
1.96121e-07
1.78784e-07
1.63153e-07
1.49042e-07
1.28378e-06
1.14666e-06
1.02535e-06
9.17908e-07
8.22679e-07
7.38192e-07
6.63164e-07
5.9647e-07
5.37125e-07
4.84263e-07
4.37126e-07
3.95048e-07
3.57444e-07
3.23801e-07
2.93666e-07
2.66643e-07
2.42382e-07
2.20574e-07
2.00948e-07
1.83265e-07
1.67313e-07
1.52906e-07
1.30543e-06
1.16665e-06
1.0438e-06
9.34955e-07
8.38437e-07
7.52768e-07
6.76653e-07
6.08959e-07
5.48694e-07
4.94984e-07
4.47065e-07
4.04267e-07
3.65997e-07
3.3174e-07
3.01037e-07
2.73489e-07
2.48741e-07
2.26484e-07
2.06442e-07
1.88373e-07
1.72063e-07
1.57325e-07
1.32884e-06
1.18832e-06
1.06387e-06
9.53558e-07
8.55685e-07
7.68765e-07
6.91496e-07
6.22737e-07
5.61486e-07
5.06865e-07
4.58103e-07
4.14524e-07
3.75532e-07
3.40604e-07
3.09281e-07
2.81157e-07
2.55876e-07
2.33123e-07
2.12621e-07
1.94126e-07
1.7742e-07
1.62312e-07
1.3538e-06
1.21151e-06
1.08543e-06
9.73603e-07
8.74327e-07
7.86106e-07
7.0763e-07
6.37751e-07
5.7546e-07
5.19873e-07
4.70215e-07
4.25802e-07
3.86035e-07
3.50387e-07
3.18394e-07
2.89647e-07
2.63787e-07
2.40495e-07
2.19491e-07
2.00529e-07
1.83388e-07
1.67876e-07
1.35379e-06
1.21151e-06
1.08543e-06
9.73601e-07
8.74325e-07
7.86104e-07
7.07628e-07
6.37749e-07
5.75458e-07
5.19871e-07
4.70213e-07
4.258e-07
3.86033e-07
3.50386e-07
3.18393e-07
2.89647e-07
2.63787e-07
2.40495e-07
2.19492e-07
2.00529e-07
1.83389e-07
1.67877e-07
1.32883e-06
1.18831e-06
1.06386e-06
9.53551e-07
8.55678e-07
7.68759e-07
6.9149e-07
6.22731e-07
5.6148e-07
5.06859e-07
4.58098e-07
4.14519e-07
3.75528e-07
3.40601e-07
3.09279e-07
2.81156e-07
2.55876e-07
2.33123e-07
2.12622e-07
1.94126e-07
1.7742e-07
1.62313e-07
1.30542e-06
1.16663e-06
1.04378e-06
9.34941e-07
8.38425e-07
7.52756e-07
6.76642e-07
6.08949e-07
5.48684e-07
4.94975e-07
4.47058e-07
4.0426e-07
3.65992e-07
3.31735e-07
3.01034e-07
2.73486e-07
2.4874e-07
2.26483e-07
2.06441e-07
1.88373e-07
1.72063e-07
1.57324e-07
1.28376e-06
1.14664e-06
1.02532e-06
9.17888e-07
8.2266e-07
7.38175e-07
6.63148e-07
5.96456e-07
5.37113e-07
4.84252e-07
4.37117e-07
3.9504e-07
3.57438e-07
3.23795e-07
2.93662e-07
2.66639e-07
2.42378e-07
2.20571e-07
2.00946e-07
1.83263e-07
1.67312e-07
1.52905e-07
1.26373e-06
1.12824e-06
1.0084e-06
9.0231e-07
8.08312e-07
7.2495e-07
6.50951e-07
5.85199e-07
5.26716e-07
4.74645e-07
4.28233e-07
3.86822e-07
3.49831e-07
3.16751e-07
2.87135e-07
2.6059e-07
2.36769e-07
2.15368e-07
1.96117e-07
1.78781e-07
1.6315e-07
1.49039e-07
1.24608e-06
1.11205e-06
9.93533e-07
8.88648e-07
7.95746e-07
7.13383e-07
6.40296e-07
5.75377e-07
5.17655e-07
4.66281e-07
4.20508e-07
3.79683e-07
3.4323e-07
3.10644e-07
2.81483e-07
2.55356e-07
2.31919e-07
2.10873e-07
1.91949e-07
1.74915e-07
1.59562e-07
1.45709e-07
1.23034e-06
1.09766e-06
9.80364e-07
8.76585e-07
7.84686e-07
7.03234e-07
6.30974e-07
5.66807e-07
5.09771e-07
4.59023e-07
4.13821e-07
3.73517e-07
3.37542e-07
3.05393e-07
2.76632e-07
2.50872e-07
2.27774e-07
2.07037e-07
1.88399e-07
1.71626e-07
1.56515e-07
1.42883e-07
1.21667e-06
1.0852e-06
9.68994e-07
8.66198e-07
7.75187e-07
6.94538e-07
6.23006e-07
5.595e-07
5.03064e-07
4.52861e-07
4.08156e-07
3.68304e-07
3.32741e-07
3.00969e-07
2.72552e-07
2.47108e-07
2.24298e-07
2.03826e-07
1.8543e-07
1.6888e-07
1.53973e-07
1.4053e-07
1.20506e-06
1.07464e-06
9.5938e-07
8.57439e-07
7.67197e-07
6.87243e-07
6.16338e-07
5.53399e-07
4.97477e-07
4.47738e-07
4.03455e-07
3.63987e-07
3.28773e-07
2.97319e-07
2.69192e-07
2.44012e-07
2.21444e-07
2.01193e-07
1.83e-07
1.66636e-07
1.519e-07
1.38614e-07
1.19543e-06
1.06591e-06
9.51454e-07
8.50235e-07
7.60644e-07
6.81274e-07
6.10895e-07
5.48431e-07
4.92936e-07
4.43585e-07
3.99652e-07
3.60502e-07
3.25575e-07
2.94383e-07
2.66495e-07
2.41532e-07
2.19161e-07
1.99091e-07
1.81063e-07
1.6485e-07
1.50252e-07
1.37092e-07
1.18769e-06
1.05891e-06
9.45118e-07
8.44491e-07
7.5543e-07
6.76537e-07
6.06587e-07
5.44507e-07
4.8936e-07
4.40322e-07
3.96671e-07
3.57775e-07
3.2308e-07
2.92096e-07
2.64397e-07
2.39605e-07
2.17392e-07
1.97463e-07
1.79566e-07
1.63471e-07
1.48981e-07
1.35921e-07
1.18185e-06
1.05363e-06
9.40345e-07
8.40169e-07
7.51512e-07
6.7298e-07
6.03356e-07
5.41569e-07
4.86685e-07
4.37884e-07
3.94446e-07
3.55744e-07
3.21221e-07
2.90395e-07
2.62837e-07
2.38175e-07
2.16078e-07
1.96257e-07
1.78455e-07
1.62449e-07
1.4804e-07
1.35053e-07
1.17726e-06
1.04951e-06
9.3664e-07
8.36833e-07
7.48505e-07
6.70268e-07
6.00905e-07
5.39352e-07
4.84678e-07
4.36065e-07
3.92798e-07
3.54246e-07
3.19861e-07
2.89156e-07
2.61709e-07
2.37145e-07
2.15138e-07
1.95396e-07
1.77667e-07
1.61728e-07
1.47377e-07
1.34446e-07
1.17453e-06
1.04705e-06
9.34423e-07
8.34832e-07
7.46695e-07
6.68628e-07
5.99418e-07
5.38002e-07
4.83451e-07
4.34949e-07
3.91782e-07
3.53322e-07
3.19018e-07
2.88388e-07
2.61008e-07
2.36505e-07
2.14552e-07
1.94859e-07
1.77175e-07
1.61273e-07
1.46961e-07
1.3406e-07
1.17425e-06
1.04679e-06
9.34179e-07
8.34603e-07
7.46482e-07
6.68429e-07
5.99231e-07
5.37826e-07
4.83285e-07
4.34792e-07
3.91633e-07
3.53181e-07
3.18887e-07
2.88266e-07
2.60894e-07
2.364e-07
2.14453e-07
1.94768e-07
1.77088e-07
1.61193e-07
1.46884e-07
1.33987e-07
1.17431e-06
1.04685e-06
9.34239e-07
8.34661e-07
7.46537e-07
6.6848e-07
5.99279e-07
5.37871e-07
4.83327e-07
4.34831e-07
3.91668e-07
3.53213e-07
3.18916e-07
2.88292e-07
2.60918e-07
2.3642e-07
2.14472e-07
1.94784e-07
1.77104e-07
1.61206e-07
1.46896e-07
1.33999e-07
1.17459e-06
1.04711e-06
9.34483e-07
8.34889e-07
7.4675e-07
6.68679e-07
5.99465e-07
5.38046e-07
4.83491e-07
4.34986e-07
3.91815e-07
3.53351e-07
3.19044e-07
2.88412e-07
2.61029e-07
2.36524e-07
2.14568e-07
1.94874e-07
1.77188e-07
1.61286e-07
1.46971e-07
1.3407e-07
1.17732e-06
1.04957e-06
9.36698e-07
8.36889e-07
7.48557e-07
6.70316e-07
6.00949e-07
5.39393e-07
4.84715e-07
4.36098e-07
3.92827e-07
3.54273e-07
3.19884e-07
2.89178e-07
2.61728e-07
2.37163e-07
2.15154e-07
1.95411e-07
1.77681e-07
1.61739e-07
1.47389e-07
1.34455e-07
1.18191e-06
1.05369e-06
9.40398e-07
8.40219e-07
7.51559e-07
6.73024e-07
6.03395e-07
5.41605e-07
4.86717e-07
4.37912e-07
3.94473e-07
3.55766e-07
3.21242e-07
2.90413e-07
2.62855e-07
2.38191e-07
2.16092e-07
1.9627e-07
1.78467e-07
1.62461e-07
1.4805e-07
1.35063e-07
1.18774e-06
1.05896e-06
9.45164e-07
8.44535e-07
7.55471e-07
6.76575e-07
6.06622e-07
5.4454e-07
4.89389e-07
4.40348e-07
3.96695e-07
3.57797e-07
3.23099e-07
2.92114e-07
2.64412e-07
2.3962e-07
2.17404e-07
1.97475e-07
1.79576e-07
1.6348e-07
1.4899e-07
1.35928e-07
1.19547e-06
1.06595e-06
9.51495e-07
8.50275e-07
7.60681e-07
6.81308e-07
6.10927e-07
5.4846e-07
4.92963e-07
4.4361e-07
3.99675e-07
3.60522e-07
3.25595e-07
2.944e-07
2.66511e-07
2.41545e-07
2.19175e-07
1.99102e-07
1.81073e-07
1.64859e-07
1.5026e-07
1.371e-07
1.20509e-06
1.07468e-06
9.59417e-07
8.57474e-07
7.6723e-07
6.87274e-07
6.16367e-07
5.53426e-07
4.97501e-07
4.47761e-07
4.03476e-07
3.64006e-07
3.2879e-07
2.97335e-07
2.69206e-07
2.44026e-07
2.21456e-07
2.01205e-07
1.8301e-07
1.66646e-07
1.51908e-07
1.38621e-07
1.21671e-06
1.08523e-06
9.69027e-07
8.66229e-07
7.75217e-07
6.94566e-07
6.23033e-07
5.59525e-07
5.03087e-07
4.52882e-07
4.08175e-07
3.68321e-07
3.32756e-07
3.00983e-07
2.72565e-07
2.47119e-07
2.24308e-07
2.03835e-07
1.85438e-07
1.68888e-07
1.53981e-07
1.40537e-07
1.23037e-06
1.09769e-06
9.80394e-07
8.76614e-07
7.84713e-07
7.03259e-07
6.30998e-07
5.6683e-07
5.09793e-07
4.59043e-07
4.13839e-07
3.73534e-07
3.37557e-07
3.05407e-07
2.76645e-07
2.50883e-07
2.27784e-07
2.07046e-07
1.88406e-07
1.71633e-07
1.56521e-07
1.42889e-07
1.24611e-06
1.11208e-06
9.9356e-07
8.88674e-07
7.95771e-07
7.13407e-07
6.40318e-07
5.75397e-07
5.17674e-07
4.66299e-07
4.20525e-07
3.79699e-07
3.43244e-07
3.10657e-07
2.81495e-07
2.55367e-07
2.3193e-07
2.10882e-07
1.91958e-07
1.74922e-07
1.59568e-07
1.45714e-07
1.26376e-06
1.12826e-06
1.00842e-06
9.02334e-07
8.08335e-07
7.24971e-07
6.50971e-07
5.85217e-07
5.26733e-07
4.7466e-07
4.28248e-07
3.86835e-07
3.49843e-07
3.16762e-07
2.87146e-07
2.606e-07
2.36779e-07
2.15377e-07
1.96126e-07
1.78788e-07
1.63157e-07
1.49045e-07
1.28378e-06
1.14667e-06
1.02535e-06
9.17909e-07
8.2268e-07
7.38194e-07
6.63167e-07
5.96474e-07
5.37128e-07
4.84267e-07
4.3713e-07
3.95052e-07
3.57448e-07
3.23805e-07
2.9367e-07
2.66647e-07
2.42386e-07
2.20578e-07
2.00952e-07
1.83269e-07
1.67317e-07
1.5291e-07
1.30544e-06
1.16665e-06
1.0438e-06
9.3496e-07
8.38443e-07
7.52773e-07
6.76658e-07
6.08965e-07
5.48699e-07
4.94989e-07
4.47071e-07
4.04272e-07
3.66002e-07
3.31744e-07
3.01042e-07
2.73493e-07
2.48746e-07
2.26488e-07
2.06446e-07
1.88377e-07
1.72068e-07
1.57329e-07
1.32885e-06
1.18833e-06
1.06388e-06
9.53568e-07
8.55694e-07
7.68774e-07
6.91505e-07
6.22745e-07
5.61493e-07
5.06872e-07
4.5811e-07
4.14531e-07
3.75539e-07
3.40611e-07
3.09288e-07
2.81163e-07
2.55882e-07
2.33129e-07
2.12626e-07
1.9413e-07
1.77424e-07
1.62316e-07
1.35381e-06
1.21152e-06
1.08544e-06
9.73616e-07
8.7434e-07
7.86118e-07
7.07642e-07
6.37761e-07
5.7547e-07
5.19883e-07
4.70223e-07
4.2581e-07
3.86043e-07
3.50395e-07
3.18402e-07
2.89655e-07
2.63794e-07
2.40502e-07
2.19497e-07
2.00534e-07
1.83393e-07
1.6788e-07
1.35381e-06
1.21153e-06
1.08544e-06
9.73617e-07
8.7434e-07
7.86119e-07
7.07642e-07
6.37761e-07
5.7547e-07
5.19883e-07
4.70223e-07
4.2581e-07
3.86043e-07
3.50395e-07
3.18402e-07
2.89655e-07
2.63794e-07
2.40502e-07
2.19497e-07
2.00534e-07
1.83392e-07
1.6788e-07
1.32885e-06
1.18833e-06
1.06388e-06
9.53571e-07
8.55697e-07
7.68776e-07
6.91506e-07
6.22746e-07
5.61494e-07
5.06872e-07
4.5811e-07
4.14531e-07
3.75538e-07
3.40611e-07
3.09287e-07
2.81163e-07
2.55882e-07
2.33129e-07
2.12626e-07
1.9413e-07
1.77424e-07
1.62316e-07
1.30545e-06
1.16666e-06
1.04381e-06
9.34965e-07
8.38447e-07
7.52777e-07
6.76661e-07
6.08967e-07
5.487e-07
4.9499e-07
4.47071e-07
4.04271e-07
3.66002e-07
3.31744e-07
3.01041e-07
2.73492e-07
2.48745e-07
2.26487e-07
2.06445e-07
1.88376e-07
1.72067e-07
1.57328e-07
1.28379e-06
1.14668e-06
1.02536e-06
9.17918e-07
8.22687e-07
7.382e-07
6.63171e-07
5.96477e-07
5.3713e-07
4.84268e-07
4.3713e-07
3.95051e-07
3.57447e-07
3.23804e-07
2.93669e-07
2.66645e-07
2.42384e-07
2.20576e-07
2.0095e-07
1.83267e-07
1.67315e-07
1.52908e-07
1.26377e-06
1.12828e-06
1.00844e-06
9.02345e-07
8.08344e-07
7.24979e-07
6.50976e-07
5.85221e-07
5.26735e-07
4.74662e-07
4.28248e-07
3.86834e-07
3.49842e-07
3.1676e-07
2.87143e-07
2.60597e-07
2.36776e-07
2.15374e-07
1.96123e-07
1.78786e-07
1.63154e-07
1.49043e-07
1.24613e-06
1.11209e-06
9.93574e-07
8.88686e-07
7.95781e-07
7.13415e-07
6.40324e-07
5.75402e-07
5.17678e-07
4.66301e-07
4.20526e-07
3.79698e-07
3.43243e-07
3.10655e-07
2.81492e-07
2.55364e-07
2.31927e-07
2.10879e-07
1.91955e-07
1.74919e-07
1.59566e-07
1.45712e-07
1.23039e-06
1.09771e-06
9.80407e-07
8.76625e-07
7.84723e-07
7.03267e-07
6.31004e-07
5.66835e-07
5.09797e-07
4.59045e-07
4.13841e-07
3.73535e-07
3.37556e-07
3.05406e-07
2.76643e-07
2.50882e-07
2.27781e-07
2.07043e-07
1.88404e-07
1.71631e-07
1.56519e-07
1.42887e-07
1.21672e-06
1.08524e-06
9.69035e-07
8.66237e-07
7.75223e-07
6.94572e-07
6.23037e-07
5.59529e-07
5.0309e-07
4.52885e-07
4.08177e-07
3.68323e-07
3.32757e-07
3.00983e-07
2.72565e-07
2.47118e-07
2.24307e-07
2.03833e-07
1.85436e-07
1.68886e-07
1.53978e-07
1.40535e-07
1.2051e-06
1.07468e-06
9.59419e-07
8.57474e-07
7.67231e-07
6.87274e-07
6.16367e-07
5.53426e-07
4.97502e-07
4.47762e-07
4.03477e-07
3.64007e-07
3.28791e-07
2.97335e-07
2.69207e-07
2.44025e-07
2.21456e-07
2.01203e-07
1.83009e-07
1.66644e-07
1.51906e-07
1.38619e-07
1.19547e-06
1.06594e-06
9.51489e-07
8.50268e-07
7.60674e-07
6.81302e-07
6.10922e-07
5.48456e-07
4.9296e-07
4.43608e-07
3.99674e-07
3.60523e-07
3.25595e-07
2.94401e-07
2.66511e-07
2.41546e-07
2.19174e-07
1.99102e-07
1.81072e-07
1.64858e-07
1.50258e-07
1.37097e-07
1.18773e-06
1.05895e-06
9.45152e-07
8.44523e-07
7.5546e-07
6.76564e-07
6.06612e-07
5.44531e-07
4.89382e-07
4.40342e-07
3.96691e-07
3.57794e-07
3.23097e-07
2.92113e-07
2.64413e-07
2.3962e-07
2.17405e-07
1.97475e-07
1.79576e-07
1.6348e-07
1.48988e-07
1.35926e-07
1.18189e-06
1.05367e-06
9.4038e-07
8.40202e-07
7.51542e-07
6.73008e-07
6.03381e-07
5.41592e-07
4.86705e-07
4.37902e-07
3.94464e-07
3.5576e-07
3.21237e-07
2.9041e-07
2.62852e-07
2.38189e-07
2.16091e-07
1.96269e-07
1.78466e-07
1.62459e-07
1.48048e-07
1.3506e-07
1.17729e-06
1.04954e-06
9.36671e-07
8.36864e-07
7.48535e-07
6.70296e-07
6.00931e-07
5.39376e-07
4.847e-07
4.36085e-07
3.92814e-07
3.54261e-07
3.19874e-07
2.89169e-07
2.61721e-07
2.37157e-07
2.15149e-07
1.95407e-07
1.77677e-07
1.61736e-07
1.47386e-07
1.34452e-07
1.17455e-06
1.04707e-06
9.34443e-07
8.34852e-07
7.46717e-07
6.6865e-07
5.9944e-07
5.38024e-07
4.83472e-07
4.34968e-07
3.91799e-07
3.53336e-07
3.1903e-07
2.88398e-07
2.61017e-07
2.36513e-07
2.14559e-07
1.94866e-07
1.77181e-07
1.6128e-07
1.46967e-07
1.34067e-07
1.17426e-06
1.0468e-06
9.34186e-07
8.34612e-07
7.46491e-07
6.68439e-07
5.99243e-07
5.3784e-07
4.83299e-07
4.34807e-07
3.91647e-07
3.53195e-07
3.18898e-07
2.88275e-07
2.60901e-07
2.36405e-07
2.14458e-07
1.94772e-07
1.77093e-07
1.61198e-07
1.4689e-07
1.33995e-07
1.17107e-06
1.17123e-06
1.17381e-06
1.17807e-06
1.18331e-06
1.19011e-06
1.19847e-06
1.2084e-06
1.21982e-06
1.23261e-06
1.24653e-06
1.26209e-06
1.27852e-06
1.29585e-06
1.31383e-06
1.2422e-06
1.2191e-06
1.19713e-06
1.17643e-06
1.15713e-06
1.13902e-06
1.12294e-06
1.10827e-06
1.09523e-06
1.08381e-06
1.07398e-06
1.06571e-06
1.05891e-06
1.05361e-06
1.04927e-06
1.03804e-06
1.03818e-06
1.04047e-06
1.04424e-06
1.04892e-06
1.05502e-06
1.06254e-06
1.07152e-06
1.08191e-06
1.09359e-06
1.10639e-06
1.12074e-06
1.13602e-06
1.15225e-06
1.16922e-06
1.1081e-06
1.08698e-06
1.06693e-06
1.0481e-06
1.03057e-06
1.01418e-06
9.9964e-07
9.86407e-07
9.74662e-07
9.64395e-07
9.5558e-07
9.48167e-07
9.4209e-07
9.37342e-07
9.33472e-07
9.21003e-07
9.21128e-07
9.23155e-07
9.2651e-07
9.30693e-07
9.3616e-07
9.42929e-07
9.51069e-07
9.60531e-07
9.71221e-07
9.82989e-07
9.9623e-07
1.01044e-06
1.02564e-06
1.04164e-06
9.89609e-07
9.70266e-07
9.51965e-07
9.34806e-07
9.18873e-07
9.04021e-07
8.90849e-07
8.78895e-07
8.68306e-07
8.59067e-07
8.51148e-07
8.44499e-07
8.39056e-07
8.34803e-07
8.31344e-07
8.17965e-07
8.18075e-07
8.19878e-07
8.22862e-07
8.26612e-07
8.3152e-07
8.37617e-07
8.44992e-07
8.53623e-07
8.63422e-07
8.74259e-07
8.86481e-07
8.99693e-07
9.13926e-07
9.29001e-07
8.84814e-07
8.67084e-07
8.50354e-07
8.34704e-07
8.20203e-07
8.06727e-07
7.94781e-07
7.8397e-07
7.74412e-07
7.66087e-07
7.58964e-07
7.52993e-07
7.48112e-07
7.44297e-07
7.41203e-07
7.27191e-07
7.27289e-07
7.28895e-07
7.31552e-07
7.3492e-07
7.39335e-07
7.44832e-07
7.51515e-07
7.59392e-07
7.6839e-07
7.78382e-07
7.89671e-07
8.01953e-07
8.15272e-07
8.29467e-07
7.92049e-07
7.75782e-07
7.6047e-07
7.46181e-07
7.32968e-07
7.20726e-07
7.09879e-07
7.00089e-07
6.9145e-07
6.83939e-07
6.77524e-07
6.72155e-07
6.67771e-07
6.64346e-07
6.61576e-07
6.47163e-07
6.47252e-07
6.48684e-07
6.51054e-07
6.54083e-07
6.58062e-07
6.63026e-07
6.69083e-07
6.76275e-07
6.84545e-07
6.93773e-07
7.04209e-07
7.15622e-07
7.28081e-07
7.4144e-07
7.09858e-07
6.94917e-07
6.80888e-07
6.67827e-07
6.55775e-07
6.44639e-07
6.34777e-07
6.25901e-07
6.18083e-07
6.11298e-07
6.05513e-07
6.0068e-07
5.96738e-07
5.9366e-07
5.91176e-07
5.76557e-07
5.76639e-07
5.77917e-07
5.80033e-07
5.82761e-07
5.86355e-07
5.90846e-07
5.96339e-07
6.02904e-07
6.1051e-07
6.19044e-07
6.28703e-07
6.39309e-07
6.50953e-07
6.63519e-07
6.36965e-07
6.23229e-07
6.1036e-07
5.98409e-07
5.87403e-07
5.77263e-07
5.68286e-07
5.60227e-07
5.53144e-07
5.47008e-07
5.41784e-07
5.37426e-07
5.33878e-07
5.31108e-07
5.28879e-07
5.14215e-07
5.1429e-07
5.15433e-07
5.17324e-07
5.19784e-07
5.23036e-07
5.27109e-07
5.32097e-07
5.38088e-07
5.45085e-07
5.52984e-07
5.61936e-07
5.71794e-07
5.82668e-07
5.94479e-07
5.72253e-07
5.59614e-07
5.47797e-07
5.36848e-07
5.26788e-07
5.17543e-07
5.09363e-07
5.02037e-07
4.9561e-07
4.90054e-07
4.85332e-07
4.81398e-07
4.782e-07
4.75704e-07
4.73701e-07
4.59124e-07
4.59195e-07
4.60219e-07
4.6191e-07
4.64131e-07
4.67078e-07
4.7078e-07
4.75317e-07
4.80784e-07
4.87217e-07
4.94535e-07
5.02842e-07
5.12012e-07
5.2216e-07
5.3325e-07
5.14743e-07
5.03108e-07
4.92244e-07
4.82201e-07
4.72996e-07
4.64559e-07
4.57095e-07
4.50428e-07
4.4459e-07
4.39552e-07
4.35277e-07
4.31722e-07
4.28836e-07
4.26584e-07
4.24782e-07
4.104e-07
4.10468e-07
4.11387e-07
4.12901e-07
4.14908e-07
4.17582e-07
4.20953e-07
4.2509e-07
4.30082e-07
4.35993e-07
4.42771e-07
4.50488e-07
4.59026e-07
4.68494e-07
4.78894e-07
4.63578e-07
4.5286e-07
4.42866e-07
4.33643e-07
4.2521e-07
4.17503e-07
4.10686e-07
4.04611e-07
3.99301e-07
3.94727e-07
3.90853e-07
3.87635e-07
3.85027e-07
3.82993e-07
3.8137e-07
3.6727e-07
3.67335e-07
3.68162e-07
3.69519e-07
3.71334e-07
3.73762e-07
3.76837e-07
3.80617e-07
3.85182e-07
3.9061e-07
3.96885e-07
4.04059e-07
4.12017e-07
4.20852e-07
4.30595e-07
4.18005e-07
4.08129e-07
3.98929e-07
3.90451e-07
3.82715e-07
3.75667e-07
3.69436e-07
3.63893e-07
3.59058e-07
3.549e-07
3.51384e-07
3.48469e-07
3.4611e-07
3.4427e-07
3.42806e-07
3.29058e-07
3.29119e-07
3.29864e-07
3.31083e-07
3.32726e-07
3.34932e-07
3.3774e-07
3.41202e-07
3.45384e-07
3.50368e-07
3.56171e-07
3.62842e-07
3.70267e-07
3.78517e-07
3.87636e-07
3.7737e-07
3.68262e-07
3.59789e-07
3.51991e-07
3.44887e-07
3.38435e-07
3.32732e-07
3.27671e-07
3.23262e-07
3.19477e-07
3.16283e-07
3.13638e-07
3.11501e-07
3.09835e-07
3.08513e-07
2.9517e-07
2.95227e-07
2.959e-07
2.96997e-07
2.98486e-07
3.00493e-07
3.03059e-07
3.06234e-07
3.10073e-07
3.14653e-07
3.20014e-07
3.26214e-07
3.33147e-07
3.40857e-07
3.49389e-07
3.41099e-07
3.3269e-07
3.24884e-07
3.17706e-07
3.11177e-07
3.05262e-07
3.00038e-07
2.95411e-07
2.91387e-07
2.87939e-07
2.85032e-07
2.8263e-07
2.80691e-07
2.79181e-07
2.77987e-07
2.6509e-07
2.65142e-07
2.6575e-07
2.66739e-07
2.6809e-07
2.69917e-07
2.72264e-07
2.75179e-07
2.78711e-07
2.82925e-07
2.87875e-07
2.93631e-07
3.00106e-07
3.07318e-07
3.15302e-07
3.08687e-07
3.00914e-07
2.93717e-07
2.87109e-07
2.81104e-07
2.75676e-07
2.70883e-07
2.6665e-07
2.62973e-07
2.59827e-07
2.57179e-07
2.54995e-07
2.53234e-07
2.51863e-07
2.50782e-07
2.38362e-07
2.38409e-07
2.38958e-07
2.39852e-07
2.41081e-07
2.42745e-07
2.44892e-07
2.4757e-07
2.50825e-07
2.5471e-07
2.59281e-07
2.64617e-07
2.70661e-07
2.77413e-07
2.84887e-07
2.79693e-07
2.72498e-07
2.65857e-07
2.59771e-07
2.54245e-07
2.49257e-07
2.44857e-07
2.40979e-07
2.37616e-07
2.34742e-07
2.32327e-07
2.30339e-07
2.28737e-07
2.27491e-07
2.26513e-07
2.14588e-07
2.14632e-07
2.15128e-07
2.15936e-07
2.17055e-07
2.18573e-07
2.20539e-07
2.23e-07
2.26002e-07
2.29591e-07
2.33816e-07
2.38758e-07
2.44394e-07
2.50715e-07
2.57718e-07
2.53727e-07
2.47059e-07
2.40923e-07
2.35316e-07
2.30228e-07