/*--------------------------------*- C++ -*----------------------------------*\
| =========                 |                                                 |
| \\      /  F ield         | OpenFOAM Extend Project: Open source CFD        |
|  \\    /   O peration     | Version:  1.6-ext                               |
|   \\  /    A nd           | Web:      www.extend-project.de                 |
|    \\/     M anipulation  |                                                 |
\*---------------------------------------------------------------------------*/
FoamFile
{
    version     2.0;
    format      ascii;
    class       surfaceScalarField;
    location    "0.1";
    object      phi;
}
// * * * * * * * * * * * * * * * * * * * * * * * * * * * * * * * * * * * * * //

dimensions      [0 3 -1 0 0 0 0];

internalField   nonuniform List<scalar> 
123
(
0.000204352
5.58554e-05
0.000210347
8.09627e-05
0.000217187
9.05124e-05
0.000225692
0.000102441
0.00023776
0.000119785
0.000257985
0.000143872
0.000298833
0.000174799
0.000390085
0.000210636
0.000279474
0.000541662
0.000207309
4.85466e-05
0.000217502
7.07694e-05
0.000229153
7.88619e-05
0.000243435
8.81592e-05
0.000262708
0.000100512
0.000291164
0.000115416
0.000334881
0.000131082
0.000402727
0.000142791
0.000157796
0.000524405
0.000209828
3.87186e-05
0.000223328
5.72693e-05
0.000238323
6.38671e-05
0.000255802
7.06796e-05
0.000277519
7.87955e-05
0.000305654
8.72808e-05
0.00034258
9.41559e-05
0.000390293
9.50776e-05
8.73312e-05
0.000460758
0.000212044
2.66747e-05
0.000227932
4.13817e-05
0.000244931
4.68673e-05
0.000263792
5.18187e-05
0.000285641
5.69466e-05
0.000311476
6.1446e-05
0.000341921
6.37107e-05
0.000376095
6.09041e-05
5.03459e-05
0.00041308
0.000214379
1.22958e-05
0.000231748
2.40127e-05
0.000249629
2.89859e-05
0.000268719
3.27291e-05
0.00028976
3.5906e-05
0.00031305
3.81558e-05
0.000338213
3.85479e-05
0.000363523
3.5594e-05
2.78104e-05
0.000386058
0.000215952
-3.65674e-06
0.000233689
6.27627e-06
0.000251301
1.1374e-05
0.000269762
1.42681e-05
0.000289653
1.60146e-05
0.000310814
1.6995e-05
0.000332396
1.69658e-05
0.00035261
1.53802e-05
1.16867e-05
0.000368734
0.000196343
0.00020262
0.000213993
0.000228262
0.000244276
0.000261271
0.000278237
0.000293617
0.000305304
3.9548e-05
3.68025e-05
3.0203e-05
2.09076e-05
1.2448e-05
5.30405e-06
)
;

boundaryField
{
    inlet
    {
        type            calculated;
        value           nonuniform List<scalar> 7(-0.0002 -0.0002 -0.0002 -0.0002 -0.0002 -0.0002 -0.0002);
    }
    outlet
    {
        type            calculated;
        value           nonuniform 0();
    }
    fixedWalls
    {
        type            calculated;
        value           uniform 0;
    }
    frontAndBack
    {
        type            empty;
    }
    procBoundary2to3
    {
        type            processor;
        value           nonuniform List<scalar> 9(-6.02078e-05 -8.69569e-05 -9.73527e-05 -0.000110947 -0.000131853 -0.000164097 -0.000215647 -0.000301888 -0.000431051);
    }
    procBoundary2to1
    {
        type            processor;
        value           nonuniform List<scalar> 7(0.000502114 0.00052715 0.000467357 0.000422375 0.000394518 0.000375878 0.000310608);
    }
}


// ************************************************************************* //
