/*--------------------------------*- C++ -*----------------------------------*\
| =========                 |                                                 |
| \\      /  F ield         | OpenFOAM Extend Project: Open source CFD        |
|  \\    /   O peration     | Version:  1.6-ext                               |
|   \\  /    A nd           | Web:      www.extend-project.de                 |
|    \\/     M anipulation  |                                                 |
\*---------------------------------------------------------------------------*/
FoamFile
{
    version     2.0;
    format      ascii;
    class       volScalarField;
    location    "1.6";
    object      p;
}
// * * * * * * * * * * * * * * * * * * * * * * * * * * * * * * * * * * * * * //

dimensions      [0 2 -2 0 0 0 0];

internalField   nonuniform List<scalar> 
70
(
-0.11038
-0.0629684
-0.0218716
0.0121375
0.0332068
0.0439607
0.047329
-0.100005
-0.0878857
-0.0707215
-0.0486701
-0.0279461
-0.0128386
-0.00414345
-0.000197727
9.06612e-05
-0.0701254
-0.0659398
-0.053293
-0.0361108
-0.0201198
-0.0087452
-0.00250224
0.000124936
-0.000373684
-0.0334229
-0.0348677
-0.0295594
-0.0204134
-0.0112983
-0.00470692
-0.00121226
0.000141298
-0.000801502
-0.00195489
-0.00873599
-0.00996121
-0.00775065
-0.00454
-0.00198085
-0.00067439
-0.000200705
-0.00115388
0.0182007
0.00845577
0.00289343
0.000305471
-0.000595047
-0.000794494
-0.000859566
-0.000793753
-0.00138404
0.0288906
0.0173137
0.00910306
0.0037738
0.000656147
-0.000913803
-0.00151004
-0.00145612
-0.00146702
0.0310145
0.017752
0.00800187
0.00167058
-0.00180904
-0.0032469
-0.00341685
-0.00284648
-0.00191357
)
;

boundaryField
{
    inlet
    {
        type            zeroGradient;
    }
    outlet
    {
        type            totalPressure;
        rho             none;
        psi             none;
        gamma           1;
        p0              uniform 0;
        value           uniform 0;
    }
    fixedWalls
    {
        type            zeroGradient;
    }
    frontAndBack
    {
        type            empty;
    }
    procBoundary1to2
    {
        type            processor;
        value           nonuniform List<scalar> 7(-0.139115 -0.039545 0.00681341 0.0364079 0.0534596 0.0617671 0.0655333);
    }
    procBoundary1to0
    {
        type            processor;
        value           nonuniform List<scalar> 9(-0.108452 -0.0870385 -0.0708802 -0.0504623 -0.0301426 -0.0146097 -0.00510204 -0.000467743 0.000608166);
    }
}


// ************************************************************************* //
