/*--------------------------------*- C++ -*----------------------------------*\
| =========                 |                                                 |
| \\      /  F ield         | OpenFOAM Extend Project: Open source CFD        |
|  \\    /   O peration     | Version:  1.6-ext                               |
|   \\  /    A nd           | Web:      www.extend-project.de                 |
|    \\/     M anipulation  |                                                 |
\*---------------------------------------------------------------------------*/
FoamFile
{
    version     2.0;
    format      ascii;
    class       volVectorField;
    location    "1.6";
    object      U;
}
// * * * * * * * * * * * * * * * * * * * * * * * * * * * * * * * * * * * * * //

dimensions      [0 1 -1 0 0 0 0];

internalField   nonuniform List<vector> 
70
(
(0.213868 0.0342502 0)
(0.513975 0.0508817 0)
(0.588684 0.0589886 0)
(0.568214 0.0380542 0)
(0.511795 0.0164942 0)
(0.404654 0.000619607 0)
(0.189675 -0.00321901 0)
(0.235527 -0.038178 0)
(0.27398 -0.0989451 0)
(0.306845 -0.162089 0)
(0.320268 -0.203891 0)
(0.318826 -0.213645 0)
(0.310682 -0.196584 0)
(0.300612 -0.164711 0)
(0.292515 -0.129645 0)
(0.283304 -0.0925293 0)
(0.495864 -0.0270496 0)
(0.487086 -0.0965209 0)
(0.474401 -0.15497 0)
(0.449831 -0.188572 0)
(0.417327 -0.192689 0)
(0.384508 -0.174352 0)
(0.355369 -0.144844 0)
(0.333752 -0.114177 0)
(0.31231 -0.0821499 0)
(0.58555 -0.0119859 0)
(0.571838 -0.0763758 0)
(0.546018 -0.126043 0)
(0.507836 -0.151643 0)
(0.463664 -0.152693 0)
(0.421178 -0.13678 0)
(0.383939 -0.113235 0)
(0.356048 -0.0896494 0)
(0.327856 -0.065553 0)
(0.577934 -0.0139644 0)
(0.569806 -0.0610999 0)
(0.545042 -0.0956731 0)
(0.5071 -0.111535 0)
(0.463037 -0.109629 0)
(0.420177 -0.0963485 0)
(0.382152 -0.0787792 0)
(0.353196 -0.0621006 0)
(0.323374 -0.0463121 0)
(0.522746 -0.0167953 0)
(0.515147 -0.0461562 0)
(0.490811 -0.06565 0)
(0.454487 -0.0721944 0)
(0.41337 -0.06772 0)
(0.374101 -0.0572044 0)
(0.3399 -0.0454489 0)
(0.313837 -0.0352565 0)
(0.287283 -0.0272165 0)
(0.407668 -0.0155346 0)
(0.394507 -0.0280194 0)
(0.36804 -0.0341185 0)
(0.334091 -0.0336157 0)
(0.299246 -0.0287327 0)
(0.26824 -0.0224202 0)
(0.242798 -0.0168531 0)
(0.223699 -0.012826 0)
(0.204879 -0.011104 0)
(0.18398 -0.00666065 0)
(0.169735 -0.00835566 0)
(0.150473 -0.00813619 0)
(0.130374 -0.00663296 0)
(0.112637 -0.00475408 0)
(0.0986412 -0.00316412 0)
(0.0882007 -0.00216269 0)
(0.0804557 -0.00175838 0)
(0.0723564 -0.00221271 0)
)
;

boundaryField
{
    inlet
    {
        type            fixedValue;
        value           nonuniform 0();
    }
    outlet
    {
        type            zeroGradient;
    }
    fixedWalls
    {
        type            fixedValue;
        value           uniform (0 0 0);
    }
    frontAndBack
    {
        type            empty;
    }
    procBoundary1to2
    {
        type            processor;
        value           nonuniform List<vector> 7((0.365189 0.157494 0) (0.544114 0.15164 0) (0.566961 0.134401 0) (0.534111 0.0891459 0) (0.481601 0.0478287 0) (0.385959 0.0162631 0) (0.18531 0.000886365 0));
    }
    procBoundary1to0
    {
        type            processor;
        value           nonuniform List<vector> 9((0.042589 0.0220086 0) (0.0830934 -0.0390744 0) (0.140674 -0.122043 0) (0.18055 -0.18076 0) (0.206185 -0.202493 0) (0.223235 -0.192769 0) (0.234523 -0.164512 0) (0.242371 -0.130257 0) (0.247465 -0.0933453 0));
    }
}


// ************************************************************************* //
