/*--------------------------------*- C++ -*----------------------------------*\
| =========                 |                                                 |
| \\      /  F ield         | OpenFOAM Extend Project: Open source CFD        |
|  \\    /   O peration     | Version:  1.6-ext                               |
|   \\  /    A nd           | Web:      www.extend-project.de                 |
|    \\/     M anipulation  |                                                 |
\*---------------------------------------------------------------------------*/
FoamFile
{
    version     2.0;
    format      ascii;
    class       volSymmTensorField;
    location    "1.15";
    object      DSigma;
}
// * * * * * * * * * * * * * * * * * * * * * * * * * * * * * * * * * * * * * //

dimensions      [1 -1 -2 0 0 0 0];

internalField   nonuniform List<symmTensor> 
328
(
(0.0305357 0.00614471 -6.397e-24 0.0108695 3.62701e-20 0.0165621)
(0.0256388 0.00322946 -5.42989e-25 0.0143719 -4.00603e-25 0.0160043)
(0.0254509 -0.00190878 5.01393e-25 0.0143154 -2.03056e-25 0.0159065)
(0.0286122 -0.00532949 -8.86177e-24 0.0101496 1.83221e-20 0.0155047)
(0.0283403 0.00434904 9.22497e-24 0.00655378 -4.45245e-20 0.0139576)
(0.0256845 0.00283102 4.58309e-25 0.00999508 3.19244e-25 0.0142718)
(0.0255111 -0.00145072 -4.53992e-25 0.0100215 1.91242e-25 0.014213)
(0.0267308 -0.00360464 7.22968e-24 0.00606311 -2.1433e-20 0.0131176)
(0.0276476 0.00285658 -7.30374e-24 0.00399737 -4.06698e-20 0.012658)
(0.0270703 0.00237029 0 0.00747583 0 0.0138184)
(0.026903 -0.000946423 0 0.00752983 0 0.0137731)
(0.0263371 -0.00216175 -1.35328e-23 0.00366613 4.18971e-20 0.0120013)
(0.0268142 0.00178151 2.87792e-23 0.00221801 3.9789e-20 0.0116129)
(0.0274067 0.00187393 1.81528e-23 0.00513969 8.5747e-24 0.0130186)
(0.0272805 -0.000424409 0 0.0052076 0 0.0129953)
(0.0258267 -0.0011204 1.20542e-24 0.00200862 -7.94244e-20 0.0111341)
(0.0263783 0.00106652 6.34496e-24 0.00117099 -3.04518e-22 0.0110197)
(0.027802 0.00143246 -1.56825e-23 0.00356005 -7.84573e-24 0.0125448)
(0.0277273 2.90979e-05 -3.87254e-24 0.00362234 1.27152e-24 0.0125399)
(0.0257265 -0.000427879 1.65155e-23 0.00105459 1.8383e-20 0.0107124)
(0.0260507 0.000609344 -1.60017e-23 0.000536089 -1.60172e-20 0.0106347)
(0.0278681 0.00107557 0 0.00233998 0 0.0120832)
(0.0278612 0.00038898 -3.10593e-23 0.00238801 5.23303e-24 0.0120997)
(0.0257544 1.3866e-05 6.50374e-24 0.000495813 5.37253e-22 0.0105001)
(0.0258646 0.000337632 6.50289e-23 0.000190737 1.48322e-20 0.0104221)
(0.0278522 0.000818342 3.66464e-24 0.00151238 4.19258e-25 0.0117458)
(0.0279237 0.000642744 2.23046e-23 0.00153888 -4.00691e-24 0.011785)
(0.0259431 0.000274684 -6.05848e-24 0.000216277 1.62474e-20 0.0104638)
(0.0257405 0.000190691 -6.5563e-23 1.33328e-05 -3.87876e-23 0.0103015)
(0.0277185 0.000651598 0 0.000944158 0 0.0114651)
(0.0278793 0.00080148 6.54656e-23 0.000945206 -2.90223e-24 0.0115298)
(0.0262154 0.000413365 8.39339e-24 9.95401e-05 4.50677e-22 0.010526)
(0.0256534 0.00012604 1.60159e-23 -6.21712e-05 -1.28256e-20 0.0102365)
(0.02754 0.000559778 -9.69256e-24 0.000589668 -4.15061e-24 0.0112518)
(0.0277993 0.000881788 -6.90471e-23 0.000562412 4.90869e-24 0.0113447)
(0.026547 0.000471162 -6.88736e-24 8.26848e-05 1.38623e-20 0.0106519)
(0.0255689 0.000111563 -1.2766e-22 -8.3768e-05 2.37737e-20 0.0101941)
(0.0273305 0.000522244 2.09035e-23 0.000382321 2.25353e-24 0.0110851)
(0.0276974 0.000904892 -2.09044e-23 0.000324875 -2.25363e-24 0.0112089)
(0.0269049 0.000479369 1.53522e-23 0.000119748 -2.69953e-20 0.0108099)
(0.025468 0.00012499 -1.34058e-22 -7.96425e-05 2.25254e-22 0.0101553)
(0.027117 0.000519763 -1.71744e-22 0.000279734 -3.46475e-23 0.0109587)
(0.0275999 0.00089022 -2.28899e-23 0.000190531 3.14906e-24 0.0111162)
(0.0272705 0.000459712 3.06703e-23 0.000183737 2.31383e-20 0.0109817)
(0.025336 0.000150847 2.39628e-22 -6.76889e-05 -9.18478e-21 0.0101073)
(0.0269097 0.000535828 1.5704e-22 0.000243897 3.20767e-23 0.0108614)
(0.0275168 0.000854276 0 0.000121553 0 0.0110553)
(0.0276298 0.000427299 8.4049e-24 0.000257471 -1.15401e-20 0.0111549)
(0.0251659 0.00017928 -6.27462e-24 -5.78544e-05 7.26851e-21 0.0100432)
(0.0267162 0.000558199 -5.16934e-23 0.00024839 -1.43528e-23 0.0107859)
(0.0274553 0.000809136 5.23469e-23 9.15492e-05 -4.56021e-24 0.0110188)
(0.0279762 0.000391707 -5.41848e-23 0.000331407 2.25173e-21 0.011323)
(0.024955 0.000204506 -2.82772e-22 -5.52652e-05 -4.56042e-22 0.00995991)
(0.0265377 0.000578703 2.84903e-22 0.000273887 5.1972e-23 0.0107247)
(0.0274165 0.000762721 -2.33575e-22 8.1191e-05 -2.99501e-24 0.0109991)
(0.0283067 0.000358489 6.28655e-23 0.000400631 -8.23357e-21 0.0114829)
(0.0247043 0.000223756 2.68201e-22 -6.17629e-05 1.61727e-21 0.00985703)
(0.0263726 0.000592756 -4.55662e-22 0.000308164 -7.18694e-23 0.0106723)
(0.0273981 0.00071929 2.17785e-22 7.82516e-05 2.79254e-24 0.0109906)
(0.028622 0.000330204 5.1156e-23 0.000463391 7.26189e-21 0.0116342)
(0.0244168 0.000236248 1.14565e-22 -7.72341e-05 1.78058e-21 0.00973581)
(0.0262168 0.000598436 2.2438e-22 0.000344009 3.36906e-23 0.0106243)
(0.027396 0.000680391 3.76499e-22 7.55291e-05 -3.29025e-24 0.0109886)
(0.028924 0.000307428 -1.18024e-22 0.000519757 -3.30293e-21 0.0117775)
(0.0240964 0.000242397 1.21543e-22 -0.000100482 7.57261e-23 0.00959835)
(0.0260658 0.000595584 2.53456e-24 0.000377949 -1.35814e-23 0.0105775)
(0.0274046 0.000645782 -3.61753e-22 6.96195e-05 -1.11552e-23 0.0109897)
(0.0292149 0.000289546 -3.5788e-24 0.000570787 2.94546e-21 0.0119143)
(0.0237472 0.000243177 6.10716e-24 -0.000129864 -4.59103e-21 0.00944695)
(0.0259146 0.000584979 5.31809e-22 0.000408837 5.11635e-23 0.0105294)
(0.0274186 0.000614264 6.78155e-22 5.94723e-05 -7.70773e-24 0.0109912)
(0.0294966 0.000275392 -6.95868e-22 0.000617846 2.91183e-21 0.0120458)
(0.0233733 0.000239701 5.02881e-22 -0.000163677 2.82533e-21 0.00928384)
(0.025759 0.00056776 -7.52569e-22 0.000436795 -8.11984e-23 0.0104783)
(0.0274325 0.000584314 -5.09724e-22 4.53889e-05 1.02741e-24 0.0109911)
(0.0297694 0.000263678 -5.75802e-23 0.00066222 9.24386e-23 0.0121727)
(0.0229778 0.000232951 -2.51238e-22 -0.000200449 -7.11751e-21 0.00911093)
(0.0255953 0.000545003 8.20838e-22 0.000462467 5.44143e-23 0.0104231)
(0.0274416 0.000554457 0 2.8279e-05 0 0.0109879)
(0.0300324 0.00025326 8.22525e-22 0.000704918 4.22147e-21 0.0122949)
(0.0225639 0.000223723 -2.74347e-22 -0.000238801 9.76601e-21 0.00893005)
(0.0254206 0.000517645 -5.20682e-22 0.000486514 -2.56236e-23 0.0103628)
(0.0274412 0.000523552 -3.0514e-22 9.11133e-06 7.43838e-24 0.0109801)
(0.0302825 0.000243257 -2.66943e-22 0.000746446 -1.27211e-20 0.0124116)
(0.0221335 0.000212371 -5.0372e-22 -0.000278114 -9.33995e-21 0.00874214)
(0.0252325 0.000486063 0 0.000509398 0 0.0102967)
(0.0274276 0.000490512 5.53554e-22 -1.09432e-05 -2.81408e-23 0.0109667)
(0.0305167 0.00023294 -1.98603e-23 0.000787464 1.08487e-20 0.0125216)
(0.0216751 0.000198018 -8.38411e-24 -0.000317559 4.24031e-21 0.00854303)
(0.0250213 0.000447846 0 0.000532321 0 0.0102214)
(0.0273939 0.00045196 -5.81172e-22 -3.27125e-05 6.32009e-23 0.0109445)
(0.0307326 0.000220682 -7.48785e-25 0.000827647 3.79302e-22 0.0126241)
(0.0212073 0.000184276 5.82105e-22 -0.000355346 -7.84761e-21 0.00834079)
(0.0247925 0.00041077 0 0.000554461 0 0.0101388)
(0.0273369 0.000415133 -6.77311e-22 -5.37022e-05 1.24133e-22 0.0109133)
(0.0309153 0.000209581 6.11403e-22 0.000866168 5.68548e-21 0.0127126)
(0.0207609 0.000170207 6.38997e-22 -0.000389494 3.16179e-21 0.00814856)
(0.02456 0.000373345 6.85208e-22 0.000573922 -1.25115e-22 0.0100536)
(0.0272574 0.000378217 -6.88222e-22 -7.24558e-05 1.26579e-22 0.010874)
(0.0310501 0.000198382 -4.85007e-23 0.000900923 4.30125e-23 0.0127804)
(0.0203368 0.000155837 -1.87916e-21 -0.000419281 -1.05221e-20 0.00796701)
(0.0243241 0.000335631 3.42628e-21 0.000591143 -6.37865e-22 0.00996608)
(0.0271559 0.000341079 8.7461e-23 -8.88862e-05 -7.09791e-23 0.0108268)
(0.0311367 0.000186885 -7.27732e-22 0.000931432 -7.08948e-21 0.0128272)
(0.0199349 0.000141363 -2.64982e-21 -0.000444683 -7.58239e-21 0.00779609)
(0.0240844 0.000297948 1.47833e-21 0.000606165 -3.88337e-22 0.00987624)
(0.0270324 0.000303977 1.58709e-21 -0.000103067 -4.21424e-22 0.0107717)
(0.0311752 0.00017523 1.20807e-22 0.000957664 -4.35426e-21 0.0128532)
(0.019555 0.000126962 1.5848e-23 -0.000465616 -5.96082e-21 0.00763576)
(0.0238411 0.000260687 -1.48214e-21 0.000619079 3.70417e-22 0.00978408)
(0.0268869 0.000267268 1.70014e-21 -0.000114996 -5.25546e-22 0.0107088)
(0.0311661 0.00016354 -1.54102e-21 0.000979594 -1.44214e-20 0.0128583)
(0.0191965 0.00011284 -1.38663e-21 -0.000482182 -1.4101e-20 0.00748574)
(0.023594 0.000224321 -1.68446e-21 0.00062993 5.74168e-22 0.00968957)
(0.0267198 0.000231409 3.49736e-21 -0.000124725 -1.2182e-21 0.010638)
(0.0311102 0.000151991 -5.54776e-21 0.000997307 -4.7957e-21 0.012843)
(0.0188584 9.92078e-05 -1.50639e-21 -0.000494484 4.23975e-21 0.00734556)
(0.0233429 0.000189361 1.75561e-21 0.000638812 -7.50546e-22 0.00959267)
(0.0265315 0.000196901 -1.90614e-21 -0.000132318 8.1389e-22 0.0105597)
(0.0310086 0.000140772 4.02846e-21 0.00101093 -1.40721e-20 0.0128078)
(0.0185391 8.62856e-05 -1.55902e-21 -0.000502735 -6.81827e-22 0.00721454)
(0.0230874 0.000156336 -1.75562e-21 0.000645828 7.50546e-22 0.00949329)
(0.0263224 0.000164268 1.90614e-21 -0.000137873 -8.13889e-22 0.0104738)
(0.0308631 0.000130085 -4.23081e-21 0.00102068 -4.24058e-21 0.0127535)
(0.0182367 7.42747e-05 -2.25133e-24 -0.000507205 7.25585e-22 0.00709178)
(0.0228272 0.000125738 0 0.00065111 0 0.00939131)
(0.0260933 0.000133998 0 -0.000141506 0 0.0103807)
(0.0306759 0.000120121 -2.29678e-21 0.00102684 -6.08771e-21 0.0126811)
(0.0179487 6.3345e-05 1.67361e-21 -0.000508236 5.48414e-21 0.00697619)
(0.0225616 9.79881e-05 0 0.000654808 0 0.00928658)
(0.0258449 0.000106509 0 -0.000143357 0 0.0102806)
(0.0304497 0.000111046 6.44914e-24 0.00102974 -2.01786e-21 0.0125918)
(0.0176726 5.362e-05 -1.94822e-21 -0.000506218 -2.89086e-21 0.00686654)
(0.0222903 7.3394e-05 1.96224e-21 0.00065709 -1.33943e-21 0.00917894)
(0.0255781 8.2111e-05 2.36721e-21 -0.000143583 -1.46097e-21 0.0101738)
(0.0301875 0.000102984 -4.89446e-21 0.0010298 3.39033e-21 0.0124869)
(0.0174053 4.51706e-05 -2.05619e-21 -0.000501574 6.21555e-21 0.00676149)
(0.0220123 5.21385e-05 -2.1783e-22 0.000658136 5.41024e-23 0.00906819)
(0.0252939 6.09881e-05 2.25838e-21 -0.000142354 -1.60429e-21 0.0100606)
(0.0298924 9.60099e-05 2.53589e-21 0.00102743 -4.51711e-21 0.0123679)
(0.0171439 3.80137e-05 -2.02524e-21 -0.000494734 -1.07962e-21 0.00665965)
(0.0217273 3.42731e-05 0 0.000658132 0 0.00895416)
(0.0249932 4.31949e-05 0 -0.00013985 0 0.00994136)
(0.0295679 9.01506e-05 2.78066e-21 0.00102307 7.76517e-21 0.0122364)
(0.0168853 3.21177e-05 6.13597e-21 -0.000486125 5.07258e-21 0.00655967)
(0.0214344 1.97285e-05 -4.55338e-21 0.000657264 4.18581e-21 0.00883666)
(0.0246771 2.86668e-05 0 -0.000136254 0 0.00981633)
(0.0292172 8.53851e-05 5.76737e-24 0.00101715 -1.63062e-21 0.0120937)
(0.0166267 2.74101e-05 5.60778e-24 -0.000476148 -1.55113e-21 0.00646024)
(0.021133 8.33416e-06 -8.20415e-23 0.000655715 2.63167e-22 0.0087155)
(0.0243464 1.72379e-05 0 -0.000131744 0 0.00968585)
(0.0288436 8.16541e-05 3.04469e-21 0.00101008 2.76551e-22 0.0119415)
(0.0163655 2.37877e-05 -1.62755e-23 -0.000465172 4.41754e-21 0.00636014)
(0.0208227 -1.58698e-07 5.06179e-21 0.000653657 -5.02685e-21 0.00859055)
(0.024002 8.66474e-06 2.7608e-22 -0.000126494 -6.20826e-23 0.00955022)
(0.02845 7.88685e-05 2.26536e-22 0.00100222 1.3343e-20 0.0117809)
(0.0160993 2.11264e-05 4.41678e-21 -0.000453526 -3.10142e-21 0.00625829)
(0.0205029 -6.05389e-06 0 0.000651248 0 0.00846166)
(0.023645 2.64895e-06 0 -0.000120665 0 0.00940972)
(0.0280393 7.69185e-05 -4.88277e-24 0.0009939 1.30418e-21 0.0116133)
(0.0158258 1.92896e-05 2.23481e-21 -0.000441496 -5.00234e-22 0.00615373)
(0.0201732 -9.69021e-06 -2.68056e-21 0.00064863 3.30873e-21 0.00832872)
(0.0232759 -1.14301e-06 0 -0.000114404 0 0.0092646)
(0.027614 7.56811e-05 6.48982e-24 0.000985403 -1.70586e-21 0.0114398)
(0.0155434 1.81338e-05 -4.79907e-21 -0.000429325 7.19489e-21 0.00604564)
(0.0198332 -1.14266e-05 5.43839e-21 0.000645925 -6.93832e-21 0.00819167)
(0.0228956 -3.06512e-06 -3.19784e-21 -0.000107842 3.55133e-21 0.0091151)
(0.0271761 7.50261e-05 1.00895e-20 0.000976966 -2.0712e-21 0.0112612)
(0.0152506 1.75131e-05 -5.12319e-23 -0.000417213 -2.45354e-21 0.00593337)
(0.0194828 -1.16328e-05 7.59678e-23 0.000643236 -3.34757e-22 0.00805043)
(0.0225046 -3.48257e-06 -3.29525e-21 -0.000101091 3.87755e-21 0.00896141)
(0.0267275 7.48189e-05 -3.61827e-21 0.000968781 1.80082e-21 0.0110785)
(0.0149464 1.72802e-05 1.34262e-22 -0.00040532 2.58126e-21 0.00581641)
(0.0191218 -1.06846e-05 -2.8338e-21 0.000640643 3.96435e-21 0.00790499)
(0.0221035 -2.76731e-06 -3.26189e-21 -9.42442e-05 4.36363e-21 0.00880371)
(0.0262698 7.49229e-05 7.13182e-21 0.000960997 -9.65219e-21 0.0108923)
(0.0146298 1.72878e-05 2.96089e-24 -0.000393763 -7.37814e-22 0.0056944)
(0.0187502 -8.96265e-06 2.98168e-21 0.000638202 -4.67478e-21 0.00775535)
(0.0216928 -1.29649e-06 -2.2337e-22 -8.73742e-05 2.07445e-22 0.00864216)
(0.025804 7.51989e-05 3.69077e-21 0.000953721 1.41271e-21 0.0107031)
(0.0143005 1.73879e-05 2.67373e-21 -0.00038262 -5.41948e-21 0.00556714)
(0.0183679 -6.85123e-06 -3.13288e-21 0.00063595 4.50837e-21 0.00760153)
(0.0212727 5.47995e-07 6.63837e-21 -8.05325e-05 -9.98238e-21 0.00847688)
(0.025331 7.55054e-05 -9.8296e-24 0.000947016 2.42701e-21 0.0105112)
(0.0139584 1.74326e-05 -2.66194e-21 -0.000371926 2.53619e-21 0.00543458)
(0.0179751 -4.73731e-06 7.03635e-23 0.000633896 -3.88461e-22 0.00744358)
(0.0208437 2.38099e-06 -7.10225e-21 -7.37496e-05 1.04168e-20 0.00830798)
(0.0248514 7.5699e-05 -2.30435e-22 0.000940902 -2.27286e-21 0.0103169)
(0.0136037 1.72756e-05 -5.48932e-21 -0.000361674 5.08657e-21 0.00529682)
(0.017572 -3.00621e-06 -1.65691e-22 0.00063203 -1.79188e-22 0.0072816)
(0.0204058 3.81805e-06 -3.59885e-21 -6.70347e-05 5.88624e-21 0.00813552)
(0.0243652 7.56354e-05 8.01622e-21 0.000935355 7.21734e-22 0.0101202)
(0.0132372 1.67751e-05 2.59081e-21 -0.000351812 -2.52997e-21 0.00515414)
(0.0171589 -2.03435e-06 0 0.000630319 0 0.00711569)
(0.0199592 4.48278e-06 3.59885e-21 -6.03761e-05 -5.88623e-21 0.00795954)
(0.0238722 7.51725e-05 -4.21158e-21 0.000930304 -4.6678e-21 0.00992099)
(0.0128597 1.57975e-05 -3.07319e-21 -0.000342245 4.82899e-21 0.00500696)
(0.0167363 -2.17851e-06 3.08002e-21 0.000628708 -6.44746e-21 0.00694599)
(0.0195039 4.01752e-06 0 -5.37415e-05 0 0.00778006)
(0.0233718 7.41739e-05 6.94417e-24 0.000925635 -1.65797e-21 0.00971899)
(0.0124725 1.4223e-05 -6.04989e-21 -0.000332836 6.10773e-21 0.00485585)
(0.0163046 -3.76256e-06 6.52853e-21 0.000627125 -1.40024e-20 0.00677267)
(0.0190398 2.09672e-06 4.01434e-21 -4.70801e-05 -6.96765e-21 0.00759708)
(0.0228633 7.25151e-05 -8.42217e-21 0.000921192 3.71485e-21 0.0095138)
(0.0120772 1.19512e-05 2.08292e-22 -0.00032341 -1.48378e-21 0.0047015)
(0.0158643 -7.06258e-06 -3.38988e-21 0.000625481 7.121e-21 0.00659592)
(0.0185667 -1.55818e-06 8.00482e-21 -4.03234e-05 -1.50259e-20 0.00741057)
(0.0223454 7.00885e-05 -4.0895e-21 0.000916782 5.81829e-21 0.00930489)
(0.0116755 8.9065e-06 3.23158e-21 -0.000313759 -3.19964e-21 0.00454471)
(0.0154162 -1.22922e-05 -3.2512e-21 0.000623675 7.78674e-21 0.00641594)
(0.0180846 -7.16386e-06 -1.20663e-20 -3.33889e-05 2.35597e-20 0.00722048)
(0.0218168 6.68098e-05 -4.57605e-22 0.000912177 -8.18388e-22 0.00909161)
(0.0112696 5.04374e-06 -2.80886e-21 -0.00030365 3.71726e-21 0.00438637)
(0.0149608 -1.95892e-05 7.3524e-21 0.000621597 -1.68066e-20 0.00623295)
(0.0175931 -1.48617e-05 4.25382e-21 -2.6183e-05 -8.33781e-21 0.00702675)
(0.021276 6.26236e-05 -9.2194e-21 0.00090713 7.62209e-21 0.00887323)
(0.0108614 3.51585e-07 -2.84484e-21 -0.000292836 3.24194e-21 0.00422742)
(0.0144988 -2.90052e-05 -3.57213e-21 0.000619133 8.51418e-21 0.00604719)
(0.0170919 -2.47072e-05 -4.05257e-21 -1.86051e-05 8.55281e-21 0.00682933)
(0.0207211 5.75075e-05 -2.73297e-22 0.00090138 -2.15574e-21 0.00864901)
(0.010453 -5.145e-06 3.56005e-24 -0.00028107 -8.22736e-22 0.00406878)
(0.0140311 -4.04995e-05 0 0.000616169 0 0.00585889)
(0.0165809 -3.66636e-05 0 -1.05519e-05 0 0.00662814)
(0.0201508 5.14752e-05 -4.67027e-21 0.000894665 4.65327e-21 0.00841817)
(0.0100466 -1.13848e-05 6.3535e-21 -0.000268108 -8.52951e-21 0.00391138)
(0.0135581 -5.39383e-05 -7.42373e-21 0.000612597 1.9518e-20 0.0056683)
(0.0160598 -5.06008e-05 3.96711e-21 -1.92255e-06 -9.7744e-21 0.00642314)
(0.0195632 4.45768e-05 4.67336e-21 0.000886733 -5.38292e-21 0.00817997)
(0.00964389 -1.82725e-05 -6.71599e-21 -0.000253733 9.23758e-21 0.00375606)
(0.0130807 -6.90998e-05 7.29447e-21 0.00060832 -2.0802e-20 0.00547562)
(0.0155283 -6.63005e-05 0 7.37713e-06 0 0.00621429)
(0.0189571 3.68975e-05 -9.86266e-21 0.000877357 1.04875e-20 0.00793377)
(0.00924667 -2.5684e-05 -3.27433e-21 -0.000237757 4.87472e-21 0.00360356)
(0.0125995 -8.56868e-05 -2.41326e-22 0.000603254 -2.52827e-22 0.00528109)
(0.0149865 -8.34682e-05 0 1.74304e-05 0 0.00600157)
(0.0183312 2.85528e-05 4.82001e-21 0.000866345 -5.49057e-21 0.00767901)
(0.00885629 -3.34738e-05 3.0231e-21 -0.000220035 -5.75979e-21 0.0034545)
(0.0121149 -0.000103344 0 0.000597333 0 0.00508488)
(0.0144342 -0.000101751 0 2.83056e-05 0 0.005785)
(0.0176847 1.96816e-05 -4.96e-21 0.000853549 6.27304e-21 0.0074153)
(0.00847381 -4.14842e-05 -3.05356e-21 -0.00020047 6.06713e-21 0.00330934)
(0.0116274 -0.000121683 0 0.000590509 0 0.00488716)
(0.0138715 -0.000120762 9.23544e-21 4.00543e-05 -2.41517e-20 0.00556462)
(0.0170171 1.04371e-05 2.41569e-22 0.000838871 3.25259e-22 0.00714237)
(0.00809994 -4.95564e-05 -5.6979e-22 -0.000179015 7.78378e-22 0.00316837)
(0.0111375 -0.000140307 -5.6407e-22 0.000582755 2.42756e-23 0.00468809)
(0.0132986 -0.000140102 5.71e-25 5.27083e-05 1.2099e-24 0.00534053)
(0.0163282 9.76537e-07 5.64648e-21 0.000822264 -5.78812e-21 0.00686017)
(0.00773504 -5.75388e-05 -3.107e-21 -0.000155671 5.89217e-21 0.00303175)
(0.0106454 -0.000158831 0 0.000574066 0 0.00448779)
(0.0127158 -0.00015939 4.54808e-21 6.628e-05 -1.27722e-20 0.00511282)
(0.0156182 -8.54848e-06 -1.02331e-20 0.000803731 1.2946e-20 0.00656878)
(0.00737918 -6.52952e-05 3.72497e-21 -0.00013048 -7.53213e-21 0.00289948)
(0.0101515 -0.000176905 -3.7518e-21 0.000564455 1.36037e-20 0.00428636)
(0.0121234 -0.000178272 0 8.07611e-05 0 0.00488166)
(0.0148878 -1.79985e-05 5.14624e-21 0.000783318 -6.51467e-21 0.00626844)
(0.00703211 -7.27056e-05 -3.4762e-21 -0.000103519 7.79195e-21 0.00277144)
(0.00965577 -0.000194216 -8.4819e-21 0.000553955 2.87196e-20 0.00408389)
(0.0115219 -0.000196434 4.37912e-21 9.6124e-05 -1.42158e-20 0.0046472)
(0.0141377 -2.72492e-05 -5.03968e-25 0.000761103 1.13974e-22 0.00595954)
(0.00669336 -7.96643e-05 6.65344e-21 -7.4884e-05 -1.32891e-20 0.00264739)
(0.0091585 -0.000210479 4.10279e-21 0.000542621 -1.45038e-20 0.00388045)
(0.0109118 -0.000213587 0 0.000112321 0 0.00440965)
(0.0133692 -3.61878e-05 5.31153e-21 0.000737192 -7.69669e-21 0.00564257)
(0.00636223 -8.60702e-05 2.88836e-22 -4.46917e-05 7.63715e-22 0.00252701)
(0.00865968 -0.00022542 -3.85359e-21 0.000530527 1.54044e-20 0.00367608)
(0.0102938 -0.000229454 -4.78545e-21 0.000129286 1.57397e-20 0.00416924)
(0.0125837 -4.47054e-05 -5.31092e-21 0.000711706 7.56957e-21 0.00531814)
(0.00603776 -9.18163e-05 3.52776e-21 -1.30718e-05 -7.83629e-21 0.00240987)
(0.00815933 -0.000238745 -4.20853e-21 0.00051777 1.6339e-20 0.00347084)
(0.00966855 -0.000243739 4.78545e-21 0.000146932 -1.57397e-20 0.00392619)
(0.0117826 -5.26847e-05 5.69073e-21 0.000684786 -8.04065e-21 0.00498696)
(0.00571874 -9.67766e-05 3.8739e-21 1.98247e-05 -7.75891e-21 0.00229543)
(0.00765737 -0.000250113 4.53513e-21 0.00050447 -1.666e-20 0.00326474)
(0.00903679 -0.000256096 0 0.000165154 0 0.00368078)
(0.010968 -5.99888e-05 -5.10566e-26 0.000656599 1.14935e-23 0.00464986)
(0.00540363 -0.000100799 -1.20773e-25 5.38159e-05 2.71636e-23 0.00218298)
(0.00715364 -0.000259113 -8.80844e-21 0.000490777 3.42529e-20 0.00305777)
(0.0083994 -0.00026611 9.4671e-21 0.000183824 -3.49004e-20 0.00343329)
(0.0101422 -6.64512e-05 -1.6817e-25 0.000627345 3.7826e-23 0.0043078)
(0.00509046 -0.0001037 -2.53567e-26 8.86756e-05 5.69936e-24 0.00207165)
(0.00664785 -0.000265264 0 0.000476868 0 0.00284989)
(0.00775732 -0.000273293 -5.19832e-21 0.000202793 1.73026e-20 0.00318404)
(0.00930758 -7.18763e-05 1.10141e-20 0.000597282 -1.79576e-20 0.00396195)
(0.0047768 -0.000105278 -2.11449e-24 0.000124118 4.75005e-22 0.00196037)
(0.00613962 -0.000268021 -4.32286e-21 0.000462959 1.88772e-20 0.00264103)
(0.00711162 -0.000277099 -9.89278e-21 0.000221894 3.71382e-20 0.0029334)
(0.00846742 -7.60408e-05 -1.14168e-20 0.000566729 1.87193e-20 0.00361366)
(0.00445968 -0.00010531 3.97096e-21 0.000159786 -9.59194e-21 0.00184779)
(0.00562839 -0.000266807 4.96468e-21 0.000449283 -1.88873e-20 0.00243107)
(0.00646346 -0.000276948 3.05906e-22 0.00024092 3.15752e-22 0.00268175)
(0.00762525 -7.87133e-05 5.55694e-21 0.000536087 -9.46441e-21 0.00326454)
(0.00413568 -0.000103581 6.5022e-22 0.000195275 -4.00803e-22 0.00173238)
(0.00511355 -0.000261051 -4.03475e-21 0.000436157 1.98441e-20 0.00221988)
(0.00581425 -0.000272268 -5.01399e-21 0.000259692 2.01828e-20 0.00242958)
(0.00678523 -7.96591e-05 5.92328e-21 0.000505852 -9.8957e-21 0.00291643)
(0.00380066 -9.98785e-05 -3.68943e-21 0.000230031 9.99588e-21 0.00161228)
(0.00459414 -0.000250205 -3.1413e-22 0.000423783 -3.22685e-22 0.00200717)
(0.00516523 -0.00026254 9.7163e-21 0.000277863 -4.06863e-20 0.00217724)
(0.00595175 -7.86777e-05 1.15878e-20 0.000476527 -2.08914e-20 0.00257131)
(0.0034506 -9.40292e-05 3.69281e-21 0.000263644 -1.07562e-20 0.0014857)
(0.00406982 -0.000233819 -4.38818e-21 0.000412774 2.08262e-20 0.00179304)
(0.00451849 -0.000247331 0 0.000295465 0 0.00192558)
(0.00513024 -7.56034e-05 -5.32048e-21 0.000448933 1.03677e-20 0.00223167)
(0.00307964 -8.5831e-05 -1.41158e-24 0.000295068 3.16625e-22 0.00134988)
(0.00353836 -0.000211469 0 0.000402721 0 0.00157643)
(0.00387434 -0.0002264 0 0.000311432 0 0.00167431)
(0.00432475 -7.03736e-05 1.16496e-20 0.000423236 -2.16181e-20 0.0018992)
(0.00268557 -7.52015e-05 -7.78099e-21 0.000324722 2.26109e-20 0.00120412)
(0.00300262 -0.000183002 8.53704e-21 0.000395942 -4.52582e-20 0.00135942)
(0.00323829 -0.000199589 0 0.000327473 0 0.0014263)
(0.00354362 -6.29617e-05 1.75816e-25 0.000401392 -3.94131e-23 0.001578)
(0.00225547 -6.18132e-05 7.13484e-21 0.000348739 -2.29287e-20 0.00104168)
(0.00245268 -0.000148077 -8.8822e-21 0.000387687 4.62458e-20 0.00113615)
(0.00260277 -0.00016741 5.42095e-21 0.000338114 -2.31265e-20 0.00117635)
(0.00278429 -5.38459e-05 6.52968e-22 0.000381136 -1.54348e-22 0.00126617)
(0.00180375 -4.62494e-05 3.74714e-21 0.000373777 -1.22214e-20 0.000871013)
(0.00191339 -0.000107726 -3.32163e-22 0.00039222 3.2913e-22 0.000922245)
(0.00199538 -0.000129539 9.88932e-21 0.000357036 -4.78898e-20 0.000940965)
(0.00207239 -4.24742e-05 7.67479e-26 0.000370561 -1.72034e-23 0.000977179)
(0.00127129 -2.69257e-05 -7.16703e-21 0.000380114 2.42563e-20 0.000660562)
(0.00131964 -6.12736e-05 -9.25092e-21 0.000377313 4.92035e-20 0.000678781)
(0.00135054 -8.77947e-05 -1.08812e-20 0.000350823 4.88728e-20 0.000680545)
(0.00135633 -3.25757e-05 1.11009e-20 0.000353114 -2.45584e-20 0.000683777)
(0.000798372 -1.34323e-05 -1.80865e-21 0.000415654 1.26274e-20 0.00048561)
(0.000844928 -1.75187e-05 1.14344e-22 0.000441988 3.28728e-22 0.000514767)
(0.0008505 -3.47512e-05 -1.65075e-22 0.000417848 3.27223e-22 0.000507339)
(0.000801805 -1.84252e-05 -3.85074e-22 0.000376088 -2.38456e-22 0.000471157)
)
;

boundaryField
{
    plateFix
    {
        type            calculated;
        value           nonuniform List<symmTensor> 4((0.0308609 0.00779656 -1.69765e-24 0.0110868 3.62694e-20 0.0167791) (0.0240859 0.00330344 -5.4304e-25 0.0133367 -4.00588e-25 0.0149691) (0.0239295 -0.00203854 5.01393e-25 0.0133011 -2.03056e-25 0.0148922) (0.028801 -0.00693796 -6.47396e-24 0.0102744 1.83208e-20 0.0156302));
    }
    plate
    {
        type            calculated;
        value           nonuniform List<symmTensor> 
168
(
(0.0234552 7.6237e-06 -1.29421e-23 0.000242563 7.2567e-20 0.00947911)
(0.0220342 9.38215e-06 -1.75301e-23 0.000293266 3.66462e-20 0.00893099)
(0.0241345 7.01612e-06 1.81573e-23 0.000240946 -8.90473e-20 0.00975016)
(0.0228795 8.3106e-06 1.44702e-23 0.000292265 -4.28981e-20 0.0092687)
(0.0251445 6.50454e-06 1.0071e-24 0.000240005 -8.13488e-20 0.0101538)
(0.0240855 7.34849e-06 -2.62015e-23 0.000291764 8.3823e-20 0.00975089)
(0.0254963 6.51054e-06 2.0494e-23 0.000239315 7.95342e-20 0.0102942)
(0.0246809 6.87716e-06 2.30462e-23 0.000291468 -1.58928e-19 0.00998893)
(0.0257577 7.27732e-06 6.41586e-24 0.000238759 -5.90847e-22 0.0103986)
(0.0252172 7.29819e-06 1.11764e-23 0.000291288 3.67849e-20 0.0102034)
(0.0258528 8.4437e-06 -1.10008e-23 0.000238278 -3.206e-20 0.0104364)
(0.025618 8.17515e-06 6.32654e-24 0.00029119 1.07711e-21 0.0103637)
(0.0258964 9.91624e-06 5.9729e-23 0.00023784 2.96586e-20 0.0104537)
(0.0259934 9.42532e-06 -1.21274e-23 0.000291161 3.25227e-20 0.0105138)
(0.0258902 1.15834e-05 -6.55666e-23 0.000237413 -3.01646e-23 0.010451)
(0.0263437 1.09195e-05 8.2076e-24 0.000291188 8.81651e-22 0.010654)
(0.025853 1.33993e-05 2.23401e-23 0.000236979 -2.56551e-20 0.010436)
(0.0266869 1.2613e-05 -1.37857e-23 0.000291268 2.77468e-20 0.0107913)
(0.0257826 1.53301e-05 -1.41289e-22 0.000236529 4.7602e-20 0.0104077)
(0.0270202 1.44744e-05 3.0717e-23 0.000291399 -5.40128e-20 0.0109246)
(0.0256787 1.73603e-05 -1.34236e-22 0.000236059 5.01338e-22 0.0103659)
(0.0273433 1.64934e-05 1.52429e-23 0.00029158 4.6325e-20 0.011054)
(0.0255385 1.94811e-05 2.46526e-22 0.000235567 -1.84667e-20 0.0103096)
(0.0276537 1.86666e-05 1.68109e-23 0.00029181 -2.30817e-20 0.0111782)
(0.0253616 2.16881e-05 -1.25117e-23 0.000235055 1.45583e-20 0.0102387)
(0.027951 2.09954e-05 -5.60068e-23 0.000292088 4.48559e-21 0.0112972)
(0.0251488 2.39789e-05 -2.82433e-22 0.000234526 -8.2888e-22 0.0101533)
(0.0282356 2.34844e-05 6.97901e-23 0.000292411 -1.64673e-20 0.0114112)
(0.0249022 2.6351e-05 2.66961e-22 0.000233982 3.1488e-21 0.0100545)
(0.0285093 2.61398e-05 4.33668e-23 0.000292774 1.45474e-20 0.0115208)
(0.0246246 2.88016e-05 1.13225e-22 0.000233431 3.52216e-21 0.00994323)
(0.0287739 2.89697e-05 -1.14348e-22 0.000293171 -6.62201e-21 0.0116268)
(0.0243195 3.13266e-05 1.21476e-22 0.000232879 1.30069e-22 0.00982093)
(0.0290312 3.19822e-05 -7.16812e-24 0.000293596 5.89957e-21 0.0117299)
(0.0239896 3.39195e-05 1.2223e-23 0.000232337 -9.18858e-21 0.00968879)
(0.0292818 3.51856e-05 -6.99648e-22 0.000294038 5.75878e-21 0.0118303)
(0.0236379 3.65749e-05 4.99859e-22 0.000231827 5.5612e-21 0.0095479)
(0.0295254 3.85865e-05 -5.7688e-23 0.000294491 1.67061e-22 0.0119279)
(0.0232666 3.92734e-05 -2.40078e-22 0.000231343 -1.42187e-20 0.00939919)
(0.0297602 4.21917e-05 8.14816e-22 0.00029494 8.55322e-21 0.0120221)
(0.0228781 4.20207e-05 -2.91775e-22 0.000230972 1.95871e-20 0.00924365)
(0.029983 4.59975e-05 -2.45295e-22 0.000295396 -2.54755e-20 0.0121113)
(0.0224736 4.47522e-05 -4.87924e-22 0.000230621 -1.86392e-20 0.0090817)
(0.03019 5.00163e-05 -3.97516e-23 0.000295826 2.17144e-20 0.0121943)
(0.0220414 4.7623e-05 -1.67928e-23 0.000230412 8.49307e-21 0.00890874)
(0.0303794 5.43435e-05 -1.47235e-24 0.000296296 7.45831e-22 0.0122703)
(0.0215987 5.0526e-05 5.9873e-22 0.000230338 -1.56708e-20 0.00873162)
(0.0305367 5.87385e-05 5.99124e-22 0.000296686 1.14727e-20 0.0123334)
(0.0211751 5.32074e-05 6.3161e-22 0.000230463 6.41986e-21 0.00856222)
(0.0306486 6.29515e-05 -4.84971e-23 0.000297106 4.1408e-23 0.0123783)
(0.020771 5.5686e-05 -1.85322e-21 0.000230867 -2.13149e-20 0.00840076)
(0.0307149 6.69146e-05 -7.10334e-22 0.000297398 -1.4339e-20 0.0124049)
(0.0203864 5.79909e-05 -2.63037e-21 0.000231463 -1.56842e-20 0.00824713)
(0.0307361 7.06294e-05 1.31613e-22 0.000297653 -8.62501e-21 0.0124135)
(0.0200209 6.01225e-05 3.16801e-23 0.000232331 -1.19157e-20 0.0081013)
(0.0307124 7.40646e-05 -1.50163e-21 0.00029782 -2.92586e-20 0.0124041)
(0.0196741 6.21009e-05 -1.34682e-21 0.000233422 -2.86681e-20 0.007963)
(0.0306446 7.72086e-05 -5.52889e-21 0.000297924 -1.16007e-20 0.012377)
(0.0193449 6.3929e-05 -1.51737e-21 0.000234756 7.88159e-21 0.00783186)
(0.0305338 8.00465e-05 4.0644e-21 0.000297964 -2.65197e-20 0.0123327)
(0.019032 6.56149e-05 -1.555e-21 0.000236309 -2.10862e-21 0.00770732)
(0.0303817 8.25689e-05 -4.21184e-21 0.000297957 -1.03611e-20 0.0122719)
(0.0187336 6.71607e-05 -4.50099e-24 0.000238065 1.45063e-21 0.00758865)
(0.0301903 8.47695e-05 -2.27385e-21 0.000297926 -1.3336e-20 0.0121953)
(0.0184475 6.85675e-05 1.65247e-21 0.00024 1.2065e-20 0.00747499)
(0.0299621 8.66451e-05 1.28994e-23 0.000297897 -4.03607e-21 0.012104)
(0.0181713 6.98344e-05 -1.93427e-21 0.000242086 -7.12634e-21 0.00736534)
(0.0296997 8.81963e-05 -4.89554e-21 0.0002979 3.72092e-21 0.011999)
(0.0179022 7.09588e-05 -2.07196e-21 0.000244294 1.08808e-20 0.00725861)
(0.0294062 8.94266e-05 2.54575e-21 0.000297966 -7.43529e-21 0.0118817)
(0.0176377 7.19377e-05 -2.01502e-21 0.000246597 -4.03236e-21 0.00715371)
(0.0290846 9.03423e-05 2.747e-21 0.000298124 1.74936e-20 0.0117531)
(0.0173749 7.27674e-05 6.09669e-21 0.00024897 1.60079e-20 0.00704954)
(0.028738 9.09524e-05 1.15353e-23 0.000298401 -3.26139e-21 0.0116145)
(0.0171112 7.34451e-05 1.12316e-23 0.000251393 -3.10671e-21 0.00694504)
(0.0283693 9.12677e-05 3.03492e-21 0.000298818 3.0126e-21 0.0114672)
(0.0168443 7.39685e-05 -3.25663e-23 0.00025385 8.83923e-21 0.00683924)
(0.0279813 9.1301e-05 1.77341e-22 0.000299389 2.67547e-20 0.0113123)
(0.0165718 7.43366e-05 4.40617e-21 0.00025633 -4.61107e-22 0.00673126)
(0.0275767 9.10664e-05 -9.77149e-24 0.000300125 2.60995e-21 0.0111507)
(0.016292 7.455e-05 2.22305e-21 0.000258827 2.39366e-21 0.00662032)
(0.0271575 9.05788e-05 1.29877e-23 0.000301029 -3.41383e-21 0.0109834)
(0.0160031 7.46111e-05 -4.80039e-21 0.000261338 7.53658e-21 0.00650579)