/*--------------------------------*- C++ -*----------------------------------*\
| =========                 |                                                 |
| \\      /  F ield         | OpenFOAM Extend Project: Open source CFD        |
|  \\    /   O peration     | Version:  1.6-ext                               |
|   \\  /    A nd           | Web:      www.extend-project.de                 |
|    \\/     M anipulation  |                                                 |
\*---------------------------------------------------------------------------*/
FoamFile
{
    version     2.0;
    format      ascii;
    class       volVectorField;
    location    "1.15";
    object      DU;
}
// * * * * * * * * * * * * * * * * * * * * * * * * * * * * * * * * * * * * * //

dimensions      [0 1 0 0 0 0 0];

internalField   nonuniform List<vector> 
328
(
(7.04165e-10 1.41841e-09 0)
(4.55872e-10 3.42985e-10 0)
(4.51816e-10 -2.13967e-10 0)
(6.58553e-10 -1.24824e-09 0)
(2.14081e-09 3.67316e-09 0)
(1.50795e-09 1.02311e-09 0)
(1.4933e-09 -6.0369e-10 0)
(2.01056e-09 -3.16872e-09 0)
(3.79717e-09 5.4003e-09 0)
(2.91652e-09 1.69605e-09 0)
(2.88731e-09 -9.42503e-10 0)
(3.58634e-09 -4.5477e-09 0)
(5.59463e-09 6.68873e-09 0)
(4.56514e-09 2.32097e-09 0)
(4.52189e-09 -1.19049e-09 0)
(5.31334e-09 -5.46733e-09 0)
(7.55416e-09 7.65154e-09 0)
(6.4759e-09 2.88248e-09 0)
(6.42074e-09 -1.3337e-09 0)
(7.21678e-09 -6.03592e-09 0)
(9.66493e-09 8.37508e-09 0)
(8.61054e-09 3.37537e-09 0)
(8.54828e-09 -1.3687e-09 0)
(9.29124e-09 -6.33741e-09 0)
(1.19359e-08 8.92941e-09 0)
(1.09636e-08 3.80586e-09 0)
(1.09012e-08 -1.30461e-09 0)
(1.15512e-08 -6.44166e-09 0)
(1.43722e-08 9.36547e-09 0)
(1.35204e-08 4.18405e-09 0)
(1.34674e-08 -1.15605e-09 0)
(1.40083e-08 -6.40215e-09 0)
(1.69832e-08 9.72093e-09 0)
(1.62768e-08 4.5218e-09 0)
(1.62453e-08 -9.41887e-10 0)
(1.66788e-08 -6.26229e-09 0)
(1.97775e-08 1.00211e-08 0)
(1.92303e-08 4.82891e-09 0)
(1.92352e-08 -6.82333e-10 0)
(1.95796e-08 -6.0571e-09 0)
(2.27645e-08 1.02813e-08 0)
(2.23843e-08 5.11131e-09 0)
(2.24437e-08 -3.98314e-10 0)
(2.27292e-08 -5.8164e-09 0)
(2.59529e-08 1.05071e-08 0)
(2.57454e-08 5.3692e-09 0)
(2.5881e-08 -1.11064e-10 0)
(2.61467e-08 -5.56665e-09 0)
(2.93511e-08 1.06952e-08 0)
(2.93241e-08 5.59604e-09 0)
(2.95616e-08 1.57175e-10 0)
(2.98529e-08 -5.33318e-09 0)
(3.29677e-08 1.08331e-08 0)
(3.31338e-08 5.77754e-09 0)
(3.35035e-08 3.81958e-10 0)
(3.38696e-08 -5.14216e-09 0)
(3.68111e-08 1.08991e-08 0)
(3.719e-08 5.8909e-09 0)
(3.77275e-08 5.3485e-10 0)
(3.82206e-08 -5.02293e-09 0)
(4.08896e-08 1.08612e-08 0)
(4.151e-08 5.90369e-09 0)
(4.22565e-08 5.81253e-10 0)
(4.29316e-08 -5.01043e-09 0)
(4.52122e-08 1.06764e-08 0)
(4.61123e-08 5.77254e-09 0)
(4.71155e-08 4.77878e-10 0)
(4.80307e-08 -5.14789e-09 0)
(4.97879e-08 1.02885e-08 0)
(5.10158e-08 5.44133e-09 0)
(5.23304e-08 1.6991e-10 0)
(5.35481e-08 -5.4898e-09 0)
(5.46259e-08 9.62614e-09 0)
(5.62401e-08 4.83871e-09 0)
(5.79286e-08 -4.12155e-10 0)
(5.95165e-08 -6.10512e-09 0)
(5.9736e-08 8.59966e-09 0)
(6.1805e-08 3.87513e-09 0)
(6.39385e-08 -1.35603e-09 0)
(6.59706e-08 -7.08085e-09 0)
(6.5128e-08 7.0975e-09 0)
(6.77307e-08 2.43904e-09 0)
(7.0389e-08 -2.77163e-09 0)
(7.29475e-08 -8.52601e-09 0)
(7.0812e-08 4.98175e-09 0)
(7.40377e-08 3.92565e-10 0)
(7.73102e-08 -4.7955e-09 0)
(8.04857e-08 -1.05761e-08 0)
(7.70263e-08 1.97222e-09 0)
(8.10023e-08 -2.54174e-09 0)
(8.50156e-08 -7.70297e-09 0)
(8.89359e-08 -1.35062e-08 0)
(8.35448e-08 -2.1183e-09 0)
(8.83868e-08 -6.55392e-09 0)
(9.32567e-08 -1.16839e-08 0)
(9.80376e-08 -1.75033e-08 0)
(8.99356e-08 -7.13816e-09 0)
(9.57003e-08 -1.14977e-08 0)
(1.01484e-07 -1.65935e-08 0)
(1.07182e-07 -2.2421e-08 0)
(9.62049e-08 -1.31415e-08 0)
(1.02943e-07 -1.74271e-08 0)
(1.0969e-07 -2.24859e-08 0)
(1.16357e-07 -2.83133e-08 0)
(1.02359e-07 -2.01756e-08 0)
(1.10114e-07 -2.43893e-08 0)
(1.17869e-07 -2.94083e-08 0)
(1.25548e-07 -3.52277e-08 0)
(1.08404e-07 -2.82811e-08 0)
(1.17213e-07 -3.24249e-08 0)
(1.26014e-07 -3.7401e-08 0)
(1.34742e-07 -4.32047e-08 0)
(1.14345e-07 -3.74914e-08 0)
(1.24241e-07 -4.15674e-08 0)
(1.34118e-07 -4.64979e-08 0)
(1.43927e-07 -5.2278e-08 0)
(1.20189e-07 -4.78338e-08 0)
(1.31195e-07 -5.18437e-08 0)
(1.42175e-07 -5.67257e-08 0)
(1.53088e-07 -6.24748e-08 0)
(1.25941e-07 -5.93284e-08 0)
(1.38076e-07 -6.3274e-08 0)
(1.50177e-07 -6.81047e-08 0)
(1.62215e-07 -7.38155e-08 0)
(1.31606e-07 -7.19896e-08 0)
(1.44884e-07 -7.58723e-08 0)
(1.5812e-07 -8.06489e-08 0)
(1.71295e-07 -8.63147e-08 0)
(1.37188e-07 -8.58256e-08 0)
(1.51616e-07 -8.96466e-08 0)
(1.65996e-07 -9.43666e-08 0)
(1.80317e-07 -9.99807e-08 0)
(1.4269e-07 -1.0084e-07 0)
(1.58273e-07 -1.046e-07 0)
(1.73799e-07 -1.0926e-07 0)
(1.8927e-07 -1.14817e-07 0)
(1.48115e-07 -1.1703e-07 0)
(1.64851e-07 -1.2073e-07 0)
(1.81525e-07 -1.25329e-07 0)
(1.98144e-07 -1.30822e-07 0)
(1.53465e-07 -1.34392e-07 0)
(1.71351e-07 -1.38031e-07 0)
(1.89168e-07 -1.42565e-07 0)
(2.06932e-07 -1.4799e-07 0)
(1.58741e-07 -1.52916e-07 0)
(1.77769e-07 -1.56494e-07 0)
(1.96724e-07 -1.60962e-07 0)
(2.15624e-07 -1.66314e-07 0)
(1.63943e-07 -1.72591e-07 0)
(1.84103e-07 -1.76108e-07 0)
(2.04186e-07 -1.80506e-07 0)
(2.24214e-07 -1.85782e-07 0)
(1.69071e-07 -1.93404e-07 0)
(1.90352e-07 -1.96858e-07 0)
(2.11552e-07 -2.01185e-07 0)
(2.32695e-07 -2.0638e-07 0)
(1.74123e-07 -2.1534e-07 0)
(1.96512e-07 -2.1873e-07 0)
(2.18816e-07 -2.22984e-07 0)
(2.41063e-07 -2.28095e-07 0)
(1.79097e-07 -2.38384e-07 0)
(2.0258e-07 -2.41709e-07 0)
(2.25976e-07 -2.45886e-07 0)
(2.49312e-07 -2.50911e-07 0)
(1.8399e-07 -2.6252e-07 0)
(2.08554e-07 -2.65777e-07 0)
(2.33027e-07 -2.69877e-07 0)
(2.57439e-07 -2.74813e-07 0)
(1.88801e-07 -2.87732e-07 0)
(2.1443e-07 -2.9092e-07 0)
(2.39967e-07 -2.94939e-07 0)
(2.6544e-07 -2.99784e-07 0)
(1.93525e-07 -3.14004e-07 0)
(2.20205e-07 -3.17122e-07 0)
(2.46791e-07 -3.21058e-07 0)
(2.73311e-07 -3.2581e-07 0)
(1.98158e-07 -3.41323e-07 0)
(2.25876e-07 -3.44366e-07 0)
(2.53498e-07 -3.48219e-07 0)
(2.81051e-07 -3.52876e-07 0)
(2.02698e-07 -3.69672e-07 0)
(2.3144e-07 -3.7264e-07 0)
(2.60084e-07 -3.76406e-07 0)
(2.88656e-07 -3.80966e-07 0)
(2.0714e-07 -3.9904e-07 0)
(2.36893e-07 -4.01929e-07 0)
(2.66546e-07 -4.05607e-07 0)
(2.96125e-07 -4.10069e-07 0)
(2.1148e-07 -4.29412e-07 0)
(2.42232e-07 -4.32221e-07 0)
(2.72882e-07 -4.35809e-07 0)
(3.03455e-07 -4.40172e-07 0)
(2.15715e-07 -4.60778e-07 0)
(2.47454e-07 -4.63504e-07 0)
(2.79088e-07 -4.67e-07 0)
(3.10644e-07 -4.71262e-07 0)
(2.19841e-07 -4.93126e-07 0)
(2.52555e-07 -4.95768e-07 0)
(2.85163e-07 -4.99171e-07 0)
(3.1769e-07 -5.0333e-07 0)
(2.23855e-07 -5.26447e-07 0)
(2.57534e-07 -5.29002e-07 0)
(2.91104e-07 -5.32309e-07 0)
(3.24591e-07 -5.36364e-07 0)
(2.27755e-07 -5.6073e-07 0)
(2.62386e-07 -5.63197e-07 0)
(2.96907e-07 -5.66407e-07 0)
(3.31343e-07 -5.70356e-07 0)
(2.31538e-07 -5.95965e-07 0)
(2.67111e-07 -5.98343e-07 0)
(3.02571e-07 -6.01455e-07 0)
(3.37944e-07 -6.05295e-07 0)
(2.35202e-07 -6.32142e-07 0)
(2.71704e-07 -6.3443e-07 0)
(3.08091e-07 -6.37442e-07 0)
(3.4439e-07 -6.41172e-07 0)
(2.38746e-07 -6.69252e-07 0)
(2.76165e-07 -6.71449e-07 0)
(3.13466e-07 -6.74358e-07 0)
(3.50677e-07 -6.77976e-07 0)
(2.4217e-07 -7.07281e-07 0)
(2.80492e-07 -7.09387e-07 0)
(3.18691e-07 -7.12193e-07 0)
(3.56802e-07 -7.15696e-07 0)
(2.45473e-07 -7.46216e-07 0)
(2.84682e-07 -7.48231e-07 0)
(3.23764e-07 -7.50932e-07 0)
(3.62758e-07 -7.54317e-07 0)
(2.48656e-07 -7.86043e-07 0)
(2.88735e-07 -7.87967e-07 0)
(3.28682e-07 -7.90562e-07 0)
(3.68541e-07 -7.93826e-07 0)
(2.51721e-07 -8.26744e-07 0)
(2.92648e-07 -8.28577e-07 0)
(3.33441e-07 -8.31065e-07 0)
(3.74146e-07 -8.34205e-07 0)
(2.54667e-07 -8.68299e-07 0)
(2.96422e-07 -8.70041e-07 0)
(3.38038e-07 -8.72421e-07 0)
(3.79566e-07 -8.75434e-07 0)
(2.57498e-07 -9.10684e-07 0)
(3.00055e-07 -9.12337e-07 0)
(3.42468e-07 -9.14607e-07 0)
(3.84796e-07 -9.17489e-07 0)
(2.60215e-07 -9.53874e-07 0)
(3.03546e-07 -9.55439e-07 0)
(3.4673e-07 -9.57598e-07 0)
(3.89829e-07 -9.60347e-07 0)
(2.6282e-07 -9.97839e-07 0)
(3.06896e-07 -9.99318e-07 0)
(3.50819e-07 -1.00136e-06 0)
(3.94659e-07 -1.00398e-06 0)
(2.65316e-07 -1.04255e-06 0)
(3.10102e-07 -1.04394e-06 0)
(3.54732e-07 -1.04587e-06 0)
(3.9928e-07 -1.04835e-06 0)
(2.67704e-07 -1.08797e-06 0)
(3.13165e-07 -1.08927e-06 0)
(3.58466e-07 -1.09109e-06 0)
(4.03686e-07 -1.09342e-06 0)
(2.69987e-07 -1.13405e-06 0)
(3.16085e-07 -1.13528e-06 0)
(3.62018e-07 -1.13698e-06 0)
(4.07871e-07 -1.13917e-06 0)
(2.72166e-07 -1.18077e-06 0)
(3.1886e-07 -1.18191e-06 0)
(3.65386e-07 -1.1835e-06 0)
(4.11832e-07 -1.18554e-06 0)
(2.74244e-07 -1.22807e-06 0)
(3.2149e-07 -1.22913e-06 0)
(3.68565e-07 -1.23061e-06 0)
(4.15561e-07 -1.23249e-06 0)
(2.76221e-07 -1.27592e-06 0)
(3.23975e-07 -1.2769e-06 0)
(3.71555e-07 -1.27825e-06 0)
(4.19056e-07 -1.27999e-06 0)
(2.78098e-07 -1.32425e-06 0)
(3.26313e-07 -1.32515e-06 0)
(3.74352e-07 -1.32639e-06 0)
(4.22312e-07 -1.32797e-06 0)
(2.79877e-07 -1.37303e-06 0)
(3.28505e-07 -1.37385e-06 0)
(3.76956e-07 -1.37497e-06 0)
(4.25327e-07 -1.3764e-06 0)
(2.81556e-07 -1.42221e-06 0)
(3.30549e-07 -1.42294e-06 0)
(3.79364e-07 -1.42395e-06 0)
(4.28098e-07 -1.42522e-06 0)
(2.83136e-07 -1.47172e-06 0)
(3.32445e-07 -1.47238e-06 0)
(3.81575e-07 -1.47326e-06 0)
(4.30623e-07 -1.47438e-06 0)
(2.84613e-07 -1.52152e-06 0)
(3.3419e-07 -1.5221e-06 0)
(3.83589e-07 -1.52286e-06 0)
(4.32903e-07 -1.52383e-06 0)
(2.85986e-07 -1.57156e-06 0)
(3.35784e-07 -1.57205e-06 0)
(3.85405e-07 -1.5727e-06 0)
(4.34939e-07 -1.57351e-06 0)
(2.87251e-07 -1.62179e-06 0)
(3.37225e-07 -1.62219e-06 0)
(3.87024e-07 -1.62272e-06 0)
(4.36732e-07 -1.62338e-06 0)
(2.88401e-07 -1.67216e-06 0)
(3.3851e-07 -1.67247e-06 0)
(3.88446e-07 -1.67288e-06 0)
(4.38286e-07 -1.67339e-06 0)
(2.89431e-07 -1.72261e-06 0)
(3.39636e-07 -1.72284e-06 0)
(3.89673e-07 -1.72313e-06 0)
(4.39606e-07 -1.72349e-06 0)
(2.90334e-07 -1.77312e-06 0)
(3.40603e-07 -1.77325e-06 0)
(3.90707e-07 -1.77342e-06 0)
(4.40701e-07 -1.77364e-06 0)
(2.91096e-07 -1.82365e-06 0)
(3.41403e-07 -1.82367e-06 0)
(3.91548e-07 -1.82373e-06 0)
(4.41574e-07 -1.82381e-06 0)
(2.91718e-07 -1.87417e-06 0)
(3.42044e-07 -1.87408e-06 0)
(3.9221e-07 -1.87402e-06 0)
(4.42245e-07 -1.87396e-06 0)
(2.92158e-07 -1.92464e-06 0)
(3.42493e-07 -1.92445e-06 0)
(3.92666e-07 -1.92427e-06 0)
(4.42694e-07 -1.92409e-06 0)
)
;

boundaryField
{
    plateFix
    {
        type            fixedDisplacement;
        value           uniform (0 0 0);
    }
    plate
    {
        type            solidTraction;
        nonLinear       updatedLagrangian;
        traction        nonuniform List<vector> 
168
(
(9.22772e-06 7.2638e-05 -3.76971e-20)
(1.08406e-05 -7.37355e-05 3.82991e-20)
(-0.000119954 -6.27352e-05 4.18795e-20)
(-0.000114521 5.84472e-05 -4.54556e-20)
(-0.000563996 -0.000240095 4.26717e-20)
(-0.000550373 0.000233427 4.34299e-20)
(-0.00125676 -0.000383263 -4.04003e-20)
(-0.00123224 0.000375053 -8.48269e-20)
(-0.00214533 -0.00047347 0)
(-0.00210824 0.000464295 -4.13282e-23)
(-0.00318075 -0.000513331 3.56527e-20)
(-0.00313011 0.000503457 2.23515e-21)
(-0.00431254 -0.000515211 -3.31329e-20)
(-0.00424799 0.000504579 3.37065e-20)
(-0.00549655 -0.000493241 -3.84811e-21)
(-0.00541817 0.000481528 -3.11399e-20)
(-0.00669821 -0.000459347 -2.74418e-23)
(-0.00660629 0.000446055 2.85964e-20)
(-0.00789258 -0.000422196 0)
(-0.00778746 0.000406731 -2.60615e-20)
(-0.00906365 -0.00038735 0)
(-0.00894558 0.000369084 4.72375e-20)
(-0.0102029 -0.000357868 -1.56878e-20)
(-0.010072 0.000336176 -5.07182e-24)
(-0.0113074 -0.000334996 -4.62904e-21)
(-0.0111636 0.000309275 -1.90416e-20)
(-0.0123781 -0.000318765 1.67375e-20)
(-0.0122212 0.000288437 -2.12256e-20)
(-0.0134176 -0.000308446 -1.47709e-20)
(-0.0132473 0.000272957 1.50971e-20)
(-0.0144288 -0.000302868 1.2969e-20)
(-0.0142449 0.000261689 -1.32462e-20)
(-0.015413 -0.000300609 -1.13048e-20)
(-0.0152155 0.000253247 1.74808e-20)
(-0.0163687 -0.000300061 5.01561e-21)
(-0.0161578 0.000246069 0)
(-0.0172925 -0.000299472 0)
(-0.017069 0.000238489 4.39733e-21)
(-0.0181697 -0.000296668 1.48327e-20)
(-0.0179351 0.000228452 0)
(-0.0190047 -0.000288396 -2.55681e-20)
(-0.0187613 0.000212935 -1.29732e-20)
(-0.0197255 -0.000275396 8.25715e-21)
(-0.0194792 0.000192791 2.22951e-20)
(-0.0205773 -0.000227544 -9.0475e-21)
(-0.0203258 0.000138555 -9.362e-21)
(-0.0214662 -0.000172423 9.21203e-21)
(-0.021208 7.55542e-05 0)
(-0.0222062 -0.00016275 1.38645e-22)
(-0.0219497 5.71614e-05 -8.85806e-21)
(-0.0229078 -0.000148792 8.65655e-21)
(-0.0226562 3.51266e-05 8.72979e-21)
(-0.0235236 -0.000144561 -8.39748e-21)
(-0.0232826 2.31987e-05 -2.74916e-22)
(-0.0240949 -0.000137415 2.6354e-22)
(-0.0238694 8.90779e-06 -8.56691e-21)
(-0.0246014 -0.000132314 0)
(-0.0243972 -2.79859e-06 8.57564e-21)
(-0.0250566 -0.000125946 -2.53259e-22)
(-0.0248794 -1.52039e-05 -8.24392e-21)
(-0.0254524 -0.000119641 -3.91736e-21)
(-0.0253085 -2.6942e-05 8.50742e-21)
(-0.0257914 -0.000112457 3.92161e-21)
(-0.0256872 -3.89481e-05 3.94697e-21)
(-0.0260695 -0.000104662 -3.72867e-21)
(-0.0260114 -5.09286e-05 -3.70668e-21)
(-0.0262853 -9.59524e-05 7.3622e-21)
(-0.0262798 -6.31842e-05 3.75887e-21)
(-0.0264355 -8.63453e-05 -3.40963e-21)
(-0.0264891 -7.56871e-05 -3.76265e-21)
(-0.0265174 -7.57298e-05 -4.74071e-25)
(-0.0266363 -8.85487e-05 -3.78433e-21)
(-0.0265276 -6.40909e-05 -3.52504e-21)
(-0.0267179 -0.000101784 3.28048e-22)
(-0.0264631 -5.13963e-05 6.72519e-21)
(-0.0267305 -0.000115431 3.66991e-21)
(-0.0263209 -3.76526e-05 -6.10034e-21)
(-0.0266706 -0.000129489 3.23605e-21)
(-0.0260979 -2.28763e-05 2.90347e-21)
(-0.0265345 -0.000143947 -5.14056e-22)
(-0.0257914 -7.1077e-06 0)
(-0.026319 -0.000158774 -3.12594e-21)
(-0.0253991 9.59553e-06 -1.75713e-22)
(-0.026021 -0.000173921 1.85031e-22)
(-0.0249189 2.71588e-05 2.78732e-21)
(-0.0256376 -0.00018932 2.59469e-21)
(-0.0243491 4.5491e-05 3.69747e-23)
(-0.0251662 -0.000204888 -2.77506e-21)
(-0.0236887 6.44867e-05 -5.03245e-21)
(-0.0246049 -0.000220525 -2.69317e-21)
(-0.022937 8.40282e-05 2.3802e-21)
(-0.0239522 -0.000236116 4.78757e-21)
(-0.0220939 0.000103987 -1.38062e-22)
(-0.023207 -0.000251535 -2.7058e-21)
(-0.02116 0.00012423 -1.29679e-22)
(-0.0223689 -0.000266647 2.16373e-21)
(-0.0201364 0.000144614 2.45938e-22)
(-0.0214381 -0.00028131 -2.03425e-21)
(-0.0190248 0.000165 -1.65972e-21)
(-0.0204155 -0.000295379 0)
(-0.0178274 0.000185246 1.77646e-21)
(-0.0193025 -0.00030871 1.80144e-21)
(-0.0165472 0.000205215 1.54241e-21)
(-0.0181013 -0.00032116 -1.80312e-21)
(-0.0151874 0.000224779 -1.54424e-21)
(-0.0168145 -0.000332595 -1.01565e-22)
(-0.013752 0.000243818 -8.59559e-23)
(-0.0154453 -0.000342891 0)
(-0.0122453 0.000262223 -1.21426e-21)
(-0.0139977 -0.000351936 1.34251e-21)
(-0.0106719 0.000279901 1.29023e-21)
(-0.0124758 -0.000359635 -1.89218e-22)
(-0.00903675 0.000296774 6.63645e-23)
(-0.0108843 -0.00036591 -1.80181e-21)
(-0.00734522 0.000312782 4.59297e-22)
(-0.00922822 -0.000370705 5.66153e-22)
(-0.00560264 0.000327882 -5.70822e-22)
(-0.00751278 -0.000373982 6.14502e-23)
(-0.00381453 0.000342051 3.22796e-22)
(-0.00574343 -0.000375729 0)
(-0.00198638 0.000355283 -3.2841e-22)
(-0.00392566 -0.000375952 -5.10231e-23)
(-0.000123641 0.000367596 0)
(-0.002065 -0.000374684 0)
(0.00176841 0.000379023 -2.59993e-22)
(-0.00016686 -0.000371979 4.00812e-23)
(0.00368472 0.000389619 2.90739e-22)
(0.0017635 -0.000367914 0)
(0.00562055 0.000399462 2.66347e-23)
(0.00372111 -0.000362589 2.36267e-22)
(0.0075716 0.000408648 0)
(0.00570136 -0.000356126 -2.07928e-22)
(0.00953405 0.000417297 2.01492e-23)
(0.00770011 -0.00034867 0)
(0.0115047 0.000425558 0)
(0.00971382 -0.000340395 2.12743e-23)
(0.0134811 0.000433609 5.68714e-23)
(0.0117396 -0.000331501 0)
(0.0154618 0.000441678 -5.69408e-23)
(0.0137756 -0.000322236 9.59196e-23)
(0.0174463 0.000450034 -3.69493e-23)
(0.0158209 -0.000312878 -7.68448e-23)
(0.0194357 0.000459075 -2.29402e-23)
(0.0178762 -0.000303825 5.09043e-23)
(0.0214329 0.000469271 6.03643e-23)
(0.0199436 -0.000295533 -9.86746e-23)
(0.023444 0.000481537 -9.81535e-23)
(0.0220287 -0.000288864 9.39661e-23)
(0.0254781 0.000497097 3.84356e-23)
(0.02414 -0.000284966 -9.25946e-23)
(0.0275527 0.000519441 -1.01655e-23)
(0.0262939 -0.000287143 3.37957e-23)
(0.0296949 0.00055454 -2.40152e-23)
(0.0285168 -0.000301137 2.59754e-23)
(0.0319555 0.000625228 -2.69285e-23)
(0.0308576 -0.000349201 -4.05245e-23)
(0.0344547 0.000775408 0)
(0.0334353 -0.000474532 1.75062e-23)
(0.0373519 0.00121408 0)
(0.0364069 -0.000882913 -1.64691e-23)
(0.0415333 0.00233102 0)
(0.0406527 -0.00195878 4.24231e-23)
(0.0474458 0.00666576 -4.54451e-24)
(0.00962259 0.00506414 8.9737e-24)
(-0.000664619 -0.00274399 -3.4912e-23)
(-0.000710411 0.00279969 -5.16169e-23)
(0.00946337 -0.0047259 1.80975e-24)
(0.046559 -0.00618369 1.39039e-23)
)
;
        pressure        nonuniform List<scalar> 
168
(
-0.473933
-0.482123
-0.474535
-0.482715
-0.475206
-0.483379
-0.47587
-0.484039
-0.476459
-0.484626
-0.476899
-0.485067
-0.477141
-0.485314
-0.477157
-0.485339
-0.476934
-0.485128
-0.476466
-0.484677
-0.475752
-0.483982
-0.47479
-0.483043
-0.473572
-0.481855
-0.472089
-0.480406
-0.47032
-0.478679
-0.46824
-0.476648
-0.465813
-0.474282
-0.462999
-0.471541
-0.459756
-0.468384
-0.456018
-0.464751
-0.451793
-0.460649
-0.446868
-0.455874
-0.441542
-0.450714
-0.434953
-0.444342
-0.428268
-0.437887
-0.421047
-0.430923
-0.413587
-0.423736
-0.405723
-0.416166
-0.397562
-0.408315
-0.389054
-0.400131
-0.380236
-0.39165
-0.371099
-0.382859
-0.361662
-0.373773
-0.35193
-0.364392
-0.341917
-0.354727
-0.331636
-0.344785
-0.321102
-0.334578
-0.310334
-0.324118
-0.299352
-0.31342
-0.288177
-0.302502
-0.276834
-0.291382
-0.26535
-0.280084
-0.253753
-0.268632
-0.242075
-0.257054
-0.230347
-0.245377
-0.218604
-0.233636
-0.206882
-0.221862
-0.195215
-0.210093
-0.183643
-0.198364
-0.172201
-0.186715
-0.160928
-0.175183
-0.149861
-0.16381
-0.139037
-0.152633
-0.12849
-0.141693
-0.118257
-0.131027
-0.108368
-0.120673
-0.0988564
-0.110667
-0.0897502
-0.101043
-0.0810762
-0.0918315
-0.0728589
-0.0830635
-0.0651205
-0.0747654
-0.0578802
-0.0669614
-0.0511552
-0.0596733
-0.0449601
-0.0529195
-0.0393069
-0.0467163
-0.0342058
-0.0410768
-0.0296647
-0.036012
-0.0256898
-0.0315303
-0.022286
-0.0276383
-0.0194568
-0.0243407
-0.0172056
-0.0216414
-0.0155346
-0.0195429
-0.0144488
-0.0180492
-0.0139513
-0.0171625
-0.014054
-0.0168927
-0.0147653
-0.0172459
-0.0161169
-0.0182498
-0.0181479
-0.0199409
-0.0209231
-0.0223745
-0.0248035
-0.0259079
-0.0295712
-0.0303117
-0.0394854
-0.068277
-0.0452224
-0.0451466
-0.0673642
-0.0397976
)
;
        value           nonuniform List<vector> 
168
(
(6.96519e-09 3.72797e-09 -3.6265e-26)
(6.10094e-09 -3.4069e-09 1.83239e-26)
(6.79894e-09 6.05072e-09 4.45184e-26)
(5.88253e-09 -5.41246e-09 -2.14365e-26)
(7.08731e-09 7.87884e-09 4.06421e-26)
(6.10526e-09 -6.91248e-09 4.19052e-26)
(7.88417e-09 9.20245e-09 -3.97364e-26)
(6.83654e-09 -7.89194e-09 -7.94653e-26)
(9.15238e-09 1.01914e-08 3.07058e-28)
(8.05009e-09 -8.51436e-09 1.84077e-26)
(1.07929e-08 1.09245e-08 1.59942e-26)
(9.65707e-09 -8.85607e-09 5.41995e-28)
(1.27496e-08 1.14832e-08 -1.47795e-26)
(1.16109e-08 -8.99797e-09 1.62527e-26)
(1.49771e-08 1.19187e-08 -6.91177e-30)
(1.38762e-08 -8.99358e-09 4.53188e-28)
(1.74489e-08 1.22705e-08 1.28266e-26)
(1.6437e-08 -8.88809e-09 1.38668e-26)
(2.01473e-08 1.25637e-08 -2.38258e-26)
(1.92869e-08 -8.71626e-09 -2.70041e-26)
(2.30622e-08 1.28135e-08 -2.76089e-28)
(2.24287e-08 -8.50787e-09 2.31575e-26)
(2.61879e-08 1.30254e-08 9.28097e-27)
(2.5871e-08 -8.28915e-09 -1.15438e-26)
(2.95222e-08 1.31958e-08 -7.27575e-27)
(2.96278e-08 -8.08534e-09 2.24787e-27)
(3.30652e-08 1.33125e-08 3.70923e-28)
(3.37176e-08 -7.92269e-09 -8.2231e-27)
(3.68189e-08 1.33538e-08 -1.52991e-27)
(3.8163e-08 -7.83069e-09 7.27611e-27)
(4.07868e-08 1.32882e-08 -1.74226e-27)
(4.29907e-08 -7.84447e-09 -3.31025e-27)
(4.49732e-08 1.30728e-08 -5.38114e-29)
(4.82307e-08 -8.00741e-09 2.94632e-27)
(4.93831e-08 1.26518e-08 4.5901e-27)
(5.39167e-08 -8.37406e-09 2.84856e-27)
(5.40219e-08 1.1954e-08 -2.73595e-27)
(6.00852e-08 -9.01333e-09 8.51519e-29)
(5.88952e-08 1.089e-08 7.08924e-27)
(6.67755e-08 -1.0012e-08 4.32269e-27)
(6.40082e-08 9.34851e-09 -9.80185e-27)
(7.40295e-08 -1.14788e-08 -1.27472e-26)
(6.93667e-08 7.19165e-09 9.28432e-27)
(8.18904e-08 -1.35489e-08 1.08515e-26)
(7.51887e-08 4.13797e-09 -4.23959e-27)
(9.07297e-08 -1.64968e-08 3.79397e-28)
(8.12575e-08 1.99101e-12 7.81618e-27)
(1.00277e-07 -2.05083e-08 5.78204e-27)
(8.71701e-08 -5.06163e-09 -3.25797e-27)
(1.09896e-07 -2.54357e-08 4.80424e-30)
(9.2936e-08 -1.1107e-08 1.0786e-26)
(1.1957e-07 -3.13331e-08 -7.25694e-27)
(9.85646e-08 -1.81814e-08 8.10886e-27)
(1.29282e-07 -3.82478e-08 -4.26523e-27)
(1.04066e-07 -2.63254e-08 5.96003e-27)
(1.39016e-07 -4.62205e-08 -1.48389e-26)
(1.09448e-07 -3.55727e-08 1.4563e-26)
(1.48756e-07 -5.5285e-08 -6.81193e-27)
(1.14722e-07 -4.59503e-08 -3.64018e-27)
(1.58484e-07 -6.54685e-08 -1.24376e-26)
(1.19895e-07 -5.74788e-08 1.43113e-27)
(1.68187e-07 -7.67917e-08 -6.13178e-27)
(1.24974e-07 -7.01725e-08 -7.25509e-28)
(1.77847e-07 -8.92693e-08 -7.2531e-27)
(1.29968e-07 -8.40399e-08 -6.57929e-27)
(1.87453e-07 -1.0291e-07 -2.0182e-27)
(1.34882e-07 -9.90845e-08 4.22984e-27)
(1.9699e-07 -1.17717e-07 3.27726e-28)
(1.39721e-07 -1.15305e-07 -4.66506e-27)
(2.06447e-07 -1.3369e-07 -2.91594e-27)
(1.44488e-07 -1.32696e-07 2.95251e-27)
(2.15813e-07 -1.50824e-07 9.73338e-27)
(1.49187e-07 -1.51249e-07 -1.09343e-26)
(2.25079e-07 -1.6911e-07 -1.63085e-27)
(1.53817e-07 -1.70954e-07 1.55103e-27)
(2.34237e-07 -1.88538e-07 2.7355e-27)
(1.5838e-07 -1.91796e-07 -4.41726e-27)
(2.43279e-07 -2.09095e-07 1.34139e-26)
(1.62875e-07 -2.13763e-07 -2.64385e-27)
(2.52201e-07 -2.30766e-07 1.30433e-27)
(1.673e-07 -2.36838e-07 -2.89541e-27)
(2.60995e-07 -2.53538e-07 -1.70604e-27)
(1.71652e-07 -2.61006e-07 -3.41683e-28)
(2.6966e-07 -2.77393e-07 8.84483e-27)
(1.75929e-07 -2.86251e-07 2.78908e-27)
(2.7819e-07 -3.02317e-07 -2.14708e-27)
(1.80127e-07 -3.12558e-07 -2.42872e-27)
(2.86584e-07 -3.28295e-07 -1.1483e-27)
(1.84242e-07 -3.39912e-07 7.37785e-28)
(2.94838e-07 -3.55312e-07 6.19265e-27)
(1.8827e-07 -3.68298e-07 4.07664e-28)
(3.02951e-07 -3.83353e-07 2.42721e-27)
(1.92207e-07 -3.97703e-07 2.47554e-27)
(3.10921e-07 -4.12406e-07 -2.49841e-27)
(1.96049e-07 -4.28114e-07 6.11328e-27)
(3.18747e-07 -4.42457e-07 1.20358e-26)
(1.99791e-07 -4.5952e-07 -3.46187e-27)
(3.26426e-07 -4.73496e-07 -1.08429e-26)
(2.03429e-07 -4.9191e-07 1.61835e-27)
(3.33956e-07 -5.05511e-07 -1.65807e-27)
(2.06961e-07 -5.25272e-07 7.86156e-27)
(3.41336e-07 -5.38492e-07 -1.02754e-26)
(2.10382e-07 -5.59598e-07 1.6925e-27)
(3.48563e-07 -5.7243e-07 -1.59346e-27)
(2.13692e-07 -5.94877e-07 -4.58693e-27)
(3.55634e-07 -6.07314e-07 -8.69793e-28)
(2.16889e-07 -6.31098e-07 4.51196e-27)
(3.62545e-07 -6.43135e-07 -9.36554e-27)
(2.19971e-07 -6.68251e-07 5.47175e-27)
(3.69291e-07 -6.79881e-07 -2.42064e-27)
(2.22939e-07 -7.06325e-07 8.22726e-28)
(3.75868e-07 -7.17542e-07 -4.93132e-27)
(2.25794e-07 -7.45304e-07 -1.09324e-26)
(3.8227e-07 -7.56103e-07 4.20162e-27)
(2.28536e-07 -7.85175e-07 1.15397e-26)
(3.88491e-07 -7.95549e-07 -1.05014e-26)
(2.31169e-07 -8.25919e-07 6.17226e-27)
(3.94525e-07 -8.35864e-07 5.12423e-27)
(2.33696e-07 -8.67516e-07 -5.55232e-27)
(4.00362e-07 -8.77026e-07 -5.41683e-27)
(2.36118e-07 -9.09943e-07 5.79823e-27)
(4.05998e-07 -9.19014e-07 6.98496e-29)
(2.38441e-07 -9.53174e-07 -7.59047e-28)
(4.11422e-07 -9.61802e-07 7.05615e-27)
(2.40667e-07 -9.9718e-07 7.11076e-27)
(4.16629e-07 -1.00536e-06 -1.32425e-26)
(2.428e-07 -1.04193e-06 -6.07149e-27)
(4.2161e-07 -1.04966e-06 6.86642e-27)
(2.44844e-07 -1.08738e-06 6.69532e-27)
(4.26358e-07 -1.09466e-06 1.13975e-28)
(2.46802e-07 -1.13351e-06 -1.59789e-26)
(4.30866e-07 -1.14032e-06 7.46029e-27)
(2.48678e-07 -1.18026e-06 -4.62737e-28)
(4.35127e-07 -1.18662e-06 -7.58739e-27)
(2.50475e-07 -1.2276e-06 -7.86909e-27)
(4.39136e-07 -1.23349e-06 8.04395e-27)
(2.52194e-07 -1.27548e-06 -8.88513e-27)
(4.42887e-07 -1.2809e-06 1.14936e-29)
(2.53838e-07 -1.32385e-06 -2.71636e-29)
(4.46375e-07 -1.32881e-06 3.78263e-29)
(2.55407e-07 -1.37267e-06 -5.69936e-30)
(4.49597e-07 -1.37715e-06 1.79391e-26)
(2.56904e-07 -1.42188e-06 -4.75005e-28)
(4.52549e-07 -1.42589e-06 -1.87793e-26)
(2.58326e-07 -1.47143e-06 -9.60329e-27)
(4.5523e-07 -1.47497e-06 9.44078e-27)
(2.59672e-07 -1.52126e-06 3.93683e-28)
(4.5764e-07 -1.52433e-06 9.98136e-27)
(2.6094e-07 -1.57134e-06 1.08245e-26)
(4.59779e-07 -1.57393e-06 2.04759e-26)
(2.62123e-07 -1.6216e-06 -1.00642e-26)
(4.61652e-07 -1.62372e-06 -1.07974e-26)
(2.63216e-07 -1.67201e-06 -3.16626e-28)
(4.63262e-07 -1.67365e-06 2.17007e-26)
(2.6421e-07 -1.72251e-06 2.26451e-26)
(4.64617e-07 -1.72367e-06 -3.94134e-29)
(2.65097e-07 -1.77306e-06 -2.29837e-26)
(4.65727e-07 -1.77375e-06 -1.51492e-28)
(2.65858e-07 -1.82364e-06 -1.18881e-26)
(4.66598e-07 -1.82385e-06 -1.72035e-29)
(2.66492e-07 -1.87421e-06 2.42926e-26)
(4.67256e-07 -1.87393e-06 2.46413e-26)
(2.66942e-07 -1.92474e-06 1.2807e-26)
(2.9232e-07 -1.94988e-06 1.29125e-27)
(3.42658e-07 -1.94962e-06 -2.11242e-28)
(3.92834e-07 -1.94936e-06 1.64336e-28)
(4.42857e-07 -1.94913e-06 -6.15286e-29)
(4.67678e-07 -1.92401e-06 8.98013e-29)
)
;
    }
    frontAndBackPlanes
    {
        type            empty;
    }
}


// ************************************************************************* //
