/*--------------------------------*- C++ -*----------------------------------*\
| =========                 |                                                 |
| \\      /  F ield         | OpenFOAM Extend Project: Open source CFD        |
|  \\    /   O peration     | Version:  1.6-ext                               |
|   \\  /    A nd           | Web:      www.extend-project.de                 |
|    \\/     M anipulation  |                                                 |
\*---------------------------------------------------------------------------*/
FoamFile
{
    version     2.0;
    format      ascii;
    class       volVectorField;
    location    "1.15";
    object      DU_0;
}
// * * * * * * * * * * * * * * * * * * * * * * * * * * * * * * * * * * * * * //

dimensions      [0 1 0 0 0 0 0];

internalField   nonuniform List<vector> 
328
(
(5.05461e-10 1.03273e-09 0)
(3.3818e-10 2.60262e-10 0)
(3.44967e-10 -1.57664e-10 0)
(5.19143e-10 -9.68307e-10 0)
(1.53583e-09 2.67076e-09 0)
(1.1175e-09 7.62516e-10 0)
(1.14083e-09 -4.58221e-10 0)
(1.58557e-09 -2.4634e-09 0)
(2.7237e-09 3.9153e-09 0)
(2.1592e-09 1.24426e-09 0)
(2.2067e-09 -7.35709e-10 0)
(2.8276e-09 -3.54972e-09 0)
(4.01293e-09 4.82761e-09 0)
(3.37867e-09 1.67434e-09 0)
(3.45577e-09 -9.60671e-10 0)
(4.18796e-09 -4.29436e-09 0)
(5.41902e-09 5.48718e-09 0)
(4.79247e-09 2.04045e-09 0)
(4.9059e-09 -1.12341e-09 0)
(5.68583e-09 -4.78397e-09 0)
(6.93455e-09 5.95415e-09 0)
(6.37275e-09 2.33697e-09 0)
(6.52957e-09 -1.22302e-09 0)
(7.31646e-09 -5.08618e-09 0)
(8.56634e-09 6.27673e-09 0)
(8.11559e-09 2.56634e-09 0)
(8.32417e-09 -1.2686e-09 0)
(9.09064e-09 -5.25775e-09 0)
(1.03185e-08 6.48901e-09 0)
(1.00102e-08 2.73324e-09 0)
(1.02803e-08 -1.27399e-09 0)
(1.10169e-08 -5.34296e-09 0)
(1.21981e-08 6.61503e-09 0)
(1.20537e-08 2.84315e-09 0)
(1.23968e-08 -1.25678e-09 0)
(1.31075e-08 -5.37856e-09 0)
(1.42118e-08 6.66941e-09 0)
(1.42442e-08 2.89941e-09 0)
(1.46738e-08 -1.23614e-09 0)
(1.5375e-08 -5.39526e-09 0)
(1.63665e-08 6.65882e-09 0)
(1.65842e-08 2.90193e-09 0)
(1.71163e-08 -1.23231e-09 0)
(1.78332e-08 -5.4202e-09 0)
(1.86689e-08 6.58229e-09 0)
(1.90788e-08 2.84578e-09 0)
(1.9732e-08 -1.26632e-09 0)
(2.04965e-08 -5.47842e-09 0)
(2.11256e-08 6.43159e-09 0)
(2.17359e-08 2.72035e-09 0)
(2.25317e-08 -1.36055e-09 0)
(2.33803e-08 -5.59467e-09 0)
(2.3743e-08 6.19107e-09 0)
(2.45656e-08 2.50866e-09 0)
(2.55291e-08 -1.53962e-09 0)
(2.65011e-08 -5.79491e-09 0)
(2.65276e-08 5.83743e-09 0)
(2.75796e-08 2.18665e-09 0)
(2.87396e-08 -1.8318e-09 0)
(2.98765e-08 -6.1081e-09 0)
(2.94859e-08 5.33909e-09 0)
(3.0791e-08 1.7224e-09 0)
(3.21805e-08 -2.27064e-09 0)
(3.35258e-08 -6.56811e-09 0)
(3.26247e-08 4.65531e-09 0)
(3.42136e-08 1.07507e-09 0)
(3.58706e-08 -2.89694e-09 0)
(3.74698e-08 -7.21575e-09 0)
(3.59509e-08 3.73477e-09 0)
(3.78617e-08 1.93433e-10 0)
(3.98294e-08 -3.7609e-09 0)
(4.17315e-08 -8.10107e-09 0)
(3.94714e-08 2.51382e-09 0)
(4.17501e-08 -9.85989e-10 0)
(4.40776e-08 -4.92464e-09 0)
(4.63353e-08 -9.2859e-09 0)
(4.31931e-08 9.14027e-10 0)
(4.58935e-08 -2.5414e-09 0)
(4.86366e-08 -6.46496e-09 0)
(5.13079e-08 -1.08467e-08 0)
(4.71227e-08 -1.16091e-09 0)
(5.03069e-08 -4.56885e-09 0)
(5.35286e-08 -8.47666e-09 0)
(5.66778e-08 -1.28777e-08 0)
(5.12666e-08 -3.82886e-09 0)
(5.50051e-08 -7.18592e-09 0)
(5.87763e-08 -1.10763e-08 0)
(6.24752e-08 -1.54951e-08 0)
(5.57968e-08 -7.36404e-09 0)
(6.01937e-08 -1.06644e-08 0)
(6.46183e-08 -1.45341e-08 0)
(6.89712e-08 -1.8969e-08 0)
(6.05451e-08 -1.18906e-08 0)
(6.56945e-08 -1.51301e-08 0)
(7.08668e-08 -1.89757e-08 0)
(7.59679e-08 -2.34235e-08 0)
(6.51931e-08 -1.72065e-08 0)
(7.11407e-08 -2.0385e-08 0)
(7.71063e-08 -2.42043e-08 0)
(8.30015e-08 -2.86606e-08 0)
(6.97422e-08 -2.33567e-08 0)
(7.65309e-08 -2.6474e-08 0)
(8.33331e-08 -3.02648e-08 0)
(9.00653e-08 -3.47253e-08 0)
(7.41936e-08 -3.03837e-08 0)
(8.1864e-08 -3.34396e-08 0)
(8.95431e-08 -3.71996e-08 0)
(9.7153e-08 -4.16601e-08 0)
(7.85485e-08 -3.83271e-08 0)
(8.71385e-08 -4.13215e-08 0)
(9.57323e-08 -4.50486e-08 0)
(1.04258e-07 -4.95046e-08 0)
(8.28087e-08 -4.72238e-08 0)
(9.23532e-08 -5.01567e-08 0)
(1.01897e-07 -5.38486e-08 0)
(1.11373e-07 -5.82958e-08 0)
(8.69756e-08 -5.71078e-08 0)
(9.7507e-08 -5.99791e-08 0)
(1.08033e-07 -6.36336e-08 0)
(1.18492e-07 -6.80676e-08 0)
(9.1051e-08 -6.80097e-08 0)
(1.02599e-07 -7.08196e-08 0)
(1.14136e-07 -7.44346e-08 0)
(1.25607e-07 -7.88511e-08 0)
(9.50363e-08 -7.99577e-08 0)
(1.07627e-07 -8.27061e-08 0)
(1.20202e-07 -8.62795e-08 0)
(1.32713e-07 -9.06743e-08 0)
(9.89331e-08 -9.29768e-08 0)
(1.12591e-07 -9.56637e-08 0)
(1.26228e-07 -9.91935e-08 0)
(1.39802e-07 -1.03562e-07 0)
(1.02743e-07 -1.07089e-07 0)
(1.17489e-07 -1.09715e-07 0)
(1.3221e-07 -1.13199e-07 0)
(1.46868e-07 -1.17538e-07 0)
(1.06467e-07 -1.22315e-07 0)
(1.2232e-07 -1.24879e-07 0)
(1.38143e-07 -1.28316e-07 0)
(1.53904e-07 -1.3262e-07 0)
(1.10106e-07 -1.38672e-07 0)
(1.27082e-07 -1.41174e-07 0)
(1.44025e-07 -1.44561e-07 0)
(1.60905e-07 -1.48828e-07 0)
(1.13663e-07 -1.56173e-07 0)
(1.31775e-07 -1.58614e-07 0)
(1.4985e-07 -1.61949e-07 0)
(1.67864e-07 -1.66175e-07 0)
(1.17137e-07 -1.74833e-07 0)
(1.36398e-07 -1.77213e-07 0)
(1.55617e-07 -1.80494e-07 0)
(1.74775e-07 -1.84674e-07 0)
(1.2053e-07 -1.94661e-07 0)
(1.40948e-07 -1.96979e-07 0)
(1.6132e-07 -2.00206e-07 0)
(1.81631e-07 -2.04336e-07 0)
(1.23843e-07 -2.15665e-07 0)
(1.45425e-07 -2.17922e-07 0)
(1.66956e-07 -2.21091e-07 0)
(1.88427e-07 -2.25169e-07 0)
(1.27078e-07 -2.37851e-07 0)
(1.49828e-07 -2.40047e-07 0)
(1.72522e-07 -2.43157e-07 0)
(1.95157e-07 -2.47178e-07 0)
(1.30236e-07 -2.61221e-07 0)
(1.54155e-07 -2.63357e-07 0)
(1.78014e-07 -2.66406e-07 0)
(2.01814e-07 -2.70366e-07 0)
(1.33318e-07 -2.85777e-07 0)
(1.58405e-07 -2.87852e-07 0)
(1.83427e-07 -2.9084e-07 0)
(2.08393e-07 -2.94735e-07 0)
(1.36326e-07 -3.11516e-07 0)
(1.62577e-07 -3.13531e-07 0)
(1.8876e-07 -3.16455e-07 0)
(2.14886e-07 -3.20283e-07 0)
(1.39261e-07 -3.38433e-07 0)
(1.66671e-07 -3.40389e-07 0)
(1.94007e-07 -3.43247e-07 0)
(2.21287e-07 -3.47004e-07 0)
(1.42126e-07 -3.66521e-07 0)
(1.70685e-07 -3.68419e-07 0)
(1.99165e-07 -3.7121e-07 0)
(2.27591e-07 -3.74891e-07 0)
(1.44923e-07 -3.9577e-07 0)
(1.74618e-07 -3.97609e-07 0)
(2.04231e-07 -4.00332e-07 0)
(2.3379e-07 -4.03935e-07 0)
(1.47652e-07 -4.26166e-07 0)
(1.7847e-07 -4.27948e-07 0)
(2.092e-07 -4.30601e-07 0)
(2.39879e-07 -4.34122e-07 0)
(1.50317e-07 -4.57693e-07 0)
(1.8224e-07 -4.59419e-07 0)
(2.1407e-07 -4.62001e-07 0)
(2.4585e-07 -4.65436e-07 0)
(1.52919e-07 -4.90331e-07 0)
(1.85926e-07 -4.92002e-07 0)
(2.18837e-07 -4.94512e-07 0)
(2.51698e-07 -4.97858e-07 0)
(1.5546e-07 -5.2406e-07 0)
(1.89529e-07 -5.25677e-07 0)
(2.23497e-07 -5.28113e-07 0)
(2.57416e-07 -5.31366e-07 0)
(1.57942e-07 -5.58855e-07 0)
(1.93047e-07 -5.60417e-07 0)
(2.28047e-07 -5.62779e-07 0)
(2.62999e-07 -5.65937e-07 0)
(1.60367e-07 -5.94686e-07 0)
(1.9648e-07 -5.96196e-07 0)
(2.32484e-07 -5.98482e-07 0)
(2.6844e-07 -6.01541e-07 0)
(1.62737e-07 -6.31525e-07 0)
(1.99827e-07 -6.32983e-07 0)
(2.36804e-07 -6.35193e-07 0)
(2.73734e-07 -6.3815e-07 0)
(1.65053e-07 -6.69339e-07 0)
(2.03087e-07 -6.70746e-07 0)
(2.41004e-07 -6.72877e-07 0)
(2.78875e-07 -6.75731e-07 0)
(1.67317e-07 -7.08092e-07 0)
(2.0626e-07 -7.09448e-07 0)
(2.45081e-07 -7.11501e-07 0)
(2.83858e-07 -7.14248e-07 0)
(1.69529e-07 -7.47747e-07 0)
(2.09343e-07 -7.49053e-07 0)
(2.49033e-07 -7.51027e-07 0)
(2.88678e-07 -7.53664e-07 0)
(1.71691e-07 -7.88265e-07 0)
(2.12338e-07 -7.89522e-07 0)
(2.52857e-07 -7.91415e-07 0)
(2.93332e-07 -7.93941e-07 0)
(1.73803e-07 -8.29605e-07 0)
(2.15242e-07 -8.30812e-07 0)
(2.5655e-07 -8.32624e-07 0)
(2.97813e-07 -8.35037e-07 0)
(1.75865e-07 -8.71723e-07 0)
(2.18054e-07 -8.72882e-07 0)
(2.60109e-07 -8.74612e-07 0)
(3.02119e-07 -8.7691e-07 0)
(1.77879e-07 -9.14577e-07 0)
(2.20774e-07 -9.15687e-07 0)
(2.63533e-07 -9.17334e-07 0)
(3.06246e-07 -9.19516e-07 0)
(1.79843e-07 -9.58121e-07 0)
(2.234e-07 -9.59182e-07 0)
(2.66819e-07 -9.60745e-07 0)
(3.10192e-07 -9.62809e-07 0)
(1.81756e-07 -1.00231e-06 0)
(2.25931e-07 -1.00332e-06 0)
(2.69965e-07 -1.0048e-06 0)
(3.13952e-07 -1.00674e-06 0)
(1.83619e-07 -1.04709e-06 0)
(2.28365e-07 -1.04805e-06 0)
(2.7297e-07 -1.04945e-06 0)
(3.17526e-07 -1.05127e-06 0)
(1.85429e-07 -1.09242e-06 0)
(2.30701e-07 -1.09334e-06 0)
(2.75831e-07 -1.09465e-06 0)
(3.20911e-07 -1.09635e-06 0)
(1.87185e-07 -1.13826e-06 0)
(2.32938e-07 -1.13912e-06 0)
(2.78548e-07 -1.14035e-06 0)
(3.24106e-07 -1.14193e-06 0)
(1.88885e-07 -1.18455e-06 0)
(2.35074e-07 -1.18536e-06 0)
(2.8112e-07 -1.1865e-06 0)
(3.27112e-07 -1.18796e-06 0)
(1.90526e-07 -1.23125e-06 0)
(2.37107e-07 -1.23201e-06 0)
(2.83545e-07 -1.23306e-06 0)
(3.29926e-07 -1.2344e-06 0)
(1.92104e-07 -1.27832e-06 0)
(2.39035e-07 -1.27902e-06 0)
(2.85822e-07 -1.27998e-06 0)
(3.32551e-07 -1.2812e-06 0)
(1.93618e-07 -1.32571e-06 0)
(2.40856e-07 -1.32635e-06 0)
(2.87952e-07 -1.32723e-06 0)
(3.34987e-07 -1.32833e-06 0)
(1.95062e-07 -1.37337e-06 0)
(2.42569e-07 -1.37396e-06 0)
(2.89934e-07 -1.37475e-06 0)
(3.37236e-07 -1.37573e-06 0)
(1.96435e-07 -1.42128e-06 0)
(2.44172e-07 -1.42181e-06 0)
(2.91768e-07 -1.42251e-06 0)
(3.39298e-07 -1.42337e-06 0)
(1.97731e-07 -1.46939e-06 0)
(2.45662e-07 -1.46985e-06 0)
(2.93454e-07 -1.47046e-06 0)
(3.41176e-07 -1.47122e-06 0)
(1.98947e-07 -1.51766e-06 0)
(2.47038e-07 -1.51807e-06 0)
(2.94993e-07 -1.51859e-06 0)
(3.42873e-07 -1.51922e-06 0)
(2.00078e-07 -1.56607e-06 0)
(2.48298e-07 -1.56641e-06 0)
(2.96384e-07 -1.56684e-06 0)
(3.44392e-07 -1.56737e-06 0)
(2.0112e-07 -1.61458e-06 0)
(2.49441e-07 -1.61485e-06 0)
(2.97629e-07 -1.61519e-06 0)
(3.45736e-07 -1.61561e-06 0)
(2.02068e-07 -1.66316e-06 0)
(2.50463e-07 -1.66336e-06 0)
(2.98728e-07 -1.66361e-06 0)
(3.46908e-07 -1.66392e-06 0)
(2.02916e-07 -1.71179e-06 0)
(2.51364e-07 -1.71191e-06 0)
(2.99683e-07 -1.71208e-06 0)
(3.47912e-07 -1.71228e-06 0)
(2.0366e-07 -1.76044e-06 0)
(2.52142e-07 -1.76049e-06 0)
(3.00497e-07 -1.76056e-06 0)
(3.48756e-07 -1.76066e-06 0)
(2.0429e-07 -1.80909e-06 0)
(2.52793e-07 -1.80906e-06 0)
(3.01169e-07 -1.80905e-06 0)
(3.4944e-07 -1.80905e-06 0)
(2.04808e-07 -1.85774e-06 0)
(2.53324e-07 -1.85763e-06 0)
(3.0171e-07 -1.85753e-06 0)
(3.49979e-07 -1.85743e-06 0)
(2.05181e-07 -1.90637e-06 0)
(2.53707e-07 -1.90617e-06 0)
(3.02095e-07 -1.90597e-06 0)
(3.50352e-07 -1.90578e-06 0)
)
;

boundaryField
{
    plateFix
    {
        type            fixedDisplacement;
        value           uniform (0 0 0);
    }
    plate
    {
        type            solidTraction;
        nonLinear       updatedLagrangian;
        traction        uniform (0 0 0);
        pressure        uniform 0;
        value           nonuniform List<vector> 
168
(
(5.05934e-09 2.68495e-09 -5.78163e-28)
(4.74762e-09 -2.66877e-09 -1.8339e-26)
(4.90815e-09 4.37102e-09 -2.26075e-26)
(4.61439e-09 -4.23081e-09 2.2717e-26)
(5.07741e-09 5.68805e-09 -4.13779e-26)
(4.83315e-09 -5.4113e-09 -2.11284e-26)
(5.61222e-09 6.62611e-09 1.95043e-26)
(5.44986e-09 -6.20151e-09 6.00386e-26)
(6.48747e-09 7.30539e-09 1.88787e-26)
(6.44205e-09 -6.73143e-09 -3.84404e-26)
(7.63229e-09 7.78046e-09 1.03138e-27)
(7.73967e-09 -7.06285e-09 -2.42783e-28)
(9.00645e-09 8.10769e-09 1.55432e-26)
(9.30588e-09 -7.26128e-09 2.46687e-28)
(1.05773e-08 8.32121e-09 -1.4522e-26)
(1.11127e-08 -7.37111e-09 -3.10729e-26)
(1.23258e-08 8.44636e-09 1.15152e-27)
(1.31475e-08 -7.43056e-09 1.47764e-26)
(1.42392e-08 8.49755e-09 1.20397e-26)
(1.54049e-08 -7.47017e-09 1.44113e-26)
(1.63102e-08 8.48137e-09 -8.45268e-28)
(1.78868e-08 -7.51708e-09 1.14723e-26)
(1.85349e-08 8.39666e-09 -9.8521e-27)
(2.05994e-08 -7.59619e-09 -2.3948e-28)
(2.09117e-08 8.2351e-09 -1.75365e-27)
(2.3553e-08 -7.73219e-09 -1.14032e-26)
(2.34411e-08 7.9811e-09 7.9061e-27)
(2.67613e-08 -7.95111e-09 1.22342e-26)
(2.61248e-08 7.61148e-09 -7.14187e-28)
(3.02411e-08 -8.28206e-09 -1.30082e-26)
(2.89657e-08 7.09483e-09 -2.16628e-27)
(3.40121e-08 -8.75906e-09 3.36753e-27)
(3.19672e-08 6.39059e-09 -5.54509e-27)
(3.80969e-08 -9.4231e-09 -2.88558e-27)
(3.51334e-08 5.44759e-09 1.59384e-28)
(4.25205e-08 -1.03243e-08 2.06621e-27)
(3.84682e-08 4.20228e-09 -2.78441e-28)
(4.73105e-08 -1.15247e-08 -4.84706e-27)
(4.19754e-08 2.57626e-09 -9.89754e-27)
(5.2497e-08 -1.31005e-08 -2.81694e-27)
(4.56581e-08 4.73229e-10 -2.54123e-27)
(5.81121e-08 -1.51459e-08 6.51244e-27)
(4.95189e-08 -2.22477e-09 5.56788e-27)
(6.41905e-08 -1.7777e-08 1.29471e-26)
(5.37123e-08 -5.79314e-09 -7.51245e-29)
(7.10205e-08 -2.12638e-08 1.50747e-27)
(5.80775e-08 -1.0355e-08 2.89734e-31)
(7.83971e-08 -2.57298e-08 -4.43857e-27)
(6.23197e-08 -1.57061e-08 7.71838e-27)
(8.58334e-08 -3.09759e-08 -5.73531e-27)
(6.64411e-08 -2.18914e-08 -1.08881e-26)
(9.33217e-08 -3.70472e-08 7.2033e-27)
(7.04442e-08 -2.89533e-08 -6.14243e-27)
(1.00854e-07 -4.39861e-08 9.16318e-27)
(7.4332e-08 -3.69313e-08 -5.95146e-27)
(1.08423e-07 -5.18323e-08 1.04526e-26)
(7.81073e-08 -4.58624e-08 -1.30491e-26)
(1.1602e-07 -6.06227e-08 5.73442e-27)
(8.17732e-08 -5.57804e-08 1.80051e-26)
(1.23637e-07 -7.03913e-08 9.50611e-27)
(8.53329e-08 -6.67161e-08 2.36684e-27)
(1.31265e-07 -8.1169e-08 -4.44184e-27)
(8.87894e-08 -7.86975e-08 -2.30697e-27)
(1.38896e-07 -9.2984e-08 8.16896e-27)
(9.21455e-08 -9.17498e-08 1.92713e-27)
(1.46523e-07 -1.05862e-07 1.79486e-27)
(9.54041e-08 -1.05895e-07 -1.04197e-28)
(1.54137e-07 -1.19824e-07 6.54367e-28)
(9.85678e-08 -1.21154e-07 6.48196e-27)
(1.6173e-07 -1.34892e-07 -1.7022e-27)
(1.01639e-07 -1.37542e-07 3.2133e-27)
(1.69297e-07 -1.51081e-07 5.32418e-27)
(1.0462e-07 -1.55076e-07 1.54651e-27)
(1.76828e-07 -1.68409e-07 -5.16837e-27)
(1.07513e-07 -1.73768e-07 4.62394e-27)
(1.84316e-07 -1.86886e-07 7.66045e-27)
(1.10321e-07 -1.93627e-07 4.32054e-27)
(1.91755e-07 -2.06524e-07 -5.7834e-27)
(1.13046e-07 -2.14662e-07 -1.663e-27)
(1.99137e-07 -2.27331e-07 -3.06698e-27)
(1.1569e-07 -2.36879e-07 1.6768e-27)
(2.06455e-07 -2.49312e-07 9.43125e-29)
(1.18256e-07 -2.6028e-07 1.07684e-28)
(2.137e-07 -2.72471e-07 1.1076e-27)
(1.20747e-07 -2.84865e-07 -4.39153e-27)
(2.20867e-07 -2.96807e-07 -4.04854e-27)
(1.23165e-07 -3.10634e-07 8.66108e-27)
(2.27947e-07 -3.2232e-07 9.74274e-27)
(1.25514e-07 -3.3758e-07 -4.46166e-27)
(2.34932e-07 -3.49004e-07 -3.44622e-27)
(1.27797e-07 -3.65696e-07 -4.08445e-27)
(2.41815e-07 -3.76853e-07 -3.41032e-29)
(1.30018e-07 -3.94972e-07 -3.70433e-27)
(2.48587e-07 -4.05856e-07 5.6417e-27)
(1.32178e-07 -4.25395e-07 -7.95476e-28)
(2.55242e-07 -4.36e-07 2.78422e-27)
(1.34283e-07 -4.56948e-07 5.65201e-27)
(2.6177e-07 -4.67269e-07 9.29023e-28)
(1.36335e-07 -4.89612e-07 -1.32442e-27)
(2.68165e-07 -4.99645e-07 6.53776e-27)
(1.38338e-07 -5.23366e-07 -1.2347e-27)
(2.74419e-07 -5.33104e-07 -2.98979e-27)
(1.40296e-07 -5.58184e-07 3.92184e-27)
(2.80524e-07 -5.67624e-07 -1.06096e-26)
(1.4221e-07 -5.94039e-07 1.12339e-26)
(2.86473e-07 -6.03176e-07 -5.20324e-27)
(1.44085e-07 -6.30901e-07 7.30525e-28)
(2.92259e-07 -6.39731e-07 2.53214e-27)
(1.45923e-07 -6.68736e-07 3.59771e-27)
(2.97875e-07 -6.77256e-07 6.6965e-27)
(1.47727e-07 -7.07511e-07 -5.10944e-27)
(3.03316e-07 -7.15716e-07 -3.40785e-27)
(1.49499e-07 -7.47187e-07 -8.40338e-28)
(3.08575e-07 -7.55074e-07 3.04535e-27)
(1.5124e-07 -7.87725e-07 -1.19415e-26)
(3.13646e-07 -7.9529e-07 7.47372e-28)
(1.52952e-07 -8.29085e-07 5.27919e-27)
(3.18525e-07 -8.36325e-07 -4.93746e-27)
(1.54637e-07 -8.71223e-07 -7.75426e-28)
(3.23207e-07 -8.78136e-07 -1.20997e-26)
(1.56294e-07 -9.14097e-07 5.95539e-27)
(3.27688e-07 -9.20678e-07 -9.21284e-28)
(1.57925e-07 -9.5766e-07 1.40925e-28)
(3.31964e-07 -9.63908e-07 5.23993e-28)
(1.59529e-07 -1.00187e-06 5.8803e-28)
(3.36032e-07 -1.00778e-06 2.80261e-28)
(1.61105e-07 -1.04667e-06 -2.18184e-26)
(3.3989e-07 -1.05224e-06 -1.85134e-28)
(1.62653e-07 -1.09202e-06 2.11751e-26)
(3.43536e-07 -1.09725e-06 -7.31765e-27)
(1.64169e-07 -1.13788e-06 -1.48478e-26)
(3.46969e-07 -1.14277e-06 7.2054e-27)
(1.65653e-07 -1.18419e-06 1.59159e-26)
(3.50188e-07 -1.18873e-06 -1.4535e-29)
(1.671e-07 -1.23091e-06 -7.43276e-27)
(3.53195e-07 -1.23511e-06 4.498e-29)
(1.68507e-07 -1.278e-06 1.72553e-26)
(3.55989e-07 -1.28185e-06 -9.45951e-29)
(1.6987e-07 -1.32541e-06 -8.26036e-27)
(3.58574e-07 -1.32891e-06 -8.71996e-27)
(1.71185e-07 -1.37311e-06 8.28797e-27)
(3.6095e-07 -1.37625e-06 2.67526e-26)
(1.72447e-07 -1.42104e-06 4.84822e-28)
(3.63122e-07 -1.42383e-06 -8.91921e-27)
(1.73651e-07 -1.46917e-06 -2.23372e-29)
(3.65091e-07 -1.47161e-06 -4.17828e-29)
(1.74792e-07 -1.51748e-06 1.03162e-26)
(3.66861e-07 -1.51956e-06 -3.43832e-28)
(1.75865e-07 -1.56591e-06 -2.09636e-26)
(3.68437e-07 -1.56764e-06 -1.81798e-28)
(1.76864e-07 -1.61445e-06 9.67696e-27)
(3.69822e-07 -1.61582e-06 1.65177e-28)
(1.77782e-07 -1.66307e-06 1.11697e-26)
(3.71023e-07 -1.66408e-06 1.08229e-26)
(1.78613e-07 -1.71173e-06 -1.63883e-28)
(3.72043e-07 -1.71238e-06 -1.11465e-26)
(1.79351e-07 -1.76042e-06 -1.17968e-26)
(3.72893e-07 -1.76071e-06 1.13154e-26)
(1.79981e-07 -1.80911e-06 -3.33471e-28)
(3.73572e-07 -1.80905e-06 1.74769e-29)
(1.80506e-07 -1.8578e-06 1.22825e-26)
(3.74099e-07 -1.85738e-06 -1.58397e-29)
(1.80876e-07 -1.90647e-06 -6.95968e-30)
(2.05324e-07 -1.9307e-06 4.30908e-30)
(2.53852e-07 -1.93044e-06 4.38292e-29)
(3.02241e-07 -1.93017e-06 -1.93878e-27)
(3.50495e-07 -1.92992e-06 3.98866e-28)
(3.74444e-07 -1.90569e-06 2.44393e-28)
)
;
    }
    frontAndBackPlanes
    {
        type            empty;
    }
}


// ************************************************************************* //
