/*--------------------------------*- C++ -*----------------------------------*\
| =========                 |                                                 |
| \\      /  F ield         | OpenFOAM Extend Project: Open source CFD        |
|  \\    /   O peration     | Version:  1.6-ext                               |
|   \\  /    A nd           | Web:      www.extend-project.de                 |
|    \\/     M anipulation  |                                                 |
\*---------------------------------------------------------------------------*/
FoamFile
{
    version     2.0;
    format      ascii;
    class       volVectorField;
    location    "1.15";
    object      DV;
}
// * * * * * * * * * * * * * * * * * * * * * * * * * * * * * * * * * * * * * //

dimensions      [0 1 -1 0 0 0 0];

internalField   nonuniform List<vector> 
328
(
(1.90207e-07 3.69073e-07 0)
(1.12109e-07 7.95174e-08 0)
(1.01314e-07 -5.23479e-08 0)
(1.30919e-07 -2.62201e-07 0)
(5.79072e-07 9.5983e-07 0)
(3.71936e-07 2.51175e-07 0)
(3.3408e-07 -1.33962e-07 0)
(3.99161e-07 -6.59801e-07 0)
(1.02733e-06 1.42312e-06 0)
(7.21384e-07 4.3643e-07 0)
(6.44843e-07 -1.88205e-07 0)
(7.12771e-07 -9.31776e-07 0)
(1.51346e-06 1.78548e-06 0)
(1.13005e-06 6.26082e-07 0)
(1.00991e-06 -2.05167e-07 0)
(1.05747e-06 -1.09208e-06 0)
(2.04265e-06 2.07911e-06 0)
(1.6032e-06 8.17216e-07 0)
(1.43484e-06 -1.80823e-07 0)
(1.43899e-06 -1.16092e-06 0)
(2.61157e-06 2.32912e-06 0)
(2.13086e-06 1.01027e-06 0)
(1.91207e-06 -1.12694e-07 0)
(1.85676e-06 -1.15351e-06 0)
(3.22221e-06 2.55648e-06 0)
(2.71157e-06 1.20894e-06 0)
(2.44099e-06 -7.2765e-10 0)
(2.31434e-06 -1.08202e-06 0)
(3.87557e-06 2.77741e-06 0)
(3.34156e-06 1.41849e-06 0)
(3.01896e-06 1.54477e-07 0)
(2.81465e-06 -9.54977e-07 0)
(4.57374e-06 3.00503e-06 0)
(4.01975e-06 1.64513e-06 0)
(3.64568e-06 3.51855e-07 0)
(3.36167e-06 -7.78476e-07 0)
(5.31866e-06 3.24972e-06 0)
(4.74549e-06 1.89516e-06 0)
(4.32131e-06 5.90574e-07 0)
(3.95944e-06 -5.56441e-07 0)
(6.1124e-06 3.51978e-06 0)
(5.51949e-06 2.17444e-06 0)
(5.04738e-06 8.70158e-07 0)
(4.61242e-06 -2.91232e-07 0)
(6.95686e-06 3.82165e-06 0)
(6.34329e-06 2.48803e-06 0)
(5.82635e-06 1.19059e-06 0)
(5.32528e-06 1.59942e-08 0)
(7.8539e-06 4.16011e-06 0)
(7.21932e-06 2.83991e-06 0)
(6.66169e-06 1.55215e-06 0)
(6.10302e-06 3.64839e-07 0)
(8.80527e-06 4.53833e-06 0)
(8.15066e-06 3.2328e-06 0)
(7.55763e-06 1.95514e-06 0)
(6.95103e-06 7.55219e-07 0)
(9.81268e-06 4.95779e-06 0)
(9.14091e-06 3.66791e-06 0)
(8.51913e-06 2.39946e-06 0)
(7.87513e-06 1.18687e-06 0)
(1.08779e-05 5.41821e-06 0)
(1.01941e-05 4.14478e-06 0)
(9.55165e-06 2.88414e-06 0)
(8.88163e-06 1.65876e-06 0)
(1.20026e-05 5.9172e-06 0)
(1.13143e-05 4.66092e-06 0)
(1.06611e-05 3.40671e-06 0)
(9.97734e-06 2.16851e-06 0)
(1.31887e-05 6.44999e-06 0)
(1.25061e-05 5.21143e-06 0)
(1.18536e-05 3.96257e-06 0)
(1.11696e-05 2.7117e-06 0)
(1.44384e-05 7.00884e-06 0)
(1.3774e-05 5.78846e-06 0)
(1.31355e-05 4.5443e-06 0)
(1.2466e-05 3.28115e-06 0)
(1.57539e-05 7.58251e-06 0)
(1.51226e-05 6.3806e-06 0)
(1.45135e-05 5.14091e-06 0)
(1.38748e-05 3.86622e-06 0)
(1.71382e-05 8.1556e-06 0)
(1.6557e-05 6.9722e-06 0)
(1.59941e-05 5.73712e-06 0)
(1.5404e-05 4.45206e-06 0)
(1.85946e-05 8.70791e-06 0)
(1.80821e-05 7.54278e-06 0)
(1.7584e-05 6.31276e-06 0)
(1.70615e-05 5.01897e-06 0)
(2.01857e-05 9.23321e-06 0)
(1.97653e-05 8.0864e-06 0)
(1.93549e-05 6.86231e-06 0)
(1.89235e-05 5.56184e-06 0)
(2.18567e-05 9.66819e-06 0)
(2.155e-05 8.53858e-06 0)
(2.12488e-05 7.32138e-06 0)
(2.09301e-05 6.0174e-06 0)
(2.35007e-05 9.96261e-06 0)
(2.33189e-05 8.84768e-06 0)
(2.3138e-05 7.63796e-06 0)
(2.29432e-05 6.33424e-06 0)
(2.51231e-05 1.01076e-05 0)
(2.50732e-05 9.00492e-06 0)
(2.50199e-05 7.80328e-06 0)
(2.4956e-05 6.50351e-06 0)
(2.67288e-05 1.00986e-05 0)
(2.68141e-05 9.00588e-06 0)
(2.68916e-05 7.81295e-06 0)
(2.69619e-05 6.5207e-06 0)
(2.83226e-05 9.93528e-06 0)
(2.85425e-05 8.85031e-06 0)
(2.87505e-05 7.66671e-06 0)
(2.89543e-05 6.3854e-06 0)
(2.9909e-05 9.62105e-06 0)
(3.02593e-05 8.5418e-06 0)
(3.0594e-05 7.36815e-06 0)
(3.09273e-05 6.10106e-06 0)
(3.1492e-05 9.16298e-06 0)
(3.19654e-05 8.08761e-06 0)
(3.24195e-05 6.92453e-06 0)
(3.28747e-05 5.67472e-06 0)
(3.30752e-05 8.57153e-06 0)
(3.36613e-05 7.49841e-06 0)
(3.42246e-05 6.34649e-06 0)
(3.47913e-05 5.11679e-06 0)
(3.4662e-05 7.8603e-06 0)
(3.53474e-05 6.78804e-06 0)
(3.60071e-05 5.64787e-06 0)
(3.6672e-05 4.44083e-06 0)
(3.6255e-05 7.04575e-06 0)
(3.70241e-05 5.97322e-06 0)
(3.77648e-05 4.84536e-06 0)
(3.85123e-05 3.66323e-06 0)
(3.78563e-05 6.14683e-06 0)
(3.86913e-05 5.07322e-06 0)
(3.94959e-05 3.95821e-06 0)
(4.03082e-05 2.80288e-06 0)
(3.94672e-05 5.18452e-06 0)
(4.03489e-05 4.10934e-06 0)
(4.11986e-05 3.00771e-06 0)
(4.20565e-05 1.88071e-06 0)
(4.10885e-05 4.18131e-06 0)
(4.19966e-05 3.10445e-06 0)
(4.28715e-05 2.0167e-06 0)
(4.37546e-05 9.19128e-07 0)
(4.27201e-05 3.16065e-06 0)
(4.36336e-05 2.08236e-06 0)
(4.45134e-05 1.00897e-06 0)
(4.54009e-05 -5.84736e-08 0)
(4.4361e-05 2.14627e-06 0)
(4.5259e-05 1.06722e-06 0)
(4.61234e-05 8.64772e-09 0)
(4.69944e-05 -1.02841e-06 0)
(4.60096e-05 1.16162e-06 0)
(4.68718e-05 8.28419e-08 0)
(4.77008e-05 -9.60461e-07 0)
(4.85349e-05 -1.96727e-06 0)
(4.76636e-05 2.29225e-07 0)
(4.84706e-05 -8.47871e-07 0)
(4.92454e-05 -1.87547e-06 0)
(5.00233e-05 -2.85258e-06 0)
(4.93196e-05 -6.29893e-07 0)
(5.00536e-05 -1.70354e-06 0)
(5.0757e-05 -2.71501e-06 0)
(5.14609e-05 -3.66333e-06 0)
(5.0974e-05 -1.39673e-06 0)
(5.16192e-05 -2.46485e-06 0)
(5.22357e-05 -3.45976e-06 0)
(5.28498e-05 -4.38052e-06 0)
(5.26223e-05 -2.05476e-06 0)
(5.31653e-05 -3.115e-06 0)
(5.36819e-05 -4.09293e-06 0)
(5.41929e-05 -4.98763e-06 0)
(5.42597e-05 -2.59039e-06 0)
(5.46899e-05 -3.64014e-06 0)
(5.5096e-05 -4.60065e-06 0)
(5.54933e-05 -5.47104e-06 0)
(5.58809e-05 -2.99322e-06 0)
(5.61906e-05 -4.02969e-06 0)
(5.64789e-05 -4.97235e-06 0)
(5.67547e-05 -5.82034e-06 0)
(5.74805e-05 -3.25637e-06 0)
(5.76651e-05 -4.27665e-06 0)
(5.78313e-05 -5.201e-06 0)
(5.79812e-05 -6.0286e-06 0)
(5.90526e-05 -3.37664e-06 0)
(5.91111e-05 -4.37772e-06 0)
(5.91541e-05 -5.2833e-06 0)
(5.91769e-05 -6.09258e-06 0)
(6.05917e-05 -3.35458e-06 0)
(6.05263e-05 -4.33347e-06 0)
(6.04481e-05 -5.2198e-06 0)
(6.03462e-05 -6.0128e-06 0)
(6.2092e-05 -3.19459e-06 0)
(6.19081e-05 -4.14831e-06 0)
(6.17143e-05 -5.01489e-06 0)
(6.14932e-05 -5.7936e-06 0)
(6.3548e-05 -2.90473e-06 0)
(6.32546e-05 -3.83044e-06 0)
(6.29537e-05 -4.67677e-06 0)
(6.26221e-05 -5.44302e-06 0)
(6.49547e-05 -2.49663e-06 0)
(6.45634e-05 -3.39166e-06 0)
(6.41669e-05 -4.21721e-06 0)
(6.37366e-05 -4.97262e-06 0)
(6.63074e-05 -1.98517e-06 0)
(6.58326e-05 -2.84708e-06 0)
(6.53546e-05 -3.65132e-06 0)
(6.48401e-05 -4.39726e-06 0)
(6.7602e-05 -1.38808e-06 0)
(6.70605e-05 -2.21473e-06 0)
(6.65173e-05 -2.99713e-06 0)
(6.59354e-05 -3.73465e-06 0)
(6.88349e-05 -7.25515e-07 0)
(6.82455e-05 -1.5151e-06 0)
(6.76554e-05 -2.2751e-06 0)
(6.70248e-05 -3.00494e-06 0)
(7.00036e-05 -1.94679e-08 0)
(6.93863e-05 -7.70542e-07 0)
(6.8769e-05 -1.50761e-06 0)
(6.81098e-05 -2.23012e-06 0)
(7.11061e-05 7.06796e-07 0)
(7.0482e-05 -4.71801e-09 0)
(6.98579e-05 -7.18317e-07 0)
(6.91912e-05 -1.43349e-06 0)
(7.21412e-05 1.42937e-06 0)
(7.15317e-05 7.58073e-07 0)
(7.09218e-05 6.84622e-08 0)
(7.02691e-05 -6.38995e-07 0)
(7.31086e-05 2.12429e-06 0)
(7.2535e-05 1.49348e-06 0)
(7.19602e-05 8.28364e-07 0)
(7.13429e-05 1.2935e-07 0)
(7.40086e-05 2.76811e-06 0)
(7.34917e-05 2.1777e-06 0)
(7.29724e-05 1.53754e-06 0)
(7.24112e-05 8.48018e-07 0)
(7.48422e-05 3.3384e-06 0)
(7.44018e-05 2.78794e-06 0)
(7.39573e-05 2.17318e-06 0)
(7.34722e-05 1.49448e-06 0)
(7.56112e-05 3.81413e-06 0)
(7.52656e-05 3.30285e-06 0)
(7.4914e-05 2.71391e-06 0)
(7.45233e-05 2.0476e-06 0)
(7.63176e-05 4.17608e-06 0)
(7.60835e-05 3.70291e-06 0)
(7.58413e-05 3.14016e-06 0)
(7.55617e-05 2.48804e-06 0)
(7.69643e-05 4.40707e-06 0)
(7.68563e-05 3.97069e-06 0)
(7.67377e-05 3.43444e-06 0)
(7.65839e-05 2.7985e-06 0)
(7.75544e-05 4.49228e-06 0)
(7.75848e-05 4.09111e-06 0)
(7.7602e-05 3.58165e-06 0)
(7.75863e-05 2.96403e-06 0)
(7.80913e-05 4.41948e-06 0)
(7.827e-05 4.05172e-06 0)
(7.84324e-05 3.56928e-06 0)
(7.85648e-05 2.97227e-06 0)
(7.85792e-05 4.17928e-06 0)
(7.8913e-05 3.84296e-06 0)
(7.92276e-05 3.38774e-06 0)
(7.95149e-05 2.81372e-06 0)
(7.9022e-05 3.76544e-06 0)
(7.95151e-05 3.45845e-06 0)
(7.99858e-05 3.03061e-06 0)
(8.04322e-05 2.48201e-06 0)
(7.94243e-05 3.17509e-06 0)
(8.00776e-05 2.89524e-06 0)
(8.07054e-05 2.49491e-06 0)
(8.13118e-05 1.97419e-06 0)
(7.97904e-05 2.40891e-06 0)
(8.06017e-05 2.15401e-06 0)
(8.13846e-05 1.78129e-06 0)
(8.21489e-05 1.29088e-06 0)
(8.01246e-05 1.47123e-06 0)
(8.10889e-05 1.23918e-06 0)
(8.20218e-05 8.94159e-07 0)
(8.29388e-05 4.36334e-07 0)
(8.04311e-05 3.69922e-07 0)
(8.15403e-05 1.58777e-07 0)
(8.26155e-05 -1.58464e-07 0)
(8.36772e-05 -5.81605e-07 0)
(8.07133e-05 -8.8386e-07 0)
(8.19568e-05 -1.07578e-06 0)
(8.31641e-05 -1.36517e-06 0)
(8.43598e-05 -1.75179e-06 0)
(8.09743e-05 -2.27609e-06 0)
(8.23394e-05 -2.45015e-06 0)
(8.36665e-05 -2.71161e-06 0)
(8.49834e-05 -3.06021e-06 0)
(8.12164e-05 -3.79044e-06 0)
(8.26885e-05 -3.9476e-06 0)
(8.41215e-05 -4.18104e-06 0)
(8.55452e-05 -4.49051e-06 0)
(8.14408e-05 -5.40886e-06 0)
(8.30044e-05 -5.54967e-06 0)
(8.45283e-05 -5.755e-06 0)
(8.60432e-05 -6.02463e-06 0)
(8.16482e-05 -7.11228e-06 0)
(8.32872e-05 -7.23682e-06 0)
(8.48864e-05 -7.41391e-06 0)
(8.64764e-05 -7.64348e-06 0)
(8.18382e-05 -8.88129e-06 0)
(8.35364e-05 -8.98917e-06 0)
(8.51955e-05 -9.13786e-06 0)
(8.68447e-05 -9.32757e-06 0)
(8.20094e-05 -1.06969e-05 0)
(8.37513e-05 -1.07872e-05 0)
(8.54556e-05 -1.09073e-05 0)
(8.71488e-05 -1.10578e-05 0)
(8.21598e-05 -1.25411e-05 0)
(8.39311e-05 -1.26125e-05 0)
(8.56672e-05 -1.27036e-05 0)
(8.73908e-05 -1.28161e-05 0)
(8.22859e-05 -1.43974e-05 0)
(8.40739e-05 -1.44482e-05 0)
(8.583e-05 -1.45103e-05 0)
(8.75728e-05 -1.45864e-05 0)
(8.23853e-05 -1.62511e-05 0)
(8.41796e-05 -1.62796e-05 0)
(8.59466e-05 -1.63135e-05 0)
(8.77003e-05 -1.63555e-05 0)
(8.245e-05 -1.80827e-05 0)
(8.4244e-05 -1.80921e-05 0)
(8.60151e-05 -1.81041e-05 0)
(8.77736e-05 -1.81224e-05 0)
)
;

boundaryField
{
    plateFix
    {
        type            calculated;
        value           uniform (0 0 0);
    }
    plate
    {
        type            calculated;
        value           nonuniform List<vector> 
168
(
(1.82453e-06 9.98198e-07 -4.40643e-23)
(1.26665e-06 -6.91145e-07 6.39325e-23)
(1.81191e-06 1.60791e-06 1.12252e-22)
(1.18527e-06 -1.1059e-06 -7.78967e-23)
(1.9277e-06 2.09823e-06 1.54295e-22)
(1.18731e-06 -1.40333e-06 1.0523e-22)
(2.17997e-06 2.46939e-06 -8.86085e-23)
(1.29335e-06 -1.57731e-06 -2.4955e-22)
(2.55711e-06 2.76892e-06 -6.54175e-23)
(1.49997e-06 -1.65918e-06 1.24302e-22)
(3.03219e-06 3.02003e-06 3.04595e-23)
(1.78967e-06 -1.66246e-06 1.63297e-24)
(3.58994e-06 3.24686e-06 -5.32045e-23)
(2.15336e-06 -1.60148e-06 1.54152e-23)
(4.21816e-06 3.46574e-06 2.89781e-23)
(2.58409e-06 -1.4847e-06 7.05976e-23)
(4.90973e-06 3.69038e-06 1.69449e-23)
(3.0789e-06 -1.31849e-06 -1.6211e-23)
(5.65985e-06 3.93114e-06 -5.94467e-23)
(3.63685e-06 -1.1067e-06 -6.92639e-23)
(6.4657e-06 4.19634e-06 1.78929e-24)
(4.25892e-06 -8.51642e-07 6.57148e-24)
(7.3256e-06 4.49237e-06 2.83303e-23)
(4.94748e-06 -5.54398e-07 -1.04035e-23)
(8.23867e-06 4.824e-06 -2.04375e-24)
(5.70613e-06 -2.15346e-07 2.61237e-23)
(9.20457e-06 5.19444e-06 -1.52603e-23)
(6.53957e-06 1.65434e-07 -4.19486e-23)
(1.02234e-05 5.60524e-06 -3.98189e-24)
(7.45353e-06 5.87653e-07 4.43852e-23)
(1.12954e-05 6.05619e-06 4.98873e-24)
(8.45465e-06 1.05028e-06 -1.17003e-23)
(1.24213e-05 6.54506e-06 1.09622e-23)
(9.55044e-06 1.55095e-06 1.01136e-23)
(1.36018e-05 7.06719e-06 5.8062e-24)
(1.07491e-05 2.08528e-06 -7.37128e-24)
(1.48379e-05 7.615e-06 -3.54752e-24)
(1.20594e-05 2.64621e-06 1.67476e-23)
(1.61312e-05 8.17743e-06 3.17152e-23)
(1.34905e-05 3.22324e-06 1.5826e-23)
(1.74833e-05 8.73929e-06 -6.4106e-24)
(1.50516e-05 3.80177e-06 -3.21773e-23)
(1.88971e-05 9.28057e-06 2.80656e-24)
(1.67512e-05 4.36236e-06 -1.62218e-23)
(2.04324e-05 9.79501e-06 -8.51657e-24)
(1.86685e-05 4.90019e-06 -5.52117e-24)
(2.20365e-05 1.022e-05 8.32344e-24)
(2.07414e-05 5.35262e-06 1.66454e-23)
(2.36081e-05 1.05061e-05 -2.25567e-23)
(2.28263e-05 5.66866e-06 9.24368e-24)
(2.51547e-05 1.06444e-05 4.0245e-23)
(2.49142e-05 5.83941e-06 -3.12482e-23)
(2.66834e-05 1.06304e-05 2.73314e-23)
(2.69964e-05 5.86029e-06 -2.1525e-23)
(2.8201e-05 1.04634e-05 2.30048e-23)
(2.90644e-05 5.7308e-06 -4.08855e-23)
(2.97137e-05 1.0147e-05 4.51154e-23)
(3.11101e-05 5.45428e-06 -1.93648e-23)
(3.12274e-05 9.68796e-06 -4.85305e-23)
(3.31261e-05 5.03763e-06 -3.93176e-23)
(3.27475e-05 9.0967e-06 -3.34408e-24)
(3.51052e-05 4.49112e-06 4.15088e-24)
(3.42785e-05 8.38665e-06 6.79319e-24)
(3.70408e-05 3.82814e-06 -3.21181e-23)
(3.58246e-05 7.5741e-06 -1.62038e-23)
(3.89272e-05 3.0649e-06 -5.82867e-24)
(3.73889e-05 6.67778e-06 7.08911e-24)
(4.07593e-05 2.22005e-06 -1.53065e-24)
(3.89737e-05 5.71847e-06 -2.13797e-23)
(4.25329e-05 1.31428e-06 1.20235e-24)
(4.05804e-05 4.71843e-06 -5.01869e-24)
(4.42449e-05 3.69748e-07 -2.35985e-24)
(4.2209e-05 3.70083e-06 -2.08809e-23)
(4.58932e-05 -5.90435e-07 8.4229e-24)
(4.38589e-05 2.68916e-06 -7.64986e-24)
(4.7477e-05 -1.54285e-06 -6.28012e-24)
(4.55279e-05 1.70663e-06 -1.6716e-23)
(4.89964e-05 -2.46437e-06 2.96125e-23)
(4.72131e-05 7.75491e-07 -1.26372e-24)
(5.04528e-05 -3.33275e-06 5.99973e-24)
(4.89104e-05 -8.34419e-08 -8.34665e-24)
(5.18484e-05 -4.12723e-06 -1.15617e-24)
(5.0615e-05 -8.51375e-07 1.30692e-24)
(5.31864e-05 -4.82902e-06 1.12168e-23)
(5.2321e-05 -1.51198e-06 1.5516e-23)
(5.44711e-05 -5.42179e-06 9.29663e-24)
(5.40221e-05 -2.05179e-06 -2.22985e-23)
(5.57071e-05 -5.89204e-06 -2.19301e-23)
(5.57114e-05 -2.46054e-06 6.87657e-24)
(5.68999e-05 -6.22948e-06 1.66397e-23)
(5.73815e-05 -2.73145e-06 9.42051e-24)
(5.80551e-05 -6.42726e-06 1.23153e-24)
(5.9025e-05 -2.86133e-06 1.25062e-23)
(5.91789e-05 -6.48218e-06 -1.79445e-23)
(6.06341e-05 -2.85079e-06 1.02326e-23)
(6.02775e-05 -6.39475e-06 1.1659e-23)
(6.22013e-05 -2.70415e-06 -1.53825e-23)
(6.13569e-05 -6.16924e-06 -1.66381e-23)
(6.37195e-05 -2.42943e-06 2.79763e-24)
(6.24232e-05 -5.81362e-06 -1.95846e-23)
(6.51816e-05 -2.03813e-06 1.4437e-23)
(6.34816e-05 -5.33932e-06 -7.44573e-24)
(6.65817e-05 -1.54496e-06 -4.694e-24)
(6.45372e-05 -4.76102e-06 1.63235e-23)
(6.79142e-05 -9.67487e-07 -2.52935e-23)
(6.5594e-05 -4.09625e-06 1.00054e-23)
(6.91746e-05 -3.25627e-07 5.80697e-24)
(6.66555e-05 -3.36491e-06 -1.78912e-23)
(7.03594e-05 3.58858e-07 -3.22964e-24)
(6.77238e-05 -2.58877e-06 -1.96743e-23)
(7.14663e-05 1.06296e-06 1.44696e-23)
(6.88004e-05 -1.79088e-06 -1.47183e-24)
(7.24938e-05 1.76303e-06 -1.36689e-23)
(6.98854e-05 -9.94951e-07 6.10096e-24)
(7.34418e-05 2.43534e-06 4.452e-23)
(7.09782e-05 -2.24761e-07 -2.04712e-23)
(7.43109e-05 3.0567e-06 -1.40164e-24)
(7.2077e-05 4.96371e-07 1.51427e-23)
(7.51029e-05 3.60488e-06 -3.80957e-24)
(7.31793e-05 1.1461e-06 1.35867e-23)
(7.58201e-05 4.05906e-06 -2.982e-24)
(7.42818e-05 1.70346e-06 2.23002e-24)
(7.64657e-05 4.40019e-06 1.29105e-24)
(7.53808e-05 2.14924e-06 2.7912e-24)
(7.70436e-05 4.61126e-06 2.92587e-24)
(7.64716e-05 2.46628e-06 -1.39737e-23)
(7.75581e-05 4.67761e-06 4.16058e-23)
(7.75494e-05 2.63974e-06 7.38711e-24)
(7.80141e-05 4.58713e-06 -3.52915e-23)
(7.86087e-05 2.65733e-06 1.83892e-23)
(7.8417e-05 4.33055e-06 1.34266e-23)
(7.96436e-05 2.50965e-06 -3.13049e-24)
(7.87727e-05 3.90173e-06 -3.27904e-23)
(8.06478e-05 2.19038e-06 -1.1252e-23)
(7.90872e-05 3.29783e-06 -9.97251e-25)
(8.1615e-05 1.69659e-06 1.59398e-23)
(7.93668e-05 2.51955e-06 -4.75186e-23)
(8.25385e-05 1.02885e-06 2.49123e-25)
(7.96177e-05 1.57117e-06 7.83555e-24)
(8.34117e-05 1.91381e-07 2.16993e-23)
(7.98454e-05 4.60447e-07 -1.6415e-23)
(8.42286e-05 -8.0812e-07 -2.21683e-23)
(8.00553e-05 -8.01629e-07 3.18046e-24)
(8.49835e-05 -1.95868e-06 -1.03394e-23)
(8.02515e-05 -2.20125e-06 -1.41891e-23)
(8.56717e-05 -3.24651e-06 1.4331e-23)
(8.04372e-05 -3.72232e-06 -2.50207e-23)
(8.62895e-05 -4.6555e-06 1.06436e-23)
(8.06147e-05 -5.34709e-06 5.33242e-23)
(8.68343e-05 -6.16788e-06 4.12644e-23)
(8.07846e-05 -7.05677e-06 -3.95971e-23)
(8.73047e-05 -7.76484e-06 -2.16888e-23)
(8.09467e-05 -8.83226e-06 -2.28936e-23)
(8.77005e-05 -9.42723e-06 5.50396e-24)
(8.10992e-05 -1.06548e-05 2.87979e-23)
(8.8023e-05 -1.11363e-05 2.79396e-23)
(8.12394e-05 -1.25069e-05 -1.09526e-23)
(8.82749e-05 -1.2874e-05 -2.83196e-23)
(8.13632e-05 -1.4372e-05 -1.71652e-23)
(8.84598e-05 -1.46252e-05 -5.84087e-24)
(8.14687e-05 -1.62363e-05 1.80239e-23)
(8.85864e-05 -1.6376e-05 3.70632e-23)
(8.15478e-05 -1.80784e-05 6.99918e-24)
(8.24688e-05 -1.89815e-05 1.19452e-24)
(8.42635e-05 -1.8984e-05 3.73661e-26)
(8.60361e-05 -1.89879e-05 4.05716e-24)
(8.77949e-05 -1.90094e-05 -8.84227e-25)
(8.86615e-05 -1.81286e-05 -3.56018e-25)
)
;
    }
    frontAndBackPlanes
    {
        type            empty;
    }
}


// ************************************************************************* //
