/*--------------------------------*- C++ -*----------------------------------*\
| =========                 |                                                 |
| \\      /  F ield         | OpenFOAM Extend Project: Open source CFD        |
|  \\    /   O peration     | Version:  1.6-ext                               |
|   \\  /    A nd           | Web:      www.extend-project.de                 |
|    \\/     M anipulation  |                                                 |
\*---------------------------------------------------------------------------*/
FoamFile
{
    version     2.0;
    format      ascii;
    class       volVectorField;
    location    "1.15";
    object      DV_0;
}
// * * * * * * * * * * * * * * * * * * * * * * * * * * * * * * * * * * * * * //

dimensions      [0 1 -1 0 0 0 0];

internalField   nonuniform List<vector> 
328
(
(2.10334e-07 4.07705e-07 0)
(1.25193e-07 8.64611e-08 0)
(1.14105e-07 -6.21724e-08 0)
(1.50412e-07 -3.04043e-07 0)
(6.40473e-07 1.05875e-06 0)
(4.15328e-07 2.7178e-07 0)
(3.76592e-07 -1.62337e-07 0)
(4.5841e-07 -7.67281e-07 0)
(1.13674e-06 1.56685e-06 0)
(8.05664e-07 4.70355e-07 0)
(7.27651e-07 -2.33726e-07 0)
(8.18193e-07 -1.088e-06 0)
(1.67533e-06 1.96129e-06 0)
(1.26236e-06 6.71918e-07 0)
(1.1401e-06 -2.6507e-07 0)
(1.21318e-06 -1.28268e-06 0)
(2.2621e-06 2.27769e-06 0)
(1.79138e-06 8.73244e-07 0)
(1.62018e-06 -2.51789e-07 0)
(1.64982e-06 -1.37488e-06 0)
(2.89348e-06 2.54382e-06 0)
(2.38165e-06 1.07475e-06 0)
(2.15922e-06 -1.91175e-07 0)
(2.1273e-06 -1.38236e-06 0)
(3.57176e-06 2.78276e-06 0)
(3.03156e-06 1.28043e-06 0)
(2.75647e-06 -8.33376e-08 0)
(2.64956e-06 -1.31937e-06 0)
(4.29813e-06 3.0123e-06 0)
(3.73694e-06 1.49596e-06 0)
(3.4089e-06 7.07953e-08 0)
(3.21984e-06 -1.19598e-06 0)
(5.07504e-06 3.24674e-06 0)
(4.49662e-06 1.72799e-06 0)
(4.11614e-06 2.69706e-07 0)
(3.84251e-06 -1.01949e-06 0)
(5.90473e-06 3.4973e-06 0)
(5.30987e-06 1.98323e-06 0)
(4.87834e-06 5.12088e-07 0)
(4.5221e-06 -7.94739e-07 0)
(6.78961e-06 3.77289e-06 0)
(6.17754e-06 2.26788e-06 0)
(5.69718e-06 7.97006e-07 0)
(5.26349e-06 -5.24804e-07 0)
(7.73197e-06 4.08036e-06 0)
(7.10136e-06 2.58723e-06 0)
(6.57536e-06 1.12404e-06 0)
(6.07184e-06 -2.11392e-07 0)
(8.734e-06 4.42475e-06 0)
(8.0841e-06 2.9454e-06 0)
(7.51673e-06 1.49311e-06 0)
(6.95264e-06 1.44671e-07 0)
(9.79787e-06 4.80935e-06 0)
(9.12929e-06 3.34514e-06 0)
(8.526e-06 1.90425e-06 0)
(7.91176e-06 5.42978e-07 0)
(1.09257e-05 5.23569e-06 0)
(1.0241e-05 3.78763e-06 0)
(9.60867e-06 2.35714e-06 0)
(8.95552e-06 9.83001e-07 0)
(1.21198e-05 5.7034e-06 0)
(1.14239e-05 4.2723e-06 0)
(1.07708e-05 2.85057e-06 0)
(1.00908e-05 1.4635e-06 0)
(1.33824e-05 6.20996e-06 0)
(1.26828e-05 4.79647e-06 0)
(1.2019e-05 3.38191e-06 0)
(1.13249e-05 1.9819e-06 0)
(1.4716e-05 6.75038e-06 0)
(1.40229e-05 5.35503e-06 0)
(1.33601e-05 3.94633e-06 0)
(1.26659e-05 2.53356e-06 0)
(1.61235e-05 7.3167e-06 0)
(1.54494e-05 5.93989e-06 0)
(1.48012e-05 4.53624e-06 0)
(1.4122e-05 3.11115e-06 0)
(1.7608e-05 7.89748e-06 0)
(1.69679e-05 6.53945e-06 0)
(1.63497e-05 5.14051e-06 0)
(1.5702e-05 3.70388e-06 0)
(1.91731e-05 8.47721e-06 0)
(1.8584e-05 7.13797e-06 0)
(1.8013e-05 5.74384e-06 0)
(1.74146e-05 4.2969e-06 0)
(2.08231e-05 9.03572e-06 0)
(2.03039e-05 7.71506e-06 0)
(1.97986e-05 6.32619e-06 0)
(1.92687e-05 4.87067e-06 0)
(2.26294e-05 9.56714e-06 0)
(2.22034e-05 8.26522e-06 0)
(2.1787e-05 6.8826e-06 0)
(2.13491e-05 5.4206e-06 0)
(2.45298e-05 1.0008e-05 0)
(2.4219e-05 8.72392e-06 0)
(2.39131e-05 7.34862e-06 0)
(2.3589e-05 5.88342e-06 0)
(2.64022e-05 1.03076e-05 0)
(2.62179e-05 9.03898e-06 0)
(2.60338e-05 7.67176e-06 0)
(2.58349e-05 6.20721e-06 0)
(2.82513e-05 1.04564e-05 0)
(2.8201e-05 9.20108e-06 0)
(2.81463e-05 7.84271e-06 0)
(2.808e-05 6.3826e-06 0)
(3.00819e-05 1.0449e-05 0)
(3.01691e-05 9.20488e-06 0)
(3.02476e-05 7.85616e-06 0)
(3.03176e-05 6.40423e-06 0)
(3.18984e-05 1.02842e-05 0)
(3.21231e-05 9.04908e-06 0)
(3.23347e-05 7.71079e-06 0)
(3.25408e-05 6.27071e-06 0)
(3.37055e-05 9.96449e-06 0)
(3.40638e-05 8.73645e-06 0)
(3.44048e-05 7.40937e-06 0)
(3.47431e-05 5.98466e-06 0)
(3.55072e-05 9.49665e-06 0)
(3.59918e-05 8.2738e-06 0)
(3.6455e-05 6.95868e-06 0)
(3.69182e-05 5.55269e-06 0)
(3.73075e-05 8.89119e-06 0)
(3.79075e-05 7.67186e-06 0)
(3.84826e-05 6.3694e-06 0)
(3.90599e-05 4.98525e-06 0)
(3.91097e-05 8.16225e-06 0)
(3.98115e-05 6.945e-06 0)
(4.04851e-05 5.65591e-06 0)
(4.11629e-05 4.29638e-06 0)
(4.09166e-05 7.32719e-06 0)
(4.17039e-05 6.11089e-06 0)
(4.24602e-05 4.8358e-06 0)
(4.32221e-05 3.50334e-06 0)
(4.27304e-05 6.40604e-06 0)
(4.35846e-05 5.18991e-06 0)
(4.44057e-05 3.92945e-06 0)
(4.52333e-05 2.62607e-06 0)
(4.45523e-05 5.42093e-06 0)
(4.54535e-05 4.20455e-06 0)
(4.63198e-05 2.95931e-06 0)
(4.71931e-05 1.68661e-06 0)
(4.63828e-05 4.3954e-06 0)
(4.73099e-05 3.17875e-06 0)
(4.82011e-05 1.94929e-06 0)
(4.90989e-05 7.08416e-07 0)
(4.82217e-05 3.35374e-06 0)
(4.91531e-05 2.13722e-06 0)
(5.00481e-05 9.24088e-07 0)
(5.09492e-05 -2.84295e-07 0)
(5.00677e-05 2.32033e-06 0)
(5.09821e-05 1.10474e-06 0)
(5.18601e-05 -9.15531e-08 0)
(5.27429e-05 -1.2672e-06 0)
(5.19189e-05 1.31902e-06 0)
(5.27955e-05 1.05538e-07 0)
(5.36364e-05 -1.07341e-06 0)
(5.44802e-05 -2.21651e-06 0)
(5.37726e-05 3.72544e-07 0)
(5.45919e-05 -8.37295e-07 0)
(5.53764e-05 -1.99841e-06 0)
(5.61618e-05 -3.10951e-06 0)
(5.56254e-05 -4.98015e-07 0)
(5.63695e-05 -1.70233e-06 0)
(5.70802e-05 -2.84513e-06 0)
(5.77892e-05 -3.92516e-06 0)
(5.74734e-05 -1.27367e-06 0)
(5.81264e-05 -2.47028e-06 0)
(5.87479e-05 -3.59429e-06 0)
(5.93646e-05 -4.64449e-06 0)
(5.9312e-05 -1.93797e-06 0)
(5.98604e-05 -3.12443e-06 0)
(6.03796e-05 -4.22918e-06 0)
(6.08907e-05 -5.25104e-06 0)
(6.11363e-05 -2.47736e-06 0)
(6.15694e-05 -3.651e-06 0)
(6.19759e-05 -4.73601e-06 0)
(6.23708e-05 -5.73125e-06 0)
(6.29408e-05 -2.8815e-06 0)
(6.32512e-05 -4.03947e-06 0)
(6.35375e-05 -5.10427e-06 0)
(6.38085e-05 -6.07479e-06 0)
(6.47201e-05 -3.14354e-06 0)
(6.49031e-05 -4.28287e-06 0)
(6.5065e-05 -5.32697e-06 0)
(6.52079e-05 -6.27478e-06 0)
(6.64682e-05 -3.26032e-06 0)
(6.65229e-05 -4.37794e-06 0)
(6.65594e-05 -5.40085e-06 0)
(6.6573e-05 -6.32801e-06 0)
(6.81794e-05 -3.23246e-06 0)
(6.81082e-05 -4.32531e-06 0)
(6.80216e-05 -5.32652e-06 0)
(6.79084e-05 -6.23511e-06 0)
(6.98478e-05 -3.06447e-06 0)
(6.96564e-05 -4.12952e-06 0)
(6.94524e-05 -5.10852e-06 0)
(6.92181e-05 -6.00053e-06 0)
(7.14679e-05 -2.76464e-06 0)
(7.11653e-05 -3.79896e-06 0)
(7.08528e-05 -4.75522e-06 0)
(7.05064e-05 -5.63251e-06 0)
(7.30345e-05 -2.34487e-06 0)
(7.26328e-05 -3.34573e-06 0)
(7.22235e-05 -4.27872e-06 0)
(7.17772e-05 -5.14294e-06 0)
(7.45426e-05 -1.82043e-06 0)
(7.40567e-05 -2.78533e-06 0)
(7.35652e-05 -3.69449e-06 0)
(7.30338e-05 -4.54703e-06 0)
(7.59882e-05 -1.20956e-06 0)
(7.54353e-05 -2.13629e-06 0)
(7.48783e-05 -3.02105e-06 0)
(7.42792e-05 -3.863e-06 0)
(7.73676e-05 -5.32982e-07 0)
(7.6767e-05 -1.41967e-06 0)
(7.61633e-05 -2.27947e-06 0)
(7.55156e-05 -3.11154e-06 0)
(7.8678e-05 1.8664e-07 0)
(7.80503e-05 -6.58515e-07 0)
(7.74202e-05 -1.49276e-06 0)
(7.67447e-05 -2.31528e-06 0)
(7.99174e-05 9.25331e-07 0)
(7.92843e-05 1.22813e-07 0)
(7.86487e-05 -6.85301e-07 0)
(7.7967e-05 -1.4982e-06 0)
(8.10846e-05 1.65844e-06 0)
(8.0468e-05 8.99253e-07 0)
(7.98486e-05 1.17861e-07 0)
(7.91827e-05 -6.84938e-07 0)
(8.21791e-05 2.36126e-06 0)
(8.1601e-05 1.64572e-06 0)
(8.1019e-05 8.9163e-07 0)
(8.03908e-05 9.97879e-08 0)
(8.32014e-05 3.00969e-06 0)
(8.2683e-05 2.33772e-06 0)
(8.21592e-05 1.61151e-06 0)
(8.15899e-05 8.31835e-07 0)
(8.41524e-05 3.58076e-06 0)
(8.37138e-05 2.95193e-06 0)
(8.3268e-05 2.25415e-06 0)
(8.27778e-05 1.48818e-06 0)
(8.50339e-05 4.05309e-06 0)
(8.46936e-05 3.46667e-06 0)
(8.4344e-05 2.79785e-06 0)
(8.39515e-05 2.04739e-06 0)
(8.58481e-05 4.40735e-06 0)
(8.56229e-05 3.86232e-06 0)
(8.53859e-05 3.22298e-06 0)
(8.51078e-05 2.49004e-06 0)
(8.65976e-05 4.62653e-06 0)
(8.65021e-05 4.12161e-06 0)
(8.6392e-05 3.51222e-06 0)
(8.62429e-05 2.799e-06 0)
(8.72856e-05 4.69616e-06 0)
(8.73318e-05 4.22988e-06 0)
(8.73607e-05 3.65085e-06 0)
(8.73527e-05 2.95968e-06 0)
(8.79155e-05 4.60448e-06 0)
(8.8113e-05 4.17518e-06 0)
(8.82902e-05 3.6269e-06 0)
(8.84331e-05 2.96018e-06 0)
(8.8491e-05 4.34263e-06 0)
(8.88466e-05 3.94846e-06 0)
(8.91788e-05 3.43124e-06 0)
(8.94793e-05 2.79146e-06 0)
(8.9016e-05 3.9047e-06 0)
(8.95336e-05 3.54369e-06 0)
(9.00247e-05 3.0578e-06 0)
(9.04869e-05 2.44744e-06 0)
(8.94946e-05 3.28793e-06 0)
(9.01752e-05 2.95803e-06 0)
(9.08261e-05 2.50366e-06 0)
(9.14511e-05 1.92519e-06 0)
(8.9931e-05 2.49287e-06 0)
(9.07726e-05 2.19194e-06 0)
(9.15814e-05 1.76925e-06 0)
(9.23671e-05 1.22508e-06 0)
(9.03295e-05 1.52346e-06 0)
(9.13271e-05 1.24942e-06 0)
(9.22889e-05 8.58483e-07 0)
(9.32303e-05 3.50905e-07 0)
(9.06942e-05 3.87148e-07 0)
(9.18398e-05 1.3799e-07 0)
(9.29469e-05 -2.21154e-07 0)
(9.40362e-05 -6.9005e-07 0)
(9.10288e-05 -9.05281e-07 0)
(9.23118e-05 -1.13136e-06 0)
(9.35542e-05 -1.4587e-06 0)
(9.47809e-05 -1.88709e-06 0)
(9.13366e-05 -2.33993e-06 0)
(9.27443e-05 -2.54444e-06 0)
(9.41094e-05 -2.84001e-06 0)
(9.54606e-05 -3.22638e-06 0)
(9.16202e-05 -3.90032e-06 0)
(9.31378e-05 -4.08439e-06 0)
(9.46116e-05 -4.34819e-06 0)
(9.60726e-05 -4.69145e-06 0)
(9.18812e-05 -5.56798e-06 0)
(9.34929e-05 -5.7323e-06 0)
(9.50601e-05 -5.96434e-06 0)
(9.6615e-05 -6.26381e-06 0)
(9.21204e-05 -7.32323e-06 0)
(9.38096e-05 -7.46798e-06 0)
(9.54543e-05 -7.66822e-06 0)
(9.70865e-05 -7.9237e-06 0)
(9.23376e-05 -9.14596e-06 0)
(9.40877e-05 -9.27079e-06 0)
(9.57941e-05 -9.4391e-06 0)
(9.74871e-05 -9.65087e-06 0)
(9.25315e-05 -1.10163e-05 0)
(9.43265e-05 -1.11203e-05 0)
(9.60795e-05 -1.12565e-05 0)
(9.78177e-05 -1.14254e-05 0)
(9.27e-05 -1.29156e-05 0)
(9.45253e-05 -1.29974e-05 0)
(9.63111e-05 -1.31011e-05 0)
(9.80805e-05 -1.32281e-05 0)
(9.28394e-05 -1.48264e-05 0)
(9.4682e-05 -1.48843e-05 0)
(9.64889e-05 -1.49556e-05 0)
(9.82779e-05 -1.50426e-05 0)
(9.29475e-05 -1.6734e-05 0)
(9.4797e-05 -1.67665e-05 0)
(9.66157e-05 -1.68063e-05 0)
(9.84159e-05 -1.68557e-05 0)
(9.3016e-05 -1.86194e-05 0)
(9.48658e-05 -1.86303e-05 0)
(9.66892e-05 -1.86449e-05 0)
(9.84943e-05 -1.86668e-05 0)
)
;

boundaryField
{
    plateFix
    {
        type            calculated;
        value           uniform (0 0 0);
    }
    plate
    {
        type            calculated;
        value           nonuniform List<vector> 
168
(
(2.01413e-06 1.10354e-06 -2.81343e-23)
(1.47082e-06 -8.01062e-07 -7.37842e-24)
(1.99645e-06 1.77599e-06 -4.61233e-23)
(1.37918e-06 -1.28363e-06 1.25492e-23)
(2.12104e-06 2.3146e-06 -1.04275e-22)
(1.38407e-06 -1.63303e-06 -2.16173e-23)
(2.39756e-06 2.71938e-06 -3.07128e-23)
(1.50828e-06 -1.8427e-06 1.10763e-22)
(2.8133e-06 3.04296e-06 1.78517e-22)
(1.74746e-06 -1.94907e-06 -1.46911e-22)
(3.33838e-06 3.31098e-06 -4.13815e-23)
(2.0812e-06 -1.96797e-06 1.6051e-23)
(3.95589e-06 3.55e-06 -1.46143e-24)
(2.49887e-06 -1.91618e-06 3.42885e-23)
(4.65232e-06 3.77796e-06 8.91755e-25)
(2.99233e-06 -1.80367e-06 -7.77915e-23)
(5.41985e-06 4.00978e-06 -1.23251e-23)
(3.55805e-06 -1.63809e-06 5.21425e-23)
(6.25325e-06 4.25666e-06 2.21026e-23)
(4.19476e-06 -1.42418e-06 2.83941e-23)
(7.14956e-06 4.52753e-06 -3.25626e-24)
(4.90343e-06 -1.16495e-06 2.56597e-23)
(8.1071e-06 4.82921e-06 1.15985e-23)
(5.6865e-06 -8.62022e-07 -2.12698e-23)
(9.12513e-06 5.16673e-06 -2.87571e-23)
(6.5478e-06 -5.16192e-07 -1.69171e-23)
(1.02035e-05 5.54344e-06 1.18446e-23)
(7.49232e-06 -1.27856e-07 4.31629e-23)
(1.13427e-05 5.96094e-06 1.19971e-23)
(8.52618e-06 3.02441e-07 -5.31061e-23)
(1.25435e-05 6.41899e-06 -1.64036e-23)
(9.65651e-06 7.73448e-07 1.78565e-24)
(1.38069e-05 6.9152e-06 -8.99799e-24)
(1.08913e-05 1.28259e-06 -1.13342e-24)
(1.51345e-05 7.44475e-06 4.06506e-24)
(1.22394e-05 1.82529e-06 3.6768e-23)
(1.65278e-05 7.99984e-06 -3.84565e-25)
(1.37101e-05 2.3943e-06 -3.93112e-23)
(1.79893e-05 8.56921e-06 -1.62977e-23)
(1.53131e-05 2.97901e-06 -2.14262e-23)
(1.95217e-05 9.13755e-06 -1.55078e-23)
(1.70582e-05 3.56479e-06 8.75919e-24)
(2.11286e-05 9.68487e-06 2.96313e-24)
(1.89548e-05 4.13234e-06 4.2124e-23)
(2.28787e-05 1.02052e-05 9.63231e-24)
(2.10907e-05 4.67737e-06 1.69827e-23)
(2.47119e-05 1.06358e-05 1.36194e-23)
(2.33971e-05 5.13721e-06 -8.38788e-24)
(2.65113e-05 1.09265e-05 2.04622e-23)
(2.57151e-05 5.46036e-06 5.55041e-24)
(2.82837e-05 1.1068e-05 -2.56669e-23)
(2.8036e-05 5.63742e-06 5.06713e-23)
(3.00359e-05 1.10549e-05 -2.65384e-23)
(3.03509e-05 5.663e-06 -9.31031e-24)
(3.17744e-05 1.08857e-05 -2.02021e-23)
(3.26512e-05 5.53567e-06 6.49782e-24)
(3.35057e-05 1.05631e-05 -8.09997e-24)
(3.49283e-05 5.25799e-06 6.94403e-24)
(3.52361e-05 1.00937e-05 6.22274e-23)
(3.71738e-05 4.83643e-06 2.73735e-23)
(3.69711e-05 9.48786e-06 7.64024e-24)
(3.93798e-05 4.28131e-06 -3.25067e-23)
(3.87159e-05 8.75956e-06 -1.662e-23)
(4.15392e-05 3.60648e-06 3.61511e-23)
(4.04747e-05 7.92598e-06 1.72407e-23)
(4.36455e-05 2.82896e-06 -2.31837e-24)
(4.22509e-05 7.00691e-06 -2.52712e-24)
(4.56933e-05 1.96843e-06 3.28639e-25)
(4.40467e-05 6.02424e-06 1.72661e-23)
(4.76783e-05 1.04664e-06 -1.16596e-23)
(4.5863e-05 5.00124e-06 1.65893e-23)
(4.95975e-05 8.67595e-08 3.36607e-23)
(4.76998e-05 3.96193e-06 1.01335e-23)
(5.14489e-05 -8.87286e-07 -5.91679e-24)
(4.95558e-05 2.93044e-06 1.17057e-23)
(5.32318e-05 -1.85146e-06 -1.17232e-23)
(5.14286e-05 1.93035e-06 1.28767e-23)
(5.49466e-05 -2.78223e-06 -9.62694e-25)
(5.33149e-05 9.84163e-07 -1.3473e-24)
(5.65948e-05 -3.65716e-06 8.62229e-24)
(5.52103e-05 1.12756e-07 4.75988e-24)
(5.81789e-05 -4.4554e-06 -3.56738e-24)
(5.71098e-05 -6.65085e-07 -7.21071e-24)
(5.9702e-05 -5.15818e-06 2.86381e-25)
(5.90073e-05 -1.33308e-06 -1.5052e-23)
(6.11684e-05 -5.74924e-06 -2.6319e-23)
(6.08965e-05 -1.87782e-06 1.97095e-23)
(6.25828e-05 -6.21515e-06 1.73613e-23)
(6.27703e-05 -2.28908e-06 7.9081e-24)
(6.39505e-05 -6.54568e-06 -4.58047e-24)
(6.46214e-05 -2.5601e-06 -1.07274e-23)
(6.52773e-05 -6.73403e-06 1.1171e-23)
(6.64419e-05 -2.68776e-06 -1.39561e-23)
(6.65694e-05 -6.77705e-06 2.19917e-23)
(6.82243e-05 -2.67271e-06 9.27242e-25)
(6.78328e-05 -6.67535e-06 6.11827e-24)
(6.99608e-05 -2.51941e-06 4.51089e-24)
(6.90739e-05 -6.43334e-06 -7.46745e-24)
(7.16439e-05 -2.23609e-06 9.10016e-24)
(7.02986e-05 -6.05919e-06 2.54168e-23)
(7.32667e-05 -1.83453e-06 -4.94212e-24)
(7.15125e-05 -5.56463e-06 -1.02955e-23)
(7.48228e-05 -1.32986e-06 5.5988e-25)
(7.27206e-05 -4.96473e-06 -3.42743e-24)
(7.63066e-05 -7.40109e-07 7.46467e-25)
(7.39272e-05 -4.27748e-06 -8.46757e-24)
(7.77134e-05 -8.57863e-08 7.84124e-25)
(7.51356e-05 -3.52334e-06 -3.11394e-24)
(7.90396e-05 6.10697e-07 2.45676e-23)
(7.63483e-05 -2.72471e-06 2.2901e-23)
(8.02826e-05 1.32562e-06 -2.20625e-23)
(7.75664e-05 -1.90527e-06 -3.58878e-24)
(8.14411e-05 2.0346e-06 -8.31992e-24)
(7.87902e-05 -1.08943e-06 -2.15289e-23)
(8.25148e-05 2.71319e-06 -3.72628e-23)
(8.00186e-05 -3.01641e-07 1.47931e-23)
(8.35045e-05 3.33753e-06 8.90733e-24)
(8.12498e-05 4.34188e-07 1.89827e-24)
(8.44118e-05 3.88486e-06 -1.55692e-23)
(8.24808e-05 1.09523e-06 -8.47266e-24)
(8.52395e-05 4.33403e-06 5.25286e-24)
(8.37078e-05 1.66025e-06 -2.52138e-24)
(8.59907e-05 4.66586e-06 -7.25872e-24)
(8.49265e-05 2.10994e-06 2.47873e-23)
(8.66695e-05 4.8635e-06 2.34972e-23)
(8.6132e-05 2.42729e-06 -2.18605e-23)
(8.72802e-05 4.9126e-06 -5.7391e-23)
(8.73188e-05 2.59781e-06 9.25811e-24)
(8.78276e-05 4.80153e-06 3.23429e-23)
(8.84812e-05 2.60964e-06 -2.89602e-23)
(8.83168e-05 4.52151e-06 -4.89354e-23)
(8.96134e-05 2.45379e-06 1.40799e-23)
(8.87534e-05 4.06671e-06 2.51656e-23)
(9.07091e-05 2.12421e-06 -8.16863e-24)
(8.91431e-05 3.43444e-06 9.75107e-25)
(9.1762e-05 1.61798e-06 -1.5706e-23)
(8.94916e-05 2.62527e-06 2.39338e-23)
(9.27657e-05 9.35427e-07 -4.59279e-24)
(8.98051e-05 1.64315e-06 1.317e-23)
(9.37138e-05 8.02925e-08 -2.12383e-23)
(9.00893e-05 4.95443e-07 2.0722e-23)
(9.46002e-05 -9.40245e-07 1.35288e-23)
(9.03496e-05 -8.07189e-07 -2.79025e-23)
(9.54191e-05 -2.11565e-06 -8.63887e-24)
(9.05906e-05 -2.25104e-06 -7.20352e-25)
(9.61655e-05 -3.43232e-06 -4.16833e-25)
(9.08161e-05 -3.81987e-06 3.03756e-23)
(9.68355e-05 -4.87403e-06 9.71745e-24)
(9.10286e-05 -5.49552e-06 -7.18612e-24)
(9.74263e-05 -6.42258e-06 -3.60248e-23)
(9.12292e-05 -7.25861e-06 2.99616e-23)
(9.79362e-05 -8.05855e-06 3.13908e-23)
(9.14177e-05 -9.08937e-06 1.71419e-23)
(9.83652e-05 -9.76197e-06 2.71242e-23)
(9.15926e-05 -1.09683e-05 1.61879e-23)
(9.87145e-05 -1.15133e-05 -2.86869e-23)
(9.17512e-05 -1.2877e-05 -2.8832e-23)
(9.89871e-05 -1.32936e-05 2.74233e-23)
(9.18888e-05 -1.47981e-05 5.30438e-24)
(9.91868e-05 -1.50872e-05 3.4746e-23)
(9.20035e-05 -1.67179e-05 -6.25409e-24)
(9.93237e-05 -1.68801e-05 1.15264e-23)
(9.2086e-05 -1.8615e-05 4.89418e-23)
(9.30354e-05 -1.95462e-05 3.06209e-24)
(9.48863e-05 -1.95496e-05 -1.5372e-24)
(9.67113e-05 -1.95537e-05 -2.35675e-24)
(9.85166e-05 -1.95758e-05 5.63895e-25)
(9.94035e-05 -1.86752e-05 3.31334e-25)
)
;
    }
    frontAndBackPlanes
    {
        type            empty;
    }
}


// ************************************************************************* //
