/*--------------------------------*- C++ -*----------------------------------*\
| =========                 |                                                 |
| \\      /  F ield         | OpenFOAM Extend Project: Open source CFD        |
|  \\    /   O peration     | Version:  1.6-ext                               |
|   \\  /    A nd           | Web:      www.extend-project.de                 |
|    \\/     M anipulation  |                                                 |
\*---------------------------------------------------------------------------*/
FoamFile
{
    version     2.0;
    format      ascii;
    class       surfaceScalarField;
    location    "1.15";
    object      meshPhi;
}
// * * * * * * * * * * * * * * * * * * * * * * * * * * * * * * * * * * * * * //

dimensions      [0 3 -1 0 0 0 0];

internalField   nonuniform List<scalar> 
570
(
4.02441e-11
1.01925e-09
3.40957e-12
2.70979e-10
-3.26543e-11
2.64971e-10
9.00633e-10
1.22706e-10
1.20158e-09
1.15423e-11
6.00485e-10
-9.75212e-11
5.88453e-10
1.06945e-09
2.02154e-10
1.47554e-09
2.20732e-11
9.9846e-10
-1.55247e-10
9.8073e-10
1.32934e-09
2.77596e-10
1.83703e-09
3.53911e-11
1.45374e-09
-2.04024e-10
1.43117e-09
1.67828e-09
3.49663e-10
2.27742e-09
5.1891e-11
1.96549e-09
-2.43632e-10
1.93936e-09
2.10942e-09
4.19533e-10
2.78532e-09
7.19895e-11
2.5295e-09
-2.74381e-10
2.50162e-09
2.61313e-09
4.88543e-10
3.35412e-09
9.61027e-11
3.14451e-09
-2.9676e-10
3.11718e-09
3.18456e-09
5.58106e-10
3.97911e-09
1.24607e-10
3.8093e-09
-3.11436e-10
3.78544e-09
3.82087e-09
6.29583e-10
4.65783e-09
1.5778e-10
4.52399e-09
-3.19243e-10
4.50715e-09
4.52166e-09
7.0416e-10
5.3891e-09
1.95711e-10
5.28938e-09
-3.21238e-10
5.28387e-09
5.28801e-09
7.82665e-10
6.1728e-09
2.38171e-10
6.10721e-09
-3.18774e-10
6.11815e-09
6.12235e-09
8.65335e-10
7.00952e-09
2.84428e-10
6.97988e-09
-3.13632e-10
7.01335e-09
7.02815e-09
9.51514e-10
7.90041e-09
3.32988e-10
7.91045e-09
-3.08242e-10
7.97363e-09
8.00984e-09
1.03927e-09
8.84705e-09
3.8123e-10
8.90249e-09
-3.06014e-10
9.00378e-09
9.07266e-09
1.12487e-09
9.85134e-09
4.24912e-10
9.96001e-09
-3.11828e-10
1.01092e-08
1.02227e-08
1.20213e-09
1.09154e-08
4.57485e-10
1.10873e-08
-3.32722e-10
1.12956e-08
1.14667e-08
1.26151e-09
1.20416e-08
4.69171e-10
1.22889e-08
-3.78835e-10
1.25693e-08
1.28121e-08
1.28889e-09
1.32324e-08
4.45726e-10
1.35694e-08
-4.64676e-10
1.39369e-08
1.4267e-08
1.26397e-09
1.44902e-08
3.66788e-10
1.49337e-08
-6.10802e-10
1.54051e-08
1.584e-08
1.15811e-09
1.58175e-08
2.03689e-10
1.63866e-08
-8.46028e-10
1.69812e-08
1.75404e-08
9.31491e-10
1.72168e-08
-8.3404e-11
1.79332e-08
-1.2103e-09
1.86723e-08
1.93776e-08
5.2936e-10
1.86901e-08
-5.49229e-10
1.95784e-08
-1.75844e-09
2.0486e-08
2.13622e-08
-1.67131e-10
2.03555e-08
-1.39656e-09
2.14556e-08
-2.78875e-09
2.2573e-08
2.36597e-08
-1.20577e-09
2.19859e-08
-2.42175e-09
2.33142e-08
-3.81249e-09
2.46566e-08
2.59701e-08
-2.48045e-09
2.3584e-08
-3.68298e-09
2.51539e-08
-5.07095e-09
2.67349e-08
2.82889e-08
-4.00481e-09
2.51511e-08
-5.19387e-09
2.69746e-08
-6.57775e-09
2.88062e-08
3.06125e-08
-5.79081e-09
2.66887e-08
-6.96636e-09
2.87761e-08
-8.34485e-09
3.08685e-08
3.29375e-08
-7.84869e-09
2.81982e-08
-9.01068e-09
3.05582e-08
-1.03825e-08
3.29202e-08
3.52605e-08
-1.0187e-08
2.96812e-08
-1.13353e-08
3.23207e-08
-1.26992e-08
3.49594e-08
3.7578e-08
-1.28124e-08
3.11388e-08
-1.39471e-08
3.40634e-08
-1.53017e-08
3.69843e-08
3.98868e-08
-1.57302e-08
3.25725e-08
-1.68511e-08
3.57861e-08
-1.81953e-08
3.89934e-08
4.21837e-08
-1.89439e-08
3.39832e-08
-2.00509e-08
3.74885e-08
-2.13836e-08
4.0985e-08
4.44656e-08
-2.24555e-08
3.5372e-08
-2.35486e-08
3.91703e-08
-2.48685e-08
4.29574e-08
4.67298e-08
-2.62659e-08
3.67396e-08
-2.73448e-08
4.08311e-08
-2.8651e-08
4.49093e-08
4.89736e-08
-3.03747e-08
3.80866e-08
-3.14391e-08
4.24705e-08
-3.27306e-08
4.68392e-08
5.11947e-08
-3.47804e-08
3.94133e-08
-3.58301e-08
4.4088e-08
-3.71059e-08
4.87459e-08
5.3391e-08
-3.94807e-08
4.07199e-08
-4.05155e-08
4.56831e-08
-4.17748e-08
5.06281e-08
5.55605e-08
-4.44729e-08
4.20062e-08
-4.54923e-08
4.72551e-08
-4.67343e-08
5.24846e-08
5.77016e-08
-4.97535e-08
4.3272e-08
-5.07571e-08
4.88036e-08
-5.19811e-08
5.43145e-08
5.98128e-08
-5.53188e-08
4.4517e-08
-5.63062e-08
5.03277e-08
-5.75115e-08
5.61168e-08
6.1893e-08
-6.11648e-08
4.57406e-08
-6.21356e-08
5.18267e-08
-6.33216e-08
5.78905e-08
6.3941e-08
-6.72876e-08
4.6942e-08
-6.82412e-08
5.32999e-08
-6.94073e-08
5.96348e-08
6.59559e-08
-7.3683e-08
4.81205e-08
-7.4619e-08
5.47465e-08
-7.57647e-08
6.1349e-08
6.7937e-08
-8.03472e-08
4.92753e-08
-8.1265e-08
5.61657e-08
-8.23897e-08
6.30322e-08
6.98835e-08
-8.72763e-08
5.04053e-08
-8.81753e-08
5.75567e-08
-8.92787e-08
6.46837e-08
7.17949e-08
-9.44666e-08
5.15098e-08
-9.53464e-08
5.89187e-08
-9.64279e-08
6.63029e-08
7.36706e-08
-1.01915e-07
5.25876e-08
-1.02775e-07
6.0251e-08
-1.03834e-07
6.78892e-08
7.55102e-08
-1.09617e-07
5.36379e-08
-1.10457e-07
6.15526e-08
-1.11494e-07
6.94418e-08
7.73131e-08
-1.17572e-07
5.46598e-08
-1.18391e-07
6.2823e-08
-1.19404e-07
7.09601e-08
7.90789e-08
-1.25775e-07
5.56525e-08
-1.26573e-07
6.40613e-08
-1.27563e-07
7.24435e-08
8.0807e-08
-1.34225e-07
5.66152e-08
-1.35001e-07
6.52669e-08
-1.35967e-07
7.38914e-08
8.24967e-08
-1.42918e-07
5.75474e-08
-1.43672e-07
6.64391e-08
-1.44613e-07
7.5303e-08
8.41475e-08
-1.51853e-07
5.84485e-08
-1.52584e-07
6.75773e-08
-1.53501e-07
7.66777e-08
8.57584e-08
-1.61026e-07
5.93181e-08
-1.61734e-07
6.86811e-08
-1.62626e-07
7.80147e-08
8.73287e-08
-1.70435e-07
6.01562e-08
-1.71121e-07
6.975e-08
-1.71986e-07
7.93134e-08
8.88573e-08
-1.80078e-07
6.09625e-08
-1.8074e-07
7.07835e-08
-1.81579e-07
8.05729e-08
9.03431e-08
-1.8995e-07
6.17373e-08
-1.90588e-07
7.17812e-08
-1.914e-07
8.17924e-08
9.17848e-08
-2.00048e-07
6.24808e-08
-2.00662e-07
7.27429e-08
-2.01447e-07
8.29711e-08
9.3181e-08
-2.10367e-07
6.31933e-08
-2.10958e-07
7.36684e-08
-2.11714e-07
8.41082e-08
9.45304e-08
-2.20902e-07
6.38752e-08
-2.21469e-07
7.45574e-08
-2.22197e-07
8.52029e-08
9.58314e-08
-2.31648e-07
6.45271e-08
-2.32191e-07
7.54097e-08
-2.32889e-07
8.62543e-08
9.70825e-08
-2.42598e-07
6.51496e-08
-2.43117e-07
7.62253e-08
-2.43785e-07
8.72616e-08
9.82822e-08
-2.53745e-07
6.57433e-08
-2.54239e-07
7.7004e-08
-2.54877e-07
8.82239e-08
9.94289e-08
-2.6508e-07
6.63088e-08
-2.6555e-07
7.77457e-08
-2.66157e-07
8.91405e-08
1.00521e-07
-2.76594e-07
6.68467e-08
-2.7704e-07
7.84503e-08
-2.77615e-07
9.00107e-08
1.01558e-07
-2.88279e-07
6.73575e-08
-2.887e-07
7.91178e-08
-2.89243e-07
9.08338e-08
1.02537e-07
-3.00122e-07
6.78417e-08
-3.0052e-07
7.97481e-08
-3.0103e-07
9.1609e-08
1.03458e-07
-3.12115e-07
6.82999e-08
-3.12488e-07
8.0341e-08
-3.12965e-07
9.23359e-08
1.04319e-07
-3.24244e-07
6.87323e-08
-3.24592e-07
8.08966e-08
-3.25037e-07
9.30139e-08
1.0512e-07
-3.36498e-07
6.91393e-08
-3.36822e-07
8.14147e-08
-3.37233e-07
9.36425e-08
1.05859e-07
-3.48864e-07
6.95209e-08
-3.49164e-07
8.18951e-08
-3.49541e-07
9.42214e-08
1.06536e-07
-3.6133e-07
6.98772e-08
-3.61605e-07
8.23377e-08
-3.61948e-07
9.47502e-08
1.07151e-07
-3.73882e-07
7.02079e-08
-3.74132e-07
8.27423e-08
-3.7444e-07
9.52288e-08
1.07703e-07
-3.86506e-07
7.05124e-08
-3.86732e-07
8.31085e-08
-3.87006e-07
9.56571e-08
1.08193e-07
-3.99191e-07
7.07901e-08
-3.99391e-07
8.3436e-08
-3.99631e-07
9.60352e-08
1.0862e-07
-4.11923e-07
7.10398e-08
-4.12097e-07
8.37243e-08
-4.12303e-07
9.63633e-08
1.08987e-07
-4.24689e-07
7.12601e-08
-4.24837e-07
8.39728e-08
-4.2501e-07
9.66415e-08
1.09293e-07
-4.37479e-07
7.14493e-08
-4.376e-07
8.4181e-08
-4.3774e-07
9.68707e-08
1.0954e-07
-4.50281e-07
7.16049e-08
-4.50375e-07
8.43478e-08
-4.50482e-07
9.7051e-08
1.09731e-07
-4.63087e-07
7.17248e-08
-4.63154e-07
8.44732e-08
-4.63228e-07
9.71843e-08
1.09869e-07
-4.7589e-07
7.18026e-08
-4.75928e-07
8.45537e-08
-4.75971e-07
9.72688e-08
1.09953e-07
-4.88687e-07
-4.88693e-07
-4.88703e-07
)
;

boundaryField
{
    plateFix
    {
        type            calculated;
        value           nonuniform List<scalar> 4(-7.9305e-10 1.85353e-14 -3.43915e-14 -6.89429e-10);
    }
    plate
    {
        type            calculated;
        value           nonuniform List<scalar> 
168
(
-1.81339e-10
-1.65615e-10
-3.2017e-10
-2.85706e-10
-4.50336e-10
-3.94072e-10
-5.68838e-10
-4.8683e-10
-6.78034e-10
-5.65488e-10
-7.81588e-10
-6.32838e-10
-8.82438e-10
-6.91005e-10
-9.83264e-10
-7.41987e-10
-1.08623e-09
-7.87524e-10
-1.19306e-09
-8.29345e-10
-1.30491e-09
-8.69295e-10
-1.42222e-09
-9.09563e-10
-1.54448e-09
-9.52941e-10
-1.66985e-09
-1.00319e-09
-1.79469e-09
-1.06554e-09
-1.91288e-09
-1.14738e-09
-2.01494e-09
-1.25921e-09
-2.08679e-09
-1.41589e-09
-2.10816e-09
-1.63832e-09
-2.05045e-09
-1.9556e-09
-1.87384e-09
-2.40796e-09
-1.52355e-09
-3.05041e-09
-9.57412e-10
-4.28417e-09
1.02116e-10
-5.31404e-09
1.39702e-09
-6.57654e-09
2.94084e-09
-8.08524e-09
4.74552e-09
-9.85211e-09
6.82131e-09
-1.18874e-08
9.17676e-09
-1.41997e-08
1.18187e-08
-1.67959e-08
1.47523e-08
-1.96812e-08
1.79813e-08
-2.28592e-08
2.15077e-08
-2.63323e-08
2.53326e-08
-3.01012e-08
2.94555e-08
-3.41659e-08
3.38752e-08
-3.85249e-08
3.85896e-08
-4.31763e-08
4.35959e-08
-4.81172e-08
4.88907e-08
-5.33445e-08
5.44706e-08
-5.88546e-08
6.03316e-08
-6.46437e-08
6.64697e-08
-7.07078e-08
7.2881e-08
-7.7043e-08
7.95616e-08
-8.36454e-08
8.65077e-08
-9.05113e-08
9.37156e-08
-9.7637e-08
1.01182e-07
-1.05019e-07
1.08903e-07
-1.12655e-07
1.16877e-07
-1.20541e-07
1.251e-07
-1.28674e-07
1.3357e-07
-1.37053e-07
1.42284e-07
-1.45674e-07
1.5124e-07
-1.54535e-07
1.60434e-07
-1.63633e-07
1.69865e-07
-1.72965e-07
1.79529e-07
-1.8253e-07
1.89422e-07
-1.92322e-07
1.99542e-07
-2.02339e-07
2.09882e-07
-2.12575e-07
2.20439e-07
-2.23026e-07
2.31206e-07
-2.33686e-07
2.42176e-07
-2.44549e-07
2.53343e-07
-2.55606e-07
2.64697e-07
-2.6685e-07
2.76231e-07
-2.78273e-07
2.87935e-07
-2.89864e-07
2.99798e-07
-3.01613e-07
3.11809e-07
-3.13509e-07
3.23956e-07
-3.25542e-07
3.36229e-07
-3.37698e-07
3.48614e-07
-3.49966e-07
3.61098e-07
-3.62333e-07
3.73668e-07
-3.74786e-07
3.86312e-07
-3.87311e-07
3.99017e-07
-3.99897e-07
4.11769e-07
-4.12529e-07
4.24556e-07
-4.25197e-07
4.37368e-07
-4.37889e-07
4.50194e-07
-4.50595e-07
4.63026e-07
-4.63306e-07
4.75857e-07
-4.76016e-07
4.88678e-07
7.18418e-08
8.45945e-08
9.73113e-08
1.09995e-07
-4.8872e-07
)
;
    }
    frontAndBackPlanes
    {
        type            empty;
    }
}


// ************************************************************************* //
