/*--------------------------------*- C++ -*----------------------------------*\
| =========                 |                                                 |
| \\      /  F ield         | OpenFOAM Extend Project: Open source CFD        |
|  \\    /   O peration     | Version:  1.6-ext                               |
|   \\  /    A nd           | Web:      www.extend-project.de                 |
|    \\/     M anipulation  |                                                 |
\*---------------------------------------------------------------------------*/
FoamFile
{
    version     2.0;
    format      ascii;
    class       volScalarField;
    location    "1.15";
    object      sigmaEq;
}
// * * * * * * * * * * * * * * * * * * * * * * * * * * * * * * * * * * * * * //

dimensions      [1 -1 -2 0 0 0 0];

internalField   nonuniform List<scalar> 
328
(
3.13159
0.927109
1.0361
4.29062
3.35921
0.859367
1.49777
4.54856
3.57236
0.933721
1.9239
4.84352
3.66459
0.986801
2.17049
4.98934
3.70779
1.01433
2.32269
5.07738
3.70568
1.01343
2.39647
5.10442
3.68036
0.998403
2.42702
5.10006
3.63948
0.976169
2.42862
5.07357
3.59007
0.952046
2.41423
5.03438
3.53524
0.928158
2.39028
4.98636
3.47686
0.905315
2.36123
4.93187
3.41562
0.883403
2.32932
4.87178
3.35174
0.862014
2.29582
4.80638
3.28509
0.840675
2.2612
4.73566
3.21543
0.818999
2.22551
4.65947
3.14246
0.796719
2.18854
4.57763
3.0659
0.773674
2.14994
4.48992
2.98548
0.749788
2.10932
4.39609
2.90098
0.725043
2.06628
4.2959
2.8122
0.699433
2.02046
4.18909
2.71913
0.67303
1.97157
4.07546
2.62143
0.645756
1.91929
3.95462
2.51569
0.615881
1.8611
3.82208
2.40597
0.587529
1.79948
3.68177
2.29865
0.560822
1.73806
3.54258
2.19392
0.535519
1.67668
3.40459
2.09162
0.5115
1.61536
3.26779
1.99181
0.488719
1.55412
3.13227
1.89453
0.467119
1.49303
2.99813
1.79981
0.446647
1.43212
2.86545
1.70771
0.427246
1.37145
2.73435
1.61829
0.408855
1.31108
2.60495
1.53161
0.391413
1.25106
2.47737
1.44773
0.374854
1.19147
2.35174
1.36674
0.359114
1.13237
2.22821
1.2887
0.34413
1.07383
2.10693
1.21367
0.329841
1.01594
1.98805
1.14173
0.316192
0.958775
1.87172
1.07292
0.303132
0.902423
1.75811
1.0073
0.290621
0.846972
1.64735
0.9449
0.278627
0.792512
1.5396
0.88574
0.267131
0.739133
1.43499
0.829829
0.256123
0.686928
1.33367
0.777159
0.245609
0.635988
1.23575
0.727707
0.235606
0.586402
1.14135
0.681429
0.226143
0.538259
1.05055
0.638268
0.217259
0.491645
0.963434
0.598146
0.209001
0.446645
0.880075
0.560971
0.201421
0.403339
0.800517
0.526634
0.19457
0.361808
0.724793
0.495013
0.188493
0.32213
0.652918
0.465973
0.183223
0.284383
0.584889
0.439366
0.178777
0.248654
0.520692
0.415036
0.175149
0.215037
0.460293
0.392819
0.172306
0.18365
0.403649
0.372545
0.170191
0.15465
0.350704
0.354041
0.168719
0.128272
0.301392
0.33713
0.167785
0.104883
0.25564
0.321639
0.167268
0.0850872
0.213373
0.307392
0.167035
0.0698362
0.174516
0.294219
0.16695
0.0603411
0.139006
0.281952
0.166876
0.0573165
0.106813
0.270431
0.166682
0.0599007
0.0779901
0.259502
0.166246
0.0659822
0.0528484
0.249016
0.165453
0.0735577
0.0326601
0.238833
0.1642
0.0813183
0.0223639
0.228822
0.162394
0.0885238
0.0274625
0.21886
0.159953
0.0947712
0.0393455
0.208834
0.156803
0.0998432
0.0515121
0.198641
0.152882
0.103624
0.0623596
0.188196
0.148134
0.106052
0.0715028
0.177429
0.142509
0.107094
0.0788604
0.166301
0.135966
0.106728
0.0844453
0.154803
0.128452
0.104918
0.0882965
0.142991
0.119907
0.101616
0.0904849
0.130969
0.110171
0.0966647
0.0910766
0.119094
0.0990683
0.0899162
0.090343
0.107689
0.0859163
0.0807351
0.0884645
0.0983383
0.0709233
0.0693918
0.0868107
0.0904804
0.053235
0.0547988
0.0844311
0.0884308
0.0443533
0.0463468
0.0851831
0.0816924
0.0580199
0.0567328
0.0787412
)
;

boundaryField
{
    plateFix
    {
        type            calculated;
        value           nonuniform List<scalar> 4(3.15766 1.20881 1.13562 4.44278);
    }
    plate
    {
        type            calculated;
        value           nonuniform List<scalar> 
168
(
3.47531
4.68138
3.63922
4.89669
3.80914
5.1442
3.86639
5.23484
3.89055
5.28757
3.87777
5.29254
3.84731
5.27676
3.80375
5.24463
3.7527
5.20296
3.6964
5.15374
3.63639
5.0984
3.57322
5.03729
3.50709
4.97051
3.4379
4.89797
3.36543
4.81954
3.2894
4.73505
3.20955
4.64432
3.1256
4.54715
3.03735
4.44333
2.94459
4.3326
2.8473
4.21479
2.74513
4.08947
2.63461
3.9522
2.51984
3.80689
2.40745
3.66268
2.29771
3.51973
2.19047
3.37805
2.08581
3.23773
1.98375
3.09885
1.88434
2.96153
1.78764
2.82587
1.69371
2.692
1.60262
2.56004
1.51445
2.43014
1.42929
2.30244
1.34719
2.17709
1.26824
2.05426
1.19252
1.9341
1.12008
1.81676
1.05097
1.70242
0.985251
1.5912
0.922936
1.48327
0.864041
1.37875
0.808563
1.27777
0.75648
1.18044
0.707751
1.08685
0.662316
0.997087
0.620097
0.911208
0.580997
0.829264
0.544903
0.751281
0.511685
0.677272
0.481198
0.607231
0.453286
0.541134
0.427782
0.478946
0.40451
0.420614
0.38329
0.366073
0.363936
0.315249
0.346263
0.268057
0.330085
0.224406
0.315221
0.184203
0.301491
0.147352
0.288725
0.113767
0.276756
0.0833918
0.265427
0.0562566
0.254589
0.0327738
0.244102
0.0159834
0.233835
0.0187032
0.223669
0.0325486
0.213493
0.0462773
0.203214
0.0583311
0.192754
0.068492
0.182057
0.0767671
0.171096
0.0832221
0.159881
0.0879341
0.148489
0.091005
0.137037
0.0925238
0.12587
0.0927528
0.115218
0.0918069
0.106423
0.0908902
0.0990628
0.089506
0.100294
0.094788
0.10494
0.0675435
0.0581001
0.056141
0.0642528
0.101419
)
;
    }
    frontAndBackPlanes
    {
        type            empty;
    }
}


// ************************************************************************* //
