/*--------------------------------*- C++ -*----------------------------------*\
| =========                 |                                                 |
| \\      /  F ield         | OpenFOAM Extend Project: Open source CFD        |
|  \\    /   O peration     | Version:  1.6-ext                               |
|   \\  /    A nd           | Web:      www.extend-project.de                 |
|    \\/     M anipulation  |                                                 |
\*---------------------------------------------------------------------------*/
FoamFile
{
    version     2.0;
    format      ascii;
    class       volSymmTensorField;
    location    "1.15";
    object      sigma;
}
// * * * * * * * * * * * * * * * * * * * * * * * * * * * * * * * * * * * * * //

dimensions      [1 -1 -2 0 0 0 0];

internalField   nonuniform List<symmTensor> 
328
(
(5.62937 0.433051 -6.70608e-22 2.23877 9.77634e-20 3.14531)
(1.21539 -0.418147 2.74538e-24 0.580483 5.20193e-23 0.717232)
(-1.89099 -0.205147 8.10579e-23 -0.810953 -7.14191e-23 -1.08192)
(-6.63922 0.906711 1.19794e-22 -2.14092 -8.40725e-20 -3.5143)
(5.47266 0.277591 2.19709e-21 1.72527 -1.67544e-19 2.87721)
(1.20055 -0.186799 5.78891e-23 0.29795 -7.23837e-23 0.598203)
(-1.88253 -0.00990082 -1.1047e-23 -0.169277 1.15876e-22 -0.821969)
(-6.31577 0.605178 1.27533e-21 -1.28029 -5.54642e-20 -3.04067)
(5.48916 0.181041 -2.84259e-21 1.45965 -5.76022e-20 2.77748)
(1.25936 -0.0184285 -1.70654e-22 0.195238 1.77537e-22 0.580527)
(-2.0541 0.117805 9.09718e-22 0.144024 8.95235e-23 -0.765429)
(-6.28707 0.386228 -5.05644e-21 -0.808376 1.44014e-19 -2.84053)
(5.44011 0.127914 1.45657e-21 1.28889 4.39634e-20 2.68949)
(1.23678 0.0942181 2.11983e-22 0.124287 -1.84341e-22 0.54298)
(-2.06086 0.18769 -9.9824e-22 0.409933 -6.97551e-22 -0.661921)
(-6.18276 0.244301 4.26629e-21 -0.493958 1.05447e-20 -2.67311)
(5.40974 0.102602 -1.19266e-21 1.20244 5.92071e-20 2.6427)
(1.22023 0.161444 1.91103e-21 0.105062 7.39046e-22 0.528556)
(-2.07821 0.217277 1.7488e-22 0.562699 -4.8494e-22 -0.607885)
(-6.13 0.159005 -6.10321e-22 -0.323033 -1.08171e-19 -2.58371)
(5.36432 0.0928949 -3.60429e-22 1.15671 -7.61577e-20 2.60621)
(1.18796 0.201623 -7.99016e-22 0.0997965 -1.77661e-22 0.513449)
(-2.05357 0.227172 -2.52537e-21 0.671534 8.15537e-22 -0.554597)
(-6.07174 0.109978 4.27606e-22 -0.226477 2.7758e-20 -2.52181)
(5.31527 0.0911061 -1.41116e-21 1.13578 1.14233e-19 2.5782)
(1.15821 0.223039 6.03484e-22 0.105488 -3.51132e-23 0.503761)
(-2.02481 0.226772 -1.19905e-22 0.736836 -2.31588e-22 -0.517042)
(-6.02192 0.0837881 2.79944e-22 -0.178606 2.55881e-20 -2.48276)
(5.25844 0.0925286 5.24286e-21 1.12569 -1.94617e-20 2.55143)
(1.12826 0.233309 -9.90223e-21 0.112534 -2.20311e-21 0.494557)
(-1.9864 0.222859 2.39706e-21 0.778878 -6.16959e-22 -0.484901)
(-5.96994 0.0709038 -1.29241e-21 -0.155719 -6.5765e-20 -2.45281)
(5.1959 0.0947616 -5.14791e-21 1.11995 5.59177e-20 2.52413)
(1.10126 0.236655 7.12394e-21 0.119397 1.10773e-21 0.48648)
(-1.94727 0.21833 3.50764e-21 0.802968 -3.67359e-22 -0.459636)
(-5.9158 0.0655296 -4.61519e-21 -0.146018 1.04384e-19 -2.42727)
(5.12768 0.0967093 6.98247e-21 1.11479 -9.12864e-20 2.49479)
(1.07624 0.236175 2.83937e-21 0.124545 -5.09566e-22 0.478523)
(-1.9076 0.214564 -2.0237e-21 0.816088 1.78426e-22 -0.438524)
(-5.85671 0.0639898 1.22593e-20 -0.141853 -8.99334e-20 -2.40196)
(5.05449 0.0980622 -3.89259e-21 1.10866 6.40182e-20 2.46307)
(1.05304 0.233681 -8.91177e-21 0.128276 1.94012e-21 0.470738)
(-1.86934 0.211779 4.25932e-21 0.821451 -2.19068e-21 -0.421072)
(-5.7918 0.0641798 -9.205e-21 -0.139402 4.11039e-20 -2.375)
(4.97659 0.0988604 -9.29807e-21 1.101 -7.17194e-20 2.42886)
(1.03085 0.230345 8.86987e-21 0.130993 2.85486e-21 0.462954)
(-1.83247 0.209791 -3.90136e-21 0.821797 2.627e-21 -0.406179)
(-5.72015 0.0648892 -3.19205e-21 -0.136664 2.48384e-20 -2.34522)
(4.89415 0.0992739 2.15203e-20 1.09175 6.00136e-20 2.3922)
(1.0091 0.226818 1.75351e-21 0.133296 -1.88765e-21 0.455182)
(-1.79701 0.20825 -4.80423e-21 0.818711 3.34844e-22 -0.393215)
(-5.64132 0.065493 3.26232e-21 -0.132795 5.46377e-21 -2.31212)
(4.80713 0.0994725 -1.52006e-20 1.08102 -1.25281e-20 2.35312)
(0.987249 0.223444 -2.02786e-20 0.135627 -2.01716e-21 0.447385)
(-1.76246 0.206839 1.30356e-21 0.813335 3.41115e-21 -0.381532)
(-5.55502 0.0656957 6.74064e-22 -0.127515 -4.80741e-20 -2.27547)
(4.71535 0.0995773 -1.18719e-20 1.06894 -3.49617e-21 2.3116)
(0.964953 0.220352 -1.05914e-20 0.138287 -1.80833e-22 0.43954)
(-1.72828 0.205327 -4.58953e-23 0.806355 -1.42687e-21 -0.37064)
(-5.46112 0.0654011 5.66272e-21 -0.120839 2.14084e-20 -2.23521)
(4.61854 0.0996521 1.40797e-20 1.05559 -9.98777e-21 2.26756)
(0.941962 0.217544 7.31096e-23 0.141407 -3.46681e-21 0.431602)
(-1.69385 0.203575 4.81064e-21 0.798194 9.24824e-23 -0.360118)
(-5.35953 0.0646191 1.37203e-20 -0.112905 -3.17373e-20 -2.19137)
(4.51641 0.0997119 -1.03837e-20 1.04101 -2.3067e-20 2.2209)
(0.918129 0.214947 7.67276e-21 0.145005 4.90737e-21 0.423517)
(-1.65857 0.201518 -1.98804e-20 0.789066 -1.33068e-21 -0.349645)
(-5.25018 0.0634131 -9.39416e-22 -0.103897 3.59803e-20 -2.14399)
(4.40862 0.0997414 5.52812e-20 1.02518 2.09959e-20 2.17147)
(0.893362 0.212456 -1.98115e-20 0.149013 -5.8637e-21 0.415223)
(-1.62191 0.19914 3.41399e-20 0.779053 8.14232e-21 -0.338972)
(-5.13296 0.0618658 -1.81653e-20 -0.0939991 -5.74438e-20 -2.09311)
(4.29491 0.0997094 -4.86388e-20 1.00807 9.9688e-21 2.11917)
(0.867625 0.209964 -3.56874e-20 0.153337 -9.38472e-21 0.406668)
(-1.5834 0.196448 -7.72674e-21 0.768163 -1.11789e-20 -0.32791)
(-5.00775 0.0600588 -8.87654e-22 -0.0833716 4.65346e-20 -2.03874)
(4.17494 0.0995743 -7.35183e-20 0.989565 -2.31805e-20 2.06381)
(0.840868 0.207363 5.80539e-20 0.157844 4.55758e-21 0.397778)
(-1.54267 0.193448 3.76687e-20 0.756341 6.42409e-21 -0.316333)
(-4.87436 0.0580675 5.00465e-20 -0.0721515 -7.06059e-21 -1.98086)
(4.0487 0.0993167 7.47876e-20 0.969685 2.95414e-20 2.00539)
(0.813162 0.20458 2.72851e-21 0.162461 1.78446e-20 0.388553)
(-1.4994 0.190151 -2.09677e-20 0.743558 -1.57161e-20 -0.304125)
(-4.73266 0.0559387 -3.59601e-20 -0.0604154 3.33365e-20 -1.91944)
(3.91548 0.0988007 1.25813e-20 0.948059 -2.06436e-20 1.94348)
(0.784355 0.201449 -4.69423e-20 0.16696 -4.21909e-21 0.378842)
(-1.45339 0.186479 1.178e-20 0.729695 -3.6419e-21 -0.291247)
(-4.58226 0.0536985 -2.90957e-20 -0.0482447 1.43785e-20 -1.85437)
(3.77138 0.0977563 -1.79796e-20 0.924693 9.35322e-21 1.87652)
(0.753691 0.197051 8.83236e-20 0.171803 2.162e-20 0.368528)
(-1.40257 0.18148 5.36305e-21 0.714158 -1.15129e-20 -0.277115)
(-4.41784 0.0507577 5.4461e-20 -0.035437 -2.25837e-20 -1.78344)
(3.62075 0.0975321 -6.25093e-20 0.89945 -3.25591e-20 1.80621)
(0.722079 0.194417 -1.6148e-20 0.176275 1.25393e-20 0.357686)
(-1.34863 0.178252 4.43099e-20 0.697115 9.21172e-21 -0.262337)
(-4.24478 0.0486568 -1.77291e-19 -0.022939 4.2798e-20 -1.70917)
(3.47272 0.0972052 -3.23858e-20 0.874028 1.48228e-20 1.73686)
(0.691673 0.191898 -2.69849e-21 0.180263 7.244e-21 0.347134)
(-1.29477 0.175233 -2.61686e-20 0.68012 -7.79503e-22 -0.247573)
(-4.07305 0.0467764 1.19943e-19 -0.0105064 -6.07388e-20 -1.63545)
(3.3274 0.0967618 1.79566e-19 0.848337 -7.43766e-21 1.66849)
(0.662289 0.189311 -2.74491e-20 0.183637 -1.15962e-20 0.336746)
(-1.24121 0.172202 -5.88815e-22 0.662867 -1.01216e-20 -0.233029)
(-3.90339 0.0449423 -3.91744e-20 0.00121009 3.85828e-20 -1.56285)
(3.18486 0.096179 3.71108e-20 0.82264 -1.79347e-20 1.60123)
(0.633983 0.186631 -8.2549e-20 0.186561 -3.91695e-20 0.326608)
(-1.18782 0.169154 5.95751e-20 0.645489 -1.21172e-20 -0.218604)
(-3.73558 0.0431982 -8.22132e-20 0.0124231 -1.82895e-20 -1.4912)
(3.04509 0.0954882 -1.95481e-21 0.79683 1.2012e-20 1.53503)
(0.606671 0.183842 -2.95103e-20 0.188952 5.42935e-20 0.316655)
(-1.13473 0.166057 2.23244e-20 0.627907 2.20098e-20 -0.20438)
(-3.56989 0.0415074 -8.23808e-20 0.0229725 1.35067e-20 -1.42066)
(2.9082 0.0946737 1.38007e-19 0.771003 3.43878e-20 1.46997)
(0.580392 0.180929 1.48481e-19 0.190863 1.65304e-22 0.306924)
(-1.08193 0.1629 1.31269e-20 0.610184 7.00429e-20 -0.190331)
(-3.40634 0.0398762 9.31281e-20 0.0329377 -6.97206e-20 -1.35121)
(2.77422 0.0937431 -1.91344e-19 0.745132 -3.90794e-20 1.40606)
(0.555115 0.177882 4.27948e-20 0.192264 -1.48119e-20 0.297389)
(-1.02951 0.159664 -4.29815e-20 0.592303 7.68237e-20 -0.176495)
(-3.24508 0.0382853 2.57167e-20 0.0422645 -3.53691e-20 -1.28294)
(2.64326 0.0926881 -7.85255e-20 0.719264 -7.96515e-21 1.34335)
(0.530859 0.174687 -1.42889e-19 0.193173 3.34424e-20 0.288066)
(-0.977504 0.156336 -1.32129e-20 0.574293 -4.62917e-20 -0.162875)
(-3.08624 0.0367307 -4.74105e-20 0.0509712 4.46381e-20 -1.21588)
(2.51539 0.0915087 -1.01834e-19 0.693405 -5.48245e-21 1.28189)
(0.507619 0.171331 -1.51113e-20 0.193579 -4.39627e-20 0.278947)
(-0.925974 0.152899 -6.14774e-20 0.556159 -9.04633e-20 -0.149497)
(-2.92997 0.0352017 4.99883e-20 0.0590343 6.42101e-20 -1.15011)
(2.39072 0.0902002 -1.86967e-19 0.667589 3.74559e-21 1.22172)
(0.485405 0.167805 3.47655e-19 0.193487 6.72443e-20 0.270041)
(-0.874979 0.149342 -1.23466e-19 0.53792 -1.59066e-19 -0.136376)
(-2.77641 0.033693 3.71862e-21 0.0664515 1.96115e-20 -1.08569)
(2.26936 0.0887607 1.3714e-19 0.641838 -6.16208e-20 1.1629)
(0.464221 0.164098 -1.39281e-19 0.192895 1.4524e-20 0.261346)
(-0.824587 0.145655 2.59703e-19 0.519591 4.44795e-20 -0.123531)
(-2.62574 0.0321984 -2.57358e-19 0.0732089 2.18756e-20 -1.02268)
(2.15142 0.0871881 -5.57078e-20 0.616183 5.35695e-21 1.10548)
(0.444077 0.160206 1.45094e-19 0.191806 1.47093e-19 0.252869)
(-0.774864 0.14183 1.27301e-19 0.501191 -5.76655e-20 -0.110983)
(-2.47813 0.0307144 6.51082e-20 0.0792991 3.83083e-20 -0.961165)
(2.03701 0.0854815 3.05717e-19 0.590655 3.94755e-20 1.04953)
(0.424978 0.156126 -1.32843e-19 0.190223 2.78754e-20 0.244611)
(-0.72588 0.137865 -7.06555e-20 0.482739 -5.02868e-20 -0.098751)
(-2.33375 0.0292385 -1.6784e-19 0.0847125 -1.27973e-19 -0.901217)
(1.92626 0.0836409 -6.85581e-20 0.565288 1.51308e-19 0.995107)
(0.406928 0.151856 -1.21923e-19 0.18815 1.196e-19 0.236578)
(-0.677708 0.133757 -3.93681e-20 0.464258 -1.2714e-19 -0.0868557)
(-2.19279 0.02777 8.82954e-20 0.0894429 -2.45618e-20 -0.842909)
(1.81927 0.0816678 -2.08037e-19 0.540116 -3.58402e-20 0.942264)
(0.389932 0.147402 2.06165e-19 0.185594 -1.65519e-19 0.228773)
(-0.63042 0.12951 -1.92071e-19 0.445771 1.81964e-19 -0.0753168)
(-2.05543 0.0263096 1.22662e-19 0.0934852 -8.48943e-20 -0.786318)
(1.71614 0.0795648 1.07671e-20 0.515178 -8.44614e-20 0.89106)
(0.373988 0.142769 3.7608e-20 0.182565 -1.81308e-19 0.2212)
(-0.584092 0.12513 -1.42482e-19 0.427304 -4.04817e-20 -0.0641534)
(-1.92185 0.0248595 -1.09058e-20 0.0968375 1.49456e-19 -0.731515)
(1.61698 0.0773358 2.4206e-19 0.490512 1.64894e-19 0.84155)
(0.359093 0.137969 -3.73276e-20 0.179075 3.36652e-19 0.213862)
(-0.538796 0.120628 2.35496e-19 0.408885 1.95738e-19 -0.0533841)
(-1.79222 0.0234235 -2.07326e-19 0.0995009 -9.70926e-20 -0.678569)
(1.52186 0.074986 -3.84983e-20 0.466158 7.7187e-20 0.793782)
(0.345239 0.133014 7.88906e-20 0.175138 -1.71128e-19 0.206763)
(-0.494606 0.116015 4.10368e-20 0.390542 1.99456e-19 -0.0430262)
(-1.66671 0.0220067 -1.25953e-19 0.10148 6.1557e-21 -0.627545)
(1.43086 0.0725221 -8.78323e-20 0.442154 -2.13245e-19 0.7478)
(0.332413 0.127921 4.98566e-20 0.170774 2.46295e-19 0.199903)
(-0.451592 0.111308 9.28466e-20 0.372307 -2.44572e-19 -0.0330959)
(-1.54546 0.0206152 2.71463e-19 0.102785 4.03861e-20 -0.578498)
(1.34402 0.0699518 7.82861e-20 0.418542 5.49575e-20 0.703642)
(0.320596 0.12271 -3.53172e-19 0.166003 4.75259e-20 0.193285)
(-0.409822 0.106526 4.53309e-19 0.35421 -2.05247e-19 -0.0236074)
(-1.42862 0.0192564 -2.89856e-19 0.103427 8.0455e-20 -0.53148)
(1.26138 0.0672837 1.03437e-19 0.395362 -1.07135e-19 0.661336)
(0.309764 0.117402 -1.69414e-19 0.160849 1.30222e-19 0.186908)
(-0.369361 0.10169 -6.65176e-20 0.336287 4.03503e-19 -0.0145735)
(-1.31631 0.0179383 -2.68284e-21 0.103426 6.4255e-20 -0.486532)
(1.18296 0.0645275 3.04755e-19 0.372654 -1.544e-20 0.620904)
(0.299886 0.112021 -1.64914e-19 0.155341 -1.71724e-19 0.180772)
(-0.330269 0.0968233 -4.54498e-21 0.318569 -3.35455e-19 -0.00600472)
(-1.20864 0.0166695 6.22119e-21 0.102802 -2.15886e-19 -0.443687)
(1.10874 0.0616938 -1.96915e-19 0.350455 7.05356e-20 0.582357)
(0.290927 0.106591 -9.99708e-20 0.149509 1.947e-19 0.174873)
(-0.292601 0.0919493 -2.2951e-19 0.301092 3.39146e-19 0.0020905)
(-1.10568 0.015459 -2.14403e-19 0.101585 2.12784e-20 -0.402966)
(1.03869 0.0587936 1.00077e-18 0.328804 -8.74336e-21 0.545698)
(0.282843 0.101139 -1.64992e-19 0.143387 6.14905e-19 0.169208)
(-0.256409 0.0870936 8.78388e-20 0.283891 -1.83538e-19 0.009706)
(-1.0075 0.014316 3.25982e-19 0.0998057 8.7609e-20 -0.364382)
(0.972764 0.0558385 -2.32693e-19 0.307735 -7.62781e-20 0.510918)
(0.275587 0.0956917 -4.89139e-19 0.137011 -6.35992e-19 0.163773)
(-0.221735 0.0822815 1.32392e-19 0.267001 -1.11409e-19 0.0168379)
(-0.914128 0.0132496 -2.51965e-19 0.0975005 1.4857e-19 -0.327935)
(0.910876 0.05284 9.28383e-20 0.287282 -2.36781e-20 0.478002)
(0.269103 0.0902745 1.13702e-19 0.13042 2.05577e-20 0.158561)
(-0.18862 0.0775385 -9.17869e-21 0.250456 -5.28086e-19 0.0234848)
(-0.825592 0.0122684 -6.49027e-19 0.0947103 9.38545e-20 -0.293614)
(0.85293 0.0498101 2.21596e-19 0.267476 6.74891e-20 0.446921)
(0.263332 0.0849137 -6.43431e-20 0.123655 5.04352e-19 0.153565)
(-0.157094 0.072889 2.00684e-19 0.234291 1.04726e-19 0.0296475)
(-0.74188 0.0113805 1.74689e-19 0.0914797 1.46045e-19 -0.2614)
(0.798808 0.0467602 -2.77529e-19 0.248347 -1.2963e-19 0.417639)
(0.25821 0.079634 5.21639e-19 0.116758 -6.59899e-21 0.148775)
(-0.127183 0.0683565 -2.91327e-19 0.218538 2.51995e-19 0.0353291)
(-0.662961 0.0105933 2.53262e-19 0.0878567 -3.53529e-19 -0.231262)
(0.74837 0.0437017 -4.85953e-19 0.229919 -1.28055e-19 0.390111)
(0.253668 0.0744587 -3.84934e-19 0.109773 -9.37643e-19 0.144181)
(-0.0989065 0.0639624 -5.23165e-20 0.203231 -1.55555e-19 0.0405351)
(-0.588785 0.00991324 2.08705e-19 0.0838924 4.04514e-20 -0.203157)
(0.70146 0.0406451 3.5379e-19 0.212215 1.7768e-19 0.364284)
(0.249634 0.069409 -4.12975e-20 0.102744 3.51647e-19 0.139774)
(-0.0722757 0.0597262 5.8501e-20 0.188399 3.10528e-19 0.0452727)
(-0.519278 0.00934553 2.95119e-19 0.07964 -2.60419e-19 -0.177035)
(0.657907 0.0376006 9.38511e-20 0.195257 -1.68956e-19 0.340098)
(0.246033 0.0645037 9.0825e-20 0.0957162 4.51338e-20 0.135539)
(-0.0472973 0.0556651 -4.80601e-19 0.174073 3.04931e-19 0.0495511)
(-0.45435 0.00889418 -4.06476e-19 0.0751545 1.47679e-19 -0.152839)
(0.617526 0.0345772 -5.08835e-20 0.179059 1.85654e-20 0.317484)
(0.242789 0.0597591 2.01835e-19 0.088734 1.78504e-19 0.131466)
(-0.0239714 0.0517931 3.79841e-19 0.16028 2.33889e-21 0.0533813)
(-0.393893 0.00856184 8.97963e-20 0.0704918 -1.1135e-19 -0.130503)
(0.580123 0.0315832 -1.35852e-19 0.163637 2.17907e-20 0.296372)
(0.239825 0.0551886 -2.236e-19 0.0818413 -1.3407e-19 0.12754)
(-0.00229276 0.0481216 -8.60032e-19 0.147045 1.77761e-19 0.0567756)
(-0.337783 0.00834979 4.93307e-20 0.0657084 3.02335e-19 -0.109955)
(0.545498 0.0286257 -3.41848e-19 0.149001 -7.07994e-19 0.276684)
(0.237063 0.0508028 -4.11073e-20 0.0750814 2.15836e-19 0.123747)
(0.0177494 0.0446589 6.91219e-19 0.134391 -5.20577e-19 0.0597474)
(-0.285886 0.00825789 4.55344e-19 0.0608602 -4.67402e-20 -0.0911182)
(0.513442 0.025711 -7.89974e-20 0.13516 1.91547e-19 0.258342)
(0.234425 0.0466093 -6.49904e-20 0.0684956 1.39596e-19 0.120074)
(0.0361702 0.0414103 -3.24286e-19 0.12234 2.43916e-19 0.0623113)
(-0.238057 0.00828471 -6.63679e-19 0.0560022 2.3021e-19 -0.0739129)
(0.483749 0.0228443 2.55984e-19 0.122118 -3.10038e-19 0.241265)
(0.231838 0.0426132 4.34637e-19 0.0621239 -1.48801e-20 0.116506)
(0.0529894 0.0383786 -1.66835e-19 0.110909 1.16693e-20 0.0644825)
(-0.194142 0.00842759 5.26013e-19 0.0511878 -6.15653e-19 -0.0582564)
(0.456211 0.0200298 -1.86369e-19 0.109878 3.0507e-19 0.22537)
(0.229229 0.0388169 -5.59118e-19 0.0560039 3.99364e-20 0.11303)
(0.0682302 0.0355638 1.9482e-19 0.100115 -6.4327e-19 0.0662768)
(-0.153983 0.00868283 -5.78769e-19 0.0464684 4.03998e-19 -0.0440646)
(0.430623 0.0172709 -5.73234e-19 0.0984418 -4.44855e-20 0.210576)
(0.226526 0.035221 3.07696e-20 0.0501709 1.44309e-19 0.109631)
(0.0819194 0.0329641 6.04626e-19 0.0899719 -1.34852e-19 0.0677104)
(-0.117417 0.00904591 -7.43263e-20 0.0418928 1.90748e-19 -0.0312532)
(0.406785 0.0145705 3.43941e-19 0.0878063 2.3935e-19 0.196801)
(0.223665 0.0318244 4.18028e-19 0.0446578 -8.12929e-19 0.106296)
(0.0940866 0.0305761 -3.90139e-19 0.0804902 -5.65474e-19 0.0687995)
(-0.0842813 0.00951172 -1.83877e-19 0.0375068 -5.61297e-20 -0.0197381)
(0.384501 0.0119307 -6.82945e-19 0.0779681 1.57949e-19 0.183968)
(0.220582 0.0286248 -3.75694e-19 0.039495 -1.74059e-19 0.103013)
(0.104764 0.0283954 1.62938e-19 0.0716788 3.32877e-19 0.0695606)
(-0.05441 0.0100749 5.8475e-20 0.0333529 1.55416e-19 -0.00943633)
(0.363585 0.00935341 1.57139e-19 0.0689215 -1.37339e-19 0.171998)
(0.21722 0.0256196 6.15653e-19 0.0347101 -1.74752e-20 0.0997686)
(0.113986 0.0264171 1.02021e-18 0.0635438 4.2232e-19 0.0700099)
(-0.0276394 0.0107299 -1.8579e-19 0.0294706 3.12174e-19 -0.00026654)
(0.343857 0.0068403 -2.6164e-19 0.0606592 -2.71279e-19 0.160816)
(0.213524 0.0228057 -4.80197e-19 0.0303283 1.17578e-18 0.0965518)
(0.121789 0.0246363 -1.04784e-19 0.0560892 -6.32224e-19 0.0701635)
(-0.00380677 0.0114718 3.31348e-19 0.0258957 -5.53258e-19 0.00785075)
(0.325146 0.00439285 -2.8296e-19 0.0531724 -8.52378e-20 0.150351)
(0.209446 0.0201804 3.54055e-19 0.0263721 -3.28455e-19 0.093352)
(0.128212 0.0230484 -3.57421e-20 0.0493166 4.05885e-19 0.0700374)
(0.0172485 0.0122957 -1.39906e-19 0.0226609 -8.21934e-20 0.0149929)
(0.307289 0.00201231 -5.01619e-19 0.046451 2.02528e-19 0.140534)
(0.204939 0.017741 -1.02242e-19 0.0228621 1.08533e-20 0.0901593)
(0.133292 0.0216492 5.69161e-19 0.0432259 -5.87458e-19 0.0696472)
(0.0356847 0.0131976 4.84854e-19 0.0197958 -1.61004e-19 0.021235)
(0.290131 -0.000300486 1.69921e-19 0.0404837 -4.03194e-19 0.131298)
(0.199965 0.0154842 -2.83653e-20 0.0198165 -9.71217e-19 0.0869649)
(0.137072 0.0204345 -3.26809e-19 0.0378152 2.31897e-18 0.0690085)
(0.0516563 0.0141737 -5.89655e-19 0.0173269 -4.08304e-19 0.0266495)
(0.273531 -0.00254567 -2.23001e-19 0.0352589 6.62686e-19 0.122581)
(0.194488 0.0134058 3.6321e-19 0.0172517 -5.77703e-19 0.0837615)
(0.139592 0.0193991 8.13158e-19 0.0330814 -2.15129e-19 0.0681361)
(0.0653138 0.0152209 -5.789e-19 0.0152785 -3.50291e-19 0.0313062)
(0.257354 -0.00472502 -3.48286e-19 0.0307638 -7.22739e-19 0.114326)
(0.188477 0.0114985 -8.07831e-20 0.0151825 4.90857e-19 0.0805424)
(0.140892 0.0185357 -7.99011e-20 0.0290211 -5.664e-19 0.0670447)
(0.0768003 0.0163356 1.92273e-19 0.0136723 -2.171e-19 0.0352711)
(0.241485 -0.00684323 1.2331e-20 0.0269875 2.81765e-19 0.106481)
(0.181907 0.00974969 1.64814e-19 0.0136229 1.24096e-18 0.0773036)
(0.14101 0.0178332 -8.93277e-19 0.0256315 -2.64338e-19 0.0657487)
(0.0862508 0.0175138 1.93401e-19 0.012529 2.96421e-19 0.0386064)
(0.225823 -0.00890954 -5.72503e-19 0.0239193 6.62536e-20 0.0990012)
(0.174757 0.0081388 -1.23856e-19 0.0125853 -3.8106e-19 0.074041)
(0.139978 0.0172746 8.7378e-19 0.022911 4.21252e-19 0.0642601)
(0.0937851 0.0187504 -1.07308e-18 0.0118671 7.77265e-19 0.0413674)
(0.210298 -0.0109404 -2.96137e-19 0.0215554 3.71508e-19 0.0918576)
(0.167014 0.00663255 -4.69561e-20 0.0120875 2.49442e-19 0.0707563)
(0.137827 0.0168366 2.80918e-19 0.0208665 4.04764e-19 0.0625934)
(0.0995114 0.0200399 2.92376e-19 0.0117077 -3.82161e-19 0.0436058)
(0.194864 -0.0129632 1.64142e-19 0.0198957 -5.3173e-19 0.0850315)
(0.158647 0.00518044 -4.95125e-19 0.0121445 -2.06907e-19 0.0674435)
(0.134555 0.0164905 3.1806e-19 0.0195066 -7.36994e-19 0.060752)
(0.103509 0.021378 3.90384e-19 0.0120705 1.31664e-19 0.0453609)
(0.179552 -0.0150253 2.9376e-19 0.0189698 -1.38004e-19 0.0785473)
(0.149648 0.00370412 2.72366e-21 0.0128079 9.37264e-19 0.0641201)
(0.130169 0.0162121 -4.48065e-19 0.0188816 4.45706e-19 0.0587583)
(0.105874 0.0227704 1.96469e-19 0.0129974 -2.36852e-19 0.0466881)
(0.164408 -0.0172034 -7.08525e-19 0.0188188 7.85145e-19 0.0724395)
(0.139861 0.00209012 8.85551e-19 0.0141074 -1.21726e-19 0.060735)
(0.124509 0.0159948 2.52914e-19 0.0190242 -1.43063e-18 0.0565613)
(0.106644 0.0242435 8.35868e-20 0.0145318 -5.23118e-19 0.0476198)
(0.149803 -0.0196474 6.32333e-19 0.0196286 -4.57494e-19 0.0669305)
(0.129277 0.00015226 -1.40022e-19 0.0162737 1.40719e-18 0.0573774)
(0.117558 0.0159006 -8.46708e-19 0.0201739 -1.18748e-18 0.05425)
(0.106127 0.0258953 2.65606e-19 0.0168518 8.31304e-19 0.0483498)
(0.135869 -0.0225594 -5.06185e-20 0.0215872 5.57796e-19 0.0621487)
(0.1169 -0.00232688 -3.1513e-19 0.0192152 6.62265e-19 0.0536113)
(0.108295 0.0160443 8.92617e-19 0.0222482 -8.36279e-20 0.0513826)
(0.104327 0.0278806 -4.83808e-19 0.0201235 -1.70724e-19 0.0489469)
(0.124487 -0.0263039 -5.40883e-20 0.0255306 -3.14262e-20 0.059181)
(0.103312 -0.00562454 7.20089e-19 0.0237119 -1.80169e-18 0.0499826)
(0.0973198 0.0166525 2.90579e-19 0.0260454 9.39877e-19 0.0485191)
(0.103043 0.0305492 1.95818e-20 0.0251526 1.24005e-19 0.0504524)
(0.114179 -0.0303612 9.79662e-20 0.0310247 1.70184e-19 0.0572624)
(0.0833576 -0.00919888 2.36634e-19 0.0263059 -5.80638e-19 0.0430446)
(0.0794654 0.0172408 6.64065e-20 0.0281223 3.73136e-19 0.0422143)
(0.10059 0.0333916 1.40402e-19 0.0314326 3.31977e-19 0.0519899)
(0.112837 -0.032516 5.00966e-19 0.036234 -2.30897e-20 0.0588153)
(0.0687109 -0.0114588 8.90306e-20 0.0244287 9.82091e-19 0.0364402)
(0.0666456 0.0164272 -5.84406e-19 0.0260372 5.83608e-19 0.0362575)
(0.10531 0.0343954 -7.06945e-19 0.0371915 -7.4914e-19 0.0561876)
(0.0910416 -0.0230479 7.20305e-20 0.00970653 3.7297e-19 0.0394888)
(0.037837 -0.00865862 -9.19511e-20 -0.026844 9.27748e-19 0.00358326)
(0.0370858 0.0106849 -2.98148e-19 -0.0247951 -1.68488e-19 0.00410232)
(0.0873563 0.0242189 2.75117e-19 0.0114062 2.98633e-19 0.0386946)
)
;

boundaryField
{
    plateFix
    {
        type            calculated;
        value           nonuniform List<symmTensor> 4((5.57838 0.525433 -1.42995e-21 2.20527 9.75035e-20 3.11135) (1.10024 -0.624037 2.74502e-24 0.503751 5.20071e-23 0.640439) (-1.65325 -0.402389 8.1065e-23 -0.652415 -7.14131e-23 -0.923432) (-6.6109 1.13478 -1.06464e-21 -2.12138 -8.35706e-20 -3.49536));
    }
    plate
    {
        type            calculated;
        value           nonuniform List<symmTensor> 
168
(
(4.44605 0.00080696 -3.41189e-22 0.473861 3.66178e-20 1.96597)
(-4.89966 -0.00211751 -1.00982e-22 0.482048 3.7631e-20 -1.76929)
(4.63484 0.000917336 1.57921e-21 0.474598 -4.1693e-20 2.04172)
(-5.14599 -0.00200026 1.49482e-21 0.482773 -4.40328e-20 -1.86762)
(4.83063 0.00139405 -3.2047e-21 0.475447 -4.08694e-20 2.1203)
(-5.42916 -0.00226046 -5.42637e-21 0.483612 4.1629e-20 -1.98067)
(4.8971 0.002184 1.44123e-21 0.476254 4.02055e-20 2.14718)
(-5.53237 -0.00287956 4.24707e-21 0.484413 -8.24515e-20 -2.02168)
(4.92548 0.00325128 -1.21214e-21 0.476934 -9.13856e-22 2.15878)
(-5.5922 -0.00386796 -6.35091e-22 0.485089 5.34271e-23 -2.04537)
(4.91127 0.00450662 -3.74503e-22 0.477414 -3.29923e-20 2.15328)
(-5.59744 -0.00510137 4.34909e-22 0.485569 3.23494e-21 -2.04729)
(4.87655 0.00588783 -1.38588e-21 0.477658 3.11401e-20 2.13949)
(-5.57908 -0.00650809 2.79609e-22 0.485816 3.25701e-20 -2.03985)
(4.82655 0.00733735 5.22801e-21 0.477653 3.77505e-21 2.11949)
(-5.54221 -0.00801592 -1.30692e-21 0.485817 -3.0167e-20 -2.0251)
(4.76771 0.00881518 -5.12147e-21 0.477398 9.20551e-23 2.09586)
(-5.49463 -0.00957693 -4.58712e-21 0.48557 2.76986e-20 -2.00616)
(4.70262 0.0102928 6.93596e-21 0.476895 -1.72707e-21 2.06963)
(-5.43863 -0.0111559 1.22272e-20 0.485077 -2.52394e-20 -1.98394)
(4.63301 0.0117525 -3.85142e-21 0.476147 -1.02409e-24 2.0415)
(-5.37584 -0.0127309 -9.20806e-21 0.484343 4.82294e-20 -1.95911)
(4.55956 0.0131847 -9.36992e-21 0.475157 1.71336e-20 2.01173)
(-5.30667 -0.0142888 -3.17106e-21 0.483369 -7.12201e-24 -1.93181)
(4.48246 0.0145856 2.15667e-20 0.473919 1.40883e-21 1.98041)
(-5.23123 -0.0158234 3.27668e-21 0.482151 -1.8441e-20 -1.9021)
(4.40159 0.0159545 -1.52083e-20 0.472422 -1.66686e-20 1.94748)
(-5.14942 -0.0173324 6.41528e-22 0.480679 -1.68306e-20 -1.86995)
(4.31669 0.0172927 -1.18816e-20 0.470646 1.68994e-20 1.91283)
(-5.06112 -0.0188156 5.6702e-21 0.478933 1.81765e-20 -1.8353)
(4.2274 0.0186008 1.40647e-20 0.468563 -8.90177e-21 1.8763)
(-4.96616 -0.0202726 1.36969e-20 0.476888 -1.28166e-20 -1.7981)
(4.13339 0.0198777 -1.04171e-20 0.466138 1.12689e-20 1.83775)
(-4.86436 -0.0217016 -9.12293e-22 0.474509 1.71147e-20 -1.7583)
(4.0343 0.0211188 5.53316e-20 0.463327 -4.63162e-21 1.79702)
(-4.75554 -0.0230973 -1.82443e-20 0.471756 2.51419e-23 -1.71584)
(3.92987 0.0223174 -4.86717e-20 0.460087 5.92125e-21 1.75397)
(-4.63949 -0.0244524 -8.25164e-22 0.468587 4.85881e-21 -1.67065)
(3.81977 0.0234551 -7.35539e-20 0.456352 -1.44485e-20 1.70846)
(-4.51598 -0.025748 5.0033e-20 0.464939 8.65231e-21 -1.62267)
(3.70399 0.0245324 7.47856e-20 0.452123 2.003e-20 1.66049)
(-4.3848 -0.0269835 -3.59227e-20 0.460816 -1.26282e-20 -1.57181)
(3.58193 0.0254722 1.26143e-20 0.44719 -1.63048e-20 1.60972)
(-4.24568 -0.0280836 -2.91254e-20 0.456015 2.15438e-20 -1.51804)
(3.44984 0.0265232 -1.79593e-20 0.441822 8.44561e-21 1.55477)
(-4.09324 -0.0292929 5.44278e-20 0.450795 -8.69092e-21 -1.4591)
(3.31164 0.0275771 -6.25363e-20 0.435184 -9.0606e-21 1.49687)
(-3.93276 -0.0304917 -1.77214e-19 0.444353 -6.39212e-22 -1.39744)
(3.17613 0.0284333 -3.23864e-20 0.428495 -2.07684e-22 1.44002)
(-3.77359 -0.031479 1.19835e-19 0.437873 -8.305e-21 -1.33632)
(3.04313 0.0292065 1.7956e-19 0.421266 -7.95442e-21 1.38396)
(-3.61636 -0.032364 -3.91171e-20 0.43088 8.354e-21 -1.27618)
(2.91278 0.0298526 3.7087e-20 0.413807 -3.70393e-21 1.32887)
(-3.4608 -0.0331054 -8.22725e-20 0.423675 -2.14937e-22 -1.21679)
(2.78499 0.0304166 -1.98665e-21 0.405942 -5.09101e-22 1.27464)
(-3.30717 -0.0337477 -8.23248e-20 0.416085 -8.77766e-21 -1.15833)
(2.65989 0.0308816 1.38112e-19 0.39778 -1.01348e-20 1.22136)
(-3.15547 -0.0342758 9.29687e-20 0.408217 8.5642e-21 -1.10076)
(2.53749 0.0312643 -1.91434e-19 0.38927 -1.04646e-20 1.16903)
(-3.00588 -0.0347066 2.56671e-20 0.400016 -7.66602e-21 -1.04416)
(2.41791 0.0315602 -7.85237e-20 0.38045 -6.05507e-21 1.11769)
(-2.85849 -0.0350368 -4.73143e-20 0.391518 -1.00346e-20 -0.988562)
(2.30119 0.031775 -1.01786e-19 0.37131 -4.21554e-21 1.06737)
(-2.71344 -0.0352727 5.02076e-20 0.382711 -1.31809e-20 -0.934029)
(2.18744 0.0319078 -1.87018e-19 0.361869 1.15573e-20 1.01812)
(-2.57088 -0.0354143 3.76793e-21 0.373609 -3.68526e-21 -0.88061)
(2.07676 0.0319602 1.36909e-19 0.352131 -6.6693e-21 0.969978)
(-2.43097 -0.0354641 -2.57339e-19 0.364213 2.78556e-21 -0.828369)
(1.96924 0.0319319 -5.56825e-20 0.342112 3.22043e-21 0.922987)
(-2.29386 -0.0354225 6.52198e-20 0.354532 -3.43121e-21 -0.777364)
(1.86499 0.031823 3.0585e-19 0.331822 1.06566e-21 0.877194)
(-2.15972 -0.0352904 -1.68347e-19 0.344575 9.73303e-21 -0.727659)
(1.76411 0.031633 -6.80331e-20 0.321278 9.85047e-21 0.832648)
(-2.02873 -0.035068 8.82406e-20 0.334353 6.4269e-22 -0.67932)
(1.6667 0.0313614 -2.08116e-19 0.310499 -7.27812e-21 0.789396)
(-1.90105 -0.0347554 1.2228e-19 0.323877 1.64845e-20 -0.632407)
(1.57286 0.0310075 1.0478e-20 0.299503 5.94804e-21 0.747483)
(-1.77685 -0.0343526 -1.04299e-20 0.313165 1.49255e-20 -0.586982)
(1.48267 0.0305707 2.4266e-19 0.288314 3.55459e-21 0.706952)
(-1.65629 -0.0338596 -2.07637e-19 0.302231 -1.35815e-21 -0.543104)
(1.3962 0.0300505 -3.83064e-20 0.276955 4.95424e-21 0.667843)
(-1.53952 -0.0332763 -1.25912e-19 0.291097 -3.51419e-21 -0.500825)
(1.31352 0.0294463 -8.86558e-20 0.265454 -1.66169e-22 0.63019)
(-1.4267 -0.0326027 2.71522e-19 0.279785 1.08953e-20 -0.460195)
(1.23467 0.0287578 7.85179e-20 0.253839 -2.39283e-21 0.594022)
(-1.31795 -0.0318389 -2.89569e-19 0.268319 1.28852e-21 -0.421256)
(1.15967 0.0279849 1.03e-19 0.24214 -3.84157e-21 0.559364)
(-1.21339 -0.0309854 -2.43738e-21 0.256726 -2.5336e-21 -0.384043)
(1.08853 0.0271279 3.04689e-19 0.230392 6.17306e-21 0.526231)
(-1.11311 -0.0300425 5.35813e-21 0.245037 5.0823e-21 -0.348583)
(1.02125 0.0261872 -1.96649e-19 0.218626 -3.10225e-21 0.494632)
(-1.0172 -0.0290113 -2.14355e-19 0.233282 3.77014e-21 -0.314896)
(0.957786 0.0251637 1.00072e-18 0.206881 4.2957e-21 0.464568)
(-0.925714 -0.0278929 3.26326e-19 0.221497 -1.36134e-21 -0.282992)
(0.898089 0.0240584 -2.33002e-19 0.19519 -4.04547e-21 0.436033)
(-0.83869 -0.0266889 -2.51396e-19 0.209716 7.22306e-21 -0.252873)
(0.842085 0.0228732 9.27509e-20 0.183593 3.13725e-21 0.409012)
(-0.756148 -0.0254012 -6.4859e-19 0.197978 -1.02372e-20 -0.224529)
(0.789679 0.0216098 2.21866e-19 0.172127 2.47397e-21 0.383482)
(-0.678083 -0.0240323 1.75325e-19 0.186319 7.33198e-22 -0.197945)
(0.740758 0.0202708 -2.7812e-19 0.160828 -2.89244e-21 0.359414)
(-0.604472 -0.0225849 2.51831e-19 0.17478 -1.68605e-21 -0.173096)
(0.695192 0.0188589 -4.86389e-19 0.149736 -6.03775e-21 0.336769)
(-0.535269 -0.0210622 2.0887e-19 0.163399 -9.14692e-22 -0.149947)
(0.652832 0.0173772 3.54498e-19 0.138886 3.01341e-21 0.315504)
(-0.470412 -0.0194678 2.94155e-19 0.152217 -2.50854e-21 -0.128457)
(0.61352 0.0158292 9.3085e-20 0.128314 -1.62043e-21 0.295568)
(-0.40982 -0.0178058 -4.05802e-19 0.141274 -5.0046e-21 -0.108579)
(0.577082 0.0142189 -5.07259e-20 0.118055 -1.14652e-21 0.276907)
(-0.353396 -0.0160804 8.94212e-20 0.130606 -1.19727e-21 -0.090258)
(0.543337 0.0125502 -1.35823e-19 0.108142 -1.84038e-21 0.259461)
(-0.30103 -0.0142963 5.07319e-20 0.120252 3.82463e-23 -0.0734355)
(0.512097 0.0108276 -3.44878e-19 0.0986065 3.39784e-22 0.243168)
(-0.2526 -0.0124584 4.55148e-19 0.110247 2.05662e-22 -0.0580482)
(0.48317 0.0090556 -7.80857e-20 0.0894767 -8.00194e-22 0.227962)
(-0.207975 -0.0105719 -6.62744e-19 0.100626 -4.2204e-21 -0.0440299)
(0.456362 0.0072388 2.54737e-19 0.0807798 -5.98263e-23 0.213776)
(-0.167016 -0.00864182 5.23456e-19 0.09142 2.35927e-21 -0.0313124)