/*--------------------------------*- C++ -*----------------------------------*\
| =========                 |                                                 |
| \\      /  F ield         | OpenFOAM Extend Project: Open source CFD        |
|  \\    /   O peration     | Version:  1.6-ext                               |
|   \\  /    A nd           | Web:      www.extend-project.de                 |
|    \\/     M anipulation  |                                                 |
\*---------------------------------------------------------------------------*/
FoamFile
{
    version     2.0;
    format      ascii;
    class       volVectorField;
    location    "1.15";
    object      Usolid;
}
// * * * * * * * * * * * * * * * * * * * * * * * * * * * * * * * * * * * * * //

dimensions      [0 1 0 0 0 0 0];

internalField   nonuniform List<vector> 
328
(
(1.23302e-07 1.07026e-07 0)
(2.29275e-08 -5.40707e-08 0)
(-3.65348e-08 -3.16231e-08 0)
(-1.55765e-07 2.14677e-07 0)
(3.82434e-07 2.89856e-07 0)
(7.84083e-08 -8.09233e-08 0)
(-1.28671e-07 -1.53977e-08 0)
(-4.8041e-07 5.6593e-07 0)
(6.81662e-07 4.78768e-07 0)
(1.53128e-07 -2.04503e-08 0)
(-2.65082e-07 8.5778e-08 0)
(-8.59439e-07 8.80107e-07 0)
(1.00777e-06 7.02421e-07 0)
(2.35656e-07 1.32449e-07 0)
(-4.24901e-07 2.73775e-07 0)
(-1.27324e-06 1.19294e-06 0)
(1.36219e-06 9.88362e-07 0)
(3.25811e-07 3.83485e-07 0)
(-6.09569e-07 5.53128e-07 0)
(-1.72495e-06 1.5408e-06 0)
(1.74199e-06 1.36132e-06 0)
(4.20434e-07 7.43713e-07 0)
(-8.12674e-07 9.34532e-07 0)
(-2.21072e-06 1.95513e-06 0)
(2.14715e-06 1.84515e-06 0)
(5.19282e-07 1.22724e-06 0)
(-1.03331e-06 1.43269e-06 0)
(-2.73122e-06 2.46533e-06 0)
(2.57742e-06 2.4638e-06 0)
(6.21911e-07 1.85227e-06 0)
(-1.26959e-06 2.06676e-06 0)
(-3.28652e-06 3.09946e-06 0)
(3.0333e-06 3.24266e-06 0)
(7.28639e-07 2.64073e-06 0)
(-1.52122e-06 2.8599e-06 0)
(-3.87777e-06 3.88612e-06 0)
(3.51541e-06 4.20959e-06 0)
(8.39801e-07 3.6187e-06 0)
(-1.78801e-06 3.83937e-06 0)
(-4.5062e-06 4.85557e-06 0)
(4.02458e-06 5.39591e-06 0)
(9.55839e-07 4.81661e-06 0)
(-2.07033e-06 5.03666e-06 0)
(-5.17327e-06 6.0409e-06 0)
(4.56168e-06 6.83721e-06 0)
(1.07712e-06 6.26974e-06 0)
(-2.3687e-06 6.48789e-06 0)
(-5.88048e-06 7.47896e-06 0)
(5.12761e-06 8.5741e-06 0)
(1.20391e-06 8.01863e-06 0)
(-2.68385e-06 8.23421e-06 0)
(-6.6293e-06 9.2112e-06 0)
(5.72317e-06 1.06529e-05 0)
(1.3364e-06 1.01097e-05 0)
(-3.01659e-06 1.03224e-05 0)
(-7.42116e-06 1.12845e-05 0)
(6.34909e-06 1.31266e-05 0)
(1.47461e-06 1.25958e-05 0)
(-3.36775e-06 1.28057e-05 0)
(-8.25738e-06 1.3752e-05 0)
(7.00593e-06 1.6055e-05 0)
(1.61851e-06 1.55372e-05 0)
(-3.73816e-06 1.57442e-05 0)
(-9.13915e-06 1.66737e-05 0)
(7.69406e-06 1.95064e-05 0)
(1.76794e-06 1.9002e-05 0)
(-4.1286e-06 1.92061e-05 0)
(-1.00675e-05 2.01177e-05 0)
(8.41361e-06 2.35576e-05 0)
(1.92266e-06 2.30671e-05 0)
(-4.53975e-06 2.32682e-05 0)
(-1.10433e-05 2.41609e-05 0)
(9.16445e-06 2.82953e-05 0)
(2.08233e-06 2.78193e-05 0)
(-4.97219e-06 2.80173e-05 0)
(-1.2067e-05 2.88896e-05 0)
(9.9461e-06 3.3817e-05 0)
(2.24653e-06 3.3356e-05 0)
(-5.42633e-06 3.35506e-05 0)
(-1.31389e-05 3.44013e-05 0)
(1.07577e-05 4.02319e-05 0)
(2.41472e-06 3.97866e-05 0)
(-5.90243e-06 3.99774e-05 0)
(-1.42589e-05 4.0805e-05 0)
(1.15981e-05 4.7662e-05 0)
(2.58626e-06 4.72328e-05 0)
(-6.40057e-06 4.74194e-05 0)
(-1.54263e-05 4.82223e-05 0)
(1.24984e-05 5.65699e-05 0)
(2.76697e-06 5.61582e-05 0)
(-6.94042e-06 5.63399e-05 0)
(-1.66862e-05 5.71155e-05 0)
(1.34199e-05 6.686e-05 0)
(2.94823e-06 6.64663e-05 0)
(-7.50025e-06 6.66425e-05 0)
(-1.79869e-05 6.7389e-05 0)
(1.43002e-05 7.78751e-05 0)
(3.11776e-06 7.74987e-05 0)
(-8.04209e-06 7.76692e-05 0)
(-1.92398e-05 7.83869e-05 0)
(1.51398e-05 8.95857e-05 0)
(3.27593e-06 8.92261e-05 0)
(-8.56605e-06 8.93906e-05 0)
(-2.04456e-05 9.00795e-05 0)
(1.59398e-05 0.000101963 0)
(3.42317e-06 0.000101619 0)
(-9.07215e-06 0.000101777 0)
(-2.16048e-05 0.000102438 0)
(1.67008e-05 0.000114977 0)
(3.55984e-06 0.000114649 0)
(-9.56047e-06 0.000114801 0)
(-2.27177e-05 0.000115433 0)
(1.74239e-05 0.000128601 0)
(3.68636e-06 0.000128288 0)
(-1.0031e-05 0.000128434 0)
(-2.3785e-05 0.000129037 0)
(1.81097e-05 0.000142806 0)
(3.80313e-06 0.000142508 0)
(-1.0484e-05 0.000142647 0)
(-2.48071e-05 0.000143222 0)
(1.87594e-05 0.000157565 0)
(3.91057e-06 0.000157281 0)
(-1.09193e-05 0.000157413 0)
(-2.57847e-05 0.000157961 0)
(1.93737e-05 0.000172852 0)
(4.0091e-06 0.000172581 0)
(-1.13371e-05 0.000172707 0)
(-2.67183e-05 0.000173227 0)
(1.99536e-05 0.00018864 0)
(4.09915e-06 0.000188382 0)
(-1.17375e-05 0.0001885 0)
(-2.76086e-05 0.000188993 0)
(2.05002e-05 0.000204902 0)
(4.18116e-06 0.000204657 0)
(-1.21206e-05 0.000204768 0)
(-2.84563e-05 0.000205234 0)
(2.10145e-05 0.000221615 0)
(4.25559e-06 0.000221381 0)
(-1.24866e-05 0.000221485 0)
(-2.92619e-05 0.000221925 0)
(2.14974e-05 0.000238752 0)
(4.32288e-06 0.00023853 0)
(-1.28356e-05 0.000238627 0)
(-3.00265e-05 0.000239041 0)
(2.19503e-05 0.000256291 0)
(4.3835e-06 0.00025608 0)
(-1.31678e-05 0.000256169 0)
(-3.07506e-05 0.000256557 0)
(2.23741e-05 0.000274207 0)
(4.4379e-06 0.000274006 0)
(-1.34833e-05 0.000274088 0)
(-3.14353e-05 0.000274452 0)
(2.277e-05 0.000292479 0)
(4.48656e-06 0.000292288 0)
(-1.37825e-05 0.000292362 0)
(-3.20814e-05 0.000292701 0)
(2.31391e-05 0.000311083 0)
(4.52993e-06 0.000310901 0)
(-1.40655e-05 0.000310968 0)
(-3.26898e-05 0.000311283 0)
(2.34828e-05 0.00033 0)
(4.56848e-06 0.000329826 0)
(-1.43327e-05 0.000329885 0)
(-3.32617e-05 0.000330177 0)
(2.38022e-05 0.000349207 0)
(4.60266e-06 0.000349042 0)
(-1.45843e-05 0.000349094 0)
(-3.3798e-05 0.000349363 0)
(2.40986e-05 0.000368687 0)
(4.63292e-06 0.000368528 0)
(-1.48206e-05 0.000368573 0)
(-3.43e-05 0.00036882 0)
(2.43731e-05 0.000388418 0)
(4.65969e-06 0.000388267 0)
(-1.50421e-05 0.000388304 0)
(-3.47686e-05 0.00038853 0)
(2.4627e-05 0.000408385 0)
(4.68341e-06 0.00040824 0)
(-1.52491e-05 0.00040827 0)
(-3.52051e-05 0.000408475 0)
(2.48615e-05 0.000428569 0)
(4.70447e-06 0.000428429 0)
(-1.5442e-05 0.000428452 0)
(-3.56108e-05 0.000428637 0)
(2.50779e-05 0.000448954 0)
(4.72327e-06 0.000448819 0)
(-1.56212e-05 0.000448835 0)
(-3.59869e-05 0.000449001 0)
(2.52772e-05 0.000469524 0)
(4.74017e-06 0.000469394 0)
(-1.57873e-05 0.000469403 0)
(-3.63346e-05 0.000469551 0)
(2.54608e-05 0.000490265 0)
(4.75551e-06 0.000490139 0)
(-1.59406e-05 0.000490142 0)
(-3.66553e-05 0.000490272 0)
(2.56297e-05 0.000511163 0)
(4.7696e-06 0.000511041 0)
(-1.60817e-05 0.000511037 0)
(-3.69502e-05 0.00051115 0)
(2.57849e-05 0.000532204 0)
(4.78272e-06 0.000532085 0)
(-1.6211e-05 0.000532075 0)
(-3.72208e-05 0.000532172 0)
(2.59276e-05 0.000553377 0)
(4.79514e-06 0.000553261 0)
(-1.63291e-05 0.000553245 0)
(-3.74682e-05 0.000553327 0)
(2.60587e-05 0.00057467 0)
(4.80707e-06 0.000574557 0)
(-1.64366e-05 0.000574535 0)
(-3.76938e-05 0.000574602 0)
(2.61791e-05 0.000596073 0)
(4.8187e-06 0.000595962 0)
(-1.6534e-05 0.000595934 0)
(-3.78989e-05 0.000595988 0)
(2.62897e-05 0.000617575 0)
(4.83019e-06 0.000617466 0)
(-1.66218e-05 0.000617432 0)
(-3.80847e-05 0.000617474 0)
(2.63913e-05 0.000639167 0)
(4.84165e-06 0.00063906 0)
(-1.67006e-05 0.000639021 0)
(-3.82526e-05 0.00063905 0)
(2.64847e-05 0.000660841 0)
(4.85317e-06 0.000660735 0)
(-1.6771e-05 0.000660692 0)
(-3.84037e-05 0.00066071 0)
(2.65705e-05 0.000682589 0)
(4.8648e-06 0.000682485 0)
(-1.68336e-05 0.000682436 0)
(-3.85393e-05 0.000682444 0)
(2.66493e-05 0.000704404 0)
(4.87656e-06 0.0007043 0)
(-1.68889e-05 0.000704248 0)
(-3.86604e-05 0.000704246 0)
(2.67217e-05 0.000726278 0)
(4.88843e-06 0.000726176 0)
(-1.69375e-05 0.00072612 0)
(-3.87684e-05 0.000726109 0)
(2.67882e-05 0.000748207 0)
(4.90037e-06 0.000748105 0)
(-1.698e-05 0.000748045 0)
(-3.88642e-05 0.000748026 0)
(2.68492e-05 0.000770183 0)
(4.91231e-06 0.000770083 0)
(-1.70169e-05 0.00077002 0)
(-3.89489e-05 0.000769993 0)
(2.6905e-05 0.000792203 0)
(4.92414e-06 0.000792103 0)
(-1.70489e-05 0.000792037 0)
(-3.90235e-05 0.000792004 0)
(2.6956e-05 0.000814261 0)
(4.93574e-06 0.000814162 0)
(-1.70764e-05 0.000814094 0)
(-3.90891e-05 0.000814054 0)
(2.70023e-05 0.000836353 0)
(4.94695e-06 0.000836256 0)
(-1.71001e-05 0.000836185 0)
(-3.91466e-05 0.000836139 0)
(2.70442e-05 0.000858476 0)
(4.95761e-06 0.000858379 0)
(-1.71203e-05 0.000858306 0)
(-3.91968e-05 0.000858256 0)
(2.70818e-05 0.000880625 0)
(4.96752e-06 0.000880529 0)
(-1.71378e-05 0.000880455 0)
(-3.92407e-05 0.000880401 0)
(2.71153e-05 0.000902797 0)
(4.97647e-06 0.000902703 0)
(-1.7153e-05 0.000902627 0)
(-3.9279e-05 0.00090257 0)
(2.71446e-05 0.00092499 0)
(4.98423e-06 0.000924897 0)
(-1.71663e-05 0.000924821 0)
(-3.93126e-05 0.00092476 0)
(2.71697e-05 0.000947201 0)
(4.99057e-06 0.00094711 0)
(-1.71784e-05 0.000947033 0)
(-3.93422e-05 0.000946969 0)
(2.71908e-05 0.000969427 0)
(4.99522e-06 0.000969337 0)
(-1.71897e-05 0.000969261 0)
(-3.93684e-05 0.000969195 0)
(2.72076e-05 0.000991666 0)
(4.99793e-06 0.000991579 0)
(-1.72006e-05 0.000991502 0)
(-3.93921e-05 0.000991435 0)
(2.72202e-05 0.00101392 0)
(4.99843e-06 0.00101383 0)
(-1.72116e-05 0.00101376 0)
(-3.94138e-05 0.00101369 0)
(2.72283e-05 0.00103618 0)
(4.99642e-06 0.00103609 0)
(-1.72232e-05 0.00103602 0)
(-3.94342e-05 0.00103595 0)
(2.7232e-05 0.00105844 0)
(4.99162e-06 0.00105836 0)
(-1.72358e-05 0.00105829 0)
(-3.94538e-05 0.00105822 0)
(2.72311e-05 0.00108071 0)
(4.9837e-06 0.00108064 0)
(-1.725e-05 0.00108057 0)
(-3.94733e-05 0.0010805 0)
(2.72254e-05 0.00110299 0)
(4.97227e-06 0.00110292 0)
(-1.72664e-05 0.00110285 0)
(-3.94932e-05 0.00110278 0)
(2.72152e-05 0.00112527 0)
(4.9569e-06 0.0011252 0)
(-1.72854e-05 0.00112513 0)
(-3.95141e-05 0.00112507 0)
(2.72002e-05 0.00114755 0)
(4.9366e-06 0.00114748 0)
(-1.73083e-05 0.00114742 0)
(-3.95366e-05 0.00114736 0)
(2.71813e-05 0.00116983 0)
(4.911e-06 0.00116977 0)
(-1.73357e-05 0.00116971 0)
(-3.95604e-05 0.00116965 0)
(2.71576e-05 0.00119211 0)
(4.87735e-06 0.00119205 0)
(-1.73704e-05 0.001192 0)
(-3.9587e-05 0.00119194 0)
(2.71356e-05 0.00121441 0)
(4.84343e-06 0.00121434 0)
(-1.74049e-05 0.00121428 0)
(-3.96103e-05 0.00121421 0)
)
;

boundaryField
{
    plateFix
    {
        type            fixedDisplacement;
        value           uniform (0 0 0);
    }
    plate
    {
        type            solidTraction;
        nonLinear       updatedLagrangian;
        traction        uniform (0 0 0);
        pressure        uniform 0;
        value           nonuniform List<vector> 
168
(
(6.1038e-07 4.82918e-07 -1.01656e-25)
(-1.11776e-06 7.73441e-07 -8.7367e-26)
(8.14578e-07 6.84405e-07 1.7303e-25)
(-1.25871e-06 1.14953e-06 -5.64374e-26)
(1.12778e-06 8.92817e-07 5.38101e-26)
(-1.54197e-06 1.49209e-06 1.43527e-25)
(1.5208e-06 1.12304e-06 -3.96533e-26)
(-1.94266e-06 1.81532e-06 4.47673e-27)
(1.9803e-06 1.41179e-06 -6.57497e-26)
(-2.4444e-06 2.1692e-06 -9.54311e-26)
(2.49128e-06 1.78333e-06 7.82247e-26)
(-3.02424e-06 2.58406e-06 2.33571e-26)
(3.04618e-06 2.26375e-06 -1.17979e-25)
(-3.67019e-06 3.09239e-06 2.46202e-26)
(3.64012e-06 2.8775e-06 2.37332e-26)
(-4.37379e-06 3.72275e-06 -6.60982e-26)
(4.27129e-06 3.65064e-06 -5.87288e-26)
(-5.1311e-06 4.50452e-06 1.04284e-25)
(4.93935e-06 4.61127e-06 9.39288e-26)
(-5.94039e-06 5.46819e-06 -8.43852e-26)
(5.64501e-06 5.7909e-06 -6.32355e-26)
(-6.80159e-06 6.647e-06 3.7192e-26)
(6.38944e-06 7.22518e-06 6.62047e-26)
(-7.71543e-06 8.07786e-06 2.40511e-26)
(7.17399e-06 8.95474e-06 -5.33198e-26)
(-8.68318e-06 9.80221e-06 5.93815e-27)
(7.99998e-06 1.10259e-05 5.92505e-27)
(-9.70627e-06 1.18669e-05 -4.6058e-26)
(8.86856e-06 1.34916e-05 1.05739e-27)
(-1.07862e-05 1.43251e-05 1.94234e-26)
(9.78067e-06 1.64117e-05 1.23173e-26)
(-1.19243e-05 1.72368e-05 -2.14271e-26)
(1.0737e-05 1.98544e-05 2.76086e-26)
(-1.31218e-05 2.067e-05 2.94189e-26)
(1.17377e-05 2.38964e-05 -1.20399e-26)
(-1.43797e-05 2.47015e-05 -6.42083e-26)
(1.2783e-05 2.86246e-05 -1.84838e-26)
(-1.56986e-05 2.94179e-05 5.22089e-26)
(1.38721e-05 3.41363e-05 1.3375e-26)
(-1.70787e-05 3.49163e-05 1.53293e-26)
(1.50041e-05 4.05408e-05 -1.18934e-26)
(-1.85197e-05 4.13057e-05 -1.50744e-27)
(1.61774e-05 4.796e-05 2.114e-26)
(-2.00206e-05 4.87079e-05 1.28139e-26)
(1.74354e-05 5.68561e-05 -1.3322e-26)
(-2.16388e-05 5.75845e-05 -1.8352e-26)
(1.87259e-05 6.71342e-05 2.18716e-26)
(-2.3309e-05 6.78403e-05 3.0554e-26)
(1.99603e-05 7.81375e-05 -5.09814e-26)
(-2.49166e-05 7.88205e-05 -5.26224e-26)
(2.11395e-05 8.98366e-05 5.57982e-26)
(-2.64624e-05 9.04957e-05 1.23467e-26)
(2.22646e-05 0.000102202 3.77413e-26)
(-2.7947e-05 0.000102837 -6.30266e-26)
(2.33366e-05 0.000115206 -5.47e-26)
(-2.93712e-05 0.000115815 1.03559e-25)
(2.43566e-05 0.000128819 4.99805e-26)
(-3.07357e-05 0.000129402 -1.30755e-26)
(2.53257e-05 0.000143014 -3.70547e-26)
(-3.20413e-05 0.00014357 2.28181e-26)
(2.62451e-05 0.000157764 1.28425e-27)
(-3.32888e-05 0.000158292 3.9432e-27)
(2.71159e-05 0.000173041 1.59914e-27)
(-3.44791e-05 0.000173541 -6.63037e-26)
(2.79393e-05 0.000188819 -3.79347e-26)
(-3.56129e-05 0.000189291 -2.88701e-26)
(2.87167e-05 0.000205073 -1.55258e-26)
(-3.66914e-05 0.000205516 -6.21957e-26)
(2.94494e-05 0.000221777 -3.55732e-26)
(-3.77154e-05 0.000222191 1.78967e-27)
(3.01386e-05 0.000238906 4.25275e-26)
(-3.86861e-05 0.000239291 1.01498e-25)
(3.07859e-05 0.000256437 1.46494e-25)
(-3.96046e-05 0.000256793 2.60913e-26)
(3.13927e-05 0.000274346 -3.51517e-26)
(-4.0472e-05 0.000274672 1.21971e-25)
(3.19604e-05 0.00029261 -5.8434e-26)
(-4.12897e-05 0.000292907 -1.56428e-25)
(3.24908e-05 0.000311208 1.33759e-25)
(-4.2059e-05 0.000311475 1.02636e-25)
(3.29852e-05 0.000330118 6.37969e-26)
(-4.27812e-05 0.000330355 -1.07796e-26)
(3.34453e-05 0.00034932 -1.93042e-25)
(-4.34578e-05 0.000349527 -5.12708e-26)
(3.38728e-05 0.000368793 5.55227e-26)
(-4.40904e-05 0.000368971 -6.49974e-26)
(3.42693e-05 0.00038852 -1.09896e-25)
(-4.46804e-05 0.000388669 -4.7753e-26)
(3.46364e-05 0.000408481 -3.87111e-26)
(-4.52295e-05 0.000408601 2.06971e-25)
(3.49758e-05 0.000428661 9.63152e-26)
(-4.57394e-05 0.000428752 -8.89792e-27)
(3.5289e-05 0.000449041 -5.09067e-26)
(-4.62116e-05 0.000449105 -9.5657e-26)
(3.55778e-05 0.000469608 -5.7394e-26)
(-4.66479e-05 0.000469644 -1.40504e-25)
(3.58437e-05 0.000490345 7.05965e-27)
(-4.705e-05 0.000490354 -1.07922e-25)
(3.60881e-05 0.00051124 3.87674e-26)
(-4.74197e-05 0.000511222 -1.4451e-25)
(3.63127e-05 0.000532278 -1.33207e-25)
(-4.77586e-05 0.000532236 3.20409e-25)
(3.65189e-05 0.000553448 -1.23882e-25)
(-4.80684e-05 0.000553381 -1.73332e-27)
(3.6708e-05 0.000574739 1.83825e-25)
(-4.83509e-05 0.000574648 2.70385e-25)
(3.68813e-05 0.00059614 -1.54651e-25)
(-4.86078e-05 0.000596026 -1.79699e-25)
(3.704e-05 0.00061764 5.74072e-27)
(-4.88406e-05 0.000617504 1.59321e-25)
(3.71854e-05 0.00063923 1.57656e-26)
(-4.9051e-05 0.000639074 -3.46833e-25)
(3.73185e-05 0.000660903 -6.96878e-25)
(-4.92406e-05 0.000660727 5.30872e-26)
(3.74402e-05 0.000682649 1.89122e-25)
(-4.94108e-05 0.000682455 -2.32969e-25)
(3.75515e-05 0.000704463 -3.01252e-25)
(-4.95631e-05 0.000704251 6.15568e-25)
(3.76533e-05 0.000726336 3.22613e-25)
(-4.9699e-05 0.000726109 -4.01552e-25)
(3.77461e-05 0.000748263 -5.79333e-26)
(-4.98198e-05 0.000748022 -2.0673e-25)
(3.78309e-05 0.000770239 2.25351e-25)
(-4.99269e-05 0.000769984 7.08889e-26)
(3.7908e-05 0.000792257 1.71929e-25)
(-5.00214e-05 0.000791991 -1.43203e-25)
(3.7978e-05 0.000814315 -1.38836e-25)
(-5.01046e-05 0.000814038 -3.24184e-25)
(3.80413e-05 0.000836406 -2.66801e-25)
(-5.01776e-05 0.00083612 5.56257e-25)
(3.80984e-05 0.000858527 -7.56896e-26)
(-5.02415e-05 0.000858234 7.27358e-26)
(3.81495e-05 0.000880675 1.94005e-25)
(-5.02974e-05 0.000880376 1.66322e-25)
(3.81949e-05 0.000902847 -4.09973e-25)
(-5.03462e-05 0.000902543 4.04034e-25)
(3.82348e-05 0.000925039 6.70871e-25)
(-5.03889e-05 0.000924732 3.56462e-25)
(3.82692e-05 0.000947248 -7.27964e-25)
(-5.04262e-05 0.000946939 2.18433e-25)
(3.82984e-05 0.000969473 2.87082e-25)
(-5.04591e-05 0.000969164 -2.97474e-25)
(3.83223e-05 0.000991711 6.89694e-26)
(-5.04883e-05 0.000991403 -7.86751e-25)
(3.83409e-05 0.00101396 3.69406e-25)
(-5.05145e-05 0.00101365 3.8175e-25)
(3.83542e-05 0.00103622 -5.35156e-25)
(-5.05385e-05 0.00103592 -1.30931e-25)
(3.83621e-05 0.00105848 -1.27308e-25)
(-5.05609e-05 0.00105819 2.38738e-25)
(3.83646e-05 0.00108075 7.71688e-25)
(-5.05824e-05 0.00108046 5.26874e-25)
(3.83617e-05 0.00110303 -4.5402e-25)
(-5.06036e-05 0.00110275 -8.2947e-25)
(3.83534e-05 0.0011253 5.57157e-25)
(-5.06251e-05 0.00112504 1.66503e-25)
(3.83398e-05 0.00114758 -2.62649e-26)
(-5.06475e-05 0.00114733 -1.2588e-25)
(3.83231e-05 0.00116986 1.67408e-25)
(-5.06694e-05 0.00116962 -3.32564e-25)
(3.83066e-05 0.00119214 -2.56225e-26)
(-5.06887e-05 0.00119191 7.45924e-25)
(3.83062e-05 0.00121444 3.73305e-25)
(2.71225e-05 0.00122559 -7.41842e-26)
(4.82762e-06 0.00122549 8.76644e-26)
(-1.74209e-05 0.00122541 2.99316e-25)
(-3.96238e-05 0.00122532 -2.76716e-25)
(-5.069e-05 0.00121418 -2.96626e-25)
)
;
    }
    frontAndBackPlanes
    {
        type            empty;
    }
}


// ************************************************************************* //
