/*--------------------------------*- C++ -*----------------------------------*\
| =========                 |                                                 |
| \\      /  F ield         | OpenFOAM Extend Project: Open source CFD        |
|  \\    /   O peration     | Version:  1.6-ext                               |
|   \\  /    A nd           | Web:      www.extend-project.de                 |
|    \\/     M anipulation  |                                                 |
\*---------------------------------------------------------------------------*/
FoamFile
{
    version     2.0;
    format      ascii;
    class       volScalarField::DimensionedInternalField;
    location    "1.15";
    object      V0;
}
// * * * * * * * * * * * * * * * * * * * * * * * * * * * * * * * * * * * * * //

dimensions      [0 3 0 0 0 0 0];

value           nonuniform List<scalar> 
328
(
2.53363e-07
2.53353e-07
2.53317e-07
2.53319e-07
2.7173e-07
2.71718e-07
2.71691e-07
2.71697e-07
2.91438e-07
2.91416e-07
2.91393e-07
2.91387e-07
3.12572e-07
3.12543e-07
3.12524e-07
3.12507e-07
3.35237e-07
3.35203e-07
3.35185e-07
3.3516e-07
3.59544e-07
3.59507e-07
3.59489e-07
3.59457e-07
3.85613e-07
3.85572e-07
3.85555e-07
3.85518e-07
4.13572e-07
4.13528e-07
4.1351e-07
4.13469e-07
4.43557e-07
4.43511e-07
4.43491e-07
4.43447e-07
4.75716e-07
4.75667e-07
4.75647e-07
4.75599e-07
5.10206e-07
5.10155e-07
5.10134e-07
5.10083e-07
5.47198e-07
5.47144e-07
5.47121e-07
5.47067e-07
5.86871e-07
5.86814e-07
5.8679e-07
5.86733e-07
6.2942e-07
6.2936e-07
6.29335e-07
6.29275e-07
6.75055e-07
6.74992e-07
6.74965e-07
6.74901e-07
7.23998e-07
7.23931e-07
7.23903e-07
7.23836e-07
7.76489e-07
7.76419e-07
7.76389e-07
7.7632e-07
8.32786e-07
8.32713e-07
8.32682e-07
8.32608e-07
8.93164e-07
8.93088e-07
8.93055e-07
8.92979e-07
9.5792e-07
9.5784e-07
9.57806e-07
9.57726e-07
1.02737e-06
1.02729e-06
1.02725e-06
1.02717e-06
1.10186e-06
1.10177e-06
1.10173e-06
1.10165e-06
1.26881e-06
1.26872e-06
1.26867e-06
1.26858e-06
1.26881e-06
1.26871e-06
1.26868e-06
1.26858e-06
1.2688e-06
1.26871e-06
1.26868e-06
1.26859e-06
1.2688e-06
1.26871e-06
1.26868e-06
1.26859e-06
1.26879e-06
1.26871e-06
1.26868e-06
1.2686e-06
1.26879e-06
1.26871e-06
1.26868e-06
1.2686e-06
1.26879e-06
1.26871e-06
1.26868e-06
1.26861e-06
1.26878e-06
1.26871e-06
1.26868e-06
1.26861e-06
1.26878e-06
1.26871e-06
1.26868e-06
1.26861e-06
1.26877e-06
1.26871e-06
1.26868e-06
1.26862e-06
1.26877e-06
1.26871e-06
1.26868e-06
1.26862e-06
1.26877e-06
1.26871e-06
1.26868e-06
1.26863e-06
1.26876e-06
1.26871e-06
1.26869e-06
1.26863e-06
1.26876e-06
1.26871e-06
1.26869e-06
1.26863e-06
1.26876e-06
1.26871e-06
1.26869e-06
1.26864e-06
1.26875e-06
1.26871e-06
1.26869e-06
1.26864e-06
1.26875e-06
1.26871e-06
1.26869e-06
1.26865e-06
1.26875e-06
1.26871e-06
1.26869e-06
1.26865e-06
1.26874e-06
1.26871e-06
1.26869e-06
1.26865e-06
1.26874e-06
1.2687e-06
1.26869e-06
1.26866e-06
1.26874e-06
1.2687e-06
1.26869e-06
1.26866e-06
1.26873e-06
1.2687e-06
1.26869e-06
1.26866e-06
1.26873e-06
1.2687e-06
1.26869e-06
1.26866e-06
1.26873e-06
1.2687e-06
1.26869e-06
1.26867e-06
1.26873e-06
1.2687e-06
1.26869e-06
1.26867e-06
1.26872e-06
1.2687e-06
1.26869e-06
1.26867e-06
1.26872e-06
1.2687e-06
1.26869e-06
1.26867e-06
1.26872e-06
1.2687e-06
1.26869e-06
1.26868e-06
1.26872e-06
1.2687e-06
1.26869e-06
1.26868e-06
1.26872e-06
1.2687e-06
1.26869e-06
1.26868e-06
1.26872e-06
1.2687e-06
1.2687e-06
1.26868e-06
1.26871e-06
1.2687e-06
1.2687e-06
1.26868e-06
1.26871e-06
1.2687e-06
1.2687e-06
1.26868e-06
1.26871e-06
1.2687e-06
1.2687e-06
1.26869e-06
1.26871e-06
1.2687e-06
1.2687e-06
1.26869e-06
1.26871e-06
1.2687e-06
1.2687e-06
1.26869e-06
1.26871e-06
1.2687e-06
1.2687e-06
1.26869e-06
1.26871e-06
1.2687e-06
1.2687e-06
1.26869e-06
1.26871e-06
1.2687e-06
1.2687e-06
1.26869e-06
1.2687e-06
1.2687e-06
1.2687e-06
1.26869e-06
1.2687e-06
1.2687e-06
1.2687e-06
1.26869e-06
1.2687e-06
1.2687e-06
1.2687e-06
1.26869e-06
1.2687e-06
1.2687e-06
1.2687e-06
1.26869e-06
1.2687e-06
1.2687e-06
1.2687e-06
1.26869e-06
1.2687e-06
1.2687e-06
1.2687e-06
1.26869e-06
1.2687e-06
1.2687e-06
1.2687e-06
1.26869e-06
1.2687e-06
1.2687e-06
1.2687e-06
1.26869e-06
1.2687e-06
1.2687e-06
1.2687e-06
1.26869e-06
1.2687e-06
1.2687e-06
1.2687e-06
1.2687e-06
1.2687e-06
1.2687e-06
1.2687e-06
1.2687e-06
1.2687e-06
1.2687e-06
1.2687e-06
1.2687e-06
1.2687e-06
1.2687e-06
1.2687e-06
1.2687e-06
1.2687e-06
1.2687e-06
1.2687e-06
1.2687e-06
1.2687e-06
1.2687e-06
1.2687e-06
1.2687e-06
1.2687e-06
1.2687e-06
1.2687e-06
1.2687e-06
1.2687e-06
1.2687e-06
1.2687e-06
1.2687e-06
1.2687e-06
1.2687e-06
1.2687e-06
1.2687e-06
1.2687e-06
1.2687e-06
1.2687e-06
1.2687e-06
1.2687e-06
1.26869e-06
1.26869e-06
1.2687e-06
1.26869e-06
1.26869e-06
1.26869e-06
1.26869e-06
)
;


// ************************************************************************* //
