/*--------------------------------*- C++ -*----------------------------------*\
| =========                 |                                                 |
| \\      /  F ield         | OpenFOAM Extend Project: Open source CFD        |
|  \\    /   O peration     | Version:  1.6-ext                               |
|   \\  /    A nd           | Web:      www.extend-project.de                 |
|    \\/     M anipulation  |                                                 |
\*---------------------------------------------------------------------------*/
FoamFile
{
    version     2.0;
    format      ascii;
    class       volVectorField;
    location    "1.15";
    object      Vs;
}
// * * * * * * * * * * * * * * * * * * * * * * * * * * * * * * * * * * * * * //

dimensions      [0 1 -1 0 0 0 0];

internalField   nonuniform List<vector> 
328
(
(1.19227e-06 -4.1766e-06 0)
(1.8708e-06 -8.24163e-07 0)
(1.8602e-06 9.90946e-07 0)
(1.10599e-06 4.44106e-06 0)
(3.71463e-06 -1.06307e-05 0)
(5.40816e-06 -2.35401e-06 0)
(5.37009e-06 2.91018e-06 0)
(3.46237e-06 1.14009e-05 0)
(6.03017e-06 -1.53159e-05 0)
(8.31467e-06 -3.73704e-06 0)
(8.23727e-06 4.75352e-06 0)
(5.6082e-06 1.66013e-05 0)
(8.4153e-06 -1.85157e-05 0)
(1.09962e-05 -4.84811e-06 0)
(1.0877e-05 6.39424e-06 0)
(7.83121e-06 2.03409e-05 0)
(1.08342e-05 -2.05944e-05 0)
(1.34218e-05 -5.64581e-06 0)
(1.32602e-05 7.78899e-06 0)
(1.01005e-05 2.29962e-05 0)
(1.33528e-05 -2.18317e-05 0)
(1.57535e-05 -6.12147e-06 0)
(1.55534e-05 8.92793e-06 0)
(1.24894e-05 2.48552e-05 0)
(1.59767e-05 -2.24565e-05 0)
(1.80511e-05 -6.30468e-06 0)
(1.78195e-05 9.83879e-06 0)
(1.50105e-05 2.61519e-05 0)
(1.87248e-05 -2.26395e-05 0)
(2.04059e-05 -6.23951e-06 0)
(2.01527e-05 1.05627e-05 0)
(1.76903e-05 2.70584e-05 0)
(2.16053e-05 -2.25139e-05 0)
(2.28777e-05 -5.97972e-06 0)
(2.26163e-05 1.1148e-05 0)
(2.05453e-05 2.77052e-05 0)
(2.46295e-05 -2.21801e-05 0)
(2.55236e-05 -5.57841e-06 0)
(2.52706e-05 1.16392e-05 0)
(2.35962e-05 2.81858e-05 0)
(2.78091e-05 -2.17157e-05 0)
(2.83856e-05 -5.08514e-06 0)
(2.81612e-05 1.20726e-05 0)
(2.68651e-05 2.85652e-05 0)
(3.11583e-05 -2.11805e-05 0)
(3.14975e-05 -4.54336e-06 0)
(3.13262e-05 1.2472e-05 0)
(3.03783e-05 2.88843e-05 0)
(3.46929e-05 -2.06222e-05 0)
(3.4885e-05 -3.99122e-06 0)
(3.47957e-05 1.28477e-05 0)
(3.4165e-05 2.91631e-05 0)
(3.84304e-05 -2.00811e-05 0)
(3.85682e-05 -3.46334e-06 0)
(3.8595e-05 1.3196e-05 0)
(3.8258e-05 2.94037e-05 0)
(4.23891e-05 -1.95945e-05 0)
(4.25636e-05 -2.99399e-06 0)
(4.27463e-05 1.34992e-05 0)
(4.26927e-05 2.95918e-05 0)
(4.65876e-05 -1.92018e-05 0)
(4.68864e-05 -2.62078e-06 0)
(4.72712e-05 1.37262e-05 0)
(4.75065e-05 2.96983e-05 0)
(5.10443e-05 -1.89488e-05 0)
(5.15519e-05 -2.38867e-06 0)
(5.21921e-05 1.38318e-05 0)
(5.27392e-05 2.96791e-05 0)
(5.5777e-05 -1.88923e-05 0)
(5.65768e-05 -2.35413e-06 0)
(5.75334e-05 1.37562e-05 0)
(5.8432e-05 2.94751e-05 0)
(6.08031e-05 -1.91044e-05 0)
(6.19795e-05 -2.58936e-06 0)
(6.3322e-05 1.34225e-05 0)
(6.46276e-05 2.90102e-05 0)
(6.61398e-05 -1.96771e-05 0)
(6.77808e-05 -3.18649e-06 0)
(6.95878e-05 1.27345e-05 0)
(7.13706e-05 2.81887e-05 0)
(7.18036e-05 -2.0727e-05 0)
(7.40034e-05 -4.26222e-06 0)
(7.63632e-05 1.15722e-05 0)
(7.87066e-05 2.68915e-05 0)
(7.78114e-05 -2.23996e-05 0)
(8.06717e-05 -5.96245e-06 0)
(8.36825e-05 9.7875e-06 0)
(8.66825e-05 2.49715e-05 0)
(8.44225e-05 -2.49697e-05 0)
(8.80839e-05 -8.56353e-06 0)
(9.18834e-05 7.09968e-06 0)
(9.5677e-05 2.21438e-05 0)
(9.14079e-05 -2.86606e-05 0)
(9.59973e-05 -1.22887e-05 0)
(0.000100711 3.28822e-06 0)
(0.000105423 1.81946e-05 0)
(9.83052e-05 -3.33575e-05 0)
(0.000103885 -1.70203e-05 0)
(0.000109575 -1.52324e-06 0)
(0.000115266 1.32581e-05 0)
(0.000105118 -3.9118e-05 0)
(0.000111741 -2.28159e-05 0)
(0.00011846 -7.39237e-06 0)
(0.000125184 7.27665e-06 0)
(0.000111851 -4.59911e-05 0)
(0.000119561 -2.97245e-05 0)
(0.000127356 -1.43682e-05 0)
(0.000135157 2.00874e-07 0)
(0.000118507 -5.4017e-05 0)
(0.000127343 -3.77862e-05 0)
(0.000136248 -2.24914e-05 0)
(0.000145164 -8.01e-06 0)
(0.000125091 -6.32273e-05 0)
(0.00013508 -4.70327e-05 0)
(0.000145127 -3.17936e-05 0)
(0.000155186 -1.73882e-05 0)
(0.000131607 -7.36451e-05 0)
(0.000142771 -5.74871e-05 0)
(0.00015398 -4.22982e-05 0)
(0.000165204 -2.79574e-05 0)
(0.000138061 -8.52853e-05 0)
(0.000150412 -6.91642e-05 0)
(0.000162797 -5.40203e-05 0)
(0.000175199 -3.97333e-05 0)
(0.000144454 -9.81549e-05 0)
(0.000158 -8.20708e-05 0)
(0.000171568 -6.69668e-05 0)
(0.000185155 -5.27235e-05 0)
(0.000150792 -0.000112254 0)
(0.000165532 -9.62064e-05 0)
(0.000180284 -8.11376e-05 0)
(0.000195056 -6.69285e-05 0)
(0.000157075 -0.000127575 0)
(0.000173004 -0.000111564 0)
(0.000188935 -9.65259e-05 0)
(0.000204888 -8.23424e-05 0)
(0.000163307 -0.000144107 0)
(0.000180414 -0.000128131 0)
(0.000197515 -0.000113119 0)
(0.000214637 -9.89533e-05 0)
(0.000169488 -0.000161832 0)
(0.000187758 -0.00014589 0)
(0.000206015 -0.0001309 0)
(0.000224293 -0.000116745 0)
(0.000175616 -0.00018073 0)
(0.000195032 -0.00016482 0)
(0.000214428 -0.000149848 0)
(0.000233844 -0.000135698 0)
(0.000181693 -0.000200777 0)
(0.000202233 -0.000184898 0)
(0.00022275 -0.00016994 0)
(0.000243284 -0.000155788 0)
(0.000187714 -0.000221948 0)
(0.000209358 -0.000206096 0)
(0.000230974 -0.000191149 0)
(0.000252605 -0.000176992 0)
(0.000193677 -0.000244218 0)
(0.000216403 -0.000228391 0)
(0.000239096 -0.000213451 0)
(0.000261801 -0.000199284 0)
(0.000199578 -0.00026756 0)
(0.000223362 -0.000251754 0)
(0.000247111 -0.000236818 0)
(0.000270868 -0.000222639 0)
(0.000205414 -0.000291949 0)
(0.000230234 -0.00027616 0)
(0.000255016 -0.000261225 0)
(0.000279803 -0.000247031 0)
(0.000211177 -0.00031736 0)
(0.000237013 -0.000301585 0)
(0.000262809 -0.000286648 0)
(0.000288605 -0.000272438 0)
(0.000216865 -0.000343771 0)
(0.000243695 -0.000328007 0)
(0.000270485 -0.000313065 0)
(0.000297272 -0.000298836 0)
(0.00022247 -0.000371163 0)
(0.000250278 -0.000355404 0)
(0.000278045 -0.000340456 0)
(0.000305803 -0.000326207 0)
(0.000227987 -0.000399516 0)
(0.000256757 -0.000383759 0)
(0.000285485 -0.000368802 0)
(0.0003142 -0.000354533 0)
(0.000233411 -0.000428815 0)
(0.000263129 -0.000413057 0)
(0.000292805 -0.000398088 0)
(0.000322464 -0.000383799 0)
(0.000238737 -0.000459049 0)
(0.000269391 -0.000443286 0)
(0.000300003 -0.000428303 0)
(0.000330595 -0.000413993 0)
(0.000243959 -0.000490206 0)
(0.00027554 -0.000474436 0)
(0.00030708 -0.000459438 0)
(0.000338596 -0.000445107 0)
(0.000249073 -0.000522281 0)
(0.000281574 -0.000506499 0)
(0.000314035 -0.000491486 0)
(0.000346468 -0.000477133 0)
(0.000254077 -0.000555268 0)
(0.000287493 -0.000539473 0)
(0.000320868 -0.000524442 0)
(0.000354212 -0.000510069 0)
(0.000258967 -0.000589164 0)
(0.000293293 -0.000573355 0)
(0.000327579 -0.000558305 0)
(0.000361832 -0.000543911 0)
(0.000263743 -0.000623968 0)
(0.000298976 -0.000608143 0)
(0.000334169 -0.000593075 0)
(0.000369328 -0.00057866 0)
(0.000268405 -0.000659679 0)
(0.000304543 -0.000643839 0)
(0.000340638 -0.000628752 0)
(0.000376702 -0.000614316 0)
(0.000272955 -0.000696298 0)
(0.000309993 -0.000680443 0)
(0.000346989 -0.000665337 0)
(0.000383954 -0.00065088 0)
(0.000277395 -0.000733824 0)
(0.00031533 -0.000717955 0)
(0.000353223 -0.000702831 0)
(0.000391086 -0.000688353 0)
(0.000281731 -0.000772254 0)
(0.000320558 -0.000756374 0)
(0.000359341 -0.000741233 0)
(0.000398099 -0.000726735 0)
(0.000285969 -0.000811584 0)
(0.00032568 -0.000795697 0)
(0.000365347 -0.000780542 0)
(0.000404992 -0.000766022 0)
(0.000290118 -0.000851809 0)
(0.000330703 -0.000835919 0)
(0.000371243 -0.000820752 0)
(0.000411768 -0.000806212 0)
(0.000294187 -0.000892918 0)
(0.000335632 -0.000877031 0)
(0.000377034 -0.000861854 0)
(0.000418426 -0.000847295 0)
(0.000298188 -0.000934897 0)
(0.000340478 -0.00091902 0)
(0.000382724 -0.000903838 0)
(0.000424969 -0.000889261 0)
(0.000302134 -0.00097773 0)
(0.000345249 -0.000961871 0)
(0.000388321 -0.000946688 0)
(0.000431399 -0.000932095 0)
(0.000306041 -0.00102139 0)
(0.000349956 -0.00100556 0)
(0.00039383 -0.000990385 0)
(0.000437721 -0.000975779 0)
(0.000309925 -0.00106586 0)
(0.000354612 -0.00105007 0)
(0.000399262 -0.0010349 0)
(0.000443939 -0.00102029 0)
(0.000313806 -0.0011111 0)
(0.000359232 -0.00109536 0)
(0.000404626 -0.00108021 0)
(0.00045006 -0.0010656 0)
(0.000317704 -0.00115709 0)
(0.000363834 -0.0011414 0)
(0.000409937 -0.00112629 0)
(0.000456094 -0.00111167 0)
(0.000321642 -0.00120376 0)
(0.000368435 -0.00118815 0)
(0.000415209 -0.00117308 0)
(0.000462051 -0.00115848 0)
(0.000325645 -0.0012511 0)
(0.000373057 -0.00123558 0)
(0.000420459 -0.00122056 0)
(0.000467947 -0.00120599 0)
(0.000329743 -0.00129903 0)
(0.000377724 -0.00128363 0)
(0.00042571 -0.00126868 0)
(0.0004738 -0.00125414 0)
(0.000333964 -0.00134752 0)
(0.000382465 -0.00133224 0)
(0.000430985 -0.00131739 0)
(0.000479629 -0.0013029 0)
(0.000338343 -0.00139651 0)
(0.000387309 -0.00138138 0)
(0.000436312 -0.00136663 0)
(0.000485463 -0.00135222 0)
(0.000342917 -0.00144593 0)
(0.000392291 -0.00143098 0)
(0.000441725 -0.00141636 0)
(0.00049133 -0.00140204 0)
(0.000347726 -0.00149572 0)
(0.00039745 -0.00148097 0)
(0.000447261 -0.00146651 0)
(0.000497269 -0.00145231 0)
(0.000352815 -0.00154581 0)
(0.00040283 -0.0015313 0)
(0.000452963 -0.00151703 0)
(0.000503323 -0.00150297 0)
(0.000358233 -0.00159614 0)
(0.00040848 -0.0015819 0)
(0.000458881 -0.00156785 0)
(0.000509543 -0.00155398 0)
(0.000364034 -0.00164665 0)
(0.000414456 -0.00163271 0)
(0.000465074 -0.00161892 0)
(0.000515987 -0.00160528 0)
(0.000370278 -0.00169725 0)
(0.000420821 -0.00168366 0)
(0.000471606 -0.00167019 0)
(0.000522725 -0.00165682 0)
(0.000377032 -0.0017479 0)
(0.000427649 -0.0017347 0)
(0.000478557 -0.00172159 0)
(0.000529836 -0.00170855 0)
(0.000384364 -0.00179851 0)
(0.000435021 -0.00178576 0)
(0.000486012 -0.00177309 0)
(0.000537406 -0.00176045 0)
(0.000392367 -0.00184905 0)
(0.000443048 -0.00183681 0)
(0.00049409 -0.00182464 0)
(0.000545546 -0.00181247 0)
(0.000401091 -0.00189947 0)
(0.000451807 -0.00188781 0)
(0.000502875 -0.00187621 0)
(0.000554332 -0.00186457 0)
(0.000410719 -0.00194996 0)
(0.000461488 -0.00193879 0)
(0.000512565 -0.00192769 0)
(0.000563972 -0.00191654 0)
)
;

boundaryField
{
    plateFix
    {
        type            calculated;
        value           uniform (0 0 0);
    }
    plate
    {
        type            calculated;
        value           nonuniform List<vector> 
168
(
(-1.70329e-05 -1.13172e-05 -5.95273e-23)
(-1.83792e-05 1.188e-05 4.11438e-23)
(-9.34461e-06 -1.80224e-05 7.81262e-23)
(-1.07768e-05 1.90728e-05 -4.23626e-23)
(-2.60516e-06 -2.30665e-05 7.67376e-23)
(-4.16473e-06 2.46105e-05 7.0812e-23)
(3.01249e-06 -2.64221e-05 -6.38173e-23)
(1.30524e-06 2.84753e-05 -1.48656e-22)
(7.6557e-06 -2.86326e-05 -8.97864e-24)
(5.79743e-06 3.12271e-05 4.68708e-23)
(1.16733e-05 -2.99536e-05 2.71958e-23)
(9.67782e-06 3.31301e-05 1.07663e-24)
(1.52781e-05 -3.06499e-05 -3.29307e-23)
(1.31735e-05 3.44554e-05 2.33936e-23)
(1.86486e-05 -3.08925e-05 6.47892e-24)
(1.64766e-05 3.53755e-05 1.61837e-23)
(2.19028e-05 -3.08202e-05 2.20289e-23)
(1.97184e-05 3.60271e-05 1.71658e-23)
(2.51315e-05 -3.05328e-05 -4.40027e-23)
(2.30033e-05 3.65031e-05 -4.77712e-23)
(2.84006e-05 -3.01079e-05 -2.91899e-25)
(2.64123e-05 3.68688e-05 2.89964e-23)
(3.17623e-05 -2.96048e-05 1.82491e-23)
(3.00138e-05 3.71642e-05 -2.35181e-23)
(3.52574e-05 -2.90712e-05 -1.20935e-23)
(3.38669e-05 3.74097e-05 1.30785e-23)
(3.89187e-05 -2.85478e-05 -3.61634e-24)
(3.80249e-05 3.76079e-05 -1.92225e-23)
(4.27729e-05 -2.80729e-05 2.21503e-24)
(4.25375e-05 3.77454e-05 1.76188e-23)
(4.68415e-05 -2.76869e-05 -3.00381e-24)
(4.74518e-05 3.77942e-05 -7.04053e-24)
(5.11422e-05 -2.74367e-05 4.12934e-24)
(5.28141e-05 3.77117e-05 4.54734e-24)
(5.56899e-05 -2.738e-05 3.4293e-24)
(5.86707e-05 3.74399e-05 4.56948e-24)
(6.04976e-05 -2.75897e-05 -1.38588e-24)
(6.50687e-05 3.69039e-05 2.32661e-24)
(6.55769e-05 -2.81584e-05 1.62658e-23)
(7.20565e-05 3.60088e-05 8.07109e-24)
(7.0939e-05 -2.92028e-05 -1.40281e-23)
(7.96844e-05 3.46366e-05 -2.17664e-23)
(7.65949e-05 -3.08686e-05 1.29985e-23)
(8.80037e-05 3.2641e-05 1.04022e-23)
(8.2782e-05 -3.34299e-05 -8.20568e-24)
(9.74145e-05 2.97356e-05 -1.6203e-24)
(8.92807e-05 -3.71097e-05 1.18993e-23)
(0.000107639 2.57097e-05 1.37678e-23)
(9.56607e-05 -4.17944e-05 -7.36104e-24)
(0.00011799 2.07038e-05 1.43854e-24)
(0.00010193 -4.75418e-05 2.03544e-23)
(0.000128443 1.46601e-05 -1.44944e-23)
(0.000108096 -5.44007e-05 1.41105e-23)
(0.000138974 7.52917e-06 -1.12645e-23)
(0.000114168 -6.24114e-05 1.33291e-23)
(0.000149557 -7.29828e-07 -2.60776e-23)
(0.000120155 -7.16055e-05 2.97794e-23)
(0.000160169 -1.01493e-05 -1.59158e-23)
(0.000126065 -8.20059e-05 -1.60365e-23)
(0.000170786 -2.07534e-05 -2.14133e-23)
(0.000131905 -9.36279e-05 6.82597e-25)
(0.000181386 -3.25579e-05 -6.56299e-24)
(0.000137685 -0.000106479 2.79918e-25)
(0.000191949 -4.55709e-05 -1.49727e-23)
(0.00014341 -0.000120558 -1.06816e-23)
(0.000202456 -5.97933e-05 -4.41332e-24)
(0.000149086 -0.000135859 6.03257e-24)
(0.000212889 -7.52196e-05 -8.17242e-25)
(0.000154718 -0.000152371 -1.0238e-23)
(0.000223232 -9.18386e-05 -2.55466e-24)
(0.000160307 -0.000170077 3.03268e-24)
(0.000233472 -0.000109634 1.23458e-23)
(0.000165856 -0.000188955 -1.73063e-23)
(0.000243598 -0.000128588 -5.34598e-25)
(0.000171365 -0.000208984 1.48747e-26)
(0.0002536 -0.000148676 -4.91984e-25)
(0.000176831 -0.000230139 -9.33298e-24)
(0.00026347 -0.000169876 2.3088e-23)
(0.000182252 -0.000252393 -2.57933e-24)
(0.000273202 -0.000192161 3.7714e-24)
(0.000187625 -0.000275721 -4.22331e-24)
(0.000282794 -0.000215508 -1.45023e-24)
(0.000192943 -0.000300098 -2.13899e-24)
(0.000292241 -0.000239891 1.29062e-23)
(0.000198203 -0.000325499 6.92451e-24)
(0.000301543 -0.000265287 -2.013e-24)
(0.000203396 -0.000351903 -7.15753e-24)
(0.0003107 -0.000291675 -5.98852e-24)
(0.000208517 -0.000379289 3.53394e-24)
(0.000319712 -0.000319035 1.04819e-23)
(0.000213558 -0.000407638 1.11541e-24)
(0.000328582 -0.00034735 4.12481e-24)
(0.000218513 -0.000436936 6.23855e-24)
(0.000337311 -0.000376605 -7.11822e-24)
(0.000223375 -0.000467171 1.00834e-23)
(0.000345903 -0.000406789 1.74157e-23)
(0.000228137 -0.000498331 -7.8766e-24)
(0.00035436 -0.000437892 -1.75423e-23)
(0.000232795 -0.00053041 2.49915e-24)
(0.000362686 -0.000469908 -5.68759e-24)
(0.000237345 -0.000563402 1.24844e-23)
(0.000370883 -0.000502833 -1.39935e-23)
(0.000241782 -0.000597305 9.61932e-25)
(0.000378955 -0.000536666 3.04706e-24)
(0.000246105 -0.000632116 -1.29628e-23)
(0.000386903 -0.000571405 9.69372e-25)
(0.000250315 -0.000667834 5.68323e-24)
(0.000394729 -0.000607051 -1.50448e-23)
(0.000254412 -0.00070446 6.47358e-24)
(0.000402435 -0.000643605 -7.05369e-24)
(0.0002584 -0.000741991 5.1661e-24)
(0.000410019 -0.000681068 -5.69305e-24)
(0.000262286 -0.000780425 -1.67972e-23)
(0.000417484 -0.00071944 4.45629e-24)
(0.000266076 -0.000819757 2.33167e-23)
(0.000424828 -0.000758717 -1.57744e-23)
(0.000269781 -0.000859981 6.97391e-24)
(0.000432051 -0.000798896 1.05157e-23)
(0.000273412 -0.000901086 -8.2989e-24)
(0.000439152 -0.000839969 -2.43715e-24)
(0.000276983 -0.000943058 5.78959e-24)
(0.000446131 -0.000881926 5.71075e-25)
(0.000280509 -0.000985879 -1.5645e-24)
(0.000452989 -0.000924751 1.03071e-23)
(0.000284008 -0.00102953 1.06645e-23)
(0.000459728 -0.000968427 -2.00346e-23)
(0.000287498 -0.00107397 1.77138e-24)
(0.00046635 -0.00101293 1.03922e-23)
(0.000291002 -0.00111919 -5.80676e-25)
(0.000472861 -0.00105824 3.8272e-24)
(0.000294541 -0.00116513 -1.67967e-23)
(0.000479269 -0.00110431 7.90968e-24)
(0.000298142 -0.00121177 -8.33267e-24)
(0.000485581 -0.00115112 -1.16869e-23)
(0.000301831 -0.00125905 -8.08984e-24)
(0.000491812 -0.00119864 1.21098e-23)
(0.000305639 -0.00130692 -2.20782e-23)
(0.000497976 -0.00124681 1.73857e-26)
(0.000309599 -0.00135534 4.24803e-24)
(0.000504094 -0.00129559 4.3743e-24)
(0.000313746 -0.00140424 -4.01911e-24)
(0.00051019 -0.00134494 1.35832e-23)
(0.000318119 -0.00145356 -1.12677e-24)
(0.000516295 -0.0013948 -2.37437e-23)
(0.000322759 -0.00150324 -1.42442e-23)
(0.000522443 -0.00144512 1.41821e-23)
(0.000327712 -0.00155321 -4.72627e-24)
(0.000528679 -0.00149586 1.49732e-23)
(0.000333028 -0.0016034 2.65369e-23)
(0.000535054 -0.00154696 3.08202e-23)
(0.00033876 -0.00165374 -1.96728e-23)
(0.000541629 -0.00159837 -1.61223e-23)
(0.000344968 -0.00170417 -6.2174e-24)
(0.000548473 -0.00165004 2.71221e-23)
(0.000351719 -0.0017546 3.40505e-23)
(0.000555671 -0.00170194 5.45374e-24)
(0.000359077 -0.00180499 -2.84992e-23)
(0.000563308 -0.00175404 -5.83798e-24)
(0.000367126 -0.00185527 -1.76654e-23)
(0.000571496 -0.00180628 -4.03457e-27)
(0.000375862 -0.0019054 3.02936e-23)
(0.000580263 -0.00185866 3.69697e-23)
(0.000385387 -0.00195559 1.92181e-23)
(0.00041586 -0.00197537 1.94332e-24)
(0.000466641 -0.00196429 -3.47388e-25)
(0.000517721 -0.00195335 1.22532e-24)
(0.000569115 -0.00194231 -3.0114e-25)
(0.000589754 -0.00191091 6.59321e-27)
)
;
    }
    frontAndBackPlanes
    {
        type            empty;
    }
}


// ************************************************************************* //
