/*--------------------------------*- C++ -*----------------------------------*\
| =========                 |                                                 |
| \\      /  F ield         | OpenFOAM Extend Project: Open source CFD        |
|  \\    /   O peration     | Version:  1.6-ext                               |
|   \\  /    A nd           | Web:      www.extend-project.de                 |
|    \\/     M anipulation  |                                                 |
\*---------------------------------------------------------------------------*/
FoamFile
{
    version     2.0;
    format      ascii;
    class       volScalarField;
    location    "0.1";
    object      p;
}
// * * * * * * * * * * * * * * * * * * * * * * * * * * * * * * * * * * * * * //

dimensions      [0 2 -2 0 0 0 0];

internalField   nonuniform List<scalar> 
72
(
0.355982
0.309971
0.305085
0.299066
0.294647
0.292554
0.292356
0.293938
0.297924
0.330791
0.302158
0.302785
0.299269
0.296089
0.29481
0.295185
0.297134
0.301359
0.318647
0.294762
0.297992
0.296184
0.294016
0.293342
0.294048
0.296143
0.300505
0.308644
0.286792
0.291515
0.290831
0.289338
0.288982
0.289714
0.291609
0.295842
0.2993
0.278423
0.283872
0.283763
0.282479
0.281973
0.282179
0.283083
0.286434
0.290139
0.269768
0.275385
0.275326
0.273698
0.272402
0.27122
0.269679
0.269748
0.281178
0.261061
0.266418
0.265886
0.263273
0.260378
0.256587
0.249455
0.234548
0.272759
0.252725
0.257473
0.255914
0.251582
0.246379
0.240088
0.232626
0.172114
)
;

boundaryField
{
    inlet
    {
        type            zeroGradient;
    }
    outlet
    {
        type            totalPressure;
        rho             none;
        psi             none;
        gamma           1;
        p0              nonuniform 0();
        value           nonuniform 0();
    }
    fixedWalls
    {
        type            zeroGradient;
    }
    frontAndBack
    {
        type            empty;
    }
    procBoundary3to2
    {
        type            processor;
        value           nonuniform List<scalar> 9(0.265456 0.24537 0.249247 0.246125 0.238777 0.227607 0.208432 0.170091 0.0649059);
    }
}


// ************************************************************************* //
