/*--------------------------------*- C++ -*----------------------------------*\
| =========                 |                                                 |
| \\      /  F ield         | OpenFOAM Extend Project: Open source CFD        |
|  \\    /   O peration     | Version:  1.6-ext                               |
|   \\  /    A nd           | Web:      www.extend-project.de                 |
|    \\/     M anipulation  |                                                 |
\*---------------------------------------------------------------------------*/
FoamFile
{
    version     2.0;
    format      ascii;
    class       volScalarField;
    location    "1";
    object      p;
}
// * * * * * * * * * * * * * * * * * * * * * * * * * * * * * * * * * * * * * //

dimensions      [0 2 -2 0 0 0 0];

internalField   nonuniform List<scalar> 
70
(
-0.118667
-0.0635323
-0.0189981
0.0146083
0.0342243
0.0443616
0.0475629
-0.106137
-0.0808409
-0.0499104
-0.0243671
-0.00847792
-0.000689536
0.00221182
0.00243606
0.000881138
-0.0683695
-0.0540013
-0.0321123
-0.0142598
-0.0036085
0.00134871
0.00287543
0.0024884
0.000613426
-0.0275312
-0.0233399
-0.0135449
-0.00468665
0.000712105
0.00299773
0.00325223
0.0023577
0.000348574
0.00264084
-0.000996331
0.000152024
0.00242844
0.00381245
0.00396617
0.00321351
0.00199337
7.37373e-05
0.0206865
0.0127484
0.0087209
0.00668856
0.00531257
0.00402434
0.00269
0.0014066
-0.000184482
0.0302887
0.0198641
0.0128482
0.00834668
0.00541382
0.00338862
0.00188457
0.000749002
-0.000355097
0.0321612
0.0201189
0.0117104
0.00638
0.00320169
0.00133787
0.000223123
-0.000431834
-0.000733071
)
;

boundaryField
{
    inlet
    {
        type            zeroGradient;
    }
    outlet
    {
        type            totalPressure;
        rho             none;
        psi             none;
        gamma           1;
        p0              uniform 0;
        value           uniform 0;
    }
    fixedWalls
    {
        type            zeroGradient;
    }
    frontAndBack
    {
        type            empty;
    }
    procBoundary1to2
    {
        type            processor;
        value           nonuniform List<scalar> 7(-0.14195 -0.0382679 0.00816409 0.0370875 0.0532671 0.0613389 0.0650289);
    }
    procBoundary1to0
    {
        type            processor;
        value           nonuniform List<scalar> 9(-0.118748 -0.0814108 -0.0528565 -0.0279698 -0.011055 -0.00218864 0.00147829 0.00220339 0.00111039);
    }
}


// ************************************************************************* //
