/*--------------------------------*- C++ -*----------------------------------*\
| =========                 |                                                 |
| \\      /  F ield         | OpenFOAM Extend Project: Open source CFD        |
|  \\    /   O peration     | Version:  1.6-ext                               |
|   \\  /    A nd           | Web:      www.extend-project.de                 |
|    \\/     M anipulation  |                                                 |
\*---------------------------------------------------------------------------*/
FoamFile
{
    version     2.0;
    format      ascii;
    class       surfaceScalarField;
    location    "1";
    object      phi;
}
// * * * * * * * * * * * * * * * * * * * * * * * * * * * * * * * * * * * * * //

dimensions      [0 3 -1 0 0 0 0];

internalField   nonuniform List<scalar> 
123
(
2.31274e-05
0.000264795
3.02992e-05
0.000518995
2.55238e-05
0.000570016
1.32001e-05
0.000547465
1.72577e-06
0.000499464
-3.1015e-06
0.000405497
0.000193767
0.000295331
-9.03334e-05
0.000317684
-0.000175122
0.000318637
-0.000214136
0.000306132
-0.000208614
0.000290549
-0.000178061
0.000277352
-0.000140836
0.000268015
-0.000106226
0.000262342
-7.71975e-05
-5.08602e-05
0.000498397
-6.9736e-05
0.000465624
-0.000142348
0.000422663
-0.000171175
0.000379336
-0.000165287
0.000343526
-0.000142252
0.000317179
-0.000114488
0.000299007
-8.80535e-05
0.000287182
-6.53734e-05
-4.3932e-05
0.000547868
-4.7588e-05
0.000505318
-9.97975e-05
0.000455683
-0.00012154
0.000409437
-0.000119041
0.000371238
-0.000104053
0.00034187
-8.51195e-05
0.000320315
-6.64987e-05
0.000305173
-5.02318e-05
-3.45021e-05
0.000533192
-3.33152e-05
0.000499486
-6.6091e-05
0.000457703
-7.97579e-05
0.000416743
-7.80813e-05
0.00038102
-6.83292e-05
0.000351965
-5.60643e-05
0.000329528
-4.40618e-05
0.000312933
-3.3637e-05
-2.37599e-05
0.000489319
-2.31703e-05
0.000463118
-3.98892e-05
0.000429027
-4.56674e-05
0.000394212
-4.32665e-05
0.000362811
-3.69284e-05
0.000336492
-2.97453e-05
0.000315604
-2.31734e-05
0.000299698
-1.77312e-05
-1.31505e-05
0.000394162
-1.18355e-05
0.000370886
-1.66132e-05
0.000342367
-1.71483e-05
0.000314103
-1.50024e-05
0.000289148
-1.19736e-05
0.000268554
-9.15165e-06
0.000252306
-6.92562e-06
0.000239906
-5.33076e-06
-4.55874e-06
0.000181932
0.000165318
0.00014817
0.000133168
0.000121194
0.000112043
0.000105117
9.97862e-05
)
;

boundaryField
{
    inlet
    {
        type            calculated;
        value           nonuniform 0();
    }
    outlet
    {
        type            calculated;
        value           nonuniform List<scalar> 7(0.000259318 0.000280254 0.000295744 0.000302191 0.000289089 0.000231314 9.52275e-05);
    }
    fixedWalls
    {
        type            calculated;
        value           uniform 0;
    }
    frontAndBack
    {
        type            empty;
    }
    procBoundary1to2
    {
        type            processor;
        value           nonuniform List<scalar> 7(-0.000287923 -0.000526167 -0.000565241 -0.000535141 -0.00048799 -0.000400669 -0.000196869);
    }
    procBoundary1to0
    {
        type            processor;
        value           nonuniform List<scalar> 9(5.97974e-05 0.000152769 0.000213183 0.000221119 0.000193645 0.000154032 0.000115563 8.287e-05 5.3884e-05);
    }
}


// ************************************************************************* //
