/*--------------------------------*- C++ -*----------------------------------*\
| =========                 |                                                 |
| \\      /  F ield         | OpenFOAM Extend Project: Open source CFD        |
|  \\    /   O peration     | Version:  1.6-ext                               |
|   \\  /    A nd           | Web:      www.extend-project.de                 |
|    \\/     M anipulation  |                                                 |
\*---------------------------------------------------------------------------*/
FoamFile
{
    version     2.0;
    format      ascii;
    class       volVectorField;
    location    "1";
    object      U;
}
// * * * * * * * * * * * * * * * * * * * * * * * * * * * * * * * * * * * * * //

dimensions      [0 1 -1 0 0 0 0];

internalField   nonuniform List<vector> 
70
(
(0.235892 0.0277938 0)
(0.521495 0.0265862 0)
(0.576843 0.0335815 0)
(0.548906 0.0187983 0)
(0.498908 0.00617233 0)
(0.406684 -0.00311465 0)
(0.197094 -0.00378938 0)
(0.280762 -0.0926088 0)
(0.318215 -0.178308 0)
(0.325469 -0.224092 0)
(0.31289 -0.223381 0)
(0.296203 -0.192731 0)
(0.281796 -0.152411 0)
(0.271007 -0.114206 0)
(0.264258 -0.0821696 0)
(0.259118 -0.0536264 0)
(0.515629 -0.0793873 0)
(0.4928 -0.160542 0)
(0.447728 -0.195515 0)
(0.398429 -0.189181 0)
(0.357603 -0.161648 0)
(0.327316 -0.128887 0)
(0.305789 -0.0982732 0)
(0.291867 -0.0723128 0)
(0.280764 -0.04815 0)
(0.569169 -0.0543836 0)
(0.534174 -0.117795 0)
(0.482449 -0.143649 0)
(0.430512 -0.140335 0)
(0.387342 -0.122295 0)
(0.354037 -0.0997301 0)
(0.328973 -0.0776414 0)
(0.311648 -0.0583466 0)
(0.296755 -0.0396893 0)
(0.548379 -0.0403691 0)
(0.522052 -0.0819318 0)
(0.480683 -0.0990871 0)
(0.436499 -0.0972119 0)
(0.39704 -0.0853646 0)
(0.364633 -0.070246 0)
(0.338951 -0.0552603 0)
(0.320345 -0.0421059 0)
(0.30354 -0.0293306 0)
(0.500282 -0.0283081 0)
(0.480469 -0.0519114 0)
(0.447899 -0.0611379 0)
(0.411507 -0.0591751 0)
(0.377415 -0.0514378 0)
(0.348318 -0.0420288 0)
(0.324616 -0.03301 0)
(0.306947 -0.0252874 0)
(0.2906 -0.0182511 0)
(0.403641 -0.0185077 0)
(0.38519 -0.0275355 0)
(0.357716 -0.0294311 0)
(0.328067 -0.0265016 0)
(0.300814 -0.0216754 0)
(0.277867 -0.0168752 0)
(0.259416 -0.0128775 0)
(0.245537 -0.00982306 0)
(0.232771 -0.00783736 0)
(0.189358 -0.00676781 0)
(0.174418 -0.00766296 0)
(0.156835 -0.00682221 0)
(0.14033 -0.00521443 0)
(0.126697 -0.00365283 0)
(0.11615 -0.00248853 0)
(0.108179 -0.00175871 0)
(0.102146 -0.00139781 0)
(0.0964053 -0.00155279 0)
)
;

boundaryField
{
    inlet
    {
        type            fixedValue;
        value           nonuniform 0();
    }
    outlet
    {
        type            zeroGradient;
    }
    fixedWalls
    {
        type            fixedValue;
        value           uniform (0 0 0);
    }
    frontAndBack
    {
        type            empty;
    }
    procBoundary1to2
    {
        type            processor;
        value           nonuniform List<vector> 7((0.382379 0.154776 0) (0.546744 0.136147 0) (0.556167 0.118407 0) (0.519212 0.0767654 0) (0.473781 0.0404294 0) (0.39216 0.0132934 0) (0.194704 0.00036547 0));
    }
    procBoundary1to0
    {
        type            processor;
        value           nonuniform List<vector> 9((0.0595947 -0.0176817 0) (0.105491 -0.128056 0) (0.162289 -0.201349 0) (0.192299 -0.216744 0) (0.209544 -0.193255 0) (0.220449 -0.154952 0) (0.226894 -0.116548 0) (0.230941 -0.0834062 0) (0.233584 -0.0541604 0));
    }
}


// ************************************************************************* //
