/*--------------------------------*- C++ -*----------------------------------*\
| =========                 |                                                 |
| \\      /  F ield         | OpenFOAM Extend Project: Open source CFD        |
|  \\    /   O peration     | Version:  1.6-ext                               |
|   \\  /    A nd           | Web:      www.extend-project.de                 |
|    \\/     M anipulation  |                                                 |
\*---------------------------------------------------------------------------*/
FoamFile
{
    version     2.0;
    format      ascii;
    class       surfaceScalarField;
    location    "5";
    object      phi;
}
// * * * * * * * * * * * * * * * * * * * * * * * * * * * * * * * * * * * * * //

dimensions      [0 3 -1 0 0 0 0];

internalField   nonuniform List<scalar> 
127
(
0.000160826
3.91736e-05
0.000117035
4.37912e-05
8.13691e-05
3.56661e-05
5.42028e-05
2.71663e-05
3.41174e-05
2.00854e-05
1.91193e-05
1.49981e-05
7.92262e-06
1.11967e-05
8.95349e-07
7.02727e-06
8.95348e-07
0.000204946
3.42275e-05
0.000190236
5.85015e-05
0.000162073
6.38291e-05
0.000128369
6.08702e-05
9.38623e-05
5.45921e-05
6.13557e-05
4.75047e-05
3.25836e-05
3.99687e-05
1.01363e-05
2.94745e-05
1.10317e-05
0.000208657
2.557e-05
0.000208063
5.90959e-05
0.000194035
7.78571e-05
0.000168197
8.6708e-05
0.000134004
8.87857e-05
9.52255e-05
8.62828e-05
5.54573e-05
7.97369e-05
1.98516e-05
6.50802e-05
3.08833e-05
0.000205061
2.05093e-05
0.000208184
5.59727e-05
0.000202606
8.34347e-05
0.000185807
0.000103507
0.000157632
0.00011696
0.000119559
0.000124356
7.45401e-05
0.000124756
2.89419e-05
0.000110678
5.98252e-05
0.000202386
1.81231e-05
0.000205278
5.30805e-05
0.000203733
8.498e-05
0.000193846
0.000113395
0.000172807
0.000137999
0.000139075
0.000158089
9.28815e-05
0.000170949
3.93073e-05
0.000164253
9.91325e-05
0.00020126
1.68627e-05
0.000203817
5.05238e-05
0.000204727
8.40701e-05
0.00020038
0.000117742
0.000186807
0.000151572
0.000159933
0.000184962
0.000116145
0.000214737
5.56066e-05
0.000224791
0.000154739
0.000201184
1.56791e-05
0.000204443
4.7264e-05
0.000208082
8.04312e-05
0.000209376
0.000116449
0.000204519
0.000156429
0.000188439
0.000201041
0.000152862
0.000250314
8.75089e-05
0.000290144
0.000242248
0.000201722
0.000206767
0.000214105
0.00022199
0.000227559
0.000225917
0.000204426
0.00013865
)
;

boundaryField
{
    inlet
    {
        type            calculated;
        value           nonuniform List<scalar> 8(-0.0002 -0.0002 -0.0002 -0.0002 -0.0002 -0.0002 -0.0002 -0.0002);
    }
    outlet
    {
        type            calculated;
        value           nonuniform 0();
    }
    fixedWalls
    {
        type            calculated;
        value           uniform 0;
    }
    frontAndBack
    {
        type            empty;
    }
    procBoundary3to2
    {
        type            processor;
        value           nonuniform List<scalar> 9(1.39566e-05 4.22198e-05 7.30929e-05 0.000108563 0.00015086 0.000202683 0.000271806 0.00035592 0.000380898);
    }
}


// ************************************************************************* //
