/*--------------------------------*- C++ -*----------------------------------*\
| =========                 |                                                 |
| \\      /  F ield         | OpenFOAM Extend Project: Open source CFD        |
|  \\    /   O peration     | Version:  1.6-ext                               |
|   \\  /    A nd           | Web:      www.extend-project.de                 |
|    \\/     M anipulation  |                                                 |
\*---------------------------------------------------------------------------*/
FoamFile
{
    version     2.0;
    format      ascii;
    class       surfaceScalarField;
    location    "3";
    object      phi;
}
// * * * * * * * * * * * * * * * * * * * * * * * * * * * * * * * * * * * * * //

dimensions      [0 3 -1 0 0 0 0];

internalField   nonuniform List<scalar> 
127
(
0.000160831
3.91686e-05
0.0001171
4.37314e-05
8.15544e-05
3.55455e-05
5.45573e-05
2.69971e-05
3.46479e-05
1.99094e-05
1.9734e-05
1.49139e-05
8.40555e-06
1.13285e-05
1.06341e-06
7.34214e-06
1.06341e-06
0.000204976
3.41929e-05
0.000190431
5.82766e-05
0.000162588
6.33877e-05
0.000129319
6.02669e-05
9.5245e-05
5.3983e-05
6.2944e-05
4.72149e-05
3.38968e-05
4.03756e-05
1.07253e-05
3.05137e-05
1.17887e-05
0.000208683
2.55095e-05
0.00020825
5.87101e-05
0.000194553
7.70845e-05
0.000169177
8.56434e-05
0.000135465
8.76943e-05
9.69606e-05
8.57195e-05
5.69622e-05
8.03741e-05
2.05805e-05
6.68953e-05
3.23693e-05
0.000205074
2.04355e-05
0.000208319
5.54647e-05
0.000202982
8.24222e-05
0.000186479
0.000102146
0.0001586
0.000115574
0.000120724
0.000123595
7.55996e-05
0.000125499
2.94878e-05
0.000113007
6.1857e-05
0.000202395
1.804e-05
0.000205386
5.24738e-05
0.000203998
8.38102e-05
0.000194214
0.00011193
0.000173187
0.000136601
0.000139455
0.000157327
9.3248e-05
0.000171705
3.95286e-05
0.000166727
0.000101386
0.000201272
1.67684e-05
0.000203929
4.98164e-05
0.00020498
8.27592e-05
0.000200643
0.000116267
0.000186865
0.000150379
0.00015976
0.000184432
0.000115964
0.000215502
5.558e-05
0.00022711
0.000156966
0.000201198
1.55708e-05
0.00020457
4.64441e-05
0.000208393
7.89357e-05
0.000209757
0.000114904
0.000204676
0.00015546
0.00018823
0.000200878
0.000152583
0.000251149
8.75835e-05
0.00029211
0.000244549
0.000201737
0.000206895
0.000214473
0.000222589
0.000228128
0.000226145
0.000204388
0.000138771
)
;

boundaryField
{
    inlet
    {
        type            calculated;
        value           nonuniform List<scalar> 8(-0.0002 -0.0002 -0.0002 -0.0002 -0.0002 -0.0002 -0.0002 -0.0002);
    }
    outlet
    {
        type            calculated;
        value           nonuniform 0();
    }
    fixedWalls
    {
        type            calculated;
        value           uniform 0;
    }
    frontAndBack
    {
        type            empty;
    }
    procBoundary3to2
    {
        type            processor;
        value           nonuniform List<scalar> 9(1.38343e-05 4.12855e-05 7.13578e-05 0.000106787 0.000149921 0.000202861 0.000272906 0.000357727 0.00038332);
    }
}


// ************************************************************************* //
