/*--------------------------------*- C++ -*----------------------------------*\
| =========                 |                                                 |
| \\      /  F ield         | OpenFOAM Extend Project: Open source CFD        |
|  \\    /   O peration     | Version:  1.6-ext                               |
|   \\  /    A nd           | Web:      www.extend-project.de                 |
|    \\/     M anipulation  |                                                 |
\*---------------------------------------------------------------------------*/
FoamFile
{
    version     2.0;
    format      ascii;
    class       volVectorField;
    location    "0.1";
    object      U;
}
// * * * * * * * * * * * * * * * * * * * * * * * * * * * * * * * * * * * * * //

dimensions      [0 1 -1 0 0 0 0];

internalField   nonuniform List<vector> 
70
(
(0.510199 -0.000533251 0)
(0.535343 -0.0554681 0)
(0.464545 -0.0212016 0)
(0.420335 -0.0131134 0)
(0.393494 -0.00637196 0)
(0.375456 -0.00288686 0)
(0.310243 -0.000900962 0)
(0.526018 -0.288328 0)
(0.361202 -0.26267 0)
(0.291496 -0.189423 0)
(0.25985 -0.135505 0)
(0.242432 -0.0980873 0)
(0.232997 -0.0702196 0)
(0.227712 -0.0478907 0)
(0.224789 -0.0288458 0)
(0.223313 -0.0115483 0)
(0.478235 -0.151433 0)
(0.381849 -0.151386 0)
(0.322195 -0.129793 0)
(0.289292 -0.10543 0)
(0.268573 -0.0819054 0)
(0.255322 -0.0608985 0)
(0.24699 -0.042429 0)
(0.242031 -0.0259057 0)
(0.239431 -0.0104574 0)
(0.430821 -0.0826662 0)
(0.379895 -0.0995085 0)
(0.337511 -0.0930339 0)
(0.307858 -0.0797442 0)
(0.286994 -0.0645386 0)
(0.272473 -0.0494024 0)
(0.262703 -0.0351056 0)
(0.256597 -0.0217333 0)
(0.253291 -0.00885138 0)
(0.401832 -0.0463495 0)
(0.371696 -0.0615266 0)
(0.342115 -0.062474 0)
(0.31783 -0.0565159 0)
(0.298927 -0.0474642 0)
(0.284757 -0.037282 0)
(0.274659 -0.0269652 0)
(0.268079 -0.0169042 0)
(0.264416 -0.0069424 0)
(0.382786 -0.0257515 0)
(0.363658 -0.036492 0)
(0.342393 -0.0391624 0)
(0.322753 -0.0368175 0)
(0.306121 -0.0317722 0)
(0.292869 -0.0254483 0)
(0.282985 -0.0186601 0)
(0.276324 -0.0118139 0)
(0.272532 -0.00488883 0)
(0.368587 -0.0127095 0)
(0.355069 -0.0186594 0)
(0.33864 -0.020671 0)
(0.322206 -0.0198981 0)
(0.307429 -0.0174669 0)
(0.295139 -0.0141645 0)
(0.285683 -0.0104779 0)
(0.279165 -0.00667724 0)
(0.275407 -0.00278631 0)
(0.305386 -0.00375103 0)
(0.295531 -0.005524 0)
(0.283149 -0.00617411 0)
(0.270374 -0.00599201 0)
(0.258611 -0.00529289 0)
(0.24866 -0.00431073 0)
(0.240912 -0.00319549 0)
(0.235524 -0.00203455 0)
(0.232398 -0.00085337 0)
)
;

boundaryField
{
    inlet
    {
        type            fixedValue;
        value           nonuniform 0();
    }
    outlet
    {
        type            zeroGradient;
    }
    fixedWalls
    {
        type            fixedValue;
        value           uniform (0 0 0);
    }
    frontAndBack
    {
        type            empty;
    }
    procBoundary1to2
    {
        type            processor;
        value           nonuniform List<vector> 7((0.549677 0.0794577 0) (0.537572 0.0227277 0) (0.468692 0.0357889 0) (0.4198 0.0244565 0) (0.391406 0.0159629 0) (0.373035 0.00849135 0) (0.308384 0.0024293 0));
    }
    procBoundary1to0
    {
        type            processor;
        value           nonuniform List<vector> 9((0.120399 -0.319448 0) (0.135791 -0.283457 0) (0.18244 -0.203597 0) (0.198593 -0.144379 0) (0.203687 -0.10351 0) (0.205226 -0.0735346 0) (0.20564 -0.0498595 0) (0.205772 -0.0298629 0) (0.205793 -0.0119044 0));
    }
}


// ************************************************************************* //
