/*--------------------------------*- C++ -*----------------------------------*\
| =========                 |                                                 |
| \\      /  F ield         | OpenFOAM Extend Project: Open source CFD        |
|  \\    /   O peration     | Version:  1.6-ext                               |
|   \\  /    A nd           | Web:      www.extend-project.de                 |
|    \\/     M anipulation  |                                                 |
\*---------------------------------------------------------------------------*/
FoamFile
{
    version     2.0;
    format      ascii;
    class       surfaceScalarField;
    location    "0.3";
    object      phi;
}
// * * * * * * * * * * * * * * * * * * * * * * * * * * * * * * * * * * * * * //

dimensions      [0 3 -1 0 0 0 0];

internalField   nonuniform List<scalar> 
123
(
-3.45918e-05
0.000426599
-3.76666e-05
0.000547329
-1.89328e-05
0.000495274
-1.00025e-05
0.000455868
-5.29246e-06
0.000426889
-2.81227e-06
0.000392839
0.000255203
0.000404998
-0.000201877
0.000353794
-0.000220922
0.000301775
-0.000184912
0.000269439
-0.000144189
0.000251768
-0.000109127
0.000242087
-8.06076e-05
0.000236732
-5.70947e-05
0.000233986
-3.70591e-05
-1.86716e-05
0.000466242
-0.00012079
0.00038907
-0.000143749
0.000335057
-0.0001309
0.000300466
-0.000109599
0.000279019
-8.76804e-05
0.000265523
-6.71108e-05
0.000257061
-4.86328e-05
0.000252143
-3.2141e-05
-1.64063e-05
0.000443906
-6.94224e-05
0.00039146
-9.13035e-05
0.000350708
-9.01477e-05
0.000320639
-7.95292e-05
0.000298993
-6.60343e-05
0.000283851
-5.19696e-05
0.000273646
-3.84271e-05
0.000267328
-2.58236e-05
-1.3359e-05
0.000426085
-3.96393e-05
0.000390374
-5.55931e-05
0.000358494
-5.82672e-05
0.000332518
-5.35529e-05
0.000312189
-4.57055e-05
0.000296923
-3.67039e-05
0.00028605
-2.75539e-05
0.00027899
-1.87632e-05
-9.84075e-06
0.000408847
-2.15977e-05
0.000384257
-3.10034e-05
0.000359415
-3.34247e-05
0.000337227
-3.13648e-05
0.000318656
-2.71347e-05
0.000303957
-2.20048e-05
0.000293049
-1.66458e-05
0.00028571
-1.14246e-05
-6.10173e-06
0.00038026
-9.01861e-06
0.000361748
-1.24914e-05
0.000341617
-1.32938e-05
0.000322632
-1.23799e-05
0.000306142
-1.06446e-05
0.000292729
-8.59182e-06
0.000282565
-6.4819e-06
0.000275597
-4.45709e-06
-2.4982e-06
0.000246184
0.000233693
0.000220399
0.000208019
0.000197375
0.000188783
0.000182301
0.000177844
)
;

boundaryField
{
    inlet
    {
        type            calculated;
        value           nonuniform 0();
    }
    outlet
    {
        type            calculated;
        value           nonuniform List<scalar> 7(0.000232849 0.000249877 0.000264281 0.000275471 0.000281971 0.000271994 0.000175346);
    }
    fixedWalls
    {
        type            calculated;
        value           uniform 0;
    }
    frontAndBack
    {
        type            empty;
    }
    procBoundary1to2
    {
        type            processor;
        value           nonuniform List<scalar> 7(-0.000392008 -0.000544254 -0.000514007 -0.000464798 -0.000431599 -0.000395319 -0.000258015);
    }
    procBoundary1to0
    {
        type            processor;
        value           nonuniform List<scalar> 9(0.000223478 0.000272126 0.000236931 0.000176525 0.000126799 9.02888e-05 6.245e-05 3.98044e-05 1.98092e-05);
    }
}


// ************************************************************************* //
