/*--------------------------------*- C++ -*----------------------------------*\
| =========                 |                                                 |
| \\      /  F ield         | OpenFOAM Extend Project: Open source CFD        |
|  \\    /   O peration     | Version:  1.6-ext                               |
|   \\  /    A nd           | Web:      www.extend-project.de                 |
|    \\/     M anipulation  |                                                 |
\*---------------------------------------------------------------------------*/
FoamFile
{
    version     2.0;
    format      ascii;
    class       volVectorField;
    location    "0.1";
    object      U;
}
// * * * * * * * * * * * * * * * * * * * * * * * * * * * * * * * * * * * * * //

dimensions      [0 1 -1 0 0 0 0];

internalField   nonuniform List<vector> 
72
(
(0.00831141 -0.00812766 0)
(0.0265502 -0.00955433 0)
(0.045542 -0.00879895 0)
(0.0624339 -0.0076404 0)
(0.0767052 -0.00631432 0)
(0.0881703 -0.00492472 0)
(0.0967843 -0.00353235 0)
(0.102584 -0.00216497 0)
(0.105756 -0.000881604 0)
(0.0104975 -0.026908 0)
(0.0332426 -0.0313119 0)
(0.0565618 -0.0287386 0)
(0.0771159 -0.024865 0)
(0.0943348 -0.0204804 0)
(0.108067 -0.015933 0)
(0.118326 -0.0114154 0)
(0.12521 -0.00700375 0)
(0.128963 -0.00283771 0)
(0.0115968 -0.049105 0)
(0.0365742 -0.0566346 0)
(0.0617689 -0.0516212 0)
(0.0834814 -0.0443269 0)
(0.101271 -0.0362528 0)
(0.115187 -0.0280411 0)
(0.125431 -0.02001 0)
(0.132239 -0.012253 0)
(0.135935 -0.00493884 0)
(0.0134227 -0.0738905 0)
(0.0419905 -0.084542 0)
(0.0699476 -0.0761542 0)
(0.0931026 -0.0645637 0)
(0.111356 -0.0521994 0)
(0.125169 -0.0400071 0)
(0.13508 -0.0283666 0)
(0.141561 -0.0173147 0)
(0.145046 -0.00695765 0)
(0.016537 -0.103129 0)
(0.050865 -0.116684 0)
(0.0827407 -0.103091 0)
(0.107486 -0.085673 0)
(0.125842 -0.0680872 0)
(0.139041 -0.0514968 0)
(0.148156 -0.0361831 0)
(0.153974 -0.0219866 0)
(0.157058 -0.00881066 0)
(0.0223292 -0.137059 0)
(0.0654324 -0.154784 0)
(0.102374 -0.132853 0)
(0.128147 -0.107217 0)
(0.145519 -0.0831948 0)
(0.157066 -0.0618271 0)
(0.164591 -0.0429433 0)
(0.169229 -0.0259512 0)
(0.171635 -0.0103712 0)
(0.0375269 -0.176214 0)
(0.0885519 -0.203669 0)
(0.132392 -0.166203 0)
(0.157192 -0.127941 0)
(0.171214 -0.0960023 0)
(0.179287 -0.0698001 0)
(0.184032 -0.0478517 0)
(0.186794 -0.0287545 0)
(0.188176 -0.0114663 0)
(0.120399 -0.319448 0)
(0.135791 -0.283457 0)
(0.18244 -0.203597 0)
(0.198593 -0.144379 0)
(0.203687 -0.10351 0)
(0.205226 -0.0735346 0)
(0.20564 -0.0498595 0)
(0.205772 -0.0298629 0)
(0.205793 -0.0119044 0)
)
;

boundaryField
{
    inlet
    {
        type            fixedValue;
        value           nonuniform 0();
    }
    outlet
    {
        type            zeroGradient;
    }
    fixedWalls
    {
        type            fixedValue;
        value           uniform (0 0 0);
    }
    frontAndBack
    {
        type            empty;
    }
    procBoundary0to1
    {
        type            processor;
        value           nonuniform List<vector> 9((0.526018 -0.288328 0) (0.361202 -0.26267 0) (0.291496 -0.189423 0) (0.25985 -0.135505 0) (0.242432 -0.0980873 0) (0.232997 -0.0702196 0) (0.227712 -0.0478907 0) (0.224789 -0.0288458 0) (0.223313 -0.0115483 0));
    }
}


// ************************************************************************* //
