/*--------------------------------*- C++ -*----------------------------------*\
| =========                 |                                                 |
| \\      /  F ield         | OpenFOAM Extend Project: Open source CFD        |
|  \\    /   O peration     | Version:  1.6-ext                               |
|   \\  /    A nd           | Web:      www.extend-project.de                 |
|    \\/     M anipulation  |                                                 |
\*---------------------------------------------------------------------------*/
FoamFile
{
    version     2.0;
    format      ascii;
    class       volScalarField;
    location    "3.8";
    object      p;
}
// * * * * * * * * * * * * * * * * * * * * * * * * * * * * * * * * * * * * * //

dimensions      [0 2 -2 0 0 0 0];

internalField   nonuniform List<scalar> 
284
(
0.279865
0.24839
0.236928
0.231957
0.230069
0.230061
0.230958
0.232222
0.23426
0.250651
0.241773
0.236424
0.233906
0.232959
0.233015
0.233582
0.234395
0.236582
0.238692
0.235291
0.232731
0.231582
0.231594
0.232358
0.233356
0.234342
0.237319
0.229217
0.228151
0.227116
0.226924
0.227654
0.229003
0.23045
0.231673
0.235396
0.221404
0.221097
0.220704
0.220784
0.221535
0.222781
0.224004
0.224776
0.228609
0.214305
0.214186
0.213864
0.213626
0.213638
0.213788
0.213532
0.212211
0.213985
0.207558
0.20741
0.206817
0.205831
0.204447
0.202394
0.198793
0.191885
0.186379
0.201193
0.200922
0.199845
0.197808
0.194538
0.189421
0.180846
0.166462
0.12172
0.195456
0.195017
0.193324
0.190045
0.184452
0.17492
0.155622
0.117446
0.0234225
0.190716
0.190059
0.187688
0.18328
0.176065
0.164531
0.144381
0.112401
0.0585938
0.18744
0.18637
0.183172
0.177781
0.169791
0.158287
0.14132
0.116949
0.0837146
0.186138
0.184189
0.179739
0.173279
0.164772
0.153653
0.1391
0.119313
0.0956334
0.188431
0.183909
0.177337
0.169586
0.160579
0.149851
0.136959
0.120419
0.101711
0.194533
0.184729
0.175517
0.166662
0.157524
0.147347
0.13563
0.12125
0.104986
0.222768
0.190877
0.176111
0.166198
0.15728
0.147887
0.137108
0.123808
0.108333
-0.110332
-0.0750883
-0.0112193
-0.0325298
0.033796
0.00363196
0.062214
0.0357887
0.0785129
0.0565138
0.0861899
0.0668802
0.0904326
0.0712548
-0.0627999
-0.0540264
-0.0505501
-0.0483307
-0.0448277
-0.0383205
-0.0290208
-0.0171469
-0.00565153
-0.0385544
-0.0391325
-0.0391828
-0.0384021
-0.0355539
-0.0298266
-0.0221497
-0.0126837
-0.00489096
-0.010723
-0.0173552
-0.0208126
-0.0221358
-0.0211613
-0.0177344
-0.0130884
-0.00725521
-0.00387147
0.0187257
0.00762187
-4.0945e-05
-0.00460867
-0.00650124
-0.00617402
-0.0049188
-0.0027334
-0.00307133
0.03871
0.0251083
0.0150992
0.00822002
0.00391489
0.00161518
0.000283451
-0.000142602
-0.00262965
0.0494385
0.0348466
0.0233411
0.0147887
0.00876588
0.00475165
0.00201968
0.000341122
-0.00254511
0.0527835
0.0366751
0.0235361
0.0134802
0.00629075
0.00156579
-0.00123962
-0.00252661
-0.003907
-0.0296554
-0.030756
-0.0299051
-0.0274956
-0.0234605
-0.017879
-0.0112767
-0.00603892
0.00534855
-0.0285221
-0.0297371
-0.0291107
-0.0272605
-0.0239611
-0.019048
-0.0128124
-0.0078893
0.00493163
-0.0296956
-0.0311238
-0.0308037
-0.0293672
-0.026396
-0.0215315
-0.0149084
-0.00945006
0.00470463
-0.0328329
-0.0342096
-0.0342059
-0.0332149
-0.0305248
-0.025564
-0.0183128
-0.0118877
0.00382355
-0.0379303
-0.0387164
-0.0389208
-0.0383875
-0.0359692
-0.0308825
-0.0228702
-0.0143337
0.00131766
-0.0447677
-0.0438825
-0.0441369
-0.0439744
-0.0418446
-0.036515
-0.0279277
-0.0169074
-0.00169238
-0.0527814
-0.0483587
-0.0484655
-0.0482164
-0.0461611
-0.0406257
-0.0313996
-0.0190074
-0.00421286
-0.0704412
-0.0532748
-0.0512649
-0.050251
-0.0476212
-0.0416048
-0.0320356
-0.0192864
-0.00556041
)
;

boundaryField
{
    inlet
    {
        type            zeroGradient;
    }
    outlet
    {
        type            totalPressure;
        rho             none;
        psi             none;
        gamma           1;
        p0              uniform 0;
        value           nonuniform List<scalar> 
15
(
-2.83498e-05
-0.000314251
0
0
0
0
0
0
0
0
0
0
0
0
0
)
;
    }
    fixedWalls
    {
        type            zeroGradient;
    }
    frontAndBack
    {
        type            empty;
    }
}


// ************************************************************************* //
