/*--------------------------------*- C++ -*----------------------------------*\
| =========                 |                                                 |
| \\      /  F ield         | OpenFOAM Extend Project: Open source CFD        |
|  \\    /   O peration     | Version:  1.6-ext                               |
|   \\  /    A nd           | Web:      www.extend-project.de                 |
|    \\/     M anipulation  |                                                 |
\*---------------------------------------------------------------------------*/
FoamFile
{
    version     2.0;
    format      ascii;
    class       surfaceScalarField;
    location    "3.8";
    object      phi;
}
// * * * * * * * * * * * * * * * * * * * * * * * * * * * * * * * * * * * * * //

dimensions      [0 3 -1 0 0 0 0];

internalField   nonuniform List<scalar> 
525
(
0.00016082
3.918e-05
0.000117028
4.37916e-05
8.13781e-05
3.56503e-05
5.42453e-05
2.71328e-05
3.42024e-05
2.00429e-05
1.92319e-05
1.49706e-05
8.0115e-06
1.12204e-05
9.17149e-07
7.09435e-06
9.17149e-07
0.000204945
3.42345e-05
0.000190261
5.84758e-05
0.000162176
6.3736e-05
0.000128598
6.07104e-05
9.42302e-05
5.44106e-05
6.18002e-05
4.74006e-05
3.29577e-05
4.00629e-05
1.02989e-05
2.97532e-05
1.1216e-05
0.000208656
2.55787e-05
0.000208091
5.90411e-05
0.00019416
7.76668e-05
0.000168492
8.63783e-05
0.000134495
8.84071e-05
9.58403e-05
8.60557e-05
5.6e-05
7.99032e-05
2.01117e-05
6.56414e-05
3.13278e-05
0.000205055
2.05238e-05
0.000208196
5.58998e-05
0.000202701
8.31621e-05
0.000186055
0.000103024
0.000158068
0.000116394
0.000120128
0.000123996
7.5068e-05
0.000124963
2.92121e-05
0.000111497
6.05399e-05
0.000202378
1.81461e-05
0.000205278
5.29995e-05
0.000203793
8.46473e-05
0.00019402
0.000112796
0.000173119
0.000137296
0.000139496
0.000157619
9.33001e-05
0.000171159
3.95431e-05
0.000165254
0.000100083
0.000201252
1.68944e-05
0.000203814
5.04375e-05
0.000204774
8.3687e-05
0.000200516
0.000117054
0.000187037
0.000150775
0.00016024
0.000184416
0.000116483
0.000214915
5.58531e-05
0.000225885
0.000155936
0.000201176
1.57182e-05
0.000204444
4.71702e-05
0.000208137
7.9994e-05
0.000209527
0.000115664
0.000204767
0.000155536
0.000188777
0.000200405
0.000153292
0.0002504
8.79731e-05
0.000291204
0.000243909
0.000201718
1.40003e-05
0.000206773
4.21147e-05
0.000214174
7.25936e-05
0.000222185
0.000107653
0.000227903
0.000149818
0.000226394
0.000201914
0.000205016
0.000271778
0.000139227
0.000356992
0.000383136
0.000202632
1.1368e-05
0.000210273
3.44744e-05
0.000222191
6.06748e-05
0.0002378
9.20443e-05
0.00025715
0.000130467
0.000282144
0.00017692
0.000319733
0.00023419
0.000384931
0.000291794
0.000362034
0.000406034
0.000203919
7.44951e-06
0.00021464
2.37533e-05
0.000230994
4.43205e-05
0.000252776
7.02621e-05
0.00028139
0.000101853
0.00032027
0.00013804
0.000373165
0.000181295
0.000454957
0.000210002
0.000281605
0.000535385
0.000205989
1.46048e-06
0.000220239
9.50293e-06
0.000240149
2.44109e-05
0.000265189
4.52222e-05
0.000296563
7.04797e-05
0.000336922
9.768e-05
0.000388404
0.000129814
0.000454932
0.000143474
0.000187381
0.000549157
0.000209424
-7.96368e-06
0.000227336
-8.40873e-06
0.000248822
2.92488e-06
0.000273746
2.02984e-05
0.000303458
4.07674e-05
0.000340084
6.10537e-05
0.000386452
8.34457e-05
0.000438768
9.11579e-05
0.000111245
0.000514904
0.000214496
-2.24598e-05
0.00023228
-2.61929e-05
0.00024992
-1.47147e-05
0.000269519
6.99066e-07
0.000293355
1.69317e-05
0.000323355
3.10536e-05
0.000362135
4.46661e-05
0.000403907
4.93853e-05
5.6524e-05
0.000458628
0.000211662
-3.41218e-05
0.000216719
-3.12503e-05
0.000220309
-1.83044e-05
0.000227433
-6.42528e-06
0.000241268
3.09667e-06
0.000262427
9.89493e-06
0.000291697
1.53963e-05
0.000324019
1.70629e-05
1.85083e-05
0.000362035
0.000165878
0.000134628
0.000116323
0.000109898
0.000112995
0.00012289
0.000138286
0.000155349
0.000173857
0.000249342
0.000156692
5.69153e-05
0.000192427
0.000512384
0.000179693
9.03507e-05
0.000478948
0.000585186
0.000143664
8.35985e-05
0.000591939
0.000565155
9.34129e-05
5.75466e-05
0.000591207
0.000504051
4.79897e-05
2.78459e-05
0.000533752
0.000395357
1.46681e-05
6.48376e-06
0.000416719
0.000188525
0.000195009
0.000199371
3.76116e-06
-1.0706e-05
0.000233149
-2.26156e-05
-1.11616e-05
0.000272439
-4.74864e-05
8.19633e-06
0.000309535
-7.60588e-05
3.89628e-05
0.00034015
-0.000107582
7.6966e-05
0.000362545
-0.000138891
0.000116496
0.000375891
-0.000163061
0.000149716
0.000381132
-0.000180118
0.000174877
-0.000174434
0.000177852
0.000456055
2.66549e-05
0.000451087
-1.76481e-05
0.000457366
-5.3765e-05
0.000467397
-8.609e-05
0.000475465
-0.000115649
0.000477771
-0.000141198
0.000472829
-0.000158118
0.000460398
-0.000167687
-0.000155915
0.000587089
3.15048e-05
0.000580978
-1.15378e-05
0.000575733
-4.852e-05
0.000569103
-7.94598e-05
0.000558682
-0.000105228
0.000542227
-0.000124743
0.000519554
-0.000135445
0.00049033
-0.000138464
-0.00012474
0.000602733
1.99785e-05
0.000604689
-1.34937e-05
0.000598383
-4.22139e-05
0.000584714
-6.5791e-05
0.000563397
-8.39108e-05
0.000534202
-9.55477e-05
0.000498759
-0.000100003
0.000458106
-9.7811e-05
-8.61814e-05
0.000548744
4.9856e-06
0.000550763
-1.55122e-05
0.000541155
-3.26064e-05
0.000520897
-4.55324e-05
0.00049104
-5.40538e-05
0.000453282
-5.77899e-05
0.000410668
-5.73886e-05
0.00036621
-5.3353e-05
-4.72799e-05
0.000424541
-2.83634e-06
0.000419372
-1.0343e-05
0.000402576
-1.5811e-05
0.000376102
-1.90578e-05
0.00034233
-2.02823e-05
0.000304323
-1.97823e-05
0.000265335
-1.84014e-05
0.000228588
-1.66059e-05
-1.62413e-05
0.000192173
0.00018183
0.000166019
0.000146961
0.000126679
0.000106896
8.8495e-05
7.18891e-05
-3.89313e-06
3.89313e-06
-1.28558e-05
8.96263e-06
-2.26205e-05
9.76479e-06
-3.0458e-05
7.83741e-06
-3.46873e-05
4.22935e-06
-3.42115e-05
-4.75851e-07
-2.84886e-05
-5.72287e-06
-1.80598e-05
-1.04288e-05
-1.56856e-05
-9.72314e-06
1.36163e-05
-2.66294e-05
2.58689e-05
-4.31603e-05
2.62957e-05
-5.47531e-05
1.94302e-05
-5.8845e-05
8.32121e-06
-5.44611e-05
-4.8597e-06
-4.17872e-05
-1.83968e-05
-2.23876e-05
-2.98284e-05
-3.79449e-05
-1.19884e-05
2.56047e-05
-3.12741e-05
4.51546e-05
-4.89511e-05
4.39727e-05
-5.99958e-05
3.04749e-05
-6.18274e-05
1.01528e-05
-5.38466e-05
-1.28405e-05
-3.68099e-05
-3.54335e-05
-1.20995e-05
-5.45388e-05
-6.42327e-05
-1.19139e-05
3.75186e-05
-2.97329e-05
6.29736e-05
-4.49569e-05
5.91967e-05
-5.30086e-05
3.85266e-05
-5.15605e-05
8.70467e-06
-4.04826e-05
-2.39184e-05
-2.07504e-05
-5.51657e-05
6.97306e-06
-8.22623e-05
-9.21997e-05
-1.0062e-05
4.75805e-05
-2.21838e-05
7.50954e-05
-3.06603e-05
6.76731e-05
-3.21859e-05
4.00523e-05
-2.51661e-05
1.68492e-06
-1.01341e-05
-3.89504e-05
1.16222e-05
-7.69219e-05
3.87958e-05
-0.000109436
-0.000121214
-6.05798e-06
5.36385e-05
-6.61349e-06
7.5651e-05
-2.07438e-06
6.3134e-05
8.41999e-06
2.95579e-05
2.4057e-05
-1.39521e-05
4.47508e-05
-5.96442e-05
6.91102e-05
-0.000101281
9.4585e-05
-0.000134911
-0.000147656
4.74919e-06
4.88893e-05
2.30402e-05
5.73599e-05
4.78225e-05
3.83518e-05
7.48464e-05
2.53392e-06
0.000101916
-4.1022e-05
0.000128838
-8.6566e-05
0.000154116
-0.000126559
0.000177079
-0.000157874
-0.000167763
3.81833e-05
8.43816e-05
0.00013093
0.000172426
0.00020837
0.000238301
0.000261457
0.00027846
)
;

boundaryField
{
    inlet
    {
        type            calculated;
        value           uniform -0.0002;
    }
    outlet
    {
        type            calculated;
        value           nonuniform List<scalar> 
15
(
-2.37418e-06
-1.28337e-07
1.41884e-05
3.494e-05
6.78106e-05
0.000121026
0.000197187
0.000288549
0.000377714
0.000441878
0.000459156
0.000419548
0.000327308
0.00019755
5.56478e-05
)
;
    }
    fixedWalls
    {
        type            calculated;
        value           uniform 0;
    }
    frontAndBack
    {
        type            empty;
    }
}


// ************************************************************************* //
