/*--------------------------------*- C++ -*----------------------------------*\
| =========                 |                                                 |
| \\      /  F ield         | OpenFOAM Extend Project: Open source CFD        |
|  \\    /   O peration     | Version:  1.6-ext                               |
|   \\  /    A nd           | Web:      www.extend-project.de                 |
|    \\/     M anipulation  |                                                 |
\*---------------------------------------------------------------------------*/
FoamFile
{
    version     2.0;
    format      ascii;
    class       volVectorField;
    location    "3.8";
    object      U;
}
// * * * * * * * * * * * * * * * * * * * * * * * * * * * * * * * * * * * * * //

dimensions      [0 1 -1 0 0 0 0];

internalField   nonuniform List<vector> 
284
(
(0.163778 0.0266052 0)
(0.141783 0.0268379 0)
(0.0987125 0.0192616 0)
(0.0662525 0.0122019 0)
(0.0431415 0.00723879 0)
(0.025958 0.00429446 0)
(0.0128904 0.00253556 0)
(0.00288092 0.000895212 0)
(-0.000711865 -0.00121446 0)
(0.200597 0.0434049 0)
(0.202041 0.0577655 0)
(0.179269 0.0535695 0)
(0.146391 0.0444229 0)
(0.111437 0.0351097 0)
(0.0775669 0.0275523 0)
(0.0463333 0.0214238 0)
(0.0187246 0.014394 0)
(0.00301585 0.00344776 0)
(0.203092 0.0291695 0)
(0.210987 0.0599375 0)
(0.204533 0.0727999 0)
(0.184083 0.0755014 0)
(0.153375 0.0724023 0)
(0.116208 0.0664489 0)
(0.0757635 0.0585126 0)
(0.0347347 0.0454847 0)
(0.00731764 0.01953 0)
(0.201521 0.0225007 0)
(0.207593 0.057431 0)
(0.207884 0.0814825 0)
(0.197416 0.0964007 0)
(0.175054 0.103973 0)
(0.141682 0.105861 0)
(0.0989529 0.102144 0)
(0.0491491 0.0871344 0)
(0.0117042 0.0443601 0)
(0.200561 0.0190943 0)
(0.203981 0.0543024 0)
(0.205926 0.0844333 0)
(0.20142 0.109135 0)
(0.186835 0.128358 0)
(0.160006 0.14201 0)
(0.119482 0.148324 0)
(0.0645253 0.137235 0)
(0.0174684 0.0785669 0)
(0.200231 0.0174431 0)
(0.202358 0.0517034 0)
(0.204927 0.0846037 0)
(0.204417 0.116021 0)
(0.196761 0.145685 0)
(0.177945 0.172792 0)
(0.143278 0.194277 0)
(0.0865709 0.195278 0)
(0.027772 0.124755 0)
(0.200215 0.0163227 0)
(0.202429 0.0489964 0)
(0.206395 0.0824485 0)
(0.209889 0.117624 0)
(0.2095 0.155214 0)
(0.201024 0.195124 0)
(0.178314 0.234381 0)
(0.124588 0.253892 0)
(0.0486447 0.197466 0)
(0.200343 0.0149396 0)
(0.203608 0.0450281 0)
(0.210126 0.0771228 0)
(0.218557 0.113158 0)
(0.226532 0.155243 0)
(0.230982 0.205626 0)
(0.224149 0.270135 0)
(0.198172 0.340112 0)
(0.0603361 0.287558 0)
(0.200547 0.0128214 0)
(0.205485 0.0388295 0)
(0.215455 0.0675969 0)
(0.229765 0.101365 0)
(0.247566 0.142589 0)
(0.271665 0.193678 0)
(0.299654 0.261006 0)
(0.358563 0.345548 0)
(0.399759 0.430049 0)
(0.200841 0.00963786 0)
(0.207971 0.0297923 0)
(0.221698 0.0534891 0)
(0.241171 0.0824146 0)
(0.266018 0.117869 0)
(0.300739 0.160121 0)
(0.343022 0.212174 0)
(0.411408 0.255354 0)
(0.492943 0.33827 0)
(0.201387 0.00499499 0)
(0.21157 0.0174757 0)
(0.22899 0.0351951 0)
(0.251793 0.0584131 0)
(0.279633 0.0867213 0)
(0.315567 0.118211 0)
(0.360382 0.155722 0)
(0.418064 0.172345 0)
(0.498852 0.228036 0)
(0.202455 -0.00237706 0)
(0.216937 0.00124813 0)
(0.237155 0.0136836 0)
(0.260534 0.0322375 0)
(0.287621 0.0546974 0)
(0.320249 0.0779605 0)
(0.361886 0.104737 0)
(0.409488 0.113631 0)
(0.4736 0.141366 0)
(0.204212 -0.0136888 0)
(0.222729 -0.0176285 0)
(0.240847 -0.00763067 0)
(0.259085 0.00841669 0)
(0.280492 0.0265141 0)
(0.306748 0.0436626 0)
(0.341609 0.0614109 0)
(0.381002 0.0677243 0)
(0.429326 0.0786803 0)
(0.201752 -0.0351429 0)
(0.215133 -0.036644 0)
(0.218589 -0.0227025 0)
(0.222754 -0.00724553 0)
(0.23297 0.00645343 0)
(0.250153 0.0173077 0)
(0.27596 0.0265237 0)
(0.306536 0.0295999 0)
(0.342274 0.0324307 0)
(0.164658 -0.024875 0)
(0.151318 -0.0222675 0)
(0.124264 -0.0126078 0)
(0.111029 -0.00493433 0)
(0.109969 0.00030437 0)
(0.116819 0.00361048 0)
(0.129942 0.00577198 0)
(0.14631 0.00609231 0)
(0.164636 0.00599354 0)
(0.355746 0.167048 0)
(0.186028 0.0437143 0)
(0.545612 0.177625 0)
(0.499835 0.080694 0)
(0.576953 0.166654 0)
(0.597581 0.0981079 0)
(0.543333 0.117203 0)
(0.584322 0.073239 0)
(0.482448 0.0670404 0)
(0.522414 0.0408996 0)
(0.379598 0.0262434 0)
(0.408546 0.012826 0)
(0.182051 0.00357968 0)
(0.193305 -0.000459997 0)
(0.188826 -0.00706334 0)
(0.211602 -0.0181042 0)
(0.25093 -0.0365011 0)
(0.29129 -0.0640166 0)
(0.326217 -0.0972568 0)
(0.354859 -0.131774 0)
(0.370941 -0.159971 0)
(0.384119 -0.181059 0)
(0.377325 -0.179669 0)
(0.466588 0.0160675 0)
(0.450238 -0.0243798 0)
(0.451391 -0.0562908 0)
(0.461922 -0.0865672 0)
(0.472259 -0.116406 0)
(0.480148 -0.144255 0)
(0.475918 -0.164368 0)
(0.473473 -0.177716 0)
(0.44354 -0.168654 0)
(0.593923 0.0384387 0)
(0.584959 -0.00938274 0)
(0.578113 -0.0485445 0)
(0.573195 -0.082247 0)
(0.565092 -0.111324 0)
(0.553938 -0.134805 0)
(0.530757 -0.149157 0)
(0.512171 -0.155872 0)
(0.462454 -0.142774 0)
(0.601765 0.0281532 0)
(0.606425 -0.0114025 0)
(0.603424 -0.04492 0)
(0.593913 -0.0731208 0)
(0.576209 -0.0959244 0)
(0.552174 -0.112065 0)
(0.51632 -0.119885 0)
(0.484748 -0.120075 0)
(0.424068 -0.106597 0)
(0.545062 0.0115918 0)
(0.553138 -0.0153326 0)
(0.548986 -0.0385058 0)
(0.534041 -0.0571708 0)
(0.508504 -0.0707228 0)
(0.474794 -0.0781978 0)
(0.431871 -0.0796375 0)
(0.392454 -0.0753801 0)
(0.33234 -0.0657504 0)
(0.423725 -0.00220214 0)
(0.425083 -0.0155162 0)
(0.413848 -0.0258324 0)
(0.391841 -0.0326743 0)
(0.361008 -0.0360324 0)
(0.32448 -0.0360646 0)
(0.284439 -0.0339122 0)
(0.24845 -0.0302915 0)
(0.202139 -0.0279272 0)
(0.195268 -0.0041737 0)
(0.188499 -0.00673854 0)
(0.175049 -0.0079657 0)
(0.157206 -0.00801592 0)
(0.137109 -0.00727148 0)
(0.116757 -0.0061578 0)
(0.0974203 -0.00526135 0)
(0.0807973 -0.00484215 0)
(0.0586637 -0.00575678 0)
(-0.00103612 0.000958431 0)
(-0.00742502 0.00316274 0)
(-0.0179979 0.00379369 0)
(-0.0272566 0.00336812 0)
(-0.033524 0.00224202 0)
(-0.035426 0.000534767 0)
(-0.031619 -0.00162121 0)
(-0.0279788 -0.00372466 0)
(-0.00348125 -0.00667472 0)
(-0.00352564 0.00754889 0)
(-0.0169445 0.0158174 0)
(-0.0357935 0.0167967 0)
(-0.0507274 0.01314 0)
(-0.0588588 0.00666506 0)
(-0.0585103 -0.00146815 0)
(-0.0485725 -0.0102443 0)
(-0.0385729 -0.0179328 0)
(-0.00070254 -0.0250458 0)
(-0.00459826 0.0194286 0)
(-0.0205192 0.0353564 0)
(-0.0414899 0.035204 0)
(-0.0568075 0.0252937 0)
(-0.0634365 0.00983918 0)
(-0.0600386 -0.00805688 0)
(-0.0456705 -0.0259845 0)
(-0.0314432 -0.0411237 0)
(0.0113376 -0.0500922 0)
(-0.00478108 0.0317961 0)
(-0.0200958 0.0546773 0)
(-0.0390246 0.0523854 0)
(-0.0515283 0.0353355 0)
(-0.0548682 0.0102495 0)
(-0.04825 -0.0177628 0)
(-0.0308997 -0.0449228 0)
(-0.0133391 -0.0681468 0)
(0.03064 -0.0778877 0)
(-0.00449454 0.0430603 0)
(-0.0162794 0.0705452 0)
(-0.0283158 0.0652701 0)
(-0.0338716 0.0410143 0)
(-0.0309659 0.0068581 0)
(-0.0195863 -0.0307724 0)
(0.000210119 -0.0660738 0)
(0.021255 -0.0963382 0)
(0.0627402 -0.107347 0)
(-0.00358233 0.0516215 0)
(-0.00787803 0.0784055 0)
(-0.00595844 0.0688276 0)
(0.00144635 0.0377918 0)
(0.0147729 -0.00376424 0)
(0.0336436 -0.0484828 0)
(0.0567101 -0.0894232 0)
(0.0802709 -0.123268 0)
(0.115993 -0.136068 0)
(0.000995662 0.0592665 0)
(0.00985948 0.0738991 0)
(0.0342422 0.0567641 0)
(0.0602972 0.0207477 0)
(0.0879624 -0.0248241 0)
(0.116119 -0.072198 0)
(0.142505 -0.114449 0)
(0.166896 -0.147886 0)
(0.193132 -0.160027 0)
(0.0283336 0.0303951 0)
(0.0550869 0.0381181 0)
(0.107407 0.0185238 0)
(0.152071 -0.0160279 0)
(0.191311 -0.0584411 0)
(0.225742 -0.10215 0)
(0.251754 -0.13966 0)
(0.273694 -0.168593 0)
(0.286197 -0.175671 0)
)
;

boundaryField
{
    inlet
    {
        type            fixedValue;
        value           uniform (0.2 0 0);
    }
    outlet
    {
        type            zeroGradient;
    }
    fixedWalls
    {
        type            fixedValue;
        value           uniform (0 0 0);
    }
    frontAndBack
    {
        type            empty;
    }
}


// ************************************************************************* //
