/*--------------------------------*- C++ -*----------------------------------*\
| =========                 |                                                 |
| \\      /  F ield         | OpenFOAM Extend Project: Open source CFD        |
|  \\    /   O peration     | Version:  1.6-ext                               |
|   \\  /    A nd           | Web:      www.extend-project.de                 |
|    \\/     M anipulation  |                                                 |
\*---------------------------------------------------------------------------*/
FoamFile
{
    version     2.0;
    format      ascii;
    class       volScalarField;
    location    "4.2";
    object      p;
}
// * * * * * * * * * * * * * * * * * * * * * * * * * * * * * * * * * * * * * //

dimensions      [0 2 -2 0 0 0 0];

internalField   nonuniform List<scalar> 
72
(
-0.0269347
-0.0281054
-0.027579
-0.0256822
-0.0222694
-0.0173067
-0.0112549
-0.00576846
0.0043074
-0.025691
-0.0269451
-0.0265557
-0.0251424
-0.0224495
-0.0182268
-0.0127343
-0.00766958
0.00320446
-0.0265857
-0.0280353
-0.0279294
-0.026948
-0.0246734
-0.0206229
-0.0149526
-0.0095673
0.00284345
-0.0293223
-0.0306824
-0.0308673
-0.0303615
-0.0285127
-0.0245888
-0.0183873
-0.0119625
0.00248045
-0.0338901
-0.0346024
-0.0349304
-0.0348812
-0.0334655
-0.0296938
-0.0229247
-0.0150052
0.00059001
-0.0400571
-0.0390393
-0.0392604
-0.0395239
-0.0384385
-0.0346876
-0.0276872
-0.0176947
-0.00237077
-0.0473084
-0.0427788
-0.0426857
-0.0427724
-0.041804
-0.0379965
-0.0306457
-0.0195976
-0.00476937
-0.0643253
-0.0470707
-0.0447288
-0.044032
-0.0426058
-0.038444
-0.0308636
-0.019616
-0.00591771
)
;

boundaryField
{
    inlet
    {
        type            zeroGradient;
    }
    outlet
    {
        type            totalPressure;
        rho             none;
        psi             none;
        gamma           1;
        p0              uniform 0;
        value           nonuniform List<scalar> 8(-6.50756e-05 -0.000434248 -0.00130456 0 0 0 0 0);
    }
    fixedWalls
    {
        type            zeroGradient;
    }
    frontAndBack
    {
        type            empty;
    }
    procBoundary0to1
    {
        type            processor;
        value           nonuniform List<scalar> 9(-0.0566475 -0.0476719 -0.0440651 -0.0422383 -0.0399507 -0.0352511 -0.0278013 -0.0172864 -0.00582537);
    }
}


// ************************************************************************* //
