/*--------------------------------*- C++ -*----------------------------------*\
| =========                 |                                                 |
| \\      /  F ield         | OpenFOAM Extend Project: Open source CFD        |
|  \\    /   O peration     | Version:  1.6-ext                               |
|   \\  /    A nd           | Web:      www.extend-project.de                 |
|    \\/     M anipulation  |                                                 |
\*---------------------------------------------------------------------------*/
FoamFile
{
    version     2.0;
    format      ascii;
    class       volSymmTensorField;
    location    "0.85";
    object      DSigma;
}
// * * * * * * * * * * * * * * * * * * * * * * * * * * * * * * * * * * * * * //

dimensions      [1 -1 -2 0 0 0 0];

internalField   nonuniform List<symmTensor> 
328
(
(-0.0259792 -0.00547688 -1.00656e-23 -0.00932157 3.47144e-20 -0.0141203)
(-0.0268764 -0.00296788 -5.09827e-25 -0.0153319 -3.05688e-25 -0.0168833)
(-0.0303713 0.00272741 0 -0.0168778 0 -0.0188997)
(-0.0401949 0.0072433 -2.89092e-23 -0.0143815 5.38579e-20 -0.0218306)
(-0.02404 -0.00379609 9.98008e-25 -0.00547079 6.32949e-22 -0.0118043)
(-0.02695 -0.00225007 4.92514e-24 -0.011057 2.59229e-24 -0.0152028)
(-0.0304151 0.00249557 4.74013e-24 -0.0115415 -2.08467e-24 -0.0167826)
(-0.0376156 0.00502064 2.07012e-23 -0.00891765 -4.34294e-20 -0.0186133)
(-0.0234953 -0.00235724 9.30728e-24 -0.00316219 1.99078e-20 -0.010663)
(-0.0283607 -0.00154856 -4.00825e-24 -0.00851536 -1.92296e-24 -0.0147504)
(-0.0320828 0.0021271 -4.62883e-24 -0.0085289 2.2358e-24 -0.0162447)
(-0.0369564 0.00320471 -1.12684e-23 -0.0057354 4.079e-20 -0.0170767)
(-0.022889 -0.0013017 -9.9484e-26 -0.00154519 -5.74205e-20 -0.00977368)
(-0.0287719 -0.000884007 -1.87011e-23 -0.00612209 -5.11235e-24 -0.0139576)
(-0.0324624 0.00166266 0 -0.00575884 0 -0.0152885)
(-0.0360733 0.00191358 7.61012e-24 -0.00354308 -2.01327e-20 -0.0158465)
(-0.0226929 -0.000589716 -1.26161e-23 -0.000591908 3.56031e-20 -0.00931393)
(-0.0292464 -0.000337793 4.38421e-23 -0.00446096 1.07339e-23 -0.0134829)
(-0.0329209 0.00121682 0 -0.00391207 0 -0.0147332)
(-0.0356752 0.00106503 -1.64079e-25 -0.00227866 5.50634e-22 -0.0151816)
(-0.0226419 -0.000129433 5.55103e-24 -1.95823e-05 -1.67066e-20 -0.00906459)
(-0.0293997 8.23023e-05 -2.57004e-23 -0.00316024 -3.76816e-24 -0.013024)
(-0.0329886 0.000842527 -5.92626e-23 -0.00249229 2.16496e-23 -0.0141924)
(-0.035394 0.000528785 -3.94697e-24 -0.00152808 -5.99067e-22 -0.0147688)
(-0.0227583 0.000145429 5.82631e-23 0.000279476 -1.09751e-21 -0.00899155)
(-0.0294705 0.000371156 6.76683e-23 -0.00225927 3.40464e-24 -0.0126919)
(-0.0329693 0.000565145 -1.5646e-23 -0.0015345 4.63489e-24 -0.0138015)
(-0.0352802 0.000213394 8.68552e-23 -0.00113442 1.68176e-20 -0.0145659)
(-0.0229639 0.000292682 1.26022e-23 0.000415444 1.53277e-20 -0.00901938)
(-0.0294238 0.000548119 -8.07928e-23 -0.00162962 -3.2196e-24 -0.0124214)
(-0.0328185 0.000381512 4.64207e-24 -0.00087572 -2.43753e-24 -0.0134777)
(-0.0352386 4.41481e-05 1.30539e-23 -0.000943976 -1.53552e-20 -0.014473)
(-0.02323 0.000353885 1.11555e-23 0.000449277 6.90746e-22 -0.00911229)
(-0.0293325 0.000634903 1.05732e-23 -0.00122519 -2.11072e-24 -0.0122231)
(-0.0326234 0.000277645 7.19429e-23 -0.00046205 -2.64084e-23 -0.0132342)
(-0.0352429 -3.02489e-05 -1.89443e-22 -0.000874801 -1.42055e-20 -0.0144471)
(-0.0235207 0.000361328 7.47944e-23 0.000426548 2.4004e-21 -0.00923768)
(-0.0292124 0.000657043 0 -0.000977585 0 -0.012076)
(-0.0323987 0.000232662 0 -0.000215403 0 -0.0130457)
(-0.0352546 -4.77934e-05 -1.40113e-22 -0.000868396 -3.58691e-22 -0.0144492)
(-0.023815 0.000337918 -1.5117e-22 0.0003748 -2.00052e-21 -0.00937609)
(-0.0290915 0.0006369 0 -0.000841656 0 -0.0119733)
(-0.0321751 0.000226079 -2.02965e-22 -8.73971e-05 6.87522e-23 -0.012905)
(-0.0352529 -3.4324e-05 -6.27079e-23 -0.000891229 -2.62864e-22 -0.0144576)
(-0.0240971 0.000299819 7.57892e-24 0.000312057 -9.56793e-21 -0.009514)
(-0.0289815 0.000593081 2.17287e-22 -0.000776738 -4.40189e-23 -0.0119033)
(-0.0319634 0.000239946 4.63778e-22 -3.47381e-05 -1.65763e-22 -0.0127992)
(-0.0352221 -7.52848e-06 2.38467e-22 -0.000922517 9.65799e-21 -0.0144578)
(-0.0243585 0.000257425 2.34198e-22 0.000248654 8.84132e-21 -0.00964395)
(-0.0288905 0.000538975 -4.33017e-22 -0.000754166 9.75678e-23 -0.0118579)
(-0.0317717 0.000260736 -2.30802e-22 -2.76374e-05 8.36797e-23 -0.0127197)
(-0.0351549 2.14989e-05 -7.72095e-23 -0.000951045 4.14765e-21 -0.0144424)
(-0.0245958 0.000216803 -2.39352e-22 0.000190121 1.41027e-22 -0.00976226)
(-0.02882 0.000483206 2.5586e-23 -0.00075298 5.93319e-24 -0.0118292)
(-0.0316008 0.000279269 0 -4.42709e-05 0 -0.012658)
(-0.0350491 4.63024e-05 -7.89817e-23 -0.000971241 1.91823e-21 -0.0144081)
(-0.0248085 0.000180746 -2.38356e-22 0.000138631 1.65039e-20 -0.00986795)
(-0.028768 0.000430222 -2.77035e-23 -0.000759924 1.84646e-23 -0.0118112)
(-0.0314485 0.00029022 1.44161e-22 -7.08195e-05 -6.51761e-23 -0.0126077)
(-0.0349064 6.38067e-05 -3.05259e-22 -0.000981294 3.93893e-22 -0.0143551)
(-0.0249979 0.000149817 1.10396e-22 9.43627e-05 -1.8258e-20 -0.00996143)
(-0.0287299 0.000381348 4.87264e-22 -0.000767286 -1.66265e-22 -0.0117989)
(-0.0313101 0.000291084 -1.33458e-22 -9.90171e-05 5.21146e-23 -0.0125636)
(-0.0347311 7.30952e-05 7.29964e-24 -0.000981564 -6.06223e-21 -0.0142851)
(-0.0251654 0.000123197 -4.8557e-22 5.64486e-05 5.58939e-21 -0.0100436)
(-0.0286998 0.000335777 0 -0.000771493 0 -0.0117885)
(-0.0311804 0.000281151 1.55207e-22 -0.00012479 -7.50921e-23 -0.0125221)
(-0.0345288 7.45049e-05 -1.61626e-22 -0.000973655 4.92256e-21 -0.014201)
(-0.0253112 9.93787e-05 7.04341e-22 2.37028e-05 -4.31575e-21 -0.010115)
(-0.0286715 0.000291488 6.00339e-22 -0.000771604 -2.84184e-22 -0.0117772)
(-0.0310541 0.000260592 -2.86304e-22 -0.000146606 1.30895e-22 -0.0124803)
(-0.0343055 6.89056e-05 3.38945e-25 -0.00095967 -2.34735e-22 -0.0141061)
(-0.0254335 7.66503e-05 2.54731e-22 -4.85714e-06 3.68543e-21 -0.0101754)
(-0.0286387 0.000245961 -7.88941e-22 -0.000768137 3.59412e-22 -0.0117628)
(-0.0309268 0.000229832 0 -0.000164385 0 -0.0124365)
(-0.0340681 5.72453e-05 3.70306e-22 -0.00094192 -4.44286e-21 -0.014004)
(-0.025528 5.34525e-05 2.5203e-25 -2.97361e-05 -1.47498e-22 -0.0102231)
(-0.0285956 0.000196707 5.99056e-22 -0.000762321 -3.23268e-22 -0.0117432)
(-0.0307952 0.000189199 0 -0.000178572 0 -0.0123895)
(-0.0338234 4.02958e-05 1.20161e-23 -0.000922587 -7.04174e-21 -0.0138984)
(-0.0255868 2.85248e-05 -1.04427e-21 -5.08e-05 6.51777e-21 -0.0102551)
(-0.028536 0.000141709 -6.98883e-24 -0.00075548 -6.76839e-24 -0.0117166)
(-0.030657 0.000138977 0 -0.000189684 0 -0.0123387)
(-0.0335794 1.86574e-05 7.72686e-22 -0.000903983 -8.28789e-21 -0.0137934)
(-0.0256006 1.12443e-06 -8.17842e-25 -6.74257e-05 4.10277e-22 -0.0102672)
(-0.0284544 7.94924e-05 0 -0.000749087 0 -0.0116814)
(-0.030511 7.92782e-05 -4.51359e-24 -0.000197905 -7.38592e-24 -0.0122836)
(-0.0333441 -7.33529e-06 6.91497e-22 -0.000887851 5.10221e-21 -0.0136928)
(-0.0255507 -3.05268e-05 1.0176e-21 -7.80626e-05 -5.21397e-21 -0.0102515)
(-0.0283389 6.82932e-06 0 -0.000743616 0 -0.011633)
(-0.0303512 8.0081e-06 -1.27383e-21 -0.000203447 8.11599e-22 -0.0122218)
(-0.0331215 -3.83349e-05 -6.74717e-23 -0.000876882 1.79864e-21 -0.0135994)
(-0.0254216 -6.44857e-05 -5.32032e-22 -8.10682e-05 1.13156e-22 -0.0102011)
(-0.0281866 -7.18182e-05 0 -0.000741493 0 -0.0115712)
(-0.030183 -6.98183e-05 0 -0.000205208 0 -0.0121553)
(-0.0329313 -7.19499e-05 -7.50092e-23 -0.000872899 4.01037e-21 -0.0135217)
(-0.0252115 -9.82793e-05 1.02886e-23 -7.48895e-05 -4.17718e-21 -0.0101145)
(-0.0280028 -0.00015095 0 -0.00074291 0 -0.0114983)
(-0.0300182 -0.000148504 0 -0.000202935 0 -0.0120885)
(-0.0327937 -0.000105916 1.68901e-21 -0.000877894 9.95735e-21 -0.0134686)
(-0.024922 -0.000130969 -1.26826e-21 -5.98315e-05 1.34812e-20 -0.00999273)
(-0.0277883 -0.000228005 -1.52266e-21 -0.000748132 1.24994e-21 -0.0114146)
(-0.0298566 -0.000225287 1.70225e-21 -0.000196773 -1.28428e-21 -0.0120213)
(-0.0327077 -0.000139078 -3.40514e-21 -0.000891637 -2.7626e-21 -0.0134397)
(-0.0245554 -0.000161655 -1.3599e-21 -3.61843e-05 1.25573e-20 -0.00983665)
(-0.0275436 -0.000300832 3.15173e-21 -0.00075698 -2.66211e-21 -0.0113202)
(-0.0296974 -0.000297984 0 -0.000186871 0 -0.0119537)
(-0.0326709 -0.00017056 1.95552e-21 -0.000913857 3.27932e-21 -0.0134339)
(-0.0241163 -0.000189603 -1.56908e-21 -4.70675e-06 -7.22555e-21 -0.00964842)
(-0.0272698 -0.000367603 -3.48145e-23 -0.000769286 -5.1615e-23 -0.0112156)
(-0.0295396 -0.000364748 -1.91529e-21 -0.000173456 1.65514e-21 -0.0118852)
(-0.032679 -0.000199621 1.6358e-22 -0.000943844 -5.39156e-21 -0.0134491)
(-0.0236105 -0.000214272 1.11683e-23 3.37989e-05 -3.70743e-21 -0.00943066)
(-0.0269684 -0.000426939 -4.13013e-23 -0.000784711 -5.77396e-23 -0.0111012)
(-0.0293817 -0.000424193 3.76037e-21 -0.000156809 -3.41557e-21 -0.0118154)
(-0.0327262 -0.000225713 2.06321e-21 -0.000980734 -1.00801e-21 -0.0134828)
(-0.0230446 -0.000235258 1.1365e-23 7.83916e-05 -3.62647e-21 -0.00918648)
(-0.0266411 -0.000477792 -3.78011e-21 -0.000802855 3.72238e-21 -0.0109776)
(-0.029222 -0.000475267 1.14749e-22 -0.000137297 -1.915e-22 -0.0117437)
(-0.0328056 -0.000248421 2.42657e-21 -0.00102357 -1.69381e-20 -0.0135317)
(-0.0224263 -0.000252253 -1.0643e-22 0.000128102 -1.22759e-20 -0.00891929)
(-0.02629 -0.00051935 -1.56048e-22 -0.000823236 1.33755e-22 -0.0108453)
(-0.0290584 -0.000517148 -4.76846e-23 -0.000115333 -6.36899e-23 -0.0116695)
(-0.0329098 -0.000267416 -1.18807e-23 -0.00107133 3.66019e-21 -0.0135925)
(-0.0217638 -0.000265007 3.8015e-21 0.000181909 -2.22546e-21 -0.00863277)
(-0.0259172 -0.000550932 -4.18701e-21 -0.000845321 4.53778e-21 -0.010705)
(-0.0288891 -0.000549146 2.25888e-21 -9.1383e-05 -2.22929e-21 -0.0115922)
(-0.0330307 -0.000282416 -2.34783e-21 -0.00112294 -8.03783e-21 -0.0136615)
(-0.0210658 -0.000273297 -1.86247e-21 0.000238742 9.02752e-21 -0.00833082)
(-0.0255251 -0.000571933 6.9627e-23 -0.000868533 8.47719e-23 -0.0105574)
(-0.0287117 -0.000570642 2.54817e-21 -6.59453e-05 -2.59891e-21 -0.0115111)
(-0.0331597 -0.000293159 2.59102e-21 -0.00117726 5.04418e-22 -0.0137348)
(-0.0203415 -0.000276931 -2.0579e-21 0.000297468 -2.99568e-21 -0.00801762)
(-0.0251161 -0.000581813 -1.74947e-22 -0.00089226 1.52473e-22 -0.0104033)
(-0.028524 -0.000581078 2.52927e-21 -3.95478e-05 -3.00543e-21 -0.0114254)
(-0.0332877 -0.000299407 -2.86862e-21 -0.00123309 6.2089e-21 -0.0138083)
(-0.0196007 -0.000275758 4.10809e-21 0.000356879 -1.74331e-20 -0.00769754)
(-0.0246929 -0.000580133 2.52088e-21 -0.000915872 -3.01358e-21 -0.0102435)
(-0.0283235 -0.000579997 -2.33171e-21 -1.27399e-05 2.84778e-21 -0.0113345)
(-0.0334052 -0.000300952 1.57147e-22 -0.00128915 -5.91853e-21 -0.0138777)
(-0.0188535 -0.000269693 -5.70897e-24 0.000415698 1.52698e-21 -0.00737514)
(-0.0242582 -0.000566619 0 -0.000938724 0 -0.0100788)
(-0.0281078 -0.0005671 0 1.3914e-05 0 -0.0112376)
(-0.0335022 -0.00029765 -3.33867e-21 -0.0013441 9.34311e-21 -0.0139385)
(-0.0181103 -0.000258749 -2.48817e-26 0.000472601 6.51343e-24 -0.00705508)
(-0.0238148 -0.000541228 2.61968e-21 -0.000960177 -3.69164e-21 -0.00990999)
(-0.0278744 -0.000542323 0 3.98423e-05 0 -0.0111338)
(-0.0335688 -0.00028945 -3.47429e-21 -0.00139657 8.8291e-21 -0.0139861)
(-0.0173813 -0.000243055 -1.91183e-23 0.000526252 4.9069e-21 -0.00674201)
(-0.0233655 -0.000504206 2.06685e-22 -0.000979602 -1.8518e-22 -0.00973804)
(-0.0276207 -0.000505886 -5.97412e-21 6.44754e-05 7.82484e-21 -0.0110225)
(-0.0335948 -0.000276415 6.39496e-21 -0.00144515 -8.73034e-21 -0.014016)
(-0.0166765 -0.000222868 5.00603e-21 0.000575345 -2.68447e-21 -0.00644045)
(-0.0229129 -0.000456113 -5.38188e-21 -0.000996406 8.49469e-21 -0.00956374)
(-0.0273444 -0.000458324 1.15977e-22 8.72568e-05 1.34327e-22 -0.0109029)
(-0.0335707 -0.000258733 -6.75583e-21 -0.00148851 5.57284e-21 -0.0140237)
(-0.0160053 -0.000198567 -4.92147e-21 0.000618648 1.60637e-22 -0.00615465)
(-0.0224597 -0.000397817 -8.68314e-23 -0.00101004 3.58865e-22 -0.00938791)
(-0.0270433 -0.000400481 3.15087e-21 0.000107654 -4.40796e-21 -0.0107742)
(-0.0334874 -0.000236721 3.49639e-21 -0.00152539 -3.22136e-21 -0.0140051)
(-0.0153762 -0.00017064 4.88384e-21 0.000655048 -1.44148e-20 -0.00588846)
(-0.0220082 -0.000330453 8.97595e-21 -0.00102001 -1.47106e-20 -0.00921127)
(-0.0267153 -0.000333469 -3.12024e-21 0.000125171 4.91994e-21 -0.010636)
(-0.0333366 -0.000210807 2.68746e-23 -0.00155469 -6.56857e-21 -0.0139565)
(-0.0147967 -0.000139652 2.16178e-22 0.000683576 3.81747e-21 -0.00564525)
(-0.0215603 -0.000255368 -6.02439e-21 -0.00102589 1.05756e-20 -0.00903449)
(-0.0263588 -0.000258614 3.47045e-21 0.00013936 -5.54831e-21 -0.0104878)
(-0.0331114 -0.000181503 -1.57625e-22 -0.00157544 4.72726e-21 -0.0138747)
(-0.0142729 -0.000106227 -2.62039e-21 0.000703433 1.64497e-21 -0.0054278)
(-0.021118 -0.000174051 -8.18648e-23 -0.00102736 4.27017e-22 -0.00885813)
(-0.0259723 -0.000177388 -3.47045e-21 0.000149826 5.54831e-21 -0.010329)
(-0.0328059 -0.000149385 -3.86015e-21 -0.0015869 -4.14549e-22 -0.0137571)
(-0.0138098 -7.10131e-05 1.433e-23 0.00071399 -3.36897e-21 -0.00523831)
(-0.0206824 -8.80711e-05 6.53696e-21 -0.00102416 -1.20812e-20 -0.00868264)
(-0.0255549 -9.13449e-05 4.49001e-22 0.000156242 -6.53621e-23 -0.0101595)
(-0.0324156 -0.000115066 2.9047e-22 -0.00158851 -1.27895e-21 -0.0136016)
(-0.0134107 -3.46694e-05 -2.99124e-21 0.000714792 1.00309e-22 -0.00507835)
(-0.0202548 9.65063e-07 3.01915e-21 -0.00101614 -6.57921e-21 -0.00850839)
(-0.0251058 -2.08032e-06 3.963e-21 0.000158347 -6.69017e-21 -0.009979)
(-0.0319374 -7.91756e-05 -1.2521e-20 -0.00157989 1.70767e-20 -0.0134069)
(-0.0130778 2.14666e-06 2.11906e-22 0.000705551 2.19889e-21 -0.00494888)
(-0.0198358 9.14445e-05 -6.66675e-21 -0.00100325 1.41764e-20 -0.00833563)
(-0.0246249 8.88009e-05 7.45742e-21 0.000155958 -1.4503e-20 -0.00978756)
(-0.0313697 -4.23504e-05 4.73731e-24 -0.00156087 -1.0927e-21 -0.0131722)
(-0.0128118 3.87827e-05 5.76495e-21 0.000686144 -1.04512e-20 -0.00485025)
(-0.0194258 0.000181756 -3.66802e-21 -0.000985516 7.61916e-21 -0.00816452)
(-0.024112 0.000179692 3.76516e-21 0.000148963 -8.13802e-21 -0.00958523)
(-0.0307122 -5.23095e-06 -4.34023e-24 -0.00153146 9.92569e-22 -0.0128975)
(-0.012612 7.459e-05 -5.57138e-21 0.000656606 1.0547e-20 -0.00478217)
(-0.0190247 0.000270289 3.75363e-21 -0.000963087 -8.14995e-21 -0.00799511)
(-0.0235678 0.000268984 -3.65858e-21 0.000137332 7.6089e-21 -0.00937219)
(-0.029966 3.15382e-05 4.59645e-21 -0.00149184 -4.33809e-21 -0.0125831)
(-0.0124766 0.000108921 -6.45837e-26 0.000617136 1.45439e-23 -0.00474378)
(-0.0186322 0.000355428 3.83748e-21 -0.000936194 -8.70272e-21 -0.00782735)
(-0.022993 0.00035506 -3.51242e-21 0.000121113 8.39388e-21 -0.00914877)
(-0.0291336 6.73059e-05 -1.36736e-20 -0.00144239 1.21541e-20 -0.0122304)
(-0.012402 0.000141131 3.33935e-21 0.000568105 -8.61876e-21 -0.00473356)
(-0.0182476 0.000435552 5.77396e-22 -0.000905165 -4.14518e-23 -0.0076611)
(-0.0223889 0.000436293 -3.91957e-21 0.000100437 9.27661e-21 -0.00891539)
(-0.0282188 0.000101414 4.4654e-21 -0.00138365 -3.49051e-21 -0.011841)
(-0.0123836 0.000170578 2.79874e-21 0.000510062 -8.81097e-21 -0.00474941)
(-0.0178698 0.000509051 0 -0.000870415 0 -0.00749608)
(-0.021757 0.000511063 0 7.55152e-05 0 -0.0086726)
(-0.027227 0.000133202 -4.8156e-21 -0.00131635 4.84208e-21 -0.0114174)
(-0.0124151 0.00019664 -3.11216e-21 0.000443741 6.6847e-21 -0.00478855)
(-0.0174975 0.000574348 3.46513e-21 -0.000832445 -1.04434e-20 -0.00733196)
(-0.0210994 0.000577783 4.68948e-21 4.66412e-05 -1.05355e-20 -0.00842109)
(-0.0261651 0.00016202 -4.66808e-21 -0.00124142 5.78303e-21 -0.0109626)
(-0.0124891 0.00021873 5.12895e-23 0.000370066 -3.09654e-22 -0.00484763)
(-0.0171288 0.000629951 -3.87451e-21 -0.000791829 1.14138e-20 -0.00716826)
(-0.0204183 0.000634945 4.50884e-21 1.41888e-05 -1.14577e-20 -0.00816163)
(-0.025041 0.000187244 -1.24128e-25 -0.00115996 2.73884e-23 -0.0104804)
(-0.0125969 0.00023632 3.49952e-22 0.000290149 -5.94895e-22 -0.0049227)
(-0.0167619 0.000674505 2.88703e-22 -0.000749209 3.06918e-22 -0.00700443)
(-0.0197165 0.000681174 3.6146e-22 -2.13918e-05 -3.49277e-22 -0.00789515)
(-0.0238642 0.000208301 -1.03328e-20 -0.00107327 1.20791e-20 -0.00997498)
(-0.0127285 0.000248966 -2.9774e-21 0.00020527 1.10451e-20 -0.00500931)
(-0.0163943 0.000706858 -4.30124e-21 -0.000705278 1.24182e-20 -0.00683982)
(-0.018997 0.000715298 -6.54126e-22 -5.95801e-05 4.62877e-23 -0.00762261)
(-0.0226453 0.000224697 4.9294e-21 -0.000982786 -6.76657e-21 -0.00945124)
(-0.0128733 0.000256335 3.36663e-21 0.000116858 -6.67539e-21 -0.00510257)
(-0.0160235 0.000726127 0 -0.000660765 0 -0.00667372)
(-0.018263 0.000736411 5.03673e-21 -9.97944e-05 -1.31344e-20 -0.00734512)
(-0.0213959 0.000236039 -5.00686e-21 -0.000890074 6.60304e-21 -0.00891437)
(-0.0130197 0.000258224 3.64246e-22 2.64522e-05 3.07091e-23 -0.00519731)
(-0.0156469 0.000731755 -3.76339e-21 -0.000616423 1.37373e-20 -0.00650535)
(-0.017518 0.000743928 -5.11429e-21 -0.000141404 1.38146e-20 -0.00706378)
(-0.020128 0.000242063 5.08037e-21 -0.000796791 -6.41851e-21 -0.00836993)
(-0.0131561 0.000254583 -6.87627e-24 -6.43345e-05 1.49414e-21 -0.00528815)
(-0.0152618 0.000723551 -4.19493e-21 -0.000573003 1.47942e-20 -0.00633392)
(-0.0167656 0.000737632 0 -0.000183743 0 -0.00677975)
(-0.0188544 0.000242651 2.48421e-24 -0.000704635 -5.39947e-22 -0.00782363)
(-0.0132705 0.000245519 -7.6994e-25 -0.00015387 1.66989e-22 -0.00536975)
(-0.0148653 0.000701719 -4.62955e-21 -0.000531237 1.5862e-20 -0.00615862)
(-0.0160094 0.000717702 1.4773e-20 -0.00022613 -4.58898e-20 -0.00649421)
(-0.0175877 0.000237842 6.29026e-21 -0.000615294 -7.45846e-21 -0.00728119)
(-0.0133517 0.0002313 3.57969e-21 -0.000240551 -8.33679e-21 -0.00543688)
(-0.0144549 0.000666865 3.93744e-21 -0.000491818 -1.58312e-20 -0.00597868)
(-0.0152527 0.000684714 -3.14537e-22 -0.00026788 -3.33838e-22 -0.00620825)
(-0.01634 0.000227835 -5.91771e-21 -0.000530391 7.39444e-21 -0.00674816)
(-0.0133888 0.000212346 -7.21802e-21 -0.000322857 1.82141e-20 -0.00548465)
(-0.014028 0.000619975 -4.31354e-21 -0.000455381 1.61998e-20 -0.00579336)
(-0.014499 0.000639629 5.06709e-21 -0.000308332 -1.69386e-20 -0.00592294)
(-0.015123 0.000212983 6.22139e-23 -0.000451434 -8.989e-22 -0.00622978)
(-0.0133721 0.000189214 3.63245e-21 -0.000399395 -8.60614e-21 -0.00550859)
(-0.0135825 0.000562382 0 -0.000422485 0 -0.00560201)
(-0.0137513 0.000583757 -5.38814e-21 -0.000346861 1.66013e-20 -0.00563925)
(-0.0139472 0.000193783 -3.19578e-22 -0.000379767 -1.80884e-22 -0.00573081)
(-0.0132932 0.000162577 -6.97975e-22 -0.000468945 -1.28129e-21 -0.00550486)
(-0.0131165 0.000495716 -6.99034e-22 -0.000393599 2.94029e-23 -0.00540405)
(-0.0130121 0.000518705 -5.49792e-21 -0.000382897 1.80118e-20 -0.00535802)
(-0.0128219 0.00017085 6.15332e-21 -0.000316532 -8.34067e-21 -0.00525536)
(-0.0131452 0.000133196 3.41662e-21 -0.000530488 -1.06617e-20 -0.00547029)
(-0.0126285 0.000421834 0 -0.000369091 0 -0.00519904)
(-0.0122839 0.000446313 5.17652e-21 -0.00041594 -1.83502e-20 -0.00507994)
(-0.0117545 0.000144896 -4.1157e-24 -0.000262639 8.87492e-22 -0.00480687)
(-0.0129229 0.000101895 3.84542e-21 -0.000583238 -1.11217e-20 -0.00540247)
(-0.0121173 0.000342759 0 -0.000349218 0 -0.00498662)
(-0.0115684 0.00036859 5.27418e-21 -0.000445578 -1.97539e-20 -0.00480558)
(-0.0107511 0.000116703 2.59567e-25 -0.000218743 -5.59336e-23 -0.00438794)
(-0.0126229 6.95316e-05 -7.72832e-21 -0.000626648 2.00228e-20 -0.00529983)
(-0.0115824 0.000260612 4.95131e-21 -0.000334123 -2.00909e-20 -0.00476661)
(-0.0108668 0.000287645 -1.58679e-20 -0.000471491 5.99591e-20 -0.00453531)
(-0.00981561 8.70967e-05 -6.83202e-22 -0.000185237 -1.78034e-21 -0.00400034)
(-0.0122436 3.6975e-05 3.5614e-21 -0.000660422 -9.13512e-21 -0.00516161)
(-0.0110235 0.000177553 4.3068e-21 -0.000323834 -2.07615e-20 -0.00453893)
(-0.0101799 0.000205631 5.6837e-21 -0.000493464 -2.08072e-20 -0.00426935)
(-0.00895014 5.69248e-05 3.60493e-22 -0.000162251 -1.40401e-22 -0.00364496)
(-0.0117852 5.08752e-06 3.61372e-22 -0.00068451 9.71551e-22 -0.0049879)
(-0.0104408 9.57356e-05 -4.35332e-21 -0.000318262 2.14529e-20 -0.00430363)
(-0.00950796 0.0001247 0 -0.00051139 0 -0.00400774)
(-0.00815485 2.70369e-05 -1.23508e-20 -0.000149655 2.13263e-20 -0.0033218)
(-0.01125 -2.52918e-05 5.02509e-24 -0.000699113 -1.08146e-21 -0.00477963)
(-0.0098351 1.72645e-05 0 -0.000317211 0 -0.00406092)
(-0.00885063 4.69573e-05 5.75754e-21 -0.000525276 -2.21781e-20 -0.00375036)
(-0.00742803 -1.7282e-06 3.57599e-22 -0.000147075 -1.06426e-21 -0.00303004)
(-0.0106416 -5.33594e-05 -7.77649e-21 -0.000704667 2.2929e-20 -0.00453851)
(-0.00920745 -5.58381e-05 9.91289e-21 -0.000320377 -4.60065e-20 -0.00381113)
(-0.00820713 -2.55684e-05 6.74362e-22 -0.000535237 -1.61801e-23 -0.00349695)
(-0.00676609 -2.85578e-05 -5.7095e-21 -0.000153891 1.10777e-20 -0.00276799)
(-0.00996578 -7.83658e-05 4.41885e-21 -0.000701848 -1.0791e-20 -0.00426705)
(-0.00855943 -0.000121675 3.53997e-22 -0.000327363 -3.45242e-22 -0.00355472)
(-0.0075762 -9.09672e-05 -5.47017e-21 -0.000541497 2.31854e-20 -0.00324708)
(-0.00616377 -5.26759e-05 -6.7469e-21 -0.000169265 9.9022e-21 -0.00253321)
(-0.00922963 -9.963e-05 -8.24939e-21 -0.000691546 2.41369e-20 -0.00396847)
(-0.007893 -0.000178521 -4.86585e-21 -0.000337691 2.45053e-20 -0.00329228)
(-0.00695617 -0.000147498 -1.135e-20 -0.000544383 4.80479e-20 -0.00300022)
(-0.00561416 -7.33678e-05 6.10838e-21 -0.000192139 -1.11225e-20 -0.00232252)
(-0.0084417 -0.000116573 4.14661e-21 -0.000674851 -1.30876e-20 -0.00364662)
(-0.00721049 -0.000224888 4.86585e-21 -0.000350784 -2.45053e-20 -0.00302451)
(-0.006345 -0.000193636 0 -0.000544289 0 -0.00275571)
(-0.00510898 -8.9988e-05 -3.39541e-22 -0.000221272 1.86908e-22 -0.0021321)
(-0.00761188 -0.000128728 4.52132e-21 -0.000653041 -1.27352e-20 -0.00330597)
(-0.00651469 -0.000259568 6.59538e-22 -0.00036607 -1.25082e-23 -0.0027523)
(-0.00574051 -0.00022813 -5.24016e-21 -0.000541749 2.55022e-20 -0.0025129)
(-0.00463885 -0.000101995 -6.48926e-21 -0.00025528 1.20209e-20 -0.00195765)
(-0.00675065 -0.000135776 3.89123e-21 -0.000627379 -1.30414e-20 -0.00295121)
(-0.00580835 -0.000281687 5.26476e-21 -0.000382683 -2.61568e-20 -0.00247641)
(-0.00514001 -0.000249991 -5.26476e-21 -0.000537131 2.61568e-20 -0.00227086)
(-0.0041932 -0.00010892 -6.50583e-21 -0.000292556 1.24071e-20 -0.0017943)
(-0.00587013 -0.000137548 -3.92034e-21 -0.000599574 1.40124e-20 -0.00258788)
(-0.00509564 -0.000290685 3.1606e-22 -0.000400274 3.20909e-22 -0.00219836)
(-0.00454187 -0.000258494 3.35463e-22 -0.000531401 -3.27786e-22 -0.00202931)
(-0.0037617 -0.000110373 -5.33156e-26 -0.000331726 1.14547e-23 -0.00163737)
(-0.00498033 -0.000134041 5.28611e-27 -0.000570149 -1.13679e-24 -0.00222019)
(-0.00437823 -0.000286357 -3.35463e-22 -0.000416732 3.27786e-22 -0.00191798)
(-0.0039418 -0.000252983 -6.2713e-21 -0.0005239 2.71411e-20 -0.00178628)
(-0.00333106 -0.000105926 1.21153e-20 -0.000370247 -2.81416e-20 -0.00148052)
(-0.00409756 -0.000125349 3.29583e-22 -0.000542172 3.1012e-22 -0.00185589)
(-0.00366565 -0.000268609 -5.00606e-21 -0.00043399 2.84248e-20 -0.00163986)
(-0.00334326 -0.000232993 0 -0.000518092 0 -0.00154454)
(-0.00289365 -9.50383e-05 1.1767e-23 -0.000408165 -3.20808e-22 -0.00132072)
(-0.00322167 -0.000111848 -4.2902e-21 -0.000512195 1.42059e-20 -0.00149355)
(-0.00294889 -0.000237991 1.03432e-20 -0.000443721 -5.71741e-20 -0.00135704)
(-0.00273165 -0.000197853 -1.10037e-20 -0.000507021 5.78221e-20 -0.00129547)
(-0.00242517 -7.70362e-05 -6.23136e-21 -0.000437774 1.37969e-20 -0.00114518)
(-0.00239441 -9.31655e-05 6.46878e-22 -0.000494466 3.02154e-22 -0.00115555)
(-0.00226859 -0.000194303 -4.70119e-21 -0.00046698 2.93935e-20 -0.00109423)
(-0.00214166 -0.00014977 -1.00556e-23 -0.000513011 6.44393e-22 -0.00106187)
(-0.00194097 -5.26717e-05 -1.28176e-20 -0.000468705 2.92106e-20 -0.000963871)
(-0.00154468 -6.77011e-05 8.63428e-21 -0.000462936 -3.02668e-20 -0.000803046)
(-0.00153318 -0.000136703 6.47255e-22 -0.00046245 8.12466e-25 -0.000798252)
(-0.0014807 -8.9601e-05 3.18611e-22 -0.000498244 3.22649e-22 -0.000791577)
(-0.00135483 -2.35396e-05 1.25076e-20 -0.000475328 -3.00098e-20 -0.000732064)
(-0.000909346 -2.66911e-05 -4.29678e-21 -0.000519835 3.10136e-20 -0.000571673)
(-0.000981511 -5.18349e-05 -3.18806e-22 -0.000595305 -1.2471e-24 -0.000630727)
(-0.000973357 -3.03039e-05 8.97306e-23 -0.000635335 3.23217e-22 -0.000643477)
(-0.000865268 -1.35498e-05 -3.02945e-23 -0.000559543 -3.11613e-22 -0.000569924)
)
;

boundaryField
{
    plateFix
    {
        type            calculated;
        value           nonuniform List<symmTensor> 4((-0.0262811 -0.00709315 -5.17086e-24 -0.00952355 3.47144e-20 -0.0143219) (-0.025376 -0.00331231 -5.09827e-25 -0.0143316 -3.05688e-25 -0.015883) (-0.028464 0.002609 0 -0.0156063 0 -0.0176281) (-0.0404628 0.0092419 -2.13634e-23 -0.014559 5.38595e-20 -0.0220087));
    }
    plate
    {
        type            calculated;
        value           nonuniform List<symmTensor> 
168
(
(-0.0201217 -1.37288e-05 -2.01637e-23 -0.000527391 6.95411e-20 -0.00825965)
(-0.030909 -1.38949e-05 -5.00689e-23 -0.000465725 1.07789e-19 -0.0125499)
(-0.0207456 -1.15552e-05 1.75534e-24 -0.000524316 1.18522e-21 -0.00850797)
(-0.031974 -1.1941e-05 3.41544e-23 -0.000463085 -8.6898e-20 -0.0129749)
(-0.0217376 -9.61459e-06 4.49576e-24 -0.00052289 3.98725e-20 -0.00890421)
(-0.0334377 -1.03616e-05 -2.2548e-23 -0.000461834 8.16207e-20 -0.0135598)
(-0.022208 -8.767e-06 1.39625e-23 -0.000522144 -1.14902e-19 -0.00909208)
(-0.0340169 -9.72538e-06 1.34776e-23 -0.000461169 -4.02196e-20 -0.0137912)
(-0.0226467 -9.1933e-06 -2.27092e-23 -0.000521736 7.12456e-20 -0.00926737)
(-0.0344622 -1.03649e-05 -3.1542e-25 -0.000460721 1.05852e-21 -0.0139692)
(-0.0229766 -1.03563e-05 1.11132e-23 -0.000521514 -3.34466e-20 -0.00939926)
(-0.0346816 -1.15998e-05 -3.75113e-24 -0.000460358 -1.17279e-21 -0.0140568)
(-0.0232921 -1.20229e-05 5.87442e-23 -0.000521415 -2.18805e-21 -0.00952539)
(-0.0348303 -1.32294e-05 8.01439e-23 -0.00046001 3.36786e-20 -0.0141161)
(-0.023588 -1.4013e-05 5.5452e-24 -0.000521398 3.06275e-20 -0.00964375)
(-0.0349156 -1.50582e-05 2.01806e-23 -0.000459645 -3.07165e-20 -0.0141501)
(-0.0238765 -1.62475e-05 1.07711e-23 -0.000521441 1.40779e-21 -0.00975917)
(-0.0349659 -1.70218e-05 -1.81758e-22 -0.000459242 -2.85281e-20 -0.0141701)
(-0.024152 -1.86868e-05 7.37403e-23 -0.000521533 4.7808e-21 -0.00986942)
(-0.0349816 -1.90865e-05 -1.39831e-22 -0.000458785 -8.15172e-22 -0.0141762)
(-0.0244118 -2.13195e-05 -1.49812e-22 -0.000521674 -3.93563e-21 -0.00997341)
(-0.0349643 -2.12433e-05 -6.25079e-23 -0.000458269 -5.48175e-22 -0.014169)
(-0.0246521 -2.41496e-05 1.51882e-23 -0.000521866 -1.91742e-20 -0.0100696)
(-0.0349121 -2.34917e-05 2.30712e-22 -0.000457689 1.94628e-20 -0.0141479)
(-0.0248715 -2.71856e-05 2.25818e-22 -0.000522111 1.77177e-20 -0.0101575)
(-0.0348254 -2.583e-05 -8.09346e-23 -0.000457042 8.2576e-21 -0.014113)
(-0.02507 -3.04391e-05 -2.39463e-22 -0.000522408 2.53511e-22 -0.010237)
(-0.0347056 -2.82586e-05 -8.09524e-23 -0.000456318 3.79157e-21 -0.0140648)
(-0.0252486 -3.39196e-05 -2.56388e-22 -0.000522751 3.29799e-20 -0.0103086)
(-0.0345556 -3.07768e-05 -3.058e-22 -0.000455512 6.23989e-22 -0.0140044)
(-0.0254088 -3.76341e-05 1.32427e-22 -0.000523129 -3.65263e-20 -0.0103728)
(-0.0343794 -3.33855e-05 1.46145e-23 -0.000454616 -1.21371e-20 -0.0139336)
(-0.0255514 -4.15848e-05 -4.92738e-22 -0.000523521 1.10072e-20 -0.0104299)
(-0.0341816 -3.60863e-05 -1.68061e-22 -0.000453634 9.79245e-21 -0.0138541)
(-0.0256756 -4.57659e-05 7.102e-22 -0.000523894 -8.36813e-21 -0.0104798)
(-0.0339669 -3.88816e-05 6.52146e-25 -0.000452579 -4.51641e-22 -0.0137678)
(-0.0257791 -5.01664e-05 2.4874e-22 -0.000524206 7.49025e-21 -0.0105213)
(-0.0337406 -4.17725e-05 3.77454e-22 -0.000451496 -8.69823e-21 -0.0136768)
(-0.0258571 -5.47452e-05 5.04029e-25 -0.000524349 -2.94978e-22 -0.0105526)
(-0.0335081 -4.47726e-05 2.40596e-23 -0.000450426 -1.40995e-20 -0.0135834)
(-0.025902 -5.94991e-05 -1.05456e-21 -0.000524359 1.24713e-20 -0.0105705)
(-0.033276 -4.78646e-05 7.87641e-22 -0.000449552 -1.61004e-20 -0.0134902)
(-0.0259044 -6.42601e-05 -1.61646e-24 -0.000523803 8.10911e-22 -0.0105713)
(-0.0330512 -5.11242e-05 6.80481e-22 -0.00044884 1.06354e-20 -0.0134)
(-0.0258472 -6.94481e-05 1.02705e-21 -0.000523214 -9.73118e-21 -0.0105482)
(-0.0328361 -5.44642e-05 -7.11808e-23 -0.000448825 3.52659e-21 -0.013314)
(-0.0257152 -7.4835e-05 -5.31435e-22 -0.000521666 -1.45333e-22 -0.0104948)
(-0.0326488 -5.76419e-05 -8.40818e-23 -0.000448947 7.98494e-21 -0.0132391)
(-0.025508 -7.97768e-05 2.05787e-23 -0.000519444 -8.35497e-21 -0.010411)
(-0.0325087 -6.07183e-05 1.66144e-21 -0.000449857 2.11651e-20 -0.0131834)
(-0.0252269 -8.42906e-05 -1.30125e-21 -0.000516581 2.58875e-20 -0.0102974)
(-0.0324147 -6.3627e-05 -3.39131e-21 -0.000451261 -8.06816e-21 -0.0131464)
(-0.024874 -8.83615e-05 -1.39203e-21 -0.000513056 2.38907e-20 -0.0101548)
(-0.0323648 -6.64078e-05 1.94221e-21 -0.000453203 8.12403e-21 -0.0131272)
(-0.0244535 -9.1979e-05 -1.54404e-21 -0.000508997 -1.59068e-20 -0.00998499)
(-0.0323548 -6.90627e-05 1.77052e-22 -0.000455599 -1.06597e-20 -0.0131242)
(-0.0239705 -9.51491e-05 2.2383e-23 -0.000504427 -7.43027e-21 -0.00978996)
(-0.0323795 -7.15927e-05 2.06083e-21 -0.000458352 -2.17969e-22 -0.0131351)
(-0.0234312 -9.78767e-05 2.2707e-23 -0.000499422 -7.24558e-21 -0.00957226)
(-0.0324326 -7.3999e-05 2.47098e-21 -0.000461385 -3.18527e-20 -0.0131576)
(-0.0228427 -0.000100175 -6.40959e-23 -0.000494027 -2.46971e-20 -0.0093347)
(-0.0325074 -7.62733e-05 -2.38147e-23 -0.000464598 7.33679e-21 -0.0131888)
(-0.0222124 -0.000102062 3.7944e-21 -0.000488291 -1.11824e-22 -0.00908029)
(-0.0325963 -7.84059e-05 -2.31528e-21 -0.0004679 -1.8535e-20 -0.0132257)
(-0.0215484 -0.00010356 -1.88761e-21 -0.000482259 1.56533e-20 -0.00881227)
(-0.0326914 -8.03819e-05 2.58053e-21 -0.000471194 3.53634e-21 -0.0132651)