/*--------------------------------*- C++ -*----------------------------------*\
| =========                 |                                                 |
| \\      /  F ield         | OpenFOAM Extend Project: Open source CFD        |
|  \\    /   O peration     | Version:  1.6-ext                               |
|   \\  /    A nd           | Web:      www.extend-project.de                 |
|    \\/     M anipulation  |                                                 |
\*---------------------------------------------------------------------------*/
FoamFile
{
    version     2.0;
    format      ascii;
    class       volVectorField;
    location    "0.85";
    object      DU;
}
// * * * * * * * * * * * * * * * * * * * * * * * * * * * * * * * * * * * * * //

dimensions      [0 1 0 0 0 0 0];

internalField   nonuniform List<vector> 
328
(
(-5.98008e-10 -1.26816e-09 0)
(-4.74691e-10 -3.34076e-10 0)
(-5.41747e-10 2.83273e-10 0)
(-9.22689e-10 1.68782e-09 0)
(-1.81628e-09 -3.22626e-09 0)
(-1.56216e-09 -8.83618e-10 0)
(-1.79628e-09 9.19513e-10 0)
(-2.81677e-09 4.35771e-09 0)
(-3.22959e-09 -4.60937e-09 0)
(-3.00725e-09 -1.29883e-09 0)
(-3.4807e-09 1.62558e-09 0)
(-5.00899e-09 6.41711e-09 0)
(-4.77349e-09 -5.47504e-09 0)
(-4.70235e-09 -1.53152e-09 0)
(-5.44951e-09 2.36016e-09 0)
(-7.39635e-09 7.99823e-09 0)
(-6.47181e-09 -5.90905e-09 0)
(-6.67249e-09 -1.5602e-09 0)
(-7.72859e-09 3.11227e-09 0)
(-1.00064e-08 9.26079e-09 0)
(-8.32021e-09 -5.97387e-09 0)
(-8.88265e-09 -1.36847e-09 0)
(-1.02713e-08 3.88875e-09 0)
(-1.28255e-08 1.03312e-08 0)
(-1.03322e-08 -5.71743e-09 0)
(-1.1329e-08 -9.4952e-10 0)
(-1.30719e-08 4.71348e-09 0)
(-1.58664e-08 1.13167e-08 0)
(-1.25184e-08 -5.16936e-09 0)
(-1.39985e-08 -2.97288e-10 0)
(-1.6114e-08 5.61991e-09 0)
(-1.91373e-08 1.23034e-08 0)
(-1.48932e-08 -4.34592e-09 0)
(-1.68884e-08 5.94719e-10 0)
(-1.93942e-08 6.64861e-09 0)
(-2.26526e-08 1.33649e-08 0)
(-1.7471e-08 -3.25035e-09 0)
(-1.99982e-08 1.73733e-09 0)
(-2.29112e-08 7.84366e-09 0)
(-2.64263e-08 1.45648e-08 0)
(-2.02674e-08 -1.87475e-09 0)
(-2.33332e-08 3.14705e-09 0)
(-2.66706e-08 9.25129e-09 0)
(-3.04738e-08 1.59608e-08 0)
(-2.32981e-08 -2.00737e-10 0)
(-2.69031e-08 4.84753e-09 0)
(-3.0682e-08 1.09189e-08 0)
(-3.48108e-08 1.76068e-08 0)
(-2.65798e-08 1.79975e-09 0)
(-3.07219e-08 6.86997e-09 0)
(-3.49594e-08 1.28949e-08 0)
(-3.94533e-08 1.95553e-08 0)
(-3.01299e-08 4.16388e-09 0)
(-3.48071e-08 9.25336e-09 0)
(-3.95205e-08 1.52298e-08 0)
(-4.44179e-08 2.18585e-08 0)
(-3.39669e-08 6.93725e-09 0)
(-3.91792e-08 1.20443e-08 0)
(-4.43854e-08 1.79761e-08 0)
(-4.97222e-08 2.45704e-08 0)
(-3.81107e-08 1.01734e-08 0)
(-4.38607e-08 1.52965e-08 0)
(-4.95766e-08 2.11902e-08 0)
(-5.53845e-08 2.7748e-08 0)
(-4.25825e-08 1.39335e-08 0)
(-4.88759e-08 1.90711e-08 0)
(-5.51182e-08 2.49331e-08 0)
(-6.1425e-08 3.14525e-08 0)
(-4.74049e-08 1.82858e-08 0)
(-5.42501e-08 2.34358e-08 0)
(-6.10352e-08 2.92709e-08 0)
(-6.78649e-08 3.57505e-08 0)
(-5.26015e-08 2.33058e-08 0)
(-6.00094e-08 2.84653e-08 0)
(-6.73541e-08 3.42765e-08 0)
(-7.47278e-08 4.07149e-08 0)
(-5.81963e-08 2.90771e-08 0)
(-6.61803e-08 3.42419e-08 0)
(-7.41019e-08 4.00301e-08 0)
(-8.20392e-08 4.64265e-08 0)
(-6.42133e-08 3.56918e-08 0)
(-7.27896e-08 4.08564e-08 0)
(-8.1307e-08 4.66208e-08 0)
(-8.98276e-08 5.29748e-08 0)
(-7.0675e-08 4.32532e-08 0)
(-7.98638e-08 4.84103e-08 0)
(-8.89991e-08 5.41488e-08 0)
(-9.81248e-08 6.04607e-08 0)
(-7.7866e-08 5.22081e-08 0)
(-8.77173e-08 5.73474e-08 0)
(-9.75226e-08 6.30554e-08 0)
(-1.07304e-07 6.9325e-08 0)
(-8.55384e-08 6.24346e-08 0)
(-9.60868e-08 6.75434e-08 0)
(-1.06598e-07 7.32162e-08 0)
(-1.17069e-07 7.94467e-08 0)
(-9.31631e-08 7.32953e-08 0)
(-1.04409e-07 7.83614e-08 0)
(-1.15626e-07 8.39963e-08 0)
(-1.26788e-07 9.01939e-08 0)
(-1.00718e-07 8.47972e-08 0)
(-1.12674e-07 8.98087e-08 0)
(-1.2461e-07 9.54028e-08 0)
(-1.36475e-07 1.01574e-07 0)
(-1.08182e-07 9.69618e-08 0)
(-1.20873e-07 1.01907e-07 0)
(-1.33551e-07 1.07457e-07 0)
(-1.46144e-07 1.13607e-07 0)
(-1.15533e-07 1.09824e-07 0)
(-1.28995e-07 1.14691e-07 0)
(-1.4245e-07 1.20195e-07 0)
(-1.55807e-07 1.26329e-07 0)
(-1.22753e-07 1.23429e-07 0)
(-1.37031e-07 1.28209e-07 0)
(-1.51309e-07 1.33663e-07 0)
(-1.65477e-07 1.39786e-07 0)
(-1.29823e-07 1.37837e-07 0)
(-1.44974e-07 1.42519e-07 0)
(-1.60129e-07 1.4792e-07 0)
(-1.75162e-07 1.54035e-07 0)
(-1.3673e-07 1.53113e-07 0)
(-1.52816e-07 1.57689e-07 0)
(-1.68909e-07 1.63034e-07 0)
(-1.84871e-07 1.69143e-07 0)
(-1.43458e-07 1.69332e-07 0)
(-1.60549e-07 1.73794e-07 0)
(-1.77649e-07 1.79081e-07 0)
(-1.9461e-07 1.85186e-07 0)
(-1.49998e-07 1.86574e-07 0)
(-1.68168e-07 1.90917e-07 0)
(-1.86348e-07 1.96142e-07 0)
(-2.04381e-07 2.02242e-07 0)
(-1.5634e-07 2.04925e-07 0)
(-1.75668e-07 2.09144e-07 0)
(-1.95002e-07 2.14303e-07 0)
(-2.14186e-07 2.20398e-07 0)
(-1.6248e-07 2.24473e-07 0)
(-1.83043e-07 2.28564e-07 0)
(-2.0361e-07 2.33655e-07 0)
(-2.24024e-07 2.39741e-07 0)
(-1.68414e-07 2.45306e-07 0)
(-1.90292e-07 2.49267e-07 0)
(-2.12168e-07 2.54287e-07 0)
(-2.3389e-07 2.60361e-07 0)
(-1.74141e-07 2.67511e-07 0)
(-1.9741e-07 2.71342e-07 0)
(-2.2067e-07 2.76288e-07 0)
(-2.43777e-07 2.82344e-07 0)
(-1.79665e-07 2.91174e-07 0)
(-2.04398e-07 2.94876e-07 0)
(-2.29112e-07 2.99745e-07 0)
(-2.53677e-07 3.05776e-07 0)
(-1.84991e-07 3.16374e-07 0)
(-2.11253e-07 3.19948e-07 0)
(-2.37487e-07 3.24737e-07 0)
(-2.63576e-07 3.30735e-07 0)
(-1.90126e-07 3.43181e-07 0)
(-2.17978e-07 3.46632e-07 0)
(-2.45787e-07 3.51338e-07 0)
(-2.73459e-07 3.57294e-07 0)
(-1.95083e-07 3.71657e-07 0)
(-2.24572e-07 3.7499e-07 0)
(-2.54006e-07 3.79611e-07 0)
(-2.8331e-07 3.85515e-07 0)
(-1.99872e-07 4.01855e-07 0)
(-2.31037e-07 4.05076e-07 0)
(-2.62133e-07 4.09608e-07 0)
(-2.93108e-07 4.15448e-07 0)
(-2.04509e-07 4.33812e-07 0)
(-2.37377e-07 4.36927e-07 0)
(-2.7016e-07 4.4137e-07 0)
(-3.02833e-07 4.47134e-07 0)
(-2.09009e-07 4.67553e-07 0)
(-2.43594e-07 4.70571e-07 0)
(-2.78077e-07 4.7492e-07 0)
(-3.12461e-07 4.80595e-07 0)
(-2.1339e-07 5.03088e-07 0)
(-2.49691e-07 5.06016e-07 0)
(-2.85874e-07 5.1027e-07 0)
(-3.21968e-07 5.15844e-07 0)
(-2.17669e-07 5.40411e-07 0)
(-2.55672e-07 5.43258e-07 0)
(-2.9354e-07 5.47414e-07 0)
(-3.31331e-07 5.52873e-07 0)
(-2.21864e-07 5.795e-07 0)
(-2.61541e-07 5.82276e-07 0)
(-3.01064e-07 5.86332e-07 0)
(-3.40523e-07 5.91664e-07 0)
(-2.25993e-07 6.2032e-07 0)
(-2.673e-07 6.23032e-07 0)
(-3.08436e-07 6.26987e-07 0)
(-3.4952e-07 6.32178e-07 0)
(-2.30074e-07 6.62817e-07 0)
(-2.72953e-07 6.65475e-07 0)
(-3.15646e-07 6.69325e-07 0)
(-3.58297e-07 6.74363e-07 0)
(-2.34122e-07 7.06923e-07 0)
(-2.78503e-07 7.09535e-07 0)
(-3.22683e-07 7.1328e-07 0)
(-3.6683e-07 7.18153e-07 0)
(-2.38155e-07 7.52556e-07 0)
(-2.83953e-07 7.55129e-07 0)
(-3.29537e-07 7.58767e-07 0)
(-3.75097e-07 7.63464e-07 0)
(-2.42184e-07 7.9962e-07 0)
(-2.89306e-07 8.02162e-07 0)
(-3.36199e-07 8.05691e-07 0)
(-3.83077e-07 8.10201e-07 0)
(-2.46223e-07 8.48007e-07 0)
(-2.94561e-07 8.50523e-07 0)
(-3.4266e-07 8.53941e-07 0)
(-3.9075e-07 8.58257e-07 0)
(-2.50281e-07 8.97597e-07 0)
(-2.99721e-07 9.00091e-07 0)
(-3.48912e-07 9.03398e-07 0)
(-3.981e-07 9.07511e-07 0)
(-2.54365e-07 9.48263e-07 0)
(-3.04785e-07 9.50739e-07 0)
(-3.54949e-07 9.53932e-07 0)
(-4.05113e-07 9.57837e-07 0)
(-2.58478e-07 9.99868e-07 0)
(-3.09752e-07 1.00233e-06 0)
(-3.60764e-07 1.00541e-06 0)
(-4.11777e-07 1.0091e-06 0)
(-2.62622e-07 1.05227e-06 0)
(-3.1462e-07 1.05472e-06 0)
(-3.66353e-07 1.05768e-06 0)
(-4.18085e-07 1.06116e-06 0)
(-2.66795e-07 1.10534e-06 0)
(-3.19386e-07 1.10776e-06 0)
(-3.71712e-07 1.11061e-06 0)
(-4.24033e-07 1.11387e-06 0)
(-2.70992e-07 1.15892e-06 0)
(-3.24046e-07 1.16132e-06 0)
(-3.76838e-07 1.16405e-06 0)
(-4.29619e-07 1.1671e-06 0)
(-2.75203e-07 1.21287e-06 0)
(-3.28596e-07 1.21525e-06 0)
(-3.81731e-07 1.21786e-06 0)
(-4.34846e-07 1.2207e-06 0)
(-2.79417e-07 1.26707e-06 0)
(-3.3303e-07 1.26942e-06 0)
(-3.86389e-07 1.27191e-06 0)
(-4.39721e-07 1.27454e-06 0)
(-2.8362e-07 1.32139e-06 0)
(-3.3734e-07 1.3237e-06 0)
(-3.90815e-07 1.32607e-06 0)
(-4.44251e-07 1.32849e-06 0)
(-2.87795e-07 1.37572e-06 0)
(-3.41521e-07 1.37798e-06 0)
(-3.95011e-07 1.38023e-06 0)
(-4.48448e-07 1.38245e-06 0)
(-2.91923e-07 1.42994e-06 0)
(-3.45563e-07 1.43214e-06 0)
(-3.98979e-07 1.43427e-06 0)
(-4.52328e-07 1.43631e-06 0)
(-2.95983e-07 1.48397e-06 0)
(-3.4946e-07 1.48611e-06 0)
(-4.02723e-07 1.48811e-06 0)
(-4.55905e-07 1.48997e-06 0)
(-2.99955e-07 1.53774e-06 0)
(-3.53202e-07 1.5398e-06 0)
(-4.06248e-07 1.54168e-06 0)
(-4.59197e-07 1.54337e-06 0)
(-3.03816e-07 1.59118e-06 0)
(-3.56782e-07 1.59315e-06 0)
(-4.09558e-07 1.5949e-06 0)
(-4.62223e-07 1.59643e-06 0)
(-3.07543e-07 1.64425e-06 0)
(-3.6019e-07 1.64612e-06 0)
(-4.12659e-07 1.64774e-06 0)
(-4.65002e-07 1.64913e-06 0)
(-3.11116e-07 1.69692e-06 0)
(-3.63419e-07 1.69867e-06 0)
(-4.15556e-07 1.70017e-06 0)
(-4.67552e-07 1.70141e-06 0)
(-3.14512e-07 1.74917e-06 0)
(-3.6646e-07 1.75081e-06 0)
(-4.18253e-07 1.75218e-06 0)
(-4.69892e-07 1.75329e-06 0)
(-3.17713e-07 1.80101e-06 0)
(-3.69307e-07 1.80251e-06 0)
(-4.20756e-07 1.80376e-06 0)
(-4.72038e-07 1.80474e-06 0)
(-3.20701e-07 1.85244e-06 0)
(-3.71953e-07 1.85381e-06 0)
(-4.23068e-07 1.85492e-06 0)
(-4.74006e-07 1.85579e-06 0)
(-3.2346e-07 1.90351e-06 0)
(-3.74393e-07 1.90472e-06 0)
(-4.25194e-07 1.90571e-06 0)
(-4.75809e-07 1.90646e-06 0)
(-3.25979e-07 1.95422e-06 0)
(-3.7662e-07 1.95529e-06 0)
(-4.27136e-07 1.95614e-06 0)
(-4.77458e-07 1.95679e-06 0)
(-3.28245e-07 2.00465e-06 0)
(-3.78633e-07 2.00555e-06 0)
(-4.28897e-07 2.00627e-06 0)
(-4.78963e-07 2.00682e-06 0)
(-3.30253e-07 2.05482e-06 0)
(-3.80427e-07 2.05556e-06 0)
(-4.30478e-07 2.05615e-06 0)
(-4.80327e-07 2.0566e-06 0)
(-3.32e-07 2.1048e-06 0)
(-3.82002e-07 2.10537e-06 0)
(-4.3188e-07 2.10583e-06 0)
(-4.81554e-07 2.10617e-06 0)
(-3.33484e-07 2.15463e-06 0)
(-3.83357e-07 2.15504e-06 0)
(-4.33101e-07 2.15537e-06 0)
(-4.82643e-07 2.15561e-06 0)
(-3.3471e-07 2.20437e-06 0)
(-3.84496e-07 2.20463e-06 0)
(-4.34145e-07 2.20482e-06 0)
(-4.83591e-07 2.20496e-06 0)
(-3.35679e-07 2.25407e-06 0)
(-3.85415e-07 2.25417e-06 0)
(-4.35002e-07 2.25424e-06 0)
(-4.84385e-07 2.25426e-06 0)
(-3.36415e-07 2.30378e-06 0)
(-3.86135e-07 2.30373e-06 0)
(-4.35688e-07 2.30366e-06 0)
(-4.85029e-07 2.30356e-06 0)
(-3.36885e-07 2.35354e-06 0)
(-3.86615e-07 2.35333e-06 0)
(-4.36154e-07 2.35312e-06 0)
(-4.85468e-07 2.35288e-06 0)
)
;

boundaryField
{
    plateFix
    {
        type            fixedDisplacement;
        value           uniform (0 0 0);
    }
    plate
    {
        type            solidTraction;
        nonLinear       updatedLagrangian;
        traction        nonuniform List<vector> 
168
(
(1.82274e-05 7.41536e-05 -7.28966e-20)
(2.21997e-05 -7.63466e-05 7.43592e-20)
(-0.000117249 -6.62742e-05 4.38805e-20)
(-0.000104419 5.80453e-05 -8.82632e-20)
(-0.000571648 -0.000244258 -4.19245e-20)
(-0.00053976 0.000231351 4.469e-20)
(-0.00127608 -0.000386978 7.94399e-20)
(-0.00121862 0.000371238 3.99311e-20)
(-0.00217663 -0.000476396 -3.50445e-20)
(-0.00208941 0.000459259 -3.75859e-20)
(-0.0032241 -0.000515368 0)
(-0.00310451 0.000497721 1.71795e-23)
(-0.00436787 -0.000516367 3.25631e-20)
(-0.00421462 0.00049852 4.07972e-21)
(-0.00556372 -0.000493574 3.71477e-21)
(-0.00537645 0.000475355 0)
(-0.00677707 -0.000458938 -2.76158e-20)
(-0.00655592 0.000439847 0)
(-0.00798305 -0.000421143 -3.14115e-21)
(-0.00772834 0.000400491 -2.8394e-20)
(-0.00916576 -0.000385769 -4.45837e-23)
(-0.00887771 0.000362781 -2.82335e-21)
(-0.0103169 -0.00035589 2.05401e-20)
(-0.00999539 0.00032978 2.58554e-20)
(-0.0114337 -0.000332758 -2.30471e-20)
(-0.0110784 0.000302771 -7.23591e-23)
(-0.0125173 -0.000316401 -4.09633e-21)
(-0.0121275 0.000281828 0)
(-0.0135707 -0.000306086 -1.81283e-20)
(-0.0131455 0.000266267 -1.45892e-20)
(-0.0145969 -0.000300631 1.28307e-20)
(-0.0141353 0.000254956 3.17617e-21)
(-0.0155976 -0.000298606 -5.51403e-21)
(-0.0150988 0.000246522 1.12307e-20)
(-0.016571 -0.000298389 0)
(-0.0160348 0.00023942 1.53781e-22)
(-0.0175138 -0.000298192 0)
(-0.016941 0.000232007 0)
(-0.0184112 -0.000295782 3.64977e-21)
(-0.0178036 0.000222259 -1.11001e-20)
(-0.019267 -0.000287725 0)
(-0.0186284 0.000207276 1.25058e-20)
(-0.0200083 -0.000274897 -2.84175e-21)
(-0.0193482 0.000187817 5.40313e-21)
(-0.0208826 -0.000226343 0)
(-0.0201966 0.000135771 -9.0971e-21)
(-0.0217949 -0.00016958 0)
(-0.0210806 7.39859e-05 8.97892e-21)
(-0.0225548 -0.000159687 0)
(-0.021829 5.65709e-05 0)
(-0.0232758 -0.000145366 -2.66367e-22)
(-0.0225462 3.54973e-05 0)
(-0.0239088 -0.000141046 -8.0256e-21)
(-0.0231876 2.44624e-05 -2.66252e-22)
(-0.0244958 -0.000133821 -3.41606e-22)
(-0.0237939 1.10587e-05 0)
(-0.025016 -0.000128732 8.13209e-21)
(-0.0243459 1.89621e-07 8.39307e-21)
(-0.0254828 -0.00012241 0)
(-0.0248569 -1.14136e-05 -1.63695e-20)
(-0.0258877 -0.000116188 3.55402e-21)
(-0.0253194 -2.2408e-05 1.18819e-20)
(-0.0262333 -0.000109093 -1.00188e-22)
(-0.0257359 -3.37339e-05 -7.71706e-21)
(-0.026515 -0.000101371 -3.70243e-21)
(-0.0261022 -4.51144e-05 3.58029e-21)
(-0.0267311 -9.26877e-05 -3.27338e-21)
(-0.0264164 -5.68634e-05 0)
(-0.0268777 -8.30273e-05 6.88756e-21)
(-0.0266747 -6.89711e-05 -3.30059e-21)
(-0.0269517 -7.22422e-05 -3.39218e-21)
(-0.0268735 -8.15673e-05 3.52836e-21)
(-0.0269493 -6.02809e-05 -2.01605e-22)
(-0.0270084 -9.4688e-05 -2.10718e-22)
(-0.0268668 -4.70739e-05 -1.95045e-22)
(-0.027075 -0.000108391 3.20692e-21)
(-0.0267004 -3.2593e-05 -1.8717e-22)
(-0.0270685 -0.000122697 -3.40755e-21)
(-0.0264466 -1.68229e-05 -3.60073e-22)
(-0.0269841 -0.000137617 2.97983e-21)
(-0.026102 2.22721e-07 0)
(-0.0268171 -0.000153136 -5.84532e-21)
(-0.0256635 1.85063e-05 2.73136e-21)
(-0.0265629 -0.000169219 3.04121e-21)
(-0.0251285 3.79654e-05 -4.42066e-22)
(-0.0262169 -0.000185809 0)
(-0.0244948 5.85122e-05 -1.29104e-22)
(-0.0257751 -0.000202825 1.60607e-22)
(-0.0237609 8.00344e-05 -2.45688e-21)
(-0.0252338 -0.000220162 2.21741e-21)
(-0.0229257 0.000102397 -2.05871e-21)
(-0.0245899 -0.000237694 -2.37225e-21)
(-0.0219889 0.000125445 2.06069e-21)
(-0.023841 -0.000255275 2.73214e-22)
(-0.0209511 0.000149005 -1.80398e-21)
(-0.0229851 -0.00027274 2.11509e-21)
(-0.0198134 0.000172891 1.69683e-21)
(-0.0220214 -0.000289909 -1.9884e-21)
(-0.0185778 0.000196905 1.5533e-21)
(-0.0209496 -0.000306594 0)
(-0.0172471 0.000220844 -1.83655e-21)
(-0.0197704 -0.000322599 -1.60287e-21)
(-0.0158248 0.000244507 8.76255e-23)
(-0.0184854 -0.000337726 1.60475e-21)
(-0.0143151 0.000267695 1.42972e-21)
(-0.0170972 -0.000351782 0)
(-0.0127229 0.000290219 -1.15177e-22)
(-0.0156089 -0.000364583 -8.17431e-23)
(-0.0110536 0.000311903 -2.04856e-21)
(-0.0140247 -0.00037596 0)
(-0.00931332 0.00033259 9.69527e-22)
(-0.0123496 -0.000385762 0)
(-0.00750842 0.000352144 1.03464e-22)
(-0.0105891 -0.00039386 0)
(-0.00564567 0.000370455 4.45338e-23)
(-0.00874922 -0.000400154 -3.9155e-22)
(-0.00373203 0.00038744 7.93019e-23)
(-0.0068367 -0.000404573 5.1176e-23)
(-0.00177457 0.000403042 3.11874e-22)
(-0.00485847 -0.000407079 4.84849e-23)
(0.000219623 0.000417237 -4.19666e-22)
(-0.00282172 -0.000407666 2.93112e-22)
(0.00224361 0.00043003 2.99393e-22)
(-0.000733704 -0.000406364 2.62585e-22)
(0.00429066 0.000441459 -1.66978e-22)
(0.00139834 -0.000403235 -2.05489e-22)
(0.00635442 0.000451589 -1.46924e-23)
(0.00356736 -0.000398378 1.11924e-22)
(0.00842897 0.00046052 6.23488e-23)
(0.00576666 -0.000391924 -1.45566e-22)
(0.010509 0.000468381 -3.18595e-23)
(0.00799 -0.000384039 0)
(0.0125899 0.000475333 -2.05906e-23)
(0.0102318 -0.000374922 0)
(0.0146678 0.000481577 -3.08694e-23)
(0.0124872 -0.00036481 2.5946e-23)
(0.0167399 0.000487349 0)
(0.0147524 -0.000353977 -2.59221e-23)
(0.0188046 0.000492948 -1.02277e-24)
(0.0170247 -0.000342759 5.18366e-24)
(0.0208615 0.000498723 1.78472e-24)
(0.0193031 -0.000331536 -5.05293e-24)
(0.0229122 0.000505168 0)
(0.0215881 -0.00032083 -1.34851e-23)
(0.0249603 0.000512881 2.68024e-24)
(0.0238829 -0.000311265 1.35012e-23)
(0.0270128 0.000522926 -3.31721e-24)
(0.026194 -0.000303924 -1.7929e-23)
(0.0290807 0.000536808 -1.8716e-24)
(0.0285327 -0.000300342 5.10614e-24)
(0.0311827 0.000558377 0)
(0.030918 -0.000304435 1.14647e-23)
(0.0333508 0.000594419 3.28572e-24)
(0.0333842 -0.000323152 1.63591e-25)
(0.0356366 0.000669248 -7.80667e-24)
(0.0359847 -0.00038167 -5.03592e-24)
(0.0381741 0.000828598 -1.20752e-23)
(0.0388657 -0.000526833 -7.02105e-25)
(0.0411166 0.00128936 6.85444e-24)
(0.0421838 -0.00098573 -3.99435e-24)
(0.0454015 0.00243229 2.16949e-23)
(0.0469647 -0.0021473 9.60163e-24)
(0.051378 0.00689565 -8.19026e-24)
(0.0104405 0.00549059 -3.8139e-23)
(-0.000616583 -0.00275744 5.83204e-25)
(-0.00049867 0.00344515 -2.82639e-23)
(0.0108996 -0.00528694 0)
(0.0534078 -0.00680483 0)
)
;
        pressure        nonuniform List<scalar> 
168
(
-0.465611
-0.467716
-0.466227
-0.468312
-0.466906
-0.468976
-0.467574
-0.469635
-0.468162
-0.470221
-0.468597
-0.470662
-0.46883
-0.470911
-0.468834
-0.47094
-0.468594
-0.470737
-0.468106
-0.470295
-0.467367
-0.469614
-0.466375
-0.468692
-0.465123
-0.467524
-0.463598
-0.466099
-0.461782
-0.464402
-0.459646
-0.462406
-0.457154
-0.46008
-0.454262
-0.457385
-0.450929
-0.454281
-0.447085
-0.450708
-0.442736
-0.446672
-0.437669
-0.441969
-0.432175
-0.436883
-0.425382
-0.430602
-0.418486
-0.424236
-0.411037
-0.417359
-0.403337
-0.410256
-0.395219
-0.402764
-0.38679
-0.394982
-0.378
-0.386857
-0.368887
-0.37842
-0.359439
-0.369658
-0.349676
-0.360581
-0.339602
-0.351188
-0.32923
-0.341486
-0.318572
-0.331479
-0.307643
-0.321176
-0.296461
-0.310587
-0.285045
-0.299723
-0.273418
-0.288601
-0.261604
-0.277236
-0.249631
-0.26565
-0.237529
-0.253866
-0.225329
-0.241911
-0.213068
-0.229814
-0.200783
-0.217609
-0.188511
-0.205331
-0.176295
-0.193019
-0.164177
-0.180714
-0.152198
-0.168458
-0.140404
-0.156296
-0.128837
-0.144274
-0.11754
-0.132439
-0.106555
-0.120839
-0.0959245
-0.109519
-0.0856864
-0.0985251
-0.0758779
-0.0879032
-0.0665336
-0.0776955
-0.057685
-0.0679428
-0.0493607
-0.0586831
-0.041586
-0.0499516
-0.0343829
-0.0417803
-0.0277697
-0.0341975
-0.0217615
-0.0272283
-0.0163701
-0.0208942
-0.0116041
-0.0152133
-0.0074691
-0.0102003
-0.00396819
-0.00586697
-0.00110232
-0.00222246
0.00112954
0.000726474
0.00272911
0.00297423
0.00369924
0.0045167
0.00404102
0.00534837
0.00375567
0.00546386
0.00283767
0.00485148
0.00127925
0.00349565
-0.000944362
0.00136609
-0.00388428
-0.00160368
-0.00759741
-0.00547299
-0.0124994
-0.0107177
-0.0183479
-0.0170458
-0.0296947
-0.0627513
-0.0385587
-0.0387145
-0.064309
-0.0295686
)
;
        value           nonuniform List<vector> 
168
(
(-6.12255e-09 -3.20179e-09 -3.47094e-26)
(-8.3706e-09 4.70793e-09 5.38527e-26)
(-5.72747e-09 -5.22247e-09 -6.31844e-28)
(-8.36013e-09 7.48515e-09 -4.34253e-26)
(-5.68809e-09 -6.70474e-09 -1.98855e-26)
(-8.98865e-09 9.6915e-09 4.07996e-26)
(-6.10179e-09 -7.61736e-09 5.73872e-26)
(-1.02934e-08 1.13309e-08 -2.0136e-26)
(-6.95187e-09 -8.0951e-09 -3.55945e-26)
(-1.22209e-08 1.26381e-08 5.50802e-28)
(-8.158e-09 -8.19276e-09 1.67017e-26)
(-1.46432e-08 1.37306e-08 -6.01816e-28)
(-9.67638e-09 -7.96767e-09 1.12375e-27)
(-1.74904e-08 1.4731e-08 1.68863e-26)
(-1.14716e-08 -7.44898e-09 -1.53248e-26)
(-2.07084e-08 1.57262e-08 -1.53607e-26)
(-1.35254e-08 -6.65413e-09 -6.94992e-28)
(-2.42687e-08 1.67926e-08 -1.43251e-26)
(-1.58274e-08 -5.58582e-09 -2.39987e-27)
(-2.81553e-08 1.79939e-08 -4.30716e-28)
(-1.83753e-08 -4.23588e-09 1.97898e-27)
(-3.23625e-08 1.9388e-08 -2.8803e-28)
(-2.11717e-08 -2.58552e-09 9.56522e-27)
(-3.68913e-08 2.10286e-08 9.78774e-27)
(-2.42242e-08 -6.06533e-10 -8.8585e-27)
(-4.17477e-08 2.29681e-08 4.10845e-27)
(-2.75441e-08 1.73824e-09 -1.10654e-28)
(-4.69414e-08 2.52589e-08 1.8773e-27)
(-3.11462e-08 4.49432e-09 -1.64474e-26)
(-5.24853e-08 2.79554e-08 2.43125e-28)
(-3.50484e-08 7.71514e-09 1.8241e-26)
(-5.83951e-08 3.11149e-08 -6.06401e-27)
(-3.92712e-08 1.14617e-08 -5.4172e-27)
(-6.46891e-08 3.47991e-08 4.84885e-27)
(-4.38374e-08 1.58023e-08 4.05187e-27)
(-7.13877e-08 3.90749e-08 -2.34801e-28)
(-4.87709e-08 2.08129e-08 -3.80436e-27)
(-7.85139e-08 4.40161e-08 -4.24016e-27)
(-5.40962e-08 2.65773e-08 1.47463e-28)
(-8.60932e-08 4.97036e-08 -7.04362e-27)
(-5.98373e-08 3.31886e-08 -5.94104e-27)
(-9.41546e-08 5.62277e-08 -7.83712e-27)
(-6.60154e-08 4.07509e-08 -4.10186e-28)
(-1.02732e-07 6.369e-08 5.53387e-27)
(-7.29016e-08 4.97127e-08 4.51523e-27)
(-1.12211e-07 7.25315e-08 1.74562e-27)
(-8.0254e-08 5.99538e-08 2.60483e-28)
(-1.2229e-07 8.26328e-08 3.95752e-27)
(-8.75588e-08 7.08364e-08 4.17636e-27)
(-1.32324e-07 9.33643e-08 1.12103e-26)
(-9.47869e-08 8.23677e-08 -1.24049e-26)
(-1.42332e-07 1.04733e-07 -5.29851e-27)
(-1.0191e-07 9.45687e-08 -1.13222e-26)
(-1.52336e-07 1.16759e-07 4.84479e-27)
(-1.089e-07 1.07474e-07 8.68776e-27)
(-1.62355e-07 1.29478e-07 -5.26857e-27)
(-1.15733e-07 1.21129e-07 3.70683e-27)
(-1.72407e-07 1.42934e-07 7.75113e-28)
(-1.22385e-07 1.35592e-07 3.62591e-27)
(-1.82504e-07 1.57186e-07 -1.48909e-26)
(-1.28839e-07 1.50928e-07 1.24083e-26)
(-1.92661e-07 1.723e-07 3.66081e-27)
(-1.35075e-07 1.67212e-07 -2.1134e-27)
(-2.02886e-07 1.88348e-07 -1.04846e-26)
(-1.41082e-07 1.84522e-07 -6.62067e-27)
(-2.13185e-07 2.0541e-07 3.03101e-27)
(-1.46849e-07 2.02944e-07 5.79442e-27)
(-2.23561e-07 2.23572e-07 3.20913e-27)
(-1.52368e-07 2.22565e-07 1.17302e-26)
(-2.34014e-07 2.4292e-07 -6.09877e-27)
(-1.57638e-07 2.43471e-07 -1.52681e-27)
(-2.44538e-07 2.63542e-07 5.62933e-27)
(-1.62659e-07 2.6575e-07 -6.51275e-30)
(-2.55128e-07 2.85525e-07 4.8102e-27)
(-1.67435e-07 2.89486e-07 -4.90643e-27)
(-2.6577e-07 3.08952e-07 -9.47708e-28)
(-1.71976e-07 3.14756e-07 -5.7636e-27)
(-2.76449e-07 3.33902e-07 -3.18732e-27)
(-1.76293e-07 3.41631e-07 8.79913e-27)
(-2.87146e-07 3.60446e-07 1.2648e-27)
(-1.80403e-07 3.70172e-07 4.92719e-27)
(-2.97839e-07 3.88645e-07 -6.56915e-27)
(-1.84323e-07 4.0043e-07 -4.04411e-27)
(-3.08501e-07 4.18551e-07 4.89379e-27)
(-1.88076e-07 4.32442e-07 3.80305e-27)
(-3.19106e-07 4.502e-07 -6.03911e-27)
(-1.91683e-07 4.66233e-07 3.36875e-27)
(-3.29623e-07 4.83619e-07 -1.01219e-27)
(-1.9517e-07 5.01812e-07 6.47837e-27)
(-3.4002e-07 5.18815e-07 -2.87601e-27)
(-1.98561e-07 5.39172e-07 -1.9625e-27)
(-3.50266e-07 5.55786e-07 -1.09276e-27)
(-2.01883e-07 5.78294e-07 -4.67256e-27)
(-3.60327e-07 5.94508e-07 9.92619e-28)
(-2.05162e-07 6.1914e-07 5.34857e-27)
(-3.7017e-07 6.34946e-07 4.18077e-27)
(-2.08422e-07 6.61657e-07 -1.45432e-29)
(-3.79764e-07 6.77048e-07 -1.42052e-26)
(-2.11688e-07 7.05778e-07 -6.16203e-28)
(-3.89077e-07 7.20746e-07 5.85051e-27)
(-2.14982e-07 7.51421e-07 -9.87198e-28)
(-3.98079e-07 7.6596e-07 -4.81819e-27)
(-2.18324e-07 7.9849e-07 3.42827e-27)
(-4.06742e-07 8.12593e-07 -4.75268e-27)
(-2.21733e-07 8.46878e-07 -3.29127e-28)
(-4.15043e-07 8.60539e-07 2.73891e-29)
(-2.25222e-07 8.96466e-07 2.55305e-28)
(-4.22958e-07 9.09679e-07 -1.15904e-26)
(-2.28802e-07 9.47127e-07 1.30503e-27)
(-4.3047e-07 9.59887e-07 5.69816e-27)
(-2.32481e-07 9.98726e-07 -6.70408e-27)
(-4.37566e-07 1.01103e-06 -6.5315e-27)
(-2.36262e-07 1.05112e-06 -3.88306e-28)
(-4.44235e-07 1.06296e-06 7.39626e-27)
(-2.40141e-07 1.10418e-06 -1.49411e-27)
(-4.50473e-07 1.11555e-06 -5.39951e-28)
(-2.44115e-07 1.15776e-06 -1.66986e-28)
(-4.5628e-07 1.16866e-06 8.15009e-27)
(-2.48171e-07 1.21171e-06 -7.83199e-27)
(-4.61659e-07 1.22214e-06 -7.8416e-27)
(-2.52294e-07 1.26592e-06 1.48311e-26)
(-4.66622e-07 1.27586e-06 -1.96059e-28)
(-2.56466e-07 1.32025e-06 -8.27023e-27)
(-4.7118e-07 1.32971e-06 1.55111e-28)
(-2.60665e-07 1.37458e-06 1.31084e-27)
(-4.75351e-07 1.38356e-06 9.70073e-27)
(-2.64866e-07 1.42882e-06 -7.96968e-27)
(-4.79155e-07 1.43731e-06 8.87491e-28)
(-2.6904e-07 1.48288e-06 -8.57941e-27)
(-4.82616e-07 1.49088e-06 -5.59335e-29)
(-2.73159e-07 1.53668e-06 2.00784e-26)
(-4.85758e-07 1.54418e-06 -1.802e-27)
(-2.77194e-07 1.59016e-06 -1.15982e-26)
(-4.88607e-07 1.59716e-06 2.13136e-28)
(-2.81114e-07 1.64328e-06 -1.32973e-27)
(-4.91191e-07 1.64978e-06 -2.13472e-26)
(-2.8489e-07 1.696e-06 1.08146e-27)
(-4.93535e-07 1.70199e-06 -7.17974e-28)
(-2.88494e-07 1.74831e-06 2.30154e-26)
(-4.95665e-07 1.7538e-06 -1.11039e-26)
(-2.91899e-07 1.80022e-06 -1.27015e-26)
(-4.97606e-07 1.80519e-06 -1.33081e-26)
(-2.95081e-07 1.85173e-06 2.41716e-26)
(-4.99377e-07 1.85619e-06 1.27459e-26)
(-2.9802e-07 1.90286e-06 -1.14008e-26)
(-5.00999e-07 1.90681e-06 -1.47948e-28)
(-3.00697e-07 1.95366e-06 -1.27545e-26)
(-5.02487e-07 1.95708e-06 -1.34992e-26)
(-3.03101e-07 2.00417e-06 -1.30927e-26)
(-5.03853e-07 2.00707e-06 -1.37647e-26)
(-3.0522e-07 2.05443e-06 1.2777e-26)
(-5.05104e-07 2.0568e-06 1.14547e-29)
(-3.07052e-07 2.10449e-06 1.13679e-30)
(-5.06245e-07 2.10633e-06 2.7107e-26)
(-3.08594e-07 2.15441e-06 -6.37285e-28)
(-5.07273e-07 2.15572e-06 3.23236e-28)
(-3.09854e-07 2.20424e-06 1.42146e-26)
(-5.08187e-07 2.20501e-06 -1.46338e-26)
(-3.10831e-07 2.25402e-06 -3.03455e-28)
(-5.08967e-07 2.25427e-06 -2.99016e-26)
(-3.11554e-07 2.30382e-06 -2.98155e-26)
(-5.09612e-07 2.30351e-06 3.00667e-26)
(-3.11979e-07 2.35364e-06 3.07121e-26)
(-3.37052e-07 2.37849e-06 4.67919e-27)
(-3.86782e-07 2.37819e-06 3.28942e-28)
(-4.36316e-07 2.37786e-06 4.15502e-28)
(-4.85626e-07 2.37751e-06 -3.37217e-29)
(-5.10033e-07 2.35278e-06 3.31246e-28)
)
;
    }
    frontAndBackPlanes
    {
        type            empty;
    }
}


// ************************************************************************* //
