/*--------------------------------*- C++ -*----------------------------------*\
| =========                 |                                                 |
| \\      /  F ield         | OpenFOAM Extend Project: Open source CFD        |
|  \\    /   O peration     | Version:  1.6-ext                               |
|   \\  /    A nd           | Web:      www.extend-project.de                 |
|    \\/     M anipulation  |                                                 |
\*---------------------------------------------------------------------------*/
FoamFile
{
    version     2.0;
    format      ascii;
    class       volVectorField;
    location    "0.85";
    object      DU_0;
}
// * * * * * * * * * * * * * * * * * * * * * * * * * * * * * * * * * * * * * //

dimensions      [0 1 0 0 0 0 0];

internalField   nonuniform List<vector> 
328
(
(-1.87109e-10 -4.7286e-10 0)
(-2.11863e-10 -1.67816e-10 0)
(-2.87795e-10 1.33715e-10 0)
(-5.58913e-10 9.7104e-10 0)
(-5.64596e-10 -1.17604e-09 0)
(-6.92589e-10 -3.82975e-10 0)
(-9.57618e-10 4.97773e-10 0)
(-1.70842e-09 2.52854e-09 0)
(-1.00537e-09 -1.60718e-09 0)
(-1.32517e-09 -4.63857e-10 0)
(-1.86075e-09 9.64701e-10 0)
(-3.03607e-09 3.77928e-09 0)
(-1.49063e-09 -1.77051e-09 0)
(-2.06934e-09 -3.84786e-10 0)
(-2.91396e-09 1.51649e-09 0)
(-4.47893e-09 4.81181e-09 0)
(-2.03128e-09 -1.68455e-09 0)
(-2.93727e-09 -1.32089e-10 0)
(-4.13007e-09 2.15091e-09 0)
(-6.05125e-09 5.72741e-09 0)
(-2.62865e-09 -1.35961e-09 0)
(-3.91577e-09 3.09409e-10 0)
(-5.48248e-09 2.87842e-09 0)
(-7.74305e-09 6.6078e-09 0)
(-3.29022e-09 -8.0041e-10 0)
(-5.00387e-09 9.52444e-10 0)
(-6.96763e-09 3.71998e-09 0)
(-9.55968e-09 7.52382e-09 0)
(-4.02238e-09 -3.75042e-12 0)
(-6.19647e-09 1.81206e-09 0)
(-8.57623e-09 4.70396e-09 0)
(-1.1504e-08 8.53503e-09 0)
(-4.833e-09 1.04015e-09 0)
(-7.49275e-09 2.90571e-09 0)
(-1.03062e-08 5.86438e-09 0)
(-1.35823e-08 9.69496e-09 0)
(-5.72999e-09 2.34805e-09 0)
(-8.89288e-09 4.25519e-09 0)
(-1.21564e-08 7.23925e-09 0)
(-1.58007e-08 1.1053e-08 0)
(-6.72179e-09 3.94338e-09 0)
(-1.03998e-08 5.88716e-09 0)
(-1.41293e-08 8.86975e-09 0)
(-1.81658e-08 1.2657e-08 0)
(-7.81724e-09 5.85627e-09 0)
(-1.20186e-08 7.83388e-09 0)
(-1.62293e-08 1.07998e-08 0)
(-2.06843e-08 1.45544e-08 0)
(-9.02571e-09 8.12337e-09 0)
(-1.37565e-08 1.01333e-08 0)
(-1.8463e-08 1.30758e-08 0)
(-2.33627e-08 1.6794e-08 0)
(-1.03573e-08 1.07877e-08 0)
(-1.56224e-08 1.28293e-08 0)
(-2.08384e-08 1.57472e-08 0)
(-2.62079e-08 1.94262e-08 0)
(-1.18229e-08 1.38982e-08 0)
(-1.7627e-08 1.59713e-08 0)
(-2.33653e-08 1.88665e-08 0)
(-2.92266e-08 2.25042e-08 0)
(-1.34343e-08 1.75098e-08 0)
(-1.97819e-08 1.9614e-08 0)
(-2.6054e-08 2.24897e-08 0)
(-3.24261e-08 2.60846e-08 0)
(-1.52042e-08 2.16825e-08 0)
(-2.20998e-08 2.38172e-08 0)
(-2.89158e-08 2.66766e-08 0)
(-3.58141e-08 3.02275e-08 0)
(-1.71456e-08 2.64816e-08 0)
(-2.45939e-08 2.86458e-08 0)
(-3.19628e-08 3.14912e-08 0)
(-3.93994e-08 3.49976e-08 0)
(-1.92721e-08 3.1978e-08 0)
(-2.72776e-08 3.41694e-08 0)
(-3.52074e-08 3.70023e-08 0)
(-4.31919e-08 4.04643e-08 0)
(-2.15969e-08 3.82479e-08 0)
(-3.01647e-08 4.04634e-08 0)
(-3.8663e-08 4.32843e-08 0)
(-4.72033e-08 4.67025e-08 0)
(-2.41317e-08 4.5375e-08 0)
(-3.32684e-08 4.76098e-08 0)
(-4.23437e-08 5.04182e-08 0)
(-5.1448e-08 5.37947e-08 0)
(-2.68863e-08 5.34521e-08 0)
(-3.66015e-08 5.56995e-08 0)
(-4.6265e-08 5.84944e-08 0)
(-5.59437e-08 6.18321e-08 0)
(-2.9981e-08 6.29329e-08 0)
(-4.03122e-08 6.51843e-08 0)
(-5.06032e-08 6.79633e-08 0)
(-6.08937e-08 7.12656e-08 0)
(-3.33049e-08 7.36558e-08 0)
(-4.42753e-08 7.58993e-08 0)
(-5.52177e-08 7.866e-08 0)
(-6.6143e-08 8.19338e-08 0)
(-3.66161e-08 8.49409e-08 0)
(-4.82202e-08 8.71639e-08 0)
(-5.98082e-08 8.99049e-08 0)
(-7.13628e-08 9.31596e-08 0)
(-3.98916e-08 9.67916e-08 0)
(-5.2138e-08 9.89819e-08 0)
(-6.43798e-08 1.01702e-07 0)
(-7.65724e-08 1.04946e-07 0)
(-4.31088e-08 1.09227e-07 0)
(-5.60199e-08 1.11372e-07 0)
(-6.89372e-08 1.14069e-07 0)
(-8.17901e-08 1.17313e-07 0)
(-4.62465e-08 1.22279e-07 0)
(-5.98575e-08 1.24369e-07 0)
(-7.34847e-08 1.27041e-07 0)
(-8.70334e-08 1.30292e-07 0)
(-4.92846e-08 1.35996e-07 0)
(-6.3643e-08 1.3802e-07 0)
(-7.80266e-08 1.40666e-07 0)
(-9.23184e-08 1.4393e-07 0)
(-5.22049e-08 1.50436e-07 0)
(-6.73692e-08 1.52384e-07 0)
(-8.25662e-08 1.55002e-07 0)
(-9.76598e-08 1.58286e-07 0)
(-5.49909e-08 1.6567e-07 0)
(-7.10293e-08 1.67534e-07 0)
(-8.71066e-08 1.70123e-07 0)
(-1.0307e-07 1.73432e-07 0)
(-5.76287e-08 1.8178e-07 0)
(-7.46176e-08 1.83552e-07 0)
(-9.16501e-08 1.86109e-07 0)
(-1.08561e-07 1.89448e-07 0)
(-6.01065e-08 1.98854e-07 0)
(-7.81293e-08 2.00528e-07 0)
(-9.61983e-08 2.03052e-07 0)
(-1.14139e-07 2.06423e-07 0)
(-6.24159e-08 2.16989e-07 0)
(-8.15605e-08 2.18561e-07 0)
(-1.00752e-07 2.2105e-07 0)
(-1.19811e-07 2.24454e-07 0)
(-6.45513e-08 2.36285e-07 0)
(-8.49084e-08 2.37752e-07 0)
(-1.05311e-07 2.40205e-07 0)
(-1.25579e-07 2.43641e-07 0)
(-6.65106e-08 2.56845e-07 0)
(-8.81713e-08 2.58206e-07 0)
(-1.09874e-07 2.60621e-07 0)
(-1.31442e-07 2.64087e-07 0)
(-6.82949e-08 2.78772e-07 0)
(-9.13487e-08 2.80027e-07 0)
(-1.14439e-07 2.82403e-07 0)
(-1.37397e-07 2.85896e-07 0)
(-6.9909e-08 3.02166e-07 0)
(-9.44414e-08 3.03317e-07 0)
(-1.19002e-07 3.05651e-07 0)
(-1.43435e-07 3.09165e-07 0)
(-7.13608e-08 3.27118e-07 0)
(-9.74509e-08 3.28171e-07 0)
(-1.23559e-07 3.30462e-07 0)
(-1.49547e-07 3.33989e-07 0)
(-7.26615e-08 3.53716e-07 0)
(-1.0038e-07 3.54675e-07 0)
(-1.28105e-07 3.56922e-07 0)
(-1.55718e-07 3.60454e-07 0)
(-7.38249e-08 3.82035e-07 0)
(-1.03232e-07 3.82906e-07 0)
(-1.32633e-07 3.85108e-07 0)
(-1.61932e-07 3.88635e-07 0)
(-7.48675e-08 4.12136e-07 0)
(-1.06013e-07 4.12929e-07 0)
(-1.37136e-07 4.15083e-07 0)
(-1.68169e-07 4.18595e-07 0)
(-7.58078e-08 4.4407e-07 0)
(-1.08726e-07 4.44794e-07 0)
(-1.41605e-07 4.469e-07 0)
(-1.74408e-07 4.50384e-07 0)
(-7.66661e-08 4.77869e-07 0)
(-1.11377e-07 4.78534e-07 0)
(-1.46033e-07 4.8059e-07 0)
(-1.80626e-07 4.84034e-07 0)
(-7.74641e-08 5.13551e-07 0)
(-1.13974e-07 5.14168e-07 0)
(-1.5041e-07 5.16173e-07 0)
(-1.86798e-07 5.19563e-07 0)
(-7.82242e-08 5.51114e-07 0)
(-1.16521e-07 5.51695e-07 0)
(-1.54725e-07 5.53649e-07 0)
(-1.92898e-07 5.56971e-07 0)
(-7.89694e-08 5.90541e-07 0)
(-1.19025e-07 5.91098e-07 0)
(-1.58971e-07 5.92998e-07 0)
(-1.98899e-07 5.96239e-07 0)
(-7.97228e-08 6.31795e-07 0)
(-1.21493e-07 6.32338e-07 0)
(-1.63135e-07 6.34185e-07 0)
(-2.04775e-07 6.37331e-07 0)
(-8.05069e-08 6.74819e-07 0)
(-1.2393e-07 6.75361e-07 0)
(-1.67208e-07 6.77153e-07 0)
(-2.10498e-07 6.80192e-07 0)
(-8.13432e-08 7.19542e-07 0)
(-1.26343e-07 7.20093e-07 0)
(-1.71181e-07 7.2183e-07 0)
(-2.16044e-07 7.24748e-07 0)
(-8.2252e-08 7.65872e-07 0)
(-1.28736e-07 7.66443e-07 0)
(-1.75043e-07 7.68123e-07 0)
(-2.21387e-07 7.70909e-07 0)
(-8.32513e-08 8.13704e-07 0)
(-1.31114e-07 8.14303e-07 0)
(-1.78786e-07 8.15927e-07 0)
(-2.26506e-07 8.1857e-07 0)
(-8.43569e-08 8.62915e-07 0)
(-1.33481e-07 8.63551e-07 0)
(-1.82402e-07 8.65117e-07 0)
(-2.31379e-07 8.67609e-07 0)
(-8.55815e-08 9.13372e-07 0)
(-1.35838e-07 9.14051e-07 0)
(-1.85883e-07 9.15559e-07 0)
(-2.3599e-07 9.17892e-07 0)
(-8.69348e-08 9.64931e-07 0)
(-1.38188e-07 9.65657e-07 0)
(-1.89223e-07 9.67106e-07 0)
(-2.40323e-07 9.69275e-07 0)
(-8.84228e-08 1.01744e-06 0)
(-1.40531e-07 1.01822e-06 0)
(-1.92416e-07 1.01961e-06 0)
(-2.44369e-07 1.02161e-06 0)
(-9.00476e-08 1.07074e-06 0)
(-1.42866e-07 1.07157e-06 0)
(-1.95459e-07 1.0729e-06 0)
(-2.48119e-07 1.07473e-06 0)
(-9.18077e-08 1.12468e-06 0)
(-1.45191e-07 1.12555e-06 0)
(-1.9835e-07 1.12682e-06 0)
(-2.51571e-07 1.12848e-06 0)
(-9.36977e-08 1.17909e-06 0)
(-1.47503e-07 1.18001e-06 0)
(-2.01086e-07 1.18122e-06 0)
(-2.54726e-07 1.18271e-06 0)
(-9.57085e-08 1.23382e-06 0)
(-1.49796e-07 1.23479e-06 0)
(-2.03668e-07 1.23594e-06 0)
(-2.57588e-07 1.23727e-06 0)
(-9.78274e-08 1.28873e-06 0)
(-1.52067e-07 1.28973e-06 0)
(-2.06098e-07 1.29082e-06 0)
(-2.60167e-07 1.29199e-06 0)
(-1.00039e-07 1.34367e-06 0)
(-1.54308e-07 1.3447e-06 0)
(-2.08378e-07 1.34573e-06 0)
(-2.62473e-07 1.34675e-06 0)
(-1.02324e-07 1.39852e-06 0)
(-1.56511e-07 1.39957e-06 0)
(-2.10511e-07 1.40054e-06 0)
(-2.64523e-07 1.40142e-06 0)
(-1.04662e-07 1.45317e-06 0)
(-1.5867e-07 1.45423e-06 0)
(-2.12504e-07 1.45514e-06 0)
(-2.66333e-07 1.45588e-06 0)
(-1.07032e-07 1.50752e-06 0)
(-1.60776e-07 1.50858e-06 0)
(-2.1436e-07 1.50942e-06 0)
(-2.67924e-07 1.51005e-06 0)
(-1.09408e-07 1.5615e-06 0)
(-1.6282e-07 1.56254e-06 0)
(-2.16087e-07 1.56332e-06 0)
(-2.69318e-07 1.56384e-06 0)
(-1.11767e-07 1.61503e-06 0)
(-1.64795e-07 1.61604e-06 0)
(-2.17692e-07 1.61676e-06 0)
(-2.70535e-07 1.61718e-06 0)
(-1.14085e-07 1.66808e-06 0)
(-1.66691e-07 1.66905e-06 0)
(-2.1918e-07 1.66971e-06 0)
(-2.716e-07 1.67004e-06 0)
(-1.16339e-07 1.72061e-06 0)
(-1.685e-07 1.72154e-06 0)
(-2.2056e-07 1.72213e-06 0)
(-2.72535e-07 1.72239e-06 0)
(-1.18505e-07 1.77262e-06 0)
(-1.70216e-07 1.77348e-06 0)
(-2.21838e-07 1.77402e-06 0)
(-2.73361e-07 1.77421e-06 0)
(-1.20563e-07 1.82411e-06 0)
(-1.71831e-07 1.82491e-06 0)
(-2.23022e-07 1.82538e-06 0)
(-2.741e-07 1.82552e-06 0)
(-1.22495e-07 1.87511e-06 0)
(-1.73339e-07 1.87583e-06 0)
(-2.24116e-07 1.87623e-06 0)
(-2.74769e-07 1.87633e-06 0)
(-1.24284e-07 1.92565e-06 0)
(-1.74735e-07 1.92628e-06 0)
(-2.25126e-07 1.92662e-06 0)
(-2.75385e-07 1.92668e-06 0)
(-1.25918e-07 1.97577e-06 0)
(-1.76014e-07 1.97631e-06 0)
(-2.26057e-07 1.97659e-06 0)
(-2.75961e-07 1.97662e-06 0)
(-1.27386e-07 2.02554e-06 0)
(-1.77174e-07 2.02597e-06 0)
(-2.26913e-07 2.02619e-06 0)
(-2.76507e-07 2.0262e-06 0)
(-1.28683e-07 2.075e-06 0)
(-1.78213e-07 2.07534e-06 0)
(-2.27695e-07 2.0755e-06 0)
(-2.7703e-07 2.07547e-06 0)
(-1.29805e-07 2.12423e-06 0)
(-1.7913e-07 2.12447e-06 0)
(-2.28404e-07 2.12456e-06 0)
(-2.77531e-07 2.12451e-06 0)
(-1.30754e-07 2.1733e-06 0)
(-1.79926e-07 2.17343e-06 0)
(-2.29041e-07 2.17346e-06 0)
(-2.7801e-07 2.17339e-06 0)
(-1.31535e-07 2.22225e-06 0)
(-1.80604e-07 2.22229e-06 0)
(-2.29606e-07 2.22226e-06 0)
(-2.78463e-07 2.22215e-06 0)
(-1.32152e-07 2.27116e-06 0)
(-1.81165e-07 2.27111e-06 0)
(-2.30094e-07 2.27102e-06 0)
(-2.78875e-07 2.27087e-06 0)
(-1.32628e-07 2.32008e-06 0)
(-1.81624e-07 2.31994e-06 0)
(-2.30514e-07 2.31978e-06 0)
(-2.79245e-07 2.31959e-06 0)
(-1.32943e-07 2.36907e-06 0)
(-1.81951e-07 2.36883e-06 0)
(-2.30825e-07 2.36858e-06 0)
(-2.79526e-07 2.36831e-06 0)
)
;

boundaryField
{
    plateFix
    {
        type            fixedDisplacement;
        value           uniform (0 0 0);
    }
    plate
    {
        type            solidTraction;
        nonLinear       updatedLagrangian;
        traction        uniform (0 0 0);
        pressure        uniform 0;
        value           nonuniform List<vector> 
168
(
(-2.21396e-09 -1.0611e-09 3.80775e-28)
(-4.86856e-09 2.80293e-09 1.48146e-29)
(-1.89497e-09 -1.78292e-09 4.28278e-26)
(-4.99665e-09 4.42529e-09 2.76985e-28)
(-1.6596e-09 -2.24961e-09 -2.03701e-26)
(-5.5279e-09 5.76102e-09 -2.10326e-26)
(-1.57643e-09 -2.43471e-09 -1.98344e-26)
(-6.45897e-09 6.82335e-09 3.88108e-26)
(-1.64981e-09 -2.37237e-09 -3.39824e-28)
(-7.75106e-09 7.75862e-09 -1.8111e-26)
(-1.85592e-09 -2.06967e-09 1.74462e-26)
(-9.32631e-09 8.64358e-09 -1.69303e-28)
(-2.18219e-09 -1.53396e-09 -1.7048e-26)
(-1.11419e-08 9.55862e-09 -3.25907e-26)
(-2.61803e-09 -7.61395e-10 1.47753e-26)
(-1.31649e-08 1.05641e-08 3.0568e-26)
(-3.15856e-09 2.5775e-10 1.12495e-27)
(-1.53777e-08 1.17153e-08 1.28454e-26)
(-3.80167e-09 1.54071e-09 1.2244e-26)
(-1.77695e-08 1.30621e-08 -1.18607e-26)
(-4.54837e-09 3.11119e-09 -1.23907e-26)
(-2.03356e-08 1.46523e-08 2.9941e-28)
(-5.40201e-09 4.99955e-09 1.0947e-26)
(-2.30746e-08 1.65335e-08 2.22184e-28)
(-6.36831e-09 7.24257e-09 -7.43491e-27)
(-2.59873e-08 1.87544e-08 -1.13583e-26)
(-7.45516e-09 9.88329e-09 1.43619e-28)
(-2.90763e-08 2.13657e-08 8.35015e-27)
(-8.67252e-09 1.29708e-08 1.27289e-26)
(-3.23454e-08 2.44207e-08 -1.1173e-26)
(-1.00322e-08 1.65598e-08 -1.61366e-26)
(-3.57992e-08 2.79763e-08 1.9062e-26)
(-1.15474e-08 2.07106e-08 5.61961e-27)
(-3.94438e-08 3.20932e-08 -2.61837e-27)
(-1.32323e-08 2.5489e-08 -3.73537e-27)
(-4.32865e-08 3.68364e-08 -9.99846e-27)
(-1.51014e-08 3.09659e-08 3.65652e-27)
(-4.73361e-08 4.22759e-08 8.5692e-27)
(-1.71684e-08 3.72186e-08 3.66734e-27)
(-5.16041e-08 4.84876e-08 -1.157e-26)
(-1.9445e-08 4.43315e-08 -6.59049e-27)
(-5.61051e-08 5.55545e-08 6.13042e-27)
(-2.19394e-08 5.23984e-08 1.15639e-26)
(-6.08586e-08 6.35688e-08 1.2159e-28)
(-2.47592e-08 6.18745e-08 -4.42916e-27)
(-6.60804e-08 7.29819e-08 -5.69316e-27)
(-2.77982e-08 7.25999e-08 4.81027e-27)
(-7.16109e-08 8.36345e-08 9.80951e-28)
(-3.08267e-08 8.38954e-08 -9.58644e-27)
(-7.71097e-08 9.48511e-08 -1.60214e-26)
(-3.3814e-08 9.5764e-08 -9.14665e-28)
(-8.26037e-08 1.06635e-07 4.3668e-28)
(-3.67303e-08 1.08224e-07 3.86437e-27)
(-8.81187e-08 1.19004e-07 4.67216e-27)
(-3.9547e-08 1.21309e-07 -4.00872e-27)
(-9.36792e-08 1.31991e-07 5.3639e-27)
(-4.22379e-08 1.35065e-07 3.09637e-27)
(-9.9308e-08 1.45642e-07 1.17042e-26)
(-4.47785e-08 1.4955e-07 -1.10334e-26)
(-1.05025e-07 1.60016e-07 -1.21935e-26)
(-4.71472e-08 1.64834e-07 4.29944e-27)
(-1.1085e-07 1.75182e-07 1.91685e-27)
(-4.93251e-08 1.80999e-07 -6.69339e-27)
(-1.16797e-07 1.91222e-07 -4.88022e-27)
(-5.12969e-08 1.98131e-07 3.2801e-27)
(-1.22878e-07 2.08222e-07 2.01553e-27)
(-5.30511e-08 2.16327e-07 2.95627e-27)
(-1.29101e-07 2.2628e-07 -1.12372e-26)
(-5.45807e-08 2.35686e-07 -6.66626e-27)
(-1.35472e-07 2.45493e-07 1.66392e-27)
(-5.58829e-08 2.5631e-07 -1.06177e-26)
(-1.41989e-07 2.65965e-07 -3.02694e-29)
(-5.69599e-08 2.78299e-07 6.78528e-27)
(-1.48648e-07 2.87796e-07 -7.15983e-27)
(-5.78185e-08 3.01753e-07 2.89386e-27)
(-1.55439e-07 3.11085e-07 6.46312e-27)
(-5.84701e-08 3.26764e-07 -2.15905e-29)
(-1.62348e-07 3.35925e-07 3.09474e-27)
(-5.89305e-08 3.53417e-07 -4.98996e-27)
(-1.69357e-07 3.624e-07 -6.21741e-27)
(-5.92192e-08 3.81785e-07 -9.67799e-27)
(-1.76443e-07 3.90584e-07 -1.34589e-27)
(-5.93592e-08 4.1193e-07 -1.30004e-27)
(-1.8358e-07 4.20541e-07 -3.43195e-27)
(-5.93764e-08 4.43902e-07 -2.50925e-27)
(-1.9074e-07 4.52319e-07 -2.50478e-27)
(-5.9299e-08 4.77732e-07 2.72177e-27)
(-1.97891e-07 4.8595e-07 2.85171e-27)
(-5.91571e-08 5.13438e-07 -6.67515e-27)
(-2.05e-07 5.21452e-07 -8.00501e-29)
(-5.89821e-08 5.51018e-07 4.49335e-27)
(-2.12033e-07 5.58824e-07 -2.71066e-27)
(-5.8806e-08 5.90453e-07 7.50676e-27)
(-2.18953e-07 5.98048e-07 1.67651e-27)
(-5.86611e-08 6.31708e-07 -5.16991e-27)
(-2.25724e-07 6.39086e-07 -1.75715e-27)
(-5.85789e-08 6.74726e-07 5.91796e-27)
(-2.32312e-07 6.81885e-07 5.22091e-27)
(-5.85898e-08 7.19435e-07 -2.84662e-27)
(-2.3868e-07 7.26372e-07 5.61529e-27)
(-5.87223e-08 7.65745e-07 8.98813e-27)
(-2.44798e-07 7.72457e-07 -1.62771e-27)
(-5.90021e-08 8.1355e-07 -6.76389e-27)
(-2.50634e-07 8.20034e-07 5.57003e-27)
(-5.94518e-08 8.62729e-07 9.13535e-28)
(-2.56161e-07 8.68983e-07 -3.78996e-29)
(-6.009e-08 9.1315e-07 4.71001e-27)
(-2.61355e-07 9.19172e-07 -6.82431e-27)
(-6.09307e-08 9.6467e-07 -8.33898e-27)
(-2.66199e-07 9.70457e-07 6.74535e-27)
(-6.19832e-08 1.01714e-06 6.86991e-29)
(-2.70678e-07 1.02269e-06 6.49809e-27)
(-6.32515e-08 1.0704e-06 -7.81661e-28)
(-2.74782e-07 1.07571e-06 -2.60391e-28)
(-6.47342e-08 1.12429e-06 1.68501e-27)
(-2.7851e-07 1.12936e-06 7.46707e-27)
(-6.64247e-08 1.17866e-06 -7.35368e-27)
(-2.81862e-07 1.1835e-06 3.06495e-28)
(-6.83112e-08 1.23336e-06 7.8063e-27)
(-2.84846e-07 1.23795e-06 -1.51564e-28)
(-7.0377e-08 1.28823e-06 3.17987e-27)
(-2.87476e-07 1.29258e-06 1.42223e-27)
(-7.26011e-08 1.34315e-06 7.46047e-27)
(-2.89768e-07 1.34725e-06 9.10405e-27)
(-7.49587e-08 1.39798e-06 -8.94175e-27)
(-2.91743e-07 1.40184e-06 -8.88276e-27)
(-7.74216e-08 1.45262e-06 -5.89501e-29)
(-2.93428e-07 1.45623e-06 -1.04917e-26)
(-7.99595e-08 1.50696e-06 7.27548e-27)
(-2.94848e-07 1.51033e-06 9.34717e-28)
(-8.25401e-08 1.56094e-06 1.01624e-26)
(-2.96036e-07 1.56406e-06 1.20342e-26)
(-8.51305e-08 1.61448e-06 -1.88153e-26)
(-2.97021e-07 1.61735e-06 -9.49347e-28)
(-8.76975e-08 1.66754e-06 -1.8692e-28)
(-2.97836e-07 1.67016e-06 -1.26953e-26)
(-9.0209e-08 1.72009e-06 -1.35813e-26)
(-2.98511e-07 1.72247e-06 1.21167e-26)
(-9.26342e-08 1.77214e-06 3.34833e-26)
(-2.99077e-07 1.77426e-06 1.15813e-26)
(-9.49445e-08 1.82367e-06 -9.90358e-28)
(-2.99563e-07 1.82555e-06 8.51725e-28)
(-9.71144e-08 1.87471e-06 9.27869e-28)
(-2.99993e-07 1.87634e-06 1.22391e-26)
(-9.91217e-08 1.92529e-06 2.44307e-26)
(-3.00389e-07 1.92667e-06 -7.78075e-28)
(-1.00948e-07 1.97547e-06 -1.35239e-26)
(-3.00771e-07 1.9766e-06 8.17366e-30)
(-1.02581e-07 2.02529e-06 -1.24934e-26)
(-3.01152e-07 2.02617e-06 -6.71444e-28)
(-1.0401e-07 2.07481e-06 1.43414e-26)
(-3.0154e-07 2.07544e-06 1.41414e-26)
(-1.05234e-07 2.1241e-06 -1.42626e-26)
(-3.0194e-07 2.12447e-06 9.33546e-28)
(-1.06251e-07 2.17322e-06 -1.41699e-26)
(-3.02349e-07 2.17333e-06 1.40125e-26)
(-1.07071e-07 2.22222e-06 -4.28825e-30)
(-3.02762e-07 2.22209e-06 2.99593e-26)
(-1.07697e-07 2.27118e-06 -4.2251e-30)
(-3.0316e-07 2.27079e-06 -1.46517e-26)
(-1.08151e-07 2.32015e-06 1.55401e-26)
(-3.03529e-07 2.31949e-06 -1.55356e-26)
(-1.084e-07 2.36919e-06 -3.05868e-26)
(-1.33067e-07 2.39366e-06 -1.43159e-27)
(-1.82075e-07 2.39335e-06 -2.76378e-28)
(-2.30943e-07 2.39301e-06 -1.36375e-28)
(-2.79639e-07 2.39263e-06 -5.05027e-27)
(-3.03783e-07 2.36819e-06 4.61795e-26)
)
;
    }
    frontAndBackPlanes
    {
        type            empty;
    }
}


// ************************************************************************* //
