/*--------------------------------*- C++ -*----------------------------------*\
| =========                 |                                                 |
| \\      /  F ield         | OpenFOAM Extend Project: Open source CFD        |
|  \\    /   O peration     | Version:  1.6-ext                               |
|   \\  /    A nd           | Web:      www.extend-project.de                 |
|    \\/     M anipulation  |                                                 |
\*---------------------------------------------------------------------------*/
FoamFile
{
    version     2.0;
    format      ascii;
    class       volVectorField;
    location    "0.85";
    object      DV;
}
// * * * * * * * * * * * * * * * * * * * * * * * * * * * * * * * * * * * * * //

dimensions      [0 1 -1 0 0 0 0];

internalField   nonuniform List<vector> 
328
(
(-4.05566e-07 -7.87601e-07 0)
(-2.57859e-07 -1.6455e-07 0)
(-2.48319e-07 1.47128e-07 0)
(-3.5509e-07 7.04554e-07 0)
(-1.23538e-06 -2.03155e-06 0)
(-8.53635e-07 -4.96893e-07 0)
(-8.20465e-07 4.13605e-07 0)
(-1.08185e-06 1.79746e-06 0)
(-2.19536e-06 -2.97684e-06 0)
(-1.65259e-06 -8.30688e-07 0)
(-1.58604e-06 6.45963e-07 0)
(-1.92628e-06 2.59025e-06 0)
(-3.24022e-06 -3.67615e-06 0)
(-2.58803e-06 -1.14367e-06 0)
(-2.48373e-06 8.21083e-07 0)
(-2.84901e-06 3.12529e-06 0)
(-4.38265e-06 -4.19608e-06 0)
(-3.67258e-06 -1.4281e-06 0)
(-3.52633e-06 9.30233e-07 0)
(-3.8631e-06 3.45991e-06 0)
(-5.61695e-06 -4.58841e-06 0)
(-4.8845e-06 -1.68282e-06 0)
(-4.69402e-06 9.69816e-07 0)
(-4.96506e-06 3.63806e-06 0)
(-6.94899e-06 -4.89611e-06 0)
(-6.22091e-06 -1.91377e-06 0)
(-5.98462e-06 9.42672e-07 0)
(-6.16201e-06 3.69563e-06 0)
(-8.38272e-06 -5.15192e-06 0)
(-7.67379e-06 -2.12996e-06 0)
(-7.39105e-06 8.53829e-07 0)
(-7.45941e-06 3.65887e-06 0)
(-9.92463e-06 -5.38183e-06 0)
(-9.24125e-06 -2.34239e-06 0)
(-8.91202e-06 7.09679e-07 0)
(-8.86514e-06 3.54754e-06 0)
(-1.15811e-05 -5.60589e-06 0)
(-1.09225e-05 -2.56211e-06 0)
(-1.05474e-05 5.16077e-07 0)
(-1.03872e-05 3.37555e-06 0)
(-1.3359e-05 -5.83978e-06 0)
(-1.27199e-05 -2.79945e-06 0)
(-1.23003e-05 2.77748e-07 0)
(-1.20341e-05 3.15243e-06 0)
(-1.52652e-05 -6.09546e-06 0)
(-1.46381e-05 -3.06329e-06 0)
(-1.41759e-05 -2.22296e-09 0)
(-1.38149e-05 2.88407e-06 0)
(-1.73067e-05 -6.3818e-06 0)
(-1.66839e-05 -3.36076e-06 0)
(-1.61817e-05 -3.22295e-07 0)
(-1.5739e-05 2.57365e-06 0)
(-1.94906e-05 -6.70501e-06 0)
(-1.88654e-05 -3.69709e-06 0)
(-1.83271e-05 -6.82115e-07 0)
(-1.78163e-05 2.22241e-06 0)
(-2.18243e-05 -7.0688e-06 0)
(-2.11926e-05 -4.07549e-06 0)
(-2.06227e-05 -1.08189e-06 0)
(-2.00576e-05 1.83062e-06 0)
(-2.43153e-05 -7.47452e-06 0)
(-2.36759e-05 -4.49708e-06 0)
(-2.30805e-05 -1.52161e-06 0)
(-2.24743e-05 1.39843e-06 0)
(-2.6972e-05 -7.92112e-06 0)
(-2.63268e-05 -4.9607e-06 0)
(-2.5713e-05 -2.00021e-06 0)
(-2.50787e-05 9.26795e-07 0)
(-2.98029e-05 -8.40504e-06 0)
(-2.91571e-05 -5.46276e-06 0)
(-2.85335e-05 -2.51488e-06 0)
(-2.7884e-05 4.18269e-07 0)
(-3.28175e-05 -8.92016e-06 0)
(-3.21789e-05 -5.99705e-06 0)
(-3.15555e-05 -3.06044e-06 0)
(-3.09038e-05 -1.22409e-07 0)
(-3.60263e-05 -9.45778e-06 0)
(-3.54048e-05 -6.55476e-06 0)
(-3.47928e-05 -3.62908e-06 0)
(-3.41521e-05 -6.87969e-07 0)
(-3.94407e-05 -1.00068e-05 0)
(-3.88478e-05 -7.1246e-06 0)
(-3.82592e-05 -4.21038e-06 0)
(-3.76428e-05 -1.26861e-06 0)
(-4.30732e-05 -1.05539e-05 0)
(-4.25212e-05 -7.6932e-06 0)
(-4.19687e-05 -4.79163e-06 0)
(-4.13898e-05 -1.85221e-06 0)
(-4.70847e-05 -1.11043e-05 0)
(-4.65882e-05 -8.26645e-06 0)
(-4.60863e-05 -5.37979e-06 0)
(-4.55599e-05 -2.4466e-06 0)
(-5.13415e-05 -1.16134e-05 0)
(-5.0913e-05 -8.7989e-06 0)
(-5.04749e-05 -5.92942e-06 0)
(-5.00139e-05 -3.00683e-06 0)
(-5.55632e-05 -1.20378e-05 0)
(-5.52086e-05 -9.24581e-06 0)
(-5.48408e-05 -6.39479e-06 0)
(-5.44513e-05 -3.4864e-06 0)
(-5.97515e-05 -1.2375e-05 0)
(-5.94744e-05 -9.60508e-06 0)
(-5.91808e-05 -6.77381e-06 0)
(-5.88665e-05 -3.88278e-06 0)
(-6.39075e-05 -1.2624e-05 0)
(-6.37095e-05 -9.87578e-06 0)
(-6.34918e-05 -7.06552e-06 0)
(-6.32543e-05 -4.19479e-06 0)
(-6.8032e-05 -1.27845e-05 0)
(-6.79129e-05 -1.00578e-05 0)
(-6.77711e-05 -7.26979e-06 0)
(-6.76103e-05 -4.42213e-06 0)
(-7.21257e-05 -1.28574e-05 0)
(-7.20836e-05 -1.01519e-05 0)
(-7.20158e-05 -7.38746e-06 0)
(-7.19298e-05 -4.56561e-06 0)
(-7.61896e-05 -1.28449e-05 0)
(-7.62208e-05 -1.01605e-05 0)
(-7.62231e-05 -7.42081e-06 0)
(-7.6208e-05 -4.62754e-06 0)
(-8.02247e-05 -1.27513e-05 0)
(-8.03234e-05 -1.00878e-05 0)
(-8.03901e-05 -7.37418e-06 0)
(-8.04402e-05 -4.61227e-06 0)
(-8.42319e-05 -1.25836e-05 0)
(-8.43905e-05 -9.94069e-06 0)
(-8.45139e-05 -7.25441e-06 0)
(-8.46213e-05 -4.52661e-06 0)
(-8.82124e-05 -1.2351e-05 0)
(-8.8421e-05 -9.72872e-06 0)
(-8.85916e-05 -7.07109e-06 0)
(-8.87464e-05 -4.38006e-06 0)
(-9.21667e-05 -1.20657e-05 0)
(-9.24137e-05 -9.46413e-06 0)
(-9.26202e-05 -6.83645e-06 0)
(-9.2811e-05 -4.18465e-06 0)
(-9.60947e-05 -1.17418e-05 0)
(-9.63673e-05 -9.16139e-06 0)
(-9.65971e-05 -6.56496e-06 0)
(-9.68108e-05 -3.95458e-06 0)
(-9.99961e-05 -1.13951e-05 0)
(-0.00010028 -8.83659e-06 0)
(-0.00010052 -6.27273e-06 0)
(-0.000100742 -3.70565e-06 0)
(-0.000103869 -1.10424e-05 0)
(-0.00010415 -8.50676e-06 0)
(-0.000104386 -5.97677e-06 0)
(-0.000104603 -3.45451e-06 0)
(-0.000107713 -1.07004e-05 0)
(-0.000107976 -8.1891e-06 0)
(-0.000108193 -5.69427e-06 0)
(-0.00010839 -3.21804e-06 0)
(-0.000111523 -1.03856e-05 0)
(-0.000111755 -7.90038e-06 0)
(-0.000111939 -5.44201e-06 0)
(-0.000112102 -3.01267e-06 0)
(-0.000115298 -1.01138e-05 0)
(-0.000115484 -7.65645e-06 0)
(-0.000115623 -5.23582e-06 0)
(-0.000115738 -2.85395e-06 0)
(-0.000119033 -9.89908e-06 0)
(-0.000119162 -7.47191e-06 0)
(-0.000119244 -5.09026e-06 0)
(-0.000119298 -2.7562e-06 0)
(-0.000122725 -9.75455e-06 0)
(-0.000122785 -7.35983e-06 0)
(-0.000122799 -5.0184e-06 0)
(-0.000122782 -2.73227e-06 0)
(-0.000126368 -9.69146e-06 0)
(-0.000126351 -7.33169e-06 0)
(-0.000126287 -5.03169e-06 0)
(-0.000126191 -2.7934e-06 0)
(-0.00012996 -9.71934e-06 0)
(-0.000129857 -7.39714e-06 0)
(-0.000129708 -5.13975e-06 0)
(-0.000129524 -2.94905e-06 0)
(-0.000133494 -9.84582e-06 0)
(-0.0001333 -7.56393e-06 0)
(-0.000133061 -5.3503e-06 0)
(-0.000132783 -3.20674e-06 0)
(-0.000136966 -1.00764e-05 0)
(-0.000136677 -7.83761e-06 0)
(-0.000136345 -5.66887e-06 0)
(-0.00013597 -3.57185e-06 0)
(-0.000140371 -1.04141e-05 0)
(-0.000139986 -8.22136e-06 0)
(-0.00013956 -6.09859e-06 0)
(-0.000139087 -4.04739e-06 0)
(-0.000143704 -1.08594e-05 0)
(-0.000143224 -8.71569e-06 0)
(-0.000142704 -6.63995e-06 0)
(-0.000142135 -4.63372e-06 0)
(-0.000146958 -1.14101e-05 0)
(-0.000146388 -9.31822e-06 0)
(-0.000145778 -7.29052e-06 0)
(-0.000145116 -5.32839e-06 0)
(-0.000150129 -1.20607e-05 0)
(-0.000149474 -1.00236e-05 0)
(-0.000148782 -8.04489e-06 0)
(-0.000148034 -6.12596e-06 0)
(-0.000153213 -1.28029e-05 0)
(-0.000152482 -1.08233e-05 0)
(-0.000151715 -8.89455e-06 0)
(-0.000150889 -7.01802e-06 0)
(-0.000156203 -1.36257e-05 0)
(-0.000155408 -1.17059e-05 0)
(-0.000154578 -9.8281e-06 0)
(-0.000153685 -7.99327e-06 0)
(-0.000159097 -1.45151e-05 0)
(-0.00015825 -1.26575e-05 0)
(-0.000157369 -1.08314e-05 0)
(-0.000156424 -9.03782e-06 0)
(-0.00016189 -1.54553e-05 0)
(-0.000161006 -1.36617e-05 0)
(-0.000160089 -1.18882e-05 0)
(-0.000159105 -1.01356e-05 0)
(-0.00016458 -1.64285e-05 0)
(-0.000163675 -1.47005e-05 0)
(-0.000162737 -1.29803e-05 0)
(-0.000161731 -1.12687e-05 0)
(-0.000167164 -1.74159e-05 0)
(-0.000166255 -1.57546e-05 0)
(-0.000165313 -1.40885e-05 0)
(-0.000164302 -1.24183e-05 0)
(-0.000169642 -1.83981e-05 0)
(-0.000168745 -1.68043e-05 0)
(-0.000167815 -1.5193e-05 0)
(-0.000166816 -1.3565e-05 0)
(-0.000172012 -1.93558e-05 0)
(-0.000171145 -1.78299e-05 0)
(-0.000170244 -1.62741e-05 0)
(-0.000169273 -1.46892e-05 0)
(-0.000174275 -2.02703e-05 0)
(-0.000173454 -1.88124e-05 0)
(-0.000172597 -1.73127e-05 0)
(-0.000171671 -1.57723e-05 0)
(-0.000176432 -2.1124e-05 0)
(-0.000175672 -1.97337e-05 0)
(-0.000174873 -1.82909e-05 0)
(-0.000174008 -1.67965e-05 0)
(-0.000178483 -2.19006e-05 0)
(-0.000177798 -2.05775e-05 0)
(-0.000177072 -1.91922e-05 0)
(-0.00017628 -1.77456e-05 0)
(-0.000180431 -2.25858e-05 0)
(-0.000179832 -2.13292e-05 0)
(-0.00017919 -2.00021e-05 0)
(-0.000178484 -1.86053e-05 0)
(-0.000182277 -2.31674e-05 0)
(-0.000181775 -2.19765e-05 0)
(-0.000181227 -2.07082e-05 0)
(-0.000180617 -1.93635e-05 0)
(-0.000184023 -2.36355e-05 0)
(-0.000183626 -2.25092e-05 0)
(-0.000183181 -2.13004e-05 0)
(-0.000182674 -2.00102e-05 0)
(-0.000185673 -2.39826e-05 0)
(-0.000185386 -2.292e-05 0)
(-0.000185049 -2.17715e-05 0)
(-0.000184651 -2.05382e-05 0)
(-0.000187227 -2.42038e-05 0)
(-0.000187055 -2.32041e-05 0)
(-0.000186829 -2.21165e-05 0)
(-0.000186544 -2.09426e-05 0)
(-0.00018869 -2.42969e-05 0)
(-0.000188633 -2.33591e-05 0)
(-0.000188519 -2.23333e-05 0)
(-0.000188348 -2.12213e-05 0)
(-0.000190062 -2.42622e-05 0)
(-0.000190119 -2.33855e-05 0)
(-0.000190116 -2.24224e-05 0)
(-0.000190058 -2.13747e-05 0)
(-0.000191345 -2.41024e-05 0)
(-0.000191514 -2.32861e-05 0)
(-0.000191619 -2.23866e-05 0)
(-0.000191671 -2.14056e-05 0)
(-0.000192542 -2.38224e-05 0)
(-0.000192817 -2.30661e-05 0)
(-0.000193026 -2.22311e-05 0)
(-0.000193181 -2.13191e-05 0)
(-0.000193653 -2.34294e-05 0)
(-0.000194027 -2.27327e-05 0)
(-0.000194333 -2.1963e-05 0)
(-0.000194586 -2.11221e-05 0)
(-0.00019468 -2.29323e-05 0)
(-0.000195144 -2.2295e-05 0)
(-0.000195538 -2.15916e-05 0)
(-0.00019588 -2.08234e-05 0)
(-0.000195622 -2.23416e-05 0)
(-0.000196168 -2.17638e-05 0)
(-0.000196641 -2.11274e-05 0)
(-0.000197063 -2.04335e-05 0)
(-0.000196482 -2.16694e-05 0)
(-0.000197098 -2.11514e-05 0)
(-0.00019764 -2.05826e-05 0)
(-0.000198131 -1.9964e-05 0)
(-0.000197257 -2.09289e-05 0)
(-0.000197932 -2.04709e-05 0)
(-0.000198533 -1.99703e-05 0)
(-0.000199082 -1.94275e-05 0)
(-0.000197949 -2.01337e-05 0)
(-0.000198671 -1.97362e-05 0)
(-0.00019932 -1.93041e-05 0)
(-0.000199916 -1.88373e-05 0)
(-0.000198555 -1.92973e-05 0)
(-0.000199314 -1.89607e-05 0)
(-0.0002 -1.85974e-05 0)
(-0.000200634 -1.82062e-05 0)
(-0.000199075 -1.84323e-05 0)
(-0.000199861 -1.81573e-05 0)
(-0.000200574 -1.78628e-05 0)
(-0.000201236 -1.75463e-05 0)
(-0.000199508 -1.75499e-05 0)
(-0.00020031 -1.73373e-05 0)
(-0.000201043 -1.71116e-05 0)
(-0.000201724 -1.68691e-05 0)
(-0.000199851 -1.6661e-05 0)
(-0.000200661 -1.65115e-05 0)
(-0.000201405 -1.63542e-05 0)
(-0.000202099 -1.6184e-05 0)
(-0.000200105 -1.57766e-05 0)
(-0.000200915 -1.56912e-05 0)
(-0.000201666 -1.56008e-05 0)
(-0.000202368 -1.55014e-05 0)
(-0.000200257 -1.49258e-05 0)
(-0.000201064 -1.48923e-05 0)
(-0.000201816 -1.48569e-05 0)
(-0.000202523 -1.48132e-05 0)
)
;

boundaryField
{
    plateFix
    {
        type            calculated;
        value           uniform (0 0 0);
    }
    plate
    {
        type            calculated;
        value           nonuniform List<vector> 
168
(
(-3.87106e-06 -2.11929e-06 -5.2913e-23)
(-3.43891e-06 1.86929e-06 6.28996e-23)
(-3.7956e-06 -3.40665e-06 -8.74424e-23)
(-3.2954e-06 3.004e-06 -5.4686e-23)
(-3.98896e-06 -4.41475e-06 1.1481e-23)
(-3.38202e-06 3.85786e-06 9.29588e-23)
(-4.47947e-06 -5.13876e-06 1.25729e-22)
(-3.73982e-06 4.42108e-06 -1.07336e-22)
(-5.24645e-06 -5.6783e-06 -4.33989e-23)
(-4.35498e-06 4.78057e-06 2.7511e-23)
(-6.234e-06 -6.08075e-06 -3.58697e-23)
(-5.17859e-06 4.97615e-06 1.64419e-23)
(-7.41108e-06 -6.3958e-06 5.20578e-23)
(-6.18404e-06 5.04963e-06 9.86401e-23)
(-8.75305e-06 -6.65637e-06 -4.50298e-23)
(-7.35035e-06 5.02722e-06 -1.06462e-22)
(-1.02464e-05 -6.88963e-06 -1.01646e-23)
(-8.66689e-06 4.92962e-06 -4.00675e-23)
(-1.18831e-05 -7.11555e-06 -3.39569e-23)
(-1.01281e-05 4.77055e-06 2.31664e-23)
(-1.36596e-05 -7.3498e-06 3.35752e-23)
(-1.17331e-05 4.55952e-06 -1.01155e-24)
(-1.55752e-05 -7.60419e-06 -1.32227e-23)
(-1.34841e-05 4.30227e-06 1.92176e-23)
(-1.76316e-05 -7.88756e-06 6.1777e-24)
(-1.53864e-05 4.00195e-06 2.89344e-23)
(-1.9832e-05 -8.2061e-06 -4.88225e-25)
(-1.74472e-05 3.65986e-06 -2.20151e-23)
(-2.21808e-05 -8.56362e-06 -5.15616e-23)
(-1.96761e-05 3.27634e-06 3.3616e-23)
(-2.46834e-05 -8.96161e-06 6.46749e-23)
(-2.20844e-05 2.85162e-06 -5.83195e-23)
(-2.73465e-05 -9.3992e-06 -2.21914e-23)
(-2.46848e-05 2.38669e-06 1.38691e-23)
(-3.01776e-05 -9.87308e-06 1.53862e-23)
(-2.74913e-05 1.88403e-06 2.4594e-23)
(-3.31854e-05 -1.03774e-05 -1.49605e-23)
(-3.05182e-05 1.34823e-06 -2.78906e-23)
(-3.638e-05 -1.09036e-05 -8.80409e-24)
(-3.37802e-05 7.86304e-07 1.84565e-23)
(-3.97727e-05 -1.1441e-05 4.5354e-24)
(-3.72914e-05 2.07747e-07 -2.42161e-23)
(-4.33767e-05 -1.19763e-05 -2.93616e-23)
(-4.10654e-05 -3.75611e-07 9.08e-24)
(-4.73521e-05 -1.25145e-05 2.012e-23)
(-4.527e-05 -9.72033e-07 1.38413e-23)
(-5.15673e-05 -1.30113e-05 -1.36956e-23)
(-4.97638e-05 -1.53678e-06 8.80945e-24)
(-5.57458e-05 -1.34241e-05 3.41897e-23)
(-5.42428e-05 -2.02297e-06 4.64788e-23)
(-5.989e-05 -1.37501e-05 -1.21656e-23)
(-5.87004e-05 -2.42779e-06 -1.17426e-23)
(-6.40016e-05 -1.39882e-05 -2.83536e-23)
(-6.3131e-05 -2.74987e-06 -1.05027e-23)
(-6.80818e-05 -1.41381e-05 2.11644e-23)
(-6.75295e-05 -2.98884e-06 -2.31555e-23)
(-7.21321e-05 -1.42005e-05 -4.57835e-24)
(-7.18908e-05 -3.14551e-06 -1.98231e-23)
(-7.61542e-05 -1.4178e-05 2.65794e-23)
(-7.62091e-05 -3.22223e-06 1.58014e-24)
(-8.01503e-05 -1.40747e-05 4.72771e-24)
(-8.04784e-05 -3.22338e-06 1.9811e-24)
(-8.41227e-05 -1.38975e-05 1.56003e-23)
(-8.46926e-05 -3.15577e-06 -5.32034e-24)
(-8.80736e-05 -1.36558e-05 -1.52251e-23)
(-8.88455e-05 -3.02883e-06 -4.27136e-25)
(-9.20049e-05 -1.33615e-05 2.14459e-24)
(-9.29311e-05 -2.85445e-06 2.89333e-23)
(-9.59176e-05 -1.30286e-05 3.50251e-23)
(-9.69444e-05 -2.64666e-06 -1.04638e-23)
(-9.98116e-05 -1.26726e-05 2.43571e-23)
(-0.000100881 -2.42102e-06 6.52155e-24)
(-0.000103686 -1.231e-05 -1.78646e-23)
(-0.000104739 -2.19397e-06 2.25866e-23)
(-0.000107539 -1.19574e-05 -1.13953e-23)
(-0.000108514 -1.98214e-06 -1.64299e-23)
(-0.000111367 -1.16313e-05 -6.0101e-24)
(-0.000112207 -1.80177e-06 -9.49351e-24)
(-0.000115166 -1.13468e-05 2.08927e-23)
(-0.000115817 -1.66822e-06 1.64751e-23)
(-0.000118933 -1.11184e-05 2.69197e-23)
(-0.000119343 -1.59566e-06 -7.23965e-24)
(-0.000122663 -1.09588e-05 -1.61679e-24)
(-0.000122787 -1.59681e-06 1.96556e-23)
(-0.00012635 -1.08792e-05 1.1354e-23)
(-0.000126151 -1.68279e-06 -4.12776e-24)
(-0.000129989 -1.08891e-05 -9.65809e-25)
(-0.000129435 -1.86295e-06 -4.5728e-24)
(-0.000133574 -1.0996e-05 2.01035e-23)
(-0.000132642 -2.1447e-06 -5.28415e-24)
(-0.000137099 -1.12053e-05 -8.55623e-24)
(-0.000135775 -2.53334e-06 5.49567e-25)
(-0.000140558 -1.152e-05 -1.95398e-23)
(-0.000138836 -3.03176e-06 -9.11628e-25)
(-0.000143943 -1.19407e-05 1.66353e-23)
(-0.000141829 -3.64028e-06 1.06298e-23)
(-0.000147249 -1.24648e-05 -7.46286e-24)
(-0.000144758 -4.3564e-06 -3.28256e-23)
(-0.000150469 -1.30873e-05 3.27793e-24)
(-0.000147626 -5.17469e-06 -2.86802e-24)
(-0.000153595 -1.37997e-05 -1.50958e-23)
(-0.000150437 -6.08679e-06 -3.86537e-24)
(-0.000156623 -1.45912e-05 1.36664e-23)
(-0.000153195 -7.0815e-06 -2.08251e-23)
(-0.000159546 -1.5448e-05 -3.22359e-24)
(-0.000155902 -8.14506e-06 5.57846e-25)
(-0.000162361 -1.63545e-05 -5.59378e-24)
(-0.000158562 -9.26154e-06 -9.35825e-24)
(-0.000165063 -1.7293e-05 2.07579e-23)
(-0.000161175 -1.04134e-05 -8.06242e-24)
(-0.00016765 -1.82452e-05 -6.35887e-24)
(-0.000163742 -1.15818e-05 -1.30439e-23)
(-0.000170121 -1.91918e-05 1.88312e-25)
(-0.000166262 -1.27476e-05 1.15108e-23)
(-0.000172474 -2.01137e-05 -5.7773e-24)
(-0.000168735 -1.38916e-05 -1.57406e-23)
(-0.000174712 -2.09925e-05 1.44483e-23)
(-0.000171158 -1.49951e-05 3.46529e-24)
(-0.000176834 -2.18108e-05 -1.84829e-23)
(-0.000173528 -1.60408e-05 -1.12922e-23)
(-0.000178844 -2.25524e-05 2.44221e-23)
(-0.000175841 -1.70125e-05 -7.60341e-24)
(-0.000180743 -2.32031e-05 -2.65922e-23)
(-0.000178093 -1.78961e-05 -2.64741e-23)
(-0.000182536 -2.37509e-05 1.99347e-23)
(-0.000180278 -1.86794e-05 3.68961e-23)
(-0.000184224 -2.41859e-05 -2.06546e-23)
(-0.000182393 -1.93527e-05 1.80045e-23)
(-0.000185812 -2.45006e-05 -2.60443e-23)
(-0.00018443 -1.99088e-05 -2.45023e-24)
(-0.000187304 -2.46902e-05 1.05964e-23)
(-0.000186385 -2.03427e-05 -3.76268e-23)
(-0.000188703 -2.47524e-05 2.51326e-23)
(-0.000188251 -2.06525e-05 7.85566e-24)
(-0.000190012 -2.46874e-05 -1.74825e-23)
(-0.000190023 -2.08385e-05 1.081e-23)
(-0.000191235 -2.44979e-05 2.3653e-23)
(-0.000191695 -2.09034e-05 -3.04649e-23)
(-0.000192374 -2.41887e-05 -3.29691e-23)
(-0.000193262 -2.08521e-05 -3.38862e-23)
(-0.000193431 -2.37667e-05 -2.25945e-23)
(-0.000194719 -2.06915e-05 -2.75995e-23)
(-0.000194409 -2.32409e-05 3.38565e-23)
(-0.000196061 -2.04302e-05 -4.95084e-24)
(-0.000195309 -2.26216e-05 -4.64893e-23)
(-0.000197286 -2.00784e-05 -5.01638e-24)
(-0.000196131 -2.19208e-05 -1.11303e-23)
(-0.000198389 -1.96476e-05 -2.02691e-23)
(-0.000196877 -2.11516e-05 -7.70803e-24)
(-0.00019937 -1.91501e-05 -5.54996e-24)
(-0.000197545 -2.03273e-05 3.73725e-24)
(-0.000200227 -1.85988e-05 -4.25308e-23)
(-0.000198134 -1.94615e-05 1.4757e-23)
(-0.000200962 -1.80063e-05 4.55075e-23)
(-0.000198643 -1.85667e-05 3.44475e-23)
(-0.000201575 -1.73845e-05 -4.17491e-23)
(-0.000199071 -1.76539e-05 2.86382e-23)
(-0.000202069 -1.67449e-05 -8.93754e-23)
(-0.000199413 -1.67345e-05 6.93265e-24)
(-0.000202445 -1.60963e-05 -1.53933e-23)
(-0.000199677 -1.58176e-05 -6.80319e-23)
(-0.000202715 -1.54509e-05 7.62153e-23)
(-0.000199852 -1.49383e-05 9.96263e-23)
(-0.000200298 -1.45267e-05 1.01663e-23)
(-0.000201106 -1.4505e-05 1.05232e-24)
(-0.00020186 -1.44933e-05 9.68691e-25)
(-0.000202565 -1.44577e-05 9.52856e-24)
(-0.000202877 -1.47943e-05 -7.61489e-23)
)
;
    }
    frontAndBackPlanes
    {
        type            empty;
    }
}


// ************************************************************************* //
