/*--------------------------------*- C++ -*----------------------------------*\
| =========                 |                                                 |
| \\      /  F ield         | OpenFOAM Extend Project: Open source CFD        |
|  \\    /   O peration     | Version:  1.6-ext                               |
|   \\  /    A nd           | Web:      www.extend-project.de                 |
|    \\/     M anipulation  |                                                 |
\*---------------------------------------------------------------------------*/
FoamFile
{
    version     2.0;
    format      ascii;
    class       volVectorField;
    location    "0.85";
    object      DV_0;
}
// * * * * * * * * * * * * * * * * * * * * * * * * * * * * * * * * * * * * * //

dimensions      [0 1 -1 0 0 0 0];

internalField   nonuniform List<vector> 
328
(
(-4.23269e-07 -8.13371e-07 0)
(-2.73236e-07 -1.70483e-07 0)
(-2.64951e-07 1.53005e-07 0)
(-3.78659e-07 7.35696e-07 0)
(-1.28941e-06 -2.09321e-06 0)
(-9.02895e-07 -5.11056e-07 0)
(-8.73883e-07 4.31865e-07 0)
(-1.1538e-06 1.87501e-06 0)
(-2.29056e-06 -3.06059e-06 0)
(-1.74317e-06 -8.49382e-07 0)
(-1.68445e-06 6.78167e-07 0)
(-2.05259e-06 2.70288e-06 0)
(-3.38017e-06 -3.77154e-06 0)
(-2.72527e-06 -1.16273e-06 0)
(-2.63284e-06 8.68781e-07 0)
(-3.03397e-06 3.26663e-06 0)
(-4.57167e-06 -4.29561e-06 0)
(-3.86252e-06 -1.44336e-06 0)
(-3.73257e-06 9.95225e-07 0)
(-4.11166e-06 3.62753e-06 0)
(-5.85955e-06 -4.68622e-06 0)
(-5.13291e-06 -1.69017e-06 0)
(-4.96347e-06 1.05405e-06 0)
(-5.28218e-06 3.83162e-06 0)
(-7.25029e-06 -4.98735e-06 0)
(-6.53395e-06 -1.90931e-06 0)
(-6.32369e-06 1.04811e-06 0)
(-6.5531e-06 3.91568e-06 0)
(-8.74828e-06 -5.23224e-06 0)
(-8.05777e-06 -2.11001e-06 0)
(-7.80627e-06 9.8233e-07 0)
(-7.93018e-06 3.90611e-06 0)
(-1.03605e-05 -5.44715e-06 0)
(-9.70277e-06 -2.30348e-06 0)
(-9.41014e-06 8.62935e-07 0)
(-9.42169e-06 3.82257e-06 0)
(-1.20937e-05 -5.65228e-06 0)
(-1.14683e-05 -2.50089e-06 0)
(-1.11353e-05 6.95732e-07 0)
(-1.10359e-05 3.67897e-06 0)
(-1.39552e-05 -5.86321e-06 0)
(-1.33571e-05 -2.71251e-06 0)
(-1.29848e-05 4.85657e-07 0)
(-1.27819e-05 3.48512e-06 0)
(-1.59522e-05 -6.09154e-06 0)
(-1.53737e-05 -2.94682e-06 0)
(-1.49642e-05 2.36389e-07 0)
(-1.46689e-05 3.24764e-06 0)
(-1.80919e-05 -6.34548e-06 0)
(-1.75251e-05 -3.21021e-06 0)
(-1.70809e-05 -4.94916e-08 0)
(-1.67065e-05 2.97086e-06 0)
(-2.03818e-05 -6.63022e-06 0)
(-1.98197e-05 -3.50676e-06 0)
(-1.93442e-05 -3.70186e-07 0)
(-1.89049e-05 2.6576e-06 0)
(-2.28297e-05 -6.94831e-06 0)
(-2.22676e-05 -3.83834e-06 0)
(-2.17652e-05 -7.24219e-07 0)
(-2.12749e-05 2.30985e-06 0)
(-2.54442e-05 -7.30001e-06 0)
(-2.48798e-05 -4.20474e-06 0)
(-2.43557e-05 -1.10998e-06 0)
(-2.38277e-05 1.92941e-06 0)
(-2.82344e-05 -7.68364e-06 0)
(-2.76682e-05 -4.60397e-06 0)
(-2.71285e-05 -1.52539e-06 0)
(-2.65752e-05 1.51828e-06 0)
(-3.12104e-05 -8.09607e-06 0)
(-3.06454e-05 -5.03265e-06 0)
(-3.0097e-05 -1.96769e-06 0)
(-2.95297e-05 1.07903e-06 0)
(-3.43835e-05 -8.53307e-06 0)
(-3.38245e-05 -5.4864e-06 0)
(-3.32751e-05 -2.43339e-06 0)
(-3.27043e-05 6.14808e-07 0)
(-3.77658e-05 -8.98963e-06 0)
(-3.72191e-05 -5.96013e-06 0)
(-3.66767e-05 -2.91837e-06 0)
(-3.61124e-05 1.29441e-07 0)
(-4.13705e-05 -9.46014e-06 0)
(-4.08434e-05 -6.44827e-06 0)
(-4.03165e-05 -3.41787e-06 0)
(-3.97677e-05 -3.72599e-07 0)
(-4.52115e-05 -9.93819e-06 0)
(-4.47118e-05 -6.94459e-06 0)
(-4.42091e-05 -3.92636e-06 0)
(-4.36848e-05 -8.85993e-07 0)
(-4.9459e-05 -1.04343e-05 0)
(-4.89967e-05 -7.46063e-06 0)
(-4.85282e-05 -4.45644e-06 0)
(-4.80386e-05 -1.42387e-06 0)
(-5.39708e-05 -1.09157e-05 0)
(-5.35553e-05 -7.96316e-06 0)
(-5.3131e-05 -4.97498e-06 0)
(-5.26856e-05 -1.9532e-06 0)
(-5.84477e-05 -1.13415e-05 0)
(-5.80849e-05 -8.41037e-06 0)
(-5.77107e-05 -5.43939e-06 0)
(-5.73154e-05 -2.4308e-06 0)
(-6.28895e-05 -1.17059e-05 0)
(-6.25844e-05 -8.79642e-06 0)
(-6.22649e-05 -5.84396e-06 0)
(-6.19245e-05 -2.85096e-06 0)
(-6.72964e-05 -1.20033e-05 0)
(-6.70524e-05 -9.11566e-06 0)
(-6.6791e-05 -6.18312e-06 0)
(-6.65091e-05 -3.20829e-06 0)
(-7.16686e-05 -1.22292e-05 0)
(-7.14878e-05 -9.36358e-06 0)
(-7.12863e-05 -6.45241e-06 0)
(-7.10646e-05 -3.49856e-06 0)
(-7.6007e-05 -1.23813e-05 0)
(-7.58894e-05 -9.53769e-06 0)
(-7.57476e-05 -6.64943e-06 0)
(-7.55861e-05 -3.71951e-06 0)
(-8.03124e-05 -1.24599e-05 0)
(-8.0256e-05 -9.63827e-06 0)
(-8.01718e-05 -6.77444e-06 0)
(-8.00685e-05 -3.87156e-06 0)
(-8.4586e-05 -1.24683e-05 0)
(-8.45864e-05 -9.66865e-06 0)
(-8.45556e-05 -6.83082e-06 0)
(-8.45061e-05 -3.95805e-06 0)
(-8.88283e-05 -1.24127e-05 0)
(-8.88793e-05 -9.63518e-06 0)
(-8.88957e-05 -6.8249e-06 0)
(-8.88937e-05 -3.98521e-06 0)
(-9.30398e-05 -1.23019e-05 0)
(-9.31332e-05 -9.54685e-06 0)
(-9.31891e-05 -6.76569e-06 0)
(-9.32264e-05 -3.96183e-06 0)
(-9.72204e-05 -1.21467e-05 0)
(-9.73465e-05 -9.41471e-06 0)
(-9.74326e-05 -6.66422e-06 0)
(-9.74995e-05 -3.89869e-06 0)
(-0.000101369 -1.19593e-05 0)
(-0.000101517 -9.25117e-06 0)
(-0.000101623 -6.53289e-06 0)
(-0.000101709 -3.80789e-06 0)
(-0.000105485 -1.17525e-05 0)
(-0.000105644 -9.06939e-06 0)
(-0.000105759 -6.38483e-06 0)
(-0.000105852 -3.70227e-06 0)
(-0.000109566 -1.15395e-05 0)
(-0.000109724 -8.88276e-06 0)
(-0.000109836 -6.23341e-06 0)
(-0.000109926 -3.59493e-06 0)
(-0.00011361 -1.13334e-05 0)
(-0.000113755 -8.70454e-06 0)
(-0.000113854 -6.09188e-06 0)
(-0.000113928 -3.49886e-06 0)
(-0.000117613 -1.11469e-05 0)
(-0.000117735 -8.54768e-06 0)
(-0.000117809 -5.97314e-06 0)
(-0.000117856 -3.42675e-06 0)
(-0.000121574 -1.09924e-05 0)
(-0.000121661 -8.42463e-06 0)
(-0.0001217 -5.88963e-06 0)
(-0.000121709 -3.39082e-06 0)
(-0.00012549 -1.08816e-05 0)
(-0.000125531 -8.34727e-06 0)
(-0.000125524 -5.8532e-06 0)
(-0.000125486 -3.40271e-06 0)
(-0.000129355 -1.08254e-05 0)
(-0.000129343 -8.32677e-06 0)
(-0.000129281 -5.87498e-06 0)
(-0.000129186 -3.47333e-06 0)
(-0.000133167 -1.08339e-05 0)
(-0.000133093 -8.3733e-06 0)
(-0.000132969 -5.96513e-06 0)
(-0.000132809 -3.61262e-06 0)
(-0.000136922 -1.09158e-05 0)
(-0.000136778 -8.49576e-06 0)
(-0.000136586 -6.13252e-06 0)
(-0.000136354 -3.82922e-06 0)
(-0.000140614 -1.10781e-05 0)
(-0.000140397 -8.70134e-06 0)
(-0.000140131 -6.38431e-06 0)
(-0.000139823 -4.1301e-06 0)
(-0.00014424 -1.13259e-05 0)
(-0.000143945 -8.99517e-06 0)
(-0.000143604 -6.72559e-06 0)
(-0.000143216 -4.52016e-06 0)
(-0.000147793 -1.16616e-05 0)
(-0.000147421 -9.37989e-06 0)
(-0.000147003 -7.159e-06 0)
(-0.000146535 -5.00191e-06 0)
(-0.000151269 -1.20853e-05 0)
(-0.000150821 -9.85543e-06 0)
(-0.000150328 -7.68441e-06 0)
(-0.000149782 -5.57515e-06 0)
(-0.000154663 -1.25941e-05 0)
(-0.000154142 -1.04188e-05 0)
(-0.000153578 -8.29887e-06 0)
(-0.000152957 -6.23692e-06 0)
(-0.000157969 -1.31822e-05 0)
(-0.000157382 -1.10644e-05 0)
(-0.000156752 -8.99656e-06 0)
(-0.000156064 -6.98147e-06 0)
(-0.000161183 -1.38415e-05 0)
(-0.000160538 -1.17836e-05 0)
(-0.000159851 -9.76902e-06 0)
(-0.000159102 -7.80046e-06 0)
(-0.000164302 -1.45615e-05 0)
(-0.000163608 -1.25657e-05 0)
(-0.000162873 -1.06055e-05 0)
(-0.000162074 -8.68326e-06 0)
(-0.000167321 -1.53297e-05 0)
(-0.000166589 -1.3398e-05 0)
(-0.000165817 -1.14931e-05 0)
(-0.000164979 -9.61737e-06 0)
(-0.000170237 -1.61325e-05 0)
(-0.000169481 -1.42666e-05 0)
(-0.000168684 -1.2418e-05 0)
(-0.000167819 -1.05889e-05 0)
(-0.000173049 -1.69551e-05 0)
(-0.000172281 -1.51563e-05 0)
(-0.000171471 -1.33649e-05 0)
(-0.000170593 -1.15829e-05 0)
(-0.000175754 -1.77824e-05 0)
(-0.000174987 -1.60517e-05 0)
(-0.000174179 -1.43183e-05 0)
(-0.000173301 -1.25843e-05 0)
(-0.000178352 -1.85994e-05 0)
(-0.0001776 -1.69375e-05 0)
(-0.000176805 -1.5263e-05 0)
(-0.000175941 -1.35777e-05 0)
(-0.000180842 -1.93914e-05 0)
(-0.000180118 -1.77986e-05 0)
(-0.00017935 -1.61837e-05 0)
(-0.000178512 -1.45483e-05 0)
(-0.000183225 -2.01443e-05 0)
(-0.00018254 -1.86209e-05 0)
(-0.000181811 -1.70662e-05 0)
(-0.000181012 -1.54819e-05 0)
(-0.0001855 -2.08453e-05 0)
(-0.000184867 -1.9391e-05 0)
(-0.000184187 -1.78971e-05 0)
(-0.000183439 -1.63652e-05 0)
(-0.000187668 -2.14823e-05 0)
(-0.000187097 -2.00969e-05 0)
(-0.000186478 -1.86644e-05 0)
(-0.00018579 -1.71863e-05 0)
(-0.000189732 -2.20448e-05 0)
(-0.000189232 -2.07277e-05 0)
(-0.000188681 -1.93572e-05 0)
(-0.000188063 -1.79344e-05 0)
(-0.000191692 -2.25237e-05 0)
(-0.00019127 -2.12744e-05 0)
(-0.000190796 -1.99661e-05 0)
(-0.000190256 -1.86003e-05 0)
(-0.00019355 -2.29115e-05 0)
(-0.000193212 -2.17292e-05 0)
(-0.000192821 -2.04836e-05 0)
(-0.000192366 -1.91763e-05 0)
(-0.000195307 -2.32025e-05 0)
(-0.000195059 -2.20862e-05 0)
(-0.000194755 -2.09038e-05 0)
(-0.000194389 -1.96566e-05 0)
(-0.000196967 -2.33927e-05 0)
(-0.000196811 -2.23416e-05 0)
(-0.000196597 -2.12227e-05 0)
(-0.000196322 -2.00373e-05 0)
(-0.000198531 -2.34803e-05 0)
(-0.000198468 -2.24935e-05 0)
(-0.000198345 -2.14384e-05 0)
(-0.000198162 -2.03166e-05 0)
(-0.0002 -2.34654e-05 0)
(-0.00020003 -2.2542e-05 0)
(-0.000199998 -2.15511e-05 0)
(-0.000199907 -2.04946e-05 0)
(-0.000201377 -2.33502e-05 0)
(-0.000201497 -2.24894e-05 0)
(-0.000201554 -2.15633e-05 0)
(-0.000201552 -2.05738e-05 0)
(-0.000202664 -2.31388e-05 0)
(-0.00020287 -2.23401e-05 0)
(-0.000203011 -2.14793e-05 0)
(-0.000203094 -2.05585e-05 0)
(-0.000203861 -2.28367e-05 0)
(-0.000204149 -2.20998e-05 0)
(-0.000204368 -2.13049e-05 0)
(-0.000204531 -2.04546e-05 0)
(-0.000204969 -2.24513e-05 0)
(-0.000205331 -2.1776e-05 0)
(-0.000205624 -2.10479e-05 0)
(-0.00020586 -2.02696e-05 0)
(-0.000205988 -2.19905e-05 0)
(-0.000206418 -2.13771e-05 0)
(-0.000206776 -2.07166e-05 0)
(-0.000207077 -2.0012e-05 0)
(-0.000206919 -2.14636e-05 0)
(-0.000207407 -2.09125e-05 0)
(-0.000207823 -2.03207e-05 0)
(-0.000208181 -1.96914e-05 0)
(-0.000207759 -2.08804e-05 0)
(-0.000208298 -2.03923e-05 0)
(-0.000208763 -1.98704e-05 0)
(-0.000209168 -1.93178e-05 0)
(-0.000208509 -2.02514e-05 0)
(-0.000209089 -1.98274e-05 0)
(-0.000209594 -1.93766e-05 0)
(-0.000210038 -1.89018e-05 0)
(-0.000209166 -1.95876e-05 0)
(-0.000209778 -1.9229e-05 0)
(-0.000210314 -1.88504e-05 0)
(-0.000210788 -1.84543e-05 0)
(-0.000209729 -1.89e-05 0)
(-0.000210364 -1.86079e-05 0)
(-0.000210923 -1.83027e-05 0)
(-0.000211419 -1.79855e-05 0)
(-0.000210196 -1.81973e-05 0)
(-0.000210845 -1.79732e-05 0)
(-0.000211421 -1.77424e-05 0)
(-0.000211932 -1.75038e-05 0)
(-0.000210563 -1.74866e-05 0)
(-0.00021122 -1.73317e-05 0)
(-0.000211805 -1.71752e-05 0)
(-0.000212327 -1.70136e-05 0)
(-0.000210834 -1.67738e-05 0)
(-0.000211491 -1.66885e-05 0)
(-0.000212083 -1.66045e-05 0)
(-0.000212613 -1.65182e-05 0)
(-0.000210997 -1.6082e-05 0)
(-0.000211651 -1.60529e-05 0)
(-0.000212244 -1.60293e-05 0)
(-0.000212779 -1.60025e-05 0)
)
;

boundaryField
{
    plateFix
    {
        type            calculated;
        value           uniform (0 0 0);
    }
    plate
    {
        type            calculated;
        value           nonuniform List<vector> 
168
(
(-3.99544e-06 -2.19751e-06 -7.70735e-24)
(-3.59757e-06 1.9687e-06 7.97363e-23)
(-3.91721e-06 -3.52152e-06 4.68875e-23)
(-3.4634e-06 3.1506e-06 -5.37954e-23)
(-4.12118e-06 -4.55294e-06 -1.34246e-23)
(-3.57783e-06 4.04063e-06 2.06972e-23)
(-4.63594e-06 -5.28886e-06 -1.9765e-23)
(-3.98021e-06 4.63222e-06 5.56283e-23)
(-5.43824e-06 -5.8331e-06 -4.70319e-23)
(-4.6525e-06 5.01779e-06 1.99316e-23)
(-6.46964e-06 -6.23455e-06 1.38473e-22)
(-5.54158e-06 5.2391e-06 -8.54086e-23)
(-7.69819e-06 -6.54397e-06 -9.03022e-23)
(-6.61898e-06 5.33897e-06 -8.06045e-23)
(-9.09883e-06 -6.79465e-06 -2.25503e-23)
(-7.86308e-06 5.34365e-06 1.56895e-22)
(-1.06581e-05 -7.01394e-06 2.97773e-23)
(-9.26348e-06 5.2737e-06 -2.97629e-23)
(-1.23678e-05 -7.22186e-06 4.77387e-23)
(-1.08152e-05 5.14284e-06 -1.2163e-23)
(-1.42245e-05 -7.43394e-06 -4.23534e-23)
(-1.25182e-05 4.96081e-06 8.96625e-25)
(-1.62275e-05 -7.6616e-06 3.44199e-23)
(-1.43754e-05 4.73403e-06 -2.46014e-23)
(-1.83784e-05 -7.91302e-06 -2.57735e-23)
(-1.63926e-05 4.46677e-06 -1.27581e-23)
(-2.06806e-05 -8.19348e-06 3.46691e-25)
(-1.85771e-05 4.16181e-06 4.88804e-23)
(-2.31392e-05 -8.50571e-06 2.33735e-23)
(-2.09384e-05 3.82116e-06 -6.4322e-23)
(-2.57608e-05 -8.85024e-06 -4.62027e-23)
(-2.3487e-05 3.44661e-06 7.63395e-23)
(-2.85537e-05 -9.22573e-06 1.8526e-23)
(-2.62343e-05 3.04016e-06 -9.34618e-24)
(-3.15278e-05 -9.62935e-06 -1.26549e-23)
(-2.91925e-05 2.60434e-06 -3.72331e-23)
(-3.46944e-05 -1.00571e-05 1.51504e-23)
(-3.23745e-05 2.14224e-06 2.84164e-23)
(-3.8066e-05 -1.05041e-05 1.56221e-23)
(-3.57933e-05 1.65764e-06 -4.12268e-23)
(-4.16562e-05 -1.09649e-05 -8.09178e-24)
(-3.94626e-05 1.15499e-06 1.71163e-23)
(-4.54792e-05 -1.14329e-05 3.74061e-23)
(-4.33967e-05 6.39611e-07 -9.90385e-24)
(-4.97042e-05 -1.19183e-05 -2.44896e-23)
(-4.77717e-05 9.81871e-08 -7.84364e-24)
(-5.41892e-05 -1.23881e-05 2.97478e-23)
(-5.24439e-05 -4.36245e-07 -2.32454e-23)
(-5.86365e-05 -1.28025e-05 -6.22106e-23)
(-5.71016e-05 -9.20169e-07 -1.475e-23)
(-6.30459e-05 -1.31553e-05 -2.22208e-23)
(-6.17413e-05 -1.34791e-06 1.87286e-23)
(-6.74179e-05 -1.34412e-05 1.82802e-23)
(-6.63588e-05 -1.71424e-06 4.01435e-23)
(-7.17536e-05 -1.36558e-05 -2.53011e-24)
(-7.09489e-05 -2.01508e-06 2.44779e-23)
(-7.60549e-05 -1.37969e-05 2.4406e-23)
(-7.55054e-05 -2.24833e-06 6.55568e-24)
(-8.03242e-05 -1.38647e-05 -1.22851e-23)
(-8.00217e-05 -2.41446e-06 -1.03369e-23)
(-8.4564e-05 -1.38626e-05 3.17889e-23)
(-8.44909e-05 -2.51681e-06 1.30869e-24)
(-8.87764e-05 -1.37967e-05 -3.57785e-23)
(-8.89063e-05 -2.56154e-06 -9.05197e-24)
(-9.29628e-05 -1.36756e-05 -9.82384e-25)
(-9.32617e-05 -2.5573e-06 4.35493e-24)
(-9.71241e-05 -1.351e-05 6.91221e-24)
(-9.75519e-05 -2.51466e-06 -2.66214e-23)
(-0.00010126 -1.33119e-05 -2.84977e-23)
(-0.000101773 -2.44553e-06 -8.59439e-24)
(-0.000105369 -1.30938e-05 -3.94542e-23)
(-0.00010592 -2.36257e-06 9.00581e-24)
(-0.00010945 -1.2869e-05 2.9985e-23)
(-0.000109991 -2.2787e-06 -1.05474e-23)
(-0.0001135 -1.26502e-05 -4.23018e-24)
(-0.000113985 -2.20677e-06 1.88597e-23)
(-0.000117517 -1.24502e-05 -8.04141e-24)
(-0.000117898 -2.15933e-06 -6.00615e-24)
(-0.000121497 -1.22812e-05 5.73598e-24)
(-0.00012173 -2.14846e-06 -1.78674e-23)
(-0.000125437 -1.21547e-05 -1.52657e-23)
(-0.00012548 -2.1857e-06 9.62874e-25)
(-0.000129332 -1.20817e-05 -7.26083e-24)
(-0.000129148 -2.28181e-06 -3.01678e-23)
(-0.000133179 -1.20721e-05 -5.28847e-24)
(-0.000132734 -2.4466e-06 -2.86106e-24)
(-0.000136972 -1.21344e-05 7.57355e-24)
(-0.000136239 -2.68855e-06 -7.29454e-24)
(-0.000140706 -1.22757e-05 2.46025e-24)
(-0.000139665 -3.01449e-06 2.74699e-24)
(-0.000144375 -1.25007e-05 -9.93511e-24)
(-0.000143013 -3.42923e-06 1.07551e-23)
(-0.000147972 -1.2812e-05 6.33972e-24)
(-0.000146286 -3.93515e-06 -2.28682e-24)
(-0.000151492 -1.32096e-05 8.70952e-25)
(-0.000149487 -4.53205e-06 -6.72974e-24)
(-0.000154927 -1.36905e-05 -1.04053e-23)
(-0.00015262 -5.21695e-06 8.27443e-24)
(-0.000158271 -1.42492e-05 7.76093e-25)
(-0.000155687 -5.98414e-06 5.94585e-24)
(-0.000161519 -1.48776e-05 3.49654e-24)
(-0.00015869 -6.82539e-06 -2.92426e-24)
(-0.000164665 -1.55653e-05 4.8257e-24)
(-0.000161633 -7.73018e-06 1.85867e-23)
(-0.000167704 -1.63002e-05 2.28964e-24)
(-0.000164516 -8.68615e-06 -1.98781e-24)
(-0.000170635 -1.70687e-05 -3.45231e-24)
(-0.000167341 -9.67956e-06 1.23209e-23)
(-0.000173453 -1.78563e-05 -2.08142e-23)
(-0.000170108 -1.06957e-05 1.9434e-23)
(-0.000176158 -1.86481e-05 -1.23684e-23)
(-0.000172815 -1.17195e-05 -2.22644e-23)
(-0.000178747 -1.94293e-05 4.64788e-25)
(-0.000175463 -1.27359e-05 -3.39726e-24)
(-0.000181222 -2.01853e-05 3.19012e-24)
(-0.000178048 -1.373e-05 1.50648e-23)
(-0.000183582 -2.09023e-05 -1.09278e-23)
(-0.00018057 -1.46878e-05 3.75715e-23)
(-0.000185829 -2.15674e-05 -2.54511e-23)
(-0.000183024 -1.55961e-05 -1.05064e-24)
(-0.000187964 -2.21688e-05 -2.14673e-23)
(-0.000185409 -1.6443e-05 2.44125e-23)
(-0.000189988 -2.26962e-05 1.27661e-23)
(-0.000187721 -1.72178e-05 3.84287e-23)
(-0.000191905 -2.31404e-05 -8.96083e-24)
(-0.000189956 -1.79113e-05 -2.69459e-23)
(-0.000193716 -2.34941e-05 3.51249e-23)
(-0.000192112 -1.85159e-05 -9.14394e-24)
(-0.000195425 -2.37516e-05 1.49173e-23)
(-0.000194183 -1.90259e-05 8.39313e-24)
(-0.000197034 -2.39089e-05 5.63537e-24)
(-0.000196166 -1.94373e-05 5.56953e-23)
(-0.000198547 -2.39643e-05 -4.78025e-23)
(-0.000198057 -1.97483e-05 -1.86831e-23)
(-0.000199966 -2.39177e-05 6.81563e-23)
(-0.000199851 -1.99592e-05 -1.004e-22)
(-0.000201294 -2.37714e-05 1.52223e-25)
(-0.000201545 -2.00723e-05 2.6871e-23)
(-0.000202534 -2.35293e-05 4.68478e-23)
(-0.000203133 -2.00919e-05 -4.44532e-25)
(-0.000203688 -2.3197e-05 2.04414e-23)
(-0.000204612 -2.00239e-05 3.10925e-23)
(-0.000204756 -2.27813e-05 9.66144e-24)
(-0.000205979 -1.98758e-05 -2.49486e-24)
(-0.00020574 -2.22905e-05 -2.89377e-23)
(-0.000207231 -1.96561e-05 3.01859e-23)
(-0.000206639 -2.17333e-05 5.62963e-23)
(-0.000208364 -1.93741e-05 2.81086e-26)
(-0.000207454 -2.11196e-05 4.02196e-23)
(-0.000209375 -1.90399e-05 -4.95407e-23)
(-0.000208184 -2.04598e-05 -1.76427e-23)
(-0.000210263 -1.8664e-05 7.85755e-23)
(-0.000208827 -1.97646e-05 2.67162e-23)
(-0.000211026 -1.82568e-05 -3.26603e-23)
(-0.00020938 -1.90451e-05 -4.22237e-23)
(-0.000211665 -1.78282e-05 8.49773e-23)
(-0.000209842 -1.83096e-05 -2.91618e-23)
(-0.000212183 -1.73864e-05 7.51614e-23)
(-0.000210208 -1.75657e-05 -4.4404e-23)
(-0.00021258 -1.69347e-05 -3.78699e-23)
(-0.000210485 -1.68178e-05 -9.83697e-26)
(-0.000212871 -1.64779e-05 -2.35558e-23)
(-0.000210664 -1.60956e-05 -7.66195e-24)
(-0.000211044 -1.57538e-05 -4.19925e-24)
(-0.000211699 -1.5739e-05 -1.19177e-24)
(-0.000212292 -1.57441e-05 9.13708e-25)
(-0.000212826 -1.57302e-05 -5.56323e-24)
(-0.000213049 -1.59944e-05 6.41264e-24)
)
;
    }
    frontAndBackPlanes
    {
        type            empty;
    }
}


// ************************************************************************* //
