/*--------------------------------*- C++ -*----------------------------------*\
| =========                 |                                                 |
| \\      /  F ield         | OpenFOAM Extend Project: Open source CFD        |
|  \\    /   O peration     | Version:  1.6-ext                               |
|   \\  /    A nd           | Web:      www.extend-project.de                 |
|    \\/     M anipulation  |                                                 |
\*---------------------------------------------------------------------------*/
FoamFile
{
    version     2.0;
    format      ascii;
    class       surfaceScalarField;
    location    "0.85";
    object      meshPhi;
}
// * * * * * * * * * * * * * * * * * * * * * * * * * * * * * * * * * * * * * //

dimensions      [0 3 -1 0 0 0 0];

internalField   nonuniform List<scalar> 
570
(
-3.56143e-11
-8.87386e-10
-1.14212e-13
-2.74327e-10
4.51896e-11
-3.24955e-10
-1.24586e-09
-1.05831e-10
-1.02226e-09
2.27458e-12
-6.09643e-10
1.38273e-10
-7.19019e-10
-1.50574e-09
-1.66337e-10
-1.23814e-09
1.0876e-11
-1.01684e-09
2.29798e-10
-1.19374e-09
-1.88756e-09
-2.13573e-10
-1.53592e-09
2.73485e-11
-1.48503e-09
3.2022e-10
-1.73585e-09
-2.38364e-09
-2.45268e-10
-1.90994e-09
5.36964e-11
-2.01378e-09
4.12269e-10
-2.34444e-09
-2.9825e-09
-2.5914e-10
-2.35129e-09
9.25983e-11
-2.59912e-09
5.09883e-10
-3.01476e-09
-3.66977e-09
-2.5236e-10
-2.85517e-09
1.47576e-10
-3.24006e-09
6.17914e-10
-3.74557e-09
-4.43756e-09
-2.21331e-10
-3.41842e-09
2.23154e-10
-3.93571e-09
7.42266e-10
-4.53577e-09
-5.28066e-09
-1.61383e-10
-4.04002e-09
3.25074e-10
-4.68661e-09
8.90044e-10
-5.38584e-09
-6.19699e-09
-6.64646e-11
-4.72023e-09
4.60545e-10
-5.49411e-09
1.06978e-09
-6.2971e-09
-7.18619e-09
7.12523e-11
-5.46051e-09
6.38551e-10
-6.36059e-09
1.29172e-09
-7.27192e-09
-8.2494e-09
2.61809e-10
-6.26323e-09
8.7023e-10
-7.28928e-09
1.56813e-09
-8.3135e-09
-9.38876e-09
5.17971e-10
-7.13163e-09
1.16932e-09
-8.28421e-09
1.91374e-09
-9.42584e-09
-1.06073e-08
8.55812e-10
-8.06963e-09
1.55272e-09
-9.35005e-09
2.34623e-09
-1.06135e-08
-1.19086e-08
1.29537e-09
-9.08183e-09
2.04109e-09
-1.0492e-08
2.88693e-09
-1.18818e-08
-1.32969e-08
1.86141e-09
-1.01734e-08
2.65969e-09
-1.17159e-08
3.56153e-09
-1.32361e-08
-1.4777e-08
2.58432e-09
-1.13499e-08
3.4392e-09
-1.30275e-08
4.40108e-09
-1.46824e-08
-1.63542e-08
3.50115e-09
-1.26173e-08
4.41688e-09
-1.44331e-08
5.44304e-09
-1.62269e-08
-1.80341e-08
4.65684e-09
-1.39817e-08
5.63778e-09
-1.59393e-08
6.73266e-09
-1.78761e-08
-1.98229e-08
6.10583e-09
-1.54493e-08
7.15635e-09
-1.75525e-08
8.32456e-09
-1.96367e-08
-2.17274e-08
7.91397e-09
-1.7026e-08
9.03838e-09
-1.92792e-08
1.02847e-08
-2.15159e-08
-2.37551e-08
1.01611e-08
-1.87165e-08
1.13636e-08
-2.11258e-08
1.26931e-08
-2.35212e-08
-2.59149e-08
1.3987e-08
-2.06603e-08
1.53659e-08
-2.32436e-08
1.68881e-08
-2.58176e-08
-2.83838e-08
1.6586e-08
-2.25928e-08
1.7957e-08
-2.53497e-08
1.94703e-08
-2.81009e-08
-3.08389e-08
1.93456e-08
-2.45094e-08
2.0707e-08
-2.74414e-08
2.22118e-08
-3.03715e-08
-3.3283e-08
2.22678e-08
-2.64043e-08
2.36176e-08
-2.95163e-08
2.51145e-08
-3.26299e-08
-3.57197e-08
2.53578e-08
-2.82719e-08
2.66943e-08
-3.15719e-08
2.81837e-08
-3.48766e-08
-3.81526e-08
2.86243e-08
-3.01072e-08
2.99458e-08
-3.36057e-08
3.1428e-08
-3.71118e-08
-4.05846e-08
3.20792e-08
-3.19053e-08
3.33841e-08
-3.56155e-08
3.48593e-08
-3.93357e-08
-4.30185e-08
3.57371e-08
-3.36619e-08
3.70239e-08
-3.75993e-08
3.84922e-08
-4.15484e-08
-4.54566e-08
3.96149e-08
-3.53733e-08
4.08822e-08
-3.9555e-08
4.23437e-08
-4.37496e-08
-4.79004e-08
4.37314e-08
-3.70363e-08
4.4978e-08
-4.14809e-08
4.64326e-08
-4.59392e-08
-5.03512e-08
4.81072e-08
-3.86484e-08
4.9332e-08
-4.33756e-08
5.07794e-08
-4.81164e-08
-5.28094e-08
5.27639e-08
-4.02075e-08
5.3966e-08
-4.52377e-08
5.54056e-08
-5.02808e-08
-5.5275e-08
5.77237e-08
-4.17126e-08
5.89025e-08
-4.70661e-08
6.03338e-08
-5.24312e-08
-5.77471e-08
6.30092e-08
-4.3163e-08
6.41641e-08
-4.886e-08
6.55863e-08
-5.45665e-08
-6.02243e-08
6.86426e-08
-4.45591e-08
6.97733e-08
-5.06189e-08
7.11855e-08
-5.66854e-08
-6.27043e-08
7.46455e-08
-4.59016e-08
7.57518e-08
-5.23423e-08
7.71528e-08
-5.87862e-08
-6.51844e-08
8.10377e-08
-4.71924e-08
8.21197e-08
-5.40302e-08
8.35084e-08
-6.08672e-08
-6.76609e-08
8.78376e-08
-4.84338e-08
8.88955e-08
-5.56827e-08
9.02703e-08
-6.29263e-08
-7.01296e-08
9.50609e-08
-4.96286e-08
9.60951e-08
-5.73002e-08
9.74544e-08
-6.49613e-08
-7.25858e-08
1.02721e-07
-5.07804e-08
1.03732e-07
-5.88831e-08
1.05074e-07
-6.69699e-08
-7.50241e-08
1.10826e-07
-5.1893e-08
1.11815e-07
-6.04322e-08
1.13138e-07
-6.89496e-08
-7.74388e-08
1.19385e-07
-5.29708e-08
1.20351e-07
-6.19481e-08
1.21654e-07
-7.08978e-08
-7.9824e-08
1.28398e-07
-5.40181e-08
1.29343e-07
-6.34319e-08
1.30623e-07
-7.2812e-08
-8.21733e-08
1.37865e-07
-5.50396e-08
1.3879e-07
-6.48845e-08
1.40045e-07
-7.46895e-08
-8.44806e-08
1.4778e-07
-5.604e-08
1.48685e-07
-6.63067e-08
1.49914e-07
-7.65276e-08
-8.67394e-08
1.58134e-07
-5.70239e-08
1.59021e-07
-6.76997e-08
1.60221e-07
-7.83237e-08
-8.89433e-08
1.68913e-07
-5.79959e-08
1.69782e-07
-6.90642e-08
1.70952e-07
-8.00753e-08
-9.10864e-08
1.80101e-07
-5.89601e-08
1.80953e-07
-7.04012e-08
1.82091e-07
-8.17798e-08
-9.31627e-08
1.91676e-07
-5.99205e-08
1.92511e-07
-7.17114e-08
1.93615e-07
-8.34351e-08
-9.51667e-08
2.03614e-07
-6.08806e-08
2.04433e-07
-7.29954e-08
2.05502e-07
-8.50389e-08
-9.70935e-08
2.15887e-07
-6.18434e-08
2.16691e-07
-7.42537e-08
2.17723e-07
-8.65893e-08
-9.89386e-08
2.28466e-07
-6.28111e-08
2.29255e-07
-7.54865e-08
2.30248e-07
-8.80846e-08
-1.00698e-07
2.41317e-07
-6.37854e-08
2.42091e-07
-7.66939e-08
2.43045e-07
-8.95232e-08
-1.02369e-07
2.54406e-07
-6.47671e-08
2.55165e-07
-7.78758e-08
2.5608e-07
-9.09041e-08
-1.0395e-07
2.67698e-07
-6.57564e-08
2.68442e-07
-7.90316e-08
2.69316e-07
-9.22263e-08
-1.05438e-07
2.81157e-07
-6.67524e-08
2.81884e-07
-8.01607e-08
2.82717e-07
-9.34892e-08
-1.06833e-07
2.94747e-07
-6.77535e-08
2.95457e-07
-8.12622e-08
2.96249e-07
-9.46926e-08
-1.08136e-07
3.08432e-07
-6.87573e-08
3.09124e-07
-8.23349e-08
3.09875e-07
-9.58364e-08
-1.09348e-07
3.22178e-07
-6.97606e-08
3.22852e-07
-8.33774e-08
3.23562e-07
-9.6921e-08
-1.10472e-07
3.35954e-07
-7.07595e-08
3.36608e-07
-8.4388e-08
3.37277e-07
-9.79469e-08
-1.11509e-07
3.4973e-07
-7.17495e-08
3.50364e-07
-8.5365e-08
3.50993e-07
-9.8915e-08
-1.12463e-07
3.63481e-07
-7.27257e-08
3.64091e-07
-8.63064e-08
3.64681e-07
-9.98262e-08
-1.13339e-07
3.77182e-07
-7.36826e-08
3.77769e-07
-8.72103e-08
3.78321e-07
-1.00682e-07
-1.14141e-07
3.90816e-07
-7.46149e-08
3.91376e-07
-8.80745e-08
3.91891e-07
-1.01483e-07
-1.14874e-07
4.04366e-07
-7.55167e-08
4.04899e-07
-8.88969e-08
4.05377e-07
-1.02231e-07
-1.15542e-07
4.17821e-07
-7.63825e-08
4.18325e-07
-8.96754e-08
4.18768e-07
-1.02927e-07
-1.1615e-07
4.31173e-07
-7.72067e-08
4.31647e-07
-9.04081e-08
4.32056e-07
-1.03572e-07
-1.16704e-07
4.4442e-07
-7.7984e-08
4.44862e-07
-9.10929e-08
4.45238e-07
-1.04169e-07
-1.17207e-07
4.57561e-07
-7.87098e-08
4.5797e-07
-9.17282e-08
4.58313e-07
-1.04717e-07
-1.17664e-07
4.70599e-07
-7.93797e-08
4.70974e-07
-9.23122e-08
4.71285e-07
-1.05218e-07
-1.18079e-07
4.83541e-07
-7.99899e-08
4.8388e-07
-9.28437e-08
4.84161e-07
-1.05673e-07
-1.18455e-07
4.96396e-07
-8.05376e-08
4.96699e-07
-9.33213e-08
4.96949e-07
-1.06082e-07
-1.18793e-07
5.09175e-07
-8.10204e-08
5.09441e-07
-9.37443e-08
5.09661e-07
-1.06446e-07
-1.19097e-07
5.2189e-07
-8.1437e-08
5.22119e-07
-9.41121e-08
5.22309e-07
-1.06765e-07
-1.19367e-07
5.34555e-07
-8.17867e-08
5.34746e-07
-9.44243e-08
5.34906e-07
-1.07039e-07
-1.19602e-07
5.47183e-07
-8.207e-08
5.47336e-07
-9.46811e-08
5.47467e-07
-1.07268e-07
-1.19803e-07
5.59788e-07
-8.22873e-08
5.59904e-07
-9.48826e-08
5.60005e-07
-1.07451e-07
-1.19969e-07
5.72382e-07
-8.24413e-08
5.72462e-07
-9.50304e-08
5.72532e-07
-1.07588e-07
-1.20096e-07
5.84979e-07
-8.25289e-08
5.8502e-07
-9.51219e-08
5.85058e-07
-1.07676e-07
-1.20179e-07
5.9759e-07
5.97591e-07
5.97586e-07
)
;

boundaryField
{
    plateFix
    {
        type            calculated;
        value           nonuniform List<scalar> 4(6.99754e-10 -2.35277e-14 4.16481e-14 9.43479e-10);
    }
    plate
    {
        type            calculated;
        value           nonuniform List<scalar> 
168
(
1.54774e-10
2.29852e-10
2.74857e-10
3.9677e-10
3.81339e-10
5.54659e-10
4.68705e-10
7.0141e-10
5.36107e-10
8.42164e-10
5.83425e-10
9.84201e-10
6.09258e-10
1.13454e-09
6.11164e-10
1.30081e-09
5.85251e-10
1.49123e-09
5.26035e-10
1.7151e-09
4.26097e-10
1.98315e-09
2.75722e-10
2.30802e-09
6.24235e-11
2.70468e-09
-2.29609e-10
3.19107e-09
-6.20163e-10
3.78872e-09
-1.13377e-09
4.52357e-09
-1.8006e-09
5.42687e-09
-2.65752e-09
6.53638e-09
-3.7494e-09
7.89764e-09
-5.13064e-09
9.56563e-09
-6.86722e-09
1.16068e-08
-9.03929e-09
1.41015e-08
-1.2699e-08
1.84994e-08
-1.53051e-08
2.1072e-08
-1.80752e-08
2.3806e-08
-2.10112e-08
2.67029e-08
-2.41182e-08
2.97682e-08
-2.74048e-08
3.30104e-08
-3.08826e-08
3.64411e-08
-3.4566e-08
4.00745e-08
-3.84715e-08
4.39273e-08
-4.26176e-08
4.80182e-08
-4.70246e-08
5.23671e-08
-5.17136e-08
5.69954e-08
-5.67065e-08
6.1925e-08
-6.20255e-08
6.71781e-08
-6.76924e-08
7.27765e-08
-7.37281e-08
7.87412e-08
-8.01524e-08
8.50921e-08
-8.69831e-08
9.18468e-08
-9.42355e-08
9.9021e-08
-1.01922e-07
1.06627e-07
-1.10053e-07
1.14675e-07
-1.18634e-07
1.23171e-07
-1.27668e-07
1.32117e-07
-1.37152e-07
1.41511e-07
-1.47082e-07
1.51349e-07
-1.57448e-07
1.61622e-07
-1.68237e-07
1.72314e-07
-1.79432e-07
1.83411e-07
-1.91012e-07
1.94891e-07
-2.02954e-07
2.0673e-07
-2.15229e-07
2.189e-07
-2.27808e-07
2.31373e-07
-2.40659e-07
2.44115e-07
-2.53748e-07
2.57094e-07
-2.67039e-07
2.70273e-07
-2.80498e-07
2.83617e-07
-2.94088e-07
2.97092e-07
-3.07775e-07
3.10661e-07
-3.21526e-07
3.24293e-07
-3.35308e-07
3.37955e-07
-3.49094e-07
3.51618e-07
-3.62856e-07
3.65257e-07
-3.76573e-07
3.78849e-07
-3.90225e-07
3.92375e-07
-4.03796e-07
4.05819e-07
-4.17276e-07
4.19171e-07
-4.30657e-07
4.32422e-07
-4.43935e-07
4.4557e-07
-4.5711e-07
4.58613e-07
-4.70184e-07
4.71556e-07
-4.83165e-07
4.84404e-07
-4.9606e-07
4.97166e-07
-5.08881e-07
5.09852e-07
-5.21638e-07
5.22475e-07
-5.34346e-07
5.35048e-07
-5.47016e-07
5.47583e-07
-5.59663e-07
5.60095e-07
-5.72299e-07
5.72595e-07
-5.84937e-07
5.85093e-07
-5.97582e-07
-8.2567e-08
-9.51643e-08
-1.07717e-07
-1.20219e-07
5.97589e-07
)
;
    }
    frontAndBackPlanes
    {
        type            empty;
    }
}


// ************************************************************************* //
