/*--------------------------------*- C++ -*----------------------------------*\
| =========                 |                                                 |
| \\      /  F ield         | OpenFOAM Extend Project: Open source CFD        |
|  \\    /   O peration     | Version:  1.6-ext                               |
|   \\  /    A nd           | Web:      www.extend-project.de                 |
|    \\/     M anipulation  |                                                 |
\*---------------------------------------------------------------------------*/
FoamFile
{
    version     2.0;
    format      ascii;
    class       volSymmTensorField;
    location    "0.85";
    object      sigma;
}
// * * * * * * * * * * * * * * * * * * * * * * * * * * * * * * * * * * * * * //

dimensions      [1 -1 -2 0 0 0 0];

internalField   nonuniform List<symmTensor> 
328
(
(6.86781 0.629537 -6.67325e-22 2.67255 1.10845e-19 3.81396)
(1.96161 -0.389925 -1.0585e-24 0.98177 4.88139e-23 1.17621)
(-1.41522 -0.305302 8.74599e-23 -0.531766 -7.58677e-23 -0.779911)
(-6.45426 0.816361 9.62368e-23 -2.0859 -6.77789e-20 -3.41824)
(6.64125 0.410872 2.28293e-21 1.99594 -1.73486e-19 3.45268)
(1.94713 -0.150714 1.88945e-22 0.551365 -9.24587e-24 0.998174)
(-1.40448 -0.0808196 2.72422e-23 0.0411752 1.08916e-22 -0.546533)
(-6.16277 0.539516 1.34457e-21 -1.27195 -7.82632e-20 -2.97607)
(6.64544 0.264478 -3.08332e-21 1.6374 -1.25177e-20 3.31084)
(2.05063 0.0186788 -2.63014e-22 0.368178 1.42237e-22 0.966173)
(-1.55135 0.0719829 7.23201e-22 0.30976 1.58532e-22 -0.497989)
(-6.14885 0.343981 -5.13411e-21 -0.830834 1.46079e-19 -2.79417)
(6.57475 0.176891 1.66021e-21 1.40333 -1.30641e-20 3.18887)
(2.03648 0.126917 2.68943e-22 0.224496 -1.5262e-22 0.902904)
(-1.5487 0.162858 -6.36748e-22 0.532005 -7.97046e-22 -0.408176)
(-6.05646 0.220394 4.79491e-21 -0.538983 6.89181e-20 -2.64055)
(6.53584 0.129616 -6.15356e-22 1.28118 7.78345e-20 3.12439)
(2.03073 0.187687 6.62191e-22 0.158211 2.66435e-22 0.873971)
(-1.5558 0.208304 -2.89211e-22 0.652738 -4.12734e-22 -0.362845)
(-6.00855 0.148212 -7.21481e-22 -0.382378 -1.27997e-19 -2.55881)
(6.48396 0.106537 1.4496e-21 1.21471 -5.87158e-20 3.07702)
(1.9988 0.221703 -1.15593e-21 0.117224 -2.53937e-22 0.844714)
(-1.5265 0.229898 -7.96257e-22 0.735955 6.52528e-22 -0.317933)
(-5.95129 0.108176 -2.0096e-22 -0.294927 2.94051e-20 -2.50095)
(6.43239 0.0972863 -2.39798e-21 1.18325 8.28889e-20 3.04379)
(1.96744 0.238338 1.59239e-21 0.099234 2.53167e-22 0.824908)
(-1.49494 0.237439 -7.16946e-22 0.783029 -1.54389e-22 -0.286548)
(-5.89888 0.0877256 8.40533e-22 -0.252159 1.39756e-20 -2.4629)
(6.37439 0.0950541 4.34034e-21 1.16827 -2.77166e-20 3.0146)
(1.93267 0.245566 -5.11664e-21 0.0900901 -7.06048e-22 0.807301)
(-1.45612 0.238572 4.81949e-22 0.812221 -3.47688e-22 -0.259385)
(-5.842 0.0782118 -2.72947e-21 -0.231745 -5.31647e-20 -2.43199)
(6.31147 0.0960449 -3.93893e-21 1.16091 7.14286e-20 2.98649)
(1.89994 0.247507 3.37346e-21 0.086842 3.00054e-22 0.792889)
(-1.41769 0.236893 4.96086e-21 0.827995 -6.00408e-22 -0.237725)
(-5.78135 0.0745361 -2.74825e-21 -0.222724 9.07031e-20 -2.40411)
(6.24268 0.0981679 4.66005e-21 1.1557 -8.77865e-20 2.95691)
(1.86858 0.246927 2.9397e-21 0.0859442 -3.59124e-22 0.779981)
(-1.37942 0.234495 -1.9741e-21 0.836045 -4.26545e-22 -0.219201)
(-5.71481 0.0736127 8.64592e-21 -0.21813 -9.0102e-20 -2.37564)
(6.16819 0.100461 -5.35349e-21 1.1502 6.39154e-20 2.92493)
(1.83917 0.245239 -1.30511e-20 0.0865183 5.87056e-22 0.768448)
(-1.34267 0.232163 -2.20091e-22 0.838648 -7.77506e-22 -0.203458)
(-5.64195 0.0737836 -1.06588e-21 -0.2146 1.21126e-20 -2.34507)
(6.08785 0.10253 -6.15075e-21 1.14327 -9.04062e-20 2.89004)
(1.81109 0.243244 1.37847e-20 0.0879185 2.64838e-21 0.757784)
(-1.30711 0.230166 1.18601e-22 0.837696 2.12484e-21 -0.189609)
(-5.56212 0.0741705 -4.68409e-21 -0.210453 3.73285e-20 -2.31146)
(6.00159 0.104283 8.68265e-21 1.13458 6.776e-20 2.85208)
(1.78393 0.241296 -5.1988e-21 0.0900437 -2.00304e-21 0.747778)
(-1.27254 0.228465 -6.84977e-21 0.834154 8.20973e-22 -0.177184)
(-5.475 0.0743697 4.70361e-21 -0.205047 1.61222e-20 -2.27442)
(5.90924 0.105739 -5.0317e-21 1.1241 -8.49622e-22 2.81097)
(1.75712 0.239537 -1.31162e-20 0.0928257 2.66005e-22 0.738177)
(-1.23837 0.226942 4.71774e-21 0.82871 3.39398e-22 -0.165683)
(-5.3803 0.0742206 -5.32367e-21 -0.198212 -3.65904e-20 -2.23378)
(5.81057 0.106951 -8.41199e-21 1.11189 -3.31079e-21 2.76665)
(1.7302 0.237973 -6.03411e-21 0.096244 -3.3427e-22 0.728791)
(-1.20406 0.225465 -9.75341e-21 0.821758 7.80232e-22 -0.154726)
(-5.27779 0.0736917 2.35308e-20 -0.190007 8.37837e-21 -2.18947)
(5.70531 0.107964 2.27995e-20 1.09807 -7.91271e-21 2.71904)
(1.70279 0.236547 -1.75307e-21 0.100241 -2.67291e-21 0.719433)
(-1.16902 0.223923 -2.18484e-21 0.81355 6.11616e-22 -0.143982)
(-5.16726 0.0728101 -5.18575e-21 -0.180569 -2.25571e-20 -2.14145)
(5.59314 0.108805 -1.80649e-20 1.08267 -2.89022e-20 2.66805)
(1.67454 0.23517 7.84839e-21 0.104742 2.01078e-21 0.709946)
(-1.13274 0.222234 4.80762e-21 0.804219 3.27027e-21 -0.133191)
(-5.04846 0.0716256 8.12588e-21 -0.170058 3.04626e-20 -2.08969)
(5.47374 0.109483 4.5612e-20 1.06573 2.16257e-20 2.61354)
(1.64521 0.233744 -1.58656e-20 0.10965 -3.40918e-21 0.700185)
(-1.09477 0.220338 3.13684e-20 0.793822 4.21487e-21 -0.122148)
(-4.92113 0.0701929 -1.40876e-20 -0.158618 -5.53722e-20 -2.03415)
(5.34683 0.109993 -5.144e-20 1.04725 9.37476e-21 2.55542)
(1.61459 0.232173 -3.65511e-20 0.114872 -1.1881e-20 0.690039)
(-1.0547 0.218189 -2.04604e-21 0.782371 -1.06813e-20 -0.11069)
(-4.78502 0.0685606 -1.24338e-20 -0.146373 3.92319e-20 -1.97477)
(5.21201 0.110312 -4.9244e-20 1.02714 -1.64825e-20 2.49348)
(1.58251 0.230361 4.7382e-20 0.120295 2.87382e-21 0.679386)
(-1.01226 0.215742 7.33023e-21 0.769831 2.54506e-21 -0.0987147)
(-4.63984 0.066773 3.03144e-20 -0.133423 -1.4896e-20 -1.91148)
(5.06923 0.110436 6.20368e-20 1.00545 2.3968e-20 2.42773)
(1.54891 0.228241 -3.8352e-21 0.125866 1.11933e-20 0.668189)
(-0.967173 0.212962 1.95867e-21 0.756192 -1.39237e-20 -0.0861221)
(-4.48537 0.0648515 -3.49607e-20 -0.119822 3.52596e-20 -1.84421)
(4.91769 0.110226 5.98295e-20 0.981784 -8.49032e-21 2.35769)
(1.51356 0.225632 -4.02924e-20 0.13137 -5.6811e-22 0.656263)
(-0.919283 0.209721 -3.68196e-21 0.741355 4.95908e-21 -0.0728856)
(-4.32117 0.0627948 -4.36368e-21 -0.105617 4.10242e-21 -1.77281)
(4.75274 0.109378 -3.47971e-20 0.956147 -5.55658e-21 2.2815)
(1.47532 0.221523 4.7878e-20 0.137337 1.80131e-20 0.643371)
(-0.866548 0.20495 2.69338e-20 0.724673 -7.09782e-21 -0.0584473)
(-4.1415 0.0599603 5.3635e-20 -0.0905833 -2.45279e-20 -1.69488)
(4.57937 0.109389 -4.91304e-20 0.928452 -1.89962e-20 2.20111)
(1.43529 0.219267 -8.84555e-21 0.14302 1.13138e-20 0.629649)
(-0.810784 0.202062 3.99096e-20 0.70637 3.03126e-21 -0.043444)
(-3.95224 0.0580376 -1.35533e-19 -0.075708 5.38534e-20 -1.61318)
(4.40808 0.109222 -3.96729e-20 0.900515 9.9954e-21 2.12147)
(1.39613 0.216983 4.05869e-21 0.148202 1.56493e-20 0.616075)
(-0.75535 0.199254 4.74107e-20 0.688105 1.47598e-20 -0.028558)
(-3.76441 0.0562901 4.35434e-20 -0.0608512 -5.61376e-20 -1.53205)
(4.23918 0.108862 2.69262e-20 0.872289 -4.04615e-21 2.04266)
(1.35771 0.214481 2.55143e-20 0.15276 -1.08606e-20 0.602544)
(-0.700485 0.196295 -3.96543e-20 0.669571 -1.5002e-20 -0.0140068)
(-3.5789 0.0545359 -1.11291e-20 -0.0467103 2.04981e-20 -1.45215)
(4.07286 0.108294 9.43095e-20 0.844056 -2.04465e-20 1.96487)
(1.32009 0.21175 -9.57943e-20 0.156853 -3.19709e-20 0.58915)
(-0.646097 0.193194 1.87174e-20 0.650906 -4.95885e-21 0.000301165)
(-3.39561 0.0528249 -9.10102e-20 -0.033091 -1.00478e-20 -1.37334)
(3.90918 0.107559 -1.02883e-19 0.81572 8.11379e-21 1.88811)
(1.28322 0.208792 -3.59778e-20 0.16039 4.46154e-20 0.575836)
(-0.592331 0.189932 -7.03171e-20 0.632035 -1.76043e-20 0.0142775)
(-3.21488 0.0511257 3.57607e-20 -0.0201685 3.0235e-20 -1.29584)
(3.74837 0.106648 1.46221e-19 0.787389 3.96123e-20 1.81249)
(1.24718 0.205608 8.56429e-20 0.16342 -3.69089e-20 0.562647)
(-0.539205 0.186513 6.90522e-20 0.613027 5.80651e-20 0.0279427)
(-3.03683 0.0494498 1.06165e-19 -0.00787556 -7.2577e-20 -1.21966)
(3.59052 0.105574 -7.85342e-20 0.759043 -4.68436e-20 1.73805)
(1.21194 0.202202 3.14119e-21 0.165906 -2.85543e-20 0.549564)
(-0.486815 0.182934 -1.26928e-19 0.593866 7.5127e-20 0.0412524)
(-2.86169 0.0477826 -7.00817e-20 0.00372325 -4.05216e-20 -1.14493)
(3.43579 0.104337 -6.32991e-20 0.730735 2.29131e-21 1.66487)
(1.17755 0.198574 -1.42542e-20 0.16786 4.36526e-20 0.536607)
(-0.435211 0.179194 1.85418e-20 0.574585 -4.16143e-20 0.0541997)
(-2.68962 0.0461252 3.83993e-20 0.0146371 7.73632e-20 -1.0717)
(3.28433 0.102943 -6.72727e-20 0.702476 -4.72094e-21 1.59301)
(1.14402 0.194728 -5.90094e-20 0.169269 -2.65889e-20 0.523775)
(-0.384468 0.175292 -7.31676e-20 0.555189 -6.79478e-20 0.066756)
(-2.52083 0.0444715 9.91006e-20 0.0248351 4.42118e-20 -1.00007)
(3.13627 0.101393 -1.98576e-19 0.674302 -4.97783e-21 1.52255)
(1.11137 0.190666 2.96697e-19 0.170132 6.17965e-20 0.511077)
(-0.334649 0.171229 -5.04773e-20 0.535699 -1.44726e-19 0.078905)
(-2.35549 0.0428208 -7.3729e-20 0.034309 3.3961e-20 -0.930105)
(2.99174 0.0996908 4.6749e-20 0.646237 -4.94107e-20 1.45354)
(1.07962 0.186391 -5.28548e-20 0.170446 4.75393e-20 0.498517)
(-0.285825 0.167006 2.40704e-19 0.516128 4.46644e-20 0.0906237)
(-2.19379 0.0411709 -1.26441e-19 0.0430401 1.58932e-20 -0.8619)
(2.85087 0.0978379 -6.00439e-20 0.618312 -8.83008e-21 1.38606)
(1.04877 0.181907 8.63759e-20 0.170211 1.46759e-19 0.4861)
(-0.238062 0.162626 1.1581e-19 0.496496 -1.04519e-19 0.101893)
(-2.03591 0.0395221 -9.57396e-20 0.0510175 4.45663e-20 -0.795527)
(2.7138 0.0958376 1.99224e-19 0.590557 1.22272e-20 1.32015)
(1.01884 0.17722 -1.72166e-20 0.169427 8.6609e-20 0.473832)
(-0.19143 0.158093 -3.81868e-20 0.476819 -5.6676e-20 0.112692)
(-1.88204 0.0378747 2.56426e-20 0.058229 -1.37585e-19 -0.731063)
(2.58062 0.0936926 -1.17482e-19 0.563004 1.31202e-19 1.25589)
(0.989844 0.172336 -3.10699e-20 0.168097 7.61449e-20 0.461717)
(-0.146 0.153412 1.06357e-20 0.457119 -1.06076e-19 0.123001)
(-1.73234 0.0362307 -1.63408e-20 0.0646667 -1.18342e-20 -0.668583)
(2.45146 0.0914062 -1.87075e-20 0.535686 3.06833e-21 1.19333)
(0.961776 0.167263 1.55806e-19 0.166228 -1.29585e-19 0.449759)
(-0.10184 0.148591 -2.24308e-19 0.437417 2.05292e-19 0.132801)
(-1.58701 0.0345925 1.41235e-19 0.0703242 -1.29894e-19 -0.608158)
(2.32641 0.088982 1.72383e-20 0.508638 -9.06091e-20 1.13251)
(0.93464 0.16201 5.79436e-21 0.163827 -1.76469e-19 0.437961)
(-0.0590208 0.143637 -1.12736e-19 0.417737 -1.09881e-19 0.142074)
(-1.4462 0.0329637 -3.85601e-20 0.0751991 1.97729e-19 -0.549857)
(2.20556 0.0864239 3.00753e-19 0.481898 1.71049e-19 1.0735)
(0.908432 0.156587 -1.17746e-19 0.160907 3.38194e-19 0.426327)
(-0.0176128 0.138561 1.50638e-19 0.398106 1.60971e-19 0.150801)
(-1.31007 0.0313485 -2.54711e-19 0.079292 -1.22526e-19 -0.493745)
(2.08899 0.0837366 -7.53951e-20 0.455502 9.94747e-20 1.01634)
(0.883144 0.151006 9.05788e-20 0.157482 -1.48645e-19 0.414859)
(0.0223148 0.133375 1.89408e-20 0.378549 1.8994e-19 0.158967)
(-1.17879 0.0297521 -1.5055e-19 0.0826075 3.59008e-20 -0.439883)
(1.97676 0.0809253 -2.19005e-19 0.42949 -2.27934e-19 0.961069)
(0.858763 0.145281 5.856e-20 0.153571 1.08548e-19 0.403559)
(0.0606932 0.128091 5.28898e-20 0.359098 -3.0143e-19 0.166555)
(-1.0525 0.0281801 2.24756e-19 0.0851541 7.06873e-20 -0.388324)
(1.86892 0.0779959 2.63247e-19 0.403904 5.18174e-20 0.907725)
(0.83527 0.139427 -3.17376e-19 0.149194 3.53631e-20 0.392429)
(0.097455 0.122725 3.78762e-19 0.339785 -1.17221e-19 0.173551)
(-0.931337 0.026639 -1.63217e-19 0.0869448 7.56922e-20 -0.33912)
(1.76552 0.0749551 2.04433e-19 0.378784 -1.23685e-19 0.85634)
(0.812645 0.13346 -2.96297e-19 0.144377 3.46508e-20 0.381469)
(0.132535 0.117291 5.17734e-20 0.320642 4.48575e-19 0.179944)
(-0.815428 0.0251356 -2.44456e-20 0.0879971 9.08347e-20 -0.292314)
(1.66658 0.07181 3.78513e-19 0.354174 -4.6189e-20 0.806941)
(0.790857 0.127398 -1.77028e-19 0.139149 -1.22788e-19 0.370681)
(0.165869 0.111809 -4.01281e-20 0.301706 -3.71109e-19 0.18572)
(-0.704887 0.023677 -1.36179e-19 0.088333 -2.25028e-19 -0.247941)
(1.5721 0.0685687 8.12834e-20 0.330118 1.22699e-19 0.759548)
(0.769876 0.121259 -4.20148e-20 0.133542 2.25044e-19 0.360064)
(0.197398 0.106295 -3.24146e-19 0.283014 3.62385e-19 0.190872)
(-0.599812 0.0222707 -2.02863e-19 0.0879792 -4.75744e-20 -0.206032)
(1.48206 0.06524 6.36467e-19 0.306657 -9.71039e-21 0.714173)
(0.749664 0.115064 -1.43482e-19 0.12759 4.30081e-19 0.349616)
(0.227064 0.100768 1.48412e-19 0.264605 -2.77223e-19 0.195393)
(-0.50029 0.0209241 4.2771e-19 0.0869673 1.62824e-19 -0.166608)
(1.39646 0.061833 -1.09869e-19 0.283836 -5.73759e-20 0.670824)
(0.730178 0.108831 -1.8846e-19 0.121333 -5.02242e-19 0.339337)
(0.254814 0.095249 -8.40629e-20 0.246519 -8.03832e-20 0.199276)
(-0.406389 0.0196446 -1.5547e-19 0.0853332 8.77763e-20 -0.129681)
(1.31524 0.0583578 1.37883e-19 0.261696 -4.80767e-20 0.629501)
(0.711372 0.102584 -1.29695e-20 0.114811 -1.30293e-19 0.329223)
(0.280599 0.089757 7.04712e-20 0.228797 -2.56716e-19 0.202518)
(-0.318161 0.0184393 -4.37401e-19 0.0831171 1.10628e-19 -0.0952571)
(1.23834 0.0548248 1.23677e-19 0.240281 7.53597e-21 0.590195)
(0.693195 0.0963425 -8.37798e-20 0.108067 5.31044e-19 0.319273)
(0.304376 0.0843124 8.33433e-20 0.211481 -4.84346e-20 0.20512)
(-0.235641 0.0173152 2.83203e-20 0.0803634 1.01068e-19 -0.0633317)
(1.16568 0.051245 -2.35944e-19 0.219629 -1.52908e-19 0.552893)
(0.675594 0.0901293 6.47521e-19 0.101147 -4.05733e-20 0.309482)
(0.326106 0.0789355 -4.18562e-19 0.194612 2.81794e-19 0.207082)
(-0.158845 0.0162786 1.47089e-19 0.0771199 -2.60294e-19 -0.0338921)
(1.09718 0.0476297 -2.73933e-19 0.199779 -6.95679e-20 0.517572)
(0.658509 0.083966 -3.03843e-19 0.0940984 -8.98689e-19 0.299847)
(0.345757 0.0736462 7.29846e-20 0.178232 -1.18948e-19 0.208407)
(-0.0877691 0.0153355 2.057e-19 0.0734378 1.21754e-20 -0.00691669)
(1.03272 0.0439907 4.59905e-19 0.180767 1.59806e-19 0.484204)
(0.641881 0.0778744 -2.6342e-19 0.0869686 3.92637e-19 0.290361)
(0.363302 0.0684643 1.78667e-19 0.162382 2.56785e-19 0.209102)
(-0.0223924 0.014491 5.58022e-19 0.0693711 -3.38304e-19 0.0176248)
(0.972184 0.0403399 -3.02321e-20 0.162626 -7.88221e-20 0.452751)
(0.625647 0.0718758 1.6504e-19 0.0798067 3.10508e-19 0.281019)
(0.378723 0.0634087 -1.44539e-19 0.1471 9.61801e-20 0.209174)
(0.0373269 0.0137499 -6.78493e-19 0.0649759 1.49008e-19 0.0397715)
(0.915429 0.0366893 3.00913e-21 0.145385 -1.13894e-19 0.423171)
(0.60974 0.0659913 1.07626e-19 0.0726617 3.98417e-19 0.271816)
(0.392006 0.058498 3.06705e-19 0.132425 -8.60142e-20 0.208634)
(0.0914496 0.0131161 1.58827e-19 0.0603102 2.70795e-20 0.0595709)
(0.862302 0.0330509 -2.16196e-19 0.129071 3.08447e-20 0.395413)
(0.594094 0.0602412 4.18512e-21 0.0655822 -4.74924e-19 0.262742)
(0.403146 0.0537497 -7.87119e-19 0.118392 3.16543e-19 0.207493)
(0.140056 0.0125928 3.12934e-19 0.0554327 6.9876e-20 0.0770789)
(0.81264 0.0294369 1.11598e-20 0.113707 -7.12213e-19 0.36942)
(0.578642 0.0546452 -3.83468e-19 0.0586163 5.46747e-19 0.253791)
(0.412145 0.0491807 5.73553e-19 0.105035 -7.77494e-19 0.205765)
(0.183247 0.0121825 3.91043e-21 0.0504032 -9.78821e-20 0.0923592)
(0.766265 0.0258589 -4.47699e-19 0.0993097 1.36359e-19 0.345128)
(0.563314 0.0492223 4.13939e-19 0.0518107 1.73433e-19 0.244954)
(0.419012 0.0448068 -5.78873e-19 0.092383 3.80251e-19 0.203467)
(0.22114 0.0118872 -2.07786e-19 0.0452811 1.4162e-19 0.105483)
(0.722988 0.0223286 1.85245e-19 0.0858931 -9.20987e-20 0.322467)
(0.548041 0.0439905 1.16061e-19 0.0452106 -4.93408e-20 0.23622)
(0.423766 0.040643 1.70748e-19 0.0804637 -1.82888e-20 0.200616)
(0.253874 0.0117082 6.48636e-19 0.0401255 -3.80401e-19 0.11653)
(0.68261 0.0188573 -1.97232e-19 0.073466 6.20641e-20 0.301361)
(0.532755 0.0389672 -3.40577e-19 0.0388593 1.40834e-19 0.227581)
(0.42643 0.0367037 4.96746e-20 0.0693002 -2.30632e-19 0.197231)
(0.281604 0.0116464 -3.03963e-19 0.0349944 7.29612e-20 0.125584)
(0.644922 0.0154559 -5.65752e-20 0.0620324 -1.98438e-20 0.281729)
(0.517387 0.034169 1.08821e-19 0.0327981 -2.65587e-19 0.219025)
(0.427038 0.0330022 4.86042e-19 0.058912 5.07185e-20 0.193334)
(0.304503 0.0117024 -2.56855e-19 0.0299447 1.72495e-19 0.132738)
(0.609707 0.0121352 -1.97882e-19 0.0515915 1.9131e-19 0.263482)
(0.50187 0.029612 2.60548e-19 0.0270657 -3.165e-19 0.21054)
(0.425628 0.0295517 -4.163e-19 0.0493145 -2.46794e-19 0.188946)
(0.322763 0.0118764 -1.41938e-19 0.0250313 -6.8197e-20 0.138091)
(0.57674 0.00890524 -3.78832e-19 0.0421377 1.28913e-19 0.246529)
(0.486135 0.0253118 -3.04333e-19 0.0216987 -1.92394e-19 0.202114)
(0.42225 0.026365 7.82968e-20 0.040519 4.11851e-19 0.18409)
(0.336589 0.0121691 6.21618e-20 0.0203072 -6.75527e-20 0.141746)
(0.545785 0.00577604 1.06067e-20 0.0336607 7.7039e-20 0.230771)
(0.470117 0.0212838 3.71896e-19 0.0167309 -2.72864e-19 0.193734)
(0.416956 0.0234547 9.11644e-19 0.0325328 9.4779e-20 0.178793)
(0.346206 0.0125809 -8.15898e-20 0.0158236 3.32535e-19 0.143813)
(0.516603 0.00275702 -6.89896e-20 0.0261457 -2.96115e-19 0.216107)
(0.453752 0.0175431 -2.88975e-19 0.0121939 8.53911e-19 0.185387)
(0.40981 0.0208335 -2.25547e-19 0.0253587 -3.86032e-19 0.173079)
(0.351851 0.0131128 1.54375e-19 0.0116292 -5.62628e-19 0.144407)
(0.488947 -0.000142927 -2.58202e-19 0.0195731 1.47236e-19 0.20243)
(0.436975 0.0141042 3.34332e-20 0.00811673 -4.18532e-19 0.17706)
(0.400878 0.0185139 -2.37045e-19 0.018996 1.66114e-19 0.166975)
(0.353778 0.0137662 -2.04139e-19 0.00777075 9.71996e-20 0.143648)
(0.462562 -0.00291578 -2.77294e-19 0.0139198 3.09702e-19 0.189629)
(0.419724 0.0109807 6.81559e-20 0.00452638 1.01434e-19 0.168737)
(0.390234 0.0165076 3.44647e-19 0.0134401 -5.32219e-19 0.160508)
(0.352251 0.0145427 6.63678e-19 0.00429302 -1.39413e-19 0.14166)
(0.437194 -0.00555478 2.13656e-19 0.00915836 -3.88342e-19 0.177591)
(0.401938 0.00818387 -2.36378e-19 0.00144759 -1.08402e-18 0.160405)
(0.377958 0.0148248 -2.93694e-19 0.00868314 1.55434e-18 0.153709)
(0.347548 0.015444 -4.12634e-19 0.00123892 -1.24641e-19 0.13857)
(0.412583 -0.00805526 -2.39575e-19 0.00525895 4.23959e-19 0.166201)
(0.383561 0.00572165 2.49046e-19 -0.0010965 -3.98077e-19 0.15205)
(0.364131 0.0134727 8.59547e-19 0.00471481 -4.70196e-19 0.146604)
(0.339952 0.0164717 -2.62598e-19 -0.00135014 -7.0654e-20 0.134509)
(0.388474 -0.0104156 -2.97232e-19 0.00218876 -6.29156e-19 0.155343)
(0.364536 0.00359584 -1.90829e-19 -0.0030848 4.92206e-19 0.143658)
(0.34884 0.0124534 -3.6929e-19 0.00152318 -3.75433e-19 0.139224)
(0.329751 0.0176261 9.65174e-20 -0.00343433 -1.33215e-19 0.129608)
(0.36462 -0.0126389 -1.92679e-19 -8.49605e-05 2.96378e-20 0.144905)
(0.344812 0.00179916 6.73317e-19 -0.00449669 1.00041e-18 0.135217)
(0.332167 0.0117614 -3.63699e-19 -0.00090354 -2.19758e-19 0.131597)
(0.31723 0.018906 2.25562e-20 -0.00497436 4.42124e-19 0.123996)
(0.340789 -0.0147348 -7.68487e-19 -0.00159536 1.25108e-19 0.134781)
(0.324342 0.000311294 -8.0892e-20 -0.00531328 -8.49732e-21 0.126714)
(0.314194 0.0113811 6.5355e-19 -0.00257608 1.0641e-19 0.123751)
(0.302664 0.0203076 -7.15635e-19 -0.00593236 4.28091e-19 0.117799)
(0.31678 -0.016723 1.60678e-20 -0.00236899 3.42775e-19 0.12488)
(0.303083 -0.000906495 1.2202e-19 -0.0055107 4.30274e-20 0.118144)
(0.294995 0.0112856 5.77397e-20 -0.00349657 -2.23904e-20 0.115715)
(0.286313 0.0218253 -2.17461e-19 -0.0062677 -3.79936e-19 0.111136)
(0.292422 -0.0186372 5.04653e-19 -0.0024267 -6.46208e-19 0.115125)
(0.280982 -0.00191743 -5.31503e-19 -0.00506612 3.99803e-19 0.109493)
(0.274612 0.0114366 7.05931e-19 -0.0036625 -1.2132e-18 0.107506)
(0.268404 0.0234531 1.89116e-19 -0.00593968 6.70017e-19 0.104114)
(0.267637 -0.0205359 6.88732e-20 -0.00175869 -1.4422e-19 0.105489)
(0.258002 -0.00282167 -9.88132e-20 -0.00392063 6.69556e-19 0.10077)
(0.253087 0.0117956 -3.1624e-19 -0.00302822 1.07132e-18 0.0991608)
(0.249168 0.0251947 -3.07845e-19 -0.00488614 -1.95371e-19 0.0968517)
(0.242387 -0.022513 -3.65414e-19 -0.000332876 5.43807e-19 0.0959698)
(0.233962 -0.00376623 2.78546e-19 -0.0020287 5.65875e-19 0.0919205)
(0.230286 0.0123372 -8.14403e-20 -0.00155452 -1.38835e-18 0.0906398)
(0.228772 0.0270745 2.30492e-19 -0.00303406 -6.72025e-19 0.089444)
(0.216983 -0.0247462 5.048e-19 0.0020305 -5.08493e-19 0.086763)
(0.208808 -0.00498639 -3.75949e-19 0.000853822 9.82632e-19 0.0830211)
(0.206181 0.0131039 -2.94901e-19 0.00100629 -4.32153e-19 0.0820315)
(0.207624 0.0291956 -4.32852e-20 -0.00017791 6.74964e-19 0.0821365)
(0.191589 -0.0274774 1.25273e-20 0.00555436 2.33388e-19 0.0780234)
(0.181502 -0.0067668 -1.65933e-21 0.00467672 8.04105e-19 0.0736364)
(0.179726 0.0141904 7.84608e-19 0.0046117 -5.38817e-19 0.0729001)
(0.185869 0.0317227 -3.24937e-19 0.00392198 -1.22207e-19 0.0750827)
(0.168125 -0.0311213 -2.57092e-19 0.0111019 5.49556e-20 0.0708648)
(0.152487 -0.00946033 8.13003e-19 0.0101968 -1.59302e-18 0.0642462)
(0.151364 0.0157944 -6.41791e-21 0.0100411 1.47885e-18 0.0637347)
(0.165363 0.0350297 7.37943e-20 0.0101298 7.469e-20 0.069371)
(0.145424 -0.0351316 2.56481e-19 0.0183272 6.64703e-20 0.0646813)
(0.116615 -0.0125387 1.28023e-19 0.0138512 -3.17414e-19 0.0513655)
(0.115872 0.0173134 -2.17032e-19 0.0137454 -3.09511e-19 0.0510261)
(0.14472 0.0385197 -1.02054e-19 0.0180945 4.77638e-19 0.0643065)
(0.131142 -0.0369488 5.18788e-19 0.0248277 1.64929e-19 0.0615745)
(0.0854609 -0.0141876 -1.05594e-19 0.0119188 2.3033e-19 0.0381362)
(0.0850115 0.0171025 -5.282e-19 0.012022 5.45602e-19 0.0379977)
(0.131824 0.0397534 -5.77072e-19 0.0252658 -7.35443e-19 0.0620229)
(0.0959624 -0.0257448 -2.57976e-20 -0.00326824 3.31968e-19 0.0362672)
(0.0391975 -0.00983414 2.16849e-19 -0.0436681 1.30694e-18 -0.00260223)
(0.0388704 0.0117516 -2.33459e-19 -0.0436572 -1.52932e-19 -0.0027287)
(0.0969561 0.0279331 2.32449e-19 -0.00283131 3.19984e-20 0.0368394)
)
;

boundaryField
{
    plateFix
    {
        type            calculated;
        value           nonuniform List<symmTensor> 4((6.81881 0.776042 -1.42507e-21 2.64043 1.10577e-19 3.78134) (1.79294 -0.61066 -1.05946e-24 0.869365 4.88019e-23 1.06374) (-1.20074 -0.522477 8.74653e-23 -0.38874 -7.58631e-23 -0.636944) (-6.41514 1.01715 -1.0842e-21 -2.05921 -6.72971e-20 -3.39211));
    }
    plate
    {
        type            calculated;
        value           nonuniform List<symmTensor> 
168
(
(5.38991 0.00139179 -3.92466e-22 0.465537 6.78923e-20 2.33999)
(-4.76113 -0.00187384 -1.48188e-22 0.467639 7.11919e-20 -1.71959)
(5.6175 0.00143478 1.65153e-21 0.466293 -4.0834e-20 2.43125)
(-5.00821 -0.00181753 1.58438e-21 0.46837 -8.605e-20 -1.81822)
(5.86286 0.00186361 -3.45462e-21 0.467151 3.85714e-20 2.52964)
(-5.28558 -0.00214242 -5.47969e-21 0.469208 4.30055e-20 -1.92895)
(5.94987 0.00263766 1.65972e-21 0.467961 -7.5226e-20 2.56472)
(-5.38564 -0.00282228 4.76677e-21 0.470006 3.74274e-20 -1.96869)
(5.99349 0.0037384 -6.38935e-22 0.468639 3.31721e-20 2.58242)
(-5.44076 -0.00385795 -7.469e-22 0.470679 -3.57024e-20 -1.9905)
(5.98663 0.00505613 1.42751e-21 0.469114 1.5786e-21 2.57985)
(-5.44092 -0.00512852 -1.92244e-22 0.471158 -1.21427e-21 -1.99039)
(5.9564 0.00652288 -2.35498e-21 0.469349 -3.33274e-20 2.56785)
(-5.41656 -0.00656356 8.44092e-22 0.471407 5.05847e-21 -1.98054)
(5.90849 0.00807323 4.32632e-21 0.469331 -2.51099e-21 2.54869)
(-5.37314 -0.00809305 -2.75025e-21 0.471412 1.49874e-22 -1.96317)
(5.85035 0.0096634 -3.91701e-21 0.469058 2.66478e-20 2.52533)
(-5.31859 -0.00967061 -2.70873e-21 0.471172 -1.4078e-21 -1.94143)
(5.7847 0.0112619 4.60265e-21 0.468534 6.22962e-21 2.49887)
(-5.25541 -0.0112624 8.60653e-21 0.470689 -2.72517e-20 -1.91634)
(5.71337 0.0128497 -5.30726e-21 0.467762 -1.90229e-21 2.47005)
(-5.18538 -0.0128472 -1.04689e-21 0.469968 -2.94154e-21 -1.8886)
(5.63697 0.0144158 -6.21128e-21 0.466742 -1.87977e-20 2.4391)
(-5.10894 -0.0144126 -4.67597e-21 0.46901 2.50253e-20 -1.85839)
(5.55566 0.0159559 8.72444e-21 0.46547 1.88953e-20 2.40609)
(-5.02622 -0.0159526 4.70774e-21 0.467812 3.88431e-21 -1.82576)
(5.46928 0.0174689 -5.04101e-21 0.463932 4.01152e-21 2.37094)
(-4.93703 -0.0174649 -5.36534e-21 0.466364 3.87054e-21 -1.79064)
(5.37755 0.0189555 -8.43568e-21 0.462109 1.69591e-20 2.33354)
(-4.84112 -0.0189489 2.35469e-20 0.464647 -7.18412e-21 -1.75294)
(5.2801 0.0204158 2.2801e-20 0.459971 -1.17118e-20 2.29374)
(-4.73818 -0.0204041 -5.21265e-21 0.462636 3.69042e-21 -1.71254)
(5.17657 0.0218481 -1.81009e-20 0.457481 5.49403e-21 2.25135)
(-4.62791 -0.021828 8.16072e-21 0.460298 1.0282e-20 -1.66933)
(5.06657 0.0232468 4.56475e-20 0.454595 6.61219e-23 2.20623)
(-4.50998 -0.0232146 -1.4164e-20 0.457591 -6.52474e-22 -1.62321)
(4.94979 0.0246043 -5.14414e-20 0.451266 -8.10718e-23 2.15822)
(-4.38406 -0.0245561 -1.23555e-20 0.454475 -8.73622e-21 -1.57405)
(4.82585 0.0259003 -4.92703e-20 0.447426 -3.73404e-21 2.10715)
(-4.24985 -0.0258325 3.03239e-20 0.450886 -1.03821e-20 -1.52176)
(4.69467 0.0271337 6.20582e-20 0.443074 1.25866e-20 2.05297)
(-4.10711 -0.0270427 -3.49046e-20 0.446829 -4.02704e-21 -1.46625)
(4.55556 0.0282245 5.98203e-20 0.438001 3.38335e-21 1.99533)
(-3.95549 -0.0281112 -4.37963e-21 0.442101 5.39263e-21 -1.40745)
(4.40404 0.0294267 -3.47746e-20 0.432465 -9.80943e-21 1.93256)
(-3.78922 -0.0292766 5.35876e-20 0.436956 -8.21458e-21 -1.34295)
(4.24461 0.0306232 -4.91675e-20 0.425622 -2.02455e-22 1.86609)
(-3.61406 -0.0304188 -1.35456e-19 0.430606 1.90402e-20 -1.27538)
(4.08739 0.0315998 -3.96768e-20 0.418724 -5.23373e-23 1.80048)
(-3.44034 -0.0313452 4.341e-20 0.424215 1.56995e-22 -1.2084)
(3.93236 0.0324753 2.68692e-20 0.411267 1.76336e-20 1.73553)
(-3.26881 -0.0321652 -1.1074e-20 0.417311 3.0779e-22 -1.14251)
(3.77975 0.0332045 9.41752e-20 0.40357 2.44122e-20 1.67145)
(-3.09931 -0.032839 -9.10499e-20 0.41019 -5.3677e-22 -1.07751)
(3.62958 0.0338347 -1.02896e-19 0.395451 -2.73806e-22 1.60817)
(-2.93217 -0.0334123 3.59098e-20 0.402679 -1.84124e-20 -1.01361)
(3.48206 0.0343492 1.4634e-19 0.387023 -6.9991e-21 1.54583)
(-2.76748 -0.033871 1.05916e-19 0.39488 8.05207e-21 -0.950817)
(3.33726 0.034766 -7.8685e-20 0.378232 -5.57867e-22 1.48442)
(-2.60547 -0.0342334 -7.00833e-20 0.386738 -3.21803e-20 -0.889232)
(3.19534 0.0350811 -6.32287e-20 0.369117 -1.7043e-20 1.42405)
(-2.44629 -0.0344969 3.8572e-20 0.378286 1.12973e-20 -0.828904)
(3.05643 0.0353011 -6.72518e-20 0.359667 -1.31075e-22 1.36473)
(-2.29013 -0.0346689 9.93312e-20 0.369508 -2.1715e-20 -0.769914)
(2.92064 0.0354258 -1.98673e-19 0.3499 1.53508e-20 1.30655)
(-2.13715 -0.0347497 -7.36612e-20 0.360416 3.27464e-21 -0.712325)
(2.78811 0.0354574 4.65099e-20 0.339821 3.15169e-21 1.24953)
(-1.98753 -0.0347424 -1.26398e-19 0.351008 -7.43081e-22 -0.656208)
(2.65894 0.0353959 -5.99952e-20 0.329442 -1.79632e-20 1.19374)
(-1.84143 -0.0346476 -9.55575e-20 0.34129 -1.56365e-20 -0.601628)
(2.53325 0.0352419 1.99282e-19 0.318776 4.0024e-21 1.13923)
(-1.69904 -0.0344662 2.50976e-20 0.331269 1.49412e-20 -0.548651)
(2.41115 0.034995 -1.16958e-19 0.307837 -2.39855e-22 1.08604)
(-1.56052 -0.0341981 -1.64217e-20 0.320951 1.02776e-20 -0.49734)
(2.29273 0.0346549 -1.86904e-20 0.296643 2.28185e-22 1.03422)
(-1.42603 -0.033843 1.40735e-19 0.310347 3.75209e-21 -0.447758)
(2.17808 0.034221 1.69083e-20 0.285214 2.4754e-22 0.983814)
(-1.29573 -0.0334003 -3.77767e-20 0.299468 -3.52978e-21 -0.399962)
(2.06728 0.0336927 3.01409e-19 0.273571 1.55129e-21 0.934863)
(-1.16977 -0.032869 -2.55182e-19 0.28833 2.05914e-21 -0.354008)
(1.9604 0.0330693 -7.49624e-20 0.26174 -8.55948e-21 0.887404)
(-1.0483 -0.0322481 -1.50378e-19 0.27695 -6.21796e-21 -0.309948)
(1.8575 0.0323503 -2.19998e-19 0.249747 4.26763e-21 0.841471)
(-0.931456 -0.0315364 2.24968e-19 0.265349 1.06884e-20 -0.267828)
(1.75862 0.0315352 2.63472e-19 0.237623 1.43117e-21 0.797094)
(-0.819374 -0.0307328 -1.62909e-19 0.253551 -7.9094e-22 -0.227692)
(1.6638 0.0306239 2.03854e-19 0.225401 9.97518e-22 0.754299)
(-0.71217 -0.0298363 -2.40843e-20 0.241581 1.55858e-22 -0.189576)
(1.57305 0.0296167 3.78297e-19 0.213116 3.95276e-21 0.713108)
(-0.609952 -0.0288462 -1.37158e-19 0.22947 6.52386e-21 -0.153512)
(1.48637 0.0285141 8.17684e-20 0.200804 2.24478e-21 0.673535)
(-0.512817 -0.0277621 -2.03066e-19 0.217251 -3.06958e-21 -0.119525)
(1.40376 0.0273173 6.36428e-19 0.188506 9.85835e-22 0.635593)
(-0.420846 -0.026584 4.28393e-19 0.20496 2.05977e-21 -0.0876324)
(1.32518 0.0260278 -1.10165e-19 0.176261 6.67513e-21 0.599285)
(-0.334105 -0.0253123 -1.55093e-19 0.192635 1.3465e-21 -0.0578462)
(1.25059 0.0246477 1.37694e-19 0.164114 -1.01208e-21 0.564613)
(-0.252646 -0.023948 -4.36882e-19 0.180317 -3.931e-21 -0.0301703)
(1.17994 0.0231797 1.23709e-19 0.152105 -9.37947e-22 0.531569)
(-0.176504 -0.0224928 2.88008e-20 0.16805 2.46982e-21 -0.00460147)
(1.11314 0.0216271 -2.36679e-19 0.14028 -3.92899e-21 0.500141)
(-0.105697 -0.020949 1.45927e-19 0.155879 -8.69955e-22 0.0188712)
(1.05012 0.0199938 -2.74229e-19 0.128683 3.11606e-21 0.470312)
(-0.0402254 -0.0193195 2.05732e-19 0.143849 2.45436e-21 0.040266)
(0.99076 0.018284 4.60591e-19 0.117355 6.65426e-22 0.442056)
(0.0199291 -0.0176079 5.56499e-19 0.132008 2.52399e-21 0.0596088)
(0.93495 0.0165027 -3.05944e-20 0.10634 -2.41576e-23 0.415345)
(0.0748017 -0.0158185 -6.77772e-19 0.120402 -2.6061e-21 0.0769326)
(0.882558 0.0146551 2.44754e-21 0.0956798 5.76034e-21 0.390143)
(0.124446 -0.0139561 1.58948e-19 0.109079 7.27919e-22 0.0922779)
(0.833441 0.012747 -2.16084e-19 0.0854124 -1.91435e-21 0.366407)
(0.168936 -0.012026 3.13288e-19 0.0980841 1.48369e-21 0.105692)
(0.787442 0.0107844 7.90182e-21 0.0755755 -3.24569e-23 0.34409)
(0.208359 -0.0100342 3.45e-21 0.0874631 -1.86992e-24 0.117229)
(0.744397 0.00877346 -4.47035e-19 0.0662037 -2.1027e-21 0.32314)
(0.242825 -0.00798701 -2.07143e-19 0.0772584 -1.35117e-21 0.126949)
(0.704129 0.00672058 1.84836e-19 0.0573287 7.86571e-22 0.303499)
(0.27246 -0.0058909 6.46916e-19 0.0675109 3.92636e-21 0.134919)
(0.666451 0.0046321 -1.96958e-19 0.0489792 -1.22468e-21 0.285105)
(0.297405 -0.00375266 -3.03606e-19 0.0582586 -2.44684e-21 0.141211)