/*--------------------------------*- C++ -*----------------------------------*\
| =========                 |                                                 |
| \\      /  F ield         | OpenFOAM Extend Project: Open source CFD        |
|  \\    /   O peration     | Version:  1.6-ext                               |
|   \\  /    A nd           | Web:      www.extend-project.de                 |
|    \\/     M anipulation  |                                                 |
\*---------------------------------------------------------------------------*/
FoamFile
{
    version     2.0;
    format      ascii;
    class       volScalarField;
    location    "0.85";
    object      sigmaEq;
}
// * * * * * * * * * * * * * * * * * * * * * * * * * * * * * * * * * * * * * //

dimensions      [1 -1 -2 0 0 0 0];

internalField   nonuniform List<scalar> 
328
(
3.91197
1.12406
0.94998
4.12758
4.17618
1.26187
1.267
4.40032
4.4396
1.47757
1.62125
4.69573
4.55981
1.60081
1.82664
4.83834
4.62318
1.66854
1.9484
4.92053
4.63187
1.68766
2.00089
4.94146
4.61272
1.68271
2.01638
4.93076
4.57466
1.66399
2.00841
4.89801
4.52614
1.63996
1.98846
4.85262
4.47078
1.61406
1.96187
4.79849
4.41074
1.5881
1.93201
4.73799
4.34679
1.56245
1.90029
4.67196
4.27915
1.53701
1.86734
4.60063
4.2077
1.51143
1.83321
4.52389
4.13218
1.48536
1.79771
4.4415
4.05228
1.45847
1.76054
4.35313
3.96768
1.43053
1.72133
4.25845
3.87808
1.40135
1.67974
4.15713
3.78322
1.3708
1.63542
4.04881
3.68284
1.33878
1.58809
3.93319
3.57687
1.30526
1.53751
3.81002
3.46489
1.27011
1.48341
3.67888
3.34287
1.23143
1.42308
3.53491
3.21533
1.19254
1.35974
3.38251
3.08982
1.15482
1.29684
3.23135
2.96661
1.11814
1.23426
3.0816
2.84564
1.08243
1.17202
2.93335
2.72706
1.04769
1.11021
2.78675
2.61095
1.01394
1.04889
2.64195
2.49742
0.981183
0.988154
2.4991
2.38657
0.949435
0.928082
2.35835
2.2785
0.918706
0.86876
2.21985
2.17331
0.889003
0.810281
2.08374
2.07108
0.860333
0.752743
1.95018
1.97191
0.832704
0.696254
1.81932
1.87587
0.806117
0.640936
1.6913
1.78304
0.780575
0.586924
1.56626
1.69347
0.756078
0.534378
1.44437
1.60723
0.732623
0.483486
1.32576
1.52436
0.710205
0.434476
1.21058
1.4449
0.688816
0.387638
1.09896
1.36886
0.668446
0.343343
0.991043
1.29625
0.649081
0.302089
0.886963
1.22708
0.630704
0.264548
0.786846
1.16132
0.613295
0.23163
0.690811
1.09895
0.596826
0.204516
0.598974
1.03991
0.581269
0.184564
0.51144
0.984169
0.566586
0.172944
0.428314
0.931636
0.552737
0.170012
0.349692
0.882234
0.539672
0.17489
0.275678
0.835867
0.527338
0.185739
0.206405
0.792426
0.515671
0.200478
0.142114
0.751793
0.504604
0.217318
0.083545
0.713839
0.494061
0.234918
0.0356376
0.678427
0.483961
0.252337
0.0388501
0.645409
0.474218
0.268922
0.0792066
0.61463
0.464739
0.284225
0.119497
0.585928
0.455428
0.297936
0.156165
0.559135
0.446188
0.309839
0.188696
0.534077
0.436916
0.319784
0.217001
0.510573
0.427512
0.327672
0.241116
0.488439
0.417873
0.333442
0.261129
0.467488
0.407899
0.337062
0.277159
0.447525
0.397489
0.338523
0.289349
0.428356
0.386546
0.337838
0.297864
0.40978
0.374973
0.335036
0.302882
0.391598
0.362679
0.33016
0.3046
0.373606
0.349571
0.323267
0.303226
0.355604
0.335566
0.31442
0.298981
0.337397
0.32058
0.303694
0.292091
0.318799
0.304538
0.291162
0.282784
0.29964
0.287368
0.2769
0.271285
0.279778
0.269006
0.260973
0.25781
0.259107
0.249377
0.243418
0.242557
0.237591
0.2284
0.224238
0.225724
0.215251
0.205887
0.203303
0.207481
0.192374
0.181614
0.180423
0.188174
0.169245
0.15481
0.154836
0.168048
0.147477
0.125481
0.126552
0.148633
0.126939
0.092651
0.0944015
0.129496
0.113322
0.0690766
0.0705956
0.116319
0.0973398
0.0737584
0.0743136
0.0995662
)
;

boundaryField
{
    plateFix
    {
        type            calculated;
        value           nonuniform List<scalar> 4(3.97493 1.35276 1.15688 4.24835);
    }
    plate
    {
        type            calculated;
        value           nonuniform List<scalar> 
168
(
4.30494
4.54835
4.50268
4.76432
4.71582
5.00679
4.79098
5.09467
4.82844
5.14329
4.82206
5.14384
4.79552
5.12282
4.75378
5.08499
4.70334
5.03724
4.64657
4.98178
4.58506
4.92014
4.51935
4.85271
4.44957
4.77961
4.3756
4.70065
4.29721
4.61562
4.2141
4.52421
4.12598
4.42613
4.03257
4.32106
3.93363
4.20869
3.82888
4.08869
3.71826
3.96086
3.60133
3.82471
3.47399
3.67546
3.34085
3.51743
3.20969
3.36063
3.08092
3.2053
2.95446
3.05155
2.83048
2.89954
2.70907
2.74941
2.59034
2.60134
2.4744
2.45546
2.36135
2.31195
2.2513
2.17094
2.14435
2.03259
2.04058
1.89706
1.94008
1.76451
1.84293
1.63507
1.7492
1.50891
1.65895
1.38617
1.57224
1.267
1.48909
1.15155
1.40954
1.03995
1.33359
0.93234
1.26126
0.828849
1.19251
0.729601
1.12733
0.634713
1.06566
0.544295
1.00746
0.458453
0.952641
0.377292
0.901122
0.300926
0.852802
0.229503
0.807568
0.163296
0.765294
0.103048
0.725845
0.0523203
0.689075
0.0368909
0.654828
0.070517
0.622942
0.110478
0.593246
0.147803
0.565564
0.181209
0.539713
0.21042
0.515508
0.235407
0.492757
0.256234
0.471265
0.273014
0.450837
0.285887
0.43127
0.295021
0.412365
0.3006
0.393916
0.302827
0.375722
0.301919
0.357582
0.298104
0.339303
0.291619
0.320703
0.282703
0.301618
0.271592
0.281915
0.258517
0.261499
0.243693
0.240352
0.227345
0.218515
0.209668
0.19629
0.191041
0.173929
0.171698
0.152958
0.153137
0.133322
0.135148
0.123501
0.126549
0.119326
0.0798907
0.0714077
0.0716779
0.081355
0.122841
)
;
    }
    frontAndBackPlanes
    {
        type            empty;
    }
}


// ************************************************************************* //
