/*--------------------------------*- C++ -*----------------------------------*\
| =========                 |                                                 |
| \\      /  F ield         | OpenFOAM Extend Project: Open source CFD        |
|  \\    /   O peration     | Version:  1.6-ext                               |
|   \\  /    A nd           | Web:      www.extend-project.de                 |
|    \\/     M anipulation  |                                                 |
\*---------------------------------------------------------------------------*/
FoamFile
{
    version     2.0;
    format      ascii;
    class       volVectorField;
    location    "0.85";
    object      Usolid;
}
// * * * * * * * * * * * * * * * * * * * * * * * * * * * * * * * * * * * * * //

dimensions      [0 1 0 0 0 0 0];

internalField   nonuniform List<vector> 
328
(
(1.51803e-07 1.53136e-07 0)
(3.63962e-08 -5.17224e-08 0)
(-2.82317e-08 -4.31928e-08 0)
(-1.51133e-07 1.94196e-07 0)
(4.69853e-07 4.09112e-07 0)
(1.23488e-07 -6.7558e-08 0)
(-1.01552e-07 -4.26835e-08 0)
(-4.6692e-07 5.14323e-07 0)
(8.37618e-07 6.56525e-07 0)
(2.41341e-07 1.05368e-08 0)
(-2.13093e-07 5.08322e-08 0)
(-8.35765e-07 8.09408e-07 0)
(1.2386e-06 9.28947e-07 0)
(3.74295e-07 1.86995e-07 0)
(-3.43473e-07 2.40573e-07 0)
(-1.23856e-06 1.11583e-06 0)
(1.67501e-06 1.25946e-06 0)
(5.22794e-07 4.67648e-07 0)
(-4.93627e-07 5.31926e-07 0)
(-1.67808e-06 1.46996e-06 0)
(2.14343e-06 1.67737e-06 0)
(6.82353e-07 8.64438e-07 0)
(-6.57672e-07 9.36687e-07 0)
(-2.15042e-06 1.90359e-06 0)
(2.6442e-06 2.21063e-06 0)
(8.5257e-07 1.39297e-06 0)
(-8.34777e-07 1.47067e-06 0)
(-2.65601e-06 2.4467e-06 0)
(3.17727e-06 2.88679e-06 0)
(1.03257e-06 2.07344e-06 0)
(-1.02331e-06 2.15443e-06 0)
(-3.19473e-06 3.12835e-06 0)
(3.74353e-06 3.73467e-06 0)
(1.22258e-06 2.9302e-06 0)
(-1.22306e-06 3.01275e-06 0)
(-3.76753e-06 3.97854e-06 0)
(4.34402e-06 4.78549e-06 0)
(1.42294e-06 3.99213e-06 0)
(-1.43389e-06 4.07495e-06 0)
(-4.3754e-06 5.02938e-06 0)
(4.98e-06 6.07405e-06 0)
(1.63422e-06 5.29279e-06 0)
(-1.6561e-06 5.37498e-06 0)
(-5.0196e-06 6.31632e-06 0)
(5.65281e-06 7.63962e-06 0)
(1.85703e-06 6.87097e-06 0)
(-1.89006e-06 6.95193e-06 0)
(-5.70138e-06 7.87907e-06 0)
(6.36377e-06 9.52681e-06 0)
(2.09199e-06 8.77112e-06 0)
(-2.13623e-06 8.85048e-06 0)
(-6.42199e-06 9.76253e-06 0)
(7.11416e-06 1.17864e-05 0)
(2.33968e-06 1.1044e-05 0)
(-2.3951e-06 1.11215e-05 0)
(-7.18257e-06 1.20176e-05 0)
(7.90515e-06 1.44761e-05 0)
(2.60062e-06 1.37474e-05 0)
(-2.6671e-06 1.3823e-05 0)
(-7.98413e-06 1.47022e-05 0)
(8.73774e-06 1.76614e-05 0)
(2.87525e-06 1.69471e-05 0)
(-2.95259e-06 1.70204e-05 0)
(-8.82751e-06 1.78817e-05 0)
(9.61273e-06 2.14165e-05 0)
(3.16394e-06 2.07171e-05 0)
(-3.25186e-06 2.07882e-05 0)
(-9.7133e-06 2.16303e-05 0)
(1.05307e-05 2.58254e-05 0)
(3.46698e-06 2.51415e-05 0)
(-3.56505e-06 2.521e-05 0)
(-1.06418e-05 2.60317e-05 0)
(1.14918e-05 3.09822e-05 0)
(3.78456e-06 3.03147e-05 0)
(-3.89215e-06 3.03804e-05 0)
(-1.16131e-05 3.11802e-05 0)
(1.24961e-05 3.69932e-05 0)
(4.11675e-06 3.63428e-05 0)
(-4.23298e-06 3.64054e-05 0)
(-1.26266e-05 3.71817e-05 0)
(1.35429e-05 4.39769e-05 0)
(4.46351e-06 4.33444e-05 0)
(-4.58715e-06 4.34034e-05 0)
(-1.36814e-05 4.41547e-05 0)
(1.46313e-05 5.20657e-05 0)
(4.82468e-06 5.14519e-05 0)
(-4.95407e-06 5.1507e-05 0)
(-1.47762e-05 5.22316e-05 0)
(1.58025e-05 6.17628e-05 0)
(5.21419e-06 6.11694e-05 0)
(-5.3473e-06 6.12199e-05 0)
(-1.59517e-05 6.1915e-05 0)
(1.70076e-05 7.29629e-05 0)
(5.61596e-06 7.23906e-05 0)
(-5.74962e-06 7.2436e-05 0)
(-1.7158e-05 7.30996e-05 0)
(1.81645e-05 8.49495e-05 0)
(6.00289e-06 8.43977e-05 0)
(-6.13345e-06 8.44378e-05 0)
(-1.83124e-05 8.50701e-05 0)
(1.92742e-05 9.76892e-05 0)
(6.37529e-06 9.71575e-05 0)
(-6.49899e-06 9.71921e-05 0)
(-1.94157e-05 9.77934e-05 0)
(2.03372e-05 0.000111149 0)
(6.73348e-06 0.000110637 0)
(-6.84635e-06 0.000110666 0)
(-2.04683e-05 0.000111236 0)
(2.13544e-05 0.000125297 0)
(7.07775e-06 0.000124804 0)
(-7.17569e-06 0.000124827 0)
(-2.14709e-05 0.000125367 0)
(2.23266e-05 0.000140101 0)
(7.40848e-06 0.000139626 0)
(-7.48715e-06 0.000139644 0)
(-2.24242e-05 0.000140153 0)
(2.32547e-05 0.000155529 0)
(7.72599e-06 0.000155073 0)
(-7.78091e-06 0.000155084 0)
(-2.33288e-05 0.000155563 0)
(2.41396e-05 0.000171551 0)
(8.03069e-06 0.000171112 0)
(-8.05714e-06 0.000171117 0)
(-2.41854e-05 0.000171567 0)
(2.49824e-05 0.000188136 0)
(8.32294e-06 0.000187714 0)
(-8.31605e-06 0.000187713 0)
(-2.49949e-05 0.000188134 0)
(2.57839e-05 0.000205255 0)
(8.60317e-06 0.000204849 0)
(-8.55784e-06 0.000204842 0)
(-2.57581e-05 0.000205234 0)
(2.65453e-05 0.000222878 0)
(8.87179e-06 0.000222487 0)
(-8.78274e-06 0.000222474 0)
(-2.64759e-05 0.000222838 0)
(2.72677e-05 0.000240977 0)
(9.12924e-06 0.000240602 0)
(-8.99099e-06 0.000240582 0)
(-2.71491e-05 0.000240918 0)
(2.79523e-05 0.000259524 0)
(9.37594e-06 0.000259164 0)
(-9.18285e-06 0.000259138 0)
(-2.77787e-05 0.000259447 0)
(2.86002e-05 0.000278493 0)
(9.61235e-06 0.000278147 0)
(-9.35862e-06 0.000278115 0)
(-2.83658e-05 0.000278397 0)
(2.92125e-05 0.000297856 0)
(9.83892e-06 0.000297524 0)
(-9.51858e-06 0.000297486 0)
(-2.89114e-05 0.000297742 0)
(2.97907e-05 0.00031759 0)
(1.00561e-05 0.00031727 0)
(-9.66307e-06 0.000317226 0)
(-2.94166e-05 0.000317456 0)
(3.03359e-05 0.000337668 0)
(1.02643e-05 0.000337361 0)
(-9.79243e-06 0.00033731 0)
(-2.98826e-05 0.000337516 0)
(3.08493e-05 0.000358067 0)
(1.04641e-05 0.000357772 0)
(-9.90705e-06 0.000357715 0)
(-3.03105e-05 0.000357897 0)
(3.13324e-05 0.000378764 0)
(1.06558e-05 0.00037848 0)
(-1.00073e-05 0.000378418 0)
(-3.07016e-05 0.000378577 0)
(3.17863e-05 0.000399738 0)
(1.084e-05 0.000399464 0)
(-1.00937e-05 0.000399396 0)
(-3.10573e-05 0.000399532 0)
(3.22124e-05 0.000420966 0)
(1.1017e-05 0.000420702 0)
(-1.01665e-05 0.000420628 0)
(-3.13788e-05 0.000420743 0)
(3.26121e-05 0.000442428 0)
(1.11872e-05 0.000442174 0)
(-1.02264e-05 0.000442094 0)
(-3.16675e-05 0.000442188 0)
(3.29866e-05 0.000464105 0)
(1.1351e-05 0.00046386 0)
(-1.02738e-05 0.000463775 0)
(-3.19248e-05 0.000463849 0)
(3.33371e-05 0.000485979 0)
(1.15089e-05 0.000485742 0)
(-1.03092e-05 0.000485652 0)
(-3.21523e-05 0.000485707 0)
(3.36651e-05 0.000508032 0)
(1.16611e-05 0.000507803 0)
(-1.03332e-05 0.000507707 0)
(-3.23512e-05 0.000507744 0)
(3.39717e-05 0.000530246 0)
(1.18081e-05 0.000530025 0)
(-1.03465e-05 0.000529924 0)
(-3.25233e-05 0.000529944 0)
(3.42582e-05 0.000552608 0)
(1.19501e-05 0.000552393 0)
(-1.03495e-05 0.000552288 0)
(-3.26699e-05 0.000552292 0)
(3.45258e-05 0.000575101 0)
(1.20874e-05 0.000574893 0)
(-1.03429e-05 0.000574783 0)
(-3.27927e-05 0.000574772 0)
(3.47756e-05 0.000597713 0)
(1.22202e-05 0.00059751 0)
(-1.03275e-05 0.000597397 0)
(-3.28932e-05 0.00059737 0)
(3.50087e-05 0.000620429 0)
(1.23489e-05 0.000620232 0)
(-1.03038e-05 0.000620115 0)
(-3.29729e-05 0.000620075 0)
(3.52263e-05 0.000643239 0)
(1.24735e-05 0.000643048 0)
(-1.02725e-05 0.000642926 0)
(-3.30336e-05 0.000642875 0)
(3.54294e-05 0.000666131 0)
(1.25942e-05 0.000665944 0)
(-1.02344e-05 0.00066582 0)
(-3.30767e-05 0.000665757 0)
(3.56188e-05 0.000689095 0)
(1.27112e-05 0.000688913 0)
(-1.01902e-05 0.000688785 0)
(-3.31038e-05 0.000688712 0)
(3.57957e-05 0.000712122 0)
(1.28245e-05 0.000711944 0)
(-1.01407e-05 0.000711814 0)
(-3.31165e-05 0.000711731 0)
(3.59607e-05 0.000735202 0)
(1.29342e-05 0.000735028 0)
(-1.00864e-05 0.000734896 0)
(-3.31164e-05 0.000734805 0)
(3.61148e-05 0.00075833 0)
(1.30404e-05 0.000758159 0)
(-1.00283e-05 0.000758025 0)
(-3.31049e-05 0.000757927 0)
(3.62586e-05 0.000781496 0)
(1.3143e-05 0.00078133 0)
(-9.96704e-06 0.000781194 0)
(-3.30836e-05 0.000781089 0)
(3.63928e-05 0.000804697 0)
(1.32419e-05 0.000804534 0)
(-9.90337e-06 0.000804397 0)
(-3.30538e-05 0.000804286 0)
(3.6518e-05 0.000827925 0)
(1.33372e-05 0.000827765 0)
(-9.83805e-06 0.000827628 0)
(-3.30172e-05 0.000827513 0)
(3.66348e-05 0.000851176 0)
(1.34287e-05 0.00085102 0)
(-9.7718e-06 0.000850882 0)
(-3.29749e-05 0.000850763 0)
(3.67436e-05 0.000874446 0)
(1.35163e-05 0.000874293 0)
(-9.70535e-06 0.000874156 0)
(-3.29283e-05 0.000874034 0)
(3.68447e-05 0.000897732 0)
(1.35997e-05 0.000897582 0)
(-9.63942e-06 0.000897446 0)
(-3.28787e-05 0.000897322 0)
(3.69387e-05 0.00092103 0)
(1.3679e-05 0.000920884 0)
(-9.57468e-06 0.000920748 0)
(-3.28273e-05 0.000920623 0)
(3.70255e-05 0.000944338 0)
(1.37537e-05 0.000944195 0)
(-9.51183e-06 0.000944061 0)
(-3.27753e-05 0.000943935 0)
(3.71056e-05 0.000967654 0)
(1.38237e-05 0.000967514 0)
(-9.45151e-06 0.000967382 0)
(-3.27236e-05 0.000967257 0)
(3.71788e-05 0.000990976 0)
(1.38887e-05 0.00099084 0)
(-9.39435e-06 0.00099071 0)
(-3.26733e-05 0.000990586 0)
(3.72454e-05 0.0010143 0)
(1.39485e-05 0.00101417 0)
(-9.34095e-06 0.00101404 0)
(-3.26253e-05 0.00101392 0)
(3.73052e-05 0.00103763 0)
(1.40026e-05 0.0010375 0)
(-9.29188e-06 0.00103738 0)
(-3.25805e-05 0.00103726 0)
(3.7358e-05 0.00106097 0)
(1.40509e-05 0.00106084 0)
(-9.2477e-06 0.00106072 0)
(-3.25395e-05 0.0010606 0)
(3.74039e-05 0.0010843 0)
(1.40929e-05 0.00108418 0)
(-9.20892e-06 0.00108407 0)
(-3.25032e-05 0.00108395 0)
(3.74424e-05 0.00110764 0)
(1.41283e-05 0.00110753 0)
(-9.17607e-06 0.00110741 0)
(-3.2472e-05 0.0011073 0)
(3.74734e-05 0.00113098 0)
(1.41566e-05 0.00113087 0)
(-9.14963e-06 0.00113076 0)
(-3.24467e-05 0.00113066 0)
(3.74966e-05 0.00115432 0)
(1.41775e-05 0.00115421 0)
(-9.13012e-06 0.00115411 0)
(-3.24277e-05 0.00115401 0)
(3.75116e-05 0.00117766 0)
(1.41905e-05 0.00117756 0)
(-9.11813e-06 0.00117747 0)
(-3.24155e-05 0.00117737 0)
(3.75184e-05 0.001201 0)
(1.4195e-05 0.00120091 0)
(-9.11429e-06 0.00120082 0)
(-3.24104e-05 0.00120073 0)
(3.75165e-05 0.00122434 0)
(1.41898e-05 0.00122425 0)
(-9.11983e-06 0.00122417 0)
(-3.24131e-05 0.00122409 0)
(3.75068e-05 0.00124767 0)
(1.41743e-05 0.0012476 0)
(-9.13542e-06 0.00124753 0)
(-3.2423e-05 0.00124745 0)
(3.74882e-05 0.00127101 0)
(1.41458e-05 0.00127094 0)
(-9.16402e-06 0.00127088 0)
(-3.24413e-05 0.00127081 0)
(3.7467e-05 0.00129437 0)
(1.41121e-05 0.00129429 0)
(-9.19762e-06 0.00129422 0)
(-3.24618e-05 0.00129414 0)
)
;

boundaryField
{
    plateFix
    {
        type            fixedDisplacement;
        value           uniform (0 0 0);
    }
    plate
    {
        type            solidTraction;
        nonLinear       updatedLagrangian;
        traction        uniform (0 0 0);
        pressure        uniform 0;
        value           nonuniform List<vector> 
168
(
(8.42242e-07 6.2462e-07 -1.14651e-25)
(-1.02432e-06 7.36955e-07 -7.1082e-26)
(1.05588e-06 9.03121e-07 1.79085e-25)
(-1.18615e-06 1.08199e-06 -7.91478e-26)
(1.40054e-06 1.17498e-06 8.43134e-27)
(-1.49005e-06 1.40486e-06 1.45493e-25)
(1.84621e-06 1.45602e-06 1.75454e-26)
(-1.90736e-06 1.72136e-06 6.34339e-26)
(2.37754e-06 1.79086e-06 -8.38452e-26)
(-2.42124e-06 2.08104e-06 -1.15494e-25)
(2.97557e-06 2.2081e-06 6.20644e-26)
(-3.00949e-06 2.51468e-06 2.44938e-26)
(3.63065e-06 2.7384e-06 -8.75069e-26)
(-3.66061e-06 3.0553e-06 1.33209e-26)
(4.33635e-06 3.40989e-06 3.13147e-26)
(-4.36662e-06 3.73251e-06 -5.41607e-26)
(5.09009e-06 4.25213e-06 -7.38701e-26)
(-5.1239e-06 4.5771e-06 9.15944e-26)
(5.89117e-06 5.29662e-06 8.98042e-26)
(-5.93097e-06 5.62144e-06 -8.63572e-26)
(6.74025e-06 6.57834e-06 -6.36097e-26)
(-6.78789e-06 6.90112e-06 1.02412e-26)
(7.63861e-06 8.13663e-06 8.63126e-26)
(-7.6955e-06 8.45591e-06 3.71506e-26)
(8.58784e-06 1.00161e-05 -6.54147e-26)
(-8.65502e-06 1.03307e-05 1.73328e-26)
(9.58958e-06 1.22675e-05 -1.45043e-27)
(-9.66778e-06 1.25765e-05 -3.72291e-26)
(1.06454e-05 1.49486e-05 1.19024e-27)
(-1.0735e-05 1.52509e-05 9.55142e-27)
(1.17565e-05 1.81248e-05 1.44386e-26)
(-1.18579e-05 1.84195e-05 -1.48777e-26)
(1.29241e-05 2.18704e-05 2.90397e-26)
(-1.30372e-05 2.21564e-05 2.7743e-26)
(1.41488e-05 2.62691e-05 -1.45259e-26)
(-1.42733e-05 2.65452e-05 -6.7436e-26)
(1.54309e-05 3.14153e-05 -1.58245e-26)
(-1.55663e-05 3.16803e-05 4.76853e-26)
(1.67703e-05 3.74149e-05 1.15802e-26)
(-1.69156e-05 3.76673e-05 3.35772e-27)
(1.8166e-05 4.43868e-05 -8.34126e-27)
(-1.83201e-05 4.46249e-05 4.34099e-27)
(1.96167e-05 5.24631e-05 1.12857e-26)
(-1.97778e-05 5.26853e-05 7.75727e-27)
(2.11767e-05 6.21467e-05 -1.0206e-26)
(-2.13428e-05 6.23505e-05 -1.70359e-26)
(2.27823e-05 7.33328e-05 2.66049e-26)
(-2.29503e-05 7.35158e-05 4.03156e-26)
(2.43231e-05 8.53056e-05 -5.61492e-26)
(-2.44892e-05 8.54672e-05 -4.91882e-26)
(2.58002e-05 9.80319e-05 3.36237e-26)
(-2.59604e-05 9.81714e-05 2.20167e-26)
(2.72143e-05 0.000111479 7.62251e-27)
(-2.73646e-05 0.000111596 -7.14899e-26)
(2.85666e-05 0.000125614 -5.88458e-26)
(-2.87027e-05 0.000125707 7.64937e-26)
(2.98582e-05 0.000140405 5.20344e-26)
(-2.99757e-05 0.000140475 -8.81932e-27)
(3.10901e-05 0.000155821 -5.49125e-26)
(-3.11844e-05 0.000155867 1.75827e-27)
(3.22636e-05 0.000171831 2.28216e-26)
(-3.23298e-05 0.000171853 -5.86805e-27)
(3.33799e-05 0.000188404 -1.55773e-27)
(-3.34132e-05 0.000188401 -5.54906e-26)
(3.44404e-05 0.000205512 -5.05813e-26)
(-3.44355e-05 0.000205484 -3.60786e-26)
(3.54465e-05 0.000223124 -1.2852e-26)
(-3.5398e-05 0.000223071 -6.03419e-26)
(3.63997e-05 0.000241212 -2.90502e-26)
(-3.63019e-05 0.000241135 -1.65352e-26)
(3.73013e-05 0.000259749 1.29783e-26)
(-3.71486e-05 0.000259647 1.15915e-25)
(3.8153e-05 0.000278708 1.36528e-25)
(-3.79395e-05 0.000278581 2.39836e-26)
(3.89563e-05 0.000298062 -4.2845e-27)
(-3.86759e-05 0.00029791 1.54339e-25)
(3.9713e-05 0.000317787 -5.90707e-26)
(-3.93594e-05 0.000317609 -2.23305e-25)
(4.04246e-05 0.000337856 1.42354e-25)
(-3.99915e-05 0.000337654 1.31153e-25)
(4.10928e-05 0.000358247 9.96019e-26)
(-4.05739e-05 0.000358021 -4.29065e-26)
(4.17194e-05 0.000378937 -2.1246e-25)
(-4.11082e-05 0.000378686 -8.16861e-26)
(4.23061e-05 0.000399902 4.84653e-26)
(-4.15962e-05 0.000399628 -6.2749e-26)
(4.28547e-05 0.000421123 -1.31271e-25)
(-4.20396e-05 0.000420826 -7.11094e-26)
(4.3367e-05 0.000442579 -6.72017e-26)
(-4.24403e-05 0.000442259 2.16904e-25)
(4.38446e-05 0.000464249 1.43223e-25)
(-4.28001e-05 0.000463908 5.3246e-26)
(4.42894e-05 0.000486117 -4.83937e-26)
(-4.3121e-05 0.000485754 -1.67076e-25)
(4.47031e-05 0.000508164 -4.91939e-26)
(-4.34049e-05 0.00050778 -8.61606e-26)
(4.50875e-05 0.000530374 -1.3185e-26)
(-4.36538e-05 0.00052997 -1.18297e-25)
(4.54442e-05 0.00055273 -1.77504e-26)
(-4.38697e-05 0.000552308 -9.78418e-26)
(4.57748e-05 0.000575219 -1.55669e-25)
(-4.40545e-05 0.000574779 2.28162e-25)
(4.60811e-05 0.000597826 -7.44556e-26)
(-4.42104e-05 0.000597369 2.97659e-26)
(4.63646e-05 0.000620538 1.68137e-25)
(-4.43394e-05 0.000620066 3.53534e-25)
(4.66268e-05 0.000643344 -6.59431e-26)
(-4.44435e-05 0.000642858 -1.78579e-25)
(4.68692e-05 0.000666233 -1.33658e-25)
(-4.45247e-05 0.000665733 2.27245e-26)
(4.70932e-05 0.000689194 2.50348e-26)
(-4.4585e-05 0.000688682 -1.13066e-25)
(4.73001e-05 0.000712217 -7.00774e-25)
(-4.46265e-05 0.000711695 1.04219e-25)
(4.74913e-05 0.000735295 1.35161e-25)
(-4.46511e-05 0.000734765 -1.41393e-25)
(4.76678e-05 0.00075842 -8.41194e-26)
(-4.46606e-05 0.000757882 3.81791e-25)
(4.78308e-05 0.000781584 8.14157e-26)
(-4.46571e-05 0.00078104 -7.04393e-26)
(4.79813e-05 0.000804782 -3.72565e-26)
(-4.46422e-05 0.000804234 -1.89061e-25)
(4.81204e-05 0.000828008 1.81543e-25)
(-4.46178e-05 0.000827458 8.25123e-26)
(4.82487e-05 0.000851257 1.42994e-25)
(-4.45856e-05 0.000850706 8.10766e-26)
(4.83671e-05 0.000874525 7.84725e-26)
(-4.45471e-05 0.000873975 -3.44083e-25)
(4.84763e-05 0.000897809 -2.92428e-25)
(-4.4504e-05 0.000897261 5.64551e-25)
(4.85769e-05 0.000921105 1.58036e-25)
(-4.44577e-05 0.000920561 -1.08534e-25)
(4.86692e-05 0.000944411 3.00193e-25)
(-4.44095e-05 0.000943873 1.45711e-25)
(4.87538e-05 0.000967725 -3.95386e-25)
(-4.43608e-05 0.000967195 1.19372e-25)
(4.88309e-05 0.000991045 4.32219e-25)
(-4.43128e-05 0.000990524 7.81288e-26)
(4.89006e-05 0.00101437 -6.36502e-25)
(-4.42664e-05 0.00101386 1.34072e-25)
(4.89631e-05 0.0010377 3.40478e-26)
(-4.42228e-05 0.0010372 -4.4525e-25)
(4.90184e-05 0.00106103 1.28863e-25)
(-4.41826e-05 0.00106055 -4.34958e-25)
(4.90663e-05 0.00108436 3.39206e-25)
(-4.41468e-05 0.00108389 3.75795e-25)
(4.91067e-05 0.0011077 -6.52035e-25)
(-4.41159e-05 0.00110725 -6.71269e-25)
(4.91393e-05 0.00113103 -1.31177e-25)
(-4.40907e-05 0.0011306 1.94129e-25)
(4.91638e-05 0.00115437 5.27665e-25)
(-4.40715e-05 0.00115396 6.76862e-25)
(4.918e-05 0.00117771 -5.04536e-25)
(-4.40589e-05 0.00117732 -6.74155e-25)
(4.91876e-05 0.00120104 2.31547e-25)
(-4.40533e-05 0.00120068 1.18659e-25)
(4.91864e-05 0.00122438 6.15114e-26)
(-4.40551e-05 0.00122405 -7.59872e-26)
(4.91785e-05 0.00124771 6.23234e-26)
(-4.40625e-05 0.00124741 -4.79938e-25)
(4.91675e-05 0.00127105 1.62412e-25)
(-4.40722e-05 0.00127077 7.32652e-25)
(4.917e-05 0.00129441 3.32538e-25)
(3.74526e-05 0.00130608 2.49009e-26)
(1.40951e-05 0.00130598 -2.23534e-25)
(-9.21453e-06 0.00130588 2.35105e-25)
(-3.24757e-05 0.00130578 -2.33336e-25)
(-4.40676e-05 0.00129411 -3.01429e-26)
)
;
    }
    frontAndBackPlanes
    {
        type            empty;
    }
}


// ************************************************************************* //
