/*--------------------------------*- C++ -*----------------------------------*\
| =========                 |                                                 |
| \\      /  F ield         | OpenFOAM Extend Project: Open source CFD        |
|  \\    /   O peration     | Version:  1.6-ext                               |
|   \\  /    A nd           | Web:      www.extend-project.de                 |
|    \\/     M anipulation  |                                                 |
\*---------------------------------------------------------------------------*/
FoamFile
{
    version     2.0;
    format      ascii;
    class       volScalarField::DimensionedInternalField;
    location    "0.85";
    object      V0;
}
// * * * * * * * * * * * * * * * * * * * * * * * * * * * * * * * * * * * * * //

dimensions      [0 3 0 0 0 0 0];

value           nonuniform List<scalar> 
328
(
2.53367e-07
2.5336e-07
2.53322e-07
2.5332e-07
2.71731e-07
2.71724e-07
2.71695e-07
2.71695e-07
2.91441e-07
2.91423e-07
2.91398e-07
2.91385e-07
3.12577e-07
3.1255e-07
3.12529e-07
3.12506e-07
3.35243e-07
3.3521e-07
3.3519e-07
3.35159e-07
3.59552e-07
3.59513e-07
3.59494e-07
3.59457e-07
3.85622e-07
3.85579e-07
3.8556e-07
3.85518e-07
4.13581e-07
4.13535e-07
4.13515e-07
4.13469e-07
4.43567e-07
4.43518e-07
4.43497e-07
4.43448e-07
4.75727e-07
4.75675e-07
4.75653e-07
4.756e-07
5.10219e-07
5.10163e-07
5.1014e-07
5.10084e-07
5.47211e-07
5.47152e-07
5.47127e-07
5.47069e-07
5.86885e-07
5.86823e-07
5.86797e-07
5.86735e-07
6.29436e-07
6.2937e-07
6.29342e-07
6.29277e-07
6.75071e-07
6.75002e-07
6.74973e-07
6.74904e-07
7.24015e-07
7.23942e-07
7.23912e-07
7.23839e-07
7.76507e-07
7.76431e-07
7.76399e-07
7.76323e-07
8.32805e-07
8.32726e-07
8.32692e-07
8.32612e-07
8.93185e-07
8.93102e-07
8.93066e-07
8.92983e-07
9.57942e-07
9.57855e-07
9.57818e-07
9.57731e-07
1.02739e-06
1.0273e-06
1.02726e-06
1.02717e-06
1.10188e-06
1.10179e-06
1.10175e-06
1.10165e-06
1.26884e-06
1.26873e-06
1.26869e-06
1.26859e-06
1.26883e-06
1.26873e-06
1.26869e-06
1.26859e-06
1.26883e-06
1.26873e-06
1.26869e-06
1.2686e-06
1.26882e-06
1.26873e-06
1.26869e-06
1.2686e-06
1.26882e-06
1.26873e-06
1.26869e-06
1.26861e-06
1.26881e-06
1.26873e-06
1.26869e-06
1.26861e-06
1.26881e-06
1.26873e-06
1.2687e-06
1.26862e-06
1.2688e-06
1.26873e-06
1.2687e-06
1.26862e-06
1.2688e-06
1.26873e-06
1.2687e-06
1.26863e-06
1.26879e-06
1.26873e-06
1.2687e-06
1.26863e-06
1.26879e-06
1.26873e-06
1.2687e-06
1.26863e-06
1.26879e-06
1.26872e-06
1.2687e-06
1.26864e-06
1.26878e-06
1.26872e-06
1.2687e-06
1.26864e-06
1.26878e-06
1.26872e-06
1.2687e-06
1.26865e-06
1.26877e-06
1.26872e-06
1.2687e-06
1.26865e-06
1.26877e-06
1.26872e-06
1.2687e-06
1.26866e-06
1.26876e-06
1.26872e-06
1.2687e-06
1.26866e-06
1.26876e-06
1.26872e-06
1.2687e-06
1.26866e-06
1.26876e-06
1.26872e-06
1.2687e-06
1.26867e-06
1.26875e-06
1.26872e-06
1.2687e-06
1.26867e-06
1.26875e-06
1.26872e-06
1.2687e-06
1.26867e-06
1.26875e-06
1.26872e-06
1.2687e-06
1.26868e-06
1.26874e-06
1.26872e-06
1.26871e-06
1.26868e-06
1.26874e-06
1.26872e-06
1.26871e-06
1.26868e-06
1.26874e-06
1.26872e-06
1.26871e-06
1.26868e-06
1.26874e-06
1.26871e-06
1.26871e-06
1.26869e-06
1.26873e-06
1.26871e-06
1.26871e-06
1.26869e-06
1.26873e-06
1.26871e-06
1.26871e-06
1.26869e-06
1.26873e-06
1.26871e-06
1.26871e-06
1.26869e-06
1.26873e-06
1.26871e-06
1.26871e-06
1.26869e-06
1.26872e-06
1.26871e-06
1.26871e-06
1.26869e-06
1.26872e-06
1.26871e-06
1.26871e-06
1.2687e-06
1.26872e-06
1.26871e-06
1.26871e-06
1.2687e-06
1.26872e-06
1.26871e-06
1.26871e-06
1.2687e-06
1.26872e-06
1.26871e-06
1.26871e-06
1.2687e-06
1.26871e-06
1.26871e-06
1.26871e-06
1.2687e-06
1.26871e-06
1.26871e-06
1.26871e-06
1.2687e-06
1.26871e-06
1.26871e-06
1.26871e-06
1.2687e-06
1.26871e-06
1.26871e-06
1.26871e-06
1.2687e-06
1.26871e-06
1.26871e-06
1.26871e-06
1.2687e-06
1.26871e-06
1.26871e-06
1.2687e-06
1.2687e-06
1.26871e-06
1.26871e-06
1.2687e-06
1.2687e-06
1.26871e-06
1.2687e-06
1.2687e-06
1.2687e-06
1.26871e-06
1.2687e-06
1.2687e-06
1.2687e-06
1.26871e-06
1.2687e-06
1.2687e-06
1.2687e-06
1.2687e-06
1.2687e-06
1.2687e-06
1.2687e-06
1.2687e-06
1.2687e-06
1.2687e-06
1.2687e-06
1.2687e-06
1.2687e-06
1.2687e-06
1.2687e-06
1.2687e-06
1.2687e-06
1.2687e-06
1.2687e-06
1.2687e-06
1.2687e-06
1.2687e-06
1.2687e-06
1.2687e-06
1.2687e-06
1.2687e-06
1.2687e-06
1.2687e-06
1.2687e-06
1.2687e-06
1.2687e-06
1.2687e-06
1.2687e-06
1.2687e-06
1.2687e-06
1.2687e-06
1.2687e-06
1.2687e-06
1.2687e-06
1.2687e-06
1.2687e-06
1.2687e-06
1.2687e-06
1.2687e-06
1.2687e-06
1.2687e-06
1.2687e-06
1.2687e-06
1.2687e-06
1.2687e-06
1.2687e-06
1.2687e-06
1.2687e-06
1.2687e-06
1.2687e-06
1.2687e-06
1.2687e-06
1.2687e-06
1.2687e-06
1.26869e-06
1.26869e-06
1.26869e-06
1.26869e-06
)
;


// ************************************************************************* //
