/*--------------------------------*- C++ -*----------------------------------*\
| =========                 |                                                 |
| \\      /  F ield         | OpenFOAM Extend Project: Open source CFD        |
|  \\    /   O peration     | Version:  1.6-ext                               |
|   \\  /    A nd           | Web:      www.extend-project.de                 |
|    \\/     M anipulation  |                                                 |
\*---------------------------------------------------------------------------*/
FoamFile
{
    version     2.0;
    format      ascii;
    class       volVectorField;
    location    "0.85";
    object      Vs;
}
// * * * * * * * * * * * * * * * * * * * * * * * * * * * * * * * * * * * * * //

dimensions      [0 1 -1 0 0 0 0];

internalField   nonuniform List<vector> 
328
(
(-4.14708e-07 -7.45366e-06 0)
(7.4998e-07 -1.62571e-06 0)
(6.86242e-07 1.59112e-06 0)
(-7.26843e-07 7.87546e-06 0)
(-1.17079e-06 -1.90565e-05 0)
(1.70804e-06 -4.64135e-06 0)
(1.48496e-06 4.71698e-06 0)
(-2.13163e-06 2.01946e-05 0)
(-2.64544e-06 -2.75691e-05 0)
(1.17121e-06 -7.3753e-06 0)
(7.18977e-07 7.75544e-06 0)
(-4.35295e-06 2.93841e-05 0)
(-4.3851e-06 -3.34623e-05 0)
(-1.80979e-07 -9.59728e-06 0)
(-8.95235e-07 1.04816e-05 0)
(-6.89988e-06 3.59862e-05 0)
(-6.47965e-06 -3.73494e-05 0)
(-2.4359e-06 -1.12236e-05 0)
(-3.44579e-06 1.28208e-05 0)
(-9.86574e-06 4.06855e-05 0)
(-8.84335e-06 -3.96982e-05 0)
(-5.34205e-06 -1.22235e-05 0)
(-6.66988e-06 1.47634e-05 0)
(-1.31559e-05 4.40111e-05 0)
(-1.14972e-05 -4.08881e-05 0)
(-8.82808e-06 -1.26308e-05 0)
(-1.04943e-05 1.63716e-05 0)
(-1.67907e-05 4.63986e-05 0)
(-1.44406e-05 -4.11954e-05 0)
(-1.27691e-05 -1.25009e-05 0)
(-1.47911e-05 1.77376e-05 0)
(-2.07676e-05 4.81777e-05 0)
(-1.76937e-05 -4.08267e-05 0)
(-1.70969e-05 -1.19016e-05 0)
(-1.94914e-05 1.89731e-05 0)
(-2.51069e-05 4.96092e-05 0)
(-2.12724e-05 -3.99266e-05 0)
(-2.17506e-05 -1.08937e-05 0)
(-2.4534e-05 2.01905e-05 0)
(-2.98249e-05 5.08944e-05 0)
(-2.51946e-05 -3.8592e-05 0)
(-2.66987e-05 -9.52414e-06 0)
(-2.98875e-05 2.1496e-05 0)
(-3.49399e-05 5.21924e-05 0)
(-2.94751e-05 -3.68792e-05 0)
(-3.19265e-05 -7.81992e-06 0)
(-3.55375e-05 2.29838e-05 0)
(-4.04677e-05 5.36281e-05 0)
(-3.41279e-05 -3.48113e-05 0)
(-3.74378e-05 -5.78681e-06 0)
(-4.14885e-05 2.47362e-05 0)
(-4.64227e-05 5.53015e-05 0)
(-3.91659e-05 -3.23832e-05 0)
(-4.32491e-05 -3.40996e-06 0)
(-4.77572e-05 2.68242e-05 0)
(-5.28187e-05 5.72941e-05 0)
(-4.46026e-05 -2.95677e-05 0)
(-4.93869e-05 -6.56285e-07 0)
(-5.43706e-05 2.93119e-05 0)
(-5.96699e-05 5.96757e-05 0)
(-5.04527e-05 -2.63189e-05 0)
(-5.58832e-05 2.52271e-06 0)
(-6.13613e-05 3.22595e-05 0)
(-6.69918e-05 6.25096e-05 0)
(-5.67334e-05 -2.25768e-05 0)
(-6.27736e-05 6.18812e-06 0)
(-6.87651e-05 3.57278e-05 0)
(-7.48023e-05 6.5858e-05 0)
(-6.3464e-05 -1.82699e-05 0)
(-7.00941e-05 1.04114e-05 0)
(-7.66189e-05 3.97816e-05 0)
(-8.31222e-05 6.97862e-05 0)
(-7.06662e-05 -1.33169e-05 0)
(-7.78807e-05 1.52728e-05 0)
(-8.49595e-05 4.4492e-05 0)
(-9.19752e-05 7.43652e-05 0)
(-7.83637e-05 -7.62801e-06 0)
(-8.6168e-05 2.08613e-05 0)
(-9.38229e-05 4.99391e-05 0)
(-0.000101389 7.96751e-05 0)
(-8.65811e-05 -1.10362e-06 0)
(-9.49895e-05 2.72745e-05 0)
(-0.000103245 5.62134e-05 0)
(-0.000111393 8.58066e-05 0)
(-9.53427e-05 6.367e-06 0)
(-0.000104377 3.46215e-05 0)
(-0.000113261 6.34185e-05 0)
(-0.000122024 9.28631e-05 0)
(-0.000105027 1.52356e-05 0)
(-0.000114743 4.33459e-05 0)
(-0.000124313 7.19885e-05 0)
(-0.00013375 0.000101273 0)
(-0.000115292 2.53955e-05 0)
(-0.000125728 5.33427e-05 0)
(-0.000136028 8.18205e-05 0)
(-0.000146181 0.000110941 0)
(-0.000125438 3.6219e-05 0)
(-0.000136599 6.39939e-05 0)
(-0.000147633 9.2307e-05 0)
(-0.000158507 0.00012127 0)
(-0.000135449 4.7716e-05 0)
(-0.00014735 7.53097e-05 0)
(-0.000159133 0.000103458 0)
(-0.000170745 0.000132271 0)
(-0.000145309 5.99099e-05 0)
(-0.000157976 8.73136e-05 0)
(-0.000170534 0.000115296 0)
(-0.000182909 0.000143967 0)
(-0.000155001 7.28368e-05 0)
(-0.000168471 0.000100042 0)
(-0.00018184 0.000127857 0)
(-0.000195014 0.000156392 0)
(-0.00016451 8.65442e-05 0)
(-0.000178829 0.000113543 0)
(-0.000193053 0.00014119 0)
(-0.000207073 0.000169594 0)
(-0.000173822 0.000101089 0)
(-0.000189045 0.000127875 0)
(-0.000204177 0.000155353 0)
(-0.000219096 0.00018363 0)
(-0.000182925 0.000116537 0)
(-0.000199112 0.000143103 0)
(-0.000215212 0.00017041 0)
(-0.000231092 0.000198563 0)
(-0.00019181 0.000132958 0)
(-0.000209028 0.0001593 0)
(-0.000226159 0.000186434 0)
(-0.000243065 0.000214466 0)
(-0.000200467 0.00015043 0)
(-0.000218785 0.000176543 0)
(-0.000237018 0.000203502 0)
(-0.00025502 0.000231413 0)
(-0.000208891 0.000169033 0)
(-0.000228382 0.000194913 0)
(-0.000247786 0.000221695 0)
(-0.000266957 0.000249484 0)
(-0.000217076 0.000188847 0)
(-0.000237814 0.000214493 0)
(-0.000258462 0.000241096 0)
(-0.000278873 0.00026876 0)
(-0.000225022 0.000209956 0)
(-0.000247079 0.000235366 0)
(-0.00026904 0.000261787 0)
(-0.000290766 0.000289324 0)
(-0.000232728 0.000232438 0)
(-0.000256174 0.000257613 0)
(-0.000279518 0.000283851 0)
(-0.000302627 0.000311254 0)
(-0.000240197 0.000256371 0)
(-0.000265098 0.000281312 0)
(-0.000289888 0.000307364 0)
(-0.000314447 0.000334628 0)
(-0.000247433 0.000281828 0)
(-0.00027385 0.000306537 0)
(-0.000300144 0.0003324 0)
(-0.000326213 0.000359518 0)
(-0.000254444 0.000308872 0)
(-0.000282429 0.000333354 0)
(-0.000310279 0.000359025 0)
(-0.00033791 0.000385988 0)
(-0.000261239 0.000337559 0)
(-0.000290835 0.000361818 0)
(-0.000320284 0.000387296 0)
(-0.000349521 0.000414093 0)
(-0.000267828 0.000367935 0)
(-0.00029907 0.000391977 0)
(-0.00033015 0.000417258 0)
(-0.000361026 0.000443879 0)
(-0.000274224 0.000400033 0)
(-0.000307133 0.000423863 0)
(-0.000339866 0.000448945 0)
(-0.000372403 0.000475379 0)
(-0.00028044 0.000433873 0)
(-0.000315027 0.000457499 0)
(-0.000349421 0.000482379 0)
(-0.00038363 0.000508614 0)
(-0.000286489 0.000469462 0)
(-0.000322752 0.000492891 0)
(-0.000358805 0.000517567 0)
(-0.000394682 0.000543588 0)
(-0.000292387 0.000506791 0)
(-0.000330309 0.00053003 0)
(-0.000368005 0.000554499 0)
(-0.000405535 0.000580296 0)
(-0.000298148 0.000545839 0)
(-0.0003377 0.000568896 0)
(-0.000377009 0.000593155 0)
(-0.000416163 0.000618714 0)
(-0.000303785 0.000586569 0)
(-0.000344925 0.000609451 0)
(-0.000385806 0.000633497 0)
(-0.00042654 0.000658805 0)
(-0.000309312 0.00062893 0)
(-0.000351984 0.000651643 0)
(-0.000394382 0.000675474 0)
(-0.000436641 0.000700518 0)
(-0.000314741 0.000672856 0)
(-0.000358878 0.000695407 0)
(-0.000402725 0.000719019 0)
(-0.000446442 0.000743787 0)
(-0.000320082 0.00071827 0)
(-0.000365605 0.000740664 0)
(-0.000410823 0.000764055 0)
(-0.000455918 0.000788536 0)
(-0.000325345 0.000765082 0)
(-0.000372164 0.000787324 0)
(-0.000418663 0.000810489 0)
(-0.000465045 0.000834672 0)
(-0.000330536 0.000813189 0)
(-0.000378551 0.000835282 0)
(-0.000426234 0.000858219 0)
(-0.000473803 0.000882094 0)
(-0.00033566 0.000862481 0)
(-0.000384763 0.000884427 0)
(-0.000433523 0.000907132 0)
(-0.000482171 0.000930689 0)
(-0.000340717 0.000912838 0)
(-0.000390794 0.000934637 0)
(-0.00044052 0.000957107 0)
(-0.000490132 0.000980337 0)
(-0.000345707 0.000964134 0)
(-0.000396639 0.000985784 0)
(-0.000447212 0.00100801 0)
(-0.000497668 0.00103091 0)
(-0.000350624 0.00101624 0)
(-0.00040229 0.00103774 0)
(-0.000453589 0.00105972 0)
(-0.000504767 0.00108228 0)
(-0.000355459 0.00106902 0)
(-0.000407736 0.00109036 0)
(-0.000459641 0.00111209 0)
(-0.000511418 0.00113431 0)
(-0.000360201 0.00112234 0)
(-0.000412967 0.00114352 0)
(-0.000465358 0.001165 0)
(-0.000517611 0.00118686 0)
(-0.000364832 0.00117607 0)
(-0.000417969 0.00119707 0)
(-0.00047073 0.00121829 0)
(-0.00052334 0.00123981 0)
(-0.000369332 0.00123009 0)
(-0.000422729 0.00125091 0)
(-0.000475747 0.00127186 0)
(-0.000528599 0.00129303 0)
(-0.000373678 0.00128428 0)
(-0.000427228 0.0013049 0)
(-0.000480399 0.00132558 0)
(-0.000533387 0.00134639 0)
(-0.000377842 0.00133853 0)
(-0.000431448 0.00135894 0)
(-0.000484677 0.00137933 0)
(-0.000537702 0.00139979 0)
(-0.000381792 0.00139274 0)
(-0.000435369 0.00141292 0)
(-0.000488568 0.00143302 0)
(-0.000541543 0.00145312 0)
(-0.000385495 0.00144683 0)
(-0.000438967 0.00146676 0)
(-0.000492062 0.00148656 0)
(-0.000544908 0.0015063 0)
(-0.000388912 0.00150073 0)
(-0.000442218 0.00152038 0)
(-0.000495145 0.00153987 0)
(-0.000547797 0.00155924 0)
(-0.000392005 0.00155437 0)
(-0.000445093 0.00157373 0)
(-0.000497801 0.00159289 0)
(-0.000550208 0.0016119 0)
(-0.000394729 0.00160772 0)
(-0.000447564 0.00162677 0)
(-0.000500015 0.00164558 0)
(-0.000552134 0.00166422 0)
(-0.000397041 0.00166075 0)
(-0.000449598 0.00167945 0)
(-0.000501765 0.0016979 0)
(-0.00055357 0.00171616 0)
(-0.000398891 0.00171345 0)
(-0.000451159 0.00173177 0)
(-0.000503028 0.00174984 0)
(-0.000554503 0.00176771 0)
(-0.00040023 0.00176581 0)
(-0.00045221 0.00178373 0)
(-0.000503777 0.0018014 0)
(-0.000554917 0.00181887 0)
(-0.000401005 0.00181786 0)
(-0.000452708 0.00183533 0)
(-0.000503981 0.00185258 0)
(-0.000554792 0.00186962 0)
(-0.000401161 0.0018696 0)
(-0.000452608 0.00188661 0)
(-0.000503603 0.0019034 0)
(-0.000554098 0.00192 0)
(-0.000400641 0.00192109 0)
(-0.00045186 0.00193759 0)
(-0.000502601 0.00195389 0)
(-0.000552802 0.00197003 0)
(-0.000399382 0.00197237 0)
(-0.00045041 0.00198831 0)
(-0.000500925 0.0020041 0)
(-0.00055086 0.00201973 0)
(-0.000397321 0.00202348 0)
(-0.000448195 0.00203883 0)
(-0.000498518 0.00205405 0)
(-0.000548219 0.00206914 0)
(-0.000394388 0.00207448 0)
(-0.00044515 0.00208919 0)
(-0.000495317 0.0021038 0)
(-0.000544816 0.00211831 0)
(-0.000390506 0.00212542 0)
(-0.000441196 0.00213945 0)
(-0.000491242 0.00215339 0)
(-0.000540577 0.00216726 0)
(-0.000385605 0.00217639 0)
(-0.000436254 0.00218966 0)
(-0.000486214 0.00220287 0)
(-0.000535423 0.00221604 0)
(-0.000379575 0.00222741 0)
(-0.0004302 0.00223987 0)
(-0.000480104 0.00225228 0)
(-0.000529235 0.00226468 0)
(-0.00037239 0.00227854 0)
(-0.000422988 0.00229013 0)
(-0.00047286 0.00230166 0)
(-0.000521967 0.00231321 0)
(-0.000363784 0.0023296 0)
(-0.000414344 0.00234039 0)
(-0.000464205 0.00235111 0)
(-0.000513332 0.00236188 0)
)
;

boundaryField
{
    plateFix
    {
        type            calculated;
        value           uniform (0 0 0);
    }
    plate
    {
        type            calculated;
        value           nonuniform List<vector> 
168
(
(-3.30278e-05 -1.98388e-05 -5.76733e-23)
(-3.52784e-05 2.13164e-05 8.52601e-23)
(-2.47327e-05 -3.18553e-05 -2.23168e-23)
(-2.73353e-05 3.40911e-05 -6.41258e-23)
(-1.83998e-05 -4.0973e-05 -2.45577e-23)
(-2.16251e-05 4.39304e-05 6.91057e-23)
(-1.43721e-05 -4.71214e-05 1.01538e-22)
(-1.84353e-05 5.0797e-05 -4.90482e-23)
(-1.2432e-05 -5.12235e-05 -5.32217e-23)
(-1.75125e-05 5.57108e-05 9.92077e-24)
(-1.2009e-05 -5.37044e-05 2.00495e-23)
(-1.82396e-05 5.91569e-05 -6.75829e-25)
(-1.27665e-05 -5.50053e-05 7.21981e-24)
(-2.02546e-05 6.16388e-05 4.07628e-23)
(-1.44268e-05 -5.54026e-05 -3.11466e-23)
(-2.32614e-05 6.34875e-05 -3.83576e-23)
(-1.68164e-05 -5.51128e-05 1.75979e-24)
(-2.70776e-05 6.49752e-05 -2.41567e-23)
(-1.98102e-05 -5.42786e-05 -1.19661e-23)
(-3.15728e-05 6.63022e-05 5.22496e-24)
(-2.33263e-05 -5.29969e-05 8.86344e-24)
(-3.66633e-05 6.76279e-05 -5.85483e-25)
(-2.73086e-05 -5.13226e-05 8.27594e-24)
(-4.22927e-05 6.9076e-05 8.24835e-24)
(-3.17222e-05 -4.92785e-05 -1.1627e-23)
(-4.84262e-05 7.07466e-05 1.5847e-23)
(-3.65471e-05 -4.68603e-05 -4.5747e-25)
(-5.50447e-05 7.27219e-05 -2.12986e-24)
(-4.17762e-05 -4.40418e-05 -2.68828e-23)
(-6.21418e-05 7.50732e-05 6.15177e-24)
(-4.74124e-05 -4.0779e-05 3.39563e-23)
(-6.97213e-05 7.78657e-05 -1.90184e-23)
(-5.34672e-05 -3.70134e-05 -9.4981e-24)
(-7.77953e-05 8.11633e-05 7.26753e-24)
(-5.9958e-05 -3.26749e-05 4.56934e-24)
(-8.63825e-05 8.50331e-05 5.97677e-24)
(-6.69068e-05 -2.76831e-05 -4.95598e-24)
(-9.55067e-05 8.95477e-05 -1.08695e-23)
(-7.43383e-05 -2.19486e-05 -9.29269e-25)
(-0.000105196 9.47881e-05 -4.60183e-24)
(-8.22777e-05 -1.53718e-05 -6.21227e-24)
(-0.000115483 0.000100846 -1.42102e-23)
(-9.07492e-05 -7.84132e-06 -4.54125e-24)
(-0.000126405 0.000107826 8.83846e-24)
(-0.000100118 1.09841e-06 7.10357e-24)
(-0.000138445 0.000116155 4.02935e-24)
(-0.000110049 1.13405e-05 -1.83924e-24)
(-0.000151209 0.000125739 8.32129e-24)
(-0.000119859 2.22519e-05 1.24429e-23)
(-0.000163868 0.00013599 2.33898e-23)
(-0.000129527 3.38425e-05 -1.94185e-23)
(-0.000176447 0.000146918 -8.17344e-24)
(-0.000139028 4.61356e-05 -2.00395e-23)
(-0.000188968 0.000158545 4.64604e-24)
(-0.00014834 5.91671e-05 1.64493e-23)
(-0.00020145 0.000170906 -9.17773e-24)
(-0.000157444 7.29839e-05 5.42249e-24)
(-0.000213911 0.000184048 -7.52012e-24)
(-0.000166321 8.76425e-05 9.38191e-24)
(-0.000226366 0.000198025 -1.42435e-23)
(-0.000174954 0.000103208 1.6182e-23)
(-0.000238828 0.000212903 4.94654e-24)
(-0.000183333 0.00011975 3.91294e-25)
(-0.000251304 0.000228752 -1.32954e-23)
(-0.000191444 0.000137345 -1.14202e-23)
(-0.0002638 0.000245645 3.05016e-24)
(-0.000199283 0.000156073 6.8492e-24)
(-0.000276319 0.000263663 9.45066e-24)
(-0.000206842 0.000176013 2.09291e-23)
(-0.000288857 0.000282885 -9.01198e-24)
(-0.000214121 0.000197248 3.22918e-24)
(-0.000301412 0.000303391 8.86693e-24)
(-0.000221122 0.000219856 -3.53406e-24)
(-0.000313975 0.000325262 1.01227e-23)
(-0.000227848 0.000243915 -8.80627e-24)
(-0.000326533 0.000348573 -5.41813e-24)
(-0.000234307 0.000269494 -9.18142e-24)
(-0.000339071 0.000373395 -6.25298e-24)
(-0.000240512 0.000296658 1.62486e-23)
(-0.000351571 0.000399792 5.28733e-24)
(-0.000246474 0.000325462 1.3188e-23)
(-0.000364009 0.000427818 -8.02478e-24)
(-0.000252212 0.000355951 -6.98876e-24)
(-0.00037636 0.000457519 9.24944e-24)
(-0.000257743 0.000388157 7.50433e-24)
(-0.000388597 0.000488926 -8.62292e-24)
(-0.000263087 0.0004221 4.50833e-24)
(-0.000400691 0.00052206 -2.33884e-24)
(-0.000268265 0.000457787 1.32516e-23)
(-0.000412609 0.000556927 -4.80416e-24)
(-0.0002733 0.00049521 -6.72873e-24)
(-0.00042432 0.000593519 1.83137e-25)
(-0.000278212 0.000534346 -1.00891e-23)
(-0.000435792 0.000631813 1.00911e-25)
(-0.000283022 0.000575159 1.11236e-23)
(-0.00044699 0.000671773 7.90386e-24)
(-0.000287751 0.000617598 -2.8386e-24)
(-0.000457884 0.000713346 -2.47317e-23)
(-0.000292418 0.000661598 -9.15721e-26)
(-0.000468441 0.00075647 6.03651e-24)
(-0.000297039 0.000707082 -5.90013e-24)
(-0.000478631 0.000801064 -6.48877e-24)
(-0.000301629 0.00075396 8.90844e-24)
(-0.000488424 0.00084704 -9.78157e-24)
(-0.000306201 0.000802132 -1.41591e-24)
(-0.000497795 0.000894295 -2.67524e-25)
(-0.000310763 0.000851486 -2.69149e-24)
(-0.000506717 0.000942719 -1.37038e-23)
(-0.000315321 0.000901904 6.19186e-24)
(-0.00051517 0.000992191 5.10008e-24)
(-0.000319875 0.000953261 -8.71317e-24)
(-0.000523135 0.00104258 -1.30463e-23)
(-0.000324422 0.00100543 -1.01037e-24)
(-0.000530596 0.00109377 1.09011e-23)
(-0.000328953 0.00105827 -3.04728e-24)
(-0.000537541 0.00114561 -4.19215e-24)
(-0.000333456 0.00111166 3.78147e-24)
(-0.000543962 0.00119798 1.24325e-23)
(-0.000337913 0.00116547 -1.60093e-23)
(-0.000549854 0.00125074 -1.20484e-23)
(-0.000342299 0.00121957 2.07267e-23)
(-0.000555216 0.00130376 -9.99543e-25)
(-0.000346588 0.00127385 -1.64911e-23)
(-0.000560048 0.00135693 -4.33448e-24)
(-0.000350746 0.00132819 6.7295e-24)
(-0.000564354 0.00141014 1.89617e-23)
(-0.000354736 0.00138251 -1.19556e-23)
(-0.000568138 0.00146329 6.57706e-24)
(-0.000358518 0.00143672 -1.6543e-23)
(-0.000571407 0.00151628 -5.53847e-25)
(-0.000362047 0.00149075 2.47841e-23)
(-0.000574165 0.00156904 -8.39814e-24)
(-0.000365276 0.00154454 -7.6702e-24)
(-0.000576416 0.0016215 4.81253e-25)
(-0.000368154 0.00159805 -1.90372e-24)
(-0.000578164 0.00167363 -2.56069e-23)
(-0.000370629 0.00165125 8.28995e-24)
(-0.000579407 0.00172538 -7.18247e-24)
(-0.000372646 0.00170413 1.794e-23)
(-0.000580141 0.00177674 -2.2489e-23)
(-0.000374149 0.0017567 -1.84236e-23)
(-0.000580357 0.00182769 -2.03372e-23)
(-0.000375078 0.00180897 3.56217e-23)
(-0.000580037 0.00187823 1.29649e-23)
(-0.000375373 0.00186096 -2.9167e-23)
(-0.000579161 0.00192839 1.67116e-25)
(-0.000374972 0.00191271 -1.25285e-23)
(-0.000577695 0.00197818 -2.04237e-23)
(-0.00037381 0.00196426 -1.35739e-23)
(-0.000575599 0.00202763 -2.02959e-23)
(-0.000371818 0.00201568 1.22569e-23)
(-0.000572823 0.00207678 -6.89718e-24)
(-0.000368926 0.002067 6.9754e-24)
(-0.000569306 0.00212565 4.01762e-23)
(-0.000365056 0.00211831 6.1299e-24)
(-0.000564968 0.00217429 -6.58181e-24)
(-0.000360138 0.00216965 2.1402e-23)
(-0.000559736 0.00222271 -3.68834e-23)
(-0.000354068 0.00222108 -4.5307e-25)
(-0.000553486 0.00227097 -3.74961e-23)
(-0.000346878 0.00227267 -5.24973e-23)
(-0.000546225 0.00231907 5.28677e-23)
(-0.000338357 0.00232415 6.13656e-23)
(-0.000359002 0.002355 7.74318e-24)
(-0.000409556 0.00236553 6.22993e-25)
(-0.000459412 0.00237589 7.00873e-25)
(-0.000508543 0.00238637 2.46514e-24)
(-0.0005377 0.00236733 -2.25988e-23)
)
;
    }
    frontAndBackPlanes
    {
        type            empty;
    }
}


// ************************************************************************* //
