/*--------------------------------*- C++ -*----------------------------------*\
| =========                 |                                                 |
| \\      /  F ield         | OpenFOAM Extend Project: Open source CFD        |
|  \\    /   O peration     | Version:  1.6-ext                               |
|   \\  /    A nd           | Web:      www.extend-project.de                 |
|    \\/     M anipulation  |                                                 |
\*---------------------------------------------------------------------------*/
FoamFile
{
    version     2.0;
    format      ascii;
    class       volScalarField;
    location    "2.9";
    object      p;
}
// * * * * * * * * * * * * * * * * * * * * * * * * * * * * * * * * * * * * * //

dimensions      [0 2 -2 0 0 0 0];

internalField   nonuniform List<scalar> 
284
(
0.267182
0.235714
0.224261
0.219313
0.217461
0.21749
0.218411
0.219689
0.221784
0.23796
0.229085
0.223735
0.221228
0.220322
0.220442
0.221072
0.221927
0.224185
0.226017
0.222616
0.220054
0.218913
0.218957
0.219778
0.220832
0.221852
0.224882
0.216559
0.215496
0.214459
0.21427
0.215016
0.216394
0.217859
0.219073
0.222796
0.208766
0.208462
0.208068
0.208145
0.208892
0.210124
0.2113
0.211985
0.215734
0.201688
0.201572
0.201249
0.201002
0.200992
0.201083
0.200701
0.199187
0.200777
0.194966
0.19482
0.194226
0.193229
0.191808
0.189654
0.18585
0.178639
0.172822
0.188629
0.188361
0.187283
0.185237
0.181922
0.176676
0.167838
0.153036
0.10792
0.182926
0.182488
0.180796
0.177513
0.171878
0.162201
0.142626
0.103972
0.0094455
0.178223
0.177565
0.175199
0.170797
0.163561
0.151922
0.131575
0.0992917
0.0452639
0.174988
0.173914
0.170724
0.165357
0.157389
0.145872
0.128854
0.1044
0.071119
0.173723
0.171772
0.167334
0.160917
0.15248
0.141459
0.12702
0.10737
0.0838478
0.17606
0.171534
0.164986
0.157294
0.14839
0.137853
0.125223
0.108997
0.090617
0.182216
0.172408
0.163215
0.15441
0.145416
0.135495
0.12413
0.110156
0.0942989
0.210454
0.178549
0.163803
0.153967
0.145239
0.136154
0.125763
0.112865
0.097746
-0.124806
-0.0902783
-0.0248834
-0.0465775
0.0212281
-0.00881332
0.0507186
0.0247201
0.0678008
0.0462879
0.0759118
0.0570885
0.0801546
0.0612869
-0.0784589
-0.0700092
-0.0656669
-0.0601599
-0.0511098
-0.0385427
-0.0250111
-0.0123032
-0.00372142
-0.0528232
-0.0533665
-0.0520771
-0.0480603
-0.0404417
-0.0299493
-0.0191872
-0.00933817
-0.00372229
-0.0227567
-0.0285602
-0.0305206
-0.0292872
-0.0249815
-0.0184956
-0.0119434
-0.00591577
-0.00349049
0.00825631
-0.00203218
-0.00820924
-0.0108094
-0.0105331
-0.00837576
-0.00589025
-0.00329437
-0.00325265
0.0291608
0.0164497
0.0076551
0.00216146
-0.000763955
-0.00191391
-0.00227101
-0.00192453
-0.00303092
0.0402459
0.0264938
0.0159716
0.00847506
0.00349234
0.000444921
-0.00126581
-0.00183833
-0.00289226
0.0432942
0.0278517
0.0155996
0.00663292
0.000678733
-0.00274312
-0.00420831
-0.00418177
-0.0038527
-0.033198
-0.033894
-0.03204
-0.0283071
-0.0229703
-0.0165821
-0.00984364
-0.00567297
0.00484302
-0.0325922
-0.0334986
-0.0320457
-0.0289308
-0.0242022
-0.0181817
-0.0114297
-0.00661766
0.00348907
-0.0345357
-0.0356757
-0.0344543
-0.0314873
-0.0266216
-0.0201789
-0.0128122
-0.00705107
0.00306259
-0.0387052
-0.0399069
-0.0388976
-0.035971
-0.0307556
-0.0234867
-0.0151163
-0.00779744
0.00251941
-0.0452733
-0.0460829
-0.0452784
-0.0424096
-0.0367231
-0.028284
-0.0184214
-0.00914175
0.00151708
-0.0542479
-0.0536654
-0.0531141
-0.0503398
-0.0439648
-0.0340931
-0.0224171
-0.0110287
-8.12758e-06
-0.0649854
-0.0609315
-0.0605446
-0.0575449
-0.0504917
-0.0392523
-0.0259081
-0.0127896
-0.0017263
-0.0855774
-0.0685517
-0.066356
-0.0620817
-0.0538178
-0.0414199
-0.027222
-0.0134724
-0.00306908
)
;

boundaryField
{
    inlet
    {
        type            zeroGradient;
    }
    outlet
    {
        type            totalPressure;
        rho             none;
        psi             none;
        gamma           1;
        p0              uniform 0;
        value           uniform 0;
    }
    fixedWalls
    {
        type            zeroGradient;
    }
    frontAndBack
    {
        type            empty;
    }
}


// ************************************************************************* //
