/*--------------------------------*- C++ -*----------------------------------*\
| =========                 |                                                 |
| \\      /  F ield         | OpenFOAM Extend Project: Open source CFD        |
|  \\    /   O peration     | Version:  1.6-ext                               |
|   \\  /    A nd           | Web:      www.extend-project.de                 |
|    \\/     M anipulation  |                                                 |
\*---------------------------------------------------------------------------*/
FoamFile
{
    version     2.0;
    format      ascii;
    class       surfaceScalarField;
    location    "2.9";
    object      phi;
}
// * * * * * * * * * * * * * * * * * * * * * * * * * * * * * * * * * * * * * //

dimensions      [0 3 -1 0 0 0 0];

internalField   nonuniform List<scalar> 
525
(
0.000160836
3.91644e-05
0.000117119
4.37161e-05
8.15982e-05
3.55213e-05
5.46316e-05
2.69666e-05
3.47513e-05
1.98803e-05
1.9848e-05
1.49033e-05
8.49424e-06
1.13537e-05
1.09783e-06
7.39641e-06
1.09783e-06
0.000204984
3.41804e-05
0.000190469
5.82314e-05
0.000162674
6.33161e-05
0.000129463
6.01781e-05
9.5445e-05
5.38979e-05
6.31682e-05
4.71801e-05
3.40803e-05
4.04416e-05
1.08096e-05
3.06671e-05
1.19074e-05
0.000208691
2.54893e-05
0.000208284
5.86388e-05
0.000194624
7.69761e-05
0.000169288
8.55137e-05
0.000135618
8.75673e-05
9.71386e-05
8.566e-05
5.71174e-05
8.04628e-05
2.06577e-05
6.71268e-05
3.25651e-05
0.00020508
2.0409e-05
0.000208345
5.53743e-05
0.000203021
8.22995e-05
0.000186517
0.000102019
0.00015863
0.000115454
0.000120757
0.000123533
7.56353e-05
0.000125585
2.95095e-05
0.000113253
6.20747e-05
0.000202402
1.80072e-05
0.000205409
5.23671e-05
0.00020402
8.36888e-05
0.000194194
0.000111845
0.000173102
0.000136545
0.000139333
0.000157302
9.31435e-05
0.000171775
3.94797e-05
0.000166916
0.000101554
0.000201279
1.67285e-05
0.000203954
4.96918e-05
0.000205003
8.264e-05
0.000200608
0.00011624
0.000186726
0.000150427
0.00015954
0.000184488
0.000115752
0.000215563
5.5467e-05
0.000227201
0.000157021
0.000201205
1.5524e-05
0.000204598
4.62983e-05
0.000208431
7.88068e-05
0.00020975
0.000114921
0.000204556
0.00015562
0.000187991
0.000201054
0.000152317
0.000251237
8.74224e-05
0.000292095
0.000244444
0.000201742
1.37818e-05
0.000206923
4.11175e-05
0.000214526
7.12035e-05
0.00022263
0.000106817
0.000228083
0.000150168
0.000225965
0.000203171
0.000204128
0.000273074
0.000138594
0.000357628
0.000383038
0.000202647
1.11346e-05
0.000210381
3.33839e-05
0.000222513
5.90708e-05
0.000238373
9.09578e-05
0.00025776
0.000130781
0.000282395
0.000178536
0.000319451
0.000236019
0.000384383
0.000292696
0.000360904
0.000406517
0.000203921
7.21335e-06
0.000214667
2.26381e-05
0.000231148
4.259e-05
0.000253196
6.89093e-05
0.000282071
0.000101906
0.000320933
0.000139674
0.000373477
0.000183475
0.000454518
0.000211654
0.000280422
0.000535001
0.000205982
1.2313e-06
0.000220162
8.45789e-06
0.000240012
2.27399e-05
0.000265144
4.3778e-05
0.000296771
7.02788e-05
0.000337353
9.90923e-05
0.000388821
0.000132007
0.000454923
0.000145552
0.000186938
0.000548407
0.000209393
-8.1621e-06
0.000227141
-9.28967e-06
0.000248337
1.54346e-06
0.000273082
1.90331e-05
0.000302865
4.04964e-05
0.000339803
6.21538e-05
0.000386458
8.5352e-05
0.000438887
9.31237e-05
0.000111467
0.000514358
0.000214447
-2.26092e-05
0.000231947
-2.67899e-05
0.000249129
-1.5638e-05
0.000268332
-1.69902e-07
0.000292078
1.67499e-05
0.000322451
3.17811e-05
0.000361819
4.59837e-05
0.000404189
5.07543e-05
5.68463e-05
0.000458809
0.000211584
-3.41928e-05
0.000216306
-3.15126e-05
0.000219368
-1.86995e-05
0.000225978
-6.78051e-06
0.000239715
3.01349e-06
0.000261324
1.01723e-05
0.000291391
1.59159e-05
0.000324557
1.75891e-05
1.85958e-05
0.000362807
0.000165807
0.000134295
0.000115595
0.000108815
0.000111828
0.000122
0.000137916
0.000155505
0.000174101
0.00025236
0.000154157
5.2746e-05
0.000199614
0.000513543
0.000175615
8.29322e-05
0.000483357
0.000584123
0.000139899
7.61241e-05
0.000590931
0.000563459
9.07968e-05
5.15013e-05
0.000588082
0.000503246
4.63602e-05
2.37897e-05
0.000530958
0.000395181
1.39867e-05
4.69246e-06
0.000414278
0.000188088
0.00019278
0.000212855
-2.58363e-06
-1.06577e-05
0.00025088
-3.62059e-05
-1.81908e-06
0.000290764
-7.25575e-05
3.26744e-05
0.000323306
-0.00011253
7.99877e-05
0.000345523
-0.000150348
0.000128131
0.000357289
-0.000178801
0.000167034
0.000360002
-0.000191345
0.000188633
0.000356392
-0.000189867
0.000193477
-0.000164282
0.00017223
0.000464935
1.58387e-05
0.000463258
-3.45287e-05
0.000468675
-7.79752e-05
0.000472796
-0.00011665
0.000470674
-0.000148227
0.000460467
-0.000168594
0.000443145
-0.000174023
0.000420708
-0.00016743
-0.00014138
0.000586625
2.01445e-05
0.000580409
-2.83125e-05
0.000571963
-6.95297e-05
0.000558525
-0.000103212
0.000538149
-0.000127851
0.000510431
-0.000140876
0.000477385
-0.000140977
0.000441124
-0.00013117
-0.000108631
0.000597945
1.02814e-05
0.000596355
-2.67224e-05
0.000584714
-5.78884e-05
0.000563347
-8.18454e-05
0.00053269
-9.71934e-05
0.000494453
-0.000102638
0.000452252
-9.87769e-05
0.000409262
-8.81792e-05
-7.22144e-05
0.000542671
-1.43167e-06
0.000539759
-2.38108e-05
0.00052355
-4.16791e-05
0.00049545
-5.37454e-05
0.000457767
-5.95106e-05
0.000414161
-5.90326e-05
0.000369297
-5.39123e-05
0.000327134
-4.60167e-05
-3.83636e-05
0.000418207
-5.36103e-06
0.000407748
-1.33516e-05
0.000384758
-1.8689e-05
0.000352199
-2.11864e-05
0.000313861
-2.11722e-05
0.000274102
-1.92738e-05
0.000236764
-1.65749e-05
0.000204599
-1.38511e-05
-1.29238e-05
0.000187419
0.000174068
0.000155379
0.000134192
0.00011302
9.37463e-05
7.71714e-05
6.33203e-05
-4.91512e-06
4.91512e-06
-1.39647e-05
9.04957e-06
-2.18937e-05
7.92904e-06
-2.59959e-05
4.10214e-06
-2.53469e-05
-6.49001e-07
-2.01615e-05
-5.18535e-06
-1.13038e-05
-8.85765e-06
2.24194e-07
-1.1528e-05
-1.21326e-05
-9.81375e-06
1.47289e-05
-2.4623e-05
2.38589e-05
-3.59475e-05
1.92535e-05
-3.96143e-05
7.76895e-06
-3.4569e-05
-5.69427e-06
-2.18216e-05
-1.79327e-05
-3.94325e-06
-2.6736e-05
1.67474e-05
-3.22187e-05
-3.28246e-05
-1.17405e-05
2.64693e-05
-2.82626e-05
4.0381e-05
-3.96766e-05
3.06674e-05
-4.13699e-05
9.46226e-06
-3.23178e-05
-1.47464e-05
-1.41072e-05
-3.61433e-05
1.01539e-05
-5.09972e-05
3.66901e-05
-5.87549e-05
-5.85239e-05
-1.25963e-05
3.90656e-05
-2.89615e-05
5.67462e-05
-3.90076e-05
4.07135e-05
-3.80659e-05
8.5206e-06
-2.55558e-05
-2.72565e-05
-3.03262e-06
-5.86664e-05
2.55851e-05
-7.96149e-05
5.65364e-05
-8.97062e-05
-8.74456e-05
-1.21112e-05
5.11768e-05
-2.48445e-05
6.94795e-05
-3.02784e-05
4.61475e-05
-2.4404e-05
2.64622e-06
-7.61615e-06
-4.40444e-05
1.8029e-05
-8.43116e-05
4.96027e-05
-0.000111189
8.28034e-05
-0.000122907
-0.000117354
-8.23137e-06
5.94082e-05
-1.02789e-05
7.1527e-05
-4.33073e-06
4.01993e-05
1.0361e-05
-1.20455e-05
3.30449e-05
-6.67283e-05
6.15233e-05
-0.00011279
9.30593e-05
-0.000142725
0.000124871
-0.000154719
-0.000144724
4.95275e-06
5.44554e-05
2.37259e-05
5.27539e-05
4.95804e-05
1.43448e-05
7.75414e-05
-4.00065e-05
0.000106675
-9.58623e-05
0.000135782
-0.000141897
0.000163284
-0.000170226
0.000188606
-0.000180041
-0.000164717
4.37977e-05
9.47325e-05
0.000141752
0.000181733
0.000214002
0.000239139
0.000257546
0.000270982
)
;

boundaryField
{
    inlet
    {
        type            calculated;
        value           uniform -0.0002;
    }
    outlet
    {
        type            calculated;
        value           nonuniform List<scalar> 
15
(
1.23568e-05
3.74394e-05
6.23893e-05
8.54581e-05
0.000112712
0.000152241
0.000208599
0.000278495
0.000348443
0.000397806
0.000408375
0.000372845
0.000293283
0.000179159
5.03965e-05
)
;
    }
    fixedWalls
    {
        type            calculated;
        value           uniform 0;
    }
    frontAndBack
    {
        type            empty;
    }
}


// ************************************************************************* //
