/*--------------------------------*- C++ -*----------------------------------*\
| =========                 |                                                 |
| \\      /  F ield         | OpenFOAM Extend Project: Open source CFD        |
|  \\    /   O peration     | Version:  1.6-ext                               |
|   \\  /    A nd           | Web:      www.extend-project.de                 |
|    \\/     M anipulation  |                                                 |
\*---------------------------------------------------------------------------*/
FoamFile
{
    version     2.0;
    format      ascii;
    class       volVectorField;
    location    "2.9";
    object      U;
}
// * * * * * * * * * * * * * * * * * * * * * * * * * * * * * * * * * * * * * //

dimensions      [0 1 -1 0 0 0 0];

internalField   nonuniform List<vector> 
284
(
(0.163775 0.0266041 0)
(0.141818 0.0268181 0)
(0.0988568 0.0192227 0)
(0.0665516 0.0121543 0)
(0.0436238 0.00718985 0)
(0.0265848 0.00427098 0)
(0.0134944 0.00257353 0)
(0.0032123 0.000980427 0)
(-0.000645282 -0.00118762 0)
(0.200596 0.0433734 0)
(0.202121 0.0576248 0)
(0.179584 0.0533241 0)
(0.147058 0.0441137 0)
(0.112507 0.0348148 0)
(0.078953 0.0274383 0)
(0.0476996 0.021675 0)
(0.0195642 0.0149561 0)
(0.00324128 0.0038296 0)
(0.203092 0.0290933 0)
(0.211062 0.0596089 0)
(0.204828 0.0722298 0)
(0.1847 0.074773 0)
(0.154354 0.0716943 0)
(0.117497 0.0661332 0)
(0.0770917 0.0590157 0)
(0.0356072 0.0467488 0)
(0.00757333 0.0205432 0)
(0.20152 0.0223975 0)
(0.207653 0.0569593 0)
(0.208111 0.0806793 0)
(0.197823 0.0954079 0)
(0.175579 0.103005 0)
(0.142299 0.105373 0)
(0.0996018 0.102745 0)
(0.0496103 0.0888389 0)
(0.0118486 0.0458302 0)
(0.20056 0.0189673 0)
(0.204042 0.0537208 0)
(0.206126 0.0835087 0)
(0.201679 0.108112 0)
(0.186943 0.127434 0)
(0.159881 0.141542 0)
(0.11927 0.148919 0)
(0.0644027 0.139 0)
(0.0174382 0.0801472 0)
(0.20023 0.0172907 0)
(0.202425 0.0510169 0)
(0.205146 0.0836068 0)
(0.204675 0.115132 0)
(0.196722 0.145095 0)
(0.177386 0.172604 0)
(0.142416 0.194868 0)
(0.0859304 0.196784 0)
(0.0275671 0.126107 0)
(0.200214 0.0161424 0)
(0.202498 0.0481907 0)
(0.206648 0.0813497 0)
(0.210259 0.116878 0)
(0.209622 0.155095 0)
(0.200509 0.195438 0)
(0.177231 0.235051 0)
(0.123671 0.255003 0)
(0.0483208 0.198265 0)
(0.200342 0.0147324 0)
(0.203667 0.0440919 0)
(0.210384 0.0758488 0)
(0.219048 0.112418 0)
(0.226988 0.155523 0)
(0.230914 0.206586 0)
(0.223351 0.271099 0)
(0.197085 0.340736 0)
(0.0601599 0.287939 0)
(0.200545 0.0125938 0)
(0.20552 0.0377755 0)
(0.215654 0.0660947 0)
(0.230256 0.100434 0)
(0.248279 0.142997 0)
(0.272179 0.195193 0)
(0.299663 0.262579 0)
(0.357897 0.346123 0)
(0.399367 0.42937 0)
(0.200841 0.00940021 0)
(0.207971 0.0286696 0)
(0.221766 0.0517897 0)
(0.241455 0.0811795 0)
(0.266628 0.118093 0)
(0.301477 0.161852 0)
(0.343598 0.214291 0)
(0.411304 0.256667 0)
(0.492419 0.336736 0)
(0.201389 0.00476756 0)
(0.211536 0.0163752 0)
(0.228874 0.0334434 0)
(0.251672 0.0569575 0)
(0.279697 0.0866324 0)
(0.315911 0.119807 0)
(0.36087 0.158039 0)
(0.418307 0.174417 0)
(0.498549 0.227172 0)
(0.202456 -0.00258606 0)
(0.216856 0.000269839 0)
(0.236825 0.0120898 0)
(0.259919 0.0308149 0)
(0.286917 0.0544174 0)
(0.319787 0.0792547 0)
(0.361766 0.106916 0)
(0.409628 0.115868 0)
(0.473564 0.141467 0)
(0.204216 -0.0138788 0)
(0.222598 -0.0183986 0)
(0.240305 -0.00884446 0)
(0.258033 0.00734133 0)
(0.279145 0.0262702 0)
(0.305591 0.0446052 0)
(0.340976 0.063123 0)
(0.381057 0.069533 0)
(0.429743 0.0791449 0)
(0.201754 -0.0352557 0)
(0.214959 -0.0370653 0)
(0.217921 -0.0233404 0)
(0.221475 -0.00779847 0)
(0.231339 0.00632726 0)
(0.248736 0.0177904 0)
(0.275224 0.0274132 0)
(0.306725 0.0305081 0)
(0.3431 0.0326263 0)
(0.16466 -0.0249007 0)
(0.151167 -0.0223702 0)
(0.123734 -0.0127656 0)
(0.11007 -0.00507663 0)
(0.108767 0.000266351 0)
(0.115737 0.00371644 0)
(0.129302 0.00596083 0)
(0.14626 0.00624931 0)
(0.164958 0.00591605 0)
(0.357138 0.165554 0)
(0.190829 0.0414084 0)
(0.545384 0.173863 0)
(0.502265 0.0743764 0)
(0.575779 0.162497 0)
(0.596363 0.0902027 0)
(0.542291 0.114023 0)
(0.581931 0.066136 0)
(0.482351 0.0650471 0)
(0.52081 0.03582 0)
(0.380198 0.0250525 0)
(0.40756 0.00998478 0)
(0.18216 0.00310752 0)
(0.192169 -0.00125616 0)
(0.198342 -0.0106178 0)
(0.227174 -0.0291876 0)
(0.270103 -0.061689 0)
(0.309442 -0.103018 0)
(0.338213 -0.144561 0)
(0.355888 -0.177546 0)
(0.360647 -0.194362 0)
(0.36223 -0.196145 0)
(0.347335 -0.172263 0)
(0.472776 0.00677611 0)
(0.460963 -0.039549 0)
(0.464536 -0.0802477 0)
(0.472406 -0.119084 0)
(0.474827 -0.153198 0)
(0.469597 -0.177343 0)
(0.452646 -0.186219 0)
(0.436637 -0.182296 0)
(0.399362 -0.155958 0)
(0.593028 0.0262821 0)
(0.584622 -0.0267105 0)
(0.576986 -0.0716088 0)
(0.567485 -0.109648 0)
(0.551114 -0.138988 0)
(0.527671 -0.156461 0)
(0.493839 -0.159588 0)
(0.46381 -0.151462 0)
(0.411726 -0.126644 0)
(0.597843 0.0169219 0)
(0.600246 -0.0266892 0)
(0.593288 -0.0636616 0)
(0.577204 -0.0933202 0)
(0.550882 -0.113918 0)
(0.516275 -0.123368 0)
(0.472857 -0.12132 0)
(0.434218 -0.110539 0)
(0.377217 -0.0906136 0)
(0.54096 0.00337838 0)
(0.545095 -0.0264092 0)
(0.535247 -0.0511847 0)
(0.512821 -0.0693854 0)
(0.479084 -0.0797479 0)
(0.437546 -0.0815543 0)
(0.390876 -0.0761316 0)
(0.349837 -0.0658321 0)
(0.297861 -0.0537406 0)
(0.419735 -0.00659016 0)
(0.416484 -0.0209362 0)
(0.399348 -0.0312614 0)
(0.370828 -0.0369239 0)
(0.334258 -0.0380332 0)
(0.294129 -0.0353454 0)
(0.254332 -0.0306196 0)
(0.22078 -0.0252804 0)
(0.183133 -0.0222051 0)
(0.191946 -0.00518992 0)
(0.182298 -0.00771571 0)
(0.165772 -0.00864884 0)
(0.145276 -0.00826624 0)
(0.123577 -0.0070992 0)
(0.103 -0.00568722 0)
(0.0849349 -0.00455444 0)
(0.0702995 -0.00393153 0)
(0.0529315 -0.00453859 0)
(-0.00170905 0.00170776 0)
(-0.00889122 0.00366951 0)
(-0.0186022 0.00351669 0)
(-0.024914 0.00223574 0)
(-0.0266286 0.000499446 0)
(-0.0235416 -0.00129857 0)
(-0.0156137 -0.00294514 0)
(-0.00887214 -0.004284 0)
(0.00997029 -0.00476403 0)
(-0.00391286 0.00887818 0)
(-0.0167776 0.0153951 0)
(-0.0318994 0.013138 0)
(-0.0398541 0.00638136 0)
(-0.03897 -0.00185246 0)
(-0.0296394 -0.00953669 0)
(-0.0127441 -0.0154539 0)
(0.00386315 -0.019549 0)
(0.0337306 -0.0204206 0)
(-0.00486702 0.0203521 0)
(-0.0198068 0.0319285 0)
(-0.0361769 0.025131 0)
(-0.0431807 0.00921111 0)
(-0.0391434 -0.00921134 0)
(-0.0249149 -0.0256983 0)
(-0.00233845 -0.0373449 0)
(0.021032 -0.0440186 0)
(0.0578686 -0.0444152 0)
(-0.00544818 0.0327934 0)
(-0.0209613 0.048831 0)
(-0.0366246 0.0362509 0)
(-0.0415108 0.00978519 0)
(-0.0343025 -0.0200896 0)
(-0.0161915 -0.0464234 0)
(0.0105043 -0.0643031 0)
(0.0388286 -0.0732618 0)
(0.0804448 -0.0722502 0)
(-0.00570963 0.0454367 0)
(-0.0195035 0.0642128 0)
(-0.0305704 0.0448516 0)
(-0.0303351 0.00722872 0)
(-0.0184374 -0.0348384 0)
(0.00374875 -0.071096 0)
(0.0333856 -0.0952849 0)
(0.0645555 -0.106238 0)
(0.107454 -0.102527 0)
(-0.0046873 0.0563364 0)
(-0.0115168 0.0732855 0)
(-0.00993687 0.0460377 0)
(0.000779122 -0.00229111 0)
(0.0203187 -0.0547026 0)
(0.0470077 -0.0990015 0)
(0.0776367 -0.128113 0)
(0.10857 -0.140131 0)
(0.147075 -0.132471 0)
(0.0012177 0.0661337 0)
(0.00995922 0.070451 0)
(0.0351794 0.0335323 0)
(0.0629222 -0.0226743 0)
(0.0926929 -0.0806698 0)
(0.122748 -0.128606 0)
(0.150949 -0.158876 0)
(0.177164 -0.170168 0)
(0.204078 -0.157513 0)
(0.0316492 0.033908 0)
(0.0633883 0.0318703 0)
(0.118718 -0.0063801 0)
(0.163547 -0.0595821 0)
(0.200644 -0.11346 0)
(0.230038 -0.157194 0)
(0.250548 -0.18296 0)
(0.266978 -0.19072 0)
(0.275273 -0.172249 0)
)
;

boundaryField
{
    inlet
    {
        type            fixedValue;
        value           uniform (0.2 0 0);
    }
    outlet
    {
        type            zeroGradient;
    }
    fixedWalls
    {
        type            fixedValue;
        value           uniform (0 0 0);
    }
    frontAndBack
    {
        type            empty;
    }
}


// ************************************************************************* //
