/*--------------------------------*- C++ -*----------------------------------*\
| =========                 |                                                 |
| \\      /  F ield         | OpenFOAM Extend Project: Open source CFD        |
|  \\    /   O peration     | Version:  1.6-ext                               |
|   \\  /    A nd           | Web:      www.extend-project.de                 |
|    \\/     M anipulation  |                                                 |
\*---------------------------------------------------------------------------*/
FoamFile
{
    version     2.0;
    format      ascii;
    class       volScalarField;
    location    "5";
    object      p;
}
// * * * * * * * * * * * * * * * * * * * * * * * * * * * * * * * * * * * * * //

dimensions      [0 2 -2 0 0 0 0];

internalField   nonuniform List<scalar> 
70
(
-0.0589423
-0.0176152
0.0170185
0.04786
0.0678135
0.0778363
0.0822791
-0.0464487
-0.0371421
-0.0329771
-0.0311584
-0.0299238
-0.0274124
-0.0227492
-0.0151467
-0.00520816
-0.023229
-0.0233309
-0.0233073
-0.0234539
-0.023012
-0.0209366
-0.0171443
-0.0110275
-0.00424974
0.00262308
-0.00436231
-0.00820622
-0.0107245
-0.0119168
-0.0113236
-0.00947262
-0.00585407
-0.00302467
0.0304167
0.0188411
0.0100793
0.00407334
0.000333474
-0.00139246
-0.00203768
-0.00124414
-0.00204001
0.0493216
0.0348353
0.0236346
0.0153617
0.00951062
0.00569227
0.00300328
0.00158013
-0.00154836
0.0595811
0.0439822
0.0313014
0.0214536
0.0140947
0.0088253
0.00494168
0.00228828
-0.00152184
0.0630717
0.0460969
0.0319364
0.0207211
0.012263
0.00621593
0.00206929
-0.000504358
-0.00299137
)
;

boundaryField
{
    inlet
    {
        type            zeroGradient;
    }
    outlet
    {
        type            totalPressure;
        rho             none;
        psi             none;
        gamma           1;
        p0              uniform 0;
        value           uniform 0;
    }
    fixedWalls
    {
        type            zeroGradient;
    }
    frontAndBack
    {
        type            empty;
    }
    procBoundary1to2
    {
        type            processor;
        value           nonuniform List<scalar> 7(-0.0941685 0.00315658 0.0470027 0.0745605 0.0903596 0.0978047 0.102055);
    }
    procBoundary1to0
    {
        type            processor;
        value           nonuniform List<scalar> 9(-0.0539865 -0.0366972 -0.0337035 -0.032789 -0.0322773 -0.0302633 -0.025595 -0.0174451 -0.00551994);
    }
}


// ************************************************************************* //
