/*--------------------------------*- C++ -*----------------------------------*\
| =========                 |                                                 |
| \\      /  F ield         | OpenFOAM Extend Project: Open source CFD        |
|  \\    /   O peration     | Version:  1.6-ext                               |
|   \\  /    A nd           | Web:      www.extend-project.de                 |
|    \\/     M anipulation  |                                                 |
\*---------------------------------------------------------------------------*/
FoamFile
{
    version     2.0;
    format      ascii;
    class       surfaceScalarField;
    location    "5";
    object      phi;
}
// * * * * * * * * * * * * * * * * * * * * * * * * * * * * * * * * * * * * * //

dimensions      [0 3 -1 0 0 0 0];

internalField   nonuniform List<scalar> 
123
(
5.86422e-05
0.000187017
9.37594e-05
0.000472983
8.73891e-05
0.000589295
6.08171e-05
0.000592184
3.00704e-05
0.000537582
7.4331e-06
0.000422043
0.000198897
0.000190015
6.92246e-06
0.00021825
-1.59514e-05
0.000253108
-3.36923e-05
0.00028869
-5.17189e-05
0.000320834
-7.19885e-05
0.00034757
-9.47392e-05
0.00036716
-0.000115876
0.000379551
-0.000135555
-0.000143818
0.000447179
3.27265e-05
0.000438755
-7.52798e-06
0.000442648
-3.75855e-05
0.000453036
-6.21062e-05
0.000464827
-8.378e-05
0.000474182
-0.000104095
0.000478568
-0.000120262
0.000477071
-0.000134058
-0.000134968
0.000584095
3.79265e-05
0.000577046
-4.78372e-07
0.000572598
-3.31378e-05
0.000568992
-5.85005e-05
0.000564494
-7.92819e-05
0.000556851
-9.64518e-05
0.000544953
-0.000108363
0.000527736
-0.000116841
-0.000113279
0.000604494
2.56159e-05
0.000608694
-4.6777e-06
0.000605549
-2.99932e-05
0.000597171
-5.01226e-05
0.000583645
-6.57563e-05
0.00056436
-7.71658e-05
0.000540017
-8.40198e-05
0.000510267
-8.7091e-05
-8.20538e-05
0.000554453
8.74463e-06
0.000559686
-9.91104e-06
0.000554776
-2.50826e-05
0.000541136
-3.6483e-05
0.000519823
-4.44435e-05
0.000491711
-4.90533e-05
0.00045863
-5.09392e-05
0.000421712
-5.0173e-05
-4.7023e-05
0.000432151
-1.36365e-06
0.000430465
-8.22549e-06
0.000418586
-1.32033e-05
0.000398345
-1.62416e-05
0.000371585
-1.76837e-05
0.000340334
-1.78025e-05
0.000306719
-1.7324e-05
0.000272923
-1.63768e-05
-1.66911e-05
0.000197533
0.000189308
0.000176104
0.000159863
0.000142179
0.000124377
0.000107053
9.06758e-05
)
;

boundaryField
{
    inlet
    {
        type            calculated;
        value           nonuniform 0();
    }
    outlet
    {
        type            calculated;
        value           nonuniform List<scalar> 7(0.000383291 0.00046822 0.000506047 0.000479041 0.000386681 0.000242591 7.39847e-05);
    }
    fixedWalls
    {
        type            calculated;
        value           uniform 0;
    }
    frontAndBack
    {
        type            empty;
    }
    procBoundary1to2
    {
        type            processor;
        value           nonuniform List<scalar> 7(-0.00024566 -0.0005081 -0.000582925 -0.000565612 -0.000506835 -0.000399405 -0.000191464);
    }
    procBoundary1to0
    {
        type            processor;
        value           nonuniform List<scalar> 9(-9.92012e-06 -1.22832e-05 -1.16625e-06 1.61375e-05 3.98438e-05 6.80033e-05 9.62862e-05 0.000123165 0.000140078);
    }
}


// ************************************************************************* //
