/*--------------------------------*- C++ -*----------------------------------*\
| =========                 |                                                 |
| \\      /  F ield         | OpenFOAM Extend Project: Open source CFD        |
|  \\    /   O peration     | Version:  1.6-ext                               |
|   \\  /    A nd           | Web:      www.extend-project.de                 |
|    \\/     M anipulation  |                                                 |
\*---------------------------------------------------------------------------*/
FoamFile
{
    version     2.0;
    format      ascii;
    class       volVectorField;
    location    "5";
    object      U;
}
// * * * * * * * * * * * * * * * * * * * * * * * * * * * * * * * * * * * * * //

dimensions      [0 1 -1 0 0 0 0];

internalField   nonuniform List<vector> 
70
(
(0.182016 0.0444692 0)
(0.4948 0.0834248 0)
(0.595125 0.101857 0)
(0.584964 0.0770066 0)
(0.525588 0.0437426 0)
(0.41306 0.0143751 0)
(0.196604 -2.29304e-05 0)
(0.182086 -0.00523497 0)
(0.199908 -0.0138083 0)
(0.233795 -0.0243013 0)
(0.270505 -0.0398948 0)
(0.304828 -0.0604703 0)
(0.33595 -0.0849591 0)
(0.358377 -0.109004 0)
(0.377053 -0.131864 0)
(0.383734 -0.144571 0)
(0.459546 0.021067 0)
(0.440009 -0.0156972 0)
(0.43774 -0.0412179 0)
(0.446552 -0.0625946 0)
(0.458268 -0.0830001 0)
(0.471445 -0.103865 0)
(0.476286 -0.121884 0)
(0.483043 -0.138324 0)
(0.469719 -0.142673 0)
(0.591156 0.0450554 0)
(0.581627 0.00115717 0)
(0.574321 -0.0324565 0)
(0.570847 -0.0595168 0)
(0.566602 -0.0822126 0)
(0.563141 -0.101952 0)
(0.55002 -0.116523 0)
(0.54292 -0.128163 0)
(0.508614 -0.12681 0)
(0.603084 0.034622 0)
(0.609118 -0.00158178 0)
(0.608504 -0.0307869 0)
(0.603144 -0.0544202 0)
(0.591518 -0.0735104 0)
(0.57695 -0.0884883 0)
(0.551395 -0.0982933 0)
(0.532038 -0.104299 0)
(0.482688 -0.0995324 0)
(0.54962 0.0163941 0)
(0.560122 -0.00790924 0)
(0.559727 -0.0283289 0)
(0.550439 -0.044533 0)
(0.532334 -0.0567211 0)
(0.508418 -0.0648132 0)
(0.474883 -0.0690313 0)
(0.445591 -0.0695322 0)
(0.391095 -0.0646018 0)
(0.429913 0.000351955 0)
(0.434072 -0.0117627 0)
(0.426975 -0.0210379 0)
(0.410632 -0.0272868 0)
(0.386566 -0.0308498 0)
(0.357449 -0.0319578 0)
(0.323434 -0.0315459 0)
(0.292498 -0.0297052 0)
(0.247005 -0.0286165 0)
(0.19974 -0.00352673 0)
(0.194772 -0.0059459 0)
(0.183719 -0.00715818 0)
(0.168679 -0.00734634 0)
(0.151386 -0.00686069 0)
(0.133455 -0.00601264 0)
(0.115619 -0.00532955 0)
(0.0997184 -0.00498456 0)
(0.0772148 -0.00602431 0)
)
;

boundaryField
{
    inlet
    {
        type            fixedValue;
        value           nonuniform 0();
    }
    outlet
    {
        type            zeroGradient;
    }
    fixedWalls
    {
        type            fixedValue;
        value           uniform (0 0 0);
    }
    frontAndBack
    {
        type            empty;
    }
    procBoundary1to2
    {
        type            processor;
        value           nonuniform List<vector> 7((0.351868 0.166308 0) (0.54195 0.178566 0) (0.574999 0.168384 0) (0.543632 0.11912 0) (0.484873 0.0685601 0) (0.383194 0.0271057 0) (0.184662 0.00384878 0));
    }
    procBoundary1to0
    {
        type            processor;
        value           nonuniform List<vector> 9((0.0256226 0.0268701 0) (0.0475442 0.036005 0) (0.0951808 0.0260279 0) (0.13678 0.00608429 0) (0.174445 -0.0206897 0) (0.208409 -0.0520333 0) (0.236217 -0.0839256 0) (0.258618 -0.114355 0) (0.277082 -0.135277 0));
    }
}


// ************************************************************************* //
