/*--------------------------------*- C++ -*----------------------------------*\
| =========                 |                                                 |
| \\      /  F ield         | OpenFOAM Extend Project: Open source CFD        |
|  \\    /   O peration     | Version:  1.6-ext                               |
|   \\  /    A nd           | Web:      www.extend-project.de                 |
|    \\/     M anipulation  |                                                 |
\*---------------------------------------------------------------------------*/
FoamFile
{
    version     2.0;
    format      ascii;
    class       surfaceScalarField;
    location    "3.2";
    object      phi;
}
// * * * * * * * * * * * * * * * * * * * * * * * * * * * * * * * * * * * * * //

dimensions      [0 3 -1 0 0 0 0];

internalField   nonuniform List<scalar> 
127
(
-4.6118e-06
4.6118e-06
-1.38393e-05
9.22753e-06
-2.27055e-05
8.86614e-06
-2.83812e-05
5.67571e-06
-2.95798e-05
1.19859e-06
-2.60081e-05
-3.57173e-06
-1.80621e-05
-7.94592e-06
-7.00406e-06
-1.10581e-05
-1.38064e-05
-9.95207e-06
1.45639e-05
-2.58822e-05
2.51576e-05
-3.94996e-05
2.24836e-05
-4.6298e-05
1.24741e-05
-4.45835e-05
-5.15944e-07
-3.4526e-05
-1.36292e-05
-1.78405e-05
-2.46315e-05
3.5204e-06
-3.24189e-05
-3.51249e-05
-1.19939e-05
2.65577e-05
-2.98889e-05
4.30526e-05
-4.40144e-05
3.66091e-05
-4.94523e-05
1.7912e-05
-4.43988e-05
-5.5694e-06
-2.95979e-05
-2.84302e-05
-7.53696e-06
-4.66924e-05
1.93589e-05
-5.93148e-05
-6.19538e-05
-1.24397e-05
3.89974e-05
-2.96423e-05
6.02553e-05
-4.20319e-05
4.89987e-05
-4.48535e-05
2.07337e-05
-3.66028e-05
-1.38201e-05
-1.81354e-05
-4.68976e-05
7.9105e-06
-7.27383e-05
3.84327e-05
-8.98371e-05
-9.19962e-05
-1.13395e-05
5.03369e-05
-2.40646e-05
7.29805e-05
-3.10617e-05
5.59957e-05
-2.84761e-05
1.81481e-05
-1.56605e-05
-2.66357e-05
6.32205e-06
-6.88802e-05
3.50041e-05
-0.00010142
6.67927e-05
-0.000121626
-0.000122688
-7.32152e-06
5.76584e-05
-8.92123e-06
7.45802e-05
-3.91346e-06
5.0988e-05
8.98964e-06
5.245e-06
2.87246e-05
-4.63706e-05
5.42066e-05
-9.43622e-05
8.34395e-05
-0.000130653
0.000113813
-0.000151999
-0.000150484
5.0461e-06
5.26123e-05
2.37299e-05
5.58964e-05
4.91335e-05
2.55844e-05
7.65369e-05
-2.21584e-05
0.000104887
-7.47207e-05
0.000133173
-0.000122648
0.000159992
-0.000157472
0.000184869
-0.000176876
-0.000170854
4.16996e-05
9.0963e-05
0.000138266
0.000179225
0.000213193
0.00024032
0.000260545
0.000275267
)
;

boundaryField
{
    inlet
    {
        type            calculated;
        value           nonuniform 0();
    }
    outlet
    {
        type            calculated;
        value           nonuniform List<scalar> 8(6.80238e-06 2.48389e-05 4.61878e-05 6.84752e-05 9.74849e-05 0.000141608 0.000205239 0.000283553);
    }
    fixedWalls
    {
        type            calculated;
        value           uniform 0;
    }
    frontAndBack
    {
        type            empty;
    }
    procBoundary0to1
    {
        type            processor;
        value           nonuniform List<scalar> 9(1.09127e-05 6.63298e-06 -2.17184e-05 -6.31177e-05 -0.000108689 -0.000149775 -0.000177697 -0.000191598 -0.00017914);
    }
}


// ************************************************************************* //
