/*--------------------------------*- C++ -*----------------------------------*\
| =========                 |                                                 |
| \\      /  F ield         | OpenFOAM Extend Project: Open source CFD        |
|  \\    /   O peration     | Version:  1.6-ext                               |
|   \\  /    A nd           | Web:      www.extend-project.de                 |
|    \\/     M anipulation  |                                                 |
\*---------------------------------------------------------------------------*/
FoamFile
{
    version     2.0;
    format      ascii;
    class       volScalarField;
    location    "3";
    object      p;
}
// * * * * * * * * * * * * * * * * * * * * * * * * * * * * * * * * * * * * * //

dimensions      [0 2 -2 0 0 0 0];

internalField   nonuniform List<scalar> 
72
(
-0.0329726
-0.0337303
-0.0319939
-0.0283912
-0.0231437
-0.0167391
-0.00982807
-0.00501913
0.0043032
-0.0322919
-0.0332496
-0.0319023
-0.0289285
-0.0243316
-0.0183581
-0.0115328
-0.00670959
0.00366492
-0.0341504
-0.0353429
-0.0342486
-0.0314683
-0.0268045
-0.0204683
-0.0129559
-0.00751921
0.00336531
-0.0382116
-0.0394529
-0.0386004
-0.0359357
-0.031026
-0.0239793
-0.0155629
-0.00834148
0.00272485
-0.0446115
-0.0454374
-0.0448151
-0.0422857
-0.0370407
-0.0289748
-0.0191775
-0.00981846
0.00153052
-0.0533109
-0.0527089
-0.0523506
-0.0499736
-0.0442488
-0.0349095
-0.0234358
-0.0118753
-0.000193571
-0.0636903
-0.059593
-0.0593974
-0.0569551
-0.0506226
-0.0400845
-0.0270652
-0.0137618
-0.00205148
-0.0838174
-0.0668217
-0.0647773
-0.0611396
-0.0537453
-0.0421638
-0.0283678
-0.0144475
-0.0034351
)
;

boundaryField
{
    inlet
    {
        type            zeroGradient;
    }
    outlet
    {
        type            totalPressure;
        rho             none;
        psi             none;
        gamma           1;
        p0              uniform 0;
        value           uniform 0;
    }
    fixedWalls
    {
        type            zeroGradient;
    }
    frontAndBack
    {
        type            empty;
    }
    procBoundary0to1
    {
        type            processor;
        value           nonuniform List<scalar> 9(-0.0767004 -0.0682096 -0.0640929 -0.0591943 -0.0509925 -0.0391939 -0.0260312 -0.013159 -0.00403203);
    }
}


// ************************************************************************* //
