/*--------------------------------*- C++ -*----------------------------------*\
| =========                 |                                                 |
| \\      /  F ield         | OpenFOAM Extend Project: Open source CFD        |
|  \\    /   O peration     | Version:  1.6-ext                               |
|   \\  /    A nd           | Web:      www.extend-project.de                 |
|    \\/     M anipulation  |                                                 |
\*---------------------------------------------------------------------------*/
FoamFile
{
    version     2.0;
    format      ascii;
    class       surfaceScalarField;
    location    "3";
    object      phi;
}
// * * * * * * * * * * * * * * * * * * * * * * * * * * * * * * * * * * * * * //

dimensions      [0 3 -1 0 0 0 0];

internalField   nonuniform List<scalar> 
127
(
-4.82297e-06
4.82297e-06
-1.39634e-05
9.14045e-06
-2.22484e-05
8.28503e-06
-2.69129e-05
4.66449e-06
-2.68969e-05
-1.6038e-08
-2.22452e-05
-4.65174e-06
-1.36971e-05
-8.54804e-06
-2.26657e-06
-1.14306e-05
-1.26525e-05
-9.8852e-06
1.47082e-05
-2.51264e-05
2.43817e-05
-3.72879e-05
2.04465e-05
-4.20531e-05
9.42973e-06
-3.8136e-05
-3.93317e-06
-2.62543e-05
-1.65335e-05
-8.66841e-06
-2.61339e-05
1.22396e-05
-3.23386e-05
-3.36292e-05
-1.18496e-05
2.65577e-05
-2.88909e-05
4.14231e-05
-4.12877e-05
3.28433e-05
-4.43026e-05
1.24447e-05
-3.66218e-05
-1.1614e-05
-1.95351e-05
-3.36201e-05
3.97659e-06
-4.96457e-05
3.0812e-05
-5.9174e-05
-5.98489e-05
-1.25565e-05
3.91142e-05
-2.92533e-05
5.81199e-05
-4.01628e-05
4.37527e-05
-4.05785e-05
1.28604e-05
-2.95441e-05
-2.26484e-05
-8.36532e-06
-5.47989e-05
1.95611e-05
-7.75721e-05
5.04269e-05
-9.00398e-05
-8.92908e-05
-1.18476e-05
5.09618e-05
-2.46159e-05
7.08882e-05
-3.06459e-05
4.97827e-05
-2.5998e-05
8.21249e-06
-1.0601e-05
-3.80454e-05
1.38332e-05
-7.92331e-05
4.45186e-05
-0.000108257
7.73847e-05
-0.000122906
-0.00011959
-7.90836e-06
5.88702e-05
-9.82317e-06
7.2803e-05
-4.28092e-06
4.42405e-05
9.76375e-06
-5.83218e-06
3.13884e-05
-5.967e-05
5.88418e-05
-0.000106687
8.96422e-05
-0.000139058
0.000121102
-0.000154366
-0.000147208
5.00527e-06
5.38649e-05
2.37385e-05
5.40698e-05
4.94139e-05
1.85651e-05
7.71751e-05
-3.35933e-05
0.00010602
-8.85146e-05
0.000134834
-0.000135501
0.000162117
-0.000166341
0.000187352
-0.000179601
-0.000167386
4.30701e-05
9.3427e-05
0.000140624
0.000180983
0.000213866
0.000239693
0.000258712
0.000272578
)
;

boundaryField
{
    inlet
    {
        type            calculated;
        value           nonuniform 0();
    }
    outlet
    {
        type            calculated;
        value           nonuniform List<scalar> 8(1.0386e-05 3.32163e-05 5.70316e-05 7.98689e-05 0.000107684 0.00014872 0.000207529 0.000280337);
    }
    fixedWalls
    {
        type            calculated;
        value           uniform 0;
    }
    frontAndBack
    {
        type            empty;
    }
    procBoundary0to1
    {
        type            processor;
        value           nonuniform List<scalar> 9(1.07948e-05 3.71287e-06 -2.86316e-05 -7.39526e-05 -0.000121398 -0.000161328 -0.00018536 -0.000193467 -0.000175145);
    }
}


// ************************************************************************* //
