/*--------------------------------*- C++ -*----------------------------------*\
| =========                 |                                                 |
| \\      /  F ield         | OpenFOAM Extend Project: Open source CFD        |
|  \\    /   O peration     | Version:  1.6-ext                               |
|   \\  /    A nd           | Web:      www.extend-project.de                 |
|    \\/     M anipulation  |                                                 |
\*---------------------------------------------------------------------------*/
FoamFile
{
    version     2.0;
    format      ascii;
    class       volVectorField;
    location    "3";
    object      U;
}
// * * * * * * * * * * * * * * * * * * * * * * * * * * * * * * * * * * * * * //

dimensions      [0 1 -1 0 0 0 0];

internalField   nonuniform List<vector> 
72
(
(-0.00163061 0.00162404 0)
(-0.0087804 0.00364658 0)
(-0.0187301 0.0036073 0)
(-0.0255297 0.00242392 0)
(-0.0278784 0.000737634 0)
(-0.0254188 -0.00108162 0)
(-0.0178342 -0.00280191 0)
(-0.0113597 -0.0042293 0)
(0.00831186 -0.00498906 0)
(-0.00388806 0.00878074 0)
(-0.0169489 0.0156218 0)
(-0.0327449 0.0138023 0)
(-0.0417298 0.00737411 0)
(-0.0420195 -0.000771543 0)
(-0.0337368 -0.00865712 0)
(-0.0173782 -0.0150387 0)
(-0.00148619 -0.0195629 0)
(0.0296092 -0.0210362 0)
(-0.0048522 0.0203965 0)
(-0.020041 0.0327127 0)
(-0.0372103 0.0267943 0)
(-0.0454403 0.0115012 0)
(-0.0428075 -0.00682704 0)
(-0.0298877 -0.023799 0)
(-0.00793347 -0.0364186 0)
(0.0146317 -0.0443128 0)
(0.0524618 -0.0454722 0)
(-0.00536435 0.0328933 0)
(-0.020948 0.0500793 0)
(-0.0372444 0.0388732 0)
(-0.0433202 0.0134272 0)
(-0.0375736 -0.0162586 0)
(-0.0208716 -0.0432858 0)
(0.0048902 -0.0626652 0)
(0.0323712 -0.0736921 0)
(0.0747748 -0.073866 0)
(-0.00552644 0.0453865 0)
(-0.0191143 0.0656592 0)
(-0.0305133 0.0482293 0)
(-0.0312798 0.0120839 0)
(-0.0207086 -0.029491 0)
(7.87285e-05 -0.0666357 0)
(0.0286039 -0.0928457 0)
(0.0589972 -0.106471 0)
(0.102354 -0.10463 0)
(-0.0044806 0.0559862 0)
(-0.0109723 0.074684 0)
(-0.00955712 0.0499657 0)
(0.000534396 0.00366923 0)
(0.0191442 -0.0479965 0)
(0.0447559 -0.0932955 0)
(0.0745054 -0.124777 0)
(0.104846 -0.139981 0)
(0.143503 -0.134897 0)
(0.00123965 0.0653848 0)
(0.0100735 0.0716176 0)
(0.0351238 0.0376174 0)
(0.062557 -0.0160897 0)
(0.0920364 -0.0731769 0)
(0.121877 -0.122093 0)
(0.149879 -0.154923 0)
(0.176024 -0.169693 0)
(0.203 -0.160109 0)
(0.0312076 0.0335913 0)
(0.0623259 0.0333448 0)
(0.117338 -0.002135 0)
(0.162351 -0.0530658 0)
(0.199964 -0.106101 0)
(0.230193 -0.150846 0)
(0.251451 -0.17914 0)
(0.268622 -0.190336 0)
(0.277156 -0.175 0)
)
;

boundaryField
{
    inlet
    {
        type            fixedValue;
        value           nonuniform 0();
    }
    outlet
    {
        type            zeroGradient;
    }
    fixedWalls
    {
        type            fixedValue;
        value           uniform (0 0 0);
    }
    frontAndBack
    {
        type            empty;
    }
    procBoundary0to1
    {
        type            processor;
        value           nonuniform List<vector> 9((0.196853 -0.0100571 0) (0.224909 -0.0272944 0) (0.267616 -0.0577228 0) (0.307461 -0.0974222 0) (0.337495 -0.138468 0) (0.356944 -0.172517 0) (0.363253 -0.191655 0) (0.366301 -0.196515 0) (0.351824 -0.175295 0));
    }
}


// ************************************************************************* //
