/*--------------------------------*- C++ -*----------------------------------*\
| =========                 |                                                 |
| \\      /  F ield         | OpenFOAM Extend Project: Open source CFD        |
|  \\    /   O peration     | Version:  1.6-ext                               |
|   \\  /    A nd           | Web:      www.extend-project.de                 |
|    \\/     M anipulation  |                                                 |
\*---------------------------------------------------------------------------*/
FoamFile
{
    version     2.0;
    format      ascii;
    class       vectorField;
    location    "0.8";
    object      accumulatedFluidInterfaceDisplacement;
}
// * * * * * * * * * * * * * * * * * * * * * * * * * * * * * * * * * * * * * //


338
(
(3.41464e-07 7.31387e-09 -8.06455e-27)
(8.87473e-07 1.66637e-07 5.18095e-27)
(3.35185e-06 1.87404e-05 7.24737e-27)
(3.44945e-06 1.84564e-05 -1.20914e-26)
(3.45705e-06 1.8074e-05 -3.33318e-26)
(3.45987e-06 1.76862e-05 8.59489e-27)
(3.45754e-06 1.72972e-05 1.4876e-26)
(3.45068e-06 1.69096e-05 -3.51799e-26)
(3.43999e-06 1.65252e-05 -2.51038e-26)
(3.42614e-06 1.61451e-05 2.45462e-26)
(3.40969e-06 1.57698e-05 -8.52271e-27)
(3.3911e-06 1.53997e-05 -4.56059e-27)
(3.37071e-06 1.50348e-05 8.62203e-27)
(3.34877e-06 1.46752e-05 -2.58218e-26)
(3.32547e-06 1.43207e-05 -7.58996e-27)
(3.30095e-06 1.39711e-05 -1.03613e-26)
(3.27534e-06 1.36263e-05 2.66598e-26)
(3.24873e-06 1.3286e-05 3.52131e-26)
(3.22121e-06 1.29501e-05 -2.83238e-26)
(3.19288e-06 1.26181e-05 1.18989e-26)
(3.16382e-06 1.22899e-05 1.77813e-26)
(3.1341e-06 1.1965e-05 -1.28736e-26)
(3.10381e-06 1.16432e-05 4.10087e-27)
(3.073e-06 1.13239e-05 4.66692e-27)
(3.04174e-06 1.10068e-05 2.00726e-26)
(3.01005e-06 1.06915e-05 2.05001e-26)
(2.97796e-06 1.03774e-05 -1.41405e-26)
(2.94549e-06 1.00642e-05 -3.7923e-26)
(2.91261e-06 9.75147e-06 -1.8226e-26)
(2.87929e-06 9.43868e-06 -1.06096e-27)
(2.84547e-06 9.1255e-06 1.51896e-27)
(2.81108e-06 8.81159e-06 -2.73018e-27)
(2.77603e-06 8.49666e-06 -1.01928e-26)
(2.74021e-06 8.18049e-06 -2.50869e-26)
(2.70349e-06 7.86293e-06 -1.84925e-26)
(2.66573e-06 7.54389e-06 1.07116e-26)
(2.62679e-06 7.22341e-06 8.87164e-27)
(2.58651e-06 6.90158e-06 -6.29003e-27)
(2.54474e-06 6.57859e-06 -1.32523e-26)
(2.50131e-06 6.25475e-06 1.21731e-26)
(2.45608e-06 5.93042e-06 1.24375e-26)
(2.4089e-06 5.6061e-06 2.97962e-27)
(2.35963e-06 5.28233e-06 -6.56071e-27)
(2.30814e-06 4.95976e-06 -1.09088e-26)
(2.25434e-06 4.6391e-06 8.88643e-27)
(2.19812e-06 4.32114e-06 2.2637e-26)
(2.13942e-06 4.00669e-06 1.46806e-26)
(2.07819e-06 3.69665e-06 1.02298e-27)
(2.01441e-06 3.39191e-06 -3.89829e-27)
(1.94807e-06 3.09341e-06 -4.88501e-28)
(1.8792e-06 2.80206e-06 7.47044e-27)
(1.80786e-06 2.51881e-06 -3.09042e-27)
(1.7341e-06 2.24454e-06 1.77351e-27)
(1.65803e-06 1.98011e-06 7.58201e-28)
(1.57976e-06 1.72636e-06 1.54313e-27)
(1.49938e-06 1.48404e-06 7.4775e-28)
(1.41702e-06 1.25386e-06 -9.02905e-28)
(1.33278e-06 1.03647e-06 -1.57973e-27)
(1.24674e-06 8.32481e-07 -2.70046e-27)
(1.15894e-06 6.42453e-07 8.94058e-27)
(1.06935e-06 4.66965e-07 -1.68229e-27)
(9.77885e-07 3.06634e-07 -1.51661e-26)
(2.72096e-06 1.88402e-05 -3.06021e-27)
(3.07916e-06 1.88379e-05 -1.41172e-26)
(2.08601e-06 1.87367e-05 -5.67554e-27)
(2.36125e-06 1.88366e-05 9.08866e-27)
(3.67828e-07 1.4796e-07 -1.20049e-27)
(3.96307e-07 3.09031e-07 5.96144e-27)
(4.25813e-07 4.85335e-07 -3.88297e-28)
(4.56193e-07 6.76254e-07 -3.73655e-28)
(4.87362e-07 8.81216e-07 -4.21244e-27)
(5.19297e-07 1.09965e-06 1.11785e-27)
(5.52015e-07 1.33096e-06 -2.87214e-27)
(5.8556e-07 1.57449e-06 -1.12267e-26)
(6.19989e-07 1.82955e-06 4.89986e-30)
(6.5536e-07 2.09535e-06 -4.37444e-27)
(6.91725e-07 2.37109e-06 1.35853e-27)
(7.29124e-07 2.6559e-06 -3.39173e-27)
(7.67578e-07 2.94889e-06 -1.41463e-26)
(8.07086e-07 3.24912e-06 6.97753e-29)
(8.47628e-07 3.55568e-06 1.58476e-28)
(8.89157e-07 3.86763e-06 -4.57287e-27)
(9.31603e-07 4.18407e-06 2.82188e-27)
(9.74877e-07 4.50412e-06 1.97925e-27)
(1.01887e-06 4.82694e-06 -7.34156e-27)
(1.06344e-06 5.15175e-06 -1.34763e-26)
(1.10844e-06 5.47784e-06 3.11988e-27)
(1.15371e-06 5.80455e-06 1.65068e-26)
(1.19908e-06 6.13134e-06 -1.69475e-26)
(1.24435e-06 6.45771e-06 -2.91531e-26)
(1.28934e-06 6.78329e-06 -1.8182e-26)
(1.33386e-06 7.10778e-06 1.13591e-26)
(1.37771e-06 7.43097e-06 6.21184e-27)
(1.42069e-06 7.75276e-06 5.68109e-28)
(1.46264e-06 8.07314e-06 1.01413e-26)
(1.50336e-06 8.39217e-06 -6.62483e-27)
(1.54271e-06 8.71e-06 8.60604e-27)
(1.58054e-06 9.02685e-06 -8.26851e-28)
(1.61671e-06 9.343e-06 -3.2159e-27)
(1.65112e-06 9.65881e-06 -5.04596e-27)
(1.68368e-06 9.97464e-06 -1.89427e-27)
(1.71432e-06 1.02909e-05 1.15297e-27)
(1.74299e-06 1.06081e-05 1.08219e-26)
(1.76966e-06 1.09266e-05 -9.93725e-27)
(1.79432e-06 1.12468e-05 9.64351e-27)
(1.81698e-06 1.15693e-05 1.63688e-26)
(1.83766e-06 1.18944e-05 -2.1336e-26)
(1.8564e-06 1.22226e-05 2.78762e-26)
(1.87323e-06 1.25541e-05 4.63373e-27)
(1.88821e-06 1.28894e-05 -3.4164e-26)
(1.90139e-06 1.32288e-05 -2.15193e-26)
(1.91285e-06 1.35725e-05 -1.16302e-26)
(1.92264e-06 1.39207e-05 -8.14947e-27)
(1.93084e-06 1.42737e-05 3.49487e-26)
(1.93757e-06 1.46318e-05 -9.73311e-27)
(1.94294e-06 1.49949e-05 -1.75957e-26)
(1.94713e-06 1.53633e-05 7.48451e-26)
(1.95039e-06 1.5737e-05 3.69462e-26)
(1.95305e-06 1.61158e-05 4.30344e-26)
(1.95557e-06 1.64995e-05 3.4338e-26)
(1.95851e-06 1.68875e-05 -4.00003e-26)
(1.96257e-06 1.72787e-05 -2.09307e-26)
(1.96842e-06 1.76714e-05 -1.03762e-26)
(1.97676e-06 1.80629e-05 1.23296e-29)
(1.98692e-06 1.8449e-05 8.62846e-27)
(1.65591e-07 -7.31684e-08 5.29649e-26)
(1.61268e-07 -1.02282e-07 1.566e-26)
(1.54838e-07 -1.57041e-07 -1.98922e-26)
(1.53122e-07 -2.04923e-07 -1.72417e-26)
(1.55833e-07 -2.47056e-07 1.16413e-26)
(1.6152e-07 -2.84908e-07 2.25281e-26)
(1.68763e-07 -3.192e-07 -2.89436e-26)
(1.76642e-07 -3.50303e-07 -7.60753e-27)
(1.8457e-07 -3.78189e-07 1.55571e-26)
(1.92245e-07 -4.0257e-07 6.06728e-27)
(1.99559e-07 -4.22935e-07 1.20974e-26)
(2.06555e-07 -4.38609e-07 -6.17036e-27)
(2.13386e-07 -4.48776e-07 -3.19162e-27)
(2.20288e-07 -4.52507e-07 -6.01158e-27)
(2.27562e-07 -4.48776e-07 -1.11512e-26)
(2.35554e-07 -4.36469e-07 -1.47926e-27)
(2.44635e-07 -4.14384e-07 6.39346e-27)
(2.55179e-07 -3.81231e-07 2.82054e-27)
(2.67544e-07 -3.3561e-07 -3.37294e-27)
(2.82057e-07 -2.75992e-07 8.76787e-27)
(2.98997e-07 -2.00677e-07 1.06833e-26)
(3.18587e-07 -1.07748e-07 -2.20622e-27)
(-6.52574e-08 -1.86451e-08 1.12742e-26)
(8.0275e-07 5.21132e-08 8.02186e-27)
(7.23483e-07 -4.03667e-08 -1.15049e-26)
(6.47889e-07 -1.15292e-07 1.59248e-27)
(5.75841e-07 -1.7456e-07 7.73242e-27)
(5.07278e-07 -2.19853e-07 -2.76134e-27)
(4.42201e-07 -2.52685e-07 1.91522e-27)
(3.80669e-07 -2.74442e-07 3.58938e-27)
(3.22781e-07 -2.86414e-07 2.88256e-27)
(2.68664e-07 -2.89818e-07 6.76452e-27)
(2.18457e-07 -2.85815e-07 -2.43808e-27)
(1.72295e-07 -2.75517e-07 -6.10017e-27)
(1.30301e-07 -2.5999e-07 2.43909e-26)
(9.25693e-08 -2.40254e-07 1.04584e-27)
(5.91575e-08 -2.1728e-07 -2.11284e-26)
(3.00772e-08 -1.91982e-07 1.06245e-26)
(5.27895e-09 -1.65202e-07 -2.28572e-26)
(-1.53557e-08 -1.37691e-07 -1.20528e-26)
(-3.20445e-08 -1.10106e-07 2.35069e-26)
(-4.50927e-08 -8.29446e-08 1.95293e-26)
(-5.49874e-08 -5.6614e-08 7.37806e-27)
(-6.22423e-08 -3.11777e-08 -3.36299e-27)
(3.41464e-07 7.31387e-09 -8.06455e-27)
(8.87473e-07 1.66637e-07 5.18095e-27)
(3.35185e-06 1.87404e-05 7.24737e-27)
(3.44945e-06 1.84564e-05 -1.20914e-26)
(3.45705e-06 1.8074e-05 -3.33318e-26)
(3.45987e-06 1.76862e-05 8.59489e-27)
(3.45754e-06 1.72972e-05 1.4876e-26)
(3.45068e-06 1.69096e-05 -3.51799e-26)
(3.43999e-06 1.65252e-05 -2.51038e-26)
(3.42614e-06 1.61451e-05 2.45462e-26)
(3.40969e-06 1.57698e-05 -8.52271e-27)
(3.3911e-06 1.53997e-05 -4.56059e-27)
(3.37071e-06 1.50348e-05 8.62203e-27)
(3.34877e-06 1.46752e-05 -2.58218e-26)
(3.32547e-06 1.43207e-05 -7.58996e-27)
(3.30095e-06 1.39711e-05 -1.03613e-26)
(3.27534e-06 1.36263e-05 2.66598e-26)
(3.24873e-06 1.3286e-05 3.52131e-26)
(3.22121e-06 1.29501e-05 -2.83238e-26)
(3.19288e-06 1.26181e-05 1.18989e-26)
(3.16382e-06 1.22899e-05 1.77813e-26)
(3.1341e-06 1.1965e-05 -1.28736e-26)
(3.10381e-06 1.16432e-05 4.10087e-27)
(3.073e-06 1.13239e-05 4.66692e-27)
(3.04174e-06 1.10068e-05 2.00726e-26)
(3.01005e-06 1.06915e-05 2.05001e-26)
(2.97796e-06 1.03774e-05 -1.41405e-26)
(2.94549e-06 1.00642e-05 -3.7923e-26)
(2.91261e-06 9.75147e-06 -1.8226e-26)
(2.87929e-06 9.43868e-06 -1.06096e-27)
(2.84547e-06 9.1255e-06 1.51896e-27)
(2.81108e-06 8.81159e-06 -2.73018e-27)
(2.77603e-06 8.49666e-06 -1.01928e-26)
(2.74021e-06 8.18049e-06 -2.50869e-26)
(2.70349e-06 7.86293e-06 -1.84925e-26)
(2.66573e-06 7.54389e-06 1.07116e-26)
(2.62679e-06 7.22341e-06 8.87164e-27)
(2.58651e-06 6.90158e-06 -6.29003e-27)
(2.54474e-06 6.57859e-06 -1.32523e-26)
(2.50131e-06 6.25475e-06 1.21731e-26)
(2.45608e-06 5.93042e-06 1.24375e-26)
(2.4089e-06 5.6061e-06 2.97962e-27)
(2.35963e-06 5.28233e-06 -6.56071e-27)
(2.30814e-06 4.95976e-06 -1.09088e-26)
(2.25434e-06 4.6391e-06 8.88643e-27)
(2.19812e-06 4.32114e-06 2.2637e-26)
(2.13942e-06 4.00669e-06 1.46806e-26)
(2.07819e-06 3.69665e-06 1.02298e-27)
(2.01441e-06 3.39191e-06 -3.89829e-27)
(1.94807e-06 3.09341e-06 -4.88501e-28)
(1.8792e-06 2.80206e-06 7.47044e-27)
(1.80786e-06 2.51881e-06 -3.09042e-27)
(1.7341e-06 2.24454e-06 1.77351e-27)
(1.65803e-06 1.98011e-06 7.58201e-28)
(1.57976e-06 1.72636e-06 1.54313e-27)
(1.49938e-06 1.48404e-06 7.4775e-28)
(1.41702e-06 1.25386e-06 -9.02905e-28)
(1.33278e-06 1.03647e-06 -1.57973e-27)
(1.24674e-06 8.32481e-07 -2.70046e-27)
(1.15894e-06 6.42453e-07 8.94058e-27)
(1.06935e-06 4.66965e-07 -1.68229e-27)
(9.77885e-07 3.06634e-07 -1.51661e-26)
(2.72096e-06 1.88402e-05 -3.06021e-27)
(3.07916e-06 1.88379e-05 -1.41172e-26)
(2.08601e-06 1.87367e-05 -5.67554e-27)
(2.36125e-06 1.88366e-05 9.08866e-27)
(3.67828e-07 1.4796e-07 -1.20049e-27)
(3.96307e-07 3.09031e-07 5.96144e-27)
(4.25813e-07 4.85335e-07 -3.88297e-28)
(4.56193e-07 6.76254e-07 -3.73655e-28)
(4.87362e-07 8.81216e-07 -4.21244e-27)
(5.19297e-07 1.09965e-06 1.11785e-27)
(5.52015e-07 1.33096e-06 -2.87214e-27)
(5.8556e-07 1.57449e-06 -1.12267e-26)
(6.19989e-07 1.82955e-06 4.89986e-30)
(6.5536e-07 2.09535e-06 -4.37444e-27)
(6.91725e-07 2.37109e-06 1.35853e-27)
(7.29124e-07 2.6559e-06 -3.39173e-27)
(7.67578e-07 2.94889e-06 -1.41463e-26)
(8.07086e-07 3.24912e-06 6.97753e-29)
(8.47628e-07 3.55568e-06 1.58476e-28)
(8.89157e-07 3.86763e-06 -4.57287e-27)
(9.31603e-07 4.18407e-06 2.82188e-27)
(9.74877e-07 4.50412e-06 1.97925e-27)
(1.01887e-06 4.82694e-06 -7.34156e-27)
(1.06344e-06 5.15175e-06 -1.34763e-26)
(1.10844e-06 5.47784e-06 3.11988e-27)
(1.15371e-06 5.80455e-06 1.65068e-26)
(1.19908e-06 6.13134e-06 -1.69475e-26)
(1.24435e-06 6.45771e-06 -2.91531e-26)
(1.28934e-06 6.78329e-06 -1.8182e-26)
(1.33386e-06 7.10778e-06 1.13591e-26)
(1.37771e-06 7.43097e-06 6.21184e-27)
(1.42069e-06 7.75276e-06 5.68109e-28)
(1.46264e-06 8.07314e-06 1.01413e-26)
(1.50336e-06 8.39217e-06 -6.62483e-27)
(1.54271e-06 8.71e-06 8.60604e-27)
(1.58054e-06 9.02685e-06 -8.26851e-28)
(1.61671e-06 9.343e-06 -3.2159e-27)
(1.65112e-06 9.65881e-06 -5.04596e-27)
(1.68368e-06 9.97464e-06 -1.89427e-27)
(1.71432e-06 1.02909e-05 1.15297e-27)
(1.74299e-06 1.06081e-05 1.08219e-26)
(1.76966e-06 1.09266e-05 -9.93725e-27)
(1.79432e-06 1.12468e-05 9.64351e-27)
(1.81698e-06 1.15693e-05 1.63688e-26)
(1.83766e-06 1.18944e-05 -2.1336e-26)
(1.8564e-06 1.22226e-05 2.78762e-26)
(1.87323e-06 1.25541e-05 4.63373e-27)
(1.88821e-06 1.28894e-05 -3.4164e-26)
(1.90139e-06 1.32288e-05 -2.15193e-26)
(1.91285e-06 1.35725e-05 -1.16302e-26)
(1.92264e-06 1.39207e-05 -8.14947e-27)
(1.93084e-06 1.42737e-05 3.49487e-26)
(1.93757e-06 1.46318e-05 -9.73311e-27)
(1.94294e-06 1.49949e-05 -1.75957e-26)
(1.94713e-06 1.53633e-05 7.48451e-26)
(1.95039e-06 1.5737e-05 3.69462e-26)
(1.95305e-06 1.61158e-05 4.30344e-26)
(1.95557e-06 1.64995e-05 3.4338e-26)
(1.95851e-06 1.68875e-05 -4.00003e-26)
(1.96257e-06 1.72787e-05 -2.09307e-26)
(1.96842e-06 1.76714e-05 -1.03762e-26)
(1.97676e-06 1.80629e-05 1.23296e-29)
(1.98692e-06 1.8449e-05 8.62846e-27)
(1.65591e-07 -7.31684e-08 5.29649e-26)
(1.61268e-07 -1.02282e-07 1.566e-26)
(1.54838e-07 -1.57041e-07 -1.98922e-26)
(1.53122e-07 -2.04923e-07 -1.72417e-26)
(1.55833e-07 -2.47056e-07 1.16413e-26)
(1.6152e-07 -2.84908e-07 2.25281e-26)
(1.68763e-07 -3.192e-07 -2.89436e-26)
(1.76642e-07 -3.50303e-07 -7.60753e-27)
(1.8457e-07 -3.78189e-07 1.55571e-26)
(1.92245e-07 -4.0257e-07 6.06728e-27)
(1.99559e-07 -4.22935e-07 1.20974e-26)
(2.06555e-07 -4.38609e-07 -6.17036e-27)
(2.13386e-07 -4.48776e-07 -3.19162e-27)
(2.20288e-07 -4.52507e-07 -6.01158e-27)
(2.27562e-07 -4.48776e-07 -1.11512e-26)
(2.35554e-07 -4.36469e-07 -1.47926e-27)
(2.44635e-07 -4.14384e-07 6.39346e-27)
(2.55179e-07 -3.81231e-07 2.82054e-27)
(2.67544e-07 -3.3561e-07 -3.37294e-27)
(2.82057e-07 -2.75992e-07 8.76787e-27)
(2.98997e-07 -2.00677e-07 1.06833e-26)
(3.18587e-07 -1.07748e-07 -2.20622e-27)
(-6.52574e-08 -1.86451e-08 1.12742e-26)
(8.0275e-07 5.21132e-08 8.02186e-27)
(7.23483e-07 -4.03667e-08 -1.15049e-26)
(6.47889e-07 -1.15292e-07 1.59248e-27)
(5.75841e-07 -1.7456e-07 7.73242e-27)
(5.07278e-07 -2.19853e-07 -2.76134e-27)
(4.42201e-07 -2.52685e-07 1.91522e-27)
(3.80669e-07 -2.74442e-07 3.58938e-27)
(3.22781e-07 -2.86414e-07 2.88256e-27)
(2.68664e-07 -2.89818e-07 6.76452e-27)
(2.18457e-07 -2.85815e-07 -2.43808e-27)
(1.72295e-07 -2.75517e-07 -6.10017e-27)
(1.30301e-07 -2.5999e-07 2.43909e-26)
(9.25693e-08 -2.40254e-07 1.04584e-27)
(5.91575e-08 -2.1728e-07 -2.11284e-26)
(3.00772e-08 -1.91982e-07 1.06245e-26)
(5.27895e-09 -1.65202e-07 -2.28572e-26)
(-1.53557e-08 -1.37691e-07 -1.20528e-26)
(-3.20445e-08 -1.10106e-07 2.35069e-26)
(-4.50927e-08 -8.29446e-08 1.95293e-26)
(-5.49874e-08 -5.6614e-08 7.37806e-27)
(-6.22423e-08 -3.11777e-08 -3.36299e-27)
)


// ************************************************************************* //
