/*--------------------------------*- C++ -*----------------------------------*\
| =========                 |                                                 |
| \\      /  F ield         | OpenFOAM Extend Project: Open source CFD        |
|  \\    /   O peration     | Version:  1.6-ext                               |
|   \\  /    A nd           | Web:      www.extend-project.de                 |
|    \\/     M anipulation  |                                                 |
\*---------------------------------------------------------------------------*/
FoamFile
{
    version     2.0;
    format      ascii;
    class       tetPointVectorField;
    location    "0.8";
    object      motionU;
}
// * * * * * * * * * * * * * * * * * * * * * * * * * * * * * * * * * * * * * //

dimensions      [0 1 -1 0 0 0 0];

internalField   nonuniform List<vector> 
147960
(
(0 0 0)
(-0.000154086 0.000325549 0)
(-0.00171779 0.00110844 8.84736e-24)
(-0.000933516 0.000752302 -7.65544e-25)
(-0.00532661 0.0243833 -3.60042e-23)
(-0.00521541 0.0240532 -1.73051e-23)
(-0.0052102 0.0236118 4.27095e-23)
(-0.00520228 0.0231696 5.38493e-24)
(-0.00519175 0.0227273 5.4236e-24)
(-0.00517859 0.0222857 1.59579e-23)
(-0.00516291 0.021845 5.39073e-24)
(-0.00514477 0.0214059 1.98155e-23)
(-0.00512419 0.0209686 -2.35113e-23)
(-0.00510118 0.0205336 3.70254e-23)
(-0.0050757 0.0201013 1.69519e-23)
(-0.00504771 0.019672 -4.44353e-23)
(-0.00501713 0.0192459 1.2397e-23)
(-0.00498386 0.0188233 3.32338e-23)
(-0.00494781 0.0184042 -4.63679e-24)
(-0.00490884 0.0179887 -5.42967e-24)
(-0.00486685 0.0175768 2.42048e-24)
(-0.00482171 0.0171683 -2.53058e-23)
(-0.00477329 0.0167631 -2.25315e-23)
(-0.00472148 0.0163608 4.55382e-24)
(-0.00466619 0.0159611 2.28594e-23)
(-0.00460733 0.0155635 -1.13549e-23)
(-0.00454483 0.0151676 -1.32765e-23)
(-0.00447867 0.0147728 -1.91792e-23)
(-0.00440883 0.0143785 -1.0302e-23)
(-0.00433533 0.0139843 -6.27925e-25)
(-0.00425821 0.0135894 6.99043e-24)
(-0.00417757 0.0131932 2.28613e-24)
(-0.00409351 0.0127954 -2.02363e-23)
(-0.00400618 0.0123952 7.50244e-24)
(-0.00391576 0.0119924 -1.96251e-23)
(-0.00382245 0.0115865 -3.86032e-23)
(-0.00372649 0.0111773 6.17521e-24)
(-0.00362814 0.0107647 2.49348e-24)
(-0.00352766 0.0103484 6.14559e-25)
(-0.00342536 0.00992877 -9.48045e-24)
(-0.00332154 0.00950586 -2.56847e-23)
(-0.0032165 0.00908005 -1.51486e-23)
(-0.00311056 0.00865184 -1.53731e-23)
(-0.00300403 0.00822184 7.84422e-24)
(-0.00289719 0.00779081 -9.93444e-24)
(-0.00279035 0.00735963 -2.39648e-23)
(-0.00268375 0.0069293 -3.5419e-24)
(-0.00257764 0.00650091 1.02004e-24)
(-0.00247224 0.00607566 7.8147e-24)
(-0.00236772 0.00565481 1.41205e-23)
(-0.00226424 0.00523968 1.76752e-23)
(-0.00216192 0.00483164 -8.10165e-24)
(-0.00206083 0.00443205 -4.98934e-24)
(-0.00196102 0.00404229 1.31492e-23)
(-0.0018625 0.00366374 5.0281e-24)
(-0.00176525 0.00329769 4.08379e-24)
(-0.0016692 0.00294543 -1.02721e-23)
(-0.00157429 0.00260814 -1.05819e-23)
(-0.0014804 0.00228693 -1.64222e-24)
(-0.0013874 0.0019828 2.65129e-25)
(-0.00129515 0.00169666 -4.43544e-24)
(-0.0012035 0.00142929 -8.17135e-24)
(-0.00111228 0.00118135 1.83892e-24)
(-0.00102135 0.000953395 4.16384e-24)
(-0.00608968 0.0244949 2.48802e-23)
(-0.00565401 0.0244938 -8.06132e-24)
(-0.00685065 0.0243882 5.07473e-24)
(-0.00652459 0.0244961 1.90259e-23)
(-0.00188348 0.00130749 -4.12219e-24)
(-0.00205335 0.00153316 -5.66298e-24)
(-0.00222151 0.00177864 -8.31292e-24)
(-0.00238768 0.00204338 -8.392e-24)
(-0.00255159 0.00232673 4.87845e-24)
(-0.00271296 0.00262789 7.41031e-24)
(-0.00287152 0.00294597 2.17176e-24)
(-0.00302701 0.00327998 3.54787e-24)
(-0.00317922 0.00362882 -1.01268e-23)
(-0.00332793 0.00399129 5.22846e-24)
(-0.00347295 0.00436613 7.28369e-24)
(-0.00361414 0.00475203 -2.83411e-24)
(-0.00375139 0.00514764 1.34577e-23)
(-0.00388461 0.00555157 2.95508e-23)
(-0.00401376 0.00596246 2.9855e-23)
(-0.00413883 0.00637895 -6.01339e-24)
(-0.00425985 0.00679971 -9.11701e-24)
(-0.00437689 0.00722348 2.47159e-23)
(-0.00449002 0.00764908 6.35328e-25)
(-0.00459938 0.00807541 4.5021e-24)
(-0.0047051 0.00850146 2.91245e-23)
(-0.00480737 0.00892636 -1.00164e-23)
(-0.00490636 0.00934936 -1.83492e-23)
(-0.00500226 0.00976982 2.80441e-24)
(-0.00509528 0.0101873 2.2137e-24)
(-0.00518562 0.0106013 -2.61736e-23)
(-0.00527348 0.0110118 -1.04758e-24)
(-0.00535906 0.0114187 3.02143e-23)
(-0.00544253 0.0118219 1.53437e-23)
(-0.00552406 0.0122217 -1.12349e-23)
(-0.00560378 0.0126183 -3.22341e-23)
(-0.00568182 0.0130121 2.42055e-23)
(-0.00575826 0.0134035 3.59371e-24)
(-0.00583318 0.013793 -3.71144e-23)
(-0.00590661 0.0141812 -5.0655e-23)
(-0.00597855 0.0145687 -1.95397e-23)
(-0.00604899 0.014956 7.26484e-24)
(-0.00611787 0.0153438 -1.96162e-23)
(-0.00618511 0.0157326 -1.47018e-23)
(-0.00625062 0.016123 -2.71339e-23)
(-0.00631426 0.0165154 -5.86751e-24)
(-0.00637589 0.0169103 -8.36446e-24)
(-0.00643535 0.017308 -5.63652e-24)
(-0.00649248 0.017709 3.29498e-23)
(-0.00654708 0.0181133 -4.33461e-24)
(-0.00659898 0.018521 -1.05748e-23)
(-0.00664799 0.0189323 -1.25678e-23)
(-0.00669392 0.0193471 -8.13326e-23)
(-0.00673662 0.0197653 -2.41883e-23)
(-0.0067759 0.0201866 8.63659e-24)
(-0.00681162 0.0206108 -2.4551e-23)
(-0.00684364 0.0210376 1.99466e-23)
(-0.00687184 0.0214666 -2.02507e-23)
(-0.00689612 0.0218973 -5.10896e-23)
(-0.0069164 0.0223294 6.7819e-23)
(-0.00693264 0.0227624 4.70551e-23)
(-0.00694483 0.0231958 -3.70247e-23)
(-0.00695316 0.0236291 -8.79141e-24)
(-0.0069579 0.0240626 1.83428e-23)
(-0.00582001 0.0210908 0)
(-0.00687174 0.0241684 0)
(-0.006839 0.0240212 0)
(-0.00680777 0.0238652 0)
(-0.00677009 0.0236979 0)
(-0.00672558 0.02352 0)
(-0.00667309 0.0233321 0)
(-0.00661202 0.0231336 0)
(-0.00654131 0.0229248 0)
(-0.0064636 0.0227035 0)
(-0.00637387 0.0224708 0)
(-0.0062774 0.0222252 0)
(-0.00617534 0.0219639 0)
(-0.0060592 0.02169 0)
(-0.00594144 0.0214001 0)
(-0.00121511 0.00131427 0)
(-0.0013449 0.0014713 0)
(-0.00147911 0.00164259 0)
(-0.00161661 0.00182849 0)
(-0.00175711 0.0020297 0)
(-0.00189977 0.00224633 0)
(-0.00204336 0.00247778 0)
(-0.00218746 0.00272396 0)
(-0.00233161 0.0029846 0)
(-0.00247526 0.00325936 0)
(-0.0026179 0.00354781 0)
(-0.00275912 0.00384941 0)
(-0.00289872 0.00416355 0)
(-0.00303652 0.00448947 0)
(-0.00317233 0.00482635 0)
(-0.00330585 0.00517335 0)
(-0.00343676 0.0055296 0)
(-0.00356485 0.00589419 0)
(-0.00369008 0.0062663 0)
(-0.00381247 0.00664486 0)
(-0.00393218 0.00702994 0)
(-0.00404897 0.00742049 0)
(-0.00416248 0.00781433 0)
(-0.00427266 0.00821086 0)
(-0.00437951 0.00860945 0)
(-0.00448308 0.00900949 0)
(-0.00458343 0.00941042 0)
(-0.00468063 0.00981175 0)
(-0.0047748 0.010213 0)
(-0.00486607 0.0106139 0)
(-0.00495448 0.0110142 0)
(-0.00503998 0.0114135 0)
(-0.00512243 0.0118118 0)
(-0.00520182 0.0122087 0)
(-0.00527824 0.0126043 0)
(-0.00535171 0.0129983 0)
(-0.00542218 0.0133917 0)
(-0.00548961 0.0137848 0)
(-0.0055539 0.0141764 0)
(-0.00561485 0.0145662 0)
(-0.00567229 0.014954 0)
(-0.00572621 0.0153398 0)
(-0.0057767 0.0157233 0)
(-0.00582399 0.0161043 0)
(-0.00586828 0.0164824 0)
(-0.00590956 0.0168572 0)
(-0.00594733 0.0172283 0)
(-0.00598049 0.0175945 0)
(-0.00600797 0.0179547 0)
(-0.00602985 0.0183071 0)
(-0.00604672 0.0186499 0)
(-0.00605893 0.0189814 0)
(-0.00606557 0.0193 0)
(-0.00606515 0.0196035 0)
(-0.00605653 0.0198895 0)
(-0.0060391 0.0201552 0)
(-0.00601296 0.0203979 0)
(-0.00597817 0.0206148 0)
(-0.00593478 0.0208037 0)
(-0.00588274 0.0209627 0)
(-0.00457998 0.0208908 0)
(-0.00467572 0.021227 0)
(-0.00476581 0.0215416 0)
(-0.00485922 0.0218359 0)
(-0.00494165 0.0221157 0)
(-0.00501329 0.0223793 0)
(-0.00508315 0.0226261 0)
(-0.00514263 0.0228602 0)
(-0.00519119 0.0230812 0)
(-0.00523425 0.0232889 0)
(-0.00526657 0.0234857 0)
(-0.00528975 0.0236711 0)
(-0.00530495 0.0238447 0)
(-0.00530811 0.0240061 0)
(-0.00529891 0.0241579 0)
(-0.000678285 0.00106739 0)
(-0.000923183 0.000743944 0)
(-0.00091112 0.000745659 0)
(-0.000897205 0.000755476 0)
(-0.000881319 0.000772128 0)
(-0.000864506 0.000793553 0)
(-0.000846781 0.000818946 0)
(-0.000828225 0.000847095 0)
(-0.000809287 0.000876422 0)
(-0.000789788 0.000906741 0)
(-0.000770617 0.000937096 0)
(-0.000751775 0.000966266 0)
(-0.000732631 0.000994239 0)
(-0.000714374 0.00102062 0)
(-0.000696323 0.00104491 0)
(-0.00460323 0.0207625 0)
(-0.00462001 0.0206022 0)
(-0.00463107 0.0204113 0)
(-0.00463681 0.0201917 0)
(-0.00463744 0.0199459 0)
(-0.00463302 0.0196766 0)
(-0.00462328 0.0193866 0)
(-0.00460866 0.0190789 0)
(-0.00459002 0.0187559 0)
(-0.00456853 0.0184198 0)
(-0.00454465 0.0180723 0)
(-0.00451762 0.0177152 0)
(-0.00448651 0.0173504 0)
(-0.004451 0.0169794 0)
(-0.00441192 0.0166037 0)
(-0.00437008 0.0162243 0)
(-0.00432568 0.0158416 0)
(-0.00427853 0.0154561 0)
(-0.00422822 0.0150682 0)
(-0.00417439 0.0146781 0)
(-0.0041168 0.014286 0)
(-0.00405541 0.0138921 0)
(-0.00399032 0.0134965 0)
(-0.00392171 0.0130994 0)
(-0.00384983 0.0127023 0)
(-0.0037748 0.0123047 0)
(-0.00369672 0.0119055 0)
(-0.00361575 0.0115051 0)
(-0.00353197 0.0111036 0)
(-0.0034456 0.0107012 0)
(-0.00335699 0.010298 0)
(-0.00326645 0.00989427 0)
(-0.00317418 0.00949037 0)
(-0.00308033 0.00908663 0)
(-0.00298507 0.00868349 0)
(-0.00288857 0.00828147 0)
(-0.00279105 0.00788114 0)
(-0.0026927 0.00748313 0)
(-0.00259371 0.00708807 0)
(-0.00249432 0.00669658 0)
(-0.00239504 0.00631084 0)
(-0.00229618 0.00593189 0)
(-0.00219768 0.00555969 0)
(-0.00209959 0.0051953 0)
(-0.00200195 0.00483959 0)
(-0.00190494 0.00449349 0)
(-0.00180879 0.00415791 0)
(-0.00171366 0.00383375 0)
(-0.00161961 0.00352186 0)
(-0.00152657 0.00322305 0)
(-0.00143453 0.00293801 0)
(-0.0013436 0.00266736 0)
(-0.00125397 0.00241163 0)
(-0.0011658 0.00217127 0)
(-0.00107923 0.00194667 0)
(-0.000994282 0.00173804 0)
(-0.00091148 0.00154604 0)
(-0.000831139 0.00137066 0)
(-0.000753246 0.00121121 0)
(-0.00077361 0.00119237 0)
(-0.000793358 0.00117269 0)
(-0.000813818 0.00115056 0)
(-0.000835343 0.00112682 0)
(-0.000855737 0.0011027 0)
(-0.00087665 0.00107757 0)
(-0.000897921 0.00105218 0)
(-0.000917572 0.00102808 0)
(-0.000937202 0.0010051 0)
(-0.00095564 0.000984941 0)
(-0.000972759 0.000968252 0)
(-0.000988686 0.000955589 0)
(-0.00100234 0.000949034 0)
(-0.00101373 0.000948972 0)
(-0.00085353 0.00135713 0)
(-0.000874901 0.00134207 0)
(-0.000897676 0.00132447 0)
(-0.000920902 0.00130604 0)
(-0.000942648 0.00128726 0)
(-0.00096534 0.00126737 0)
(-0.000987518 0.00124773 0)
(-0.00100809 0.00122919 0)
(-0.00102859 0.00121167 0)
(-0.0010473 0.00119681 0)
(-0.00106459 0.00118458 0)
(-0.0010803 0.00117585 0)
(-0.00109355 0.00117231 0)
(-0.00110447 0.00117424 0)
(-0.000935504 0.00153799 0)
(-0.000958607 0.00152844 0)
(-0.000983539 0.00151614 0)
(-0.00100813 0.00150356 0)
(-0.00103106 0.00149028 0)
(-0.00105522 0.00147594 0)
(-0.00107826 0.00146263 0)
(-0.00109949 0.00144979 0)
(-0.00112058 0.00143781 0)
(-0.00113938 0.00142814 0)
(-0.00115667 0.00142049 0)
(-0.00117218 0.00141578 0)
(-0.00118509 0.00141556 0)
(-0.00119579 0.00142016 0)
(-0.00101974 0.00173617 0)
(-0.00104426 0.00173214 0)
(-0.00107116 0.00172562 0)
(-0.00109695 0.00171935 0)
(-0.00112107 0.00171244 0)
(-0.00114652 0.00170381 0)
(-0.00117 0.00169647 0)
(-0.00119165 0.00168945 0)
(-0.00121319 0.00168296 0)
(-0.00123196 0.00167857 0)
(-0.00124913 0.0016756 0)
(-0.00126448 0.00167507 0)
(-0.00127712 0.00167835 0)
(-0.00128762 0.00168568 0)
(-0.00110569 0.00195106 0)
(-0.00113157 0.001953 0)
(-0.00116035 0.00195261 0)
(-0.00118722 0.00195291 0)
(-0.00121218 0.00195229 0)
(-0.00123872 0.00194973 0)
(-0.0012627 0.00194861 0)
(-0.00128453 0.00194755 0)
(-0.00130639 0.00194666 0)
(-0.00132517 0.00194752 0)
(-0.00134217 0.00194939 0)
(-0.00135734 0.00195316 0)
(-0.00136975 0.00196 0)
(-0.00138005 0.00197004 0)
(-0.00119324 0.00218242 0)
(-0.00122034 0.00219068 0)
(-0.00125091 0.00219663 0)
(-0.00127876 0.00220364 0)
(-0.00130432 0.00220949 0)
(-0.00133178 0.00221323 0)
(-0.00135624 0.00221846 0)
(-0.00137822 0.00222349 0)
(-0.00140026 0.00222825 0)
(-0.00141902 0.00223437 0)
(-0.00143592 0.0022411 0)
(-0.00145092 0.0022493 0)
(-0.0014631 0.00225973 0)
(-0.00147321 0.00227244 0)
(-0.00128231 0.00242987 0)
(-0.00131044 0.00244476 0)
(-0.00134268 0.00245719 0)
(-0.00137149 0.00247095 0)
(-0.00139746 0.00248346 0)
(-0.00142569 0.00249374 0)
(-0.00145067 0.00250539 0)
(-0.00147278 0.00251658 0)
(-0.00149496 0.00252705 0)
(-0.00151356 0.00253817 0)
(-0.00153043 0.00254984 0)
(-0.00154536 0.00256268 0)
(-0.00155731 0.00257666 0)
(-0.00156725 0.00259198 0)
(-0.00137286 0.00269291 0)
(-0.00140179 0.00271472 0)
(-0.0014355 0.00273378 0)
(-0.00146519 0.00275408 0)
(-0.00149161 0.00277336 0)
(-0.00152054 0.00279067 0)
(-0.00154596 0.00280874 0)
(-0.0015683 0.00282608 0)
(-0.00159066 0.00284245 0)
(-0.00160937 0.00285948 0)
(-0.00162608 0.0028757 0)
(-0.00164077 0.00289243 0)
(-0.00165251 0.00290981 0)
(-0.0016623 0.00292767 0)
(-0.00146474 0.00297101 0)
(-0.00149434 0.003 0)
(-0.00152933 0.003026 0)
(-0.00156015 0.00305365 0)
(-0.00158707 0.0030796 0)
(-0.00161643 0.00310327 0)
(-0.00164219 0.00312769 0)
(-0.00166475 0.00315111 0)
(-0.00168737 0.0031733 0)
(-0.00170607 0.0031957 0)
(-0.00172266 0.00321664 0)
(-0.0017372 0.0032374 0)
(-0.00174878 0.0032581 0)
(-0.00175845 0.00327842 0)
(-0.00155778 0.00326352 0)
(-0.00158803 0.00329983 0)
(-0.00162414 0.0033329 0)
(-0.00165588 0.00336747 0)
(-0.00168337 0.00340018 0)
(-0.00171332 0.00343044 0)
(-0.0017394 0.00346119 0)
(-0.00176215 0.00349063 0)
(-0.00178504 0.00351845 0)
(-0.00180377 0.00354603 0)
(-0.00182029 0.00357165 0)
(-0.00183475 0.00359642 0)
(-0.00184621 0.00362036 0)
(-0.00185579 0.00364304 0)
(-0.00165184 0.00356973 0)
(-0.00168282 0.00361333 0)
(-0.00171992 0.00365344 0)
(-0.00175243 0.00369483 0)
(-0.00178052 0.00373434 0)
(-0.00181117 0.00377119 0)
(-0.00183762 0.00380819 0)
(-0.00186057 0.00384351 0)
(-0.0018837 0.00387683 0)
(-0.00190249 0.00390943 0)
(-0.00191903 0.00393962 0)
(-0.00193347 0.00396829 0)
(-0.00194485 0.00399536 0)
(-0.00195438 0.00402028 0)
(-0.00174685 0.00388893 0)
(-0.00177862 0.00393968 0)
(-0.00181662 0.00398649 0)
(-0.00184987 0.00403472 0)
(-0.00187858 0.0040813 0)
(-0.00190993 0.00412457 0)
(-0.00193682 0.00416762 0)
(-0.00196001 0.00420865 0)
(-0.00198339 0.00424729 0)
(-0.00200226 0.00428475 0)
(-0.00201887 0.00431934 0)
(-0.00203336 0.00435175 0)
(-0.00204473 0.00438179 0)
(-0.00205424 0.00440883 0)
(-0.0018428 0.00422036 0)
(-0.00187537 0.00427829 0)
(-0.00191456 0.00433261 0)
(-0.00194852 0.00438747 0)
(-0.00197758 0.00444015 0)
(-0.00200959 0.00448954 0)
(-0.00203692 0.00453839 0)
(-0.00206038 0.00458489 0)
(-0.00208407 0.00462864 0)
(-0.0021031 0.00467075 0)
(-0.00211985 0.00470954 0)
(-0.00213444 0.0047455 0)
(-0.00214583 0.00477834 0)
(-0.00215536 0.00480734 0)
(-0.00193968 0.00456311 0)
(-0.00197296 0.00462804 0)
(-0.00201324 0.00468924 0)
(-0.00204794 0.0047507 0)
(-0.00207747 0.00480962 0)
(-0.00211013 0.00486495 0)
(-0.00213791 0.00491935 0)
(-0.00216168 0.00497105 0)
(-0.00218573 0.00501965 0)
(-0.00220497 0.00506616 0)
(-0.00222191 0.00510891 0)
(-0.00223666 0.00514821 0)
(-0.00224812 0.00518365 0)
(-0.00225769 0.00521444 0)
(-0.00203739 0.0049162 0)
(-0.00207123 0.00498757 0)
(-0.00211264 0.0050555 0)
(-0.00214814 0.0051237 0)
(-0.00217816 0.00518864 0)
(-0.0022115 0.00524966 0)
(-0.00223975 0.00530932 0)
(-0.00226385 0.00536593 0)
(-0.0022883 0.00541907 0)
(-0.00230781 0.00546969 0)
(-0.002325 0.00551616 0)
(-0.00233996 0.00555855 0)
(-0.00235153 0.00559637 0)
(-0.00236117 0.00562875 0)
(-0.00213583 0.00527888 0)
(-0.0021705 0.0053575 0)
(-0.002213 0.00543185 0)
(-0.00224907 0.00550563 0)
(-0.00227959 0.00557618 0)
(-0.00231362 0.00564255 0)
(-0.00234236 0.00570714 0)
(-0.00236682 0.0057683 0)
(-0.00239169 0.00582557 0)
(-0.00241152 0.00588001 0)
(-0.00242902 0.00592998 0)
(-0.00244422 0.0059752 0)
(-0.00245594 0.00601515 0)
(-0.00246567 0.00604894 0)
(-0.00223474 0.00564999 0)
(-0.00227021 0.00573518 0)
(-0.00231379 0.0058158 0)
(-0.00235058 0.00589526 0)
(-0.00238163 0.00597112 0)
(-0.00241635 0.00604252 0)
(-0.00244559 0.00611171 0)
(-0.00247045 0.00617703 0)
(-0.00249567 0.00623767 0)
(-0.00251591 0.00629575 0)
(-0.00253384 0.0063492 0)
(-0.00254931 0.00639692 0)
(-0.0025612 0.00643871 0)
(-0.00257106 0.00647366 0)
(-0.00233391 0.00602817 0)
(-0.00237027 0.00611975 0)
(-0.00241499 0.00620671 0)
(-0.00245252 0.00629156 0)
(-0.00248412 0.00637242 0)
(-0.00251953 0.00644851 0)
(-0.00254933 0.00652198 0)
(-0.00257469 0.00659131 0)
(-0.00260059 0.00665616 0)
(-0.00262118 0.00671713 0)
(-0.00263931 0.00677269 0)
(-0.00265505 0.00682244 0)
(-0.00266714 0.00686577 0)
(-0.00267714 0.00690168 0)
(-0.00243376 0.00641415 0)
(-0.00247093 0.00651175 0)
(-0.00251651 0.00660379 0)
(-0.00255473 0.00669355 0)
(-0.00258688 0.00677902 0)
(-0.00262303 0.00685943 0)
(-0.00265343 0.00693683 0)
(-0.00267932 0.00700978 0)
(-0.00270577 0.00707786 0)
(-0.00272674 0.00714144 0)
(-0.0027452 0.00719911 0)
(-0.00276126 0.00725058 0)
(-0.00277357 0.00729515 0)
(-0.00278371 0.00733178 0)
(-0.00253373 0.00680549 0)
(-0.00257165 0.00690885 0)
(-0.00261815 0.00700589 0)
(-0.00265704 0.00710019 0)
(-0.00268976 0.00718989 0)
(-0.00272667 0.0072742 0)
(-0.00275769 0.0073551 0)
(-0.00278408 0.00743118 0)
(-0.00281108 0.00750198 0)
(-0.00283246 0.00756783 0)
(-0.00285131 0.00762735 0)
(-0.0028677 0.00768021 0)
(-0.00288025 0.00772575 0)
(-0.00289053 0.00776288 0)
(-0.00263387 0.00720249 0)
(-0.00267234 0.00731041 0)
(-0.00271972 0.00741202 0)
(-0.00275929 0.00751051 0)
(-0.00279259 0.00760405 0)
(-0.00283024 0.00769183 0)
(-0.00286185 0.00777578 0)
(-0.00288875 0.00785454 0)
(-0.0029163 0.00792763 0)
(-0.00293813 0.00799539 0)
(-0.00295739 0.0080564 0)
(-0.00297413 0.00811035 0)
(-0.00298692 0.00815656 0)
(-0.00299735 0.00819397 0)
(-0.00273357 0.00760274 0)
(-0.00277271 0.00771533 0)
(-0.002821 0.00782122 0)
(-0.00286125 0.00792357 0)
(-0.00289513 0.00802056 0)
(-0.00293351 0.00811139 0)
(-0.0029657 0.00819796 0)
(-0.0029931 0.00827895 0)
(-0.00302122 0.00835392 0)
(-0.00304351 0.00842324 0)
(-0.00306319 0.0084854 0)
(-0.00308029 0.00854009 0)
(-0.00309331 0.0085867 0)
(-0.00310388 0.00862416 0)
(-0.00283266 0.00800574 0)
(-0.00287252 0.00812279 0)
(-0.00292174 0.00823267 0)
(-0.00296269 0.00833855 0)
(-0.00299714 0.00843863 0)
(-0.00303623 0.00853207 0)
(-0.00306898 0.00862082 0)
(-0.00309689 0.00870357 0)
(-0.00312558 0.00878004 0)
(-0.00314835 0.00885061 0)
(-0.00316845 0.00891357 0)
(-0.00318588 0.00896868 0)
(-0.00319912 0.00901539 0)
(-0.00320982 0.0090527 0)
(-0.00293093 0.00841084 0)
(-0.00297154 0.00853209 0)
(-0.0030217 0.00864563 0)
(-0.00306335 0.00875473 0)
(-0.00309838 0.00885753 0)
(-0.00313817 0.00895321 0)
(-0.00317148 0.00904373 0)
(-0.00319978 0.00912742 0)
(-0.00322912 0.0092052 0)
(-0.00325242 0.00927692 0)
(-0.00327289 0.00934029 0)
(-0.00329062 0.00939547 0)
(-0.00330406 0.00944201 0)
(-0.00331487 0.00947895 0)
(-0.00302816 0.00881741 0)
(-0.00306952 0.00894258 0)
(-0.00312063 0.00905947 0)
(-0.00316298 0.00917148 0)
(-0.0031986 0.00927669 0)
(-0.00323909 0.00937427 0)
(-0.003273 0.00946641 0)
(-0.00330197 0.00955182 0)
(-0.00333186 0.00963019 0)
(-0.00335543 0.00970174 0)
(-0.00337623 0.00976502 0)
(-0.00339422 0.00981993 0)
(-0.00340782 0.00986604 0)
(-0.00341872 0.00990242 0)
(-0.00312412 0.00922487 0)
(-0.00316622 0.00935369 0)
(-0.00321826 0.00947361 0)
(-0.00326132 0.00958825 0)
(-0.00329753 0.00969556 0)
(-0.00333872 0.0097947 0)
(-0.00337324 0.00988809 0)
(-0.00340273 0.00997437 0)
(-0.00343314 0.010053 0)
(-0.00345705 0.0101244 0)
(-0.00347814 0.0101873 0)
(-0.00349638 0.0102417 0)
(-0.00351011 0.0102871 0)
(-0.00352107 0.0103227 0)
(-0.00321861 0.00963274 0)
(-0.00326142 0.00976494 0)
(-0.00331439 0.00988759 0)
(-0.00335815 0.0100046 0)
(-0.00339495 0.0101137 0)
(-0.00343683 0.010214 0)
(-0.00347187 0.0103081 0)
(-0.00350185 0.0103949 0)
(-0.00353275 0.0104735 0)
(-0.00355699 0.0105447 0)
(-0.00357834 0.0106069 0)
(-0.00359678 0.0106604 0)
(-0.00361062 0.010705 0)
(-0.00362161 0.0107397 0)
(-0.0033115 0.0100406 0)
(-0.00335498 0.0101759 0)
(-0.00340883 0.010301 0)
(-0.00345327 0.0104201 0)
(-0.00349064 0.0105307 0)
(-0.00353314 0.0106317 0)
(-0.00356856 0.010726 0)
(-0.00359906 0.0108131 0)
(-0.00363046 0.0108918 0)
(-0.00365499 0.0109623 0)
(-0.00367656 0.0110237 0)
(-0.00369515 0.0110761 0)
(-0.00370906 0.0111195 0)
(-0.00372005 0.0111532 0)
(-0.00340265 0.010448 0)
(-0.00344678 0.0105863 0)
(-0.00350145 0.0107136 0)
(-0.00354651 0.0108345 0)
(-0.00358438 0.0109464 0)
(-0.00362751 0.0110482 0)
(-0.00366351 0.0111433 0)
(-0.00369441 0.0112302 0)
(-0.00372604 0.0113078 0)
(-0.00375079 0.0113773 0)
(-0.00377251 0.0114375 0)
(-0.00379122 0.0114886 0)
(-0.00380516 0.0115308 0)
(-0.00381611 0.0115633 0)
(-0.00349189 0.0108548 0)
(-0.00353662 0.0109958 0)
(-0.00359206 0.011125 0)
(-0.00363766 0.0112477 0)
(-0.00367598 0.0113606 0)
(-0.00371967 0.0114628 0)
(-0.00375612 0.0115582 0)
(-0.00378732 0.0116448 0)
(-0.00381921 0.0117214 0)
(-0.00384412 0.0117897 0)
(-0.00386597 0.0118485 0)
(-0.00388474 0.0118981 0)
(-0.00389865 0.0119389 0)
(-0.00390955 0.0119701 0)
(-0.0035789 0.0112608 0)
(-0.00362423 0.0114043 0)
(-0.0036804 0.0115353 0)
(-0.0037265 0.0116594 0)
(-0.0037652 0.0117731 0)
(-0.00380927 0.0118751 0)
(-0.00384618 0.0119707 0)
(-0.00387768 0.0120571 0)
(-0.00390978 0.0121326 0)
(-0.00393478 0.0121996 0)
(-0.0039567 0.0122568 0)
(-0.00397547 0.0123048 0)
(-0.00398932 0.012344 0)
(-0.00400012 0.0123739 0)
(-0.00366331 0.0116657 0)
(-0.00370926 0.0118116 0)
(-0.0037662 0.0119442 0)
(-0.00381278 0.0120697 0)
(-0.00385186 0.0121842 0)
(-0.0038965 0.0122869 0)
(-0.00393377 0.0123825 0)
(-0.00396531 0.0124676 0)
(-0.00399753 0.0125417 0)
(-0.00402257 0.0126073 0)
(-0.00404448 0.0126627 0)
(-0.00406321 0.012709 0)
(-0.00407695 0.0127465 0)
(-0.00408762 0.012775 0)
(-0.00374489 0.0120695 0)
(-0.00379149 0.0122177 0)
(-0.00384921 0.0123518 0)
(-0.00389627 0.0124786 0)
(-0.00393562 0.0125935 0)
(-0.00398087 0.0126967 0)
(-0.0040184 0.0127923 0)
(-0.00404999 0.0128764 0)
(-0.00408228 0.012949 0)
(-0.00410728 0.0130129 0)
(-0.00412914 0.0130666 0)
(-0.00414778 0.013111 0)
(-0.00416137 0.0131469 0)
(-0.00417187 0.0131739 0)
(-0.00382357 0.012472 0)
(-0.00387079 0.0126226 0)
(-0.00392927 0.0127581 0)
(-0.00397675 0.0128859 0)
(-0.00401669 0.0130025 0)
(-0.00406247 0.0131062 0)
(-0.0041 0.0132009 0)
(-0.00413157 0.0132837 0)
(-0.00416387 0.0133548 0)
(-0.00418877 0.013417 0)
(-0.00421051 0.0134688 0)
(-0.00422901 0.0135114 0)
(-0.00424241 0.0135455 0)
(-0.00425272 0.013571 0)
(-0.00389922 0.0128733 0)
(-0.00394704 0.0130262 0)
(-0.0040062 0.0131632 0)
(-0.00405444 0.0132936 0)
(-0.00409486 0.0134115 0)
(-0.00414083 0.0135144 0)
(-0.0041784 0.0136082 0)
(-0.00420991 0.0136899 0)
(-0.00424217 0.0137594 0)
(-0.00426692 0.0138199 0)
(-0.00428849 0.0138698 0)
(-0.0043068 0.0139105 0)
(-0.00431997 0.0139429 0)
(-0.00433005 0.0139669 0)
(-0.00397159 0.0132732 0)
(-0.00402007 0.0134288 0)
(-0.00408028 0.0135688 0)
(-0.00412914 0.0137013 0)
(-0.00416969 0.0138192 0)
(-0.00421589 0.0139215 0)
(-0.00425348 0.0140147 0)
(-0.00428491 0.0140952 0)
(-0.00431709 0.0141632 0)
(-0.00434163 0.0142221 0)
(-0.00436298 0.0142701 0)
(-0.00438106 0.014309 0)
(-0.00439395 0.0143396 0)
(-0.00440379 0.0143622 0)
(-0.00404103 0.0136748 0)
(-0.00409021 0.0138332 0)
(-0.00415123 0.0139745 0)
(-0.00420036 0.0141078 0)
(-0.00424108 0.014226 0)
(-0.00428752 0.0143279 0)
(-0.00432515 0.0144205 0)
(-0.00435648 0.0145001 0)
(-0.00438855 0.0145666 0)
(-0.00441286 0.014624 0)
(-0.00443394 0.0146702 0)
(-0.00445172 0.0147073 0)
(-0.00446431 0.0147362 0)
(-0.00447387 0.0147574 0)
(-0.00410684 0.0140745 0)
(-0.00415671 0.0142357 0)
(-0.00421849 0.0143786 0)
(-0.00426802 0.0145132 0)
(-0.00430896 0.014632 0)
(-0.0043557 0.0147338 0)
(-0.00439337 0.0148261 0)
(-0.0044246 0.0149048 0)
(-0.00445654 0.0149701 0)
(-0.00448056 0.015026 0)
(-0.00450132 0.0150706 0)
(-0.00451878 0.0151059 0)
(-0.00453102 0.0151333 0)
(-0.00454029 0.0151532 0)
(-0.00416898 0.0144725 0)
(-0.00421955 0.0146365 0)
(-0.00428216 0.0147815 0)
(-0.00433216 0.0149177 0)
(-0.00437339 0.0150374 0)
(-0.00442044 0.0151395 0)
(-0.00445816 0.0152317 0)
(-0.00448926 0.0153098 0)
(-0.00452104 0.0153741 0)
(-0.00454474 0.0154287 0)
(-0.00456515 0.0154718 0)
(-0.00458223 0.0155056 0)
(-0.00459409 0.0155314 0)
(-0.00460305 0.01555 0)
(-0.00422739 0.0148688 0)
(-0.00427877 0.015036 0)
(-0.00434232 0.0151833 0)
(-0.00439289 0.0153215 0)
(-0.00443446 0.0154426 0)
(-0.00448183 0.0155452 0)
(-0.00451956 0.0156376 0)
(-0.0045505 0.0157154 0)
(-0.00458207 0.0157789 0)
(-0.00460542 0.0158325 0)
(-0.00462542 0.0158743 0)
(-0.0046421 0.0159066 0)
(-0.00465355 0.0159311 0)
(-0.00466217 0.0159484 0)
(-0.00428218 0.0152634 0)
(-0.00433453 0.0154342 0)
(-0.00439916 0.0155842 0)
(-0.00445036 0.0157248 0)
(-0.00449228 0.0158475 0)
(-0.00453994 0.0159511 0)
(-0.00457763 0.0160441 0)
(-0.00460834 0.0161219 0)
(-0.00463965 0.0161849 0)
(-0.00466258 0.0162378 0)
(-0.00468216 0.0162784 0)
(-0.00469842 0.0163095 0)
(-0.00470945 0.0163327 0)
(-0.00471773 0.0163489 0)
(-0.00433367 0.0156562 0)
(-0.00438717 0.0158309 0)
(-0.00445294 0.0159841 0)
(-0.00450478 0.0161276 0)
(-0.00454695 0.0162525 0)
(-0.00459478 0.0163574 0)
(-0.00463231 0.0164514 0)
(-0.0046627 0.0165296 0)
(-0.00469371 0.0165925 0)
(-0.00471623 0.0166448 0)
(-0.00473539 0.0166846 0)
(-0.00475123 0.0167146 0)
(-0.00476185 0.0167368 0)
(-0.0047698 0.0167519 0)
(-0.00438224 0.016047 0)
(-0.00443696 0.0162261 0)
(-0.00450383 0.016383 0)
(-0.00455608 0.0165299 0)
(-0.0045983 0.0166574 0)
(-0.00464614 0.0167642 0)
(-0.00468345 0.0168596 0)
(-0.00471357 0.0169386 0)
(-0.00474432 0.0170017 0)
(-0.00476646 0.0170539 0)
(-0.00478521 0.0170932 0)
(-0.00480065 0.0171224 0)
(-0.00481086 0.0171436 0)
(-0.00481848 0.0171579 0)
(-0.0044281 0.0164355 0)
(-0.00448392 0.0166196 0)
(-0.00455154 0.0167808 0)
(-0.00460391 0.0169315 0)
(-0.00464603 0.0170621 0)
(-0.00469391 0.0171713 0)
(-0.00473115 0.0172686 0)
(-0.00476108 0.0173489 0)
(-0.00479162 0.0174127 0)
(-0.00481339 0.0174652 0)
(-0.00483174 0.0175043 0)
(-0.00484676 0.017533 0)
(-0.00485658 0.0175535 0)
(-0.00486387 0.017567 0)
(-0.00447118 0.0168213 0)
(-0.00452758 0.0170109 0)
(-0.00459555 0.0171769 0)
(-0.00464799 0.017332 0)
(-0.00469021 0.0174662 0)
(-0.00473843 0.0175784 0)
(-0.00477571 0.0176782 0)
(-0.00480546 0.0177605 0)
(-0.00483574 0.0178257 0)
(-0.0048571 0.0178789 0)
(-0.00487505 0.0179182 0)
(-0.00488968 0.0179467 0)
(-0.00489912 0.0179667 0)
(-0.00490611 0.0179795 0)
(-0.00451088 0.0172037 0)
(-0.00456737 0.0173993 0)
(-0.00463579 0.0175707 0)
(-0.00468868 0.0177306 0)
(-0.00473143 0.0178691 0)
(-0.00478002 0.0179852 0)
(-0.0048172 0.0180884 0)
(-0.00484664 0.0181733 0)
(-0.00487664 0.0182404 0)
(-0.00489766 0.018295 0)
(-0.00491526 0.0183349 0)
(-0.00492954 0.0183636 0)
(-0.0049386 0.0183832 0)
(-0.00494529 0.0183955 0)
(-0.00454647 0.0175818 0)
(-0.00460338 0.0177838 0)
(-0.00467286 0.0179611 0)
(-0.00472674 0.0181267 0)
(-0.00476987 0.0182705 0)
(-0.00481844 0.0183913 0)
(-0.00485539 0.0184986 0)
(-0.00488465 0.0185869 0)
(-0.00491456 0.0186567 0)
(-0.0049353 0.0187132 0)
(-0.00495255 0.0187544 0)
(-0.00496645 0.0187835 0)
(-0.00497515 0.0188032 0)
(-0.00498156 0.0188151 0)
(-0.00457816 0.0179541 0)
(-0.00463634 0.018163 0)
(-0.00470753 0.0183471 0)
(-0.004762 0.0185194 0)
(-0.00480489 0.0186695 0)
(-0.00485349 0.0187958 0)
(-0.00489058 0.0189081 0)
(-0.00491999 0.0190007 0)
(-0.00494978 0.019074 0)
(-0.00497013 0.0191333 0)
(-0.00498696 0.0191764 0)
(-0.0050005 0.0192066 0)
(-0.00500886 0.0192265 0)
(-0.00501501 0.0192381 0)
(-0.00460674 0.018319 0)
(-0.00466699 0.0185357 0)
(-0.0047393 0.0187278 0)
(-0.00479357 0.0189077 0)
(-0.00483652 0.0190647 0)
(-0.00488583 0.0191975 0)
(-0.00492345 0.0193158 0)
(-0.00495272 0.0194139 0)
(-0.0049821 0.0194919 0)
(-0.00500201 0.0195549 0)
(-0.00501858 0.0196006 0)
(-0.00503181 0.0196324 0)
(-0.00503985 0.019653 0)
(-0.00504577 0.0196646 0)
(-0.00463299 0.0186749 0)
(-0.00469471 0.0189006 0)
(-0.00476712 0.0191015 0)
(-0.00482166 0.0192896 0)
(-0.00486567 0.0194544 0)
(-0.00491607 0.019595 0)
(-0.00495365 0.0197207 0)
(-0.00498236 0.0198255 0)
(-0.00501145 0.0199094 0)
(-0.00503137 0.0199772 0)
(-0.00504771 0.0200265 0)
(-0.00506054 0.0200607 0)
(-0.00506823 0.0200825 0)
(-0.00507392 0.0200943 0)
(-0.00465643 0.0190205 0)
(-0.00471835 0.0192558 0)
(-0.0047912 0.019466 0)
(-0.0048472 0.0196629 0)
(-0.00489284 0.0198368 0)
(-0.00494359 0.0199866 0)
(-0.00498061 0.0201211 0)
(-0.00500913 0.0202339 0)
(-0.00503885 0.020325 0)
(-0.00505865 0.020399 0)
(-0.00507431 0.0204534 0)
(-0.00508665 0.020491 0)
(-0.00509404 0.0205146 0)
(-0.00509953 0.0205269 0)
(-0.00467587 0.0193535 0)
(-0.00473785 0.0195988 0)
(-0.00481232 0.0198186 0)
(-0.00487083 0.0200254 0)
(-0.00491741 0.0202097 0)
(-0.00496779 0.02037 0)
(-0.00500471 0.0205143 0)
(-0.00503462 0.0206366 0)
(-0.0050645 0.0207369 0)
(-0.00508315 0.0208193 0)
(-0.00509825 0.0208802 0)
(-0.00511034 0.0209226 0)
(-0.00511745 0.0209489 0)
(-0.00512266 0.0209621 0)
(-0.00469078 0.0196714 0)
(-0.00475362 0.0199266 0)
(-0.00483141 0.0201566 0)
(-0.00489208 0.0203743 0)
(-0.00493849 0.0205701 0)
(-0.00498881 0.0207418 0)
(-0.00502805 0.0208971 0)
(-0.00505868 0.021031 0)
(-0.00508706 0.0211429 0)
(-0.00510532 0.0212354 0)
(-0.0051204 0.021305 0)
(-0.00513209 0.0213542 0)
(-0.00513848 0.0213847 0)
(-0.00514333 0.0213995 0)
(-0.00470101 0.0199712 0)
(-0.00476676 0.0202362 0)
(-0.00484825 0.020477 0)
(-0.00490976 0.0207065 0)
(-0.00495591 0.0209143 0)
(-0.00500921 0.0210977 0)
(-0.00505024 0.021266 0)
(-0.00507949 0.0214138 0)
(-0.00510798 0.0215388 0)
(-0.00512662 0.0216439 0)
(-0.00514121 0.0217255 0)
(-0.00515162 0.0217843 0)
(-0.00515705 0.0218211 0)
(-0.00516159 0.0218386 0)
(-0.00470735 0.0202498 0)
(-0.00477731 0.0205246 0)
(-0.00486172 0.0207767 0)
(-0.00492332 0.021018 0)
(-0.00497202 0.0212373 0)
(-0.00502838 0.0214337 0)
(-0.00506941 0.0216166 0)
(-0.00509922 0.0217789 0)
(-0.00512855 0.0219193 0)
(-0.00514719 0.0220404 0)
(-0.00516041 0.0221374 0)