/*--------------------------------*- C++ -*----------------------------------*\
| =========                 |                                                 |
| \\      /  F ield         | OpenFOAM Extend Project: Open source CFD        |
|  \\    /   O peration     | Version:  1.6-ext                               |
|   \\  /    A nd           | Web:      www.extend-project.de                 |
|    \\/     M anipulation  |                                                 |
\*---------------------------------------------------------------------------*/
FoamFile
{
    version     2.0;
    format      ascii;
    class       volScalarField;
    location    "0.8";
    object      p;
}
// * * * * * * * * * * * * * * * * * * * * * * * * * * * * * * * * * * * * * //

dimensions      [0 2 -2 0 0 0 0];

internalField   nonuniform List<scalar> 
20940
(
-0.138446
-0.181342
-0.226377
-0.273812
-0.323094
-0.374289
-0.426892
-0.480429
-0.534044
-0.586633
-0.636851
-0.683313
-0.724843
-0.760713
-0.790774
-0.815423
-0.835453
-0.851845
-0.865504
-0.877189
-0.888407
-0.900316
-0.166486
-0.208194
-0.252214
-0.298024
-0.345395
-0.394159
-0.443787
-0.493673
-0.542885
-0.590309
-0.634728
-0.675043
-0.710483
-0.740755
-0.766061
-0.78699
-0.804347
-0.818976
-0.831574
-0.842667
-0.853509
-0.865065
-0.19092
-0.231218
-0.273935
-0.317868
-0.363064
-0.409115
-0.455464
-0.501391
-0.545936
-0.588052
-0.626734
-0.661218
-0.691134
-0.716546
-0.737889
-0.755823
-0.771078
-0.784328
-0.796061
-0.8066
-0.816967
-0.827955
-0.213999
-0.252682
-0.29383
-0.335623
-0.378345
-0.42135
-0.464063
-0.505681
-0.545286
-0.581983
-0.615048
-0.644079
-0.669055
-0.6903
-0.708365
-0.723881
-0.737449
-0.749561
-0.760523
-0.770496
-0.780313
-0.790641
-0.235398
-0.272371
-0.31179
-0.351284
-0.391333
-0.431058
-0.469887
-0.506987
-0.541564
-0.572949
-0.600741
-0.624876
-0.645603
-0.663394
-0.678811
-0.692395
-0.704591
-0.715727
-0.725958
-0.73533
-0.744523
-0.754116
-0.255396
-0.290599
-0.328156
-0.365201
-0.402381
-0.438607
-0.473357
-0.50584
-0.535465
-0.561841
-0.584884
-0.604799
-0.622006
-0.637017
-0.650333
-0.662368
-0.673419
-0.683673
-0.693179
-0.701901
-0.710402
-0.719194
-0.274145
-0.307525
-0.343102
-0.377571
-0.411723
-0.444298
-0.474884
-0.502809
-0.527743
-0.549582
-0.568513
-0.584922
-0.599292
-0.6121
-0.623744
-0.634506
-0.644556
-0.653975
-0.662741
-0.670768
-0.67852
-0.686466
-0.291913
-0.323514
-0.357043
-0.388829
-0.419802
-0.44861
-0.475029
-0.498573
-0.519201
-0.537066
-0.552547
-0.56611
-0.578226
-0.589284
-0.599566
-0.609239
-0.618374
-0.626978
-0.634984
-0.642279
-0.649249
-0.656326
-0.308648
-0.338413
-0.369771
-0.398783
-0.426507
-0.451579
-0.474011
-0.493541
-0.510398
-0.524928
-0.53761
-0.548917
-0.559251
-0.568901
-0.578042
-0.586748
-0.595022
-0.602821
-0.610056
-0.616604
-0.62278
-0.628986
-0.324676
-0.352725
-0.381881
-0.408045
-0.432454
-0.453841
-0.472507
-0.488422
-0.502034
-0.5138
-0.524224
-0.533725
-0.542616
-0.551089
-0.55923
-0.567046
-0.574492
-0.581499
-0.587966
-0.593769
-0.599163
-0.604521
-0.33946
-0.365617
-0.3924
-0.415741
-0.436978
-0.455014
-0.470392
-0.483283
-0.49427
-0.503852
-0.512503
-0.520571
-0.528282
-0.535748
-0.542994
-0.549981
-0.556637
-0.562876
-0.568598
-0.573681
-0.578327
-0.582879
-0.353729
-0.378207
-0.402701
-0.423234
-0.441361
-0.456255
-0.468678
-0.478964
-0.487754
-0.495534
-0.502716
-0.509569
-0.516244
-0.522794
-0.529199
-0.535393
-0.541287
-0.546787
-0.551794
-0.556195
-0.560144
-0.56395
-0.36549
-0.388078
-0.410033
-0.428152
-0.443687
-0.456157
-0.466363
-0.474743
-0.481929
-0.488374
-0.494428
-0.500304
-0.506101
-0.511839
-0.517476
-0.522933
-0.528114
-0.532925
-0.537271
-0.541046
-0.544365
-0.547504
-0.377978
-0.39879
-0.418521
-0.43423
-0.447238
-0.457419
-0.465584
-0.47225
-0.477999
-0.483235
-0.488243
-0.493183
-0.498119
-0.503045
-0.507905
-0.512618
-0.517085
-0.521213
-0.524913
-0.528091
-0.530826
-0.533369
-0.383012
-0.403732
-0.420691
-0.435103
-0.446606
-0.455672
-0.462843
-0.468669
-0.473652
-0.478167
-0.48247
-0.486709
-0.490949
-0.495189
-0.499384
-0.503458
-0.507322
-0.510884
-0.51406
-0.516759
-0.519027
-0.521081
-0.39819
-0.41571
-0.429795
-0.441803
-0.451033
-0.458187
-0.463755
-0.468273
-0.472172
-0.475757
-0.479226
-0.482684
-0.486169
-0.489667
-0.493132
-0.496496
-0.499675
-0.502592
-0.505173
-0.507343
-0.509129
-0.510701
-0.418826
-0.432431
-0.441755
-0.44995
-0.456023
-0.460951
-0.464954
-0.468412
-0.471542
-0.474503
-0.477389
-0.480246
-0.483085
-0.485888
-0.488617
-0.49122
-0.493638
-0.495815
-0.497703
-0.499257
-0.500508
-0.501588
-0.428409
-0.440092
-0.446746
-0.453274
-0.457872
-0.461813
-0.465026
-0.467857
-0.470419
-0.472832
-0.475157
-0.477432
-0.479665
-0.481845
-0.483946
-0.485928
-0.487749
-0.489366
-0.490744
-0.491855
-0.49272
-0.493429
-0.435366
-0.445425
-0.450069
-0.455363
-0.458859
-0.462052
-0.464648
-0.466973
-0.469069
-0.471025
-0.472882
-0.474667
-0.476389
-0.478043
-0.47961
-0.481065
-0.482376
-0.483514
-0.484456
-0.485185
-0.485716
-0.486107
-0.439254
-0.44786
-0.45141
-0.455893
-0.458758
-0.461469
-0.463655
-0.465605
-0.467334
-0.468915
-0.470381
-0.471759
-0.473058
-0.47428
-0.475413
-0.476439
-0.477337
-0.478085
-0.478669
-0.47908
-0.479321
-0.479429
-0.441196
-0.448463
-0.451538
-0.455395
-0.45789
-0.460246
-0.462137
-0.463802
-0.46525
-0.466541
-0.467705
-0.468766
-0.469737
-0.47062
-0.471409
-0.472094
-0.472657
-0.473084
-0.473366
-0.473502
-0.473478
-0.47331
-0.441509
-0.447627
-0.450597
-0.453996
-0.45631
-0.458434
-0.460145
-0.461623
-0.462883
-0.463975
-0.464928
-0.465763
-0.466493
-0.467125
-0.467654
-0.468073
-0.468371
-0.468536
-0.468564
-0.468456
-0.468183
-0.46774
-0.440576
-0.445828
-0.44886
-0.451968
-0.454227
-0.45623
-0.457859
-0.459241
-0.4604
-0.461378
-0.462202
-0.462893
-0.463463
-0.463918
-0.464258
-0.464477
-0.464568
-0.464521
-0.464334
-0.464012
-0.463505
-0.462792
-0.438787
-0.443472
-0.446629
-0.449601
-0.451895
-0.453879
-0.45551
-0.456878
-0.458012
-0.45895
-0.459716
-0.46033
-0.460804
-0.461145
-0.461355
-0.46143
-0.461363
-0.461148
-0.460785
-0.46028
-0.459564
-0.458599
-0.43657
-0.440952
-0.444255
-0.447217
-0.449609
-0.451654
-0.453351
-0.454769
-0.455938
-0.456892
-0.457654
-0.458243
-0.458673
-0.45895
-0.459077
-0.459053
-0.458874
-0.458535
-0.458037
-0.457388
-0.4565
-0.455321
-0.434367
-0.438648
-0.442107
-0.445146
-0.447673
-0.449828
-0.451633
-0.45314
-0.454382
-0.455389
-0.456185
-0.456787
-0.457209
-0.457459
-0.457541
-0.457458
-0.457208
-0.456788
-0.456203
-0.45546
-0.454458
-0.453131
-0.432457
-0.436775
-0.440392
-0.443555
-0.446235
-0.448527
-0.45046
-0.45208
-0.453419
-0.454505
-0.455359
-0.456001
-0.456443
-0.456695
-0.456765
-0.456657
-0.456376
-0.455922
-0.455303
-0.45453
-0.453493
-0.452119
-0.431198
-0.43563
-0.439397
-0.442702
-0.445532
-0.447963
-0.450027
-0.451766
-0.453211
-0.454388
-0.455318
-0.456018
-0.456502
-0.456781
-0.456863
-0.45676
-0.45648
-0.456032
-0.45543
-0.454692
-0.453719
-0.452435
-0.430382
-0.434946
-0.438831
-0.442256
-0.44521
-0.447758
-0.449937
-0.451784
-0.453328
-0.454596
-0.455606
-0.456373
-0.456909
-0.457226
-0.457335
-0.45725
-0.456988
-0.456571
-0.456029
-0.455394
-0.45461
-0.453608
-0.430575
-0.435275
-0.439306
-0.442877
-0.445979
-0.448672
-0.450995
-0.452989
-0.454684
-0.456105
-0.45727
-0.458188
-0.458865
-0.459302
-0.4595
-0.459464
-0.459208
-0.458761
-0.458169
-0.457508
-0.456846
-0.45626
1.22377
1.27462
1.3254
1.37603
1.42606
1.47509
1.52274
1.56859
1.61227
1.65339
1.6916
1.72655
1.75795
1.78558
1.8093
1.82918
1.84556
1.85913
1.87088
1.88202
1.89542
1.91298
1.21567
1.26621
1.31636
1.36634
1.4157
1.46401
1.51091
1.55599
1.59886
1.63916
1.67653
1.71063
1.74118
1.76795
1.79083
1.8099
1.82553
1.83846
1.8497
1.8605
1.87372
1.89122
1.19556
1.24541
1.29427
1.343
1.39106
1.43803
1.48353
1.52718
1.56858
1.60737
1.64319
1.67572
1.70467
1.72982
1.7511
1.76861
1.78278
1.79444
1.80466
1.81477
1.82763
1.84499
1.16666
1.21545
1.26236
1.30916
1.35521
1.40007
1.4434
1.48479
1.52387
1.56029
1.59368
1.62374
1.65019
1.67282
1.69159
1.70667
1.71858
1.72825
1.73689
1.74593
1.75819
1.7753
1.12829
1.17567
1.22002
1.26431
1.30774
1.34988
1.39038
1.42885
1.46493
1.49825
1.52848
1.55531
1.57848
1.5978
1.61327
1.62513
1.63403
1.64106
1.6476
1.65518
1.66662
1.68336
1.08218
1.12779
1.16899
1.21021
1.25044
1.28922
1.32624
1.36112
1.3935
1.42302
1.44935
1.4722
1.49132
1.50654
1.51792
1.52579
1.53094
1.53466
1.53855
1.54428
1.55466
1.57088
1.02927
1.07276
1.11032
1.148
1.18452
1.21943
1.25243
1.28315
1.31124
1.33634
1.35813
1.37634
1.39071
1.40112
1.40767
1.41082
1.41151
1.41128
1.41197
1.41544
1.42447
1.44
0.9713
1.01235
1.04584
1.07957
1.11192
1.14247
1.17096
1.19699
1.22023
1.24033
1.25699
1.26992
1.2789
1.28382
1.28485
1.28257
1.27811
1.27329
1.27023
1.27101
1.2784
1.293
0.909793
0.948059
0.97715
1.00662
1.03448
1.06034
1.08394
1.1049
1.12288
1.13755
1.1486
1.15574
1.15877
1.15762
1.1525
1.14412
1.13385
1.12379
1.11641
1.11404
1.11942
1.13282
0.846712
0.881901
0.906375
0.931327
0.954392
0.975236
0.993602
1.00911
1.02143
1.03023
1.0352
1.03607
1.03263
1.02485
1.01301
0.997928
0.981218
0.965305
0.95305
0.947081
0.950093
0.961964
0.783442
0.815218
0.835012
0.855377
0.873573
0.889318
0.902352
0.91229
0.918791
0.921527
0.920188
0.914498
0.904256
0.889434
0.870369
0.848027
0.82426
0.80186
0.784116
0.774009
0.774201
0.784152
0.722186
0.750259
0.765323
0.780937
0.794074
0.804507
0.811966
0.816061
0.816452
0.81281
0.804826
0.792226
0.774811
0.75257
0.725888
0.695865
0.664601
0.635264
0.611603
0.596972
0.593985
0.601601
0.663306
0.68733
0.698086
0.709219
0.717592
0.723012
0.725185
0.723708
0.718225
0.708391
0.693881
0.674403
0.649742
0.619879
0.585237
0.547035
0.507641
0.470659
0.440375
0.420607
0.413933
0.41875
0.610077
0.62908
0.635448
0.641866
0.645258
0.645416
0.642017
0.634654
0.622967
0.606607
0.585251
0.55861
0.526479
0.488859
0.446221
0.399909
0.35254
0.308102
0.271355
0.246515
0.23602
0.237559
0.560287
0.574186
0.57757
0.579928
0.579175
0.574959
0.566888
0.554533
0.537496
0.515388
0.487841
0.454519
0.41516
0.36972
0.318654
0.263394
0.206848
0.153564
0.109073
0.0782992
0.0637058
0.0620267
0.522553
0.524713
0.525115
0.523175
0.517465
0.50798
0.494257
0.475894
0.452498
0.423684
0.38909
0.348394
0.301384
0.248107
0.189207
0.126406
0.0629944
0.00389421
-0.0451409
-0.0792053
-0.0963785
-0.100712
0.482776
0.475296
0.470748
0.461603
0.448574
0.431432
0.409714
0.383105
0.351266
0.313884
0.270685
0.221469
0.166216
0.105291
0.039802
-0.0279948
-0.0944294
-0.15465
-0.203566
-0.237337
-0.25531
-0.262252
0.435457
0.421071
0.411737
0.396109
0.376871
0.353131
0.324583
0.290949
0.251934
0.207293
0.15683
0.100463
0.0383525
-0.0288539
-0.0996709
-0.171432
-0.2402
-0.301208
-0.349898
-0.383294
-0.401888
-0.411073
0.385334
0.365167
0.350621
0.328743
0.303518
0.273468
0.238539
0.198449
0.152956
0.101871
0.0450733
-0.0174024
-0.0852044
-0.157393
-0.232109
-0.306328
-0.37595
-0.43643
-0.483849
-0.516134
-0.534787
-0.54553
0.333225
0.307983
0.288182
0.260546
0.229723
0.193849
0.153102
0.107184
0.0559176
-0.000823367
-0.0630684
-0.130639
-0.202953
-0.278751
-0.355807
-0.430819
-0.499685
-0.558264
-0.603413
-0.633972
-0.652271
-0.664092
0.280214
0.250546
0.22569
0.192897
0.157
0.115957
0.0701181
0.0191744
-0.0369799
-0.0984071
-0.165032
-0.236507
-0.312001
-0.389929
-0.467751
-0.542008
-0.608758
-0.664414
-0.706656
-0.735163
-0.752885
-0.76545
0.227486
0.194004
0.164456
0.127156
0.0867854
0.0412941
-0.00885634
-0.0639684
-0.124077
-0.189172
-0.259056
-0.333192
-0.410486
-0.489049
-0.566107
-0.638182
-0.701654
-0.753596
-0.79251
-0.818793
-0.83581
-0.848872
0.175856
0.139162
0.105419
0.0643098
0.02015
-0.0290005
-0.0826223
-0.140992
-0.204075
-0.271774
-0.343752
-0.419267
-0.496958
-0.574681
-0.649529
-0.718157
-0.777405
-0.825073
-0.860432
-0.884452
-0.90071
-0.914095
0.12632
0.087011
0.0496572
0.00545009
-0.0417787
-0.0937828
-0.150024
-0.210734
-0.275806
-0.345042
-0.417946
-0.493559
-0.570275
-0.645762
-0.717107
-0.78124
-0.835575
-0.878649
-0.910408
-0.932231
-0.947739
-0.961318
0.0792011
0.037862
-0.00246296
-0.0490412
-0.0985836
-0.152615
-0.210602
-0.272719
-0.338777
-0.408465
-0.481113
-0.555546
-0.629954
-0.701911
-0.768629
-0.827447
-0.876419
-0.914784
-0.943037
-0.962802
-0.977597
-0.991263
0.0352844
-0.00752077
-0.0501561
-0.0984057
-0.14953
-0.204803
-0.263712
-0.326354
-0.392452
-0.461561
-0.532829
-0.604885
-0.675774
-0.743088
-0.804297
-0.857252
-0.900669
-0.934408
-0.95937
-0.977271
-0.991406
-1.00506
-0.0057958
-0.0495416
-0.0938313
-0.14307
-0.195049
-0.25079
-0.309798
-0.372086
-0.437274
-0.504769
-0.573543
-0.642063
-0.708319
-0.770039
-0.825078
-0.871864
-0.909743
-0.939086
-0.961043
-0.977287
-0.990805
-1.00435
-0.0432704
-0.0874534
-0.132767
-0.182374
-0.234551
-0.290073
-0.348459
-0.409616
-0.473052
-0.538018
-0.603323
-0.667332
-0.72808
-0.783554
-0.832085
-0.872694
-0.90529
-0.93061
-0.949909
-0.964713
-0.977646
-0.990957
-0.078344
-0.122532
-0.168291
-0.217686
-0.269436
-0.324072
-0.381119
-0.440365
-0.501192
-0.562701
-0.623577
-0.682167
-0.736666
-0.785438
-0.827343
-0.861972
-0.889674
-0.911409
-0.928402
-0.941951
-0.954293
-0.967228
-0.109647
-0.15342
-0.199087
-0.247761
-0.298546
-0.351738
-0.406852
-0.463545
-0.52107
-0.5784
-0.634158
-0.68677
-0.734701
-0.776758
-0.812333
-0.84149
-0.86488
-0.883537
-0.898556
-0.910971
-0.922625
-0.93492
-0.0966425
-0.140985
-0.187343
-0.236785
-0.288431
-0.342543
-0.398624
-0.456296
-0.514775
-0.572983
-0.629499
-0.682709
-0.731062
-0.77337
-0.809048
-0.838192
-0.861486
-0.879993
-0.89483
-0.907049
-0.918483
-0.930529
-0.0650818
-0.109856
-0.156311
-0.206459
-0.259047
-0.31457
-0.372547
-0.432738
-0.49449
-0.556855
-0.618472
-0.677643
-0.732539
-0.781524
-0.823484
-0.858046
-0.885604
-0.907148
-0.923929
-0.937262
-0.949367
-0.962028
-0.0299635
-0.074743
-0.120766
-0.171112
-0.224107
-0.280483
-0.339764
-0.40183
-0.466158
-0.531959
-0.597989
-0.662566
-0.72369
-0.779342
-0.827874
-0.868356
-0.900744
-0.925822
-0.944874
-0.959439
-0.972122
-0.985144
0.00728289
-0.0370695
-0.0820886
-0.132058
-0.184837
-0.241405
-0.301274
-0.364434
-0.430482
-0.498788
-0.568272
-0.637349
-0.703967
-0.765837
-0.820831
-0.867425
-0.905028
-0.934066
-0.955729
-0.97171
-0.984969
-0.998218
0.0478648
0.00444705
-0.0389435
-0.0879194
-0.139834
-0.195914
-0.255655
-0.319139
-0.38607
-0.455969
-0.527939
-0.600552
-0.671805
-0.739259
-0.800392
-0.853103
-0.896176
-0.929544
-0.954161
-0.971771
-0.985641
-0.999011
0.0910029
0.0490456
0.00793206
-0.0393764
-0.0897075
-0.144532
-0.203333
-0.26627
-0.333141
-0.403606
-0.476954
-0.551957
-0.626747
-0.698858
-0.765496
-0.824038
-0.872612
-0.910542
-0.938397
-0.957841
-0.972367
-0.985761
0.137081
0.0971484
0.0589673
0.0140177
-0.034006
-0.0868021
-0.143849
-0.205369
-0.271243
-0.341254
-0.414869
-0.491079
-0.568216
-0.643898
-0.71519
-0.779045
-0.832952
-0.875543
-0.906856
-0.928327
-0.943566
-0.956896
0.185343
0.148016
0.113402
0.0715278
0.0265577
-0.0233955
-0.0778276
-0.137009
-0.200898
-0.269382
-0.342095
-0.418247
-0.496418
-0.574404
-0.64926
-0.717648
-0.776471
-0.823631
-0.858508
-0.882151
-0.898144
-0.911313
0.235511
0.201379
0.170913
0.132816
0.091611
0.0452944
-0.00568373
-0.0616243
-0.122557
-0.188461
-0.259115
-0.333944
-0.411796
-0.490716
-0.56788
-0.639793
-0.702886
-0.754327
-0.792746
-0.818638
-0.835399
-0.848286
0.286645
0.256301
0.230479
0.196846
0.160082
0.11818
0.0714826
0.01968
-0.0373307
-0.0996049
-0.16705
-0.239288
-0.315433
-0.393837
-0.471893
-0.546111
-0.612571
-0.667776
-0.709536
-0.737653
-0.755138
-0.767579
0.337991
0.312031
0.291221
0.262691
0.230962
0.194187
0.152541
0.105721
0.0535525
-0.00408681
-0.0672151
-0.135628
-0.208702
-0.285111
-0.362558
-0.43769
-0.506403
-0.564625
-0.609342
-0.639534
-0.657629
-0.669387
0.38844
0.367496
0.351904
0.329071
0.302896
0.271895
0.236016
0.194972
0.148521
0.0964746
0.0387201
-0.0246901
-0.0933681
-0.166317
-0.241603
-0.316135
-0.385784
-0.446048
-0.493126
-0.525097
-0.54359
-0.554345
0.436962
0.421712
0.41131
0.394664
0.374427
0.349682
0.320127
0.285479
0.24544
0.199764
0.148261
0.0908612
0.0277523
-0.0403686
-0.111944
-0.18423
-0.253238
-0.314213
-0.362695
-0.395859
-0.414358
-0.423641
0.482797
0.474294
0.468659
0.458436
0.444359
0.426165
0.403389
0.37571
0.342785
0.3043
0.259982
0.209639
0.153268
0.0912787
0.0248405
-0.0437058
-0.110619
-0.171028
-0.219911
-0.253566
-0.271529
-0.278669
0.521544
0.522529
0.521842
0.518784
0.511965
0.501371
0.486526
0.467024
0.442467
0.412466
0.376658
0.334726
0.286465
0.231955
0.171891
0.108081
0.0439062
-0.0156556
-0.0648797
-0.0989834
-0.116252
-0.120895
0.557632
0.570163
0.572448
0.573705
0.571823
0.566471
0.557243
0.543707
0.525458
0.502107
0.473282
0.438648
0.397956
0.351181
0.298833
0.24242
0.184943
0.131018
0.0861651
0.0552111
0.0404173
0.0383367
0.60533
0.622894
0.62817
0.63348
0.635725
0.63473
0.630153
0.621582
0.608653
0.591017
0.568346
0.540356
0.50685
0.467852
0.423879
0.376347
0.327958
0.282761
0.245515
0.220365
0.209572
0.210644
0.656752
0.679383
0.689048
0.699081
0.706303
0.710561
0.711539
0.708832
0.70208
0.690937
0.675076
0.654208
0.628128
0.596838
0.560803
0.521308
0.480802
0.442947
0.412042
0.391853
0.384797
0.389097
0.713924
0.740661
0.754631
0.769155
0.781148
0.79042
0.796683
0.799545
0.798661
0.793703
0.784359
0.770359
0.751513
0.727828
0.699732
0.668382
0.63595
0.605665
0.581296
0.566162
0.562736
0.56981
0.773801
0.804352
0.823076
0.842378
0.859452
0.874054
0.885906
0.894621
0.899857
0.901283
0.89859
0.891505
0.879836
0.863572
0.843086
0.819399
0.794429
0.771027
0.752512
0.741842
0.741558
0.750964
0.836027
0.870097
0.893528
0.917449
0.939429
0.959163
0.976379
0.990699
1.00178
1.0093
1.01295
1.01246
1.00763
0.998442
0.9852
0.968789
0.950875
0.933941
0.920883
0.914321
0.916844
0.928183
0.898491
0.93576
0.963861
0.992353
1.01918
1.04398
1.06649
1.08631
1.10311
1.11655
1.12633
1.13217
1.13386
1.13135
1.12489
1.11523
1.10378
1.0927
1.08451
1.08154
1.08644
1.09933
0.959828
1
1.03256
1.06538
1.09677
1.12634
1.15379
1.17876
1.20089
1.21985
1.23532
1.24703
1.25475
1.2584
1.25817
1.25466
1.24909
1.24329
1.23945
1.23964
1.24657
1.26071
1.0181
1.06084
1.09756
1.13441
1.17006
1.20407
1.23613
1.26588
1.29295
1.31701
1.33772
1.3548
1.36803
1.37728
1.38267
1.3847
1.38435
1.38322
1.38317
1.38608
1.39469
1.4098
1.07178
1.11676
1.15722
1.19771
1.23717
1.27515
1.31135
1.34537
1.37685
1.40544
1.43082
1.45268
1.47078
1.48497
1.49532
1.5022
1.50642
1.50933
1.51255
1.51778
1.52778
1.54365
1.11911
1.16597
1.20969
1.25337
1.29615
1.33761
1.3774
1.41515
1.45047
1.483
1.51242
1.53841
1.56072
1.57916
1.59376
1.60477
1.61287
1.6192
1.62517
1.63231
1.64344
1.65988
1.15908
1.20747
1.25388
1.30019
1.34571
1.39004
1.4328
1.4736
1.51208
1.54786
1.58061
1.60999
1.63575
1.65768
1.67575
1.69015
1.70141
1.71051
1.7187
1.72738
1.73939
1.75626
1.18991
1.23947
1.28797
1.33634
1.38402
1.43059
1.47568
1.5189
1.55986
1.59819
1.63353
1.66557
1.69401
1.71866
1.73942
1.75643
1.77013
1.78137
1.79125
1.80111
1.81377
1.83097
1.21218
1.26255
1.31248
1.36224
1.41136
1.45944
1.50609
1.5509
1.59351
1.63353
1.6706
1.70441
1.73465
1.76111
1.78367
1.80244
1.81778
1.83046
1.84148
1.85213
1.86523
1.88263
1.22259
1.27339
1.32409
1.37464
1.42459
1.47355
1.52111
1.56688
1.61047
1.6515
1.6896
1.72445
1.75575
1.78327
1.80689
1.82667
1.84295
1.85644
1.86811
1.8792
1.89256
1.91009
-0.125911
-0.154588
-0.179747
-0.203633
-0.225857
-0.246666
-0.266181
-0.284639
-0.301974
-0.318491
-0.333666
-0.348216
-0.360202
-0.372825
-0.378118
-0.393494
-0.414846
-0.425029
-0.432387
-0.436486
-0.438512
-0.438827
-0.437828
-0.435912
-0.433524
-0.431117
-0.429011
-0.427561
-0.426622
-0.426708
-0.169357
-0.196826
-0.220552
-0.242799
-0.263292
-0.282312
-0.299989
-0.316658
-0.332151
-0.34696
-0.360258
-0.373168
-0.383291
-0.394206
-0.399322
-0.41156
-0.429029
-0.437119
-0.442761
-0.445377
-0.446061
-0.445229
-0.443367
-0.440889
-0.438207
-0.435715
-0.433663
-0.432351
-0.431562
-0.431807
-0.215077
-0.241533
-0.263956
-0.284634
-0.303399
-0.320559
-0.336253
-0.350875
-0.364197
-0.376813
-0.387743
-0.398385
-0.405973
-0.414686
-0.417003
-0.426364
-0.439035
-0.444362
-0.447895
-0.44932
-0.449457
-0.448476
-0.446657
-0.444302
-0.441773
-0.439451
-0.437571
-0.436428
-0.435769
-0.436181
-0.263295
-0.288138
-0.308691
-0.327231
-0.343695
-0.358401
-0.371511
-0.38344
-0.393977
-0.403741
-0.411841
-0.419674
-0.424826
-0.431119
-0.432069
-0.438999
-0.447704
-0.451231
-0.453445
-0.454019
-0.453514
-0.452071
-0.449961
-0.447475
-0.444948
-0.442717
-0.440979
-0.439996
-0.439471
-0.440045
-0.313459
-0.336408
-0.354798
-0.37087
-0.384661
-0.39649
-0.406558
-0.415293
-0.422561
-0.428988
-0.433887
-0.438581
-0.4411
-0.444827
-0.444208
-0.448813
-0.4542
-0.456158
-0.457201
-0.457098
-0.456197
-0.454558
-0.452387
-0.44994
-0.447519
-0.445437
-0.443867
-0.443051
-0.44266
-0.443397
-0.365602
-0.386142
-0.401832
-0.414861
-0.425365
-0.43368
-0.440073
-0.445009
-0.448501
-0.451197
-0.452691
-0.454183
-0.454214
-0.455591
-0.453796
-0.45642
-0.459421
-0.460314
-0.46056
-0.459953
-0.458686
-0.456812
-0.454523
-0.452062
-0.449711
-0.447753
-0.446333
-0.445672
-0.445408
-0.446302
-0.419202
-0.436784
-0.449204
-0.458592
-0.465197
-0.469405
-0.471596
-0.472314
-0.47176
-0.470619
-0.468751
-0.467209
-0.464951
-0.464218
-0.461377
-0.462332
-0.463642
-0.463694
-0.463292
-0.462257
-0.46069
-0.458632
-0.456261
-0.453807
-0.451531
-0.449692
-0.448413
-0.447896
-0.447756
-0.448805
-0.473744
-0.487685
-0.496147
-0.501213
-0.503274
-0.502824
-0.500401
-0.496669
-0.492023
-0.48718
-0.482201
-0.477968
-0.473732
-0.471219
-0.467501
-0.467091
-0.467248
-0.466642
-0.465715
-0.464297
-0.462441
-0.460197
-0.457732
-0.455269
-0.45305
-0.451311
-0.450156
-0.44977
-0.449745
-0.45095
-0.52833
-0.537871
-0.541658
-0.541759
-0.538753
-0.533296
-0.526113
-0.517994
-0.509488
-0.501307
-0.493617
-0.487106
-0.481206
-0.4772
-0.472691
-0.471153
-0.470484
-0.469294
-0.467889
-0.4661
-0.463961
-0.461527
-0.458964
-0.45648
-0.454303
-0.452646
-0.451597
-0.451327
-0.45141
-0.452772
-0.581808
-0.586178
-0.584642
-0.579292
-0.570926
-0.560396
-0.548599
-0.536419
-0.524487
-0.513456
-0.503506
-0.495127
-0.487846
-0.48259
-0.477347
-0.474849
-0.473522
-0.471775
-0.469907
-0.467741
-0.46531
-0.462678
-0.460001
-0.457481
-0.455326
-0.453731
-0.452768
-0.452598
-0.452778
-0.454301
-0.63279
-0.631351
-0.624057
-0.613055
-0.599364
-0.584017
-0.568031
-0.552318
-0.537507
-0.524145
-0.512363
-0.502468
-0.494028
-0.487701
-0.481746
-0.478396
-0.476469
-0.474158
-0.471818
-0.469259
-0.466524
-0.463679
-0.460875
-0.4583
-0.456145
-0.45459
-0.453693
-0.453606
-0.453871
-0.455555
-0.679859
-0.672263
-0.659121
-0.642629
-0.623989
-0.60436
-0.584797
-0.566168
-0.549037
-0.533816
-0.52056
-0.509421
-0.499987
-0.49271
-0.486056
-0.481913
-0.47938
-0.476484
-0.473652
-0.470684
-0.46763
-0.464557
-0.461607
-0.458957
-0.456782
-0.455244
-0.454392
-0.45437
-0.454707
-0.456548
-0.721826
-0.708136
-0.689454
-0.667991
-0.645056
-0.621851
-0.599395
-0.578458
-0.559503
-0.542805
-0.528348
-0.516158
-0.505841
-0.497698
-0.490352
-0.485449
-0.482269
-0.478767
-0.475421
-0.472027
-0.468641
-0.465325
-0.462214
-0.459469
-0.457251
-0.455708
-0.454881
-0.454905
-0.455299
-0.457287
-0.757971
-0.738685
-0.715132
-0.689476
-0.66305
-0.637024
-0.612326
-0.589607
-0.569219
-0.551328
-0.535857
-0.522748
-0.511622
-0.502668
-0.494643
-0.488997
-0.485122
-0.480996
-0.477122
-0.473291
-0.469562
-0.465991
-0.462702
-0.459842
-0.457561
-0.455993
-0.455171
-0.455225
-0.45566
-0.457773
-0.788164
-0.764132
-0.73661
-0.707657
-0.678559
-0.650406
-0.624014
-0.599919
-0.578382
-0.55949
-0.543127
-0.529183
-0.517296
-0.507572
-0.498888
-0.492514
-0.487903
-0.483147
-0.478736
-0.474466
-0.470389
-0.466553
-0.463072
-0.46008
-0.457716
-0.456104
-0.45527
-0.455339
-0.455802
-0.45801
-0.812831
-0.78509
-0.754572
-0.723192
-0.692149
-0.662437
-0.634767
-0.609583
-0.587086
-0.567312
-0.550132
-0.535405
-0.522791
-0.512329
-0.503015
-0.495931
-0.49056
-0.485181
-0.480238
-0.475535
-0.47111
-0.467005
-0.463319
-0.46018
-0.457715
-0.456043
-0.455185
-0.455258
-0.45574
-0.458002
-0.832794
-0.80239
-0.769774
-0.736707
-0.704293
-0.673439
-0.644775
-0.618689
-0.595345
-0.57476
-0.556805
-0.541329
-0.528013
-0.516844
-0.506935
-0.499168
-0.493035
-0.487054
-0.481597
-0.476474
-0.47171
-0.467334
-0.463437
-0.460136
-0.457555
-0.45581
-0.454918
-0.454992
-0.455492
-0.457765
-0.849059
-0.816905
-0.782918
-0.74872
-0.715339
-0.683618
-0.654139
-0.627257
-0.603129
-0.581771
-0.563066
-0.546865
-0.532871
-0.521025
-0.510556
-0.502144
-0.495269
-0.488724
-0.482783
-0.477265
-0.472174
-0.467531
-0.463416
-0.459942
-0.457232
-0.455402
-0.454472
-0.45455
-0.455081
-0.457325
-0.862553
-0.829351
-0.794512
-0.759559
-0.725467
-0.693043
-0.662847
-0.63523
-0.610355
-0.588249
-0.568816
-0.551914
-0.537269
-0.524784
-0.513794
-0.504786
-0.497215
-0.490156
-0.483773
-0.477891
-0.472493
-0.467589
-0.463254
-0.459598
-0.456747
-0.454824
-0.453856
-0.453948
-0.454537
-0.456733
-0.874057
-0.840277
-0.804902
-0.769404
-0.734734
-0.701688
-0.670824
-0.642502
-0.616904
-0.594074
-0.573936
-0.556364
-0.541101
-0.528022
-0.516556
-0.507018
-0.498825
-0.491318
-0.484548
-0.478344
-0.472664
-0.467512
-0.462957
-0.459111
-0.456109
-0.454085
-0.45308
-0.453203
-0.453893
-0.456063
-0.885073
-0.850938
-0.815112
-0.779093
-0.743831
-0.710123
-0.678542
-0.649466
-0.623098
-0.599505
-0.578635
-0.560373
-0.544486
-0.530826
-0.518894
-0.508869
-0.500134
-0.492236
-0.485127
-0.478629
-0.472679
-0.467272
-0.462476
-0.458413
-0.45523
-0.453081
-0.452033
-0.452213
-0.453091
-0.455386
-0.896756
-0.862297
-0.825937
-0.789294
-0.753334
-0.718863
-0.68647
-0.656553
-0.62934
-0.604919
-0.583258
-0.564259
-0.547709
-0.533452
-0.52103
-0.510517
-0.501281
-0.493005
-0.485572
-0.478786
-0.472556
-0.466868
-0.461794
-0.457468
-0.454059
-0.45175
-0.450641
-0.450902
-0.45206
-0.454779
0.187086
0.186759
0.186817
0.18683
0.186942
0.187005
0.187017
0.186914
0.186679
0.186292
0.185754
0.185076
0.184276
0.183377
0.182402
0.181368
0.180293
0.179186
0.178052
0.176894
0.175713
0.174512
0.173293
0.172065
0.185898
0.185542
0.185589
0.185583
0.18568
0.185723
0.185717
0.185594
0.185342
0.18494
0.184395
0.183716
0.182925
0.182044
0.181097
0.180101
0.179072
0.178017
0.176943
0.175852
0.174743
0.173618
0.17248
0.171337
0.184551
0.184166
0.184201
0.184176
0.184256
0.184281
0.184256
0.184115
0.183846
0.183433
0.182883
0.182208
0.181431
0.180575
0.179661
0.178709
0.177732
0.176738
0.175732
0.174715
0.173687
0.17265
0.171604
0.170556
0.183042
0.182629
0.182652
0.182607
0.182671
0.182676
0.182633
0.182474
0.182192
0.181771
0.18122
0.180554
0.179796
0.178968
0.178095
0.177192
0.176273
0.175346
0.174415
0.173482
0.172545
0.171605
0.170662
0.169722
0.181372
0.18093
0.180942
0.180876
0.180924
0.18091
0.180849
0.180674
0.18038
0.179953
0.179405
0.178752
0.178017
0.177225
0.176396
0.175548
0.174694
0.173841
0.172993
0.17215
0.171313
0.170481
0.169652
0.168832
0.179539
0.17907
0.17907
0.178984
0.179014
0.178982
0.178904
0.178715
0.178411
0.177981
0.17744
0.176803
0.176096
0.175342
0.174563
0.173776
0.172992
0.17222
0.171462
0.170719
0.169991
0.169276
0.168572
0.167883
0.177544
0.177048
0.177036
0.176929
0.176943
0.176892
0.176798
0.176596
0.176285
0.175855
0.175324
0.174708
0.174032
0.173322
0.172597
0.171875
0.171167
0.170481
0.169821
0.169186
0.168576
0.167988
0.167419
0.166871
0.175386
0.174864
0.17484
0.174713
0.174711
0.174642
0.174533
0.174318
0.174002
0.173575
0.173057
0.172464
0.171825
0.171161
0.170495
0.169843
0.169218
0.168625
0.168069
0.16755
0.167066
0.166614
0.166191
0.165795
0.173065
0.172519
0.172482
0.172336
0.172317
0.172231
0.172107
0.171883
0.171563
0.171142
0.170639
0.170074
0.169473
0.16886
0.168257
0.167681
0.167142
0.166649
0.166204
0.165808
0.165459
0.165153
0.164885
0.164651
0.170583
0.170012
0.169964
0.169798
0.169763
0.16966
0.169523
0.16929
0.168968
0.168555
0.16807
0.167535
0.166976
0.166419
0.165883
0.165386
0.16494
0.164552
0.164226
0.163961
0.163754
0.163603
0.163498
0.163436
0.16794
0.167346
0.167286
0.167101
0.16705
0.16693
0.166781
0.16654
0.166219
0.165815
0.165351
0.164849
0.164336
0.163836
0.163372
0.162959
0.162611
0.162334
0.162133
0.162006
0.16195
0.161961
0.162029
0.162148
0.165137
0.164521
0.164449
0.164245
0.164178
0.164042
0.163881
0.163634
0.163315
0.162922
0.162482
0.162015
0.16155
0.161112
0.160723
0.1604
0.160155
0.159995
0.159925
0.159943
0.160046
0.160227
0.160477
0.160784
0.162176
0.161538
0.161454
0.161232
0.161149
0.160998
0.160826
0.160573
0.160257
0.159878
0.159463
0.159034
0.15862
0.158248
0.157938
0.157708
0.157571
0.157534
0.157602
0.157772
0.158041
0.1584
0.158838
0.159343
0.159058
0.1584
0.158304
0.158064
0.157965
0.157799
0.157616
0.157359
0.157048
0.156684
0.156296
0.155907
0.155548
0.155243
0.155016
0.154885
0.154861
0.154953
0.155164
0.155493
0.155934
0.156479
0.157114
0.157823
0.155785
0.155109
0.155001
0.154743
0.154629
0.154447
0.154255
0.153994
0.153689
0.153341
0.152982
0.152636
0.152333
0.1521
0.15196
0.151931
0.152026
0.152252
0.152613
0.153107
0.153727
0.154464
0.155302
0.156223
0.152361
0.151667
0.151548
0.151271
0.151142
0.150945
0.150743
0.15048
0.150181
0.149852
0.149523
0.149222
0.148979
0.148821
0.148771
0.148849
0.149067
0.149433
0.149949
0.150614
0.151421
0.152356
0.153403
0.154543
0.148788
0.148079
0.147947
0.147653
0.147508
0.147297
0.147086
0.14682
0.146529
0.146219
0.145923
0.145668
0.145487
0.145407
0.145453
0.145641
0.145987
0.146498
0.147176
0.148018
0.149016
0.150156
0.151418
0.152782
0.145071
0.144347
0.144203
0.143892
0.143731
0.143505
0.143285
0.143017
0.142735
0.142445
0.142183
0.141978
0.141862
0.141863
0.142007
0.142311
0.14279
0.143451
0.144296
0.14532
0.146515
0.147865
0.149349
0.150941
0.141213
0.140477
0.140321
0.139993
0.139815
0.139575
0.139345
0.139077
0.138803
0.138535
0.138309
0.138155
0.138106
0.138192
0.138438
0.138863
0.139479
0.140295
0.141311
0.142524
0.14392
0.145486
0.147195
0.149022
0.137221
0.136474
0.136306
0.13596
0.135766
0.135511
0.135272
0.135003
0.134739
0.134494
0.134305
0.134204