/*--------------------------------*- C++ -*----------------------------------*\
| =========                 |                                                 |
| \\      /  F ield         | OpenFOAM Extend Project: Open source CFD        |
|  \\    /   O peration     | Version:  1.6-ext                               |
|   \\  /    A nd           | Web:      www.extend-project.de                 |
|    \\/     M anipulation  |                                                 |
\*---------------------------------------------------------------------------*/
FoamFile
{
    version     2.0;
    format      ascii;
    class       surfaceScalarField;
    location    "0.8";
    object      phi;
}
// * * * * * * * * * * * * * * * * * * * * * * * * * * * * * * * * * * * * * //

dimensions      [0 3 -1 0 0 0 0];

internalField   nonuniform List<scalar> 
41420
(
-0.000126947
0.000396792
-0.000397534
0.000127689
-0.000125745
0.00037787
-0.000379072
-0.000124117
0.000359293
-0.000360921
-0.000122063
0.000340962
-0.000343016
-0.00011952
0.000322874
-0.000325418
-0.000116336
0.000304816
-0.000308
-0.000112273
0.000286438
-0.000290502
-0.000107036
0.000267269
-0.000272505
-0.000100353
0.000246824
-0.000253507
-9.2068e-05
0.000224759
-0.000233044
-8.22376e-05
0.000201021
-0.000210852
-7.11721e-05
0.000175937
-0.000187003
-5.94024e-05
0.000150193
-0.000161963
-4.75879e-05
0.000124711
-0.000136526
-3.6386e-05
0.000100459
-0.00011166
-2.63457e-05
7.82658e-05
-8.83061e-05
-1.78379e-05
5.8709e-05
-6.72168e-05
-1.10459e-05
4.20721e-05
-4.88641e-05
-5.99062e-06
2.83757e-05
-3.3431e-05
-2.57733e-06
1.74425e-05
-2.08557e-05
-6.43982e-07
8.97122e-06
-1.09046e-05
2.60433e-06
-3.24832e-06
-0.00013476
0.000395876
0.000135676
-0.000133363
0.000376473
-0.0001315
0.000357431
-0.000129137
0.000338599
-0.000126157
0.000319895
-0.000122349
0.000301008
-0.000117425
0.000281514
-0.000111083
0.000260927
-0.000103102
0.000238843
-9.34455e-05
0.000215102
-8.23268e-05
0.000189903
-7.02095e-05
0.00016382
-5.77322e-05
0.000137716
-4.55851e-05
0.000112564
-3.4386e-05
8.92595e-05
-2.4592e-05
6.84718e-05
-1.64669e-05
5.05839e-05
-1.00947e-05
3.56999e-05
-5.42154e-06
2.37026e-05
-2.30613e-06
1.4327e-05
-5.63654e-07
7.22875e-06
2.04068e-06
-0.000149642
0.000394288
0.00015123
-0.000147546
0.000374377
-0.000144931
0.000354816
-0.000141707
0.000335374
-0.000137689
0.000315878
-0.000132599
0.000295918
-0.000126114
0.00027503
-0.00011796
0.000252772
-0.000108019
0.000228902
-9.64207e-05
0.000203504
-8.35677e-05
0.00017705
-7.00809e-05
0.000150333
-5.66828e-05
0.000124318
-4.40614e-05
9.99429e-05
-3.27608e-05
7.79589e-05
-2.31269e-05
5.88379e-05
-1.53069e-05
4.27639e-05
-9.28617e-06
2.96792e-05
-4.93962e-06
1.9356e-05
-2.08112e-06
1.14685e-05
-5.02603e-07
5.65023e-06
1.53808e-06
-0.000163923
0.000392053
0.000166158
-0.000161126
0.00037158
-0.000157711
0.000351401
-0.000153512
0.000331175
-0.000148267
0.000310633
-0.000141644
0.000289295
-0.000133325
0.000266711
-0.000123125
0.000242572
-0.000111092
0.000216869
-9.75632e-05
0.000189976
-8.31327e-05
0.000162619
-6.85434e-05
0.000135744
-5.45448e-05
0.000110319
-4.17645e-05
8.71626e-05
-3.06323e-05
6.68266e-05
-2.13638e-05
4.95693e-05
-1.39898e-05
3.53899e-05
-8.40756e-06
2.4097e-05
-4.43454e-06
1.5383e-05
-1.85349e-06
8.88749e-06
-4.43683e-07
4.24042e-06
1.09439e-06
-0.00017688
0.000389215
0.000179718
-0.000173386
0.000368085
-0.000169106
0.000347122
-0.000163787
0.000325856
-0.000157096
0.000303942
-0.000148681
0.000280879
-0.000138295
0.000256326
-0.000125914
0.00023019
-0.000111807
0.000202762
-9.65354e-05
0.000174704
-8.08519e-05
0.000146936
-6.55588e-05
0.000120451
-5.1362e-05
9.61224e-05
-3.87748e-05
7.45754e-05
-2.80846e-05
5.61364e-05
-1.93729e-05
4.08577e-05
-1.25653e-05
2.85824e-05
-7.4885e-06
1.90201e-05
-3.92038e-06
1.18149e-05
-1.62706e-06
6.59417e-06
-3.86385e-07
2.99975e-06
7.08009e-07
-0.000188428
0.000385796
0.000191847
-0.000184185
0.000363842
-0.000178899
0.000341835
-0.000172227
0.000319184
-0.000163801
0.000295516
-0.000153316
0.000270395
-0.000140678
0.000243688
-0.000126093
0.000215605
-0.000110081
0.00018675
-9.34006e-05
0.000158023
-7.68997e-05
0.000130435
-6.13581e-05
0.000104909
-4.73712e-05
8.21354e-05
-3.52996e-05
6.25038e-05
-2.52791e-05
4.61159e-05
-1.72678e-05
3.28464e-05
-1.11058e-05
2.24203e-05
-6.57018e-06
1.44845e-05
-3.41701e-06
8.66171e-06
-1.40926e-06
4.58641e-06
-3.32191e-07
1.92268e-06
3.75818e-07
-0.000198346
0.00038175
0.000202392
-0.000193219
0.000358715
-0.000186693
0.000335309
-0.000178365
0.000310856
-0.000167893
0.000285044
-0.000155114
0.000257615
-0.000140168
0.000228742
-0.000123534
0.000198971
-0.000105969
0.000169186
-8.8361e-05
0.000140415
-7.15593e-05
0.000113633
-5.62408e-05
8.95905e-05
-4.28412e-05
6.87358e-05
-3.15534e-05
5.1216e-05
-2.23713e-05
3.69338e-05
-1.51518e-05
2.56268e-05
-9.6741e-06
1.69427e-05
-5.68704e-06
1.04975e-05
-2.94089e-06
5.91556e-06
-1.20616e-06
2.85169e-06
-2.82368e-07
9.98881e-07
9.34499e-08
-0.000206408
0.000376979
0.000211178
-0.000200177
0.000352484
-0.000192099
0.000327232
-0.000181774
0.000300531
-0.000168986
0.000272255
-0.000153809
0.000242438
-0.000136682
0.000211616
-0.000118356
0.000180644
-9.97525e-05
0.000150582
-8.17885e-05
0.000122451
-6.52202e-05
9.70648e-05
-5.05583e-05
7.49286e-05
-3.80553e-05
5.62328e-05
-2.77444e-05
4.0905e-05
-1.95023e-05
2.86917e-05
-1.31133e-05
1.92379e-05
-8.32129e-06
1.21506e-05
-4.86572e-06
7.04192e-06
-2.50399e-06
3.55382e-06
-1.022e-06
1.3697e-06
-2.37727e-07
2.14604e-07
-1.44277e-07
-0.000212233
0.000371243
0.00021797
-0.000204577
0.000344828
-0.00019459
0.000317245
-0.000181978
0.000287919
-0.000166753
0.000257031
-0.000149301
0.000224986
-0.000130364
0.000192679
-0.000110898
0.000161178
-9.1884e-05
0.000131568
-7.41598e-05
0.000104727
-5.83139e-05
8.12188e-05
-4.46599e-05
6.12747e-05
-3.32724e-05
4.48453e-05
-2.40506e-05
3.16832e-05
-1.67861e-05
2.14273e-05
-1.12205e-05
1.36722e-05
-7.08463e-06
8.01478e-06
-4.12458e-06
4.08187e-06
-2.11403e-06
1.54327e-06
-8.59212e-07
1.14878e-07
-1.98645e-07
-4.45964e-07
-3.42922e-07
-0.000215453
0.000364292
0.000222405
-0.000206026
0.000335401
-0.000193819
0.000305037
-0.000178758
0.000272859
-0.000161189
0.000239461
-0.000141829
0.000205626
-0.00012166
0.00017251
-0.00010173
0.000141248
-8.29585e-05
0.000112796
-6.60138e-05
8.77824e-05
-5.12776e-05
6.64826e-05
-3.887e-05
4.88671e-05
-2.87154e-05
3.46907e-05
-2.0615e-05
2.35828e-05
-1.43091e-05
1.51214e-05
-9.52191e-06
8.88502e-06
-5.98968e-06
4.48255e-06
-3.47567e-06
1.56785e-06
-1.77585e-06
-1.56548e-07
-7.19233e-07
-9.41735e-07
-1.65333e-07
-9.99864e-07
-5.08255e-07
-0.000215517
0.000355671
0.000224138
-0.000203976
0.00032386
-0.000189375
0.000290437
-0.000171969
0.000255453
-0.000152446
0.000219938
-0.000131804
0.000184985
-0.000111149
0.000151855
-9.14811e-05
0.000121581
-7.3558e-05
9.48733e-05
-5.7832e-05
7.20564e-05
-4.44744e-05
5.31251e-05
-3.34413e-05
3.7834e-05
-2.4548e-05
2.57974e-05
-1.75368e-05
1.65716e-05
-1.2127e-05
9.71162e-06
-8.0467e-06
4.80471e-06
-5.0501e-06
1.48595e-06
-2.92454e-06
-5.57716e-07
-1.49113e-06
-1.58995e-06
-6.02255e-07
-1.83061e-06
-1.37662e-07
-1.46446e-06
-6.45917e-07
-0.000212314
0.000345234
0.000222751
-0.000198503
0.000310049
-0.000181568
0.000273501
-0.000162159
0.000236044
-0.000141278
0.000199057
-0.000120089
0.000163796
-9.96829e-05
0.000131448
-8.09058e-05
0.000102803
-6.42883e-05
7.82558e-05
-5.006e-05
5.78281e-05
-3.821e-05
4.12751e-05
-2.8571e-05
2.8195e-05
-2.08903e-05
1.81167e-05
-1.48849e-05
1.05662e-05
-1.02771e-05
5.10375e-06
-6.8136e-06
1.34123e-06
-4.27464e-06
-1.05301e-06
-2.47495e-06
-2.35741e-06
-1.26142e-06
-2.80348e-06
-5.08912e-07
-2.58311e-06
-1.15887e-07
-1.85748e-06
-7.61804e-07
-0.000205315
0.000332476
0.000218073
-0.000189268
0.000294002
-0.000170374
0.000254608
-0.000149629
0.000215298
-0.000128219
0.000177647
-0.000107322
0.0001429
-8.78808e-05
0.000112007
-7.05187e-05
8.54413e-05
-5.55313e-05
6.32684e-05
-4.29519e-05
4.52486e-05
-3.26358e-05
3.09591e-05
-2.43384e-05
1.98975e-05
-1.77769e-05
1.15551e-05
-1.26695e-05
5.45888e-06
-8.75806e-06
1.19228e-06
-5.81742e-06
-1.5994e-06
-3.65789e-06
-3.21254e-06
-2.12276e-06
-3.89254e-06
-1.08406e-06
-3.84218e-06
-4.37761e-07
-3.22941e-06
-9.93947e-08
-2.19585e-06
-8.61199e-07
-0.000195143
0.000317936
0.000209684
-0.000177254
0.000276113
-0.000156968
0.000234322
-0.000135642
0.000193972
-0.000114477
0.000156482
-9.45522e-05
0.000122975
-7.658e-05
9.40346e-05
-6.09357e-05
6.9797e-05
-4.77045e-05
5.00372e-05
-3.67701e-05
3.43141e-05
-2.79017e-05
2.20907e-05
-2.08194e-05
1.28153e-05
-1.52392e-05
5.97496e-06
-1.08985e-05
1.11815e-06
-7.56769e-06
-2.13853e-06
-5.05334e-06
-4.11375e-06
-3.19613e-06
-5.06975e-06
-1.86652e-06
-5.22216e-06
-9.5966e-07
-4.74904e-06
-3.90492e-07
-3.79858e-06
-8.9622e-08
-2.49672e-06
-9.50821e-07
-0.000181537
0.000301173
0.000198299
-0.000162407
0.000256983
-0.000141605
0.00021352
-0.000120603
0.000172971
-0.000100528
0.000136406
-8.22114e-05
0.000104658
-6.61069e-05
7.793e-05
-5.23611e-05
5.60513e-05
-4.09012e-05
3.85774e-05
-3.15233e-05
2.49362e-05
-2.39619e-05
1.45293e-05
-1.79389e-05
6.7923e-06
-1.31917e-05
1.22776e-06
-9.48803e-06
-2.58553e-06
-6.63099e-06
-4.99557e-06
-4.45843e-06
-6.28631e-06
-2.83916e-06
-6.68902e-06
-1.66809e-06
-6.39323e-06
-8.60981e-07
-5.55614e-06
-3.49679e-07
-4.30988e-06
-7.83271e-08
-2.76807e-06
-1.02915e-06
-0.000343099
0.000244954
0.000399318
-0.000287614
0.000201498
-0.000235446
0.000161351
-0.000188444
0.000125969
-0.000147616
9.55779e-05
-0.000113287
7.03292e-05
-8.52084e-05
4.98518e-05
-6.27882e-05
3.36311e-05
-4.52623e-05
2.10515e-05
-3.18305e-05
1.15045e-05
-2.17364e-05
4.43521e-06
-1.43094e-05
-6.34694e-07
-8.97844e-06
-4.10325e-06
-5.26951e-06
-6.29445e-06
-2.79573e-06
-7.46935e-06
-1.2436e-06
-7.83843e-06
-3.5982e-07
-7.5728e-06
6.06018e-08
-6.81366e-06
1.8398e-07
-5.67952e-06
1.45597e-07
-4.2715e-06
5.50526e-08
-2.67753e-06
-9.74096e-07
-0.000284336
0.000186805
0.000342486
-0.000230821
0.000147984
-0.000183442
0.000113972
-0.000142877
8.54042e-05
-0.000109146
6.18469e-05
-8.17969e-05
4.29796e-05
-6.01042e-05
2.81591e-05
-4.32308e-05
1.67577e-05
-3.03437e-05
8.16441e-06
-2.06796e-05
1.84027e-06
-1.35747e-05
-2.66968e-06
-8.47197e-06
-5.73738e-06
-4.91431e-06
-7.66092e-06
-2.53179e-06
-8.67697e-06
-1.02735e-06
-8.97378e-06
-1.63076e-07
-8.70271e-06
2.51721e-07
-7.9876e-06
3.70146e-07
-6.93208e-06
3.15317e-07
-5.62469e-06
1.86047e-07
-4.14223e-06
6.07713e-08
-2.55225e-06
-9.13324e-07
-0.000222229
0.000132791
0.000276243
-0.000175118
0.000100873
-0.000135414
7.42681e-05
-0.000102755
5.27455e-05
-7.6531e-05
3.56229e-05
-5.5881e-05
2.23296e-05
-3.99156e-05
1.21937e-05
-2.77818e-05
4.62384e-06
-1.87207e-05
-8.96624e-07
-1.20851e-05
-4.79533e-06
-7.33852e-06
-7.4163e-06
-4.04473e-06
-9.03116e-06
-1.8534e-06
-9.85225e-06
-4.84798e-07
-1.00456e-05
2.83823e-07
-9.74241e-06
6.29777e-07
-9.04867e-06
6.9431e-07
-8.05213e-06
5.89891e-07
-6.82766e-06
4.05761e-07
-5.44056e-06
2.12203e-07
-3.94867e-06
6.34746e-08
-2.40352e-06
-8.4985e-07
-0.000163606
8.69137e-05
0.000209483
-0.000125262
6.25292e-05
-9.41777e-05
4.31834e-05
-6.94115e-05
2.79792e-05
-5.00847e-05
1.62961e-05
-3.52471e-05
7.49201e-06
-2.40502e-05
9.96885e-07
-1.57498e-05
-3.67662e-06
-9.72198e-06
-6.92443e-06
-5.4556e-06
-9.06171e-06
-2.53827e-06
-1.03336e-05
-6.40648e-07
-1.09288e-05
4.98921e-07
-1.09918e-05
1.08793e-06
-1.06346e-05
1.29089e-06
-9.94537e-06
1.23823e-06
-8.996e-06
1.03324e-06
-7.84714e-06
7.57281e-07
-6.5517e-06
4.73743e-07
-5.15702e-06
2.31041e-07
-3.70597e-06
6.48835e-08
-2.23736e-06
-7.84966e-07
-0.000112388
5.07787e-05
0.000148523
-8.32673e-05
3.34088e-05
-6.03621e-05
2.02782e-05
-4.26166e-05
1.02337e-05
-2.91264e-05
2.80591e-06
-1.90432e-05
-2.59121e-06
-1.16553e-05
-6.39103e-06
-6.36961e-06
-8.96227e-06
-2.70502e-06
-1.0589e-05
-2.75565e-07
-1.14912e-05
1.22563e-06
-1.18348e-05
2.04154e-06
-1.17447e-05
2.36419e-06
-1.13145e-05
2.34535e-06
-1.06157e-05
2.10494e-06
-9.70496e-06
1.73757e-06
-8.62863e-06
1.31754e-06
-7.42711e-06
9.02471e-07
-6.13663e-06
5.36142e-07
-4.79069e-06
2.50526e-07
-3.42035e-06
6.74735e-08
-2.05431e-06
-7.17493e-07
-6.99605e-05
2.4195e-05
9.65443e-05
-4.92451e-05
1.26934e-05
-3.33832e-05
4.41636e-06
-2.14557e-05
-1.69389e-06
-1.26694e-05
-5.98032e-06
-6.34911e-06
-8.91153e-06
-1.94169e-06
-1.07985e-05
9.99392e-07
-1.19034e-05
2.83054e-06
-1.24202e-05
3.83425e-06
-1.24949e-05
4.23357e-06
-1.22341e-05
4.20436e-06
-1.17155e-05
3.8852e-06
-1.09953e-05
3.38533e-06
-1.01159e-05
2.79073e-06
-9.11036e-06
2.16882e-06
-8.00672e-06
1.57169e-06
-6.82997e-06
1.03897e-06
-5.60392e-06
5.99521e-07
-4.35124e-06
2.73191e-07
-3.09402e-06
7.17457e-08
-1.85286e-06
-6.45747e-07
-3.60009e-05
5.9501e-06
5.42458e-05
-2.2306e-05
-1.00149e-06
-1.21735e-05
-5.71619e-06
-4.8797e-06
-8.98767e-06
2.07137e-07
-1.10672e-05
3.5919e-06
-1.22963e-05
5.68342e-06
-1.289e-05
6.80538e-06
-1.30253e-05
7.21359e-06
-1.28284e-05
7.10908e-06
-1.23904e-05
6.64968e-06
-1.17747e-05
5.95927e-06
-1.10251e-05
5.13525e-06
-1.01713e-05
4.25406e-06
-9.23469e-06
3.37571e-06
-8.23201e-06
2.54659e-06
-7.1776e-06
1.80225e-06
-6.08564e-06
1.16857e-06
-4.97024e-06
6.63652e-07
-3.84632e-06
2.98296e-07
-2.72867e-06
7.73462e-08
-1.63192e-06
-5.68401e-07
-9.41357e-06
-5.4402e-06
2.08039e-05
-1.32868e-06
-9.08638e-06
4.27513e-06
-1.132e-05
7.94513e-06
-1.26577e-05
1.01548e-05
-1.32768e-05
1.12663e-05
-1.34078e-05
1.15695e-05
-1.31932e-05
1.12901e-05
-1.27459e-05
1.06043e-05
-1.21426e-05
9.64922e-06
-1.14353e-05
8.53176e-06
-1.06573e-05
7.33517e-06
-9.82848e-06
6.12445e-06
-8.96057e-06
4.95053e-06
-8.06077e-06
3.85284e-06
-7.13432e-06
2.86192e-06
-6.18667e-06
2.00025e-06
-5.22398e-06
1.2841e-06
-4.25408e-06
7.23351e-07
-3.28558e-06
3.23119e-07
-2.32843e-06
8.33578e-08
-1.39215e-06
-4.85043e-07
1.07787e-05
-1.13848e-05
-4.83414e-06
1.44953e-05
-1.28029e-05
1.65999e-05
-1.34246e-05
1.7492e-05
-1.35497e-05
1.75083e-05
-1.32931e-05
1.68981e-05
-1.27976e-05
1.58564e-05
-1.21515e-05
1.45314e-05
-1.14209e-05
1.30368e-05
-1.0648e-05
1.14594e-05
-9.85788e-06
9.86562e-06
-9.06353e-06
8.30679e-06
-8.26964e-06
6.82256e-06
-7.47634e-06
5.44357e-06
-6.68177e-06
4.1936e-06
-5.88435e-06
3.0904e-06
-5.08347e-06
2.14717e-06
-4.28075e-06
1.37236e-06
-3.47927e-06
7.70956e-07
-2.68418e-06
3.43837e-07
-1.90132e-06
8.87489e-08
-1.13707e-06
-3.96294e-07
2.51807e-05
-1.31333e-05
-2.34322e-05
2.55935e-05
-1.32157e-05
2.50879e-05
-1.29191e-05
2.39363e-05
-1.23981e-05
2.23611e-05
-1.17179e-05
2.05216e-05
-1.09581e-05
1.85373e-05
-1.01672e-05
1.64957e-05
-9.37929e-06
1.4461e-05
-8.6133e-06
1.24805e-05
-7.87739e-06
1.05892e-05
-7.17221e-06
8.8133e-06
-6.49374e-06
7.17271e-06
-5.83575e-06
5.68271e-06
-5.19177e-06
4.35472e-06
-4.55637e-06
3.19743e-06
-3.92618e-06
2.21648e-06
-3.2998e-06
1.41551e-06
-2.67831e-06
7.95467e-07
-2.06413e-06
3.55474e-07
-1.46132e-06
9.21016e-08
-8.73693e-07
-3.04192e-07
3.39794e-05
-1.1842e-05
-3.52707e-05
3.20599e-05
-1.12962e-05
2.97627e-05
-1.06219e-05
2.72511e-05
-9.88647e-06
2.46536e-05
-9.1204e-06
2.2057e-05
-8.36152e-06
1.95218e-05
-7.63202e-06
1.70882e-05
-6.94568e-06
1.47825e-05
-6.30762e-06
1.26219e-05
-5.71679e-06
1.06177e-05
-5.16792e-06
8.77727e-06
-4.65335e-06
7.10623e-06
-4.16471e-06
5.60846e-06
-3.694e-06
4.28693e-06
-3.23484e-06
3.14337e-06
-2.78262e-06
2.1788e-06
-2.33523e-06
1.39288e-06
-1.89239e-06
7.84671e-07
-1.45592e-06
3.51956e-07
-1.02861e-06
9.17507e-08
-6.13488e-07
-2.12442e-07
3.70724e-05
-8.66332e-06
-4.02512e-05
3.37832e-05
-8.00698e-06
3.05046e-05
-7.3433e-06
2.73119e-05
-6.69373e-06
2.42603e-05
-6.06885e-06
2.13815e-05
-5.48272e-06
1.8692e-05
-4.94253e-06
1.61975e-05
-4.45121e-06
1.38976e-05
-4.00767e-06
1.17883e-05
-3.60747e-06
9.86454e-06
-3.2442e-06
8.1216e-06
-2.91042e-06
6.55539e-06
-2.59849e-06
5.16285e-06
-2.30146e-06
3.94152e-06
-2.0135e-06
2.8894e-06
-1.7305e-06
2.00432e-06
-1.45015e-06
1.28409e-06
-1.17216e-06
7.26066e-07
-8.97891e-07
3.27696e-07
-6.30237e-07
8.63263e-08
-3.72118e-07
-1.26115e-07
3.42496e-05
-4.7983e-06
-3.81147e-05
3.05872e-05
-4.34454e-06
2.71592e-05
-3.91533e-06
2.39795e-05
-3.51403e-06
2.10537e-05
-3.14306e-06
1.8377e-05
-2.80596e-06
1.5938e-05
-2.50359e-06
1.3722e-05
-2.23514e-06
1.17125e-05
-1.99819e-06
9.89398e-06
-1.78896e-06
8.2527e-06
-1.60292e-06
6.77743e-06
-1.43514e-06
5.45961e-06
-1.28068e-06
4.29306e-06
-1.13492e-06
3.27347e-06
-9.93906e-07
2.39757e-06
-8.54609e-07
1.66263e-06
-7.15208e-07
1.06573e-06
-5.75256e-07
6.03769e-07
-4.35934e-07
2.73521e-07
-2.9999e-07
7.24529e-08
-1.7105e-07
-5.36624e-08
2.53661e-05
-1.49848e-06
-2.86659e-05
2.236e-05
-1.33843e-06
1.96343e-05
-1.1896e-06
1.71732e-05
-1.05298e-06
1.49595e-05
-9.29362e-07
1.2973e-05
-8.19495e-07
1.11925e-05
-7.23085e-07
9.59678e-06
-6.39394e-07
8.16582e-06
-5.67226e-07
6.88195e-06
-5.0509e-07
5.73033e-06
-4.51303e-07
4.69926e-06
-4.04068e-07
3.78015e-06
-3.61562e-07
2.96723e-06
-3.21996e-07
2.25701e-06
-2.83688e-07
1.64757e-06
-2.45169e-07
1.13767e-06
-2.0531e-07
7.25939e-07
-1.63524e-07
4.10105e-07
-1.201e-07
1.8663e-07
-7.65152e-08
5.09004e-08
-3.53201e-08
-2.76199e-09
1.04119e-05
-1.18895e-05
9.08866e-06
7.90993e-06
6.86447e-06
5.94004e-06
5.1235e-06
4.40188e-06
3.76283e-06
3.19514e-06
2.689e-06
2.23625e-06
1.83047e-06
1.46705e-06
1.14314e-06
8.5754e-07
6.10531e-07
4.03502e-07
2.38425e-07
1.16984e-07
3.93861e-08
3.2882e-09
0.000298241
2.5477e-05
1.26838e-06
-0.000324986
0.000272982
2.3964e-05
1.29453e-06
0.000249119
2.25481e-05
1.31491e-06
0.000226571
2.12183e-05
1.32945e-06
0.000205263
1.99701e-05
1.33852e-06
0.00018512
1.87998e-05
1.3425e-06
0.000166076
1.77028e-05
1.34178e-06
0.000148064
1.66748e-05
1.33675e-06
0.000131025
1.57111e-05
1.32775e-06
0.000114903
1.48074e-05
1.31513e-06
9.96457e-05
1.39582e-05
1.29904e-06
8.5211e-05
1.31555e-05
1.27918e-06
7.15717e-05
1.23851e-05
1.25426e-06
5.87285e-05
1.16218e-05
1.22151e-06
4.67249e-05
1.08272e-05
1.17632e-06
3.56605e-05
9.95158e-06
1.11278e-06
2.56944e-05
8.94151e-06
1.0246e-06
1.7036e-05
7.75172e-06
9.06715e-07
9.92263e-06
6.35682e-06
7.56527e-07
4.58919e-06
4.75862e-06
5.74821e-07
1.23541e-06
2.98795e-06
3.65828e-07
1.09899e-06
1.36423e-07
0.000297824
5.2145e-05
-0.000324492
0.000272635
4.91528e-05
0.000248833
4.63505e-05
0.000226337
4.37139e-05
0.000205073
4.12343e-05
0.000184968
3.89045e-05
0.000165955
3.6716e-05
0.00014797
3.46601e-05
0.000130953
3.27284e-05
0.000114848
3.09122e-05
9.96047e-05
2.92013e-05
8.51809e-05
2.75793e-05
7.15496e-05
2.60164e-05
5.8712e-05
2.44594e-05
4.67122e-05
2.2827e-05
3.56505e-05
2.10133e-05
2.56864e-05
1.89056e-05
1.703e-05
1.64081e-05
9.91877e-06
1.3468e-05
4.58731e-06
1.00901e-05
1.23498e-06
6.34029e-06
2.33396e-06
0.000296576
7.86104e-05
-0.000323041
0.000271562
7.41662e-05
0.00024791
7.00027e-05
0.000225545
6.60788e-05
0.000204395
6.23843e-05
0.00018439
5.89091e-05
0.000165465
5.56411e-05
0.000147557
5.25682e-05
0.000130607
4.96782e-05
0.000114561
4.69586e-05
9.93683e-05
4.4394e-05
8.49875e-05
4.19601e-05
7.13927e-05
3.96112e-05
5.85854e-05
3.72666e-05
4.66112e-05
3.48012e-05
3.55709e-05
3.20537e-05
2.56257e-05
2.88507e-05
1.69861e-05
2.50478e-05
9.89031e-06
2.05638e-05
4.57231e-06
1.54081e-05
1.23002e-06
9.68258e-06
3.56398e-06
0.000294833
0.000104765
-0.000320988
0.000270089
9.89096e-05
0.000246667
9.34251e-05
0.000224499
8.8247e-05
0.000203517
8.33655e-05
0.000183658
7.8769e-05
0.000164856
7.44422e-05
0.000147055
7.03701e-05
0.000130196
6.65373e-05
0.000114226
6.29278e-05
9.90986e-05
5.95217e-05
8.47721e-05
5.62866e-05
7.12215e-05
5.31618e-05
5.84502e-05
5.00379e-05
4.65044e-05
4.6747e-05
3.54875e-05
4.30706e-05
2.55614e-05
3.87768e-05
1.69395e-05
3.36697e-05
9.85962e-06
2.76437e-05
4.55615e-06
2.07115e-05
1.22491e-06
1.30138e-05
4.78888e-06
0.000292775
0.000130517
-0.000318527
0.000268379
0.000123305
0.000245251
0.000116554
0.000223333
0.000110165
0.000202565
0.000104134
0.000182886
9.84478e-05
0.000164239
9.30896e-05
0.000146567
8.8042e-05
0.000129817
8.32872e-05
0.000113939
7.88062e-05
9.88852e-05
7.45751e-05
8.46181e-05
7.05538e-05
7.11135e-05
6.66664e-05
5.83758e-05
6.27756e-05
4.64531e-05
5.86697e-05
3.54506e-05
5.40732e-05
2.55337e-05
4.86937e-05
1.69176e-05
4.22858e-05
9.8439e-06
3.47174e-05
4.54647e-06
2.6009e-05
1.22132e-06
1.6339e-05
6.01021e-06
0.000290802
0.000155809
-0.000316094
0.0002668
0.000147307
0.000244001
0.000139353
0.000222359
0.000131806
0.000201822
0.000124671
0.000182336
0.000117934
0.000163848
0.000111577
0.000146307
0.000105583
0.000129662
9.99316e-05
0.000113867
9.46014e-05
9.88776e-05
8.95648e-05
8.46561e-05
8.47753e-05
7.11809e-05
8.01415e-05
5.8457e-05
7.54994e-05
4.65352e-05
7.05915e-05
3.5522e-05
6.50864e-05
2.55882e-05
5.86274e-05
1.69527e-05
5.09213e-05
9.86185e-06
4.18082e-05
4.55269e-06
3.13181e-05
1.22161e-06
1.96701e-05
7.23182e-06
0.000289128
0.000180598
-0.000313917
0.000265549
0.000170886
0.000243096
0.000161806
0.00022174
0.000153162
0.000201437
0.000144974
0.000182141
0.00013723
0.000163806
0.000129913
0.000146385
0.000123004
0.000129832
0.000116484
0.000114105
0.000110329
9.91599e-05
0.00010451
8.49633e-05
9.89719e-05
7.14929e-05
9.36119e-05
5.87565e-05
8.82359e-05
4.68036e-05
8.25444e-05
3.57472e-05
7.61428e-05
2.57594e-05
6.86152e-05
1.70699e-05
5.96108e-05
9.92918e-06
4.8949e-05
4.58258e-06
3.66647e-05
1.2286e-06
2.30241e-05
8.46041e-06
0.000287931
0.000204857
-0.000312191
0.000264792
0.000194026
0.000242695
0.000183903
0.000221627
0.00017423
0.000201553
0.000165048
0.000182436
0.000156346
0.000164238
0.000148111
0.000146917
0.000140326
0.000130432
0.000132969
0.000114744
0.000126017
9.98137e-05
0.00011944
8.56082e-05
0.000113177
7.21083e-05
0.000107112
5.93196e-05
0.000101025
4.72965e-05
9.45675e-05
3.6151e-05
8.72883e-05
2.60672e-05
7.86991e-05
1.72786e-05
6.83994e-05
1.00516e-05
5.61759e-05
4.6368e-06
4.20796e-05
1.24162e-06
2.64192e-05
9.70204e-06
0.000287345
0.000228571
-0.000311059
0.000264646
0.000216725
0.000242895
0.000205655
0.000222096
0.000195029
0.000202229
0.000184915
0.000183267
0.000175308
0.000165179
0.000166199
0.000147931
0.000157574
0.000131487
0.000149413
0.00011581
0.000141694
0.000100865
0.000134385
8.66197e-05
0.000127422
7.30551e-05
0.000120676
6.01785e-05
0.000113901
4.80414e-05
0.000106705
3.67636e-05
9.85661e-05
2.65323e-05
8.89303e-05
1.75992e-05
7.73324e-05
1.02405e-05
6.35347e-05
4.72422e-06
4.75958e-05
1.26392e-06
2.98795e-05
1.0966e-05
0.000287407
0.000251725
-0.000310561
0.000265154
0.000238977
0.00024375
0.000227059
0.000223216
0.000215563
0.000203541
0.000204589
0.000184711
0.000194139
0.000166703
0.000184207
0.000149492
0.000174785
0.000133047
0.000165858
0.000117338
0.000157404
0.000102332
0.00014939
8.8001e-05
0.000141754
7.43249e-05
0.000134353
6.131e-05
0.000126916
4.90109e-05
0.000119004
3.75486e-05
0.000110028
2.71239e-05
9.93551e-05
1.79998e-05
8.64566e-05
1.04739e-05
7.10605e-05
4.82791e-06
5.32418e-05
1.28878e-06
3.34187e-05
1.22547e-05
0.000288108
0.000274312
-0.000310694
0.00026628
0.000260805
0.00024519
0.000248148
0.000224886
0.000235868
0.000205373
0.000224102
0.000186648
0.000212864
0.000168697
0.000202158
0.000151501
0.000191982
0.000135034
0.000182324
0.000119271
0.000173167
0.000104182
0.000164479
8.97398e-05
0.000156196
7.59244e-05
0.000148168
6.27408e-05
0.0001401
5.02411e-05
0.000131503
3.85515e-05
0.000121718
2.7882e-05
0.000110024
1.85177e-05
9.58209e-05
1.07779e-05
7.88003e-05
4.96725e-06
5.90525e-05
1.32487e-06
3.7061e-05
1.35796e-05
0.000289469
0.000296299
-0.000311457
0.00026809
0.000282184
0.00024733
0.000268909
0.000227247
0.000255951
0.000207866
0.000243483
0.000189202
0.000231528
0.000171255
0.000220105
0.000154016
0.000209221
0.000137468
0.000198871
0.000121591
0.000189044
0.000106359
0.000179711
9.17466e-05
0.000170808
7.77345e-05
0.00016218
6.4326e-05
0.000153508
5.15747e-05
0.000144255
3.96118e-05
0.000133681
2.86626e-05
0.000120974
1.90325e-05
0.000105451
1.10663e-05
8.67665e-05
5.08863e-06
6.50301e-05
1.35053e-06
4.07991e-05
1.49301e-05
0.000291304
0.000317697
-0.000312701
0.000270301
0.000303187
0.000249824
0.000289386
0.000229938
0.000275837
0.000210682
0.000262739
0.000192078
0.000250131
0.000174137
0.000238046
0.000156856
0.000226501
0.000140227
0.000215501
0.000124232
0.000205039
0.000108852
0.000195092
9.40624e-05
0.000185598
7.98433e-05
0.000176399
6.61948e-05
0.000167157
5.31671e-05
0.000157282
4.08949e-05
0.000145953
2.96173e-05
0.000132251
1.96675e-05
0.000115401
1.14245e-05
9.50095e-05
5.2431e-06
7.12115e-05
1.38739e-06
4.46548e-05
1.63175e-05
0.000293505
0.000338289
-0.000314098
0.000272982
0.00032371
0.000252809
0.000309559
0.00023309
0.000295555
0.000213903
0.000281926
0.000195293
0.000268741
0.000177287
0.000256052
0.000159895
0.000243893
0.000143117
0.00023228
0.000126942
0.000221213
0.000111355
0.000210679
9.63341e-05
0.000200619
8.18582e-05
0.000190875
6.79259e-05
0.000181089
5.4587e-05
0.000170621
4.19827e-05
0.000158558
3.03719e-05
0.000143862
2.01194e-05
0.000125653
1.16383e-05
0.000103491
5.30598e-06
7.75439e-05
1.38772e-06
4.85731e-05
1.77053e-05
0.000296006
0.000358144
-0.000315862
0.000275818
0.000343898
0.000255948
0.000329429
0.000236433
0.00031507
0.000217361
0.000300998
0.00019879
0.000287312
0.000180756
0.000274086
0.00016328
0.00026137
0.000146369
0.000249191
0.000130021
0.000237562
0.000114222
0.000226477
9.89546e-05
0.000215887
8.41948e-05
0.000205635
6.99382e-05
0.000195345
5.62353e-05
0.000184324
4.32374e-05
0.000171555
3.12275e-05
0.000155872
2.06063e-05
0.000136275
1.18288e-05
0.000112268
5.30919e-06
8.40635e-05
1.33303e-06
5.25493e-05
1.90383e-05
1.24971e-05
0.000360629
-1.4982e-05
9.94783e-06
0.000346448
7.50803e-06
0.000331869
5.08809e-06
0.00031749
2.69789e-06
0.000303389
3.32574e-07
0.000289677
-2.00676e-06
0.000276425
-4.31508e-06
0.000263678
-6.5852e-06
0.000251461
-8.80541e-06
0.000239782
-1.09498e-05
0.000228621
-1.29551e-05
0.000217892
-1.46873e-05
0.000207367
-1.59202e-05
0.000196578
-1.63591e-05
0.000184763
-1.57276e-05
0.000170924
-1.38941e-05
0.000154039
-1.09843e-05
0.000133365
-7.42032e-06
0.000108704
-3.87212e-06
8.05153e-05
-1.1393e-06
4.98164e-05
1.7899e-05
7.28261e-06
0.000363419
-1.00721e-05
4.62596e-06
0.000349104
2.00859e-06
0.000334486
-5.51958e-07
0.000320051
-3.03958e-06
0.000305876
-5.4542e-06
0.000292092
-7.79066e-06
0.000278762
-1.00438e-05
0.000265931
-1.22064e-05
0.000253623
-1.42638e-05
0.000241839
-1.618e-05
0.000230537
-1.78711e-05
0.000219583
-1.91768e-05
0.000208673
-1.98538e-05
0.000197255
-1.96182e-05
0.000184528
-1.82418e-05
0.000169547
-1.56693e-05
0.000151466
-1.21064e-05
0.000129802
-8.03609e-06
0.000104634
-4.15214e-06
7.66314e-05
-1.23275e-06
4.6897e-05
1.66662e-05
2.00633e-06
0.000366426
-5.01328e-06
-7.61184e-07
0.000351872
-3.48037e-06
0.000337206
-6.09212e-06
0.000322662
-8.59448e-06
0.000308379
-1.09844e-05
0.000294481
-1.32571e-05
0.000281035
-1.54084e-05
0.000268082
-1.74302e-05
0.000255645
-1.93024e-05
0.000243711
-2.09739e-05
0.000232209
-2.2336e-05
0.000220945
-2.32009e-05
0.000209538
-2.3312e-05
0.000197366
-2.24035e-05
0.000183619
-2.03015e-05
0.000167445
-1.70306e-05
0.000148195
-1.2878e-05
0.000125649
-8.38442e-06
0.00010014
-4.25807e-06
7.2505e-05
-1.24395e-06
4.38829e-05
1.54223e-05
-3.27962e-06
0.000369547
1.5796e-07
-6.1452e-06
0.000354737
-8.91736e-06
0.000339978
-1.15401e-05
0.000325285
-1.40202e-05
0.000310859
-1.6352e-05
0.000296813
-1.85328e-05
0.000283215
-2.05586e-05
0.000270108
-2.24191e-05
0.000257506
-2.40848e-05
0.000245377
-2.54852e-05
0.000233609
-2.64837e-05
0.000221944
-2.68677e-05
0.000209922
-2.63767e-05
0.000196875
-2.47751e-05
0.000182018
-2.19556e-05
0.000164626
-1.80283e-05
0.000144268
-1.336e-05
0.000120981
-8.5361e-06
9.53162e-05
-4.25993e-06
6.82289e-05
-1.22289e-06
4.08459e-05
1.41994e-05
-8.68047e-06
0.000372724
5.50423e-06
-1.16023e-05
0.000357659
-1.43765e-05
0.000342752
-1.69684e-05
0.000327877
-1.93876e-05
0.000313278
-2.16288e-05
0.000299055
-2.3691e-05
0.000285277
-2.55696e-05
0.000271987
-2.72491e-05
0.000259185
-2.86859e-05
0.000246814
-2.97859e-05
0.000234709
-3.03834e-05
0.000222541
-3.02472e-05
0.000209785
-2.91223e-05
0.000195751
-2.68177e-05
0.000179713
-2.32993e-05
0.000161108
-1.87658e-05
0.000139734
-1.36523e-05
0.000115867
-8.57463e-06
9.02385e-05
-4.21187e-06
6.38661e-05
-1.19092e-06
3.78249e-05
1.30085e-05
-1.43336e-05
0.000375913
1.1144e-05
-1.72666e-05
0.000360592
-2.00013e-05
0.000345487
-2.25261e-05
0.000330402
-2.48502e-05
0.000315602
-2.6971e-05
0.000301175
-2.88886e-05
0.000287195
-3.05963e-05
0.000273694
-3.20695e-05
0.000260658
-3.32465e-05
0.000247991
-3.4005e-05
0.000235468
-3.41529e-05
0.000222689
-3.34451e-05
0.000209078
-3.16479e-05
0.000193953
-2.86224e-05
0.000176687
-2.44201e-05
0.000156905
-1.93196e-05
0.000134634
-1.38191e-05
0.000110367
-8.54285e-06
8.49622e-05
-4.13655e-06
5.94598e-05
-1.15342e-06
3.48418e-05
1.18551e-05
-2.03895e-05
0.000379072
1.72312e-05
-2.32828e-05
0.000363486
-2.5936e-05
0.00034814
-2.83558e-05
0.000332822
-3.05504e-05
0.000317797
-3.25206e-05
0.000303146
-3.42664e-05
0.000288941
-3.57758e-05
0.000275204
-3.70114e-05
0.000261894
-3.78869e-05
0.000248867
-3.82515e-05
0.000235832
-3.78864e-05
0.000222324
-3.65469e-05
0.000207738
-3.40273e-05
0.000191434
-3.02611e-05
0.000172921
-2.53794e-05
0.000152024
-1.97475e-05
0.000129002
-1.39016e-05
0.000104521
-8.47022e-06
7.95309e-05
-4.04658e-06
5.50361e-05
-1.11445e-06
3.19097e-05
1.07406e-05
-2.70587e-05
0.000382157
2.3973e-05
-2.98638e-05
0.000366291
-3.23943e-05
0.00035067
-3.46694e-05
0.000335097
-3.66978e-05
0.000319825
-3.84831e-05
0.000304931
-4.00232e-05
0.000290481
-4.12976e-05
0.000276478
-4.22496e-05
0.000262846
-4.27657e-05
0.000249383
-4.2662e-05
0.000235729
-4.17039e-05
0.000221366
-3.96515e-05
0.000205686
-3.6351e-05
0.000188133
-3.18061e-05
0.000168376
-2.62458e-05
0.000146463
-2.00975e-05
0.000122854
-1.39397e-05
9.83632e-05
-8.37628e-06
7.39675e-05
-3.95305e-06
5.06129e-05
-1.07574e-06
2.90324e-05
9.66488e-06
-3.45375e-05
0.000385121
3.15739e-05
-3.72012e-05
0.000368954
-3.9563e-05
0.000353032
-4.16498e-05
0.000337184
-4.34713e-05
0.000321646
-4.50325e-05
0.000306492
-4.63261e-05
0.000291774
-4.73177e-05
0.00027747
-4.79263e-05