/*--------------------------------*- C++ -*----------------------------------*\
| =========                 |                                                 |
| \\      /  F ield         | OpenFOAM Extend Project: Open source CFD        |
|  \\    /   O peration     | Version:  1.6-ext                               |
|   \\  /    A nd           | Web:      www.extend-project.de                 |
|    \\/     M anipulation  |                                                 |
\*---------------------------------------------------------------------------*/
FoamFile
{
    version     2.0;
    format      ascii;
    class       volVectorField;
    location    "0.8";
    object      U;
}
// * * * * * * * * * * * * * * * * * * * * * * * * * * * * * * * * * * * * * //

dimensions      [0 1 -1 0 0 0 0];

internalField   nonuniform List<vector> 
20940
(
(1.84884 0.397512 3.2552e-24)
(1.88845 0.41757 0)
(1.92595 0.43691 0)
(1.9605 0.454486 0)
(1.99181 0.470508 6.77378e-21)
(2.01823 0.483853 0)
(2.03679 0.49341 -1.11154e-20)
(2.04267 0.497235 1.21624e-20)
(2.02949 0.493091 0)
(1.99015 0.478742 1.79873e-23)
(1.91841 0.452646 0)
(1.81071 0.414572 -1.23007e-23)
(1.66749 0.365953 0)
(1.49362 0.30978 1.63314e-20)
(1.29758 0.250064 -1.73169e-20)
(1.08981 0.191066 -9.43638e-21)
(0.880841 0.136591 2.05276e-23)
(0.679767 0.0895425 0)
(0.4934 0.0517319 0)
(0.326041 0.0239331 -1.22846e-20)
(0.17971 0.00662501 1.26214e-20)
(0.0546216 0.000490507 5.1852e-21)
(1.87573 0.374249 6.76375e-21)
(1.91406 0.393155 -5.62163e-21)
(1.94997 0.410686 0)
(1.98234 0.426481 0)
(2.01036 0.4402 8.23552e-21)
(2.0315 0.45064 -1.64884e-20)
(2.04177 0.456388 0)
(2.03543 0.455409 0)
(2.00571 0.445635 1.64529e-20)
(1.9461 0.425383 -3.6368e-20)
(1.85213 0.394015 2.22719e-20)
(1.72288 0.352349 -2.39633e-20)
(1.56176 0.302717 4.21527e-20)
(1.37609 0.248575 -3.0325e-20)
(1.17574 0.193839 0)
(0.97125 0.142178 2.85894e-20)
(0.772202 0.0965082 -3.91704e-20)
(0.586171 0.0587816 0)
(0.41831 0.029975 1.08863e-20)
(0.271467 0.010237 0)
(0.146608 -0.000372279 2.44741e-20)
(0.0433421 -0.00141106 -2.53112e-20)
(1.90041 0.35095 -1.87652e-20)
(1.93714 0.368776 1.51035e-20)
(1.97091 0.384605 2.86507e-21)
(2.00024 0.398628 -2.17063e-20)
(2.02353 0.40994 0)
(2.03728 0.417251 -1.84198e-20)
(2.03643 0.418907 2.23599e-20)
(2.0146 0.412944 0)
(1.96523 0.397674 0)
(1.8832 0.372168 1.84886e-20)
(1.76644 0.336765 0)
(1.61706 0.293225 -4.93913e-20)
(1.4412 0.244484 9.43035e-20)
(1.24803 0.194092 -5.87542e-20)
(1.04793 0.145538 0)
(0.850774 0.101714 7.10798e-20)
(0.664726 0.0646267 -5.61018e-20)
(0.495638 0.0353818 0)
(0.347057 0.0142889 -1.08814e-20)
(0.220542 0.00104238 0)
(0.116193 -0.00459205 -4.68413e-20)
(0.0331642 -0.00236523 3.85706e-20)
(1.92394 0.327989 -2.39935e-20)
(1.9586 0.344804 0)
(1.98942 0.35897 0)
(2.01438 0.371125 -1.0533e-21)
(2.0309 0.379792 2.87691e-20)
(2.03433 0.38363 5.60397e-20)
(2.01882 0.380868 -2.22858e-20)
(1.97784 0.369827 0)
(1.90586 0.349421 0)
(1.79995 0.319622 0)
(1.66105 0.281715 4.1122e-20)
(1.49424 0.238166 1.64445e-21)
(1.30791 0.192162 -1.04353e-19)
(1.11215 0.146978 -1.63094e-21)
(0.916977 0.105434 6.18653e-20)
(0.730961 0.0695619 -1.72817e-20)
(0.560507 0.0405257 1.85229e-20)
(0.409724 0.0187342 0)
(0.28069 0.00400278 0)
(0.173894 -0.00427367 -2.08194e-20)
(0.0887673 -0.00650942 0)
(0.0241534 -0.0025712 0)
(1.94603 0.305439 5.09733e-20)
(1.97797 0.321242 -6.33718e-20)
(2.00467 0.333696 -1.62972e-21)
(2.02339 0.343782 -2.67689e-21)
(2.03033 0.349479 0)
(2.0199 0.349492 7.59744e-22)
(1.98581 0.34212 4.72367e-20)
(1.92226 0.326202 3.77629e-21)
(1.82564 0.301441 -6.03494e-20)
(1.69596 0.268735 0)
(1.5373 0.230141 -8.09685e-20)
(1.35732 0.188495 4.60657e-20)
(1.16574 0.146851 0)
(0.972597 0.107924 0)
(0.786746 0.0737404 -8.98296e-20)
(0.615018 0.0455052 3.23734e-20)
(0.46197 0.0236774 3.37848e-20)
(0.330092 0.00814546 0)
(0.22023 -0.00160238 7.8025e-20)
(0.132048 -0.00633678 -5.99635e-20)
(0.0645165 -0.00655879 0)
(0.0163123 -0.00219287 0)
(1.96618 0.283371 -2.89508e-20)
(1.99441 0.298108 1.01714e-19)
(2.01526 0.308706 -8.2168e-20)
(2.02512 0.316411 2.58436e-20)
(2.01896 0.318759 0)
(1.99062 0.314666 5.79865e-22)
(1.93418 0.302732 0)
(1.84552 0.282534 5.47414e-20)
(1.72385 0.254638 -1.22475e-19)
(1.57243 0.22075 -3.05993e-21)
(1.39821 0.183387 1.1688e-19)
(1.21054 0.145374 0)
(1.01939 0.109308 -9.76898e-20)
(0.833822 0.0771843 1.55995e-19)
(0.660998 0.0502319 -2.85252e-20)
(0.50583 0.0289544 1.22719e-19)
(0.37113 0.0132792 -3.3706e-20)
(0.258018 0.00274895 0)
(0.166389 -0.00333108 0)
(0.0953294 -0.00579346 0)
(0.0435371 -0.00516096 -1.97426e-20)
(0.00963828 -0.00138104 6.76365e-20)
(1.98395 0.261593 -3.06284e-20)
(2.00689 0.275079 7.08631e-20)
(2.01939 0.283553 -4.67637e-20)
(2.0169 0.288507 5.17483e-20)
(1.99347 0.287201 0)
(1.94311 0.27897 -1.1851e-19)
(1.8613 0.262943 1.35971e-19)
(1.74659 0.239549 -1.02178e-19)
(1.60153 0.210148 -6.13271e-20)
(1.43244 0.176979 6.65915e-20)
(1.2483 0.142644 0)
(1.05902 0.109613 0)
(0.873802 0.0798339 0)
(0.700055 0.0545447 -5.14913e-20)
(0.542984 0.0342872 -5.35983e-20)
(0.405658 0.0190316 -3.00501e-20)
(0.289402 0.00835153 0)
(0.194271 0.00159497 6.72531e-20)
(0.119495 -0.00200553 -7.00517e-20)
(0.0638076 -0.00327251 -3.61843e-20)
(0.0257832 -0.00271038 -1.79882e-20)
(0.00408498 -0.000271758 0)
(1.99783 0.240043 0)
(2.01319 0.252023 -3.65345e-20)
(2.01403 0.258054 1.31438e-21)
(1.99505 0.259901 4.4586e-21)
(1.95007 0.254806 -6.17155e-20)
(1.8743 0.242747 -7.50906e-20)
(1.76574 0.22354 4.49998e-20)
(1.62627 0.19844 0)
(1.46171 0.169362 5.81565e-20)
(1.28072 0.138715 -6.51561e-20)
(1.09311 0.108832 0)
(0.908213 0.0816025 -7.97701e-20)
(0.733661 0.0582642 8.96566e-20)
(0.574895 0.0393886 -9.57785e-20)
(0.435192 0.0249888 1.99251e-21)
(0.316031 0.0146796 -5.51843e-20)
(0.217576 0.0078358 -1.21038e-19)
(0.139141 0.00372591 1.26809e-19)
(0.0795403 0.00158559 0)
(0.0373381 0.000645486 -3.14957e-22)
(0.0110976 0.000440034 1.47048e-19)
(-0.000425271 0.0010173 6.19523e-20)
(2.00653 0.218159 -6.69746e-20)
(2.01102 0.228243 7.43949e-20)
(1.99601 0.231494 9.52582e-20)
(1.95603 0.23008 -5.42241e-20)
(1.88573 0.22147 -2.55512e-21)
(1.7827 0.206427 7.5233e-20)
(1.64824 0.18546 8.88918e-20)
(1.4877 0.160444 -5.04466e-20)
(1.30944 0.133506 -5.76751e-20)
(1.12325 0.10687 1.41595e-21)
(0.938567 0.0823545 0)
(0.763236 0.0611912 7.91906e-20)
(0.602912 0.0439768 0)
(0.461047 0.0307673 -9.3482e-20)
(0.33924 0.0212242 1.50496e-19)
(0.237731 0.0147631 1.63386e-19)
(0.155869 0.0106788 -1.1432e-19)
(0.0925014 0.00823913 1.23005e-19)
(0.0462392 0.00672828 -1.28305e-19)
(0.0156099 0.00545149 -6.77566e-20)
(-0.000759624 0.00398916 -2.12497e-19)
(-0.00399155 0.0023888 1.47638e-19)
(2.00658 0.195991 -6.3192e-20)
(1.99631 0.203864 0)
(1.96102 0.204196 9.75558e-20)
(1.89618 0.199643 5.86712e-20)
(1.79841 0.188171 -6.47599e-20)
(1.66868 0.171355 7.85363e-20)
(1.51181 0.150251 -8.65358e-20)
(1.33599 0.127036 1.48805e-19)
(1.15096 0.103696 0)
(0.966332 0.0820115 6.26258e-20)
(0.790165 0.0631862 0)
(0.628327 0.0478399 0)
(0.484433 0.0360693 0)
(0.360187 0.0275843 0)
(0.255877 0.0218488 -4.7435e-20)
(0.170866 0.0181988 -5.31889e-20)
(0.104 0.0159286 5.54073e-20)
(0.0538906 0.014352 5.77359e-20)
(0.0190935 0.0128238 -1.24505e-19)
(-0.00180943 0.0107303 1.30499e-19)
(-0.0100851 0.0076975 3.45441e-20)
(-0.00672638 0.00376792 -2.92551e-20)
(1.99622 0.172514 0)
(1.96635 0.177913 0)
(1.9066 0.17544 -1.46869e-19)
(1.81422 0.168395 5.57775e-20)
(1.68903 0.155307 -6.68298e-20)
(1.53568 0.13836 -7.75647e-20)
(1.36202 0.118885 -1.54951e-21)
(1.17789 0.0989971 6.32232e-22)
(0.993075 0.08029 -5.34399e-20)
(0.815902 0.0639837 0)
(0.65247 0.0507041 0)
(0.506563 0.0405913 0)
(0.379978 0.0334057 0)
(0.27304 0.0286642 8.64413e-20)
(0.185109 0.0257524 9.39978e-20)
(0.115011 0.0240067 -1.49468e-19)
(0.0613323 0.0227688 5.40145e-20)
(0.0226176 0.0214214 -1.70903e-19)
(-0.00253011 0.0193971 1.18627e-19)
(-0.0154228 0.0161621 6.26079e-20)
(-0.0172044 0.0113848 0)
(-0.00874641 0.00509972 -2.72726e-20)
(1.96942 0.148839 -5.43283e-21)
(1.91654 0.151858 8.13125e-20)
(1.82966 0.147111 0)
(1.70976 0.138481 5.89003e-20)
(1.56011 0.125082 6.84524e-20)
(1.38874 0.109455 -7.42806e-20)
(1.2054 0.0929221 0)
(1.02021 0.0772614 9.60715e-20)
(0.841812 0.063555 -3.69694e-19)
(0.676609 0.0524724 1.15884e-19)
(0.528587 0.0441753 6.36335e-20)
(0.399651 0.0384726 1.41326e-19)
(0.290157 0.0349313 -1.51919e-19)
(0.199452 0.0329876 0)
(0.126325 0.0320242 -4.52931e-20)
(0.0693244 0.0314223 0)
(0.0269649 0.0305917 1.03077e-19)
(-0.00216314 0.0289906 -1.08377e-19)
(-0.0193496 0.0261272 -5.67437e-20)
(-0.0257753 0.0215419 -1.51769e-19)
(-0.0224608 0.0149423 1.25473e-19)
(-0.0101728 0.00635464 -5.37152e-20)
(1.92792 0.123017 0)
(1.84748 0.124011 0)
(1.73274 0.117997 0)
(1.58734 0.109176 0)
(1.41817 0.0971799 -6.67132e-20)
(1.23553 0.0844106 7.34284e-20)
(1.04964 0.0719741 -8.42739e-20)
(0.86966 0.0611374 9.2228e-20)
(0.70233 0.0524887 -9.17457e-23)
(0.551906 0.0462493 2.27027e-19)
(0.420423 0.0422672 -3.11849e-19)
(0.308279 0.0401646 1.35254e-19)
(0.214803 0.0394305 7.34084e-20)
(0.138733 0.0394974 0)
(0.078565 0.039791 1.29741e-19)
(0.0327682 0.0397581 -9.23207e-20)
(-9.70385e-05 0.0388822 0)
(-0.0213284 0.0366943 0)
(-0.0320793 0.0327723 1.39096e-21)
(-0.0333938 0.0267245 0)
(-0.0261782 0.018297 0)
(-0.0111153 0.00751276 -2.65638e-20)
(1.86162 0.0993832 0)
(1.75628 0.0990295 0)
(1.61552 0.0925796 -1.00438e-19)
(1.44999 0.0845912 0)
(1.26836 0.0749073 0)
(1.08199 0.0655944 7.41747e-20)
(0.900271 0.0574634 8.31509e-20)
(0.730567 0.0512335 -9.04976e-20)
(0.577443 0.0470841 1.00155e-19)
(0.443154 0.0449071 0)
(0.328171 0.0443612 -1.81962e-19)
(0.231819 0.0449827 1.31496e-19)
(0.152793 0.0462499 -7.23756e-20)
(0.0895254 0.0476303 -7.81062e-20)
(0.0404275 0.0486061 4.11014e-20)
(0.00401778 0.0486889 4.45403e-20)
(-0.0210258 0.0474278 9.63657e-20)
(-0.0358582 0.0444153 -5.10837e-20)
(-0.04149 0.0392887 5.4485e-20)
(-0.0388352 0.0317156 5.59557e-20)
(-0.0286992 0.0214781 0)
(-0.0116964 0.00859858 0)
(1.78718 0.0722842 -7.56775e-20)
(1.6514 0.0714078 1.71249e-19)
(1.48897 0.0668034 -2.02937e-21)
(1.30875 0.0608814 5.41544e-20)
(1.1213 0.0550348 1.28293e-19)
(0.937317 0.0501482 -1.43983e-19)
(0.764489 0.0467959 -8.34495e-22)
(0.607921 0.0451477 0)
(0.470118 0.0451015 -9.84367e-20)
(0.351696 0.0463728 -1.07283e-19)
(0.25201 0.0485672 1.1872e-19)
(0.169714 0.0512366 -2.56416e-19)
(0.103172 0.0539124 -1.20194e-21)
(0.0507163 0.0561266 7.5092e-20)
(0.0107975 0.0574251 -8.14631e-20)
(-0.0179538 0.0573766 8.69394e-20)
(-0.0367154 0.0555802 -1.85859e-19)
(-0.0464941 0.0516743 -4.31375e-22)
(-0.0481633 0.0453413 -5.17314e-20)
(-0.0425179 0.0362993 -5.54554e-20)
(-0.0302759 0.0243669 2.83916e-20)
(-0.0119993 0.00957502 -9.98835e-20)
(1.63705 0.0524063 -8.03567e-20)
(1.47098 0.0489521 -1.87449e-19)
(1.28904 0.0463719 -1.08359e-19)
(1.10228 0.0434825 -6.12889e-20)
(0.919956 0.0418761 6.74931e-20)
(0.749677 0.0414557 0)
(0.595964 0.042423 -8.47702e-20)
(0.461079 0.0445902 -4.44298e-22)
(0.3454 0.0477104 -1.0259e-19)
(0.248118 0.0514547 2.23468e-19)
(0.167762 0.0554566 1.21957e-19)
(0.102597 0.0593272 -1.32874e-19)
(0.0508816 0.0626663 7.13653e-20)
(0.0110158 0.0650719 1.54563e-19)
(-0.0183973 0.0661497 8.31767e-20)
(-0.0385404 0.0655237 -4.36814e-20)
(-0.0504045 0.0628471 0)
(-0.054826 0.0578148 9.96182e-20)
(-0.0525307 0.0501737 2.0961e-19)
(-0.0441877 0.0397204 -1.09129e-19)
(-0.0304173 0.0263494 -1.14258e-19)
(-0.0117265 0.0101412 9.80424e-20)
(1.38246 0.0303306 0)
(1.19879 0.0293808 9.69886e-20)
(1.016 0.0312329 1.10295e-19)
(0.84122 0.0327313 -6.2892e-20)
(0.680617 0.03576 -1.40304e-19)
(0.537511 0.0393692 2.33807e-19)
(0.413194 0.043732 -8.57554e-20)
(0.307411 0.0485471 9.47442e-20)
(0.218967 0.053612 0)
(0.14619 0.0586643 -1.13811e-19)
(0.0872662 0.0634223 6.12549e-20)
(0.0404485 0.0675794 -1.34271e-19)
(0.00417114 0.0708102 2.88703e-19)
(-0.0229087 0.0727804 -7.4507e-23)
(-0.0419102 0.073158 -8.30303e-20)
(-0.053755 0.0716276 4.41254e-20)
(-0.059205 0.067905 0)
(-0.058904 0.0617518 -9.92465e-20)
(-0.0534174 0.0529861 -5.24197e-20)
(-0.0432733 0.0414844 0)
(-0.0289678 0.027215 -2.83379e-20)
(-0.0109171 0.0102902 9.63977e-20)
(1.09736 0.0180001 8.92679e-20)
(0.918989 0.0201567 0)
(0.754788 0.0259365 0)
(0.605145 0.0307207 1.28606e-19)
(0.473893 0.0367242 -7.21172e-20)
(0.360844 0.0426922 7.95678e-20)
(0.265463 0.0488556 -8.74149e-20)
(0.186193 0.0549336 9.66212e-20)
(0.12128 0.0607905 1.23707e-22)
(0.068892 0.066227 0)
(0.027329 0.0710262 0)
(-0.00491163 0.0749398 0)
(-0.0291034 0.0776956 -2.1867e-19)
(-0.0462987 0.0790072 -3.46934e-22)
(-0.0573543 0.0785883 8.33346e-20)
(-0.062967 0.0761688 -4.63813e-22)
(-0.0637114 0.0715114 -4.67083e-20)
(-0.060076 0.0644274 4.97454e-20)
(-0.0524946 0.0547875 5.13768e-20)
(-0.0413765 0.0425262 -1.07669e-19)
(-0.0271111 0.0276616 8.35204e-20)
(-0.0100353 0.010321 0)
(0.817859 0.0124029 0)
(0.661372 0.0183422 5.31243e-20)
(0.525852 0.0266682 -5.87924e-20)
(0.406279 0.0336948 -6.62573e-20)
(0.305145 0.0412051 7.2953e-20)
(0.220213 0.048215 8.11924e-20)
(0.150252 0.0549599 -8.88891e-20)
(0.0932993 0.0612644 9.76197e-20)
(0.0476188 0.0670665 -1.06987e-19)
(0.0115662 0.0722334 0)
(-0.0162782 0.0766025 1.26391e-19)
(-0.0371159 0.0799696 -1.36022e-19)
(-0.0519352 0.0820987 1.1904e-22)
(-0.0615371 0.0827342 3.92796e-20)
(-0.0665659 0.0816182 0)
(-0.0675426 0.078508 -4.46317e-20)
(-0.0648968 0.0731945 9.43744e-20)
(-0.0589951 0.0655175 -9.83245e-20)
(-0.0501644 0.0553772 -5.17202e-20)
(-0.0387131 0.0427394 -1.06746e-19)
(-0.0249374 0.0276458 1.37757e-19)
(-0.00910112 0.0102227 2.31106e-20)
(0.566919 0.0132028 9.57647e-20)
(0.440709 0.0220013 0)
(0.336043 0.0311031 0)
(0.245968 0.0389967 6.71243e-20)
(0.171964 0.0466524 -7.43256e-20)
(0.111148 0.0535935 -8.20381e-20)
(0.0621975 0.0600159 -9.01817e-20)
(0.0232592 0.0658538 -4.97225e-20)
(-0.00714346 0.0710914 5.38836e-20)
(-0.0303519 0.0756403 -1.76188e-19)
(-0.0474823 0.0793697 -3.83876e-22)
(-0.0594602 0.0821006 1.36973e-19)
(-0.0670363 0.083618 -3.70573e-20)
(-0.0708139 0.0836849 7.89674e-20)
(-0.0712763 0.0820605 4.17309e-20)
(-0.0688139 0.0785189 -4.4178e-20)
(-0.0637485 0.0728667 4.7594e-22)
(-0.0563546 0.0649582 -9.80577e-20)
(-0.0468755 0.0547059 2.04223e-19)
(-0.0355369 0.0420866 -1.05763e-19)
(-0.0225575 0.0271438 0)
(-0.00813767 0.00998488 -3.05438e-22)
(0.356123 0.01749 -1.46393e-19)
(0.261209 0.0274453 5.45127e-20)
(0.184797 0.0361683 6.11375e-20)
(0.120588 0.0438234 -6.81528e-20)
(0.069212 0.0507882 7.54458e-20)
(0.0280232 0.0569924 1.66567e-19)
(-0.0041621 0.0625936 3.28661e-22)
(-0.0288803 0.0676067 -5.00759e-20)
(-0.047306 0.0720401 -5.46107e-20)
(-0.0604834 0.0758331 -5.91771e-20)
(-0.0692683 0.0788735 1.27852e-19)
(-0.074364 0.0809981 0)
(-0.0763384 0.0820058 -3.70946e-20)
(-0.0756469 0.0816726 3.96145e-20)
(-0.0726546 0.0797694 -1.67784e-19)
(-0.0676567 0.076081 1.33122e-19)
(-0.0608963 0.0704219 1.63339e-19)
(-0.0525797 0.0626511 -1.21762e-19)
(-0.0428866 0.0526811 0)
(-0.0319779 0.0404853 1.04947e-19)
(-0.0200128 0.0260923 -1.07926e-19)
(-0.00714365 0.00957605 7.86524e-20)
(0.18685 0.0226401 0)
(0.119868 0.032089 0)
(0.0672925 0.0397687 -1.23773e-19)
(0.0243972 0.0464743 0)
(-0.00880712 0.0523223 7.59409e-20)
(-0.0344116 0.0574611 -8.36892e-20)
(-0.0534107 0.0620287 4.59313e-20)
(-0.0669971 0.0660859 -5.02258e-20)
(-0.0760779 0.0696527 -5.47063e-20)
(-0.0814469 0.0726839 -5.93475e-20)
(-0.0837521 0.0750793 6.4116e-20)
(-0.0835241 0.0766877 0)
(-0.0811916 0.0773203 1.11087e-19)
(-0.0770995 0.0767654 -3.95876e-20)
(-0.0715254 0.0748054 4.20811e-20)
(-0.0646953 0.0712343 1.32599e-19)
(-0.0567957 0.0658723 -9.31037e-20)
(-0.0479842 0.0585785 2.43837e-20)
(-0.0383947 0.0492597 2.50902e-20)
(-0.0281412 0.0378772 0)
(-0.0173423 0.0244354 0)
(-0.00612189 0.00896591 -1.11656e-20)
(0.055393 0.0265887 4.97096e-20)
(0.0115007 0.0344445 5.62742e-20)
(-0.0217826 0.0407104 -6.19654e-20)
(-0.0476884 0.046127 1.38716e-19)
(-0.0665746 0.0507233 -1.53345e-19)
(-0.0799793 0.0547152 1.26792e-19)
(-0.0887147 0.0582295 -2.34551e-22)
(-0.0936738 0.0613456 5.07773e-20)
(-0.0955435 0.0640883 5.52828e-20)
(-0.0949156 0.0664223 5.99431e-20)
(-0.0922731 0.0682576 -9.71274e-20)
(-0.0880111 0.069456 3.44932e-20)
(-0.0824503 0.0698431 3.6947e-20)
(-0.0758509 0.0692222 -3.96597e-20)
(-0.068425 0.0673906 0)
(-0.0603473 0.0641538 -1.32662e-19)
(-0.0517642 0.05934 6.93683e-20)
(-0.0428001 0.0528094 0)
(-0.0335594 0.0444628 9.99642e-20)
(-0.0241255 0.0342477 -1.03381e-19)
(-0.014595 0.0221415 0)
(-0.00508362 0.00813281 1.08987e-20)
(-0.0429872 0.0281521 5.06202e-20)
(-0.0685002 0.0340111 -5.61167e-20)
(-0.0865363 0.0387173 1.26006e-19)
(-0.099204 0.042755 -6.95162e-20)
(-0.107014 0.0461251 -7.68994e-20)
(-0.111058 0.0490256 -2.13933e-22)
(-0.11198 0.0515685 -1.39941e-19)
(-0.110429 0.0538326 5.04728e-20)
(-0.10691 0.0558434 1.65979e-19)
(-0.101851 0.0575724 -5.99187e-20)
(-0.0956006 0.0589407 -9.71993e-20)
(-0.0884456 0.0598255 3.46127e-20)
(-0.0806201 0.0600704 -7.43425e-20)
(-0.0723173 0.0594986 7.90426e-20)
(-0.0636984 0.0579266 -8.37192e-20)
(-0.0549002 0.0551773 1.76321e-19)
(-0.0460408 0.0510916 -9.23691e-20)
(-0.0372234 0.0455369 -9.6185e-20)
(-0.0285354 0.0384129 1.49484e-19)
(-0.0200444 0.0296583 -1.29313e-20)
(-0.0118415 0.0192279 -1.05211e-19)
(-0.00405199 0.00707338 -9.74023e-20)
(-0.111843 0.0268928 0)
(-0.123133 0.030839 -3.69263e-22)
(-0.129454 0.0340541 6.28527e-20)
(-0.132143 0.0367986 0)
(-0.131704 0.0390677 -7.75782e-20)
(-0.128887 0.0410097 4.23218e-20)
(-0.124175 0.0427158 4.66449e-20)
(-0.118019 0.0442534 -2.56881e-20)
(-0.110771 0.0456449 0)
(-0.102723 0.0468677 3.00257e-20)
(-0.0941143 0.0478554 0)
(-0.085141 0.0485032 -6.96712e-20)
(-0.0759675 0.048677 1.48799e-19)
(-0.0667331 0.0482244 -7.90869e-20)
(-0.0575591 0.0469863 0)
(-0.0485532 0.0448086 0)
(-0.0398129 0.0415523 -9.21321e-20)
(-0.0314286 0.0370994 9.59608e-20)
(-0.0234794 0.0313588 2.48927e-20)
(-0.0160278 0.02427 1.28087e-20)
(-0.00917214 0.0157771 0)
(-0.00306058 0.00580891 -8.56804e-20)
(-0.153012 0.0230517 1.51894e-22)
(-0.153851 0.0254191 -5.69432e-20)
(-0.151707 0.0273716 0)
(-0.1474 0.0290264 7.04505e-20)
(-0.14133 0.0303837 -3.86793e-20)
(-0.133984 0.0315422 -1.51243e-22)
(-0.125692 0.0325704 2.32358e-20)
(-0.116741 0.0335196 -2.56535e-20)
(-0.107353 0.0344079 -2.78221e-20)
(-0.0977101 0.0352181 -3.02108e-20)
(-0.0879586 0.0358977 0)
(-0.0782225 0.036363 -1.74312e-20)
(-0.0686092 0.0365054 -1.86158e-20)
(-0.0592155 0.0362004 -9.89831e-20)
(-0.0501311 0.0353175 1.04627e-19)
(-0.0414411 0.0337305 0)
(-0.0332274 0.0313258 0)
(-0.0255709 0.0280084 0)
(-0.0185461 0.0237066 0)
(-0.0122161 0.0183743 0)
(-0.00669191 0.011962 -1.03866e-19)
(-0.00215115 0.00439686 8.51756e-20)
(-0.166997 0.0172756 -3.79345e-22)
(-0.161061 0.018487 0)
(-0.153646 0.0194932 3.16918e-20)
(-0.145239 0.0203304 1.44829e-22)
(-0.13609 0.021007 -3.87933e-20)
(-0.126489 0.0215835 -4.27527e-20)
(-0.116623 0.0221068 -7.04989e-20)
(-0.106651 0.0226127 -7.71433e-20)
(-0.0966889 0.0231145 2.78214e-20)
(-0.0868271 0.0236008 1.05878e-19)
(-0.077141 0.0240346 1.64099e-20)
(-0.0676969 0.0243551 -3.49188e-20)
(-0.0585586 0.0244822 3.73616e-20)
(-0.0497899 0.0243219 1.98501e-20)
(-0.0414568 0.0237748 -1.04795e-19)
(-0.0336269 0.0227441 8.81167e-20)
(-0.0263696 0.0211444 1.15129e-20)
(-0.0197565 0.0189074 8.36849e-20)
(-0.0138565 0.0159886 -8.66172e-20)
(-0.00873072 0.0123685 -6.35355e-21)
(-0.00449889 0.00802547 0)
(-0.00136404 0.00291718 0)
(-0.153773 0.0107342 -2.56656e-20)
(-0.144797 0.0112107 2.84104e-20)
(-0.135357 0.0116046 -1.58133e-20)
(-0.125741 0.0119122 1.60353e-22)
(-0.116057 0.0121483 3.91919e-20)
(-0.106446 0.0123464 2.15218e-22)
(-0.0969874 0.0125353 -4.7113e-20)
(-0.0877426 0.0127374 7.74559e-20)
(-0.0787483 0.012962 -5.60039e-20)
(-0.0700306 0.0132039 1.51841e-20)
(-0.0616116 0.0134421 -1.63628e-20)
(-0.0535157 0.0136399 -2.63276e-20)
(-0.0457743 0.0137468 -9.36772e-20)
(-0.0384271 0.0137013 7.95364e-20)
(-0.0315225 0.0134359 0)
(-0.0251156 0.0128832 0)
(-0.0192654 0.0119835 2.88038e-20)
(-0.0140342 0.0106922 1.19241e-20)
(-0.00948107 0.00898923 -6.25588e-21)
(-0.00565791 0.00688398 -4.4537e-20)
(-0.00267543 0.00439509 0)
(-0.000738205 0.0015386 -2.64659e-21)
(-0.113386 0.00450831 2.5451e-20)
(-0.105158 0.00460851 0)
(-0.0969693 0.00467501 1.59654e-20)
(-0.0890159 0.00470327 8.86605e-21)
(-0.0813016 0.00470856 0)
(-0.0738778 0.00470753 -1.08064e-20)
(-0.066755 0.00471363 5.92831e-21)
(-0.0599356 0.00473715 -6.47687e-21)
(-0.0534107 0.00478328 5.63605e-20)
(-0.0471688 0.00485143 -6.08514e-20)
(-0.0412006 0.00493442 0)
(-0.0355041 0.00501809 8.79976e-21)
(-0.0300881 0.00508108 -4.22983e-20)
(-0.0249736 0.00509523 3.48838e-20)
(-0.0201941 0.00502675 4.21283e-20)
(-0.0157932 0.00483872 -1.71319e-23)
(-0.0118215 0.00449531 -4.0464e-20)
(-0.00833244 0.0039685 0)
(-0.00537509 0.003249 -6.19541e-21)
(-0.00298568 0.00235894 0)
(-0.00123712 0.00135301 -3.25895e-21)
(-0.000285777 0.000341254 2.64252e-21)
(-0.0463998 0.000573757 2.51703e-20)
(-0.0425961 0.000573566 -2.75785e-20)
(-0.0388587 0.000564818 2.4291e-22)
(-0.035335 0.000546755 2.59788e-20)
(-0.0319975 0.000526264 -1.88345e-20)
(-0.0288592 0.000507446 -1.05693e-20)
(-0.0259087 0.000493094 -2.86629e-20)
(-0.0231329 0.000485403 3.10404e-20)
(-0.0205143 0.000485946 0)
(-0.0180348 0.000495666 2.92086e-20)
(-0.0156784 0.000514678 -3.1408e-20)
(-0.0134333 0.000541932 -3.37698e-20)
(-0.0112941 0.000574766 4.3726e-21)
(-0.00926345 0.000608341 4.28469e-20)
(-0.00735308 0.000635077 3.93065e-23)
(-0.00558466 0.000644309 0)
(-0.00398911 0.000622561 0)
(-0.0026053 0.000555286 2.23718e-23)
(-0.0014753 0.00043182 0)
(-0.000634965 0.000254289 0)
(-0.000120713 4.95671e-05 5.2791e-20)
(2.02563e-05 -9.3561e-05 -4.09352e-20)
(1.13618 0.0231032 -8.21641e-22)
(1.09011 0.0246816 7.59499e-20)
(1.04201 0.0263084 -2.15118e-20)
(0.991758 0.0279851 2.55083e-20)
(0.93947 0.0297171 2.93707e-20)
(0.88523 0.031511 -3.17281e-20)
(0.829131 0.0333695 0)
(0.77128 0.0352936 -4.12292e-20)
(0.711793 0.0372826 2.21114e-20)
(0.650802 0.0393341 0)
(0.588451 0.0414403 2.73656e-20)
(0.524905 0.0435788 1.49322e-20)
(0.460382 0.0456904 -3.28125e-20)
(0.395214 0.0476429 3.47797e-20)
(0.329954 0.0491921 1.86313e-20)
(0.265504 0.049955 -3.99305e-20)
(0.203228 0.049421 4.17017e-20)
(0.145011 0.0470025 -3.28802e-20)
(0.0931145 0.0421237 3.40598e-20)
(0.0499403 0.0343175 0)
(0.0187272 0.023283 1.20737e-20)
(0.00351366 0.00893233 -4.95719e-21)
(1.14055 0.0790905 5.99343e-22)
(1.09493 0.084785 -1.75107e-20)
(1.04743 0.090755 -4.27132e-20)
(0.997757 0.0969702 0)
(0.946049 0.103424 -2.83744e-20)
(0.892391 0.110119 0)
(0.836875 0.117054 0)
(0.779607 0.124221 8.17626e-20)
(0.720707 0.131612 -6.60194e-20)
(0.660304 0.139214 0)
(0.59854 0.146992 2.76974e-20)
(0.535577 0.154861 -4.44047e-20)
(0.471618 0.162596 9.68657e-20)
(0.406964 0.169712 -3.45569e-20)
(0.342109 0.175319 5.59123e-20)
(0.277866 0.178044 -1.17117e-19)
(0.215479 0.176075 -8.31462e-20)
(0.156688 0.167349 9.72862e-20)
(0.103613 0.149858 5.68227e-20)
(0.0585289 0.121986 -9.29672e-20)
(0.024589 0.0827097 -8.48604e-20)
(0.00579001 0.031754 4.60691e-21)
(1.14918 0.135088 1.2852e-19)
(1.10451 0.144915 2.94749e-21)
(1.05825 0.155152 -8.65562e-20)
(1.00975 0.165787 1.92138e-19)
(0.959221 0.176813 -5.47319e-20)
(0.906747 0.188238 0)
(0.852423 0.200062 -6.96234e-20)
(0.796357 0.212277 0)
(0.73867 0.224871 8.89647e-20)
(0.679489 0.237821 -1.43806e-19)
(0.618952 0.251074 0)
(0.55721 0.264482 -2.93875e-20)
(0.494436 0.277663 -3.18486e-20)
(0.430865 0.289782 1.02187e-19)
(0.366872 0.299319 -2.89538e-19)
(0.303078 0.303927 1.9166e-19)
(0.240478 0.30051 0)
(0.180522 0.285553 1.69614e-19)
(0.125036 0.255642 -1.53093e-19)
(0.0760498 0.208038 -2.22982e-20)
(0.0365411 0.141018 -2.37124e-20)
(0.0104298 0.0541335 9.58835e-20)
(1.16115 0.188352 4.76711e-21)
(1.11803 0.202191 -1.41953e-19)
(1.07372 0.216554 -2.43977e-21)
(1.02707 0.231491 -2.84658e-21)
(0.978381 0.24698 -5.49788e-20)
(0.927748 0.263032 1.19867e-19)
(0.875265 0.279645 2.20812e-21)
(0.821046 0.296809 0)
(0.765213 0.314507 1.72281e-19)
(0.707894 0.332707 -1.38169e-19)
(0.649224 0.351334 1.01049e-19)
(0.589337 0.37018 0)
(0.528362 0.388709 5.95521e-20)
(0.466437 0.405745 1.31626e-19)
(0.403755 0.41915 -7.06934e-20)
(0.340658 0.425625 0)
(0.277762 0.420826 -3.79598e-20)
(0.216082 0.399831 1.6314e-19)
(0.157009 0.357874 -2.09893e-19)
(0.102203 0.291148 -1.53213e-19)
(0.0543843 0.197289 -1.51473e-21)
(0.0173543 0.0757058 -1.53117e-21)
(1.17644 0.239019 2.35177e-19)
(1.13538 0.256741 -1.41966e-19)
(1.09366 0.27503 7.56715e-20)
(1.04947 0.294064 -3.5634e-21)
(1.00322 0.313801 0)
(0.955024 0.334254 0)
(0.904984 0.355424 1.95228e-19)
(0.853216 0.377301 1.43262e-19)
(0.799844 0.399864 0)
(0.744999 0.423074 0)
(0.688809 0.446839 -2.99696e-19)
(0.631388 0.470893 1.08458e-19)
(0.572808 0.494552 -5.93767e-20)
(0.513077 0.516315 2.50577e-19)
(0.452148 0.533444 -3.97034e-19)
(0.389992 0.541722 -6.81543e-20)
(0.326726 0.535604 3.78959e-20)
(0.262792 0.508818 -7.46568e-20)
(0.19901 0.455317 2.41066e-21)
(0.136556 0.370302 1.26245e-19)
(0.0778169 0.250827 -2.11499e-19)
(0.0264421 0.0962042 -1.80899e-20)
(1.19461 0.285798 -5.23672e-21)
(1.15614 0.30723 1.35726e-19)
(1.11763 0.329209 -6.60118e-21)
(1.07648 0.352108 8.19223e-20)
(1.03325 0.375852 9.57655e-20)
(0.988079 0.40046 1.08e-19)
(0.941059 0.425934 1.24979e-19)
(0.892319 0.452264 -5.52218e-19)
(0.841987 0.479428 -1.49681e-19)
(0.790193 0.507384 2.54033e-19)
(0.737061 0.536022 -2.74642e-19)
(0.682682 0.565027 1.04061e-19)
(0.627059 0.593577 0)
(0.57004 0.619861 -3.48187e-19)
(0.511287 0.640574 2.52553e-19)
(0.450309 0.650623 2.6836e-19)
(0.386611 0.643315 7.95452e-22)
(0.319928 0.611099 -5.01685e-19)
(0.250382 0.546727 3.77516e-20)
(0.178566 0.444494 7.53869e-20)
(0.106462 0.30095 3.58807e-19)
(0.0375412 0.115364 1.00152e-19)
(1.21523 0.328114 -1.10872e-19)
(1.17985 0.353027 -1.2777e-19)
(1.1451 0.378398 -6.12162e-21)
(1.10751 0.404869 1.65984e-19)
(1.06783 0.432321 -4.56686e-19)
(1.0262 0.460778 -6.27066e-21)
(0.982726 0.490249 -1.23617e-19)
(0.937542 0.520722 5.29082e-19)
(0.890784 0.552176 2.93746e-19)
(0.842584 0.584562 -3.9634e-19)
(0.79306 0.61776 6.13746e-21)
(0.742275 0.65141 1.89206e-19)
(0.690151 0.684566 9.91114e-20)
(0.636354 0.715133 -2.17036e-19)
(0.580199 0.739277 5.19927e-19)
(0.520652 0.751077 -4.21833e-19)
(0.456496 0.742756 3.14358e-19)
(0.386633 0.705561 0)
(0.310368 0.631132 0)
(0.227617 0.512946 -2.53652e-19)
(0.139903 0.34714 6.18941e-19)
(0.0504867 0.13299 -2.0917e-19)
(1.23761 0.365268 0)
(1.20583 0.393416 1.19385e-19)
(1.17536 0.421866 1.33801e-19)
(1.14181 0.451587 -1.42417e-19)
(1.10618 0.482403 8.0367e-21)
(1.06858 0.514347 9.60774e-20)
(1.02914 0.547437 -3.26235e-19)
(0.987991 0.581667 2.40655e-19)
(0.945285 0.617018 -2.65925e-19)
(0.901157 0.653443 -1.54216e-19)
(0.855723 0.690816 5.51994e-19)
(0.809018 0.728743 2.55467e-19)
(0.760879 0.766172 -1.93069e-19)
(0.710769 0.800759 -1.03306e-19)
(0.657615 0.828181 0)
(0.599765 0.841748 0)
(0.535173 0.832668 -6.02643e-20)
(0.46179 0.791063 0)
(0.37799 0.707547 0)
(0.282927 0.574877 1.87381e-19)
(0.17761 0.38887 -3.23092e-20)
(0.0650712 0.148882 1.1836e-21)
(1.26101 0.396695 3.66621e-19)
(1.23328 0.427749 0)
(1.20751 0.458908 -1.28152e-19)
(1.17841 0.491523 1.45548e-19)
(1.14721 0.52535 -1.60579e-19)
(1.11406 0.560433 1.66669e-19)
(1.07906 0.596794 -4.07135e-21)
(1.04239 0.634426 1.03509e-19)
(1.00419 0.673311 -1.17721e-19)
(0.964605 0.713404 2.65557e-19)
(0.923744 0.754572 -4.38514e-19)
(0.881614 0.796399 -3.93498e-19)
(0.837962 0.837751 4.11724e-19)
(0.79203 0.876067 -4.90831e-22)
(0.742313 0.906593 -1.86732e-19)
(0.686476 0.921936 1.9387e-19)
(0.621542 0.912363 -2.03152e-19)
(0.544397 0.866956 0)
(0.452377 0.775395 2.15198e-19)
(0.343802 0.629819 -1.70784e-19)
(0.219123 0.425825 2.30372e-19)
(0.0811154 0.162927 -1.90502e-19)
(1.28453 0.422238 -7.53531e-21)
(1.26135 0.455915 -3.95236e-19)
(1.24068 0.489432 2.23964e-19)
(1.21645 0.524542 1.30045e-19)
(1.19009 0.560931 -2.88991e-19)
(1.16174 0.598665 -8.73886e-21)
(1.13154 0.637785 0)
(1.09967 0.678298 -2.00133e-19)
(1.06629 0.720194 3.20794e-19)
(1.03157 0.763438 2.51104e-19)
(0.995607 0.807901 -2.56953e-19)
(0.958399 0.85316 -2.75989e-19)
(0.919605 0.898024 3.63821e-19)
(0.878243 0.939761 -3.08804e-19)
(0.83236 0.973241 3.26958e-19)
(0.778874 0.990433 7.80762e-20)
(0.713789 0.980732 -8.00969e-20)
(0.632808 0.932253 0)
(0.53212 0.833831 -4.17694e-20)
(0.409134 0.67709 -5.12026e-20)
(0.263706 0.457528 2.39344e-19)
(0.0983334 0.174931 -1.62297e-19)
(1.30728 0.441413 1.51201e-19)
(1.289 0.477263 1.89845e-19)
(1.27363 0.512751 0)
(1.25448 0.550029 1.11297e-19)
(1.23323 0.588682 0)
(1.21001 0.628782 0)
(1.18496 0.670367 -1.62175e-19)
(1.15828 0.713442 8.39359e-21)
(1.13014 0.758004 -1.02412e-19)
(1.10071 0.804023 1.11397e-19)
(1.0701 0.851377 0)
(1.03827 0.899643 2.39932e-19)
(1.00482 0.947595 -4.43219e-19)
(0.968515 0.992376 0)
(0.926933 1.02854 2.73227e-19)
(0.876185 1.04751 -3.65694e-19)
(0.811167 1.03789 -6.36212e-20)
(0.726301 0.986942 1.49604e-19)
(0.616544 0.882754 1.90668e-19)
(0.478346 0.716548 -1.54234e-19)
(0.310951 0.483852 -2.02805e-19)
(0.116562 0.184849 1.32752e-19)
(1.32833 0.45496 -3.18936e-21)
(1.31555 0.492759 -3.94276e-21)
(1.30587 0.529799 0)
(1.29212 0.568686 -1.09611e-19)
(1.2762 0.608964 1.17635e-19)
(1.25822 0.650749 -5.73402e-21)
(1.2384 0.694106 0)
(1.21696 0.739056 3.13322e-19)
(1.19412 0.785608 -1.69489e-19)
(1.17004 0.833744 1.83347e-19)
(1.14486 0.883361 0)
(1.11854 0.934058 -2.04057e-19)
(1.0906 0.984616 2.21881e-19)
(1.05962 1.0321 4.45927e-19)
(1.02271 1.07084 -1.80995e-19)
(0.975142 1.09175 -2.77708e-19)
(0.910637 1.08271 1.86311e-19)
(0.822204 1.03013 0)
(0.703438 0.921447 1.14972e-19)
(0.549753 0.747604 -2.36509e-19)
(0.359766 0.504347 1.21015e-19)
(0.135378 0.192477 -1.0283e-19)
(1.34674 0.461735 0)
(1.33953 0.501017 -1.3137e-20)
(1.33543 0.539489 0)
(1.32729 0.579948 9.40149e-20)
(1.317 0.621829 -1.03265e-19)
(1.30467 0.665249 -1.21106e-19)
(1.29051 0.710277 1.18415e-19)
(1.27479 0.756945 -1.53076e-19)