/*--------------------------------*- C++ -*----------------------------------*\
| =========                 |                                                 |
| \\      /  F ield         | OpenFOAM Extend Project: Open source CFD        |
|  \\    /   O peration     | Version:  1.6-ext                               |
|   \\  /    A nd           | Web:      www.extend-project.de                 |
|    \\/     M anipulation  |                                                 |
\*---------------------------------------------------------------------------*/
FoamFile
{
    version     2.0;
    format      ascii;
    class       volVectorField;
    location    "0.8";
    object      U_0;
}
// * * * * * * * * * * * * * * * * * * * * * * * * * * * * * * * * * * * * * //

dimensions      [0 1 -1 0 0 0 0];

internalField   nonuniform List<vector> 
20940
(
(1.84885 0.39751 3.22764e-24)
(1.88846 0.417568 0)
(1.92596 0.436908 0)
(1.96051 0.454486 0)
(1.99182 0.470508 6.75264e-21)
(2.01825 0.483853 0)
(2.0368 0.493411 -1.109e-20)
(2.04269 0.497236 1.21346e-20)
(2.02951 0.493093 0)
(1.99017 0.478744 1.79554e-23)
(1.91843 0.452649 0)
(1.81073 0.414575 -1.22822e-23)
(1.66751 0.365956 0)
(1.49363 0.309783 1.63097e-20)
(1.29759 0.250067 -1.7294e-20)
(1.08982 0.191068 -9.42427e-21)
(0.880851 0.136593 2.05027e-23)
(0.679774 0.0895433 0)
(0.493406 0.0517324 0)
(0.326044 0.0239333 -1.22704e-20)
(0.179712 0.00662506 1.26067e-20)
(0.0546222 0.000490509 5.17917e-21)
(1.87575 0.374246 6.73562e-21)
(1.91408 0.393153 -5.59029e-21)
(1.94999 0.410684 0)
(1.98236 0.426479 0)
(2.01037 0.440199 8.21449e-21)
(2.03152 0.450639 -1.64421e-20)
(2.04179 0.456388 0)
(2.03545 0.45541 0)
(2.00573 0.445637 1.64229e-20)
(1.94612 0.425385 -3.6303e-20)
(1.85215 0.394017 2.22368e-20)
(1.7229 0.352352 -2.39255e-20)
(1.56178 0.302719 4.20922e-20)
(1.37611 0.248577 -3.0282e-20)
(1.17576 0.193841 0)
(0.971261 0.142179 2.85533e-20)
(0.772211 0.0965091 -3.91198e-20)
(0.586177 0.0587822 0)
(0.418314 0.0299752 1.08725e-20)
(0.27147 0.0102371 0)
(0.146609 -0.000372294 2.44448e-20)
(0.0433426 -0.00141108 -2.52811e-20)
(1.90042 0.350946 -1.86526e-20)
(1.93716 0.368773 1.50411e-20)
(1.97092 0.384602 2.8652e-21)
(2.00025 0.398626 -2.16299e-20)
(2.02355 0.409938 0)
(2.03729 0.41725 -1.83737e-20)
(2.03645 0.418907 2.23094e-20)
(2.01462 0.412945 0)
(1.96525 0.397675 0)
(1.88322 0.372169 1.84562e-20)
(1.76646 0.336767 0)
(1.61707 0.293226 -4.93161e-20)
(1.44122 0.244485 9.41624e-20)
(1.24805 0.194093 -5.86683e-20)
(1.04794 0.14554 0)
(0.850784 0.101715 7.09835e-20)
(0.664733 0.0646274 -5.60259e-20)
(0.495643 0.0353821 0)
(0.34706 0.014289 -1.08677e-20)
(0.220545 0.00104239 0)
(0.116195 -0.00459211 -4.67827e-20)
(0.0331646 -0.00236526 3.85224e-20)
(1.92395 0.327984 -2.38813e-20)
(1.95862 0.3448 0)
(1.98943 0.358967 0)
(2.0144 0.371122 -1.05336e-21)
(2.03091 0.379789 2.86853e-20)
(2.03435 0.383628 5.59017e-20)
(2.01884 0.380867 -2.22355e-20)
(1.97786 0.369826 0)
(1.90588 0.349422 0)
(1.79997 0.319623 0)
(1.66107 0.281716 4.10522e-20)
(1.49426 0.238168 1.64448e-21)
(1.30793 0.192163 -1.04192e-19)
(1.11217 0.146979 -1.63098e-21)
(0.916989 0.105435 6.17743e-20)
(0.73097 0.0695626 -1.72576e-20)
(0.560513 0.0405262 1.84977e-20)
(0.409728 0.0187345 0)
(0.280693 0.00400287 0)
(0.173896 -0.00427371 -2.07909e-20)
(0.0887683 -0.0065095 0)
(0.0241537 -0.00257124 0)
(1.94604 0.305433 5.07501e-20)
(1.97799 0.321237 -6.31241e-20)
(2.00468 0.333691 -1.62982e-21)
(2.0234 0.343778 -2.67704e-21)
(2.03035 0.349476 0)
(2.01992 0.34949 7.59799e-22)
(1.98583 0.342118 4.71366e-20)
(1.92228 0.326201 3.77645e-21)
(1.82567 0.301441 -6.02304e-20)
(1.69598 0.268736 0)
(1.53732 0.230142 -8.08292e-20)
(1.35734 0.188497 4.59908e-20)
(1.16576 0.146852 0)
(0.972611 0.107925 0)
(0.786756 0.0737413 -8.96932e-20)
(0.615025 0.0455059 3.23254e-20)
(0.461975 0.0236779 3.37343e-20)
(0.330096 0.00814569 0)
(0.220232 -0.00160231 7.79151e-20)
(0.132049 -0.00633681 -5.98782e-20)
(0.0645171 -0.00655887 0)
(0.0163125 -0.0021929 0)
(1.9662 0.283364 -2.88399e-20)
(1.99443 0.298102 1.01345e-19)
(2.01528 0.308701 -8.18953e-20)
(2.02514 0.316406 2.57683e-20)
(2.01898 0.318755 0)
(1.99064 0.314663 5.79929e-22)
(1.9342 0.302731 0)
(1.84554 0.282533 5.46327e-20)
(1.72388 0.254638 -1.22239e-19)
(1.57245 0.22075 -3.06004e-21)
(1.39823 0.183388 1.16671e-19)
(1.21056 0.145375 0)
(1.0194 0.10931 -9.75298e-20)
(0.833833 0.0771853 1.55739e-19)
(0.661007 0.0502327 -2.84799e-20)
(0.505836 0.028955 1.22527e-19)
(0.371134 0.0132796 -3.36556e-20)
(0.258021 0.00274922 0)
(0.166391 -0.00333096 0)
(0.0953303 -0.00579345 0)
(0.0435375 -0.00516101 -1.97134e-20)
(0.00963843 -0.00138107 6.75397e-20)
(1.98397 0.261585 -3.05183e-20)
(2.0069 0.275072 7.06188e-20)
(2.01941 0.283547 -4.66287e-20)
(2.01692 0.288502 5.15989e-20)
(1.9935 0.287197 0)
(1.94313 0.278967 -1.18239e-19)
(1.86132 0.262941 1.35674e-19)
(1.74662 0.239548 -1.01962e-19)
(1.60155 0.210148 -6.12096e-20)
(1.43246 0.17698 6.64639e-20)
(1.24832 0.142645 0)
(1.05904 0.109615 0)
(0.873815 0.079835 0)
(0.700065 0.0545458 -5.14063e-20)
(0.542991 0.0342881 -5.35079e-20)
(0.405663 0.0190323 -3.00023e-20)
(0.289405 0.00835209 0)
(0.194273 0.00159535 6.71479e-20)
(0.119496 -0.00200532 -6.99421e-20)
(0.0638081 -0.00327244 -3.61275e-20)
(0.0257834 -0.0027104 -1.7959e-20)
(0.00408508 -0.000271786 0)
(1.99785 0.240033 0)
(2.01321 0.252015 -3.64133e-20)
(2.01405 0.258047 1.31446e-21)
(1.99507 0.259895 4.4589e-21)
(1.9501 0.254802 -6.15522e-20)
(1.87433 0.242744 -7.49113e-20)
(1.76576 0.223538 4.49017e-20)
(1.6263 0.19844 0)
(1.46174 0.169362 5.80398e-20)
(1.28074 0.138716 -6.50294e-20)
(1.09313 0.108833 0)
(0.908228 0.0816036 -7.96225e-20)
(0.733673 0.0582654 8.94982e-20)
(0.574904 0.0393898 -9.56094e-20)
(0.435198 0.0249899 1.99251e-21)
(0.316034 0.0146805 -5.50892e-20)
(0.217578 0.00783655 -1.20838e-19)
(0.139142 0.00372646 1.26599e-19)
(0.0795405 0.00158594 0)
(0.0373381 0.000645649 -3.14958e-22)
(0.0110976 0.000440062 1.46814e-19)
(-0.000425216 0.00101727 6.18551e-20)
(2.00655 0.218149 -6.67586e-20)
(2.01104 0.228234 7.41549e-20)
(1.99604 0.231487 9.4993e-20)
(1.95606 0.230074 -5.40775e-20)
(1.88576 0.221466 -2.55534e-21)
(1.78273 0.206424 7.50555e-20)
(1.64827 0.185459 8.86975e-20)
(1.48772 0.160444 -5.03404e-20)
(1.30946 0.133506 -5.75594e-20)
(1.12327 0.106871 1.4159e-21)
(0.938584 0.0823557 0)
(0.763249 0.0611925 7.90441e-20)
(0.602922 0.0439782 0)
(0.461053 0.0307688 -9.3314e-20)
(0.339244 0.0212256 1.50228e-19)
(0.237733 0.0147643 1.63102e-19)
(0.15587 0.0106798 -1.14121e-19)
(0.0925014 0.00823992 1.22796e-19)
(0.0462389 0.00672881 -1.28087e-19)
(0.0156096 0.00545176 -6.76435e-20)
(-0.00075974 0.00398924 -2.12147e-19)
(-0.00399153 0.00238878 1.47394e-19)
(2.0066 0.19598 -6.29777e-20)
(1.99633 0.203854 0)
(1.96105 0.204188 9.72937e-20)
(1.89621 0.199638 5.85265e-20)
(1.79844 0.188167 -6.46002e-20)
(1.66871 0.171352 7.83611e-20)
(1.51184 0.15025 -8.63433e-20)
(1.33601 0.127035 1.4849e-19)
(1.15098 0.103696 0)
(0.966351 0.0820127 6.25014e-20)
(0.790181 0.0631876 0)
(0.628338 0.0478416 0)
(0.484441 0.036071 0)
(0.360192 0.0275861 0)
(0.255879 0.0218506 -4.73463e-20)
(0.170867 0.0182004 -5.30949e-20)
(0.104 0.0159299 5.53082e-20)
(0.0538899 0.0143531 5.7632e-20)
(0.0190927 0.0128245 -1.24288e-19)
(-0.00181001 0.0107308 1.30274e-19)
(-0.0100853 0.00769764 3.44859e-20)
(-0.00672637 0.00376791 -2.92063e-20)
(1.99625 0.172502 0)
(1.96638 0.177903 0)
(1.90663 0.175432 -1.4648e-19)
(1.81425 0.168389 5.56344e-20)
(1.68906 0.155303 -6.66724e-20)
(1.53571 0.138358 -7.73915e-20)
(1.36205 0.118885 -1.54951e-21)
(1.17792 0.0989975 6.32365e-22)
(0.993098 0.080291 -5.33266e-20)
(0.81592 0.0639853 0)
(0.652484 0.0507061 0)
(0.506572 0.0405935 0)
(0.379984 0.0334079 0)
(0.273043 0.0286665 8.62762e-20)
(0.185111 0.0257546 9.38221e-20)
(0.115011 0.0240088 -1.49188e-19)
(0.0613313 0.0227706 5.39162e-20)
(0.0226162 0.0214228 -1.70593e-19)
(-0.00253135 0.0193981 1.18411e-19)
(-0.0154236 0.0161627 6.24957e-20)
(-0.0172047 0.011385 0)
(-0.00874643 0.00509971 -2.72237e-20)
(1.96945 0.148826 -5.43348e-21)
(1.91657 0.151848 8.10814e-20)
(1.8297 0.147103 0)
(1.7098 0.138476 5.87594e-20)
(1.56015 0.125079 6.82971e-20)
(1.38878 0.109454 -7.41097e-20)
(1.20543 0.092922 0)
(1.02024 0.0772624 9.58667e-20)
(0.841833 0.0635567 -3.68912e-19)
(0.676625 0.0524746 1.15641e-19)
(0.528599 0.0441778 6.3502e-20)
(0.399659 0.0384754 1.41042e-19)
(0.290161 0.0349342 -1.51614e-19)
(0.199454 0.0329905 0)
(0.126325 0.032027 -4.52061e-20)
(0.0693232 0.0314249 0)
(0.0269632 0.030594 1.02882e-19)
(-0.00216505 0.0289924 -1.08172e-19)
(-0.0193512 0.0261285 -5.66366e-20)
(-0.0257764 0.0215427 -1.5149e-19)
(-0.0224613 0.0149426 1.25242e-19)
(-0.0101728 0.00635463 -5.36171e-20)
(1.92795 0.123003 0)
(1.84752 0.124001 0)
(1.73278 0.11799 0)
(1.58738 0.109171 0)
(1.41821 0.0971773 -6.65603e-20)
(1.23556 0.0844098 7.326e-20)
(1.04967 0.0719747 -8.40894e-20)
(0.869684 0.0611391 9.20261e-20)
(0.702349 0.0524912 -9.18691e-23)
(0.55192 0.0462523 2.26549e-19)
(0.420432 0.0422705 -3.11201e-19)
(0.308285 0.0401682 1.34974e-19)
(0.214806 0.0394342 7.3258e-20)
(0.138733 0.0395011 0)
(0.0785641 0.0397946 1.29484e-19)
(0.0327662 0.0397613 -9.21382e-20)
(-9.94505e-05 0.038885 0)
(-0.0213308 0.0366965 0)
(-0.0320813 0.0327739 1.39087e-21)
(-0.0333951 0.0267255 0)
(-0.0261787 0.0182974 0)
(-0.0111153 0.00751275 -2.65147e-20)
(1.86166 0.0993695 0)
(1.75632 0.0990195 0)
(1.61556 0.0925725 -1.00191e-19)
(1.45003 0.0845869 0)
(1.2684 0.0749054 0)
(1.08202 0.0655943 7.40092e-20)
(0.9003 0.0574648 8.29696e-20)
(0.730589 0.051236 -9.02989e-20)
(0.57746 0.0470874 9.99387e-20)
(0.443166 0.044911 0)
(0.328178 0.0443655 -1.8158e-19)
(0.231824 0.0449872 1.31221e-19)
(0.152795 0.0462545 -7.22273e-20)
(0.089525 0.0476348 -7.79475e-20)
(0.0404258 0.0486104 4.10166e-20)
(0.00401517 0.0486929 4.44502e-20)
(-0.0210288 0.0474313 9.61751e-20)
(-0.0358611 0.0444181 -5.09832e-20)
(-0.0414923 0.0392907 5.43796e-20)
(-0.0388367 0.0317168 5.58457e-20)
(-0.0286998 0.0214785 0)
(-0.0116965 0.00859857 0)
(1.78723 0.0722699 -7.54782e-20)
(1.65145 0.0713979 1.70807e-19)
(1.48902 0.0667967 -2.02974e-21)
(1.30879 0.0608777 5.40195e-20)
(1.12134 0.0550335 1.27997e-19)
(0.937351 0.0501489 -1.43658e-19)
(0.764516 0.0467982 -8.34446e-22)
(0.607942 0.0451511 0)
(0.470133 0.0451059 -9.82239e-20)
(0.351707 0.0463777 -1.07052e-19)
(0.252016 0.0485725 1.1847e-19)
(0.169717 0.0512422 -2.55875e-19)
(0.103172 0.053918 -1.20201e-21)
(0.0507152 0.0561321 7.49357e-20)
(0.0107951 0.0574304 -8.12964e-20)
(-0.017957 0.0573814 8.6762e-20)
(-0.0367188 0.0555845 -1.85483e-19)
(-0.0464973 0.0516777 -4.31396e-22)
(-0.0481659 0.0453438 -5.16273e-20)
(-0.0425196 0.0363009 -5.53464e-20)
(-0.0302766 0.0243675 2.8335e-20)
(-0.0119993 0.00957502 -9.96868e-20)
(1.63711 0.0523943 -8.01456e-20)
(1.47103 0.0489438 -1.86984e-19)
(1.28909 0.0463669 -1.08103e-19)
(1.10232 0.0434803 -6.11477e-20)
(0.919994 0.0418763 6.73376e-20)
(0.749707 0.0414578 0)
(0.595987 0.0424266 -8.45834e-20)
(0.461097 0.044595 -4.44474e-22)
(0.345412 0.047716 -1.02367e-19)
(0.248126 0.0514609 2.22986e-19)
(0.167766 0.0554632 1.21696e-19)
(0.102598 0.0593339 -1.32593e-19)
(0.0508809 0.0626729 7.12141e-20)
(0.0110137 0.0650784 1.5424e-19)
(-0.0184004 0.0661558 8.30044e-20)
(-0.0385441 0.0655293 -4.359e-20)
(-0.0504083 0.062852 0)
(-0.0548295 0.0578189 9.94153e-20)
(-0.0525335 0.0501767 2.09186e-19)
(-0.0441895 0.0397222 -1.08908e-19)
(-0.0304181 0.0263501 -1.1403e-19)
(-0.0117266 0.0101412 9.78454e-20)
(1.38252 0.0303218 0)
(1.19884 0.0293755 9.67527e-20)
(1.01605 0.0312307 1.10035e-19)
(0.84126 0.0327317 -6.27487e-20)
(0.680649 0.0357626 -1.39988e-19)
(0.537535 0.0393734 2.33287e-19)
(0.413212 0.0437375 -8.55654e-20)
(0.307423 0.0485535 9.45366e-20)
(0.218975 0.0536192 0)
(0.146195 0.0586718 -1.13566e-19)
(0.0872677 0.0634301 6.11225e-20)
(0.040448 0.0675871 -1.33985e-19)
(0.0041691 0.0708179 2.8809e-19)
(-0.0229118 0.0727878 -7.43716e-23)
(-0.041914 0.0731649 -8.28558e-20)
(-0.0537591 0.0716339 4.4033e-20)
(-0.0592091 0.0679106 0)
(-0.0589077 0.0617564 -9.90417e-20)
(-0.0534203 0.0529894 -5.23127e-20)
(-0.0432752 0.0414865 0)
(-0.0289686 0.0272158 -2.82804e-20)
(-0.0109172 0.0102902 9.6201e-20)
(1.09742 0.0179951 8.90511e-20)
(0.919038 0.0201547 0)
(0.754828 0.0259373 0)
(0.605177 0.0307239 1.28314e-19)
(0.473917 0.0367291 -7.19566e-20)
(0.360862 0.0426985 7.93915e-20)
(0.265476 0.0488629 -8.72218e-20)
(0.186201 0.0549416 9.64104e-20)
(0.121284 0.060799 1.23937e-22)
(0.0688936 0.0662357 0)
(0.0273285 0.071035 0)
(-0.0049136 0.0749485 0)
(-0.0291065 0.0777041 -2.18204e-19)
(-0.0463025 0.0790154 -3.46964e-22)
(-0.0573586 0.078596 8.31582e-20)
(-0.0629714 0.0761758 -4.63669e-22)
(-0.0637157 0.0715176 -4.661e-20)
(-0.0600797 0.0644324 4.96421e-20)
(-0.0524975 0.0547912 5.12692e-20)
(-0.0413784 0.0425285 -1.07445e-19)
(-0.0271119 0.0276626 8.33474e-20)
(-0.0100354 0.010321 0)
(0.81791 0.0124017 0)
(0.661413 0.0183438 5.30027e-20)
(0.525884 0.0266722 -5.86578e-20)
(0.406303 0.0337006 -6.61089e-20)
(0.305162 0.0412124 7.27897e-20)
(0.220225 0.0482232 8.10132e-20)
(0.15026 0.0549689 -8.86929e-20)
(0.0933034 0.0612738 9.7406e-20)
(0.0476203 0.0670762 -1.06754e-19)
(0.0115656 0.0722431 0)
(-0.0162803 0.0766122 1.26119e-19)
(-0.037119 0.0799791 -1.35729e-19)
(-0.0519391 0.0821079 1.18896e-22)
(-0.0615415 0.0827431 3.91957e-20)
(-0.0665706 0.0816265 0)
(-0.0675472 0.0785156 -4.45374e-20)
(-0.0649012 0.0732011 9.4176e-20)
(-0.0589989 0.065523 -9.81168e-20)
(-0.0501673 0.0553813 -5.16119e-20)
(-0.038715 0.0427419 -1.06522e-19)
(-0.0249383 0.0276469 1.37468e-19)
(-0.00910125 0.0102229 2.30618e-20)
(0.566961 0.0132056 9.55421e-20)
(0.440741 0.0220064 0)
(0.336067 0.0311101 0)
(0.245985 0.039005 6.69739e-20)
(0.171975 0.0466617 -7.41602e-20)
(0.111155 0.0536035 -8.18566e-20)
(0.0622011 0.0600263 -8.99832e-20)
(0.0232602 0.0658644 -4.96138e-20)
(-0.00714443 0.0711021 5.37659e-20)
(-0.0303543 0.0756509 -1.75806e-19)
(-0.0474858 0.0793801 -3.83925e-22)
(-0.0594643 0.0821107 1.36677e-19)
(-0.0670409 0.0836278 -3.69779e-20)
(-0.0708187 0.0836942 7.8798e-20)
(-0.0712812 0.0820693 4.16412e-20)
(-0.0688187 0.0785269 -4.40832e-20)
(-0.063753 0.0728738 4.75776e-22)
(-0.0563585 0.064964 -9.7849e-20)
(-0.0468785 0.0547102 2.03788e-19)
(-0.0355388 0.0420893 -1.05538e-19)
(-0.0225585 0.0271451 0)
(-0.00813784 0.00998507 -3.05362e-22)
(0.356154 0.0174966 -1.46054e-19)
(0.261231 0.0274536 5.43876e-20)
(0.184813 0.0361779 6.09993e-20)
(0.120598 0.0438338 -6.80002e-20)
(0.0692179 0.0507991 7.52778e-20)
(0.0280257 0.0570037 1.66199e-19)
(-0.00416208 0.062605 3.28495e-22)
(-0.0288821 0.067618 -4.99661e-20)
(-0.0473092 0.0720514 -5.44913e-20)
(-0.0604875 0.0758442 -5.90482e-20)
(-0.069273 0.0788842 1.27573e-19)
(-0.0743691 0.0810085 0)
(-0.0763436 0.0820159 -3.70145e-20)
(-0.0756522 0.0816822 3.95291e-20)
(-0.0726598 0.0797785 -1.67422e-19)
(-0.0676616 0.0760893 1.32835e-19)
(-0.0609008 0.0704293 1.62988e-19)
(-0.0525836 0.0626572 -1.215e-19)
(-0.0428896 0.0526857 0)
(-0.0319799 0.0404882 1.04722e-19)
(-0.0200138 0.0260937 -1.07694e-19)
(-0.00714383 0.00957628 7.84829e-20)
(0.186871 0.02265 0)
(0.119882 0.0320999 0)
(0.0673007 0.0397803 -1.23493e-19)
(0.0244011 0.0464863 0)
(-0.00880635 0.0523344 7.57714e-20)
(-0.0344132 0.0574733 -8.35034e-20)
(-0.053414 0.0620407 4.58297e-20)
(-0.0670015 0.0660976 -5.01151e-20)
(-0.076083 0.0696642 -5.4586e-20)
(-0.0814525 0.0726951 -5.92173e-20)
(-0.0837579 0.0750901 6.39757e-20)
(-0.08353 0.0766982 0)
(-0.0811974 0.0773304 1.10845e-19)
(-0.0771051 0.0767751 -3.95016e-20)
(-0.0715308 0.0748146 4.199e-20)
(-0.0647003 0.0712428 1.32311e-19)
(-0.0568002 0.0658799 -9.29022e-20)
(-0.0479879 0.0585848 2.43311e-20)
(-0.0383976 0.0492645 2.50357e-20)
(-0.0281432 0.0378803 0)
(-0.0173433 0.0244369 0)
(-0.00612209 0.00896618 -1.11415e-20)
(0.0554031 0.0266011 4.95941e-20)
(0.0115055 0.0344573 5.61463e-20)
(-0.0217817 0.0407234 -6.18244e-20)
(-0.0476903 0.04614 1.38404e-19)
(-0.0665786 0.050736 -1.53003e-19)
(-0.0799847 0.0547277 1.26511e-19)
(-0.088721 0.0582416 -2.34324e-22)
(-0.0936806 0.0613573 5.06654e-20)
(-0.0955504 0.0640996 5.51613e-20)
(-0.0949225 0.0664333 5.98117e-20)
(-0.0922798 0.0682682 -9.6915e-20)
(-0.0880175 0.0694662 3.44174e-20)
(-0.0824564 0.069853 3.6866e-20)
(-0.0758567 0.0692318 -3.95733e-20)
(-0.0684303 0.0673996 0)
(-0.0603522 0.0641622 -1.32373e-19)
(-0.0517685 0.0593476 6.92168e-20)
(-0.0428038 0.0528157 0)
(-0.0335622 0.0444676 9.97455e-20)
(-0.0241274 0.0342509 -1.03155e-19)
(-0.014596 0.0221431 0)
(-0.00508382 0.0081331 1.08747e-20)
(-0.0429871 0.0281659 5.05038e-20)
(-0.0685037 0.0340249 -5.59876e-20)
(-0.0865421 0.0387308 1.25721e-19)
(-0.0992114 0.0427681 -6.93589e-20)
(-0.107022 0.0461378 -7.67267e-20)
(-0.111067 0.0490378 -2.13709e-22)
(-0.111989 0.0515802 -1.39631e-19)
(-0.110438 0.0538438 5.03603e-20)
(-0.106918 0.0558542 1.65613e-19)
(-0.101859 0.0575828 -5.97866e-20)
(-0.0956079 0.0589508 -9.69857e-20)
(-0.0884524 0.0598352 3.45364e-20)
(-0.0806263 0.0600798 -7.41794e-20)
(-0.072323 0.0595077 7.88692e-20)
(-0.0637036 0.0579353 -8.35357e-20)
(-0.0549049 0.0551855 1.75935e-19)
(-0.0460449 0.051099 -9.21666e-20)
(-0.0372268 0.0455431 -9.59739e-20)
(-0.028538 0.0384178 1.49156e-19)
(-0.0200461 0.0296615 -1.29031e-20)
(-0.0118424 0.0192296 -1.04979e-19)
(-0.00405218 0.00707368 -9.71874e-20)
(-0.111853 0.026907 0)
(-0.123144 0.0308528 -3.69125e-22)
(-0.129466 0.0340673 6.27092e-20)
(-0.132155 0.0368112 0)
(-0.131715 0.0390797 -7.74044e-20)
(-0.128899 0.0410211 4.22266e-20)
(-0.124186 0.0427267 4.6541e-20)
(-0.118029 0.0442638 -2.56313e-20)
(-0.11078 0.0456549 0)
(-0.102731 0.0468773 2.99594e-20)
(-0.0941217 0.0478647 0)
(-0.0851477 0.0485122 -6.95178e-20)
(-0.0759735 0.0486858 1.48472e-19)
(-0.0667386 0.048233 -7.8913e-20)
(-0.057564 0.0469945 0)
(-0.0485575 0.0448164 0)
(-0.0398166 0.0415594 -9.19293e-20)
(-0.0314316 0.0371055 9.57495e-20)
(-0.0234817 0.0313636 2.48379e-20)
(-0.0160293 0.0242732 1.27804e-20)
(-0.00917291 0.0157787 0)
(-0.00306075 0.00580921 -8.54903e-20)
(-0.153029 0.0230651 1.52138e-22)
(-0.153868 0.0254317 -5.68125e-20)
(-0.151723 0.0273836 0)
(-0.147415 0.0290377 7.02915e-20)
(-0.141343 0.0303944 -3.85918e-20)
(-0.133997 0.0315524 -1.51114e-22)
(-0.125703 0.03258 2.31838e-20)
(-0.116751 0.0335288 -2.55965e-20)
(-0.107362 0.0344168 -2.77605e-20)
(-0.0977179 0.0352267 -3.01441e-20)
(-0.0879655 0.0359061 0)
(-0.0782285 0.0363712 -1.73928e-20)
(-0.0686146 0.0365134 -1.85749e-20)
(-0.0592203 0.0362083 -9.87652e-20)
(-0.0501353 0.0353252 1.04397e-19)
(-0.0414448 0.0337379 0)
(-0.0332305 0.0313326 0)
(-0.0255734 0.0280143 0)
(-0.0185481 0.0237113 0)
(-0.0122174 0.0183775 0)
(-0.00669258 0.0119635 -1.03635e-19)
(-0.0021513 0.00439715 8.49863e-20)
(-0.167018 0.0172871 -3.79196e-22)
(-0.16108 0.0184978 0)
(-0.153663 0.0195034 3.16196e-20)
(-0.145254 0.02034 1.447e-22)
(-0.136104 0.0210161 -3.87056e-20)
(-0.1265 0.0215922 -4.26565e-20)
(-0.116633 0.0221151 -7.03415e-20)
(-0.10666 0.0226207 -7.69722e-20)
(-0.0966964 0.0231222 2.77594e-20)
(-0.0868336 0.0236084 1.05644e-19)
(-0.0771466 0.024042 1.63739e-20)
(-0.0677018 0.0243625 -3.48417e-20)
(-0.0585628 0.0244895 3.72794e-20)
(-0.0497936 0.0243292 1.98064e-20)
(-0.04146 0.023782 -1.04564e-19)
(-0.0336297 0.0227512 8.79227e-20)
(-0.026372 0.0211509 1.14876e-20)
(-0.0197584 0.0189132 8.35e-20)
(-0.013858 0.0159933 -8.64259e-20)
(-0.00873175 0.0123717 -6.33949e-21)
(-0.00449944 0.00802714 0)
(-0.00136417 0.00291751 0)
(-0.153794 0.0107433 -2.56063e-20)
(-0.144814 0.0112191 2.83448e-20)
(-0.135372 0.0116125 -1.5777e-20)
(-0.125754 0.0119198 1.60221e-22)
(-0.116068 0.0121556 3.91041e-20)
(-0.106455 0.0123534 2.1521e-22)
(-0.096995 0.0125422 -4.7008e-20)
(-0.087749 0.0127442 7.72844e-20)
(-0.0787538 0.0129687 -5.588e-20)
(-0.0700353 0.0132106 1.51506e-20)
(-0.0616156 0.0134488 -1.63267e-20)
(-0.0535193 0.0136466 -2.62698e-20)
(-0.0457774 0.0137535 -9.34714e-20)
(-0.0384298 0.0137081 7.93618e-20)
(-0.0315249 0.0134427 0)
(-0.0251175 0.0128899 0)
(-0.0192671 0.0119898 2.87404e-20)
(-0.0140355 0.010698 1.18977e-20)
(-0.00948209 0.00899403 -6.24222e-21)
(-0.00565863 0.00688748 -4.44387e-20)
(-0.00267585 0.00439703 0)
(-0.000738328 0.00153906 -2.64073e-21)
(-0.113402 0.00451397 2.53916e-20)
(-0.105172 0.00461382 0)
(-0.0969814 0.00468016 1.5929e-20)
(-0.0890262 0.00470839 8.84612e-21)
(-0.0813105 0.00471373 0)
(-0.0738855 0.00471279 -1.07824e-20)
(-0.0667617 0.00471901 5.91521e-21)
(-0.0599415 0.00474265 -6.46261e-21)
(-0.0534161 0.00478892 5.62365e-20)
(-0.0471736 0.00485719 -6.07175e-20)
(-0.0412049 0.0049403 0)
(-0.0355079 0.00502407 8.78045e-21)
(-0.0300914 0.00508714 -4.22057e-20)
(-0.0249765 0.00510134 3.48074e-20)
(-0.0201966 0.00503289 4.2036e-20)
(-0.0157953 0.00484479 -1.71854e-23)
(-0.0118231 0.00450119 -4.03753e-20)
(-0.00833361 0.00397399 0)
(-0.0053759 0.00325382 -6.18176e-21)
(-0.00298619 0.00236275 0)
(-0.00123743 0.00135543 -3.25178e-21)
(-0.000285883 0.000342046 2.63666e-21)
(-0.0464242 0.000578528 2.51123e-20)
(-0.0426185 0.000578163 -2.75151e-20)
(-0.0388792 0.00056939 0)
(-0.0353538 0.000551397 -8.85885e-21)
(-0.0320147 0.00053102 -1.90384e-20)
(-0.0288749 0.000512339 3.12261e-20)
(-0.025923 0.00049813 -5.88249e-21)
(-0.0231459 0.000490581 -1.88325e-20)
(-0.020526 0.000491255 2.70926e-20)
(-0.0180452 0.000501092 2.92592e-20)
(-0.0156877 0.000520201 -3.14012e-20)
(-0.0134415 0.000547529 0)
(-0.0113012 0.000580409 4.47634e-21)
(-0.00926953 0.000613997 4.70975e-21)
(-0.00735818 0.000640708 -4.01611e-20)
(-0.0055888 0.000649861 4.21401e-20)
(-0.00399234 0.000627954 -2.14943e-23)
(-0.00260768 0.000560404 0)
(-0.00147691 0.000436488 0)
(-0.000635907 0.000258261 4.85079e-20)
(-0.000121132 5.2482e-05 3.01323e-21)
(2.00463e-05 -9.23256e-05 -2.53424e-23)
(1.13618 0.0231122 -8.21647e-22)
(1.09011 0.0246914 7.60129e-20)
(1.04201 0.0263189 -2.15292e-20)
(0.991759 0.0279964 2.55275e-20)
(0.939471 0.0297291 2.93917e-20)
(0.885231 0.0315237 -3.17511e-20)
(0.829132 0.0333828 0)
(0.77128 0.0353076 -4.12565e-20)
(0.711794 0.0372973 2.21261e-20)
(0.650803 0.0393494 0)
(0.588451 0.0414563 2.73826e-20)
(0.524906 0.0435954 1.49414e-20)
(0.460383 0.0457075 -3.2832e-20)
(0.395215 0.0476605 3.48003e-20)
(0.329955 0.04921 1.86421e-20)
(0.265504 0.0499728 -3.99534e-20)
(0.203228 0.0494383 4.17255e-20)
(0.145011 0.0470187 -3.28988e-20)
(0.0931149 0.042138 3.4079e-20)
(0.0499406 0.034329 0)
(0.0187274 0.0232907 1.20805e-20)
(0.00351374 0.00893523 -4.95993e-21)
(1.14055 0.0790994 5.99335e-22)
(1.09493 0.0847948 -1.75264e-20)
(1.04743 0.0907655 -4.27479e-20)
(0.997758 0.0969815 0)
(0.94605 0.103436 -2.83954e-20)
(0.892392 0.110132 0)
(0.836876 0.117067 0)
(0.779609 0.124235 8.1817e-20)
(0.720708 0.131627 -6.60636e-20)
(0.660305 0.139229 0)
(0.598541 0.147008 2.77145e-20)
(0.535578 0.154877 -4.44321e-20)
(0.471619 0.162614 9.6924e-20)
(0.406965 0.16973 -3.45776e-20)
(0.342111 0.175337 5.59448e-20)
(0.277868 0.178062 -1.17185e-19)
(0.21548 0.176093 -8.31938e-20)
(0.156689 0.167366 9.73418e-20)
(0.103614 0.149873 5.68547e-20)
(0.0585299 0.121997 -9.30198e-20)
(0.0245896 0.0827174 -8.49074e-20)
(0.00579024 0.0317569 4.60964e-21)
(1.14918 0.135097 1.28633e-19)
(1.10452 0.144925 2.94748e-21)
(1.05825 0.155162 -8.66255e-20)
(1.00976 0.165799 1.9229e-19)
(0.959223 0.176825 -5.47737e-20)
(0.906749 0.188251 0)
(0.852425 0.200075 -6.96734e-20)
(0.796359 0.212291 0)
(0.738672 0.224885 8.90234e-20)
(0.679491 0.237836 -1.43901e-19)
(0.618955 0.25109 0)
(0.557213 0.264499 -2.94058e-20)
(0.494439 0.27768 -3.1868e-20)
(0.430868 0.2898 1.02249e-19)
(0.366874 0.299337 -2.89711e-19)
(0.303081 0.303945 1.91774e-19)
(0.240481 0.300527 0)
(0.180524 0.285569 1.69713e-19)
(0.125038 0.255657 -1.53183e-19)
(0.0760513 0.208049 -2.23113e-20)
(0.0365421 0.141026 -2.37259e-20)
(0.0104302 0.0541364 9.5938e-20)
(1.16116 0.188361 4.76713e-21)
(1.11803 0.202201 -1.42078e-19)
(1.07372 0.216564 -2.43981e-21)
(1.02708 0.231502 -2.84662e-21)
(0.978383 0.246992 -5.50205e-20)
(0.927751 0.263045 1.19958e-19)
(0.875268 0.279659 2.20816e-21)
(0.821049 0.296823 0)
(0.765216 0.314522 1.72398e-19)
(0.707897 0.332722 -1.38264e-19)
(0.649227 0.351349 1.01117e-19)
(0.58934 0.370197 0)
(0.528366 0.388726 5.95906e-20)
(0.46644 0.405763 1.31707e-19)
(0.403758 0.419168 -7.07367e-20)
(0.340661 0.425642 0)
(0.277765 0.420843 -3.79834e-20)
(0.216085 0.399847 1.63239e-19)
(0.157012 0.357888 -2.1002e-19)
(0.102206 0.29116 -1.53304e-19)
(0.0543857 0.197297 -1.51472e-21)
(0.0173548 0.0757087 -1.53119e-21)
(1.17645 0.239027 2.354e-19)
(1.13538 0.25675 -1.42091e-19)
(1.09366 0.27504 7.57401e-20)
(1.04947 0.294075 -3.56344e-21)
(1.00322 0.313812 0)
(0.955028 0.334266 0)
(0.904987 0.355437 1.95376e-19)
(0.853219 0.377315 1.43369e-19)
(0.799848 0.399878 0)
(0.745003 0.423089 0)
(0.688813 0.446854 -2.99899e-19)
(0.631392 0.47091 1.08531e-19)
(0.572812 0.494569 -5.94152e-20)
(0.513081 0.516333 2.5074e-19)
(0.452153 0.533462 -3.97292e-19)
(0.389996 0.54174 -6.81994e-20)
(0.32673 0.535621 3.79195e-20)
(0.262796 0.508834 -7.47058e-20)
(0.199014 0.455331 2.41071e-21)
(0.136559 0.370313 1.26323e-19)
(0.0778188 0.250835 -2.11632e-19)
(0.0264428 0.0962071 -1.81008e-20)
(1.19462 0.285806 -5.23676e-21)
(1.15615 0.307239 1.35849e-19)
(1.11763 0.329218 -6.60118e-21)
(1.07648 0.352119 8.19974e-20)
(1.03325 0.375864 9.58479e-20)
(0.988083 0.400472 1.08091e-19)
(0.941064 0.425947 1.25077e-19)
(0.892323 0.452277 -5.52646e-19)
(0.841991 0.479442 -1.49797e-19)
(0.790197 0.507399 2.5422e-19)
(0.737066 0.536037 -2.74843e-19)
(0.682687 0.565043 1.04133e-19)
(0.627064 0.593593 0)
(0.570045 0.619878 -3.4843e-19)
(0.511292 0.640592 2.52724e-19)
(0.450314 0.650641 2.6854e-19)
(0.386616 0.643332 7.95353e-22)
(0.319932 0.611115 -5.02027e-19)
(0.250386 0.546741 3.7777e-20)
(0.178569 0.444505 7.5439e-20)
(0.106464 0.300958 3.59047e-19)
(0.037542 0.115366 1.00217e-19)
(1.21523 0.328122 -1.10982e-19)
(1.17986 0.353035 -1.27892e-19)
(1.14511 0.378407 -6.12163e-21)
(1.10751 0.404879 1.66133e-19)
(1.06783 0.432332 -4.57095e-19)
(1.02621 0.46079 -6.27071e-21)
(0.98273 0.490261 -1.23714e-19)
(0.937547 0.520736 5.29506e-19)
(0.890789 0.55219 2.93975e-19)
(0.842589 0.584577 -3.96651e-19)
(0.793066 0.617775 6.13753e-21)
(0.742281 0.651426 1.89348e-19)
(0.690157 0.684582 9.91873e-20)
(0.63636 0.71515 -2.17197e-19)
(0.580205 0.739294 5.2031e-19)
(0.520658 0.751094 -4.22146e-19)
(0.456502 0.742773 3.14592e-19)
(0.386638 0.705577 0)
(0.310373 0.631146 0)
(0.227621 0.512957 -2.53834e-19)
(0.139905 0.347148 6.19392e-19)
(0.0504877 0.132993 -2.09323e-19)
(1.23761 0.365276 0)
(1.20583 0.393425 1.19507e-19)
(1.17536 0.421875 1.33935e-19)
(1.14182 0.451597 -1.42565e-19)
(1.10618 0.482413 8.0367e-21)
(1.06859 0.514358 9.6166e-20)
(1.02914 0.54745 -3.26525e-19)
(0.987996 0.58168 2.40866e-19)
(0.945291 0.617031 -2.66152e-19)
(0.901163 0.653458 -1.54339e-19)
(0.855729 0.69083 5.52456e-19)
(0.809024 0.728758 2.55679e-19)
(0.760886 0.766188 -1.9322e-19)
(0.710776 0.800776 -1.03386e-19)
(0.657622 0.828198 0)
(0.599772 0.841765 0)
(0.53518 0.832684 -6.03108e-20)
(0.461796 0.791078 0)
(0.377995 0.70756 0)
(0.282931 0.574888 1.87536e-19)
(0.177613 0.388878 -3.23357e-20)
(0.0650724 0.148885 1.1836e-21)
(1.26101 0.396702 3.67053e-19)
(1.23329 0.427758 0)
(1.20751 0.458917 -1.28285e-19)
(1.17841 0.491533 1.45694e-19)
(1.14722 0.525361 -1.6074e-19)
(1.11406 0.560444 1.66845e-19)
(1.07907 0.596806 -4.07122e-21)
(1.0424 0.634438 1.03613e-19)
(1.0042 0.673324 -1.17833e-19)
(0.964612 0.713418 2.65801e-19)
(0.923751 0.754586 -4.38907e-19)
(0.881621 0.796414 -3.93848e-19)
(0.83797 0.837767 4.12098e-19)
(0.792037 0.876084 -4.90979e-22)
(0.742321 0.90661 -1.869e-19)
(0.686484 0.921953 1.94047e-19)
(0.62155 0.912379 -2.03337e-19)
(0.544404 0.866971 0)
(0.452384 0.775408 2.15397e-19)
(0.343807 0.62983 -1.70939e-19)
(0.219126 0.425832 2.30583e-19)
(0.0811167 0.16293 -1.90677e-19)
(1.28453 0.422245 -7.53527e-21)
(1.26135 0.455923 -3.95711e-19)
(1.24069 0.48944 2.24226e-19)
(1.21645 0.524552 1.30189e-19)
(1.1901 0.560941 -2.89307e-19)
(1.16175 0.598676 -8.73884e-21)
(1.13155 0.637797 0)
(1.09967 0.67831 -2.00338e-19)
(1.0663 0.720207 3.21129e-19)
(1.03157 0.763451 2.51345e-19)
(0.995615 0.807915 -2.57212e-19)
(0.958407 0.853175 -2.76266e-19)
(0.919613 0.898039 3.64191e-19)
(0.878252 0.939776 -3.09118e-19)
(0.832369 0.973257 3.27291e-19)
(0.778883 0.990449 7.81637e-20)
(0.713798 0.980748 -8.01886e-20)
(0.632816 0.932267 0)
(0.532127 0.833844 -4.1819e-20)
(0.40914 0.677101 -5.12539e-20)
(0.26371 0.457535 2.39608e-19)
(0.0983348 0.174933 -1.62472e-19)
(1.30728 0.44142 1.51412e-19)
(1.289 0.477271 1.90079e-19)
(1.27364 0.512759 0)
(1.25448 0.550038 1.11439e-19)
(1.23324 0.588692 0)
(1.21002 0.628792 0)
(1.18496 0.670378 -1.62361e-19)
(1.15828 0.713453 8.39371e-21)
(1.13015 0.758017 -1.02522e-19)
(1.10072 0.804036 1.11516e-19)
(1.07011 0.851391 0)
(1.03828 0.899657 2.40206e-19)
(1.00483 0.94761 -4.43731e-19)
(0.968525 0.992391 0)
(0.926942 1.02856 2.73556e-19)
(0.876195 1.04753 -3.66128e-19)
(0.811176 1.03791 -6.37121e-20)
(0.726309 0.986957 1.49794e-19)
(0.616551 0.882767 1.90915e-19)
(0.478352 0.716559 -1.54438e-19)
(0.310956 0.483859 -2.03068e-19)
(0.116563 0.184851 1.32927e-19)
(1.32834 0.454966 -3.18941e-21)
(1.31555 0.492766 -3.9428e-21)
(1.30587 0.529807 0)
(1.29213 0.568694 -1.09752e-19)
(1.2762 0.608973 1.17788e-19)
(1.25823 0.650759 -5.73409e-21)
(1.2384 0.694117 0)
(1.21697 0.739067 3.13722e-19)
(1.19412 0.78562 -1.69705e-19)
(1.17005 0.833757 1.83581e-19)
(1.14486 0.883374 0)
(1.11855 0.934072 -2.04327e-19)
(1.09061 0.98463 2.22171e-19)
(1.05963 1.03212 4.46542e-19)
(1.02272 1.07086 -1.8124e-19)
(0.975153 1.09177 -2.78137e-19)
(0.910647 1.08272 1.86582e-19)
(0.822213 1.03014 0)
(0.703446 0.921459 1.15168e-19)
(0.54976 0.747614 -2.36915e-19)
(0.359771 0.504353 1.21224e-19)
(0.13538 0.19248 -1.03005e-19)
(1.34675 0.461741 0)
(1.33954 0.501023 -1.3137e-20)
(1.33544 0.539496 0)
(1.3273 0.579956 9.41527e-20)
(1.31701 0.621838 -1.03417e-19)
(1.30468 0.665258 -1.21271e-19)
(1.29052 0.710287 1.18595e-19)
(1.2748 0.756956 -1.53272e-19)