/*--------------------------------*- C++ -*----------------------------------*\
| =========                 |                                                 |
| \\      /  F ield         | OpenFOAM Extend Project: Open source CFD        |
|  \\    /   O peration     | Version:  1.6-ext                               |
|   \\  /    A nd           | Web:      www.extend-project.de                 |
|    \\/     M anipulation  |                                                 |
\*---------------------------------------------------------------------------*/
FoamFile
{
    version     2.0;
    format      ascii;
    class       volScalarField::DimensionedInternalField;
    location    "0.8";
    object      V0;
}
// * * * * * * * * * * * * * * * * * * * * * * * * * * * * * * * * * * * * * //

dimensions      [0 3 0 0 0 0 0];

value           nonuniform List<scalar> 
20940
(
1.17122e-06
1.03819e-06
9.21142e-07
8.18097e-07
7.27315e-07
6.47279e-07
5.76664e-07
5.14312e-07
4.59212e-07
4.1048e-07
3.67343e-07
3.29124e-07
2.95231e-07
2.65145e-07
2.38413e-07
2.14635e-07
1.93464e-07
1.7459e-07
1.57748e-07
1.42701e-07
1.29242e-07
1.1719e-07
1.17139e-06
1.03833e-06
9.21271e-07
8.18211e-07
7.27418e-07
6.47372e-07
5.76751e-07
5.14394e-07
4.59291e-07
4.10555e-07
3.67414e-07
3.29189e-07
2.95291e-07
2.65199e-07
2.38462e-07
2.1468e-07
1.93504e-07
1.74629e-07
1.57786e-07
1.42738e-07
1.29278e-07
1.17226e-07
1.17397e-06
1.04062e-06
9.233e-07
8.20014e-07
7.29022e-07
6.48802e-07
5.78027e-07
5.15536e-07
4.60314e-07
4.11475e-07
3.68242e-07
3.29937e-07
2.95965e-07
2.65808e-07
2.3901e-07
2.15174e-07
1.9395e-07
1.75033e-07
1.58152e-07
1.43072e-07
1.29585e-07
1.17507e-07
1.17824e-06
1.04441e-06
9.26661e-07
8.23001e-07
7.3168e-07
6.5117e-07
5.8014e-07
5.17422e-07
4.62001e-07
4.12986e-07
3.69598e-07
3.31155e-07
2.97063e-07
2.66798e-07
2.39905e-07
2.15982e-07
1.9468e-07
1.75692e-07
1.58749e-07
1.43613e-07
1.30077e-07
1.17957e-07
1.1835e-06
1.0491e-06
9.30859e-07
8.26762e-07
7.35055e-07
6.54204e-07
5.8287e-07
5.19883e-07
4.64221e-07
4.1499e-07
3.7141e-07
3.32797e-07
2.98552e-07
2.68151e-07
2.41137e-07
2.17105e-07
1.95705e-07
1.76628e-07
1.59603e-07
1.44392e-07
1.30789e-07
1.18608e-07
1.19033e-06
1.05522e-06
9.36342e-07
8.31685e-07
7.39483e-07
6.58194e-07
5.86473e-07
5.23142e-07
4.67172e-07
4.17667e-07
3.7384e-07
3.35004e-07
3.00559e-07
2.6998e-07
2.42804e-07
2.18629e-07
1.97099e-07
1.77904e-07
1.60772e-07
1.45463e-07
1.31769e-07
1.19505e-07
1.19869e-06
1.06274e-06
9.43123e-07
8.37796e-07
7.44994e-07
6.63172e-07
5.90976e-07
5.27225e-07
4.70883e-07
4.21045e-07
3.7692e-07
3.37816e-07
3.03128e-07
2.72329e-07
2.44953e-07
2.20597e-07
1.98903e-07
1.7956e-07
1.62293e-07
1.46861e-07
1.33054e-07
1.20686e-07
1.2086e-06
1.07172e-06
9.51252e-07
8.45166e-07
7.51678e-07
6.69235e-07
5.96479e-07
5.32223e-07
4.7543e-07
4.2519e-07
3.80707e-07
3.41282e-07
3.06305e-07
2.75243e-07
2.47629e-07
2.23055e-07
2.01162e-07
1.81638e-07
1.64206e-07
1.48624e-07
1.34681e-07
1.22188e-07
1.21997e-06
1.08206e-06
9.60675e-07
8.53763e-07
7.5953e-07
6.76409e-07
6.03034e-07
5.38211e-07
4.80899e-07
4.30186e-07
3.85275e-07
3.45466e-07
3.10146e-07
2.78774e-07
2.5088e-07
2.26051e-07
2.03926e-07
1.84187e-07
1.6656e-07
1.50799e-07
1.36692e-07
1.2405e-07
1.23273e-06
1.09371e-06
9.71336e-07
8.63529e-07
7.68491e-07
6.84643e-07
6.10608e-07
5.45182e-07
4.87314e-07
4.36086e-07
3.90699e-07
3.5045e-07
3.14726e-07
2.8299e-07
2.54767e-07
2.2964e-07
2.07244e-07
1.87259e-07
1.69403e-07
1.53433e-07
1.39132e-07
1.26311e-07
1.24669e-06
1.10654e-06
9.8313e-07
8.74382e-07
7.78486e-07
6.93861e-07
6.1912e-07
5.53054e-07
4.94602e-07
4.42838e-07
3.96954e-07
3.56241e-07
3.20083e-07
2.87941e-07
2.59342e-07
2.33871e-07
2.11161e-07
1.90889e-07
1.72771e-07
1.56559e-07
1.42034e-07
1.29005e-07
1.2623e-06
1.12095e-06
9.96432e-07
8.86665e-07
7.8983e-07
7.04341e-07
6.28808e-07
5.62018e-07
5.02906e-07
4.50541e-07
4.04107e-07
3.62891e-07
3.26265e-07
2.93685e-07
2.64673e-07
2.38812e-07
2.1574e-07
1.95133e-07
1.76709e-07
1.60215e-07
1.45432e-07
1.32164e-07
1.27875e-06
1.13625e-06
1.01067e-06
8.99915e-07
8.02159e-07
7.15809e-07
6.3947e-07
5.71928e-07
5.12116e-07
4.59104e-07
4.12074e-07
3.7031e-07
3.33183e-07
3.0014e-07
2.70697e-07
2.44431e-07
2.20974e-07
2.00004e-07
1.81238e-07
1.64428e-07
1.49352e-07
1.35814e-07
1.29606e-06
1.15246e-06
1.02585e-06
9.14124e-07
8.15463e-07
7.28264e-07
6.51127e-07
5.8283e-07
5.22303e-07
4.68613e-07
4.20947e-07
3.78586e-07
3.40905e-07
3.07349e-07
2.77435e-07
2.50733e-07
2.26869e-07
2.05515e-07
1.86385e-07
1.69229e-07
1.53827e-07
1.39986e-07
1.31401e-06
1.1694e-06
1.04182e-06
9.29163e-07
8.29616e-07
7.41581e-07
6.63653e-07
5.94608e-07
5.33377e-07
4.79015e-07
4.30707e-07
3.87732e-07
3.49465e-07
3.15357e-07
2.84924e-07
2.5774e-07
2.3343e-07
2.11662e-07
1.92144e-07
1.74621e-07
1.5887e-07
1.44695e-07
1.24237e-06
1.10827e-06
9.89776e-07
8.84968e-07
7.92187e-07
7.09979e-07
6.3707e-07
5.72345e-07
5.14828e-07
4.6366e-07
4.18088e-07
3.77453e-07
3.41177e-07
3.08758e-07
2.79751e-07
2.53771e-07
2.30477e-07
2.09565e-07
1.90768e-07
1.73848e-07
1.58598e-07
1.44833e-07
1.21929e-06
1.08717e-06
9.70446e-07
8.6725e-07
7.75931e-07
6.95047e-07
6.23337e-07
5.59703e-07
5.0318e-07
4.52921e-07
4.08185e-07
3.68318e-07
3.3275e-07
3.00976e-07
2.7256e-07
2.47117e-07
2.24311e-07
2.03846e-07
1.85461e-07
1.68924e-07
1.54032e-07
1.40602e-07
1.19733e-06
1.06713e-06
9.52143e-07
8.50514e-07
7.60615e-07
6.81017e-07
6.10474e-07
5.47894e-07
4.92323e-07
4.42929e-07
3.98979e-07
3.59832e-07
3.24924e-07
2.93759e-07
2.65902e-07
2.40971e-07
2.18632e-07
1.98591e-07
1.80593e-07
1.64411e-07
1.49846e-07
1.3672e-07
1.17662e-06
1.04828e-06
9.34966e-07
8.34847e-07
7.46306e-07
6.67937e-07
5.98507e-07
5.36936e-07
4.82278e-07
4.33708e-07
3.90504e-07
3.52034e-07
3.17741e-07
2.87138e-07
2.59797e-07
2.35342e-07
2.13439e-07
1.938e-07
1.76167e-07
1.60317e-07
1.46054e-07
1.33204e-07
1.15732e-06
1.03075e-06
9.19024e-07
8.20335e-07
7.33081e-07
6.5587e-07
5.87482e-07
5.26855e-07
4.73055e-07
4.25262e-07
3.82761e-07
3.44926e-07
3.11209e-07
2.81128e-07
2.54263e-07
2.3024e-07
2.08736e-07
1.89462e-07
1.72166e-07
1.56625e-07
1.42642e-07
1.30047e-07
1.1392e-06
1.01435e-06
9.04163e-07
8.06848e-07
7.20828e-07
6.44723e-07
5.77331e-07
5.17598e-07
4.64603e-07
4.17538e-07
3.75697e-07
3.3846e-07
3.05284e-07
2.75694e-07
2.49271e-07
2.25651e-07
2.0451e-07
1.85568e-07
1.68575e-07
1.53314e-07
1.39589e-07
1.27231e-07
1.12311e-06
9.99787e-07
8.90974e-07
7.94886e-07
7.09965e-07
6.34848e-07
5.68343e-07
5.09407e-07
4.57128e-07
4.1071e-07
3.69453e-07
3.32744e-07
3.00047e-07
2.70891e-07
2.44863e-07
2.21601e-07
2.00786e-07
1.82139e-07
1.65415e-07
1.50396e-07
1.36896e-07
1.24744e-07
1.10842e-06
9.86533e-07
8.79001e-07
7.84058e-07
7.0016e-07
6.25957e-07
5.6027e-07
5.02068e-07
4.50449e-07
4.04624e-07
3.639e-07
3.27672e-07
2.95409e-07
2.66647e-07
2.40975e-07
2.18036e-07
1.97514e-07
1.79135e-07
1.62652e-07
1.47854e-07
1.34551e-07
1.2258e-07
1.09535e-06
9.74764e-07
8.68389e-07
7.74479e-07
6.915e-07
6.1812e-07
5.53169e-07
4.95625e-07
4.44598e-07
3.99301e-07
3.59052e-07
3.23253e-07
2.91375e-07
2.62959e-07
2.37602e-07
2.14947e-07
1.94684e-07
1.76537e-07
1.60268e-07
1.45662e-07
1.32536e-07
1.20724e-07
1.0839e-06
9.6447e-07
8.59126e-07
7.6613e-07
6.83968e-07
6.11314e-07
5.47014e-07
4.90052e-07
4.39542e-07
3.94712e-07
3.54881e-07
3.19456e-07
2.87915e-07
2.59803e-07
2.34718e-07
2.12309e-07
1.92269e-07
1.74325e-07
1.58239e-07
1.43801e-07
1.30826e-07
1.19153e-07
1.07403e-06
9.5562e-07
8.51175e-07
7.58979e-07
6.77528e-07
6.05508e-07
5.41771e-07
4.85312e-07
4.35252e-07
3.90823e-07
3.51352e-07
3.16248e-07
2.84997e-07
2.57144e-07
2.32293e-07
2.10095e-07
1.90245e-07
1.72473e-07
1.56543e-07
1.42247e-07
1.294e-07
1.17843e-07
1.06571e-06
9.48158e-07
8.44484e-07
7.52971e-07
6.72126e-07
6.00647e-07
5.3739e-07
4.81358e-07
4.3168e-07
3.8759e-07
3.48423e-07
3.13591e-07
2.82583e-07
2.54948e-07
2.30294e-07
2.08272e-07
1.88581e-07
1.70951e-07
1.55151e-07
1.40972e-07
1.28233e-07
1.16772e-07
1.05885e-06
9.4203e-07
8.38995e-07
7.48049e-07
6.67707e-07
5.96674e-07
5.33813e-07
4.78135e-07
4.28772e-07
3.84964e-07
3.46047e-07
3.1144e-07
2.80632e-07
2.53177e-07
2.28682e-07
2.06805e-07
1.87242e-07
1.6973e-07
1.54033e-07
1.39949e-07
1.27296e-07
1.15916e-07
1.05347e-06
9.37219e-07
8.34685e-07
7.44184e-07
6.64239e-07
5.93557e-07
5.31009e-07
4.7561e-07
4.26495e-07
3.82909e-07
3.44191e-07
3.0976e-07
2.7911e-07
2.51795e-07
2.27427e-07
2.05662e-07
1.86201e-07
1.68779e-07
1.53164e-07
1.39151e-07
1.26561e-07
1.15237e-07
1.04912e-06
9.33359e-07
8.31251e-07
7.41127e-07
6.61514e-07
5.91124e-07
5.28834e-07
4.73662e-07
4.24748e-07
3.81339e-07
3.42778e-07
3.08486e-07
2.7796e-07
2.50757e-07
2.26487e-07
2.0481e-07
1.85427e-07
1.68076e-07
1.52523e-07
1.38567e-07
1.26026e-07
1.14691e-07
1.17427e-06
1.04681e-06
9.34195e-07
8.3462e-07
7.46499e-07
6.68447e-07
5.9925e-07
5.37846e-07
4.83305e-07
4.34812e-07
3.91652e-07
3.53199e-07
3.18902e-07
2.88279e-07
2.60905e-07
2.36408e-07
2.14461e-07
1.94774e-07
1.77095e-07
1.612e-07
1.46892e-07
1.33996e-07
1.17456e-06
1.04708e-06
9.34454e-07
8.34863e-07
7.46727e-07
6.6866e-07
5.99449e-07
5.38032e-07
4.83479e-07
4.34975e-07
3.91805e-07
3.53341e-07
3.19035e-07
2.88403e-07
2.61021e-07
2.36516e-07
2.14562e-07
1.94869e-07
1.77184e-07
1.61283e-07
1.46968e-07
1.34069e-07
1.17731e-06
1.04956e-06
9.36685e-07
8.36877e-07
7.48547e-07
6.70307e-07
6.00941e-07
5.39386e-07
4.84709e-07
4.36093e-07
3.92822e-07
3.54268e-07
3.1988e-07
2.89174e-07
2.61726e-07
2.37162e-07
2.15152e-07
1.95411e-07
1.7768e-07
1.61739e-07
1.47388e-07
1.34454e-07
1.18191e-06
1.05369e-06
9.40396e-07
8.40217e-07
7.51556e-07
6.73022e-07
6.03393e-07
5.41603e-07
4.86715e-07
4.37912e-07
3.94472e-07
3.55767e-07
3.21243e-07
2.90416e-07
2.62857e-07
2.38194e-07
2.16095e-07
1.96273e-07
1.7847e-07
1.62461e-07
1.48051e-07
1.35062e-07
1.18775e-06
1.05896e-06
9.4517e-07
8.4454e-07
7.55476e-07
6.76579e-07
6.06625e-07
5.44543e-07
4.89393e-07
4.40353e-07
3.967e-07
3.57802e-07
3.23105e-07
2.92119e-07
2.64419e-07
2.39625e-07
2.1741e-07
1.97479e-07
1.7958e-07
1.63483e-07
1.48991e-07
1.35929e-07
1.19549e-06
1.06597e-06
9.5151e-07
8.50287e-07
7.60692e-07
6.81319e-07
6.10937e-07
5.4847e-07
4.92973e-07
4.4362e-07
3.99685e-07
3.60532e-07
3.25603e-07
2.94409e-07
2.66518e-07
2.41553e-07
2.1918e-07
1.99108e-07
1.81077e-07
1.64862e-07
1.50262e-07
1.37101e-07
1.20513e-06
1.0747e-06
9.59441e-07
8.57495e-07
7.6725e-07
6.87292e-07
6.16384e-07
5.53442e-07
4.97516e-07
4.47775e-07
4.03489e-07
3.64018e-07
3.28801e-07
2.97344e-07
2.69215e-07
2.44033e-07
2.21462e-07
2.01209e-07
1.83014e-07
1.66648e-07
1.51911e-07
1.38623e-07
1.21675e-06
1.08527e-06
9.6906e-07
8.6626e-07
7.75245e-07
6.94592e-07
6.23056e-07
5.59546e-07
5.03106e-07
4.52899e-07
4.0819e-07
3.68335e-07
3.32769e-07
3.00993e-07
2.72574e-07
2.47127e-07
2.24315e-07
2.0384e-07
1.85443e-07
1.68891e-07
1.53984e-07
1.4054e-07
1.23042e-06
1.09773e-06
9.80434e-07
8.76651e-07
7.84748e-07
7.03291e-07
6.31026e-07
5.66855e-07
5.09815e-07
4.59062e-07
4.13857e-07
3.73549e-07
3.37569e-07
3.05418e-07
2.76654e-07
2.50891e-07
2.2779e-07
2.07052e-07
1.88411e-07
1.71638e-07
1.56525e-07
1.42893e-07
1.24616e-06
1.11213e-06
9.93606e-07
8.88716e-07
7.9581e-07
7.13442e-07
6.4035e-07
5.75426e-07
5.177e-07
4.66321e-07
4.20545e-07
3.79715e-07
3.43258e-07
3.10669e-07
2.81505e-07
2.55375e-07
2.31937e-07
2.10888e-07
1.91964e-07
1.74927e-07
1.59573e-07
1.45719e-07
1.26381e-06
1.12832e-06
1.00847e-06
9.0238e-07
8.08378e-07
7.25011e-07
6.51006e-07
5.85249e-07
5.26761e-07
4.74685e-07
4.2827e-07
3.86854e-07
3.4986e-07
3.16777e-07
2.87159e-07
2.60611e-07
2.36788e-07
2.15385e-07
1.96133e-07
1.78795e-07
1.63162e-07
1.4905e-07
1.28383e-06
1.14672e-06
1.0254e-06
9.17958e-07
8.22726e-07
7.38236e-07
6.63205e-07
5.96508e-07
5.37159e-07
4.84295e-07
4.37155e-07
3.95074e-07
3.57468e-07
3.23823e-07
2.93686e-07
2.66661e-07
2.42398e-07
2.20588e-07
2.00961e-07
1.83277e-07
1.67324e-07
1.52916e-07
1.3055e-06
1.16671e-06
1.04385e-06
9.3501e-07
8.3849e-07
7.52817e-07
6.76698e-07
6.09002e-07
5.48733e-07
4.9502e-07
4.47098e-07
4.04297e-07
3.66025e-07
3.31764e-07
3.0106e-07
2.73509e-07
2.4876e-07
2.26501e-07
2.06457e-07
1.88386e-07
1.72076e-07
1.57336e-07
1.3289e-06
1.18838e-06
1.06393e-06
9.53619e-07
8.55743e-07
7.6882e-07
6.91547e-07
6.22784e-07
5.6153e-07
5.06905e-07
4.5814e-07
4.14558e-07
3.75563e-07
3.40633e-07
3.09307e-07
2.81181e-07
2.55897e-07
2.33142e-07
2.12639e-07
1.94141e-07
1.77434e-07
1.62325e-07
1.35386e-06
1.21158e-06
1.0855e-06
9.73669e-07
8.7439e-07
7.86166e-07
7.07687e-07
6.37803e-07
5.75509e-07
5.19919e-07
4.70256e-07
4.2584e-07
3.8607e-07
3.50419e-07
3.18423e-07
2.89674e-07
2.63811e-07
2.40517e-07
2.19511e-07
2.00546e-07
1.83404e-07
1.67891e-07
1.35387e-06
1.21158e-06
1.0855e-06
9.73672e-07
8.74393e-07
7.86169e-07
7.0769e-07
6.37807e-07
5.75512e-07
5.19921e-07
4.70259e-07
4.25842e-07
3.86072e-07
3.50421e-07
3.18426e-07
2.89676e-07
2.63813e-07
2.40519e-07
2.19513e-07
2.00549e-07
1.83406e-07
1.67892e-07
1.32891e-06
1.18839e-06
1.06394e-06
9.53628e-07
8.55753e-07
7.68829e-07
6.91557e-07
6.22793e-07
5.61538e-07
5.06913e-07
4.58147e-07
4.14565e-07
3.7557e-07
3.40639e-07
3.09314e-07
2.81188e-07
2.55904e-07
2.33149e-07
2.12645e-07
1.94147e-07
1.77439e-07
1.6233e-07
1.30551e-06
1.16672e-06
1.04387e-06
9.35025e-07
8.38505e-07
7.52832e-07
6.76714e-07
6.09016e-07
5.48746e-07
4.95033e-07
4.47111e-07
4.04309e-07
3.66037e-07
3.31776e-07
3.01071e-07
2.7352e-07
2.4877e-07
2.2651e-07
2.06466e-07
1.88395e-07
1.72083e-07
1.57342e-07
1.28385e-06
1.14674e-06
1.02542e-06
9.17978e-07
8.22746e-07
7.38256e-07
6.63225e-07
5.96528e-07
5.37179e-07
4.84314e-07
4.37173e-07
3.95092e-07
3.57485e-07
3.23839e-07
2.93701e-07
2.66675e-07
2.4241e-07
2.206e-07
2.00971e-07
1.83286e-07
1.67332e-07
1.52923e-07
1.26383e-06
1.12834e-06
1.0085e-06
9.02407e-07
8.08404e-07
7.25037e-07
6.51032e-07
5.85275e-07
5.26786e-07
4.7471e-07
4.28293e-07
3.86877e-07
3.49881e-07
3.16796e-07
2.87176e-07
2.60627e-07
2.36803e-07
2.15398e-07
1.96144e-07
1.78805e-07
1.63172e-07
1.49059e-07
1.24619e-06
1.11216e-06
9.93639e-07
8.8875e-07
7.95843e-07
7.13475e-07
6.40382e-07
5.75457e-07
5.17729e-07
4.66349e-07
4.20571e-07
3.7974e-07
3.43281e-07
3.10691e-07
2.81525e-07
2.55394e-07
2.31954e-07
2.10904e-07
1.91978e-07
1.74941e-07
1.59585e-07
1.4573e-07
1.23046e-06
1.09777e-06
9.80477e-07
8.76694e-07
7.84789e-07
7.03331e-07
6.31064e-07
5.66891e-07
5.09849e-07
4.59094e-07
4.13886e-07
3.73576e-07
3.37595e-07
3.05441e-07
2.76676e-07
2.50912e-07
2.2781e-07
2.0707e-07
1.88429e-07
1.71653e-07
1.56539e-07
1.42906e-07
1.2168e-06
1.08532e-06
9.69114e-07
8.66313e-07
7.75296e-07
6.9464e-07
6.23101e-07
5.59588e-07
5.03145e-07
4.52936e-07
4.08224e-07
3.68366e-07
3.32797e-07
3.0102e-07
2.72598e-07
2.4715e-07
2.24336e-07
2.0386e-07
1.85462e-07
1.68909e-07
1.54e-07
1.40555e-07
1.20519e-06
1.07477e-06
9.59508e-07
8.57561e-07
7.67313e-07
6.87351e-07
6.16439e-07
5.53492e-07
4.97563e-07
4.47817e-07
4.03528e-07
3.64053e-07
3.28833e-07
2.97374e-07
2.69242e-07
2.44058e-07
2.21486e-07
2.01231e-07
1.83035e-07
1.66668e-07
1.51929e-07
1.38641e-07
1.19557e-06
1.06605e-06
9.5159e-07
8.50365e-07
7.60766e-07
6.81388e-07
6.11002e-07
5.4853e-07
4.93028e-07
4.4367e-07
3.9973e-07
3.60574e-07
3.25641e-07
2.94444e-07
2.6655e-07
2.41583e-07
2.19208e-07
1.99134e-07
1.81102e-07
1.64885e-07
1.50284e-07
1.37122e-07
1.18784e-06
1.05906e-06
9.45261e-07
8.44628e-07
7.5556e-07
6.76658e-07
6.067e-07
5.44613e-07
4.89458e-07
4.40412e-07
3.96754e-07
3.57852e-07
3.2315e-07
2.92161e-07
2.64457e-07
2.39661e-07
2.17442e-07
1.9751e-07
1.79608e-07
1.63509e-07
1.49017e-07
1.35952e-07
1.18201e-06
1.05379e-06
9.40498e-07
8.40315e-07
7.5165e-07
6.7311e-07
6.03476e-07
5.4168e-07
4.86788e-07
4.37979e-07
3.94534e-07
3.55824e-07
3.21295e-07
2.90463e-07
2.629e-07
2.38233e-07
2.16131e-07
1.96305e-07
1.78499e-07
1.6249e-07
1.48077e-07
1.35087e-07
1.17743e-06
1.04968e-06
9.36804e-07
8.3699e-07
7.48653e-07
6.70406e-07
6.01033e-07
5.39471e-07
4.84788e-07
4.36166e-07
3.9289e-07
3.5433e-07
3.19938e-07
2.89227e-07
2.61774e-07
2.37204e-07
2.15192e-07
1.95446e-07
1.77713e-07
1.6177e-07
1.47417e-07
1.34482e-07
1.17471e-06
1.04723e-06
9.346e-07
8.35001e-07
7.46855e-07
6.68777e-07
5.99556e-07
5.3813e-07
4.83569e-07
4.35057e-07
3.91881e-07
3.53412e-07
3.19101e-07
2.88464e-07
2.61077e-07
2.36568e-07
2.1461e-07
1.94912e-07
1.77224e-07
1.61318e-07
1.47003e-07
1.34099e-07
1.17445e-06
1.04699e-06
9.34369e-07
8.34785e-07
7.46654e-07
6.68589e-07
5.99379e-07
5.37963e-07
4.83411e-07
4.34908e-07
3.9174e-07
3.53279e-07
3.18976e-07
2.88348e-07
2.6097e-07
2.36469e-07
2.14517e-07
1.94827e-07
1.77142e-07
1.61243e-07
1.46929e-07
1.34029e-07
1.17414e-06
1.04668e-06
9.34065e-07
8.34493e-07
7.46376e-07
6.68328e-07
5.99136e-07
5.37737e-07
4.83202e-07
4.34716e-07
3.91563e-07
3.53116e-07
3.18826e-07
2.8821e-07
2.60843e-07
2.36352e-07
2.14409e-07
1.94727e-07
1.77051e-07
1.61158e-07
1.46852e-07
1.33958e-07
1.17443e-06
1.04695e-06
9.34321e-07
8.34732e-07
7.46599e-07
6.68537e-07
5.99332e-07
5.37922e-07
4.83376e-07
4.3488e-07
3.91717e-07
3.53262e-07
3.18963e-07
2.88338e-07
2.60962e-07
2.36463e-07
2.14512e-07
1.94823e-07
1.77141e-07
1.61243e-07
1.46931e-07
1.34033e-07
1.17717e-06
1.04942e-06
9.36549e-07
8.36745e-07
7.4842e-07
6.70186e-07
6.00827e-07
5.39279e-07
4.8461e-07
4.36001e-07
3.92738e-07
3.54191e-07
3.19809e-07
2.8911e-07
2.61666e-07
2.37106e-07
2.15102e-07
1.95363e-07
1.77638e-07
1.61699e-07
1.47352e-07
1.3442e-07
1.18177e-06
1.05355e-06
9.40263e-07
8.40088e-07
7.51434e-07
6.72906e-07
6.03284e-07
5.41501e-07
4.86621e-07
4.37824e-07
3.94391e-07
3.55691e-07
3.21173e-07
2.90349e-07
2.62796e-07
2.38136e-07
2.16042e-07
1.96224e-07
1.78425e-07
1.62422e-07
1.48014e-07
1.3503e-07
1.18762e-06
1.05883e-06
9.45042e-07
8.44416e-07
7.55358e-07
6.76468e-07
6.06521e-07
5.44445e-07
4.89301e-07
4.40267e-07
3.96619e-07
3.57727e-07
3.23034e-07
2.92053e-07
2.64356e-07
2.39568e-07
2.17356e-07
1.97431e-07
1.79535e-07
1.63443e-07
1.48956e-07
1.35897e-07
1.19536e-06
1.06584e-06
9.51384e-07
8.50166e-07
7.60577e-07
6.8121e-07
6.10835e-07
5.48374e-07
4.92883e-07
4.43535e-07
3.99606e-07
3.60459e-07
3.25536e-07
2.94346e-07
2.6646e-07
2.41499e-07
2.19132e-07
1.99062e-07
1.81037e-07
1.64825e-07
1.5023e-07
1.37072e-07
1.20499e-06
1.07457e-06
9.59315e-07
8.57375e-07
7.67135e-07
6.87184e-07
6.16282e-07
5.53346e-07
4.97427e-07
4.47693e-07
4.03413e-07
3.63948e-07
3.28737e-07
2.97286e-07
2.69162e-07
2.43985e-07
2.21418e-07
2.0117e-07
1.82977e-07
1.66617e-07
1.5188e-07
1.38596e-07
1.21662e-06
1.08514e-06
9.68933e-07
8.66138e-07
7.75129e-07
6.94483e-07
6.22954e-07
5.59451e-07
5.03019e-07
4.52819e-07
4.08117e-07
3.68269e-07
3.32708e-07
3.00939e-07
2.72525e-07
2.47082e-07
2.24274e-07
2.03804e-07
1.8541e-07
1.68861e-07
1.53957e-07
1.40514e-07
1.23029e-06
1.0976e-06
9.80307e-07
8.76529e-07
7.84632e-07
7.03182e-07
6.30925e-07
5.66761e-07
5.09729e-07
4.58983e-07
4.13785e-07
3.73484e-07
3.37512e-07
3.05365e-07
2.76607e-07
2.50849e-07
2.27753e-07
2.07017e-07
1.8838e-07
1.71609e-07
1.56499e-07
1.42869e-07
1.24603e-06
1.11199e-06
9.93479e-07
8.88595e-07
7.95694e-07
7.13334e-07
6.40249e-07
5.75333e-07
5.17614e-07
4.66244e-07
4.20474e-07
3.79652e-07
3.43201e-07
3.10618e-07
2.81459e-07
2.55335e-07
2.319e-07
2.10856e-07
1.91933e-07
1.749e-07
1.59548e-07
1.45696e-07
1.26368e-06
1.12819e-06
1.00835e-06
9.0226e-07
8.08264e-07
7.24904e-07
6.50907e-07
5.85157e-07
5.26677e-07
4.74608e-07
4.282e-07
3.86791e-07
3.49803e-07
3.16725e-07
2.87112e-07
2.60569e-07
2.36751e-07
2.15352e-07
1.96104e-07
1.78768e-07
1.63139e-07
1.49029e-07
1.28371e-06
1.14659e-06
1.02528e-06
9.1784e-07
8.22614e-07
7.38131e-07
6.63108e-07
5.96418e-07
5.37077e-07
4.84219e-07
4.37085e-07
3.95011e-07
3.57411e-07
3.23771e-07
2.93639e-07
2.66619e-07
2.4236e-07
2.20555e-07
2.00932e-07
1.83251e-07
1.67301e-07
1.52895e-07
1.30537e-06
1.16659e-06
1.04374e-06
9.34896e-07
8.38381e-07
7.52715e-07
6.76604e-07
6.08914e-07
5.48652e-07
4.94945e-07
4.4703e-07
4.04234e-07
3.65968e-07
3.31713e-07
3.01013e-07
2.73468e-07
2.48723e-07
2.26467e-07
2.06427e-07
1.8836e-07
1.72053e-07
1.57316e-07
1.32879e-06
1.18827e-06
1.06382e-06
9.53508e-07
8.55638e-07
7.6872e-07
6.91454e-07
6.22698e-07
5.6145e-07
5.06832e-07
4.58073e-07
4.14497e-07
3.75508e-07
3.40583e-07
3.09262e-07
2.81141e-07
2.55861e-07
2.3311e-07
2.1261e-07
1.94115e-07
1.77411e-07
1.62305e-07
1.35375e-06
1.21147e-06
1.08539e-06
9.73561e-07
8.74287e-07
7.86068e-07
7.07595e-07
6.37718e-07
5.75429e-07
5.19845e-07
4.70189e-07
4.25779e-07
3.86015e-07
3.5037e-07
3.18379e-07
2.89635e-07
2.63776e-07
2.40485e-07
2.19483e-07
2.00521e-07
1.83381e-07
1.67869e-07
1.35376e-06
1.21147e-06
1.08539e-06
9.73566e-07
8.74292e-07
7.86073e-07
7.07599e-07
6.37722e-07
5.75433e-07
5.19849e-07
4.70193e-07
4.25783e-07
3.86018e-07
3.50373e-07
3.18382e-07
2.89637e-07
2.63778e-07
2.40487e-07
2.19485e-07
2.00523e-07
1.83382e-07
1.67871e-07
1.3288e-06
1.18828e-06
1.06383e-06
9.53523e-07
8.55652e-07
7.68734e-07
6.91468e-07
6.2271e-07
5.61462e-07
5.06843e-07
4.58084e-07
4.14507e-07
3.75517e-07
3.40592e-07
3.0927e-07
2.81148e-07
2.55869e-07
2.33117e-07
2.12616e-07
1.94121e-07
1.77416e-07
1.62309e-07
1.3054e-06
1.16661e-06
1.04376e-06
9.34923e-07
8.38407e-07
7.5274e-07
6.76627e-07
6.08936e-07
5.48672e-07
4.94965e-07
4.47048e-07
4.04251e-07
3.65984e-07
3.31728e-07
3.01027e-07
2.7348e-07
2.48734e-07
2.26478e-07
2.06437e-07
1.88369e-07
1.7206e-07
1.57322e-07
1.28375e-06
1.14663e-06
1.02531e-06
9.17879e-07
8.22652e-07
7.38167e-07
6.63141e-07
5.9645e-07
5.37106e-07
4.84246e-07
4.37111e-07
3.95034e-07
3.57432e-07
3.2379e-07
2.93657e-07
2.66635e-07
2.42375e-07
2.20568e-07
2.00943e-07
1.83261e-07
1.6731e-07
1.52904e-07
1.26373e-06
1.12824e-06
1.0084e-06
9.02311e-07
8.08313e-07
7.2495e-07
6.50951e-07
5.85198e-07
5.26715e-07
4.74643e-07
4.28232e-07
3.8682e-07
3.49829e-07
3.16749e-07
2.87134e-07
2.60589e-07
2.36768e-07
2.15367e-07
1.96117e-07
1.78781e-07
1.6315e-07
1.4904e-07
1.24609e-06
1.11206e-06
9.93542e-07
8.88657e-07
7.95754e-07
7.13391e-07
6.40302e-07
5.75382e-07
5.1766e-07
4.66286e-07
4.20512e-07
3.79686e-07
3.43232e-07
3.10646e-07
2.81485e-07
2.55357e-07
2.31921e-07
2.10874e-07
1.91951e-07
1.74916e-07
1.59563e-07
1.4571e-07
1.23036e-06
1.09768e-06
9.8038e-07
8.766e-07
7.847e-07
7.03247e-07
6.30986e-07
5.66819e-07
5.09782e-07
4.59033e-07
4.1383e-07
3.73525e-07
3.37548e-07
3.05399e-07
2.76637e-07
2.50876e-07
2.27777e-07
2.0704e-07
1.88401e-07
1.71628e-07
1.56516e-07
1.42885e-07
1.2167e-06
1.08522e-06
9.69013e-07
8.66216e-07
7.75204e-07
6.94555e-07
6.23022e-07
5.59516e-07
5.03079e-07
4.52875e-07
4.08168e-07
3.68315e-07
3.32751e-07
3.00978e-07
2.7256e-07
2.47114e-07
2.24304e-07
2.0383e-07
1.85434e-07
1.68884e-07
1.53977e-07
1.40534e-07
1.20508e-06
1.07466e-06
9.59401e-07
8.57458e-07
7.67216e-07
6.87261e-07
6.16356e-07
5.53416e-07
4.97493e-07
4.47754e-07
4.03471e-07
3.64002e-07
3.28786e-07
2.97331e-07
2.69204e-07
2.44022e-07
2.21453e-07
2.01201e-07
1.83007e-07
1.66642e-07
1.51906e-07
1.38618e-07
1.19545e-06
1.06593e-06
9.51475e-07
8.50256e-07
7.60663e-07
6.81293e-07
6.10913e-07
5.48449e-07
4.92954e-07
4.43603e-07
3.9967e-07
3.60519e-07
3.25591e-07
2.94399e-07
2.66509e-07
2.41545e-07
2.19173e-07
1.99102e-07
1.81071e-07
1.64858e-07
1.50258e-07
1.37097e-07
1.18772e-06
1.05893e-06
9.45142e-07
8.44514e-07
7.55452e-07
6.76557e-07
6.06606e-07
5.44526e-07
4.89378e-07
4.40339e-07
3.96688e-07
3.57792e-07
3.23096e-07
2.92111e-07
2.64412e-07
2.39619e-07
2.17405e-07
1.97475e-07
1.79576e-07
1.63479e-07
1.48988e-07
1.35926e-07
1.18188e-06
1.05366e-06
9.40374e-07
8.40197e-07
7.51538e-07
6.73005e-07
6.03378e-07
5.41589e-07
4.86704e-07
4.37901e-07
3.94463e-07
3.55759e-07
3.21236e-07
2.9041e-07
2.62852e-07
2.3819e-07
2.16092e-07
1.96269e-07
1.78467e-07
1.62459e-07
1.48049e-07
1.3506e-07
1.17729e-06
1.04954e-06
9.36669e-07
8.36863e-07
7.48534e-07
6.70295e-07
6.00931e-07
5.39376e-07
4.847e-07
4.36085e-07
3.92815e-07
3.54262e-07
3.19875e-07
2.8917e-07
2.61722e-07
2.37159e-07
2.1515e-07
1.95408e-07
1.77678e-07
1.61737e-07
1.47387e-07
1.34453e-07
1.17455e-06
1.04707e-06
9.34445e-07
8.34854e-07
7.46719e-07
6.68653e-07
5.99442e-07
5.38026e-07
4.83474e-07
4.34971e-07
3.91801e-07
3.53338e-07
3.19032e-07
2.884e-07
2.61019e-07
2.36514e-07
2.14561e-07
1.94867e-07
1.77183e-07
1.61282e-07
1.46968e-07
1.34068e-07
1.17426e-06
1.0468e-06
9.34191e-07
8.34617e-07
7.46497e-07
6.68444e-07
5.99247e-07
5.37844e-07
4.83303e-07
4.34811e-07
3.91651e-07
3.53198e-07
3.18901e-07
2.88278e-07
2.60904e-07
2.36408e-07
2.1446e-07
1.94774e-07
1.77095e-07
1.61199e-07
1.46892e-07
1.33996e-07
1.17088e-06
1.17103e-06
1.17359e-06
1.17783e-06
1.18306e-06
1.18987e-06
1.19821e-06
1.2081e-06
1.21945e-06
1.2322e-06
1.24614e-06
1.26173e-06
1.27815e-06
1.29543e-06
1.31338e-06
1.24176e-06
1.21863e-06
1.19664e-06
1.17594e-06
1.15663e-06
1.13853e-06
1.12247e-06
1.10784e-06
1.09484e-06
1.08347e-06
1.07372e-06
1.06555e-06
1.05887e-06
1.0537e-06
1.04956e-06
1.03786e-06
1.03799e-06
1.04025e-06
1.04401e-06
1.04868e-06
1.05477e-06
1.06228e-06
1.07123e-06
1.08155e-06
1.09319e-06
1.10601e-06
1.1204e-06
1.13566e-06
1.15185e-06
1.16878e-06
1.10768e-06
1.08654e-06
1.06649e-06
1.04765e-06
1.03013e-06
1.01375e-06
9.99234e-07
9.86034e-07
9.74333e-07
9.64119e-07
9.55371e-07
9.48046e-07
9.4207e-07
9.37437e-07
9.33714e-07
9.20823e-07
9.20938e-07
9.2295e-07
9.26289e-07
9.30462e-07
9.35926e-07
9.42687e-07
9.50791e-07
9.60191e-07
9.70838e-07
9.82625e-07
9.9591e-07
1.01011e-06
1.02526e-06
1.04123e-06
9.89213e-07
9.6987e-07
9.51565e-07
9.34408e-07
9.18486e-07
9.03652e-07
8.90502e-07
8.78581e-07
8.68033e-07
8.58841e-07
8.50982e-07
8.44409e-07
8.39051e-07
8.349e-07
8.31561e-07
8.17792e-07
8.17894e-07
8.19686e-07
8.22656e-07
8.26395e-07
8.31299e-07
8.37391e-07
8.44739e-07
8.53312e-07
8.63064e-07
8.73911e-07
8.86183e-07
8.99402e-07
9.13585e-07
9.28622e-07
8.84451e-07
8.66731e-07
8.50003e-07
8.34356e-07
8.19867e-07
8.06412e-07
7.9449e-07
7.83707e-07
7.74186e-07
7.65904e-07
7.58834e-07
7.52928e-07
7.4812e-07
7.44394e-07
7.41397e-07
7.27027e-07
7.27119e-07
7.28716e-07
7.31361e-07
7.34718e-07
7.39128e-07
7.44623e-07
7.51287e-07
7.59117e-07
7.68062e-07
7.78053e-07
7.89391e-07
8.01695e-07
8.14972e-07
8.29126e-07
7.91722e-07
7.75468e-07
7.60165e-07
7.45881e-07
7.32679e-07
7.20458e-07
7.09636e-07
6.9987e-07
6.91265e-07
6.83794e-07
6.77424e-07
6.72111e-07
6.67791e-07
6.64443e-07
6.61749e-07
6.47009e-07
6.47093e-07
6.48518e-07
6.50878e-07
6.53897e-07
6.57871e-07
6.62833e-07
6.68879e-07
6.76034e-07
6.84252e-07
6.93465e-07
7.03944e-07
7.15393e-07
7.27822e-07
7.41135e-07
7.09564e-07
6.9464e-07
6.80625e-07
6.67572e-07
6.55529e-07
6.44414e-07
6.34576e-07
6.25722e-07
6.17935e-07
6.11184e-07
6.05438e-07
6.00654e-07
5.96767e-07
5.93754e-07
5.91331e-07
5.76413e-07
5.7649e-07
5.77765e-07
5.79873e-07
5.82591e-07
5.86179e-07
5.9067e-07
5.96158e-07
6.02696e-07
6.10255e-07
6.18762e-07
6.28451e-07
6.39102e-07
6.50735e-07
6.63255e-07
6.36702e-07
6.22985e-07
6.10134e-07
5.98192e-07
5.87197e-07
5.77074e-07
5.6812e-07
5.60083e-07
5.53026e-07
5.4692e-07
5.4173e-07
5.37414e-07
5.33915e-07
5.312e-07
5.29019e-07
5.1408e-07
5.14153e-07
5.15293e-07
5.17179e-07
5.19631e-07
5.22876e-07
5.26947e-07
5.31934e-07
5.37908e-07
5.44865e-07
5.5273e-07
5.61696e-07
5.71602e-07
5.82485e-07
5.94256e-07
5.72021e-07
5.59399e-07
5.47602e-07
5.36666e-07
5.26616e-07
5.17386e-07
5.09227e-07
5.01922e-07
4.95519e-07
4.89989e-07
4.85296e-07
4.81397e-07
4.78242e-07
4.75793e-07
4.73829e-07
4.58999e-07
4.59068e-07
4.60091e-07
4.61779e-07
4.63994e-07
4.66933e-07
4.70631e-07
4.75169e-07
4.80629e-07
4.87032e-07
4.94312e-07
5.02617e-07
5.11829e-07
5.22003e-07
5.33064e-07
5.14542e-07
5.02916e-07
4.92074e-07
4.82048e-07
4.72853e-07
4.64429e-07
4.56984e-07
4.50337e-07
4.4452e-07
4.39506e-07
4.35257e-07
4.31732e-07
4.28881e-07
4.26669e-07
4.249e-07
4.10285e-07
4.1035e-07
4.11269e-07
4.12782e-07
4.14785e-07
4.17451e-07
4.20817e-07
4.24954e-07
4.29945e-07
4.35837e-07
4.4258e-07
4.50281e-07
4.58848e-07
4.68354e-07
4.78745e-07
4.63408e-07
4.52692e-07
4.42716e-07
4.33514e-07
4.25092e-07
4.17396e-07
4.10596e-07
4.04539e-07
3.99249e-07
3.94697e-07
3.90844e-07
3.87652e-07
3.85075e-07
3.83074e-07
3.81479e-07
3.67164e-07
3.67226e-07
3.68052e-07
3.69411e-07
3.71223e-07
3.73645e-07
3.76713e-07
3.80493e-07
3.85059e-07
3.90478e-07
3.96725e-07
4.03875e-07
4.11847e-07
4.20721e-07
4.30471e-07
4.17866e-07
4.07985e-07
3.98797e-07
3.90339e-07
3.82619e-07
3.75581e-07
3.69363e-07
3.63838e-07
3.59021e-07
3.54882e-07
3.51385e-07
3.48492e-07
3.46159e-07
3.44347e-07
3.42908e-07
3.28961e-07
3.29018e-07
3.29763e-07
3.30984e-07
3.32627e-07
3.34828e-07
3.37629e-07
3.41088e-07
3.45272e-07
3.50254e-07
3.56038e-07
3.62682e-07
3.70107e-07
3.78388e-07
3.8753e-07
3.77259e-07
3.68142e-07
3.59674e-07
3.51893e-07
3.44806e-07
3.38365e-07
3.32674e-07
3.27628e-07
3.23236e-07
3.19469e-07
3.16292e-07
3.13667e-07
3.11551e-07
3.09908e-07
3.08609e-07
2.95082e-07
2.95134e-07
2.95807e-07
2.96907e-07
2.98396e-07
3.00399e-07
3.02959e-07
3.06129e-07
3.09971e-07
3.14553e-07
3.19903e-07
3.26079e-07
3.32999e-07
3.40729e-07
3.49291e-07
3.41008e-07
3.32593e-07
3.24786e-07
3.1762e-07
3.11108e-07
3.05206e-07
2.99993e-07
2.95379e-07
2.9137e-07
2.87937e-07
2.85047e-07
2.82662e-07
2.80741e-07
2.79251e-07
2.78076e-07
2.65009e-07
2.65057e-07
2.65664e-07
2.66656e-07
2.68009e-07
2.69833e-07
2.72174e-07
2.75083e-07
2.78616e-07
2.82835e-07
2.87781e-07
2.93518e-07
2.99974e-07
3.07192e-07
3.15205e-07
3.0861e-07
3.00838e-07
2.93636e-07
2.87034e-07
2.81044e-07
2.7563e-07
2.70849e-07
2.66626e-07
2.62962e-07
2.59831e-07
2.57198e-07
2.55029e-07
2.53285e-07
2.5193e-07
2.50867e-07
2.38288e-07
2.38332e-07
2.3888e-07
2.39776e-07
2.41006e-07
2.42669e-07
2.44811e-07
2.47484e-07
2.50738e-07
2.54628e-07
2.592e-07
2.64524e-07
2.70547e-07
2.77292e-07
2.84789e-07
2.79623e-07
2.72438e-07
2.65792e-07
2.59706e-07
2.54191e-07
2.49219e-07
2.4483e-07
2.40961e-07
2.3761e-07
2.34749e-07
2.32349e-07
2.30374e-07
2.28787e-07
2.27556e-07
2.26593e-07
2.1452e-07
2.14561e-07
2.15056e-07
2.15865e-07
2.16987e-07
2.18504e-07
2.20466e-07
2.22922e-07
2.25922e-07
2.29515e-07
2.33743e-07
2.3868e-07
2.44297e-07
2.50603e-07
2.57618e-07
2.53657e-07
2.47009e-07
2.40873e-07
2.35261e-07
2.30181e-07
2.25608e-07