/*--------------------------------*- C++ -*----------------------------------*\
| =========                 |                                                 |
| \\      /  F ield         | OpenFOAM Extend Project: Open source CFD        |
|  \\    /   O peration     | Version:  1.6-ext                               |
|   \\  /    A nd           | Web:      www.extend-project.de                 |
|    \\/     M anipulation  |                                                 |
\*---------------------------------------------------------------------------*/
FoamFile
{
    version     2.0;
    format      ascii;
    class       volSymmTensorField;
    location    "0.15";
    object      DSigma;
}
// * * * * * * * * * * * * * * * * * * * * * * * * * * * * * * * * * * * * * //

dimensions      [1 -1 -2 0 0 0 0];

internalField   nonuniform List<symmTensor> 
328
(
(-0.377662 -0.0867996 -9.45195e-25 -0.113318 2.64181e-21 -0.196392)
(-0.322931 -0.0389254 -3.95209e-25 -0.174536 -2.58522e-25 -0.198987)
(-0.327489 0.039979 3.21114e-24 -0.176527 -2.13577e-24 -0.201607)
(-0.397581 0.0897327 -9.07989e-23 -0.12049 -2.85248e-20 -0.207228)
(-0.34693 -0.0601471 -4.81661e-23 -0.0498602 -3.69231e-22 -0.158716)
(-0.323775 -0.0320325 -2.5855e-24 -0.10859 -3.55487e-24 -0.172946)
(-0.328282 0.0337722 -8.66685e-24 -0.109175 9.87088e-24 -0.174983)
(-0.365694 0.0623488 8.93571e-23 -0.054774 3.14732e-20 -0.168187)
(-0.338829 -0.0378618 5.89073e-23 -0.012349 2.44618e-20 -0.140471)
(-0.344977 -0.0243983 4.87576e-24 -0.0703312 5.24385e-24 -0.166123)
(-0.349798 0.0266169 5.0462e-24 -0.0703019 -5.48352e-24 -0.16804)
(-0.357114 0.039558 -1.40967e-22 -0.0159967 -1.44126e-21 -0.149244)
(-0.328861 -0.0217551 4.78079e-23 0.013743 -1.73861e-20 -0.126047)
(-0.350528 -0.0164363 0 -0.0346839 0 -0.154085)
(-0.355265 0.0189481 -7.17304e-24 -0.0341706 6.39915e-24 -0.155774)
(-0.346434 0.0231368 2.60467e-22 0.0109519 -1.23868e-20 -0.134193)
(-0.325059 -0.0110166 -3.30177e-23 0.0290019 -4.45647e-21 -0.118423)
(-0.35706 -0.00948422 3.90158e-23 -0.0103595 1.24158e-23 -0.146968)
(-0.361722 0.0121492 6.99554e-23 -0.00962187 -2.13456e-23 -0.148538)
(-0.341999 0.0122187 -1.30193e-22 0.0267049 -1.40967e-21 -0.126118)
(-0.323097 -0.00413372 -2.65037e-23 0.038164 -1.39221e-21 -0.113973)
(-0.358705 -0.00393394 -4.1652e-23 0.00857004 -1.14582e-23 -0.140054)
(-0.363187 0.00667406 -6.86192e-23 0.00943844 2.61861e-23 -0.141499)
(-0.339348 0.00523971 2.42739e-24 0.0361741 2.25596e-20 -0.121269)
(-0.323462 -3.18985e-05 2.01946e-23 0.0430281 -1.51996e-20 -0.112174)
(-0.359172 1.56817e-05 0 0.0215819 0 -0.135036)
(-0.363454 0.00275073 -1.13165e-22 0.0224943 2.98222e-23 -0.136384)
(-0.339003 0.00109221 2.29276e-22 0.0412266 -1.92661e-20 -0.11911)
(-0.324958 0.00219695 1.54168e-23 0.0453942 1.43998e-20 -0.111825)
(-0.357913 0.00253106 -1.47459e-23 0.0306713 -5.92544e-24 -0.130897)
(-0.361966 0.000236331 1.05515e-22 0.0315878 -2.78062e-23 -0.132151)
(-0.339743 -0.00115444 -2.28232e-22 0.0437229 1.02555e-20 -0.118408)
(-0.327197 0.00319186 1.10678e-22 0.0462386 -9.08199e-21 -0.112384)
(-0.356021 0.00386495 1.91089e-22 0.0365246 2.49781e-23 -0.127799)
(-0.359834 -0.00110981 -2.86491e-22 0.0374167 4.56697e-23 -0.128967)
(-0.341183 -0.00215238 2.67323e-22 0.04467 2.19447e-23 -0.118605)
(-0.329658 0.00343904 -1.33884e-22 0.0462726 9.15869e-21 -0.113354)
(-0.353704 0.00434296 -1.32251e-22 0.0401495 -1.90205e-23 -0.125422)
(-0.357264 -0.00160583 2.68177e-22 0.0410018 -5.3882e-23 -0.126505)
(-0.342795 -0.00239565 4.63914e-23 0.0447986 7.48878e-21 -0.119199)
(-0.332039 0.00327734 3.91185e-23 0.0459112 -1.18769e-21 -0.114451)
(-0.351359 0.00426453 2.97306e-22 0.0421883 2.21683e-23 -0.123668)
(-0.354659 -0.00154762 3.40906e-22 0.0429902 -5.45596e-23 -0.124667)
(-0.344276 -0.00222714 -2.64e-22 0.0445329 -7.69928e-21 -0.119897)
(-0.334112 0.00294274 8.35926e-23 0.0454128 2.48245e-21 -0.11548)
(-0.349133 0.0038848 -3.98569e-22 0.0432146 -2.62504e-23 -0.122367)
(-0.352162 -0.00118869 -2.33077e-22 0.0439588 4.78734e-23 -0.123281)
(-0.345393 -0.00188497 -3.73288e-22 0.0441362 -6.8197e-21 -0.120503)
(-0.335755 0.00258452 -3.80205e-22 0.0449122 -9.75151e-21 -0.116337)
(-0.347129 0.00339132 -3.818e-22 0.0436218 -2.18522e-23 -0.121403)
(-0.349877 -0.000716175 9.16829e-23 0.0443021 -2.17435e-23 -0.12223)
(-0.346023 -0.0015194 2.55832e-22 0.0437454 1.76514e-21 -0.120911)
(-0.336914 0.00228768 3.533e-22 0.0444665 7.3987e-21 -0.116979)
(-0.345348 0.00290761 4.50339e-22 0.0436894 3.34137e-23 -0.120663)
(-0.347803 -0.000253788 0 0.0443007 0 -0.121401)
(-0.346108 -0.00121594 4.95119e-25 0.0434183 3.31531e-21 -0.121076)
(-0.337582 0.00208816 -6.34731e-22 0.0440783 1.71035e-22 -0.117402)
(-0.343746 0.0025004 -1.97848e-22 0.0435833 -2.27867e-23 -0.120065)
(-0.345894 0.000131144 0 0.0441205 0 -0.120709)
(-0.345641 -0.00101085 2.06535e-22 0.0431576 8.18571e-21 -0.120993)
(-0.337784 0.0019881 9.80547e-22 0.0437171 1.28291e-21 -0.117627)
(-0.34224 0.00219396 -2.08464e-22 0.0433879 9.43385e-24 -0.119541)
(-0.344067 0.000413564 -6.75442e-22 0.0438463 8.98965e-23 -0.120088)
(-0.344644 -0.000906562 8.91854e-22 0.042933 -1.36229e-20 -0.120684)
(-0.337555 0.00196828 2.12493e-22 0.0433361 3.3184e-21 -0.117687)
(-0.340735 0.00198411 0 0.0431285 0 -0.119043)
(-0.342226 0.000596758 8.2415e-22 0.0435034 -9.26154e-23 -0.119489)
(-0.343148 -0.000884157 -1.759e-21 0.0426974 -1.52317e-21 -0.12018)
(-0.336928 0.00199863 -9.91085e-24 0.0428856 -2.7735e-20 -0.117617)
(-0.339136 0.00185115 1.37779e-21 0.0427964 2.93384e-23 -0.118536)
(-0.340274 0.000699548 -1.39515e-21 0.0430831 1.71166e-22 -0.118876)
(-0.341187 -0.000913863 8.57179e-22 0.042401 -1.07846e-21 -0.119514)
(-0.335926 0.00204666 4.55886e-22 0.0423262 1.87412e-20 -0.11744)
(-0.337354 0.00176979 -4.11336e-22 0.0423706 -2.58641e-23 -0.117993)
(-0.338122 0.000746457 4.19439e-22 0.0425644 -6.75339e-23 -0.118223)
(-0.338785 -0.000963495 -4.67656e-22 0.0420042 7.20687e-21 -0.118712)
(-0.334565 0.00208319 1.80316e-24 0.0416341 7.78504e-21 -0.117172)
(-0.335316 0.00171583 4.72412e-22 0.0418319 -2.59669e-23 -0.117394)
(-0.335696 0.000761015 -4.7241e-22 0.0419284 2.59668e-23 -0.117507)
(-0.335954 -0.0010041 -3.88773e-25 0.0414833 -1.60089e-21 -0.117788)
(-0.332835 0.00208719 -2.86377e-24 0.0408128 -1.14209e-20 -0.116809)
(-0.332955 0.00167039 9.66623e-22 0.0411802 -5.52082e-23 -0.11671)
(-0.332931 0.000761822 -2.9549e-21 0.0411749 2.88106e-22 -0.116702)
(-0.332689 -0.00101481 -1.11748e-23 0.0408413 -1.1663e-20 -0.116739)
(-0.330737 0.00204531 -9.68013e-22 0.0398759 1.40317e-20 -0.116344)
(-0.330228 0.00161997 1.0263e-21 0.0404238 -2.52077e-23 -0.115922)
(-0.329782 0.000761034 9.4566e-22 0.0403132 -9.16134e-23 -0.115787)
(-0.328987 -0.000983099 -3.94845e-25 0.0400936 -1.43081e-21 -0.115557)
(-0.328101 0.00196286 1.90119e-21 0.0388555 -8.11126e-21 -0.115698)
(-0.326934 0.00155399 -3.73845e-21 0.0395845 1.01956e-22 -0.11494)
(-0.326035 0.000758447 -1.02908e-21 0.039359 1.26024e-22 -0.11467)
(-0.324632 -0.000919141 9.54022e-22 0.0392729 1.54298e-20 -0.114144)
(-0.32498 0.00185392 -1.06061e-21 0.0377789 9.3148e-21 -0.114881)
(-0.323139 0.00148836 3.10432e-21 0.0387013 -1.00786e-22 -0.113775)
(-0.321771 0.000772659 4.02441e-21 0.038357 -4.33766e-22 -0.113366)
(-0.319737 -0.000821399 -2.05732e-21 0.0384018 1.3277e-21 -0.112534)
(-0.321523 0.00171807 4.3968e-21 0.0368287 -9.15847e-21 -0.113878)
(-0.31904 0.00141686 1.68666e-22 0.0379229 -1.27017e-23 -0.112447)
(-0.317218 0.000792988 0 0.037465 0 -0.111901)
(-0.314557 -0.000698129 -2.23803e-21 0.0376549 -5.65123e-21 -0.110761)
(-0.317759 0.00157872 1.71702e-22 0.0359915 1.22523e-20 -0.112707)
(-0.314652 0.00134434 -2.29519e-21 0.0372487 8.44398e-23 -0.110961)
(-0.31239 0.000812776 -2.46953e-21 0.0366811 2.15344e-22 -0.110284)
(-0.309125 -0.000573567 -2.39812e-21 0.0370152 6.54485e-21 -0.108844)
(-0.31366 0.00144386 -4.99614e-21 0.0352896 -1.19015e-20 -0.111348)
(-0.30995 0.00127293 -8.06297e-24 0.0366976 1.18961e-22 -0.109301)
(-0.307263 0.000830177 5.01722e-21 0.036024 -3.75932e-22 -0.108496)
(-0.30341 -0.000455213 -3.9472e-24 0.0365053 -1.09683e-20 -0.106762)
(-0.309217 0.00132304 6.00491e-25 0.0347076 1.56743e-21 -0.109804)
(-0.304924 0.00120535 0 0.0362584 0 -0.107466)
(-0.301826 0.000842737 0 0.0354824 0 -0.106538)
(-0.297405 -0.000352322 -2.79072e-21 0.036109 1.10873e-20 -0.104518)
(-0.304407 0.00121955 5.80459e-21 0.0342359 1.29118e-21 -0.108069)
(-0.299551 0.0011426 -2.86365e-21 0.0359223 6.01707e-23 -0.105452)
(-0.296056 0.000849707 0 0.0350475 0 -0.104403)
(-0.291086 -0.000267944 5.66512e-21 0.0358174 -1.06588e-20 -0.102107)
(-0.299215 0.00113506 1.55519e-22 0.0338566 -5.12758e-21 -0.106143)
(-0.293814 0.00108511 0 0.0356726 0 -0.103257)
(-0.289935 0.000850523 -3.0253e-21 0.0347026 2.91243e-22 -0.102093)
(-0.284434 -0.000203715 3.02888e-21 0.0356123 8.69781e-21 -0.0995288)
(-0.29362 0.00106866 -3.0997e-21 0.0335533 -3.97761e-21 -0.104027)
(-0.287695 0.00103231 -6.43039e-21 0.0354938 3.09138e-22 -0.10088)
(-0.283445 0.000845021 -7.38983e-23 0.0344321 5.4392e-23 -0.0996053)
(-0.277432 -0.000158922 -2.39799e-24 0.035478 -5.8123e-21 -0.0967816)
(-0.287609 0.00101825 -7.23144e-23 0.0333097 7.34828e-21 -0.10172)
(-0.281178 0.000982984 -7.59114e-23 0.0353697 -5.45403e-23 -0.0983234)
(-0.276572 0.000832952 3.2512e-21 0.0342201 -2.36324e-22 -0.0969409)
(-0.270065 -0.000132017 3.31709e-21 0.0353981 -2.29402e-21 -0.0938666)
(-0.281169 0.000980895 3.40157e-21 0.0331116 -6.7225e-21 -0.0992231)
(-0.274253 0.000935352 0 0.035286 0 -0.095587)
(-0.269305 0.000813926 0 0.0340525 0 -0.0941012)
(-0.262322 -0.000120881 -7.65271e-25 0.0353584 -1.76281e-21 -0.0907856)
(-0.274293 0.000953354 3.70593e-21 0.0329465 5.53203e-21 -0.0965385)
(-0.266913 0.000887334 3.62343e-21 0.0352301 -6.84269e-23 -0.0926732)
(-0.261639 0.000787346 0 0.033917 0 -0.0910887)
(-0.254201 -0.000123343 5.55464e-25 0.0353461 1.25171e-21 -0.0875419)
(-0.266974 0.000932439 3.83845e-21 0.0328047 -4.55913e-21 -0.0936676)
(-0.259154 0.000836756 -3.76531e-21 0.035191 6.19626e-23 -0.0895853)
(-0.253571 0.000752491 0 0.0338032 0 -0.087907)
(-0.245702 -0.00013736 1.01149e-24 0.0353505 2.2344e-21 -0.0841406)
(-0.259209 0.000915258 3.97816e-21 0.0326782 1.64571e-21 -0.0906125)
(-0.250977 0.000781603 3.9634e-21 0.03516 -9.53139e-23 -0.086327)
(-0.245105 0.000708656 0 0.0337028 0 -0.084561)
(-0.236833 -0.000161127 -6.96272e-23 0.0353623 4.59901e-21 -0.0805885)
(-0.251001 0.000899381 -3.97887e-21 0.0325615 -3.08028e-21 -0.0873758)
(-0.242388 0.000720252 -3.96341e-21 0.0351299 9.53123e-23 -0.0829033)
(-0.23625 0.000655334 0 0.0336093 0 -0.0810564)
(-0.227608 -0.000193061 7.90672e-21 0.0353741 1.50627e-21 -0.0768937)
(-0.242353 0.000882929 3.42976e-24 0.0324505 7.01702e-21 -0.083961)
(-0.233396 0.000651666 4.14657e-21 0.0350952 -1.16238e-22 -0.0793203)
(-0.227019 0.000592388 -4.21899e-21 0.033518 5.94563e-23 -0.0774006)
(-0.218045 -0.000231747 -4.12301e-21 0.0353797 9.88489e-23 -0.0730662)
(-0.233274 0.000864602 4.36795e-21 0.0323428 5.69522e-21 -0.0803723)
(-0.224014 0.000575522 4.26827e-21 0.0350515 -9.31094e-23 -0.075585)
(-0.21743 0.000520201 -7.28585e-23 0.0334253 -5.67136e-23 -0.0736017)
(-0.208167 -0.000275848 4.2823e-21 0.0353744 4.23021e-22 -0.0691171)
(-0.223775 0.00084366 -8.78264e-21 0.0322369 -8.50145e-21 -0.0766154)
(-0.214261 0.000492272 4.41324e-21 0.0349961 2.08508e-23 -0.0717059)
(-0.207502 0.000439754 -4.42539e-21 0.0333288 9.24582e-23 -0.0696693)
(-0.198001 -0.000324029 -4.28227e-21 0.0353543 -3.43807e-22 -0.0650586)
(-0.213876 0.000819865 -4.52395e-21 0.032132 1.014e-20 -0.0726976)
(-0.204158 0.000403112 4.5291e-21 0.0349266 4.85658e-23 -0.0676924)
(-0.197262 0.000352633 4.4254e-21 0.0332271 -9.24562e-23 -0.065614)
(-0.187576 -0.000374906 4.42391e-21 0.0353169 -1.42506e-21 -0.0609038)
(-0.203598 0.000793394 -4.51337e-24 0.032028 -8.81587e-21 -0.068628)
(-0.193731 0.000309871 -4.67476e-21 0.0348419 -5.8196e-23 -0.0635557)
(-0.186738 0.000260941 -4.63521e-21 0.0331193 1.86743e-23 -0.0614477)
(-0.176926 -0.000427043 2.68631e-24 0.0352602 5.39356e-21 -0.0566662)
(-0.19297 0.000764731 -3.38423e-23 0.0319247 -1.50474e-21 -0.0644181)
(-0.183012 0.000214827 4.67477e-21 0.0347414 5.81983e-23 -0.0593082)
(-0.175963 0.00016715 9.29776e-21 0.033005 -5.27226e-23 -0.057183)
(-0.166083 -0.000478976 -9.28103e-21 0.0351833 -3.51289e-21 -0.0523597)
(-0.182026 0.000734546 9.6623e-21 0.0318221 1.36827e-21 -0.0600816)
(-0.172034 0.000120469 -4.37807e-23 0.0346249 -7.2978e-23 -0.0549637)
(-0.164969 7.38746e-05 -4.80217e-21 0.0328841 -8.29149e-23 -0.052834)
(-0.155081 -0.00052928 -2.04366e-24 0.0350861 -4.03377e-21 -0.0479981)
(-0.170806 0.000703571 2.60313e-23 0.0317202 4.86572e-21 -0.0556344)
(-0.160836 2.92316e-05 0 0.0344929 0 -0.0505372)
(-0.153795 -1.63734e-05 -4.84158e-21 0.0327568 -6.44984e-23 -0.0484153)
(-0.143958 -0.000576652 4.7764e-21 0.0349691 3.98982e-21 -0.0435956)
(-0.159355 0.000672482 2.29779e-23 0.0316186 4.37728e-21 -0.0510944)
(-0.149459 -5.67586e-05 -1.0076e-20 0.0343462 -4.89481e-22 -0.0460452)
(-0.14248 -0.000101429 0 0.0326235 0 -0.0439427)
(-0.132749 -0.000619994 4.8545e-21 0.0348334 2.04542e-24 -0.0391663)
(-0.147721 0.000641797 -5.18495e-21 0.0315174 -8.65902e-21 -0.0464815)
(-0.137949 -0.000135904 1.01039e-20 0.0341858 4.80013e-22 -0.0415051)
(-0.131067 -0.000179686 -5.05798e-21 0.0324848 -2.385e-22 -0.0394328)
(-0.121492 -0.00065849 8.9539e-25 0.0346808 1.73218e-21 -0.0347244)
(-0.135958 0.000611808 5.18321e-21 0.031416 5.34076e-21 -0.0418166)
(-0.126352 -0.000207284 0 0.0340131 0 -0.0369354)
(-0.119598 -0.000250234 -5.06856e-21 0.0323414 -2.43811e-22 -0.0349027)
(-0.110224 -0.00069165 6.76497e-23 0.0345131 2.38535e-21 -0.0302845)
(-0.12412 0.00058255 -5.26535e-21 0.0313145 -3.59344e-21 -0.0371221)
(-0.114718 -0.000270712 -1.40376e-24 0.0338296 -5.3118e-24 -0.0323554)
(-0.108121 -0.000312912 -5.133e-21 0.032194 -3.11674e-22 -0.0303706)
(-0.0989876 -0.000719326 5.13003e-21 0.0343327 -5.3552e-21 -0.025862)
(-0.112264 0.000553807 -5.39328e-21 0.0312126 2.99129e-22 -0.0324204)
(-0.103099 -0.00032669 -6.15206e-23 0.0336368 -6.7876e-23 -0.0277848)
(-0.0966816 -0.000368258 -5.25578e-21 0.0320435 -4.43047e-22 -0.0258552)
(-0.087823 -0.000741684 -5.17823e-21 0.0341415 5.10333e-21 -0.0214726)
(-0.100446 0.000525166 -5.83923e-23 0.0311105 1.78631e-21 -0.0277343)
(-0.0915466 -0.00037627 6.9723e-24 0.0334365 -1.25072e-23 -0.0232441)
(-0.0853303 -0.000417359 1.58834e-20 0.0318909 1.46371e-21 -0.0213757)
(-0.0767752 -0.000759135 5.17887e-21 0.0339417 -3.89475e-21 -0.0171334)
(-0.088724 0.000496103 1.0961e-20 0.0310088 3.34064e-21 -0.0230861)
(-0.0801141 -0.000420831 0 0.0332302 0 -0.0187536)
(-0.0741169 -0.000461632 4.67096e-23 0.0317373 7.8939e-23 -0.0169519)
(-0.0658903 -0.000772247 -5.27465e-21 0.0337351 -3.29088e-21 -0.0128621)
(-0.0771522 0.000466086 -1.10006e-20 0.030908 -6.6597e-22 -0.0184977)
(-0.0688542 -0.00046181 1.63877e-20 0.0330194 2.06635e-21 -0.0143339)
(-0.0630926 -0.000502547 -1.07104e-20 0.0315836 -1.19438e-21 -0.0126036)
(-0.0552168 -0.000781627 1.06095e-20 0.0335233 3.25522e-21 -0.0086774)
(-0.0657848 0.000434689 -1.55575e-24 0.0308092 -2.84084e-21 -0.0139902)
(-0.0578194 -0.00050043 -5.4771e-21 0.0328058 -7.15126e-22 -0.0100054)
(-0.0523086 -0.000541353 5.40809e-21 0.0314311 7.91725e-22 -0.00835099)
(-0.0448042 -0.000787808 -1.06551e-20 0.0333073 1.60272e-21 -0.00459875)
(-0.054674 0.000401686 5.65492e-21 0.0307136 -4.02941e-21 -0.00958416)
(-0.0470616 -0.000537449 -5.84206e-23 0.0325909 -5.83639e-23 -0.00578831)
(-0.0418161 -0.000578829 -5.51952e-21 0.031281 -7.94193e-22 -0.00421403)
(-0.0347028 -0.000791152 -9.11428e-23 0.0330884 -1.13511e-21 -0.000645794)
(-0.0438706 0.000367126 -5.69345e-21 0.0306223 -1.13013e-21 -0.00529934)
(-0.0366316 -0.000572994 5.54994e-21 0.032376 8.82268e-22 -0.00170225)
(-0.0316653 -0.000615117 0 0.0311344 0 -0.00021236)
(-0.0249625 -0.000791777 1.50306e-24 0.0328673 2.80739e-21 0.00316191)
(-0.0334243 0.000331358 1.13299e-20 0.0305366 6.22644e-21 -0.00115508)
(-0.0265786 -0.000606484 -1.11815e-20 0.0321626 -2.03174e-21 0.00223361)
(-0.0219051 -0.000649644 5.54582e-21 0.0309925 1.0037e-21 0.00363495)
(-0.0156313 -0.000789529 -5.41638e-21 0.0326449 -6.56281e-21 0.00680545)
(-0.0233834 0.000295019 -5.78155e-21 0.0304576 1.04636e-21 0.00282965)
(-0.0169502 -0.000636675 -5.65823e-21 0.0319522 -1.11888e-21 0.0060008)
(-0.012582 -0.000681169 0 0.0308562 0 0.00730968)
(-0.00675463 -0.000784001 5.41582e-21 0.0324222 5.49285e-21 0.010267)
(-0.0137955 0.000258972 -9.87884e-25 0.0303859 -1.78273e-21 0.00663614)
(-0.00779199 -0.000661812 0 0.0317462 0 0.00958167)
(-0.00374001 -0.000707932 0 0.0307266 0 0.0107946)
(0.00162584 -0.000774592 -1.33163e-24 0.0322003 -2.47051e-21 0.0135305)
(-0.00470697 0.000224204 -1.11041e-24 0.0303219 -2.00032e-21 0.010246)
(0.000852939 -0.000679871 5.64508e-21 0.031546 1.35038e-21 0.0129596)
(0.00458042 -0.000727903 0 0.0306043 0 0.0140739)
(0.00947329 -0.000760611 1.3752e-25 0.0319808 2.54648e-22 0.0165816)
(0.00383711 0.000191707 1.20426e-24 0.0302657 2.1659e-21 0.0136411)
(0.00894435 -0.000688864 -5.64509e-21 0.0313532 -1.35038e-21 0.016119)
(0.0123425 -0.000739084 -5.49668e-21 0.0304901 -1.3837e-21 0.017133)
(0.0167561 -0.000741396 1.03576e-22 0.0317652 -1.52313e-21 0.0194085)
(0.0117936 0.000162348 -5.85452e-21 0.0302166 -8.51788e-22 0.0168041)
(0.0164453 -0.000687155 -1.01474e-22 0.0311691 -9.82396e-24 0.0190458)
(0.0195137 -0.000739823 -5.60174e-21 0.0303844 -1.49763e-21 0.0199592)
(0.0234483 -0.000716445 1.6137e-26 0.0315556 2.97788e-23 0.0220016)
(0.0191223 0.000136754 1.1507e-20 0.0301741 -1.56313e-21 0.0197186)
(0.0233228 -0.000673742 5.6013e-21 0.0309952 1.60246e-21 0.0217272)
(0.0260659 -0.000729103 -5.6013e-21 0.0302877 -1.60246e-21 0.0225414)
(0.0295293 -0.00068553 5.3384e-25 0.0313541 9.83618e-22 0.0243534)
(0.0257869 0.000115223 -5.70007e-21 0.030137 -1.12832e-22 0.0223695)
(0.0295481 -0.00064847 0 0.0308327 0 0.0241523)
(0.0319757 -0.00070675 5.5413e-21 0.0302001 1.76079e-21 0.0248703)
(0.0349835 -0.000648784 -5.38309e-21 0.0311631 -2.85163e-21 0.0264586)
(0.031756 9.76839e-05 5.75081e-21 0.0301043 -1.07699e-21 0.0247441)
(0.0350976 -0.000612128 4.928e-23 0.0306828 5.54913e-23 0.0263122)
(0.0372246 -0.000673535 5.5333e-21 0.0301218 1.8698e-21 0.0269386)
(0.0398004 -0.000606735 -1.09389e-22 0.0309844 2.68111e-22 0.0283139)
(0.0370048 8.37091e-05 -5.73769e-21 0.030075 -5.38357e-22 0.0268319)
(0.0399531 -0.000566417 5.57272e-21 0.0305465 2.03405e-21 0.0281998)
(0.0417989 -0.000631138 -1.6578e-20 0.030053 -5.82988e-21 0.0287408)
(0.0439729 -0.000560302 1.08368e-20 0.0308201 4.51101e-21 0.0299172)
(0.0415159 7.25731e-05 2.29329e-20 0.0300482 5.67852e-21 0.0286257)
(0.0441022 -0.00051379 -1.13107e-20 0.0304245 -4.01639e-21 0.0298107)
(0.0456898 -0.000581995 6.10105e-23 0.0299937 -5.55311e-23 0.0302734)
(0.0474977 -0.000510719 5.46074e-21 0.0306714 8.64671e-22 0.0312677)
(0.0452799 6.33697e-05 -5.72747e-21 0.0300235 -1.049e-21 0.0301214)
(0.047539 -0.000457177 0 0.0303172 0 0.0311425)
(0.0488937 -0.000529021 5.49576e-21 0.0299437 2.20241e-21 0.031535)
(0.0503745 -0.000459437 7.856e-25 0.0305392 1.43855e-21 0.0323655)
(0.0482961 5.51433e-05 -5.65402e-21 0.0300008 -2.09168e-21 0.0313187)
(0.0502638 -0.000399634 1.11978e-20 0.0302249 4.51289e-21 0.0321955)
(0.0514117 -0.000475261 -5.55905e-21 0.0299032 -2.14527e-21 0.032526)
(0.0526057 -0.000407966 -7.14017e-25 0.0304237 -1.30625e-21 0.0332118)
(0.0505723 4.7056e-05 -5.68669e-21 0.0299801 -1.79687e-21 0.032221)
(0.0522836 -0.000343964 0 0.0301474 0 0.0329724)
(0.0532504 -0.000423518 -5.48042e-21 0.029872 -2.31442e-21 0.033249)
(0.0541969 -0.000357746 -5.30409e-21 0.0303245 -1.69917e-21 0.0338086)
(0.0521248 3.85071e-05 5.7991e-21 0.0299618 2.67482e-21 0.0328346)
(0.053612 -0.000292382 1.11352e-20 0.0300842 4.96031e-21 0.0334785)
(0.0544214 -0.000376019 -1.09591e-20 0.02985 -5.02113e-21 0.0337086)
(0.055157 -0.000309991 -5.28732e-21 0.0302407 -2.14109e-21 0.0341591)
(0.052977 2.92543e-05 5.71807e-21 0.0299466 -4.59609e-22 0.0331695)
(0.0542684 -0.000246276 -5.54263e-21 0.0300348 -2.64921e-21 0.0337213)
(0.0549421 -0.000334181 1.083e-20 0.0298368 5.13728e-21 0.0339115)
(0.055499 -0.000265616 -5.38192e-21 0.0301709 -1.24464e-21 0.034268)
(0.0531592 1.94628e-05 7.14069e-25 0.029935 1.26978e-21 0.0332377)
(0.0542787 -0.000206085 5.54264e-21 0.0299982 2.64922e-21 0.0337108)
(0.0548349 -0.000298541 5.36545e-21 0.0298319 2.71077e-21 0.0338667)
(0.0552411 -0.000225218 -1.0665e-20 0.0301134 -3.27701e-21 0.0341418)
(0.052707 9.60619e-06 -5.62285e-21 0.0299269 -2.41725e-21 0.0330535)
(0.0536743 -0.000171422 0 0.0299732 0 0.033459)
(0.0541285 -0.000268784 0 0.0298349 0 0.0335854)
(0.0544066 -0.000189042 5.3001e-21 0.0300663 1.61068e-21 0.0337891)
(0.0516603 7.40441e-07 5.62249e-21 0.0299226 1.76883e-21 0.0326331)
(0.0524912 -0.000141088 5.44481e-21 0.0299582 2.93433e-21 0.0329798)
(0.0528563 -0.000244182 -1.12823e-22 0.0298445 2.69944e-24 0.0330803)
(0.0530253 -0.000157439 -1.05984e-20 0.0300282 -3.28369e-21 0.0332214)
(0.0500638 -6.47881e-06 4.4173e-26 0.0299205 7.84335e-23 0.0319937)
(0.0507732 -0.000113757 0 0.0299521 0 0.0322901)
(0.05106 -0.000223508 0 0.0298602 0 0.0323681)
(0.0511338 -0.000130148 6.41368e-23 0.0299965 2.21153e-22 0.0324521)
(0.0479614 -9.47254e-06 5.64239e-21 0.0299204 1.22067e-21 0.0311527)
(0.0485607 -8.70688e-05 5.46466e-21 0.0299505 3.21844e-21 0.0314045)
(0.0487787 -0.000206585 5.30161e-21 0.0298777 3.16328e-21 0.0314625)
(0.048771 -0.000108923 -1.12269e-22 0.0299702 8.86331e-23 0.0314965)
(0.0454147 -8.84713e-06 5.51476e-21 0.0299196 2.17315e-21 0.0301337)
(0.0459255 -5.99724e-05 -1.64321e-20 0.0299584 -9.82684e-21 0.0303536)
(0.0460832 -0.000192055 0 0.0299022 0 0.0303941)
(0.0459954 -9.23873e-05 -3.96808e-26 0.0299461 -7.24427e-23 0.0303766)
(0.0424367 3.86501e-06 -1.10579e-20 0.0299087 -3.97286e-21 0.0289381)
(0.0428704 -2.67699e-05 1.63448e-20 0.0299474 1.01133e-20 0.0291271)
(0.042976 -0.000183443 -1.06654e-20 0.0299051 -6.77925e-21 0.0291524)
(0.0428203 -8.87754e-05 1.04388e-20 0.0299153 4.10924e-21 0.0290942)
(0.0391946 2.15172e-05 6.27253e-23 0.0299116 3.41334e-23 0.0276425)
(0.0396167 1.06315e-05 6.19584e-23 0.0299894 -5.64314e-23 0.0278425)
(0.039679 -0.000175491 -5.26583e-21 0.0299571 -3.5023e-21 0.0278545)
(0.0394145 -8.96485e-05 5.26466e-21 0.0298996 1.36888e-21 0.0277256)
(0.0354006 7.56001e-05 -5.53798e-21 0.0298121 -1.78273e-21 0.0260851)
(0.0358186 6.71872e-05 5.43134e-21 0.029874 3.56208e-21 0.026277)
(0.0358461 -0.000177897 5.25714e-21 0.0298465 3.61515e-21 0.0262771)
(0.0354977 -0.000127941 -5.25618e-21 0.0297859 -1.91703e-21 0.0261134)
(0.0320494 0.000121057 -4.75848e-22 0.0299034 5.22517e-23 0.0247811)
(0.032678 0.000106078 4.10377e-22 0.0302176 -2.23559e-25 0.0251582)
(0.0326865 -0.000145736 2.56393e-21 0.0301879 3.72952e-21 0.0251498)
(0.0320935 -0.00015288 -1.35992e-22 0.0298645 1.65067e-22 0.0247832)
)
;

boundaryField
{
    plateFix
    {
        type            calculated;
        value           nonuniform List<symmTensor> 4((-0.381513 -0.11156 -1.17323e-24 -0.1159 2.64181e-21 -0.198965) (-0.299579 -0.0407939 -3.95209e-25 -0.158968 -2.58522e-25 -0.183419) (-0.303599 0.0412023 3.21273e-24 -0.1606 -2.13528e-24 -0.18568) (-0.401529 0.115005 -9.04418e-23 -0.123141 -2.85248e-20 -0.209868));
    }
    plate
    {
        type            calculated;
        value           nonuniform List<symmTensor> 
168
(
(-0.275166 -0.000261269 -1.8268e-24 0.0405806 5.10589e-21 -0.0938343)
(-0.290296 4.88799e-05 -1.03882e-22 0.0406429 -5.70791e-20 -0.0998611)
(-0.286688 -0.000247103 -3.38449e-23 0.0405825 -6.41659e-22 -0.0984421)
(-0.302156 5.2709e-05 1.00493e-22 0.0406438 6.31344e-20 -0.104605)
(-0.303533 -0.000230324 5.47e-23 0.0406272 4.90031e-20 -0.105162)
(-0.319358 5.05315e-05 -1.50142e-22 0.0406867 -3.08253e-21 -0.111469)
(-0.310893 -0.000208342 5.17204e-23 0.040706 -3.46578e-20 -0.108075)
(-0.326575 4.39918e-05 2.58319e-22 0.0407619 -2.44419e-20 -0.114325)
(-0.317187 -0.000182932 -3.28058e-23 0.0408123 -9.1836e-21 -0.11055)
(-0.332565 3.70265e-05 -1.30404e-22 0.0408636 -2.98304e-21 -0.116681)
(-0.321244 -0.000148814 -2.65185e-23 0.0409438 -2.76321e-21 -0.11212)
(-0.336139 2.23974e-05 4.87008e-24 0.0409898 4.52615e-20 -0.11806)
(-0.324748 -0.000103161 1.98268e-23 0.0411 -3.07048e-20 -0.113459)
(-0.33906 -3.00443e-06 2.27342e-22 0.0411404 -3.86691e-20 -0.119168)
(-0.327701 -4.22961e-05 1.60992e-23 0.0412804 2.90494e-20 -0.114568)
(-0.341348 -4.33966e-05 -2.27298e-22 0.0413153 2.049e-20 -0.120013)
(-0.330368 3.72028e-05 1.10308e-22 0.0414835 -1.83246e-20 -0.115554)
(-0.343287 -0.00010227 2.67339e-22 0.041513 1.95214e-22 -0.12071)
(-0.332704 0.000138611 -1.33132e-22 0.0417051 1.8492e-20 -0.116399)
(-0.34484 -0.000182976 4.71449e-23 0.0417296 1.498e-20 -0.121244)
(-0.334689 0.000264486 3.90052e-23 0.0419375 -2.38542e-21 -0.117101)
(-0.345992 -0.000288068 -2.65108e-22 0.0419574 -1.55121e-20 -0.121614)
(-0.336276 0.000416019 8.32464e-23 0.0421683 4.80563e-21 -0.117643)
(-0.346694 -0.000418774 -3.74149e-22 0.042184 -1.38748e-20 -0.121804)
(-0.337444 0.000592253 -3.8136e-22 0.0423799 -1.92992e-20 -0.118026)
(-0.346925 -0.000574164 2.56068e-22 0.0423915 3.50783e-21 -0.121814)
(-0.338193 0.00078933 3.53974e-22 0.0425489 1.46943e-20 -0.118258)
(-0.346683 -0.000750432 1.01913e-24 0.0425566 6.82411e-21 -0.12165)
(-0.338537 0.000999973 -6.34688e-22 0.0426475 4.61025e-22 -0.118356)
(-0.345979 -0.000940359 2.07864e-22 0.0426514 1.64521e-20 -0.121331)
(-0.338499 0.00121338 9.80438e-22 0.0426453 2.30831e-21 -0.118342)
(-0.344835 -0.00113321 8.89447e-22 0.0426453 -2.70462e-20 -0.120876)
(-0.338104 0.00141579 2.12923e-22 0.0425127 6.74876e-21 -0.118237)
(-0.343274 -0.00131532 -1.75936e-21 0.0425087 -3.36771e-21 -0.120306)
(-0.337368 0.00159152 -1.56447e-23 0.0422252 -5.57478e-20 -0.118057)
(-0.34131 -0.00147112 8.5659e-22 0.042217 -2.23456e-21 -0.119637)
(-0.336297 0.00172523 4.5971e-22 0.0417697 3.75454e-20 -0.117811)
(-0.33895 -0.00158541 -4.66379e-22 0.0417574 1.44279e-20 -0.118877)
(-0.33489 0.00180336 3.63901e-24 0.0411472 1.57112e-20 -0.117497)
(-0.33619 -0.0016448 -7.77542e-25 0.0411309 -3.20175e-21 -0.118023)
(-0.333124 0.00181768 -5.81972e-24 0.0403804 -2.32095e-20 -0.117097)
(-0.33301 -0.00164125 -1.48497e-23 0.0403605 -2.34053e-20 -0.11706)
(-0.330986 0.00176395 -9.63875e-22 0.039502 2.83552e-20 -0.116594)
(-0.329397 -0.00157069 -7.6337e-25 0.039479 -2.76624e-21 -0.115967)
(-0.328297 0.00166077 1.89882e-21 0.0385611 -1.62548e-20 -0.115894)
(-0.325124 -0.00145143 9.59045e-22 0.0385359 3.10614e-20 -0.114635)
(-0.325128 0.00152143 -1.05828e-21 0.0375581 1.84916e-20 -0.115028)
(-0.320318 -0.00129758 -2.05701e-21 0.0375315 2.29534e-21 -0.113115)
(-0.321612 0.00134756 4.39377e-21 0.0366961 -1.83037e-20 -0.113966)
(-0.315215 -0.00111155 -2.24068e-21 0.0366691 -1.16757e-20 -0.111418)
(-0.317787 0.00116943 1.75965e-22 0.035951 2.44231e-20 -0.112734)
(-0.309853 -0.000923392 -2.39657e-21 0.0359243 1.27107e-20 -0.109571)
(-0.313623 0.000996294 -5.00048e-21 0.0353462 -2.3717e-20 -0.111311)
(-0.3042 -0.00074211 -7.89515e-24 0.0353204 -2.19388e-20 -0.107552)
(-0.309114 0.000839872 1.20043e-24 0.0348623 3.1334e-21 -0.109701)
(-0.298253 -0.000579207 -2.78674e-21 0.0348379 2.17271e-20 -0.105366)
(-0.30424 0.000704025 5.80512e-21 0.0344888 2.63228e-21 -0.1079)
(-0.291987 -0.000438366 5.66163e-21 0.034466 -2.03823e-20 -0.103008)
(-0.298983 0.000590916 1.53332e-22 0.0342058 -1.04442e-20 -0.105911)
(-0.285386 -0.000321613 3.03249e-21 0.034185 1.76957e-20 -0.10048)
(-0.293325 0.000499629 -3.1013e-21 0.0339964 -7.76255e-21 -0.103732)
(-0.278432 -0.00022792 -4.83843e-24 0.033978 -1.17275e-20 -0.0977816)
(-0.287254 0.000428065 -6.90899e-23 0.033844 1.47512e-20 -0.101364)
(-0.271111 -0.000155108 3.31632e-21 0.0338284 -4.1949e-21 -0.0949131)
(-0.280755 0.00037325 3.39855e-21 0.033734 -1.34806e-20 -0.0988085)
(-0.263413 -0.000100142 -1.57182e-24 0.0337217 -3.6207e-21 -0.0918767)
(-0.273822 0.000332044 3.70742e-21 0.0336542 1.1026e-20 -0.0960671)
(-0.255335 -5.98366e-05 1.11143e-24 0.0336455 2.50454e-21 -0.0886756)
(-0.266448 0.000301444 3.83529e-21 0.0335945 -9.15463e-21 -0.0931414)
(-0.246876 -3.11538e-05 2.06561e-24 0.0335899 4.56294e-21 -0.0853143)
(-0.258631 0.000278816 3.97894e-21 0.0335468 3.28027e-21 -0.0900338)
(-0.238044 -1.14265e-05 -6.77253e-23 0.0335467 9.25538e-21 -0.0817987)
(-0.250373 0.000261972 -3.98035e-21 0.033505 -6.15603e-21 -0.0867472)
(-0.228851 1.5626e-06 7.90739e-21 0.0335096 3.61864e-21 -0.0781365)
(-0.241678 0.00024918 6.88435e-24 0.0334646 1.40848e-20 -0.0832854)
(-0.219315 9.57789e-06 -4.12306e-21 0.0334738 -8.76746e-24 -0.0743366)
(-0.232555 0.000239118 4.37075e-21 0.0334222 1.13408e-20 -0.0796532)
(-0.209459 1.39793e-05 4.28262e-21 0.0334358 1.09501e-21 -0.0704093)
(-0.223017 0.000230801 -8.78689e-21 0.0333757 -1.69776e-20 -0.0758567)
(-0.199308 1.57912e-05 -4.28256e-21 0.033393 -9.36443e-22 -0.066366)
(-0.213083 0.000223518 -4.51878e-21 0.0333234 2.03296e-20 -0.0719037)
(-0.188891 1.57727e-05 4.42265e-21 0.0333438 -2.69693e-21 -0.062219)
(-0.202775 0.000216764 -9.00375e-24 0.0332647 -1.75868e-20 -0.067804)
(-0.17824 1.44782e-05 5.41321e-24 0.033287 1.08686e-20 -0.0579814)
(-0.192122 0.000210201 -3.55339e-23 0.0331989 -3.02918e-21 -0.0635691)
(-0.167389 1.23048e-05 -9.28209e-21 0.0332221 -7.20903e-21 -0.0536668)
(-0.181158 0.000203614 9.66282e-21 0.0331261 2.36317e-21 -0.0592127)
(-0.156372 9.52733e-06 -4.08566e-24 0.0331489 -8.06426e-21 -0.0492892)
(-0.169923 0.000196889 2.94383e-23 0.0330462 9.78422e-21 -0.0547507)
(-0.145225 6.32578e-06 4.77751e-21 0.0330676 8.02325e-21 -0.0448629)
(-0.158462 0.000189991 2.52752e-23 0.0329597 8.72581e-21 -0.0502008)
(-0.133985 2.80631e-06 4.85447e-21 0.0329786 -6.46689e-23 -0.0404024)
(-0.146822 0.000182944 -5.18932e-21 0.0328669 -1.68784e-20 -0.0455821)
(-0.122689 -9.80145e-07 1.7508e-24 0.0328825 3.38703e-21 -0.0359228)
(-0.135057 0.000175815 5.18585e-21 0.0327684 1.02841e-20 -0.0409153)
(-0.111379 -5.02181e-06 6.99815e-23 0.0327801 4.71785e-21 -0.0314394)