/*--------------------------------*- C++ -*----------------------------------*\
| =========                 |                                                 |
| \\      /  F ield         | OpenFOAM Extend Project: Open source CFD        |
|  \\    /   O peration     | Version:  1.6-ext                               |
|   \\  /    A nd           | Web:      www.extend-project.de                 |
|    \\/     M anipulation  |                                                 |
\*---------------------------------------------------------------------------*/
FoamFile
{
    version     2.0;
    format      ascii;
    class       volVectorField;
    location    "0.15";
    object      DU;
}
// * * * * * * * * * * * * * * * * * * * * * * * * * * * * * * * * * * * * * //

dimensions      [0 1 0 0 0 0 0];

internalField   nonuniform List<vector> 
328
(
(-9.12524e-09 -2.01403e-08 0)
(-5.80882e-09 -4.24123e-09 0)
(-5.89695e-09 4.30938e-09 0)
(-9.58084e-09 2.0837e-08 0)
(-2.77728e-08 -5.16173e-08 0)
(-1.94613e-08 -1.22566e-08 0)
(-1.97693e-08 1.27332e-08 0)
(-2.91648e-08 5.3545e-08 0)
(-4.96052e-08 -7.49108e-08 0)
(-3.83505e-08 -1.96805e-08 0)
(-3.89728e-08 2.087e-08 0)
(-5.20587e-08 7.80453e-08 0)
(-7.34783e-08 -9.1282e-08 0)
(-6.07375e-08 -2.58874e-08 0)
(-6.17164e-08 2.81019e-08 0)
(-7.70628e-08 9.56984e-08 0)
(-9.97349e-08 -1.02379e-07 0)
(-8.69642e-08 -3.06449e-08 0)
(-8.83414e-08 3.42081e-08 0)
(-1.0452e-07 1.08248e-07 0)
(-1.28246e-07 -1.09465e-07 0)
(-1.1646e-07 -3.38715e-08 0)
(-1.18259e-07 3.91342e-08 0)
(-1.34283e-07 1.17039e-07 0)
(-1.59181e-07 -1.13576e-07 0)
(-1.49146e-07 -3.56663e-08 0)
(-1.51387e-07 4.30147e-08 0)
(-1.66515e-07 1.23182e-07 0)
(-1.92661e-07 -1.15478e-07 0)
(-1.84804e-07 -3.61957e-08 0)
(-1.87499e-07 4.60612e-08 0)
(-2.01324e-07 1.27512e-07 0)
(-2.28869e-07 -1.15759e-07 0)
(-2.23377e-07 -3.56688e-08 0)
(-2.26534e-07 4.85347e-08 0)
(-2.38888e-07 1.30682e-07 0)
(-2.6799e-07 -1.14847e-07 0)
(-2.64831e-07 -3.42859e-08 0)
(-2.68455e-07 5.06944e-08 0)
(-2.79379e-07 1.33188e-07 0)
(-3.10219e-07 -1.13049e-07 0)
(-3.09223e-07 -3.22197e-08 0)
(-3.13313e-07 5.27772e-08 0)
(-3.22984e-07 1.35404e-07 0)
(-3.55755e-07 -1.10572e-07 0)
(-3.5666e-07 -2.95992e-08 0)
(-3.61213e-07 5.49798e-08 0)
(-3.69887e-07 1.37607e-07 0)
(-4.04798e-07 -1.07539e-07 0)
(-4.07309e-07 -2.65064e-08 0)
(-4.12315e-07 5.74557e-08 0)
(-4.20274e-07 1.39992e-07 0)
(-4.57553e-07 -1.04008e-07 0)
(-4.61375e-07 -2.29797e-08 0)
(-4.6682e-07 6.03152e-08 0)
(-4.74331e-07 1.42689e-07 0)
(-5.14232e-07 -9.99865e-08 0)
(-5.19097e-07 -1.9022e-08 0)
(-5.24959e-07 6.36323e-08 0)
(-5.32248e-07 1.45775e-07 0)
(-5.75051e-07 -9.5448e-08 0)
(-5.80733e-07 -1.46112e-08 0)
(-5.86982e-07 6.74513e-08 0)
(-5.94216e-07 1.49291e-07 0)
(-6.40233e-07 -9.03471e-08 0)
(-6.46548e-07 -9.7119e-09 0)
(-6.53144e-07 7.17949e-08 0)
(-6.60428e-07 1.53248e-07 0)
(-7.10007e-07 -8.46337e-08 0)
(-7.16807e-07 -4.28623e-09 0)
(-7.23697e-07 7.66694e-08 0)
(-7.31078e-07 1.57641e-07 0)
(-7.84604e-07 -7.82665e-08 0)
(-7.91767e-07 1.69564e-09 0)
(-7.98888e-07 8.20685e-08 0)
(-8.06357e-07 1.62451e-07 0)
(-8.64261e-07 -7.12241e-08 0)
(-8.71677e-07 8.24671e-09 0)
(-8.78948e-07 8.79727e-08 0)
(-8.86453e-07 1.67651e-07 0)
(-9.49211e-07 -6.35145e-08 0)
(-9.56774e-07 1.5355e-08 0)
(-9.64097e-07 9.43472e-08 0)
(-9.71549e-07 1.73201e-07 0)
(-1.03969e-06 -5.51829e-08 0)
(-1.04728e-06 2.29762e-08 0)
(-1.05454e-06 1.01134e-07 0)
(-1.06182e-06 1.79046e-07 0)
(-1.1396e-06 -4.5981e-08 0)
(-1.14708e-06 3.13316e-08 0)
(-1.15413e-06 1.08516e-07 0)
(-1.16107e-06 1.85331e-07 0)
(-1.24544e-06 -3.64026e-08 0)
(-1.25264e-06 3.9951e-08 0)
(-1.25928e-06 1.16047e-07 0)
(-1.26571e-06 1.91644e-07 0)
(-1.35008e-06 -2.72896e-08 0)
(-1.35683e-06 4.8073e-08 0)
(-1.36292e-06 1.23053e-07 0)
(-1.36866e-06 1.9741e-07 0)
(-1.45346e-06 -1.88069e-08 0)
(-1.45961e-06 5.55365e-08 0)
(-1.46498e-06 1.29376e-07 0)
(-1.46989e-06 2.02473e-07 0)
(-1.5555e-06 -1.11103e-08 0)
(-1.56089e-06 6.21865e-08 0)
(-1.5654e-06 1.34862e-07 0)
(-1.56932e-06 2.06678e-07 0)
(-1.65614e-06 -4.34127e-09 0)
(-1.66062e-06 6.78761e-08 0)
(-1.66411e-06 1.39357e-07 0)
(-1.6669e-06 2.09868e-07 0)
(-1.75528e-06 1.36659e-09 0)
(-1.75871e-06 7.24642e-08 0)
(-1.76105e-06 1.42715e-07 0)
(-1.76256e-06 2.11887e-07 0)
(-1.85283e-06 5.88638e-09 0)
(-1.85508e-06 7.58155e-08 0)
(-1.85612e-06 1.4479e-07 0)
(-1.85623e-06 2.12583e-07 0)
(-1.9487e-06 9.09564e-09 0)
(-1.94962e-06 7.77991e-08 0)
(-1.94924e-06 1.45443e-07 0)
(-1.94781e-06 2.11809e-07 0)
(-2.04277e-06 1.08751e-08 0)
(-2.04223e-06 7.82879e-08 0)
(-2.0403e-06 1.44542e-07 0)
(-2.03722e-06 2.09421e-07 0)
(-2.13493e-06 1.11077e-08 0)
(-2.13281e-06 7.71582e-08 0)
(-2.1292e-06 1.41953e-07 0)
(-2.12434e-06 2.05283e-07 0)
(-2.22505e-06 9.67821e-09 0)
(-2.22123e-06 7.42894e-08 0)
(-2.21583e-06 1.37554e-07 0)
(-2.20907e-06 1.99266e-07 0)
(-2.313e-06 6.47333e-09 0)
(-2.30737e-06 6.9564e-08 0)
(-2.30007e-06 1.31221e-07 0)
(-2.29131e-06 1.91244e-07 0)
(-2.39867e-06 1.38231e-09 0)
(-2.39111e-06 6.28687e-08 0)
(-2.3818e-06 1.2284e-07 0)
(-2.37094e-06 1.81101e-07 0)
(-2.48191e-06 -5.70192e-09 0)
(-2.47233e-06 5.40947e-08 0)
(-2.46091e-06 1.12301e-07 0)
(-2.44785e-06 1.68728e-07 0)
(-2.5626e-06 -1.48811e-08 0)
(-2.55089e-06 4.31403e-08 0)
(-2.53729e-06 9.95024e-08 0)
(-2.52194e-06 1.54025e-07 0)
(-2.6406e-06 -2.62497e-08 0)
(-2.62669e-06 2.9912e-08 0)
(-2.61082e-06 8.43535e-08 0)
(-2.59311e-06 1.36904e-07 0)
(-2.71579e-06 -3.9893e-08 0)
(-2.69961e-06 1.43267e-08 0)
(-2.68139e-06 6.67741e-08 0)
(-2.66126e-06 1.17288e-07 0)
(-2.78804e-06 -5.58848e-08 0)
(-2.76952e-06 -3.68596e-09 0)
(-2.74892e-06 4.66978e-08 0)
(-2.72631e-06 9.51168e-08 0)
(-2.85724e-06 -7.42858e-08 0)
(-2.83634e-06 -2.4182e-08 0)
(-2.8133e-06 2.40738e-08 0)
(-2.78819e-06 7.03448e-08 0)
(-2.92327e-06 -9.51419e-08 0)
(-2.89995e-06 -4.72018e-08 0)
(-2.87446e-06 -1.13212e-09 0)
(-2.84681e-06 4.29442e-08 0)
(-2.98604e-06 -1.18484e-07 0)
(-2.96028e-06 -7.27692e-08 0)
(-2.93232e-06 -2.89369e-08 0)
(-2.90214e-06 1.29051e-08 0)
(-3.04546e-06 -1.44327e-07 0)
(-3.01726e-06 -1.00891e-07 0)
(-2.98682e-06 -5.93401e-08 0)
(-2.95412e-06 -1.97648e-08 0)
(-3.10145e-06 -1.7267e-07 0)
(-3.07081e-06 -1.31559e-07 0)
(-3.03792e-06 -9.23242e-08 0)
(-3.00272e-06 -5.50401e-08 0)
(-3.15394e-06 -2.035e-07 0)
(-3.12089e-06 -1.64748e-07 0)
(-3.08557e-06 -1.27856e-07 0)
(-3.04791e-06 -9.28798e-08 0)
(-3.2029e-06 -2.36789e-07 0)
(-3.16746e-06 -2.00421e-07 0)
(-3.12975e-06 -1.65889e-07 0)
(-3.08968e-06 -1.33229e-07 0)
(-3.24828e-06 -2.72499e-07 0)
(-3.2105e-06 -2.3853e-07 0)
(-3.17046e-06 -2.06365e-07 0)
(-3.12803e-06 -1.76019e-07 0)
(-3.29009e-06 -3.10584e-07 0)
(-3.25001e-06 -2.79017e-07 0)
(-3.20768e-06 -2.49215e-07 0)
(-3.16298e-06 -2.21173e-07 0)
(-3.32831e-06 -3.5099e-07 0)
(-3.28599e-06 -3.21816e-07 0)
(-3.24145e-06 -2.94364e-07 0)
(-3.19454e-06 -2.68606e-07 0)
(-3.36297e-06 -3.93657e-07 0)
(-3.31848e-06 -3.66856e-07 0)
(-3.2718e-06 -3.41729e-07 0)
(-3.22277e-06 -3.18226e-07 0)
(-3.39411e-06 -4.3852e-07 0)
(-3.34751e-06 -4.14062e-07 0)
(-3.29877e-06 -3.91224e-07 0)
(-3.24772e-06 -3.69935e-07 0)
(-3.42178e-06 -4.8551e-07 0)
(-3.37314e-06 -4.63353e-07 0)
(-3.32243e-06 -4.42758e-07 0)
(-3.26945e-06 -4.23633e-07 0)
(-3.44605e-06 -5.34555e-07 0)
(-3.39546e-06 -5.14646e-07 0)
(-3.34286e-06 -4.96237e-07 0)
(-3.28805e-06 -4.79214e-07 0)
(-3.467e-06 -5.85575e-07 0)
(-3.41454e-06 -5.6785e-07 0)
(-3.36015e-06 -5.51559e-07 0)
(-3.30363e-06 -5.36568e-07 0)
(-3.48474e-06 -6.38487e-07 0)
(-3.43051e-06 -6.22872e-07 0)
(-3.37443e-06 -6.08622e-07 0)
(-3.31629e-06 -5.95582e-07 0)
(-3.49939e-06 -6.932e-07 0)
(-3.44347e-06 -6.79613e-07 0)
(-3.3858e-06 -6.67315e-07 0)
(-3.32616e-06 -6.56134e-07 0)
(-3.51106e-06 -7.49619e-07 0)
(-3.45356e-06 -7.37964e-07 0)
(-3.39442e-06 -7.27522e-07 0)
(-3.3334e-06 -7.18102e-07 0)
(-3.51992e-06 -8.0764e-07 0)
(-3.46093e-06 -7.97815e-07 0)
(-3.40043e-06 -7.89122e-07 0)
(-3.33816e-06 -7.81355e-07 0)
(-3.52611e-06 -8.67154e-07 0)
(-3.46575e-06 -8.59046e-07 0)
(-3.40399e-06 -8.51989e-07 0)
(-3.34059e-06 -8.45761e-07 0)
(-3.5298e-06 -9.28046e-07 0)
(-3.46819e-06 -9.21537e-07 0)
(-3.40529e-06 -9.15994e-07 0)
(-3.34088e-06 -9.11184e-07 0)
(-3.53119e-06 -9.90202e-07 0)
(-3.46843e-06 -9.85161e-07 0)
(-3.40451e-06 -9.81005e-07 0)
(-3.33921e-06 -9.77489e-07 0)
(-3.53047e-06 -1.0535e-06 0)
(-3.46666e-06 -1.0498e-06 0)
(-3.40183e-06 -1.04689e-06 0)
(-3.33577e-06 -1.04454e-06 0)
(-3.52784e-06 -1.11783e-06 0)
(-3.46309e-06 -1.11532e-06 0)
(-3.39747e-06 -1.11354e-06 0)
(-3.33075e-06 -1.11221e-06 0)
(-3.52352e-06 -1.18309e-06 0)
(-3.45793e-06 -1.18162e-06 0)
(-3.39161e-06 -1.18081e-06 0)
(-3.32434e-06 -1.18039e-06 0)
(-3.51773e-06 -1.24916e-06 0)
(-3.45139e-06 -1.2486e-06 0)
(-3.38446e-06 -1.24862e-06 0)
(-3.31675e-06 -1.24895e-06 0)
(-3.51069e-06 -1.31595e-06 0)
(-3.44369e-06 -1.31614e-06 0)
(-3.37624e-06 -1.31685e-06 0)
(-3.30816e-06 -1.31781e-06 0)
(-3.50262e-06 -1.38339e-06 0)
(-3.43505e-06 -1.38418e-06 0)
(-3.36715e-06 -1.38543e-06 0)
(-3.29878e-06 -1.38688e-06 0)
(-3.49376e-06 -1.45139e-06 0)
(-3.42567e-06 -1.45263e-06 0)
(-3.3574e-06 -1.45429e-06 0)
(-3.28881e-06 -1.45609e-06 0)
(-3.48432e-06 -1.51989e-06 0)
(-3.41578e-06 -1.52145e-06 0)
(-3.34719e-06 -1.52336e-06 0)
(-3.27844e-06 -1.52538e-06 0)
(-3.47451e-06 -1.58884e-06 0)
(-3.40558e-06 -1.59056e-06 0)
(-3.33673e-06 -1.5926e-06 0)
(-3.26786e-06 -1.59472e-06 0)
(-3.46455e-06 -1.65819e-06 0)
(-3.39528e-06 -1.65994e-06 0)
(-3.3262e-06 -1.66198e-06 0)
(-3.25725e-06 -1.66405e-06 0)
(-3.45464e-06 -1.72788e-06 0)
(-3.38506e-06 -1.72954e-06 0)
(-3.3158e-06 -1.73145e-06 0)
(-3.2468e-06 -1.73337e-06 0)
(-3.44495e-06 -1.79789e-06 0)
(-3.37511e-06 -1.79934e-06 0)
(-3.30571e-06 -1.80099e-06 0)
(-3.23668e-06 -1.80265e-06 0)
(-3.43566e-06 -1.86817e-06 0)
(-3.3656e-06 -1.86929e-06 0)
(-3.29607e-06 -1.87059e-06 0)
(-3.22704e-06 -1.87187e-06 0)
(-3.42693e-06 -1.93868e-06 0)
(-3.35668e-06 -1.93937e-06 0)
(-3.28706e-06 -1.94021e-06 0)
(-3.21804e-06 -1.94103e-06 0)
(-3.4189e-06 -2.00938e-06 0)
(-3.34849e-06 -2.00955e-06 0)
(-3.27881e-06 -2.00985e-06 0)
(-3.20981e-06 -2.01012e-06 0)
(-3.4117e-06 -2.08023e-06 0)
(-3.34116e-06 -2.0798e-06 0)
(-3.27143e-06 -2.07949e-06 0)
(-3.20247e-06 -2.07913e-06 0)
(-3.40547e-06 -2.15119e-06 0)
(-3.33481e-06 -2.1501e-06 0)
(-3.26504e-06 -2.14912e-06 0)
(-3.19614e-06 -2.14808e-06 0)
(-3.40022e-06 -2.22224e-06 0)
(-3.32944e-06 -2.22043e-06 0)
(-3.25966e-06 -2.21872e-06 0)
(-3.19084e-06 -2.21694e-06 0)
(-3.39622e-06 -2.29327e-06 0)
(-3.32533e-06 -2.29074e-06 0)
(-3.25553e-06 -2.28829e-06 0)
(-3.18682e-06 -2.28579e-06 0)
)
;

boundaryField
{
    plateFix
    {
        type            fixedDisplacement;
        value           uniform (0 0 0);
    }
    plate
    {
        type            solidTraction;
        nonLinear       updatedLagrangian;
        traction        nonuniform List<vector> 
168
(
(-0.000491112 -0.000675565 2.59289e-20)
(-0.000491638 0.000679941 -2.51148e-20)
(-0.00263589 -0.0022505 -1.9153e-21)
(-0.00264736 0.00226347 3.07134e-20)
(-0.00683871 -0.00320088 -3.04382e-20)
(-0.00686954 0.00321756 -7.03645e-24)
(-0.0121901 -0.00360665 1.71936e-23)
(-0.012244 0.00362421 0)
(-0.0181004 -0.0036359 2.38704e-20)
(-0.0181781 0.00365289 1.61873e-21)
(-0.0241952 -0.00343777 0)
(-0.0242961 0.00345367 2.43904e-20)
(-0.0301704 -0.00313076 2.29872e-20)
(-0.0302927 0.00314563 -4.57793e-20)
(-0.0357912 -0.00278821 -2.12372e-20)
(-0.0359325 0.00280234 2.13502e-20)
(-0.0408721 -0.00244042 2.07141e-20)
(-0.0410296 0.00245414 -2.55669e-21)
(-0.0452444 -0.00208703 -1.89135e-20)
(-0.0454149 0.00210054 0)
(-0.0487306 -0.00171049 0)
(-0.0489106 0.0017238 0)
(-0.0511306 -0.00128763 1.35942e-20)
(-0.0513165 0.0013006 -1.79982e-20)
(-0.0522209 -0.000798528 -1.60818e-20)
(-0.0524086 0.000810897 3.09057e-21)
(-0.051767 -0.000232805 0)
(-0.0519523 0.000244214 1.53417e-20)
(-0.0495483 0.000406182 0)
(-0.0497272 -0.000396133 1.92667e-20)
(-0.0453929 0.0010989 3.48126e-21)
(-0.0455617 -0.00109063 -1.72789e-20)
(-0.0392138 0.00180953 -2.04518e-20)
(-0.0393699 -0.00180348 -6.60736e-21)
(-0.0310518 0.00248751 3.20088e-20)
(-0.0311934 -0.00248417 6.20665e-21)
(-0.0210808 0.00307718 -2.26917e-20)
(-0.0212075 -0.0030771 5.78931e-21)
(-0.00966735 0.0035119 -2.75683e-20)
(-0.00978002 -0.00351578 -5.35126e-21)
(0.00274264 0.00376001 3.94893e-20)
(0.00264206 -0.00376859 0)
(0.0155177 0.00370167 -2.62829e-20)
(0.0154263 -0.0037159 0)
(0.0282356 0.00335824 0)
(0.0281511 -0.00337979 1.60333e-20)
(0.0399583 0.00281407 0)
(0.0398789 -0.00284314 -1.59907e-20)
(0.0499697 0.00217887 0)
(0.0498941 -0.00221556 6.43875e-23)
(0.058054 0.00161766 0)
(0.0579823 -0.00166169 1.66415e-20)
(0.0644494 0.00112933 6.47863e-23)
(0.064383 -0.0011802 -1.66594e-20)
(0.0693033 0.000739939 0)
(0.0692441 -0.000796934 0)
(0.0728888 0.000439016 1.60225e-23)
(0.0728392 -0.000501359 -1.28813e-22)
(0.0754365 0.000216238 1.61436e-20)
(0.075399 -0.000283144 1.63359e-20)
(0.0771767 5.65733e-05 -1.62241e-20)
(0.0771535 -0.000127312 -1.64789e-20)
(0.0783016 -5.37631e-05 -1.55467e-23)
(0.0782946 -2.01619e-05 0)
(0.078973 -0.000126874 7.74644e-21)
(0.0789839 5.03122e-05 -7.90835e-21)
(0.0793191 -0.000172589 -7.89203e-21)
(0.0793488 9.3849e-05 1.08503e-22)
(0.0794391 -0.000198603 7.62589e-21)
(0.0794886 0.000118061 7.63395e-21)
(0.0794081 -0.000210763 -8.8245e-23)
(0.0794778 0.000128728 -1.18847e-22)
(0.0792811 -0.000213417 -9.95276e-23)
(0.0793712 0.000130147 -1.1737e-22)
(0.0790981 -0.000209739 -7.41869e-21)
(0.0792084 0.000125449 0)
(0.0788875 -0.000202012 -7.25373e-21)
(0.0790177 0.000116889 1.14572e-22)
(0.0786687 -0.00019186 1.43793e-20)
(0.0788184 0.000106065 -5.66682e-23)
(0.0784551 -0.000180427 -7.19591e-21)
(0.0786236 9.41024e-05 -7.12204e-21)
(0.0782553 -0.000168511 0)
(0.0784418 8.17811e-05 7.129e-21)
(0.0780745 -0.000156657 -5.46218e-23)
(0.0782781 6.96309e-05 0)
(0.0779155 -0.000145228 6.83346e-21)
(0.0781351 5.7995e-05 0)
(0.0777794 -0.000134444 -6.89563e-21)
(0.0780138 4.70785e-05 6.94281e-21)
(0.0776662 -0.000124423 5.30786e-23)
(0.0779144 3.69797e-05 -6.89504e-21)
(0.0775754 -0.000115205 -1.31557e-23)
(0.077836 2.77199e-05 1.58e-22)
(0.077506 -0.000106769 -5.21332e-23)
(0.0777777 1.92629e-05 0)
(0.077457 -9.90567e-05 -6.46039e-23)
(0.0777384 1.15353e-05 6.53002e-21)
(0.0774275 -9.19841e-05 6.52682e-21)
(0.0777171 4.44057e-06 -6.58765e-21)
(0.0774165 -8.54506e-05 -6.52214e-21)
(0.0777131 -2.12932e-06 5.07334e-23)
(0.0774236 -7.93494e-05 -6.36619e-21)
(0.0777257 -8.28585e-06 -1.00585e-22)
(0.0774485 -7.35702e-05 6.37461e-21)
(0.0777547 -1.41394e-05 -6.34573e-21)
(0.0774911 -6.80036e-05 -6.24667e-21)
(0.0778 -1.97969e-05 1.26394e-20)
(0.0775517 -6.25419e-05 6.26744e-21)
(0.0778618 -2.53613e-05 -1.25243e-20)
(0.0776309 -5.70787e-05 6.20156e-21)
(0.0779409 -3.09338e-05 6.28456e-21)
(0.0777296 -5.15085e-05 -6.20948e-21)
(0.0780379 -3.66146e-05 -2.96198e-21)
(0.0778489 -4.57241e-05 0)
(0.0781542 -4.25076e-05 6.08993e-21)
(0.0779903 -3.96164e-05 1.18596e-23)
(0.0782911 -4.87216e-05 -6.03218e-21)
(0.0781558 -3.30677e-05 4.70093e-23)
(0.0784508 -5.53769e-05 2.95618e-21)
(0.0783476 -2.59528e-05 -2.96495e-21)
(0.0786353 -6.26061e-05 -4.62158e-23)
(0.0785687 -1.81275e-05 5.8479e-21)
(0.0788476 -7.05629e-05 4.5752e-23)
(0.0788223 -9.43025e-06 -2.88349e-21)
(0.0790911 -7.94221e-05 2.88127e-21)
(0.0791126 3.37828e-07 -4.5246e-23)
(0.0793697 -8.93971e-05 -2.88362e-21)
(0.0794445 1.14087e-05 2.85954e-21)
(0.0796883 -0.000100734 -2.95134e-21)
(0.0798237 2.40842e-05 -2.84105e-21)
(0.0800528 -0.00011375 2.82069e-21)
(0.0802575 3.87261e-05 -2.7849e-21)
(0.0804702 -0.000128818 4.32896e-23)
(0.0807547 5.58286e-05 4.80907e-23)
(0.0809492 -0.000146443 0)
(0.0813258 7.60009e-05 2.72292e-21)
(0.0815005 -0.000167244 -4.21992e-23)
(0.0819844 0.000100113 1.35025e-21)
(0.0821371 -0.000192098 4.15866e-23)
(0.0827473 0.000129289 -1.37271e-21)
(0.0828758 -0.000222139 4.10127e-23)
(0.0836359 0.000165224 1.29959e-21)
(0.0837377 -0.000259076 -4.03725e-23)
(0.0846789 0.000210286 -2.57879e-21)
(0.0847511 -0.000305295 -1.25795e-21)
(0.0859128 0.000268439 1.26929e-21)
(0.0859517 -0.000364795 1.25895e-21)
(0.0873928 0.00034579 0)
(0.087394 -0.00044373 -3.80801e-23)
(0.0891847 0.000455349 5.99468e-22)
(0.0891427 -0.000555171 0)
(0.0914235 0.000617027 -5.91043e-22)
(0.0913306 -0.000719052 -5.73451e-22)
(0.0942228 0.000899409 -8.96297e-24)
(0.0940688 -0.0010038 5.73901e-22)
(0.0981017 0.00136727 5.43114e-22)
(0.0978672 -0.00147337 0)
(0.102967 0.00256698 -2.93308e-22)
(0.102632 -0.00266837 0)
(0.112343 0.00443642 -1.40165e-22)
(0.111802 -0.00452281 -2.34077e-22)
(0.121285 0.0127538 -1.47978e-22)
(0.0237627 0.00689909 -3.67513e-22)
(-0.00323756 -0.0101782 3.3008e-22)
(-0.00328694 0.00987534 1.53552e-22)
(0.0238979 -0.00705159 -3.51419e-22)
(0.120592 -0.0127015 9.85399e-23)
)
;
        pressure        nonuniform List<scalar> 
168
(
0.326362
0.328179
0.322295
0.324092
0.319507
0.321293
0.318426
0.320212
0.319174
0.320968
0.322029
0.323842
0.327191
0.329032
0.33482
0.336701
0.345109
0.347039
0.358288
0.360279
0.374623
0.376687
0.394379
0.396528
0.417778
0.420024
0.444932
0.447287
0.475775
0.478249
0.509999
0.512599
0.546999
0.549728
0.585832
0.588691
0.625285
0.62827
0.663784
0.666886
0.69988
0.703087
0.731759
0.735057
0.758777
0.762154
0.779873
0.783315
0.792313
0.795801
0.798529
0.802048
0.799331
0.802869
0.79627
0.799815
0.790307
0.793847
0.782385
0.785909
0.77318
0.776678
0.763235
0.766694
0.752937
0.756346
0.742569
0.745916
0.732323
0.735595
0.722326
0.725509
0.712653
0.715737
0.703345
0.706317
0.694417
0.697266
0.685867
0.688583
0.67768
0.680253
0.669835
0.672256
0.662306
0.664568
0.655062
0.65716
0.648076
0.650005
0.641318
0.643075
0.63476
0.636344
0.628375
0.629786
0.622139
0.623378
0.616031
0.617099
0.610028
0.61093
0.604112
0.604851
0.598266
0.598846
0.592473
0.5929
0.586719
0.586998
0.580988
0.581124
0.575268
0.575267
0.569542
0.569411
0.563798
0.563543
0.558021
0.557648
0.552195
0.551712
0.546304
0.545719
0.540331
0.539652
0.534256
0.533492
0.528058
0.527219
0.521713
0.520809
0.515196
0.514237
0.508475
0.507471
0.501514
0.500477
0.494273
0.493214
0.486701
0.485632
0.478739
0.477672
0.470314
0.469263
0.461331
0.460311
0.451679
0.450706
0.441185
0.440277
0.429673
0.428852
0.416692
0.415986
0.40213
0.401572
0.383665
0.383326
0.364278
0.364198
0.322698
0.256366
0.322056
0.322252
0.25722
0.323418
)
;
        value           nonuniform List<vector> 
168
(
(-9.73245e-08 -5.37549e-08 -2.64175e-27)
(-1.01111e-07 5.59777e-08 -2.86725e-26)
(-9.18253e-08 -8.63786e-08 2.73971e-28)
(-9.6156e-08 8.98645e-08 3.16193e-26)
(-9.28603e-08 -1.11358e-07 -2.43548e-26)
(-9.81059e-08 1.16085e-07 -1.62591e-27)
(-1.01392e-07 -1.28474e-07 1.74383e-26)
(-1.07827e-07 1.34467e-07 -1.20672e-26)
(-1.16952e-07 -1.40215e-07 4.41884e-27)
(-1.2479e-07 1.47628e-07 -1.55948e-27)
(-1.38123e-07 -1.47725e-07 1.3712e-27)
(-1.47512e-07 1.56795e-07 2.25554e-26)
(-1.64127e-07 -1.5221e-07 1.52133e-26)
(-1.75174e-07 1.63252e-07 -1.91079e-26)
(-1.94349e-07 -1.54434e-07 -1.43921e-26)
(-2.07126e-07 1.67835e-07 1.00967e-26)
(-2.28461e-07 -1.55012e-07 9.13122e-27)
(-2.43015e-07 1.71229e-07 1.62588e-28)
(-2.66269e-07 -1.54367e-07 -9.22012e-27)
(-2.82629e-07 1.73922e-07 7.48969e-27)
(-3.07705e-07 -1.52803e-07 1.19672e-27)
(-3.25881e-07 1.76288e-07 -7.81125e-27)
(-3.52775e-07 -1.50519e-07 -2.44654e-27)
(-3.72759e-07 1.78595e-07 -6.94923e-27)
(-4.0155e-07 -1.47635e-07 9.65685e-27)
(-4.23309e-07 1.81035e-07 1.86521e-27)
(-4.54144e-07 -1.44203e-07 -7.29409e-27)
(-4.77622e-07 1.83732e-07 3.31455e-27)
(-5.10711e-07 -1.40231e-07 -2.98007e-28)
(-5.35823e-07 1.86762e-07 8.25531e-27)
(-5.71435e-07 -1.35688e-07 -1.09461e-27)
(-5.9806e-07 1.90162e-07 -1.34038e-26)
(-6.36523e-07 -1.30528e-07 -3.27441e-27)
(-6.64502e-07 1.93943e-07 -1.93096e-27)
(-7.06199e-07 -1.24698e-07 2.77802e-26)
(-7.35326e-07 1.98096e-07 -9.35578e-28)
(-7.80702e-07 -1.18155e-07 -1.86697e-26)
(-8.10713e-07 2.02601e-07 7.0879e-27)
(-8.60272e-07 -1.10879e-07 -7.78368e-27)
(-8.90846e-07 2.07431e-07 -1.6005e-27)
(-9.4516e-07 -1.02878e-07 1.14189e-26)
(-9.75902e-07 2.12548e-07 -1.17395e-26)
(-1.03561e-06 -9.42005e-08 -1.41176e-26)
(-1.06604e-06 2.17899e-07 -1.43047e-27)
(-1.13556e-06 -8.45887e-08 8.1493e-27)
(-1.16508e-06 2.23616e-07 1.56083e-26)
(-1.24151e-06 -7.45429e-08 -9.27707e-27)
(-1.2694e-06 2.29298e-07 1.07669e-27)
(-1.34633e-06 -6.49491e-08 9.24623e-27)
(-1.37195e-06 2.34424e-07 -6.0319e-27)
(-1.44998e-06 -5.59723e-08 -1.22633e-26)
(-1.47269e-06 2.38839e-07 6.15414e-27)
(-1.55236e-06 -4.77686e-08 1.19165e-26)
(-1.57157e-06 2.42389e-07 -1.09658e-26)
(-1.65341e-06 -4.04761e-08 -1.56714e-27)
(-1.66852e-06 2.44912e-07 1.07412e-26)
(-1.75304e-06 -3.42247e-08 -1.35702e-27)
(-1.76349e-06 2.46249e-07 -9.91155e-27)
(-1.85116e-06 -2.91367e-08 5.12035e-27)
(-1.8564e-06 2.46242e-07 8.98709e-27)
(-1.94767e-06 -2.53303e-08 3.9891e-27)
(-1.94717e-06 2.44741e-07 -5.81105e-27)
(-2.04245e-06 -2.29207e-08 -7.40171e-27)
(-2.0357e-06 2.41598e-07 -1.89984e-27)
(-2.13538e-06 -2.20216e-08 6.7034e-27)
(-2.12189e-06 2.36675e-07 -1.76244e-27)
(-2.22633e-06 -2.27456e-08 -5.43873e-27)
(-2.20563e-06 2.29838e-07 1.25146e-27)
(-2.31519e-06 -2.52039e-08 4.55063e-27)
(-2.28683e-06 2.20962e-07 2.23396e-27)
(-2.40181e-06 -2.95059e-08 -1.64191e-27)
(-2.36536e-06 2.09929e-07 4.65518e-27)
(-2.48607e-06 -3.57578e-08 3.07624e-27)
(-2.44113e-06 1.96631e-07 2.11143e-27)
(-2.56782e-06 -4.40611e-08 -7.01586e-27)
(-2.51403e-06 1.80969e-07 -1.07733e-28)
(-2.64693e-06 -5.45107e-08 -5.64039e-27)
(-2.58397e-06 1.62856e-07 6.30047e-28)
(-2.72327e-06 -6.71929e-08 8.42534e-27)
(-2.65086e-06 1.42218e-07 -5.50848e-28)
(-2.7967e-06 -8.2183e-08 -1.0187e-26)
(-2.71462e-06 1.18997e-07 -1.23091e-27)
(-2.86711e-06 -9.9544e-08 8.8145e-27)
(-2.77519e-06 9.31513e-08 5.39265e-27)
(-2.93438e-06 -1.19325e-07 1.5249e-27)
(-2.8325e-06 6.46554e-08 -3.65169e-27)
(-2.99839e-06 -1.41559e-07 -1.03811e-27)
(-2.88651e-06 3.35031e-08 -4.03313e-27)
(-3.05905e-06 -1.66266e-07 -4.87767e-27)
(-2.93719e-06 -2.9417e-10 3.98518e-27)
(-3.11628e-06 -1.9345e-07 -4.38706e-27)
(-2.98449e-06 -3.67074e-08 -5.89438e-29)
(-3.17001e-06 -2.23101e-07 8.29901e-27)
(-3.02842e-06 -7.56915e-08 1.73193e-27)
(-3.22018e-06 -2.55198e-07 -4.98123e-27)
(-3.06895e-06 -1.17187e-07 2.33224e-27)
(-3.26676e-06 -2.89709e-07 3.1765e-27)
(-3.10611e-06 -1.61123e-07 -5.66609e-27)
(-3.30974e-06 -3.26592e-07 -8.38228e-28)
(-3.1399e-06 -2.07416e-07 5.50178e-27)
(-3.3491e-06 -3.658e-07 -1.85378e-27)
(-3.17035e-06 -2.55977e-07 -4.29339e-27)
(-3.38487e-06 -4.07277e-07 -2.05523e-27)
(-3.19751e-06 -3.0671e-07 -2.72964e-27)
(-3.41709e-06 -4.50966e-07 -7.07083e-28)
(-3.22144e-06 -3.59511e-07 2.0737e-27)
(-3.4458e-06 -4.96803e-07 2.84051e-27)
(-3.24221e-06 -4.14275e-07 2.9838e-27)
(-3.47107e-06 -5.4472e-07 4.91678e-27)
(-3.2599e-06 -4.70892e-07 -1.10754e-27)
(-3.49299e-06 -5.94643e-07 1.60809e-28)
(-3.27462e-06 -5.29245e-07 2.80707e-27)
(-3.51165e-06 -6.46495e-07 -4.11261e-27)
(-3.28648e-06 -5.89217e-07 -5.54203e-27)
(-3.52717e-06 -7.00189e-07 -2.15397e-27)
(-3.29563e-06 -6.50682e-07 4.4722e-27)
(-3.53967e-06 -7.55634e-07 1.78255e-27)
(-3.30219e-06 -7.13513e-07 -2.47026e-27)
(-3.5493e-06 -8.12733e-07 2.00013e-27)
(-3.30634e-06 -7.77575e-07 2.54623e-28)
(-3.55621e-06 -8.71379e-07 -2.16571e-27)
(-3.30824e-06 -8.42734e-07 -1.533e-27)
(-3.56057e-06 -9.31464e-07 -7.22436e-28)
(-3.30806e-06 -9.08849e-07 2.97762e-29)
(-3.56256e-06 -9.92874e-07 4.79181e-27)
(-3.30599e-06 -9.75784e-07 9.83535e-28)
(-3.56239e-06 -1.0555e-06 -1.60188e-27)
(-3.30221e-06 -1.0434e-06 -1.15075e-27)
(-3.56025e-06 -1.11922e-06 2.84645e-27)
(-3.29691e-06 -1.11158e-06 2.70205e-28)
(-3.55636e-06 -1.18394e-06 -1.44386e-27)
(-3.29028e-06 -1.18019e-06 6.62793e-28)
(-3.55096e-06 -1.24955e-06 2.46677e-27)
(-3.28252e-06 -1.24912e-06 -1.17081e-27)
(-3.54426e-06 -1.31596e-06 -1.04154e-27)
(-3.27381e-06 -1.31828e-06 1.43846e-27)
(-3.5365e-06 -1.38309e-06 -1.63923e-28)
(-3.26435e-06 -1.38759e-06 -1.30617e-27)
(-3.5279e-06 -1.45085e-06 -6.24734e-28)
(-3.25432e-06 -1.45697e-06 6.75694e-28)
(-3.5187e-06 -1.51919e-06 -2.55565e-28)
(-3.24392e-06 -1.52637e-06 3.46918e-28)
(-3.50912e-06 -1.58805e-06 3.04804e-27)
(-3.23333e-06 -1.59575e-06 1.353e-27)
(-3.49935e-06 -1.65737e-06 -1.26972e-27)
(-3.22273e-06 -1.66507e-06 2.20261e-27)
(-3.4896e-06 -1.72711e-06 -4.56301e-28)
(-3.2123e-06 -1.73431e-06 -1.15823e-27)
(-3.48006e-06 -1.79722e-06 1.1047e-27)
(-3.2022e-06 -1.80346e-06 2.64802e-27)
(-3.4709e-06 -1.86765e-06 -7.84306e-29)
(-3.1926e-06 -1.8725e-06 2.78574e-28)
(-3.46229e-06 -1.93837e-06 1.93888e-27)
(-3.18364e-06 -1.94142e-06 8.73236e-29)
(-3.45435e-06 -2.00932e-06 1.10232e-27)
(-3.17546e-06 -2.01024e-06 -7.24406e-29)
(-3.44723e-06 -2.08046e-06 -2.86626e-27)
(-3.16817e-06 -2.07894e-06 -2.66878e-27)
(-3.44105e-06 -2.15174e-06 -9.10765e-29)
(-3.16189e-06 -2.14755e-06 -2.13336e-27)
(-3.43584e-06 -2.22316e-06 -1.89745e-27)
(-3.15663e-06 -2.21603e-06 1.69806e-27)
(-3.43189e-06 -2.29453e-06 -1.67904e-28)
(-3.39461e-06 -2.32887e-06 -4.82572e-28)
(-3.32366e-06 -2.32593e-06 4.11027e-28)
(-3.25386e-06 -2.32302e-06 -2.69086e-27)
(-3.18521e-06 -2.32011e-06 -2.4491e-29)
(-3.15269e-06 -2.28454e-06 1.69125e-28)
)
;
    }
    frontAndBackPlanes
    {
        type            empty;
    }
}


// ************************************************************************* //
