/*--------------------------------*- C++ -*----------------------------------*\
| =========                 |                                                 |
| \\      /  F ield         | OpenFOAM Extend Project: Open source CFD        |
|  \\    /   O peration     | Version:  1.6-ext                               |
|   \\  /    A nd           | Web:      www.extend-project.de                 |
|    \\/     M anipulation  |                                                 |
\*---------------------------------------------------------------------------*/
FoamFile
{
    version     2.0;
    format      ascii;
    class       volVectorField;
    location    "0.15";
    object      DU_0;
}
// * * * * * * * * * * * * * * * * * * * * * * * * * * * * * * * * * * * * * //

dimensions      [0 1 0 0 0 0 0];

internalField   nonuniform List<vector> 
328
(
(-7.88278e-09 -1.77013e-08 0)
(-4.98168e-09 -3.7333e-09 0)
(-5.06876e-09 3.79949e-09 0)
(-8.32839e-09 1.83775e-08 0)
(-2.39875e-08 -4.53671e-08 0)
(-1.67257e-08 -1.07778e-08 0)
(-1.70293e-08 1.12412e-08 0)
(-2.53491e-08 4.7241e-08 0)
(-4.28707e-08 -6.58329e-08 0)
(-3.30585e-08 -1.72885e-08 0)
(-3.36703e-08 1.84458e-08 0)
(-4.52703e-08 6.88831e-08 0)
(-6.35243e-08 -8.0198e-08 0)
(-5.24494e-08 -2.27121e-08 0)
(-5.34111e-08 2.48687e-08 0)
(-6.70313e-08 8.45005e-08 0)
(-8.62469e-08 -8.99029e-08 0)
(-7.51971e-08 -2.68415e-08 0)
(-7.65495e-08 3.03151e-08 0)
(-9.09307e-08 9.56282e-08 0)
(-1.10921e-07 -9.60514e-08 0)
(-1.00795e-07 -2.96012e-08 0)
(-1.02563e-07 3.47374e-08 0)
(-1.16834e-07 1.0345e-07 0)
(-1.3769e-07 -9.95476e-08 0)
(-1.2917e-07 -3.10747e-08 0)
(-1.31372e-07 3.82547e-08 0)
(-1.44878e-07 1.08943e-07 0)
(-1.66653e-07 -1.0106e-07 0)
(-1.60121e-07 -3.14043e-08 0)
(-1.6277e-07 4.10544e-08 0)
(-1.75152e-07 1.12844e-07 0)
(-1.97964e-07 -1.01098e-07 0)
(-1.93588e-07 -3.07697e-08 0)
(-1.96694e-07 4.33684e-08 0)
(-2.07802e-07 1.15728e-07 0)
(-2.31772e-07 -1.00034e-07 0)
(-2.29531e-07 -2.93426e-08 0)
(-2.33098e-07 4.5427e-08 0)
(-2.42968e-07 1.18032e-07 0)
(-2.68235e-07 -9.81289e-08 0)
(-2.67981e-07 -2.72704e-08 0)
(-2.72011e-07 4.74413e-08 0)
(-2.80798e-07 1.20086e-07 0)
(-3.07509e-07 -9.55565e-08 0)
(-3.09014e-07 -2.4661e-08 0)
(-3.13505e-07 4.95875e-08 0)
(-3.21432e-07 1.22133e-07 0)
(-3.49745e-07 -9.24161e-08 0)
(-3.52752e-07 -2.1581e-08 0)
(-3.57695e-07 5.20033e-08 0)
(-3.6501e-07 1.24344e-07 0)
(-3.95093e-07 -8.87477e-08 0)
(-3.99342e-07 -1.80577e-08 0)
(-4.04725e-07 5.47888e-08 0)
(-4.11663e-07 1.26832e-07 0)
(-4.43699e-07 -8.45467e-08 0)
(-4.48957e-07 -1.40868e-08 0)
(-4.54758e-07 5.80113e-08 0)
(-4.61516e-07 1.29663e-07 0)
(-4.95704e-07 -7.97771e-08 0)
(-5.0177e-07 -9.64151e-09 0)
(-5.07963e-07 6.17126e-08 0)
(-5.14684e-07 1.32869e-07 0)
(-5.51242e-07 -7.43859e-08 0)
(-5.57953e-07 -4.68291e-09 0)
(-5.64499e-07 6.59147e-08 0)
(-5.71273e-07 1.36458e-07 0)
(-6.10438e-07 -6.83161e-08 0)
(-6.17661e-07 8.29876e-10 0)
(-6.2451e-07 7.06254e-08 0)
(-6.31372e-07 1.40422e-07 0)
(-6.73403e-07 -6.15194e-08 0)
(-6.81026e-07 6.93024e-09 0)
(-6.88115e-07 7.58408e-08 0)
(-6.95052e-07 1.4474e-07 0)
(-7.40229e-07 -5.39669e-08 0)
(-7.48149e-07 1.36354e-08 0)
(-7.55401e-07 8.15453e-08 0)
(-7.62358e-07 1.49385e-07 0)
(-8.10989e-07 -4.56594e-08 0)
(-8.191e-07 2.09381e-08 0)
(-8.26418e-07 8.77075e-08 0)
(-8.33309e-07 1.5432e-07 0)
(-8.85726e-07 -3.66359e-08 0)
(-8.93911e-07 2.87985e-08 0)
(-9.01177e-07 9.42741e-08 0)
(-9.07884e-07 1.59489e-07 0)
(-9.67467e-07 -2.66135e-08 0)
(-9.75579e-07 3.74519e-08 0)
(-9.82645e-07 1.0142e-07 0)
(-9.89014e-07 1.65012e-07 0)
(-1.05303e-06 -1.61138e-08 0)
(-1.06088e-06 4.64193e-08 0)
(-1.06756e-06 1.08713e-07 0)
(-1.07341e-06 1.70506e-07 0)
(-1.13656e-06 -6.05823e-09 0)
(-1.14397e-06 5.49057e-08 0)
(-1.1501e-06 1.15491e-07 0)
(-1.15527e-06 1.75456e-07 0)
(-1.21798e-06 3.36422e-09 0)
(-1.22479e-06 6.27348e-08 0)
(-1.2302e-06 1.2159e-07 0)
(-1.23454e-06 1.79712e-07 0)
(-1.29725e-06 1.19729e-08 0)
(-1.30327e-06 6.9736e-08 0)
(-1.30781e-06 1.26851e-07 0)
(-1.31117e-06 1.83122e-07 0)
(-1.3743e-06 1.96018e-08 0)
(-1.37938e-06 7.57473e-08 0)
(-1.38289e-06 1.31116e-07 0)
(-1.38513e-06 1.85536e-07 0)
(-1.44911e-06 2.6094e-08 0)
(-1.45308e-06 8.06142e-08 0)
(-1.45541e-06 1.34233e-07 0)
(-1.4564e-06 1.86805e-07 0)
(-1.52162e-06 3.13021e-08 0)
(-1.52433e-06 8.41903e-08 0)
(-1.52535e-06 1.36058e-07 0)
(-1.52496e-06 1.86785e-07 0)
(-1.59181e-06 3.50861e-08 0)
(-1.59311e-06 8.63366e-08 0)
(-1.59269e-06 1.36454e-07 0)
(-1.5908e-06 1.85339e-07 0)
(-1.65964e-06 3.73131e-08 0)
(-1.6594e-06 8.69215e-08 0)
(-1.65741e-06 1.3529e-07 0)
(-1.65391e-06 1.82341e-07 0)
(-1.7251e-06 3.78563e-08 0)
(-1.72319e-06 8.58202e-08 0)
(-1.71951e-06 1.32443e-07 0)
(-1.71428e-06 1.77668e-07 0)
(-1.78818e-06 3.65948e-08 0)
(-1.78447e-06 8.29143e-08 0)
(-1.77898e-06 1.27798e-07 0)
(-1.77193e-06 1.71209e-07 0)
(-1.84886e-06 3.34135e-08 0)
(-1.84323e-06 7.80918e-08 0)
(-1.83584e-06 1.21247e-07 0)
(-1.82687e-06 1.62857e-07 0)
(-1.90714e-06 2.8203e-08 0)
(-1.89949e-06 7.1247e-08 0)
(-1.89009e-06 1.12686e-07 0)
(-1.87911e-06 1.52515e-07 0)
(-1.96303e-06 2.08602e-08 0)
(-1.95327e-06 6.22804e-08 0)
(-1.94176e-06 1.02022e-07 0)
(-1.92869e-06 1.40091e-07 0)
(-2.01654e-06 1.12885e-08 0)
(-2.00457e-06 5.10996e-08 0)
(-1.99089e-06 8.91646e-08 0)
(-1.97564e-06 1.25503e-07 0)
(-2.06769e-06 -6.00843e-10 0)
(-2.05343e-06 3.76195e-08 0)
(-2.0375e-06 7.40345e-08 0)
(-2.02002e-06 1.08675e-07 0)
(-2.11651e-06 -1.4888e-08 0)
(-2.09989e-06 2.17637e-08 0)
(-2.08164e-06 5.65592e-08 0)
(-2.06186e-06 8.9539e-08 0)
(-2.16302e-06 -3.16433e-08 0)
(-2.14399e-06 3.46546e-09 0)
(-2.12337e-06 3.66758e-08 0)
(-2.10124e-06 6.80368e-08 0)
(-2.20727e-06 -5.0926e-08 0)
(-2.18578e-06 -1.73314e-08 0)
(-2.16274e-06 1.4332e-08 0)
(-2.13822e-06 4.41207e-08 0)
(-2.2493e-06 -7.27829e-08 0)
(-2.2253e-06 -4.06708e-08 0)
(-2.19981e-06 -1.05129e-08 0)
(-2.17288e-06 1.77537e-08 0)
(-2.28914e-06 -9.72475e-08 0)
(-2.26262e-06 -6.65839e-08 0)
(-2.23467e-06 -3.7887e-08 0)
(-2.2053e-06 -1.1089e-08 0)
(-2.32686e-06 -1.24339e-07 0)
(-2.29781e-06 -9.50874e-08 0)
(-2.26738e-06 -6.78049e-08 0)
(-2.23557e-06 -4.24192e-08 0)
(-2.36249e-06 -1.54061e-07 0)
(-2.33091e-06 -1.26184e-07 0)
(-2.29802e-06 -1.00267e-07 0)
(-2.26378e-06 -7.62352e-08 0)
(-2.3961e-06 -1.86404e-07 0)
(-2.36201e-06 -1.59861e-07 0)
(-2.32667e-06 -1.35259e-07 0)
(-2.29002e-06 -1.12522e-07 0)
(-2.42774e-06 -2.21339e-07 0)
(-2.39116e-06 -1.9609e-07 0)
(-2.35341e-06 -1.72753e-07 0)
(-2.31438e-06 -1.51249e-07 0)
(-2.45746e-06 -2.58828e-07 0)
(-2.41845e-06 -2.3483e-07 0)
(-2.37833e-06 -2.12705e-07 0)
(-2.33697e-06 -1.92375e-07 0)
(-2.48532e-06 -2.98813e-07 0)
(-2.44394e-06 -2.76024e-07 0)
(-2.4015e-06 -2.55061e-07 0)
(-2.35787e-06 -2.35844e-07 0)
(-2.5114e-06 -3.41228e-07 0)
(-2.4677e-06 -3.19605e-07 0)
(-2.42302e-06 -2.99751e-07 0)
(-2.37718e-06 -2.81588e-07 0)
(-2.53573e-06 -3.85991e-07 0)
(-2.48981e-06 -3.65491e-07 0)
(-2.44295e-06 -3.46696e-07 0)
(-2.39498e-06 -3.2953e-07 0)
(-2.5584e-06 -4.33012e-07 0)
(-2.51033e-06 -4.13593e-07 0)
(-2.46139e-06 -3.95807e-07 0)
(-2.41138e-06 -3.79582e-07 0)
(-2.57946e-06 -4.82193e-07 0)
(-2.52934e-06 -4.63811e-07 0)
(-2.47841e-06 -4.46987e-07 0)
(-2.42644e-06 -4.3165e-07 0)
(-2.59896e-06 -5.33426e-07 0)
(-2.5469e-06 -5.1604e-07 0)
(-2.49407e-06 -5.00131e-07 0)
(-2.44026e-06 -4.8563e-07 0)
(-2.61698e-06 -5.866e-07 0)
(-2.56308e-06 -5.70168e-07 0)
(-2.50846e-06 -5.55129e-07 0)
(-2.4529e-06 -5.41417e-07 0)
(-2.63357e-06 -6.41597e-07 0)
(-2.57795e-06 -6.2608e-07 0)
(-2.52165e-06 -6.11867e-07 0)
(-2.46445e-06 -5.98899e-07 0)
(-2.64879e-06 -6.98298e-07 0)
(-2.59155e-06 -6.83656e-07 0)
(-2.53368e-06 -6.7023e-07 0)
(-2.47496e-06 -6.57962e-07 0)
(-2.6627e-06 -7.56581e-07 0)
(-2.60396e-06 -7.42776e-07 0)
(-2.54464e-06 -7.30098e-07 0)
(-2.48449e-06 -7.1849e-07 0)
(-2.67535e-06 -8.16324e-07 0)
(-2.61524e-06 -8.0332e-07 0)
(-2.55457e-06 -7.91351e-07 0)
(-2.49312e-06 -7.80367e-07 0)
(-2.68681e-06 -8.77405e-07 0)
(-2.62543e-06 -8.65165e-07 0)
(-2.56353e-06 -8.53872e-07 0)
(-2.50089e-06 -8.43477e-07 0)
(-2.69712e-06 -9.39701e-07 0)
(-2.63458e-06 -9.28192e-07 0)
(-2.57157e-06 -9.17541e-07 0)
(-2.50785e-06 -9.07702e-07 0)
(-2.70633e-06 -1.00309e-06 0)
(-2.64276e-06 -9.92282e-07 0)
(-2.57874e-06 -9.82241e-07 0)
(-2.51405e-06 -9.7293e-07 0)
(-2.71451e-06 -1.06747e-06 0)
(-2.65e-06 -1.05732e-06 0)
(-2.58508e-06 -1.04786e-06 0)
(-2.51953e-06 -1.03905e-06 0)
(-2.72169e-06 -1.13271e-06 0)
(-2.65636e-06 -1.12319e-06 0)
(-2.59064e-06 -1.11428e-06 0)
(-2.52433e-06 -1.10595e-06 0)
(-2.72793e-06 -1.19871e-06 0)
(-2.66188e-06 -1.18979e-06 0)
(-2.59546e-06 -1.18141e-06 0)
(-2.52848e-06 -1.17352e-06 0)
(-2.73328e-06 -1.26536e-06 0)
(-2.6666e-06 -1.25701e-06 0)
(-2.59957e-06 -1.24913e-06 0)
(-2.53203e-06 -1.24167e-06 0)
(-2.73779e-06 -1.33258e-06 0)
(-2.67057e-06 -1.32477e-06 0)
(-2.60302e-06 -1.31736e-06 0)
(-2.53499e-06 -1.31031e-06 0)
(-2.74151e-06 -1.40027e-06 0)
(-2.67382e-06 -1.39297e-06 0)
(-2.60584e-06 -1.38601e-06 0)
(-2.53741e-06 -1.37935e-06 0)
(-2.74448e-06 -1.46835e-06 0)
(-2.67641e-06 -1.46153e-06 0)
(-2.60806e-06 -1.45499e-06 0)
(-2.53929e-06 -1.44871e-06 0)
(-2.74675e-06 -1.53675e-06 0)
(-2.67836e-06 -1.53038e-06 0)
(-2.60971e-06 -1.52425e-06 0)
(-2.54068e-06 -1.51831e-06 0)
(-2.74838e-06 -1.60541e-06 0)
(-2.67973e-06 -1.59947e-06 0)
(-2.61083e-06 -1.59371e-06 0)
(-2.5416e-06 -1.58811e-06 0)
(-2.7494e-06 -1.67428e-06 0)
(-2.68054e-06 -1.66873e-06 0)
(-2.61146e-06 -1.66332e-06 0)
(-2.54207e-06 -1.65804e-06 0)
(-2.74988e-06 -1.74331e-06 0)
(-2.68084e-06 -1.73812e-06 0)
(-2.61161e-06 -1.73305e-06 0)
(-2.54211e-06 -1.72807e-06 0)
(-2.74984e-06 -1.81246e-06 0)
(-2.68067e-06 -1.8076e-06 0)
(-2.61133e-06 -1.80284e-06 0)
(-2.54175e-06 -1.79815e-06 0)
(-2.74934e-06 -1.88169e-06 0)
(-2.68007e-06 -1.87715e-06 0)
(-2.61064e-06 -1.87268e-06 0)
(-2.54102e-06 -1.86825e-06 0)
(-2.74842e-06 -1.95099e-06 0)
(-2.67906e-06 -1.94673e-06 0)
(-2.60958e-06 -1.94253e-06 0)
(-2.53994e-06 -1.93835e-06 0)
(-2.74711e-06 -2.02033e-06 0)
(-2.67769e-06 -2.01633e-06 0)
(-2.60818e-06 -2.01239e-06 0)
(-2.53853e-06 -2.00844e-06 0)
(-2.74548e-06 -2.0897e-06 0)
(-2.67599e-06 -2.08594e-06 0)
(-2.60645e-06 -2.08223e-06 0)
(-2.53683e-06 -2.0785e-06 0)
(-2.74354e-06 -2.15908e-06 0)
(-2.67399e-06 -2.15554e-06 0)
(-2.60443e-06 -2.15206e-06 0)
(-2.53486e-06 -2.14854e-06 0)
(-2.74136e-06 -2.2285e-06 0)
(-2.6717e-06 -2.22514e-06 0)
(-2.60214e-06 -2.22186e-06 0)
(-2.53266e-06 -2.21852e-06 0)
(-2.73896e-06 -2.29808e-06 0)
(-2.66919e-06 -2.2948e-06 0)
(-2.59962e-06 -2.29161e-06 0)
(-2.53024e-06 -2.28834e-06 0)
)
;

boundaryField
{
    plateFix
    {
        type            fixedDisplacement;
        value           uniform (0 0 0);
    }
    plate
    {
        type            solidTraction;
        nonLinear       updatedLagrangian;
        traction        uniform (0 0 0);
        pressure        uniform 0;
        value           nonuniform List<vector> 
168
(
(-8.54444e-08 -4.71996e-08 -4.62277e-27)
(-8.90095e-08 4.93666e-08 1.28555e-26)
(-8.03215e-08 -7.58729e-08 1.87722e-26)
(-8.44257e-08 7.92692e-08 -3.59071e-26)
(-8.09028e-08 -9.78197e-08 -3.48076e-27)
(-8.5907e-08 1.02427e-07 1.95334e-26)
(-8.80339e-08 -1.12838e-07 -1.35831e-26)
(-9.4212e-08 1.18684e-07 1.15323e-26)
(-1.01305e-07 -1.23105e-07 1.76477e-26)
(-1.08873e-07 1.30346e-07 1.68678e-27)
(-1.19474e-07 -1.29622e-07 -1.48884e-27)
(-1.28579e-07 1.3849e-07 -1.36335e-26)
(-1.41854e-07 -1.33437e-07 -2.43045e-26)
(-1.52602e-07 1.44247e-07 -1.14921e-26)
(-1.67899e-07 -1.35219e-07 2.24666e-26)
(-1.80365e-07 1.48355e-07 2.43041e-26)
(-1.97312e-07 -1.35501e-07 -1.33258e-27)
(-2.11546e-07 1.51413e-07 -1.26795e-26)
(-2.29915e-07 -1.34646e-07 1.45309e-26)
(-2.45946e-07 1.53851e-07 -7.13055e-27)
(-2.6563e-07 -1.32913e-07 -1.2166e-26)
(-2.83472e-07 1.55998e-07 7.76471e-27)
(-3.04444e-07 -1.30468e-07 2.01047e-26)
(-3.24092e-07 1.58087e-07 1.29591e-28)
(-3.46395e-07 -1.27404e-07 -2.49888e-26)
(-3.67822e-07 1.60283e-07 1.0525e-28)
(-3.91551e-07 -1.23756e-07 7.39941e-27)
(-4.14706e-07 1.62695e-07 5.98506e-29)
(-4.40008e-07 -1.19513e-07 -6.3762e-29)
(-4.64813e-07 1.65382e-07 -1.11809e-27)
(-4.91879e-07 -1.14637e-07 8.22589e-27)
(-5.18221e-07 1.68373e-07 7.36923e-27)
(-5.47282e-07 -1.09068e-07 -1.47968e-26)
(-5.75011e-07 1.71671e-07 7.73269e-27)
(-6.06341e-07 -1.02746e-07 -5.27434e-27)
(-6.35259e-07 1.75261e-07 1.26099e-26)
(-6.69169e-07 -9.56196e-08 1.07537e-26)
(-6.99026e-07 1.79122e-07 -2.38928e-26)
(-7.3587e-07 -8.76574e-08 1.64826e-28)
(-7.66351e-07 1.83223e-07 1.93139e-27)
(-8.06529e-07 -7.886e-08 -1.10364e-26)
(-8.37248e-07 1.87526e-07 1.06854e-26)
(-8.81205e-07 -6.92692e-08 2.81856e-26)
(-9.11688e-07 1.91979e-07 -1.07557e-26)
(-9.62949e-07 -5.8581e-08 -1.54856e-26)
(-9.92591e-07 1.96674e-07 1.2067e-27)
(-1.0486e-06 -4.73341e-08 1.7245e-26)
(-1.07667e-06 2.01252e-07 -6.38327e-27)
(-1.13231e-06 -3.65154e-08 -1.57124e-26)
(-1.15813e-06 2.05274e-07 -7.39065e-27)
(-1.214e-06 -2.63186e-08 1.01391e-26)
(-1.23692e-06 2.08595e-07 1.08529e-26)
(-1.29362e-06 -1.69293e-08 -9.54003e-27)
(-1.313e-06 2.1107e-07 9.25852e-28)
(-1.37113e-06 -8.51476e-09 1.58519e-27)
(-1.38635e-06 2.1255e-07 -1.02443e-26)
(-1.44646e-06 -1.23255e-09 -9.53806e-27)
(-1.45694e-06 2.12886e-07 7.42997e-27)
(-1.51959e-06 4.76964e-09 5.78581e-27)
(-1.52477e-06 2.11935e-07 -6.13305e-28)
(-1.59048e-06 9.35163e-09 -9.01106e-27)
(-1.58981e-06 2.09563e-07 1.40468e-28)
(-1.65909e-06 1.23799e-08 7.32071e-27)
(-1.65208e-06 2.05641e-07 8.06745e-27)
(-1.72539e-06 1.37268e-08 -9.78006e-27)
(-1.71157e-06 2.00049e-07 -1.07034e-28)
(-1.78937e-06 1.32702e-08 1.10176e-26)
(-1.76828e-06 1.92676e-07 -5.4831e-27)
(-1.85102e-06 1.08934e-08 -4.66189e-27)
(-1.82223e-06 1.83418e-07 -3.41397e-27)
(-1.91033e-06 6.4853e-09 -4.71274e-29)
(-1.87345e-06 1.7218e-07 2.64822e-27)
(-1.9673e-06 -5.92563e-11 -3.11364e-27)
(-1.92196e-06 1.58872e-07 -3.64866e-28)
(-2.02194e-06 -8.83863e-09 8.39005e-27)
(-1.96781e-06 1.43414e-07 -4.08371e-27)
(-2.07426e-06 -1.99436e-08 -4.37522e-27)
(-2.01104e-06 1.25732e-07 2.4586e-27)
(-2.12429e-06 -3.3456e-08 5.50233e-27)
(-2.05172e-06 1.05762e-07 1.48141e-27)
(-2.17205e-06 -4.94479e-08 6.55444e-27)
(-2.0899e-06 8.34472e-08 -1.41004e-27)
(-2.21757e-06 -6.79799e-08 -1.0394e-26)
(-2.12567e-06 5.87429e-08 -8.87652e-27)
(-2.26089e-06 -8.91003e-08 -1.70337e-27)
(-2.1591e-06 3.16138e-08 5.73845e-27)
(-2.30204e-06 -1.12844e-07 -9.73557e-29)
(-2.19028e-06 2.03679e-09 3.98937e-27)
(-2.34106e-06 -1.3923e-07 -1.45243e-29)
(-2.21931e-06 -2.99984e-08 -4.14215e-27)
(-2.37801e-06 -1.68265e-07 7.51911e-27)
(-2.24628e-06 -6.44891e-08 5.40074e-28)
(-2.41291e-06 -1.99938e-07 -3.09766e-27)
(-2.2713e-06 -1.01419e-07 -1.11312e-27)
(-2.44583e-06 -2.34223e-07 -2.04671e-28)
(-2.29445e-06 -1.40759e-07 -5.78709e-27)
(-2.47681e-06 -2.7108e-07 -4.52725e-27)
(-2.31586e-06 -1.82466e-07 9.60279e-27)
(-2.50591e-06 -3.10454e-07 5.56745e-27)
(-2.3356e-06 -2.26484e-07 -6.63082e-27)
(-2.53317e-06 -3.52277e-07 -2.08891e-27)
(-2.3538e-06 -2.72748e-07 3.90342e-27)
(-2.55866e-06 -3.96469e-07 -2.14078e-27)
(-2.37053e-06 -3.21179e-07 2.72885e-27)
(-2.58243e-06 -4.4294e-07 5.34038e-27)
(-2.3859e-06 -3.71693e-07 5.21141e-29)
(-2.60453e-06 -4.9159e-07 -5.92732e-27)
(-2.39998e-06 -4.24194e-07 -3.50227e-27)
(-2.62504e-06 -5.42313e-07 2.42341e-27)
(-2.41287e-06 -4.78583e-07 4.72151e-28)
(-2.64399e-06 -5.94997e-07 -3.47853e-27)
(-2.42465e-06 -5.34753e-07 -2.63166e-27)
(-2.66147e-06 -6.49524e-07 -1.41301e-27)
(-2.43537e-06 -5.92595e-07 4.89649e-27)
(-2.67751e-06 -7.05774e-07 4.22858e-27)
(-2.44512e-06 -6.51997e-07 -3.42419e-27)
(-2.69218e-06 -7.63626e-07 -2.41826e-27)
(-2.45396e-06 -7.12844e-07 -1.09643e-27)
(-2.70553e-06 -8.22955e-07 -3.20896e-28)
(-2.46195e-06 -7.75022e-07 1.40663e-27)
(-2.71763e-06 -8.8364e-07 -2.46549e-27)
(-2.46913e-06 -8.38414e-07 7.28712e-28)
(-2.72852e-06 -9.45558e-07 2.13892e-27)
(-2.47557e-06 -9.02907e-07 -1.64268e-27)
(-2.73826e-06 -1.00859e-06 -7.48173e-27)
(-2.4813e-06 -9.68386e-07 1.60008e-27)
(-2.74689e-06 -1.07262e-06 4.70116e-27)
(-2.48637e-06 -1.03474e-06 1.66073e-27)
(-2.75449e-06 -1.13753e-06 -1.33293e-27)
(-2.49081e-06 -1.10187e-06 -6.68829e-28)
(-2.76109e-06 -1.20322e-06 -1.56008e-27)
(-2.49465e-06 -1.16966e-06 -1.58548e-27)
(-2.76674e-06 -1.26958e-06 7.19663e-28)
(-2.49794e-06 -1.23802e-06 -8.8403e-28)
(-2.77152e-06 -1.33652e-06 2.09231e-27)
(-2.50069e-06 -1.30685e-06 -1.42909e-27)
(-2.77545e-06 -1.40394e-06 -1.53885e-27)
(-2.50293e-06 -1.37607e-06 2.94583e-27)
(-2.77861e-06 -1.47178e-06 2.46444e-27)
(-2.50468e-06 -1.44561e-06 -8.45119e-28)
(-2.78103e-06 -1.53995e-06 -2.00477e-27)
(-2.50596e-06 -1.51539e-06 -3.7872e-27)
(-2.78278e-06 -1.6084e-06 -4.42631e-28)
(-2.5068e-06 -1.58534e-06 3.28036e-27)
(-2.7839e-06 -1.67706e-06 1.99146e-27)
(-2.50722e-06 -1.65543e-06 4.93586e-28)
(-2.78445e-06 -1.7459e-06 -2.82249e-27)
(-2.50723e-06 -1.7256e-06 -2.77179e-27)
(-2.78447e-06 -1.81488e-06 -3.54448e-28)
(-2.50686e-06 -1.79582e-06 4.65634e-28)
(-2.78401e-06 -1.88396e-06 2.5181e-27)
(-2.50613e-06 -1.86605e-06 -1.78709e-27)
(-2.78312e-06 -1.95311e-06 1.59871e-27)
(-2.50506e-06 -1.93628e-06 -2.56386e-28)
(-2.78185e-06 -2.02232e-06 -8.7853e-28)
(-2.50367e-06 -2.00648e-06 -3.10107e-28)
(-2.78023e-06 -2.09157e-06 -1.83442e-27)
(-2.50199e-06 -2.07665e-06 -2.25524e-27)
(-2.77833e-06 -2.16085e-06 -2.11617e-27)
(-2.50005e-06 -2.14678e-06 2.6008e-27)
(-2.77621e-06 -2.23017e-06 3.50602e-27)
(-2.49792e-06 -2.21685e-06 2.62664e-29)
(-2.77397e-06 -2.29969e-06 -1.72529e-27)
(-2.7377e-06 -2.33307e-06 2.61445e-27)
(-2.66789e-06 -2.32966e-06 -2.45717e-27)
(-2.59832e-06 -2.32644e-06 1.09825e-28)
(-2.52898e-06 -2.32306e-06 5.08392e-29)
(-2.49567e-06 -2.28674e-06 7.28912e-29)
)
;
    }
    frontAndBackPlanes
    {
        type            empty;
    }
}


// ************************************************************************* //
