/*--------------------------------*- C++ -*----------------------------------*\
| =========                 |                                                 |
| \\      /  F ield         | OpenFOAM Extend Project: Open source CFD        |
|  \\    /   O peration     | Version:  1.6-ext                               |
|   \\  /    A nd           | Web:      www.extend-project.de                 |
|    \\/     M anipulation  |                                                 |
\*---------------------------------------------------------------------------*/
FoamFile
{
    version     2.0;
    format      ascii;
    class       volVectorField;
    location    "0.15";
    object      DV;
}
// * * * * * * * * * * * * * * * * * * * * * * * * * * * * * * * * * * * * * //

dimensions      [0 1 -1 0 0 0 0];

internalField   nonuniform List<vector> 
328
(
(-8.82139e-07 -1.28386e-06 0)
(-6.65318e-07 -2.66926e-07 0)
(-6.66214e-07 2.69465e-07 0)
(-8.94815e-07 1.30976e-06 0)
(-2.69317e-06 -3.28327e-06 0)
(-2.14644e-06 -7.72463e-07 0)
(-2.15058e-06 7.89642e-07 0)
(-2.73188e-06 3.35121e-06 0)
(-4.75278e-06 -4.75745e-06 0)
(-4.00243e-06 -1.2432e-06 0)
(-4.01332e-06 1.2855e-06 0)
(-4.82108e-06 4.86648e-06 0)
(-6.99278e-06 -5.79645e-06 0)
(-6.12633e-06 -1.64228e-06 0)
(-6.14513e-06 1.71863e-06 0)
(-7.09107e-06 5.94678e-06 0)
(-9.4409e-06 -6.51468e-06 0)
(-8.54418e-06 -1.95811e-06 0)
(-8.57208e-06 2.07594e-06 0)
(-9.56881e-06 6.70631e-06 0)
(-1.20962e-05 -7.00033e-06 0)
(-1.12264e-05 -2.18935e-06 0)
(-1.12635e-05 2.35443e-06 0)
(-1.22519e-05 7.23322e-06 0)
(-1.49782e-05 -7.32522e-06 0)
(-1.41767e-05 -2.34586e-06 0)
(-1.42225e-05 2.56295e-06 0)
(-1.51588e-05 7.60042e-06 0)
(-1.81051e-05 -7.54332e-06 0)
(-1.73921e-05 -2.44184e-06 0)
(-1.74457e-05 2.7147e-06 0)
(-1.83072e-05 7.86277e-06 0)
(-2.15019e-05 -7.6969e-06 0)
(-2.08827e-05 -2.49388e-06 0)
(-2.09427e-05 2.82578e-06 0)
(-2.17211e-05 8.06351e-06 0)
(-2.51963e-05 -7.81842e-06 0)
(-2.46633e-05 -2.51804e-06 0)
(-2.47282e-05 2.91178e-06 0)
(-2.54279e-05 8.23552e-06 0)
(-2.92206e-05 -7.93327e-06 0)
(-2.87584e-05 -2.52867e-06 0)
(-2.88266e-05 2.98673e-06 0)
(-2.94598e-05 8.40431e-06 0)
(-3.36125e-05 -8.0612e-06 0)
(-3.32008e-05 -2.53756e-06 0)
(-3.32705e-05 3.062e-06 0)
(-3.3854e-05 8.58937e-06 0)
(-3.84159e-05 -8.21774e-06 0)
(-3.80328e-05 -2.55392e-06 0)
(-3.81023e-05 3.14629e-06 0)
(-3.86541e-05 8.80569e-06 0)
(-4.36825e-05 -8.41526e-06 0)
(-4.33071e-05 -2.58459e-06 0)
(-4.33745e-05 3.24572e-06 0)
(-4.39118e-05 9.06484e-06 0)
(-4.94742e-05 -8.66403e-06 0)
(-4.90877e-05 -2.63469e-06 0)
(-4.91509e-05 3.36428e-06 0)
(-4.96884e-05 9.37582e-06 0)
(-5.58644e-05 -8.97304e-06 0)
(-5.54513e-05 -2.70825e-06 0)
(-5.55082e-05 3.50425e-06 0)
(-5.60571e-05 9.74586e-06 0)
(-6.2941e-05 -9.35089e-06 0)
(-6.24889e-05 -2.80898e-06 0)
(-6.25375e-05 3.66655e-06 0)
(-6.31055e-05 1.01807e-05 0)
(-7.08088e-05 -9.80637e-06 0)
(-7.03086e-05 -2.94087e-06 0)
(-7.03465e-05 3.85093e-06 0)
(-7.09381e-05 1.06851e-05 0)
(-7.95922e-05 -1.0349e-05 0)
(-7.90378e-05 -3.1087e-06 0)
(-7.90628e-05 4.05602e-06 0)
(-7.96792e-05 1.12624e-05 0)
(-8.94384e-05 -1.09888e-05 0)
(-8.88264e-05 -3.31815e-06 0)
(-8.88367e-05 4.27945e-06 0)
(-8.94769e-05 1.19151e-05 0)
(-0.00010052 -1.17363e-05 0)
(-9.98504e-05 -3.5756e-06 0)
(-9.98446e-05 4.51818e-06 0)
(-0.000100506 1.26445e-05 0)
(-0.000113041 -1.26006e-05 0)
(-0.000112316 -3.88695e-06 0)
(-0.000112293 4.76891e-06 0)
(-0.000112972 1.3451e-05 0)
(-0.000127774 -1.36265e-05 0)
(-0.000126999 -4.27079e-06 0)
(-0.000126961 5.03956e-06 0)
(-0.000127653 1.43695e-05 0)
(-0.000144564 -1.47821e-05 0)
(-0.000143751 -4.71648e-06 0)
(-0.0001437 5.31903e-06 0)
(-0.000144402 1.53675e-05 0)
(-0.000162398 -1.59713e-05 0)
(-0.000161566 -5.18247e-06 0)
(-0.00016151 5.59278e-06 0)
(-0.000162217 1.63746e-05 0)
(-0.00018129 -1.71665e-05 0)
(-0.000180459 -5.65136e-06 0)
(-0.000180404 5.86707e-06 0)
(-0.000181112 1.73857e-05 0)
(-0.000201237 -1.83396e-05 0)
(-0.000200426 -6.10544e-06 0)
(-0.000200378 6.14855e-06 0)
(-0.000201083 1.83959e-05 0)
(-0.000222219 -1.94632e-05 0)
(-0.000221447 -6.52803e-06 0)
(-0.000221414 6.44249e-06 0)
(-0.00022211 1.93988e-05 0)
(-0.000244204 -2.05124e-05 0)
(-0.000243487 -6.9049e-06 0)
(-0.000243472 6.75179e-06 0)
(-0.000244154 2.03857e-05 0)
(-0.000267141 -2.14653e-05 0)
(-0.000266494 -7.22505e-06 0)
(-0.0002665 7.07623e-06 0)
(-0.000267158 2.1345e-05 0)
(-0.000290966 -2.23039e-05 0)
(-0.000290399 -7.48119e-06 0)
(-0.000290427 7.41225e-06 0)
(-0.000291051 2.22624e-05 0)
(-0.000315597 -2.30145e-05 0)
(-0.000315119 -7.66982e-06 0)
(-0.000315166 7.75299e-06 0)
(-0.000315745 2.3121e-05 0)
(-0.000340939 -2.35875e-05 0)
(-0.000340555 -7.79111e-06 0)
(-0.000340618 8.08859e-06 0)
(-0.000341137 2.39015e-05 0)
(-0.000366882 -2.40171e-05 0)
(-0.000366594 -7.8485e-06 0)
(-0.000366668 8.40676e-06 0)
(-0.000367115 2.45832e-05 0)
(-0.000393303 -2.43012e-05 0)
(-0.000393113 -7.84804e-06 0)
(-0.000393191 8.69355e-06 0)
(-0.000393551 2.51449e-05 0)
(-0.000420069 -2.44403e-05 0)
(-0.000419974 -7.79754e-06 0)
(-0.000420051 8.93431e-06 0)
(-0.00042031 2.55656e-05 0)
(-0.000447034 -2.4437e-05 0)
(-0.000447033 -7.70557e-06 0)
(-0.000447102 9.11483e-06 0)
(-0.000447249 2.58261e-05 0)
(-0.000474046 -2.42945e-05 0)
(-0.000474137 -7.58036e-06 0)
(-0.000474193 9.22249e-06 0)
(-0.000474218 2.591e-05 0)
(-0.000500946 -2.40163e-05 0)
(-0.000501128 -7.4287e-06 0)
(-0.000501167 9.24744e-06 0)
(-0.000501064 2.58047e-05 0)
(-0.00052757 -2.36049e-05 0)
(-0.000527842 -7.25501e-06 0)
(-0.000527863 9.18357e-06 0)
(-0.000527631 2.55028e-05 0)
(-0.000553755 -2.30611e-05 0)
(-0.000554117 -7.06057e-06 0)
(-0.000554121 9.02931e-06 0)
(-0.00055376 2.50026e-05 0)
(-0.000579334 -2.23839e-05 0)
(-0.000579789 -6.84317e-06 0)
(-0.00057978 8.78798e-06 0)
(-0.000579295 2.43083e-05 0)
(-0.000604148 -2.15704e-05 0)
(-0.000604698 -6.59713e-06 0)
(-0.000604682 8.46776e-06 0)
(-0.000604082 2.34305e-05 0)
(-0.000628038 -2.0616e-05 0)
(-0.000628689 -6.31376e-06 0)
(-0.000628672 8.0812e-06 0)
(-0.000627971 2.2385e-05 0)
(-0.000650859 -1.95159e-05 0)
(-0.000651612 -5.98228e-06 0)
(-0.000651604 7.64426e-06 0)
(-0.000650816 2.11923e-05 0)
(-0.000672469 -1.82652e-05 0)
(-0.000673329 -5.59108e-06 0)
(-0.000673338 7.175e-06 0)
(-0.00067248 1.98762e-05 0)
(-0.000692743 -1.68614e-05 0)
(-0.00069371 -5.12919e-06 0)
(-0.000693744 6.69198e-06 0)
(-0.000692833 1.84622e-05 0)
(-0.000711567 -1.53047e-05 0)
(-0.000712639 -4.58787e-06 0)
(-0.000712705 6.21265e-06 0)
(-0.000711757 1.69756e-05 0)
(-0.000728842 -1.36001e-05 0)
(-0.000730013 -3.96201e-06 0)
(-0.000730116 5.75178e-06 0)
(-0.000729146 1.54404e-05 0)
(-0.000744483 -1.17581e-05 0)
(-0.000745745 -3.25133e-06 0)
(-0.000745886 5.32021e-06 0)
(-0.000744907 1.38775e-05 0)
(-0.000758423 -9.79489e-06 0)
(-0.000759764 -2.461e-06 0)
(-0.000759941 4.92402e-06 0)
(-0.000758963 1.23041e-05 0)
(-0.000770611 -7.73283e-06 0)
(-0.000772014 -1.60176e-06 0)
(-0.000772224 4.56433e-06 0)
(-0.000771253 1.07332e-05 0)
(-0.000781014 -5.59944e-06 0)
(-0.000782458 -6.89405e-07 0)
(-0.000782694 4.23765e-06 0)
(-0.000781736 9.17396e-06 0)
(-0.000789613 -3.42631e-06 0)
(-0.000791078 2.56305e-07 0)
(-0.00079133 3.93684e-06 0)
(-0.000790388 7.63223e-06 0)
(-0.00079641 -1.24747e-06 0)
(-0.000797871 1.21325e-06 0)
(-0.000798131 3.65251e-06 0)
(-0.000797207 6.1119e-06 0)
(-0.000801419 9.02589e-07 0)
(-0.000802855 2.15876e-06 0)
(-0.000803113 3.37469e-06 0)
(-0.00080221 4.61628e-06 0)
(-0.000804675 2.99086e-06 0)
(-0.000806064 3.07157e-06 0)
(-0.000806313 3.09465e-06 0)
(-0.000805433 3.14962e-06 0)
(-0.000806228 4.98765e-06 0)
(-0.000807551 3.93351e-06 0)
(-0.000807783 2.80638e-06 0)
(-0.000806932 1.71842e-06 0)
(-0.000806144 6.86797e-06 0)
(-0.000807385 4.73086e-06 0)
(-0.000807597 2.50783e-06 0)
(-0.000806781 3.32403e-07 0)
(-0.000804505 8.61243e-06 0)
(-0.000805654 5.45506e-06 0)
(-0.000805843 2.20145e-06 0)
(-0.000805071 -9.95084e-07 0)
(-0.00080141 1.02074e-05 0)
(-0.000802457 6.10283e-06 0)
(-0.000802625 1.89416e-06 0)
(-0.000801907 -2.24728e-06 0)
(-0.000796972 1.16448e-05 0)
(-0.000797911 6.67554e-06 0)
(-0.00079806 1.59659e-06 0)
(-0.000797409 -3.40481e-06 0)
(-0.000791318 1.29206e-05 0)
(-0.000792146 7.17803e-06 0)
(-0.00079228 1.32182e-06 0)
(-0.000791707 -4.44708e-06 0)
(-0.000784586 1.40341e-05 0)
(-0.000785302 7.61707e-06 0)
(-0.000785424 1.08366e-06 0)
(-0.000784941 -5.35391e-06 0)
(-0.000776926 1.49858e-05 0)
(-0.00077753 7.99959e-06 0)
(-0.000777644 8.94859e-07 0)
(-0.000777261 -6.10739e-06 0)
(-0.000768498 1.57764e-05 0)
(-0.000768988 8.33107e-06 0)
(-0.000769097 7.65412e-07 0)
(-0.000768819 -6.69355e-06 0)
(-0.000759466 1.64051e-05 0)
(-0.000759841 8.6143e-06 0)
(-0.000759945 7.01237e-07 0)
(-0.000759776 -7.10363e-06 0)
(-0.00075 1.68696e-05 0)
(-0.000750256 8.84864e-06 0)
(-0.000750354 7.03453e-07 0)
(-0.000750293 -7.33482e-06 0)
(-0.000740269 1.71656e-05 0)
(-0.000740404 9.03001e-06 0)
(-0.000740491 7.68323e-07 0)
(-0.000740536 -7.39031e-06 0)
(-0.000730442 1.72875e-05 0)
(-0.000730453 9.15143e-06 0)
(-0.000730526 8.87851e-07 0)
(-0.000730668 -7.27875e-06 0)
(-0.000720686 1.72294e-05 0)
(-0.000720568 9.20416e-06 0)
(-0.000720621 1.05091e-06 0)
(-0.000720851 -7.01314e-06 0)
(-0.000711161 1.69863e-05 0)
(-0.000710912 9.17907e-06 0)
(-0.000710939 1.24464e-06 0)
(-0.000711247 -6.60944e-06 0)
(-0.000702019 1.65555e-05 0)
(-0.000701639 9.06799e-06 0)
(-0.000701635 1.45595e-06 0)
(-0.000702008 -6.08515e-06 0)
(-0.000693404 1.59375e-05 0)
(-0.000692895 8.86491e-06 0)
(-0.000692855 1.67267e-06 0)
(-0.000693283 -5.45807e-06 0)
(-0.000685448 1.51368e-05 0)
(-0.000684815 8.56669e-06 0)
(-0.000684736 1.88458e-06 0)
(-0.000685209 -4.74518e-06 0)
(-0.000678273 1.41622e-05 0)
(-0.000677525 8.17371e-06 0)
(-0.000677407 2.08386e-06 0)
(-0.000677914 -3.96242e-06 0)
(-0.000671984 1.30264e-05 0)
(-0.000671133 7.68974e-06 0)
(-0.000670979 2.26595e-06 0)
(-0.000671512 -3.12298e-06 0)
(-0.000666677 1.17484e-05 0)
(-0.000665741 7.12335e-06 0)
(-0.000665555 2.42926e-06 0)
(-0.000666107 -2.23923e-06 0)
(-0.000662422 1.0348e-05 0)
(-0.000661422 6.48676e-06 0)
(-0.00066121 2.57802e-06 0)
(-0.000661774 -1.31558e-06 0)
(-0.000659301 8.86734e-06 0)
(-0.000658269 5.80533e-06 0)
(-0.000658039 2.71574e-06 0)
(-0.000658603 -3.67657e-07 0)
(-0.000657299 7.34678e-06 0)
(-0.000656264 5.10974e-06 0)
(-0.000656023 2.85397e-06 0)
(-0.000656578 6.04962e-07 0)
(-0.000656604 6.01507e-06 0)
(-0.000655579 4.4832e-06 0)
(-0.000655333 2.96849e-06 0)
(-0.000655885 1.43798e-06 0)
)
;

boundaryField
{
    plateFix
    {
        type            calculated;
        value           uniform (0 0 0);
    }
    plate
    {
        type            calculated;
        value           nonuniform List<vector> 
168
(
(-6.42599e-06 -3.46487e-06 2.16221e-23)
(-6.72789e-06 3.53884e-06 -6.87483e-23)
(-6.67684e-06 -5.53822e-06 -5.62705e-23)
(-6.99777e-06 5.65486e-06 1.19171e-22)
(-7.40651e-06 -7.12195e-06 -2.96069e-23)
(-7.75877e-06 7.2793e-06 -3.17791e-23)
(-8.68975e-06 -8.21237e-06 6.18802e-23)
(-9.06312e-06 8.40758e-06 -4.9816e-23)
(-1.04944e-05 -8.97834e-06 -3.66358e-23)
(-1.08812e-05 9.21005e-06 -5.90326e-24)
(-1.2729e-05 -9.50137e-06 5.28022e-24)
(-1.31255e-05 9.76838e-06 5.31679e-23)
(-1.53474e-05 -9.86475e-06 7.831e-23)
(-1.57515e-05 1.01676e-05 8.88146e-24)
(-1.83178e-05 -1.01233e-05 -7.32151e-23)
(-1.87279e-05 1.04638e-05 -4.68889e-23)
(-2.16312e-05 -1.0322e-05 9.99033e-24)
(-2.20447e-05 1.07032e-05 3.19623e-23)
(-2.52909e-05 -1.04942e-05 -3.6774e-23)
(-2.57047e-05 1.09199e-05 3.14613e-23)
(-2.93128e-05 -1.06666e-05 2.6066e-23)
(-2.97226e-05 1.11408e-05 -3.27203e-23)
(-3.37226e-05 -1.08604e-05 -4.39385e-23)
(-3.41235e-05 1.13867e-05 -1.07888e-23)
(-3.85563e-05 -1.10928e-05 5.90502e-23)
(-3.89426e-05 1.16745e-05 -2.73574e-24)
(-4.38606e-05 -1.13782e-05 -2.57206e-23)
(-4.4226e-05 1.20176e-05 9.37555e-24)
(-4.96941e-05 -1.17293e-05 -6.00473e-25)
(-5.00315e-05 1.24274e-05 1.47177e-23)
(-5.61284e-05 -1.21575e-05 -1.39998e-23)
(-5.643e-05 1.29135e-05 -3.48016e-23)
(-6.32506e-05 -1.26741e-05 2.86835e-23)
(-6.35073e-05 1.34843e-05 -2.18543e-23)
(-7.11651e-05 -1.32904e-05 5.63039e-23)
(-7.13669e-05 1.4147e-05 -3.09288e-23)
(-7.99959e-05 -1.40183e-05 -5.64983e-23)
(-8.01325e-05 1.49079e-05 6.51183e-23)
(-8.98897e-05 -1.48701e-05 -1.1807e-23)
(-8.99511e-05 1.57717e-05 -6.5185e-24)
(-0.000101018 -1.58587e-05 5.05285e-23)
(-0.000100997 1.67425e-05 -3.83577e-23)
(-0.000113582 -1.69941e-05 -8.63751e-23)
(-0.000113476 1.78222e-05 2.49625e-23)
(-0.000128355 -1.8335e-05 4.28396e-23)
(-0.000128167 1.90596e-05 1.63728e-23)
(-0.000145174 -1.98382e-05 -4.85163e-23)
(-0.000144923 2.04112e-05 9.76759e-24)
(-0.000163024 -2.13815e-05 4.5413e-23)
(-0.000162742 2.17795e-05 1.69747e-23)
(-0.000181916 -2.2932e-05 -3.95305e-23)
(-0.000181638 2.31533e-05 -1.35906e-23)
(-0.000201848 -2.44569e-05 3.76735e-23)
(-0.000201608 2.4522e-05 -2.19283e-23)
(-0.000222801 -2.59236e-05 -5.42245e-24)
(-0.000222629 2.58735e-05 3.77502e-23)
(-0.000244745 -2.7302e-05 2.14118e-23)
(-0.000244662 2.71931e-05 -3.06514e-23)
(-0.000267631 -2.85648e-05 -6.65988e-24)
(-0.000267649 2.84638e-05 1.0311e-23)
(-0.000291396 -2.9689e-05 2.39256e-23)
(-0.000291517 2.9666e-05 -4.45376e-24)
(-0.000315961 -3.06556e-05 -2.57426e-23)
(-0.000316176 3.07776e-05 -2.12325e-23)
(-0.000341234 -3.14501e-05 3.46452e-23)
(-0.000341525 3.17749e-05 -2.51139e-24)
(-0.000367106 -3.20623e-05 -3.38127e-23)
(-0.000367448 3.26332e-05 1.71027e-23)
(-0.000393456 -3.24858e-05 1.62092e-23)
(-0.00039382 3.33276e-05 8.4693e-24)
(-0.000420151 -3.27176e-05 -1.59029e-24)
(-0.000420505 3.38342e-05 -2.11384e-24)
(-0.000447047 -3.27569e-05 8.78153e-24)
(-0.00044736 3.41314e-05 4.73251e-24)
(-0.000473991 -3.26048e-05 -2.73075e-23)
(-0.000474239 3.4201e-05 9.15212e-24)
(-0.000500825 -3.22628e-05 3.62285e-24)
(-0.00050099 3.40293e-05 -4.70141e-24)
(-0.000527385 -3.17324e-05 -4.18493e-24)
(-0.000527459 3.36081e-05 -5.86131e-24)
(-0.000553504 -3.10143e-05 -2.64754e-23)
(-0.000553491 3.29358e-05 1.02426e-24)
(-0.000579017 -3.0108e-05 3.71841e-23)
(-0.000578933 3.2017e-05 2.85038e-23)
(-0.000603762 -2.9012e-05 4.54212e-24)
(-0.000603633 3.08634e-05 -1.63859e-23)
(-0.000627582 -2.7724e-05 4.69678e-25)
(-0.000627444 2.94924e-05 -1.65557e-23)
(-0.000650328 -2.62418e-05 -7.32134e-24)
(-0.000650222 2.79266e-05 1.61412e-23)
(-0.000671863 -2.45645e-05 -2.34884e-23)
(-0.000671831 2.61926e-05 -3.00558e-24)
(-0.000692061 -2.26934e-05 1.73995e-23)
(-0.000692143 2.4319e-05 5.36142e-24)
(-0.000710809 -2.06336e-05 -4.13514e-24)
(-0.000711037 2.2335e-05 1.58234e-23)
(-0.000728012 -1.83951e-05 1.45889e-23)
(-0.000728407 2.02689e-05 -2.89596e-23)
(-0.000743588 -1.59937e-05 -1.29567e-23)
(-0.000744159 1.81466e-05 2.15278e-23)
(-0.000757472 -1.34511e-05 1.82105e-25)
(-0.000758213 1.59908e-05 -1.43918e-23)
(-0.000769617 -1.07953e-05 3.3155e-24)
(-0.000770506 1.38204e-05 -9.27852e-24)
(-0.00077999 -8.05956e-06 -1.38319e-23)
(-0.000780996 1.16508e-05 5.30541e-25)
(-0.000788577 -5.28114e-06 1.78853e-23)
(-0.000789658 9.49442e-06 1.2975e-23)
(-0.000795377 -2.49979e-06 -1.22733e-24)
(-0.000796488 7.36182e-06 -3.28943e-24)
(-0.000800407 2.44307e-07 9.20965e-24)
(-0.000801503 5.26303e-06 1.14194e-23)
(-0.0008037 2.9125e-06 -7.03119e-25)
(-0.000804741 3.20881e-06 -1.96334e-23)
(-0.000805302 5.46951e-06 -1.3635e-23)
(-0.000806259 1.21194e-06 1.28874e-23)
(-0.000805279 7.88487e-06 7.24789e-24)
(-0.000806133 -7.11992e-07 2.35162e-26)
(-0.000803709 1.01338e-05 3.25131e-24)
(-0.000804455 -2.54429e-06 -3.95262e-24)
(-0.000800689 1.21977e-05 3.23159e-24)
(-0.000801332 -4.26338e-06 -4.49731e-24)
(-0.000796328 1.40634e-05 -6.51267e-24)
(-0.000796884 -5.8457e-06 3.35284e-24)
(-0.000790752 1.57227e-05 2.29265e-23)
(-0.000791243 -7.26704e-06 -2.88941e-24)
(-0.000784099 1.71709e-05 -1.21653e-23)
(-0.000784547 -8.50426e-06 -3.41572e-24)
(-0.000776518 1.84053e-05 6.14869e-24)
(-0.000776944 -9.53702e-06 -1.1648e-24)
(-0.000768168 1.9424e-05 1.72214e-25)
(-0.000768586 -1.03495e-05 5.90388e-24)
(-0.000759216 2.02245e-05 1.6908e-24)
(-0.000759628 -1.09315e-05 2.18087e-25)
(-0.00074983 2.08037e-05 -5.75202e-24)
(-0.000750232 -1.12795e-05 4.18135e-24)
(-0.000740183 2.11571e-05 2.81994e-24)
(-0.000740557 -1.13964e-05 -6.2273e-24)
(-0.000730443 2.12798e-05 -5.85101e-24)
(-0.000730766 -1.12909e-05 1.1925e-24)
(-0.000720777 2.11676e-05 5.48052e-24)
(-0.00072102 -1.0977e-05 9.58403e-24)
(-0.000711343 2.08176e-05 5.0816e-24)
(-0.000711477 -1.04719e-05 -5.26109e-24)
(-0.000702292 2.02299e-05 -4.82203e-24)
(-0.000702292 -9.7953e-06 4.18602e-24)
(-0.000693768 1.94083e-05 6.23225e-24)
(-0.000693611 -8.96765e-06 3.4584e-24)
(-0.000685899 1.8361e-05 1.5763e-24)
(-0.000685574 -8.00921e-06 2.28767e-24)
(-0.000678805 1.71013e-05 -4.2903e-24)
(-0.00067831 -6.94002e-06 4.92659e-24)
(-0.000672589 1.56461e-05 -1.18899e-24)
(-0.000671932 -5.77728e-06 -1.14349e-24)
(-0.000667345 1.40204e-05 9.76103e-25)
(-0.000666548 -4.53954e-06 -8.74711e-25)
(-0.000663136 1.22464e-05 -5.894e-26)
(-0.000662232 -3.23377e-06 6.53302e-25)
(-0.000660041 1.03791e-05 4.17172e-24)
(-0.000659075 -1.88994e-06 -6.00665e-24)
(-0.000657995 8.44277e-06 -8.0518e-24)
(-0.000657022 -4.92829e-07 2.44642e-24)
(-0.000657169 6.74525e-06 4.15565e-24)
(-0.000656663 5.49459e-06 -6.78417e-24)
(-0.000655618 4.18166e-06 5.54621e-24)
(-0.000655372 3.05322e-06 -4.2633e-24)
(-0.000655945 1.76928e-06 -9.0113e-25)
(-0.000656256 7.09712e-07 -8.45217e-25)
)
;
    }
    frontAndBackPlanes
    {
        type            empty;
    }
}


// ************************************************************************* //
