/*--------------------------------*- C++ -*----------------------------------*\
| =========                 |                                                 |
| \\      /  F ield         | OpenFOAM Extend Project: Open source CFD        |
|  \\    /   O peration     | Version:  1.6-ext                               |
|   \\  /    A nd           | Web:      www.extend-project.de                 |
|    \\/     M anipulation  |                                                 |
\*---------------------------------------------------------------------------*/
FoamFile
{
    version     2.0;
    format      ascii;
    class       volVectorField;
    location    "0.15";
    object      DV_0;
}
// * * * * * * * * * * * * * * * * * * * * * * * * * * * * * * * * * * * * * //

dimensions      [0 1 -1 0 0 0 0];

internalField   nonuniform List<vector> 
328
(
(-1.47697e-06 -3.50997e-06 0)
(-8.74958e-07 -7.29439e-07 0)
(-8.76629e-07 7.32954e-07 0)
(-1.4817e-06 3.52491e-06 0)
(-4.49196e-06 -8.99965e-06 0)
(-2.96786e-06 -2.12907e-06 0)
(-2.97373e-06 2.14247e-06 0)
(-4.50617e-06 9.03978e-06 0)
(-8.0452e-06 -1.30851e-05 0)
(-5.94635e-06 -3.45217e-06 0)
(-5.95808e-06 3.47708e-06 0)
(-8.07098e-06 1.31382e-05 0)
(-1.19364e-05 -1.59943e-05 0)
(-9.50801e-06 -4.59313e-06 0)
(-9.52504e-06 4.63137e-06 0)
(-1.19737e-05 1.60539e-05 0)
(-1.62247e-05 -1.80194e-05 0)
(-1.37113e-05 -5.51414e-06 0)
(-1.37333e-05 5.56825e-06 0)
(-1.62742e-05 1.80869e-05 0)
(-2.08883e-05 -1.93862e-05 0)
(-1.84583e-05 -6.20424e-06 0)
(-1.84844e-05 6.27851e-06 0)
(-2.09501e-05 1.9468e-05 0)
(-2.59583e-05 -2.02814e-05 0)
(-2.37377e-05 -6.68419e-06 0)
(-2.37677e-05 6.78456e-06 0)
(-2.6033e-05 2.03862e-05 0)
(-3.14587e-05 -2.08455e-05 0)
(-2.95159e-05 -6.98697e-06 0)
(-2.95496e-05 7.12114e-06 0)
(-3.15468e-05 2.09829e-05 0)
(-3.7427e-05 -2.11885e-05 0)
(-3.57893e-05 -7.15356e-06 0)
(-3.58269e-05 7.33074e-06 0)
(-3.7529e-05 2.13686e-05 0)
(-4.3903e-05 -2.1393e-05 0)
(-4.25619e-05 -7.22402e-06 0)
(-4.26032e-05 7.4548e-06 0)
(-4.40192e-05 2.16264e-05 0)
(-5.09327e-05 -2.1522e-05 0)
(-4.98559e-05 -7.2343e-06 0)
(-4.9901e-05 7.53051e-06 0)
(-5.10627e-05 2.18199e-05 0)
(-5.85664e-05 -2.16215e-05 0)
(-5.77075e-05 -7.2134e-06 0)
(-5.7756e-05 7.58796e-06 0)
(-5.87091e-05 2.19959e-05 0)
(-6.68611e-05 -2.17248e-05 0)
(-6.61683e-05 -7.18304e-06 0)
(-6.62196e-05 7.64963e-06 0)
(-6.70146e-05 2.21885e-05 0)
(-7.58818e-05 -2.18552e-05 0)
(-7.53043e-05 -7.15819e-06 0)
(-7.53576e-05 7.73065e-06 0)
(-7.60429e-05 2.24212e-05 0)
(-8.57036e-05 -2.20289e-05 0)
(-8.51962e-05 -7.14857e-06 0)
(-8.525e-05 7.83979e-06 0)
(-8.58678e-05 2.27094e-05 0)
(-9.64139e-05 -2.22574e-05 0)
(-9.59391e-05 -7.16038e-06 0)
(-9.59917e-05 7.98075e-06 0)
(-9.65755e-05 2.30624e-05 0)
(-0.000108115 -2.25498e-05 0)
(-0.000107644 -7.19805e-06 0)
(-0.000107693 8.15335e-06 0)
(-0.000108267 2.34849e-05 0)
(-0.000120926 -2.29141e-05 0)
(-0.000120437 -7.26566e-06 0)
(-0.00012048 8.35473e-06 0)
(-0.00012106 2.39783e-05 0)
(-0.000134985 -2.33584e-05 0)
(-0.000134464 -7.36772e-06 0)
(-0.000134499 8.58028e-06 0)
(-0.000135092 2.45421e-05 0)
(-0.000150454 -2.3891e-05 0)
(-0.000149893 -7.5094e-06 0)
(-0.000149917 8.82451e-06 0)
(-0.000150527 2.51746e-05 0)
(-0.000167517 -2.45198e-05 0)
(-0.000166913 -7.69601e-06 0)
(-0.000166925 9.08194e-06 0)
(-0.00016755 2.58732e-05 0)
(-0.000186388 -2.52505e-05 0)
(-0.000185743 -7.93199e-06 0)
(-0.00018574 9.3477e-06 0)
(-0.000186377 2.6635e-05 0)
(-0.000208105 -2.61187e-05 0)
(-0.000207423 -8.23107e-06 0)
(-0.000207407 9.62905e-06 0)
(-0.00020805 2.74896e-05 0)
(-0.000232247 -2.70927e-05 0)
(-0.00023154 -8.58386e-06 0)
(-0.000231514 9.91209e-06 0)
(-0.000232157 2.84007e-05 0)
(-0.000257295 -2.80869e-05 0)
(-0.000256582 -8.95521e-06 0)
(-0.000256549 1.01799e-05 0)
(-0.000257186 2.93e-05 0)
(-0.000283243 -2.90748e-05 0)
(-0.000282542 -9.32937e-06 0)
(-0.000282509 1.04365e-05 0)
(-0.000283134 3.01796e-05 0)
(-0.000310069 -3.0029e-05 0)
(-0.0003094 -9.69013e-06 0)
(-0.000309374 1.06862e-05 0)
(-0.00030998 3.10322e-05 0)
(-0.000337735 -3.09221e-05 0)
(-0.000337117 -1.00213e-05 0)
(-0.000337103 1.09334e-05 0)
(-0.000337686 3.18499e-05 0)
(-0.000366186 -3.17274e-05 0)
(-0.000365637 -1.03073e-05 0)
(-0.000365641 1.11819e-05 0)
(-0.000366193 3.26243e-05 0)
(-0.000395352 -3.24195e-05 0)
(-0.000394887 -1.05341e-05 0)
(-0.000394913 1.14339e-05 0)
(-0.000395427 3.33461e-05 0)
(-0.000425145 -3.29762e-05 0)
(-0.000424779 -1.06901e-05 0)
(-0.000424829 1.16899e-05 0)
(-0.000425295 3.40043e-05 0)
(-0.000455463 -3.33787e-05 0)
(-0.000455206 -1.0767e-05 0)
(-0.00045528 1.19476e-05 0)
(-0.000455689 3.4586e-05 0)
(-0.000486189 -3.3613e-05 0)
(-0.000486049 -1.07603e-05 0)
(-0.000486144 1.22016e-05 0)
(-0.000486484 3.50758e-05 0)
(-0.000517193 -3.36702e-05 0)
(-0.000517173 -1.06701e-05 0)
(-0.000517286 1.24428e-05 0)
(-0.000517544 3.54561e-05 0)
(-0.000548332 -3.35466e-05 0)
(-0.000548433 -1.05009e-05 0)
(-0.000548557 1.26588e-05 0)
(-0.000548718 3.5707e-05 0)
(-0.000579452 -3.32435e-05 0)
(-0.000579671 -1.02611e-05 0)
(-0.000579798 1.28346e-05 0)
(-0.000579849 3.58075e-05 0)
(-0.000610387 -3.27661e-05 0)
(-0.000610721 -9.96176e-06 0)
(-0.000610843 1.29536e-05 0)
(-0.000610769 3.5736e-05 0)
(-0.000640967 -3.21226e-05 0)
(-0.000641409 -9.61586e-06 0)
(-0.000641518 1.29989e-05 0)
(-0.000641308 3.54724e-05 0)
(-0.000671012 -3.13228e-05 0)
(-0.000671557 -9.23617e-06 0)
(-0.000671646 1.2955e-05 0)
(-0.000671289 3.49994e-05 0)
(-0.00070034 -3.0376e-05 0)
(-0.000700982 -8.83387e-06 0)
(-0.000701047 1.28098e-05 0)
(-0.000700538 3.43044e-05 0)
(-0.000728766 -2.92904e-05 0)
(-0.000729503 -8.417e-06 0)
(-0.00072954 1.25556e-05 0)
(-0.000728877 3.33805e-05 0)
(-0.000756109 -2.80715e-05 0)
(-0.000756937 -7.98928e-06 0)
(-0.000756949 1.21906e-05 0)
(-0.000756136 3.22282e-05 0)
(-0.000782188 -2.67217e-05 0)
(-0.000783109 -7.54947e-06 0)
(-0.000783099 1.17197e-05 0)
(-0.000782145 3.08556e-05 0)
(-0.000806833 -2.52399e-05 0)
(-0.000807848 -7.09136e-06 0)
(-0.000807824 1.1154e-05 0)
(-0.000806741 2.92787e-05 0)
(-0.00082988 -2.36228e-05 0)
(-0.000830993 -6.60441e-06 0)
(-0.000830963 1.05106e-05 0)
(-0.00082977 2.75201e-05 0)
(-0.000851178 -2.18654e-05 0)
(-0.000852392 -6.07508e-06 0)
(-0.000852367 9.81089e-06 0)
(-0.000851084 2.56084e-05 0)
(-0.000870592 -1.99629e-05 0)
(-0.000871908 -5.48869e-06 0)
(-0.000871899 9.07871e-06 0)
(-0.000870548 2.35757e-05 0)
(-0.000888 -1.7913e-05 0)
(-0.000889419 -4.83158e-06 0)
(-0.000889436 8.33814e-06 0)
(-0.000888038 2.14552e-05 0)
(-0.000903301 -1.57172e-05 0)
(-0.000904818 -4.09334e-06 0)
(-0.000904869 7.6111e-06 0)
(-0.000903445 1.92797e-05 0)
(-0.00091641 -1.33835e-05 0)
(-0.00091802 -3.2688e-06 0)
(-0.000918108 6.91524e-06 0)
(-0.000916676 1.70785e-05 0)
(-0.000927266 -1.09269e-05 0)
(-0.000928953 -2.35955e-06 0)
(-0.000929081 6.26233e-06 0)
(-0.000927655 1.48763e-05 0)
(-0.000935824 -8.37e-06 0)
(-0.000937571 -1.37458e-06 0)
(-0.000937734 5.65738e-06 0)
(-0.000936326 1.26921e-05 0)
(-0.000942061 -5.74326e-06 0)
(-0.000943846 -3.30205e-07 0)
(-0.000944038 5.09867e-06 0)
(-0.000942654 1.0539e-05 0)
(-0.000945974 -3.08318e-06 0)
(-0.000947772 7.51082e-07 0)
(-0.000947982 4.5786e-06 0)
(-0.000946628 8.42491e-06 0)
(-0.00094758 -4.3061e-07 0)
(-0.000949363 1.84246e-06 0)
(-0.000949582 4.08551e-06 0)
(-0.000948259 6.35397e-06 0)
(-0.000946917 2.17182e-06 0)
(-0.000948656 2.91529e-06 0)
(-0.000948872 3.6059e-06 0)
(-0.000947584 4.32868e-06 0)
(-0.00094404 4.68253e-06 0)
(-0.00094571 3.94182e-06 0)
(-0.000945912 3.12702e-06 0)
(-0.000944662 2.35208e-06 0)
(-0.000939026 7.06364e-06 0)
(-0.000940603 4.89789e-06 0)
(-0.000940783 2.63937e-06 0)
(-0.000939577 4.29931e-07 0)
(-0.000931971 9.28326e-06 0)
(-0.000933435 5.7651e-06 0)
(-0.000933589 2.13868e-06 0)
(-0.000932435 -1.42754e-06 0)
(-0.000922988 1.13171e-05 0)
(-0.000924326 6.53227e-06 0)
(-0.000924452 1.62725e-06 0)
(-0.000923362 -3.20463e-06 0)
(-0.000912213 1.31489e-05 0)
(-0.000913415 7.1959e-06 0)
(-0.000913515 1.11419e-06 0)
(-0.000912505 -4.87999e-06 0)
(-0.000899797 1.47704e-05 0)
(-0.000900858 7.75969e-06 0)
(-0.000900938 6.1479e-07 0)
(-0.000900024 -6.42745e-06 0)
(-0.00088591 1.61798e-05 0)
(-0.000886829 8.23301e-06 0)
(-0.000886896 1.48859e-07 0)
(-0.000886097 -7.81776e-06 0)
(-0.000870738 1.738e-05 0)
(-0.000871516 8.62872e-06 0)
(-0.000871578 -2.61627e-07 0)
(-0.000870911 -9.02092e-06 0)
(-0.000854482 1.83761e-05 0)
(-0.00085512 8.9605e-06 0)
(-0.000855184 -5.95282e-07 0)
(-0.000854666 -1.00089e-05 0)
(-0.000837354 1.91731e-05 0)
(-0.000837853 9.24021e-06 0)
(-0.000837926 -8.34082e-07 0)
(-0.000837567 -1.07585e-05 0)
(-0.000819575 1.97735e-05 0)
(-0.000819935 9.47558e-06 0)
(-0.000820019 -9.65761e-07 0)
(-0.000819828 -1.12535e-05 0)
(-0.000801374 2.01765e-05 0)
(-0.000801593 9.66861e-06 0)
(-0.000801686 -9.85455e-07 0)
(-0.000801664 -1.14865e-05 0)
(-0.000782982 2.03767e-05 0)
(-0.000783054 9.815e-06 0)
(-0.000783153 -8.96359e-07 0)
(-0.000783295 -1.14593e-05 0)
(-0.000764629 2.03651e-05 0)
(-0.000764547 9.90457e-06 0)
(-0.000764646 -7.09259e-07 0)
(-0.000764942 -1.1183e-05 0)
(-0.000746542 2.01303e-05 0)
(-0.0007463 9.92283e-06 0)
(-0.000746388 -4.40995e-07 0)
(-0.000746826 -1.06757e-05 0)
(-0.00072894 1.96607e-05 0)
(-0.000728532 9.85331e-06 0)
(-0.0007286 -1.12072e-07 0)
(-0.000729163 -9.96101e-06 0)
(-0.000712035 1.89472e-05 0)
(-0.000711456 9.68032e-06 0)
(-0.000711495 2.562e-07 0)
(-0.000712167 -9.06492e-06 0)
(-0.000696027 1.79855e-05 0)
(-0.000695277 9.39169e-06 0)
(-0.000695278 6.44506e-07 0)
(-0.000696042 -8.01301e-06 0)
(-0.000681101 1.67777e-05 0)
(-0.000680184 8.98084e-06 0)
(-0.000680142 1.03793e-06 0)
(-0.000680983 -6.82804e-06 0)
(-0.000667432 1.53344e-05 0)
(-0.000666355 8.44808e-06 0)
(-0.000666269 1.42706e-06 0)
(-0.000667174 -5.52914e-06 0)
(-0.000655173 1.3672e-05 0)
(-0.000653951 7.79986e-06 0)
(-0.000653822 1.80874e-06 0)
(-0.000654779 -4.12975e-06 0)
(-0.00064447 1.18161e-05 0)
(-0.000643123 7.04905e-06 0)
(-0.000642954 2.18348e-06 0)
(-0.000643952 -2.64272e-06 0)
(-0.000635433 9.78876e-06 0)
(-0.000633985 6.20957e-06 0)
(-0.000633782 2.55709e-06 0)
(-0.000634809 -1.07117e-06 0)
(-0.000628201 7.64068e-06 0)
(-0.000626686 5.30734e-06 0)
(-0.000626456 2.92583e-06 0)
(-0.000627492 5.55833e-07 0)
(-0.000622754 5.39609e-06 0)
(-0.000621204 4.36143e-06 0)
(-0.000620957 3.29168e-06 0)
(-0.000621985 2.23297e-06 0)
(-0.000619418 3.33777e-06 0)
(-0.000617848 3.45687e-06 0)
(-0.000617593 3.58844e-06 0)
(-0.000618613 3.68134e-06 0)
)
;

boundaryField
{
    plateFix
    {
        type            calculated;
        value           uniform (0 0 0);
    }
    plate
    {
        type            calculated;
        value           nonuniform List<vector> 
168
(
(-1.68655e-05 -9.43547e-06 -6.39163e-23)
(-1.69445e-05 9.45619e-06 3.60909e-23)
(-1.57164e-05 -1.51251e-05 1.04767e-22)
(-1.57525e-05 1.51712e-05 -6.36345e-23)
(-1.57119e-05 -1.95047e-05 3.79981e-24)
(-1.57108e-05 1.95635e-05 -1.88722e-23)
(-1.69942e-05 -2.2544e-05 -6.31142e-23)
(-1.69876e-05 2.26081e-05 6.08156e-23)
(-1.9479e-05 -2.46826e-05 5.83436e-23)
(-1.94897e-05 2.47538e-05 3.41401e-24)
(-2.29225e-05 -2.61268e-05 -1.11836e-23)
(-2.29604e-05 2.62116e-05 1.92485e-23)
(-2.71914e-05 -2.70936e-05 -6.39858e-23)
(-2.72598e-05 2.7201e-05 -8.28807e-23)
(-3.21819e-05 -2.77248e-05 6.75842e-23)
(-3.22806e-05 2.78645e-05 8.99923e-23)
(-3.78419e-05 -2.81363e-05 2.97821e-23)
(-3.79694e-05 2.83183e-05 -5.09481e-23)
(-4.41459e-05 -2.84115e-05 -8.64228e-24)
(-4.43002e-05 2.86461e-05 -4.08751e-23)
(-5.10931e-05 -2.86146e-05 -1.82557e-23)
(-5.12722e-05 2.89125e-05 5.06888e-23)
(-5.87011e-05 -2.87926e-05 2.50602e-23)
(-5.89023e-05 2.91653e-05 -1.01596e-23)
(-6.7004e-05 -2.89803e-05 -5.57754e-24)
(-6.72241e-05 2.94401e-05 3.69826e-23)
(-7.60518e-05 -2.9203e-05 1.11482e-23)
(-7.62856e-05 2.97625e-05 -3.19777e-23)
(-8.591e-05 -2.94795e-05 -3.26919e-24)
(-8.61506e-05 3.01503e-05 2.19067e-24)
(-9.66609e-05 -2.98238e-05 -8.39685e-24)
(-9.6899e-05 3.06156e-05 1.09199e-23)
(-0.000108404 -3.02478e-05 -3.44334e-23)
(-0.000108628 3.11661e-05 2.57663e-23)
(-0.000121257 -3.0762e-05 -3.19554e-23)
(-0.000121454 3.1806e-05 4.45053e-23)
(-0.000135358 -3.13769e-05 5.06152e-23)
(-0.000135514 3.25375e-05 -6.9256e-23)
(-0.000150867 -3.21026e-05 -6.52783e-25)
(-0.00015097 3.33611e-05 4.24931e-24)
(-0.000167969 -3.29486e-05 -6.19737e-23)
(-0.000168009 3.42763e-05 1.35469e-23)
(-0.000186874 -3.39214e-05 7.28339e-23)
(-0.000186847 3.52813e-05 -3.91394e-23)
(-0.00020862 -3.50682e-05 -1.33943e-23)
(-0.000208527 3.64174e-05 2.17513e-23)
(-0.000232781 -3.63453e-05 2.12017e-23)
(-0.000232635 3.76363e-05 1.33839e-23)
(-0.000257835 -3.76432e-05 -2.41372e-23)
(-0.000257661 3.88451e-05 -6.1681e-23)
(-0.000283774 -3.89299e-05 2.04137e-23)
(-0.000283599 4.003e-05 1.63804e-23)
(-0.000310578 -4.01729e-05 -1.87397e-23)
(-0.000310431 4.11777e-05 2.04908e-23)
(-0.000338208 -4.13392e-05 1.80941e-24)
(-0.000338117 4.22744e-05 -2.01812e-23)
(-0.000366609 -4.23966e-05 -3.09887e-23)
(-0.0003666 4.33057e-05 1.13867e-23)
(-0.000395713 -4.33145e-05 1.89665e-23)
(-0.000395804 4.42564e-05 2.57499e-23)
(-0.000425434 -4.40652e-05 -1.23777e-23)
(-0.000425636 4.51098e-05 -2.27379e-23)
(-0.000455671 -4.46251e-05 1.30475e-23)
(-0.000455986 4.58478e-05 2.33287e-23)
(-0.000486311 -4.49752e-05 -3.91099e-23)
(-0.00048673 4.64501e-05 -1.97148e-24)
(-0.000517226 -4.51024e-05 3.11823e-23)
(-0.000517728 4.68948e-05 -3.02791e-23)
(-0.000548275 -4.49988e-05 -4.52442e-24)
(-0.000548831 4.71585e-05 6.83412e-24)
(-0.000579306 -4.46622e-05 -3.75428e-25)
(-0.00057988 4.7217e-05 1.80348e-23)
(-0.000610156 -4.40947e-05 5.68964e-24)
(-0.000610709 4.70468e-05 -1.58051e-24)
(-0.000640654 -4.33022e-05 7.85056e-24)
(-0.000641146 4.66263e-05 -1.18187e-23)
(-0.000670622 -4.22925e-05 -1.99118e-23)
(-0.000671019 4.59373e-05 4.13941e-24)
(-0.000699878 -4.10744e-05 3.34416e-23)
(-0.000700154 4.4967e-05 1.33594e-23)
(-0.000728235 -3.96557e-05 2.2102e-25)
(-0.000728379 4.37092e-05 -4.05901e-25)
(-0.00075551 -3.80429e-05 -3.01664e-23)
(-0.000755525 4.21656e-05 -2.40093e-23)
(-0.000781523 -3.62401e-05 3.91862e-24)
(-0.000781427 4.03458e-05 4.51446e-24)
(-0.000806099 -3.42491e-05 -7.41201e-24)
(-0.000805927 3.8268e-05 1.85944e-23)
(-0.000829075 -3.20699e-05 1.13407e-25)
(-0.000828871 3.59579e-05 -1.36931e-23)
(-0.0008503 -2.9702e-05 2.06047e-23)
(-0.000850117 3.3447e-05 7.9831e-24)
(-0.000869638 -2.71459e-05 -1.50867e-24)
(-0.000869528 3.07714e-05 -3.69318e-24)
(-0.000886971 -2.44047e-05 -1.50589e-23)
(-0.000886983 2.79689e-05 -1.30065e-23)
(-0.000902199 -2.14864e-05 -8.03369e-24)
(-0.00090237 2.50771e-05 2.20749e-23)
(-0.000915242 -1.84052e-05 9.36547e-24)
(-0.000915594 2.21312e-05 -1.17159e-23)
(-0.00092604 -1.51829e-05 4.21044e-24)
(-0.000926577 1.91623e-05 6.44036e-24)
(-0.000934553 -1.18491e-05 -1.44137e-23)
(-0.00093526 1.6196e-05 2.99712e-24)
(-0.000940762 -8.4408e-06 1.86432e-23)
(-0.000941606 1.3253e-05 1.05607e-23)
(-0.000944667 -5.0014e-06 -1.97856e-23)
(-0.000945601 1.0349e-05 -1.1655e-23)
(-0.000946286 -1.57848e-06 2.26993e-23)
(-0.000947255 7.49606e-06 3.65024e-24)
(-0.000945656 1.77868e-06 -1.37977e-23)
(-0.000946603 4.70487e-06 -1.32279e-23)
(-0.000942833 5.02186e-06 -1.23687e-23)
(-0.000943707 1.98642e-06 1.42653e-23)
(-0.00093789 8.10659e-06 1.38088e-23)
(-0.000938653 -6.45829e-07 -1.10717e-24)
(-0.000930919 1.09945e-05 -3.33444e-24)
(-0.000931547 -3.1744e-06 -8.76728e-24)
(-0.000922032 1.36547e-05 2.30571e-24)
(-0.000922521 -5.57693e-06 7.40424e-24)
(-0.000911359 1.60648e-05 -1.06387e-23)
(-0.000911721 -7.82611e-06 4.38926e-24)
(-0.000899047 1.82104e-05 8.99215e-24)
(-0.000899313 -9.89054e-06 -1.75828e-24)
(-0.000885265 2.00841e-05 -1.39235e-23)
(-0.000885472 -1.17365e-05 7.8526e-24)
(-0.000870195 2.16836e-05 7.65971e-24)
(-0.000870388 -1.33303e-05 -4.84504e-24)
(-0.000854039 2.30095e-05 2.24542e-24)
(-0.000854256 -1.46408e-05 1.09445e-23)
(-0.000837009 2.40633e-05 2.55893e-24)
(-0.000837281 -1.56424e-05 -1.01032e-23)
(-0.000819328 2.4845e-05 2.06032e-24)
(-0.000819671 -1.63172e-05 -3.34427e-24)
(-0.000801227 2.53519e-05 7.74489e-25)
(-0.000801638 -1.66565e-05 9.86267e-25)
(-0.000782938 2.55786e-05 -6.8861e-25)
(-0.000783397 -1.66615e-05 -2.08044e-24)
(-0.000764693 2.55165e-05 2.99376e-24)
(-0.000765165 -1.6343e-05 4.54322e-24)
(-0.00074672 2.5156e-05 -1.09458e-23)
(-0.000747158 -1.572e-05 -1.08759e-23)
(-0.000729238 2.44881e-05 2.69146e-24)
(-0.000729592 -1.48172e-05 8.87671e-24)
(-0.000712457 2.35072e-05 -1.60726e-24)
(-0.000712679 -1.36626e-05 -8.12245e-24)
(-0.000696573 2.22128e-05 -1.13125e-23)
(-0.000696625 -1.22848e-05 -2.76829e-24)
(-0.000681769 2.06119e-05 3.01375e-24)
(-0.000681627 -1.07102e-05 2.63469e-24)
(-0.000668214 1.87198e-05 6.74906e-25)
(-0.00066787 -8.96298e-06 -6.43761e-24)
(-0.00065606 1.65578e-05 5.5018e-24)
(-0.00065552 -7.06139e-06 7.20121e-24)
(-0.000645451 1.41589e-05 7.90608e-24)
(-0.000644733 -5.02645e-06 6.24898e-24)
(-0.00063649 1.15463e-05 -4.85119e-24)
(-0.000635621 -2.86297e-06 -4.87001e-24)
(-0.000629316 8.79135e-06 -1.79304e-24)
(-0.000628328 -6.21188e-07 -5.93202e-24)
(-0.000623849 5.88854e-06 -1.27086e-25)
(-0.00062277 1.72222e-06 4.64356e-25)
(-0.000620417 3.24636e-06 -8.27483e-24)
(-0.000618407 2.42091e-06 8.22218e-24)
(-0.000616805 2.98743e-06 -3.1907e-24)
(-0.000616545 3.76521e-06 -7.73696e-25)
(-0.000617593 4.25568e-06 3.60256e-24)
(-0.000619261 3.76201e-06 4.92276e-24)
)
;
    }
    frontAndBackPlanes
    {
        type            empty;
    }
}


// ************************************************************************* //
