/*--------------------------------*- C++ -*----------------------------------*\
| =========                 |                                                 |
| \\      /  F ield         | OpenFOAM Extend Project: Open source CFD        |
|  \\    /   O peration     | Version:  1.6-ext                               |
|   \\  /    A nd           | Web:      www.extend-project.de                 |
|    \\/     M anipulation  |                                                 |
\*---------------------------------------------------------------------------*/
FoamFile
{
    version     2.0;
    format      ascii;
    class       surfaceScalarField;
    location    "0.15";
    object      meshPhi;
}
// * * * * * * * * * * * * * * * * * * * * * * * * * * * * * * * * * * * * * //

dimensions      [0 3 -1 0 0 0 0];

internalField   nonuniform List<scalar> 
570
(
-5.50002e-10
-1.38894e-08
3.35963e-12
-3.51492e-09
5.69653e-10
-3.58457e-09
-1.44714e-08
-1.65914e-09
-1.58998e-08
1.47456e-11
-7.88378e-09
1.72553e-09
-8.03336e-09
-1.66538e-08
-2.68374e-09
-1.92446e-08
3.64601e-11
-1.32591e-08
2.81151e-09
-1.34992e-08
-2.02222e-08
-3.59935e-09
-2.38805e-08
7.09988e-11
-1.94724e-08
3.80903e-09
-1.98101e-08
-2.51197e-08
-4.40553e-09
-2.96906e-08
1.21288e-10
-2.65117e-08
4.72477e-09
-2.69531e-08
-3.12206e-08
-5.10934e-09
-3.65151e-08
1.91118e-10
-3.43142e-08
5.57445e-09
-3.48635e-08
-3.83563e-08
-5.71952e-09
-4.42656e-08
2.85336e-10
-4.28609e-08
6.37729e-09
-4.35217e-08
-4.64328e-08
-6.24567e-09
-5.28827e-08
4.1001e-10
-5.21343e-08
7.15557e-09
-5.29092e-08
-5.53861e-08
-6.69693e-09
-6.2342e-08
5.72643e-10
-6.21373e-08
7.9338e-09
-6.30278e-08
-6.51883e-08
-7.08119e-09
-7.26395e-08
7.82392e-10
-7.28834e-08
8.73831e-09
-7.38905e-08
-7.58319e-08
-7.40381e-09
-8.37889e-08
1.05033e-09
-8.44002e-08
9.59666e-09
-8.55235e-08
-8.73272e-08
-7.66659e-09
-9.5816e-08
1.3897e-09
-9.67259e-08
1.05371e-08
-9.79641e-08
-9.96963e-08
-7.86663e-09
-1.08757e-07
1.81625e-09
-1.09908e-07
1.1588e-08
-1.11258e-07
-1.12971e-07
-7.99554e-09
-1.22657e-07
2.34845e-09
-1.24002e-07
1.27777e-08
-1.2546e-07
-1.27191e-07
-8.03892e-09
-1.37565e-07
3.00778e-09
-1.39067e-07
1.41347e-08
-1.40626e-07
-1.424e-07
-7.9762e-09
-1.53537e-07
3.81892e-09
-1.55167e-07
1.56874e-08
-1.56818e-07
-1.58647e-07
-7.78096e-09
-1.70631e-07
4.80974e-09
-1.72365e-07
1.74647e-08
-1.74097e-07
-1.75981e-07
-7.42168e-09
-1.88908e-07
6.01118e-09
-1.90725e-07
1.94969e-08
-1.92524e-07
-1.94454e-07
-6.8629e-09
-2.08429e-07
7.45676e-09
-2.10309e-07
2.18149e-08
-2.12156e-07
-2.14116e-07
-6.06699e-09
-2.29256e-07
9.18157e-09
-2.31177e-07
2.44509e-08
-2.3305e-07
-2.35015e-07
-4.99644e-09
-2.51448e-07
1.12207e-08
-2.53387e-07
2.74372e-08
-2.55257e-07
-2.57198e-07
-3.61692e-09
-2.75068e-07
1.36063e-08
-2.76993e-07
3.08035e-08
-2.7883e-07
-2.80709e-07
-1.96251e-09
-3.02013e-07
1.76395e-08
-3.03884e-07
3.71798e-08
-3.0564e-07
-3.07411e-07
3.20919e-10
-3.28666e-07
1.96646e-08
-3.30441e-07
3.89137e-08
-3.32076e-07
-3.33695e-07
2.48289e-09
-3.55006e-07
2.15597e-08
-3.56647e-07
4.05102e-08
-3.58119e-07
-3.59546e-07
4.48135e-09
-3.81018e-07
2.32844e-08
-3.82484e-07
4.19305e-08
-3.83756e-07
-3.84952e-07
6.27719e-09
-4.06683e-07
2.47996e-08
-4.07937e-07
4.31352e-08
-4.0897e-07
-4.09896e-07
7.83362e-09
-4.3198e-07
2.60672e-08
-4.32984e-07
4.40854e-08
-4.33742e-07
-4.34365e-07
9.11585e-09
-4.56888e-07
2.70508e-08
-4.57606e-07
4.47427e-08
-4.58053e-07
-4.58337e-07
1.00905e-08
-4.81382e-07
2.7715e-08
-4.81778e-07
4.50695e-08
-4.81881e-07
-4.81794e-07
1.07256e-08
-5.05436e-07
2.80255e-08
-5.05476e-07
4.50297e-08
-5.05202e-07
-5.04711e-07
1.09897e-08
-5.2902e-07
2.79491e-08
-5.28672e-07
4.45881e-08
-5.27989e-07
-5.27064e-07
1.08525e-08
-5.52104e-07
2.74538e-08
-5.51337e-07
4.3711e-08
-5.50214e-07
-5.48825e-07
1.0284e-08
-5.74657e-07
2.65084e-08
-5.73441e-07
4.2366e-08
-5.71849e-07
-5.69968e-07
9.25505e-09
-5.96646e-07
2.50826e-08
-5.94952e-07
4.0522e-08
-5.92864e-07
-5.90463e-07
7.73736e-09
-6.18038e-07
2.31476e-08
-6.15839e-07
3.81498e-08
-6.1323e-07
-6.10284e-07
5.70371e-09
-6.38801e-07
2.06758e-08
-6.36071e-07
3.52216e-08
-6.32917e-07
-6.29403e-07
3.12843e-09
-6.58899e-07
1.76417e-08
-6.55617e-07
3.17122e-08
-6.51896e-07
-6.47794e-07
-1.21586e-11
-6.78302e-07
1.40219e-08
-6.74448e-07
2.75989e-08
-6.70142e-07
-6.65433e-07
-3.73923e-09
-6.96977e-07
9.79589e-09
-6.92533e-07
2.2862e-08
-6.87627e-07
-6.82297e-07
-8.07093e-09
-7.14894e-07
4.94653e-09
-7.09846e-07
1.74856e-08
-7.04327e-07
-6.98365e-07
-1.3022e-08
-7.32023e-07
-5.39659e-10
-7.26362e-07
1.14576e-08
-7.20221e-07
-7.13619e-07
-1.86032e-08
-7.48338e-07
-6.67205e-09
-7.42057e-07
4.77005e-09
-7.3529e-07
-7.28044e-07
-2.48214e-08
-7.63815e-07
-1.34558e-08
-7.56911e-07
-2.58031e-09
-7.49516e-07
-7.41627e-07
-3.16796e-08
-7.78433e-07
-2.08917e-08
-7.70906e-07
-1.05925e-08
-7.62886e-07
-7.54358e-07
-3.91765e-08
-7.92174e-07
-2.89765e-08
-7.84028e-07
-1.92611e-08
-7.75388e-07
-7.66229e-07
-4.73073e-08
-8.05025e-07
-3.7703e-08
-7.96266e-07
-2.85768e-08
-7.87015e-07
-7.77236e-07
-5.6064e-08
-8.16974e-07
-4.70607e-08
-8.07614e-07
-3.85268e-08
-7.97762e-07
-7.87378e-07
-6.54358e-08
-8.28018e-07
-5.70361e-08
-8.18067e-07
-4.90953e-08
-8.07629e-07
-7.96656e-07
-7.54094e-08
-8.38153e-07
-6.76133e-08
-8.27626e-07
-6.02638e-08
-8.16618e-07
-8.05074e-07
-8.59698e-08
-8.47384e-07
-7.87745e-08
-8.36297e-07
-7.2012e-08
-8.24736e-07
-8.12643e-07
-9.71005e-08
-8.55718e-07
-9.05004e-08
-8.44087e-07
-8.43179e-08
-8.31993e-07
-8.19372e-07
-1.08784e-07
-8.63165e-07
-1.0277e-07
-8.5101e-07
-9.71583e-08
-8.38404e-07
-8.25279e-07
-1.21e-07
-8.69743e-07
-1.15563e-07
-8.57083e-07
-1.10509e-07
-8.43987e-07
-8.30383e-07
-1.33731e-07
-8.7547e-07
-1.28854e-07
-8.62327e-07
-1.24344e-07
-8.48765e-07
-8.34707e-07
-1.46953e-07
-8.80371e-07
-1.42622e-07
-8.66767e-07
-1.38637e-07
-8.52762e-07
-8.38279e-07
-1.60645e-07
-8.84472e-07
-1.5684e-07
-8.70431e-07
-1.5336e-07
-8.56011e-07
-8.4113e-07
-1.74783e-07
-8.87806e-07
-1.71481e-07
-8.73352e-07
-1.68485e-07
-8.58543e-07
-8.43294e-07
-1.8934e-07
-8.90405e-07
-1.86519e-07
-8.75567e-07
-1.8398e-07
-8.60397e-07
-8.44809e-07
-2.0429e-07
-8.9231e-07
-2.01922e-07
-8.77113e-07
-1.99815e-07
-8.61611e-07
-8.45717e-07
-2.19604e-07
-8.93561e-07
-2.17661e-07
-8.78034e-07
-2.15956e-07
-8.6223e-07
-8.4606e-07
-2.35252e-07
-8.94203e-07
-2.33702e-07
-8.78375e-07
-2.32369e-07
-8.62297e-07
-8.45883e-07
-2.51203e-07
-8.94285e-07
-2.50016e-07
-8.78183e-07
-2.49022e-07
-8.61862e-07
-8.45235e-07
-2.67427e-07
-8.93857e-07
-2.66568e-07
-8.7751e-07
-2.65881e-07
-8.60972e-07
-8.44162e-07
-2.83895e-07
-8.92973e-07
-2.83329e-07
-8.76407e-07
-2.82914e-07
-8.59679e-07
-8.42714e-07
-3.00579e-07
-8.91688e-07
-3.00269e-07
-8.74928e-07
-3.00091e-07
-8.58035e-07
-8.4094e-07
-3.17451e-07
-8.90058e-07
-3.17361e-07
-8.73126e-07
-3.17385e-07
-8.56092e-07
-8.38891e-07
-3.34489e-07
-8.8814e-07
-3.34581e-07
-8.71058e-07
-3.34772e-07
-8.53902e-07
-8.36616e-07
-3.5167e-07
-8.85991e-07
-3.51908e-07
-8.68777e-07
-3.52229e-07
-8.51519e-07
-8.34166e-07
-3.68977e-07
-8.83668e-07
-3.69323e-07
-8.66339e-07
-3.6974e-07
-8.48993e-07
-8.31589e-07
-3.86392e-07
-8.81226e-07
-3.86811e-07
-8.63796e-07
-3.8729e-07
-8.46378e-07
-8.28934e-07
-4.03904e-07
-8.78718e-07
-4.0436e-07
-8.612e-07
-4.04866e-07
-8.43721e-07
-8.26249e-07
-4.21499e-07
-8.76196e-07
-4.21959e-07
-8.58601e-07
-4.2246e-07
-8.41072e-07
-8.23581e-07
-4.39167e-07
-8.73709e-07
-4.39598e-07
-8.56047e-07
-4.40064e-07
-8.38477e-07
-8.20973e-07
-4.56898e-07
-8.71301e-07
-4.57271e-07
-8.53582e-07
-4.57672e-07
-8.35979e-07
-8.18468e-07
-4.74684e-07
-8.69014e-07
-4.74971e-07
-8.51247e-07
-4.7528e-07
-8.33617e-07
-8.16105e-07
-4.92515e-07
-8.66887e-07
-4.92691e-07
-8.4908e-07
-4.92883e-07
-8.3143e-07
-8.1392e-07
-5.10384e-07
-8.64953e-07
-5.10425e-07
-8.47114e-07
-5.10479e-07
-8.29448e-07
-8.11945e-07
-5.2828e-07
-8.63246e-07
-5.28168e-07
-8.4538e-07
-5.28066e-07
-8.27704e-07
-8.10208e-07
-5.46196e-07
-8.61785e-07
-5.45915e-07
-8.43896e-07
-5.45642e-07
-8.26212e-07
-8.08728e-07
-5.64122e-07
-8.6061e-07
-5.63663e-07
-8.42694e-07
-5.6321e-07
-8.25004e-07
-8.07535e-07
-5.8205e-07
-5.81407e-07
-5.8077e-07
)
;

boundaryField
{
    plateFix
    {
        type            calculated;
        value           nonuniform List<scalar> 4(1.11719e-08 -4.06023e-13 -5.4203e-13 1.15937e-08);
    }
    plate
    {
        type            calculated;
        value           nonuniform List<scalar> 
168
(
2.61109e-09
2.72117e-09
4.56209e-09
4.74983e-09
6.35398e-09
6.62865e-09
7.93108e-09
8.30695e-09
9.31864e-09
9.81821e-09
1.0561e-08
1.12169e-08
1.16915e-08
1.25476e-08
1.27392e-08
1.38528e-08
1.37264e-08
1.51704e-08
1.46699e-08
1.65359e-08
1.55814e-08
1.79827e-08
1.64666e-08
1.95432e-08
1.7326e-08
2.12484e-08
1.81532e-08
2.31285e-08
1.89353e-08
2.52127e-08
1.96527e-08
2.75298e-08
2.0279e-08
3.01082e-08
2.07824e-08
3.29768e-08
2.11267e-08
3.61651e-08
2.12733e-08
3.97036e-08
2.11842e-08
4.36225e-08
2.08241e-08
4.79498e-08
2.1566e-08
5.66413e-08
1.90453e-08
5.80639e-08
1.6636e-08
5.9341e-08
1.43831e-08
6.04371e-08
1.23256e-08
6.13127e-08
1.04991e-08
6.19277e-08
8.93652e-09
6.22416e-08
7.66903e-09
6.22148e-08
6.72662e-09
6.18089e-08
6.13857e-09
6.0987e-08
5.93371e-09
5.97137e-08
6.14051e-09
5.79554e-08
6.78711e-09
5.56804e-08
7.90114e-09
5.2859e-08
9.5094e-09
4.94636e-08
1.16375e-08
4.54695e-08
1.43093e-08
4.08548e-08
1.75466e-08
3.56008e-08
2.13683e-08
2.96928e-08
2.57902e-08
2.31203e-08
3.08247e-08
1.58771e-08
3.64804e-08
7.96149e-09
4.2762e-08
-6.23588e-10
4.96707e-08
-9.87086e-09
5.72041e-08
-1.9769e-08
6.53569e-08
-3.03031e-08
7.4121e-08
-4.1455e-08
8.34859e-08
-5.3204e-08
9.34396e-08
-6.55275e-08
1.03968e-07
-7.84009e-08
1.15057e-07
-9.17984e-08
1.2669e-07
-1.05693e-07
1.3885e-07
-1.20057e-07
1.51518e-07
-1.3486e-07
1.64674e-07
-1.50074e-07
1.78297e-07
-1.65665e-07
1.92363e-07
-1.81602e-07
2.06848e-07
-1.97851e-07
2.21724e-07
-2.14378e-07
2.36964e-07
-2.31146e-07
2.52541e-07
-2.48123e-07
2.68425e-07
-2.65273e-07
2.84588e-07
-2.82564e-07
3.01003e-07
-2.99965e-07
3.17645e-07
-3.1745e-07
3.34489e-07
-3.34992e-07
3.51516e-07
-3.52572e-07
3.68705e-07
-3.70171e-07
3.8604e-07
-3.87776e-07
4.03507e-07
-4.05376e-07
4.21091e-07
-4.22961e-07
4.38781e-07
-4.40527e-07
4.56565e-07
-4.58068e-07
4.74431e-07
-4.75583e-07
4.92368e-07
-4.93069e-07
5.10366e-07
-5.10526e-07
5.28411e-07
-5.27956e-07
5.46495e-07
-5.45361e-07
5.646e-07
-5.62752e-07
5.8268e-07
-8.59682e-07
-8.4174e-07
-8.24045e-07
-8.06596e-07
-5.80155e-07
)
;
    }
    frontAndBackPlanes
    {
        type            empty;
    }
}


// ************************************************************************* //
