/*--------------------------------*- C++ -*----------------------------------*\
| =========                 |                                                 |
| \\      /  F ield         | OpenFOAM Extend Project: Open source CFD        |
|  \\    /   O peration     | Version:  1.6-ext                               |
|   \\  /    A nd           | Web:      www.extend-project.de                 |
|    \\/     M anipulation  |                                                 |
\*---------------------------------------------------------------------------*/
FoamFile
{
    version     2.0;
    format      ascii;
    class       volScalarField;
    location    "0.15";
    object      sigmaEq;
}
// * * * * * * * * * * * * * * * * * * * * * * * * * * * * * * * * * * * * * //

dimensions      [1 -1 -2 0 0 0 0];

internalField   nonuniform List<scalar> 
328
(
2.33272
1.52112
1.68286
3.46077
2.31373
1.89949
2.23663
3.52598
2.39286
2.31261
2.75727
3.69079
2.45832
2.61954
3.11005
3.79339
2.52974
2.86577
3.37573
3.88161
2.5883
3.03931
3.55166
3.93894
2.64146
3.16053
3.66827
3.98205
2.68999
3.23853
3.73798
4.01467
2.73711
3.28721
3.77721
4.04262
2.78409
3.3169
3.79702
4.06813
2.83206
3.3369
3.80705
4.09282
2.8816
3.35398
3.81403
4.11743
2.93314
3.37294
3.82265
4.14242
2.98694
3.39659
3.83556
4.168
3.04305
3.42617
3.85389
4.19418
3.10123
3.46161
3.87749
4.22065
3.16083
3.50187
3.90526
4.24672
3.22076
3.54516
3.93537
4.27128
3.27947
3.58916
3.96551
4.29276
3.33502
3.63125
3.99304
4.30923
3.38524
3.66867
4.01525
4.31859
3.4279
3.69876
4.02949
4.31861
3.4619
3.71977
4.03345
4.30686
3.48449
3.72882
4.02491
4.28229
3.49391
3.72513
4.00428
4.24617
3.49239
3.71085
3.9737
4.20078
3.4817
3.68776
3.93493
4.14786
3.46356
3.6576
3.88971
4.08914
3.43945
3.62185
3.83952
4.02611
3.41058
3.58173
3.78558
3.95998
3.37789
3.53822
3.72886
3.8917
3.34212
3.49205
3.6701
3.822
3.3038
3.44378
3.60987
3.75141
3.26333
3.39381
3.54854
3.68031
3.22096
3.34241
3.4864
3.60895
3.17688
3.28978
3.42362
3.53751
3.1312
3.23602
3.36032
3.46607
3.08401
3.18122
3.29654
3.39467
3.03533
3.1254
3.23231
3.32334
2.98522
3.06859
3.16765
3.25204
2.93369
3.0108
3.10253
3.18075
2.88076
2.95204
3.03694
3.10944
2.82645
2.8923
2.97087
3.03806
2.77081
2.8316
2.90428
2.96657
2.71387
2.76995
2.83718
2.89493
2.65566
2.70738
2.76955
2.82311
2.59624
2.6439
2.70139
2.75108
2.53567
2.57955
2.6327
2.67883
2.47401
2.51437
2.5635
2.60634
2.41132
2.44841
2.49381
2.53362
2.34768
2.38171
2.42365
2.46066
2.28314
2.31433
2.35307
2.38749
2.21778
2.24631
2.28208
2.31413
2.15168
2.17773
2.21074
2.24061
2.0849
2.10863
2.13909
2.16695
2.01752
2.03908
2.06717
2.09319
1.94961
1.96914
1.99503
2.01936
1.88122
1.89885
1.92271
1.9455
1.81244
1.82828
1.85025
1.87163
1.74332
1.75747
1.77769
1.79778
1.67392
1.68647
1.70505
1.72398
1.60429
1.61533
1.63238
1.65023
1.53448
1.54406
1.55968
1.57657
1.46453
1.47271
1.48697
1.50298
1.39448
1.40128
1.41426
1.42948
1.32433
1.32979
1.34155
1.35605
1.25411
1.25823
1.26882
1.28269
1.18381
1.18658
1.19605
1.20937
1.11341
1.11482
1.1232
1.13606
1.04289
1.04289
1.05022
1.06273
0.9722
0.970723
0.977046
0.989341
0.901291
0.898231
0.903582
0.915826
0.830095
0.825281
0.829699
0.842132
0.758541
0.751672
0.755198
0.768196
0.686594
0.677109
0.679791
0.693999
0.614251
0.60102
0.602908
0.619558
0.541862
0.522597
0.523747
0.545245
0.469865
0.439932
0.440396
0.471536
0.400989
0.352279
0.352109
0.401207
0.335424
0.258163
0.257448
0.334561
0.28526
0.185019
0.184065
0.28381
0.231202
0.181325
0.18084
0.230182
)
;

boundaryField
{
    plateFix
    {
        type            calculated;
        value           nonuniform List<scalar> 4(2.59099 1.50404 1.59077 3.73358);
    }
    plate
    {
        type            calculated;
        value           nonuniform List<scalar> 
168
(
2.21992
3.48593
2.29397
3.61726
2.41296
3.79835
2.46892
3.87384
2.52247
3.93532
2.5649
3.97207
2.60818
4.00334
2.6521
4.0303
2.69844
4.05672
2.74688
4.0829
2.79738
4.10927
2.84977
4.13579
2.90407
4.16254
2.96034
4.18954
3.01858
4.21675
3.07853
4.24386
3.13959
4.27024
3.20072
4.29479
3.26042
4.31599
3.31679
4.33194
3.36774
4.34059
3.41106
4.33972
3.44562
4.32685
3.46893
4.30123
3.479
4.26398
3.47818
4.21752
3.46818
4.16355
3.45074
4.10384
3.42733
4.03987
3.39915
3.97285
3.36716
3.90373
3.33207
3.83324
3.29442
3.7619
3.25459
3.69011
3.21285
3.61811
3.16937
3.54606
3.12427
3.47405
3.07762
3.40213
3.02947
3.33031
2.97984
3.25856
2.92877
3.18686
2.87628
3.11516
2.82238
3.04343
2.76713
2.97162
2.71054
2.89969
2.65268
2.82761
2.59358
2.75534
2.53332
2.68287
2.47195
2.61019
2.40953
2.53729
2.34614
2.46418
2.28185
2.39088
2.21674
2.3174
2.15087
2.24378
2.08431
2.17003
2.01714
2.0962
1.94944
2.02232
1.88126
1.94842
1.81268
1.87453
1.74376
1.80068
1.67456
1.72688
1.60513
1.65317
1.53553
1.57954
1.4658
1.50602
1.39597
1.4326
1.32606
1.35927
1.25609
1.28604
1.18606
1.21288
1.11597
1.13977
1.04579
1.06668
0.975492
0.99358
0.905038
0.920429
0.834383
0.84719
0.763485
0.773832
0.692352
0.700378
0.621034
0.6269
0.549949
0.553844
0.479532
0.481683
0.412517
0.413198
0.349267
0.348833
0.308389
0.307178
0.277518
0.18728
0.172392
0.172165
0.186831
0.276301
)
;
    }
    frontAndBackPlanes
    {
        type            empty;
    }
}


// ************************************************************************* //
