/*--------------------------------*- C++ -*----------------------------------*\
| =========                 |                                                 |
| \\      /  F ield         | OpenFOAM Extend Project: Open source CFD        |
|  \\    /   O peration     | Version:  1.6-ext                               |
|   \\  /    A nd           | Web:      www.extend-project.de                 |
|    \\/     M anipulation  |                                                 |
\*---------------------------------------------------------------------------*/
FoamFile
{
    version     2.0;
    format      ascii;
    class       volSymmTensorField;
    location    "0.15";
    object      sigma;
}
// * * * * * * * * * * * * * * * * * * * * * * * * * * * * * * * * * * * * * //

dimensions      [1 -1 -2 0 0 0 0];

internalField   nonuniform List<symmTensor> 
328
(
(3.06043 0.780633 -4.2419e-22 0.91427 7.10122e-20 1.58871)
(3.15585 0.434784 -7.71315e-24 1.73873 4.6663e-23 1.95687)
(3.63329 -0.36372 3.60021e-23 1.95116 -4.96024e-23 2.23278)
(4.9704 -1.002 -4.38391e-22 1.59765 -1.20915e-19 2.62577)
(2.7827 0.544932 2.16631e-21 0.370987 -1.5343e-19 1.26027)
(3.1652 0.335598 1.59215e-22 1.13734 -2.97003e-23 1.71999)
(3.63885 -0.330992 2.81144e-23 1.20628 1.18272e-22 1.93696)
(4.61435 -0.694533 1.22319e-21 0.839636 -2.17729e-20 2.18012)
(2.70208 0.344902 -2.89543e-21 0.0455814 -2.08743e-20 1.09781)
(3.36468 0.238429 -2.79077e-22 0.781453 1.12551e-22 1.65733)
(3.87399 -0.279808 9.13702e-22 0.786521 6.23412e-23 1.86301)
(4.52745 -0.444794 -4.00693e-21 0.398818 1.26239e-19 1.96897)
(2.61356 0.199773 7.19065e-22 -0.182596 1.8792e-20 0.971068)
(3.42284 0.146105 2.7314e-22 0.445738 -1.15879e-22 1.5462)
(3.92897 -0.215731 -1.38229e-21 0.39922 -5.48459e-22 1.72995)
(4.41034 -0.268937 3.75491e-21 0.0947124 4.72688e-20 1.80042)
(2.58375 0.103692 5.93353e-22 -0.31806 5.7522e-20 0.904908)
(3.49068 0.0702091 2.25637e-22 0.212527 1.60399e-22 1.47995)
(3.99614 -0.154727 8.79956e-22 0.140162 -8.58458e-22 1.65309)
(4.36244 -0.155456 1.17724e-21 -0.0812374 -1.07149e-19 1.71082)
(2.57547 0.0433975 6.51691e-22 -0.401272 -6.0834e-20 0.868276)
(3.51395 0.0119247 -1.81224e-22 0.0286569 -6.42584e-23 1.41563)
(4.00951 -0.104076 -8.03346e-22 -0.0606527 7.49047e-22 1.57802)
(4.33242 -0.0859217 -1.1991e-21 -0.187144 3.84276e-20 1.65642)
(2.59195 0.00922724 -9.14157e-22 -0.447889 9.7013e-20 0.856196)
(3.52666 -0.0280274 1.82741e-22 -0.100687 9.51227e-24 1.36891)
(4.01196 -0.0672509 -9.43208e-22 -0.198504 -1.93438e-22 1.5238)
(4.3275 -0.0473431 2.2172e-21 -0.245155 -2.08741e-21 1.63122)
(2.62226 -0.00721422 2.78453e-21 -0.473783 -2.30649e-20 0.857947)
(3.52403 -0.0524001 -1.82089e-21 -0.194016 -1.1635e-22 1.33048)
(3.99737 -0.0437253 -2.63971e-22 -0.29659 -5.14315e-22 1.47868)
(4.33443 -0.0290729 -2.5299e-21 -0.277011 -4.74096e-20 1.62124)
(2.66246 -0.0119743 -4.54859e-21 -0.48786 5.16689e-20 0.868388)
(3.51653 -0.064305 1.89144e-21 -0.25815 3.74441e-23 1.3018)
(3.97812 -0.0314762 9.21087e-22 -0.36276 6.89642e-22 1.44449)
(4.34959 -0.0237738 -1.52041e-21 -0.294437 9.05146e-20 1.62032)
(2.70761 -0.00976281 1.78519e-21 -0.496842 -8.63187e-20 0.882846)
(3.50652 -0.0673995 2.34999e-21 -0.303042 -3.96792e-22 1.27983)
(3.95642 -0.0275221 -4.42008e-23 -0.408283 -7.49571e-22 1.41759)
(4.3676 -0.025983 1.00631e-21 -0.305909 -7.55713e-20 1.62293)
(2.75479 -0.00396581 -1.1618e-21 -0.504913 6.65094e-20 0.898486)
(3.49806 -0.0649016 -1.48555e-21 -0.335347 6.81874e-22 1.26352)
(3.93662 -0.0289483 1.47657e-21 -0.440245 6.48902e-22 1.39688)
(4.38551 -0.0319389 -1.16334e-21 -0.316427 1.23916e-20 1.62588)
(2.80184 0.00296508 8.93601e-22 -0.514901 -8.27695e-20 0.913308)
(3.49285 -0.0595077 1.75083e-21 -0.361067 2.91766e-22 1.25114)
(3.92028 -0.0332012 1.09826e-21 -0.465002 -1.60853e-22 1.38044)
(4.40105 -0.0390065 -9.8152e-22 -0.329202 1.8952e-20 1.62699)
(2.8476 0.00936767 -1.51755e-21 -0.528504 6.14659e-20 0.926164)
(3.49207 -0.0531898 -2.12827e-21 -0.384473 -4.43976e-22 1.24147)
(3.90848 -0.0383528 -6.36015e-21 -0.486968 3.76213e-22 1.36694)
(4.41301 -0.0454555 7.75895e-22 -0.346068 1.93944e-20 1.62502)
(2.89148 0.0141705 1.17093e-21 -0.546647 -1.88171e-21 0.936452)
(3.49584 -0.0472623 1.13077e-21 -0.408663 6.8995e-22 1.2333)
(3.90121 -0.0430913 4.11585e-21 -0.509346 -2.47649e-22 1.35508)
(4.42077 -0.0501942 2.9114e-22 -0.367971 -3.55126e-20 1.61936)
(2.93329 0.0167593 -1.48253e-21 -0.569612 -1.24046e-20 0.943987)
(3.50371 -0.0424666 -6.5323e-22 -0.435515 -1.21002e-21 1.22571)
(3.89789 -0.0466603 -3.15245e-21 -0.53407 1.09035e-21 1.34386)
(4.42411 -0.0526133 2.48924e-21 -0.395171 2.28837e-20 1.60982)
(2.97302 0.0168569 -1.52997e-21 -0.59716 -4.50011e-21 0.948853)
(3.51474 -0.0391166 -4.0539e-21 -0.465923 3.31285e-22 1.21795)
(3.89744 -0.0487243 3.60701e-21 -0.562079 -2.44936e-22 1.33248)
(4.42297 -0.0524451 -3.24761e-22 -0.427394 -3.05518e-20 1.59648)
(3.01059 0.0144341 -4.06973e-22 -0.628599 -2.4357e-20 0.951302)
(3.52769 -0.0372337 2.88448e-21 -0.499935 -8.68905e-22 1.20953)
(3.89854 -0.0492395 1.19547e-21 -0.59345 -5.77722e-23 1.32037)
(4.41729 -0.0496713 2.57e-21 -0.463911 2.03315e-20 1.5796)
(3.04582 0.00965323 1.22786e-20 -0.662823 7.16226e-21 0.951699)
(3.54115 -0.0366622 -9.35627e-21 -0.536909 3.19147e-22 1.20012)
(3.89968 -0.0483385 -4.67412e-21 -0.627566 -4.69818e-22 1.30718)
(4.40684 -0.0444616 -7.8214e-21 -0.503583 -5.30319e-20 1.55955)
(3.07826 0.00281371 -1.02629e-20 -0.698427 2.0911e-20 0.95043)
(3.5536 -0.0371582 -9.66219e-24 -0.575699 9.47303e-22 1.18958)
(3.89931 -0.0462437 -6.03114e-22 -0.663299 1.45655e-22 1.29274)
(4.3912 -0.0371203 3.76349e-21 -0.544976 4.66459e-20 1.53674)
(3.10738 -0.00563798 -4.2498e-21 -0.733662 -3.25573e-21 0.947977)
(3.56358 -0.0384349 4.68065e-21 -0.614723 -1.04883e-22 1.17796)
(3.89592 -0.0432172 1.15212e-20 -0.699083 1.5088e-22 1.27707)
(4.36983 -0.0280941 6.60837e-21 -0.586324 -3.48403e-21 1.51166)
(3.13228 -0.0152049 1.77457e-20 -0.766861 -2.08424e-21 0.944657)
(3.56957 -0.0402086 -5.64695e-21 -0.652315 6.57636e-22 1.16532)
(3.88799 -0.0395246 -1.02976e-20 -0.733263 -1.81053e-22 1.26023)
(4.34196 -0.0178795 -1.69897e-21 -0.625929 1.9318e-20 1.48467)
(3.15239 -0.0252782 6.16145e-21 -0.796007 -2.60856e-21 0.94104)
(3.57046 -0.0421906 -7.67547e-21 -0.686517 2.33932e-22 1.152)
(3.87437 -0.0353956 -4.72881e-21 -0.763911 -6.59753e-22 1.24253)
(4.30691 -0.007058 3.57537e-21 -0.661812 7.51318e-22 1.45631)
(3.16695 -0.0352916 1.16999e-20 -0.82057 8.38744e-21 0.937041)
(3.56443 -0.0439733 -1.56738e-21 -0.717149 8.84228e-22 1.13734)
(3.85279 -0.0308403 2.80577e-22 -0.790648 1.55461e-22 1.22321)
(4.2624 0.00398526 1.59819e-20 -0.693453 -7.71854e-21 1.42586)
(3.17477 -0.0447145 -1.19207e-20 -0.838605 -2.34392e-20 0.932959)
(3.55114 -0.0458615 -6.76361e-21 -0.741166 -3.24467e-22 1.12242)
(3.82345 -0.0267425 2.5601e-21 -0.810623 -7.99754e-22 1.2035)
(4.20934 0.0141691 -4.82857e-20 -0.718729 3.27655e-20 1.39454)
(3.17572 -0.0527322 2.27259e-20 -0.848239 3.38251e-20 0.929492)
(3.53122 -0.0473275 -2.24963e-20 -0.757058 -2.25741e-21 1.10811)
(3.78804 -0.0230753 -1.04003e-20 -0.822641 9.27949e-22 1.18454)
(4.15133 0.0229581 4.27487e-20 -0.735462 -5.47137e-20 1.36466)
(3.17027 -0.0591201 4.99367e-20 -0.851646 -2.45643e-20 0.925958)
(3.50561 -0.0482726 1.47269e-20 -0.766396 1.51756e-21 1.09414)
(3.74749 -0.0198725 -8.23133e-21 -0.828243 -1.61303e-21 1.16609)
(4.08901 0.030161 -2.5414e-20 -0.745724 2.8561e-20 1.33565)
(3.15954 -0.064085 -5.61314e-20 -0.84976 -2.9638e-20 0.922431)
(3.47527 -0.0487628 -2.35758e-20 -0.770269 7.20709e-22 1.08047)
(3.70275 -0.017072 2.01752e-20 -0.828511 -2.43977e-21 1.14811)
(4.02347 0.0359766 -3.25781e-20 -0.750435 -4.93635e-20 1.30757)
(3.14407 -0.0677505 -1.51636e-20 -0.844063 3.44325e-20 0.918532)
(3.44087 -0.048837 2.69768e-20 -0.770023 2.38992e-21 1.06682)
(3.65452 -0.0146387 1.82943e-20 -0.824794 -4.16651e-22 1.13032)
(3.9553 0.040524 6.19518e-21 -0.751073 6.49026e-20 1.28007)
(3.1246 -0.070346 1.20298e-20 -0.835525 -3.79792e-21 0.91417)
(3.40314 -0.0485688 1.44333e-20 -0.766657 2.03275e-21 1.05309)
(3.60352 -0.0125066 -1.12673e-20 -0.818091 2.19155e-21 1.11262)
(3.88524 0.0440286 2.46147e-20 -0.748605 -4.80053e-20 1.25306)
(3.10157 -0.0720654 4.18975e-20 -0.825081 3.74629e-21 0.90915)
(3.36257 -0.0480195 -5.45217e-20 -0.76109 -1.73822e-21 1.0391)
(3.55023 -0.0106215 3.85181e-20 -0.809324 -1.34625e-21 1.09483)
(3.81377 0.0466809 1.22878e-20 -0.743964 1.62023e-21 1.22635)
(3.07543 -0.073102 1.025e-20 -0.813411 5.68831e-21 0.903371)
(3.31959 -0.0472505 -2.62792e-20 -0.754014 1.75592e-21 1.02476)
(3.4951 -0.00892915 1.75102e-20 -0.799185 2.45195e-21 1.07685)
(3.74132 0.0486703 1.95384e-20 -0.73783 2.42218e-20 1.19984)
(3.04643 -0.0736177 4.83596e-21 -0.801064 -1.25567e-21 0.896727)
(3.27451 -0.0463138 5.34931e-20 -0.745987 -6.31822e-21 1.00995)
(3.43842 -0.00738512 -7.64259e-20 -0.788233 1.7532e-21 1.05858)
(3.66818 0.050155 3.51882e-21 -0.73075 7.73205e-21 1.17344)
(3.01482 -0.0737493 -3.98906e-20 -0.788437 1.42537e-20 0.889146)
(3.22755 -0.0452543 7.85153e-21 -0.737419 -3.03271e-21 0.994612)
(3.38044 -0.00595274 1.02731e-20 -0.776876 1.30362e-22 1.03995)
(3.59457 0.0512676 3.8e-20 -0.723122 -6.44088e-21 1.14707)
(2.98074 -0.0736057 6.18327e-20 -0.77582 -1.89775e-20 0.880573)
(3.17888 -0.044109 -1.08255e-20 -0.728611 -2.85656e-21 0.978682)
(3.32131 -0.00460404 6.59611e-22 -0.765418 3.35411e-21 1.0209)
(3.52064 0.0521127 -3.9205e-21 -0.715235 -2.17679e-20 1.12068)
(2.94429 -0.0732723 4.6411e-21 -0.763415 1.44938e-20 0.870967)
(3.1286 -0.0429085 -5.08852e-20 -0.719775 6.0198e-21 0.962121)
(3.26114 -0.00331865 4.2454e-20 -0.754068 -2.65634e-21 1.00139)
(3.44648 0.0527708 1.63617e-20 -0.707291 2.40667e-20 1.09421)
(2.90554 -0.0728141 -6.91458e-20 -0.751355 -1.93459e-21 0.860306)
(3.07679 -0.0416776 7.351e-20 -0.711054 -3.05316e-21 0.944901)
(3.19998 -0.00208283 -2.7596e-21 -0.742968 -3.33934e-21 0.981385)
(3.37214 0.0533022 -3.78553e-20 -0.699425 -1.5592e-20 1.06764)
(2.86454 -0.07228 4.71016e-20 -0.739719 -3.36962e-21 0.848575)
(3.02349 -0.0404366 -6.24512e-20 -0.702538 3.48338e-21 0.927002)
(3.13788 -0.000888288 4.60855e-20 -0.732205 3.37607e-21 0.960869)
(3.29765 0.05375 -2.13308e-20 -0.691721 2.74853e-21 1.04095)
(2.82134 -0.0717058 3.20574e-21 -0.728553 5.85539e-21 0.835775)
(2.96872 -0.0392023 1.33313e-20 -0.694278 2.05296e-21 0.908417)
(3.07486 0.00026901 1.62804e-20 -0.721831 -4.82539e-21 0.939828)
(3.223 0.0541449 1.01573e-20 -0.684228 1.06532e-20 1.01411)
(2.77597 -0.071118 -1.59502e-21 -0.717871 -1.18918e-20 0.821912)
(2.91252 -0.0379886 1.97108e-20 -0.6863 6.04901e-21 0.889143)
(3.01092 0.00138993 -4.25134e-21 -0.711865 5.3416e-22 0.918258)
(3.14819 0.0545073 -3.28556e-20 -0.676967 -1.09538e-20 0.987109)
(2.72846 -0.0705353 4.25343e-20 -0.707671 1.08684e-20 0.807003)
(2.8549 -0.036807 -5.09332e-20 -0.678609 -5.94529e-21 0.869186)
(2.94607 0.00247317 -6.58e-20 -0.70231 2.74779e-21 0.896158)
(3.0732 0.0548507 2.5746e-20 -0.669943 3.96858e-21 0.959939)
(2.67886 -0.0699711 -4.587e-20 -0.697937 8.95071e-21 0.791071)
(2.79587 -0.0356671 5.02918e-20 -0.671198 -2.38143e-21 0.848554)
(2.88031 0.00351614 4.25754e-20 -0.693155 1.14397e-21 0.873532)
(2.99798 0.0551831 -3.6099e-20 -0.663148 -2.329e-21 0.932591)
(2.62722 -0.0694345 -5.54408e-20 -0.688644 -1.03683e-20 0.774147)
(2.73545 -0.0345764 -1.91888e-20 -0.664051 -4.3108e-21 0.827264)
(2.81363 0.00451568 5.644e-20 -0.684379 -3.74448e-22 0.85039)
(2.92252 0.055509 -2.10213e-20 -0.65657 -1.12738e-20 0.905058)
(2.57359 -0.0689315 4.76016e-21 -0.679761 2.81791e-21 0.756265)
(2.67368 -0.033541 9.255e-21 -0.657148 -1.61024e-21 0.805333)
(2.74604 0.00546868 -5.67628e-20 -0.675956 7.26202e-21 0.826741)
(2.84679 0.0558305 2.42969e-20 -0.650188 5.81105e-21 0.877336)
(2.51805 -0.0684655 7.51377e-20 -0.671254 5.58943e-21 0.737466)
(2.61059 -0.0325649 -8.88636e-21 -0.650465 -2.9147e-21 0.782785)
(2.67755 0.00637254 4.25767e-20 -0.667858 -6.45179e-21 0.802602)
(2.77075 0.0561481 -9.34991e-21 -0.643984 9.03381e-21 0.849421)
(2.46067 -0.068038 -2.31273e-20 -0.66309 1.42383e-20 0.717795)
(2.54621 -0.0316504 3.80192e-22 -0.643978 1.51637e-21 0.759644)
(2.60817 0.00722558 -4.71368e-21 -0.660055 3.16816e-21 0.777989)
(2.69438 0.0564612 -9.39228e-21 -0.637935 -3.33763e-21 0.821313)
(2.40154 -0.067649 -3.36613e-20 -0.655233 -1.49567e-20 0.697298)
(2.48059 -0.0307984 1.61263e-20 -0.637663 1.26414e-20 0.735938)
(2.53792 0.00802717 -7.06589e-22 -0.652517 -2.06494e-21 0.752923)
(2.61767 0.0567693 5.90352e-20 -0.632022 9.36049e-22 0.793011)
(2.34073 -0.0672976 4.22732e-20 -0.647651 1.34217e-20 0.676025)
(2.41378 -0.030008 3.09047e-20 -0.631498 3.3085e-21 0.711699)
(2.46683 0.00877787 -5.09098e-20 -0.645214 -2.81986e-21 0.727425)
(2.5406 0.0570717 -3.61783e-20 -0.626223 -9.24003e-22 0.764521)
(2.27836 -0.0669819 -2.75616e-20 -0.64031 -4.9122e-21 0.654027)
(2.34585 -0.0292771 7.11777e-21 -0.625459 -2.11653e-21 0.686958)
(2.39493 0.00947937 2.23832e-22 -0.638118 -4.75645e-21 0.70152)
(2.46317 0.0573678 6.37383e-20 -0.620521 -1.92826e-21 0.735848)
(2.21451 -0.0666996 -5.36589e-20 -0.633182 -1.97782e-20 0.631356)
(2.27685 -0.0286025 2.98087e-20 -0.619526 7.82378e-22 0.661749)
(2.32226 0.0101343 -2.79191e-20 -0.631205 6.01227e-21 0.675234)
(2.38538 0.0576576 -1.44909e-21 -0.614899 1.36441e-21 0.707001)
(2.14929 -0.0664482 6.06196e-20 -0.626238 1.15579e-20 0.608062)
(2.20687 -0.0279803 -7.70508e-20 -0.613682 4.40106e-21 0.636107)
(2.24887 0.0107462 5.03595e-20 -0.62445 -6.04862e-21 0.648596)
(2.30726 0.0579413 -3.30548e-20 -0.609341 -1.76546e-21 0.677991)
(2.08281 -0.0662253 -9.35512e-21 -0.619456 5.18769e-21 0.584196)
(2.13596 -0.0274064 -2.58913e-20 -0.607909 2.75014e-21 0.610068)
(2.17481 0.0113187 1.30048e-21 -0.617831 -2.93526e-21 0.621635)
(2.22881 0.0582196 6.42156e-20 -0.603832 -1.51254e-20 0.648834)
(2.01516 -0.0660287 -5.10836e-20 -0.612811 3.27211e-21 0.559808)
(2.0642 -0.0268765 2.12718e-20 -0.602193 8.56821e-21 0.583669)
(2.10013 0.0118557 1.54427e-20 -0.611329 -4.29873e-21 0.59438)
(2.15008 0.0584932 -3.32265e-20 -0.59836 2.13056e-20 0.619547)
(1.94644 -0.0658564 1.12751e-20 -0.606283 -8.83134e-21 0.534947)
(1.99168 -0.0263868 4.01592e-22 -0.596517 1.65333e-21 0.556945)
(2.02489 0.012361 -6.94861e-20 -0.604925 -1.39012e-21 0.566865)
(2.07109 0.0587633 1.03028e-20 -0.59291 5.50746e-21 0.590149)
(1.87675 -0.065707 -1.1373e-20 -0.599854 -3.68318e-21 0.50966)
(1.91846 -0.0259341 -1.14022e-20 -0.590871 -4.96266e-21 0.529934)
(1.94917 0.0128378 7.29716e-20 -0.598601 -2.88602e-21 0.53912)
(1.99189 0.0590308 -3.75485e-20 -0.587472 -1.33619e-20 0.560661)
(1.8062 -0.0655798 5.81095e-21 -0.593505 2.47311e-21 0.483993)
(1.84464 -0.0255161 3.04493e-20 -0.58524 -2.4341e-21 0.502673)
(1.87302 0.0132886 -4.90689e-20 -0.592342 5.79155e-21 0.511179)
(1.91253 0.0592968 -1.78965e-20 -0.582033 2.39687e-20 0.531107)
(1.73488 -0.0654746 2.99236e-20 -0.587221 2.98784e-22 0.457993)
(1.77029 -0.025131 2.90224e-20 -0.579613 3.72932e-21 0.475196)
(1.79651 0.0137153 2.04649e-20 -0.586133 -5.85592e-21 0.483073)
(1.83305 0.0595623 4.66593e-20 -0.576583 -2.40384e-20 0.50151)
(1.66288 -0.0653917 5.00917e-21 -0.580984 -3.72319e-21 0.431702)
(1.69548 -0.0247782 -1.45963e-22 -0.573979 -8.50957e-21 0.447541)
(1.7197 0.0141191 -1.72546e-20 -0.579958 3.46984e-21 0.454835)
(1.7535 0.0598285 4.94679e-21 -0.571112 7.48286e-21 0.471892)
(1.5903 -0.0653321 4.2945e-20 -0.574778 3.08216e-21 0.405165)
(1.6203 -0.0244575 -3.22234e-20 -0.568326 2.48354e-21 0.419742)
(1.64266 0.0145008 1.25651e-21 -0.573803 -1.84388e-21 0.426496)
(1.67392 0.0600964 -3.14308e-20 -0.565607 3.04411e-21 0.442277)
(1.51722 -0.0652972 4.1277e-21 -0.568587 -4.24184e-21 0.378424)
(1.54481 -0.0241694 -5.83045e-21 -0.562642 -1.30817e-21 0.391833)
(1.56545 0.0148606 -8.30587e-21 -0.567652 3.17578e-21 0.398086)
(1.59436 0.0603672 -2.68188e-20 -0.56006 -1.81202e-21 0.412687)
(1.44374 -0.0652888 7.57775e-21 -0.562394 -3.73617e-21 0.35152)
(1.46908 -0.0239145 -3.38656e-20 -0.556914 -5.42176e-22 0.363846)
(1.48813 0.0151989 5.29864e-20 -0.561491 -1.40448e-22 0.369633)
(1.51486 0.0606426 3.2446e-20 -0.554457 1.01756e-20 0.383141)
(1.36993 -0.065309 2.54882e-20 -0.556181 1.36541e-21 0.324492)
(1.39318 -0.0236935 -2.48106e-20 -0.551129 9.23925e-23 0.335813)
(1.41074 0.0155164 -7.09873e-20 -0.555303 1.71593e-20 0.341166)
(1.43545 0.0609246 -1.50806e-20 -0.548788 -8.49611e-21 0.353659)
(1.29586 -0.0653602 -1.70542e-20 -0.549929 6.36803e-21 0.297381)
(1.31717 -0.0235065 5.38471e-20 -0.545273 -9.5066e-21 0.307763)
(1.33334 0.0158142 -2.68461e-20 -0.549072 -1.32981e-20 0.31271)
(1.35617 0.0612157 -1.54996e-20 -0.54304 1.84158e-21 0.324258)
(1.22162 -0.0654451 -4.07449e-20 -0.543618 -5.89094e-21 0.270221)
(1.24109 -0.0233537 6.62754e-20 -0.539331 7.6856e-21 0.279723)
(1.25596 0.0160939 -2.17437e-21 -0.542778 -8.00695e-22 0.284289)
(1.27704 0.0615194 -2.13698e-21 -0.537199 7.05053e-21 0.294953)
(1.14726 -0.0655667 4.70889e-20 -0.537224 1.33205e-21 0.243046)
(1.16501 -0.0232344 9.11923e-21 -0.533283 -8.144e-21 0.251719)
(1.17864 0.0163584 -3.06091e-21 -0.536401 6.36268e-21 0.255925)
(1.19807 0.0618397 -3.54757e-20 -0.531249 -5.25264e-21 0.265757)
(1.07284 -0.0657284 1.07298e-21 -0.530726 -1.79658e-21 0.215887)
(1.08894 -0.0231477 2.25121e-20 -0.527112 -8.90891e-22 0.223774)
(1.10141 0.0166109 2.80471e-21 -0.529919 -5.4859e-21 0.227638)
(1.11928 0.0621817 -5.2303e-21 -0.525172 5.86283e-21 0.236684)
(0.998393 -0.0659341 -7.35074e-20 -0.524095 -1.74739e-21 0.188772)
(1.01293 -0.0230923 3.24923e-20 -0.520792 -1.5992e-21 0.195908)
(1.02429 0.016856 -3.44304e-20 -0.523307 1.50981e-22 0.199446)
(1.04067 0.0625518 5.28303e-20 -0.518947 -7.37023e-21 0.207744)
(0.923955 -0.0661889 1.88258e-20 -0.517304 6.91871e-21 0.161725)
(0.936992 -0.0230669 -3.62253e-20 -0.514299 -9.47219e-21 0.168141)
(0.947287 0.0170985 -3.76662e-20 -0.516536 4.08455e-21 0.171363)
(0.962256 0.0629572 4.04625e-20 -0.512549 -9.19953e-22 0.178947)
(0.849545 -0.0664986 1.56346e-20 -0.510318 5.2442e-22 0.134766)
(0.86113 -0.0230701 3.04848e-20 -0.5076 -8.78233e-21 0.140486)
(0.870403 0.0173446 1.11689e-20 -0.509574 1.62743e-20 0.143405)
(0.884018 0.0634068 -4.59191e-20 -0.505948 -3.35563e-21 0.150303)
(0.775166 -0.0668712 -3.90496e-20 -0.503101 2.5228e-21 0.107912)
(0.785344 -0.0231013 4.38974e-20 -0.50066 1.00042e-20 0.112959)
(0.79363 0.0176006 -1.03165e-20 -0.502383 1.96571e-21 0.115584)
(0.805948 0.0639113 -7.10279e-21 -0.49911 1.2872e-21 0.121821)
(0.700809 -0.0673168 4.29439e-20 -0.495609 -7.8061e-21 0.0811766)
(0.709617 -0.0231607 -1.01251e-19 -0.493433 1.69648e-20 0.0855692)
(0.71695 0.0178743 1.7904e-21 -0.494918 -1.62017e-20 0.087908)
(0.728023 0.0644837 -3.7239e-20 -0.491992 2.99811e-21 0.0935093)
(0.62645 -0.0678492 1.23291e-20 -0.487788 -5.48063e-21 0.0545715)
(0.633916 -0.0232506 1.105e-19 -0.485866 -2.50048e-20 0.0583261)
(0.640329 0.0181751 -8.27592e-20 -0.487125 2.57965e-21 0.0603872)
(0.650216 0.0651405 5.03195e-20 -0.484544 -1.18381e-22 0.0653762)
(0.55205 -0.0684875 3.34611e-20 -0.479575 -6.27547e-21 0.0281068)
(0.558192 -0.0233769 -1.22989e-19 -0.477891 3.33668e-20 0.0312362)
(0.563716 0.0185159 9.07311e-20 -0.478937 -2.57366e-20 0.0330276)
(0.572489 0.0659035 -5.51221e-20 -0.4767 -9.15323e-21 0.0374325)
(0.477561 -0.0692618 -2.54782e-20 -0.470886 1.59572e-20 0.00179634)
(0.482368 -0.0235536 3.40856e-20 -0.469415 -2.2305e-20 0.00430676)
(0.48704 0.0189177 -1.21518e-20 -0.470261 3.18566e-20 0.0058371)
(0.494799 0.0668054 3.85821e-20 -0.46838 -1.50707e-20 0.00969448)
(0.402929 -0.0702191 4.24209e-20 -0.461608 -7.56198e-21 -0.0243361)
(0.406315 -0.0238112 -1.97271e-20 -0.460317 3.36626e-20 -0.022466)
(0.410172 0.0194178 2.1942e-20 -0.460977 -1.70404e-20 -0.0211873)
(0.417105 0.0678955 7.82931e-21 -0.459468 -6.80875e-22 -0.0178091)
(0.328142 -0.0714518 1.20192e-20 -0.451571 -1.37284e-20 -0.0502273)
(0.32986 -0.0242226 -7.65662e-20 -0.450389 2.14937e-20 -0.0490679)
(0.332945 0.0200962 -1.19057e-20 -0.450879 1.38196e-21 -0.04803)
(0.339413 0.0692684 -3.32549e-21 -0.449795 4.73231e-21 -0.045008)
(0.253233 -0.0731157 1.09958e-20 -0.440498 1.54765e-20 -0.075753)
(0.252535 -0.0249313 7.52733e-20 -0.439362 -2.72794e-20 -0.0755787)
(0.254898 0.0211037 1.89801e-20 -0.439701 -9.28747e-21 -0.0747692)
(0.261781 0.0710819 5.67818e-21 -0.439084 9.02819e-21 -0.0717684)
(0.178647 -0.0755747 2.54884e-20 -0.427872 -1.32812e-20 -0.100529)
(0.173883 -0.0262648 -7.24662e-20 -0.426607 3.733e-20 -0.10193)
(0.175584 0.0227756 4.19162e-20 -0.426817 -1.83135e-20 -0.101333)
(0.184682 0.073701 -8.83612e-21 -0.426819 -2.58744e-21 -0.097694)
(0.104914 -0.0793155 -4.90917e-20 -0.412777 6.22665e-21 -0.123977)
(0.0916908 -0.0286702 4.98707e-21 -0.411767 -1.14563e-20 -0.128863)
(0.0927996 0.0255709 2.32826e-20 -0.411874 -2.31425e-21 -0.128463)
(0.108688 0.0776144 -5.12282e-21 -0.412085 2.30981e-21 -0.122191)
(0.0350246 -0.0853942 -1.16085e-21 -0.393445 -1.99052e-21 -0.144194)
(0.00566513 -0.0328394 5.00759e-20 -0.393376 -2.31859e-21 -0.155911)
(0.00626903 0.0301926 -1.29898e-20 -0.393415 -3.07614e-20 -0.155684)
(0.0368488 0.0838747 5.20475e-20 -0.393114 -1.65166e-21 -0.143332)
(-0.031499 -0.0923614 -4.06164e-20 -0.3689 5.78782e-21 -0.160979)
(-0.0940177 -0.0375307 3.04251e-20 -0.37751 -1.29057e-20 -0.189432)
(-0.0938154 0.0354292 -4.83265e-20 -0.377526 1.18419e-20 -0.189357)
(-0.0312409 0.0910456 -9.88297e-21 -0.368933 5.88483e-21 -0.160889)
(-0.0833609 -0.0955448 7.60116e-22 -0.347186 1.46107e-20 -0.173033)
(-0.187373 -0.039104 2.40736e-20 -0.375581 -1.39737e-20 -0.225998)
(-0.187458 0.0376192 -5.7697e-22 -0.375625 1.95872e-20 -0.22605)
(-0.084137 0.0943965 -5.15943e-20 -0.347506 -1.43709e-21 -0.173471)
(-0.172337 -0.0668936 5.73074e-21 -0.394184 -8.07568e-21 -0.227421)
(-0.307097 -0.028023 1.29014e-20 -0.487252 -1.03881e-20 -0.318556)
(-0.307254 0.0271204 1.05525e-20 -0.4873 -9.73138e-21 -0.318638)
(-0.173206 0.0660136 -1.78986e-20 -0.394648 -1.42582e-21 -0.227954)
)
;

boundaryField
{
    plateFix
    {
        type            calculated;
        value           nonuniform List<symmTensor> 4((3.10498 1.00786 -1.1898e-21 0.944476 7.07129e-20 1.61847) (2.94242 0.481813 -7.71915e-24 1.59642 4.66538e-23 1.81454) (3.36449 -0.348106 3.59974e-23 1.77195 -4.95963e-23 2.05354) (5.00432 -1.27968 -1.62611e-21 1.62086 -1.20389e-19 2.64845));
    }
    plate
    {
        type            calculated;
        value           nonuniform List<symmTensor> 
168
(
(2.22808 0.00126763 -1.08439e-22 -0.325698 -1.81004e-20 0.759592)
(3.67889 -0.00223089 -6.54918e-22 -0.327486 -3.04717e-20 1.33897)
(2.31858 0.00321839 1.53886e-21 -0.320054 1.73742e-21 0.79804)
(3.83509 -0.00404682 1.50511e-21 -0.321816 2.91186e-20 1.40369)
(2.45875 0.00722272 -3.24489e-21 -0.316314 2.23879e-20 0.855587)
(4.04649 -0.00793487 -4.38544e-21 -0.318064 3.47245e-22 1.48971)
(2.52435 0.0123936 7.09419e-22 -0.314827 -7.56516e-21 0.88241)
(4.1345 -0.0130265 3.69996e-21 -0.316577 -6.34768e-22 1.52549)
(2.58496 0.018171 5.58481e-22 -0.315545 -1.03352e-20 0.90636)
(4.20424 -0.0187877 1.19194e-21 -0.317305 2.21596e-21 1.55308)
(2.63049 0.0241629 6.45349e-22 -0.318598 -1.12026e-23 0.923342)
(4.24329 -0.0248011 -1.20726e-21 -0.32038 1.81482e-20 1.56746)
(2.6746 0.0300589 -9.18052e-22 -0.324065 -1.02198e-20 0.93879)
(4.27364 -0.0307485 2.21496e-21 -0.325879 -3.31267e-20 1.57739)
(2.71695 0.0356155 2.78688e-21 -0.332037 1.00117e-20 0.952535)
(4.29658 -0.0363764 -2.52298e-21 -0.333892 1.53817e-20 1.58336)
(2.75948 0.0406422 -4.55582e-21 -0.342673 -1.57789e-20 0.965286)
(4.31628 -0.0414884 -1.53087e-21 -0.344579 -3.0251e-21 1.58695)
(2.80159 0.0449658 1.7905e-21 -0.356206 1.39971e-20 0.976708)
(4.33286 -0.0459075 1.0117e-21 -0.358173 1.99959e-24 1.58814)
(2.84299 0.0484057 -1.16422e-21 -0.372917 3.5888e-23 0.986578)
(4.34657 -0.0494505 -1.15636e-21 -0.374957 2.49884e-22 1.58691)
(2.88322 0.0507596 8.95698e-22 -0.393096 -8.48163e-21 0.994591)
(4.35709 -0.0519134 -9.85675e-22 -0.395222 -1.34049e-20 1.583)
(2.9221 0.0518021 -1.52116e-21 -0.416984 1.12065e-20 1.00058)
(4.36427 -0.0530697 7.7509e-22 -0.419208 8.49911e-21 1.57628)
(2.95956 0.0512971 1.16789e-21 -0.444704 -3.10898e-22 1.00447)
(4.36805 -0.052683 2.9752e-22 -0.447037 6.82544e-21 1.56666)
(2.99568 0.0490232 -1.4774e-21 -0.476186 3.55181e-22 1.00632)
(4.36844 -0.0505316 2.48879e-21 -0.478639 1.96365e-20 1.55417)
(3.03047 0.0448075 -1.52915e-21 -0.511103 -9.70875e-22 1.00626)
(4.36542 -0.0464432 -3.23013e-22 -0.513683 -1.6545e-20 1.53894)
(3.06386 0.0385625 -4.0084e-22 -0.548813 1.30968e-20 1.00453)
(4.35884 -0.0403309 2.56381e-21 -0.551526 -1.0429e-20 1.52117)
(3.09556 0.0303288 1.22731e-20 -0.588323 -2.29866e-20 1.00139)
(4.34841 -0.0322358 -7.80731e-21 -0.59117 1.46045e-20 1.50114)
(3.12503 0.0202805 -1.02658e-20 -0.628365 1.59888e-20 0.997164)
(4.33358 -0.0223328 3.75315e-21 -0.631344 -1.22273e-21 1.47915)
(3.15168 0.00878483 -4.24489e-21 -0.667296 2.13639e-20 0.992245)
(4.31375 -0.0109887 6.60914e-21 -0.670401 -5.35257e-21 1.45559)
(3.17448 -0.00371128 1.77409e-20 -0.703638 -2.33223e-20 0.986828)
(4.28797 0.00135017 -1.71015e-21 -0.706858 -2.14562e-21 1.43071)
(3.1928 -0.0165749 6.16738e-21 -0.735455 1.89527e-20 0.981428)
(4.25558 0.0140523 3.57162e-21 -0.738779 -4.19686e-21 1.40499)
(3.20595 -0.0293853 1.16961e-20 -0.762126 -3.28824e-22 0.976021)
(4.21433 0.026694 1.59868e-20 -0.765543 1.69062e-20 1.37779)
(3.21209 -0.041199 -1.19103e-20 -0.782673 1.64229e-21 0.970261)
(4.16437 0.0383419 -4.8291e-20 -0.786171 -1.1166e-20 1.34958)
(3.21159 -0.0512926 2.2707e-20 -0.794474 -4.53309e-21 0.965348)
(4.10962 0.048287 4.27589e-20 -0.798033 -3.80091e-21 1.32295)
(3.20464 -0.05945 4.99438e-20 -0.800125 4.15962e-21 0.960316)
(4.05034 0.0563142 -2.54242e-20 -0.80373 1.27621e-20 1.29698)
(3.19244 -0.0659098 -5.6116e-20 -0.800436 -4.58846e-21 0.955322)
(3.98773 0.0626625 -3.25637e-20 -0.804072 -1.65512e-20 1.27182)
(3.17547 -0.0708197 -1.51774e-20 -0.796983 7.04463e-23 0.949925)
(3.92227 0.0674794 6.17168e-21 -0.800637 4.56032e-21 1.24703)
(3.15448 -0.0744534 1.20269e-20 -0.790716 6.91193e-22 0.944046)
(3.85475 0.0710379 2.4637e-20 -0.794376 -5.20555e-21 1.22255)
(3.12992 -0.0770423 4.18944e-20 -0.782569 -7.56521e-21 0.937493)
(3.78563 0.073568 1.22921e-20 -0.786222 1.59365e-20 1.19819)
(3.10223 -0.0788171 1.02503e-20 -0.773203 7.20329e-21 0.930176)
(3.71535 0.0752994 1.95233e-20 -0.776837 -1.19568e-20 1.17385)
(3.0717 -0.0799706 4.83569e-21 -0.763146 2.03079e-23 0.922003)
(3.64422 0.0764233 3.5161e-21 -0.766747 3.16833e-21 1.14946)
(3.03858 -0.0806651 -3.98956e-20 -0.752774 -5.37657e-21 0.912917)
(3.57248 0.0771008 3.79989e-20 -0.75633 -3.74008e-21 1.12495)
(3.00303 -0.0810291 6.18351e-20 -0.742359 2.8027e-21 0.902873)
(3.50028 0.0774592 -3.90737e-21 -0.745856 6.02033e-23 1.10028)
(2.96515 -0.0811625 4.6248e-21 -0.732087 -8.32706e-21 0.891845)
(3.42772 0.077597 1.63526e-20 -0.735512 3.48356e-21 1.07542)
(2.92503 -0.0811403 -6.91447e-20 -0.722076 4.57068e-22 0.879815)
(3.35487 0.0775884 -3.78412e-20 -0.725417 2.80071e-21 1.05034)
(2.88272 -0.081018 4.71014e-20 -0.7124 3.17155e-23 0.866776)
(3.28176 0.077488 -2.13301e-20 -0.715643 2.72732e-21 1.02503)
(2.83828 -0.0808359 3.20158e-21 -0.703095 5.18327e-21 0.852733)
(3.2084 0.0773352 1.01515e-20 -0.706229 -1.07685e-23 0.999468)
(2.79172 -0.0806224 -1.58405e-21 -0.694175 7.06581e-21 0.837694)
(3.13478 0.0771576 -3.28519e-20 -0.697187 -1.71028e-21 0.973657)
(2.74311 -0.0803973 4.25227e-20 -0.685635 -1.22243e-20 0.821678)
(3.06089 0.0769745 2.57454e-20 -0.688515 1.76532e-21 0.947587)
(2.69246 -0.0801743 -4.58715e-20 -0.677459 7.17626e-21 0.804706)
(2.98669 0.0767988 -3.60982e-20 -0.680197 -2.6773e-21 0.921255)
(2.63985 -0.0799619 -5.54313e-20 -0.669626 -1.94823e-21 0.786807)
(2.91217 0.0766387 -2.10137e-20 -0.672213 3.55223e-21 0.89466)
(2.58531 -0.0797657 4.75959e-21 -0.662107 -2.29423e-21 0.768014)
(2.8373 0.076499 2.42943e-20 -0.664537 -6.02959e-22 0.867802)
(2.52892 -0.0795885 7.51267e-20 -0.654875 -4.96469e-21 0.748365)
(2.76206 0.0763823 -9.35198e-21 -0.657141 -1.39189e-22 0.840682)
(2.47074 -0.0794317 -2.31333e-20 -0.647899 7.36952e-21 0.7279)
(2.68642 0.0762894 -9.38785e-21 -0.649997 7.2589e-21 0.813304)
(2.41086 -0.0792955 -3.36545e-20 -0.641151 1.68854e-21 0.706663)
(2.61038 0.0762202 5.90276e-20 -0.643078 -6.58423e-21 0.785674)
(2.34937 -0.0791795 4.22616e-20 -0.634602 -3.56279e-21 0.684701)
(2.53392 0.0761737 -3.61765e-20 -0.636356 3.57987e-21 0.757799)
(2.28635 -0.0790827 -2.75598e-20 -0.628225 1.76445e-21 0.662059)
(2.45706 0.076149 6.37402e-20 -0.629807 -2.26657e-21 0.729692)
(2.2219 -0.0790044 -5.36505e-20 -0.621997 9.21372e-23 0.638787)
(2.37979 0.0761447 -1.44809e-21 -0.623407 1.38616e-21 0.701363)
(2.15612 -0.0789438 6.06098e-20 -0.615895 -2.94757e-21 0.614932)
(2.30214 0.0761599 -3.30522e-20 -0.617136 -3.09059e-21 0.672829)
(2.08911 -0.0789001 -9.3545e-21 -0.609899 2.91e-21 0.590541)
(2.22413 0.0761934 6.4221e-20 -0.610973 -1.97629e-24 0.644108)
(2.02097 -0.0788729 -5.10792e-20 -0.603989 2.84579e-21 0.565663)
(2.1458 0.0762448 -3.32366e-20 -0.6049 -6.34359e-23 0.61522)
(1.95179 -0.0788621 1.12744e-20 -0.598148 -4.46836e-21 0.540344)
(2.06718 0.0763135 1.03017e-20 -0.598902 -2.83899e-21 0.586188)
(1.88168 -0.0788677 -1.13732e-20 -0.592361 6.14837e-21 0.514629)
(1.98832 0.0763995 -3.75327e-20 -0.592962 5.49806e-21 0.557035)
(1.81073 -0.0788902 5.80055e-21 -0.586612 -7.86746e-21 0.488562)
(1.90926 0.0765029 -1.79127e-20 -0.587065 -5.6262e-21 0.527786)
(1.73903 -0.0789301 2.99247e-20 -0.580887 -1.34621e-21 0.462189)
(1.83005 0.0766242 4.66757e-20 -0.581197 1.37868e-21 0.498466)
(1.66669 -0.0789886 5.01345e-21 -0.575171 4.6182e-21 0.43555)
(1.75075 0.0767642 4.93843e-21 -0.575346 -1.30352e-21 0.469101)
(1.59378 -0.0790667 4.29448e-20 -0.569452 1.55929e-21 0.40869)
(1.6714 0.076924 -3.14304e-20 -0.569496 5.88909e-21 0.439716)
(1.5204 -0.0791663 4.12708e-21 -0.563714 -1.71861e-23 0.381647)
(1.59205 0.0771051 -2.6817e-20 -0.563634 -5.02362e-21 0.410335)
(1.44664 -0.0792892 7.57878e-21 -0.557943 -3.78137e-23 0.354462)
(1.51274 0.0773092 3.24351e-20 -0.557746 2.11341e-21 0.380979)