/*--------------------------------*- C++ -*----------------------------------*\
| =========                 |                                                 |
| \\      /  F ield         | OpenFOAM Extend Project: Open source CFD        |
|  \\    /   O peration     | Version:  1.6-ext                               |
|   \\  /    A nd           | Web:      www.extend-project.de                 |
|    \\/     M anipulation  |                                                 |
\*---------------------------------------------------------------------------*/
FoamFile
{
    version     2.0;
    format      ascii;
    class       volVectorField;
    location    "0.15";
    object      Usolid;
}
// * * * * * * * * * * * * * * * * * * * * * * * * * * * * * * * * * * * * * //

dimensions      [0 1 0 0 0 0 0];

internalField   nonuniform List<vector> 
328
(
(7.43966e-08 1.81838e-07 0)
(5.63648e-08 4.89705e-08 0)
(6.55343e-08 -3.82078e-08 0)
(1.17922e-07 -2.34869e-07 0)
(2.25547e-07 4.63778e-07 0)
(1.87944e-07 1.30845e-07 0)
(2.19942e-07 -1.2386e-07 0)
(3.6008e-07 -6.0563e-07 0)
(4.02579e-07 6.64817e-07 0)
(3.68609e-07 1.94615e-07 0)
(4.33338e-07 -2.18647e-07 0)
(6.42676e-07 -8.90579e-07 0)
(5.96322e-07 7.93317e-07 0)
(5.82989e-07 2.33467e-07 0)
(6.85239e-07 -3.16808e-07 0)
(9.51362e-07 -1.10825e-06 0)
(8.10037e-07 8.61797e-07 0)
(8.34525e-07 2.44392e-07 0)
(9.79263e-07 -4.16876e-07 0)
(1.29001e-06 -1.28121e-06 0)
(1.04309e-06 8.79474e-07 0)
(1.11822e-06 2.2512e-07 0)
(1.30887e-06 -5.19909e-07 0)
(1.65682e-06 -1.42744e-06 0)
(1.29741e-06 8.53423e-07 0)
(1.43357e-06 1.74739e-07 0)
(1.67336e-06 -6.2939e-07 0)
(2.05373e-06 -1.56225e-06 0)
(1.57461e-06 7.88062e-07 0)
(1.77883e-06 9.24256e-08 0)
(2.07056e-06 -7.50182e-07 0)
(2.48218e-06 -1.69805e-06 0)
(1.8769e-06 6.8583e-07 0)
(2.1538e-06 -2.27426e-08 0)
(2.50026e-06 -8.88186e-07 0)
(2.94453e-06 -1.84549e-06 0)
(2.20661e-06 5.47256e-07 0)
(2.5587e-06 -1.72356e-07 0)
(2.96265e-06 -1.04984e-06 0)
(3.44324e-06 -2.01385e-06 0)
(2.56633e-06 3.71207e-07 0)
(2.99473e-06 -3.5888e-07 0)
(3.45898e-06 -1.24196e-06 0)
(3.98108e-06 -2.21166e-06 0)
(2.95879e-06 1.54956e-07 0)
(3.46377e-06 -5.85885e-07 0)
(3.99123e-06 -1.47156e-06 0)
(4.56098e-06 -2.44695e-06 0)
(3.38702e-06 -1.05736e-07 0)
(3.96852e-06 -8.5813e-07 0)
(4.56216e-06 -1.74597e-06 0)
(5.18608e-06 -2.72759e-06 0)
(3.85428e-06 -4.16586e-07 0)
(4.5123e-06 -1.18163e-06 0)
(5.17517e-06 -2.0728e-06 0)
(5.85976e-06 -3.06153e-06 0)
(4.36416e-06 -7.84763e-07 0)
(5.09901e-06 -1.56366e-06 0)
(5.83421e-06 -2.46019e-06 0)
(6.58564e-06 -3.45697e-06 0)
(4.92057e-06 -1.21888e-06 0)
(5.73301e-06 -2.01277e-06 0)
(6.54364e-06 -2.91692e-06 0)
(7.3676e-06 -3.92261e-06 0)
(5.52772e-06 -1.72899e-06 0)
(6.41897e-06 -2.5388e-06 0)
(7.30811e-06 -3.45257e-06 0)
(8.2097e-06 -4.46779e-06 0)
(6.19004e-06 -2.32663e-06 0)
(7.16175e-06 -3.15287e-06 0)
(8.13244e-06 -4.07772e-06 0)
(9.11615e-06 -5.10268e-06 0)
(6.91212e-06 -3.02478e-06 0)
(7.9663e-06 -3.86746e-06 0)
(9.02144e-06 -4.80407e-06 0)
(1.00912e-05 -5.83844e-06 0)
(7.69856e-06 -3.83797e-06 0)
(8.83741e-06 -4.69642e-06 0)
(9.97979e-06 -5.64459e-06 0)
(1.11389e-05 -6.68738e-06 0)
(8.55383e-06 -4.78215e-06 0)
(9.77968e-06 -5.65502e-06 0)
(1.10119e-05 -6.61366e-06 0)
(1.22632e-05 -7.66317e-06 0)
(9.48211e-06 -5.87484e-06 0)
(1.07972e-05 -6.76001e-06 0)
(1.21215e-05 -7.72714e-06 0)
(1.34674e-05 -8.78096e-06 0)
(1.05255e-05 -7.18295e-06 0)
(1.19356e-05 -8.07805e-06 0)
(1.33575e-05 -9.05112e-06 0)
(1.48034e-05 -1.01062e-05 0)
(1.16503e-05 -8.68974e-06 0)
(1.31568e-05 -9.59137e-06 0)
(1.46775e-05 -1.05669e-05 0)
(1.62241e-05 -1.16196e-05 0)
(1.2779e-05 -1.02971e-05 0)
(1.43767e-05 -1.12014e-05 0)
(1.59907e-05 -1.21757e-05 0)
(1.76321e-05 -1.32225e-05 0)
(1.39081e-05 -1.19984e-05 0)
(1.55921e-05 -1.29023e-05 0)
(1.72939e-05 -1.38723e-05 0)
(1.90243e-05 -1.49104e-05 0)
(1.50348e-05 -1.37878e-05 0)
(1.68002e-05 -1.46886e-05 0)
(1.85846e-05 -1.56517e-05 0)
(2.03985e-05 -1.66787e-05 0)
(1.61566e-05 -1.56591e-05 0)
(1.79987e-05 -1.65547e-05 0)
(1.98608e-05 -1.75091e-05 0)
(2.17529e-05 -1.85232e-05 0)
(1.72715e-05 -1.7607e-05 0)
(1.91858e-05 -1.84957e-05 0)
(2.11208e-05 -1.94397e-05 0)
(2.30861e-05 -2.04395e-05 0)
(1.8378e-05 -1.96259e-05 0)
(2.03601e-05 -2.05065e-05 0)
(2.23634e-05 -2.1439e-05 0)
(2.4397e-05 -2.24236e-05 0)
(1.94748e-05 -2.17111e-05 0)
(2.15203e-05 -2.25826e-05 0)
(2.35875e-05 -2.35026e-05 0)
(2.5685e-05 -2.44714e-05 0)
(2.05608e-05 -2.38579e-05 0)
(2.26657e-05 -2.47194e-05 0)
(2.47926e-05 -2.56264e-05 0)
(2.69496e-05 -2.65788e-05 0)
(2.1635e-05 -2.60619e-05 0)
(2.37955e-05 -2.69129e-05 0)
(2.59781e-05 -2.78064e-05 0)
(2.81905e-05 -2.87421e-05 0)
(2.26968e-05 -2.83189e-05 0)
(2.49091e-05 -2.91589e-05 0)
(2.71435e-05 -3.00386e-05 0)
(2.94075e-05 -3.09574e-05 0)
(2.37454e-05 -3.06252e-05 0)
(2.60059e-05 -3.14539e-05 0)
(2.82885e-05 -3.23193e-05 0)
(3.06005e-05 -3.32213e-05 0)
(2.47801e-05 -3.29773e-05 0)
(2.70854e-05 -3.37941e-05 0)
(2.9413e-05 -3.46453e-05 0)
(3.17694e-05 -3.55303e-05 0)
(2.58004e-05 -3.53716e-05 0)
(2.81474e-05 -3.61764e-05 0)
(3.05166e-05 -3.70131e-05 0)
(3.29143e-05 -3.78811e-05 0)
(2.68057e-05 -3.78052e-05 0)
(2.91913e-05 -3.85976e-05 0)
(3.15992e-05 -3.94196e-05 0)
(3.40351e-05 -4.02707e-05 0)
(2.77954e-05 -4.0275e-05 0)
(3.02169e-05 -4.10548e-05 0)
(3.26605e-05 -4.1862e-05 0)
(3.51318e-05 -4.26961e-05 0)
(2.8769e-05 -4.27784e-05 0)
(3.12236e-05 -4.35453e-05 0)
(3.37004e-05 -4.43376e-05 0)
(3.62044e-05 -4.51548e-05 0)
(2.97259e-05 -4.53128e-05 0)
(3.22113e-05 -4.60666e-05 0)
(3.47187e-05 -4.68438e-05 0)
(3.7253e-05 -4.76441e-05 0)
(3.06656e-05 -4.78759e-05 0)
(3.31794e-05 -4.86162e-05 0)
(3.57152e-05 -4.93783e-05 0)
(3.82774e-05 -5.01616e-05 0)
(3.15875e-05 -5.04655e-05 0)
(3.41276e-05 -5.11922e-05 0)
(3.66897e-05 -5.1939e-05 0)
(3.92777e-05 -5.27053e-05 0)
(3.24913e-05 -5.30796e-05 0)
(3.50557e-05 -5.37924e-05 0)
(3.76419e-05 -5.45237e-05 0)
(4.02538e-05 -5.5273e-05 0)
(3.33763e-05 -5.57164e-05 0)
(3.59631e-05 -5.6415e-05 0)
(3.85718e-05 -5.71307e-05 0)
(4.12057e-05 -5.7863e-05 0)
(3.42421e-05 -5.83741e-05 0)
(3.68497e-05 -5.90582e-05 0)
(3.9479e-05 -5.97582e-05 0)
(4.21333e-05 -6.04735e-05 0)
(3.50882e-05 -6.10512e-05 0)
(3.77149e-05 -6.17206e-05 0)
(4.03634e-05 -6.24046e-05 0)
(4.30364e-05 -6.31028e-05 0)
(3.59142e-05 -6.37461e-05 0)
(3.85587e-05 -6.44006e-05 0)
(4.12247e-05 -6.50686e-05 0)
(4.39151e-05 -6.57496e-05 0)
(3.67198e-05 -6.64575e-05 0)
(3.93805e-05 -6.70969e-05 0)
(4.20628e-05 -6.77486e-05 0)
(4.47692e-05 -6.84125e-05 0)
(3.75044e-05 -6.91842e-05 0)
(4.01802e-05 -6.98082e-05 0)
(4.28775e-05 -7.04436e-05 0)
(4.55987e-05 -7.10902e-05 0)
(3.82677e-05 -7.19249e-05 0)
(4.09574e-05 -7.25333e-05 0)
(4.36686e-05 -7.31523e-05 0)
(4.64035e-05 -7.37816e-05 0)
(3.90094e-05 -7.46786e-05 0)
(4.1712e-05 -7.52713e-05 0)
(4.44359e-05 -7.58737e-05 0)
(4.71834e-05 -7.64856e-05 0)
(3.97292e-05 -7.74443e-05 0)
(4.24436e-05 -7.80211e-05 0)
(4.51794e-05 -7.86068e-05 0)
(4.79384e-05 -7.92013e-05 0)
(4.04269e-05 -8.0221e-05 0)
(4.31521e-05 -8.07817e-05 0)
(4.58987e-05 -8.13507e-05 0)
(4.86685e-05 -8.19276e-05 0)
(4.1102e-05 -8.30079e-05 0)
(4.38372e-05 -8.35524e-05 0)
(4.65939e-05 -8.41044e-05 0)
(4.93736e-05 -8.46639e-05 0)
(4.17545e-05 -8.58041e-05 0)
(4.44989e-05 -8.63323e-05 0)
(4.72648e-05 -8.68674e-05 0)
(5.00536e-05 -8.74093e-05 0)
(4.2384e-05 -8.8609e-05 0)
(4.51369e-05 -8.91206e-05 0)
(4.79113e-05 -8.96387e-05 0)
(5.07085e-05 -9.0163e-05 0)
(4.29905e-05 -9.14217e-05 0)
(4.57511e-05 -9.19168e-05 0)
(4.85334e-05 -9.24178e-05 0)
(5.13384e-05 -9.29245e-05 0)
(4.35737e-05 -9.42418e-05 0)
(4.63415e-05 -9.47202e-05 0)
(4.91309e-05 -9.5204e-05 0)
(5.19431e-05 -9.56932e-05 0)
(4.41335e-05 -9.70685e-05 0)
(4.69079e-05 -9.75302e-05 0)
(4.97039e-05 -9.79968e-05 0)
(5.25228e-05 -9.84684e-05 0)
(4.46699e-05 -9.99014e-05 0)
(4.74502e-05 -0.000100346 0)
(5.02524e-05 -0.000100796 0)
(5.30773e-05 -0.00010125 0)
(4.51827e-05 -0.00010274 0)
(4.79685e-05 -0.000103168 0)
(5.07762e-05 -0.0001036 0)
(5.36069e-05 -0.000104036 0)
(4.56718e-05 -0.000105584 0)
(4.84626e-05 -0.000105995 0)
(5.12755e-05 -0.00010641 0)
(5.41113e-05 -0.000106828 0)
(4.61372e-05 -0.000108432 0)
(4.89326e-05 -0.000108826 0)
(5.17502e-05 -0.000109224 0)
(5.45908e-05 -0.000109625 0)
(4.65788e-05 -0.000111285 0)
(4.93783e-05 -0.000111662 0)
(5.22002e-05 -0.000112043 0)
(5.50453e-05 -0.000112426 0)
(4.69967e-05 -0.000114142 0)
(4.97999e-05 -0.000114502 0)
(5.26257e-05 -0.000114865 0)
(5.54748e-05 -0.000115231 0)
(4.73907e-05 -0.000117003 0)
(5.01973e-05 -0.000117346 0)
(5.30267e-05 -0.000117691 0)
(5.58794e-05 -0.000118039 0)
(4.77609e-05 -0.000119867 0)
(5.05705e-05 -0.000120193 0)
(5.3403e-05 -0.000120521 0)
(5.62592e-05 -0.000120851 0)
(4.81072e-05 -0.000122734 0)
(5.09194e-05 -0.000123042 0)
(5.37548e-05 -0.000123353 0)
(5.6614e-05 -0.000123666 0)
(4.84296e-05 -0.000125603 0)
(5.1244e-05 -0.000125895 0)
(5.40819e-05 -0.000126188 0)
(5.6944e-05 -0.000126483 0)
(4.8728e-05 -0.000128475 0)
(5.15444e-05 -0.000128749 0)
(5.43845e-05 -0.000129025 0)
(5.7249e-05 -0.000129302 0)
(4.90024e-05 -0.00013135 0)
(5.18203e-05 -0.000131606 0)
(5.46623e-05 -0.000131864 0)
(5.75291e-05 -0.000132123 0)
(4.92526e-05 -0.000134226 0)
(5.20717e-05 -0.000134465 0)
(5.49154e-05 -0.000134704 0)
(5.77841e-05 -0.000134945 0)
(4.94785e-05 -0.000137104 0)
(5.22986e-05 -0.000137325 0)
(5.51436e-05 -0.000137546 0)
(5.8014e-05 -0.000137769 0)
(4.96799e-05 -0.000139983 0)
(5.25005e-05 -0.000140186 0)
(5.53466e-05 -0.000140389 0)
(5.82187e-05 -0.000140593 0)
(4.98567e-05 -0.000142864 0)
(5.26772e-05 -0.000143048 0)
(5.55241e-05 -0.000143232 0)
(5.83979e-05 -0.000143418 0)
(5.00085e-05 -0.000145747 0)
(5.2828e-05 -0.000145912 0)
(5.56756e-05 -0.000146076 0)
(5.85515e-05 -0.000146242 0)
(5.01352e-05 -0.000148631 0)
(5.29522e-05 -0.000148777 0)
(5.58001e-05 -0.000148918 0)
(5.86794e-05 -0.000149064 0)
(5.02364e-05 -0.000151519 0)
(5.30475e-05 -0.000151643 0)
(5.58957e-05 -0.00015176 0)
(5.87812e-05 -0.000151885 0)
(5.03132e-05 -0.000154408 0)
(5.31123e-05 -0.000154511 0)
(5.59606e-05 -0.0001546 0)
(5.88581e-05 -0.000154703 0)
(5.03644e-05 -0.00015729 0)
(5.31411e-05 -0.000157375 0)
(5.59893e-05 -0.000157443 0)
(5.89092e-05 -0.000157528 0)
(5.04012e-05 -0.000160129 0)
(5.31488e-05 -0.000160224 0)
(5.5997e-05 -0.000160301 0)
(5.89456e-05 -0.000160396 0)
)
;

boundaryField
{
    plateFix
    {
        type            fixedDisplacement;
        value           uniform (0 0 0);
    }
    plate
    {
        type            solidTraction;
        nonLinear       updatedLagrangian;
        traction        uniform (0 0 0);
        pressure        uniform 0;
        value           nonuniform List<vector> 
168
(
(8.67884e-07 4.55954e-07 -7.44397e-26)
(1.15065e-06 -6.55355e-07 -1.25139e-25)
(7.89755e-07 7.4603e-07 1.58796e-25)
(1.12549e-06 -1.04084e-06 -2.27102e-26)
(7.59579e-07 9.60583e-07 1.6946e-26)
(1.18735e-06 -1.34645e-06 1.27206e-25)
(7.91682e-07 1.09545e-06 -1.52353e-26)
(1.34223e-06 -1.57274e-06 4.06025e-26)
(8.83925e-07 1.17015e-06 -6.24028e-26)
(1.58311e-06 -1.75283e-06 -9.30035e-26)
(1.02491e-06 1.19288e-06 6.35327e-26)
(1.89243e-06 -1.90345e-06 3.25808e-26)
(1.2084e-06 1.1721e-06 -1.00479e-25)
(2.26072e-06 -2.04216e-06 -1.90483e-27)
(1.42942e-06 1.11221e-06 2.54196e-26)
(2.68073e-06 -2.18147e-06 -4.84711e-26)
(1.68554e-06 1.01587e-06 -5.39961e-26)
(3.14893e-06 -2.3325e-06 9.1374e-26)
(1.97555e-06 8.83573e-07 8.72572e-26)
(3.66359e-06 -2.50457e-06 -7.50816e-26)
(2.29949e-06 7.14207e-07 -6.43123e-26)
(4.22462e-06 -2.70627e-06 1.15276e-26)
(2.65829e-06 5.05037e-07 8.23228e-26)
(4.83298e-06 -2.94565e-06 1.82524e-26)
(3.05366e-06 2.51843e-07 -6.42726e-26)
(5.4905e-06 -3.2306e-06 1.98639e-26)
(3.48801e-06 -5.10808e-08 3.85198e-27)
(6.19968e-06 -3.56907e-06 -3.60838e-26)
(3.96438e-06 -4.10905e-07 9.9016e-27)
(6.96359e-06 -3.96927e-06 2.28405e-26)
(4.48634e-06 -8.3629e-07 6.22736e-27)
(7.78575e-06 -4.43984e-06 -2.76364e-26)
(5.05793e-06 -1.3374e-06 2.40373e-26)
(8.67002e-06 -4.99001e-06 1.70003e-26)
(5.68348e-06 -1.92593e-06 -4.88207e-27)
(9.62044e-06 -5.62976e-06 -5.31586e-26)
(6.36756e-06 -2.61513e-06 -2.20173e-26)
(1.06411e-05 -6.37002e-06 4.73992e-26)
(7.11471e-06 -3.41981e-06 2.40377e-27)
(1.17358e-05 -7.22279e-06 -3.30652e-27)
(7.92943e-06 -4.35627e-06 -1.14944e-27)
(1.29083e-05 -8.20142e-06 2.00226e-26)
(8.81585e-06 -5.44235e-06 4.29742e-27)
(1.41616e-05 -9.3207e-06 2.83379e-27)
(9.81461e-06 -6.74515e-06 -6.95309e-27)
(1.55492e-05 -1.06458e-05 -9.12602e-27)
(1.08936e-05 -8.24825e-06 1.98963e-26)
(1.70218e-05 -1.21572e-05 2.99913e-26)
(1.19788e-05 -9.85386e-06 -2.73895e-26)
(1.84783e-05 -1.37563e-05 -5.35136e-26)
(1.30665e-05 -1.15551e-05 2.61457e-26)
(1.99159e-05 -1.54391e-05 2.63549e-26)
(1.4154e-05 -1.33456e-05 2.82486e-26)
(2.13324e-05 -1.72011e-05 -4.71036e-26)
(1.52386e-05 -1.52192e-05 -3.14424e-26)
(2.27261e-05 -1.90385e-05 6.41804e-26)
(1.63185e-05 -1.71701e-05 -1.04952e-27)
(2.40959e-05 -2.09471e-05 -4.53448e-26)
(1.7392e-05 -1.91927e-05 2.14659e-27)
(2.54409e-05 -2.2923e-05 5.1999e-27)
(1.84578e-05 -2.12821e-05 2.77533e-27)
(2.67606e-05 -2.49622e-05 2.5702e-26)
(1.95147e-05 -2.34335e-05 2.48712e-27)
(2.80546e-05 -2.7061e-05 6.83144e-27)
(2.05618e-05 -2.56423e-05 -1.1411e-26)
(2.93228e-05 -2.92154e-05 -5.14735e-27)
(2.15982e-05 -2.79045e-05 1.70734e-26)
(3.05651e-05 -3.1422e-05 -2.05337e-26)
(2.26231e-05 -3.02162e-05 -1.42145e-26)
(3.17815e-05 -3.3677e-05 2.19267e-26)
(2.36359e-05 -3.25737e-05 2.23762e-27)
(3.29721e-05 -3.59771e-05 -1.74733e-26)
(2.46357e-05 -3.49738e-05 1.73238e-27)
(3.4137e-05 -3.83191e-05 2.29774e-27)
(2.56221e-05 -3.74132e-05 -6.47445e-27)
(3.52764e-05 -4.06998e-05 8.99407e-27)
(2.65943e-05 -3.9889e-05 1.31298e-26)
(3.63902e-05 -4.31165e-05 -1.24901e-26)
(2.75516e-05 -4.23986e-05 -5.13321e-27)
(3.74787e-05 -4.55664e-05 5.24108e-27)
(2.84935e-05 -4.49393e-05 -6.37343e-27)
(3.85419e-05 -4.8047e-05 -6.13986e-28)
(2.94193e-05 -4.75089e-05 1.29002e-26)
(3.95798e-05 -5.05559e-05 -7.64554e-27)
(3.03284e-05 -5.01051e-05 2.1662e-27)
(4.05926e-05 -5.30908e-05 7.46311e-27)
(3.12203e-05 -5.2726e-05 3.57567e-27)
(4.15802e-05 -5.56499e-05 9.27536e-27)
(3.20944e-05 -5.53697e-05 -8.70875e-27)
(4.25426e-05 -5.82312e-05 -3.5895e-27)
(3.295e-05 -5.80344e-05 5.02185e-27)
(4.348e-05 -6.0833e-05 2.14766e-27)
(3.37868e-05 -6.07186e-05 -2.19221e-26)
(4.43922e-05 -6.34536e-05 -2.80846e-27)
(3.46042e-05 -6.34209e-05 9.27012e-27)
(4.52792e-05 -6.60917e-05 -3.45966e-28)
(3.54018e-05 -6.61397e-05 1.41808e-26)
(4.61411e-05 -6.87458e-05 -2.33681e-27)
(3.61791e-05 -6.88739e-05 -1.14447e-26)
(4.69777e-05 -7.14148e-05 -1.16443e-27)
(3.69356e-05 -7.16223e-05 -4.95062e-27)
(4.7789e-05 -7.40974e-05 -1.65925e-26)
(3.76711e-05 -7.43837e-05 -9.59722e-28)
(4.8575e-05 -7.67926e-05 1.84823e-26)
(3.83852e-05 -7.71573e-05 4.07538e-27)
(4.93356e-05 -7.94995e-05 4.70355e-27)
(3.90775e-05 -7.99419e-05 3.65714e-27)
(5.00709e-05 -8.2217e-05 -9.14805e-27)
(3.97478e-05 -8.27368e-05 -3.47987e-27)
(5.07807e-05 -8.49445e-05 1.91379e-26)
(4.03958e-05 -8.55411e-05 -6.4271e-27)
(5.14652e-05 -8.7681e-05 -1.79248e-26)
(4.10213e-05 -8.83541e-05 3.111e-27)
(5.21242e-05 -9.04259e-05 -2.78414e-27)
(4.1624e-05 -9.1175e-05 -1.97776e-27)
(5.27578e-05 -9.31786e-05 4.20482e-27)
(4.22038e-05 -9.40033e-05 4.62855e-27)
(5.33661e-05 -9.59383e-05 -5.9008e-27)
(4.27605e-05 -9.68384e-05 1.41748e-26)
(5.3949e-05 -9.87047e-05 -2.57299e-27)
(4.3294e-05 -9.96796e-05 -1.85786e-26)
(5.45065e-05 -0.000101477 -8.79859e-27)
(4.38042e-05 -0.000102527 -1.74875e-27)
(5.50388e-05 -0.000104255 1.28627e-26)
(4.42909e-05 -0.000105379 3.01041e-27)
(5.55459e-05 -0.000107038 6.54214e-27)
(4.47542e-05 -0.000108236 1.54878e-27)
(5.60278e-05 -0.000109826 -8.31097e-27)
(4.51939e-05 -0.000111097 3.06041e-27)
(5.64845e-05 -0.000112618 -6.69085e-27)
(4.561e-05 -0.000113962 6.07938e-27)
(5.69161e-05 -0.000115414 2.95945e-27)
(4.60025e-05 -0.000116832 -4.86519e-27)
(5.73226e-05 -0.000118214 3.6138e-27)
(4.63713e-05 -0.000119704 -5.42461e-27)
(5.77041e-05 -0.000121017 2.13478e-27)
(4.67165e-05 -0.000122579 1.13856e-26)
(5.80606e-05 -0.000123822 6.94308e-27)
(4.70379e-05 -0.000125458 -1.33949e-26)
(5.8392e-05 -0.000126631 -3.25691e-27)
(4.73355e-05 -0.000128338 -3.15492e-28)
(5.86984e-05 -0.000129441 -2.38291e-27)
(4.76093e-05 -0.000131221 -3.95315e-27)
(5.89798e-05 -0.000132253 4.26478e-27)
(4.78591e-05 -0.000134106 9.89427e-27)
(5.9236e-05 -0.000135066 1.23135e-26)
(4.80848e-05 -0.000136993 -9.83153e-27)
(5.94669e-05 -0.000137881 6.51631e-28)
(4.82862e-05 -0.000139882 -1.69268e-27)
(5.96726e-05 -0.000140696 -3.00323e-27)
(4.84631e-05 -0.000142772 -6.57946e-28)
(5.98526e-05 -0.000143511 -5.77106e-27)
(4.86151e-05 -0.000145664 -6.92667e-27)
(6.00069e-05 -0.000146325 3.61479e-27)
(4.8742e-05 -0.000148558 5.35871e-27)
(6.01353e-05 -0.000149138 -3.92642e-27)
(4.88439e-05 -0.000151455 3.91974e-27)
(6.02378e-05 -0.000151949 4.16277e-28)
(4.89245e-05 -0.000154354 3.05155e-27)
(6.03184e-05 -0.000154757 -7.09216e-27)
(4.89931e-05 -0.000157244 1.39395e-26)
(6.03865e-05 -0.000157574 1.20088e-27)
(4.90823e-05 -0.000160091 -7.75315e-27)
(5.04095e-05 -0.000161474 -5.85759e-27)
(5.31497e-05 -0.00016163 -1.29946e-26)
(5.59978e-05 -0.000161747 -1.04572e-26)
(5.89538e-05 -0.000161903 1.79368e-26)
(6.04748e-05 -0.000160433 2.48672e-27)
)
;
    }
    frontAndBackPlanes
    {
        type            empty;
    }
}


// ************************************************************************* //
