/*--------------------------------*- C++ -*----------------------------------*\
| =========                 |                                                 |
| \\      /  F ield         | OpenFOAM Extend Project: Open source CFD        |
|  \\    /   O peration     | Version:  1.6-ext                               |
|   \\  /    A nd           | Web:      www.extend-project.de                 |
|    \\/     M anipulation  |                                                 |
\*---------------------------------------------------------------------------*/
FoamFile
{
    version     2.0;
    format      ascii;
    class       volScalarField::DimensionedInternalField;
    location    "0.15";
    object      V0;
}
// * * * * * * * * * * * * * * * * * * * * * * * * * * * * * * * * * * * * * //

dimensions      [0 3 0 0 0 0 0];

value           nonuniform List<scalar> 
328
(
2.53344e-07
2.5337e-07
2.53376e-07
2.5335e-07
2.71695e-07
2.71736e-07
2.7174e-07
2.717e-07
2.914e-07
2.91436e-07
2.91439e-07
2.91408e-07
3.12535e-07
3.12563e-07
3.12566e-07
3.12545e-07
3.35201e-07
3.35223e-07
3.35226e-07
3.35213e-07
3.59509e-07
3.59526e-07
3.59529e-07
3.59522e-07
3.85578e-07
3.85592e-07
3.85595e-07
3.85593e-07
4.13537e-07
4.13548e-07
4.13551e-07
4.13553e-07
4.43522e-07
4.43532e-07
4.43534e-07
4.43539e-07
4.7568e-07
4.75689e-07
4.75692e-07
4.75698e-07
5.1017e-07
5.10178e-07
5.10182e-07
5.10189e-07
5.47161e-07
5.47168e-07
5.47172e-07
5.4718e-07
5.86832e-07
5.86841e-07
5.86844e-07
5.86853e-07
6.29381e-07
6.29389e-07
6.29393e-07
6.29402e-07
6.75014e-07
6.75022e-07
6.75026e-07
6.75036e-07
7.23955e-07
7.23965e-07
7.23969e-07
7.23979e-07
7.76445e-07
7.76455e-07
7.76459e-07
7.7647e-07
8.32741e-07
8.32751e-07
8.32756e-07
8.32766e-07
8.93119e-07
8.93129e-07
8.93134e-07
8.93145e-07
9.57873e-07
9.57884e-07
9.57889e-07
9.579e-07
1.02732e-06
1.02733e-06
1.02734e-06
1.02735e-06
1.10181e-06
1.10182e-06
1.10183e-06
1.10184e-06
1.26876e-06
1.26877e-06
1.26878e-06
1.26879e-06
1.26876e-06
1.26877e-06
1.26878e-06
1.26879e-06
1.26876e-06
1.26877e-06
1.26878e-06
1.26879e-06
1.26876e-06
1.26877e-06
1.26877e-06
1.26878e-06
1.26876e-06
1.26877e-06
1.26877e-06
1.26878e-06
1.26876e-06
1.26877e-06
1.26877e-06
1.26878e-06
1.26876e-06
1.26877e-06
1.26877e-06
1.26878e-06
1.26876e-06
1.26877e-06
1.26877e-06
1.26878e-06
1.26876e-06
1.26876e-06
1.26877e-06
1.26877e-06
1.26876e-06
1.26876e-06
1.26877e-06
1.26877e-06
1.26876e-06
1.26876e-06
1.26876e-06
1.26877e-06
1.26875e-06
1.26876e-06
1.26876e-06
1.26877e-06
1.26875e-06
1.26876e-06
1.26876e-06
1.26877e-06
1.26875e-06
1.26876e-06
1.26876e-06
1.26877e-06
1.26875e-06
1.26876e-06
1.26876e-06
1.26876e-06
1.26875e-06
1.26876e-06
1.26876e-06
1.26876e-06
1.26875e-06
1.26875e-06
1.26876e-06
1.26876e-06
1.26875e-06
1.26875e-06
1.26875e-06
1.26876e-06
1.26875e-06
1.26875e-06
1.26875e-06
1.26876e-06
1.26875e-06
1.26875e-06
1.26875e-06
1.26875e-06
1.26874e-06
1.26875e-06
1.26875e-06
1.26875e-06
1.26874e-06
1.26875e-06
1.26875e-06
1.26875e-06
1.26874e-06
1.26874e-06
1.26875e-06
1.26875e-06
1.26874e-06
1.26874e-06
1.26874e-06
1.26875e-06
1.26874e-06
1.26874e-06
1.26874e-06
1.26874e-06
1.26874e-06
1.26874e-06
1.26874e-06
1.26874e-06
1.26874e-06
1.26874e-06
1.26874e-06
1.26874e-06
1.26873e-06
1.26873e-06
1.26874e-06
1.26874e-06
1.26873e-06
1.26873e-06
1.26873e-06
1.26873e-06
1.26873e-06
1.26873e-06
1.26873e-06
1.26873e-06
1.26873e-06
1.26873e-06
1.26873e-06
1.26873e-06
1.26873e-06
1.26873e-06
1.26873e-06
1.26873e-06
1.26872e-06
1.26873e-06
1.26873e-06
1.26873e-06
1.26872e-06
1.26872e-06
1.26872e-06
1.26872e-06
1.26872e-06
1.26872e-06
1.26872e-06
1.26872e-06
1.26872e-06
1.26872e-06
1.26872e-06
1.26872e-06
1.26872e-06
1.26872e-06
1.26872e-06
1.26872e-06
1.26871e-06
1.26872e-06
1.26872e-06
1.26872e-06
1.26871e-06
1.26871e-06
1.26871e-06
1.26871e-06
1.26871e-06
1.26871e-06
1.26871e-06
1.26871e-06
1.26871e-06
1.26871e-06
1.26871e-06
1.26871e-06
1.26871e-06
1.26871e-06
1.26871e-06
1.26871e-06
1.2687e-06
1.26871e-06
1.26871e-06
1.26871e-06
1.2687e-06
1.2687e-06
1.2687e-06
1.2687e-06
1.2687e-06
1.2687e-06
1.2687e-06
1.2687e-06
1.2687e-06
1.2687e-06
1.2687e-06
1.2687e-06
1.2687e-06
1.2687e-06
1.2687e-06
1.2687e-06
1.2687e-06
1.2687e-06
1.2687e-06
1.2687e-06
1.26869e-06
1.26869e-06
1.26869e-06
1.26869e-06
1.26869e-06
1.26869e-06
1.26869e-06
1.26869e-06
1.26869e-06
1.26869e-06
1.26869e-06
1.26869e-06
1.26869e-06
1.26869e-06
1.26869e-06
1.26869e-06
1.26869e-06
1.26869e-06
1.26869e-06
1.26869e-06
1.26869e-06
1.26869e-06
1.26869e-06
1.26869e-06
1.26868e-06
1.26868e-06
1.26868e-06
1.26868e-06
1.26868e-06
1.26868e-06
1.26868e-06
1.26868e-06
1.26868e-06
1.26868e-06
1.26868e-06
1.26868e-06
1.26868e-06
1.26868e-06
1.26868e-06
1.26868e-06
1.26868e-06
1.26868e-06
1.26868e-06
1.26868e-06
1.26867e-06
1.26867e-06
1.26867e-06
1.26867e-06
)
;


// ************************************************************************* //
