/*--------------------------------*- C++ -*----------------------------------*\
| =========                 |                                                 |
| \\      /  F ield         | OpenFOAM Extend Project: Open source CFD        |
|  \\    /   O peration     | Version:  1.6-ext                               |
|   \\  /    A nd           | Web:      www.extend-project.de                 |
|    \\/     M anipulation  |                                                 |
\*---------------------------------------------------------------------------*/
FoamFile
{
    version     2.0;
    format      ascii;
    class       volVectorField;
    location    "0.15";
    object      Vs;
}
// * * * * * * * * * * * * * * * * * * * * * * * * * * * * * * * * * * * * * //

dimensions      [0 1 -1 0 0 0 0];

internalField   nonuniform List<vector> 
328
(
(-9.35772e-06 -2.71476e-05 0)
(-4.8663e-06 -5.70371e-06 0)
(-4.95608e-06 5.7974e-06 0)
(-9.82933e-06 2.7896e-05 0)
(-2.83941e-05 -6.95475e-05 0)
(-1.71242e-05 -1.65034e-05 0)
(-1.74388e-05 1.70657e-05 0)
(-2.98333e-05 7.16193e-05 0)
(-5.12762e-05 -0.000100908 0)
(-3.5977e-05 -2.65355e-05 0)
(-3.66143e-05 2.78815e-05 0)
(-5.38103e-05 0.000104274 0)
(-7.64254e-05 -0.000122959 0)
(-5.90437e-05 -3.49675e-05 0)
(-6.00469e-05 3.74181e-05 0)
(-8.01234e-05 0.000127692 0)
(-0.000104266 -0.000137945 0)
(-8.67435e-05 -4.14959e-05 0)
(-8.81552e-05 4.53823e-05 0)
(-0.000109196 0.000144216 0)
(-0.000134586 -0.000147589 0)
(-0.000118268 -4.60227e-05 0)
(-0.000120112 5.1702e-05 0)
(-0.000140797 0.000155652 0)
(-0.000167571 -0.000153302 0)
(-0.00015347 -4.86924e-05 0)
(-0.000155765 5.65562e-05 0)
(-0.000175104 0.000163487 0)
(-0.000203339 -0.00015613 0)
(-0.000192015 -4.97403e-05 0)
(-0.000194772 6.02243e-05 0)
(-0.000212223 0.000168836 0)
(-0.000242092 -0.000156876 0)
(-0.000233782 -4.94592e-05 0)
(-0.000237007 6.30503e-05 0)
(-0.000252349 0.000172568 0)
(-0.00028403 -0.00015613 0)
(-0.000278682 -4.81295e-05 0)
(-0.000282379 6.53728e-05 0)
(-0.00029567 0.000175339 0)
(-0.000329366 -0.000154318 0)
(-0.000326743 -4.59956e-05 0)
(-0.000330911 6.7499e-05 0)
(-0.00034239 0.000177643 0)
(-0.000378315 -0.00015173 0)
(-0.000378065 -4.32425e-05 0)
(-0.000382696 6.96814e-05 0)
(-0.000392708 0.00017984 0)
(-0.000431095 -0.00014855 0)
(-0.00043282 -3.99942e-05 0)
(-0.000437906 7.21135e-05 0)
(-0.00044683 0.000182182 0)
(-0.000487933 -0.000144874 0)
(-0.000491241 -3.6316e-05 0)
(-0.000496763 7.49317e-05 0)
(-0.000504961 0.000184837 0)
(-0.000549062 -0.000140731 0)
(-0.000553599 -3.22266e-05 0)
(-0.000559535 7.82238e-05 0)
(-0.000567315 0.000187903 0)
(-0.000614728 -0.000136108 0)
(-0.000620198 -2.77112e-05 0)
(-0.000626515 8.20396e-05 0)
(-0.000634111 0.000191432 0)
(-0.00068519 -0.000130964 0)
(-0.000691355 -2.27363e-05 0)
(-0.000698012 8.64015e-05 0)
(-0.000705578 0.000195436 0)
(-0.00076072 -0.00012525 0)
(-0.000767395 -1.72637e-05 0)
(-0.000774338 9.13123e-05 0)
(-0.000781955 0.00019991 0)
(-0.000841605 -0.000118927 0)
(-0.000848643 -1.12621e-05 0)
(-0.000855806 9.67607e-05 0)
(-0.000863489 0.000204832 0)
(-0.000928144 -0.000111972 0)
(-0.000935421 -4.71753e-06 0)
(-0.000942723 0.000102723 0)
(-0.000950432 0.00021017 0)
(-0.00102065 -0.000104396 0)
(-0.00102805 2.35819e-06 0)
(-0.00103539 0.000109158 0)
(-0.00104305 0.000215883 0)
(-0.00111944 -9.62431e-05 0)
(-0.00112685 9.92076e-06 0)
(-0.00113412 0.000116007 0)
(-0.00114159 0.000221913 0)
(-0.00122889 -8.72749e-05 0)
(-0.00123616 1.81884e-05 0)
(-0.0012432 0.00012345 0)
(-0.00125034 0.000228409 0)
(-0.00134528 -7.79754e-05 0)
(-0.00135225 2.6694e-05 0)
(-0.00135888 0.00013104 0)
(-0.00136551 0.000234951 0)
(-0.00146084 -6.91587e-05 0)
(-0.00146735 3.46904e-05 0)
(-0.00147342 0.000138099 0)
(-0.00147937 0.000240946 0)
(-0.00157552 -6.09766e-05 0)
(-0.00158142 4.2025e-05 0)
(-0.00158677 0.000144474 0)
(-0.00159188 0.000246237 0)
(-0.00168922 -5.35715e-05 0)
(-0.00169438 4.85515e-05 0)
(-0.00169887 0.000150012 0)
(-0.00170298 0.000250668 0)
(-0.00180188 -4.70718e-05 0)
(-0.00180615 5.41309e-05 0)
(-0.00180963 0.000154564 0)
(-0.0018126 0.000254079 0)
(-0.00191339 -4.15992e-05 0)
(-0.00191663 5.86293e-05 0)
(-0.00191896 0.000157984 0)
(-0.00192066 0.00025631 0)
(-0.00202363 -3.72699e-05 0)
(-0.00202572 6.19171e-05 0)
(-0.00202677 0.000160129 0)
(-0.00202705 0.000257204 0)
(-0.00213247 -3.41972e-05 0)
(-0.00213328 6.38674e-05 0)
(-0.00213291 0.000160858 0)
(-0.00213164 0.000256608 0)
(-0.00223977 -3.24933e-05 0)
(-0.00223916 6.43557e-05 0)
(-0.00223725 0.000160034 0)
(-0.0022343 0.000254372 0)
(-0.00234536 -3.22703e-05 0)
(-0.00234321 6.32588e-05 0)
(-0.00233964 0.000157524 0)
(-0.00233489 0.000250352 0)
(-0.00244907 -3.36405e-05 0)
(-0.00244527 6.04549e-05 0)
(-0.00243991 0.000153196 0)
(-0.00243323 0.000244408 0)
(-0.00255071 -3.67159e-05 0)
(-0.00254514 5.58239e-05 0)
(-0.00253788 0.000146924 0)
(-0.00252916 0.000236407 0)
(-0.00265009 -4.16081e-05 0)
(-0.00264265 4.92484e-05 0)
(-0.00263338 0.000138584 0)
(-0.00262251 0.000226221 0)
(-0.00274702 -4.84258e-05 0)
(-0.00273759 4.06153e-05 0)
(-0.00272622 0.00012806 0)
(-0.00271309 0.000213732 0)
(-0.00284128 -5.72732e-05 0)
(-0.00282978 2.98181e-05 0)
(-0.00281621 0.000115244 0)
(-0.00280074 0.000198833 0)
(-0.00293268 -6.82476e-05 0)
(-0.00291902 1.6759e-05 0)
(-0.00290317 0.000100038 0)
(-0.00288528 0.000181428 0)
(-0.00302102 -8.14365e-05 0)
(-0.00300511 1.35176e-06 0)
(-0.00298692 8.23606e-05 0)
(-0.00296654 0.000161436 0)
(-0.00310608 -9.69155e-05 0)
(-0.00308788 -1.64758e-05 0)
(-0.00306729 6.21417e-05 0)
(-0.00304437 0.000138795 0)
(-0.00318767 -0.000114746 0)
(-0.00316713 -3.67797e-05 0)
(-0.0031441 3.93316e-05 0)
(-0.00311862 0.000113461 0)
(-0.00326562 -0.000134972 0)
(-0.00324271 -5.95983e-05 0)
(-0.00321721 1.38992e-05 0)
(-0.00318914 8.54102e-05 0)
(-0.00333975 -0.000157625 0)
(-0.00331444 -8.49519e-05 0)
(-0.00328646 -1.4167e-05 0)
(-0.00325581 5.46396e-05 0)
(-0.00340989 -0.000182716 0)
(-0.00338219 -0.000112842 0)
(-0.00335174 -4.48588e-05 0)
(-0.00331852 2.11668e-05 0)
(-0.00347592 -0.000210243 0)
(-0.00344582 -0.000143255 0)
(-0.00341293 -7.81502e-05 0)
(-0.00337717 -1.49713e-05 0)
(-0.0035377 -0.000240189 0)
(-0.00350523 -0.00017616 0)
(-0.00346992 -0.000113999 0)
(-0.00343168 -5.37212e-05 0)
(-0.00359514 -0.000272527 0)
(-0.00356033 -0.000211516 0)
(-0.00352264 -0.000152348 0)
(-0.00348197 -9.50147e-05 0)
(-0.00364815 -0.000307221 0)
(-0.00361105 -0.000249269 0)
(-0.00357104 -0.000193133 0)
(-0.00352801 -0.000138772 0)
(-0.0036967 -0.000344227 0)
(-0.00365734 -0.000289362 0)
(-0.00361507 -0.000236278 0)
(-0.00356975 -0.000184906 0)
(-0.00374074 -0.000383499 0)
(-0.00369918 -0.00033173 0)
(-0.00365471 -0.000281705 0)
(-0.00360719 -0.000233321 0)
(-0.00378028 -0.000424986 0)
(-0.00373657 -0.000376307 0)
(-0.00368998 -0.000329329 0)
(-0.00364035 -0.000283919 0)
(-0.00381534 -0.000468637 0)
(-0.00376954 -0.000423023 0)
(-0.0037209 -0.000379066 0)
(-0.00366926 -0.000336599 0)
(-0.00384597 -0.000514397 0)
(-0.00379814 -0.000471809 0)
(-0.00374754 -0.000430829 0)
(-0.00369397 -0.000391258 0)
(-0.00387223 -0.000562209 0)
(-0.00382245 -0.000522591 0)
(-0.00376996 -0.000484527 0)
(-0.00371457 -0.000447787 0)
(-0.00389421 -0.000612011 0)
(-0.00384255 -0.00057529 0)
(-0.00378827 -0.000540067 0)
(-0.00373117 -0.000506078 0)
(-0.00391204 -0.000663734 0)
(-0.00385858 -0.000629823 0)
(-0.0038026 -0.000597347 0)
(-0.0037439 -0.000566014 0)
(-0.00392585 -0.000717303 0)
(-0.00387067 -0.000686099 0)
(-0.0038131 -0.000656263 0)
(-0.00375292 -0.000627474 0)
(-0.0039358 -0.000772633 0)
(-0.003879 -0.000744018 0)
(-0.00381995 -0.0007167 0)
(-0.0037584 -0.000690331 0)
(-0.00394208 -0.000829629 0)
(-0.00388375 -0.000803473 0)
(-0.00382332 -0.000778537 0)
(-0.00376054 -0.000754449 0)
(-0.00394487 -0.000888188 0)
(-0.00388513 -0.000864345 0)
(-0.00382344 -0.000841643 0)
(-0.00375955 -0.000819688 0)
(-0.00394441 -0.000948198 0)
(-0.00388336 -0.000926511 0)
(-0.00382052 -0.000905885 0)
(-0.00375565 -0.000885905 0)
(-0.00394094 -0.00100954 0)
(-0.00387868 -0.000989845 0)
(-0.00381481 -0.000971125 0)
(-0.00374909 -0.000952954 0)
(-0.00393469 -0.00107211 0)
(-0.00387135 -0.00105422 0)
(-0.00380656 -0.00103723 0)
(-0.00374011 -0.00102069 0)
(-0.00392596 -0.00113577 0)
(-0.00386162 -0.0011195 0)
(-0.00379603 -0.00110406 0)
(-0.00372897 -0.00108899 0)
(-0.003915 -0.00120041 0)
(-0.00384978 -0.00118559 0)
(-0.00378349 -0.0011715 0)
(-0.00371593 -0.00115771 0)
(-0.00390212 -0.00126594 0)
(-0.00383611 -0.00125235 0)
(-0.00376921 -0.00123944 0)
(-0.00370125 -0.00122675 0)
(-0.00388759 -0.00133225 0)
(-0.00382088 -0.00131971 0)
(-0.00375346 -0.00130778 0)
(-0.00368518 -0.00129601 0)
(-0.00387171 -0.00139926 0)
(-0.00380438 -0.00138758 0)
(-0.00373652 -0.00137644 0)
(-0.00366798 -0.00136541 0)
(-0.00385477 -0.0014669 0)
(-0.00378688 -0.00145588 0)
(-0.00371864 -0.00144535 0)
(-0.00364991 -0.00143489 0)
(-0.00383704 -0.0015351 0)
(-0.00376866 -0.00152456 0)
(-0.00370009 -0.00151447 0)
(-0.00363123 -0.0015044 0)
(-0.00381878 -0.00160381 0)
(-0.00374996 -0.00159358 0)
(-0.00368111 -0.00158374 0)
(-0.00361215 -0.00157391 0)
(-0.00380024 -0.00167297 0)
(-0.00373103 -0.00166288 0)
(-0.00366195 -0.00165315 0)
(-0.00359292 -0.00164341 0)
(-0.00378165 -0.00174253 0)
(-0.00371211 -0.00173244 0)
(-0.00364283 -0.00172267 0)
(-0.00357374 -0.00171287 0)
(-0.00376321 -0.00181244 0)
(-0.00369337 -0.00180223 0)
(-0.00362393 -0.00179228 0)
(-0.00355481 -0.0017823 0)
(-0.0037451 -0.00188266 0)
(-0.00367502 -0.0018722 0)
(-0.00360544 -0.00186197 0)
(-0.00353629 -0.0018517 0)
(-0.00372748 -0.00195312 0)
(-0.00365719 -0.00194232 0)
(-0.0035875 -0.00193172 0)
(-0.00351834 -0.00192107 0)
(-0.00371046 -0.00202377 0)
(-0.00364001 -0.00201256 0)
(-0.00357023 -0.00200152 0)
(-0.00350107 -0.00199042 0)
(-0.00369413 -0.00209454 0)
(-0.00362355 -0.00208287 0)
(-0.00355371 -0.00207136 0)
(-0.00348456 -0.00205977 0)
(-0.00367856 -0.00216536 0)
(-0.00360787 -0.00215322 0)
(-0.00353799 -0.00214122 0)
(-0.00346888 -0.00212913 0)
(-0.00366373 -0.0022362 0)
(-0.00359291 -0.00222357 0)
(-0.003523 -0.00221109 0)
(-0.00345398 -0.00219849 0)
(-0.00364977 -0.00230705 0)
(-0.0035788 -0.00229391 0)
(-0.00350888 -0.00228091 0)
(-0.00344 -0.0022678 0)
)
;

boundaryField
{
    plateFix
    {
        type            calculated;
        value           uniform (0 0 0);
    }
    plate
    {
        type            calculated;
        value           nonuniform List<vector> 
168
(
(-0.000128216 -7.25992e-05 -7.07005e-24)
(-0.000132319 7.49393e-05 -4.4948e-23)
(-0.000114666 -0.000116544 -8.93025e-24)
(-0.000119315 0.000120238 6.65331e-23)
(-0.000109537 -0.000150168 -3.97064e-23)
(-0.000115111 0.000155187 -1.48156e-23)
(-0.000114079 -0.000173205 3.84885e-23)
(-0.000120859 0.000179571 -2.33058e-23)
(-0.000127604 -0.000189036 -2.1955e-24)
(-0.000135805 0.000196903 -3.14356e-24)
(-0.000148147 -0.000199227 6.52134e-24)
(-0.000157917 0.00020883 4.0792e-23)
(-0.000174607 -0.000205417 3.19824e-23)
(-0.00018605 0.000217075 -2.37779e-23)
(-0.000206103 -0.000208651 -3.35932e-23)
(-0.000219288 0.000222756 2.96048e-24)
(-0.000242142 -0.00020977 1.77279e-23)
(-0.000257113 0.000226781 1.03374e-23)
(-0.000282415 -0.000209357 -2.33399e-23)
(-0.000299196 0.0002298 1.47405e-23)
(-0.00032678 -0.000207835 7.57769e-24)
(-0.000345374 0.000232305 -1.5603e-23)
(-0.000375193 -0.000205489 -1.43205e-23)
(-0.000395585 0.00023465 -1.68108e-23)
(-0.000427698 -0.000202497 2.4923e-23)
(-0.00044985 0.000237082 6.7503e-24)
(-0.000484399 -0.000198953 -1.48605e-23)
(-0.00050825 0.000239766 4.17116e-24)
(-0.000545455 -0.000194888 3.73767e-24)
(-0.000570914 0.000242802 1.31426e-23)
(-0.000611069 -0.000190286 -7.22842e-24)
(-0.000638008 0.000246238 -2.41817e-23)
(-0.000681477 -0.000185109 3.92432e-24)
(-0.000709731 0.00025009 -8.07772e-24)
(-0.000756947 -0.000179308 4.09313e-23)
(-0.000786303 0.000254352 -6.37859e-24)
(-0.000837769 -0.000172843 -3.08025e-23)
(-0.000867961 0.000259002 2.23536e-23)
(-0.000924251 -0.000165695 -1.10747e-23)
(-0.000954952 0.000264011 -3.18786e-24)
(-0.00101672 -0.000157875 2.20506e-23)
(-0.00104753 0.00026934 -2.23412e-23)
(-0.00111551 -0.000149435 -3.34132e-23)
(-0.00114596 0.000274935 3.83058e-24)
(-0.00122501 -0.000140126 1.80829e-23)
(-0.00125449 0.000280935 2.13734e-23)
(-0.00134153 -0.000130438 -2.2363e-23)
(-0.00136934 0.000286928 7.68217e-24)
(-0.00145728 -0.000121221 2.31106e-23)
(-0.0014828 0.000292368 -6.78884e-24)
(-0.00157222 -0.000112626 -2.4733e-23)
(-0.00159483 0.000297097 3.79743e-24)
(-0.00168626 -0.000104793 2.15207e-23)
(-0.00170537 0.000300956 -1.71967e-23)
(-0.00179932 -9.78458e-05 -1.73002e-24)
(-0.00181436 0.000303777 2.2641e-23)
(-0.0019113 -9.18984e-05 4.14394e-24)
(-0.00192172 0.000305397 -2.1413e-23)
(-0.00202208 -8.70606e-05 3.21395e-24)
(-0.00202734 0.00030565 1.57834e-23)
(-0.00213154 -8.3439e-05 1.02085e-23)
(-0.00213111 0.000304375 -8.37306e-24)
(-0.00223951 -8.11395e-05 -1.45482e-23)
(-0.00223288 0.000301418 -6.89206e-24)
(-0.00234584 -8.02686e-05 1.5096e-23)
(-0.00233251 0.000296629 -3.07874e-24)
(-0.00245035 -8.09338e-05 -1.40312e-23)
(-0.00242984 0.000289863 3.63708e-24)
(-0.00255286 -8.32432e-05 9.15748e-24)
(-0.0025247 0.000280985 6.02606e-24)
(-0.00265316 -8.73053e-05 -2.22873e-24)
(-0.00261692 0.000269865 6.06646e-24)
(-0.00275107 -9.32265e-05 6.03953e-24)
(-0.00270632 0.000256384 2.67707e-24)
(-0.00284636 -0.00010111 -1.47185e-23)
(-0.00279274 0.000240434 1.11524e-24)
(-0.00293884 -0.000111052 -6.8198e-24)
(-0.002876 0.000221922 -2.08859e-25)
(-0.00302829 -0.000123141 1.04418e-23)
(-0.00295596 0.000200769 -1.28556e-24)
(-0.00311451 -0.000137454 -1.75995e-23)
(-0.00303245 0.000176915 1.46552e-26)
(-0.00319729 -0.000154055 1.68461e-23)
(-0.00310535 0.000150319 1.272e-23)
(-0.00327644 -0.000172992 3.68417e-24)
(-0.00317451 0.000120961 -9.16341e-24)
(-0.00335178 -0.000194299 -6.92397e-25)
(-0.00323983 8.88438e-05 -7.43908e-24)
(-0.00342314 -0.000217995 -7.1128e-24)
(-0.0033012 5.39883e-05 7.51868e-24)
(-0.00349037 -0.000244082 -1.18785e-23)
(-0.00335854 1.64366e-05 1.08497e-25)
(-0.00355335 -0.000272551 1.46704e-23)
(-0.00341176 -2.37523e-05 2.60469e-24)
(-0.00361197 -0.000303383 -6.85373e-24)
(-0.0034608 -6.65045e-05 7.14603e-24)
(-0.00366615 -0.000336548 7.17057e-24)
(-0.00350563 -0.000111734 -1.4114e-23)
(-0.00371583 -0.000372013 -4.63165e-24)
(-0.00354621 -0.000159346 1.16365e-23)
(-0.00376099 -0.000409738 -1.66149e-24)
(-0.00358254 -0.000209239 -8.46714e-24)
(-0.00380162 -0.000449681 -1.62835e-24)
(-0.00361463 -0.000261307 -5.32643e-24)
(-0.00383775 -0.0004918 -4.19627e-24)
(-0.00364253 -0.000315442 2.75693e-24)
(-0.00386941 -0.000536047 6.50499e-24)
(-0.00366628 -0.00037153 6.49642e-24)
(-0.00389667 -0.000582374 6.22828e-24)
(-0.00368598 -0.000429457 -1.97187e-24)
(-0.00391963 -0.000630725 3.35777e-24)
(-0.00370173 -0.000489105 5.52643e-24)
(-0.0039384 -0.000681042 -6.28116e-24)
(-0.00371367 -0.00055035 -1.10848e-23)
(-0.00395311 -0.000733254 -5.30886e-24)
(-0.00372196 -0.000613064 8.7717e-24)
(-0.00396392 -0.000787284 4.23808e-24)
(-0.00372678 -0.000677111 -2.79655e-24)
(-0.003971 -0.000843045 2.80251e-24)
(-0.00372833 -0.00074235 -6.83149e-25)
(-0.00397455 -0.00090044 -1.94587e-24)
(-0.00372681 -0.000808637 -2.65819e-24)
(-0.00397478 -0.000959364 -2.50858e-24)
(-0.00372247 -0.000875823 8.50884e-25)
(-0.00397194 -0.00101971 1.12209e-23)
(-0.00371553 -0.00094376 6.44494e-25)
(-0.00396628 -0.00108135 -4.78396e-24)
(-0.00370625 -0.0010123 -2.5565e-24)
(-0.00395806 -0.00114419 4.90005e-24)
(-0.00369486 -0.00108131 7.37134e-25)
(-0.00394758 -0.00120811 -1.63805e-24)
(-0.00368164 -0.00115066 2.10887e-24)
(-0.00393511 -0.00127301 3.65971e-24)
(-0.00366682 -0.00122024 -1.62732e-24)
(-0.00392096 -0.00133878 -2.61105e-24)
(-0.00365066 -0.00128995 2.93857e-24)
(-0.00390542 -0.00140536 4.0066e-25)
(-0.00363342 -0.00135972 -3.47932e-24)
(-0.00388877 -0.00147266 -2.01073e-24)
(-0.00361532 -0.00142948 1.39368e-24)
(-0.00387131 -0.00154061 7.52464e-25)
(-0.00359663 -0.00149919 2.46488e-24)
(-0.0038533 -0.00160915 4.62152e-24)
(-0.00357756 -0.00156883 3.55042e-25)
(-0.00383498 -0.00167822 -2.75077e-24)
(-0.00355835 -0.00163837 3.05712e-24)
(-0.00381658 -0.00174777 5.68075e-25)
(-0.00353919 -0.00170781 -5.22261e-25)
(-0.00379831 -0.00181774 1.6526e-24)
(-0.00352027 -0.00177716 3.75467e-24)
(-0.00378034 -0.00188806 -1.1147e-24)
(-0.00350178 -0.00184642 1.46773e-24)
(-0.00376283 -0.00195868 1.95134e-24)
(-0.00348385 -0.00191561 2.41616e-25)
(-0.0037459 -0.00202952 2.0936e-24)
(-0.00346659 -0.00198474 -1.40029e-26)
(-0.00372962 -0.00210051 -3.30418e-24)
(-0.00345009 -0.00205385 -2.82861e-24)
(-0.00371408 -0.00217155 9.21468e-25)
(-0.00343442 -0.00212297 -4.46993e-24)
(-0.00369927 -0.00224263 -4.60322e-24)
(-0.00341956 -0.00219207 2.5338e-24)
(-0.00368544 -0.00231367 6.14853e-25)
(-0.00364303 -0.00234266 -2.02248e-24)
(-0.00357197 -0.00232915 1.83652e-24)
(-0.00350204 -0.0023157 -4.08177e-24)
(-0.00343325 -0.00230221 -7.15703e-26)
(-0.00340574 -0.00226118 2.1133e-25)
)
;
    }
    frontAndBackPlanes
    {
        type            empty;
    }
}


// ************************************************************************* //
