/*--------------------------------*- C++ -*----------------------------------*\
| =========                 |                                                 |
| \\      /  F ield         | OpenFOAM Extend Project: Open source CFD        |
|  \\    /   O peration     | Version:  1.6-ext                               |
|   \\  /    A nd           | Web:      www.extend-project.de                 |
|    \\/     M anipulation  |                                                 |
\*---------------------------------------------------------------------------*/
FoamFile
{
    version     2.0;
    format      ascii;
    class       volVectorField;
    location    "4.1";
    object      U;
}
// * * * * * * * * * * * * * * * * * * * * * * * * * * * * * * * * * * * * * //

dimensions      [0 1 -1 0 0 0 0];

internalField   nonuniform List<vector> 
70
(
(0.184948 0.0440572 0)
(0.498716 0.0816675 0)
(0.597176 0.0993113 0)
(0.584604 0.074338 0)
(0.523143 0.0416783 0)
(0.409471 0.013258 0)
(0.194005 -0.000325123 0)
(0.186826 -0.00643445 0)
(0.208067 -0.0163913 0)
(0.245934 -0.031913 0)
(0.28561 -0.0555997 0)
(0.320908 -0.0853553 0)
(0.351054 -0.117824 0)
(0.369495 -0.146203 0)
(0.385055 -0.169726 0)
(0.381956 -0.173884 0)
(0.464851 0.0178055 0)
(0.447475 -0.0213887 0)
(0.447674 -0.0511743 0)
(0.458025 -0.0787344 0)
(0.469254 -0.106105 0)
(0.479414 -0.132772 0)
(0.478162 -0.153516 0)
(0.479043 -0.169444 0)
(0.453197 -0.165262 0)
(0.593493 0.0406499 0)
(0.584419 -0.00584805 0)
(0.577553 -0.0432747 0)
(0.573295 -0.0750905 0)
(0.566644 -0.102686 0)
(0.558192 -0.12589 0)
(0.538009 -0.141394 0)
(0.523031 -0.150871 0)
(0.476518 -0.141696 0)
(0.602332 0.0302243 0)
(0.607467 -0.00819051 0)
(0.605265 -0.0404022 0)
(0.597153 -0.0673893 0)
(0.581439 -0.089506 0)
(0.560351 -0.106002 0)
(0.527325 -0.115271 0)
(0.499069 -0.118009 0)
(0.440069 -0.107196 0)
(0.546227 0.0130907 0)
(0.555075 -0.0129691 0)
(0.552132 -0.0353117 0)
(0.538988 -0.0533821 0)
(0.515744 -0.0668692 0)
(0.484845 -0.0750193 0)
(0.444259 -0.0778042 0)
(0.407116 -0.0752903 0)
(0.347052 -0.0669844 0)
(0.425146 -0.00139587 0)
(0.427395 -0.0143145 0)
(0.417488 -0.0243398 0)
(0.397245 -0.0311104 0)
(0.368397 -0.0347103 0)
(0.33381 -0.0352534 0)
(0.295015 -0.0337569 0)
(0.259796 -0.0307164 0)
(0.212586 -0.0287324 0)
(0.19633 -0.00396179 0)
(0.190145 -0.00648404 0)
(0.17746 -0.00772431 0)
(0.160463 -0.00784125 0)
(0.141134 -0.00719329 0)
(0.121333 -0.00616395 0)
(0.102195 -0.0053337 0)
(0.0855263 -0.00495514 0)
(0.0627733 -0.00594542 0)
)
;

boundaryField
{
    inlet
    {
        type            fixedValue;
        value           nonuniform 0();
    }
    outlet
    {
        type            zeroGradient;
    }
    fixedWalls
    {
        type            fixedValue;
        value           uniform (0 0 0);
    }
    frontAndBack
    {
        type            empty;
    }
    procBoundary1to2
    {
        type            processor;
        value           nonuniform List<vector> 7((0.354877 0.166962 0) (0.544862 0.177952 0) (0.576578 0.167076 0) (0.543437 0.117568 0) (0.482972 0.0672808 0) (0.380318 0.0263877 0) (0.182586 0.00364278 0));
    }
    procBoundary1to0
    {
        type            processor;
        value           nonuniform List<vector> 9((0.027506 0.0293098 0) (0.0528553 0.0380733 0) (0.104022 0.022103 0) (0.148142 -0.00769429 0) (0.187295 -0.0456476 0) (0.222097 -0.0865921 0) (0.249096 -0.123974 0) (0.271806 -0.155422 0) (0.286182 -0.168291 0));
    }
}


// ************************************************************************* //
