/*--------------------------------*- C++ -*----------------------------------*\
| =========                 |                                                 |
| \\      /  F ield         | OpenFOAM Extend Project: Open source CFD        |
|  \\    /   O peration     | Version:  1.6-ext                               |
|   \\  /    A nd           | Web:      www.extend-project.de                 |
|    \\/     M anipulation  |                                                 |
\*---------------------------------------------------------------------------*/
FoamFile
{
    version     2.0;
    format      ascii;
    class       volSymmTensorField;
    location    "0.2";
    object      DSigma;
}
// * * * * * * * * * * * * * * * * * * * * * * * * * * * * * * * * * * * * * //

dimensions      [1 -1 -2 0 0 0 0];

internalField   nonuniform List<symmTensor> 
328
(
(0.0277761 0.00243632 -1.56689e-25 0.0151207 3.83451e-22 0.0171587)
(0.0238815 0.0019426 3.15306e-27 0.0150985 1.00701e-27 0.015592)
(0.0227543 0.000700475 -3.15301e-27 0.0146741 -1.007e-27 0.0149714)
(0.0207925 -0.000378895 9.9279e-27 0.0126312 2.46117e-22 0.0133695)
(0.0268835 0.00184251 1.63556e-25 0.0136508 -1.53946e-22 0.0162137)
(0.0238791 0.00193939 4.7859e-26 0.0138338 3.30401e-26 0.0150851)
(0.0227857 0.000917318 -2.35804e-25 0.0138305 -4.45904e-26 0.0146465)
(0.0206882 -6.95553e-05 4.89437e-26 0.0120112 -3.74288e-22 0.0130798)
(0.0264473 0.00135612 3.1589e-25 0.0127857 -9.25788e-23 0.0156932)
(0.0242489 0.0018859 5.58851e-25 0.0131552 2.58488e-25 0.0149616)
(0.0231032 0.00111068 7.38306e-25 0.0133166 1.79967e-25 0.014568)
(0.0208857 0.000212705 3.75882e-26 0.0116743 -3.99803e-22 0.013024)
(0.0259388 0.00100308 -1.95331e-24 0.0121946 3.64996e-22 0.0152534)
(0.0243005 0.00179124 -6.08587e-25 0.0125548 -2.93081e-25 0.0147421)
(0.0232429 0.00127466 2.46112e-25 0.0128301 8.49691e-26 0.0144292)
(0.0210911 0.00042827 1.71432e-25 0.01146 9.1278e-22 0.0130205)
(0.0255323 0.000760674 4.31242e-24 0.0118531 -5.71911e-22 0.0149541)
(0.0243666 0.00168553 1.97899e-24 0.0121898 9.27197e-25 0.0146226)
(0.0234128 0.00139644 -7.96344e-25 0.0124935 -2.21795e-25 0.0143625)
(0.021401 0.000579561 -1.00216e-24 0.0113733 -5.703e-22 0.0131097)
(0.0251395 0.000595763 3.01648e-24 0.0116558 8.15422e-22 0.0147181)
(0.0243393 0.00158548 -4.02841e-24 0.0119391 -1.89186e-24 0.0145114)
(0.0235374 0.00147948 -2.23872e-24 0.0122392 -7.24401e-25 0.0143106)
(0.0217637 0.00068145 7.14016e-25 0.0113654 -3.63438e-22 0.0132516)
(0.0247756 0.000485718 1.37426e-24 0.0115626 -8.86081e-23 0.0145353)
(0.024295 0.00149924 7.41366e-24 0.0118105 3.47356e-24 0.0144422)
(0.0236651 0.00152546 2.08738e-24 0.0120789 6.75429e-25 0.0142976)
(0.0221861 0.000744671 -9.12888e-27 0.0114216 -3.38337e-22 0.0134431)
(0.0244213 0.000412645 -5.76588e-24 0.0115365 -4.00671e-22 0.0143831)
(0.024227 0.001428 -4.7871e-24 0.0117666 -2.27108e-24 0.0143974)
(0.0237913 0.00154051 -6.40851e-24 0.0119906 -2.31996e-24 0.0143128)
(0.0226552 0.000778878 5.31766e-26 0.0115254 1.86437e-22 0.0136723)
(0.0240754 0.000364822 7.25639e-27 0.0115592 1.5665e-22 0.0142539)
(0.0241599 0.00136975 0 0.0117971 0 0.0143828)
(0.023934 0.00153018 5.36205e-24 0.0119678 1.94303e-24 0.0143607)
(0.023169 0.000790828 4.10096e-26 0.0116693 8.57444e-22 0.0139353)
(0.0237346 0.000334306 -2.14456e-26 0.0116196 -4.00535e-22 0.0141417)
(0.0241021 0.00132066 0 0.011887 0 0.0143956)
(0.0241003 0.00150015 0 0.0119999 0 0.0144401)
(0.0237244 0.00078534 6.63235e-25 0.0118485 -4.42038e-22 0.0142292)
(0.0234018 0.000316736 -1.64092e-23 0.0117133 7.89836e-22 0.0140461)
(0.0240668 0.00127688 0 0.0120287 0 0.0144382)
(0.0243012 0.0014549 0 0.0120805 0 0.0145527)
(0.0243229 0.000764969 -1.66317e-26 0.0120619 -2.39923e-22 0.0145539)
(0.023083 0.000310405 1.53456e-23 0.0118391 1.61344e-24 0.0139688)
(0.0240641 0.00123514 0 0.0122157 0 0.0145119)
(0.0245455 0.00139765 1.58542e-23 0.0122045 6.30659e-24 0.0147)
(0.0249682 0.00073029 -1.52267e-23 0.0123096 -1.92632e-22 0.0149111)
(0.0227889 0.000315866 2.00256e-23 0.0119977 -6.11675e-22 0.0139146)
(0.0241055 0.0011933 -1.72151e-23 0.0124442 -7.70075e-24 0.0146198)
(0.0248434 0.0013302 -1.47824e-23 0.0123682 -5.88025e-24 0.0148846)
(0.0256676 0.000680059 1.42196e-23 0.0125926 3.9562e-22 0.0153041)
(0.0225347 0.000335299 1.80756e-24 0.0121892 4.66483e-22 0.0138896)
(0.0242034 0.00115031 1.60513e-23 0.0127104 7.18015e-24 0.0147655)
(0.0252055 0.00125312 -4.12131e-24 0.0125684 -1.50474e-24 0.0151096)
(0.0264317 0.000611617 4.06825e-24 0.0129108 -4.97054e-22 0.015737)
(0.0223407 0.000371882 -1.72113e-23 0.0124121 -4.35494e-22 0.0139011)
(0.024373 0.00110612 4.4125e-24 0.01301 1.80105e-24 0.0149532)
(0.0256454 0.001166 -4.41248e-24 0.0128007 -1.80104e-24 0.0153784)
(0.0272747 0.000521457 -1.81721e-23 0.0132617 2.39206e-21 0.0162146)
(0.0222322 0.000428948 1.02834e-23 0.0126605 1.63936e-21 0.0139571)
(0.0246329 0.00106127 -1.01373e-23 0.0133351 -3.86947e-24 0.0151872)
(0.0261792 0.00106788 -1.9514e-23 0.0130578 -6.99307e-24 0.0156948)
(0.0282141 0.000406008 7.88717e-24 0.0136386 -2.36002e-21 0.0167411)
(0.0222396 0.000508988 3.07696e-23 0.012923 -1.52246e-22 0.014065)
(0.0250059 0.00101654 -3.13915e-23 0.0136733 -1.16804e-23 0.0154717)
(0.0268272 0.000957736 1.81948e-23 0.0133276 6.52032e-24 0.0160619)
(0.0292711 0.000262653 7.5454e-26 0.0140283 4.96223e-22 0.0173198)
(0.0223978 0.000612457 -7.68388e-23 0.0131797 -1.15972e-21 0.014231)
(0.0255194 0.000972435 3.72699e-23 0.0140049 1.40985e-23 0.0158097)
(0.0276136 0.000834948 0 0.0135909 0 0.0164818)
(0.030469 9.09378e-05 -4.36596e-23 0.0144092 -2.76661e-23 0.0179513)
(0.0227463 0.000736717 5.7153e-23 0.013403 2.84449e-23 0.0144597)
(0.0262059 0.000928856 7.59463e-25 0.0143027 -5.5023e-25 0.0162034)
(0.0285672 0.000699876 2.38169e-23 0.013821 5.16779e-24 0.0169553)
(0.0318334 -0.00010633 1.91171e-23 0.0147513 8.12168e-22 0.0186339)
(0.0233236 0.000874941 -6.60885e-25 0.0135549 -3.5512e-21 0.0147514)
(0.027099 0.000884664 0 0.0145297 0 0.0166515)
(0.0297173 0.000554264 -6.38267e-23 0.0139818 -1.52473e-23 0.0174797)
(0.033387 -0.000321949 7.07469e-23 0.0150144 -1.689e-21 0.0193606)
(0.0241742 0.00101639 2.03823e-23 0.0135956 -2.43384e-21 0.0151079)
(0.0282393 0.000837839 1.35972e-24 0.0146468 -6.31227e-25 0.0171544)
(0.0310995 0.000401561 -4.58004e-23 0.0140351 -8.05765e-24 0.0180538)
(0.0351549 -0.000544487 -2.11425e-23 0.0151556 3.10999e-21 0.0201242)
(0.0253203 0.00114506 -4.19745e-23 0.013475 4.70258e-21 0.0155181)
(0.0296512 0.000784708 4.30555e-23 0.014604 7.95336e-24 0.0177021)
(0.0327338 0.000246677 4.96574e-23 0.0139323 4.27669e-24 0.0186664)
(0.0371425 -0.000757295 -4.78413e-23 0.015123 -1.67935e-21 0.0209062)
(0.0268791 0.00125397 1.62306e-24 0.0131678 4.53801e-21 0.0160187)
(0.0314556 0.000718666 4.17118e-23 0.0143738 4.57503e-24 0.0183318)
(0.0347397 8.84735e-05 4.91327e-23 0.013644 6.33719e-25 0.0193535)
(0.0394612 -0.000957078 -9.66103e-23 0.0148877 3.76955e-23 0.0217396)
(0.0288059 0.00132935 -3.72428e-23 0.0126171 5.7957e-22 0.0165692)
(0.0335916 0.00064526 -1.516e-22 0.0138962 2.98017e-24 0.0189951)
(0.0370431 -5.4032e-05 0 0.0131162 0 0.0200637)
(0.0420151 -0.00111924 -2.17639e-26 0.0143893 -7.23723e-23 0.0225618)
(0.0309891 0.00135283 -1.05852e-22 0.0119283 -7.41528e-22 0.017167)
(0.0359289 0.000562915 1.04728e-22 0.0132638 -4.12218e-24 0.0196771)
(0.0395003 -0.000172817 0 0.0124452 0 0.0207782)
(0.0446471 -0.00122325 -5.54467e-25 0.0137318 -1.70164e-21 0.0233516)
(0.0333645 0.0013318 1.05728e-22 0.0111384 3.1526e-22 0.0178012)
(0.0384092 0.00047341 1.31681e-22 0.0125165 -2.39397e-23 0.0203703)
(0.0420571 -0.000269288 -1.29599e-22 0.0116701 2.08687e-23 0.0214909)
(0.0473065 -0.00127683 1.45563e-22 0.0129536 1.34685e-21 0.024104)
(0.0359083 0.00127101 2.48652e-22 0.0103209 -3.25273e-21 0.0184917)
(0.0410057 0.000378452 -1.32741e-22 0.0117217 3.06572e-23 0.021091)
(0.04469 -0.000345359 -1.47164e-22 0.010858 3.50189e-23 0.0222192)
(0.0499821 -0.00128475 -1.79778e-22 0.012131 6.38192e-21 0.0248453)
(0.038578 0.00118205 -1.31022e-22 0.0095151 4.40397e-23 0.0192372)
(0.0436803 0.000281287 0 0.0109217 0 0.0218408)
(0.0473642 -0.000404837 -1.8541e-22 0.0100504 6.9467e-23 0.0229658)
(0.0526444 -0.001259 1.79618e-22 0.011305 -6.39463e-21 0.0255798)
(0.0413497 0.00107344 -1.23872e-24 0.00876249 -2.95337e-21 0.0200449)
(0.0464102 0.000184419 0 0.0101573 0 0.022627)
(0.0500602 -0.000450897 1.84239e-22 0.0092874 -6.4959e-23 0.023739)
(0.0552818 -0.00120843 2.45257e-22 0.0105189 -5.7652e-21 0.0263203)
(0.0441957 0.00095472 3.17363e-24 0.00808295 7.11961e-21 0.0209115)
(0.0491721 9.04948e-05 0 0.00945105 0 0.0234493)
(0.052758 -0.000486856 2.06888e-22 0.00859085 -9.00144e-23 0.0245395)
(0.0578783 -0.00114291 -4.76222e-22 0.00979393 1.06176e-20 0.0270689)
(0.047097 0.000832895 -2.08955e-22 0.00748993 -5.46302e-21 0.0218348)
(0.0519507 1.45341e-06 2.06534e-22 0.00881792 -9.9632e-23 0.0243074)
(0.055445 -0.000515169 -2.29936e-22 0.0079749 1.17916e-22 0.025368)
(0.0604264 -0.00106966 5.28329e-22 0.00914476 -6.05572e-21 0.0278284)
(0.0500353 0.00071386 3.31167e-25 0.00698585 6.66224e-22 0.0228084)
(0.0547321 -8.11216e-05 4.83976e-22 0.0082626 -2.66746e-22 0.0251979)
(0.0581105 -0.000537843 -2.54246e-22 0.00744341 1.43179e-22 0.0262216)
(0.0629186 -0.000994743 3.07814e-22 0.00857492 2.2207e-22 0.0285974)
(0.0529959 0.000601646 2.25187e-22 0.00656834 -3.11138e-23 0.0238257)
(0.0575062 -0.000156204 0 0.00778451 0 0.0261163)
(0.060747 -0.000556275 3.07905e-22 0.00699503 -1.86854e-22 0.0270968)
(0.0653512 -0.000922305 -6.17479e-22 0.0080831 -3.40492e-21 0.0293737)
(0.0559657 0.000498989 -2.78601e-22 0.00623077 -7.18394e-22 0.0248786)
(0.0602635 -0.00022317 5.84628e-22 0.00737875 -3.90163e-22 0.0270569)
(0.0633479 -0.00057148 0 0.00662409 0 0.0279888)
(0.0677214 -0.000855206 -3.64577e-22 0.0076637 5.01712e-21 0.030154)
(0.0589328 0.000407417 -3.97506e-25 0.00596483 -6.96527e-22 0.025959)
(0.062996 -0.000281759 -3.06524e-22 0.00703848 2.06556e-22 0.0280138)
(0.0659077 -0.000584114 0 0.00632302 0 0.0288923)
(0.0700273 -0.000795093 3.97992e-22 0.00730941 -2.95398e-21 0.0309347)
(0.0618857 0.00032759 2.55664e-24 0.00576142 4.30147e-21 0.0270588)
(0.0656956 -0.000331942 0 0.00675585 0 0.0289806)
(0.068421 -0.000594558 3.97871e-22 0.00608326 -2.97648e-22 0.0298017)
(0.0722669 -0.000742729 -4.29524e-22 0.00701207 5.98641e-21 0.0317116)
(0.0648132 0.000259524 7.24248e-22 0.00561164 2.67428e-22 0.0281699)
(0.0683544 -0.000373806 -7.94892e-22 0.00652301 5.95592e-22 0.0299509)
(0.0708822 -0.000602923 -2.06901e-24 0.00589628 -1.51509e-23 0.0307114)
(0.0744383 -0.000698174 -7.10829e-23 0.00676367 -4.20442e-21 0.0324808)
(0.0677038 0.000202817 -7.2448e-22 0.00550711 -5.99582e-22 0.0292844)
(0.0709638 -0.000407452 -2.27855e-24 0.00633256 -1.61824e-23 0.0309185)
(0.0732851 -0.000609066 1.79246e-21 0.00575398 -1.37673e-21 0.0316156)
(0.076539 -0.00066097 -1.00206e-21 0.00655669 3.7468e-21 0.0332383)
(0.0705454 0.000156818 7.08059e-23 0.00544022 -3.91179e-21 0.0303943)
(0.0735148 -0.00043292 -1.71291e-21 0.00617777 1.38317e-21 0.031877)
(0.0756232 -0.000612607 0 0.00564897 0 0.0325089)
(0.078566 -0.000630291 -1.02148e-25 0.00638447 -1.55035e-22 0.0339802)
(0.0733249 0.000120743 1.76657e-21 0.00540413 -2.76047e-21 0.0314916)
(0.0759977 -0.000450169 0 0.00605271 0 0.0328202)
(0.0778893 -0.000612977 -1.07525e-21 0.00557466 8.63882e-22 0.0333856)
(0.0805156 -0.000605072 -8.00152e-23 0.00624117 -2.71526e-21 0.0347027)
(0.0760281 9.3756e-05 -9.20983e-22 0.00539274 -3.87388e-22 0.0325683)
(0.0784018 -0.000459108 0 0.00595225 0 0.0337416)
(0.0800753 -0.0006095 0 0.00552521 0 0.0342402)
(0.082384 -0.000584128 6.05342e-25 0.00612189 8.6162e-22 0.0354024)
(0.0786398 7.4996e-05 6.78785e-24 0.00540062 9.3303e-21 0.0336162)
(0.0807159 -0.000459663 0 0.00587197 0 0.0346352)
(0.082173 -0.000601503 0 0.00549553 0 0.0350674)
(0.0841669 -0.000566261 -1.3036e-21 0.00602253 5.63406e-21 0.0360758)
(0.0811438 6.35899e-05 -1.14686e-21 0.00542289 -5.20428e-21 0.0346267)
(0.082928 -0.000451869 -8.10777e-23 0.00580813 4.84502e-23 0.0354944)
(0.0841733 -0.000588434 -8.0594e-23 0.00548118 6.68409e-23 0.0358618)
(0.0858596 -0.000550353 1.30398e-21 0.00593978 -5.00436e-21 0.0367197)
(0.0835231 5.86437e-05 -1.2166e-21 0.00545526 3.65613e-21 0.0355914)
(0.0850255 -0.000435967 0 0.00575758 0 0.0363132)
(0.0860669 -0.000569978 1.30386e-21 0.00547834 -1.12789e-21 0.0366181)
(0.087457 -0.000535445 -1.47228e-21 0.00587097 -3.25579e-21 0.0373312)
(0.0857604 5.92332e-05 1.21278e-21 0.00549392 -8.44354e-21 0.0365017)
(0.0869956 -0.000412466 0 0.00571771 0 0.0370853)
(0.0878437 -0.000546137 -1.46693e-21 0.00548373 1.29919e-21 0.037331)
(0.0889537 -0.000520789 -8.27475e-23 0.00581399 7.55089e-22 0.0379071)
(0.0878385 6.44006e-05 2.06516e-24 0.00553562 2.55741e-21 0.0373497)
(0.0888253 -0.000382182 3.06173e-25 0.00568634 1.66584e-23 0.0378047)
(0.0894936 -0.000517273 -1.55059e-21 0.00549459 1.38599e-21 0.0379953)
(0.0903436 -0.000505871 1.46939e-21 0.00576718 2.92807e-21 0.0384443)
(0.0897407 7.31619e-05 1.4696e-21 0.00557763 3.65047e-21 0.0381274)
(0.0905015 -0.00034622 1.46589e-21 0.00566172 -1.33273e-21 0.0384653)
(0.0910061 -0.000484095 0 0.00550864 0 0.0386059)
(0.0916195 -0.00049041 1.72022e-21 0.0057292 -4.82191e-21 0.0389395)
(0.0914513 8.45271e-05 -3.01935e-21 0.00561774 -8.51533e-22 0.0388276)
(0.0920114 -0.000305921 -8.57657e-23 0.00564242 5.45463e-23 0.0390615)
(0.0923704 -0.000447603 -8.66612e-23 0.00552403 7.12798e-23 0.0391578)
(0.0927736 -0.000474335 1.81303e-21 0.00569899 2.24963e-21 0.039389)
(0.0929559 9.75291e-05 3.19011e-21 0.00565428 -1.48822e-21 0.0394441)
(0.0933428 -0.000262772 8.61724e-23 0.0056273 -5.54309e-23 0.039588)
(0.0935754 -0.000409001 -5.88302e-25 0.00553933 1.60824e-23 0.0396459)
(0.0937967 -0.000457735 -1.81298e-21 0.00567561 -2.10325e-21 0.0397889)
(0.0942415 0.000111259 -4.65997e-24 0.00568608 -5.29712e-21 0.039971)
(0.0944836 -0.000218305 -1.42485e-24 0.00561547 1.54385e-23 0.0400396)
(0.0946101 -0.000369582 -1.81221e-21 0.00555346 1.66463e-21 0.0400654)
(0.0946789 -0.000440813 2.16437e-24 0.00565826 2.46541e-21 0.0401349)
(0.0952969 0.0001249 1.73119e-21 0.00571244 1.96295e-21 0.0404037)
(0.095423 -0.000173988 -8.79511e-23 0.00560623 7.20604e-23 0.0404117)
(0.0954634 -0.000330624 1.90158e-21 0.00556569 -1.75213e-21 0.0404117)
(0.0954091 -0.00042383 2.078e-21 0.00564619 -2.59723e-22 0.0404221)
(0.0961126 0.000137754 3.72575e-21 0.00573306 -2.52727e-21 0.0407383)
(0.0961504 -0.000131137 0 0.00559906 0 0.0406998)
(0.0961246 -0.00029329 0 0.00557557 0 0.0406801)
(0.0959754 -0.000407057 -4.24295e-21 0.00563868 2.08621e-21 0.0406457)
(0.0966807 0.000149261 -3.90373e-21 0.00574797 4.82017e-21 0.0409715)
(0.0966564 -9.08541e-05 0 0.00559357 0 0.0409)
(0.0965829 -0.000258563 -2.17127e-21 0.0055829 1.99921e-21 0.0408663)
(0.0963658 -0.000390742 -1.45995e-24 0.0056351 -1.57493e-21 0.0408004)
(0.0969946 0.000159006 -1.10291e-24 0.00575751 6.68163e-22 0.0411009)
(0.0969323 -5.3992e-05 2.40802e-24 0.00558948 -1.44817e-23 0.0410087)
(0.0968282 -0.000227203 4.34484e-21 0.00558771 -4.01307e-21 0.0409664)
(0.0965678 -0.000375088 -2.35244e-21 0.00563484 -2.2862e-21 0.0408811)
(0.0970495 0.000166712 -2.09234e-21 0.00576221 3.53806e-22 0.0411247)
(0.0969704 -2.11496e-05 -2.17598e-21 0.00558662 2.02834e-21 0.0410228)
(0.0968509 -0.000199743 2.35353e-21 0.0055902 -2.17291e-21 0.0409765)
(0.0965692 -0.000360244 4.79097e-21 0.00563735 2.3394e-21 0.0408826)
(0.0968414 0.00017223 -2.27333e-21 0.00576275 -3.08665e-23 0.0410416)
(0.0967639 7.30856e-06 4.71424e-21 0.00558489 -4.38902e-21 0.0409395)
(0.0966423 -0.000176503 -4.70681e-21 0.0055907 4.34583e-21 0.0408932)
(0.0963581 -0.000346305 4.97075e-21 0.00564216 -2.34301e-21 0.0408001)
(0.0963675 0.000175515 2.27189e-21 0.00575992 -1.46506e-21 0.040851)
(0.0963068 3.12179e-05 -2.35828e-21 0.00558426 2.20171e-21 0.0407564)
(0.0961942 -0.000157618 -4.97941e-21 0.00558965 4.60475e-21 0.0407135)
(0.0959235 -0.000333321 1.60704e-24 0.00564888 1.63329e-21 0.0406289)
(0.0956261 0.000176608 1.6281e-24 0.00575454 1.63334e-21 0.0405523)
(0.0955944 5.05741e-05 2.53879e-21 0.00558476 -2.37463e-21 0.0404717)
(0.0954996 -0.000143078 2.53495e-21 0.00558754 -2.34544e-21 0.0404349)
(0.095255 -0.000321307 -2.71213e-21 0.00565715 -2.08383e-22 0.0403649)
(0.0946166 0.000175616 2.54164e-21 0.00574746 -1.19494e-21 0.0401456)
(0.0946228 6.54966e-05 8.89511e-23 0.00558643 -8.63773e-23 0.0400837)
(0.0945525 -0.000132759 0 0.00558494 0 0.040055)
(0.0943437 -0.000310254 5.50844e-21 0.00566671 -1.78038e-21 0.0400042)
(0.093339 0.000172696 -7.71404e-21 0.00573954 2.43312e-21 0.0396314)
(0.0933891 7.62014e-05 5.0652e-25 0.00558936 -1.54683e-23 0.0395914)
(0.0933479 -0.000126452 0 0.00558238 0 0.0395721)
(0.0931817 -0.000300131 2.88579e-21 0.0056773 -2.4278e-21 0.0395436)
(0.0917944 0.000168046 2.20485e-26 0.00573159 2.14027e-23 0.0390104)
(0.0918916 8.29879e-05 -2.80195e-21 0.00559365 2.6179e-21 0.0389941)
(0.0918822 -0.000123866 2.80263e-21 0.00558041 -2.63334e-21 0.0389851)
(0.0917624 -0.000290893 2.97288e-21 0.00568874 -2.87564e-21 0.0389804)
(0.0899849 0.000161903 3.35096e-25 0.00572438 3.22223e-22 0.0382837)
(0.0901296 8.62366e-05 1.14278e-24 0.0055994 1.65614e-23 0.0382916)
(0.0901529 -0.000124637 -2.80284e-21 0.00557955 2.61848e-21 0.038293)
(0.0900808 -0.000282472 -2.97074e-21 0.00570083 3.60251e-21 0.0383126)
(0.0879132 0.000154542 -2.88418e-21 0.0057186 2.6528e-21 0.0374527)
(0.0881037 8.64154e-05 5.76813e-21 0.00560671 -5.47537e-21 0.0374842)
(0.0881589 -0.000128316 3.05368e-21 0.00558026 -2.87504e-21 0.0374957)
(0.0881334 -0.000274777 -3.14193e-21 0.0057134 -2.85433e-22 0.0375387)
(0.0855832 0.000146278 -1.57377e-24 0.00571488 -1.48824e-21 0.0365192)
(0.0858156 8.40848e-05 -9.07055e-21 0.00561568 8.5768e-21 0.0365725)
(0.0859003 -0.00013436 -2.2308e-24 0.00558296 -1.73063e-23 0.0365933)
(0.0859186 -0.000267686 3.13986e-21 0.00572633 -1.69608e-21 0.036658)
(0.0829991 0.000137464 3.04135e-21 0.0057137 5.64176e-23 0.0354851)
(0.083268 7.98942e-05 6.17605e-21 0.0056264 -5.87503e-21 0.0355577)
(0.0833789 -0.000142143 3.51968e-24 0.00558797 1.82328e-23 0.0355868)
(0.0834363 -0.000261046 -3.21701e-21 0.00573949 2.69075e-21 0.0356703)
(0.0801663 0.000128481 -6.15313e-21 0.00571545 3.98556e-21 0.0343527)
(0.0804649 7.45582e-05 8.13989e-23 0.00563894 -6.72216e-23 0.0344415)
(0.080598 -0.000150973 -3.28352e-21 0.00559556 3.13377e-21 0.0344774)
(0.0806887 -0.000254686 3.37366e-21 0.00575283 -1.60881e-21 0.0345766)
(0.0770906 0.000119724 3.1225e-21 0.00572033 -2.94974e-21 0.0331244)
(0.0774116 6.88095e-05 -3.19412e-21 0.00565338 3.08979e-21 0.033226)
(0.0775621 -0.000160142 6.65543e-21 0.00560591 -6.29466e-21 0.0332672)
(0.0776798 -0.000248433 1.56054e-22 0.00576636 8.8676e-22 0.0333784)
(0.0737787 0.000111567 3.17495e-21 0.0057284 -1.40663e-21 0.0318028)
(0.0741146 6.33269e-05 -3.43097e-21 0.00566973 3.287e-21 0.0319137)
(0.0742777 -0.000169001 3.35258e-21 0.00561913 -3.22157e-21 0.0319587)
(0.0744157 -0.000242142 -3.44751e-21 0.00578013 2.23679e-22 0.0320783)
(0.0702381 0.000104341 3.3981e-21 0.00573954 -1.70958e-21 0.030391)
(0.0705816 5.86549e-05 1.14583e-23 0.00568799 2.38713e-23 0.0305079)
(0.0707527 -0.000177042 0 0.00563523 0 0.0305552)
(0.0709047 -0.000235737 3.57982e-21 0.00579429 -2.51148e-21 0.0306796)
(0.0664772 9.82922e-05 3.36611e-21 0.00575349 -1.96229e-21 0.0288923)
(0.0668218 5.51262e-05 -3.48344e-21 0.00570809 3.39576e-21 0.029012)
(0.0669964 -0.000183973 3.48343e-21 0.00565414 -3.39575e-21 0.0290602)
(0.0671566 -0.00022923 -3.57985e-21 0.00580894 2.48635e-21 0.0291862)
(0.062506 9.35955e-05 -3.39746e-23 0.0057699 4.08772e-22 0.0273104)
(0.0628456 5.28351e-05 3.45423e-21 0.00572988 -3.44773e-21 0.0274302)
(0.0630199 -0.00018977 -1.39558e-23 0.00567571 -2.53288e-23 0.0274782)
(0.0631832 -0.000222772 7.33149e-21 0.00582421 -3.52488e-21 0.0276029)
(0.0583357 9.03343e-05 1.45703e-22 0.00578832 5.2233e-23 0.0256496)
(0.0586651 5.1658e-05 -7.09084e-21 0.00575312 7.13727e-21 0.0257673)
(0.0588354 -0.000194647 -3.59878e-21 0.0056997 3.57094e-21 0.0258141)
(0.0589971 -0.000216602 -3.6325e-21 0.00584008 2.05881e-21 0.0259349)
(0.0539791 8.86296e-05 -3.49171e-21 0.00580825 1.81704e-21 0.0239149)
(0.0542935 5.14059e-05 -4.93111e-23 0.00577729 8.94799e-23 0.0240283)
(0.0544565 -0.00019899 -6.78411e-23 0.00572562 5.82389e-23 0.0240729)
(0.0546122 -0.000211097 -1.72066e-23 0.00585635 -1.03068e-21 0.0241874)
(0.049451 8.86543e-05 2.99319e-26 0.00582933 2.70499e-23 0.0221121)
(0.0497464 5.19842e-05 3.63038e-21 0.00580217 -3.68859e-21 0.0222194)
(0.049899 -0.000203193 -3.76322e-21 0.00575325 3.80377e-21 0.0222609)
(0.0500436 -0.000206647 1.08388e-24 0.0058728 9.7892e-22 0.0223666)
(0.0447656 9.09724e-05 -3.65246e-21 0.00585026 2.00353e-21 0.0202463)
(0.0450383 5.38221e-05 -6.49789e-23 0.00582581 5.6873e-23 0.0203457)
(0.0451773 -0.00020766 3.76322e-21 0.00578061 -3.80377e-21 0.0203832)
(0.0453053 -0.000203806 -1.72913e-25 0.00588806 -1.55929e-22 0.0204774)
(0.0399427 9.64768e-05 -3.59696e-21 0.00587151 1.69896e-21 0.0183257)
(0.0401926 5.78956e-05 7.46631e-21 0.00584966 -7.82684e-21 0.0184169)
(0.0403149 -0.000212559 0 0.00580913 0 0.0184496)
(0.0404174 -0.00020315 -3.94903e-21 0.00590264 2.74335e-21 0.018528)
(0.0349868 0.000107577 3.62942e-21 0.0058868 -1.95958e-21 0.0163495)
(0.035216 6.69699e-05 -3.75088e-21 0.00586416 3.95852e-21 0.0164321)
(0.0353189 -0.000219001 -3.86989e-21 0.0058291 4.06467e-21 0.0164592)
(0.0353855 -0.00020637 -2.36539e-25 0.00591033 -2.12929e-22 0.0165183)
(0.029938 0.000126452 -1.13033e-25 0.00590258 -1.01658e-22 0.0143362)
(0.030169 8.34723e-05 0 0.00588569 0 0.0144219)
(0.0302506 -0.000227238 -2.57112e-23 0.00585666 8.71817e-23 0.0144429)
(0.0302528 -0.000214788 -3.98216e-21 0.005918 1.99728e-21 0.0144683)
(0.0247277 0.000161003 1.45004e-25 0.00588396 1.30333e-22 0.0122447)
(0.024985 0.000114729 3.5313e-23 0.00586117 3.99118e-23 0.0123385)
(0.0250448 -0.000242632 3.26901e-23 0.00583843 3.822e-23 0.0123533)
(0.0249569 -0.000235564 7.98458e-21 0.00589199 -4.29583e-21 0.0123396)
(0.0195573 0.0002022 -9.73199e-27 0.00589557 -8.75173e-24 0.0101811)
(0.0199556 0.000151903 3.82759e-21 0.00593779 -4.22998e-21 0.0103574)
(0.0199944 -0.000254725 3.96721e-21 0.00592047 -4.28636e-21 0.010366)
(0.0197056 -0.00025897 -1.19902e-20 0.00589615 6.48047e-21 0.0102407)
(0.0138834 0.000261809 -3.71032e-21 0.00577997 2.04976e-21 0.00786535)
(0.0144239 0.000196997 0 0.00583483 0 0.00810348)
(0.0144446 -0.000264538 0 0.00582153 0 0.00810646)
(0.013967 -0.000298192 -4.71374e-23 0.00577746 -9.32397e-24 0.00789779)
(0.00929479 0.000173157 -1.9351e-21 0.0061661 2.16193e-21 0.00618436)
(0.0101742 0.000142818 2.001e-21 0.00677396 -4.5006e-21 0.00677928)
(0.0101842 -0.000159921 -1.88141e-21 0.0067569 4.49776e-21 0.00677645)
(0.00934174 -0.000187196 -3.45829e-23 0.00615189 6.05703e-24 0.00619745)
)
;

boundaryField
{
    plateFix
    {
        type            calculated;
        value           nonuniform List<symmTensor> 4((0.0279748 0.00294335 -1.61487e-25 0.0152531 3.83451e-22 0.0172911) (0.0234242 0.0018647 3.15306e-27 0.0147936 1.00701e-27 0.0152871) (0.0224593 0.000568329 -3.15301e-27 0.0144774 -1.007e-27 0.0147747) (0.0207103 -0.00069179 6.66518e-27 0.0125764 2.46149e-22 0.0133147));
    }
    plate
    {
        type            calculated;
        value           nonuniform List<symmTensor> 
168
(
(0.0251328 -1.45128e-05 -2.75447e-25 0.011157 7.64713e-22 0.0145159)
(0.0199636 -2.27454e-05 8.70348e-27 0.011388 4.84709e-22 0.0125407)
(0.0251906 -3.27935e-05 2.63258e-25 0.011112 -3.08175e-22 0.014521)
(0.0202421 -1.7904e-06 6.30858e-26 0.0113421 -7.49188e-22 0.0126337)
(0.0253195 -6.35229e-05 3.89304e-25 0.0110944 -1.86627e-22 0.0145655)
(0.0206524 3.1462e-05 4.64759e-26 0.0113243 -7.9888e-22 0.0127907)
(0.025209 -9.86803e-05 -1.93765e-24 0.0111001 7.30921e-22 0.0145236)
(0.0210046 6.92386e-05 1.64027e-25 0.0113303 1.83439e-21 0.012934)
(0.0250469 -0.000133946 4.29152e-24 0.0111252 -1.14337e-21 0.0144688)
(0.0213896 0.000107085 -1.00766e-24 0.0113562 -1.14956e-21 0.0130983)
(0.024815 -0.000167288 3.045e-24 0.0111692 1.63448e-21 0.0143937)
(0.0217877 0.000142803 7.20253e-25 0.0114014 -7.26871e-22 0.0132756)
(0.0245553 -0.00019715 1.37097e-24 0.0112322 -1.78656e-22 0.014315)
(0.0222157 0.00017479 -1.82995e-26 0.0114662 -6.78222e-22 0.0134728)
(0.024274 -0.000222288 -5.78235e-24 0.0113156 -8.07235e-22 0.0142358)
(0.0226727 0.000201755 8.25077e-26 0.0115517 3.67568e-22 0.0136898)
(0.0239835 -0.000241436 1.46723e-26 0.0114215 3.16743e-22 0.014162)
(0.023163 0.000222415 8.23369e-26 0.0116605 1.72153e-21 0.0139294)
(0.0236905 -0.000252947 -4.28035e-26 0.0115535 -7.99432e-22 0.0140976)
(0.0236892 0.000235093 5.99874e-25 0.0117959 -8.87108e-22 0.014194)
(0.0234032 -0.000254504 -1.63597e-23 0.0117156 1.58989e-21 0.0140475)
(0.0242561 0.000237442 -3.30714e-26 0.0119619 -4.77075e-22 0.0144872)
(0.0231312 -0.000242994 1.53453e-23 0.0119117 -2.7948e-24 0.0140172)
(0.02487 0.000226302 -1.52419e-23 0.0121625 -3.80544e-22 0.014813)
(0.0228867 -0.000214542 2.0033e-23 0.0121447 -1.23599e-21 0.0140126)
(0.0255393 0.000197757 1.4256e-23 0.0124003 7.86344e-22 0.0151759)
(0.0226854 -0.00016475 1.85235e-24 0.0124154 9.47363e-22 0.0140403)
(0.0262751 0.000147374 4.01452e-24 0.0126761 -1.00244e-21 0.0155805)
(0.0225465 -8.91744e-05 -1.7258e-23 0.0127211 -8.77415e-22 0.014107)
(0.027091 7.06965e-05 -1.78823e-23 0.0129865 4.79712e-21 0.016031)
(0.022494 1.59269e-05 1.04768e-23 0.0130536 3.26483e-21 0.014219)
(0.0280036 -3.59984e-05 7.72124e-24 0.0133232 -4.74563e-21 0.0165307)
(0.0225561 0.000152579 3.07509e-23 0.013398 -2.91758e-22 0.0143816)
(0.0290324 -0.000174672 1.54078e-25 0.0136704 1.01329e-21 0.0170811)
(0.0227649 0.000319816 -7.70099e-23 0.0137306 -2.3032e-21 0.0145982)
(0.0301987 -0.000344245 -4.36626e-23 0.0140041 -4.5839e-23 0.0176811)
(0.0231573 0.00051266 5.71536e-23 0.0140196 3.20676e-23 0.0148707)
(0.0315265 -0.000539572 1.95132e-23 0.0142913 1.58417e-21 0.0183271)
(0.0237695 0.000720879 -1.32757e-24 0.0142239 -7.13359e-21 0.0151974)
(0.0330375 -0.000750231 7.04073e-23 0.0144906 -3.322e-21 0.0190112)
(0.0246444 0.000929861 1.98931e-23 0.0143011 -4.79801e-21 0.0155782)
(0.0347564 -0.000961402 -2.04579e-23 0.0145584 6.10109e-21 0.0197259)
(0.0258061 0.00111879 -4.09018e-23 0.0142037 9.37438e-21 0.0160039)
(0.0366917 -0.0011521 -4.78717e-23 0.0144473 -3.27685e-21 0.0204556)
(0.0273747 0.00128442 2.78053e-24 0.0139112 9.07303e-21 0.0165143)
(0.0389598 -0.00131937 -9.66008e-23 0.0141361 7.24386e-23 0.0212383)
(0.0293024 0.00140792 -3.70123e-23 0.0133617 1.1687e-21 0.0170656)
(0.0414639 -0.00144442 -4.37214e-26 0.0135628 -1.45388e-22 0.0220107)
(0.0314832 0.00146593 -1.06068e-22 0.0126693 -1.4395e-21 0.017661)
(0.0440563 -0.00150367 -1.08812e-24 0.0128461 -3.33939e-21 0.022761)
(0.0338525 0.00147029 1.05842e-22 0.0118701 6.50149e-22 0.018289)
(0.0466852 -0.0015094 1.46026e-22 0.0120222 2.66687e-21 0.023483)
(0.03639 0.00142602 2.47185e-22 0.0110433 -6.57554e-21 0.0189733)
(0.0493427 -0.00146665 -1.77406e-22 0.0111723 1.2701e-20 0.024206)
(0.0390526 0.00134718 -1.30751e-22 0.0102268 4.92878e-23 0.0197118)
(0.0519972 -0.00138977 1.77086e-22 0.0103344 -1.27262e-20 0.0249327)
(0.0418171 0.00124333 -2.42411e-24 0.00946327 -5.77959e-21 0.0205122)
(0.054637 -0.00128834 2.42704e-22 0.00955188 -1.14782e-20 0.0256756)
(0.0446552 0.0011256 6.3475e-24 0.00877172 1.42398e-20 0.0213708)
(0.0572447 -0.00117359 -4.71506e-22 0.00884346 2.11342e-20 0.0264352)
(0.0475476 0.00100212 -2.11614e-22 0.00816533 -1.11007e-20 0.0222852)
(0.0598114 -0.00105364 5.25592e-22 0.00822226 -1.19029e-20 0.0272135)
(0.0504756 0.000879866 6.47668e-25 0.00764594 1.30294e-21 0.0232486)
(0.0623286 -0.000935466 3.08013e-22 0.00768985 6.24351e-22 0.0280074)
(0.0534246 0.000763708 2.24979e-22 0.00721088 7.47882e-23 0.0242542)
(0.0647915 -0.000823884 -6.1944e-22 0.00724324 -7.17309e-21 0.0288139)
(0.056381 0.000657066 -2.79074e-22 0.00685326 -1.58371e-21 0.0252937)
(0.067196 -0.000722262 -3.62214e-22 0.00687529 9.75815e-21 0.0296285)
(0.059333 0.000561953 -7.75916e-25 0.00656469 -1.35959e-21 0.0263591)
(0.0695395 -0.000632548 3.96453e-22 0.00657731 -5.66626e-21 0.0304467)
(0.0622691 0.000479343 5.09108e-24 0.00633608 8.56558e-21 0.0274421)
(0.0718192 -0.000555652 -4.25845e-22 0.00633999 1.16962e-20 0.0312637)
(0.0651781 0.000409381 7.24752e-22 0.00615858 1.08301e-21 0.0285347)
(0.0740325 -0.000491655 -7.36861e-23 0.00615429 -8.44544e-21 0.0320747)
(0.0680487 0.000351627 -7.2521e-22 0.00602401 -1.73944e-21 0.0296291)
(0.0761763 -0.000440056 -1.00088e-21 0.00601187 6.729e-21 0.0328753)
(0.0708689 0.000305236 6.87423e-23 0.00592502 -7.75452e-21 0.0307176)
(0.078247 -0.000399951 -2.01979e-25 0.00590527 -3.06555e-22 0.0336609)
(0.0736259 0.000269113 1.7652e-21 0.00585515 -4.06435e-21 0.0317924)
(0.0802407 -0.000370193 -8.26423e-23 0.00582796 -5.4486e-21 0.0344275)
(0.0763058 0.000242036 -9.21789e-22 0.0058088 -1.52852e-21 0.0328459)
(0.0821529 -0.00034951 1.18632e-24 0.00577432 1.68856e-21 0.0351709)
(0.0788939 0.00022275 1.35968e-23 0.00578113 1.86896e-20 0.03387)
(0.0839788 -0.0003366 -1.30027e-21 0.00573956 1.02404e-20 0.0358873)
(0.0813742 0.000210032 -1.15153e-21 0.00576798 -1.14522e-20 0.0348569)
(0.0857133 -0.000330197 1.301e-21 0.00571959 -9.00728e-21 0.0365732)
(0.0837305 0.00020274 -1.21465e-21 0.00576584 6.20029e-21 0.0357986)
(0.0873509 -0.000329118 -1.47572e-21 0.00571101 -7.74735e-21 0.0372248)
(0.085946 0.000199844 1.20695e-21 0.00577169 -1.58376e-20 0.0366871)
(0.0888855 -0.00033229 -8.22486e-23 0.00571096 1.3905e-21 0.0378386)
(0.0880039 0.000200437 4.15178e-24 0.00578305 5.14139e-21 0.0375148)
(0.0903106 -0.000338768 1.47225e-21 0.00571706 7.15799e-21 0.0384111)
(0.0898879 0.00020374 1.47381e-21 0.00579786 8.73766e-21 0.0382743)
(0.0916187 -0.000347732 1.71798e-21 0.0057274 -8.10723e-21 0.0389384)
(0.0915828 0.000209096 -3.02246e-21 0.00581445 -4.53916e-21 0.0389589)
(0.0928015 -0.000358488 1.81629e-21 0.0057404 6.1161e-21 0.0394168)