/*--------------------------------*- C++ -*----------------------------------*\
| =========                 |                                                 |
| \\      /  F ield         | OpenFOAM Extend Project: Open source CFD        |
|  \\    /   O peration     | Version:  1.6-ext                               |
|   \\  /    A nd           | Web:      www.extend-project.de                 |
|    \\/     M anipulation  |                                                 |
\*---------------------------------------------------------------------------*/
FoamFile
{
    version     2.0;
    format      ascii;
    class       volVectorField;
    location    "0.2";
    object      DU;
}
// * * * * * * * * * * * * * * * * * * * * * * * * * * * * * * * * * * * * * //

dimensions      [0 1 0 0 0 0 0];

internalField   nonuniform List<vector> 
328
(
(5.34176e-10 5.52187e-10 0)
(4.06835e-10 1.9396e-10 0)
(3.84219e-10 5.86839e-11 0)
(3.69779e-10 -1.03324e-10 0)
(1.62754e-09 1.48645e-09 0)
(1.28159e-09 6.28234e-10 0)
(1.20089e-09 2.35079e-10 0)
(1.14182e-09 -1.87768e-10 0)
(2.8265e-09 2.2912e-09 0)
(2.298e-09 1.11944e-09 0)
(2.13411e-09 4.84746e-10 0)
(2.00497e-09 -1.31871e-10 0)
(4.1042e-09 3.0037e-09 0)
(3.42179e-09 1.65682e-09 0)
(3.16791e-09 8.1638e-10 0)
(2.95341e-09 5.77192e-11 0)
(5.46573e-09 3.66498e-09 0)
(4.66024e-09 2.2358e-09 0)
(4.31253e-09 1.23225e-09 0)
(3.99966e-09 3.66819e-10 0)
(6.90598e-09 4.30549e-09 0)
(6.00379e-09 2.85545e-09 0)
(5.56654e-09 1.73323e-09 0)
(5.15112e-09 7.84046e-10 0)
(8.42598e-09 4.94861e-09 0)
(7.45302e-09 3.51738e-09 0)
(6.93506e-09 2.31695e-09 0)
(6.41951e-09 1.29878e-09 0)
(1.00255e-08 5.61001e-09 0)
(9.0063e-09 4.22354e-09 0)
(8.42189e-09 2.97927e-09 0)
(7.81685e-09 1.90146e-09 0)
(1.17056e-08 6.29921e-09 0)
(1.06654e-08 4.97489e-09 0)
(1.00336e-08 3.71367e-09 0)
(9.35703e-09 2.58215e-09 0)
(1.34669e-08 7.01968e-09 0)
(1.24331e-08 5.76971e-09 0)
(1.17782e-08 4.51121e-09 0)
(1.10553e-08 3.3297e-09 0)
(1.53104e-08 7.76899e-09 0)
(1.43141e-08 6.6023e-09 0)
(1.3666e-08 5.35965e-09 0)
(1.29287e-08 4.13037e-09 0)
(1.72374e-08 8.53847e-09 0)
(1.63149e-08 7.46159e-09 0)
(1.57096e-08 6.24246e-09 0)
(1.49964e-08 4.96632e-09 0)
(1.92499e-08 9.31271e-09 0)
(1.84443e-08 8.3298e-09 0)
(1.79245e-08 7.13727e-09 0)
(1.72803e-08 5.81367e-09 0)
(2.13513e-08 1.00687e-08 0)
(2.07138e-08 9.18092e-09 0)
(2.03296e-08 8.01391e-09 0)
(1.98059e-08 6.64003e-09 0)
(2.35482e-08 1.07751e-08 0)
(2.31386e-08 9.9791e-09 0)
(2.2948e-08 8.83208e-09 0)
(2.26035e-08 7.40164e-09 0)
(2.58519e-08 1.13904e-08 0)
(2.57392e-08 1.06767e-08 0)
(2.58088e-08 9.53852e-09 0)
(2.57103e-08 8.03993e-09 0)
(2.82815e-08 1.1862e-08 0)
(2.85436e-08 1.12119e-08 0)
(2.89494e-08 1.00638e-08 0)
(2.91728e-08 8.47768e-09 0)
(3.08675e-08 1.21235e-08 0)
(3.15912e-08 1.1506e-08 0)
(3.24185e-08 1.03187e-08 0)
(3.30502e-08 8.61507e-09 0)
(3.36568e-08 1.20914e-08 0)
(3.49365e-08 1.14601e-08 0)
(3.62806e-08 1.01905e-08 0)
(3.74188e-08 8.32564e-09 0)
(3.67188e-08 1.16612e-08 0)
(3.86557e-08 1.09512e-08 0)
(4.06216e-08 9.539e-09 0)
(4.23769e-08 7.45287e-09 0)
(4.01507e-08 1.07015e-08 0)
(4.28522e-08 9.82735e-09 0)
(4.55542e-08 8.193e-09 0)
(4.80497e-08 5.80762e-09 0)
(4.40876e-08 9.0463e-09 0)
(4.76656e-08 7.90263e-09 0)
(5.12262e-08 5.94685e-09 0)
(5.45965e-08 3.16697e-09 0)
(4.88738e-08 6.38857e-09 0)
(5.34849e-08 4.83825e-09 0)
(5.80718e-08 2.42852e-09 0)
(6.24981e-08 -8.7349e-10 0)
(5.46249e-08 2.45194e-09 0)
(6.03975e-08 3.50427e-10 0)
(6.6152e-08 -2.64996e-09 0)
(7.17877e-08 -6.60034e-09 0)
(6.11258e-08 -2.66378e-09 0)
(6.81006e-08 -5.40843e-09 0)
(7.50745e-08 -9.08109e-09 0)
(8.19794e-08 -1.37458e-08 0)
(6.84637e-08 -9.02943e-09 0)
(7.667e-08 -1.24852e-08 0)
(8.48992e-08 -1.68885e-08 0)
(9.31131e-08 -2.23116e-08 0)
(7.67073e-08 -1.67036e-08 0)
(8.61619e-08 -2.09124e-08 0)
(9.56675e-08 -2.60795e-08 0)
(1.05214e-07 -3.22806e-08 0)
(8.58999e-08 -2.57228e-08 0)
(9.66087e-08 -3.07062e-08 0)
(1.07398e-07 -3.665e-08 0)
(1.18283e-07 -4.36303e-08 0)
(9.60691e-08 -3.61058e-08 0)
(1.08027e-07 -4.18683e-08 0)
(1.20096e-07 -4.85852e-08 0)
(1.32313e-07 -5.63302e-08 0)
(1.07227e-07 -4.78517e-08 0)
(1.20419e-07 -5.43862e-08 0)
(1.33751e-07 -6.18614e-08 0)
(1.47281e-07 -7.03469e-08 0)
(1.19377e-07 -6.09436e-08 0)
(1.33778e-07 -6.82349e-08 0)
(1.48347e-07 -7.64465e-08 0)
(1.6316e-07 -8.56419e-08 0)
(1.32514e-07 -7.53499e-08 0)
(1.48091e-07 -8.33785e-08 0)
(1.63862e-07 -9.23005e-08 0)
(1.79917e-07 -1.02173e-07 0)
(1.4663e-07 -9.10272e-08 0)
(1.63343e-07 -9.97712e-08 0)
(1.8027e-07 -1.09376e-07 0)
(1.9752e-07 -1.19891e-07 0)
(1.61712e-07 -1.07922e-07 0)
(1.79513e-07 -1.17359e-07 0)
(1.97547e-07 -1.2762e-07 0)
(2.15935e-07 -1.38744e-07 0)
(1.77745e-07 -1.25974e-07 0)
(1.96581e-07 -1.36082e-07 0)
(2.15666e-07 -1.46971e-07 0)
(2.35128e-07 -1.58673e-07 0)
(1.94714e-07 -1.45116e-07 0)
(2.14528e-07 -1.55872e-07 0)
(2.34599e-07 -1.67365e-07 0)
(2.55068e-07 -1.79615e-07 0)
(2.12602e-07 -1.65277e-07 0)
(2.3333e-07 -1.76659e-07 0)
(2.54322e-07 -1.8873e-07 0)
(2.75723e-07 -2.01501e-07 0)
(2.31388e-07 -1.86381e-07 0)
(2.52965e-07 -1.98369e-07 0)
(2.74807e-07 -2.10994e-07 0)
(2.97066e-07 -2.24259e-07 0)
(2.51052e-07 -2.0835e-07 0)
(2.73409e-07 -2.20922e-07 0)
(2.96029e-07 -2.34079e-07 0)
(3.19065e-07 -2.47812e-07 0)
(2.71571e-07 -2.31105e-07 0)
(2.94637e-07 -2.44239e-07 0)
(3.17959e-07 -2.57904e-07 0)
(3.41692e-07 -2.72082e-07 0)
(2.92917e-07 -2.54564e-07 0)
(3.16622e-07 -2.68238e-07 0)
(3.4057e-07 -2.82387e-07 0)
(3.64918e-07 -2.96987e-07 0)
(3.15063e-07 -2.78647e-07 0)
(3.39333e-07 -2.92835e-07 0)
(3.63832e-07 -3.07446e-07 0)
(3.88714e-07 -3.22443e-07 0)
(3.37974e-07 -3.03272e-07 0)
(3.62739e-07 -3.1795e-07 0)
(3.87714e-07 -3.32996e-07 0)
(4.13049e-07 -3.48368e-07 0)
(3.61614e-07 -3.28362e-07 0)
(3.86803e-07 -3.43501e-07 0)
(4.12182e-07 -3.58956e-07 0)
(4.37893e-07 -3.7468e-07 0)
(3.8594e-07 -3.5384e-07 0)
(4.11487e-07 -3.6941e-07 0)
(4.37201e-07 -3.85248e-07 0)
(4.63215e-07 -4.01298e-07 0)
(4.10907e-07 -3.79635e-07 0)
(4.3675e-07 -3.95604e-07 0)
(4.62733e-07 -4.11795e-07 0)
(4.8898e-07 -4.28147e-07 0)
(4.36464e-07 -4.05682e-07 0)
(4.62545e-07 -4.22015e-07 0)
(4.88738e-07 -4.38529e-07 0)
(5.15154e-07 -4.55156e-07 0)
(4.62556e-07 -4.31923e-07 0)
(4.88823e-07 -4.48583e-07 0)
(5.15172e-07 -4.65387e-07 0)
(5.41699e-07 -4.82261e-07 0)
(4.89124e-07 -4.58306e-07 0)
(5.15532e-07 -4.75253e-07 0)
(5.41989e-07 -4.92312e-07 0)
(5.68578e-07 -5.09406e-07 0)
(5.16104e-07 -4.84789e-07 0)
(5.42616e-07 -5.01981e-07 0)
(5.6914e-07 -5.1926e-07 0)
(5.95746e-07 -5.3654e-07 0)
(5.4343e-07 -5.11337e-07 0)
(5.70014e-07 -5.28731e-07 0)
(5.96572e-07 -5.4619e-07 0)
(6.23161e-07 -5.63625e-07 0)
(5.71033e-07 -5.37924e-07 0)
(5.97664e-07 -5.55474e-07 0)
(6.2423e-07 -5.73073e-07 0)
(6.50773e-07 -5.90627e-07 0)
(5.9884e-07 -5.64531e-07 0)
(6.25502e-07 -5.82191e-07 0)
(6.52054e-07 -5.99887e-07 0)
(6.78529e-07 -6.17524e-07 0)
(6.26778e-07 -5.91149e-07 0)
(6.53457e-07 -6.08869e-07 0)
(6.79984e-07 -6.26618e-07 0)
(7.06376e-07 -6.44298e-07 0)
(6.54769e-07 -6.17772e-07 0)
(6.81461e-07 -6.35503e-07 0)
(7.07953e-07 -6.53259e-07 0)
(7.34254e-07 -6.7094e-07 0)
(6.82737e-07 -6.44402e-07 0)
(7.0944e-07 -6.62092e-07 0)
(7.35895e-07 -6.79808e-07 0)
(7.621e-07 -6.97445e-07 0)
(7.10602e-07 -6.71043e-07 0)
(7.3732e-07 -6.88641e-07 0)
(7.63738e-07 -7.06268e-07 0)
(7.89849e-07 -7.23817e-07 0)
(7.38286e-07 -6.97707e-07 0)
(7.65024e-07 -7.15159e-07 0)
(7.9141e-07 -7.32646e-07 0)
(8.17431e-07 -7.50059e-07 0)
(7.65707e-07 -7.24403e-07 0)
(7.92475e-07 -7.41658e-07 0)
(8.18837e-07 -7.58954e-07 0)
(8.44774e-07 -7.76181e-07 0)
(7.92786e-07 -7.51148e-07 0)
(8.19594e-07 -7.68151e-07 0)
(8.4594e-07 -7.85203e-07 0)
(8.71804e-07 -8.02194e-07 0)
(8.19442e-07 -7.77955e-07 0)
(8.46302e-07 -7.94654e-07 0)
(8.72643e-07 -8.11409e-07 0)
(8.98444e-07 -8.28112e-07 0)
(8.45595e-07 -8.0484e-07 0)
(8.72519e-07 -8.2118e-07 0)
(8.98866e-07 -8.37587e-07 0)
(9.24616e-07 -8.53948e-07 0)
(8.71167e-07 -8.31817e-07 0)
(8.98165e-07 -8.47747e-07 0)
(9.24529e-07 -8.6375e-07 0)
(9.5024e-07 -8.79717e-07 0)
(8.96077e-07 -8.58902e-07 0)
(9.23161e-07 -8.74368e-07 0)
(9.49553e-07 -8.89914e-07 0)
(9.75236e-07 -9.05433e-07 0)
(9.20248e-07 -8.86104e-07 0)
(9.47428e-07 -9.01055e-07 0)
(9.73858e-07 -9.16092e-07 0)
(9.99524e-07 -9.31109e-07 0)
(9.43606e-07 -9.13435e-07 0)
(9.70888e-07 -9.27819e-07 0)
(9.97365e-07 -9.42295e-07 0)
(1.02302e-06 -9.56757e-07 0)
(9.66074e-07 -9.40901e-07 0)
(9.93465e-07 -9.54669e-07 0)
(1.01999e-06 -9.68531e-07 0)
(1.04565e-06 -9.82386e-07 0)
(9.8758e-07 -9.68507e-07 0)
(1.01508e-06 -9.8161e-07 0)
(1.04167e-06 -9.94809e-07 0)
(1.06734e-06 -1.00801e-06 0)
(1.00805e-06 -9.96254e-07 0)
(1.03567e-06 -1.00864e-06 0)
(1.06232e-06 -1.02113e-06 0)
(1.088e-06 -1.03362e-06 0)
(1.02743e-06 -1.02414e-06 0)
(1.05516e-06 -1.03578e-06 0)
(1.08188e-06 -1.04751e-06 0)
(1.10757e-06 -1.05924e-06 0)
(1.04564e-06 -1.05217e-06 0)
(1.07348e-06 -1.063e-06 0)
(1.10026e-06 -1.07393e-06 0)
(1.12598e-06 -1.08486e-06 0)
(1.06262e-06 -1.08033e-06 0)
(1.09057e-06 -1.09032e-06 0)
(1.11741e-06 -1.1004e-06 0)
(1.14315e-06 -1.11049e-06 0)
(1.07831e-06 -1.10861e-06 0)
(1.10637e-06 -1.11772e-06 0)
(1.13328e-06 -1.12692e-06 0)
(1.15903e-06 -1.13613e-06 0)
(1.09266e-06 -1.13701e-06 0)
(1.12082e-06 -1.14521e-06 0)
(1.14779e-06 -1.15349e-06 0)
(1.17357e-06 -1.16178e-06 0)
(1.10563e-06 -1.16553e-06 0)
(1.13388e-06 -1.17278e-06 0)
(1.1609e-06 -1.18011e-06 0)
(1.1867e-06 -1.18744e-06 0)
(1.11716e-06 -1.19414e-06 0)
(1.14549e-06 -1.20042e-06 0)
(1.17256e-06 -1.20677e-06 0)
(1.19838e-06 -1.21312e-06 0)
(1.12722e-06 -1.22284e-06 0)
(1.15563e-06 -1.22812e-06 0)
(1.18274e-06 -1.23346e-06 0)
(1.20857e-06 -1.23881e-06 0)
(1.13576e-06 -1.2516e-06 0)
(1.16424e-06 -1.25586e-06 0)
(1.19139e-06 -1.2602e-06 0)
(1.21722e-06 -1.26451e-06 0)
(1.14278e-06 -1.28041e-06 0)
(1.17134e-06 -1.28364e-06 0)
(1.19851e-06 -1.28695e-06 0)
(1.22432e-06 -1.29022e-06 0)
(1.1482e-06 -1.30924e-06 0)
(1.17685e-06 -1.31144e-06 0)
(1.20404e-06 -1.31372e-06 0)
(1.2298e-06 -1.31594e-06 0)
(1.1521e-06 -1.33815e-06 0)
(1.18089e-06 -1.33926e-06 0)
(1.2081e-06 -1.34048e-06 0)
(1.23374e-06 -1.3416e-06 0)
(1.15416e-06 -1.36711e-06 0)
(1.18312e-06 -1.36711e-06 0)
(1.21033e-06 -1.36718e-06 0)
(1.23582e-06 -1.36719e-06 0)
)
;

boundaryField
{
    plateFix
    {
        type            fixedDisplacement;
        value           uniform (0 0 0);
    }
    plate
    {
        type            solidTraction;
        nonLinear       updatedLagrangian;
        traction        nonuniform List<vector> 
168
(
(-0.000137935 1.85e-05 2.20782e-22)
(-0.000137455 -1.92664e-05 1.31838e-22)
(-0.00120483 -0.000862789 2.86887e-22)
(-0.00121585 0.000871856 -1.09132e-21)
(-0.00386574 -0.00166981 2.42412e-22)
(-0.0039053 0.0016871 6.40958e-23)
(-0.00761341 -0.00220097 -7.12177e-22)
(-0.0076922 0.00222316 1.73277e-21)
(-0.0121032 -0.00246729 9.74077e-22)
(-0.0122277 0.00249155 -1.56124e-21)
(-0.017096 -0.00254008 -1.81594e-21)
(-0.01727 0.00256476 0)
(-0.0223948 -0.00250774 1.22261e-22)
(-0.0226205 0.0025324 -1.40896e-21)
(-0.0278659 -0.00244432 1.2538e-21)
(-0.0281445 0.0024694 1.35976e-22)
(-0.0334347 -0.00239695 -1.80918e-22)
(-0.0337676 0.0024234 1.83961e-21)
(-0.0390636 -0.00238662 -3.00734e-22)
(-0.0394528 0.00241542 -8.467e-22)
(-0.0447262 -0.00241356 -3.6162e-22)
(-0.0451742 0.00244552 1.1134e-22)
(-0.0503805 -0.0024637 2.95785e-22)
(-0.0508899 0.0024993 -1.45248e-22)
(-0.055945 -0.00251393 -2.26713e-22)
(-0.0565177 0.00255325 0)
(-0.0612783 -0.00253544 -1.5847e-21)
(-0.0619146 0.00257816 -1.27817e-21)
(-0.0661657 -0.00249531 1.40772e-21)
(-0.0668636 0.00254067 2.91986e-21)
(-0.0703128 -0.00235756 0)
(-0.071067 0.00240433 -3.86734e-21)
(-0.0733493 -0.00208519 0)
(-0.0741505 0.00213165 2.01809e-21)
(-0.074849 -0.00164502 2.92316e-24)
(-0.0756836 0.00168899 1.33812e-21)
(-0.074359 -0.00101482 -1.59423e-21)
(-0.0752091 0.00105384 0)
(-0.0714763 -0.000198599 -7.19768e-24)
(-0.072321 0.000230169 7.97206e-21)
(-0.0658892 0.000788805 0)
(-0.0667053 -0.000767029 -1.53493e-20)
(-0.0574364 0.00182057 0)
(-0.058201 -0.00180998 7.29514e-21)
(-0.0468375 0.00304036 1.53126e-23)
(-0.0475355 -0.0030457 -1.56213e-23)
(-0.0348273 0.00369914 -1.83579e-23)
(-0.0354488 -0.00371486 0)
(-0.0215774 0.00381691 -1.10007e-20)
(-0.0221124 -0.00383921 1.09642e-20)
(-0.00852441 0.00372031 -8.94391e-22)
(-0.00897549 -0.00374875 -1.09755e-20)
(0.00412175 0.00341581 2.45797e-20)
(0.00375166 -0.00344938 0)
(0.0157465 0.00301816 -1.27273e-20)
(0.0154495 -0.00305673 5.06466e-23)
(0.0262033 0.00256835 -1.36635e-20)
(0.0259716 -0.00261176 5.26051e-23)
(0.0353169 0.00211617 1.36648e-20)
(0.0351419 -0.00216443 1.38299e-20)
(0.043086 0.00168856 0)
(0.0429597 -0.00174167 -1.39513e-20)
(0.0495478 0.00130405 0)
(0.0494631 -0.00136193 -1.65896e-22)
(0.0548025 0.000970802 7.18868e-21)
(0.0547535 -0.00103332 1.66621e-22)
(0.0589729 0.00069069 -7.07813e-21)
(0.0589545 -0.00075762 0)
(0.0621972 0.00046115 -5.54169e-23)
(0.0622056 -0.000532211 -6.94289e-21)
(0.0646148 0.000277188 1.06576e-22)
(0.0646469 -0.00035206 7.06046e-21)
(0.0663598 0.000132739 -1.08966e-22)
(0.0664131 -0.000211085 -1.0875e-22)
(0.0675554 2.15889e-05 0)
(0.0676278 -0.000103074 0)
(0.0683115 -6.20914e-05 0)
(0.0684016 -2.22194e-05 6.75436e-21)
(0.0687239 -0.000123479 6.66507e-21)
(0.0688301 3.66245e-05 1.14537e-22)
(0.0688738 -0.000167014 -6.68566e-21)
(0.068995 7.7861e-05 -6.56878e-21)
(0.0688292 -0.000196423 -6.60343e-21)
(0.068964 0.000105173 6.79328e-21)
(0.0686455 -0.000214783 6.50837e-21)
(0.0687928 0.000121596 -6.3923e-21)
(0.0683676 -0.000224609 0)
(0.0685261 0.000129604 -9.93734e-23)
(0.0680308 -0.000227939 6.24732e-21)
(0.0681993 0.000131196 -6.23026e-21)
(0.0676625 -0.000226412 -1.1049e-22)
(0.0678398 0.000127976 6.13963e-21)
(0.067284 -0.000221335 -1.2291e-20)
(0.0674686 0.000121222 0)
(0.0669107 -0.000213743 6.09886e-21)
(0.0671016 0.000111942 0)
(0.0665544 -0.000204448 -2.34039e-23)
(0.06675 0.000100927 9.3239e-23)
(0.066223 -0.000194079 5.92812e-21)
(0.0664221 8.87883e-05 0)
(0.065922 -0.000183118 2.04155e-23)
(0.0661234 7.59943e-05 0)
(0.0656551 -0.000171925 -5.86922e-21)
(0.0658574 6.28959e-05 0)
(0.0654241 -0.000160761 -1.34296e-22)
(0.0656262 4.97468e-05 -5.58326e-21)
(0.0652301 -0.000149804 5.63823e-21)
(0.0654308 3.67212e-05 6.38236e-23)
(0.0650733 -0.000139164 -5.55689e-21)
(0.0652715 2.3926e-05 5.35769e-21)
(0.0649535 -0.000128891 -4.34404e-23)
(0.0651482 1.14122e-05 1.72994e-22)
(0.0648703 -0.00011899 -4.29933e-23)
(0.0650606 -8.15868e-07 1.71289e-22)
(0.0648234 -0.000109424 8.51875e-23)
(0.0650084 -1.27933e-05 0)
(0.0648125 -0.000100123 0)
(0.0649914 -2.45871e-05 -8.39693e-23)
(0.0648376 -9.09899e-05 4.17935e-23)
(0.0650099 -3.6292e-05 -1.66357e-22)
(0.0648993 -8.19069e-05 0)
(0.0650643 -4.8025e-05 2.47112e-22)
(0.0649984 -7.27335e-05 0)
(0.0651556 -5.99254e-05 2.43254e-21)
(0.0651365 -6.33117e-05 0)
(0.0652854 -7.21523e-05 -5.32987e-21)
(0.0653155 -5.34587e-05 0)
(0.065456 -8.48913e-05 2.82976e-23)
(0.0655384 -4.29693e-05 2.49161e-21)
(0.0656702 -9.83525e-05 2.54681e-21)
(0.065809 -3.15982e-05 -2.53427e-21)
(0.0659319 -0.00011279 -1.56636e-22)
(0.0661319 -1.90608e-05 -7.79097e-23)
(0.0662459 -0.000128501 0)
(0.0665132 -4.99389e-06 0)
(0.0666183 -0.000145865 0)
(0.0669605 1.10395e-05 -1.21023e-21)
(0.0670567 -0.00016534 -7.57391e-23)
(0.0674833 2.96476e-05 2.4068e-21)
(0.0675709 -0.000187564 -7.4748e-23)
(0.0680938 5.15845e-05 -1.15944e-21)
(0.068173 -0.000213325 0)
(0.0688076 7.80303e-05 7.32708e-23)
(0.0688787 -0.000243857 0)
(0.0696451 0.000110504 0)
(0.0697084 -0.000280737 -1.13938e-21)
(0.0706332 0.000151835 7.1088e-23)
(0.0706893 -0.000326901 1.21117e-21)
(0.0718107 0.000205984 3.49979e-23)
(0.0718601 -0.000386429 2.08241e-22)
(0.0732271 0.000282569 0)
(0.0732705 -0.000469172 6.81817e-23)
(0.0749793 0.000395899 -3.35066e-23)
(0.0750173 -0.000589746 -1.99998e-22)
(0.0771521 0.000598131 0)
(0.0771858 -0.000800794 0)
(0.0801379 0.000947551 0)
(0.080167 -0.00116141 -6.34224e-23)
(0.0838789 0.00186568 1.51119e-23)
(0.0839053 -0.0020927 -1.22029e-22)
(0.0910845 0.00347268 -7.45241e-23)
(0.0910844 -0.00371548 -5.6379e-23)
(0.0982189 0.0106549 -5.43116e-23)
(0.0180186 0.00440504 0)
(-0.00376573 -0.00820408 9.99171e-23)
(-0.00375489 0.0079399 -9.99623e-23)
(0.0181993 -0.00476259 3.99661e-23)
(0.0982664 -0.0108815 2.67383e-22)
)
;
        pressure        nonuniform List<scalar> 
168
(
-0.00112646
-0.0100591
-0.00426292
-0.013232
-0.0072098
-0.0162131
-0.00964407
-0.0186767
-0.0113858
-0.020442
-0.0121896
-0.021262
-0.0119047
-0.0209852
-0.0104255
-0.0195056
-0.00762779
-0.0166975
-0.00332744
-0.0123744
0.00274995
-0.00625718
0.0109878
0.00204357
0.0218827
0.0130325
0.0360355
0.0273196
0.0541256
0.0455947
0.0768675
0.0685827
0.104943
0.0969759
0.138903
0.131332
0.179059
0.171969
0.225279
0.218752
0.276969
0.271082
0.332855
0.327667
0.391622
0.387184
0.453945
0.450296
0.508083
0.505129
0.555595
0.553255
0.594308
0.592479
0.62517
0.623761
0.648301
0.647224
0.664709
0.66389
0.675242
0.674616
0.680894
0.680411
0.682561
0.682178
0.68107
0.680754
0.677136
0.676861
0.671366
0.671113
0.664261
0.664016
0.656229
0.655981
0.647596
0.647337
0.638617
0.638342
0.62949
0.629197
0.620367
0.620053
0.611357
0.611022
0.602543
0.602185
0.593977
0.593598
0.585696
0.585297
0.577717
0.577299
0.570047
0.569612
0.562682
0.562232
0.555613
0.55515
0.548821
0.54835
0.542289
0.541812
0.535993
0.535515
0.529909
0.529434
0.524012
0.523545
0.518277
0.517822
0.512679
0.512242
0.507193
0.506779
0.501796
0.501411
0.496465
0.496113
0.491176
0.490864
0.485909
0.485641
0.480641
0.480423
0.475351
0.475187
0.470018
0.469912
0.464618
0.464573
0.459127
0.459147
0.453521
0.453608
0.44777
0.447925
0.441845
0.442067
0.435707
0.435996
0.429317
0.42967
0.422624
0.423035
0.415567
0.41603
0.40807
0.408576
0.400024
0.400561
0.391325
0.391876
0.381653
0.382201
0.371046
0.371563
0.357678
0.358139
0.344292
0.344638
0.314365
0.274359
0.326798
0.326715
0.273871
0.314703
)
;
        value           nonuniform List<vector> 
168
(
(3.04903e-09 1.39187e-09 -3.83548e-28)
(7.18346e-10 -3.91434e-10 2.46129e-28)
(3.67621e-09 2.33868e-09 1.54056e-28)
(1.17971e-09 -5.10623e-10 -3.74284e-28)
(4.51078e-09 3.15901e-09 9.28045e-29)
(1.75882e-09 -4.98439e-10 -3.99802e-28)
(5.54753e-09 3.85962e-09 -3.66387e-28)
(2.4868e-09 -3.43165e-10 9.12763e-28)
(6.76343e-09 4.50093e-09 5.74828e-28)
(3.37044e-09 -6.86792e-11 -5.70182e-28)
(8.12044e-09 5.11164e-09 -8.13741e-28)
(4.40447e-09 3.15524e-10 -3.63532e-28)
(9.59562e-09 5.71932e-09 8.92282e-29)
(5.5916e-09 7.97168e-10 -3.38336e-28)
(1.11703e-08 6.34008e-09 3.97403e-28)
(6.93696e-09 1.36699e-09 1.86395e-28)
(1.28322e-08 6.98433e-09 -1.5666e-28)
(8.45009e-09 2.01497e-09 8.57443e-28)
(1.45713e-08 7.65567e-09 4.00561e-28)
(1.01434e-08 2.73021e-09 -4.42223e-28)
(1.63801e-08 8.35193e-09 -7.98139e-28)
(1.20324e-08 3.4991e-09 -2.39922e-28)
(1.82523e-08 9.06479e-09 6.079e-30)
(1.41357e-08 4.30376e-09 -1.87552e-28)
(2.01833e-08 9.77962e-09 6.21318e-28)
(1.64758e-08 5.11985e-09 3.90882e-28)
(2.21703e-08 1.04749e-08 -4.65911e-28)
(1.90796e-08 5.914e-09 -4.98556e-28)
(2.42142e-08 1.11215e-08 4.27547e-28)
(2.19803e-08 6.64058e-09 2.39794e-27)
(2.63215e-08 1.16817e-08 -1.63511e-27)
(2.52189e-08 7.23809e-09 -2.36291e-27)
(2.8507e-08 1.21079e-08 1.64326e-28)
(2.88471e-08 7.62504e-09 4.96216e-28)
(3.07984e-08 1.23404e-08 1.12986e-27)
(3.29309e-08 7.69581e-09 -1.71416e-29)
(3.32411e-08 1.23042e-08 -7.60939e-30)
(3.75546e-08 7.31663e-09 8.06573e-28)
(3.59044e-08 1.19047e-08 3.55137e-27)
(4.28262e-08 6.32256e-09 -1.70073e-27)
(3.88865e-08 1.10209e-08 2.43911e-27)
(4.88805e-08 4.51547e-09 3.11307e-27)
(4.23249e-08 9.49665e-09 -4.71071e-27)
(5.58868e-08 1.66449e-09 -1.67466e-27)
(4.65379e-08 7.03982e-09 -4.53914e-27)
(6.4349e-08 -2.64968e-09 3.93782e-29)
(5.16601e-08 3.37861e-09 -5.84801e-28)
(7.42804e-08 -8.71318e-09 -7.23691e-29)
(5.75254e-08 -1.41494e-09 7.51076e-28)
(8.51515e-08 -1.62257e-08 -1.70156e-27)
(6.42221e-08 -7.42348e-09 -3.24797e-28)
(9.69875e-08 -2.51783e-08 1.37872e-27)
(7.1825e-08 -1.47195e-08 3.19813e-27)
(1.09805e-07 -3.55409e-08 6.31971e-27)
(8.03803e-08 -2.33496e-08 -5.97911e-30)
(1.23595e-07 -4.72821e-08 -6.33241e-27)
(8.99203e-08 -3.33412e-08 2.95341e-27)
(1.38342e-07 -6.03638e-08 -5.64875e-27)
(1.0046e-07 -4.46992e-08 -7.1197e-27)
(1.54016e-07 -7.47479e-08 1.03866e-26)
(1.12007e-07 -5.74105e-08 5.56837e-27)
(1.70583e-07 -9.03933e-08 -5.78092e-27)
(1.2456e-07 -7.14456e-08 -6.66231e-28)
(1.88005e-07 -1.07256e-07 4.03027e-28)
(1.38112e-07 -8.67621e-08 -1.10313e-28)
(2.06244e-07 -1.25288e-07 -3.77254e-27)
(1.52653e-07 -1.03307e-07 9.02013e-28)
(2.25261e-07 -1.44437e-07 4.78143e-27)
(1.68173e-07 -1.2102e-07 6.96535e-28)
(2.45021e-07 -1.64646e-07 -2.67814e-27)
(1.84656e-07 -1.39834e-07 -4.30153e-27)
(2.65489e-07 -1.85852e-07 5.67492e-27)
(2.02088e-07 -1.59676e-07 -8.40653e-28)
(2.86631e-07 -2.07988e-07 -4.27697e-27)
(2.2045e-07 -1.80472e-07 1.17281e-27)
(3.08416e-07 -2.30982e-07 2.97818e-27)
(2.39725e-07 -2.02144e-07 3.87112e-27)
(3.30813e-07 -2.54759e-07 -1.55028e-28)
(2.59889e-07 -2.24612e-07 1.23658e-27)
(3.53793e-07 -2.79241e-07 -2.76158e-27)
(2.80917e-07 -2.47796e-07 1.17906e-27)
(3.77326e-07 -3.04345e-07 8.61582e-28)
(3.0278e-07 -2.71616e-07 -9.33044e-27)
(4.01384e-07 -3.2999e-07 4.54044e-27)
(3.25446e-07 -2.95991e-07 6.21699e-27)
(4.25937e-07 -3.56091e-07 -3.91078e-27)
(3.48875e-07 -3.20844e-07 -2.54416e-27)
(4.50955e-07 -3.82568e-07 -4.52044e-27)
(3.73026e-07 -3.46101e-07 7.33164e-27)
(4.7641e-07 -4.0934e-07 6.67912e-28)
(3.9785e-07 -3.71692e-07 -2.55745e-27)
(5.0227e-07 -4.36331e-07 4.22657e-27)
(4.23293e-07 -3.97552e-07 -5.01587e-27)
(5.28504e-07 -4.6347e-07 -3.31088e-27)
(4.49298e-07 -4.23626e-07 3.65216e-27)
(5.55079e-07 -4.90692e-07 3.86591e-27)
(4.75801e-07 -4.49862e-07 -1.50011e-27)
(5.81959e-07 -5.17939e-07 -3.71954e-27)
(5.02735e-07 -4.76219e-07 5.2972e-27)
(6.09107e-07 -5.45162e-07 2.46533e-27)
(5.30031e-07 -5.02665e-07 -3.60172e-27)
(6.36483e-07 -5.72319e-07 1.62165e-27)
(5.57613e-07 -5.29172e-07 -9.94901e-28)
(6.64042e-07 -5.99378e-07 -1.74913e-27)
(5.85408e-07 -5.55725e-07 -1.13937e-27)
(6.91736e-07 -6.26313e-07 -1.57488e-27)
(6.13336e-07 -5.82313e-07 -6.53592e-28)
(7.19513e-07 -6.53106e-07 -4.42991e-27)
(6.4132e-07 -6.08931e-07 1.63136e-27)
(7.47319e-07 -6.79747e-07 6.69902e-27)
(6.69278e-07 -6.35582e-07 2.1751e-27)
(7.75092e-07 -7.06231e-07 2.20416e-27)
(6.9713e-07 -6.62271e-07 -6.79151e-28)
(8.0277e-07 -7.32558e-07 1.63325e-27)
(7.24795e-07 -6.89008e-07 -1.63336e-27)
(8.30284e-07 -7.58732e-07 -2.69608e-27)
(7.52192e-07 -7.15805e-07 -1.21025e-27)
(8.57566e-07 -7.84762e-07 3.26563e-27)
(7.79239e-07 -7.42676e-07 4.86974e-27)
(8.84541e-07 -8.10658e-07 2.29584e-28)
(8.05856e-07 -7.69637e-07 -2.14029e-29)
(9.11133e-07 -8.36433e-07 -1.18862e-28)
(8.31962e-07 -7.96703e-07 -3.22225e-28)
(9.37264e-07 -8.621e-07 8.60742e-28)
(8.57479e-07 -8.23887e-07 8.4911e-29)
(9.62855e-07 -8.87673e-07 -3.19516e-27)
(8.82329e-07 -8.51204e-07 1.48824e-27)
(9.87825e-07 -9.13167e-07 1.21369e-27)
(9.06435e-07 -8.78665e-07 -2.9897e-27)
(1.01209e-06 -9.38593e-07 -3.20184e-28)
(9.29723e-07 -9.06279e-07 1.97031e-27)
(1.03558e-06 -9.63965e-07 1.55197e-27)
(9.52118e-07 -9.34053e-07 -5.02941e-29)
(1.0582e-06 -9.89293e-07 1.01538e-27)
(9.7355e-07 -9.61991e-07 -1.7296e-27)
(1.07988e-06 -1.01458e-06 -3.02061e-27)
(9.9395e-07 -9.90094e-07 -1.64911e-27)
(1.10054e-06 -1.03985e-06 8.99874e-28)
(1.01325e-06 -1.01836e-06 -1.44871e-27)
(1.12011e-06 -1.06509e-06 -9.24999e-28)
(1.03139e-06 -1.04678e-06 -4.6514e-28)
(1.13851e-06 -1.09031e-06 3.57232e-27)
(1.0483e-06 -1.07536e-06 -1.76709e-28)
(1.15569e-06 -1.11552e-06 -1.46135e-27)
(1.06393e-06 -1.10408e-06 1.75093e-27)
(1.17157e-06 -1.14072e-06 -1.00388e-27)
(1.07822e-06 -1.13294e-06 -2.70498e-29)
(1.18611e-06 -1.16591e-06 9.78909e-28)
(1.09112e-06 -1.16193e-06 1.80791e-27)
(1.19925e-06 -1.1911e-06 -1.55927e-28)
(1.1026e-06 -1.19102e-06 2.18376e-27)
(1.21093e-06 -1.21628e-06 -1.22173e-27)
(1.11261e-06 -1.22021e-06 -2.01831e-27)
(1.22112e-06 -1.24147e-06 -2.12927e-28)
(1.12112e-06 -1.24948e-06 1.01657e-28)
(1.22977e-06 -1.26666e-06 -2.1669e-27)
(1.12811e-06 -1.27882e-06 -1.30332e-28)
(1.23687e-06 -1.29184e-06 4.11637e-27)
(1.13349e-06 -1.30817e-06 8.75164e-30)
(1.24232e-06 -1.31703e-06 -6.38565e-27)
(1.13734e-06 -1.33763e-06 2.31087e-27)
(1.24621e-06 -1.34213e-06 -5.28698e-29)
(1.13917e-06 -1.36707e-06 2.34127e-27)
(1.15466e-06 -1.38197e-06 1.83459e-27)
(1.18367e-06 -1.38117e-06 -1.86076e-27)
(1.21089e-06 -1.38038e-06 2.06942e-27)
(1.23633e-06 -1.37961e-06 -3.46444e-29)
(1.24806e-06 -1.36724e-06 6.01746e-30)
)
;
    }
    frontAndBackPlanes
    {
        type            empty;
    }
}


// ************************************************************************* //
