/*--------------------------------*- C++ -*----------------------------------*\
| =========                 |                                                 |
| \\      /  F ield         | OpenFOAM Extend Project: Open source CFD        |
|  \\    /   O peration     | Version:  1.6-ext                               |
|   \\  /    A nd           | Web:      www.extend-project.de                 |
|    \\/     M anipulation  |                                                 |
\*---------------------------------------------------------------------------*/
FoamFile
{
    version     2.0;
    format      ascii;
    class       volVectorField;
    location    "0.2";
    object      DU_0;
}
// * * * * * * * * * * * * * * * * * * * * * * * * * * * * * * * * * * * * * //

dimensions      [0 1 0 0 0 0 0];

internalField   nonuniform List<vector> 
328
(
(-9.98592e-10 -2.3414e-09 0)
(-6.3349e-10 -4.11124e-10 0)
(-6.5748e-10 6.64276e-10 0)
(-1.16879e-09 2.80045e-09 0)
(-3.04316e-09 -5.93674e-09 0)
(-2.14538e-09 -1.13774e-09 0)
(-2.23088e-09 2.00522e-09 0)
(-3.54689e-09 7.2628e-09 0)
(-5.47117e-09 -8.50014e-09 0)
(-4.29371e-09 -1.74278e-09 0)
(-4.46737e-09 3.35772e-09 0)
(-6.32545e-09 1.07024e-08 0)
(-8.14623e-09 -1.01798e-08 0)
(-6.86547e-09 -2.14915e-09 0)
(-7.1349e-09 4.64286e-09 0)
(-9.34625e-09 1.32996e-08 0)
(-1.11141e-08 -1.11748e-08 0)
(-9.90382e-09 -2.32947e-09 0)
(-1.02737e-08 5.83118e-09 0)
(-1.26478e-08 1.52816e-08 0)
(-1.43631e-08 -1.16393e-08 0)
(-1.3339e-08 -2.275e-09 0)
(-1.38057e-08 6.91447e-09 0)
(-1.62059e-08 1.68231e-08 0)
(-1.79184e-08 -1.17014e-08 0)
(-1.71617e-08 -2.00055e-09 0)
(-1.77172e-08 7.90751e-09 0)
(-2.00352e-08 1.80662e-08 0)
(-2.17997e-08 -1.14585e-08 0)
(-2.13455e-08 -1.53055e-09 0)
(-2.1976e-08 8.83358e-09 0)
(-2.41431e-08 1.91159e-08 0)
(-2.60349e-08 -1.09888e-08 0)
(-2.58836e-08 -8.96907e-10 0)
(-2.65707e-08 9.72035e-09 0)
(-2.85448e-08 2.00512e-08 0)
(-3.06525e-08 -1.03536e-08 0)
(-3.07724e-08 -1.33198e-10 0)
(-3.14925e-08 1.05924e-08 0)
(-3.32545e-08 2.09279e-08 0)
(-3.56829e-08 -9.60357e-09 0)
(-3.60193e-08 7.26661e-10 0)
(-3.67431e-08 1.1468e-08 0)
(-3.82866e-08 2.17825e-08 0)
(-4.11572e-08 -8.78121e-09 0)
(-4.1638e-08 1.64951e-09 0)
(-4.23305e-08 1.23552e-08 0)
(-4.36546e-08 2.26337e-08 0)
(-4.71073e-08 -7.92449e-09 0)
(-4.76494e-08 2.60198e-09 0)
(-4.82687e-08 1.32503e-08 0)
(-4.93704e-08 2.34832e-08 0)
(-5.35653e-08 -7.06976e-09 0)
(-5.40785e-08 3.54876e-09 0)
(-5.45753e-08 1.41362e-08 0)
(-5.54443e-08 2.43157e-08 0)
(-6.05625e-08 -6.25488e-09 0)
(-6.09528e-08 4.44986e-09 0)
(-6.12699e-08 1.49807e-08 0)
(-6.18836e-08 2.50978e-08 0)
(-6.81285e-08 -5.52248e-09 0)
(-6.8299e-08 5.25739e-09 0)
(-6.83705e-08 1.57352e-08 0)
(-6.86919e-08 2.57764e-08 0)
(-7.62885e-08 -4.92333e-09 0)
(-7.61402e-08 5.91187e-09 0)
(-7.58911e-08 1.63324e-08 0)
(-7.58666e-08 2.6277e-08 0)
(-8.50595e-08 -4.52012e-09 0)
(-8.44913e-08 6.3383e-09 0)
(-8.38367e-08 1.66841e-08 0)
(-8.33955e-08 2.65005e-08 0)
(-9.44466e-08 -4.39174e-09 0)
(-9.33542e-08 6.44191e-09 0)
(-9.21993e-08 1.6678e-08 0)
(-9.12538e-08 2.63205e-08 0)
(-1.04436e-07 -4.63833e-09 0)
(-1.02712e-07 6.10366e-09 0)
(-1.00952e-07 1.61745e-08 0)
(-9.93976e-08 2.55808e-08 0)
(-1.14989e-07 -5.38743e-09 0)
(-1.12524e-07 5.1753e-09 0)
(-1.10044e-07 1.50031e-08 0)
(-1.07761e-07 2.40926e-08 0)
(-1.26036e-07 -6.80155e-09 0)
(-1.22715e-07 3.4742e-09 0)
(-1.19393e-07 1.29595e-08 0)
(-1.16248e-07 2.16346e-08 0)
(-1.37911e-07 -9.17456e-09 0)
(-1.33577e-07 6.74137e-10 0)
(-1.29246e-07 9.68245e-09 0)
(-1.25058e-07 1.78124e-08 0)
(-1.49968e-07 -1.27892e-08 0)
(-1.44491e-07 -3.51393e-09 0)
(-1.39008e-07 4.87946e-09 0)
(-1.33625e-07 1.23362e-08 0)
(-1.61247e-07 -1.75688e-08 0)
(-1.54584e-07 -8.95835e-09 0)
(-1.47896e-07 -1.26069e-09 0)
(-1.41255e-07 5.45763e-09 0)
(-1.7166e-07 -2.35863e-08 0)
(-1.6378e-07 -1.57077e-08 0)
(-1.5585e-07 -8.76315e-09 0)
(-1.47911e-07 -2.82628e-09 0)
(-1.8114e-07 -3.09019e-08 0)
(-1.72024e-07 -2.3796e-08 0)
(-1.62828e-07 -1.76364e-08 0)
(-1.53568e-07 -1.24995e-08 0)
(-1.89644e-07 -3.9553e-08 0)
(-1.79284e-07 -3.32403e-08 0)
(-1.68814e-07 -2.78773e-08 0)
(-1.58223e-07 -2.35405e-08 0)
(-1.97144e-07 -4.95588e-08 0)
(-1.85544e-07 -4.40427e-08 0)
(-1.73802e-07 -3.9472e-08 0)
(-1.61887e-07 -3.59201e-08 0)
(-2.03629e-07 -6.09192e-08 0)
(-1.90802e-07 -5.61916e-08 0)
(-1.77803e-07 -5.23977e-08 0)
(-1.64581e-07 -4.96059e-08 0)
(-2.09097e-07 -7.3618e-08 0)
(-1.95065e-07 -6.96632e-08 0)
(-1.80833e-07 -6.66234e-08 0)
(-1.66332e-07 -6.45614e-08 0)
(-2.13553e-07 -8.76252e-08 0)
(-1.98346e-07 -8.44231e-08 0)
(-1.82914e-07 -8.21116e-08 0)
(-1.67172e-07 -8.07462e-08 0)
(-2.17007e-07 -1.029e-07 0)
(-2.00662e-07 -1.00429e-07 0)
(-1.84071e-07 -9.8818e-08 0)
(-1.67133e-07 -9.81157e-08 0)
(-2.19471e-07 -1.19393e-07 0)
(-2.02032e-07 -1.1763e-07 0)
(-1.84328e-07 -1.16693e-07 0)
(-1.66246e-07 -1.16621e-07 0)
(-2.20959e-07 -1.37048e-07 0)
(-2.02475e-07 -1.35971e-07 0)
(-1.83711e-07 -1.35681e-07 0)
(-1.64545e-07 -1.3621e-07 0)
(-2.21486e-07 -1.55802e-07 0)
(-2.02012e-07 -1.5539e-07 0)
(-1.82246e-07 -1.55724e-07 0)
(-1.62059e-07 -1.56823e-07 0)
(-2.21069e-07 -1.7559e-07 0)
(-2.00661e-07 -1.75823e-07 0)
(-1.79956e-07 -1.76756e-07 0)
(-1.58817e-07 -1.784e-07 0)
(-2.19723e-07 -1.96341e-07 0)
(-1.98445e-07 -1.97199e-07 0)
(-1.76867e-07 -1.98709e-07 0)
(-1.54847e-07 -2.00873e-07 0)
(-2.17467e-07 -2.17981e-07 0)
(-1.95383e-07 -2.19445e-07 0)
(-1.73002e-07 -2.2151e-07 0)
(-1.50177e-07 -2.24171e-07 0)
(-2.1432e-07 -2.40434e-07 0)
(-1.91498e-07 -2.42484e-07 0)
(-1.68386e-07 -2.45084e-07 0)
(-1.44833e-07 -2.48219e-07 0)
(-2.10304e-07 -2.63619e-07 0)
(-1.86814e-07 -2.66237e-07 0)
(-1.63043e-07 -2.69351e-07 0)
(-1.3884e-07 -2.72939e-07 0)
(-2.05443e-07 -2.87458e-07 0)
(-1.81355e-07 -2.90622e-07 0)
(-1.56999e-07 -2.94229e-07 0)
(-1.32224e-07 -2.98251e-07 0)
(-1.99763e-07 -3.1187e-07 0)
(-1.75148e-07 -3.15559e-07 0)
(-1.50279e-07 -3.19639e-07 0)
(-1.2501e-07 -3.24074e-07 0)
(-1.93296e-07 -3.36777e-07 0)
(-1.68221e-07 -3.40967e-07 0)
(-1.4291e-07 -3.45499e-07 0)
(-1.17222e-07 -3.50328e-07 0)
(-1.86075e-07 -3.62103e-07 0)
(-1.60607e-07 -3.66771e-07 0)
(-1.3492e-07 -3.71731e-07 0)
(-1.08885e-07 -3.76937e-07 0)
(-1.78139e-07 -3.87779e-07 0)
(-1.52338e-07 -3.92897e-07 0)
(-1.26339e-07 -3.98263e-07 0)
(-1.00024e-07 -4.03825e-07 0)
(-1.69529e-07 -4.13739e-07 0)
(-1.43452e-07 -4.1928e-07 0)
(-1.17199e-07 -4.25027e-07 0)
(-9.06631e-08 -4.30926e-07 0)
(-1.6029e-07 -4.39926e-07 0)
(-1.33986e-07 -4.45859e-07 0)
(-1.0753e-07 -4.51964e-07 0)
(-8.08294e-08 -4.5818e-07 0)
(-1.50469e-07 -4.66291e-07 0)
(-1.23982e-07 -4.72585e-07 0)
(-9.73692e-08 -4.79019e-07 0)
(-7.05501e-08 -4.85531e-07 0)
(-1.40118e-07 -4.92792e-07 0)
(-1.13484e-07 -4.99414e-07 0)
(-8.67518e-08 -5.06152e-07 0)
(-5.98545e-08 -5.12937e-07 0)
(-1.29287e-07 -5.19397e-07 0)
(-1.02537e-07 -5.26314e-07 0)
(-7.57165e-08 -5.33325e-07 0)
(-4.87735e-08 -5.40362e-07 0)
(-1.18033e-07 -5.46082e-07 0)
(-9.11884e-08 -5.53258e-07 0)
(-6.43041e-08 -5.60513e-07 0)
(-3.73406e-08 -5.67776e-07 0)
(-1.06409e-07 -5.72831e-07 0)
(-7.94872e-08 -5.8023e-07 0)
(-5.25572e-08 -5.87698e-07 0)
(-2.55918e-08 -5.95161e-07 0)
(-9.44733e-08 -5.99632e-07 0)
(-6.7484e-08 -6.07219e-07 0)
(-4.05203e-08 -6.14868e-07 0)
(-1.35656e-08 -6.22503e-07 0)
(-8.22813e-08 -6.26484e-07 0)
(-5.52303e-08 -6.34221e-07 0)
(-2.824e-08 -6.42018e-07 0)
(-1.30291e-09 -6.49796e-07 0)
(-6.98902e-08 -6.53386e-07 0)
(-4.27788e-08 -6.61238e-07 0)
(-1.57645e-08 -6.69148e-07 0)
(1.11526e-08 -6.77039e-07 0)
(-5.7357e-08 -6.80344e-07 0)
(-3.01829e-08 -6.88273e-07 0)
(-3.14345e-09 -6.96263e-07 0)
(2.37551e-08 -7.04235e-07 0)
(-4.47383e-08 -7.07365e-07 0)
(-1.74965e-08 -7.15335e-07 0)
(9.57224e-09 -7.23369e-07 0)
(3.64568e-08 -7.31389e-07 0)
(-3.20903e-08 -7.3446e-07 0)
(-4.77376e-09 -7.42433e-07 0)
(2.23306e-08 -7.50477e-07 0)
(4.92081e-08 -7.58511e-07 0)
(-1.94688e-08 -7.6164e-07 0)
(7.93102e-09 -7.6958e-07 0)
(3.5079e-08 -7.77596e-07 0)
(6.19579e-08 -7.85611e-07 0)
(-6.92883e-09 -7.88917e-07 0)
(2.05636e-08 -7.96787e-07 0)
(4.77641e-08 -8.04741e-07 0)
(7.46544e-08 -8.127e-07 0)
(5.47554e-09 -8.16302e-07 0)
(3.30702e-08 -8.24067e-07 0)
(6.03328e-08 -8.31923e-07 0)
(8.72446e-08 -8.39792e-07 0)
(1.76911e-08 -8.43808e-07 0)
(4.53975e-08 -8.51433e-07 0)
(7.27317e-08 -8.59156e-07 0)
(9.96756e-08 -8.66899e-07 0)
(2.96659e-08 -8.71446e-07 0)
(5.74929e-08 -8.78897e-07 0)
(8.49078e-08 -8.86451e-07 0)
(1.11894e-07 -8.94033e-07 0)
(4.13493e-08 -8.99226e-07 0)
(6.93048e-08 -9.06469e-07 0)
(9.68089e-08 -9.1382e-07 0)
(1.23847e-07 -9.21206e-07 0)
(5.26924e-08 -9.27157e-07 0)
(8.0783e-08 -9.34159e-07 0)
(1.08383e-07 -9.41275e-07 0)
(1.35482e-07 -9.4843e-07 0)
(6.36478e-08 -9.55245e-07 0)
(9.18785e-08 -9.61977e-07 0)
(1.19581e-07 -9.68823e-07 0)
(1.46747e-07 -9.75714e-07 0)
(7.41703e-08 -9.83497e-07 0)
(1.02544e-07 -9.89926e-07 0)
(1.30352e-07 -9.96472e-07 0)
(1.57591e-07 -1.00307e-06 0)
(8.42163e-08 -1.01191e-06 0)
(1.12734e-07 -1.01801e-06 0)
(1.4065e-07 -1.02423e-06 0)
(1.67964e-07 -1.03049e-06 0)
(9.37446e-08 -1.04049e-06 0)
(1.22404e-07 -1.04623e-06 0)
(1.50427e-07 -1.05209e-06 0)
(1.77819e-07 -1.05799e-06 0)
(1.02716e-07 -1.06923e-06 0)
(1.31513e-07 -1.07459e-06 0)
(1.59642e-07 -1.08005e-06 0)
(1.87109e-07 -1.08557e-06 0)
(1.11093e-07 -1.09812e-06 0)
(1.40023e-07 -1.10307e-06 0)
(1.68252e-07 -1.10812e-06 0)
(1.95793e-07 -1.11322e-06 0)
(1.18841e-07 -1.12716e-06 0)
(1.47895e-07 -1.13168e-06 0)
(1.76219e-07 -1.13629e-06 0)
(2.03828e-07 -1.14095e-06 0)
(1.25928e-07 -1.15632e-06 0)
(1.55096e-07 -1.16039e-06 0)
(1.83507e-07 -1.16454e-06 0)
(2.11178e-07 -1.16874e-06 0)
(1.32323e-07 -1.1856e-06 0)
(1.61595e-07 -1.1892e-06 0)
(1.90084e-07 -1.19287e-06 0)
(2.1781e-07 -1.19658e-06 0)
(1.38e-07 -1.21499e-06 0)
(1.67364e-07 -1.21809e-06 0)
(1.95922e-07 -1.22128e-06 0)
(2.23693e-07 -1.22448e-06 0)
(1.42935e-07 -1.24445e-06 0)
(1.72383e-07 -1.24706e-06 0)
(2.00999e-07 -1.24974e-06 0)
(2.28803e-07 -1.25242e-06 0)
(1.47103e-07 -1.27398e-06 0)
(1.7663e-07 -1.27608e-06 0)
(2.05294e-07 -1.27825e-06 0)
(2.33114e-07 -1.28041e-06 0)
(1.50497e-07 -1.30355e-06 0)
(1.80109e-07 -1.30513e-06 0)
(2.08809e-07 -1.3068e-06 0)
(2.36616e-07 -1.30843e-06 0)
(1.5307e-07 -1.33314e-06 0)
(1.8279e-07 -1.3342e-06 0)
(2.11517e-07 -1.33538e-06 0)
(2.39267e-07 -1.33647e-06 0)
(1.54876e-07 -1.36281e-06 0)
(1.8476e-07 -1.36331e-06 0)
(2.13504e-07 -1.36394e-06 0)
(2.41121e-07 -1.36446e-06 0)
(1.55672e-07 -1.39268e-06 0)
(1.85759e-07 -1.3925e-06 0)
(2.14512e-07 -1.39241e-06 0)
(2.41944e-07 -1.39224e-06 0)
)
;

boundaryField
{
    plateFix
    {
        type            fixedDisplacement;
        value           uniform (0 0 0);
    }
    plate
    {
        type            solidTraction;
        nonLinear       updatedLagrangian;
        traction        uniform (0 0 0);
        pressure        uniform 0;
        value           nonuniform List<vector> 
168
(
(-1.12012e-08 -6.34757e-09 9.29889e-28)
(-1.35463e-08 7.38324e-09 -7.63527e-30)
(-1.02651e-08 -1.0096e-08 -4.67848e-28)
(-1.27819e-08 1.19777e-08 -6.40382e-28)
(-1.01011e-08 -1.28844e-08 2.0949e-28)
(-1.28852e-08 1.56157e-08 6.93464e-28)
(-1.08469e-08 -1.46788e-08 5.27882e-28)
(-1.39572e-08 1.82824e-08 -2.89198e-28)
(-1.24578e-08 -1.57806e-08 -1.63447e-28)
(-1.59224e-08 2.03175e-08 -4.17129e-29)
(-1.47687e-08 -1.6329e-08 -2.86872e-28)
(-1.85821e-08 2.18809e-08 4.16973e-28)
(-1.76921e-08 -1.64725e-08 3.3982e-28)
(-2.18228e-08 2.31376e-08 -3.65227e-28)
(-2.11598e-08 -1.63085e-08 -2.49015e-28)
(-2.55525e-08 2.41932e-08 -5.66547e-29)
(-2.51395e-08 -1.5918e-08 5.92538e-28)
(-2.9717e-08 2.51307e-08 -6.54403e-29)
(-2.9616e-08 -1.53619e-08 -7.48097e-28)
(-3.42791e-08 2.60056e-08 2.77767e-28)
(-3.45903e-08 -1.46907e-08 3.91486e-28)
(-3.92169e-08 2.68546e-08 -3.30756e-28)
(-4.00736e-08 -1.39458e-08 9.55651e-28)
(-4.45171e-08 2.76958e-08 1.25456e-28)
(-4.60855e-08 -1.31646e-08 -9.34829e-28)
(-5.01722e-08 2.85305e-08 2.7302e-29)
(-5.26516e-08 -1.23821e-08 -5.1966e-28)
(-5.6178e-08 2.93424e-08 2.63922e-28)
(-5.98007e-08 -1.16343e-08 4.16879e-28)
(-6.2531e-08 3.00967e-08 -1.30549e-27)
(-6.75628e-08 -1.09608e-08 2.62005e-27)
(-6.92258e-08 3.07381e-08 1.24632e-27)
(-7.59648e-08 -1.0408e-08 6.38898e-28)
(-7.62521e-08 3.11882e-08 -5.92789e-28)
(-8.50261e-08 -1.00323e-08 -2.58264e-27)
(-8.35898e-08 3.13426e-08 2.37468e-28)
(-9.47531e-08 -9.90442e-09 1.67568e-28)
(-9.12055e-08 3.10682e-08 -2.01359e-29)
(-1.05132e-07 -1.0115e-08 -4.50596e-27)
(-9.90462e-08 3.02004e-08 4.14952e-27)
(-1.16126e-07 -1.07812e-08 1.77909e-27)
(-1.07037e-07 2.85419e-08 -1.24654e-26)
(-1.27661e-07 -1.20561e-08 2.63097e-27)
(-1.15071e-07 2.58636e-08 1.07566e-26)
(-1.40099e-07 -1.42183e-08 3.86678e-27)
(-1.23327e-07 2.17562e-08 5.38576e-28)
(-1.52775e-07 -1.75468e-08 3.54467e-28)
(-1.31257e-07 1.5931e-08 -3.07879e-27)
(-1.6468e-07 -2.19937e-08 -9.18539e-28)
(-1.38214e-07 8.67332e-09 9.68666e-27)
(-1.75727e-07 -2.7644e-08 -4.01739e-27)
(-1.44172e-07 -8.82463e-12 -4.83708e-27)
(-1.85841e-07 -3.4572e-08 1.42216e-27)
(-1.49116e-07 -1.00865e-08 -6.06464e-27)
(-1.94975e-07 -4.2825e-08 -1.43875e-27)
(-1.53055e-07 -2.15293e-08 2.93256e-27)
(-2.03099e-07 -5.2431e-08 -8.61159e-27)
(-1.56005e-07 -3.43006e-08 6.82955e-27)
(-2.10198e-07 -6.33954e-08 1.5524e-26)
(-1.57997e-07 -4.83638e-08 -3.39602e-27)
(-2.16265e-07 -7.57059e-08 -6.10634e-27)
(-1.59063e-07 -6.36796e-08 -7.70349e-27)
(-2.21304e-07 -8.93346e-08 -3.4139e-27)
(-1.5924e-07 -8.02067e-08 2.39889e-27)
(-2.25322e-07 -1.04242e-07 8.7696e-27)
(-1.58565e-07 -9.79006e-08 1.70147e-27)
(-2.28328e-07 -1.20378e-07 -4.2895e-27)
(-1.57074e-07 -1.16713e-07 7.3628e-28)
(-2.30334e-07 -1.37686e-07 -2.03565e-27)
(-1.54801e-07 -1.36593e-07 -1.98195e-27)
(-2.31355e-07 -1.56104e-07 6.8844e-27)
(-1.5178e-07 -1.57483e-07 -3.33339e-29)
(-2.31403e-07 -1.75566e-07 -4.194e-28)
(-1.48042e-07 -1.79322e-07 -9.91505e-28)
(-2.30492e-07 -1.95999e-07 -2.45441e-28)
(-1.43616e-07 -2.02045e-07 -1.0623e-27)
(-2.2864e-07 -2.17331e-07 -6.94717e-27)
(-1.38533e-07 -2.2558e-07 4.87163e-27)
(-2.25863e-07 -2.39484e-07 -1.99963e-28)
(-1.32819e-07 -2.49855e-07 -1.09232e-29)
(-2.22181e-07 -2.6238e-07 9.44255e-29)
(-1.265e-07 -2.74791e-07 3.52073e-28)
(-2.17619e-07 -2.8594e-07 3.83883e-27)
(-1.19602e-07 -3.0031e-07 -5.39371e-27)
(-2.12201e-07 -3.10083e-07 -4.0494e-27)
(-1.1215e-07 -3.2633e-07 4.28729e-27)
(-2.05961e-07 -3.34733e-07 2.52928e-27)
(-1.04165e-07 -3.52772e-07 -4.7179e-28)
(-1.98933e-07 -3.59816e-07 -6.74518e-27)
(-9.56715e-08 -3.79559e-07 1.57458e-27)
(-1.91157e-07 -3.85261e-07 3.71079e-27)
(-8.66901e-08 -4.06618e-07 -2.26043e-27)
(-1.82678e-07 -4.11005e-07 5.28405e-28)
(-7.72429e-08 -4.33881e-07 4.4904e-27)
(-1.73544e-07 -4.36992e-07 -1.29259e-27)
(-6.73521e-08 -4.61286e-07 -5.26032e-27)
(-1.63807e-07 -4.63173e-07 -2.16659e-27)
(-5.70408e-08 -4.8878e-07 4.01349e-27)
(-1.53521e-07 -4.89508e-07 -2.19914e-27)
(-4.63336e-08 -5.16318e-07 -4.8777e-27)
(-1.42742e-07 -5.15964e-07 4.74497e-27)
(-3.52572e-08 -5.43864e-07 -6.25759e-28)
(-1.31529e-07 -5.42518e-07 -3.35435e-27)
(-2.38411e-08 -5.71389e-07 2.37833e-27)
(-1.19941e-07 -5.69154e-07 1.70876e-27)
(-1.21171e-08 -5.98872e-07 -4.00729e-28)
(-1.08036e-07 -5.95861e-07 2.71848e-27)
(-1.20326e-10 -6.26299e-07 -4.49049e-28)
(-9.58753e-08 -6.22637e-07 -2.71124e-27)
(1.2111e-08 -6.53663e-07 -1.06239e-27)
(-8.35166e-08 -6.49483e-07 -4.09399e-28)
(2.45358e-08 -6.80962e-07 1.0879e-27)
(-7.10187e-08 -6.76403e-07 -1.25248e-27)
(3.71101e-08 -7.08199e-07 5.18984e-28)
(-5.84396e-08 -7.03406e-07 3.08126e-29)
(4.97876e-08 -7.35378e-07 2.88291e-28)
(-4.58364e-08 -7.305e-07 2.07757e-27)
(6.25197e-08 -7.62508e-07 -1.60489e-27)
(-3.32653e-08 -7.57698e-07 -3.51406e-27)
(7.52563e-08 -7.89599e-07 2.29026e-27)
(-2.07815e-08 -7.8501e-07 -6.94846e-28)
(8.79456e-08 -8.16662e-07 8.4216e-28)
(-8.43915e-09 -8.12449e-07 -1.686e-27)
(1.00535e-07 -8.4371e-07 -2.38542e-27)
(3.70871e-09 -8.40026e-07 2.55282e-27)
(1.12972e-07 -8.70756e-07 1.65674e-27)
(1.56105e-08 -8.67751e-07 -3.36666e-27)
(1.25203e-07 -8.97811e-07 2.4406e-29)
(2.72163e-08 -8.95636e-07 2.44582e-27)
(1.37174e-07 -9.24888e-07 -2.39453e-29)
(3.84779e-08 -9.23687e-07 -5.6856e-28)
(1.48833e-07 -9.51998e-07 -3.93687e-27)
(4.93489e-08 -9.51911e-07 4.00038e-27)
(1.60126e-07 -9.79151e-07 1.14089e-27)
(5.97852e-08 -9.80313e-07 1.01771e-27)
(1.71001e-07 -1.00635e-06 -1.02621e-27)
(6.97448e-08 -1.00889e-06 -6.15439e-28)
(1.81408e-07 -1.03362e-06 1.78329e-28)
(7.91878e-08 -1.03765e-06 1.0188e-28)
(1.91298e-07 -1.06094e-06 -2.32034e-27)
(8.80765e-08 -1.06658e-06 5.98355e-28)
(2.00623e-07 -1.08832e-06 2.04856e-27)
(9.63752e-08 -1.09568e-06 1.85622e-27)
(2.09339e-07 -1.11577e-06 -6.09591e-28)
(1.0405e-07 -1.12492e-06 1.32626e-28)
(2.17404e-07 -1.14327e-06 2.41239e-27)
(1.11069e-07 -1.15431e-06 1.20703e-28)
(2.24781e-07 -1.17083e-06 3.32927e-27)
(1.17404e-07 -1.18383e-06 -1.869e-27)
(2.31436e-07 -1.19843e-06 -7.40119e-29)
(1.23028e-07 -1.21345e-06 2.09672e-27)
(2.37339e-07 -1.22608e-06 -1.9491e-27)
(1.27919e-07 -1.24317e-06 -2.28718e-28)
(2.42465e-07 -1.25376e-06 -3.09096e-28)
(1.32052e-07 -1.27295e-06 1.97428e-27)
(2.46786e-07 -1.28148e-06 -1.91273e-27)
(1.35419e-07 -1.30278e-06 -6.22233e-27)
(2.50296e-07 -1.30922e-06 2.27486e-27)
(1.37953e-07 -1.33263e-06 4.27606e-27)
(2.52925e-07 -1.337e-06 2.11888e-27)
(1.39666e-07 -1.36259e-06 -2.78154e-31)
(2.54692e-07 -1.36469e-06 -1.8642e-27)
(1.40131e-07 -1.39271e-06 -5.72461e-29)
(1.55804e-07 -1.40812e-06 8.97019e-29)
(1.85945e-07 -1.40723e-06 -3.61322e-28)
(2.14703e-07 -1.40648e-06 -1.61287e-28)
(2.42087e-07 -1.40563e-06 5.66527e-29)
(2.55183e-07 -1.39222e-06 1.27493e-28)
)
;
    }
    frontAndBackPlanes
    {
        type            empty;
    }
}


// ************************************************************************* //
