/*--------------------------------*- C++ -*----------------------------------*\
| =========                 |                                                 |
| \\      /  F ield         | OpenFOAM Extend Project: Open source CFD        |
|  \\    /   O peration     | Version:  1.6-ext                               |
|   \\  /    A nd           | Web:      www.extend-project.de                 |
|    \\/     M anipulation  |                                                 |
\*---------------------------------------------------------------------------*/
FoamFile
{
    version     2.0;
    format      ascii;
    class       volVectorField;
    location    "0.2";
    object      DV;
}
// * * * * * * * * * * * * * * * * * * * * * * * * * * * * * * * * * * * * * //

dimensions      [0 1 -1 0 0 0 0];

internalField   nonuniform List<vector> 
328
(
(1.65037e-06 3.12885e-06 0)
(1.11681e-06 6.51532e-07 0)
(1.11816e-06 -6.59109e-07 0)
(1.6554e-06 -3.14594e-06 0)
(5.02867e-06 8.02589e-06 0)
(3.68101e-06 1.90184e-06 0)
(3.68573e-06 -1.92654e-06 0)
(5.04464e-06 -8.07383e-06 0)
(8.93482e-06 1.16661e-05 0)
(7.08617e-06 3.08253e-06 0)
(7.09578e-06 -3.12714e-06 0)
(8.96454e-06 -1.17437e-05 0)
(1.31919e-05 1.425e-05 0)
(1.10645e-05 4.09833e-06 0)
(1.10799e-05 -4.16613e-06 0)
(1.32375e-05 -1.43575e-05 0)
(1.78548e-05 1.60371e-05 0)
(1.56705e-05 4.91447e-06 0)
(1.56926e-05 -5.00911e-06 0)
(1.79186e-05 -1.61762e-05 0)
(2.29051e-05 1.72267e-05 0)
(2.08181e-05 5.52033e-06 0)
(2.08476e-05 -5.64612e-06 0)
(2.29893e-05 -1.74004e-05 0)
(2.83708e-05 1.79827e-05 0)
(2.64974e-05 5.93356e-06 0)
(2.65352e-05 -6.09545e-06 0)
(2.84779e-05 -1.8195e-05 0)
(3.42724e-05 1.84274e-05 0)
(3.26777e-05 6.18272e-06 0)
(3.27245e-05 -6.38659e-06 0)
(3.44049e-05 -1.86835e-05 0)
(4.0641e-05 1.86555e-05 0)
(3.93528e-05 6.30344e-06 0)
(3.94093e-05 -6.55626e-06 0)
(4.08012e-05 -1.8962e-05 0)
(4.75071e-05 1.87375e-05 0)
(4.65211e-05 6.33034e-06 0)
(4.65881e-05 -6.64059e-06 0)
(4.76978e-05 -1.91024e-05 0)
(5.49043e-05 1.87257e-05 0)
(5.41948e-05 6.29414e-06 0)
(5.42729e-05 -6.67226e-06 0)
(5.51282e-05 -1.9159e-05 0)
(6.28663e-05 1.86567e-05 0)
(6.23947e-05 6.21891e-06 0)
(6.24848e-05 -6.67789e-06 0)
(6.31263e-05 -1.91712e-05 0)
(7.14284e-05 1.8555e-05 0)
(7.11514e-05 6.12163e-06 0)
(7.12543e-05 -6.67761e-06 0)
(7.17275e-05 -1.91666e-05 0)
(8.06276e-05 1.84349e-05 0)
(8.05029e-05 6.01242e-06 0)
(8.06194e-05 -6.68539e-06 0)
(8.09688e-05 -1.91635e-05 0)
(9.05029e-05 1.83032e-05 0)
(9.04933e-05 5.89569e-06 0)
(9.06243e-05 -6.71003e-06 0)
(9.08891e-05 -1.91728e-05 0)
(0.000101096 1.8161e-05 0)
(0.000101171 5.77159e-06 0)
(0.000101318 -6.75645e-06 0)
(0.00010153 -1.92005e-05 0)
(0.000112452 1.80058e-05 0)
(0.000112589 5.63748e-06 0)
(0.000112752 -6.82697e-06 0)
(0.000112935 -1.92489e-05 0)
(0.000124618 1.78331e-05 0)
(0.000124802 5.48929e-06 0)
(0.000124981 -6.92239e-06 0)
(0.000125153 -1.93182e-05 0)
(0.000137647 1.76377e-05 0)
(0.000137867 5.32251e-06 0)
(0.000138062 -7.04279e-06 0)
(0.000138233 -1.9408e-05 0)
(0.000151591 1.74145e-05 0)
(0.000151841 5.13292e-06 0)
(0.000152053 -7.18806e-06 0)
(0.000152229 -1.95172e-05 0)
(0.000166509 1.7159e-05 0)
(0.000166785 4.91679e-06 0)
(0.000167013 -7.3583e-06 0)
(0.000167196 -1.96452e-05 0)
(0.00018246 1.68671e-05 0)
(0.000182759 4.67098e-06 0)
(0.000183003 -7.55402e-06 0)
(0.000183195 -1.9792e-05 0)
(0.000200157 1.6523e-05 0)
(0.000200478 4.3821e-06 0)
(0.000200737 -7.78463e-06 0)
(0.000200939 -1.99643e-05 0)
(0.000219015 1.61343e-05 0)
(0.000219356 4.05654e-06 0)
(0.00021963 -8.04468e-06 0)
(0.00021984 -2.01583e-05 0)
(0.000237781 1.57285e-05 0)
(0.00023814 3.71693e-06 0)
(0.000238427 -8.31606e-06 0)
(0.000238644 -2.03609e-05 0)
(0.000256451 1.5308e-05 0)
(0.000256826 3.36519e-06 0)
(0.000257122 -8.59729e-06 0)
(0.000257345 -2.05711e-05 0)
(0.000275019 1.48749e-05 0)
(0.000275408 3.00283e-06 0)
(0.000275713 -8.88719e-06 0)
(0.000275941 -2.07881e-05 0)
(0.000293483 1.44303e-05 0)
(0.000293882 2.63088e-06 0)
(0.000294196 -9.18489e-06 0)
(0.000294428 -2.10111e-05 0)
(0.000311837 1.3975e-05 0)
(0.000312246 2.24993e-06 0)
(0.000312566 -9.48984e-06 0)
(0.000312801 -2.12394e-05 0)
(0.000330079 1.35096e-05 0)
(0.000330496 1.86041e-06 0)
(0.00033082 -9.80164e-06 0)
(0.000331058 -2.14726e-05 0)
(0.000348207 1.30349e-05 0)
(0.000348628 1.46295e-06 0)
(0.000348955 -1.01196e-05 0)
(0.000349193 -2.17098e-05 0)
(0.000366217 1.25522e-05 0)
(0.000366641 1.05893e-06 0)
(0.000366968 -1.04425e-05 0)
(0.000367205 -2.19497e-05 0)
(0.000384109 1.20642e-05 0)
(0.000384531 6.50886e-07 0)
(0.000384855 -1.07676e-05 0)
(0.000385088 -2.21896e-05 0)
(0.00040188 1.15748e-05 0)
(0.000402297 2.42729e-07 0)
(0.000402614 -1.10913e-05 0)
(0.000402839 -2.2426e-05 0)
(0.000419528 1.10892e-05 0)
(0.000419936 -1.60304e-07 0)
(0.000420241 -1.14082e-05 0)
(0.000420455 -2.26537e-05 0)
(0.000437052 1.06133e-05 0)
(0.000437445 -5.52026e-07 0)
(0.000437735 -1.17122e-05 0)
(0.000437932 -2.28667e-05 0)
(0.00045445 1.01536e-05 0)
(0.000454822 -9.25877e-07 0)
(0.000455093 -1.19968e-05 0)
(0.000455268 -2.30588e-05 0)
(0.000471717 9.71596e-06 0)
(0.000472066 -1.27561e-06 0)
(0.000472312 -1.22557e-05 0)
(0.000472462 -2.32238e-05 0)
(0.000488851 9.3056e-06 0)
(0.000489172 -1.59589e-06 0)
(0.00048939 -1.24834e-05 0)
(0.000489511 -2.33562e-05 0)
(0.000505847 8.92623e-06 0)
(0.000506138 -1.88277e-06 0)
(0.000506325 -1.26758e-05 0)
(0.000506414 -2.3452e-05 0)
(0.000522703 8.58007e-06 0)
(0.000522961 -2.13384e-06 0)
(0.000523115 -1.28305e-05 0)
(0.000523168 -2.35085e-05 0)
(0.000539412 8.26793e-06 0)
(0.000539636 -2.34817e-06 0)
(0.000539756 -1.29461e-05 0)
(0.000539773 -2.3524e-05 0)
(0.000555971 7.98946e-06 0)
(0.000556161 -2.52598e-06 0)
(0.000556245 -1.30227e-05 0)
(0.000556225 -2.34982e-05 0)
(0.000572376 7.74361e-06 0)
(0.000572531 -2.66817e-06 0)
(0.000572579 -1.30608e-05 0)
(0.00057252 -2.34312e-05 0)
(0.000588621 7.52913e-06 0)
(0.000588742 -2.7758e-06 0)
(0.000588752 -1.30612e-05 0)
(0.000588653 -2.33231e-05 0)
(0.000604702 7.34505e-06 0)
(0.000604787 -2.84962e-06 0)
(0.00060476 -1.30241e-05 0)
(0.00060462 -2.31737e-05 0)
(0.000620613 7.19102e-06 0)
(0.000620663 -2.88962e-06 0)
(0.000620596 -1.29492e-05 0)
(0.000620414 -2.29821e-05 0)
(0.000636349 7.06756e-06 0)
(0.000636363 -2.89488e-06 0)
(0.000636254 -1.28351e-05 0)
(0.000636028 -2.27464e-05 0)
(0.000651905 6.97613e-06 0)
(0.000651879 -2.86343e-06 0)
(0.000651727 -1.26792e-05 0)
(0.000651454 -2.24636e-05 0)
(0.000667271 6.91902e-06 0)
(0.000667204 -2.79237e-06 0)
(0.000667006 -1.24782e-05 0)
(0.000666682 -2.21299e-05 0)
(0.000682441 6.8992e-06 0)
(0.00068233 -2.67805e-06 0)
(0.000682084 -1.22279e-05 0)
(0.000681705 -2.17405e-05 0)
(0.000697404 6.91998e-06 0)
(0.000697248 -2.51644e-06 0)
(0.000696949 -1.19236e-05 0)
(0.000696513 -2.12905e-05 0)
(0.00071215 6.98472e-06 0)
(0.000711946 -2.30343e-06 0)
(0.000711592 -1.15606e-05 0)
(0.000711094 -2.07746e-05 0)
(0.000726668 7.09644e-06 0)
(0.000726413 -2.03521e-06 0)
(0.000726002 -1.11345e-05 0)
(0.000725439 -2.01879e-05 0)
(0.000740944 7.25755e-06 0)
(0.000740636 -1.70863e-06 0)
(0.000740166 -1.06414e-05 0)
(0.000739535 -1.95262e-05 0)
(0.000754964 7.46957e-06 0)
(0.000754603 -1.32144e-06 0)
(0.000754071 -1.00785e-05 0)
(0.000753371 -1.87858e-05 0)
(0.000768712 7.73295e-06 0)
(0.000768298 -8.72493e-07 0)
(0.000767705 -9.44399e-06 0)
(0.000766932 -1.79644e-05 0)
(0.000782173 8.04707e-06 0)
(0.000781706 -3.61793e-07 0)
(0.000781051 -8.73717e-06 0)
(0.000780206 -1.70607e-05 0)
(0.000795329 8.41025e-06 0)
(0.000794811 2.09548e-07 0)
(0.000794093 -7.95852e-06 0)
(0.000793177 -1.60744e-05 0)
(0.000808163 8.81997e-06 0)
(0.000807594 8.39502e-07 0)
(0.000806817 -7.10947e-06 0)
(0.000805828 -1.50063e-05 0)
(0.000820655 9.27317e-06 0)
(0.000820039 1.52543e-06 0)
(0.000819202 -6.19209e-06 0)
(0.000818143 -1.38578e-05 0)
(0.000832788 9.76658e-06 0)
(0.000832126 2.26444e-06 0)
(0.000831231 -5.20875e-06 0)
(0.000830102 -1.26306e-05 0)
(0.000844542 1.02972e-05 0)
(0.000843836 3.05384e-06 0)
(0.000842885 -4.16173e-06 0)
(0.000841687 -1.13264e-05 0)
(0.000855898 1.08626e-05 0)
(0.00085515 3.89146e-06 0)
(0.000854144 -3.05285e-06 0)
(0.000852878 -9.94682e-06 0)
(0.000866836 1.14611e-05 0)
(0.000866047 4.77594e-06 0)
(0.000864986 -1.88325e-06 0)
(0.000863655 -8.49268e-06 0)
(0.000877335 1.20922e-05 0)
(0.000876506 5.70679e-06 0)
(0.000875393 -6.53309e-07 0)
(0.000873996 -6.9644e-06 0)
(0.000887376 1.2756e-05 0)
(0.000886508 6.68422e-06 0)
(0.000885343 6.37129e-07 0)
(0.000883881 -5.36198e-06 0)
(0.000896938 1.3453e-05 0)
(0.000896032 7.70874e-06 0)
(0.000894816 1.98838e-06 0)
(0.000893291 -3.68546e-06 0)
(0.000906001 1.41836e-05 0)
(0.000905058 8.78055e-06 0)
(0.000903793 3.40029e-06 0)
(0.000902207 -1.93547e-06 0)
(0.000914545 1.49476e-05 0)
(0.000913566 9.89898e-06 0)
(0.000912255 4.87168e-06 0)
(0.00091061 -1.13788e-07 0)
(0.00092255 1.57434e-05 0)
(0.000921538 1.10619e-05 0)
(0.000920184 6.39978e-06 0)
(0.000918484 1.77622e-06 0)
(0.000929998 1.65682e-05 0)
(0.000928956 1.22655e-05 0)
(0.000927562 7.98011e-06 0)
(0.000925812 3.72947e-06 0)
(0.000936873 1.74176e-05 0)
(0.000935804 1.35048e-05 0)
(0.000934374 9.60676e-06 0)
(0.000932579 5.73947e-06 0)
(0.000943157 1.8287e-05 0)
(0.000942066 1.47738e-05 0)
(0.000940605 1.12731e-05 0)
(0.00093877 7.79905e-06 0)
(0.000948839 1.91713e-05 0)
(0.000947728 1.60669e-05 0)
(0.000946241 1.29728e-05 0)
(0.000944371 9.90144e-06 0)
(0.000953904 2.00667e-05 0)
(0.000952777 1.73794e-05 0)
(0.000951268 1.47009e-05 0)
(0.000949368 1.2041e-05 0)
(0.000958342 2.09697e-05 0)
(0.000957202 1.87076e-05 0)
(0.000955673 1.6454e-05 0)
(0.000953749 1.42144e-05 0)
(0.000962142 2.18779e-05 0)
(0.000960989 2.00488e-05 0)
(0.000959444 1.823e-05 0)
(0.000957501 1.64191e-05 0)
(0.000965296 2.27871e-05 0)
(0.000964128 2.13998e-05 0)
(0.00096257 2.00276e-05 0)
(0.000960617 1.86545e-05 0)
(0.000967786 2.37e-05 0)
(0.000966596 2.27596e-05 0)
(0.000965029 2.18402e-05 0)
(0.000963079 2.09102e-05 0)
(0.000969633 2.46208e-05 0)
(0.000968409 2.41288e-05 0)
(0.000966836 2.36565e-05 0)
(0.000964908 2.31711e-05 0)
(0.000970769 2.56801e-05 0)
(0.000969507 2.55414e-05 0)
(0.000967931 2.5432e-05 0)
(0.000966033 2.52993e-05 0)
)
;

boundaryField
{
    plateFix
    {
        type            calculated;
        value           uniform (0 0 0);
    }
    plate
    {
        type            calculated;
        value           nonuniform List<vector> 
168
(
(1.54345e-05 8.37217e-06 -3.59006e-24)
(1.54112e-05 -8.41757e-06 6.19383e-25)
(1.50807e-05 1.34483e-05 2.34932e-24)
(1.50667e-05 -1.35263e-05 6.69996e-25)
(1.57858e-05 1.73485e-05 -4.15949e-25)
(1.57863e-05 -1.74586e-05 -2.28835e-24)
(1.76922e-05 2.00434e-05 -2.50425e-24)
(1.7713e-05 -2.01851e-05 2.15851e-24)
(2.07263e-05 2.19238e-05 1.30904e-24)
(2.07723e-05 -2.20988e-05 -7.52242e-25)
(2.46683e-05 2.31713e-05 -6.29619e-26)
(2.47433e-05 -2.33824e-05 -1.31761e-24)
(2.93987e-05 2.39762e-05 -1.12578e-24)
(2.95059e-05 -2.42273e-05 6.02234e-26)
(3.48233e-05 2.4461e-05 1.4026e-24)
(3.49659e-05 -2.47571e-05 5.08369e-25)
(4.08932e-05 2.47248e-05 -1.9077e-24)
(4.10746e-05 -2.50722e-05 1.37334e-24)
(4.75808e-05 2.48376e-05 2.55357e-24)
(4.78047e-05 -2.52442e-05 -1.33788e-24)
(5.48779e-05 2.48514e-05 -1.83161e-24)
(5.51484e-05 -2.53273e-05 2.72342e-25)
(6.27889e-05 2.48023e-05 -2.25694e-24)
(6.31104e-05 -2.53601e-05 1.97019e-25)
(7.13283e-05 2.47148e-05 3.00094e-24)
(7.17056e-05 -2.53703e-05 5.21721e-27)
(8.05192e-05 2.46034e-05 1.21608e-24)
(8.0957e-05 -2.53761e-05 -1.44091e-24)
(9.03918e-05 2.44752e-05 -9.64379e-25)
(9.08944e-05 -2.53889e-05 6.30929e-24)
(0.000100983 2.4332e-05 -8.24635e-24)
(0.000101554 -2.54152e-05 -6.15836e-24)
(0.000112335 2.41717e-05 -2.62878e-25)
(0.000112977 -2.54578e-05 2.31358e-24)
(0.000124494 2.39903e-05 6.67376e-24)
(0.00012521 -2.55173e-05 -7.31789e-25)
(0.000137514 2.37827e-05 -4.44022e-25)
(0.000138302 -2.55934e-05 1.25322e-24)
(0.000151448 2.35439e-05 1.43229e-23)
(0.000152306 -2.56853e-05 -8.7254e-24)
(0.000166354 2.32693e-05 1.22541e-24)
(0.000167281 -2.57925e-05 2.77733e-23)
(0.000182293 2.2955e-05 -1.35597e-23)
(0.000183284 -2.59148e-05 -2.56077e-23)
(0.000199977 2.25836e-05 -1.43238e-23)
(0.000201031 -2.6058e-05 -1.26627e-24)
(0.000218823 2.21638e-05 -1.30949e-24)
(0.000219935 -2.62191e-05 7.47789e-24)
(0.000237578 2.17253e-05 7.79609e-25)
(0.00023874 -2.63875e-05 -2.65702e-23)
(0.000256239 2.12709e-05 9.59376e-24)
(0.000257442 -2.65625e-05 1.40842e-23)
(0.0002748 2.08028e-05 4.37329e-24)
(0.000276039 -2.67434e-05 1.82232e-23)
(0.000293256 2.03224e-05 4.28012e-25)
(0.000294526 -2.69294e-05 -1.06133e-23)
(0.000311604 1.98304e-05 2.25156e-23)
(0.000312901 -2.71198e-05 -1.90748e-23)
(0.000329841 1.93275e-05 -4.24652e-23)
(0.000331158 -2.73139e-05 1.77969e-23)
(0.000347964 1.88146e-05 1.98956e-23)
(0.000349295 -2.75109e-05 1.05883e-23)
(0.000365971 1.82931e-05 5.94843e-24)
(0.000367306 -2.77093e-05 -5.7795e-24)
(0.000383861 1.77657e-05 -2.02916e-23)
(0.000385188 -2.79066e-05 -6.33451e-24)
(0.000401634 1.72363e-05 1.20223e-23)
(0.000402936 -2.8099e-05 1.68281e-24)
(0.000419287 1.67101e-05 7.75415e-24)
(0.000420547 -2.82817e-05 -8.53536e-25)
(0.000436818 1.61928e-05 -2.35526e-23)
(0.000438015 -2.84488e-05 8.84832e-24)
(0.000454226 1.56907e-05 1.15253e-24)
(0.00045534 -2.85941e-05 -2.71402e-24)
(0.000471507 1.52097e-05 -1.01951e-24)
(0.00047252 -2.87116e-05 5.72836e-24)
(0.000488656 1.47547e-05 2.2947e-23)
(0.000489552 -2.8796e-05 -1.05613e-23)
(0.00050567 1.43293e-05 2.68822e-24)
(0.000506437 -2.88432e-05 -2.66633e-24)
(0.000522543 1.39357e-05 -1.60926e-27)
(0.000523172 -2.88503e-05 -2.89752e-24)
(0.000539271 1.35746e-05 -2.02151e-23)
(0.000539757 -2.88155e-05 2.09631e-23)
(0.000555848 1.32457e-05 1.75433e-23)
(0.000556189 -2.87384e-05 -1.76941e-23)
(0.000572269 1.29479e-05 -8.75271e-24)
(0.000572464 -2.86185e-05 -2.7917e-24)
(0.00058853 1.26799e-05 2.38345e-23)
(0.000588578 -2.84559e-05 -4.14635e-24)
(0.000604627 1.24406e-05 -1.29058e-23)
(0.000604526 -2.825e-05 1.05585e-23)
(0.000620555 1.22295e-05 -6.13501e-24)
(0.000620299 -2.79997e-05 -1.3673e-23)
(0.000636308 1.2047e-05 8.9985e-24)
(0.000635891 -2.77026e-05 1.7053e-23)
(0.00065188 1.18942e-05 2.34482e-24)
(0.000651293 -2.73557e-05 -1.63216e-23)
(0.000667266 1.17732e-05 1.10113e-23)
(0.000666496 -2.69548e-05 1.80043e-23)
(0.000682456 1.16865e-05 -1.66547e-23)
(0.000681491 -2.64951e-05 4.41611e-24)
(0.000697441 1.1637e-05 5.88437e-24)
(0.000696268 -2.59714e-05 -9.7494e-24)
(0.000712211 1.16278e-05 -5.03147e-24)
(0.000710817 -2.53783e-05 -1.70724e-24)
(0.000726753 1.16613e-05 -7.40433e-24)
(0.000725126 -2.47106e-05 -4.65199e-24)
(0.000741055 1.17397e-05 7.97893e-24)
(0.000739185 -2.39637e-05 1.31328e-23)
(0.000755101 1.18641e-05 2.95993e-24)
(0.000752982 -2.3134e-05 4.28436e-25)
(0.000768876 1.20345e-05 2.79535e-24)
(0.000766505 -2.22186e-05 1.04872e-25)
(0.000782363 1.22501e-05 -4.76826e-24)
(0.000779739 -2.1216e-05 -3.61063e-24)
(0.000795543 1.25089e-05 -5.81821e-24)
(0.00079267 -2.01256e-05 8.12451e-24)
(0.0008084 1.28082e-05 1.42303e-23)
(0.000805282 -1.89477e-05 -4.87452e-24)
(0.000820914 1.31447e-05 4.30123e-25)
(0.000817558 -1.76834e-05 -2.94717e-24)
(0.000833067 1.3515e-05 3.73777e-24)
(0.000829481 -1.63341e-05 6.10119e-24)
(0.00084484 1.3916e-05 -6.94542e-24)
(0.00084103 -1.49013e-05 -6.85539e-24)
(0.000856213 1.43451e-05 1.07187e-23)
(0.000852185 -1.33862e-05 1.70693e-24)
(0.000867168 1.48007e-05 -1.00038e-23)
(0.000862926 -1.17897e-05 -1.03556e-24)
(0.000877684 1.5282e-05 2.85277e-24)
(0.000873231 -1.01123e-05 1.15867e-23)
(0.000887742 1.57891e-05 -8.98401e-24)
(0.000883081 -8.35392e-06 1.78811e-24)
(0.000897322 1.63226e-05 -2.95225e-24)
(0.000892456 -6.51497e-06 -2.85394e-24)
(0.000906402 1.68828e-05 -1.21688e-24)
(0.000901337 -4.59631e-06 1.20592e-24)
(0.000914963 1.74697e-05 -3.29489e-24)
(0.000909707 -2.60003e-06 3.25329e-24)
(0.000922984 1.80821e-05 -1.87899e-24)
(0.000917549 -5.29796e-07 7.78048e-25)
(0.000930446 1.87174e-05 -6.66278e-24)
(0.000924848 1.60905e-06 -1.72185e-24)
(0.000937332 1.93719e-05 1.07859e-24)
(0.00093159 3.80981e-06 -5.03352e-24)
(0.000943626 2.00413e-05 1.83709e-24)
(0.000937759 6.06514e-06 -5.25651e-24)
(0.000949314 2.07214e-05 5.51293e-24)
(0.000943341 8.36809e-06 1.97561e-24)
(0.000954385 2.14084e-05 -2.14346e-24)
(0.000948321 1.07128e-05 1.82557e-24)
(0.000958827 2.20991e-05 -1.44357e-24)
(0.000952687 1.30958e-05 -1.51318e-24)
(0.000962629 2.27917e-05 -2.72153e-24)
(0.000956424 1.55138e-05 1.66368e-24)
(0.000965784 2.34811e-05 1.0136e-23)
(0.000959529 1.79669e-05 2.76168e-24)
(0.000968279 2.41743e-05 -6.30386e-24)
(0.000961986 2.04403e-05 -1.49188e-23)
(0.000970164 2.48655e-05 1.21608e-24)
(0.000963847 2.29287e-05 3.64894e-24)
(0.000971407 2.57273e-05 2.38168e-24)
(0.000971107 2.63427e-05 3.29912e-24)
(0.000969848 2.62605e-05 -2.07479e-24)
(0.00096827 2.63011e-05 2.06202e-24)
(0.000966369 2.62339e-05 4.81195e-25)
(0.000965074 2.52527e-05 8.82417e-25)
)
;
    }
    frontAndBackPlanes
    {
        type            empty;
    }
}


// ************************************************************************* //
