/*--------------------------------*- C++ -*----------------------------------*\
| =========                 |                                                 |
| \\      /  F ield         | OpenFOAM Extend Project: Open source CFD        |
|  \\    /   O peration     | Version:  1.6-ext                               |
|   \\  /    A nd           | Web:      www.extend-project.de                 |
|    \\/     M anipulation  |                                                 |
\*---------------------------------------------------------------------------*/
FoamFile
{
    version     2.0;
    format      ascii;
    class       volVectorField;
    location    "0.2";
    object      DV_0;
}
// * * * * * * * * * * * * * * * * * * * * * * * * * * * * * * * * * * * * * //

dimensions      [0 1 -1 0 0 0 0];

internalField   nonuniform List<vector> 
328
(
(1.3956e-06 2.60873e-06 0)
(9.55302e-07 5.53156e-07 0)
(9.57125e-07 -5.35957e-07 0)
(1.40655e-06 -2.60731e-06 0)
(4.25367e-06 6.69569e-06 0)
(3.14241e-06 1.61275e-06 0)
(3.14897e-06 -1.56825e-06 0)
(4.28643e-06 -6.68687e-06 0)
(7.55452e-06 9.73768e-06 0)
(6.032e-06 2.61228e-06 0)
(6.04578e-06 -2.54617e-06 0)
(7.61154e-06 -9.71735e-06 0)
(1.1152e-05 1.19009e-05 0)
(9.40206e-06 3.47318e-06 0)
(9.42383e-06 -3.39005e-06 0)
(1.12339e-05 -1.18667e-05 0)
(1.5092e-05 1.34015e-05 0)
(1.3298e-05 4.16726e-06 0)
(1.33286e-05 -4.07099e-06 0)
(1.51997e-05 -1.33532e-05 0)
(1.93601e-05 1.44064e-05 0)
(1.76486e-05 4.6864e-06 0)
(1.76884e-05 -4.58076e-06 0)
(1.94938e-05 -1.43453e-05 0)
(2.39803e-05 1.50527e-05 0)
(2.24466e-05 5.04578e-06 0)
(2.24957e-05 -4.93513e-06 0)
(2.41405e-05 -1.49821e-05 0)
(2.89705e-05 1.54424e-05 0)
(2.76673e-05 5.26939e-06 0)
(2.77257e-05 -5.15932e-06 0)
(2.91578e-05 -1.53678e-05 0)
(3.43577e-05 1.56545e-05 0)
(3.33069e-05 5.38672e-06 0)
(3.3375e-05 -5.28475e-06 0)
(3.45728e-05 -1.55839e-05 0)
(4.0169e-05 1.5747e-05 0)
(3.9366e-05 5.42614e-06 0)
(3.94439e-05 -5.34231e-06 0)
(4.0413e-05 -1.56913e-05 0)
(4.64338e-05 1.57629e-05 0)
(4.58568e-05 5.41252e-06 0)
(4.59449e-05 -5.3599e-06 0)
(4.67082e-05 -1.57359e-05 0)
(5.31826e-05 1.57319e-05 0)
(5.27994e-05 5.36517e-06 0)
(5.28982e-05 -5.36021e-06 0)
(5.34892e-05 -1.57507e-05 0)
(6.04478e-05 1.5674e-05 0)
(6.02223e-05 5.29757e-06 0)
(6.03324e-05 -5.36033e-06 0)
(6.07883e-05 -1.57591e-05 0)
(6.82634e-05 1.56009e-05 0)
(6.81605e-05 5.21778e-06 0)
(6.82825e-05 -5.37198e-06 0)
(6.86399e-05 -1.57761e-05 0)
(7.66663e-05 1.55183e-05 0)
(7.6655e-05 5.12948e-06 0)
(7.67897e-05 -5.40242e-06 0)
(7.70805e-05 -1.58111e-05 0)
(8.56962e-05 1.54278e-05 0)
(8.57516e-05 5.03308e-06 0)
(8.58996e-05 -5.45554e-06 0)
(8.615e-05 -1.58689e-05 0)
(9.53967e-05 1.53284e-05 0)
(9.54997e-05 4.92699e-06 0)
(9.56615e-05 -5.53303e-06 0)
(9.58914e-05 -1.59516e-05 0)
(0.000105815 1.52174e-05 0)
(0.000105952 4.80847e-06 0)
(0.000106129 -5.63548e-06 0)
(0.000106352 -1.606e-05 0)
(0.000117003 1.50918e-05 0)
(0.000117166 4.67431e-06 0)
(0.000117357 -5.76325e-06 0)
(0.000117583 -1.61945e-05 0)
(0.000129017 1.49484e-05 0)
(0.0001292 4.52119e-06 0)
(0.000129406 -5.91702e-06 0)
(0.000129642 -1.63562e-05 0)
(0.000141919 1.47844e-05 0)
(0.00014212 4.34586e-06 0)
(0.000142341 -6.09825e-06 0)
(0.000142589 -1.65469e-05 0)
(0.000155777 1.45974e-05 0)
(0.000155993 4.14522e-06 0)
(0.000156229 -6.30921e-06 0)
(0.000156492 -1.67696e-05 0)
(0.000171233 1.43776e-05 0)
(0.000171463 3.90766e-06 0)
(0.000171716 -6.56216e-06 0)
(0.000171996 -1.70383e-05 0)
(0.000187814 1.41308e-05 0)
(0.000188058 3.63774e-06 0)
(0.000188327 -6.85345e-06 0)
(0.000188625 -1.73507e-05 0)
(0.000204438 1.38758e-05 0)
(0.000204694 3.35434e-06 0)
(0.000204978 -7.16374e-06 0)
(0.000205293 -1.76875e-05 0)
(0.000221112 1.36146e-05 0)
(0.000221379 3.05909e-06 0)
(0.000221676 -7.4917e-06 0)
(0.000222009 -1.80475e-05 0)
(0.000237843 1.33484e-05 0)
(0.000238119 2.75297e-06 0)
(0.000238429 -7.83646e-06 0)
(0.000238778 -1.84301e-05 0)
(0.000254638 1.30772e-05 0)
(0.000254922 2.43622e-06 0)
(0.000255244 -8.19756e-06 0)
(0.000255607 -1.88345e-05 0)
(0.000271505 1.28008e-05 0)
(0.000271795 2.10879e-06 0)
(0.000272127 -8.57471e-06 0)
(0.000272505 -1.926e-05 0)
(0.00028845 1.25192e-05 0)
(0.000288745 1.77087e-06 0)
(0.000289086 -8.96725e-06 0)
(0.000289476 -1.97053e-05 0)
(0.000305481 1.22328e-05 0)
(0.000305779 1.42354e-06 0)
(0.000306125 -9.3736e-06 0)
(0.000306526 -2.01684e-05 0)
(0.000322605 1.19434e-05 0)
(0.000322903 1.06906e-06 0)
(0.000323252 -9.79096e-06 0)
(0.000323659 -2.06458e-05 0)
(0.000339827 1.16541e-05 0)
(0.000340121 7.11013e-07 0)
(0.000340469 -1.02152e-05 0)
(0.000340879 -2.11329e-05 0)
(0.000357151 1.13688e-05 0)
(0.000357438 3.54038e-07 0)
(0.000357782 -1.06411e-05 0)
(0.00035819 -2.16241e-05 0)
(0.000374582 1.10919e-05 0)
(0.000374858 3.32808e-09 0)
(0.000375193 -1.10629e-05 0)
(0.000375595 -2.21132e-05 0)
(0.000392123 1.08277e-05 0)
(0.000392384 -3.35913e-07 0)
(0.000392705 -1.14746e-05 0)
(0.000393096 -2.25937e-05 0)
(0.000409774 1.05804e-05 0)
(0.000410016 -6.58956e-07 0)
(0.00041032 -1.1871e-05 0)
(0.000410695 -2.30596e-05 0)
(0.000427535 1.03529e-05 0)
(0.000427756 -9.61843e-07 0)
(0.000428039 -1.22472e-05 0)
(0.000428393 -2.35055e-05 0)
(0.000445405 1.01477e-05 0)
(0.000445602 -1.24144e-06 0)
(0.000445861 -1.25994e-05 0)
(0.000446189 -2.39266e-05 0)
(0.000463382 9.96628e-06 0)
(0.000463552 -1.4953e-06 0)
(0.000463783 -1.29241e-05 0)
(0.000464083 -2.43187e-05 0)
(0.000481462 9.8099e-06 0)
(0.000481603 -1.72135e-06 0)
(0.000481804 -1.32184e-05 0)
(0.00048207 -2.46777e-05 0)
(0.000499641 9.67962e-06 0)
(0.000499751 -1.91759e-06 0)
(0.000499917 -1.34792e-05 0)
(0.000500146 -2.49996e-05 0)
(0.000517912 9.57666e-06 0)
(0.000517989 -2.08178e-06 0)
(0.000518118 -1.37033e-05 0)
(0.000518305 -2.52801e-05 0)
(0.000536267 9.50254e-06 0)
(0.000536309 -2.21134e-06 0)
(0.000536397 -1.38869e-05 0)
(0.000536539 -2.55142e-05 0)
(0.000554696 9.45908e-06 0)
(0.000554701 -2.30329e-06 0)
(0.000554746 -1.40261e-05 0)
(0.000554837 -2.56969e-05 0)
(0.00057319 9.44832e-06 0)
(0.000573156 -2.35435e-06 0)
(0.000573154 -1.41162e-05 0)
(0.00057319 -2.58225e-05 0)
(0.000591734 9.47234e-06 0)
(0.000591659 -2.3612e-06 0)
(0.000591606 -1.41529e-05 0)
(0.000591583 -2.58854e-05 0)
(0.000610314 9.53303e-06 0)
(0.000610195 -2.32065e-06 0)
(0.00061009 -1.41316e-05 0)
(0.000610003 -2.588e-05 0)
(0.000628912 9.63195e-06 0)
(0.000628748 -2.22985e-06 0)
(0.000628587 -1.40483e-05 0)
(0.000628433 -2.58011e-05 0)
(0.000647509 9.77013e-06 0)
(0.0006473 -2.08646e-06 0)
(0.000647081 -1.38994e-05 0)
(0.000646855 -2.5644e-05 0)
(0.000666085 9.94809e-06 0)
(0.000665829 -1.8887e-06 0)
(0.00066555 -1.36819e-05 0)
(0.00066525 -2.54043e-05 0)
(0.000684616 1.01658e-05 0)
(0.000684314 -1.63536e-06 0)
(0.000683974 -1.33933e-05 0)
(0.000683596 -2.50783e-05 0)
(0.000703078 1.04227e-05 0)
(0.00070273 -1.32577e-06 0)
(0.000702327 -1.30317e-05 0)
(0.00070187 -2.4663e-05 0)
(0.000721445 1.07177e-05 0)
(0.000721051 -9.59735e-07 0)
(0.000720586 -1.25958e-05 0)
(0.000720047 -2.41558e-05 0)
(0.000739688 1.10495e-05 0)
(0.00073925 -5.37525e-07 0)
(0.000738721 -1.20845e-05 0)
(0.0007381 -2.35545e-05 0)
(0.000757777 1.14161e-05 0)
(0.000757296 -5.98526e-08 0)
(0.000756704 -1.14975e-05 0)
(0.000756001 -2.28577e-05 0)
(0.000775682 1.18155e-05 0)
(0.000775159 4.72111e-07 0)
(0.000774505 -1.08348e-05 0)
(0.000773718 -2.20642e-05 0)
(0.000793367 1.22448e-05 0)
(0.000792806 1.05671e-06 0)
(0.000792092 -1.00971e-05 0)
(0.000791221 -2.11736e-05 0)
(0.000810801 1.27011e-05 0)
(0.000810202 1.6918e-06 0)
(0.000809429 -9.28556e-06 0)
(0.000808476 -2.01861e-05 0)
(0.000827946 1.31809e-05 0)
(0.000827313 2.37479e-06 0)
(0.000826483 -8.40182e-06 0)
(0.000825448 -1.91024e-05 0)
(0.000844765 1.36805e-05 0)
(0.000844102 3.10271e-06 0)
(0.000843216 -7.44803e-06 0)
(0.000842101 -1.79237e-05 0)
(0.000861222 1.41961e-05 0)
(0.000860531 3.87246e-06 0)
(0.000859591 -6.42656e-06 0)
(0.000858397 -1.66515e-05 0)
(0.000877277 1.47243e-05 0)
(0.00087656 4.68096e-06 0)
(0.000875569 -5.33984e-06 0)
(0.000874297 -1.52876e-05 0)
(0.000892891 1.52617e-05 0)
(0.000892151 5.52552e-06 0)
(0.00089111 -4.19002e-06 0)
(0.000889762 -1.38336e-05 0)
(0.000908025 1.5806e-05 0)
(0.000907263 6.40409e-06 0)
(0.000906174 -2.97875e-06 0)
(0.000904751 -1.22906e-05 0)
(0.000922638 1.63557e-05 0)
(0.000921857 7.31547e-06 0)
(0.00092072 -1.70697e-06 0)
(0.000919223 -1.06594e-05 0)
(0.00093669 1.69104e-05 0)
(0.00093589 8.25938e-06 0)
(0.000934707 -3.74833e-07 0)
(0.000933137 -8.94017e-06 0)
(0.00095014 1.74705e-05 0)
(0.000949322 9.2364e-06 0)
(0.000948094 1.01813e-06 0)
(0.000946452 -7.1327e-06 0)
(0.000962948 1.80373e-05 0)
(0.000962112 1.02475e-05 0)
(0.000960841 2.47262e-06 0)
(0.000959128 -5.23682e-06 0)
(0.000975074 1.86118e-05 0)
(0.000974221 1.12935e-05 0)
(0.000972909 3.98894e-06 0)
(0.000971127 -3.25301e-06 0)
(0.000986477 1.91947e-05 0)
(0.000985609 1.23744e-05 0)
(0.000984258 5.56615e-06 0)
(0.000982411 -1.1832e-06 0)
(0.000997119 1.97851e-05 0)
(0.000996239 1.34881e-05 0)
(0.000994852 7.20129e-06 0)
(0.000992946 9.68475e-07 0)
(0.00100696 2.03804e-05 0)
(0.00100607 1.46307e-05 0)
(0.00100466 8.88879e-06 0)
(0.0010027 3.19511e-06 0)
(0.00101598 2.0976e-05 0)
(0.00101508 1.57955e-05 0)
(0.00101364 1.06204e-05 0)
(0.00101163 5.48694e-06 0)
(0.00102413 2.15659e-05 0)
(0.00102323 1.69741e-05 0)
(0.00102177 1.23859e-05 0)
(0.00101973 7.83211e-06 0)
(0.00103139 2.21438e-05 0)
(0.00103049 1.81576e-05 0)
(0.00102902 1.41742e-05 0)
(0.00102695 1.02178e-05 0)
(0.00103774 2.27041e-05 0)
(0.00103685 1.93384e-05 0)
(0.00103536 1.59761e-05 0)
(0.00103328 1.26329e-05 0)
(0.00104316 2.32452e-05 0)
(0.00104227 2.05118e-05 0)
(0.00104078 1.77847e-05 0)
(0.00103868 1.50683e-05 0)
(0.00104765 2.37654e-05 0)
(0.00104676 2.1676e-05 0)
(0.00104526 1.95988e-05 0)
(0.00104316 1.75223e-05 0)
(0.00105116 2.42764e-05 0)
(0.00105026 2.2837e-05 0)
(0.00104877 2.14157e-05 0)
(0.00104668 1.9986e-05 0)
(0.00105375 2.47856e-05 0)
(0.00105282 2.40018e-05 0)
(0.00105133 2.32334e-05 0)
(0.00104926 2.24569e-05 0)
(0.00105528 2.54591e-05 0)
(0.00105433 2.52172e-05 0)
(0.00105283 2.50054e-05 0)
(0.0010508 2.47689e-05 0)
)
;

boundaryField
{
    plateFix
    {
        type            calculated;
        value           uniform (0 0 0);
    }
    plate
    {
        type            calculated;
        value           nonuniform List<vector> 
168
(
(1.27498e-05 6.96416e-06 7.39911e-24)
(1.29461e-05 -6.98553e-06 -1.16043e-24)
(1.25166e-05 1.12008e-05 -6.97179e-24)
(1.27065e-05 -1.12142e-05 -8.11371e-25)
(1.3163e-05 1.446e-05 1.29957e-24)
(1.33569e-05 -1.44614e-05 2.75211e-24)
(1.48131e-05 1.67171e-05 4.27175e-24)
(1.50168e-05 -1.67026e-05 -1.45577e-24)
(1.74073e-05 1.82973e-05 -3.91669e-25)
(1.76257e-05 -1.82663e-05 -1.33463e-25)
(2.07635e-05 1.93526e-05 -3.21689e-24)
(2.10008e-05 -1.93063e-05 2.82777e-25)
(2.47822e-05 2.00422e-05 3.57152e-24)
(2.50423e-05 -1.99839e-05 1.3466e-25)
(2.93854e-05 2.04683e-05 -2.10256e-24)
(2.96722e-05 -2.04039e-05 -3.22847e-25)
(3.45328e-05 2.07134e-05 3.49276e-24)
(3.485e-05 -2.06515e-05 -3.04386e-25)
(4.02028e-05 2.08356e-05 -3.53205e-24)
(4.05541e-05 -2.07871e-05 1.07155e-24)
(4.63906e-05 2.08776e-05 5.29745e-28)
(4.67795e-05 -2.08568e-05 -5.25493e-26)
(5.31022e-05 2.08691e-05 2.82935e-24)
(5.35323e-05 -2.08931e-05 -3.78884e-24)
(6.0353e-05 2.08298e-05 -2.19082e-24)
(6.08276e-05 -2.09193e-05 2.84996e-24)
(6.81662e-05 2.07718e-05 -5.56361e-24)
(6.86881e-05 -2.09507e-05 1.08807e-24)
(7.65714e-05 2.07015e-05 4.87046e-24)
(7.7143e-05 -2.09971e-05 -3.03617e-24)
(8.56044e-05 2.06209e-05 6.11582e-24)
(8.62278e-05 -2.10638e-05 3.72673e-24)
(9.53069e-05 2.05296e-05 -3.0027e-24)
(9.59834e-05 -2.11535e-05 -3.17818e-24)
(0.000105725 2.04256e-05 -2.37107e-24)
(0.000106456 -2.12678e-05 1.32071e-24)
(0.000116911 2.03063e-05 7.06673e-25)
(0.000117698 -2.14075e-05 -3.02879e-26)
(0.000128922 2.0169e-05 -6.47634e-24)
(0.000129766 -2.15741e-05 -4.30871e-24)
(0.000141819 2.00114e-05 -6.57791e-24)
(0.000142721 -2.177e-05 -7.41828e-24)
(0.000155671 1.98318e-05 1.26334e-23)
(0.000156633 -2.19989e-05 2.04977e-23)
(0.00017112 1.96213e-05 5.01878e-24)
(0.000172145 -2.22757e-05 1.79468e-24)
(0.000187694 1.93866e-05 -6.51906e-25)
(0.000188783 -2.25988e-05 -1.26712e-23)
(0.000204313 1.91462e-05 4.54093e-24)
(0.00020546 -2.29488e-05 3.84807e-23)
(0.000220982 1.89024e-05 -1.12986e-23)
(0.000222184 -2.3325e-05 -2.22401e-23)
(0.000237708 1.86563e-05 -1.08994e-23)
(0.000238961 -2.37265e-05 7.53371e-24)
(0.0002545 1.84081e-05 1.09257e-23)
(0.0002558 -2.41526e-05 -1.44714e-23)
(0.000271363 1.81575e-05 -1.29629e-23)
(0.000272706 -2.46021e-05 -8.15255e-24)
(0.000288305 1.79041e-05 1.94315e-23)
(0.000289685 -2.50736e-05 1.94694e-23)
(0.000305334 1.76485e-05 -2.9813e-24)
(0.000306742 -2.55646e-05 -2.68416e-23)
(0.000322457 1.73919e-05 -4.03041e-24)
(0.000323881 -2.60715e-05 1.01503e-23)
(0.00033968 1.71373e-05 2.52814e-23)
(0.000341105 -2.65894e-05 -1.01734e-23)
(0.000357009 1.6888e-05 -1.99341e-23)
(0.000358417 -2.71124e-05 1.71248e-23)
(0.000374446 1.66481e-05 -1.3474e-23)
(0.000375819 -2.76342e-05 5.45084e-24)
(0.000391995 1.64217e-05 2.50868e-23)
(0.000393315 -2.81482e-05 -2.67718e-24)
(0.000409656 1.62122e-05 -8.35544e-24)
(0.000410905 -2.8648e-05 -9.91192e-24)
(0.000427429 1.60223e-05 1.60225e-23)
(0.000428593 -2.91279e-05 1.91048e-24)
(0.000445313 1.58541e-05 -2.35029e-23)
(0.000446376 -2.95826e-05 7.74418e-24)
(0.000463303 1.57086e-05 -2.33933e-24)
(0.000464254 -3.00075e-05 -2.21092e-24)
(0.000481398 1.55867e-05 4.98505e-24)
(0.000482225 -3.0398e-05 1.40191e-23)
(0.000499591 1.54891e-05 -5.05729e-26)
(0.000500282 -3.07495e-05 -2.27526e-23)
(0.000517877 1.54164e-05 -8.08465e-24)
(0.000518419 -3.10571e-05 2.07235e-23)
(0.000536248 1.53696e-05 5.00273e-24)
(0.000536629 -3.13154e-05 -1.61711e-23)
(0.000554695 1.535e-05 -5.29234e-24)
(0.000554901 -3.15187e-05 9.69545e-24)
(0.000573207 1.5359e-05 9.82392e-24)
(0.000573223 -3.1661e-05 -7.83687e-25)
(0.00059177 1.5398e-05 -1.01057e-23)
(0.000591584 -3.1736e-05 6.10151e-24)
(0.00061037 1.54683e-05 -6.26789e-24)
(0.000609969 -3.17375e-05 -1.26163e-23)
(0.000628988 1.55708e-05 -4.27417e-24)
(0.000628361 -3.16598e-05 1.98643e-23)
(0.000647607 1.57058e-05 3.74976e-24)
(0.000646744 -3.14976e-05 -2.91551e-23)
(0.000666204 1.58732e-05 1.45513e-23)
(0.000665097 -3.12459e-05 -3.46282e-24)
(0.000684756 1.60724e-05 -5.31486e-24)
(0.0006834 -3.09005e-05 1.64982e-23)
(0.000703238 1.63022e-05 -6.95853e-25)
(0.000701629 -3.04576e-05 -1.0428e-24)
(0.000721625 1.65609e-05 7.06395e-24)
(0.00071976 -2.99141e-05 -5.3101e-24)
(0.000739887 1.68467e-05 -3.40572e-24)
(0.000737766 -2.92673e-05 -6.46389e-24)
(0.000757994 1.7157e-05 5.178e-24)
(0.000755619 -2.8515e-05 4.24868e-24)
(0.000775915 1.74892e-05 -7.68139e-24)
(0.000773289 -2.76557e-05 6.97949e-24)
(0.000793616 1.784e-05 9.08858e-24)
(0.000790744 -2.66884e-05 -4.10962e-24)
(0.000811063 1.8206e-05 1.89383e-24)
(0.000807951 -2.56127e-05 -5.3455e-24)
(0.00082822 1.85833e-05 -4.22421e-24)
(0.000824876 -2.44289e-05 6.97348e-24)
(0.000845049 1.89679e-05 3.34555e-24)
(0.000841483 -2.31376e-05 4.91616e-24)
(0.000861513 1.93558e-05 -5.23483e-24)
(0.000857733 -2.17401e-05 -2.7349e-24)
(0.000877575 1.9743e-05 1.16531e-23)
(0.000873589 -2.02377e-05 -1.08979e-24)
(0.000893194 2.01263e-05 -1.13897e-23)
(0.00088901 -1.86316e-05 -1.02228e-24)
(0.000908331 2.05031e-05 4.59479e-24)
(0.000903956 -1.69229e-05 5.8321e-24)
(0.000922947 2.08717e-05 2.68033e-24)
(0.000918384 -1.51121e-05 -1.27098e-23)
(0.000937003 2.12316e-05 1.03011e-23)
(0.000932255 -1.31996e-05 -7.76697e-24)
(0.000950456 2.15833e-05 -7.42342e-24)
(0.000945527 -1.11852e-05 -1.66802e-24)
(0.000963269 2.1928e-05 -1.03838e-24)
(0.00095816 -9.06917e-06 -4.58654e-25)
(0.000975398 2.22669e-05 6.15069e-24)
(0.000970117 -6.8524e-06 -3.28674e-24)
(0.000986805 2.2601e-05 -3.4758e-25)
(0.00098136 -4.53739e-06 5.89812e-24)
(0.000997451 2.29299e-05 1.22728e-23)
(0.000991856 -2.12891e-06 9.63812e-25)
(0.0010073 2.32518e-05 5.51033e-24)
(0.00100157 3.65455e-07 -6.50048e-25)
(0.00101631 2.35631e-05 -6.55062e-24)
(0.00101048 2.93527e-06 5.29164e-24)
(0.00102445 2.38589e-05 9.58193e-25)
(0.00101855 5.56798e-06 -9.26043e-24)
(0.00103171 2.41345e-05 8.06025e-24)
(0.00102576 8.24993e-06 -2.09106e-24)
(0.00103805 2.43853e-05 -4.94748e-24)
(0.00103207 1.09695e-05 6.93186e-24)
(0.00104346 2.46116e-05 -1.35497e-24)
(0.00103747 1.37157e-05 -7.34005e-24)
(0.00104794 2.48108e-05 -9.72592e-25)
(0.00104195 1.64879e-05 -8.45397e-26)
(0.00105145 2.50011e-05 -1.43115e-24)
(0.00104546 1.92701e-05 7.66163e-24)
(0.00105407 2.51732e-05 5.54498e-24)
(0.00104809 2.20758e-05 -2.93457e-24)
(0.00105571 2.55548e-05 6.10893e-24)
(0.00105571 2.5932e-05 -4.44027e-24)
(0.00105477 2.58325e-05 -2.10728e-24)
(0.00105327 2.58836e-05 5.19624e-24)
(0.00105123 2.57875e-05 -2.50075e-24)
(0.00104974 2.46783e-05 -4.33481e-24)
)
;
    }
    frontAndBackPlanes
    {
        type            empty;
    }
}


// ************************************************************************* //
