/*--------------------------------*- C++ -*----------------------------------*\
| =========                 |                                                 |
| \\      /  F ield         | OpenFOAM Extend Project: Open source CFD        |
|  \\    /   O peration     | Version:  1.6-ext                               |
|   \\  /    A nd           | Web:      www.extend-project.de                 |
|    \\/     M anipulation  |                                                 |
\*---------------------------------------------------------------------------*/
FoamFile
{
    version     2.0;
    format      ascii;
    class       surfaceScalarField;
    location    "0.2";
    object      meshPhi;
}
// * * * * * * * * * * * * * * * * * * * * * * * * * * * * * * * * * * * * * //

dimensions      [0 3 -1 0 0 0 0];

internalField   nonuniform List<scalar> 
570
(
1.78178e-11
5.43617e-10
6.93211e-12
2.21543e-10
-4.22849e-15
1.981e-10
2.1504e-10
5.63322e-11
7.68103e-10
2.40188e-11
4.68771e-10
2.64022e-12
4.20087e-10
3.87686e-10
9.8403e-11
1.03237e-09
4.72686e-11
7.4461e-10
1.16414e-11
6.69378e-10
5.8969e-10
1.44899e-10
1.33296e-09
7.77683e-11
1.04632e-09
2.85686e-11
9.44845e-10
8.23425e-10
1.97221e-10
1.66599e-09
1.1668e-10
1.37411e-09
5.47382e-11
1.24765e-09
1.08993e-09
2.57027e-10
2.02715e-09
1.65343e-10
1.72734e-09
9.14857e-11
1.57832e-09
1.38975e-09
3.26116e-10
2.4138e-09
2.25258e-10
2.10627e-09
1.40228e-10
1.93815e-09
1.7244e-09
4.06376e-10
2.82399e-09
2.98042e-10
2.51124e-09
2.02429e-10
2.32859e-09
2.09595e-09
4.99698e-10
3.2565e-09
3.85349e-10
2.94307e-09
2.79546e-10
2.75164e-09
2.50717e-09
6.07861e-10
3.71051e-09
4.8875e-10
3.40283e-09
3.72918e-10
3.20969e-09
2.96142e-09
7.32349e-10
4.18557e-09
6.09545e-10
3.89204e-09
4.83592e-10
3.70571e-09
3.46272e-09
8.74106e-10
4.68157e-09
7.48496e-10
4.41265e-09
6.12048e-10
4.24323e-09
4.01585e-09
1.03319e-09
5.19885e-09
9.05442e-10
4.96718e-09
7.57789e-10
4.82656e-09
4.62651e-09
1.20831e-09
5.73843e-09
1.07876e-09
5.55897e-09
9.18736e-10
5.46096e-09
5.30159e-09
1.39621e-09
6.30245e-09
1.26464e-09
6.19247e-09
1.09038e-09
6.15297e-09
6.04954e-09
1.59081e-09
6.89473e-09
1.45604e-09
6.87379e-09
1.26463e-09
6.91097e-09
6.88095e-09
1.78214e-09
7.52162e-09
1.6414e-09
7.61144e-09
1.42821e-09
7.74583e-09
7.80929e-09
1.95476e-09
8.1931e-09
1.80279e-09
8.41733e-09
1.56064e-09
8.67192e-09
8.8519e-09
2.08582e-09
8.92417e-09
1.91364e-09
9.30812e-09
1.63162e-09
9.70834e-09
1.00312e-08
2.14226e-09
9.73629e-09
1.93572e-09
1.03066e-08
1.59778e-09
1.08803e-08
1.13757e-08
2.07723e-09
1.06593e-08
1.81539e-09
1.14437e-08
1.39879e-09
1.2221e-08
1.29219e-08
1.82519e-09
1.17308e-08
1.47882e-09
1.27592e-08
9.52766e-10
1.37721e-08
1.4715e-08
1.35474e-09
1.31032e-08
8.45755e-10
1.44241e-08
1.15348e-10
1.57264e-08
1.69662e-08
2.82023e-10
1.46502e-08
-3.70248e-10
1.62765e-08
-1.25629e-09
1.78833e-08
1.94395e-08
-1.10034e-09
1.63998e-08
-1.9179e-09
1.83395e-08
-2.97834e-09
2.02618e-08
2.21472e-08
-2.80748e-09
1.83715e-08
-3.80622e-09
2.06297e-08
-5.05389e-09
2.28745e-08
2.50973e-08
-4.85053e-09
2.05793e-08
-6.04032e-09
2.3158e-08
-7.48227e-09
2.5729e-08
2.82931e-08
-7.23638e-09
2.3032e-08
-8.6218e-09
2.59308e-08
-1.026e-08
2.8828e-08
3.17336e-08
-9.96754e-09
2.57345e-08
-1.1549e-08
2.89501e-08
-1.33816e-08
3.21708e-08
3.54147e-08
-1.30425e-08
2.86886e-08
-1.48175e-08
3.22156e-08
-1.68396e-08
3.57543e-08
3.93301e-08
-1.64559e-08
3.18941e-08
-1.842e-08
3.57246e-08
-2.06252e-08
3.95733e-08
4.34721e-08
-2.01994e-08
3.5349e-08
-2.23469e-08
3.94735e-08
-2.47279e-08
4.36221e-08
4.78324e-08
-2.42618e-08
3.90506e-08
-2.65865e-08
4.34577e-08
-2.91356e-08
4.78941e-08
5.24024e-08
-2.86295e-08
4.29954e-08
-3.11252e-08
4.76723e-08
-3.38347e-08
5.23826e-08
5.71736e-08
-3.32872e-08
4.71797e-08
-3.59476e-08
5.21119e-08
-3.88102e-08
5.7081e-08
6.21378e-08
-3.82181e-08
5.1599e-08
-4.10372e-08
5.67713e-08
-4.40458e-08
6.19827e-08
6.7287e-08
-4.34042e-08
5.62488e-08
-4.6376e-08
6.16446e-08
-4.95239e-08
6.70808e-08
7.26136e-08
-4.88263e-08
6.11239e-08
-5.19452e-08
6.67262e-08
-5.52261e-08
7.23689e-08
7.81101e-08
-5.44648e-08
6.62188e-08
-5.77251e-08
7.20095e-08
-6.11327e-08
7.784e-08
8.37692e-08
-6.02994e-08
7.15272e-08
-6.36953e-08
7.74881e-08
-6.72237e-08
8.34871e-08
8.95834e-08
-6.63096e-08
7.7042e-08
-6.98351e-08
8.31547e-08
-7.34783e-08
8.93028e-08
9.55454e-08
-7.24744e-08
8.27554e-08
-7.61236e-08
8.90014e-08
-7.98756e-08
9.52795e-08
1.01648e-07
-7.87735e-08
8.86585e-08
-8.25397e-08
9.50196e-08
-8.63944e-08
1.01409e-07
1.07883e-07
-8.51866e-08
9.47413e-08
-8.90631e-08
1.012e-07
-9.30141e-08
1.07682e-07
1.14242e-07
-9.16945e-08
1.00993e-07
-9.5674e-08
1.07532e-07
-9.97147e-08
1.14091e-07
1.20718e-07
-9.82788e-08
1.074e-07
-1.02353e-07
1.14005e-07
-1.06477e-07
1.20624e-07
1.27302e-07
-1.04923e-07
1.13951e-07
-1.09084e-07
1.20607e-07
-1.13284e-07
1.27271e-07
1.33984e-07
-1.11611e-07
1.2063e-07
-1.15851e-07
1.27325e-07
-1.20118e-07
1.34022e-07
1.40756e-07
-1.18331e-07
1.27421e-07
-1.22639e-07
1.34144e-07
-1.26967e-07
1.40863e-07
1.47607e-07
-1.25071e-07
1.34309e-07
-1.29438e-07
1.41051e-07
-1.33817e-07
1.47782e-07
1.54525e-07
-1.31823e-07
1.41275e-07
-1.36238e-07
1.4803e-07
-1.40659e-07
1.54765e-07
1.615e-07
-1.38579e-07
1.48303e-07
-1.43031e-07
1.55064e-07
-1.47485e-07
1.61798e-07
1.68519e-07
-1.45334e-07
1.55372e-07
-1.49813e-07
1.62137e-07
-1.54289e-07
1.68865e-07
1.75567e-07
-1.52086e-07
1.62465e-07
-1.56579e-07
1.69231e-07
-1.61067e-07
1.75951e-07
1.82631e-07
-1.58834e-07
1.69562e-07
-1.63328e-07
1.76328e-07
-1.67817e-07
1.83039e-07
1.89695e-07
-1.65576e-07
1.76642e-07
-1.70061e-07
1.83409e-07
-1.74539e-07
1.9011e-07
1.96743e-07
-1.72316e-07
1.83686e-07
-1.76777e-07
1.90456e-07
-1.81232e-07
1.97147e-07
2.03758e-07
-1.79054e-07
1.90674e-07
-1.83479e-07
1.97448e-07
-1.87899e-07
2.04132e-07
2.10722e-07
-1.85795e-07
1.97585e-07
-1.9017e-07
2.04365e-07
-1.94542e-07
2.11044e-07
2.17616e-07
-1.92541e-07
2.04399e-07
-1.96853e-07
2.11189e-07
-2.01164e-07
2.17865e-07
2.24421e-07
-1.99296e-07
2.11095e-07
-2.03532e-07
2.17898e-07
-2.07769e-07
2.24575e-07
2.31118e-07
-2.06064e-07
2.17654e-07
-2.1021e-07
2.24473e-07
-2.14359e-07
2.31152e-07
2.37686e-07
-2.1285e-07
2.24055e-07
-2.16892e-07
2.30893e-07
-2.2094e-07
2.37578e-07
2.44105e-07
-2.19655e-07
2.30279e-07
-2.23581e-07
2.37138e-07
-2.27514e-07
2.43832e-07
2.50355e-07
-2.26485e-07
2.36306e-07
-2.3028e-07
2.43189e-07
-2.34085e-07
2.49894e-07
2.56416e-07
-2.3334e-07
2.42117e-07
-2.36993e-07
2.49025e-07
-2.40655e-07
2.55743e-07
2.62267e-07
-2.40224e-07
2.47693e-07
-2.4372e-07
2.54629e-07
-2.47228e-07
2.61361e-07
2.67887e-07
-2.47137e-07
2.53018e-07
-2.50465e-07
2.59981e-07
-2.53805e-07
2.66728e-07
2.73259e-07
-2.54081e-07
2.58072e-07
-2.57228e-07
2.65062e-07
-2.60387e-07
2.71826e-07
2.78363e-07
-2.61054e-07
2.62839e-07
-2.64009e-07
2.69857e-07
-2.66977e-07
2.76637e-07
2.8318e-07
-2.68058e-07
2.67303e-07
-2.70809e-07
2.74348e-07
-2.73573e-07
2.81145e-07
2.87694e-07
-2.7509e-07
2.71448e-07
-2.77628e-07
2.7852e-07
-2.80178e-07
2.85332e-07
2.91889e-07
-2.8215e-07
2.75261e-07
-2.84464e-07
2.82357e-07
-2.8679e-07
2.89185e-07
2.95749e-07
-2.89236e-07
2.78728e-07
-2.91318e-07
2.85847e-07
-2.93411e-07
2.9269e-07
2.9926e-07
-2.96347e-07
2.81838e-07
-2.98187e-07
2.88978e-07
-3.00039e-07
2.95834e-07
3.0241e-07
-3.03479e-07
2.84579e-07
-3.05072e-07
2.91739e-07
-3.06675e-07
2.98607e-07
3.05187e-07
-3.1063e-07
2.86943e-07
-3.1197e-07
2.9412e-07
-3.13318e-07
3.00998e-07
3.07581e-07
-3.17795e-07
2.88923e-07
-3.18878e-07
2.96115e-07
-3.19967e-07
3.03001e-07
3.09584e-07
-3.24972e-07
2.90507e-07
-3.25793e-07
2.97716e-07
-3.26621e-07
3.04608e-07
3.11186e-07
-3.32156e-07
2.91696e-07
-3.32714e-07
2.98927e-07
-3.33276e-07
3.05824e-07
3.12389e-07
-3.39353e-07
2.92449e-07
-3.39636e-07
2.99719e-07
-3.39922e-07
3.06619e-07
3.13152e-07
-3.46593e-07
-3.46557e-07
-3.46524e-07
)
;

boundaryField
{
    plateFix
    {
        type            calculated;
        value           nonuniform List<scalar> 4(-3.18564e-10 -7.12534e-15 -3.20875e-15 -4.4155e-11);
    }
    plate
    {
        type            calculated;
        value           nonuniform List<scalar> 
168
(
-6.81229e-11
-1.86844e-11
-1.2455e-10
-2.59402e-11
-1.81599e-10
-2.70795e-11
-2.3958e-10
-1.98489e-11
-3.00465e-10
-3.17704e-12
-3.66666e-10
2.38705e-11
-4.40408e-10
6.24445e-11
-5.23865e-10
1.1378e-10
-6.19035e-10
1.79164e-10
-7.27695e-10
2.5979e-10
-8.51258e-10
3.56564e-10
-9.90585e-10
4.69792e-10
-1.14572e-09
5.98709e-10
-1.3155e-09
7.40801e-10
-1.49712e-09
8.90833e-10
-1.68543e-09
1.03951e-09
-1.87206e-09
1.17172e-09
-2.04424e-09
1.26417e-09
-2.183e-09
1.28261e-09
-2.26069e-09
1.17836e-09
-2.23745e-09
8.84358e-10
-2.05637e-09
3.10533e-10
-1.72436e-09
-7.60351e-10
-7.89126e-10
-2.29719e-09
4.31519e-10
-4.20155e-09
1.95965e-09
-6.46978e-09
3.81263e-09
-9.09549e-09
6.0027e-09
-1.20703e-08
8.53658e-09
-1.53851e-08
1.14158e-08
-1.90298e-08
1.4637e-08
-2.29941e-08
1.81931e-08
-2.72667e-08
2.20734e-08
-3.18355e-08
2.62646e-08
-3.6687e-08
3.07514e-08
-4.18068e-08
3.55168e-08
-4.71789e-08
4.05428e-08
-5.27864e-08
4.58101e-08
-5.86111e-08
5.12993e-08
-6.46339e-08
5.69901e-08
-7.08349e-08
6.28621e-08
-7.71935e-08
6.88951e-08
-8.36889e-08
7.50688e-08
-9.03001e-08
8.13637e-08
-9.70062e-08
8.77611e-08
-1.03787e-07
9.42432e-08
-1.10624e-07
1.00794e-07
-1.17498e-07
1.07399e-07
-1.24393e-07
1.14045e-07
-1.31295e-07
1.20723e-07
-1.38191e-07
1.27423e-07
-1.45071e-07
1.34139e-07
-1.51926e-07
1.40867e-07
-1.5875e-07
1.47604e-07
-1.65539e-07
1.54349e-07
-1.72289e-07
1.61102e-07
-1.78999e-07
1.67866e-07
-1.8567e-07
1.74641e-07
-1.92302e-07
1.81432e-07
-1.98898e-07
1.88243e-07
-2.0546e-07
1.95076e-07
-2.11991e-07
2.01935e-07
-2.18496e-07
2.08825e-07
-2.24976e-07
2.15749e-07
-2.31437e-07
2.22709e-07
-2.3788e-07
2.29709e-07
-2.4431e-07
2.36749e-07
-2.50729e-07
2.43831e-07
-2.5714e-07
2.50955e-07
-2.63543e-07
2.58121e-07
-2.69941e-07
2.65327e-07
-2.76335e-07
2.72572e-07
-2.82726e-07
2.79855e-07
-2.89114e-07
2.87172e-07
-2.95502e-07
2.94522e-07
-3.01889e-07
3.019e-07
-3.08275e-07
3.09304e-07
-3.14663e-07
3.16727e-07
-3.21051e-07
3.24165e-07
-3.27439e-07
3.31618e-07
-3.33824e-07
3.39087e-07
-3.40199e-07
3.4658e-07
2.92834e-07
3.00137e-07
3.0704e-07
3.13544e-07
-3.46546e-07
)
;
    }
    frontAndBackPlanes
    {
        type            empty;
    }
}


// ************************************************************************* //
