/*--------------------------------*- C++ -*----------------------------------*\
| =========                 |                                                 |
| \\      /  F ield         | OpenFOAM Extend Project: Open source CFD        |
|  \\    /   O peration     | Version:  1.6-ext                               |
|   \\  /    A nd           | Web:      www.extend-project.de                 |
|    \\/     M anipulation  |                                                 |
\*---------------------------------------------------------------------------*/
FoamFile
{
    version     2.0;
    format      ascii;
    class       volSymmTensorField;
    location    "0.2";
    object      sigma;
}
// * * * * * * * * * * * * * * * * * * * * * * * * * * * * * * * * * * * * * //

dimensions      [1 -1 -2 0 0 0 0];

internalField   nonuniform List<symmTensor> 
328
(
(-1.57925 -0.232881 -3.62185e-22 -0.555717 8.02526e-20 -0.855101)
(-0.989608 -0.00150373 -7.2119e-24 -0.538049 4.72586e-23 -0.611943)
(-0.658012 0.163638 3.56721e-23 -0.387789 -5.2534e-23 -0.419199)
(-0.351214 0.141123 -5.20149e-23 -0.115643 -1.05571e-19 -0.187828)
(-1.49895 -0.151839 2.15902e-21 -0.349975 -1.54767e-19 -0.740731)
(-0.991455 -0.00937649 1.56104e-22 -0.348724 -2.98662e-23 -0.537017)
(-0.661432 0.127586 8.4062e-24 -0.295352 1.25904e-22 -0.383654)
(-0.300896 0.105669 1.22013e-21 -0.0458117 -3.74356e-20 -0.139815)
(-1.49167 -0.0864808 -2.80483e-21 -0.232585 -3.13287e-20 -0.69092)
(-1.04829 -0.00858284 -2.86902e-22 -0.243729 1.11706e-22 -0.517819)
(-0.691978 0.0962548 9.33627e-22 -0.234127 6.1565e-23 -0.371446)
(-0.272808 0.0716862 -4.58281e-21 0.00174383 1.26158e-19 -0.109612)
(-1.47234 -0.0399838 6.01849e-22 -0.152517 2.26044e-20 -0.651222)
(-1.05966 -0.00115745 3.08456e-22 -0.148812 -1.04553e-22 -0.484497)
(-0.702407 0.0695174 -1.28655e-21 -0.175277 -5.83602e-22 -0.35217)
(-0.247256 0.0440361 3.98614e-21 0.0372724 4.84321e-20 -0.0852389)
(-1.46944 -0.00870952 5.36604e-22 -0.107549 6.19616e-20 -0.63212)
(-1.0737 0.00867557 3.04768e-22 -0.0865091 1.81579e-22 -0.465272)
(-0.712786 0.0487995 8.90531e-22 -0.132031 -8.52506e-22 -0.339104)
(-0.229672 0.0228115 1.81657e-21 0.0608522 -1.09056e-19 -0.0688179)
(-1.46869 0.0121592 9.21845e-22 -0.0819561 -6.008e-20 -0.621616)
(-1.07419 0.0179995 -3.40535e-22 -0.0391071 -1.04325e-22 -0.446577)
(-0.715019 0.0329824 -1.26758e-21 -0.0980146 8.82267e-22 -0.32646)
(-0.215591 0.0066407 -1.29051e-21 0.0763842 2.93823e-20 -0.0570032)
(-1.47249 0.0258563 -1.71333e-21 -0.0700515 1.02138e-19 -0.618393)
(-1.07161 0.0254661 -1.93307e-24 -0.00772626 -6.82951e-24 -0.433046)
(-0.713582 0.0216573 6.62025e-23 -0.0745226 -4.31478e-22 -0.316538)
(-0.204506 -0.00549683 1.13694e-21 0.0854394 1.44762e-20 -0.0489653)
(-1.47736 0.0349231 3.29644e-21 -0.0662696 -2.86787e-20 -0.61884)
(-1.06419 0.0306466 -1.84928e-21 0.013136 -1.00426e-22 -0.421767)
(-0.707717 0.0138155 -8.30014e-22 -0.0591706 -3.62614e-22 -0.308086)
(-0.194543 -0.014662 -2.05589e-21 0.0897708 -5.50019e-20 -0.0432573)
(-1.48251 0.0410482 -4.24272e-21 -0.0678309 5.94949e-20 -0.621527)
(-1.05464 0.0336821 3.03194e-21 0.0250353 2.23264e-22 -0.413207)
(-0.698886 0.00863064 6.89993e-22 -0.0510291 7.22314e-22 -0.301317)
(-0.184628 -0.021715 -1.28934e-21 0.0903966 9.24618e-20 -0.0390447)
(-1.48651 0.0454518 2.01828e-21 -0.0728841 -9.30323e-20 -0.62515)
(-1.04313 0.0350042 2.75983e-21 0.0302753 -3.64408e-22 -0.406518)
(-0.687435 0.00524158 6.17049e-22 -0.0486608 -8.67216e-22 -0.295799)
(-0.173652 -0.0274026 8.88977e-22 0.0880694 -7.58494e-20 -0.0355856)
(-1.48854 0.0489331 -1.31009e-21 -0.0805737 6.6611e-20 -0.629037)
(-1.03038 0.0351179 -4.95582e-21 0.0300649 3.33205e-22 -0.401503)
(-0.673934 0.00295003 1.97908e-21 -0.0511302 6.32239e-22 -0.291389)
(-0.160829 -0.0323019 -8.39094e-22 0.0831524 1.22808e-20 -0.0324215)
(-1.48787 0.0520095 7.261e-22 -0.0905858 -7.84534e-20 -0.632769)
(-1.01641 0.0344901 3.97825e-21 0.0253881 5.04282e-22 -0.397784)
(-0.658563 0.00119451 1.31543e-22 -0.0576898 -1.11675e-23 -0.287863)
(-0.145533 -0.036829 -2.36329e-21 0.0757298 2.60061e-20 -0.0292694)
(-1.48399 0.0549548 -3.02019e-21 -0.103037 5.58633e-20 -0.636192)
(-1.00119 0.0334753 -2.88592e-21 0.0167075 -4.46753e-22 -0.395163)
(-0.641391 -0.000414521 -3.95679e-21 -0.0679753 7.23785e-24 -0.285103)
(-0.127354 -0.0412306 7.25549e-22 0.0656062 1.47659e-20 -0.0260434)
(-1.47651 0.0578533 4.28192e-21 -0.118329 -1.21694e-21 -0.639315)
(-0.984429 0.0323007 2.03096e-21 0.00415539 6.58429e-22 -0.393474)
(-0.622295 -0.00211182 1.64215e-21 -0.0819298 1.69787e-22 -0.283041)
(-0.106035 -0.0455899 1.02672e-21 0.052361 -3.94116e-20 -0.0228099)
(-1.46521 0.0606249 -2.41536e-21 -0.137069 -1.2599e-20 -0.642285)
(-0.965792 0.031068 -2.56787e-21 -0.0124669 -1.29378e-21 -0.392661)
(-0.601075 -0.00399395 -2.02027e-21 -0.0997932 9.84375e-22 -0.281692)
(-0.0814847 -0.0498393 2.63919e-21 0.0353888 1.41917e-20 -0.019774)
(-1.44995 0.0630581 8.58469e-22 -0.159984 -3.72972e-21 -0.64534)
(-0.944897 0.0297785 -5.90373e-22 -0.0335827 4.74059e-22 -0.392742)
(-0.577502 -0.00604648 2.85878e-21 -0.122021 -2.30235e-22 -0.281147)
(-0.0537521 -0.0537763 -2.85738e-21 0.0139668 -2.33995e-20 -0.0172449)
(-1.43073 0.0648346 -9.96455e-21 -0.187823 -3.28537e-20 -0.648778)
(-0.921435 0.028359 -1.27768e-21 -0.0597492 -1.06214e-21 -0.393816)
(-0.551401 -0.00817199 6.37519e-22 -0.149187 -2.24346e-23 -0.281566)
(-0.0230478 -0.0570893 2.34327e-21 -0.0126603 2.6174e-20 -0.0156089)
(-1.40767 0.0655673 1.36369e-20 -0.221249 1.9672e-20 -0.65292)
(-0.895236 0.0266927 -5.94994e-21 -0.0915245 5.83948e-22 -0.396039)
(-0.522732 -0.0102185 -7.32518e-22 -0.181862 -8.7698e-22 -0.283161)
(0.0102394 -0.0593872 -1.62911e-21 -0.0451672 -5.99116e-20 -0.0152913)
(-1.38112 0.0648336 -4.24727e-21 -0.260704 1.36049e-20 -0.658072)
(-0.86634 0.0246464 -2.27125e-21 -0.129316 5.00922e-22 -0.399589)
(-0.491655 -0.0120038 2.35125e-21 -0.220451 2.48878e-23 -0.286159)
(0.0455078 -0.0602372 2.01444e-21 -0.084013 4.74935e-20 -0.0167164)
(-1.35164 0.0622492 -6.11014e-21 -0.306227 -1.31355e-20 -0.664481)
(-0.835097 0.0220986 -2.88699e-21 -0.173219 -2.45803e-22 -0.404644)
(-0.458632 -0.0133453 8.50842e-21 -0.265045 3.70953e-22 -0.29078)
(0.0818891 -0.0592348 3.03656e-21 -0.129258 1.5989e-21 -0.0202558)
(-1.31995 0.057513 2.8126e-20 -0.35733 8.50838e-21 -0.672236)
(-0.802095 0.0189726 1.01476e-21 -0.222821 8.32095e-22 -0.411275)
(-0.424357 -0.0140887 -1.04632e-20 -0.315218 -4.31324e-22 -0.297131)
(0.118361 -0.0560528 5.28692e-21 -0.180437 1.45843e-20 -0.0261319)
(-1.28748 0.0504442 -8.44995e-22 -0.412988 -1.10027e-20 -0.6815)
(-0.768458 0.0152226 -2.03064e-21 -0.277222 2.98666e-22 -0.41957)
(-0.390034 -0.0141083 -8.413e-21 -0.370047 -2.27675e-22 -0.305325)
(0.153241 -0.0504784 5.15687e-21 -0.236527 5.50207e-21 -0.0346091)
(-1.25344 0.0415262 1.01327e-20 -0.472712 8.29448e-21 -0.691762)
(-0.733837 0.0109032 8.48051e-22 -0.336644 1.65892e-21 -0.429481)
(-0.355437 -0.0134708 1.65987e-20 -0.42975 -8.26419e-22 -0.315359)
(0.186942 -0.043009 1.91226e-20 -0.297089 -1.65134e-20 -0.0453461)
(-1.2211 0.0312178 -2.89245e-20 -0.53458 -2.47694e-20 -0.703559)
(-0.70132 0.00620004 -1.8472e-21 -0.397746 -3.81294e-22 -0.440904)
(-0.323715 -0.0121707 -1.18817e-20 -0.490914 1.32944e-22 -0.327126)
(0.215943 -0.0340325 -6.07562e-20 -0.36016 3.91237e-20 -0.0589658)
(-1.1919 0.0199088 -1.12346e-22 -0.588537 4.01542e-20 -0.71345)
(-0.673467 0.00144801 -1.5239e-20 -0.452223 -2.19731e-21 -0.451543)
(-0.297376 -0.0103146 2.11306e-20 -0.545251 9.35523e-22 -0.338316)
(0.239084 -0.0238434 5.87291e-20 -0.41557 -4.98574e-20 -0.0718653)
(-1.16785 0.00876637 3.20113e-20 -0.635637 -2.69263e-20 -0.72266)
(-0.651345 -0.00304546 2.70411e-20 -0.500004 -1.0011e-22 -0.461797)
(-0.277364 -0.00824651 -2.18052e-20 -0.592708 -2.65052e-21 -0.349286)
(0.254815 -0.0136333 -2.44502e-20 -0.464313 1.80563e-20 -0.0850622)
(-1.1479 -0.00200815 -2.04139e-20 -0.674024 -3.60158e-20 -0.730025)
(-0.63428 -0.00724004 -2.84115e-20 -0.539668 6.39218e-22 -0.470827)
(-0.262914 -0.00606916 2.32144e-22 -0.631886 5.98674e-22 -0.359168)
(0.264554 -0.00362727 -2.39119e-20 -0.504473 -4.11969e-20 -0.0972223)
(-1.13248 -0.0119067 -3.29987e-20 -0.704505 4.09264e-20 -0.736041)
(-0.622347 -0.0110154 3.65356e-20 -0.571651 3.47424e-21 -0.478838)
(-0.25402 -0.00396922 1.6584e-20 -0.663244 -5.2157e-22 -0.368145)
(0.268175 0.00563667 5.76442e-21 -0.536827 6.30743e-20 -0.108707)
(-1.12082 -0.0207969 1.94928e-21 -0.72724 -6.079e-22 -0.740463)
(-0.614806 -0.0143593 1.33734e-20 -0.596145 3.55979e-21 -0.48561)
(-0.249872 -0.00202411 -6.07753e-21 -0.686992 -2.04373e-22 -0.375976)
(0.26672 0.0140005 2.70584e-20 -0.561508 -4.42897e-20 -0.119153)
(-1.1126 -0.0285377 2.91689e-20 -0.743207 6.52349e-22 -0.743552)
(-0.611178 -0.017257 -1.5679e-20 -0.613994 -2.06235e-21 -0.49129)
(-0.249938 -0.000309636 8.2709e-21 -0.703992 -2.25802e-23 -0.382794)
(0.260714 0.0212981 1.56623e-20 -0.579479 -6.91205e-22 -0.128735)
(-1.10714 -0.0351323 6.12676e-21 -0.753248 2.81908e-21 -0.745373)
(-0.610741 -0.0197345 -5.9826e-20 -0.626006 1.67089e-21 -0.495911)
(-0.253454 0.00114609 7.20002e-20 -0.715067 1.11469e-21 -0.388622)
(0.250995 0.0275119 1.30251e-20 -0.591574 2.21472e-20 -0.137452)
(-1.10388 -0.04062 1.76345e-20 -0.758348 -3.74418e-22 -0.746102)
(-0.612882 -0.0218252 6.04271e-20 -0.633116 -4.54436e-21 -0.499603)
(-0.259774 0.00232992 -7.98161e-20 -0.721166 1.12718e-21 -0.393582)
(0.238226 0.0326629 2.03437e-21 -0.598776 6.87751e-21 -0.145431)
(-1.10222 -0.0450914 -8.21583e-20 -0.759395 1.19513e-20 -0.745852)
(-0.616967 -0.0235741 8.88437e-21 -0.636192 -2.61238e-21 -0.50246)
(-0.268246 0.00324847 5.08572e-20 -0.723163 -1.45755e-21 -0.397761)
(0.223085 0.0368268 3.5069e-20 -0.60197 -4.96147e-21 -0.152757)
(-1.10165 -0.0486553 5.07542e-20 -0.757212 -1.83119e-20 -0.744741)
(-0.622445 -0.0250281 1.62245e-20 -0.636043 -3.59804e-21 -0.504583)
(-0.278302 0.00391754 -1.83013e-20 -0.721875 4.08896e-21 -0.40126)
(0.206151 0.0401006 -2.85125e-20 -0.601984 -1.90641e-20 -0.159527)
(-1.10167 -0.051432 1.09717e-20 -0.752507 1.94761e-20 -0.742857)
(-0.628815 -0.0262344 -5.02039e-20 -0.633375 6.23659e-21 -0.506056)
(-0.289436 0.0043599 2.60552e-21 -0.718013 -2.28968e-21 -0.404161)
(0.18794 0.0425951 4.20564e-20 -0.599529 1.93245e-20 -0.165821)
(-1.10185 -0.053541 -6.73298e-20 -0.745886 -1.42525e-21 -0.740274)
(-0.63565 -0.0272368 9.1129e-20 -0.628795 -3.38451e-21 -0.506951)
(-0.301218 0.00460138 9.39528e-22 -0.712188 -2.65456e-21 -0.406535)
(0.16888 0.044423 -4.66106e-20 -0.595217 -1.5786e-20 -0.171711)
(-1.10183 -0.055096 8.6664e-21 -0.737848 -3.79044e-21 -0.737046)
(-0.642591 -0.0280751 -6.74689e-20 -0.622809 4.38185e-21 -0.507325)
(-0.313288 0.00466888 3.52962e-20 -0.704907 3.34834e-21 -0.408443)
(0.149329 0.045693 -2.1234e-21 -0.589552 1.32396e-21 -0.177257)
(-1.10132 -0.0562007 -3.6877e-20 -0.728803 1.95385e-21 -0.733216)
(-0.649341 -0.0287839 6.37659e-20 -0.615833 5.46235e-21 -0.507226)
(-0.325354 0.00458884 3.37187e-20 -0.696586 -7.9635e-21 -0.409932)
(0.129572 0.0465053 4.4026e-20 -0.582949 1.11564e-20 -0.18251)
(-1.10007 -0.0569467 1.44345e-20 -0.719077 -1.71596e-20 -0.728819)
(-0.655659 -0.0293927 2.12365e-20 -0.608202 8.87875e-21 -0.506694)
(-0.337179 0.00438624 -4.81754e-20 -0.687561 3.75131e-21 -0.411044)
(0.109834 0.0469498 -5.13588e-20 -0.575741 -7.2106e-21 -0.187513)
(-1.0979 -0.0574133 3.74781e-20 -0.708929 1.29079e-20 -0.723881)
(-0.661357 -0.0299261 -6.50788e-20 -0.600183 -8.57881e-21 -0.505758)
(-0.34858 0.00408403 8.20085e-21 -0.678099 6.06917e-21 -0.411812)
(0.0902859 0.0471049 1.06025e-20 -0.568191 1.43867e-21 -0.192303)
(-1.09464 -0.0576674 1.37533e-20 -0.698559 9.90473e-21 -0.718423)
(-0.666292 -0.0304041 1.77862e-20 -0.591985 -4.31732e-21 -0.504445)
(-0.35942 0.00370274 5.84375e-21 -0.668407 2.48108e-21 -0.412263)
(0.0710531 0.0470378 -9.35144e-20 -0.560504 -2.38696e-21 -0.196912)
(-1.0902 -0.0577647 -1.42955e-19 -0.688123 -9.46288e-21 -0.712465)
(-0.670358 -0.0308425 7.34504e-20 -0.583768 -3.32117e-21 -0.502776)
(-0.369597 0.0032604 1.35161e-20 -0.658645 3.00758e-21 -0.41242)
(0.0522253 0.0468045 6.65519e-20 -0.552837 -1.1285e-20 -0.201368)
(-1.0845 -0.0577504 9.21586e-20 -0.677733 4.25907e-21 -0.706021)
(-0.673478 -0.031254 -1.52135e-19 -0.575652 -7.29596e-21 -0.500769)
(-0.379039 0.00277249 2.80574e-20 -0.648933 1.25236e-20 -0.412304)
(0.0338623 0.0464516 3.12755e-20 -0.545309 2.63083e-21 -0.205693)
(-1.07749 -0.057661 8.9523e-20 -0.667475 9.05089e-21 -0.699105)
(-0.675604 -0.0316481 7.08655e-20 -0.567726 3.63595e-21 -0.498441)
(-0.3877 0.00225207 3.14637e-20 -0.639359 -1.122e-20 -0.41193)
(0.0160005 0.0460165 -1.27406e-19 -0.538005 1.19431e-20 -0.209907)
(-1.06914 -0.0575252 2.503e-20 -0.657405 1.01691e-20 -0.691729)
(-0.676706 -0.032032 2.4598e-20 -0.560051 -5.06643e-21 -0.495803)
(-0.395554 0.00171001 5.3376e-21 -0.629983 9.25975e-21 -0.411312)
(-0.00134167 0.0455292 5.56474e-20 -0.530984 -7.61417e-21 -0.214026)
(-1.05945 -0.0573652 -1.20929e-19 -0.647561 -1.88174e-20 -0.683903)
(-0.676774 -0.0324111 4.66175e-20 -0.552667 1.49312e-20 -0.492868)
(-0.402592 0.00115527 -7.07971e-20 -0.620845 -1.20322e-21 -0.410463)
(-0.0181597 0.0450133 9.34278e-20 -0.524284 7.22836e-21 -0.218064)
(-1.0484 -0.057198 9.32164e-22 -0.637963 2.05674e-20 -0.675638)
(-0.675807 -0.0327889 1.25495e-19 -0.545598 4.47925e-21 -0.489645)
(-0.408813 0.000595202 -5.87257e-20 -0.61197 -1.03359e-20 -0.409393)
(-0.0344591 0.0444872 -7.89805e-21 -0.517929 -2.1655e-21 -0.222032)
(-1.03603 -0.0570361 -3.312e-20 -0.628621 -7.591e-21 -0.666941)
(-0.673816 -0.0331676 7.94671e-20 -0.538855 2.13208e-21 -0.486142)
(-0.414229 3.59508e-05 -1.11513e-19 -0.603367 -1.38367e-20 -0.408109)
(-0.0502526 0.0439646 4.88118e-20 -0.511926 3.17787e-21 -0.225939)
(-1.02234 -0.0568881 -1.60004e-19 -0.619532 -2.98108e-20 -0.657821)
(-0.670819 -0.0335479 3.9667e-20 -0.532435 1.78258e-20 -0.482366)
(-0.418858 -0.000517223 1.70925e-23 -0.595037 -9.02488e-23 -0.406619)
(-0.0655579 0.0434563 -1.65637e-20 -0.506273 1.257e-21 -0.229791)
(-1.00737 -0.0567603 7.61072e-20 -0.610688 1.03434e-20 -0.648286)
(-0.666841 -0.0339295 -5.12966e-20 -0.526332 3.12583e-22 -0.478325)
(-0.422719 -0.00105961 4.07786e-21 -0.586971 -2.69368e-21 -0.404929)
(-0.0803951 0.04297 2.15804e-20 -0.500962 7.92356e-21 -0.233592)
(-0.991144 -0.056656 -9.6992e-20 -0.602074 2.99506e-21 -0.638342)
(-0.661909 -0.0343109 5.57464e-20 -0.520531 2.62164e-22 -0.474022)
(-0.425839 -0.00158673 8.76294e-21 -0.579156 -3.15016e-21 -0.403041)
(-0.0947853 0.0425117 1.1909e-19 -0.495978 -1.69498e-20 -0.237345)
(-0.97371 -0.056577 -3.08997e-21 -0.593672 6.16739e-21 -0.627998)
(-0.656054 -0.0346897 1.32818e-20 -0.515011 1.50217e-20 -0.469464)
(-0.428243 -0.00209416 8.54309e-20 -0.571574 -9.24913e-21 -0.400962)
(-0.108749 0.0420858 -7.07913e-20 -0.4913 2.55991e-20 -0.241051)
(-0.955107 -0.0565236 6.33874e-20 -0.585461 -1.19602e-20 -0.617263)
(-0.64931 -0.0350624 -5.83967e-20 -0.509752 3.48643e-21 -0.464654)
(-0.429959 -0.0025773 -2.90229e-20 -0.564206 4.69672e-21 -0.398692)
(-0.122305 0.0416956 1.01707e-19 -0.486906 -7.85248e-22 -0.244706)
(-0.935382 -0.0564947 -8.43564e-20 -0.577419 -1.20513e-20 -0.606147)
(-0.641713 -0.0354248 -1.07068e-19 -0.504729 -6.86388e-21 -0.459597)
(-0.431014 -0.0030313 1.10769e-19 -0.557028 -1.26599e-21 -0.396234)
(-0.135468 0.0413441 -7.0946e-20 -0.48277 -6.81223e-21 -0.248309)
(-0.914586 -0.0564888 -6.78327e-20 -0.569524 7.52212e-21 -0.594662)
(-0.633299 -0.0357719 1.66204e-20 -0.499917 1.21274e-20 -0.454298)
(-0.431433 -0.00345102 -4.58253e-20 -0.550019 -3.66045e-21 -0.393589)
(-0.148252 0.0410333 -7.08317e-21 -0.478867 2.07102e-20 -0.251852)
(-0.892776 -0.0565033 6.1896e-20 -0.561752 -1.60147e-20 -0.58282)
(-0.624106 -0.0360983 4.00483e-20 -0.495288 1.57008e-20 -0.448761)
(-0.431242 -0.00383098 5.57651e-20 -0.543155 -1.03169e-20 -0.390759)
(-0.160661 0.0407656 -6.96844e-20 -0.475167 -4.07971e-20 -0.255328)
(-0.870011 -0.0565358 -1.97139e-20 -0.554084 -3.75816e-21 -0.570638)
(-0.614175 -0.0363982 6.84534e-20 -0.490816 -1.79302e-20 -0.442991)
(-0.430465 -0.00416548 -5.37767e-20 -0.536413 3.35765e-20 -0.387743)
(-0.1727 0.0405428 7.30298e-20 -0.471645 1.08142e-20 -0.258726)
(-0.846357 -0.0565835 -4.63913e-20 -0.546497 -3.60285e-21 -0.558133)
(-0.603544 -0.0366653 -1.82962e-20 -0.486475 4.56454e-21 -0.436994)
(-0.429124 -0.00444861 -9.42383e-21 -0.529771 1.45562e-22 -0.384542)
(-0.184365 0.0403671 -2.21673e-19 -0.46827 -1.12971e-20 -0.262034)
(-0.821885 -0.0566436 -4.32301e-20 -0.538972 -1.73749e-20 -0.545326)
(-0.592257 -0.0368937 7.34942e-20 -0.482238 -5.66754e-21 -0.430776)
(-0.427241 -0.00467435 4.62899e-20 -0.523209 2.80321e-20 -0.381156)
(-0.195646 0.0402407 -1.23518e-19 -0.465015 -7.01313e-21 -0.265237)
(-0.796671 -0.0567137 4.92385e-20 -0.531493 1.38019e-20 -0.53224)
(-0.580357 -0.0370773 -6.27155e-20 -0.478078 -2.92567e-20 -0.424344)
(-0.424834 -0.00483667 2.80076e-20 -0.516705 -1.35103e-20 -0.377584)
(-0.206532 0.040166 3.4699e-20 -0.461852 1.25562e-20 -0.268318)
(-0.770795 -0.0567916 8.24251e-21 -0.524041 -1.11909e-20 -0.5189)
(-0.567887 -0.0372103 -1.2502e-19 -0.473971 1.93012e-21 -0.417706)
(-0.421923 -0.00492955 3.23725e-20 -0.51024 5.0541e-20 -0.373826)
(-0.217003 0.0401458 -1.18602e-19 -0.458751 -8.17941e-21 -0.271258)
(-0.744343 -0.0568757 -1.37098e-19 -0.516601 1.25924e-20 -0.505335)
(-0.554895 -0.0372871 8.40578e-20 -0.46989 7.5036e-21 -0.410868)
(-0.418524 -0.00494705 1.47435e-19 -0.503796 -1.32727e-20 -0.369881)
(-0.227036 0.040183 -4.65617e-20 -0.455683 9.82565e-21 -0.274037)
(-0.717408 -0.0569649 -1.02275e-20 -0.509158 3.12596e-24 -0.491576)
(-0.541429 -0.0373027 5.03557e-20 -0.465808 4.6236e-20 -0.403841)
(-0.414655 -0.00488328 3.46368e-20 -0.497353 -3.39673e-20 -0.365748)
(-0.236604 0.0402809 9.28348e-20 -0.452621 -1.74806e-20 -0.276631)
(-0.690085 -0.0570584 -1.28589e-20 -0.501699 1.01943e-21 -0.477654)
(-0.527538 -0.0372521 8.22844e-20 -0.4617 -3.18077e-20 -0.396634)
(-0.410331 -0.00473239 4.4596e-20 -0.490894 1.86305e-20 -0.361427)
(-0.245674 0.0404433 -1.22006e-20 -0.449534 5.65775e-21 -0.279017)
(-0.662477 -0.0571565 1.10527e-19 -0.494208 -3.31524e-21 -0.463606)
(-0.513275 -0.0371309 -1.45362e-19 -0.457539 -1.17197e-20 -0.389256)
(-0.40557 -0.00448848 9.00534e-21 -0.4844 -8.06806e-21 -0.356918)
(-0.254213 0.0406746 -1.25349e-19 -0.446391 -2.44755e-21 -0.281168)
(-0.634692 -0.05726 -1.27427e-19 -0.48667 3.40119e-20 -0.449469)
(-0.498694 -0.036935 1.52341e-19 -0.453296 2.00193e-20 -0.381719)
(-0.400387 -0.0041455 -2.14728e-19 -0.477853 -1.65711e-20 -0.352218)
(-0.262184 0.0409797 5.05793e-20 -0.443161 1.82158e-21 -0.283056)
(-0.606843 -0.0573705 -5.66515e-20 -0.479071 -1.1972e-20 -0.435282)
(-0.483855 -0.0366606 5.70331e-20 -0.44894 4.06952e-20 -0.374033)
(-0.3948 -0.00369717 -1.23183e-19 -0.471232 -2.20745e-20 -0.347326)
(-0.269544 0.0413644 5.85894e-20 -0.439809 -1.10008e-20 -0.284652)
(-0.579052 -0.0574907 -7.17683e-20 -0.471394 -6.24979e-22 -0.421086)
(-0.468817 -0.036304 -5.70601e-20 -0.444441 -2.73432e-20 -0.36621)
(-0.388827 -0.00313684 -6.38067e-20 -0.464514 -1.49644e-22 -0.342242)
(-0.276254 0.0418357 1.22909e-19 -0.436299 3.69155e-21 -0.285924)
(-0.551443 -0.0576248 -6.45964e-20 -0.463619 -9.14025e-21 -0.406924)
(-0.453647 -0.0358624 4.77976e-20 -0.439761 -8.9452e-22 -0.358262)
(-0.382488 -0.00245736 3.7877e-20 -0.457676 -1.12907e-20 -0.336964)
(-0.282267 0.0424018 1.93265e-20 -0.432591 5.10879e-21 -0.286839)
(-0.524153 -0.0577786 5.02246e-20 -0.455724 7.31049e-21 -0.392841)
(-0.438416 -0.0353336 -4.04579e-20 -0.434861 4.85095e-21 -0.350201)
(-0.375807 -0.00165083 4.56051e-20 -0.450689 3.4107e-20 -0.331488)
(-0.28754 0.0430727 -6.0802e-20 -0.428642 -1.30728e-20 -0.28736)
(-0.497321 -0.0579606 -1.76856e-19 -0.447682 -1.4364e-20 -0.378883)
(-0.423198 -0.034717 2.39803e-19 -0.429695 -3.41528e-20 -0.342039)
(-0.368811 -0.000708092 -8.15429e-20 -0.443518 7.45403e-20 -0.325813)
(-0.292024 0.0438611 4.76323e-20 -0.4244 -1.76528e-20 -0.287449)
(-0.471097 -0.0581837 -5.27316e-20 -0.439459 -3.71334e-20 -0.365097)
(-0.408083 -0.0340151 -4.45126e-20 -0.424208 1.09498e-19 -0.333791)
(-0.361536 0.000382359 7.86319e-20 -0.436121 -3.70199e-20 -0.319937)
(-0.295676 0.0447837 -1.30671e-19 -0.419808 -1.67876e-20 -0.287065)
(-0.44563 -0.0584687 -5.95891e-20 -0.431007 -1.33618e-20 -0.351521)
(-0.393167 -0.0332373 1.33469e-19 -0.418327 2.51541e-20 -0.325464)
(-0.354026 0.00163798 1.68764e-19 -0.428438 1.58544e-20 -0.313852)
(-0.298441 0.0458648 -1.19961e-19 -0.414793 -3.11758e-20 -0.286158)
(-0.421077 -0.0588497 1.21044e-19 -0.422265 2.7916e-20 -0.338195)
(-0.378596 -0.0324056 -1.15121e-19 -0.411966 2.93328e-20 -0.317084)
(-0.346373 0.00308758 -1.15507e-20 -0.420395 9.88378e-21 -0.307566)
(-0.300271 0.0471413 5.86172e-20 -0.409267 -9.06716e-21 -0.284672)
(-0.397533 -0.0593956 1.02616e-20 -0.413119 -4.58262e-20 -0.325112)
(-0.364515 -0.0315772 -3.81408e-20 -0.404961 1.40287e-20 -0.308642)
(-0.338665 0.00479272 -1.85367e-19 -0.411842 -6.19694e-20 -0.301054)
(-0.30105 0.0486843 -3.81371e-20 -0.403091 3.05438e-20 -0.282506)
(-0.375106 -0.0602221 -4.91426e-21 -0.403402 1.26503e-20 -0.312247)
(-0.351359 -0.0308616 9.16964e-20 -0.397146 4.44013e-20 -0.300247)
(-0.331285 0.00686507 1.04106e-19 -0.402625 -5.20269e-20 -0.294408)
(-0.300673 0.0506108 9.0787e-20 -0.396069 5.44613e-21 -0.27954)
(-0.353441 -0.0616123 2.06585e-19 -0.392725 4.55853e-20 -0.299303)
(-0.339366 -0.0305199 -2.02773e-19 -0.38799 3.15567e-21 -0.29178)
(-0.324414 0.00956412 -1.18676e-19 -0.392226 -5.93624e-20 -0.287493)
(-0.298577 0.0532034 -3.81761e-20 -0.387786 9.0814e-21 -0.275382)
(-0.332476 -0.0639183 -9.93495e-20 -0.380513 -3.25272e-20 -0.286026)
(-0.330616 -0.0308879 2.05725e-19 -0.377438 5.24916e-20 -0.284053)
(-0.320086 0.0132194 2.30269e-20 -0.380605 4.091e-20 -0.281108)
(-0.294482 0.0568129 -4.01861e-20 -0.377633 1.51582e-20 -0.269676)
(-0.30921 -0.0680057 1.51838e-20 -0.36529 -2.73799e-20 -0.270625)
(-0.324331 -0.0325522 1.5581e-19 -0.363919 -9.06158e-21 -0.276125)
(-0.317492 0.018402 -1.43702e-19 -0.366208 -2.646e-20 -0.274306)
(-0.285204 0.0622981 1.78136e-19 -0.3641 -3.72984e-20 -0.260546)
(-0.286204 -0.0726565 2.65241e-21 -0.346994 1.20343e-20 -0.254098)
(-0.330803 -0.0345052 -6.22703e-20 -0.353537 -3.40085e-20 -0.274557)
(-0.32689 0.0240693 7.89614e-20 -0.355148 1.41083e-19 -0.273636)
(-0.273032 0.0684359 -1.16668e-19 -0.347042 -2.10733e-20 -0.248849)
(-0.248622 -0.0748309 -7.42806e-20 -0.330167 1.99396e-21 -0.232329)
(-0.327268 -0.0342098 5.00148e-20 -0.351288 2.04027e-20 -0.272239)
(-0.325623 0.0276186 3.69287e-20 -0.352513 8.69406e-21 -0.272071)
(-0.243148 0.0720693 -1.22855e-19 -0.330981 1.62032e-20 -0.230466)
(-0.253628 -0.0529187 5.67477e-21 -0.369382 -3.19924e-20 -0.250016)
(-0.359449 -0.0235481 -5.67083e-20 -0.44322 5.23013e-21 -0.321884)
(-0.359004 0.020979 -1.58691e-20 -0.444554 -1.75252e-20 -0.32224)
(-0.25174 0.051363 3.98805e-20 -0.370723 -1.51233e-20 -0.249797)
)
;

boundaryField
{
    plateFix
    {
        type            calculated;
        value           nonuniform List<symmTensor> 4((-1.57801 -0.302523 -1.12766e-21 -0.554532 7.99705e-20 -0.854257) (-0.923357 0.0158328 -7.21575e-24 -0.493933 4.72479e-23 -0.567842) (-0.629309 0.187379 3.56755e-23 -0.368698 -5.25241e-23 -0.400128) (-0.369875 0.178335 -1.24004e-21 -0.127761 -1.05043e-19 -0.200266));
    }
    plate
    {
        type            calculated;
        value           nonuniform List<symmTensor> 
168
(
(-1.21436 0.000239121 -7.23794e-23 0.00110427 -9.14213e-23 -0.486633)
(-0.276458 -0.000170115 -2.60591e-22 0.0100435 4.66828e-22 -0.107871)
(-1.26597 0.00128442 1.56116e-21 0.00512216 -3.08294e-22 -0.505675)
(-0.266363 -0.0012433 1.46417e-21 0.0141073 -1.06389e-21 -0.102211)
(-1.3329 0.0039243 -3.14911e-21 0.0088762 -2.16481e-22 -0.53096)
(-0.265237 -0.00392787 -4.93044e-21 0.0179033 3.23462e-23 -0.100252)
(-1.3639 0.00765628 5.93944e-22 0.0118419 7.31726e-22 -0.542182)
(-0.259846 -0.00770989 3.93521e-21 0.0209027 1.34302e-21 -0.0969017)
(-1.38902 0.0121396 4.97698e-22 0.0138502 -1.12104e-21 -0.551434)
(-0.25575 -0.0122408 1.82554e-21 0.0229361 -1.1609e-21 -0.0944548)
(-1.40439 0.0171317 9.16821e-22 0.0147271 1.58024e-21 -0.557234)
(-0.25091 -0.0172789 -1.29971e-21 0.023829 -6.60143e-24 -0.0921646)
(-1.41615 0.0224344 -1.71808e-21 0.0144101 -8.59525e-23 -0.562067)
(-0.245797 -0.0226254 1.13703e-21 0.0235197 -1.34056e-21 -0.0902457)
(-1.42448 0.0279126 3.29839e-21 0.0128677 -8.49968e-22 -0.566021)
(-0.239622 -0.0281459 -2.05221e-21 0.0219771 3.63346e-22 -0.0883944)
(-1.43046 0.0334909 -4.24834e-21 0.0100225 2.96982e-23 -0.569551)
(-0.231983 -0.0337658 -1.29464e-21 0.0191232 1.5468e-21 -0.0864817)
(-1.43397 0.039131 2.02032e-21 0.00571168 2.28312e-22 -0.572681)
(-0.222345 -0.0394482 8.90626e-22 0.0147924 -7.14688e-22 -0.0843596)
(-1.43493 0.0448062 -1.3102e-21 -0.000339134 2.75845e-22 -0.575487)
(-0.210326 -0.0451674 -8.31941e-22 0.0087058 -1.03139e-23 -0.0819868)
(-1.43307 0.0504743 7.25251e-22 -0.00852736 -3.69341e-22 -0.578017)
(-0.195612 -0.0508816 -2.36503e-21 0.00045956 -1.29101e-22 -0.0793988)
(-1.42814 0.0560531 -3.02573e-21 -0.0193729 2.98605e-22 -0.580381)
(-0.178004 -0.0565088 7.24842e-22 -0.0104745 6.67225e-24 -0.0767278)
(-1.41992 0.0614012 4.27715e-21 -0.0335052 9.24731e-22 -0.582742)
(-0.157389 -0.0619065 1.02975e-21 -0.0247355 -9.77391e-22 -0.074184)
(-1.40823 0.0663034 -2.4115e-21 -0.0516366 -7.74136e-22 -0.585314)
(-0.133751 -0.0668579 2.63976e-21 -0.0430467 2.60523e-21 -0.0720503)
(-1.39296 0.070465 8.59881e-22 -0.0745176 4.20898e-22 -0.588353)
(-0.107166 -0.0710659 -2.85477e-21 -0.0661695 -2.86746e-21 -0.0706616)
(-1.37408 0.0735153 -9.9592e-21 -0.102867 -1.09023e-21 -0.592135)
(-0.0778284 -0.074157 2.34076e-21 -0.0948337 1.10012e-21 -0.0703877)
(-1.35168 0.0750276 1.36342e-20 -0.137269 5.95971e-22 -0.596929)
(-0.0460724 -0.075701 -1.61858e-21 -0.129631 1.38378e-21 -0.0715994)
(-1.32602 0.0745483 -4.25222e-21 -0.178056 1.77035e-21 -0.602971)
(-0.0124214 -0.0752415 2.00873e-21 -0.170902 1.57919e-21 -0.0746418)
(-1.29755 0.0716742 -6.10756e-21 -0.225093 1.3778e-21 -0.61039)
(0.0223872 -0.0723731 3.04092e-21 -0.218507 4.99058e-21 -0.0797546)
(-1.26691 0.066093 2.81238e-20 -0.277771 -3.30058e-21 -0.619196)
(0.0574299 -0.0667821 5.27747e-21 -0.271834 -9.98227e-21 -0.0870621)
(-1.23528 0.057643 -8.417e-22 -0.334689 1.70776e-21 -0.6293)
(0.0912875 -0.0583074 5.15532e-21 -0.329462 4.11871e-21 -0.0965635)
(-1.20142 0.0470442 1.01289e-20 -0.394674 1.60194e-22 -0.639738)
(0.124864 -0.0476775 1.91262e-20 -0.390217 1.83085e-22 -0.107427)
(-1.16982 0.03503 -2.89152e-20 -0.457653 1.69557e-24 -0.652276)
(0.153395 -0.0356315 -6.07635e-20 -0.454001 4.67272e-23 -0.121521)
(-1.14082 0.0217744 -1.30813e-22 -0.511906 8.66447e-21 -0.662366)
(0.176842 -0.0223359 5.87471e-20 -0.508961 8.13496e-21 -0.134118)
(-1.11698 0.00871496 3.20187e-20 -0.559318 4.39404e-22 -0.671785)
(0.193047 -0.00923865 -2.44649e-20 -0.557001 -8.38227e-21 -0.146844)
(-1.09705 -0.0039371 -2.04008e-20 -0.597722 -1.92328e-20 -0.679163)
(0.203613 0.00345119 -2.38942e-20 -0.59593 4.57888e-23 -0.158181)
(-1.08163 -0.0155662 -3.30136e-20 -0.628182 1.28788e-20 -0.685168)
(0.208214 0.0151149 5.73908e-21 -0.626823 -3.90621e-25 -0.16869)
(-1.06993 -0.0260255 1.94835e-21 -0.650858 8.06568e-21 -0.689552)
(0.20787 0.0256067 2.70818e-20 -0.649846 2.08173e-21 -0.178028)
(-1.06171 -0.0351389 2.91643e-20 -0.66681 -1.36966e-20 -0.692633)
(0.203036 0.0347507 1.56623e-20 -0.66607 8.12131e-21 -0.186443)
(-1.05628 -0.0429051 6.12703e-21 -0.67691 3.04592e-21 -0.694496)
(0.194515 0.0425463 1.30096e-20 -0.676378 -1.18445e-20 -0.193966)
(-1.05314 -0.0493615 1.76365e-20 -0.682173 1.28987e-21 -0.695335)
(0.18294 0.0490315 2.02896e-21 -0.681797 -1.334e-22 -0.200755)
(-1.05168 -0.0546085 -8.2165e-20 -0.683503 -6.97981e-21 -0.695275)
(0.168973 0.0543075 3.50675e-20 -0.683239 -5.01413e-23 -0.206909)
(-1.05138 -0.0587691 5.07586e-20 -0.681728 5.43521e-21 -0.694439)
(0.153185 0.0584976 -2.84944e-20 -0.681544 2.57406e-21 -0.212537)
(-1.05176 -0.0619819 1.09557e-20 -0.677561 -1.42363e-21 -0.692916)
(0.136086 0.061741 4.20431e-20 -0.677429 -5.46934e-21 -0.217722)
(-1.05239 -0.0643868 -6.73292e-20 -0.671604 1.58087e-21 -0.690776)
(0.118107 0.0641773 -4.65921e-20 -0.671503 4.82299e-21 -0.222535)
(-1.0529 -0.0661181 8.67154e-21 -0.664353 1.20666e-21 -0.688073)
(0.0996083 0.0659411 -2.12473e-21 -0.664268 -1.69579e-21 -0.227031)
(-1.053 -0.0672995 -3.68823e-20 -0.656207 -1.42613e-21 -0.684845)
(0.0808818 0.0671556 4.40164e-20 -0.656127 1.19718e-21 -0.231257)
(-1.05242 -0.0680412 1.44465e-20 -0.647488 -1.13788e-21 -0.68112)
(0.062158 0.0679309 -5.13483e-20 -0.647404 6.63387e-21 -0.235249)
(-1.05098 -0.0684394 3.74695e-20 -0.638446 -3.86489e-21 -0.676921)
(0.0436146 0.0683626 1.06019e-20 -0.638353 1.72552e-22 -0.239036)
(-1.04853 -0.0685756 1.3748e-20 -0.629274 5.00673e-21 -0.672263)
(0.0253843 0.068532 -9.35125e-20 -0.629168 -4.97702e-21 -0.242646)
(-1.04495 -0.068518 -1.42941e-19 -0.62012 5.43708e-21 -0.66716)
(0.00756264 0.0685068 6.65595e-20 -0.619998 3.85178e-21 -0.246097)
(-1.04016 -0.0683223 9.21543e-20 -0.611091 -5.21472e-21 -0.661623)
(-0.0097851 0.0683422 3.1268e-20 -0.610951 -2.36683e-21 -0.249409)
(-1.0341 -0.0680335 8.9509e-20 -0.602266 -6.99727e-23 -0.655663)
(-0.0266177 0.068083 -1.27411e-19 -0.602108 -1.27696e-21 -0.252595)
(-1.02676 -0.0676871 2.50182e-20 -0.593696 -3.5215e-21 -0.649288)
(-0.0429129 0.0677643 5.56505e-20 -0.593521 -4.84326e-21 -0.255669)
(-1.0181 -0.0673108 -1.20919e-19 -0.585415 -9.59362e-22 -0.642505)
(-0.0586627 0.0674136 9.3426e-20 -0.585223 6.9874e-21 -0.258641)
(-1.00814 -0.0669256 9.18314e-22 -0.57744 9.15164e-21 -0.635321)
(-0.07387 0.0670516 -7.89344e-21 -0.577233 -2.151e-21 -0.261518)
(-0.996884 -0.0665475 -3.31187e-20 -0.569777 -4.5095e-21 -0.627744)
(-0.0885458 0.0666942 4.88111e-20 -0.569556 -6.24581e-23 -0.264309)
(-0.98435 -0.066188 -1.59979e-19 -0.56242 -2.45254e-23 -0.619779)
(-0.102706 0.0663527 -1.65636e-20 -0.562189 8.70583e-23 -0.267016)
(-0.970567 -0.0658552 7.60924e-20 -0.55536 -4.59216e-21 -0.611432)