/*--------------------------------*- C++ -*----------------------------------*\
| =========                 |                                                 |
| \\      /  F ield         | OpenFOAM Extend Project: Open source CFD        |
|  \\    /   O peration     | Version:  1.6-ext                               |
|   \\  /    A nd           | Web:      www.extend-project.de                 |
|    \\/     M anipulation  |                                                 |
\*---------------------------------------------------------------------------*/
FoamFile
{
    version     2.0;
    format      ascii;
    class       volScalarField;
    location    "0.2";
    object      sigmaEq;
}
// * * * * * * * * * * * * * * * * * * * * * * * * * * * * * * * * * * * * * //

dimensions      [1 -1 -2 0 0 0 0];

internalField   nonuniform List<scalar> 
328
(
0.996757
0.419529
0.381905
0.321631
1.04548
0.572538
0.397895
0.288831
1.11388
0.708619
0.439782
0.269486
1.15639
0.79786
0.48001
0.258699
1.18985
0.862739
0.516761
0.255162
1.21093
0.903676
0.543318
0.253433
1.22495
0.928548
0.560101
0.251503
1.23307
0.940242
0.567195
0.247698
1.23679
0.942335
0.56607
0.241265
1.23646
0.936913
0.557966
0.231685
1.23213
0.925653
0.544059
0.21867
1.22348
0.909464
0.525098
0.202037
1.20999
0.888744
0.501444
0.181792
1.19102
0.863394
0.473054
0.158331
1.16586
0.832961
0.439586
0.133068
1.13377
0.79677
0.400519
0.1101
1.09406
0.754092
0.355325
0.0993152
1.04628
0.704327
0.303706
0.113524
0.990267
0.647207
0.245929
0.153211
0.926469
0.583035
0.18355
0.209703
0.85592
0.512822
0.121688
0.276424
0.780808
0.43857
0.0804933
0.348759
0.701197
0.360366
0.103205
0.425863
0.621914
0.284664
0.166857
0.502562
0.55269
0.221599
0.230844
0.568685
0.494709
0.173707
0.286599
0.623541
0.448516
0.142692
0.331664
0.666414
0.413627
0.12749
0.365833
0.697691
0.388815
0.123481
0.3897
0.718231
0.372517
0.124949
0.404342
0.729207
0.363026
0.127829
0.411054
0.731978
0.358777
0.130241
0.411175
0.727903
0.358411
0.13172
0.406001
0.718298
0.36082
0.132507
0.396713
0.70435
0.365116
0.133098
0.384356
0.687111
0.37059
0.133992
0.369823
0.667474
0.376674
0.135562
0.353865
0.646188
0.382912
0.137996
0.337093
0.623863
0.388935
0.141298
0.320001
0.600989
0.394451
0.145332
0.302976
0.57795
0.39923
0.149877
0.286319
0.555042
0.403092
0.154675
0.270253
0.532487
0.405906
0.159478
0.25494
0.510447
0.407578
0.164065
0.240493
0.489034
0.408046
0.168254
0.226979
0.468324
0.407276
0.171905
0.214436
0.448359
0.405255
0.174917
0.20287
0.42916
0.401989
0.177222
0.192271
0.410727
0.397498
0.17878
0.182608
0.393049
0.391814
0.179573
0.173841
0.376106
0.38498
0.179605
0.165917
0.35987
0.377048
0.178891
0.158781
0.344312
0.368074
0.177461
0.152372
0.329399
0.358126
0.175353
0.146627
0.315103
0.347273
0.172614
0.141486
0.301395
0.335595
0.169298
0.136886
0.28825
0.323176
0.165465
0.132772
0.275649
0.310109
0.161181
0.129088
0.263577
0.296493
0.156518
0.125785
0.252022
0.282438
0.151553
0.122817
0.240978
0.268064
0.14637
0.120142
0.230444
0.253503
0.141059
0.117723
0.220422
0.238901
0.135716
0.115529
0.210919
0.22442
0.130442
0.113529
0.201941
0.21024
0.125343
0.111701
0.1935
0.196563
0.120525
0.11002
0.185604
0.183609
0.116093
0.108467
0.178267
0.171618
0.112139
0.107024
0.171496
0.160837
0.108743
0.105673
0.165302
0.151508
0.105954
0.104395
0.15969
0.143842
0.103788
0.103168
0.154665
0.137984
0.102217
0.101963
0.150228
0.133977
0.101165
0.10074
0.146385
0.131754
0.100501
0.0994309
0.143146
0.131149
0.100045
0.0979315
0.140567
0.13195
0.0995317
0.0960285
0.138735
0.134124
0.0986758
0.093486
0.138048
0.13767
0.0969679
0.0898057
0.138835
0.143778
0.0947537
0.0857795
0.142903
0.150049
0.0923633
0.0829299
0.147995
0.158248
0.0918579
0.0855527
0.156753
0.149102
0.115061
0.114613
0.149353
)
;

boundaryField
{
    plateFix
    {
        type            calculated;
        value           nonuniform List<scalar> 4(1.05125 0.398599 0.40749 0.376473);
    }
    plate
    {
        type            calculated;
        value           nonuniform List<scalar> 
168
(
1.05944
0.249408
1.10784
0.244078
1.1694
0.246416
1.199
0.244546
1.22271
0.243271
1.23702
0.240756
1.24725
0.237426
1.25354
0.232636
1.25674
0.226073
1.25663
0.217304
1.2529
0.206048
1.245
0.192172
1.23225
0.175886
1.21394
0.15805
1.18927
0.140882
1.15747
0.129104
1.11786
0.130265
1.06993
0.150641
1.01354
0.190028
0.949115
0.244072
0.877702
0.308377
0.801567
0.378787
0.720995
0.454355
0.640419
0.53041
0.570058
0.596038
0.511027
0.650707
0.464048
0.693491
0.428656
0.724776
0.403656
0.745366
0.38745
0.756415
0.378266
0.759261
0.374455
0.755254
0.374574
0.745701
0.377452
0.731787
0.382154
0.714559
0.387945
0.694912
0.394248
0.673597
0.400607
0.651224
0.40666
0.628287
0.412126
0.605172
0.416783
0.582176
0.420466
0.559525
0.423052
0.537381
0.424454
0.515861
0.424619
0.495041
0.423518
0.474964
0.421142
0.455652
0.417502
0.437109
0.412621
0.419324
0.406534
0.402278
0.399288
0.385945
0.390934
0.370297
0.381535
0.355304
0.371159
0.340937
0.359881
0.327171
0.347783
0.313982
0.334955
0.301351
0.321493
0.289265
0.307506
0.277715
0.293109
0.266696
0.278432
0.256207
0.263617
0.246253
0.248823
0.236838
0.234227
0.227972
0.220026
0.219664
0.206437
0.211924
0.1937
0.204762
0.182071
0.198185
0.171811
0.192202
0.163167
0.186815
0.156342
0.182029
0.151464
0.177844
0.148548
0.174264
0.147488
0.171294
0.148072
0.168967
0.15001
0.167311
0.153083
0.166542
0.157012
0.166676
0.162561
0.168995
0.168725
0.172379
0.185067
0.18697
0.198894
0.117628
0.111025
0.112
0.119514
0.199922
)
;
    }
    frontAndBackPlanes
    {
        type            empty;
    }
}


// ************************************************************************* //
