/*--------------------------------*- C++ -*----------------------------------*\
| =========                 |                                                 |
| \\      /  F ield         | OpenFOAM Extend Project: Open source CFD        |
|  \\    /   O peration     | Version:  1.6-ext                               |
|   \\  /    A nd           | Web:      www.extend-project.de                 |
|    \\/     M anipulation  |                                                 |
\*---------------------------------------------------------------------------*/
FoamFile
{
    version     2.0;
    format      ascii;
    class       volVectorField;
    location    "0.2";
    object      Usolid;
}
// * * * * * * * * * * * * * * * * * * * * * * * * * * * * * * * * * * * * * //

dimensions      [0 1 0 0 0 0 0];

internalField   nonuniform List<vector> 
328
(
(-3.61175e-08 -5.40672e-08 0)
(-1.78045e-08 7.00638e-10 0)
(-1.1468e-08 1.79374e-08 0)
(-8.32241e-09 2.98738e-08 0)
(-1.11017e-07 -1.37998e-07 0)
(-5.92643e-08 -5.15596e-09 0)
(-3.72026e-08 4.52715e-08 0)
(-2.41623e-08 7.7312e-08 0)
(-1.98489e-07 -2.02852e-07 0)
(-1.15261e-07 -1.82904e-08 0)
(-7.0612e-08 6.35832e-08 0)
(-4.16004e-08 1.1026e-07 0)
(-2.94427e-07 -2.54783e-07 0)
(-1.80537e-07 -3.7871e-08 0)
(-1.09795e-07 7.11446e-08 0)
(-5.98227e-08 1.27973e-07 0)
(-3.99958e-07 -3.00596e-07 0)
(-2.55942e-07 -6.40539e-08 0)
(-1.55334e-07 6.68102e-08 0)
(-7.91682e-08 1.30275e-07 0)
(-5.1454e-07 -3.4587e-07 0)
(-3.39815e-07 -9.79684e-08 0)
(-2.06471e-07 4.90773e-08 0)
(-9.95199e-08 1.16524e-07 0)
(-6.38645e-07 -3.95619e-07 0)
(-4.3194e-07 -1.41544e-07 0)
(-2.6296e-07 1.63732e-08 0)
(-1.20914e-07 8.57061e-08 0)
(-7.72545e-07 -4.54325e-07 0)
(-5.31688e-07 -1.97389e-07 0)
(-3.24271e-07 -3.32699e-08 0)
(-1.43239e-07 3.62526e-08 0)
(-9.16709e-07 -5.26327e-07 0)
(-6.38832e-07 -2.68715e-07 0)
(-3.9e-07 -1.02241e-07 0)
(-1.66333e-07 -3.39833e-08 0)
(-1.07155e-06 -6.15995e-07 0)
(-7.53126e-07 -3.59295e-07 0)
(-4.59702e-07 -1.93516e-07 0)
(-1.89899e-07 -1.27838e-07 0)
(-1.23747e-06 -7.2795e-07 0)
(-8.74446e-07 -4.73481e-07 0)
(-5.32966e-07 -3.10756e-07 0)
(-2.13517e-07 -2.48925e-07 0)
(-1.41476e-06 -8.67234e-07 0)
(-1.00266e-06 -6.16251e-07 0)
(-6.09344e-07 -4.58434e-07 0)
(-2.36593e-07 -4.01738e-07 0)
(-1.6036e-06 -1.03948e-06 0)
(-1.13762e-06 -7.93308e-07 0)
(-6.88332e-07 -6.41946e-07 0)
(-2.58341e-07 -5.91761e-07 0)
(-1.80399e-06 -1.25108e-06 0)
(-1.27906e-06 -1.01121e-06 0)
(-7.69301e-07 -8.67738e-07 0)
(-2.77738e-07 -8.25584e-07 0)
(-2.01572e-06 -1.5094e-06 0)
(-1.42656e-06 -1.27754e-06 0)
(-8.51434e-07 -1.14344e-06 0)
(-2.93491e-07 -1.11102e-06 0)
(-2.23833e-06 -1.82301e-06 0)
(-1.57945e-06 -1.60109e-06 0)
(-9.33655e-07 -1.47802e-06 0)
(-3.03991e-07 -1.45722e-06 0)
(-2.47102e-06 -2.20188e-06 0)
(-1.73673e-06 -1.99208e-06 0)
(-1.01456e-06 -1.88192e-06 0)
(-3.07274e-07 -1.87485e-06 0)
(-2.71269e-06 -2.65777e-06 0)
(-1.89705e-06 -2.46245e-06 0)
(-1.09238e-06 -2.36729e-06 0)
(-3.01e-07 -2.37617e-06 0)
(-2.96184e-06 -3.20448e-06 0)
(-2.05866e-06 -3.02608e-06 0)
(-1.16493e-06 -2.94816e-06 0)
(-2.82456e-07 -2.97525e-06 0)
(-3.21669e-06 -3.85824e-06 0)
(-2.21945e-06 -3.69914e-06 0)
(-1.22967e-06 -3.64069e-06 0)
(-2.48599e-07 -3.68813e-06 0)
(-3.47521e-06 -4.63811e-06 0)
(-2.377e-06 -4.50041e-06 0)
(-1.28377e-06 -4.46345e-06 0)
(-1.9619e-07 -4.53307e-06 0)
(-3.73526e-06 -5.56637e-06 0)
(-2.52876e-06 -5.45164e-06 0)
(-1.32428e-06 -5.43771e-06 0)
(-1.21899e-07 -5.53076e-06 0)
(-4.00499e-06 -6.71094e-06 0)
(-2.67781e-06 -6.62088e-06 0)
(-1.34933e-06 -6.63169e-06 0)
(-1.90428e-08 -6.74949e-06 0)
(-4.27066e-06 -8.07349e-06 0)
(-2.81426e-06 -8.00827e-06 0)
(-1.35317e-06 -8.04381e-06 0)
(1.13653e-07 -8.18608e-06 0)
(-4.51531e-06 -9.57474e-06 0)
(-2.93001e-06 -9.53149e-06 0)
(-1.33673e-06 -9.58879e-06 0)
(2.66052e-07 -9.75227e-06 0)
(-4.74197e-06 -1.12142e-05 0)
(-3.02813e-06 -1.11899e-05 0)
(-1.3033e-06 -1.12657e-05 0)
(4.34453e-07 -1.1447e-05 0)
(-4.95346e-06 -1.29914e-05 0)
(-3.11169e-06 -1.29826e-05 0)
(-1.25614e-06 -1.30735e-05 0)
(6.1543e-07 -1.32688e-05 0)
(-5.15292e-06 -1.4905e-05 0)
(-3.18391e-06 -1.49084e-05 0)
(-1.19865e-06 -1.50109e-05 0)
(8.05368e-07 -1.52168e-05 0)
(-5.34311e-06 -1.69534e-05 0)
(-3.24773e-06 -1.69659e-05 0)
(-1.13391e-06 -1.7077e-05 0)
(1.00108e-06 -1.72902e-05 0)
(-5.52664e-06 -1.91348e-05 0)
(-3.30587e-06 -1.91538e-05 0)
(-1.06475e-06 -1.92705e-05 0)
(1.19963e-06 -1.9488e-05 0)
(-5.70569e-06 -2.14471e-05 0)
(-3.36062e-06 -2.14702e-05 0)
(-9.93574e-07 -2.15901e-05 0)
(1.39852e-06 -2.18096e-05 0)
(-5.88212e-06 -2.38884e-05 0)
(-3.41394e-06 -2.39136e-05 0)
(-9.22425e-07 -2.40347e-05 0)
(1.59567e-06 -2.4254e-05 0)
(-6.05738e-06 -2.64563e-05 0)
(-3.46741e-06 -2.64822e-05 0)
(-8.52945e-07 -2.66029e-05 0)
(1.78937e-06 -2.68203e-05 0)
(-6.2326e-06 -2.91489e-05 0)
(-3.52223e-06 -2.91742e-05 0)
(-7.86429e-07 -2.92931e-05 0)
(1.9783e-06 -2.95074e-05 0)
(-6.40862e-06 -3.1964e-05 0)
(-3.57933e-06 -3.19878e-05 0)
(-7.23854e-07 -3.21041e-05 0)
(2.16143e-06 -3.23141e-05 0)
(-6.58598e-06 -3.48995e-05 0)
(-3.63934e-06 -3.49211e-05 0)
(-6.65923e-07 -3.5034e-05 0)
(2.33802e-06 -3.52392e-05 0)
(-6.765e-06 -3.79533e-05 0)
(-3.70268e-06 -3.79724e-05 0)
(-6.13111e-07 -3.80814e-05 0)
(2.50757e-06 -3.82812e-05 0)
(-6.94582e-06 -4.11233e-05 0)
(-3.76956e-06 -4.11396e-05 0)
(-5.65702e-07 -4.12445e-05 0)
(2.66974e-06 -4.14385e-05 0)
(-7.12842e-06 -4.44074e-05 0)
(-3.84005e-06 -4.44209e-05 0)
(-5.23827e-07 -4.45214e-05 0)
(2.82437e-06 -4.47095e-05 0)
(-7.31266e-06 -4.78034e-05 0)
(-3.91409e-06 -4.78141e-05 0)
(-4.87493e-07 -4.79104e-05 0)
(2.97141e-06 -4.80925e-05 0)
(-7.49829e-06 -5.13093e-05 0)
(-3.99153e-06 -5.13173e-05 0)
(-4.56615e-07 -5.14093e-05 0)
(3.11087e-06 -5.15855e-05 0)
(-7.685e-06 -5.49228e-05 0)
(-4.07214e-06 -5.49284e-05 0)
(-4.31032e-07 -5.50162e-05 0)
(3.24288e-06 -5.51865e-05 0)
(-7.87244e-06 -5.86417e-05 0)
(-4.15564e-06 -5.86451e-05 0)
(-4.10534e-07 -5.8729e-05 0)
(3.36757e-06 -5.88936e-05 0)
(-8.06018e-06 -6.24638e-05 0)
(-4.2417e-06 -6.24652e-05 0)
(-3.9487e-07 -6.25454e-05 0)
(3.48514e-06 -6.27045e-05 0)
(-8.24782e-06 -6.63866e-05 0)
(-4.32997e-06 -6.63865e-05 0)
(-3.83765e-07 -6.64632e-05 0)
(3.5958e-06 -6.66169e-05 0)
(-8.43489e-06 -7.04078e-05 0)
(-4.4201e-06 -7.04064e-05 0)
(-3.76929e-07 -7.04799e-05 0)
(3.69976e-06 -7.06284e-05 0)
(-8.62095e-06 -7.4525e-05 0)
(-4.5117e-06 -7.45226e-05 0)
(-3.74063e-07 -7.45931e-05 0)
(3.79726e-06 -7.47368e-05 0)
(-8.80555e-06 -7.87355e-05 0)
(-4.60441e-06 -7.87325e-05 0)
(-3.74869e-07 -7.88004e-05 0)
(3.88852e-06 -7.89393e-05 0)
(-8.98824e-06 -8.30368e-05 0)
(-4.69785e-06 -8.30335e-05 0)
(-3.7905e-07 -8.3099e-05 0)
(3.97376e-06 -8.32334e-05 0)
(-9.16857e-06 -8.74262e-05 0)
(-4.79166e-06 -8.74229e-05 0)
(-3.86316e-07 -8.74863e-05 0)
(4.0532e-06 -8.76164e-05 0)
(-9.34613e-06 -9.1901e-05 0)
(-4.88549e-06 -9.1898e-05 0)
(-3.96389e-07 -9.19595e-05 0)
(4.12706e-06 -9.20855e-05 0)
(-9.5205e-06 -9.64583e-05 0)
(-4.979e-06 -9.64559e-05 0)
(-4.08996e-07 -9.65157e-05 0)
(4.19552e-06 -9.66378e-05 0)
(-9.69129e-06 -0.000101095 0)
(-5.07185e-06 -0.000101094 0)
(-4.23882e-07 -0.000101152 0)
(4.25878e-06 -0.000101271 0)
(-9.8581e-06 -0.000105809 0)
(-5.16374e-06 -0.000105809 0)
(-4.40799e-07 -0.000105866 0)
(4.31701e-06 -0.000105981 0)
(-1.00206e-05 -0.000110596 0)
(-5.25437e-06 -0.000110597 0)
(-4.59516e-07 -0.000110653 0)
(4.37038e-06 -0.000110765 0)
(-1.01784e-05 -0.000115454 0)
(-5.34346e-06 -0.000115457 0)
(-4.7981e-07 -0.000115512 0)
(4.41906e-06 -0.00011562 0)
(-1.03312e-05 -0.000120379 0)
(-5.43074e-06 -0.000120384 0)
(-5.01471e-07 -0.000120438 0)
(4.46319e-06 -0.000120543 0)
(-1.04788e-05 -0.000125368 0)
(-5.51597e-06 -0.000125375 0)
(-5.24303e-07 -0.000125429 0)
(4.50293e-06 -0.000125531 0)
(-1.06207e-05 -0.000130419 0)
(-5.59892e-06 -0.000130428 0)
(-5.48117e-07 -0.000130482 0)
(4.53842e-06 -0.00013058 0)
(-1.07569e-05 -0.000135527 0)
(-5.67937e-06 -0.000135538 0)
(-5.72735e-07 -0.000135592 0)
(4.56981e-06 -0.000135688 0)
(-1.08871e-05 -0.000140689 0)
(-5.75714e-06 -0.000140702 0)
(-5.97989e-07 -0.000140756 0)
(4.59723e-06 -0.000140849 0)
(-1.1011e-05 -0.000145901 0)
(-5.83204e-06 -0.000145918 0)
(-6.23721e-07 -0.000145971 0)
(4.62082e-06 -0.000146062 0)
(-1.11285e-05 -0.000151162 0)
(-5.90392e-06 -0.000151181 0)
(-6.4978e-07 -0.000151235 0)
(4.64074e-06 -0.000151323 0)
(-1.12396e-05 -0.000156466 0)
(-5.97265e-06 -0.000156488 0)
(-6.76023e-07 -0.000156542 0)
(4.65713e-06 -0.000156628 0)
(-1.1344e-05 -0.000161811 0)
(-6.03811e-06 -0.000161836 0)
(-7.02318e-07 -0.00016189 0)
(4.67014e-06 -0.000161974 0)
(-1.14417e-05 -0.000167193 0)
(-6.1002e-06 -0.000167221 0)
(-7.28539e-07 -0.000167275 0)
(4.67992e-06 -0.000167357 0)
(-1.15327e-05 -0.00017261 0)
(-6.15885e-06 -0.00017264 0)
(-7.54571e-07 -0.000172695 0)
(4.68665e-06 -0.000172774 0)
(-1.1617e-05 -0.000178056 0)
(-6.21402e-06 -0.00017809 0)
(-7.80306e-07 -0.000178145 0)
(4.69047e-06 -0.000178222 0)
(-1.16947e-05 -0.000183531 0)
(-6.26568e-06 -0.000183567 0)
(-8.05649e-07 -0.000183622 0)
(4.69158e-06 -0.000183697 0)
(-1.17658e-05 -0.000189029 0)
(-6.31383e-06 -0.000189068 0)
(-8.30516e-07 -0.000189124 0)
(4.69013e-06 -0.000189197 0)
(-1.18304e-05 -0.000194549 0)
(-6.35852e-06 -0.00019459 0)
(-8.54837e-07 -0.000194646 0)
(4.68631e-06 -0.000194717 0)
(-1.18888e-05 -0.000200087 0)
(-6.39982e-06 -0.00020013 0)
(-8.78558e-07 -0.000200187 0)
(4.68031e-06 -0.000200256 0)
(-1.19413e-05 -0.00020564 0)
(-6.43783e-06 -0.000205686 0)
(-9.0165e-07 -0.000205742 0)
(4.6723e-06 -0.00020581 0)
(-1.1988e-05 -0.000211206 0)
(-6.47272e-06 -0.000211254 0)
(-9.24112e-07 -0.00021131 0)
(4.66248e-06 -0.000211376 0)
(-1.20294e-05 -0.000216783 0)
(-6.50472e-06 -0.000216832 0)
(-9.45998e-07 -0.000216888 0)
(4.65101e-06 -0.000216952 0)
(-1.20658e-05 -0.000222368 0)
(-6.53414e-06 -0.000222418 0)
(-9.67425e-07 -0.000222474 0)
(4.6381e-06 -0.000222535 0)
(-1.20979e-05 -0.000227959 0)
(-6.56156e-06 -0.00022801 0)
(-9.88742e-07 -0.000228064 0)
(4.6239e-06 -0.000228124 0)
(-1.21258e-05 -0.000233555 0)
(-6.58765e-06 -0.000233606 0)
(-1.01039e-06 -0.000233657 0)
(4.60878e-06 -0.000233714 0)
(-1.21503e-05 -0.000239155 0)
(-6.61425e-06 -0.000239205 0)
(-1.03397e-06 -0.000239251 0)
(4.59281e-06 -0.000239305 0)
(-1.21705e-05 -0.000244757 0)
(-6.64221e-06 -0.000244806 0)
(-1.06006e-06 -0.000244844 0)
(4.57768e-06 -0.000244895 0)
(-1.21887e-05 -0.000250353 0)
(-6.67715e-06 -0.000250403 0)
(-1.09401e-06 -0.000250439 0)
(4.56201e-06 -0.000250491 0)
(-1.21931e-05 -0.000255916 0)
(-6.70408e-06 -0.000255987 0)
(-1.12062e-06 -0.000256045 0)
(4.55826e-06 -0.000256117 0)
)
;

boundaryField
{
    plateFix
    {
        type            fixedDisplacement;
        value           uniform (0 0 0);
    }
    plate
    {
        type            solidTraction;
        nonLinear       updatedLagrangian;
        traction        uniform (0 0 0);
        pressure        uniform 0;
        value           nonuniform List<vector> 
168
(
(-2.73422e-07 -1.73239e-07 -8.3588e-26)
(-1.4132e-07 5.55576e-08 -1.09178e-25)
(-2.86391e-07 -2.62987e-07 1.60125e-25)
(-1.197e-07 1.02605e-07 -3.84519e-26)
(-3.28205e-07 -3.35022e-07 2.74859e-26)
(-9.95543e-08 1.35887e-07 1.26333e-25)
(-3.97715e-07 -3.90454e-07 -1.919e-26)
(-8.46783e-08 1.53453e-07 4.20361e-26)
(-4.92212e-07 -4.39028e-07 -6.68789e-26)
(-7.50746e-08 1.5559e-07 -9.42926e-26)
(-6.06719e-07 -4.85926e-07 6.29595e-26)
(-6.94366e-08 1.4145e-07 2.33692e-26)
(-7.38684e-07 -5.3676e-07 -1.06086e-25)
(-6.68067e-08 1.10041e-07 1.39438e-26)
(-8.86209e-07 -5.96026e-07 3.13631e-26)
(-6.61592e-08 5.97139e-08 -5.57629e-26)
(-1.04839e-06 -6.6816e-07 -6.16888e-26)
(-6.65683e-08 -1.17325e-08 9.34081e-26)
(-1.22474e-06 -7.57494e-07 9.40127e-26)
(-6.70697e-08 -1.07213e-07 -7.54067e-26)
(-1.41512e-06 -8.68604e-07 -6.45026e-26)
(-6.66608e-08 -2.30419e-07 1.15098e-26)
(-1.61949e-06 -1.00644e-06 7.79529e-26)
(-6.42344e-08 -3.85939e-07 2.48085e-26)
(-1.83785e-06 -1.17654e-06 -5.89792e-26)
(-5.85466e-08 -5.79354e-07 1.54094e-26)
(-2.07012e-06 -1.38518e-06 4.02108e-27)
(-4.8159e-08 -8.17361e-07 -3.97411e-26)
(-2.31607e-06 -1.6396e-06 9.8593e-27)
(-3.13942e-08 -1.10788e-06 1.41812e-26)
(-2.57523e-06 -1.94823e-06 5.93447e-27)
(-6.2803e-09 -1.46018e-06 -2.09865e-26)
(-2.84689e-06 -2.32096e-06 3.08617e-26)
(2.94877e-08 -1.885e-06 2.31191e-26)
(-3.12999e-06 -2.76944e-06 -1.72012e-26)
(7.85727e-08 -2.39468e-06 -5.88686e-26)
(-3.42315e-06 -3.30746e-06 -1.36059e-26)
(1.43982e-07 -3.00327e-06 4.80253e-26)
(-3.72473e-06 -3.95132e-06 1.18096e-26)
(2.29008e-07 -3.72672e-06 1.60373e-27)
(-4.03288e-06 -4.72023e-06 -1.02876e-26)
(3.37087e-07 -4.58311e-06 1.6859e-26)
(-4.34569e-06 -5.63679e-06 1.15845e-26)
(4.71679e-07 -5.59277e-06 7.44778e-27)
(-4.67408e-06 -6.76898e-06 -6.71158e-27)
(6.41649e-07 -6.82391e-06 -1.70722e-26)
(-5.00265e-06 -8.11892e-06 2.03761e-26)
(8.45688e-07 -8.27285e-06 3.39905e-26)
(-5.3098e-06 -9.60914e-06 -3.46107e-26)
(1.06918e-06 -9.84956e-06 -4.58716e-26)
(-5.5988e-06 -1.12391e-05 2.8059e-26)
(1.30795e-06 -1.1553e-05 1.56738e-26)
(-5.87238e-06 -1.30086e-05 3.64232e-26)
(1.55852e-06 -1.33817e-05 -3.86858e-26)
(-6.13372e-06 -1.4916e-05 -3.84075e-26)
(1.81708e-06 -1.53348e-05 6.13433e-26)
(-6.38553e-06 -1.69599e-05 -4.53578e-27)
(2.0804e-06 -1.74115e-05 -4.21558e-26)
(-6.63038e-06 -1.9138e-05 4.6666e-27)
(2.34549e-06 -1.96112e-05 1.47719e-27)
(-6.87041e-06 -2.14483e-05 4.3975e-27)
(2.60982e-06 -2.19334e-05 2.6626e-26)
(-7.10741e-06 -2.38884e-05 1.69452e-27)
(2.8713e-06 -2.43775e-05 4.44502e-27)
(-7.34279e-06 -2.64561e-05 -1.18608e-26)
(3.12823e-06 -2.69425e-05 -2.39382e-27)
(-7.57761e-06 -2.91489e-05 1.56315e-26)
(3.37927e-06 -2.96277e-05 -2.14138e-26)
(-7.81265e-06 -3.19646e-05 -1.68754e-26)
(3.62342e-06 -3.24321e-05 1.83182e-26)
(-8.04838e-06 -3.49011e-05 1.75625e-27)
(3.85995e-06 -3.53545e-05 -1.55413e-26)
(-8.28506e-06 -3.7956e-05 7.3948e-29)
(4.08835e-06 -3.83935e-05 -7.65208e-28)
(-8.52277e-06 -4.11272e-05 -3.67743e-27)
(4.30831e-06 -4.15477e-05 9.76572e-27)
(-8.76143e-06 -4.44125e-05 1.58452e-26)
(4.51965e-06 -4.48155e-05 -8.302e-27)
(-9.00082e-06 -4.78098e-05 -1.11782e-26)
(4.7223e-06 -4.81952e-05 6.06765e-27)
(-9.24066e-06 -5.13168e-05 -2.54964e-27)
(4.91629e-06 -5.1685e-05 -2.48257e-27)
(-9.48058e-06 -5.49313e-05 5.11549e-27)
(5.10171e-06 -5.52829e-05 -7.48144e-27)
(-9.72016e-06 -5.86511e-05 7.59403e-27)
(5.27868e-06 -5.89868e-05 8.97799e-27)
(-9.95895e-06 -6.24739e-05 2.14711e-27)
(5.44738e-06 -6.27946e-05 5.86618e-27)
(-1.01965e-05 -6.63973e-05 -2.99857e-27)
(5.60798e-06 -6.67041e-05 -1.20207e-26)
(-1.04322e-05 -7.04189e-05 4.66297e-27)
(5.76066e-06 -7.07128e-05 8.92462e-27)
(-1.06657e-05 -7.45362e-05 -2.69215e-26)
(5.90563e-06 -7.48184e-05 -6.72196e-27)
(-1.08965e-05 -7.87468e-05 1.20131e-26)
(6.04309e-06 -7.90183e-05 -2.97354e-27)
(-1.1124e-05 -8.3048e-05 4.35447e-27)
(6.1732e-06 -8.33099e-05 -4.40969e-27)
(-1.13478e-05 -8.74371e-05 -1.07452e-26)
(6.29617e-06 -8.76904e-05 -7.70176e-27)
(-1.15674e-05 -9.19114e-05 -4.12413e-27)
(6.41215e-06 -9.21572e-05 -1.27747e-26)
(-1.17824e-05 -9.6468e-05 3.41089e-28)
(6.52131e-06 -9.67073e-05 1.37319e-26)
(-1.19923e-05 -0.000101104 -3.93872e-27)
(6.62381e-06 -0.000101338 1.01609e-26)
(-1.21968e-05 -0.000105817 5.81427e-27)
(6.71978e-06 -0.000106046 -2.18283e-26)
(-1.23953e-05 -0.000110603 -1.09536e-26)
(6.80936e-06 -0.000110828 3.12835e-26)
(-1.25876e-05 -0.00011546 -2.42338e-26)
(6.89267e-06 -0.000115681 -3.31438e-27)
(-1.27733e-05 -0.000120384 8.48423e-27)
(6.96985e-06 -0.000120603 -4.50186e-27)
(-1.29521e-05 -0.000125372 -7.6784e-27)
(7.041e-06 -0.000125589 1.28481e-26)
(-1.31236e-05 -0.00013042 -8.44284e-27)
(7.10627e-06 -0.000130636 3.09028e-27)
(-1.32877e-05 -0.000135527 3.17433e-26)
(7.16575e-06 -0.000135741 -6.91761e-27)
(-1.3444e-05 -0.000140687 -2.82544e-26)
(7.21959e-06 -0.000140902 -7.56801e-27)
(-1.35924e-05 -0.000145898 9.80754e-28)
(7.26792e-06 -0.000146113 6.75498e-27)
(-1.37327e-05 -0.000151157 9.61371e-27)
(7.31087e-06 -0.000151372 2.54131e-26)
(-1.38648e-05 -0.00015646 4.95167e-28)
(7.34859e-06 -0.000156675 -1.69929e-26)
(-1.39885e-05 -0.000161803 2.12534e-27)
(7.38124e-06 -0.000162019 6.2544e-27)
(-1.41039e-05 -0.000167183 4.17864e-26)
(7.409e-06 -0.000167401 -1.04581e-26)
(-1.42108e-05 -0.000172598 -2.24357e-26)
(7.43204e-06 -0.000172817 1.31999e-26)
(-1.43094e-05 -0.000178043 -7.0898e-27)
(7.45056e-06 -0.000178263 -5.0534e-27)
(-1.43998e-05 -0.000183515 -3.27878e-27)
(7.46477e-06 -0.000183737 2.89186e-27)
(-1.44819e-05 -0.000189012 2.03782e-27)
(7.47488e-06 -0.000189236 1.38539e-26)
(-1.45561e-05 -0.00019453 -9.79876e-27)
(7.48114e-06 -0.000194755 1.57825e-26)
(-1.46226e-05 -0.000200066 -3.70344e-26)
(7.48379e-06 -0.000200292 1.22342e-26)
(-1.46817e-05 -0.000205618 -1.67373e-26)
(7.48309e-06 -0.000205845 2.871e-26)
(-1.47337e-05 -0.000211183 2.44471e-26)
(7.4793e-06 -0.00021141 9.17173e-27)
(-1.47791e-05 -0.000216759 -3.37592e-26)
(7.47268e-06 -0.000216985 -2.87295e-26)
(-1.48185e-05 -0.000222343 -3.72633e-27)
(7.46352e-06 -0.000222567 -1.19062e-27)
(-1.48524e-05 -0.000227933 5.18755e-26)
(7.45204e-06 -0.000228154 -8.48371e-27)
(-1.48814e-05 -0.000233529 -3.35162e-26)
(7.43873e-06 -0.000233744 -1.7027e-26)
(-1.4906e-05 -0.000239128 -2.20435e-26)
(7.42405e-06 -0.000239334 3.54195e-26)
(-1.49232e-05 -0.000244731 9.73689e-27)
(7.41199e-06 -0.000244923 1.9891e-26)
(-1.49279e-05 -0.000250325 1.57969e-27)
(7.40904e-06 -0.000250519 -1.59052e-26)
(-1.48918e-05 -0.000255888 -3.15108e-26)
(-1.21958e-05 -0.00025864 -5.51392e-27)
(-6.71273e-06 -0.000258764 5.65259e-26)
(-1.12915e-06 -0.000258861 1.59351e-26)
(4.55576e-06 -0.000258987 -3.97953e-26)
(7.44485e-06 -0.000256146 1.60584e-26)
)
;
    }
    frontAndBackPlanes
    {
        type            empty;
    }
}


// ************************************************************************* //
