/*--------------------------------*- C++ -*----------------------------------*\
| =========                 |                                                 |
| \\      /  F ield         | OpenFOAM Extend Project: Open source CFD        |
|  \\    /   O peration     | Version:  1.6-ext                               |
|   \\  /    A nd           | Web:      www.extend-project.de                 |
|    \\/     M anipulation  |                                                 |
\*---------------------------------------------------------------------------*/
FoamFile
{
    version     2.0;
    format      ascii;
    class       volScalarField::DimensionedInternalField;
    location    "0.2";
    object      V0;
}
// * * * * * * * * * * * * * * * * * * * * * * * * * * * * * * * * * * * * * //

dimensions      [0 3 0 0 0 0 0];

value           nonuniform List<scalar> 
328
(
2.53334e-07
2.53329e-07
2.53333e-07
2.53338e-07
2.71705e-07
2.71698e-07
2.71701e-07
2.71709e-07
2.91403e-07
2.91398e-07
2.91401e-07
2.91408e-07
3.12529e-07
3.12527e-07
3.12529e-07
3.12536e-07
3.35187e-07
3.35187e-07
3.35189e-07
3.35196e-07
3.59489e-07
3.5949e-07
3.59492e-07
3.59498e-07
3.85552e-07
3.85555e-07
3.85557e-07
3.85563e-07
4.13506e-07
4.1351e-07
4.13512e-07
4.13518e-07
4.43487e-07
4.43492e-07
4.43494e-07
4.435e-07
4.75641e-07
4.75647e-07
4.75649e-07
4.75655e-07
5.10127e-07
5.10133e-07
5.10136e-07
5.10143e-07
5.47114e-07
5.4712e-07
5.47123e-07
5.4713e-07
5.86782e-07
5.86789e-07
5.86792e-07
5.868e-07
6.29326e-07
6.29334e-07
6.29338e-07
6.29346e-07
6.74955e-07
6.74964e-07
6.74967e-07
6.74976e-07
7.23892e-07
7.23901e-07
7.23905e-07
7.23915e-07
7.76377e-07
7.76388e-07
7.76392e-07
7.76402e-07
8.32668e-07
8.32679e-07
8.32684e-07
8.32695e-07
8.9304e-07
8.93052e-07
8.93057e-07
8.93069e-07
9.57789e-07
9.57802e-07
9.57807e-07
9.5782e-07
1.02723e-06
1.02725e-06
1.02725e-06
1.02727e-06
1.10171e-06
1.10173e-06
1.10173e-06
1.10175e-06
1.26865e-06
1.26866e-06
1.26867e-06
1.26869e-06
1.26865e-06
1.26866e-06
1.26867e-06
1.26869e-06
1.26865e-06
1.26866e-06
1.26867e-06
1.26869e-06
1.26865e-06
1.26866e-06
1.26867e-06
1.26869e-06
1.26865e-06
1.26866e-06
1.26867e-06
1.26869e-06
1.26865e-06
1.26866e-06
1.26867e-06
1.26868e-06
1.26864e-06
1.26866e-06
1.26867e-06
1.26868e-06
1.26864e-06
1.26866e-06
1.26867e-06
1.26868e-06
1.26864e-06
1.26866e-06
1.26867e-06
1.26868e-06
1.26864e-06
1.26866e-06
1.26867e-06
1.26868e-06
1.26864e-06
1.26866e-06
1.26867e-06
1.26868e-06
1.26864e-06
1.26866e-06
1.26867e-06
1.26868e-06
1.26864e-06
1.26866e-06
1.26867e-06
1.26868e-06
1.26864e-06
1.26866e-06
1.26867e-06
1.26868e-06
1.26864e-06
1.26866e-06
1.26866e-06
1.26868e-06
1.26864e-06
1.26866e-06
1.26866e-06
1.26868e-06
1.26864e-06
1.26866e-06
1.26866e-06
1.26868e-06
1.26864e-06
1.26866e-06
1.26866e-06
1.26868e-06
1.26865e-06
1.26866e-06
1.26866e-06
1.26868e-06
1.26865e-06
1.26866e-06
1.26866e-06
1.26868e-06
1.26865e-06
1.26866e-06
1.26866e-06
1.26868e-06
1.26865e-06
1.26866e-06
1.26866e-06
1.26868e-06
1.26865e-06
1.26866e-06
1.26866e-06
1.26868e-06
1.26865e-06
1.26866e-06
1.26866e-06
1.26868e-06
1.26865e-06
1.26866e-06
1.26866e-06
1.26868e-06
1.26865e-06
1.26866e-06
1.26866e-06
1.26868e-06
1.26865e-06
1.26866e-06
1.26866e-06
1.26868e-06
1.26865e-06
1.26866e-06
1.26866e-06
1.26868e-06
1.26865e-06
1.26866e-06
1.26866e-06
1.26868e-06
1.26865e-06
1.26866e-06
1.26866e-06
1.26867e-06
1.26865e-06
1.26866e-06
1.26866e-06
1.26867e-06
1.26865e-06
1.26866e-06
1.26867e-06
1.26867e-06
1.26865e-06
1.26866e-06
1.26867e-06
1.26867e-06
1.26865e-06
1.26866e-06
1.26867e-06
1.26867e-06
1.26865e-06
1.26866e-06
1.26867e-06
1.26867e-06
1.26865e-06
1.26866e-06
1.26867e-06
1.26867e-06
1.26866e-06
1.26866e-06
1.26867e-06
1.26867e-06
1.26866e-06
1.26866e-06
1.26867e-06
1.26867e-06
1.26866e-06
1.26866e-06
1.26867e-06
1.26867e-06
1.26866e-06
1.26866e-06
1.26867e-06
1.26867e-06
1.26866e-06
1.26866e-06
1.26867e-06
1.26867e-06
1.26866e-06
1.26867e-06
1.26867e-06
1.26867e-06
1.26866e-06
1.26867e-06
1.26867e-06
1.26867e-06
1.26866e-06
1.26867e-06
1.26867e-06
1.26867e-06
1.26866e-06
1.26867e-06
1.26867e-06
1.26867e-06
1.26866e-06
1.26867e-06
1.26867e-06
1.26867e-06
1.26867e-06
1.26867e-06
1.26867e-06
1.26867e-06
1.26867e-06
1.26867e-06
1.26867e-06
1.26867e-06
1.26867e-06
1.26867e-06
1.26867e-06
1.26867e-06
1.26867e-06
1.26867e-06
1.26867e-06
1.26867e-06
1.26867e-06
1.26867e-06
1.26867e-06
1.26867e-06
1.26867e-06
1.26867e-06
1.26867e-06
1.26867e-06
1.26867e-06
1.26867e-06
1.26867e-06
1.26867e-06
1.26867e-06
1.26867e-06
1.26867e-06
1.26867e-06
1.26867e-06
1.26867e-06
1.26867e-06
1.26867e-06
1.26867e-06
1.26867e-06
1.26867e-06
1.26867e-06
1.26867e-06
1.26868e-06
1.26868e-06
1.26868e-06
1.26868e-06
1.26868e-06
1.26868e-06
1.26868e-06
1.26868e-06
1.26867e-06
1.26867e-06
1.26868e-06
1.26868e-06
1.26867e-06
1.26867e-06
1.26868e-06
)
;


// ************************************************************************* //
