/*--------------------------------*- C++ -*----------------------------------*\
| =========                 |                                                 |
| \\      /  F ield         | OpenFOAM Extend Project: Open source CFD        |
|  \\    /   O peration     | Version:  1.6-ext                               |
|   \\  /    A nd           | Web:      www.extend-project.de                 |
|    \\/     M anipulation  |                                                 |
\*---------------------------------------------------------------------------*/
FoamFile
{
    version     2.0;
    format      ascii;
    class       volVectorField;
    location    "0.2";
    object      Vs;
}
// * * * * * * * * * * * * * * * * * * * * * * * * * * * * * * * * * * * * * //

dimensions      [0 1 -1 0 0 0 0];

internalField   nonuniform List<vector> 
328
(
(1.68931e-06 -3.78887e-06 0)
(2.28308e-06 -7.12008e-07 0)
(2.26003e-06 9.88952e-07 0)
(1.51679e-06 4.27405e-06 0)
(5.23422e-06 -9.60705e-06 0)
(6.70006e-06 -1.99619e-06 0)
(6.61735e-06 2.93661e-06 0)
(4.7255e-06 1.10092e-05 0)
(8.6716e-06 -1.37718e-05 0)
(1.06133e-05 -3.10844e-06 0)
(1.04445e-05 4.84768e-06 0)
(7.81268e-06 1.6099e-05 0)
(1.22592e-05 -1.65395e-05 0)
(1.44033e-05 -3.93259e-06 0)
(1.41414e-05 6.60278e-06 0)
(1.10584e-05 1.98315e-05 0)
(1.59681e-05 -1.82432e-05 0)
(1.80465e-05 -4.43087e-06 0)
(1.76877e-05 8.16062e-06 0)
(1.44416e-05 2.25675e-05 0)
(1.98631e-05 -1.91394e-05 0)
(2.16992e-05 -4.59536e-06 0)
(2.12485e-05 9.51207e-06 0)
(1.80405e-05 2.45827e-05 0)
(2.39542e-05 -1.94386e-05 0)
(2.54239e-05 -4.45395e-06 0)
(2.48909e-05 1.06831e-05 0)
(2.18759e-05 2.61005e-05 0)
(2.82639e-05 -1.9299e-05 0)
(2.93127e-05 -4.04837e-06 0)
(2.87126e-05 1.17119e-05 0)
(2.59832e-05 2.72844e-05 0)
(3.28054e-05 -1.88446e-05 0)
(3.34293e-05 -3.43005e-06 0)
(3.27826e-05 1.26427e-05 0)
(3.03888e-05 2.8257e-05 0)
(3.75957e-05 -1.81708e-05 0)
(3.7836e-05 -2.65091e-06 0)
(3.71683e-05 1.35152e-05 0)
(3.51244e-05 2.91044e-05 0)
(4.26527e-05 -1.7353e-05 0)
(4.25819e-05 -1.76101e-06 0)
(4.19244e-05 1.43594e-05 0)
(4.02243e-05 2.98841e-05 0)
(4.79982e-05 -1.64517e-05 0)
(4.77102e-05 -8.06641e-07 0)
(4.71005e-05 1.51916e-05 0)
(4.57284e-05 3.06277e-05 0)
(5.36575e-05 -1.55179e-05 0)
(5.3258e-05 1.68605e-07 0)
(5.27404e-05 1.60124e-05 0)
(5.16816e-05 3.13445e-05 0)
(5.96599e-05 -1.45972e-05 0)
(5.92604e-05 1.12167e-06 0)
(5.88863e-05 1.6806e-05 0)
(5.81351e-05 3.20217e-05 0)
(6.60399e-05 -1.37344e-05 0)
(6.57527e-05 2.0067e-06 0)
(6.55818e-05 1.75388e-05 0)
(6.5147e-05 3.26257e-05 0)
(7.28383e-05 -1.29773e-05 0)
(7.27751e-05 2.77121e-06 0)
(7.28752e-05 1.81592e-05 0)
(7.27833e-05 3.31015e-05 0)
(8.01048e-05 -1.23811e-05 0)
(8.03759e-05 3.35191e-06 0)
(8.08239e-05 1.8596e-05 0)
(8.11205e-05 3.33711e-05 0)
(8.79016e-05 -1.20124e-05 0)
(8.86164e-05 3.67042e-06 0)
(8.94986e-05 1.87568e-05 0)
(9.02486e-05 3.33316e-05 0)
(9.63084e-05 -1.19537e-05 0)
(9.75764e-05 3.62883e-06 0)
(9.89884e-05 1.85251e-05 0)
(0.000100276 3.28531e-05 0)
(0.000105428 -1.23086e-05 0)
(0.00010736 3.10512e-06 0)
(0.000109407 1.77573e-05 0)
(0.000111333 3.17756e-05 0)
(0.000115394 -1.32078e-05 0)
(0.000118101 1.94817e-06 0)
(0.000120897 1.62792e-05 0)
(0.000123579 2.99068e-05 0)
(0.000126376 -1.48165e-05 0)
(0.000129973 -2.74057e-08 0)
(0.000133641 1.38831e-05 0)
(0.00013721 2.70213e-05 0)
(0.000139048 -1.74399e-05 0)
(0.000143693 -3.16279e-06 0)
(0.0001484 1.01886e-05 0)
(0.000153035 2.27021e-05 0)
(0.000153285 -2.13559e-05 0)
(0.000159106 -7.74023e-06 0)
(0.000164992 4.91151e-06 0)
(0.000170844 1.66691e-05 0)
(0.000168311 -2.64647e-05 0)
(0.000175347 -1.35997e-05 0)
(0.000182462 -1.72637e-06 0)
(0.00018959 9.21175e-06 0)
(0.000184208 -3.28351e-05 0)
(0.000192487 -2.07862e-05 0)
(0.000200865 -9.74708e-06 0)
(0.000209307 3.29754e-07 0)
(0.00020104 -4.05239e-05 0)
(0.000210577 -2.93309e-05 0)
(0.000220239 -1.91567e-05 0)
(0.000230016 -9.95879e-06 0)
(0.000218847 -4.95667e-05 0)
(0.000229647 -3.92488e-05 0)
(0.000240598 -2.99505e-05 0)
(0.000251717 -2.16304e-05 0)
(0.000237653 -5.99813e-05 0)
(0.000249708 -5.0541e-05 0)
(0.000261943 -4.21129e-05 0)
(0.000274396 -3.46543e-05 0)
(0.000257466 -7.17663e-05 0)
(0.000270761 -6.31945e-05 0)
(0.000284262 -5.56199e-05 0)
(0.000298029 -4.89964e-05 0)
(0.000278288 -8.4904e-05 0)
(0.000292796 -7.71837e-05 0)
(0.000307536 -7.04386e-05 0)
(0.000322586 -6.46177e-05 0)
(0.000300111 -9.93617e-05 0)
(0.000315798 -9.24716e-05 0)
(0.000331739 -8.65282e-05 0)
(0.000348031 -8.14744e-05 0)
(0.000322925 -0.000115094 0)
(0.000339748 -0.000109011 0)
(0.000356845 -0.00010384 0)
(0.000374329 -9.95172e-05 0)
(0.000346715 -0.000132047 0)
(0.000364625 -0.000126746 0)
(0.000382826 -0.000122318 0)
(0.000401443 -0.000118691 0)
(0.000371465 -0.000150157 0)
(0.000390406 -0.000145613 0)
(0.000409652 -0.0001419 0)
(0.000429337 -0.000138935 0)
(0.000397157 -0.000169353 0)
(0.00041707 -0.000165544 0)
(0.000437296 -0.000162518 0)
(0.000457979 -0.000160184 0)
(0.000423773 -0.000189563 0)
(0.000444592 -0.000186464 0)
(0.000465729 -0.000184098 0)
(0.000487334 -0.000182365 0)
(0.000451289 -0.000210707 0)
(0.000472947 -0.000208296 0)
(0.000494923 -0.000206565 0)
(0.000517373 -0.000205405 0)
(0.000479684 -0.000232707 0)
(0.00050211 -0.00023096 0)
(0.00052485 -0.000229838 0)
(0.000548063 -0.000229224 0)
(0.00050893 -0.000255481 0)
(0.000532053 -0.000254373 0)
(0.000555481 -0.000253835 0)
(0.000579374 -0.000253741 0)
(0.000539 -0.000278946 0)
(0.000562746 -0.000278452 0)
(0.000586785 -0.000278473 0)
(0.000611275 -0.000278873 0)
(0.000569862 -0.000303021 0)
(0.000594158 -0.000303114 0)
(0.00061873 -0.000303667 0)
(0.000643734 -0.000304536 0)
(0.000601478 -0.000327624 0)
(0.000626252 -0.000328276 0)
(0.000651282 -0.000329334 0)
(0.00067672 -0.000330645 0)
(0.00063381 -0.000352677 0)
(0.000658991 -0.000353857 0)
(0.000684406 -0.00035539 0)
(0.000710199 -0.000357118 0)
(0.000666811 -0.000378103 0)
(0.000692333 -0.000379778 0)
(0.000718063 -0.000381757 0)
(0.000744135 -0.000383874 0)
(0.000700434 -0.000403831 0)
(0.000726233 -0.000405966 0)
(0.000752211 -0.000408359 0)
(0.000778493 -0.000410837 0)
(0.000734624 -0.000429795 0)
(0.000760642 -0.000432352 0)
(0.000786807 -0.000435124 0)
(0.000813234 -0.000437933 0)
(0.000769322 -0.000455935 0)
(0.000795506 -0.000458873 0)
(0.000821804 -0.000461989 0)
(0.000848316 -0.000465099 0)
(0.000804465 -0.000482199 0)
(0.000830769 -0.000485476 0)
(0.00085715 -0.000488897 0)
(0.000883696 -0.000492274 0)
(0.000839986 -0.000508544 0)
(0.000866371 -0.000512114 0)
(0.000892794 -0.000515799 0)
(0.000919328 -0.000519409 0)
(0.000875813 -0.000534934 0)
(0.000902246 -0.000538748 0)
(0.000928676 -0.000542656 0)
(0.000955163 -0.000546462 0)
(0.000911872 -0.000561341 0)
(0.000938328 -0.00056535 0)
(0.000964738 -0.000569436 0)
(0.000991147 -0.000573398 0)
(0.000948086 -0.000587746 0)
(0.000974546 -0.000591898 0)
(0.00100091 -0.000596115 0)
(0.00102722 -0.000600193 0)
(0.000984374 -0.000614136 0)
(0.00101083 -0.000618379 0)
(0.00103714 -0.000622679 0)
(0.00106333 -0.000626828 0)
(0.00102066 -0.000640507 0)
(0.0010471 -0.000644786 0)
(0.00107334 -0.000649117 0)
(0.00109941 -0.000653292 0)
(0.00105685 -0.000666858 0)
(0.00108327 -0.000671118 0)
(0.00110945 -0.000675429 0)
(0.00113539 -0.000679582 0)
(0.00109287 -0.000693196 0)
(0.00111928 -0.000697379 0)
(0.00114539 -0.000701618 0)
(0.0011712 -0.000705698 0)
(0.00112863 -0.000719529 0)
(0.00115503 -0.00072358 0)
(0.00118108 -0.000727691 0)
(0.00120676 -0.000731648 0)
(0.00116404 -0.00074587 0)
(0.00119045 -0.000749731 0)
(0.00121645 -0.000753659 0)
(0.00124201 -0.000757439 0)
(0.00119903 -0.000772233 0)
(0.00122545 -0.000775847 0)
(0.0012514 -0.000779536 0)
(0.00127686 -0.000783086 0)
(0.00123351 -0.000798634 0)
(0.00125995 -0.000801945 0)
(0.00128587 -0.000805339 0)
(0.00131124 -0.000808602 0)
(0.00126739 -0.000825088 0)
(0.00129387 -0.00082804 0)
(0.00131977 -0.000831083 0)
(0.00134505 -0.000834006 0)
(0.00130059 -0.00085161 0)
(0.00132713 -0.000854148 0)
(0.00135301 -0.000856785 0)
(0.00137823 -0.000859312 0)
(0.00133304 -0.000878215 0)
(0.00135964 -0.000880285 0)
(0.00138552 -0.000882461 0)
(0.00141069 -0.000884538 0)
(0.00136466 -0.000904912 0)
(0.00139132 -0.000906463 0)
(0.00141723 -0.000908126 0)
(0.00144235 -0.000909698 0)
(0.00139538 -0.000931709 0)
(0.00142212 -0.000932693 0)
(0.00144804 -0.000933791 0)
(0.00147313 -0.000934808 0)
(0.00142512 -0.000958613 0)
(0.00145194 -0.000958982 0)
(0.00147789 -0.000959467 0)
(0.00150297 -0.00095988 0)
(0.00145383 -0.000985625 0)
(0.00148073 -0.000985335 0)
(0.00150672 -0.000985162 0)
(0.00153178 -0.000984925 0)
(0.00148144 -0.00101274 0)
(0.00150842 -0.00101175 0)
(0.00153445 -0.00101088 0)
(0.00155951 -0.00100995 0)
(0.00150789 -0.00103996 0)
(0.00153496 -0.00103824 0)
(0.00156103 -0.00103663 0)
(0.0015861 -0.00103497 0)
(0.00153315 -0.00106728 0)
(0.0015603 -0.00106479 0)
(0.00158642 -0.00106241 0)
(0.0016115 -0.00105999 0)
(0.00155718 -0.00109468 0)
(0.0015844 -0.00109141 0)
(0.00161056 -0.00108823 0)
(0.00163566 -0.00108502 0)
(0.00157993 -0.00112217 0)
(0.00160722 -0.00111808 0)
(0.00163343 -0.00111409 0)
(0.00165856 -0.00111007 0)
(0.0016014 -0.00114972 0)
(0.00162875 -0.00114481 0)
(0.001655 -0.00113999 0)
(0.00168017 -0.00113515 0)
(0.00162157 -0.00117732 0)
(0.00164897 -0.00117159 0)
(0.00167527 -0.00116594 0)
(0.00170047 -0.00116027 0)
(0.00164046 -0.00120497 0)
(0.0016679 -0.00119842 0)
(0.00169423 -0.00119195 0)
(0.00171948 -0.00118545 0)
(0.00165807 -0.00123263 0)
(0.00168554 -0.00122528 0)
(0.00171191 -0.001218 0)
(0.0017372 -0.0012107 0)
(0.00167443 -0.00126028 0)
(0.00170193 -0.00125216 0)
(0.00172833 -0.00124411 0)
(0.00175365 -0.00123602 0)
(0.00168961 -0.00128789 0)
(0.00171714 -0.00127903 0)
(0.00174356 -0.00127026 0)
(0.0017689 -0.00126144 0)
(0.00170363 -0.00131542 0)
(0.00173122 -0.00130588 0)
(0.00175766 -0.00129647 0)
(0.00178297 -0.00128696 0)
(0.00171663 -0.00134291 0)
(0.00174435 -0.00133273 0)
(0.00177081 -0.00132269 0)
(0.001796 -0.00131251 0)
(0.00172848 -0.00137051 0)
(0.0017564 -0.00135962 0)
(0.00178286 -0.00134884 0)
(0.00180787 -0.00133796 0)
)
;

boundaryField
{
    plateFix
    {
        type            calculated;
        value           uniform (0 0 0);
    }
    plate
    {
        type            calculated;
        value           nonuniform List<vector> 
168
(
(-1.47768e-05 -1.03051e-05 -6.45908e-24)
(-1.73061e-05 1.13772e-05 4.86146e-24)
(-6.44208e-06 -1.6357e-05 5.09878e-25)
(-9.13289e-06 1.83213e-05 9.09442e-25)
(1.11927e-06 -2.086e-05 -4.88005e-24)
(-1.82523e-06 2.37181e-05 -3.55645e-24)
(7.7371e-06 -2.37839e-05 4.726e-24)
(4.48415e-06 2.75565e-05 2.07488e-24)
(1.35449e-05 -2.56253e-05 9.44069e-25)
(9.96016e-06 3.03712e-05 -7.95371e-25)
(1.88651e-05 -2.66181e-05 2.64294e-24)
(1.49598e-05 3.24157e-05 -6.11541e-25)
(2.38964e-05 -2.70056e-05 -3.02587e-24)
(1.97089e-05 3.39486e-05 -1.18694e-24)
(2.88071e-05 -2.69455e-05 -5.11168e-26)
(2.44004e-05 3.51342e-05 2.75348e-25)
(3.37104e-05 -2.65672e-05 2.83349e-24)
(2.91703e-05 3.61011e-05 5.07267e-24)
(3.8695e-05 -2.59651e-05 -1.26938e-24)
(3.413e-05 3.69349e-05 -8.61552e-25)
(4.38277e-05 -2.52143e-05 -1.69335e-24)
(3.93697e-05 3.76934e-05 -1.98238e-25)
(4.91632e-05 -2.43744e-05 -1.06707e-24)
(4.49691e-05 3.84076e-05 -6.66622e-24)
(5.47477e-05 -2.34956e-05 -6.57288e-25)
(5.10015e-05 3.90862e-05 4.57778e-24)
(6.06227e-05 -2.26226e-05 -6.58716e-25)
(5.75377e-05 3.97162e-05 -1.65053e-24)
(6.68286e-05 -2.17985e-05 4.58568e-24)
(6.46495e-05 4.02629e-05 4.45021e-24)
(7.34077e-05 -2.10688e-05 -5.23624e-24)
(7.24131e-05 4.06695e-05 -4.55892e-24)
(8.04088e-05 -2.04848e-05 1.36455e-24)
(8.09131e-05 4.08548e-05 -2.74216e-25)
(8.78925e-05 -2.01072e-05 -3.90044e-25)
(9.02471e-05 4.07113e-05 1.1853e-24)
(9.59369e-05 -2.0011e-05 2.48362e-24)
(0.000100531 4.01024e-05 9.95276e-25)
(0.000104645 -2.02908e-05 8.26324e-24)
(0.000111904 3.88603e-05 -4.44727e-24)
(0.000114148 -2.1067e-05 2.17317e-24)
(0.000124535 3.67842e-05 1.1513e-23)
(0.000124622 -2.24954e-05 -6.52558e-24)
(0.000138629 3.36407e-05 -7.29184e-24)
(0.000136711 -2.48645e-05 -1.0626e-23)
(0.000155017 2.89962e-05 -1.64588e-24)
(0.000150311 -2.84489e-05 -8.79269e-25)
(0.000173471 2.25721e-05 4.30634e-24)
(0.000164693 -3.31806e-05 2.97099e-24)
(0.000192896 1.46942e-05 -8.83199e-24)
(0.000179943 -3.91402e-05 2.52951e-25)
(0.000213316 5.37313e-06 4.47929e-24)
(0.000196129 -4.63985e-05 2.96209e-24)
(0.000234743 -5.3603e-06 1.22268e-23)
(0.000213294 -5.50009e-05 2.12369e-24)
(0.000257164 -1.74737e-05 -9.55781e-24)
(0.000231466 -6.4974e-05 1.01463e-23)
(0.00028056 -3.09286e-05 -1.47186e-23)
(0.000250658 -7.63218e-05 -2.00152e-23)
(0.0003049 -4.56863e-05 1.92741e-23)
(0.000270874 -8.90305e-05 1.1125e-23)
(0.000330144 -6.1705e-05 -4.40587e-24)
(0.00029211 -0.00010307 9.22296e-25)
(0.000356253 -7.89396e-05 -6.0348e-25)
(0.000314359 -0.000118395 -4.3994e-24)
(0.000383186 -9.7341e-05 -6.99813e-24)
(0.000337608 -0.000134952 3.13348e-24)
(0.000410901 -0.000116855 5.82236e-24)
(0.000361846 -0.000152678 2.06322e-24)
(0.000439359 -0.000137421 -2.05809e-24)
(0.000387055 -0.000171502 -9.68392e-24)
(0.000468524 -0.000158975 8.93684e-24)
(0.000413219 -0.000191351 -1.18293e-24)
(0.00049836 -0.000181447 -6.59221e-24)
(0.000440317 -0.000212146 1.88224e-24)
(0.000528834 -0.000204763 4.23341e-24)
(0.000468328 -0.000233809 8.73344e-24)
(0.000559914 -0.000228844 -2.59298e-24)
(0.000497227 -0.000256256 2.5098e-24)
(0.000591569 -0.000253611 -3.85549e-24)
(0.000526986 -0.000279408 2.67959e-24)
(0.000623767 -0.000278979 2.27233e-24)
(0.000557573 -0.000303183 -1.74877e-23)
(0.000656479 -0.000304866 9.7003e-24)
(0.000588951 -0.0003275 1.18953e-23)
(0.000689671 -0.000331187 -8.82647e-24)
(0.000621081 -0.000352282 -4.26479e-24)
(0.000723313 -0.000357859 -5.93946e-24)
(0.000653916 -0.000377454 1.45665e-23)
(0.000757371 -0.0003848 -3.1559e-25)
(0.000687404 -0.000402947 -7.22988e-24)
(0.000791812 -0.000411935 7.93702e-24)
(0.000721489 -0.000428694 -7.11494e-24)
(0.0008266 -0.000439189 -7.76129e-24)
(0.000756109 -0.000454639 6.64031e-24)
(0.000861698 -0.000466498 9.18314e-24)
(0.000791198 -0.000480731 -1.02467e-24)
(0.000897066 -0.000493801 -8.39949e-24)
(0.000826683 -0.000506927 8.45479e-24)
(0.000932662 -0.000521047 6.20524e-24)
(0.00086249 -0.000533192 -7.70033e-24)
(0.000968441 -0.000548194 2.67002e-24)
(0.000898541 -0.000559499 5.68919e-25)
(0.00100436 -0.000575205 -3.6804e-24)
(0.000934754 -0.000585831 -3.02888e-24)
(0.00104035 -0.000602055 -2.48952e-24)
(0.000971047 -0.000612176 -3.05907e-24)
(0.00107637 -0.000628724 -6.15076e-24)
(0.00100733 -0.000638528 3.86747e-24)
(0.00111236 -0.000655201 1.05052e-23)
(0.00104353 -0.00066489 4.84464e-24)
(0.00114825 -0.000681479 2.76229e-24)
(0.00107955 -0.000691266 -1.21123e-24)
(0.00118397 -0.00070756 1.86691e-24)
(0.0011153 -0.000717666 -2.42906e-24)
(0.00121945 -0.000733449 -3.83696e-24)
(0.00115071 -0.000744103 -2.49905e-24)
(0.00125462 -0.000759153 6.06152e-24)
(0.00118568 -0.00077059 8.70351e-24)
(0.00128939 -0.000784686 -1.16252e-24)
(0.00122013 -0.000797143 3.85258e-25)
(0.0013237 -0.000810063 -5.93715e-25)
(0.00125397 -0.000823778 4.19346e-27)
(0.00135747 -0.000835298 2.4687e-24)
(0.00128714 -0.000850507 -8.56681e-25)
(0.0013906 -0.000860408 -5.65188e-24)
(0.00131954 -0.000877345 3.88514e-24)
(0.00142302 -0.000885412 1.80832e-24)
(0.00135111 -0.000904301 -5.74356e-24)
(0.00145464 -0.000910323 -4.7089e-25)
(0.00138177 -0.000931382 2.98745e-24)
(0.0014854 -0.000935158 4.61833e-24)
(0.00141145 -0.000958592 -1.75625e-24)
(0.00151522 -0.000959931 6.39499e-25)
(0.0014401 -0.000985931 -3.10583e-24)
(0.00154402 -0.000984653 -3.95148e-24)
(0.00146765 -0.0010134 -2.28882e-24)
(0.00157174 -0.00100934 1.21349e-24)
(0.00149406 -0.00104098 -2.06541e-24)
(0.00159833 -0.00103399 -2.69743e-25)
(0.00151927 -0.00106867 -8.63464e-25)
(0.00162373 -0.00105864 4.38511e-24)
(0.00154324 -0.00109647 -1.36502e-24)
(0.0016479 -0.00108328 -1.92152e-24)
(0.00156596 -0.00112435 2.70962e-24)
(0.0016708 -0.00110793 -2.71201e-24)
(0.00158739 -0.00115231 -2.59646e-25)
(0.00169243 -0.0011326 -3.6708e-25)
(0.00160753 -0.00118032 3.46471e-24)
(0.00171275 -0.00115732 -1.81435e-25)
(0.0016264 -0.00120837 2.48928e-24)
(0.00173178 -0.00118209 -7.01711e-25)
(0.001644 -0.00123642 -3.07072e-24)
(0.00174953 -0.00120693 -1.82405e-25)
(0.00166036 -0.00126445 -8.33799e-25)
(0.00176603 -0.00123187 -2.35438e-24)
(0.00167556 -0.00129243 2.99367e-24)
(0.00178131 -0.00125691 5.08407e-24)
(0.00168959 -0.00132029 -2.1249e-24)
(0.0017954 -0.00128208 -1.06074e-23)
(0.00170255 -0.00134813 3.4624e-24)
(0.0018084 -0.00130729 8.52638e-25)
(0.00171411 -0.00137597 3.54459e-24)
(0.00173413 -0.00138479 2.71563e-24)
(0.00176211 -0.00137323 -2.61909e-24)
(0.00178858 -0.00136173 3.19421e-24)
(0.00181352 -0.00135018 -8.97071e-26)
(0.00181996 -0.00133249 -6.06324e-26)
)
;
    }
    frontAndBackPlanes
    {
        type            empty;
    }
}


// ************************************************************************* //
