/*--------------------------------*- C++ -*----------------------------------*\
| =========                 |                                                 |
| \\      /  F ield         | OpenFOAM Extend Project: Open source CFD        |
|  \\    /   O peration     | Version:  1.6-ext                               |
|   \\  /    A nd           | Web:      www.extend-project.de                 |
|    \\/     M anipulation  |                                                 |
\*---------------------------------------------------------------------------*/
FoamFile
{
    version     2.0;
    format      ascii;
    class       surfaceScalarField;
    location    "1.2";
    object      phi;
}
// * * * * * * * * * * * * * * * * * * * * * * * * * * * * * * * * * * * * * //

dimensions      [0 3 -1 0 0 0 0];

internalField   nonuniform List<scalar> 
123
(
0.000202989
9.61122e-06
0.000211516
3.84579e-05
0.000223577
7.48661e-05
0.000237356
0.000111499
0.000252931
0.000146042
0.000273408
0.000181397
0.000308846
0.00022474
0.000378955
0.000266686
0.000332921
0.00041378
0.000204172
5.43917e-06
0.000216002
2.66276e-05
0.000233496
5.73724e-05
0.000255074
8.99212e-05
0.000281455
0.000119661
0.000316021
0.000146831
0.000364154
0.000176607
0.000443328
0.000187512
0.000245972
0.000530277
0.000206012
-5.73076e-07
0.000221061
1.15787e-05
0.000242456
3.5978e-05
0.000268519
6.38581e-05
0.000299372
8.88081e-05
0.000336998
0.000109205
0.000384252
0.000129352
0.000444369
0.000127395
0.000155541
0.0005348
0.000209111
-9.68373e-06
0.00022728
-6.59065e-06
0.000250416
1.28421e-05
0.000277569
3.67053e-05
0.000308819
5.75576e-05
0.000345215
7.2809e-05
0.000389016
8.55509e-05
0.000435209
8.12028e-05
8.90679e-05
0.000501681
0.000213857
-2.35409e-05
0.000231954
-2.46872e-05
0.000252289
-7.4937e-06
0.000276187
1.28074e-05
0.000304491
2.92542e-05
0.000337337
3.99627e-05
0.000375822
4.70661e-05
0.000413002
4.40232e-05
4.3643e-05
0.000458426
0.000211156
-3.46973e-05
0.000217066
-3.05967e-05
0.000224707
-1.51346e-05
0.000238695
-1.18116e-06
0.000259793
8.1571e-06
0.00028624
1.35148e-05
0.000317013
1.62933e-05
0.000346203
1.48335e-05
1.33925e-05
0.000376453
0.000165303
0.000134706
0.000119571
0.00011839
0.000126547
0.000140062
0.000156356
0.000171189
0.000184582
0.000133976
0.000139909
0.000104377
6.35859e-05
2.96417e-05
7.57493e-06
)
;

boundaryField
{
    inlet
    {
        type            calculated;
        value           nonuniform List<scalar> 7(-0.0002 -0.0002 -0.0002 -0.0002 -0.0002 -0.0002 -0.0002);
    }
    outlet
    {
        type            calculated;
        value           nonuniform 0();
    }
    fixedWalls
    {
        type            calculated;
        value           uniform 0;
    }
    frontAndBack
    {
        type            empty;
    }
    procBoundary2to3
    {
        type            processor;
        value           nonuniform List<scalar> 9(-1.26007e-05 -4.69846e-05 -8.69274e-05 -0.000125278 -0.000161618 -0.000201874 -0.000260178 -0.000336794 -0.000367746);
    }
    procBoundary2to1
    {
        type            processor;
        value           nonuniform List<scalar> 7(0.000279805 0.000524344 0.000570332 0.000542472 0.000492371 0.00039852 0.000192157);
    }
}


// ************************************************************************* //
