/*--------------------------------*- C++ -*----------------------------------*\
| =========                 |                                                 |
| \\      /  F ield         | OpenFOAM Extend Project: Open source CFD        |
|  \\    /   O peration     | Version:  1.6-ext                               |
|   \\  /    A nd           | Web:      www.extend-project.de                 |
|    \\/     M anipulation  |                                                 |
\*---------------------------------------------------------------------------*/
FoamFile
{
    version     2.0;
    format      ascii;
    class       volScalarField;
    location    "4.1";
    object      p;
}
// * * * * * * * * * * * * * * * * * * * * * * * * * * * * * * * * * * * * * //

dimensions      [0 2 -2 0 0 0 0];

internalField   nonuniform List<scalar> 
284
(
0.283477
0.252001
0.240536
0.235558
0.233659
0.233638
0.234522
0.235776
0.237802
0.254264
0.245386
0.240036
0.237513
0.236554
0.236592
0.23714
0.237938
0.24011
0.242306
0.238904
0.236344
0.235191
0.235191
0.235937
0.236913
0.237882
0.240843
0.232832
0.231765
0.230729
0.230533
0.231253
0.232585
0.234013
0.235222
0.238934
0.225022
0.224714
0.224319
0.224395
0.225137
0.22637
0.227581
0.22835
0.232183
0.217926
0.217806
0.217482
0.21724
0.217245
0.217387
0.217129
0.215823
0.21762
0.211185
0.211036
0.21044
0.20945
0.208061
0.206005
0.202414
0.195547
0.190107
0.204826
0.204554
0.203475
0.201434
0.19816
0.193043
0.184489
0.170158
0.125631
0.199096
0.198657
0.196962
0.19368
0.188085
0.178559
0.159306
0.121245
0.0275701
0.194363
0.193706
0.191336
0.186926
0.179709
0.168181
0.148065
0.11616
0.0624998
0.191094
0.190024
0.186829
0.181438
0.173445
0.161938
0.144977
0.120626
0.0874174
0.189796
0.187848
0.183402
0.176942
0.168431
0.157301
0.142725
0.122908
0.0991743
0.19209
0.18757
0.181
0.173249
0.164237
0.15349
0.140554
0.123943
0.105131
0.19819
0.188387
0.179176
0.170322
0.161176
0.150972
0.139199
0.124726
0.108334
0.226426
0.194538
0.179777
0.169866
0.160938
0.151512
0.140666
0.127265
0.111659
-0.105732
-0.0704751
-0.00708702
-0.0282599
0.03757
0.00744206
0.0656937
0.0391766
0.0818009
0.0596412
0.0893797
0.0698824
0.0936104
0.0742712
-0.0581064
-0.0491802
-0.0456222
-0.0437421
-0.0412094
-0.0361061
-0.0282177
-0.0173431
-0.00581568
-0.034177
-0.0346401
-0.0347756
-0.0344634
-0.032557
-0.0280543
-0.0215083
-0.0127759
-0.00492089
-0.00694337
-0.0136965
-0.0173767
-0.0191769
-0.0189621
-0.0164189
-0.0125399
-0.00715992
-0.0037574
0.0219829
0.0107044
0.00270645
-0.00232484
-0.00479391
-0.00505351
-0.00429138
-0.002396
-0.00284677
0.0416368
0.0277785
0.0174297
0.0101512
0.00541652
0.0027206
0.00104769
0.000380493
-0.00236846
0.052217
0.0373503
0.0255269
0.0166307
0.0102625
0.00593208
0.00290138
0.000948533
-0.00230515
0.0556077
0.0392724
0.0258631
0.0154955
0.00795913
0.00286827
-0.000313624
-0.00196784
-0.00373651
-0.0276099
-0.0287697
-0.0281739
-0.0261646
-0.0226147
-0.0175154
-0.0113483
-0.00594534
0.00456243
-0.0263857
-0.0276349
-0.0271954
-0.0256878
-0.0228625
-0.0184859
-0.012859
-0.00792421
0.003458
-0.0273434
-0.028791
-0.028639
-0.0275575
-0.0251281
-0.0209011
-0.0150182
-0.00981319
0.00313809
-0.0301739
-0.0315389
-0.0316821
-0.0310654
-0.0290171
-0.0248416
-0.0183731
-0.0120798
0.002711
-0.0348675
-0.0355958
-0.0358959
-0.0357339
-0.0340668
-0.0299555
-0.0227876
-0.0150921
0.000734078
-0.0411923
-0.040202
-0.0404339
-0.040604
-0.0392421
-0.035158
-0.0277849
-0.017621
-0.00220944
-0.0486201
-0.0441129
-0.044079
-0.0441254
-0.0429827
-0.0387363
-0.0309371
-0.0195596
-0.00465737
-0.0657795
-0.0485434
-0.0462964
-0.0455654
-0.0439104
-0.0393263
-0.0312753
-0.0196388
-0.00586594
)
;

boundaryField
{
    inlet
    {
        type            zeroGradient;
    }
    outlet
    {
        type            totalPressure;
        rho             none;
        psi             none;
        gamma           1;
        p0              uniform 0;
        value           nonuniform List<scalar> 
15
(
-5.362e-05
-0.000398133
-0.00129547
0
0
0
0
0
0
0
0
0
0
0
0
)
;
    }
    fixedWalls
    {
        type            zeroGradient;
    }
    frontAndBack
    {
        type            empty;
    }
}


// ************************************************************************* //
