/*--------------------------------*- C++ -*----------------------------------*\
| =========                 |                                                 |
| \\      /  F ield         | OpenFOAM Extend Project: Open source CFD        |
|  \\    /   O peration     | Version:  1.6-ext                               |
|   \\  /    A nd           | Web:      www.extend-project.de                 |
|    \\/     M anipulation  |                                                 |
\*---------------------------------------------------------------------------*/
FoamFile
{
    version     2.0;
    format      ascii;
    class       surfaceScalarField;
    location    "4.1";
    object      phi;
}
// * * * * * * * * * * * * * * * * * * * * * * * * * * * * * * * * * * * * * //

dimensions      [0 3 -1 0 0 0 0];

internalField   nonuniform List<scalar> 
525
(
0.000160821
3.91788e-05
0.000117025
4.37958e-05
8.13628e-05
3.56626e-05
5.4211e-05
2.71518e-05
3.41473e-05
2.00638e-05
1.91653e-05
1.4982e-05
7.95892e-06
1.12064e-05
9.00607e-07
7.05831e-06
9.00607e-07
0.000204944
3.4235e-05
0.000190242
5.84979e-05
0.000162116
6.37887e-05
0.00012848
6.07874e-05
9.40536e-05
5.44901e-05
6.15948e-05
4.74407e-05
3.27873e-05
4.00139e-05
1.02236e-05
2.96221e-05
1.11242e-05
0.000208655
2.55803e-05
0.000208071
5.90818e-05
0.000194093
7.77666e-05
0.000168354
8.65266e-05
0.000134282
8.85618e-05
9.55851e-05
8.61376e-05
5.57793e-05
7.98197e-05
2.00059e-05
6.53954e-05
3.11301e-05
0.000205056
2.05246e-05
0.000208183
5.59544e-05
0.000202648
8.33015e-05
0.000185943
0.000103232
0.000157893
0.000116611
0.000119915
0.000124116
7.48776e-05
0.000124857
2.91158e-05
0.000111157
6.02459e-05
0.000202379
1.81453e-05
0.000205269
5.30645e-05
0.000203753
8.48173e-05
0.00019394
0.000113045
0.000173004
0.000137547
0.000139363
0.000157758
9.31772e-05
0.000171043
3.94761e-05
0.000164858
9.9722e-05
0.000201253
1.68921e-05
0.000203805
5.05127e-05
0.000204737
8.38849e-05
0.000200449
0.000117334
0.000186957
0.000151039
0.000160164
0.00018455
0.000116414
0.000214793
5.58035e-05
0.000225469
0.000155526
0.000201177
1.57148e-05
0.000204433
4.72564e-05
0.000208095
8.0223e-05
0.000209449
0.00011598
0.000204675
0.000155813
0.000188698
0.000200528
0.000153216
0.000250275
8.78826e-05
0.000290802
0.000243408
0.000201718
1.39966e-05
0.000206762
4.22122e-05
0.000214128
7.28573e-05
0.000222087
0.000108021
0.000227766
0.000150134
0.000226256
0.000202037
0.000204893
0.000271639
0.000139122
0.000356573
0.00038253
0.000202632
1.13651e-05
0.000210262
3.45814e-05
0.00022215
6.097e-05
0.000237696
9.24754e-05
0.000256967
0.000130863
0.000281896
0.000177108
0.000319407
0.000234128
0.00038442
0.000291559
0.00036168
0.00040527
0.000203916
7.44872e-06
0.000214632
2.38658e-05
0.00023097
4.46324e-05
0.000252705
7.07397e-05
0.000281235
0.000102333
0.000320013
0.00013833
0.0003728
0.000181341
0.00045447
0.000209889
0.000281451
0.000534699
0.000205985
1.46374e-06
0.000220235
9.6155e-06
0.000240154
2.47136e-05
0.000265194
4.57001e-05
0.000296533
7.09936e-05
0.000336822
9.80409e-05
0.00038821
0.000129953
0.000454661
0.000143439
0.00018733
0.000548781
0.00020942
-7.95619e-06
0.000227341
-8.30547e-06
0.000248871
3.18357e-06
0.000273857
2.07137e-05
0.000303626
4.12245e-05
0.000340267
6.14001e-05
0.000386607
8.36133e-05
0.000438882
9.11638e-05
0.000111225
0.000514987
0.000214495
-2.24511e-05
0.000232308
-2.61185e-05
0.000250029
-1.45377e-05
0.000269753
9.89988e-07
0.000293736
1.72413e-05
0.00032384
3.12966e-05
0.000362662
4.4791e-05
0.000404428
4.93979e-05
5.65158e-05
0.000459137
0.000211667
-3.41182e-05
0.000216767
-3.12184e-05
0.000220459
-1.82299e-05
0.000227758
-6.30916e-06
0.000241778
3.22165e-06
0.000263078
9.9962e-06
0.000292418
1.54513e-05
0.000324742
1.70735e-05
1.85135e-05
0.000362745
0.000165882
0.000134663
0.000116433
0.000110124
0.000113346
0.000123342
0.000138793
0.000155867
0.00017438
0.000248433
0.000156837
5.75595e-05
0.000190873
0.000511466
0.00018007
9.14917e-05
0.000477534
0.000584779
0.000144072
8.47618e-05
0.000591509
0.000565344
9.37158e-05
5.84789e-05
0.000591627
0.00050467
4.81832e-05
2.84612e-05
0.000534687
0.000396175
1.47533e-05
6.7547e-06
0.000417881
0.000189134
0.000195888
0.000196517
4.85013e-06
-1.04936e-05
0.000228746
-2.01965e-05
-1.2033e-05
0.000267017
-4.258e-05
4.30879e-06
0.00030421
-6.78265e-05
3.06344e-05
0.000335893
-9.63105e-05
6.46272e-05
0.00036019
-0.000126008
0.000101711
0.000375864
-0.000150633
0.000134959
0.000383497
-0.000170266
0.000162633
-0.000169845
0.000171295
0.000453699
2.86853e-05
0.000447737
-1.42349e-05
0.000453544
-4.83866e-05
0.000464126
-7.84085e-05
0.000473834
-0.000106018
0.000478723
-0.000130897
0.000476866
-0.000148776
0.000467678
-0.000161077
-0.000153702
0.000586589
3.36053e-05
0.000580346
-7.99176e-06
0.000575513
-4.35532e-05
0.000570069
-7.29645e-05
0.000561728
-9.76776e-05
0.000548103
-0.000117272
0.000528634
-0.000129308
0.00050255
-0.000134994
-0.000124518
0.000603472
2.17599e-05
0.000606155
-1.06747e-05
0.000600949
-3.8347e-05
0.000589026
-6.1042e-05
0.000570154
-7.88059e-05
0.000543854
-9.09714e-05
0.000511369
-9.68232e-05
0.000473136
-9.67599e-05
-8.70877e-05
0.000550279
6.16853e-06
0.000553323
-1.37188e-05
0.000545225
-3.02492e-05
0.000527029
-4.28462e-05
0.000499689
-5.14651e-05
0.000464521
-5.58036e-05
0.000424107
-5.64093e-05
0.000380879
-5.35317e-05
-4.82978e-05
0.000426416
-2.36612e-06
0.00042236
-9.66347e-06
0.000407113
-1.5002e-05
0.000382513
-1.82466e-05
0.000350676
-1.96279e-05
0.000314275
-1.94025e-05
0.000276222
-1.83566e-05
0.000239541
-1.68503e-05
-1.67148e-05
0.000193522
0.000183859
0.000168857
0.00015061
0.000130982
0.00011158
9.32233e-05
7.6373e-05
-3.51713e-06
3.51713e-06
-1.21439e-05
8.6268e-06
-2.19758e-05
9.83187e-06
-3.04191e-05
8.44329e-06
-3.57267e-05
5.30761e-06
-3.65419e-05
8.152e-07
-3.19529e-05
-4.58904e-06
-2.20562e-05
-9.89661e-06
-1.58813e-05
-9.43099e-06
1.29481e-05
-2.63495e-05
2.55453e-05
-4.3639e-05
2.71214e-05
-5.68487e-05
2.1653e-05
-6.32289e-05
1.16878e-05
-6.12884e-05
-1.12539e-06
-5.05952e-05
-1.52822e-05
-3.23069e-05
-2.81849e-05
-3.91702e-05
-1.18012e-05
2.47494e-05
-3.12819e-05
4.5026e-05
-4.99848e-05
4.58243e-05
-6.29969e-05
3.46651e-05
-6.75733e-05
1.62642e-05
-6.26288e-05
-6.0699e-06
-4.82878e-05
-2.96233e-05
-2.59453e-05
-5.05274e-05
-6.38683e-05
-1.16e-05
3.63494e-05
-2.93848e-05
6.28108e-05
-4.53532e-05
6.17927e-05
-5.51147e-05
4.44266e-05
-5.63313e-05
1.74807e-05
-4.84038e-05
-1.39974e-05
-3.18232e-05
-4.62039e-05
-6.77548e-06
-7.55751e-05
-8.92758e-05
-9.58123e-06
4.59307e-05
-2.13127e-05
7.45422e-05
-3.00184e-05
7.04984e-05
-3.27026e-05
4.71108e-05
-2.79234e-05
1.27015e-05
-1.57549e-05
-2.61659e-05
2.53011e-06
-6.44889e-05
2.73023e-05
-0.000100347
-0.000115839
-5.71957e-06
5.16502e-05
-5.8924e-06
7.4715e-05
-1.37018e-06
6.59762e-05
8.37219e-06
3.73685e-05
2.28993e-05
-1.82564e-06
4.15417e-05
-4.48082e-05
6.35547e-05
-8.65018e-05
8.63365e-05
-0.000123129
-0.000140747
4.43598e-06
4.72142e-05
2.24005e-05
5.67505e-05
4.69358e-05
4.14409e-05
7.34968e-05
1.08075e-05
0.000100105
-2.84338e-05
0.000126386
-7.10895e-05
0.000150819
-0.000110935
0.000172564
-0.000144874
-0.000160366
3.67206e-05
8.14382e-05
0.000127188
0.00016863
0.000204823
0.000235444
0.000259469
0.000277228
)
;

boundaryField
{
    inlet
    {
        type            calculated;
        value           uniform -0.0002;
    }
    outlet
    {
        type            calculated;
        value           nonuniform List<scalar> 
15
(
-6.17496e-06
-9.01791e-06
-1.24719e-06
1.8632e-05
5.38658e-05
0.000111245
0.000192183
0.000288157
0.000382047
0.000451535
0.000473367
0.000435705
0.000342089
0.000207958
5.96582e-05
)
;
    }
    fixedWalls
    {
        type            calculated;
        value           uniform 0;
    }
    frontAndBack
    {
        type            empty;
    }
}


// ************************************************************************* //
