/*--------------------------------*- C++ -*----------------------------------*\
| =========                 |                                                 |
| \\      /  F ield         | OpenFOAM Extend Project: Open source CFD        |
|  \\    /   O peration     | Version:  1.6-ext                               |
|   \\  /    A nd           | Web:      www.extend-project.de                 |
|    \\/     M anipulation  |                                                 |
\*---------------------------------------------------------------------------*/
FoamFile
{
    version     2.0;
    format      ascii;
    class       volVectorField;
    location    "4.1";
    object      U;
}
// * * * * * * * * * * * * * * * * * * * * * * * * * * * * * * * * * * * * * //

dimensions      [0 1 -1 0 0 0 0];

internalField   nonuniform List<vector> 
284
(
(0.163779 0.026604 0)
(0.141784 0.0268375 0)
(0.0987056 0.0192633 0)
(0.066229 0.0122049 0)
(0.0430954 0.00724339 0)
(0.0258912 0.0042985 0)
(0.0128226 0.002534 0)
(0.00284746 0.00088927 0)
(-0.000715393 -0.00121135 0)
(0.200597 0.0434042 0)
(0.202037 0.0577757 0)
(0.179237 0.0535959 0)
(0.146306 0.0444612 0)
(0.111286 0.0351497 0)
(0.0773592 0.0275718 0)
(0.0461239 0.0213947 0)
(0.0185987 0.0143224 0)
(0.00298425 0.00340664 0)
(0.203093 0.029171 0)
(0.210984 0.0599691 0)
(0.2045 0.0728759 0)
(0.183987 0.0756134 0)
(0.153195 0.0725182 0)
(0.115954 0.0665072 0)
(0.0754982 0.0584416 0)
(0.0345637 0.0452916 0)
(0.00726922 0.0193838 0)
(0.201522 0.0225021 0)
(0.207592 0.0574796 0)
(0.20786 0.0816043 0)
(0.197339 0.0965833 0)
(0.174908 0.104165 0)
(0.141474 0.105967 0)
(0.0987282 0.102047 0)
(0.0489972 0.0868317 0)
(0.0116582 0.0441062 0)
(0.200563 0.0190944 0)
(0.203982 0.0543627 0)
(0.205908 0.0845896 0)
(0.201361 0.109367 0)
(0.186732 0.1286 0)
(0.159872 0.142147 0)
(0.119341 0.148215 0)
(0.0644249 0.13686 0)
(0.0174344 0.0782299 0)
(0.200232 0.0174415 0)
(0.202359 0.0517735 0)
(0.204909 0.0847875 0)
(0.204362 0.116286 0)
(0.196677 0.145946 0)
(0.17786 0.172934 0)
(0.143204 0.194159 0)
(0.086512 0.194864 0)
(0.0277437 0.124365 0)
(0.200216 0.0163198 0)
(0.202429 0.0490769 0)
(0.206374 0.0826608 0)
(0.209824 0.117918 0)
(0.2094 0.155481 0)
(0.200928 0.195253 0)
(0.17824 0.234262 0)
(0.124514 0.253495 0)
(0.0485822 0.19701 0)
(0.200344 0.014936 0)
(0.203608 0.0451202 0)
(0.210104 0.0773687 0)
(0.218484 0.113496 0)
(0.226399 0.155529 0)
(0.230824 0.205737 0)
(0.22402 0.269992 0)
(0.198016 0.33967 0)
(0.0603449 0.287039 0)
(0.200547 0.012818 0)
(0.205484 0.0389327 0)
(0.215436 0.0678786 0)
(0.229695 0.101765 0)
(0.247415 0.142937 0)
(0.271431 0.19382 0)
(0.299373 0.260895 0)
(0.358138 0.345217 0)
(0.399227 0.429475 0)
(0.20084 0.00963581 0)
(0.207968 0.0299037 0)
(0.221686 0.0537985 0)
(0.24113 0.0828778 0)
(0.265906 0.118312 0)
(0.300526 0.160357 0)
(0.342707 0.212154 0)
(0.410981 0.25518 0)
(0.492386 0.338029 0)
(0.201385 0.00499582 0)
(0.211565 0.0175901 0)
(0.22899 0.0355113 0)
(0.251801 0.0589076 0)
(0.279627 0.0872385 0)
(0.31551 0.118551 0)
(0.360231 0.15582 0)
(0.417841 0.172269 0)
(0.498511 0.227962 0)
(0.202453 -0.0023717 0)
(0.216932 0.00135821 0)
(0.237175 0.0139768 0)
(0.260613 0.032703 0)
(0.287769 0.0552102 0)
(0.32044 0.0783394 0)
(0.362058 0.104908 0)
(0.409636 0.113618 0)
(0.473673 0.141335 0)
(0.20421 -0.0136785 0)
(0.222731 -0.0175337 0)
(0.240901 -0.00739959 0)
(0.259253 0.00877228 0)
(0.280809 0.026913 0)
(0.307198 0.0439734 0)
(0.342128 0.0615684 0)
(0.38154 0.0677355 0)
(0.429825 0.0786622 0)
(0.20175 -0.0351361 0)
(0.215145 -0.0365915 0)
(0.218673 -0.0225803 0)
(0.222986 -0.00706169 0)
(0.233397 0.00666194 0)
(0.250752 0.0174738 0)
(0.276664 0.0266114 0)
(0.307269 0.029613 0)
(0.342979 0.0324329 0)
(0.164656 -0.0248743 0)
(0.151327 -0.0222557 0)
(0.124327 -0.0125778 0)
(0.111195 -0.00488715 0)
(0.110264 0.000358145 0)
(0.117231 0.00365341 0)
(0.130432 0.00579651 0)
(0.146825 0.00610184 0)
(0.165146 0.00600915 0)
(0.354877 0.166962 0)
(0.184948 0.0440572 0)
(0.544862 0.177952 0)
(0.498716 0.0816675 0)
(0.576578 0.167076 0)
(0.597176 0.0993113 0)
(0.543437 0.117568 0)
(0.584604 0.074338 0)
(0.482972 0.0672808 0)
(0.523143 0.0416783 0)
(0.380318 0.0263877 0)
(0.409471 0.013258 0)
(0.182586 0.00364278 0)
(0.194005 -0.000325123 0)
(0.186826 -0.00643445 0)
(0.208067 -0.0163913 0)
(0.245934 -0.031913 0)
(0.28561 -0.0555997 0)
(0.320908 -0.0853553 0)
(0.351054 -0.117824 0)
(0.369495 -0.146203 0)
(0.385055 -0.169726 0)
(0.381956 -0.173884 0)
(0.464851 0.0178055 0)
(0.447475 -0.0213887 0)
(0.447674 -0.0511743 0)
(0.458025 -0.0787344 0)
(0.469254 -0.106105 0)
(0.479414 -0.132772 0)
(0.478162 -0.153516 0)
(0.479043 -0.169444 0)
(0.453197 -0.165262 0)
(0.593493 0.0406499 0)
(0.584419 -0.00584805 0)
(0.577553 -0.0432747 0)
(0.573295 -0.0750905 0)
(0.566644 -0.102686 0)
(0.558192 -0.12589 0)
(0.538009 -0.141394 0)
(0.523031 -0.150871 0)
(0.476518 -0.141696 0)
(0.602332 0.0302243 0)
(0.607467 -0.00819051 0)
(0.605265 -0.0404022 0)
(0.597153 -0.0673893 0)
(0.581439 -0.089506 0)
(0.560351 -0.106002 0)
(0.527325 -0.115271 0)
(0.499069 -0.118009 0)
(0.440069 -0.107196 0)
(0.546227 0.0130907 0)
(0.555075 -0.0129691 0)
(0.552132 -0.0353117 0)
(0.538988 -0.0533821 0)
(0.515744 -0.0668692 0)
(0.484845 -0.0750193 0)
(0.444259 -0.0778042 0)
(0.407116 -0.0752903 0)
(0.347052 -0.0669844 0)
(0.425146 -0.00139587 0)
(0.427395 -0.0143145 0)
(0.417488 -0.0243398 0)
(0.397245 -0.0311104 0)
(0.368397 -0.0347103 0)
(0.33381 -0.0352534 0)
(0.295015 -0.0337569 0)
(0.259796 -0.0307164 0)
(0.212586 -0.0287324 0)
(0.19633 -0.00396179 0)
(0.190145 -0.00648404 0)
(0.17746 -0.00772431 0)
(0.160463 -0.00784125 0)
(0.141134 -0.00719329 0)
(0.121333 -0.00616395 0)
(0.102195 -0.0053337 0)
(0.0855263 -0.00495514 0)
(0.0627733 -0.00594542 0)
(-0.000841868 0.000735791 0)
(-0.00682197 0.00290956 0)
(-0.0172111 0.00368246 0)
(-0.0268224 0.00347683 0)
(-0.0339701 0.00256584 0)
(-0.0370788 0.000980499 0)
(-0.0348134 -0.00117763 0)
(-0.0314916 -0.00352611 0)
(-0.00784661 -0.00676708 0)
(-0.00334242 0.00698488 0)
(-0.0165083 0.0153842 0)
(-0.0356712 0.0170709 0)
(-0.051857 0.0143216 0)
(-0.0620403 0.00861509 0)
(-0.0640839 0.000761728 0)
(-0.0568857 -0.00836386 0)
(-0.0477141 -0.0170904 0)
(-0.010995 -0.0259909 0)
(-0.00445882 0.0186741 0)
(-0.0202501 0.0351401 0)
(-0.0417506 0.0365379 0)
(-0.0586456 0.0284684 0)
(-0.0677556 0.0145036 0)
(-0.0672355 -0.00293215 0)
(-0.0562133 -0.021713 0)
(-0.0440859 -0.0385623 0)
(-0.00202456 -0.0508464 0)
(-0.00459859 0.0308209 0)
(-0.0195998 0.0546144 0)
(-0.0387709 0.0546978 0)
(-0.0525736 0.0404448 0)
(-0.0582495 0.0176895 0)
(-0.0545241 -0.00943902 0)
(-0.0405046 -0.0376798 0)
(-0.0262758 -0.0629685 0)
(0.0156212 -0.0763318 0)
(-0.00426587 0.0416753 0)
(-0.0154689 0.0702711 0)
(-0.0272738 0.0681032 0)
(-0.0335743 0.0476133 0)
(-0.0325276 0.0166606 0)
(-0.0237334 -0.0192208 0)
(-0.00666808 -0.0553261 0)
(0.0107347 -0.0885309 0)
(0.0493797 -0.103191 0)
(-0.00347002 0.0497297 0)
(-0.00729303 0.0776499 0)
(-0.00501153 0.07175 0)
(0.00197539 0.0453923 0)
(0.0142022 0.00799133 0)
(0.0313823 -0.0342386 0)
(0.052304 -0.0754084 0)
(0.0731066 -0.112601 0)
(0.106534 -0.129773 0)
(0.000798084 0.0571758 0)
(0.00939156 0.0728577 0)
(0.0335736 0.0596039 0)
(0.059231 0.028705 0)
(0.0862525 -0.0120243 0)
(0.11371 -0.0565278 0)
(0.139457 -0.0986679 0)
(0.162738 -0.13497 0)
(0.188454 -0.15251 0)
(0.027506 0.0293098 0)
(0.0528553 0.0380733 0)
(0.104022 0.022103 0)
(0.148142 -0.00769429 0)
(0.187295 -0.0456476 0)
(0.222097 -0.0865921 0)
(0.249096 -0.123974 0)
(0.271806 -0.155422 0)
(0.286182 -0.168291 0)
)
;

boundaryField
{
    inlet
    {
        type            fixedValue;
        value           uniform (0.2 0 0);
    }
    outlet
    {
        type            zeroGradient;
    }
    fixedWalls
    {
        type            fixedValue;
        value           uniform (0 0 0);
    }
    frontAndBack
    {
        type            empty;
    }
}


// ************************************************************************* //
