/*--------------------------------*- C++ -*----------------------------------*\
| =========                 |                                                 |
| \\      /  F ield         | OpenFOAM Extend Project: Open source CFD        |
|  \\    /   O peration     | Version:  1.6-ext                               |
|   \\  /    A nd           | Web:      www.extend-project.de                 |
|    \\/     M anipulation  |                                                 |
\*---------------------------------------------------------------------------*/
FoamFile
{
    version     2.0;
    format      ascii;
    class       surfaceScalarField;
    location    "2.6";
    object      phi;
}
// * * * * * * * * * * * * * * * * * * * * * * * * * * * * * * * * * * * * * //

dimensions      [0 3 -1 0 0 0 0];

internalField   nonuniform List<scalar> 
127
(
0.000160854
3.91458e-05
0.000117198
4.36563e-05
8.17703e-05
3.54275e-05
5.49234e-05
2.68469e-05
3.51555e-05
1.97679e-05
2.02889e-05
1.48666e-05
8.83452e-06
1.14544e-05
1.23117e-06
7.60336e-06
1.23117e-06
0.000205017
3.4129e-05
0.00019061
5.8063e-05
0.000162982
6.30559e-05
0.000129978
5.98507e-05
9.61655e-05
5.35803e-05
6.39778e-05
4.70543e-05
3.47424e-05
4.06897e-05
1.11144e-05
3.12314e-05
1.23456e-05
0.000208722
2.54073e-05
0.000208399
5.83855e-05
0.000194842
7.66133e-05
0.000169618
8.50746e-05
0.000136079
8.71196e-05
9.76907e-05
8.54425e-05
5.76105e-05
8.07699e-05
2.09069e-05
6.79349e-05
3.32525e-05
0.000205106
2.0301e-05
0.000208424
5.50674e-05
0.0002031
8.19379e-05
0.000186516
0.000101658
0.000158556
0.000115079
0.000120694
0.000123304
7.56284e-05
0.000125836
2.9527e-05
0.000114036
6.27795e-05
0.000202428
1.78726e-05
0.000205477
5.20191e-05
0.000204019
8.33959e-05
0.000193951
0.000111727
0.000172564
0.000136466
0.000138661
0.000157208
9.2591e-05
0.000171906
3.92232e-05
0.000167404
0.000102003
0.000201307
1.65655e-05
0.000204032
4.92944e-05
0.000205011
8.2417e-05
0.00020031
0.000116427
0.000185981
0.000150795
0.000158495
0.000184694
0.000114798
0.000215603
5.49717e-05
0.000227231
0.000156974
0.000201233
1.53329e-05
0.000204693
4.58343e-05
0.00020851
7.85994e-05
0.000209576
0.000115361
0.000203899
0.000156472
0.000186886
0.000201706
0.000151167
0.000251322
8.67369e-05
0.000291661
0.000243711
0.000201766
0.000207024
0.000214686
0.00022267
0.000227722
0.000225083
0.000202997
0.000137875
)
;

boundaryField
{
    inlet
    {
        type            calculated;
        value           nonuniform List<scalar> 8(-0.0002 -0.0002 -0.0002 -0.0002 -0.0002 -0.0002 -0.0002 -0.0002);
    }
    outlet
    {
        type            calculated;
        value           nonuniform 0();
    }
    fixedWalls
    {
        type            calculated;
        value           uniform 0;
    }
    frontAndBack
    {
        type            empty;
    }
    procBoundary3to2
    {
        type            processor;
        value           nonuniform List<scalar> 9(1.35673e-05 4.05759e-05 7.09374e-05 0.000107378 0.000151419 0.000204345 0.000273408 0.000356783 0.000381586);
    }
}


// ************************************************************************* //
