/*--------------------------------*- C++ -*----------------------------------*\
| =========                 |                                                 |
| \\      /  F ield         | OpenFOAM Extend Project: Open source CFD        |
|  \\    /   O peration     | Version:  1.6-ext                               |
|   \\  /    A nd           | Web:      www.extend-project.de                 |
|    \\/     M anipulation  |                                                 |
\*---------------------------------------------------------------------------*/
FoamFile
{
    version     2.0;
    format      ascii;
    class       volSymmTensorField;
    location    "0.55";
    object      DSigma;
}
// * * * * * * * * * * * * * * * * * * * * * * * * * * * * * * * * * * * * * //

dimensions      [1 -1 -2 0 0 0 0];

internalField   nonuniform List<symmTensor> 
328
(
(0.019218 0.00224202 -7.67231e-27 0.00690798 6.95684e-22 0.0104504)
(0.00806298 -0.00085844 -8.10787e-26 0.00414825 3.27862e-26 0.00488449)
(0.000582631 -0.00165319 0 0.000782302 0 0.000545973)
(-0.00947337 0.000464621 2.02503e-24 -0.00332399 -7.69303e-22 -0.00511895)
(0.0184321 0.00142804 1.86777e-24 0.00465737 -8.96291e-22 0.00923579)
(0.00804666 -0.000429784 1.18021e-25 0.00237427 -2.83416e-26 0.00416837)
(0.000611878 -0.00108318 1.58434e-26 0.00122492 -3.6174e-25 0.000734718)
(-0.00930925 0.000208913 -7.07607e-24 -0.00234803 2.13287e-20 -0.00466291)
(0.0184521 0.000825847 -9.35446e-25 0.00343506 -1.64634e-20 0.00875486)
(0.00854558 -0.000165469 0 0.00149157 0 0.00401486)
(0.00053486 -0.000665386 8.45154e-27 0.00135159 3.55679e-25 0.00075458)
(-0.00948528 6.69771e-05 -6.44715e-24 -0.00185279 1.73248e-20 -0.00453523)
(0.0182892 0.000430486 -1.27058e-25 0.0026268 1.49276e-21 0.00836642)
(0.00859558 -3.93318e-05 0 0.000730007 0 0.00373024)
(0.000588787 -0.000381893 -1.92454e-25 0.00141632 7.90156e-26 0.000802042)
(-0.00951671 -2.866e-06 3.51777e-24 -0.00153695 -1.48426e-21 -0.00442147)
(0.0182839 0.00019037 -1.74835e-24 0.00219926 1.52537e-20 0.00819328)
(0.00868161 -5.07847e-06 0 0.000279894 0 0.0035846)
(0.000629036 -0.000212214 0 0.00140006 0 0.000811638)
(-0.00958065 -3.13687e-05 -1.09077e-23 -0.00138568 1.60322e-20 -0.00438653)
(0.0182833 5.11616e-05 2.11234e-24 0.00196973 -1.46311e-20 0.00810122)
(0.00865549 -1.15974e-05 0 -4.7761e-05 0 0.00344309)
(0.000686502 -0.000112171 0 0.00136861 0 0.000822045)
(-0.00961294 -3.86771e-05 3.66764e-25 -0.00131407 -1.34882e-20 -0.0043708)
(0.0183245 -2.29607e-05 3.80812e-24 0.00187129 -2.73788e-20 0.00807831)
(0.00862236 -3.49381e-05 6.71482e-24 -0.000252032 5.55566e-24 0.00334813)
(0.000731691 -6.08445e-05 -2.9796e-25 0.00133026 -3.86265e-25 0.00082478)
(-0.0096406 -3.70007e-05 2.53013e-23 -0.0012911 -1.54294e-20 -0.00437268)
(0.0183781 -5.76399e-05 -6.21311e-24 0.00184105 3.79016e-20 0.00808768)
(0.0085667 -5.8374e-05 -2.23625e-24 -0.000389038 -1.33213e-24 0.00327106)
(0.000768928 -3.7646e-05 -2.38152e-25 0.00130057 7.80083e-24 0.000827798)
(-0.00965835 -3.29766e-05 4.37806e-24 -0.00128945 -1.37895e-20 -0.00437912)
(0.0184433 -6.84767e-05 -2.27911e-24 0.00184761 -5.53182e-22 0.00811634)
(0.00851374 -7.46626e-05 -1.12596e-23 -0.000473799 -1.37975e-23 0.00321598)
(0.000794491 -3.00579e-05 1.46639e-24 0.00128112 -2.50511e-23 0.000830243)
(-0.0096724 -2.93011e-05 -1.56801e-23 -0.00129642 7.91033e-22 -0.00438753)
(0.0185108 -6.54456e-05 2.43625e-24 0.00187018 -9.29014e-21 0.00815238)
(0.00846402 -8.05074e-05 -3.84732e-24 -0.000526469 -9.38622e-24 0.00317502)
(0.000811288 -2.83488e-05 -7.55366e-25 0.00127248 3.96226e-23 0.000833506)
(-0.00968374 -2.64288e-05 -1.54998e-24 -0.00130464 1.28355e-20 -0.00439535)
(0.0185764 -5.43119e-05 3.95863e-24 0.00189804 -4.35372e-22 0.00818976)
(0.00842298 -7.55091e-05 1.68928e-24 -0.000556727 -5.18504e-24 0.0031465)
(0.00082117 -2.63785e-05 4.10193e-24 0.00127218 -1.71752e-23 0.000837342)
(-0.00969356 -2.36981e-05 -7.43082e-24 -0.00131099 -1.16864e-21 -0.00440182)
(0.0186349 -3.85049e-05 6.9163e-23 0.00192518 2.0803e-22 0.00822405)
(0.00839023 -6.04725e-05 1.496e-23 -0.000572901 2.31989e-23 0.00312693)
(0.000826878 -2.01662e-05 2.8225e-25 0.00127765 -2.86537e-23 0.000841811)
(-0.0097011 -2.01772e-05 4.69459e-23 -0.00131425 -1.69734e-20 -0.00440614)
(0.0186824 -1.99672e-05 -6.17246e-23 0.00194863 -8.06888e-21 0.00825242)
(0.00836518 -3.68453e-05 -3.6179e-23 -0.000579942 -7.23495e-23 0.00311409)
(0.000830664 -7.69821e-06 4.19574e-24 0.00128629 1.09279e-23 0.00084678)
(-0.00970441 -1.51059e-05 -4.56813e-23 -0.00131405 2.37812e-20 -0.00440738)
(0.0187147 1.21483e-07 1.74262e-23 0.00196693 1.37241e-20 0.00827265)
(0.00834566 -6.33066e-06 3.37332e-23 -0.000581418 6.74585e-23 0.0031057)
(0.000834538 1.15821e-05 0 0.00129607 0 0.000852242)
(-0.00970039 -8.13e-06 2.74151e-24 -0.00131031 -7.27012e-21 -0.00440428)
(0.0187279 2.09903e-05 -9.51308e-24 0.0019795 -3.91124e-23 0.00828297)
(0.00832923 2.92328e-05 -1.87909e-23 -0.000579476 -4.54619e-23 0.0030999)
(0.000840122 3.70666e-05 4.6328e-24 0.00130551 2.20249e-23 0.000858254)
(-0.00968526 6.69882e-07 -1.46285e-23 -0.00130295 4.88096e-22 -0.00439529)
(0.0187186 4.20412e-05 2.69589e-23 0.00198614 -5.19808e-21 0.0082819)
(0.00831314 6.7933e-05 4.12598e-23 -0.000575425 1.16109e-22 0.00309508)
(0.000848726 6.73237e-05 0 0.00131362 0 0.00086494)
(-0.00965493 1.08345e-05 2.44717e-23 -0.00129192 6.44038e-21 -0.00437874)
(0.0186836 6.2758e-05 8.60254e-23 0.00198695 -5.6318e-23 0.00826823)
(0.00829482 0.000107864 4.2365e-24 -0.000569927 2.53552e-23 0.00308996)
(0.000861394 0.00010044 4.92158e-25 0.00131975 -1.31453e-22 0.000872457)
(-0.0096055 2.16685e-05 -3.90438e-23 -0.0012772 -8.47522e-22 -0.00435308)
(0.0186205 8.26824e-05 -1.33076e-22 0.00198213 1.47271e-23 0.00824105)
(0.00827199 0.000147249 -5.01867e-23 -0.000563299 -1.93042e-22 0.00308348)
(0.000878919 0.000134371 2.07672e-23 0.00132342 1.22301e-22 0.000880937)
(-0.00953364 3.23912e-05 -8.93803e-24 -0.00125892 -3.84918e-21 -0.00431702)
(0.0185274 0.000101452 8.33985e-23 0.00197196 6.8728e-21 0.00819976)
(0.00824285 0.000184616 -3.24965e-23 -0.00055565 -8.02171e-23 0.00307488)
(0.000901926 0.000167287 4.49053e-25 0.00132429 -1.71559e-22 0.000890485)
(-0.00943675 4.23026e-05 -4.68267e-23 -0.00123737 1.23066e-21 -0.00426965)
(0.0184032 0.000118832 3.12092e-24 0.00195658 -5.75009e-21 0.00814392)
(0.00820594 0.000218977 0 -0.000547157 0 0.00306351)
(0.000930753 0.00019787 -4.18634e-25 0.00132189 1.59961e-22 0.000901057)
(-0.00931317 5.09408e-05 4.00139e-23 -0.00121314 5.6569e-21 -0.00421052)
(0.0182475 0.000134864 -9.50517e-23 0.00193623 -4.78753e-22 0.00807349)
(0.00816046 0.000250014 0 -0.000537932 0 0.00304901)
(0.00096586 0.000225491 0 0.00131587 0 0.000912693)
(-0.00916152 5.80786e-05 4.49583e-23 -0.00118668 5.66634e-21 -0.00413928)
(0.0180586 0.000149449 8.81867e-23 0.00190989 1.19578e-21 0.00798741)
(0.00810534 0.000277962 2.29711e-23 -0.000528807 2.24076e-22 0.00303061)
(0.00100716 0.000250298 7.07595e-25 0.00130518 -4.48485e-22 0.000924937)
(-0.00898135 6.40258e-05 -6.81962e-23 -0.00115936 -3.94121e-22 -0.00405628)
(0.0178285 0.000163499 4.06191e-23 0.00187759 -8.44915e-22 0.00788244)
(0.00803779 0.000303513 -1.76061e-22 -0.000519293 -9.43997e-22 0.0030074)
(0.00105746 0.000272571 4.37796e-23 0.00128883 4.69101e-22 0.000938518)
(-0.00876319 6.81905e-05 6.45314e-24 -0.00113019 -1.09174e-20 -0.00395735)
(0.0175606 0.000179084 -1.49901e-22 0.00183641 1.31145e-21 0.00775881)
(0.00795853 0.000331584 0 -0.000512074 0 0.00297858)
(0.00111507 0.000297386 0 0.00126419 0 0.000951705)
(-0.00851179 7.32313e-05 1.41315e-22 -0.00110378 6.84686e-21 -0.00384623)
(0.0172694 0.000193873 -1.54195e-22 0.00178829 -4.13891e-21 0.00762309)
(0.00787225 0.000359339 1.02234e-22 -0.000507945 3.09871e-22 0.00294572)
(0.00117756 0.000322427 0 0.00123329 0 0.00096434)
(-0.00823859 7.90701e-05 2.28466e-24 -0.0010797 -3.79858e-21 -0.00372732)
(0.0169543 0.000208063 -1.70409e-22 0.00173219 3.1596e-21 0.00747458)
(0.00777832 0.000387355 2.80103e-22 -0.000507737 1.5566e-21 0.00290823)
(0.00124407 0.000348286 0 0.00119509 0 0.000975665)
(-0.00794512 8.59751e-05 2.04094e-24 -0.0010594 -3.41567e-21 -0.0036018)
(0.0166135 0.000221444 1.79855e-22 0.00166782 4.46164e-22 0.00731254)
(0.00767611 0.000415823 -2.99485e-22 -0.000511519 -1.79065e-21 0.00286584)
(0.00131464 0.000375348 0 0.00114956 0 0.000985679)
(-0.00763018 9.44238e-05 -2.02231e-24 -0.00104246 3.44017e-21 -0.00346906)
(0.0162454 0.000233709 -3.35928e-23 0.00159464 -2.98769e-21 0.007136)
(0.00756455 0.000444411 -3.35714e-23 -0.000519521 -3.32064e-23 0.00281801)
(0.00138856 0.000403401 3.10806e-23 0.00109648 -5.07765e-22 0.000994017)
(-0.00729394 0.000104529 -2.89119e-23 -0.00102892 -3.27841e-21 -0.00332915)
(0.0158484 0.000244364 -3.77091e-23 0.00151269 6.73814e-22 0.00694443)
(0.0074427 0.000472459 1.03794e-22 -0.000531544 1.18252e-21 0.00276446)
(0.00146507 0.000431929 -3.428e-23 0.00103611 -5.73576e-22 0.00100047)
(-0.0069368 0.000116318 -3.80388e-24 -0.00101834 6.88634e-21 -0.00318205)
(0.0154216 0.000252904 2.47099e-22 0.00142233 9.65017e-21 0.00673756)
(0.00730951 0.000499141 -2.49227e-22 -0.00054722 -1.93455e-21 0.00270491)
(0.00154297 0.00046021 -3.53508e-23 0.000968923 -3.57395e-23 0.00100476)
(-0.00656023 0.000129678 3.71309e-23 -0.00101025 -6.88699e-21 -0.0030282)
(0.0149648 0.000258823 -1.8344e-22 0.00132447 -4.12883e-21 0.00651569)
(0.00716406 0.000523578 -7.86472e-26 -0.000565836 3.57323e-25 0.00263929)
(0.00162077 0.000487454 3.99147e-23 0.0008958 1.39426e-21 0.00100663)
(-0.00616659 0.000144443 -7.45686e-23 -0.00100393 3.67704e-21 -0.00286821)
(0.0144784 0.000261703 -1.22758e-22 0.00122041 -2.78289e-21 0.00627951)
(0.00700556 0.000544946 -3.61553e-25 -0.000586413 -7.51738e-22 0.00256766)
(0.00169672 0.00051288 4.29676e-23 0.000817973 1.62209e-21 0.00100588)
(-0.00575913 0.000160388 1.86001e-22 -0.000998483 -1.03693e-21 -0.00270305)
(0.0139636 0.000261237 1.5819e-22 0.00111197 1.70714e-21 0.00603022)
(0.00683333 0.000562564 4.25192e-23 -0.000607634 8.70708e-22 0.00249028)
(0.00176884 0.000535808 -8.20613e-23 0.000737075 -8.30714e-22 0.00100236)
(-0.00534184 0.000177268 3.55142e-23 -0.000992726 2.71546e-21 -0.00253383)
(0.0134221 0.000257282 -2.09711e-22 0.0010014 -1.04615e-21 0.00576941)
(0.00664689 0.000575962 0 -0.000627888 0 0.0024076)
(0.00183505 0.000555719 -4.15872e-23 0.000655089 -4.20259e-23 0.000996054)
(-0.00491924 0.000194819 -8.16632e-23 -0.000985251 -3.14977e-21 -0.0023618)
(0.0128562 0.000249882 -3.49486e-22 0.000891295 -3.89283e-22 0.00549899)
(0.0064459 0.000584934 -5.67033e-24 -0.000645268 -1.07958e-21 0.00232025)
(0.00189326 0.000572298 1.1848e-23 0.000574337 3.06922e-21 0.000987037)
(-0.0044961 0.000212779 3.83038e-23 -0.00097436 -4.48652e-22 -0.00218818)
(0.0122682 0.00023928 -9.18601e-23 0.00078452 7.66576e-22 0.00522109)
(0.00623021 0.000589545 9.07581e-23 -0.000657618 1.08202e-21 0.00222904)
(0.00194149 0.000585446 1.95191e-23 0.000497407 -5.62321e-22 0.000975558)
(-0.00407713 0.000230877 -1.24729e-22 -0.000958096 9.39496e-22 -0.00201409)
(0.0116607 0.000225902 6.99857e-23 0.000684109 9.61282e-22 0.00493793)
(0.00599982 0.0005901 0 -0.000662594 0 0.00213489)
(0.00197799 0.000595239 -1.97242e-23 0.000427087 6.07291e-22 0.00096203)
(-0.00366668 0.000248822 6.14478e-23 -0.000934259 -6.4172e-22 -0.00184038)
(0.0110362 0.000210332 -9.41804e-23 0.000593123 -7.12702e-22 0.00465175)
(0.00575493 0.00058706 0 -0.000657748 0 0.00203887)
(0.00200133 0.000601855 1.81514e-23 0.000366257 -9.91918e-22 0.000947036)
(-0.00326851 0.000266274 -8.62489e-23 -0.000900469 2.04095e-21 -0.00166759)
(0.0103973 0.000193249 -7.32432e-23 0.000514535 -1.12903e-21 0.00436473)
(0.00549598 0.000580941 -6.29762e-23 -0.000640629 -7.13687e-22 0.00194214)
(0.0020105 0.000605475 -1.01991e-23 0.000317785 3.26453e-22 0.000931313)
(-0.00288564 0.000282808 4.36392e-23 -0.000854263 -4.44457e-22 -0.00149596)
(0.00974633 0.000175377 4.95718e-23 0.000451111 1.07488e-21 0.00407898)
(0.00522366 0.0005722 1.87199e-23 -0.000608914 1.75394e-22 0.0018459)
(0.0020049 0.000606174 8.97631e-24 0.000284394 5.49661e-22 0.000915719)
(-0.00252031 0.000297887 1.66964e-25 -0.000793238 -2.48062e-21 -0.00132542)
(0.00908612 0.000157424 -1.29661e-23 0.000405301 3.72581e-24 0.00379657)
(0.00493902 0.000561139 0 -0.00056054 0 0.00175139)
(0.00198441 0.000603848 0 0.000268531 0 0.000901177)
(-0.00217411 0.000310849 -5.60299e-24 -0.000715223 1.38767e-21 -0.00115573)
(0.00841978 0.000140046 1.29015e-23 0.000379144 -1.23969e-21 0.00351957)
(0.0046435 0.000547866 2.77078e-23 -0.000493847 4.37048e-22 0.00165986)
(0.0019493 0.00059818 4.99559e-24 0.000272227 -2.1204e-22 0.000888613)
(-0.00184813 0.000320919 5.22527e-25 -0.000618464 -1.28618e-21 -0.000986639)
(0.00775106 0.000123817 5.36549e-23 0.000374186 -6.94515e-22 0.0032501)
(0.004339 0.000532297 -5.59833e-23 -0.00040771 -8.99667e-22 0.00157252)
(0.00190025 0.000588669 0 0.000296973 0 0.000878888)
(-0.00154322 0.00032725 -3.52735e-23 -0.00050181 1.34626e-21 -0.000818011)
(0.00708447 0.000109228 -5.35681e-23 0.000391394 7.76494e-22 0.00299035)
(0.00402792 0.000514221 -6.07799e-23 -0.000301659 -1.46517e-21 0.0014905)
(0.00183823 0.000574707 3.14592e-23 0.000343604 9.50738e-22 0.000872732)
(-0.00126009 0.000328983 -4.57114e-23 -0.00036487 5.1203e-22 -0.000649986)
(0.00642531 9.66991e-05 -1.36186e-22 0.000431088 -9.59006e-22 0.00274256)
(0.0037131 0.000493392 -9.5067e-25 -0.000175965 -5.23898e-23 0.00141485)
(0.0017645 0.000555701 6.3972e-24 0.000412214 1.02904e-21 0.000870685)
(-0.00099955 0.000325331 4.57234e-23 -0.000208125 -5.83071e-22 -0.00048307)
(0.00577957 8.65939e-05 2.52854e-25 0.000492883 8.47321e-22 0.00250898)
(0.00339778 0.000469643 5.85466e-23 -3.16923e-05 1.02943e-21 0.00134644)
(0.00168055 0.000531196 -6.39733e-24 0.000502097 -1.02904e-21 0.000873057)
(-0.000762436 0.00031566 -3.17983e-25 -3.29786e-05 -1.0351e-21 -0.000318166)
(0.0051537 7.92374e-05 -1.05981e-22 0.000575643 6.07092e-22 0.00229174)
(0.00308551 0.000442983 -5.22336e-23 0.000129291 5.29344e-23 0.00128592)
(0.00158805 0.000500991 1.41044e-23 0.000611728 2.27088e-21 0.000879912)
(-0.00054961 0.000299555 1.27308e-25 0.000158254 3.43572e-22 -0.000156542)
(0.00455426 7.49226e-05 -2.74224e-26 0.000677472 -6.46973e-23 0.00209269)
(0.00277999 0.000413657 -1.20309e-22 0.000304352 -2.27138e-21 0.00123373)
(0.00148886 0.000465219 -5.31049e-23 0.000738786 5.37591e-23 0.000891058)
(-0.000361785 0.000276879 4.01559e-23 0.000362425 3.45186e-22 2.56118e-07)
(0.00398756 7.39043e-05 -2.76515e-25 0.000795725 -5.69577e-22 0.00191332)
(0.00248488 0.000382167 0 0.000490174 0 0.00119002)
(0.00138496 0.000424363 0 0.000880218 0 0.000906071)
(-0.000199354 0.000247788 2.40971e-22 0.000575689 -1.71757e-21 0.000150534)
(0.00345929 7.63806e-05 4.60715e-22 0.000927082 1.60977e-21 0.00175455)
(0.00220372 0.000349234 -1.7721e-22 0.000682883 -2.54149e-21 0.00115464)
(0.00127845 0.00037923 0 0.00103235 0 0.000924321)
(-6.22159e-05 0.000212722 -3.35108e-22 0.000793671 3.61475e-21 0.000292582)
(0.00297416 8.24641e-05 -5.63477e-26 0.00106765 -9.31154e-23 0.00161672)
(0.00193968 0.000315723 0 0.000878196 0 0.00112715)
(0.00117151 0.000330873 0 0.00119102 0 0.000945009)
(5.03477e-05 0.000172375 -1.63591e-23 0.00101166 -3.4122e-21 0.000424804)
(0.0025357 9.21505e-05 -5.73798e-22 0.0012131 -1.85799e-21 0.00149952)
(0.00169551 0.000282545 0 0.0010716 0 0.00110684)
(0.00106629 0.000280482 -4.58614e-23 0.00135174 1.1149e-20 0.000967215)
(0.000139706 0.000127636 1.89975e-22 0.00122483 -1.72723e-21 0.000545816)
(0.00214615 0.000105292 -4.65515e-22 0.0013589 -1.7321e-21 0.00140202)
(0.0014734 0.000250553 3.59496e-22 0.00125855 5.73819e-21 0.00109278)
(0.000964913 0.00022927 1.1989e-25 0.00150994 2.19858e-22 0.000989941)
(0.000207828 7.95264e-05 -2.91476e-27 0.00142842 -4.00024e-24 0.0006545)
(0.00180651 0.00012158 -9.33507e-22 0.00150047 -4.79522e-21 0.00132279)
(0.00127498 0.000220449 1.09261e-22 0.00143465 -1.10388e-22 0.00108385)
(0.000869309 0.000178367 4.61886e-23 0.00166107 -1.18087e-20 0.00101215)
(0.000257135 2.91354e-05 -3.81116e-22 0.00161793 5.36476e-21 0.000750027)
(0.00151657 0.000140548 1.09245e-22 0.00163341 -9.13372e-22 0.00125999)
(0.00110122 0.000192728 2.51124e-22 0.00159581 6.06824e-21 0.00107881)
(0.000781172 0.000128748 7.83972e-23 0.00180088 -6.18034e-21 0.00103282)
(0.000290301 -2.24372e-05 -2.71958e-22 0.00178928 6.78743e-21 0.000831834)
(0.00127517 0.000161588 -1.11417e-25 0.00175374 -1.27693e-22 0.00121156)
(0.000952521 0.000167657 0 0.00173846 0 0.00107639)
(0.000701853 8.11875e-05 -7.89161e-23 0.00192555 6.40121e-21 0.00105096)
(0.000310018 -7.41252e-05 -3.04447e-23 0.00193897 -4.41797e-21 0.000899593)
(0.00108032 0.000183988 4.68184e-22 0.00185802 3.48835e-21 0.00117534)
(0.000828711 0.000145291 1.411e-22 0.00185962 6.62059e-21 0.00107533)
(0.000632298 3.62609e-05 -2.20636e-22 0.00203182 1.77718e-24 0.00106565)
(0.00031878 -0.000124925 2.75885e-22 0.00206412 -6.96902e-21 0.000953161)
(0.000929447 0.000206981 -1.04499e-21 0.00194353 -6.08144e-21 0.00114919)
(0.000729077 0.00012553 1.4068e-22 0.00195703 6.8417e-21 0.00107444)
(0.000573003 -5.62086e-06 -2.20924e-22 0.00211717 1.90903e-24 0.00107607)
(0.000318709 -0.000173913 -4.15602e-22 0.00216264 3.00184e-21 0.00099254)
(0.000819493 0.000229798 6.15302e-25 0.00200834 6.12795e-22 0.00113113)
(0.00065243 0.00010819 0 0.00202919 0 0.00107265)
(0.000523996 -4.41582e-05 -2.9353e-23 0.00217981 -7.17456e-21 0.00108152)
(0.000311457 -0.000220245 2.10103e-27 0.0022332 2.07491e-24 0.00101786)
(0.000747028 0.000251727 3.56537e-22 0.00205131 3.65489e-21 0.00111933)
(0.00059714 9.3079e-05 -1.1052e-22 0.00207542 1.11632e-22 0.00106902)
(0.000484867 -7.90977e-05 5.79665e-23 0.00221876 1.45706e-20 0.00108145)
(0.000298199 -0.000263161 7.58379e-27 0.00227526 7.2201e-24 0.00102938)
(0.000708269 0.000272161 3.55804e-22 0.00207211 3.76831e-21 0.00111215)
(0.000561186 8.00775e-05 -8.58833e-22 0.00209577 -2.25137e-20 0.00106278)
(0.000454807 -0.000110173 2.62665e-23 0.00223383 -2.25216e-20 0.00107546)
(0.000279697 -0.000301971 -8.67701e-23 0.0022891 3.77707e-21 0.00102752)
(0.000699064 0.000290634 3.81948e-25 0.00207115 3.43892e-22 0.00110808)
(0.000542193 6.91846e-05 2.49215e-22 0.00209106 7.61567e-21 0.0010533)
(0.000432695 -0.000137064 1.38511e-22 0.00222553 7.72739e-21 0.00106329)
(0.000256446 -0.000336065 -8.79469e-23 0.00227573 3.84212e-21 0.00101287)
(0.000714846 0.000306842 9.28367e-22 0.00204942 7.26501e-21 0.0011057)
(0.000537473 6.05442e-05 -4.96324e-22 0.00206273 -1.58966e-20 0.00104008)
(0.000417184 -0.000159377 2.59548e-23 0.00219502 8.06121e-21 0.00104488)
(0.000228849 -0.000364905 8.83581e-23 0.00223685 -4.57312e-21 0.000986279)
(0.000750582 0.000320643 -4.63625e-22 0.00200842 -3.83838e-21 0.0011036)
(0.000544075 5.44363e-05 0 0.00201278 0 0.00102274)
(0.000406805 -0.000176658 8.53524e-23 0.002144 -8.17322e-21 0.00102032)
(0.000197417 -0.000388043 -6.06437e-22 0.00217476 1.11602e-20 0.000948872)
(0.00080076 0.000332043 1.61099e-21 0.00195002 1.19418e-20 0.00110031)
(0.000558836 5.12366e-05 -5.19584e-22 0.00194366 -2.529e-20 0.001001)
(0.000400061 -0.000188434 1.00115e-22 0.00207458 3.3577e-20 0.000989856)
(0.000162931 -0.000405132 1.01569e-21 0.00209227 -1.87156e-20 0.000902081)
(0.000859414 0.000341165 -9.25104e-22 0.00187627 -7.69188e-21 0.00109427)
(0.000578454 5.13487e-05 2.4709e-22 0.00185811 8.5035e-21 0.000974626)
(0.000395523 -0.000194276 1.25522e-22 0.00198913 -3.46905e-20 0.000953862)
(0.000126573 -0.000415952 -8.16764e-22 0.00199255 1.62538e-20 0.000847648)
(0.00092024 0.000348207 9.25807e-22 0.00178934 8.41495e-21 0.00108383)
(0.000599576 5.51165e-05 2.70469e-22 0.00175908 1.76764e-20 0.000943464)
(0.000391884 -0.000193881 -2.69322e-22 0.00189022 -1.81217e-20 0.00091284)
(8.99611e-05 -0.000420432 6.32819e-22 0.00187901 -9.47087e-21 0.000787588)
(0.000976774 0.000353388 -2.22886e-22 0.0016914 -6.15689e-22 0.00106727)
(0.000618901 6.27274e-05 -2.22342e-22 0.00164958 2.24641e-22 0.000907394)
(0.000388017 -0.000187162 4.73021e-23 0.00178043 1.79009e-20 0.000867379)
(5.51139e-05 -0.000418679 -2.23594e-22 0.00175517 -3.39649e-22 0.000724115)
(0.00102269 0.000356903 2.07439e-21 0.00158455 1.95638e-20 0.00104289)
(0.000633312 7.41176e-05 -7.15684e-22 0.00153258 -1.8566e-20 0.000866355)
(0.000382984 -0.000174337 -9.10059e-23 0.00166233 -3.71404e-20 0.000818126)
(2.43152e-05 -0.000410997 -1.24202e-21 0.00162452 2.69141e-20 0.000659534)
(0.00105212 0.000358872 -3.07603e-25 0.00147073 -2.41022e-22 0.00100914)
(0.000640011 8.88922e-05 2.23638e-22 0.00141086 -2.25078e-22 0.00082035)
(0.000376038 -0.000155992 8.9464e-23 0.00153834 3.80347e-20 0.000765753)
(-1.18671e-07 -0.000397903 1.90491e-22 0.00149035 -1.01649e-20 0.000596092)
(0.00106012 0.000359309 -1.1493e-21 0.00135182 -1.00952e-20 0.000964775)
(0.000636672 0.00010628 0 0.00128703 0 0.000769479)
(0.000366596 -0.000133128 4.42133e-23 0.00141072 1.96895e-20 0.000710926)
(-1.61097e-05 -0.000380138 6.43568e-22 0.00135566 -8.94887e-21 0.000535819)
(0.00104304 0.000358097 -2.0772e-21 0.00122951 -2.00383e-20 0.000909019)
(0.000621601 0.000125125 2.68257e-22 0.00116331 1.99128e-20 0.000713963)
(0.000354219 -0.000107159 -3.1247e-22 0.00128146 -3.96023e-20 0.000654273)
(-2.21667e-05 -0.000358638 6.4575e-22 0.00122298 -8.94012e-21 0.000480326)
(0.000998903 0.000355025 -2.24809e-22 0.00110544 -8.89933e-22 0.000841738)
(0.000593816 0.000143958 0 0.00104155 0 0.000654147)
(0.000338517 -7.98615e-05 -1.8159e-22 0.00115231 2.03649e-20 0.000596332)
(-1.77236e-05 -0.000334533 -2.24569e-22 0.00109434 1.04989e-21 0.000430648)
(0.000927813 0.0003498 -9.28379e-22 0.00098114 -1.01824e-20 0.000763581)
(0.000553376 0.000161119 -2.68398e-22 0.000923208 -2.08131e-20 0.000590634)
(0.000319363 -5.32758e-05 2.24947e-22 0.00102472 -2.26578e-22 0.000537635)
(-3.29097e-06 -0.00030907 4.20734e-22 0.00097112 -1.02447e-20 0.000387132)
(0.000831472 0.00034219 1.63336e-21 0.000857843 2.11863e-20 0.000675726)
(0.000500865 0.000174993 -1.21256e-21 0.000808927 -4.27525e-20 0.000523917)
(0.000296313 -2.9591e-05 8.69018e-23 0.000899531 4.25309e-20 0.000478337)
(1.88008e-05 -0.000283612 -4.22813e-22 0.000853845 1.04742e-20 0.000349058)
(0.0007144 0.000332186 4.75566e-25 0.000737023 3.61818e-22 0.000580569)
(0.000439216 0.000184317 4.94088e-22 0.00069935 2.14895e-20 0.000455427)
(0.000270467 -1.10188e-05 -1.8244e-22 0.000777696 2.21702e-20 0.000419265)
(4.5698e-05 -0.000259618 6.19275e-22 0.000742693 -2.1603e-20 0.000315357)
(0.000579163 0.000320192 7.05385e-22 0.000617983 1.10281e-20 0.000478859)
(0.000369666 0.000188601 -7.2005e-22 0.00059235 -2.21675e-20 0.000384806)
(0.000240556 2.24025e-07 2.10621e-25 0.000657609 4.52556e-22 0.000359266)
(6.97134e-05 -0.000238624 -4.24062e-22 0.000635296 1.07459e-20 0.000282004)
(0.000434624 0.000307533 -7.0623e-22 0.000502459 -1.16011e-20 0.000374833)
(0.000302975 0.000188214 7.20753e-22 0.000489566 2.26205e-20 0.000317016)
(0.00021441 1.96304e-06 -4.37741e-23 0.000541654 -2.23959e-20 0.000302426)
(8.75589e-05 -0.000222867 -6.50926e-22 0.000531886 1.15039e-20 0.000247778)
(0.000270528 0.000295616 9.3141e-22 0.000381424 1.14446e-20 0.000260781)
(0.000233258 0.000184274 2.7014e-22 0.000381599 2.30747e-20 0.000245943)
(0.000183225 -7.48812e-06 -2.25646e-22 0.000421019 2.27043e-22 0.000241697)
(7.55249e-05 -0.000213734 4.23551e-22 0.000420398 -1.15367e-20 0.000198369)
(0.00011322 0.000282318 2.6592e-25 0.000266378 2.96841e-22 0.000151839)
(0.000202372 0.000173831 0 0.000296612 0 0.000199594)
(0.00018522 -2.37293e-05 1.37332e-22 0.000324957 -4.68305e-20 0.000204071)
(4.42935e-05 -0.000207468 -8.48398e-22 0.000308354 2.33275e-20 0.000141059)
(-0.000105994 0.000249035 -2.79593e-21 0.000152245 -3.61479e-20 1.85005e-05)
(0.000113938 0.000145045 1.49117e-21 0.000239567 7.21676e-20 0.000141402)
(0.000120992 -3.59138e-05 -8.99375e-23 0.000264835 -4.79627e-20 0.000154331)
(-8.75125e-05 -0.000184212 -1.97121e-22 0.00020315 1.20126e-20 4.6255e-05)
(-0.00015283 0.000126461 -2.75475e-22 0.0002655 -1.19883e-20 4.5068e-05)
(0.00013915 6.47697e-05 -6.73748e-23 0.000532142 5.25742e-25 0.000268517)
(0.000159802 -1.74311e-05 -1.80888e-22 0.000566695 -2.4434e-20 0.000290599)
(-0.000105452 -8.01617e-05 -5.05482e-23 0.000340144 4.49184e-24 9.38768e-05)
)
;

boundaryField
{
    plateFix
    {
        type            calculated;
        value           nonuniform List<symmTensor> 4((0.0191053 0.00287839 2.78413e-26 0.00683286 6.95684e-22 0.0103753) (0.00740252 -0.00131334 -8.10567e-26 0.00370794 3.28769e-26 0.00444418) (0.000768947 -0.00214571 0 0.000906513 0 0.000670184) (-0.00928062 0.000579066 1.99945e-24 -0.00319543 -7.69209e-22 -0.00499042));
    }
    plate
    {
        type            calculated;
        value           nonuniform List<symmTensor> 
168
(
(0.0147315 1.1548e-05 -1.55614e-26 0.000178165 1.41102e-21 0.00596388)
(-0.00717548 -2.84807e-06 2.27897e-24 0.0001221 -1.55667e-21 -0.00282135)
(0.0154488 9.46287e-06 1.9386e-24 0.000182183 -1.81856e-21 0.0062524)
(-0.00764377 -3.4572e-06 -1.27074e-23 0.000149903 4.27019e-20 -0.00299755)
(0.01629 7.00476e-06 -4.48697e-26 0.000191736 -3.29231e-20 0.00659271)
(-0.00812471 -2.87596e-06 -1.02327e-23 0.000187991 3.46715e-20 -0.00317469)
(0.0166722 5.79417e-06 -2.5254e-25 0.000201043 2.96701e-21 0.0067493)
(-0.00834404 -2.20426e-06 3.79978e-24 0.000222062 -2.96971e-21 -0.00324879)
(0.0169571 5.87414e-06 -3.50085e-24 0.000208839 3.05437e-20 0.00686636)
(-0.00849067 -2.00955e-06 -1.38248e-23 0.000249314 3.20431e-20 -0.00329654)
(0.0171139 6.74629e-06 4.22723e-24 0.000215554 -2.928e-20 0.00693178)
(-0.0085558 -2.24747e-06 2.87345e-24 0.00027168 -2.69802e-20 -0.00331365)
(0.0172247 8.04014e-06 8.57675e-24 0.000221657 -5.47726e-20 0.00697854)
(-0.0085858 -2.92778e-06 2.83525e-23 0.000291128 -3.08246e-20 -0.00331787)
(0.0173023 9.60021e-06 -1.39565e-23 0.000227319 7.58314e-20 0.00701184)
(-0.00859304 -4.01704e-06 7.3771e-24 0.000308549 -2.76095e-20 -0.0033138)
(0.0173665 1.13668e-05 -2.14761e-24 0.000232602 -1.11767e-21 0.00703965)
(-0.00859189 -5.49464e-06 -1.58622e-23 0.000324368 1.58091e-21 -0.00330701)
(0.0174223 1.33315e-05 4.87237e-24 0.000237552 -1.85798e-20 0.00706394)
(-0.00858803 -7.30112e-06 -4.94802e-24 0.000338941 2.56894e-20 -0.00329964)
(0.0174724 1.55047e-05 4.05391e-24 0.000242198 -8.83246e-22 0.00708584)
(-0.00858451 -9.4027e-06 -7.07296e-24 0.000352596 -2.37258e-21 -0.00329277)
(0.0175158 1.79124e-05 6.91127e-23 0.000246548 3.6472e-22 0.00710494)
(-0.0085812 -1.17837e-05 5.23409e-23 0.000365608 -3.38893e-20 -0.00328624)
(0.0175503 2.05801e-05 -5.89142e-23 0.000250581 -1.60897e-20 0.00712037)
(-0.00857624 -1.44541e-05 -5.39406e-23 0.000378202 4.7519e-20 -0.00327921)
(0.0175729 2.3536e-05 1.21965e-23 0.00025426 2.74418e-20 0.00713085)
(-0.00856648 -1.74338e-05 5.48646e-24 0.000390547 -1.45494e-20 -0.00327037)
(0.0175799 2.68051e-05 -9.49368e-24 0.000257528 -7.60797e-23 0.00713499)
(-0.00854809 -2.07504e-05 -1.48339e-23 0.000402753 9.5377e-22 -0.00325814)
(0.0175681 3.04113e-05 2.92629e-23 0.000260316 -1.0438e-20 0.00713136)
(-0.00851703 -2.44327e-05 2.16019e-23 0.000414857 1.29778e-20 -0.00324087)
(0.0175341 3.43731e-05 8.61148e-23 0.000262535 -2.48132e-22 0.00711864)
(-0.00846942 -2.85052e-05 -3.85949e-23 0.00042681 -1.81625e-21 -0.00321704)
(0.0174752 3.86988e-05 -1.33245e-22 0.000264066 2.44795e-22 0.0070957)
(-0.00840195 -3.29856e-05 -7.01903e-24 0.00043846 -7.76218e-21 -0.0031854)
(0.0173894 4.33836e-05 7.99872e-23 0.000264748 1.35735e-20 0.00706166)
(-0.008312 -3.78755e-05 -4.73717e-23 0.00044955 2.28694e-21 -0.00314498)
(0.0172752 4.83674e-05 6.2416e-24 0.000264301 -1.14997e-20 0.00701579)
(-0.00819782 -4.31213e-05 3.68667e-23 0.000459624 1.14917e-20 -0.00309528)
(0.0171319 5.36316e-05 -9.49089e-23 0.00026261 -7.32048e-22 0.00695781)
(-0.00805794 -4.87113e-05 4.16643e-23 0.000468383 1.15472e-20 -0.00303582)
(0.0169579 5.87567e-05 8.7614e-23 0.000258447 2.18106e-21 0.00688652)
(-0.00789197 -5.42167e-05 -6.772e-23 0.00047438 -1.21868e-21 -0.00296704)
(0.0167456 6.47215e-05 4.12479e-23 0.000252942 -1.90166e-21 0.00679942)
(-0.00769018 -6.06439e-05 1.29091e-23 0.000478944 -2.18397e-20 -0.00288449)
(0.0164974 7.11594e-05 -1.51235e-22 0.000241306 2.93718e-21 0.0066955)
(-0.00745793 -6.75697e-05 1.37327e-22 0.000476593 1.42652e-20 -0.00279254)
(0.0162278 7.65276e-05 -1.52093e-22 0.000225502 -7.60784e-21 0.00658133)
(-0.00720596 -7.34106e-05 4.57223e-24 0.000468778 -7.602e-21 -0.00269487)
(0.0159358 8.08089e-05 -1.72781e-22 0.000204111 7.09891e-21 0.00645596)
(-0.0069357 -7.81109e-05 4.08173e-24 0.000454231 -6.83108e-21 -0.00259259)
(0.0156201 8.35874e-05 1.80122e-22 0.000177199 -4.19342e-24 0.0063189)
(-0.00664612 -8.12331e-05 -4.04461e-24 0.000433115 6.88031e-21 -0.0024852)
(0.0152788 8.46284e-05 -3.18899e-23 0.000144386 -5.93664e-21 0.00616928)
(-0.00633748 -8.25142e-05 -2.67411e-23 0.000405229 -7.06884e-21 -0.0023729)
(0.0149108 8.36259e-05 -3.83664e-23 0.000105885 1.38246e-21 0.00600668)
(-0.00601025 -8.16273e-05 -7.60786e-24 0.000370932 1.37729e-20 -0.00225573)
(0.014515 8.03606e-05 2.42673e-22 6.20654e-05 1.79672e-20 0.00583084)
(-0.00566588 -7.8339e-05 4.04203e-23 0.000330727 -1.31272e-20 -0.00213406)
(0.0140912 7.46439e-05 -1.8173e-22 1.37449e-05 -7.53371e-21 0.005642)
(-0.00530658 -7.24518e-05 -7.60202e-23 0.000285542 6.59638e-21 -0.00200842)
(0.0136398 6.63816e-05 -1.21862e-22 -3.79531e-05 -4.69601e-21 0.00544073)
(-0.00493541 -6.38717e-05 1.86128e-22 0.000236589 -5.23569e-22 -0.00187953)
(0.0131616 5.55619e-05 1.57813e-22 -9.1495e-05 2.58212e-21 0.00522803)
(-0.00455604 -5.25932e-05 3.39897e-23 0.000185482 6.30501e-21 -0.00174822)
(0.0126581 4.22866e-05 -2.10027e-22 -0.000145018 -1.13526e-21 0.00500524)
(-0.00417267 -3.87333e-05 -8.08368e-23 0.000134159 -6.30408e-21 -0.0016154)
(0.0121314 2.6772e-05 -3.50431e-22 -0.000196328 1.30667e-21 0.00477401)
(-0.00378966 -2.25306e-05 3.81067e-23 8.48988e-05 1.36351e-22 -0.0014819)
(0.0115834 9.36029e-06 -9.22577e-23 -0.00024298 2.11881e-21 0.00453618)