/*--------------------------------*- C++ -*----------------------------------*\
| =========                 |                                                 |
| \\      /  F ield         | OpenFOAM Extend Project: Open source CFD        |
|  \\    /   O peration     | Version:  1.6-ext                               |
|   \\  /    A nd           | Web:      www.extend-project.de                 |
|    \\/     M anipulation  |                                                 |
\*---------------------------------------------------------------------------*/
FoamFile
{
    version     2.0;
    format      ascii;
    class       volVectorField;
    location    "0.55";
    object      DU;
}
// * * * * * * * * * * * * * * * * * * * * * * * * * * * * * * * * * * * * * //

dimensions      [0 1 0 0 0 0 0];

internalField   nonuniform List<vector> 
328
(
(4.36533e-10 5.39791e-10 0)
(1.47916e-10 -1.09752e-10 0)
(4.93718e-12 -1.96434e-10 0)
(-2.14502e-10 1.26626e-10 0)
(1.34899e-09 1.39469e-09 0)
(5.00092e-10 -1.48666e-10 0)
(2.29258e-12 -3.99398e-10 0)
(-6.72378e-10 3.41642e-10 0)
(2.4146e-09 2.12074e-09 0)
(9.84405e-10 1.31212e-12 0)
(-2.22038e-11 -4.0261e-10 0)
(-1.21404e-09 5.98404e-10 0)
(3.58356e-09 2.80807e-09 0)
(1.545e-09 3.42382e-10 0)
(-4.83718e-11 -1.92353e-10 0)
(-1.8131e-09 9.56622e-10 0)
(4.86693e-09 3.55044e-09 0)
(2.18758e-09 8.84878e-10 0)
(-7.49447e-11 2.45333e-10 0)
(-2.47327e-09 1.47306e-09 0)
(6.25749e-09 4.42892e-09 0)
(2.89585e-09 1.65508e-09 0)
(-9.67116e-11 9.37378e-10 0)
(-3.1895e-09 2.20112e-09 0)
(7.76048e-09 5.51974e-09 0)
(3.66881e-09 2.6905e-09 0)
(-1.1354e-10 1.91851e-09 0)
(-3.96306e-09 3.19507e-09 0)
(9.38005e-09 6.89625e-09 0)
(4.50286e-09 4.04097e-09 0)
(-1.25327e-10 3.23461e-09 0)
(-4.79517e-09 4.51234e-09 0)
(1.11237e-08 8.63429e-09 0)
(5.39902e-09 5.76784e-09 0)
(-1.33296e-10 4.94238e-09 0)
(-5.68897e-09 6.21671e-09 0)
(1.29996e-08 1.08154e-08 0)
(6.35891e-09 7.94475e-09 0)
(-1.38714e-10 7.11104e-09 0)
(-6.64839e-09 8.38099e-09 0)
(1.50171e-08 1.35304e-08 0)
(7.38599e-09 1.06584e-08 0)
(-1.42934e-10 9.82345e-09 0)
(-7.67819e-09 1.10897e-08 0)
(1.71862e-08 1.68825e-08 0)
(8.48449e-09 1.40102e-08 0)
(-1.47052e-10 1.31779e-08 0)
(-8.78359e-09 1.44413e-08 0)
(1.95172e-08 2.09898e-08 0)
(9.65948e-09 1.81176e-08 0)
(-1.51869e-10 1.72897e-08 0)
(-9.9701e-09 1.85512e-08 0)
(2.20208e-08 2.59883e-08 0)
(1.09165e-08 2.31167e-08 0)
(-1.57822e-10 2.22936e-08 0)
(-1.12432e-08 2.35532e-08 0)
(2.47075e-08 3.20342e-08 0)
(1.22615e-08 2.91645e-08 0)
(-1.64981e-10 2.83456e-08 0)
(-1.26084e-08 2.96027e-08 0)
(2.75878e-08 3.93075e-08 0)
(1.37006e-08 3.64413e-08 0)
(-1.73047e-10 3.56258e-08 0)
(-1.40705e-08 3.6879e-08 0)
(3.06721e-08 4.80142e-08 0)
(1.52399e-08 4.51538e-08 0)
(-1.81339e-10 4.43409e-08 0)
(-1.56338e-08 4.5588e-08 0)
(3.39702e-08 5.839e-08 0)
(1.68854e-08 5.55386e-08 0)
(-1.88778e-10 5.47275e-08 0)
(-1.73019e-08 5.59655e-08 0)
(3.74917e-08 7.07044e-08 0)
(1.86431e-08 6.78653e-08 0)
(-1.93858e-10 6.70554e-08 0)
(-1.90775e-08 6.82809e-08 0)
(4.12456e-08 8.52639e-08 0)
(2.05189e-08 8.24412e-08 0)
(-1.94582e-10 8.16319e-08 0)
(-2.09622e-08 8.28409e-08 0)
(4.52403e-08 1.02418e-07 0)
(2.25184e-08 9.96154e-08 0)
(-1.88438e-10 9.88065e-08 0)
(-2.29565e-08 9.99944e-08 0)
(4.94838e-08 1.22563e-07 0)
(2.46473e-08 1.19785e-07 0)
(-1.72189e-10 1.18976e-07 0)
(-2.50595e-08 1.20138e-07 0)
(5.41547e-08 1.47048e-07 0)
(2.69976e-08 1.443e-07 0)
(-1.40736e-10 1.4349e-07 0)
(-2.73531e-08 1.44619e-07 0)
(5.90833e-08 1.75748e-07 0)
(2.9487e-08 1.73035e-07 0)
(-8.80678e-11 1.72223e-07 0)
(-2.97436e-08 1.73313e-07 0)
(6.3935e-08 2.06892e-07 0)
(3.19487e-08 2.04216e-07 0)
(-1.33522e-11 2.03401e-07 0)
(-3.20617e-08 2.04448e-07 0)
(6.87048e-08 2.40427e-07 0)
(3.43816e-08 2.3779e-07 0)
(8.61873e-11 2.36972e-07 0)
(-3.43008e-08 2.3797e-07 0)
(7.33869e-08 2.76299e-07 0)
(3.67842e-08 2.73704e-07 0)
(2.13573e-10 2.7288e-07 0)
(-3.64534e-08 2.73826e-07 0)
(7.79756e-08 3.14448e-07 0)
(3.9155e-08 3.11897e-07 0)
(3.71692e-10 3.11067e-07 0)
(-3.85121e-08 3.11956e-07 0)
(8.24643e-08 3.54809e-07 0)
(4.14923e-08 3.52304e-07 0)
(5.63284e-10 3.51468e-07 0)
(-4.04696e-08 3.52296e-07 0)
(8.68462e-08 3.97311e-07 0)
(4.37939e-08 3.94857e-07 0)
(7.90725e-10 3.94014e-07 0)
(-4.23188e-08 3.94777e-07 0)
(9.11144e-08 4.41878e-07 0)
(4.60573e-08 4.39479e-07 0)
(1.05588e-09 4.38629e-07 0)
(-4.40535e-08 4.39324e-07 0)
(9.52616e-08 4.88431e-07 0)
(4.82795e-08 4.86089e-07 0)
(1.35992e-09 4.85234e-07 0)
(-4.56681e-08 4.85858e-07 0)
(9.92804e-08 5.36882e-07 0)
(5.04571e-08 5.34602e-07 0)
(1.70316e-09 5.33743e-07 0)
(-4.71588e-08 5.34296e-07 0)
(1.03164e-07 5.87142e-07 0)
(5.25863e-08 5.84929e-07 0)
(2.08496e-09 5.84068e-07 0)
(-4.8523e-08 5.8455e-07 0)
(1.06904e-07 6.39117e-07 0)
(5.46627e-08 6.36976e-07 0)
(2.50359e-09 6.36116e-07 0)
(-4.976e-08 6.36529e-07 0)
(1.10495e-07 6.92711e-07 0)
(5.66816e-08 6.90648e-07 0)
(2.95619e-09 6.89794e-07 0)
(-5.08708e-08 6.90139e-07 0)
(1.13929e-07 7.47827e-07 0)
(5.86375e-08 7.45848e-07 0)
(3.4388e-09 7.45003e-07 0)
(-5.18583e-08 7.45287e-07 0)
(1.172e-07 8.04366e-07 0)
(6.05247e-08 8.02477e-07 0)
(3.94636e-09 8.01648e-07 0)
(-5.27272e-08 8.01875e-07 0)
(1.203e-07 8.6223e-07 0)
(6.23371e-08 8.60438e-07 0)
(4.47285e-09 8.59632e-07 0)
(-5.34835e-08 8.59809e-07 0)
(1.23225e-07 9.21321e-07 0)
(6.40679e-08 9.19633e-07 0)
(5.01141e-09 9.18858e-07 0)
(-5.41346e-08 9.18993e-07 0)
(1.25966e-07 9.81543e-07 0)
(6.57105e-08 9.79966e-07 0)
(5.55453e-09 9.7923e-07 0)
(-5.46892e-08 9.79332e-07 0)
(1.2852e-07 1.0428e-06 0)
(6.7258e-08 1.04134e-06 0)
(6.09424e-09 1.04065e-06 0)
(-5.51564e-08 1.04073e-06 0)
(1.30879e-07 1.105e-06 0)
(6.87038e-08 1.10367e-06 0)
(6.62231e-09 1.10303e-06 0)
(-5.55463e-08 1.1031e-06 0)
(1.3304e-07 1.16804e-06 0)
(7.00417e-08 1.16684e-06 0)
(7.13049e-09 1.16627e-06 0)
(-5.58692e-08 1.16634e-06 0)
(1.35e-07 1.23185e-06 0)
(7.12662e-08 1.23079e-06 0)
(7.61077e-09 1.23029e-06 0)
(-5.61356e-08 1.23036e-06 0)
(1.36757e-07 1.29633e-06 0)
(7.2373e-08 1.29541e-06 0)
(8.05554e-09 1.29499e-06 0)
(-5.63562e-08 1.29507e-06 0)
(1.38313e-07 1.36139e-06 0)
(7.33587e-08 1.36062e-06 0)
(8.45789e-09 1.36028e-06 0)
(-5.65418e-08 1.3604e-06 0)
(1.3967e-07 1.42697e-06 0)
(7.42219e-08 1.42634e-06 0)
(8.81177e-09 1.42609e-06 0)
(-5.67026e-08 1.42624e-06 0)
(1.40833e-07 1.49298e-06 0)
(7.49626e-08 1.4925e-06 0)
(9.11222e-09 1.49234e-06 0)
(-5.68484e-08 1.49254e-06 0)
(1.41811e-07 1.55936e-06 0)
(7.55825e-08 1.55902e-06 0)
(9.35557e-09 1.55896e-06 0)
(-5.69884e-08 1.5592e-06 0)
(1.42612e-07 1.62605e-06 0)
(7.60855e-08 1.62585e-06 0)
(9.53953e-09 1.62588e-06 0)
(-5.71307e-08 1.62618e-06 0)
(1.4325e-07 1.693e-06 0)
(7.64768e-08 1.69293e-06 0)
(9.66334e-09 1.69305e-06 0)
(-5.72821e-08 1.6934e-06 0)
(1.43738e-07 1.76015e-06 0)
(7.67635e-08 1.7602e-06 0)
(9.72775e-09 1.76042e-06 0)
(-5.7448e-08 1.76082e-06 0)
(1.44091e-07 1.82748e-06 0)
(7.69543e-08 1.82764e-06 0)
(9.73507e-09 1.82793e-06 0)
(-5.76322e-08 1.82839e-06 0)
(1.44326e-07 1.89495e-06 0)
(7.70588e-08 1.8952e-06 0)
(9.68901e-09 1.89557e-06 0)
(-5.78369e-08 1.89608e-06 0)
(1.44459e-07 1.96252e-06 0)
(7.70877e-08 1.96287e-06 0)
(9.59455e-09 1.9633e-06 0)
(-5.80626e-08 1.96386e-06 0)
(1.44507e-07 2.03019e-06 0)
(7.70525e-08 2.03061e-06 0)
(9.45773e-09 2.0311e-06 0)
(-5.83086e-08 2.0317e-06 0)
(1.44487e-07 2.09794e-06 0)
(7.69649e-08 2.09841e-06 0)
(9.28537e-09 2.09895e-06 0)
(-5.85727e-08 2.09958e-06 0)
(1.44416e-07 2.16575e-06 0)
(7.68369e-08 2.16627e-06 0)
(9.08481e-09 2.16684e-06 0)
(-5.88521e-08 2.1675e-06 0)
(1.4431e-07 2.23362e-06 0)
(7.66801e-08 2.23417e-06 0)
(8.86361e-09 2.23477e-06 0)
(-5.91432e-08 2.23544e-06 0)
(1.44184e-07 2.30155e-06 0)
(7.65056e-08 2.30211e-06 0)
(8.62924e-09 2.30272e-06 0)
(-5.94421e-08 2.30341e-06 0)
(1.44051e-07 2.36953e-06 0)
(7.63239e-08 2.37009e-06 0)
(8.38885e-09 2.37071e-06 0)
(-5.97449e-08 2.3714e-06 0)
(1.43924e-07 2.43756e-06 0)
(7.61444e-08 2.43812e-06 0)
(8.14905e-09 2.43874e-06 0)
(-6.00479e-08 2.43942e-06 0)
(1.43813e-07 2.50566e-06 0)
(7.59753e-08 2.5062e-06 0)
(7.9157e-09 2.5068e-06 0)
(-6.03476e-08 2.50748e-06 0)
(1.43728e-07 2.57382e-06 0)
(7.58236e-08 2.57434e-06 0)
(7.69387e-09 2.57492e-06 0)
(-6.06408e-08 2.57558e-06 0)
(1.43674e-07 2.64206e-06 0)
(7.56946e-08 2.64255e-06 0)
(7.48771e-09 2.64311e-06 0)
(-6.09248e-08 2.64374e-06 0)
(1.43657e-07 2.71039e-06 0)
(7.5592e-08 2.71084e-06 0)
(7.30045e-09 2.71137e-06 0)
(-6.11968e-08 2.71198e-06 0)
(1.43678e-07 2.77882e-06 0)
(7.5518e-08 2.77923e-06 0)
(7.13448e-09 2.77973e-06 0)
(-6.14546e-08 2.78031e-06 0)
(1.43736e-07 2.84735e-06 0)
(7.54734e-08 2.84772e-06 0)
(6.99132e-09 2.84819e-06 0)
(-6.16955e-08 2.84874e-06 0)
(1.43829e-07 2.916e-06 0)
(7.54572e-08 2.91634e-06 0)
(6.87178e-09 2.91676e-06 0)
(-6.19173e-08 2.91728e-06 0)
(1.43953e-07 2.98478e-06 0)
(7.54672e-08 2.98507e-06 0)
(6.77599e-09 2.98547e-06 0)
(-6.21173e-08 2.98595e-06 0)
(1.441e-07 3.05368e-06 0)
(7.55002e-08 3.05394e-06 0)
(6.70351e-09 3.0543e-06 0)
(-6.22931e-08 3.05475e-06 0)
(1.44264e-07 3.1227e-06 0)
(7.55522e-08 3.12294e-06 0)
(6.65342e-09 3.12327e-06 0)
(-6.24423e-08 3.12367e-06 0)
(1.44435e-07 3.19185e-06 0)
(7.56184e-08 3.19206e-06 0)
(6.62437e-09 3.19236e-06 0)
(-6.25627e-08 3.19273e-06 0)
(1.44607e-07 3.2611e-06 0)
(7.56944e-08 3.26129e-06 0)
(6.61479e-09 3.26156e-06 0)
(-6.26529e-08 3.26189e-06 0)
(1.44771e-07 3.33044e-06 0)
(7.57757e-08 3.33062e-06 0)
(6.62275e-09 3.33087e-06 0)
(-6.27124e-08 3.33116e-06 0)
(1.44922e-07 3.39986e-06 0)
(7.58591e-08 3.40003e-06 0)
(6.64698e-09 3.40025e-06 0)
(-6.27414e-08 3.40051e-06 0)
(1.45053e-07 3.46933e-06 0)
(7.59418e-08 3.46949e-06 0)
(6.68544e-09 3.46969e-06 0)
(-6.27431e-08 3.46992e-06 0)
(1.45163e-07 3.53884e-06 0)
(7.60266e-08 3.53899e-06 0)
(6.74063e-09 3.53916e-06 0)
(-6.27198e-08 3.53936e-06 0)
(1.45244e-07 3.60836e-06 0)
(7.61108e-08 3.60851e-06 0)
(6.80879e-09 3.60864e-06 0)
(-6.2684e-08 3.60881e-06 0)
(1.45306e-07 3.67785e-06 0)
(7.62111e-08 3.678e-06 0)
(6.90375e-09 3.67812e-06 0)
(-6.26345e-08 3.67829e-06 0)
(1.453e-07 3.74719e-06 0)
(7.62648e-08 3.74742e-06 0)
(6.95761e-09 3.74763e-06 0)
(-6.26352e-08 3.74788e-06 0)
)
;

boundaryField
{
    plateFix
    {
        type            fixedDisplacement;
        value           uniform (0 0 0);
    }
    plate
    {
        type            solidTraction;
        nonLinear       updatedLagrangian;
        traction        nonuniform List<vector> 
168
(
(1.08803e-05 7.07529e-05 -3.1783e-20)
(1.5822e-05 -7.4225e-05 -2.39616e-23)
(-0.000128924 -7.50313e-05 4.0011e-20)
(-0.000119167 7.0152e-05 3.98216e-20)
(-0.000597508 -0.000260829 0)
(-0.000580847 0.000255616 3.80583e-20)
(-0.00132379 -0.000409207 0)
(-0.00129937 0.000404527 -3.37813e-20)
(-0.0022515 -0.000501685 -3.21642e-20)
(-0.00221953 0.000497734 3.39828e-20)
(-0.00332921 -0.000541642 3.00751e-20)
(-0.00329032 0.000538235 2.64423e-23)
(-0.00450427 -0.000542308 2.79811e-20)
(-0.0044592 0.000539094 -3.32529e-20)
(-0.00573093 -0.000518512 -5.16871e-20)
(-0.00568035 0.000515096 -2.73068e-20)
(-0.0069735 -0.000482637 2.99197e-21)
(-0.00691791 0.000478643 2.82016e-20)
(-0.00820637 -0.000443579 1.89472e-20)
(-0.00814607 0.000438683 2.28643e-20)
(-0.00941306 -0.000406963 2.44417e-21)
(-0.00934814 0.000400902 -2.07384e-20)
(-0.0105846 -0.000375798 0)
(-0.010515 0.000368359 -2.33109e-20)
(-0.0117177 -0.000351205 1.9711e-20)
(-0.0116432 0.000342213 3.33881e-20)
(-0.0128123 -0.000333043 -2.8145e-20)
(-0.0127326 0.000322347 -1.86493e-20)
(-0.0138701 -0.000320371 9.39095e-21)
(-0.0137849 0.000307829 1.31357e-20)
(-0.0148922 -0.000311765 -2.73266e-21)
(-0.0148011 0.000297245 -4.43545e-23)
(-0.0158778 -0.000305505 -4.78204e-21)
(-0.0157807 0.000288886 -1.01797e-20)
(-0.0168224 -0.000299615 0)
(-0.0167192 0.000280808 0)
(-0.0177192 -0.000291904 3.60011e-21)
(-0.0176102 0.000270887 -2.98679e-23)
(-0.0185499 -0.000279714 0)
(-0.0184359 0.000256584 9.80692e-21)
(-0.0193143 -0.000259216 2.65053e-21)
(-0.0191971 0.000234306 -1.38185e-22)
(-0.0199378 -0.000231375 -4.514e-21)
(-0.0198218 0.000204985 -1.3131e-22)
(-0.0206639 -0.000164317 0)
(-0.0205485 0.000138012 -1.59973e-20)
(-0.0214036 -9.29142e-05 5.76088e-23)
(-0.0212875 6.65053e-05 1.5759e-20)
(-0.0219786 -6.97565e-05 7.0947e-21)
(-0.0218705 4.25892e-05 -7.81641e-21)
(-0.0225125 -4.41179e-05 -7.1584e-21)
(-0.0224176 1.6911e-05 0)
(-0.0229685 -3.14546e-05 5.41133e-23)
(-0.0228959 4.82026e-06 0)
(-0.0234035 -1.94604e-05 0)
(-0.0233633 -5.90809e-06 -7.25852e-21)
(-0.0238127 -1.40685e-05 -2.58681e-23)
(-0.0238177 -9.26902e-06 7.26498e-21)
(-0.0242274 -1.25011e-05 -6.36829e-21)
(-0.0242919 -8.05317e-06 0)
(-0.0246569 -1.66345e-05 3.22203e-21)
(-0.0247979 -3.30839e-07 -3.36229e-21)
(-0.0251216 -2.5795e-05 3.05862e-21)
(-0.0253578 1.32148e-05 3.39936e-21)
(-0.0256333 -4.03141e-05 -2.96438e-21)
(-0.0259853 3.29316e-05 3.26346e-21)
(-0.0262044 -5.96571e-05 2.89864e-21)
(-0.0266944 5.82664e-05 -3.24145e-21)
(-0.0268422 -8.33142e-05 -2.20225e-23)
(-0.0274935 8.86848e-05 -3.10917e-21)
(-0.02755 -0.000110323 -2.64938e-21)
(-0.0283868 0.000123169 3.05249e-21)
(-0.0283257 -0.000139495 2.70512e-21)
(-0.0293719 0.000160449 -2.31689e-23)
(-0.0291613 -0.000169316 -4.00392e-23)
(-0.0304404 0.000198889 2.86284e-21)
(-0.0300424 -0.000198038 -3.86153e-23)
(-0.0315764 0.000236582 -2.8435e-21)
(-0.030948 -0.000223711 -2.30448e-21)
(-0.0327567 0.000271371 -2.11322e-23)
(-0.031851 -0.000244274 1.06843e-22)
(-0.0339511 0.000300953 2.03647e-23)
(-0.0327179 -0.000257655 2.21952e-21)
(-0.0351222 0.00032297 -2.43905e-21)
(-0.0335107 -0.000261886 -3.99488e-24)
(-0.0362274 0.000335148 2.44181e-21)
(-0.0341871 -0.000255235 -2.25337e-23)
(-0.037219 0.000335429 -8.80037e-24)
(-0.0347024 -0.000236323 0)
(-0.0380467 0.000322116 -8.24985e-24)
(-0.0350112 -0.000204243 -1.55197e-21)
(-0.038659 0.000293997 -3.07507e-23)
(-0.035069 -0.000158642 1.55923e-21)
(-0.0390052 0.000250456 -1.66984e-21)
(-0.0348341 -9.97829e-05 -1.20845e-21)
(-0.0390376 0.000191539 3.22179e-21)
(-0.0342693 -2.85554e-05 1.20906e-21)
(-0.0387132 0.000117984 -1.92871e-22)
(-0.0333437 5.35436e-05 -8.13851e-22)
(-0.0379959 3.12087e-05 -2.16239e-22)
(-0.0320336 0.000144475 8.23301e-22)
(-0.0368575 -6.67543e-05 -1.95996e-21)
(-0.0303239 0.000241758 -1.00008e-23)
(-0.0352791 -0.000173354 8.55617e-22)
(-0.0282087 0.000342593 0)
(-0.0332519 -0.000285651 8.92795e-24)
(-0.0256915 0.000444005 0)
(-0.0307774 -0.000400469 4.14394e-24)
(-0.0227851 0.000542994 0)
(-0.0278677 -0.000514553 -1.09783e-22)
(-0.0195112 0.000636683 2.48017e-22)
(-0.0245445 -0.000624731 1.06472e-22)
(-0.0158997 0.000722446 -2.48255e-22)
(-0.0208387 -0.000728058 -3.24545e-22)
(-0.0119875 0.000798023 0)
(-0.0167889 -0.000821948 3.24928e-22)
(-0.00781725 0.000861608 0)
(-0.0124405 -0.000904269 0)
(-0.00343598 0.000911905 1.92998e-23)
(-0.00784363 -0.000973417 3.60137e-23)
(0.00110644 0.000948157 0)
(-0.00305183 -0.00102835 -2.19383e-23)
(0.0057588 0.000970139 0)
(0.00187974 -0.0010686 2.5039e-23)
(0.0104701 0.000978139 -2.68923e-23)
(0.00689592 -0.00109426 0)
(0.0151909 0.000972902 0)
(0.0119431 -0.0011059 0)
(0.0198745 0.00095557 1.06775e-21)
(0.0169707 -0.00110457 -3.26811e-23)
(0.0244783 0.000927611 -2.08891e-21)
(0.0219322 -0.00109167 1.13304e-21)
(0.0289646 0.000890734 1.01634e-21)
(0.0267864 -0.00106888 -1.06289e-21)
(0.033301 0.000846836 -7.13638e-23)
(0.0314981 -0.00103812 1.06619e-21)
(0.0374619 0.000797914 -5.87084e-22)
(0.0360389 -0.00100146 -5.2018e-22)
(0.041428 0.000746064 -4.19742e-23)
(0.0403878 -0.000961082 -6.98594e-22)
(0.0451873 0.000693402 5.19155e-22)
(0.0445313 -0.000919244 -7.81131e-23)
(0.0487358 0.000642208 0)
(0.0484646 -0.00087841 7.82166e-23)
(0.0520773 0.000594845 6.59438e-22)
(0.0521918 -0.000841185 0)
(0.0552256 0.000554411 -5.86195e-22)
(0.0557273 -0.000811009 7.72993e-23)
(0.0582064 0.000524677 -7.12177e-23)
(0.0590989 -0.000792142 -7.50571e-23)
(0.061058 0.000513455 -2.02505e-22)
(0.0623484 -0.000793241 -7.28894e-23)
(0.0638542 0.00053238 7.78203e-23)
(0.0655558 -0.000827217 0)
(0.0666731 0.000622452 2.612e-22)
(0.0688059 -0.000938464 -6.6859e-23)
(0.0698046 0.000837017 1.16415e-22)
(0.0724141 -0.00118358 -1.22095e-22)
(0.0732958 0.00151333 -3.2497e-23)
(0.0764226 -0.0019234 1.22231e-22)
(0.0791088 0.00289807 0)
(0.0829629 -0.00338607 1.06281e-22)
(0.0853353 0.00914882 -2.36243e-23)
(0.0158776 0.00664689 3.08528e-23)
(-0.00218282 -0.00532751 -6.76029e-23)
(-0.00191398 0.00645896 9.67419e-23)
(0.0170729 -0.0069005 -1.00607e-22)
(0.0898674 -0.00998392 2.25348e-23)
)
;
        pressure        nonuniform List<scalar> 
168
(
-0.399472
-0.42236
-0.400102
-0.422988
-0.400798
-0.423687
-0.401481
-0.424378
-0.40208
-0.424989
-0.402518
-0.425443
-0.402744
-0.425688
-0.40273
-0.425699
-0.402461
-0.425458
-0.40193
-0.424961
-0.401135
-0.424204
-0.40007
-0.423184
-0.398726
-0.421892
-0.397088
-0.420314
-0.395133
-0.418427
-0.392829
-0.416202
-0.390138
-0.4136
-0.387011
-0.410577
-0.383405
-0.407087
-0.379252
-0.403069
-0.37456
-0.398529
-0.36913
-0.393272
-0.36326
-0.387597
-0.356098
-0.380681
-0.348929
-0.37377
-0.341333
-0.366463
-0.333661
-0.359104
-0.325783
-0.351568
-0.317845
-0.344003
-0.309827
-0.336387
-0.301789
-0.32878
-0.293731
-0.321178
-0.285666
-0.313591
-0.277579
-0.305995
-0.269444
-0.298358
-0.261215
-0.29062
-0.25283
-0.282708
-0.24421
-0.274527
-0.235262
-0.265965
-0.225881
-0.256898
-0.215955
-0.247194
-0.205369
-0.236716
-0.194011
-0.225332
-0.18178
-0.212919
-0.168588
-0.199371
-0.15437
-0.184608
-0.139087
-0.16858
-0.122733
-0.15127
-0.105335
-0.132705
-0.0869576
-0.112949
-0.0677006
-0.0921118
-0.0476993
-0.0703407
-0.0271201
-0.0478206
-0.00615633
-0.0247676
0.014978
-0.00142267
0.0360549
0.0219562
0.0568395
0.0451019
0.0770977
0.0677471
0.0966032
0.0896316
0.115144
0.110511
0.132528
0.130161
0.148587
0.148385
0.16318
0.165017
0.176197
0.179923
0.187557
0.193003
0.197206
0.204189
0.205122
0.213445
0.211303
0.220761
0.215772
0.226154
0.218567
0.229659
0.219741
0.231325
0.219354
0.231214
0.217468
0.229387
0.214147
0.225908
0.209443
0.220827
0.203388
0.214172
0.196005
0.205961
0.187176
0.196054
0.176984
0.184528
0.16425
0.170077
0.150749
0.15459
0.124813
0.0798062
0.121325
0.120786
0.0750578
0.125341
)
;
        value           nonuniform List<vector> 
168
(
(2.81136e-09 1.98621e-09 -6.95653e-28)
(-7.91609e-10 8.6246e-10 -7.68422e-28)
(3.19205e-09 2.91225e-09 8.97962e-28)
(-1.22204e-09 1.1285e-09 2.13297e-26)
(3.94856e-09 3.72101e-09 1.64606e-26)
(-1.87977e-09 1.43909e-09 1.73254e-26)
(5.02755e-09 4.44519e-09 -1.49266e-27)
(-2.69479e-09 1.82434e-09 -1.48274e-27)
(6.3911e-09 5.21493e-09 -1.52528e-26)
(-3.64307e-09 2.35948e-09 1.60296e-26)
(7.98272e-09 6.10815e-09 1.46303e-26)
(-4.69947e-09 3.09734e-09 -1.3493e-26)
(9.77531e-09 7.20923e-09 2.73766e-26)
(-5.85377e-09 4.09712e-09 -1.54139e-26)
(1.17514e-08 8.59278e-09 -3.78988e-26)
(-7.10115e-09 5.4176e-09 -1.37894e-26)
(1.39061e-08 1.03366e-08 5.5106e-28)
(-8.44303e-09 7.12407e-09 7.75028e-28)
(1.62411e-08 1.25228e-08 9.28979e-27)
(-9.88414e-09 9.28996e-09 1.28419e-26)
(1.87628e-08 1.52424e-08 4.36953e-28)
(-1.14316e-08 1.20001e-08 -1.18022e-27)
(2.14806e-08 1.85984e-08 -1.36729e-28)
(-1.30935e-08 1.53531e-08 -1.69068e-26)
(2.44055e-08 2.27089e-08 8.00224e-27)
(-1.48786e-08 1.9464e-08 2.37113e-26)
(2.75495e-08 2.77094e-08 -1.37011e-26)
(-1.67953e-08 2.44665e-08 -7.27123e-27)
(3.09246e-08 3.3756e-08 3.66943e-29)
(-1.88516e-08 3.05156e-08 4.6479e-28)
(3.4543e-08 4.10282e-08 5.22736e-27)
(-2.10545e-08 3.77901e-08 6.53166e-27)
(3.84166e-08 4.97317e-08 1.97537e-28)
(-2.34102e-08 4.64955e-08 -9.57073e-28)
(4.25566e-08 6.01021e-08 -2.2103e-28)
(-2.59239e-08 5.68675e-08 -3.9184e-27)
(4.69741e-08 7.24084e-08 -6.70886e-27)
(-2.85996e-08 6.91748e-08 1.0564e-27)
(5.16794e-08 8.69573e-08 5.75022e-27)
(-3.14401e-08 8.37242e-08 5.82013e-27)
(5.66825e-08 1.04098e-07 2.53022e-28)
(-3.44473e-08 1.00864e-07 5.8878e-27)
(6.19928e-08 1.24227e-07 -9.85336e-28)
(-3.76213e-08 1.20991e-07 -8.24542e-28)
(6.78321e-08 1.48692e-07 1.05678e-27)
(-4.1088e-08 1.45452e-07 -1.09183e-26)
(7.39895e-08 1.77371e-07 -1.62669e-27)
(-4.4712e-08 1.74122e-07 7.41504e-27)
(8.00457e-08 2.08491e-07 3.46902e-27)
(-4.82383e-08 2.05229e-07 -3.79882e-27)
(8.59938e-08 2.42001e-07 -3.93937e-27)
(-5.16582e-08 2.38722e-07 -3.41585e-27)
(9.18264e-08 2.77846e-07 4.50385e-28)
(-5.49623e-08 2.74545e-07 3.44032e-27)
(9.75352e-08 3.15965e-07 2.95295e-27)
(-5.81408e-08 3.12639e-07 -3.78631e-27)
(1.03111e-07 3.56295e-07 -7.09193e-28)
(-6.11837e-08 3.52941e-07 6.88653e-27)
(1.08545e-07 3.98764e-07 -8.32136e-27)
(-6.40813e-08 3.95382e-07 -6.24426e-27)
(1.13828e-07 4.43297e-07 3.40531e-27)
(-6.68246e-08 4.39886e-07 2.92307e-27)
(1.18948e-07 4.89811e-07 1.9114e-27)
(-6.9406e-08 4.86377e-07 5.09867e-28)
(1.23898e-07 5.38222e-07 -8.71581e-28)
(-7.18192e-08 5.34769e-07 3.58589e-27)
(1.28668e-07 5.88439e-07 8.69812e-29)
(-7.40601e-08 5.84978e-07 -3.15084e-27)
(1.33249e-07 6.40368e-07 -1.69478e-27)
(-7.61266e-08 6.36912e-07 5.88519e-28)
(1.37632e-07 6.93914e-07 -1.35377e-27)
(-7.8019e-08 6.90479e-07 -7.70442e-28)
(1.41811e-07 7.48977e-07 -3.52183e-28)
(-7.97398e-08 7.45584e-07 5.5046e-28)
(1.45777e-07 8.05461e-07 8.01718e-29)
(-8.12938e-08 8.02135e-07 7.33794e-28)
(1.49525e-07 8.63266e-07 7.64928e-28)
(-8.26874e-08 8.60034e-07 2.56311e-28)
(1.53048e-07 9.22295e-07 -7.11556e-28)
(-8.39287e-08 9.19187e-07 -2.48052e-27)
(1.56339e-07 9.82451e-07 -1.06857e-28)
(-8.50268e-08 9.795e-07 1.28472e-27)
(1.59393e-07 1.04364e-06 1.34297e-27)
(-8.5992e-08 1.04088e-06 -1.39526e-27)
(1.62205e-07 1.10576e-06 1.1578e-27)
(-8.68349e-08 1.10323e-06 8.9667e-28)
(1.64771e-07 1.16873e-06 -1.23979e-27)
(-8.75671e-08 1.16646e-06 -4.64562e-28)
(1.6709e-07 1.23246e-06 -4.54894e-29)
(-8.82003e-08 1.23048e-06 3.93524e-28)
(1.69161e-07 1.29686e-06 -8.47419e-28)
(-8.87466e-08 1.29519e-06 -1.03505e-27)
(1.70988e-07 1.36184e-06 -6.0852e-28)
(-8.92185e-08 1.36052e-06 3.43552e-28)
(1.72574e-07 1.42733e-06 6.47044e-29)
(-8.96286e-08 1.42638e-06 2.66959e-27)
(1.73929e-07 1.49327e-06 5.69638e-28)
(-8.99894e-08 1.49268e-06 3.20229e-27)
(1.75063e-07 1.55957e-06 3.47434e-27)
(-9.03127e-08 1.55937e-06 -4.00973e-27)
(1.75991e-07 1.62619e-06 9.31245e-29)
(-9.06099e-08 1.62636e-06 -7.07217e-28)
(1.76728e-07 1.69306e-06 -3.6619e-27)
(-9.0891e-08 1.69361e-06 3.90249e-27)
(1.77291e-07 1.76015e-06 -3.89683e-27)
(-9.11649e-08 1.76105e-06 -3.99999e-30)
(1.77701e-07 1.82742e-06 -6.90119e-27)
(-9.14385e-08 1.82865e-06 -6.55563e-27)
(1.77976e-07 1.89483e-06 1.02305e-27)
(-9.17169e-08 1.89636e-06 -5.68389e-27)
(1.78138e-07 1.96237e-06 1.27702e-28)
(-9.20036e-08 1.96416e-06 1.87153e-27)
(1.78205e-07 2.03e-06 3.24087e-27)
(-9.23002e-08 2.03202e-06 6.38652e-27)
(1.78199e-07 2.09771e-06 -7.48669e-27)
(-9.2607e-08 2.09992e-06 -3.73385e-27)
(1.78138e-07 2.1655e-06 -6.12828e-28)
(-9.2923e-08 2.16785e-06 2.07479e-30)
(1.7804e-07 2.23336e-06 3.6279e-27)
(-9.32467e-08 2.2358e-06 7.21971e-30)
(1.77923e-07 2.30128e-06 3.73592e-27)
(-9.35758e-08 2.30377e-06 -3.73055e-27)
(1.77801e-07 2.36925e-06 -3.43905e-28)
(-9.3908e-08 2.37176e-06 -3.88715e-27)
(1.7769e-07 2.43729e-06 8.62837e-27)
(-9.42411e-08 2.43978e-06 3.37795e-27)
(1.776e-07 2.5054e-06 -4.44137e-27)
(-9.45729e-08 2.50783e-06 -1.34729e-26)
(1.77542e-07 2.57357e-06 1.3118e-26)
(-9.49014e-08 2.57593e-06 2.31537e-26)
(1.77523e-07 2.64183e-06 -9.75739e-27)
(-9.52245e-08 2.64408e-06 -1.82194e-26)
(1.77548e-07 2.71018e-06 9.03424e-27)
(-9.55401e-08 2.71231e-06 8.21279e-27)
(1.77619e-07 2.77863e-06 3.93615e-28)
(-9.58459e-08 2.78062e-06 -1.18585e-28)
(1.77734e-07 2.84718e-06 1.73413e-26)
(-9.6139e-08 2.84903e-06 -2.85826e-26)
(1.7789e-07 2.91585e-06 2.41023e-28)
(-9.64159e-08 2.91756e-06 8.85361e-27)
(1.7808e-07 2.98464e-06 -9.36471e-27)
(-9.66727e-08 2.98621e-06 1.05207e-26)
(1.78296e-07 3.05356e-06 -2.00058e-26)
(-9.69051e-08 3.05498e-06 1.09779e-26)
(1.78528e-07 3.1226e-06 6.65573e-28)
(-9.71083e-08 3.12389e-06 8.23434e-28)
(1.78765e-07 3.19176e-06 -1.08541e-26)
(-9.72778e-08 3.19292e-06 1.03464e-26)
(1.78997e-07 3.26101e-06 2.11131e-26)
(-9.74099e-08 3.26207e-06 -1.10189e-26)
(1.79213e-07 3.33036e-06 -3.61815e-28)
(-9.75019e-08 3.33132e-06 2.1608e-26)
(1.79406e-07 3.39979e-06 1.11394e-26)
(-9.75525e-08 3.40065e-06 -1.16514e-26)
(1.7957e-07 3.46926e-06 -1.10193e-26)
(-9.75643e-08 3.47003e-06 -1.15731e-26)
(1.79703e-07 3.53877e-06 1.1855e-26)
(-9.75398e-08 3.53946e-06 1.13133e-26)
(1.79788e-07 3.60829e-06 1.56311e-28)
(-9.75022e-08 3.6089e-06 -2.3731e-26)
(1.79813e-07 3.67776e-06 -3.55634e-26)
(-9.74732e-08 3.67838e-06 -1.1969e-26)
(1.79667e-07 3.7471e-06 -1.24444e-26)
(1.45294e-07 3.78164e-06 4.31652e-28)
(7.62635e-08 3.78205e-06 -6.6778e-29)
(6.9566e-09 3.78242e-06 9.09005e-29)
(-6.26423e-08 3.78286e-06 -5.06341e-29)
(-9.75862e-08 3.74797e-06 4.42395e-30)
)
;
    }
    frontAndBackPlanes
    {
        type            empty;
    }
}


// ************************************************************************* //
