/*--------------------------------*- C++ -*----------------------------------*\
| =========                 |                                                 |
| \\      /  F ield         | OpenFOAM Extend Project: Open source CFD        |
|  \\    /   O peration     | Version:  1.6-ext                               |
|   \\  /    A nd           | Web:      www.extend-project.de                 |
|    \\/     M anipulation  |                                                 |
\*---------------------------------------------------------------------------*/
FoamFile
{
    version     2.0;
    format      ascii;
    class       volVectorField;
    location    "0.55";
    object      DU_0;
}
// * * * * * * * * * * * * * * * * * * * * * * * * * * * * * * * * * * * * * //

dimensions      [0 1 0 0 0 0 0];

internalField   nonuniform List<vector> 
328
(
(-3.5746e-10 -1.04573e-09 0)
(-3.80741e-10 -4.54922e-10 0)
(-5.26006e-10 1.22298e-10 0)
(-1.01872e-09 1.71766e-09 0)
(-1.06833e-09 -2.67315e-09 0)
(-1.24946e-09 -1.1549e-09 0)
(-1.7561e-09 5.24741e-10 0)
(-3.12169e-09 4.39494e-09 0)
(-1.88267e-09 -3.79454e-09 0)
(-2.40207e-09 -1.62932e-09 0)
(-3.42766e-09 1.08744e-09 0)
(-5.56876e-09 6.45312e-09 0)
(-2.76159e-09 -4.42169e-09 0)
(-3.75876e-09 -1.82746e-09 0)
(-5.38187e-09 1.77912e-09 0)
(-8.2437e-09 8.06752e-09 0)
(-3.72079e-09 -4.59101e-09 0)
(-5.34008e-09 -1.72039e-09 0)
(-7.64378e-09 2.60022e-09 0)
(-1.11777e-08 9.43821e-09 0)
(-4.75792e-09 -4.32033e-09 0)
(-7.11835e-09 -1.27461e-09 0)
(-1.01637e-08 3.57692e-09 0)
(-1.43564e-08 1.0728e-08 0)
(-5.88155e-09 -3.61359e-09 0)
(-9.08924e-09 -4.5909e-10 0)
(-1.29363e-08 4.75744e-09 0)
(-1.77951e-08 1.20799e-08 0)
(-7.09775e-09 -2.45633e-09 0)
(-1.12406e-08 7.64354e-10 0)
(-1.5946e-08 6.20635e-09 0)
(-2.15048e-08 1.36173e-08 0)
(-8.41475e-09 -8.17774e-10 0)
(-1.35686e-08 2.44185e-09 0)
(-1.91907e-08 8.00196e-09 0)
(-2.55035e-08 1.54546e-08 0)
(-9.84032e-09 1.35044e-09 0)
(-1.60707e-08 4.63183e-09 0)
(-2.26711e-08 1.02337e-08 0)
(-2.98096e-08 1.77022e-08 0)
(-1.13826e-08 4.11433e-09 0)
(-1.87502e-08 7.40691e-09 0)
(-2.63943e-08 1.30018e-08 0)
(-3.4443e-08 2.04716e-08 0)
(-1.30497e-08 7.55866e-09 0)
(-2.16134e-08 1.08563e-08 0)
(-3.03716e-08 1.64171e-08 0)
(-3.94242e-08 2.388e-08 0)
(-1.48503e-08 1.17879e-08 0)
(-2.46708e-08 1.50874e-08 0)
(-3.46183e-08 2.06029e-08 0)
(-4.47743e-08 2.80537e-08 0)
(-1.67936e-08 1.69276e-08 0)
(-2.79362e-08 2.02277e-08 0)
(-3.91532e-08 2.56967e-08 0)
(-5.05153e-08 3.31316e-08 0)
(-1.88895e-08 2.31259e-08 0)
(-3.14257e-08 2.64265e-08 0)
(-4.39972e-08 3.18533e-08 0)
(-5.66699e-08 3.92691e-08 0)
(-2.11493e-08 3.05553e-08 0)
(-3.51574e-08 3.3857e-08 0)
(-4.91734e-08 3.92479e-08 0)
(-6.32618e-08 4.66412e-08 0)
(-2.35851e-08 3.94154e-08 0)
(-3.91509e-08 4.2719e-08 0)
(-5.47059e-08 4.808e-08 0)
(-7.03159e-08 5.54473e-08 0)
(-2.62107e-08 4.99356e-08 0)
(-4.34268e-08 5.32419e-08 0)
(-6.062e-08 5.85776e-08 0)
(-7.78586e-08 6.59149e-08 0)
(-2.90406e-08 6.23792e-08 0)
(-4.80065e-08 6.56885e-08 0)
(-6.69414e-08 7.10014e-08 0)
(-8.59171e-08 7.83041e-08 0)
(-3.2091e-08 7.70469e-08 0)
(-5.29118e-08 8.03595e-08 0)
(-7.36961e-08 8.565e-08 0)
(-9.45197e-08 9.29128e-08 0)
(-3.53791e-08 9.42828e-08 0)
(-5.81651e-08 9.75981e-08 0)
(-8.09104e-08 1.02865e-07 0)
(-1.03695e-07 1.10082e-07 0)
(-3.89235e-08 1.14479e-07 0)
(-6.37892e-08 1.17796e-07 0)
(-8.86103e-08 1.23037e-07 0)
(-1.13472e-07 1.30201e-07 0)
(-4.28903e-08 1.3898e-07 0)
(-7.00368e-08 1.42298e-07 0)
(-9.71348e-08 1.47508e-07 0)
(-1.24275e-07 1.54608e-07 0)
(-4.71598e-08 1.67651e-07 0)
(-7.67036e-08 1.7097e-07 0)
(-1.06194e-07 1.76142e-07 0)
(-1.35729e-07 1.83168e-07 0)
(-5.14525e-08 1.98724e-07 0)
(-8.33454e-08 2.02042e-07 0)
(-1.15179e-07 2.07173e-07 0)
(-1.4706e-07 2.14117e-07 0)
(-5.57687e-08 2.3215e-07 0)
(-8.99591e-08 2.35465e-07 0)
(-1.24084e-07 2.40551e-07 0)
(-1.58259e-07 2.47407e-07 0)
(-6.01093e-08 2.67874e-07 0)
(-9.65412e-08 2.71187e-07 0)
(-1.32901e-07 2.76224e-07 0)
(-1.69312e-07 2.82984e-07 0)
(-6.44757e-08 3.05838e-07 0)
(-1.03089e-07 3.09148e-07 0)
(-1.41622e-07 3.14134e-07 0)
(-1.80208e-07 3.20791e-07 0)
(-6.88698e-08 3.4598e-07 0)
(-1.096e-07 3.49286e-07 0)
(-1.50241e-07 3.54216e-07 0)
(-1.90935e-07 3.60764e-07 0)
(-7.32938e-08 3.88228e-07 0)
(-1.16071e-07 3.91532e-07 0)
(-1.58751e-07 3.96404e-07 0)
(-2.01484e-07 4.02837e-07 0)
(-7.775e-08 4.32511e-07 0)
(-1.22502e-07 4.35812e-07 0)
(-1.67147e-07 4.40623e-07 0)
(-2.11843e-07 4.46935e-07 0)
(-8.22407e-08 4.78747e-07 0)
(-1.2889e-07 4.82048e-07 0)
(-1.75423e-07 4.86796e-07 0)
(-2.22005e-07 4.92982e-07 0)
(-8.67684e-08 5.26856e-07 0)
(-1.35234e-07 5.30157e-07 0)
(-1.83576e-07 5.34841e-07 0)
(-2.31961e-07 5.40899e-07 0)
(-9.13354e-08 5.7675e-07 0)
(-1.41535e-07 5.80052e-07 0)
(-1.91601e-07 5.84672e-07 0)
(-2.41707e-07 5.90599e-07 0)
(-9.59441e-08 6.2834e-07 0)
(-1.47792e-07 6.31646e-07 0)
(-1.99497e-07 6.36202e-07 0)
(-2.51238e-07 6.41999e-07 0)
(-1.00597e-07 6.81537e-07 0)
(-1.54005e-07 6.84849e-07 0)
(-2.07264e-07 6.89343e-07 0)
(-2.60551e-07 6.95009e-07 0)
(-1.05296e-07 7.36248e-07 0)
(-1.60177e-07 7.3957e-07 0)
(-2.14901e-07 7.44004e-07 0)
(-2.69648e-07 7.49541e-07 0)
(-1.10045e-07 7.92382e-07 0)
(-1.66309e-07 7.95718e-07 0)
(-2.22409e-07 8.00095e-07 0)
(-2.78527e-07 8.05507e-07 0)
(-1.14845e-07 8.49847e-07 0)
(-1.72403e-07 8.53201e-07 0)
(-2.29791e-07 8.57526e-07 0)
(-2.87191e-07 8.62817e-07 0)
(-1.19701e-07 9.08551e-07 0)
(-1.78463e-07 9.11928e-07 0)
(-2.37049e-07 9.16207e-07 0)
(-2.95644e-07 9.21381e-07 0)
(-1.24616e-07 9.68403e-07 0)
(-1.8449e-07 9.71809e-07 0)
(-2.44187e-07 9.76046e-07 0)
(-3.03888e-07 9.8111e-07 0)
(-1.29593e-07 1.02931e-06 0)
(-1.9049e-07 1.03275e-06 0)
(-2.51208e-07 1.03695e-06 0)
(-3.11929e-07 1.04191e-06 0)
(-1.34634e-07 1.09119e-06 0)
(-1.96464e-07 1.09467e-06 0)
(-2.58117e-07 1.09884e-06 0)
(-3.19771e-07 1.1037e-06 0)
(-1.39741e-07 1.15394e-06 0)
(-2.02417e-07 1.15746e-06 0)
(-2.64918e-07 1.16161e-06 0)
(-3.2742e-07 1.16638e-06 0)
(-1.44915e-07 1.21748e-06 0)
(-2.08349e-07 1.22105e-06 0)
(-2.71614e-07 1.22518e-06 0)
(-3.34881e-07 1.22987e-06 0)
(-1.50154e-07 1.28172e-06 0)
(-2.14261e-07 1.28534e-06 0)
(-2.78208e-07 1.28945e-06 0)
(-3.4216e-07 1.29407e-06 0)
(-1.55455e-07 1.34658e-06 0)
(-2.20155e-07 1.35025e-06 0)
(-2.84705e-07 1.35435e-06 0)
(-3.49263e-07 1.3589e-06 0)
(-1.60813e-07 1.41198e-06 0)
(-2.26027e-07 1.4157e-06 0)
(-2.91105e-07 1.41979e-06 0)
(-3.56194e-07 1.42428e-06 0)
(-1.66219e-07 1.47784e-06 0)
(-2.31875e-07 1.4816e-06 0)
(-2.97409e-07 1.48569e-06 0)
(-3.6296e-07 1.49012e-06 0)
(-1.71664e-07 1.54409e-06 0)
(-2.37693e-07 1.5479e-06 0)
(-3.03617e-07 1.55198e-06 0)
(-3.69563e-07 1.55635e-06 0)
(-1.77134e-07 1.61067e-06 0)
(-2.43475e-07 1.61452e-06 0)
(-3.09727e-07 1.61859e-06 0)
(-3.76008e-07 1.6229e-06 0)
(-1.82616e-07 1.67753e-06 0)
(-2.49211e-07 1.6814e-06 0)
(-3.15736e-07 1.68545e-06 0)
(-3.82296e-07 1.68971e-06 0)
(-1.88092e-07 1.7446e-06 0)
(-2.54892e-07 1.74849e-06 0)
(-3.2164e-07 1.75252e-06 0)
(-3.88429e-07 1.75672e-06 0)
(-1.93545e-07 1.81185e-06 0)
(-2.60505e-07 1.81574e-06 0)
(-3.27431e-07 1.81974e-06 0)
(-3.94406e-07 1.82388e-06 0)
(-1.98956e-07 1.87924e-06 0)
(-2.66038e-07 1.88312e-06 0)
(-3.33104e-07 1.88708e-06 0)
(-4.00225e-07 1.89115e-06 0)
(-2.04305e-07 1.94673e-06 0)
(-2.71476e-07 1.95058e-06 0)
(-3.3865e-07 1.95449e-06 0)
(-4.05885e-07 1.95849e-06 0)
(-2.0957e-07 2.0143e-06 0)
(-2.76805e-07 2.0181e-06 0)
(-3.44059e-07 2.02195e-06 0)
(-4.11379e-07 2.02586e-06 0)
(-2.14733e-07 2.08192e-06 0)
(-2.8201e-07 2.08566e-06 0)
(-3.49322e-07 2.08944e-06 0)
(-4.16705e-07 2.09326e-06 0)
(-2.19773e-07 2.14957e-06 0)
(-2.87077e-07 2.15324e-06 0)
(-3.54429e-07 2.15693e-06 0)
(-4.21857e-07 2.16066e-06 0)
(-2.24671e-07 2.21726e-06 0)
(-2.91989e-07 2.22083e-06 0)
(-3.5937e-07 2.22442e-06 0)
(-4.26828e-07 2.22804e-06 0)
(-2.29408e-07 2.28495e-06 0)
(-2.96735e-07 2.28842e-06 0)
(-3.64134e-07 2.2919e-06 0)
(-4.31613e-07 2.2954e-06 0)
(-2.33968e-07 2.35266e-06 0)
(-3.013e-07 2.35601e-06 0)
(-3.68712e-07 2.35937e-06 0)
(-4.36207e-07 2.36274e-06 0)
(-2.38336e-07 2.42038e-06 0)
(-3.05672e-07 2.42359e-06 0)
(-3.73096e-07 2.42682e-06 0)
(-4.40603e-07 2.43005e-06 0)
(-2.42497e-07 2.48811e-06 0)
(-3.09842e-07 2.49118e-06 0)
(-3.77278e-07 2.49425e-06 0)
(-4.44798e-07 2.49735e-06 0)
(-2.46442e-07 2.55585e-06 0)
(-3.13799e-07 2.55876e-06 0)
(-3.81251e-07 2.56169e-06 0)
(-4.48785e-07 2.56463e-06 0)
(-2.5016e-07 2.62361e-06 0)
(-3.17536e-07 2.62636e-06 0)
(-3.85009e-07 2.62913e-06 0)
(-4.52562e-07 2.63191e-06 0)
(-2.53644e-07 2.6914e-06 0)
(-3.21048e-07 2.69398e-06 0)
(-3.88548e-07 2.69658e-06 0)
(-4.56126e-07 2.69921e-06 0)
(-2.56891e-07 2.75922e-06 0)
(-3.24331e-07 2.76163e-06 0)
(-3.91864e-07 2.76406e-06 0)
(-4.59473e-07 2.76652e-06 0)
(-2.59896e-07 2.82709e-06 0)
(-3.27381e-07 2.82932e-06 0)
(-3.94955e-07 2.83158e-06 0)
(-4.62602e-07 2.83388e-06 0)
(-2.62661e-07 2.89501e-06 0)
(-3.30199e-07 2.89706e-06 0)
(-3.97819e-07 2.89915e-06 0)
(-4.6551e-07 2.90128e-06 0)
(-2.65187e-07 2.96299e-06 0)
(-3.32785e-07 2.96487e-06 0)
(-4.00457e-07 2.96679e-06 0)
(-4.68197e-07 2.96874e-06 0)
(-2.67479e-07 3.03104e-06 0)
(-3.35141e-07 3.03274e-06 0)
(-4.02869e-07 3.03449e-06 0)
(-4.70661e-07 3.03628e-06 0)
(-2.69542e-07 3.09916e-06 0)
(-3.3727e-07 3.1007e-06 0)
(-4.05056e-07 3.10228e-06 0)
(-4.72902e-07 3.10389e-06 0)
(-2.71383e-07 3.16736e-06 0)
(-3.39178e-07 3.16873e-06 0)
(-4.0702e-07 3.17014e-06 0)
(-4.74919e-07 3.17158e-06 0)
(-2.73011e-07 3.23563e-06 0)
(-3.40868e-07 3.23683e-06 0)
(-4.08763e-07 3.23808e-06 0)
(-4.76712e-07 3.23936e-06 0)
(-2.74433e-07 3.30396e-06 0)
(-3.42347e-07 3.30501e-06 0)
(-4.1029e-07 3.30609e-06 0)
(-4.78282e-07 3.3072e-06 0)
(-2.75658e-07 3.37234e-06 0)
(-3.43619e-07 3.37324e-06 0)
(-4.11603e-07 3.37416e-06 0)
(-4.79632e-07 3.37511e-06 0)
(-2.76694e-07 3.44076e-06 0)
(-3.44689e-07 3.44152e-06 0)
(-4.12704e-07 3.44228e-06 0)
(-4.80765e-07 3.44307e-06 0)
(-2.77546e-07 3.50922e-06 0)
(-3.45556e-07 3.50982e-06 0)
(-4.13594e-07 3.51043e-06 0)
(-4.81684e-07 3.51106e-06 0)
(-2.78222e-07 3.57768e-06 0)
(-3.46221e-07 3.57814e-06 0)
(-4.14273e-07 3.57858e-06 0)
(-4.82399e-07 3.57906e-06 0)
(-2.7872e-07 3.6461e-06 0)
(-3.46676e-07 3.64644e-06 0)
(-4.14736e-07 3.64675e-06 0)
(-4.82916e-07 3.6471e-06 0)
(-2.79068e-07 3.71435e-06 0)
(-3.46963e-07 3.71466e-06 0)
(-4.15024e-07 3.71494e-06 0)
(-4.83267e-07 3.71526e-06 0)
)
;

boundaryField
{
    plateFix
    {
        type            fixedDisplacement;
        value           uniform (0 0 0);
    }
    plate
    {
        type            solidTraction;
        nonLinear       updatedLagrangian;
        traction        uniform (0 0 0);
        pressure        uniform 0;
        value           nonuniform List<vector> 
168
(
(-4.91688e-09 -2.24414e-09 -1.47262e-26)
(-8.57608e-09 5.19355e-09 -1.47955e-26)
(-4.27676e-09 -3.88138e-09 1.81945e-26)
(-8.69594e-09 7.99293e-09 1.4168e-26)
(-3.78713e-09 -5.04199e-09 -3.13913e-27)
(-9.60304e-09 1.0219e-08 3.16098e-27)
(-3.57149e-09 -5.6812e-09 -2.62107e-26)
(-1.12995e-08 1.19027e-08 -9.48019e-28)
(-3.62739e-09 -5.8644e-09 1.40055e-26)
(-1.37134e-08 1.33287e-08 -1.34234e-26)
(-3.89954e-09 -5.60352e-09 -2.36241e-27)
(-1.66991e-08 1.4649e-08 2.77628e-26)
(-4.35418e-09 -4.90754e-09 -1.03735e-26)
(-2.01793e-08 1.60242e-08 -2.76999e-26)
(-4.96181e-09 -3.76099e-09 2.38158e-26)
(-2.4097e-08 1.75785e-08 1.3316e-26)
(-5.7037e-09 -2.13334e-09 -2.41964e-26)
(-2.84255e-08 1.94297e-08 1.37651e-26)
(-6.56621e-09 2.44325e-11 2.79085e-27)
(-3.3153e-08 2.1688e-08 -2.98517e-27)
(-7.54103e-09 2.77867e-09 8.03384e-27)
(-3.82798e-08 2.44653e-08 9.57273e-28)
(-8.62359e-09 6.2144e-09 -6.98963e-27)
(-4.38133e-08 2.78781e-08 -8.75322e-28)
(-9.81279e-09 1.04361e-08 6.19834e-27)
(-4.97669e-08 3.20527e-08 -1.49337e-26)
(-1.11106e-08 1.55692e-08 -4.53258e-29)
(-5.61578e-08 3.71278e-08 5.89431e-27)
(-1.25217e-08 2.17615e-08 6.35429e-27)
(-6.30067e-08 4.32588e-08 7.08571e-27)
(-1.40531e-08 2.91854e-08 -6.13877e-27)
(-7.03372e-08 5.06211e-08 -7.38136e-28)
(-1.57141e-08 3.80402e-08 6.15859e-28)
(-7.81754e-08 5.9414e-08 -1.25561e-26)
(-1.75155e-08 4.85553e-08 -1.04937e-30)
(-8.65493e-08 6.98651e-08 8.10581e-27)
(-1.94696e-08 6.09937e-08 7.1056e-27)
(-9.54888e-08 8.22347e-08 -1.95609e-27)
(-2.159e-08 7.56565e-08 -5.70545e-27)
(-1.05025e-07 9.68206e-08 -5.09699e-27)
(-2.38918e-08 9.28873e-08 4.45412e-27)
(-1.15189e-07 1.13963e-07 -1.39364e-27)
(-2.63913e-08 1.13078e-07 -7.49432e-27)
(-1.26012e-07 1.34051e-07 5.58207e-27)
(-2.92121e-08 1.37574e-07 -3.761e-28)
(-1.37962e-07 1.58422e-07 -6.68895e-28)
(-3.22749e-08 1.66241e-07 4.17767e-27)
(-1.50623e-07 1.86939e-07 2.83694e-27)
(-3.53836e-08 1.97309e-07 2.63193e-27)
(-1.63138e-07 2.17842e-07 -3.79431e-27)
(-3.85406e-08 2.3073e-07 -3.82513e-29)
(-1.75494e-07 2.51082e-07 3.656e-27)
(-4.17493e-08 2.6645e-07 -3.21018e-27)
(-1.87676e-07 2.86604e-07 -3.47294e-27)
(-4.50136e-08 3.04409e-07 -3.48425e-27)
(-1.99669e-07 3.24353e-07 -3.91664e-28)
(-4.83377e-08 3.44545e-07 -2.11871e-27)
(-2.11461e-07 3.64263e-07 -3.17504e-27)
(-5.17263e-08 3.86787e-07 8.78549e-27)
(-2.23037e-07 4.0627e-07 6.73272e-27)
(-5.51841e-08 4.31063e-07 -2.19009e-27)
(-2.34385e-07 4.50299e-07 -4.71454e-27)
(-5.87156e-08 4.77292e-07 5.69696e-28)
(-2.45495e-07 4.96275e-07 1.92118e-27)
(-6.23251e-08 5.25392e-07 -2.42998e-27)
(-2.56357e-07 5.44117e-07 -1.76484e-27)
(-6.60164e-08 5.75276e-07 -1.01402e-28)
(-2.66965e-07 5.93743e-07 1.14768e-27)
(-6.97931e-08 6.26855e-07 1.43721e-27)
(-2.77313e-07 6.45067e-07 -6.658e-29)
(-7.36583e-08 6.80039e-07 -2.71739e-27)
(-2.87399e-07 6.98002e-07 1.20599e-27)
(-7.76152e-08 7.34736e-07 3.10347e-27)
(-2.97222e-07 7.5246e-07 1.22892e-28)
(-8.16667e-08 7.90853e-07 -5.91448e-29)
(-3.06784e-07 8.08354e-07 -7.26819e-28)
(-8.58163e-08 8.48299e-07 -3.77224e-27)
(-3.16086e-07 8.65594e-07 -3.87972e-27)
(-9.00674e-08 9.06982e-07 2.09635e-28)
(-3.25132e-07 9.24091e-07 3.73911e-27)
(-9.44236e-08 9.6681e-07 -1.72018e-28)
(-3.33926e-07 9.83755e-07 -1.00681e-28)
(-9.88882e-08 1.02769e-06 1.76346e-27)
(-3.42472e-07 1.0445e-06 -1.10767e-27)
(-1.03464e-07 1.08954e-06 -2.02424e-27)
(-3.50777e-07 1.10623e-06 1.30348e-27)
(-1.08152e-07 1.15226e-06 1.81757e-27)
(-3.58845e-07 1.16886e-06 -8.64525e-28)
(-1.12953e-07 1.21576e-06 -2.06969e-27)
(-3.66684e-07 1.2323e-06 1.33047e-27)
(-1.17864e-07 1.27997e-06 2.04712e-30)
(-3.743e-07 1.29645e-06 1.65524e-28)
(-1.22881e-07 1.3448e-06 1.10801e-27)
(-3.81699e-07 1.36124e-06 -1.1932e-27)
(-1.27996e-07 1.41016e-06 -4.85081e-28)
(-3.8889e-07 1.42658e-06 -2.27539e-29)
(-1.33199e-07 1.47599e-06 -7.46828e-29)
(-3.95879e-07 1.49238e-06 -9.43547e-29)
(-1.38476e-07 1.54221e-06 -1.14274e-27)
(-4.02674e-07 1.55858e-06 -1.08096e-27)
(-1.43812e-07 1.60877e-06 4.70379e-28)
(-4.09279e-07 1.6251e-06 -2.62028e-27)
(-1.49189e-07 1.67561e-06 6.52215e-27)
(-4.157e-07 1.69187e-06 -2.97182e-28)
(-1.54587e-07 1.74267e-06 -5.64588e-27)
(-4.21941e-07 1.75885e-06 2.60094e-28)
(-1.59984e-07 1.80992e-06 -9.79744e-28)
(-4.28005e-07 1.82597e-06 2.91261e-27)
(-1.65358e-07 1.87731e-06 -1.06623e-28)
(-4.33892e-07 1.8932e-06 -3.07822e-27)
(-1.70684e-07 1.94481e-06 -2.13793e-27)
(-4.39602e-07 1.9605e-06 6.43194e-27)
(-1.7594e-07 2.01239e-06 -7.78416e-28)
(-4.45135e-07 2.02784e-06 -3.16876e-27)
(-1.81102e-07 2.08004e-06 6.98487e-28)
(-4.50488e-07 2.09519e-06 3.94967e-27)
(-1.86148e-07 2.14774e-06 4.35295e-27)
(-4.55658e-07 2.16253e-06 -6.81364e-28)
(-1.91056e-07 2.21546e-06 -2.23056e-28)
(-4.60641e-07 2.22986e-06 2.97256e-27)
(-1.95805e-07 2.28321e-06 4.46965e-28)
(-4.65433e-07 2.29716e-06 -3.77861e-27)
(-2.00376e-07 2.35098e-06 3.37126e-28)
(-4.70031e-07 2.36443e-06 7.62729e-27)
(-2.04753e-07 2.41877e-06 -8.25082e-27)
(-4.74431e-07 2.43167e-06 3.57289e-27)
(-2.0892e-07 2.48657e-06 1.24654e-26)
(-4.78629e-07 2.4989e-06 4.55084e-27)
(-2.12865e-07 2.55439e-06 4.06383e-27)
(-4.82621e-07 2.56611e-06 -9.03518e-27)
(-2.16577e-07 2.62223e-06 1.71535e-26)
(-4.86406e-07 2.63331e-06 8.44173e-28)
(-2.2005e-07 2.69011e-06 -8.50326e-27)
(-4.89981e-07 2.70053e-06 2.74505e-26)
(-2.23277e-07 2.75802e-06 -6.14232e-28)
(-4.93343e-07 2.76776e-06 8.61346e-27)
(-2.26257e-07 2.82598e-06 -8.46412e-27)
(-4.96491e-07 2.83503e-06 -8.68657e-28)
(-2.2899e-07 2.89399e-06 1.83513e-26)
(-4.99423e-07 2.90235e-06 -1.93199e-26)
(-2.31478e-07 2.96206e-06 -2.86774e-26)
(-5.02136e-07 2.96973e-06 1.98775e-26)
(-2.33728e-07 3.0302e-06 -9.64772e-27)
(-5.0463e-07 3.03718e-06 -2.0083e-26)
(-2.35746e-07 3.0984e-06 1.02692e-26)
(-5.069e-07 3.1047e-06 9.1438e-27)
(-2.37542e-07 3.16668e-06 -1.04589e-26)
(-5.08947e-07 3.17231e-06 -1.0256e-26)
(-2.39126e-07 3.23503e-06 2.8777e-28)
(-5.10767e-07 3.24e-06 5.78394e-28)
(-2.40508e-07 3.30344e-06 -1.04881e-26)
(-5.12359e-07 3.30776e-06 1.04255e-26)
(-2.41699e-07 3.37189e-06 2.21283e-26)
(-5.13724e-07 3.37559e-06 2.38132e-28)
(-2.42707e-07 3.44039e-06 -6.86212e-29)
(-5.14863e-07 3.44347e-06 -1.22216e-26)
(-2.43539e-07 3.50891e-06 -1.1558e-26)
(-5.15781e-07 3.51138e-06 2.26079e-28)
(-2.44212e-07 3.57744e-06 6.28659e-29)
(-5.16495e-07 3.57931e-06 -1.18103e-26)
(-2.44755e-07 3.64593e-06 1.1909e-26)
(-5.17039e-07 3.64728e-06 1.16161e-26)
(-2.45266e-07 3.71424e-06 -3.60971e-26)
(-2.79173e-07 3.74823e-06 -2.66761e-27)
(-3.47068e-07 3.74869e-06 -1.20065e-27)
(-4.15126e-07 3.74908e-06 -3.63828e-29)
(-4.83372e-07 3.74957e-06 -1.10129e-28)
(-5.17523e-07 3.71538e-06 -3.29922e-28)
)
;
    }
    frontAndBackPlanes
    {
        type            empty;
    }
}


// ************************************************************************* //
