/*--------------------------------*- C++ -*----------------------------------*\
| =========                 |                                                 |
| \\      /  F ield         | OpenFOAM Extend Project: Open source CFD        |
|  \\    /   O peration     | Version:  1.6-ext                               |
|   \\  /    A nd           | Web:      www.extend-project.de                 |
|    \\/     M anipulation  |                                                 |
\*---------------------------------------------------------------------------*/
FoamFile
{
    version     2.0;
    format      ascii;
    class       volVectorField;
    location    "0.55";
    object      DV;
}
// * * * * * * * * * * * * * * * * * * * * * * * * * * * * * * * * * * * * * //

dimensions      [0 1 -1 0 0 0 0];

internalField   nonuniform List<vector> 
328
(
(8.08671e-07 1.64256e-06 0)
(5.32925e-07 3.59916e-07 0)
(5.33908e-07 -3.35786e-07 0)
(8.18795e-07 -1.68684e-06 0)
(2.46074e-06 4.21033e-06 0)
(1.76724e-06 1.05168e-06 0)
(1.7741e-06 -9.59933e-07 0)
(2.4899e-06 -4.2596e-06 0)
(4.37286e-06 6.12128e-06 0)
(3.42883e-06 1.71031e-06 0)
(3.44819e-06 -1.52893e-06 0)
(4.42313e-06 -6.10001e-06 0)
(6.454e-06 7.48534e-06 0)
(5.37581e-06 2.28639e-06 0)
(5.40759e-06 -1.99709e-06 0)
(6.52665e-06 -7.34792e-06 0)
(8.73075e-06 8.4388e-06 0)
(7.63416e-06 2.76119e-06 0)
(7.67858e-06 -2.35284e-06 0)
(8.82863e-06 -8.16492e-06 0)
(1.11927e-05 9.08413e-06 0)
(1.01574e-05 3.12678e-06 0)
(1.02137e-05 -2.59851e-06 0)
(1.132e-05 -8.67279e-06 0)
(1.38534e-05 9.5033e-06 0)
(1.29395e-05 3.38868e-06 0)
(1.30076e-05 -2.75156e-06 0)
(1.40157e-05 -8.96923e-06 0)
(1.67226e-05 9.75554e-06 0)
(1.59636e-05 3.55705e-06 0)
(1.60438e-05 -2.83483e-06 0)
(1.69263e-05 -9.12639e-06 0)
(1.98162e-05 9.88515e-06 0)
(1.92266e-05 3.64526e-06 0)
(1.93196e-05 -2.87398e-06 0)
(2.00675e-05 -9.19964e-06 0)
(2.31502e-05 9.92398e-06 0)
(2.27277e-05 3.66642e-06 0)
(2.28345e-05 -2.8929e-06 0)
(2.34541e-05 -9.22974e-06 0)
(2.67426e-05 9.89527e-06 0)
(2.64737e-05 3.63255e-06 0)
(2.65949e-05 -2.91187e-06 0)
(2.71016e-05 -9.24644e-06 0)
(3.06122e-05 9.81585e-06 0)
(3.04759e-05 3.55396e-06 0)
(3.06115e-05 -2.94582e-06 0)
(3.10255e-05 -9.2698e-06 0)
(3.47789e-05 9.69835e-06 0)
(3.47506e-05 3.4396e-06 0)
(3.48993e-05 -3.00385e-06 0)
(3.5241e-05 -9.31176e-06 0)
(3.92639e-05 9.55278e-06 0)
(3.93178e-05 3.29769e-06 0)
(3.94771e-05 -3.08914e-06 0)
(3.97642e-05 -9.3772e-06 0)
(4.40889e-05 9.38793e-06 0)
(4.42005e-05 3.1364e-06 0)
(4.43662e-05 -3.19954e-06 0)
(4.46118e-05 -9.46497e-06 0)
(4.92771e-05 9.21229e-06 0)
(4.94238e-05 2.96445e-06 0)
(4.95902e-05 -3.32839e-06 0)
(4.98024e-05 -9.56921e-06 0)
(5.48523e-05 9.03458e-06 0)
(5.50142e-05 2.79136e-06 0)
(5.51744e-05 -3.46573e-06 0)
(5.53561e-05 -9.68049e-06 0)
(6.08387e-05 8.86386e-06 0)
(6.09989e-05 2.62727e-06 0)
(6.11452e-05 -3.59961e-06 0)
(6.12957e-05 -9.78732e-06 0)
(6.72611e-05 8.70919e-06 0)
(6.74059e-05 2.48241e-06 0)
(6.75303e-05 -3.71751e-06 0)
(6.76461e-05 -9.8774e-06 0)
(7.41446e-05 8.57906e-06 0)
(7.42631e-05 2.36636e-06 0)
(7.4358e-05 -3.8076e-06 0)
(7.44347e-05 -9.93892e-06 0)
(8.15144e-05 8.48082e-06 0)
(8.15987e-05 2.28734e-06 0)
(8.16576e-05 -3.85974e-06 0)
(8.16907e-05 -9.96143e-06 0)
(8.93962e-05 8.42025e-06 0)
(8.94409e-05 2.25172e-06 0)
(8.94589e-05 -3.86605e-06 0)
(8.9445e-05 -9.93645e-06 0)
(9.81376e-05 8.40088e-06 0)
(9.8138e-05 2.26456e-06 0)
(9.81098e-05 -3.81904e-06 0)
(9.8045e-05 -9.85434e-06 0)
(0.000107444 8.43172e-06 0)
(0.000107399 2.33414e-06 0)
(0.000107323 -3.7105e-06 0)
(0.000107207 -9.70694e-06 0)
(0.000116693 8.50674e-06 0)
(0.000116606 2.45145e-06 0)
(0.000116485 -3.55156e-06 0)
(0.00011632 -9.50699e-06 0)
(0.000125881 8.62035e-06 0)
(0.000125754 2.61039e-06 0)
(0.000125591 -3.3483e-06 0)
(0.000125381 -9.26022e-06 0)
(0.000135001 8.7687e-06 0)
(0.000134838 2.80677e-06 0)
(0.000134635 -3.10493e-06 0)
(0.000134384 -8.97068e-06 0)
(0.000144051 8.94921e-06 0)
(0.000143854 3.03788e-06 0)
(0.000143614 -2.82422e-06 0)
(0.000143323 -8.64115e-06 0)
(0.000153027 9.16008e-06 0)
(0.000152798 3.30191e-06 0)
(0.000152523 -2.50803e-06 0)
(0.000152194 -8.27355e-06 0)
(0.000161924 9.39999e-06 0)
(0.000161665 3.59757e-06 0)
(0.000161357 -2.15768e-06 0)
(0.000160993 -7.86933e-06 0)
(0.000170738 9.66772e-06 0)
(0.000170451 3.92374e-06 0)
(0.000170113 -1.7743e-06 0)
(0.000169716 -7.42974e-06 0)
(0.000179465 9.962e-06 0)
(0.000179152 4.27925e-06 0)
(0.000178786 -1.3591e-06 0)
(0.000178358 -6.95613e-06 0)
(0.0001881 1.02812e-05 0)
(0.000187764 4.66253e-06 0)
(0.000187373 -9.13637e-07 0)
(0.000186916 -6.45018e-06 0)
(0.000196639 1.06229e-05 0)
(0.000196283 5.07131e-06 0)
(0.000195869 -4.40188e-07 0)
(0.000195386 -5.91423e-06 0)
(0.000205076 1.0984e-05 0)
(0.000204704 5.50237e-06 0)
(0.000204271 5.80105e-08 0)
(0.000203767 -5.35154e-06 0)
(0.000213407 1.13601e-05 0)
(0.000213022 5.9513e-06 0)
(0.000212575 5.76567e-07 0)
(0.000212054 -4.76646e-06 0)
(0.000221627 1.17458e-05 0)
(0.000221235 6.4126e-06 0)
(0.000220779 1.10996e-06 0)
(0.000220245 -4.16441e-06 0)
(0.000229731 1.21348e-05 0)
(0.000229337 6.87986e-06 0)
(0.000228876 1.65178e-06 0)
(0.000228336 -3.55163e-06 0)
(0.000237716 1.25204e-05 0)
(0.000237326 7.34618e-06 0)
(0.000236865 2.19515e-06 0)
(0.000236323 -2.93482e-06 0)
(0.000245578 1.28961e-05 0)
(0.000245196 7.80478e-06 0)
(0.000244741 2.73327e-06 0)
(0.000244202 -2.32055e-06 0)
(0.000253314 1.32558e-05 0)
(0.000252945 8.24945e-06 0)
(0.000252499 3.25995e-06 0)
(0.000251968 -1.71484e-06 0)
(0.00026092 1.35946e-05 0)
(0.000260568 8.67507e-06 0)
(0.000260135 3.77005e-06 0)
(0.000259616 -1.12267e-06 0)
(0.000268396 1.39086e-05 0)
(0.000268063 9.07784e-06 0)
(0.000267646 4.25981e-06 0)
(0.000267141 -5.47711e-07 0)
(0.000275738 1.41956e-05 0)
(0.000275425 9.45538e-06 0)
(0.000275026 4.72683e-06 0)
(0.000274538 7.69842e-09 0)
(0.000282943 1.44545e-05 0)
(0.000282652 9.80666e-06 0)
(0.000282271 5.17011e-06 0)
(0.0002818 5.42544e-07 0)
(0.00029001 1.46854e-05 0)
(0.00028974 1.01318e-05 0)
(0.000289378 5.58978e-06 0)
(0.000288924 1.05694e-06 0)
(0.000296935 1.48893e-05 0)
(0.000296686 1.04319e-05 0)
(0.000296341 5.98693e-06 0)
(0.000295904 1.55193e-06 0)
(0.000303716 1.5068e-05 0)
(0.000303486 1.07088e-05 0)
(0.000303157 6.3634e-06 0)
(0.000302734 2.0293e-06 0)
(0.00031035 1.52239e-05 0)
(0.000310136 1.0965e-05 0)
(0.000309821 6.72163e-06 0)
(0.000309411 2.49145e-06 0)
(0.000316835 1.53599e-05 0)
(0.000316634 1.12034e-05 0)
(0.00031633 7.06462e-06 0)
(0.000315929 2.94129e-06 0)
(0.000323166 1.54797e-05 0)
(0.000322976 1.14276e-05 0)
(0.000322679 7.39587e-06 0)
(0.000322284 3.38228e-06 0)
(0.000329342 1.55871e-05 0)
(0.000329158 1.16416e-05 0)
(0.000328865 7.71942e-06 0)
(0.000328471 3.81837e-06 0)
(0.00033536 1.56869e-05 0)
(0.000335177 1.185e-05 0)
(0.000334883 8.0398e-06 0)
(0.000334487 4.25397e-06 0)
(0.000341216 1.57839e-05 0)
(0.000341029 1.20579e-05 0)
(0.00034073 8.36198e-06 0)
(0.000340328 4.69393e-06 0)
(0.000346908 1.58837e-05 0)
(0.000346713 1.22707e-05 0)
(0.000346403 8.69129e-06 0)
(0.000345988 5.14344e-06 0)
(0.000352432 1.59919e-05 0)
(0.000352223 1.24939e-05 0)
(0.000351898 9.03324e-06 0)
(0.000351467 5.60785e-06 0)
(0.000357786 1.6114e-05 0)
(0.000357558 1.27333e-05 0)
(0.000357213 9.39342e-06 0)
(0.000356759 6.09257e-06 0)
(0.000362966 1.62559e-05 0)
(0.000362715 1.29944e-05 0)
(0.000362344 9.7773e-06 0)
(0.000361862 6.60293e-06 0)
(0.00036797 1.64228e-05 0)
(0.000367689 1.32826e-05 0)
(0.000367288 1.01902e-05 0)
(0.000366773 7.14405e-06 0)
(0.000372794 1.66201e-05 0)
(0.00037248 1.3603e-05 0)
(0.000372043 1.06371e-05 0)
(0.000371491 7.72083e-06 0)
(0.000377436 1.68527e-05 0)
(0.000377083 1.39607e-05 0)
(0.000376606 1.11229e-05 0)
(0.000376013 8.33793e-06 0)
(0.000381892 1.71254e-05 0)
(0.000381497 1.43603e-05 0)
(0.000380976 1.16522e-05 0)
(0.000380336 8.99978e-06 0)
(0.000386161 1.74427e-05 0)
(0.000385719 1.48063e-05 0)
(0.000385149 1.22293e-05 0)
(0.00038446 9.71063e-06 0)
(0.000390239 1.78091e-05 0)
(0.000389746 1.5303e-05 0)
(0.000389125 1.28585e-05 0)
(0.000388383 1.04745e-05 0)
(0.000394123 1.82286e-05 0)
(0.000393577 1.58546e-05 0)
(0.000392902 1.35437e-05 0)
(0.000392103 1.12952e-05 0)
(0.000397812 1.87049e-05 0)
(0.00039721 1.64647e-05 0)
(0.000396478 1.42887e-05 0)
(0.00039562 1.21761e-05 0)
(0.000401302 1.92411e-05 0)
(0.000400642 1.71363e-05 0)
(0.000399851 1.50962e-05 0)
(0.000398934 1.31198e-05 0)
(0.000404589 1.98394e-05 0)
(0.000403871 1.78716e-05 0)
(0.000403022 1.59681e-05 0)
(0.000402045 1.41279e-05 0)
(0.000407672 2.05004e-05 0)
(0.000406897 1.86712e-05 0)
(0.00040599 1.69051e-05 0)
(0.000404953 1.52006e-05 0)
(0.000410548 2.12233e-05 0)
(0.000409717 1.95341e-05 0)
(0.000408754 1.79057e-05 0)
(0.00040766 1.63363e-05 0)
(0.000413214 2.20054e-05 0)
(0.00041233 2.04572e-05 0)
(0.000411315 1.89667e-05 0)
(0.000410168 1.75316e-05 0)
(0.000415669 2.28419e-05 0)
(0.000414737 2.14355e-05 0)
(0.000413674 2.00827e-05 0)
(0.000412479 1.87805e-05 0)
(0.000417911 2.37263e-05 0)
(0.000416936 2.24617e-05 0)
(0.000415831 2.12461e-05 0)
(0.000414594 2.00756e-05 0)
(0.000419941 2.46507e-05 0)
(0.00041893 2.35276e-05 0)
(0.000417788 2.24482e-05 0)
(0.000416517 2.14076e-05 0)
(0.000421761 2.56065e-05 0)
(0.000420719 2.46238e-05 0)
(0.000419547 2.36793e-05 0)
(0.000418249 2.27669e-05 0)
(0.000423371 2.65851e-05 0)
(0.000422305 2.57413e-05 0)
(0.00042111 2.49303e-05 0)
(0.000419793 2.41443e-05 0)
(0.000424777 2.75789e-05 0)
(0.000423692 2.68724e-05 0)
(0.00042248 2.61932e-05 0)
(0.00042115 2.5532e-05 0)
(0.000425979 2.85819e-05 0)
(0.00042488 2.80111e-05 0)
(0.000423656 2.74624e-05 0)
(0.000422321 2.6925e-05 0)
(0.000426982 2.95887e-05 0)
(0.000425872 2.91527e-05 0)
(0.000424642 2.87342e-05 0)
(0.000423305 2.83206e-05 0)
(0.000427784 3.05974e-05 0)
(0.000426664 3.02954e-05 0)
(0.000425431 3.00052e-05 0)
(0.000424098 2.9714e-05 0)
(0.000428388 3.1609e-05 0)
(0.000427261 3.14405e-05 0)
(0.000426029 3.12748e-05 0)
(0.000424703 3.11057e-05 0)
(0.000428769 3.26666e-05 0)
(0.00042764 3.26058e-05 0)
(0.000426408 3.25456e-05 0)
(0.000425084 3.24852e-05 0)
)
;

boundaryField
{
    plateFix
    {
        type            calculated;
        value           uniform (0 0 0);
    }
    plate
    {
        type            calculated;
        value           nonuniform List<vector> 
168
(
(7.97816e-06 4.39532e-06 2.99492e-23)
(8.24552e-06 -4.65331e-06 3.65936e-23)
(7.67213e-06 7.03307e-06 -4.43304e-23)
(7.72494e-06 -7.2576e-06 -4.82244e-24)
(7.92218e-06 9.06011e-06 4.01589e-23)
(7.85486e-06 -9.19001e-06 1.85105e-23)
(8.78929e-06 1.04669e-05 5.59738e-23)
(8.67828e-06 -1.04627e-05 -7.57308e-24)
(1.0226e-05 1.14558e-05 -5.85593e-23)
(1.01277e-05 -1.13028e-05 5.90001e-23)
(1.21137e-05 1.21199e-05 2.71666e-23)
(1.20673e-05 -1.18205e-05 -9.0383e-23)
(1.43877e-05 1.25545e-05 6.06732e-23)
(1.44207e-05 -1.21256e-05 5.32212e-23)
(1.69981e-05 1.28193e-05 -1.05297e-22)
(1.71304e-05 -1.22895e-05 -5.53391e-23)
(1.99202e-05 1.29608e-05 6.17081e-23)
(2.01651e-05 -1.23687e-05 -2.62812e-23)
(2.31418e-05 1.30111e-05 2.31503e-24)
(2.35059e-05 -1.2403e-05 2.09738e-23)
(2.66616e-05 1.29932e-05 -1.81725e-23)
(2.71445e-05 -1.24213e-05 -4.26888e-24)
(3.04858e-05 1.29239e-05 2.05049e-23)
(3.10791e-05 -1.24432e-05 -1.65029e-23)
(3.4626e-05 1.28154e-05 -1.01556e-23)
(3.53129e-05 -1.24804e-05 6.96646e-23)
(3.90981e-05 1.26777e-05 -1.47327e-23)
(3.98535e-05 -1.25378e-05 -2.86747e-23)
(4.39209e-05 1.25192e-05 -1.77945e-23)
(4.47128e-05 -1.26148e-05 -1.11352e-23)
(4.91154e-05 1.23483e-05 2.25496e-23)
(4.99064e-05 -1.2706e-05 6.87095e-24)
(5.4704e-05 1.21732e-05 -2.9363e-24)
(5.54539e-05 -1.28029e-05 2.56113e-23)
(6.07095e-05 1.20027e-05 3.90662e-24)
(6.13786e-05 -1.28944e-05 -2.22248e-23)
(6.71554e-05 1.18454e-05 -2.72559e-23)
(6.77073e-05 -1.29687e-05 5.16456e-24)
(7.40648e-05 1.17096e-05 1.99299e-23)
(7.44694e-05 -1.30144e-05 2.17612e-23)
(8.14615e-05 1.16024e-05 -1.06133e-23)
(8.16966e-05 -1.30207e-05 1.25642e-23)
(8.93698e-05 1.15296e-05 1.79787e-23)
(8.94215e-05 -1.2979e-05 -1.73559e-23)
(9.81369e-05 1.1494e-05 2.14928e-24)
(9.7992e-05 -1.28784e-05 -1.31911e-23)
(0.000107467 1.15053e-05 -1.37449e-23)
(0.000107126 -1.27107e-05 1.84452e-24)
(0.000116738 1.15588e-05 1.41706e-24)
(0.000116215 -1.24894e-05 5.87416e-24)
(0.000125943 1.16496e-05 -7.37826e-24)
(0.000125253 -1.222e-05 -1.22572e-23)
(0.000135081 1.17737e-05 8.71045e-24)
(0.000134235 -1.19066e-05 1.01504e-23)
(0.000144146 1.19287e-05 1.16219e-23)
(0.000143155 -1.15519e-05 -3.14744e-24)
(0.000153137 1.21129e-05 4.09878e-24)
(0.000152007 -1.11578e-05 1.64449e-23)
(0.000162048 1.23247e-05 -3.07425e-23)
(0.000160788 -1.0726e-05 -2.11918e-23)
(0.000170876 1.2563e-05 8.71048e-24)
(0.000169493 -1.02577e-05 1.22066e-23)
(0.000179616 1.28264e-05 5.62618e-25)
(0.000178118 -9.75445e-06 -2.27433e-24)
(0.000188263 1.31132e-05 4.77074e-24)
(0.00018666 -9.21791e-06 8.55419e-24)
(0.000196813 1.3421e-05 3.90035e-25)
(0.000195116 -8.65051e-06 -7.12177e-24)
(0.000205259 1.37466e-05 -6.05802e-24)
(0.000203484 -8.05553e-06 1.01053e-25)
(0.000213596 1.40857e-05 5.32597e-24)
(0.000211761 -7.4373e-06 -3.71007e-24)
(0.000221819 1.44329e-05 -8.2118e-24)
(0.000219945 -6.80116e-06 1.0254e-24)
(0.000229924 1.4782e-05 -1.86846e-25)
(0.000228032 -6.15324e-06 1.82763e-24)
(0.000237906 1.51266e-05 1.00837e-23)
(0.000236018 -5.50007e-06 9.47019e-24)
(0.000245762 1.54602e-05 -1.51928e-24)
(0.000243899 -4.84811e-06 -1.16576e-23)
(0.000253489 1.57769e-05 -2.80369e-25)
(0.00025167 -4.2032e-06 1.97515e-24)
(0.000261085 1.60718e-05 -2.11941e-24)
(0.000259326 -3.57024e-06 2.81567e-25)
(0.000268548 1.63412e-05 6.43735e-24)
(0.00026686 -2.95283e-06 -1.8524e-24)
(0.000275877 1.65828e-05 -6.07255e-24)
(0.000274266 -2.35329e-06 8.52294e-25)
(0.000283069 1.67955e-05 4.35026e-24)
(0.000281539 -1.77262e-06 -1.88637e-24)
(0.000290123 1.69793e-05 -1.09226e-24)
(0.000288673 -1.21073e-06 -1.28663e-24)
(0.000297036 1.71352e-05 -2.91889e-24)
(0.000295662 -6.66603e-07 3.48487e-24)
(0.000303806 1.72649e-05 -5.11741e-26)
(0.0003025 -1.38496e-07 4.11051e-24)
(0.00031043 1.73709e-05 -6.16492e-25)
(0.000309184 3.75957e-07 3.56552e-24)
(0.000316906 1.7456e-05 8.32211e-24)
(0.000315707 8.79655e-07 -3.29803e-24)
(0.000323232 1.75238e-05 -9.95512e-25)
(0.000322066 1.37601e-06 3.70708e-24)
(0.000329404 1.75783e-05 -1.87229e-23)
(0.000328255 1.86891e-06 6.7757e-24)
(0.000335419 1.76239e-05 6.90967e-24)
(0.00033427 2.36273e-06 1.14231e-24)
(0.000341276 1.76659e-05 -6.44298e-24)
(0.000340107 2.86225e-06 -1.71164e-23)
(0.000346971 1.77095e-05 1.3773e-24)
(0.000345762 3.37256e-06 -5.39246e-24)
(0.000352502 1.77603e-05 4.45311e-24)
(0.000351231 3.89891e-06 -6.63022e-24)
(0.000357865 1.78241e-05 8.29981e-24)
(0.000356511 4.44664e-06 1.23282e-23)
(0.000363057 1.79065e-05 -1.44986e-23)
(0.0003616 5.02096e-06 -1.21997e-23)
(0.000368075 1.8013e-05 -9.83259e-24)
(0.000366495 5.62692e-06 -5.56357e-26)
(0.000372916 1.81487e-05 7.84174e-24)
(0.000371194 6.26932e-06 -4.24619e-24)
(0.000377576 1.83188e-05 8.35769e-25)
(0.000375694 6.95276e-06 1.75004e-24)
(0.000382054 1.85281e-05 6.74484e-25)
(0.000379994 7.68157e-06 -2.34795e-23)
(0.000386346 1.8781e-05 3.10593e-23)
(0.000384092 8.45992e-06 -1.93946e-24)
(0.00039045 1.90822e-05 -3.33247e-23)
(0.000387987 9.29174e-06 -2.70744e-23)
(0.000394362 1.94355e-05 1.61157e-23)
(0.000391678 1.01807e-05 5.67362e-23)
(0.000398079 1.98449e-05 -4.91699e-23)
(0.000395164 1.11299e-05 -3.29503e-23)
(0.000401599 2.03131e-05 2.61918e-23)
(0.000398446 1.2142e-05 -3.81848e-23)
(0.000404917 2.08425e-05 6.15981e-24)
(0.000401525 1.32182e-05 -1.70341e-23)
(0.00040803 2.14337e-05 4.30874e-23)
(0.000404401 1.43587e-05 -4.1681e-23)
(0.000410936 2.20861e-05 -3.63009e-23)
(0.000407078 1.55616e-05 5.68099e-23)
(0.000413629 2.27969e-05 4.8128e-23)
(0.000409558 1.68233e-05 -2.40098e-23)
(0.000416108 2.35616e-05 -5.92779e-24)
(0.000411844 1.81379e-05 5.15129e-23)
(0.000418372 2.43741e-05 -1.46207e-23)
(0.00041394 1.94976e-05 -1.75391e-23)
(0.000420419 2.52266e-05 4.84382e-24)
(0.000415847 2.08934e-05 3.60389e-23)
(0.000422251 2.61108e-05 3.61473e-23)
(0.000417568 2.23156e-05 -2.31591e-23)
(0.00042387 2.70186e-05 2.57205e-23)
(0.000419105 2.37551e-05 1.72607e-23)
(0.000425281 2.79421e-05 -2.21295e-23)
(0.000420458 2.52044e-05 -1.23898e-23)
(0.000426487 2.88754e-05 -1.63648e-23)
(0.000421627 2.66588e-05 1.30297e-23)
(0.000427492 2.98121e-05 5.23228e-23)
(0.000422611 2.81173e-05 1.07221e-23)
(0.000428295 3.07506e-05 -1.73723e-23)
(0.000423404 2.95731e-05 -1.2139e-23)
(0.000428912 3.16878e-05 -6.54912e-23)
(0.000424011 3.10285e-05 -2.94163e-23)
(0.000429326 3.26816e-05 4.76284e-23)
(0.000428876 3.32345e-05 4.85706e-24)
(0.000427756 3.31992e-05 1.11202e-24)
(0.00042652 3.31853e-05 1.69281e-25)
(0.000425184 3.31516e-05 -1.38392e-24)
(0.000424408 3.24711e-05 6.78002e-24)
)
;
    }
    frontAndBackPlanes
    {
        type            empty;
    }
}


// ************************************************************************* //
