/*--------------------------------*- C++ -*----------------------------------*\
| =========                 |                                                 |
| \\      /  F ield         | OpenFOAM Extend Project: Open source CFD        |
|  \\    /   O peration     | Version:  1.6-ext                               |
|   \\  /    A nd           | Web:      www.extend-project.de                 |
|    \\/     M anipulation  |                                                 |
\*---------------------------------------------------------------------------*/
FoamFile
{
    version     2.0;
    format      ascii;
    class       volVectorField;
    location    "0.55";
    object      DV_0;
}
// * * * * * * * * * * * * * * * * * * * * * * * * * * * * * * * * * * * * * //

dimensions      [0 1 -1 0 0 0 0];

internalField   nonuniform List<vector> 
328
(
(7.83729e-07 1.47799e-06 0)
(5.41361e-07 3.37505e-07 0)
(5.48298e-07 -2.39524e-07 0)
(7.8358e-07 -1.27327e-06 0)
(2.3891e-06 3.81739e-06 0)
(1.77722e-06 9.79695e-07 0)
(1.79266e-06 -7.33616e-07 0)
(2.40372e-06 -3.35816e-06 0)
(4.24731e-06 5.57386e-06 0)
(3.40538e-06 1.5741e-06 0)
(3.42147e-06 -1.23552e-06 0)
(4.29003e-06 -5.0069e-06 0)
(6.27353e-06 6.82431e-06 0)
(5.30642e-06 2.07198e-06 0)
(5.32634e-06 -1.70422e-06 0)
(6.35538e-06 -6.25354e-06 0)
(8.49589e-06 7.68193e-06 0)
(7.50787e-06 2.45241e-06 0)
(7.53431e-06 -2.12232e-06 0)
(8.62721e-06 -7.18733e-06 0)
(1.09071e-05 8.23563e-06 0)
(9.97263e-06 2.70803e-06 0)
(1.00101e-05 -2.48191e-06 0)
(1.10954e-05 -7.88252e-06 0)
(1.35227e-05 8.56036e-06 0)
(1.26982e-05 2.84616e-06 0)
(1.275e-05 -2.78659e-06 0)
(1.37719e-05 -8.40332e-06 0)
(1.63544e-05 8.7138e-06 0)
(1.5672e-05 2.88126e-06 0)
(1.57404e-05 -3.04447e-06 0)
(1.66644e-05 -8.79884e-06 0)
(1.94194e-05 8.74276e-06 0)
(1.88924e-05 2.83292e-06 0)
(1.8978e-05 -3.26646e-06 0)
(1.97856e-05 -9.10746e-06 0)
(2.27344e-05 8.68428e-06 0)
(2.23595e-05 2.72193e-06 0)
(2.24614e-05 -3.46292e-06 0)
(2.31482e-05 -9.35741e-06 0)
(2.63173e-05 8.56823e-06 0)
(2.60797e-05 2.5686e-06 0)
(2.61953e-05 -3.64237e-06 0)
(2.67666e-05 -9.56882e-06 0)
(3.01856e-05 8.4182e-06 0)
(3.0063e-05 2.39115e-06 0)
(3.01885e-05 -3.81033e-06 0)
(3.06556e-05 -9.75485e-06 0)
(3.43573e-05 8.25252e-06 0)
(3.43239e-05 2.20494e-06 0)
(3.44544e-05 -3.96938e-06 0)
(3.48314e-05 -9.92311e-06 0)
(3.88502e-05 8.08495e-06 0)
(3.88802e-05 2.02215e-06 0)
(3.90103e-05 -4.11938e-06 0)
(3.93111e-05 -1.00768e-05 0)
(4.36827e-05 7.92524e-06 0)
(4.37523e-05 1.85181e-06 0)
(4.38765e-05 -4.25842e-06 0)
(4.41136e-05 -1.02163e-05 0)
(4.88739e-05 7.77985e-06 0)
(4.89629e-05 1.70001e-06 0)
(4.90759e-05 -4.38354e-06 0)
(4.92593e-05 -1.03398e-05 0)
(5.44435e-05 7.65248e-06 0)
(5.45364e-05 1.57034e-06 0)
(5.46332e-05 -4.4917e-06 0)
(5.47706e-05 -1.04449e-05 0)
(6.04131e-05 7.5448e-06 0)
(6.04982e-05 1.46436e-06 0)
(6.05746e-05 -4.58032e-06 0)
(6.06712e-05 -1.05292e-05 0)
(6.68053e-05 7.45705e-06 0)
(6.68746e-05 1.38226e-06 0)
(6.69274e-05 -4.64751e-06 0)
(6.69864e-05 -1.05904e-05 0)
(7.36449e-05 7.38893e-06 0)
(7.3693e-05 1.3236e-06 0)
(7.37194e-05 -4.69191e-06 0)
(7.37427e-05 -1.06265e-05 0)
(8.09583e-05 7.34035e-06 0)
(8.09816e-05 1.28825e-06 0)
(8.09792e-05 -4.71203e-06 0)
(8.09674e-05 -1.06356e-05 0)
(8.87735e-05 7.31252e-06 0)
(8.87692e-05 1.27738e-06 0)
(8.87359e-05 -4.70548e-06 0)
(8.86883e-05 -1.06144e-05 0)
(9.74388e-05 7.30865e-06 0)
(9.74027e-05 1.295e-06 0)
(9.73347e-05 -4.66649e-06 0)
(9.72483e-05 -1.05561e-05 0)
(0.000106667 7.33838e-06 0)
(0.000106596 1.35057e-06 0)
(0.00010649 -4.58528e-06 0)
(0.000106362 -1.04504e-05 0)
(0.000115844 7.4037e-06 0)
(0.000115736 1.44482e-06 0)
(0.000115591 -4.46224e-06 0)
(0.00011542 -1.02992e-05 0)
(0.000124965 7.50705e-06 0)
(0.00012482 1.58041e-06 0)
(0.000124635 -4.2946e-06 0)
(0.000124421 -1.01e-05 0)
(0.000134027 7.65044e-06 0)
(0.000133844 1.75956e-06 0)
(0.000133618 -4.08013e-06 0)
(0.000133359 -9.8509e-06 0)
(0.000143025 7.83507e-06 0)
(0.000142803 1.9836e-06 0)
(0.000142537 -3.8175e-06 0)
(0.000142232 -9.55071e-06 0)
(0.000151952 8.06114e-06 0)
(0.000151692 2.25284e-06 0)
(0.000151386 -3.50643e-06 0)
(0.000151037 -9.19935e-06 0)
(0.000160804 8.32782e-06 0)
(0.000160508 2.5665e-06 0)
(0.000160163 -3.14771e-06 0)
(0.000159771 -8.79769e-06 0)
(0.000169575 8.63317e-06 0)
(0.000169245 2.92266e-06 0)
(0.000168864 -2.74328e-06 0)
(0.000168432 -8.34775e-06 0)
(0.00017826 8.97409e-06 0)
(0.000177898 3.31817e-06 0)
(0.000177484 -2.29633e-06 0)
(0.000177015 -7.85271e-06 0)
(0.000186852 9.34617e-06 0)
(0.000186464 3.74852e-06 0)
(0.000186022 -1.81138e-06 0)
(0.00018552 -7.31708e-06 0)
(0.000195347 9.74373e-06 0)
(0.000194938 4.20787e-06 0)
(0.000194471 -1.29434e-06 0)
(0.000193942 -6.74669e-06 0)
(0.00020374 1.016e-05 0)
(0.000203315 4.68921e-06 0)
(0.00020283 -7.52255e-07 0)
(0.000202279 -6.14847e-06 0)
(0.000212025 1.05874e-05 0)
(0.000211591 5.18481e-06 0)
(0.000211093 -1.9293e-07 0)
(0.000210527 -5.53009e-06 0)
(0.0002202 1.10184e-05 0)
(0.000219762 5.68673e-06 0)
(0.000219257 3.75642e-07 0)
(0.000218681 -4.89941e-06 0)
(0.000228261 1.14456e-05 0)
(0.000227825 6.18746e-06 0)
(0.000227318 9.45877e-07 0)
(0.000226738 -4.2639e-06 0)
(0.000236205 1.18626e-05 0)
(0.000235775 6.68038e-06 0)
(0.000235271 1.5111e-06 0)
(0.000234693 -3.6302e-06 0)
(0.000244028 1.22642e-05 0)
(0.000243609 7.1601e-06 0)
(0.000243112 2.06584e-06 0)
(0.00024254 -3.00376e-06 0)
(0.000251728 1.26461e-05 0)
(0.000251324 7.62246e-06 0)
(0.000250838 2.6059e-06 0)
(0.000250276 -2.38885e-06 0)
(0.000259303 1.30055e-05 0)
(0.000258917 8.06437e-06 0)
(0.000258444 3.12811e-06 0)
(0.000257895 -1.78872e-06 0)
(0.00026675 1.33399e-05 0)
(0.000266383 8.48349e-06 0)
(0.000265927 3.63011e-06 0)
(0.000265392 -1.20584e-06 0)
(0.000274065 1.36473e-05 0)
(0.00027372 8.87788e-06 0)
(0.000273281 4.10991e-06 0)
(0.000272764 -6.42243e-07 0)
(0.000281245 1.39261e-05 0)
(0.000280923 9.24581e-06 0)
(0.000280504 4.56575e-06 0)
(0.000280005 -9.97359e-08 0)
(0.000288289 1.41748e-05 0)
(0.00028799 9.58565e-06 0)
(0.000287591 4.996e-06 0)
(0.000287111 4.20073e-07 0)
(0.000295192 1.43921e-05 0)
(0.000294918 9.89609e-06 0)
(0.000294539 5.39932e-06 0)
(0.000294078 9.15915e-07 0)
(0.000301953 1.45773e-05 0)
(0.000301702 1.01764e-05 0)
(0.000301342 5.77499e-06 0)
(0.000300901 1.38716e-06 0)
(0.000308569 1.4731e-05 0)
(0.00030834 1.0427e-05 0)
(0.000307998 6.12334e-06 0)
(0.000307574 1.83422e-06 0)
(0.000315037 1.48549e-05 0)
(0.000314828 1.06495e-05 0)
(0.000314501 6.44613e-06 0)
(0.000314092 2.25889e-06 0)
(0.000321357 1.49524e-05 0)
(0.000321162 1.08474e-05 0)
(0.000320847 6.74681e-06 0)
(0.00032045 2.6646e-06 0)
(0.000327525 1.50289e-05 0)
(0.000327341 1.1026e-05 0)
(0.000327033 7.0306e-06 0)
(0.000326642 3.0565e-06 0)
(0.000333539 1.50909e-05 0)
(0.00033336 1.11922e-05 0)
(0.000333054 7.30435e-06 0)
(0.000332663 3.44126e-06 0)
(0.000339396 1.51465e-05 0)
(0.000339216 1.13539e-05 0)
(0.000338906 7.57612e-06 0)
(0.000338509 3.82675e-06 0)
(0.000345094 1.52043e-05 0)
(0.000344906 1.15201e-05 0)
(0.000344585 7.8547e-06 0)
(0.000344176 4.22149e-06 0)
(0.000350629 1.52731e-05 0)
(0.000350425 1.16997e-05 0)
(0.000350088 8.14895e-06 0)
(0.00034966 4.6341e-06 0)
(0.000355996 1.53614e-05 0)
(0.000355771 1.19012e-05 0)
(0.000355411 8.46731e-06 0)
(0.000354957 5.07277e-06 0)
(0.000361192 1.54766e-05 0)
(0.00036094 1.21321e-05 0)
(0.000360551 8.81726e-06 0)
(0.000360067 5.54477e-06 0)
(0.000366212 1.56251e-05 0)
(0.000365928 1.23988e-05 0)
(0.000365507 9.2051e-06 0)
(0.000364985 6.05628e-06 0)
(0.000371054 1.58124e-05 0)
(0.000370732 1.27066e-05 0)
(0.000370274 9.63589e-06 0)
(0.000369712 6.61224e-06 0)
(0.000375712 1.60424e-05 0)
(0.00037535 1.30594e-05 0)
(0.00037485 1.01135e-05 0)
(0.000374244 7.21649e-06 0)
(0.000380183 1.63186e-05 0)
(0.000379777 1.34603e-05 0)
(0.000379234 1.0641e-05 0)
(0.00037858 7.87202e-06 0)
(0.000384465 1.66436e-05 0)
(0.000384012 1.39119e-05 0)
(0.000383422 1.12208e-05 0)
(0.000382718 8.58131e-06 0)
(0.000388554 1.702e-05 0)
(0.000388052 1.44166e-05 0)
(0.000387412 1.18553e-05 0)
(0.000386656 9.34661e-06 0)
(0.000392448 1.74503e-05 0)
(0.000391895 1.49768e-05 0)
(0.000391204 1.25468e-05 0)
(0.000390392 1.01703e-05 0)
(0.000396145 1.79372e-05 0)
(0.000395538 1.55953e-05 0)
(0.000394793 1.32978e-05 0)
(0.000393924 1.10547e-05 0)
(0.000399643 1.84834e-05 0)
(0.00039898 1.62748e-05 0)
(0.00039818 1.41113e-05 0)
(0.000397252 1.20028e-05 0)
(0.000402938 1.90918e-05 0)
(0.000402218 1.70182e-05 0)
(0.000401362 1.49902e-05 0)
(0.000400373 1.30171e-05 0)
(0.000406028 1.97646e-05 0)
(0.000405249 1.78281e-05 0)
(0.000404337 1.59368e-05 0)
(0.000403287 1.41001e-05 0)
(0.000408909 2.05035e-05 0)
(0.000408073 1.87062e-05 0)
(0.000407104 1.69531e-05 0)
(0.000405994 1.52533e-05 0)
(0.000411578 2.13087e-05 0)
(0.000410686 1.9653e-05 0)
(0.000409662 1.80396e-05 0)
(0.000408493 1.64772e-05 0)
(0.000414031 2.21788e-05 0)
(0.000413086 2.06671e-05 0)
(0.00041201 1.91947e-05 0)
(0.000410784 1.77701e-05 0)
(0.000416264 2.31105e-05 0)
(0.00041527 2.17451e-05 0)
(0.000414147 2.0415e-05 0)
(0.000412869 1.91283e-05 0)
(0.000418274 2.40983e-05 0)
(0.000417236 2.28809e-05 0)
(0.000416072 2.16942e-05 0)
(0.000414748 2.05455e-05 0)
(0.000420058 2.51346e-05 0)
(0.000418984 2.40665e-05 0)
(0.000417784 2.30239e-05 0)
(0.000416423 2.20128e-05 0)
(0.000421615 2.62106e-05 0)
(0.000420511 2.52919e-05 0)
(0.000419285 2.43932e-05 0)
(0.000417894 2.35186e-05 0)
(0.000422946 2.73171e-05 0)
(0.00042182 2.65463e-05 0)
(0.000420575 2.579e-05 0)
(0.000419166 2.50497e-05 0)
(0.000424053 2.84465e-05 0)
(0.000422914 2.78194e-05 0)
(0.000421658 2.72017e-05 0)
(0.000420242 2.65911e-05 0)
(0.000424946 2.95932e-05 0)
(0.0004238 2.91026e-05 0)
(0.000422543 2.86177e-05 0)
(0.00042113 2.81296e-05 0)
(0.000425634 3.07543e-05 0)
(0.000424486 3.03882e-05 0)
(0.000423237 3.00285e-05 0)
(0.000421842 2.9653e-05 0)
(0.000426144 3.19188e-05 0)
(0.000424997 3.16653e-05 0)
(0.000423763 3.143e-05 0)
(0.000422405 3.11704e-05 0)
(0.000426473 3.30728e-05 0)
(0.000425318 3.29103e-05 0)
(0.000424098 3.27898e-05 0)
(0.000422802 3.2638e-05 0)
)
;

boundaryField
{
    plateFix
    {
        type            calculated;
        value           uniform (0 0 0);
    }
    plate
    {
        type            calculated;
        value           nonuniform List<vector> 
168
(
(7.27574e-06 3.86724e-06 -3.01364e-23)
(6.21498e-06 -3.31689e-06 -5.52157e-23)
(7.19376e-06 6.32692e-06 7.62875e-23)
(6.69593e-06 -5.62423e-06 5.53414e-23)
(7.54019e-06 8.22328e-06 -5.85923e-23)
(7.39167e-06 -7.46355e-06 8.24926e-24)
(8.42993e-06 9.53898e-06 -4.66662e-23)
(8.53149e-06 -8.811e-06 3.05607e-23)
(9.84608e-06 1.04534e-05 3.95736e-23)
(1.01396e-05 -9.82828e-06 -5.50047e-23)
(1.16949e-05 1.10473e-05 1.13516e-24)
(1.21439e-05 -1.05825e-05 1.05686e-22)
(1.39271e-05 1.14086e-05 -1.02949e-23)
(1.45049e-05 -1.11515e-05 -1.32066e-22)
(1.65037e-05 1.15949e-05 3.22206e-23)
(1.71868e-05 -1.15854e-05 5.48216e-23)
(1.9406e-05 1.1655e-05 -8.43881e-23)
(2.01701e-05 -1.19258e-05 2.37625e-23)
(2.26241e-05 1.16254e-05 2.86912e-23)
(2.34435e-05 -1.22017e-05 1.38533e-23)
(2.61563e-05 1.15355e-05 2.06273e-23)
(2.70038e-05 -1.24342e-05 6.05214e-25)
(3.00056e-05 1.14082e-05 -3.75122e-23)
(3.08534e-05 -1.26368e-05 -3.64647e-23)
(3.41787e-05 1.12614e-05 5.62791e-23)
(3.5e-05 -1.28178e-05 -4.03135e-23)
(3.86855e-05 1.11086e-05 -2.72129e-23)
(3.94554e-05 -1.29811e-05 3.38684e-23)
(4.35384e-05 1.09595e-05 3.03808e-23)
(4.42355e-05 -1.31275e-05 -4.47638e-24)
(4.87524e-05 1.08209e-05 -2.22011e-23)
(4.93595e-05 -1.32558e-05 2.32636e-23)
(5.43446e-05 1.06968e-05 1.09662e-23)
(5.48493e-05 -1.33641e-05 -2.37564e-23)
(6.0335e-05 1.05892e-05 -1.99348e-23)
(6.07291e-05 -1.34499e-05 8.61753e-24)
(6.67458e-05 1.04988e-05 2.56274e-23)
(6.70245e-05 -1.35111e-05 -4.29241e-24)
(7.36016e-05 1.04257e-05 -7.94686e-24)
(7.37621e-05 -1.35456e-05 -1.70879e-23)
(8.09296e-05 1.03701e-05 1.47579e-23)
(8.09687e-05 -1.3551e-05 -9.73925e-24)
(8.87591e-05 1.03334e-05 -3.14702e-23)
(8.86715e-05 -1.35241e-05 3.28298e-23)
(9.74399e-05 1.03184e-05 9.91084e-25)
(9.72117e-05 -1.34574e-05 -1.00633e-23)
(0.000106685 1.03351e-05 1.72808e-23)
(0.000106303 -1.33406e-05 2.21423e-23)
(0.00011588 1.03858e-05 -5.0412e-24)
(0.000115338 -1.31763e-05 -2.3096e-23)
(0.000125021 1.0473e-05 8.86097e-24)
(0.000124314 -1.29621e-05 2.66327e-24)
(0.000134104 1.05985e-05 -1.01186e-23)
(0.000133227 -1.26964e-05 5.23759e-24)
(0.000143122 1.07633e-05 -7.48161e-24)
(0.000142075 -1.23781e-05 -9.4171e-24)
(0.00015207 1.09676e-05 -5.0703e-24)
(0.000150855 -1.20073e-05 -2.85753e-24)
(0.000160942 1.12106e-05 1.4183e-23)
(0.000159564 -1.1585e-05 7.84324e-25)
(0.000169731 1.14902e-05 4.69048e-25)
(0.000168201 -1.11131e-05 8.86117e-25)
(0.000178433 1.18034e-05 5.40241e-24)
(0.000176763 -1.05949e-05 -9.92696e-25)
(0.000187039 1.21458e-05 -9.56111e-24)
(0.000185249 -1.0035e-05 1.8961e-26)
(0.000195545 1.25119e-05 5.81552e-25)
(0.000193655 -9.43892e-06 6.13798e-25)
(0.000203945 1.2895e-05 4.14065e-24)
(0.00020198 -8.81368e-06 4.57618e-24)
(0.000212235 1.32877e-05 -1.17707e-23)
(0.000210219 -8.16681e-06 2.35482e-24)
(0.00022041 1.36825e-05 1.10027e-23)
(0.000218369 -7.50605e-06 -3.45783e-24)
(0.000228467 1.40723e-05 1.63002e-24)
(0.000226425 -6.83879e-06 2.84455e-24)
(0.000236404 1.44509e-05 -1.14256e-23)
(0.000234382 -6.17162e-06 -1.12721e-23)
(0.000244219 1.48128e-05 9.03746e-25)
(0.000242235 -5.51e-06 7.44608e-24)
(0.000251908 1.51542e-05 2.0827e-24)
(0.000249977 -4.85825e-06 -5.79591e-27)
(0.000259471 1.54719e-05 4.43675e-24)
(0.000257604 -4.21967e-06 -1.70318e-24)
(0.000266905 1.57635e-05 -6.78437e-24)
(0.000265111 -3.59681e-06 4.29348e-24)
(0.000274206 1.60271e-05 5.43351e-24)
(0.000272494 -2.99177e-06 -2.07045e-25)
(0.000281371 1.6261e-05 -3.96766e-24)
(0.000279747 -2.40636e-06 8.23629e-25)
(0.000288399 1.64636e-05 -1.46936e-24)
(0.000286866 -1.84219e-06 -2.31474e-24)
(0.000295287 1.6634e-05 2.26093e-24)
(0.000293846 -1.30047e-06 -5.16861e-24)
(0.000302031 1.67714e-05 3.9386e-24)
(0.000300682 -7.81757e-07 9.32941e-25)
(0.000308632 1.68765e-05 5.0786e-24)
(0.000307367 -2.85586e-07 4.38807e-24)
(0.000315086 1.69511e-05 -4.76081e-24)
(0.000313897 1.89881e-07 -3.70983e-24)
(0.000321393 1.69986e-05 1.66264e-24)
(0.000320264 6.48078e-07 1.32503e-24)
(0.000327553 1.70243e-05 7.29318e-24)
(0.000326462 1.09409e-06 -3.5673e-24)
(0.000333561 1.70347e-05 -1.33759e-23)
(0.000332485 1.53449e-06 -1.10303e-23)
(0.000339418 1.70377e-05 -1.11542e-23)
(0.000338329 1.97699e-06 1.12988e-23)
(0.000345119 1.70419e-05 6.30902e-25)
(0.000343989 2.42995e-06 3.97976e-24)
(0.000350662 1.7056e-05 -2.06636e-24)
(0.000349462 2.90183e-06 -8.83615e-25)
(0.000356041 1.70882e-05 -8.65388e-24)
(0.000354744 3.40065e-06 1.00426e-23)
(0.000361252 1.7146e-05 8.11738e-24)
(0.000359835 3.93359e-06 -1.02502e-24)
(0.000366292 1.7236e-05 3.86302e-24)
(0.000364732 4.50672e-06 8.31235e-24)
(0.000371154 1.73634e-05 -4.25675e-24)
(0.000369435 5.12497e-06 -5.08768e-24)
(0.000375835 1.75324e-05 1.60893e-23)
(0.000373941 5.79216e-06 -2.80789e-24)
(0.000380331 1.77466e-05 -5.21437e-24)
(0.000378249 6.51131e-06 2.5152e-23)
(0.000384638 1.80086e-05 -1.85022e-23)
(0.000382358 7.28492e-06 7.56115e-24)
(0.000388755 1.83213e-05 1.73292e-23)
(0.000386266 8.11524e-06 -2.04417e-24)
(0.000392678 1.8687e-05 -8.22607e-24)
(0.000389971 9.00459e-06 -3.3712e-23)
(0.000396405 1.91085e-05 3.08421e-23)
(0.000393471 9.95545e-06 2.0323e-23)
(0.000399934 1.95884e-05 -3.79384e-24)
(0.000396764 1.09704e-05 1.46812e-23)
(0.000403262 2.01295e-05 -2.28446e-23)
(0.00039985 1.20522e-05 1.03712e-23)
(0.000406385 2.0734e-05 -1.81457e-23)
(0.000402728 1.32029e-05 -3.40902e-24)
(0.000409301 2.14033e-05 3.21276e-23)
(0.000405397 1.44241e-05 -4.42176e-23)
(0.000412004 2.21376e-05 -6.24295e-23)
(0.000407859 1.5716e-05 3.02087e-23)
(0.00041449 2.29355e-05 -2.89659e-23)
(0.000410115 1.70769e-05 1.37231e-25)
(0.000416754 2.37937e-05 -1.43926e-23)
(0.000412167 1.8503e-05 2.65041e-23)
(0.000418791 2.47069e-05 -1.66542e-23)
(0.000414018 1.99878e-05 -1.55766e-23)
(0.000420598 2.5668e-05 -1.96915e-23)
(0.000415668 2.15221e-05 1.26257e-23)
(0.000422174 2.66688e-05 -3.68859e-23)
(0.000417123 2.30941e-05 -7.85118e-24)
(0.000423518 2.77012e-05 1.69171e-23)
(0.000418384 2.46898e-05 -1.64974e-23)
(0.000424637 2.8759e-05 -5.69348e-24)
(0.000419456 2.62931e-05 -3.64069e-23)
(0.000425539 2.98383e-05 -6.86896e-23)
(0.000420348 2.78893e-05 1.24136e-23)
(0.000426231 3.09404e-05 5.86882e-23)
(0.000421062 2.94621e-05 -1.14669e-23)
(0.000426745 3.20539e-05 -2.85875e-23)
(0.000421634 3.1033e-05 -2.96665e-23)
(0.000427076 3.31632e-05 -2.4698e-23)
(0.000426598 3.36521e-05 2.28377e-24)
(0.000425436 3.34984e-05 4.81351e-24)
(0.000424219 3.34233e-05 2.13718e-24)
(0.000422977 3.33086e-05 5.98287e-24)
(0.000422065 3.25551e-05 -2.49612e-23)
)
;
    }
    frontAndBackPlanes
    {
        type            empty;
    }
}


// ************************************************************************* //
