/*--------------------------------*- C++ -*----------------------------------*\
| =========                 |                                                 |
| \\      /  F ield         | OpenFOAM Extend Project: Open source CFD        |
|  \\    /   O peration     | Version:  1.6-ext                               |
|   \\  /    A nd           | Web:      www.extend-project.de                 |
|    \\/     M anipulation  |                                                 |
\*---------------------------------------------------------------------------*/
FoamFile
{
    version     2.0;
    format      ascii;
    class       surfaceScalarField;
    location    "0.55";
    object      meshPhi;
}
// * * * * * * * * * * * * * * * * * * * * * * * * * * * * * * * * * * * * * //

dimensions      [0 3 -1 0 0 0 0];

internalField   nonuniform List<scalar> 
570
(
1.04343e-11
4.54258e-10
-5.35669e-12
9.60255e-11
-8.09975e-13
-6.98818e-12
-1.53886e-10
3.38603e-11
6.14603e-10
-1.22288e-11
2.10351e-10
1.1145e-14
-1.38746e-11
-2.5492e-10
6.24578e-11
8.34136e-10
-8.92628e-12
3.45417e-10
7.79547e-12
-2.01311e-11
-3.85669e-10
9.98207e-11
1.10403e-09
7.61574e-12
4.97319e-10
2.64892e-11
-2.52592e-11
-5.38643e-10
1.50831e-10
1.41817e-09
4.11954e-11
6.65782e-10
6.08143e-11
-2.91309e-11
-7.10505e-10
2.21774e-10
1.7706e-09
9.70628e-11
8.49781e-10
1.16753e-10
-3.18295e-11
-8.98686e-10
3.2063e-10
2.15865e-09
1.82352e-10
1.04934e-09
2.01952e-10
-3.35543e-11
-1.10229e-09
4.5754e-10
2.58118e-09
3.06528e-10
1.26463e-09
3.26209e-10
-3.45872e-11
-1.32126e-09
6.45421e-10
3.03857e-09
4.81983e-10
1.49624e-09
5.02096e-10
-3.52145e-11
-1.55627e-09
9.0074e-10
3.53205e-09
7.2478e-10
1.74498e-09
7.45742e-10
-3.57025e-11
-1.80841e-09
1.24447e-09
4.06349e-09
1.05558e-09
2.01188e-09
1.0778e-09
-3.62623e-11
-2.07901e-09
1.70327e-09
4.63516e-09
1.50082e-09
2.29813e-09
1.52465e-09
-3.70383e-11
-2.36952e-09
2.31097e-09
5.24951e-09
2.09414e-09
2.60507e-09
2.11987e-09
-3.80965e-11
-2.68139e-09
3.11035e-09
5.90915e-09
2.8782e-09
2.93409e-09
2.90602e-09
-3.942e-11
-3.01598e-09
4.15533e-09
6.6167e-09
3.90686e-09
3.28668e-09
3.93688e-09
-4.09048e-11
-3.37453e-09
5.51375e-09
7.37476e-09
5.24788e-09
3.66433e-09
5.28015e-09
-4.23548e-11
-3.7581e-09
7.27057e-09
8.18588e-09
6.98623e-09
4.06857e-09
7.02069e-09
-4.34766e-11
-4.16756e-09
9.53199e-09
9.05252e-09
9.22812e-09
4.5009e-09
9.26465e-09
-4.38724e-11
-4.60354e-09
1.24304e-08
9.97706e-09
1.21059e-08
4.96282e-09
1.21443e-08
-4.30299e-11
-5.06647e-09
1.61303e-08
1.09617e-08
1.57842e-08
5.45582e-09
1.58241e-08
-4.0315e-11
-5.55651e-09
2.08358e-08
1.20087e-08
2.0467e-08
5.98135e-09
2.0508e-08
-3.49462e-11
-6.07356e-09
2.67996e-08
1.31218e-08
2.64072e-08
6.54089e-09
2.64487e-08
-2.59763e-11
-6.61898e-09
3.71125e-08
1.43817e-08
3.66649e-08
7.17946e-09
3.6709e-08
-1.10661e-11
-7.22626e-09
4.4395e-08
1.56266e-08
4.39521e-08
7.81147e-09
4.39916e-08
9.31007e-12
-7.81945e-09
5.22973e-08
1.68515e-08
5.18594e-08
8.43646e-09
5.18936e-08
3.57742e-11
-8.39331e-09
6.08066e-08
1.80551e-08
6.03739e-08
9.05397e-09
6.04021e-08
6.8921e-11
-8.94621e-09
6.99088e-08
1.92355e-08
6.94814e-08
9.6635e-09
6.9503e-08
1.09351e-10
-9.47643e-09
7.95886e-08
2.03912e-08
7.91668e-08
1.02645e-08
7.91813e-08
1.5762e-10
-9.98223e-09
8.98298e-08
2.15202e-08
8.94139e-08
1.08562e-08
8.94205e-08
2.14214e-10
-1.04619e-08
1.00614e-07
2.26206e-08
1.00205e-07
1.14379e-08
1.00203e-07
2.79505e-10
-1.09139e-08
1.11923e-07
2.36904e-08
1.11521e-07
1.20087e-08
1.1151e-07
3.53705e-10
-1.13369e-08
1.23736e-07
2.47274e-08
1.23341e-07
1.25676e-08
1.23321e-07
4.36833e-10
-1.17299e-08
1.36031e-07
2.57296e-08
1.35644e-07
1.31135e-08
1.35616e-07
5.28674e-10
-1.2092e-08
1.48785e-07
2.6695e-08
1.48407e-07
1.36452e-08
1.4837e-07
6.28757e-10
-1.24232e-08
1.61976e-07
2.76217e-08
1.61607e-07
1.41614e-08
1.61563e-07
7.36338e-10
-1.27236e-08
1.75577e-07
2.85077e-08
1.7522e-07
1.46606e-08
1.75168e-07
8.50394e-10
-1.29938e-08
1.89566e-07
2.93512e-08
1.89221e-07
1.51413e-08
1.89164e-07
9.69638e-10
-1.3235e-08
2.03917e-07
3.01503e-08
2.03586e-07
1.56018e-08
2.03524e-07
1.09254e-09
-1.34487e-08
2.18605e-07
3.09033e-08
2.1829e-07
1.60404e-08
2.18225e-07
1.21734e-09
-1.36368e-08
2.33605e-07
3.16086e-08
2.33308e-07
1.64554e-08
2.33242e-07
1.34214e-09
-1.38013e-08
2.48894e-07
3.22644e-08
2.48616e-07
1.68449e-08
2.48551e-07
1.46491e-09
-1.39446e-08
2.64446e-07
3.28694e-08
2.64189e-07
1.72072e-08
2.64128e-07
1.58355e-09
-1.40692e-08
2.80239e-07
3.34222e-08
2.80005e-07
1.75406e-08
2.79949e-07
1.69597e-09
-1.41776e-08
2.96247e-07
3.3922e-08
2.96039e-07
1.78437e-08
2.95991e-07
1.80012e-09
-1.42726e-08
3.1245e-07
3.43682e-08
3.12268e-07
1.81153e-08
3.1223e-07
1.89405e-09
-1.43567e-08
3.28824e-07
3.47607e-08
3.2867e-07
1.83545e-08
3.28644e-07
1.976e-09
-1.44326e-08
3.45348e-07
3.51002e-08
3.45223e-07
1.85606e-08
3.45211e-07
2.04441e-09
-1.45028e-08
3.62003e-07
3.53878e-08
3.61907e-07
1.87338e-08
3.6191e-07
2.098e-09
-1.45699e-08
3.78768e-07
3.56253e-08
3.78702e-07
1.88743e-08
3.78722e-07
2.13582e-09
-1.46361e-08
3.95628e-07
3.58151e-08
3.95591e-07
1.89831e-08
3.95628e-07
2.15725e-09
-1.47034e-08
4.12566e-07
3.59604e-08
4.12557e-07
1.90614e-08
4.12612e-07
2.16207e-09
-1.47737e-08
4.29568e-07
3.60646e-08
4.29587e-07
1.9111e-08
4.2966e-07
2.15047e-09
-1.48483e-08
4.46624e-07
3.61317e-08
4.46668e-07
1.91342e-08
4.46757e-07
2.12301e-09
-1.49283e-08
4.63721e-07
3.61658e-08
4.63789e-07
1.91334e-08
4.63895e-07
2.08066e-09
-1.50142e-08
4.80853e-07
3.61715e-08
4.80942e-07
1.91115e-08
4.81062e-07
2.02471e-09
-1.51061e-08
4.98013e-07
3.61532e-08
4.98119e-07
1.90714e-08
4.98253e-07
1.95677e-09
-1.52039e-08
5.15194e-07
3.61155e-08
5.15315e-07
1.90164e-08
5.1546e-07
1.87866e-09
-1.53071e-08
5.32394e-07
3.60629e-08
5.32527e-07
1.89495e-08
5.3268e-07
1.79237e-09
-1.54146e-08
5.49608e-07
3.59996e-08
5.4975e-07
1.88741e-08
5.4991e-07
1.69997e-09
-1.55256e-08
5.66836e-07
3.59298e-08
5.66983e-07
1.8793e-08
5.67147e-07
1.60353e-09
-1.56388e-08
5.84076e-07
3.58573e-08
5.84226e-07
1.87093e-08
5.84392e-07
1.50506e-09
-1.57533e-08
6.01329e-07
3.57855e-08
6.01478e-07
1.86256e-08
6.01643e-07
1.40645e-09
-1.58677e-08
6.18594e-07
3.57175e-08
6.1874e-07
1.85442e-08
6.18903e-07
1.30939e-09
-1.59812e-08
6.35874e-07
3.56559e-08
6.36015e-07
1.84673e-08
6.36173e-07
1.21537e-09
-1.60927e-08
6.5317e-07
3.56027e-08
6.53304e-07
1.83963e-08
6.53456e-07
1.12565e-09
-1.62015e-08
6.70484e-07
3.55594e-08
6.7061e-07
1.83325e-08
6.70754e-07
1.04122e-09
-1.63068e-08
6.87821e-07
3.55269e-08
6.87936e-07
1.82768e-08
6.88072e-07
9.62848e-10
-1.64079e-08
7.05181e-07
3.55053e-08
7.05286e-07
1.82296e-08
7.05413e-07
8.91052e-10
-1.65042e-08
7.22569e-07
3.54943e-08
7.22663e-07
1.81907e-08
7.2278e-07
8.26145e-10
-1.65951e-08
7.39986e-07
3.54929e-08
7.40069e-07
1.81599e-08
7.40176e-07
7.68248e-10
-1.66798e-08
7.57434e-07
3.54995e-08
7.57507e-07
1.81363e-08
7.57603e-07
7.1731e-10
-1.67578e-08
7.74914e-07
3.55124e-08
7.74977e-07
1.81191e-08
7.75063e-07
6.73139e-10
-1.68283e-08
7.92426e-07
3.55294e-08
7.9248e-07
1.8107e-08
7.92556e-07
6.3541e-10
-1.68908e-08
8.09967e-07
3.55481e-08
8.10014e-07
1.80988e-08
8.1008e-07
6.03702e-10
-1.69448e-08
8.27536e-07
3.55666e-08
8.27576e-07
1.80933e-08
8.27633e-07
5.77495e-10
-1.69901e-08
8.45129e-07
3.5583e-08
8.45163e-07
1.80893e-08
8.45211e-07
5.56263e-10
-1.70264e-08
8.62741e-07
3.55957e-08
8.62769e-07
1.8086e-08
8.62809e-07
5.39381e-10
-1.70544e-08
8.80366e-07
3.56039e-08
8.80389e-07
1.80832e-08
8.80421e-07
5.26532e-10
-1.70745e-08
8.98e-07
3.56066e-08
8.98017e-07
1.80806e-08
8.98042e-07
5.16932e-10
-1.70896e-08
9.15635e-07
3.56033e-08
9.15648e-07
1.80795e-08
9.15667e-07
5.10966e-10
-1.71036e-08
9.33262e-07
3.55857e-08
9.33278e-07
1.80742e-08
9.333e-07
5.01625e-10
-1.71325e-08
9.50855e-07
9.50903e-07
9.50957e-07
)
;

boundaryField
{
    plateFix
    {
        type            calculated;
        value           nonuniform List<scalar> 4(-3.00817e-10 1.56804e-15 5.70965e-15 7.30969e-11);
    }
    plate
    {
        type            calculated;
        value           nonuniform List<scalar> 
168
(
-9.83091e-11
4.37657e-11
-1.55899e-10
6.17025e-11
-2.14905e-10
8.46456e-11
-2.7778e-10
1.15901e-10
-3.50705e-10
1.60851e-10
-4.4163e-10
2.26332e-10
-5.59623e-10
3.20577e-10
-7.15713e-10
4.5387e-10
-9.23409e-10
6.39121e-10
-1.1996e-09
8.92697e-10
-1.56551e-09
1.23541e-09
-2.04801e-09
1.69371e-09
-2.681e-09
2.30123e-09
-3.50734e-09
3.10052e-09
-4.58097e-09
4.14532e-09
-5.96969e-09
5.50323e-09
-7.75846e-09
7.25905e-09
-1.00534e-08
9.51875e-09
-1.29868e-08
1.24145e-08
-1.67232e-08
1.61105e-08
-2.14666e-08
2.08106e-08
-2.74694e-08
2.6767e-08
-3.78746e-08
3.70668e-08
-4.51464e-08
4.43389e-08
-5.30374e-08
5.22292e-08
-6.15346e-08
6.07247e-08
-7.06239e-08
6.98114e-08
-8.029e-08
7.94741e-08
-9.05166e-08
8.96966e-08
-1.01286e-07
1.00461e-07
-1.12578e-07
1.1175e-07
-1.24373e-07
1.23542e-07
-1.36649e-07
1.35816e-07
-1.49383e-07
1.48551e-07
-1.62552e-07
1.61724e-07
-1.76131e-07
1.75311e-07
-1.90095e-07
1.89289e-07
-2.0442e-07
2.03633e-07
-2.1908e-07
2.18319e-07
-2.34051e-07
2.33323e-07
-2.49308e-07
2.48622e-07
-2.64828e-07
2.64191e-07
-2.80585e-07
2.80007e-07
-2.96558e-07
2.96046e-07
-3.12723e-07
3.12285e-07
-3.29059e-07
3.28701e-07
-3.45544e-07
3.45272e-07
-3.6216e-07
3.61978e-07
-3.78887e-07
3.78799e-07
-3.9571e-07
3.95715e-07
-4.12612e-07
4.12711e-07
-4.29581e-07
4.2977e-07
-4.46606e-07
4.4688e-07
-4.63675e-07
4.64029e-07
-4.80783e-07
4.81207e-07
-4.97921e-07
4.98408e-07
-5.15085e-07
5.15624e-07
-5.32271e-07
5.32851e-07
-5.49476e-07
5.50085e-07
-5.66698e-07
5.67326e-07
-5.83936e-07
5.84571e-07
-6.01189e-07
6.01822e-07
-6.18458e-07
6.19079e-07
-6.35743e-07
6.36345e-07
-6.53048e-07
6.53622e-07
-6.70372e-07
6.70913e-07
-6.87719e-07
6.88223e-07
-7.05091e-07
7.05555e-07
-7.22491e-07
7.22912e-07
-7.39919e-07
7.40298e-07
-7.57378e-07
7.57714e-07
-7.74867e-07
7.75164e-07
-7.92387e-07
7.92645e-07
-8.09936e-07
8.10158e-07
-8.2751e-07
8.277e-07
-8.45107e-07
8.45268e-07
-8.62722e-07
8.62856e-07
-8.80349e-07
8.80459e-07
-8.97985e-07
8.98072e-07
-9.15622e-07
9.15692e-07
-9.33249e-07
9.33329e-07
-9.50822e-07
3.55586e-08
1.80566e-08
4.81244e-10
-1.71678e-08
9.51003e-07
)
;
    }
    frontAndBackPlanes
    {
        type            empty;
    }
}


// ************************************************************************* //
