/*--------------------------------*- C++ -*----------------------------------*\
| =========                 |                                                 |
| \\      /  F ield         | OpenFOAM Extend Project: Open source CFD        |
|  \\    /   O peration     | Version:  1.6-ext                               |
|   \\  /    A nd           | Web:      www.extend-project.de                 |
|    \\/     M anipulation  |                                                 |
\*---------------------------------------------------------------------------*/
FoamFile
{
    version     2.0;
    format      ascii;
    class       volSymmTensorField;
    location    "0.55";
    object      sigma;
}
// * * * * * * * * * * * * * * * * * * * * * * * * * * * * * * * * * * * * * //

dimensions      [1 -1 -2 0 0 0 0];

internalField   nonuniform List<symmTensor> 
328
(
(1.43152 0.00483119 -5.9592e-22 0.716604 9.30719e-20 0.857847)
(-0.407664 -0.114119 -6.65805e-24 -0.242716 4.84138e-23 -0.261198)
(-1.72497 0.227534 5.46102e-23 -0.824678 -5.93433e-23 -1.02095)
(-4.10035 0.766547 -2.02573e-22 -1.26353 -1.04083e-19 -2.14727)
(1.42331 0.0183081 2.44837e-21 0.682542 -1.7325e-19 0.840915)
(-0.419015 0.0091269 2.17752e-22 -0.154824 3.05485e-24 -0.230661)
(-1.72266 0.293354 3.96249e-23 -0.336605 1.07658e-22 -0.824897)
(-3.82383 0.546078 1.64282e-21 -0.672697 -1.62537e-20 -1.80032)
(1.41433 0.044438 -3.00759e-21 0.6748 -3.13403e-20 0.83417)
(-0.464133 0.107104 -3.69886e-22 -0.0755528 7.04802e-23 -0.217107)
(-1.85977 0.326682 6.08758e-22 -0.079888 2.06142e-22 -0.777183)
(-3.74271 0.376624 -4.99037e-21 -0.334873 1.42249e-19 -1.63281)
(1.38216 0.070299 1.07827e-21 0.67384 2.23623e-20 0.820857)
(-0.496703 0.181136 7.51668e-22 0.00969169 4.50178e-23 -0.196163)
(-1.87442 0.332657 -9.31829e-22 0.14643 -7.37324e-22 -0.692651)
(-3.62171 0.260979 4.30521e-21 -0.104241 3.40392e-20 -1.49222)
(1.33613 0.091616 -3.75309e-22 0.675904 7.73646e-20 0.803221)
(-0.531275 0.231738 -4.35066e-22 0.081904 -7.88092e-23 -0.181219)
(-1.89481 0.323407 4.3057e-23 0.28704 -6.049e-22 -0.644685)
(-3.53985 0.187385 1.41317e-21 0.0283619 -9.25456e-20 -1.40648)
(1.27573 0.107789 3.05877e-21 0.67693 -7.23341e-20 0.77944)
(-0.558646 0.265708 8.48817e-22 0.143285 1.8943e-22 -0.167706)
(-1.88007 0.309327 -1.68466e-21 0.390734 9.73582e-22 -0.597402)
(-3.45901 0.142066 -2.27778e-21 0.108163 3.02088e-20 -1.34225)
(1.20391 0.118792 -4.01102e-21 0.675293 8.47718e-20 0.750036)
(-0.582581 0.286118 5.77544e-22 0.190738 5.8987e-23 -0.158365)
(-1.85824 0.295296 5.8179e-22 0.456301 -6.2743e-22 -0.562512)
(-3.38635 0.115707 2.59458e-21 0.152466 -5.43146e-21 -1.29549)
(1.12259 0.125373 2.08424e-21 0.670446 -1.07742e-21 0.715557)
(-0.602436 0.296847 -2.20611e-21 0.226333 -9.25268e-23 -0.152113)
(-1.82538 0.283858 7.19868e-22 0.498902 -5.97883e-22 -0.532365)
(-3.31342 0.10124 -2.30384e-21 0.177506 -6.78097e-20 -1.2563)
(1.03366 0.128434 -2.45658e-21 0.662475 5.69748e-20 0.676791)
(-0.620256 0.300557 3.07687e-21 0.251521 9.62945e-23 -0.14919)
(-1.78882 0.275554 9.76232e-22 0.523101 5.98921e-22 -0.508085)
(-3.2388 0.094082 2.09701e-21 0.19172 1.06127e-19 -1.22077)
(0.938641 0.128978 8.42795e-22 0.651884 -1.01968e-19 0.634547)
(-0.637059 0.299632 9.67695e-22 0.268815 -5.47072e-22 -0.149005)
(-1.74937 0.270006 -2.02231e-21 0.535137 -5.69458e-22 -0.487497)
(-3.15952 0.0910675 3.30899e-21 0.200834 -6.50687e-20 -1.1854)
(0.838616 0.12789 1.17725e-21 0.639239 6.54493e-20 0.58948)
(-0.654146 0.2958 -7.46611e-21 0.280387 2.9097e-22 -0.151213)
(-1.70918 0.266386 2.15241e-21 0.538457 7.19001e-22 -0.470089)
(-3.07412 0.0901842 -4.94336e-21 0.207938 4.32978e-21 -1.14839)
(0.734271 0.125894 -2.0847e-21 0.625076 -7.96716e-20 0.542079)
(-0.672308 0.290364 5.74813e-21 0.288264 9.48177e-22 -0.155324)
(-1.66875 0.263815 3.47394e-21 0.536076 -4.36004e-22 -0.454859)
(-2.98138 0.090141 -3.72195e-21 0.214817 1.39579e-20 -1.10853)
(0.625923 0.123509 3.6923e-21 0.609789 4.67693e-20 0.492628)
(-0.692112 0.284179 -2.10392e-21 0.294001 -6.78222e-22 -0.160945)
(-1.62846 0.261538 -8.35077e-21 0.529942 5.15006e-22 -0.441186)
(-2.88067 0.0901691 7.15278e-21 0.222353 3.00088e-20 -1.06521)
(0.513607 0.12106 -4.12052e-21 0.593622 1.22867e-20 0.441239)
(-0.713791 0.277766 -1.15554e-21 0.29874 5.83513e-22 -0.167714)
(-1.58816 0.259012 3.29027e-21 0.521461 1.34514e-22 -0.428449)
(-2.77162 0.0898443 -4.30043e-22 0.23094 -4.77913e-20 -1.01814)
(0.397174 0.118706 -1.24932e-21 0.576679 -1.65521e-20 0.387893)
(-0.737368 0.271368 -7.99544e-21 0.30321 -2.01361e-21 -0.175349)
(-1.54756 0.255895 1.11939e-21 0.511499 7.21966e-22 -0.416181)
(-2.65415 0.0889728 6.1715e-21 0.240671 1.93124e-20 -0.967236)
(0.276384 0.116491 4.00514e-21 0.558955 -2.19444e-21 0.332492)
(-0.762702 0.265042 -9.34987e-23 0.307817 -9.164e-22 -0.183633)
(-1.5062 0.252017 -9.23787e-21 0.500555 1.37875e-21 -0.404001)
(-2.52832 0.0875074 6.28442e-21 0.251479 -2.29503e-20 -0.91256)
(0.151 0.114374 -6.93995e-22 0.540382 -2.87929e-20 0.274914)
(-0.789562 0.258725 -1.9583e-21 0.31272 2.78707e-23 -0.192409)
(-1.46361 0.247324 8.04512e-21 0.488866 -1.08872e-21 -0.391626)
(-2.39427 0.0854821 -2.8863e-21 0.263219 2.13705e-20 -0.854223)
(0.0208406 0.112279 2.75916e-20 0.520854 1.94439e-20 0.215044)
(-0.817682 0.252291 -2.59599e-21 0.317922 1.2941e-21 -0.20157)
(-1.41934 0.241824 5.94687e-21 0.476487 -3.97189e-22 -0.378855)
(-2.25219 0.0829708 -1.06342e-20 0.275706 -6.04113e-20 -0.792375)
(-0.114127 0.110115 -1.20401e-20 0.500273 1.02958e-20 0.152829)
(-0.84677 0.245601 -1.51175e-20 0.32334 -1.77607e-21 -0.211031)
(-1.373 0.23556 5.22948e-21 0.463395 -1.25526e-21 -0.365544)
(-2.1023 0.0800558 -1.54892e-21 0.28876 4.78978e-20 -0.727171)
(-0.253898 0.107794 -3.56412e-20 0.47851 -1.43958e-20 0.088221)
(-0.876578 0.238508 1.68991e-20 0.328828 3.87627e-21 -0.220752)
(-1.32432 0.228563 1.78371e-20 0.449504 -5.81283e-23 -0.351613)
(-1.9448 0.0768155 -6.07999e-23 0.302205 3.87629e-21 -0.65877)
(-0.398011 0.105258 5.35156e-20 0.45558 8.24509e-21 0.0214094)
(-0.906748 0.230918 -1.35776e-20 0.334284 -1.22194e-21 -0.23063)
(-1.27307 0.220869 -3.1464e-21 0.434773 -1.17082e-21 -0.336992)
(-1.78005 0.0733011 9.80211e-21 0.315912 1.94528e-20 -0.58736)
(-0.546671 0.102345 6.73077e-21 0.431122 -9.75191e-21 -0.0478327)
(-0.937186 0.222623 1.2997e-21 0.339436 2.66675e-21 -0.240735)
(-1.21913 0.212397 -3.83879e-20 0.419103 1.87608e-22 -0.321671)
(-1.60812 0.0695328 1.90478e-20 0.329767 4.8338e-21 -0.513024)
(-0.703249 0.0986516 3.69292e-21 0.405229 7.45749e-21 -0.120815)
(-0.968299 0.212437 2.33178e-20 0.344762 -5.83528e-22 -0.25104)
(-1.16037 0.201955 2.82333e-20 0.40184 1.48905e-21 -0.305051)
(-1.4239 0.0648198 1.19439e-20 0.343865 -2.66401e-20 -0.433668)
(-0.862019 0.0957514 -4.79274e-20 0.377892 -2.4245e-20 -0.195252)
(-0.998861 0.203862 -1.85755e-20 0.349428 -2.25216e-21 -0.261387)
(-1.09888 0.193105 3.8652e-21 0.383341 -8.52566e-22 -0.287839)
(-1.23426 0.0608824 -9.16027e-20 0.357204 4.76687e-20 -0.352449)
(-1.01282 0.0927915 2.86694e-21 0.351043 3.06505e-20 -0.266305)
(-1.02657 0.19541 -5.53556e-21 0.35335 -4.74804e-21 -0.27089)
(-1.03851 0.184425 3.11412e-20 0.365313 1.66982e-21 -0.270883)
(-1.0507 0.0571176 7.63947e-20 0.36997 -6.05683e-20 -0.273895)
(-1.1556 0.0897631 1.46431e-20 0.324624 -2.13497e-20 -0.333981)
(-1.05164 0.186908 4.0748e-20 0.356427 8.20635e-21 -0.279677)
(-0.979454 0.175707 3.99022e-21 0.347471 -3.94811e-21 -0.254378)
(-0.873965 0.0533399 -1.46706e-20 0.381534 2.10035e-20 -0.198551)
(-1.29025 0.0866545 3.36109e-20 0.298959 -2.97058e-20 -0.398102)
(-1.07402 0.178337 -6.25802e-20 0.35888 -1.22601e-20 -0.287633)
(-0.921597 0.16695 -4.27437e-21 0.329993 1.73704e-20 -0.238209)
(-0.703846 0.049589 -6.91645e-20 0.392157 -4.06314e-20 -0.126232)
(-1.41682 0.0835108 -4.89883e-20 0.273974 3.63038e-20 -0.458719)
(-1.09377 0.169696 -3.27682e-20 0.360661 1.61524e-21 -0.294811)
(-0.865058 0.158127 1.83575e-20 0.312837 -3.57393e-21 -0.222438)
(-0.540586 0.0458202 3.01543e-20 0.401719 5.52712e-20 -0.0570829)
(-1.53519 0.0803294 6.87221e-20 0.249804 -5.59234e-21 -0.515726)
(-1.11086 0.160979 1.20912e-20 0.361866 -1.08424e-20 -0.301151)
(-0.809816 0.149232 -1.61624e-20 0.296106 -7.19587e-21 -0.207016)
(-0.384172 0.042031 8.55501e-20 0.410343 -3.5709e-20 0.00895171)
(-1.64532 0.0771316 -6.38469e-20 0.226449 1.38277e-20 -0.569116)
(-1.1253 0.152185 -1.77771e-20 0.362496 -2.25408e-21 -0.306661)
(-0.755924 0.140247 -1.01735e-19 0.27981 1.08937e-20 -0.19196)
(-0.234724 0.0381903 3.83219e-20 0.418011 -2.98923e-21 0.0718163)
(-1.74712 0.0739224 2.11148e-20 0.203975 -3.07442e-21 -0.618817)
(-1.13704 0.143307 -6.44373e-20 0.362593 2.33341e-20 -0.311307)
(-0.703379 0.131161 4.91755e-20 0.264003 -1.1618e-20 -0.177248)
(-0.092281 0.0342828 1.48026e-20 0.424771 2.76845e-20 0.131514)
(-1.84049 0.0707146 -3.99426e-20 0.182395 -9.82846e-21 -0.664791)
(-1.14607 0.134342 4.23734e-20 0.36216 -2.18666e-20 -0.315078)
(-0.652202 0.121958 -1.51174e-19 0.248694 -1.00027e-20 -0.162884)
(0.0430769 0.0302857 -1.25187e-20 0.430613 1.03513e-20 0.18801)
(-1.92531 0.067515 -1.38608e-19 0.161734 3.08674e-20 -0.70698)
(-1.15234 0.125283 1.71913e-19 0.361202 8.25621e-21 -0.317953)
(-0.60239 0.112626 1.2436e-20 0.233899 -1.19535e-20 -0.148861)
(0.171296 0.0261832 9.61596e-20 0.435538 3.22481e-21 0.241283)
(-2.00148 0.0643314 7.86076e-20 0.14199 -3.53463e-20 -0.745335)
(-1.15579 0.116127 3.11211e-20 0.359698 3.46088e-21 -0.319922)
(-0.553944 0.103156 8.64576e-20 0.219607 7.22543e-21 -0.135183)
(0.292312 0.0219599 -5.95446e-20 0.439516 -8.66125e-21 0.291294)
(-2.06884 0.0611683 -1.13132e-19 0.123151 2.27264e-20 -0.779808)
(-1.15637 0.106873 5.09076e-20 0.357617 -1.28614e-20 -0.320973)
(-0.506857 0.0935413 7.91528e-20 0.205795 3.00898e-20 -0.121857)
(0.406068 0.0176064 -3.23738e-20 0.442504 -2.14071e-21 0.338006)
(-2.12727 0.0580286 1.43696e-19 0.105185 1.3089e-20 -0.810359)
(-1.15403 0.0975195 1.83654e-20 0.354907 6.63233e-21 -0.321106)
(-0.461121 0.0837811 -9.90992e-20 0.192421 -1.64465e-20 -0.108897)
(0.512507 0.0131178 1.57556e-20 0.444438 -1.76666e-20 0.381368)
(-2.17664 0.0549122 -7.98048e-20 0.0880433 -4.16338e-22 -0.836951)
(-1.1487 0.0880706 -4.55549e-20 0.3515 2.53378e-20 -0.320323)
(-0.416727 0.0738796 -1.76393e-20 0.179423 3.95992e-21 -0.0963228)
(0.611575 0.00849588 -4.63928e-20 0.445234 -2.46906e-21 0.421327)
(-2.21681 0.0518161 -5.82888e-20 0.0716596 -3.56107e-20 -0.859562)
(-1.14034 0.078532 1.28874e-19 0.347311 9.70527e-21 -0.318637)
(-0.373667 0.0638472 -7.29098e-20 0.166721 -4.34211e-21 -0.0841636)
(0.703221 0.0037496 1.33506e-19 0.444793 9.4121e-21 0.457821)
(-2.24768 0.048734 4.63104e-20 0.0559519 -1.3719e-21 -0.878181)
(-1.12889 0.0689136 1.323e-19 0.342239 -5.14772e-20 -0.31607)
(-0.331935 0.0537016 -2.49861e-19 0.154222 4.66252e-20 -0.0724552)
(0.787394 -0.00110417 3.42673e-20 0.442997 -5.6606e-21 0.490785)
(-2.26916 0.0456566 1.13372e-19 0.0408245 1.63841e-20 -0.892812)
(-1.11432 0.0592292 -9.75134e-20 0.336175 2.84841e-20 -0.312652)
(-0.291532 0.0434679 1.04677e-19 0.141814 2.20061e-20 -0.0612411)
(0.86405 -0.00604021 -2.14885e-19 0.439718 -3.51689e-21 0.520149)
(-2.28121 0.0425715 -5.06912e-20 0.0261716 1.523e-20 -0.903476)
(-1.09662 0.0494977 1.20575e-19 0.329002 -1.18066e-20 -0.308425)
(-0.252465 0.0331793 9.43024e-20 0.129381 -3.98137e-20 -0.0505719)
(0.933149 -0.0110247 -1.20553e-19 0.434822 8.06374e-21 0.545843)
(-2.2838 0.0394642 -1.89143e-19 0.0118813 1.4865e-20 -0.910214)
(-1.07579 0.0397428 1.50513e-20 0.320601 -1.43707e-20 -0.303438)
(-0.214751 0.0228774 7.2688e-20 0.116798 5.84141e-21 -0.0405036)
(0.994659 -0.0160157 1.50966e-19 0.428171 4.33941e-21 0.567799)
(-2.27698 0.0363181 2.39865e-19 -0.00215922 -2.37536e-20 -0.913086)
(-1.05187 0.0299938 -2.24636e-19 0.310857 -4.06755e-21 -0.297749)
(-0.178417 0.0126119 1.93452e-20 0.103943 -5.72188e-20 -0.0310963)
(1.04855 -0.0209631 -1.02271e-19 0.419637 2.51078e-20 0.585957)
(-2.26085 0.0331158 2.25439e-19 -0.0160584 2.53937e-21 -0.912174)
(-1.02491 0.0202858 -2.84637e-19 0.299668 5.36046e-20 -0.291426)
(-0.1435 0.00244051 1.86667e-19 0.0906968 -2.90854e-20 -0.022412)
(1.09483 -0.0258104 9.32877e-20 0.409101 7.10707e-20 0.600265)
(-2.23556 0.0298402 1.35171e-19 -0.0299147 2.53313e-21 -0.907583)
(-0.995025 0.0106596 7.95875e-20 0.286946 -4.4696e-20 -0.284541)
(-0.110052 -0.00757191 -7.03448e-20 0.0769577 -4.58845e-20 -0.0145124)
(1.13348 -0.0304955 -1.14297e-19 0.396469 -2.34595e-20 0.610687)
(-2.20136 0.0264752 -7.7069e-20 -0.043811 -1.32933e-20 -0.899438)
(-0.962329 0.00116133 2.05879e-20 0.272632 -1.46532e-20 -0.27717)
(-0.0781347 -0.0173544 -2.23949e-19 0.0626404 1.19878e-19 -0.0074561)
(1.16454 -0.0349526 -1.11691e-19 0.381674 -1.56651e-20 0.617207)
(-2.15853 0.0230072 3.73291e-19 -0.0578099 -2.13671e-20 -0.887888)
(-0.926997 -0.00815764 -1.24337e-19 0.256693 1.1132e-19 -0.269394)
(-0.0478198 -0.0268312 7.19123e-20 0.0476853 1.01284e-20 -0.00129604)
(1.18806 -0.039114 4.45202e-19 0.364684 2.54427e-21 0.619833)
(-2.10749 0.0194258 -2.07976e-20 -0.0719492 -1.6431e-20 -0.873102)
(-0.889232 -0.0172418 -6.53706e-20 0.239132 -1.39874e-20 -0.261294)
(-0.0191888 -0.0359236 -7.27931e-20 0.0320618 -4.33888e-20 0.00392309)
(1.20412 -0.0429125 -3.10993e-19 0.34551 -4.70908e-20 0.618602)
(-2.04867 0.0157252 6.13356e-20 -0.086239 -2.52131e-20 -0.85527)
(-0.849276 -0.0260324 -1.38915e-19 0.219993 2.86026e-20 -0.252948)
(0.00767068 -0.0445519 8.50266e-20 0.0157726 1.10665e-19 0.00816726)
(1.21283 -0.0462834 -5.20981e-20 0.324205 -2.40758e-20 0.613584)
(-1.98263 0.0119044 -1.88723e-21 -0.10066 1.47814e-20 -0.8346)
(-0.807403 -0.0344686 -1.08077e-19 0.199358 5.59516e-20 -0.244434)
(0.0326673 -0.0526372 1.19314e-19 -0.00114464 -9.38609e-20 0.011415)
(1.21437 -0.0491668 -1.64928e-19 0.300875 1.82546e-20 0.604881)
(-1.90998 0.00796801 -2.2225e-20 -0.115163 2.33689e-20 -0.811318)
(-0.763918 -0.0424891 2.98567e-19 0.177351 3.6262e-20 -0.235825)
(0.0557098 -0.0601042 -3.40021e-19 -0.0186168 -3.47649e-20 0.0136589)
(1.20892 -0.0515097 7.51457e-20 0.27567 -3.07127e-20 0.592634)
(-1.8314 0.00392655 -2.83076e-20 -0.129672 4.88903e-20 -0.785665)
(-0.719152 -0.0500335 -1.42514e-19 0.154134 -1.5889e-19 -0.227187)
(0.07671 -0.0668825 2.30628e-19 -0.0365368 -1.83311e-20 0.0149066)
(1.19673 -0.0532675 4.90813e-20 0.248789 1.46463e-20 0.577021)
(-1.74762 -0.000203785 3.18717e-19 -0.144082 7.75289e-21 -0.757893)
(-0.673454 -0.0570439 -1.34902e-19 0.129908 2.46479e-19 -0.21858)
(0.0955869 -0.0729095 -9.46636e-20 -0.0547664 -8.31328e-20 0.015181)
(1.17809 -0.0544058 1.16867e-19 0.220471 1.12369e-20 0.558254)
(-1.65942 -0.00440128 9.45103e-21 -0.158271 -3.53002e-20 -0.728269)
(-0.627191 -0.0634665 1.10266e-19 0.104903 -1.32293e-19 -0.210059)
(0.11227 -0.0781313 -7.35526e-20 -0.0731408 -7.57663e-20 0.0145198)
(1.15334 -0.0549012 -4.10239e-19 0.190996 8.01429e-20 0.536581)
(-1.56764 -0.00863933 2.42192e-20 -0.172097 -1.04908e-20 -0.697064)
(-0.580735 -0.0692528 2.31114e-19 0.0793727 1.03425e-19 -0.201672)
(0.126704 -0.0825048 3.30086e-19 -0.0914742 7.85012e-20 0.0129748)
(1.12287 -0.0547424 1.16643e-19 0.160671 -3.73531e-21 0.512279)
(-1.47312 -0.0128871 -3.81626e-19 -0.185409 -1.34048e-20 -0.664558)
(-0.534459 -0.0743614 -8.38018e-20 0.0535915 -2.04728e-19 -0.193457)
(0.138848 -0.0859984 -6.07745e-19 -0.109567 5.64548e-20 0.0106101)
(1.08711 -0.0539297 3.876e-19 0.129825 -3.967e-20 0.485651)
(-1.37672 -0.0171107 -3.93312e-20 -0.198052 2.28542e-21 -0.631033)
(-0.488733 -0.0787586 -7.51742e-20 0.0278415 1.87082e-19 -0.18545)
(0.148683 -0.088593 1.57634e-19 -0.127211 -1.33841e-20 0.00750086)
(1.04652 -0.0524755 -2.41183e-19 0.0987998 5.19475e-20 0.457024)
(-1.27929 -0.021274 1.31095e-19 -0.209874 8.04173e-20 -0.596772)
(-0.443912 -0.0824193 2.58391e-19 0.0024067 -1.22477e-19 -0.17768)
(0.156211 -0.0902821 -3.88611e-19 -0.144201 -5.81559e-22 0.00373026)
(1.00162 -0.0504032 -6.43295e-20 0.0679412 -4.90464e-20 0.426737)
(-1.1817 -0.0253399 -1.54159e-19 -0.220729 2.9741e-21 -0.562058)
(-0.400334 -0.0853277 2.06377e-20 -0.0224348 4.92266e-20 -0.17017)
(0.161455 -0.0910718 2.02602e-19 -0.160336 -6.79112e-20 -0.00061216)
(0.952948 -0.0477464 4.02406e-19 0.0375881 1.10158e-20 0.39514)
(-1.08476 -0.0292716 1.49258e-19 -0.230486 7.44849e-20 -0.527167)
(-0.358316 -0.0874776 -2.48152e-19 -0.0464184 -7.90441e-23 -0.162941)
(0.164463 -0.0909804 1.54511e-19 -0.175432 -1.41284e-19 -0.00543318)
(0.901053 -0.0445475 -3.70895e-19 0.00806485 -2.48481e-20 0.362589)
(-0.989271 -0.0330335 -2.29924e-19 -0.239033 8.29615e-21 -0.49237)
(-0.318144 -0.0888722 6.76521e-20 -0.0692996 -2.31487e-19 -0.15601)
(0.165305 -0.0900371 3.52639e-19 -0.18932 2.25746e-19 -0.0106381)
(0.846518 -0.0408561 -1.94702e-19 -0.0203258 5.98929e-20 0.329434)
(-0.895968 -0.0365925 -2.00135e-19 -0.24628 9.57749e-21 -0.45793)
(-0.280076 -0.0895239 1.0044e-19 -0.0908587 2.15387e-19 -0.149393)
(0.164073 -0.0882816 -2.30788e-19 -0.201859 -1.42417e-19 -0.016133)
(0.789929 -0.0367277 2.4474e-20 -0.0473093 -5.44658e-20 0.29602)
(-0.805547 -0.0399188 -3.53835e-19 -0.25216 -1.712e-20 -0.424097)
(-0.244336 -0.0894539 -9.907e-20 -0.110905 1.35592e-19 -0.143101)
(0.160879 -0.0857621 -1.8385e-19 -0.212931 5.90614e-20 -0.0218264)
(0.731874 -0.0322213 2.61684e-19 -0.0726442 1.50723e-21 0.262679)
(-0.718642 -0.0429867 -1.65515e-19 -0.256632 3.66562e-20 -0.391108)
(-0.211111 -0.0886912 1.4839e-19 -0.129279 -1.40729e-20 -0.137147)
(0.155853 -0.0825345 6.91042e-19 -0.22245 -7.71411e-20 -0.0276309)
(0.672937 -0.0273983 -1.7548e-20 -0.0961245 3.34665e-20 0.229726)
(-0.635823 -0.0457757 1.28556e-20 -0.259679 8.7983e-20 -0.359184)
(-0.180554 -0.0872723 -2.129e-19 -0.145854 -2.79122e-19 -0.131541)
(0.149142 -0.0786601 -9.98737e-20 -0.230355 5.26967e-20 -0.0334644)
(0.613687 -0.0223204 -1.54305e-19 -0.117582 -8.18436e-20 0.197458)
(-0.557593 -0.0482701 -1.6585e-19 -0.261309 7.32383e-20 -0.32853)
(-0.152783 -0.0852398 6.54926e-20 -0.160536 -8.24657e-20 -0.126293)
(0.140904 -0.0742048 -9.42486e-20 -0.236615 2.11366e-20 -0.0392508)
(0.554676 -0.0170481 5.63358e-20 -0.136886 1.0391e-19 0.166146)
(-0.484383 -0.0504603 -3.6161e-19 -0.261552 -5.16033e-20 -0.299329)
(-0.127881 -0.0826417 -1.6429e-20 -0.17326 2.29445e-19 -0.121409)
(0.131308 -0.0692372 1.69918e-19 -0.241226 -4.40631e-19 -0.0449206)
(0.496429 -0.0116395 6.1484e-19 -0.153941 -6.67007e-20 0.136039)
(-0.416557 -0.0523427 6.53465e-20 -0.260455 3.18472e-20 -0.271746)
(-0.105899 -0.0795309 -3.13803e-19 -0.183992 -1.16398e-19 -0.116896)
(0.120528 -0.0638277 -1.62977e-19 -0.244204 2.00732e-20 -0.0504113)
(0.43944 -0.00614889 -3.04841e-19 -0.168687 -6.6611e-20 0.107358)
(-0.354408 -0.0539198 -2.63401e-19 -0.258081 6.40586e-20 -0.245924)
(-0.0868565 -0.0759643 4.02268e-19 -0.192721 -6.09932e-20 -0.112758)
(0.108741 -0.0580471 4.68332e-19 -0.245587 4.80124e-20 -0.0556669)
(0.384165 -0.000626011 -2.86352e-19 -0.181092 2.44346e-20 0.0802997)
(-0.298158 -0.055201 6.64955e-21 -0.254505 -7.96574e-20 -0.221981)
(-0.0707471 -0.0720024 -3.59489e-20 -0.199458 1.50751e-19 -0.108998)
(0.0961205 -0.0519659 -3.09124e-19 -0.245426 4.66474e-20 -0.0606384)
(0.331019 0.00488501 1.64048e-20 -0.191151 -9.72937e-20 0.0550308)
(-0.247966 -0.0562025 -1.13289e-20 -0.249805 7.51033e-20 -0.200011)
(-0.0575393 -0.06771 4.51198e-19 -0.20423 -1.91398e-19 -0.105611)
(0.0828366 -0.0456537 -3.34663e-19 -0.243781 2.65968e-19 -0.0652821)
(0.280372 0.0103464 -2.43477e-20 -0.198878 -1.21026e-19 0.0316934)
(-0.203922 -0.0569491 -5.37499e-19 -0.244061 5.75525e-20 -0.180085)
(-0.0471852 -0.063157 -2.58007e-19 -0.207075 -7.18948e-21 -0.102596)
(0.0690438 -0.0391776 5.87301e-19 -0.240717 -1.21635e-20 -0.0695623)
(0.232541 0.015728 -5.43847e-19 -0.204305 2.51186e-20 0.0104021)
(-0.166045 -0.0574768 -8.54419e-20 -0.237345 -1.76938e-19 -0.162236)
(-0.0396182 -0.0584219 1.84825e-19 -0.20803 4.19883e-19 -0.0999404)
(0.0548841 -0.0325994 -2.22099e-19 -0.23629 2.13564e-19 -0.0734441)
(0.187797 0.0210099 -9.24129e-20 -0.207468 -1.54323e-19 -0.00874931)
(-0.134292 -0.0578373 7.42429e-19 -0.229714 -1.25844e-19 -0.146472)
(-0.0347931 -0.0535981 -4.43264e-19 -0.20713 1.38653e-19 -0.0976399)
(0.0404448 -0.0259716 8.22091e-19 -0.230547 1.98658e-20 -0.0769116)
(0.14635 0.026187 1.73002e-19 -0.208404 -7.4254e-20 -0.0256917)
(-0.108491 -0.0581164 1.00216e-19 -0.221179 -1.58604e-19 -0.132728)
(-0.032641 -0.048813 -3.80162e-19 -0.204353 -1.75262e-20 -0.0956583)
(0.0258022 -0.0193184 -2.97249e-20 -0.223465 2.32786e-19 -0.0799257)
(0.108408 0.0312864 -3.54966e-19 -0.207116 1.1206e-19 -0.0403427)
(-0.0884141 -0.0584472 -2.23815e-19 -0.211701 8.48072e-20 -0.120896)
(-0.0333332 -0.0442474 1.60795e-19 -0.199683 -5.94424e-21 -0.0940573)
(0.0107558 -0.0126205 2.24939e-20 -0.21502 -2.80829e-19 -0.0825569)
(0.0741088 0.0363798 2.82261e-19 -0.203567 -1.15999e-19 -0.0526333)
(-0.073326 -0.0591086 4.15947e-19 -0.201023 1.40423e-19 -0.110581)
(-0.0368466 -0.0402202 -3.02866e-19 -0.192779 2.1901e-19 -0.0926922)
(-0.00474433 -0.00573073 -3.97012e-19 -0.204857 -4.26079e-20 -0.0846827)
(0.0439428 0.0416837 -1.75e-19 -0.197521 4.49654e-20 -0.0622724)
(-0.0627022 -0.0604604 -2.65068e-19 -0.188751 -5.35994e-20 -0.101414)
(-0.044766 -0.037133 1.56191e-19 -0.183738 1.73611e-19 -0.0922357)
(-0.022404 0.00156045 7.51733e-19 -0.193043 -3.34669e-19 -0.0870129)
(0.018079 0.0474908 -2.41076e-19 -0.188589 6.50246e-20 -0.069037)
(-0.0532368 -0.063258 9.98543e-21 -0.173593 -6.99513e-21 -0.0915577)
(-0.0561857 -0.0355842 5.78089e-19 -0.171344 -2.69864e-19 -0.0918388)
(-0.0415277 0.00964372 -1.69154e-19 -0.178331 3.51465e-19 -0.0887702)
(-0.000784216 0.0544976 3.00996e-19 -0.17552 -5.72289e-20 -0.0713473)
(-0.0465602 -0.0665116 -3.4735e-20 -0.155793 5.90558e-20 -0.0817604)
(-0.0796854 -0.0347818 1.28653e-19 -0.161277 2.49474e-19 -0.0972058)
(-0.0709576 0.0174439 -1.71022e-20 -0.166347 -3.48155e-19 -0.0957426)
(-0.0147982 0.0615883 -4.1085e-19 -0.158441 2.32466e-19 -0.0701149)
(-0.0290102 -0.0669396 4.434e-19 -0.139413 -5.60819e-20 -0.0681827)
(-0.0952336 -0.0322402 -6.48022e-19 -0.158933 1.86517e-19 -0.102482)
(-0.0911346 0.0223173 -8.84121e-20 -0.162704 4.2251e-20 -0.102351)
(-0.0116855 0.0652576 -6.73879e-19 -0.141871 -2.9771e-20 -0.0622358)
(-0.0497323 -0.045735 -2.05236e-19 -0.175469 -8.44116e-21 -0.0908915)
(-0.13967 -0.0201425 1.00019e-19 -0.241939 2.47363e-19 -0.153458)
(-0.138424 0.0176333 -1.76702e-19 -0.246295 -1.6976e-19 -0.154702)
(-0.0403544 0.0457227 3.01092e-19 -0.178454 9.01296e-20 -0.0883341)
)
;

boundaryField
{
    plateFix
    {
        type            calculated;
        value           nonuniform List<symmTensor> 4((1.41815 -0.0318073 -1.3583e-21 0.708097 9.28031e-20 0.848936) (-0.384221 -0.210615 -6.66447e-24 -0.227098 4.84039e-23 -0.245605) (-1.54901 0.144775 5.46182e-23 -0.707375 -5.93336e-23 -0.903668) (-4.12231 0.946916 -1.38971e-21 -1.27763 -1.03597e-19 -2.16188));
    }
    plate
    {
        type            calculated;
        value           nonuniform List<symmTensor> 
168
(
(1.21339 -3.19449e-06 -2.98454e-22 0.399401 3.09169e-20 0.64357)
(-2.98544 -0.001087 -4.46884e-22 0.422286 8.12517e-22 -1.02705)
(1.23112 0.000153831 1.84085e-21 0.400176 -3.89329e-20 0.650952)
(-3.09875 -0.00105824 1.84981e-21 0.423058 3.74364e-20 -1.07211)
(1.22955 0.00064415 -3.38106e-21 0.401059 -5.62832e-23 0.650642)
(-3.24008 -0.0013826 -5.34478e-21 0.423942 3.70199e-20 -1.12834)
(1.19971 0.00139151 1.06954e-21 0.40189 8.10206e-22 0.639027)
(-3.27073 -0.00200332 4.27645e-21 0.424782 -3.39787e-20 -1.14029)
(1.15343 0.00233745 -4.03049e-22 0.402582 3.05254e-20 0.620777)
(-3.27592 -0.0028948 1.40278e-21 0.425486 3.44068e-20 -1.1421)
(1.09307 0.00342871 3.05075e-21 0.40306 -2.92549e-20 0.596817)
(-3.24741 -0.00397547 -2.27898e-21 0.42598 6.35053e-23 -1.1305)
(1.0227 0.00461198 -3.99444e-21 0.403287 -2.72191e-20 0.568757)
(-3.20385 -0.00518322 2.60094e-21 0.426227 -3.42467e-20 -1.11298)
(0.944692 0.00584106 2.07378e-21 0.403249 5.03518e-20 0.537535)
(-3.14748 -0.00645966 -2.31083e-21 0.426212 -2.58834e-20 -1.09043)
(0.860915 0.00708012 -2.44188e-21 0.402945 -2.40137e-21 0.5039)
(-3.08247 -0.00776207 2.11e-21 0.425935 2.79823e-20 -1.06454)
(0.772583 0.0083034 8.20004e-22 0.402376 -1.89469e-20 0.468338)
(-3.00962 -0.00905906 3.28181e-21 0.425397 2.22685e-20 -1.0356)
(0.680419 0.0094943 1.20318e-21 0.401544 -1.94164e-21 0.431139)
(-2.92949 -0.0103302 -4.93093e-21 0.424602 -1.896e-20 -1.00386)
(0.584766 0.0106437 -2.11766e-21 0.400449 -8.79071e-22 0.392439)
(-2.84206 -0.0115633 -3.71034e-21 0.423548 -2.3485e-20 -0.969296)
(0.485676 0.0117478 3.71312e-21 0.399081 -1.88866e-20 0.352257)
(-2.74727 -0.0127526 7.14919e-21 0.42223 3.2104e-20 -0.931891)
(0.383016 0.0128065 -4.13025e-21 0.397426 2.73384e-20 0.310533)
(-2.64502 -0.0138958 -4.43257e-22 0.420631 -1.82607e-20 -0.891614)
(0.276554 0.0138209 -1.24929e-21 0.395459 -9.29106e-21 0.267164)
(-2.53531 -0.0149927 6.17452e-21 0.418729 1.40772e-20 -0.848474)
(0.166029 0.0147918 4.00241e-21 0.393148 3.18312e-21 0.222033)
(-2.41818 -0.0160428 6.27688e-21 0.416492 5.54274e-22 -0.802495)
(0.051224 0.0157183 -7.10047e-22 0.390451 4.53018e-21 0.175035)
(-2.29369 -0.0170438 -2.8713e-21 0.413881 -9.66381e-21 -0.753724)
(-0.0680082 0.016596 2.76007e-20 0.387319 -7.59633e-23 0.126094)
(-2.16195 -0.01799 -1.06602e-20 0.410849 -2.26086e-22 -0.70222)
(-0.191668 0.0174182 -1.20354e-20 0.383706 -3.60272e-21 0.0751896)
(-2.02308 -0.0188735 -1.52416e-21 0.407348 -2.99286e-23 -0.648048)
(-0.31971 0.0181674 -3.56482e-20 0.379542 -3.40324e-23 0.0223118)
(-1.87723 -0.0196756 -5.99296e-23 0.403315 9.1392e-21 -0.591296)
(-0.451681 0.0188446 5.3519e-20 0.37483 -2.60755e-21 -0.0323564)
(-1.72464 -0.0203962 9.80523e-21 0.398752 1.52458e-22 -0.532062)
(-0.587682 0.0193768 6.72317e-21 0.369372 4.51795e-21 -0.0889349)
(-1.56548 -0.0209628 1.90479e-20 0.393465 -1.16885e-22 -0.470484)
(-0.730967 0.0200068 3.6965e-21 0.363436 2.95389e-24 -0.148618)
(-1.39448 -0.0216117 1.19304e-20 0.387722 -1.57807e-20 -0.404355)
(-0.876346 0.0206524 -4.79431e-20 0.356204 1.75768e-21 -0.209657)
(-1.21838 -0.0222555 -9.15799e-20 0.380734 1.31613e-20 -0.336685)
(-1.01405 0.0211442 2.87613e-21 0.349011 -7.08724e-21 -0.26761)
(-1.04796 -0.0227347 7.63608e-20 0.373799 -7.55723e-21 -0.271264)
(-1.14432 0.0216079 1.46341e-20 0.34139 7.15908e-21 -0.322761)
(-0.88382 -0.0231733 -1.46643e-20 0.366466 -1.93638e-23 -0.208518)
(-1.267 0.0220083 3.35952e-20 0.333705 -3.39773e-23 -0.374902)
(-0.725699 -0.0235416 -6.91791e-20 0.359094 -4.12474e-23 -0.148197)
(-1.38219 0.0224038 -4.897e-20 0.325815 -1.95823e-22 -0.424128)
(-0.573847 -0.0239005 3.01917e-20 0.351549 -7.05176e-21 -0.090453)
(-1.48976 0.0227906 6.87104e-20 0.317872 1.35436e-21 -0.470326)
(-0.428233 -0.0242506 8.55123e-20 0.34398 7.29978e-21 -0.0352158)
(-1.58968 0.0232001 -6.38409e-20 0.309852 6.49622e-21 -0.513499)
(-0.28898 -0.024627 3.83219e-20 0.336366 -1.48477e-22 0.0174582)
(-1.68187 0.0236424 2.11039e-20 0.301817 -3.21839e-21 -0.553582)
(-0.156116 -0.0250434 1.47981e-20 0.328767 -3.19489e-21 0.0675809)
(-1.76624 0.0241376 -3.99515e-20 0.293768 -2.99557e-21 -0.590543)
(-0.0297185 -0.0255236 -1.25142e-20 0.321179 2.88864e-21 0.115121)
(-1.84268 0.0246971 -1.3858e-19 0.285717 2.75062e-21 -0.624331)
(0.0901653 -0.0260824 9.61424e-20 0.313612 3.14017e-21 0.160063)
(-1.91108 0.0253327 7.85801e-20 0.277648 -1.26685e-21 -0.65491)
(0.203476 -0.0267347 -5.95511e-20 0.306043 -2.927e-21 0.202373)
(-1.97131 0.0260508 -1.13121e-19 0.269536 1.46359e-21 -0.682239)
(0.310161 -0.0274894 -3.23673e-20 0.298437 -2.96618e-21 0.242019)
(-2.02324 0.0268535 1.43699e-19 0.261333 2.75608e-21 -0.706287)
(0.41017 -0.028351 1.57654e-20 0.290735 2.98828e-21 0.278955)
(-2.06677 0.0277372 -7.98016e-20 0.252977 -1.92665e-21 -0.727028)
(0.503451 -0.0293172 -4.63847e-20 0.282861 -1.1288e-22 0.313131)
(-2.10175 0.0286922 -5.83071e-20 0.244385 9.1281e-23 -0.744449)
(0.589956 -0.0303793 1.33502e-19 0.27472 2.75763e-21 0.344489)
(-2.12811 0.0297022 4.63157e-20 0.235465 3.27481e-22 -0.758547)
(0.66964 -0.0315209 3.42581e-20 0.266197 -2.72119e-21 0.372966)
(-2.14575 0.0307442 1.13374e-19 0.226108 2.31667e-21 -0.769334)
(0.742457 -0.0327183 -2.14867e-19 0.257167 -3.50384e-23 0.398493)
(-2.15464 0.0317886 -5.0694e-20 0.2162 -5.01259e-23 -0.776837)
(0.808368 -0.0339403 -1.20553e-19 0.247494 7.84725e-23 0.421002)
(-2.15476 0.0327997 -1.89149e-19 0.205626 -2.21033e-21 -0.781099)
(0.867338 -0.0351488 1.50958e-19 0.23704 -2.50622e-21 0.440421)
(-2.14615 0.0337368 2.39877e-19 0.19427 -6.87303e-23 -0.782182)
(0.919342 -0.0362999 -1.02279e-19 0.225671 2.35264e-21 0.456688)
(-2.12891 0.0345551 2.25415e-19 0.18203 3.58996e-23 -0.780164)
(0.964361 -0.0373448 9.32607e-20 0.21326 3.05876e-23 0.469746)
(-2.10319 0.0352074 1.35173e-19 0.168816 7.3739e-22 -0.775142)
(1.0024 -0.0382321 -1.14287e-19 0.199702 -3.35467e-23 0.47955)
(-2.06922 0.0356459 -7.70944e-20 0.154564 1.53385e-21 -0.767233)
(1.03346 -0.0389088 -1.11688e-19 0.184914 2.10965e-24 0.486075)
(-2.02728 0.0358236 3.73306e-19 0.139233 -1.86797e-22 -0.756567)
(1.05759 -0.0393231 4.45195e-19 0.168844 -1.78471e-21 0.489315)
(-1.97774 0.0356967 -2.07893e-20 0.122818 1.1568e-21 -0.743294)
(1.07486 -0.0394257 -3.10952e-19 0.151478 3.26679e-21 0.489291)
(-1.92103 0.0352262 6.1375e-20 0.105347 -1.17801e-21 -0.727578)
(1.08536 -0.0391725 -5.20723e-20 0.132842 4.16138e-22 0.486052)
(-1.85767 0.0343795 -1.89648e-21 0.0868857 -5.05943e-22 -0.709597)
(1.08923 -0.0385258 -1.64907e-19 0.113001 -7.19599e-22 0.479678)
(-1.78824 0.0331319 -2.22438e-20 0.0675366 -7.88842e-22 -0.68954)
(1.08663 -0.0374561 7.51754e-20 0.0920676 -3.18699e-21 0.470281)
(-1.71337 0.0314673 -2.83176e-20 0.0474371 2.35194e-21 -0.667608)
(1.07778 -0.0359435 4.90745e-20 0.070191 2.06523e-21 0.458006)
(-1.63375 0.0293796 3.18669e-19 0.0267569 1.96931e-21 -0.64401)
(1.06294 -0.0339778 1.16863e-19 0.0475592 -7.51831e-23 0.443033)
(-1.55013 0.0268721 9.46724e-21 0.00569199 2.03685e-21 -0.618964)
(1.04241 -0.0315597 -4.10296e-19 0.0243913 -9.86113e-22 0.425567)
(-1.46327 0.0239583 2.42225e-20 -0.0155404 -1.89632e-21 -0.592691)
(1.01652 -0.0287 1.16651e-19 0.000931588 -2.01724e-22 0.405845)