/*--------------------------------*- C++ -*----------------------------------*\
| =========                 |                                                 |
| \\      /  F ield         | OpenFOAM Extend Project: Open source CFD        |
|  \\    /   O peration     | Version:  1.6-ext                               |
|   \\  /    A nd           | Web:      www.extend-project.de                 |
|    \\/     M anipulation  |                                                 |
\*---------------------------------------------------------------------------*/
FoamFile
{
    version     2.0;
    format      ascii;
    class       volScalarField;
    location    "0.55";
    object      sigmaEq;
}
// * * * * * * * * * * * * * * * * * * * * * * * * * * * * * * * * * * * * * //

dimensions      [1 -1 -2 0 0 0 0];

internalField   nonuniform List<scalar> 
328
(
0.655859
0.252131
0.909756
2.84329
0.67639
0.236141
1.31945
2.92275
0.678508
0.387867
1.65326
3.04965
0.658803
0.541294
1.85046
3.10181
0.627078
0.667074
1.97724
3.12673
0.585273
0.763499
2.04356
3.1169
0.536514
0.833976
2.07331
3.08803
0.482935
0.883623
2.07619
3.04431
0.426796
0.917734
2.06206
2.99075
0.370686
0.94129
2.03648
2.92921
0.318143
0.95853
2.00377
2.86084
0.274633
0.972782
1.96651
2.78597
0.248275
0.986428
1.92637
2.70474
0.247783
1.00098
1.88419
2.61712
0.27613
1.01723
1.84028
2.52311
0.328406
1.03546
1.79461
2.42269
0.397451
1.05556
1.74694
2.31587
0.477958
1.07726
1.69694
2.20266
0.566667
1.10018
1.64429
2.08311
0.661631
1.12394
1.58868
1.95727
0.761417
1.14812
1.52991
1.82533
0.865206
1.17234
1.46777
1.6873
0.975466
1.19674
1.39937
1.53872
1.08753
1.22152
1.32835
1.38495
1.19377
1.24379
1.25873
1.2361
1.29388
1.26349
1.19036
1.09225
1.38789
1.2807
1.1233
0.953505
1.47571
1.2954
1.05758
0.820002
1.55728
1.3076
0.993273
0.691923
1.63254
1.31728
0.930425
0.569487
1.70141
1.32441
0.869069
0.453033
1.76381
1.32896
0.809223
0.343183
1.81963
1.33087
0.750893
0.241423
1.86876
1.33007
0.694069
0.152534
1.91105
1.32648
0.63873
0.0967984
1.94635
1.31998
0.584845
0.115847
1.97449
1.31048
0.532371
0.180095
1.99531
1.29784
0.481266
0.25225
2.00862
1.28194
0.431488
0.32317
2.01427
1.26266
0.383009
0.390521
2.01212
1.23989
0.335825
0.453537
2.00206
1.21354
0.289976
0.511934
1.98403
1.18354
0.245581
0.565611
1.95801
1.14987
0.202904
0.614552
1.92407
1.11255
0.162498
0.658772
1.88232
1.07165
0.125566
0.698301
1.833
1.02731
0.0948797
0.733177
1.7764
0.979725
0.0764709
0.763433
1.71293
0.929162
0.0775659
0.7891
1.64306
0.875951
0.095856
0.810207
1.5674
0.820492
0.122494
0.826784
1.48658
0.763244
0.151873
0.838863
1.40136
0.704723
0.181464
0.846486
1.31254
0.645495
0.210052
0.849709
1.22096
0.586171
0.236947
0.848604
1.12751
0.527398
0.261698
0.843268
1.03308
0.469862
0.28398
0.833828
0.93859
0.414288
0.303551
0.820439
0.844923
0.361452
0.320228
0.803292
0.75295
0.312204
0.333884
0.782613
0.663511
0.267506
0.344443
0.758664
0.577408
0.228468
0.351878
0.731739
0.495411
0.196342
0.356207
0.702163
0.418272
0.172374
0.357495
0.670289
0.346762
0.157337
0.355846
0.636491
0.281738
0.15088
0.351402
0.60116
0.224281
0.151274
0.344337
0.564697
0.175932
0.156
0.33485
0.527506
0.138995
0.162628
0.32316
0.489988
0.116296
0.169291
0.309496
0.452537
0.108937
0.174732
0.294097
0.415528
0.113427
0.178163
0.277189
0.379318
0.123614
0.179114
0.258985
0.344241
0.134636
0.177306
0.239645
0.310602
0.143831
0.172579
0.219266
0.278719
0.149995
0.164717
0.197717
0.248887
0.153032
0.153553
0.174749
0.221702
0.153211
0.138225
0.149246
0.197643
0.152796
0.119271
0.121503
0.179142
0.150323
0.0957287
0.090896
0.164702
0.151133
0.0822597
0.0770679
0.160307
0.136395
0.102255
0.105252
0.14498
)
;

boundaryField
{
    plateFix
    {
        type            calculated;
        value           nonuniform List<scalar> 4(0.653488 0.393952 0.802844 3.0081);
    }
    plate
    {
        type            calculated;
        value           nonuniform List<scalar> 
168
(
0.723496
2.96213
0.738224
3.06153
0.736143
3.18544
0.709625
3.21287
0.669001
3.218
0.616434
3.19358
0.555538
3.15583
0.488454
3.1067
0.416946
3.04983
0.342332
2.98589
0.265828
2.91541
0.189349
2.83834
0.118996
2.75462
0.0836539
2.66419
0.126159
2.56699
0.206534
2.46305
0.298572
2.35239
0.396793
2.23506
0.499635
2.11113
0.606434
1.98067
0.71655
1.8439
0.829759
1.70081
0.949065
1.54705
1.06921
1.38784
1.1828
1.23366
1.28961
1.08468
1.38981
0.940998
1.48334
0.802751
1.57021
0.67011
1.65039
0.543278
1.72382
0.422571
1.79045
0.308607
1.85017
0.203068
1.90289
0.113042
1.94846
0.0790502
1.98674
0.134988
2.01756
0.213254
2.04076
0.291577
2.05615
0.366157
2.06359
0.436012
2.06294
0.500824
2.05407
0.560495
2.03694
0.615021
2.01154
0.664436
1.97791
0.708791
1.9362
0.748146
1.88662
0.782559
1.82948
0.81209
1.76518
0.836791
1.69424
0.856719
1.61722
0.871926
1.53481
0.882474
1.44775
0.88843
1.35687
0.889877
1.26301
0.886917
1.16707
0.879673
1.06998
0.868297
0.972644
0.852971
0.875969
0.833909
0.780833
0.811361
0.688078
0.785608
0.598501
0.756963
0.512856
0.725771
0.431861
0.692399
0.356226
0.657237
0.286706
0.620689
0.224228
0.583168
0.170178
0.545092
0.126991
0.506872
0.0988928
0.468911
0.0900172
0.431595
0.0974769
0.395293
0.112385
0.360348
0.12809
0.327079
0.141508
0.295813
0.151439
0.266835
0.15779
0.24068
0.160713
0.217586
0.162171
0.199486
0.161588
0.185101
0.170599
0.18615
0.177519
0.108367
0.0999526
0.104555
0.117487
0.189437
)
;
    }
    frontAndBackPlanes
    {
        type            empty;
    }
}


// ************************************************************************* //
