/*--------------------------------*- C++ -*----------------------------------*\
| =========                 |                                                 |
| \\      /  F ield         | OpenFOAM Extend Project: Open source CFD        |
|  \\    /   O peration     | Version:  1.6-ext                               |
|   \\  /    A nd           | Web:      www.extend-project.de                 |
|    \\/     M anipulation  |                                                 |
\*---------------------------------------------------------------------------*/
FoamFile
{
    version     2.0;
    format      ascii;
    class       volVectorField;
    location    "0.55";
    object      Usolid;
}
// * * * * * * * * * * * * * * * * * * * * * * * * * * * * * * * * * * * * * //

dimensions      [0 1 0 0 0 0 0];

internalField   nonuniform List<vector> 
328
(
(2.84726e-08 2.12459e-09 0)
(-6.98557e-09 -1.76837e-08 0)
(-3.23046e-08 1.87126e-08 0)
(-9.79523e-08 1.76344e-07 0)
(8.84751e-08 2.10007e-08 0)
(-2.30711e-08 -1.44594e-08 0)
(-1.11402e-07 9.1801e-08 0)
(-2.99303e-07 4.67948e-07 0)
(1.54096e-07 7.01591e-08 0)
(-4.72959e-08 3.16922e-08 0)
(-2.25563e-07 2.03993e-07 0)
(-5.32103e-07 7.20086e-07 0)
(2.22928e-07 1.57981e-07 0)
(-7.92901e-08 1.24653e-07 0)
(-3.60045e-07 3.53931e-07 0)
(-7.83804e-07 9.52448e-07 0)
(2.93869e-07 2.90989e-07 0)
(-1.20434e-07 2.67233e-07 0)
(-5.16266e-07 5.4252e-07 0)
(-1.05618e-06 1.18588e-06 0)
(3.65459e-07 4.75492e-07 0)
(-1.70512e-07 4.63889e-07 0)
(-6.8937e-07 7.73634e-07 0)
(-1.34648e-06 1.43765e-06 0)
(4.36432e-07 7.17841e-07 0)
(-2.29633e-07 7.19572e-07 0)
(-8.7839e-07 1.05321e-06 0)
(-1.65471e-06 1.72311e-06 0)
(5.05497e-07 1.02489e-06 0)
(-2.97569e-07 1.04046e-06 0)
(-1.08146e-06 1.38899e-06 0)
(-1.98035e-06 2.05587e-06 0)
(5.71356e-07 1.4042e-06 0)
(-3.74295e-07 1.43375e-06 0)
(-1.29786e-06 1.79018e-06 0)
(-2.32342e-06 2.44873e-06 0)
(6.32645e-07 1.86429e-06 0)
(-4.59899e-07 1.90789e-06 0)
(-1.52694e-06 2.26714e-06 0)
(-2.68378e-06 2.91411e-06 0)
(6.87896e-07 2.41478e-06 0)
(-5.54735e-07 2.47252e-06 0)
(-1.76849e-06 2.83127e-06 0)
(-3.06131e-06 3.46456e-06 0)
(7.35475e-07 3.06649e-06 0)
(-6.59411e-07 3.13859e-06 0)
(-2.0225e-06 3.49487e-06 0)
(-3.45566e-06 4.11297e-06 0)
(7.73544e-07 3.83144e-06 0)
(-7.74811e-07 3.91822e-06 0)
(-2.28911e-06 4.27113e-06 0)
(-3.86629e-06 4.87279e-06 0)
(7.9999e-07 4.72285e-06 0)
(-9.02067e-07 4.82475e-06 0)
(-2.56857e-06 5.17399e-06 0)
(-4.29241e-06 5.7581e-06 0)
(8.12387e-07 5.75495e-06 0)
(-1.04254e-06 5.87248e-06 0)
(-2.86114e-06 6.21815e-06 0)
(-4.73292e-06 6.78361e-06 0)
(8.07934e-07 6.94287e-06 0)
(-1.1978e-06 7.07661e-06 0)
(-3.16705e-06 7.41891e-06 0)
(-5.18641e-06 7.96462e-06 0)
(7.83417e-07 8.30234e-06 0)
(-1.36957e-06 8.45287e-06 0)
(-3.48642e-06 8.79201e-06 0)
(-5.65111e-06 9.31682e-06 0)
(7.3516e-07 9.84932e-06 0)
(-1.55975e-06 1.00172e-05 0)
(-3.81924e-06 1.03533e-05 0)
(-6.12483e-06 1.08561e-05 0)
(6.58993e-07 1.15996e-05 0)
(-1.77037e-06 1.17854e-05 0)
(-4.1653e-06 1.21184e-05 0)
(-6.60489e-06 1.25979e-05 0)
(5.50233e-07 1.3568e-05 0)
(-2.00361e-06 1.37723e-05 0)
(-4.52418e-06 1.4102e-05 0)
(-7.08812e-06 1.4557e-05 0)
(4.03614e-07 1.57679e-05 0)
(-2.26178e-06 1.59911e-05 0)
(-4.89522e-06 1.63173e-05 0)
(-7.57075e-06 1.67465e-05 0)
(2.13428e-07 1.821e-05 0)
(-2.54728e-06 1.84524e-05 0)
(-5.27748e-06 1.87747e-05 0)
(-8.04841e-06 1.9177e-05 0)
(-3.60919e-08 2.10036e-05 0)
(-2.87478e-06 2.12662e-05 0)
(-5.68467e-06 2.1584e-05 0)
(-8.53373e-06 2.1957e-05 0)
(-3.46615e-07 2.40544e-05 0)
(-3.23609e-06 2.43372e-05 0)
(-6.0983e-06 2.46499e-05 0)
(-8.99831e-06 2.49925e-05 0)
(-6.98289e-07 2.71336e-05 0)
(-3.60709e-06 2.74353e-05 0)
(-6.49009e-06 2.77427e-05 0)
(-9.40953e-06 2.80559e-05 0)
(-1.08876e-06 3.02103e-05 0)
(-3.98678e-06 3.05295e-05 0)
(-6.86046e-06 3.08315e-05 0)
(-9.76923e-06 3.11161e-05 0)
(-1.51572e-06 3.32549e-05 0)
(-4.37421e-06 3.35905e-05 0)
(-7.20982e-06 3.38867e-05 0)
(-1.00791e-05 3.41437e-05 0)
(-1.97685e-06 3.62392e-05 0)
(-4.76843e-06 3.65899e-05 0)
(-7.5386e-06 3.68803e-05 0)
(-1.03411e-05 3.71105e-05 0)
(-2.46985e-06 3.91365e-05 0)
(-5.1685e-06 3.9501e-05 0)
(-7.84725e-06 3.97854e-05 0)
(-1.05569e-05 3.99898e-05 0)
(-2.9924e-06 4.19212e-05 0)
(-5.57351e-06 4.22983e-05 0)
(-8.13624e-06 4.25765e-05 0)
(-1.07285e-05 4.27562e-05 0)
(-3.54218e-06 4.45693e-05 0)
(-5.98253e-06 4.49578e-05 0)
(-8.40606e-06 4.52298e-05 0)
(-1.08578e-05 4.53856e-05 0)
(-4.11683e-06 4.70583e-05 0)
(-6.39464e-06 4.74569e-05 0)
(-8.65721e-06 4.77225e-05 0)
(-1.09466e-05 4.78554e-05 0)
(-4.714e-06 4.9367e-05 0)
(-6.8089e-06 4.97744e-05 0)
(-8.89019e-06 5.00335e-05 0)
(-1.0997e-05 5.01445e-05 0)
(-5.33128e-06 5.14757e-05 0)
(-7.22437e-06 5.18906e-05 0)
(-9.10552e-06 5.2143e-05 0)
(-1.10108e-05 5.22332e-05 0)
(-5.96623e-06 5.33661e-05 0)
(-7.64008e-06 5.37871e-05 0)
(-9.30371e-06 5.40327e-05 0)
(-1.09901e-05 5.4103e-05 0)
(-6.61638e-06 5.50214e-05 0)
(-8.05505e-06 5.54473e-05 0)
(-9.48526e-06 5.56857e-05 0)
(-1.09368e-05 5.57372e-05 0)
(-7.2792e-06 5.64264e-05 0)
(-8.46827e-06 5.68557e-05 0)
(-9.65066e-06 5.70869e-05 0)
(-1.08531e-05 5.71204e-05 0)
(-7.95211e-06 5.75674e-05 0)
(-8.8787e-06 5.79986e-05 0)
(-9.80038e-06 5.82223e-05 0)
(-1.07407e-05 5.82389e-05 0)
(-8.6325e-06 5.84322e-05 0)
(-9.28525e-06 5.88639e-05 0)
(-9.9349e-06 5.90798e-05 0)
(-1.06018e-05 5.90803e-05 0)
(-9.3177e-06 5.90101e-05 0)
(-9.68682e-06 5.94408e-05 0)
(-1.00546e-05 5.96485e-05 0)
(-1.04383e-05 5.96338e-05 0)
(-1.0005e-05 5.92923e-05 0)
(-1.00823e-05 5.97202e-05 0)
(-1.016e-05 5.99195e-05 0)
(-1.02521e-05 5.98904e-05 0)
(-1.06917e-05 5.92711e-05 0)
(-1.04705e-05 5.96947e-05 0)
(-1.02515e-05 5.98851e-05 0)
(-1.00453e-05 5.98425e-05 0)
(-1.13749e-05 5.89407e-05 0)
(-1.08502e-05 5.93584e-05 0)
(-1.03294e-05 5.95395e-05 0)
(-9.81975e-06 5.94841e-05 0)
(-1.2052e-05 5.8297e-05 0)
(-1.12203e-05 5.8707e-05 0)
(-1.03941e-05 5.88783e-05 0)
(-9.57738e-06 5.8811e-05 0)
(-1.27202e-05 5.73371e-05 0)
(-1.15796e-05 5.77378e-05 0)
(-1.04459e-05 5.78989e-05 0)
(-9.32009e-06 5.78202e-05 0)
(-1.33769e-05 5.606e-05 0)
(-1.19269e-05 5.64498e-05 0)
(-1.04853e-05 5.66002e-05 0)
(-9.04976e-06 5.65109e-05 0)
(-1.40192e-05 5.44661e-05 0)
(-1.22612e-05 5.48433e-05 0)
(-1.05126e-05 5.49826e-05 0)
(-8.76823e-06 5.48833e-05 0)
(-1.46449e-05 5.25573e-05 0)
(-1.25812e-05 5.29205e-05 0)
(-1.05281e-05 5.30481e-05 0)
(-8.47735e-06 5.29396e-05 0)
(-1.52513e-05 5.03371e-05 0)
(-1.28861e-05 5.06848e-05 0)
(-1.05323e-05 5.08004e-05 0)
(-8.17892e-06 5.06833e-05 0)
(-1.58363e-05 4.78104e-05 0)
(-1.3175e-05 4.81411e-05 0)
(-1.05257e-05 4.82445e-05 0)
(-7.87472e-06 4.81194e-05 0)
(-1.63977e-05 4.49834e-05 0)
(-1.34469e-05 4.52959e-05 0)
(-1.05086e-05 4.53867e-05 0)
(-7.5665e-06 4.52544e-05 0)
(-1.69337e-05 4.18634e-05 0)
(-1.37013e-05 4.21568e-05 0)
(-1.04815e-05 4.22347e-05 0)
(-7.25598e-06 4.20959e-05 0)
(-1.74426e-05 3.84593e-05 0)
(-1.39375e-05 3.87325e-05 0)
(-1.04451e-05 3.87976e-05 0)
(-6.94485e-06 3.8653e-05 0)
(-1.7923e-05 3.47808e-05 0)
(-1.41552e-05 3.50332e-05 0)
(-1.04e-05 3.50855e-05 0)
(-6.63473e-06 3.49358e-05 0)
(-1.83738e-05 3.08387e-05 0)
(-1.43542e-05 3.10697e-05 0)
(-1.03467e-05 3.11093e-05 0)
(-6.32721e-06 3.09554e-05 0)
(-1.87941e-05 2.66447e-05 0)
(-1.45344e-05 2.68541e-05 0)
(-1.02861e-05 2.68811e-05 0)
(-6.02381e-06 2.67237e-05 0)
(-1.91833e-05 2.22112e-05 0)
(-1.46958e-05 2.23988e-05 0)
(-1.02189e-05 2.24137e-05 0)
(-5.72599e-06 2.22537e-05 0)
(-1.95412e-05 1.75513e-05 0)
(-1.48387e-05 1.77171e-05 0)
(-1.01459e-05 1.77204e-05 0)
(-5.43511e-06 1.75587e-05 0)
(-1.98677e-05 1.26786e-05 0)
(-1.49636e-05 1.2823e-05 0)
(-1.00679e-05 1.28151e-05 0)
(-5.15246e-06 1.26525e-05 0)
(-2.01632e-05 7.607e-06 0)
(-1.50709e-05 7.73046e-06 0)
(-9.98581e-06 7.71212e-06 0)
(-4.87921e-06 7.54955e-06 0)
(-2.04281e-05 2.35073e-06 0)
(-1.51615e-05 2.45393e-06 0)
(-9.9005e-06 2.42588e-06 0)
(-4.61644e-06 2.26416e-06 0)
(-2.06633e-05 -3.0759e-06 0)
(-1.52361e-05 -2.99213e-06 0)
(-9.81285e-06 -3.02905e-06 0)
(-4.3651e-06 -3.1891e-06 0)
(-2.08698e-05 -8.65858e-06 0)
(-1.52956e-05 -8.59326e-06 0)
(-9.72375e-06 -8.63817e-06 0)
(-4.12601e-06 -8.79574e-06 0)
(-2.10488e-05 -1.43831e-05 0)
(-1.53412e-05 -1.43352e-05 0)
(-9.63406e-06 -1.43872e-05 0)
(-3.89986e-06 -1.45415e-05 0)
(-2.12018e-05 -2.02357e-05 0)
(-1.53739e-05 -2.02038e-05 0)
(-9.54462e-06 -2.02619e-05 0)
(-3.68721e-06 -2.04123e-05 0)
(-2.13303e-05 -2.62027e-05 0)
(-1.5395e-05 -2.61856e-05 0)
(-9.45622e-06 -2.62489e-05 0)
(-3.48848e-06 -2.63946e-05 0)
(-2.1436e-05 -3.2271e-05 0)
(-1.54055e-05 -3.22674e-05 0)
(-9.36961e-06 -3.23348e-05 0)
(-3.30393e-06 -3.24754e-05 0)
(-2.15208e-05 -3.84282e-05 0)
(-1.54069e-05 -3.84366e-05 0)
(-9.28551e-06 -3.85072e-05 0)
(-3.13371e-06 -3.86421e-05 0)
(-2.15866e-05 -4.46623e-05 0)
(-1.54003e-05 -4.46813e-05 0)
(-9.20453e-06 -4.47542e-05 0)
(-2.97783e-06 -4.48829e-05 0)
(-2.16354e-05 -5.09622e-05 0)
(-1.5387e-05 -5.09903e-05 0)
(-9.12727e-06 -5.10646e-05 0)
(-2.83615e-06 -5.11868e-05 0)
(-2.16692e-05 -5.73176e-05 0)
(-1.53684e-05 -5.73533e-05 0)
(-9.05424e-06 -5.7428e-05 0)
(-2.70843e-06 -5.75434e-05 0)
(-2.169e-05 -6.37188e-05 0)
(-1.53456e-05 -6.37607e-05 0)
(-8.98589e-06 -6.3835e-05 0)
(-2.59434e-06 -6.39434e-05 0)
(-2.16999e-05 -7.01572e-05 0)
(-1.53199e-05 -7.02038e-05 0)
(-8.92262e-06 -7.02769e-05 0)
(-2.49341e-06 -7.03781e-05 0)
(-2.17009e-05 -7.66251e-05 0)
(-1.52924e-05 -7.6675e-05 0)
(-8.86478e-06 -7.67461e-05 0)
(-2.40514e-06 -7.684e-05 0)
(-2.1695e-05 -8.31157e-05 0)
(-1.52644e-05 -8.31674e-05 0)
(-8.81271e-06 -8.32357e-05 0)
(-2.32894e-06 -8.33222e-05 0)
(-2.16841e-05 -8.9623e-05 0)
(-1.5237e-05 -8.96753e-05 0)
(-8.76671e-06 -8.97398e-05 0)
(-2.26416e-06 -8.98188e-05 0)
(-2.16702e-05 -9.61424e-05 0)
(-1.52114e-05 -9.61938e-05 0)
(-8.72726e-06 -9.62534e-05 0)
(-2.21016e-06 -9.63249e-05 0)
(-2.16548e-05 -0.00010267 0)
(-1.51891e-05 -0.000102719 0)
(-8.69484e-06 -0.000102772 0)
(-2.16609e-06 -0.000102836 0)
(-2.16396e-05 -0.000109203 0)
(-1.51722e-05 -0.000109249 0)
(-8.67096e-06 -0.000109293 0)
(-2.13138e-06 -0.000109349 0)
(-2.16247e-05 -0.000115739 0)
(-1.51619e-05 -0.00011578 0)
(-8.65618e-06 -0.000115813 0)
(-2.10406e-06 -0.000115861 0)
(-2.16128e-05 -0.000122269 0)
(-1.51634e-05 -0.000122308 0)
(-8.65507e-06 -0.000122336 0)
(-2.0848e-06 -0.000122378 0)
(-2.1594e-05 -0.000128769 0)
(-1.51636e-05 -0.000128823 0)
(-8.65411e-06 -0.000128867 0)
(-2.06238e-06 -0.000128925 0)
)
;

boundaryField
{
    plateFix
    {
        type            fixedDisplacement;
        value           uniform (0 0 0);
    }
    plate
    {
        type            solidTraction;
        nonLinear       updatedLagrangian;
        traction        uniform (0 0 0);
        pressure        uniform 0;
        value           nonuniform List<vector> 
168
(
(5.56936e-08 6.60123e-08 -9.68024e-26)
(-8.91827e-07 5.34677e-07 -1.07931e-25)
(1.65839e-07 8.6458e-08 1.7907e-25)
(-9.35566e-07 8.37795e-07 -1.65897e-26)
(3.00759e-07 1.35392e-07 2.72573e-26)
(-1.0602e-06 1.10411e-06 1.41861e-25)
(4.44147e-07 2.2015e-07 -1.8471e-26)
(-1.25671e-06 1.33962e-06 2.7974e-26)
(5.90829e-07 3.48485e-07 -8.30871e-26)
(-1.51529e-06 1.57363e-06 -7.813e-26)
(7.379e-07 5.26934e-07 7.68361e-26)
(-1.82048e-06 1.82257e-06 2.35186e-26)
(8.83484e-07 7.6227e-07 -9.03529e-26)
(-2.16348e-06 2.10368e-06 -4.95716e-27)
(1.02627e-06 1.06158e-06 3.23907e-27)
(-2.53739e-06 2.43077e-06 -6.87511e-26)
(1.1652e-06 1.43261e-06 -5.83399e-26)
(-2.938e-06 2.81705e-06 1.08778e-25)
(1.29926e-06 1.88401e-06 1.02468e-25)
(-3.36231e-06 3.27504e-06 -6.37947e-26)
(1.42731e-06 2.42546e-06 -6.22493e-26)
(-3.80819e-06 3.81733e-06 1.96643e-27)
(1.54793e-06 3.06782e-06 7.83523e-26)
(-4.27386e-06 4.45682e-06 1.2158e-26)
(1.65929e-06 3.82312e-06 -4.86923e-26)
(-4.75768e-06 5.20695e-06 3.25837e-26)
(1.75913e-06 4.70456e-06 -1.12607e-26)
(-5.25791e-06 6.08178e-06 -4.87097e-26)
(1.84463e-06 5.72635e-06 1.4704e-26)
(-5.77259e-06 7.09603e-06 1.99047e-26)
(1.91243e-06 6.90361e-06 5.35996e-27)
(-6.29945e-06 8.26499e-06 -1.70975e-26)
(1.95852e-06 8.25203e-06 2.90932e-26)
(-6.83577e-06 9.60436e-06 1.6968e-26)
(1.97827e-06 9.78759e-06 -1.71182e-26)
(-7.37835e-06 1.113e-05 -6.13366e-26)
(1.96636e-06 1.1526e-05 -1.16491e-26)
(-7.92338e-06 1.28574e-05 4.75861e-26)
(1.91678e-06 1.34823e-05 1.15041e-26)
(-8.46634e-06 1.48013e-05 3.51544e-27)
(1.82274e-06 1.56698e-05 -1.03818e-26)
(-9.00197e-06 1.6975e-05 2.34169e-26)
(1.67677e-06 1.80991e-05 1.00715e-26)
(-9.52414e-06 1.93888e-05 1.65676e-27)
(1.46192e-06 2.08792e-05 -7.40507e-27)
(-1.00444e-05 2.21509e-05 -2.24476e-26)
(1.17326e-06 2.39165e-05 1.83067e-26)
(-1.05312e-05 2.51678e-05 4.02651e-26)
(8.27795e-07 2.6983e-05 -2.76782e-26)
(-1.09489e-05 2.82131e-05 -5.22109e-26)
(4.28443e-07 3.00478e-05 2.73019e-26)
(-1.12999e-05 3.12559e-05 2.0595e-26)
(-2.17784e-08 3.30813e-05 2.25938e-26)
(-1.15867e-05 3.42667e-05 -3.95409e-26)
(-5.19906e-07 3.60552e-05 -3.05308e-26)
(-1.18118e-05 3.72173e-05 6.31365e-26)
(-1.06293e-06 3.89428e-05 -1.1825e-27)
(-1.19778e-05 4.0081e-05 -4.59957e-26)
(-1.64786e-06 4.17187e-05 -1.70879e-27)
(-1.20873e-05 4.28324e-05 -4.6892e-27)
(-2.27166e-06 4.43588e-05 3.31239e-27)
(-1.21427e-05 4.54475e-05 3.0037e-26)
(-2.93128e-06 4.68405e-05 -3.33232e-27)
(-1.21469e-05 4.79037e-05 2.73512e-27)
(-3.62366e-06 4.91427e-05 -2.46735e-27)
(-1.21024e-05 5.01798e-05 -5.30741e-27)
(-4.34566e-06 5.12456e-05 5.72345e-27)
(-1.20119e-05 5.22561e-05 -3.81007e-26)
(-5.0941e-06 5.31311e-05 -1.73234e-26)
(-1.18781e-05 5.41142e-05 4.29997e-26)
(-5.86578e-06 5.47824e-05 1.57242e-26)
(-1.17039e-05 5.57374e-05 -1.64675e-26)
(-6.65739e-06 5.61843e-05 6.74473e-27)
(-1.14918e-05 5.71102e-05 4.65944e-27)
(-7.4656e-06 5.7323e-05 -4.33092e-26)
(-1.12448e-05 5.82189e-05 1.35492e-26)
(-8.28699e-06 5.81864e-05 3.06098e-26)
(-1.09654e-05 5.90511e-05 -1.87139e-26)
(-9.11811e-06 5.8764e-05 -1.34466e-26)
(-1.06565e-05 5.95961e-05 9.8982e-27)
(-9.95545e-06 5.90467e-05 6.80958e-27)
(-1.03209e-05 5.98447e-05 -8.85522e-27)
(-1.07955e-05 5.9027e-05 3.70934e-26)
(-9.96113e-06 5.97894e-05 -2.83027e-26)
(-1.16345e-05 5.86992e-05 -2.54799e-26)
(-9.58007e-06 5.94242e-05 -9.0881e-27)
(-1.24692e-05 5.8059e-05 -4.46948e-27)
(-9.18038e-06 5.87447e-05 -5.15e-26)
(-1.32958e-05 5.71036e-05 -1.50945e-26)
(-8.76472e-06 5.77482e-05 9.00408e-27)
(-1.41108e-05 5.5832e-05 7.82432e-27)
(-8.33575e-06 5.64335e-05 2.41089e-26)
(-1.49109e-05 5.42446e-05 -5.87078e-26)
(-7.89608e-06 5.48011e-05 -1.06506e-26)
(-1.56928e-05 5.23433e-05 -2.64752e-27)
(-7.4483e-06 5.28531e-05 5.07623e-26)
(-1.64532e-05 5.01315e-05 9.73779e-27)
(-6.99492e-06 5.05929e-05 2.07236e-26)
(-1.71892e-05 4.76139e-05 -1.0948e-26)
(-6.53843e-06 4.80256e-05 -1.81632e-26)
(-1.78981e-05 4.47967e-05 1.73876e-26)
(-6.08125e-06 4.51577e-05 -3.73327e-27)
(-1.85773e-05 4.16873e-05 4.48375e-26)
(-5.62572e-06 4.19968e-05 2.69271e-26)
(-1.92246e-05 3.82943e-05 1.47124e-26)
(-5.17412e-06 3.85519e-05 1.4158e-27)
(-1.9838e-05 3.46274e-05 -2.43757e-26)
(-4.72861e-06 3.48332e-05 -1.08206e-25)
(-2.0416e-05 3.06972e-05 -2.26067e-26)
(-4.29125e-06 3.08518e-05 5.25912e-26)
(-2.09573e-05 2.65154e-05 -2.12031e-26)
(-3.864e-06 2.66197e-05 -6.39207e-27)
(-2.1461e-05 2.20942e-05 1.34645e-26)
(-3.44866e-06 2.21496e-05 -4.58042e-26)
(-2.19266e-05 1.74465e-05 7.57802e-26)
(-3.04691e-06 1.74551e-05 4.97256e-26)
(-2.23537e-05 1.2586e-05 1.15867e-26)
(-2.66026e-06 1.25499e-05 -1.39882e-26)
(-2.27427e-05 7.52629e-06 9.27974e-26)
(-2.29005e-06 7.44833e-06 3.02481e-26)
(-2.3094e-05 2.28162e-06 -9.17399e-27)
(-1.93746e-06 2.1648e-06 -7.5339e-26)
(-2.34083e-05 -3.13382e-06 -1.64868e-27)
(-1.60346e-06 -3.28616e-06 6.91925e-26)
(-2.36868e-05 -8.70582e-06 -7.16167e-27)
(-1.28885e-06 -8.89012e-06 1.00775e-26)
(-2.39308e-05 -1.44203e-05 3.53668e-26)
(-9.94234e-07 -1.46328e-05 -4.58855e-26)
(-2.41419e-05 -2.02634e-05 9.3181e-26)
(-7.20006e-07 -2.05003e-05 8.55163e-26)
(-2.43219e-05 -2.62216e-05 8.06332e-26)
(-4.66381e-07 -2.64789e-05 -1.13583e-25)
(-2.44729e-05 -3.2282e-05 -6.18188e-26)
(-2.33381e-07 -3.25558e-05 7.01205e-26)
(-2.45969e-05 -3.84319e-05 2.57987e-26)
(-2.08441e-08 -3.87184e-05 6.45855e-26)
(-2.46962e-05 -4.46596e-05 7.0334e-26)
(1.71564e-07 -4.4955e-05 -1.76948e-26)
(-2.47732e-05 -5.0954e-05 -8.64373e-26)
(3.44339e-07 -5.12545e-05 9.7017e-26)
(-2.48304e-05 -5.73046e-05 8.12818e-26)
(4.98126e-07 -5.76067e-05 1.20994e-25)
(-2.48702e-05 -6.37018e-05 5.73837e-26)
(6.33701e-07 -6.40022e-05 -2.80176e-26)
(-2.4895e-05 -7.01371e-05 -1.79459e-25)
(7.51949e-07 -7.04326e-05 1.52813e-25)
(-2.49074e-05 -7.66027e-05 -1.28938e-25)
(8.5385e-07 -7.689e-05 7.34453e-26)
(-2.49099e-05 -8.30916e-05 -1.46562e-25)
(9.40439e-07 -8.33679e-05 -1.10146e-25)
(-2.49048e-05 -8.95982e-05 6.77571e-26)
(1.01281e-06 -8.98603e-05 1.1932e-25)
(-2.48945e-05 -9.61174e-05 1.47325e-25)
(1.07204e-06 -9.63622e-05 -4.37474e-26)
(-2.48811e-05 -0.000102646 -5.45155e-26)
(1.11941e-06 -0.000102869 -6.76062e-26)
(-2.48664e-05 -0.00010918 -1.48285e-27)
(1.15616e-06 -0.000109378 5.50885e-26)
(-2.48491e-05 -0.000115717 5.6627e-26)
(1.18669e-06 -0.000115886 -2.336e-25)
(-2.4825e-05 -0.000122248 -5.56321e-26)
(1.21797e-06 -0.000122402 3.06448e-26)
(-2.47691e-05 -0.000128749 -8.26732e-27)
(-2.15871e-05 -0.000131966 2.05668e-25)
(-1.51611e-05 -0.000132066 -1.00324e-25)
(-8.65098e-06 -0.000132145 1.76903e-25)
(-2.05409e-06 -0.000132252 -3.0136e-25)
(1.27782e-06 -0.000128946 -8.97318e-26)
)
;
    }
    frontAndBackPlanes
    {
        type            empty;
    }
}


// ************************************************************************* //
