/*--------------------------------*- C++ -*----------------------------------*\
| =========                 |                                                 |
| \\      /  F ield         | OpenFOAM Extend Project: Open source CFD        |
|  \\    /   O peration     | Version:  1.6-ext                               |
|   \\  /    A nd           | Web:      www.extend-project.de                 |
|    \\/     M anipulation  |                                                 |
\*---------------------------------------------------------------------------*/
FoamFile
{
    version     2.0;
    format      ascii;
    class       volScalarField::DimensionedInternalField;
    location    "0.55";
    object      V0;
}
// * * * * * * * * * * * * * * * * * * * * * * * * * * * * * * * * * * * * * //

dimensions      [0 3 0 0 0 0 0];

value           nonuniform List<scalar> 
328
(
2.53348e-07
2.53336e-07
2.53321e-07
2.53329e-07
2.71721e-07
2.71704e-07
2.71692e-07
2.71706e-07
2.91422e-07
2.91404e-07
2.91394e-07
2.914e-07
3.12551e-07
3.12532e-07
3.12523e-07
3.12523e-07
3.35211e-07
3.35192e-07
3.35184e-07
3.35179e-07
3.59514e-07
3.59495e-07
3.59488e-07
3.59479e-07
3.85579e-07
3.85561e-07
3.85553e-07
3.85541e-07
4.13534e-07
4.13516e-07
4.13509e-07
4.13494e-07
4.43516e-07
4.43498e-07
4.4349e-07
4.43474e-07
4.75671e-07
4.75653e-07
4.75646e-07
4.75629e-07
5.10158e-07
5.1014e-07
5.10132e-07
5.10115e-07
5.47146e-07
5.47127e-07
5.4712e-07
5.47101e-07
5.86815e-07
5.86796e-07
5.86789e-07
5.8677e-07
6.2936e-07
6.29342e-07
6.29334e-07
6.29315e-07
6.7499e-07
6.74971e-07
6.74963e-07
6.74945e-07
7.23927e-07
7.23909e-07
7.23902e-07
7.23883e-07
7.76413e-07
7.76396e-07
7.76388e-07
7.76371e-07
8.32704e-07
8.32687e-07
8.3268e-07
8.32663e-07
8.93076e-07
8.93061e-07
8.93054e-07
8.93038e-07
9.57825e-07
9.57811e-07
9.57805e-07
9.57791e-07
1.02727e-06
1.02726e-06
1.02725e-06
1.02724e-06
1.10175e-06
1.10174e-06
1.10173e-06
1.10172e-06
1.26868e-06
1.26868e-06
1.26867e-06
1.26867e-06
1.26868e-06
1.26868e-06
1.26867e-06
1.26867e-06
1.26867e-06
1.26868e-06
1.26868e-06
1.26868e-06
1.26867e-06
1.26867e-06
1.26868e-06
1.26868e-06
1.26867e-06
1.26867e-06
1.26868e-06
1.26869e-06
1.26866e-06
1.26867e-06
1.26868e-06
1.26869e-06
1.26866e-06
1.26867e-06
1.26868e-06
1.26869e-06
1.26866e-06
1.26867e-06
1.26868e-06
1.2687e-06
1.26865e-06
1.26867e-06
1.26868e-06
1.2687e-06
1.26865e-06
1.26867e-06
1.26868e-06
1.26871e-06
1.26865e-06
1.26867e-06
1.26868e-06
1.26871e-06
1.26864e-06
1.26867e-06
1.26868e-06
1.26871e-06
1.26864e-06
1.26867e-06
1.26868e-06
1.26871e-06
1.26864e-06
1.26867e-06
1.26869e-06
1.26872e-06
1.26864e-06
1.26867e-06
1.26869e-06
1.26872e-06
1.26864e-06
1.26867e-06
1.26869e-06
1.26872e-06
1.26864e-06
1.26867e-06
1.26869e-06
1.26872e-06
1.26864e-06
1.26867e-06
1.26869e-06
1.26873e-06
1.26863e-06
1.26867e-06
1.26869e-06
1.26873e-06
1.26863e-06
1.26867e-06
1.26869e-06
1.26873e-06
1.26863e-06
1.26867e-06
1.26869e-06
1.26873e-06
1.26863e-06
1.26867e-06
1.26869e-06
1.26873e-06
1.26863e-06
1.26867e-06
1.26869e-06
1.26873e-06
1.26863e-06
1.26867e-06
1.26869e-06
1.26873e-06
1.26864e-06
1.26868e-06
1.26869e-06
1.26873e-06
1.26864e-06
1.26868e-06
1.26869e-06
1.26873e-06
1.26864e-06
1.26868e-06
1.26869e-06
1.26873e-06
1.26864e-06
1.26868e-06
1.26869e-06
1.26873e-06
1.26864e-06
1.26868e-06
1.26869e-06
1.26873e-06
1.26864e-06
1.26868e-06
1.26869e-06
1.26873e-06
1.26864e-06
1.26868e-06
1.26869e-06
1.26873e-06
1.26865e-06
1.26868e-06
1.26869e-06
1.26873e-06
1.26865e-06
1.26868e-06
1.26869e-06
1.26873e-06
1.26865e-06
1.26868e-06
1.26869e-06
1.26872e-06
1.26865e-06
1.26868e-06
1.26869e-06
1.26872e-06
1.26865e-06
1.26868e-06
1.26869e-06
1.26872e-06
1.26866e-06
1.26868e-06
1.26869e-06
1.26872e-06
1.26866e-06
1.26868e-06
1.26869e-06
1.26872e-06
1.26866e-06
1.26868e-06
1.26869e-06
1.26871e-06
1.26866e-06
1.26868e-06
1.26869e-06
1.26871e-06
1.26867e-06
1.26868e-06
1.26869e-06
1.26871e-06
1.26867e-06
1.26868e-06
1.26869e-06
1.26871e-06
1.26867e-06
1.26868e-06
1.26869e-06
1.26871e-06
1.26867e-06
1.26868e-06
1.26869e-06
1.2687e-06
1.26867e-06
1.26869e-06
1.26869e-06
1.2687e-06
1.26868e-06
1.26869e-06
1.26869e-06
1.2687e-06
1.26868e-06
1.26869e-06
1.26869e-06
1.2687e-06
1.26868e-06
1.26869e-06
1.26869e-06
1.2687e-06
1.26868e-06
1.26869e-06
1.26869e-06
1.26869e-06
1.26868e-06
1.26869e-06
1.26869e-06
1.26869e-06
1.26868e-06
1.26869e-06
1.26869e-06
1.26869e-06
1.26868e-06
1.26869e-06
1.26869e-06
1.26869e-06
1.26868e-06
1.26869e-06
1.26869e-06
1.26869e-06
1.26869e-06
1.26869e-06
1.26869e-06
1.26869e-06
1.26869e-06
1.26869e-06
1.26869e-06
1.26869e-06
1.26869e-06
1.26869e-06
1.26869e-06
1.26869e-06
1.26869e-06
1.26869e-06
1.26869e-06
1.26869e-06
1.26869e-06
1.26869e-06
1.26869e-06
1.26869e-06
1.26869e-06
1.26869e-06
1.26869e-06
1.26869e-06
1.26869e-06
1.26868e-06
1.26868e-06
1.26869e-06
)
;


// ************************************************************************* //
