/*--------------------------------*- C++ -*----------------------------------*\
| =========                 |                                                 |
| \\      /  F ield         | OpenFOAM Extend Project: Open source CFD        |
|  \\    /   O peration     | Version:  1.6-ext                               |
|   \\  /    A nd           | Web:      www.extend-project.de                 |
|    \\/     M anipulation  |                                                 |
\*---------------------------------------------------------------------------*/
FoamFile
{
    version     2.0;
    format      ascii;
    class       volVectorField;
    location    "0.55";
    object      Vs;
}
// * * * * * * * * * * * * * * * * * * * * * * * * * * * * * * * * * * * * * //

dimensions      [0 1 -1 0 0 0 0];

internalField   nonuniform List<vector> 
328
(
(1.22228e-06 -4.4553e-06 0)
(1.76833e-06 -1.14568e-06 0)
(1.62537e-06 8.77264e-07 0)
(5.65338e-07 5.16037e-06 0)
(3.82897e-06 -1.13765e-05 0)
(5.07985e-06 -3.15296e-06 0)
(4.58206e-06 2.72513e-06 0)
(1.7916e-06 1.32373e-05 0)
(6.2595e-06 -1.63803e-05 0)
(7.69713e-06 -4.84236e-06 0)
(6.69017e-06 4.65179e-06 0)
(2.60583e-06 1.93191e-05 0)
(8.78595e-06 -1.97121e-05 0)
(1.00347e-05 -6.06509e-06 0)
(8.44043e-06 6.52155e-06 0)
(3.35738e-06 2.37959e-05 0)
(1.13732e-05 -2.17069e-05 0)
(1.20556e-05 -6.7618e-06 0)
(9.79153e-06 8.29572e-06 0)
(3.99715e-06 2.71485e-05 0)
(1.40878e-05 -2.26137e-05 0)
(1.3927e-05 -6.89611e-06 0)
(1.09326e-05 9.98707e-06 0)
(4.60478e-06 2.97559e-05 0)
(1.69375e-05 -2.26258e-05 0)
(1.57114e-05 -6.46499e-06 0)
(1.19275e-05 1.16605e-05 0)
(5.18197e-06 3.19381e-05 0)
(1.99448e-05 -2.18707e-05 0)
(1.75051e-05 -5.46969e-06 0)
(1.28767e-05 1.34085e-05 0)
(5.74602e-06 3.395e-05 0)
(2.31225e-05 -2.04275e-05 0)
(1.93722e-05 -3.91e-06 0)
(1.38422e-05 1.5345e-05 0)
(6.2991e-06 3.60071e-05 0)
(2.64886e-05 -1.83292e-05 0)
(2.1374e-05 -1.77086e-06 0)
(1.48821e-05 1.75943e-05 0)
(6.84639e-06 3.82942e-05 0)
(3.00625e-05 -1.55697e-05 0)
(2.35553e-05 9.83069e-07 0)
(1.60366e-05 2.02882e-05 0)
(7.39214e-06 4.09784e-05 0)
(3.38676e-05 -1.21055e-05 0)
(2.59523e-05 4.41286e-06 0)
(1.7336e-05 2.35637e-05 0)
(7.94313e-06 4.42171e-05 0)
(3.793e-05 -7.85843e-06 0)
(2.85915e-05 8.6076e-06 0)
(1.88006e-05 2.75648e-05 0)
(8.50792e-06 4.81655e-05 0)
(4.22783e-05 -2.71666e-06 0)
(3.14933e-05 1.36859e-05 0)
(2.04441e-05 3.24453e-05 0)
(9.09702e-06 5.29834e-05 0)
(4.69423e-05 3.46394e-06 0)
(3.46736e-05 1.97965e-05 0)
(2.2276e-05 3.83728e-05 0)
(9.72238e-06 5.88417e-05 0)
(5.19525e-05 1.08594e-05 0)
(3.81465e-05 2.71183e-05 0)
(2.43038e-05 4.55337e-05 0)
(1.03971e-05 6.59277e-05 0)
(5.7339e-05 1.96777e-05 0)
(4.19256e-05 3.58613e-05 0)
(2.65352e-05 5.41379e-05 0)
(1.11353e-05 7.44513e-05 0)
(6.31313e-05 3.01596e-05 0)
(4.60256e-05 4.62676e-05 0)
(2.89794e-05 6.44233e-05 0)
(1.19519e-05 8.46502e-05 0)
(6.93578e-05 4.25803e-05 0)
(5.04625e-05 5.86133e-05 0)
(3.16478e-05 7.66608e-05 0)
(1.28628e-05 9.67943e-05 0)
(7.60462e-05 5.72528e-05 0)
(5.52543e-05 7.32121e-05 0)
(3.45546e-05 9.11589e-05 0)
(1.38851e-05 0.000111192 0)
(8.3223e-05 7.45315e-05 0)
(6.04209e-05 9.04189e-05 0)
(3.77165e-05 0.000108268 0)
(1.50371e-05 0.000128192 0)
(9.09142e-05 9.4818e-05 0)
(6.59833e-05 0.000110635 0)
(4.11523e-05 0.000128388 0)
(1.63385e-05 0.000148194 0)
(9.94585e-05 0.000119472 0)
(7.2192e-05 0.000135218 0)
(4.50254e-05 0.000152868 0)
(1.78668e-05 0.000172544 0)
(0.000108568 0.000148368 0)
(7.88466e-05 0.000164045 0)
(4.92244e-05 0.00018159 0)
(1.95997e-05 0.000201124 0)
(0.000117627 0.000179722 0)
(8.55002e-05 0.000195336 0)
(5.34716e-05 0.00021278 0)
(2.14307e-05 0.000232172 0)
(0.000126623 0.000213482 0)
(9.21439e-05 0.000229041 0)
(5.77627e-05 0.000246386 0)
(2.33597e-05 0.000265636 0)
(0.000135544 0.000249593 0)
(9.87694e-05 0.000265102 0)
(6.20939e-05 0.000282352 0)
(2.53876e-05 0.000301459 0)
(0.000144377 0.000287994 0)
(0.000105369 0.000303462 0)
(6.64618e-05 0.00032062 0)
(2.75158e-05 0.000339583 0)
(0.000153108 0.000328621 0)
(0.000111934 0.000344054 0)
(7.08634e-05 0.000361123 0)
(2.97463e-05 0.000379943 0)
(0.000161727 0.000371403 0)
(0.000118459 0.000386808 0)
(7.52959e-05 0.000403792 0)
(3.20809e-05 0.000422468 0)
(0.000170221 0.000416265 0)
(0.000124934 0.000431649 0)
(7.97562e-05 0.000448552 0)
(3.45215e-05 0.000467083 0)
(0.000178576 0.000463123 0)
(0.000131352 0.000478494 0)
(8.42412e-05 0.00049532 0)
(3.70693e-05 0.000513708 0)
(0.000186781 0.000511891 0)
(0.000137705 0.000527257 0)
(8.8747e-05 0.00054401 0)
(3.97245e-05 0.000562257 0)
(0.000194825 0.000562477 0)
(0.000143986 0.000577846 0)
(9.32691e-05 0.000594531 0)
(4.24862e-05 0.00061264 0)
(0.000202696 0.000614786 0)
(0.000150187 0.000630165 0)
(9.78023e-05 0.000646789 0)
(4.53518e-05 0.000664763 0)
(0.000210384 0.000668718 0)
(0.000156298 0.000684117 0)
(0.000102341 0.000700686 0)
(4.83174e-05 0.000718531 0)
(0.000217877 0.000724173 0)
(0.000162312 0.0007396 0)
(0.000106877 0.000756122 0)
(5.1377e-05 0.000773845 0)
(0.000225168 0.00078105 0)
(0.000168219 0.000796514 0)
(0.000111403 0.000812997 0)
(5.45234e-05 0.000830607 0)
(0.000232246 0.000839248 0)
(0.000174012 0.000854757 0)
(0.000115911 0.000871211 0)
(5.77477e-05 0.000888715 0)
(0.000239102 0.000898665 0)
(0.000179681 0.000914229 0)
(0.000120391 0.000930663 0)
(6.10397e-05 0.000948073 0)
(0.00024573 0.000959203 0)
(0.000185217 0.000974831 0)
(0.000124833 0.000991255 0)
(6.43883e-05 0.00100858 0)
(0.000252122 0.00102076 0)
(0.000190612 0.00103646 0)
(0.000129228 0.00105289 0)
(6.77817e-05 0.00107014 0)
(0.00025827 0.00108325 0)
(0.000195858 0.00109903 0)
(0.000133564 0.00111547 0)
(7.12078e-05 0.00113267 0)
(0.000264171 0.00114657 0)
(0.000200947 0.00116245 0)
(0.000137833 0.0011789 0)
(7.46541e-05 0.00119605 0)
(0.000269821 0.00121064 0)
(0.000205872 0.00122661 0)
(0.000142024 0.00124309 0)
(7.81081e-05 0.00126021 0)
(0.000275217 0.00127536 0)
(0.000210629 0.00129143 0)
(0.000146129 0.00130796 0)
(8.15576e-05 0.00132505 0)
(0.00028036 0.00134066 0)
(0.000215214 0.00135683 0)
(0.000150141 0.0013734 0)
(8.49905e-05 0.00139048 0)
(0.000285254 0.00140645 0)
(0.000219625 0.00142273 0)
(0.000154051 0.00143935 0)
(8.83955e-05 0.00145643 0)
(0.000289904 0.00147267 0)
(0.000223861 0.00148906 0)
(0.000157855 0.00150573 0)
(9.1762e-05 0.00152281 0)
(0.000294319 0.00153924 0)
(0.000227926 0.00155574 0)
(0.00016155 0.00157247 0)
(9.50804e-05 0.00158956 0)
(0.00029851 0.00160611 0)
(0.000231822 0.00162271 0)
(0.000165133 0.0016395 0)
(9.83427e-05 0.00165661 0)
(0.000302489 0.00167324 0)
(0.000235558 0.00168992 0)
(0.000168604 0.00170677 0)
(0.000101542 0.0017239 0)
(0.000306274 0.00174057 0)
(0.000239142 0.00175733 0)
(0.000171966 0.00177423 0)
(0.000104675 0.00179138 0)
(0.000309881 0.00180807 0)
(0.000242583 0.0018249 0)
(0.000175222 0.00184185 0)
(0.000107739 0.00185901 0)
(0.000313329 0.00187571 0)
(0.000245896 0.0018926 0)
(0.000178379 0.00190958 0)
(0.000110733 0.00192677 0)
(0.000316639 0.00194347 0)
(0.000249092 0.00196041 0)
(0.000181444 0.00197742 0)
(0.000113661 0.00199461 0)
(0.000319831 0.00201134 0)
(0.000252188 0.00202831 0)
(0.000184428 0.00204533 0)
(0.000116528 0.00206252 0)
(0.000322927 0.0020793 0)
(0.0002552 0.00209628 0)
(0.000187341 0.0021133 0)
(0.000119339 0.00213049 0)
(0.000325949 0.00214735 0)
(0.000258145 0.00216432 0)
(0.000190198 0.00218133 0)
(0.000122105 0.0021985 0)
(0.000328919 0.00221547 0)
(0.000261041 0.00223242 0)
(0.000193012 0.00224941 0)
(0.000124835 0.00226655 0)
(0.00033186 0.00228368 0)
(0.000263908 0.00230059 0)
(0.000195799 0.00231754 0)
(0.000127542 0.00233463 0)
(0.000334793 0.00235198 0)
(0.000266765 0.00236883 0)
(0.000198574 0.00238572 0)
(0.000130238 0.00240275 0)
(0.000337742 0.00242036 0)
(0.00026963 0.00243714 0)
(0.000201356 0.00245396 0)
(0.000132939 0.00247092 0)
(0.00034073 0.00248884 0)
(0.000272525 0.00250553 0)
(0.000204161 0.00252226 0)
(0.00013566 0.00253914 0)
(0.000343778 0.00255744 0)
(0.00027547 0.00257401 0)
(0.000207009 0.00259064 0)
(0.000138418 0.00260742 0)
(0.000346908 0.00262615 0)
(0.000278486 0.0026426 0)
(0.00020992 0.00265911 0)
(0.000141234 0.00267577 0)
(0.000350143 0.002695 0)
(0.000281594 0.0027113 0)
(0.000212915 0.00272768 0)
(0.000144127 0.00274421 0)
(0.000353504 0.002764 0)
(0.000284818 0.00278014 0)
(0.000216018 0.00279637 0)
(0.000147123 0.00281275 0)
(0.000357015 0.00283316 0)
(0.000288181 0.00284913 0)
(0.000219253 0.00286519 0)
(0.000150249 0.0028814 0)
(0.000360699 0.0029025 0)
(0.000291708 0.00291828 0)
(0.00022265 0.00293415 0)
(0.000153533 0.00295017 0)
(0.000364581 0.00297203 0)
(0.000295429 0.00298759 0)
(0.000226238 0.00300326 0)
(0.000157012 0.00301907 0)
(0.000368689 0.00304174 0)
(0.000299373 0.00305708 0)
(0.000230053 0.00307251 0)
(0.000160723 0.00308809 0)
(0.000373054 0.00311164 0)
(0.000303577 0.00312673 0)
(0.000234133 0.00314191 0)
(0.00016471 0.00315722 0)
(0.000377713 0.00318173 0)
(0.00030808 0.00319654 0)
(0.000238521 0.00321144 0)
(0.00016902 0.00322645 0)
(0.000382708 0.003252 0)
(0.000312928 0.0032665 0)
(0.000243269 0.00328108 0)
(0.000173707 0.00329576 0)
(0.000388092 0.00332243 0)
(0.000318176 0.00333659 0)
(0.000248431 0.00335082 0)
(0.00017883 0.00336513 0)
(0.000393922 0.00339302 0)
(0.000323886 0.00340679 0)
(0.000254072 0.00342062 0)
(0.000184454 0.00343451 0)
(0.000400269 0.00346375 0)
(0.000330134 0.00347708 0)
(0.00026027 0.00349045 0)
(0.00019065 0.00350387 0)
(0.00040721 0.00353461 0)
(0.000337005 0.00354744 0)
(0.000267108 0.00356028 0)
(0.000197494 0.00357318 0)
(0.000414844 0.00360558 0)
(0.000344617 0.00361786 0)
(0.000274702 0.00363009 0)
(0.000205079 0.0036424 0)
(0.000423237 0.00367662 0)
(0.000353058 0.00368828 0)
(0.000283138 0.00369987 0)
(0.00021346 0.00371155 0)
(0.000432558 0.00374743 0)
(0.000362481 0.0037586 0)
(0.000292561 0.0037697 0)
(0.000222788 0.00378089 0)
)
;

boundaryField
{
    plateFix
    {
        type            calculated;
        value           uniform (0 0 0);
    }
    plate
    {
        type            calculated;
        value           nonuniform List<vector> 
168
(
(-1.82755e-05 -1.14653e-05 9.00822e-25)
(-2.20561e-05 1.43529e-05 1.07335e-23)
(-1.01625e-05 -1.86039e-05 -7.70544e-24)
(-1.47785e-05 2.27723e-05 2.60613e-23)
(-2.88101e-06 -2.39382e-05 2.13459e-23)
(-8.92419e-06 2.93228e-05 2.17976e-23)
(3.3194e-06 -2.74044e-05 1.64059e-23)
(-4.61706e-06 3.39976e-05 -1.18897e-24)
(8.57122e-06 -2.95124e-05 -2.98818e-23)
(-1.66457e-06 3.75078e-05 3.07952e-23)
(1.32239e-05 -3.04861e-05 2.68467e-23)
(3.62417e-07 4.02043e-05 -3.39786e-23)
(1.7497e-05 -3.05532e-05 4.32619e-23)
(1.71907e-06 4.24552e-05 -1.0133e-23)
(2.15796e-05 -2.98402e-05 -6.95278e-23)
(2.61541e-06 4.45174e-05 -2.73747e-23)
(2.56035e-05 -2.84311e-05 1.62895e-23)
(3.1849e-06 4.66152e-05 -1.96621e-24)
(2.96749e-05 -2.63576e-05 1.0295e-23)
(3.52573e-06 4.89333e-05 2.06962e-23)
(3.38772e-05 -2.36133e-05 -3.66189e-24)
(3.70525e-06 5.16395e-05 -2.2527e-24)
(3.82807e-05 -2.01541e-05 2.69135e-24)
(3.77346e-06 5.48905e-05 -3.12447e-23)
(4.29447e-05 -1.59021e-05 6.84751e-24)
(3.76727e-06 5.88414e-05 4.70389e-23)
(4.7921e-05 -1.07465e-05 -2.07487e-23)
(3.71516e-06 6.36522e-05 -1.46247e-23)
(5.32546e-05 -4.54461e-06 1.0307e-24)
(3.6395e-06 6.94944e-05 -2.64511e-24)
(5.89851e-05 2.87776e-06 9.43687e-24)
(3.55871e-06 7.6556e-05 9.77517e-24)
(6.51479e-05 1.17268e-05 1.42589e-24)
(3.48876e-06 8.50476e-05 3.52749e-24)
(7.17746e-05 2.22416e-05 -3.70718e-24)
(3.44461e-06 9.52075e-05 -8.60076e-24)
(7.88947e-05 3.46962e-05 -1.10373e-23)
(3.44114e-06 0.000107306 2.33799e-24)
(8.6536e-05 4.94024e-05 1.21613e-23)
(3.49399e-06 0.000121653 1.14573e-23)
(9.47253e-05 6.67143e-05 -2.44348e-24)
(3.61991e-06 0.000138597 1.01392e-23)
(0.000103489 8.70327e-05 4.12513e-24)
(3.83736e-06 0.000158537 -3.42941e-24)
(0.000113209 0.000111718 -1.10634e-25)
(4.17938e-06 0.000182817 -1.74787e-23)
(0.000123555 0.000140645 -4.3537e-24)
(4.66489e-06 0.000211321 1.25796e-23)
(0.000133826 0.000172026 5.27266e-24)
(5.27411e-06 0.000242292 -5.2374e-24)
(0.000144007 0.000205809 -7.15848e-24)
(6.00876e-06 0.000275678 -6.95911e-24)
(0.000154085 0.000241938 1.15664e-24)
(6.87196e-06 0.000311423 6.61189e-24)
(0.000164045 0.000280355 7.58484e-24)
(7.86751e-06 0.000349468 -4.07655e-24)
(0.000173872 0.000320993 1.406e-24)
(8.99999e-06 0.000389747 9.08661e-24)
(0.000183549 0.000363782 -1.84484e-23)
(1.02741e-05 0.000432191 -1.07366e-23)
(0.000193063 0.000408646 5.92233e-24)
(1.16945e-05 0.000476725 7.15563e-24)
(0.000202399 0.000455503 2.79695e-24)
(1.32649e-05 0.000523268 -2.04367e-25)
(0.00021154 0.000504265 5.84852e-26)
(1.49878e-05 0.000571736 5.77266e-24)
(0.000220475 0.000554841 -1.83115e-25)
(1.68642e-05 0.000622039 -6.28175e-24)
(0.000229189 0.000607134 -3.26019e-24)
(1.88932e-05 0.000674085 1.88421e-24)
(0.000237671 0.000661047 -4.61391e-25)
(2.10716e-05 0.000727778 -1.35087e-24)
(0.00024591 0.000716479 -2.21166e-24)
(2.33941e-05 0.00078302 9.1734e-26)
(0.000253895 0.000773328 1.50133e-25)
(2.58533e-05 0.000839713 6.99087e-25)
(0.000261617 0.000831492 2.48669e-24)
(2.84399e-05 0.000897758 2.3997e-24)
(0.000269068 0.000890872 -6.17201e-25)
(3.1143e-05 0.000957058 -5.30892e-24)
(0.00027624 0.000951368 8.83936e-25)
(3.39506e-05 0.00101752 3.13342e-24)
(0.000283126 0.00101288 -4.39891e-25)
(3.68498e-05 0.00107903 -1.34628e-24)
(0.000289721 0.00107532 3.29395e-24)
(3.98274e-05 0.00114151 -1.23384e-25)
(0.000296021 0.00113859 -1.95238e-24)
(4.28695e-05 0.00120487 3.40721e-25)
(0.000302022 0.0012026 1.16305e-24)
(4.59623e-05 0.001269 -6.05116e-25)
(0.000307725 0.00126726 -2.81047e-24)
(4.90918e-05 0.00133382 -1.16838e-24)
(0.000313132 0.00133249 -7.93712e-25)
(5.22441e-05 0.00139924 5.62166e-25)
(0.00031825 0.00139822 8.55372e-25)
(5.54054e-05 0.00146517 4.76989e-24)
(0.000323086 0.00146438 1.034e-24)
(5.85621e-05 0.00153155 4.03719e-24)
(0.000327653 0.0015309 5.19229e-24)
(6.17019e-05 0.0015983 -5.40573e-24)
(0.000331966 0.00159772 -2.07751e-26)
(6.4813e-05 0.00166535 1.73978e-25)
(0.000336042 0.00166479 -8.36983e-24)
(6.78857e-05 0.00173264 6.13479e-24)
(0.000339903 0.00173207 -3.48776e-24)
(7.0912e-05 0.00180013 -4.63604e-25)
(0.000343568 0.00179953 -1.05814e-23)
(7.38865e-05 0.00186777 -1.10202e-23)
(0.00034706 0.00186715 1.6527e-24)
(7.68063e-05 0.00193553 -7.06122e-24)
(0.000350404 0.00193489 2.63781e-24)
(7.9671e-05 0.00200337 -4.0868e-25)
(0.000353623 0.00200274 4.43177e-24)
(8.24831e-05 0.00207128 1.08407e-23)
(0.000356742 0.00207069 -1.15429e-23)
(8.52473e-05 0.00213924 -7.22429e-24)
(0.000359785 0.00213874 -2.7406e-24)
(8.79705e-05 0.00220724 7.04425e-25)
(0.000362776 0.00220688 5.19525e-24)
(9.06617e-05 0.00227527 -1.83722e-24)
(0.00036574 0.00227511 5.45033e-24)
(9.33311e-05 0.00234333 -3.70086e-24)
(0.000368701 0.00234344 -1.03989e-24)
(9.59908e-05 0.00241143 -9.65948e-24)
(0.000371683 0.00241186 1.73603e-23)
(9.86539e-05 0.00247956 3.2497e-24)
(0.000374711 0.00248039 -1.29253e-23)
(0.000101335 0.00254773 -2.24847e-23)
(0.000377808 0.00254904 1.76089e-23)
(0.000104051 0.00261596 3.92456e-23)
(0.000380996 0.00261782 -2.34651e-23)
(0.000106821 0.00268425 -2.74293e-23)
(0.000384298 0.00268675 1.81224e-23)
(0.000109665 0.00275263 -1.71917e-24)
(0.000387736 0.00275583 8.9496e-25)
(0.000112608 0.00282109 -4.41828e-24)
(0.000391331 0.00282508 3.01212e-23)
(0.000115677 0.00288966 -4.24868e-23)
(0.000395107 0.00289452 -8.65551e-24)
(0.000118906 0.00295833 2.2898e-23)
(0.000399087 0.00296415 4.25057e-25)
(0.000122329 0.00302712 5.89322e-24)
(0.000403295 0.00303398 -2.53567e-23)
(0.000125989 0.00309601 2.64741e-23)
(0.000407761 0.00310401 -3.98671e-24)
(0.000129931 0.00316501 -3.33675e-24)
(0.000412518 0.00317424 -1.12104e-23)
(0.000134207 0.00323408 2.04768e-23)
(0.000417609 0.00324466 3.1344e-23)
(0.000138872 0.00330322 -1.6802e-23)
(0.000423081 0.00331527 4.96334e-24)
(0.000143989 0.0033724 2.73556e-23)
(0.000428993 0.00338605 5.48729e-24)
(0.000149625 0.00344157 -1.76137e-23)
(0.000435418 0.00345699 -1.64938e-23)
(0.000155852 0.00351069 -1.13092e-23)
(0.000442431 0.0035281 2.36396e-23)
(0.000162745 0.00357973 1.69038e-23)
(0.000450118 0.00359934 2.03034e-25)
(0.000170379 0.00364866 -2.96607e-23)
(0.000458475 0.0036707 -5.93036e-23)
(0.000178738 0.00371748 -2.37618e-23)
(0.000467544 0.00374182 -6.13993e-25)
(0.000437569 0.00378244 1.98988e-24)
(0.000367509 0.00379365 4.9155e-25)
(0.000297589 0.00380469 1.63974e-25)
(0.000227799 0.00381593 -3.03007e-26)
(0.000187841 0.00378652 1.65685e-25)
)
;
    }
    frontAndBackPlanes
    {
        type            empty;
    }
}


// ************************************************************************* //
