/*--------------------------------*- C++ -*----------------------------------*\
| =========                 |                                                 |
| \\      /  F ield         | OpenFOAM Extend Project: Open source CFD        |
|  \\    /   O peration     | Version:  1.6-ext                               |
|   \\  /    A nd           | Web:      www.extend-project.de                 |
|    \\/     M anipulation  |                                                 |
\*---------------------------------------------------------------------------*/
FoamFile
{
    version     2.0;
    format      ascii;
    class       volScalarField;
    location    "2";
    object      p;
}
// * * * * * * * * * * * * * * * * * * * * * * * * * * * * * * * * * * * * * //

dimensions      [0 2 -2 0 0 0 0];

internalField   nonuniform List<scalar> 
70
(
-0.104638
-0.0592885
-0.0194883
0.0148207
0.0362846
0.0471997
0.0508141
-0.0935925
-0.0842882
-0.0740362
-0.0585758
-0.0399128
-0.0228651
-0.0105214
-0.00317487
-0.000779511
-0.0662371
-0.0646907
-0.0577327
-0.04544
-0.030535
-0.0171154
-0.00774761
-0.00234764
-0.00129586
-0.0321478
-0.0355724
-0.0335756
-0.0271738
-0.0185342
-0.0104975
-0.00495203
-0.00173914
-0.00171567
-0.000199263
-0.0087903
-0.0120508
-0.0114021
-0.00860132
-0.00542772
-0.00312435
-0.00160171
-0.00200797
0.0202363
0.00928153
0.00252263
-0.0010119
-0.00240036
-0.002618
-0.00241084
-0.00184949
-0.00213152
0.0312762
0.0188004
0.00975922
0.00367946
-4.37033e-05
-0.00197472
-0.00263949
-0.00235191
-0.00212054
0.033682
0.0195239
0.00883344
0.00156405
-0.00269511
-0.00458225
-0.00481082
-0.00396236
-0.00266199
)
;

boundaryField
{
    inlet
    {
        type            zeroGradient;
    }
    outlet
    {
        type            totalPressure;
        rho             none;
        psi             none;
        gamma           1;
        p0              uniform 0;
        value           uniform 0;
    }
    fixedWalls
    {
        type            zeroGradient;
    }
    frontAndBack
    {
        type            empty;
    }
    procBoundary1to2
    {
        type            processor;
        value           nonuniform List<scalar> 7(-0.135999 -0.036705 0.00984333 0.0398488 0.0572242 0.065587 0.0695168);
    }
    procBoundary1to0
    {
        type            processor;
        value           nonuniform List<scalar> 9(-0.100954 -0.0827415 -0.0740666 -0.0599902 -0.0419662 -0.0247814 -0.0117208 -0.00357409 -7.87535e-05);
    }
}


// ************************************************************************* //
