/*--------------------------------*- C++ -*----------------------------------*\
| =========                 |                                                 |
| \\      /  F ield         | OpenFOAM Extend Project: Open source CFD        |
|  \\    /   O peration     | Version:  1.6-ext                               |
|   \\  /    A nd           | Web:      www.extend-project.de                 |
|    \\/     M anipulation  |                                                 |
\*---------------------------------------------------------------------------*/
FoamFile
{
    version     2.0;
    format      ascii;
    class       surfaceScalarField;
    location    "2";
    object      phi;
}
// * * * * * * * * * * * * * * * * * * * * * * * * * * * * * * * * * * * * * //

dimensions      [0 3 -1 0 0 0 0];

internalField   nonuniform List<scalar> 
123
(
4.36511e-05
0.000216657
6.47891e-05
0.000494663
5.69236e-05
0.000587243
3.54584e-05
0.000579456
1.33369e-05
0.000523976
4.04707e-07
0.000409386
0.000188618
0.000239118
-1.93676e-05
0.000276758
-7.03296e-05
0.000306577
-0.000124697
0.000323596
-0.00017118
0.000328861
-0.000197121
0.000325794
-0.000198694
0.000318305
-0.000180226
0.00030999
-0.000152048
-0.000114808
0.000481205
-5.90997e-06
0.000476808
-6.59323e-05
0.000469984
-0.000117873
0.000455326
-0.000156522
0.000432996
-0.000174792
0.000406178
-0.000171876
0.000379063
-0.00015311
0.000354888
-0.000127873
-9.66664e-05
0.00058285
-1.51644e-06
0.000571142
-5.42248e-05
0.000550386
-9.7117e-05
0.000520348
-0.000126484
0.00048352
-0.000137964
0.000444142
-0.000132498
0.000406745
-0.000115713
0.000374151
-9.52789e-05
-7.24822e-05
0.000585068
-7.12824e-06
0.000575318
-4.44746e-05
0.000552435
-7.42341e-05
0.000518328
-9.23771e-05
0.000477186
-9.68219e-05
0.000434289
-8.96011e-05
0.000394459
-7.58833e-05
0.000360206
-6.10255e-05
-4.70624e-05
0.000528698
-1.18505e-05
0.000517706
-3.34825e-05
0.000492404
-4.89321e-05
0.000456203
-5.61761e-05
0.000414513
-5.5132e-05
0.000373098
-4.81857e-05
0.000336257
-3.90426e-05
0.000305731
-3.04988e-05
-2.45123e-05
0.000406571
-9.03537e-06
0.000389364
-1.62754e-05
0.00036065
-2.02177e-05
0.000325165
-2.06911e-05
0.000288478
-1.84447e-05
0.000255154
-1.4862e-05
0.000227493
-1.13817e-05
0.000205777
-8.78266e-06
-8.15339e-06
0.000179583
0.000163307
0.00014309
0.000122399
0.000103954
8.90919e-05
7.77102e-05
6.89275e-05
)
;

boundaryField
{
    inlet
    {
        type            calculated;
        value           nonuniform 0();
    }
    outlet
    {
        type            calculated;
        value           nonuniform List<scalar> 7(0.00030284 0.000336746 0.000349967 0.000334786 0.00028318 0.000189418 6.07741e-05);
    }
    fixedWalls
    {
        type            calculated;
        value           uniform 0;
    }
    frontAndBack
    {
        type            empty;
    }
    procBoundary1to2
    {
        type            processor;
        value           nonuniform List<scalar> 7(-0.000260308 -0.000515801 -0.000579378 -0.000557991 -0.000501854 -0.000396454 -0.000188214);
    }
    procBoundary1to0
    {
        type            processor;
        value           nonuniform List<scalar> 9(-3.09314e-06 3.2689e-05 9.48783e-05 0.000154161 0.000191856 0.000201761 0.000187715 0.000160364 0.000121957);
    }
}


// ************************************************************************* //
