/*--------------------------------*- C++ -*----------------------------------*\
| =========                 |                                                 |
| \\      /  F ield         | OpenFOAM Extend Project: Open source CFD        |
|  \\    /   O peration     | Version:  1.6-ext                               |
|   \\  /    A nd           | Web:      www.extend-project.de                 |
|    \\/     M anipulation  |                                                 |
\*---------------------------------------------------------------------------*/
FoamFile
{
    version     2.0;
    format      ascii;
    class       volVectorField;
    location    "2";
    object      U;
}
// * * * * * * * * * * * * * * * * * * * * * * * * * * * * * * * * * * * * * //

dimensions      [0 1 -1 0 0 0 0];

internalField   nonuniform List<vector> 
70
(
(0.203515 0.037 0)
(0.508509 0.0598751 0)
(0.591971 0.0700845 0)
(0.574913 0.0472267 0)
(0.516889 0.0222708 0)
(0.405998 0.0032127 0)
(0.190204 -0.00265613 0)
(0.219634 -0.0233417 0)
(0.255673 -0.0651693 0)
(0.295539 -0.119973 0)
(0.321056 -0.170574 0)
(0.330564 -0.201125 0)
(0.329242 -0.206103 0)
(0.321604 -0.189142 0)
(0.314298 -0.160621 0)
(0.302167 -0.121617 0)
(0.486801 -0.0121232 0)
(0.478873 -0.0702363 0)
(0.476642 -0.123996 0)
(0.46735 -0.16676 0)
(0.447244 -0.189176 0)
(0.420437 -0.1887 0)
(0.391003 -0.169943 0)
(0.366992 -0.142917 0)
(0.338059 -0.107945 0)
(0.589616 0.00189675 0)
(0.579892 -0.0563767 0)
(0.564543 -0.105775 0)
(0.539392 -0.141158 0)
(0.504228 -0.156909 0)
(0.464188 -0.15317 0)
(0.423427 -0.135514 0)
(0.390619 -0.112662 0)
(0.352495 -0.0854266 0)
(0.587447 -0.00405088 0)
(0.584466 -0.0489536 0)
(0.568171 -0.0856291 0)
(0.539019 -0.109678 0)
(0.499578 -0.117746 0)
(0.455845 -0.111304 0)
(0.412413 -0.0958548 0)
(0.377497 -0.0780153 0)
(0.3379 -0.0595843 0)
(0.530925 -0.0109419 0)
(0.527674 -0.0403254 0)
(0.50904 -0.0626938 0)
(0.47714 -0.0749211 0)
(0.436404 -0.0759166 0)
(0.393386 -0.0680944 0)
(0.352852 -0.0561578 0)
(0.320791 -0.0442152 0)
(0.286338 -0.034536 0)
(0.4117 -0.0132602 0)
(0.401564 -0.0264489 0)
(0.377769 -0.0344673 0)
(0.344291 -0.0364989 0)
(0.306759 -0.0333873 0)
(0.270839 -0.0274068 0)
(0.23985 -0.0211591 0)
(0.216106 -0.0161444 0)
(0.192149 -0.0139903 0)
(0.18591 -0.00630938 0)
(0.172805 -0.00833328 0)
(0.153883 -0.0085762 0)
(0.13274 -0.00747444 0)
(0.112693 -0.00574847 0)
(0.0958715 -0.00406381 0)
(0.0828201 -0.00287118 0)
(0.0730685 -0.00231159 0)
(0.0626361 -0.00281625 0)
)
;

boundaryField
{
    inlet
    {
        type            fixedValue;
        value           nonuniform 0();
    }
    outlet
    {
        type            zeroGradient;
    }
    fixedWalls
    {
        type            fixedValue;
        value           uniform (0 0 0);
    }
    frontAndBack
    {
        type            empty;
    }
    procBoundary1to2
    {
        type            processor;
        value           nonuniform List<vector> 7((0.35997 0.160294 0) (0.542878 0.160841 0) (0.569986 0.146153 0) (0.538281 0.0994209 0) (0.483413 0.0546006 0) (0.384398 0.0194267 0) (0.184159 0.00161467 0));
    }
    procBoundary1to0
    {
        type            processor;
        value           nonuniform List<vector> 9((0.0378088 0.0309722 0) (0.074553 -0.00322326 0) (0.131303 -0.0734442 0) (0.173835 -0.140211 0) (0.203888 -0.183528 0) (0.224856 -0.197428 0) (0.23898 -0.186089 0) (0.249582 -0.15998 0) (0.256271 -0.12246 0));
    }
}


// ************************************************************************* //
